/*--------------------------------*- C++ -*----------------------------------*\
| =========                 |                                                 |
| \\      /  F ield         | OpenFOAM: The Open Source CFD Toolbox           |
|  \\    /   O peration     | Version:  dev                                   |
|   \\  /    A nd           | Web:      http://www.openfoam.org               |
|    \\/     M anipulation  |                                                 |
\*---------------------------------------------------------------------------*/
FoamFile
{
    version     2.0;
    format      ascii;
    class       volScalarField;
    object      rho_0;
    location    "9.125";
}
// * * * * * * * * * * * * * * * * * * * * * * * * * * * * * * * * * * * * * //

dimensions      [1 -3 0 0 0 0 0];

internalField   nonuniform List<scalar> 
12225
(
1.23673
1.23272
1.23251
1.23212
1.23149
1.23057
1.22846
1.22818
1.22496
1.22602
1.22148
1.22513
1.21908
1.22508
1.22126
1.21927
1.22863
1.22058
1.23342
1.22992
1.23242
1.23435
1.23564
1.23715
1.23519
1.23777
1.23285
1.23793
1.22916
1.23873
1.22763
1.23753
1.23273
1.231
1.23668
1.24333
1.23205
1.22912
1.23155
1.23406
1.23536
1.23746
1.23702
1.23905
1.23757
1.23939
1.23727
1.23883
1.23755
1.23815
1.23749
1.23727
1.2432
1.24418
1.23214
1.22784
1.23151
1.23138
1.23492
1.23342
1.23671
1.2337
1.23777
1.23388
1.23777
1.23413
1.23732
1.23553
1.23755
1.23753
1.23848
1.24063
1.23224
1.22537
1.23139
1.2286
1.23341
1.23066
1.23464
1.23104
1.23504
1.23169
1.23497
1.23236
1.23493
1.23446
1.2359
1.23822
1.2341
1.23865
1.23162
1.22326
1.23075
1.22663
1.23223
1.22907
1.23329
1.22943
1.23358
1.22983
1.2334
1.23018
1.23341
1.23217
1.23427
1.23499
1.23317
1.23557
1.23012
1.22089
1.22913
1.22375
1.22963
1.22626
1.23084
1.2266
1.23122
1.22715
1.23096
1.22816
1.23092
1.22999
1.23176
1.23155
1.23282
1.23417
1.22818
1.21828
1.22676
1.22115
1.22679
1.22357
1.22844
1.22384
1.22851
1.22425
1.22809
1.22526
1.22796
1.22698
1.22884
1.22812
1.22924
1.22928
1.22582
1.21579
1.22346
1.21856
1.22369
1.2212
1.22514
1.22129
1.22482
1.22155
1.22419
1.2225
1.22396
1.22411
1.22462
1.22473
1.22499
1.22546
1.22209
1.2124
1.21972
1.2152
1.2201
1.21743
1.22051
1.21729
1.21965
1.21736
1.21903
1.21789
1.21872
1.21889
1.219
1.21954
1.21929
1.21994
1.21771
1.20907
1.2141
1.21084
1.21487
1.21246
1.21428
1.21244
1.21298
1.21214
1.21259
1.21174
1.21212
1.21238
1.21185
1.21258
1.21237
1.2126
1.21101
1.2035
1.20672
1.20494
1.20723
1.20549
1.2062
1.20456
1.20502
1.20439
1.2038
1.20366
1.20334
1.20323
1.2033
1.20303
1.20282
1.20309
1.203
1.19663
1.19781
1.19678
1.19753
1.19608
1.19574
1.19531
1.19462
1.19398
1.19352
1.19322
1.19257
1.19218
1.19218
1.1921
1.19168
1.19171
1.19305
1.18718
1.18711
1.18658
1.18604
1.18483
1.18423
1.18327
1.18237
1.18199
1.18108
1.1804
1.18002
1.17983
1.1791
1.17883
1.17886
1.17879
1.18127
1.17546
1.1744
1.17357
1.17241
1.17118
1.17018
1.16919
1.16828
1.16753
1.16679
1.16645
1.16575
1.16534
1.1651
1.16488
1.1645
1.16453
1.1666
1.16092
1.15939
1.15827
1.15693
1.15566
1.1545
1.15341
1.15253
1.15184
1.15122
1.15081
1.15036
1.15023
1.14996
1.1498
1.14983
1.14985
1.14962
1.14398
1.14207
1.14084
1.13968
1.13858
1.13759
1.13676
1.13615
1.13563
1.13537
1.13525
1.13524
1.1353
1.13545
1.13566
1.13595
1.13627
1.13085
1.12605
1.12451
1.12376
1.12309
1.1224
1.12201
1.12182
1.12185
1.122
1.12238
1.12276
1.12336
1.12384
1.1245
1.12505
1.1258
1.12654
1.11453
1.11067
1.10976
1.10967
1.1097
1.10982
1.11021
1.11075
1.11154
1.11237
1.11337
1.11437
1.11555
1.11665
1.118
1.11918
1.12065
1.12184
1.10137
1.0986
1.0985
1.09913
1.10012
1.10104
1.10215
1.10339
1.10493
1.10649
1.10821
1.10982
1.11161
1.11331
1.11518
1.11691
1.11885
1.12044
1.09112
1.08923
1.08971
1.09099
1.09274
1.0944
1.09635
1.0983
1.10048
1.10276
1.10513
1.10729
1.10964
1.11172
1.11403
1.1161
1.11834
1.12038
1.08286
1.08187
1.08294
1.08488
1.08707
1.0895
1.092
1.09457
1.09739
1.10017
1.1031
1.10579
1.10856
1.11105
1.11367
1.11607
1.11855
1.12091
1.07692
1.07641
1.07792
1.08053
1.08336
1.08626
1.08918
1.09227
1.09545
1.0986
1.10182
1.10488
1.10795
1.11079
1.1136
1.11623
1.11882
1.12133
1.07238
1.07254
1.07447
1.07743
1.08053
1.08364
1.08701
1.09033
1.09386
1.09741
1.10087
1.10429
1.10759
1.11073
1.11374
1.11651
1.11924
1.12179
1.06926
1.06978
1.07178
1.07488
1.07829
1.08181
1.08543
1.08906
1.09275
1.09635
1.10005
1.10353
1.10708
1.11045
1.11367
1.11673
1.11958
1.12234
1.06734
1.06771
1.06991
1.07338
1.0771
1.08077
1.08451
1.08816
1.0919
1.09565
1.09943
1.10314
1.1068
1.11034
1.11371
1.11696
1.12009
1.12307
1.06551
1.06628
1.06861
1.07214
1.07592
1.07965
1.08351
1.08735
1.09143
1.09548
1.09967
1.10366
1.10761
1.11134
1.11495
1.11843
1.12183
1.12509
1.06466
1.06573
1.06816
1.07168
1.07543
1.07936
1.08351
1.08781
1.0923
1.09669
1.10112
1.10521
1.10927
1.11301
1.11675
1.12014
1.12355
1.1265
1.06436
1.06556
1.06789
1.07147
1.07533
1.07944
1.08368
1.088
1.09211
1.096
1.09972
1.1032
1.10662
1.10973
1.11272
1.11534
1.11807
1.11995
1.06381
1.06536
1.06665
1.06887
1.0714
1.07401
1.07658
1.07915
1.0816
1.08406
1.0865
1.08892
1.09133
1.09366
1.09588
1.09804
1.10006
1.10193
1.24932
1.28041
1.26395
1.2631
1.24833
1.24051
1.23504
1.23098
1.23007
1.22933
1.22965
1.22929
1.22932
1.22928
1.22919
1.22834
1.22767
1.22674
1.22563
1.22443
1.22336
1.22287
1.22172
1.22032
1.21999
1.21973
1.21886
1.21893
1.21853
1.2176
1.21731
1.21691
1.21664
1.2163
1.2164
1.21659
1.21584
1.21626
1.21715
1.21591
1.21555
1.21741
1.21615
1.21096
1.20733
1.20824
1.21092
1.21382
1.21568
1.21599
1.21619
1.2187
1.22369
1.2292
1.23217
1.23381
1.23628
1.23912
1.23718
1.22275
1.2097
1.21147
1.21968
1.22677
1.23181
1.23724
1.23828
1.22549
1.20142
1.18885
1.19902
1.21731
1.23068
1.23973
1.24636
1.25197
1.25626
1.25986
1.26303
1.26618
1.26918
1.27196
1.27421
1.27652
1.27898
1.28141
1.28373
1.28598
1.28794
1.28971
1.29163
1.29401
1.29611
1.29776
1.29962
1.3003
1.3021
1.3043
1.30461
1.30456
1.3059
1.30556
1.30512
1.30416
1.30291
1.30145
1.30024
1.29925
1.2967
1.293
1.28759
1.28172
1.27624
1.27315
1.26905
1.26453
1.25881
1.25342
1.24374
1.23648
1.23662
1.23428
1.22002
1.20591
1.19412
1.18276
1.17062
1.1593
1.15144
1.14791
1.14411
1.14169
1.13897
1.13814
1.1344
1.13675
1.12597
1.12678
1.12434
1.11075
1.11489
1.11118
1.1115
1.10999
1.10952
1.10853
1.10913
1.10806
1.10899
1.10878
1.10824
1.10818
1.1072
1.10728
1.10782
1.10857
1.10933
1.10897
1.10951
1.11064
1.11441
1.11791
1.12292
1.12857
1.13631
1.13884
1.14769
1.14991
1.1546
1.14908
1.14008
1.13521
1.13954
1.14019
1.14358
1.14819
1.17198
1.16039
1.14373
1.12806
1.24575
1.30679
1.2693
1.2356
1.21831
1.20564
1.19641
1.19032
1.18796
1.18831
1.18969
1.19077
1.19224
1.19372
1.19546
1.19662
1.19804
1.19918
1.20018
1.20177
1.2036
1.20558
1.2059
1.20603
1.2086
1.21053
1.21012
1.21279
1.21332
1.21236
1.214
1.21258
1.21342
1.21505
1.21391
1.21608
1.21536
1.21433
1.21762
1.21613
1.21356
1.21854
1.21788
1.2136
1.22054
1.22393
1.21356
1.21581
1.23449
1.24671
1.24661
1.24524
1.24809
1.25812
1.26229
1.25327
1.24821
1.2477
1.25426
1.26739
1.26237
1.24318
1.23597
1.23761
1.24029
1.25013
1.26042
1.26645
1.2715
1.27997
1.28972
1.29644
1.29957
1.30124
1.30178
1.30165
1.30032
1.29889
1.29809
1.29831
1.29894
1.29903
1.298
1.29698
1.29742
1.29821
1.30003
1.30093
1.30285
1.30412
1.30503
1.3123
1.31546
1.31815
1.32811
1.32597
1.33088
1.33629
1.35068
1.35003
1.35733
1.36275
1.371
1.37631
1.38389
1.38831
1.392
1.39487
1.39743
1.39785
1.39624
1.39176
1.38437
1.38025
1.37523
1.36867
1.35732
1.34978
1.34473
1.33048
1.32049
1.33283
1.32953
1.2944
1.25217
1.21553
1.19189
1.17915
1.17277
1.17042
1.16427
1.16188
1.16292
1.16653
1.16143
1.17473
1.16021
1.16143
1.17152
1.13453
1.14307
1.13586
1.13577
1.13418
1.13487
1.13295
1.13473
1.13233
1.13129
1.13269
1.12688
1.12646
1.11788
1.11517
1.11116
1.11779
1.13256
1.14572
1.15515
1.15818
1.1587
1.16556
1.17685
1.18643
1.2083
1.21297
1.23232
1.23691
1.27212
1.25721
1.21848
1.19461
1.1637
1.15388
1.1958
1.22162
1.30348
1.30526
1.27837
1.2224
1.2283
1.31123
1.31155
1.2633
1.22092
1.20308
1.19768
1.18838
1.1831
1.18473
1.18729
1.19011
1.19316
1.19635
1.19983
1.20361
1.2076
1.21155
1.21565
1.21988
1.22232
1.22365
1.2251
1.22646
1.22761
1.2283
1.22786
1.22866
1.22716
1.22607
1.22628
1.22361
1.22422
1.22534
1.22089
1.22424
1.22118
1.21994
1.22398
1.21948
1.21855
1.22529
1.21993
1.21601
1.22047
1.21673
1.21038
1.21659
1.22086
1.21538
1.20829
1.21332
1.22922
1.24563
1.25701
1.25257
1.2372
1.23686
1.24167
1.23378
1.2359
1.25725
1.2518
1.23742
1.25551
1.27183
1.27483
1.27548
1.2752
1.27278
1.26742
1.26033
1.25346
1.24802
1.24342
1.23962
1.23514
1.23071
1.22707
1.22484
1.22362
1.22175
1.21976
1.21734
1.21596
1.21452
1.21349
1.21093
1.21116
1.21297
1.2099
1.2146
1.21425
1.21482
1.22121
1.2209
1.22373
1.22141
1.23609
1.23953
1.2438
1.24804
1.25867
1.26674
1.28255
1.29578
1.31036
1.32017
1.33187
1.34019
1.35649
1.37287
1.38679
1.38905
1.37987
1.37587
1.37539
1.35994
1.3654
1.38044
1.36022
1.35086
1.36986
1.35238
1.28666
1.22452
1.19489
1.18259
1.17837
1.17705
1.17971
1.18665
1.18543
1.1984
1.1837
1.17343
1.16443
1.1571
1.17956
1.16542
1.16709
1.15531
1.14766
1.13646
1.13349
1.12953
1.13072
1.12888
1.1246
1.12859
1.12037
1.12307
1.10151
1.08764
1.06075
1.05985
1.07708
1.10553
1.12925
1.153
1.17765
1.18097
1.18589
1.1904
1.20179
1.20372
1.21437
1.19904
1.28851
1.30405
1.23906
1.18251
1.14607
1.14508
1.21851
1.26951
1.29546
1.33267
1.3543
1.29287
1.21483
1.28849
1.32948
1.31341
1.27665
1.2477
1.21784
1.18864
1.18059
1.18673
1.19585
1.20423
1.21187
1.21956
1.22655
1.23231
1.23717
1.23992
1.24043
1.23829
1.23502
1.23288
1.23166
1.22953
1.22752
1.22688
1.22622
1.22497
1.22373
1.22314
1.22328
1.22113
1.2187
1.22007
1.21411
1.21445
1.21182
1.21157
1.21496
1.21269
1.21338
1.21803
1.21352
1.21877
1.22943
1.22338
1.21823
1.21999
1.21518
1.21747
1.21977
1.21472
1.21509
1.21984
1.22103
1.21725
1.21547
1.23006
1.23091
1.22483
1.25874
1.27362
1.24187
1.24249
1.26309
1.26607
1.26053
1.25489
1.24952
1.24325
1.23763
1.23353
1.23127
1.23067
1.23078
1.22992
1.22871
1.22894
1.23007
1.23105
1.23095
1.22914
1.22858
1.22889
1.22842
1.22817
1.22639
1.22092
1.21488
1.21862
1.21547
1.21948
1.21938
1.22132
1.21838
1.21391
1.21662
1.21728
1.21516
1.21562
1.21677
1.2153
1.21498
1.21373
1.21558
1.21496
1.2214
1.22463
1.23311
1.23466
1.243
1.2603
1.28477
1.29937
1.30342
1.28636
1.31542
1.34998
1.33257
1.35262
1.37627
1.34933
1.355
1.37115
1.30491
1.2106
1.18673
1.19614
1.19799
1.19815
1.18721
1.18523
1.21451
1.21722
1.20843
1.1943
1.16358
1.15896
1.15329
1.14359
1.14805
1.13957
1.15375
1.1439
1.14782
1.14613
1.14509
1.14686
1.13029
1.12785
1.10735
1.13237
1.12382
1.11209
1.06154
1.03896
1.04171
1.06192
1.0925
1.10109
1.1292
1.15445
1.15897
1.19445
1.20354
1.1908
1.17096
1.10339
1.21841
1.30056
1.25242
1.18438
1.17743
1.16788
1.19216
1.24342
1.15954
1.20687
1.29196
1.30033
1.20934
1.26883
1.32604
1.34606
1.33348
1.28554
1.21315
1.17188
1.17568
1.19455
1.21181
1.22532
1.23533
1.24354
1.25157
1.25001
1.24008
1.22984
1.22324
1.22051
1.22032
1.22012
1.22045
1.22107
1.22233
1.22356
1.22512
1.22617
1.22729
1.22681
1.22715
1.22633
1.22395
1.22012
1.21625
1.21557
1.21344
1.21555
1.20968
1.20205
1.20219
1.20364
1.20232
1.20292
1.20691
1.21689
1.22534
1.21571
1.2137
1.22163
1.21417
1.20669
1.20573
1.2012
1.19848
1.20595
1.22308
1.23689
1.24191
1.24756
1.24974
1.23737
1.23882
1.25995
1.26015
1.2487
1.23973
1.23241
1.22665
1.22283
1.22227
1.22345
1.22681
1.23047
1.23255
1.23115
1.2276
1.22457
1.2225
1.21864
1.21424
1.21147
1.21132
1.21022
1.20753
1.20532
1.20433
1.19963
1.1904
1.19104
1.18899
1.19492
1.20007
1.20705
1.21077
1.20335
1.20412
1.20605
1.20862
1.21669
1.2206
1.22074
1.22329
1.22318
1.22744
1.22405
1.2259
1.22458
1.2208
1.21908
1.21968
1.20995
1.2197
1.23002
1.24366
1.24229
1.2137
1.22736
1.27453
1.28994
1.32983
1.35297
1.33985
1.34603
1.326
1.25521
1.19396
1.18028
1.1876
1.18984
1.18574
1.21485
1.21609
1.21736
1.23608
1.20189
1.18603
1.18312
1.18165
1.17335
1.16815
1.13923
1.14137
1.12246
1.11889
1.11967
1.11656
1.14733
1.13045
1.12613
1.06742
1.08274
1.09768
1.12727
1.08981
1.04176
1.03395
1.03752
1.07652
1.0906
1.09027
1.13363
1.11663
1.16919
1.19645
1.19558
1.17551
1.06362
1.1281
1.26238
1.25713
1.19781
1.21748
1.20828
1.15623
1.16701
1.1041
1.12865
1.18204
1.23205
1.20841
1.26187
1.32993
1.37678
1.36422
1.27607
1.19336
1.17573
1.19912
1.22609
1.24588
1.27537
1.2979
1.25623
1.22077
1.21818
1.22398
1.22818
1.22892
1.23073
1.23164
1.23152
1.23055
1.23085
1.23284
1.23645
1.24036
1.24079
1.242
1.24312
1.24178
1.23992
1.23532
1.2316
1.23188
1.22933
1.22604
1.22463
1.22359
1.22278
1.21682
1.20581
1.19967
1.19402
1.19159
1.20305
1.21292
1.21664
1.21793
1.21085
1.21555
1.22577
1.21491
1.20211
1.21048
1.22783
1.24255
1.24805
1.24113
1.23358
1.23282
1.23963
1.25199
1.24984
1.23527
1.22203
1.21336
1.21067
1.21368
1.21939
1.22479
1.23044
1.23515
1.2358
1.22952
1.21947
1.20962
1.20185
1.19507
1.1873
1.18131
1.17858
1.17754
1.17667
1.17564
1.17412
1.17479
1.17206
1.16739
1.16192
1.15948
1.16117
1.16756
1.17842
1.18753
1.1791
1.17151
1.17653
1.16936
1.18679
1.19829
1.196
1.20114
1.19943
1.20537
1.20807
1.21393
1.21633
1.22065
1.21994
1.22068
1.22095
1.21379
1.20883
1.20971
1.20819
1.20166
1.18986
1.20851
1.23192
1.22854
1.24433
1.28021
1.34526
1.35913
1.29167
1.2053
1.17753
1.19039
1.22662
1.20633
1.20065
1.22439
1.20404
1.21704
1.20321
1.2096
1.20102
1.20689
1.1864
1.18332
1.15567
1.14815
1.14228
1.13251
1.13094
1.0956
1.10955
1.09301
1.12754
1.08644
1.06278
1.04636
1.092
1.11274
1.05974
1.04256
1.03586
1.07325
1.09965
1.05203
1.10124
1.06407
1.11193
1.1583
1.19217
1.20569
1.09746
1.08092
1.21514
1.26013
1.21755
1.23953
1.24148
1.17133
1.15528
1.14292
1.15844
1.15766
1.21164
1.20895
1.25926
1.33391
1.38158
1.33771
1.23516
1.18327
1.19011
1.21788
1.25886
1.29085
1.21943
1.20267
1.25431
1.23195
1.23699
1.2429
1.23173
1.23088
1.22816
1.22607
1.22212
1.21865
1.21827
1.22155
1.22665
1.22991
1.22852
1.23103
1.23284
1.23321
1.23093
1.22411
1.21865
1.21658
1.21773
1.22039
1.22324
1.22213
1.21814
1.21389
1.21498
1.21139
1.19245
1.18294
1.19418
1.20428
1.20792
1.20829
1.21407
1.21613
1.19815
1.18829
1.20249
1.22819
1.23951
1.23834
1.23923
1.23949
1.24012
1.24338
1.24413
1.23555
1.2173
1.20312
1.19975
1.20675
1.21862
1.22875
1.23467
1.23701
1.23541
1.22553
1.21008
1.19269
1.17897
1.17072
1.16567
1.16069
1.15692
1.15682
1.15744
1.15702
1.1579
1.15881
1.15965
1.16111
1.16241
1.16539
1.16345
1.16312
1.15837
1.15615
1.1551
1.16016
1.15953
1.15038
1.15605
1.13944
1.15824
1.18514
1.17796
1.19075
1.18126
1.18956
1.19341
1.20173
1.20469
1.20452
1.21196
1.2151
1.21555
1.21395
1.21223
1.21713
1.20587
1.19968
1.19657
1.19069
1.18955
1.19543
1.20283
1.20337
1.21341
1.29121
1.34792
1.28599
1.20875
1.1719
1.1701
1.21937
1.21404
1.24077
1.20437
1.18451
1.15775
1.1891
1.19247
1.19819
1.17913
1.19258
1.18623
1.15978
1.13213
1.1012
1.11875
1.09368
1.10484
1.0608
1.08598
1.08589
1.08263
1.05545
1.05607
1.09742
1.06284
1.04791
1.02958
1.06775
1.11878
1.04052
1.08197
1.04807
1.0662
1.10053
1.15574
1.21159
1.14888
1.06061
1.15562
1.24514
1.23657
1.26532
1.26726
1.19534
1.17215
1.18362
1.16396
1.11836
1.20926
1.20839
1.24902
1.31242
1.34286
1.28293
1.20415
1.18297
1.21802
1.27147
1.25099
1.22326
1.25611
1.24651
1.25822
1.24938
1.22383
1.22867
1.2271
1.22711
1.23758
1.23544
1.23323
1.22839
1.22606
1.2266
1.23008
1.23394
1.23286
1.23523
1.23756
1.23911
1.2379
1.23187
1.22429
1.22063
1.21871
1.2174
1.21729
1.21717
1.21348
1.20692
1.20373
1.19853
1.18994
1.19003
1.19678
1.20235
1.20069
1.20418
1.21013
1.19285
1.1809
1.19727
1.21397
1.23071
1.24204
1.23884
1.23549
1.23509
1.23389
1.22907
1.21913
1.20692
1.20002
1.20418
1.21386
1.22273
1.22806
1.23011
1.2267
1.21566
1.1987
1.18148
1.16864
1.16029
1.15728
1.15862
1.16238
1.16535
1.16923
1.17304
1.17442
1.17475
1.17673
1.17686
1.1765
1.17753
1.17826
1.18139
1.18572
1.18945
1.1911
1.18742
1.17881
1.16213
1.15381
1.14753
1.14746
1.13877
1.12788
1.15232
1.13785
1.15683
1.14557
1.15782
1.15667
1.17562
1.18651
1.19335
1.19527
1.19958
1.20165
1.21464
1.20203
1.20546
1.21101
1.20505
1.19429
1.19881
1.18721
1.18467
1.17035
1.18269
1.17617
1.17994
1.25315
1.30719
1.27475
1.24706
1.17745
1.19019
1.1862
1.18443
1.16682
1.16823
1.15793
1.1735
1.18309
1.21053
1.19622
1.19598
1.18839
1.15507
1.13472
1.09384
1.11211
1.08124
1.0949
1.05707
1.06397
1.05891
1.05857
1.059
1.03206
1.06402
1.05661
1.06668
1.03879
1.04483
1.12197
1.05047
1.07372
1.0672
1.06655
1.0698
1.1119
1.19267
1.19012
1.05999
1.10104
1.21056
1.24176
1.29092
1.27363
1.25488
1.23034
1.24376
1.21453
1.12357
1.21074
1.20766
1.23491
1.27832
1.28988
1.23232
1.18719
1.20605
1.25674
1.27319
1.24937
1.23892
1.27206
1.24269
1.23089
1.23741
1.21939
1.23313
1.24386
1.24999
1.25276
1.25402
1.24961
1.24271
1.2343
1.22823
1.22783
1.23317
1.23359
1.23322
1.23606
1.23914
1.24253
1.24258
1.23708
1.23198
1.22715
1.22396
1.22375
1.22525
1.22118
1.20987
1.20231
1.20184
1.19796
1.19079
1.19157
1.20063
1.20662
1.20594
1.2016
1.19238
1.19134
1.21099
1.22669
1.22689
1.23069
1.23246
1.22923
1.22451
1.21714
1.20675
1.19674
1.19242
1.19532
1.20343
1.21196
1.21821
1.21924
1.20969
1.19376
1.17901
1.16793
1.16308
1.16446
1.16872
1.17327
1.17804
1.18124
1.18046
1.17878
1.17497
1.16962
1.16472
1.16227
1.16011
1.15755
1.15882
1.15832
1.16122
1.16837
1.17715
1.1883
1.19909
1.21335
1.2138
1.19891
1.18942
1.17896
1.18943
1.16799
1.15362
1.13493
1.14558
1.12785
1.14078
1.11549
1.15494
1.14573
1.1604
1.16233
1.18513
1.17836
1.19814
1.19574
1.20292
1.19672
1.20752
1.19631
1.19624
1.19085
1.19447
1.17995
1.17072
1.17299
1.16579
1.16027
1.22451
1.25306
1.27698
1.24829
1.23735
1.21926
1.19
1.17379
1.17241
1.17097
1.19044
1.19114
1.21742
1.20093
1.18347
1.17953
1.14773
1.13632
1.0879
1.09524
1.06796
1.07736
1.05291
1.04472
1.04028
1.04921
1.07038
1.02738
1.02558
1.03299
1.07479
1.07507
1.04171
1.12392
1.07408
1.07422
1.08044
1.08477
1.0679
1.07393
1.15177
1.20261
1.07981
1.06558
1.15723
1.23008
1.31224
1.27511
1.3155
1.26986
1.20032
1.19196
1.16436
1.26347
1.20768
1.22166
1.24204
1.2346
1.19408
1.19348
1.23927
1.26264
1.25719
1.25109
1.24713
1.25124
1.23998
1.22988
1.24388
1.24129
1.24378
1.24831
1.24649
1.2459
1.24827
1.24934
1.25016
1.24346
1.23203
1.22056
1.21877
1.22167
1.22074
1.22006
1.21991
1.22144
1.22666
1.22867
1.22673
1.22371
1.22062
1.21804
1.21914
1.22401
1.2239
1.21421
1.2023
1.2038
1.19646
1.19059
1.1944
1.20553
1.21276
1.20132
1.19284
1.20252
1.21398
1.22086
1.22229
1.21963
1.21674
1.2109
1.20274
1.1952
1.18969
1.18966
1.1965
1.20539
1.21194
1.21226
1.20578
1.19199
1.17518
1.16264
1.15631
1.15538
1.16251
1.17181
1.17604
1.17399
1.17088
1.16419
1.15354
1.14277
1.13367
1.12791
1.12502
1.12437
1.12515
1.12358
1.1229
1.12153
1.12004
1.12025
1.12841
1.13917
1.15158
1.16186
1.19259
1.20992
1.20819
1.20083
1.20049
1.20517
1.18152
1.16597
1.15846
1.14384
1.16151
1.11304
1.15084
1.12941
1.14488
1.13311
1.15966
1.14478
1.17709
1.1648
1.18457
1.18608
1.19235
1.1921
1.18841
1.18389
1.19132
1.16921
1.19031
1.15083
1.17953
1.14358
1.16928
1.17055
1.21311
1.24463
1.24095
1.25497
1.24373
1.21297
1.21642
1.2182
1.23154
1.19962
1.20305
1.17868
1.15972
1.16589
1.12829
1.1194
1.07738
1.08732
1.06342
1.06717
1.06196
1.04644
1.03569
1.04004
1.06347
1.02544
0.994531
1.01777
1.06646
1.111
1.06301
1.10478
1.0846
1.07015
1.07543
1.10489
1.09345
1.0654
1.12505
1.19242
1.11385
1.05207
1.10085
1.21282
1.29352
1.27742
1.36259
1.28849
1.21701
1.19275
1.19749
1.25967
1.20922
1.21475
1.22379
1.21716
1.20104
1.21981
1.26195
1.27211
1.2645
1.26726
1.26254
1.24776
1.24533
1.24021
1.24493
1.24539
1.23984
1.24393
1.24852
1.25493
1.25504
1.26029
1.25834
1.26231
1.25994
1.24727
1.23154
1.22897
1.22923
1.22623
1.22334
1.22053
1.21946
1.22135
1.22227
1.22067
1.217
1.2132
1.20919
1.21188
1.22029
1.22145
1.20158
1.19814
1.20002
1.1903
1.18655
1.19375
1.20232
1.19637
1.18927
1.1989
1.21306
1.21527
1.21251
1.20739
1.19974
1.19263
1.18676
1.18354
1.18433
1.18943
1.19682
1.2036
1.2071
1.20347
1.18964
1.17232
1.16201
1.15724
1.15491
1.159
1.17044
1.17484
1.16932
1.1574
1.14651
1.13599
1.12592
1.11956
1.11804
1.12152
1.12725
1.13302
1.13827
1.14075
1.1423
1.14338
1.13877
1.13047
1.123
1.12423
1.13729
1.14352
1.14597
1.1736
1.19405
1.21019
1.20614
1.21048
1.20234
1.18704
1.16794
1.15649
1.16099
1.13722
1.1507
1.14143
1.15022
1.13105
1.15556
1.13808
1.16043
1.14944
1.16373
1.17021
1.17042
1.18631
1.18367
1.17017
1.21196
1.13879
1.20928
1.14477
1.17706
1.14194
1.1657
1.13439
1.14271
1.19656
1.17157
1.22215
1.23162
1.2055
1.22338
1.20565
1.21336
1.17389
1.18099
1.15557
1.13008
1.13603
1.10079
1.10131
1.06285
1.07436
1.05589
1.06034
1.05801
1.03448
1.03261
1.04062
1.05969
1.03465
0.987442
1.01157
1.04663
1.12904
1.11225
1.09415
1.08771
1.07329
1.07271
1.11675
1.12025
1.06996
1.10853
1.1685
1.13738
1.04204
1.05488
1.1891
1.26315
1.27271
1.39479
1.29763
1.22309
1.23468
1.27025
1.27725
1.21139
1.21015
1.20902
1.19927
1.20586
1.25443
1.29158
1.28731
1.26072
1.26377
1.26616
1.24874
1.24834
1.25289
1.25038
1.24895
1.25005
1.25767
1.26042
1.25993
1.25414
1.25388
1.24896
1.2456
1.24614
1.24785
1.2426
1.23554
1.23281
1.23237
1.22997
1.22815
1.22649
1.22322
1.22144
1.21932
1.21628
1.21805
1.21605
1.21156
1.21094
1.2206
1.2151
1.19236
1.19103
1.19285
1.19102
1.19061
1.18599
1.17678
1.18293
1.19706
1.20712
1.20749
1.20044
1.19505
1.1897
1.18263
1.17853
1.17949
1.18407
1.18904
1.19115
1.18788
1.17917
1.16819
1.15835
1.15361
1.15271
1.15274
1.15536
1.1615
1.16361
1.15618
1.14339
1.12819
1.11686
1.11092
1.10986
1.11429
1.12322
1.13226
1.13725
1.13902
1.13836
1.13617
1.13359
1.1382
1.14383
1.14607
1.14328
1.13209
1.12658
1.13482
1.13623
1.14407
1.16337
1.18445
1.20942
1.21571
1.21844
1.2058
1.18191
1.16964
1.15404
1.15094
1.14646
1.14214
1.15462
1.14256
1.14816
1.14619
1.15367
1.14178
1.15457
1.15841
1.15037
1.17517
1.17887
1.14793
1.22064
1.13731
1.20178
1.15594
1.18126
1.14813
1.17261
1.14371
1.12881
1.17261
1.12935
1.17629
1.17535
1.16988
1.18218
1.16329
1.1777
1.14637
1.14672
1.11475
1.09415
1.11098
1.08702
1.08992
1.06221
1.07082
1.05364
1.05307
1.05479
1.03306
1.04282
1.04307
1.04291
1.04847
1.00537
1.0124
1.03703
1.12671
1.1394
1.1053
1.1059
1.09947
1.09167
1.13563
1.14779
1.08998
1.10282
1.14663
1.15161
1.03524
1.02144
1.16802
1.22832
1.26076
1.41454
1.30687
1.20389
1.22108
1.26749
1.28687
1.21453
1.20961
1.20271
1.18753
1.19534
1.24989
1.28165
1.27825
1.26816
1.27335
1.26713
1.24913
1.25464
1.25643
1.24462
1.24968
1.25981
1.25795
1.24711
1.24158
1.24142
1.24698
1.25392
1.2507
1.24294
1.23769
1.23612
1.23668
1.23501
1.23213
1.2278
1.22258
1.22677
1.2285
1.22321
1.21787
1.21052
1.20589
1.20465
1.20572
1.20156
1.20259
1.21576
1.21249
1.19091
1.18612
1.19802
1.19749
1.18334
1.16584
1.1709
1.19234
1.20127
1.20016
1.19465
1.18438
1.17744
1.17385
1.17321
1.17608
1.18149
1.18634
1.18815
1.18513
1.17254
1.15323
1.14078
1.14294
1.15433
1.16357
1.16675
1.16096
1.14653
1.13162
1.11814
1.10583
1.1006
1.1041
1.11271
1.12199
1.13031
1.13102
1.12234
1.1141
1.11197
1.11277
1.10937
1.10692
1.11151
1.11513
1.12683
1.13626
1.13967
1.13772
1.1349
1.13361
1.14718
1.16189
1.17986
1.20759
1.21062
1.20706
1.19796
1.18154
1.16189
1.15433
1.14734
1.14524
1.15426
1.15526
1.14927
1.15298
1.15273
1.1385
1.15299
1.15389
1.13854
1.16099
1.17348
1.14094
1.20372
1.15842
1.19374
1.1641
1.18421
1.16292
1.17703
1.15508
1.14904
1.1629
1.138
1.15881
1.14421
1.14606
1.13997
1.14038
1.14592
1.11874
1.12798
1.10554
1.09177
1.09624
1.07035
1.08046
1.06949
1.07217
1.06157
1.06278
1.05991
1.03388
1.05766
1.04414
1.026
1.05937
1.02785
1.04534
1.07256
1.17001
1.16646
1.12184
1.13983
1.13336
1.11466
1.15671
1.16609
1.11224
1.10579
1.13651
1.15945
1.02884
1.01028
1.16115
1.18571
1.26082
1.40573
1.28292
1.22268
1.27126
1.29737
1.31098
1.21811
1.21187
1.20524
1.20712
1.2323
1.27191
1.29689
1.28091
1.26596
1.26576
1.26144
1.25168
1.26059
1.26435
1.26023
1.26647
1.27107
1.26888
1.26044
1.25419
1.25352
1.2589
1.26347
1.26383
1.25827
1.24994
1.24122
1.23734
1.23749
1.23417
1.23524
1.22936
1.2227
1.22457
1.22944
1.23223
1.22496
1.21406
1.20204
1.19427
1.20188
1.20813
1.19699
1.21133
1.21271
1.18435
1.1795
1.19043
1.18464
1.17085
1.16575
1.18066
1.1981
1.19551
1.18644
1.1787
1.17049
1.16575
1.16615
1.17038
1.17523
1.17818
1.17881
1.17757
1.17295
1.163
1.15239
1.15045
1.15425
1.15648
1.15242
1.14005
1.12726
1.11833
1.10786
1.09642
1.09478
1.10412
1.11557
1.12146
1.12188
1.11587
1.10168
1.08683
1.08721
1.09899
1.10847
1.1089
1.10994
1.10976
1.10581
1.10855
1.11568
1.12982
1.13507
1.1365
1.13882
1.15721
1.17149
1.19001
1.20143
1.20058
1.19708
1.18675
1.16601
1.15379
1.14785
1.14194
1.1484
1.15963
1.15541
1.15648
1.15703
1.1462
1.15016
1.1531
1.14005
1.14874
1.16375
1.14249
1.17685
1.16219
1.1805
1.16418
1.17641
1.17084
1.17418
1.16065
1.15807
1.15758
1.15361
1.1489
1.14305
1.14139
1.1241
1.13006
1.12577
1.11541
1.12032
1.09438
1.09834
1.10121
1.07497
1.08917
1.07806
1.06816
1.07487
1.06953
1.05825
1.04821
1.07186
1.03815
1.02754
1.06415
1.04947
1.09979
1.11487
1.20112
1.18648
1.13179
1.16507
1.16073
1.13376
1.17655
1.17782
1.13378
1.11258
1.14299
1.15334
1.02856
1.02461
1.15956
1.1451
1.28087
1.38101
1.26405
1.2058
1.27711
1.31721
1.33849
1.22181
1.21553
1.20929
1.22143
1.26135
1.28294
1.29081
1.28492
1.28557
1.28737
1.27487
1.26652
1.27724
1.28252
1.28483
1.29428
1.29989
1.29376
1.27863
1.2669
1.26034
1.26155
1.26262
1.25658
1.24895
1.24332
1.24061
1.23754
1.23635
1.22843
1.22482
1.22594
1.22741
1.22192
1.21149
1.20799
1.20733
1.21403
1.22152
1.20017
1.1776
1.2014
1.21194
1.1939
1.2113
1.21208
1.18544
1.17543
1.16879
1.16594
1.17482
1.17775
1.184
1.19013
1.18336
1.17246
1.16419
1.15988
1.15981
1.16429
1.17023
1.1739
1.17213
1.16412
1.15519
1.15373
1.15691
1.15762
1.1527
1.14691
1.13995
1.13492
1.12825
1.11787
1.10475
1.09575
1.09489
1.09727
1.10135
1.10369
1.10234
1.1016
1.10301
1.0985
1.09393
1.10084
1.11398
1.12736
1.13712
1.13775
1.13121
1.12577
1.12068
1.11975
1.12314
1.12969
1.14093
1.15206
1.17335
1.1858
1.18746
1.19102
1.18145
1.17918
1.17035
1.15387
1.15113
1.14249
1.13845
1.15124
1.15923
1.16035
1.16599
1.16222
1.15308
1.15452
1.14812
1.14891
1.15672
1.14985
1.16325
1.16072
1.17028
1.16315
1.1672
1.16811
1.1666
1.1669
1.15934
1.15978
1.15934
1.14872
1.14867
1.14079
1.13038
1.13426
1.11732
1.12201
1.11884
1.10071
1.11125
1.10102
1.08602
1.10594
1.08393
1.07523
1.09297
1.06567
1.06457
1.06705
1.06456
1.03855
1.05024
1.06902
1.0825
1.17903
1.18302
1.25505
1.18882
1.12686
1.2034
1.1923
1.1575
1.20103
1.1913
1.15337
1.11978
1.1562
1.14294
1.03425
1.05787
1.14648
1.11881
1.32624
1.34821
1.24295
1.22847
1.31016
1.342
1.3484
1.22509
1.21884
1.21071
1.21713
1.26047
1.29853
1.29944
1.28116
1.27287
1.27991
1.28032
1.27061
1.27255
1.27662
1.27691
1.27834
1.27754
1.2725
1.26513
1.26209
1.26528
1.27011
1.27025
1.26421
1.2571
1.25009
1.24574
1.24211
1.23996
1.23554
1.23382
1.22906
1.22451
1.23044
1.22336
1.21105
1.20108
1.18923
1.19781
1.21387
1.19177
1.17086
1.2018
1.2018
1.19366
1.20569
1.20345
1.18885
1.17159
1.15172
1.1617
1.18378
1.18575
1.18105
1.17671
1.16785
1.15776
1.15206
1.15261
1.15805
1.16577
1.17281
1.17379
1.16412
1.14447
1.13117
1.13367
1.1432
1.14725
1.145
1.14264
1.14375
1.14021
1.12855
1.10883
1.09352
1.08648
1.0867
1.09534
1.10442
1.10148
1.09638
1.10153
1.10462
1.09518
1.08413
1.07871
1.08658
1.10558
1.11677
1.11784
1.11621
1.11974
1.12447
1.12793
1.13475
1.14795
1.16647
1.17903
1.18728
1.18324
1.17782
1.16826
1.16128
1.15112
1.14719
1.14754
1.14166
1.13623
1.1437
1.15221
1.15889
1.16978
1.17329
1.16438
1.16118
1.15627
1.15339
1.154
1.15222
1.15448
1.15533
1.16063
1.16265
1.1616
1.16323
1.16412
1.16808
1.16294
1.16344
1.16005
1.15386
1.15582
1.14366
1.14268
1.14028
1.12349
1.13524
1.11682
1.1185
1.12458
1.10278
1.10846
1.11851
1.08586
1.09551
1.10181
1.0674
1.07882
1.07757
1.05777
1.04588
1.0596
1.09063
1.13801
1.24077
1.21815
1.28832
1.19949
1.10759
1.22252
1.18982
1.13852
1.19836
1.20168
1.16989
1.12911
1.17113
1.13306
1.04721
1.08706
1.123
1.12506
1.36698
1.31387
1.22423
1.25592
1.35005
1.38246
1.34221
1.22854
1.22411
1.21537
1.20919
1.23263
1.28227
1.31436
1.31273
1.29755
1.29025
1.2873
1.27814
1.27236
1.26922
1.26757
1.26451
1.26357
1.26511
1.26931
1.27739
1.28435
1.28416
1.27273
1.25751
1.2469
1.24056
1.23515
1.23092
1.2284
1.22577
1.22226
1.23294
1.22212
1.20995
1.21169
1.21037
1.21277
1.20903
1.1913
1.18813
1.19827
1.18218
1.18542
1.20253
1.19574
1.19232
1.19602
1.19337
1.18636
1.16275
1.14579
1.16279
1.18433
1.18497
1.17553
1.16505
1.15371
1.14482
1.14249
1.14682
1.15512
1.16506
1.17381
1.17453
1.16097
1.1412
1.13022
1.13301
1.1407
1.1468
1.15071
1.15324
1.14658
1.12792
1.1059
1.09101
1.08331
1.08201
1.08509
1.09654
1.09816
1.09146
1.09622
1.10112
1.09736
1.08684
1.07773
1.08022
1.08918
1.09273
1.09258
1.09868
1.10242
1.10701
1.11242
1.12934
1.14885
1.16956
1.18278
1.18012
1.17229
1.15961
1.15085
1.14714
1.13557
1.13437
1.13445
1.13538
1.13683
1.14268
1.15
1.16069
1.17063
1.18021
1.17534
1.17189
1.16756
1.1637
1.15759
1.1549
1.15545
1.15631
1.15906
1.15959
1.16152
1.16296
1.16776
1.17018
1.1678
1.16789
1.16413
1.16037
1.16022
1.14778
1.155
1.1399
1.1387
1.14537
1.12503
1.13973
1.13026
1.11612
1.13226
1.11832
1.09862
1.11508
1.10497
1.07484
1.09229
1.08458
1.05081
1.05579
1.08058
1.13535
1.20203
1.25004
1.21855
1.26716
1.19897
1.09909
1.21646
1.18951
1.11437
1.16823
1.19028
1.1724
1.13626
1.18345
1.12877
1.06713
1.09917
1.10678
1.16098
1.38607
1.27591
1.22858
1.2898
1.37616
1.40541
1.33039
1.23204
1.23091
1.22245
1.21024
1.20773
1.23463
1.27487
1.30447
1.31632
1.31727
1.31582
1.31128
1.30434
1.29933
1.2944
1.29167
1.29247
1.29515
1.29968
1.29846
1.2874
1.2704
1.25241
1.24333
1.23883
1.23791
1.23771
1.24111
1.23892
1.24376
1.23683
1.2264
1.22697
1.22147
1.20832
1.20248
1.19113
1.19725
1.2034
1.19276
1.19002
1.183
1.17127
1.18547
1.19892
1.19446
1.18779
1.18437
1.18727
1.18065
1.15591
1.14476
1.1605
1.178
1.17858
1.16832
1.1556
1.143
1.13514
1.13532
1.14237
1.15183
1.16141
1.16978
1.16976
1.16007
1.14943
1.14426
1.14745
1.15206
1.15431
1.15553
1.14795
1.13273
1.11021
1.09271
1.08456
1.0853
1.08719
1.09579
1.09432
1.08141
1.07937
1.08394
1.08505
1.0835
1.08678
1.09928
1.11097