/*--------------------------------*- C++ -*----------------------------------*\
| =========                 |                                                 |
| \\      /  F ield         | OpenFOAM: The Open Source CFD Toolbox           |
|  \\    /   O peration     | Version:  dev                                   |
|   \\  /    A nd           | Web:      http://www.openfoam.org               |
|    \\/     M anipulation  |                                                 |
\*---------------------------------------------------------------------------*/
FoamFile
{
    version     2.0;
    format      ascii;
    class       volScalarField;
    object      T;
    location    "9.125";
}
// * * * * * * * * * * * * * * * * * * * * * * * * * * * * * * * * * * * * * //

dimensions      [0 0 0 1 0 0 0];

internalField   nonuniform List<scalar> 
12225
(
301.741
302.542
302.242
301.877
301.538
301.211
301.226
300.784
301.158
300.506
301.366
300.257
301.631
300.255
301.084
301.98
299.945
302.431
302.536
303.348
302.403
301.477
300.662
299.75
299.725
298.591
299.388
297.739
299.657
297.111
299.701
297.455
298.41
299.281
298.43
297.977
302.772
303.458
302.53
301.441
300.625
299.565
299.182
298.183
298.141
297.309
297.573
296.994
297.227
297.057
297.256
297.711
296.717
296.699
302.555
303.571
302.345
301.895
300.527
300.355
299.042
299.3
297.886
298.465
297.253
297.94
297.095
297.519
297.126
297.304
297.314
297.511
302.224
303.874
302.071
302.276
300.61
300.761
299.271
299.684
298.284
298.745
297.67
298.114
297.44
297.52
297.378
296.781
297.957
297.768
301.929
303.964
301.788
302.332
300.477
300.742
299.197
299.686
298.255
298.819
297.681
298.276
297.456
297.712
297.383
297.23
298.038
298.072
301.678
303.936
301.567
302.438
300.527
300.862
299.237
299.832
298.301
298.945
297.776
298.262
297.553
297.749
297.447
297.648
297.714
297.684
301.451
303.884
301.444
302.403
300.56
300.893
299.19
299.891
298.336
299.058
297.885
298.398
297.694
297.924
297.565
297.892
297.896
298.241
301.255
303.737
301.498
302.315
300.614
300.775
299.288
299.838
298.563
299.072
298.194
298.448
298.042
298.001
297.945
298.087
298.253
298.47
301.176
303.589
301.438
302.187
300.547
300.757
299.505
299.922
298.958
299.252
298.618
298.744
298.496
298.447
298.5
298.514
298.777
298.868
300.941
303.089
301.513
302.002
300.563
300.736
299.844
299.931
299.454
299.422
299.076
299.167
299.033
298.956
299.174
299.138
299.342
299.479
300.867
302.73
301.643
301.785
300.79
300.837
300.25
300.335
299.932
299.832
299.798
299.742
299.771
299.826
299.885
300.061
300.285
300.398
300.617
302.174
301.637
301.616
301.048
301.065
300.82
300.641
300.539
300.51
300.49
300.482
300.622
300.776
300.867
300.996
301.257
301.415
300.194
301.605
301.438
301.325
301.147
301.175
301.054
301.052
301.095
301.046
301.176
301.329
301.46
301.567
301.854
302.081
302.238
302.419
299.439
300.81
300.95
300.967
301.04
301.15
301.219
301.315
301.437
301.56
301.74
301.861
302.113
302.343
302.562
302.782
303.07
303.273
298.502
299.806
300.132
300.307
300.533
300.755
300.972
301.204
301.428
301.642
301.885
302.107
302.385
302.61
302.887
303.166
303.399
303.63
297.149
298.399
298.908
299.219
299.524
299.83
300.141
300.445
300.729
301.028
301.299
301.562
301.827
302.091
302.353
302.607
302.841
303.065
295.718
296.767
297.274
297.573
297.873
298.209
298.51
298.794
299.054
299.318
299.549
299.808
300.024
300.288
300.513
300.769
300.975
301.168
294.353
295.09
295.49
295.7
295.921
296.167
296.385
296.602
296.791
296.998
297.186
297.397
297.569
297.779
297.918
298.102
298.199
298.353
293.193
293.584
293.803
293.889
293.933
294.052
294.175
294.312
294.408
294.527
294.624
294.766
294.875
295.008
295.093
295.21
295.249
295.37
292.199
292.307
292.398
292.36
292.259
292.251
292.227
292.251
292.259
292.273
292.276
292.351
292.382
292.487
292.524
292.61
292.638
292.698
291.467
291.326
291.281
291.102
290.932
290.77
290.653
290.575
290.475
290.416
290.338
290.333
290.31
290.363
290.37
290.423
290.435
290.46
290.841
290.541
290.396
290.065
289.754
289.502
289.318
289.145
288.993
288.882
288.775
288.723
288.67
288.671
288.67
288.701
288.723
288.744
290.427
289.913
289.66
289.244
288.883
288.607
288.335
288.134
287.927
287.746
287.611
287.498
287.419
287.377
287.352
287.376
287.389
287.424
290.066
289.441
289.166
288.727
288.305
287.939
287.623
287.365
287.134
286.965
286.794
286.69
286.576
286.497
286.445
286.416
286.416
286.415
289.79
289.145
288.821
288.29
287.792
287.4
287.065
286.816
286.596
286.408
286.236
286.092
285.966
285.861
285.787
285.727
285.674
285.63
289.707
288.96
288.597
288.053
287.545
287.145
286.79
286.51
286.215
285.963
285.698
285.493
285.302
285.159
285.036
284.929
284.82
284.714
289.582
288.747
288.352
287.812
287.318
286.877
286.457
286.066
285.668
285.333
285.009
284.785
284.571
284.434
284.284
284.204
284.093
284.069
289.478
288.586
288.212
287.657
287.14
286.652
286.214
285.813
285.513
285.305
285.166
285.101
285.055
285.079
285.121
285.236
285.295
285.548
289.773
288.851
288.723
288.496
288.309
288.203
288.186
288.236
288.361
288.523
288.711
288.912
289.12
289.337
289.569
289.795
290.03
290.294
285.333
278.423
282.066
282.317
285.695
287.488
288.771
289.722
289.938
290.119
290.057
290.16
290.17
290.204
290.259
290.494
290.694
290.963
291.282
291.628
291.947
292.143
292.511
292.939
293.118
293.304
293.644
293.766
294.024
294.416
294.662
294.949
295.214
295.505
295.7
295.882
296.298
296.432
296.472
297.028
297.349
297.165
297.778
299.316
300.401
300.34
299.866
299.369
299.146
299.267
299.335
298.783
297.636
296.435
295.839
295.475
294.883
294.291
295.029
298.674
301.508
300.495
298.213
296.375
295.014
293.612
293.457
296.665
302.371
304.836
301.516
296.628
293.235
290.886
289.082
287.524
286.286
285.211
284.239
283.288
282.394
281.575
280.879
280.177
279.462
278.778
278.137
277.524
276.991
276.505
275.993
275.419
274.916
274.515
274.108
273.917
273.51
273.05
273.027
273.026
272.764
272.858
272.984
273.209
273.492
273.798
274.029
274.185
274.639
275.289
276.262
277.281
278.164
278.453
278.873
279.294
279.892
280.335
281.685
282.435
281.369
280.718
282.729
284.695
286.085
287.354
288.836
290.153
290.607
289.891
289.155
288.043
286.946
285.357
284.515
282.221
283.229
281.475
280.596
282.601
280.313
280.114
279.035
278.525
277.852
277.382
276.569
276.206
275.365
274.843
274.398
273.84
273.509
272.924
272.236
271.544
270.917
270.633
270.209
269.74
268.767
267.995
267.011
266.025
264.703
264.694
263.324
263.541
263.245
265.227
268.043
269.809
269.22
269.434
269.054
268.27
263.042
265.787
269.824
273.73
286.404
273.085
281.242
288.922
293.015
296.102
298.371
299.887
300.471
300.365
300.02
299.751
299.389
299.029
298.614
298.349
298.02
297.773
297.561
297.207
296.813
296.41
296.419
296.458
295.923
295.586
295.805
295.289
295.332
295.717
295.493
296.026
295.998
295.809
296.299
295.983
296.394
296.865
296.299
296.913
297.763
296.789
297.213
298.46
296.978
296.454
299.164
298.581
294.149
291.568
291.843
292.252
291.569
289.339
288.69
290.88
291.919
291.876
290.161
287.27
288.751
293.163
294.424
293.624
292.708
290.131
287.602
286.102
284.723
282.513
280.047
278.302
277.334
276.672
276.259
276.009
276.011
276.007
275.866
275.539
275.181
274.977
275.013
275.008
274.708
274.357
273.825
273.501
272.986
272.642
272.274
270.673
270.009
269.348
267.342
267.804
266.74
265.578
262.844
263.03
261.615
260.614
259.11
258.172
256.845
256.1
255.479
254.961
254.481
254.341
254.571
255.273
256.465
256.919
257.395
258.097
259.684
260.434
260.679
262.699
263.775
260.265
259.645
265.248
272.681
279.463
283.688
285.394
285.482
284.454
284.312
283.261
281.237
278.598
278.049
273.218
274.991
273.148
269.437
276.826
273.504
274.129
273.151
272.661
271.726
271.476
270.404
270.368
269.996
269.105
269.932
269.461
270.972
271.047
271.468
269.324
265.347
261.925
259.507
258.654
258.504
257.05
254.791
253.061
248.935
248.524
245.237
244.976
238.996
242.499
250.807
256.348
263.547
266.201
257.433
252.445
236.665
236.366
241.404
252.503
291.014
272.62
272.597
283.082
292.851
297.081
298.451
300.87
302.174
301.699
301.017
300.283
299.5
298.688
297.816
296.88
295.909
294.969
294.009
293.057
292.557
292.314
292.038
291.801
291.631
291.578
291.784
291.728
292.223
292.604
292.713
293.503
293.512
293.44
294.691
294.073
295.016
295.49
294.724
296.019
296.429
295.018
296.526
297.677
296.81
297.926
299.64
298.228
297.344
298.882
300.672
299.285
295.367
291.557
289.135
290.423
293.997
293.903
292.754
294.458
293.753
288.928
290.207
293.053
288.282
284.507
283.728
283.29
283.058
283.303
284.199
285.471
286.682
287.592
288.353
288.976
289.794
290.588
291.185
291.448
291.52
291.78
292.098
292.518
292.674
292.874
292.987
293.417
293.129
292.696
293.299
292.042
292.118
291.876
290.213
290.309
289.629
290.098
286.495
285.774
284.779
283.787
281.337
279.524
276.041
273.186
270.151
268.114
265.745
264.021
260.79
257.637
254.979
254.312
255.675
255.905
255.681
258.288
256.554
253.011
255.975
256.719
252.077
253.975
265.285
277.273
283.08
284.885
284.501
283.263
280.965
277.616
276.324
271.554
273.134
273.829
274.294
274.488
267.857
269.833
268.249
269.913
270.749
272.528
272.447
272.675
271.721
271.556
271.964
270.427
271.853
270.623
275.359
278.287
284.734
284.368
279.293
271.673
265.641
259.98
254.506
253.841
252.967
252.423
250.442
250.545
248.877
252.662
235.945
233.895
246.769
259.078
267.991
268.511
252.61
242.823
237.899
231.569
227.821
238.462
295.014
278.194
269.555
272.82
280.626
287.162
294.42
301.7
303.554
301.818
299.436
297.309
295.404
293.524
291.848
290.523
289.458
288.908
288.885
289.461
290.26
290.781
291.11
291.665
292.174
292.37
292.594
292.974
293.344
293.574
293.664
294.31
295.009
294.86
296.446
296.501
297.293
297.471
296.843
297.572
297.536
296.57
297.815
296.662
294.261
295.918
297.35
297
298.258
297.815
297.37
298.62
298.429
297.199
296.929
297.901
298.275
294.711
294.583
295.713
287.408
284.288
291.629
290.897
285.699
284.937
285.948
286.849
287.75
288.908
289.945
290.649
290.946
290.869
290.661
290.66
290.673
290.34
289.848
289.411
289.268
289.521
289.472
289.264
289.241
289.206
289.621
290.858
291.969
290.97
291.701
290.695
290.804
290.432
291.163
292.129
291.451
291.399
291.842
291.834
291.615
291.993
292.044
292.324
291.814
291.829
290.18
289.3
287.082
286.549
284.423
280.119
274.483
271.077
269.948
273.304
266.668
259.185
262.256
257.828
252.772
257.065
254.95
250.57
261.709
280.961
285.637
282.075
280.172
278.538
279.409
278.593
270.19
267.728
268.111
269.579
275.09
274.693
274.575
275.553
273.273
274.165
269.875
271.335
269.644
269.334
268.908
267.891
271.202
271.209
275.617
268.886
270.343
272.622
284.986
290.566
289.258
283.319
274.99
272.591
265.711
259.997
259.109
251.945
250.452
253.647
258.442
274.876
249.665
234.74
244.486
259.207
261.687
263.954
258.183
247.454
265.832
256.061
239.109
237.181
297.328
283.469
271.164
267.044
269.568
279.856
296.757
306.923
305.541
300.539
296.209
292.861
290.461
288.729
287.064
287.583
289.954
292.322
293.802
294.354
294.347
294.381
294.299
294.138
293.825
293.529
293.172
292.963
292.749
292.92
292.917
293.211
293.899
294.941
295.911
296.179
296.788
296.417
298.028
299.988
300.046
299.834
300.268
300.182
299.225
296.88
295.021
297.468
297.992
296.094
298.052
299.946
300.102
301.129
301.699
299.709
295.458
292.11
290.815
289.34
288.565
291.215
290.734
285.558
285.341
287.637
289.303
290.716
291.854
292.54
292.439
291.936
290.914
289.832
289.1
289.163
289.657
289.99
290.176
290.828
291.601
292.017
291.888
292.084
292.656
293.07
293.342
294.611
296.761
296.322
296.786
295.213
294.086
292.58
292.007
293.811
293.471
293.139
292.511
290.913
290.227
290.285
289.848
289.966
289.091
290.009
289.624
289.933
290.773
291.123
290.73
292.755
289.869
286.889
283.257
283.045
288.903
285.019
274.168
270.191
260.991
255.699
257.463
255.698
258.597
271.857
284.169
286.096
283.072
281.343
280.742
272.379
270.262
268.267
262.61
268.447
270.762
269.898
268.909
269.416
269.4
275.065
273.618
277.31
277.395
276.454
276.498
268.455
271.892
272.379
286.659
281.894
277.451
269.439
278.067
290.283
291.948
290.586
279.723
275.863
275.711
265.252
269.345
257.746
252.323
253.213
258.199
286.097
270.291
242.281
244.082
257.014
253.604
255.792
266.952
264.132
280.17
274.61
262.08
250.953
298.736
286.15
271.44
262.168
264.738
283.294
302.752
306.784
300.526
293.78
289.008
282.56
278.143
287.621
295.717
295.859
294.28
293.304
293.084
292.615
292.4
292.444
292.659
292.528
291.977
291.063
290.164
290.1
289.799
289.559
289.91
290.403
291.551
292.426
292.375
293.029
293.812
294.168
294.444
294.716
296.272
299.01
300.571
302.024
302.578
299.663
297.261
296.459
296.211
297.9
296.678
294.194
296.877
299.917
297.638
293.272
289.655
288.322
289.872
291.376
291.181
289.326
286.188
286.256
289.348
292.242
294.11
294.556
293.625
292.079
290.558
288.902
287.391
286.868
287.964
289.953
291.949
293.517
294.948
296.704
298.029
298.545
298.671
298.869
299.16
299.531
299.42
300.333
301.784
303.107
303.694
302.986
301.192
298.372
296.397
298.857
300.627
299.524
301.139
297.055
294.772
295.372
294.433
294.83
293.583
293.181
291.971
291.528
290.56
290.88
290.702
290.64
291.927
292.729
292.082
291.775
293.091
295.385
289.647
282.942
282.357
278.015
269.703
255.513
252.082
264.806
282.803
287.972
283.247
273.1
276.565
276.184
269.419
271.954
267.247
268.848
266.253
266.731
264.104
267.295
266.87
272.145
273.007
273.48
275.051
274.669
282.795
278.523
282.091
272.769
282.411
288.029
291.866
278.955
273.015
286.02
290.205
291.771
281.306
274.26
286.37
273.658
283.398
271.629
261.154
254.531
252.45
278.361
283.032
252.279
244.087
253.628
249.688
249.5
264.545
268.186
271.734
268.302
268.408
256.573
299.959
288.067
271.917
262.592
271.428
294.001
306.458
304.215
296.99
287.447
281.026
297.675
300.771
288.296
293.834
292.299
291.053
293.697
293.711
294.238
294.699
295.602
296.342
296.29
295.368
294.08
293.315
293.602
292.906
292.442
292.331
292.899
294.528
295.787
296.218
295.86
295.168
294.478
294.76
295.725
296.692
296.367
297.327
302.025
304.241
301.237
298.68
297.734
297.571
296.162
295.565
299.843
302.141
298.301
291.954
289.288
289.336
288.824
288.601
288.248
287.173
286.664
288.3
292.359
295.569
296.085
294.076
291.012
288.431
286.732
285.709
285.581
287.452
290.76
294.676
297.818
299.759
301.062
302.392
303.388
303.412
303.256
303.327
303.089
302.856
302.651
302.294
302.062
301.571
302.37
302.669
303.984
304.386
304.296
302.602
303.055
305.614
304.217
308.764
303.324
296.965
298.743
296.026
298.396
296.675
295.848
294.195
293.766
293.989
292.326
291.571
291.415
292.062
292.16
290.643
293.041
294.176
294.396
294.962
293.948
291.738
288.463
287.076
283.295
265.231
253.772
265.755
281.537
289.012
287.031
274.357
273.894
266.003
272.241
275.286
280.54
271.966
269.764
267.126
270.2
266.056
266.281
271.272
276.972
284.021
278.782
284.411
280.814
291.766
284.249
283.559
283.669
290.215
289.502
277.674
286.029
289.565
294.358
283.629
270.351
290.512
279.446
288.914
284.359
275.802
263.298
251.881
266.769
289.343
266.012
247.617
250.465
245.489
244.876
260.482
265.9
263.236
267.52
278.94
259.049
301.581
291.92
277.863
271.649
284.449
302.833
307.716
298.445
286.089
291.242
297.49
289.298
291.577
288.931
291.191
297.033
295.455
295.67
295.332
292.71
293.215
293.64
294.697
295.133
294.89
293.945
292.949
293.092
292.403
291.742
291.281
291.482
292.797
294.472
295.22
295.607
295.849
295.782
295.72
296.565
298.102
298.802
299.99
301.977
301.758
299.896
298.431
298.732
297.67
296.132
300.296
303.011
298.645
294.286
289.913
287.161
287.816
288.224
287.921
287.832
288.542
290.481
293.098
294.569
293.381
290.89
288.524
286.848
285.796
286.059
288.241
291.945
295.958
299.17
301.391
302.187
301.827
300.883
300.106
299.049
297.966
297.496
297.265
296.684
296.638
296.677
296.462
296.297
295.598
294.862
294.306
294.451
295.861
298.574
302.837
304.821
306.678
306.588
309.792
312.027
304.733
308.627
303.816
306.83
303.989
303.881
300.048
297.138
295.899
295.411
294.896
294.321
291.473
294.309
293.47
291.818
293.091
295.161
293.567
295.553
295.336
297.77
293.542
293.938
291.196
272.476
261.033
267.458
272.755
287.354
282.451
281.539
279.518
282.495
280.919
282.275
277.153
273.551
265.981
267.701
266.506
266.993
273.628
277.657
287.268
281.745
288.97
284.559
293.998
291.388
291.971
291.297
290.363
297.289
287.436
288.757
285.495
292.589
290.897
270.504
288.911
282.736
284.951
285.554
285.023
274.68
256.66
258.23
290.582
280.304
255.324
250.126
241.516
244.303
249.687
254.554
251.004
256.804
279.051
260.376
303.317
296.824
286.845
284.36
297.605
308.466
303.124
290.907
287.473
292.861
294.844
287.306
294.24
296.67
294.998
299.032
295.282
292.613
291.1
290.403
289.976
290.876
292.309
294.155
295.452
295.382
293.978
293.725
293.64
292.788
291.892
290.912
290.686
291.747
292.749
293.712
294.271
294.121
293.6
294.43
296.977
298.615
298.553
299.357
300.942
300.412
297.892
296.35
296.396
297.161
299.264
299.183
293.855
289.894
289.511
288.137
287.465
287.9
288.567
289.91
292.036
294.168
295.016
294.038
291.629
289.046
287.013
286.275
288.045
291.418
294.769
297.483
298.838
298.65
297.631
296.319
294.884
293.801
293.628
293.64
294.277
295.432
296.536
297.084
297.716
298.363
298.075
298.263
297.483
295.738
293.872
291.583
289.572
286.935
288.314
292.714
295.368
298.035
295.925
301.984
304.821
310.193
306.975
312.033
308.953
315.086
305.32
306.907
303.648
303.032
297.914
299.225
294.905
295.302
293.807
295.038
292.349
294.793
294.165
295.082
293.584
296.075
297.884
295.593
296.838
295.63
278.849
271.451
265.833
272.117
272.981
275.653
280.779
283.15
282.123
281.218
275.163
273.292
265.818
267.855
270.631
270.464
276.865
278.677
290.267
287.529
294.052
290.62
296.584
298.131
298.592
295.275
288.54
299.789
299.468
296.626
284.553
283.81
292.921
270.998
283.676
283.745
282.515
282.027
286.969
285.754
267.022
256.282
286.623
290.984
267.912
253.572
238.051
245.106
239.26
246.704
260.601
262.986
271.339
250.138
304.876
301.595
296.734
298.504
308.408
308.177
296.621
291.259
292.502
293.744
294.502
293.492
296.032
298.114
294.549
294.982
294.216
293.014
293.277
293.15
292.384
291.842
291.438
292.744
295.229
297.801
298.076
297.145
297.145
297.112
296.939
296.339
294.827
294.048
294.222
294.66
295.142
295.497
294.947
293.456
293.183
295.287
297.941
297.26
298.844
299.93
298.489
295.409
293.581
296.148
297.768
294.953
291.776
289.737
289.078
289.234
289.406
290.373
291.879
293.287
294.289
293.979
292.014
289.575
287.654
287.094
287.972
290.628
294.358
297.257
298.661
298.789
296.988
294.571
293.267
293.278
293.556
294.862
297.267
299.811
302.143
303.821
304.847
305.263
305.38
306.08
306.417
306.991
307.337
306.98
304.548
301.759
298.957
296.412
289.283
286.662
288.168
290.886
290.948
290.807
297.061
301.558
303.123
307.702
303.025
316.684
306.195
312.063
308.106
311.023
304.239
308.042
299.886
302.671
297.965
297.654
295.576
295.911
296.287
296.798
295.128
298.542
294.262
301.814
294.518
301.916
293.758
291.149
279.701
272.638
271.737
268.532
269.822
275.18
273.592
271.649
266.94
272.265
270.185
274.334
277.82
275.207
283.202
284.515
294.825
291.302
296.962
295.076
295.671
299.152
301.441
299.38
291.8
301.722
310.314
302.536
288.101
276.039
288.129
276.827
282.122
286.101
285.173
278.32
281.736
289.639
274.959
259.384
279.16
295.852
282.932
258.433
241.871
246.036
231.867
243.733
258.492
264.81
265.494
251.418
306.023
304.824
302.619
304.203
307.994
302.946
292.838
290.509
292.165
291.381
292.364
295.655
296.01
296.976
295.649
295.354
296.422
295.143
293.763
292.029
291.811
290.362
290.601
289.388
289.58
292.12
295.525
295.869
295.51
295.916
296.313
296.695
296.678
295.926
295.359
295.4
295.95
296.489
297.107
296.088
293.689
293.101
297.574
297.992
297.18
299.262
299.669
297.298
294.783
295.959
297.301
294.346
290.522
289.625
289.797
290.569
291.9
293.072
294.017
294.377
293.771
292.035
289.625
287.316
285.853
286.296
289.314
293.301
295.688
296.745
297.106
295.727
292.46
290.972
291.919
294.402
296.744
299.359
302.151
304.129
304.919
304.349
303.094
301.754
300.524
300.078
299.847
300.021
301.705
304.168
305.999
305.221
301.607
300.337
299.302
292.567
288.628
285.972
287.956
287.407
290.426
294.685
299.519
303.212
301.445
309.633
305.327
308.701
306.548
312.209
305.299
310.601
304.168
307.082
303.371
301.589
301.047
297.526
297.735
300.423
290.756
307.208
290.005
304.78
295.855
303.875
296.682
302.756
299.041
284.489
288.361
276.369
272.359
277.555
272.495
274.91
271.748
279.647
276.86
281.408
286.835
284.217
292.26
291.139
300.824
296.711
300.952
298.792
298.501
304.353
304.138
300.895
294.331
300.652
314.204
305.949
295.156
273.169
276.616
281.084
282.954
287.038
287.75
277.043
276.464
290.06
280.645
266.006
274.589
299.797
297.037
264.99
248.681
248.342
227.471
243.003
258.421
257.585
251.11
249.063
306.945
307.434
307.741
310.226
308.423
296.279
287.656
288.482
294.41
293.547
292.835
296.713
296.57
295.261
295.644
295.709
295.095
293.04
292.22
292.17
293.235
292.99
293.734
294.242
293.814
292.999
293.73
294.983
295.267
294.983
295.182
295.256
295.186
295.552
295.61
295.723
296.053
295.2
295.23
295.883
295.601
292.822
293.701
298.827
298.596
297.671
297.725
297.321
297.867
299.5
297.391
293.442
290.521
290.014
291.184
291.835
292.614
293.835
294.276
293.489
291.857
290.129
289.057
289.21
290.491
292.301
294.267
295.482
295.883
295.846
294.869
292.689
291.305
292.569
295.477
299.191
302.081
303.873
304.553
303.7
301.58
299.227
297.721
297.101
297.279
297.994
298.68
297.607
296.734
296.84
298.445
301.876
303.325
301.285
301.154
298.767
294.251
289.602
284.753
284.339
284.497
288.199
294.826
298.428
302.289
304.363
305.379
307.486
304.579
308.848
306.824
308.481
305.895
309.224
306.157
304.786
306.566
300.402
299.02
306.909
288.387
309.581
291.952
303.234
295.777
303.77
296.316
302.431
305.934
292.103
302.081
288.87
286.714
287.634
282.886
286.671
281.794
288.282
287.002
293.83
298.723
292.952
298.183
296.337
303.233
299.77
303.674
302.932
301.41
306.78
303.165
301.973
300.718
298.518
310.411
307.624
299.925
275.64
271.685
280.041
280.358
282.191
284.675
274.257
271.339
286.443
283.762
272.966
272.584
303.118
309.163
271.696
256.845
252.615
225.129
241.919
264.123
262.408
253.015
249.227
307.511
308.905
310.634
314.479
312.434
298.873
291.258
291.805
293.96
292.606
293.804
297.826
296.32
295.613
298.138
296.657
293.938
294.053
296.326
297.366
297.039
295.318
293.212
293.512
295.001
295.948
295.943
295.348
295.252
295.512
296.038
296.896
295.483
294.498
295.19
295.93
297.24
297.967
297.826
297.048
297.474
296.647
292.904
293.187
297.974
298.449
294.894
294.626
297.635
301.361
299.135
293.147
290.581
290.299
291.073
292.932
293.893
294.129
293.674
292.333
290.366
288.585
287.631
288.033
290.856
295.138
297.484
296.245
293.026
290.537
289.376
290.092
293.027
296.516
299.871
303.004
304.414
303.731
301.715
299.29
296.972
296.563
298.416
300.205
300.957
301.387
302.862
303.598
302.526
301.857
299.158
297.53
297.414
298.516
299.82
300.452
297.023
293.813
289.776
284.079
284.09
285.801
289.127
293.764
299.239
301.742
304.172
305.504
303.556
304.523
306.257
305.984
305.938
310.272
306.574
306.081
310.321
304.158
300.488
309.781
292.025
304.897
294.17
301.765
295.665
301.074
296.047
300.857
302.368
296.235
302.752
295.126
297.333
295.941
295.691
295.054
291.756
297.978
294.398
298.913
302.001
299.274
305.282
301.495
303.522
301.515
303.722
302.362
301.998
308.786
301.009
303.578
307.81
297.354
305.597
300.206
292.099
267.3
267.039
277.716
273.97
275.491
280.542
271.032
268.575
282.42
284.781
277.759
271.999
306.831
315.797
275.256
267.448
255.213
227.055
247.688
262.321
254.083
248.99
246.635
307.818
309.528
311.186
310.569
304.112
294.761
288.919
292.249
295.569
295.476
296.238
298.361
296.065
294.84
295.476
293.717
292.258
292.323
293.866
295
294.871
293.286
291.846
291.308
292.095
293.557
295.167
295.687
295.143
295.485
294.691
295.435
296.549
295.635
293.93
292.65
293.706
295.634
297.932
299.442
297.043
294.776
296.868
292.727
291.851
298.24
298.599
295.155
296.03
298.964
299.522
294.758
289.841
290.014
291.549
292.747
294.037
294.431
293.56
291.803
289.943
288.562
287.722
287.367
288.158
290.645
293.09
292.794
290.798
289.455
289.926
292.764
295.89
298.073
300.713
303.672
303.909
301.119
297.911
296.226
295.958
297.685
301.908
306.083
305.956
303.151
301.421
302.045
302.194
302.527
303.511
302.848
301.216
298.027
297.344
297.72
297.666
293.535
290.712
286.525
284.385
285.418
286.946
290.426
296.646
300.372
302.866
305.096
303.824
301.907
303.99
304.278
304.653
308.403
307.073
306.347
310.432
307.772
303.239
310.01
299.088
303.935
297.926
302.315
298.226
299.661
297.496
300.759
300.784
299.518
300.266
299.592
300.442
299.417
302.837
300.337
299.584
301.801
298.839
304.664
302.907
300.372
306.686
301.74
303.357
305.048
302.425
302.491
304.765
307.043
298.943
307.505
309.944
298.047
301.513
287.702
283.049
262.242
264.254
277.121
270.166
270.864
277.769
268.407
267.696
278.904
284.943
278.524
274.699
309.379
314.76
276.808
279.209
254.207
231.914
253.175
268.226
254.923
247.214
243.215
307.907
309.619
311.208
308.175
298.334
293.157
291.233
292.397
292.118
291.446
294.002
295.843
293.205
291.65
290.839
288.429
286.73
287.545
290.48
292.812
294.003
293.367
292.644
293.564
294.881
295.725
295.813
296.003
295.717
297.026
297.426
296.577
295.537
296.138
298.124
298.494
298.066
295.796
293.063
297.345
302.595
296.067
292.627
296.315
291.358
290.556
296.396
298.068
298.928
298.826
295.965
294.54
292.023
289.782
290.815
292.735
293.965
294.214
293.41
291.518
289.375
287.901
287.718
288.837
289.967
289.593
288.646
288.304
288.986
289.775
291.115
292.423
294.139
296.547
299.525
301.566
301.378
300.265
299.001
298.454
298.743
299.071
299.436
301.339
302.439
300.14
296.586
293.695
292.031
292.542
294.733
296.444
298.151
298.689
298.357
297.425
295.456
293.338
288.74
286.056
285.975
285.741
288.624
290.123
293.363
298.676
300.553
303.645
305.327
302.766
301.791
302.356
301.84
303.765
306.238
306.04
308.386
308.14
305.512
308.266
303.416
304.531
301.22
303.348
301.509
300.993
300.669
300.473
301.664
300.866
300.061
301.848
301.157
301.798
304.017
301.603
304.68
302.786
301.673
305.983
301.906
302.791
306.442
299.622
304.014
305.899
299.749
305.888
305.627
303.967
303.036
309.885
305.594
299.125
294.883
270.509
268.698
252.731
265.532
280.514
263.805
265.239
273.504
264.494
266.603
276.081
285.203
277.469
278.918
310.574
307.394
280.709
289.586
247.877
238.594
259.751
266.567
251.074
244.862
242.655
307.866
309.553
311.619
310.188
299.697
290.578
289.921
293.825
295.76
294.038
293.57
295.56
294.997
293.76
293.349
292.713
292.503
293.194
294.436
294.74
293.545
291.912
291.349
292.218
293.359
294.494
295.025
295.344
295.261
295.625
295.386
295.761
296.343
294.284
295.075
297.297
299.014
301.441
298.844
293.906
298.297
303.117
294.621
293.718
294.928
291.2
291.022
293.839
297.388
301.551
297.886
291.669
290.552
290.812
291.034
292.43
294.07
294.555
293.503
291.283
288.617
286.305
285.662
287.62
291.692
293.756
291.957
289.051
287.939
288.362
288.786
288.346
288.973
291.489
296.123
299.755
301.17
300.746
298.256
296.13
297.058
298.322
297.188
296.843
299.585
302.295
303.473
301.414
296.693
294.214
294.499
295.688
295.535
294.991
294.744
293.938
291.546
287.908
285.354
283.667
285.098
286.782
289.971
292.576
296.014
298.577
299.549
302.278
304.972
303.815
302.447
301.897
300.002
300.078
303.066
304.281
306.134
307.153
306.691
307.585
306.493
306.462
304.676
304.206
304.097
303.364
302.935
301.456
302.334
301.585
301.568
302.655
301.244
303.32
303.173
302.099
305.989
301.694
304.928
304.081
300.596
305.173
303.106
298.37
306.213
303.023
299.582
308.152
304.261
303.365
307.423
310.37
305.357
296.108
283.195
258.633
262.787
247.679
265.135
287.907
261.417
267.292
279.557
266.413
266.025
273.934
285.052
275.937
283.596
309.864
300.503
288.319
292.622
241.564
246.195
266.864
263.623
245.707
239.467
245.06
307.506
308.703
310.873
312.627
307.126
295.276
287.576
287.363
290.44
292
292.432
294.224
295.349
295.838
295.892
296.255
296.156
295.438
294.066
291.757
289.634
289.047
291.045
294.075
296.127
297.081
297.77
298.126
298.128
297.996
298.328
295.029
296.637
299.021
298.023
297.55
296.172
295.99
299.609
299.916
296.435
299.535
298.085
292.956
293.706
293.703
291.929
291.739
292.689
297.885
301.162
295.556
289.435
288.658
290.162
291.871
293.803
295.044
294.565
292.455
289.484
286.26
283.59
283.184
286.321
290.604
292.235
290.393
287.86
286.044
284.757
283.749
284.963
289.244
294.577
298.217
300.036
300.2
299.025
295.902
295.553
297.182
295.833
294.764
296.234
299.518
302.492
302.232
299.947
299.133
299.607
298.58
298.069
297.384
296.728
293.32
289.342
284.803
281.97
282.858
285.19
288.889
292.166
294.16
298.397
300.139
301.188
302.446
303.577
303.135
302.214
300.658
299.006
297.557
299.638
301.2
302.904
304.282
305.863
306.955
306.979
306.906
306.081
305.795
305.36
304.759
303.43
302.197
302.625
302.025
302.329
302.93
301.852
304.652
302.028
304.569
304.791
301.264
305.817
300.988
301.426
304.685
299.156
300.688
305.782
300.182
301.111
308.856
303.231
303.702
312.044
310.425
302.556
287.314
270.534
258.665
264.983
253.9
267.56
293.041
264.824
269.701
288.22
275.206
270.603
275.191
285.628
275.119
287.367
307.128
298.319
295.839
288.021
238.086
255.704
269.907
259.577
242.9
236.884
249.266
306.826
307.122
309.194
312.294
313.257
306.88
297.242
290.135
287.054
286.481
286.488
287.13
288.338
289.151
289.938
290.263
289.78
288.838
287.389
287.06
288.923
292.235
295.96
297.648
298.181
297.797
297.262
295.759
295.584
293.75
294.469
296.383
295.63
295.907
298.318
298.97
301.131
299.008
296.402
298.087
297.987
298.77
300.994
296.64
292.323
292.444
293.174
293.099
291.484
292.357
297.789
299.421
294.118
288.947
288.146
289.87
292.146
294.359
295.273
294.099
291.254
287.916
284.677
282.105
281.935
284.158
286.254
286.617
284.937
283.103
281.892
280.956
282.294
285.922
291.514
295.811
297.7
297.412
296.589
294.045
294.384
297.891
298.368
297.101
297.058
297.892
297.563
294.82
292.078
292.005
292.647
292.689
292.941