/*--------------------------------*- C++ -*----------------------------------*\
| =========                 |                                                 |
| \\      /  F ield         | OpenFOAM: The Open Source CFD Toolbox           |
|  \\    /   O peration     | Version:  dev                                   |
|   \\  /    A nd           | Web:      http://www.openfoam.org               |
|    \\/     M anipulation  |                                                 |
\*---------------------------------------------------------------------------*/
FoamFile
{
    version     2.0;
    format      ascii;
    class       volVectorField;
    object      U;
    location    "9.125";
}
// * * * * * * * * * * * * * * * * * * * * * * * * * * * * * * * * * * * * * //

dimensions      [0 1 -1 0 0 0 0];

internalField   nonuniform List<vector> 
12225
(
(7.5019 0.814134 0)
(6.8112 0.559912 0)
(6.69846 0.397091 0)
(8.30307 0.339312 0)
(8.42944 0.362068 0)
(10.8 0.325188 0)
(10.383 0.392686 0)
(12.7992 0.290857 0)
(11.7791 0.426538 0)
(14.4346 0.235366 0)
(12.6108 0.487818 0)
(15.743 0.182048 0)
(13.4156 0.473748 0)
(16.2245 0.161425 0)
(16.3209 0.043375 0)
(15.1666 1.77533 0)
(20.978 -3.23993 0)
(14.2587 2.98528 0)
(9.93951 2.16702 0)
(12.173 1.90834 0)
(11.0425 1.53346 0)
(14.1195 1.31055 0)
(11.5158 1.17382 0)
(16.6242 1.0753 0)
(12.6772 1.09623 0)
(19.1769 0.945745 0)
(13.6648 1.02475 0)
(21.9214 0.782937 0)
(14.4069 1.04685 0)
(24.6788 0.276531 0)
(15.8515 1.61553 0)
(27.1204 -1.59116 0)
(18.8723 2.76637 0)
(31.4297 -2.52547 0)
(20.3534 1.14058 0)
(26.7253 -0.735414 0)
(9.18624 2.90751 0)
(14.8768 2.79351 0)
(12.319 2.44627 0)
(18.2318 2.37688 0)
(13.4088 2.09555 0)
(20.9872 2.03709 0)
(14.5607 1.93196 0)
(23.4935 1.72659 0)
(16.0716 1.80177 0)
(25.3297 1.23251 0)
(18.2656 1.91822 0)
(26.3181 0.255119 0)
(21.1217 2.30893 0)
(26.7352 -0.981187 0)
(22.4347 2.0077 0)
(29.3821 -1.04351 0)
(23.0213 4.57122 0)
(29.7931 -10.9884 0)
(7.56568 3.61169 0)
(16.3781 3.67627 0)
(12.2313 3.32251 0)
(19.9075 3.38715 0)
(15.4945 3.09977 0)
(22.5069 2.88362 0)
(18.0586 2.93254 0)
(24.3508 2.28639 0)
(20.5129 2.9682 0)
(25.4947 1.4369 0)
(22.0609 3.18246 0)
(26.0871 0.190468 0)
(23.5592 3.70586 0)
(26.7718 -1.5053 0)
(23.9476 3.84303 0)
(27.7206 -3.4993 0)
(29.1716 4.88527 0)
(21.1951 -4.68995 0)
(8.00025 5.02451 0)
(14.7641 4.11748 0)
(13.6746 4.43077 0)
(17.9201 3.85823 0)
(17.8527 4.33523 0)
(20.5316 3.45591 0)
(20.6277 4.21784 0)
(22.1746 2.78035 0)
(22.8764 4.16954 0)
(23.6072 2.07564 0)
(24.0032 4.39557 0)
(24.7277 0.679579 0)
(24.798 5.01439 0)
(25.4616 -0.856228 0)
(25.4746 5.36525 0)
(24.4082 -5.50914 0)
(29.7234 10.7641 0)
(30.3011 -7.47571 0)
(10.0696 6.29443 0)
(12.2782 4.90141 0)
(14.5787 5.58716 0)
(15.5249 4.72949 0)
(18.2422 5.35949 0)
(18.453 4.36642 0)
(20.8919 5.26723 0)
(20.4505 3.6105 0)
(23.0354 5.14758 0)
(22.3494 2.87003 0)
(24.7118 5.16665 0)
(23.8302 1.54062 0)
(25.7558 5.15117 0)
(24.7855 0.697642 0)
(27.3034 4.60893 0)
(25.0558 -2.22782 0)
(27.0779 5.07007 0)
(29.6375 -3.60877 0)
(10.7593 7.83233 0)
(12.0036 5.59074 0)
(14.5735 7.12086 0)
(15.7118 5.37448 0)
(18.0113 6.94985 0)
(18.6568 5.02886 0)
(20.8635 6.89883 0)
(20.9655 4.20474 0)
(22.8669 6.60018 0)
(22.8677 3.38574 0)
(24.6517 6.42756 0)
(24.3159 2.3528 0)
(25.561 6.07047 0)
(25.6121 1.46936 0)
(26.8683 5.21312 0)
(25.5531 -0.347024 0)
(26.2001 3.48931 0)
(26.5423 -1.76314 0)
(10.8341 8.81766 0)
(12.1152 6.73693 0)
(14.7884 7.99035 0)
(15.9787 6.38902 0)
(18.0943 7.70509 0)
(18.9046 6.07469 0)
(20.7488 7.39581 0)
(21.3389 5.49902 0)
(22.7504 6.91634 0)
(23.1785 4.76013 0)
(24.1808 6.36368 0)
(24.5282 3.98551 0)
(24.9639 5.46614 0)
(25.6271 3.31405 0)
(25.3031 4.0965 0)
(25.5578 1.85326 0)
(24.597 3.26266 0)
(24.8064 2.11097 0)
(11.0471 10.1801 0)
(12.333 7.35675 0)
(14.8567 9.1411 0)
(16.262 7.11166 0)
(18.0175 8.92954 0)
(19.0964 6.81527 0)
(20.6156 8.56458 0)
(21.4164 6.15598 0)
(22.6789 7.84784 0)
(23.1556 5.34906 0)
(23.9854 7.14469 0)
(24.3434 4.53864 0)
(24.8313 6.22545 0)
(24.9527 3.87001 0)
(25.3016 4.99152 0)
(24.6819 3.16635 0)
(24.533 3.30753 0)
(24.0526 1.8312 0)
(10.8356 11.0838 0)
(12.365 8.62076 0)
(14.6339 9.88646 0)
(16.0783 8.39165 0)
(17.8188 9.52337 0)
(19.0334 8.10055 0)
(20.4871 8.99409 0)
(21.5375 7.54932 0)
(22.4534 8.28253 0)
(23.2654 6.87468 0)
(23.6998 7.38426 0)
(24.3547 6.32432 0)
(24.3638 6.31961 0)
(24.8795 5.71287 0)
(24.7166 5.12529 0)
(24.5998 4.73563 0)
(24.1646 4.02302 0)
(23.9199 4.28502 0)
(10.942 12.6325 0)
(12.2064 9.67751 0)
(14.4133 11.039 0)
(15.7467 9.44395 0)
(17.5156 10.6459 0)
(18.7472 9.09031 0)
(20.1074 10.0624 0)
(21.1468 8.494 0)
(22.0466 9.21943 0)
(22.8199 7.76909 0)
(23.3759 8.28862 0)
(23.8173 7.14414 0)
(24.096 7.26033 0)
(24.242 6.37703 0)
(24.3266 6.03629 0)
(24.0496 5.51552 0)
(23.9088 5.05928 0)
(23.5176 4.64792 0)
(10.4461 13.6847 0)
(12.2802 11.2986 0)
(14.0523 11.84 0)
(15.647 10.9766 0)
(17.201 11.4236 0)
(18.5791 10.5792 0)
(19.8241 10.7771 0)
(20.919 9.99832 0)
(21.6864 9.95284 0)
(22.4907 9.30991 0)
(22.9854 9.03177 0)
(23.4301 8.56309 0)
(23.6383 8.08329 0)
(23.8363 7.70981 0)
(23.9011 7.06262 0)
(23.7825 6.72597 0)
(23.6359 6.25524 0)
(23.3553 5.92341 0)
(10.5817 15.3295 0)
(12.2757 12.596 0)
(13.9439 12.9432 0)
(15.5316 12.2474 0)
(17.068 12.5149 0)
(18.4337 11.8257 0)
(19.5899 11.8693 0)
(20.5879 11.1723 0)
(21.3658 11.005 0)
(22.0443 10.4296 0)
(22.5577 10.1222 0)
(22.9243 9.5609 0)
(23.1819 9.13174 0)
(23.2976 8.66194 0)
(23.3925 8.16162 0)
(23.3418 7.68029 0)
(23.2576 7.24527 0)
(23.0425 6.88256 0)
(10.5695 16.5638 0)
(12.4273 14.2489 0)
(13.8969 13.9963 0)
(15.3298 13.6554 0)
(16.708 13.5129 0)
(18.0214 13.1613 0)
(19.1659 12.9034 0)
(20.1705 12.5054 0)
(20.946 12.1214 0)
(21.6412 11.6616 0)
(22.1234 11.1837 0)
(22.5101 10.7209 0)
(22.7653 10.2176 0)
(22.8792 9.73329 0)
(22.9488 9.28049 0)
(22.9303 8.83262 0)
(22.8508 8.40585 0)
(22.7094 7.99197 0)
(10.6696 17.7998 0)
(12.4759 15.4442 0)
(13.9899 15.1293 0)
(15.3632 14.8469 0)
(16.6295 14.5964 0)
(17.8607 14.2337 0)
(18.9045 13.9019 0)
(19.8417 13.4977 0)
(20.594 13.1098 0)
(21.2481 12.6655 0)
(21.7302 12.1899 0)
(22.0798 11.7113 0)
(22.2899 11.2143 0)
(22.4362 10.7406 0)
(22.4278 10.3048 0)
(22.3507 9.84532 0)
(22.2849 9.41936 0)
(22.1182 9.01619 0)
(10.3194 18.8659 0)
(12.1214 16.3826 0)
(13.6833 15.9841 0)
(15.151 15.7551 0)
(16.4507 15.4997 0)
(17.6164 15.1595 0)
(18.5784 14.7885 0)
(19.4267 14.3979 0)
(20.0941 13.9665 0)
(20.6775 13.5043 0)
(21.1036 13.0081 0)
(21.4582 12.5119 0)
(21.6723 12.0338 0)
(21.8204 11.5744 0)
(21.8239 11.1475 0)
(21.7425 10.7616 0)
(21.6534 10.3601 0)
(21.586 9.95205 0)
(10.5912 19.3496 0)
(12.1453 16.626 0)
(13.4688 16.1729 0)
(14.7764 16.004 0)
(15.9801 15.8042 0)
(17.0922 15.5486 0)
(18.029 15.2428 0)
(18.8631 14.8716 0)
(19.5131 14.4498 0)
(20.0733 13.9871 0)
(20.4739 13.4974 0)
(20.798 13.0019 0)
(20.9803 12.5128 0)
(21.1107 12.0409 0)
(21.1255 11.5939 0)
(21.0947 11.1876 0)
(20.9936 10.8049 0)
(20.8998 10.4072 0)
(10.5063 18.7592 0)
(12.0479 16.2855 0)
(13.2765 15.869 0)
(14.4759 15.6465 0)
(15.5754 15.3747 0)
(16.5968 15.0997 0)
(17.4759 14.831 0)
(18.2787 14.5078 0)
(18.928 14.1217 0)
(19.4774 13.6887 0)
(19.8598 13.2339 0)
(20.1613 12.7701 0)
(20.3101 12.3223 0)
(20.4107 11.8998 0)
(20.4016 11.5004 0)
(20.369 11.1286 0)
(20.2833 10.7634 0)
(20.19 10.4046 0)
(10.5407 17.4161 0)
(12.0523 15.2093 0)
(13.2191 14.7869 0)
(14.3338 14.5547 0)
(15.3281 14.2716 0)
(16.2523 14.0085 0)
(17.0328 13.7554 0)
(17.7076 13.4808 0)
(18.2686 13.1723 0)
(18.7576 12.8288 0)
(19.0891 12.4818 0)
(19.3561 12.1163 0)
(19.4923 11.7298 0)
(19.5808 11.3363 0)
(19.5746 10.9413 0)
(19.5576 10.5543 0)
(19.4915 10.1669 0)
(19.4285 9.78239 0)
(10.5909 15.8096 0)
(12.1746 13.7356 0)
(13.2928 13.3896 0)
(14.2937 13.2051 0)
(15.1723 12.9464 0)
(16.0086 12.6705 0)
(16.7333 12.4104 0)
(17.3567 12.1463 0)
(17.8408 11.8729 0)
(18.2692 11.5797 0)
(18.608 11.2683 0)
(18.8907 10.948 0)
(19.0583 10.6107 0)
(19.2009 10.2674 0)
(19.2318 9.92388 0)
(19.2355 9.58124 0)
(19.1667 9.2384 0)
(19.0827 8.88641 0)
(10.721 14.0638 0)
(12.2653 12.1269 0)
(13.3184 11.777 0)
(14.2817 11.566 0)
(15.1343 11.3139 0)
(15.9259 11.0635 0)
(16.6082 10.8189 0)
(17.1714 10.5735 0)
(17.6167 10.3219 0)
(17.9717 10.0834 0)
(18.2465 9.81257 0)
(18.4846 9.52959 0)
(18.6388 9.23328 0)
(18.7591 8.94096 0)
(18.7838 8.646 0)
(18.777 8.35446 0)
(18.7061 8.07142 0)
(18.6159 7.76831 0)
(10.5051 11.9685 0)
(12.2632 10.3893 0)
(13.5378 10.0807 0)
(14.5867 9.88388 0)
(15.3845 9.65973 0)
(16.0405 9.482 0)
(16.6017 9.27852 0)
(17.0908 9.07951 0)
(17.4917 8.86755 0)
(17.8286 8.65291 0)
(18.0853 8.41774 0)
(18.3083 8.17264 0)
(18.4596 7.89623 0)
(18.5594 7.63938 0)
(18.5769 7.37901 0)
(18.5461 7.14176 0)
(18.4696 6.90376 0)
(18.3482 6.64439 0)
(10.6123 10.0295 0)
(12.2522 8.50336 0)
(13.3882 8.23889 0)
(14.3262 8.18202 0)
(15.1068 8.09119 0)
(15.7874 7.96885 0)
(16.3885 7.80181 0)
(16.926 7.58384 0)
(17.3508 7.34191 0)
(17.6979 7.106 0)
(17.9516 6.88565 0)
(18.1391 6.69515 0)
(18.2741 6.48465 0)
(18.3606 6.29168 0)
(18.3908 6.08325 0)
(18.3617 5.90533 0)
(18.2948 5.69765 0)
(18.1904 5.48057 0)
(10.6351 8.3597 0)
(12.1728 6.99006 0)
(13.3095 6.73545 0)
(14.3318 6.62401 0)
(15.1896 6.49182 0)
(15.9062 6.3699 0)
(16.5031 6.26451 0)
(17.0128 6.1392 0)
(17.421 5.97717 0)
(17.7572 5.78979 0)
(18.0047 5.58561 0)
(18.1688 5.40759 0)
(18.2584 5.22184 0)
(18.3021 5.05334 0)
(18.3072 4.87787 0)
(18.2661 4.72814 0)
(18.1939 4.56112 0)
(18.1229 4.39021 0)
(10.5144 6.46919 0)
(12.3512 5.28285 0)
(13.6155 5.05809 0)
(14.6281 5.03998 0)
(15.397 5.03386 0)
(16.0187 5.00805 0)
(16.5341 4.92718 0)
(16.9954 4.81775 0)
(17.3819 4.66137 0)
(17.7065 4.49579 0)
(17.9566 4.3302 0)
(18.1251 4.17846 0)
(18.208 4.02508 0)
(18.2075 3.89094 0)
(18.1709 3.76038 0)
(18.0964 3.61041 0)
(17.9902 3.46981 0)
(17.9107 3.33478 0)
(10.9677 5.02631 0)
(12.6568 3.95745 0)
(13.8088 3.74945 0)
(14.7031 3.72885 0)
(15.3813 3.7183 0)
(15.9895 3.71022 0)
(16.5195 3.65436 0)
(17.0065 3.57476 0)
(17.3821 3.45155 0)
(17.6764 3.33426 0)
(17.8582 3.2179 0)
(17.9544 3.11265 0)
(17.9784 2.99854 0)
(17.9192 2.88427 0)
(17.8206 2.78281 0)
(17.6589 2.65445 0)
(17.4952 2.55579 0)
(17.2885 2.43949 0)
(10.7911 3.40122 0)
(12.805 2.53691 0)
(14.051 2.43458 0)
(14.9176 2.49896 0)
(15.5194 2.54979 0)
(16.0551 2.55994 0)
(16.4589 2.5072 0)
(16.7857 2.44675 0)
(16.9732 2.35609 0)
(17.0689 2.28622 0)
(17.0655 2.21457 0)
(16.9855 2.15643 0)
(16.8523 2.10052 0)
(16.636 2.02187 0)
(16.4118 1.94987 0)
(16.1096 1.87032 0)
(15.7706 1.81253 0)
(15.3852 1.73885 0)
(10.4907 2.05889 0)
(12.5936 1.3408 0)
(13.7229 1.33903 0)
(14.3783 1.46824 0)
(14.7225 1.55441 0)
(14.988 1.60699 0)
(15.0943 1.61536 0)
(15.1325 1.60626 0)
(15.046 1.57113 0)
(14.8952 1.54069 0)
(14.694 1.51043 0)
(14.4251 1.46739 0)
(14.1286 1.42803 0)
(13.7978 1.39108 0)
(13.4433 1.34331 0)
(13.0378 1.30353 0)
(12.6201 1.26561 0)
(12.1756 1.24024 0)
(10.6573 0.719328 0)
(12.06 0.174541 0)
(12.2781 0.315123 0)
(12.1138 0.558363 0)
(11.8808 0.741211 0)
(11.7614 0.86851 0)
(11.6245 0.925785 0)
(11.5292 0.947395 0)
(11.3766 0.93148 0)
(11.2458 0.917579 0)
(11.0767 0.897539 0)
(10.8526 0.869891 0)
(10.6223 0.854068 0)
(10.3665 0.845388 0)
(10.0863 0.802947 0)
(9.78655 0.812596 0)
(9.43597 0.775961 0)
(9.10511 0.754755 0)
(9.14721 0.0748505 0)
(8.16727 0.00601291 0)
(7.14636 0.22553 0)
(6.62989 0.351226 0)
(6.57298 0.378314 0)
(6.77722 0.369304 0)
(7.0051 0.351234 0)
(7.21542 0.335527 0)
(7.37723 0.319109 0)
(7.5045 0.309778 0)
(7.5407 0.300527 0)
(7.52878 0.295524 0)
(7.48036 0.292422 0)
(7.39958 0.289972 0)
(7.30745 0.275303 0)
(7.1799 0.283951 0)
(7.01866 0.270353 0)
(6.80453 0.284122 0)
(-0.213165 -0.243461 0)
(-0.812088 -0.336078 0)
(-1.30396 -0.347317 0)
(-1.74989 -0.312344 0)
(-2.13462 -0.433441 0)
(-2.42297 -0.515818 0)
(-2.60523 -0.608485 1.14805e-17)
(-2.67996 -0.689498 -1.14346e-17)
(-2.72457 -0.710509 0)
(-2.74685 -0.711635 -1.12838e-17)
(-2.79108 -0.691877 0)
(-2.84798 -0.6749 0)
(-2.92814 -0.65301 0)
(-3.01682 -0.634808 1.0958e-17)
(-3.1126 -0.613562 0)
(-3.22926 -0.613532 0)
(-3.33958 -0.601779 -1.07341e-17)
(-3.42261 -0.601745 0)
(-3.48825 -0.613096 0)
(-3.52917 -0.622475 0)
(-3.53686 -0.63797 1.04638e-17)
(-3.52255 -0.631524 0)
(-3.50958 -0.628045 1.03286e-17)
(-3.46276 -0.6415 0)
(-3.37424 -0.634893 0)
(-3.30015 -0.608814 1.01267e-17)
(-3.21536 -0.590967 0)
(-3.12382 -0.558899 -9.99128e-18)
(-3.0656 -0.532733 0)
(-2.99975 -0.522104 9.86323e-18)
(-2.90786 -0.490093 0)
(-2.82549 -0.455776 0)
(-2.73941 -0.413349 0)
(-2.68061 -0.361059 0)
(-2.67236 -0.305714 0)
(-2.64343 -0.214415 -9.4698e-18)
(-2.66204 -0.132847 0)
(-2.78079 -0.024557 1.86852e-17)
(-2.97726 0.133893 0)
(-3.27555 0.241987 -1.84361e-17)
(-3.71084 0.343582 0)
(-4.22317 0.531261 0)
(-4.90276 0.706422 1.80625e-17)
(-5.74408 0.696143 0)
(-6.57268 0.47296 1.79508e-17)
(-7.24556 0.211447 -1.78146e-17)
(-7.85924 0.0614717 0)
(-8.46206 0.138302 -1.7493e-17)
(-8.94838 0.329919 -1.73488e-17)
(-9.30399 0.537142 0)
(-9.64146 0.695216 0)
(-10.0862 0.781886 0)
(-10.692 0.810724 0)
(-11.2689 0.791146 0)
(-11.6163 0.732613 1.64008e-17)
(-11.7966 0.676339 0)
(-11.8608 0.674187 -1.61061e-17)
(-11.4919 0.734352 0)
(-10.9872 1.20225 0)
(-11.3692 1.89478 1.59273e-17)
(-12.354 1.83399 0)
(-13.0739 1.16442 -1.58016e-17)
(-13.6079 0.567266 0)
(-13.5566 0.3506 0)
(-12.7115 0.309449 0)
(-11.6136 0.337261 1.49973e-17)
(-10.7579 0.231261 0)
(-10.3044 0.122927 0)
(-10.3118 0.575659 1.5088e-17)
(-10.8485 1.45419 0)
(-11.7771 2.18326 1.48382e-17)
(-12.8434 2.43686 0)
(-13.8076 2.4542 0)
(-14.6623 2.43402 0)
(-15.3665 2.40029 -1.38194e-17)
(-15.9245 2.32167 0)
(-16.3327 2.29464 0)
(-16.6084 2.26085 -1.33493e-17)
(-16.7961 2.22031 -1.32122e-17)
(-16.8716 2.17605 0)
(-16.8197 2.12795 -1.29488e-17)
(-16.6727 2.09349 0)
(-16.4511 2.07617 -2.54146e-17)
(-16.1478 2.05781 0)
(-15.7295 2.01724 -2.49536e-17)
(-15.2344 1.96963 0)
(-14.6595 1.94395 2.45119e-17)
(-14.0441 1.91787 0)
(-13.3658 1.89474 0)
(-12.6455 1.86456 0)
(-11.8742 1.82977 -2.36992e-17)
(-11.0561 1.83519 0)
(-10.2879 1.83221 2.33015e-17)
(-9.4402 1.8087 0)
(-8.62441 1.84108 -2.29322e-17)
(-7.78979 1.80494 -2.27683e-17)
(-6.97905 1.78839 -2.25869e-17)
(-6.13855 1.77426 0)
(-5.36445 1.8076 0)
(-4.63002 1.80441 0)
(-3.87483 1.80741 0)
(-3.13774 1.80908 0)
(-2.43352 1.80561 0)
(-1.73279 1.79888 0)
(-1.11521 1.7692 0)
(-0.539145 1.77357 2.13158e-17)
(0.0241634 1.74568 2.11951e-17)
(0.547899 1.7185 0)
(1.08289 1.70352 0)
(1.62436 1.66894 0)
(2.16379 1.64619 2.08211e-17)
(2.69512 1.60158 0)
(3.15461 1.56944 0)
(3.58878 1.54567 0)
(4.02254 1.49775 0)
(4.53751 1.44037 -2.03918e-17)
(5.12287 1.40446 0)
(5.72056 1.36895 0)
(6.28979 1.33035 2.01832e-17)
(6.75135 1.25841 -2.01096e-17)
(7.17143 1.17618 0)
(7.86308 1.15428 -1.97435e-17)
(8.48553 1.10156 0)
(8.88104 0.991031 1.97771e-17)
(9.27771 0.873743 0)
(9.85676 0.757463 0)
(10.3344 0.751428 0)
(10.5991 0.787453 0)
(10.3614 0.836012 0)
(9.88601 0.863065 -3.87926e-17)
(8.95767 0.81915 -3.84494e-17)
(7.88976 0.813132 0)
(6.37639 0.874929 0)
(5.91341 0.546559 0)
(4.69362 0.533044 3.69407e-17)
(4.36615 0.281169 0)
(3.30563 0.453928 0)
(2.11187 0.294282 0)
(1.38185 0.146077 3.56181e-17)
(0.279629 0.176046 -3.56688e-17)
(-1.07611 0.0773758 0)
(-1.79173 0.115233 0)
(-3.05372 0.0258754 -3.45962e-17)
(-3.70232 0.0413078 -3.43255e-17)
(-4.70994 -0.0356471 0)
(-5.53397 0.00762521 0)
(-6.29658 -0.101585 3.34438e-17)
(-7.1638 0.0114687 -3.3183e-17)
(-7.55932 -0.0229445 0)
(-7.92356 -0.00485658 0)
(-7.88342 -0.119926 -3.23395e-17)
(-7.81684 -0.0764789 0)
(-7.40495 -0.0954985 0)
(-6.9918 -0.0683308 -3.15576e-17)
(-6.29742 -0.0339479 0)
(-5.29057 -0.0133011 -3.09938e-17)
(-4.52669 0.0555874 0)
(-4.21728 0.152976 0)
(-4.16352 0.129072 0)
(-4.44579 0.125265 3.00136e-17)
(-4.52234 0.0884838 0)
(-4.67676 0.230834 0)
(-4.72998 0.286394 0)
(-4.94588 0.406388 0)
(-5.10556 0.463529 0)
(-5.17105 0.454363 0)
(-5.11434 0.435088 2.80958e-17)
(-4.45951 0.391882 2.79367e-17)
(-3.61445 0.462227 0)
(-3.01086 0.441888 0)
(-1.40455 0.476008 0)
(-0.950409 0.645082 -2.7901e-17)
(-0.875337 0.686472 0)
(0.0971671 0.837546 5.50809e-17)
(0.534142 0.943154 -5.46397e-17)
(0.23606 0.884664 -5.41516e-17)
(1.52616 0.577474 5.2767e-17)
(4.12483 0.593815 -5.29522e-17)
(5.7446 0.798511 5.34052e-17)
(7.191 0.760362 0)
(-0.0762949 -0.801409 0)
(-0.647044 -0.510197 0)
(-1.32728 -0.8872 -2.30421e-17)
(-1.86934 -1.14514 0)
(-2.27185 -1.3603 2.36597e-17)
(-2.58226 -1.6641 2.3737e-17)
(-2.72648 -1.98585 1.18846e-17)
(-2.77735 -2.21384 1.18371e-17)
(-2.79749 -2.28771 0)
(-2.80323 -2.26355 1.16853e-17)
(-2.86147 -2.18619 0)
(-2.93821 -2.1205 0)
(-3.06228 -2.05921 -2.28091e-17)
(-3.17386 -2.00833 -1.12986e-17)
(-3.2919 -1.95568 2.24186e-17)
(-3.42398 -1.94854 2.22348e-17)
(-3.53164 -1.96125 1.1016e-17)
(-3.63206 -1.96035 0)
(-3.68363 -1.97633 0)
(-3.6961 -2.03506 0)
(-3.69802 -2.12122 1.06678e-17)
(-3.6492 -2.11031 0)
(-3.57389 -2.11334 -3.14673e-17)
(-3.48294 -2.17648 0)
(-3.36471 -2.18127 0)
(-3.22856 -2.098 -1.0228e-17)
(-3.09895 -2.08937 0)
(-2.97021 -2.01511 1.00683e-17)
(-2.84411 -1.91165 1.9996e-17)
(-2.70507 -1.91823 -9.93466e-18)
(-2.53818 -1.86683 0)
(-2.37911 -1.76717 0)
(-2.20535 -1.72096 0)
(-1.98629 -1.54824 1.92943e-17)
(-1.84567 -1.43451 1.91816e-17)
(-1.63873 -1.31113 9.50971e-18)
(-1.48964 -1.05119 0)
(-1.37602 -0.756737 -1.87912e-17)
(-1.31718 -0.471223 0)
(-1.25826 -0.117338 1.85107e-17)
(-1.42759 0.327526 0)
(-1.59201 0.631848 0)
(-1.87551 1.03065 -1.81045e-17)
(-2.32747 1.44671 0)
(-2.84304 1.54624 -5.34297e-17)
(-3.4926 1.62319 1.76512e-17)
(-4.46477 1.93474 0)
(-5.42484 1.98343 1.75228e-17)
(-6.13153 1.59808 1.71402e-17)
(-6.79208 1.24575 0)
(-7.48252 1.3565 0)
(-8.00822 1.84924 0)
(-8.43197 2.3545 0)
(-8.72117 2.47584 0)
(-8.87052 2.11626 -1.60825e-17)
(-9.27558 1.81151 -3.21396e-17)
(-9.49054 1.65761 1.60283e-17)
(-8.89469 1.08584 0)
(-8.54082 1.43775 -3.13547e-17)
(-8.72255 3.25188 1.53761e-17)
(-8.13008 4.07439 0)
(-8.28969 4.05474 1.54708e-17)
(-9.90275 4.45793 0)
(-10.2302 3.43234 0)
(-9.86495 1.79544 3.02165e-17)
(-10.1573 1.95546 -1.48802e-17)
(-11.2095 3.50487 2.92401e-17)
(-12.9239 4.98851 -2.88563e-17)
(-14.631 5.83118 -1.42672e-17)
(-15.8817 6.23597 0)
(-16.829 6.38898 -1.38362e-17)
(-17.62 6.36985 0)
(-18.262 6.29481 0)
(-18.8016 6.17085 0)
(-19.1788 6.0365 -1.32478e-17)
(-19.4256 5.9255 0)
(-19.5367 5.83225 -2.6139e-17)
(-19.6027 5.71721 3.89548e-17)
(-19.5311 5.60407 1.28983e-17)
(-19.3534 5.49721 0)
(-19.0732 5.40825 1.2691e-17)
(-18.7345 5.34042 0)
(-18.3224 5.29487 2.50207e-17)
(-17.8476 5.1976 0)
(-17.2432 5.09603 2.46578e-17)
(-16.5713 5.01124 -4.88935e-17)
(-15.8258 4.94827 -2.42486e-17)
(-15.0596 4.8612 0)
(-14.2212 4.8093 0)
(-13.3491 4.73927 0)
(-12.4498 4.66593 2.3473e-17)
(-11.4802 4.68481 0)
(-10.6624 4.64052 -2.29668e-17)
(-9.62531 4.57024 0)
(-8.80529 4.63351 6.73069e-17)
(-7.80056 4.5283 2.23261e-17)
(-6.95849 4.52832 2.20919e-17)
(-6.01772 4.47646 0)
(-5.16773 4.50921 0)
(-4.28693 4.5361 0)
(-3.54893 4.49917 0)
(-2.73931 4.50127 0)
(-2.01054 4.51963 4.12477e-17)
(-1.26029 4.51271 4.08271e-17)
(-0.591688 4.51013 0)
(0.051754 4.51557 -1.99769e-17)
(0.635287 4.49409 -1.97963e-17)
(1.20204 4.46471 0)
(1.73877 4.42852 -3.89354e-17)
(2.29699 4.39111 0)
(2.84127 4.36636 1.92296e-17)
(3.39005 4.35949 0)
(3.88377 4.36022 0)
(4.32542 4.30379 -3.80519e-17)
(4.72166 4.13451 0)
(5.29195 3.91632 1.88661e-17)
(5.92037 3.71892 0)
(6.42724 3.54529 0)
(6.97715 3.57345 1.8725e-17)
(7.62078 3.5757 1.87281e-17)
(7.89864 3.2702 0)
(8.28321 2.91105 -1.83519e-17)
(9.0502 2.94894 0)
(9.66819 2.89705 1.84898e-17)
(9.89532 2.64174 3.77676e-17)
(10.231 2.40283 0)
(10.3864 2.38126 0)
(10.143 2.56219 0)
(9.48404 2.78604 0)
(8.57482 2.8032 3.81524e-17)
(7.54361 3.04191 1.13768e-16)
(6.45618 2.77023 0)
(4.74546 2.25871 0)
(4.63392 1.64332 0)
(3.36044 1.6645 -3.6234e-17)
(4.03593 0.763309 0)
(1.12098 1.1747 0)
(1.59706 0.635297 7.00607e-17)
(-0.401621 0.403175 3.43899e-17)
(0.512489 0.522259 3.50704e-17)
(-2.17406 -0.0106139 0)
(-1.8263 -0.118603 0)
(-3.62058 -0.427268 3.39869e-17)
(-3.69709 -0.442757 -3.37677e-17)
(-4.85075 -0.585187 0)
(-5.41312 -0.398193 0)
(-5.9889 -0.563158 -3.2801e-17)
(-6.75304 -0.288146 9.77979e-17)
(-6.71922 -0.614563 0)
(-7.24845 -0.532981 0)
(-6.59526 -0.788566 3.19069e-17)
(-6.56967 -0.767718 0)
(-5.76358 -0.829025 6.32801e-17)
(-5.36526 -0.831536 -3.14673e-17)
(-4.28219 -0.943257 0)
(-2.71571 -0.87235 3.08339e-17)
(-1.13008 -0.561317 6.03922e-17)
(-0.287935 -0.125298 0)
(0.0790252 0.240035 0)
(-0.126002 0.568497 -2.88681e-17)
(-0.186311 0.613249 0)
(-0.661464 0.699498 5.67053e-17)
(-0.962227 0.696972 0)
(-1.69559 0.813958 0)
(-2.09235 0.798187 0)
(-2.28628 0.799232 0)
(-2.30355 0.735235 -2.62243e-17)
(-1.40642 0.613217 -2.60311e-17)
(-0.510079 0.852821 0)
(-0.269292 0.822422 0)
(1.2029 0.950475 0)
(0.652657 1.76472 2.65696e-17)
(-0.669889 1.78843 0)
(0.00959039 1.62809 -5.45361e-17)
(1.99615 2.05168 5.2404e-17)
(1.69959 2.21935 5.10706e-17)
(3.68509 1.10449 4.76734e-17)
(7.07657 1.00311 4.72655e-17)
(8.72127 1.71349 4.80614e-17)
(11.0333 1.85079 0)
(0.0103216 -1.86891 0)
(-0.211534 -0.859067 0)
(-0.709187 -0.983968 2.23006e-17)
(-1.324 -1.53404 2.30296e-17)
(-1.8323 -2.1179 -2.36183e-17)
(-2.18616 -2.73047 -2.37903e-17)
(-2.35787 -3.30574 3.5618e-20)
(-2.40571 -3.67834 0)
(-2.45054 -3.7412 0)
(-2.48643 -3.62629 0)
(-2.61948 -3.46296 0)
(-2.77659 -3.30823 0)
(-2.95744 -3.18926 6.8452e-17)
(-3.14501 -3.12361 0)
(-3.33437 -3.09003 -2.23419e-17)
(-3.51673 -3.07088 -2.211e-17)
(-3.68579 -3.11556 0)
(-3.82804 -3.16188 0)
(-3.95396 -3.22792 0)
(-4.05348 -3.31524 0)
(-4.098 -3.41911 -2.10024e-17)
(-4.08755 -3.48411 0)
(-4.00214 -3.5349 2.06593e-17)
(-3.92398 -3.58243 0)
(-3.83648 -3.55576 0)
(-3.73444 -3.45982 0)
(-3.67811 -3.41206 4.0114e-17)
(-3.58246 -3.30044 0)
(-3.47321 -3.18782 -1.97822e-17)
(-3.41531 -3.16112 3.93414e-17)
(-3.25807 -3.08322 0)
(-3.05267 -2.96962 0)
(-2.90455 -2.96618 0)
(-2.61866 -2.70318 -1.91466e-17)
(-2.45238 -2.53966 -1.90869e-17)
(-2.21564 -2.33235 0)
(-1.97293 -1.97421 0)
(-1.6494 -1.63472 3.74258e-17)
(-1.41949 -1.16546 3.70497e-17)
(-1.18658 -0.668488 -3.69333e-17)
(-1.11109 -0.0626226 0)
(-0.969913 0.521405 0)
(-1.06278 1.19902 0)
(-1.22515 1.85009 0)
(-1.50274 2.30058 3.56838e-17)
(-2.08261 2.66967 3.55086e-17)
(-2.83537 2.90241 -3.54417e-17)
(-3.52619 2.87932 0)
(-4.10156 3.0135 0)
(-4.83489 3.42686 0)
(-5.63112 3.47542 0)
(-6.19524 3.23469 3.41158e-17)
(-6.3325 3.28128 0)
(-6.34976 3.31606 0)
(-6.36187 3.3547 3.22299e-17)
(-6.55335 3.66832 3.2179e-17)
(-6.6683 2.93826 0)
(-6.25951 2.22733 -6.40548e-17)
(-6.82188 3.87733 3.17161e-17)
(-7.32353 5.06486 -3.16628e-17)
(-6.80111 5.10685 0)
(-7.9101 7.09067 0)
(-9.08935 7.46675 0)
(-9.1938 4.98572 0)
(-10.7385 5.17637 -2.98237e-17)
(-13.243 7.44234 -5.83088e-17)
(-15.3282 8.9031 -2.89166e-17)
(-16.745 9.56617 2.86654e-17)
(-17.8154 10.0106 0)
(-18.6167 10.3081 -5.64252e-17)
(-19.2348 10.426 -5.62146e-17)
(-19.6592 10.379 -5.60814e-17)
(-19.9187 10.2989 5.59358e-17)
(-20.1001 10.1573 0)
(-20.1293 10.033 8.32838e-17)
(-20.1191 9.91222 0)
(-20.095 9.79151 -2.74548e-17)
(-19.9805 9.66609 -2.74238e-17)
(-19.7948 9.52812 0)
(-19.5279 9.40762 0)
(-19.1594 9.32435 -5.38173e-17)
(-18.7398 9.27157 0)
(-18.2821 9.17268 -5.31847e-17)
(-17.7847 9.01908 0)
(-17.1646 8.84265 5.25671e-17)
(-16.4641 8.73462 1.04539e-16)
(-15.7292 8.66138 0)
(-14.9325 8.49654 0)
(-14.0457 8.40716 0)
(-13.0759 8.35394 5.08252e-17)
(-12.1993 8.20421 0)
(-11.1593 8.31251 5.00433e-17)
(-10.3316 8.2468 0)
(-9.20654 8.16467 0)
(-8.49873 8.24279 -9.75217e-17)
(-7.26132 8.07019 0)
(-6.47048 8.10292 -4.80126e-17)
(-5.44103 8.11879 0)
(-4.5911 8.04565 -4.6884e-17)
(-3.54917 8.12504 0)
(-2.84721 8.10669 0)
(-1.95413 8.03091 0)
(-1.1932 8.04607 -1.34541e-16)
(-0.385964 7.96535 -4.42588e-17)
(0.307019 7.94286 0)
(1.00269 7.86499 0)
(1.62072 7.79371 0)
(2.21258 7.69311 0)
(2.71611 7.59931 4.07153e-17)
(3.21867 7.4486 -8.04209e-17)
(3.65625 7.29508 -3.94319e-17)
(4.14326 7.1804 7.74446e-17)
(4.51864 7.09551 7.61391e-17)
(4.93051 7.01775 3.76964e-17)
(5.24967 6.7835 0)
(5.63921 6.35291 7.49773e-17)
(6.20704 6.28773 0)
(6.83743 6.27386 -7.46884e-17)
(7.03332 5.86094 -3.68228e-17)
(7.527 5.79674 0)
(8.14958 5.74132 7.26619e-17)
(8.30955 5.04242 3.61701e-17)
(8.51037 4.63699 0)
(9.39691 4.74828 3.54593e-17)
(9.90771 4.66467 -1.10333e-16)
(9.6869 4.25619 0)
(9.43164 4.46979 0)
(9.10248 4.77533 0)
(8.40003 5.05207 0)
(7.75047 4.88015 -7.61079e-17)
(6.46824 4.62738 -7.49515e-17)
(5.81129 4.35916 0)
(4.76215 3.96136 0)
(4.91624 2.31202 0)
(2.85228 1.88818 0)
(5.77412 1.80416 0)
(0.885628 2.31861 0)
(3.23159 0.876429 -7.04066e-17)
(-0.825672 0.216154 9.59441e-20)
(1.58204 0.285469 0)
(-1.66895 0.171789 0)
(-0.490535 -0.250639 -6.77128e-17)
(-2.42767 -0.422317 0)
(-2.28573 -0.547039 6.74382e-17)
(-3.31301 -0.731705 6.70765e-17)
(-3.82105 -0.619748 0)
(-4.22377 -0.831904 0)
(-5.42808 -0.53364 -6.54913e-17)
(-5.09123 -0.984911 -1.30489e-16)
(-5.90256 -0.946611 0)
(-4.93172 -1.31034 0)
(-5.00964 -1.13986 0)
(-4.27037 -1.19891 -6.43004e-17)
(-4.50844 -1.12025 6.45784e-17)
(-3.89093 -1.51948 0)
(-2.39388 -1.72909 1.30417e-16)
(-0.119526 -1.03307 6.3685e-17)
(1.38744 -0.291881 -1.22993e-16)
(2.23192 0.323176 0)
(2.21344 0.590355 0)
(2.7328 0.66864 -1.13092e-16)
(2.51248 1.11974 -5.60002e-17)
(2.1371 1.35982 0)
(1.2654 1.82687 0)
(0.659201 1.89659 0)
(0.290469 1.79877 0)
(-0.207909 1.48773 -1.06582e-16)
(0.0603296 1.14078 0)
(1.31391 1.69899 0)
(1.48956 1.75924 0)
(1.67659 2.2593 0)
(-0.05396 3.95739 0)
(-1.55011 3.8188 0)
(-2.04777 2.72698 -1.10171e-16)
(0.997643 2.9893 0)
(0.952754 3.48668 0)
(3.71857 1.39353 -1.91574e-16)
(8.08448 1.36888 9.27503e-17)
(10.1351 2.48888 -9.0651e-17)
(13.2852 2.98157 9.45388e-17)
(0.0130132 -3.34033 0)
(0.0516843 -1.94863 -4.58146e-17)
(-0.0871295 -1.44974 0)
(-0.531235 -1.78795 -2.21491e-17)
(-1.02061 -2.52449 0)
(-1.46528 -3.42378 0)
(-1.69877 -4.3503 2.34779e-17)
(-1.81682 -4.97243 0)
(-1.97259 -5.03299 0)
(-2.16181 -4.80694 0)
(-2.42438 -4.5381 0)
(-2.68925 -4.32085 0)
(-2.97834 -4.14021 -8.99794e-17)
(-3.23381 -4.01491 -4.44178e-17)
(-3.47742 -4.0114 4.38403e-17)
(-3.73501 -4.05 0)
(-4.06707 -4.09896 0)
(-4.4199 -4.15068 0)
(-4.72209 -4.21346 0)
(-4.93717 -4.3004 0)
(-5.0477 -4.4713 -4.16864e-17)
(-5.05162 -4.68835 -4.14552e-17)
(-4.96506 -4.80804 4.11981e-17)
(-4.88655 -4.85022 -4.0975e-17)
(-4.78246 -4.79693 0)
(-4.72009 -4.68195 0)
(-4.72371 -4.5517 -4.01827e-17)
(-4.69038 -4.41588 0)
(-4.62603 -4.37087 0)
(-4.55371 -4.34398 -3.94478e-17)
(-4.4479 -4.34916 -3.91872e-17)
(-4.27073 -4.27982 -3.8982e-17)
(-4.18128 -4.22872 0)
(-3.91507 -3.83203 0)
(-3.63486 -3.68558 3.83948e-17)
(-3.46324 -3.49567 0)
(-2.98925 -3.31294 0)
(-2.69027 -2.85476 -3.76917e-17)
(-2.39118 -2.21053 3.72935e-17)
(-2.05822 -1.61395 -3.71011e-17)
(-1.8333 -0.798228 0)
(-1.36355 -0.0838856 0)
(-1.10989 0.695757 -7.26649e-17)
(-1.12422 1.74893 0)
(-1.06749 2.59341 -7.07303e-17)
(-1.24248 3.38197 -1.05928e-16)
(-1.7555 4.11455 1.0563e-16)
(-2.52003 4.3338 -6.97755e-17)
(-3.35724 4.17609 0)
(-4.07034 4.17119 0)
(-4.52095 4.15487 -6.83026e-17)
(-4.86382 4.04138 -3.41113e-17)
(-5.1059 4.13044 0)
(-5.3322 4.417 0)
(-5.50875 4.55741 -3.31855e-17)
(-5.29867 4.40091 -6.5933e-17)
(-4.8734 3.95849 0)
(-5.04635 4.33504 6.4383e-17)
(-5.53436 5.41592 -6.37027e-17)
(-5.66006 6.29511 6.34762e-17)
(-6.65313 8.35412 0)
(-8.135 10.5647 0)
(-8.65949 10.1145 0)
(-10.4109 9.6898 0)
(-13.3694 11.0574 0)
(-15.4812 12.2451 5.85891e-17)
(-16.9991 12.9511 0)
(-18.0246 13.3534 0)
(-18.7238 13.5621 0)
(-19.1817 13.6152 1.15422e-16)
(-19.4961 13.5741 5.75846e-17)
(-19.591 13.4457 5.73156e-17)
(-19.5765 13.2487 -1.13793e-16)
(-19.5151 13.0996 5.64097e-17)
(-19.3746 12.9893 -5.60949e-17)
(-19.2474 12.8968 0)
(-19.125 12.811 5.5305e-17)
(-19.0042 12.6485 0)
(-18.8088 12.4566 0)
(-18.586 12.2562 0)
(-18.2498 12.1674 1.06917e-16)
(-17.8711 12.1338 -5.30892e-17)
(-17.4103 11.9882 -5.2633e-17)
(-16.9288 11.7565 -1.04632e-16)
(-16.3444 11.4815 -1.55938e-16)
(-15.6706 11.3055 -5.16591e-17)
(-14.9841 11.2143 0)
(-14.2068 11.0288 -1.02369e-16)
(-13.3947 10.8697 0)
(-12.395 10.816 -1.51634e-16)
(-11.4849 10.6326 0)
(-10.4225 10.7345 -1.49451e-16)
(-9.38523 10.7104 0)
(-8.30722 10.6602 0)
(-7.69061 10.7757 -4.88713e-17)
(-6.4711 10.5306 0)
(-5.65024 10.6341 4.83106e-17)
(-4.55381 10.6042 9.59412e-17)
(-3.75022 10.6042 4.77343e-17)
(-2.67571 10.765 9.4834e-17)
(-1.99106 10.8718 -9.41455e-17)
(-1.09706 10.7547 -9.3655e-17)
(-0.329953 10.895 1.86106e-16)
(0.541561 10.8102 0)
(1.22961 10.9438 0)
(2.00274 10.9558 9.12278e-17)
(2.64408 10.9817 -9.01356e-17)
(3.34182 10.9233 0)
(3.89146 10.8526 0)
(4.50571 10.74 8.72573e-17)
(5.00333 10.6353 0)
(5.55163 10.3825 7.62304e-20)
(5.88711 10.2771 7.98334e-20)
(6.27438 10.1142 8.05309e-17)
(6.6383 9.79237 0)
(7.09456 9.37844 -8.00457e-17)
(7.15366 8.66529 0)
(7.43687 8.41356 7.49627e-17)
(7.65866 8.5105 0)
(7.64545 7.95332 0)
(8.14094 7.75302 -7.16919e-17)
(8.87988 7.61467 -7.25665e-17)
(8.70478 6.78779 0)
(8.94509 6.1704 -6.97975e-17)
(9.50397 6.60985 1.45187e-16)
(9.98453 6.84972 0)
(9.3552 6.64984 0)
(8.95203 6.57522 0)
(8.33723 6.72225 0)
(8.04532 6.50779 7.47725e-17)
(7.27771 6.75151 -1.49424e-16)
(6.3478 5.87668 0)
(5.10536 4.54971 0)
(6.37409 3.65623 0)
(3.23491 2.40713 0)
(5.30979 2.08836 0)
(1.29792 2.90638 0)
(5.58728 1.29366 0)
(0.628563 0.963565 7.02951e-17)
(2.7277 0.384214 0)
(-0.450588 0.210075 0)
(0.412864 -0.674411 6.86769e-17)
(-1.3645 -0.985672 0)
(-1.2737 -1.28407 0)
(-1.7826 -1.46407 -6.62883e-17)
(-2.36068 -1.21855 0)
(-2.04893 -1.29855 0)
(-3.12904 -0.841658 1.29425e-16)
(-2.8646 -1.32942 1.29971e-16)
(-4.15405 -1.46244 1.2933e-16)
(-3.5698 -2.08516 0)
(-3.13057 -1.73389 1.26552e-16)
(-1.77941 -1.53651 0)
(-2.03208 -1.41378 -1.26718e-16)
(-2.46162 -2.24302 0)
(-2.39838 -3.01097 -1.33199e-16)
(0.00125586 -2.31443 1.49e-19)
(1.98832 -0.939686 1.28207e-16)
(3.57773 0.2703 -1.23813e-16)
(3.36554 0.980393 1.21975e-16)
(3.95632 1.20897 2.36168e-16)
(4.12677 1.78424 0)
(4.16366 2.24919 0)
(3.93993 2.43367 0)