/*--------------------------------*- C++ -*----------------------------------*\
| =========                 |                                                 |
| \\      /  F ield         | OpenFOAM: The Open Source CFD Toolbox           |
|  \\    /   O peration     | Version:  dev                                   |
|   \\  /    A nd           | Web:      http://www.openfoam.org               |
|    \\/     M anipulation  |                                                 |
\*---------------------------------------------------------------------------*/
FoamFile
{
    version     2.0;
    format      ascii;
    class       volVectorField;
    object      U_0;
    location    "9.125";
}
// * * * * * * * * * * * * * * * * * * * * * * * * * * * * * * * * * * * * * //

dimensions      [0 1 -1 0 0 0 0];

internalField   nonuniform List<vector> 
12225
(
(7.36383 0.668356 0)
(6.41931 0.363509 0)
(6.21335 0.204243 0)
(7.79158 0.150711 0)
(7.91155 0.173083 0)
(10.382 0.140963 0)
(10.0313 0.207752 0)
(12.6519 0.111815 0)
(11.7821 0.24113 0)
(14.7236 0.0609429 0)
(13.1248 0.303131 0)
(16.6073 0.00342843 0)
(14.5609 0.304817 0)
(17.8622 -0.0652112 0)
(18.2893 -0.0687955 0)
(17.6505 1.57893 0)
(23.9931 -3.79663 0)
(19.3021 3.4573 0)
(9.78867 1.6658 0)
(11.7445 1.3225 0)
(10.4914 0.966162 0)
(13.4383 0.751014 0)
(10.8459 0.617879 0)
(15.9083 0.534762 0)
(12.089 0.563944 0)
(18.6025 0.421003 0)
(13.372 0.501108 0)
(21.6561 0.271817 0)
(14.575 0.50465 0)
(24.9114 -0.205445 0)
(16.6035 0.971489 0)
(28.0269 -2.03353 0)
(20.5945 2.18179 0)
(32.8639 -3.18989 0)
(21.7863 0.765365 0)
(31.9736 -4.14292 0)
(9.03522 2.00223 0)
(14.4514 1.79131 0)
(11.8064 1.481 0)
(17.5623 1.42349 0)
(12.791 1.14914 0)
(20.2662 1.1148 0)
(14.0216 1.02369 0)
(22.9218 0.832611 0)
(15.7583 0.906085 0)
(25.1143 0.374618 0)
(18.3117 0.996023 0)
(26.6426 -0.576112 0)
(21.6706 1.35347 0)
(27.5187 -1.92286 0)
(23.9805 1.13777 0)
(30.8594 -1.60668 0)
(25.2111 1.98362 0)
(32.194 -15.1184 0)
(7.40682 2.34175 0)
(15.9228 2.20697 0)
(11.7479 1.91834 0)
(19.2641 1.98857 0)
(14.9079 1.7319 0)
(21.8295 1.53966 0)
(17.5246 1.61015 0)
(23.8478 1.00426 0)
(20.1838 1.66048 0)
(25.2736 0.202214 0)
(22.0789 1.85651 0)
(26.3648 -0.984311 0)
(24.0918 2.32281 0)
(27.4937 -2.75642 0)
(25.2128 2.4021 0)
(30.0555 -4.49733 0)
(29.9865 2.97933 0)
(24.1787 -10.8334 0)
(7.88253 3.31229 0)
(14.3127 2.1374 0)
(13.1844 2.53381 0)
(17.304 1.98171 0)
(17.251 2.50583 0)
(19.8715 1.66027 0)
(20.0451 2.43935 0)
(21.6893 1.05863 0)
(22.5275 2.44084 0)
(23.3893 0.42342 0)
(24.0406 2.62526 0)
(24.9732 -0.897941 0)
(25.2986 3.21578 0)
(26.272 -2.54647 0)
(26.3477 3.13631 0)
(26.5505 -6.38657 0)
(32.2799 8.05111 0)
(30.2762 -14.2565 0)
(9.96039 4.07193 0)
(11.8514 2.38255 0)
(14.06 3.16549 0)
(14.9367 2.32713 0)
(17.6134 3.02741 0)
(17.8262 2.07369 0)
(20.2952 2.99936 0)
(19.988 1.40695 0)
(22.6892 2.95266 0)
(22.2022 0.751253 0)
(24.7478 2.94977 0)
(24.0952 -0.53674 0)
(26.2452 2.95697 0)
(25.6563 -1.50114 0)
(28.2112 2.01114 0)
(26.3606 -4.49934 0)
(29.5618 2.28805 0)
(30.6235 -8.44834 0)
(10.6242 5.05752 0)
(11.6055 2.4799 0)
(14.0825 4.1157 0)
(15.1589 2.41173 0)
(17.4004 4.06425 0)
(18.0854 2.20483 0)
(20.3048 4.09174 0)
(20.5148 1.4751 0)
(22.5399 3.87615 0)
(22.7407 0.763831 0)
(24.6803 3.73661 0)
(24.5542 -0.236241 0)
(26.0829 3.36938 0)
(26.4299 -1.21014 0)
(27.761 2.31135 0)
(26.7268 -3.28744 0)
(27.9562 0.287364 0)
(27.4992 -6.01792 0)
(10.7135 5.55304 0)
(11.7546 3.07766 0)
(14.3313 4.44339 0)
(15.4452 2.90074 0)
(17.5127 4.309 0)
(18.3449 2.73902 0)
(20.2265 4.11451 0)
(20.9058 2.28458 0)
(22.4477 3.73309 0)
(23.0389 1.6527 0)
(24.2237 3.25523 0)
(24.7602 0.897898 0)
(25.471 2.36512 0)
(26.3266 0.118394 0)
(26.2 0.796025 0)
(26.6605 -1.44928 0)
(25.9172 -0.158053 0)
(26.0275 -2.489 0)
(10.9277 6.50236 0)
(11.9917 3.19806 0)
(14.4189 5.11307 0)
(15.7421 3.15754 0)
(17.4531 5.05961 0)
(18.5546 3.02657 0)
(20.1149 4.82458 0)
(21.0181 2.49583 0)
(22.3925 4.24163 0)
(23.0246 1.8167 0)
(24.034 3.61877 0)
(24.5865 1.04156 0)
(25.2724 2.72748 0)
(25.6381 0.286637 0)
(26.1377 1.364 0)
(25.6904 -0.722493 0)
(25.7061 -0.709089 0)
(25.1109 -2.49235 0)
(10.7381 6.92321 0)
(12.0435 3.90606 0)
(14.209 5.32222 0)
(15.5839 3.89674 0)
(17.2923 5.12546 0)
(18.5285 3.78485 0)
(20.0363 4.76028 0)
(21.1656 3.3971 0)
(22.1995 4.20643 0)
(23.1513 2.84851 0)
(23.761 3.42371 0)
(24.5827 2.34918 0)
(24.7949 2.38948 0)
(25.5126 1.69144 0)
(25.4859 1.05168 0)
(25.5265 0.489099 0)
(25.187 -0.3222 0)
(24.8103 -0.402561 0)
(10.8355 7.93492 0)
(11.8991 4.33735 0)
(14.0156 5.86194 0)
(15.2874 4.35132 0)
(17.0338 5.6585 0)
(18.2813 4.19557 0)
(19.6951 5.26284 0)
(20.8176 3.78278 0)
(21.832 4.59704 0)
(22.7461 3.21349 0)
(23.4559 3.80625 0)
(24.0671 2.66965 0)
(24.5151 2.81969 0)
(24.8363 1.87457 0)
(25.046 1.51204 0)
(24.873 0.8748 0)
(24.8185 0.270379 0)
(24.4452 -0.240676 0)
(10.3665 8.31492 0)
(12.0139 5.27188 0)
(13.7004 5.97812 0)
(15.245 5.22095 0)
(16.7783 5.78143 0)
(18.1788 5.04452 0)
(19.4773 5.35783 0)
(20.6481 4.67838 0)
(21.5264 4.73994 0)
(22.4645 4.17175 0)
(23.1034 3.97615 0)
(23.7037 3.54111 0)
(24.0669 3.10211 0)
(24.4193 2.70479 0)
(24.5937 2.03699 0)
(24.5637 1.65351 0)
(24.4662 1.11802 0)
(24.1797 0.704639 0)
(10.5282 9.34035 0)
(12.0576 5.82686 0)
(13.6567 6.35806 0)
(15.2005 5.78014 0)
(16.7253 6.17344 0)
(18.1101 5.60624 0)
(19.3169 5.77673 0)
(20.3932 5.19682 0)
(21.2774 5.15084 0)
(22.084 4.67074 0)
(22.7342 4.45343 0)
(23.2458 3.94773 0)
(23.6401 3.57682 0)
(23.886 3.12091 0)
(24.0839 2.623 0)
(24.1081 2.12949 0)
(24.0652 1.67812 0)
(23.8074 1.32091 0)
(10.5646 9.87694 0)
(12.2716 6.73145 0)
(13.6768 6.66178 0)
(15.0786 6.45568 0)
(16.4583 6.45025 0)
(17.8053 6.23929 0)
(19.0084 6.12389 0)
(20.0923 5.861 0)
(20.972 5.60479 0)
(21.7876 5.26071 0)
(22.396 4.88893 0)
(22.9144 4.51092 0)
(23.2862 4.07682 0)
(23.5085 3.649 0)
(23.6663 3.23368 0)
(23.7088 2.80784 0)
(23.6677 2.39347 0)
(23.4813 2.0126 0)
(10.6662 10.4847 0)
(12.3893 7.20538 0)
(13.8667 7.08469 0)
(15.2277 6.93822 0)
(16.5116 6.83311 0)
(17.785 6.62444 0)
(18.8933 6.45114 0)
(19.9157 6.20217 0)
(20.7697 5.96346 0)
(21.5371 5.65313 0)
(22.135 5.3011 0)
(22.5981 4.93221 0)
(22.9153 4.52961 0)
(23.1496 4.1417 0)
(23.206 3.77607 0)
(23.1874 3.37509 0)
(23.1552 3.00084 0)
(22.9349 2.65817 0)
(10.3512 10.9495 0)
(12.1251 7.52509 0)
(13.6904 7.33215 0)
(15.1742 7.2478 0)
(16.5057 7.14488 0)
(17.7209 6.96923 0)
(18.754 6.76966 0)
(19.6909 6.54761 0)
(20.4611 6.27834 0)
(21.1545 5.97024 0)
(21.6916 5.61811 0)
(22.1519 5.25724 0)
(22.4607 4.90239 0)
(22.6873 4.5571 0)
(22.7454 4.23464 0)
(22.7075 3.93843 0)
(22.6532 3.6145 0)
(22.5422 3.30006 0)
(10.6865 11.0468 0)
(12.2534 7.37432 0)
(13.6168 7.14256 0)
(14.9772 7.12472 0)
(16.2449 7.08354 0)
(17.4312 6.99951 0)
(18.4549 6.87007 0)
(19.3856 6.67495 0)
(20.1398 6.4268 0)
(20.8062 6.13153 0)
(21.3098 5.80358 0)
(21.7291 5.46199 0)
(21.9957 5.11795 0)
(22.1963 4.78181 0)
(22.2633 4.46224 0)
(22.2682 4.17463 0)
(22.1897 3.89847 0)
(22.0524 3.6144 0)
(10.659 10.4259 0)
(12.2823 7.06287 0)
(13.5851 6.84026 0)
(14.8747 6.75473 0)
(16.0707 6.63749 0)
(17.1938 6.53623 0)
(18.1809 6.44889 0)
(19.0943 6.30564 0)
(19.8536 6.09808 0)
(20.5073 5.84115 0)
(20.987 5.55916 0)
(21.3748 5.26192 0)
(21.5985 4.97547 0)
(21.761 4.70427 0)
(21.7977 4.44764 0)
(21.799 4.20669 0)
(21.7329 3.96397 0)
(21.5992 3.73457 0)
(10.699 9.4931 0)
(12.3483 6.41955 0)
(13.6516 6.15948 0)
(14.9003 6.04966 0)
(16.0243 5.90972 0)
(17.0763 5.81165 0)
(17.9817 5.73368 0)
(18.7797 5.63842 0)
(19.461 5.50948 0)
(20.0584 5.34365 0)
(20.4881 5.16938 0)
(20.8412 4.96689 0)
(21.0495 4.73664 0)
(21.1962 4.49137 0)
(21.2329 4.23907 0)
(21.2456 3.98575 0)
(21.1951 3.72567 0)
(21.0956 3.4721 0)
(10.7559 8.46283 0)
(12.5178 5.63734 0)
(13.8162 5.44379 0)
(14.9848 5.36635 0)
(16.0235 5.23428 0)
(17.0149 5.10619 0)
(17.8858 5.00759 0)
(18.645 4.91135 0)
(19.2562 4.80923 0)
(19.8027 4.68412 0)
(20.2462 4.53699 0)
(20.616 4.37313 0)
(20.8558 4.18582 0)
(21.0522 3.98579 0)
(21.1182 3.77955 0)
(21.1428 3.56604 0)
(21.0789 3.34558 0)
(20.9594 3.11704 0)
(10.8998 7.41971 0)
(12.6447 4.86441 0)
(13.9118 4.65708 0)
(15.0743 4.54173 0)
(16.1106 4.4055 0)
(17.0761 4.28753 0)
(17.9189 4.1874 0)
(18.6298 4.09189 0)
(19.2093 3.99661 0)
(19.684 3.91299 0)
(20.066 3.79207 0)
(20.3935 3.65305 0)
(20.6192 3.49633 0)
(20.7914 3.33663 0)
(20.8488 3.16874 0)
(20.8594 2.99747 0)
(20.79 2.82662 0)
(20.6657 2.63509 0)
(10.7092 6.12815 0)
(12.7065 4.05247 0)
(14.2072 3.86473 0)
(15.4628 3.75141 0)
(16.4496 3.63067 0)
(17.2884 3.57153 0)
(18.0245 3.49233 0)
(18.6757 3.42419 0)
(19.2229 3.34649 0)
(19.6872 3.26654 0)
(20.0526 3.16479 0)
(20.3651 3.04694 0)
(20.585 2.89543 0)
(20.7337 2.75861 0)
(20.7807 2.61335 0)
(20.765 2.48471 0)
(20.6863 2.34519 0)
(20.5362 2.18437 0)
(10.8274 5.08116 0)
(12.7133 3.11129 0)
(14.086 2.95297 0)
(15.2509 2.97046 0)
(16.2432 2.96336 0)
(17.1233 2.93663 0)
(17.911 2.8711 0)
(18.6169 2.76042 0)
(19.1909 2.6321 0)
(19.668 2.51311 0)
(20.0298 2.41185 0)
(20.3064 2.33516 0)
(20.5106 2.23441 0)
(20.6467 2.14537 0)
(20.7061 2.03639 0)
(20.69 1.95054 0)
(20.6205 1.82499 0)
(20.4878 1.69442 0)
(10.8324 4.23285 0)
(12.633 2.51308 0)
(14.0347 2.34245 0)
(15.3066 2.2891 0)
(16.3881 2.22816 0)
(17.31 2.19109 0)
(18.0962 2.17737 0)
(18.7776 2.14303 0)
(19.3389 2.07344 0)
(19.8074 1.97867 0)
(20.1638 1.86988 0)
(20.415 1.78651 0)
(20.5725 1.69307 0)
(20.6661 1.61343 0)
(20.7019 1.52281 0)
(20.6745 1.45134 0)
(20.6024 1.35419 0)
(20.5075 1.25705 0)
(10.7408 3.13302 0)
(12.8431 1.67241 0)
(14.3667 1.51908 0)
(15.6295 1.55216 0)
(16.6251 1.6041 0)
(17.4579 1.64205 0)
(18.1701 1.63043 0)
(18.8108 1.59368 0)
(19.3552 1.51263 0)
(19.8155 1.42461 0)
(20.1768 1.33752 0)
(20.4325 1.26109 0)
(20.5791 1.18215 0)
(20.6249 1.12047 0)
(20.6191 1.05543 0)
(20.5573 0.967152 0)
(20.453 0.887023 0)
(20.3533 0.812227 0)
(11.1883 2.44059 0)
(13.1395 1.15189 0)
(14.5574 0.999145 0)
(15.7114 1.0167 0)
(16.6299 1.05156 0)
(17.4617 1.0943 0)
(18.1961 1.093 0)
(18.8641 1.07024 0)
(19.3955 1.00687 0)
(19.8218 0.952103 0)
(20.1115 0.897634 0)
(20.2953 0.851194 0)
(20.384 0.792771 0)
(20.3711 0.733159 0)
(20.2996 0.681331 0)
(20.1498 0.602 0)
(19.9838 0.552677 0)
(19.7543 0.483494 0)
(11.0245 1.49815 0)
(13.3106 0.471327 0)
(14.8126 0.412732 0)
(15.9387 0.505163 0)
(16.7843 0.586243 0)
(17.544 0.630401 0)
(18.148 0.617623 0)
(18.6511 0.600806 0)
(18.9905 0.556482 0)
(19.217 0.534227 0)
(19.3219 0.508898 0)
(19.3313 0.496276 0)
(19.263 0.481247 0)
(19.0947 0.440491 0)
(18.8981 0.405343 0)
(18.6035 0.363312 0)
(18.258 0.341317 0)
(17.8511 0.300619 0)
(10.7025 0.786559 0)
(13.0895 -0.0543374 0)
(14.4846 -0.0295175 0)
(15.4001 0.118775 0)
(15.9851 0.227718 0)
(16.4691 0.305805 0)
(16.7701 0.343009 0)
(16.9819 0.36432 0)
(17.0468 0.360533 0)
(17.0294 0.361488 0)
(16.9393 0.361361 0)
(16.7619 0.347572 0)
(16.5355 0.336686 0)
(16.2541 0.326027 0)
(15.9289 0.302946 0)
(15.5358 0.28793 0)
(15.1165 0.273331 0)
(14.6555 0.268932 0)
(10.8588 0.00574302 0)
(12.5346 -0.625737 0)
(13.0118 -0.465773 0)
(13.1072 -0.206382 0)
(13.1173 -0.00919836 0)
(13.2215 0.132984 0)
(13.2871 0.206156 0)
(13.3733 0.244436 0)
(13.3816 0.245257 0)
(13.3927 0.248662 0)
(13.3403 0.245467 0)
(13.2127 0.234657 0)
(13.0575 0.234861 0)
(12.8547 0.239681 0)
(12.6097 0.21174 0)
(12.3241 0.23473 0)
(11.9746 0.208365 0)
(11.6334 0.198864 0)
(9.36283 -0.130873 0)
(8.64788 -0.242243 0)
(7.92215 -0.0181745 0)
(7.69334 0.109654 0)
(7.90569 0.137735 0)
(8.35768 0.132775 0)
(8.80758 0.119798 0)
(9.21668 0.109574 0)
(9.55414 0.0984154 0)
(9.83266 0.0945095 0)
(9.99441 0.0904117 0)
(10.0852 0.0903634 0)
(10.1158 0.0918438 0)
(10.0915 0.0932973 0)
(10.0356 0.082645 0)
(9.92253 0.0949658 0)
(9.75587 0.0849512 0)
(9.52695 0.0983448 0)
(-0.210007 0.0303935 0)
(-0.798975 -0.0690325 0)
(-1.27744 -0.0794534 0)
(-1.7142 -0.0434069 0)
(-2.09361 -0.161143 0)
(-2.38096 -0.242944 0)
(-2.56672 -0.335057 1.1419e-17)
(-2.64586 -0.417852 -1.13741e-17)
(-2.693 -0.442791 0)
(-2.71516 -0.448641 -1.12255e-17)
(-2.75617 -0.434355 0)
(-2.80679 -0.423022 0)
(-2.87751 -0.407226 0)
(-2.95375 -0.395352 1.09032e-17)
(-3.03372 -0.380227 0)
(-3.13212 -0.386644 0)
(-3.22233 -0.381638 -1.06816e-17)
(-3.28229 -0.388331 0)
(-3.32249 -0.407084 0)
(-3.33659 -0.424147 0)
(-3.31583 -0.448247 1.04155e-17)
(-3.27057 -0.451412 0)
(-3.22529 -0.456944 1.02825e-17)
(-3.1459 -0.480379 0)
(-3.02254 -0.485365 0)
(-2.91204 -0.471003 1.00853e-17)
(-2.7907 -0.464687 0)
(-2.66244 -0.444918 -9.95325e-18)
(-2.56867 -0.430877 0)
(-2.47004 -0.432746 9.82849e-18)
(-2.34749 -0.41406 0)
(-2.23679 -0.393669 0)
(-2.12593 -0.365595 0)
(-2.04572 -0.328295 0)
(-2.02023 -0.288328 0)
(-1.97817 -0.212881 -9.44743e-18)
(-1.98725 -0.14718 0)
(-2.10202 -0.0570131 1.86502e-17)
(-2.29901 0.0847878 0)
(-2.6016 0.176635 -1.84103e-17)
(-3.04737 0.258873 0)
(-3.5759 0.428347 0)
(-4.27655 0.594233 1.80496e-17)
(-5.14939 0.579897 0)
(-6.02781 0.350508 1.79512e-17)
(-6.76354 0.0738453 -1.78248e-17)
(-7.44141 -0.102854 0)
(-8.11493 -0.0556026 -1.75161e-17)
(-8.68418 0.112712 -1.73754e-17)
(-9.12823 0.304669 0)
(-9.5499 0.454571 0)
(-10.0683 0.536559 0)
(-10.7515 0.561915 0)
(-11.4297 0.537305 0)
(-11.8946 0.466995 1.64649e-17)
(-12.1842 0.391262 0)
(-12.3628 0.370172 -1.61838e-17)
(-12.113 0.390725 0)
(-11.6504 0.809386 0)
(-12.0263 1.5366 1.59871e-17)
(-13.0748 1.57358 0)
(-13.9161 0.943463 -1.59132e-17)
(-14.5785 0.312799 0)
(-14.6846 0.0338518 0)
(-13.9695 -0.0503375 0)
(-12.9133 -0.027486 1.51233e-17)
(-12.0545 -0.121174 0)
(-11.5886 -0.253222 0)
(-11.5708 0.13881 1.51878e-17)
(-12.071 0.998563 0)
(-12.9594 1.76739 1.49953e-17)
(-14.0016 2.06974 0)
(-14.9514 2.10949 0)
(-15.7875 2.09671 0)
(-16.4681 2.07229 -1.39739e-17)
(-16.996 1.99916 0)
(-17.3686 1.97479 0)
(-17.6023 1.94751 -1.35055e-17)
(-17.7443 1.91399 -1.33695e-17)
(-17.7737 1.87755 0)
(-17.6727 1.83659 -1.31072e-17)
(-17.473 1.80865 0)
(-17.1982 1.79974 -2.57312e-17)
(-16.8455 1.79195 0)
(-16.3772 1.76242 -2.52708e-17)
(-15.8302 1.72287 0)
(-15.2029 1.70567 2.48259e-17)
(-14.5356 1.68915 0)
(-13.8051 1.67664 0)
(-13.033 1.65822 0)
(-12.2106 1.63228 -2.40035e-17)
(-11.3365 1.64876 0)
(-10.5198 1.65935 2.35971e-17)
(-9.6239 1.64601 0)
(-8.76229 1.69273 -2.32176e-17)
(-7.88421 1.66867 -2.30512e-17)
(-7.03333 1.66361 -2.28661e-17)
(-6.15388 1.65965 0)
(-5.34419 1.70675 0)
(-4.58079 1.71783 0)
(-3.80477 1.73321 0)
(-3.0491 1.74722 0)
(-2.33456 1.75624 0)
(-1.6353 1.76096 0)
(-1.03306 1.74315 0)
(-0.486805 1.75972 2.15481e-17)
(0.0307964 1.7436 2.14234e-17)
(0.492241 1.72817 0)
(0.948532 1.72529 0)
(1.39608 1.70243 0)
(1.82476 1.69203 2.10354e-17)
(2.22812 1.6595 0)
(2.54267 1.64002 0)
(2.81785 1.62693 0)
(3.08275 1.58786 0)
(3.42666 1.53933 -2.0589e-17)
(3.83587 1.51305 0)
(4.25 1.48795 0)
(4.62656 1.46203 2.03676e-17)
(4.89855 1.39864 -2.02856e-17)
(5.14243 1.32413 0)
(5.66876 1.31175 -1.99078e-17)
(6.13364 1.26381 0)
(6.4087 1.14904 1.99316e-17)
(6.7223 1.03172 0)
(7.23163 0.927831 0)
(7.62269 0.940826 0)
(7.77759 0.993513 0)
(7.43036 1.05364 0)
(6.86914 1.08591 -3.89856e-17)
(5.88276 1.05273 -3.86155e-17)
(4.76735 1.0534 0)
(3.22741 1.10875 0)
(2.81627 0.783495 0)
(1.69966 0.76857 3.70018e-17)
(1.5057 0.536592 0)
(0.568444 0.733653 0)
(-0.448099 0.539736 0)
(-1.04842 0.40294 3.55839e-17)
(-1.94971 0.441062 -3.56255e-17)
(-3.10562 0.341009 0)
(-3.62292 0.379838 0)
(-4.70913 0.290731 -3.45281e-17)
(-5.20849 0.30611 -3.42563e-17)
(-6.09828 0.225924 0)
(-6.84766 0.269341 0)
(-7.55995 0.157242 3.33889e-17)
(-8.4074 0.271688 -3.31376e-17)
(-8.7711 0.229577 0)
(-9.11077 0.230225 0)
(-9.06363 0.136822 -3.23239e-17)
(-8.99118 0.162013 0)
(-8.5491 0.138716 0)
(-8.10787 0.149983 -3.15635e-17)
(-7.36972 0.175905 0)
(-6.25443 0.187669 -3.10081e-17)
(-5.35235 0.240023 0)
(-4.89192 0.337641 0)
(-4.66577 0.314238 0)
(-4.74586 0.310336 3.00516e-17)
(-4.61661 0.282295 0)
(-4.56115 0.425016 0)
(-4.4042 0.488039 0)
(-4.43347 0.613128 0)
(-4.43205 0.671833 0)
(-4.36951 0.67146 0)
(-4.23605 0.655174 2.81865e-17)
(-3.54427 0.621677 2.80373e-17)
(-2.69466 0.688573 0)
(-2.08399 0.665587 0)
(-0.525942 0.695574 0)
(-0.250809 0.868261 -2.80488e-17)
(-0.378224 0.908884 0)
(0.511217 1.04622 5.54329e-17)
(0.894981 1.15496 -5.49855e-17)
(0.523219 1.09337 -5.45008e-17)
(1.81504 0.784292 5.31164e-17)
(4.43181 0.811586 -5.33277e-17)
(6.05811 1.02219 5.37926e-17)
(7.56414 0.98583 0)
(-0.0741976 0.0114076 0)
(-0.635555 0.269392 0)
(-1.30134 -0.0902037 -2.29172e-17)
(-1.83546 -0.333961 0)
(-2.23405 -0.541658 2.35342e-17)
(-2.54531 -0.83712 2.36122e-17)
(-2.69498 -1.1549 1.18289e-17)
(-2.75242 -1.38705 1.17718e-17)
(-2.77859 -1.4733 0)
(-2.78679 -1.46608 1.16236e-17)
(-2.8433 -1.40659 0)
(-2.91432 -1.35895 0)
(-3.02946 -1.31667 -2.2703e-17)
(-3.1292 -1.28531 -1.12418e-17)
(-3.23166 -1.25178 2.23168e-17)
(-3.34613 -1.26342 2.21352e-17)
(-3.43372 -1.29687 1.09628e-17)
(-3.51205 -1.31763 0)
(-3.53981 -1.35482 0)
(-3.52547 -1.43579 0)
(-3.49973 -1.54969 1.06288e-17)
(-3.42226 -1.56851 0)
(-3.31626 -1.59846 -3.13396e-17)
(-3.19309 -1.69217 0)
(-3.04118 -1.73386 0)
(-2.86941 -1.68567 -1.01877e-17)
(-2.70269 -1.71183 0)
(-2.5384 -1.67627 1.00314e-17)
(-2.37776 -1.60836 1.99302e-17)
(-2.2056 -1.65193 -9.90072e-18)
(-2.00928 -1.6416 0)
(-1.82325 -1.58234 0)
(-1.62608 -1.57844 0)
(-1.38756 -1.45085 1.92465e-17)
(-1.2305 -1.38058 1.91375e-17)
(-1.01124 -1.30481 9.48794e-18)
(-0.855362 -1.09397 0)
(-0.742086 -0.849429 -1.8757e-17)
(-0.686831 -0.615022 0)
(-0.634775 -0.312193 1.84857e-17)
(-0.817826 0.0812718 0)
(-1.00124 0.335882 0)
(-1.31019 0.686661 -1.80956e-17)
(-1.79381 1.06043 0)
(-2.34676 1.12379 -5.34446e-17)
(-3.03764 1.158 1.76565e-17)
(-4.05592 1.42656 0)
(-5.08306 1.4516 1.75545e-17)
(-5.86948 1.04317 1.7183e-17)
(-6.60632 0.63644 0)
(-7.38154 0.668705 0)
(-7.9992 1.09922 0)
(-8.51019 1.58521 0)
(-8.89203 1.71833 0)
(-9.12714 1.34553 -1.61385e-17)
(-9.61582 0.990951 -3.22417e-17)
(-9.95845 0.813864 1.60997e-17)
(-9.48051 0.18333 0)
(-9.16599 0.388954 -3.15431e-17)
(-9.42578 2.18129 1.5457e-17)
(-8.89997 3.0879 0)
(-9.04568 3.0989 1.55495e-17)
(-10.7262 3.56377 0)
(-11.2319 2.60589 0)
(-10.9454 0.869039 3.04501e-17)
(-11.2098 0.831454 -1.50159e-17)
(-12.2256 2.30407 2.94871e-17)
(-13.9267 3.83709 -2.90995e-17)
(-15.6703 4.75577 -1.44034e-17)
(-16.9705 5.21282 0)
(-17.9408 5.39638 -1.39822e-17)
(-18.7326 5.39656 0)
(-19.3599 5.33809 0)
(-19.8779 5.22989 0)
(-20.2283 5.10831 -1.338e-17)
(-20.4423 5.00946 0)
(-20.5129 4.93212 -2.64421e-17)
(-20.5362 4.83691 3.94377e-17)
(-20.4242 4.74221 1.3074e-17)
(-20.1988 4.65399 0)
(-19.8648 4.58507 1.28722e-17)
(-19.4711 4.53959 0)
(-19.0074 4.52281 2.53838e-17)
(-18.4871 4.45525 0)
(-17.8371 4.37809 2.50302e-17)
(-17.115 4.31779 -4.95844e-17)
(-16.3181 4.28451 -2.46238e-17)
(-15.5018 4.22363 0)
(-14.612 4.20086 0)
(-13.6854 4.16561 0)
(-12.7383 4.11682 2.38477e-17)
(-11.7083 4.17419 0)
(-10.8448 4.16937 -2.33314e-17)
(-9.7583 4.12839 0)
(-8.89595 4.23305 6.83235e-17)
(-7.84677 4.15886 2.26739e-17)
(-6.96418 4.19398 2.24396e-17)
(-5.98522 4.17718 0)
(-5.10214 4.24446 0)
(-4.18819 4.31066 0)
(-3.43134 4.3103 0)
(-2.60556 4.34301 0)
(-1.86887 4.3961 4.18129e-17)
(-1.12001 4.41944 4.13759e-17)
(-0.465568 4.44852 0)
(0.15056 4.4841 -2.02483e-17)
(0.691516 4.49354 -2.00566e-17)
(1.20066 4.49452 0)
(1.66287 4.49029 -3.93865e-17)
(2.13196 4.48289 0)
(2.57062 4.48966 1.94221e-17)
(2.99871 4.51611 0)
(3.35388 4.55039 0)
(3.64605 4.52358 -3.84098e-17)
(3.8844 4.37954 0)
(4.29151 4.18558 1.90525e-17)
(4.74762 4.02722 0)
(5.08135 3.8955 0)
(5.44831 3.95258 1.88782e-17)
(5.9016 3.98089 1.88837e-17)
(6.00437 3.69834 0)
(6.24728 3.35889 -1.84827e-17)
(6.86983 3.42031 0)
(7.33995 3.37792 1.86328e-17)
(7.43836 3.13295 3.80822e-17)
(7.64424 2.9277 0)
(7.66753 2.96656 0)
(7.29776 3.19491 0)
(6.53154 3.446 0)
(5.55472 3.47336 3.83432e-17)
(4.46611 3.73202 1.14261e-16)
(3.34556 3.46783 0)
(1.64118 2.95841 0)
(1.59704 2.33564 0)
(0.418435 2.36713 -3.62973e-17)
(1.31618 1.49009 0)
(-1.57206 1.95642 0)
(-0.876239 1.37419 7.00861e-17)
(-2.74294 1.1578 3.43842e-17)
(-1.64578 1.30683 3.50313e-17)
(-4.13346 0.771994 0)
(-3.59156 0.661964 0)
(-5.20757 0.357327 3.3931e-17)
(-5.13966 0.336891 -3.37407e-17)
(-6.16867 0.186678 0)
(-6.65784 0.36709 0)
(-7.17341 0.189411 -3.27554e-17)
(-7.92625 0.469116 9.77127e-17)
(-7.86642 0.162791 0)
(-8.3552 0.199832 0)
(-7.69894 -0.057709 3.18968e-17)
(-7.67748 -0.0632955 0)
(-6.84819 -0.154912 6.33153e-17)
(-6.42632 -0.190145 -3.15043e-17)
(-5.30591 -0.318589 0)
(-3.62924 -0.274122 3.08584e-17)
(-1.8875 -0.00384466 6.04869e-17)
(-0.872355 0.418437 0)
(-0.328412 0.780952 0)
(-0.326006 1.11476 -2.8917e-17)
(-0.180915 1.16778 0)
(-0.45292 1.26947 5.68458e-17)
(-0.553774 1.28593 0)
(-1.11714 1.41883 0)
(-1.37058 1.40721 0)
(-1.44671 1.42434 0)
(-1.40221 1.37155 -2.63223e-17)
(-0.481533 1.26822 -2.61426e-17)
(0.392683 1.49113 0)
(0.639325 1.45849 0)
(2.05146 1.60277 0)
(1.30203 2.44419 2.67294e-17)
(-0.207656 2.4368 0)
(0.381085 2.25282 -5.49191e-17)
(2.33058 2.67219 5.27341e-17)
(1.97775 2.82019 5.13617e-17)
(3.99955 1.67772 4.79921e-17)
(7.39466 1.61837 4.7609e-17)
(9.04406 2.36244 4.84418e-17)
(11.4176 2.5261 0)
(0.00732569 -0.517337 0)
(-0.223697 0.413137 0)
(-0.712024 0.283197 2.21757e-17)
(-1.3128 -0.228807 2.29119e-17)
(-1.81417 -0.776249 -2.3485e-17)
(-2.16501 -1.37341 -2.36667e-17)
(-2.34315 -1.94765 5.3638e-20)
(-2.40391 -2.32615 0)
(-2.46223 -2.4104 0)
(-2.50561 -2.3268 0)
(-2.63983 -2.1948 0)
(-2.79368 -2.07046 0)
(-2.96638 -1.9812 6.81661e-17)
(-3.14247 -1.94568 0)
(-3.31775 -1.94367 -2.22424e-17)
(-3.48357 -1.95572 -2.20138e-17)
(-3.63343 -2.03292 0)
(-3.75424 -2.11437 0)
(-3.85707 -2.21774 0)
(-3.93283 -2.34517 0)
(-3.95377 -2.49273 -2.09152e-17)
(-3.92021 -2.60322 0)
(-3.80905 -2.70227 2.05753e-17)
(-3.70048 -2.80298 0)
(-3.58127 -2.83406 0)
(-3.44459 -2.79419 0)
(-3.35246 -2.80448 3.99827e-17)
(-3.22262 -2.75354 0)
(-3.07954 -2.6976 -1.97099e-17)
(-2.99185 -2.73146 3.92241e-17)
(-2.80784 -2.71759 0)
(-2.57662 -2.66704 0)
(-2.40614 -2.7332 0)
(-2.10157 -2.545 -1.90925e-17)
(-1.92017 -2.45112 -1.90369e-17)
(-1.67599 -2.32008 0)
(-1.43189 -2.0388 0)
(-1.10899 -1.7795 3.73647e-17)
(-0.885101 -1.39266 3.69966e-17)
(-0.661734 -0.979422 -3.68889e-17)
(-0.604254 -0.457972 0)
(-0.486395 0.0455771 0)
(-0.606774 0.638944 0)
(-0.801149 1.21281 0)
(-1.11303 1.59561 3.56861e-17)
(-1.73356 1.89696 3.552e-17)
(-2.53741 2.06451 -3.54671e-17)
(-3.29398 1.97871 0)
(-3.93738 2.03636 0)
(-4.73743 2.37965 0)
(-5.61554 2.36973 0)
(-6.2837 2.06146 3.42253e-17)
(-6.5195 2.04709 0)
(-6.62031 2.03555 0)
(-6.70635 2.01747 3.23537e-17)
(-6.9682 2.30753 3.23016e-17)
(-7.18417 1.54621 0)
(-6.84007 0.679331 -6.43484e-17)
(-7.44389 2.21456 3.1891e-17)
(-8.06299 3.42076 -3.18591e-17)
(-7.59356 3.41586 0)
(-8.70773 5.45438 0)
(-9.97754 6.02629 0)
(-10.1461 3.50335 0)
(-11.6262 3.42708 -3.01062e-17)
(-14.1407 5.60177 -5.87746e-17)
(-16.329 7.14449 -2.9176e-17)
(-17.8293 7.86443 2.89368e-17)
(-18.9356 8.32176 0)
(-19.753 8.63308 -5.69236e-17)
(-20.3744 8.7706 -5.6729e-17)
(-20.7935 8.73952 -5.6618e-17)
(-21.033 8.6734 5.65004e-17)
(-21.1857 8.54947 0)
(-21.1766 8.44211 8.42405e-17)
(-21.1126 8.34339 0)
(-21.0393 8.2472 -2.77143e-17)
(-20.8791 8.15075 -2.77873e-17)
(-20.6445 8.04158 0)
(-20.3302 7.94646 0)
(-19.9066 7.89427 -5.44763e-17)
(-19.4265 7.88498 0)
(-18.9095 7.83697 -5.3846e-17)
(-18.3631 7.73083 0)
(-17.6989 7.59175 5.32358e-17)
(-16.9474 7.52075 1.05983e-16)
(-16.1621 7.50167 0)
(-15.3181 7.38405 0)
(-14.3845 7.33621 0)
(-13.3515 7.34501 5.15164e-17)
(-12.4234 7.23571 0)
(-11.3219 7.40569 5.07495e-17)
(-10.4376 7.41043 0)
(-9.25965 7.38341 0)
(-8.51467 7.53188 -9.90383e-17)
(-7.23401 7.41179 0)
(-6.3941 7.50404 -4.87102e-17)
(-5.32451 7.58127 0)
(-4.44298 7.57215 -4.76071e-17)
(-3.36396 7.71819 0)
(-2.64115 7.76775 0)
(-1.73488 7.74364 0)
(-0.96698 7.82304 -1.36733e-16)
(-0.161938 7.79446 -4.50323e-17)
(0.513612 7.83421 0)
(1.18237 7.81087 0)
(1.75577 7.79572 0)
(2.29056 7.74734 0)
(2.718 7.70587 4.14166e-17)
(3.13106 7.60414 -8.16849e-17)
(3.46429 7.50296 -4.00833e-17)
(3.83444 7.43588 7.85735e-17)
(4.07357 7.40523 7.71828e-17)
(4.33827 7.37585 3.82366e-17)
(4.5001 7.18344 0)
(4.73092 6.80303 7.59387e-17)
(5.11999 6.78815 0)
(5.55462 6.8301 -7.54338e-17)
(5.57171 6.47689 -3.72056e-17)
(5.8972 6.45108 0)
(6.33697 6.44197 7.32664e-17)
(6.33863 5.79368 3.64841e-17)
(6.40794 5.42271 0)
(7.15748 5.55354 3.57391e-17)
(7.49994 5.51543 -1.11365e-16)
(7.13034 5.18356 0)
(6.7364 5.47681 0)
(6.28931 5.83138 0)
(5.49511 6.13911 0)
(4.80463 5.98039 -7.64555e-17)
(3.50458 5.75951 -7.52593e-17)
(2.82629 5.50018 0)
(1.77392 5.09933 0)
(2.04043 3.46738 0)
(0.00494852 3.06321 0)
(3.06932 3.0092 0)
(-1.76303 3.59459 0)
(0.823512 2.14167 -7.04305e-17)
(-3.10249 1.49747 1.32622e-19)
(-0.517807 1.56498 0)
(-3.57117 1.46024 0)
(-2.22123 1.03512 -6.76555e-17)
(-3.98379 0.883631 0)
(-3.72197 0.749258 6.73226e-17)
(-4.62814 0.557541 6.70211e-17)
(-5.07006 0.65235 0)
(-5.39915 0.42661 0)
(-6.57208 0.723468 -6.54177e-17)
(-6.22929 0.289498 -1.30486e-16)
(-7.03323 0.300239 0)
(-6.05977 -0.14057 0)
(-6.12959 0.00986302 0)
(-5.37758 -0.0843934 -6.43009e-17)
(-5.58381 -0.0641258 6.45841e-17)
(-4.96706 -0.449303 0)
(-3.38171 -0.699926 1.30617e-16)
(-0.945624 -0.0482421 6.38466e-17)
(0.762246 0.649762 -1.23278e-16)
(1.80903 1.24804 0)
(2.00531 1.51708 0)
(2.74211 1.59077 -1.13427e-16)
(2.73801 2.07933 -5.61491e-17)
(2.56866 2.36097 0)
(1.88694 2.84958 0)
(1.43721 2.93859 0)
(1.18825 2.86163 0)
(0.749096 2.57708 -1.0716e-16)
(1.02187 2.26894 0)
(2.20277 2.77214 0)
(2.3657 2.81193 0)
(2.47958 3.37551 0)
(0.548663 5.13392 0)
(-1.07184 4.90269 0)
(-1.69042 3.7632 -1.10948e-16)
(1.25498 4.01239 0)
(1.17718 4.44222 0)
(4.05331 2.33669 -1.93273e-16)
(8.39921 2.38649 9.35428e-17)
(10.4583 3.54979 -9.14855e-17)
(13.6746 4.11216 9.55491e-17)
(0.00763858 -1.47566 0)
(0.0228001 -0.17326 -4.56258e-17)
(-0.127909 0.259795 0)
(-0.565695 -0.0646828 -2.2036e-17)
(-1.03439 -0.757179 0)
(-1.46688 -1.62063 0)
(-1.70981 -2.51551 2.33969e-17)
(-1.85313 -3.12426 0)
(-2.03122 -3.21756 0)
(-2.23206 -3.04259 0)
(-2.49772 -2.82337 0)
(-2.7601 -2.65309 0)
(-3.04315 -2.51662 -8.96604e-17)
(-3.28886 -2.42985 -4.4285e-17)
(-3.51681 -2.46525 4.37109e-17)
(-3.75295 -2.5508 0)
(-4.06215 -2.65095 0)
(-4.39597 -2.75308 0)
(-4.68359 -2.86519 0)
(-4.8871 -2.99728 0)
(-4.98658 -3.21365 -4.15286e-17)
(-4.97714 -3.48764 -4.13023e-17)
(-4.87051 -3.67528 4.1048e-17)
(-4.76663 -3.79048 -4.08276e-17)
(-4.63306 -3.81561 0)
(-4.53659 -3.77977 0)
(-4.5076 -3.7288 -4.00244e-17)
(-4.44449 -3.66828 0)
(-4.35081 -3.6994 0)
(-4.25103 -3.75541 -3.93126e-17)
(-4.11931 -3.84729 -3.90816e-17)
(-3.9171 -3.86831 -3.88811e-17)
(-3.80789 -3.91671 0)
(-3.53074 -3.61461 0)
(-3.23644 -3.55926 3.83097e-17)
(-3.06225 -3.46848 0)
(-2.58401 -3.39419 0)
(-2.28268 -3.05297 -3.76219e-17)
(-1.99474 -2.51706 3.72526e-17)
(-1.67296 -2.03453 -3.70654e-17)
(-1.47089 -1.32809 0)
(-1.02416 -0.724093 0)
(-0.796283 -0.0660461 -7.26353e-17)
(-0.844514 0.88253 0)
(-0.822 1.63069 -7.07394e-17)
(-1.03517 2.31696 -1.05956e-16)
(-1.59381 2.96463 1.05677e-16)
(-2.41127 3.11019 -6.98321e-17)
(-3.31427 2.85809 0)
(-4.10914 2.76061 0)
(-4.64631 2.65633 -6.84095e-17)
(-5.07721 2.44175 -3.4193e-17)
(-5.40617 2.43181 0)
(-5.71292 2.64051 0)
(-5.9756 2.71453 -3.33236e-17)
(-5.85302 2.48951 -6.6169e-17)
(-5.48805 1.94697 0)
(-5.70713 2.20933 6.47227e-17)
(-6.27455 3.20062 -6.39562e-17)
(-6.45692 3.9891 6.38021e-17)
(-7.46935 6.05372 0)
(-9.02419 8.37984 0)
(-9.59849 7.97993 0)
(-11.2954 7.47241 0)
(-14.2629 8.74973 0)
(-16.4832 9.9242 5.90896e-17)
(-18.0744 10.6343 0)
(-19.1391 11.0464 0)
(-19.8513 11.2656 0)
(-20.3063 11.3288 1.16513e-16)
(-20.6091 11.2977 5.82037e-17)
(-20.688 11.1893 5.79477e-17)
(-20.6416 11.0051 -1.14945e-16)
(-20.5421 10.8686 5.69231e-17)
(-20.3594 10.7768 -5.67308e-17)
(-20.1756 10.715 0)
(-19.9941 10.6759 5.59552e-17)
(-19.8208 10.5678 0)
(-19.5738 10.4261 0)
(-19.3028 10.2639 0)
(-18.9184 10.2096 1.08145e-16)
(-18.4867 10.2294 -5.36395e-17)
(-17.9687 10.1567 -5.30539e-17)
(-17.4303 9.99565 -1.05751e-16)
(-16.7965 9.77485 -1.57763e-16)
(-16.0734 9.64674 -5.23565e-17)
(-15.3371 9.61969 0)
(-14.5121 9.50133 -1.03452e-16)
(-13.6607 9.38953 0)
(-12.6082 9.41094 -1.53561e-16)
(-11.6393 9.28723 0)
(-10.5234 9.45915 -1.51358e-16)
(-9.41764 9.52267 0)
(-8.27128 9.56397 0)
(-7.60596 9.76675 -4.92958e-17)
(-6.35978 9.58588 0)
(-5.48678 9.76745 4.89937e-17)
(-4.35121 9.82577 9.70439e-17)
(-3.50194 9.89674 4.84103e-17)
(-2.39031 10.1457 9.59398e-17)
(-1.68248 10.3488 -9.52386e-17)
(-0.77739 10.302 -9.47497e-17)
(-0.00820597 10.5252 1.88537e-16)
(0.863245 10.514 0)
(1.52981 10.7316 0)
(2.27647 10.8203 9.243e-17)
(2.86681 10.9279 -9.13628e-17)
(3.50396 10.9456 0)
(3.96951 10.9601 0)
(4.49606 10.9187 8.87054e-17)
(4.88242 10.8909 0)
(5.31019 10.7201 -5.26584e-20)
(5.50807 10.6947 -3.98994e-20)
(5.75826 10.5961 8.18222e-17)
(5.97067 10.3305 0)
(6.25623 9.98383 -8.12964e-17)
(6.14593 9.35403 0)
(6.25637 9.18085 7.61272e-17)
(6.27865 9.35819 0)
(6.11416 8.85263 0)
(6.44069 8.69634 -7.24638e-17)
(6.98211 8.63035 -7.3204e-17)
(6.6423 7.8778 0)
(6.76269 7.32455 -7.04642e-17)
(7.14444 7.84515 1.46624e-16)
(7.45335 8.15918 0)
(6.72571 8.03518 0)
(6.27124 8.0133 0)
(5.58142 8.21524 0)
(5.26895 8.03 7.5155e-17)
(4.45007 8.32824 -1.50152e-16)
(3.5152 7.46355 0)
(2.28507 6.10428 0)
(3.6335 5.28742 0)
(0.518828 4.07779 0)
(2.69013 3.79907 0)
(-1.28359 4.67598 0)
(3.20152 3.05867 0)
(-1.62033 2.80023 7.03876e-17)
(0.619648 2.21623 0)
(-2.34231 2.0456 0)
(-1.31827 1.14068 6.86019e-17)
(-2.90105 0.848964 0)
(-2.71534 0.512886 0)
(-3.09575 0.314398 -6.61906e-17)
(-3.61038 0.521568 0)
(-3.22968 0.4199 0)
(-4.26401 0.855633 1.29418e-16)
(-3.98849 0.354049 1.29845e-16)
(-5.28646 0.21781 1.29367e-16)
(-4.74197 -0.478168 0)
(-4.26901 -0.205533 1.26693e-16)
(-2.91067 -0.0490699 0)
(-3.08237 0.00227354 -1.26867e-16)
(-3.49984 -0.798485 0)
(-3.40569 -1.58486 -1.3332e-16)
(-0.868815 -0.939628 2.70385e-19)
(1.32023 0.394235 1.28409e-16)
(3.14379 1.57922 -1.24169e-16)
(3.15206 2.31404 1.22378e-16)