/*--------------------------------*- C++ -*----------------------------------*\
| =========                 |                                                 |
| \\      /  F ield         | OpenFOAM: The Open Source CFD Toolbox           |
|  \\    /   O peration     | Version:  dev                                   |
|   \\  /    A nd           | Web:      http://www.openfoam.org               |
|    \\/     M anipulation  |                                                 |
\*---------------------------------------------------------------------------*/
FoamFile
{
    version     2.0;
    format      ascii;
    class       volSymmTensorField;
    object      UPrime2Mean;
    location    "9.125";
}
// * * * * * * * * * * * * * * * * * * * * * * * * * * * * * * * * * * * * * //

dimensions      [0 2 -2 0 0 0 0];

internalField   nonuniform List<symmTensor> 
12225
(
(0.329195 0.0192815 0 0.0693078 0 0)
(2.98534 0.0797222 0 0.0782366 0 0)
(7.87803 0.112363 0 0.0769384 0 0)
(14.5297 0.14829 0 0.0756116 0 0)
(22.6954 0.133117 0 0.0765564 0 0)
(32.0559 0.201187 0 0.0747083 0 0)
(42.3643 0.0961618 0 0.0766486 0 0)
(53.5033 0.200594 0 0.0738847 0 0)
(65.5919 -0.0281206 0 0.0776429 0 0)
(78.1831 0.126018 0 0.0736496 0 0)
(92.9236 -0.305741 0 0.0813355 0 0)
(107.259 -0.115178 0 0.0770164 0 0)
(127.859 -0.671568 0 0.0863224 0 0)
(145.562 -1.27648 0 0.134723 0 0)
(185.855 -1.40852 0 0.116371 0 0)
(198.441 -0.392809 0 2.39154 0 0)
(272.199 -33.5213 0 5.80652 0 0)
(575.614 -52.8946 0 18.8071 0 0)
(0.377332 0.0568448 0 0.689397 0 0)
(3.15511 0.252329 0 0.732722 0 0)
(8.40816 0.362263 0 0.714565 0 0)
(15.4679 0.485603 0 0.707051 0 0)
(24.1887 0.453399 0 0.703906 0 0)
(34.4424 0.633171 0 0.683725 0 0)
(45.5058 0.296781 0 0.692508 0 0)
(58.4531 0.609814 0 0.659168 0 0)
(71.4393 -0.134006 0 0.682998 0 0)
(87.1025 0.284129 0 0.646316 0 0)
(102.731 -1.06316 0 0.711564 0 0)
(121.36 -0.763631 0 0.655724 0 0)
(142.774 -2.54037 0 1.06881 0 0)
(166.236 -4.48816 0 1.04665 0 0)
(199.661 -0.927356 0 3.09877 0 0)
(274.241 -9.97519 0 6.59917 0 0)
(280.918 -20.8172 0 8.73627 0 0)
(799.496 -185.093 0 64.6772 0 0)
(0.504964 0.0584136 0 2.14192 0 0)
(3.06317 0.424813 0 2.20389 0 0)
(8.46329 0.570737 0 2.15277 0 0)
(14.8472 0.85235 0 2.14425 0 0)
(24.267 0.865231 0 2.12112 0 0)
(33.1365 1.05385 0 2.08389 0 0)
(45.2531 0.757612 0 2.07961 0 0)
(56.1754 0.887817 0 2.00878 0 0)
(69.6558 0.174428 0 2.05287 0 0)
(83.4045 0.0196711 0 1.96042 0 0)
(98.1405 -1.11979 0 2.12357 0 0)
(115.6 -2.44311 0 2.09517 0 0)
(138.551 -3.59113 0 2.62268 0 0)
(154.796 -7.1928 0 2.83084 0 0)
(210.897 -12.9959 0 6.11484 0 0)
(223.277 -7.88994 0 6.37001 0 0)
(352.82 -62.22 0 31.0698 0 0)
(534.228 -192.331 0 98.1445 0 0)
(1.02992 0.0924597 0 4.67339 0 0)
(3.54897 0.619764 0 4.77003 0 0)
(9.06675 0.816188 0 4.64574 0 0)
(15.0615 1.15064 0 4.60498 0 0)
(24.6281 1.31396 0 4.56062 0 0)
(32.9708 1.35112 0 4.48625 0 0)
(44.9879 1.26345 0 4.45118 0 0)
(55.1437 0.975643 0 4.35255 0 0)
(68.5713 0.479197 0 4.3842 0 0)
(80.6757 -0.278986 0 4.26033 0 0)
(95.9926 -1.32574 0 4.50943 0 0)
(110.46 -3.33552 0 4.37417 0 0)
(131.414 -4.78685 0 5.30279 0 0)
(152.169 -10.9596 0 5.60732 0 0)
(187.781 -11.4219 0 9.28167 0 0)
(238.275 -28.8373 0 16.8149 0 0)
(291.263 -58.8558 0 32.6633 0 0)
(414.643 -178.208 0 107.781 0 0)
(1.86392 0.365256 0 8.52808 0 0)
(5.00866 0.720383 0 8.72971 0 0)
(9.43342 1.14067 0 8.47837 0 0)
(16.2367 1.29533 0 8.37522 0 0)
(24.6386 1.7022 0 8.28547 0 0)
(33.9335 1.50392 0 8.15035 0 0)
(44.8001 1.60038 0 8.04948 0 0)
(55.4986 0.99564 0 7.91726 0 0)
(68.3828 0.604632 0 7.864 0 0)
(80.0845 -0.589179 0 7.76582 0 0)
(95.3254 -1.7724 0 7.96701 0 0)
(108.506 -4.21971 0 7.91375 0 0)
(128.036 -6.86931 0 9.029 0 0)
(145.152 -12.2773 0 9.27038 0 0)
(173.875 -19.1832 0 14.5851 0 0)
(217.803 -25.9325 0 17.2095 0 0)
(233.504 -55.5217 0 46.2669 0 0)
(326.541 -171.654 0 138.613 0 0)
(2.56098 0.750853 0 14.0487 0 0)
(6.32293 0.80691 0 14.4007 0 0)
(9.29424 1.5407 0 13.9707 0 0)
(17.0908 1.59523 0 13.7758 0 0)
(24.1276 2.12214 0 13.6009 0 0)
(34.2528 1.93843 0 13.3687 0 0)
(43.9533 1.99394 0 13.1632 0 0)
(55.1472 1.41893 0 12.922 0 0)
(67.2936 0.899395 0 12.7848 0 0)
(78.8725 -0.379987 0 12.5833 0 0)
(94.3765 -1.73087 0 12.7826 0 0)
(105.778 -4.30317 0 12.6905 0 0)
(128.046 -7.25628 0 13.9907 0 0)
(137.869 -13.1426 0 14.6688 0 0)
(170.876 -21.821 0 21.2445 0 0)
(191.393 -33.0134 0 24.5955 0 0)
(210.971 -55.8627 0 51.5694 0 0)
(265.539 -145.591 0 130.609 0 0)
(2.24187 0.721875 0 21.5459 0 0)
(5.53946 0.940525 0 22.1621 0 0)
(9.19456 1.76445 0 21.3876 0 0)
(16.3329 2.07833 0 21.1996 0 0)
(23.9631 2.45165 0 20.8007 0 0)
(33.35 2.5448 0 20.5674 0 0)
(43.5937 2.2776 0 20.0985 0 0)
(54.0255 1.93188 0 19.8682 0 0)
(66.4557 0.902653 0 19.4493 0 0)
(77.3258 -0.212405 0 19.2964 0 0)
(92.4726 -2.36336 0 19.2349 0 0)
(103.45 -4.81414 0 19.2775 0 0)
(123.577 -8.96874 0 20.4841 0 0)
(133.86 -14.2467 0 21.4617 0 0)
(161.447 -24.3821 0 28.5166 0 0)
(169.282 -32.3843 0 32.054 0 0)
(203.303 -58.9667 0 56.8582 0 0)
(190.132 -108.702 0 114.114 0 0)
(1.42067 0.598742 0 29.773 0 0)
(4.31599 1.13421 0 30.6589 0 0)
(8.57639 1.92468 0 29.511 0 0)
(15.2435 2.47366 0 29.3397 0 0)
(23.195 2.77909 0 28.6939 0 0)
(32.2511 2.96549 0 28.4328 0 0)
(42.3998 2.60147 0 27.6803 0 0)
(52.7652 2.19501 0 27.3996 0 0)
(64.3972 1.01252 0 26.6747 0 0)
(75.5794 -0.357004 0 26.5092 0 0)
(88.6011 -2.74419 0 26.124 0 0)
(100.384 -5.72541 0 26.348 0 0)
(115.481 -10.3092 0 27.101 0 0)
(128.017 -15.7843 0 28.6148 0 0)
(144.569 -26.4702 0 33.9215 0 0)
(151.945 -33.4333 0 37.4849 0 0)
(180.241 -54.8502 0 53.1787 0 0)
(139.499 -71.2485 0 83.6822 0 0)
(1.00162 0.521147 0 38.5495 0 0)
(3.77041 1.28727 0 39.7447 0 0)
(8.17071 2.03626 0 38.2063 0 0)
(14.7183 2.78054 0 38.0652 0 0)
(22.6361 3.0072 0 37.1545 0 0)
(31.5708 3.31784 0 36.8795 0 0)
(41.4807 2.80802 0 35.8273 0 0)
(51.7504 2.47694 0 35.5087 0 0)
(62.796 1.04349 0 34.4984 0 0)
(73.8091 -0.275379 0 34.2983 0 0)
(85.6135 -3.03821 0 33.6654 0 0)
(96.9715 -5.89427 0 33.9246 0 0)
(109.281 -10.9362 0 34.43 0 0)
(121.157 -16.0238 0 36.1485 0 0)
(131.145 -25.5414 0 40.0238 0 0)
(138.071 -33.1801 0 44.7546 0 0)
(149.897 -47.2791 0 52.4684 0 0)
(123.139 -58.6975 0 73.1193 0 0)
(0.606951 0.484467 0 49.743 0 0)
(3.22896 1.44603 0 51.3323 0 0)
(7.73456 2.18709 0 49.2342 0 0)
(14.1892 3.03712 0 49.147 0 0)
(21.9787 3.27505 0 47.8568 0 0)
(30.8332 3.58169 0 47.5775 0 0)
(40.451 3.06782 0 46.1149 0 0)
(50.5811 2.64048 0 45.7461 0 0)
(61.0968 1.16623 0 44.3251 0 0)
(71.7598 -0.287401 0 44.0809 0 0)
(82.6321 -3.13508 0 43.0346 0 0)
(93.1703 -6.0295 0 43.3525 0 0)
(103.799 -11.0816 0 43.3493 0 0)
(113.661 -15.8297 0 45.2046 0 0)
(121.259 -24.4845 0 47.702 0 0)
(125.698 -30.5427 0 51.971 0 0)
(129.025 -40.6805 0 56.4851 0 0)
(115.952 -48.3465 0 69.0427 0 0)
(0.432501 0.516264 0 63.9461 0 0)
(2.97611 1.62809 0 66.0027 0 0)
(7.4654 2.38431 0 63.3089 0 0)
(13.8377 3.3119 0 63.1974 0 0)
(21.4797 3.57147 0 61.5623 0 0)
(30.1725 3.86168 0 61.1479 0 0)
(39.5247 3.35892 0 59.3383 0 0)
(49.3568 2.82184 0 58.7432 0 0)
(59.4186 1.37324 0 57.0205 0 0)
(69.515 -0.262705 0 56.5021 0 0)
(79.6017 -2.97603 0 55.1969 0 0)
(89.1305 -6.07391 0 55.2514 0 0)
(98.4388 -10.543 0 54.902 0 0)
(106.311 -15.4023 0 56.4477 0 0)
(112.469 -22.1121 0 57.8865 0 0)
(115.003 -28.0237 0 61.6142 0 0)
(115.946 -35.1635 0 64.575 0 0)
(109.504 -40.7569 0 71.4673 0 0)
(0.355858 0.540776 0 81.45 0 0)
(2.82975 1.74568 0 84.1374 0 0)
(7.25772 2.55576 0 80.6673 0 0)
(13.5084 3.50283 0 80.5583 0 0)
(20.9767 3.81057 0 78.4704 0 0)
(29.4493 4.03875 0 77.9172 0 0)
(38.4997 3.56279 0 75.6263 0 0)
(47.962 2.92204 0 74.801 0 0)
(57.5073 1.48431 0 72.607 0 0)
(66.9925 -0.218613 0 71.8187 0 0)
(76.1972 -2.86669 0 70.0608 0 0)
(84.7761 -5.84972 0 69.7998 0 0)
(92.6746 -9.95117 0 68.9611 0 0)
(99.099 -14.2766 0 69.9122 0 0)
(103.808 -19.7189 0 70.5508 0 0)
(105.751 -24.6286 0 73.0521 0 0)
(105.906 -29.7895 0 74.9908 0 0)
(101.665 -33.2708 0 78.6416 0 0)
(0.329097 0.569248 0 102.541 0 0)
(2.73463 1.80735 0 105.753 0 0)
(7.06482 2.68375 0 101.725 0 0)
(13.1474 3.58436 0 101.255 0 0)
(20.4204 3.9346 0 98.9896 0 0)
(28.5981 4.05609 0 97.9096 0 0)
(37.3242 3.61685 0 95.3931 0 0)
(46.3168 2.83587 0 93.9427 0 0)
(55.3373 1.4772 0 91.504 0 0)
(64.1102 -0.338169 0 90.0514 0 0)
(72.4814 -2.75418 0 88.022 0 0)
(80.0645 -5.68293 0 87.0455 0 0)
(86.7793 -9.19033 0 85.8305 0 0)
(92.0356 -13.0765 0 85.8348 0 0)
(95.7335 -17.2911 0 85.7813 0 0)
(97.3171 -21.3548 0 86.9194 0 0)
(97.4194 -25.1963 0 87.9433 0 0)
(94.6179 -27.6489 0 89.5435 0 0)
(0.313531 0.573482 0 126.55 0 0)
(2.63938 1.77444 0 130.483 0 0)
(6.84409 2.66802 0 125.77 0 0)
(12.7233 3.4639 0 124.96 0 0)
(19.7543 3.79213 0 122.427 0 0)
(27.5983 3.80676 0 120.85 0 0)
(35.9327 3.33407 0 117.965 0 0)
(44.4348 2.48825 0 115.93 0 0)
(52.864 1.13476 0 113.067 0 0)
(60.9503 -0.626895 0 110.974 0 0)
(68.4922 -2.89296 0 108.481 0 0)
(75.2094 -5.52276 0 106.751 0 0)
(80.9418 -8.57556 0 104.98 0 0)
(85.387 -11.7965 0 103.972 0 0)
(88.4294 -15.1567 0 103.137 0 0)
(89.8657 -18.3219 0 102.959 0 0)
(90.168 -21.2387 0 102.969 0 0)
(88.2066 -22.8836 0 103.117 0 0)
(0.299142 0.524961 0 151.982 0 0)
(2.53145 1.58193 0 156.488 0 0)
(6.58001 2.3777 0 151.355 0 0)
(12.2256 2.98817 0 149.916 0 0)
(18.9616 3.21215 0 147.355 0 0)
(26.4344 3.0708 0 145.041 0 0)
(34.3282 2.53127 0 141.95 0 0)
(42.3106 1.60031 0 139.142 0 0)
(50.1405 0.272332 0 135.94 0 0)
(57.553 -1.43093 0 133.061 0 0)
(64.3598 -3.49091 0 130.106 0 0)
(70.3331 -5.82658 0 127.53 0 0)
(75.3425 -8.4014 0 125.124 0 0)
(79.2258 -11.0514 0 123.119 0 0)
(81.9215 -13.6873 0 121.401 0 0)
(83.338 -16.1501 0 120.058 0 0)
(83.9202 -18.347 0 118.965 0 0)
(82.714 -19.3914 0 117.85 0 0)
(0.28383 0.394175 0 175.219 0 0)
(2.41305 1.14538 0 180.424 0 0)
(6.27987 1.67026 0 174.812 0 0)
(11.6641 2.00266 0 172.929 0 0)
(18.0665 2.00018 0 170.246 0 0)
(25.1411 1.66388 0 167.393 0 0)
(32.5674 0.98402 0 164.004 0 0)
(40.0299 -0.0239629 0 160.605 0 0)
(47.2817 -1.35713 0 156.985 0 0)
(54.0896 -2.96765 0 153.468 0 0)
(60.2758 -4.83443 0 149.978 0 0)
(65.6763 -6.86358 0 146.683 0 0)
(70.1863 -9.01612 0 143.583 0 0)
(73.7328 -11.1623 0 140.724 0 0)
(76.2863 -13.2245 0 138.13 0 0)
(77.811 -15.1226 0 135.801 0 0)
(78.6925 -16.7689 0 133.685 0 0)
(78.1443 -17.3651 0 131.483 0 0)
(0.268627 0.156218 0 190.34 0 0)
(2.29223 0.390454 0 196.018 0 0)
(5.96348 0.488082 0 190.119 0 0)
(11.0688 0.409435 0 187.976 0 0)
(17.1212 0.0728727 0 185.228 0 0)
(23.7883 -0.535257 0 182.056 0 0)
(30.7532 -1.40398 0 178.475 0 0)
(37.7204 -2.52559 0 174.719 0 0)
(44.4542 -3.87445 0 170.805 0 0)
(50.7485 -5.41344 0 166.883 0 0)
(56.4505 -7.09914 0 162.988 0 0)
(61.4387 -8.86646 0 159.205 0 0)
(65.6377 -10.661 0 155.566 0 0)
(69.0182 -12.4048 0 152.101 0 0)
(71.573 -14.0219 0 148.832 0 0)
(73.291 -15.491 0 145.785 0 0)
(74.4852 -16.7262 0 142.889 0 0)
(74.5297 -17.0459 0 139.891 0 0)
(0.258977 -0.142865 0 190.312 0 0)
(2.19477 -0.535459 0 195.949 0 0)
(5.68699 -0.939557 0 190.114 0 0)
(10.5363 -1.49526 0 187.961 0 0)
(16.2733 -2.21601 0 185.256 0 0)
(22.5805 -3.11855 0 182.09 0 0)
(29.1501 -4.19198 0 178.535 0 0)
(35.7096 -5.43061 0 174.782 0 0)
(42.0365 -6.80394 0 170.855 0 0)
(47.9533 -8.28342 0 166.9 0 0)
(53.324 -9.82227 0 162.923 0 0)
(58.0604 -11.3781 0 159.035 0 0)
(62.1013 -12.8979 0 155.22 0 0)
(65.4408 -14.3384 0 151.553 0 0)
(68.0776 -15.6345 0 148.009 0 0)
(70.0172 -16.7932 0 144.668 0 0)
(71.4929 -17.7393 0 141.417 0 0)
(72.0264 -17.943 0 138.084 0 0)
(0.255828 -0.3968 0 174.485 0 0)
(2.13566 -1.30788 0 179.441 0 0)
(5.49643 -2.13017 0 174.108 0 0)
(10.156 -3.07931 0 172.115 0 0)
(15.6597 -4.10825 0 169.632 0 0)
(21.703 -5.23771 0 166.741 0 0)
(27.9889 -6.46062 0 163.488 0 0)
(34.2631 -7.77389 0 160.063 0 0)
(40.3156 -9.14909 0 156.456 0 0)
(45.9899 -10.5664 0 152.825 0 0)
(51.161 -11.9837 0 149.139 0 0)
(55.7606 -13.3747 0 145.53 0 0)
(59.7354 -14.6945 0 141.945 0 0)
(63.0895 -15.9199 0 138.491 0 0)
(65.821 -16.9994 0 135.105 0 0)
(67.9472 -17.9483 0 131.902 0 0)
(69.6374 -18.7054 0 128.744 0 0)
(70.534 -18.8922 0 125.543 0 0)
(0.257296 -0.545991 0 149.034 0 0)
(2.10795 -1.74911 0 152.995 0 0)
(5.38217 -2.82539 0 148.456 0 0)
(9.91422 -4.00948 0 146.738 0 0)
(15.2614 -5.21368 0 144.616 0 0)
(21.128 -6.46298 0 142.162 0 0)
(27.2263 -7.7494 0 139.397 0 0)
(33.3147 -9.07478 0 136.49 0 0)
(39.1933 -10.4118 0 133.417 0 0)
(44.7187 -11.7505 0 130.324 0 0)
(49.7756 -13.0526 0 127.166 0 0)
(54.3049 -14.3051 0 124.07 0 0)
(58.2603 -15.4686 0 120.973 0 0)
(61.6473 -16.5341 0 117.983 0 0)
(64.4653 -17.4581 0 115.033 0 0)
(66.7362 -18.2596 0 112.233 0 0)
(68.5852 -18.8882 0 109.459 0 0)
(69.7447 -19.0971 0 106.666 0 0)
(0.260177 -0.601741 0 120.114 0 0)
(2.09909 -1.89117 0 123.086 0 0)
(5.31626 -3.06986 0 119.436 0 0)
(9.76302 -4.34349 0 118.042 0 0)
(15.0054 -5.60224 0 116.335 0 0)
(20.7546 -6.87223 0 114.37 0 0)
(26.7293 -8.1432 0 112.156 0 0)
(32.697 -9.4205 0 109.829 0 0)
(38.4654 -10.6788 0 107.363 0 0)
(43.8993 -11.915 0 104.878 0 0)
(48.8912 -13.0953 0 102.335 0 0)
(53.3865 -14.2153 0 99.8354 0 0)
(57.3441 -15.2405 0 97.3295 0 0)
(60.7688 -16.1708 0 94.9028 0 0)
(63.6607 -16.9694 0 92.5033 0 0)
(66.0448 -17.6558 0 90.2186 0 0)
(68.0159 -18.1892 0 87.9526 0 0)
(69.3741 -18.4242 0 85.6761 0 0)
(0.263115 -0.590895 0 91.9468 0 0)
(2.09878 -1.83123 0 94.0638 0 0)
(5.27859 -2.99855 0 91.2712 0 0)
(9.66856 -4.24952 0 90.1973 0 0)
(14.8406 -5.47021 0 88.8975 0 0)
(20.5111 -6.68305 0 87.4021 0 0)
(26.4042 -7.8776 0 85.7208 0 0)
(32.2933 -9.05886 0 83.9482 0 0)
(37.9916 -10.2062 0 82.0716 0 0)
(43.3694 -11.3182 0 80.1737 0 0)
(48.3247 -12.3681 0 78.232 0 0)
(52.8057 -13.3542 0 76.3165 0 0)
(56.7746 -14.2491 0 74.3975 0 0)
(60.2345 -15.0553 0 72.5332 0 0)
(63.1874 -15.7446 0 70.691 0 0)
(65.6602 -16.3322 0 68.9301 0 0)
(67.7256 -16.7888 0 67.1863 0 0)
(69.2365 -17.0379 0 65.4324 0 0)
(0.266212 -0.537031 0 66.9777 0 0)
(2.10266 -1.65184 0 68.4192 0 0)
(5.25736 -2.7322 0 66.3862 0 0)
(9.60965 -3.88554 0 65.6031 0 0)
(14.7344 -5.00546 0 64.6646 0 0)
(20.3527 -6.10787 0 63.5823 0 0)
(26.1924 -7.18472 0 62.3676 0 0)
(32.0304 -8.23792 0 61.0814 0 0)
(37.6849 -9.25266 0 59.7219 0 0)
(43.0291 -10.2265 0 58.3415 0 0)
(47.9655 -11.1402 0 56.9319 0 0)
(52.4433 -11.9914 0 55.5366 0 0)
(56.4273 -12.7606 0 54.1419 0 0)
(59.9193 -13.4496 0 52.7825 0 0)
(62.9222 -14.0388 0 51.4417 0 0)
(65.4639 -14.5375 0 50.1552 0 0)
(67.6018 -14.9273 0 48.8848 0 0)
(69.2305 -15.1749 0 47.6031 0 0)
(0.268032 -0.463106 0 46.3202 0 0)
(2.10709 -1.41668 0 47.2596 0 0)
(5.24556 -2.36499 0 45.8581 0 0)
(9.57293 -3.37674 0 45.3198 0 0)
(14.6661 -4.35815 0 44.6784 0 0)
(20.2499 -5.31863 0 43.9344 0 0)
(26.055 -6.25318 0 43.1 0 0)
(31.8607 -7.16009 0 42.2123 0 0)
(37.4884 -8.03043 0 41.2764 0 0)
(42.8134 -8.85954 0 40.3228 0 0)
(47.7407 -9.63517 0 39.3524 0 0)
(52.2205 -10.3533 0 38.3893 0 0)
(56.2189 -11.0017 0 37.4294 0 0)
(59.737 -11.5797 0 36.4909 0 0)
(62.7778 -12.0751 0 35.5672 0 0)
(65.3704 -12.4917 0 34.6776 0 0)
(67.5602 -12.8196 0 33.8022 0 0)
(69.2749 -13.0499 0 32.9157 0 0)
(0.269216 -0.383264 0 30.178 0 0)
(2.11067 -1.16527 0 30.7627 0 0)
(5.23888 -1.9593 0 29.852 0 0)
(9.54955 -2.80865 0 29.5047 0 0)
(14.6215 -3.63259 0 29.0924 0 0)
(20.182 -4.43734 0 28.6117 0 0)
(25.9641 -5.21911 0 28.0722 0 0)
(31.7477 -5.97492 0 27.4964 0 0)
(37.3567 -6.69824 0 26.8901 0 0)
(42.6671 -7.38434 0 26.2714 0 0)
(47.586 -8.02467 0 25.6431 0 0)
(52.0632 -8.61512 0 25.0185 0 0)
(56.067 -9.14771 0 24.3972 0 0)
(59.5973 -9.62056 0 23.7882 0 0)
(62.6578 -10.0261 0 23.1898 0 0)
(65.2761 -10.3648 0 22.6118 0 0)
(67.4929 -10.6319 0 22.0445 0 0)
(69.2605 -10.8294 0 21.4686 0 0)
(0.269546 -0.304759 0 18.2237 0 0)
(2.11246 -0.920255 0 18.5681 0 0)
(5.23354 -1.55488 0 18.0171 0 0)
(9.53019 -2.23809 0 17.8111 0 0)
(14.5831 -2.90248 0 17.5679 0 0)
(20.1216 -3.55267 0 17.2833 0 0)
(25.8793 -4.18391 0 16.9629 0 0)
(31.6374 -4.79288 0 16.6199 0 0)
(37.2207 -5.37303 0 16.2579 0 0)
(42.5059 -5.92091 0 15.8878 0 0)
(47.4023 -6.42923 0 15.511 0 0)
(51.8585 -6.89565 0 15.1357 0 0)
(55.8466 -7.31336 0 14.7621 0 0)
(59.364 -7.68207 0 14.3951 0 0)
(62.4193 -7.99598 0 14.0345 0 0)
(65.035 -8.25568 0 13.6853 0 0)
(67.2549 -8.46035 0 13.3432 0 0)
(69.0501 -8.61071 0 12.9961 0 0)
(0.269173 -0.228384 0 9.88862 0 0)
(2.11021 -0.691592 0 10.0723 0 0)
(5.21633 -1.17921 0 9.77491 0 0)
(9.48674 -1.70917 0 9.67251 0 0)
(14.5095 -2.22378 0 9.54807 0 0)
(20.0146 -2.72436 0 9.39883 0 0)
(25.7354 -3.20657 0 9.2281 0 0)
(31.4556 -3.66793 0 9.04382 0 0)
(36.9998 -4.10271 0 8.848 0 0)
(42.2479 -4.50934 0 8.64692 0 0)
(47.1083 -4.88224 0 8.44119 0 0)
(51.5345 -5.22158 0 8.23597 0 0)
(55.4973 -5.52154 0 8.03071 0 0)
(58.9986 -5.78436 0 7.82937 0 0)
(62.0457 -6.00392 0 7.63099 0 0)
(64.6605 -6.18379 0 7.43959 0 0)
(66.8842 -6.3269 0 7.25272 0 0)
(68.7128 -6.42894 0 7.06442 0 0)
(0.268056 -0.154877 0 4.48895 0 0)
(2.08335 -0.49808 0 4.58462 0 0)
(5.15505 -0.852723 0 4.45936 0 0)
(9.38594 -1.22925 0 4.42372 0 0)
(14.3831 -1.58643 0 4.37264 0 0)
(19.8628 -1.92884 0 4.3082 0 0)
(25.557 -2.25387 0 4.23086 0 0)
(31.2513 -2.55926 0 4.14434 0 0)
(36.7726 -2.84342 0 4.05127 0 0)
(42 -3.10753 0 3.95541 0 0)
(46.8438 -3.34869 0 3.85756 0 0)
(51.2607 -3.56777 0 3.76043 0 0)
(55.2177 -3.761 0 3.6635 0 0)
(58.725 -3.93047 0 3.56947 0 0)
(61.7787 -4.07006 0 3.47676 0 0)
(64.4123 -4.1851 0 3.38925 0 0)
(66.6331 -4.27558 0 3.30396 0 0)
(68.4899 -4.34561 0 3.21972 0 0)
(0.255141 -0.0882274 0 1.42192 0 0)
(2.06733 -0.313559 0 1.48768 0 0)
(5.20341 -0.526182 0 1.4476 0 0)
(9.49274 -0.734635 0 1.43445 0 0)
(14.5433 -0.924795 0 1.41433 0 0)
(20.0742 -1.10745 0 1.39106 0 0)
(25.8246 -1.28411 0 1.36441 0 0)
(31.5779 -1.45223 0 1.33507 0 0)
(37.1606 -1.61016 0 1.30407 0 0)
(42.4469 -1.75773 0 1.27245 0 0)
(47.3501 -1.89344 0 1.24062 0 0)
(51.8193 -2.01731 0 1.20919 0 0)
(55.826 -2.12731 0 1.17813 0 0)
(59.3729 -2.22411 0 1.14815 0 0)
(62.4599 -2.30361 0 1.11887 0 0)
(65.1248 -2.36982 0 1.09237 0 0)
(67.3454 -2.42242 0 1.06714 0 0)
(69.1941 -2.4619 0 1.04018 0 0)
(0.245824 -0.0253404 0 0.141936 0 0)
(2.06516 -0.097853 0 0.153723 0 0)
(5.18234 -0.165616 0 0.150936 0 0)
(9.44089 -0.230884 0 0.149768 0 0)
(14.4728 -0.293796 0 0.147465 0 0)
(19.9911 -0.354133 0 0.144736 0 0)
(25.7349 -0.412955 0 0.141737 0 0)
(31.486 -0.469448 0 0.138605 0 0)
(37.0758 -0.522788 0 0.135381 0 0)
(42.3801 -0.572789 0 0.132128 0 0)
(47.3137 -0.619141 0 0.12887 0 0)
(51.8238 -0.661817 0 0.125666 0 0)
(55.884 -0.700248 0 0.122522 0 0)
(59.4894 -0.734291 0 0.119496 0 0)
(62.6466 -0.763212 0 0.11667 0 0)
(65.3883 -0.788455 0 0.114331 0 0)
(67.699 -0.80667 0 0.112254 0 0)
(69.6253 -0.815985 0 0.111869 0 0)
(0.0244864 0.0357796 0 0.718028 0 0)
(0.267341 0.099154 0 0.679058 0 0)
(0.785756 0.181008 0 0.671869 0 0)
(1.53948 0.295163 0 0.662615 0 0)
(2.48671 0.424296 0 0.661005 0 0)
(3.60918 0.569252 0 0.657734 0 0)
(4.88495 0.716424 -2.3854e-19 0.655782 -6.4943e-20 1.47974e-37)
(6.31118 0.867441 2.42478e-19 0.651482 6.92552e-20 1.48428e-37)
(7.88116 1.01448 0 0.645473 0 0)
(9.59293 1.16196 2.44735e-19 0.637898 6.86735e-20 1.46204e-37)
(11.4413 1.30605 0 0.629308 0 0)
(13.4204 1.44895 0 0.620205 0 0)
(15.5235 1.58609 0 0.61224 0 0)
(17.7443 1.7178 -2.76999e-19 0.605766 -5.17503e-20 1.34823e-37)
(20.0768 1.84091 0 0.599543 0 0)
(22.5213 1.95448 0 0.594299 0 0)
(25.0781 2.05433 3.40088e-19 0.589978 3.90475e-20 1.22149e-37)
(27.7455 2.14213 0 0.585509 0 0)
(30.5187 2.22062 0 0.580835 0 0)
(33.3918 2.29208 0 0.576374 0 0)
(36.3487 2.35546 -4.55962e-19 0.573031 -1.96089e-20 1.0182e-37)
(39.3801 2.41136 0 0.569284 0 0)
(42.4721 2.45784 -5.1572e-19 0.567014 -1.03158e-20 9.25635e-38)
(45.6156 2.49485 0 0.568178 0 0)
(48.7945 2.52863 0 0.568877 0 0)
(51.9945 2.55183 -6.03847e-19 0.571005 1.169e-21 7.98023e-38)
(55.2086 2.55419 0 0.572851 0 0)
(58.441 2.53691 6.57472e-19 0.571374 -6.89688e-21 7.21913e-38)
(61.6859 2.50594 0 0.563565 0 0)
(64.9491 2.46314 -7.02243e-19 0.553203 1.04758e-20 6.54256e-38)
(68.2292 2.41113 0 0.53967 0 0)
(71.5139 2.35239 0 0.523855 0 0)
(74.7954 2.28683 0 0.509807 0 0)
(78.0754 2.2107 0 0.498417 0 0)
(81.3476 2.12339 0 0.486857 0 0)
(84.6087 2.02784 7.79506e-19 0.475943 -1.40103e-20 4.60175e-38)
(87.8574 1.92391 0 0.464306 0 0)
(91.0946 1.81147 -1.56219e-18 0.448243 2.71713e-20 1.61452e-37)
(94.3188 1.69209 0 0.432628 0 0)
(97.5252 1.56463 1.55217e-18 0.417974 -2.61864e-20 1.40034e-37)
(100.707 1.43157 0 0.402815 0 0)
(103.863 1.28928 0 0.39115 0 0)
(106.984 1.13871 -1.51412e-18 0.378583 2.15756e-20 1.11329e-37)
(110.054 0.985888 0 0.365761 0 0)
(113.056 0.831103 -1.4756e-18 0.354951 1.8271e-20 9.439e-38)
(115.977 0.673235 1.45316e-18 0.346093 -1.6537e-20 8.66961e-38)
(118.8 0.509568 0 0.339971 0 0)
(121.517 0.3397 1.40235e-18 0.335191 -1.25127e-20 7.34821e-38)
(124.112 0.164368 1.37414e-18 0.331291 -1.0647e-20 6.80192e-38)
(126.585 -0.0134803 0 0.328028 0 0)
(128.923 -0.19278 0 0.325885 0 0)
(131.106 -0.376342 0 0.323189 0 0)
(133.113 -0.564868 0 0.321968 0 0)
(134.923 -0.755652 0 0.324005 0 0)
(136.512 -0.945393 -1.17388e-18 0.328209 -4.3894e-21 5.02157e-38)
(137.849 -1.13656 0 0.332307 0 0)
(138.923 -1.3325 1.07925e-18 0.335986 1.14562e-20 4.75572e-38)
(139.738 -1.53502 0 0.341208 0 0)
(140.288 -1.74373 0 0.347995 0 0)
(140.558 -1.9497 -9.11518e-19 0.357294 -2.24567e-20 4.75487e-38)
(140.543 -2.15385 0 0.369252 0 0)
(140.225 -2.35865 7.80246e-19 0.381276 3.12458e-20 4.97203e-38)
(139.612 -2.56214 0 0.3916 0 0)
(138.698 -2.76563 0 0.404383 0 0)
(137.492 -2.96834 0 0.418511 0 0)
(136.008 -3.16384 -4.81693e-19 0.432878 -4.76243e-20 6.03538e-38)
(134.248 -3.35277 0 0.447578 0 0)
(132.226 -3.53529 0 0.46063 0 0)
(129.953 -3.71055 -2.25774e-19 0.474257 -6.12205e-20 7.30463e-38)
(127.451 -3.88376 0 0.48932 0 0)
(124.758 -4.04993 -5.0288e-20 0.504502 -6.98382e-20 8.30275e-38)
(121.883 -4.2037 0 0.519949 0 0)
(118.845 -4.34532 0 0.535932 0 0)
(115.674 -4.47606 0 0.553057 0 0)
(112.393 -4.59744 -3.05245e-19 0.571193 8.31753e-20 1.04539e-37)
(109.02 -4.70667 0 0.589281 0 0)
(105.571 -4.80047 0 0.60724 0 0)
(102.058 -4.87919 -5.64431e-19 0.625328 9.02857e-20 1.20163e-37)
(98.4942 -4.94727 -6.46162e-19 0.64409 9.18191e-20 1.25274e-37)
(94.9062 -5.00434 0 0.662885 0 0)
(91.3254 -5.04953 -7.99054e-19 0.682606 9.45854e-20 1.34689e-37)
(87.7726 -5.08353 0 0.70382 0 0)
(84.2683 -5.10568 -1.87764e-18 0.725397 1.9249e-19 5.74361e-37)
(80.8268 -5.11494 0 0.748044 0 0)
(77.466 -5.10969 -2.12252e-18 0.770625 1.9362e-19 6.0748e-37)
(74.204 -5.08814 0 0.793578 0 0)
(71.0551 -5.05353 2.325e-18 0.819564 -1.93766e-19 6.36437e-37)
(68.0367 -5.00564 0 0.844626 0 0)
(65.1634 -4.93921 0 0.866959 0 0)
(62.4349 -4.85412 0 0.889689 0 0)
(59.8558 -4.75219 -2.58535e-18 0.914718 1.86136e-19 6.7974e-37)
(57.4316 -4.63592 0 0.939342 0 0)
(55.1712 -4.50345 2.64587e-18 0.963566 -1.79897e-19 6.94471e-37)
(53.0766 -4.3544 0 0.987267 0 0)
(51.1365 -4.18313 -2.65776e-18 1.01081 1.73626e-19 7.03271e-37)
(49.3461 -3.99544 -2.64866e-18 1.03209 1.70423e-19 7.06764e-37)
(47.6931 -3.795 -2.62989e-18 1.05328 1.66284e-19 7.09422e-37)
(46.1726 -3.58543 0 1.07566 0 0)
(44.7582 -3.36591 0 1.09878 0 0)
(43.4613 -3.13753 0 1.11836 0 0)
(42.2639 -2.90036 0 1.13817 0 0)
(41.161 -2.6612 0 1.15793 0 0)
(40.1333 -2.4214 0 1.17698 0 0)
(39.1809 -2.17922 0 1.19207 0 0)
(38.2536 -1.93585 0 1.20802 0 0)
(37.3547 -1.69906 2.02511e-18 1.2231 -1.31525e-19 7.07388e-37)
(36.4451 -1.47069 1.91095e-18 1.24035 -1.24244e-19 7.06622e-37)
(35.5534 -1.25164 0 1.25177 0 0)
(34.64 -1.04104 0 1.26479 0 0)
(33.7199 -0.854218 0 1.27877 0 0)
(32.7367 -0.677785 1.35476e-18 1.2918 -1.04873e-19 6.90587e-37)
(31.7941 -0.52794 0 1.29913 0 0)
(30.7853 -0.38591 0 1.30891 0 0)
(29.8306 -0.28352 0 1.31905 0 0)
(28.9078 -0.200508 0 1.33209 0 0)
(28.0829 -0.15036 -4.40734e-19 1.34042 7.56465e-20 6.65767e-37)
(27.3889 -0.124067 0 1.34953 0 0)
(26.8539 -0.13255 0 1.36292 0 0)
(26.5619 -0.174552 -2.2239e-19 1.3705 -6.50882e-20 6.42095e-37)
(26.511 -0.243193 4.49809e-19 1.38352 6.10049e-20 6.29687e-37)
(26.7579 -0.352948 0 1.40044 0 0)
(27.3555 -0.509356 9.12203e-19 1.41766 6.0074e-20 6.0511e-37)
(28.3687 -0.705872 0 1.43678 0 0)
(29.8598 -0.957872 -1.3533e-18 1.45443 -6.45924e-20 5.75507e-37)
(31.8498 -1.24374 0 1.47714 0 0)
(34.4127 -1.57946 0 1.50414 0 0)
(37.4475 -1.95739 0 1.53685 0 0)
(41.0647 -2.38592 0 1.57109 0 0)
(45.1171 -2.84049 0 1.60911 0 0)
(49.6096 -3.34159 4.89773e-18 1.65126 2.0454e-19 1.97181e-36)
(54.4779 -3.88667 5.15278e-18 1.69736 2.3047e-19 1.93695e-36)
(59.7406 -4.46741 0 1.74542 0 0)
(65.1989 -5.06864 0 1.80136 0 0)
(70.814 -5.69519 0 1.85656 0 0)
(76.4362 -6.30744 -5.69292e-18 1.91746 -3.52069e-19 1.91692e-36)
(81.8383 -6.92135 0 1.98862 0 0)
(86.9824 -7.54248 0 2.0608 0 0)
(91.812 -8.15681 0 2.13729 0 0)
(96.2511 -8.74963 -5.33107e-18 2.21558 -5.33255e-19 2.07105e-36)
(100.282 -9.31658 5.09732e-18 2.29903 5.81917e-19 2.1328e-36)
(103.692 -9.83879 0 2.38982 0 0)
(106.6 -10.3484 0 2.48263 0 0)
(108.971 -10.8024 4.07902e-18 2.57721 7.34948e-19 2.36481e-36)
(110.812 -11.2221 3.64998e-18 2.67062 7.83804e-19 2.45007e-36)
(111.969 -11.5667 0 2.77093 0 0)
(112.544 -11.8823 0 2.87089 0 0)
(112.429 -12.1251 -2.05262e-18 2.9749 -9.45311e-19 2.71796e-36)
(111.755 -12.3499 1.42285e-18 3.06993 9.88937e-19 2.79667e-36)
(110.567 -12.5043 0 3.16676 0 0)
(108.662 -12.6045 0 3.26744 0 0)
(106.164 -12.6386 -5.21682e-19 3.35838 1.11684e-18 3.0673e-36)
(103.034 -12.6185 0 3.4489 0 0)
(99.5553 -12.5611 0 3.53254 0 0)
(95.569 -12.4124 -2.54881e-18 3.60505 1.20585e-18 3.29978e-36)
(91.2712 -12.1922 0 3.6771 0 0)
(86.6505 -11.861 -3.83254e-18 3.73866 1.25683e-18 3.44272e-36)
(81.7651 -11.4447 0 3.79445 0 0)
(76.6597 -10.9104 0 3.83363 0 0)
(71.7186 -10.2777 0 3.85779 0 0)
(66.8339 -9.48003 5.87148e-18 3.8766 -1.27761e-18 3.68091e-36)
(62.1715 -8.56289 0 3.88023 0 0)
(57.9469 -7.49362 0 3.86815 0 0)
(54.4841 -6.30452 0 3.84031 0 0)
(51.6202 -4.92668 0 3.79832 0 0)
(49.5253 -3.46771 0 3.74768 0 0)
(48.7999 -1.9139 0 3.67575 0 0)
(49.6339 -0.290387 6.02077e-18 3.5861 -1.10416e-18 3.7267e-36)
(51.6869 1.42291 5.60512e-18 3.48784 -1.04997e-18 3.70937e-36)
(55.3857 3.11507 0 3.37628 0 0)
(60.6393 4.74169 0 3.25835 0 0)
(67.4443 6.32193 0 3.12885 0 0)
(75.3775 7.79551 -3.05198e-18 2.99914 7.95189e-19 3.3837e-36)
(84.505 9.09694 0 2.87091 0 0)
(94.0648 10.2853 2.94768e-18 2.73586 -1.35063e-18 1.23628e-35)
(103.955 11.2428 -1.30964e-18 2.60511 1.21782e-18 1.16616e-35)
(113.594 12.0336 3.18169e-19 2.47382 1.10529e-18 1.10194e-35)
(123.252 12.6847 -2.02109e-18 2.34903 -1.01442e-18 1.03345e-35)
(131.375 13.2262 3.67306e-18 2.23005 9.22976e-19 9.76016e-36)
(139.252 13.7037 -5.27786e-18 2.12278 -9.03647e-19 8.99604e-36)
(143.005 14.3969 0 2.06687 0 0)
(0.0183113 0.174316 0 6.10224 0 0)
(0.202723 0.388132 0 6.04016 0 0)
(0.629519 0.610185 1.31805e-19 5.86705 1.75948e-19 6.76908e-37)
(1.32718 0.854873 0 5.74592 0 0)
(2.26946 1.13436 -1.92112e-19 5.68592 -3.54043e-19 9.19915e-37)
(3.44585 1.43933 -1.83544e-19 5.6587 -4.42099e-19 9.73088e-37)
(4.83521 1.76415 -8.03804e-20 5.6433 -2.51821e-19 2.4912e-37)
(6.42321 2.10485 -6.85444e-20 5.62526 -2.70774e-19 2.61387e-37)
(8.20196 2.45418 0 5.59689 0 0)
(10.1695 2.80762 -4.15554e-20 5.55428 -2.69602e-19 2.59551e-37)
(12.3271 3.15632 0 5.5024 0 0)
(14.673 3.4979 0 5.44278 0 0)
(17.199 3.82724 9.32616e-20 5.37447 4.24434e-19 9.51654e-37)
(19.9056 4.1439 6.87863e-20 5.30252 1.87184e-19 2.34263e-37)
(22.7821 4.43831 -1.8399e-19 5.22721 -3.26746e-19 8.94138e-37)
(25.8227 4.71046 -2.50226e-19 5.14884 -2.81666e-19 8.66387e-37)
(29.0158 4.96176 -1.70464e-19 5.06435 -1.18643e-19 2.12862e-37)
(32.3552 5.1936 0 4.9735 0 0)
(35.8291 5.40436 0 4.87771 0 0)
(39.429 5.59857 0 4.7749 0 0)
(43.1314 5.7755 -3.86027e-19 4.66983 -3.68212e-20 1.80487e-37)
(46.9273 5.93248 0 4.56515 0 0)
(50.7939 6.06106 1.60717e-18 4.45842 -1.58644e-20 1.55254e-36)
(54.7187 6.16483 0 4.35526 0 0)
(58.6851 6.24538 0 4.2499 0 0)
(62.676 6.30279 7.74231e-19 4.14557 -5.75794e-20 1.56572e-37)
(66.6637 6.33376 0 4.03955 0 0)
(70.6294 6.34769 -9.3248e-19 3.93889 8.17261e-20 1.46065e-37)
(74.5395 6.33823 -1.9927e-18 3.8389 1.81445e-19 5.5736e-37)
(78.3839 6.30028 1.07667e-18 3.73611 -9.87131e-20 1.36687e-37)
(82.1588 6.23087 0 3.62824 0 0)
(85.8638 6.13359 0 3.52287 0 0)
(89.4854 6.01094 0 3.41939 0 0)
(93.0278 5.86404 -2.57621e-18 3.3111 2.22765e-19 4.71612e-37)
(96.4824 5.68737 -2.65459e-18 3.20348 2.20266e-19 4.55442e-37)
(99.8627 5.48134 -1.37352e-18 3.10227 1.07549e-19 1.10826e-37)
(103.177 5.24422 0 3.01012 0 0)
(106.418 4.9711 2.83795e-18 2.92176 -2.02883e-19 4.13084e-37)
(109.596 4.65987 0 2.83636 0 0)
(112.702 4.31986 -2.87473e-18 2.75467 1.88285e-19 3.81825e-37)
(115.745 3.95208 0 2.67419 0 0)
(118.721 3.56438 0 2.60202 0 0)
(121.637 3.16066 2.82786e-18 2.53107 -1.53962e-19 3.31924e-37)
(124.478 2.73795 0 2.46576 0 0)
(127.226 2.28971 8.1611e-18 2.40784 -3.93272e-19 2.68653e-36)
(129.878 1.81185 -2.68924e-18 2.36254 1.19179e-19 2.83922e-37)
(132.439 1.30867 0 2.33535 0 0)
(134.924 0.780253 -2.54961e-18 2.31952 9.09785e-20 2.51968e-37)
(137.319 0.219183 -2.46897e-18 2.31331 7.67481e-20 2.36393e-37)
(139.62 -0.368015 0 2.31564 0 0)
(141.806 -0.966806 0 2.32896 0 0)
(143.858 -1.56335 0 2.34391 0 0)
(145.76 -2.14808 0 2.35744 0 0)
(147.476 -2.72529 0 2.38099 0 0)
(148.993 -3.30391 1.88369e-18 2.41371 1.44383e-20 1.7223e-37)
(150.289 -3.89144 3.45173e-18 2.45702 7.10323e-20 6.56412e-37)
(151.345 -4.48256 -1.64465e-18 2.50815 -5.58752e-20 1.60231e-37)
(152.172 -5.09189 0 2.5643 0 0)
(152.743 -5.70238 2.68748e-18 2.62742 1.90242e-19 6.01927e-37)
(153.03 -6.29237 -1.17019e-18 2.69549 -1.13272e-19 1.46979e-37)
(153.06 -6.87754 0 2.77225 0 0)
(152.783 -7.4566 -9.78217e-19 2.86219 -1.48661e-19 1.49611e-37)
(152.21 -8.01374 0 2.95548 0 0)
(151.336 -8.56139 0 3.0568 0 0)
(150.156 -9.09021 -1.04729e-18 3.16292 -3.97158e-19 6.26004e-37)
(148.658 -9.58996 4.22379e-19 3.27356 2.15378e-19 1.63862e-37)
(146.879 -10.0822 -4.88411e-19 3.39358 -4.62515e-19 6.68866e-37)
(144.815 -10.5535 2.11082e-19 3.51782 4.89417e-19 6.9264e-37)
(142.491 -11.0006 9.53208e-21 3.64322 2.54598e-19 1.828e-37)