/*--------------------------------*- C++ -*----------------------------------*\
| =========                 |                                                 |
| \\      /  F ield         | OpenFOAM: The Open Source CFD Toolbox           |
|  \\    /   O peration     | Version:  dev                                   |
|   \\  /    A nd           | Web:      http://www.openfoam.org               |
|    \\/     M anipulation  |                                                 |
\*---------------------------------------------------------------------------*/
FoamFile
{
    version     2.0;
    format      ascii;
    class       volScalarField;
    object      k;
    location    "9.136";
}
// * * * * * * * * * * * * * * * * * * * * * * * * * * * * * * * * * * * * * //

dimensions      [0 2 -2 0 0 0 0];

internalField   nonuniform List<scalar> 
12225
(
8.01752
8.8421
5.74372
5.79501
6.6472
7.96258
11.0998
12.4555
17.1213
18.4277
24.2541
25.7204
32.8995
31.1455
40.5902
29.0806
30.4762
67.676
2.06423
6.83814
6.13491
7.40534
5.67117
7.96627
7.10196
8.82971
8.79944
10.2573
11.5284
11.8834
14.5348
14.3504
17.7721
23.2172
59.7413
57.9843
0.224544
2.09774
2.52126
4.35167
3.21138
4.8689
3.905
5.30684
4.55844
4.89042
6.33776
5.92323
8.01089
7.70619
12.1728
29.2186
57.3712
56.4864
0.0227455
0.501939
0.869529
1.80039
1.75581
2.09911
2.07221
2.40711
2.32492
2.00871
2.79768
2.82827
3.09895
4.09495
8.77528
22.8473
62.5656
80.5386
0.005339
0.166421
0.27792
0.600922
0.825499
0.754896
0.897193
0.916565
1.17319
1.10046
1.31639
1.30287
2.41807
2.97236
4.94654
14.1882
45.9746
86.1562
0.00188074
0.0555013
0.0848284
0.180915
0.377336
0.343606
0.487241
0.804562
0.896936
0.830043
1.20528
1.42741
1.87406
1.80213
3.67442
7.83281
23.6186
68.7044
0.00279034
0.0192662
0.232208
0.201259
0.510816
0.525394
0.534537
0.749462
0.9522
1.30231
0.967867
1.15454
1.68425
1.86337
2.68121
3.94406
11.8486
33.6526
0.0165907
0.129238
0.408217
0.342849
0.534592
0.568751
0.606474
0.691358
0.962763
1.11284
1.15793
1.07438
1.69771
1.85656
2.22623
2.57181
6.06687
11.9085
0.0431286
0.346927
0.38426
0.376006
0.480201
0.508685
0.645384
0.509236
0.68352
0.751978
1.07798
0.759013
1.16414
1.34233
2.1475
1.83994
3.45294
4.14324
0.0212782
0.152761
0.218115
0.325363
0.379014
0.368087
0.467054
0.386665
0.42002
0.446391
0.577434
0.455186
0.560435
0.655025
1.18825
1.06745
2.21304
1.72159
0.00864885
0.0424462
0.0951957
0.160379
0.312222
0.315785
0.340753
0.322103
0.312769
0.310356
0.350404
0.333196
0.358743
0.383145
0.546058
0.546647
0.971334
0.798375
0.018017
0.0271683
0.0592132
0.111797
0.219468
0.243009
0.268419
0.270481
0.268052
0.271486
0.289008
0.300776
0.299891
0.309184
0.351262
0.367154
0.464216
0.440055
0.0494495
0.0433317
0.0655895
0.113913
0.181137
0.216853
0.238599
0.249369
0.261058
0.269401
0.281478
0.293244
0.295967
0.302569
0.313711
0.319486
0.340331
0.344522
0.103808
0.116193
0.128677
0.150292
0.189957
0.227911
0.246749
0.261468
0.276752
0.293828
0.302213
0.312494
0.316972
0.323655
0.327574
0.328374
0.335218
0.337987
0.200523
0.204372
0.222997
0.262939
0.276236
0.319635
0.339799
0.371944
0.403046
0.432756
0.440405
0.448635
0.451698
0.454412
0.450378
0.444595
0.434465
0.421122
0.388307
0.359725
0.370739
0.390218
0.4069
0.44467
0.478443
0.512976
0.541143
0.559588
0.565977
0.568383
0.56746
0.565262
0.560596
0.552076
0.533823
0.515836
0.523038
0.446401
0.444095
0.451795
0.462549
0.49164
0.531098
0.566876
0.593622
0.608329
0.613638
0.614235
0.612353
0.609536
0.60399
0.593833
0.57257
0.553677
0.521558
0.451307
0.451045
0.457789
0.467557
0.494171
0.533837
0.570243
0.59768
0.612977
0.618529
0.619023
0.617466
0.614877
0.609142
0.599016
0.577704
0.558665
0.456407
0.4122
0.418777
0.427706
0.438965
0.465376
0.503839
0.540739
0.570047
0.58753
0.594527
0.595797
0.594906
0.592859
0.587654
0.57876
0.55972
0.541785
0.306376
0.288077
0.301273
0.313795
0.327994
0.35657
0.396735
0.438985
0.475603
0.5003
0.513124
0.51754
0.51825
0.517402
0.514496
0.509551
0.49825
0.485036
0.183705
0.172805
0.18138
0.189801
0.202245
0.219961
0.244605
0.270384
0.295537
0.316958
0.331829
0.341589
0.345507
0.347675
0.349617
0.350769
0.35125
0.348946
0.103544
0.102217
0.111158
0.117808
0.12177
0.127865
0.140437
0.157746
0.18012
0.200375
0.215884
0.225718
0.229718
0.23109
0.2314
0.231058
0.229745
0.227109
0.052606
0.053652
0.0592107
0.0652471
0.0709306
0.0738368
0.0786907
0.088362
0.105
0.120668
0.133357
0.142632
0.148896
0.15407
0.15864
0.16298
0.166756
0.16901
0.0246064
0.025905
0.0278373
0.0319089
0.0377986
0.043884
0.0517729
0.0650137
0.0818541
0.097145
0.109037
0.117975
0.125242
0.131925
0.138604
0.145296
0.151349
0.156928
0.0101099
0.0112727
0.0142651
0.0211029
0.030698
0.0423351
0.0550538
0.0751034
0.0970069
0.114972
0.127268
0.135819
0.143523
0.15091
0.158931
0.167291
0.174992
0.182446
0.00187076
0.00583835
0.0153056
0.0354738
0.0644996
0.0998534
0.136868
0.183275
0.22325
0.248664
0.260894
0.266606
0.27495
0.283756
0.295156
0.307415
0.319315
0.329452
0.0016712
0.0218605
0.0830082
0.208781
0.339048
0.464499
0.569303
0.660943
0.720412
0.746411
0.752964
0.753922
0.762456
0.774378
0.790589
0.806382
0.817569
0.81971
0.0178542
0.287976
0.829042
1.29207
1.61829
1.86361
2.01883
2.09507
2.10958
2.09996
2.07946
2.05927
2.04858
2.03823
2.02519
1.99905
1.95324
1.88934
0.476993
3.17079
4.67195
5.15373
5.16555
5.07832
4.93302
4.78627
4.66515
4.58282
4.49854
4.41693
4.3394
4.23102
4.10096
3.9467
3.79417
3.506
6.44446
9.54348
8.31283
6.94938
6.3968
6.47835
6.89224
7.52206
8.20814
8.87644
9.46558
9.97448
10.3921
10.6969
10.9173
11.0345
10.9801
10.3006
0.111246
0.191397
0.257073
0.326136
0.352676
0.372745
0.397374
0.426269
0.459055
0.505435
0.57392
0.660201
0.756877
0.843179
0.947621
1.09234
1.21376
1.32378
1.47219
1.5894
1.66332
1.81136
2.1369
2.44633
2.61738
2.69682
2.75972
2.85118
3.08261
3.42422
3.79776
4.17833
4.57715
5.02269
5.5189
6.04631
6.58414
7.11336
7.62366
8.10917
8.57128
9.01114
9.42309
9.81634
10.1958
10.553
10.8831
11.1908
11.4832
11.7483
11.981
12.1745
12.328
12.4722
12.5657
12.6174
12.6227
12.6063
12.5628
12.4854
12.4143
12.3462
12.2925
12.2828
12.2423
12.1445
12.0282
11.8742
11.6745
11.4552
11.2124
10.972
10.7313
10.466
10.1377
9.74143
9.29018
8.82742
8.40991
7.98285
7.54448
7.06015
6.58246
6.16145
5.81617
5.51611
5.25802
5.02256
4.75256
4.43004
4.01561
3.50763
3.06742
2.78993
2.6206
2.52104
2.36977
2.26884
2.24668
2.2566
2.19975
2.13526
2.16869
2.30136
2.37397
2.27795
4.05988
6.45732
7.08526
7.13551
6.57478
5.69659
4.64554
3.71428
2.92159
2.41456
2.09114
1.81972
1.82221
1.98408
2.21764
2.64628
3.08168
3.88377
4.09884
4.71445
5.54065
6.46365
7.25496
7.77838
8.23904
8.9134
9.64184
10.4863
11.3524
12.2095
12.9279
13.3674
13.7939
14.2682
14.7202
14.7282
14.5764
14.2219
13.5518
13.2733
12.8699
11.8962
11.4282
10.6148
9.46935
8.52435
7.39086
6.33488
5.79859
5.66366
5.44052
5.43641
5.48496
4.8859
4.56955
5.2777
6.67325
7.8784
8.80008
9.67577
10.4748
11.4593
12.9153
15.7945
19.1557
21.0518
22.5334
23.2099
23.6467
24.9199
25.4804
21.3137
20.0212
19.3818
0.39074
0.511425
0.552007
0.495701
0.399192
0.337898
0.28316
0.245777
0.21972
0.199189
0.184469
0.184413
0.189214
0.200631
0.224136
0.260768
0.306966
0.375243
0.431649
0.499026
0.546714
0.583813
0.679712
0.844171
0.910384
0.898163
0.837593
0.835936
0.913947
1.41158
2.13973
2.70483
3.12285
3.40429
3.60135
3.75453
3.82
3.82129
3.78077
3.71763
3.63435
3.56169
3.48314
3.3965
3.32117
3.24799
3.15393
3.068
2.99086
2.89866
2.77433
2.64583
2.50609
2.35273
2.16611
2.00277
1.86077
1.76829
1.70063
1.65647
1.64565
1.65571
1.70542
1.86403
1.98757
2.03734
2.11227
2.14319
2.14241
2.14234
2.14897
2.18427
2.27938
2.34441
2.34778
2.28743
2.0927
1.96485
1.91857
1.86942
1.79713
1.64529
1.52696
1.47251
1.46392
1.48283
1.56127
1.69781
1.7783
1.78657
1.71247
1.4305
1.13189
1.00466
0.989138
1.02092
1.01949
0.998767
1.03989
1.17026
1.30928
1.48505
1.9607
3.09317
4.61155
4.8626
4.78865
4.64624
3.37808
2.78163
2.11437
1.75604
1.57766
1.53389
1.53764
1.55083
1.60185
1.72063
1.99679
2.58728
2.98491
3.11613
2.86288
2.54336
2.5185
2.54801
2.65113
2.90403
3.32889
3.84541
4.18615
4.39606
4.54678
4.66964
4.85511
5.11111
5.41173
5.42351
5.33163
5.34165
5.53514
5.72054
5.69824
5.65785
5.50302
5.48932
5.73557
5.77732
5.8458
6.21196
6.36485
6.34021
6.1553
5.6118
5.25041
5.22983
5.14914
5.05256
5.14133
4.80643
3.97482
3.91
4.33142
4.83364
5.29513
5.99773
6.98968
8.56784
10.809
11.5586
10.5909
9.89455
9.56145
9.34585
9.83835
9.33521
6.99624
6.07928
6.45913
6.98108
0.951354
1.01724
0.770352
0.512454
0.340132
0.246771
0.204754
0.190131
0.183314
0.178014
0.173618
0.17055
0.168733
0.165602
0.158656
0.15845
0.161758
0.175505
0.188213
0.206161
0.227163
0.265799
0.388377
0.52242
0.629833
0.90301
1.31935
1.53092
1.60135
1.78886
1.93129
1.93812
1.87959
1.78863
1.67298
1.55343
1.42978
1.30258
1.18522
1.07628
0.975831
0.891834
0.818007
0.747264
0.692349
0.641091
0.588767
0.547753
0.505879
0.466924
0.432175
0.397861
0.361184
0.327039
0.299851
0.283315
0.273043
0.268434
0.26822
0.27252
0.284303
0.301538
0.327723
0.371028
0.406131
0.428035
0.460946
0.47769
0.483758
0.496468
0.511923
0.548163
0.630659
0.687172
0.702059
0.688801
0.621369
0.584702
0.580583
0.579061
0.570028
0.531684
0.504965
0.501108
0.509535
0.547489
0.620981
0.744231
0.889769
0.98283
0.996747
0.951351
0.772844
0.643218
0.5931
0.593893
0.596453
0.629793
0.741373
0.904544
1.25394
2.14102
3.52915
4.37551
4.28678
3.62968
2.65371
1.83451
1.47402
1.22064
1.06927
1.03445
1.05971
1.16404
1.27281
1.35879
1.46963
1.79332
2.32821
2.95562
3.20106
2.93703
2.58537
2.24523
2.23532
2.11579
1.97151
1.9842
2.06753
2.29736
2.49219
2.62937
2.70113
2.71216
2.72403
2.77165
2.94075
2.99733
2.95
2.95134
3.02576
3.13978
3.13648
3.11931
3.03739
3.04004
3.22606
3.29136
3.3399
3.61316
3.97422
4.26218
4.77484
4.77946
4.43431
4.41242
4.40559
4.25733
4.26427
4.10498
3.33247
3.08515
3.19803
3.5431
4.05137
4.8874
6.18086
7.68371
8.04789
7.07017
5.52731
5.08731
4.60435
4.45985
4.9778
4.72935
3.09287
2.75278
3.12457
3.3365
1.81767
1.45617
0.749415
0.357333
0.222389
0.188415
0.17911
0.1797
0.18592
0.203729
0.215483
0.215707
0.21243
0.202738
0.18478
0.168672
0.162999
0.163453
0.167746
0.181688
0.218209
0.295318
0.656775
1.06469
1.1695
1.22529
1.34306
1.3961
1.39248
1.28065
1.14377
1.02051
0.891252
0.78704
0.681078
0.586479
0.506675
0.440973
0.387288
0.343463
0.309277
0.280693
0.259894
0.241259
0.229308
0.218866
0.209482
0.202013
0.195612
0.190157
0.185126
0.18001
0.173604
0.168052
0.162736
0.159449
0.157769
0.157564
0.158522
0.162123
0.167807
0.17627
0.190919
0.206493
0.214401
0.221609
0.231491
0.236639
0.238443
0.240834
0.244588
0.253199
0.285129
0.319019
0.331751
0.329665
0.30844
0.293832
0.293612
0.294836
0.293193
0.283134
0.277103
0.278953
0.290581
0.320171
0.355836
0.41243
0.489762
0.589998
0.653851
0.670543
0.656749
0.583259
0.493217
0.457968
0.483569
0.576761
0.836241
1.31681
2.19663
3.17658
3.62461
3.53928
2.79222
1.83923
1.3013
1.05243
0.933871
0.877922
0.864463
0.887311
0.980577
1.12181
1.24125
1.32447
1.42105
1.70452
2.27285
2.51485
2.24995
1.70229
2.22907
2.39148
2.30978
1.97955
1.69359
1.68399
1.7373
1.87918
1.96945
2.02504
2.04489
2.01674
2.00924
2.03447
2.10342
2.18635
2.20244
2.23773
2.26861
2.25278
2.22205
2.20373
2.16352
2.1784
2.25471
2.26465
2.31267
2.52749
2.73778
2.88839
3.43012
3.65288
3.52334
3.51413
3.70019
3.86195
3.90999
3.75534
3.07725
2.83477
2.87626
3.18433
3.84085
4.6481
5.78974
6.25318
5.73086
3.85164
3.28748
3.08196
2.68457
2.64821
2.96914
2.99249
2.19804
2.03595
2.32751
2.66512
2.74469
1.59868
0.531875
0.240448
0.185411
0.181913
0.191236
0.221676
0.250399
0.261518
0.264215
0.264568
0.263124
0.260118
0.254138
0.236127
0.215302
0.213473
0.220533
0.251202
0.409221
0.751939
1.01296
1.09824
1.09863
1.05167
0.999038
0.912589
0.82698
0.699651
0.591714
0.495086
0.407948
0.346699
0.292971
0.251332
0.222734
0.202802
0.18867
0.179317
0.173442
0.170312
0.168784
0.168026
0.168265
0.169718
0.171356
0.172532
0.173044
0.173069
0.172301
0.169436
0.164836
0.160219
0.155913
0.150424
0.14581
0.143518
0.142938
0.143273
0.144856
0.149007
0.157823
0.169409
0.17627
0.178385
0.182017
0.185759
0.188949
0.190266
0.190315
0.19183
0.199551
0.217605
0.225848
0.226135
0.220678
0.21499
0.21499
0.216283
0.216099
0.214244
0.214816
0.219098
0.232789
0.253861
0.269662
0.295769
0.338378
0.393173
0.44145
0.458782
0.452738
0.444584
0.415216
0.418257
0.476767
0.757765
1.39509
1.93082
2.59939
2.99696
2.94585
2.24043
1.42455
1.06893
0.893896
0.827104
0.799024
0.789129
0.797485
0.851886
0.970433
1.12232
1.2374
1.31522
1.42339
1.58362
1.6847
1.56379
1.22575
1.2694
2.16277
2.75111
2.40952
1.91181
1.56356
1.55316
1.60117
1.74002
1.80444
1.80665
1.7846
1.74923
1.78761
1.84419
1.86567
1.88876
1.94931
2.01013
2.00816
1.94165
1.89525
1.87169
1.84216
1.8423
1.83952
1.8206
1.91535
2.10057
2.21589
2.39215
2.67157
2.98917
2.95193
2.92217
3.01668
3.38676
3.64705
3.59727
3.03196
2.75021
2.74423
3.09558
3.83164
4.38647
4.99324
5.14824
4.06487
2.56408
2.19546
2.05814
2.00242
2.00766
2.17675
2.24529
1.94326
1.81834
2.02451
2.45187
3.47631
1.52554
0.418535
0.206523
0.185651
0.201973
0.234241
0.265653
0.276514
0.282289
0.295866
0.312642
0.322347
0.331105
0.336448
0.341465
0.350726
0.37715
0.434951
0.547007
0.698446
0.859883
0.934846
0.872171
0.786264
0.714407
0.637014
0.548847
0.467108
0.384129
0.311014
0.255904
0.218851
0.195248
0.177215
0.165997
0.161065
0.160512
0.161882
0.163747
0.166484
0.169742
0.173342
0.176984
0.179976
0.182337
0.184733
0.185936
0.186094
0.18525
0.183372
0.179772
0.173908
0.16859
0.161295
0.156674
0.149991
0.145266
0.14286
0.142108
0.14222
0.143636
0.148001
0.157692
0.166569
0.170019
0.170533
0.171121
0.173675
0.178708
0.17972
0.179717
0.181556
0.189735
0.19804
0.199916
0.198863
0.194081
0.192089
0.191849
0.191249
0.191568
0.193537
0.198666
0.210838
0.226559
0.242651
0.258634
0.279399
0.305853
0.317327
0.320201
0.320145
0.332068
0.356405
0.413567
0.592976
1.13128
1.69699
2.12422
2.47298
2.47359
1.98816
1.28334
0.956985
0.832264
0.78746
0.769996
0.756673
0.750672
0.766831
0.830846
0.949644
1.07338
1.18329
1.32565
1.46117
1.48961
1.43378
1.1298
0.943507
1.08176
1.73687
2.37266
2.04708
1.90573
1.50645
1.44655
1.45094
1.5228
1.60205
1.62115
1.59362
1.65193
1.76527
1.83765
1.80776
1.7785
1.86218
1.91641
1.89157
1.82094
1.80886
1.77918
1.70654
1.61102
1.58019
1.62782
1.78159
1.85716
1.95966
2.33577
2.47618
2.60896
2.61544
2.58876
2.64115
2.87829
3.36715
3.46201
3.05114
2.72053
2.67275
3.06728
3.77391
4.11485
4.28565
4.18772
3.0681
2.08271
1.84354
1.73964
1.68203
1.70946
1.79454
1.80479
1.73082
1.65639
1.84058
2.22089
4.09441
1.54496
0.387311
0.202812
0.192817
0.216434
0.254876
0.293473
0.310932
0.318911
0.325774
0.338119
0.351313
0.363808
0.37899
0.401687
0.433038
0.477659
0.531031
0.611798
0.705834
0.73984
0.663823
0.585955
0.520162
0.464462
0.396244
0.327852
0.266792
0.223337
0.191942
0.171442
0.159277
0.154645
0.154322
0.155815
0.159014
0.16433
0.17099
0.17853
0.186449
0.194832
0.20235
0.208554
0.213886
0.217093
0.219325
0.220497
0.22074
0.220189
0.217588
0.21355
0.207452
0.200933
0.191612
0.184616
0.1765
0.168872
0.161038
0.156928
0.154236
0.15301
0.152913
0.155205
0.163635
0.16923
0.169943
0.170011
0.170311
0.173922
0.179997
0.179645
0.179956
0.18576
0.195893
0.199072
0.198337
0.191645
0.186376
0.184859
0.184625
0.18468
0.185044
0.186626
0.191296
0.205383
0.231612
0.245182
0.24953
0.248232
0.245469
0.247865
0.261645
0.287237
0.329484
0.443999
0.779957
1.32026
1.77925
2.11822
2.13986
1.87131
1.32412
0.920403
0.800442
0.763067
0.752153
0.735452
0.688163
0.676507
0.687491
0.748744
0.831858
0.899985
1.01961
1.22303
1.3958
1.44576
1.32153
0.942419
0.793598
0.80414
1.01972
1.48045
1.83182
1.9954
1.57285
1.42069
1.40503
1.37621
1.42464
1.44723
1.5011
1.65561
1.82525
1.89958
1.8095
1.75409
1.85282
1.87883
1.82831
1.8019
1.81295
1.78559
1.61798
1.48343
1.47958
1.58527
1.63837
1.64498
1.84348
2.54486
2.56685
2.44209
2.42075
2.38593
2.40917
2.54269
3.06273
3.32913
3.05314
2.72528
2.64868
3.01981
3.60605
3.878
3.97618
3.73955
2.69752
2.07499
1.84345
1.65869
1.58551
1.6045
1.54937
1.47951
1.45191
1.45025
1.67549
1.98839
4.71266
1.59066
0.382934
0.20358
0.199055
0.228733
0.262544
0.30189
0.321994
0.328494
0.331806
0.341652
0.35973
0.379092
0.399837
0.42238
0.448115
0.48295
0.523109
0.547266
0.538097
0.488103
0.431055
0.387387
0.339875
0.292252
0.2481
0.207239
0.177827
0.161352
0.150617
0.146124
0.14592
0.148743
0.154001
0.160553
0.1669
0.173476
0.179676
0.186234
0.192962
0.200093
0.206889
0.212885
0.218121
0.222608
0.225503
0.227186
0.227452
0.227406
0.226779
0.223742
0.219393
0.213399
0.205477
0.197276
0.187852
0.182526
0.177169
0.175245
0.174218
0.174805
0.173902
0.171285
0.17098
0.174246
0.175607
0.174771
0.173797
0.175407
0.180685
0.184217
0.184837
0.189492
0.202037
0.206875
0.206166
0.197189
0.187052
0.184369
0.184178
0.183733
0.181645
0.181513
0.184291
0.193153
0.208032
0.216738
0.216759
0.215888
0.217998
0.228066
0.250662
0.275033
0.325521
0.497244
0.997565
1.42449
1.75153
1.88309
1.80438
1.41262
0.960607
0.790573
0.749154
0.740613
0.728959
0.657967
0.589877
0.576473
0.574119
0.594584
0.627642
0.653033
0.723288
0.859284
1.00737
1.06598
0.973696
0.727299
0.664089
0.714348
0.84243
1.20777
1.71261
2.01009
1.71596
1.461
1.43776
1.35466
1.30987
1.31743
1.4741
1.74034
1.9647
1.97154
1.82849
1.80273
1.88448
1.84724
1.80898
1.87996
1.92069
1.88218
1.62688
1.45608
1.46894
1.58723
1.5632
1.5519
1.82721
2.61148
2.66993
2.3934
2.32071
2.25433
2.25197
2.34523
2.78567
3.19542
3.02878
2.72604
2.64933
2.93459
3.31745
3.48255
3.75036
3.57992
2.49626
2.02498
1.78536
1.63641
1.59706
1.63147
1.48502
1.34234
1.21638
1.20213
1.33721
1.508
5.67408
2.03155
0.510456
0.223361
0.198462
0.21641
0.245751
0.285718
0.321151
0.335634
0.340035
0.344417
0.358865
0.377386
0.393616
0.407358
0.410505
0.410422
0.414185
0.392934
0.358354
0.329006
0.293882
0.261458
0.232506
0.198817
0.174367
0.155889
0.145045
0.13946
0.138306
0.139986
0.144584
0.151381
0.157204
0.162954
0.167834
0.172398
0.175935
0.179402
0.183396
0.187682
0.192432
0.197275
0.203433
0.210066
0.217669
0.222539
0.224027
0.224416
0.224077
0.220923
0.216664
0.210668
0.203844
0.195701
0.186326
0.179081
0.17619
0.1759
0.177081
0.182019
0.188647
0.192773
0.191647
0.18808
0.186449
0.184879
0.181785
0.180845
0.184023
0.190347
0.192705
0.194709
0.202009
0.206621
0.206695
0.202355
0.191599
0.187194
0.18646
0.184771
0.179846
0.178761
0.182479
0.191218
0.197554
0.203661
0.204452
0.20591
0.210716
0.227053
0.250713
0.273256
0.339009
0.602473
1.15876
1.46227
1.61251
1.59721
1.39055
1.05589
0.803545
0.740787
0.72915
0.730311
0.674983
0.550025
0.516264
0.512133
0.525153
0.535852
0.544515
0.565109
0.591282
0.619971
0.653123
0.66472
0.636848
0.608085
0.612035
0.672132
0.745325
0.923561
1.42023
1.81396
1.94731
1.7143
1.53784
1.36959
1.24849
1.25752
1.48115
1.79534
2.05236
2.07366
2.02944
2.09641
2.01833
1.8287
1.83556
2.03979
2.08545
2.05531
1.69084
1.47815
1.54928
1.62607
1.55106
1.5465
1.86056
2.29647
2.6104
2.34209
2.25263
2.21751
2.16941
2.23262
2.58173
3.11222
2.98373
2.73206
2.68575
2.86096
3.00416
2.97077
3.35708
3.40854
2.36538
1.82679
1.68381
1.66515
1.71949
1.71322
1.49231
1.31109
1.11707
1.07345
1.11882
1.32673
6.63079
2.20517
0.525671
0.236391
0.207441
0.223658
0.250249
0.284282
0.309817
0.324634
0.3184
0.312122
0.326479
0.343146
0.347519
0.346913
0.336569
0.325016
0.30338
0.270947
0.248481
0.237034
0.222457
0.198654
0.176982
0.156791
0.144559
0.137265
0.133946
0.1336
0.135431
0.14069
0.148338
0.15415
0.157816
0.160516
0.161217
0.161439
0.162657
0.166718
0.171151
0.174905
0.17839
0.180978
0.1835
0.185537
0.188644
0.192668
0.198382
0.205627
0.210873
0.213356
0.214207
0.213294
0.207623
0.202872
0.198172
0.190086
0.183399
0.179731
0.179038
0.179786
0.187159
0.201099
0.208453
0.208916
0.202233
0.192447
0.186314
0.18199
0.181176
0.186086
0.19087
0.193554
0.198097
0.203006
0.205147
0.205689
0.202709
0.196524
0.19356
0.186017
0.179933
0.176976
0.178567
0.186662
0.194253
0.201783
0.203101
0.203922
0.208415
0.226024
0.248635
0.274581
0.3663
0.729877
1.21158
1.40566
1.45488
1.37557
1.12161
0.868051
0.747105
0.720806
0.727606
0.716305
0.571286
0.486283
0.476605
0.484254
0.506092
0.513452
0.520493
0.529146
0.539133
0.544794
0.551169
0.545647
0.526632
0.525422
0.549278
0.616205
0.661444
0.768273
1.15745
1.61051
2.04964
1.90783
1.65946
1.40927
1.23143
1.23985
1.49031
1.79493
2.09495
2.35448
2.67172
2.69459
2.22844
1.84526
1.84748
2.04696
2.11204
2.10364
1.76582
1.55166
1.58951
1.62962
1.54164
1.59647
1.85809
1.87623
2.2645
2.23106
2.24164
2.22914
2.12784
2.17885
2.43057
3.05477
2.93625
2.716
2.7265
2.84085
2.8035
2.60125
2.84683
3.02697
2.2849
1.7629
1.69447
1.82102
1.93539
1.82612
1.59924
1.33343
1.10455
1.01902
1.03454
1.21295
7.8444
2.42099
0.560919
0.273714
0.242676
0.250993
0.268673
0.290556
0.303983
0.295053
0.262767
0.250476
0.263056
0.321132
0.34817
0.341673
0.314497
0.285506
0.264063
0.242736
0.228932
0.217369
0.197739
0.173517
0.156499
0.1442
0.137191
0.133465
0.132223
0.132782
0.13622
0.145987
0.152008
0.154283
0.154776
0.153661
0.153746
0.155282
0.159178
0.163677
0.167964
0.171787
0.175405
0.1782
0.17974
0.179817
0.178947
0.178426
0.178482
0.178746
0.178949
0.18179
0.191006
0.197489
0.199786
0.202015
0.203874
0.205075
0.205281
0.199838
0.193829
0.190834
0.190323
0.192302
0.204893
0.213172
0.213585
0.205184
0.191937
0.183124
0.174954
0.171164
0.171287
0.177363
0.184169
0.192192
0.1985
0.202982
0.203543
0.198533
0.194936
0.186448
0.180178
0.175595
0.174576
0.178835
0.193331
0.203733
0.205137
0.203245
0.205597
0.219851
0.239182
0.280236
0.400154
0.805689
1.2142
1.28828
1.25561
1.17811
0.98662
0.791946
0.717254
0.708085
0.72196
0.657494
0.491273
0.45684
0.452887
0.467549
0.494209
0.51315
0.517967
0.509916
0.497509
0.494257
0.492955
0.482702
0.480104
0.475864
0.492433
0.518789
0.584072
0.691095
0.925705
1.38433
1.8979
1.81348
1.82649
1.54287
1.29055
1.28619
1.48338
1.82724
2.31494
2.46498
2.80318
2.73612
2.17819
1.8207
1.84718
2.0539
2.20356
2.20367
1.90955
1.62928
1.59921
1.59092
1.52644
1.67688
1.83264
1.83593
2.03943
2.09287
2.30139
2.27613
2.10029
2.16578
2.32463
2.99448
2.89401
2.66547
2.73369
2.85105
2.71509
2.40182
2.40657
2.59274
2.13334
1.74857
1.74519
1.94221
1.9885
1.93273
1.81042
1.45545
1.12396
0.998499
0.975543
1.06957
9.25858
2.57612
0.634455
0.37375
0.344825
0.343129
0.345168
0.34143
0.331444
0.308233
0.26528
0.24999
0.262789
0.302018
0.312138
0.286553
0.249621
0.251776
0.252885
0.235376
0.208602
0.190884
0.180676
0.167503
0.153919
0.143112
0.137051
0.133973
0.133139
0.13412
0.142829
0.150533
0.152833
0.152558
0.150607
0.149748
0.150126
0.152569
0.155759
0.157783
0.158852
0.159717
0.161448
0.165326
0.168406
0.169149
0.16847
0.168085
0.16913
0.170088
0.168723
0.166654
0.166971
0.170661
0.172826
0.172373
0.173926
0.187161
0.204449
0.208938
0.207748
0.199551
0.194849
0.194879
0.196812
0.210032
0.216996
0.217453
0.209953
0.193902
0.177923
0.166858
0.160952
0.158558
0.159102
0.164102
0.172051
0.177886
0.183602
0.184976
0.187473
0.186603
0.178274
0.17256
0.171029
0.174907
0.196377
0.203274
0.20553
0.202994
0.202885
0.208836
0.231738
0.290052
0.443055
0.837307
1.16919
1.20366
1.05202
0.974187
0.87139
0.740689
0.694826
0.69178
0.689526
0.598748
0.459045
0.430342
0.431213
0.463151
0.49045
0.509287
0.508924
0.484277
0.455468
0.446482
0.435422
0.421067
0.438011
0.436549
0.450769
0.441256
0.504673
0.613126
0.708725
0.958428
1.29452
1.57688
1.79383
1.91986
1.55366
1.4763
1.53438
1.80579
2.56992
2.41512
2.22851
2.12178
1.90098
1.82231
1.93026
2.47136
2.4244
2.37502
2.11212
1.79317
1.7277
1.68753
1.56695
1.718
1.80331
1.84164
2.02474
2.07464
2.50483
2.32348
2.05435
2.17649
2.29841
2.93892
2.82494
2.58667
2.68786
2.87858
2.68549
2.33553
2.2028
2.20488
1.8903
1.69804
1.77608
1.96182
1.99718
1.95273
1.84664
1.54253
1.17697
0.999119
0.956992
1.00412
11.0501
2.79992
0.826558
0.621469
0.637343
0.658905
0.652691
0.613211
0.548545
0.469157
0.353519
0.291672
0.275864
0.279387
0.275563
0.263388
0.255528
0.242907
0.220336
0.197458
0.183988
0.173288
0.16134
0.154858
0.148335
0.140977
0.136023
0.133526
0.13348
0.137246
0.147249
0.151891
0.152563
0.15053
0.148188
0.147888
0.148503
0.149815
0.150387
0.150451
0.150588
0.151162
0.152415
0.153637
0.156316
0.161126
0.162906
0.163184
0.163966
0.167123
0.167429
0.165734
0.165578
0.169134
0.170342
0.165777
0.160679
0.160837
0.174987
0.199135
0.202623
0.200914
0.19171
0.189059
0.191616
0.199663
0.21007
0.216046
0.218425
0.217684
0.202899
0.17844
0.163154
0.155446
0.153656
0.15373
0.15759
0.162497
0.168344
0.170233
0.171784
0.172318
0.169436
0.167833
0.16847
0.171857
0.19563
0.203038
0.20537
0.203271
0.202753
0.207597
0.23148
0.308878
0.507517
0.848764
1.08453
1.10818
0.951281
0.820939
0.756799
0.675968
0.640025
0.623619
0.599783
0.517699
0.432485
0.415939
0.424729
0.46468
0.482997
0.481963
0.469798
0.429433
0.403498
0.399598
0.391868
0.395205
0.409595
0.40304
0.395659
0.400799
0.432346
0.564355
0.629216
0.824145
1.02171
1.20585
1.36986
1.99472
1.98265
1.87434
1.69669
1.87917
2.44161
2.04715
1.93348
1.93274
1.88534
1.94316
2.329
2.63065
2.49086
2.3926
2.30403
1.99895
1.9018
1.79683
1.60411
1.71425
1.76039
1.87212
2.16461
2.19061
2.59926
2.26212
1.98898
2.18023
2.30088
2.9454
2.75426
2.49475
2.5574
2.87555
2.67845
2.33914
2.15176
1.97042
1.70469
1.63506
1.77219
1.86383
1.90703
1.90062
1.81209
1.5569
1.23295
1.02207
0.952806
0.978058
13.4801
3.37837
1.32404
1.29096
1.20805
1.07796
0.999851
0.947357
0.899346
0.859196
0.749283
0.543884
0.368076
0.317862
0.308213
0.287637
0.264846
0.225332
0.204655
0.182536
0.172215
0.165722
0.158169
0.153144
0.146981
0.139893
0.135103
0.13346
0.133915
0.138242
0.147366
0.151244
0.15122
0.148728
0.147116
0.146993
0.14726
0.14742
0.147248
0.147383
0.14799
0.149264
0.150143
0.150538
0.151004
0.15375
0.160187
0.162618
0.164969
0.171364
0.174821
0.174868
0.173186
0.17297
0.178392
0.178646
0.168198
0.161763
0.16257
0.180666
0.195263
0.193283
0.181316
0.172328
0.171047
0.177976
0.196959
0.209411
0.218335
0.220641
0.220526
0.209627
0.18575
0.167339
0.156106
0.153254
0.155033
0.160853
0.166871
0.16868
0.168214
0.167479
0.166113
0.16611
0.167032
0.170125
0.184975
0.201866
0.206659
0.205314
0.204059
0.208563
0.237864
0.347202
0.58789
0.839916
0.976308
0.992489
0.872737
0.746331
0.689092
0.622571
0.576901
0.559297
0.544022
0.478387
0.414844
0.404401
0.428568
0.46085
0.463369
0.461831
0.446323
0.400041
0.378669
0.371874
0.373234
0.382924
0.407699
0.401335
0.369323
0.368268
0.35771
0.467416
0.564174
0.718561
1.00888
0.939904
0.961279
1.66765
2.1901
2.2491
1.8813
1.97203
1.84722
1.79518
1.88374
1.93349
1.97115
2.13191
2.5915
2.7352
2.57826
2.11827
2.20711
2.01849
1.91375
1.7839
1.59852
1.61626
1.69596
1.86778
2.36912
2.35607
2.44101
1.91861
1.87993
2.15667
2.31108
3.02058
2.71191
2.40917
2.40739
2.79093
2.67128
2.38975
2.18006
1.93186
1.62725
1.57126
1.64228
1.55672
1.51046
1.6941
1.76925
1.57434
1.28974
1.05228
0.958672
0.974838
15.9922
4.73515
2.71206
2.07419
1.63773
1.31757
1.14964
1.01958
0.956472
0.936339
0.912423
0.864179
0.745348
0.604049
0.473565
0.363194
0.285713
0.227794
0.201715
0.181225
0.172242
0.166049
0.158722
0.153504
0.148008
0.141597
0.136399
0.134341
0.134523
0.137891
0.146138
0.149127
0.149088
0.147395
0.14633
0.145997
0.145892
0.145642
0.145804
0.146223
0.148155
0.149086
0.149265
0.149395
0.149771
0.152528
0.162453
0.169291
0.17851
0.190055
0.19868
0.200291
0.19876
0.195352
0.19505
0.195809
0.188765
0.175001
0.171425
0.177465
0.194468
0.195482
0.184523
0.169694
0.165034
0.165771
0.178137
0.205086
0.216198
0.217866
0.222029
0.222977
0.21833
0.194629
0.172957
0.161975
0.160431
0.164514
0.169626
0.171175
0.169702
0.167451
0.166031
0.166297
0.167915
0.171139
0.177637
0.199476
0.208067
0.209229
0.207507
0.212303
0.245269
0.380239
0.652202
0.838146
0.90949
0.893869
0.807929
0.700861
0.632222
0.57192
0.545329
0.537685
0.525934
0.456418
0.400065
0.395527
0.434932
0.448153
0.448168
0.450923
0.440739
0.393416
0.365128
0.362101
0.369378
0.383627
0.410437
0.41535
0.364673
0.349682
0.336867
0.385473
0.519364
0.552491
0.941681
0.902135
0.858319
1.03868
2.059
2.2188
1.91405
1.90841
1.55804
1.70439
1.90875
2.02234
2.08799
2.37079
2.75378
2.88203
2.51385
1.65422
1.59858
1.77279
1.82496
1.73472
1.54297
1.48722
1.58161
1.81421
2.39655
2.38787
1.97757
1.686
1.76226
2.10401
2.32544
3.11426
2.68859
2.34565
2.26549
2.56901
2.61245
2.40118
2.25828
2.02966
1.62121
1.46862
1.43605
1.34423
1.26994
1.43307
1.73199
1.6151
1.34233
1.10307
0.993142
0.98897
17.8178
7.3523
3.93984
2.32392
1.6516
1.26849
1.07706
0.908166
0.839251
0.835661
0.841257
0.855791
0.833211
0.788062
0.727273
0.594731
0.36195
0.252003
0.208417
0.185109
0.175195
0.168094
0.159924
0.1531
0.147352
0.141015
0.13575
0.133626
0.133634
0.135333
0.141245
0.143812
0.144214
0.143988
0.144169
0.145113
0.145646
0.145946
0.146158
0.146846
0.149977
0.151352
0.151397
0.151733
0.154885
0.16691
0.184689
0.200031
0.208821
0.210028
0.209355
0.207141
0.203206
0.201624
0.204777
0.208882
0.20672
0.19228
0.186408
0.187919
0.205222
0.214685
0.208232
0.184087
0.172259
0.170461
0.175065
0.20484
0.230164
0.233689
0.226828
0.220342
0.218582
0.213907
0.192978
0.175109
0.168989
0.171104
0.174131
0.174423
0.172053
0.167759
0.16651
0.165818
0.167757
0.175261
0.177644
0.192539
0.208588
0.214589
0.213422
0.216174
0.24734
0.385563
0.682986
0.835038
0.880781
0.840428
0.745832
0.649775
0.578469
0.535159
0.522964
0.522878
0.514507
0.442153
0.390862
0.390558
0.426567
0.436575
0.435757
0.437484
0.426982
0.380418
0.362187
0.364222
0.373388
0.385844
0.395171
0.406537
0.368138
0.336735
0.329129
0.332797
0.480797
0.522014
0.68442
0.851128
0.802531
0.806793
1.41654
1.7927
1.81863
1.66479
1.33982
1.63044
1.91179
2.15221
2.31321
2.52257
2.86493
2.63409
1.9457
1.43299
1.46937
1.79449
1.80431
1.59017
1.44715
1.41123
1.52437
1.7139
2.33875
2.3396
1.86963
1.6626
1.71096
2.05282
2.38911
3.2337
2.69614
2.31542
2.19923
2.33173
2.43667
2.34242
2.2587
2.1499
1.6356
1.42163
1.37626
1.2793
1.22822
1.31163
1.65362
1.72275
1.45887
1.21685
1.0659
1.03191
19.2452
8.77615
3.87588
1.92312
1.35375
1.03193
0.826144
0.756527
0.751808
0.739411