/*--------------------------------*- C++ -*----------------------------------*\
| =========                 |                                                 |
| \\      /  F ield         | OpenFOAM: The Open Source CFD Toolbox           |
|  \\    /   O peration     | Version:  dev                                   |
|   \\  /    A nd           | Web:      http://www.openfoam.org               |
|    \\/     M anipulation  |                                                 |
\*---------------------------------------------------------------------------*/
FoamFile
{
    version     2.0;
    format      ascii;
    class       volScalarField;
    object      k_0;
    location    "9.136";
}
// * * * * * * * * * * * * * * * * * * * * * * * * * * * * * * * * * * * * * //

dimensions      [0 2 -2 0 0 0 0];

internalField   nonuniform List<scalar> 
12225
(
8.0083
9.1177
6.10512
6.22119
7.02227
8.42982
11.4353
12.8146
17.3698
18.6391
24.3476
25.7162
33.4057
32.2165
44.5416
31.6131
27.0568
70.9301
2.06964
6.86293
6.21098
7.4942
5.73617
8.10949
7.14875
8.98663
8.86138
10.3712
11.651
11.9419
14.8895
14.967
18.0915
21.3558
57.2903
61.644
0.220912
2.01687
2.40592
4.22545
3.16399
4.74478
3.85262
5.18571
4.4747
4.74393
6.20718
5.73896
7.90256
7.59605
11.5993
24.6762
61.9611
65.1649
0.0221706
0.470737
0.82347
1.72038
1.71384
2.02676
2.03266
2.3128
2.26206
1.94501
2.6832
2.74204
2.9622
3.81375
7.63721
18.9213
59.0447
92.9624
0.00566686
0.155455
0.258888
0.567163
0.78434
0.721667
0.867706
0.893149
1.12418
1.07497
1.28182
1.28122
2.34871
2.8212
4.22182
10.8506
34.9953
85.5138
0.00208848
0.0504758
0.0821972
0.172203
0.365114
0.336609
0.471865
0.782984
0.894459
0.835536
1.15324
1.37658
1.81212
1.77517
3.16227
5.59656
16.2383
52.7405
0.00304874
0.0191171
0.23231
0.199842
0.502603
0.516799
0.522744
0.750815
0.951034
1.28216
0.958801
1.11315
1.65809
1.80936
2.48067
3.34138
7.91759
20.1801
0.0162347
0.143881
0.408425
0.349099
0.518686
0.553765
0.617536
0.691652
0.945997
1.07256
1.16347
1.03959
1.61542
1.7786
2.16417
2.3127
4.26865
6.48368
0.0397486
0.336858
0.384164
0.376215
0.468875
0.488562
0.639865
0.49757
0.646815
0.712636
1.03616
0.722691
1.06934
1.16746
2.03462
1.59716
2.89552
2.75014
0.0197256
0.14125
0.209136
0.319589
0.372361
0.360522
0.444807
0.377115
0.402603
0.427309
0.535502
0.437075
0.518943
0.575382
1.03286
0.897706
1.89311
1.38038
0.00886499
0.0390129
0.090749
0.157123
0.308966
0.312736
0.334478
0.316007
0.305988
0.304424
0.33946
0.326389
0.344764
0.360683
0.497666
0.484151
0.822661
0.69306
0.0187773
0.0272606
0.058925
0.112417
0.217033
0.240502
0.264741
0.266773
0.266531
0.270153
0.286417
0.297965
0.297485
0.305171
0.339699
0.350169
0.424963
0.409632
0.0505161
0.0452873
0.0679296
0.115586
0.181262
0.21625
0.237628
0.248308
0.260934
0.26945
0.281433
0.292737
0.296047
0.302414
0.312876
0.31746
0.333736
0.339574
0.106639
0.121618
0.134222
0.154909
0.192408
0.229806
0.248481
0.263567
0.279769
0.29761
0.306072
0.31618
0.321401
0.328252
0.331874
0.332079
0.336873
0.339698
0.2071
0.210587
0.230343
0.270008
0.284148
0.327722
0.348556
0.381797
0.413885
0.443219
0.451723
0.460133
0.463495
0.466341
0.462977
0.457652
0.447572
0.433729
0.398119
0.363707
0.376823
0.395003
0.411986
0.449558
0.483825
0.518593
0.546811
0.564905
0.57162
0.574201
0.573505
0.571531
0.567236
0.559122
0.540897
0.523058
0.529241
0.442816
0.444896
0.452592
0.463431
0.492915
0.532466
0.568277
0.594989
0.609717
0.615234
0.61602
0.614415
0.611915
0.606695
0.596981
0.575915
0.557289
0.525888
0.445267
0.449715
0.456696
0.466795
0.494032
0.53363
0.569884
0.597233
0.612541
0.61824
0.618974
0.617696
0.615415
0.610016
0.600374
0.579366
0.56067
0.456904
0.403573
0.414123
0.423144
0.434847
0.461815
0.50015
0.536937
0.566318
0.583979
0.591205
0.592785
0.592208
0.590482
0.585656
0.577351
0.558899
0.541518
0.304329
0.277577
0.293048
0.305153
0.319623
0.348372
0.388281
0.430199
0.466653
0.491696
0.505057
0.509939
0.511046
0.510564
0.508134
0.50389
0.493626
0.481397
0.181783
0.166066
0.175899
0.183955
0.196266
0.213552
0.237506
0.262576
0.287234
0.308194
0.322907
0.332828
0.337022
0.33946
0.341656
0.343045
0.343904
0.342296
0.102374
0.0981575
0.107736
0.113958
0.117733
0.123596
0.135829
0.152747
0.174794
0.194786
0.210182
0.22001
0.224184
0.225781
0.226308
0.22618
0.225096
0.222845
0.0518215
0.0512642
0.0570237
0.0628271
0.0684505
0.0713185
0.0761114
0.0857317
0.102128
0.117546
0.130056
0.139283
0.145639
0.150968
0.155736
0.160297
0.164281
0.167016
0.0241695
0.0246523
0.0266569
0.0307645
0.0366771
0.0428707
0.050814
0.0640476
0.0807145
0.0958253
0.107589
0.116478
0.123762
0.130477
0.137205
0.143966
0.150055
0.155947
0.00990258
0.010732
0.013989
0.0208757
0.0304452
0.0420409
0.0549688
0.0753099
0.0972898
0.115211
0.127424
0.135925
0.143645
0.151082
0.159189
0.167652
0.175442
0.183218
0.00184611
0.00586108
0.0157345
0.0366977
0.0665638
0.102858
0.140729
0.187882
0.228142
0.25359
0.265792
0.271468
0.279864
0.28876
0.30031
0.312663
0.32459
0.335418
0.00184315
0.0237765
0.0884561
0.217239
0.349609
0.476728
0.582517
0.674426
0.733657
0.759447
0.766004
0.766973
0.775546
0.787653
0.803941
0.819724
0.831233
0.83427
0.020446
0.305931
0.847548
1.31097
1.63759
1.88334
2.03724
2.11144
2.12461
2.11501
2.09503
2.07549
2.06564
2.0557
2.04283
2.01785
1.97306
1.91568
0.486584
3.2349
4.70574
5.17104
5.17634
5.09044
4.94894
4.80705
4.69084
4.61357
4.53251
4.4528
4.37789
4.27233
4.14467
3.99126
3.84682
3.59163
6.48265
9.76018
8.61447
7.2782
6.68875
6.73748
7.10809
7.69112
8.32624
8.93557
9.46285
9.9088
10.2644
10.5064
10.6641
10.7479
10.6825
10.1176
0.113862
0.194971
0.260875
0.328967
0.353278
0.371294
0.393839
0.420307
0.450773
0.495387
0.561869
0.645196
0.737047
0.820039
0.925572
1.06768
1.18428
1.29609
1.44373
1.55498
1.6341
1.80527
2.13619
2.42363
2.569
2.63562
2.6952
2.79903
3.05827
3.40837
3.78484
4.16836
4.58299
5.05734
5.58866
6.15284
6.72658
7.28929
7.82966
8.34264
8.83059
9.29369
9.72786
10.1426
10.5417
10.9163
11.2608
11.5819
11.8864
12.1617
12.4025
12.6006
12.7575
12.9031
12.9928
13.0344
13.0246
12.9892
12.9205
12.8118
12.7088
12.6069
12.5177
12.4689
12.3875
12.2504
12.0953
11.9036
11.6657
11.4086
11.1298
10.8552
10.5781
10.2785
9.92346
9.50547
9.03715
8.56071
8.13095
7.69447
7.24806
6.75973
6.28496
5.87103
5.53252
5.24004
4.99416
4.77123
4.51854
4.21782
3.83169
3.36584
2.96923
2.71913
2.55942
2.46568
2.32586
2.23586
2.21992
2.23388
2.18339
2.12899
2.16574
2.29598
2.35208
2.27146
4.05316
6.42009
7.02681
7.07095
6.52845
5.6736
4.63706
3.71352
2.92319
2.41819
2.09642
1.82481
1.82419
1.98429
2.20247
2.57818
2.97391
3.73017
3.92143
4.47758
5.22394
6.06349
6.76924
7.23677
7.67676
8.30779
8.98415
9.75289
10.5457
11.3177
11.9632
12.3858
12.8067
13.2497
13.637
13.646
13.5075
13.1837
12.6083
12.3423
11.9354
11.0312
10.5846
9.80753
8.7514
7.87513
6.83442
5.91373
5.4854
5.40068
5.24225
5.29076
5.3668
4.80768
4.55635
5.25423
6.61045
7.777
8.66913
9.51733
10.2552
11.0934
12.2867
14.6996
17.4432
18.9438
20.0583
20.5513
20.8133
21.5988
22.0787
18.9962
18.0936
17.869
0.402412
0.520586
0.558475
0.496727
0.398722
0.33692
0.281877
0.244766
0.218872
0.198628
0.18471
0.184862
0.18988
0.201481
0.225556
0.262365
0.310613
0.379413
0.435456
0.50323
0.549999
0.591396
0.704049
0.86129
0.910875
0.89133
0.840802
0.849334
0.967309
1.58257
2.28417
2.81813
3.20879
3.46845
3.65098
3.7909
3.84195
3.83393
3.78516
3.71982
3.63608
3.56488
3.4876
3.4038
3.33159
3.26039
3.16934
3.08793
3.01429
2.92207
2.79697
2.66817
2.52649
2.36986
2.18026
2.0167
1.87619
1.78645
1.72068
1.67966
1.67191
1.68715
1.74783
1.91756
2.03459
2.08266
2.15691
2.18315
2.18081
2.18151
2.19105
2.23587
2.33162
2.38843
2.38484
2.30154
2.10124
1.98535
1.94319
1.89049
1.80935
1.65249
1.54082
1.494
1.48943
1.51421
1.6015
1.73304
1.79952
1.79924
1.7041
1.40402
1.11842
1.00577
0.995506
1.02937
1.02621
1.00469
1.04945
1.18034
1.3113
1.48199
1.95273
3.08925
4.59144
4.83394
4.78178
4.69398
3.45176
2.85987
2.18238
1.80101
1.59834
1.5388
1.53604
1.54736
1.59577
1.70603
1.96493
2.53752
2.92054
3.0458
2.80088
2.53912
2.52154
2.5618
2.69367
2.97801
3.43831
3.96671
4.29794
4.50292
4.65529
4.78834
4.99456
5.27017
5.55653
5.5484
5.44196
5.4632
5.68725
5.84491
5.80045
5.75113
5.58706
5.58477
5.8557
5.87339
5.94098
6.31464
6.41562
6.357
6.12016
5.55785
5.2167
5.20211
5.11394
5.0211
5.11581
4.74386
3.92835
3.88415
4.32413
4.84056
5.30991
5.99826
6.94167
8.46923
10.7619
11.6922
10.8147
10.126
9.81419
9.52052
10.0727
9.71693
7.46445
6.24427
6.56883
7.23005
0.985392
1.0349
0.769142
0.509211
0.33667
0.244919
0.204515
0.190928
0.184318
0.179085
0.174871
0.171969
0.170054
0.16638
0.159363
0.159351
0.163337
0.177588
0.189836
0.208344
0.231922
0.277015
0.416514
0.548151
0.668774
0.988377
1.38724
1.56673
1.63342
1.83721
1.9486
1.93782
1.86542
1.76897
1.64828
1.52572
1.40064
1.27397
1.15879
1.05255
0.955545
0.874971
0.804097
0.736097
0.68401
0.6348
0.584778
0.545698
0.504533
0.466321
0.431966
0.397642
0.360838
0.326894
0.300393
0.284597
0.274926
0.270855
0.271035
0.276515
0.289321
0.307861
0.33621
0.380999
0.415688
0.438084
0.471115
0.486353
0.492619
0.506582
0.524174
0.567464
0.651597
0.70264
0.712814
0.69284
0.621128
0.591037
0.58895
0.587251
0.575325
0.533857
0.510677
0.508676
0.520144
0.564124
0.642826
0.771281
0.914386
0.995516
1.00199
0.942678
0.754036
0.63337
0.590841
0.595104
0.597231
0.630844
0.74199
0.904364
1.25603
2.12974
3.5083
4.34562
4.29181
3.67615
2.71314
1.87783
1.5085
1.25085
1.08219
1.03854
1.05433
1.1502
1.26042
1.35005
1.459
1.766
2.28478
2.90739
3.14416
2.92983
2.56068
2.214
2.198
2.08249
1.96802
1.9901
2.09229
2.34542
2.54505
2.68256
2.74963
2.75957
2.77657
2.83581
3.01817
3.05526
2.99107
2.99033
3.08384
3.19918
3.18688
3.16698
3.07795
3.08146
3.29892
3.35233
3.39779
3.71525
4.06858
4.3575
4.82155
4.78186
4.41323
4.41182
4.39542
4.227
4.23227
4.05727
3.28019
3.05771
3.17895
3.52934
4.01607
4.82386
6.08489
7.65488
8.16453
7.35437
5.69209
5.235
4.77988
4.52309
5.10616
4.98413
3.27103
2.77108
3.10297
3.37778
1.89438
1.46566
0.742529
0.351232
0.220834
0.189166
0.180691
0.181655
0.189124
0.207606
0.21862
0.218537
0.214678
0.203915
0.185351
0.169438
0.164528
0.165332
0.170678
0.187251
0.229332
0.324198
0.752635
1.11494
1.1925
1.24867
1.36625
1.40521
1.39122
1.2518
1.12067
0.996455
0.86648
0.763487
0.658864
0.566734
0.489882
0.427217
0.376291
0.334948
0.302898
0.276079
0.256701
0.239255
0.228233
0.218374
0.209391
0.202104
0.195751
0.190264
0.185135
0.179862
0.173356
0.167793
0.162559
0.159562
0.158172
0.158135
0.159378
0.163479
0.169605
0.178771
0.193962
0.209176
0.216711
0.22451
0.234288
0.23886
0.240642
0.243424
0.247893
0.258262
0.29462
0.325916
0.336072
0.332194
0.308125
0.295963
0.2965
0.29748
0.295097
0.284033
0.279032
0.281815
0.295488
0.326519
0.364844
0.425251
0.506165
0.605481
0.662241
0.674312
0.653442
0.57331
0.487544
0.455764
0.483004
0.578273
0.837105
1.30931
2.17366
3.1551
3.61125
3.55936
2.84416
1.89246
1.3326
1.06863
0.94375
0.881485
0.864352
0.88111
0.965998
1.10551
1.23011
1.31834
1.40824
1.67896
2.24644
2.51909
2.32248
1.77276
2.20658
2.30995
2.23621
1.92789
1.68297
1.68076
1.7375
1.88023
1.9732
2.03757
2.06043
2.02978
2.02349
2.04665
2.1256
2.20854
2.21134
2.23429
2.26315
2.25966
2.23149
2.21472
2.16983
2.17869
2.27753
2.29364
2.3319
2.56657
2.77763
2.94861
3.51966
3.68268
3.52463
3.52396
3.72509
3.85352
3.86975
3.68934
3.01387
2.79944
2.84721
3.14428
3.77583
4.58344
5.73375
6.31959
5.95169
4.03458
3.39037
3.20451
2.74112
2.66687
2.99425
3.08707
2.24879
2.01991
2.26102
2.61579
2.87722
1.60025
0.521401
0.237647
0.186412
0.183997
0.194714
0.226526
0.254828
0.265287
0.267833
0.268409
0.266982
0.264371
0.258398
0.23951
0.220147
0.219385
0.229125
0.269028
0.468922
0.811285
1.04554
1.11329
1.1022
1.04275
0.982301
0.892548
0.804687
0.677696
0.571422
0.476635
0.392449
0.334092
0.282855
0.243804
0.217488
0.199289
0.186483
0.178119
0.172961
0.17036
0.169111
0.168541
0.168933
0.170452
0.171965
0.172969
0.17334
0.173245
0.172226
0.169034
0.164358
0.159713
0.15535
0.149781
0.145385
0.14337
0.142941
0.143367
0.145295
0.150086
0.159578
0.170895
0.177007
0.179145
0.183078
0.186919
0.189745
0.190666
0.191099
0.193065
0.202737
0.220405
0.22732
0.227103
0.220302
0.215494
0.215885
0.216957
0.216553
0.214675
0.215499
0.220588
0.235392
0.256137
0.272237
0.300657
0.345943
0.402068
0.448406
0.463171
0.455731
0.446157
0.413092
0.414721
0.47799
0.763382
1.38352
1.91402
2.58553
2.99291
2.96674
2.29049
1.45948
1.08968
0.900266
0.828227
0.798918
0.787748
0.793583
0.842433
0.956205
1.10957
1.22971
1.30366
1.40464
1.57111
1.70371
1.62153
1.26703
1.28977
2.13935
2.6565
2.33013
1.84758
1.55129
1.55071
1.60397
1.74585
1.80249
1.80406
1.78047
1.74235
1.77612
1.82044
1.85486
1.89375
1.94482
1.98785
1.97939
1.91756
1.87368
1.85753
1.8335
1.82966
1.83804
1.82936
1.91243
2.11322
2.22706
2.37335
2.70611
3.01329
2.95236
2.92052
3.03971
3.41605
3.61361
3.53283
2.9559
2.7091
2.70827
3.044
3.76906
4.33521
4.9922
5.2389
4.30007
2.68137
2.25678
2.08912
2.01489
2.01795
2.1769
2.27003
1.961
1.80387
1.96006
2.38943
3.65951
1.52309
0.410756
0.20632
0.187779
0.205792
0.238624
0.270202
0.280855
0.286933
0.301253
0.318233
0.328152
0.337474
0.343548
0.350094
0.362564
0.394213
0.458857
0.578622
0.728094
0.883179
0.937086
0.85224
0.768904
0.700011
0.620513
0.531663
0.450094
0.369259
0.298809
0.246791
0.212667
0.191089
0.174696
0.164834
0.160885
0.160881
0.162647
0.164659
0.167505
0.170837
0.17447
0.177991
0.180763
0.182924
0.185066
0.185989
0.185923
0.184731
0.18265
0.17875
0.172763
0.167337
0.160159
0.15551
0.148816
0.144448
0.142433
0.14186
0.142076
0.143804
0.148777
0.158864
0.167124
0.169924
0.170445
0.171245
0.174536
0.178884
0.179367
0.179916
0.182273
0.191237
0.198258
0.199388
0.197651
0.193039
0.191558
0.191281
0.190782
0.191454
0.193831
0.199678
0.212632
0.228172
0.243435
0.259848
0.282156
0.308945
0.320504
0.323859
0.32325
0.335814
0.358991
0.415146
0.595433
1.13477
1.6885
2.1133
2.46987
2.48753
2.02301
1.31788
0.968842
0.834216
0.785977
0.769186
0.756855
0.749055
0.762455
0.822451
0.94061
1.07016
1.17935
1.30655
1.44158
1.47766
1.43751
1.16605
0.97126
1.10633
1.81255
2.40395
2.02324
1.83692
1.4698
1.43411
1.44772
1.53864
1.60469
1.614
1.58255
1.64064
1.74423
1.79708
1.77182
1.76225
1.84875
1.8854
1.85171
1.78385
1.76894
1.74161
1.68595
1.59079
1.56776
1.62344
1.77813
1.8595
1.96203
2.26913
2.41669
2.6084
2.60696
2.57069
2.63973
2.90856
3.3487
3.40149
2.97051
2.66803
2.62886
3.01326
3.7223
4.07808
4.29196
4.27174
3.22279
2.09762
1.82906
1.72988
1.67788
1.69952
1.80171
1.81982
1.73886
1.64705
1.7965
2.16598
4.31979
1.54269
0.381364
0.203483
0.195133
0.220334
0.259181
0.29811
0.315434
0.323451
0.330724
0.343526
0.357212
0.370335
0.386577
0.410702
0.443849
0.490368
0.545741
0.628174
0.71874
0.732036
0.645604
0.571746
0.506684
0.450904
0.382695
0.315586
0.256629
0.216043
0.187195
0.168737
0.158076
0.154516
0.154947
0.156848
0.16032
0.166042
0.172858
0.180473
0.188417
0.196694
0.203978
0.20995
0.215041
0.217978
0.219969
0.220908
0.220987
0.220075
0.216918
0.212556
0.206058
0.199159
0.189641
0.182694
0.174531
0.166802
0.159207
0.155436
0.153083
0.152238
0.152405
0.155613
0.164406
0.169173
0.169547
0.169616
0.170407
0.17463
0.179395
0.179123
0.179974
0.186955
0.195831
0.197901
0.196593
0.18936
0.184888
0.183767
0.18369
0.183844
0.184342
0.18642
0.192204
0.208244
0.233138
0.245171
0.249436
0.248476
0.245852
0.248929
0.263033
0.288863
0.332068
0.450012
0.786108
1.32028
1.77346
2.11104
2.14478
1.8912
1.35406
0.931053
0.8007
0.76019
0.750317
0.737543
0.690958
0.677187
0.687196
0.749429
0.837161
0.912672
1.02733
1.22083
1.39178
1.43957
1.33345
0.971488
0.8167
0.830736
1.06579
1.52635
1.82023
1.92268
1.50431
1.38475
1.3707
1.362
1.422
1.44179
1.49469
1.64819
1.78766
1.83647
1.75328
1.72296
1.82554
1.84127
1.78281
1.75405
1.75821
1.72503
1.5545
1.44202
1.44242
1.57802
1.6272
1.64599
1.84353
2.43456
2.44085
2.39508
2.39437
2.35555
2.39011
2.53723
3.05664
3.26747
2.97321
2.66781
2.59661
2.96858
3.57271
3.85701
3.96492
3.77407
2.78139
2.0672
1.82985
1.65321
1.55301
1.56345
1.53883
1.49092
1.46231
1.45518
1.66067
1.97531
4.97433
1.5983
0.380732
0.205064
0.201389
0.232038
0.266246
0.30614
0.326424
0.333168
0.336657
0.346787
0.365339
0.385249
0.406549
0.429588
0.455957
0.491437
0.530059
0.544363
0.52504
0.476147
0.419673
0.376972
0.329898
0.28252
0.239792
0.200894
0.173823
0.159147
0.149732
0.14624
0.146715
0.150039
0.155575
0.162379
0.168726
0.175146
0.181295
0.187798
0.194489
0.201558
0.208274
0.214184
0.21931
0.223651
0.226311
0.22775
0.227924
0.227783
0.226883
0.223412
0.21891
0.212664
0.204504
0.196167
0.186987
0.182055
0.176866
0.175166
0.174033
0.17412
0.172369
0.170177
0.17032
0.174181
0.17509
0.173917
0.173294
0.175916
0.180794
0.183231
0.18408
0.190208
0.202132
0.205591
0.204194
0.193669
0.185073
0.183266
0.183091
0.182284
0.180349
0.180502
0.184055
0.193685
0.209095
0.216653
0.215871
0.214619
0.217091
0.227846
0.250329
0.275127
0.327889
0.5064
1.00248
1.42279
1.74893
1.88341
1.81346
1.43234
0.975111
0.790398
0.744712
0.736661
0.729494
0.666826
0.594259
0.579863
0.576828
0.597173
0.637224
0.663405
0.73956
0.886403
1.04747
1.10939
1.01769
0.744851
0.669579
0.718625
0.862255
1.25214
1.7242
1.96349
1.62096
1.39729
1.38244
1.31488
1.29582
1.32185
1.48515
1.71831
1.89979
1.89549
1.75586
1.74174
1.83258
1.80927
1.7633
1.79845
1.82102
1.77741
1.53375
1.4085
1.42758
1.56724
1.52452
1.52461
1.82536
2.53301
2.54269
2.31703
2.27389
2.20819
2.21685
2.30876
2.76503
3.12157
2.94972
2.66311
2.58992
2.88636
3.30453
3.47618
3.73891
3.60093
2.5367
2.01178
1.78566
1.61465
1.5461
1.57267
1.45565
1.32917
1.22748
1.21295
1.36357
1.5343
5.98638
2.05015
0.507427
0.223972
0.200564
0.21952
0.24928
0.289712
0.325432
0.339638
0.343902
0.348448
0.363423
0.382214
0.398008
0.410652
0.410895
0.407549
0.408246
0.385459
0.349724
0.321288
0.287126
0.254967
0.226563
0.193703
0.170721
0.15381
0.144256
0.139508
0.138954
0.141225
0.146099
0.153191
0.158838
0.164455
0.169216
0.173569
0.176863
0.180264
0.184298
0.188645
0.193496
0.198542
0.204905
0.211746
0.219229
0.223596
0.224765
0.224916
0.224273
0.220492
0.215985
0.209604
0.202505
0.194103
0.184812
0.178162
0.175987
0.176003
0.177807
0.183491
0.189663
0.19204
0.189618
0.186441
0.185307
0.183874
0.180935
0.180514
0.184951
0.190449
0.192317
0.194858
0.202455
0.205942
0.205495
0.199176
0.188759
0.185312
0.184597
0.182717
0.177974
0.177583
0.182389
0.190625
0.196845
0.202185
0.202602
0.204061
0.209829
0.227046
0.249658
0.272535
0.342356
0.615434
1.16216
1.46033
1.61099
1.60072
1.40109
1.07079
0.805
0.736044
0.723658
0.727707
0.68346
0.55858
0.518239
0.51177
0.522436
0.534785
0.543693
0.562894
0.591834
0.6279
0.669723
0.685048
0.656996
0.614985
0.612328
0.673141
0.756944
0.970539
1.47299
1.82317
1.83378
1.57803
1.45154
1.31174
1.22914
1.26339
1.49197
1.77519
2.00061
1.98509
1.89052
1.93101
1.88679
1.78086
1.78826
1.95863
1.98136
1.93091
1.56851
1.42545
1.51206
1.59197
1.50578
1.51083
1.84966
2.36458
2.53161
2.26414
2.18971
2.1411
2.11992
2.17062
2.53764
3.01468
2.90099
2.66685
2.61788
2.80414
2.99322
2.97259
3.35795
3.43362
2.39682
1.82295
1.65615
1.60944
1.62492
1.64359
1.45174
1.28514
1.10528
1.06659
1.11549
1.31415
6.98773
2.22655
0.52391
0.238409
0.210502
0.227292
0.254015
0.28799
0.312536
0.325785
0.317946
0.311601
0.326941
0.345076
0.349541
0.348187
0.336652
0.323231
0.299868
0.266897
0.245187
0.234234
0.219601
0.195567
0.174221
0.155014
0.143783
0.137308
0.134555
0.134545
0.136809
0.142598
0.150402
0.155738
0.159178
0.161424
0.161821
0.16198
0.163485
0.167765
0.172152
0.175884
0.179308
0.181845
0.184367
0.186534
0.189994
0.194421
0.200489
0.207937
0.212863
0.214688
0.215016
0.213413
0.206909
0.202077
0.196403
0.187662
0.181213
0.178649
0.178448
0.180081
0.189747
0.203625
0.209159
0.207986
0.199587
0.19039
0.184992
0.181387
0.181604
0.187681
0.191598
0.194009
0.198858
0.203344
0.204818
0.204762
0.2002
0.194293
0.191
0.183396
0.177926
0.175629
0.17818
0.186675
0.193513
0.200069
0.201182
0.202074
0.207286
0.225731
0.247901
0.274188
0.370968
0.742277
1.21639
1.40429
1.45435
1.37878
1.12882
0.872451
0.742489
0.714621
0.722472
0.717819
0.584563
0.487304
0.474955
0.480465
0.502346
0.508215
0.514151
0.525589
0.538481
0.547084
0.557061
0.555031
0.53349
0.531501
0.552833
0.622361
0.672744
0.790718
1.21703
1.64294
1.98473
1.82001
1.54313
1.32825
1.20017
1.23101
1.49234
1.78561
2.05497
2.24651
2.45375
2.46752
2.07486
1.78366
1.79536
1.99241
2.03325
1.99872
1.63103
1.48955
1.56757
1.60074
1.50289
1.55736
1.82218
1.86274
2.28609
2.18205
2.14753
2.13336
2.06708
2.09255
2.36597
2.93029
2.84451
2.65141
2.65706
2.7745
2.774
2.58898
2.85429
3.06586
2.31259
1.74441
1.64731
1.71746
1.83549
1.74803
1.51962
1.29103
1.08376
1.00647
1.02682
1.20503
8.23528
2.44849
0.562944
0.279328
0.249041
0.257192
0.274426
0.295267
0.307523
0.297204
0.26359
0.251685
0.265281
0.324862
0.350301
0.341795
0.312379
0.284362
0.263974
0.242563
0.228078
0.216145
0.196365
0.172506
0.156
0.144283
0.137759
0.134356
0.133305
0.134052
0.138292
0.148352
0.153677
0.155508
0.155566
0.154317
0.154476
0.156278
0.160261
0.16474
0.168962
0.172725
0.176295
0.178925
0.180312
0.180345
0.179456
0.179179
0.179378
0.179865
0.18063
0.184877
0.194507
0.200321
0.202066
0.203888
0.205217
0.205794
0.20498
0.197331
0.191736
0.189779
0.189882
0.193541
0.207853
0.214035
0.212726
0.201463
0.1892
0.181066
0.17365
0.171472
0.17307
0.180099
0.186761
0.194087
0.199879
0.203482
0.202941
0.197028
0.193316
0.183926
0.178337
0.174064
0.173412
0.179026
0.192816
0.201987
0.20261
0.200759
0.204138
0.220353
0.240086
0.28094
0.405172
0.820014
1.21607
1.28609
1.25687
1.18119
0.989472
0.79102
0.712075
0.702383
0.718835
0.665939
0.495713
0.455594
0.450543
0.462576
0.486958
0.504169
0.510474
0.507339
0.49963
0.496795
0.496683
0.487731
0.479193
0.476459
0.495401
0.531325
0.596038
0.70715
0.990394
1.46938
1.93138
1.79327
1.73818
1.41117
1.22543
1.24376
1.47311
1.85285
2.18484
2.37387
2.70634
2.63169
2.08197
1.75611
1.78727
1.983
2.09791
2.0765
1.75035
1.54238
1.54456
1.51684
1.48094
1.6401
1.79352
1.78538
1.99577
2.03275
2.15701
2.14743
2.0327
2.05009
2.22493
2.85117
2.79579
2.6016
2.67106
2.78024
2.67115
2.36756
2.40453
2.6241
2.16967
1.72554
1.68067
1.84592
1.91502
1.85978
1.72356
1.38959
1.09613
0.980287
0.963426
1.0677
9.67005
2.61135
0.645965
0.389274
0.360797
0.358609
0.359408
0.352892
0.339679
0.31349
0.268307
0.252767
0.266167
0.302706
0.310027
0.28242
0.248319
0.252582
0.252886
0.23375
0.206827
0.189512
0.179571
0.167038
0.153926
0.143552
0.137873
0.135054
0.134404
0.135892
0.145702
0.15243
0.154157
0.153397
0.151311
0.150512
0.150975
0.153644
0.156639
0.158482
0.159445
0.160358
0.16232
0.166298
0.169032
0.169529
0.168795
0.168615
0.169882
0.170436
0.168608
0.166939
0.167638
0.171717
0.173723
0.174014
0.177232
0.192871
0.206945
0.209671
0.207353
0.197953
0.194473
0.194841
0.198422
0.213051
0.218008
0.217278
0.205716
0.189155
0.174451
0.164727
0.159791
0.158481
0.16008
0.166894
0.174623
0.180605
0.185519
0.186258
0.188404
0.185521
0.17644
0.171077
0.16952
0.17466
0.196273
0.201647
0.203047
0.200284
0.200486
0.207903
0.232668
0.292085
0.447707
0.850024
1.17241
1.20122
1.05031
0.976698
0.872129
0.739026
0.691825
0.689576
0.691331
0.608131
0.460771
0.427683
0.426051
0.454101
0.48114
0.501956
0.504782
0.485913
0.458642
0.450122
0.442217
0.424145
0.437419
0.436236
0.454328
0.451784
0.517882
0.620194
0.747556
1.03866
1.46028
1.63696
1.78704
1.76575
1.40666
1.36706
1.4957
1.8258
2.46107
2.36015
2.30349
2.19424
1.85642
1.74469
1.83644
2.36792
2.33339
2.26317
1.9412
1.67049
1.60586
1.53841
1.50021
1.68683
1.76937
1.78623
1.9473
1.98922
2.29157
2.18819
1.99175
2.03351
2.15454
2.7652
2.72041
2.52493
2.6408
2.80919
2.62754
2.2741
2.16164
2.22611
1.92225
1.67318
1.70314
1.88518
1.92984
1.89382
1.79895
1.50567
1.14738
0.977189
0.940197
0.990677
11.4546
2.85584
0.860002
0.662186
0.682703
0.700358
0.691146
0.648394
0.580548
0.496736
0.367859
0.299173
0.2802
0.28217
0.277027
0.264533
0.257161
0.241613
0.217582
0.194508
0.183065
0.172734
0.161005
0.155002
0.148662
0.141468
0.136749
0.134581
0.134759
0.139614
0.149423
0.153407
0.153693
0.15114
0.148934
0.148703
0.149429
0.150597
0.150974
0.150935
0.151043
0.151696
0.152949
0.1543
0.157535
0.162223
0.163533
0.163654
0.164692
0.167512
0.167466
0.165605
0.165723
0.16948
0.169882
0.164363
0.16046
0.16156
0.181189
0.201633
0.203373
0.200864
0.191579
0.190151
0.193874
0.202458
0.212417
0.217275
0.218609
0.215967
0.195627
0.172928
0.159872
0.15373
0.15267
0.153306
0.158318
0.162963
0.168522
0.169988
0.172143
0.172634
0.168425
0.166825
0.167287
0.171546
0.196727
0.201615
0.202922
0.200346
0.200003
0.205867
0.2322
0.310992
0.511228
0.856702
1.08956
1.10802
0.946252
0.820326
0.756494
0.674568
0.639434
0.625773
0.604307
0.522907
0.431223
0.411837
0.416777
0.453793
0.475665
0.479622
0.472397
0.435867
0.406262
0.402716
0.395126
0.39535
0.407302
0.401205
0.397765
0.403322
0.452019
0.573977
0.644209
0.859557
1.04281
1.33752
1.52274
1.98076
1.79753
1.66329
1.61115
1.84069
2.42657
2.07209
1.93155
1.89853
1.8089
1.8325
2.2156
2.56942
2.38495
2.31142
2.14017
1.89132
1.81204
1.67591
1.55017
1.69519
1.73531
1.83085
2.04134
2.06751
2.42854
2.18431
1.93516
2.01881
2.13674
2.72335
2.63159
2.43761
2.52541
2.82108
2.61615
2.26822
2.08316
1.94679
1.7174
1.60654
1.71331
1.84447
1.89614
1.86325
1.76919
1.52065
1.19687
0.995054
0.934363
0.957883
13.8634
3.47566
1.41921
1.38197
1.26892
1.11999
1.03319
0.975073
0.926045
0.88727
0.780352
0.572816
0.381934
0.327178
0.3156
0.293015
0.265664
0.224244
0.203984
0.182321
0.172774
0.166465
0.158983
0.153941
0.147601
0.140527
0.135979
0.134607
0.135321
0.140493
0.149367
0.152586
0.152124
0.149336
0.147893
0.147785
0.148
0.148015
0.147761
0.147868
0.14852
0.149756
0.150571
0.150997
0.151624
0.155291
0.161261
0.163282
0.165796
0.172
0.174309
0.173511
0.171897
0.172579
0.178006
0.176816
0.16532
0.160968
0.163258
0.184958
0.195432
0.191638
0.179232
0.172393
0.172353
0.182957
0.200757
0.21207
0.219767
0.22119
0.219414
0.202196
0.177887
0.162542
0.153466
0.151888
0.154769
0.160789
0.166572
0.167626
0.166805
0.166096
0.16443
0.164516
0.165741
0.16901
0.187004
0.201034
0.204126
0.20181
0.200837
0.206429
0.238372
0.349781
0.587814
0.842916
0.97976
0.99397
0.867593
0.743361
0.687993
0.621772
0.576225
0.556996
0.541228
0.478779
0.412528
0.399992
0.417678
0.451174
0.456438
0.454668
0.439919
0.397799
0.380137
0.373324
0.368516
0.37497
0.397965
0.390031
0.368464
0.366064
0.36514
0.488995
0.573381
0.762469
0.999506
0.964811
1.06485
1.83414
2.12505
2.11906
1.79352
1.92007
1.92052
1.8231
1.86785
1.87615
1.8675
2.03221
2.50295
2.5901
2.43983
2.18364
2.22419
1.97692
1.85807
1.68971
1.55304
1.62027
1.69574
1.84477
2.26714
2.23752
2.39338
1.95988
1.84329
1.99753
2.14587
2.75115
2.56643
2.35186
2.37786
2.77414
2.6194
2.3131
2.09155
1.86412
1.59674
1.54598
1.63504
1.60416
1.58712
1.69877
1.70551
1.52505
1.24983
1.02208
0.935149
0.950804
16.3301
4.98509
2.8868
2.14622
1.67357
1.33947
1.1656
1.03168
0.969711
0.950295
0.928584
0.884028
0.774859
0.631403
0.494069
0.372625
0.286029
0.227021
0.201768
0.181775
0.173335
0.167146
0.159746
0.154425
0.148809
0.142362
0.137324
0.135503
0.135806
0.139956
0.147808
0.15018
0.149904
0.14801
0.147024
0.146726
0.146538
0.146186
0.146285
0.14674
0.148633
0.149317
0.149479
0.14968
0.150327
0.153903
0.16397
0.170059
0.179524
0.191119
0.198863
0.200136
0.197999
0.194515
0.194141
0.194011
0.183922
0.172216
0.170271
0.179797
0.194329
0.193723
0.180103
0.167605
0.164455
0.166094
0.183653
0.207646
0.21572
0.217513
0.222569
0.223137
0.214073
0.185652
0.166804
0.158751
0.158628
0.163873
0.168952
0.169934
0.167626
0.16578
0.164328
0.164656
0.16647
0.169064
0.177089
0.19947
0.20585
0.205527
0.203771
0.209696
0.246468
0.390099
0.651249
0.837513
0.90685
0.892371
0.803963
0.697925
0.631508
0.571103
0.542718
0.53331
0.521359
0.455013
0.397067
0.389741
0.423936
0.440492
0.442728
0.445764
0.434244
0.387835
0.360518
0.357023
0.361792
0.372703
0.399771
0.399817
0.355458
0.346965
0.335198
0.404482
0.521407
0.591639
0.966018
0.896386
0.889242
1.27617
2.12443
2.17905
1.85519
1.8786
1.59195
1.74943
1.89293
1.93382
1.97825
2.28082
2.61253
2.76572
2.46549
1.70507
1.67638
1.7607
1.78215
1.67058
1.50449
1.48776
1.60314
1.82502
2.37399
2.2931
2.0121
1.6554
1.73138
1.95678
2.16567
2.81383
2.5175
2.28272
2.22742
2.58236
2.59513
2.35008
2.17479
1.90756
1.56984
1.45009
1.44111
1.37065
1.28644
1.45092
1.66325
1.52575
1.28544
1.0516
0.954532
0.957718
18.1988
7.69685
4.02283
2.33895
1.65816
1.26557
1.06926
0.90005
0.837075
0.835939
0.844681
0.868057
0.846598
0.805729
0.743763
0.607217
0.365596
0.253272
0.209249
0.186586
0.176914
0.169337
0.160777
0.153718
0.147781
0.141365
0.136282
0.134429
0.134522
0.136418
0.142335
0.144525
0.14476
0.144517
0.144939
0.145817
0.146173
0.146321
0.146472
0.147306
0.150378
0.151409
0.151508
0.152152
0.15611
0.169204
0.186537
0.200859
0.208739
0.210069
0.209732
0.206587
0.202943
0.202412
0.207135
0.210291
0.205508
0.189974
0.185933
0.189929
0.208313
0.213022
0.200949
0.177725
0.169627
0.169163
0.176938
0.210525
0.230177
0.23062
0.222806
0.219094
0.218099
0.210713
0.187262
0.171527
0.167429
0.170757
0.172928
0.173184
0.170292
0.166491
0.165364
0.164425
0.167007
0.173389
0.176104
0.193986
0.207731
0.211235
0.209754
0.213765
0.249182
0.398165
0.686882
0.833157
0.876526
0.834725
0.741687
0.64744
0.578564
0.534111
0.520576
0.519231
0.510793
0.4401
0.386621
0.383672
0.416536
0.427134
0.428779
0.433028
0.42356
0.378288
0.355289
0.354763
0.362002
0.372535
0.385835
0.39715
0.357818
0.334511
0.32254
0.345036
0.487403
0.516921
0.779554
0.84954
0.812393
0.874377
1.66609
1.92518
1.83272
1.68202
1.38958
1.71795
1.92693
2.07741
2.22386
2.41738
2.79612
2.66401
2.07343
1.48203
1.48315
1.69483
1.69617
1.54406
1.41558
1.38863
1.50788
1.74405
2.37028
2.28918
1.8181
1.59857
1.6594
1.92562
2.22602
2.90353
2.50813
2.24787
2.12613
2.336
2.45938
2.33648
2.19826
2.05701
1.58325
1.3896
1.34782
1.26921
1.20315
1.29229
1.61226
1.59764
1.36059
1.12603
1.0076
0.98903
19.8116
9.01549
3.86224
1.88071
1.34069
1.02432
0.82338
0.762171
0.760744
0.747333
0.749503