/*--------------------------------*- C++ -*----------------------------------*\
| =========                 |                                                 |
| \\      /  F ield         | OpenFOAM: The Open Source CFD Toolbox           |
|  \\    /   O peration     | Version:  dev                                   |
|   \\  /    A nd           | Web:      http://www.openfoam.org               |
|    \\/     M anipulation  |                                                 |
\*---------------------------------------------------------------------------*/
FoamFile
{
    version     2.0;
    format      ascii;
    class       volScalarField;
    object      muSgs;
    location    "9.136";
}
// * * * * * * * * * * * * * * * * * * * * * * * * * * * * * * * * * * * * * //

dimensions      [1 -1 -1 0 0 0 0];

internalField   nonuniform List<scalar> 
12225
(
0.000202487
0.000208938
0.000165015
0.000162371
0.000170313
0.000182609
0.000211096
0.000219104
0.000251502
0.00025563
0.000287168
0.00028974
0.000320703
0.000306217
0.00034226
0.000284366
0.000282886
0.000410911
0.000108046
0.00019376
0.000179911
0.000193772
0.000166031
0.000193037
0.000178271
0.000194999
0.000190428
0.000201482
0.000209044
0.000208036
0.000224788
0.000219696
0.000239712
0.000268595
0.000416215
0.000401401
3.74339e-05
0.000112813
0.000121213
0.000156242
0.000131363
0.000158856
0.000139138
0.000159165
0.000144476
0.000146529
0.000163399
0.000154824
0.000176133
0.00016917
0.000208004
0.000314988
0.000429752
0.000416271
1.25134e-05
5.79657e-05
7.47507e-05
0.000105591
0.000102075
0.000109543
0.000106627
0.000112521
0.000108533
9.87198e-05
0.000114172
0.00011238
0.000115384
0.000129607
0.000186037
0.000293274
0.000474595
0.00052423
6.36891e-06
3.50602e-05
4.44276e-05
6.40401e-05
7.36261e-05
6.89542e-05
7.37695e-05
7.29052e-05
8.10891e-05
7.67228e-05
8.24119e-05
8.01653e-05
0.000107243
0.00011594
0.000146881
0.000243512
0.000429579
0.000571066
3.97292e-06
2.12561e-05
2.5816e-05
3.68892e-05
5.23891e-05
4.8804e-05
5.70976e-05
7.19324e-05
7.43903e-05
6.99535e-05
8.28441e-05
8.83143e-05
9.92508e-05
9.48998e-05
0.000133143
0.000190324
0.000324483
0.000539875
5.08925e-06
1.3146e-05
4.48967e-05
4.08921e-05
6.3982e-05
6.34131e-05
6.28972e-05
7.30638e-05
8.03372e-05
9.22616e-05
7.80901e-05
8.33425e-05
9.89122e-05
0.0001018
0.00011965
0.000141595
0.000241448
0.000398933
1.09735e-05
3.01068e-05
5.26287e-05
4.72104e-05
5.78362e-05
5.84358e-05
5.93136e-05
6.19305e-05
7.15416e-05
7.55469e-05
7.56264e-05
7.11016e-05
8.77853e-05
8.99582e-05
9.65214e-05
0.000101286
0.000153065
0.000209892
1.91354e-05
5.33318e-05
5.51746e-05
5.3352e-05
5.92472e-05
5.97153e-05
6.61047e-05
5.7277e-05
6.512e-05
6.69828e-05
7.87999e-05
6.44594e-05
7.83737e-05
8.24632e-05
0.000102374
9.25887e-05
0.0001247
0.000133482
1.45374e-05
3.82949e-05
4.48684e-05
5.35626e-05
5.68976e-05
5.48837e-05
6.06516e-05
5.38707e-05
5.51955e-05
5.56932e-05
6.2239e-05
5.39846e-05
5.86849e-05
6.22141e-05
8.22861e-05
7.62569e-05
0.000107641
9.29265e-05
1.00242e-05
2.18377e-05
3.20523e-05
4.07242e-05
5.59133e-05
5.49373e-05
5.59551e-05
5.32319e-05
5.1517e-05
5.0189e-05
5.23718e-05
5.00034e-05
5.07902e-05
5.14449e-05
6.02435e-05
5.89976e-05
7.70671e-05
6.85176e-05
1.56545e-05
1.88882e-05
2.73637e-05
3.68335e-05
5.07119e-05
5.21202e-05
5.37604e-05
5.2851e-05
5.16218e-05
5.07986e-05
5.14449e-05
5.1419e-05
5.02476e-05
4.99848e-05
5.22449e-05
5.22838e-05
5.7661e-05
5.50613e-05
2.80749e-05
2.58295e-05
3.11768e-05
4.02561e-05
4.98185e-05
5.33013e-05
5.48954e-05
5.49691e-05
5.51374e-05
5.47801e-05
5.49145e-05
5.49481e-05
5.40229e-05
5.34831e-05
5.33788e-05
5.27762e-05
5.34061e-05
5.26812e-05
4.40236e-05
4.5812e-05
4.73033e-05
5.01061e-05
5.52219e-05
5.92015e-05
6.04315e-05
6.0926e-05
6.14184e-05
6.19361e-05
6.15471e-05
6.1369e-05
6.05076e-05
5.98577e-05
5.89931e-05
5.78805e-05
5.73238e-05
5.64143e-05
6.63064e-05
6.59005e-05
6.75275e-05
7.1838e-05
7.21517e-05
7.60315e-05
7.68237e-05
7.87228e-05
8.02846e-05
8.14321e-05
8.04655e-05
7.96099e-05
7.82012e-05
7.68179e-05
7.49024e-05
7.29067e-05
7.06221e-05
6.8133e-05
0.000100144
9.49469e-05
9.45339e-05
9.49789e-05
9.50365e-05
9.73418e-05
9.88915e-05
0.000100312
0.000100913
0.000100451
9.8952e-05
9.71558e-05
9.50362e-05
9.29092e-05
9.05998e-05
8.80602e-05
8.48159e-05
8.16724e-05
0.000126339
0.000115031
0.000112497
0.00011109
0.000110143
0.000111236
0.000113227
0.000114602
0.00011483
0.000113812
0.000111954
0.000109689
0.000107227
0.000104777
0.000102121
9.91622e-05
9.53616e-05
9.18547e-05
0.000127806
0.000117244
0.000114904
0.000113341
0.000112244
0.00011301
0.000115059
0.000116499
0.000116781
0.000115824
0.000113925
0.000111596
0.000109139
0.000106641
0.000103945
0.000100944
9.70842e-05
9.35086e-05
0.000113698
0.000106561
0.00010527
0.000104218
0.000103468
0.000104336
0.000106362
0.000107941
0.000108531
0.000107913
0.000106298
0.000104194
0.000101966
9.96846e-05
9.7197e-05
9.44794e-05
9.1001e-05
8.76883e-05
8.84833e-05
8.46022e-05
8.48326e-05
8.48404e-05
8.49887e-05
8.68312e-05
8.9728e-05
9.24688e-05
9.42852e-05
9.47021e-05
9.39598e-05
9.23975e-05
9.05697e-05
8.86431e-05
8.6558e-05
8.4392e-05
8.17261e-05
7.89782e-05
6.49935e-05
6.21814e-05
6.24971e-05
6.26372e-05
6.33864e-05
6.47875e-05
6.69161e-05
6.89515e-05
7.05984e-05
7.16194e-05
7.18166e-05
7.13399e-05
7.03156e-05
6.90849e-05
6.78499e-05
6.65909e-05
6.52509e-05
6.37194e-05
4.624e-05
4.53459e-05
4.63914e-05
4.67921e-05
4.66535e-05
4.68363e-05
4.81021e-05
4.99788e-05
5.22919e-05
5.40658e-05
5.49796e-05
5.50576e-05
5.44563e-05
5.34777e-05
5.24531e-05
5.13356e-05
5.01503e-05
4.88502e-05
3.12099e-05
3.11105e-05
3.20649e-05
3.29896e-05
3.37265e-05
3.37195e-05
3.41267e-05
3.54479e-05
3.78493e-05
3.97869e-05
4.09591e-05
4.15113e-05
4.15657e-05
4.13976e-05
4.11946e-05
4.08686e-05
4.05353e-05
3.99636e-05
2.01997e-05
2.04561e-05
2.08062e-05
2.18373e-05
2.33082e-05
2.46175e-05
2.62165e-05
2.87924e-05
3.16608e-05
3.38078e-05
3.50808e-05
3.57702e-05
3.60993e-05
3.63039e-05
3.64714e-05
3.65699e-05
3.65968e-05
3.64905e-05
1.22378e-05
1.27593e-05
1.40871e-05
1.68008e-05
1.98715e-05
2.28748e-05
2.55705e-05
2.92732e-05
3.26005e-05
3.47848e-05
3.58605e-05
3.63041e-05
3.65643e-05
3.67443e-05
3.69467e-05
3.71439e-05
3.72287e-05
3.72397e-05
4.97616e-06
8.68058e-06
1.37925e-05
2.05872e-05
2.72218e-05
3.32065e-05
3.81111e-05
4.32267e-05
4.67558e-05
4.83662e-05
4.85454e-05
4.80974e-05
4.78548e-05
4.76494e-05
4.76113e-05
4.76174e-05
4.75593e-05
4.73259e-05
4.44341e-06
1.58712e-05
3.03481e-05
4.7189e-05
5.8968e-05
6.76662e-05
7.34332e-05
7.75569e-05
7.93592e-05
7.91803e-05
7.79387e-05
7.64368e-05
7.53336e-05
7.43993e-05
7.36843e-05
7.29192e-05
7.19746e-05
7.06191e-05
1.37149e-05
5.4392e-05
9.05668e-05
0.000110858
0.000121655
0.000127996
0.000130612
0.000130452
0.000128346
0.000125548
0.000122478
0.000119475
0.000116808
0.000114196
0.000111571
0.000108628
0.000105229
0.000101397
6.69193e-05
0.000170391
0.00020298
0.000209028
0.000205198
0.000199491
0.000192785
0.000186186
0.000180215
0.000175091
0.00017002
0.000165092
0.000160319
0.00015507
0.00014953
0.00014365
0.00013792
0.000129795
0.000231961
0.000278116
0.000254558
0.000228128
0.00021454
0.000211605
0.000213892
0.000218947
0.000224084
0.000228284
0.000230924
0.00023219
0.000232118
0.000230632
0.00022817
0.000224628
0.000219415
0.000208143
2.64432e-05
3.54104e-05
4.14548e-05
4.7063e-05
4.93099e-05
5.10574e-05
5.30687e-05
5.53132e-05
5.7757e-05
6.09787e-05
6.53749e-05
7.05064e-05
7.59176e-05
8.05591e-05
8.58012e-05
9.25264e-05
9.78476e-05
0.000102475
0.000108284
0.000112612
0.000115548
0.000120721
0.000130285
0.000138607
0.000143961
0.000147538
0.000150641
0.000153442
0.000158956
0.00016692
0.000175385
0.000183544
0.000191636
0.000200475
0.000210277
0.000220603
0.00023094
0.000240912
0.000250392
0.000259334
0.000267784
0.000275767
0.000283212
0.000290287
0.000297087
0.000303507
0.000309503
0.000315156
0.000320576
0.000325607
0.00033019
0.000334234
0.000337738
0.000341127
0.000343839
0.00034599
0.000347511
0.000348739
0.000349602
0.000349999
0.000350487
0.000351037
0.000351813
0.000353215
0.00035421
0.00035445
0.000354456
0.000353939
0.000352767
0.000351284
0.000349407
0.0003475
0.000345485
0.000342948
0.000339334
0.000334549
0.000328674
0.000322333
0.000316478
0.000310208
0.00030346
0.0002955
0.000287174
0.000279498
0.000273125
0.000267546
0.000262552
0.000257648
0.000251825
0.000244866
0.000235537
0.000222592
0.000209863
0.000201
0.000195023
0.000191707
0.000187604
0.000185558
0.00018598
0.000187438
0.000186216
0.000184791
0.000186631
0.000190012
0.000188726
0.000185501
0.000245498
0.000302222
0.000315965
0.000317471
0.000306669
0.000286742
0.000259307
0.000232621
0.000206614
0.000188585
0.000176352
0.000164986
0.000165369
0.000171997
0.000184093
0.000203043
0.000219146
0.000244152
0.000251919
0.000273444
0.000299379
0.000324755
0.000345315
0.000359239
0.000371165
0.000387757
0.000405503
0.000425534
0.000444914
0.000463779
0.00047951
0.000490833
0.00050117
0.000511085
0.000520283
0.000521913
0.0005213
0.000516208
0.000505271
0.000501843
0.000494342
0.000477887
0.000470024
0.000453918
0.000431462
0.000412085
0.000386496
0.000361203
0.000348656
0.000345804
0.000340618
0.000342477
0.000343159
0.000324564
0.000316016
0.000340196
0.000378093
0.000405382
0.000424034
0.000439988
0.000453098
0.000470763
0.000497436
0.000547709
0.000601442
0.000632623
0.00065823
0.000669197
0.000680976
0.000709565
0.000720439
0.000662862
0.000646312
0.000639297
4.93845e-05
5.74489e-05
6.03395e-05
5.78313e-05
5.24658e-05
4.8732e-05
4.49316e-05
4.21244e-05
4.00749e-05
3.83923e-05
3.71624e-05
3.73907e-05
3.80938e-05
3.95581e-05
4.21428e-05
4.56677e-05
4.99601e-05
5.56612e-05
5.9899e-05
6.46469e-05
6.81063e-05
7.07768e-05
7.65176e-05
8.48457e-05
8.6735e-05
8.56034e-05
8.53754e-05
8.80372e-05
9.05793e-05
0.000108661
0.000131211
0.000146541
0.000157225
0.000164509
0.000169974
0.000174459
0.000176846
0.00017772
0.000177578
0.000176875
0.000175649
0.000174632
0.000173467
0.000172049
0.000170881
0.000169736
0.000168002
0.000166434
0.000165048
0.000163178
0.00016031
0.000157202
0.00015362
0.000149448
0.000143977
0.000138999
0.00013453
0.000131704
0.000129735
0.000128626
0.000128815
0.000129849
0.000132488
0.000139281
0.000144593
0.000147208
0.000150799
0.000152808
0.000153724
0.000154746
0.000156046
0.000158485
0.000163114
0.000166527
0.000167607
0.000166291
0.000159885
0.000155928
0.000155302
0.000154449
0.000152605
0.000147061
0.000142499
0.000140703
0.000141347
0.000143837
0.000149285
0.000156869
0.000161508
0.000163271
0.000161541
0.000148934
0.000133043
0.000125447
0.000124451
0.000127099
0.00012892
0.000130014
0.000133429
0.000141738
0.000153172
0.000167258
0.00019174
0.000230471
0.00026183
0.00026099
0.000259111
0.000255541
0.000220856
0.000201662
0.000177194
0.00016143
0.000152544
0.000150307
0.000151427
0.000154278
0.000158631
0.000165239
0.000180012
0.000204292
0.000222833
0.00022336
0.000216037
0.000201706
0.000200432
0.00020346
0.000210917
0.000222929
0.000238393
0.000255956
0.000268133
0.000277431
0.000285651
0.000293803
0.000303862
0.000315618
0.000328243
0.000333108
0.000334376
0.000336948
0.000344218
0.000351466
0.00035272
0.000353045
0.000349281
0.000350298
0.000357762
0.000360854
0.000365659
0.000376886
0.000382648
0.00038498
0.000383461
0.00037234
0.000368591
0.000373519
0.000374711
0.000375911
0.000375421
0.000363659
0.000347571
0.000359721
0.000370958
0.000372013
0.000369953
0.000377984
0.000394088
0.000425398
0.000468799
0.00047493
0.000453779
0.000447557
0.000437487
0.000430837
0.000451064
0.000450806
0.000387853
0.00036192
0.000375626
0.000392197
7.66272e-05
8.03724e-05
7.11476e-05
5.90398e-05
4.87023e-05
4.18042e-05
3.82035e-05
3.69247e-05
3.64017e-05
3.6016e-05
3.56905e-05
3.54588e-05
3.54913e-05
3.54605e-05
3.48616e-05
3.50871e-05
3.59068e-05
3.77131e-05
3.96195e-05
4.19259e-05
4.33119e-05
4.64398e-05
5.74286e-05
6.83002e-05
7.45393e-05
8.71524e-05
0.000103515
0.000110273
0.000111806
0.000117567
0.000122209
0.000122854
0.000121561
0.000119252
0.00011595
0.000112307
0.000108256
0.000103774
9.9437e-05
9.51695e-05
9.10516e-05
8.74444e-05
8.41179e-05
8.07746e-05
7.80734e-05
7.54501e-05
7.2615e-05
7.03109e-05
6.78188e-05
6.53698e-05
6.30865e-05
6.07175e-05
5.80337e-05
5.53958e-05
5.32184e-05
5.19044e-05
5.11398e-05
5.09135e-05
5.1114e-05
5.17549e-05
5.31113e-05
5.49719e-05
5.76568e-05
6.1762e-05
6.49947e-05
6.70975e-05
7.00774e-05
7.17136e-05
7.25359e-05
7.39628e-05
7.56163e-05
7.89643e-05
8.56442e-05
9.03452e-05
9.18815e-05
9.09375e-05
8.62683e-05
8.41295e-05
8.48003e-05
8.54148e-05
8.54122e-05
8.27438e-05
8.06368e-05
8.04488e-05
8.13947e-05
8.52684e-05
9.25632e-05
0.00010388
0.000115602
0.000122757
0.000124411
0.000121135
0.000108211
9.84519e-05
9.38839e-05
9.42337e-05
9.6261e-05
0.00010111
0.00011166
0.000125172
0.000149778
0.000194429
0.000237773
0.000251445
0.000243648
0.000226052
0.000195611
0.000164316
0.000148735
0.000135321
0.000126862
0.000123751
0.000124567
0.000131827
0.000140992
0.000149296
0.000158052
0.000176582
0.000201071
0.000219563
0.00021769
0.000202824
0.000200426
0.000190287
0.000192304
0.000189164
0.000185793
0.000189471
0.000193018
0.000200191
0.000205304
0.000210431
0.000216183
0.00022039
0.000225385
0.000230659
0.000242491
0.000250304
0.000250901
0.000251555
0.000256488
0.000264389
0.000264854
0.000265099
0.00026121
0.0002599
0.000270285
0.000275244
0.000278486
0.000293118
0.000309808
0.000323711
0.000347035
0.000350772
0.000342044
0.000348857
0.000359595
0.000360165
0.000356357
0.000352619
0.000342474
0.000345685
0.000341815
0.000333901
0.000332177
0.000344201
0.00036931
0.00040025
0.00039835
0.0003694
0.000338592
0.000329918
0.000302864
0.00029915
0.000317937
0.000317455
0.000264497
0.000244801
0.000262871
0.000271805
0.000105785
9.65867e-05
7.10445e-05
4.98154e-05
3.93654e-05
3.61163e-05
3.51209e-05
3.52542e-05
3.59816e-05
3.77653e-05
3.89751e-05
3.91602e-05
3.90737e-05
3.8481e-05
3.69816e-05
3.56568e-05
3.54962e-05
3.5901e-05
3.66249e-05
3.78242e-05
4.19021e-05
5.06268e-05
7.46206e-05
9.1459e-05
9.47068e-05
9.65132e-05
0.000100703
0.000102584
0.000102715
9.90156e-05
9.42142e-05
8.96396e-05
8.43149e-05
7.96486e-05
7.44382e-05
6.93734e-05
6.47458e-05
6.06571e-05
5.70902e-05
5.39839e-05
5.14521e-05
4.92367e-05
4.75627e-05
4.60025e-05
4.5011e-05
4.41109e-05
4.32774e-05
4.26152e-05
4.20347e-05
4.15407e-05
4.10781e-05
4.06011e-05
3.99792e-05
3.94599e-05
3.89698e-05
3.87161e-05
3.86594e-05
3.87946e-05
3.90779e-05
3.96856e-05
4.05422e-05
4.17193e-05
4.36413e-05
4.56731e-05
4.68427e-05
4.79677e-05
4.94328e-05
5.03158e-05
5.06998e-05
5.11768e-05
5.16873e-05
5.28579e-05
5.66305e-05
6.06496e-05
6.25617e-05
6.25393e-05
6.01425e-05
5.87557e-05
5.92972e-05
5.98117e-05
5.99982e-05
5.90791e-05
5.83278e-05
5.8805e-05
6.01971e-05
6.35497e-05
6.75444e-05
7.43332e-05
8.29505e-05
9.26951e-05
9.91986e-05
0.000101193
0.000101041
9.74474e-05
8.81285e-05
8.23642e-05
8.57319e-05
9.60339e-05
0.000117224
0.000149464
0.000192342
0.000223347
0.000229066
0.000222331
0.000199352
0.000164261
0.000139239
0.000125859
0.000118481
0.000114226
0.000113299
0.000114345
0.000121119
0.000131987
0.000141884
0.000149559
0.000157712
0.000172443
0.000190161
0.000187571
0.000169056
0.000150462
0.000182037
0.000205395
0.000198188
0.000184893
0.000174147
0.000177661
0.000181345
0.00018515
0.000185884
0.000186944
0.000188705
0.000188658
0.00019147
0.000194272
0.000203004
0.000213104
0.000214475
0.000213811
0.000216445
0.000220234
0.000218623
0.00021944
0.000216685
0.000211695
0.000219408
0.000224153
0.000222707
0.000238251
0.000253675
0.000263635
0.000294249
0.00031096
0.000305668
0.000305856
0.000326345
0.000341232
0.000340951
0.000345653
0.000342774
0.000335887
0.000321394
0.000312869
0.000321323
0.000332758
0.000353649
0.000359785
0.000335627
0.000276302
0.000266126
0.000250497
0.000230814
0.000236044
0.000245524
0.000248072
0.000223885
0.000211303
0.000228153
0.000249356
0.000130179
0.000101856
6.01526e-05
4.03451e-05
3.49423e-05
3.4457e-05
3.54227e-05
3.83528e-05
4.09494e-05
4.21282e-05
4.25029e-05
4.2763e-05
4.29636e-05
4.308e-05
4.3007e-05
4.18645e-05
4.04339e-05
4.07906e-05
4.21122e-05
4.55306e-05
5.8375e-05
7.77075e-05
8.73735e-05
8.9693e-05
9.00073e-05
8.84422e-05
8.66417e-05
8.33723e-05
8.00159e-05
7.41286e-05
6.86082e-05
6.30834e-05
5.74828e-05
5.3162e-05
4.90011e-05
4.55003e-05
4.29744e-05
4.1137e-05
3.98259e-05
3.89924e-05
3.84743e-05
3.82736e-05
3.82428e-05
3.82686e-05
3.84137e-05
3.86965e-05
3.89919e-05
3.92314e-05
3.94044e-05
3.95231e-05
3.95459e-05
3.93489e-05
3.8944e-05
3.85525e-05
3.82028e-05
3.7699e-05
3.72777e-05
3.714e-05
3.72227e-05
3.74096e-05
3.77491e-05
3.83893e-05
3.96084e-05
4.11323e-05
4.20888e-05
4.25343e-05
4.32242e-05
4.4038e-05
4.47459e-05
4.53556e-05
4.55292e-05
4.57797e-05
4.70845e-05
4.99135e-05
5.13543e-05
5.16285e-05
5.12335e-05
5.06437e-05
5.06987e-05
5.09347e-05
5.11458e-05
5.11233e-05
5.09402e-05
5.15266e-05
5.32544e-05
5.60676e-05
5.82596e-05
6.17817e-05
6.7187e-05
7.39182e-05
7.90435e-05
8.07029e-05
8.16987e-05
8.31698e-05
7.91734e-05
7.846e-05
8.58518e-05
0.000111352
0.000152317
0.000178712
0.000202564
0.000209519
0.000203957
0.000178481
0.000144924
0.000127075
0.000116754
0.000112585
0.000109882
0.00010836
0.000109126
0.000113044
0.000121571
0.000131559
0.000139867
0.000148534
0.000159487
0.000167717
0.000162196
0.000145988
0.000125503
0.000133831
0.000181007
0.000215261
0.00019443
0.000175527
0.000161661
0.000164531
0.000169308
0.000176493
0.000179553
0.000179236
0.000177916
0.000176473
0.000181415
0.00018508
0.000190085
0.000196389
0.000199198
0.000197743
0.000197671
0.000200401
0.000197465
0.000199472
0.000198368
0.000187791
0.000192059
0.000198697
0.000195438
0.000208599
0.000221599
0.000232572
0.000253178
0.000280572
0.000280382
0.000274026
0.00028982
0.00031259
0.000320835
0.00034044
0.00034748
0.000329149
0.000306219
0.000302162
0.000316083
0.000318772
0.000324682
0.000322672
0.000280564
0.000226892
0.000216527
0.000202827
0.000204795
0.000207743
0.000215321
0.000213679
0.000206083
0.000199868
0.000212966
0.000236635
0.000146764
9.98015e-05
5.3191e-05
3.70024e-05
3.50512e-05
3.70002e-05
3.99775e-05
4.27274e-05
4.40489e-05
4.46306e-05
4.55039e-05
4.71692e-05
4.84063e-05
4.92512e-05
5.00475e-05
5.07376e-05
5.1628e-05
5.39353e-05
5.84992e-05
6.57015e-05
7.32436e-05
7.98607e-05
8.26579e-05
8.02482e-05
7.6771e-05
7.3638e-05
6.99604e-05
6.52553e-05
6.04497e-05
5.49922e-05
4.95942e-05
4.51009e-05
4.17992e-05
3.95736e-05
3.77995e-05
3.67047e-05
3.62896e-05
3.63755e-05
3.66736e-05
3.70585e-05
3.75495e-05
3.8081e-05
3.86581e-05
3.9238e-05
3.97276e-05
4.01599e-05
4.06073e-05
4.09107e-05
4.11018e-05
4.11755e-05
4.11309e-05
4.08916e-05
4.03684e-05
3.99033e-05
3.91649e-05
3.87442e-05
3.80466e-05
3.75905e-05
3.74466e-05
3.74961e-05
3.76675e-05
3.79914e-05
3.8691e-05
4.00439e-05
4.12639e-05
4.17735e-05
4.18502e-05
4.19667e-05
4.23791e-05
4.34037e-05
4.39941e-05
4.3972e-05
4.43886e-05
4.6273e-05
4.83051e-05
4.89141e-05
4.89284e-05
4.83185e-05
4.80467e-05
4.79394e-05
4.80889e-05
4.82016e-05
4.81913e-05
4.88218e-05
5.0164e-05
5.25118e-05
5.53188e-05
5.82559e-05
6.17375e-05
6.57313e-05
6.60343e-05
6.55031e-05
6.73667e-05
7.00789e-05
7.12402e-05
7.84972e-05
9.82498e-05
0.000137418
0.000166771
0.000182752
0.000191987
0.000188045
0.000169039
0.000137771
0.000121124
0.00011387
0.000110449
0.000108011
0.000104979
0.000103952
0.000106076
0.000110731
0.000118313
0.000125629
0.000133116
0.000144267
0.000156669
0.000161751
0.000152401
0.000127764
0.000116257
0.000130178
0.0001578
0.000182672
0.000183029
0.000178813
0.000159862
0.00015682
0.000157284
0.000162101
0.000169121
0.000171579
0.000170646
0.000175006
0.00018483
0.000186857
0.000186148
0.000189945
0.000193833
0.000189428
0.000186928
0.000192092
0.000190227
0.000192417
0.000186689
0.000165995
0.000170878
0.000186198
0.000183171
0.000189998
0.000203794
0.000222917
0.000235867
0.000259104
0.00026369
0.000253511
0.000267358
0.000281589
0.000297188
0.000330889
0.000350333
0.000324471
0.00029612
0.000296326
0.000310399
0.000307416
0.000301065
0.000289267
0.000245642
0.000213774
0.000207383
0.000194618
0.000190472
0.000189837
0.000198067
0.000194324
0.000197037
0.000195375
0.000205942
0.000220894
0.000159321
0.000100393
5.12832e-05
3.70616e-05
3.61895e-05
3.83799e-05
4.12451e-05
4.42975e-05
4.58581e-05
4.63756e-05
4.68932e-05
4.79461e-05
4.93792e-05
5.0919e-05
5.25638e-05
5.45126e-05
5.69617e-05
6.00722e-05
6.32459e-05
6.74598e-05
7.20309e-05
7.37087e-05
7.01174e-05
6.62918e-05
6.27511e-05
5.94985e-05
5.50806e-05
5.02276e-05
4.54001e-05
4.16609e-05
3.87347e-05
3.67537e-05
3.55479e-05
3.51666e-05
3.52798e-05
3.56287e-05
3.61869e-05
3.70301e-05
3.80204e-05
3.90624e-05
4.01671e-05
4.13032e-05
4.23096e-05
4.31747e-05
4.3922e-05
4.44335e-05
4.48316e-05
4.50957e-05
4.52752e-05
4.53476e-05
4.52025e-05
4.48917e-05
4.43367e-05
4.37606e-05
4.28154e-05
4.21427e-05
4.13299e-05
4.05516e-05
3.97498e-05
3.93847e-05
3.92013e-05
3.91561e-05
3.92539e-05
3.96553e-05
4.08797e-05
4.17738e-05
4.2097e-05
4.22e-05
4.23001e-05
4.27787e-05
4.42436e-05
4.44013e-05
4.42363e-05
4.52508e-05
4.73477e-05
4.83347e-05
4.82504e-05
4.73028e-05
4.66224e-05
4.65842e-05
4.71446e-05
4.72681e-05
4.69778e-05
4.69732e-05
4.70668e-05
4.89087e-05
5.30075e-05
5.62096e-05
5.79694e-05
5.82473e-05
5.67889e-05
5.73147e-05
6.10807e-05
6.43227e-05
6.8132e-05
8.20224e-05
0.000113116
0.000148229
0.000170333
0.000180756
0.000176436
0.000163807
0.000139754
0.000118866
0.000112504
0.00010947
0.000106667
0.000103624
9.93103e-05
9.93174e-05
0.000100476
0.000104184
0.000109491
0.000113244
0.000120307
0.000131708
0.000142773
0.000148996
0.000142029
0.000118271
0.000108687
0.000107537
0.000117372
0.000148991
0.000173152
0.000186121
0.000166135
0.00015626
0.000154898
0.000153982
0.000159741
0.000162949
0.000168838
0.000179254
0.00019012
0.000187642
0.000184179
0.00019014
0.000192002
0.000183778
0.000179772
0.000188472
0.000186469
0.000187866
0.000175677
0.000154127
0.000160654
0.000181439
0.000169166
0.000174407
0.000194993
0.000222809
0.00023116
0.000247642
0.000253401
0.000240008
0.000252493
0.000258349
0.000271988
0.000318397
0.000348927
0.000322523
0.000290957
0.000291139
0.000302774
0.000300285
0.000294925
0.000274774
0.000232881
0.000220551
0.000214504
0.000198556
0.000187291
0.00018878
0.000186777
0.000177663
0.000180674
0.000180562
0.000193062
0.000207351
0.00017092
0.000101788
5.10226e-05
3.69895e-05
3.62451e-05
3.91843e-05
4.20673e-05
4.47818e-05
4.62571e-05
4.70388e-05
4.7496e-05
4.81901e-05
4.95254e-05
5.1085e-05
5.27828e-05
5.46526e-05
5.66272e-05
5.88285e-05
6.15007e-05
6.32431e-05
6.28755e-05
6.0016e-05
5.65831e-05
5.38314e-05
5.0541e-05
4.69783e-05
4.34139e-05
3.9808e-05
3.70295e-05
3.5429e-05
3.43601e-05
3.3983e-05
3.41143e-05
3.4642e-05
3.55142e-05
3.65831e-05
3.76539e-05
3.87179e-05
3.97298e-05
4.07547e-05
4.17577e-05
4.27842e-05
4.37469e-05
4.46115e-05
4.53683e-05
4.60246e-05
4.65131e-05
4.68417e-05
4.70155e-05
4.71383e-05
4.71957e-05
4.69708e-05
4.65655e-05
4.60171e-05
4.52262e-05
4.44103e-05
4.34527e-05
4.29393e-05
4.24154e-05
4.23013e-05
4.22637e-05
4.23465e-05
4.22737e-05
4.19746e-05
4.19479e-05
4.23409e-05
4.26312e-05
4.26352e-05
4.27742e-05
4.29614e-05
4.39609e-05
4.4897e-05
4.49096e-05
4.55629e-05
4.74073e-05
4.84141e-05
4.86367e-05
4.77969e-05
4.67248e-05
4.64455e-05
4.68205e-05
4.7037e-05
4.68893e-05
4.69648e-05
4.65967e-05
4.68754e-05
4.90184e-05
5.14222e-05
5.25067e-05
5.31968e-05
5.38228e-05
5.65317e-05
6.07899e-05
6.23503e-05
6.7194e-05
8.68534e-05
0.000127829
0.000153148
0.000167565
0.000168698
0.000160098
0.000141537
0.000119481
0.000111264
0.000109563
0.000106936
0.000103462
9.71764e-05
9.19196e-05
9.10565e-05
9.01384e-05
9.1376e-05
9.40132e-05
9.55448e-05
0.000100727
0.000109653
0.000118377
0.000121644
0.000116387
0.000101333
9.73566e-05
0.000100677
0.000110177
0.000131662
0.000155739
0.000185038
0.00017652
0.000159728
0.000159412
0.000155927
0.000154575
0.000156852
0.000170493
0.000183335
0.000193192
0.000188221
0.000188503
0.000196524
0.000190512
0.000179506
0.000177242
0.000186655
0.000185427
0.000185815
0.000173254
0.000158173
0.00016406
0.000180923
0.000162438
0.000168915
0.000191129
0.000207926
0.000223166
0.000242046
0.000248173
0.000231406
0.000242272
0.000242531
0.000248547
0.000303991
0.000343942
0.000320829
0.000289232
0.000284702
0.000290755
0.000285665
0.000292876
0.000276121
0.000225461
0.000215206
0.000210123
0.000203677
0.000197949
0.00020305
0.000192846
0.000181164
0.000172245
0.000165239
0.000173427
0.000178252
0.000186899
0.000113939
5.85902e-05
3.91769e-05
3.6586e-05
3.82837e-05
4.09215e-05
4.38848e-05
4.63343e-05
4.7588e-05
4.82264e-05
4.8471e-05
4.93588e-05
5.08853e-05
5.21663e-05
5.32102e-05
5.35746e-05
5.39561e-05
5.46472e-05
5.3192e-05
5.08786e-05
4.90449e-05
4.671e-05
4.41856e-05
4.18116e-05
3.87734e-05
3.64566e-05
3.46052e-05
3.35134e-05
3.296e-05
3.29648e-05
3.33525e-05
3.41698e-05
3.53246e-05
3.64366e-05
3.74916e-05
3.84064e-05
3.92034e-05
3.98001e-05
4.03878e-05
4.10305e-05
4.17077e-05
4.24405e-05
4.31873e-05
4.40786e-05
4.501e-05
4.60389e-05
4.67609e-05
4.7133e-05
4.73702e-05
4.75315e-05
4.73805e-05
4.71126e-05
4.66335e-05
4.60305e-05
4.52535e-05
4.42847e-05
4.35252e-05
4.32025e-05
4.31358e-05
4.31789e-05
4.36497e-05
4.43521e-05
4.48272e-05
4.47909e-05
4.44372e-05
4.42916e-05
4.4146e-05
4.38576e-05
4.39472e-05
4.43015e-05
4.54176e-05
4.59469e-05
4.62273e-05
4.71926e-05
4.80372e-05
4.85067e-05
4.83783e-05
4.74835e-05
4.69197e-05
4.69574e-05
4.69951e-05
4.65578e-05
4.70892e-05
4.73182e-05
4.7245e-05
4.78581e-05
5.03485e-05
5.18442e-05
5.29613e-05
5.44236e-05
5.78292e-05
6.04674e-05
6.13805e-05
6.91581e-05
9.6752e-05
0.000137781
0.000153798
0.000158461
0.000152145
0.00013774
0.000121268
0.000109463
0.000108528
0.00010797
0.000104738
9.8247e-05
8.84359e-05
8.62417e-05
8.6389e-05
8.72759e-05
8.81924e-05
8.87613e-05
9.05151e-05
9.32572e-05
9.61266e-05
9.86753e-05
9.95391e-05
9.73667e-05
9.60616e-05
9.77255e-05
0.000103543
0.000106859
0.000114311
0.000141092
0.000169784
0.000191316
0.000172509
0.000165002
0.000157929
0.000150825
0.000153417
0.000170645
0.000182231
0.000196407
0.000193208
0.000205428
0.000210803
0.000192159
0.000175605
0.000176422
0.000186475
0.000188374
0.000188703
0.000176154
0.000167849
0.000176998
0.000184202
0.000165716
0.000173478
0.000188545
0.000183372
0.000207501
0.000234907
0.000243994
0.000228314
0.000236985
0.000232557
0.000229903
0.000290862
0.000336753
0.000320257
0.000291298
0.000278997
0.000275089
0.000262609
0.000281281
0.000279718
0.00022239
0.000201438
0.000203908
0.000210572
0.000217779
0.000220212
0.000201166
0.000189995
0.000172634
0.000162156
0.000162186
0.000171616
0.000201882
0.00011872
5.93862e-05
4.02436e-05
3.73564e-05
3.88903e-05
4.13294e-05
4.39735e-05
4.58216e-05
4.70882e-05
4.66768e-05
4.64132e-05
4.75582e-05
4.90003e-05
4.93005e-05
4.9327e-05
4.90362e-05
4.83763e-05
4.67427e-05
4.42157e-05
4.27196e-05
4.1926e-05
4.0619e-05
3.84497e-05
3.64323e-05
3.441e-05
3.31557e-05
3.24019e-05
3.21466e-05
3.22691e-05
3.27276e-05
3.37022e-05
3.5036e-05
3.61478e-05
3.69637e-05
3.75279e-05
3.775e-05
3.78891e-05
3.81479e-05
3.87865e-05
3.94997e-05
4.01472e-05
4.07639e-05
4.12576e-05
4.17379e-05
4.21441e-05
4.26622e-05
4.32638e-05
4.40571e-05
4.49916e-05
4.56989e-05
4.61156e-05
4.63653e-05
4.64516e-05
4.60508e-05
4.57553e-05
4.54939e-05
4.48352e-05
4.42922e-05
4.40568e-05
4.40714e-05
4.40894e-05
4.48565e-05
4.63781e-05
4.70472e-05
4.70681e-05
4.63164e-05
4.5308e-05
4.46688e-05
4.43063e-05
4.44516e-05
4.5099e-05
4.60145e-05
4.66422e-05
4.72797e-05
4.77986e-05
4.81904e-05
4.8415e-05
4.84652e-05
4.77196e-05
4.7424e-05
4.70146e-05
4.62364e-05
4.63445e-05
4.69031e-05
4.70317e-05
4.69029e-05
4.98048e-05
5.22621e-05
5.29088e-05
5.33802e-05
5.63671e-05
5.8765e-05
6.10341e-05
7.24234e-05
0.000107161
0.000140897
0.000149731
0.000149367
0.000140437
0.000123408
0.000110193
0.000105936
0.000106969
0.000106828
0.000102421
8.99377e-05
8.38106e-05
8.41504e-05
8.52655e-05
8.66786e-05
8.7144e-05
8.77347e-05
8.907e-05
9.02076e-05
9.10062e-05
9.21329e-05
9.25162e-05
9.06348e-05
9.03118e-05
9.19257e-05
9.70354e-05
0.000100558
0.000108943
0.000129469
0.000152795
0.000186828
0.000182185
0.00017047
0.000160924
0.000150235
0.000153997
0.000168975
0.000179858
0.000199588
0.000198473
0.000222023
0.00022091
0.000195366
0.000172628
0.000172501
0.000184655
0.00019672
0.000198514
0.000188162
0.000181811
0.000185621
0.000185037
0.000171822
0.000183713
0.000187386
0.000175365
0.000189825
0.000224758
0.000241101
0.000226003
0.00023367
0.000226619
0.000215322
0.000278824
0.000328989
0.00031873
0.000295225
0.000277372
0.000263006
0.000244575
0.000260193
0.000269773
0.000221054
0.00020048
0.000212395
0.000229451
0.00024148
0.000234451
0.00021467
0.000194148
0.000174157
0.000163792
0.000156563
0.000166156
0.000219422
0.000124244
6.12401e-05
4.33595e-05
4.05198e-05
4.10198e-05
4.24881e-05
4.40815e-05
4.47833e-05
4.4184e-05
4.20835e-05
4.17322e-05
4.31815e-05
4.75306e-05
4.94287e-05
4.93718e-05
4.74524e-05
4.49862e-05
4.35897e-05
4.22773e-05
4.10558e-05
4.00789e-05
3.83162e-05
3.60682e-05
3.43744e-05
3.30983e-05
3.23759e-05
3.20191e-05
3.20053e-05
3.22734e-05
3.30127e-05
3.46273e-05
3.57879e-05
3.64177e-05
3.66886e-05
3.66833e-05
3.68194e-05
3.71868e-05
3.79024e-05
3.87419e-05
3.95538e-05
4.02795e-05
4.09569e-05
4.15029e-05
4.18804e-05
4.20509e-05
4.20933e-05
4.21571e-05
4.22974e-05
4.24582e-05
4.2571e-05
4.29962e-05
4.41811e-05
4.50084e-05
4.53357e-05
4.56564e-05
4.59768e-05
4.62758e-05
4.65045e-05
4.62179e-05
4.59719e-05
4.608e-05
4.62004e-05
4.63905e-05
4.75893e-05
4.82099e-05
4.82264e-05
4.72103e-05
4.58047e-05
4.47627e-05
4.39762e-05
4.35983e-05
4.3685e-05
4.46182e-05
4.58493e-05
4.6984e-05
4.79118e-05
4.82665e-05
4.84695e-05
4.8177e-05
4.75273e-05
4.70877e-05
4.65944e-05
4.59861e-05
4.64252e-05
4.67622e-05
4.67903e-05
4.86624e-05
5.13168e-05
5.21626e-05
5.2539e-05
5.48583e-05
5.73219e-05
6.19963e-05
7.64288e-05
0.000112944
0.000141118
0.000143071
0.000138365
0.0001317
0.000118769
0.000107188
0.000104145
0.000104909
0.000104537
9.74287e-05
8.3883e-05
8.21568e-05
8.30348e-05