/*--------------------------------*- C++ -*----------------------------------*\
| =========                 |                                                 |
| \\      /  F ield         | OpenFOAM: The Open Source CFD Toolbox           |
|  \\    /   O peration     | Version:  dev                                   |
|   \\  /    A nd           | Web:      http://www.openfoam.org               |
|    \\/     M anipulation  |                                                 |
\*---------------------------------------------------------------------------*/
FoamFile
{
    version     2.0;
    format      ascii;
    class       volScalarField;
    object      p;
    location    "9.136";
}
// * * * * * * * * * * * * * * * * * * * * * * * * * * * * * * * * * * * * * //

dimensions      [1 -1 -2 0 0 0 0];

internalField   nonuniform List<scalar> 
12225
(
92836
92793.3
92751.7
92711.6
92656.7
92603.8
92543.3
92480.7
92414.5
92347.2
92273.2
92192.6
92101
92004.7
91875.2
91599.1
91216.6
90437.1
92837.8
92798.6
92757.9
92718.4
92663.3
92610.9
92550.3
92487.9
92421.6
92354.8
92281.1
92200.4
92109.7
92009.3
91875.3
91590.2
91210.9
90694.1
92848.8
92811.9
92772.4
92733.4
92678.5
92626.7
92566
92504.1
92437.6
92372.1
92298.7
92219.2
92130.8
92028.9
91903.4
91650.5
91310
90889.7
92870.1
92835.6
92797.8
92759.2
92704.7
92653.1
92593.4
92531.5
92464.8
92399.9
92329
92253.2
92166
92075
91964.3
91771
91497.9
91075
92907.1
92872.8
92837.6
92799.2
92745.2
92693.8
92636.4
92573.2
92506.2
92442.3
92376.5
92300.2
92216.7
92128.9
92035.6
91898.3
91698.9
91415.3
92960.8
92927.7
92895.8
92858
92804.4
92751.2
92697.7
92635.7
92568.6
92499.4
92443.5
92373
92286.4
92197.8
92131.8
92035
91916.8
91858.3
93032.9
93005.9
92977.3
92939.9
92888.8
92832.9
92777.9
92719.3
92659.3
92590.8
92524.4
92465.3
92393.6
92305.7
92237.2
92191.5
92127
92162.4
93120.7
93098.1
93070.8
93033.2
92984.8
92929.9
92871.3
92813.9
92758.4
92696.2
92626.9
92568.5
92510.5
92441.9
92365.3
92323.5
92273.4
92295.7
93219.1
93199.3
93171.9
93133.8
93085.8
93035.4
92975.8
92917.2
92863.8
92805.6
92738.5
92680.5
92626.8
92574.7
92504
92459
92409
92398.3
93353.2
93333.3
93305.6
93266.9
93219.3
93172.4
93114.9
93056.2
93002.6
92945
92881.3
92827.5
92775.7
92728.6
92670.7
92637.3
92596.3
92556.7
93529.4
93510.3
93484.1
93445.5
93399.8
93353.3
93298.4
93241.8
93186.7
93129.2
93071.1
93019.6
92969.9
92924.6
92877.3
92846.2
92816.8
92773.5
93764.1
93746.7
93722.8
93685.8
93642.7
93594.9
93542.1
93486.7
93432.5
93374.3
93321.6
93271.3
93223.7
93180
93139.6
93105.4
93076.3
93042.1
94081.5
94062.3
94039.7
94005.1
93963.7
93915.7
93864.9
93811.1
93758
93699.3
93649.4
93600.6
93555.4
93512.8
93475.4
93441.1
93413.5
93386.3
94492.8
94478.7
94457.8
94425.6
94386.1
94339.7
94290.3
94237.6
94185.5
94128.5
94079.3
94031.4
93987
93945.5
93909.1
93876.2
93849.9
93826.7
95033.1
95023.9
95005.7
94976.3
94939.2
94894.8
94846.6
94795
94743.1
94688.6
94638.9
94590.8
94546.1
94504.6
94467.9
94435.2
94408
94385.7
95731.5
95731.6
95716
95689.2
95654.5
95612.6
95566
95515.5
95463.4
95410.5
95359.2
95309.8
95263.4
95220.3
95181.3
95146.6
95116.7
95091.8
96637.5
96635.9
96620
96595.2
96562.9
96523.7
96479
96429.5
96377.3
96323.4
96270.1
96218
96168.1
96121
96077.5
96037.8
96002.4
95971.6
97673.1
97668.7
97654.2
97632.2
97602.9
97566.3
97523.2
97474.5
97421.6
97366
97309.4
97253
97197.8
97144.6
97094.2
97047.1
97003.5
96963.9
98653.6
98653.6
98644.1
98626.3
98600.4
98566.2
98524.5
98476.2
98422.4
98365
98302.8
98242
98181.2
98121.4
98063.4
98008
97955.5
97906.2
99500.4
99501.5
99495.8
99481.3
99457.8
99425.3
99384.5
99336
99280.9
99220.8
99156.5
99090.7
99024.4
98958.4
98893.4
98830.2
98769.3
98711.2
100183
100202
100202
100190
100168
100137
100097
100048
99991.8
99929.6
99862.4
99793.2
99722.1
99650.7
99579.7
99509.8
99441.7
99375.9
100746
100767
100769
100759
100738
100708
100668
100619
100562
100498
100428
100356
100282
100206
100130
100054
99980.4
99908.3
101189
101209
101211
101202
101182
101153
101113
101064
101006
100941
100869
100795
100717
100638
100558
100478
100400
100323
101526
101543
101546
101537
101518
101489
101450
101401
101342
101276
101204
101127
101047
100965
100882
100799
100717
100636
101766
101787
101791
101783
101765
101737
101697
101648
101589
101522
101449
101371
101289
101205
101120
101035
100950
100867
101936
101959
101964
101957
101940
101912
101873
101823
101764
101697
101623
101543
101461
101375
101289
101202
101115
101030
102055
102076
102080
102074
102057
102030
101991
101941
101882
101814
101740
101660
101577
101491
101403
101315
101227
101140
102134
102150
102154
102148
102132
102104
102066
102016
101956
101889
101814
101734
101650
101563
101475
101386
101297
101209
102178
102191
102194
102189
102173
102146
102107
102058
101998
101930
101855
101775
101691
101603
101515
101426
101337
101249
102196
102209
102211
102205
102190
102163
102124
102074
102015
101947
101872
101792
101707
101620
101531
101442
101353
101265
90384.1
90386.9
90392.8
90401.5
90413
90426.9
90443.6
90463.1
90485.7
90511.7
90541.3
90574.8
90612.1
90653.6
90699.3
90749.1
90803.1
90861
90922.6
90987.9
91056.8
91128.7
91203.4
91280.5
91359.2
91439.7
91524.6
91613.3
91702.5
91792
91880.9
91970.1
92059.4
92149
92238.9
92328.4
92417
92504.1
92589.3
92672.2
92752.5
92830.1
92904.6
92975.9
93043.7
93107.9
93168.4
93225.2
93278.1
93327.4
93373.1
93415.5
93454.9
93491.6
93526.1
93559.1
93590.9
93622.1
93653.3
93685.2
93718.3
93753.4
93791.2
93832.4
93877.6
93927.8
93983.3
94044.5
94111.7
94185
94264.5
94349.7
94440.4
94536
94635.8
94738.9
94844
94949.2
95052.6
95152.2
95246.1
95332.1
95408.6
95473.3
95524
95559.1
95577.7
95579
95563.1
95529.7
95479.6
95414.2
95334.7
95242.7
95140.5
95029.4
94910.8
94787.1
94661.1
94535.6
94413.7
94297.9
94190.2
94092.5
94004
93924.6
93860
93798
93737.3
93678.8
93623.1
93569.6
93515.5
93457.2
93390.7
93315.2
93235
93158.6
93089.8
93024.9
92961.7
92880.9
92775.9
92662.4
92562.1
92459.9
92361
92270.4
92186.4
92108.9
92036.8
91966.7
91893.7
91814
91723
91618.6
91496.4
91358.9
91207.5
91040.1
90853.7
90646.4
90424.6
90191
89951
89708.8
89457.2
89202.8
88953.6
88702.5
88450.1
88196.6
87935
87668.2
87404.9
87144.8
86873.8
86593
86303.2
85996.5
85693.2
85469.1
85362.8
85357
85418.2
85520
85648.9
85802.8
85988
86215.7
86505.4
86867.2
87293.2
87765.5
88280.1
88843.7
89452
90085.7
90696.3
91294.8
90382.5
90385.1
90390.8
90399.3
90410.5
90424.3
90441
90460.6
90483.3
90509.3
90539
90572.4
90609.8
90651.4
90697.2
90747.1
90801.3
90859.7
90922.1
90988
91057.5
91130
91205.5
91283.9
91363.6
91444.6
91528.7
91616.3
91705.4
91795.5
91886.6
91976.6
92066.2
92156
92246
92335.7
92424.8
92512.5
92598.4
92682
92763.2
92841.5
92917
92989.3
93058.1
93123.4
93185
93243
93297.1
93347.6
93394.4
93438
93478.6
93516.6
93552.5
93586.8
93620
93652.6
93685.2
93718.4
93753
93789.5
93828.6
93870.9
93917.3
93968.6
94025.2
94087.3
94155.4
94229.5
94309.6
94395.6
94486.6
94582.5
94682.6
94785.7
94890.8
94996
95099.1
95198.3
95291.7
95377.2
95453.1
95516.9
95566.9
95601.2
95618.7
95618.5
95600.8
95565.8
95513.7
95445.9
95363.7
95269.3
95165.3
95052.9
94932.2
94805.6
94676.5
94548.4
94424.1
94305.2
94194.1
94095.2
94008.9
93925.7
93854.1
93789.3
93727
93667.1
93610.6
93555.9
93500.5
93440.9
93373.1
93296.8
93217.2
93143.3
93077.6
93017.3
92958
92876.7
92772.2
92663.6
92569.1
92468.3
92372.1
92285.1
92204.5
92130.5
92062.2
91995.3
91925.9
91851
91764.9
91666.6
91550
91417
91272.6
91113
90933.3
90731
90514.6
90285.8
90051.7
89818.2
89571.9
89321.6
89080.8
88835.4
88588.2
88340.3
88081.6
87815.2
87555
87300.1
87030.6
86750.4
86460.8
86144.5
85829.4
85591.7
85484.9
85480.6
85541.2
85640.1
85764.8
85913.2
86093.3
86312.8
86593.3
86951
87373
87839.2
88350.4
88907.9
89507.3
90134.9
90741.7
91335.9
90379.3
90381.8
90387.1
90395.2
90406
90419.6
90436.1
90455.7
90478.5
90504.8
90534.5
90568.1
90605.6
90647.4
90693.4
90743.9
90799.1
90858.8
90922.5
90989.9
91060
91133.6
91210.7
91289.4
91369.7
91453.4
91540.1
91627.3
91714.6
91803.3
91893.6
91984.6
92075.9
92167.4
92258.8
92349.6
92439.6
92528.3
92615.4
92700.5
92783.3
92863.5
92941
93015.3
93086.2
93153.8
93217.7
93277.8
93334.1
93386.7
93436
93482
93525.2
93565.8
93604.2
93641
93676.8
93712.1
93747.5
93783.4
93820.8
93860.2
93902
93947.1
93996
94049.5
94108.3
94172.4
94242.3
94318.1
94399.6
94486.9
94579.3
94675.9
94776
94878.8
94983.7
95088.8
95191.5
95289.9
95382.2
95466.3
95540.5
95602.4
95650.5
95683.1
95699.1
95697.1
95676.5
95637.8
95581.8
95509.4
95422.3
95322.6
95214.2
95098.5
94973.8
94842.2
94707.6
94573.5
94443.9
94321.6
94207.6
94102.1
94006.7
93923.9
93848
93775.9
93709
93646.2
93586.8
93529.5
93471.5
93409.3
93339.9
93263.7
93186.6
93116.4
93053.8
92997.1
92939.1
92860.2
92763.4
92667.3
92581.5
92483.7
92392.9
92313.9
92240.8
92173.6
92111.9
92052.5
91990.9
91925.3
91849.6
91763.5
91658.2
91535.5
91404.6
91262.1
91097.1
90904.8
90699.7
90481.2
90258.3
90043
89808.5
89567.1
89345.7
89113.2
88877.6
88642.9
88389.6
88124
87872.3
87632.6
87369.6
87093.2
86804
86469.8
86129
85881.5
85770.6
85757.8
85805.9
85891.4
86002.4
86137.2
86303.2
86504
86770.5
87121.7
87531
87984.7
88489.9
89035.2
89617.1
90229.5
90829.1
91417.4
90374.5
90376.8
90381.7
90389.4
90400
90413.5
90430.1
90449.9
90472.8
90499.2
90529
90562.5
90599.9
90641.9
90688.4
90739.7
90796.2
90857.6
90922.9
90991.5
91064.3
91141.4
91221.1
91301.5
91381.1
91461.9
91546.8
91634.9
91724.1
91814.3
91905.6
91997.7
92090.3
92183.3
92276.3
92368.9
92460.7
92551.5
92640.8
92728.3
92813.7
92896.7
92977
93054.3
93128.4
93199
93266.1
93329.3
93389.1
93445.5
93498.3
93547.8
93594.5
93638.7
93680.8
93721.3
93760.8
93799.8
93839
93878.9
93920.4
93963.9
94009.9
94059
94111.7
94168.7
94230.9
94298.1
94370.8
94448.8
94532
94621.1
94715.4
94812.9
94913.5
95016.1
95119.8
95224.2
95326.4
95423.6
95514
95595.7
95667.3
95726.6
95771.8
95801.3
95814.2
95809.4
95785.4
95742.8
95683
95606
95513
95405.8
95289.1
95166.3
95035.2
94895.9
94753.4
94612.7
94476.6
94347.5
94227.7
94116.8
94014.4
93922
93836.8
93759.7
93687.5
93619.8
93556
93494.2
93432.3
93367.3
93297.1
93223.3
93149.9
93081.7
93019
92962.5
92905.7
92833.7
92750.3
92675.5
92597.6
92505.8
92424
92357.9
92297.1
92240.3
92187.7
92138
92088.5
92036.7
91976.1
91907.4
91819.7
91713.6
91600.7
91481.5
91339
91163.2
90975.2
90771.7
90563
90372.2
90157.4
89929.6
89736.1
89527.6
89313.8
89103.9
88861.9
88596.5
88353.2
88135.2
87886.7
87621.8
87336.6
86976
86602.7
86341.1
86218.3
86185.9
86209.6
86270.9
86358.1
86472.3
86615.6
86792.2
87042.6
87376.8
87763
88203.6
88695.6
89224.9
89784.6
90371.2
90957.9
91538.1
90368.3
90370.5
90375.4
90383.1
90393.8
90407.4
90424.1
90443.9
90467
90493.2
90523
90556.5
90594.1
90636.3
90683.4
90735.3
90792.6
90855.4
90923.2
90995.3
91071
91148.5
91227.2
91307
91388.4
91471.8
91557.8
91646.2
91736.3
91827.9
91920.9
92014.8
92109.5
92204.6
92299.9
92394.9
92489.4
92582.9
92675.2
92766
92854.8
92941.5
93025.6
93106.9
93185
93259.7
93330.9
93398.7
93462.9
93523.8
93581.3
93635.4
93686.6
93735.5
93782.5
93827.7
93871.9
93915.7
93959.8
94004.7
94051.2
94099.8
94150.8
94204.9
94262.4
94324
94390.5
94462
94538.7
94620
94705
94796
94892.5
94991.2
95092
95195.1
95298.4
95401.1
95501.9
95597.2
95684.8
95763.2
95831.2
95887.2
95929.1
95954.6
95962.3
95952.3
95923.8
95876.6
95812.1
95730.4
95631.7
95517.8
95392.9
95259.6
95118
94969.5
94817.6
94667.3
94523.2
94387
94259.3
94137.7
94025.6
93923.3
93829.6
93743.8
93664.6
93591.1
93521.5
93454.3
93387.9
93320.3
93250.5
93180.5
93111.8
93044.8
92980.5
92922.4
92866.2
92804.6
92734.9
92688.4
92613.2
92532.5
92465.7
92418.2
92374.1
92331.6
92292.6
92256
92221.2
92186.1
92145.7
92099.7
92034.1
91949.3
91859.3
91766.4
91651.3
91498.4
91334.4
91152.4
90961.2
90796.1
90608
90400.6
90238.1
90061.8
89881.1
89711.8
89491.2
89230.5
88997.3
88802.2
88571.5
88326
88051.8
87664.1
87251.5
86961
86815
86754.8
86747
86775.3
86830
86917.6
87031.1
87178
87403.5
87708.3
88075
88499.4
88967.5
89474.3
90005
90562
91130.5
91696.7
90361.4
90363.7
90368.8
90377
90388.1
90402.3
90419.6
90439.9
90463.3
90490.2
90520.3
90554
90592
90634.8
90682.6
90735.5
90793.8
90857.4
90925.7
90997.9
91073.5
91151.7
91231.4
91312.7
91395.9
91481.5
91569.4
91659.5
91751.5
91845.1
91940.2
92036.4
92133.6
92231.3
92329.3
92427.4
92525.1
92622.2
92718.3
92813.1
92906.3
92997.5
93086.3
93172.5
93256.4
93335.9
93412.3
93485.4
93555.2
93621.6
93684.8
93744.8
93801.9
93856.6
93909.3
93960.5
94010.6
94060.2
94110.1
94160.8
94213
94267.6
94324.6
94384.4
94447.5
94514.4
94585.6
94661.3
94742.3
94828.6
94916.6
95009
95108
95209.5
95311.5
95414.6
95518.2
95619.5
95717
95809
95892.7
95967.1
96030.9
96082.4
96120
96141.7
96145
96128.7
96093.4
96039.3
95967.2
95878.1
95772.6
95652.1
95519.6
95376.4
95222.6
95062.3
94900.6
94740.8
94586.7
94439.3
94298
94166
94042.9
93930
93826.5
93732.1
93645.2
93564.1
93487.3
93414
93343
93273.2
93204.2
93138.1
93074.8
93011.1
92947.5
92888
92830.6
92775.5
92720.6
92697.4
92631.3
92569.3
92521.5
92495.5
92471.3
92446.5
92425.6
92406.6
92390.2
92377.1
92363.1
92345.3
92303.2
92242.6
92181
92115.8
92031.6
91909.8
91775.1
91621.2
91449.7
91302.9
91150.5
90977.7
90849.5
90707.2
90569.1
90458
90266.6
90017.2
89801.2
89630.7
89419.4
89198.5
88940.6
88528.8
88071.5
87736.4
87554.9
87461.5
87416.2
87405.5
87418.1
87470.2
87551.9
87666.9
87859.6
88128.6
88474
88868
89308
89781.3
90278.6
90806.9
91348.4
91891.9
90354.3
90356.6
90361.9
90370.2
90381.7
90396.5
90414.5
90435.7
90460.3
90488.3
90519.8
90555
90594.2
90637.8
90686.2
90739.7
90798.5
90862.3
90930.6
91002.8
91078.4
91156.7
91237.2
91320.1
91405.3
91493.1
91583.1
91675.3
91769.5
91865.5
91963
92061.8
92161.7
92262.5
92363.9
92465.6
92567.4
92668.8
92769.6
92869.3
92967.6
93064
93158.2
93249.5
93338.3
93425.4
93508.8
93588.7
93665.4
93738.6
93808.6
93875.6
93939.7
94001.3
94060.9
94118.7
94175.6
94232
94288.6
94346
94404.8
94465.9
94529.5
94595.9
94665.5
94738.7
94815.8
94896.1
94980.6
95071.4
95164.7
95259.3
95359.4
95463.6
95568.4
95672.2
95774
95872.6
95967
96055.6
96135.9
96205.3
96263
96308.2
96340.1
96357.7
96357.5
96336.1
96293.7
96230.5
96148.7
96050.1
95936.2
95808.3
95667.3
95513.5
95347.9
95175.6
95002.4
94831.2
94666.7
94507.3
94353.3
94207.6
94072.2
93947.5
93833.2
93728.2
93631.2
93541.2
93457.1
93377.6
93301.9
93230
93161.3
93097.9
93038.9
92980.7
92921.2
92863.1
92806.8
92759.1
92720.7
92698.7
92666.1
92627.1
92601.8
92596.5
92592.2
92585.7
92585.3
92587.4
92595.1
92613.6
92630.8
92641.6
92624.2
92595.2
92566.1
92527.4
92476
92398.8
92295.8
92173.7
92020.7
91880.9
91772.2
91654.6
91563.1
91456.7
91373.1
91331.2
91178.5
90948
90759.4
90616.3
90424.9
90230.8
89993.1
89561.6
89056.6
88664.8
88436.7
88307.1
88220.8
88167.4
88128.5
88135.6
88191.4
88278.9
88430.1
88652.3
88955.7
89311.3
89719.7
90148.4
90609.8
91104.2
91607.5
92120.8
90347.9
90350.6
90356.4
90365.6
90378
90393.7
90412.9
90435.3
90461.1
90490.3
90523.2
90559.9
90600.7
90645.6
90695
90749
90807.7
90871
90938.9
91010.8
91086.3
91164.8
91246.2
91330.6
91417.7
91507.3
91599.4
91693.8
91790.3
91888.8
91989
92090.7
92194
92298.4
92403.9
92510.1
92616.8
92723.4
92829.7
92935.3
93039.6
93142.5
93243.4
93342.4
93438.2
93531.6
93622.1
93709.6
93794
93875.1
93953
94027.8
94099.9
94169.3
94236.7
94302.3
94366.8
94430.9
94495.1
94559.9
94626.1
94694.3
94764.8
94838
94914.1
94993.8
95077.2
95163.8
95252.9
95346.4
95445.1
95544.2
95645.1
95749.9
95855.8
95960
96060.8
96157.1
96247.8
96333
96410.1
96475.4
96527.1
96564.7
96588.3
96599.1
96593.4
96565.9
96516.6
96446.1
96355.3
96247.3
96124.4
95986.5
95835
95670.4
95493.1
95308.3
95122.2
94939.4
94763.5
94592.3
94425.3
94265
94115.7
93978.4
93851.8
93734.5
93626.4
93527.6
93435.9
93349.8
93270
93195.7
93126
93062.6
93005
92950.6
92896.9
92845.6
92796.6
92756.7
92729.8
92721
92714.5
92702.5
92707.6
92726.1
92744.7
92756.2
92775.9
92801.1
92839.9
92893.6
92942.7
92986.5
93000.2
93012.3
93012.7
92999.9
92983.4
92955.8
92884.5
92799.6
92672.8
92544.2
92482.7
92433
92371.8
92305.3
92284.1
92288.1
92202.9
92014.3
91868
91756.2
91581.8
91411.9
91195.6
90752.3
90198.3
89744
89460
89291.8
89165.4
89065.4
88969.8
88921.5
88946.7
89002.8
89104.8
89279.1
89531.7
89849.8
90213.5
90588.5
91004
91448.3
91908.1
92381.2
90341.3
90343.9
90349.8
90359.3
90372.3
90388.7
90408.7
90432.4
90459.6
90490.4
90524.9
90563.2
90605.4
90651.7
90702.5
90757.7
90817.3
90881.3
90949.4
91021.4
91096.9
91176
91258.7
91344.5
91433.3
91524.8
91618.9
91715.6
91814.7
91915.9
92019.2
92124.5
92231.7
92340.6
92450.9
92562.4
92674.6
92787
92899.2
93010.8
93121.8
93231.7
93340.3
93446.1
93550
93651.4
93750.4
93846.5
93939.7
94029.8
94116.8
94200.8
94282.1
94360.8
94437.2
94511.8
94585.1
94657.7
94730
94802.6
94876.4
94951.6
95029.1
95109.4
95192.5
95278.5
95367.6
95459.8
95555
95652.1
95753.1
95857.2
95960.5
96065
96170.9
96275.1
96375.4
96470.5
96558.7
96639.6
96712.1
96772.4
96819.9
96851.8
96866.4
96867.4
96854.9
96820.4
96762.4
96684.9
96588
96471.6
96338
96188.8
96025.2
95847.9
95657.9
95461
95261.6
95065.7
94877.3
94693.5
94513.2
94338.9
94176.4
94026.1
93886.5
93756.6
93637
93527.7
93427.3
93335.4
93251
93173.3
93102.8
93038.8
92982.1
92930.6
92882.6
92838.5
92801.3
92774
92758.5
92761.9
92777.3
92802.3
92841.8
92880.8
92926.7
92958.4
93000.5
93052
93128.2
93211.8
93295.9
93389.2
93455.9
93502
93516.3
93531.6
93553.7
93564.8
93525.2
93482.8
93406.3
93318.8
93313.4
93330
93291
93265.3
93292.9
93294.6
93303.3
93201.5
93123.9
93047.4
92882.9
92730.9
92530.7
92084.5
91487.8
90969.7
90623.3
90409.4
90244.7
90092.3
89943
89838.8
89812.3
89812
89868.8
90010.2
90225
90501.4
90802.5
91121.1
91470.9
91845.9
92256.7
92676.1
90335.7
90338.3
90344.3
90353.8
90367
90383.8
90404.4
90428.8
90457.1
90489
90524.6
90564.2
90608.2
90656.6
90709.2
90765.6
90826
90890.4
90959.2
91032.2
91109.3
91190
91274.1
91361.5
91452.1
91545.8
91642.3
91741.6
91843.5
91947.9
92054.8
92164.2
92275.9
92389.7
92505.2
92622
92739.6
92857.7
92975.9
93094
93211.6
93328.4
93444.3
93559.5
93672.6
93783.6
93891.7
93997.1
94099.8
94199.5
94296.3
94390.4
94481.9
94570.9
94657.5
94742.1
94825.6
94908.1
94990.1
95071.6
95153.1
95235.9
95320.4
95407.4
95497.5
95590.5
95685.7
95783.3
95883.4
95985.6
96088.9
96195.4
96302.5
96408
96512.5
96615.5
96714.7
96808.4
96894.3
96970.5
97037.9
97092.3
97133.6
97161.6
97169.4
97159.1
97138.6
97101
97036.1
96948.2
96842.4
96717.4
96572.6
96411.4
96236.3
96047
95844
95634.4
95422
95210.9
95008.2
94812.1
94620.2
94434.5
94258.6
94093.9
93940.6
93797.8
93666
93546.3
93437.9
93340
93249.9
93168.9
93097.5
93034.4
92980.5
92933.9
92892.4
92855.4
92828.6
92817
92817
92830.6
92865.1
92927.7
93006.6
93064.6
93136.8
93192.7
93258.2
93340.7
93458.2
93564.3
93698
93831.3
93957.9
94031.8
94061
94108.8
94178.2
94224.4
94233.4
94236.2
94223.9
94208.3
94278.8
94358.9
94343.1
94359.9
94403.4
94391.3
94480.4
94493.1
94519.5
94478.8
94316.1
94177.6
93979.8
93536.1
92911.1
92334.5
91921.9
91650.7
91444.1
91235.4
91039.8
90887.5
90786.9
90713.1
90734.7
90853.5
91038.6
91256.9
91479.7
91729.6
92001.3
92304.1
92648.1
93012.7
90331.9
90334.6
90340.5
90350.2
90363.7
90380.9
90402
90427.1
90456.2
90488.9
90525.8
90567
90612.8
90662.8
90716.2
90773.3
90834.8
90901
90971.7
91046.2
91124.5
91206.6
91292.5
91382
91475
91571.3
91670.6
91772.8
91877.9
91985.7
92096.6
92210.4
92326.9
92445.8
92566.5
92688.6
92811.9
92936.1
93060.9
93186.2
93311.7
93437.1
93561.9
93685.9
93808.3
93928.8
94046.7
94162
94274.7
94384.6
94491.7
94596.1
94698
94797.5
94894.5
94989.5
95083.3
95176.3
95268.8
95360.9
95452.7
95544.4
95637
95731.3
95827.8
95927.2
96028.4
96131.3
96236.3
96342.7
96449.8
96557.5
96666.3
96774.4
96879.3
96980.5
97076.3
97166.3
97249.6
97320.8
97382.9
97433.2
97466.6
97487.6
97490.4
97470
97436.7
97393.9
97325.6
97229.1
97112.4
96977.3
96821.9
96650.3
96464.8
96264.6
96049.9
95827.2
95603.3
95377.6
95160.3
94951.8
94748.7
94550.8
94361
94182
94015.7
93862.1
93719.9
93590.2
93472.6
93367.9
93272.8
93189.5
93116.5
93053
93001.2
92958.7
92925.3
92900.3
92884.2
92882.4
92901
92934.5
92983.2
93063.9
93178.2
93277.9
93375.9
93471.1
93560.7
93673.9
93823.9
93957.9
94136
94283.2
94439.7
94557
94633.9
94723.8
94848.7
94959.3
95057.1
95132.2
95179.7
95223.8
95366
95506.9
95521.3
95594
95642.2
95661.3
95771.5
95890.8
96039.7
96022.2
95859.2
95731.1
95521.1
95081.4
94446.4
93823.2
93347.6
93008.2
92750.9
92487.4
92246.3
92049.4
91866.2
91723.4
91720.3
91814.6
91961.1
92102.7
92243.9
92407.3
92595.5
92820.5
93077.5
93384.8
90331
90333.7
90339.5
90349.1
90362.8
90380.4
90402
90427.6
90457.2
90490.7
90528.3
90570.1
90616.4
90667
90722.2
90781.7
90845.7
90913.7
90985.7
91061.8
91142.3
91227
91315.3
91407.2
91502.9
91602
91704.5
91810
91918.6
92030.5
92145.6
92264.1
92385.6
92509.4
92635.3
92763
92892.4
93023.2
93155.4
93288.6
93422.6
93556.7
93690.4
93823.4
93955.6
94086.1
94214.2
94339.8
94463.1
94583.7
94701.2
94816.4
94929.3
95040
95148.1
95254.1
95358.6
95462.2
95565
95666.8
95768.5
95870.9
95973.6
96076.7
96180.4
96285.3
96392.4
96500.1
96609.1
96719.6
96830.5
96940.9
97050.1
97157.8
97263.1
97364.1
97458.7
97544.1
97623
97690.1
97744.6
97789.7
97817.4
97828.9
97826
97799
97752.1
97697.5
97624.1
97521.7
97396.3
97251.4
97086.5
96905.2
96709.5
96499.4
96274.5
96039.9
95804.6
95566.3
95336.3
95115.2
94899.7
94689.6
94487.3
94296.4
94119.3
93954.1
93799.5
93659.4
93533.6
93423.3
93325.2
93239.3
93163.7
93100.4
93050.4
93008.9
92983.2
92972.2
92972.6
92982
93010.6
93071.3
93137.5
93231.5
93351.9
93496.8
93627.5
93783.7
93908.1
94055.3
94217.2
94392.6
94590.7
94757.3
94928.3
95101.4
95253.8
95403
95580
95791.1
96004.8
96199
96338.7
96403.4
96566
96743.5
96800.2
96937.2
97024
97111.5
97213.1
97415.3
97653.9
97628.8
97476.2
97349.9
97122.7
96692.9
96068.8
95415.8
94890.1
94475.9
94155.2
93844.5
93549.9
93297
93037.1
92846.8
92818.3
92865.4
92954.2
93023.6
93095
93160.9
93251.4
93379.4
93545.5
93777.6
90334.7
90337.3
90342.6
90352.1
90365.8
90383.6
90405.7
90431.8
90461.9
90495.9
90534.2
90576.9
90624.4
90676.7
90733.3
90794.2
90859.1
90928.5
91002.5
91081
91163.9
91251
91342.2
91437.6
91536.7
91639.2
91745.1
91854.4
91967
92083
92202.6
92326
92452.3
92581.3
92712.7
92846.3
92982.2
93120.1
93259.9
93400.9
93542.9
93685.3
93827.9
93970.3
94112.1
94253.1
94391.7
94527.6
94661.6
94793.2
94921.7
95047.5
95171.3
95293.1
95412.7
95530
95646.3
95762
95876.3
95988.4
96099
96210.4
96323.5
96436.4
96549
96661
96773.5
96886.3
96999.6
97113.2
97226
97338
97449.1
97557.3
97661.4
97760.4
97853.5
97936.8
98010.1
98073.5
98121.2
98157.4
98178.7
98181.1
98169.8
98138.2
98082.3
98015.2
97935
97827.2
97694
97540.8
97367
97175.9
96969.7
96750.2
96516.5
96271.7
96022.7
95777.7
95536.1
95301.6
95073.3
94852.3
94639.9
94437.6
94248
94069.2
93904.5
93759
93630.3
93515.9
93413
93320.5
93240.5
93177.8
93131.5
93095.7
93078.9
93075.3
93089.7
93119.4
93156.2
93240.4
93329.9
93449.2
93584.9
93731.4
93892.5
94107.9
94292.6
94478.3
94649
94851.3
95056.5
95263.7
95476.6
95710.7
95945.9
96163.6
96415.2
96729.1
97025
97307.9
97591.4
97731.1
97894.7
98086.2
98198
98375
98527
98683.9
98807.5
99071.5
99296.4
99241.7
99121
98984.7
98743.4
98339.4
97752.7
97091
96534.8
96047.6
95646
95292.3
94946
94619.6
94292
94065.9
93984.9
93954.5
93955.9
93963.9
93973.1
93949.2
93938.3
93971.7
94048.3
94195.2
90345.3
90347.5
90352.5
90362.1
90375.9
90393.6
90415.9
90442.1
90472.6
90507.5
90546.7
90590.2
90638.5
90691.1
90748.4
90810.9
90878.8
90951.4
91027.6
91108
91193.2
91283.1
91377.4
91475.9
91578.4
91684.6
91794.2
91907.2
92023.8
92144.2
92268.8
92397
92528.6
92662.9
92799.7
92939.5
93082.1
93227.1
93374.2
93522.9
93672.6
93823.7
93975.6
94127.7
94279.4
94430.5
94579.8
94726
94869.9
95011.7
95150.8
95287.3
95422
95554.7
95685.4
95814
95940.9
96067.5
96193.8
96318
96440.1
96561.5
96684
96806.8
96929.1
97049.7
97168.1
97285.9
97402.9
97518.8
97634.2
97747.4
97857.4
97964.7
98068.4
98165.6
98255.4
98335.9
98404.2
98462.4
98505.1
98532.3
98545.9
98540.5
98519.2
98481.1
98417
98338
98250.5
98139.7
98000.2
97839.8
97659.3
97459.1
97243.6
97014.6
96773.8
96521.5
96261.8
96006.7
95754.2
95507.5
95267.4
95036.1
94814.1
94601.3
94399.9
94211
94042.3
93892.3
93756.6
93634.2
93526
93430.4
93349.4
93285.4
93240.7
93215.1
93209.4
93213.5
93235.7
93285.2
93338.6
93437.5
93556
93696.5
93884.9
94025.2
94198.7
94441.1
94695.1
94918
95123.1
95336.8
95548.6
95803
96087.9
96393.5
96702.6
97004.7
97379.2
97765
98103.6
98422.3
98803.7
99107.7
99355.7
99581.5
99756.9
99936.7
100143
100350
100516
100801
100914
100843
100760
100604
100351
99988.5
99469.2
98825
98257.1
97710.9
97212
96810
96425
96026.4
95634.9
95352.3
95184.4
95054.2
94936.5
94872.2
94828.4
94743.2
94652.6
94602.3
94582.3
94638.3
90366.9
90368.7
90373.9
90383.5
90396.9
90414.2
90435.9
90461.4
90491.7
90526.4
90565.8
90609.6
90657.7
90711.9
90772.5
90838.2
90907.8
90981.5
91059.9
91143.7
91232.2
91325.3
91422.7
91524.2
91629.8
91739.4
91852.7
91969.7
92090.7
92216
92345.4
92478.6
92615.2
92754.7
92897.4
93043.3
93192.6
93344.7
93499.1
93655.5
93813.3
93973
94134.1
94295.6
94456.8
94617.2
94776.1
94932.4
95085.9
95237.2
95386.3
95533.1
95677.5
95820.5
95962.6
96103.2
96241.2
96377.3
96513.5
96649.7
96784.2
96916.7
97049.2
97182.4
97313.6
97442.9
97569.3
97692.8
97814.1
97932.4
98047.8
98162.1
98272.8
98378
98478.5
98573.2
98659.5
98736.2
98799.6
98850.5
98888
98908
98913.2
98900.8
98869.5
98825
98754.7
98662.4
98563.5
98450.1
98307.9
98142.3
97956.4
97750
97527.1
97289.9
97042.8
96784.6
96517.3
96253.1
95989.8
95732.7
95482.2
95241.1
95010
94788.7
94578.4
94381.3
94203
94040.6
93893.5
93763.5
93654
93561.9
93484.5
93420.1
93376.1
93354.5
93355.7
93378.9
93410.9
93481.7
93549.8
93660.3
93815.3
93965.5
94186.5
94387.3
94575.5
94811.6
95099.3
95356.3
95609.3
95843.8
96077.8
96392.5
96748.4
97131
97501.2
97943.4
98417.3
98860.4
99273.6
99663.2
100071
100508
100867
101157
101421
101627
101866
102098
102290
102527
102527
102456
102384
102203
101936
101622
101186
100588
100019
99442
98839.2
98377.7
97964
97514.5
97060.5
96679.9
96404.4
96157.4
95914.1
95756
95661.1
95539.9
95385.8
95246.5
95134.1
95095.8
90404.4
90406.1
90411.7
90420.4
90432.4
90448.6
90467.3
90490.1
90518.5
90552.1
90591.3
90636.7
90687.8
90745.3
90807.9
90874.9
90946.7
91023.2
91104.6
91191
91282.3
91378.2
91478.7
91583.5
91692.5
91805.7
91922.8
92044.2
92169.7
92299.4
92433.3
92571.3
92713.1
92858.2
93006.7
93159.1
93314.9
93473.5
93634.9
93798.9
93964.9
94132.8
94302.2
94472.5
94642.7
94811.8
94979.2
95144.1
95306
95466
95624.5
95781.6
95936.8
96089.6
96241.1
96392.4
96541.8
96688.4
96834
96980.4
97126.5
97271.3
97413.6
97554.6
97693.8
97830.4
97965.1
98097
98223.9
98346.2
98464.3
98577.8
98687.1
98791
98888.7
98979.2
99061.1
99132.6
99191.8
99235.7
99266.1
99279.3
99275.8
99256.3
99214.4
99161.6
99089.4
98987.8
98874.8
98755.4
98612.7
98445.3
98254.6
98044.9
97815.8
97572.5
97320
97057.1
96784
96511.3
96242.2
95976.8
95717.1
95466.4
95226.6
94997.2
94778.9
94573.2
94382.5
94212
94060.6
93926.9
93813.6
93718.3
93641.6
93581.9
93544.4
93526.1
93530.9
93566.5
93608.8
93699.3
93797.8
93917.2
94099.2
94279.7
94493.4
94756.3
94976.8
95238.4
95533.1
95817.9
96101.7
96360.5
96636.9
97032.3
97439.7
97878
98345.6
98932.3
99450.7
99982.3
100504
101012
101509
102029
102421
102741
103087
103383
103658
103896
104087
104229
104173
104093
103991
103781
103501
103231
102874
102344
101778
101198
100497
99973.1
99519.9
99035.3
98512.6
98024.9
97630.4
97259
96909.9
96642
96472.7
96322.7
96104.3
95886.2
95697
95571.4
90460.2
90461.9
90467.7
90475.9
90486.8
90499.6
90514.3
90534.5
90558.7
90589.8
90629.1
90675.3
90728.5
90788.9
90854.8
90925.6
91001
91080.4
91164.7
91254
91347.8
91446.2
91549.2
91656.8
91768.9
91885.6
92006.6
92131.9
92261.6
92395.8
92534.3
92677.2
92823.9
92974.6
93129
93287
93448.6
93613.3
93781
93952.1
94125.4
94301.4
94479.1
94657.6
94835.9
95012.5
95186.8
95358.8
95528.6
95696.8
95864
96030
96194.4
96357.6
96519.6
96680.5
96840.4
96997.4
97152.1
97307.3
97463.6
97619
97771.3
97919.8
98064.7
98206.5
98345.8
98484
98619.6
98749.2
98871.4
98986.6
99095.6
99197.4
99291.8
99378
99455.3
99521
99574.8
99613.3
99635.8
99642.1
99629.8
99603.9
99553.4
99487.3
99412.7
99308.9
99182.9
99051.9
98907.4
98740.1
98548.8
98338.2
98105.2
97857.6
97601.1
97335.3
97058.2
96778.6
96504.9
96235.5
95968.1
95709.4
95461.3
95223.7
94997.8
94785
94589.3
94416.8
94261.8
94124
94003.5
93899.1
93820.3
93765
93735.7
93729.6
93743.4
93788.2
93840
93934.1
94064.1
94210.9
94401.8
94621.8
94835.9
95124.7
95379.9
95671.8
95999.5
96319.1
96613.6
96914.3
97248
97701.6
98172.9
98656.1
99260.6
99888
100499
101105
101688
102261
102875
103535
103989
104347
104750
105159
105483
105703
105876
105917
105834
105727
105569
105322
105031
104792
104500
104047
103486
102900
102154
101560
101036
100516
99920.2
99364.4
98851.1
98357
97929.8
97551.4
97263.8
97074.9
96805.4
96522
96259
96056
90539.3
90542.1
90547.3
90555.2
90567.1
90573
90585.5
90605.2
90620.9
90651.9
90690.6
90736.8
90791.9
90854.3
90922.6
90996.7
91075
91157.4
91244.2
91335.4
91431.2
91531.7
91636.9
91746.8
91861.6
91981.3
92105.7
92234.8
92368.3
92506.3
92648.8
92796
92947.5
93103.5
93263.3
93426.6
93593.3
93763.8
93937.9
94115.4
94296.3
94478.4
94663.1
94849.1
95034.1
95216.1
95395.2
95572.9
95749.8
95926.2
96102.1
96276.9
96450.6
96623.1
96794.5
96964.7
97133.8
97300.5
97465.5
97629
97792.2
97955
98115.3
98271.9
98424.1
98570.5
98712.8
98853.2
98993.3
99129.9
99259.5
99378.8
99488.4
99589
99681.6
99764.1
99836.3
99896.4
99942.6
99975
99990.8
99990.2
99970
99936.6
99882.7
99803.1
99718.2
99615.2
99484
99340.3
99189.7
99020.2
98830.6
98620.7
98388
98137.9
97879.4
97613.3
97335
97050
96771.2
96501
96227.9
95964.2
95708.2
95463.1
95229.1
95008.1
94806.3
94622.9
94458.2
94316.8
94193.1
94088.9
94013.4
93960.7
93932.9
93935.3
93955.8
94009.6
94094.2
94192.1
94338.6
94514.9
94720.3
94966.9
95199.8
95503.4
95798.9
96098.5
96458.1
96811
97141.4
97513.7
97917.3
98378.2
98934.2
99483
100164
100810
101547
102184
102806
103417
104094
104863
105437
105912
106420
106926
107285
107452
107612
107574
107450
107314
107092
106803
106499
106268
106030
105649
105095
104491
103745
103087
102477
101905
101256
100666
100056
99451.7
98957.4