/*--------------------------------*- C++ -*----------------------------------*\
| =========                 |                                                 |
| \\      /  F ield         | OpenFOAM: The Open Source CFD Toolbox           |
|  \\    /   O peration     | Version:  dev                                   |
|   \\  /    A nd           | Web:      http://www.openfoam.org               |
|    \\/     M anipulation  |                                                 |
\*---------------------------------------------------------------------------*/
FoamFile
{
    version     2.0;
    format      ascii;
    class       volScalarField;
    object      rho;
    location    "9.136";
}
// * * * * * * * * * * * * * * * * * * * * * * * * * * * * * * * * * * * * * //

dimensions      [1 -3 0 0 0 0 0];

internalField   nonuniform List<scalar> 
12225
(
1.08016
1.08319
1.08329
1.08307
1.08257
1.08237
1.08158
1.08158
1.08073
1.08062
1.07992
1.07987
1.07862
1.0803
1.07947
1.08142
1.07252
1.06698
1.08161
1.08765
1.08818
1.08873
1.08794
1.08923
1.08731
1.08862
1.08686
1.08703
1.08575
1.08617
1.08306
1.08725
1.08796
1.08852
1.0732
1.07221
1.08188
1.08869
1.08896
1.09043
1.0892
1.09175
1.08974
1.09137
1.0909
1.09019
1.0899
1.09023
1.08846
1.08785
1.08616
1.08352
1.07671
1.07272
1.08199
1.08891
1.08887
1.09094
1.08991
1.09177
1.09161
1.09082
1.09266
1.09125
1.09143
1.09047
1.09164
1.08867
1.08947
1.08632
1.0842
1.07728
1.08232
1.08914
1.08999
1.0905
1.09172
1.09121
1.09289
1.09062
1.09429
1.09105
1.09359
1.09131
1.09371
1.08844
1.09091
1.0899
1.0901
1.08039
1.08316
1.08876
1.09163
1.09011
1.09406
1.09004
1.09299
1.09363
1.09324
1.09067
1.09397
1.0937
1.0948
1.08948
1.09251
1.09167
1.09389
1.08909
1.08468
1.08824
1.0926
1.09094
1.09349
1.09064
1.09456
1.09592
1.09109
1.09351
1.09573
1.09277
1.09589
1.09439
1.0944
1.08983
1.09428
1.09492
1.08528
1.0888
1.09298
1.09188
1.09328
1.09298
1.09647
1.09435
1.09334
1.096
1.09773
1.0935
1.09613
1.09626
1.09627
1.09236
1.09693
1.09574
1.08676
1.08993
1.09348
1.09092
1.09408
1.09348
1.09679
1.09188
1.09357
1.09452
1.09758
1.09203
1.09419
1.09423
1.09611
1.09305
1.09676
1.09382
1.08831
1.09199
1.09279
1.09011
1.095
1.09388
1.09525
1.09117
1.09479
1.0936
1.09668
1.09345
1.0933
1.09418
1.09662
1.09431
1.0949
1.09375
1.08981
1.09376
1.09406
1.09301
1.0977
1.09452
1.09528
1.09379
1.09636
1.09432
1.09682
1.09604
1.09501
1.09532
1.09655
1.0954
1.09554
1.09647
1.09178
1.09484
1.0965
1.09629
1.09945
1.09597
1.09778
1.09723
1.09873
1.09647
1.0984
1.09832
1.09702
1.09689
1.09778
1.09669
1.09779
1.09886
1.09427
1.09763
1.09903
1.09899
1.10075
1.09853
1.10081
1.10043
1.10102
1.09899
1.09999
1.10057
1.09923
1.09848
1.09887
1.09877
1.09948
1.10014
1.0965
1.10074
1.10227
1.10261
1.10316
1.10194
1.10331
1.10283
1.10287
1.10159
1.10161
1.10245
1.1015
1.10057
1.10037
1.10051
1.10096
1.10127
1.10018
1.10541
1.1067
1.10657
1.10666
1.10644
1.10662
1.10619
1.10606
1.10497
1.10462
1.10511
1.10415
1.10364
1.1032
1.10302
1.1031
1.10321
1.10556
1.11146
1.11251
1.11193
1.112
1.11197
1.1115
1.11128
1.11088
1.10981
1.10945
1.10939
1.10844
1.1081
1.10739
1.10696
1.10658
1.10631
1.11268
1.11918
1.11997
1.11908
1.11915
1.11889
1.11837
1.1182
1.11745
1.1166
1.11614
1.11554
1.11466
1.1142
1.1134
1.1128
1.11229
1.11195
1.12079
1.12806
1.12865
1.12782
1.12794
1.12739
1.1271
1.12692
1.12614
1.12561
1.12487
1.12412
1.12342
1.12268
1.12207
1.12149
1.12094
1.12051
1.12924
1.1366
1.13693
1.13669
1.13688
1.13635
1.13625
1.136
1.13538
1.13489
1.13419
1.13343
1.13289
1.1323
1.13177
1.13137
1.13092
1.13046
1.1364
1.14361
1.14442
1.14456
1.14456
1.14464
1.14445
1.14431
1.14406
1.14347
1.14331
1.14255
1.14223
1.1419
1.14121
1.14107
1.1405
1.14007
1.14207
1.14979
1.15121
1.15114
1.15174
1.15205
1.1516
1.15189
1.15133
1.15106
1.1513
1.15041
1.15067
1.15021
1.14971
1.14973
1.149
1.14892
1.14663
1.15505
1.15649
1.15642
1.15744
1.15729
1.15748
1.15811
1.15732
1.15785
1.1577
1.15716
1.15788
1.15704
1.15747
1.157
1.15686
1.15673
1.15035
1.15884
1.16036
1.16068
1.16151
1.16163
1.16228
1.16275
1.16238
1.16328
1.16261
1.1628
1.16303
1.16217
1.16317
1.16194
1.16281
1.16219
1.15335
1.16178
1.1634
1.16398
1.165
1.16547
1.16623
1.16652
1.16673
1.16716
1.1667
1.16723
1.16684
1.16689
1.16723
1.16666
1.16749
1.16677
1.15493
1.16383
1.16578
1.16666
1.16766
1.16816
1.16868
1.16908
1.16917
1.16951
1.16955
1.16975
1.16968
1.16992
1.1699
1.16999
1.17019
1.16998
1.15664
1.16565
1.16744
1.1682
1.16914
1.16983
1.1704
1.17081
1.17107
1.17147
1.17156
1.1719
1.17181
1.17218
1.17206
1.17226
1.17246
1.17227
1.15771
1.16689
1.16863
1.16937
1.1703
1.17097
1.1715
1.17196
1.17229
1.17276
1.17301
1.17335
1.17361
1.17379
1.17422
1.17429
1.17483
1.17491
1.15826
1.16733
1.16915
1.16995
1.17084
1.17158
1.1723
1.17304
1.17381
1.17455
1.17518
1.17569
1.17618
1.17654
1.17695
1.17712
1.17733
1.17724
1.15841
1.16758
1.16945
1.17024
1.17111
1.17193
1.17276
1.17353
1.17425
1.17476
1.17509
1.17524
1.17513
1.17483
1.17438
1.17372
1.173
1.17202
1.15738
1.16381
1.16486
1.16526
1.16573
1.16605
1.16625
1.16628
1.1662
1.16599
1.16571
1.16532
1.16482
1.16425
1.16361
1.16292
1.1622
1.16172
1.09003
1.10877
1.11594
1.1207
1.12505
1.12901
1.1324
1.13545
1.13834
1.14122
1.14401
1.14619
1.14847
1.15045
1.15163
1.15253
1.15206
1.15115
1.14929
1.14616
1.14546
1.14267
1.13129
1.12081
1.12138
1.12811
1.13454
1.13287
1.12461
1.11648
1.10993
1.10343
1.0968
1.0914
1.08818
1.08679
1.08637
1.08642
1.08683
1.08754
1.08839
1.08925
1.09004
1.09078
1.09147
1.09213
1.0928
1.09347
1.09413
1.09481
1.0955
1.09618
1.09687
1.09757
1.09829
1.09901
1.09973
1.10045
1.10121
1.10199
1.1028
1.1037
1.10467
1.10563
1.1067
1.10802
1.1095
1.11116
1.11303
1.11501
1.11711
1.11922
1.12124
1.12312
1.12523
1.12779
1.13066
1.13361
1.13639
1.13934
1.14254
1.14615
1.1496
1.15251
1.15521
1.15801
1.15997
1.16071
1.16228
1.1666
1.17463
1.1837
1.18936
1.19039
1.18769
1.1863
1.19336
1.20224
1.20683
1.20954
1.21299
1.21765
1.21617
1.19797
1.16761
1.16769
1.15371
1.12243
1.11654
1.1142
1.11753
1.11886
1.11674
1.1167
1.11466
1.11545
1.11718
1.11675
1.11492
1.10767
1.11774
1.12488
1.1214
1.10929
1.11054
1.12034
1.12781
1.12905
1.12952
1.1312
1.13197
1.13333
1.13591
1.13938
1.14129
1.14353
1.14536
1.14933
1.15161
1.15108
1.15004
1.14972
1.15072
1.15
1.14954
1.15008
1.14694
1.14968
1.15013
1.14895
1.15273
1.15683
1.16167
1.16908
1.17592
1.17653
1.17884
1.18215
1.17571
1.17467
1.17912
1.1776
1.16045
1.14171
1.12663
1.11158
1.09694
1.08646
1.07822
1.07042
1.06424
1.06472
1.06769
1.06647
1.0721
1.08509
1.08644
1.08987
1.09332
1.09606
1.08621
1.10045
1.10847
1.11702
1.12515
1.13179
1.13579
1.13879
1.14167
1.14455
1.14706
1.15009
1.15257
1.15811
1.16307
1.16425
1.16969
1.1744
1.17409
1.17426
1.17765
1.18003
1.17807
1.16794
1.14557
1.13419
1.16715
1.2004
1.17694
1.132
1.10626
1.09495
1.08942
1.08785
1.08889
1.09068
1.09217
1.09347
1.09452
1.09548
1.09637
1.09716
1.09815
1.09906
1.09998
1.10094
1.1019
1.10287
1.10378
1.10457
1.10529
1.10595
1.10655
1.10712
1.10766
1.10821
1.10883
1.10966
1.11068
1.11186
1.11323
1.11483
1.11687
1.11914
1.12121
1.12352
1.12639
1.12919
1.1322
1.13579
1.13959
1.14403
1.14862
1.15227
1.15491
1.15684
1.15886
1.16235
1.16753
1.17222
1.17723
1.18159
1.18439
1.1868
1.19164
1.20075
1.21037
1.21549
1.21862
1.22489
1.23364
1.2402
1.24124
1.23806
1.23364
1.23593
1.25029
1.26961
1.27264
1.27009
1.29327
1.32156
1.31407
1.25335
1.16225
1.12446
1.1212
1.11884
1.13029
1.13356
1.13865
1.13452
1.12732
1.12281
1.12608
1.13864
1.14819
1.15022
1.15937
1.15212
1.16618
1.14034
1.14696
1.13247
1.1272
1.13391
1.14866
1.15627
1.15118
1.14629
1.14723
1.15463
1.16524
1.17885
1.1919
1.20279
1.21181
1.22456
1.23586
1.24028
1.24079
1.24232
1.24528
1.24697
1.24702
1.24833
1.24339
1.24574
1.25104
1.24702
1.24695
1.25314
1.26294
1.28041
1.30644
1.32249
1.33302
1.34594
1.32853
1.327
1.3905
1.44666
1.41321
1.33761
1.26716
1.21289
1.16796
1.1354
1.11075
1.08501
1.07987
1.09872
1.0894
1.08202
1.10094
1.12635
1.11621
1.11421
1.11872
1.12039
1.08013
1.09163
1.10639
1.12157
1.1315
1.1361
1.13566
1.13494
1.13534
1.13577
1.13553
1.13414
1.13714
1.14268
1.14356
1.14754
1.15807
1.1635
1.17607
1.18483
1.16184
1.1475
1.1697
1.19513
1.18362
1.15162
1.12754
1.11107
1.09751
1.08798
1.08454
1.08444
1.08571
1.08792
1.08984
1.09154
1.09281
1.09361
1.09464
1.09549
1.09679
1.09791
1.09885
1.10007
1.10073
1.10153
1.10232
1.10266
1.1028
1.10252
1.10205
1.10156
1.10113
1.10069
1.10044
1.10026
1.10037
1.10098
1.10187
1.10297
1.10429
1.10594
1.10876
1.11234
1.11492
1.11725
1.12052
1.12248
1.12428
1.12769
1.13142
1.13783
1.14656
1.15468
1.15777
1.15286
1.1475
1.14963
1.15889
1.1648
1.16992
1.1695
1.16547
1.16322
1.16312
1.17147
1.18999
1.21573
1.23311
1.24166
1.24532
1.23691
1.22178
1.21433
1.20184
1.20144
1.22051
1.24339
1.26134
1.27579
1.29222
1.27944
1.21462
1.1497
1.12176
1.12727
1.13703
1.14492
1.15232
1.14827
1.14636
1.13315
1.12322
1.13043
1.15241
1.17716
1.19435
1.204
1.1993
1.15852
1.10012
1.06659
1.11973
1.13708
1.14795
1.15691
1.17334
1.1889
1.18268
1.15993
1.13846
1.1324
1.14414
1.16033
1.18027
1.19368
1.21444
1.23775
1.24668
1.24571
1.25049
1.26142
1.26036
1.26105
1.25527
1.24456
1.25253
1.25889
1.26053
1.27168
1.27765
1.28515
1.29772
1.30706
1.3192
1.34472
1.38299
1.40485
1.38469
1.39232
1.49634
1.56506
1.51547
1.40228
1.30075
1.22353
1.16394
1.12807
1.09382
1.07904
1.11535
1.12953
1.08679
1.08758
1.09096
1.11437
1.14486
1.11997
1.12564
1.12316
1.07878
1.09645
1.12012
1.13328
1.13106
1.12328
1.11627
1.1146
1.11434
1.11324
1.11308
1.11373
1.11575
1.12071
1.12408
1.13028
1.14046
1.1477
1.15159
1.13863
1.14685
1.18679
1.16875
1.12104
1.10362
1.09482
1.08719
1.08235
1.08125
1.08296
1.08645
1.09043
1.09358
1.0954
1.09656
1.09736
1.09793
1.09863
1.09943
1.10001
1.10091
1.10192
1.10229
1.10261
1.10268
1.10218
1.10139
1.10049
1.09921
1.09787
1.09641
1.09508
1.09415
1.09376
1.09381
1.09397
1.0943
1.09499
1.09578
1.09654
1.09721
1.09777
1.09955
1.10263
1.10593
1.11004
1.11536
1.11895
1.11931
1.12031
1.11887
1.12068
1.12752
1.13765
1.14679
1.14603
1.13546
1.1326
1.13953
1.14308
1.1459
1.14427
1.13803
1.13961
1.13909
1.1417
1.14712
1.1686
1.19262
1.21012
1.22598
1.23077
1.23755
1.2622
1.23713
1.19583
1.20724
1.23407
1.24681
1.26259
1.25378
1.20662
1.15462
1.13032
1.13723
1.15072
1.15578
1.15783
1.15324
1.1429
1.13864
1.13051
1.13535
1.15291
1.17435
1.19441
1.21198
1.20602
1.14795
1.07295
1.01905
1.03931
1.09527
1.18924
1.16384
1.16906
1.18661
1.21009
1.21217
1.18615
1.15952
1.14634
1.14784
1.15185
1.16748
1.17346
1.20213
1.23386
1.23335
1.21597
1.21871
1.24049
1.23602
1.24191
1.23381
1.19754
1.21621
1.23595
1.21142
1.23586
1.26044
1.27142
1.29821
1.32541
1.32255
1.32108
1.36953
1.39748
1.38355
1.42693
1.55852
1.58645
1.50252
1.38599
1.29226
1.21292
1.15161
1.12404
1.09211
1.09349
1.13671
1.10186
1.08469
1.11365
1.09085
1.09474
1.14952
1.12409
1.13196
1.15289
1.08034
1.10353
1.12576
1.1189
1.09954
1.09066
1.08958
1.09174
1.09278
1.09608
1.09618
1.09816
1.10233
1.10765
1.11466
1.1216
1.13035
1.14106
1.15483
1.16565
1.16669
1.14159
1.10193
1.08247
1.08216
1.08291
1.08454
1.08801
1.09299
1.09691
1.09998
1.10174
1.10201
1.10158
1.1006
1.09944
1.09912
1.09868
1.09885
1.09962
1.0993
1.09965
1.0998
1.0991
1.09857
1.098
1.09718
1.09625
1.09557
1.0949
1.09409
1.09393
1.0938
1.09442
1.09549
1.09672
1.09761
1.09839
1.09919
1.09955
1.09957
1.09868
1.0976
1.09631
1.09592
1.09709
1.09986
1.10536
1.10973
1.11705
1.11729
1.11511
1.12059
1.13363
1.14091
1.14231
1.14354
1.14128
1.13858
1.13654
1.1378
1.13829
1.12882
1.12673
1.12588
1.13121
1.13658
1.14694
1.16215
1.1821
1.18889
1.18666
1.20519
1.2339
1.21132
1.192
1.21752
1.24838
1.25429
1.24672
1.21382
1.16533
1.14037
1.14047
1.15746
1.16772
1.16932
1.16831
1.15627
1.14358
1.14182
1.14065
1.14553
1.14891
1.15945
1.19039
1.22461
1.21692
1.13728
1.059
1.02495
1.07052
1.10564
1.16205
1.1179
1.12933
1.14642
1.1669
1.17884
1.17504
1.17012
1.16361
1.15845
1.15691
1.17274
1.1742
1.19519
1.22338
1.21761
1.18654
1.18297
1.21586
1.20883
1.22494
1.22407
1.15517
1.17865
1.22192
1.16816
1.18692
1.22388
1.23247
1.2657
1.322
1.32537
1.29796
1.34702
1.36704
1.34804
1.43596
1.59168
1.57834
1.46561
1.35762
1.27272
1.19609
1.13849
1.11102
1.084
1.10055
1.13173
1.09175
1.11435
1.12568
1.1173
1.08861
1.12535
1.12509
1.13293
1.14067
1.08225
1.10689
1.12219
1.10728
1.10225
1.11148
1.11108
1.11104
1.11861
1.11765
1.10904
1.1143
1.1221
1.1224
1.12736
1.13037
1.13082
1.1351
1.14229
1.13987
1.1205
1.09712
1.08514
1.08677
1.09107
1.09396
1.0967
1.09809
1.09868
1.09822
1.09674
1.0956
1.09406
1.09271
1.09162
1.09132
1.09146
1.09202
1.09239
1.09364
1.09507
1.09595
1.09703
1.09805
1.09856
1.09939
1.10048
1.1012
1.10196
1.10254
1.10305
1.10365
1.10384
1.10429
1.10419
1.10442
1.10453
1.105
1.1061
1.1066
1.10732
1.10743
1.10718
1.10625
1.10528
1.10366
1.10017
1.09749
1.09627
1.10301
1.11099
1.10658
1.10754
1.12549
1.14604
1.15104
1.15043
1.14604
1.14154
1.13578
1.13718
1.13498
1.12508
1.12114
1.11439
1.12149
1.13769
1.15653
1.1752
1.19182
1.17148
1.1529
1.18178
1.203
1.17645
1.19931
1.24938
1.26087
1.24518
1.21548
1.17948
1.15124
1.15046
1.16317
1.18027
1.18586
1.17857
1.16166
1.13517
1.12481
1.13188
1.13136
1.12696
1.12185
1.12844
1.15164
1.18732
1.2101
1.15834
1.09037
1.08217
1.12799
1.07559
1.06186
1.14171
1.1523
1.15495
1.15247
1.15042
1.15363
1.16968
1.1759
1.1758
1.1806
1.20235
1.18758
1.18904
1.21937
1.21221
1.16411
1.15264
1.20346
1.19201
1.21195
1.1969
1.09193
1.13145
1.21096
1.1352
1.14975
1.19687
1.19548
1.22479
1.30678
1.32423
1.27577
1.32802
1.33581
1.29954
1.42267
1.59969
1.56437
1.4361
1.33752
1.25935
1.19094
1.1395
1.10433
1.09242
1.15053
1.18288
1.13944
1.13083
1.11477
1.13194
1.10423
1.14007
1.1523
1.14899
1.11879
1.08253
1.10644
1.12471
1.11915
1.1167
1.11374
1.09893
1.09591
1.09821
1.09264
1.08917
1.08914
1.09644
1.10702
1.11561
1.11974
1.12282
1.1234
1.11769
1.10667
1.09616
1.09166
1.09237
1.0953
1.09646
1.09624
1.09478
1.09358
1.09183
1.09112
1.09039
1.09081
1.09065
1.09107
1.09181
1.09339
1.09537
1.09868
1.10193
1.10402
1.10692
1.10951
1.11126
1.11302
1.11411
1.11476
1.11504
1.11467
1.11453
1.11375
1.11286
1.11167
1.11001
1.10929
1.1075
1.10665
1.10608
1.10559
1.10588
1.10609
1.10661
1.10587
1.1051
1.10425
1.10476
1.10623
1.10858
1.10719
1.10498
1.10198
1.11643
1.11761
1.10864
1.11234
1.12946
1.13981
1.13599
1.12905
1.12455
1.12434
1.13467
1.13357
1.12164
1.11293
1.09769
1.09707
1.11583
1.14611
1.16765
1.17231
1.14547
1.14656
1.18526
1.18723
1.17018
1.20946
1.25421
1.25898
1.24202
1.20391
1.16525
1.15299
1.1655
1.18502
1.19869
1.19061
1.16461
1.14036
1.12606
1.13204
1.1323
1.12132
1.11432
1.10439
1.09867
1.0946
1.10706
1.13146
1.12442
1.10516
1.10313
1.08076
1.04411
1.09642
1.1418
1.17214
1.17466
1.15876
1.15133
1.15273
1.17158
1.18195
1.19866
1.20792
1.21627
1.17297
1.1759
1.22909
1.2038
1.14063
1.12753
1.18699
1.16714
1.18116
1.15672
1.05656
1.09932
1.19574
1.09326
1.12141
1.18071
1.14476
1.17896
1.29094
1.32274
1.25811
1.31318
1.30394
1.24705
1.39602
1.59275
1.55362
1.41746
1.3244
1.25668
1.19832
1.15889
1.11008
1.10452
1.1892
1.22353
1.19052
1.14529
1.14425
1.14877
1.11503
1.14139
1.13811
1.12895
1.1099
1.08249
1.10557
1.12537
1.11486
1.10075
1.10609
1.10435
1.09234
1.08857
1.09198
1.0931
1.08901
1.08675
1.08802
1.09066
1.09477
1.09729
1.0941
1.09504
1.09696
1.09587
1.09434
1.09394
1.09388
1.0925
1.09117
1.0905
1.09014
1.09077
1.09168
1.0919
1.09247
1.09352
1.09591
1.10021
1.10599
1.11253
1.11807
1.1233
1.12777
1.13116
1.13408
1.13634
1.1383
1.13957
1.14029
1.14091
1.14065
1.14016
1.13921
1.13814
1.13635
1.13364
1.13191
1.1297
1.12816
1.1272
1.12605
1.12504
1.1242
1.12256
1.11893
1.11599
1.11262
1.10902
1.105
1.10439
1.10327
1.10611
1.10199
1.10718
1.11598
1.11055
1.10893
1.11356
1.11995
1.12314
1.12469
1.12498
1.12248
1.12824
1.13093
1.12995
1.1283
1.10718
1.08424
1.08877
1.11517
1.13476
1.14807
1.15201
1.17897
1.20518
1.17608
1.16107
1.21018
1.25325
1.25226
1.23147
1.19168
1.15146
1.14663
1.16987
1.19685
1.20666
1.18054
1.14745
1.13062
1.12575
1.12433
1.11158
1.10362
1.10151
1.09386
1.09215
1.08721
1.08046
1.07579
1.07345
1.07787
1.0802
1.07353
1.07831
1.07271
1.06212
1.16105
1.19491
1.16802
1.17132
1.17654
1.18232
1.19246
1.22144
1.20497
1.19125
1.15492
1.19723
1.2531
1.18438
1.1236
1.11758
1.15089
1.12759
1.13789
1.13764
1.09443
1.12669
1.1916
1.07473
1.11819
1.16246
1.05458
1.116
1.27454
1.32307
1.24792
1.30326
1.27459
1.19491
1.36045
1.5763
1.54525
1.40889
1.31379
1.25819
1.20296
1.18498
1.14013
1.1116
1.17462
1.21788
1.22951
1.20607
1.22053
1.21152
1.19368
1.18884
1.14397
1.13519
1.09562
1.07876
1.09506
1.11928
1.12729
1.11276
1.11101
1.11037
1.10034
1.09182
1.09292
1.09639
1.09095
1.0844
1.08621
1.08641
1.08535
1.08465
1.08854
1.0935
1.08884
1.08664
1.08926
1.09369
1.09291
1.09274
1.0919
1.09233
1.09265
1.09308
1.09241
1.09319
1.09545
1.10035
1.10773
1.11723
1.12508
1.13159
1.13562
1.13719
1.1387
1.14008
1.14151
1.14306
1.14473
1.14645
1.14796
1.14942
1.15051
1.15172
1.15242
1.15313
1.15355
1.15416
1.15448
1.15439
1.1542
1.15348
1.15234
1.1491
1.14424
1.13755
1.13028
1.12417
1.12005
1.11851
1.11624
1.11354
1.1107
1.10892
1.1102
1.10559
1.11059
1.11277
1.10992
1.10859
1.11191
1.1187
1.12375
1.1296
1.12535
1.12459
1.12674
1.12756
1.13997
1.1299
1.0983
1.09083
1.1264
1.15367
1.17035
1.18483
1.20871
1.19866
1.16154
1.171
1.22473
1.25336
1.24123
1.21373
1.16698
1.12848
1.13633
1.17186
1.20601
1.20531
1.1644
1.13234
1.12537
1.129
1.13172
1.12534
1.12202
1.11654
1.11398
1.11835
1.12207
1.11853
1.11477
1.1104
1.11747
1.12946
1.13823
1.11189
1.06504
1.05664
1.12145
1.21571
1.16457
1.17228
1.18514
1.18165
1.19381
1.21962
1.17922
1.18493
1.15595
1.23845
1.24644
1.15432
1.10475
1.10433
1.10382
1.09933
1.10584
1.1346
1.15268
1.1836
1.19862
1.1007
1.1504
1.13642
0.991783
1.04943
1.25042
1.3203
1.24143
1.29885
1.25262
1.1481
1.31898
1.55496
1.54079
1.4093
1.30392
1.25094
1.19734
1.20288
1.18366
1.12638
1.15758
1.21698
1.26011
1.27879
1.29172
1.26071
1.2667
1.24336
1.18801
1.1606
1.12459
1.0779
1.09517
1.11795
1.12562
1.11133
1.11018
1.11131
1.10534
1.09931
1.09961
1.09663
1.09735
1.09544
1.09691
1.0927
1.09028
1.09641
1.09673
1.09287
1.08996
1.09569
1.09703
1.09315
1.09106
1.09134
1.09118
1.09105
1.09028
1.09108
1.09272
1.09678
1.10416
1.11388
1.12332
1.13119
1.13469
1.13485
1.13419
1.1336
1.13439
1.13613
1.13823
1.1403
1.14176
1.14301
1.14371
1.14413
1.14401
1.14403
1.14347
1.14285
1.14249
1.14235
1.14288
1.14434
1.14619
1.14902
1.15215
1.15469
1.15615
1.1547
1.14873
1.14146
1.13456
1.12649
1.12182
1.11808
1.1173
1.11562
1.11575
1.11802
1.11535
1.11975
1.12322
1.12155
1.11619
1.11559
1.11545
1.12091
1.11704
1.11474
1.12343
1.1195
1.12758
1.13219
1.1066
1.0781
1.11941
1.16683
1.17488
1.16851
1.18083
1.16977
1.1522
1.17972
1.23243
1.25344
1.2325
1.20446
1.16072
1.12577
1.13881
1.17616
1.20506
1.19383
1.14973
1.12673
1.13426
1.14654
1.1487
1.13849
1.13261
1.12881
1.13284
1.13289
1.13323
1.13686
1.1436
1.13666
1.13021
1.12148
1.11405
1.11069
1.1129
1.07404
1.07109
1.15718
1.16584
1.1659
1.19049
1.18515
1.20683
1.20397
1.164
1.19182
1.1144
1.16657
1.15213
1.1169
1.08113
1.0763
1.09112
1.14079
1.14989
1.18593
1.21863
1.22546
1.20274
1.14473
1.19906
1.13018
1.04934
1.03075
1.2258
1.30785
1.22565
1.29313
1.23561
1.10822
1.27623
1.53134
1.53797
1.41758
1.30091
1.23805
1.19169
1.20831
1.21139
1.13916
1.17277
1.26363
1.31301
1.33653
1.33205
1.29958
1.2835
1.26141
1.23163
1.16511
1.13874
1.07712
1.09385
1.11604
1.12706
1.1145
1.10537
1.1026
1.09603
1.08466
1.08227
1.08835
1.10142
1.10806
1.09988
1.09452
1.09961
1.09759
1.08816
1.09239
1.10108
1.09706
1.09511
1.09373
1.09511
1.09501
1.09445
1.09363
1.09263
1.09334
1.09623
1.10313
1.1137
1.12396
1.13122
1.13375
1.13362
1.13345
1.13502
1.13854
1.14357
1.14843
1.1523
1.15541
1.15746
1.15885
1.15919
1.15905
1.15838
1.15794
1.15738
1.1557
1.15399
1.15275
1.15083
1.14845
1.14613
1.14486
1.14489
1.14593
1.15023
1.15763
1.16533
1.16584
1.16053
1.14933
1.13751
1.13283
1.12749
1.12711
1.12374
1.12556
1.12426
1.12219
1.12245
1.12799
1.12762
1.12756
1.11942
1.11871
1.12203
1.11322
1.12388
1.12741
1.12325
1.13339
1.12408
1.07807
1.08848
1.14002
1.16023
1.15795
1.16525
1.16338
1.15849
1.19114
1.23631
1.25406
1.23016
1.20102
1.1762
1.15519
1.15975
1.18008
1.19241
1.17278
1.14155
1.13323
1.14715
1.16059
1.15816
1.1443
1.14306
1.14832
1.14918
1.14134
1.13395
1.12734
1.11683
1.11057
1.12143
1.12627
1.12176
1.10369
1.12867
1.10175
1.05412
1.03901
1.13473
1.12146
1.18837
1.20223
1.22569
1.17424
1.17187
1.13408
1.04189
1.05979
1.07834
1.10538
1.08147
1.06489
1.12627
1.22918
1.27244
1.32254
1.32963
1.25205
1.18445
1.17671
1.22578
1.1632
1.16618
1.07279
1.22307
1.28603
1.19496
1.28098
1.21254
1.07212
1.23452
1.50672
1.53567
1.43026
1.3082
1.23025
1.19826
1.21052
1.20558
1.14679
1.21811
1.31999
1.35218
1.35863
1.34479
1.3419
1.33004
1.30189
1.26321
1.19763
1.13144
1.07698
1.09495
1.11761
1.12735
1.11735
1.10408
1.0979
1.09624
1.09855
1.1036
1.11376
1.12388
1.12621
1.11694
1.0974
1.09089
1.10009
1.11204
1.10927
1.10556
1.1002
1.0991
1.0954
1.09317
1.09343
1.09437
1.094
1.09446
1.09542
1.10057
1.11055
1.12137
1.12987
1.13412
1.13462
1.13547
1.13864
1.14414
1.14945
1.15337
1.15541
1.156
1.15628
1.1566
1.15741
1.15767
1.15637
1.15417
1.15312
1.15333
1.15205
1.14933
1.14851
1.15227
1.15531
1.15826
1.15856
1.15949
1.15687
1.15143
1.14894
1.15333
1.16453
1.16907
1.16563
1.15183
1.14043
1.13594
1.13356
1.13327
1.13316
1.13397
1.13442
1.13195
1.13156
1.12843
1.13364
1.13583
1.12829
1.13546
1.12734
1.12259
1.12835
1.12088
1.12794
1.14244
1.10422
1.08335
1.12472
1.15725
1.16107
1.16704
1.17229
1.17364
1.2043
1.24044
1.25449
1.23769
1.20725
1.19025
1.18024
1.1737
1.17692
1.18102
1.16837
1.15046
1.14653
1.15288
1.16437
1.16219
1.15652
1.14948
1.14509
1.13044
1.11951
1.12014
1.11895
1.11503
1.1118
1.1138
1.11205
1.13016
1.11159
1.11788
1.11642
1.09275
1.03605
1.04682
1.04537
1.14233
1.19299
1.22969
1.15431
1.1615
1.05415
1.01941
1.0551
1.09689
1.1383
1.13136
1.11627
1.19467
1.28362
1.33437
1.42626
1.44705
1.28738
1.16901
1.21405
1.23158
1.20791
1.23646
1.1518
1.25874
1.24243
1.14736
1.25771
1.17708
1.03726
1.19615
1.48271
1.53305
1.4449
1.32602
1.23203
1.21336
1.22275
1.1899
1.16066
1.26907
1.35846
1.35528
1.32399
1.3281
1.35472
1.35174
1.31798
1.26827
1.21649
1.14191
1.07718
1.09535
1.11219
1.11463
1.11543
1.1161
1.1173
1.11643
1.11488
1.11104
1.11363
1.12123
1.10943
1.0957
1.10449
1.12202
1.11702
1.10009
1.09547
1.1037
1.10703
1.10669
1.10583
1.10283
1.09848
1.09536
1.09302
1.09277
1.09499
1.10311
1.11364
1.12446
1.13218
1.13419
1.13553
1.13886
1.1445
1.1497
1.15224
1.15253
1.15175
1.15128
1.15195
1.15273
1.15403
1.15636
1.15656
1.15217
1.14865
1.14898
1.14864
1.1429
1.13631
1.13648
1.13984
1.14121
1.14265
1.14618
1.15922
1.16847
1.16828
1.16049
1.15871
1.16818
1.17346
1.17268
1.16019
1.15341
1.14912
1.14564
1.14311
1.14015
1.13754
1.13735
1.14252
1.14054
1.13613
1.1398
1.13485
1.13665
1.13635
1.12444
1.12656
1.12401
1.11844
1.14003
1.1195
1.08884
1.11927
1.15783
1.16368
1.17216
1.18437
1.18913
1.21883
1.24239
1.25533
1.24867
1.22168
1.20134
1.19096
1.1751
1.16842
1.16765
1.1624
1.15145
1.14459
1.14904
1.16612
1.16472
1.15633
1.13743
1.12789
1.11679
1.10905
1.10252
1.09506
1.10685
1.10765
1.10101
1.08727
1.11211
1.12885
1.11667
1.13225
1.12404
1.12436
1.03697
1.02625
1.07231
1.16263
1.19723
1.15239
1.11769
1.01268
1.02297
1.09295
1.14718
1.191
1.19853
1.21922
1.27867
1.29931
1.2835
1.38024
1.50119
1.36202
1.22988
1.30273
1.26336
1.24428
1.27238
1.23239
1.29736
1.17071
1.09992
1.22676
1.13945
1.0064
1.16194
1.45927
1.53247
1.45713
1.35285
1.24468
1.22589
1.24567
1.20187
1.194
1.31148
1.3552
1.32053
1.24656
1.2545
1.28941
1.32523
1.31435
1.28969
1.24305
1.16616
1.07434
1.08424
1.08768
1.08278
1.08175
1.08161
1.08486
1.08884
1.09535
1.10002
1.10342
1.11893
1.13282
1.125
1.11287
1.10835
1.11553
1.11849
1.11075
1.10455
1.10439
1.10469
1.10632
1.10749
1.10547
1.10246
1.0987
1.09822
1.10225
1.10989
1.11962
1.12793
1.13111
1.1324
1.13448
1.14025
1.14695
1.15082
1.15266
1.15306
1.1534
1.15445
1.15688
1.1583
1.15777
1.1581
1.1596
1.15497
1.14749
1.14483
1.14903
1.14551
1.13574
1.13002
1.13949
1.14568
1.13883
1.12431
1.12404
1.14901
1.17
1.1774
1.17082
1.17407
1.17706
1.1811
1.17909
1.17192
1.16573
1.15938
1.15302
1.15532
1.15785
1.14868
1.14271
1.14346
1.14223
1.14129
1.13794
1.13311
1.13866
1.12913
1.12506
1.13021
1.11984
1.14147
1.13429
1.08819
1.09633
1.14024
1.15656
1.17126
1.19014
1.20223
1.23366
1.24356
1.25255
1.2569
1.2407
1.21106
1.18946
1.17448
1.16858
1.16533
1.1579
1.14859
1.14283
1.15562
1.17378
1.15525
1.12986
1.10644
1.0995
1.09804
1.09569
1.08729
1.07685
1.08575
1.07996
1.0963
1.09348
1.09727
1.11485
1.11206
1.1415
1.11097
1.13333
1.13203
1.09949
1.04865
1.10623
1.13765
1.13739
1.07863
1.01002
1.04941
1.13306
1.1864
1.22951
1.27504
1.31055
1.31229
1.31269
1.28951
1.3218
1.49098
1.4276
1.32217
1.41022
1.34726
1.30256
1.31302
1.29272
1.29126
1.11894
1.09042
1.2044
1.11631
0.988982
1.13565
1.43459
1.5367
1.46062
1.38165
1.27259
1.24037
1.27156
1.2469
1.25486
1.34362
1.34225
1.28602
1.19257
1.18071
1.21762
1.29037
1.31485
1.30009
1.26138
1.18427
1.0714
1.07514
1.07608
1.0774
1.08032
1.08407
1.08847
1.09213
1.09393
1.09477
1.09701
1.09416
1.0998
1.10783
1.11667
1.12337
1.12224
1.11752
1.11729
1.11738
1.11698
1.11436
1.11047
1.10801
1.10542
1.10438
1.10331
1.1043
1.10957
1.11687
1.12389
1.12839
1.1303
1.13159
1.13484
1.14193
1.14758
1.15154
1.15365
1.15449
1.15487
1.15441
1.15521
1.1568
1.15646
1.15296
1.15003
1.14413
1.13648
1.12872
1.13005
1.13525
1.13139
1.11846
1.11848
1.13546
1.14218
1.13333
1.11911
1.12752
1.1514
1.17192
1.17393
1.1671
1.1654
1.17071
1.18211
1.18932
1.18023
1.17589
1.17512
1.16325
1.1594
1.16195
1.15979
1.15373
1.14887
1.14519
1.14468
1.13446
1.13696
1.1344
1.12899
1.13386
1.1174
1.13057
1.15285
1.11586
1.09388
1.12284
1.14819
1.16894
1.1893
1.21389
1.24516
1.24873
1.24907
1.25742
1.24934
1.21743
1.1922
1.18257
1.17979
1.17155
1.15679
1.14698
1.14683
1.16186
1.15866
1.12617
1.10408
1.08339
1.06815
1.06535
1.06933
1.07415
1.07007
1.0709
1.0591
1.07297
1.08591
1.10221
1.12953
1.11312
1.13958
1.1385
1.07454
1.16028
1.1682
1.09805
1.07288
1.10308
1.11134
1.04503
1.03482
1.10137
1.16888
1.19784
1.25659
1.34867
1.31956
1.31977
1.38436
1.4169
1.40971
1.50151
1.42616
1.34159
1.45422
1.43333
1.37387
1.36166
1.33661
1.25739
1.13066
1.12858
1.20197
1.11928
0.993783
1.12155
1.40851
1.54026
1.46008
1.40548
1.31081
1.26293
1.29077
1.28874
1.30861
1.36793
1.33847
1.2614
1.1869
1.16329
1.17071
1.25491
1.29721
1.29723
1.28401
1.2105
1.07041
1.07238
1.0763
1.0818
1.08921
1.09438
1.0978
1.09773
1.09868
1.09865
1.10288
1.105
1.1031
1.10487
1.1052
1.10977
1.12004
1.12215
1.12023
1.11913
1.11998
1.12145
1.11915
1.11489
1.11002
1.107
1.10607
1.10706
1.10955
1.11283
1.11777
1.12265
1.12556
1.12963
1.13592
1.14022
1.14283
1.14419
1.14786
1.15325
1.15381
1.15364
1.15636
1.15751
1.15893
1.15375
1.14582
1.13732
1.13212
1.12932
1.12472
1.12281
1.12459
1.12631
1.12159
1.12209
1.12928
1.1262
1.11757
1.11519
1.1397
1.1646
1.17643
1.1655
1.15196
1.15304
1.15931
1.17124
1.18787
1.1906
1.18747
1.18491
1.18297
1.17806
1.17295
1.16721
1.15949
1.15073
1.14958
1.14426
1.14244
1.14215
1.13451
1.13822
1.12785
1.11767
1.15166
1.13776
1.10213
1.10545
1.13639
1.16032
1.18765
1.22104
1.2528
1.25647
1.24856
1.2557
1.25019
1.21823
1.19581
1.19482
1.1949
1.18172
1.16028
1.14809
1.14924
1.16152
1.14507
1.1213
1.10492
1.08594
1.06357
1.05134
1.05275
1.06733
1.07136
1.08177
1.07137
1.0592
1.07543
1.08638
1.13856
1.15234
1.12021
1.17653
1.08041
1.11912
1.15898
1.12591
1.09941
1.12684
1.09348
1.05772
1.09957
1.14009
1.18432
1.1958
1.31519
1.35241
1.30951
1.36179
1.42833
1.44754
1.48869
1.57714
1.4791
1.37985
1.47452
1.49443
1.43143
1.40725
1.37749
1.249
1.17897
1.18514
1.2199
1.144
1.02034
1.12343
1.39256
1.54537
1.46067
1.40878
1.34774
1.29468
1.29734
1.30246
1.32503
1.39207
1.33855
1.25769
1.22322
1.20462
1.16515
1.22828
1.27032
1.28745
1.30782
1.24669
1.07104
1.07548
1.08409
1.09461
1.10164
1.09576
1.09196
1.08978
1.08649
1.08706
1.08707
1.09376
1.09828
1.10504
1.10731
1.10565
1.11131
1.11907
1.12448
1.12606
1.12303
1.12085
1.11991
1.11954
1.11808
1.11476
1.11258
1.1122
1.11395
1.11688
1.11974
1.12368
1.12901
1.13345
1.13461
1.13492
1.13679
1.14067
1.14634
1.15268
1.15504
1.15467
1.15919
1.16103
1.15674
1.14481
1.13014
1.11899
1.11095
1.11109
1.11465
1.11536
1.11472
1.11557
1.11939
1.12236
1.13011
1.13228
1.12906
1.1175
1.12353
1.14507
1.15983
1.16086
1.14957
1.133
1.13367
1.14147
1.15769
1.17542
1.18974
1.19315
1.1889
1.18576
1.18511
1.18243
1.17222
1.16326
1.15474
1.1522
1.14784
1.14724
1.14264
1.14198
1.15042
1.11575
1.13727
1.16006
1.12931
1.09755
1.11769
1.1408
1.18196
1.21874
1.25862
1.26193
1.24969
1.2561
1.25338
1.22155
1.20114
1.2051
1.20527
1.18852
1.16282
1.1501
1.14789
1.15438
1.14472
1.10832
1.07971
1.06833
1.05287
1.04844
1.04987
1.05851
1.05458
1.07153
1.07358
1.05739
1.08335
1.0951
1.11027
1.18366
1.14198
1.16481
1.11604
1.10428
1.15996
1.11905
1.09776
1.1561
1.11276
1.13966
1.20245
1.17327
1.21307
1.24477
1.36542
1.30986
1.3516
1.38398
1.40372
1.39442
1.42314
1.52414
1.48347
1.43986
1.52617
1.55796
1.49072
1.44811
1.41459
1.27953
1.22688
1.23567
1.25384
1.18218
1.06056
1.13855
1.38597
1.54519
1.45929
1.39257
1.37599
1.32566
1.29652
1.29117
1.32115
1.41065
1.35298
1.2799
1.27277
1.27704
1.19313
1.21101
1.26438
1.2819
1.31265
1.2675
1.07355
1.08256
1.09125
1.0969
1.09115
1.08192
1.08514
1.08634
1.08352
1.08109
1.07783
1.08202
1.08812
1.09742
1.10527
1.10451
1.1049
1.11054
1.11896
1.12777
1.12954
1.12546
1.12127
1.12039
1.12172
1.12247
1.12231
1.12114
1.12118
1.12393
1.12686
1.13033
1.13529
1.1373
1.1346
1.1321
1.13672
1.14088
1.14578
1.14959
1.15153
1.15926
1.16501
1.16056
1.14497
1.12718
1.11605
1.11318
1.11577
1.11569
1.11426
1.11608
1.1175
1.12323
1.12646
1.12529
1.12136
1.12881
1.13771
1.13983
1.13195
1.12932
1.14328
1.15172
1.15372
1.14749
1.13525
1.12827
1.13479
1.15185
1.17288
1.1877
1.19455
1.20029
1.19976
1.20039
1.18587
1.17804
1.16209
1.15378
1.15307
1.15162
1.15311
1.13796
1.16666
1.14427
1.12382
1.15192
1.15127
1.11362
1.11593
1.13067
1.17396
1.2072