/*--------------------------------*- C++ -*----------------------------------*\
| =========                 |                                                 |
| \\      /  F ield         | OpenFOAM: The Open Source CFD Toolbox           |
|  \\    /   O peration     | Version:  dev                                   |
|   \\  /    A nd           | Web:      http://www.openfoam.org               |
|    \\/     M anipulation  |                                                 |
\*---------------------------------------------------------------------------*/
FoamFile
{
    version     2.0;
    format      ascii;
    class       volScalarField;
    object      rho_0;
    location    "9.136";
}
// * * * * * * * * * * * * * * * * * * * * * * * * * * * * * * * * * * * * * //

dimensions      [1 -3 0 0 0 0 0];

internalField   nonuniform List<scalar> 
12225
(
1.08209
1.08497
1.08486
1.08449
1.08389
1.08355
1.08271
1.08266
1.08185
1.08178
1.08124
1.08139
1.08031
1.08223
1.08171
1.08384
1.07695
1.07016
1.08363
1.0894
1.08963
1.09004
1.08909
1.0903
1.08823
1.0895
1.08774
1.0879
1.08671
1.08737
1.08416
1.08834
1.08953
1.09156
1.07672
1.07396
1.08388
1.09034
1.09029
1.09165
1.09025
1.09271
1.09058
1.09211
1.09171
1.09095
1.09079
1.09126
1.08981
1.08936
1.08788
1.08693
1.0806
1.07551
1.08392
1.09046
1.09014
1.09206
1.09092
1.0926
1.09239
1.09144
1.09337
1.0919
1.09224
1.09132
1.09291
1.09008
1.09144
1.08864
1.08796
1.08227
1.08417
1.09058
1.0912
1.0915
1.0927
1.09192
1.09355
1.0912
1.09484
1.09157
1.09428
1.09209
1.09486
1.08978
1.09275
1.09204
1.09403
1.0868
1.08487
1.09003
1.09271
1.09101
1.09484
1.09061
1.09356
1.09414
1.09348
1.0911
1.0945
1.09425
1.09576
1.09076
1.09423
1.09345
1.09679
1.09591
1.08625
1.08936
1.09352
1.09166
1.09398
1.0911
1.09502
1.09614
1.09124
1.09374
1.09615
1.0931
1.09647
1.09544
1.09615
1.09157
1.09642
1.09872
1.08661
1.08981
1.0937
1.09231
1.09363
1.09324
1.0966
1.09413
1.09332
1.09589
1.09785
1.09364
1.09631
1.09681
1.09751
1.09388
1.09874
1.09782
1.08788
1.09067
1.09383
1.09108
1.09431
1.09344
1.09648
1.09146
1.09333
1.09407
1.09732
1.09196
1.09407
1.09438
1.09677
1.09409
1.09763
1.09534
1.08919
1.09238
1.09279
1.09012
1.09497
1.09351
1.09458
1.09061
1.0943
1.09295
1.09606
1.09319
1.09306
1.09412
1.09685
1.09507
1.09552
1.09523
1.09024
1.0937
1.09378
1.09274
1.0972
1.09372
1.09442
1.09298
1.09545
1.09336
1.09587
1.09536
1.09445
1.09491
1.09632
1.0956
1.09603
1.09751
1.09156
1.09424
1.09574
1.09543
1.09829
1.09469
1.09649
1.09587
1.09726
1.09501
1.09694
1.09705
1.0959
1.0959
1.09701
1.09626
1.09764
1.09905
1.09322
1.09633
1.09753
1.09737
1.09887
1.09659
1.09877
1.09828
1.09878
1.09682
1.09779
1.09852
1.09737
1.09675
1.09731
1.09754
1.09848
1.09941
1.09437
1.0985
1.09982
1.10001
1.10035
1.09908
1.10029
1.09972
1.09969
1.0985
1.09851
1.09945
1.09868
1.09795
1.09793
1.09831
1.099
1.09959
1.09666
1.10192
1.10296
1.10268
1.10264
1.10235
1.1024
1.10191
1.10175
1.10071
1.10041
1.10098
1.10018
1.0999
1.09966
1.09971
1.10004
1.10044
1.10025
1.10628
1.10709
1.1064
1.10641
1.10629
1.10574
1.10551
1.10509
1.10409
1.10381
1.10386
1.10309
1.10296
1.10249
1.10232
1.10222
1.10225
1.10505
1.11183
1.11239
1.11147
1.11152
1.11119
1.11066
1.11051
1.10979
1.10905
1.10871
1.10827
1.10761
1.10739
1.10687
1.10657
1.10638
1.10639
1.11035
1.11819
1.11859
1.1178
1.11795
1.1174
1.11716
1.11704
1.11636
1.11597
1.11541
1.11488
1.11446
1.11401
1.11374
1.11352
1.11335
1.11331
1.11618
1.12431
1.12451
1.12437
1.12461
1.12414
1.12413
1.12399
1.12352
1.12323
1.12279
1.12231
1.1221
1.12188
1.12173
1.12176
1.12174
1.12172
1.12104
1.12928
1.13002
1.13023
1.13033
1.13051
1.13043
1.13045
1.13039
1.13006
1.13021
1.12978
1.12985
1.12993
1.12969
1.13002
1.12994
1.13001
1.12521
1.13387
1.13515
1.13515
1.13587
1.13627
1.13599
1.13648
1.13615
1.13619
1.13675
1.13625
1.13695
1.13695
1.13695
1.13748
1.1373
1.13776
1.12841
1.13782
1.13907
1.1391
1.14022
1.14019
1.14059
1.14142
1.1409
1.14179
1.14199
1.14188
1.14306
1.14271
1.14369
1.14375
1.1442
1.14466
1.13111
1.14058
1.14191
1.14232
1.14326
1.14353
1.14438
1.14507
1.14501
1.14625
1.14598
1.14663
1.14734
1.14702
1.14857
1.14793
1.1494
1.1494
1.13323
1.14274
1.14417
1.14484
1.14597
1.14659
1.14755
1.14807
1.14861
1.14939
1.14937
1.15037
1.15048
1.15111
1.15201
1.15207
1.1535
1.15342
1.13425
1.14425
1.14599
1.14694
1.14804
1.14869
1.14941
1.15007
1.15049
1.1512
1.1517
1.15238
1.15285
1.15366
1.15424
1.15496
1.15578
1.15623
1.13553
1.14564
1.14723
1.14805
1.14911
1.14996
1.15074
1.15141
1.152
1.15279
1.15334
1.15418
1.15464
1.15559
1.15609
1.15692
1.15778
1.15825
1.13629
1.14659
1.14813
1.14895
1.15
1.15082
1.15156
1.15229
1.15296
1.15383
1.15454
1.15539
1.15621
1.15697
1.15803
1.15874
1.15993
1.16068
1.13653
1.14686
1.14848
1.14935
1.15036
1.15125
1.15219
1.15319
1.1543
1.15543
1.15651
1.15753
1.15857
1.15952
1.16055
1.16137
1.16226
1.16285
1.13662
1.14703
1.1487
1.14955
1.15054
1.15151
1.15254
1.15357
1.15462
1.15554
1.15634
1.15701
1.15747
1.15778
1.15798
1.15799
1.15797
1.15766
1.13481
1.14265
1.14367
1.14419
1.1448
1.1453
1.14573
1.14604
1.14631
1.14651
1.1467
1.14685
1.14693
1.14699
1.14701
1.14699
1.14695
1.14712
1.10436
1.12334
1.13061
1.13546
1.13987
1.14386
1.14725
1.15028
1.15315
1.15598
1.15867
1.16072
1.16288
1.16464
1.16557
1.16614
1.16531
1.16404
1.16171
1.15835
1.15733
1.15321
1.14077
1.13097
1.1326
1.13939
1.14461
1.14099
1.13166
1.12321
1.11627
1.10922
1.10218
1.09664
1.09336
1.09177
1.091
1.09064
1.09062
1.09087
1.09125
1.09162
1.09193
1.0922
1.09245
1.09268
1.09294
1.09322
1.09352
1.09386
1.09423
1.09463
1.09505
1.09551
1.09602
1.09654
1.09709
1.09767
1.09829
1.09895
1.09966
1.10046
1.10133
1.1022
1.10317
1.10439
1.10574
1.10725
1.10892
1.11066
1.11245
1.11419
1.11577
1.11718
1.11881
1.12082
1.12304
1.12524
1.1272
1.12932
1.13165
1.13431
1.13671
1.13856
1.14024
1.14195
1.14278
1.14258
1.14351
1.14733
1.15473
1.16283
1.16744
1.16767
1.1646
1.16335
1.17044
1.17902
1.18354
1.18654
1.1902
1.19496
1.19369
1.17631
1.14769
1.14883
1.13582
1.10568
1.10035
1.09841
1.10221
1.10432
1.10288
1.10342
1.1018
1.10281
1.10484
1.10468
1.10284
1.09562
1.10539
1.11241
1.10787
1.09564
1.0971
1.10632
1.11231
1.11209
1.11148
1.11195
1.11136
1.11135
1.11253
1.1144
1.11472
1.11551
1.1161
1.11876
1.11961
1.11803
1.11642
1.11583
1.11655
1.11575
1.11544
1.11597
1.1133
1.11631
1.11663
1.11569
1.1195
1.12318
1.12751
1.13403
1.13944
1.13879
1.14021
1.14238
1.13564
1.13484
1.13907
1.13728
1.12064
1.10283
1.08896
1.07527
1.0619
1.05248
1.04529
1.03866
1.03304
1.03349
1.03724
1.03662
1.04194
1.05561
1.05844
1.06266
1.06729
1.0713
1.10048
1.11488
1.1231
1.13185
1.1401
1.14672
1.15063
1.15359
1.15644
1.15925
1.16169
1.16462
1.16718
1.17282
1.17723
1.1783
1.18395
1.18793
1.18709
1.18737
1.19039
1.19186
1.18857
1.17616
1.15321
1.14693
1.18384
1.21019
1.17814
1.13309
1.11039
1.10051
1.09538
1.09389
1.09472
1.09606
1.09704
1.09782
1.09835
1.09881
1.09919
1.09951
1.10002
1.10046
1.10094
1.10146
1.10201
1.1026
1.10313
1.10357
1.10396
1.10433
1.10467
1.10499
1.10533
1.10569
1.10616
1.10686
1.10777
1.10885
1.11014
1.11168
1.11364
1.11579
1.11774
1.11997
1.1227
1.12533
1.12818
1.13156
1.1351
1.13919
1.14325
1.14623
1.14818
1.14949
1.15099
1.15394
1.15832
1.16208
1.1661
1.16935
1.17109
1.17269
1.17696
1.18522
1.19328
1.19672
1.19885
1.20447
1.21234
1.21781
1.21801
1.21433
1.21002
1.21266
1.22701
1.24553
1.2478
1.24587
1.26974
1.29774
1.28998
1.23055
1.14245
1.10619
1.1032
1.10106
1.11278
1.11682
1.12279
1.11994
1.11352
1.10904
1.11179
1.12424
1.13423
1.13664
1.14601
1.13927
1.15474
1.13031
1.13402
1.11798
1.11245
1.11918
1.13275
1.13793
1.13115
1.12584
1.12658
1.13327
1.14254
1.15443
1.1653
1.17416
1.18138
1.1923
1.20162
1.20443
1.20393
1.2049
1.2076
1.20906
1.20927
1.21066
1.20586
1.20873
1.21365
1.20919
1.20935
1.21535
1.22471
1.24153
1.26576
1.27924
1.28759
1.29816
1.28058
1.28031
1.34162
1.39459
1.36225
1.29069
1.22415
1.17316
1.13095
1.10024
1.07762
1.05282
1.04583
1.06487
1.05871
1.05055
1.06814
1.09549
1.08711
1.08594
1.09142
1.09462
1.09438
1.10606
1.12124
1.13667
1.14657
1.15093
1.15022
1.14943
1.14977
1.15001
1.14945
1.1481
1.15145
1.15661
1.15714
1.16185
1.17238
1.17776
1.19032
1.1954
1.1704
1.16025
1.18539
1.20706
1.18965
1.15602
1.13286
1.11692
1.10363
1.09468
1.09164
1.09152
1.09254
1.09435
1.09574
1.09691
1.09763
1.09791
1.09844
1.09879
1.09961
1.10022
1.10069
1.10143
1.10162
1.102
1.10236
1.10229
1.10205
1.10141
1.10063
1.09986
1.09919
1.09853
1.09809
1.09774
1.09774
1.09825
1.09905
1.10006
1.10132
1.10298
1.10581
1.10924
1.11159
1.1138
1.11684
1.11849
1.1202
1.12352
1.12722
1.13365
1.14199
1.14907
1.15054
1.14446
1.13918
1.14172
1.15035
1.15504
1.1588
1.15693
1.15205
1.14917
1.14896
1.1576
1.17608
1.20008
1.21483
1.22136
1.22313
1.21322
1.19775
1.18973
1.17778
1.1792
1.19867
1.22096
1.23828
1.25228
1.26857
1.25618
1.19346
1.13038
1.10257
1.10782
1.11788
1.12628
1.13469
1.13179
1.13104
1.11901
1.10867
1.11458
1.13586
1.16105
1.17896
1.1898
1.18795
1.15058
1.09483
1.05949
1.10987
1.1222
1.13287
1.14148
1.15707
1.16974
1.16008
1.13597
1.11513
1.11042
1.1223
1.13763
1.15556
1.16757
1.18646
1.20655
1.21298
1.21168
1.21623
1.22522
1.22347
1.22354
1.21761
1.20952
1.21736
1.22274
1.22581
1.23572
1.24025
1.24729
1.25845
1.26631
1.27835
1.30345
1.33815
1.35623
1.3355
1.34367
1.44405
1.50942
1.46247
1.35511
1.25838
1.18516
1.12834
1.09401
1.06119
1.04401
1.07759
1.09785
1.05766
1.0553
1.05927
1.08199
1.11389
1.09279
1.09827
1.09659
1.09317
1.1112
1.1353
1.14828
1.14556
1.13745
1.13041
1.12884
1.12843
1.12714
1.12689
1.12749
1.12963
1.13451
1.13786
1.1445
1.15453
1.16103
1.16299
1.1504
1.16322
1.19998
1.17317
1.12548
1.11104
1.10265
1.09509
1.0905
1.08964
1.09136
1.0946
1.09813
1.1007
1.1019
1.10247
1.1027
1.10273
1.10292
1.1032
1.10328
1.10369
1.10418
1.10405
1.10389
1.10348
1.10252
1.10131
1.10002
1.09836
1.09668
1.09491
1.09333
1.09218
1.0916
1.09146
1.09143
1.09162
1.09217
1.09284
1.09347
1.09405
1.09461
1.0965
1.09963
1.10292
1.10702
1.11209
1.11505
1.11495
1.11549
1.11387
1.11608
1.12312
1.13276
1.14034
1.13738
1.12607
1.12394
1.13065
1.13311
1.1347
1.13158
1.12492
1.12601
1.12468
1.12681
1.13272
1.1544
1.17675
1.19226
1.20634
1.20979
1.2163
1.23782
1.21003
1.17133
1.18486
1.21096
1.22329
1.23888
1.23051
1.18509
1.13439
1.11006
1.11655
1.13037
1.13624
1.13919
1.13597
1.12655
1.12295
1.11489
1.11874
1.13609
1.15818
1.17843
1.19665
1.19424
1.1408
1.06741
1.01192
1.02702
1.08415
1.17499
1.15055
1.15575
1.17273
1.19386
1.19126
1.1618
1.13426
1.1217
1.1235
1.12755
1.1417
1.14754
1.17581
1.20328
1.19919
1.18317
1.18783
1.20664
1.20115
1.20558
1.1951
1.16469
1.18474
1.1998
1.1791
1.20466
1.22597
1.23623
1.26136
1.2836
1.27872
1.28026
1.32652
1.35071
1.33682
1.37806
1.50366
1.53011
1.45165
1.34065
1.25096
1.17537
1.11616
1.08977
1.05838
1.05613
1.10083
1.07267
1.05081
1.07968
1.06016
1.06242
1.11884
1.09683
1.1033
1.12482
1.09487
1.1184
1.14068
1.13305
1.11328
1.10455
1.10365
1.10581
1.1068
1.11002
1.10994
1.11205
1.11638
1.12179
1.12886
1.13578
1.14451
1.15539
1.16902
1.17865
1.17591
1.14665
1.10761
1.09115
1.09198
1.09266
1.09425
1.09758
1.1022
1.10554
1.10795
1.10903
1.10863
1.10761
1.10607
1.10443
1.10363
1.10272
1.10244
1.10272
1.10191
1.1018
1.10145
1.10028
1.09932
1.09831
1.09707
1.09576
1.09471
1.09369
1.09258
1.09215
1.09179
1.09222
1.09311
1.09412
1.09481
1.09541
1.09603
1.0962
1.09601
1.09492
1.09372
1.09243
1.09215
1.09349
1.09653
1.10203
1.10631
1.11289
1.11194
1.11001
1.11633
1.12873
1.13423
1.13446
1.13459
1.13134
1.12811
1.12573
1.12631
1.12513
1.11481
1.11266
1.11162
1.11627
1.12067
1.13064
1.14536
1.16363
1.16908
1.16752
1.18636
1.21196
1.18723
1.16836
1.19408
1.22399
1.22946
1.22278
1.19123
1.14402
1.11925
1.11881
1.13561
1.14662
1.14921
1.14964
1.13938
1.12722
1.12542
1.12435
1.12988
1.13451
1.14493
1.17481
1.2098
1.20564
1.12839
1.04839
1.00855
1.05004
1.09379
1.15572
1.10321
1.1154
1.13263
1.15291
1.1626
1.15524
1.14684
1.13818
1.13206
1.13023
1.14412
1.14569
1.16809
1.19231
1.18218
1.15349
1.15401
1.1828
1.17484
1.18961
1.18426
1.1243
1.15082
1.18456
1.13455
1.15745
1.19075
1.19909
1.23251
1.28164
1.27883
1.25565
1.30342
1.32053
1.30478
1.3886
1.53501
1.52068
1.41516
1.31229
1.23137
1.15811
1.10225
1.07642
1.04853
1.06013
1.09459
1.05722
1.07654
1.0927
1.08594
1.05769
1.09377
1.0941
1.10341
1.11342
1.09686
1.12172
1.13692
1.12149
1.11662
1.12597
1.12533
1.12539
1.13293
1.13137
1.12269
1.12839
1.13596
1.13605
1.14102
1.1436
1.14373
1.1478
1.15379
1.14908
1.12803
1.10531
1.09523
1.09781
1.10181
1.10422
1.10641
1.10716
1.10705
1.10594
1.1039
1.10227
1.10025
1.09847
1.09698
1.0963
1.09603
1.09616
1.09609
1.09689
1.09784
1.09822
1.09882
1.09935
1.09938
1.0998
1.10047
1.10077
1.10114
1.10136
1.10155
1.10184
1.10176
1.10196
1.10166
1.10172
1.10169
1.10208
1.10304
1.10336
1.10391
1.10382
1.10336
1.10222
1.10103
1.09903
1.09527
1.0927
1.09209
1.09936
1.10578
1.10052
1.10318
1.12217
1.14072
1.14322
1.14135
1.13609
1.13082
1.1247
1.12523
1.12135
1.11069
1.10643
1.1002
1.10811
1.12342
1.14049
1.15762
1.1712
1.14939
1.13322
1.16267
1.18069
1.15411
1.17753
1.22524
1.23515
1.21989
1.19181
1.1571
1.12911
1.12786
1.14012
1.15745
1.16437
1.15906
1.14437
1.11885
1.10748
1.11462
1.11563
1.11269
1.10847
1.11506
1.13901
1.17573
1.20015
1.14843
1.07588
1.06171
1.11305
1.06842
1.05296
1.12559
1.13338
1.13615
1.1346
1.13279
1.13518
1.14839
1.15132
1.14835
1.15209
1.17132
1.15748
1.16134
1.18697
1.17519
1.13024
1.12511
1.17118
1.15841
1.17705
1.15625
1.06207
1.10805
1.17406
1.10125
1.12008
1.16245
1.16316
1.19417
1.26779
1.27535
1.23155
1.28266
1.28805
1.25902
1.37762
1.54196
1.50458
1.38421
1.29076
1.21622
1.15059
1.10081
1.06796
1.05229
1.10349
1.14091
1.10124
1.09592
1.08028
1.09806
1.07159
1.10587
1.1215
1.12364
1.09336
1.09717
1.12125
1.1396
1.13368
1.13112
1.12792
1.11284
1.10989
1.11201
1.10615
1.10263
1.10249
1.10969
1.12013
1.12831
1.13205
1.13475
1.13449
1.12785
1.11643
1.10634
1.10257
1.10355
1.10605
1.10654
1.1057
1.10369
1.10202
1.09986
1.0988
1.09771
1.09775
1.09719
1.09726
1.09767
1.09891
1.10053
1.10342
1.10613
1.10767
1.11003
1.11201
1.11318
1.11438
1.11489
1.11499
1.11474
1.1139
1.11334
1.11215
1.11088
1.10936
1.10748
1.10651
1.10451
1.10356
1.10283
1.10225
1.10246
1.10255
1.1029
1.102
1.10115
1.10031
1.10089
1.10236
1.1042
1.10221
1.09958
1.09778
1.11211
1.11076
1.10188
1.10755
1.12473
1.13264
1.12676
1.11903
1.11427
1.11437
1.12349
1.11961
1.10612
1.09644
1.08177
1.08393
1.10399
1.13263
1.15111
1.15185
1.12365
1.12624
1.16399
1.16409
1.1482
1.18777
1.23016
1.23329
1.21652
1.17991
1.14241
1.12985
1.14161
1.16087
1.17548
1.16991
1.14623
1.12281
1.10769
1.11331
1.11572
1.10627
1.09993
1.09085
1.08591
1.08305
1.09682
1.12354
1.11644
1.09293
1.08971
1.07297
1.03052
1.08078
1.13528
1.15478
1.15353
1.13825
1.12989
1.13115
1.14962
1.15803
1.17081
1.17963
1.18612
1.14401
1.14742
1.19431
1.1658
1.10602
1.09969
1.15731
1.13537
1.14825
1.11514
1.01852
1.0721
1.1574
1.05825
1.09029
1.14406
1.11864
1.15311
1.25287
1.27123
1.21114
1.26515
1.25445
1.20868
1.3533
1.5342
1.49117
1.36303
1.27574
1.21074
1.15503
1.11675
1.0704
1.06125
1.14154
1.18107
1.15086
1.10674
1.10113
1.11029
1.07636
1.10448
1.1102
1.10437
1.08579
1.09709
1.1202
1.1402
1.12944
1.11507
1.1205
1.11868
1.10635
1.10238
1.1058
1.10687
1.10248
1.09979
1.10072
1.10295
1.10664
1.10866
1.10517
1.10623
1.10804
1.10686
1.10527
1.10469
1.10409
1.10226
1.10053
1.09956
1.09888
1.09921
1.09967
1.09948
1.09967
1.10047
1.10268
1.10679
1.11225
1.11829
1.12321
1.1278
1.13161
1.13435
1.13664
1.13831
1.1397
1.14039
1.14057
1.14066
1.13987
1.13889
1.13749
1.13596
1.13369
1.13063
1.12862
1.12613
1.12443
1.12328
1.12193
1.12083
1.11987
1.11801
1.11429
1.11134
1.10784
1.10408
1.10019
1.0997
1.09861
1.10091
1.0966
1.10284
1.11018
1.1033
1.10222
1.10733
1.11306
1.11486
1.11513
1.11404
1.11139
1.11698
1.11806
1.11537
1.11049
1.08717
1.06706
1.07515
1.10078
1.11792
1.12866
1.13071
1.15689
1.18129
1.1517
1.13876
1.18809
1.22871
1.22644
1.20609
1.16772
1.12844
1.1229
1.14503
1.17183
1.18354
1.16066
1.12885
1.1116
1.10623
1.10584
1.09447
1.08639
1.08479
1.07734
1.07534
1.07044
1.06501
1.0622
1.05989
1.06233
1.06339
1.05368
1.05625
1.06172
1.05705
1.1501
1.17235
1.14793
1.14958
1.15287
1.15959
1.16912
1.1939
1.17841
1.16229
1.12729
1.16484
1.21562
1.14648
1.08963
1.08769
1.1238
1.09744
1.10823
1.09795
1.04617
1.08668
1.14737
1.03248
1.0802
1.12237
1.03318
1.09841
1.23881
1.26931
1.1978
1.25173
1.22253
1.1579
1.32011
1.51717
1.47987
1.35113
1.26326
1.2104
1.15783
1.13913
1.09584
1.0683
1.13092
1.17439
1.18472
1.15686
1.16885
1.16621
1.1455
1.14787
1.11123
1.10595
1.06878
1.09328
1.10953
1.13416
1.14214
1.12722
1.12546
1.12469
1.11444
1.10581
1.10691
1.11015
1.10455
1.09783
1.09956
1.09935
1.09786
1.09711
1.10097
1.10539
1.10008
1.09797
1.10052
1.10442
1.10308
1.10262
1.10144
1.10153
1.10141
1.1014
1.10034
1.10091
1.10311
1.10799
1.11524
1.12431
1.13143
1.13711
1.14029
1.14115
1.1421
1.14297
1.14391
1.145
1.14624
1.14752
1.1486
1.14965
1.15035
1.15117
1.1515
1.15188
1.15198
1.15226
1.15221
1.15175
1.15119
1.15008
1.14839
1.14455
1.13916
1.13212
1.12482
1.11894
1.1151
1.11361
1.11105
1.10817
1.10513
1.10347
1.10406
1.09946
1.10482
1.10554
1.10179
1.10064
1.10435
1.11067
1.11492
1.11899
1.11357
1.1128
1.11394
1.11476
1.12474
1.10959
1.07828
1.0763
1.11162
1.13485
1.14995
1.16416
1.1864
1.17469
1.13804
1.14845
1.20114
1.22763
1.21511
1.18836
1.14311
1.10517
1.11178
1.14601
1.18052
1.18275
1.14476
1.1127
1.10442
1.10739
1.11076
1.10509
1.10211
1.09722
1.09384
1.09804
1.10188
1.0981
1.09363
1.08921
1.09653
1.1092
1.11804
1.0928
1.04563
1.04021
1.11636
1.19998
1.14443
1.15282
1.16215
1.15888
1.16969
1.19395
1.15445
1.15442
1.13429
1.21386
1.21626
1.11881
1.07328
1.07512
1.07479
1.06151
1.07003
1.09377
1.10098
1.13449
1.14946
1.04951
1.10136
1.09037
0.952267
1.03098
1.21732
1.266
1.19004
1.24418
1.19738
1.1114
1.28091
1.49555
1.47238
1.34761
1.25115
1.20265
1.15081
1.15422
1.13566
1.08285
1.1122
1.16603
1.20734
1.22245
1.23962
1.21382
1.22034
1.20395
1.14946
1.13087
1.09373
1.09243
1.10966
1.13272
1.14034
1.12575
1.12443
1.12541
1.11926
1.11295
1.11305
1.11002
1.11121
1.1095
1.11049
1.10584
1.10349
1.10944
1.10889
1.10468
1.10218
1.10763
1.10824
1.10363
1.10138
1.10134
1.10079
1.10017
1.09895
1.09944
1.10094
1.10505
1.11251
1.122
1.13084
1.13775
1.14022
1.13956
1.13833
1.13733
1.13776
1.13907
1.14069
1.14223
1.14316
1.14391
1.14413
1.14411
1.14361
1.14327
1.14236
1.1415
1.14094
1.14065
1.14113
1.14254
1.14435
1.1471
1.14998
1.15205
1.15266
1.14994
1.14286
1.13518
1.1281
1.12034
1.11607
1.11244
1.11159
1.10962
1.10982
1.11123
1.10852
1.113
1.11524
1.11199
1.10629
1.10573
1.10587
1.11039
1.10486
1.10316
1.11035
1.10545
1.11387
1.11399
1.08491
1.06281
1.10858
1.15055
1.15431
1.14843
1.16041
1.14704
1.12923
1.15713
1.20833
1.22694
1.20584
1.17866
1.13587
1.10104
1.11306
1.14989
1.18006
1.17187
1.12925
1.10497
1.11081
1.12291
1.12654
1.11771
1.112
1.10744
1.11118
1.11264
1.11422
1.11831
1.12629
1.12023
1.11348
1.10558
1.09979
1.09551
1.08796
1.05195
1.0642
1.1617
1.14929
1.15213
1.1681
1.16011
1.17944
1.18037
1.13714
1.16665
1.10186
1.16082
1.13569
1.08435
1.04861
1.04859
1.05627
1.08834
1.09244
1.1277
1.15638
1.17234
1.15442
1.0906
1.14369
1.0758
0.977435
0.993527
1.18913
1.25414
1.17654
1.23734
1.17895
1.07157
1.24005
1.472
1.46678
1.35172
1.24469
1.18867
1.14216
1.15785
1.16379
1.09458
1.11866
1.20249
1.25466
1.28133
1.28395
1.25116
1.2388
1.22039
1.19225
1.13425
1.11155
1.0916
1.10825
1.13073
1.14179
1.129
1.1194
1.11633
1.10962
1.09828
1.0961
1.10278
1.11619
1.12251
1.11345
1.1075
1.11235
1.10998
1.10084
1.10528
1.11352
1.10836
1.10604
1.10441
1.10547
1.10493
1.104
1.10274
1.10145
1.10191
1.10482
1.11188
1.12229
1.13188
1.13812
1.13961
1.13882
1.13831
1.13966
1.1429
1.14748
1.15176
1.15502
1.15754
1.15903
1.15985
1.15965
1.15906
1.15803
1.15725
1.15622
1.15416
1.15225
1.15071
1.14833
1.14562
1.14314
1.14192
1.14202
1.14343
1.14831
1.15577
1.1622
1.16067
1.15373
1.14168
1.13057
1.12643
1.12124
1.12068
1.11711
1.1187
1.11645
1.11418
1.11472
1.11947
1.11783
1.11615
1.10724
1.10729
1.10856
1.09998
1.11128
1.1122
1.10852
1.1169
1.10087
1.0571
1.07647
1.12673
1.14098
1.13676
1.14363
1.13959
1.13452
1.16764
1.21153
1.22704
1.20262
1.1744
1.14984
1.1286
1.13319
1.15413
1.16804
1.15026
1.11892
1.10914
1.12252
1.13664
1.13593
1.12241
1.12101
1.1265
1.12982
1.12395
1.11708
1.11145
1.1026
1.09607
1.10597
1.11036
1.10301
1.08712
1.11025
1.07862
1.03534
1.04062
1.13334
1.12072
1.17437
1.17838
1.19615
1.15219
1.14306
1.11879
1.02713
1.04964
1.05791
1.06888
1.03787
1.02887
1.08525
1.17492
1.20509
1.24573
1.24612
1.18946
1.13868
1.12254
1.17201
1.10185
1.0816
1.01036
1.17356
1.23487
1.1516
1.22666
1.15837
1.0365
1.2
1.4478
1.46219
1.36043
1.24739
1.17801
1.14429
1.15766
1.16005
1.09869
1.1551
1.25529
1.29701
1.31374
1.30158
1.29224
1.28164
1.25885
1.22743
1.16427
1.10695
1.09138
1.10924
1.13199
1.1415
1.13168
1.11846
1.11231
1.1108
1.11351
1.11866
1.12882
1.13852
1.13948
1.12919
1.11003
1.10454
1.11396
1.12502
1.121
1.1169
1.11168
1.11038
1.10627
1.10359
1.10339
1.10379
1.10293
1.1031
1.10399
1.10943
1.11943
1.12976
1.13737
1.14057
1.14042
1.14104
1.14408
1.14924
1.15392
1.15711
1.15848
1.15852
1.15838
1.15835
1.15876
1.15844
1.15659
1.15417
1.15305
1.15288
1.15103
1.14825
1.14791
1.15166
1.15417
1.15653
1.15634
1.15661
1.15272
1.147
1.14558
1.15148
1.16231
1.16455
1.15855
1.14354
1.1331
1.12912
1.12684
1.1263
1.12597
1.12635
1.12597
1.12285
1.12177
1.11856
1.12363
1.12334
1.1158
1.12205
1.11182
1.10867
1.1133
1.10513
1.11357
1.12186
1.07977
1.06643
1.1105
1.13804
1.13905
1.14421
1.14752
1.14863
1.17961
1.21496
1.22713
1.20923
1.17946
1.16301
1.15293
1.14717
1.15144
1.15656
1.14434
1.12613
1.12199
1.12867
1.14041
1.13919
1.13375
1.12868
1.12642
1.11398
1.10354
1.10446
1.10409
1.09826
1.09434
1.09886
1.09994
1.11367
1.09051
1.1019
1.09351
1.06327
1.00711
1.04541
1.04554
1.14274
1.17699
1.20504
1.1289
1.13718
1.03999
0.997071
1.02682
1.06073
1.09291
1.07515
1.06016
1.14281
1.23673
1.29258
1.36939
1.35751
1.20753
1.11274
1.14989
1.17534
1.14441
1.16117
1.07207
1.19451
1.19892
1.11046
1.20688
1.12729
1.00336
1.16311
1.42453
1.4577
1.37178
1.25982
1.17553
1.15608
1.16604
1.14165
1.10576
1.20155
1.29908
1.31127
1.29623
1.29741
1.3191
1.31224
1.28048
1.23296
1.18231
1.11253
1.09132
1.10896
1.12525
1.12721
1.1283
1.12941
1.13086
1.13004
1.12842
1.12445
1.12693
1.13435
1.12227
1.1088
1.11875
1.13592
1.12924
1.11153
1.10735
1.11551
1.11849
1.11772
1.11669
1.1133
1.1084
1.10475
1.10199
1.10158
1.10404
1.11235
1.12261
1.13272
1.13929
1.14042
1.14148
1.14475
1.15009
1.15459
1.15632
1.15593
1.15467
1.15387
1.15418
1.15459
1.15564
1.15748
1.15673
1.1518
1.14855
1.14886
1.14749
1.14103
1.13508
1.13615
1.13905
1.13993
1.14172
1.14674
1.15992
1.16625
1.16332
1.15527
1.15558
1.16526
1.1688
1.1653
1.15172
1.14553
1.14126
1.13771
1.13496
1.13136
1.12838
1.12856
1.13308
1.12938
1.12515
1.1281
1.12207
1.12405
1.12101
1.10902
1.11154
1.1069
1.10333
1.12208
1.09579
1.0701
1.10541
1.13995
1.14239
1.14964
1.15975
1.16367
1.19296
1.21636
1.22799
1.21975
1.19265
1.17341
1.16384
1.14874
1.14273
1.14262
1.13776
1.127
1.12045
1.12421
1.14097
1.14196
1.13653
1.12029
1.11167
1.10006
1.09203
1.08719
1.08123
1.09154
1.09341
1.08559
1.07249
1.09898
1.10995
1.0996
1.10922
1.10139
1.08568
1.00542
1.00177
1.0735
1.15695
1.18391
1.12539
1.09645
0.991613
0.996469
1.05722
1.10474
1.14225
1.13665
1.14985
1.22115
1.25048
1.25179
1.35831
1.4321
1.2697
1.15232
1.21903
1.1897
1.17554
1.20115
1.14823
1.23104
1.13306
1.06064
1.17768
1.09082
0.971739
1.12947
1.40254
1.45527
1.38253
1.28169
1.1824
1.16641
1.18463
1.14411
1.12892
1.24379
1.30456
1.28621
1.22804
1.23783
1.27034
1.29472
1.27794
1.25132
1.2072
1.13395
1.0881
1.09703
1.09988
1.09493
1.094
1.094
1.09741
1.1016
1.10822
1.1129
1.11653
1.13189
1.14566
1.13758
1.12525
1.12087
1.12844
1.13119
1.12299
1.11628
1.1159
1.11583
1.11699
1.11766
1.11515
1.11178
1.10784
1.1075
1.11178
1.1193
1.12849
1.13569
1.13779
1.13862
1.14065
1.14639
1.15252
1.15562
1.1568
1.15668
1.15664
1.15741
1.15945
1.16023
1.15929
1.15956
1.16035
1.1547
1.1473
1.14562
1.14926
1.14383
1.13371
1.13005
1.14028
1.14389
1.13481
1.12155
1.126
1.15245
1.17009
1.1734
1.16622
1.17073
1.17355
1.17633
1.1718
1.16337
1.15708
1.15029
1.14425
1.14712
1.14787
1.13725
1.13198
1.13259
1.13051
1.12904
1.12441
1.1203
1.12431
1.11284
1.10962
1.11298
1.10385
1.12484
1.10961
1.06538
1.08178
1.12493
1.137
1.1498
1.1668
1.17682
1.20706
1.21667
1.22545
1.22828
1.21112
1.18259
1.16232
1.14753
1.14166
1.13911
1.13277
1.12391
1.11777
1.12936
1.14973
1.13597
1.11333
1.0911
1.08526
1.08344
1.08041
1.07156
1.06122
1.07176
1.06853
1.08187
1.07548
1.08068
1.09632
1.09481
1.12026
1.08976
1.1214
1.08664
1.05099
1.0271
1.10361
1.13015
1.11528
1.05833
0.980263
1.01469
1.09616
1.14833
1.18537
1.2105
1.24997
1.25999
1.24876
1.21909
1.2811
1.43891
1.34683
1.24517
1.32393
1.25455
1.22125
1.23622
1.21051
1.23441
1.07077
1.03533
1.15161
1.06232
0.947748
1.10136
1.38023
1.45846
1.38603
1.30739
1.20355
1.1775
1.20776
1.1803
1.18219
1.27798
1.29444
1.25417
1.16686
1.15973
1.2001
1.26267
1.28002
1.26457
1.22484
1.15073
1.08488
1.08781
1.08883
1.09066
1.09397
1.09795
1.10237
1.10578
1.10718
1.10775
1.10971
1.10616
1.11152
1.1201
1.12926
1.13581
1.13413
1.12915
1.12925
1.12936
1.12854
1.12545
1.12096
1.11789
1.11486
1.11357
1.11243
1.11353
1.11874
1.12555
1.13178
1.13542
1.13677
1.13791
1.14131
1.1481
1.15303
1.15634
1.1579
1.15827
1.15816
1.15737
1.15794
1.15905
1.1579
1.154
1.15078
1.14427
1.13616
1.129
1.13146
1.1357
1.12951
1.1167
1.11987
1.13711
1.14036
1.12909
1.11707
1.13008
1.15414
1.17108
1.16938
1.16266
1.16256
1.1688
1.17938
1.18303
1.1714
1.16711
1.16482
1.15243
1.14961
1.15125
1.14752
1.14095
1.13602
1.13243
1.13044
1.11989
1.12259
1.11803
1.11271
1.11606
1.09973
1.11654
1.13114
1.0892
1.07455
1.10784
1.12999
1.14851
1.16707
1.18898
1.21844
1.22088
1.22183
1.22935
1.22024
1.18899
1.16461
1.15455
1.15157
1.14432
1.13105
1.12176
1.121
1.13604
1.13731
1.10721
1.08514
1.06489
1.05198
1.05082
1.05471
1.05706
1.05153
1.05269
1.04223
1.06034
1.07041
1.08555
1.10585
1.08777
1.12419
1.10532
1.06778
1.14156
1.13017
1.05915
1.05459
1.08483
1.09126
1.02052
0.995122
1.06245
1.13302
1.16748
1.21044
1.29338
1.27495
1.2676
1.31482
1.32879
1.32693
1.42774
1.34731
1.27577
1.38453
1.3381
1.2851
1.27896
1.25409
1.2025
1.06208
1.05518
1.14133
1.05557
0.940584
1.08193
1.35524
1.46218
1.38558
1.3326
1.23699
1.19548
1.22806
1.22285
1.2396
1.30368
1.29064
1.22623
1.14454
1.12275
1.14445
1.22779
1.26842
1.26532
1.24464
1.17191
1.08365
1.08522
1.0896
1.0956
1.10322
1.10794
1.11088
1.11041
1.11105
1.11103
1.11516
1.11731
1.11514
1.11682
1.1167
1.12108
1.13154
1.13363
1.13164
1.13049
1.13102
1.13205
1.12926
1.12462
1.11954
1.11626
1.11519
1.11596
1.11804
1.12091
1.12543
1.12983
1.13251
1.13657
1.14238
1.14581
1.14782
1.149
1.15272
1.15755
1.15732
1.15699
1.1594
1.16005
1.16066
1.15459
1.14649
1.13815
1.13319
1.12987
1.12504
1.12363
1.12527
1.12556
1.12045
1.12237
1.12862
1.12323
1.11432
1.11609
1.14348
1.16612
1.17323
1.1593
1.14736
1.15104
1.15834
1.17061
1.18435
1.18334
1.17842
1.17473
1.17193
1.16629
1.1603
1.15343
1.14517
1.13666
1.13551
1.12888
1.1272
1.12551
1.11743
1.12044
1.1069
1.10272
1.1347
1.11124
1.07787
1.08933
1.1201
1.14222
1.16655
1.19745
1.22632
1.22833
1.22101
1.22783
1.22141
1.18995
1.16799
1.16628
1.16622
1.15411
1.13416
1.12251
1.12374
1.13711
1.12275
1.10054
1.08577
1.06666
1.0453
1.03371
1.03545
1.04951
1.05391
1.06216
1.05029
1.04359
1.05698
1.06965
1.12232
1.11802
1.1016
1.14854
1.05359
1.11205
1.13761
1.09669
1.07269
1.0925
1.066
1.01603
1.04216
1.10171
1.14727
1.15992
1.26136
1.31837
1.26103
1.30775
1.37766
1.40115
1.43401
1.50761
1.39333
1.30151
1.40474
1.40128
1.33978
1.32233
1.29249
1.18222
1.09909
1.10364
1.15072
1.07095
0.954315
1.07629
1.33829
1.46886
1.38704
1.34251
1.27308
1.22416
1.23872
1.24536
1.26581
1.32866
1.28862
1.21317
1.16589
1.14355
1.12564
1.20023
1.24087
1.25615
1.26973
1.20683
1.08397
1.08838
1.09735
1.10794
1.11423
1.10751
1.10363
1.10135
1.09778
1.09818
1.09785
1.10472
1.10957
1.11661
1.11877
1.11669
1.12201
1.12991
1.13555
1.13709
1.1336
1.13089
1.12965
1.12919
1.12761
1.12413
1.12183
1.12123
1.12273
1.12536
1.12786
1.13158
1.13665
1.14023
1.14034
1.14023
1.14219
1.14613
1.1517
1.15742
1.15893
1.15837
1.16265
1.16343
1.15802
1.1453
1.13061
1.11965
1.11212
1.11293
1.11612
1.11604
1.11518
1.11601
1.11946
1.12268
1.13041
1.13044
1.12479
1.11413
1.12486
1.14769
1.15931
1.15626
1.14235
1.12734
1.13103
1.1408
1.15778
1.17364
1.18438
1.18429
1.17835
1.1744
1.17271
1.16797
1.15697
1.14752
1.13996
1.13715
1.13212
1.13081
1.12488
1.12564
1.12785
1.09524
1.12355
1.13801
1.10136
1.07643
1.1007
1.12416
1.1625
1.19745
1.23293
1.23414
1.22234
1.22859
1.2247
1.19289
1.1731
1.17723
1.17746
1.16146
1.13681
1.12432
1.12292
1.13071
1.12237
1.09105
1.06515
1.05292
1.03556
1.02829
1.02901
1.03833
1.03646
1.05438
1.05343
1.04083
1.06843
1.07091
1.09832
1.15838
1.11351
1.14494
1.08231
1.09474
1.13716
1.09318
1.08107
1.12791
1.07217
1.0813
1.13537
1.1309
1.17211
1.19668
1.32619
1.27647
1.29965
1.33869
1.36507
1.35644
1.39714
1.49216
1.42195
1.35997
1.44492
1.46602
1.40235
1.36653
1.33184
1.20057
1.14588
1.15422
1.17605
1.10164
0.986089
1.08448
1.32912
1.47113
1.38851
1.33482
1.30528
1.25661
1.2405
1.24302
1.26522
1.34906
1.29806
1.22433
1.2105
1.20655
1.13957
1.18198
1.23643
1.25697
1.28379
1.23312
1.08598
1.0947
1.10324
1.10889
1.10257
1.0934
1.09694
1.0979
1.09498
1.09236
1.08883
1.09266
1.09876
1.10814
1.11606
1.11519
1.11514
1.12053
1.1291
1.13819
1.13979
1.13517
1.1307
1.12985
1.13115
1.13186
1.13143
1.12997
1.12984
1.13233
1.13506
1.13859
1.14293
1.1435
1.14
1.13793
1.14271
1.14649
1.15111
1.15435
1.15638
1.16395
1.16825
1.16211
1.14566
1.12808
1.11757
1.11515
1.11739
1.11665
1.11511
1.11689
1.11836
1.1241
1.12624
1.12397
1.12115
1.12978
1.13702
1.13589
1.12762
1.12833
1.14384
1.15011
1.14913
1.13962
1.1268
1.12213
1.13225
1.15137
1.17127
1.18263
1.18672
1.18992
1.188
1.18595
1.17039
1.16182
1.14536
1.13855
1.13755
1.1355
1.13453
1.123
1.14838
1.11895
1.1066
1.135