/*--------------------------------*- C++ -*----------------------------------*\
| =========                 |                                                 |
| \\      /  F ield         | OpenFOAM: The Open Source CFD Toolbox           |
|  \\    /   O peration     | Version:  dev                                   |
|   \\  /    A nd           | Web:      http://www.openfoam.org               |
|    \\/     M anipulation  |                                                 |
\*---------------------------------------------------------------------------*/
FoamFile
{
    version     2.0;
    format      ascii;
    class       volScalarField;
    object      T;
    location    "9.136";
}
// * * * * * * * * * * * * * * * * * * * * * * * * * * * * * * * * * * * * * //

dimensions      [0 0 0 1 0 0 0];

internalField   nonuniform List<scalar> 
12225
(
298.736
297.764
297.603
297.537
297.497
297.382
297.406
297.203
297.226
297.038
296.991
296.746
296.796
296.024
295.835
294.414
295.618
294.612
298.344
296.561
296.286
296.011
296.048
295.53
295.859
295.305
295.57
295.31
295.423
295.049
295.605
294.146
293.525
292.464
295.411
294.01
298.303
296.32
296.12
295.596
295.754
294.899
295.249
294.611
294.527
294.51
294.354
294.013
294.207
294.047
294.101
294.007
294.769
294.504
298.342
296.334
296.227
295.541
295.646
294.979
294.832
294.847
294.14
294.313
294.039
294.055
293.463
293.971
293.403
293.637
293.333
293.854
298.369
296.391
296.049
295.787
295.286
295.259
294.622
295.034
293.834
294.502
293.607
293.978
293.068
294.207
293.244
293.078
292.387
294.104
298.31
296.67
295.79
296.079
294.842
295.759
294.79
294.421
294.314
294.787
293.72
293.568
292.997
294.145
293.119
293.038
292.066
293.167
298.124
297.062
295.787
296.118
295.263
295.857
294.622
294.071
295.183
294.31
293.505
294.11
293.045
293.168
292.947
294.031
292.631
292.573
298.241
297.202
295.981
296.159
295.626
295.531
294.405
294.794
294.889
293.976
293.293
294.243
293.353
293.101
292.854
293.771
292.386
292.775
298.149
297.217
296.165
296.739
295.73
295.733
294.65
295.788
295.161
294.722
293.686
294.997
294.243
294.066
293.338
294.014
292.862
293.615
298.153
297.083
296.778
297.385
295.906
296.06
295.507
296.424
295.274
295.411
294.38
295.079
294.954
294.567
293.729
294.242
293.956
294.137
298.303
297.164
297.001
297.164
295.75
296.461
296.08
296.304
295.435
295.802
294.946
294.992
295.112
294.882
294.404
294.614
294.482
294.096
298.514
297.624
297.097
297.037
296.046
296.834
296.179
296.152
295.576
295.999
295.313
295.175
295.374
295.27
294.903
295.087
294.701
294.305
298.842
297.866
297.415
297.316
296.709
297.158
296.382
296.315
295.988
296.348
295.921
295.612
295.828
295.897
295.674
295.592
295.312
295.049
299.537
298.341
297.859
297.665
297.393
297.575
297.05
297.013
296.84
297.003
296.842
296.465
296.582
296.701
296.64
296.498
296.294
296.138
300.242
298.793
298.387
298.33
298.19
298.109
297.909
297.863
297.736
297.858
297.795
297.513
297.631
297.636
297.641
297.585
297.477
297.377
300.976
299.38
299.048
299.12
298.993
298.87
298.85
298.751
298.697
298.818
298.756
298.617
298.728
298.685
298.754
298.76
298.768
298.762
301.883
300.123
299.862
300.022
299.904
299.854
299.854
299.744
299.785
299.843
299.802
299.801
299.88
299.858
299.938
299.976
300.004
299.999
302.908
300.943
300.741
300.895
300.773
300.807
300.75
300.648
300.693
300.664
300.687
300.712
300.728
300.764
300.77
300.78
300.793
300.785
303.659
301.693
301.579
301.587
301.456
301.493
301.391
301.31
301.311
301.264
301.259
301.275
301.231
301.205
301.17
301.104
301.063
301.036
304.338
302.422
302.19
302.11
302.037
301.918
301.844
301.734
301.633
301.605
301.451
301.452
301.334
301.222
301.205
301.051
301.015
300.951
304.905
302.914
302.539
302.523
302.299
302.124
302.119
301.896
301.873
301.758
301.492
301.514
301.232
301.136
301.053
300.838
300.821
300.644
305.397
303.236
302.863
302.851
302.522
302.469
302.3
301.988
302.025
301.694
301.523
301.447
301.035
301.026
300.686
300.583
300.398
300.213
305.749
303.569
303.178
303.067
302.791
302.671
302.384
302.113
302.037
301.61
301.569
301.298
301.004
300.991
300.494
300.573
300.114
300.042
305.971
303.799
303.385
303.209
302.887
302.678
302.362
302.141
301.911
301.604
301.507
301.141
301.005
300.747
300.413
300.313
299.855
299.8
306.274
303.991
303.496
303.243
302.93
302.716
302.466
302.215
302.015
301.731
301.501
301.218
300.993
300.682
300.434
300.158
299.856
299.66
306.331
304.032
303.578
303.362
303.067
302.805
302.54
302.287
302.046
301.743
301.499
301.178
300.956
300.606
300.382
300.073
299.764
299.558
306.406
304.058
303.618
303.405
303.115
302.86
302.609
302.343
302.082
301.759
301.475
301.15
300.837
300.537
300.166
299.887
299.489
299.212
306.498
304.164
303.699
303.474
303.195
302.923
302.622
302.286
301.91
301.52
301.138
300.769
300.396
300.048
299.684
299.378
299.061
298.825
306.587
304.221
303.743
303.522
303.248
302.956
302.627
302.282
301.921
301.588
301.281
301.006
300.785
300.605
300.457
300.362
300.283
300.272
306.917
305.259
304.989
304.869
304.7
304.534
304.367
304.212
304.055
303.907
303.758
303.618
303.498
303.385
303.285
303.201
303.123
302.985
288.214
283.351
281.549
280.38
279.331
278.395
277.612
276.926
276.292
275.675
275.092
274.67
274.238
273.891
273.748
273.686
273.959
274.352
274.981
275.931
276.307
277.202
280.22
283.078
283.179
281.736
280.401
281.086
283.426
285.768
287.735
289.709
291.744
293.473
294.628
295.291
295.689
295.955
296.114
296.187
296.211
296.225
296.248
296.275
296.303
296.328
296.339
296.338
296.327
296.301
296.259
296.208
296.147
296.075
295.989
295.9
295.807
295.711
295.608
295.499
295.385
295.256
295.115
294.987
294.846
294.652
294.432
294.184
293.9
293.604
293.302
293.013
292.766
292.573
292.332
291.986
291.569
291.131
290.736
290.286
289.76
289.108
288.47
287.938
287.418
286.828
286.398
286.22
285.785
284.629
282.534
280.176
278.612
278.101
278.434
278.435
276.444
274.043
272.639
271.667
270.545
269.178
269.198
273.004
279.84
279.584
282.778
290.467
291.809
292.24
291.195
290.683
291.066
290.897
291.221
290.78
290.078
289.954
290.215
291.911
289.084
286.999
287.564
290.349
289.707
286.855
284.652
284.061
283.683
283.024
282.609
282.056
281.192
280.092
279.346
278.482
277.666
276.291
275.288
274.909
274.594
274.044
273.135
272.6
271.983
271.125
271.103
269.688
268.829
268.347
266.706
264.998
263.111
260.651
258.357
257.454
256.15
254.607
255.146
254.465
252.609
252.274
255.683
259.864
263.531
267.417
271.394
274.504
277.2
279.96
282.531
283.584
284.181
286.045
286.213
284.591
286.185
287.306
288.338
289.517
289.223
285.489
283.441
281.296
279.298
277.703
276.776
276.106
275.48
274.866
274.354
273.731
273.256
272.073
271.049
270.924
269.826
268.917
269.171
269.328
268.758
268.429
269.099
271.666
277.213
280.241
272.579
265.281
270.833
281.862
288.707
291.974
293.743
294.454
294.458
294.262
294.144
294.073
294.064
294.07
294.09
294.125
294.1
294.085
294.055
294.007
293.945
293.867
293.797
293.745
293.702
293.664
293.63
293.6
293.568
293.531
293.469
293.353
293.186
292.979
292.727
292.419
292.008
291.547
291.152
290.711
290.147
289.619
289.056
288.369
287.652
286.798
285.927
285.31
284.96
284.793
284.612
284.074
283.12
282.28
281.354
280.568
280.128
279.745
278.756
276.74
274.59
273.433
272.68
271.186
269.115
267.503
267.048
267.468
268.134
267.32
263.916
259.552
258.581
258.751
253.778
248.034
249.153
260.95
281.146
290.337
290.958
291.372
288.229
287.213
285.757
286.63
288.29
289.262
288.214
284.802
282.191
281.471
279.051
280.625
277.066
283.096
281.145
284.41
285.449
283.45
279.518
277.416
278.402
279.363
278.927
276.94
274.211
270.823
267.607
264.901
262.593
259.483
256.704
255.341
254.733
253.854
252.646
251.665
251.003
250.091
250.395
249.225
247.499
247.612
246.937
245.03
242.417
238.386
232.945
229.448
226.932
224.03
226.209
225.642
214.548
205.648
210.254
222.126
234.641
245.424
255.235
263.009
269.411
276.506
278.723
275.074
278.774
282.172
278.936
274.364
278.723
281.183
281.935
283.355
290.839
287.785
283.96
280.143
277.719
276.634
276.792
277.029
277.002
276.976
277.125
277.569
276.952
275.734
275.664
274.86
272.525
271.432
268.721
266.93
272.422
276.049
271.04
265.5
268.319
276.028
282.189
286.644
290.463
293.29
294.512
294.83
294.778
294.469
294.244
294.073
294.018
294.086
294.085
294.127
294.04
293.995
293.988
293.896
293.946
293.945
293.936
294.034
294.174
294.415
294.696
294.974
295.223
295.469
295.659
295.824
295.907
295.854
295.725
295.545
295.31
294.992
294.373
293.567
293.039
292.596
291.925
291.613
291.362
290.713
290.005
288.639
286.723
284.997
284.535
286.059
287.711
287.497
285.507
284.353
283.382
283.735
284.937
285.673
285.84
283.901
279.529
273.605
269.689
267.724
266.78
268.392
271.469
272.849
275.37
275.128
270.472
265.128
260.985
257.663
254.038
256.244
269.592
284.496
291.285
289.608
286.889
284.692
282.663
283.471
283.763
286.895
289.25
287.216
281.529
275.385
271.197
268.819
269.693
279.015
293.642
302.616
287.954
283.268
280.326
277.86
273.701
269.887
271.092
276.208
281.229
282.55
279.464
275.369
270.493
267.205
262.336
257.049
254.844
254.644
253.212
250.488
250.134
249.395
249.925
251.475
249.225
247.298
246.366
243.57
241.792
239.745
236.746
234.346
231.528
226.514
219.584
215.484
217.895
215.868
200.069
190.734
196.722
212.569
229.291
244.004
256.827
265.409
274.248
278.651
270.409
268.096
279.948
281.194
281.932
277.712
272.083
280.03
280.471
282.911
291.188
286.502
280.465
277.231
277.808
279.772
281.583
282.066
282.203
282.564
282.699
282.638
282.243
281.124
280.425
279.044
276.725
275.166
274.432
277.766
275.995
266.933
271.29
283.086
287.804
290.375
292.684
294.275
294.861
294.685
294.03
293.251
292.7
292.511
292.495
292.576
292.714
292.815
292.884
293.005
293.035
293.03
293.184
293.343
293.559
293.914
294.337
294.777
295.309
295.849
296.41
296.925
297.327
297.573
297.694
297.779
297.813
297.752
297.66
297.582
297.531
297.516
297.18
296.506
295.785
294.87
293.658
292.923
293.055
293.035
293.671
293.473
291.983
289.682
287.676
288.179
291.179
292.235
290.77
290.162
289.723
290.383
292.194
291.971
292.24
291.662
290.324
284.972
279.163
275.004
271.277
270.003
268.263
262.728
267.724
276.615
273.623
267.281
264.153
260.464
261.917
271.783
283.661
289.42
287.347
283.7
282.201
281.47
282.373
284.722
285.593
287.457
286.042
281.49
276.142
271.288
267.146
268.269
281.649
301.156
316.89
310.471
294.345
270.868
276.545
275.039
270.732
265.288
264.658
270.297
276.347
279.375
278.86
277.732
273.833
272.234
265.489
258.362
258.15
261.5
260.506
255.44
255.834
254.051
255.131
262.304
257.664
252.908
257.474
251.795
246.295
243.595
237.92
232.343
232.205
231.889
223.055
217.936
219.414
211.864
193.143
189.17
199.452
216.14
231.882
247.225
260.65
267.396
275.671
275.884
266.161
275.633
281.233
275.295
282.616
283.294
271.485
279.442
279.299
275.978
290.748
284.645
279.041
280.775
285.752
288.121
288.46
287.952
287.752
286.968
287.036
286.626
285.661
284.42
282.778
281.19
279.189
276.76
273.664
271.338
271.322
277.524
287.76
293.191
293.536
293.599
293.434
292.782
291.734
290.982
290.463
290.294
290.524
290.936
291.496
292.104
292.489
292.9
293.148
293.229
293.594
293.777
294.003
294.446
294.835
295.224
295.672
296.137
296.526
296.9
297.302
297.518
297.715
297.702
297.559
297.369
297.267
297.197
297.12
297.165
297.304
297.701
298.155
298.676
298.966
298.841
298.3
297.04
296.111
294.422
294.624
295.484
294.338
291.255
289.704
289.661
289.665
290.551
291.546
292.364
292.305
292.419
295.082
295.804
296.156
294.838
293.468
290.786
286.898
281.915
280.117
280.405
275.808
269.071
273.727
277.776
271.548
264.423
262.756
263.932
270.674
281.529
287.304
286.908
282.359
279.574
278.912
278.898
281.564
284.466
284.692
284.78
283.365
282.327
279.552
272.08
264.283
265.762
284.176
304.989
314.93
301.326
291.536
277.244
287.959
284.797
280.348
275.287
272.368
273.124
274.155
275.581
276.704
276.966
273.108
272.633
267.653
261.245
262.226
268.82
269.293
261.573
262.621
258.65
258.291
273.202
267.204
257.152
268.503
263.742
255.265
253.008
245.761
234.609
233.4
237.806
228.551
224.579
227.037
212.198
190.537
191.507
205.891
222.115
236.91
252.17
265.094
271.923
279.066
275.334
268.44
279.24
274.72
273.267
276.772
285.685
277.996
279.783
279.591
279.419
290.214
283.76
279.907
283.703
285.03
282.709
282.863
282.938
281.097
281.42
283.701
282.467
280.622
280.678
279.591
279.008
279.077
278.218
276.675
277.483
282.516
288.784
292.226
292.047
291.163
290.664
290.217
290.136
290.271
290.69
291.381
291.99
292.709
293.383
293.988
294.38
294.653
294.812
295.019
294.982
294.892
294.946
294.937
294.935
295.064
295.094
295.04
295.08
295.096
295.152
295.212
295.242
295.371
295.423
295.615
295.715
295.842
295.873
295.734
295.762
295.732
295.874
296.12
296.558
297.015
297.663
298.832
299.8
300.39
298.829
296.958
298.43
298.481
294.035
289.073
288.129
288.594
290.007
291.448
293.207
293.101
293.896
296.68
297.883
299.805
297.973
293.74
288.907
284.211
280.091
284.742
289.062
281.687
276.37
282.216
276.422
264.916
262.059
264.911
270.925
278.742
285.134
284.898
281.391
276.952
275.316
276.715
280.458
286.738
289.129
287.088
286.994
287.895
288.989
287.091
281.108
272.474
267.162
278.91
296.105
298.165
285.884
299.635
303.433
282.008
279.23
278.446
278.966
279.391
278.539
274.654
273.145
273.12
271.971
267.011
270.28
269.825
262.941
264.316
275.043
277.526
265.456
267.613
262.767
265.573
290.638
280.019
261.135
278.172
274.22
263.024
263.006
256.169
239.433
235.712
244.2
234.039
232.099
237.887
216.292
191.364
194.94
211.912
227.289
241.271
255.099
266.653
275.31
278.573
264.85
258.173
268.837
271.944
277.09
274.238
282.609
275.242
273.913
276.34
285.49
290.114
283.854
279.259
280.672
281.323
282.116
285.976
286.83
286.308
287.857
288.875
288.994
287.194
284.586
282.547
281.67
281.079
281.133
282.782
285.823
288.803
290.242
290.31
289.798
289.762
290.098
290.769
291.381
292.148
292.645
293.152
293.353
293.715
293.922
294.046
293.944
293.737
293.173
292.625
292.386
291.929
291.55
291.384
291.209
291.201
291.303
291.489
291.837
292.112
292.544
292.998
293.521
294.16
294.543
295.206
295.614
295.946
296.254
296.354
296.48
296.525
296.916
297.322
297.76
297.841
297.675
297.288
297.91
298.772
299.873
296.283
296.264
298.975
298.305
294.106
291.752
293.044
295.149
296.624
296.952
294.493
294.993
298.31
300.784
305.063
305.291
300.156
292.163
286.645
285.32
291.758
291.179
281.34
280.498
284.166
274.496
264.242
262.766
265.868
273.791
282.383
284.905
281.388
276.327
272.781
274.27
280.051
285.686
289.014
287.213
286.888
289.451
291.032
293.424
294.733
295.627
292.115
285.638
287.243
292.065
292.425
298.325
308.668
293.872
282.092
274.676
274.011
277.755
279.535
279.175
274.682
272.278
268.506
266.501
264.719
274.525
273.789
261.859
267.276
281.959
285.078
270.569
274.865
271.243
276.515
302.267
290.167
266.427
291.11
283.474
268.989
277.31
268.816
244.878
238.495
250.351
239.345
240.524
250.833
222.994
194.348
198.366
216.862
231.759
244.01
255.74
264.323
275.967
277.534
258.025
251.216
258.83
269.973
271.298
271.466
281.017
275.931
278.238
282.043
288.493
290.104
284.056
279.078
281.737
285.387
284.058
284.567
287.767
288.846
288.037
287.847
289.045
289.777
289.583
289.038
288.124
287.648
288.689
288.655
288.379
288.905
289.559
289.924
290.208
290.849
291.49
291.963
292.36
292.499
292.568
292.829
293.001
293.046
292.738
291.928
290.735
289.361
288.259
287.245
286.431
285.893
285.473
285.214
285.024
284.999
285.105
285.225
285.557
285.936
286.422
286.93
287.611
288.519
289.174
289.946
290.544
290.99
291.486
291.946
292.366
292.998
294.159
295.154
296.276
297.477
298.81
299.238
299.813
299.325
300.738
299.638
297.585
299.354
300.121
299.204
297.821
297.286
297.172
297.378
298.302
297.018
296.511
296.928
297.477
303.226
309.678
308.369
300.984
295.638
291.997
290.723
283.758
277.232
283.684
286.896
274.782
264.847
264.543
268.485
276.915
286.058
286.743
280.551
273.761
271.106
276.699
284.296
288.167
289.081
289.14
292.169
294.006
294.316
296.138
296.38
297.523
299.197
300.322
300.802
299.404
298.6
300.327
298.907
300.441
303.414
277.524
269.675
275.938
275.217
274.03
272.748
270.501
264.194
267.961
271.189
279.853
270.002
257.998
272.969
287.694
289.192
280.74
286.321
283.469
283.145
293.915
285.311
269.623
298.747
286.928
275.937
304.178
287.172
250.937
241.347
255.569
244.252
249.283
265.278
231.865
198.894
201.869
220.706
236.237
246.326
257.347
260.971
271.091
278.127
263.37
254.307
252.394
258.027
255.876
258.822
263.782
266.072
277.857
281.415
293.078
291.088
286.763
280.575
278.611
282.288
282.784
283.012
285.665
287.982
287.79
286.987
288.541
290.42
290.084
290.194
290.652
291.03
290.196
289.096
290.563
291.392
290.945
290.028
290.509
290.835
291.352
291.536
291.758
291.958
292.459
292.58
292.31
291.346
289.748
287.628
285.965
284.663
283.998
283.949
283.912
283.907
283.886
283.831
283.739
283.628
283.563
283.501
283.523
283.507
283.607
283.694
283.843
283.938
284.096
284.349
284.621
285.018
285.519
286.545
287.982
289.899
291.996
293.824
295.152
295.818
296.687
297.685
298.734
299.511
299.47
301.037
300.007
299.743
300.839
301.532
300.958
299.443
298.391
297.118
298.489
298.914
298.529
298.46
295.309
297.985
306.562
308.622
298.769
291.533
287.147
283.354
277.42
279.358
287.839
285.03
272.022
265.282
267.323
272.808
283.153
292.233
289.653
280.336
271.894
271.585
280.676
288.195
289.579
288.279
287.252
288.571
289.138
290.294
290.72
289.366
288.207
288.944
289.757
290.746
288.771
285.591
283.307
289.971
302.736
305.194
287.633
265.445
277.219
275.532
272.634
273.563
270.928
265.41
274.751
273.671
280.813
262.294
260.741
281.592
294.277
294.458
294.63
295.706
293.832
286.151
281.398
274.031
270.645
294.6
281.794
285.346
326.965
309.034
259.076
245.159
260.521
248.564
257.315
280.135
242.666
204.506
205.218
223.511
241.003
250.754
261.536
259.899
263.814
277.149
269.677
256.678
248.281
245.239
243.528
250.348
250.038
255.709
268.72
276.297
286.44
291.3
286.716
280.892
279.008
282.635
282.982
282.758
284.361
286.012
286.035
286.926
286.861
287.502
287.269
288.544
289.363
287.938
288.058
289.294
290.298
289.025
288.929
290.222
291.055
291.269
291.609
291.952
292.475
292.586
292.479
291.734
290.128
287.947
285.879
284.244
283.725
284.045
284.573
285.084
285.246
285.17
285
284.836
284.822
284.854
285.017
285.243
285.591
285.9
286.343
286.791
287.168
287.483
287.62
287.515
287.309
286.853
286.322
285.939
285.824
286.427
288.166
290.259
292.291
294.662
296.178
297.464
297.976
298.736
299.021
298.735
299.78
298.936
298.338
299.107
300.863
301.335
301.664
300.461
301.739
302.571
300.399
301.582
299.508
298.313
305.178
313.18
301.507
289.059
286.82
288.067
284.694
286.955
290.845
283.544
270.884
265.78
269.704
275.371
285.115
293.341
289.384
279.627
272.386
274.435
284.464
289.798
287.436
283.957
283.061
285.27
286.45
287.137
285.868
285.636
285.356
284.279
282.464
284.061
285.568
287.708
289.591
290.466
289.933
300.534
301.565
279.368
277.464
277.665
272.094
273.51
268.834
269.814
279.395
273.262
292.664
279.952
283.683
292.724
302.561
304.144
300.159
287.117
284.853
276.163
268.708
267.41
272.691
286.463
273.532
290.335
312.664
318.604
267.942
251.204
267.934
253.516
264.928
294.762
254.749
210.891
208.678
225.388
244.878
256.731
266.11
261.886
260.784
277.012
268.856
249.583
240.511
236.759
238.126
244.671
248.413
253.512
260.497
276.395
283.909
291.499
287.049
281.361
278.641
281.822
284.204
284.984
286.772
289.872
290.616
289.11
285.81
284.242
286.513
288.087
286.933
287.655
290.361
289.46
287.412
288.713
289.489
290.127
290.044
290.366
290.82
291.354
291.946
292.091
291.662
290.188
287.788
285.521
284.055
283.791
284.197
284.618
284.605
284.106
283.238
282.419
281.849
281.465
281.337
281.368
281.647
282.034
282.543
282.989
283.457
284.191
284.925
285.54
286.317
287.203
288.073
288.677
288.953
288.971
288.17
286.602
284.983
285.132
286.72
289.805
293.123
294.643
296.355
296.78
297.997
297.848
298.526
299.413
299.677
298.528
298.94
299.251
301.706
302.155
301.484
304.062
301.335
300.495
301.671
298.982
301.394
314.149
311.007
296.739
291.28
291.504
289.277
289.277
289.982
281.493
270.646
266.22
270.763
276.684
281.856
286.328
284.576
279.076
275.613
279.665
286.771
288.366
284.401
280.682
280.881
283.927
283.915
282.328
281.864
283.577
285.231
286.744
289.311
290.837
287.942
286.657
287.803
292.572
286.2
293.348
306.869
311.714
285.724
289.41
273.393
270.5
265.644
277.727
278.687
288.519
314.538
309.738
304.789
297.575
304.443
309.592
293.061
268.802
259.868
250.148
248.93
264.748
280.272
282.158
271.068
285.795
285.123
310.302
272.513
259.575
279.306
260.107
274.421
309.682
267.706
217.878
212.36
226.856
247.121
262.052
268.284
264.874
265.391
278.44
261.731
241.522
236.014
235.268
238.056
238.935
241.492
247.216
255.405
270.137
286.884
291.534
286.76
280.962
278.565
281.101
284.534
286.204
286.72
286.211
285.005
282.523
280.108
279.671
282.151
287.35
289.253
287.037
284.166
285.1
286.297
287.945
288.5
289.756
290.64
290.874
290.938
291.363
291.576
291.664
290.654
288.403
285.985
284.209
283.523
283.784
283.962
283.567
282.601
281.695
281.139
281.045
281.306
281.64
281.961
282.161
282.489
283.192
284.109
284.741
285.051
285.724
286.748
287.295
286.691
286.263
285.849
286.089
286.172
287.128
288.792
289.726
288.93
286.459
285.653
286.805
290.559
293.79
295.28
296.235
296.65
297.018
297.145
297.361
298.339
298.767
299.905
298.817
298.504
300.742
299.049
301.369
302.784
301.324
303.369
301.459
297.552
307.702
313.454
301.7
292.911
291.572
289.647
287.862
286.994
279.122
270.402
266.75
269.713
275.837
279.08
280.77
281.678
280.271
278.68
281.096
284.895
285.335
283.266
280.009
280.113
281.111
282.497
283.282
286.691
289.253
288.894
289.046
289.935
290.696
290.139
290.599
285.971
290.836
289.388
289.973
296.554
313.186
310.446
311.312
285.363
273.607
265.857
283.706
282.475
311.894
323.091
312.725
301.36
290.861
293.103
297.617
278.702
259.966
250.584
234.781
231.564
260.722
287.65
277.14
273.584
279.194
272.992
293.366
269
273.198
295.761
269.388
287.469
325.456
280.977
225.209
216.334
228.267
247.647
265.634
268.832
265.93
272.533
278.621
254.297
237.492
238.17
244.031
243.459
238.858
239.553
245.928
255.919
267.286
285.449
291.493
286.666
282.342
281.753
281.594
281.48
281.247
281.546
282.033
283.114
282.573
280.792
283.928
287.652
285.54
281.266
282.727
287.298
288.746
286.84
286.236
286.599
287.106
288.188
289.643
290.795
291.755
292.169
291.933
290.151
287.779
285.391
283.834
283.727
283.794
283.37
282.388
281.526
281.327
281.683
282.302
282.847
283.114
283.35
283.457
283.312
283.678
285.17
286.448
286.764
287.237
289.063
291.119
291.449
290.952
290.96
290.948
290.402
287.478
285.537
285.912
288.166
288.947
286.94
285.982
286.506
289.926
291.971
293.403
294.639
295.634
296.744
297.763
298.143
297.112
297.929
299.371
298.661
300.187
299.906
300.131
303.423
302.916
303.612
305.089
299.214
304.529
312.889
304.134
293.682
291.806
289.242
285.749
284.047
276.537
270.679
267.241
267.986
273.198
277.114
278.824
281.895
282.828
282.356
282.995
285.076
286.21
284.559
279.901
279.804
281.446
285.774
287.874
290.447
292.223
293.756
295.609
292.35
292.084
293.837
297.595
291.04
286.839
290.228
286.511
288.971
289.31
314.181
318.009
305.048
281.902
274.293
285.482
294.974
326.265
323.686
303.639
289.995
280.011
278.883
274.868
262.941
259.556
263.521
245.764
226.286
249.825
277.209
262.006
270.657
275.233
269.582
278.677
265.43
294.811
313.614
280.846
301.95
341.036
294.174
232.838
220.215
230.275
246.774
267.097
270.189
264.932
273.644
274.493
249.306
241.055
247.303
261.982
260.347
253.323
246.413
248.424
253.263
262.981
280.759
292.297
289.636
288.735
290.074
290.392
290.488
289.69
288.714
287.095
285.985
285.227
281.41
278.109
280.204
283.435
284.789
283.166
282.643
284.851
286.704
287.012
287.218
287.092
287.097
287.943
289.064
290.401
290.884
290.189
288.57
286.448
284.733
284.337
284.424
284.322
283.31
282.087
281.575
281.57
281.92
282.288
282.486
282.35
282.462
283.045
283.417
283.499
285.076
287.37
288.467
287.834
289.132
292.032
293.918
291.875
290.687
292.823
296.996
297.459
291.369
286.505
285.064
287.028
286.599
286.232
285.606
286.443
288.544
290.425
292.363
294.325
294.079
293.766
296.437
298.3
298.401
298.995
299.487
300.578
302.035
300.695
303.316
304.455
303.052
305.791
299.883
301.582
314.108
311.496
299.165
294.523
290.35
285.218
281.77
273.984
271.163
268.549
266.922
269.68
275.549
279.814
282.652
283.366
283.466
284.618
286.282
287.112
283.366
278.481
282.498
288.429
294.15
295.663
295.753
296.132
298.215
300.962
298.411
299.994
295.537
296.369
295.502
291.008
292.048
284.877
293.145
287.939
288.702
297.794
313.035
297.539
290.002
290.696
307.22
328.819
317.318
294.766
282.407
273.38
264.442
258.271
258.949
259.766
265.296
259.818
231.045
241.907
261.789
245.877
257.832
267.23
265.65
270.266
271.34
313.476
321.45
290.789
313.251
352.689
306.032
241.002
223.531
233.824
245.814
265.517
271.289
263.582
267.683
264.901
246.67
246.486
256.913
276.7
279.292
270.7
255.209
250.218
252.924
260.63
277.765
293.17
292.155
291.918
291.59
290.846
289.895
288.793
287.906
287.527
287.417
286.955
287.842
286.519
284.612
282.547
281.064
281.564
282.981
283.285
283.521
283.9
284.856
286.158
287.113
288.119
288.735
289.372
289.48
288.484
286.988
285.595
284.868
284.805
284.91
284.532
283.208
282.265
281.754
281.705
281.97
282.352
282.946
283.235
283.332
283.898
285.244
286.453
288.403
290.814
293.28
293.394
292.498
293.94
297.782
298.218
294.189
292.879
295.583
299.762
297.946
292.172
287.449
287.35
289.428
290.242
289.308
286.89
285.513
288.068
289.482
290.012
293.313
294.618
294.288
295.138
296.974
298.489
299.68
300.008
302.867
302.314
303.058
304.527
303.18
307.55
303.829
297.745
307.33
313.189
304.76
297.603
291.826
286.286
279.898
272.245
270.808
270.045
267.539
268.525
274.81
279.859
281.38
281.307
282.569
285.479
287.25
286.651
282.353
282.6
290.25
295.595
300.822
304.758
305.259
303.871
302.3
303.309
303.003
306.382
302.498
298.996
294.796
287.876
292.466
286.148
286.878
304.668
282.756
281.399
300.125
308.098
300.473
299.029
318.784
322.716
304.208
287.696
281.852
269.697
252.424
259.242
260.367
249.257
244.487
246.739
232.668
245.833
262.082
242.414
246.447
257.719
260.62
266.005
283.419
315.187
315.55
296.073
317.385
356.531
314.943
249.702
226.993
238.106
245.927
262.09
270.757
263.803
263.005
257.806
245.659
250.351
264.967
280.886
286.114
284.018
264.626
255.585
255.208
257.531
273.059
293.563
293.028
291.98
290.523
288.586
287.272
286.438
286.527
286.371
286.485
285.51
285.103
285.755
285.479
285.592
284.623
282.237
281.943
282.68
283.225
283.293
283.221
284.114
285.526
287.12
288.26
288.868
288.991
288.738
288.292
287.434
286.61
286.308
285.722
284.595
283.987
283.811
283.956
283.537
282.706
283.069
283.617
283.459
283.688
283.851
285.636
288.119
290.777
292.611
293.829
295.519
296.509
296.519
296.539
298.254
298.592
297.15
298.415
301.173
302.272
296.217
290.313
287.815
290.936
294.774
294.91
293.72
291.119
287.415
287.114
288.216
289.17
289.966
291.481
293.04
294.751
296.959
299.436
299.913
301.443
302.016
302.132
304.156
303.104
305.762
308.385
299.064
302.408
311.828
310.514
301.625
294.903
287.557
279.097
271.387
269.921
270.929
268.659
269.084
275.365
279.746
279.207
278.432
280.8
285.271
287.604
286.656
283.01
286.498
292.043
295.896
300.638
306.591
309.844
309.175
304.758
303.489
300.509
303.441
307.046
302.549
299.789
286.351
283.286
291.976
278.534
304
294.302
284.84
294.016
302.034
295.561
305.478
316.658
305.479
295.827
285.974
284.504
259.912
254.267
263.974
255.196
244.577
242.552
237.008
224.86
240.685
258.804
243.005
240.455
251.707
256.621
262.645
290.061
307.126
305.29
296.3
315.323
352.581
319.394
256.776
230.191
242.193
249.684
259.183
268.4
266.635
264.294
258.421
244.759
253.519
268.793
275.375
278.855
287.795
272.58
262.962
258.873
254.338
266.459
293.57
292.365
290.061
287.3
285.5
287.073
288.118
288.76
289.712
289.658
289.782
288.156
287.14
285.572
285.195
285.845
284.625
282.899
281.797
281.677
282.727
283.582
284.14
284.567
285.289
286.502
287.441
287.93
287.883
287.546
287.241
286.676
285.775
285.117
285.299
285.704
285.728
285.26
284.357
283.308
283.251
283.872
283.297
283.382
284.969
288.476
292.755
296.208
298.881
299.371
298.936
299.262
299.948
300.228
299.706
299.41
297.85
297.76
299.085
302.662
301.523
296.322
293.006
293.192
296.508
301.281
301.53
299.889
296.096
292.013
288.855
288.364
289.714
290.78
291.217
292.129
294.904
297.371
299.728
300.503
301.715
301.891
303.07
303.165
300.789
309.93
303.837
297.557
305.27
313.688
307.589
300.846
289.809
280.462
270.931
269.538
271.465
269.343
269.16
275.378
279.265
277.57
276.76
279.903
285.349
287.788
287.658
285.399
287.213
296.104
303.452
306.237
310.335
311.3
310.615
307.897
308.95
304.043
303.505
308.299
301.079
298.148
294.48
276.652
287.332
282.355
295.361
299.416
285.809
297.163
303.963
289.588
301.786
295.58
281.109
289.444
281.299
275.484
252.68
265.064
258.45
253.922
251.797
254.905
251.261
236.115
243.652
251.894
238.568
234.614
245.952
253.717
260.154
287.725
299.837
297.402
292.655
309.671
344.226
319.915
262.073
234.05
246.491
256.838
258.048
266.289
270.87
270.589
262.883
244.835
253.953
267.11
267.44
265.517
283.35
278.625
266.123
261.719
254.89
263.414
293.141
290.711
288.413
286.951
288.5
290.981
290.158
289.901
290.705
291.459
292.463
291.48
290.023
287.763
285.933
286.363
286.508
285.311
283.433
281.502
281.354
282.685
284.068
284.631
284.651
284.83
285.256
285.954
286.357
286.084
285.779
285.355
284.572
284.547
285.712
286.844
286.189
285.664
284.972
284.563
284.631
283.278
282.432
284.07
288.502
293.615
297.101
298.422
298.281
298.852
299.784
299.839
299.999
299.003
298.673
299.509
301.082
299.609
297.769
297.715
300.288
301.489
298.294
296.581
296.525
298.579
302.233
304.536
303.214
299.136
294.159
290.836
289.488
288.395
288.791
288.876
292.627
294.748
298.931
301.183
301.415
301.792
301.342
305.253
297.582
303.164
308.416
300.582
300.356
310.062
308.953
304.402
292.616
283.955
271.391
269.628
272.358