/*--------------------------------*- C++ -*----------------------------------*\
| =========                 |                                                 |
| \\      /  F ield         | OpenFOAM: The Open Source CFD Toolbox           |
|  \\    /   O peration     | Version:  dev                                   |
|   \\  /    A nd           | Web:      http://www.openfoam.org               |
|    \\/     M anipulation  |                                                 |
\*---------------------------------------------------------------------------*/
FoamFile
{
    version     2.0;
    format      ascii;
    class       volVectorField;
    object      U;
    location    "9.136";
}
// * * * * * * * * * * * * * * * * * * * * * * * * * * * * * * * * * * * * * //

dimensions      [0 1 -1 0 0 0 0];

internalField   nonuniform List<vector> 
12225
(
(6.79255 0.526207 0)
(3.02632 0.340881 0)
(-0.26006 0.182024 0)
(-1.67786 0.0926398 0)
(-3.78547 0.1781 0)
(-4.3429 0.0771294 0)
(-6.28808 0.148552 0)
(-6.90108 0.0921119 0)
(-8.60456 0.149308 0)
(-9.04895 0.015032 0)
(-10.5895 0.170407 0)
(-10.6901 -0.0881261 0)
(-12.2278 0.206137 0)
(-10.8564 -0.0703753 0)
(-8.98373 -0.128042 0)
(-2.13741 -2.59655 0)
(25.0185 -0.59831 0)
(-8.33445 17.4363 0)
(9.41247 1.14331 0)
(8.00157 1.29117 0)
(3.92629 0.94962 0)
(2.64616 0.616939 0)
(-1.7641 0.617831 0)
(-1.08736 0.397622 0)
(-5.48499 0.631865 0)
(-4.82982 0.444015 0)
(-8.69035 0.61761 0)
(-7.96103 0.281451 0)
(-11.6798 0.727344 0)
(-10.5701 0.0794899 0)
(-14.7203 0.468585 0)
(-9.79338 -1.56438 0)
(-15.4024 -3.56177 0)
(-3.01268 -10.6228 0)
(1.67826 -1.83443 0)
(-21.1346 13.1879 0)
(9.35673 1.2161 0)
(10.4584 1.75949 0)
(6.20976 1.52164 0)
(7.23289 1.22161 0)
(0.569498 1.1603 0)
(3.85755 0.898524 0)
(-3.08375 1.0873 0)
(0.0678545 0.790225 0)
(-5.73301 1.23828 0)
(-3.65843 0.631965 0)
(-7.28926 1.22826 0)
(-7.95527 0.536738 0)
(-9.15 0.483007 0)
(-9.46689 0.258426 0)
(-14.9281 -1.83429 0)
(-9.57757 -7.96925 0)
(-21.5984 4.73235 0)
(-28.2507 19.9051 0)
(7.91252 1.00664 0)
(11.6201 2.22822 0)
(4.31568 1.73469 0)
(10.2975 1.78958 0)
(0.309883 1.60445 0)
(7.49288 1.27818 0)
(-1.88053 1.76486 0)
(4.54581 1.04932 0)
(-3.11664 1.78463 0)
(-0.565904 0.257918 0)
(-3.33003 2.37144 0)
(-3.15072 0.527855 0)
(-3.86094 1.24206 0)
(-8.15609 1.32154 0)
(-8.77956 -3.01982 0)
(-18.5887 -3.5105 0)
(-20.5138 -0.241335 0)
(-22.6634 21.5957 0)
(6.11649 1.06892 0)
(13.4146 2.86696 0)
(1.36293 1.96829 0)
(12.4696 1.9365 0)
(-2.00285 2.1687 0)
(8.9058 1.36089 0)
(-1.76579 2.12313 0)
(7.10241 0.973868 0)
(-3.703 3.02005 0)
(2.09196 0.520623 0)
(-4.3418 2.58327 0)
(0.935369 -0.284589 0)
(-6.10781 3.19704 0)
(-0.977412 1.06816 0)
(-5.51169 2.20145 0)
(-13.4689 -4.54526 0)
(-23.2818 3.05372 0)
(-17.2562 22.1088 0)
(4.09306 1.05404 0)
(14.6983 3.75048 0)
(0.262339 1.74836 0)
(12.9583 2.81105 0)
(-3.37723 2.8159 0)
(10.1275 0.824163 0)
(-0.694092 2.06659 0)
(3.12186 2.16883 0)
(-5.33581 3.92918 0)
(5.43563 -0.0471558 0)
(-3.94422 2.73251 0)
(-3.6519 2.02255 0)
(-12.1297 1.08156 0)
(2.88585 0.848389 0)
(-7.97115 4.26869 0)
(-10.7754 3.69599 0)
(-25.9758 3.8757 0)
(-15.0416 17.0459 0)
(2.77696 1.52621 0)
(16.2998 4.12395 0)
(2.36342 2.26657 0)
(10.9116 2.90327 0)
(0.617311 3.59222 0)
(9.01079 0.618413 0)
(-0.764841 4.20306 0)
(0.785858 2.43934 0)
(-2.92659 1.5854 0)
(1.78805 0.805094 0)
(-9.82309 5.94818 0)
(1.58143 2.15596 0)
(-13.646 1.01835 0)
(-4.43389 0.674337 0)
(-16.2227 8.72175 0)
(-2.23114 4.95267 0)
(-19.4694 6.51819 0)
(-16.2559 15.8401 0)
(3.99416 1.49839 0)
(14.8291 3.95109 0)
(7.83428 3.31836 0)
(9.07772 3.43458 0)
(5.36938 3.20852 0)
(4.47887 1.54267 0)
(-0.655088 5.41885 0)
(3.30076 3.37813 0)
(-0.608257 2.45872 0)
(-2.5022 2.65896 0)
(-7.70437 4.52651 0)
(-0.210587 4.01963 0)
(-8.95478 3.26207 0)
(-7.73704 2.22989 0)
(-18.9308 6.53472 0)
(-3.58434 3.04194 0)
(-15.8678 11.4393 0)
(-17.0954 14.9951 0)
(6.88954 2.15489 0)
(8.05251 3.03851 0)
(8.0622 3.67352 0)
(8.56655 3.35082 0)
(8.55525 4.71261 0)
(3.44428 2.52174 0)
(0.466586 4.79743 0)
(3.57266 2.38985 0)
(1.64521 3.87703 0)
(-1.56496 3.28638 0)
(-3.50664 4.38231 0)
(-3.63349 2.67036 0)
(-4.45162 4.3341 0)
(-5.07955 3.52533 0)
(-12.5557 6.32112 0)
(-7.90975 4.4271 0)
(-13.3828 16.5002 0)
(-10.5768 14.8699 0)
(9.28061 2.84189 0)
(5.94038 3.35977 0)
(7.83903 2.5316 0)
(5.74264 2.95159 0)
(7.67418 5.38447 0)
(4.87978 4.08563 0)
(4.80099 4.75872 0)
(3.93686 3.27765 0)
(1.82137 4.28141 0)
(-0.0277525 4.29398 0)
(-0.199615 5.54009 0)
(-1.33282 3.71147 0)
(-2.84285 4.66839 0)
(-4.39574 5.24462 0)
(-6.41876 8.28904 0)
(-6.64467 5.07178 0)
(-9.4198 12.5951 0)
(-3.32964 12.0162 0)
(8.72973 3.62179 0)
(8.58319 3.85168 0)
(7.07855 3.52778 0)
(4.22246 3.30352 0)
(5.98933 5.34532 0)
(4.42165 3.63604 0)
(4.8952 4.87511 0)
(3.05124 3.63265 0)
(2.0669 5.56135 0)
(0.417192 4.3522 0)
(0.0705708 5.41502 0)
(-0.954582 4.00869 0)
(-2.9088 5.9968 0)
(-3.99272 5.913 0)
(-4.75064 7.99253 0)
(-5.31949 5.79908 0)
(-6.86049 9.60956 0)
(-3.50358 10.4848 0)
(8.40666 3.83881 0)
(9.33262 4.37943 0)
(7.33265 4.15462 0)
(4.79704 3.54115 0)
(5.2561 4.97785 0)
(3.35188 4.00975 0)
(3.6619 5.03331 0)
(1.50812 4.62895 0)
(1.1373 5.36555 0)
(-0.0517941 5.00775 0)
(-0.601455 5.77917 0)
(-1.88164 5.30269 0)
(-3.10619 6.40085 0)
(-3.98093 6.32568 0)
(-4.11125 8.13264 0)
(-4.74204 7.30089 0)
(-5.56736 9.92402 0)
(-4.82432 10.4631 0)
(8.72129 4.21106 0)
(9.18033 4.46859 0)
(7.63967 4.91718 0)
(5.70519 4.23892 0)
(5.00582 5.36313 0)
(3.59071 4.53443 0)
(2.83695 5.4286 0)
(1.43941 5.11199 0)
(0.640462 5.79665 0)
(-0.337973 5.30767 0)
(-1.08523 6.07602 0)
(-2.03815 5.90125 0)
(-2.98347 6.7113 0)
(-3.69593 6.77633 0)
(-4.06239 7.79219 0)
(-4.30393 7.99725 0)
(-4.71948 9.03378 0)
(-4.37867 9.62076 0)
(9.36072 4.46243 0)
(8.78958 5.05744 0)
(7.18448 5.39611 0)
(5.61221 4.96819 0)
(4.63375 5.62966 0)
(3.48454 5.20242 0)
(2.52614 5.73456 0)
(1.58872 5.7479 0)
(0.775399 6.05237 0)
(-0.0675879 5.8934 0)
(-0.97549 6.39351 0)
(-1.74312 6.49916 0)
(-2.46525 6.98505 0)
(-3.07544 7.1324 0)
(-3.48139 7.75016 0)
(-3.76183 8.13138 0)
(-3.93249 8.73511 0)
(-3.74504 9.1272 0)
(9.50378 4.62551 0)
(8.65743 5.85994 0)
(7.26356 5.99525 0)
(5.84061 5.72511 0)
(4.6923 5.91085 0)
(3.58973 5.68289 0)
(2.54918 5.97076 0)
(1.62583 6.02431 0)
(0.836913 6.20178 0)
(-0.0118505 6.25207 0)
(-0.823789 6.58345 0)
(-1.50622 6.76103 0)
(-2.11569 7.05006 0)
(-2.63153 7.28718 0)
(-3.00988 7.60352 0)
(-3.29851 7.92407 0)
(-3.47142 8.26627 0)
(-3.35772 8.51208 0)
(9.34641 4.78734 0)
(8.36673 6.45364 0)
(7.23875 6.34811 0)
(6.01509 6.24397 0)
(4.90546 6.28866 0)
(3.8335 6.21412 0)
(2.75532 6.33052 0)
(1.76315 6.43187 0)
(0.94453 6.51136 0)
(0.107972 6.57716 0)
(-0.657611 6.75205 0)
(-1.30033 6.85729 0)
(-1.86646 7.04563 0)
(-2.34019 7.20605 0)
(-2.71743 7.40379 0)
(-3.02403 7.60961 0)
(-3.23355 7.81915 0)
(-3.23428 7.95821 0)
(9.44258 4.68491 0)
(8.34667 6.56575 0)
(7.25896 6.42118 0)
(6.04208 6.44596 0)
(4.92437 6.46924 0)
(3.87876 6.44003 0)
(2.83341 6.46215 0)
(1.89936 6.48889 0)
(1.06908 6.51856 0)
(0.277604 6.55827 0)
(-0.415724 6.64841 0)
(-1.05515 6.70961 0)
(-1.63413 6.82667 0)
(-2.11088 6.91337 0)
(-2.50257 7.02861 0)
(-2.8294 7.12935 0)
(-3.0918 7.22841 0)
(-3.19238 7.30001 0)
(9.68911 4.69553 0)
(8.33116 6.68359 0)
(7.12083 6.5317 0)
(5.90881 6.53576 0)
(4.85015 6.54663 0)
(3.88766 6.51698 0)
(2.9623 6.485 0)
(2.09594 6.42823 0)
(1.26903 6.40946 0)
(0.507629 6.40415 0)
(-0.216561 6.42619 0)
(-0.881082 6.44072 0)
(-1.46286 6.46378 0)
(-1.96125 6.49512 0)
(-2.38028 6.51788 0)
(-2.72641 6.52254 0)
(-3.00491 6.52022 0)
(-3.16533 6.51419 0)
(9.31408 4.35565 0)
(8.11179 6.35438 0)
(7.0095 6.21543 0)
(5.89517 6.13204 0)
(4.88466 6.03712 0)
(3.94153 5.9688 0)
(3.07064 5.94207 0)
(2.21056 5.92812 0)
(1.41513 5.95145 0)
(0.716813 5.94746 0)
(0.00210442 5.94248 0)
(-0.651025 5.92421 0)
(-1.2097 5.88653 0)
(-1.70946 5.85871 0)
(-2.16802 5.8401 0)
(-2.55243 5.80529 0)
(-2.88753 5.76752 0)
(-3.12801 5.74059 0)
(9.447 3.8477 0)
(8.1469 5.79354 0)
(7.00546 5.68394 0)
(5.85013 5.61847 0)
(4.75351 5.56293 0)
(3.76174 5.50155 0)
(2.83539 5.4717 0)
(1.96959 5.42581 0)
(1.19872 5.38708 0)
(0.514857 5.34357 0)
(-0.145845 5.30572 0)
(-0.753711 5.29419 0)
(-1.30044 5.29177 0)
(-1.76033 5.25676 0)
(-2.21 5.2392 0)
(-2.61606 5.19041 0)
(-2.94993 5.1271 0)
(-3.21266 5.06413 0)
(9.42393 3.50847 0)
(8.15632 5.14046 0)
(7.10208 5.06823 0)
(6.00723 5.03086 0)
(4.91916 4.97324 0)
(3.94909 4.87394 0)
(3.01959 4.80214 0)
(2.18901 4.73895 0)
(1.40475 4.6845 0)
(0.675234 4.62493 0)
(0.00384678 4.54499 0)
(-0.674194 4.49687 0)
(-1.26466 4.4667 0)
(-1.77067 4.42959 0)
(-2.23792 4.41885 0)
(-2.6249 4.40997 0)
(-2.98773 4.39149 0)
(-3.23977 4.35766 0)
(9.33164 2.99535 0)
(7.95705 4.41174 0)
(6.91156 4.31807 0)
(5.92798 4.29665 0)
(5.00242 4.24358 0)
(4.08058 4.16441 0)
(3.16767 4.10435 0)
(2.32048 4.03513 0)
(1.48459 4.03746 0)
(0.751984 4.00244 0)
(0.0460726 3.97586 0)
(-0.626451 3.95152 0)
(-1.23347 3.90522 0)
(-1.78595 3.87665 0)
(-2.24958 3.81582 0)
(-2.66279 3.7656 0)
(-3.03332 3.70591 0)
(-3.28581 3.6532 0)
(9.25806 2.56809 0)
(8.02759 3.68023 0)
(6.98371 3.54236 0)
(5.97019 3.48344 0)
(5.00844 3.46115 0)
(4.05995 3.4449 0)
(3.13533 3.42414 0)
(2.2898 3.39164 0)
(1.4752 3.3645 0)
(0.779933 3.31287 0)
(0.103144 3.28249 0)
(-0.509511 3.24186 0)
(-1.05969 3.19328 0)
(-1.58745 3.1569 0)
(-2.02052 3.1279 0)
(-2.44197 3.07768 0)
(-2.76999 3.03039 0)
(-3.0499 2.97908 0)
(9.26372 2.14469 0)
(8.00254 3.00096 0)
(6.91977 2.84003 0)
(5.8894 2.78867 0)
(4.91165 2.75313 0)
(3.96648 2.74349 0)
(3.0642 2.71444 0)
(2.23282 2.70036 0)
(1.47798 2.67665 0)
(0.822913 2.65958 0)
(0.167841 2.65495 0)
(-0.431335 2.63213 0)
(-1.00704 2.61772 0)
(-1.5151 2.57221 0)
(-1.9548 2.5314 0)
(-2.38896 2.50105 0)
(-2.71427 2.45407 0)
(-3.02097 2.41628 0)
(9.26071 1.6728 0)
(8.10857 2.28895 0)
(7.20376 2.17354 0)
(6.23424 2.13448 0)
(5.26331 2.12162 0)
(4.27104 2.10205 0)
(3.34516 2.07874 0)
(2.50259 2.04251 0)
(1.73192 2.00824 0)
(1.03866 1.99539 0)
(0.358666 1.99226 0)
(-0.261259 1.99244 0)
(-0.846127 2.00659 0)
(-1.37267 1.99084 0)
(-1.81085 1.97077 0)
(-2.21577 1.92689 0)
(-2.54173 1.88007 0)
(-2.82755 1.84684 0)
(9.19673 1.21514 0)
(8.03993 1.58857 0)
(7.25417 1.45919 0)
(6.421 1.46097 0)
(5.55922 1.48675 0)
(4.63606 1.49538 0)
(3.71859 1.49707 0)
(2.83754 1.46254 0)
(1.99736 1.46501 0)
(1.21743 1.47334 0)
(0.459472 1.48946 0)
(-0.211963 1.51254 0)
(-0.824742 1.49391 0)
(-1.36032 1.48448 0)
(-1.81677 1.45729 0)
(-2.24082 1.41403 0)
(-2.56973 1.37234 0)
(-2.87372 1.33851 0)
(9.15447 0.72319 0)
(8.38163 0.892051 0)
(7.70515 0.79644 0)
(6.77554 0.82243 0)
(5.77204 0.868409 0)
(4.71598 0.914185 0)
(3.71562 0.934636 0)
(2.74968 0.942688 0)
(1.82165 0.951485 0)
(0.947593 0.983594 0)
(0.131668 1.01229 0)
(-0.622356 1.03222 0)
(-1.30618 1.02473 0)
(-1.91442 1.01902 0)
(-2.43919 0.993398 0)
(-2.94351 0.972158 0)
(-3.37326 0.94962 0)
(-3.76706 0.920889 0)
(9.41048 0.216115 0)
(8.58382 0.19845 0)
(7.73118 0.258546 0)
(6.54134 0.379634 0)
(5.2496 0.479767 0)
(3.89673 0.521429 0)
(2.58442 0.547487 0)
(1.30124 0.585274 0)
(0.107611 0.620625 0)
(-0.973174 0.664248 0)
(-1.9567 0.690843 0)
(-2.84989 0.692288 0)
(-3.63909 0.688999 0)
(-4.3546 0.68531 0)
(-4.99447 0.671229 0)
(-5.60461 0.665244 0)
(-6.11821 0.65524 0)
(-6.58907 0.653731 0)
(9.33068 -0.35734 0)
(7.93834 -0.405549 0)
(6.15784 -0.211621 0)
(4.15621 -0.0104413 0)
(2.26605 0.187032 0)
(0.508962 0.309102 0)
(-1.06607 0.392678 0)
(-2.4913 0.43611 0)
(-3.7289 0.453338 0)
(-4.84203 0.450768 0)
(-5.83532 0.454047 0)
(-6.71831 0.456282 0)
(-7.50674 0.450608 0)
(-8.22238 0.442661 0)
(-8.8626 0.43351 0)
(-9.43504 0.428485 0)
(-9.91191 0.402231 0)
(-10.3353 0.390821 0)
(7.78629 -0.408807 0)
(4.00371 -0.212257 0)
(1.07113 0.0548505 0)
(-1.16821 0.16308 0)
(-2.84066 0.208422 0)
(-4.18359 0.209622 0)
(-5.31358 0.19901 0)
(-6.33635 0.186697 0)
(-7.26663 0.179189 0)
(-8.14197 0.170409 0)
(-8.94476 0.172661 0)
(-9.67235 0.171421 0)
(-10.3349 0.166249 0)
(-10.9379 0.161954 0)
(-11.4812 0.158327 0)
(-11.969 0.152022 0)
(-12.3916 0.133313 0)
(-12.8338 0.136504 0)
(0.105427 0.415165 0)
(0.526245 0.184591 0)
(1.22832 -0.059952 0)
(2.09859 -0.244359 0)
(3.05428 -0.3195 0)
(4.05291 -0.290164 0)
(5.01567 -0.215488 1.0916e-17)
(5.9072 -0.12139 -1.08092e-17)
(6.7323 -0.0277542 0)
(7.46937 0.0413779 -1.06029e-17)
(8.13729 0.122417 0)
(8.73826 0.242435 0)
(9.20461 0.353433 0)
(9.56352 0.47968 1.02264e-17)
(9.82347 0.559186 0)
(9.97411 0.63172 0)
(10.0463 0.720869 -1.00049e-17)
(10.0922 0.74005 0)
(10.1361 0.734761 0)
(10.169 0.767299 0)
(10.2569 0.698644 9.79961e-18)
(10.4482 0.519158 0)
(10.7017 0.423006 9.79627e-18)
(10.77 0.465594 0)
(10.6576 0.548626 0)
(10.7127 0.505322 9.62907e-18)
(11.0832 0.351718 0)
(11.7415 0.17461 -9.47533e-18)
(12.4775 -0.160542 0)
(13.0669 -0.58206 9.49419e-18)
(13.5273 -0.834759 0)
(13.9167 -0.802295 0)
(14.1457 -0.551066 0)
(14.1648 -0.202087 0)
(13.9893 0.135549 0)
(13.683 0.394245 -9.38346e-18)
(13.297 0.535607 0)
(12.8802 0.570108 1.85358e-17)
(12.4705 0.539348 0)
(12.1064 0.481791 -1.82846e-17)
(11.7772 0.410983 0)
(11.4784 0.346001 0)
(11.2133 0.292183 1.7902e-17)
(10.9777 0.242734 0)
(10.7758 0.205984 1.76545e-17)
(10.597 0.167547 -1.75323e-17)
(10.4401 0.123949 0)
(10.3137 0.0952784 -1.72893e-17)
(10.2079 0.0692603 -1.71684e-17)
(10.1203 0.0389356 0)
(10.0558 0.00731596 0)
(10.0105 -0.0185352 0)
(9.99428 -0.0400256 0)
(10.0322 -0.06492 0)
(10.1063 -0.103845 1.64519e-17)
(10.2328 -0.149212 0)
(10.4138 -0.199321 -1.6218e-17)
(10.6373 -0.24109 0)
(10.9165 -0.286305 0)
(11.239 -0.332537 1.58724e-17)
(11.5936 -0.357643 0)
(11.9752 -0.386861 -1.5644e-17)
(12.3578 -0.409537 0)
(12.7019 -0.399 0)
(13.0091 -0.379866 0)
(13.2952 -0.37848 1.51896e-17)
(13.5589 -0.368402 0)
(13.7926 -0.366962 0)
(14.0206 -0.376831 1.48448e-17)
(14.2478 -0.387176 0)
(14.4678 -0.396804 1.46161e-17)
(14.6788 -0.401824 0)
(14.8516 -0.403837 0)
(14.9497 -0.386406 0)
(14.9785 -0.373385 -1.41832e-17)
(14.9602 -0.384502 0)
(14.9329 -0.401919 0)
(14.9337 -0.429397 -1.38504e-17)
(14.9333 -0.445613 -1.37421e-17)
(14.8696 -0.47806 0)
(14.7586 -0.494856 -1.35203e-17)
(14.6684 -0.523596 0)
(14.5903 -0.581666 -2.65804e-17)
(14.4992 -0.633457 0)
(14.4096 -0.674415 -2.61488e-17)
(14.2798 -0.68662 0)
(14.0656 -0.674969 2.57269e-17)
(13.7247 -0.648597 0)
(13.167 -0.610807 0)
(12.3792 -0.526845 0)
(11.4092 -0.397545 -2.47358e-17)
(10.2913 -0.379201 0)
(9.26707 -0.470228 2.40941e-17)
(8.57955 -0.619692 0)
(8.17147 -0.695003 -2.37728e-17)
(7.61089 -0.659558 -2.36137e-17)
(6.83245 -0.682071 -2.32879e-17)
(6.29899 -0.757235 0)
(5.84872 -0.822141 0)
(5.18987 -0.674276 0)
(4.26823 -0.379906 0)
(3.40973 -0.298109 0)
(2.9363 -0.685103 0)
(2.85064 -1.2323 0)
(2.68341 -1.72291 0)
(1.88728 -1.61039 2.21242e-17)
(-0.228649 -0.134463 2.21949e-17)
(-3.72747 0.82209 0)
(-6.34294 0.522541 0)
(-7.95764 0.184514 0)
(-8.94725 -0.059407 2.22075e-17)
(-9.00558 -0.435722 0)
(-8.3039 -0.790008 0)
(-6.90479 -1.05618 0)
(-5.00127 -1.20635 0)
(-3.01659 -1.16924 -2.14855e-17)
(-1.47126 -0.993464 0)
(-0.0657231 -0.893671 0)
(0.315792 -0.852984 2.10351e-17)
(1.68262 -0.882023 -2.10185e-17)
(2.92937 -1.30991 0)
(5.84567 -1.75284 -2.03915e-17)
(9.52304 -1.46694 0)
(11.5712 -0.672868 2.0362e-17)
(12.0258 -0.914841 0)
(13.3529 -0.955054 0)
(14.339 -0.907228 0)
(15.0002 -0.76612 0)
(15.1668 -0.794258 0)
(15.1961 -0.920113 -3.8203e-17)
(15.3782 -1.10658 -3.79148e-17)
(15.82 -1.23352 0)
(16.3884 -1.32562 0)
(17.1164 -1.41349 0)
(17.6756 -1.42219 3.65759e-17)
(18.1881 -1.42581 0)
(18.4968 -1.47461 0)
(18.6118 -1.48491 0)
(18.8023 -1.46045 3.52044e-17)
(18.9164 -1.47276 -3.49522e-17)
(18.8564 -1.46764 0)
(18.5096 -1.41895 0)
(18.1369 -1.42617 -3.41131e-17)
(17.6268 -1.35368 -3.38468e-17)
(16.9335 -1.33486 0)
(16.6356 -1.40604 0)
(16.0688 -1.37199 3.30699e-17)
(15.3593 -1.43887 -3.27068e-17)
(14.9716 -1.43993 0)
(14.3264 -1.4083 0)
(13.5836 -1.4703 -3.17957e-17)
(13.0027 -1.4863 0)
(12.2111 -1.36374 0)
(11.1014 -1.28214 -3.05762e-17)
(10.0033 -1.25041 0)
(9.14914 -1.33729 -2.98791e-17)
(7.85791 -1.32737 0)
(6.59163 -1.41151 0)
(5.56409 -1.42416 0)
(3.71319 -1.08383 2.88675e-17)
(0.241267 -0.657114 0)
(-3.42804 -0.740053 0)
(-6.16416 -1.17105 0)
(-7.94351 -1.48616 0)
(-8.87646 -1.66903 0)
(-9.39643 -1.72577 0)
(-9.89572 -1.66063 2.94028e-17)
(-10.6841 -1.64635 2.95384e-17)
(-11.7794 -1.54813 0)
(-14.0122 -1.23294 0)
(-17.5518 -0.899494 0)
(-20.2237 -0.901124 -2.9678e-17)
(-21.8393 -1.13695 0)
(-22.9718 -1.20678 5.90894e-17)
(-23.9487 -1.06678 -5.87627e-17)
(-25.727 -1.05166 -5.80396e-17)
(-26.9042 -1.15437 5.79828e-17)
(-24.7079 -1.47805 -5.78978e-17)
(-22.5902 -1.40973 5.77463e-17)
(-20.9095 -1.37563 0)
(0.129184 1.08522 0)
(0.712729 0.337984 0)
(1.54085 -0.399815 -2.29472e-17)
(2.45996 -0.842192 0)
(3.38042 -1.02046 2.22925e-17)
(4.31101 -0.96524 2.20094e-17)
(5.21926 -0.797281 1.08901e-17)
(6.07569 -0.579578 1.07874e-17)
(6.90011 -0.324803 0)
(7.66382 -0.0762106 1.05858e-17)
(8.35991 0.102629 0)
(8.9842 0.372692 0)
(9.52842 0.750325 -2.05943e-17)
(9.94255 0.982292 -1.0178e-17)
(10.269 1.2704 2.01335e-17)
(10.524 1.55007 1.99777e-17)
(10.7212 1.55183 9.8748e-18)
(10.7934 1.59631 0)
(10.8133 1.59965 0)
(10.9023 1.3586 0)
(10.8261 1.08467 9.55384e-18)
(10.7523 1.00494 0)
(10.9281 1.13204 -2.82906e-17)
(11.4268 1.53208 0)
(12.2494 1.78266 0)
(13.0481 0.986202 -9.60419e-18)
(13.335 -0.468071 0)
(13.38 -0.960889 8.96127e-18)
(13.3625 -0.336601 1.82084e-17)
(12.8285 0.425089 -9.40503e-18)
(11.9719 0.97107 0)
(11.1549 1.38399 0)
(10.3556 1.66351 0)
(9.63499 1.8185 1.90373e-17)
(9.03721 1.86306 1.89014e-17)
(8.54282 1.82718 9.37698e-18)
(8.13742 1.734 0)
(7.76887 1.60252 -1.84832e-17)
(7.45432 1.4578 0)
(7.17828 1.29455 1.82303e-17)
(6.93487 1.1209 0)
(6.74413 0.963778 0)
(6.56781 0.802833 -1.78608e-17)
(6.44454 0.645877 0)
(6.37026 0.493634 -5.28535e-17)
(6.32576 0.35467 1.74921e-17)
(6.32079 0.212025 0)
(6.32708 0.0756475 1.72463e-17)
(6.35768 -0.0487201 1.71247e-17)
(6.43408 -0.165854 0)
(6.52769 -0.292632 0)
(6.66173 -0.413409 0)
(6.83355 -0.543633 0)
(7.0489 -0.679448 0)
(7.30646 -0.83541 -1.64278e-17)
(7.63164 -0.981888 -3.26437e-17)
(8.00505 -1.12971 1.62006e-17)
(8.40662 -1.24886 0)
(8.85787 -1.36465 -3.19451e-17)
(9.36154 -1.45794 1.58602e-17)
(9.86618 -1.5227 0)
(10.3746 -1.55985 1.55953e-17)
(10.8917 -1.54309 0)
(11.3264 -1.43431 0)
(11.7022 -1.38784 3.04281e-17)
(12.0537 -1.38907 -1.50759e-17)
(12.338 -1.33051 2.99043e-17)
(12.5875 -1.31436 -2.96443e-17)
(12.8769 -1.34363 -1.46815e-17)
(13.1571 -1.34928 0)
(13.4351 -1.37792 -1.441e-17)
(13.6981 -1.3672 0)
(13.9482 -1.2954 0)
(14.0916 -1.19525 0)
(14.087 -1.14157 -1.39111e-17)
(14.0612 -1.19766 0)
(14.0974 -1.33063 -2.73984e-17)
(14.213 -1.45666 4.07354e-17)
(14.299 -1.4646 1.34363e-17)
(14.2872 -1.4879 0)
(14.2432 -1.52749 1.31777e-17)
(14.2278 -1.67493 0)
(14.2731 -1.8727 2.59023e-17)
(14.299 -2.01059 0)
(14.2673 -2.08452 2.54353e-17)
(14.1392 -2.10324 -5.01997e-17)
(13.8346 -2.08784 -2.47282e-17)
(13.3856 -1.9137 0)
(12.7379 -1.66625 0)
(11.9093 -1.43452 0)
(10.9613 -1.39348 2.36146e-17)
(9.9606 -1.64096 0)
(9.04546 -2.04346 -2.31433e-17)
(8.4317 -2.50604 0)
(8.17372 -2.67254 6.88203e-17)
(7.88564 -2.34382 2.27073e-17)
(7.3122 -2.33907 2.22656e-17)
(6.99734 -2.61662 0)
(6.75925 -2.43453 0)
(6.34688 -1.94456 0)
(5.83159 -2.07956 0)
(5.47551 -2.51354 0)
(4.83362 -2.73474 4.0338e-17)
(2.92777 -2.4083 4.19361e-17)
(-0.709777 -0.876387 0)
(-4.92764 1.00116 -2.29812e-17)
(-7.77611 1.50135 -2.28736e-17)
(-9.60226 0.916821 0)
(-10.6104 0.0190114 -4.47153e-17)
(-11.21 -0.916772 0)
(-11.1753 -1.83283 2.18677e-17)
(-10.6767 -2.71024 0)
(-9.69459 -3.4206 0)
(-8.17718 -4.05233 -4.34001e-17)
(-6.26643 -4.34224 0)
(-4.55753 -4.0816 2.10935e-17)
(-3.34892 -3.49472 0)
(-2.19885 -2.66461 0)
(-2.41147 -2.68987 2.02453e-17)
(-1.18487 -2.95444 2.02266e-17)
(0.0541165 -3.93751 0)
(3.87453 -5.56346 -2.01165e-17)
(7.73854 -5.16496 0)
(11.0059 -3.16873 1.99893e-17)
(11.7468 -3.5844 3.98749e-17)
(14.132 -3.28823 0)
(15.6167 -3.2577 0)
(16.935 -3.09003 0)
(18.076 -2.82154 0)
(18.5892 -2.87915 3.78344e-17)
(18.6227 -3.29604 1.12627e-16)
(18.9473 -3.71447 0)
(19.2622 -4.0414 0)
(19.7848 -4.2694 0)
(20.1953 -4.34613 -3.51544e-17)
(20.6671 -4.42166 0)
(20.8831 -4.33684 0)
(20.6463 -4.54537 6.70749e-17)
(20.4767 -4.72089 3.30334e-17)
(20.6873 -4.80367 3.26018e-17)
(21.0372 -4.72698 0)
(20.7904 -4.54892 0)
(20.4219 -4.58444 3.16886e-17)
(20.0665 -4.42767 -3.14788e-17)
(19.3594 -4.44663 0)
(19.5238 -4.62137 0)
(19.4491 -4.31559 -3.06549e-17)
(18.7429 -4.38665 9.1096e-17)
(18.7831 -4.46985 0)
(18.3376 -4.25031 0)
(17.3261 -4.22353 2.95111e-17)
(16.4744 -4.30011 0)
(15.2301 -4.18953 5.74069e-17)
(13.5254 -4.22643 -2.81372e-17)
(12.104 -4.47735 0)
(11.3068 -4.64091 2.6652e-17)
(9.98472 -4.48387 5.25913e-17)
(8.89437 -4.6495 0)
(8.14188 -4.61303 0)
(6.06013 -3.70711 -2.56295e-17)
(2.58064 -2.93312 0)
(-0.327298 -3.24462 4.63224e-17)
(-2.63031 -3.96237 0)
(-4.6132 -4.64018 0)
(-6.08515 -5.08125 0)
(-7.36588 -5.10437 0)
(-9.05404 -4.80956 -2.77193e-17)
(-11.2581 -4.42836 -2.83684e-17)
(-14.1866 -3.66813 0)
(-18.5656 -2.59839 0)
(-22.2169 -2.60506 0)
(-23.4138 -3.32299 2.89546e-17)
(-25.3725 -3.7546 0)
(-26.1564 -4.00194 -5.86652e-17)
(-26.0845 -3.31403 5.76508e-17)
(-27.334 -3.2402 5.63186e-17)
(-29.5402 -4.38399 5.69869e-17)
(-24.6488 -5.87394 5.70541e-17)
(-22.6576 -4.93658 5.69258e-17)
(-19.4598 -4.35746 0)
(0.182528 1.47189 0)
(0.996586 0.124482 0)
(1.89253 -0.939199 2.29751e-17)
(2.78264 -1.37006 2.25145e-17)
(3.58948 -1.45088 -2.21711e-17)
(4.38009 -1.32986 -2.19332e-17)
(5.15255 -1.09688 -1.30649e-21)
(5.89663 -0.82506 0)
(6.63937 -0.502583 0)
(7.36633 -0.134694 0)
(8.06498 0.226145 0)
(8.68639 0.611272 0)
(9.27435 1.10908 6.26303e-17)
(9.77431 1.67875 0)
(10.1627 2.1084 -2.04867e-17)
(10.5111 2.41198 -2.02763e-17)
(10.644 2.80273 0)
(10.5765 3.05426 0)
(10.5248 2.94413 0)
(10.5005 2.98047 0)
(10.5601 3.19039 -1.94085e-17)
(10.6891 2.69276 0)
(10.8392 1.39196 1.8985e-17)
(11.2291 0.033119 0)
(11.7624 -0.409432 0)
(11.785 0.435221 0)
(10.9486 1.73399 3.84568e-17)
(9.78698 2.49713 0)
(8.7672 2.85173 -1.94967e-17)
(7.90641 3.06813 3.90834e-17)
(7.25218 3.1659 0)
(6.73782 3.17759 0)
(6.32739 3.1284 0)
(5.97634 3.042 -1.90676e-17)
(5.67574 2.91148 -1.89232e-17)
(5.45237 2.75206 0)
(5.30106 2.56104 0)
(5.19759 2.32334 3.707e-17)
(5.12759 2.05633 3.68196e-17)
(5.08909 1.78067 -3.6576e-17)
(5.07387 1.49626 0)
(5.09287 1.21987 0)
(5.13713 0.954115 0)
(5.19058 0.696142 0)
(5.29296 0.462321 3.53192e-17)
(5.37365 0.228965 3.50924e-17)
(5.47339 0.00668234 -3.48532e-17)
(5.63918 -0.195871 0)
(5.80824 -0.382335 0)
(5.96981 -0.573206 0)
(6.16452 -0.754061 0)
(6.39071 -0.947818 3.38043e-17)
(6.64987 -1.16591 0)
(6.92994 -1.38628 0)
(7.23763 -1.61697 3.31959e-17)
(7.59654 -1.84314 3.29637e-17)
(7.97904 -2.07053 0)
(8.39131 -2.26711 -6.50778e-17)
(8.84965 -2.43669 3.22742e-17)
(9.36244 -2.57232 -3.20305e-17)
(9.87384 -2.66696 0)
(10.3734 -2.67852 0)
(10.924 -2.63303 0)
(11.4025 -2.41965 0)
(11.876 -2.33225 -3.06643e-17)
(12.2982 -2.29121 -6.08742e-17)
(12.5408 -2.14514 -3.01246e-17)
(12.7676 -2.14566 2.98852e-17)
(12.9787 -2.25372 0)
(13.1387 -2.26758 -5.88303e-17)
(13.3645 -2.36319 -5.82781e-17)
(13.589 -2.36528 -5.75956e-17)
(13.8528 -2.21965 5.68141e-17)
(14.0665 -2.07038 0)
(14.1233 -1.92056 8.342e-17)
(14.1646 -2.06361 0)
(14.1858 -2.3704 -2.77876e-17)
(14.2865 -2.59306 -2.75053e-17)
(14.3896 -2.54785 0)
(14.4469 -2.57347 0)
(14.402 -2.72205 -5.32135e-17)
(14.4679 -3.03015 0)
(14.6364 -3.37209 -5.28117e-17)
(14.7729 -3.52713 0)
(14.8432 -3.5609 5.22666e-17)
(14.8462 -3.40001 1.03039e-16)
(14.7163 -3.17265 0)
(14.2572 -2.94094 0)
(13.6378 -2.80934 0)
(12.9527 -2.58168 4.73509e-17)
(12.2543 -2.48156 0)
(11.5389 -2.70902 4.68853e-17)
(10.6177 -3.21168 0)
(9.67679 -4.01746 0)
(8.79425 -4.59465 -9.4317e-17)
(8.40911 -4.3737 0)
(8.26706 -4.21416 -4.56683e-17)
(8.06604 -4.55334 0)
(7.7276 -4.57372 -4.347e-17)
(7.33578 -4.23861 0)
(6.35159 -3.91738 0)
(4.21281 -3.22344 0)
(0.978261 -1.87197 -1.3082e-16)
(-2.86967 -0.178628 -4.56715e-17)
(-6.48153 0.980134 0)
(-9.01555 1.29064 0)
(-10.2097 0.804699 0)
(-10.7413 -0.218445 0)
(-10.9626 -1.27835 4.39208e-17)
(-11.0461 -2.32484 -8.74711e-17)
(-10.9368 -3.34468 -4.34921e-17)
(-10.6653 -4.41061 8.73122e-17)
(-10.0934 -5.40652 8.74578e-17)
(-8.9873 -6.37437 4.31609e-17)
(-7.81606 -6.65478 0)
(-7.02089 -5.94709 8.16189e-17)
(-6.77701 -4.77803 0)
(-6.75343 -3.58147 -7.85645e-17)
(-6.77438 -3.63783 -3.91237e-17)
(-5.88104 -4.75877 0)
(-2.84035 -7.69061 8.39062e-17)
(2.07027 -10.4518 4.30003e-17)
(5.06305 -9.03976 0)
(8.64571 -5.4788 3.98357e-17)
(9.22477 -6.59419 -1.17519e-16)
(12.8976 -6.24456 0)
(14.5664 -6.01677 0)
(16.0934 -5.85903 0)
(17.8299 -5.44891 0)
(19.1886 -5.16672 -7.50032e-17)
(19.9641 -5.3844 -7.5827e-17)
(20.4517 -5.91354 0)
(20.6179 -6.47404 0)
(21.0535 -6.92881 0)
(21.2604 -7.08205 0)
(21.6465 -7.44178 0)
(22.0883 -7.07097 0)
(21.7349 -7.12036 -6.64123e-17)
(21.1092 -7.58534 1.17632e-19)
(21.1736 -7.97058 0)
(21.8528 -7.98761 0)
(21.7161 -7.54747 -6.33722e-17)
(21.3407 -7.60023 0)
(21.0678 -7.27023 6.22106e-17)
(20.1246 -7.53274 6.21531e-17)
(20.3483 -8.12874 0)
(20.821 -7.46363 0)
(19.9199 -7.42396 -6.01748e-17)
(20.3008 -7.80015 -1.19525e-16)
(20.6654 -7.20213 0)
(19.9576 -6.95831 0)
(19.4317 -7.13194 0)
(18.5225 -6.69973 -5.58885e-17)
(16.6293 -6.40798 5.50183e-17)
(14.7743 -6.96091 0)
(13.6412 -7.46354 1.05553e-16)
(11.7917 -7.34047 5.11523e-17)
(10.3503 -7.78692 -9.94234e-17)
(9.77926 -7.63526 0)
(8.07156 -6.0375 0)
(4.80634 -4.9568 -9.07349e-17)
(1.95545 -5.34433 -4.28168e-17)
(-0.571087 -6.28181 0)
(-2.98795 -7.09477 0)
(-5.19005 -7.67629 0)
(-7.54719 -7.61742 0)
(-10.4542 -7.01958 -1.11861e-16)
(-13.8802 -6.15047 0)
(-17.6715 -4.89552 0)
(-21.3606 -4.20348 0)
(-22.7674 -5.22327 0)
(-24.0957 -5.80127 0)
(-27.3763 -6.13601 0)
(-27.5063 -7.18576 -1.17416e-16)
(-28.0751 -6.13446 0)
(-26.3542 -5.35939 0)
(-29.2701 -7.53979 -2.22802e-16)
(-24.6768 -10.2671 1.13947e-16)
(-24.3989 -8.75513 -1.13301e-16)
(-18.8336 -7.59951 1.13627e-16)
(0.265073 1.52277 0)
(1.1876 -0.423067 -4.66381e-17)
(1.95904 -1.45568 0)
(2.65748 -1.64891 -2.22919e-17)
(3.2848 -1.56541 0)
(3.92038 -1.36695 0)
(4.53363 -1.1152 2.217e-17)
(5.15363 -0.819166 0)
(5.83145 -0.494878 0)
(6.51023 -0.162083 0)
(7.23934 0.207101 0)
(7.94045 0.670345 0)
(8.60368 1.23575 -8.50936e-17)
(9.18563 1.80603 -4.2074e-17)
(9.66703 2.38106 4.16705e-17)
(10.0604 3.00307 0)
(10.2853 3.73933 0)
(10.4371 4.14359 0)
(10.6317 4.13954 0)
(10.7994 4.0151 0)
(10.7508 3.36154 -3.92434e-17)
(10.6257 2.41704 -3.76834e-17)
(10.3339 2.25198 3.80858e-17)
(9.33088 2.70492 -3.94485e-17)
(8.13477 3.29114 0)
(7.33702 3.91915 0)
(6.65773 4.33505 -3.98555e-17)
(6.12799 4.50783 0)
(5.6939 4.56591 0)
(5.31694 4.56285 -3.92755e-17)
(5.01377 4.49239 -3.89247e-17)
(4.80492 4.35559 -3.85583e-17)
(4.67918 4.17088 0)
(4.59247 3.93923 0)
(4.54025 3.66633 3.76872e-17)
(4.53549 3.36649 0)
(4.55812 3.03342 0)
(4.62125 2.69114 -3.69576e-17)
(4.71357 2.33767 3.67378e-17)
(4.83826 1.99009 -3.6504e-17)
(4.95832 1.63547 0)
(5.08165 1.27447 0)
(5.23436 0.929536 -7.15423e-17)
(5.38674 0.591767 0)
(5.55856 0.280604 -7.06577e-17)
(5.75744 -0.00490187 -1.05369e-16)
(5.98512 -0.261003 1.04797e-16)
(6.20245 -0.527508 -6.95037e-17)
(6.42326 -0.792884 0)
(6.64534 -1.04752 0)
(6.92089 -1.3252 -6.84631e-17)
(7.18861 -1.57704 -3.40281e-17)
(7.45013 -1.84563 0)
(7.74245 -2.12318 0)
(8.02913 -2.40841 -3.34147e-17)
(8.32291 -2.7212 -6.64532e-17)
(8.62295 -3.03762 0)
(8.94516 -3.30501 6.54653e-17)
(9.32169 -3.55413 -6.50649e-17)
(9.73832 -3.73379 6.45994e-17)
(10.2024 -3.85182 0)
(10.6185 -3.918 0)
(11.1594 -3.89583 0)
(11.6396 -3.67593 0)
(12.1685 -3.52511 0)
(12.6331 -3.36836 6.12946e-17)
(12.938 -3.07941 0)
(13.3491 -2.96588 0)
(13.6516 -3.02915 0)
(13.8483 -3.03836 1.1862e-16)
(14.0229 -3.21874 5.89819e-17)
(14.1764 -3.36018 5.85227e-17)
(14.4585 -3.26773 -1.15716e-16)
(14.8409 -2.98809 5.70516e-17)
(14.99 -2.73178 -5.61898e-17)
(15.0806 -2.8785 0)
(15.0255 -3.40732 5.61484e-17)
(14.9111 -3.75719 0)
(14.8776 -3.69961 0)
(15.0202 -3.68628 0)
(15.0692 -3.82494 1.08807e-16)
(15.1115 -4.3348 -5.42206e-17)
(15.0777 -4.8427 -5.42743e-17)
(15.0368 -5.08525 -1.07569e-16)
(15.0349 -5.31297 -1.6035e-16)
(15.149 -5.30285 -5.29354e-17)
(15.2354 -5.04959 0)
(15.2226 -4.4541 -1.02115e-16)
(14.8725 -4.01114 0)
(14.2965 -3.79324 -1.45845e-16)
(13.8881 -3.78929 0)
(13.4838 -3.94978 -1.41382e-16)
(12.7588 -4.19624 0)
(11.9327 -4.82117 0)
(10.8126 -5.83487 -4.59542e-17)
(9.93867 -6.39828 0)
(9.58512 -6.51789 4.61922e-17)
(8.9332 -6.70722 8.96897e-17)
(7.71863 -6.20145 4.39823e-17)
(5.7264 -4.79308 8.61609e-17)
(2.98362 -3.32662 -8.60046e-17)
(-0.121055 -1.93802 -8.857e-17)
(-3.48666 -0.667265 1.83522e-16)
(-6.64818 0.49026 0)
(-8.90544 0.929402 0)
(-10.0376 0.426284 9.00235e-17)
(-10.2256 -0.650599 -8.89566e-17)
(-10.3348 -1.7599 0)
(-10.3904 -2.79697 0)
(-10.5685 -3.84549 8.79354e-17)
(-10.6972 -4.8721 0)
(-10.7492 -6.06387 -3.52111e-20)
(-10.5839 -7.37658 -3.87112e-20)
(-10.133 -8.36882 8.45984e-17)
(-9.96741 -8.33213 0)
(-9.9976 -7.1326 -8.04544e-17)
(-9.88889 -5.60947 0)
(-9.65963 -4.43491 7.83957e-17)
(-9.13503 -5.26476 0)
(-7.05406 -8.39991 0)
(-2.8928 -13.0607 -9.07347e-17)
(0.585123 -14.7167 -8.84624e-17)
(1.67118 -12.6073 0)
(6.61679 -8.41003 -7.61498e-17)
(8.52406 -10.2584 1.54513e-16)
(12.6499 -9.47623 0)
(14.0431 -8.79858 0)
(14.9093 -8.80401 0)
(16.4564 -8.53471 0)
(18.3986 -8.24449 7.33639e-17)
(19.8339 -8.46408 -1.49286e-16)
(20.6567 -8.69395 0)
(20.7905 -8.99064 0)
(21.0736 -9.63819 0)
(21.2215 -9.87372 0)
(21.6793 -10.5843 0)
(22.2763 -10.0632 0)
(21.7124 -9.78427 0)
(21.0084 -10.5586 6.67005e-17)
(21.1847 -11.5196 0)
(22.1703 -11.6347 0)
(22.3007 -10.7741 6.44377e-17)
(21.9536 -10.931 0)
(21.81 -10.4144 0)
(20.7389 -10.6989 -6.33072e-17)
(20.874 -12.0405 0)
(21.7293 -10.9011 0)
(20.4851 -10.5697 1.23672e-16)
(20.4879 -11.8086 1.244e-16)
(21.4492 -10.7938 1.21448e-16)
(21.1662 -10.258 0)
(21.1928 -10.4258 1.1624e-16)
(20.8959 -9.63325 0)