/*--------------------------------*- C++ -*----------------------------------*\
| =========                 |                                                 |
| \\      /  F ield         | OpenFOAM: The Open Source CFD Toolbox           |
|  \\    /   O peration     | Version:  dev                                   |
|   \\  /    A nd           | Web:      http://www.openfoam.org               |
|    \\/     M anipulation  |                                                 |
\*---------------------------------------------------------------------------*/
FoamFile
{
    version     2.0;
    format      ascii;
    class       volVectorField;
    object      U_0;
    location    "9.136";
}
// * * * * * * * * * * * * * * * * * * * * * * * * * * * * * * * * * * * * * //

dimensions      [0 1 -1 0 0 0 0];

internalField   nonuniform List<vector> 
12225
(
(6.6776 0.615104 0)
(2.79096 0.424911 0)
(-0.582892 0.266068 0)
(-2.09066 0.178344 0)
(-4.30484 0.268157 0)
(-4.92579 0.169414 0)
(-6.98537 0.244459 0)
(-7.66282 0.190558 0)
(-9.49111 0.252606 0)
(-9.99866 0.115074 0)
(-11.729 0.292805 0)
(-11.9055 0.0108795 0)
(-13.7777 0.3407 0)
(-12.7881 0.0656784 0)
(-11.8645 0.116761 0)
(-5.12855 -1.93262 0)
(20.2257 -0.0540371 0)
(-13.1126 17.5711 0)
(9.28295 1.39588 0)
(7.83239 1.53027 0)
(3.69941 1.19412 0)
(2.43072 0.872442 0)
(-2.09735 0.874451 0)
(-1.35768 0.657143 0)
(-5.86481 0.902601 0)
(-5.14753 0.714052 0)
(-9.09237 0.902557 0)
(-8.31804 0.559063 0)
(-12.168 1.05894 0)
(-10.9962 0.39105 0)
(-15.6628 0.95699 0)
(-10.5774 -1.0292 0)
(-17.8743 -2.58041 0)
(-6.58242 -9.58268 0)
(-1.95161 -2.38476 0)
(-25.2605 12.2588 0)
(9.19781 1.64378 0)
(10.2644 2.17392 0)
(5.88337 1.93474 0)
(7.03949 1.657 0)
(0.167138 1.59752 0)
(3.65812 1.34193 0)
(-3.48339 1.55336 0)
(-0.173232 1.24033 0)
(-6.06827 1.71985 0)
(-4.01428 1.09396 0)
(-7.50061 1.77921 0)
(-8.42789 1.12528 0)
(-9.59183 1.09865 0)
(-9.9259 1.15593 0)
(-16.7052 -0.0352685 0)
(-10.0812 -7.42145 0)
(-24.1941 4.74101 0)
(-29.102 20.2539 0)
(7.73232 1.6558 0)
(11.4381 2.8521 0)
(3.86568 2.3329 0)
(10.0996 2.41494 0)
(-0.254839 2.23879 0)
(7.22935 1.90415 0)
(-2.36849 2.45004 0)
(4.25829 1.68633 0)
(-3.58706 2.50099 0)
(-0.983392 0.884891 0)
(-3.73808 3.16763 0)
(-3.60996 1.29708 0)
(-4.29688 2.12158 0)
(-8.54212 2.52339 0)
(-9.0543 -1.26674 0)
(-19.2647 -1.41945 0)
(-23.3527 0.549729 0)
(-23.3214 18.186 0)
(5.88892 1.97182 0)
(13.2785 3.7302 0)
(0.953064 2.76384 0)
(12.2401 2.79813 0)
(-2.66416 3.03911 0)
(8.57018 2.16217 0)
(-2.23693 3.00868 0)
(6.62926 1.86622 0)
(-4.38468 4.01065 0)
(1.7199 1.34484 0)
(-4.93607 3.58468 0)
(0.409171 0.723683 0)
(-7.10587 4.22694 0)
(-1.31346 2.11575 0)
(-5.92627 4.32437 0)
(-13.2259 -2.29325 0)
(-25.2264 4.06478 0)
(-20.0287 18.8726 0)
(3.84135 2.1977 0)
(14.601 4.84379 0)
(-0.0115683 2.78799 0)
(12.5869 3.93566 0)
(-3.76642 3.93775 0)
(9.73657 1.84717 0)
(-1.24907 3.24851 0)
(2.52333 3.30337 0)
(-5.79278 5.05392 0)
(4.98639 1.07735 0)
(-4.7435 4.05877 0)
(-3.79952 3.41473 0)
(-13.196 2.40353 0)
(2.1571 2.12495 0)
(-9.09641 6.2263 0)
(-9.33283 6.42096 0)
(-25.8786 6.10705 0)
(-17.2053 15.8022 0)
(2.63007 2.94583 0)
(16.0861 5.43427 0)
(2.2269 3.6046 0)
(10.4113 4.27152 0)
(0.58954 4.93122 0)
(8.47432 1.97822 0)
(-1.30782 5.7336 0)
(0.393967 3.8291 0)
(-3.21306 2.97356 0)
(1.29281 2.27381 0)
(-10.5353 7.4206 0)
(1.45644 3.85305 0)
(-14.0436 2.90091 0)
(-4.96725 2.15267 0)
(-17.7023 10.4381 0)
(-2.03487 7.15728 0)
(-17.6112 9.16557 0)
(-16.6098 16.2733 0)
(3.98947 3.19848 0)
(14.2502 5.47793 0)
(7.6817 4.91468 0)
(8.59624 4.99096 0)
(5.33966 4.81809 0)
(3.83369 3.21874 0)
(-0.991308 7.03802 0)
(3.02788 4.93369 0)
(-0.819964 4.20577 0)
(-2.99054 4.44861 0)
(-7.77224 6.10753 0)
(-0.885769 5.79923 0)
(-8.72123 5.37869 0)
(-7.51039 4.31807 0)
(-19.1301 8.45356 0)
(-4.50746 4.7882 0)
(-14.2067 14.3688 0)
(-16.019 16.2327 0)
(6.90937 4.1691 0)
(7.42123 4.79307 0)
(7.84828 5.39607 0)
(8.10817 5.10379 0)
(8.24382 6.60688 0)
(2.94845 4.42788 0)
(0.390726 6.56788 0)
(3.18885 4.18881 0)
(1.35913 5.83474 0)
(-1.86808 5.23388 0)
(-3.42302 6.39717 0)
(-4.09664 4.59696 0)
(-4.37644 6.4154 0)
(-4.99979 5.78852 0)
(-11.6441 8.82218 0)
(-8.23717 6.24605 0)
(-12.4707 18.4754 0)
(-8.6799 16.6498 0)
(9.14335 5.15705 0)
(5.76401 5.37829 0)
(7.55185 4.50294 0)
(5.21875 5.005 0)
(7.15246 7.45626 0)
(4.49376 6.1615 0)
(4.63392 6.8259 0)
(3.45416 5.41698 0)
(1.40336 6.46446 0)
(-0.377644 6.43338 0)
(-0.394246 7.7658 0)
(-1.54012 5.97601 0)
(-3.04391 6.97451 0)
(-4.61278 7.55273 0)
(-5.95485 10.8867 0)
(-6.50327 7.44657 0)
(-8.91068 14.029 0)
(-2.74731 14.0028 0)
(8.53405 6.2023 0)
(8.55043 6.14997 0)
(6.73714 5.8705 0)
(3.85764 5.6516 0)
(5.51871 7.64396 0)
(3.95539 5.93466 0)
(4.39384 7.2451 0)
(2.48519 6.06836 0)
(1.59652 8.00543 0)
(-0.0229358 6.75214 0)
(-0.355824 7.86809 0)
(-1.32037 6.52402 0)
(-3.21124 8.56843 0)
(-4.23253 8.42174 0)
(-4.77691 10.5721 0)
(-5.25221 8.44876 0)
(-6.72146 11.8308 0)
(-3.91256 12.9425 0)
(8.28438 6.75772 0)
(9.18876 6.9888 0)
(7.04214 6.79563 0)
(4.53099 6.21027 0)
(4.8579 7.62852 0)
(2.91943 6.68939 0)
(3.14223 7.73404 0)
(1.00842 7.37917 0)
(0.643312 8.0704 0)
(-0.499178 7.7506 0)
(-1.02928 8.5547 0)
(-2.25811 8.13767 0)
(-3.38741 9.20424 0)
(-4.21131 9.12193 0)
(-4.26041 10.9305 0)
(-4.79267 10.1925 0)
(-5.54367 12.6067 0)
(-5.02293 13.2551 0)
(8.63364 7.49492 0)
(8.98971 7.42985 0)
(7.35186 7.90274 0)
(5.41382 7.26172 0)
(4.62378 8.37888 0)
(3.21001 7.57476 0)
(2.38296 8.47685 0)
(1.042 8.18619 0)
(0.214842 8.86946 0)
(-0.731165 8.3972 0)
(-1.44947 9.17301 0)
(-2.33797 9.0281 0)
(-3.21892 9.82849 0)
(-3.87695 9.90679 0)
(-4.21771 10.8627 0)
(-4.37776 11.1413 0)
(-4.71674 12.0428 0)
(-4.35694 12.667 0)
(9.25925 8.12338 0)
(8.59193 8.40641 0)
(6.91233 8.72971 0)
(5.31646 8.34486 0)
(4.28315 8.99641 0)
(3.11535 8.61035 0)
(2.12821 9.13742 0)
(1.20746 9.18005 0)
(0.389469 9.47099 0)
(-0.4314 9.35739 0)
(-1.30066 9.84494 0)
(-2.024 9.96783 0)
(-2.69053 10.4366 0)
(-3.24721 10.5973 0)
(-3.60627 11.1788 0)
(-3.83583 11.5694 0)
(-3.94441 12.1343 0)
(-3.70073 12.5251 0)
(9.41246 8.67327 0)
(8.49141 9.57992 0)
(7.04108 9.68348 0)
(5.57815 9.45287 0)
(4.38429 9.64291 0)
(3.25108 9.45086 0)
(2.18716 9.74364 0)
(1.2548 9.81566 0)
(0.462844 9.99179 0)
(-0.371679 10.071 0)
(-1.14617 10.3912 0)
(-1.79296 10.5676 0)
(-2.35871 10.8446 0)
(-2.82598 11.0822 0)
(-3.15563 11.3738 0)
(-3.3944 11.6827 0)
(-3.51803 11.9969 0)
(-3.3349 12.2279 0)
(9.28058 9.22262 0)
(8.24683 10.4984 0)
(7.04865 10.3523 0)
(5.77327 10.2893 0)
(4.62007 10.3531 0)
(3.51414 10.3104 0)
(2.41198 10.4404 0)
(1.40758 10.5563 0)
(0.585712 10.6398 0)
(-0.238872 10.7183 0)
(-0.978411 10.8846 0)
(-1.59237 10.9825 0)
(-2.12382 11.1605 0)
(-2.55654 11.3076 0)
(-2.88987 11.4872 0)
(-3.15025 11.6724 0)
(-3.31369 11.8581 0)
(-3.24525 11.9744 0)
(9.37579 9.41885 0)
(8.23634 10.8551 0)
(7.08405 10.6745 0)
(5.8163 10.7343 0)
(4.65824 10.779 0)
(3.57952 10.7759 0)
(2.5106 10.815 0)
(1.56296 10.8524 0)
(0.723705 10.8908 0)
(-0.0627661 10.936 0)
(-0.739881 11.0199 0)
(-1.35907 11.074 0)
(-1.91148 11.1779 0)
(-2.35568 11.2475 0)
(-2.7103 11.3414 0)
(-2.99626 11.4167 0)
(-3.21674 11.4869 0)
(-3.25307 11.5284 0)
(9.61068 9.49005 0)
(8.2215 11.0424 0)
(6.96677 10.865 0)
(5.71556 10.8993 0)
(4.61989 10.9301 0)
(3.62124 10.9233 0)
(2.66754 10.9091 0)
(1.7774 10.8666 0)
(0.934723 10.8595 0)
(0.16928 10.8594 0)
(-0.550772 10.8734 0)
(-1.20177 10.88 0)
(-1.76417 10.8874 0)
(-2.23865 10.9002 0)
(-2.62992 10.8991 0)
(-2.94389 10.8762 0)
(-3.18834 10.8428 0)
(-3.29477 10.8027 0)
(9.26775 8.98407 0)
(8.0521 10.592 0)
(6.9009 10.4316 0)
(5.741 10.3748 0)
(4.68381 10.3009 0)
(3.6962 10.255 0)
(2.78657 10.2462 0)
(1.894 10.246 0)
(1.07788 10.2779 0)
(0.360324 10.276 0)
(-0.358079 10.2669 0)
(-0.998329 10.2402 0)
(-1.54609 10.189 0)
(-2.02872 10.1423 0)
(-2.46751 10.1009 0)
(-2.82843 10.0384 0)
(-3.13728 9.969 0)
(-3.33511 9.90699 0)
(9.38849 8.19233 0)
(8.11271 9.77558 0)
(6.92716 9.64314 0)
(5.72397 9.60245 0)
(4.57857 9.56741 0)
(3.54208 9.52241 0)
(2.57239 9.50617 0)
(1.67112 9.46912 0)
(0.871124 9.43464 0)
(0.161601 9.39155 0)
(-0.512076 9.34984 0)
(-1.12333 9.32978 0)
(-1.66781 9.31391 0)
(-2.11985 9.2608 0)
(-2.55733 9.22285 0)
(-2.94668 9.14854 0)
(-3.26171 9.05697 0)
(-3.48952 8.96098 0)
(9.39936 7.46748 0)
(8.15976 8.76102 0)
(7.04186 8.66557 0)
(5.89812 8.64685 0)
(4.76801 8.60176 0)
(3.75485 8.51565 0)
(2.78185 8.4569 0)
(1.91237 8.40144 0)
(1.0918 8.35554 0)
(0.33022 8.29792 0)
(-0.361799 8.21328 0)
(-1.05026 8.16003 0)
(-1.64683 8.11445 0)
(-2.15463 8.06085 0)
(-2.6176 8.02825 0)
(-2.99548 7.99386 0)
(-3.34725 7.94894 0)
(-3.57383 7.88397 0)
(9.30964 6.53253 0)
(7.97134 7.61667 0)
(6.86396 7.4915 0)
(5.83176 7.48215 0)
(4.86106 7.4391 0)
(3.89041 7.37521 0)
(2.93133 7.3268 0)
(2.04109 7.26497 0)
(1.16665 7.27468 0)
(0.401595 7.23792 0)
(-0.32743 7.21134 0)
(-1.01055 7.18119 0)
(-1.62635 7.12114 0)
(-2.18444 7.0793 0)
(-2.64705 6.99764 0)
(-3.05812 6.92517 0)
(-3.42193 6.8392 0)
(-3.65933 6.75746 0)
(9.23538 5.61855 0)
(8.04475 6.43255 0)
(6.94439 6.26596 0)
(5.88083 6.21723 0)
(4.86913 6.20506 0)
(3.87083 6.20086 0)
(2.89953 6.18808 0)
(2.01015 6.16214 0)
(1.15781 6.1379 0)
(0.429404 6.08448 0)
(-0.272961 6.05558 0)
(-0.901424 6.00729 0)
(-1.46528 5.94901 0)
(-2.00165 5.90074 0)
(-2.43779 5.85394 0)
(-2.86167 5.78804 0)
(-3.18643 5.71734 0)
(-3.45783 5.64326 0)
(9.21983 4.65482 0)
(8.01328 5.28658 0)
(6.88825 5.11059 0)
(5.81402 5.07066 0)
(4.78939 5.04384 0)
(3.79454 5.04256 0)
(2.84414 5.01889 0)
(1.96652 5.00932 0)
(1.1707 4.98734 0)
(0.478096 4.97095 0)
(-0.207354 4.96729 0)
(-0.828861 4.93838 0)
(-1.42343 4.91792 0)
(-1.94406 4.86192 0)
(-2.39162 4.80684 0)
(-2.83043 4.76185 0)
(-3.15706 4.69515 0)
(-3.45945 4.63841 0)
(9.25282 3.65961 0)
(8.13738 4.12593 0)
(7.18534 4.0035 0)
(6.17085 3.97551 0)
(5.15417 3.97239 0)
(4.11243 3.96053 0)
(3.13749 3.94278 0)
(2.24648 3.90947 0)
(1.43021 3.8778 0)
(0.695824 3.86541 0)
(-0.0187736 3.86165 0)
(-0.665374 3.85761 0)
(-1.27073 3.86526 0)
(-1.81311 3.84117 0)
(-2.26231 3.81051 0)
(-2.67423 3.75359 0)
(-3.00463 3.69159 0)
(-3.28956 3.64179 0)
(9.18482 2.77717 0)
(8.08369 3.01167 0)
(7.24453 2.87621 0)
(6.36276 2.8895 0)
(5.45032 2.92374 0)
(4.4734 2.93924 0)
(3.50334 2.94552 0)
(2.57126 2.91433 0)
(1.68396 2.91949 0)
(0.862151 2.92832 0)
(0.0687074 2.94351 0)
(-0.631295 2.9637 0)
(-1.26705 2.93951 0)
(-1.82113 2.92333 0)
(-2.29161 2.88766 0)
(-2.72658 2.83489 0)
(-3.06328 2.78172 0)
(-3.37056 2.73442 0)
(9.16612 1.89295 0)
(8.43615 1.93968 0)
(7.69439 1.8375 0)
(6.70702 1.87392 0)
(5.64735 1.92704 0)
(4.53379 1.97772 0)
(3.47791 2.00121 0)
(2.45816 2.01207 0)
(1.48152 2.02189 0)
(0.564832 2.05424 0)
(-0.286841 2.08188 0)
(-1.07094 2.09953 0)
(-1.77922 2.08833 0)
(-2.40799 2.0781 0)
(-2.94799 2.0464 0)
(-3.46441 2.01892 0)
(-3.90398 1.98879 0)
(-4.30323 1.94947 0)
(9.37945 1.00828 0)
(8.61163 0.904078 0)
(7.69835 0.962008 0)
(6.45154 1.09076 0)
(5.10358 1.19507 0)
(3.69369 1.23915 0)
(2.32693 1.26731 0)
(0.992213 1.30638 0)
(-0.246775 1.34192 0)
(-1.36764 1.38479 0)
(-2.38604 1.41046 0)
(-3.30867 1.41011 0)
(-4.12186 1.40418 0)
(-4.85687 1.39729 0)
(-5.51092 1.37938 0)
(-6.13287 1.36944 0)
(-6.65644 1.35519 0)
(-7.13422 1.34738 0)
(9.31982 0.0592443 0)
(7.95467 -0.00640758 0)
(6.12006 0.184545 0)
(4.07191 0.387689 0)
(2.13372 0.587083 0)
(0.326763 0.710264 0)
(-1.29642 0.795597 0)
(-2.76803 0.839746 0)
(-4.04775 0.857784 0)
(-5.19889 0.854425 0)
(-6.2267 0.856902 0)
(-7.139 0.858558 0)
(-7.95152 0.852006 0)
(-8.68676 0.842574 0)
(-9.3427 0.831472 0)
(-9.92872 0.826121 0)
(-10.4165 0.800045 0)
(-10.8519 0.78549 0)
(7.76753 -0.29131 0)
(4.02852 -0.0887393 0)
(1.02902 0.178117 0)
(-1.27538 0.287896 0)
(-3.01775 0.334225 0)
(-4.43334 0.335061 0)
(-5.63382 0.324052 0)
(-6.72464 0.311095 0)
(-7.71821 0.303519 0)
(-8.65104 0.294312 0)
(-9.50615 0.296833 0)
(-10.2789 0.296137 0)
(-10.9792 0.291211 0)
(-11.613 0.286967 0)
(-12.1803 0.283603 0)
(-12.6868 0.278804 0)
(-13.1165 0.260856 0)
(-13.5639 0.269961 0)
(0.125014 0.413603 0)
(0.591076 0.176392 0)
(1.34409 -0.0715119 0)
(2.26664 -0.255906 0)
(3.27363 -0.327271 0)
(4.32013 -0.29331 0)
(5.32621 -0.215295 1.09665e-17)
(6.25879 -0.119204 -1.08587e-17)
(7.12292 -0.0260001 0)
(7.89864 0.0434472 -1.06501e-17)
(8.60582 0.129252 0)
(9.23915 0.252654 0)
(9.73283 0.366047 0)
(10.1204 0.491309 1.02709e-17)
(10.4065 0.568174 0)
(10.5834 0.64382 0)
(10.6874 0.729106 -1.00492e-17)
(10.7673 0.7421 0)
(10.8443 0.740456 0)
(10.9152 0.768025 0)
(11.0436 0.681097 9.84117e-18)
(11.2723 0.501447 0)
(11.5417 0.430068 9.84929e-18)
(11.5972 0.495152 0)
(11.4944 0.57305 0)
(11.6138 0.50476 9.6523e-18)
(12.067 0.335093 0)
(12.7752 0.133129 -9.51639e-18)
(13.5079 -0.232769 0)
(14.0687 -0.642873 9.5348e-18)
(14.5053 -0.83762 0)
(14.8658 -0.74462 0)
(15.049 -0.455155 0)
(15.0176 -0.0952825 0)
(14.7963 0.232482 0)
(14.4524 0.47065 -9.40284e-18)
(14.0369 0.590356 0)
(13.5964 0.609968 1.85632e-17)
(13.1668 0.572945 0)
(12.7832 0.514625 -1.83032e-17)
(12.4321 0.446058 0)
(12.1097 0.385554 0)
(11.8195 0.3365 1.79104e-17)
(11.5579 0.292127 0)
(11.3287 0.260234 1.76566e-17)
(11.1218 0.225571 -1.75313e-17)
(10.9378 0.187015 0)
(10.7848 0.164548 -1.72824e-17)
(10.6526 0.143329 -1.71587e-17)
(10.5408 0.117577 0)
(10.455 0.0909488 0)
(10.3915 0.0707369 0)
(10.3626 0.0540365 0)
(10.3935 0.0334311 0)
(10.4655 -0.00137364 1.64277e-17)
(10.5959 -0.0422309 0)
(10.7849 -0.0867864 -1.61902e-17)
(11.0206 -0.12277 0)
(11.3169 -0.162972 0)
(11.6595 -0.202923 1.58398e-17)
(12.0373 -0.221471 0)
(12.4442 -0.245558 -1.56086e-17)
(12.8511 -0.261159 0)
(13.219 -0.24382 0)
(13.5548 -0.221432 0)
(13.8724 -0.216826 1.5149e-17)
(14.1663 -0.203204 0)
(14.4306 -0.20034 0)
(14.6894 -0.208367 1.48002e-17)
(14.9436 -0.216378 0)
(15.1851 -0.223284 1.45689e-17)
(15.4086 -0.225598 0)
(15.5811 -0.225227 0)
(15.6687 -0.206066 0)
(15.6813 -0.194607 -1.41298e-17)
(15.6419 -0.208162 0)
(15.5861 -0.226821 0)
(15.5435 -0.254386 -1.37905e-17)
(15.4795 -0.272127 -1.36802e-17)
(15.3368 -0.306764 0)
(15.1404 -0.325327 -1.34528e-17)
(14.9595 -0.35828 0)
(14.779 -0.419167 -2.64365e-17)
(14.5738 -0.471666 0)
(14.3602 -0.512072 -2.59954e-17)
(14.0982 -0.523451 0)
(13.7487 -0.513456 2.55674e-17)
(13.2704 -0.492549 0)
(12.5787 -0.459844 0)
(11.6722 -0.379721 0)
(10.6081 -0.261736 -2.45395e-17)
(9.42744 -0.261385 0)
(8.37218 -0.366448 2.39047e-17)
(7.67161 -0.520826 0)
(7.24354 -0.595633 -2.35883e-17)
(6.65824 -0.566902 -2.34225e-17)
(5.88602 -0.6013 -2.30935e-17)
(5.38403 -0.68711 0)
(4.96896 -0.762701 0)
(4.35771 -0.622651 0)
(3.50231 -0.335195 0)
(2.7266 -0.268548 0)
(2.34611 -0.674803 0)
(2.35812 -1.23752 0)
(2.285 -1.73693 0)
(1.5826 -1.63309 2.19652e-17)
(-0.462508 -0.172045 2.2039e-17)
(-3.91304 0.782075 0)
(-6.4976 0.487817 0)
(-8.10929 0.145871 0)
(-9.12451 -0.0938521 2.20898e-17)
(-9.2311 -0.465663 0)
(-8.58797 -0.824433 0)
(-7.25235 -1.09599 0)
(-5.40238 -1.25499 0)
(-3.44207 -1.22998 -2.13932e-17)
(-1.89166 -1.05965 0)
(-0.460547 -0.958831 0)
(-0.060688 -0.902783 2.09479e-17)
(1.30011 -0.911296 -2.09294e-17)
(2.50302 -1.31508 0)
(5.33445 -1.7188 -2.0296e-17)
(8.90438 -1.40775 0)
(10.8334 -0.63677 2.02634e-17)
(11.2673 -0.877566 0)
(12.593 -0.906668 0)
(13.5667 -0.838549 0)
(14.214 -0.685731 0)
(14.3689 -0.715741 0)
(14.4212 -0.832987 -3.79075e-17)
(14.6411 -1.00001 -3.76048e-17)
(15.1038 -1.10389 0)
(15.6751 -1.17508 0)
(16.3774 -1.2373 0)
(16.8871 -1.22144 3.62094e-17)
(17.3374 -1.20181 0)
(17.5789 -1.2329 0)
(17.6611 -1.21799 0)
(17.8298 -1.16436 3.47862e-17)
(17.8912 -1.14796 -3.45255e-17)
(17.7549 -1.11682 0)
(17.3549 -1.05289 0)
(16.9589 -1.03906 -3.36511e-17)
(16.4277 -0.94945 -3.33803e-17)
(15.7494 -0.915327 0)
(15.4439 -0.953574 0)
(14.8294 -0.903697 3.25888e-17)
(14.1255 -0.958669 -3.22203e-17)
(13.7281 -0.924575 0)
(13.0332 -0.876578 0)
(12.2597 -0.924359 -3.12959e-17)
(11.6307 -0.914147 0)
(10.7735 -0.779601 0)
(9.63828 -0.699989 -3.00722e-17)
(8.55405 -0.659103 0)
(7.68139 -0.725259 -2.93858e-17)
(6.36039 -0.711241 0)
(5.09685 -0.792117 0)
(4.05701 -0.795757 0)
(2.24022 -0.49214 2.83619e-17)
(-0.975261 -0.115186 0)
(-4.17179 -0.240812 0)
(-6.42851 -0.656675 0)
(-7.83959 -0.950554 0)
(-8.52119 -1.12569 0)
(-8.85945 -1.1906 0)
(-9.19498 -1.14009 2.89008e-17)
(-9.81103 -1.15051 2.90391e-17)
(-10.6731 -1.0873 0)
(-12.5875 -0.81644 0)
(-15.8302 -0.502607 0)
(-18.2902 -0.49557 -2.92349e-17)
(-19.7316 -0.744088 0)
(-20.7009 -0.853501 5.82579e-17)
(-21.4742 -0.741242 -5.80135e-17)
(-23.0899 -0.742383 -5.73284e-17)
(-24.3097 -0.854301 5.72798e-17)
(-22.2517 -1.18422 -5.72346e-17)
(-20.1335 -1.16729 5.712e-17)
(-18.4783 -1.12797 0)
(0.148164 1.07985 0)
(0.779324 0.311886 0)
(1.65854 -0.432427 -2.3057e-17)
(2.62717 -0.872258 0)
(3.59506 -1.04156 2.23954e-17)
(4.5719 -0.975349 2.21115e-17)
(5.52392 -0.799159 1.09412e-17)
(6.42315 -0.574265 1.08372e-17)
(7.28879 -0.31464 0)
(8.09079 -0.0680441 1.06336e-17)
(8.82369 0.116468 0)
(9.48316 0.406245 0)
(10.0571 0.784812 -2.06797e-17)
(10.4967 1.01552 -1.02178e-17)
(10.8517 1.31318 2.02185e-17)
(11.138 1.57151 2.00585e-17)
(11.3559 1.56114 9.91071e-18)
(11.4456 1.61475 0)
(11.4992 1.59618 0)
(11.6069 1.3381 0)
(11.539 1.08795 9.58918e-18)
(11.5121 1.04628 0)
(11.7666 1.21687 -2.84276e-17)
(12.3515 1.6248 0)
(13.2298 1.74988 0)
(13.9867 0.784265 -9.61165e-18)
(14.1777 -0.606957 0)
(14.1743 -0.872616 8.99325e-18)
(14.1078 -0.124894 1.83942e-17)
(13.5145 0.624542 -9.49229e-18)
(12.6379 1.13746 0)
(11.8181 1.53003 0)
(11.0222 1.79269 0)
(10.3126 1.93353 1.90815e-17)
(9.72281 1.96697 1.8938e-17)
(9.22943 1.92404 9.3935e-18)
(8.81735 1.8277 0)
(8.43611 1.69708 -1.85108e-17)
(8.10568 1.55628 0)
(7.81009 1.39899 1.82518e-17)
(7.5462 1.2344 0)
(7.33284 1.08779 0)
(7.13207 0.937568 -1.78726e-17)
(6.98424 0.792684 0)
(6.88316 0.653762 -5.28698e-17)
(6.81137 0.528516 1.74946e-17)
(6.77909 0.399418 0)
(6.75744 0.27731 1.7243e-17)
(6.76227 0.167285 1.71187e-17)
(6.81445 0.0638194 0)
(6.88649 -0.0488474 0)
(7.00312 -0.155704 0)
(7.16157 -0.271478 0)
(7.36906 -0.392645 0)
(7.62428 -0.533434 -1.64074e-17)
(7.95241 -0.663799 -3.25983e-17)
(8.33218 -0.7943 1.61758e-17)
(8.74397 -0.895797 0)
(9.21077 -0.994335 -3.18866e-17)
(9.73222 -1.06914 1.58287e-17)
(10.2558 -1.11487 0)
(10.7864 -1.13192 1.55602e-17)
(11.3225 -1.09238 0)
(11.7743 -0.970455 0)
(12.1748 -0.920544 3.03479e-17)
(12.5526 -0.910348 -1.50345e-17)
(12.8612 -0.841243 2.98169e-17)
(13.142 -0.822946 -2.95541e-17)
(13.4631 -0.845603 -1.46352e-17)
(13.7685 -0.844722 0)
(14.0667 -0.866431 -1.43597e-17)
(14.3408 -0.843044 0)
(14.5874 -0.762245 0)
(14.712 -0.663887 0)
(14.6879 -0.623957 -1.38569e-17)
(14.6498 -0.695841 0)
(14.6697 -0.833462 -2.72811e-17)
(14.7454 -0.950178 4.05462e-17)
(14.7638 -0.955539 1.33717e-17)
(14.674 -0.987884 0)
(14.5511 -1.04278 1.31096e-17)
(14.4533 -1.20598 0)
(14.4024 -1.40724 2.57599e-17)
(14.3136 -1.54414 0)
(14.1545 -1.61918 2.52664e-17)
(13.8891 -1.64445 -4.98393e-17)
(13.4468 -1.63108 -2.45557e-17)
(12.8688 -1.45994 0)
(12.1009 -1.2309 0)
(11.1692 -1.03535 0)
(10.14 -1.0417 2.34337e-17)
(9.08039 -1.33032 0)
(8.13223 -1.75957 -2.29677e-17)
(7.50986 -2.22865 0)
(7.24925 -2.38283 6.82606e-17)
(6.94239 -2.0704 2.25118e-17)
(6.36797 -2.11062 2.20674e-17)
(6.0854 -2.41111 0)
(5.88234 -2.24201 0)
(5.5169 -1.79546 0)
(5.08622 -1.98686 0)
(4.83722 -2.46027 0)
(4.28816 -2.70984 4.00393e-17)
(2.46619 -2.41509 4.16446e-17)
(-1.07576 -0.933767 0)
(-5.19432 0.919947 -2.28173e-17)
(-7.98341 1.42007 -2.27255e-17)
(-9.79064 0.835307 0)
(-10.786 -0.0641699 -4.44686e-17)
(-11.3921 -1.00496 0)
(-11.3789 -1.92634 2.17458e-17)
(-10.9094 -2.8142 0)
(-9.97127 -3.53597 0)
(-8.50836 -4.17939 -4.31929e-17)
(-6.62744 -4.49884 0)
(-4.91408 -4.27553 2.10305e-17)
(-3.68192 -3.70627 0)
(-2.48929 -2.86217 0)
(-2.68764 -2.84598 2.01671e-17)
(-1.46263 -3.04996 2.01471e-17)
(-0.306583 -3.93652 0)
(3.38138 -5.444 -1.99693e-17)
(7.21526 -5.00502 0)
(10.3622 -3.06239 1.98957e-17)
(11.0915 -3.433 3.96668e-17)
(13.4414 -3.10981 0)
(14.9036 -3.05389 0)
(16.2288 -2.83022 0)
(17.33 -2.53863 0)
(17.7852 -2.59689 3.75622e-17)
(17.8071 -2.98614 1.11644e-16)
(18.1425 -3.34435 0)
(18.4583 -3.6036 0)
(18.9609 -3.75658 0)
(19.3369 -3.76768 -3.47603e-17)
(19.7495 -3.76236 0)
(19.8688 -3.64097 0)
(19.5919 -3.81748 6.62516e-17)
(19.4474 -3.90675 3.26194e-17)
(19.6539 -3.88283 3.22036e-17)
(19.9151 -3.72216 0)
(19.5923 -3.51484 0)
(19.2081 -3.49919 3.12701e-17)
(18.8385 -3.30246 -3.10342e-17)
(18.1837 -3.27358 0)
(18.3693 -3.3302 0)
(18.209 -2.9776 -3.02287e-17)
(17.5238 -3.02897 8.97484e-17)
(17.5719 -3.00343 0)
(17.03 -2.72784 0)
(15.9713 -2.66282 2.9078e-17)
(15.0682 -2.6768 0)
(13.7513 -2.55846 5.6462e-17)
(12.0536 -2.62647 -2.76329e-17)
(10.7074 -2.85654 0)
(9.9221 -2.94595 2.62267e-17)
(8.58883 -2.77166 5.17189e-17)
(7.52695 -2.92685 0)
(6.73189 -2.8526 0)
(4.65146 -2.05766 -2.52059e-17)
(1.45187 -1.49221 0)
(-0.989145 -1.92176 4.55673e-17)
(-2.8469 -2.59472 0)
(-4.48349 -3.19652 0)
(-5.69633 -3.59285 0)
(-6.7623 -3.6181 0)
(-8.2454 -3.35487 -2.72413e-17)
(-10.2219 -3.04009 -2.78817e-17)
(-12.8544 -2.37514 0)
(-16.9311 -1.36674 0)
(-20.3966 -1.3779 0)
(-21.3607 -2.1298 2.85546e-17)
(-23.0445 -2.6322 0)
(-23.7175 -2.97855 -5.78726e-17)
(-23.4518 -2.38331 5.69851e-17)
(-24.4887 -2.3229 5.56098e-17)
(-26.8239 -3.42892 5.62524e-17)
(-22.1186 -5.00556 5.63996e-17)
(-20.004 -4.26425 5.63098e-17)
(-16.8519 -3.69373 0)
(0.202063 1.45806 0)
(1.0652 0.0763138 0)
(2.01018 -0.98891 2.30802e-17)
(2.94511 -1.40894 2.26166e-17)
(3.79451 -1.47834 -2.22729e-17)
(4.62908 -1.34629 -2.20382e-17)
(5.44549 -1.10459 -7.02542e-22)
(6.23389 -0.824488 0)
(7.02133 -0.491746 0)
(7.79145 -0.116389 0)
(8.52914 0.250929 0)
(9.19031 0.652665 0)
(9.81534 1.17102 6.28962e-17)
(10.3442 1.74146 0)
(10.7666 2.15677 -2.05786e-17)
(11.1368 2.47073 -2.03495e-17)
(11.271 2.87503 0)
(11.2263 3.09533 0)
(11.2076 2.97671 0)
(11.2153 3.04882 0)
(11.3295 3.20755 -1.95473e-17)
(11.5018 2.57098 0)
(11.6691 1.20722 1.89867e-17)
(12.0721 -0.0536983 0)
(12.5773 -0.275768 0)
(12.4926 0.744803 0)
(11.5658 2.03272 3.87298e-17)
(10.4041 2.70815 0)
(9.42218 3.02259 -1.95984e-17)
(8.60298 3.22095 3.92411e-17)
(7.9794 3.30235 0)
(7.48138 3.3076 0)
(7.08138 3.25854 0)
(6.73481 3.17428 -1.91067e-17)
(6.43541 3.04654 -1.89599e-17)
(6.2096 2.89092 0)
(6.05082 2.70392 0)
(5.93543 2.47213 3.71276e-17)
(5.84908 2.2147 3.68706e-17)
(5.79102 1.95194 -3.66202e-17)
(5.75338 1.68304 0)
(5.74793 1.42455 0)
(5.76517 1.1781 0)
(5.79032 0.941018 0)
(5.86318 0.729246 3.53332e-17)
(5.91223 0.51789 3.50998e-17)
(5.98293 0.318884 -3.48551e-17)
(6.11967 0.139738 0)
(6.25863 -0.0228465 0)
(6.39419 -0.189563 0)
(6.56624 -0.346095 0)
(6.7736 -0.516745 3.37805e-17)
(7.01829 -0.710515 0)
(7.28665 -0.905892 0)
(7.58841 -1.11118 3.31568e-17)
(7.94707 -1.31112 3.29196e-17)
(8.33372 -1.51096 0)
(8.75576 -1.67903 -6.49675e-17)
(9.2295 -1.81934 3.22147e-17)
(9.76045 -1.92482 -3.19666e-17)
(10.2899 -1.9864 0)
(10.8137 -1.9639 0)
(11.3861 -1.88092 0)
(11.8848 -1.64553 0)
(12.3824 -1.55117 -3.05824e-17)
(12.8198 -1.48905 -6.06999e-17)
(13.0785 -1.33222 -3.0039e-17)
(13.331 -1.33676 2.98003e-17)
(13.5645 -1.43144 0)
(13.749 -1.43419 -5.86272e-17)
(13.9999 -1.52031 -5.80541e-17)
(14.2397 -1.497 -5.73457e-17)
(14.503 -1.33714 5.65568e-17)
(14.6934 -1.19209 0)
(14.7265 -1.06865 8.31404e-17)
(14.7521 -1.24452 0)
(14.7551 -1.55329 -2.76743e-17)
(14.8184 -1.75079 -2.73681e-17)
(14.8552 -1.70269 0)
(14.8285 -1.75469 0)
(14.7016 -1.93487 -5.29333e-17)
(14.692 -2.26114 0)
(14.766 -2.59539 -5.25288e-17)
(14.7868 -2.73869 0)
(14.7305 -2.76316 5.1903e-17)
(14.5963 -2.60724 1.02179e-16)
(14.3131 -2.40687 0)
(13.7085 -2.22083 0)
(12.9731 -2.12731 0)
(12.1922 -1.93531 4.698e-17)
(11.4073 -1.88732 0)
(10.6011 -2.16911 4.65724e-17)
(9.60215 -2.72291 0)
(8.62521 -3.56403 0)
(7.74966 -4.12805 -9.3617e-17)
(7.38891 -3.90596 0)
(7.25585 -3.80713 -4.52162e-17)
(7.08129 -4.20372 0)
(6.80547 -4.27221 -4.30621e-17)
(6.49613 -4.00749 0)
(5.5952 -3.75628 0)
(3.54737 -3.11635 0)
(0.421143 -1.82727 -1.29696e-16)
(-3.31294 -0.207684 -4.52905e-17)
(-6.82594 0.899703 0)
(-9.31437 1.21111 0)
(-10.4967 0.722919 0)
(-11.0097 -0.31663 0)
(-11.2089 -1.40179 4.36681e-17)
(-11.2803 -2.47058 -8.69289e-17)
(-11.1646 -3.50792 -4.32306e-17)
(-10.9007 -4.58997 8.67466e-17)
(-10.3604 -5.59324 8.69987e-17)
(-9.27887 -6.58691 4.30288e-17)
(-8.08271 -6.93259 0)
(-7.25149 -6.28647 8.14071e-17)
(-6.98764 -5.13386 0)
(-6.95654 -3.89389 -7.82618e-17)
(-7.00409 -3.86011 -3.88976e-17)
(-6.20258 -4.82645 0)
(-3.33917 -7.56286 8.29705e-17)
(1.54193 -10.2467 4.25917e-17)
(4.66643 -8.79775 0)
(8.09828 -5.28696 3.96466e-17)
(8.66119 -6.32667 -1.16892e-16)
(12.2996 -5.92729 0)
(13.9475 -5.66914 0)
(15.542 -5.4145 0)
(17.2826 -4.92243 0)
(18.5689 -4.60863 -7.46563e-17)
(19.2679 -4.79605 -7.53426e-17)
(19.7004 -5.26811 0)
(19.8587 -5.74275 0)
(20.2821 -6.07054 0)
(20.4639 -6.12527 0)
(20.8158 -6.32786 0)
(21.1519 -5.87162 0)
(20.7308 -5.91132 -6.5525e-17)
(20.1419 -6.26443 9.73805e-20)
(20.2449 -6.44807 0)
(20.8279 -6.29794 0)
(20.5848 -5.81963 -6.24343e-17)
(20.187 -5.78331 0)
(19.8829 -5.40252 6.13246e-17)
(19.0056 -5.61133 6.12241e-17)
(19.2909 -5.95651 0)
(19.6468 -5.21478 0)
(18.7851 -5.17581 -5.92247e-17)
(19.2457 -5.33056 -1.17373e-16)
(19.489 -4.63895 0)
(18.7007 -4.34996 0)
(18.0961 -4.4032 0)
(17.0546 -3.94365 -5.49758e-17)
(15.1365 -3.71194 5.41216e-17)
(13.3739 -4.23151 0)
(12.2504 -4.61792 1.03443e-16)
(10.3964 -4.49979 5.0085e-17)
(9.01222 -4.90714 -9.76135e-17)
(8.38179 -4.64873 0)
(6.62277 -3.24922 0)
(3.66379 -2.57443 -8.90407e-17)
(1.29983 -3.11898 -4.21113e-17)
(-0.79167 -3.99164 0)
(-2.87556 -4.6818 0)
(-4.81072 -5.19487 0)
(-6.92005 -5.14516 0)
(-9.59164 -4.60502 -1.09679e-16)
(-12.781 -3.84584 0)
(-16.3312 -2.68176 0)
(-19.8808 -2.04055 0)
(-21.1177 -3.18044 0)
(-22.0092 -3.91882 0)
(-25.0407 -4.26658 0)
(-25.1107 -5.44772 -1.15794e-16)
(-25.5382 -4.58378 0)
(-23.6374 -3.80563 0)
(-26.6934 -5.94839 -2.20148e-16)
(-22.0827 -8.86105 1.12473e-16)
(-21.7113 -7.6389 -1.12066e-16)
(-16.29 -6.52403 1.12532e-16)
(0.28482 1.49788 0)
(1.253 -0.489425 -4.68537e-17)
(2.06727 -1.51145 0)
(2.80643 -1.68771 -2.23982e-17)
(3.47618 -1.59418 0)
(4.15608 -1.38813 0)
(4.81343 -1.12883 2.22844e-17)
(5.47995 -0.824955 0)
(6.20485 -0.494014 0)
(6.93167 -0.154392 0)
(7.70662 0.227941 0)
(8.44692 0.710422 0)
(9.14688 1.29114 -8.54682e-17)
(9.76019 1.87207 -4.22559e-17)
(10.2725 2.46668 4.18421e-17)
(10.6895 3.11861 0)
(10.9389 3.84718 0)
(11.1299 4.19632 0)
(11.3555 4.16153 0)
(11.5379 3.99732 0)
(11.4848 3.29633 -3.92427e-17)
(11.3279 2.43046 -3.78009e-17)
(10.9751 2.40533 3.8474e-17)
(9.91982 2.9281 -3.9816e-17)
(8.74601 3.5273 0)
(8.00367 4.14188 0)
(7.37715 4.51785 -4.00368e-17)
(6.89144 4.66615 0)
(6.48121 4.72063 0)
(6.12363 4.71616 -3.93736e-17)
(5.83538 4.64366 -3.90097e-17)
(5.63715 4.50731 -3.86376e-17)
(5.51708 4.32582 0)
(5.43092 4.09936 0)
(5.37639 3.83385 3.77607e-17)
(5.36514 3.54283 0)
(5.37678 3.22144 0)
(5.42544 2.89417 -3.70159e-17)
(5.49958 2.55857 3.67882e-17)
(5.6025 2.23156 -3.65477e-17)
(5.69745 1.89938 0)
(5.79423 1.5635 0)
(5.91875 1.24581 -7.1596e-17)
(6.04109 0.937069 0)
(6.18255 0.657021 -7.06897e-17)
(6.35123 0.403362 -1.05402e-16)
(6.54683 0.179049 1.04814e-16)
(6.73276 -0.0558611 -6.95048e-17)
(6.92469 -0.2872 0)
(7.12015 -0.507648 0)
(7.37133 -0.750764 -6.84321e-17)
(7.61561 -0.967712 -3.40067e-17)
(7.85894 -1.20349 0)
(8.13733 -1.44739 0)
(8.41349 -1.69992 -3.33762e-17)
(8.70224 -1.98005 -6.63674e-17)
(9.00317 -2.26022 0)
(9.33517 -2.4901 6.53613e-17)
(9.72811 -2.69875 -6.49524e-17)
(10.1665 -2.83552 6.44794e-17)
(10.65 -2.91198 0)
(11.0937 -2.93429 0)
(11.6615 -2.86076 0)
(12.1657 -2.60473 0)
(12.7184 -2.43281 0)
(13.1966 -2.24387 6.11003e-17)
(13.5258 -1.93979 0)
(13.9617 -1.83266 0)
(14.2714 -1.88372 0)
(14.4772 -1.88705 1.18284e-16)
(14.6688 -2.06347 5.88038e-17)
(14.8493 -2.16834 5.82972e-17)
(15.1482 -2.03458 -1.15178e-16)
(15.5026 -1.75254 5.67727e-17)
(15.6061 -1.54506 -5.59686e-17)
(15.6586 -1.7536 0)
(15.5646 -2.28847 5.59899e-17)
(15.4124 -2.59336 0)
(15.3354 -2.52112 0)
(15.4056 -2.53529 0)
(15.3568 -2.72953 1.0826e-16)
(15.299 -3.27745 -5.39577e-17)
(15.1616 -3.77261 -5.39642e-17)
(15.0156 -4.01054 -1.06903e-16)
(14.9082 -4.2321 -1.59308e-16)
(14.9017 -4.21088 -5.25585e-17)
(14.8511 -3.95115 0)
(14.6814 -3.4038 -1.01067e-16)
(14.1831 -3.04533 0)
(13.5062 -2.89739 -1.44463e-16)
(13.0217 -2.94973 0)
(12.5132 -3.16379 -1.40136e-16)
(11.6999 -3.4797 0)
(10.836 -4.205 0)
(9.68554 -5.24947 -4.56806e-17)
(8.81361 -5.79093 0)
(8.48788 -5.96564 4.57622e-17)
(7.88734 -6.23979 8.88509e-17)
(6.74559 -5.79659 4.35939e-17)
(4.84617 -4.47498 8.53869e-17)
(2.21276 -3.10785 -8.52393e-17)
(-0.786289 -1.80219 -8.77538e-17)
(-4.0551 -0.602978 1.81907e-16)
(-7.13934 0.497266 0)
(-9.3408 0.909018 0)
(-10.4477 0.388815 8.94211e-17)
(-10.6062 -0.717019 -8.83631e-17)
(-10.6699 -1.86877 0)
(-10.6861 -2.94723 0)
(-10.8281 -4.03565 8.7378e-17)
(-10.9345 -5.09056 0)
(-10.9823 -6.29726 -7.88234e-20)
(-10.8237 -7.63038 -8.2713e-20)
(-10.3364 -8.68929 8.43079e-17)
(-10.122 -8.74407 0)
(-10.1677 -7.58468 -8.02101e-17)
(-10.1208 -6.03809 0)
(-9.95033 -4.76871 7.7924e-17)
(-9.53213 -5.42116 0)
(-7.61276 -8.33838 0)
(-3.49694 -12.8667 -8.98804e-17)
(0.250994 -14.6323 -8.79859e-17)
(1.47797 -12.3596 0)
(6.2314 -8.09224 -7.57214e-17)
(8.02434 -9.8307 1.53378e-16)
(12.1063 -9.01518 0)
(13.456 -8.34193 0)
(14.4267 -8.22382 0)
(16.0565 -7.80075 0)
(17.9971 -7.42473 7.30267e-17)
(19.3709 -7.57946 -1.48494e-16)
(20.0977 -7.72614 0)
(20.1778 -7.93699 0)
(20.4253 -8.42894 0)
(20.5485 -8.53383 0)
(20.9735 -9.00334 0)
(21.4364 -8.34802 0)
(20.7933 -8.08606 0)
(20.1422 -8.73977 6.58074e-17)
(20.3711 -9.37604 0)
(21.2531 -9.21429 0)
(21.2358 -8.33256 6.34046e-17)
(20.8454 -8.36219 0)
(20.6617 -7.77564 0)
(19.6668 -8.02912 -6.24501e-17)
(19.8927 -8.94664 0)
(20.5932 -7.69382 0)
(19.3736 -7.45582 1.21528e-16)
(19.5432 -8.29341 1.22069e-16)
(20.4272 -7.12116 1.18795e-16)
(20.0786 -6.5462 0)
(19.9989 -6.51107 1.13803e-16)
(19.4643 -5.71146 0)
(17.4315 -5.36155 -1.07643e-16)