/*--------------------------------*- C++ -*----------------------------------*\
| =========                 |                                                 |
| \\      /  F ield         | OpenFOAM: The Open Source CFD Toolbox           |
|  \\    /   O peration     | Version:  dev                                   |
|   \\  /    A nd           | Web:      http://www.openfoam.org               |
|    \\/     M anipulation  |                                                 |
\*---------------------------------------------------------------------------*/
FoamFile
{
    version     2.0;
    format      ascii;
    class       volVectorField;
    object      UMean;
    location    "9.136";
}
// * * * * * * * * * * * * * * * * * * * * * * * * * * * * * * * * * * * * * //

dimensions      [0 1 -1 0 0 0 0];

internalField   nonuniform List<vector> 
12225
(
(7.00367 0.430276 0)
(4.43878 0.19255 0)
(2.55669 0.0311569 0)
(2.51088 -0.0166615 0)
(1.38433 0.0193735 0)
(2.26733 -0.0342865 0)
(0.989383 0.0489922 0)
(2.18259 -0.0591859 0)
(0.797334 0.0716693 0)
(2.29185 -0.0978615 0)
(0.688552 0.0993874 0)
(2.74376 -0.138636 0)
(0.948011 0.102624 0)
(3.39708 -0.172131 0)
(3.53149 -0.168453 0)
(4.69556 0.0499641 0)
(14.8455 -2.43397 0)
(7.11804 5.13359 0)
(9.54625 0.981607 0)
(9.54339 0.860888 0)
(6.6866 0.466289 0)
(7.59045 0.214549 0)
(4.09018 0.140338 0)
(6.84322 0.0107864 0)
(2.66463 0.132681 0)
(6.68943 -0.0903515 0)
(1.82209 0.141859 0)
(7.03953 -0.165095 0)
(1.26009 0.123929 0)
(8.12231 -0.414507 0)
(1.38492 0.252492 0)
(9.95571 -1.44248 0)
(3.43576 0.271897 0)
(12.3884 -4.06829 0)
(10.4304 -1.92781 0)
(7.77499 0.485348 0)
(9.11835 0.763516 0)
(12.1669 0.951408 0)
(8.32921 0.623961 0)
(11.8322 0.443408 0)
(6.22544 0.310327 0)
(11.4132 0.206443 0)
(4.58197 0.221538 0)
(11.3153 -0.0195763 0)
(3.87343 0.192976 0)
(11.377 -0.277943 0)
(4.34991 0.187292 0)
(11.2535 -0.723299 0)
(5.72809 0.176062 0)
(11.091 -1.49199 0)
(7.21473 0.0530165 0)
(12.1184 -3.8667 0)
(6.93315 0.35069 0)
(9.35281 -2.38994 0)
(7.2187 0.524993 0)
(13.9932 0.961041 0)
(7.92949 0.609461 0)
(14.2955 0.553883 0)
(7.474 0.420933 0)
(14.1166 0.271051 0)
(7.17537 0.396742 0)
(13.7387 -0.14519 0)
(7.25637 0.459636 0)
(13.2698 -0.69885 0)
(7.65892 0.576796 0)
(12.8747 -1.42286 0)
(8.26627 0.69939 0)
(12.6514 -2.31348 0)
(9.02262 0.0417802 0)
(11.8879 -3.63725 0)
(8.68395 -1.43204 0)
(8.3641 0.681715 0)
(6.424 0.570021 0)
(14.011 0.56589 0)
(8.47372 0.674474 0)
(13.9581 0.28453 0)
(9.16956 0.636725 0)
(13.6435 -0.00259002 0)
(9.51729 0.657894 0)
(13.2138 -0.388746 0)
(9.59209 0.734435 0)
(12.8128 -0.871395 0)
(9.44552 0.876961 0)
(12.5823 -1.5215 0)
(9.14961 1.08999 0)
(12.57 -2.49002 0)
(8.82699 1.13221 0)
(11.6157 -5.02826 0)
(8.54127 1.26666 0)
(8.72231 0.127875 0)
(7.95689 0.616893 0)
(11.8027 0.152388 0)
(9.50548 0.654724 0)
(11.7392 0.0502738 0)
(10.0884 0.693902 0)
(11.6004 -0.165638 0)
(10.3206 0.725854 0)
(11.4763 -0.457561 0)
(10.3006 0.783074 0)
(11.3897 -0.853704 0)
(10.0328 0.832218 0)
(11.3554 -1.40031 0)
(9.49265 0.801519 0)
(11.4178 -2.13861 0)
(8.80144 0.726274 0)
(10.9973 -3.92035 0)
(7.73393 1.33602 0)
(9.4889 -0.218019 0)
(9.34459 0.812686 0)
(10.4385 -0.265959 0)
(10.141 0.93047 0)
(10.5537 -0.304493 0)
(10.3989 1.01996 0)
(10.5819 -0.502887 0)
(10.5203 1.07553 0)
(10.6255 -0.781256 0)
(10.5637 1.15355 0)
(10.672 -1.15787 0)
(10.5156 1.23541 0)
(10.7004 -1.63595 0)
(10.3671 1.2615 0)
(10.6886 -2.32747 0)
(10.0535 1.27149 0)
(10.3765 -3.95372 0)
(8.29965 2.01882 0)
(9.69717 -0.952113 0)
(9.84929 0.701106 0)
(10.156 -0.325961 0)
(10.4067 0.854978 0)
(10.3899 -0.349858 0)
(10.5804 0.906771 0)
(10.4706 -0.493966 0)
(10.7018 0.892914 0)
(10.5522 -0.686338 0)
(10.8055 0.872722 0)
(10.6441 -0.935334 0)
(10.8812 0.823918 0)
(10.7358 -1.23282 0)
(10.9082 0.671544 0)
(10.7543 -1.67257 0)
(10.7231 0.519934 0)
(10.4931 -2.47375 0)
(8.89408 0.980644 0)
(9.96435 -0.483898 0)
(10.0857 0.802171 0)
(10.0199 -0.583391 0)
(10.5356 1.02138 0)
(10.3108 -0.60446 0)
(10.6753 1.07491 0)
(10.44 -0.724983 0)
(10.7777 1.04813 0)
(10.571 -0.890109 0)
(10.8574 1.00364 0)
(10.7115 -1.11786 0)
(10.899 0.921103 0)
(10.8319 -1.39501 0)
(10.8742 0.734756 0)
(10.8222 -1.76083 0)
(10.6024 0.505694 0)
(10.5207 -2.06864 0)
(9.35046 0.586216 0)
(10.0238 -0.391453 0)
(10.1391 0.6486 0)
(10.0423 -0.511993 0)
(10.5104 0.878022 0)
(10.3335 -0.456508 0)
(10.6215 0.86922 0)
(10.4819 -0.493685 0)
(10.698 0.778264 0)
(10.629 -0.572232 0)
(10.7343 0.657933 0)
(10.7636 -0.695459 0)
(10.718 0.495569 0)
(10.8402 -0.845072 0)
(10.6184 0.2641 0)
(10.7654 -1.03215 0)
(10.2826 0.0702908 0)
(10.4794 -1.05276 0)
(9.62374 0.12406 0)
(10.2069 -0.0329516 0)
(10.141 0.699949 0)
(10.0707 -0.691945 0)
(10.4525 0.902455 0)
(10.2986 -0.618929 0)
(10.5375 0.847571 0)
(10.4303 -0.645545 0)
(10.6033 0.735214 0)
(10.5608 -0.707425 0)
(10.6273 0.586716 0)
(10.6605 -0.791283 0)
(10.6092 0.383054 0)
(10.6813 -0.869256 0)
(10.5269 0.116989 0)
(10.571 -0.922 0)
(10.2916 -0.113864 0)
(10.361 -0.764942 0)
(10.0201 -0.154313 0)
(10.2457 -0.12529 0)
(10.0968 0.468005 0)
(10.1509 -0.49519 0)
(10.3535 0.595737 0)
(10.2934 -0.374681 0)
(10.4202 0.527537 0)
(10.4094 -0.354865 0)
(10.4848 0.418893 0)
(10.524 -0.374277 0)
(10.5131 0.275731 0)
(10.5994 -0.414748 0)
(10.5157 0.0933115 0)
(10.5971 -0.461702 0)
(10.4767 -0.103325 0)
(10.4996 -0.500125 0)
(10.3572 -0.232127 0)
(10.3647 -0.405641 0)
(10.2661 -0.219866 0)
(10.374 -0.110322 0)
(10.05 0.41096 0)
(10.1755 -0.487311 0)
(10.2548 0.437162 0)
(10.2379 -0.367532 0)
(10.3087 0.367332 0)
(10.3306 -0.345607 0)
(10.3792 0.250832 0)
(10.4246 -0.355315 0)
(10.4226 0.0994364 0)
(10.4823 -0.374899 0)
(10.4462 -0.0797456 0)
(10.4818 -0.403426 0)
(10.433 -0.246715 0)
(10.4262 -0.431257 0)
(10.3773 -0.33923 0)
(10.3687 -0.392667 0)
(10.3573 -0.320578 0)
(10.4225 -0.276602 0)
(10.0153 0.199619 0)
(10.1907 -0.285855 0)
(10.1931 0.167317 0)
(10.2052 -0.179335 0)
(10.2293 0.131654 0)
(10.2792 -0.171408 0)
(10.3062 0.0472312 0)
(10.3626 -0.197813 0)
(10.366 -0.0587322 0)
(10.4142 -0.23577 0)
(10.4055 -0.176041 0)
(10.4267 -0.286479 0)
(10.4124 -0.27503 0)
(10.4113 -0.331702 0)
(10.3996 -0.324174 0)
(10.4067 -0.337254 0)
(10.411 -0.316092 0)
(10.4699 -0.304936 0)
(9.99661 0.0971285 0)
(10.1444 -0.185902 0)
(10.1463 0.0216524 0)
(10.15 -0.133689 0)
(10.1621 -0.00864152 0)
(10.2089 -0.14619 0)
(10.2409 -0.0769725 0)
(10.2919 -0.186756 0)
(10.311 -0.159426 0)
(10.3486 -0.237997 0)
(10.3575 -0.244827 0)
(10.3791 -0.298359 0)
(10.3805 -0.316333 0)
(10.3939 -0.350135 0)
(10.396 -0.361086 0)
(10.4186 -0.380272 0)
(10.4239 -0.381143 0)
(10.479 -0.387361 0)
(9.99367 0.0155298 0)
(10.106 -0.0858023 0)
(10.1088 -0.0443135 0)
(10.1138 -0.0932609 0)
(10.1188 -0.0748863 0)
(10.1675 -0.118955 0)
(10.198 -0.120621 0)
(10.2518 -0.163863 0)
(10.274 -0.180607 0)
(10.3154 -0.219204 0)
(10.3279 -0.243984 0)
(10.3598 -0.277881 0)
(10.3659 -0.301405 0)
(10.394 -0.329082 0)
(10.3996 -0.347081 0)
(10.4329 -0.370903 0)
(10.4357 -0.383904 0)
(10.4885 -0.397147 0)
(9.9918 0.00479022 0)
(10.0637 -0.0251307 0)
(10.0567 -0.03489 0)
(10.0678 -0.0664508 0)
(10.0778 -0.0756965 0)
(10.128 -0.0997571 0)
(10.1573 -0.115946 0)
(10.211 -0.14472 0)
(10.2338 -0.169004 0)
(10.2782 -0.199612 0)
(10.292 -0.226617 0)
(10.3301 -0.257103 0)
(10.3385 -0.283399 0)
(10.3732 -0.312147 0)
(10.3789 -0.336913 0)
(10.4153 -0.365661 0)
(10.4147 -0.38819 0)
(10.4636 -0.407631 0)
(9.99154 0.0142102 0)
(10.0467 0.0162143 0)
(10.0398 -0.0105337 0)
(10.0575 -0.0376477 0)
(10.0748 -0.0565085 0)
(10.1255 -0.0778408 0)
(10.1554 -0.0988642 0)
(10.2071 -0.123836 0)
(10.2311 -0.149018 0)
(10.2753 -0.176667 0)
(10.2911 -0.203483 0)
(10.3293 -0.232227 0)
(10.3395 -0.259448 0)
(10.3737 -0.288407 0)
(10.3801 -0.31575 0)
(10.4141 -0.345834 0)
(10.4133 -0.371706 0)
(10.4567 -0.393546 0)
(9.99167 0.0329733 0)
(10.0502 0.0497113 0)
(10.0566 0.00998489 0)
(10.0799 -0.0180351 0)
(10.1007 -0.0402063 0)
(10.1506 -0.0614551 0)
(10.1819 -0.0835977 0)
(10.2316 -0.106408 0)
(10.2562 -0.130562 0)
(10.2984 -0.155537 0)
(10.315 -0.181115 0)
(10.3507 -0.207377 0)
(10.3614 -0.233625 0)
(10.3926 -0.26049 0)
(10.3991 -0.287125 0)
(10.4288 -0.315395 0)
(10.4281 -0.341142 0)
(10.4653 -0.362943 0)
(9.98986 0.0407697 0)
(10.0547 0.0527477 0)
(10.0828 -0.00626417 0)
(10.1167 -0.0406085 0)
(10.1419 -0.0640701 0)
(10.1903 -0.0822338 0)
(10.2223 -0.10208 0)
(10.269 -0.121006 0)
(10.2935 -0.14276 0)
(10.332 -0.164017 0)
(10.3483 -0.187442 0)
(10.3802 -0.210139 0)
(10.3904 -0.234457 0)
(10.4174 -0.257988 0)
(10.4228 -0.28287 0)
(10.4473 -0.307919 0)
(10.4461 -0.332564 0)
(10.4768 -0.352981 0)
(9.99052 0.0316392 0)
(10.0685 0.0220964 0)
(10.1262 -0.0556796 0)
(10.177 -0.0967088 0)
(10.2125 -0.119752 0)
(10.2609 -0.13273 0)
(10.2937 -0.147782 0)
(10.3361 -0.161678 0)
(10.3601 -0.179867 0)
(10.3941 -0.196963 0)
(10.4103 -0.217414 0)
(10.4377 -0.236305 0)
(10.4478 -0.25806 0)
(10.4702 -0.278137 0)
(10.4754 -0.30083 0)
(10.4946 -0.322466 0)
(10.4939 -0.345333 0)
(10.5187 -0.363632 0)
(9.99116 0.00992849 0)
(10.092 -0.0296301 0)
(10.187 -0.120775 0)
(10.2595 -0.162723 0)
(10.3093 -0.181097 0)
(10.359 -0.187146 0)
(10.3929 -0.196039 0)
(10.4304 -0.204384 0)
(10.4542 -0.218136 0)
(10.4837 -0.230782 0)
(10.5001 -0.247648 0)
(10.5233 -0.262688 0)
(10.5337 -0.281408 0)
(10.5517 -0.298107 0)
(10.5572 -0.318176 0)
(10.5719 -0.336523 0)
(10.5723 -0.357114 0)
(10.592 -0.373268 0)
(9.99277 -0.0233088 0)
(10.1275 -0.103527 0)
(10.2671 -0.204862 0)
(10.3665 -0.241545 0)
(10.4319 -0.250778 0)
(10.4835 -0.248378 0)
(10.5183 -0.250902 0)
(10.5517 -0.253713 0)
(10.5753 -0.263002 0)
(10.6012 -0.271371 0)
(10.6181 -0.284709 0)
(10.6378 -0.29634 0)
(10.6487 -0.312163 0)
(10.6631 -0.325932 0)
(10.6691 -0.34348 0)
(10.6801 -0.35894 0)
(10.6813 -0.377263 0)
(10.6968 -0.391427 0)
(9.99048 -0.0715499 0)
(10.1744 -0.201102 0)
(10.3679 -0.305412 0)
(10.5001 -0.327828 0)
(10.5805 -0.322546 0)
(10.6344 -0.310188 0)
(10.669 -0.305581 0)
(10.6997 -0.302583 0)
(10.7227 -0.306732 0)
(10.7461 -0.310622 0)
(10.7625 -0.319955 0)
(10.7794 -0.32811 0)
(10.7895 -0.340657 0)
(10.8006 -0.351445 0)
(10.8055 -0.366051 0)
(10.8124 -0.378624 0)
(10.8122 -0.394194 0)
(10.8222 -0.406161 0)
(9.99201 -0.136329 0)
(10.2447 -0.322957 0)
(10.5027 -0.418964 0)
(10.6712 -0.417602 0)
(10.7627 -0.39416 0)
(10.8175 -0.371102 0)
(10.8494 -0.358947 0)
(10.8772 -0.3506 0)
(10.896 -0.350125 0)
(10.9149 -0.350533 0)
(10.9253 -0.356432 0)
(10.9355 -0.361574 0)
(10.9374 -0.370886 0)
(10.9393 -0.378759 0)
(10.9339 -0.389969 0)
(10.9291 -0.399566 0)
(10.9163 -0.4115 0)
(10.9115 -0.420663 0)
(9.98975 -0.219874 0)
(10.3369 -0.468084 0)
(10.6737 -0.539703 0)
(10.8758 -0.5082 0)
(10.9697 -0.464842 0)
(11.0135 -0.428059 0)
(11.0286 -0.404817 0)
(11.0352 -0.388399 0)
(11.029 -0.381445 0)
(11.0194 -0.377003 0)
(10.9979 -0.378227 0)
(10.9734 -0.379143 0)
(10.9376 -0.383876 0)
(10.8998 -0.387365 0)
(10.8521 -0.393742 0)
(10.8039 -0.399076 0)
(10.7459 -0.405407 0)
(10.6942 -0.410194 0)
(9.98333 -0.332049 0)
(10.4676 -0.642288 0)
(10.8829 -0.66709 0)
(11.0725 -0.602639 0)
(11.103 -0.5372 0)
(11.0583 -0.483134 0)
(10.9743 -0.445001 0)
(10.8731 -0.416249 0)
(10.7576 -0.398044 0)
(10.6349 -0.383311 0)
(10.5033 -0.374937 0)
(10.3664 -0.366386 0)
(10.2239 -0.36251 0)
(10.0771 -0.357067 0)
(9.92824 -0.355927 0)
(9.77661 -0.353342 0)
(9.62537 -0.353053 0)
(9.47538 -0.351223 0)
(10.0025 -0.453657 0)
(10.619 -0.818942 0)
(10.9017 -0.752073 0)
(10.7933 -0.623762 0)
(10.4937 -0.512551 0)
(10.1376 -0.429206 0)
(9.77001 -0.373582 0)
(9.41744 -0.334743 0)
(9.07659 -0.307318 0)
(8.75518 -0.284639 0)
(8.44613 -0.267688 0)
(8.15297 -0.251369 0)
(7.87215 -0.240081 0)
(7.6025 -0.227381 0)
(7.34763 -0.221178 0)
(7.09803 -0.21187 0)
(6.86952 -0.210903 0)
(6.64002 -0.204229 0)
(10.0974 -0.750781 0)
(10.0459 -1.01319 0)
(9.42496 -0.801094 0)
(8.5144 -0.57219 0)
(7.65491 -0.37873 0)
(6.92873 -0.244887 0)
(6.32711 -0.167529 0)
(5.83134 -0.12626 0)
(5.40887 -0.104718 0)
(5.04823 -0.0923384 0)
(4.72808 -0.084979 0)
(4.4473 -0.079368 0)
(4.19084 -0.0758244 0)
(3.9619 -0.0719072 0)
(3.75014 -0.0721513 0)
(3.55492 -0.0691005 0)
(3.38266 -0.0802866 0)
(3.21771 -0.0828815 0)
(8.51678 -0.436055 0)
(6.11028 -0.380893 0)
(4.29833 -0.13806 0)
(3.12382 -0.0213922 0)
(2.48102 0.0191305 0)
(2.12038 0.0224684 0)
(1.89612 0.0137091 0)
(1.73479 0.00461116 0)
(1.59872 -0.0015729 0)
(1.47796 -0.00479364 0)
(1.36584 -0.00640735 0)
(1.26366 -0.00672173 0)
(1.16797 -0.00670935 0)
(1.08122 -0.00639161 0)
(0.99917 -0.00665981 0)
(0.918917 -0.00703706 0)
(0.851394 -0.0186139 0)
(0.730847 -0.00614367 0)
(-0.0519878 0.137828 0)
(-0.156856 0.0713578 0)
(-0.206726 0.0163421 0)
(-0.194829 -0.0444128 0)
(-0.117557 -0.0990879 0)
(0.0126268 -0.145094 0)
(0.186656 -0.175619 1.11353e-17)
(0.388379 -0.193569 -1.10603e-17)
(0.606572 -0.197947 0)
(0.828908 -0.19267 -1.09172e-17)
(1.046 -0.178314 0)
(1.24888 -0.15753 0)
(1.43096 -0.130879 0)
(1.587 -0.101508 1.06426e-17)
(1.71435 -0.0702526 0)
(1.81023 -0.0381829 0)
(1.87377 -0.00603505 -1.04455e-17)
(1.9057 0.0242236 0)
(1.9077 0.0506768 0)
(1.88183 0.0723745 0)
(1.8318 0.0893005 1.01961e-17)
(1.76017 0.100813 0)
(1.67089 0.108655 1.00742e-17)
(1.56564 0.111525 0)
(1.44908 0.109588 0)
(1.32395 0.107897 9.89551e-18)
(1.19048 0.111173 0)
(1.04789 0.116287 -9.77919e-18)
(0.899375 0.121546 0)
(0.745514 0.126623 9.66432e-18)
(0.587847 0.130669 0)
(0.428649 0.133173 0)
(0.270179 0.134361 0)
(0.112925 0.134158 0)
(-0.0428002 0.131277 0)
(-0.194925 0.126589 -9.32965e-18)
(-0.341792 0.120474 0)
(-0.482976 0.113963 1.84406e-17)
(-0.617027 0.107453 0)
(-0.743506 0.100199 -1.82217e-17)
(-0.860947 0.0931346 0)
(-0.969507 0.0863274 0)
(-1.06964 0.0785456 1.78884e-17)
(-1.16086 0.0701522 0)
(-1.24383 0.0624247 1.76652e-17)
(-1.31861 0.0551782 -1.75531e-17)
(-1.38473 0.0481828 0)
(-1.44301 0.0421453 -1.73282e-17)
(-1.49455 0.0368296 -1.72151e-17)
(-1.53836 0.033161 0)
(-1.57458 0.0315765 0)
(-1.60512 0.031565 0)
(-1.63209 0.0316662 0)
(-1.65648 0.0316449 0)
(-1.6797 0.0325091 1.65281e-17)
(-1.70355 0.0340514 0)
(-1.72939 0.0362827 -1.62988e-17)
(-1.75594 0.0383246 0)
(-1.782 0.0389601 0)
(-1.80755 0.0395862 1.59524e-17)
(-1.83331 0.0413742 0)
(-1.86116 0.0426037 -1.57211e-17)
(-1.89098 0.0442549 0)
(-1.92261 0.045744 0)
(-1.9556 0.0466093 0)
(-1.98936 0.0478122 1.52555e-17)
(-2.02356 0.0496375 0)
(-2.05845 0.0518532 0)
(-2.09382 0.0542561 1.49058e-17)
(-2.12996 0.0557234 0)
(-2.1639 0.0559696 1.46711e-17)
(-2.19477 0.0563594 0)
(-2.22243 0.0565579 0)
(-2.24587 0.0564013 0)
(-2.26415 0.0558095 -1.4205e-17)
(-2.27653 0.054592 0)
(-2.28371 0.0538781 0)
(-2.2876 0.0538194 -1.38612e-17)
(-2.28862 0.0528666 -1.37478e-17)
(-2.28506 0.0512253 0)
(-2.27513 0.0489732 -1.35225e-17)
(-2.25868 0.0460606 0)
(-2.23533 0.0429102 -2.66021e-17)
(-2.20506 0.0394802 0)
(-2.1684 0.0358059 -2.61666e-17)
(-2.1252 0.0327516 0)
(-2.07651 0.0303524 2.57378e-17)
(-2.02314 0.0283758 0)
(-1.96518 0.0269325 0)
(-1.90325 0.0259504 0)
(-1.8389 0.0253592 -2.49006e-17)
(-1.77188 0.0250843 0)
(-1.70384 0.025038 2.44989e-17)
(-1.63484 0.0256258 0)
(-1.56562 0.0266956 -2.41096e-17)
(-1.49814 0.0292421 -2.3921e-17)
(-1.43154 0.030407 -2.37367e-17)
(-1.36486 0.0314855 0)
(-1.3 0.0315633 0)
(-1.23577 0.0327461 0)
(-1.17028 0.03349 0)
(-1.10565 0.0330508 0)
(-1.036 0.0318911 0)
(-0.967337 0.0332064 0)
(-0.896526 0.0328633 0)
(-0.82957 0.0353088 2.22129e-17)
(-0.762287 0.0358566 2.20607e-17)
(-0.699944 0.0401785 0)
(-0.63919 0.0413787 0)
(-0.583452 0.0410409 0)
(-0.515867 0.038428 2.14802e-17)
(-0.453611 0.0425834 0)
(-0.384604 0.0407701 0)
(-0.319595 0.0436707 0)
(-0.248519 0.0405572 0)
(-0.175428 0.043064 -2.08059e-17)
(-0.100258 0.0446716 0)
(-0.019641 0.0437409 0)
(0.0656572 0.045053 2.04289e-17)
(0.154719 0.0450092 -2.03074e-17)
(0.246832 0.0443509 0)
(0.343422 0.0482549 -2.00747e-17)
(0.435258 0.0511946 0)
(0.528179 0.0543809 1.98482e-17)
(0.610949 0.0591376 0)
(0.682483 0.0621323 0)
(0.757887 0.0625135 0)
(0.826969 0.0633099 0)
(0.906224 0.060525 0)
(0.979309 0.061099 -3.83967e-17)
(1.05451 0.0628018 -3.81776e-17)
(1.11383 0.0677091 0)
(1.16366 0.0664283 0)
(1.20878 0.067381 0)
(1.24663 0.0633923 3.72529e-17)
(1.29561 0.0586907 0)
(1.34583 0.0570786 0)
(1.39138 0.055923 0)
(1.44003 0.0540798 3.62325e-17)
(1.47701 0.0567539 -3.59644e-17)
(1.51995 0.052667 0)
(1.55906 0.0526957 0)
(1.60052 0.0531624 -3.51497e-17)
(1.62658 0.0582809 -3.48768e-17)
(1.65641 0.0549805 0)
(1.68468 0.0587582 0)
(1.72362 0.0557307 3.40439e-17)
(1.75993 0.0659662 -3.37645e-17)
(1.76814 0.071363 0)
(1.78166 0.0707517 0)
(1.80701 0.0710809 -3.29277e-17)
(1.84026 0.0758488 0)
(1.8539 0.0833992 0)
(1.86535 0.0891624 -3.20838e-17)
(1.86465 0.0932657 0)
(1.87886 0.0981036 -3.15238e-17)
(1.88089 0.105062 0)
(1.88669 0.109136 0)
(1.87407 0.120674 0)
(1.86082 0.126556 3.04347e-17)
(1.84604 0.133013 0)
(1.81422 0.14292 0)
(1.74207 0.154599 0)
(1.66563 0.154508 0)
(1.60082 0.156704 0)
(1.51123 0.165569 0)
(1.3833 0.172431 2.88935e-17)
(1.26424 0.173814 2.87395e-17)
(1.08014 0.181829 0)
(0.873178 0.184512 0)
(0.630187 0.183481 0)
(0.414384 0.169773 -2.83218e-17)
(0.192674 0.162701 0)
(0.0411496 0.146502 5.63486e-17)
(-0.159054 0.143923 -5.6239e-17)
(-0.262119 0.123687 -5.60596e-17)
(-0.423573 0.126743 5.59554e-17)
(-0.458684 0.0966002 -5.57529e-17)
(-0.616016 0.129103 5.57329e-17)
(-0.563665 -0.00402998 0)
(0.0101326 0.248504 0)
(0.0146597 0.191699 0)
(0.0497868 0.0075885 -2.27958e-17)
(0.121099 -0.198372 0)
(0.235959 -0.384251 2.23645e-17)
(0.3882 -0.535589 2.22179e-17)
(0.56927 -0.644434 1.10436e-17)
(0.769066 -0.710358 1.09812e-17)
(0.976272 -0.736945 0)
(1.18033 -0.73064 1.08541e-17)
(1.37257 -0.694755 0)
(1.54572 -0.636394 0)
(1.69577 -0.561704 -2.13198e-17)
(1.81802 -0.477197 -1.05947e-17)
(1.91241 -0.385197 2.10554e-17)
(1.97718 -0.290602 2.09219e-17)
(2.01367 -0.198259 1.03954e-17)
(2.02198 -0.110224 0)
(2.00455 -0.0272467 0)
(1.96138 0.0474322 0)
(1.89633 0.112843 1.01365e-17)
(1.80947 0.171872 0)
(1.70548 0.224661 -3.0037e-17)
(1.58317 0.267347 0)
(1.44485 0.302173 0)
(1.29103 0.332631 -9.83183e-18)
(1.12522 0.356537 0)
(0.950167 0.373796 9.71553e-18)
(0.769714 0.384826 1.93127e-17)
(0.584756 0.392067 -9.59758e-18)
(0.398087 0.394144 0)
(0.210956 0.390339 0)
(0.023041 0.383056 0)
(-0.165171 0.376092 1.87312e-17)
(-0.351926 0.367498 1.86167e-17)
(-0.535926 0.355215 9.25135e-18)
(-0.714431 0.34044 0)
(-0.887958 0.323347 -1.82763e-17)
(-1.05259 0.302787 0)
(-1.21058 0.280866 1.80509e-17)
(-1.36034 0.258362 0)
(-1.50352 0.235522 0)
(-1.63856 0.215109 -1.77167e-17)
(-1.7664 0.196008 0)
(-1.88951 0.178066 -5.24868e-17)
(-2.00692 0.159307 1.73858e-17)
(-2.11775 0.140413 0)
(-2.22159 0.123569 1.71656e-17)
(-2.3193 0.106011 1.70553e-17)
(-2.40963 0.0865406 0)
(-2.49074 0.0676566 0)
(-2.56475 0.0531477 0)
(-2.63353 0.0436918 0)
(-2.699 0.0388182 0)
(-2.76063 0.0373963 -1.63737e-17)
(-2.82035 0.0368651 -3.25152e-17)
(-2.87852 0.0369025 1.61414e-17)
(-2.93227 0.0342862 0)
(-2.98373 0.0303221 -3.1813e-17)
(-3.03303 0.0289743 1.57875e-17)
(-3.0795 0.0299362 0)
(-3.12697 0.0308498 1.55499e-17)
(-3.17224 0.0335264 0)
(-3.21551 0.0349324 0)
(-3.25716 0.0344716 3.03753e-17)
(-3.29781 0.033818 -1.50673e-17)
(-3.33393 0.0317365 2.98918e-17)
(-3.36751 0.0289496 -2.96505e-17)
(-3.3951 0.0252297 -1.47046e-17)
(-3.4195 0.0203804 0)
(-3.43752 0.0127982 -1.44628e-17)
(-3.4488 0.00260627 0)
(-3.4544 -0.00808727 0)
(-3.4516 -0.0205562 0)
(-3.43962 -0.0347336 -1.39829e-17)
(-3.41944 -0.048697 0)
(-3.39279 -0.0588 -2.74948e-17)
(-3.36036 -0.0658969 4.08938e-17)
(-3.32259 -0.0743622 1.35161e-17)
(-3.2786 -0.0853517 0)
(-3.22672 -0.0979938 1.32876e-17)
(-3.16962 -0.11059 0)
(-3.10693 -0.122577 2.61236e-17)
(-3.03913 -0.133527 0)
(-2.96638 -0.143957 2.56805e-17)
(-2.88856 -0.153274 -5.09211e-17)
(-2.80685 -0.162127 -2.52466e-17)
(-2.72278 -0.170105 0)
(-2.63368 -0.177688 0)
(-2.54234 -0.183395 0)
(-2.44875 -0.187605 2.44066e-17)
(-2.35185 -0.191661 0)
(-2.25372 -0.19433 -2.40004e-17)
(-2.15565 -0.194643 0)
(-2.05707 -0.196112 7.08199e-17)
(-1.95864 -0.195356 2.34165e-17)
(-1.85966 -0.196308 2.32304e-17)
(-1.76288 -0.193461 0)
(-1.66852 -0.192863 0)
(-1.57357 -0.193807 0)
(-1.47605 -0.194553 0)
(-1.37945 -0.197055 0)
(-1.27716 -0.201399 4.43216e-17)
(-1.18115 -0.199555 4.39858e-17)
(-1.08165 -0.199664 0)
(-0.994263 -0.194104 -2.16751e-17)
(-0.897828 -0.195154 -2.15231e-17)
(-0.810698 -0.188456 0)
(-0.715961 -0.187348 -4.24435e-17)
(-0.637559 -0.186579 0)
(-0.541155 -0.196811 2.09376e-17)
(-0.455245 -0.190961 0)
(-0.349319 -0.199455 0)
(-0.254456 -0.196058 -4.10576e-17)
(-0.140977 -0.204859 0)
(-0.0365102 -0.204942 2.02722e-17)
(0.0891642 -0.21272 0)
(0.216027 -0.220404 0)
(0.352635 -0.224944 1.9887e-17)
(0.493869 -0.229498 1.97706e-17)
(0.639889 -0.235 0)
(0.789659 -0.235593 -1.95333e-17)
(0.949719 -0.236859 0)
(1.10907 -0.228894 1.92966e-17)
(1.27444 -0.219105 3.83631e-17)
(1.42213 -0.212673 0)
(1.57914 -0.21353 0)
(1.72375 -0.213397 0)
(1.88299 -0.214726 0)
(2.02899 -0.209732 3.72309e-17)
(2.18268 -0.206444 1.11008e-16)
(2.31827 -0.187269 0)
(2.44153 -0.182841 0)
(2.5605 -0.172933 0)
(2.66597 -0.175068 -3.60804e-17)
(2.76907 -0.179706 0)
(2.87061 -0.178941 0)
(2.96614 -0.177165 7.06167e-17)
(3.05994 -0.176271 3.50339e-17)
(3.13359 -0.170173 3.4765e-17)
(3.22052 -0.179577 0)
(3.28422 -0.173626 0)
(3.35224 -0.175009 3.39208e-17)
(3.39824 -0.163991 -3.36151e-17)
(3.44407 -0.178091 0)
(3.47322 -0.174714 0)
(3.50747 -0.190855 -3.27226e-17)
(3.53532 -0.173012 9.71915e-17)
(3.5498 -0.168744 0)
(3.56022 -0.179645 0)
(3.57149 -0.191359 3.14611e-17)
(3.59198 -0.189279 0)
(3.58775 -0.182841 6.16288e-17)
(3.58581 -0.180952 -3.04734e-17)
(3.55864 -0.185362 0)
(3.55467 -0.194308 2.98474e-17)
(3.53049 -0.190783 5.90601e-17)
(3.5191 -0.192359 0)
(3.47278 -0.185567 0)
(3.449 -0.19443 -2.85771e-17)
(3.40907 -0.186512 0)
(3.3519 -0.169239 5.5893e-17)
(3.25537 -0.150128 0)
(3.16382 -0.155486 0)
(3.04521 -0.147168 0)
(2.91693 -0.121895 0)
(2.72237 -0.102588 -2.66552e-17)
(2.56344 -0.0756925 -2.64659e-17)
(2.27927 -0.0262586 0)
(2.00627 -0.0014734 0)
(1.6771 0.0227015 0)
(1.38237 0.0188143 2.59601e-17)
(1.04959 0.0230703 0)
(0.842868 0.0138736 -5.16721e-17)
(0.522778 0.0328642 5.16448e-17)
(0.408355 0.00117772 5.14959e-17)
(0.127238 0.0320265 5.14859e-17)
(0.127547 -0.0159768 5.13331e-17)
(-0.168448 0.0787284 5.14965e-17)
(0.0182361 -0.117221 0)
(0.0290269 0.0708833 0)
(0.121017 -0.0385822 0)
(0.227928 -0.24156 2.29128e-17)
(0.339897 -0.468196 2.26643e-17)
(0.474224 -0.692635 -2.25128e-17)
(0.618221 -0.874484 -2.24002e-17)
(0.772329 -1.00315 -1.4818e-21)
(0.923518 -1.07345 0)
(1.06851 -1.08422 0)
(1.19514 -1.04499 0)
(1.30371 -0.965045 0)
(1.38946 -0.855635 0)
(1.45478 -0.725043 6.4712e-17)
(1.49518 -0.584805 0)
(1.51351 -0.439976 -2.13049e-17)
(1.50798 -0.293528 -2.11686e-17)
(1.48146 -0.152139 0)
(1.43254 -0.0186679 0)
(1.36586 0.105159 0)
(1.28119 0.217567 0)
(1.18085 0.316784 -2.05026e-17)
(1.06567 0.399662 0)
(0.940662 0.471884 2.02487e-17)
(0.803092 0.536899 0)
(0.655829 0.591689 0)
(0.500255 0.63654 0)
(0.341797 0.672382 3.95256e-17)
(0.179445 0.699453 0)
(0.0156956 0.718723 -1.95226e-17)
(-0.149006 0.728959 3.88004e-17)
(-0.312941 0.731984 0)
(-0.479112 0.733591 0)
(-0.645461 0.730481 0)
(-0.810594 0.7209 -1.89167e-17)
(-0.972099 0.70558 -1.87959e-17)
(-1.13038 0.684024 0)
(-1.28387 0.656672 0)
(-1.43177 0.625122 3.68593e-17)
(-1.57271 0.591049 3.66196e-17)
(-1.71192 0.556682 -3.63813e-17)
(-1.84611 0.523945 0)
(-1.97851 0.49043 0)
(-2.1053 0.458263 0)
(-2.2284 0.428904 0)
(-2.34728 0.401241 3.52005e-17)
(-2.46015 0.372006 3.49668e-17)
(-2.56789 0.342391 -3.47349e-17)
(-2.67003 0.313885 0)
(-2.7661 0.286016 0)
(-2.85684 0.257041 0)
(-2.94227 0.230241 0)
(-3.02772 0.212472 3.35757e-17)
(-3.10724 0.196595 0)
(-3.18174 0.183412 0)
(-3.24974 0.175634 3.28781e-17)
(-3.31306 0.170469 3.26464e-17)
(-3.37101 0.163582 0)
(-3.42133 0.154203 -6.43597e-17)
(-3.46971 0.147316 3.19485e-17)
(-3.51413 0.140866 -3.17141e-17)
(-3.55278 0.137087 0)
(-3.5885 0.134387 0)
(-3.6182 0.130214 0)
(-3.64298 0.125986 0)
(-3.66521 0.120766 -3.05526e-17)
(-3.68313 0.113356 -6.06462e-17)
(-3.69481 0.105395 -3.00975e-17)
(-3.70276 0.0969204 2.98726e-17)
(-3.70352 0.0853045 0)
(-3.6992 0.0720478 -5.88396e-17)
(-3.68689 0.0559735 -5.8391e-17)
(-3.6693 0.0398029 -5.7946e-17)
(-3.64747 0.0220238 5.75041e-17)
(-3.61683 -0.00023353 0)
(-3.57925 -0.0228716 8.49402e-17)
(-3.53585 -0.0422848 0)
(-3.48771 -0.0576666 -2.78771e-17)
(-3.43102 -0.07136 -2.76642e-17)
(-3.36638 -0.086847 0)
(-3.29561 -0.103496 0)
(-3.22137 -0.120067 -5.40399e-17)
(-3.14495 -0.134767 0)
(-3.06456 -0.148863 -5.31927e-17)
(-2.98166 -0.16239 0)
(-2.89423 -0.17665 5.23538e-17)
(-2.80333 -0.187948 1.0388e-16)
(-2.70874 -0.197636 0)
(-2.61336 -0.206867 0)
(-2.51491 -0.214426 0)
(-2.41777 -0.22071 5.02904e-17)
(-2.3188 -0.226588 0)
(-2.21659 -0.231317 4.94689e-17)
(-2.11151 -0.234604 0)
(-2.00599 -0.233791 0)
(-1.89805 -0.233814 -9.65047e-17)
(-1.79291 -0.231259 0)
(-1.68588 -0.230638 -4.7461e-17)
(-1.58314 -0.22451 0)
(-1.47615 -0.225236 -4.66933e-17)
(-1.36998 -0.22453 0)
(-1.26152 -0.223801 0)
(-1.15434 -0.227765 0)
(-1.04413 -0.230241 -1.35692e-16)
(-0.944075 -0.222025 -4.48693e-17)
(-0.834922 -0.218935 0)
(-0.741584 -0.208629 0)
(-0.639621 -0.210112 0)
(-0.553987 -0.197853 0)
(-0.449663 -0.194085 4.32348e-17)
(-0.363629 -0.188827 -8.58343e-17)
(-0.256498 -0.205591 -4.26321e-17)
(-0.169096 -0.197999 8.46561e-17)
(-0.0490887 -0.214262 8.40933e-17)
(0.0529973 -0.210333 4.17607e-17)
(0.183365 -0.225561 0)
(0.296425 -0.226236 8.2396e-17)
(0.43572 -0.242406 0)
(0.56832 -0.251584 -8.1285e-17)
(0.717093 -0.258404 -4.03843e-17)
(0.863723 -0.262946 0)
(1.01895 -0.271137 7.97625e-17)
(1.16834 -0.274032 3.96282e-17)
(1.33081 -0.282097 0)
(1.48946 -0.280165 3.909e-17)
(1.6637 -0.269376 -1.16508e-16)
(1.82283 -0.257021 0)
(1.98735 -0.255723 0)
(2.13894 -0.25509 0)
(2.29887 -0.258057 0)
(2.45473 -0.253371 -7.51553e-17)
(2.61003 -0.250325 -7.46566e-17)
(2.76071 -0.219268 0)
(2.89823 -0.213988 0)
(3.02915 -0.201882 0)
(3.1508 -0.200545 0)
(3.25802 -0.205642 0)
(3.37772 -0.208469 0)
(3.49102 -0.207551 -7.09533e-17)
(3.60461 -0.205 -1.65089e-20)
(3.69796 -0.195642 0)
(3.80801 -0.208877 0)
(3.89583 -0.196516 -6.8608e-17)
(3.98882 -0.19723 0)
(4.06693 -0.176345 6.74272e-17)
(4.13677 -0.187291 6.68101e-17)
(4.17794 -0.169939 0)
(4.23241 -0.18845 0)
(4.27034 -0.164478 -6.49017e-17)
(4.32061 -0.15577 -1.28514e-16)
(4.34786 -0.160007 0)
(4.38084 -0.172212 0)
(4.42218 -0.163205 0)
(4.43555 -0.14895 -6.16943e-17)
(4.46397 -0.135763 6.10068e-17)
(4.46348 -0.135454 0)
(4.48305 -0.141591 1.1938e-16)
(4.46689 -0.129714 5.90361e-17)
(4.48385 -0.128297 -1.1678e-16)
(4.4618 -0.109804 0)
(4.4606 -0.116834 0)
(4.43083 -0.095595 -1.12765e-16)
(4.39038 -0.0679048 -5.57229e-17)
(4.30688 -0.0386485 0)
(4.24353 -0.0366956 0)
(4.11169 -0.0186312 0)
(4.00211 0.0245037 0)
(3.79019 0.0524451 -1.05601e-16)
(3.62175 0.0959224 0)
(3.3238 0.167152 0)
(3.06526 0.191716 0)
(2.71562 0.219329 0)
(2.40221 0.202616 0)
(2.01386 0.186487 0)
(1.77748 0.153305 -1.00645e-16)
(1.37273 0.150711 0)
(1.24434 0.0830038 0)
(0.860487 0.105318 -1.99428e-16)
(0.855938 0.0225641 9.92528e-17)
(0.470958 0.111241 -9.94066e-17)
(0.666435 -0.128375 9.8787e-17)
(0.0206202 -0.0942408 0)
(0.124931 -0.269348 -4.69557e-17)
(0.247552 -0.489666 0)
(0.375361 -0.754957 -2.27966e-17)
(0.501872 -0.998432 0)
(0.617769 -1.18713 0)
(0.722109 -1.30463 2.24454e-17)
(0.80239 -1.34777 0)
(0.864876 -1.31774 0)
(0.903699 -1.23183 0)
(0.925338 -1.10899 0)
(0.927684 -0.959639 0)
(0.915546 -0.792421 -8.66156e-17)
(0.886303 -0.615191 -4.3025e-17)
(0.843443 -0.432373 4.27456e-17)
(0.786717 -0.251292 0)
(0.718172 -0.0786417 0)
(0.636486 0.0826697 0)
(0.545111 0.231252 0)
(0.443561 0.364423 0)
(0.3346 0.481782 -4.11509e-17)
(0.216408 0.583476 -4.08983e-17)
(0.0903014 0.67406 4.06493e-17)
(-0.0415496 0.749952 -4.04016e-17)
(-0.177459 0.812564 0)
(-0.316071 0.860494 0)
(-0.45616 0.896359 -3.96583e-17)
(-0.596571 0.92091 0)
(-0.737879 0.934891 0)
(-0.87971 0.943358 -3.8925e-17)
(-1.02211 0.948704 -3.86817e-17)
(-1.16235 0.946293 -3.84372e-17)
(-1.29952 0.937116 0)
(-1.43343 0.921758 0)
(-1.56276 0.900227 3.76935e-17)
(-1.68711 0.870544 0)
(-1.80752 0.83498 0)
(-1.92434 0.79551 -3.69486e-17)
(-2.03817 0.75754 3.6697e-17)
(-2.15047 0.719488 -3.64483e-17)
(-2.25633 0.680812 0)
(-2.36056 0.641517 0)
(-2.46075 0.605272 -7.14191e-17)
(-2.55821 0.57112 0)
(-2.65034 0.533073 -7.04532e-17)
(-2.739 0.495031 -1.04963e-16)
(-2.82401 0.459213 1.04242e-16)
(-2.90373 0.42292 -6.90143e-17)
(-2.98024 0.385665 0)
(-3.05414 0.350037 0)
(-3.1276 0.321861 -6.76019e-17)
(-3.19829 0.297371 -3.35705e-17)
(-3.26263 0.271803 0)
(-3.3228 0.250743 0)
(-3.37839 0.235405 -3.28785e-17)
(-3.42854 0.218555 -6.52971e-17)
(-3.47247 0.199596 0)
(-3.51043 0.181668 6.43792e-17)
(-3.54453 0.167268 -6.39201e-17)
(-3.57325 0.153653 6.34644e-17)
(-3.5962 0.139753 0)
(-3.61291 0.126489 0)
(-3.62522 0.115312 0)
(-3.63217 0.104081 0)
(-3.63547 0.0938885 0)
(-3.63334 0.0779908 6.07745e-17)
(-3.62685 0.0607673 0)
(-3.61371 0.0420602 0)
(-3.59479 0.0210109 0)
(-3.57182 -0.000976878 1.18047e-16)
(-3.54332 -0.0249894 5.85912e-17)
(-3.51008 -0.0490423 5.81576e-17)
(-3.47183 -0.0760624 -1.15457e-16)
(-3.42719 -0.107461 5.73033e-17)
(-3.37914 -0.137472 -5.68838e-17)
(-3.32486 -0.164939 0)
(-3.26571 -0.190873 5.60368e-17)
(-3.19667 -0.217506 0)
(-3.12348 -0.242601 0)
(-3.04472 -0.264379 0)
(-2.96448 -0.285028 1.08717e-16)
(-2.88212 -0.304061 -5.39451e-17)
(-2.79647 -0.322971 -5.35317e-17)
(-2.70964 -0.341698 -1.06268e-16)
(-2.61886 -0.361467 -1.58212e-16)
(-2.52717 -0.377218 -5.23421e-17)
(-2.43072 -0.390074 0)
(-2.33469 -0.401554 -1.03068e-16)
(-2.23715 -0.409708 0)
(-2.13974 -0.416171 -1.52202e-16)
(-2.04151 -0.426188 0)
(-1.94447 -0.432654 -1.49829e-16)
(-1.84134 -0.439015 0)
(-1.73777 -0.439672 0)
(-1.62942 -0.441173 -4.87464e-17)
(-1.52248 -0.437798 0)
(-1.41221 -0.437271 4.79717e-17)
(-1.30677 -0.432542 9.51555e-17)
(-1.19341 -0.434227 4.72032e-17)
(-1.08396 -0.436152 9.36491e-17)
(-0.965897 -0.436934 -9.28924e-17)