/*--------------------------------*- C++ -*----------------------------------*\
| =========                 |                                                 |
| \\      /  F ield         | OpenFOAM: The Open Source CFD Toolbox           |
|  \\    /   O peration     | Version:  dev                                   |
|   \\  /    A nd           | Web:      http://www.openfoam.org               |
|    \\/     M anipulation  |                                                 |
\*---------------------------------------------------------------------------*/
FoamFile
{
    version     2.0;
    format      ascii;
    class       volSymmTensorField;
    object      UPrime2Mean;
    location    "9.136";
}
// * * * * * * * * * * * * * * * * * * * * * * * * * * * * * * * * * * * * * //

dimensions      [0 2 -2 0 0 0 0];

internalField   nonuniform List<symmTensor> 
12225
(
(0.329408 0.0192685 0 0.0692784 0 0)
(2.98769 0.0796813 0 0.0782037 0 0)
(7.88438 0.112281 0 0.0769069 0 0)
(14.5417 0.148193 0 0.0755833 0 0)
(22.7141 0.132944 0 0.0765281 0 0)
(32.0825 0.201052 0 0.0746853 0 0)
(42.3993 0.0959235 0 0.076624 0 0)
(53.5475 0.200353 0 0.073864 0 0)
(65.6458 -0.0284175 0 0.077622 0 0)
(78.2471 0.125651 0 0.073632 0 0)
(92.9985 -0.3061 0 0.0813176 0 0)
(107.344 -0.115761 0 0.0770042 0 0)
(127.96 -0.671871 0 0.0863083 0 0)
(145.665 -1.27729 0 0.134744 0 0)
(186.001 -1.41049 0 0.116466 0 0)
(198.573 -0.393138 0 2.3941 0 0)
(272.372 -33.5415 0 5.80939 0 0)
(575.913 -52.9419 0 18.8275 0 0)
(0.3776 0.0567985 0 0.689092 0 0)
(3.15769 0.252208 0 0.732396 0 0)
(8.41511 0.362054 0 0.714253 0 0)
(15.4812 0.485339 0 0.706748 0 0)
(24.2092 0.452884 0 0.703607 0 0)
(34.473 0.632807 0 0.683446 0 0)
(45.5451 0.296032 0 0.692218 0 0)
(58.506 0.609096 0 0.658911 0 0)
(71.5013 -0.134993 0 0.682729 0 0)
(87.1818 0.282896 0 0.646087 0 0)
(102.82 -1.0646 0 0.711361 0 0)
(121.47 -0.7657 0 0.655568 0 0)
(142.896 -2.5416 0 1.06908 0 0)
(166.369 -4.49111 0 1.04716 0 0)
(199.828 -0.92465 0 3.10335 0 0)
(274.478 -9.97438 0 6.60916 0 0)
(281.101 -20.8381 0 8.73867 0 0)
(800.045 -185.206 0 64.7098 0 0)
(0.505212 0.0583419 0 2.14096 0 0)
(3.06555 0.424593 0 2.2029 0 0)
(8.47015 0.570414 0 2.15181 0 0)
(14.8599 0.85185 0 2.14329 0 0)
(24.2873 0.86444 0 2.1202 0 0)
(33.1661 1.05312 0 2.08298 0 0)
(45.2905 0.756315 0 2.07871 0 0)
(56.2265 0.8865 0 2.00793 0 0)
(69.7136 0.172605 0 2.05202 0 0)
(83.4812 0.0172633 0 1.95966 0 0)
(98.2231 -1.12237 0 2.12282 0 0)
(115.706 -2.44769 0 2.09474 0 0)
(138.668 -3.59444 0 2.62263 0 0)
(154.927 -7.19754 0 2.83149 0 0)
(211.074 -13.0108 0 6.12376 0 0)
(223.471 -7.88515 0 6.37982 0 0)
(353.104 -62.2605 0 31.0865 0 0)
(534.729 -192.564 0 98.2786 0 0)
(1.03031 0.0923559 0 4.6713 0 0)
(3.55152 0.619468 0 4.7679 0 0)
(9.07383 0.815732 0 4.64368 0 0)
(15.0739 1.14987 0 4.60291 0 0)
(24.6485 1.31289 0 4.55863 0 0)
(32.9993 1.34988 0 4.48425 0 0)
(45.0257 1.26157 0 4.44926 0 0)
(55.1925 0.973602 0 4.35067 0 0)
(68.6299 0.476385 0 4.3824 0 0)
(80.7477 -0.28238 0 4.25864 0 0)
(96.0751 -1.32979 0 4.50796 0 0)
(110.559 -3.34133 0 4.37295 0 0)
(131.524 -4.79166 0 5.3026 0 0)
(152.309 -10.9711 0 5.60895 0 0)
(187.933 -11.4273 0 9.28764 0 0)
(238.498 -28.8581 0 16.8259 0 0)
(291.579 -58.9291 0 32.6834 0 0)
(414.948 -178.343 0 107.841 0 0)
(1.86415 0.365056 0 8.52429 0 0)
(5.01053 0.720075 0 8.72584 0 0)
(9.43988 1.13997 0 8.47462 0 0)
(16.2484 1.29447 0 8.37146 0 0)
(24.6604 1.70087 0 8.28185 0 0)
(33.9608 1.50239 0 8.1467 0 0)
(44.8407 1.59814 0 8.04597 0 0)
(55.5456 0.993173 0 7.9138 0 0)
(68.4444 0.600996 0 7.86072 0 0)
(80.1539 -0.59331 0 7.76268 0 0)
(95.4093 -1.778 0 7.96427 0 0)
(108.6 -4.22666 0 7.91116 0 0)
(128.146 -6.87956 0 9.02801 0 0)
(145.277 -12.2867 0 9.26926 0 0)
(174.031 -19.2009 0 14.5906 0 0)
(217.975 -25.9505 0 17.2117 0 0)
(233.775 -55.5783 0 46.27 0 0)
(326.765 -171.773 0 138.682 0 0)
(2.56101 0.750504 0 14.0425 0 0)
(6.3249 0.806713 0 14.3945 0 0)
(9.30282 1.53986 0 13.9645 0 0)
(17.1032 1.5945 0 13.7698 0 0)
(24.152 2.1207 0 13.5949 0 0)
(34.2815 1.93669 0 13.3628 0 0)
(43.9963 1.99137 0 13.1575 0 0)
(55.1959 1.41567 0 12.9166 0 0)
(67.3577 0.895008 0 12.7798 0 0)
(78.9436 -0.385062 0 12.5784 0 0)
(94.4631 -1.7377 0 12.7785 0 0)
(105.874 -4.31172 0 12.6867 0 0)
(128.161 -7.26701 0 13.9881 0 0)
(137.994 -13.1562 0 14.6682 0 0)
(171.028 -21.8376 0 21.2501 0 0)
(191.553 -33.0414 0 24.6035 0 0)
(211.162 -55.9192 0 51.5786 0 0)
(265.733 -145.678 0 130.657 0 0)
(2.24354 0.721668 0 21.5364 0 0)
(5.54474 0.94107 0 22.1526 0 0)
(9.20494 1.76357 0 21.3781 0 0)
(16.3481 2.07779 0 21.1904 0 0)
(23.9865 2.44974 0 20.7915 0 0)
(33.3814 2.543 0 20.5582 0 0)
(43.6349 2.27402 0 20.0897 0 0)
(54.0767 1.9282 0 19.8597 0 0)
(66.5191 0.896966 0 19.4412 0 0)
(77.3986 -0.217761 0 19.2883 0 0)
(92.5628 -2.37209 0 19.2279 0 0)
(103.544 -4.82276 0 19.2706 0 0)
(123.698 -8.98173 0 20.4791 0 0)
(133.979 -14.2612 0 21.4574 0 0)
(161.605 -24.4031 0 28.5189 0 0)
(169.444 -32.4157 0 32.0561 0 0)
(203.458 -59.0165 0 56.8646 0 0)
(190.317 -108.779 0 114.16 0 0)
(1.42475 0.598792 0 29.7599 0 0)
(4.32403 1.13493 0 30.6457 0 0)
(8.58773 1.92386 0 29.4979 0 0)
(15.2597 2.47275 0 29.3268 0 0)
(23.2187 2.77697 0 28.6812 0 0)
(32.2825 2.96323 0 28.4202 0 0)
(42.4416 2.59768 0 27.6681 0 0)
(52.8156 2.19086 0 27.3875 0 0)
(64.4601 1.00679 0 26.6631 0 0)
(75.6502 -0.363829 0 26.498 0 0)
(88.6893 -2.753 0 26.1139 0 0)
(100.475 -5.73591 0 26.3385 0 0)
(115.6 -10.323 0 27.0933 0 0)
(128.128 -15.8 0 28.6081 0 0)
(144.728 -26.494 0 33.9204 0 0)
(152.086 -33.4619 0 37.4843 0 0)
(180.391 -54.8984 0 53.1905 0 0)
(139.651 -71.3175 0 83.7109 0 0)
(1.00804 0.521512 0 38.5325 0 0)
(3.7803 1.28789 0 39.7273 0 0)
(8.18442 2.03554 0 38.1893 0 0)
(14.7353 2.77944 0 38.0483 0 0)
(22.6636 3.0051 0 37.138 0 0)
(31.6019 3.31507 0 36.8628 0 0)
(41.5245 2.80389 0 35.8113 0 0)
(51.7992 2.47215 0 35.4926 0 0)
(62.8593 1.03703 0 34.4833 0 0)
(73.8772 -0.283102 0 34.2832 0 0)
(85.6996 -3.04822 0 33.6515 0 0)
(97.0603 -5.9061 0 33.9111 0 0)
(109.392 -10.951 0 34.4184 0 0)
(121.267 -16.0424 0 36.1379 0 0)
(131.281 -25.5663 0 40.0184 0 0)
(138.201 -33.2099 0 44.7472 0 0)
(150.049 -47.3257 0 52.4767 0 0)
(123.256 -58.7585 0 73.1383 0 0)
(0.612251 0.484713 0 49.721 0 0)
(3.2372 1.44582 0 51.3096 0 0)
(7.74491 2.18607 0 49.2124 0 0)
(14.2046 3.03521 0 49.1251 0 0)
(22.001 3.27232 0 47.8354 0 0)
(30.8622 3.57785 0 47.556 0 0)
(40.4891 3.06301 0 46.094 0 0)
(50.6272 2.63436 0 45.7253 0 0)
(61.1536 1.15889 0 44.3051 0 0)
(71.8248 -0.296643 0 44.0613 0 0)
(82.709 -3.14634 0 43.0161 0 0)
(93.2536 -6.04309 0 43.3347 0 0)
(103.897 -11.0986 0 43.3335 0 0)
(113.762 -15.8501 0 45.1896 0 0)
(121.374 -24.5107 0 47.6916 0 0)
(125.813 -30.5744 0 51.9606 0 0)
(129.152 -40.7227 0 56.4825 0 0)
(116.047 -48.3915 0 69.043 0 0)
(0.434299 0.516159 0 63.9179 0 0)
(2.98019 1.62707 0 65.9734 0 0)
(7.47235 2.38269 0 63.2809 0 0)
(13.8507 3.30914 0 63.169 0 0)
(21.4991 3.56794 0 61.5347 0 0)
(30.1995 3.85708 0 61.12 0 0)
(39.5603 3.35333 0 59.3113 0 0)
(49.4009 2.81491 0 58.7162 0 0)
(59.4725 1.3649 0 56.9946 0 0)
(69.5774 -0.272849 0 56.4765 0 0)
(79.6744 -2.98817 0 55.1727 0 0)
(89.2106 -6.0885 0 55.2279 0 0)
(98.5293 -10.5608 0 54.8805 0 0)
(106.407 -15.4236 0 56.4271 0 0)
(112.573 -22.1387 0 57.8697 0 0)
(115.107 -28.0539 0 61.5978 0 0)
(116.053 -35.1999 0 64.5631 0 0)
(109.601 -40.7975 0 71.4591 0 0)
(0.356395 0.540403 0 81.4141 0 0)
(2.83233 1.74424 0 84.1001 0 0)
(7.26402 2.55365 0 80.6314 0 0)
(13.5202 3.49958 0 80.5221 0 0)
(20.9951 3.80648 0 78.4351 0 0)
(29.4754 4.03353 0 77.8817 0 0)
(38.534 3.55654 0 75.5918 0 0)
(48.005 2.91439 0 74.7667 0 0)
(57.5594 1.47522 0 72.5737 0 0)
(67.0531 -0.229424 0 71.7859 0 0)
(76.2667 -2.87961 0 70.0294 0 0)
(84.8532 -5.86494 0 69.7692 0 0)
(92.7599 -9.9695 0 68.9327 0 0)
(99.1896 -14.2979 0 69.8848 0 0)
(103.904 -19.7445 0 70.5264 0 0)
(105.849 -24.6573 0 73.0289 0 0)
(106.004 -29.8226 0 74.9706 0 0)
(101.759 -33.3067 0 78.6244 0 0)
(0.329348 0.568777 0 102.496 0 0)
(2.73693 1.80573 0 105.706 0 0)
(7.07084 2.68132 0 101.679 0 0)
(13.1588 3.58082 0 101.21 0 0)
(20.4383 3.93009 0 98.945 0 0)
(28.6235 4.05046 0 97.865 0 0)
(37.3576 3.61007 0 95.3494 0 0)
(46.3586 2.82771 0 93.8994 0 0)
(55.3877 1.46757 0 91.4618 0 0)
(64.1689 -0.349564 0 90.0099 0 0)
(72.5481 -2.76751 0 87.9819 0 0)
(80.1383 -5.69853 0 87.0065 0 0)
(86.86 -9.20856 0 85.7933 0 0)
(92.1212 -13.0974 0 85.799 0 0)
(95.8233 -17.3152 0 85.7476 0 0)
(97.4083 -21.3817 0 86.8876 0 0)
(97.5113 -25.2258 0 87.9135 0 0)
(94.7073 -27.6804 0 89.5163 0 0)
(0.313755 0.572932 0 126.495 0 0)
(2.64155 1.7727 0 130.425 0 0)
(6.84998 2.66532 0 125.714 0 0)
(12.7345 3.46009 0 124.904 0 0)
(19.7719 3.78727 0 122.372 0 0)
(27.6231 3.80076 0 120.795 0 0)
(35.9652 3.32688 0 117.911 0 0)
(44.4754 2.47971 0 115.877 0 0)
(52.9126 1.12476 0 113.015 0 0)
(61.0066 -0.638555 0 110.923 0 0)
(68.5559 -2.90644 0 108.43 0 0)
(75.2797 -5.53825 0 106.702 0 0)
(81.018 -8.59329 0 104.933 0 0)
(85.4675 -11.8165 0 103.927 0 0)
(88.5134 -15.1791 0 103.093 0 0)
(89.9514 -18.3465 0 102.917 0 0)
(90.2542 -21.2652 0 102.928 0 0)
(88.2916 -22.9116 0 103.079 0 0)
(0.299355 0.524377 0 151.916 0 0)
(2.53357 1.58014 0 156.419 0 0)
(6.58575 2.37485 0 151.288 0 0)
(12.2365 2.98421 0 149.849 0 0)
(18.9786 3.2071 0 147.289 0 0)
(26.4585 3.06464 0 144.975 0 0)
(34.3597 2.52393 0 141.885 0 0)
(42.3497 1.59169 0 139.078 0 0)
(50.1872 0.262333 0 135.877 0 0)
(57.607 -1.44246 0 132.999 0 0)
(64.4205 -3.50405 0 130.045 0 0)
(70.3999 -5.84145 0 127.471 0 0)
(75.4144 -8.41809 0 125.066 0 0)
(79.3017 -11.0699 0 123.062 0 0)
(82.0004 -13.7076 0 121.346 0 0)
(83.4188 -16.1721 0 120.005 0 0)
(84.0017 -18.3703 0 118.914 0 0)
(82.795 -19.4161 0 117.8 0 0)
(0.284061 0.39358 0 175.143 0 0)
(2.41514 1.1436 0 180.345 0 0)
(6.28549 1.66745 0 174.735 0 0)
(11.6747 1.9988 0 172.851 0 0)
(18.0831 1.99527 0 170.169 0 0)
(25.1644 1.65791 0 167.317 0 0)
(32.5978 0.976931 0 163.929 0 0)
(40.0676 -0.0322253 0 160.531 0 0)
(47.3265 -1.36663 0 156.912 0 0)
(54.1412 -2.97846 0 153.396 0 0)
(60.3337 -4.84662 0 149.907 0 0)
(65.7397 -6.87718 0 146.613 0 0)
(70.2544 -9.03113 0 143.514 0 0)
(73.8047 -11.1787 0 140.657 0 0)
(76.3611 -13.2423 0 138.064 0 0)
(77.8878 -15.1415 0 135.737 0 0)
(78.7703 -16.7887 0 133.623 0 0)
(78.2221 -17.386 0 131.422 0 0)
(0.268842 0.15569 0 190.257 0 0)
(2.29428 0.388881 0 195.932 0 0)
(5.96895 0.485576 0 190.035 0 0)
(11.079 0.405975 0 187.892 0 0)
(17.1372 0.0684557 0 185.145 0 0)
(23.8108 -0.540632 0 181.973 0 0)
(30.7825 -1.41034 0 178.393 0 0)
(37.7566 -2.53297 0 174.638 0 0)
(44.4971 -3.88286 0 170.725 0 0)
(50.7978 -5.42291 0 166.804 0 0)
(56.5056 -7.1097 0 162.91 0 0)
(61.499 -8.87811 0 159.128 0 0)
(65.7025 -10.6737 0 155.49 0 0)
(69.0866 -12.4185 0 152.027 0 0)
(71.6443 -14.0366 0 148.759 0 0)
(73.3644 -15.5064 0 145.713 0 0)
(74.5599 -16.7422 0 142.819 0 0)
(74.6049 -17.0628 0 139.822 0 0)
(0.259195 -0.143267 0 190.23 0 0)
(2.19678 -0.536707 0 195.862 0 0)
(5.69233 -0.941601 0 190.029 0 0)
(10.5463 -1.49811 0 187.877 0 0)
(16.2888 -2.21967 0 185.173 0 0)
(22.6022 -3.123 0 182.007 0 0)
(29.1783 -4.19726 0 178.452 0 0)
(35.7444 -5.43671 0 174.701 0 0)
(42.0778 -6.81088 0 170.774 0 0)
(48.0006 -8.29118 0 166.82 0 0)
(53.3769 -9.83085 0 162.845 0 0)
(58.1182 -11.3874 0 158.957 0 0)
(62.1635 -12.908 0 155.143 0 0)
(65.5066 -14.3492 0 151.478 0 0)
(68.1463 -15.6459 0 147.935 0 0)
(70.0881 -16.8051 0 144.595 0 0)
(71.5653 -17.7516 0 141.345 0 0)
(72.0998 -17.9559 0 138.013 0 0)
(0.256037 -0.397123 0 174.409 0 0)
(2.13763 -1.30881 0 179.362 0 0)
(5.50164 -2.13175 0 174.031 0 0)
(10.1657 -3.08154 0 172.038 0 0)
(15.6748 -4.11113 0 169.556 0 0)
(21.7241 -5.24125 0 166.665 0 0)
(28.0163 -6.46483 0 163.413 0 0)
(34.2968 -7.77875 0 159.988 0 0)
(40.3555 -9.1546 0 156.381 0 0)
(46.0357 -10.5725 0 152.752 0 0)
(51.2122 -11.9905 0 149.067 0 0)
(55.8166 -13.3821 0 145.459 0 0)
(59.7957 -14.7023 0 141.875 0 0)
(63.1535 -15.9282 0 138.421 0 0)
(65.8879 -17.0081 0 135.036 0 0)
(68.0165 -17.9573 0 131.834 0 0)
(69.7084 -18.7145 0 128.677 0 0)
(70.6061 -18.9017 0 125.477 0 0)
(0.257501 -0.546221 0 148.969 0 0)
(2.10988 -1.7498 0 152.928 0 0)
(5.38727 -2.82663 0 148.391 0 0)
(9.92374 -4.01125 0 146.673 0 0)
(15.2762 -5.21599 0 144.551 0 0)
(21.1486 -6.46583 0 142.097 0 0)
(27.2531 -7.75278 0 139.332 0 0)
(33.3476 -9.07868 0 136.426 0 0)
(39.2324 -10.4162 0 133.353 0 0)
(44.7635 -11.7554 0 130.261 0 0)
(49.8257 -13.058 0 127.104 0 0)
(54.3597 -14.3109 0 124.008 0 0)
(58.3193 -15.4747 0 120.913 0 0)
(61.7101 -16.5405 0 117.923 0 0)
(64.531 -17.4648 0 114.973 0 0)
(66.8043 -18.2665 0 112.175 0 0)
(68.6552 -18.8951 0 109.401 0 0)
(69.8161 -19.1042 0 106.609 0 0)
(0.260374 -0.601928 0 120.062 0 0)
(2.10099 -1.89176 0 123.032 0 0)
(5.32129 -3.0709 0 119.383 0 0)
(9.7724 -4.34495 0 117.989 0 0)
(15.02 -5.60413 0 116.283 0 0)
(20.7748 -6.87455 0 114.318 0 0)
(26.7556 -8.14594 0 112.104 0 0)
(32.7294 -9.42366 0 109.777 0 0)
(38.5038 -10.6823 0 107.312 0 0)
(43.9433 -11.9189 0 104.827 0 0)
(48.9404 -13.0996 0 102.285 0 0)
(53.4405 -14.2198 0 99.7857 0 0)
(57.4023 -15.2453 0 97.2803 0 0)
(60.8306 -16.1759 0 94.8542 0 0)
(63.7256 -16.9746 0 92.4553 0 0)
(66.1123 -17.6611 0 90.1712 0 0)
(68.0853 -18.1944 0 87.9057 0 0)
(69.445 -18.4296 0 85.6299 0 0)
(0.263326 -0.591082 0 91.9065 0 0)
(2.10067 -1.83177 0 94.0222 0 0)
(5.28357 -2.99946 0 91.2306 0 0)
(9.67783 -4.25077 0 90.1568 0 0)
(14.8549 -5.47181 0 88.8572 0 0)
(20.5312 -6.685 0 87.362 0 0)
(26.4302 -7.8799 0 85.6809 0 0)
(32.3252 -9.0615 0 83.9086 0 0)
(38.0295 -10.2091 0 82.0323 0 0)
(43.4128 -11.3214 0 80.1348 0 0)
(48.3734 -12.3716 0 78.1934 0 0)
(52.859 -13.3579 0 76.2784 0 0)
(56.8321 -14.2529 0 74.3598 0 0)
(60.2958 -15.0593 0 72.4959 0 0)
(63.2517 -15.7487 0 70.6541 0 0)
(65.7271 -16.3363 0 68.8936 0 0)
(67.7945 -16.7929 0 67.1503 0 0)
(69.307 -17.042 0 65.3968 0 0)
(0.2664 -0.537211 0 66.9483 0 0)
(2.10452 -1.65234 0 68.3888 0 0)
(5.26228 -2.733 0 66.3566 0 0)
(9.61883 -3.88662 0 65.5736 0 0)
(14.7487 -5.00684 0 64.6352 0 0)
(20.3726 -6.10953 0 63.553 0 0)
(26.2181 -7.18665 0 62.3385 0 0)
(32.0621 -8.24011 0 61.0525 0 0)
(37.7224 -9.25509 0 59.6932 0 0)
(43.0721 -10.2291 0 58.313 0 0)
(48.0137 -11.1431 0 56.9037 0 0)
(52.4963 -11.9944 0 55.5087 0 0)
(56.4844 -12.7637 0 54.1143 0 0)
(59.9801 -13.4528 0 52.7552 0 0)
(62.9861 -14.042 0 51.4148 0 0)
(65.5305 -14.5407 0 50.1286 0 0)
(67.6704 -14.9305 0 48.8585 0 0)
(69.3008 -15.1781 0 47.577 0 0)
(0.268251 -0.463251 0 46.2998 0 0)
(2.10896 -1.41713 0 47.2386 0 0)
(5.25047 -2.36569 0 45.8376 0 0)
(9.58208 -3.37766 0 45.2994 0 0)
(14.6803 -4.3593 0 44.658 0 0)
(20.2696 -5.32001 0 43.9141 0 0)
(26.0806 -6.25477 0 43.0798 0 0)
(31.8922 -7.16188 0 42.1923 0 0)
(37.5257 -8.0324 0 41.2565 0 0)
(42.8562 -8.86166 0 40.3031 0 0)
(47.7886 -9.63742 0 39.3329 0 0)
(52.2731 -10.3557 0 38.37 0 0)
(56.2758 -11.0041 0 37.4102 0 0)
(59.7975 -11.5822 0 36.4719 0 0)
(62.8415 -12.0776 0 35.5484 0 0)
(65.4367 -12.4942 0 34.6591 0 0)
(67.6287 -12.8221 0 33.7839 0 0)
(69.345 -13.0523 0 32.8976 0 0)
(0.269413 -0.383385 0 30.1646 0 0)
(2.11251 -1.16565 0 30.749 0 0)
(5.24375 -1.95988 0 29.8386 0 0)
(9.55864 -2.80941 0 29.4913 0 0)
(14.6356 -3.63353 0 29.0791 0 0)
(20.2017 -4.43846 0 28.5984 0 0)
(25.9896 -5.2204 0 28.0591 0 0)
(31.7791 -5.97636 0 27.4833 0 0)
(37.3938 -6.69981 0 26.8771 0 0)
(42.7097 -7.38602 0 26.2585 0 0)
(47.6338 -8.02644 0 25.6304 0 0)
(52.1157 -8.61695 0 25.0058 0 0)
(56.1237 -9.1496 0 24.3846 0 0)
(59.6576 -9.62247 0 23.7758 0 0)
(62.7213 -10.0281 0 23.1775 0 0)
(65.3423 -10.3667 0 22.5997 0 0)
(67.5612 -10.6337 0 22.0325 0 0)
(69.3305 -10.8312 0 21.4567 0 0)
(0.269738 -0.304847 0 18.2156 0 0)
(2.11428 -0.920565 0 18.5599 0 0)
(5.23839 -1.55535 0 18.0091 0 0)
(9.53925 -2.2387 0 17.803 0 0)
(14.5971 -2.90322 0 17.5599 0 0)
(20.1412 -3.55354 0 17.2753 0 0)
(25.9047 -4.1849 0 16.955 0 0)
(31.6686 -4.79397 0 16.6119 0 0)
(37.2577 -5.37422 0 16.2501 0 0)
(42.5483 -5.92217 0 15.88 0 0)
(47.4499 -6.43056 0 15.5033 0 0)
(51.9108 -6.89702 0 15.1281 0 0)
(55.903 -7.31476 0 14.7544 0 0)
(59.424 -7.68348 0 14.3876 0 0)
(62.4825 -7.99738 0 14.027 0 0)
(65.1008 -8.25705 0 13.6779 0 0)
(67.3228 -8.46167 0 13.3359 0 0)
(69.1196 -8.61198 0 12.989 0 0)
(0.269389 -0.228459 0 9.88424 0 0)
(2.11203 -0.691824 0 10.0678 0 0)
(5.22117 -1.17956 0 9.77052 0 0)
(9.49577 -1.70961 0 9.66812 0 0)
(14.5234 -2.22431 0 9.54369 0 0)
(20.0341 -2.72496 0 9.39446 0 0)
(25.7606 -3.20725 0 9.22375 0 0)
(31.4866 -3.66869 0 9.03948 0 0)
(37.0365 -4.10352 0 8.84369 0 0)
(42.29 -4.51021 0 8.64265 0 0)
(47.1555 -4.88316 0 8.43695 0 0)
(51.5864 -5.22252 0 8.23178 0 0)
(55.5532 -5.5225 0 8.02656 0 0)
(59.0581 -5.78533 0 7.82526 0 0)
(62.1083 -6.00487 0 7.62693 0 0)
(64.7256 -6.18471 0 7.43558 0 0)
(66.9513 -6.32779 0 7.24876 0 0)
(68.7815 -6.42978 0 7.06051 0 0)
(0.268243 -0.154924 0 4.48696 0 0)
(2.08516 -0.498237 0 4.58258 0 0)
(5.15987 -0.85295 0 4.45736 0 0)
(9.39492 -1.22953 0 4.42171 0 0)
(14.397 -1.58675 0 4.37063 0 0)
(19.8821 -1.92922 0 4.30619 0 0)
(25.5821 -2.2543 0 4.22885 0 0)
(31.2821 -2.55973 0 4.14235 0 0)
(36.809 -2.84394 0 4.04929 0 0)
(42.0418 -3.10809 0 3.95345 0 0)
(46.8906 -3.34928 0 3.85562 0 0)
(51.3121 -3.56837 0 3.75851 0 0)
(55.2732 -3.76161 0 3.6616 0 0)
(58.784 -3.93108 0 3.5676 0 0)
(61.8407 -4.07066 0 3.47491 0 0)
(64.4768 -4.18567 0 3.38742 0 0)
(66.6997 -4.27612 0 3.30215 0 0)
(68.5581 -4.34612 0 3.21793 0 0)
(0.25534 -0.0882534 0 1.42129 0 0)
(2.06917 -0.313643 0 1.48702 0 0)
(5.20832 -0.526299 0 1.44696 0 0)
(9.50187 -0.734774 0 1.4338 0 0)
(14.5574 -0.924957 0 1.41368 0 0)
(20.0938 -1.10765 0 1.39041 0 0)
(25.8501 -1.28435 0 1.36376 0 0)
(31.6093 -1.4525 0 1.33443 0 0)
(37.1978 -1.61046 0 1.30343 0 0)
(42.4896 -1.75805 0 1.27181 0 0)
(47.398 -1.89378 0 1.23999 0 0)
(51.8719 -2.01766 0 1.20857 0 0)
(55.8829 -2.12767 0 1.17752 0 0)
(59.4335 -2.22447 0 1.14755 0 0)
(62.5236 -2.30396 0 1.11827 0 0)
(65.1913 -2.37015 0 1.09178 0 0)
(67.414 -2.42274 0 1.06656 0 0)
(69.2644 -2.46219 0 1.0396 0 0)
(0.246009 -0.0253464 0 0.141873 0 0)
(2.06699 -0.0978808 0 0.153654 0 0)
(5.18721 -0.165653 0 0.150869 0 0)
(9.44991 -0.230929 0 0.1497 0 0)
(14.4867 -0.293853 0 0.147397 0 0)
(20.0105 -0.354203 0 0.144668 0 0)
(25.7601 -0.413037 0 0.141669 0 0)
(31.517 -0.469544 0 0.138538 0 0)
(37.1125 -0.522891 0 0.135314 0 0)
(42.4224 -0.572896 0 0.132062 0 0)
(47.3611 -0.619256 0 0.128804 0 0)
(51.8759 -0.661938 0 0.125601 0 0)
(55.9403 -0.700372 0 0.122458 0 0)
(59.5495 -0.734414 0 0.119433 0 0)
(62.71 -0.76333 0 0.116607 0 0)
(65.4545 -0.78857 0 0.114269 0 0)
(67.7674 -0.806782 0 0.112194 0 0)
(69.6954 -0.81606 0 0.111809 0 0)
(0.0244871 0.0357779 0 0.717596 0 0)
(0.267331 0.0991377 0 0.678656 0 0)
(0.78573 0.180958 0 0.671478 0 0)
(1.53947 0.295057 0 0.662227 0 0)
(2.48674 0.424152 0 0.660601 0 0)
(3.60925 0.56906 0 0.657321 0 0)
(4.88507 0.716195 -2.38533e-19 0.655361 -6.48597e-20 1.47877e-37)
(6.31137 0.867154 2.4252e-19 0.651062 6.91661e-20 1.4833e-37)
(7.88153 1.01413 0 0.645055 0 0)
(9.59358 1.16157 2.44888e-19 0.637483 6.85847e-20 1.46112e-37)
(11.4424 1.3056 0 0.628901 0 0)
(13.4219 1.44846 0 0.619805 0 0)
(15.5255 1.58555 0 0.611844 0 0)
(17.747 1.71721 -2.77349e-19 0.605369 -5.16866e-20 1.34755e-37)
(20.0802 1.84028 0 0.599146 0 0)
(22.5255 1.95385 0 0.593911 0 0)
(25.0832 2.05371 3.4052e-19 0.589609 3.90249e-20 1.22101e-37)
(27.7518 2.14151 0 0.58515 0 0)
(30.5263 2.21991 0 0.580481 0 0)
(33.4009 2.29117 0 0.576042 0 0)
(36.3598 2.35428 -4.56449e-19 0.57272 -1.95634e-20 1.01794e-37)
(39.3934 2.41 0 0.568978 0 0)
(42.4879 2.4564 -5.16215e-19 0.56673 -1.02883e-20 9.25361e-38)
(45.6341 2.49335 0 0.567939 0 0)
(48.8159 2.52704 0 0.568702 0 0)
(52.0191 2.5501 -6.0438e-19 0.57088 1.23754e-21 7.97836e-38)
(55.2369 2.5523 0 0.572719 0 0)
(58.4733 2.53491 6.58031e-19 0.571193 -6.96471e-21 7.2173e-38)
(61.7223 2.50392 0 0.563322 0 0)
(64.9895 2.46117 -7.02782e-19 0.552898 1.05171e-20 6.54062e-38)
(68.2737 2.4093 0 0.539311 0 0)
(71.5622 2.35076 0 0.523457 0 0)
(74.8474 2.2854 0 0.509394 0 0)
(78.1309 2.20945 0 0.498002 0 0)
(81.4064 2.12228 0 0.486452 0 0)
(84.6707 2.02683 7.79864e-19 0.475553 -1.40172e-20 4.59943e-38)
(87.9226 1.92295 0 0.463931 0 0)
(91.1632 1.81052 -1.5628e-18 0.44789 2.71775e-20 1.61356e-37)
(94.3908 1.69113 0 0.432295 0 0)
(97.6007 1.56364 1.55271e-18 0.417657 -2.61884e-20 1.39942e-37)
(100.786 1.43055 0 0.402514 0 0)
(103.946 1.28825 0 0.390855 0 0)
(107.071 1.1377 -1.5146e-18 0.378301 2.15736e-20 1.11246e-37)
(110.144 0.984882 0 0.365494 0 0)
(113.15 0.830098 -1.47603e-18 0.354693 1.82663e-20 9.43165e-38)
(116.074 0.672169 1.45357e-18 0.345846 -1.6532e-20 8.66273e-38)
(118.9 0.508431 0 0.339738 0 0)
(121.62 0.338473 1.40273e-18 0.334973 -1.25083e-20 7.34223e-38)
(124.217 0.163075 1.37451e-18 0.331088 -1.06424e-20 6.7964e-38)
(126.693 -0.0148377 0 0.327844 0 0)
(129.033 -0.194193 0 0.325725 0 0)
(131.218 -0.377789 0 0.323053 0 0)
(133.226 -0.566389 0 0.321847 0 0)
(135.038 -0.757283 0 0.323893 0 0)
(136.627 -0.947155 -1.17416e-18 0.328106 -4.39841e-21 5.01848e-38)
(137.965 -1.13847 0 0.33221 0 0)
(139.039 -1.33456 1.07951e-18 0.335892 1.14636e-20 4.75371e-38)
(139.854 -1.53728 0 0.341111 0 0)
(140.403 -1.74616 0 0.347905 0 0)
(140.673 -1.95215 -9.11741e-19 0.35723 -2.24655e-20 4.75401e-38)
(140.657 -2.15632 0 0.369216 0 0)
(140.338 -2.36137 7.80315e-19 0.381227 3.12492e-20 4.97092e-38)
(139.723 -2.56523 0 0.39152 0 0)
(138.807 -2.76899 0 0.404315 0 0)
(137.601 -2.97191 0 0.418485 0 0)
(136.115 -3.16761 -4.81987e-19 0.432892 -4.76113e-20 6.03664e-38)
(134.355 -3.35671 0 0.447619 0 0)
(132.332 -3.53946 0 0.460699 0 0)
(130.059 -3.71489 -2.26251e-19 0.474358 -6.12036e-20 7.30677e-38)
(127.558 -3.88809 0 0.489436 0 0)
(124.863 -4.05401 -5.06738e-20 0.504617 -6.98492e-20 8.30526e-38)
(121.987 -4.20749 0 0.520077 0 0)
(118.947 -4.34879 0 0.536081 0 0)
(115.772 -4.4793 0 0.553226 0 0)
(112.487 -4.60047 -3.05028e-19 0.571372 8.32146e-20 1.04565e-37)
(109.108 -4.70954 0 0.589463 0 0)
(105.655 -4.80333 0 0.607429 0 0)
(102.136 -4.88207 -5.644e-19 0.625535 9.03443e-20 1.202e-37)
(98.5659 -4.95018 -6.46224e-19 0.644327 9.18864e-20 1.25314e-37)
(94.9723 -5.00728 0 0.663145 0 0)
(91.386 -5.05251 -7.99321e-19 0.682881 9.46602e-20 1.34737e-37)
(87.828 -5.08658 0 0.704079 0 0)
(84.3187 -5.10881 -1.87835e-18 0.72565 1.92636e-19 5.7462e-37)
(80.8727 -5.11806 0 0.748305 0 0)
(77.5076 -5.11275 -2.12333e-18 0.770889 1.93765e-19 6.07783e-37)
(74.2415 -5.091 0 0.793837 0 0)
(71.0886 -5.05617 2.326e-18 0.819807 -1.93905e-19 6.36767e-37)
(68.0663 -5.00806 0 0.844836 0 0)
(65.1889 -4.94132 0 0.867151 0 0)
(62.4563 -4.85583 0 0.88986 0 0)
(59.873 -4.75359 -2.58685e-18 0.914876 1.86295e-19 6.80142e-37)
(57.4446 -4.63707 0 0.939487 0 0)
(55.1801 -4.50447 2.64775e-18 0.963751 -1.80009e-19 6.94844e-37)
(53.0824 -4.35558 0 0.987502 0 0)
(51.1401 -4.18437 -2.65969e-18 1.01107 1.73663e-19 7.03675e-37)
(49.3481 -3.99655 -2.65045e-18 1.03235 1.70423e-19 7.07196e-37)
(47.6943 -3.79599 -2.63138e-18 1.05359 1.6626e-19 7.09878e-37)
(46.1739 -3.58631 0 1.07597 0 0)
(44.7601 -3.36649 0 1.0991 0 0)
(43.4637 -3.13775 0 1.11866 0 0)
(42.2663 -2.90014 0 1.13846 0 0)
(41.1634 -2.66077 0 1.15834 0 0)
(40.1369 -2.42096 0 1.17734 0 0)
(39.1837 -2.17815 0 1.19241 0 0)
(38.2576 -1.93451 0 1.20834 0 0)
(37.3564 -1.69737 2.02507e-18 1.22351 -1.31583e-19 7.07651e-37)
(36.4474 -1.46885 1.91096e-18 1.24066 -1.24306e-19 7.06961e-37)
(35.5553 -1.24985 0 1.25231 0 0)
(34.6445 -1.03962 0 1.26527 0 0)
(33.7251 -0.852837 0 1.27933 0 0)
(32.7446 -0.676406 1.35353e-18 1.29201 -1.04746e-19 6.90911e-37)
(31.8032 -0.526107 0 1.2993 0 0)
(30.7933 -0.383882 0 1.3091 0 0)
(29.8381 -0.281083 0 1.31917 0 0)
(28.911 -0.197513 0 1.33234 0 0)
(28.0812 -0.147119 -4.38452e-19 1.34074 7.57935e-20 6.66073e-37)
(27.3812 -0.121012 0 1.35006 0 0)
(26.8443 -0.130486 0 1.36349 0 0)
(26.5551 -0.173692 -2.22724e-19 1.37132 -6.55426e-20 6.42459e-37)
(26.5125 -0.242629 4.49635e-19 1.38389 6.11357e-20 6.29892e-37)
(26.765 -0.351945 0 1.40073 0 0)
(27.3661 -0.508113 9.1243e-19 1.418 6.00563e-20 6.05173e-37)
(28.3812 -0.704807 0 1.43715 0 0)
(29.8735 -0.957039 -1.35394e-18 1.45483 -6.45868e-20 5.75508e-37)
(31.8642 -1.24335 0 1.47758 0 0)
(34.4276 -1.57939 0 1.50463 0 0)
(37.4619 -1.95765 0 1.53739 0 0)
(41.0782 -2.38663 0 1.57168 0 0)
(45.1291 -2.84172 0 1.60975 0 0)
(49.6203 -3.34335 4.89885e-18 1.65194 2.04712e-19 1.97199e-36)
(54.4873 -3.88898 5.15377e-18 1.69807 2.30653e-19 1.93721e-36)
(59.7489 -4.47021 0 1.74617 0 0)
(65.2067 -5.07186 0 1.80215 0 0)
(70.8213 -5.69876 0 1.85738 0 0)
(76.4434 -6.31125 -5.69369e-18 1.9183 -3.52357e-19 1.91739e-36)
(81.845 -6.92524 0 1.98948 0 0)
(86.9893 -7.54651 0 2.06168 0 0)
(91.8188 -8.16068 0 2.13816 0 0)
(96.2576 -8.75325 -5.33156e-18 2.21646 -5.33581e-19 2.07173e-36)
(100.287 -9.31989 5.09779e-18 2.2999 5.8225e-19 2.13355e-36)
(103.697 -9.84158 0 2.39065 0 0)
(106.604 -10.3507 0 2.48342 0 0)
(108.972 -10.8039 4.07908e-18 2.57797 7.35286e-19 2.36561e-36)
(110.81 -11.2229 3.65006e-18 2.67133 7.84124e-19 2.45089e-36)
(111.963 -11.5667 0 2.77159 0 0)
(112.533 -11.8815 0 2.8715 0 0)
(112.413 -12.1233 -2.05281e-18 2.97544 -9.45563e-19 2.7188e-36)
(111.734 -12.3473 1.42353e-18 3.07039 9.89152e-19 2.79754e-36)
(110.541 -12.5007 0 3.16714 0 0)
(108.631 -12.6001 0 3.26771 0 0)
(106.129 -12.6332 -5.20082e-19 3.35854 1.11692e-18 3.06827e-36)
(102.996 -12.6124 0 3.44895 0 0)
(99.5149 -12.5538 0 3.53247 0 0)
(95.5281 -12.4046 -2.54574e-18 3.60488 1.20578e-18 3.30082e-36)
(91.2329 -12.1836 0 3.67681 0 0)
(86.6159 -11.8515 -3.82896e-18 3.73819 1.25669e-18 3.44365e-36)
(81.7343 -11.434 0 3.79383 0 0)
(76.6304 -10.8987 0 3.83291 0 0)
(71.6902 -10.2652 0 3.85694 0 0)
(66.8123 -9.46754 5.86647e-18 3.87563 -1.27732e-18 3.68141e-36)
(62.1594 -8.55084 0 3.87924 0 0)
(57.9481 -7.48164 0 3.86701 0 0)
(54.4948 -6.29206 0 3.83907 0 0)
(51.6377 -4.91366 0 3.79714 0 0)
(49.5383 -3.45509 0 3.7466 0 0)
(48.8178 -1.9027 0 3.67448 0 0)
(49.6581 -0.280482 6.01716e-18 3.58473 -1.10381e-18 3.72705e-36)
(51.7227 1.43175 5.60121e-18 3.48643 -1.04946e-18 3.70944e-36)
(55.4296 3.12316 0 3.37496 0 0)
(60.6871 4.74905 0 3.25709 0 0)
(67.4921 6.32788 0 3.12766 0 0)
(75.4288 7.80002 -3.04802e-18 2.99799 7.947e-19 3.38321e-36)
(84.5519 9.10087 0 2.86987 0 0)
(94.1009 10.2883 2.94243e-18 2.73489 -1.35022e-18 1.23607e-35)
(103.978 11.2446 -1.30678e-18 2.60423 1.21745e-18 1.16595e-35)
(113.606 12.034 3.19189e-19 2.47291 1.10454e-18 1.10159e-35)
(123.252 12.6839 -2.02237e-18 2.34819 -1.01387e-18 1.03307e-35)
(131.362 13.2244 3.67341e-18 2.22928 9.22531e-19 9.75662e-36)
(139.225 13.7007 -5.27714e-18 2.12204 -9.03171e-19 8.99219e-36)
(142.966 14.3927 0 2.06612 0 0)
(0.0183142 0.17428 0 6.09854 0 0)
(0.202774 0.388024 0 6.03663 0 0)
(0.629662 0.609966 1.31814e-19 5.86378 1.75836e-19 6.76477e-37)
(1.32742 0.854537 0 5.74273 0 0)
(2.26982 1.13394 -1.92561e-19 5.68266 -3.53429e-19 9.19463e-37)
(3.44633 1.43882 -1.8421e-19 5.65538 -4.41323e-19 9.72561e-37)
(4.83584 1.76351 -8.08243e-20 5.63998 -2.51381e-19 2.48977e-37)
(6.42408 2.10402 -6.90952e-20 5.62199 -2.70302e-19 2.61231e-37)
(8.20316 2.45312 0 5.59368 0 0)
(10.1711 2.80633 -4.23177e-20 5.5511 -2.69118e-19 2.59389e-37)
(12.3291 3.15487 0 5.4992 0 0)
(14.6755 3.49637 0 5.43954 0 0)
(17.202 3.82563 9.51709e-20 5.37121 4.23712e-19 9.5102e-37)
(19.9093 4.1422 6.97798e-20 5.29928 1.86869e-19 2.34108e-37)
(22.7868 4.43639 -1.86065e-19 5.22405 -3.26171e-19 8.93557e-37)
(25.8285 4.70816 -2.52397e-19 5.14581 -2.81128e-19 8.65846e-37)
(29.0232 4.95904 -1.71578e-19 5.06139 -1.18405e-19 2.12732e-37)
(32.3645 5.19052 0 4.97059 0 0)
(35.8406 5.40086 0 4.87487 0 0)
(39.4429 5.59461 0 4.77218 0 0)
(43.1481 5.77104 -3.87148e-19 4.66729 -3.66285e-20 1.80389e-37)
(46.9473 5.92745 0 4.5628 0 0)
(50.8178 6.05543 1.6107e-18 4.45627 -1.66017e-20 1.5518e-36)
(54.7471 6.15866 0 4.3533 0 0)
(58.7179 6.23878 0 4.24805 0 0)
(62.713 6.29599 7.75443e-19 4.14372 -5.78277e-20 1.56503e-37)
(66.7045 6.32716 0 4.03759 0 0)
(70.6739 6.34156 -9.3357e-19 3.93677 8.18718e-20 1.45992e-37)
(74.5873 6.33272 -1.99471e-18 3.83663 1.81631e-19 5.57055e-37)
(78.4348 6.29541 1.0776e-18 3.73381 -9.87671e-20 1.36611e-37)
(82.2125 6.22664 0 3.62598 0 0)
(85.9202 6.12994 0 3.52067 0 0)
(89.5444 6.00782 0 3.41732 0 0)
(93.0891 5.86137 -2.57748e-18 3.30917 2.22659e-19 4.71324e-37)
(96.5458 5.68509 -2.65567e-18 3.20168 2.20119e-19 4.55154e-37)
(99.9282 5.47928 -1.37398e-18 3.10063 1.07456e-19 1.10754e-37)
(103.245 5.24229 0 3.00864 0 0)
(106.488 4.96913 2.8385e-18 2.92044 -2.02649e-19 4.12794e-37)
(109.668 4.65777 0 2.83519 0 0)
(112.777 4.31753 -2.87496e-18 2.75363 1.88034e-19 3.81541e-37)
(115.823 3.94953 0 2.67327 0 0)
(118.803 3.56157 0 2.60112 0 0)
(121.722 3.15764 2.82775e-18 2.53022 -1.53729e-19 3.31658e-37)
(124.567 2.73478 0 2.46495 0 0)
(127.318 2.28644 8.16025e-18 2.40704 -3.92633e-19 2.68428e-36)
(129.975 1.80843 -2.68891e-18 2.36177 1.18973e-19 2.83681e-37)
(132.539 1.3051 0 2.33468 0 0)
(135.028 0.776612 -2.54918e-18 2.31894 9.07949e-20 2.51747e-37)
(137.426 0.215428 -2.46853e-18 2.31275 7.6583e-20 2.36184e-37)
(139.731 -0.371988 0 2.31512 0 0)
(141.92 -0.971115 0 2.32858 0 0)
(143.974 -1.5678 0 2.34366 0 0)
(145.878 -2.15259 0 2.35723 0 0)
(147.595 -2.72986 0 2.38082 0 0)
(149.114 -3.30854 1.8835e-18 2.41359 1.45361e-20 1.72084e-37)
(150.411 -3.89616 3.45146e-18 2.45688 7.11773e-20 6.55858e-37)
(151.468 -4.48744 -1.64458e-18 2.50802 -5.59242e-20 1.601e-37)
(152.294 -5.09704 0 2.5642 0 0)
(152.865 -5.70808 2.68744e-18 2.62737 1.90257e-19 6.01451e-37)
(153.15 -6.29856 -1.17022e-18 2.69551 -1.13267e-19 1.46866e-37)
(153.179 -6.88393 0 2.77229 0 0)
(152.9 -7.46334 -9.78344e-19 2.86223 -1.48656e-19 1.49512e-37)
(152.325 -8.02101 0 2.95552 0 0)
(151.449 -8.56939 0 3.05682 0 0)
(150.267 -9.09945 -1.04757e-18 3.16297 -3.97049e-19 6.25606e-37)
(148.768 -9.60067 4.22587e-19 3.27382 2.15311e-19 1.63767e-37)
(146.989 -10.0941 -4.88941e-19 3.39416 -4.62364e-19 6.68492e-37)
(144.924 -10.5662 2.11751e-19 3.51871 4.89272e-19 6.92288e-37)