/*--------------------------------*- C++ -*----------------------------------*\
| =========                 |                                                 |
| \\      /  F ield         | OpenFOAM: The Open Source CFD Toolbox           |
|  \\    /   O peration     | Version:  dev                                   |
|   \\  /    A nd           | Web:      http://www.openfoam.org               |
|    \\/     M anipulation  |                                                 |
\*---------------------------------------------------------------------------*/
FoamFile
{
    version     2.0;
    format      ascii;
    class       volScalarField;
    object      k;
    location    "9.126";
}
// * * * * * * * * * * * * * * * * * * * * * * * * * * * * * * * * * * * * * //

dimensions      [0 2 -2 0 0 0 0];

internalField   nonuniform List<scalar> 
12225
(
8.0514
9.44043
6.77719
7.90868
9.03004
10.974
14.8866
15.5882
22.1584
20.5454
30.2315
25.3694
37.4527
29.8449
42.2444
30.4374
36.157
51.5348
1.49749
6.77248
5.86487
7.75906
5.64197
7.92351
6.44283
8.64202
7.72861
9.50006
9.14595
10.3843
11.2015
10.6209
15.5212
17.8661
40.5532
50.1215
0.135162
1.95064
2.0944
3.28174
3.00352
3.63581
3.42545
3.62514
3.72061
3.47977
3.96371
3.24466
4.26322
3.27621
5.4957
8.02174
30.2257
48.616
0.0160099
0.381056
0.606978
0.965175
1.40817
1.39132
1.94201
1.56023
2.12119
1.50787
1.97573
1.35465
1.81933
1.37643
2.53126
3.82242
18.5618
40.5324
0.00549665
0.140894
0.229142
0.379493
0.593178
0.624107
0.845982
0.754646
0.95144
0.733122
0.961941
0.698602
0.945469
0.731797
1.24258
1.54039
7.92213
22.722
0.00904834
0.0729135
0.112574
0.159544
0.24979
0.262173
0.367591
0.342564
0.442624
0.366629
0.482961
0.389221
0.535563
0.435239
0.686659
0.79676
2.79957
8.11456
0.0221021
0.0420142
0.0750947
0.093842
0.136868
0.146171
0.195441
0.194177
0.243471
0.227379
0.276016
0.256344
0.306765
0.293944
0.393735
0.465629
1.02958
1.8997
0.0338089
0.0526356
0.0729941
0.0912614
0.117373
0.129438
0.153169
0.163752
0.184711
0.192214
0.211145
0.217819
0.233904
0.243119
0.272498
0.324588
0.520305
0.585541
0.0576846
0.0941295
0.0953457
0.115279
0.124637
0.139384
0.152204
0.165496
0.178487
0.1911
0.201872
0.215506
0.221376
0.234683
0.24726
0.277309
0.346416
0.339046
0.108315
0.176176
0.166071
0.187668
0.175343
0.191086
0.18334
0.199533
0.19826
0.214065
0.216196
0.230853
0.232821
0.24426
0.250794
0.265802
0.29663
0.316427
0.231551
0.306
0.296266
0.322522
0.300653
0.314857
0.286
0.296914
0.279218
0.2894
0.281487
0.287235
0.285062
0.289079
0.294305
0.299682
0.311489
0.311926
0.489373
0.537933
0.51747
0.53263
0.506381
0.51015
0.478529
0.476698
0.455263
0.452536
0.437557
0.428669
0.421468
0.415112
0.412345
0.407018
0.407725
0.401214
0.954782
0.918208
0.865946
0.853129
0.7946
0.766956
0.707331
0.677694
0.642479
0.628143
0.609332
0.591731
0.575082
0.560525
0.545661
0.533738
0.522715
0.508583
1.58651
1.47795
1.34657
1.29142
1.18332
1.11433
1.02393
0.967749
0.920772
0.890402
0.856424
0.830909
0.798428
0.775035
0.741182
0.718606
0.685625
0.657321
2.445
2.2532
2.1074
2.00354
1.84841
1.68917
1.52897
1.39927
1.28708
1.1982
1.11347
1.04758
0.980736
0.931282
0.87326
0.835284
0.785879
0.749062
3.56446
3.19465
2.80226
2.49194
2.20645
1.96347
1.75393
1.58527
1.44149
1.32696
1.22141
1.13865
1.05701
0.996363
0.928997
0.883592
0.826645
0.786782
4.06473
3.53875
3.00908
2.63327
2.31454
2.04941
1.82603
1.645
1.48925
1.3644
1.25097
1.16226
1.07539
1.01083
0.941006
0.894031
0.835597
0.794707
4.0426
3.52423
2.98893
2.61487
2.30048
2.03934
1.81836
1.63829
1.48111
1.3547
1.23983
1.14908
1.0615
0.99687
0.92691
0.879942
0.822849
0.782987
3.28459
3.0114
2.67314
2.38304
2.12546
1.90422
1.71185
1.55101
1.40654
1.28693
1.17616
1.08833
1.00355
0.941
0.874717
0.830267
0.775278
0.738215
2.19126
2.05102
1.92734
1.80905
1.67802
1.55253
1.43176
1.32163
1.21288
1.1167
1.02187
0.94544
0.871175
0.816553
0.758408
0.720812
0.673084
0.641914
1.3538
1.25532
1.1654
1.10389
1.02982
0.975051
0.933579
0.894001
0.844275
0.792579
0.732041
0.681216
0.628045
0.588976
0.546058
0.519539
0.485797
0.464057
0.791933
0.777693
0.75396
0.728996
0.686805
0.651346
0.620109
0.58575
0.546664
0.510344
0.47354
0.443231
0.418087
0.402317
0.386966
0.377573
0.365778
0.358028
0.391097
0.406085
0.408576
0.402505
0.392968
0.377926
0.360776
0.355357
0.354633
0.355608
0.354066
0.351259
0.347744
0.344891
0.341245
0.338505
0.334775
0.331961
0.19369
0.203636
0.199249
0.206266
0.227331
0.250449
0.27168
0.292404
0.30958
0.322381
0.329336
0.333179
0.335196
0.336347
0.336277
0.335668
0.334786
0.333156
0.0732345
0.0827495
0.109322
0.153826
0.195964
0.231322
0.263969
0.293885
0.319363
0.339656
0.353352
0.362674
0.369488
0.375005
0.378281
0.381628
0.383343
0.385502
0.0224431
0.0507286
0.101793
0.178534
0.259039
0.324143
0.380635
0.42672
0.464975
0.495176
0.514287
0.52787
0.540887
0.551736
0.56055
0.570914
0.57685
0.587269
0.0121471
0.0889238
0.271426
0.477354
0.662253
0.787719
0.885251
0.95102
1.0005
1.03125
1.04118
1.04677
1.05902
1.06903
1.08115
1.08847
1.09644
1.10157
0.0854157
0.57266
1.29063
1.72102
2.0091
2.16224
2.25704
2.29044
2.29779
2.28133
2.24379
2.20402
2.16851
2.14361
2.10791
2.05655
1.99613
1.93651
1.03605
3.7662
5.10878
5.2675
5.06084
4.77533
4.50945
4.28655
4.10053
3.96102
3.84101
3.71627
3.57314
3.43655
3.27866
3.13195
2.99603
2.83759
6.42987
9.83076
8.84095
7.32177
6.27945
5.9153
5.82764
5.84961
5.93911
6.03302
6.09352
6.11571
6.10008
6.04134
5.95156
5.84203
5.70266
5.44162
0.116007
0.207449
0.243595
0.265143
0.272469
0.280002
0.291923
0.309708
0.338329
0.373434
0.415117
0.462129
0.514292
0.569795
0.628446
0.688294
0.752301
0.816272
0.881243
0.952856
1.03226
1.11773
1.2012
1.28994
1.39192
1.50332
1.61302
1.73056
1.86023
1.99073
2.12357
2.29255
2.45461
2.64408
2.87036
3.11849
3.39312
3.68894
4.03128
4.42448
4.90483
5.45638
6.04921
6.67847
7.34349
8.09423
8.85071
9.38578
9.60714
9.65091
9.66331
9.67475
9.64787
9.48905
9.35882
9.28156
9.2124
9.15149
9.0492
8.90043
8.8473
8.75268
8.63696
8.52223
8.3885
8.08232
7.84621
7.85839
7.8942
7.79284
7.66745
7.70549
7.67059
7.51631
7.15665
6.90896
6.85232
6.92284
7.04675
7.14878
7.21597
7.24774
7.16185
7.02637
6.82816
6.5958
6.31715
6.01469
5.67648
5.34096
4.97364
4.55867
4.17442
3.79506
3.29832
2.9356
2.72444
2.3468
2.11552
1.87227
1.74147
1.56185
1.46238
1.35234
1.27289
1.21456
1.17548
1.15288
1.14415
1.14987
1.16702
1.1972
1.23925
1.29755
1.35711
1.41609
1.49364
1.61784
1.77066
2.01543
2.31864
2.5733
2.84655
3.29354
3.78664
4.1742
4.53185
5.01253
5.64673
6.20738
6.70466
7.24531
7.49024
7.65517
7.78014
7.81454
8.01695
8.13966
8.25063
8.25891
8.25069
8.25893
8.25177
8.32162
8.33225
8.46744
8.41321
8.50151
8.4364
8.35593
8.08547
7.72067
7.3092
6.87712
6.50183
6.13575
5.90516
5.69081
5.7096
5.98948
6.26639
6.30347
5.95759
5.38497
4.6877
4.12663
3.56893
3.1167
3.0694
3.0745
3.26085
3.66676
4.4533
4.73886
5.21577
5.3697
4.45436
4.30804
4.71532
5.30789
0.382968
0.229885
0.219559
0.210153
0.192461
0.184928
0.184091
0.188535
0.199159
0.212678
0.228161
0.24469
0.262527
0.278926
0.294273
0.30867
0.323826
0.335487
0.344584
0.355555
0.366697
0.37414
0.376022
0.378184
0.384216
0.389859
0.390271
0.39185
0.392232
0.388677
0.382848
0.384384
0.38021
0.375538
0.378465
0.382283
0.387334
0.3894
0.390436
0.394266
0.405992
0.423705
0.444671
0.486717
0.578987
0.738875
0.882042
1.13917
1.65739
2.04577
2.29454
2.48428
2.54123
2.47711
2.24725
2.20397
2.23625
2.23937
2.23062
2.08844
1.86243
1.86933
1.8702
1.82406
1.79008
1.7118
1.47192
1.47479
1.55929
1.77901
2.3474
3.45293
4.15472
4.42189
4.41205
4.24404
4.0544
3.82268
3.55128
3.27587
3.01415
2.76428
2.49644
2.2634
2.05308
1.88013
1.71875
1.56954
1.43494
1.31135
1.20191
1.10419
1.03448
0.951541
0.88719
0.858215
0.82625
0.776402
0.752614
0.718059
0.698854
0.692095
0.690456
0.687097
0.696762
0.701451
0.702463
0.706362
0.711387
0.718895
0.722601
0.729067
0.739142
0.756019
0.765384
0.768494
0.772037
0.776965
0.79278
0.8334
0.926858
0.991884
1.03773
1.10823
1.27518
1.3879
1.43136
1.51021
1.75133
2.11493
2.63447
3.33054
3.86786
4.00019
4.24592
4.25273
4.56046
4.45595
4.44607
4.30541
4.09092
3.99689
3.76632
3.80528
3.68281
3.73801
3.65358
3.68233
3.61457
3.56168
3.42655
3.28242
3.18535
3.11998
3.12347
3.11366
3.11415
3.12412
3.13755
3.32518
3.80058
4.36469
4.71997
4.75098
4.55806
4.10602
3.6258
3.13667
2.94577
2.81221
2.76624
2.75124
2.85175
2.86146
2.92768
3.23804
3.21292
2.85097
2.92239
3.16595
1.03967
0.273613
0.202838
0.168773
0.146461
0.137399
0.135547
0.137392
0.142805
0.150311
0.159261
0.169238
0.178895
0.190985
0.205446
0.216648
0.226513
0.230817
0.231735
0.232152
0.230968
0.227378
0.221732
0.219464
0.219178
0.219232
0.219924
0.222188
0.225915
0.227916
0.228247
0.229712
0.230324
0.232525
0.240345
0.249514
0.261331
0.27058
0.275857
0.281862
0.28588
0.28635
0.283032
0.281459
0.2831
0.290069
0.299427
0.315783
0.371029
0.467283
0.535517
0.685058
0.926379
1.04043
1.04655
1.03785
1.00868
0.92611
0.894842
0.851212
0.714846
0.654283
0.583145
0.555462
0.578824
0.669209
0.817906
1.17156
1.63142
2.05601
2.54095
2.81596
2.79804
2.60704
2.33974
2.06169
1.81994
1.57473
1.36376
1.1966
1.06358
0.942168
0.836692
0.76441
0.707536
0.669875
0.63268
0.598526
0.568647
0.539946
0.516121
0.502323
0.492752
0.484358
0.485026
0.494011
0.498385
0.502505
0.507175
0.484732
0.46344
0.465825
0.465582
0.468655
0.483124
0.501265
0.508837
0.52379
0.531954
0.54204
0.545445
0.551552
0.557112
0.576066
0.593515
0.594135
0.589636
0.581375
0.57556
0.577985
0.593063
0.600981
0.612104
0.620722
0.652385
0.688265
0.724531
0.78411
0.933355
1.20118
1.60447
2.04291
2.32128
2.29514
2.31034
2.39481
2.55001
2.36958
2.25812
2.27926
2.1797
2.18071
2.12519
2.15595
2.1603
2.20093
2.24742
2.29956
2.33117
2.32163
2.29461
2.22721
2.20728
2.16781
2.18396
2.17384
2.16765
2.17839
2.07284
2.03123
2.13634
2.42169
2.82809
3.09598
3.3763
3.49313
3.43519
3.16472
2.905
2.60699
2.37302
2.21614
2.23827
2.27511
2.23123
2.22679
2.40299
2.12166
2.08185
2.19473
2.51104
0.398186
0.208709
0.168886
0.146176
0.13414
0.130574
0.13262
0.140271
0.149172
0.158375
0.170625
0.190229
0.21411
0.221375
0.229641
0.233678
0.233377
0.228312
0.221198
0.214115
0.207787
0.20231
0.200237
0.200254
0.200887
0.20255
0.206209
0.210045
0.211084
0.210615
0.208961
0.207863
0.208887
0.212528
0.22121
0.230739
0.24245
0.252672
0.257544
0.261408
0.266636
0.27061
0.278862
0.287641
0.289342
0.28762
0.276939
0.270706
0.270099
0.276033
0.29441
0.355598
0.455586
0.520511
0.557379
0.559666
0.520416
0.489681
0.434149
0.386681
0.359795
0.340657
0.342679
0.378877
0.501581
1.02729
1.54164
1.79481
2.02495
2.01069
1.83736
1.67379
1.42732
1.23194
1.05392
0.905067
0.767469
0.664991
0.596022
0.548541
0.502901
0.465816
0.446638
0.433645
0.426943
0.421977
0.417686
0.414647
0.408799
0.398054
0.386082
0.376268
0.373995
0.376835
0.386477
0.388906
0.403713
0.426857
0.416277
0.397483
0.397147
0.388416
0.39086
0.39223
0.395533
0.404696
0.427759
0.438916
0.452842
0.46058
0.469133
0.474884
0.488176
0.5276
0.555585
0.554136
0.550531
0.54589
0.551316
0.550909
0.547139
0.540043
0.540649
0.54978
0.562429
0.588061
0.638629
0.75314
0.958953
1.30588
1.55118
1.64395
1.60178
1.55677
1.65237
1.75046
1.71379
1.6301
1.68173
1.70789
1.69619
1.73325
1.72324
1.74655
1.73842
1.75296
1.80258
1.8397
1.84567
1.84387
1.81186
1.8102
1.79788
1.7942
1.76513
1.74371
1.8094
1.7609
1.61688
1.57519
1.63792
1.84534
2.03255
2.30508
2.50608
2.81328
2.92301
2.86604
2.56664
2.22407
2.04808
2.07787
2.17877
2.15769
2.03408
2.06714
1.73137
1.66682
1.7694
4.45859
0.67437
0.23339
0.181908
0.157598
0.139398
0.134228
0.136445
0.146504
0.162317
0.194343
0.231153
0.24513
0.266048
0.268193
0.244762
0.23647
0.231032
0.223096
0.21589
0.209015
0.203688
0.201126
0.200784
0.201888
0.205224
0.210167
0.217854
0.223297
0.22505
0.224464
0.220147
0.210733
0.203681
0.20036
0.199907
0.200714
0.203676
0.212368
0.219818
0.22916
0.248888
0.267281
0.276598
0.278609
0.274485
0.263551
0.259634
0.25813
0.249406
0.239243
0.236925
0.240678
0.258028
0.304736
0.341614
0.349992
0.341667
0.318633
0.28987
0.279538
0.276678
0.279215
0.297754
0.371743
0.64101
1.30783
1.64802
1.69779
1.60177
1.41212
1.16197
0.99245
0.819599
0.704371
0.625115
0.55892
0.495885
0.448689
0.416747
0.391833
0.367443
0.353394
0.34595
0.344448
0.346005
0.351813
0.357763
0.367013
0.371214
0.36576
0.354103
0.3417
0.33685
0.337476
0.342079
0.336632
0.333374
0.358348
0.385421
0.380575
0.376428
0.363158
0.369388
0.365843
0.354007
0.350151
0.366147
0.382112
0.391124
0.393225
0.394535
0.393936
0.398578
0.413372
0.46205
0.481089
0.490515
0.496992
0.506901
0.527189
0.540972
0.537217
0.542294
0.565946
0.572686
0.573242
0.595655
0.69955
0.886569
1.14591
1.3268
1.35383
1.34506
1.2981
1.37477
1.39433
1.36887
1.38817
1.42076
1.51754
1.51832
1.5927
1.58811
1.61292
1.58962
1.54574
1.55613
1.59294
1.62913
1.63211
1.61049
1.57111
1.56407
1.52658
1.43743
1.41122
1.49495
1.55953
1.52786
1.36676
1.33315
1.38334
1.47356
1.67012
1.82675
2.0233
2.41213
2.5336
2.47015
2.16944
1.96687
2.01447
2.14994
2.19863
2.06538
1.96993
1.60138
1.53095
1.5557
6.76336
1.21348
0.297263
0.192406
0.180255
0.160623
0.143285
0.147361
0.169779
0.23253
0.327709
0.319221
0.272526
0.264036
0.271228
0.248139
0.235845
0.231526
0.22102
0.217647
0.213221
0.211095
0.214668
0.222801
0.234378
0.249946
0.268962
0.289681
0.304661
0.313644
0.314989
0.309472
0.284089
0.246686
0.219509
0.203481
0.196011
0.192589
0.192535
0.194512
0.201315
0.210441
0.226203
0.240021
0.248635
0.254674
0.256756
0.257191
0.253336
0.238397
0.226932
0.217798
0.215344
0.215605
0.219604
0.244805
0.259322
0.258606
0.248657
0.245183
0.246308
0.255692
0.270096
0.305613
0.405028
0.791181
1.45865
1.63074
1.51935
1.15156
0.944087
0.748303
0.626524
0.538064
0.490668
0.466514
0.439086
0.404992
0.36994
0.34383
0.320606
0.29771
0.286037
0.280378
0.278423
0.278896
0.282382
0.289243
0.302772
0.318326
0.326343
0.331295
0.327443
0.321867
0.321669
0.324396
0.321614
0.315029
0.315032
0.351121
0.368561
0.362696
0.350985
0.36128
0.359295
0.345342
0.326426
0.336928
0.355317
0.365723
0.364089
0.361202
0.357032
0.356918
0.360758
0.38035
0.406425
0.410451
0.41376
0.423456
0.438418
0.491239
0.519416
0.538762
0.563013
0.606209
0.603518
0.607512
0.6529
0.837813
1.00909
1.21124
1.22144
1.2444
1.22035
1.26004
1.28538
1.25483
1.29065
1.29779
1.35617
1.36037
1.41314
1.41005
1.41915
1.4198
1.38015
1.38744
1.39774
1.43501
1.44311
1.41401
1.38934
1.39477
1.34533
1.24428
1.09619
1.2071
1.28901
1.34748
1.30009
1.16698
1.17355
1.21537
1.35681
1.47149
1.55137
1.80494
2.10141
2.21327
2.16322
1.94169
1.99097
2.10391
2.20219
2.20195
2.06163
1.64511
1.51365
1.49839
9.20621
1.71145
0.412759
0.206532
0.187845
0.176278
0.158583
0.178426
0.274755
0.370483
0.346204
0.30978
0.280902
0.261874
0.26362
0.245022
0.229126
0.226095
0.215441
0.215842
0.218974
0.222448
0.231999
0.244302
0.258938
0.279245
0.301767
0.327482
0.353312
0.374251
0.38934
0.395773
0.391467
0.372708
0.319548
0.258821
0.218193
0.198323
0.190491
0.188328
0.188017
0.189039
0.193581
0.212533
0.232112
0.245477
0.249339
0.249407
0.239917
0.219019
0.20254
0.191427
0.188138
0.189165
0.193884
0.209753
0.224221
0.229609
0.234384
0.239287
0.251258
0.269972
0.307492
0.387105
0.520522
1.01736
1.53297
1.5619
1.2145
0.816771
0.636783
0.528953
0.476152
0.447662
0.432722
0.417822
0.385834
0.345558
0.314967
0.292404
0.274931
0.261594
0.251859
0.248167
0.246693
0.246836
0.250298
0.258133
0.264401
0.268726
0.274382
0.284695
0.300666
0.308342
0.312328
0.315414
0.318032
0.314571
0.310336
0.32468
0.329239
0.324356
0.321601
0.337601
0.34824
0.345684
0.318954
0.310152
0.328066
0.349487
0.346382
0.345528
0.327427
0.322307
0.321382
0.333595
0.338132
0.356252
0.361129
0.381458
0.390935
0.416318
0.446536
0.501418
0.528724
0.600191
0.634333
0.646326
0.653221
0.756257
0.893036
1.13562
1.14071
1.14714
1.15182
1.18705
1.27057
1.23835
1.27276
1.26193
1.30779
1.29728
1.28744
1.27186
1.24431
1.26557
1.23773
1.24088
1.23453
1.23625
1.24063
1.21104
1.12024
1.11832
1.06122
1.07231
1.01665
1.06522
1.11767
1.22368
1.22237
1.09623
1.07544
1.09482
1.21172
1.3141
1.32864
1.43061
1.65755
1.9601
2.06137
1.92252
1.92619
2.06083
2.14011
2.2435
2.20158
1.85594
1.52439
1.47066
11.9093
2.08685
0.509438
0.212125
0.195882
0.199035
0.186789
0.283509
0.381692
0.376011
0.322346
0.291965
0.275134
0.237646
0.223947
0.211738
0.202176
0.210597
0.209471
0.211637
0.216376
0.220556
0.228815
0.237406
0.248365
0.263473
0.283042
0.305
0.331931
0.351665
0.37784
0.39736
0.40267
0.398311
0.37573
0.317098
0.264963
0.230739
0.207957
0.194681
0.188615
0.187083
0.188251
0.195794
0.219964
0.237282
0.242074
0.241532
0.224435
0.197081
0.181557
0.175595
0.175789
0.178584
0.188322
0.207129
0.224427
0.246573
0.266459
0.28001
0.301811
0.346093
0.497811
0.633892
0.872625
1.33511
1.50741
1.36167
0.84326
0.576827
0.477038
0.439785
0.431852
0.421
0.391479
0.349822
0.312302
0.280756
0.261142
0.248493
0.23881
0.231584
0.226704
0.224607
0.224535
0.227475
0.234922
0.2429
0.248276
0.250878
0.255376
0.258975
0.264791
0.274594
0.287379
0.302956
0.310149
0.312377
0.31593
0.319311
0.321514
0.303392
0.299378
0.294066
0.314279
0.344474
0.321477
0.299441
0.302835
0.32422
0.330605
0.33621
0.313617
0.30366
0.298424
0.304598
0.305838
0.318193
0.321347
0.339974
0.3488
0.369454
0.379756
0.433663
0.454314
0.526757
0.569624
0.676841
0.672988
0.703722
0.761182
0.957629
1.07875
1.10174
1.1393
1.15915
1.25054
1.22622
1.25913
1.2385
1.22901
1.18424
1.0794
1.06238
1.0377
1.05166
1.02905
1.02478
1.04949
1.05063
1.04922
1.03143
0.915679
0.884396
0.839932
0.866775
0.979811
0.95357
1.0396
1.15595
1.17482
1.06194
1.02742
1.04681
1.15011
1.24815
1.24789
1.26722
1.41288
1.64207
1.872
1.8083
1.73822
1.96964
2.03402
2.22944
2.22497
2.01972
1.57239
1.42764
14.7028
2.45345
0.575425
0.213421
0.196425
0.205259
0.232528
0.355818
0.399354
0.354618
0.301434
0.279907
0.238912
0.189634
0.179099
0.176481
0.172393
0.181253
0.195134
0.203215
0.206349
0.209032
0.213462
0.216503
0.219777
0.226204
0.240535
0.269209
0.30363
0.323734
0.343989
0.370928
0.385819
0.385742
0.372401
0.31666
0.273434
0.260952
0.241937
0.21869
0.202966
0.194149
0.192411
0.195074
0.215158
0.238586
0.245993
0.244662
0.221565
0.19219
0.177885
0.174257
0.175
0.180787
0.199564
0.251195
0.30506
0.334824
0.374163
0.412484
0.489554
0.649076
0.78194
0.970716
1.19522
1.38952
1.36351
0.975639
0.588979
0.445837
0.407946
0.405665
0.401525
0.376525
0.323415
0.281876
0.257872
0.243447
0.233762
0.225086
0.215454
0.209283
0.205242
0.203011
0.204291
0.21009
0.216806
0.22308
0.232383
0.238646
0.242914
0.244379
0.245471
0.247182
0.259993
0.280289
0.290004
0.291246
0.305785
0.31425
0.324385
0.293773
0.297864
0.281795
0.284457
0.312132
0.318426
0.295819
0.292646
0.295412
0.310162
0.320917
0.306726
0.29755
0.29086
0.292883
0.292619
0.295844
0.298475
0.310081
0.315566
0.335657
0.34205
0.373455
0.392358
0.442473
0.470834
0.564465
0.656262
0.699693
0.728501
0.783445
0.927311
0.979835
1.07725
1.09988
1.20202
1.18737
1.17921
1.12484
0.998682
0.956064
0.88592
0.890275
0.887108
0.908688
0.910348
0.89092
0.890551
0.864741
0.830417
0.831824
0.780377
0.755702
0.731216
0.756864
0.948833
0.919663
1.0072
1.05517
1.07651
0.997232
0.984436
1.03299
1.12823
1.22231
1.23002
1.2034
1.2896
1.43618
1.63599
1.62673
1.5045
1.71761
1.86946
2.14873
2.18015
2.04044
1.62284
1.41947
17.7382
2.83751
0.629878
0.216027
0.195263
0.204153
0.252629
0.37424
0.391753
0.317318
0.284762
0.258633
0.204808
0.172449
0.158484
0.156508
0.158341
0.161415
0.170731
0.183747
0.197093
0.205027
0.210841
0.213602
0.215046
0.218338
0.228266
0.257152
0.306029
0.333574
0.350991
0.382521
0.404014
0.403143
0.37723
0.303656
0.274181
0.267517
0.257836
0.239391
0.226662
0.213998
0.201957
0.200853
0.208444
0.238716
0.25464
0.256331
0.236818
0.201133
0.183874
0.181492
0.186185
0.209792
0.275049
0.318458
0.361612
0.446575
0.543824
0.657442
0.77752
0.875931
0.947721
1.08159
1.24998
1.25821
1.06712
0.641576
0.441453
0.381394
0.375027
0.374844
0.360767
0.313206
0.268898
0.243015
0.231025
0.224582
0.213364
0.198369
0.188255
0.183354
0.182273
0.183063
0.190202
0.199386
0.206449
0.212459
0.220558
0.225293
0.226895
0.226796
0.224647
0.224843
0.22977
0.241321
0.254584
0.266511
0.276964
0.280295
0.305095
0.279756
0.298833
0.276569
0.281972
0.278841
0.293934
0.284349
0.285152
0.281991
0.296608
0.309914
0.303611
0.296369
0.290134
0.289924
0.289192
0.285783
0.284936
0.28997
0.298617
0.307972
0.319993
0.333575
0.361663
0.386351
0.417109
0.44214
0.551591
0.627873
0.712789
0.736633
0.818942
0.84485
0.913284
0.940429
1.01084
1.00698
0.971056
0.90754
0.82275
0.808118
0.790372
0.796416
0.79163
0.802098
0.801094
0.758131
0.739851
0.71139
0.671708
0.681407
0.662861
0.663466
0.678882
0.724376
0.917419
0.919403
0.923695
0.942938
0.947009
0.904226
0.949011
1.06565
1.10808
1.17074
1.20875
1.1879
1.14646
1.31534
1.46036
1.48604
1.36743
1.38498
1.59925
2.02583
2.0873
1.99331
1.65833
1.45341
20.5558
3.31116
0.749208
0.225033
0.18817
0.192161
0.252971
0.374923
0.378276
0.302962
0.262755
0.23754
0.191398
0.171604
0.158568
0.154591
0.156623
0.158946
0.164303
0.174034
0.186863
0.199311
0.20813
0.215236
0.2199
0.222492
0.229936
0.254001
0.31296
0.343245
0.363375
0.424486
0.475039
0.473512
0.416249
0.314395
0.280336
0.265645
0.256499
0.252964
0.250564
0.244992
0.220088
0.204836
0.204286
0.220999
0.250681
0.259665
0.257719
0.231291
0.205026
0.200172
0.205023
0.229979
0.269087
0.348372
0.474694
0.608272
0.712946
0.799451
0.884846
0.938842
0.976976
1.0788
1.1292
1.06021
0.719292
0.463828
0.370148
0.351207
0.349637
0.341748
0.305949
0.259963
0.233013
0.218069
0.211915
0.203034
0.186315
0.174584
0.169745
0.17042
0.171192
0.17323
0.178691
0.188806
0.199627
0.206388
0.212995
0.218657
0.221931
0.222125
0.220602
0.221485
0.224135
0.229265
0.232461
0.235004
0.241097
0.247667
0.25854
0.267452
0.280348
0.263018
0.278951
0.270038
0.275834
0.270029
0.271332
0.267119
0.279463
0.303872
0.301969
0.298084
0.294445
0.291415
0.288319
0.283616
0.279716
0.279645
0.286863
0.287891
0.30571
0.312996
0.339272
0.352108
0.379257
0.392865
0.445145
0.488358
0.609282
0.664393
0.753523
0.768715
0.822373
0.847516
0.876755
0.87366
0.842644
0.806971
0.760475
0.746857
0.704644
0.697395
0.685243
0.684328
0.678984
0.636273
0.62103
0.587995
0.577117
0.59361
0.599523
0.620277
0.664278
0.715435
0.872267
0.903105
0.868524
0.887599
0.870797
0.86442
0.951358
1.12115
1.11661
1.13797
1.16563
1.16295
1.08927
1.20578
1.33458
1.36518
1.31244
1.23286
1.34766
1.85465
1.97941
1.88041
1.64329
1.49649
23.0004
3.78242
0.921584
0.251782
0.187449
0.169843
0.239724
0.369486
0.372694
0.304086
0.257264
0.227826
0.190318
0.174514
0.165261
0.160046
0.159652
0.158928
0.1558
0.154273
0.156704
0.164159
0.174536
0.187155
0.205163
0.217813
0.22398
0.238979
0.292486
0.330582
0.354346
0.430585
0.513717
0.519895
0.463757
0.350128
0.313103
0.282838
0.266837
0.266212
0.270242
0.269574
0.250866
0.210607
0.199129
0.20118
0.230526
0.258426
0.264451
0.258395
0.223854
0.210023
0.212571
0.229161
0.290886
0.44778
0.602853
0.709851
0.77923
0.835654
0.889979
0.921005
0.95208
0.959872
0.920665
0.717143
0.477479
0.357325
0.325937
0.326425
0.325185
0.305191
0.256347
0.226092
0.211371
0.201885
0.194568
0.180104
0.167969
0.162419
0.162226
0.164785
0.165641
0.167867
0.172996
0.178153
0.184295
0.191789
0.195714
0.205075
0.214538
0.217084
0.217725
0.219518
0.222508
0.226418
0.226855
0.227753
0.229484
0.234904
0.241978
0.260677
0.267494
0.261348
0.262318
0.26435
0.267614
0.264302
0.265736
0.263641
0.265801
0.289555
0.295617
0.295976
0.296191
0.294706
0.293045
0.286839
0.280964
0.274954
0.280955
0.275373
0.292726
0.293187
0.318081
0.330629
0.351182
0.366299
0.383261
0.406361
0.479488
0.525817
0.623107
0.650892
0.708594
0.750848
0.769366
0.768084
0.741991
0.715999
0.657612
0.632777
0.608755
0.597695
0.583399
0.576793
0.568452
0.55012
0.531274
0.522385
0.532147
0.549358
0.567804
0.613774
0.684733
0.718898
0.803721
0.842446
0.856479
0.868204
0.85141
0.867529
1.02579
1.22267
1.17289
1.1237
1.14156
1.10308
1.07056
1.10232
1.16468
1.2533
1.28621
1.17804
1.24047
1.69558
1.86392
1.74114
1.5838
1.54282
24.8457
4.25341
1.18309
0.315001
0.192245
0.164269
0.204907
0.349225
0.359438
0.310166
0.258655
0.221722
0.188398
0.17518
0.167001
0.162827
0.160641
0.158107
0.149172
0.143062
0.141193
0.141655
0.143343
0.147696
0.158721
0.18895
0.2087
0.223027
0.270498
0.326371
0.352432
0.424503
0.515208
0.524564
0.472212
0.393877
0.354888
0.304347
0.276519
0.272189
0.276676
0.277382
0.264619
0.216427
0.191991
0.189043
0.198234
0.238096
0.26399
0.267317
0.249407
0.22383
0.224361
0.245434
0.357508
0.538854
0.66335
0.741462
0.788623
0.825317
0.849928
0.857622
0.850771
0.811896
0.68115
0.487412
0.358728
0.307163
0.299197
0.302245
0.298147
0.268267
0.225511
0.205757
0.192977
0.185049
0.17708
0.16489
0.15774
0.155927
0.158369
0.161001
0.161994
0.165609
0.170797
0.173876
0.176034
0.177911
0.179645
0.18539
0.195682
0.20484
0.211133
0.215096
0.217511
0.217381
0.216993
0.219487
0.222422
0.227936
0.238764
0.251408
0.256947
0.262624
0.259344
0.26149
0.26334
0.260749
0.261794
0.264043
0.262577
0.279823
0.288462
0.285008
0.294558
0.292615
0.294894
0.29261
0.285462
0.273572
0.274546
0.268633
0.280624
0.279972
0.298032
0.306809
0.327018
0.340158
0.349918
0.367763
0.401094
0.42452
0.498511
0.532788
0.555259
0.610405
0.628365
0.640837
0.619736
0.609745
0.563802
0.540785
0.531731
0.518024
0.508885
0.50609
0.498945
0.49309
0.489552
0.491821
0.517582
0.535888
0.562293
0.626492
0.741505
0.748242
0.772798
0.844324
0.910842
0.924821
0.907296
0.954336
1.14
1.29252
1.21357
1.13075
1.13768
1.06258
1.06046
1.03151
1.04732
1.17401
1.25857
1.1532
1.21587
1.48189
1.60546
1.50748
1.53525
1.59969
26.2037
4.54288
1.53275
0.459303
0.214919
0.167148
0.192951
0.305349
0.344027
0.31585
0.265548
0.222488
0.188611
0.172679
0.16424
0.161728
0.159898
0.156763
0.147662
0.138155
0.135056
0.135277
0.135596
0.13761
0.143556
0.15905
0.195119
0.217317
0.275716
0.347699
0.37742
0.451667
0.525819
0.52844
0.464628
0.416979
0.364284
0.305587
0.279868
0.276115
0.276417
0.273283
0.257267
0.207914
0.179501
0.173774
0.175804
0.199054
0.247637
0.266881
0.265578
0.246903
0.247233
0.270907
0.403415
0.577793
0.678705
0.736806
0.766109
0.76763
0.761596
0.748719
0.717026
0.638133
0.496837
0.373642
0.309532
0.290483
0.289088
0.286698
0.272935
0.234279
0.203195
0.188886
0.177132
0.170868
0.163011
0.154707
0.15155
0.152119
0.15617
0.159312
0.160848
0.164731
0.169571
0.172131
0.174502
0.175971
0.177438
0.182139
0.18943
0.197133
0.203966
0.211379
0.21546
0.2124
0.209706
0.211487
0.215169
0.223173
0.234923
0.247866
0.252461
0.259252
0.257834
0.26011
0.262065
0.260021
0.260147
0.26562
0.262813
0.277371
0.286452
0.279024
0.291245
0.288996
0.293597
0.292518
0.289215
0.277765
0.270465
0.266321
0.267528
0.271515
0.285827
0.293502
0.310371
0.316312
0.335277
0.351281
0.362904
0.378752
0.415489
0.454694
0.474917
0.500357
0.513319
0.529649
0.518818
0.522098
0.495854
0.486846
0.481987
0.46802
0.467479
0.464187
0.460456
0.466052
0.469634
0.483045
0.516801
0.536479
0.574823
0.672339
0.773995
0.757973
0.766128
0.875413
1.05762
1.18811
1.16614
1.17721
1.19638
1.29007
1.21588
1.13195
1.12141
1.04181
1.04003
1.01671
1.01666
1.15019
1.20495
1.14192
1.23195
1.2973
1.27268
1.2896
1.54059
1.69136
27.1396
4.57403
1.77543
0.732487
0.315453
0.189681
0.196008
0.256175
0.321996
0.314181
0.28486
0.233809
0.193199
0.172884
0.162519
0.156066
0.151867
0.149089
0.142142
0.134549
0.132239
0.131806
0.131224
0.132329
0.137345
0.147597
0.172482
0.209101
0.29727
0.36046
0.395529
0.491717
0.540534
0.528828
0.457857
0.418104
0.342109
0.295691
0.288076
0.287434
0.279357
0.239017
0.200817
0.174328
0.158919
0.156306
0.158947
0.168498
0.207965
0.256146
0.268341
0.264954
0.266491
0.288838
0.415987
0.584901
0.666469
0.693625
0.697641
0.688893
0.65979
0.630371
0.570421
0.472405
0.364952
0.297702
0.271195
0.27024
0.273931
0.270527
0.250015
0.209228
0.185554
0.173923
0.164732
0.159808
0.154651
0.150548
0.149361
0.150309
0.154842
0.158733
0.160844
0.164982
0.169125
0.171731
0.174404
0.175988
0.177191
0.180384
0.185407
0.191133
0.197498
0.202709
0.205909
0.205047
0.205467
0.208188
0.213696
0.222681
0.231487
0.241697
0.248388
0.250737
0.253699
0.258418
0.26157
0.264755
0.266572
0.272165
0.269521
0.277318
0.286965
0.277969
0.285592
0.282782
0.289058
0.288767
0.28869
0.281089
0.270178
0.265542
0.261446
0.266298
0.275115
0.283562
0.301057
0.303317
0.3245
0.335715
0.347691
0.363472
0.374167
0.406717
0.422033
0.434175
0.452982
0.456559
0.457943
0.463838
0.450355
0.452563
0.446319
0.441055
0.445479
0.438756
0.442362
0.457952
0.464082
0.494161
0.528601
0.548901
0.613643
0.738367
0.789717
0.764366
0.773783
0.95614
1.20077
1.4042
1.41051
1.32427
1.21739
1.20315
1.16014
1.10881
1.09086
1.02669
1.03738
1.02119
1.01163
1.15128
1.17082
1.16423
1.29691
1.24053
1.17504
1.24779
1.6466
1.76811
28.2922
4.70492
1.90643
0.944972
0.510656
0.294077
0.2282
0.250893
0.28435
0.294953
0.281795
0.248447
0.206012
0.177741
0.165046
0.15726
0.15124
0.146532
0.141103
0.135314
0.132906
0.132553
0.131815
0.13213
0.136468
0.14465
0.16287
0.217227
0.304293
0.368743
0.404186
0.504524
0.541447
0.504537
0.451448
0.374138
0.309405
0.29227
0.300777
0.30201
0.261964
0.192042
0.166659
0.153248
0.147049
0.145638
0.147204
0.154445
0.168234
0.218895
0.263935
0.273824
0.280089
0.298591
0.40842
0.567454
0.639592
0.651566
0.636344
0.59367
0.560086
0.513657
0.445155
0.362501
0.297348
0.26293
0.253386
0.253464
0.254106
0.249664
0.227968
0.193708
0.176217
0.166022
0.159007
0.155237
0.151718
0.149089
0.148485
0.149728
0.154352
0.159724
0.163692
0.16764
0.170432
0.172023
0.175344
0.178159
0.179149
0.179486
0.18121
0.184181
0.189758
0.195493
0.19967
0.20082
0.203062
0.206889
0.213696
0.222998
0.230876
0.238795
0.241314
0.244085
0.251045
0.258394
0.26413
0.271894
0.278186
0.287649
0.285264
0.284999
0.288553
0.279501
0.282338
0.277758
0.279037
0.279824
0.28327
0.279976
0.271545
0.263092
0.257956
0.262984
0.263548
0.272603
0.292972
0.295224
0.316876
0.317318
0.335706
0.348672
0.357071
0.381945
0.379299
0.394093
0.407739
0.41145
0.424795
0.425121
0.426178
0.43215
0.42925
0.431254
0.433846
0.431449
0.441814
0.46242