/*--------------------------------*- C++ -*----------------------------------*\
| =========                 |                                                 |
| \\      /  F ield         | OpenFOAM: The Open Source CFD Toolbox           |
|  \\    /   O peration     | Version:  dev                                   |
|   \\  /    A nd           | Web:      http://www.openfoam.org               |
|    \\/     M anipulation  |                                                 |
\*---------------------------------------------------------------------------*/
FoamFile
{
    version     2.0;
    format      ascii;
    class       volScalarField;
    object      k_0;
    location    "9.126";
}
// * * * * * * * * * * * * * * * * * * * * * * * * * * * * * * * * * * * * * //

dimensions      [0 2 -2 0 0 0 0];

internalField   nonuniform List<scalar> 
12225
(
8.12882
9.82938
7.15762
8.36728
9.15536
11.3233
14.5948
15.5612
21.3113
19.9973
28.6404
24.2497
35.1268
28.4144
40.4578
31.0659
37.3923
50.3635
1.62868
6.85584
5.90808
7.74508
5.65789
7.97693
6.38699
8.78349
7.62693
9.72719
9.07596
10.594
11.2989
10.8445
15.4823
17.8098
37.3107
53.4364
0.150621
2.01762
2.14347
3.33213
3.03754
3.6726
3.43059
3.65643
3.71467
3.50508
3.97812
3.23624
4.31089
3.22601
5.22018
6.21571
24.3617
47.3451
0.0175098
0.406364
0.633422
1.00041
1.44188
1.43257
1.95111
1.60337
2.13349
1.54929
2.007
1.37651
1.84835
1.34154
2.33283
2.74768
13.492
33.039
0.00596017
0.144381
0.238024
0.391687
0.615056
0.647627
0.870031
0.785141
0.973841
0.758893
0.983076
0.710691
0.956723
0.702227
1.15992
1.1374
5.07337
14.0613
0.00946861
0.0748565
0.116145
0.164534
0.259769
0.272804
0.380411
0.356058
0.454566
0.376985
0.492276
0.392294
0.535616
0.42084
0.650726
0.654516
1.80793
4.48439
0.021403
0.040706
0.0746846
0.092411
0.13822
0.146664
0.198856
0.196243
0.247123
0.229106
0.278235
0.256073
0.305759
0.290036
0.37534
0.415349
0.76608
1.2175
0.0312529
0.0480707
0.0705787
0.0876162
0.114791
0.126047
0.150783
0.160293
0.182764
0.189167
0.208647
0.214663
0.230766
0.23899
0.264719
0.300472
0.447578
0.483198
0.0517406
0.0832744
0.0878393
0.106228
0.118934
0.132505
0.147605
0.160281
0.174105
0.186544
0.197155
0.21151
0.216779
0.230136
0.240499
0.264785
0.321257
0.316094
0.0957114
0.158652
0.149822
0.170074
0.160927
0.176075
0.172211
0.188038
0.189234
0.205319
0.208465
0.224323
0.22623
0.238316
0.243811
0.258985
0.282122
0.303518
0.205749
0.277009
0.268857
0.294525
0.275019
0.289294
0.264312
0.275846
0.261216
0.272602
0.26683
0.274648
0.273452
0.279094
0.28451
0.291052
0.302465
0.303356
0.440406
0.490821
0.474216
0.491601
0.469048
0.475525
0.447957
0.449138
0.430364
0.429959
0.417041
0.410717
0.405224
0.400828
0.399686
0.395545
0.39741
0.392773
0.875382
0.846693
0.805667
0.797374
0.745358
0.723316
0.669519
0.644517
0.61223
0.600711
0.58444
0.56919
0.554974
0.542663
0.530022
0.519923
0.510847
0.498674
1.4931
1.3804
1.2618
1.2135
1.1132
1.05207
0.968405
0.919483
0.878357
0.854151
0.825758
0.80458
0.775996
0.7559
0.725271
0.704719
0.674169
0.647736
2.32956
2.12562
2
1.91477
1.77436
1.63086
1.48232
1.36207
1.25708
1.17416
1.0944
1.03229
0.968246
0.921072
0.864867
0.828224
0.779886
0.743994
3.45394
3.09403
2.74325
2.45133
2.17634
1.94112
1.73701
1.57273
1.43232
1.32042
1.21681
1.13555
1.05475
0.994764
0.92757
0.882578
0.825817
0.78612
4.03838
3.5099
3.00044
2.62953
2.31316
2.05013
1.82807
1.64817
1.49308
1.36877
1.2554
1.16673
1.07957
1.01486
0.944542
0.897291
0.83845
0.79745
4.07144
3.53139
3.00156
2.6281
2.31251
2.0504
1.82901
1.6487
1.49145
1.36498
1.24976
1.15882
1.07064
1.00555
0.934857
0.887466
0.829575
0.789275
3.38518
3.08339
2.72935
2.42806
2.16224
1.93519
1.73856
1.57467
1.42783
1.30666
1.19451
1.10562
1.01958
0.956027
0.888421
0.843148
0.787074
0.749321
2.29336
2.14255
2.01056
1.88158
1.74113
1.60704
1.47851
1.36211
1.24822
1.1483
1.05042
0.971731
0.895252
0.838984
0.778937
0.739904
0.690525
0.658328
1.42287
1.31903
1.22693
1.16182
1.0835
1.02474
0.978958
0.935354
0.881706
0.826684
0.762811
0.709609
0.654381
0.613451
0.56812
0.539819
0.50389
0.480784
0.840362
0.821848
0.793647
0.766075
0.720449
0.683351
0.651987
0.617298
0.576006
0.536797
0.496525
0.463119
0.434387
0.416314
0.398896
0.388281
0.375164
0.366438
0.418793
0.434048
0.435653
0.429969
0.418339
0.400439
0.379769
0.37056
0.366887
0.36563
0.362456
0.358461
0.354021
0.350583
0.34637
0.343346
0.339197
0.336193
0.207252
0.219711
0.214733
0.217711
0.235784
0.256286
0.275681
0.295221
0.312061
0.324933
0.331927
0.335867
0.337972
0.339219
0.339202
0.338658
0.337776
0.336115
0.0807815
0.0892139
0.112976
0.154713
0.195554
0.230141
0.262471
0.29237
0.317624
0.33774
0.351353
0.36071
0.367574
0.373155
0.376574
0.379904
0.381727
0.383836
0.0244681
0.0510873
0.0989067
0.171573
0.247815
0.310579
0.365789
0.411511
0.44981
0.48038
0.500297
0.51475
0.528447
0.539963
0.549365
0.560229
0.566735
0.577587
0.0116984
0.0799537
0.247107
0.443245
0.62313
0.747366
0.845309
0.912895
0.964603
0.997926
1.0106
1.01872
1.03334
1.0452
1.05929
1.06903
1.07919
1.08667
0.0762143
0.512477
1.20395
1.6357
1.93597
2.10071
2.2049
2.24588
2.2597
2.24885
2.21539
2.1791
2.14804
2.127
2.09609
2.04913
1.99183
1.93714
0.971791
3.62043
5.0022
5.1903
5.01141
4.74552
4.48708
4.27034
4.08739
3.95057
3.83377
3.71228
3.57181
3.43817
3.28318
3.139
3.00597
2.86068
6.46027
10.1348
9.2812
7.79295
6.70368
6.30459
6.18378
6.17828
6.24524
6.32033
6.36668
6.3753
6.34824
6.28055
6.18239
6.06964
5.93092
5.68757
0.118835
0.210784
0.24727
0.269352
0.277075
0.285017
0.297391
0.315703
0.345164
0.381225
0.423984
0.472168
0.525551
0.582258
0.642015
0.702816
0.767712
0.832197
0.89759
0.969799
1.04966
1.13508
1.2178
1.30583
1.4069
1.51596
1.62174
1.73498
1.85854
1.97969
2.1034
2.26036
2.40659
2.57857
2.7863
3.01093
3.25945
3.52594
3.83569
4.19372
4.63187
5.12921
5.65849
6.22148
6.82413
7.50261
8.15051
8.56646
8.71838
8.7422
8.75124
8.75998
8.72464
8.58125
8.49823
8.46263
8.4241
8.38297
8.30212
8.18261
8.14716
8.0831
7.99767
7.87037
7.71478
7.40436
7.17351
7.15197
7.14937
7.04674
6.99914
7.08181
7.05828
6.94169
6.70553
6.61356
6.6825
6.85208
7.0417
7.1904
7.29494
7.354
7.27849
7.15375
6.95627
6.71932
6.43157
6.11686
5.76385
5.41289
5.03061
4.59968
4.19942
3.81056
3.30246
2.92478
2.70763
2.32681
2.09087
1.84469
1.71033
1.53047
1.42957
1.31984
1.24159
1.18463
1.14746
1.12671
1.1201
1.12828
1.1478
1.18038
1.22452
1.28571
1.34817
1.40901
1.48759
1.61453
1.7703
2.02174
2.33428
2.5989
2.88117
3.34576
3.86023
4.26761
4.64734
5.15574
5.81753
6.39778
6.90968
7.4606
7.71375
7.88084
8.0072
8.03751
8.25508
8.37376
8.47625
8.46715
8.45102
8.41348
8.39441
8.40132
8.39035
8.47652
8.37695
8.43415
8.31606
8.21505
7.89456
7.52374
7.07017
6.61767
6.20221
5.84606
5.58175
5.37828
5.39642
5.68136
5.95169
6.00152
5.68415
5.17206
4.53533
4.02229
3.49653
3.07983
3.04933
3.06303
3.25284
3.66594
4.46007
4.75233
5.24121
5.39526
4.46091
4.30097
4.69737
5.22095
0.385565
0.233102
0.221357
0.210819
0.192535
0.184962
0.18407
0.1885
0.199071
0.212529
0.227939
0.244365
0.261976
0.278174
0.293376
0.307557
0.322338
0.333457
0.342131
0.352693
0.363063
0.369426
0.370717
0.37265
0.378562
0.383457
0.383691
0.385428
0.385808
0.382253
0.377914
0.380215
0.376457
0.373765
0.378482
0.383393
0.38854
0.39056
0.391661
0.396542
0.410015
0.429068
0.454236
0.508473
0.618479
0.784561
0.936513
1.2471
1.77295
2.12062
2.35099
2.51533
2.54607
2.42472
2.22583
2.21664
2.26079
2.26011
2.24236
2.0452
1.86276
1.9018
1.90403
1.85001
1.81884
1.70205
1.46926
1.48314
1.59074
1.84977
2.54399
3.64319
4.2475
4.44008
4.39315
4.21231
4.03456
3.81456
3.55807
3.29785
3.0477
2.80537
2.5415
2.31017
2.09907
1.92329
1.75896
1.60629
1.46814
1.34084
1.22733
1.12412
1.05079
0.963688
0.89334
0.861772
0.827428
0.77348
0.748922
0.715187
0.696616
0.687781
0.686852
0.682034
0.690906
0.69463
0.695988
0.699451
0.704734
0.712504
0.716924
0.723921
0.73471
0.751383
0.762223
0.767025
0.771173
0.777356
0.794122
0.835385
0.931687
0.99954
1.04594
1.11752
1.28871
1.40412
1.44971
1.53131
1.77937
2.15259
2.68641
3.39796
3.93801
4.06871
4.31357
4.32412
4.63696
4.52148
4.50929
4.36481
4.14956
4.05112
3.82371
3.86098
3.73557
3.79154
3.70111
3.7309
3.65347
3.59725
3.45478
3.31061
3.21334
3.15065
3.1542
3.14204
3.14124
3.15229
3.1713
3.38805
3.87535
4.42887
4.75572
4.76732
4.54279
4.08287
3.59678
3.10807
2.92281
2.79605
2.75109
2.74209
2.84822
2.86146
2.93303
3.25607
3.2104
2.84297
2.91575
3.17089
1.03537
0.276973
0.204391
0.169666
0.147238
0.138268
0.136453
0.138313
0.143846
0.151446
0.16044
0.170543
0.180608
0.193057
0.207574
0.218808
0.228694
0.232845
0.233524
0.233607
0.231871
0.227839
0.222075
0.219966
0.219751
0.219897
0.220855
0.223447
0.227296
0.229306
0.229765
0.231328
0.232094
0.235076
0.243779
0.25317
0.264887
0.273396
0.278334
0.284037
0.287087
0.286976
0.282767
0.281884
0.284976
0.293084
0.304548
0.325954
0.400347
0.492887
0.568422
0.753926
0.980255
1.05592
1.0487
1.03489
0.993023
0.916118
0.889656
0.832622
0.693749
0.644577
0.579468
0.562814
0.608566
0.707373
0.864245
1.26195
1.71545
2.13266
2.59595
2.83519
2.79089
2.58177
2.32145
2.05092
1.81722
1.57885
1.37399
1.21085
1.07931
0.958053
0.851936
0.777985
0.719209
0.679799
0.64061
0.604132
0.572539
0.542207
0.5169
0.502342
0.492294
0.482287
0.481787
0.489887
0.4931
0.495077
0.497986
0.477978
0.457955
0.458593
0.460554
0.463079
0.478473
0.496844
0.503859
0.51795
0.526201
0.536577
0.540459
0.546742
0.552649
0.571805
0.58829
0.58857
0.585029
0.576729
0.571364
0.573962
0.589767
0.600029
0.614051
0.623533
0.655627
0.693324
0.731385
0.79268
0.946589
1.22133
1.63198
2.07712
2.35195
2.3212
2.3336
2.42436
2.57604
2.38899
2.2798
2.30292
2.20279
2.20415
2.14899
2.1812
2.18606
2.22898
2.27573
2.32696
2.35508
2.34342
2.312
2.24415
2.22304
2.18359
2.20026
2.18863
2.18163
2.18963
2.07166
2.04755
2.17384
2.47763
2.88012
3.13883
3.40708
3.50934
3.42782
3.13892
2.87756
2.58036
2.35392
2.19711
2.22225
2.25736
2.20081
2.21642
2.40384
2.12345
2.08326
2.18548
2.47421
0.4034
0.210892
0.170451
0.147507
0.135438
0.131875
0.133983
0.141842
0.150986
0.160925
0.173972
0.194047
0.219125
0.226598
0.233872
0.237167
0.236395
0.230631
0.223188
0.215807
0.209303
0.203875
0.202008
0.202072
0.202821
0.20465
0.208458
0.212178
0.213013
0.212404
0.210688
0.209716
0.211035
0.215411
0.224471
0.234251
0.24606
0.255435
0.259691
0.263543
0.268584
0.272658
0.281321
0.288611
0.289223
0.285964
0.274181
0.270379
0.271458
0.281387
0.305247
0.387385
0.480812
0.53707
0.562761
0.557701
0.507749
0.479262
0.421001
0.379277
0.35582
0.340942
0.347838
0.39979
0.559907
1.15797
1.60498
1.83345
2.04539
2.00669
1.81849
1.66008
1.41478
1.22603
1.05146
0.90549
0.769454
0.667955
0.599402
0.55183
0.505468
0.467591
0.447892
0.434007
0.426398
0.420119
0.414458
0.409678
0.402749
0.391709
0.379845
0.37052
0.368163
0.370539
0.380615
0.384757
0.399035
0.418267
0.407704
0.388941
0.38726
0.380697
0.382179
0.384924
0.390815
0.400319
0.422455
0.433204
0.44758
0.45598
0.464983
0.471551
0.485179
0.524312
0.550899
0.550615
0.547005
0.542073
0.547938
0.548133
0.54343
0.537338
0.538316
0.547323
0.561411
0.590161
0.64364
0.760219
0.971143
1.32499
1.57137
1.6607
1.61576
1.57009
1.67034
1.76504
1.72517
1.64522
1.69874
1.7245
1.71127
1.74986
1.73725
1.76172
1.7525
1.77023
1.8217
1.85565
1.85994
1.85621
1.82197
1.82203
1.80792
1.80305
1.77384
1.75248
1.82206
1.75648
1.60847
1.5814
1.65729
1.88201
2.07216
2.34395
2.54484
2.84454
2.92759
2.85213
2.53714
2.20298
2.02895
2.06049
2.15974
2.11803
1.99945
2.05805
1.72936
1.65811
1.75789
4.33957
0.691286
0.237104
0.184355
0.160503
0.141264
0.135859
0.138404
0.149407
0.167228
0.203445
0.240542
0.251622
0.269908
0.272281
0.248349
0.239347
0.233647
0.225247
0.217931
0.21096
0.205554
0.203135
0.202951
0.204392
0.20816
0.213576
0.221445
0.226486
0.227965
0.227023
0.221537
0.211851
0.205085
0.202084
0.201646
0.202609
0.206246
0.215539
0.223139
0.23399
0.254516
0.271095
0.278018
0.278666
0.271849
0.262198
0.259135
0.256922
0.245663
0.237877
0.237419
0.244877
0.269367
0.318331
0.347744
0.350465
0.335961
0.311649
0.285021
0.278571
0.276663
0.280746
0.308784
0.40613
0.759594
1.39744
1.67753
1.69996
1.57757
1.3907
1.1444
0.983239
0.814259
0.703324
0.624513
0.556931
0.493449
0.44744
0.416433
0.39239
0.368572
0.354258
0.346569
0.344667
0.345622
0.350676
0.355746
0.363483
0.366169
0.359834
0.347697
0.334481
0.329577
0.329927
0.333796
0.329558
0.327607
0.353697
0.375995
0.370841
0.36632
0.354559
0.35885
0.355992
0.345977
0.34496
0.360196
0.375814
0.385098
0.388181
0.390507
0.391144
0.396513
0.412568
0.460972
0.47859
0.488714
0.496108
0.506161
0.526337
0.538216
0.534067
0.539722
0.564464
0.569344
0.572009
0.59658
0.70643
0.895611
1.15975
1.33921
1.36413
1.3543
1.30755
1.3875
1.40305
1.37769
1.40133
1.43433
1.53254
1.53052
1.60788
1.59968
1.62474
1.59658
1.5547
1.56886
1.60728
1.64099
1.64205
1.61567
1.57734
1.57095
1.52575
1.44141
1.42602
1.51152
1.56938
1.52247
1.35535
1.33527
1.39754
1.49483
1.69813
1.85679
2.06696
2.44696
2.54551
2.45979
2.13853
1.94104
1.98615
2.13192
2.16476
2.02378
1.93346
1.5703
1.50421
1.52831
6.5152
1.23792
0.305322
0.194778
0.182947
0.163747
0.145708
0.151013
0.177109
0.248185
0.337144
0.322966
0.276424
0.267398
0.273636
0.250695
0.238097
0.23347
0.222967
0.219839
0.215979
0.214365
0.218676
0.227566
0.239891
0.256313
0.275919
0.296711
0.311212
0.319553
0.320226
0.312496
0.283412
0.245341
0.21887
0.203763
0.19682
0.193733
0.193914
0.196726
0.204786
0.215121
0.231446
0.243962
0.251449
0.256347
0.257504
0.257112
0.249759
0.234779
0.224322
0.216396
0.21498
0.216106
0.224211
0.250936
0.25986
0.256669
0.246105
0.24419
0.247577
0.258287
0.274738
0.321637
0.447194
0.929808
1.52991
1.63641
1.46983
1.11362
0.924686
0.735702
0.620065
0.533074
0.48648
0.463097
0.436387
0.402717
0.368248
0.342861
0.320044
0.297315
0.286022
0.280477
0.278526
0.278904
0.282455
0.288681
0.301948
0.317292
0.324282
0.327124
0.321362
0.314777
0.314233
0.316193
0.312456
0.306077
0.307474
0.343819
0.360905
0.355175
0.343912
0.351949
0.349626
0.335428
0.32017
0.330732
0.348413
0.358026
0.357497
0.355179
0.35317
0.353945
0.3589
0.379796
0.405974
0.409753
0.414009
0.423335
0.439079
0.491038
0.517636
0.537061
0.562029
0.603712
0.599197
0.605835
0.655403
0.846722
1.01992
1.21777
1.22692
1.25008
1.22634
1.26862
1.29119
1.26221
1.30151
1.30656
1.36672
1.36864
1.42338
1.41763
1.42736
1.42699
1.38568
1.39609
1.40848
1.44514
1.45114
1.41768
1.39571
1.40534
1.34423
1.23895
1.09292
1.22007
1.30143
1.35421
1.28893
1.16179
1.17442
1.22315
1.37135
1.48381
1.57408
1.84627
2.13312
2.22242
2.14514
1.91772
1.95967
2.08199
2.17502
2.15702
2.00147
1.59265
1.47868
1.46387
8.79964
1.7259
0.422271
0.208078
0.190238
0.179853
0.16233
0.187404
0.293022
0.378023
0.348158
0.31051
0.283081
0.263618
0.263644
0.245423
0.229909
0.226923
0.217432
0.218053
0.221747
0.225753
0.235619
0.248175
0.263348
0.2841
0.307061
0.332966
0.358761
0.379545
0.394057
0.399916
0.394401
0.3719
0.313902
0.253459
0.215068
0.197417
0.190811
0.189201
0.189174
0.19098
0.197513
0.219654
0.237215
0.248404
0.250662
0.24955
0.234944
0.214442
0.199061
0.189939
0.188031
0.189506
0.196206
0.212785
0.225654
0.23022
0.234548
0.239948
0.254711
0.275418
0.320125
0.409486
0.567573
1.14119
1.57182
1.55142
1.13187
0.779615
0.622495
0.520945
0.470551
0.443438
0.430044
0.415613
0.38357
0.344186
0.314246
0.291964
0.274431
0.260884
0.251171
0.247513
0.246033
0.24595
0.24878
0.25625
0.262766
0.267448
0.27325
0.28358
0.298081
0.304231
0.306752
0.308732
0.310148
0.305827
0.30153
0.317723
0.322362
0.320587
0.318807
0.334505
0.342029
0.335837
0.310993
0.305643
0.323288
0.342417
0.33955
0.338153
0.322665
0.318675
0.318945
0.331905
0.338011
0.355097
0.360795
0.380506
0.39056
0.416781
0.448746
0.501637
0.52942
0.599864
0.63427
0.64211
0.652375
0.76263
0.90396
1.14161
1.14396
1.15038
1.15527
1.19386
1.27613
1.2436
1.27959
1.266
1.31218
1.29951
1.28947
1.27511
1.24968
1.27372
1.24356
1.24751
1.24137
1.24261
1.24645
1.21142
1.12346
1.12694
1.06706
1.08134
1.01026
1.07076
1.12009
1.22991
1.21804
1.08115
1.0692
1.09314
1.21716
1.31152
1.33005
1.44276
1.68386
1.98563
2.06205
1.90801
1.91146
2.03372
2.12343
2.20916
2.14341
1.77437
1.48446
1.43695
11.2852
2.09355
0.518155
0.212836
0.198178
0.202643
0.192973
0.300456
0.390969
0.377927
0.320872
0.292599
0.275164
0.233867
0.219258
0.208531
0.200718
0.21028
0.211477
0.214157
0.21883
0.223177
0.231395
0.239416
0.250152
0.265182
0.285111
0.307892
0.335335
0.355492
0.382636
0.401966
0.406706
0.400777
0.372296
0.31079
0.259231
0.226217
0.20496
0.19333
0.18879
0.188145
0.190234
0.201491
0.226271
0.240767
0.243498
0.240965
0.217229
0.192185
0.179346
0.174996
0.175631
0.179168
0.191673
0.210227
0.226992
0.248472
0.265964
0.280204
0.306014
0.363858
0.532795
0.666499
0.941278
1.38946
1.51384
1.29272
0.782193
0.553641
0.468887
0.435931
0.429039
0.417792
0.388274
0.348355
0.311678
0.280317
0.260823
0.248109
0.238611
0.231385
0.226328
0.22422
0.223926
0.226186
0.23299
0.240802
0.245562
0.24787
0.252214
0.256539
0.263548
0.273616
0.285003
0.297975
0.304102
0.305693
0.306928
0.311169
0.312313
0.298694
0.293288
0.292107
0.314628
0.337063
0.313678
0.293965
0.298519
0.321258
0.325329
0.328434
0.308194
0.298748
0.294864
0.301181
0.30372
0.316476
0.320256
0.338778
0.348761
0.368942
0.381014
0.435045
0.457361
0.530294
0.574619
0.675789
0.671795
0.703956
0.765345
0.968704
1.0819
1.10284
1.14118
1.16256
1.25447
1.22787
1.26092
1.23725
1.22665
1.17723
1.07724
1.06509
1.04244
1.05741
1.03205
1.02908
1.05849
1.05693
1.05253
1.036
0.911123
0.88732
0.842923
0.88174
0.983617
0.949397
1.03379
1.16135
1.17302
1.04669
1.0183
1.03937
1.14555
1.23757
1.23617
1.26145
1.40306
1.66323
1.88856
1.809
1.75267
1.95433
2.02297
2.20226
2.18081
1.95067
1.52536
1.39322
13.8206
2.456
0.582832
0.214013
0.198401
0.207575
0.239476
0.366016
0.40299
0.351236
0.301172
0.279534
0.23444
0.187255
0.176777
0.174602
0.171803
0.180596
0.194966
0.204232
0.207928
0.210844
0.215253
0.218358
0.221465
0.228041
0.243188
0.273201
0.308101
0.327953
0.349385
0.377307
0.391444
0.390134
0.371547
0.310223
0.269747
0.257544
0.236844
0.214449
0.20046
0.193678
0.193317
0.19813
0.222639
0.243028
0.247582
0.243981
0.214036
0.187796
0.176207
0.173856
0.175135
0.182473
0.20519
0.260378
0.308591
0.335559
0.37634
0.419968
0.512831
0.676714
0.811402
1.00794
1.22686
1.40113
1.34357
0.892131
0.552119
0.43403
0.404646
0.403898
0.399395
0.372579
0.321096
0.28102
0.257386
0.242721
0.233213
0.225082
0.215857
0.209712
0.205538
0.203259
0.203951
0.209003
0.215514
0.221698
0.23026
0.236084
0.240862
0.24289
0.245345
0.248329
0.261275
0.279867
0.288172
0.28896
0.301408
0.308695
0.315644
0.289168
0.289637
0.276533
0.281198
0.312646
0.313047
0.290902
0.288429
0.29319
0.307062
0.315143
0.301191
0.291149
0.285633
0.287681
0.287901
0.293509
0.296388
0.308561
0.314581
0.334744
0.341858
0.373975
0.394171
0.445122
0.475129
0.573825
0.658127
0.698159
0.729015
0.788564
0.933732
0.982859
1.07835
1.10187
1.20385
1.18599
1.1763
1.11491
0.994136
0.953037
0.887253
0.894577
0.890912
0.912927
0.913507
0.892316
0.895705
0.866034
0.832541
0.838605
0.778636
0.757214
0.732588
0.756942
0.964267
0.908102
0.998226
1.05721
1.07891
0.98904
0.976791
1.02349
1.1195
1.20637
1.21912
1.18917
1.27589
1.42884
1.6537
1.63357
1.52404
1.7413
1.87386
2.12838
2.14639
1.99175
1.5707
1.38311
16.4928
2.83528
0.642068
0.216903
0.196286
0.205553
0.257333
0.379992
0.392546
0.316161
0.284159
0.257401
0.202772
0.172516
0.158927
0.156843
0.158831
0.161844
0.170907
0.184161
0.198113
0.206675
0.212582
0.215506
0.21697
0.220447
0.231228
0.262111
0.311329
0.337773
0.356584
0.390383
0.411159
0.408473
0.373929
0.299106
0.272002
0.264951
0.254414
0.236187
0.224186
0.211647
0.201456
0.201666
0.214332
0.245741
0.258142
0.257533
0.229065
0.195999
0.182302
0.181362
0.187772
0.218519
0.283587
0.322449
0.370832
0.461982
0.561584
0.676377
0.79536
0.890402
0.966113
1.10544
1.2596
1.25598
1.00313
0.596245
0.423633
0.376396
0.373575
0.373966
0.358037
0.310088
0.267313
0.242169
0.230376
0.224005
0.213276
0.198841
0.189112
0.18409
0.18283
0.183498
0.190342
0.199043
0.205631
0.211366
0.219608
0.224234
0.225369
0.225203
0.223031
0.223231
0.229381
0.243725
0.258112
0.269595
0.279623
0.282993
0.30472
0.277237
0.292206
0.272548
0.275947
0.276656
0.291947
0.281143
0.281895
0.280419
0.294774
0.305234
0.298665
0.28994
0.284648
0.2843
0.283552
0.281734
0.282157
0.287807
0.296757
0.307013
0.318912
0.33309
0.361742
0.387393
0.41799
0.447525
0.560902
0.633984
0.713205
0.738169
0.822547
0.848777
0.918019
0.943879
1.01162
1.00604
0.964481
0.902831
0.820334
0.80894
0.793904
0.799238
0.793322
0.80407
0.802081
0.755111
0.739655
0.711845
0.672487
0.686064
0.662969
0.666846
0.680448
0.719759
0.93214
0.909338
0.917495
0.935687
0.94877
0.898991
0.937479
1.04969
1.09198
1.14916
1.19815
1.17419
1.14469
1.29471
1.466
1.49225
1.36605
1.42156
1.62605
2.00682
2.05973
1.96714
1.62005
1.41303
18.8983
3.29691
0.774037
0.227748
0.189175
0.189948
0.256246
0.379619
0.380565
0.304469
0.262962
0.236838
0.191505
0.172387
0.15983
0.155874
0.157729
0.15993
0.164485
0.173308
0.185754
0.199094
0.208533
0.216385
0.221562
0.224391
0.232349
0.258274
0.317492
0.346048
0.368948
0.436987
0.48462
0.479766
0.408623
0.30866
0.277618
0.263529
0.255747
0.253186
0.250952
0.2429
0.216262
0.204723
0.206052
0.2293
0.256398
0.262178
0.256742
0.224924
0.202598
0.199715
0.205974
0.236721
0.279903
0.367737
0.497535
0.627018
0.727963
0.814841
0.897834
0.946277
0.987102
1.09437
1.13456
1.03063
0.667493
0.440602
0.362924
0.349402
0.348969
0.340022
0.302528
0.258055
0.231868
0.21743
0.211483
0.203001
0.186666
0.175044
0.169972
0.170246
0.171154
0.173282
0.179007
0.189333
0.199717
0.206124
0.213086
0.217986
0.220265
0.220183
0.21827
0.218771
0.221441
0.227082
0.231289
0.234938
0.243138
0.249782
0.264318
0.265466
0.27844
0.260424
0.275548
0.266595
0.273
0.266412
0.268559
0.265243
0.279202
0.300266
0.298146
0.292438
0.288797
0.285572
0.282952
0.278495
0.275484
0.276103
0.283534
0.286675
0.303819
0.312278
0.338933
0.351296
0.379027
0.393754
0.451123
0.497073
0.617842
0.668501
0.754703
0.771297
0.825041
0.849749
0.876582
0.873388
0.837558
0.806254
0.760835
0.745708
0.703761
0.696921
0.685981
0.684234
0.676621
0.63301
0.618232
0.587005
0.577546
0.595988
0.600175
0.619296
0.661491
0.708184
0.883901
0.900202
0.856877
0.873305
0.862869
0.848489
0.934476
1.08938
1.09301
1.11604
1.14558
1.15512
1.07612
1.18633
1.3373
1.37032
1.29598
1.24148
1.37239
1.83412
1.94972
1.8726
1.61783
1.45481
20.921
3.7546
0.960511
0.26017
0.189074
0.169017
0.238383
0.372619
0.375097
0.306753
0.259065
0.228016
0.190904
0.175689
0.167045
0.162144
0.161321
0.160036
0.155723
0.153137
0.154598
0.161018
0.171268
0.184341
0.204244
0.21893
0.225437
0.241639
0.297198
0.333979
0.360896
0.446144
0.525339
0.526357
0.455294
0.343815
0.308544
0.2789
0.266692
0.268495
0.27274
0.270984
0.244946
0.207403
0.199523
0.204836
0.24017
0.263533
0.266682
0.255155
0.219021
0.208598
0.212897
0.235403
0.314684
0.47523
0.62459
0.725082
0.791673
0.847277
0.899535
0.929323
0.959527
0.964623
0.909098
0.680808
0.454008
0.348301
0.32432
0.326571
0.325037
0.301485
0.253903
0.224862
0.210798
0.201501
0.194435
0.18033
0.168132
0.162476
0.16189
0.164509
0.165409
0.167293
0.172319
0.178127
0.185904
0.19429
0.198885
0.208219
0.215208
0.216611
0.216282
0.217593
0.220647
0.224482
0.225523
0.22651
0.228833
0.234504
0.240886
0.259836
0.266164
0.257684
0.260082
0.261372
0.264411
0.261011
0.261838
0.259828
0.264783
0.288944
0.293389
0.292411
0.292156
0.290503
0.287743
0.281103
0.27625
0.271428
0.27661
0.274038
0.289454
0.29271
0.317883
0.329035
0.351509
0.364391
0.38478
0.409883
0.487237
0.533177
0.627306
0.65501
0.710901
0.751478
0.76769
0.765563
0.738825
0.713939
0.653546
0.630243
0.60735
0.594229
0.582058
0.574808
0.564489
0.548205
0.525718
0.520172
0.53243
0.546479
0.564561
0.612038
0.676004
0.707996
0.806781
0.827739
0.838103
0.846153
0.828479
0.841569
0.995309
1.16642
1.13613
1.09861
1.10514
1.0945
1.05613
1.09415
1.17588
1.25611
1.26444
1.16854
1.23623
1.68151
1.84727
1.75392
1.57496
1.50129
22.4026
4.20414
1.24259
0.333602
0.195607
0.165137
0.203806
0.347698
0.359935
0.313143
0.261166
0.222436
0.188969
0.175963
0.168128
0.164233
0.162011
0.159216
0.149632
0.14296
0.140788
0.14103
0.14257
0.146952
0.158146
0.189527
0.210571
0.226363
0.277314
0.330885
0.35882
0.440344
0.52773
0.531774
0.466192
0.388809
0.347522
0.298094
0.275453
0.274493
0.280089
0.279948
0.260457
0.211527
0.191449
0.190334
0.205381
0.247178
0.268401
0.268825
0.244016
0.221475
0.224561
0.254651
0.388956
0.565479
0.682468
0.7549
0.799233
0.835346
0.858759
0.865197
0.855101
0.806474
0.660536
0.468716
0.348411
0.303891
0.298982
0.303028
0.297667
0.264754
0.223562
0.204934
0.192739
0.185087
0.177264
0.16498
0.157858
0.155869
0.158171
0.160755
0.161616
0.165188
0.170392
0.173883
0.17627
0.178569
0.18048
0.186718
0.198421
0.206427
0.211543
0.214609
0.216427
0.217488
0.217586
0.220034
0.22287
0.228191
0.23746
0.250233
0.256017
0.259268
0.256558
0.258736
0.260254
0.257984
0.259099
0.259824
0.260011
0.278078
0.286493
0.284175
0.291566
0.289879
0.291331
0.287555
0.280237
0.269754
0.270947
0.266833
0.277387
0.279323
0.296132
0.305961
0.327132
0.337947
0.349302
0.366442
0.403519
0.429767
0.503721
0.536131
0.559321
0.613351
0.63046
0.638113
0.619826
0.607466
0.557435
0.538871
0.528154
0.512304
0.507011
0.502302
0.49485
0.490541
0.483933
0.489082
0.514921
0.529103
0.557112
0.62264
0.728275
0.730395
0.765771
0.820831
0.872538
0.876909
0.857547
0.903751
1.10264
1.24099
1.17993
1.10783
1.0966
1.04782
1.04654
1.01636
1.0395
1.17103
1.23847
1.14198
1.19239
1.49112
1.63631
1.5529
1.51173
1.54886
23.462
4.46312
1.59736
0.503021
0.225029
0.169792
0.194451
0.301274
0.343785
0.318068
0.269867
0.223739
0.189415
0.172755
0.164293
0.162082
0.160545
0.157298
0.147966
0.138239
0.135152
0.135272
0.135651
0.137894
0.144086
0.160754
0.198257
0.222046
0.285143
0.353814
0.384258
0.467151
0.536743
0.534755
0.458856
0.410959
0.354872
0.299888
0.279459
0.278179
0.27907
0.275059
0.253461
0.202836
0.178314
0.17475
0.178462
0.209388
0.255846
0.27017
0.264892
0.244777
0.247795
0.28126
0.437994
0.603471
0.695547
0.748644
0.77464
0.774797
0.767673
0.753597
0.715913
0.627982
0.482854
0.363974
0.30603
0.290324
0.28973
0.286885
0.270804
0.231794
0.201965
0.188489
0.17712
0.171097
0.163212
0.154671
0.151444
0.152081
0.156191
0.159076
0.160485
0.164534
0.1696
0.172115
0.174238
0.175662
0.17716
0.182204
0.190121
0.198327
0.2052
0.212244
0.215659
0.212836
0.210213
0.211938
0.215125
0.222823
0.235236
0.247386
0.251731
0.257936
0.255718
0.257906
0.259126
0.256996
0.25728
0.261713
0.259884
0.275442
0.282934
0.277483
0.289061
0.287407
0.291314
0.289526
0.285433
0.273395
0.266831
0.263609
0.265688
0.270413
0.28322
0.292866
0.307757
0.315225
0.334599
0.347746
0.36149
0.377938
0.418257
0.457036
0.475141
0.502048
0.515289
0.527955
0.520003
0.518209
0.49188
0.484519
0.474262
0.463173
0.463224
0.457869
0.456194
0.46045
0.463259
0.476754
0.511054
0.528463
0.565289
0.663057
0.75895
0.739027
0.752568
0.846719
1.00271
1.09693
1.07032
1.09669
1.15508
1.24945
1.18731
1.11292
1.0864
1.02319
1.02457
0.995574
1.00029
1.12553
1.18741
1.12383
1.19368
1.29657
1.32986
1.31777
1.50426
1.63329
24.2281
4.51797
1.82931
0.785508
0.353978
0.20343
0.199818
0.255554
0.319515
0.315343
0.2872
0.237475
0.195306
0.173245
0.162676
0.155835
0.151191
0.148343
0.141625
0.134571
0.132337
0.131918
0.131586
0.133085
0.138454
0.149243
0.176548
0.217175
0.308264
0.366057
0.404095
0.507421
0.549691
0.53086
0.452771
0.408864
0.332832
0.293422
0.289768
0.289147
0.278517
0.234587
0.198324
0.172676
0.158934
0.157437
0.161189
0.172996
0.21936
0.263193
0.270847
0.264818
0.267846
0.298671
0.449239
0.608676
0.679789
0.702104
0.704906
0.693507
0.662859
0.631313
0.565803
0.463723
0.357058
0.294151
0.271334
0.271789
0.275662
0.270687
0.247288
0.207261
0.184821
0.173837
0.16477
0.159872
0.154509
0.15029
0.149187
0.150345
0.155006
0.158532
0.160482
0.164662
0.168917
0.171574
0.174065
0.175463
0.176793
0.180734
0.186579
0.193342
0.200175
0.205661
0.208576
0.206818
0.20638
0.208834
0.213617
0.222255
0.231311
0.24214
0.248557
0.251739
0.253353
0.256943
0.259399
0.26109
0.262602
0.267243
0.265112
0.275072
0.283207
0.276209
0.284306
0.282525
0.288438
0.287711
0.286136
0.278019
0.266622
0.262305
0.259811
0.264285
0.273874
0.283097
0.296733
0.302389
0.32209
0.332416
0.345223
0.359072
0.371833
0.405507
0.41979
0.434128
0.449298
0.454099
0.45653
0.458004
0.447567
0.447426
0.438187
0.43596
0.43747
0.43092
0.434849
0.448921
0.456228
0.485964
0.51993
0.535982
0.597758
0.722865
0.771649
0.743853
0.753821
0.910596
1.15046
1.35005
1.33476
1.25106
1.17539
1.18871
1.1505
1.09714
1.06686
1.00773
1.01452
0.995965
0.992624
1.12148
1.15438
1.12611
1.23639
1.21592
1.17067
1.23137
1.56972
1.71169
25.2435
4.6906
1.94562
0.979185
0.5392
0.314341
0.238893
0.253388
0.28259
0.291989
0.281446
0.250256
0.207944
0.179128
0.165509
0.157184
0.150771
0.146053
0.140783
0.135308
0.132982
0.132628
0.13211
0.132718
0.137328
0.145824
0.167898
0.228131
0.315114
0.37307
0.412251
0.519853
0.549437
0.50186
0.444103
0.363531
0.304642
0.293242
0.304007
0.303498
0.254071
0.187936
0.165087
0.152177
0.146884
0.146233
0.148932
0.157462
0.174114
0.230833
0.270273
0.276838
0.282432
0.306578
0.439083
0.590051
0.651611
0.658643
0.637887
0.595934
0.561352
0.512122
0.440417
0.357005
0.293852
0.261864
0.253985
0.254698
0.255455
0.249904
0.225525
0.191616
0.175205
0.165524
0.158701
0.155016
0.151484
0.148952
0.148417
0.149822
0.154574
0.159559
0.163024
0.166854
0.169981
0.171924
0.175324
0.178019
0.179083
0.180086
0.182711
0.185821
0.191335
0.19695
0.200843
0.201587
0.203594
0.207012
0.213002
0.223279
0.231313
0.239763
0.242646
0.244554
0.250454
0.256646
0.261131
0.267339
0.273823
0.282323
0.279736
0.281203
0.285231
0.277733
0.281239
0.277085
0.279419
0.280577
0.282665
0.278563
0.268757
0.260402
0.256597
0.260807
0.262883
0.272464
0.289272
0.294661
0.312813
0.315479
0.332401
0.343902
0.354662
0.375765
0.376035
0.39119
0.403192
0.408816
0.417994
0.41773
0.420824
0.423396
0.420545
0.42357
0.42328
0.421662
0.4326
0.452663