/*--------------------------------*- C++ -*----------------------------------*\
| =========                 |                                                 |
| \\      /  F ield         | OpenFOAM: The Open Source CFD Toolbox           |
|  \\    /   O peration     | Version:  dev                                   |
|   \\  /    A nd           | Web:      http://www.openfoam.org               |
|    \\/     M anipulation  |                                                 |
\*---------------------------------------------------------------------------*/
FoamFile
{
    version     2.0;
    format      ascii;
    class       volScalarField;
    object      p_0;
    location    "9.126";
}
// * * * * * * * * * * * * * * * * * * * * * * * * * * * * * * * * * * * * * //

dimensions      [1 -1 -2 0 0 0 0];

internalField   nonuniform List<scalar> 
12225
(
99597.1
99556.3
99455.4
99318.3
99139.1
98961.8
98766
98600
98446.9
98329.9
98220.9
98148.5
98072.4
98029.4
97959.4
97901.4
97594.8
96363.7
99591.2
99555.4
99454.3
99318.2
99138.2
98962.4
98765.9
98600.2
98447.5
98330.8
98222.3
98150.6
98075.5
98033.6
97972.3
97923
97685
97113.4
99585
99552.2
99451
99315.4
99133.9
98962.1
98763.2
98598.5
98446.8
98330.4
98223.3
98152.7
98084.5
98042.6
97997.8
97953.6
97793.6
97613.3
99576.2
99545.2
99443.7
99308.2
99126.4
98959.8
98757.7
98593.7
98443.7
98327.8
98222.8
98152.2
98080.4
98052
98018.5
98002.4
97932.7
97961.6
99560.8
99532.5
99431
99296
99115.1
98953
98746.2
98586.3
98437.3
98321.4
98220.2
98151
98093.3
98059.2
98029.9
98036.7
98061.2
98198.2
99537.3
99511.9
99411.4
99276.9
99097.7
98934.4
98735.2
98572.9
98427.4
98311.2
98214.9
98147
98097
98069.2
98052.1
98080.9
98155.7
98281
99507.5
99480.8
99383.3
99248.3
99074.6
98906.2
98717.2
98553
98411.5
98295.5
98205.8
98139.9
98099.9
98079.5
98090.3
98130.8
98212.9
98315.3
99469.1
99443.9
99350.6
99214.8
99046.7
98874.2
98694.2
98529.7
98391.6
98277.8
98193
98130.9
98098.2
98084.3
98106.3
98151.3
98232
98314
99427
99403.4
99314.4
99178.2
99014.8
98840.5
98668
98504.1
98369.1
98257.9
98176.7
98119.5
98092
98084.2
98109.9
98157.7
98232.7
98311.7
99371.4
99348.8
99264.6
99128.8
98969.8
98795.8
98630.6
98468.7
98337.4
98229.6
98152.2
98101
98078.1
98077.3
98106.1
98155.6
98228.8
98305.3
99296.2
99275.7
99195.4
99061.6
98906.8
98735.1
98577.5
98419.1
98292.4
98189.4
98116.3
98071.1
98052.8
98058.8
98089.7
98141.3
98211.5
98290
99198.8
99177.2
99099.6
98970
98819.3
98652.8
98501.9
98349.8
98228.3
98131.4
98063.5
98024.5
98011.2
98022.5
98056.9
98110.6
98180.6
98260
99066.8
99043.1
98966.9
98843.6
98697.5
98539
98395.8
98253
98137.5
98048.2
97986.4
97954.1
97946
97962.8
98001.1
98057.1
98127.3
98208
98883.5
98859.3
98784.4
98668.4
98529.9
98382.9
98245.3
98114.5
98008.4
97928.5
97875.4
97849.3
97848
97870
97912.2
97971.2
98044
98127.2
98622.8
98604.7
98533.3
98425.9
98297.8
98164.5
98039
97918.1
97825.6
97757.9
97715.4
97697.7
97703.8
97731.8
97779.1
97842.5
97918.8
98004.8
98264.1
98254.6
98190
98092.8
97978.3
97860.4
97749.4
97650.6
97571.6
97517.8
97488.1
97482
97497.4
97533
97587.3
97657.3
97739.3
97831.3
97793.9
97785.7
97727.9
97642.9
97545.3
97447.1
97356.9
97281.2
97224.7
97187.2
97172.1
97181.6
97211.3
97259.4
97323.1
97400.7
97491.5
97591.3
97227.7
97216.1
97165.4
97095.3
97018
96943
96877.2
96826
96792.7
96778.7
96785.2
96812.1
96857.8
96920.1
96997.6
97087.9
97189.2
97299.5
96677.9
96647.8
96601.3
96546.1
96488.9
96436.5
96394.6
96367.1
96356.8
96364.7
96391.2
96435.8
96497.6
96575
96666.1
96769.4
96882.4
97003.6
96179.4
96144.6
96103.2
96061
96021.4
95988.8
95967.5
95960.5
95969.8
95996.3
96040
96100.2
96176.1
96266.4
96369.4
96483.6
96607.4
96738.6
95759
95718.9
95683.9
95653.2
95628.3
95612.1
95607.6
95617.4
95642.8
95684.6
95742.6
95815.9
95903.7
96004.8
96117.8
96241.3
96373.4
96512.7
95403.6
95372.4
95344.7
95323.7
95310.3
95307
95316
95339
95377.4
95431.4
95500.9
95585
95682.6
95792.6
95913.7
96044.6
96183.5
96329.1
95125.8
95101.2
95079.9
95066.4
95062
95068.3
95087.4
95120.9
95169.3
95232.9
95311.3
95403.8
95509.3
95626.5
95754
95890.8
96035.2
96185.8
94917.7
94897.1
94880.4
94872.3
94874.1
94887.3
94913.9
94955
95011.1
95082.1
95167.4
95266.3
95377.8
95500.5
95633.1
95774.5
95923
96077.4
94773.8
94750.4
94735.6
94730.7
94736.6
94754.5
94786.3
94832.9
94894.7
94971.1
95061.5
95165.2
95281.2
95408.1
95544.6
95689.3
95841
95998.3
94673.1
94648.4
94634.1
94631.1
94639.5
94660.6
94695.9
94746.2
94812.2
94892.3
94986.4
95093.6
95212.8
95342.8
95482.2
95629.4
95783.3
95942.7
94604.3
94580.8
94566.6
94564.6
94574.5
94597.5
94634.9
94687.5
94756.6
94839.2
94935.6
95045.2
95166.7
95298.9
95440.2
95589.3
95744.8
95905.5
94564
94539.6
94524.7
94523.2
94533.8
94557.8
94596.4
94650.1
94722
94805.8
94903.6
95014.6
95137.6
95271.3
95414
95564.3
95720.9
95882.6
94544.8
94518.2
94502
94500.5
94511.1
94535.6
94574.8
94628.4
94703.7
94787.5
94885.9
94997.6
95121.5
95256.1
95399.7
95550.8
95708
95870.2
94540
94510.8
94493.3
94491.8
94502
94526.6
94566.2
94620.8
94695.1
94780
94878.9
94991
95115.3
95250.2
95394.2
95545.6
95703.1
95865.8
94492.4
94491.3
94489.3
94486.7
94483.4
94479.6
94475.4
94470.9
94466.1
94461.3
94456.5
94451.9
94447.6
94443.9
94440.9
94438.8
94438
94438.6
94440.8
94445
94451.4
94460.1
94471.4
94485.5
94502.7
94523.1
94546.9
94574.2
94605.3
94640.3
94679.5
94722.7
94769.7
94820.5
94875.3
94933.9
94996.2
95061.8
95130.4
95201.9
95275.7
95351.5
95429.2
95508.7
95589.5
95671.3
95753.5
95836.2
95918.5
95999.3
96079.3
96158.1
96234
96306.7
96378.5
96445.4
96505.3
96560.3
96609
96648.3
96681.8
96707.8
96723.9
96732
96730.2
96716.5
96693
96658
96608.9
96547.1
96474
96389.5
96293.5
96188.1
96072.1
95942.3
95796.4
95633.7
95455
95260.6
95050.9
94827.2
94589.7
94337.2
94072.9
93795.8
93507.5
93209.3
92903
92590.5
92273.8
91955.2
91636.6
91320.5
91008.5
90701.9
90404.3
90117.8
89842.8
89581.7
89337
89111.6
88904.8
88720.2
88556.8
88416.1
88297.8
88202.5
88129.1
88077.5
88047
88037
88046.5
88074.4
88119.1
88179.1
88252.9
88338.1
88432.4
88530.7
88628.7
88724.1
88812.5
88892.4
88963.5
89022
89062.4
89083.6
89091.7
89070.9
89032.5
88978.7
88909.9
88831.4
88749
88670.1
88599.7
88543.3
88507.9
88497.8
88516.1
88566
88648.1
88760.3
88900.4
89062.5
89241.5
89427.7
89611.5
89781.1
89927.5
90041.3
90113.3
90137.9
90112.7
90036.4
89916
89754.3
89561.7
89349
89121.6
88890.4
88662.8
88452.2
88269
88121.6
88017.1
87959.6
87956.3
88012.1
88128.6
88306.9
88549.1
88850.4
89204.4
89615.1
90085.5
90630
91226.8
91853.7
94527
94526.2
94523.5
94520.9
94517.5
94513.8
94509.6
94505.1
94500.4
94495.6
94490.8
94486.1
94481.7
94477.9
94474.9
94472.8
94471.9
94472.3
94474.4
94478.4
94484.6
94493.2
94504.3
94518.2
94535
94555.1
94578.5
94605.5
94636.1
94670.7
94709.2
94751.7
94797.9
94847.9
94901.8
94959.6
95021
95085.8
95153.6
95223.7
95296.1
95370.9
95447.5
95525.5
95604.9
95685.5
95766.1
95846.7
95926.5
96006.3
96085.6
96164
96241.6
96315.3
96384.7
96450.5
96507.8
96562.1
96611.2
96648.7
96682.5
96709.3
96724
96732.8
96731.6
96717.9
96695.4
96661.2
96611.1
96548.9
96479.6
96401.3
96309
96202.7
96084.2
95953.1
95807
95645.5
95468.7
95276.7
95068.9
94847
94611.5
94362
94099.8
93824.9
93538.8
93243
92938.7
92628.1
92313.4
91996.7
91679.9
91366
91056.8
90752.1
90455.9
90171.4
89898.2
89638.2
89394.2
89170.2
88964.1
88780.6
88618
88477.9
88359.9
88264.9
88191.4
88139.5
88108.3
88097.4
88105.7
88132.2
88175.1
88233.3
88305.4
88389.2
88482.1
88579
88675.3
88770.4
88857.4
88935.3
89008
89064.3
89105.3
89129.2
89134.1
89115.8
89078.3
89025.5
88958
88880.1
88798.5
88721.2
88651.7
88595.7
88560.6
88550.9
88569.4
88619.2
88700.9
88812.7
88952.5
89113.8
89292
89477.2
89660
89828.3
89973.9
90086.5
90158.5
90181.6
90156.1
90078.6
89958.5
89795.9
89602.5
89390.6
89163.8
88932.7
88704
88492.2
88307.7
88159.5
88054.5
87995.5
87991.5
88047.6
88164.1
88341.9
88584.7
88886.7
89241.2
89650.8
90120.3
90665.3
91260.3
91880.7
94594.9
94593.4
94590.2
94587.5
94584.2
94580.7
94576.8
94572.4
94567.7
94562.9
94558
94553.4
94549.3
94545.7
94542.5
94540.5
94539.5
94539.8
94541.7
94545.5
94551.4
94559.6
94570.3
94583.6
94599.9
94619.3
94642.1
94668.2
94698
94731.5
94768.7
94809.6
94854.4
94902.7
94954.9
95010.9
95070.3
95133
95198.6
95266.9
95337.1
95409.2
95482.7
95558
95634.7
95711.8
95790
95868
95945.8
96024.1
96102.2
96178.1
96252
96322.5
96390.4
96456.1
96512.1
96565.1
96614.6
96651.2
96684.5
96711.5
96725.8
96735.7
96736.8
96724.4
96702.3
96669.4
96622.6
96563.3
96494.6
96414.9
96322.9
96218.6
96101.9
95971.5
95827.1
95668.6
95495.5
95307.7
95101.6
94884.3
94652.7
94407.6
94149.6
93878.9
93596.9
93305.4
93005.1
92697.9
92386.6
92073.6
91760.6
91450.6
91145.4
90844.7
90551.9
90271
90001.7
89744.4
89502.2
89281
89077.3
88896.1
88735.7
88597.4
88481.1
88387.4
88314.9
88263.3
88231.7
88219.9
88226.6
88251.6
88292.1
88346.8
88415.6
88496.5
88585.6
88679.4
88771.2
88867.1
88951.4
89029.7
89098.1
89152.3
89193.6
89218.7
89223.2
89207.3
89171.7
89121.4
89056
88980
88900.7
88827
88759.6
88705
88670.6
88661.5
88680.3
88729.4
88810.6
88921.3
89060.2
89219.8
89396.4
89579
89759.8
89925.4
90068.4
90178.1
90247.9
90270.4
90244.8
90164.8
90044.3
89879
89683.1
89471.2
89245.4
89016.2
88787.1
88574.7
88388.4
88238.5
88134
88072.3
88065.8
88123.1
88241.1
88418.8
88662.3
88962
89316.1
89721.9
90195.4
90740.6
91332.3
91944.3
94693.7
94691.7
94688.5
94685.7
94682.7
94679.6
94676.1
94671.8
94667.2
94662.5
94657.9
94653.8
94649.9
94646.8
94643.8
94641.4
94640.2
94640.2
94641.8
94645
94650.3
94657.9
94667.9
94680.6
94696
94714.5
94736.2
94761.2
94789.5
94821.3
94856.5
94895.2
94937.5
94983.4
95033.1
95086.4
95143.1
95203
95265.3
95330.3
95397.4
95466
95536.3
95608.5
95682
95755.4
95828.9
95902.9
95977.7
96052.5
96126.6
96198.4
96270.2
96339.1
96405.7
96469.4
96522.7
96573.6
96622.1
96656.9
96690
96718
96731.8
96741.2
96743.6
96735.1
96716.6
96684.3
96638.6
96582.7
96516.6
96437.8
96346.7
96243.7
96128.6
96000.6
95859.3
95704.5
95535.6
95352.3
95150.4
94938.1
94711.9
94472.5
94219.7
93954.5
93678.3
93392.4
93097.7
92795.8
92489.3
92181
91873.4
91568.5
91267.8
90972.3
90684.3
90407.6
90143.6
89891.1
89651.5
89433.7
89232.9
89054.6
88896.8
88760.7
88646.5
88555.1
88484.3
88433.7
88402.5
88390.3
88395.5
88419.6
88459.2
88512.1
88577.2
88653.4
88737.9
88828.7
88919.8
89009.5
89092.1
89169.6
89236.8
89289.3
89328.4
89353.2
89359.9
89347
89314.6
89268.5
89206.1
89133.7
89057.5
88988.2
88923.8
88871.7
88839.2
88830.8
88850.3
88898.4
88978.3
89086.6
89223.4
89380.6
89554.4
89733.6
89911.5
90073.5
90211.5
90317.5
90383.2
90402.7
90377.5
90295.4
90175.2
90006.9
89804.6
89589.5
89363.1
89135.2
88906.8
88695.8
88510.1
88358.4
88256.5
88193.6
88180.2
88235.4
88356.1
88535.4
88781.3
89076.1
89428
89831.8
90311.2
90847
91434
92030
94823
94820.8
94817.4
94814.1
94811.3
94808.6
94805.6
94801.6
94797.3
94793.2
94789.4
94785.9
94782.1
94778.6
94775.7
94772.7
94771
94770.5
94771.5
94774.2
94778.8
94785.8
94795.1
94806.9
94821.5
94838.9
94859.4
94883
94909.5
94939.1
94971.8
95007.7
95047
95089.7
95135.9
95185.5
95238.4
95294.3
95353.2
95414.1
95477.1
95541.9
95608.4
95676.2
95744.5
95812.6
95881.1
95950.6
96019.9
96089.9
96160.4
96230.1
96298.3
96363.5
96427.5
96488.5
96539.7
96588.7
96633.9
96667.9
96699.1
96724.6
96740
96752.5
96756.8
96750.4
96735.1
96706.1
96662.6
96607.5
96541.4
96464.4
96376
96275.9
96163.8
96039.3
95902
95751.6
95587.4
95408.9
95214.2
95007.2
94787
94553.9
94307.8
94049.5
93780.4
93501.5
93213.9
92919.4
92620
92318.4
92016.9
91717.3
91422
91133.6
90851.6
90579.5
90320.9
90075.9
89841.6
89627.6
89430.8
89255.7
89100.8
88967.2
88855.1
88766.2
88697.5
88647.3
88616.1
88603.5
88605.5
88627.8
88665.3
88717.2
88779.2
88850.6
88931.2
89018.1
89106.5
89194.4
89276.2
89352.8
89422.1
89475.2
89510.8
89533.5
89544.1
89533.6
89508
89468
89411.3
89344.5
89272.3
89206.5
89145.7
89097
89067.6
89061
89081.6
89128
89206
89309.9
89443.1
89596.5
89765.5
89941.4
90114.5
90273.3
90404.9
90505.2
90566.1
90578.8
90552
90467.9
90346
90181.6
89973.5
89751.9
89521.5
89291.2
89062.2
88852
88669.8
88517.2
88418.9
88361.4
88340.5
88385.6
88505.7
88687.7
88939.2
89230.7
89577.5
89985.1
90463.1
90980.3
91553.5
92151.9
94980.8
94978.4
94975
94971.4
94968.7
94966.4
94963.6
94960.2
94956.6
94953.3
94950.3
94946.4
94942.1
94938.1
94934.6
94931.3
94929
94928.3
94928.6
94931.1
94935.4
94941.6
94950.2
94961.2
94974.8
94991
95010.1
95032
95056.7
95084
95114.1
95147
95182.8
95221.7
95263.7
95309
95357.6
95409.1
95463.1
95519.1
95576.8
95636.5
95697.8
95760
95823.1
95885.9
95948.7
96012.7
96077.6
96142.2
96207.1
96272.1
96336
96399.2
96459.5
96515.9
96566.4
96612.4
96653.2
96685.4
96713.9
96737.4
96753.7
96766.8
96772.7
96769.4
96757.3
96730.9
96689.2
96635.4
96571.2
96496.9
96411.9
96315.5
96207.3
96087
95954.2
95808.8
95650.1
95477.5
95289.8
95089.2
94875.5
94649.3
94410.8
94160.3
93899
93628
93348.9
93063.4
92773.1
92479.8
92185.6
91892.9
91604.8
91323.3
91048.6
90783.3
90530.1
90291.7
90064.8
89854.1
89663.1
89490.7
89340.3
89210.6
89101.3
89015.3
88949.6
88901.4
88871
88858.6
88860.1
88879.6
88913.2
88960.1
89018.8
89086.4
89161.1
89243.1
89327.2
89412.8
89496.9
89573.5
89643.9
89703.8
89743.3
89763.7
89780.1
89772.5
89752.2
89718.6
89670.1
89612.2
89547.5
89485.7
89428.4
89385.2
89361.2
89356.5
89379.3
89423
89497.8
89596.2
89722.5
89871
90032.1
90203.8
90368.7
90522.6
90648.9
90741
90800.1
90807.3
90772.4
90683.1
90552.2
90395.3
90188.3
89960.5
89725.7
89489.5
89258.6
89046.1
88867.6
88715.4
88617.6
88570.7
88551.6
88582.3
88693.7
88876.3
89134.1
89429.8
89767.2
90178
90647.6
91149.1
91708.1
92306.6
95163.7
95161.2
95157.8
95154.5
95152
95149.8
95147.1
95144.1
95141
95137.9
95133.8
95130.4
95125.8
95121.2
95117.5
95114.2
95111.5
95110.5
95110.5
95112.4
95116.4
95122
95129.7
95139.8
95152.3
95167.3
95185.1
95205.7
95228.7
95254.2
95282
95312
95344.4
95379.3
95416.9
95457.5
95501
95547.2
95595.4
95645.5
95697.5
95751.3
95806.4
95862.5
95919.3
95975.7
96032.6
96091.2
96149.9
96208.5
96267.8
96327.6
96387
96445.5
96501.9
96555.5
96602.4
96643.4
96679.3
96708.9
96734.6
96756.7
96774.7
96788.8
96795.3
96793.6
96782.1
96755.5
96715.5
96665.5
96605.4
96535.1
96454
96361.7
96257.9
96142.5
96014.8
95874.8
95721.9
95555.7
95375.5
95182.4
94976.8
94758.9
94529
94287.7
94035.5
93774
93505
93229.5
92948.8
92664.9
92380.2
92097.3
91818.8
91545.5
91279.2
91023
90776.9
90542
90320.4
90113.8
89926.6
89756.2
89610.3
89484.8
89377.3
89292.8
89230
89184.7
89159
89148.9
89150.9
89170.1
89201.1
89243.9
89296.9
89359.8
89429.6
89505.9
89585.4
89667.4
89750.8
89829.2
89900.6
89967.5
90020
90049.7
90051.8
90056.9
90046.1
90023.6
89986.1
89938
89881.3
89826.4
89775.6
89736.9
89719.7
89717
89741.9
89783.7
89854.6
89950.3
90068.8
90210.6
90359.9
90523.3
90680.8
90825.4
90945.9
91025.2
91077.1
91084.3
91044.7
90950.1
90804.8
90645
90443.4
90212.6
89975.2
89732.9
89500.4
89283.6
89108.8
88957.9
88852.7
88813.2
88806.9
88829.9
88926
89103.7
89364.5
89672.8
90000.9
90408.1
90864.2
91353.2
91895.5
92486.2
95369.4
95366.7
95363.1
95359.9
95357.4
95355
95352.4
95349.8
95346.9
95343.5
95338.9
95334.5
95329.8
95324.7
95320.8
95317.8
95315.2
95314.1
95314.4
95315.9
95320.3
95325.4
95332.5
95341.7
95353.2
95367.1
95383.6
95402.6
95423.9
95447.5
95473.1
95500.4
95529.6
95561
95594.6
95630.9
95669.7
95710.3
95752.5
95796.2
95841.1
95887.7
95936
95985.6
96035.6
96085.3
96135.4
96187.2
96239.4
96291.3
96344.4
96398.2
96453.4
96507.3
96559.1
96606.6
96648.5
96684.4
96715.4
96741.3
96764.4
96785.2
96802.4
96816.3
96824.1
96823.1
96812.9
96785
96747.9
96701.7
96645.7
96579.2
96501.9
96413.8
96314.5
96204
96082.1
95948
95801.3
95641.8
95469.7
95285.1
95088.2
94879
94658.1
94426.2
94184
93932.8
93674.1
93408.9
93139.3
92866.6
92593.1
92322
92054.6
91792
91536.3
91289.3
91053.4
90827.1
90611.6
90412
90227.8
90059.9
89916.2
89792.6
89686.3
89601.3
89539.2
89496.5
89473.1
89467
89470.8
89491.1
89520.9
89561.8
89611.9
89670
89736.5
89807.9
89883.6
89962.9
90042.5
90123.4
90197.3
90266.7
90328.2
90376.4
90397
90400.2
90393
90380.1
90355.5
90321.6
90278.4
90232.3
90189.8
90151.8
90138.1
90137.8
90164.3
90207.5
90275.1
90370.8
90483.7
90616.9
90753.8
90904.2
91053.8
91186
91298
91368.2
91404.8
91407.6
91361.4
91268.1
91115.2
90937.7
90737.7
90507.4
90269.6
90024.3
89791
89568.1
89395.4
89248.6
89130.9
89087.7
89094.1
89124.1
89205
89369.7
89631.1
89952.2
90278
90678.7
91116.7
91588.4
92109.8
92686.2
95594
95591.2
95587.6
95584.6
95581.8
95578.9
95576.2
95573.4
95570.5
95566.7
95561.8
95556.5
95551.5
95546.5
95542.7
95540.2
95538.5
95538
95538.8
95541.2
95545.2
95550.7
95557.8
95566.6
95577.5
95590.5
95605.5
95622.7
95642.2
95663.4
95686.2
95710.4
95736.4
95764.2
95794.1
95826.5
95861
95896.8
95933
95970.2
96007.9
96046.5
96087.2
96129.8
96173
96216
96259.3
96304
96349.1
96394.3
96441.1
96489.4
96537.5
96586.2
96632
96673.3
96709.6
96739.8
96765.1
96786.7
96806.1
96823
96838.1
96852.7
96861.8
96855.7
96840.4
96820.5
96788.3
96745.9
96693.2
96630
96556.7
96472.8
96378.1
96272.7
96156
96027.6
95887.1
95733.9
95571.1
95393.7
95203.9
95002.4
94789.7
94566.2
94333.4
94092.1
93843.2
93588.8
93330.6
93069.8
92808.4
92548.4
92292
92041.2
91798.1
91562.8
91337.5
91123.4
90921.2
90732.5
90559.4
90398.9
90260.2
90137.2
90033.7
89948.5
89885.9
89842.7
89817.5
89811.9
89815.7
89836.5
89865.5
89906.8
89955.9
90012.7
90076.7
90147.5
90219.7
90297.9
90376.8
90457.7
90534.5
90607.4
90672.3
90732.6
90780.5
90803.8
90804.7
90795.9
90780.4
90758.1
90731
90695.9
90664.7
90631
90618.1
90619.7
90647.9
90696
90762.3
90856.8
90965.2
91090.4
91217.8
91352.4
91488.9
91605.1
91706.1
91770.1
91794.7
91787
91728.7
91635.5
91481.6
91285.4
91073
90845.1
90609.1
90365.7
90133.8
89906.3
89728.6
89588.2
89462.3
89403.9
89409
89458.2
89530.1
89677.1
89936.2
90259.1
90591.2
90991.7
91407.3
91853.5
92356.7
92918.2
95832.5
95829.9
95826.8
95823.7
95820.4
95817
95814.1
95810.7
95807.2
95803.1
95798.7
95794.4
95790.3
95787
95784.4
95782.6
95782.4
95783.4
95785.5
95789
95793.7
95799.8
95807.2
95816.1
95826.5
95838.6
95852.5
95868.3
95885.8
95904.5
95924.3
95945.1
95967.2
95991
96016.5
96044.2
96073.6
96104
96134.6
96165.1
96196.2
96227.8
96261.1
96296.3
96332.2
96368
96404
96441.5
96480.7
96520.4
96560.8
96602.4
96644.2
96685.5
96723.8
96757.4
96786.7
96811.4
96831.3
96847.3
96860.6
96872.2
96883.4
96894.1
96900.7
96902.8
96892.2
96871.1
96839.7
96799.3
96749.1
96688.9
96618.9
96539
96448.7
96348.1
96236.1
96112.6
95978
95831.9
95674.4
95504.7
95322.8
95130.4
94927.2
94713.6
94491.2
94260.1
94021.9
93779.2
93531.8
93282
93031.7
92781.9
92535.3
92295.4
92063.4
91839.7
91625.7
91421.6
91232.9
91055.8
90897.7
90747.9
90622
90506.8
90410.4
90328.5
90268
90223.9
90196
90188.2
90187.5
90208.7
90233.7
90276.4
90323
90381.7
90444.6
90517
90590.5
90668.8
90750.6
90832.9
90913.4
90991.8
91064
91131.6
91192.7
91246.9
91273.4
91281.7
91274.7
91259.7
91246.8
91221.7
91200.7
91174.9
91165.5
91171.4
91203.6
91258.4
91322.4
91412.1
91513.9
91630.6
91749.8
91868.8
91989.9
92085.3
92173.4
92230.3
92245
92226.1
92157.9
92058
91903.2
91696.8
91460.2
91230.2
90996.2
90756.3
90529.1
90305.5
90114.2
89974.9
89852.2
89773.5
89762.1
89830.7
89898.9
90031.4
90283.1
90592.7
90933.1
91340.2
91737.8
92151
92637.6
93186.8
96079.8
96077.6
96075
96072
96068.3
96064.8
96062
96059.2
96056.1
96052.8
96049.6
96046.8
96044.3
96043.1
96042.9
96043.6
96045
96047.7
96051.3
96056.4
96062.4
96069.4
96077.5
96086.9
96097.2
96108.7
96121.5
96135.7
96151.1
96167.4
96184.4
96202
96220.5
96240.4
96261.8
96284.1
96307.1
96330.9
96355.3
96380.5
96405.7
96431.2
96457.7
96486.2
96515.4
96543.9
96572.6
96602.9
96635.2
96668.6
96702.3
96736.4
96770.7
96803.5
96833
96858.6
96881.1
96900.1
96914.7
96926
96935.8
96944.9
96953.6
96963.2
96968.8
96967.1
96956
96934.8
96904
96864.2
96815.3
96757
96689.7
96612.9
96526.1
96428.9
96321.1
96202.5
96073.3
95932.9
95781.5
95621.4
95448.8
95266.1
95073
94869.9
94658.1
94438.4
94212.2
93980.8
93745.1
93506.8
93267.7
93030.1
92795.5
92566.6
92344.9
92130.7
91926.5
91732.8
91553
91385.2
91241.1
91102.7
90986.9
90884.1
90798.4
90724.2
90668.5
90626.9
90598.8
90591.6
90587.2
90608.3
90630.5
90671.5
90717
90774.6
90838.3
90911.5
90989.8
91070.3
91159.4
91244
91332.8
91419.9
91500.2
91582.8
91651.3
91716.8
91779
91816.9
91831.8
91833.8
91839.3
91825.1
91813.5
91795.6
91791.6
91804.2
91840.8
91898.6
91959.6
92039.6
92130.6
92236.3
92345.7
92449.2
92554.2
92634.7
92703.5
92751.7
92757
92725.5
92650.5
92539.3
92380.2
92170.8
91915.4
91668.6
91433
91198.7
90978.8
90769.4
90560.8
90408.9
90297.3
90199.8
90167.5
90242.3
90307.7
90432
90674.8
90957.4
91299.6
91715.5
92098.1
92476.8
92947.8
93476.7
96331.6
96329.9
96328
96325.7
96322.6
96319.6
96317.5
96315.9
96314.2
96312.4
96311
96309.9
96309.8
96310.8
96313
96315.8
96318.9
96323
96327.8
96333.6
96340.5
96348.6
96358
96368.7
96380.3
96392.6
96405.4
96418.6
96432.3
96446.5
96461.4
96477.2
96493.4
96510.2
96527.6
96545
96562.4
96580.1
96598.8
96618.4
96638.4
96658.5
96678.8
96700.1
96722.7
96744.9
96766.9
96789.9
96813.7
96839.2
96866
96892.8
96918.7
96942.8
96964.1
96982.7
96999.2
97013.2
97024
97032
97039.1
97045.2
97054.3
97058.5
97058.8
97050.8
97036.2
97012.5
96981
96941.3
96893.2
96836.2
96770.4
96695.5
96610.9
96516.6
96412.5
96298.6
96174.7
96040.5
95895.9
95741.9
95577.6
95402.1
95216.4
95021.1
94818.4
94610.2
94395.5
94175.1
93951.4
93725.4
93498.4
93273.3
93052.5
92837
92628
92427.5
92234.3
92052.5
91884.7
91730.8
91593.4
91470
91360.9
91269.5
91192.9
91128.1
91080.1
91045.3
91019.8
91012.9
91009.5
91027.4
91054.9
91090.4
91138.5
91194.1
91258.8
91332.1
91415.2
91499.6
91598.3
91690.2
91789.4
91888.4
91979.7
92077.8
92163
92243.4
92319.5
92392.2
92434.6
92459.2
92487.4
92495.6
92497
92492.5
92494.6
92516.7
92550.6
92605.8
92665.1
92734.3
92812.7
92904.6
92999.1
93083.7
93173.5
93246.4
93301.2
93337.3
93334
93290.3
93207.6
93084.7
92913.7
92701.6
92448.2
92173.8
91928.3
91702.7
91494.2
91300.8
91077
90901.7
90795.3
90682.1
90630.2
90693.9
90753.3
90878.7
91108
91356.6
91691.6
92105.7
92465
92818.8
93279.9
93783
96583.7
96582.8
96581.6
96580.8
96579.5
96578.4
96577.8
96577.6
96578
96578.7
96580.2
96582.1
96584.4
96588.1
96592.6
96597.6
96603.2
96609.4
96615.7
96622.5
96630.3
96639.7
96651.1
96664.1
96678
96691.9
96705.5
96719
96732.3
96745.5
96758.9
96772.9
96787.2
96801.1
96814.7
96828.2
96841
96853.6
96866.9
96880.7
96895.5
96910.7
96924.8
96939.4
96955.2
96971.2
96986.3
97001.9
97018.5
97035.7
97054.1
97073.2
97091.4
97107.5
97121.7
97134.3
97145.3
97154.6
97161.9
97167.1
97171.4
97176.6
97175.8
97173.3
97167.6
97156.1
97135.5
97108.1
97073.5
97032.3
96983.7
96927
96862
96788
96704.8
96612.6
96511.7
96401.8
96282.4
96152.8
96012.7
95863.2
95705.4
95536.8
95359
95172.8
94979.2
94781.5
94578.8
94370.5
94158.5
93944.4
93729
93515.1
93305.4
93101.8
92905.9
92718.8
92535.9
92369.6
92216.5
92077.1
91952
91843
91745.2
91662.8
91594.4
91537.7
91496.5
91469.6
91451.2
91446
91449.5
91462.3
91497.9
91531.9
91583.3
91640
91706.7
91781.1
91868.2
91960
92065.1
92171.2
92283.4
92395.9
92504.7
92616.5
92722.6
92820.5
92907.3
92989.4
93080
93128.2
93176.2
93210.2
93230.1
93245.9
93257.4
93289.1
93319.8
93371.2
93428.9
93487.8
93556.8
93634.9
93713
93788.4
93864.4
93926.2
93970.8
93992.7
93980.6
93926.5
93834.8
93695.8
93507
93288.1
93051.8
92771.3
92512.4
92290.7
92090.2
91902.8
91665.8
91466.2
91351.3
91221.5
91154.3
91191.1
91237.7
91374.9
91578.5
91794.8
92117.5
92498.5
92818.8
93166.5
93624
94099.2
96832.1
96832
96831.5
96832.1
96832.9
96834.3
96836.9
96840.1
96843.8
96848.1
96853.2
96858.9
96865
96872.3
96880.3
96888.8
96897.9
96907.4
96916.9
96926.1
96936
96947.5
96961
96975.8
96991
97005.8
97020.7
97035.5
97049.2
97061.8
97074.1
97086.7
97099.1
97110.8
97121.6
97131.6
97140.8
97149.8
97158.6
97166.7
97175.1
97182.9
97192.8
97202.9
97212.7
97222.6
97231.8
97240.1
97249
97258.9
97269.1
97279.9
97291.2
97300.7
97307.8
97314.3
97319.9
97323.8
97325.9
97326.4
97325.3
97322.4
97316.1
97306.2
97292.9
97274.7
97250.5
97221
97184.6
97140.9
97089.9
97031.8
96966
96892.1
96809.5
96718.5
96619.8
96513.2
96397.5
96271.5
96134.9
95989.9
95837.5
95676.7
95508
95331.2
95145.5
94955.9
94762.9
94565.9
94365.7
94163.1
93959.4
93757.3
93560.2
93368.5
93184.2
93007.7
92839.3
92685.3
92544.9
92419.2
92308.2
92211.2
92126.8
92054.4
91995.4
91948.2
91912.7
91891.9
91882.6
91883.1
91897.9
91911.9
91951.7
91991.1
92046.7
92108.2
92179.6
92258.2
92350.2
92452.2
92562.5
92685.8
92813.2
92943.2
93073.5
93200.2
93330.9
93451.3
93560.8
93662.1
93751.6
93846.5
93911.6
93970.1
94012.4
94047.6
94073.8
94112.7
94144.4
94194.4
94248.8
94299
94365.4
94432.7
94496.3
94569
94627.8
94681
94715.5
94724.8
94702
94636.9
94535.5
94371.6
94165.5
93944.5
93725.3
93473
93214.7
92982.7
92775
92573.2
92321.6
92104.9
91969.3
91818.4
91741.5
91736.9
91771.2
91919.6
92082.6
92281.5
92585.1
92887.3
93157.1
93520.5
93974.1
94414.3
97075.9
97075.5
97075.4
97077.3
97080.3
97084.4
97090.4
97098.3
97106.9
97116.3
97126.2
97137
97148.4
97160.6
97173.4
97186.7
97200.4
97214.1
97227.7
97240.9
97254.5
97268.7
97283.7
97299.5
97315.6
97331.9
97348.9
97365.1
97378.8
97390.8
97403.1
97415.6
97427.1
97436.9
97445.7
97453.2
97459.7
97465.2
97470.6
97475.4
97479
97483.2
97487.5
97492.2
97497
97500.3
97503.8
97506.7
97508.4
97510
97513
97516.3
97519.8
97522.9
97523.9
97523.2
97522.3
97520.3
97516.4
97510.6
97502.4
97492.1
97479.2
97463.9
97443.6
97418.8
97388.9
97354
97313.8
97267
97213.3
97152.8
97085
97009.8
96926.9
96836.6
96739.2
96634.5
96521.2
96398
96265.2
96124.8
95978.2
95823.6
95661.2
95490.2
95311.1
95127.3
94941.4
94754.7
94567
94376.5
94184.5
93994.1
93808.7
93629.8
93456.8
93292.7
93138.5
92997.3
92869.6
92756.4
92657.4
92569.8
92495.8
92433
92383.6
92347.1
92321.3
92308.7
92309.2
92317.9
92344.2
92368.4
92412
92459.7
92521.7
92591.5
92672.2
92759.1
92859
92972.1
93092.5
93231.9
93375.3
93526.3
93681.8
93829.7
93987.4
94133.1
94272.5
94399.5
94510.8
94615.9
94705.6
94788.4
94853.5
94905.1
94950.9
94994
95026.6
95076.9
95129.8
95178.3
95243
95298.8
95356.9
95421.4
95468.1
95514.8
95538
95537.4
95500.1
95426
95309.4
95117.2
94900.3
94689.8
94478.2
94265.9
94025.5
93770
93539
93306.8
93035.6
92812.2
92651.6
92475.9
92391.5
92335.5
92362.7
92505.7
92620.6
92821.8
93072.2
93276.3
93498.5
93890.2
94322.8
94732
97310.5
97310.5
97310.3
97314.5
97320.6
97328.3
97337.9
97349.9
97363.9
97379.5
97396.4
97414
97432
97450.5
97469.3
97488.2
97507.2
97525.8
97544
97562
97580.1
97598.1
97616.1
97634.4
97652.4
97670
97687.9
97705.1
97719.5
97732.2
97745.6
97758.7
97769.9
97778.5
97785.4
97791.3
97796.1
97800.1
97802.4
97804.6
97805.3
97805.5
97805.6
97805
97803.3
97802.5
97801.5
97799.6
97796.6
97791.5
97785.9
97782
97778.4
97774.1
97768.6
97761.4
97753.5
97744.6
97733.8
97720.8
97705.5
97687.4
97666.2
97643.6
97617.2
97587.3
97552.7
97511.8
97465.3
97413.3
97355.3
97291.3
97220.5
97142.8
97058.5
96967.7
96870.9
96767.4
96655.2
96533.7
96403.4
96266.8
96124.5
95974.9
95817.5
95653
95481.1
95305.6
95128.7
94951.6
94773.6
94593
94410.8
94230.7
94055.7
93887.8
93726.5
93573.1
93431.8
93303.4
93188
93086.6
92996.3
92916.7
92850.4
92796.4
92756.6
92730.1
92716.1
92714.7
92726.4
92746.4
92782.4
92821.3
92873.3
92932.3
93003.6
93084.7
93177.3
93278
93389.9
93515.8
93651.8
93807
93968.9
94143.5
94324.8
94501.8
94687.1
94859.6
95032.7
95187.4
95329.1
95461.8
95566.8
95670.3
95754.8
95825.2
95888.9
95936.4
95983.4
96034.5
96081.1
96133.7
96191.4
96239.2
96295.6
96350.1
96390.1
96429.2
96440.6
96429.1
96379
96293.2
96151.2
95941.3
95725.6
95536.8
95326.5
95130
94901.1
94625.2
94358.2
94089.3
93804.6
93578.8
93389.7
93195.2
93100.9
92995.4
93014.7
93118.8
93200.1
93396.6
93553.2
93676.3
93869.2
94287.9
94667.1
95053.9
97528.7
97529.8
97533.4
97539.9
97549.4
97562
97576.9
97593.8
97613
97634.7
97658.5
97683.5
97709.1
97734.7
97760.2
97785.6
97810.5
97834.9
97858.8
97882.3
97905.6
97928.2
97950.4
97972.1
97992.4
98011.6
98032.2
98052.7
98068.6
98082.1
98096.9
98111.4
98122.9
98130.7
98136.9
98143.1
98148.2
98151.6
98152.8
98152.1
98150.7
98148.3
98145.7
98142.4
98137.5
98131.9
98126.1
98119.3
98111.4
98102.2
98090.1
98077.5
98066.8
98056
98043.5
98029.3
98014.2
97998.2
97980.3
97960
97937
97911
97882
97851.6
97817.4
97779.8
97738.8
97692.7
97640.6
97582.8
97519.5
97450.1
97375
97293.4
97205.9
97113.2
97015.6
96912.4
96800.9
96681.1
96552.9
96418.6
96279.2
96133.2
95980.7
95822.3
95657.9
95490
95320.4
95149.7
94978.4
94806.2
94634.1
94464.7
94300.5
94142.8
93991.8
93850.2
93721
93604.6
93500.3
93406.7
93322.4
93250.3
93190.8
93146.5
93117.2
93101.4
93100
93110.5
93134.3
93168.1
93213.5
93267.6
93332.1
93405.7
93489.4
93585
93691.6
93809.9
93938.1
94080.6
94235.7
94408.7
94593.2
94792.7
95001.3
95211.4
95422.5
95628.3
95832.4
96016.7
96193.3
96352
96484.6
96612
96713
96806.7
96885
96944.6
97006.2
97056.4
97104.9
97162
97210.1
97256.4
97312.4
97357.1
97393.7
97425
97422.8
97399
97342.8
97228.9
97062.1
96851.9
96649.4
96479
96267.2
96057.3
95820.1
95536.6
95227
94915.1
94628.1
94399.3
94171.6
93967.9
93857.1
93712.1
93715.7
93749.8
93825.1
93978.3
94036.3
94102.7
94294.5
94705.9
95022.4
95389.1
97726.3
97730.1
97737.1
97747.2
97761.8
97780.3
97801.6
97825.5
97851.8
97880.4
97910.9
97942.6
97974.9
98007.5
98040.2
98072.6
98104.2
98135.1
98165.6
98195.6
98224.6
98252.8
98280.5
98307
98331.7
98355.6
98380.3
98403.6
98421.7
98437.9
98455.2
98472.1
98485
98493.8
98501.3
98508.6
98515.1
98518.3
98519.3
98518
98515
98511.3
98506.6
98501.2
98494.4
98485.4
98475.5
98465.8
98453.7
98439.8
98423.7
98403.8
98385
98368
98349.2
98327.9
98305.5
98281.8
98256.5
98228.7
98198.2
98165
98129.1
98088
98045.5
97999.3
97949.6
97896.1
97837.9
97774.2
97705.1
97630.2
97549.6
97463.3
97371.5
97275.1
97174.4
97069
96957.8
96839.6
96714.2
96582
96445
96301.8
96152.9
95999.6
95842
95679.4
95514.5
95350.5
95188.1
95025
94861
94700.7
94546.7
94397.6
94255.9
94125.6
94007.7
93901.1
93803.8
93715
93637.2
93573.2
93522.9
93490.3
93472
93468.7
93480
93503.4
93539.5
93586.7
93643.2
93711.2
93789.4
93879.2
93977.5
94090
94213.3
94351.6
94499.8
94662.6
94840
95034.1
95245.2
95469.1
95706.3
95949.8
96190.9
96433.4
96666.4
96886
97095.2
97279.5
97448.7
97600.1
97727
97845.1
97936.8