/*--------------------------------*- C++ -*----------------------------------*\
| =========                 |                                                 |
| \\      /  F ield         | OpenFOAM: The Open Source CFD Toolbox           |
|  \\    /   O peration     | Version:  dev                                   |
|   \\  /    A nd           | Web:      http://www.openfoam.org               |
|    \\/     M anipulation  |                                                 |
\*---------------------------------------------------------------------------*/
FoamFile
{
    version     2.0;
    format      ascii;
    class       surfaceScalarField;
    object      phi_0;
    location    "9.126";
}
// * * * * * * * * * * * * * * * * * * * * * * * * * * * * * * * * * * * * * //

dimensions      [1 0 -1 0 0 0 0];

internalField   nonuniform List<scalar> 
24170
(
1.39151e-06
-2.90936e-09
-1.81182e-07
-5.56897e-07
-1.26691e-06
-9.37961e-07
-1.99365e-06
-1.18447e-06
-2.71505e-06
-1.06895e-06
-3.13084e-06
-1.26289e-06
-3.84219e-06
-8.48144e-07
-4.1348e-06
-1.15883e-06
-4.85552e-06
-6.18044e-07
-5.02532e-06
-1.07333e-06
-5.79505e-06
-3.68816e-07
-5.80613e-06
-1.04027e-06
-6.80738e-06
4.71824e-08
-6.41619e-06
-1.26625e-06
-7.22264e-06
2.60372e-08
-6.00169e-06
-1.9446e-06
-3.66451e-06
-2.96397e-06
5.95662e-06
-1.01379e-05
3.03425e-06
-1.48785e-06
1.59734e-06
-1.4486e-06
4.24894e-07
-1.99587e-06
-7.42588e-07
-2.12549e-06
-1.65775e-06
-2.13805e-06
-2.41538e-06
-2.36386e-06
-3.24085e-06
-1.75673e-06
-3.75938e-06
-2.24901e-06
-4.48735e-06
-1.38133e-06
-4.8403e-06
-2.09663e-06
-5.48108e-06
-9.98013e-07
-5.62423e-06
-2.0625e-06
-6.34777e-06
-2.84465e-07
-6.35405e-06
-2.23998e-06
-7.06274e-06
-1.15995e-07
-6.76044e-06
-3.03687e-06
-9.53865e-06
-8.49045e-07
7.1098e-06
-1.123e-05
3.74058e-06
-3.68141e-06
2.69912e-06
-2.97059e-06
1.73541e-06
-3.48583e-06
6.08736e-07
-3.31506e-06
-2.83271e-07
-3.42936e-06
-1.1459e-06
-3.54216e-06
-1.99963e-06
-2.81801e-06
-2.54496e-06
-3.47543e-06
-3.30632e-06
-2.26934e-06
-3.56292e-06
-3.36043e-06
-4.55699e-06
-1.40803e-06
-4.60853e-06
-3.29918e-06
-5.72863e-06
-3.37939e-07
-6.14154e-06
-2.90698e-06
-7.09092e-06
-1.23061e-07
-8.04458e-06
-2.9528e-06
-1.12059e-05
1.58451e-06
7.63678e-06
-1.22605e-05
4.01952e-06
-5.61527e-06
3.45101e-06
-5.20709e-06
2.47674e-06
-5.20372e-06
1.7688e-06
-5.13904e-06
7.14887e-07
-4.76577e-06
2.71624e-08
-5.07919e-06
-8.71986e-07
-4.01384e-06
-1.46926e-06
-4.81226e-06
-2.48258e-06
-3.05755e-06
-2.74213e-06
-4.7604e-06
-3.78832e-06
-1.89951e-06
-4.11857e-06
-4.37719e-06
-5.29385e-06
-4.5272e-07
-5.84536e-06
-3.53866e-06
-8.32653e-06
1.28529e-06
-8.25839e-06
-3.98188e-06
-1.15602e-05
4.06019e-06
1.03036e-05
-1.48375e-05
4.11983e-06
-7.5688e-06
3.95146e-06
-8.09958e-06
2.72248e-06
-6.91793e-06
2.24438e-06
-7.42527e-06
9.65056e-07
-6.09608e-06
4.99279e-07
-7.04543e-06
-6.34482e-07
-5.16421e-06
-1.13807e-06
-6.42076e-06
-2.28495e-06
-3.87638e-06
-2.76153e-06
-6.09914e-06
-3.86311e-06
-2.47653e-06
-4.39892e-06
-5.38282e-06
-5.56018e-06
-7.08189e-07
-6.02715e-06
-4.36475e-06
-8.12959e-06
2.19956e-06
-8.05929e-06
-5.10832e-06
-9.99915e-06
5.06002e-06
1.14169e-05
-1.19194e-05
4.44117e-06
-9.41461e-06
3.88977e-06
-1.08751e-05
2.44325e-06
-8.67149e-06
1.85265e-06
-9.84029e-06
6.71358e-07
-7.75097e-06
9.10838e-08
-9.10777e-06
-1.01688e-06
-6.54352e-06
-1.61975e-06
-8.11749e-06
-2.64141e-06
-4.99311e-06
-3.09138e-06
-7.62349e-06
-4.11109e-06
-3.28312e-06
-4.77849e-06
-6.39165e-06
-5.5769e-06
-1.45276e-06
-6.27474e-06
-5.06935e-06
-6.76515e-06
1.40213e-06
-8.56472e-06
-4.46556e-06
-9.8605e-06
5.30606e-06
8.36699e-06
-7.75984e-06
4.87659e-06
-1.17027e-05
4.07882e-06
-1.36749e-05
2.71405e-06
-1.07665e-05
2.00234e-06
-1.23751e-05
8.58409e-07
-9.66916e-06
1.57585e-07
-1.12616e-05
-9.32753e-07
-8.13964e-06
-1.51647e-06
-1.00167e-05
-2.41372e-06
-6.40898e-06
-3.25021e-06
-8.91961e-06
-3.81031e-06
-4.69796e-06
-4.70769e-06
-7.30443e-06
-5.02542e-06
-2.8059e-06
-6.19472e-06
-5.41837e-06
-6.20648e-06
1.72065e-08
-8.71531e-06
-3.21575e-06
-7.79429e-06
3.22142e-06
5.27423e-06
-5.75569e-06
3.99402e-06
-1.36159e-05
3.28358e-06
-1.57129e-05
2.28436e-06
-1.24075e-05
1.62547e-06
-1.41981e-05
7.96691e-07
-1.11768e-05
1.43036e-07
-1.27905e-05
-5.36502e-07
-9.50653e-06
-1.1956e-06
-1.12541e-05
-1.71184e-06
-7.65742e-06
-2.48929e-06
-9.76888e-06
-2.69683e-06
-5.99584e-06
-3.56347e-06
-7.82034e-06
-3.65161e-06
-3.99418e-06
-4.69852e-06
-5.53403e-06
-4.53489e-06
-1.21681e-06
-5.97912e-06
-2.74511e-06
-5.14782e-06
1.49411e-06
3.66561e-06
-4.35573e-06
4.63622e-06
-1.58855e-05
3.7855e-06
-1.79926e-05
2.7351e-06
-1.43569e-05
1.90182e-06
-1.61932e-05
1.03723e-06
-1.29691e-05
1.80876e-07
-1.44216e-05
-4.79533e-07
-1.11646e-05
-1.34013e-06
-1.2551e-05
-1.82397e-06
-9.17146e-06
-2.71828e-06
-1.07216e-05
-2.98633e-06
-7.43248e-06
-3.97672e-06
-8.40282e-06
-4.09811e-06
-5.3209e-06
-5.1768e-06
-5.78254e-06
-4.97589e-06
-2.64104e-06
-6.08587e-06
-2.75191e-06
-5.62124e-06
-1.34367e-10
2.23585e-06
-5.12903e-06
5.4455e-06
-1.82085e-05
4.25126e-06
-2.03324e-05
3.27407e-06
-1.67497e-05
2.14025e-06
-1.82447e-05
1.28566e-06
-1.5105e-05
1.96483e-07
-1.61366e-05
-4.79174e-07
-1.30861e-05
-1.51139e-06
-1.39445e-05
-1.9461e-06
-1.09759e-05
-3.00731e-06
-1.17329e-05
-3.35787e-06
-8.99579e-06
-4.37484e-06
-9.15221e-06
-4.49672e-06
-6.82535e-06
-5.5035e-06
-6.27185e-06
-5.33785e-06
-4.18422e-06
-6.15419e-06
-3.19866e-06
-5.77988e-06
-1.54112e-06
3.53782e-07
-4.97002e-06
6.38588e-06
-2.0739e-05
4.9353e-06
-2.28241e-05
3.91757e-06
-1.94743e-05
2.51782e-06
-2.0386e-05
1.58566e-06
-1.74907e-05
2.61859e-07
-1.79238e-05
-4.6942e-07
-1.52296e-05
-1.70299e-06
-1.53952e-05
-2.20749e-06
-1.2947e-05
-3.32702e-06
-1.29075e-05
-3.72279e-06
-1.07179e-05
-4.72082e-06
-1.01102e-05
-4.98579e-06
-8.36193e-06
-5.72106e-06
-7.19645e-06
-5.81574e-06
-5.61888e-06
-6.1317e-06
-4.29196e-06
-6.05012e-06
-2.92386e-06
-1.46342e-06
-5.43621e-06
7.88062e-06
-2.35391e-05
5.92023e-06
-2.51821e-05
4.65255e-06
-2.22993e-05
2.8518e-06
-2.24556e-05
1.78341e-06
-2.00389e-05
2.66018e-07
-1.97939e-05
-5.69852e-07
-1.75157e-05
-1.91835e-06
-1.6959e-05
-2.51429e-06
-1.5038e-05
-3.65124e-06
-1.42597e-05
-4.11505e-06
-1.2549e-05
-4.98191e-06
-1.13623e-05
-5.35094e-06
-9.94597e-06
-5.84607e-06
-8.50492e-06
-6.06693e-06
-7.06192e-06
-6.18354e-06
-5.71302e-06
-5.98348e-06
-4.54479e-06
-3.29948e-06
-5.46116e-06
9.003e-06
-2.65032e-05
6.80125e-06
-2.7604e-05
5.3116e-06
-2.51835e-05
3.41331e-06
-2.46811e-05
2.1354e-06
-2.26028e-05
4.93329e-07
-2.17332e-05
-5.49246e-07
-1.97828e-05
-1.93068e-06
-1.86548e-05
-2.68378e-06
-1.71248e-05
-3.69402e-06
-1.5871e-05
-4.38374e-06
-1.42764e-05
-5.05353e-06
-1.29231e-05
-5.55103e-06
-1.15079e-05
-5.86427e-06
-1.00935e-05
-5.96039e-06
-8.72352e-06
-5.90083e-06
-7.40035e-06
-5.76822e-06
-6.18458e-06
-5.15518e-06
-5.31217e-06
1.04189e-05
-2.90519e-05
7.95854e-06
-2.9914e-05
6.17829e-06
-2.7919e-05
4.11264e-06
-2.68563e-05
2.64188e-06
-2.50705e-05
9.33465e-07
-2.36809e-05
-2.87995e-07
-2.19343e-05
-1.55489e-06
-2.05146e-05
-2.57987e-06
-1.89777e-05
-3.50616e-06
-1.75952e-05
-4.23543e-06
-1.599e-05
-4.8766e-06
-1.45351e-05
-5.32118e-06
-1.31406e-05
-5.55368e-06
-1.17812e-05
-5.65757e-06
-1.03965e-05
-5.5702e-06
-9.13351e-06
-5.32554e-06
-7.95588e-06
-6.88366e-06
-5.01475e-06
1.22988e-05
-3.13852e-05
9.6322e-06
-3.19166e-05
7.42408e-06
-3.01323e-05
5.26166e-06
-2.8819e-05
3.50681e-06
-2.71345e-05
1.829e-06
-2.55322e-05
4.55263e-07
-2.38069e-05
-8.14903e-07
-2.22113e-05
-1.87407e-06
-2.0654e-05
-2.82093e-06
-1.91569e-05
-3.53379e-06
-1.75815e-05
-4.11722e-06
-1.60691e-05
-4.56367e-06
-1.4647e-05
-4.85583e-06
-1.32929e-05
-4.87099e-06
-1.20467e-05
-4.75903e-06
-1.07855e-05
-4.52385e-06
-9.61771e-06
-8.58675e-06
-4.16227e-06
1.45224e-05
-3.30175e-05
1.18648e-05
-3.3445e-05
9.3666e-06
-3.15997e-05
6.94366e-06
-3.00669e-05
4.79888e-06
-2.83634e-05
2.87534e-06
-2.66944e-05
1.28656e-06
-2.5028e-05
-4.90444e-08
-2.34232e-05
-1.14449e-06
-2.18674e-05
-2.04647e-06
-2.03564e-05
-2.70098e-06
-1.88415e-05
-3.15113e-06
-1.73645e-05
-3.45036e-06
-1.59543e-05
-3.57331e-06
-1.4653e-05
-3.58481e-06
-1.33996e-05
-3.39767e-06
-1.22304e-05
-3.10037e-06
-1.10815e-05
-1.00502e-05
-2.72163e-06
1.699e-05
-3.32268e-05
1.39309e-05
-3.35637e-05
1.10992e-05
-3.17789e-05
8.51169e-06
-3.02237e-05
6.25757e-06
-2.85813e-05
4.3106e-06
-2.69534e-05
2.67973e-06
-2.5355e-05
1.3279e-06
-2.38017e-05
2.21195e-07
-2.22888e-05
-6.46754e-07
-2.08354e-05
-1.24709e-06
-1.94308e-05
-1.61477e-06
-1.80565e-05
-1.814e-06
-1.67055e-05
-1.8726e-06
-1.54509e-05
-1.78357e-06
-1.42641e-05
-1.56666e-06
-1.31493e-05
-1.22567e-06
-1.20668e-05
-1.1062e-05
-8.06483e-07
1.69072e-05
-3.15156e-05
1.42419e-05
-3.23842e-05
1.17098e-05
-3.06259e-05
9.38431e-06
-2.9082e-05
7.31129e-06
-2.74877e-05
5.5191e-06
-2.59419e-05
4.01426e-06
-2.44507e-05
2.78358e-06
-2.30114e-05
1.81598e-06
-2.16264e-05
1.08952e-06
-2.03006e-05
5.94977e-07
-1.90364e-05
3.10614e-07
-1.78009e-05
2.20228e-07
-1.65876e-05
1.83498e-07
-1.5344e-05
3.65321e-07
-1.4347e-05
6.67728e-07
-1.33333e-05
1.09419e-06
-1.23641e-05
-1.14712e-05
1.63848e-06
1.57708e-05
-2.91963e-05
1.33501e-05
-2.99873e-05
1.10902e-05
-2.83232e-05
9.05333e-06
-2.68749e-05
7.28766e-06
-2.54207e-05
5.78679e-06
-2.40168e-05
4.55385e-06
-2.26838e-05
3.55354e-06
-2.13841e-05
2.81742e-06
-2.01906e-05
2.2934e-06
-1.90214e-05
1.95041e-06
-1.79031e-05
1.77553e-06
-1.68154e-05
1.76433e-06
-1.57585e-05
1.94235e-06
-1.47062e-05
2.05651e-06
-1.36552e-05
2.31993e-06
-1.28104e-05
2.69802e-06
-1.1981e-05
-1.1191e-05
3.14915e-06
1.40418e-05
-2.58662e-05
1.16327e-05
-2.66671e-05
9.66995e-06
-2.54234e-05
8.04693e-06
-2.4239e-05
6.73552e-06
-2.30157e-05
5.63481e-06
-2.17468e-05
4.72766e-06
-2.05415e-05
4.02172e-06
-1.93916e-05
3.44888e-06
-1.82935e-05
3.06056e-06
-1.7288e-05
2.82494e-06
-1.63169e-05
2.72215e-06
-1.537e-05
2.7423e-06
-1.44578e-05
2.89488e-06
-1.35664e-05
3.19192e-06
-1.26962e-05
3.41831e-06
-1.18203e-05
3.76077e-06
-1.11528e-05
-1.04405e-05
4.13258e-06
1.24408e-05
-2.29922e-05
1.06329e-05
-2.34096e-05
8.9529e-06
-2.22858e-05
7.52845e-06
-2.13151e-05
6.37601e-06
-2.03159e-05
5.46782e-06
-1.92459e-05
4.73614e-06
-1.81785e-05
4.1687e-06
-1.71653e-05
3.74886e-06
-1.61983e-05
3.45804e-06
-1.53197e-05
3.32159e-06
-1.45128e-05
3.30282e-06
-1.37057e-05
3.38337e-06
-1.29269e-05
3.55116e-06
-1.21653e-05
3.80925e-06
-1.14346e-05
4.15833e-06
-1.07026e-05
4.45854e-06
-1.00417e-05
-9.38605e-06
4.7576e-06
1.08667e-05
-1.96679e-05
9.33402e-06
-2.01451e-05
8.03947e-06
-1.92705e-05
6.8982e-06
-1.84329e-05
5.91088e-06
-1.75588e-05
5.11727e-06
-1.66552e-05
4.53418e-06
-1.57752e-05
4.13701e-06
-1.49344e-05
3.89852e-06
-1.41233e-05
3.76405e-06
-1.33574e-05
3.71943e-06
-1.26601e-05
3.75819e-06
-1.19658e-05
3.85513e-06
-1.12842e-05
4.00026e-06
-1.06186e-05
4.204e-06
-9.99951e-06
4.45659e-06
-9.3751e-06
4.74825e-06
-8.81328e-06
-8.24129e-06
5.0605e-06
9.92264e-06
-1.62764e-05
8.55772e-06
-1.69404e-05
7.44394e-06
-1.63389e-05
6.47093e-06
-1.56357e-05
5.62649e-06
-1.48734e-05
4.9319e-06
-1.41032e-05
4.39119e-06
-1.33641e-05
3.99125e-06
-1.26593e-05
3.73197e-06
-1.19929e-05
3.58163e-06
-1.13502e-05
3.50865e-06
-1.07536e-05
3.52758e-06
-1.0184e-05
3.62848e-06
-9.62488e-06
3.80333e-06
-9.08135e-06
4.02238e-06
-8.56003e-06
4.28012e-06
-8.03263e-06
4.58042e-06
-7.57476e-06
-7.12141e-06
4.936e-06
8.58676e-06
-1.3595e-05
7.70377e-06
-1.42276e-05
6.85902e-06
-1.36906e-05
6.05231e-06
-1.30266e-05
5.32531e-06
-1.23359e-05
4.69102e-06
-1.16479e-05
4.17995e-06
-1.10234e-05
3.80704e-06
-1.04556e-05
3.56607e-06
-9.92691e-06
3.45027e-06
-9.42488e-06
3.42435e-06
-8.94181e-06
3.4768e-06
-8.48393e-06
3.59514e-06
-8.03086e-06
3.77734e-06
-7.59813e-06
3.98007e-06
-7.14974e-06
4.24576e-06
-6.74127e-06
4.54295e-06
-6.37459e-06
-5.99901e-06
4.85683e-06
7.84178e-06
-1.09607e-05
6.99162e-06
-1.16199e-05
6.19282e-06
-1.11655e-05
5.45914e-06
-1.0573e-05
4.83301e-06
-9.98581e-06
4.32327e-06
-9.40729e-06
3.94207e-06
-8.90576e-06
3.6744e-06
-8.45161e-06
3.50693e-06
-8.03116e-06
3.42348e-06
-7.62924e-06
3.39652e-06
-7.22686e-06
3.42209e-06
-6.85366e-06
3.49876e-06
-6.49042e-06
3.62856e-06
-6.15524e-06
3.784e-06
-5.78139e-06
4.01038e-06
-5.49658e-06
4.23502e-06
-5.18354e-06
-4.91019e-06
4.50433e-06
7.21706e-06
-8.54761e-06
6.45449e-06
-9.20903e-06
5.72029e-06
-8.81635e-06
5.07122e-06
-8.31848e-06
4.53826e-06
-7.84657e-06
4.11767e-06
-7.37633e-06
3.79925e-06
-6.97513e-06
3.54948e-06
-6.59204e-06
3.36577e-06
-6.24736e-06
3.2277e-06
-5.90702e-06
3.1377e-06
-5.57566e-06
3.10132e-06
-5.28553e-06
3.12346e-06
-5.01638e-06
3.18616e-06
-4.76236e-06
3.33755e-06
-4.52222e-06
3.49472e-06
-4.29159e-06
3.67934e-06
-4.05717e-06
-3.83226e-06
3.85935e-06
6.48643e-06
-6.41267e-06
5.82808e-06
-7.03124e-06
5.1861e-06
-6.68987e-06
4.59735e-06
-6.25637e-06
4.07089e-06
-5.84785e-06
3.61736e-06
-5.44897e-06
3.25141e-06
-5.13561e-06
2.9458e-06
-4.81692e-06
2.71451e-06
-4.55705e-06
2.53533e-06
-4.28394e-06
2.40966e-06
-4.02717e-06
2.33123e-06
-3.81098e-06
2.30264e-06
-3.62367e-06
2.31182e-06
-3.44377e-06
2.3528e-06
-3.27604e-06
2.37779e-06
-3.07287e-06
2.43694e-06
-2.91887e-06
-2.73297e-06
2.48768e-06
5.85879e-06
-4.69627e-06
5.35351e-06
-5.14328e-06
4.69331e-06
-4.68173e-06
3.982e-06
-4.20893e-06
3.2844e-06
-3.81557e-06
2.64864e-06
-3.47742e-06
2.1097e-06
-3.26095e-06
1.65142e-06
-3.02609e-06
1.29582e-06
-2.87888e-06
1.0165e-06
-2.69525e-06
8.0874e-07
-2.52852e-06
6.44801e-07
-2.38018e-06
5.1152e-07
-2.25131e-06
4.15256e-07
-2.14032e-06
3.36754e-07
-2.02561e-06
2.99606e-07
-1.90196e-06
2.6792e-07
-1.7943e-06
-1.67267e-06
2.58482e-07
5.21474e-06
-2.92537e-06
4.21959e-06
-2.89714e-06
3.14552e-06
-2.38993e-06
2.15268e-06
-2.00957e-06
1.29182e-06
-1.74936e-06
5.68119e-07
-1.54643e-06
-2.31176e-09
-1.48202e-06
-4.30374e-07
-1.39045e-06
-8.25849e-07
-1.2858e-06
-1.10852e-06
-1.22554e-06
-1.31436e-06
-1.15176e-06
-1.45605e-06
-1.08926e-06
-1.55473e-06
-1.02826e-06
-1.63319e-06
-9.66311e-07
-1.68299e-06
-9.12409e-07
-1.71137e-06
-8.45195e-07
-1.70828e-06
-8.06136e-07
-7.46155e-07
-1.68401e-06
3.20853e-06
1.44892e-06
1.67386e-07
-7.47002e-07
-1.40484e-06
-1.85975e-06
-2.25156e-06
-2.55536e-06
-2.76489e-06
-2.92637e-06
-3.03098e-06
-3.09457e-06
-3.12184e-06
-3.11498e-06
-3.08484e-06
-3.02018e-06
-2.9512e-06
-2.8608e-06
1.46335e-07
1.49074e-06
3.00628e-07
1.51814e-06
4.03445e-07
1.54365e-06
5.3118e-07
1.51641e-06
7.35381e-07
1.43023e-06
1.01693e-06
1.36148e-06
1.35281e-06
1.3142e-06
1.70797e-06
1.30757e-06
2.0727e-06
1.30745e-06
2.45106e-06
1.30249e-06
2.83624e-06
1.30375e-06
3.2317e-06
1.30019e-06
3.63805e-06
1.29513e-06
4.05949e-06
1.28333e-06
4.49193e-06
1.27558e-06
4.94121e-06
1.26147e-06
5.40644e-06
1.24722e-06
5.90193e-06
1.2175e-06
6.42465e-06
1.19127e-06
6.96436e-06
1.17344e-06
7.51483e-06
1.159e-06
8.08768e-06
1.12981e-06
8.71752e-06
1.06654e-06
9.39315e-06
1.01567e-06
1.00949e-05
9.79078e-07
1.08313e-05
9.28673e-07
1.16259e-05
8.56074e-07
1.24633e-05
7.96791e-07
1.33482e-05
7.23939e-07
1.43136e-05
6.18559e-07
1.53439e-05
5.27422e-07
1.63858e-05
4.80659e-07
1.75161e-05
3.59087e-07
1.86906e-05
2.81049e-07
1.98545e-05
2.44622e-07
2.10408e-05
1.71811e-07
2.2255e-05
1.02511e-07
2.35159e-05
1.03405e-08
2.4798e-05
-7.91321e-08
2.60609e-05
-1.3725e-07
2.72671e-05
-1.41391e-07
2.84072e-05
-1.29749e-07
2.94247e-05
-9.47836e-08
3.02466e-05
-3.45725e-09
3.09019e-05
9.15282e-08
3.13795e-05
2.00392e-07
3.1583e-05
3.48114e-07
3.14138e-05
5.66985e-07
3.09622e-05
7.45518e-07
3.05065e-05
6.96788e-07
3.01876e-05
4.99634e-07
2.99108e-05
3.54387e-07
2.9635e-05
2.31778e-07
2.93977e-05
8.3588e-08
2.9278e-05
-1.47177e-07
2.9053e-05
-1.59098e-07
2.86849e-05
-1.43228e-07
2.83182e-05
-2.75773e-07
2.78679e-05
-3.34556e-07
2.74991e-05
-6.73781e-07
2.71337e-05
-9.62369e-07
2.6578e-05
-8.43783e-07
2.62608e-05
-1.07522e-06
2.6169e-05
-1.41708e-06
2.60028e-05
-1.49877e-06
2.61266e-05
-1.93915e-06
2.67684e-05
-2.61807e-06
2.74748e-05
-2.85168e-06
2.78276e-05
-2.66017e-06
2.77588e-05
-2.41806e-06
2.7371e-05
-2.39907e-06
2.6452e-05
-2.24346e-06
2.50754e-05
-1.93058e-06
2.32933e-05
-1.32652e-06
2.10962e-05
-7.21808e-07
1.86531e-05
-5.76133e-07
1.60897e-05
-7.05347e-07
1.3506e-05
-9.12615e-07
1.10179e-05
-1.19391e-06
8.67581e-06
-1.4953e-06
6.51098e-06
-1.80432e-06
4.48618e-06
-2.05804e-06
2.64245e-06
-2.33953e-06
9.93231e-07
-2.61988e-06
-5.05989e-07
-2.84522e-06
-1.88512e-06
-3.0292e-06
-3.13116e-06
-3.21257e-06
-4.27318e-06
-3.35267e-06
-5.30102e-06
-3.48844e-06
-6.21855e-06
-3.60465e-06
-7.00865e-06
-3.72614e-06
-7.64316e-06
-3.86672e-06
-8.1596e-06
-3.95521e-06
-8.49483e-06
-4.09223e-06
-8.68459e-06
-4.20049e-06
-8.89674e-06
-4.13713e-06
-8.99148e-06
-4.17468e-06
-8.87925e-06
-4.30739e-06
-8.77013e-06
-4.23707e-06
-8.65746e-06
-4.1561e-06
-8.56406e-06
-4.06179e-06
-8.27163e-06
-4.16188e-06
-8.09691e-06
-3.97242e-06
-7.73489e-06
-4.0623e-06
-7.43391e-06
-3.91875e-06
-7.08382e-06
-3.87896e-06
-6.77057e-06
-3.75696e-06
-6.39033e-06
-3.73513e-06
-6.04423e-06
-3.60869e-06
-5.71846e-06
-3.49234e-06
-5.43579e-06
-3.34927e-06
-5.19867e-06
-3.20037e-06
-4.98848e-06
-3.06474e-06
-4.83482e-06
-2.89403e-06
-4.76123e-06
-2.69406e-06
-4.72528e-06
-2.53341e-06
-4.73442e-06
-2.35718e-06
-4.6822e-06
-2.27756e-06
-4.49723e-06
-2.24072e-06
-4.27841e-06
-2.09584e-06
-4.14594e-06
-1.82713e-06
-3.93085e-06
-1.7189e-06
-3.62046e-06
-1.59386e-06
-3.26509e-06
-1.40818e-06
-2.90909e-06
-1.17516e-06
-2.432e-06
-1.0398e-06
-1.63068e-06
-1.12169e-06
-5.58607e-07
-1.1491e-06
4.36734e-07
-8.51283e-07
1.38956e-06
-5.8715e-07
2.21085e-06
-2.46451e-07
2.93552e-06
5.10893e-08
3.49866e-06
3.99137e-07
4.09105e-06
5.42183e-07
4.50406e-06
8.72571e-07
5.22101e-06
6.81587e-07
5.58806e-06
1.11844e-06
6.04144e-06
1.11652e-06
6.46418e-06
1.17052e-06
7.1072e-06
9.90182e-07
7.93036e-06
8.11865e-07
8.63135e-06
8.97448e-07
9.75506e-06
4.25761e-07
1.03896e-05
8.3196e-07
1.13923e-05
3.54541e-07
1.19229e-05
6.90749e-07
1.26411e-05
3.3262e-07
1.2955e-05
5.37885e-07
1.32782e-05
3.12424e-07
1.32557e-05
3.96676e-07
1.32595e-05
9.94791e-08
1.31901e-05
-1.32803e-07
1.31686e-05
-4.84844e-07
1.30929e-05
-7.44056e-07
1.29145e-05
-9.51615e-07
1.25557e-05
-1.03838e-06
1.24131e-05
-1.4989e-06
1.19755e-05
-1.43559e-06
1.16131e-05
-1.71225e-06
1.11906e-05
-1.84905e-06
1.04299e-05
-1.70581e-06
9.57371e-06
-1.78752e-06
8.39259e-06
-1.61701e-06
7.27821e-06
-1.83458e-06
6.22513e-06
-2.07645e-06
5.22459e-06
-2.32117e-06
4.30892e-06
-2.63135e-06
3.32383e-06
-2.77471e-06
2.60609e-06
-3.3041e-06
2.19627e-06
-3.94119e-06
2.02265e-06
-4.53608e-06
2.08689e-06
-5.10904e-06
2.45483e-06
-5.71879e-06
2.74969e-06
-5.80076e-06
2.27705e-06
-5.24163e-06
1.0692e-06
-4.64225e-06
-5.5661e-07
-4.64978e-06
-1.84061e-06
-5.47625e-06
-3.58655e-06
-5.322e-06
-5.66538e-06
-5.30953e-06
2.5264e-08
3.09113e-06
-5.15159e-09
3.20584e-06
4.20458e-08
3.06143e-06
1.65686e-07
2.95225e-06
3.72998e-07
2.78942e-06
6.90634e-07
2.6171e-06
1.02398e-06
2.56461e-06
1.35709e-06
2.56968e-06
1.6912e-06
2.58492e-06
2.03301e-06
2.58312e-06
2.39446e-06
2.57583e-06
2.7726e-06
2.56827e-06
3.15343e-06
2.57217e-06
3.55098e-06
2.55475e-06
3.9916e-06
2.51592e-06
4.46075e-06
2.48544e-06
4.9463e-06
2.46513e-06
5.43872e-06
2.43662e-06
5.95271e-06
2.39338e-06
6.48504e-06
2.35551e-06
7.04317e-06
2.31175e-06
7.63211e-06
2.24843e-06
8.25575e-06
2.14859e-06
8.89481e-06
2.07811e-06
9.56494e-06
1.99628e-06
1.02891e-05
1.87371e-06
1.10707e-05
1.73297e-06
1.19197e-05
1.58809e-06
1.2833e-05
1.41933e-06
1.38262e-05
1.21527e-06
1.48893e-05
1.02824e-06
1.59951e-05
8.84377e-07
1.71818e-05
6.55632e-07
1.83937e-05
5.34939e-07
1.96178e-05
4.24086e-07
2.08699e-05
2.57094e-07
2.21797e-05
9.76429e-08
2.35921e-05
-1.21449e-07
2.50333e-05
-3.07891e-07
2.64695e-05
-4.66647e-07
2.7887e-05
-5.40085e-07
2.93107e-05
-5.45267e-07
3.07157e-05
-5.07794e-07
3.1963e-05
-4.22598e-07
3.29904e-05
-2.79635e-07
3.40663e-05
-2.10472e-07
3.50788e-05
-2.535e-08
3.5704e-05
3.64259e-07
3.59955e-05
7.22103e-07
3.6102e-05
8.57558e-07
3.57389e-05
9.69761e-07
3.48648e-05
1.14899e-06
3.39373e-05
1.15084e-06
3.32168e-05
8.14009e-07
3.27455e-05
2.11267e-07
3.21763e-05
1.78976e-07
3.16367e-05
5.66904e-10
3.12798e-05
-5.67379e-07
3.04793e-05
-4.58778e-07
2.98463e-05
-1.1243e-06
2.96466e-05
-1.95708e-06
2.93305e-05
-1.82163e-06
2.94438e-05
-2.57201e-06
2.96207e-05
-3.18778e-06
2.91353e-05
-2.89099e-06
2.90108e-05
-3.81554e-06
2.97303e-05
-5.32231e-06
3.02551e-05
-5.47218e-06
2.99261e-05
-4.69858e-06
2.85131e-05
-3.6018e-06
2.61141e-05
-2.67973e-06
2.30313e-05
-1.89762e-06
1.97763e-05
-1.53069e-06
1.67794e-05
-1.33866e-06
1.41579e-05
-1.30528e-06
1.17018e-05
-1.54067e-06
9.31464e-06
-1.92707e-06
7.08236e-06
-2.43342e-06
5.00563e-06
-2.98903e-06
3.09982e-06
-3.56322e-06
1.32258e-06
-4.08538e-06
-2.53939e-07
-4.60622e-06
-1.63659e-06
-5.1372e-06
-2.92599e-06
-5.56673e-06
-4.07616e-06
-5.98202e-06
-5.14596e-06
-6.29142e-06
-6.1302e-06
-6.58649e-06
-7.00058e-06
-6.85557e-06
-7.77839e-06
-7.08782e-06
-8.41793e-06
-7.32514e-06
-8.89663e-06
-7.57951e-06
-9.28866e-06
-7.77368e-06
-9.54647e-06
-7.93575e-06
-9.62022e-06
-8.18809e-06
-9.62786e-06
-8.36436e-06
-9.71641e-06
-8.20111e-06
-9.5405e-06
-8.34685e-06
-9.23233e-06
-8.55042e-06
-8.93909e-06
-8.43952e-06
-8.71856e-06
-8.23312e-06
-8.54399e-06
-8.02221e-06
-8.07443e-06
-8.29863e-06
-7.82216e-06
-7.88553e-06
-7.30715e-06
-8.10134e-06
-6.89155e-06
-7.84812e-06
-6.38585e-06
-7.80947e-06
-5.93173e-06
-7.60369e-06
-5.44526e-06
-7.54159e-06
-4.99818e-06
-7.34062e-06
-4.57624e-06
-7.13739e-06
-4.19795e-06
-6.89616e-06
-3.84909e-06
-6.65206e-06
-3.54405e-06
-6.40336e-06
-3.24687e-06
-6.15689e-06
-3.12613e-06
-5.71433e-06
-3.11614e-06
-5.32393e-06
-2.99877e-06
-5.10997e-06
-2.83271e-06
-4.92677e-06
-2.66019e-06
-4.70762e-06
-2.24322e-06
-4.61303e-06
-1.92948e-06
-4.04777e-06
-1.81261e-06
-3.54014e-06
-1.56031e-06
-3.32348e-06
-9.48761e-07
-3.25887e-06
-4.91758e-07
-2.62682e-06
-9.65302e-08
-2.15142e-06
4.68483e-07
-2.13174e-06
1.35056e-06
-2.21444e-06
2.30205e-06
-1.74163e-06
3.08125e-06
-1.0722e-06
3.55001e-06
-2.08384e-07
3.64402e-06
6.65407e-07
3.57379e-06
1.39912e-06
3.64591e-06
1.59312e-06
3.61261e-06
2.18975e-06
3.77313e-06
1.91273e-06
3.91925e-06
2.45288e-06
4.44883e-06
2.14911e-06
4.99269e-06
2.18234e-06
5.48628e-06
2.1223e-06
6.48433e-06
1.42911e-06
7.31084e-06
1.61866e-06
8.4932e-06
7.57413e-07
9.48936e-06
1.24778e-06
1.05896e-05
5.58126e-07
1.13823e-05
1.05589e-06
1.21454e-05
5.45604e-07
1.27149e-05
7.28962e-07
1.30581e-05
5.10381e-07
1.33838e-05
3.1523e-07
1.36326e-05
-1.80512e-07
1.37321e-05
-5.91202e-07
1.39907e-05
-1.42281e-06
1.42796e-05
-2.02189e-06
1.44367e-05
-2.47603e-06
1.42608e-05
-2.51959e-06
1.45291e-05
-3.60632e-06
1.41667e-05
-3.12611e-06
1.43284e-05
-4.01756e-06
1.46773e-05
-4.34794e-06
1.46517e-05
-4.00927e-06
1.41329e-05
-3.8722e-06
1.292e-05
-3.33554e-06
1.14232e-05
-3.51864e-06
9.88668e-06
-3.95166e-06
8.47454e-06
-4.48801e-06
7.10051e-06
-5.14979e-06
5.84529e-06
-5.71542e-06
5.08658e-06
-6.87058e-06
4.78412e-06
-8.26833e-06
4.8954e-06
-9.83376e-06
5.33284e-06
-1.13631e-05
5.56394e-06
-1.22723e-05
5.37403e-06
-1.18115e-05
5.17601e-06
-1.13601e-05
3.85725e-06
-9.56051e-06
1.48908e-06
-9.1173e-06
2.38e-07
-1.14271e-05
-1.29961e-06
-1.14837e-05
-1.25801e-05
-2.55139e-06
1.28503e-07
4.54083e-06
2.694e-09
5.01908e-06
-2.69369e-08
4.68888e-06
5.0795e-08
4.41079e-06
2.68917e-07
4.13874e-06
6.03584e-07
3.86329e-06
9.60575e-07
3.77392e-06
1.29429e-06
3.81546e-06
1.61509e-06
3.87859e-06
1.92943e-06
3.90103e-06
2.20883e-06
3.94961e-06
2.47302e-06
3.97575e-06
2.86875e-06
3.87141e-06
3.32698e-06
3.82657e-06
3.68307e-06
3.90379e-06
3.99428e-06
3.91503e-06
4.33395e-06
3.86014e-06
4.7298e-06
3.76783e-06
5.16375e-06
3.67856e-06
5.61069e-06
3.62105e-06
6.06644e-06
3.56543e-06
6.51592e-06
3.50171e-06
6.96412e-06
3.39273e-06
7.4761e-06
3.24661e-06
8.04873e-06
3.09072e-06
8.69083e-06
2.88312e-06
9.41507e-06
2.64217e-06
1.02167e-05
2.39826e-06
1.11255e-05
2.10294e-06
1.21185e-05
1.78849e-06
1.31665e-05
1.50228e-06
1.42417e-05
1.29143e-06
1.53935e-05
9.7225e-07
1.65492e-05
8.00991e-07
1.7763e-05
5.69597e-07
1.89898e-05
3.60974e-07
2.03298e-05
4.99283e-08
2.17181e-05
-2.84299e-07
2.31321e-05
-5.70866e-07
2.45746e-05
-7.99455e-07
2.61167e-05
-9.97573e-07
2.76153e-05
-1.03325e-06
2.89979e-05
-1.00195e-06
3.03081e-05
-9.6405e-07
3.16433e-05
-9.44264e-07
3.30457e-05
-9.30353e-07
3.44249e-05
-7.14619e-07
3.54206e-05
-1.75068e-07
3.6173e-05
2.35903e-07
3.69589e-05
4.38159e-07
3.7364e-05
8.54535e-07
3.72738e-05
1.1266e-06
3.67771e-05
1.37849e-06
3.61182e-05
1.30977e-06
3.55243e-05
6.14871e-07
3.45649e-05
6.92087e-07
3.37877e-05
1.05513e-07
3.36986e-05
-9.66181e-07
3.33631e-05
-6.22352e-07
3.28959e-05
-1.4792e-06
3.2311e-05
-2.36331e-06
3.12733e-05
-2.1613e-06
3.05949e-05
-3.4999e-06
3.02669e-05
-4.36145e-06
2.99574e-05
-4.28539e-06
2.98184e-05
-5.55883e-06
2.92826e-05
-6.54155e-06
2.78668e-05
-5.88394e-06
2.54842e-05
-4.52007e-06
2.26876e-05
-3.29991e-06
1.99542e-05
-2.5931e-06
1.73642e-05
-2.09616e-06
1.48719e-05
-2.00715e-06
1.25613e-05
-2.16994e-06
1.05132e-05
-2.54123e-06
8.65842e-06
-3.09263e-06
6.94844e-06
-3.71822e-06
5.35597e-06
-4.40996e-06
3.83884e-06
-5.10257e-06
2.35924e-06
-5.77673e-06
9.7512e-07
-6.44215e-06
-2.60924e-07
-7.14958e-06
-1.41805e-06
-7.793e-06
-2.4985e-06
-8.33855e-06
-3.51163e-06
-8.85957e-06
-4.4643e-06
-9.26569e-06
-5.31768e-06
-9.67797e-06
-6.07009e-06
-1.00594e-05
-6.73115e-06
-1.03924e-05
-7.36666e-06
-1.06469e-05
-7.88733e-06
-1.09825e-05
-8.23643e-06
-1.12946e-05
-8.43692e-06
-1.15311e-05
-8.49391e-06
-1.18595e-05
-8.52219e-06
-1.20392e-05
-8.57407e-06
-1.18059e-05
-8.40188e-06
-1.20349e-05
-8.03758e-06
-1.23492e-05
-7.62016e-06
-1.22401e-05
-7.43248e-06
-1.18273e-05
-7.40767e-06
-1.13446e-05
-6.91321e-06
-1.19817e-05
-6.69778e-06
-1.12351e-05
-6.2174e-06
-1.15801e-05
-5.73745e-06
-1.12839e-05
-5.23434e-06
-1.11612e-05
-4.76982e-06
-1.08563e-05
-4.20925e-06
-1.07914e-05
-3.74007e-06
-1.04623e-05
-3.28324e-06
-1.01825e-05
-2.93796e-06
-9.80679e-06
-2.65684e-06
-9.43508e-06
-2.40259e-06
-9.13507e-06
-2.10264e-06
-8.87103e-06
-1.86838e-06
-8.38456e-06
-1.85248e-06
-7.85599e-06
-1.97047e-06
-7.40614e-06
-1.88014e-06
-7.22459e-06
-1.72643e-06
-6.96525e-06
-1.48455e-06
-6.8113e-06
-9.95879e-07
-6.37511e-06
-6.33464e-07
-5.6395e-06
-5.99183e-07
-4.87064e-06
-3.79641e-07
-4.71354e-06
2.71622e-07
-4.31647e-06
7.96704e-07
-3.49485e-06
1.06076e-06
-2.9196e-06
1.4172e-06
-2.81132e-06
1.96727e-06
-2.29041e-06
2.42479e-06
-1.30414e-06
2.92533e-06
-2.6064e-07
3.21369e-06
1.05655e-06
3.06942e-06
2.43035e-06
3.26637e-06
2.48004e-06
3.79161e-06
2.86508e-06
3.87023e-06
3.14042e-06
3.52593e-06
4.20382e-06
3.99089e-06
3.16055e-06
5.11801e-06
2.54252e-06
5.88543e-06
2.86378e-06
7.03502e-06
1.76886e-06
8.21325e-06
1.8638e-06
9.49593e-06
8.46912e-07
1.06943e-05
1.31987e-06
1.17627e-05
6.6959e-07
1.27202e-05
1.11922e-06
1.35595e-05
5.70342e-07
1.43365e-05
5.8362e-07
1.48559e-05
3.89235e-07
1.5129e-05
1.09416e-07
1.53244e-05
-5.97109e-07
1.54201e-05
-1.18993e-06
1.56591e-05
-2.49094e-06
1.59754e-05
-3.31421e-06
1.62569e-05
-4.12551e-06
1.59241e-05
-4.0219e-06
1.61114e-05
-5.84527e-06
1.52844e-05
-4.72273e-06
1.48333e-05
-6.02992e-06
1.521e-05
-6.96999e-06
1.57297e-05
-6.74298e-06
1.61121e-05
-6.43272e-06
1.57029e-05
-5.38613e-06
1.48381e-05
-5.42113e-06
1.34016e-05
-5.79725e-06
1.16751e-05
-6.30566e-06
1.02655e-05
-7.50554e-06
8.48899e-06
-8.39783e-06
7.03968e-06
-9.95531e-06
6.52037e-06
-1.19351e-05
6.57791e-06
-1.42115e-05
6.91782e-06
-1.68308e-05
6.53494e-06
-1.7991e-05
5.46847e-06
-1.69132e-05
5.44812e-06
-1.73881e-05
4.70588e-06
-1.53187e-05
1.91254e-06
-1.3326e-05
-1.18214e-09
-1.61627e-05
-1.72975e-06
-1.63825e-05
-1.86025e-05
-2.55337e-06
3.22507e-07
5.73139e-06
3.38353e-07
6.68053e-06
3.14556e-07
6.4501e-06
3.77414e-07
5.98834e-06
5.48099e-07
5.55368e-06
7.74258e-07
5.19121e-06
9.71982e-07
5.08418e-06
1.1727e-06
5.18154e-06
1.34254e-06
5.34035e-06
1.51675e-06
5.37174e-06
1.90386e-06
5.24537e-06
2.41341e-06
5.21755e-06
2.48378e-06
5.54858e-06
2.41849e-06
5.55689e-06
2.64152e-06
5.35391e-06
2.85489e-06
5.35907e-06
3.16777e-06
5.18826e-06
3.5002e-06
5.07935e-06
3.81433e-06
5.00568e-06
4.12689e-06
4.95384e-06
4.42953e-06
4.90812e-06
4.76864e-06
4.80864e-06
5.1693e-06
4.63678e-06
5.65599e-06
4.39988e-06
6.26928e-06
4.10741e-06
6.95593e-06
3.81595e-06
7.71923e-06
3.48602e-06
8.59818e-06
3.10492e-06
9.56707e-06
2.68835e-06
1.06216e-05
2.25464e-06
1.17152e-05
1.89215e-06
1.28567e-05
1.59434e-06
1.3986e-05
1.25746e-06
1.5157e-05
1.02056e-06
1.63338e-05
7.54185e-07
1.75492e-05
4.46915e-07
1.87991e-05
4.81881e-08
2.01126e-05
-3.72706e-07
2.15038e-05
-7.68855e-07
2.29477e-05
-1.11818e-06
2.43887e-05
-1.40848e-06
2.57802e-05
-1.51256e-06
2.71214e-05
-1.53356e-06
2.8541e-05
-1.61657e-06
3.00851e-05
-1.75505e-06
3.15491e-05
-1.73413e-06
3.29113e-05
-1.53154e-06
3.39794e-05
-8.96505e-07
3.48508e-05
-3.78382e-07
3.57485e-05
-7.24556e-08
3.66181e-05
2.67264e-07
3.72342e-05
6.01853e-07
3.73447e-05
1.28041e-06
3.70158e-05
1.37499e-06
3.66691e-05
7.30845e-07
3.60238e-05
8.98333e-07
3.51501e-05
2.71514e-08
3.47416e-05
-1.03534e-06
3.44767e-05
-8.38771e-07
3.39581e-05
-2.00022e-06
3.34316e-05
-2.66222e-06
3.26977e-05
-2.61199e-06
3.1571e-05
-4.03806e-06
3.05901e-05
-4.87606e-06
2.99391e-05
-5.06766e-06
2.89058e-05
-5.98958e-06
2.69273e-05
-6.16736e-06
2.43697e-05
-5.20485e-06
2.16533e-05
-3.98389e-06
1.90658e-05
-3.12888e-06
1.66246e-05
-2.74897e-06
1.44863e-05
-2.74222e-06
1.26094e-05
-3.05384e-06
1.09815e-05
-3.56481e-06
9.481e-06
-4.16382e-06
8.01924e-06
-4.85613e-06
6.60424e-06
-5.6212e-06
5.21134e-06
-6.42193e-06
3.82456e-06
-7.20642e-06
2.43064e-06
-7.94532e-06
1.12077e-06
-8.73199e-06
-1.7426e-07
-9.48113e-06
-1.34747e-06
-1.02717e-05
-2.38134e-06
-1.09894e-05
-3.34712e-06
-1.16326e-05
-4.25245e-06
-1.21561e-05
-5.05713e-06
-1.2705e-05
-5.70057e-06
-1.32759e-05
-6.30605e-06
-1.36805e-05
-6.86559e-06
-1.39972e-05
-7.34998e-06
-1.43849e-05
-7.70083e-06
-1.47784e-05
-7.8943e-06
-1.51115e-05
-8.02257e-06
-1.54345e-05
-8.01851e-06
-1.56974e-05
-7.92748e-06
-1.54688e-05
-7.77069e-06
-1.56765e-05
-7.42294e-06
-1.60882e-05
-6.84144e-06