/*--------------------------------*- C++ -*----------------------------------*\
| =========                 |                                                 |
| \\      /  F ield         | OpenFOAM: The Open Source CFD Toolbox           |
|  \\    /   O peration     | Version:  dev                                   |
|   \\  /    A nd           | Web:      http://www.openfoam.org               |
|    \\/     M anipulation  |                                                 |
\*---------------------------------------------------------------------------*/
FoamFile
{
    version     2.0;
    format      ascii;
    class       volScalarField;
    object      pMean;
    location    "9.126";
}
// * * * * * * * * * * * * * * * * * * * * * * * * * * * * * * * * * * * * * //

dimensions      [1 -1 -2 0 0 0 0];

internalField   nonuniform List<scalar> 
12225
(
98313.4
98293.6
98279.8
98272.8
98258.6
98249.2
98230.7
98221.1
98199.6
98190.9
98166.2
98159.4
98128.4
98122.1
98081.4
98041.7
97952.6
97586.8
98308.8
98292.5
98279.3
98272.3
98258
98248.6
98230
98220.6
98198.9
98190.5
98165.5
98158.9
98128
98120.2
98079.6
98045.8
97953.5
97792.5
98305.1
98290.9
98278.3
98270.9
98256.5
98247.1
98228.5
98219.2
98197.5
98189
98164.7
98156.8
98128.6
98116.8
98081.9
98046.7
97979.4
97890.6
98300
98288
98276.1
98268.5
98254.1
98244.4
98226.4
98216.6
98195.8
98186.3
98163.3
98153.7
98127.5
98114.6
98082.9
98055.1
98006.6
97937.8
98293.4
98283.6
98272.6
98264.4
98250.5
98240.3
98223.4
98212.4
98193.3
98182
98161.8
98149.2
98127.7
98111.4
98084.8
98060.6
98020.7
97988.1
98285.1
98277.4
98266.6
98258.4
98244.9
98234.3
98218.3
98206.7
98188.9
98176.8
98158.6
98145
98126.6
98109.7
98088.3
98063
98040.9
98020.5
98274.8
98268.5
98258.1
98249.7
98237.1
98225.9
98211.2
98198.6
98182.9
98169.3
98154
98138.9
98124.4
98106.8
98092.5
98071.6
98061.2
98046.3
98264.1
98258.4
98248.8
98240.1
98228.4
98216.8
98203.3
98190.1
98176.1
98161.8
98148.7
98133
98121.5
98104.2
98095.5
98077.7
98076
98061
98253.2
98247.8
98239
98230.1
98219.2
98207.5
98194.9
98181.5
98168.9
98154.3
98142.8
98127.3
98117.6
98101.7
98095.4
98081.2
98080.9
98069
98239.6
98234.2
98226.5
98217.4
98207.5
98195.8
98184.2
98170.8
98159.5
98144.9
98135
98120.1
98111.9
98097.5
98092.6
98080.8
98080
98071.7
98222.7
98217.2
98210.7
98201.9
98192.7
98181.3
98170.5
98157.6
98147.1
98133.5
98124.1
98111
98103
98091.5
98085.9
98077.3
98074.6
98069.5
98202.1
98196.4
98191.2
98182.7
98174.4
98163.3
98153.4
98141.1
98131.6
98119
98110.4
98098.9
98091.4
98082.1
98076.4
98070
98066.4
98062.8
98177.3
98172
98167.5
98160
98152
98142
98132.6
98121.8
98112.5
98101.9
98093.5
98084.2
98076.9
98069.7
98064.3
98059.5
98055.8
98053.1
98149.1
98144.2
98140.3
98133.7
98126.5
98117.6
98108.9
98099.4
98090.9
98082
98074.2
98066.7
98060.3
98054.6
98049.9
98046.1
98043.2
98041.1
98118.9
98115.1
98111.4
98106
98099.5
98091.9
98084.1
98076
98068.4
98061
98054.3
98048.2
98042.9
98038.3
98034.6
98031.7
98029.5
98028
98091.2
98088.4
98085
98080.5
98074.9
98068.4
98061.6
98054.8
98048.2
98042
98036.5
98031.5
98027.2
98023.6
98020.8
98018.6
98017.1
98016.1
98072.5
98070.6
98067.8
98063.9
98059
98053.3
98047.4
98041.5
98035.8
98030.5
98025.8
98021.6
98018.1
98015.2
98012.9
98011.2
98010
98009.4
98072.8
98071.1
98068.6
98064.9
98060.1
98054.8
98049.2
98043.7
98038.4
98033.4
98028.9
98025
98021.6
98018.9
98016.6
98014.9
98013.7
98013
98092.5
98090.7
98087.9
98083.9
98079
98073.4
98067.6
98061.9
98056.3
98051.1
98046.3
98042
98038.3
98035.1
98032.5
98030.3
98028.6
98027.4
98123.3
98121.2
98117.8
98113.3
98107.9
98101.8
98095.5
98089.2
98083
98077.2
98071.8
98066.9
98062.5
98058.6
98055.3
98052.4
98050.1
98048.1
98158.2
98155.6
98151.5
98146.4
98140.3
98133.6
98126.7
98119.7
98112.9
98106.4
98100.2
98094.6
98089.4
98084.8
98080.7
98077.1
98074
98071.3
98192.1
98189
98184.2
98178.4
98171.7
98164.5
98156.9
98149.3
98141.9
98134.7
98127.9
98121.5
98115.6
98110.3
98105.5
98101.2
98097.3
98093.9
98222.4
98218.7
98213.2
98206.7
98199.4
98191.7
98183.7
98175.6
98167.5
98159.8
98152.4
98145.4
98138.9
98133
98127.5
98122.6
98118.1
98114.1
98247.7
98243.4
98237
98229.9
98222.2
98214.1
98205.8
98197.3
98188.8
98180.6
98172.7
98165.3
98158.3
98151.8
98145.8
98140.4
98135.4
98130.9
98268
98262.8
98255.6
98247.9
98239.9
98231.6
98223
98214.2
98205.4
98196.9
98188.6
98180.8
98173.4
98166.6
98160.2
98154.3
98149
98144.1
98283.6
98277.3
98269.2
98261.1
98252.9
98244.4
98235.7
98226.7
98217.7
98208.9
98200.4
98192.3
98184.7
98177.5
98170.9
98164.7
98159.1
98153.9
98295.4
98287.6
98278.5
98270
98261.8
98253.3
98244.4
98235.3
98226.2
98217.3
98208.6
98200.3
98192.5
98185.1
98178.3
98172
98166.1
98160.7
98304.2
98294.3
98284.3
98275.6
98267.4
98258.9
98250
98240.9
98231.7
98222.7
98213.9
98205.5
98197.6
98190.1
98183.1
98176.7
98170.7
98165.1
98310.3
98298.1
98287
98278.4
98270.3
98262
98253.2
98244.1
98234.9
98225.8
98217
98208.5
98200.4
98192.9
98185.9
98179.3
98173.3
98167.6
98316.2
98300.7
98288.6
98279.8
98271.6
98263.2
98254.5
98245.4
98236.2
98227.1
98218.2
98209.7
98201.7
98194.1
98187
98180.4
98174.4
98168.8
98313.3
98312.9
98312.1
98311
98309.5
98307.6
98305.4
98302.8
98299.8
98296.3
98292.5
98288.2
98283.6
98278.7
98273.4
98268
98262.3
98256.3
98250.2
98244
98237.5
98231
98224.3
98217.5
98210.6
98203.6
98196.6
98189.5
98182.4
98175.3
98168.2
98161.2
98154.1
98147.2
98140.3
98133.6
98126.9
98120.4
98114.1
98108
98102.1
98096.4
98091
98085.8
98081
98076.5
98072.4
98068.7
98065.4
98062.6
98060.2
98058.3
98056.9
98056
98055.7
98056.1
98057
98058.6
98060.9
98063.9
98067.5
98071.9
98077
98082.8
98089.3
98096.6
98104.5
98113.2
98122.5
98132.5
98143
98154.2
98166
98178.2
98191
98204.2
98217.9
98231.8
98246.1
98260.7
98275.5
98290.5
98305.6
98320.9
98336.1
98351.4
98366.6
98381.6
98396.5
98411.2
98425.7
98439.8
98453.6
98466.9
98479.8
98492.2
98504.1
98515.5
98526.2
98536.3
98545.9
98554.7
98563
98570.5
98577.5
98583.8
98589.5
98594.6
98599.2
98603.3
98607
98610.2
98613
98615.5
98617.7
98619.6
98621.2
98622.7
98623.9
98625
98626.1
98627.2
98628.3
98629.6
98631.2
98633.3
98635.9
98639.3
98643.7
98649.4
98656.4
98665.1
98675.8
98688.7
98704
98722
98742.8
98766.6
98793.4
98823.2
98856.1
98892
98930.8
98972.3
99016.6
99063.2
99112.1
99162.8
99215.4
99269.5
99325
99381.4
99438.4
99495.7
99552.9
99609.5
99665
99718.7
99769.7
99817.6
99861.1
99899.5
99931.6
99956.7
99973.5
99981
99978.4
99965.5
99941.4
99906.8
99861.5
99806.7
99742.8
99672.1
99595.2
99514.7
99430.2
99345.5
99258.7
99175.6
98306.3
98306
98305.2
98304
98302.5
98300.6
98298.4
98295.8
98292.8
98289.4
98285.6
98281.4
98276.9
98272.1
98267.1
98261.8
98256.2
98250.5
98244.6
98238.5
98232.2
98225.8
98219.3
98212.7
98206
98199.2
98192.3
98185.4
98178.5
98171.5
98164.6
98157.7
98150.8
98144
98137.3
98130.7
98124.2
98117.8
98111.6
98105.6
98099.8
98094.2
98088.9
98083.9
98079.1
98074.7
98070.7
98067
98063.8
98060.9
98058.6
98056.6
98055.2
98054.4
98054.1
98054.4
98055.3
98056.8
98059
98061.9
98065.5
98069.7
98074.7
98080.4
98086.8
98093.9
98101.7
98110.2
98119.3
98129.1
98139.5
98150.5
98162
98174.1
98186.6
98199.6
98213
98226.8
98240.8
98255.2
98269.7
98284.5
98299.4
98314.3
98329.3
98344.3
98359.2
98374
98388.6
98403
98417.1
98431
98444.4
98457.5
98470.1
98482.2
98493.9
98504.9
98515.4
98525.3
98534.6
98543.2
98551.3
98558.6
98565.4
98571.6
98577.1
98582.1
98586.6
98590.6
98594.2
98597.3
98600
98602.4
98604.6
98606.4
98608
98609.4
98610.6
98611.6
98612.6
98613.6
98614.6
98615.8
98617.2
98619.1
98621.5
98624.6
98628.7
98634
98640.7
98648.9
98659.1
98671.5
98686.2
98703.5
98723.6
98746.6
98772.5
98801.4
98833.4
98868.3
98906.1
98946.5
98989.7
99035.1
99082.8
99132.3
99183.8
99236.7
99291
99346.3
99402.2
99458.5
99514.6
99570.3
99624.8
99677.7
99728
99775.3
99818.4
99856.5
99888.5
99913.7
99930.9
99939
99937.2
99925.3
99902.6
99869.5
99825.7
99772.7
99710.6
99641.7
99566.5
99487.7
99404.8
99321.7
99235.9
99150.9
98293.6
98293.3
98292.5
98291.3
98289.7
98287.7
98285.4
98282.7
98279.7
98276.3
98272.6
98268.6
98264.3
98259.7
98254.8
98249.8
98244.5
98239.1
98233.6
98227.8
98222
98216
98209.8
98203.6
98197.2
98190.8
98184.2
98177.6
98171
98164.3
98157.7
98151
98144.4
98137.9
98131.4
98125.1
98118.8
98112.7
98106.7
98100.9
98095.3
98089.9
98084.8
98079.9
98075.3
98071
98067.1
98063.5
98060.3
98057.5
98055.1
98053.2
98051.7
98050.8
98050.4
98050.6
98051.4
98052.9
98054.9
98057.6
98061
98065.1
98069.8
98075.3
98081.4
98088.2
98095.7
98103.9
98112.7
98122.2
98132.2
98142.9
98154
98165.7
98177.9
98190.4
98203.4
98216.7
98230.3
98244.2
98258.3
98272.6
98287
98301.5
98315.9
98330.4
98344.8
98359
98373.1
98386.9
98400.5
98413.8
98426.7
98439.2
98451.3
98462.9
98473.9
98484.5
98494.5
98503.9
98512.7
98520.9
98528.5
98535.5
98542
98547.8
98553.1
98557.8
98562.1
98565.8
98569.2
98572.2
98574.8
98577.1
98579.1
98580.8
98582.2
98583.5
98584.5
98585.4
98586.2
98587
98587.8
98588.6
98589.7
98591.2
98593.1
98595.7
98599.1
98603.7
98609.5
98616.9
98626.1
98637.3
98650.8
98666.7
98685.3
98706.7
98731
98758.1
98788.2
98821
98856.7
98894.9
98935.9
98979
99024.4
99071.6
99120.7
99171.3
99223.2
99276.1
99329.8
99383.9
99438
99491.6
99544.1
99595.4
99644.1
99690
99732
99769.3
99800.7
99825.9
99843.4
99852.3
99851.8
99841.7
99821.3
99790.9
99750.2
99700.6
99642
99576.9
99505.3
99430
99350.5
99270.6
99187.6
99103.7
98276.1
98275.8
98275
98273.8
98272.2
98270.3
98267.9
98265.2
98262.2
98258.9
98255.3
98251.4
98247.3
98242.9
98238.4
98233.6
98228.8
98223.7
98218.6
98213.3
98207.9
98202.3
98196.7
98190.9
98185
98179
98173
98166.8
98160.7
98154.5
98148.3
98142.1
98135.9
98129.8
98123.7
98117.7
98111.8
98106
98100.3
98094.8
98089.5
98084.3
98079.4
98074.6
98070.2
98066.1
98062.3
98058.8
98055.7
98052.9
98050.6
98048.6
98047.2
98046.2
98045.7
98045.8
98046.4
98047.7
98049.6
98052
98055.1
98058.9
98063.3
98068.4
98074.2
98080.6
98087.7
98095.4
98103.8
98112.8
98122.4
98132.5
98143.1
98154.3
98165.9
98177.9
98190.2
98202.9
98215.9
98229.1
98242.6
98256.2
98269.9
98283.6
98297.4
98311.1
98324.8
98338.3
98351.6
98364.7
98377.5
98390.1
98402.2
98414
98425.3
98436.1
98446.4
98456.2
98465.5
98474.2
98482.4
98490
98497.1
98503.5
98509.5
98514.9
98519.7
98524.1
98528
98531.5
98534.6
98537.3
98539.7
98541.8
98543.6
98545.1
98546.4
98547.4
98548.3
98549
98549.5
98549.9
98550.3
98550.7
98551.3
98552.2
98553.4
98555.2
98557.7
98561.2
98565.9
98572
98579.8
98589.4
98601.2
98615.2
98631.8
98651
98672.9
98697.5
98724.9
98755
98787.8
98823.1
98860.9
98901
98943.1
98987.2
99033
99080.4
99129.2
99179
99229.7
99280.9
99332
99382.8
99432.8
99481.6
99528.2
99572.2
99612.5
99648.6
99679.2
99704
99721.7
99731.3
99732.3
99724.2
99706.6
99679.4
99642.6
99597.3
99543.4
99483.1
99416.3
99345.9
99271.1
99195.6
99116.9
99036.8
98254.9
98254.7
98253.9
98252.8
98251.3
98249.3
98247.1
98244.4
98241.5
98238.3
98234.8
98231.1
98227.2
98223.1
98218.8
98214.4
98209.9
98205.2
98200.5
98195.7
98190.7
98185.7
98180.5
98175.3
98169.9
98164.5
98159
98153.5
98147.9
98142.3
98136.6
98131
98125.3
98119.7
98114.2
98108.6
98103.2
98097.9
98092.6
98087.5
98082.5
98077.7
98073
98068.6
98064.3
98060.4
98056.7
98053.4
98050.4
98047.7
98045.4
98043.4
98041.9
98040.9
98040.3
98040.2
98040.7
98041.7
98043.3
98045.5
98048.3
98051.7
98055.7
98060.3
98065.6
98071.5
98078.1
98085.3
98093.1
98101.5
98110.4
98119.9
98129.9
98140.3
98151.2
98162.5
98174.1
98186
98198.2
98210.6
98223.2
98235.9
98248.7
98261.5
98274.4
98287.2
98299.9
98312.5
98324.9
98337.1
98349
98360.6
98371.8
98382.6
98393
98402.9
98412.3
98421.3
98429.7
98437.6
98445
98451.8
98458.2
98464
98469.3
98474.1
98478.5
98482.4
98485.9
98489
98491.7
98494.1
98496.2
98498.1
98499.6
98500.9
98501.9
98502.6
98503.2
98503.5
98503.7
98503.7
98503.6
98503.5
98503.5
98503.6
98503.9
98504.7
98506.2
98508.4
98511.7
98516.2
98522.2
98529.9
98539.6
98551.4
98565.4
98582
98601
98622.6
98646.9
98673.6
98702.9
98734.6
98768.8
98805.1
98843.4
98883.6
98925.7
98969.3
99014.3
99060.4
99107.3
99155
99202.6
99250.1
99296.9
99342.7
99386.6
99428.2
99466.5
99501
99530.4
99554.6
99572.3
99582.5
99584.9
99579
99564.3
99540.9
99508.6
99468.2
99419.7
99365.1
99304
99239.6
99170.6
99100.7
99027.5
98952.9
98231.5
98231.3
98230.6
98229.6
98228.1
98226.4
98224.2
98221.8
98219
98216
98212.7
98209.2
98205.5
98201.7
98197.7
98193.6
98189.4
98185.1
98180.8
98176.4
98171.9
98167.3
98162.6
98157.9
98153.1
98148.2
98143.3
98138.4
98133.4
98128.4
98123.4
98118.3
98113.3
98108.3
98103.3
98098.3
98093.4
98088.6
98083.8
98079.2
98074.6
98070.2
98065.9
98061.8
98057.8
98054.1
98050.7
98047.5
98044.6
98042
98039.7
98037.8
98036.3
98035.2
98034.5
98034.2
98034.5
98035.3
98036.6
98038.4
98040.8
98043.8
98047.3
98051.5
98056.2
98061.5
98067.5
98074
98081.2
98088.8
98097
98105.8
98115
98124.6
98134.6
98145
98155.7
98166.7
98178
98189.4
98201
98212.7
98224.5
98236.3
98248.2
98259.9
98271.6
98283.1
98294.4
98305.5
98316.3
98326.8
98336.9
98346.7
98356
98364.9
98373.3
98381.3
98388.8
98395.8
98402.3
98408.3
98413.8
98418.8
98423.5
98427.6
98431.4
98434.7
98437.7
98440.3
98442.7
98444.7
98446.5
98447.9
98449.1
98450.1
98450.7
98451.2
98451.4
98451.3
98451
98450.5
98449.9
98449.1
98448.3
98447.6
98447
98446.6
98446.8
98447.6
98449.3
98452.1
98456.1
98461.6
98468.8
98478.1
98489.3
98502.9
98518.8
98537
98557.7
98580.7
98606.1
98633.8
98663.9
98696.1
98730.2
98766.3
98804.1
98843.5
98884.4
98926.4
98969.2
99012.8
99056.6
99100.4
99143.7
99186.1
99226.9
99265.8
99301.8
99334.2
99362.2
99385.4
99402.7
99413.5
99417.1
99413.4
99401.7
99382.2
99354.4
99319.3
99276.5
99228
99173.3
99115.6
99053.1
98989.8
98922.9
98854.9
98207
98206.9
98206.3
98205.4
98204.1
98202.5
98200.6
98198.3
98195.8
98193
98190
98186.7
98183.3
98179.8
98176.1
98172.4
98168.5
98164.6
98160.6
98156.6
98152.5
98148.4
98144.2
98139.9
98135.7
98131.3
98127
98122.6
98118.2
98113.8
98109.4
98104.9
98100.5
98096
98091.6
98087.3
98082.9
98078.6
98074.4
98070.2
98066.1
98062
98058.1
98054.4
98050.8
98047.3
98044.1
98041.1
98038.4
98035.9
98033.7
98031.8
98030.2
98029
98028.2
98027.8
98027.9
98028.4
98029.3
98030.8
98032.8
98035.3
98038.4
98042
98046.1
98050.8
98056.1
98062
98068.3
98075.2
98082.6
98090.5
98098.8
98107.6
98116.7
98126.1
98135.8
98145.8
98156
98166.4
98176.9
98187.6
98198.2
98208.9
98219.6
98230.1
98240.6
98251
98261.1
98271
98280.6
98289.9
98298.9
98307.5
98315.7
98323.5
98330.8
98337.7
98344.2
98350.2
98355.8
98360.9
98365.6
98369.8
98373.6
98377.1
98380.2
98382.9
98385.3
98387.5
98389.3
98390.9
98392.2
98393.3
98394.1
98394.6
98394.9
98394.9
98394.6
98394.1
98393.3
98392.3
98391
98389.5
98387.8
98386.1
98384.5
98382.9
98381.6
98380.9
98380.9
98381.8
98383.6
98386.8
98391.5
98398
98406.4
98416.8
98429.3
98443.9
98460.8
98480
98501.4
98525
98550.8
98578.6
98608.4
98640.1
98673.5
98708.5
98745
98782.7
98821.2
98860.5
98900.2
98940.1
98979.7
99018.4
99055.9
99091.6
99124.9
99155
99181.1
99203
99219.8
99230.7
99235.4
99233.7
99224.8
99209.1
99185.6
99155.8
99118.8
99076.7
99028.7
98977.9
98922.4
98866.2
98806.3
98745.5
98182.8
98182.7
98182.3
98181.5
98180.4
98179
98177.3
98175.4
98173.1
98170.6
98167.9
98165
98161.9
98158.7
98155.3
98151.9
98148.4
98144.8
98141.2
98137.6
98133.8
98130.1
98126.4
98122.6
98118.8
98115
98111.1
98107.3
98103.4
98099.5
98095.6
98091.7
98087.8
98083.9
98080.1
98076.2
98072.4
98068.6
98064.8
98061.1
98057.4
98053.8
98050.2
98046.8
98043.5
98040.3
98037.3
98034.5
98031.9
98029.5
98027.4
98025.5
98023.9
98022.6
98021.7
98021.1
98021
98021.2
98021.9
98023
98024.6
98026.6
98029.2
98032.2
98035.7
98039.8
98044.4
98049.5
98055.1
98061.2
98067.8
98074.8
98082.2
98090
98098.1
98106.5
98115.3
98124.2
98133.3
98142.6
98152
98161.5
98170.9
98180.4
98189.9
98199.2
98208.5
98217.5
98226.4
98235.1
98243.5
98251.5
98259.3
98266.7
98273.7
98280.3
98286.6
98292.4
98297.8
98302.8
98307.4
98311.6
98315.4
98318.8
98321.8
98324.5
98326.9
98329
98330.8
98332.4
98333.7
98334.8
98335.6
98336.1
98336.5
98336.5
98336.3
98335.9
98335.1
98334.1
98332.7
98331
98329
98326.7
98324.1
98321.4
98318.6
98315.8
98313.1
98310.8
98308.9
98307.9
98307.5
98308.4
98310.5
98314.2
98319.6
98326.7
98335.8
98346.9
98360
98375.3
98392.7
98412.2
98433.6
98457
98482.4
98509.8
98538.8
98569.4
98601.4
98634.7
98668.9
98703.9
98739.5
98775.5
98811.1
98846.1
98879.9
98912.3
98942.5
98970.1
98993.9
99014.2
99029.9
99040.8
99046.2
99046.2
99039.7
99027.3
99007.9
98983.1
98951.6
98915.7
98874.4
98830.7
98782.3
98733.5
98680.8
98627.6
98160
98160
98159.7
98159
98158.1
98156.9
98155.4
98153.7
98151.8
98149.6
98147.2
98144.6
98141.8
98139
98136
98132.9
98129.8
98126.6
98123.3
98120
98116.7
98113.4
98110.1
98106.7
98103.3
98100
98096.6
98093.2
98089.8
98086.4
98082.9
98079.5
98076.1
98072.7
98069.3
98065.9
98062.5
98059.2
98055.8
98052.4
98049.1
98045.8
98042.6
98039.5
98036.4
98033.5
98030.7
98028
98025.5
98023.2
98021.1
98019.2
98017.6
98016.2
98015.2
98014.4
98014.1
98014
98014.4
98015.1
98016.3
98017.9
98020
98022.5
98025.4
98028.9
98032.8
98037.2
98042
98047.3
98053
98059.1
98065.6
98072.5
98079.6
98087.1
98094.8
98102.7
98110.7
98118.9
98127.1
98135.4
98143.7
98152
98160.2
98168.3
98176.3
98184.1
98191.7
98199.1
98206.2
98213
98219.6
98225.7
98231.6
98237
98242.1
98246.8
98251.1
98255.1
98258.7
98261.9
98264.8
98267.4
98269.7
98271.6
98273.3
98274.7
98275.8
98276.8
98277.5
98278
98278.3
98278.3
98278.1
98277.6
98276.9
98275.9
98274.6
98272.9
98270.9
98268.5
98265.7
98262.5
98259
98255.2
98251.2
98247.1
98243.1
98239.2
98235.6
98232.5
98230.1
98228.6
98228.2
98229.1
98231.5
98235.6
98241.3
98248.9
98258.3
98269.8
98283.3
98298.8
98316.1
98335.3
98356.4
98379.6
98404.3
98430.5
98458.2
98487.2
98517.1
98548
98579.5
98611.4
98643
98674.1
98704.2
98733.1
98760
98784.8
98806.2
98824.4
98838.8
98849.1
98854.7
98855.8
98851.2
98841.6
98825.9
98805.5
98779.2
98749.3
98714.5
98677.6
98636.2
98594.7
98549.3
98504.1
98139.3
98139.4
98139.2
98138.6
98137.9
98136.9
98135.7
98134.3
98132.7
98130.8
98128.7
98126.5
98124.1
98121.6
98119
98116.2
98113.5
98110.6
98107.8
98104.9
98101.9
98099
98096.1
98093.1
98090.1
98087.2
98084.2
98081.2
98078.2
98075.1
98072.1
98069.1
98066.1
98063
98060
98057
98054
98050.9
98047.9
98044.8
98041.8
98038.8
98035.8
98032.9
98030
98027.3
98024.6
98022.1
98019.7
98017.4
98015.3
98013.4
98011.7
98010.2
98009
98008.1
98007.5
98007.2
98007.3
98007.7
98008.5
98009.7
98011.3
98013.3
98015.7
98018.5
98021.8
98025.5
98029.6
98034.1
98039
98044.3
98049.9
98055.9
98062.1
98068.6
98075.2
98082.1
98089.1
98096.1
98103.3
98110.4
98117.6
98124.7
98131.7
98138.6
98145.3
98151.9
98158.2
98164.4
98170.2
98175.8
98181.1
98186.1
98190.7
98195
98198.9
98202.5
98205.7
98208.6
98211.2
98213.6
98215.6
98217.3
98218.7
98219.9
98220.8
98221.5
98222
98222.3
98222.4
98222.3
98221.9
98221.4
98220.6
98219.5
98218.2
98216.5
98214.5
98212.2
98209.4
98206.3
98202.7
98198.6
98194.2
98189.3
98184.2
98178.8
98173.5
98168
98162.7
98157.8
98153.4
98149.7
98146.8
98145.1
98144.7
98145.8
98148.3
98152.6
98158.6
98166.5
98176.2
98187.9
98201.4
98216.7
98233.8
98252.9
98273.6
98295.8
98319.3
98344.1
98370
98396.8
98424.2
98452.1
98479.7
98507
98533.4
98558.6
98582.2
98603.9
98622.7
98638.5
98651
98660.2
98665.4
98666.9
98663.7
98656.2
98643.7
98627.2
98605.5
98581.1
98552.4
98521.9
98487.2
98452.9
98414.7
98377.2
98121.5
98121.6
98121.5
98121.1
98120.5
98119.7
98118.8
98117.6
98116.2
98114.7
98112.9
98111.1
98109
98106.9
98104.7
98102.3
98099.9
98097.5
98095
98092.5
98089.9
98087.4
98084.8
98082.2
98079.6
98077
98074.3
98071.7
98069
98066.3
98063.6
98060.9
98058.2
98055.5
98052.7
98050
98047.2
98044.4
98041.6
98038.8
98035.9
98033.1
98030.3
98027.5
98024.8
98022.1
98019.5
98017
98014.6
98012.4
98010.2
98008.3
98006.5
98004.9
98003.6
98002.5
98001.7
98001.1
98000.9
98001
98001.5
98002.3
98003.4
98005
98006.9
98009.2
98011.9
98014.9
98018.4
98022.2
98026.3
98030.8
98035.6
98040.7
98046.1
98051.6
98057.4
98063.2
98069.2
98075.2
98081.3
98087.4
98093.4
98099.4
98105.2
98111
98116.5
98121.9
98127.1
98132
98136.6
98141
98145.1
98148.9
98152.4
98155.5
98158.3
98160.8
98163
98164.8
98166.4
98167.8
98168.9
98169.7
98170.3
98170.6
98170.7
98170.7
98170.5
98170
98169.4
98168.7
98167.7
98166.5
98165.1
98163.4
98161.3
98159
98156.2
98153.2
98149.6
98145.7
98141.2
98136.2
98130.8
98125
98118.8
98112.3
98105.6
98098.8
98091.9
98085.3
98079
98073.2
98068.2
98064
98061.1
98059.3
98058.9
98060.1
98063
98067.6
98073.9
98082.2
98092.1
98103.9
98117.4
98132.8
98149.8
98168.3
98187.9
98208.8
98230.8
98253.7
98277.3
98301.2
98324.9
98348.5
98371
98392.5
98412.6
98431.1
98447
98460.2
98470.4
98477.8
98481.9
98483.2
98480.7
98474.8
98464.7
98451.5
98433.9
98414.4
98391.1
98366.6
98338.1
98310.6
98279.2
98249.3
98106.8
98107
98106.9
98106.6
98106.2
98105.7
98104.9
98104
98102.9
98101.7
98100.3
98098.7
98097.1
98095.3
98093.5
98091.5
98089.5
98087.5
98085.4
98083.2
98081.1
98078.9
98076.7
98074.4
98072.1
98069.8
98067.5
98065.1
98062.7
98060.3
98057.8
98055.3
98052.8
98050.3
98047.8
98045.2
98042.6
98039.9
98037.3
98034.5
98031.8
98029.1
98026.3
98023.6
98021
98018.3
98015.7
98013.2
98010.8
98008.5
98006.3
98004.2
98002.4
98000.7
97999.2
97997.9
97996.9
97996.1
97995.6
97995.5
97995.6
97996.1
97996.8
97998
97999.4
98001.2
98003.4
98005.9
98008.8
98011.9
98015.4
98019.2
98023.3
98027.6
98032.1
98036.8
98041.7
98046.7
98051.7
98056.8
98061.9
98067
98072
98076.9
98081.7
98086.3
98090.7
98095
98099
98102.8
98106.3
98109.5
98112.5
98115.1
98117.5
98119.5
98121.2
98122.6
98123.8
98124.6
98125.2
98125.6
98125.7
98125.7
98125.4
98124.8
98124.2
98123.3
98122.3
98121.2
98119.8
98118.3
98116.6
98114.7
98112.5
98110.1
98107.3
98104.2
98100.7
98096.9
98092.6
98087.8
98082.5
98076.6
98070.3
98063.5
98056.3
98048.7
98040.8
98032.7
98024.4
98016.3
98008.3
98000.7
97993.7
97987.4
97982.1
97977.8
97974.9
97973.4
97973.4
97975.1
97978.4
97983.6
97990.4
97999
98009.3
98021.5
98035
98050.2
98066.3
98083.8
98102.2
98121.3
98141.3
98161.5
98181.4
98201.3
98220
98237.6
98254.1
98269.1
98281.9
98292.2
98299.8
98305.1
98307.5
98307.8
98305.2
98300.3
98292
98281.5
98267.3
98251.9
98233.3
98214.1
98191.4
98170.2
98145.2
98122.4
98095.4
98095.6
98095.6
98095.4
98095.2
98094.8
98094.2
98093.6
98092.8
98091.8
98090.7
98089.5
98088.2
98086.9
98085.4
98083.9
98082.3
98080.6
98078.9
98077.2
98075.4
98073.6
98071.7
98069.8
98067.8
98065.8
98063.7
98061.6
98059.4
98057.2
98054.9
98052.6
98050.2
98047.8
98045.3
98042.8
98040.3
98037.7
98035.1
98032.4
98029.7
98026.9
98024.2
98021.5
98018.8
98016.1
98013.4
98010.9
98008.4
98005.9
98003.6
98001.5
97999.4
97997.6
97995.9
97994.5
97993.3
97992.3
97991.6
97991.2
97991.1
97991.2
97991.7
97992.5
97993.6
97995
97996.7
97998.7
98001
98003.7
98006.6
98009.8
98013.2
98016.8
98020.6
98024.6
98028.7
98032.8
98037.1
98041.3
98045.5
98049.7
98053.7
98057.7
98061.5
98065.1
98068.5
98071.7
98074.7
98077.4
98079.8
98081.9
98083.8
98085.4
98086.6
98087.6
98088.3
98088.7
98088.8
98088.6
98088.2
98087.7
98086.9
98085.9
98084.7
98083.3
98081.8
98080.2
98078.3
98076.3
98074.2
98071.9
98069.4
98066.7
98063.8
98060.5
98057
98053.1
98048.8
98044.1
98039
98033.4
98027.3
98020.6
98013.4
98005.7
97997.5
97988.9
97980
97970.7
97961.3
97951.8
97942.3
97933.2
97924.4
97916.2
97908.9
97902.5
97897.3
97893.5
97891.1
97890.3
97891
97893.6
97897.7
97903.6
97911
97920.2
97930.8
97942.9
97955.9
97970.2
97985.2
98001.1
98017.6
98034.2
98050.6
98066.8
98081.7
98095.5
98108.3
98119.6
98129.1
98136.3
98141
98144
98144.2
98142.8
98139.6
98134.9
98127.7
98119.2
98107.8
98095.8
98081.1
98066.7
98049.1
98033.7
98014.5
97998.4
98086.9
98087.2
98087.3
98087.2
98087.1
98086.9
98086.6
98086.2
98085.6
98085
98084.3
98083.4
98082.5
98081.6
98080.5
98079.4
98078.3
98077
98075.8
98074.4
98073
98071.5
98070
98068.4
98066.7
98064.9
98063
98061.1
98059
98056.9
98054.8
98052.5
98050.2
98047.9
98045.5
98042.9
98040.4
98037.8
98035.1
98032.3
98029.6
98026.7
98023.9
98021.1
98018.3
98015.5
98012.7
98010
98007.4
98004.8
98002.4
98000.1
97997.9
97995.9
97994.1
97992.5
97991.1
97989.9
97989
97988.4
97988
97988
97988.2
97988.6
97989.4
97990.5
97991.8
97993.5
97995.4
97997.6
98000
98002.6
98005.5
98008.6
98011.8
98015.1
98018.5
98022
98025.5
98028.9
98032.4
98035.7
98038.9
98042
98044.9
98047.6
98050.1
98052.3
98054.3
98056
98057.5
98058.6
98059.5
98060
98060.3
98060.2
98059.9
98059.3
98058.4
98057.3
98056
98054.4
98052.7
98050.8
98048.7
98046.5
98044.1
98041.6
98038.9
98036
98033
98029.9
98026.6
98023
98019.2
98015.2
98010.8
98006.1
98001
97995.5
97989.6
97983.1
97976.2
97968.7
97960.7
97952.3
97943.2
97933.7
97923.9
97913.7
97903.2
97892.6
97881.9
97871.4
97861.2
97851.4
97842.4
97834.3
97827.2
97821.4
97817
97814
97812.6
97812.9
97814.7
97818.2
97823.1
97829.7
97837.6
97846.8
97857.2
97868.7
97880.7
97893.6
97906.8
97920
97933
97945.5
97956.8
97966.9
97975.8
97983.4
97989.4
97993.3
97995.1
97995.5
97993.4
97990
97985.6
97980.4
97973.7
97966.4
97957.1
97947.8
97936.4
97926.1
97913
97902.6
97888.6
97878.8
98081
98081.2
98081.4
98081.5
98081.5
98081.5
98081.4
98081.2
98081
98080.7
98080.4
98080
98079.5
98079
98078.5
98077.8
98077.1
98076.4
98075.5
98074.6
98073.5
98072.4
98071.2
98069.8
98068.4
98066.8
98065.1
98063.3
98061.4
98059.4
98057.3
98055.1
98052.7
98050.4
98047.9
98045.3
98042.6
98039.9
98037.1
98034.2
98031.3
98028.4
98025.4
98022.4
98019.5
98016.5
98013.6
98010.7
98007.9
98005.2
98002.6
98000.1
97997.8
97995.6
97993.7
97991.9
97990.4
97989
97988
97987.1
97986.6
97986.3
97986.3
97986.6
97987.1
97987.9
97988.9
97990.3
97991.8
97993.7
97995.7
97997.9
98000.4
98002.9
98005.6
98008.4
98011.2
98014.1
98017
98019.8
98022.5
98025.2
98027.6
98029.9
98032
98033.9
98035.6
98036.9
98038
98038.8
98039.4
98039.6
98039.5
98039.1
98038.5
98037.5
98036.2
98034.6
98032.8
98030.7
98028.5
98026
98023.3
98020.5
98017.6
98014.4
98011.2
98007.8
98004.2
98000.5
97996.6
97992.6
97988.4
97984
97979.3
97974.4
97969.1
97963.6
97957.7
97951.4
97944.6
97937.4
97929.7
97921.4
97912.8
97903.6
97893.9
97883.6
97873
97862
97850.7
97839.2
97827.6
97816
97804.5
97793.5
97783.1
97773.6
97765
97757.6
97751.4
97746.8
97743.5
97741.9
97741.7
97743
97745.8
97750.1
97755.7
97762.5
97770.3
97779.3
97788.8
97798.7
97808.8
97818.8
97828.5
97837.5
97845.2
97851.8
97856.9
97860.8
97863.1
97863.6
97862.3
97860
97855.4
97850
97843.9
97837.7
97830.9
97824.3
97816.4
97809.2
97800.4
97793.5
97784.1
97778.4
97768.9
97764.6
98076.6
98076.9
98077.2
98077.3
98077.5
98077.7
98077.8
98078
98078.2
98078.4
98078.6
98078.8
98078.9
98079
98078.9
98078.8
98078.6
98078.3
98077.8
98077.3
98076.6
98075.8
98074.8
98073.7
98072.5
98071.1
98069.5
98067.8
98066
98064
98061.8
98059.6
98057.3
98054.8
98052.2
98049.5
98046.7
98043.8
98040.9
98037.8
98034.8
98031.6
98028.5
98025.3
98022.1
98019
98015.8
98012.8
98009.8
98006.9
98004.2
98001.5
97999.1
97996.8
97994.6
97992.7
97991.1
97989.6
97988.4
97987.4
97986.7
97986.3
97986.1
97986.2
97986.5
97987.1
97988
97989.1
97990.4
97991.9
97993.7
97995.6
97997.6
97999.8
98002.1
98004.4
98006.8
98009.1
98011.5
98013.7
98015.9
98017.9
98019.7
98021.3
98022.7
98023.9
98024.8
98025.3
98025.6
98025.6
98025.3
98024.7
98023.8
98022.5
98021
98019.1
98017
98014.5
98011.8
98008.8
98005.7
98002.3
97998.7
97995.1
97991.2
97987.2
97983.1
97978.8
97974.3
97969.7
97965
97960.1
97954.9
97949.6
97944
97938.3
97932.2
97925.8
97919.1
97912
97904.5
97896.5
97888.1
97879.2
97869.9
97860.1
97849.8
97839
97827.7
97816.2
97804.2
97791.9
97779.5
97767.1
97754.7
97742.7
97731.4
97720.8
97710.9
97702.2
97694.7
97688.5
97683.8
97680.5
97678.5
97678.1
97679.1
97681.5
97685
97689.6
97695.3
97702
97709.1
97716.2
97723.3
97730.2
97736.8
97742.5
97746.8
97749.9
97751.2
97751.4
97749.9
97747
97742.6
97737.4
97730.4
97722.7
97714.8
97707.3
97700
97693.6
97686.3
97680.7
97673.9
97669.8
97663.5
97661.7
97656.4
97657
98072.9
98073.1
98073.3
98073.5
98073.7
98074.3
98074.9
98075.7
98076.5
98077.4
98078.3
98079.1
98079.9
98080.6
98081.2
98081.6
98081.9
98082.1
98082
98081.8
98081.5
98080.9
98080.2
98079.3
98078.3
98077
98075.5
98073.9
98072
98070
98067.9
98065.6
98063.1
98060.6
98057.9
98055
98052.1
98049
98045.9
98042.7
98039.4
98036.1
98032.7
98029.3
98026
98022.6
98019.3
98016.1
98012.9
98009.9
98007
98004.2
98001.6
97999.1
97996.9
97994.9
97993.1
97991.5
97990.2
97989.2
97988.4
97987.8
97987.5
97987.4
97987.7
97988.1
97988.8
97989.7
97990.9
97992.2
97993.7
97995.4
97997.1
97999
98000.9
98002.9
98004.9
98006.8
98008.6
98010.4
98012
98013.5
98014.7
98015.8
98016.5
98017
98017.3
98017.2
98016.7
98016
98015
98013.6
98011.8
98009.8
98007.4
98004.8
98001.8
97998.6
97995
97991.2
97987.2
97982.9
97978.5
97974
97969.3
97964.5
97959.5
97954.3
97949
97943.5
97938
97932.1
97926.1
97919.9
97913.5
97906.8
97899.9
97892.8
97885.3
97877.4
97869.2
97860.5
97851.5
97842.1
97832.2
97821.9
97811
97799.8
97788.1
97776.1
97763.5
97750.7
97737.7
97724.7
97711.7
97699.2
97687
97675.5
97664.7
97654.9
97646.2
97638.8
97632.7
97628
97624.7
97622.8
97622.3
97623
97624.6
97627.3
97631.1
97635.7
97640.5
97645.1
97649.4
97653.3
97656.8
97659.4
97660.5
97660.3
97658
97654.4
97649.3
97642.9
97635.3
97627.1
97617.7
97607.8
97598
97589.2
97580.9
97574.3
97567.4
97562.9
97557.6
97555.6
97551.8
97553.5
97551.7
97556.6
98068
98068.1
98068.1
98068.4
98069.2
98070.5
98071.9
98073.6
98075.4
98077.2
98079
98080.7
98082.2
98083.6
98084.8
98085.8
98086.5
98087.1
98087.4
98087.6
98087.5
98087.2
98086.7
98085.9
98085
98083.8
98082.4
98080.8
98078.9
98076.9
98074.7
98072.4
98069.8
98067.1
98064.3
98061.3
98058.2
98055
98051.7
98048.3
98044.8
98041.3
98037.8
98034.2
98030.7
98027.1
98023.7
98020.3
98017
98013.8
98010.8
98007.9
98005.1
98002.6
98000.3
97998.2
97996.3
97994.7
97993.3
97992.1
97991.3
97990.6
97990.2
97990.1
97990.2
97990.6
97991.2
97992
97993
97994.1
97995.5
97996.9
97998.5
98000.1
98001.7
98003.3
98005
98006.5
98008
98009.3
98010.4
98011.4
98012.2
98012.6
98012.9
98012.8
98012.4
98011.7
98010.6
98009.2
98007.5
98005.4
98002.9
98000.1
97997
97993.6
97989.9
97985.9
97981.6
97977
97972.2
97967.2
97962
97956.7
97951.2
97945.5
97939.7
97933.7
97927.6
97921.3
97914.9
97908.2
97901.4
97894.4
97887.1
97879.7
97872
97864.1
97855.9
97847.4
97838.5
97829.3
97819.8
97809.9
97799.5
97788.7
97777.6
97766
97753.9
97741.5
97728.6
97715.4
97702