/*--------------------------------*- C++ -*----------------------------------*\
| =========                 |                                                 |
| \\      /  F ield         | OpenFOAM: The Open Source CFD Toolbox           |
|  \\    /   O peration     | Version:  dev                                   |
|   \\  /    A nd           | Web:      http://www.openfoam.org               |
|    \\/     M anipulation  |                                                 |
\*---------------------------------------------------------------------------*/
FoamFile
{
    version     2.0;
    format      ascii;
    class       volScalarField;
    object      pPrime2Mean;
    location    "9.126";
}
// * * * * * * * * * * * * * * * * * * * * * * * * * * * * * * * * * * * * * //

dimensions      [2 -2 -4 0 0 0 0];

internalField   nonuniform List<scalar> 
12225
(
5.03867e+07
4.99217e+07
4.89611e+07
4.76101e+07
4.59566e+07
4.40899e+07
4.20692e+07
3.99666e+07
3.78227e+07
3.56857e+07
3.35933e+07
3.15484e+07
2.96249e+07
2.77537e+07
2.60059e+07
2.44448e+07
2.28825e+07
2.13015e+07
5.02787e+07
4.98138e+07
4.8854e+07
4.75047e+07
4.58526e+07
4.39883e+07
4.19705e+07
3.98704e+07
3.77305e+07
3.55962e+07
3.35085e+07
3.14672e+07
2.95483e+07
2.7684e+07
2.59537e+07
2.43927e+07
2.28833e+07
2.15481e+07
5.00284e+07
4.95641e+07
4.86048e+07
4.72585e+07
4.56109e+07
4.37514e+07
4.17403e+07
3.96465e+07
3.75147e+07
3.53885e+07
3.33092e+07
3.12797e+07
2.93669e+07
2.75198e+07
2.58093e+07
2.42533e+07
2.28177e+07
2.16038e+07
4.95924e+07
4.9131e+07
4.8174e+07
4.68329e+07
4.51933e+07
4.33423e+07
4.13428e+07
3.92595e+07
3.71426e+07
3.50298e+07
3.29664e+07
3.09547e+07
2.90591e+07
2.72314e+07
2.55507e+07
2.40193e+07
2.26326e+07
2.1531e+07
4.89268e+07
4.84656e+07
4.75133e+07
4.61817e+07
4.4554e+07
4.27174e+07
4.07338e+07
3.86699e+07
3.65719e+07
3.44833e+07
3.24402e+07
3.04593e+07
2.85863e+07
2.67947e+07
2.51662e+07
2.36574e+07
2.2376e+07
2.1311e+07
4.79769e+07
4.75131e+07
4.65703e+07
4.52522e+07
4.36423e+07
4.18256e+07
3.98667e+07
3.78283e+07
3.57605e+07
3.37016e+07
3.16928e+07
2.9746e+07
2.79114e+07
2.61663e+07
2.45874e+07
2.3148e+07
2.19211e+07
2.08643e+07
4.66809e+07
4.62158e+07
4.52886e+07
4.39867e+07
4.2403e+07
4.06119e+07
3.86886e+07
3.66837e+07
3.46588e+07
3.26389e+07
3.06784e+07
2.87773e+07
2.69941e+07
2.53068e+07
2.3785e+07
2.24058e+07
2.12372e+07
2.02091e+07
4.52377e+07
4.47742e+07
4.38633e+07
4.25793e+07
4.10243e+07
3.92629e+07
3.73781e+07
3.54122e+07
3.34326e+07
3.14589e+07
2.95483e+07
2.77009e+07
2.59692e+07
2.43451e+07
2.28718e+07
2.15559e+07
2.042e+07
1.94601e+07
4.37216e+07
4.32616e+07
4.2367e+07
4.11027e+07
3.95773e+07
3.78484e+07
3.60031e+07
3.40795e+07
3.21462e+07
3.02221e+07
2.83624e+07
2.65707e+07
2.48928e+07
2.33295e+07
2.19083e+07
2.06485e+07
1.95546e+07
1.86559e+07
4.17799e+07
4.13267e+07
4.04515e+07
3.92148e+07
3.77259e+07
3.60409e+07
3.42444e+07
3.23771e+07
3.0501e+07
2.86418e+07
2.6845e+07
2.51249e+07
2.35131e+07
2.20246e+07
2.06697e+07
1.94776e+07
1.84406e+07
1.75879e+07
3.93294e+07
3.88861e+07
3.80345e+07
3.68346e+07
3.53915e+07
3.37637e+07
3.20293e+07
3.02329e+07
2.84301e+07
2.66512e+07
2.49348e+07
2.33007e+07
2.17727e+07
2.03704e+07
1.90986e+07
1.79833e+07
1.70133e+07
1.62068e+07
3.63036e+07
3.58752e+07
3.50518e+07
3.39009e+07
3.2515e+07
3.09605e+07
2.93035e+07
2.75963e+07
2.5884e+07
2.42041e+07
2.25859e+07
2.10549e+07
1.96278e+07
1.83248e+07
1.71497e+07
1.61188e+07
1.52245e+07
1.44712e+07
3.26878e+07
3.22781e+07
3.1491e+07
3.04013e+07
2.90877e+07
2.76222e+07
2.6061e+07
2.44605e+07
2.28583e+07
2.1295e+07
1.97936e+07
1.83818e+07
1.70712e+07
1.58805e+07
1.48119e+07
1.38747e+07
1.30637e+07
1.23756e+07
2.85731e+07
2.81862e+07
2.74459e+07
2.64285e+07
2.52033e+07
2.38413e+07
2.23941e+07
2.09157e+07
1.94418e+07
1.80094e+07
1.66409e+07
1.53598e+07
1.41778e+07
1.31078e+07
1.21529e+07
1.13161e+07
1.05939e+07
9.98001e+06
2.42452e+07
2.38847e+07
2.32005e+07
2.2264e+07
2.1139e+07
1.98912e+07
1.85697e+07
1.72236e+07
1.58874e+07
1.45939e+07
1.33644e+07
1.22184e+07
1.1167e+07
1.02187e+07
9.3763e+06
8.63969e+06
8.00569e+06
7.46762e+06
2.02952e+07
1.99634e+07
1.93388e+07
1.8484e+07
1.74605e+07
1.63259e+07
1.51281e+07
1.39103e+07
1.27059e+07
1.15431e+07
1.04425e+07
9.41984e+06
8.48504e+06
7.64416e+06
6.89909e+06
6.24856e+06
5.68938e+06
5.21535e+06
1.77277e+07
1.74214e+07
1.6847e+07
1.60601e+07
1.51189e+07
1.40754e+07
1.2975e+07
1.18566e+07
1.07518e+07
9.6859e+06
8.67775e+06
7.74091e+06
6.8841e+06
6.1121e+06
5.42625e+06
4.82519e+06
4.30592e+06
3.8631e+06
1.7836e+07
1.75416e+07
1.69895e+07
1.62321e+07
1.53256e+07
1.43191e+07
1.32561e+07
1.21736e+07
1.11017e+07
1.0064e+07
9.07827e+06
8.15721e+06
7.3089e+06
6.53783e+06
5.8454e+06
5.23078e+06
4.69146e+06
4.2231e+06
2.07157e+07
2.04168e+07
1.98548e+07
1.90824e+07
1.81564e+07
1.71259e+07
1.60343e+07
1.49183e+07
1.38077e+07
1.27261e+07
1.16908e+07
1.07147e+07
9.80597e+06
8.96938e+06
8.20686e+06
7.51832e+06
6.90193e+06
6.35431e+06
2.5207e+07
2.48952e+07
2.43052e+07
2.34917e+07
2.25141e+07
2.14232e+07
2.02637e+07
1.90732e+07
1.78821e+07
1.67145e+07
1.55886e+07
1.45174e+07
1.35097e+07
1.25711e+07
1.1704e+07
1.09092e+07
1.01855e+07
9.53059e+06
3.02712e+07
2.99453e+07
2.9322e+07
2.8459e+07
2.74189e+07
2.62549e+07
2.50133e+07
2.37332e+07
2.24464e+07
2.11779e+07
1.99467e+07
1.87666e+07
1.76472e+07
1.65947e+07
1.56123e+07
1.47016e+07
1.38622e+07
1.30922e+07
3.51898e+07
3.48522e+07
3.41978e+07
3.32877e+07
3.21874e+07
3.09521e+07
2.96302e+07
2.82625e+07
2.68821e+07
2.55149e+07
2.41812e+07
2.28954e+07
2.1668e+07
2.05058e+07
1.94131e+07
1.83917e+07
1.74422e+07
1.65633e+07
3.95432e+07
3.91972e+07
3.85174e+07
3.75676e+07
3.64156e+07
3.51185e+07
3.37265e+07
3.22818e+07
3.08189e+07
2.93648e+07
2.79406e+07
2.65616e+07
2.52391e+07
2.39806e+07
2.27909e+07
2.16727e+07
2.06267e+07
1.96525e+07
4.31423e+07
4.27912e+07
4.20922e+07
4.11113e+07
3.99182e+07
3.85713e+07
3.71222e+07
3.56145e+07
3.40839e+07
3.25584e+07
3.10596e+07
2.9604e+07
2.82032e+07
2.68654e+07
2.5596e+07
2.43981e+07
2.32729e+07
2.22205e+07
4.59534e+07
4.55994e+07
4.48865e+07
4.38827e+07
4.26585e+07
4.12734e+07
3.97804e+07
3.82241e+07
3.6641e+07
3.50599e+07
3.35032e+07
3.19879e+07
3.05262e+07
2.91268e+07
2.77954e+07
2.65355e+07
2.53487e+07
2.42353e+07
4.80335e+07
4.76779e+07
4.69554e+07
4.59354e+07
4.46889e+07
4.32761e+07
4.17509e+07
4.01589e+07
3.85372e+07
3.69152e+07
3.53159e+07
3.37566e+07
3.225e+07
3.08052e+07
2.94281e+07
2.81226e+07
2.68904e+07
2.57321e+07
4.94838e+07
4.91273e+07
4.83981e+07
4.73672e+07
4.61054e+07
4.46737e+07
4.31266e+07
4.151e+07
3.98616e+07
3.82113e+07
3.65825e+07
3.49927e+07
3.34551e+07
3.19788e+07
3.057e+07
2.92329e+07
2.79693e+07
2.67798e+07
5.04196e+07
5.00621e+07
4.93287e+07
4.82912e+07
4.70196e+07
4.55759e+07
4.40148e+07
4.23826e+07
4.07172e+07
3.90488e+07
3.74011e+07
3.57918e+07
3.42342e+07
3.27376e+07
3.13085e+07
2.9951e+07
2.86673e+07
2.74579e+07
5.09492e+07
5.05913e+07
4.98564e+07
4.88157e+07
4.75388e+07
4.60885e+07
4.45196e+07
4.28784e+07
4.12032e+07
3.95244e+07
3.78658e+07
3.62452e+07
3.46761e+07
3.31679e+07
3.17271e+07
3.03579e+07
2.90628e+07
2.78423e+07
5.11716e+07
5.08152e+07
5.00783e+07
4.90359e+07
4.77564e+07
4.63033e+07
4.47309e+07
4.30859e+07
4.14065e+07
3.97232e+07
3.80599e+07
3.64345e+07
3.48605e+07
3.33473e+07
3.19015e+07
3.05274e+07
2.92276e+07
2.80026e+07
6.04951e+07
6.0436e+07
6.03053e+07
6.00994e+07
5.98165e+07
5.94559e+07
5.90177e+07
5.85026e+07
5.79116e+07
5.72465e+07
5.65088e+07
5.57009e+07
5.48249e+07
5.38835e+07
5.28793e+07
5.18155e+07
5.06952e+07
4.9522e+07
4.82994e+07
4.70315e+07
4.57221e+07
4.43753e+07
4.29954e+07
4.15868e+07
4.01539e+07
3.87012e+07
3.72333e+07
3.57547e+07
3.42697e+07
3.27829e+07
3.12991e+07
2.98226e+07
2.83582e+07
2.69104e+07
2.54838e+07
2.4083e+07
2.27126e+07
2.13773e+07
2.00818e+07
1.8831e+07
1.76296e+07
1.64825e+07
1.53947e+07
1.43713e+07
1.34174e+07
1.25383e+07
1.17392e+07
1.10256e+07
1.04027e+07
9.87618e+06
9.45135e+06
9.1337e+06
8.9286e+06
8.84132e+06
8.87697e+06
9.04034e+06
9.336e+06
9.76821e+06
1.03408e+07
1.1057e+07
1.19197e+07
1.29309e+07
1.40921e+07
1.5404e+07
1.68666e+07
1.8479e+07
2.02397e+07
2.21461e+07
2.41952e+07
2.63831e+07
2.87053e+07
3.11564e+07
3.37305e+07
3.64213e+07
3.92218e+07
4.21249e+07
4.5123e+07
4.82084e+07
5.13732e+07
5.46096e+07
5.79093e+07
6.12641e+07
6.46658e+07
6.81058e+07
7.15755e+07
7.50659e+07
7.85679e+07
8.2072e+07
8.55683e+07
8.90464e+07
9.24952e+07
9.59034e+07
9.92588e+07
1.02549e+08
1.05762e+08
1.08884e+08
1.11903e+08
1.14807e+08
1.17584e+08
1.20224e+08
1.22718e+08
1.25057e+08
1.27234e+08
1.29244e+08
1.31082e+08
1.32747e+08
1.3424e+08
1.35561e+08
1.36718e+08
1.37716e+08
1.38568e+08
1.39282e+08
1.39874e+08
1.40358e+08
1.4075e+08
1.41067e+08
1.4133e+08
1.4156e+08
1.41779e+08
1.42016e+08
1.423e+08
1.42663e+08
1.43143e+08
1.43779e+08
1.44614e+08
1.45697e+08
1.4708e+08
1.48819e+08
1.50976e+08
1.53612e+08
1.56791e+08
1.60575e+08
1.65027e+08
1.70202e+08
1.76154e+08
1.82928e+08
1.9056e+08
1.99077e+08
2.08495e+08
2.18815e+08
2.30032e+08
2.42124e+08
2.55062e+08
2.68806e+08
2.83312e+08
2.98518e+08
3.14375e+08
3.30812e+08
3.47767e+08
3.65163e+08
3.82927e+08
4.00977e+08
4.1922e+08
4.37566e+08
4.55891e+08
4.74055e+08
4.91897e+08
5.09245e+08
5.25867e+08
5.41528e+08
5.55928e+08
5.6877e+08
5.79711e+08
5.88429e+08
5.94586e+08
5.97889e+08
5.98075e+08
5.94963e+08
5.88427e+08
5.78494e+08
5.65244e+08
5.48945e+08
5.29914e+08
5.08646e+08
4.85612e+08
4.61339e+08
4.36194e+08
4.10611e+08
3.84803e+08
3.59094e+08
5.94192e+07
5.93635e+07
5.92383e+07
5.90383e+07
5.87619e+07
5.84089e+07
5.798e+07
5.74763e+07
5.68989e+07
5.62494e+07
5.55293e+07
5.47408e+07
5.3886e+07
5.29673e+07
5.19873e+07
5.09487e+07
4.98545e+07
4.87083e+07
4.75134e+07
4.62736e+07
4.49927e+07
4.36748e+07
4.2324e+07
4.09446e+07
3.9541e+07
3.81175e+07
3.66785e+07
3.52283e+07
3.37713e+07
3.23119e+07
3.08547e+07
2.9404e+07
2.79646e+07
2.65409e+07
2.51374e+07
2.37587e+07
2.24091e+07
2.10935e+07
1.98165e+07
1.85827e+07
1.73971e+07
1.62645e+07
1.51897e+07
1.4178e+07
1.32343e+07
1.2364e+07
1.15722e+07
1.08644e+07
1.0246e+07
9.72246e+06
9.29919e+06
8.98163e+06
8.77516e+06
8.685e+06
8.71628e+06
8.87387e+06
9.16234e+06
9.58591e+06
1.01484e+07
1.0853e+07
1.17026e+07
1.26992e+07
1.38443e+07
1.51386e+07
1.6582e+07
1.81737e+07
1.99121e+07
2.17947e+07
2.38184e+07
2.59795e+07
2.82731e+07
3.06942e+07
3.32369e+07
3.58947e+07
3.86608e+07
4.15281e+07
4.44892e+07
4.75363e+07
5.06616e+07
5.38572e+07
5.71149e+07
6.04267e+07
6.37842e+07
6.71791e+07
7.06028e+07
7.40464e+07
7.75007e+07
8.09565e+07
8.44038e+07
8.78323e+07
9.12312e+07
9.45892e+07
9.78944e+07
1.01135e+08
1.04297e+08
1.0737e+08
1.10341e+08
1.13197e+08
1.15928e+08
1.18524e+08
1.20975e+08
1.23273e+08
1.25412e+08
1.27386e+08
1.29192e+08
1.30827e+08
1.32292e+08
1.33589e+08
1.34724e+08
1.35704e+08
1.36539e+08
1.3724e+08
1.37821e+08
1.38295e+08
1.38679e+08
1.38989e+08
1.39245e+08
1.39467e+08
1.39679e+08
1.39907e+08
1.40179e+08
1.40529e+08
1.40991e+08
1.41606e+08
1.42415e+08
1.43465e+08
1.44809e+08
1.46502e+08
1.48603e+08
1.51175e+08
1.54281e+08
1.5798e+08
1.62335e+08
1.67401e+08
1.73231e+08
1.79868e+08
1.8735e+08
1.95704e+08
2.04944e+08
2.15073e+08
2.26085e+08
2.37958e+08
2.50667e+08
2.64172e+08
2.78428e+08
2.93375e+08
3.08963e+08
3.2513e+08
3.41809e+08
3.58925e+08
3.76408e+08
3.94177e+08
4.12143e+08
4.30216e+08
4.48276e+08
4.66184e+08
4.83781e+08
5.00903e+08
5.1732e+08
5.32799e+08
5.47055e+08
5.59791e+08
5.70669e+08
5.7937e+08
5.85568e+08
5.88972e+08
5.89325e+08
5.8645e+08
5.80216e+08
5.70633e+08
5.57778e+08
5.41906e+08
5.23322e+08
5.02509e+08
4.79926e+08
4.56083e+08
4.31347e+08
4.06146e+08
3.8069e+08
3.55219e+08
5.7352e+07
5.72989e+07
5.71793e+07
5.69877e+07
5.67229e+07
5.63854e+07
5.59761e+07
5.54962e+07
5.49466e+07
5.43285e+07
5.36434e+07
5.2893e+07
5.20792e+07
5.12041e+07
5.02699e+07
4.92791e+07
4.82348e+07
4.71398e+07
4.59975e+07
4.48113e+07
4.3585e+07
4.23224e+07
4.10275e+07
3.97043e+07
3.83568e+07
3.6989e+07
3.5605e+07
3.4209e+07
3.28053e+07
3.13982e+07
2.9992e+07
2.85911e+07
2.71999e+07
2.58227e+07
2.44638e+07
2.31276e+07
2.18186e+07
2.0541e+07
1.92997e+07
1.80992e+07
1.69443e+07
1.58397e+07
1.47904e+07
1.38013e+07
1.28775e+07
1.20243e+07
1.12469e+07
1.05507e+07
9.9411e+06
9.42344e+06
9.00322e+06
8.68584e+06
8.47672e+06
8.38109e+06
8.40403e+06
8.55043e+06
8.82484e+06
9.23149e+06
9.77418e+06
1.04562e+07
1.12801e+07
1.22482e+07
1.33618e+07
1.46215e+07
1.60273e+07
1.75783e+07
1.92728e+07
2.11086e+07
2.30824e+07
2.51905e+07
2.74282e+07
2.97903e+07
3.22712e+07
3.48643e+07
3.75631e+07
4.03604e+07
4.32489e+07
4.62211e+07
4.92693e+07
5.23855e+07
5.55617e+07
5.87899e+07
6.2062e+07
6.53695e+07
6.8704e+07
7.20568e+07
7.5419e+07
7.87812e+07
8.21338e+07
8.54665e+07
8.87687e+07
9.20293e+07
9.52369e+07
9.83797e+07
1.01445e+08
1.04421e+08
1.07297e+08
1.1006e+08
1.12701e+08
1.15209e+08
1.17576e+08
1.19794e+08
1.21858e+08
1.23762e+08
1.25503e+08
1.27079e+08
1.28491e+08
1.2974e+08
1.30833e+08
1.31777e+08
1.32582e+08
1.33257e+08
1.33816e+08
1.34272e+08
1.34639e+08
1.34935e+08
1.35176e+08
1.35384e+08
1.35581e+08
1.3579e+08
1.3604e+08
1.36362e+08
1.36789e+08
1.37359e+08
1.38114e+08
1.391e+08
1.40365e+08
1.41965e+08
1.43956e+08
1.46399e+08
1.49356e+08
1.52887e+08
1.5705e+08
1.61899e+08
1.67486e+08
1.73854e+08
1.81038e+08
1.89067e+08
1.97955e+08
2.07705e+08
2.1831e+08
2.29752e+08
2.42007e+08
2.55039e+08
2.688e+08
2.83236e+08
2.98292e+08
3.13919e+08
3.30047e+08
3.46607e+08
3.63527e+08
3.80735e+08
3.98146e+08
4.15668e+08
4.33185e+08
4.50572e+08
4.67668e+08
4.84313e+08
5.00293e+08
5.15376e+08
5.29298e+08
5.41767e+08
5.52462e+08
5.61079e+08
5.67298e+08
5.70849e+08
5.71481e+08
5.6902e+08
5.63332e+08
5.54404e+08
5.4231e+08
5.27275e+08
5.09584e+08
4.89692e+08
4.68026e+08
4.45063e+08
4.21178e+08
3.96771e+08
3.72067e+08
3.47237e+08
5.44557e+07
5.44064e+07
5.42943e+07
5.41149e+07
5.3868e+07
5.35542e+07
5.31745e+07
5.27295e+07
5.22197e+07
5.16462e+07
5.10101e+07
5.03127e+07
4.95554e+07
4.87401e+07
4.78687e+07
4.69436e+07
4.59674e+07
4.49429e+07
4.38731e+07
4.27612e+07
4.16107e+07
4.0425e+07
3.92078e+07
3.79626e+07
3.6693e+07
3.54025e+07
3.40952e+07
3.27748e+07
3.14455e+07
3.01114e+07
2.87767e+07
2.74454e+07
2.61217e+07
2.48095e+07
2.35129e+07
2.22362e+07
2.09835e+07
1.97594e+07
1.85681e+07
1.74142e+07
1.63023e+07
1.52372e+07
1.42235e+07
1.32663e+07
1.23707e+07
1.15417e+07
1.07846e+07
1.01047e+07
9.50743e+06
8.99815e+06
8.58229e+06
8.26527e+06
8.05246e+06
7.94907e+06
7.96017e+06
8.09065e+06
8.34508e+06
8.72766e+06
9.24214e+06
9.89175e+06
1.06792e+07
1.16065e+07
1.2675e+07
1.38854e+07
1.52376e+07
1.67306e+07
1.83628e+07
2.01319e+07
2.20348e+07
2.40678e+07
2.62262e+07
2.8505e+07
3.08986e+07
3.34006e+07
3.60045e+07
3.87034e+07
4.14901e+07
4.43574e+07
4.72975e+07
5.03028e+07
5.33652e+07
5.64771e+07
5.96301e+07
6.28163e+07
6.6027e+07
6.92538e+07
7.2488e+07
7.57205e+07
7.89415e+07
8.21414e+07
8.53095e+07
8.8435e+07
9.1507e+07
9.45137e+07
9.74439e+07
1.00286e+08
1.03028e+08
1.05661e+08
1.08175e+08
1.10559e+08
1.12807e+08
1.14913e+08
1.1687e+08
1.18674e+08
1.20322e+08
1.21814e+08
1.23149e+08
1.24331e+08
1.25365e+08
1.26256e+08
1.27016e+08
1.27653e+08
1.2818e+08
1.28608e+08
1.28951e+08
1.29224e+08
1.29444e+08
1.2963e+08
1.29802e+08
1.29985e+08
1.30202e+08
1.30482e+08
1.30858e+08
1.31364e+08
1.32042e+08
1.32934e+08
1.34088e+08
1.35556e+08
1.37392e+08
1.39654e+08
1.42401e+08
1.45693e+08
1.49585e+08
1.5413e+08
1.59376e+08
1.65365e+08
1.72133e+08
1.79707e+08
1.88101e+08
1.97321e+08
2.07359e+08
2.182e+08
2.29823e+08
2.42196e+08
2.5527e+08
2.68995e+08
2.83317e+08
2.98195e+08
3.13564e+08
3.29357e+08
3.45503e+08
3.61939e+08
3.78582e+08
3.95343e+08
4.12111e+08
4.2877e+08
4.45166e+08
4.61144e+08
4.76504e+08
4.91023e+08
5.04455e+08
5.16522e+08
5.26926e+08
5.35383e+08
5.41588e+08
5.45287e+08
5.46239e+08
5.44276e+08
5.39268e+08
5.31185e+08
5.20086e+08
5.06164e+08
4.89679e+08
4.71046e+08
4.50645e+08
4.2892e+08
4.06231e+08
3.82955e+08
3.5933e+08
3.35507e+08
5.09309e+07
5.0887e+07
5.0785e+07
5.0622e+07
5.03982e+07
5.01142e+07
4.97703e+07
4.93669e+07
4.89046e+07
4.83839e+07
4.78056e+07
4.71706e+07
4.64803e+07
4.57361e+07
4.49397e+07
4.40933e+07
4.31991e+07
4.22594e+07
4.1277e+07
4.02548e+07
3.91958e+07
3.8103e+07
3.69794e+07
3.58282e+07
3.46524e+07
3.34555e+07
3.22411e+07
3.10127e+07
2.97744e+07
2.85297e+07
2.72823e+07
2.60361e+07
2.47946e+07
2.35618e+07
2.23414e+07
2.11373e+07
1.99538e+07
1.87949e+07
1.76648e+07
1.6568e+07
1.55089e+07
1.4492e+07
1.35221e+07
1.26041e+07
1.17429e+07
1.09436e+07
1.02113e+07
9.55145e+06
8.96926e+06
8.47018e+06
8.05959e+06
7.74289e+06
7.52543e+06
7.4124e+06
7.40886e+06
7.51963e+06
7.74925e+06
8.10186e+06
8.58118e+06
9.19045e+06
9.9323e+06
1.08088e+07
1.18212e+07
1.29702e+07
1.42556e+07
1.56764e+07
1.72311e+07
1.89174e+07
2.07322e+07
2.26719e+07
2.4732e+07
2.69075e+07
2.91928e+07
3.15819e+07
3.40685e+07
3.66457e+07
3.93066e+07
4.20441e+07
4.48508e+07
4.7719e+07
5.06412e+07
5.36095e+07
5.66161e+07
5.96529e+07
6.27117e+07
6.57839e+07
6.88613e+07
7.19347e+07
7.49948e+07
7.8032e+07
8.10362e+07
8.39971e+07
8.69038e+07
8.97452e+07
9.25103e+07
9.51886e+07
9.77697e+07
1.00244e+08
1.02602e+08
1.04836e+08
1.06939e+08
1.08905e+08
1.10731e+08
1.12413e+08
1.13946e+08
1.15332e+08
1.16573e+08
1.17671e+08
1.1863e+08
1.19456e+08
1.20158e+08
1.20746e+08
1.21231e+08
1.21622e+08
1.21933e+08
1.22176e+08
1.22368e+08
1.22525e+08
1.22665e+08
1.22811e+08
1.22985e+08
1.23214e+08
1.23525e+08
1.23954e+08
1.24538e+08
1.25315e+08
1.26333e+08
1.2764e+08
1.29287e+08
1.3133e+08
1.33821e+08
1.36821e+08
1.40383e+08
1.44556e+08
1.49389e+08
1.54919e+08
1.61182e+08
1.68206e+08
1.76004e+08
1.84584e+08
1.9394e+08
2.04058e+08
2.14918e+08
2.26495e+08
2.38744e+08
2.51618e+08
2.65065e+08
2.79047e+08
2.93508e+08
3.08386e+08
3.23611e+08
3.39125e+08
3.54849e+08
3.70698e+08
3.86567e+08
4.02346e+08
4.17895e+08
4.33062e+08
4.47665e+08
4.61495e+08
4.74313e+08
4.85869e+08
4.95894e+08
5.04116e+08
5.10257e+08
5.14075e+08
5.15345e+08
5.13912e+08
5.0965e+08
5.02516e+08
4.92551e+08
4.79911e+08
4.64835e+08
4.47684e+08
4.28793e+08
4.08569e+08
3.87339e+08
3.65456e+08
3.43168e+08
3.20634e+08
4.70008e+07
4.69638e+07
4.68743e+07
4.67305e+07
4.65329e+07
4.62816e+07
4.59769e+07
4.5619e+07
4.52082e+07
4.47446e+07
4.4229e+07
4.3662e+07
4.30446e+07
4.23782e+07
4.16642e+07
4.09041e+07
4.00999e+07
3.92537e+07
3.83677e+07
3.74445e+07
3.64864e+07
3.54961e+07
3.44759e+07
3.34286e+07
3.23569e+07
3.1264e+07
3.01531e+07
2.90276e+07
2.78906e+07
2.67455e+07
2.55956e+07
2.44443e+07
2.32949e+07
2.21509e+07
2.10158e+07
1.98934e+07
1.87874e+07
1.77019e+07
1.66408e+07
1.56083e+07
1.46086e+07
1.36462e+07
1.27257e+07
1.18518e+07
1.10294e+07
1.02635e+07
9.55913e+06
8.92168e+06
8.35642e+06
7.8687e+06
7.46389e+06
7.14736e+06
6.92444e+06
6.80029e+06
6.77992e+06
6.86808e+06
7.06928e+06
7.38763e+06
7.82676e+06
8.38986e+06
9.07953e+06
9.89776e+06
1.08459e+07
1.19245e+07
1.31333e+07
1.44716e+07
1.59376e+07
1.75291e+07
1.92432e+07
2.10761e+07
2.30238e+07
2.50811e+07
2.72428e+07
2.95029e+07
3.18553e+07
3.42936e+07
3.68109e+07
3.94003e+07
4.20547e+07
4.47667e+07
4.75288e+07
5.03335e+07
5.31731e+07
5.60397e+07
5.89255e+07
6.18219e+07
6.47209e+07
6.76136e+07
7.0491e+07
7.33436e+07
7.6162e+07
7.89362e+07
8.16561e+07
8.43109e+07
8.68903e+07
8.93847e+07
9.17846e+07
9.40809e+07
9.62652e+07
9.83304e+07
1.0027e+08
1.0208e+08
1.03758e+08
1.053e+08
1.06705e+08
1.07973e+08
1.09106e+08
1.10106e+08
1.10979e+08
1.11729e+08
1.12365e+08
1.12894e+08
1.13327e+08
1.13673e+08
1.13943e+08
1.14149e+08
1.14306e+08
1.14426e+08
1.14528e+08
1.14629e+08
1.14752e+08
1.14919e+08
1.15159e+08
1.155e+08
1.15978e+08
1.16628e+08
1.17493e+08
1.18619e+08
1.20054e+08
1.2185e+08
1.24056e+08
1.26731e+08
1.29924e+08
1.33682e+08
1.38052e+08
1.43071e+08
1.48773e+08
1.55185e+08
1.62323e+08
1.70193e+08
1.78793e+08
1.88113e+08
1.98132e+08
2.0883e+08
2.2017e+08
2.32109e+08
2.44597e+08
2.57599e+08
2.71065e+08
2.84941e+08
2.99158e+08
3.13659e+08
3.28375e+08
3.43219e+08
3.58096e+08
3.72903e+08
3.87512e+08
4.01775e+08
4.15527e+08
4.28576e+08
4.40693e+08
4.51652e+08
4.61215e+08
4.69131e+08
4.75147e+08
4.79031e+08
4.80583e+08
4.79666e+08
4.76152e+08
4.69989e+08
4.61199e+08
4.49914e+08
4.36342e+08
4.20791e+08
4.0355e+08
3.84987e+08
3.65389e+08
3.45079e+08
3.24309e+08
3.03267e+08
4.28905e+07
4.2861e+07
4.27851e+07
4.26616e+07
4.24911e+07
4.22735e+07
4.20091e+07
4.16978e+07
4.13395e+07
4.09344e+07
4.04829e+07
3.99856e+07
3.94434e+07
3.8857e+07
3.82277e+07
3.75567e+07
3.68456e+07
3.60961e+07
3.531e+07
3.44892e+07
3.36356e+07
3.27513e+07
3.18382e+07
3.08988e+07
2.99355e+07
2.8951e+07
2.79482e+07
2.69299e+07
2.58988e+07
2.48578e+07
2.38099e+07
2.2758e+07
2.17051e+07
2.06544e+07
1.96091e+07
1.85726e+07
1.75486e+07
1.65405e+07
1.55521e+07
1.45875e+07
1.36506e+07
1.27458e+07
1.18774e+07
1.10502e+07
1.02687e+07
9.53803e+06
8.8632e+06
8.24941e+06
7.70192e+06
7.22609e+06
6.82721e+06
6.51062e+06
6.28159e+06
6.14527e+06
6.1066e+06
6.17032e+06
6.34086e+06
6.62225e+06
7.0181e+06
7.53151e+06
8.16502e+06
8.92056e+06
9.7994e+06
1.08021e+07
1.19285e+07
1.31778e+07
1.45483e+07
1.60376e+07
1.7643e+07
1.93608e+07
2.1187e+07
2.31168e+07
2.51449e+07
2.72658e+07
2.94735e+07
3.17616e+07
3.41238e+07
3.65532e+07
3.9043e+07
4.15861e+07
4.41752e+07
4.6803e+07
4.94622e+07
5.21449e+07
5.48437e+07
5.75503e+07
6.02567e+07
6.29544e+07
6.56347e+07
6.82885e+07
7.09069e+07
7.34803e+07
7.59992e+07
7.84538e+07
8.08346e+07
8.31325e+07
8.53389e+07
8.74458e+07
8.94457e+07
9.13323e+07
9.31002e+07
9.47457e+07
9.6266e+07
9.76601e+07
9.89274e+07
1.00069e+08
1.01086e+08
1.01981e+08
1.0276e+08
1.03427e+08
1.03988e+08
1.04452e+08
1.04826e+08
1.05119e+08
1.05341e+08
1.05504e+08
1.05618e+08
1.05696e+08
1.05753e+08
1.05805e+08
1.0587e+08
1.05971e+08
1.06132e+08
1.0638e+08
1.06746e+08
1.07261e+08
1.07965e+08
1.089e+08
1.1011e+08
1.11646e+08
1.13554e+08
1.15886e+08
1.18691e+08
1.22014e+08
1.25897e+08
1.30379e+08
1.35494e+08
1.41266e+08
1.47713e+08
1.54842e+08
1.62654e+08
1.71142e+08
1.80289e+08
1.90077e+08
2.00474e+08
2.11445e+08
2.22943e+08
2.34935e+08
2.47376e+08
2.60214e+08
2.73389e+08
2.86847e+08
3.00516e+08
3.14316e+08
3.28161e+08
3.41954e+08
3.55576e+08
3.68884e+08
3.81726e+08
3.93931e+08
4.05286e+08
4.15583e+08
4.24612e+08
4.32151e+08
4.3797e+08
4.41853e+08
4.43624e+08
4.43163e+08
4.40344e+08
4.35107e+08
4.2746e+08
4.1752e+08
4.05455e+08
3.9153e+08
3.75987e+08
3.59153e+08
3.41268e+08
3.2263e+08
3.03484e+08
2.84051e+08
3.88133e+07
3.87912e+07
3.87286e+07
3.86253e+07
3.84816e+07
3.82972e+07
3.8072e+07
3.78059e+07
3.74988e+07
3.71509e+07
3.67623e+07
3.63334e+07
3.58647e+07
3.53569e+07
3.48106e+07
3.42271e+07
3.36073e+07
3.29526e+07
3.22643e+07
3.15439e+07
3.07928e+07
3.00125e+07
2.9205e+07
2.8372e+07
2.75158e+07
2.66386e+07
2.57427e+07
2.48305e+07
2.39043e+07
2.29666e+07
2.20199e+07
2.10668e+07
2.01099e+07
1.91521e+07
1.81963e+07
1.72455e+07
1.63031e+07
1.53723e+07
1.44566e+07
1.35597e+07
1.26855e+07
1.18382e+07
1.10219e+07
1.02412e+07
9.50074e+06
8.80531e+06
8.15993e+06
7.56974e+06
7.03993e+06
6.57579e+06
6.18261e+06
5.86564e+06
5.6301e+06
5.4811e+06
5.42354e+06
5.46212e+06
5.60118e+06
5.84469e+06
6.19619e+06
6.6587e+06
7.23469e+06
7.92602e+06
8.7339e+06
9.65889e+06
1.07008e+07
1.18587e+07
1.3131e+07
1.45154e+07
1.6009e+07
1.76085e+07
1.93097e+07
2.11082e+07
2.29988e+07
2.49761e+07
2.70343e+07
2.91674e+07
3.13692e+07
3.36332e+07
3.59526e+07
3.83208e+07
4.07308e+07
4.31754e+07
4.56475e+07
4.81397e+07
5.06444e+07
5.31541e+07
5.56606e+07
5.81561e+07
6.06321e+07
6.30801e+07
6.54915e+07
6.78573e+07
7.01687e+07
7.24169e+07
7.45931e+07
7.6689e+07
7.86971e+07
8.06102e+07
8.24215e+07
8.41259e+07
8.57186e+07
8.71964e+07
8.85572e+07
8.98008e+07
9.09279e+07
9.19392e+07
9.28365e+07
9.36232e+07
9.43035e+07
9.48818e+07
9.53642e+07
9.5757e+07
9.60668e+07
9.63017e+07
9.6471e+07
9.6584e+07
9.66501e+07
9.66809e+07
9.66883e+07
9.66865e+07
9.66914e+07
9.67234e+07
9.68029e+07
9.69543e+07
9.72051e+07
9.75846e+07
9.81261e+07
9.88692e+07
9.98553e+07
1.0113e+08
1.02739e+08
1.04728e+08
1.07143e+08
1.10028e+08
1.13425e+08
1.1737e+08
1.21896e+08
1.27029e+08
1.32786e+08
1.39177e+08
1.46205e+08
1.53866e+08
1.62147e+08
1.71034e+08
1.80498e+08
1.9051e+08
2.01029e+08
2.12028e+08
2.23457e+08
2.35271e+08
2.47415e+08
2.59837e+08
2.72466e+08
2.85231e+08
2.98047e+08
3.10823e+08
3.23446e+08
3.35781e+08
3.47692e+08
3.59021e+08
3.69572e+08
3.79163e+08
3.87599e+08
3.94691e+08
4.00237e+08
4.04037e+08
4.05944e+08
4.05845e+08
4.03624e+08
3.99217e+08
3.92626e+08
3.83949e+08
3.73323e+08
3.60974e+08
3.471e+08
3.3198e+08
3.15816e+08
2.98876e+08
2.81392e+08
2.63618e+08
3.49563e+07
3.49411e+07
3.48908e+07
3.48062e+07
3.46873e+07
3.45338e+07
3.43454e+07
3.41218e+07
3.38628e+07
3.35685e+07
3.32389e+07
3.2874e+07
3.24742e+07
3.20399e+07
3.15716e+07
3.107e+07
3.05358e+07
2.997e+07
2.93734e+07
2.87471e+07
2.80923e+07
2.74101e+07
2.67019e+07
2.59694e+07
2.52142e+07
2.44382e+07
2.36433e+07
2.28313e+07
2.20043e+07
2.11642e+07
2.03132e+07
1.94536e+07
1.85877e+07
1.77179e+07
1.6847e+07
1.59776e+07
1.51126e+07
1.42551e+07
1.34083e+07
1.25758e+07
1.17612e+07
1.09685e+07
1.02018e+07
9.46531e+06
8.76373e+06
8.10178e+06
7.48434e+06
6.91647e+06
6.4033e+06
5.95004e+06
5.56192e+06
5.24415e+06
5.0019e+06
4.84024e+06
4.76402e+06
4.77785e+06
4.88603e+06
5.09244e+06
5.40052e+06
5.81319e+06
6.33285e+06
6.96128e+06
7.69962e+06
8.54833e+06
9.50717e+06
1.05752e+07
1.17509e+07
1.30319e+07
1.44154e+07
1.58979e+07
1.74756e+07
1.91441e+07
2.08984e+07
2.27333e+07
2.46432e+07
2.66222e+07
2.86643e+07
3.07633e+07
3.29128e+07
3.51063e+07
3.7337e+07
3.95983e+07
4.1883e+07
4.41841e+07
4.64942e+07
4.88061e+07
5.11121e+07
5.34046e+07
5.56755e+07
5.79169e+07
6.01207e+07
6.22785e+07
6.43823e+07
6.6424e+07
6.83959e+07
7.02904e+07
7.21007e+07
7.38206e+07
7.54444e+07
7.69677e+07
7.83865e+07
7.96979e+07
8.09013e+07
8.19964e+07
8.29842e+07
8.38661e+07
8.46439e+07
8.53209e+07
8.59011e+07
8.63889e+07
8.67895e+07
8.71082e+07
8.73504e+07
8.75231e+07
8.76347e+07
8.76934e+07
8.77075e+07
8.76865e+07
8.76409e+07
8.75824e+07
8.75255e+07
8.74872e+07
8.74854e+07
8.75413e+07
8.76793e+07
8.79262e+07
8.83118e+07
8.88715e+07
8.96432e+07
9.06681e+07
9.19886e+07
9.36475e+07
9.56874e+07
9.8151e+07
1.01078e+08
1.04506e+08
1.08465e+08
1.12981e+08
1.18073e+08
1.23755e+08
1.30031e+08
1.369e+08
1.44352e+08
1.52377e+08
1.60952e+08
1.70049e+08
1.79636e+08
1.89686e+08
2.00153e+08
2.10991e+08
2.22148e+08
2.33574e+08
2.45206e+08
2.56972e+08
2.68792e+08
2.80576e+08
2.92217e+08
3.03589e+08
3.14571e+08
3.25012e+08
3.34742e+08
3.43594e+08
3.51395e+08
3.57978e+08
3.63173e+08
3.66802e+08
3.68743e+08
3.68892e+08
3.67145e+08
3.63442e+08
3.57782e+08
3.50242e+08
3.40935e+08
3.30054e+08
3.17758e+08
3.04278e+08
2.89782e+08
2.74506e+08
2.58668e+08
2.42544e+08
3.14715e+07
3.14619e+07
3.14223e+07
3.13543e+07
3.12575e+07
3.11317e+07
3.09764e+07
3.07911e+07
3.05757e+07
3.03298e+07
3.00533e+07
2.97462e+07
2.94085e+07
2.90405e+07
2.86424e+07
2.82146e+07
2.77574e+07
2.72714e+07
2.67573e+07
2.62158e+07
2.56477e+07
2.50539e+07
2.44354e+07
2.37935e+07
2.31294e+07
2.24447e+07
2.17408e+07
2.10193e+07
2.02817e+07
1.95297e+07
1.87652e+07
1.79901e+07
1.72064e+07
1.64162e+07
1.56219e+07
1.48259e+07
1.40308e+07
1.32396e+07
1.24551e+07
1.16807e+07
1.092e+07
1.01767e+07
9.45467e+06
8.75822e+06
8.09178e+06
7.45999e+06
6.86769e+06
6.31984e+06
5.82147e+06
5.37773e+06
4.99379e+06
4.6748e+06
4.4259e+06
4.25211e+06
4.15822e+06
4.14876e+06
4.22793e+06
4.39954e+06
4.66689e+06
5.03282e+06
5.4996e+06
6.06893e+06
6.74184e+06
7.51872e+06
8.39927e+06
9.38247e+06
1.04667e+07
1.16497e+07
1.29286e+07
1.42999e+07
1.57599e+07
1.73043e+07
1.89283e+07
2.06267e+07
2.23942e+07
2.42251e+07
2.61135e+07
2.80533e+07
3.00384e+07
3.20626e+07
3.41195e+07
3.62024e+07
3.83048e+07
4.04196e+07
4.254e+07
4.46588e+07
4.6769e+07
4.88631e+07
5.09337e+07
5.29732e+07
5.49742e+07
5.6929e+07
5.88302e+07
6.06706e+07
6.24431e+07
6.41412e+07
6.57587e+07
6.72904e+07
6.87316e+07
7.00787e+07
7.13284e+07
7.24786e+07
7.3529e+07
7.44797e+07
7.5332e+07
7.60873e+07
7.67478e+07
7.73164e+07
7.77969e+07
7.81937e+07
7.85111e+07
7.87534e+07
7.89256e+07
7.90339e+07
7.90851e+07
7.90863e+07
7.9045e+07
7.8969e+07
7.88677e+07
7.87511e+07
7.8632e+07
7.85247e+07
7.84444e+07
7.84095e+07
7.84416e+07
7.85649e+07
7.88063e+07
7.91972e+07
7.97715e+07
8.05658e+07
8.1619e+07
8.29718e+07
8.46637e+07
8.67354e+07
8.92255e+07
9.21695e+07
9.55984e+07
9.95383e+07
1.04011e+08
1.09032e+08
1.14607e+08
1.20739e+08
1.27421e+08
1.34647e+08
1.42397e+08
1.50647e+08
1.59371e+08
1.6854e+08
1.78116e+08
1.88048e+08
1.98286e+08
2.08784e+08
2.19482e+08
2.30307e+08
2.41184e+08
2.5202e+08
2.62716e+08
2.73154e+08
2.83223e+08
2.92784e+08
3.01689e+08
3.09784e+08
3.16915e+08
3.22937e+08
3.27712e+08
3.3108e+08
3.32945e+08
3.3322e+08
3.31814e+08
3.28673e+08
3.23795e+08
3.1724e+08
3.09104e+08
2.99544e+08
2.88693e+08
2.76734e+08
2.6381e+08
2.50117e+08
2.35863e+08
2.21333e+08
2.84689e+07
2.84634e+07
2.84325e+07
2.83784e+07
2.83006e+07
2.81986e+07
2.80718e+07
2.79198e+07
2.77421e+07
2.75384e+07
2.73082e+07
2.70513e+07
2.67677e+07
2.64573e+07
2.61201e+07
2.57561e+07
2.53656e+07
2.49488e+07
2.4506e+07
2.40378e+07
2.35445e+07
2.30269e+07
2.24857e+07
2.19219e+07
2.13364e+07
2.07303e+07
2.01048e+07
1.94611e+07
1.88005e+07
1.81244e+07
1.74343e+07
1.67318e+07
1.60186e+07
1.52967e+07
1.45682e+07
1.38352e+07
1.31002e+07
1.23657e+07
1.16348e+07
1.09104e+07
1.01959e+07
9.49489e+06
8.81126e+06
8.14907e+06
7.51269e+06
6.90668e+06
6.33577e+06
5.80486e+06
5.3189e+06
4.88297e+06
4.50219e+06
4.18167e+06
3.92649e+06
3.74158e+06
3.63166e+06
3.60117e+06
3.65425e+06
3.79459e+06
4.02538e+06
4.34933e+06
4.76857e+06
5.28468e+06
5.89858e+06
6.61052e+06
7.42009e+06
8.32622e+06
9.32719e+06
1.04207e+07
1.16039e+07
1.28732e+07
1.42249e+07
1.56548e+07
1.71582e+07
1.873e+07
2.0365e+07
2.20577e+07
2.38022e+07
2.55928e+07
2.74233e+07
2.92879e+07
3.11803e+07
3.30944e+07
3.50237e+07
3.69615e+07
3.89012e+07
4.0836e+07
4.27592e+07
4.46638e+07
4.6543e+07
4.83895e+07
5.01965e+07
5.19571e+07
5.36645e+07
5.53122e+07
5.68939e+07
5.84038e+07
5.98368e+07
6.11885e+07
6.24552e+07
6.36337e+07
6.47217e+07
6.57176e+07
6.66214e+07
6.74334e+07
6.81552e+07
6.87882e+07
6.93346e+07
6.97973e+07
7.01798e+07