/*--------------------------------*- C++ -*----------------------------------*\
| =========                 |                                                 |
| \\      /  F ield         | OpenFOAM: The Open Source CFD Toolbox           |
|  \\    /   O peration     | Version:  dev                                   |
|   \\  /    A nd           | Web:      http://www.openfoam.org               |
|    \\/     M anipulation  |                                                 |
\*---------------------------------------------------------------------------*/
FoamFile
{
    version     2.0;
    format      ascii;
    class       volScalarField;
    object      rho;
    location    "9.126";
}
// * * * * * * * * * * * * * * * * * * * * * * * * * * * * * * * * * * * * * //

dimensions      [1 -3 0 0 0 0 0];

internalField   nonuniform List<scalar> 
12225
(
1.18301
1.19149
1.19292
1.19177
1.19127
1.18862
1.18654
1.18442
1.18125
1.18062
1.17634
1.17755
1.17227
1.1746
1.16875
1.16962
1.16708
1.1514
1.1879
1.20096
1.20334
1.2047
1.20479
1.20555
1.2023
1.20401
1.1972
1.20177
1.19126
1.19899
1.18668
1.19387
1.18461
1.18296
1.17508
1.15975
1.18782
1.20095
1.20288
1.20509
1.20538
1.20716
1.20507
1.20732
1.203
1.20557
1.20042
1.20183
1.19711
1.19737
1.19509
1.18908
1.1843
1.17156
1.18746
1.19989
1.20313
1.20272
1.20538
1.20344
1.20543
1.20243
1.20435
1.20023
1.20259
1.19841
1.19941
1.19609
1.19766
1.19406
1.18925
1.18158
1.18863
1.19799
1.2038
1.20061
1.20489
1.20085
1.20406
1.19991
1.20253
1.19818
1.20073
1.19709
1.1985
1.1959
1.19647
1.19677
1.19233
1.19102
1.1882
1.19623
1.20372
1.19927
1.2043
1.1996
1.20335
1.19887
1.20187
1.19704
1.1998
1.19582
1.1977
1.19494
1.1942
1.19369
1.19376
1.19074
1.18802
1.19437
1.20283
1.19699
1.20237
1.19744
1.20186
1.19706
1.20053
1.19567
1.19816
1.19426
1.19581
1.19365
1.19294
1.19197
1.19111
1.19184
1.18712
1.19254
1.20159
1.19514
1.20051
1.19554
1.20063
1.19545
1.19957
1.19408
1.19699
1.19243
1.19477
1.19173
1.19246
1.19077
1.19141
1.19113
1.18585
1.19129
1.20004
1.19385
1.19849
1.19407
1.19873
1.19405
1.19747
1.19253
1.19439
1.19102
1.19273
1.19012
1.19129
1.18929
1.19066
1.18935
1.18372
1.18942
1.19737
1.19214
1.19605
1.19238
1.19566
1.19208
1.19364
1.19008
1.19058
1.18867
1.18909
1.18755
1.1879
1.18667
1.18645
1.18645
1.18058
1.18749
1.19299
1.18906
1.19217
1.18939
1.19102
1.18865
1.18886
1.18607
1.18614
1.18477
1.18459
1.18355
1.183
1.18255
1.18182
1.18179
1.17669
1.18438
1.18798
1.1855
1.18718
1.18499
1.1856
1.18335
1.18244
1.18098
1.18004
1.17935
1.17836
1.17765
1.17695
1.1762
1.17568
1.17565
1.17271
1.18054
1.18193
1.18016
1.18064
1.17887
1.17807
1.17639
1.17509
1.17386
1.17248
1.17138
1.17043
1.1697
1.1688
1.1686
1.16774
1.1676
1.16686
1.17487
1.175
1.17378
1.17288
1.17095
1.16951
1.16795
1.16632
1.16477
1.1633
1.16249
1.16122
1.16032
1.15947
1.15918
1.15897
1.15872
1.16025
1.16761
1.16682
1.16533
1.16361
1.16169
1.15984
1.158
1.15628
1.1547
1.15314
1.1519
1.15063
1.15
1.1491
1.14871
1.14822
1.14826
1.15231
1.15872
1.15735
1.15542
1.1533
1.15114
1.14898
1.14693
1.14506
1.14338
1.14183
1.14068
1.13961
1.13889
1.13804
1.13781
1.13749
1.13749
1.14262
1.14814
1.14647
1.14421
1.14204
1.13986
1.13769
1.13559
1.13373
1.13205
1.13066
1.12957
1.12868
1.12812
1.1277
1.12753
1.12743
1.12756
1.13273
1.1372
1.13562
1.13356
1.13165
1.12956
1.12764
1.12583
1.12431
1.12307
1.12207
1.12138
1.12087
1.12059
1.12056
1.12065
1.12108
1.12146
1.12372
1.12811
1.12685
1.12515
1.12367
1.12205
1.1207
1.11936
1.1185
1.1178
1.11742
1.11736
1.11732
1.11762
1.11804
1.11861
1.11941
1.12019
1.11635
1.12088
1.12012
1.11888
1.11798
1.11704
1.11632
1.11562
1.11541
1.11526
1.11564
1.11618
1.11681
1.1176
1.11852
1.11955
1.12071
1.12197
1.1107
1.11512
1.11501
1.11447
1.11428
1.11394
1.11384
1.11377
1.11397
1.11434
1.11514
1.1161
1.11732
1.11848
1.11996
1.12129
1.1229
1.12446
1.10598
1.11064
1.11108
1.11113
1.11154
1.11186
1.11236
1.1128
1.11347
1.11423
1.11536
1.11662
1.11812
1.1197
1.12144
1.12319
1.12506
1.12695
1.1024
1.10749
1.1084
1.10899
1.10983
1.11057
1.11144
1.11232
1.11346
1.11465
1.11623
1.11775
1.11956
1.12141
1.12332
1.12538
1.12738
1.12961
1.10019
1.10507
1.10616
1.10711
1.10822
1.10936
1.11069
1.11203
1.11351
1.11505
1.11677
1.11854
1.12045
1.12246
1.12455
1.12669
1.12896
1.13125
1.09818
1.10349
1.10503
1.10628
1.10774
1.10912
1.11044
1.11188
1.11334
1.11495
1.11676
1.11873
1.12087
1.12309
1.12543
1.12778
1.13026
1.1327
1.09655
1.10218
1.10399
1.10543
1.10692
1.10831
1.10974
1.11124
1.11293
1.11478
1.11688
1.11915
1.12154
1.12399
1.12647
1.12899
1.13155
1.13412
1.09584
1.10157
1.10339
1.10485
1.10652
1.10809
1.10982
1.11158
1.11354
1.11556
1.11784
1.12016
1.12272
1.12527
1.12803
1.13077
1.13367
1.1366
1.09507
1.10083
1.10274
1.1044
1.10626
1.10817
1.11034
1.11255
1.11496
1.11732
1.11989
1.1224
1.12518
1.12786
1.13087
1.13373
1.13685
1.13967
1.09473
1.10073
1.10269
1.10445
1.10638
1.10845
1.11061
1.11274
1.11489
1.11699
1.11924
1.12137
1.12353
1.12558
1.12778
1.12981
1.13209
1.13361
1.0938
1.09821
1.09937
1.10032
1.10126
1.10206
1.10272
1.10337
1.10407
1.10482
1.10572
1.10669
1.10779
1.10898
1.11031
1.1117
1.11311
1.11456
1.14768
1.17452
1.16449
1.15466
1.14307
1.14161
1.13802
1.13836
1.1383
1.13787
1.13766
1.13694
1.13639
1.13515
1.13381
1.1324
1.13117
1.12977
1.12867
1.12783
1.12717
1.12638
1.12543
1.12505
1.12507
1.12484
1.1245
1.12476
1.12486
1.12466
1.12493
1.12513
1.12502
1.1256
1.1262
1.12639
1.12657
1.12766
1.1289
1.12941
1.12941
1.13029
1.13189
1.13236
1.13215
1.13327
1.13499
1.13459
1.13225
1.1308
1.13181
1.13445
1.13693
1.13942
1.14284
1.14666
1.15125
1.15569
1.16113
1.16662
1.16401
1.15627
1.15696
1.16292
1.16853
1.17434
1.17973
1.18484
1.18919
1.19345
1.19577
1.18804
1.16782
1.15165
1.15572
1.17371
1.1906
1.20259
1.2112
1.21726
1.22172
1.22505
1.22737
1.22881
1.22986
1.23051
1.23079
1.23077
1.23016
1.22907
1.22778
1.22665
1.22511
1.22323
1.22237
1.22174
1.21863
1.2161
1.21424
1.2116
1.20969
1.20637
1.20391
1.20163
1.19849
1.19569
1.19288
1.19059
1.18733
1.18377
1.17944
1.17471
1.16894
1.16354
1.15838
1.15564
1.15222
1.15162
1.14929
1.14228
1.13409
1.13563
1.13619
1.13065
1.12138
1.11554
1.11026
1.10314
1.09402
1.08769
1.08298
1.08068
1.07983
1.08279
1.08467
1.08993
1.08675
1.09203
1.09106
1.09257
1.09993
1.09962
1.10604
1.1067
1.11225
1.11363
1.11952
1.1209
1.12672
1.12955
1.13417
1.13828
1.1407
1.14383
1.14476
1.14477
1.14575
1.14652
1.14736
1.14799
1.14883
1.14905
1.14977
1.15228
1.1571
1.1602
1.16598
1.17001
1.17902
1.18529
1.19131
1.18741
1.18301
1.17199
1.1671
1.16013
1.18375
1.21289
1.21009
1.20968
1.14974
1.16875
1.1381
1.13172
1.1149
1.10845
1.1084
1.10934
1.11103
1.11221
1.11327
1.11428
1.11528
1.11579
1.11642
1.11716
1.1183
1.11943
1.12116
1.12252
1.12335
1.12393
1.12464
1.12622
1.12776
1.12836
1.12878
1.13054
1.13116
1.13116
1.13287
1.13346
1.13199
1.13376
1.13518
1.13505
1.13412
1.13562
1.13792
1.13917
1.13798
1.13686
1.13986
1.14454
1.14298
1.14018
1.14377
1.14741
1.1448
1.14305
1.14686
1.1437
1.14085
1.14796
1.15639
1.16564
1.17589
1.18468
1.1876
1.18604
1.18632
1.18725
1.19155
1.19751
1.19864
1.19364
1.19279
1.20126
1.20996
1.21202
1.21193
1.21756
1.22812
1.24308
1.25847
1.27006
1.27658
1.27964
1.2805
1.27997
1.27793
1.27435
1.27057
1.26806
1.26648
1.26597
1.26435
1.26231
1.25989
1.25607
1.25183
1.24946
1.24653
1.23904
1.23997
1.25147
1.24532
1.23954
1.24514
1.24379
1.25173
1.24488
1.25611
1.25096
1.25976
1.26052
1.26539
1.26712
1.27124
1.27275
1.27373
1.27445
1.27219
1.26831
1.26159
1.25778
1.25428
1.24988
1.24484
1.24607
1.23115
1.21744
1.22096
1.23176
1.22564
1.21015
1.18686
1.16018
1.13373
1.11845
1.10964
1.0994
1.10098
1.11181
1.12036
1.13394
1.12757
1.14081
1.13029
1.13173
1.15045
1.14137
1.1543
1.15163
1.16002
1.16023
1.16801
1.1681
1.1743
1.17804
1.17834
1.18512
1.18101
1.18466
1.18178
1.17342
1.16566
1.16474
1.15678
1.16292
1.18254
1.19743
1.21047
1.21346
1.22258
1.22982
1.25122
1.2549
1.26584
1.29327
1.32294
1.33204
1.32408
1.26431
1.2458
1.20286
1.25698
1.31565
1.34587
1.36127
1.14534
1.17431
1.11856
1.10327
1.10554
1.10416
1.10105
1.10156
1.10602
1.10716
1.10884
1.11213
1.11571
1.11928
1.12392
1.12926
1.13384
1.13692
1.13846
1.13883
1.13944
1.14042
1.14088
1.14087
1.14075
1.14058
1.14027
1.13983
1.13937
1.13983
1.13965
1.13789
1.13674
1.13863
1.13685
1.13618
1.13652
1.13757
1.13688
1.13628
1.13731
1.14073
1.14221
1.14215
1.14055
1.13847
1.14275
1.14952
1.14714
1.14511
1.15381
1.15846
1.15077
1.14771
1.15212
1.15887
1.15747
1.15385
1.17063
1.18164
1.18776
1.19762
1.18826
1.1842
1.19085
1.18644
1.1891
1.21003
1.22856
1.23645
1.24173
1.24899
1.25556
1.25798
1.25706
1.25312
1.2454
1.23618
1.22835
1.22184
1.21509
1.20734
1.19986
1.19473
1.19048
1.18754
1.18331
1.17961
1.17711
1.17282
1.16634
1.16057
1.15687
1.14799
1.14227
1.15087
1.14472
1.13858
1.14331
1.14605
1.14862
1.14111
1.15316
1.14511
1.15666
1.1586
1.17072
1.17472
1.18872
1.19779
1.2091
1.21932
1.23196
1.24949
1.2729
1.27819
1.27635
1.27482
1.2606
1.25503
1.26741
1.26563
1.25275
1.26107
1.27906
1.27353
1.23267
1.18026
1.1423
1.1213
1.10905
1.11372
1.11418
1.13361
1.13675
1.14624
1.14957
1.1628
1.1623
1.15432
1.1676
1.15732
1.16407
1.15881
1.16468
1.16633
1.17029
1.17707
1.17631
1.18543
1.17385
1.18282
1.17169
1.17374
1.17884
1.16953
1.1532
1.14368
1.11284
1.10513
1.12057
1.13971
1.18097
1.2075
1.24288
1.24219
1.27181
1.28721
1.25416
1.25814
1.30379
1.35104
1.35494
1.27193
1.25012
1.21894
1.3122
1.27809
1.30019
1.34038
1.13377
1.18959
1.14757
1.11343
1.1116
1.11126
1.10005
1.10013
1.11259
1.11932
1.12497
1.12812
1.13655
1.15265
1.15341
1.14676
1.14228
1.13933
1.13832
1.13708
1.13635
1.1354
1.1354
1.13588
1.1361
1.13614
1.13683
1.13765
1.13785
1.13709
1.13635
1.13441
1.13294
1.13212
1.13313
1.13416
1.13336
1.13365
1.1361
1.13922
1.14123
1.14182
1.13969
1.1375
1.13794
1.13992
1.1419
1.14332
1.13851
1.13728
1.14705
1.14918
1.15381
1.15845
1.15216
1.16551
1.15919
1.14166
1.16849
1.16905
1.16566
1.1874
1.17601
1.16556
1.17066
1.18026
1.20009
1.2207
1.23612
1.24292
1.2484
1.2494
1.24439
1.23883
1.23385
1.22803
1.22197
1.21714
1.21393
1.21025
1.20355
1.19544
1.18852
1.18426
1.18187
1.18124
1.17852
1.17499
1.17395
1.17335
1.16859
1.15932
1.1515
1.14581
1.13918
1.14143
1.13467
1.12372
1.12248
1.13878
1.14003
1.12813
1.13269
1.123
1.12501
1.11962
1.12052
1.11659
1.12151
1.1235
1.13172
1.13216
1.13942
1.13798
1.15994
1.21042
1.21672
1.19761
1.21278
1.21432
1.22818
1.26226
1.26597
1.24722
1.27767
1.3018
1.24542
1.17772
1.14096
1.12823
1.13478
1.13118
1.13306
1.15593
1.149
1.14618
1.14497
1.15504
1.15269
1.15124
1.15821
1.15269
1.16554
1.15985
1.16092
1.1699
1.15744
1.18187
1.17295
1.19553
1.17583
1.17138
1.15727
1.13595
1.14492
1.16987
1.15223
1.18185
1.13713
1.11125
1.10768
1.09455
1.13357
1.14821
1.20713
1.21545
1.24185
1.30891
1.27774
1.21164
1.21481
1.27778
1.32371
1.27255
1.2265
1.27721
1.32223
1.23844
1.20717
1.22755
1.12399
1.19214
1.18676
1.14554
1.12228
1.10778
1.08815
1.10352
1.12303
1.12469
1.13671
1.16548
1.15475
1.12019
1.13419
1.13525
1.13068
1.13271
1.13167
1.13469
1.13641
1.13959
1.14109
1.14287
1.14419
1.14528
1.146
1.14547
1.14349
1.1414
1.14003
1.13743
1.1366
1.13701
1.13828
1.13797
1.13895
1.14008
1.14064
1.14176
1.14251
1.14438
1.14548
1.14536
1.14527
1.1438
1.14328
1.14784
1.14625
1.13371
1.13091
1.1397
1.15061
1.15052
1.14832
1.16701
1.16339
1.15253
1.16719
1.1574
1.1553
1.16794
1.14992
1.15232
1.1737
1.18241
1.20538
1.23182
1.24242
1.2438
1.24052
1.2315
1.22338
1.21906
1.21691
1.21651
1.21469
1.21092
1.20487
1.19498
1.18154
1.16854
1.15752
1.15008
1.14809
1.14884
1.1479
1.14634
1.14632
1.14611
1.14354
1.1376
1.12973
1.11868
1.11095
1.11031
1.10935
1.10078
1.0983
1.11442
1.12959
1.10843
1.12666
1.11112
1.11861
1.11825
1.1192
1.11515
1.12337
1.12371
1.12616
1.13028
1.12919
1.12648
1.1268
1.11937
1.15108
1.16495
1.15238
1.14651
1.14947
1.16628
1.21155
1.23221
1.25308
1.28782
1.27266
1.1977
1.15803
1.14556
1.12558
1.12101
1.14199
1.17511
1.19028
1.17362
1.14535
1.16043
1.166
1.16783
1.17931
1.1704
1.16912
1.16591
1.14744
1.16283
1.13104
1.15919
1.1422
1.16729
1.17387
1.16045
1.16356
1.12816
1.0903
1.1316
1.0687
1.15833
1.15768
1.12815
1.12615
1.09072
1.12288
1.1135
1.16486
1.19092
1.1849
1.2732
1.31953
1.23725
1.17715
1.21047
1.26754
1.28607
1.22209
1.31121
1.27755
1.28269
1.25262
1.25939
1.11784
1.17847
1.20224
1.17755
1.16212
1.12855
1.08672
1.11076
1.13804
1.16201
1.17436
1.13501
1.14166
1.15007
1.12942
1.14601
1.13712
1.13693
1.14179
1.14178
1.14895
1.14547
1.14682
1.14427
1.14358
1.14311
1.14209
1.13997
1.13679
1.13518
1.13484
1.13408
1.13468
1.13514
1.13441
1.13445
1.13398
1.13282
1.13234
1.1345
1.13513
1.13856
1.14034
1.13819
1.13945
1.1442
1.14428
1.14051
1.13726
1.13555
1.13138
1.127
1.13393
1.14928
1.15703
1.15853
1.1516
1.15784
1.17039
1.1644
1.16101
1.15746
1.1514
1.16835
1.18104
1.1798
1.20294
1.2267
1.23044
1.22558
1.21527
1.20842
1.20928
1.21344
1.2179
1.21813
1.2105
1.19841
1.18348
1.16758
1.15529
1.14811
1.14267
1.14074
1.14226
1.14315
1.14326
1.14263
1.14119
1.13912
1.13645
1.13371
1.13003
1.12484
1.12209
1.11514
1.11055
1.10943
1.10988
1.10577
1.10815
1.09134
1.10181
1.08193
1.08867
1.08335
1.0835
1.07432
1.07995
1.09019
1.10421
1.11042
1.11937
1.12271
1.12963
1.12926
1.12336
1.13182
1.13477
1.12576
1.11361
1.11355
1.15397
1.15937
1.15034
1.21215
1.2832
1.27769
1.16438
1.13322
1.13969
1.14241
1.1499
1.15994
1.16991
1.17205
1.16476
1.17264
1.18787
1.18456
1.18477
1.19166
1.18003
1.19574
1.16624
1.18001
1.14662
1.15847
1.14992
1.13206
1.14333
1.11792
1.12066
1.14735
1.10669
1.13966
1.04563
1.09832
1.13236
1.11627
1.12425
1.0981
1.13155
1.1171
1.14556
1.1847
1.1411
1.18525
1.29755
1.2826
1.19529
1.18148
1.21169
1.28147
1.24769
1.30913
1.24383
1.29584
1.30145
1.31249
1.11569
1.16569
1.2066
1.20812
1.18846
1.12941
1.09204
1.12665
1.16249
1.16889
1.14982
1.13315
1.14107
1.14352
1.11897
1.13179
1.13233
1.12914
1.1404
1.13653
1.136
1.13966
1.13286
1.13496
1.1349
1.13411
1.13377
1.13342
1.1333
1.13437
1.1354
1.13662
1.1385
1.13959
1.14111
1.14175
1.14015
1.13948
1.13828
1.13776
1.13568
1.13876
1.14559
1.14647
1.14321
1.14101
1.13528
1.1328
1.13283
1.12855
1.12517
1.13095
1.14068
1.14248
1.14135
1.15042
1.16276
1.16928
1.16556
1.15694
1.15318
1.15569
1.16987
1.18475
1.17991
1.1834
1.21343
1.23032
1.22243
1.20826
1.20286
1.20891
1.21691
1.21946
1.2133
1.19817
1.17934
1.16402
1.15317
1.14754
1.14831
1.15137
1.15338
1.15638
1.15791
1.15695
1.15609
1.15388
1.15124
1.14978
1.14878
1.14703
1.14617
1.14672
1.14624
1.14696
1.14304
1.14264
1.15456
1.14731
1.12547
1.13123
1.11739
1.10111
1.10358
1.08769
1.08357
1.06183
1.06508
1.06442
1.07417
1.08437
1.09496
1.10506
1.11451
1.11881
1.12035
1.12473
1.13306
1.12018
1.12578
1.11923
1.102
1.13271
1.13672
1.11845
1.15624
1.25287
1.24648
1.17171
1.12774
1.12514
1.15725
1.17544
1.19605
1.19308
1.18965
1.16473
1.16492
1.17447
1.16275
1.18451
1.16239
1.20028
1.19159
1.20221
1.1646
1.13427
1.14581
1.1219
1.14259
1.12839
1.07915
1.09531
1.07143
1.13817
1.08885
1.06532
1.09328
1.09506
1.1087
1.10783
1.13963
1.13191
1.13955
1.186
1.13649
1.10718
1.20908
1.28272
1.22212
1.17492
1.1633
1.2375
1.27422
1.3176
1.23518
1.28768
1.30524
1.25934
1.11679
1.16264
1.21132
1.22939
1.20933
1.13358
1.09531
1.13127
1.16163
1.15784
1.14156
1.1399
1.13557
1.13419
1.1251
1.13678
1.13834
1.12237
1.14634
1.13948
1.13204
1.14284
1.13689
1.13569
1.13484
1.13441
1.13305
1.13417
1.13409
1.13395
1.13333
1.1332
1.13367
1.13668
1.13925
1.14188
1.14267
1.14116
1.13716
1.13731
1.13651
1.13403
1.14039
1.14747
1.15005
1.1533
1.14662
1.13508
1.1378
1.13947
1.13754
1.13562
1.13523
1.14099
1.15463
1.16599
1.16387
1.15289
1.14422
1.14505
1.15264
1.16842
1.18281
1.17969
1.17785
1.19768
1.22094
1.22075
1.20475
1.19723
1.20678
1.21706
1.21307
1.19687
1.17773
1.16024
1.14998
1.14945
1.15278
1.15642
1.15832
1.15584
1.1504
1.14507
1.13857
1.13265
1.12936
1.12682
1.12445
1.12377
1.12538
1.12579
1.12724
1.12745
1.12759
1.13043
1.13221
1.1338
1.13423
1.15382
1.14501
1.16179
1.15263
1.1468
1.1483
1.1152
1.11165
1.08944
1.08596
1.07051
1.05945
1.05922
1.07756
1.07287
1.08801
1.0978
1.11251
1.11229
1.12075
1.12807
1.11793
1.12234
1.12313
1.10574
1.12615
1.11964
1.10292
1.11975
1.20616
1.21998
1.18978
1.13666
1.13418
1.13422
1.17857
1.18836
1.19842
1.18084
1.14806
1.15411
1.13176
1.17337
1.16048
1.18978
1.1916
1.19856
1.19209
1.15202
1.15585
1.12046
1.11165
1.13733
1.10224
1.09169
1.05178
1.1033
1.10721
1.07207
1.05564
1.06443
1.08885
1.11677
1.14716
1.15145
1.12893
1.17375
1.1625
1.08614
1.11273
1.23184
1.24132
1.18446
1.14194
1.16963
1.25477
1.33924
1.25116
1.26686
1.32828
1.28691
1.11856
1.16438
1.22417
1.2574
1.22347
1.12345
1.10144
1.15007
1.1718
1.15735
1.14604
1.14486
1.13729
1.15001
1.14542
1.13923
1.15645
1.13406
1.13591
1.13821
1.13146
1.13223
1.13254
1.13106
1.13246
1.13257
1.13503
1.13632
1.13828
1.13934
1.13869
1.13726
1.13525
1.13434
1.13328
1.13541
1.13712
1.13795
1.13666
1.13899
1.14113
1.12814
1.12352
1.13297
1.14248
1.14553
1.14587
1.1376
1.13942
1.13965
1.13733
1.14345
1.14942
1.15139
1.15129
1.14821
1.14454
1.14496
1.15283
1.16511
1.17542
1.18559
1.18374
1.17319
1.19082
1.21924
1.21898
1.19987
1.18921
1.19886
1.2114
1.20822
1.18992
1.16837
1.15253
1.14664
1.15206
1.1609
1.16138
1.15386
1.14227
1.13038
1.12078
1.11467
1.10991
1.10668
1.10439
1.10338
1.10245
1.10093
1.09864
1.09654
1.09602
1.09507
1.09436
1.09428
1.09345
1.10027
1.09961
1.10255
1.11655
1.13207
1.15117
1.16045
1.17718
1.15644
1.15397
1.13864
1.13907
1.11906
1.09826
1.06908
1.06732
1.05703
1.0622
1.06786
1.07812
1.09765
1.10211
1.11373
1.12788
1.11557
1.12945
1.11537
1.12255
1.11577
1.12259
1.09669
1.1167
1.15951
1.20894
1.19017
1.16861
1.13643
1.15376
1.16154
1.16171
1.16427
1.13072
1.14557
1.12771
1.16842
1.16836
1.17996
1.18298
1.18593
1.19472
1.16014
1.15278
1.12733
1.09045
1.12455
1.10253
1.08308
1.06721
1.08284
1.10878
1.1117
1.05604
1.04341
1.07013
1.11159
1.14333
1.18025
1.13237
1.15095
1.19319
1.11566
1.06912
1.16678
1.233
1.21457
1.13916
1.10895
1.20515
1.31793
1.27889
1.27337
1.34011
1.35296
1.11967
1.16484
1.23716
1.27212
1.21728
1.12747
1.13287
1.16462
1.1599
1.14386
1.14341
1.14865
1.1401
1.15757
1.16812
1.14631
1.15163
1.1525
1.15377
1.15433
1.15397
1.15199
1.1505
1.14923
1.14622
1.14785
1.14862
1.15066
1.15083
1.14903
1.14634
1.14657
1.14724
1.14878
1.14932
1.14912
1.1484
1.14465
1.13947
1.13935
1.14804
1.14435
1.13315
1.13357
1.14323
1.14472
1.1425
1.13607
1.13785
1.14837
1.15265
1.15498
1.15173
1.14535
1.14418
1.14742
1.15463
1.16516
1.17625
1.18508
1.18984
1.195
1.19025
1.18167
1.19525
1.20977
1.20221
1.19066
1.1932
1.20516
1.20733
1.19147
1.16779
1.15015
1.14515
1.15153
1.15925
1.15604
1.14075
1.12528
1.11722
1.11593
1.11727
1.12036
1.1229
1.12568
1.12802
1.12945
1.13024
1.13041
1.12799
1.12437
1.11978
1.11761
1.11148
1.106
1.10104
1.09497
1.09928
1.09692
1.09733
1.10279
1.11121
1.11938
1.13573
1.14469
1.15296
1.14648
1.14933
1.14111
1.11978
1.0991
1.09273
1.06753
1.07195
1.05668
1.06625
1.06628
1.08346
1.08153
1.10834
1.107
1.12449
1.11279
1.12706
1.11627
1.11913
1.11886
1.10259
1.10583
1.15241
1.18241
1.1919
1.18456
1.18473
1.1933
1.17242
1.17704
1.14372
1.16849
1.15415
1.18989
1.1954
1.18001
1.17607
1.17015
1.17689
1.15126
1.13526
1.12471
1.08145
1.10919
1.1011
1.07941
1.08535
1.07079
1.08682
1.12369
1.09625
1.04215
1.06212
1.10713
1.13413
1.20093
1.15319
1.12597
1.19147
1.15038
1.08815
1.11827
1.20589
1.24246
1.15959
1.08428
1.15297
1.25848
1.27909
1.28817
1.35259
1.36101
1.11935
1.15657
1.22926
1.26723
1.19895
1.11367
1.12564
1.16774
1.16817
1.16221
1.15813
1.14889
1.14593
1.15459
1.16774
1.16134
1.15383
1.15918
1.16209
1.15678
1.15785
1.15831
1.15846
1.16032
1.15809
1.15566
1.1507
1.14607
1.14361
1.14069
1.13738
1.13641
1.13728
1.13987
1.14345
1.14561
1.14527
1.14097
1.13695
1.13215
1.13763
1.14191
1.13463
1.13166
1.1475
1.15626
1.1513
1.14557
1.14131
1.14891
1.15699
1.15416
1.14839
1.14734
1.15415
1.16489
1.17219
1.1798
1.18684
1.1922
1.19531
1.20095
1.2052
1.20634
1.20673
1.19427
1.17904
1.18155
1.19661
1.20383
1.19284
1.16859
1.14756
1.14141
1.14783
1.1536
1.15115
1.13787
1.12287
1.11907
1.1264
1.13296
1.13282
1.12969
1.12528
1.12197
1.12025
1.12075
1.12151
1.12255
1.12278
1.12287
1.12202
1.12373
1.12769
1.12674
1.12386
1.12497
1.11623
1.12322
1.12902
1.12687
1.13016
1.13622
1.12807
1.1363
1.14207
1.14198
1.14245
1.14249
1.1305
1.10218
1.11721
1.064
1.10738
1.05671
1.08214
1.06319
1.07533
1.06593
1.08762
1.08555
1.10478
1.10733
1.11527
1.11406
1.12267
1.11544
1.11651
1.10113
1.11907
1.13181
1.16365
1.17868
1.17673
1.21887
1.19718
1.21326
1.17722
1.20959
1.17433
1.18177
1.19126
1.16742
1.16375
1.14713
1.14395
1.13764
1.1119
1.11077
1.08419
1.09783
1.09541
1.07275
1.08959
1.07032
1.06693
1.11946
1.15005
1.0587
1.0552
1.11703
1.14653
1.20843
1.1877
1.12913
1.16662
1.16708
1.13289
1.08753
1.17399
1.25298
1.17934
1.09152
1.12239
1.18588
1.22517
1.27857
1.36257
1.35585
1.11881
1.1443
1.20523
1.24725
1.18453
1.11342
1.12326
1.16106
1.16366
1.15514
1.16248
1.15439
1.15274
1.15815
1.16012
1.16169
1.15885
1.16175
1.15789
1.15022
1.15315
1.15704
1.15744
1.15709
1.15819
1.15631
1.15517
1.153
1.15101
1.15093
1.15136
1.15037
1.14948
1.14714
1.14598
1.14558
1.14541
1.141
1.14212
1.13449
1.13667
1.13941
1.14138
1.13232
1.13638
1.15343
1.15448
1.15245
1.15336
1.14866
1.14862
1.14592
1.14483
1.15432
1.16432
1.17269
1.17709
1.18224
1.18877
1.19332
1.19644
1.19899
1.19993
1.19875
1.19728
1.19111
1.18655
1.18943
1.19569
1.1938
1.17623
1.15287
1.14075
1.14497
1.15138
1.15012
1.14112
1.12763
1.11924
1.12396
1.13211
1.12662
1.11262
1.10342
1.10064
1.10086
1.10042
1.10091
1.10579
1.11155
1.11251
1.1123
1.11059
1.1072
1.10143
1.10108
1.0999
1.10476
1.11514
1.12299
1.13327
1.13584
1.13948
1.15305
1.15168
1.13961
1.13985
1.13524
1.1363
1.14262
1.1459
1.10524
1.13923
1.06185
1.11818
1.06747
1.08783
1.07614
1.0812
1.06611
1.07637
1.08349
1.07533
1.10216
1.10233
1.09657
1.13105
1.09846
1.12148
1.10214
1.11253
1.10301
1.12641
1.14571
1.12446
1.18103
1.16632
1.19861
1.17615
1.20181
1.15941
1.15209
1.16879
1.14607
1.14524
1.12638
1.11331
1.1218
1.08994
1.10345
1.09154
1.08999
1.09433
1.08089
1.10343
1.07273
1.05015
1.10389
1.1688
1.11704
1.10112
1.17266
1.19086
1.2119
1.21655
1.16607
1.15273
1.17194
1.17466
1.07883
1.14834
1.26169
1.18543
1.11595
1.12984
1.11932
1.13427
1.23882
1.33909
1.32506
1.11903
1.13258
1.17502
1.2139
1.17649
1.13203
1.13969
1.16379
1.17424
1.16312
1.16809
1.16054
1.1457
1.15023
1.15445
1.15871
1.16293
1.1695
1.16284
1.15107
1.15119
1.15884
1.16799
1.17581
1.18021
1.18103
1.17623
1.17132
1.16594
1.15922
1.15487
1.15223
1.15307
1.15564
1.15674
1.15386
1.15296
1.14763
1.15104
1.14546
1.14458
1.14432
1.14112
1.14057
1.13279
1.14917
1.16001
1.1551
1.15779
1.15929
1.14502
1.13688
1.14217
1.15519
1.16747
1.1743
1.17658
1.1786
1.18453
1.18916
1.19089
1.19057
1.18805
1.1818
1.17385
1.1733
1.18589
1.1988
1.19842
1.18274
1.15923
1.14023
1.13709
1.14618
1.14918
1.14346
1.12994
1.11705
1.11355
1.12229
1.1244
1.11032
1.09783
1.09944
1.10914
1.11694
1.11762
1.11079
1.1099
1.11633
1.12129
1.12422
1.12645
1.13072
1.12938
1.11993
1.11732
1.11069
1.11426
1.13116
1.13686
1.14993
1.15252
1.15008
1.1552
1.14724
1.1393
1.13561
1.12104
1.11474
1.13179
1.10425
1.14571
1.08227
1.11372
1.0865
1.09746
1.08793
1.09486
1.08031
1.07807
1.09478
1.06375
1.09953
1.09305
1.08818
1.132
1.09587
1.12902
1.11148
1.12252
1.10751
1.11305
1.13761
1.10028
1.14028
1.13269
1.16029
1.1556
1.16479
1.13987
1.13296
1.13852
1.11891
1.1307
1.11593
1.10785
1.11917
1.08744
1.10503
1.09385
1.09603
1.10005
1.08907
1.1121
1.06173
1.04444
1.12104
1.17701
1.20526
1.22587
1.27102
1.24262
1.21079
1.23134
1.20637
1.1541
1.18418
1.21078
1.08619
1.14798
1.26419
1.18135
1.15399
1.1597
1.06783
1.05135
1.19401
1.30898
1.2961
1.12063
1.12489
1.14816
1.17654
1.15071
1.12674
1.1462
1.1679
1.17341
1.16367
1.16659
1.17145
1.15807
1.15614
1.16098
1.16469
1.16876
1.17702
1.17251
1.16007
1.15584
1.16409
1.1696
1.16605
1.16542
1.17231
1.17667
1.17582
1.17085
1.16079
1.15484
1.15278
1.15221
1.15179
1.1558
1.15596
1.15618
1.15691
1.14905
1.15294
1.13844
1.14626
1.14056
1.14433
1.13859
1.13772
1.15674
1.16249
1.15687
1.1587
1.1568
1.13821
1.13734
1.15636
1.16816
1.17163
1.17469
1.17592
1.17726
1.17904
1.18072
1.18053
1.17875
1.17692
1.1764
1.17637
1.1807
1.19024
1.19186
1.17673
1.1532
1.13678
1.13988
1.1492
1.14943
1.13872
1.12098
1.10929
1.11557
1.12955
1.12738
1.1102
1.09945
1.10464
1.11474
1.11776
1.11173
1.09781
1.09129
1.09732
1.1057
1.11164
1.11663
1.11588
1.11092
1.11099
1.11114
1.12073
1.13586
1.14545
1.14706
1.14505
1.14547
1.14123
1.13007
1.12856
1.12134
1.12362
1.11791
1.10278
1.11272
1.09527
1.12783
1.09892
1.10886
1.09226
1.10114
1.09222
1.10365
1.09436
1.08996
1.10131
1.07287
1.10149
1.08833
1.08977
1.12431
1.1022
1.13084
1.1165
1.13586
1.12218
1.12135
1.14356
1.10743
1.13346
1.12433
1.13508
1.14838
1.13988
1.1328
1.12404
1.12051
1.11732
1.12266
1.10553
1.11181
1.11348
1.09863
1.11779
1.1048
1.10638
1.10783
1.10449
1.11313
1.05696
1.06574
1.18523
1.20379
1.26372
1.33149
1.34064
1.2661
1.19362
1.22295
1.22774
1.15874
1.19764
1.23022
1.10509
1.17456
1.26101
1.17791
1.19203
1.17497
1.03218
1.01218
1.17176
1.27135
1.27299
1.1238
1.12279
1.13185
1.1484
1.12752
1.10481
1.12129
1.15944
1.17931
1.17727
1.17092
1.17162
1.16309
1.15914
1.16307
1.16538
1.16312
1.16263
1.16063
1.1546
1.15749
1.17554
1.18723
1.18272
1.17625
1.18161
1.19145
1.18766
1.17951
1.17073
1.16524
1.1637
1.16592
1.16578
1.16267
1.16349
1.155
1.16572
1.14652
1.15409
1.14579
1.14415
1.14699
1.13779
1.14434
1.13782
1.14385
1.15919
1.17203
1.16423
1.15379
1.14662
1.13828
1.15086
1.16912
1.17185
1.17053
1.1708
1.17283
1.17406
1.17393
1.17277
1.17145
1.17215
1.17994
1.19227
1.19746
1.19139
1.17883
1.16277
1.14536
1.13679
1.14369
1.15015
1.14713
1.13476
1.11741
1.10866
1.11622
1.12552
1.12193
1.11155
1.11047
1.12106
1.127
1.12572
1.11845
1.10729
1.10488
1.11253
1.11769
1.12246
1.1271
1.13149
1.12297
1.10971
1.10982
1.11732
1.13569
1.15212
1.15614
1.15248
1.13865
1.12579
1.10909
1.10124
1.09501
1.0926
1.09502
1.09245
1.09645
1.08801
1.10234
1.09725
1.10686
1.09476
1.09737
1.09174
1.10361
1.1058
1.10235
1.10551
1.09002
1.10382
1.09087
1.09429
1.11471
1.11189
1.12884
1.11766
1.14154
1.12914
1.13662
1.14706
1.12174
1.14115
1.12691
1.13551
1.14672
1.12765
1.14124
1.12442
1.11886
1.12642
1.11743
1.11476
1.12355
1.11375
1.1175
1.12507
1.11591
1.12008
1.11979
1.1189
1.09989
1.06927
1.11862
1.26858
1.25697
1.27984
1.35183
1.3507
1.25664
1.17041
1.21604
1.23703
1.1615
1.22162
1.24379
1.14451
1.21194
1.24538
1.19248
1.21101
1.14771
1.01996
1.03808
1.18098
1.24511
1.26779
1.12804
1.12459
1.12509
1.12998
1.11984
1.10655
1.11074
1.14103
1.16996
1.18069
1.18182
1.18441
1.17714
1.16756
1.16582
1.16805
1.16635
1.16323
1.16125
1.16039
1.16758
1.18862
1.20476
1.19699
1.18139
1.17543
1.18732
1.19663
1.19088
1.17762
1.1678
1.16586
1.1641
1.16631
1.16285
1.17065
1.16047
1.16258
1.15718
1.13858
1.14785
1.13884
1.15116
1.14986
1.1427
1.14258
1.14214
1.144
1.15516
1.17839
1.1668
1.14745
1.14378
1.15026
1.16477
1.17135
1.1702
1.16866
1.16859
1.16916
1.16966
1.17171
1.17442
1.17707
1.17886
1.18469
1.19381
1.1913
1.17595
1.15674
1.14202
1.14105
1.14968
1.15155
1.14258
1.1278
1.11334
1.10952
1.1183
1.1264
1.1243
1.11713
1.11345
1.11571
1.11438
1.11427
1.1182
1.1168
1.11313
1.11211
1.11424
1.12139
1.13041
1.12348
1.11132
1.10545
1.11435
1.13581
1.15492
1.15918
1.14747
1.13101
1.1138
1.10093
1.08932
1.08609
1.08568
1.08417
1.08238
1.08406
1.08774
1.0886
1.08681
1.08594
1.09549
1.09478
1.09384
1.09125
1.09777
1.10765
1.11031
1.11258
1.10453
1.10695
1.09876
1.09986
1.10628
1.11674
1.11866
1.12208
1.13676
1.12938
1.1441
1.14106
1.13607
1.14469
1.13059
1.14587
1.14226
1.13375
1.14922
1.12687
1.13266
1.13704
1.12174
1.13168
1.13317
1.12679
1.1368
1.13615
1.13161
1.12843
1.14077
1.11632
1.08679
1.10413
1.18827
1.33257
1.31198
1.2721
1.29954
1.3158
1.22693
1.14173
1.21523
1.23711
1.14981
1.23563
1.24413
1.18633
1.24073
1.22165
1.21921
1.19281
1.10956
1.04896
1.12174
1.20909
1.24992
1.29268
1.13298
1.12918
1.12591
1.12184
1.12233
1.13223
1.14749
1.16617
1.18005
1.18344
1.18523
1.19258
1.19223
1.18499
1.17973
1.17927
1.17852
1.17687
1.1751
1.17574
1.17844
1.18667
1.20038
1.19323
1.17231
1.17333
1.1959
1.2044
1.18764
1.17467
1.16988
1.16974
1.17185
1.17158
1.16804
1.16589
1.17081
1.15391
1.16514
1.14915
1.14325
1.14231
1.13411
1.14304
1.14604
1.1396
1.1357
1.14871
1.14709
1.15897
1.18042
1.1602
1.14307
1.15024
1.1644
1.17193
1.17032
1.16702
1.1658
1.16653
1.16803
1.16956
1.17238
1.17867
1.18495
1.1848
1.18068
1.1753
1.16316
1.14881
1.1399
1.14472
1.15648
1.1538
1.14
1.12267
1.1089
1.10635
1.11341
1.11991
1.12148
1.1181
1.1165
1.11941
1.11581
1.11214
1.11888
1.11511
1.10541
1.10027
1.10004
1.10694
1.11606
1.11715
1.1016
1.09798
1.11702
1.14229
1.15904
1.15775
1.138
1.11269
1.09294
1.08128
1.07718
1.07888
1.08126
1.08843
1.09124
1.09306
1.09199
1.09757
1.09309
1.08941
1.09234
1.09471
1.09335
1.09314
1.09751
1.10896
1.11544
1.12061
1.1181
1.11492
1.1145
1.10729
1.11025
1.11925
1.11482
1.1291
1.12628
1.13316
1.1422
1.13656
1.14772
1.14238
1.14349
1.15203
1.14375
1.14932
1.15341
1.13479
1.14894
1.14469
1.13298
1.15294
1.14529
1.14321
1.15776
1.14694
1.14587
1.14625
1.15366
1.10276
1.10226
1.15911
1.27179
1.36398
1.32629
1.27137
1.26987
1.29132
1.22149
1.14579
1.22576
1.24143
1.15002
1.2432
1.23114
1.21565
1.2446
1.21939
1.2389
1.14296
1.09737
1.11875
1.21266
1.22404
1.27499
1.32306
1.13842
1.13541
1.13088
1.12405
1.12175
1.13532
1.16144
1.18495
1.19422
1.18795
1.18088
1.18405
1.18664
1.18314
1.17657
1.17434
1.17263
1.16961
1.17209
1.17239
1.16839
1.17424
1.1865
1.17931
1.1678
1.18485
1.2107
1.21611
1.20531
1.19109
1.18711
1.18135
1.17702
1.17149
1.17711
1.17211
1.17083
1.16493
1.15094
1.1605
1.15359
1.1481
1.14988
1.1394
1.13966
1.15019
1.1361
1.13096
1.14911
1.14806
1.16826
1.17823
1.15228
1.14654
1.16128
1.17177
1.17184
1.1678
1.16514
1.16461
1.16632
1.17058
1.1753
1.17799
1.18213
1.18277
1.17518
1.1633
1.1522
1.14272
1.13801
1.14601
1.15525
1.14962
1.13344
1.11529
1.10325
1.10131
1.10483
1.10891
1.10925
1.1102
1.11474
1.12322
1.12068
1.1166
1.12293
1.12078
1.11245
1.11252