/*--------------------------------*- C++ -*----------------------------------*\
| =========                 |                                                 |
| \\      /  F ield         | OpenFOAM: The Open Source CFD Toolbox           |
|  \\    /   O peration     | Version:  dev                                   |
|   \\  /    A nd           | Web:      http://www.openfoam.org               |
|    \\/     M anipulation  |                                                 |
\*---------------------------------------------------------------------------*/
FoamFile
{
    version     2.0;
    format      ascii;
    class       volScalarField;
    object      rho_0;
    location    "9.126";
}
// * * * * * * * * * * * * * * * * * * * * * * * * * * * * * * * * * * * * * //

dimensions      [1 -3 0 0 0 0 0];

internalField   nonuniform List<scalar> 
12225
(
1.14233
1.15198
1.1536
1.15274
1.15282
1.1507
1.14948
1.14814
1.14615
1.14656
1.14363
1.1461
1.14234
1.14607
1.14213
1.14411
1.14393
1.13067
1.14857
1.16222
1.16439
1.16601
1.1665
1.16785
1.16535
1.16795
1.16217
1.16798
1.15863
1.16777
1.15705
1.16527
1.15864
1.15789
1.15307
1.14086
1.1486
1.16226
1.16402
1.16656
1.16717
1.16961
1.16808
1.1713
1.16786
1.17171
1.1677
1.17053
1.1673
1.16884
1.16868
1.16414
1.16264
1.15474
1.14839
1.16153
1.16449
1.16454
1.16746
1.16632
1.1688
1.16679
1.16956
1.16672
1.17009
1.16737
1.16958
1.16775
1.17085
1.16916
1.16726
1.16484
1.14991
1.16005
1.16551
1.16283
1.16736
1.16414
1.16782
1.16461
1.16813
1.16495
1.16857
1.16629
1.16894
1.16782
1.16959
1.172
1.16962
1.17161
1.14997
1.15887
1.16601
1.16206
1.16733
1.16341
1.16766
1.16408
1.16795
1.16427
1.16811
1.16546
1.16853
1.16732
1.16783
1.1691
1.17075
1.16943
1.15062
1.15778
1.16589
1.16057
1.16623
1.16203
1.16692
1.16303
1.1673
1.1636
1.16711
1.16455
1.16719
1.16654
1.16706
1.16771
1.168
1.17023
1.15063
1.15679
1.16555
1.15954
1.16527
1.16095
1.16655
1.16222
1.16715
1.16277
1.1667
1.16339
1.16683
1.16519
1.16708
1.16681
1.1687
1.16969
1.15033
1.15643
1.16499
1.15912
1.16419
1.16032
1.16563
1.16169
1.16602
1.16208
1.16501
1.16272
1.16557
1.1642
1.1665
1.16579
1.16828
1.16828
1.14949
1.15575
1.16368
1.15868
1.16302
1.15984
1.16386
1.16096
1.16345
1.16083
1.16232
1.16145
1.16297
1.16254
1.164
1.16394
1.16471
1.16581
1.14796
1.15537
1.16099
1.15725
1.16084
1.15851
1.16088
1.15919
1.16027
1.15834
1.15934
1.15896
1.15981
1.1598
1.16027
1.16084
1.16106
1.16195
1.14604
1.15433
1.15808
1.15579
1.15798
1.15624
1.15758
1.156
1.15588
1.1552
1.15516
1.15539
1.15535
1.15555
1.15577
1.1559
1.15623
1.157
1.14476
1.1531
1.15466
1.15313
1.15413
1.15282
1.15272
1.15165
1.15105
1.1506
1.15003
1.14975
1.14962
1.14972
1.14962
1.15017
1.15005
1.15057
1.14227
1.15077
1.15101
1.15006
1.14966
1.14822
1.14739
1.14641
1.14543
1.14459
1.14382
1.14373
1.14319
1.14299
1.1428
1.14315
1.14356
1.14389
1.13958
1.14753
1.14682
1.14565
1.14439
1.14293
1.14165
1.14033
1.13921
1.13824
1.1373
1.13668
1.13598
1.13592
1.13558
1.13572
1.13571
1.13619
1.13648
1.14338
1.14206
1.14047
1.13874
1.13703
1.13537
1.13383
1.13252
1.13136
1.13031
1.12966
1.12904
1.12877
1.12834
1.1285
1.12854
1.12888
1.13223
1.13817
1.13652
1.13456
1.13276
1.131
1.12928
1.12766
1.12627
1.12505
1.12405
1.12337
1.12284
1.12261
1.12249
1.12259
1.12273
1.12308
1.12785
1.1325
1.13095
1.12919
1.12765
1.12597
1.12449
1.12311
1.122
1.12116
1.12051
1.12014
1.11992
1.11991
1.12009
1.12037
1.12095
1.12145
1.12353
1.12779
1.12658
1.1252
1.12412
1.12292
1.12202
1.1211
1.12066
1.12033
1.12028
1.12051
1.12072
1.12123
1.12182
1.12253
1.12343
1.12428
1.11984
1.12398
1.12326
1.12236
1.12189
1.1214
1.12115
1.12091
1.12113
1.12138
1.1221
1.12293
1.1238
1.1248
1.12587
1.12702
1.12825
1.12955
1.11683
1.12078
1.12075
1.12058
1.12085
1.121
1.12141
1.12183
1.12251
1.1233
1.12448
1.12576
1.12724
1.12861
1.13025
1.1317
1.13338
1.13497
1.11414
1.11822
1.11879
1.11923
1.12014
1.12099
1.12204
1.12301
1.12419
1.12541
1.12694
1.12855
1.13033
1.13214
1.13406
1.13592
1.13788
1.1398
1.11203
1.11651
1.11759
1.1186
1.11998
1.12128
1.12273
1.12417
1.12585
1.12752
1.12954
1.13144
1.13356
1.13566
1.13776
1.13995
1.14204
1.14431
1.11081
1.11513
1.11643
1.11782
1.11948
1.12121
1.12316
1.12511
1.12716
1.12922
1.13142
1.13358
1.13583
1.1381
1.14039
1.14268
1.14504
1.14738
1.10971
1.11436
1.11609
1.11779
1.11982
1.12181
1.12378
1.12585
1.12791
1.13007
1.13236
1.13474
1.13723
1.13973
1.14228
1.14479
1.14736
1.14985
1.10871
1.11363
1.11563
1.11753
1.11958
1.12159
1.12367
1.12581
1.12811
1.13052
1.13312
1.13582
1.13857
1.14132
1.14402
1.1467
1.14937
1.15197
1.10839
1.11341
1.11542
1.11733
1.11956
1.12176
1.12413
1.12652
1.12909
1.13169
1.13447
1.13723
1.14017
1.14304
1.14603
1.14894
1.15195
1.15494
1.10788
1.11293
1.11502
1.11712
1.11955
1.12208
1.12491
1.12776
1.13081
1.13375
1.13684
1.13981
1.143
1.14601
1.14929
1.15234
1.1556
1.1585
1.10777
1.11303
1.11516
1.11737
1.11987
1.12258
1.12543
1.1282
1.13105
1.13375
1.13654
1.13915
1.14172
1.1441
1.14657
1.14879
1.15121
1.15276
1.10707
1.11089
1.11224
1.1136
1.11508
1.11652
1.11784
1.11912
1.12047
1.12179
1.1232
1.12461
1.12607
1.12756
1.12911
1.13066
1.13215
1.13354
1.1725
1.19966
1.18905
1.179
1.16707
1.16555
1.16187
1.1622
1.16208
1.16156
1.16127
1.16043
1.15976
1.15836
1.15685
1.15528
1.15387
1.15226
1.15097
1.14993
1.14902
1.14795
1.14672
1.14609
1.1458
1.14519
1.1445
1.14439
1.14403
1.14337
1.14319
1.14282
1.14219
1.14227
1.14221
1.14171
1.14132
1.14182
1.14224
1.1418
1.14105
1.14129
1.14193
1.14121
1.14017
1.14058
1.14099
1.13892
1.13542
1.1334
1.13386
1.1355
1.13676
1.13814
1.14047
1.14313
1.14648
1.14962
1.15374
1.15676
1.1512
1.14264
1.14351
1.1485
1.15266
1.15706
1.16096
1.1645
1.16733
1.17
1.16959
1.1582
1.13635
1.12209
1.1284
1.14589
1.1606
1.17055
1.17752
1.18226
1.18562
1.18804
1.18958
1.19035
1.19083
1.19102
1.19092
1.19065
1.1899
1.18879
1.18758
1.18659
1.18531
1.18383
1.18329
1.18298
1.18056
1.17867
1.17738
1.17547
1.17421
1.17177
1.16997
1.16857
1.1662
1.16424
1.16226
1.16082
1.15847
1.15585
1.1525
1.14878
1.14408
1.13979
1.13578
1.1342
1.132
1.13267
1.13179
1.12627
1.11957
1.1226
1.12479
1.12089
1.11331
1.10915
1.10544
1.09984
1.0922
1.08713
1.0836
1.08242
1.08256
1.08637
1.08896
1.09467
1.09183
1.09742
1.09644
1.09804
1.10524
1.10463
1.11067
1.11084
1.11575
1.11641
1.12139
1.12177
1.1265
1.12803
1.13128
1.1338
1.13461
1.13605
1.13528
1.1338
1.13335
1.13275
1.13238
1.13179
1.13142
1.13054
1.13032
1.13196
1.13579
1.13788
1.14247
1.14544
1.15316
1.15781
1.16207
1.15665
1.1509
1.13944
1.1338
1.12649
1.14816
1.17532
1.17155
1.16992
1.1744
1.19366
1.16144
1.1548
1.1379
1.13136
1.13129
1.13221
1.13394
1.13508
1.1361
1.13709
1.13804
1.1385
1.13909
1.13979
1.14087
1.14191
1.1435
1.14463
1.14522
1.14555
1.14604
1.14738
1.14856
1.14875
1.14886
1.15024
1.15031
1.14992
1.15119
1.15099
1.14907
1.15053
1.15114
1.15011
1.14869
1.14986
1.15136
1.15136
1.14907
1.14773
1.15064
1.1536
1.15001
1.14718
1.15067
1.1521
1.14765
1.14592
1.14824
1.14296
1.14077
1.14832
1.15563
1.16374
1.17243
1.17875
1.17883
1.17558
1.17478
1.17476
1.1783
1.18237
1.1807
1.17437
1.17379
1.18147
1.18766
1.18742
1.18656
1.19182
1.20144
1.21507
1.22876
1.23844
1.24332
1.24516
1.24505
1.24373
1.24103
1.23699
1.23289
1.23002
1.2281
1.2273
1.22552
1.22342
1.22101
1.21737
1.21342
1.21137
1.20896
1.20208
1.20309
1.2147
1.2098
1.20461
1.21044
1.20952
1.21804
1.21225
1.22356
1.21962
1.22858
1.23015
1.23538
1.23782
1.24234
1.24449
1.24606
1.24747
1.24592
1.24275
1.23672
1.23402
1.23185
1.22884
1.22539
1.22823
1.21482
1.20273
1.20796
1.22038
1.216
1.20237
1.18086
1.15594
1.13112
1.11727
1.10968
1.10056
1.10338
1.11515
1.12446
1.13841
1.13237
1.14585
1.13512
1.13687
1.15533
1.14578
1.15843
1.15518
1.16292
1.16236
1.16919
1.16817
1.1733
1.17553
1.17449
1.17955
1.17379
1.17582
1.17083
1.16085
1.15207
1.14991
1.14144
1.14752
1.16602
1.17923
1.19021
1.1917
1.19944
1.20581
1.22548
1.22756
1.23803
1.264
1.29081
1.29672
1.28646
1.22797
1.20931
1.1671
1.21812
1.27559
1.30392
1.3174
1.16934
1.1997
1.14237
1.126
1.12856
1.1272
1.12371
1.12422
1.12897
1.13017
1.13195
1.13529
1.13898
1.14284
1.14746
1.15257
1.15686
1.15963
1.16086
1.16094
1.16131
1.162
1.16213
1.16179
1.16131
1.16077
1.16007
1.15919
1.15833
1.15833
1.15748
1.1551
1.15367
1.15491
1.15228
1.15116
1.15099
1.15122
1.14959
1.14843
1.14915
1.15176
1.15188
1.15046
1.14766
1.1456
1.15018
1.15464
1.14993
1.14888
1.15724
1.15775
1.14799
1.14598
1.15048
1.15484
1.1508
1.14898
1.16615
1.17401
1.17854
1.18457
1.17255
1.16964
1.1746
1.16833
1.17233
1.19296
1.208
1.21298
1.2168
1.22282
1.22779
1.22865
1.22647
1.22149
1.213
1.2033
1.19508
1.18818
1.18109
1.17315
1.16556
1.16021
1.15572
1.15255
1.14825
1.14451
1.14198
1.13777
1.13161
1.12635
1.12329
1.11498
1.1096
1.11861
1.11356
1.10818
1.11339
1.11586
1.11932
1.11283
1.12535
1.1185
1.13051
1.1334
1.14613
1.15104
1.16545
1.17516
1.18677
1.19764
1.21062
1.22882
1.25215
1.25686
1.25594
1.25618
1.24286
1.23854
1.25178
1.25079
1.23951
1.2499
1.26914
1.26487
1.22601
1.17563
1.1393
1.11965
1.10862
1.11458
1.11619
1.13654
1.14021
1.15016
1.15389
1.1673
1.16665
1.15867
1.17171
1.16096
1.16731
1.16148
1.16686
1.16761
1.17085
1.17632
1.17449
1.18182
1.16889
1.17647
1.16369
1.16514
1.16808
1.15595
1.13845
1.12656
1.09554
1.08917
1.10481
1.12425
1.16373
1.18843
1.22064
1.21848
1.24692
1.25837
1.22518
1.23154
1.27678
1.31983
1.31885
1.2359
1.21524
1.18153
1.27263
1.24146
1.26417
1.3037
1.15684
1.21488
1.17346
1.13768
1.13489
1.13393
1.12189
1.12262
1.13581
1.14252
1.14849
1.1524
1.16062
1.17541
1.17604
1.16896
1.16408
1.16096
1.15973
1.15834
1.15741
1.15628
1.15608
1.15631
1.15623
1.15595
1.15632
1.15672
1.15638
1.15507
1.15374
1.1512
1.14925
1.14803
1.1486
1.14885
1.14732
1.14726
1.1493
1.15161
1.15252
1.15174
1.14838
1.14566
1.14573
1.14695
1.1478
1.14708
1.14104
1.14125
1.15024
1.15035
1.15427
1.15593
1.14995
1.16171
1.14951
1.13654
1.16425
1.15896
1.15771
1.17639
1.15978
1.15081
1.15681
1.1664
1.18513
1.20316
1.21563
1.22013
1.2239
1.22316
1.21689
1.21051
1.20472
1.19809
1.19131
1.18585
1.18204
1.17788
1.17092
1.16273
1.15578
1.15137
1.14861
1.14757
1.14458
1.14088
1.13961
1.1389
1.13431
1.1255
1.11822
1.11316
1.10699
1.10997
1.10385
1.09371
1.09284
1.10849
1.10998
1.09978
1.10425
1.09593
1.09853
1.09395
1.09586
1.09296
1.09849
1.10139
1.11044
1.11166
1.11996
1.1198
1.14278
1.1942
1.20001
1.18147
1.19782
1.20058
1.21566
1.25041
1.25398
1.23643
1.2684
1.29314
1.23781
1.17225
1.13727
1.12603
1.13393
1.13136
1.13443
1.15808
1.15143
1.14907
1.14822
1.1585
1.15596
1.15459
1.1612
1.15549
1.16795
1.16135
1.16232
1.16992
1.15725
1.18065
1.17062
1.19132
1.16893
1.16345
1.14703
1.12597
1.13644
1.15763
1.14063
1.16475
1.11627
1.0919
1.08826
1.07739
1.11604
1.13081
1.18736
1.1926
1.22015
1.28176
1.24472
1.18215
1.19025
1.25245
1.29252
1.23602
1.19298
1.23737
1.28482
1.20049
1.17112
1.19141
1.14629
1.21572
1.21273
1.17098
1.1467
1.13041
1.10914
1.12592
1.14632
1.14859
1.16116
1.18822
1.17673
1.14166
1.15514
1.15679
1.15181
1.15382
1.15281
1.15573
1.15752
1.16038
1.16164
1.16304
1.16402
1.16476
1.16502
1.16393
1.16138
1.15883
1.15692
1.15383
1.15266
1.15268
1.15331
1.15237
1.15284
1.15328
1.15317
1.1536
1.15368
1.15474
1.15471
1.15357
1.15234
1.14985
1.14925
1.15245
1.14712
1.13375
1.1335
1.14311
1.15111
1.14805
1.14794
1.16459
1.15521
1.14635
1.15962
1.14628
1.1464
1.15543
1.13534
1.1415
1.1618
1.16919
1.19208
1.21508
1.22194
1.22112
1.21628
1.2062
1.19748
1.19247
1.18946
1.18812
1.1855
1.1812
1.17491
1.16504
1.15167
1.13862
1.12753
1.11984
1.11737
1.11774
1.11651
1.11469
1.11459
1.1145
1.11209
1.10618
1.09857
1.088
1.08028
1.08045
1.08005
1.07155
1.06898
1.08626
1.10219
1.08258
1.10038
1.08672
1.09413
1.09449
1.09605
1.09305
1.10164
1.10201
1.10456
1.10896
1.10837
1.10619
1.10774
1.10282
1.13558
1.14919
1.13788
1.13348
1.13825
1.15692
1.20189
1.22319
1.24628
1.28091
1.26402
1.18966
1.15332
1.1425
1.12354
1.12034
1.14275
1.17661
1.19186
1.17489
1.14731
1.16316
1.1684
1.17027
1.18118
1.1714
1.16983
1.16522
1.14687
1.16081
1.12872
1.15652
1.13826
1.1636
1.16679
1.15227
1.1527
1.11318
1.07888
1.11717
1.05865
1.14807
1.13819
1.10787
1.10451
1.07051
1.10244
1.09374
1.1455
1.16717
1.16448
1.25264
1.2874
1.20148
1.14793
1.18538
1.2409
1.24985
1.18627
1.27256
1.24299
1.24171
1.20991
1.21552
1.13942
1.20014
1.22644
1.20332
1.18745
1.15056
1.10746
1.13341
1.16198
1.18622
1.19658
1.15454
1.16231
1.17237
1.1494
1.16677
1.15773
1.15718
1.1625
1.16199
1.16892
1.16516
1.16596
1.16313
1.16215
1.16133
1.15992
1.15736
1.15381
1.15194
1.15121
1.15005
1.15025
1.15008
1.14874
1.1482
1.14698
1.14517
1.14435
1.14594
1.14602
1.14878
1.14901
1.14602
1.14734
1.15095
1.14898
1.14384
1.13981
1.13683
1.13138
1.12793
1.13677
1.15081
1.15505
1.15325
1.14632
1.15414
1.1633
1.15388
1.14992
1.14506
1.14034
1.15811
1.16744
1.16625
1.19024
1.21021
1.21027
1.20361
1.19243
1.18523
1.18547
1.18866
1.19208
1.19147
1.18345
1.17131
1.15642
1.14039
1.12752
1.11945
1.11309
1.1102
1.11104
1.11167
1.11149
1.11073
1.10938
1.1074
1.10471
1.10185
1.09795
1.09218
1.08919
1.0826
1.07858
1.07717
1.07681
1.07508
1.08108
1.06302
1.07625
1.05753
1.06484
1.06132
1.06233
1.0552
1.06144
1.07211
1.08587
1.09203
1.10068
1.10381
1.11078
1.11051
1.10671
1.11627
1.11906
1.11128
1.10004
1.10217
1.14542
1.15071
1.14353
1.20851
1.27869
1.26847
1.15606
1.12877
1.13718
1.14077
1.14906
1.15976
1.17013
1.17243
1.16568
1.1741
1.18905
1.1851
1.18547
1.19137
1.17976
1.19363
1.16318
1.17592
1.14159
1.15416
1.14262
1.1251
1.13438
1.10753
1.11312
1.13485
1.0933
1.12101
1.0276
1.08863
1.11629
1.09718
1.10344
1.07647
1.10916
1.09384
1.12445
1.15869
1.11703
1.16921
1.27434
1.2463
1.16051
1.15313
1.18773
1.24977
1.2091
1.27142
1.20943
1.25745
1.2595
1.27396
1.13658
1.1866
1.22963
1.23343
1.21249
1.14953
1.11227
1.14872
1.18504
1.18955
1.16853
1.15376
1.16094
1.16296
1.13853
1.15112
1.15213
1.14775
1.16001
1.15562
1.15419
1.15833
1.1509
1.15289
1.15254
1.15147
1.15084
1.15026
1.1499
1.15067
1.15132
1.15219
1.15361
1.15419
1.15515
1.15493
1.15258
1.15129
1.14943
1.14814
1.14579
1.14919
1.15485
1.15355
1.14905
1.14565
1.13913
1.13658
1.13522
1.1296
1.12687
1.13351
1.14148
1.14072
1.13986
1.14976
1.16026
1.1632
1.15649
1.14704
1.14384
1.14741
1.16141
1.1727
1.16576
1.17177
1.20135
1.21311
1.20198
1.18747
1.18234
1.18786
1.19469
1.19617
1.18936
1.1741
1.15532
1.13974
1.12821
1.12157
1.12125
1.12349
1.12497
1.12769
1.12939
1.1287
1.12794
1.12583
1.12326
1.12169
1.12037
1.11846
1.11726
1.11748
1.11697
1.11712
1.11301
1.11249
1.12465
1.11617
1.0964
1.09911
1.08852
1.07152
1.07504
1.06246
1.05932
1.03948
1.04387
1.0457
1.05765
1.06853
1.07852
1.08955
1.09861
1.10265
1.10359
1.10918
1.1176
1.10481
1.11139
1.10531
1.09095
1.12363
1.12686
1.11192
1.15431
1.25067
1.2379
1.1631
1.12215
1.12255
1.15594
1.17451
1.19508
1.19179
1.1879
1.16297
1.16432
1.17337
1.16223
1.18272
1.16096
1.19864
1.18745
1.19566
1.1548
1.12674
1.13723
1.1131
1.13327
1.11285
1.06551
1.08263
1.061
1.12342
1.06514
1.04887
1.07831
1.07712
1.08901
1.08548
1.11589
1.10581
1.11676
1.15921
1.10624
1.08765
1.19423
1.25341
1.18521
1.14281
1.13851
1.21332
1.23883
1.27748
1.1985
1.25285
1.26455
1.22436
1.13672
1.18304
1.23398
1.25417
1.23189
1.15172
1.11465
1.15256
1.18222
1.17678
1.16076
1.15997
1.15443
1.15385
1.14557
1.15584
1.15865
1.14093
1.16439
1.15782
1.14974
1.16032
1.15435
1.15278
1.15173
1.15105
1.1495
1.15037
1.14993
1.14935
1.14829
1.14777
1.148
1.15072
1.15277
1.15473
1.1546
1.15205
1.14759
1.14736
1.14558
1.14352
1.15041
1.15611
1.15718
1.15832
1.14894
1.13798
1.14136
1.14136
1.13812
1.1356
1.13546
1.14218
1.15537
1.1633
1.15717
1.14458
1.13664
1.13853
1.1469
1.16207
1.17281
1.16714
1.16682
1.1876
1.20744
1.20295
1.18598
1.17932
1.18868
1.19729
1.19183
1.17534
1.15641
1.13889
1.12802
1.12638
1.12866
1.13175
1.13378
1.13186
1.12707
1.12234
1.11636
1.1107
1.1076
1.10505
1.10265
1.10206
1.10389
1.10452
1.1061
1.10671
1.1071
1.11023
1.11203
1.11307
1.11496
1.13369
1.12163
1.1373
1.12568
1.11752
1.11828
1.0869
1.0841
1.06207
1.0594
1.0465
1.03883
1.0426
1.06192
1.05907
1.07479
1.08466
1.0988
1.09791
1.10715
1.11337
1.10349
1.1092
1.10909
1.09484
1.11606
1.10944
1.09499
1.11771
1.2041
1.21342
1.18084
1.12961
1.12976
1.13201
1.17725
1.18611
1.19531
1.17608
1.14431
1.1505
1.12984
1.17105
1.15675
1.18646
1.18602
1.19158
1.18088
1.14068
1.14386
1.10699
1.10206
1.12327
1.08442
1.07385
1.0366
1.09024
1.08526
1.04742
1.03688
1.0469
1.07021
1.09479
1.12273
1.12186
1.1036
1.14845
1.12826
1.05731
1.09753
1.21085
1.20659
1.14798
1.11329
1.15062
1.22827
1.30121
1.21074
1.23254
1.28727
1.24049
1.13709
1.18349
1.24623
1.28078
1.24255
1.14005
1.12189
1.17111
1.19015
1.17444
1.16422
1.16352
1.15528
1.16947
1.16634
1.15733
1.17491
1.15333
1.15355
1.15606
1.14937
1.1493
1.14954
1.14779
1.14886
1.14878
1.15103
1.15197
1.15354
1.15404
1.1528
1.15081
1.14836
1.14703
1.14571
1.14756
1.14861
1.14864
1.14693
1.14892
1.14865
1.13442
1.13194
1.14228
1.15014
1.15143
1.14963
1.14071
1.14269
1.14141
1.13898
1.14518
1.14974
1.15015
1.14857
1.14415
1.13998
1.14078
1.14894
1.16028
1.16917
1.17677
1.17189
1.16311
1.18342
1.20839
1.20299
1.1828
1.1736
1.18359
1.19441
1.18938
1.17047
1.1491
1.13335
1.12696
1.13145
1.13957
1.14022
1.13344
1.12249
1.11063
1.10065
1.09391
1.08838
1.08431
1.08139
1.07989
1.07858
1.07697
1.07514
1.07358
1.07383
1.07338
1.07364
1.07478
1.07498
1.08294
1.08204
1.0876
1.10066
1.11758
1.1345
1.1425
1.15728
1.13258
1.12949
1.11312
1.11323
1.0932
1.07425
1.0481
1.04928
1.04122
1.04776
1.05557
1.06649
1.08601
1.08987
1.10255
1.11431
1.10294
1.11647
1.10288
1.11113
1.10534
1.11178
1.08768
1.11285
1.15711
1.20353
1.18182
1.16016
1.12994
1.14942
1.15664
1.15682
1.15773
1.1249
1.13987
1.12304
1.16417
1.16134
1.17324
1.175
1.17752
1.18272
1.14635
1.13883
1.11027
1.07765
1.11058
1.08358
1.06421
1.04748
1.06708
1.09012
1.08379
1.02852
1.02282
1.05061
1.08964
1.11963
1.14834
1.10211
1.12694
1.16001
1.07912
1.04462
1.14871
1.20355
1.17519
1.10502
1.08861
1.18536
1.28969
1.23911
1.23642
1.30132
1.30675
1.13643
1.18132
1.25576
1.29117
1.23214
1.14245
1.15112
1.18295
1.17639
1.1609
1.16101
1.16542
1.15705
1.17417
1.18623
1.16417
1.16759
1.1702
1.17139
1.17123
1.17108
1.16882
1.16703
1.16555
1.16209
1.16342
1.16363
1.16517
1.16476
1.16244
1.15949
1.15955
1.1599
1.161
1.16101
1.16024
1.15871
1.15405
1.14868
1.1493
1.15695
1.15041
1.13917
1.14129
1.15013
1.1495
1.14594
1.13923
1.14219
1.15198
1.15443
1.15529
1.15039
1.14349
1.14249
1.14566
1.15272
1.16263
1.17248
1.17965
1.18313
1.18632
1.17936
1.17206
1.1868
1.19835
1.18817
1.17686
1.17997
1.19099
1.19125
1.17423
1.15059
1.13324
1.12805
1.1338
1.14099
1.13802
1.1234
1.10796
1.09883
1.09609
1.09636
1.09879
1.10095
1.10343
1.10543
1.10648
1.10694
1.10678
1.10411
1.10032
1.0959
1.09353
1.08703
1.08192
1.0775
1.07251
1.07814
1.0757
1.07731
1.08525
1.09541
1.10436
1.12349
1.12905
1.13619
1.12824
1.13123
1.12083
1.0991
1.07919
1.07196
1.0514
1.05291
1.04303
1.05167
1.055
1.07156
1.07151
1.09769
1.09589
1.11292
1.10087
1.11555
1.10483
1.10849
1.10765
1.09284
1.1004
1.14876
1.17701
1.1844
1.17638
1.17768
1.18471
1.16397
1.16753
1.1353
1.16033
1.14638
1.1834
1.18451
1.16872
1.16473
1.15903
1.1636
1.13548
1.12002
1.10621
1.06491
1.09382
1.081
1.05967
1.06328
1.05036
1.06907
1.0993
1.06092
1.01592
1.0406
1.08266
1.10876
1.16907
1.11696
1.09938
1.16272
1.11271
1.05261
1.09836
1.18084
1.20433
1.12102
1.05709
1.13383
1.24043
1.24983
1.25345
1.31463
1.32354
1.13412
1.16986
1.2424
1.28094
1.21068
1.12643
1.13948
1.18263
1.18355
1.1781
1.17478
1.16413
1.16168
1.16934
1.18178
1.17716
1.16895
1.17436
1.17678
1.17075
1.17198
1.17269
1.17284
1.17455
1.17216
1.16921
1.16378
1.1588
1.15607
1.15283
1.14929
1.14817
1.1489
1.1513
1.15446
1.15595
1.15475
1.14974
1.14511
1.14072
1.14656
1.14898
1.14032
1.13925
1.15562
1.16129
1.15426
1.14796
1.14443
1.15277
1.15902
1.15416
1.14788
1.14719
1.15429
1.16411
1.17028
1.17712
1.18313
1.18729
1.18961
1.19452
1.19744
1.1975
1.19616
1.18192
1.16731
1.17116
1.1856
1.19068
1.17794
1.15336
1.13288
1.12693
1.13287
1.13813
1.13562
1.12257
1.10747
1.10262
1.10849
1.11482
1.11561
1.11349
1.10962
1.10663
1.10526
1.10587
1.10618
1.10659
1.1065
1.10627
1.1052
1.10724
1.1113
1.10978
1.10663
1.10632
1.0971
1.10299
1.10761
1.10636
1.11074
1.11602
1.11068
1.1217
1.12819
1.12787
1.1285
1.12651
1.11157
1.08657
1.09718
1.05065
1.08855
1.04165
1.06668
1.04881
1.06216
1.0543
1.0771
1.07455
1.0955
1.09557
1.10439
1.10339
1.11055
1.10507
1.10461
1.09132
1.11163
1.12618
1.15758
1.17066
1.17076
1.21062
1.18754
1.20186
1.16661
1.19819
1.16181
1.17257
1.1786
1.1536
1.14949
1.1326
1.12969
1.12029
1.09487
1.09183
1.06452
1.0796
1.0734
1.05086
1.06571
1.04579
1.0474
1.09866
1.1133
1.02319
1.02824
1.0868
1.11453
1.17651
1.14758
1.09436
1.1389
1.13194
1.09117
1.06342
1.15097
1.21698
1.14111
1.05722
1.09681
1.1738
1.21247
1.25333
1.33005
1.32509
1.1316
1.15498
1.21371
1.25566
1.19479
1.12735
1.13766
1.17412
1.17729
1.16809
1.17641
1.16836
1.16546
1.17063
1.17188
1.17432
1.17244
1.17542
1.17065
1.16242
1.16536
1.16969
1.17042
1.17017
1.1713
1.16922
1.1678
1.16527
1.16292
1.1625
1.1625
1.1611
1.15981
1.15713
1.15572
1.15495
1.15408
1.14931
1.1496
1.14159
1.14432
1.14658
1.14694
1.13763
1.14396
1.15994
1.15833
1.15574
1.15566
1.1504
1.15027
1.14692
1.14626
1.1559
1.1649
1.17206
1.17554
1.18028
1.18596
1.1894
1.19158
1.19322
1.19315
1.19108
1.18865
1.18177
1.17706
1.1798
1.18531
1.18195
1.16331
1.14013
1.12863
1.13271
1.13858
1.13698
1.12808
1.11465
1.10594
1.10985
1.11788
1.11373
1.101
1.09168
1.08765
1.0867
1.08593
1.08718
1.09218
1.09721
1.09759
1.09708
1.09507
1.09142
1.08653
1.08756
1.08655
1.09277
1.10151
1.10791
1.11812
1.11861
1.12278
1.13738
1.13397
1.1246
1.12685
1.12284
1.12612
1.13287
1.13111
1.09184
1.12162
1.04709
1.10449
1.05102
1.07378
1.06092
1.06641
1.05216
1.06485
1.06997
1.06613
1.09073
1.09072
1.08674
1.11811
1.08714
1.10915
1.08989
1.10109
1.09348
1.11873
1.13528
1.11735
1.17356
1.15721
1.18806
1.16465
1.18862
1.14416
1.14054
1.15516
1.13072
1.12863
1.10834
1.09656
1.10218
1.07066
1.08354
1.06916
1.06814
1.07039
1.05654
1.07631
1.04526
1.02731
1.08146
1.13664
1.07202
1.06106
1.13132
1.14981
1.17838
1.17624
1.12344
1.12147
1.13753
1.13109
1.0491
1.12334
1.22675
1.15005
1.0762
1.09505
1.10842
1.13299
1.22309
1.3141
1.30094
1.12985
1.1413
1.18052
1.2179
1.18322
1.14336
1.15264
1.17567
1.18623
1.17488
1.17939
1.17285
1.15689
1.16108
1.16568
1.17011
1.17491
1.18172
1.17457
1.1624
1.16237
1.17053
1.17995
1.18744
1.19155
1.1923
1.18721
1.18197
1.17606
1.16885
1.1644
1.1618
1.16268
1.16501
1.16554
1.16219
1.16073
1.15524
1.15833
1.15177
1.15126
1.15026
1.14671
1.14517
1.13862
1.15643
1.16449
1.15829
1.16112
1.16035
1.14478
1.13827
1.14495
1.15774
1.16873
1.17412
1.17539
1.17717
1.1827
1.1863
1.18697
1.1857
1.18215
1.17496
1.16686
1.16713
1.17993
1.19127
1.1887
1.1717
1.14814
1.12998
1.12745
1.13622
1.13852
1.13249
1.11922
1.10659
1.10263
1.11058
1.1129
1.09972
1.08737
1.08779
1.09593
1.10304
1.1041
1.09909
1.0998
1.10623
1.11013
1.11219
1.1135
1.11743
1.11597
1.1066
1.10392
1.09692
1.10008
1.11674
1.12384
1.13741
1.14025
1.14056
1.14676
1.13714
1.13044
1.12554
1.11201
1.10928
1.12406
1.09472
1.13413
1.06569
1.10315
1.07158
1.08428
1.07421
1.08024
1.06497
1.06508
1.08016
1.05175
1.08777
1.08058
1.07738
1.11932
1.08277
1.11617
1.09769
1.10834
1.09352
1.10204
1.12366
1.08826
1.13012
1.12154
1.14922
1.142
1.15008
1.12307
1.11769
1.12214
1.10179
1.11257
1.09583
1.0879
1.09678
1.06438
1.08184
1.06885
1.0708
1.07308
1.06167
1.08223
1.0324
1.01813
1.09008
1.14437
1.1583
1.17361
1.2194
1.19641
1.1772
1.19403
1.16171
1.11933
1.14869
1.16765
1.05121
1.11653
1.23007
1.14836
1.11116
1.12142
1.05523
1.04885
1.18066
1.28939
1.2743
1.12943
1.13212
1.15236
1.17835
1.15349
1.1318
1.15273
1.17622
1.18254
1.17378
1.17581
1.18126
1.16837
1.16593
1.1709
1.1744
1.17796
1.18544
1.18079
1.16882
1.1655
1.17479
1.17992
1.17538
1.17462
1.1819
1.18637
1.185
1.17932
1.1689
1.16309
1.16111
1.16044
1.16008
1.1639
1.1636
1.16361
1.1633
1.15566
1.15848
1.14407
1.15233
1.14579
1.14937
1.14271
1.14389
1.16308
1.16593
1.1594
1.16124
1.157
1.13817
1.14046
1.15995
1.16963
1.17195
1.17437
1.17494
1.17582
1.17706
1.17803
1.17704
1.17462
1.17233
1.17133
1.17094
1.17548
1.18466
1.1846
1.16785
1.1441
1.1287
1.13245
1.14137
1.14076
1.1296
1.11213
1.10103
1.10718
1.12064
1.11811
1.10056
1.08916
1.09353
1.10364
1.10731
1.10211
1.08902
1.08308
1.08902
1.09727
1.10289
1.10749
1.1066
1.10281
1.10367
1.10367
1.11133
1.12407
1.13353
1.13531
1.13591
1.13879
1.13605
1.12826
1.1266
1.11916
1.12088
1.11204
1.09702
1.10792
1.08877
1.1228
1.08619
1.09914
1.08055
1.09032
1.08079
1.09123
1.07956
1.07604
1.08719
1.05828
1.0888
1.0749
1.07762
1.1119
1.08773
1.11737
1.10238
1.1207
1.10598
1.10681
1.12718
1.09115
1.11891
1.10888
1.12118
1.13183
1.12253
1.11332
1.10478
1.10138
1.09671
1.10112
1.08291
1.08864
1.08901
1.07263
1.09131
1.07615
1.07758
1.07795
1.07333
1.08166
1.02467
1.03444
1.14368
1.16237
1.22163
1.28109
1.28918
1.22126
1.16143
1.18835
1.18486
1.12241
1.15984
1.18843
1.06385
1.13623
1.22841
1.14354
1.15117
1.14477
1.01511
0.995016
1.15268
1.25452
1.25156
1.13046
1.12851
1.13544
1.14953
1.12994
1.10866
1.12436
1.16369
1.18562
1.18536
1.17893
1.17937
1.17136
1.16695
1.17043
1.17246
1.16962
1.16828
1.16645
1.16166
1.1665
1.18582
1.19696
1.19114
1.18428
1.18996
1.19968
1.19517
1.18659
1.17765
1.17232
1.17105
1.17322
1.17268
1.16939
1.1697
1.16166
1.17138
1.15164
1.16022
1.15054
1.14973
1.15152
1.14236
1.14889
1.14204
1.14984
1.16539
1.17568
1.16521
1.1547
1.14738
1.1404
1.15498
1.1718
1.17245
1.17063
1.17074
1.17237
1.17299
1.17225
1.17054
1.16888
1.16971
1.1778
1.18944
1.19292
1.18563
1.1726
1.15624
1.13898
1.13112
1.13835
1.14435
1.14074
1.12799
1.11071
1.10242
1.1103
1.11955
1.11539
1.10422
1.10283
1.11364
1.12049
1.11937
1.11088
1.09826
1.09557
1.10407
1.11002
1.11458
1.11864
1.12387
1.11637
1.10441
1.10358
1.10949
1.12726
1.14422
1.14992
1.14827
1.13713
1.12554
1.10917
1.10165
1.09432
1.09245
1.09376
1.08858
1.09272
1.08205
1.09991
1.09067
1.09954
1.08497
1.08849
1.08212
1.09411
1.09316
1.0888
1.0918
1.07467
1.09042
1.07637
1.08098
1.10242
1.09694
1.11488
1.10283
1.12635
1.11268
1.12012
1.12941
1.10306
1.12337
1.10843
1.11769
1.12702
1.10769
1.11924
1.10136
1.09626
1.10212
1.09288
1.08897
1.09649
1.08604
1.08826
1.09523
1.08439
1.08851
1.08589
1.08516
1.06797
1.03337
1.08113
1.22054
1.205
1.24139
1.31449
1.30731
1.2167
1.14059
1.18104
1.19593
1.1273
1.1825
1.20355
1.09756
1.17043
1.21622
1.1539
1.1787
1.12879
0.992381
0.998152
1.15302
1.2241
1.24065
1.13237
1.12849
1.12784
1.13066
1.12267
1.11299
1.11763
1.14643
1.17459
1.18547
1.18743
1.19068
1.184
1.17422
1.17193
1.17397
1.17228
1.16912
1.16732
1.16743
1.17563
1.19653
1.21136
1.20173
1.18565
1.18131
1.19462
1.20326
1.19593
1.18239
1.17321
1.17168
1.17007
1.17214
1.16891
1.17626
1.16545
1.16809
1.16066
1.14326
1.15307
1.144
1.15686
1.15378
1.14656
1.14673
1.14641
1.14901
1.16175
1.18252
1.16671
1.14812
1.14636
1.15398
1.16818
1.17308
1.17101
1.16926
1.16901
1.16924
1.16944
1.17125
1.17362
1.17581
1.1775
1.18368
1.19211
1.18779
1.17129
1.15203
1.13807
1.13782
1.14624
1.1474
1.13806
1.12334
1.10928
1.10606
1.11528
1.12315
1.12013
1.11231
1.10896
1.11215
1.11191
1.11228
1.11447
1.1119
1.10922
1.1103
1.1136
1.12064
1.12875
1.12205
1.11116
1.10427
1.11058
1.12925
1.14815
1.15458
1.14635
1.13338
1.11734
1.10442
1.09102
1.08649
1.08447
1.08122
1.07915
1.07997
1.08381
1.08206
1.08229
1.08107
1.09061
1.08706
1.08594
1.08249
1.08964
1.09751
1.09818
1.09916
1.08938
1.09285
1.08301
1.08529
1.09289
1.10164
1.10434
1.10612
1.12153
1.11252
1.12677
1.12302
1.11603
1.12491
1.1099
1.12496
1.1201
1.11074
1.12474
1.1014
1.10675
1.1094
1.0941
1.10238
1.10293
1.09571
1.10401
1.10293
1.09668
1.0939
1.10313
1.08144
1.05218
1.0634
1.14317
1.28338
1.25805
1.23137
1.2679
1.27741
1.18665
1.10926
1.17822
1.1958
1.11672
1.19813
1.20799
1.13952
1.20197
1.19265
1.17945
1.17382
1.09166
1.00516
1.06535
1.17804
1.22154
1.25973
1.13482
1.13099
1.12733
1.12211
1.12335
1.13611
1.1539
1.17215
1.18416
1.18579
1.18686
1.19438
1.19488
1.18824
1.18276
1.18214
1.18148
1.17997
1.17881
1.17979
1.1822
1.19032
1.2032
1.19429
1.17453
1.17943
1.20286
1.20883
1.19075
1.1785
1.17446
1.17466
1.17678
1.17615
1.17254
1.17089
1.17477
1.15829
1.16969
1.15227
1.1474
1.14619
1.13863
1.14834
1.15008
1.14291
1.14052
1.15371
1.15173
1.16559
1.18373
1.15998
1.14524
1.15468
1.16851
1.17454
1.1719
1.16843
1.16723
1.16786
1.16912
1.17045
1.17328
1.17954
1.18511
1.18415
1.17982
1.17394
1.16106
1.14666
1.13857
1.14416
1.15534
1.15152
1.13736
1.12033
1.10725
1.10563
1.11349
1.12013
1.12123
1.11714
1.11506
1.11742
1.11386
1.11097
1.11735
1.11326
1.1043
1.09938
1.09891
1.10519
1.11392
1.11567
1.10167
1.09782
1.11445
1.13809
1.15702
1.15974
1.14261
1.11841
1.09739
1.08376
1.07653
1.07617
1.07732
1.08282
1.08448
1.08542
1.08526
1.08978
1.08524
1.08245
1.08647
1.08775
1.08589
1.0852
1.08954
1.1001
1.10466
1.10791
1.10331
1.10008
1.098
1.09163
1.0948
1.10377
1.09899
1.11224
1.11023
1.11524
1.12412
1.11739
1.12668
1.12127
1.12035
1.12882
1.11925
1.12371
1.12669
1.10696
1.12002
1.11458
1.10219
1.12022
1.11202
1.10879
1.12169
1.11089
1.10817
1.10766
1.11523
1.06479
1.06181
1.11314
1.21871
1.3132
1.27502
1.22555
1.23145
1.25352
1.17862
1.10321
1.18407
1.19863
1.11248
1.20622
1.1989
1.17252
1.21222
1.18459
1.20484
1.13338
1.07074
1.06152
1.15717
1.19502
1.24169
1.29108
1.13779
1.13537
1.13083
1.12327
1.12017
1.13432
1.1624
1.18737
1.19673
1.1896
1.1818
1.18431
1.1867
1.18337
1.177
1.17478
1.17303
1.17065
1.1738
1.17361
1.17006
1.17739
1.18835
1.18032
1.17213
1.19199
1.21653
1.21916
1.20737
1.19349
1.18996
1.18423
1.18001
1.17524
1.18099
1.17548
1.17442
1.16759
1.15474
1.16483
1.15685
1.15201
1.15334
1.14277
1.14478
1.15396
1.13849
1.13628
1.15457
1.15349
1.1748
1.18032
1.15314
1.15074
1.16651
1.17561
1.17442
1.17005
1.16748
1.16706
1.16888
1.17312
1.17756
1.1801
1.18401
1.18364
1.17508
1.16305
1.15208
1.14287
1.13899
1.14762
1.1561
1.14923
1.13257
1.11476
1.10346
1.10244
1.10671
1.11124
1.11205
1.11286
1.11719
1.12446
1.12121
1.11767
1.12436
1.12154
1.11255
1.11286
1.11933
1.13186
1.14206
1.1285
1.1075