/*--------------------------------*- C++ -*----------------------------------*\
| =========                 |                                                 |
| \\      /  F ield         | OpenFOAM: The Open Source CFD Toolbox           |
|  \\    /   O peration     | Version:  dev                                   |
|   \\  /    A nd           | Web:      http://www.openfoam.org               |
|    \\/     M anipulation  |                                                 |
\*---------------------------------------------------------------------------*/
FoamFile
{
    version     2.0;
    format      ascii;
    class       volScalarField;
    object      T;
    location    "9.126";
}
// * * * * * * * * * * * * * * * * * * * * * * * * * * * * * * * * * * * * * //

dimensions      [0 0 0 1 0 0 0];

internalField   nonuniform List<scalar> 
12225
(
306.615
304.278
303.516
303.246
302.647
302.55
302.216
301.938
301.908
301.313
301.638
300.639
301.268
300.002
300.721
299.711
298.894
298.242
305.318
301.852
300.864
299.969
299.229
298.281
298.232
297.006
297.868
295.994
297.847
295.254
297.604
295.16
296.723
296.387
296.968
298.014
305.276
301.796
300.918
299.814
299.022
297.831
297.494
296.144
296.386
295.018
295.537
294.525
294.997
294.294
294.184
294.927
294.906
296.458
305.249
301.954
300.746
300.3
298.92
298.653
297.306
297.257
295.969
296.251
294.934
295.303
294.382
294.591
293.576
293.813
294.106
295.215
304.77
302.262
300.409
300.661
298.88
299.14
297.496
297.737
296.283
296.629
295.278
295.525
294.535
294.582
293.836
293.219
293.771
293.854
304.628
302.454
300.18
300.75
298.794
299.221
297.451
297.779
296.25
296.72
295.34
295.686
294.617
294.738
294.366
294.052
293.703
294.317
304.308
302.566
300.058
300.979
298.946
299.431
297.519
297.927
296.304
296.789
295.509
295.853
294.914
294.928
294.664
294.527
294.48
294.144
304.121
302.621
299.974
301.049
299.033
299.531
297.475
297.983
296.222
296.879
295.524
296.054
294.956
295.227
294.665
294.753
294.37
294.254
304.002
302.497
299.936
300.949
299.13
299.499
297.57
297.96
296.392
296.933
295.86
296.127
295.215
295.42
294.783
294.986
294.444
294.595
303.956
302.388
300.038
300.818
299.197
299.389
297.826
297.957
296.875
297.099
296.391
296.331
295.775
295.76
295.361
295.413
295.296
295.144
303.995
302.113
300.388
300.855
299.445
299.434
298.306
298.161
297.443
297.51
296.939
296.786
296.417
296.327
296.188
296.09
296.126
296.024
303.998
301.899
300.659
300.778
299.744
299.611
298.764
298.625
298.22
297.995
297.717
297.442
297.319
297.196
297.142
297.163
297.183
297.121
303.692
301.561
300.889
300.852
300.139
299.934
299.479
299.242
298.975
298.743
298.619
298.502
298.422
298.358
298.404
298.336
298.487
298.502
303.475
301.305
300.962
300.813
300.48
300.355
300.1
299.894
299.758
299.665
299.625
299.491
299.554
299.591
299.685
299.693
299.73
299.822
303.001
300.98
300.887
300.839
300.753
300.678
300.58
300.505
300.452
300.434
300.486
300.531
300.663
300.697
300.868
300.96
301.132
301.209
302.266
300.51
300.592
300.691
300.76
300.804
300.852
300.905
300.95
301.038
301.165
301.262
301.417
301.548
301.776
301.897
302.089
302.239
301.415
299.868
300.053
300.277
300.411
300.527
300.652
300.797
300.935
301.092
301.258
301.422
301.608
301.774
301.963
302.142
302.349
302.534
300.287
299.005
299.183
299.391
299.509
299.666
299.797
299.947
300.079
300.205
300.346
300.483
300.642
300.8
300.961
301.14
301.277
301.466
299.278
297.98
298.074
298.214
298.264
298.351
298.393
298.485
298.508
298.563
298.603
298.633
298.729
298.799
298.898
299.009
299.103
299.24
298.344
297.028
297.003
297.05
296.981
296.935
296.86
296.832
296.737
296.695
296.589
296.509
296.474
296.461
296.471
296.504
296.547
296.603
297.565
296.246
296.058
295.942
295.718
295.549
295.35
295.197
295.033
294.893
294.714
294.562
294.41
294.333
294.232
294.218
294.176
294.186
296.967
295.61
295.29
295.041
294.686
294.373
294.047
293.789
293.532
293.32
293.083
292.88
292.683
292.525
292.382
292.287
292.201
292.149
296.513
295.045
294.613
294.24
293.794
293.394
292.994
292.646
292.289
291.99
291.655
291.406
291.148
290.941
290.773
290.618
290.518
290.398
296.069
294.639
294.172
293.718
293.217
292.729
292.228
291.775
291.348
290.974
290.62
290.322
290.052
289.819
289.62
289.455
289.302
289.18
295.834
294.297
293.719
293.196
292.616
292.077
291.591
291.128
290.72
290.337
289.975
289.636
289.318
289.04
288.786
288.578
288.381
288.232
295.721
294.108
293.466
292.9
292.321
291.789
291.282
290.813
290.353
289.918
289.486
289.079
288.704
288.373
288.092
287.848
287.637
287.463
295.557
293.91
293.267
292.705
292.084
291.507
290.929
290.4
289.877
289.403
288.932
288.517
288.104
287.753
287.406
287.112
286.822
286.562
295.53
293.88
293.216
292.605
291.935
291.275
290.584
289.942
289.307
288.753
288.211
287.752
287.288
286.908
286.503
286.185
285.844
285.618
295.489
293.782
293.105
292.468
291.783
291.081
290.394
289.783
289.215
288.727
288.271
287.91
287.604
287.389
287.187
287.078
286.949
287.05
295.696
294.407
293.941
293.516
293.089
292.719
292.425
292.194
292.004
291.863
291.749
291.685
291.649
291.647
291.665
291.713
291.802
291.918
277.672
271.327
273.665
275.995
278.797
279.156
280.043
279.968
279.992
280.112
280.18
280.379
280.542
280.88
281.252
281.648
282.009
282.426
282.778
283.076
283.345
283.658
284.029
284.273
284.434
284.677
284.965
285.125
285.343
285.662
285.882
286.147
286.511
286.722
286.951
287.312
287.696
287.872
288.03
288.399
288.917
289.231
289.377
289.833
290.478
290.799
290.981
291.719
292.967
293.999
294.398
294.383
294.414
294.442
294.234
293.924
293.405
292.924
292.182
291.415
292.664
295.198
295.57
294.57
293.642
292.632
291.701
290.809
290.062
289.289
288.947
290.997
296.154
300.383
299.35
294.729
290.453
287.395
285.123
283.408
282.011
280.817
279.79
278.902
278.043
277.206
276.397
275.596
274.872
274.206
273.542
272.805
272.13
271.507
270.646
269.727
269.358
268.878
268.265
267.853
267.314
267.136
266.814
266.517
266.467
266.408
266.415
266.376
266.614
266.985
267.591
268.35
269.401
270.422
271.432
271.91
272.571
272.579
272.998
274.528
276.343
275.771
275.395
276.458
278.408
279.484
280.406
281.771
283.637
284.769
285.458
285.501
285.16
283.835
282.841
281.043
281.514
279.898
280.008
279.606
277.854
278.187
276.971
277.338
276.62
277.054
276.468
277.064
276.601
276.877
276.685
276.55
276.721
276.588
276.834
277.125
277.022
276.807
276.443
276.029
275.48
275.038
274.461
273.495
272.067
271.167
269.792
268.994
267.262
266.379
265.774
267.594
269.748
273.628
276.261
279.559
275.739
271.026
273.699
275.904
277.327
272.817
280.161
281.744
285.996
287.666
287.684
287.446
287.019
286.729
286.472
286.233
286.005
285.907
285.785
285.643
285.407
285.183
284.82
284.563
284.454
284.423
284.375
284.123
283.899
283.929
284.025
283.804
283.891
284.155
284.011
284.171
284.871
284.781
284.8
285.234
285.894
285.962
285.851
286.026
286.833
287.645
287.434
286.822
287.793
289.1
288.804
288.504
289.795
290.878
290.561
292.024
293.421
292.266
290.791
289.136
287.246
285.737
285.651
286.615
287.124
287.46
286.945
286.016
286.217
287.846
288.451
286.775
285.015
284.786
285.027
283.887
281.569
278.244
274.854
272.307
270.821
270.016
269.616
269.446
269.532
269.88
270.2
270.196
269.935
269.379
269.003
268.657
268.339
268.271
268.252
267.797
267.431
268.032
266.805
263.327
263.602
263.819
261.644
260.965
258.388
258.933
255.794
256.081
253.589
252.796
251.244
250.388
249.124
248.43
247.897
247.465
247.66
248.208
249.353
249.957
250.522
251.284
252.181
251.802
254.702
257.388
256.428
253.925
254.886
257.793
262.487
268.108
273.902
277.147
278.821
280.87
279.919
276.664
274.07
270.378
271.571
268.178
270.543
270.189
265.907
268.273
265.647
266.776
265.486
266.182
265.245
266.121
265.642
265.725
266.557
265.857
267.513
267.286
268.389
270.582
272.513
272.691
274.404
272.696
267.836
264.13
260.895
259.896
257.678
255.992
251.582
250.959
249.084
244.285
239.464
238.666
241.131
253.768
258.925
269.735
259.766
249.937
246.155
245.233
278.693
271.816
285.36
289.317
288.725
289.09
289.912
289.785
288.628
288.342
287.922
287.092
286.199
285.316
284.178
282.879
281.793
281.094
280.788
280.782
280.731
280.603
280.617
280.761
280.95
281.171
281.442
281.769
282.119
282.262
282.586
283.323
283.933
283.806
284.619
285.181
285.511
285.683
286.315
286.947
287.185
286.841
287.003
287.572
288.545
289.657
289.166
288.068
289.286
290.427
288.871
288.349
290.923
292.343
291.868
290.817
291.797
293.337
289.75
287.628
286.712
284.901
287.658
289.141
287.995
289.494
289.236
284.582
280.588
279.047
278.069
276.617
275.282
274.813
275.023
275.84
277.444
279.346
280.897
282.099
283.302
284.695
285.958
286.623
287.018
287.032
287.294
287.374
287.103
287.219
287.831
288.239
288.104
289.254
289.605
286.346
286.789
287.253
285.009
283.303
281.677
282.596
278.764
279.902
276.36
275.216
271.757
270.293
266.638
264.209
261.389
258.902
255.998
252.205
247.396
246.227
246.455
246.638
249.305
250.292
247.707
247.885
250.233
248.347
244.57
245.305
253.08
263.921
272.251
276.866
279.414
277.717
277.07
271.816
270.6
267.97
266.874
263.611
263.602
265.423
262.523
265.101
263.946
265.652
264.95
265.314
265.252
264.606
265.698
264.564
268.07
266.854
270.119
270.245
269.522
271.931
275.908
278.15
285.672
287.388
283.075
277.932
267.816
261.574
253.843
253.806
247.861
244.991
251.728
251.419
243.277
235.578
235.892
252.493
258.259
266.383
249.026
257.459
254.947
249.162
281.985
268.75
278.588
287.131
287.606
287.699
290.638
290.625
287.378
285.664
284.245
283.472
281.399
277.499
277.356
279.01
280.157
280.946
281.266
281.657
281.935
282.281
282.404
282.426
282.526
282.693
282.713
282.72
282.902
283.341
283.797
284.575
285.258
285.801
285.906
286.027
286.633
286.986
286.811
286.491
286.468
286.823
287.879
288.97
289.413
289.477
289.552
289.779
291.606
292.541
290.666
290.746
290.206
289.668
291.881
289.165
291.35
296.433
290.227
290.654
292.059
287.255
290.542
293.636
292.819
290.862
286.44
281.939
278.707
277.425
276.408
276.34
277.556
278.853
279.977
281.246
282.528
283.476
283.991
284.556
285.779
287.288
288.452
288.932
288.893
288.357
288.273
288.328
287.718
286.947
287.154
288.444
289.368
289.745
290.357
288.707
289.348
291.097
290.375
285.212
283.925
285.998
283.975
285.616
284.358
285.044
284.198
284.653
282.926
282.011
279.606
279.195
277.163
277.306
271.887
260.407
258.935
262.954
259.557
259.118
256.067
248.996
248.081
251.6
245.341
240.487
251.018
265.063
273.179
275.806
273.742
274.117
273.16
267.275
268.443
268.733
268.713
266.156
266.588
266.929
265.451
266.973
264.412
266.214
266.605
265.293
268.994
264.308
267.23
263.075
268.36
270.193
274.21
279.954
278.217
272.53
276.822
269.813
280.21
286.441
286.995
290.034
279.627
275.687
261.938
259.949
254.391
241.439
247.565
261.549
261.562
249.508
241.85
252.736
263.579
254.535
247.426
265.959
274.801
272.196
285.04
268.742
269.954
279.667
285.467
289.209
294.436
290.341
285.306
284.899
281.906
274.969
277.551
286.149
282.654
282.432
283.626
283.178
283.507
282.833
282.497
281.816
281.564
281.263
281.088
280.988
280.996
281.33
282.038
282.796
283.395
284.323
284.831
285.048
285.072
285.513
285.655
285.778
286.065
286.228
286.504
286.517
286.739
287.281
287.831
288.741
289.422
288.834
289.81
293.605
294.935
293.264
291.089
291.718
292.886
288.799
290.285
293.605
290.49
293.501
294.575
291.912
296.984
296.848
291.89
290.149
284.993
279.2
277.088
277.007
277.924
280.101
282.051
283.092
283.583
283.611
283.915
284.62
285.81
287.874
290.782
293.581
295.87
297.219
297.103
296.216
295.704
295.295
294.435
293.576
293.277
293.815
294.831
296.688
297.679
296.779
295.967
297.211
296.849
291.569
286.703
291.268
285.711
288.917
286.262
285.697
284.864
285.381
282.841
282.362
281.412
280.104
280.133
280.614
280.376
282.109
274.225
270.858
273.715
275.02
274.199
270.113
259.855
255.306
250.826
243.785
246.351
261.391
269.956
272.475
276.867
277.537
271.972
263.865
260.09
263.436
269.654
265.956
264.594
264.199
261.764
264.004
264.678
265.9
270.818
267.965
276.359
270.529
275.479
270.464
269.805
273.724
273.692
282.846
293.126
282.664
299.414
276.183
276.099
283.002
283.119
291.891
283.096
285.089
272.222
266.053
267.371
248.919
240.365
256.758
270.548
263.96
253.102
250.563
264.989
248.347
256.467
257.086
265.084
265.468
287.365
272.573
267.177
272.775
276.4
284.628
295.594
289.205
282.28
276.473
273.586
283.095
281.47
279.44
284.585
280.505
282.745
282.849
281.711
281.791
280.121
281.073
280.859
281.615
281.929
282.207
282.635
283.356
284.362
284.997
285.33
285.789
285.922
286.109
286.619
286.953
287.441
288.123
288.652
288.528
288.809
288.397
288.42
289.453
289.638
288.947
289.447
290.943
292.323
293.323
294.971
296.696
295.469
292.105
290.728
290.929
293.249
292.223
289.632
291.645
293.008
294.406
296.431
292.586
289.87
290.571
285.341
280.123
279.525
280.847
283.4
285.133
285.01
284.064
283.002
282.873
284.526
287.21
290.587
294.238
296.998
298.418
299.339
299.285
298.266
297.352
296.587
295.956
295.487
295.135
294.899
294.644
294.611
294.953
294.653
295.459
295.653
294.941
293.835
293.972
292.418
296.032
292.399
296.993
294.449
295.254
294.636
296.65
294.67
291.529
287.515
285.647
283.142
282.129
280.261
280.24
281.622
279.434
278.627
280.78
283.753
283.663
273.6
272.16
274.095
259.891
245.223
245.933
269.488
276.51
274.53
273.481
271.284
268.531
265.86
265.049
266.443
264.488
261.039
261.804
261.912
260.639
263.586
260.598
267.796
265.378
273.918
271.993
274.92
280.19
278.287
285.404
285.422
279.314
289.986
281.799
307.197
292.416
283.385
287.11
284.661
290.979
281.929
285.166
277.78
268.38
278.579
268.319
245.273
248.448
267.192
271.154
265.449
252.082
260.117
249.255
263.893
254.851
255.431
254.99
288.815
276.419
267.041
266.699
271.112
285.294
295.067
286.009
277.204
275.699
280.29
284.435
282.483
281.903
288.119
284.893
284.801
285.659
282.9
283.936
284.157
283.339
285.151
284.748
284.901
285.253
285.509
285.784
286.016
285.967
285.943
285.887
285.681
285.693
285.614
285.776
286.519
287.048
287.73
288.258
289.197
288.843
287.561
287.795
289.084
290.121
292.079
293.225
293.735
295.373
296.799
295.824
293.845
293.939
294.785
293.013
290.438
289.336
290.766
293.425
294.861
294.687
291.563
288.33
289.917
289.436
282.607
279.014
281.052
284.544
285.975
284.653
282.845
282.269
283.666
287.16
291.605
295.248
297.773
298.924
298.353
297.131
296.128
294.817
293.827
293.419
292.928
292.729
292.596
292.121
291.488
291.013
290.293
289.199
288.361
287.222
287.253
286.421
282.56
283.462
288.096
285.812
288.578
292.114
290.808
294.458
295.034
300.595
299.277
299.12
296.124
293.109
290.083
287.291
284.742
283.56
283.103
281.945
279.818
282.985
281.513
283.087
287.429
279.517
278.372
282.74
273.283
251.935
252.883
268.665
278.785
279.092
270.986
266.439
261.511
261.875
262.401
267.876
267.809
265.687
268.541
263.852
269.259
261.235
263.714
262.064
271.285
279.421
277.494
284.311
280.004
284.258
297.928
294.085
301.032
283.556
296.382
302.852
294.873
294.01
289.953
289.687
281.145
282.622
280.426
269.208
280.817
288.369
264.276
249.367
262.219
273.525
277.312
261.806
255.375
248.251
266.293
256.913
255.037
266.056
289.565
278.139
266.951
263.024
267.387
285.261
295.234
285.857
278.396
279.32
283.316
283.743
284.844
285.209
287.541
284.622
284.271
288.367
282.396
284.166
286.114
283.5
285.088
285.505
285.849
286.1
286.603
286.496
286.705
286.948
287.326
287.597
287.728
287.233
286.865
286.505
286.622
287.336
288.696
289.022
289.602
290.629
289.414
288.046
287.829
287.456
289.58
292.992
292.766
292.819
293.812
294.811
295.423
294.45
291.486
289.154
290.174
293.423
296.121
296.367
294.859
291.306
288.174
289.339
290.173
285.715
280.576
280.879
284.827
286.794
284.658
282.344
283.318
287.149
291.766
296.064
298.556
298.491
297.373
296.125
295.272
295.485
296.402
297.246
298.351
299.261
299.433
299.361
299.198
298.544
297.251
296.249
294.955
293.976
293.014
291.354
289.985
288.685
287.71
281.999
283.367
278.529
280.037
280.797
279.841
287.603
288.022
293.461
294.042
297.985
300.848
300.727
295.454
296.641
292.433
289.774
285.911
285.942
283.768
281.91
284.443
283.296
283.048
287.437
282.127
283.641
287.781
283.275
262.738
259.462
265.728
277.879
278.18
277.875
267.14
264.693
262.284
266.059
273.658
272.305
277.871
268.292
271.651
265.456
265.632
264.755
266.897
277.003
276.94
286.538
289.649
283.79
293.44
296.801
308.417
294.199
293.101
302.541
306.999
304.064
296.782
288.849
280.724
279.207
284.453
273.347
275.797
295.24
288.416
260.798
259.19
272.296
283.45
277.909
260.126
244.924
263.517
261.648
250.995
260.673
290.275
278.843
265.214
258.199
265.36
288.985
294.761
282.303
277.074
280.542
283.318
283.62
285.518
282.375
283.531
285.103
280.895
286.487
286.076
285.562
287.342
287.232
287.251
287.733
287.499
287.604
287.129
286.965
286.646
286.569
286.935
287.514
288.252
288.73
289.26
288.994
288.855
288.949
289.595
289.331
289.126
292.81
294.386
292.311
290.272
289.9
290.223
292.758
292.721
293.102
294.153
293.039
291.985
291.959
292.456
293.706
295.109
295.444
293.851
291.161
289.005
286.911
287.737
290.7
286.745
280.372
280.703
285.412
288.169
286.006
283.157
283.971
288.364
293.666
297.636
299.054
297.486
295.012
294.626
296.231
298.867
301.587
303.686
304.81
305.525
305.772
305.713
305.255
304.733
304.337
304.125
303.83
303.083
302.44
301.73
300.851
300.192
297.471
296.812
295.215
290.759
286.066
280.675
277.829
273.351
277.767
277.931
281.294
280.878
285.647
290.852
298.644
299.017
301.866
300.357
298.76
295.928
290.686
289.539
286.555
282.981
286.129
282.618
286.18
284.315
285.985
284.158
290.758
285.421
274.699
263.219
267.091
271.827
279.299
274.898
272.862
272.685
271.982
280.063
276.54
281.121
271.64
272.043
269.89
269.787
269.777
268.471
277.244
279.827
286.928
297.436
289.079
295.414
301.192
305.953
301.714
294.582
293.558
308.699
312.026
303.759
291.907
283.318
273.96
285.167
280.309
270.137
288.845
301.59
276.659
262.114
266.621
285.213
294.147
271.747
249.666
258.493
260.873
249.214
248.293
291.273
279.971
263.594
256.343
267.887
289.222
287.838
279.992
281.132
285.077
285.193
283.898
286.035
281.733
279.21
284.549
283.27
283.099
282.839
282.762
282.919
283.482
283.937
284.349
285.205
284.921
284.863
284.503
284.62
285.237
286.088
286.223
286.258
286.093
286.188
286.484
286.925
288.143
289.729
290.052
288.154
289.392
292.578
292.809
290.684
290.664
291.593
293.625
293.555
291.26
290.583
290.408
291.651
293.704
294.429
294.012
292.58
290.323
287.958
286.171
285.375
284.483
285.954
288.366
285.412
282.269
284.286
287.256
286.814
284.098
283.675
287.496
293.333
297.799
299.019
297.236
295.083
295.677
299.364
303.156
304.968
304.894
304.05
302.689
301.435
300.075
298.801
297.727
296.791
295.989
295.836
295.978
296.36
296.093
296.878
297.507
298.022
298.863
296.912
296.796
295.983
293.848
291.022
288.334
283.701
281.044
278.658
279.902
278.947
280.748
285.927
291.204
292.816
299.715
298.472
302.833
300.17
300.246
295.571
296.202
289.126
289.561
285.138
288.196
284.59
287.364
286.62
286.664
290.851
289.941
278.112
270.892
268.54
270.046
269.905
267.838
272.532
271.402
279.341
273.522
277.184
269.215
268.372
272.396
273.888
275.935
275.036
281.873
286.622
290.027
302.359
295.439
298.123
304.532
303.095
307.35
302.724
292.493
299.372
314.469
308.062
295.005
287.49
271.014
281.772
288.278
272.163
281.696
297.836
290.155
269.332
261.822
281.36
301.954
285.052
262.346
259.216
258.484
247.398
247.214
292.751
283.32
266.557
258.561
273.277
294.194
291.057
280.558
280.452
281.887
282.882
285.161
285.906
283.777
280.603
282.177
284.047
282.775
282.114
283.466
283.267
283.224
283.265
282.899
283.541
284.243
285.587
286.87
287.626
288.515
289.514
289.933
289.891
289.422
288.719
288.388
288.698
290.015
291.292
292.784
291.636
290.814
292.962
294.027
290.272
288.381
289.941
291.72
293.15
291.563
289.881
290.956
292.791
293.433
292.068
289.731
288.273
286.752
285.373
284.403
283.968
282.933
282.229
282.242
282.413
285.617
289.535
289.104
285.605
283.993
286.672
292.644
297.995
299.546
297.77
296.137
296.574
299.796
303.516
304.215
301.864
299.699
299.273
299.593
300.218
300.507
300.334
299.531
298.629
297.625
296.815
296.02
295.46
294.222
292.407
291.88
291.868
290.843
292.409
289.904
287.783
287.74
286.363
284.344
285.97
283.524
281.779
281.53
281.204
281.034
283.893
291.134
287.171
301.565
289.791
303.779
296.748
302.176
298.912
301.716
295.874
296.601
291.614
291.079
289.147
289.576
287.434
289.386
289.146
293.231
288.556
285.3
277.433
273.82
274.246
264.695
269.477
265.893
274.104
266.916
275.219
273.877
272.11
278.176
279.615
284.31
285.778
288.031
295.434
296.401
304.317
301.15
302.287
309.026
304.441
309.993
310.846
295.926
287.558
311.823
312.322
294.505
286.443
271.317
275.503
289.38
279.809
279.392
287.712
300.004
278.11
260.913
277.916
301.139
293.898
279.38
271.451
261.071
246.1
248.557
294.374
287.807
273.249
264.032
277.998
295.737
293.136
283.586
282.947
285.028
283.228
285.218
285.633
284.314
283.852
283.493
284.216
283.541
284.529
286.474
285.801
284.901
284.874
285.039
284.854
285.411
285.797
286.446
287.06
287.206
287.237
287.63
288.008
288.756
289.221
289.503
289.732
291.046
290.968
293.142
292.804
292.331
292.063
294.651
293.859
289.777
289.784
290.573
290.631
292.118
292.436
293.442
294.039
291.936
289.737
287.972
287.192
286.232
284.937
284.122
283.644
283.303
283.339
283.866
284.447
286.121
287.396
286.84
285.442
285.967
290.274
296.155
299.262
298.081
296.299
296.457
298.586
301.906
303.877
302.268
299.716
300.756
304.075
306.098
306.32
305.668
305.163
304.375
302.352
300.084
299.11
298.432
298.146
298.311
299.124
298.484
298.087
296.086
292.675
290.008
286.802
285.626
284.237
280.474
280.435
283.09
282.773
283.71
283.292
281.624
280.752
291.072
282.397
303.048
287.891
301.694
296.222
299.63
298.441
302.901
300.271
298.547
301.096
294.004
294.203
295.979
287.137
295.866
289.938
295.175
292.558
295.212
289.173
284.35
289.818
275.989
279.522
272.059
277.361
271.655
281.884
284.079
280.455
286.512
287.259
292.684
296.771
295.161
304.481
301.381
305.262
306.258
305.474
309.565
303.387
312.076
318.572
302.687
285.395
297.965
301.681
282.778
278.001
272.743
271.067
282.252
285.201
280.115
279.23
304.191
285.898
260.498
277.84
295.79
293.078
297.022
294.062
270.114
250.954
254.748
295.865
292.319
281.753
272.718
281.374
292.409
290.433
284.409
281.872
284.561
283.351
285.197
288.899
287.774
286.74
285.708
284.695
283.126
284.781
287.732
287.748
285.901
283.722
281.907
280.932
280.821
282.054
283.331
284.738
286.494
287.686
288.465
288.384
287.875
287.74
288.602
288.978
290.477
289.779
291.365
291.769
292.022
293.034
293.379
295.607
291.608
289.104
290.559
290.121
289.988
293.856
296.223
295.113
292.047
289.229
287.797
287.488
287.24
286.038
285.154
284.964
285.264
286.081
287.796
289.931
290.225
287.276
284.282
284.441
288.249
294.098
298.969
299.729
297.246
296.324
297.619
300.953
304.162
304.813
302.096
301.141
304.53
307.526
306.575
303.36
300.673
299.89
301.113
300.71
298.317
296.324
294.869
293.592
291.792
291.454
293.241
293.275
294.396
292.853
287.922
285.968
282.258
281.212
281.452
279.896
281.584
283.346
284.113
287.707
289.288
284.926
292.074
281.585
298.195
289.956
297.402
294.669
297.505
295.906
300.193
301.157
296.903
305.941
296.344
298.467
300.155
288.85
298.69
290.203
295.048
292.394
296.6
295.359
289.164
299.181
288.875
290.973
284.23
285.56
283.596
290.1
292.28
291.32
296.909
294.35
298.835
301.613
299.181
308.536
304.223
307.89
307.778
307.038
310.368
304.044
318.381
323.325
300.809
286.078
278.745
273.453
263.257
268.815
275.405
270.089
275.006
287.042
279.226
272.755
304.003
287.65
261.47
280.223
287.327
286.696
312.379
318.091
280.925
257.272
260.855
297.041
295.91
289.906
282.905
289.244
295.384
290.36
284.956
283.612
285.981
285.268
284.089
287.377
287.872
286.688
285.796
284.824
282.853
283.97
287.047
288.134
286.134
284.84
285.769
285.989
284.379
283.398
283.682
284.967
287.519
289.09
289.701
289.946
290.155
289.255
289.324
289.385
289.319
291.423
290.57
294.406
292.54
294.151
293.338
294.98
295.375
290.692
289.43
291.017
290.746
291.419
296.384
296.818
292.142
289.392
288.735
288.183
288.078
287.942
287.696
287.466
287.687
288.287
288.887
289.147
289.266
288.289
286.041
285.686
289.361
295.236
299.437
298.527
295.974
295.742
298.316
302.791
305.702
303.666
299.555
299.739
303.946
306.453
304.523
301.243
299.878
300.922
304.126
305.319
303
300.058
297.804
295.817
295.359
296.032
295.385
294.743
291.649
287.225
284.325
283.474
283.568
283.111
283.861
286.414
286.6
288.302
287.625
289.049
293.026
290.471
295.199
286.834
294.542
292.144
296.836
294.749
297.486
294.765
297.648
299.271
296.63
304.958
297.524
301.611
301.696
292.892
299.204
292.065
296.215
291.539
295.452
296.014
290.593
300.377
293.786
296.459
293.938
290.809
293.328
295.495
298.232
299.656
300.983
300.104
305.317
304.159
304.316
308.989
304.259
308.353
308.356
308.285
309.397
307.049
323.136
320.057
287.37
282.556
268.655
254.411
252.134
266.431
281.989
274.392
272.549
288.21
278.203
270.412
300.755
282.872
263.704
282.513
279.507
284.2
324.186
331.195
286.946
265.433
265.978
297.835
298.096
295.699
291.433
296.821
302.915
298.457
288.635
283.771
284.262
285.808
285.645
287.752
288.749
287.793
287.244
287.827
287.976
288.498
290.033
289.339
284.929
282.163
283.284
284.896
283.657
281.374
282.334
284.343
286.536
287.949
288.402
287.926
288.032
288.879
288.749
290.95
288.357
293.272
291.439
293.64
294.16
293.535
296.02
294.44
296.245
294.811
291.037
287.976
290.038
292.804
294.781
297.091
293.995
289.554
289.029
289.506
289.588
289.231
289.065
289.23
289.641
290.079
290.008
288.177
285.261
284.064
285.53
288.565
292.517
296.901
299.046
297.112
295.281
295.86
298.852
303.227
305.326
302.93
300.062
300.62
302.997
302.836
299.492
297.401
297.205
298.574
300.996
301.054
298.384
296.405
294.539
292.715
290.978
292.589
295.508
294.923
292.42
287.208
282.669
281.287
281.832
284.958
287.962
292.101
294.037
295.622
296.244
295.608
296.376
295.422
297.882
294.24
295.844
293.58
297.156
296.831
298.776
296.011
295.895
297.331
297.027
301.817
298.654
302.814
302.493
297.576
298.91
295.018
298.514
292.795
296.502
295.011
292.788
299.806
295.132
299.261
297.376
294.857
300.246
297.055
301.962
303.949
302.396
305.39
306.652
304.811
308.083
307.571
306.045
309.022
308.267
308.614
308.998
314.306
322.932
308.229
271.439
273.568
268.279
253.46
253.007
271.226
290.377
278.516
272.947
289.964
274.929
269.53
292.394
275.945
268.656
280.563
276.557
292.199
329.07
323.709
285.409
271.547
267.439
298.367
299.271
299.129
297.828
300.519
304.122
302.975
294.936
287.651
285.047
284.788
284.182
285.954
288.32
288.774
288.247
288.692
289.49
290.011
290.249
288.488
283.411
279.645
281.493
285.249
286.733
283.901
281.735
283.132
286.358
288.808
289.335
289.818
289.313
290.215
288.325
290.898
290.418
291.82
296.638
294.295
296.68
293.564
293.958
295.869
295.97
296.161
295.758
292.984
287.286
290.224
295.211
296.254
294.681
291.109
289.574
289.957
290.436
290.547
290.494
290.452
290.015
289.406
288.805
288.401
287
284.807
285.382
289.058
293.786
297.472
297.597
295.202
294.527
296.614
300.246
303.86
304.591
301.858
299.31
299.461
300.951
301.488
300.393
300.243
299.743
298.145
297.959
298.373
298.075
296.932
294.466
291.542
292.772
295.418
296.452
293.58
287.56
282.372
280.94
283.455
287.278
291.462
294.661
297.653
298.445
298.526
298.969
299.546
299.219
298.402
298.405
299.194
299.76
297.527
298.136
298.855
300.068
298.83
296.736
296.636
296.683
299.525
299.603
302.581
303.053
302.075
299.99
300.232
300.018
296.84
299.42
296.178
297.563
299.39
297.692
301.904
298.366
299.8
302.502
298.896
305.319
304.246
303.597
308.289
306.095
306.255
308.537
306.324
307.012
308.661
309.879
306.738
313.53
321.88
316.38
293.548
261.488
265.192
273.071
266.726
262.627
280.708
300.578
281.34
275.452
295.446
274.068
271.604
284.122
271.397
275.54
275.94
282.249
303.456
320.956
300.356
279.514
270.975
262.64
298.709
299.703
300.566
301.653
301.522
298.883
294.913
290.199
286.8
285.999
285.589
283.854
283.964
285.724
287.026
287.163
287.372
287.801
288.257
288.123
287.488
285.519
282.282
283.997
289.086
288.853
283.425
281.452
285.444
288.61
289.813
289.872
289.369
289.447
290.334
290.883
289.678
293.935
291.116
295.176
296.715
296.973
299.139
296.826
296.07
297.769
298.82
295.466
295.918
292.919
287.63
292.675
297.104
295.299
291.756
289.928
290.374
291.239
291.588
291.442
291.098
290.735
290.049
288.5
286.956
286.963
287.917
289.169
292.096
295.63
297.8
296.382
293.176
293.632
296.929
301.23
304.664
305.031
302.736
300.591
299.754
300.22
300.195
298.936
299.399
299.869
297.532
297.996
300.063
300.909
300.416
297.992
295.011
294.189
297.823
298.309
292.76
285.854
281.335
281.3
285.875
292.116
297.175
300.215
301.253
300.735
300.097
298.201
297.577
297.28
297.828
296.622
298.197
299.613
299.266
299.124
300.042
300.697
300.138
297.722
296.709
296.102
297.566
299.265
300.257
303.128
303.249
301.732
303.842
300.874
302.493
301.453
299.847
302.068
299.8
301.877
302.187
300.559
303.312
302.373
301.849
307.319
304.055
305.74
309.431
304.599
307.196
308.265
304.882
308.242
308.892
309.083
307.283
321.395
321.257
305.075
277.686
258.674
265.567
276.473
276.095
270.607
284.914
302.429
281.59
277.051
297.939
274.683
276.656
279.324
272.44
277.694
273.117
296.011
308.013
301.906
278.679
276.824
266.112
256.958
298.892
299.679
300.877
302.704
303.332
299.717
292.99
287.193
284.984
286.513
288.256
287.517
286.921
287.8
289.438
290.017
290.469
291.244
290.652
290.601
291.618
290.185
287.207
288.974
291.832
287.642
281.515
280.274
282.788
286.161
287.12
288.524
289.58
290.934
289.53
290.754
291.058
292.516
296.052
293.589
295.325
296.715
296.235
298.942
298.855
296.101
299.757
301.108
296.339
296.6
291.459
288.977
295.473
296.948
293.177
290.546
290.526
291.525
292.182
292.301
291.852
290.76
289.553
288.841
287.768
287.534
289.296
292.138
294.818
297.106
298.155
295.873
293.28
294.46
298.376
302.92
305.894
306.074
304.721
303.196
302.676
301.973
300.282
297.54
297.719
298.301
296.107
296.152
297.837
297.29
295.206