/*--------------------------------*- C++ -*----------------------------------*\
| =========                 |                                                 |
| \\      /  F ield         | OpenFOAM: The Open Source CFD Toolbox           |
|  \\    /   O peration     | Version:  dev                                   |
|   \\  /    A nd           | Web:      http://www.openfoam.org               |
|    \\/     M anipulation  |                                                 |
\*---------------------------------------------------------------------------*/
FoamFile
{
    version     2.0;
    format      ascii;
    class       volVectorField;
    object      U;
    location    "9.126";
}
// * * * * * * * * * * * * * * * * * * * * * * * * * * * * * * * * * * * * * //

dimensions      [0 1 -1 0 0 0 0];

internalField   nonuniform List<vector> 
12225
(
(6.32806 0.235799 0)
(1.95367 -0.150293 0)
(-1.54158 -0.301986 0)
(-2.94381 -0.378126 0)
(-5.58375 -0.311949 0)
(-5.86173 -0.421448 0)
(-8.5994 -0.25077 0)
(-8.50233 -0.425717 0)
(-11.5045 -0.174222 0)
(-10.8519 -0.443886 0)
(-14.3305 -0.0841595 0)
(-12.8604 -0.461074 0)
(-16.7829 -0.0380227 0)
(-14.6373 -0.49233 0)
(-17.2487 -0.348187 0)
(-11.7873 -0.795749 0)
(-1.98411 -0.308746 0)
(-23.0244 15.3214 0)
(8.73123 0.0444636 0)
(7.01688 -0.202889 0)
(2.35265 -0.561714 0)
(1.92813 -0.80908 0)
(-3.5145 -0.824331 0)
(-1.72528 -1.07548 0)
(-7.97089 -0.729682 0)
(-4.54832 -1.09007 0)
(-12.1302 -0.610739 0)
(-6.5803 -1.06588 0)
(-15.9226 -0.45213 0)
(-8.02113 -1.15769 0)
(-18.7563 -0.0349442 0)
(-9.24889 -2.03319 0)
(-20.5706 -0.362497 0)
(-8.49905 -4.15064 0)
(-20.0101 -4.06779 0)
(-31.2121 8.13304 0)
(8.0297 -0.882764 0)
(9.82638 -0.820036 0)
(3.95578 -1.17094 0)
(6.47099 -1.25494 0)
(-1.39646 -1.40214 0)
(3.25908 -1.60588 0)
(-5.87178 -1.28256 0)
(0.616036 -1.71338 0)
(-9.63598 -1.16175 0)
(-1.85106 -1.8234 0)
(-11.8697 -0.888404 0)
(-4.90128 -1.97245 0)
(-13.933 -0.383999 0)
(-8.31728 -2.07839 0)
(-17.6851 -0.6748 0)
(-10.0204 -3.36452 0)
(-25.3138 0.49178 0)
(-26.6845 5.48597 0)
(6.31471 -1.96398 0)
(11.7971 -1.67339 0)
(4.01396 -2.03301 0)
(8.73188 -1.9347 0)
(0.661109 -2.09285 0)
(5.41441 -2.32898 0)
(-2.29889 -1.84878 0)
(2.04203 -2.56494 0)
(-5.27599 -1.54236 0)
(-1.16828 -2.9333 0)
(-8.08707 -0.973542 0)
(-4.36205 -3.22331 0)
(-11.289 -0.189168 0)
(-7.56233 -3.16936 0)
(-15.1479 -0.392641 0)
(-15.4609 -3.05773 0)
(-19.4916 1.00823 0)
(-30.0854 10.9727 0)
(6.24255 -2.59008 0)
(10.7312 -3.08133 0)
(5.34429 -2.75351 0)
(7.30241 -3.19001 0)
(2.96477 -2.65407 0)
(3.87585 -3.42829 0)
(0.594127 -2.44637 0)
(0.54488 -3.50454 0)
(-2.53424 -1.96475 0)
(-2.59295 -3.7619 0)
(-5.80191 -1.23156 0)
(-5.36347 -3.72577 0)
(-9.80533 -0.0599462 0)
(-8.34937 -3.55427 0)
(-13.4424 1.56515 0)
(-14.4781 -7.05172 0)
(-15.3302 4.4954 0)
(-24.3494 11.68 0)
(8.53328 -3.43884 0)
(7.69836 -4.40566 0)
(6.34733 -3.70875 0)
(4.39694 -4.34125 0)
(3.62727 -3.59029 0)
(1.58462 -4.45025 0)
(1.2874 -3.32585 0)
(-1.28745 -4.38688 0)
(-1.68706 -2.65184 0)
(-3.92412 -4.64103 0)
(-4.64902 -1.79095 0)
(-6.56418 -4.38018 0)
(-7.69827 -0.66048 0)
(-9.40552 -3.83328 0)
(-10.6666 2.158 0)
(-12.0861 -3.83683 0)
(-16.0315 6.22569 0)
(-18.6538 11.8647 0)
(9.20715 -4.06835 0)
(6.7033 -5.92859 0)
(6.69034 -4.34619 0)
(4.13145 -5.8333 0)
(4.00798 -4.21572 0)
(1.6775 -5.90916 0)
(1.48916 -3.79975 0)
(-1.04723 -5.77936 0)
(-1.08018 -3.04987 0)
(-3.60027 -5.84276 0)
(-3.77131 -2.12973 0)
(-6.03774 -5.24933 0)
(-5.76543 -0.872036 0)
(-8.62266 -4.49277 0)
(-8.07005 1.24021 0)
(-10.9955 -3.81438 0)
(-14.743 5.92355 0)
(-10.5517 5.77685 0)
(9.45865 -5.13605 0)
(7.16605 -6.87848 0)
(6.74899 -5.43738 0)
(4.60363 -6.77012 0)
(4.01715 -5.39856 0)
(2.00242 -6.64766 0)
(1.27515 -4.97362 0)
(-0.593002 -6.44222 0)
(-1.22694 -4.22669 0)
(-2.98127 -6.12813 0)
(-3.87688 -3.49107 0)
(-5.10879 -5.35869 0)
(-6.20296 -2.42761 0)
(-7.37322 -4.19123 0)
(-8.75482 -0.349085 0)
(-9.31647 -2.28977 0)
(-12.6629 2.28331 0)
(-8.34444 5.4621 0)
(9.39364 -5.91833 0)
(7.13614 -8.13431 0)
(6.77247 -6.14672 0)
(4.66309 -7.97857 0)
(4.1625 -6.03426 0)
(1.99483 -7.77506 0)
(1.43324 -5.62339 0)
(-0.517465 -7.41749 0)
(-1.05029 -4.88436 0)
(-2.79586 -6.96761 0)
(-3.46894 -4.28743 0)
(-5.02316 -6.03914 0)
(-5.80215 -3.11488 0)
(-7.36405 -4.54508 0)
(-8.01607 -1.08996 0)
(-9.04173 -2.19415 0)
(-10.0612 1.74623 0)
(-9.35915 3.98755 0)
(9.35219 -7.03073 0)
(7.18241 -8.99628 0)
(6.63047 -7.33086 0)
(4.78693 -8.72473 0)
(3.92411 -7.25022 0)
(2.1439 -8.36922 0)
(1.20281 -6.83492 0)
(-0.212914 -7.86872 0)
(-1.25142 -6.1976 0)
(-2.39245 -7.18005 0)
(-3.573 -5.57008 0)
(-4.53772 -6.01274 0)
(-5.77835 -4.45859 0)
(-6.60421 -4.29124 0)
(-7.61991 -2.51157 0)
(-8.01218 -1.8538 0)
(-8.82512 -0.117777 0)
(-8.06808 2.07078 0)
(9.25651 -7.89733 0)
(7.32265 -10.2557 0)
(6.60282 -8.55707 0)
(4.83242 -10.0004 0)
(3.92415 -8.39526 0)
(2.18599 -9.60218 0)
(1.22106 -7.94094 0)
(-0.117558 -8.96236 0)
(-1.22066 -7.31944 0)
(-2.38267 -8.1078 0)
(-3.44469 -6.54696 0)
(-4.48328 -6.85707 0)
(-5.40978 -5.3614 0)
(-6.31344 -5.04069 0)
(-6.9738 -3.58662 0)
(-7.43521 -2.65471 0)
(-7.68501 -1.28112 0)
(-7.39619 0.322234 0)
(9.5756 -9.00819 0)
(7.81233 -11.1769 0)
(6.55268 -10.0457 0)
(4.87649 -10.7839 0)
(3.64936 -9.80491 0)
(2.1809 -10.2897 0)
(1.00188 -9.25683 0)
(-0.0595197 -9.56324 0)
(-1.28496 -8.68015 0)
(-2.26816 -8.63798 0)
(-3.32937 -7.86458 0)
(-4.1506 -7.34762 0)
(-5.0285 -6.54157 0)
(-5.72212 -5.76041 0)
(-6.27724 -4.7396 0)
(-6.53774 -3.66876 0)
(-6.64535 -2.55614 0)
(-6.42726 -1.36136 0)
(9.22442 -10.3391 0)
(7.74745 -12.3255 0)
(6.32819 -11.3825 0)
(4.88867 -11.9582 0)
(3.62686 -11.1617 0)
(2.33402 -11.4845 0)
(1.10614 -10.6062 0)
(0.0346678 -10.6639 0)
(-1.10005 -9.94143 0)
(-2.03776 -9.73674 0)
(-2.93048 -9.03616 0)
(-3.71095 -8.48186 0)
(-4.4219 -7.71072 0)
(-4.96343 -6.93024 0)
(-5.35298 -6.02306 0)
(-5.59513 -5.07651 0)
(-5.71257 -4.16167 0)
(-5.53185 -3.18872 0)
(9.14426 -11.2817 0)
(7.75597 -13.2475 0)
(6.29878 -12.8302 0)
(4.90955 -12.9218 0)
(3.641 -12.4695 0)
(2.49067 -12.3446 0)
(1.36868 -11.8458 0)
(0.38523 -11.5805 0)
(-0.709626 -11.0986 0)
(-1.63551 -10.7007 0)
(-2.44868 -10.1714 0)
(-3.15526 -9.59803 0)
(-3.76956 -8.90305 0)
(-4.24648 -8.14554 0)
(-4.55722 -7.35155 0)
(-4.70135 -6.5201 0)
(-4.76742 -5.65719 0)
(-4.63756 -4.86426 0)
(9.28889 -12.3457 0)
(7.90689 -14.1446 0)
(6.46819 -13.8808 0)
(5.09715 -13.937 0)
(3.84843 -13.6917 0)
(2.76615 -13.4943 0)
(1.75698 -13.0952 0)
(0.87675 -12.7364 0)
(-0.0743843 -12.2785 0)
(-0.927473 -11.7662 0)
(-1.67626 -11.2385 0)
(-2.29244 -10.686 0)
(-2.82553 -10.0564 0)
(-3.23709 -9.37474 0)
(-3.55872 -8.67279 0)
(-3.64896 -8.00014 0)
(-3.67134 -7.28398 0)
(-3.58522 -6.59852 0)
(9.32912 -12.9259 0)
(8.06006 -14.9034 0)
(6.76886 -14.7079 0)
(5.46843 -14.6168 0)
(4.20886 -14.3892 0)
(3.07248 -14.1489 0)
(2.02169 -13.8201 0)
(1.14707 -13.4926 0)
(0.327992 -13.1073 0)
(-0.373737 -12.6443 0)
(-1.02388 -12.1395 0)
(-1.50124 -11.6246 0)
(-1.89063 -11.0662 0)
(-2.1743 -10.4724 0)
(-2.44285 -9.84825 0)
(-2.57925 -9.22354 0)
(-2.64458 -8.62577 0)
(-2.5423 -8.07521 0)
(9.43906 -13.2533 0)
(8.03208 -15.0524 0)
(6.7249 -14.8224 0)
(5.51327 -14.7232 0)
(4.37409 -14.5246 0)
(3.36688 -14.2954 0)
(2.42641 -14.0452 0)
(1.62117 -13.7917 0)
(0.888144 -13.5085 0)
(0.281928 -13.174 0)
(-0.291589 -12.7726 0)
(-0.714436 -12.3058 0)
(-1.03983 -11.8068 0)
(-1.26635 -11.2819 0)
(-1.44508 -10.7518 0)
(-1.50445 -10.2074 0)
(-1.59911 -9.65956 0)
(-1.53681 -9.16176 0)
(9.25517 -12.6752 0)
(8.02288 -14.62 0)
(6.87395 -14.4767 0)
(5.78171 -14.3912 0)
(4.74032 -14.2346 0)
(3.80515 -14.0206 0)
(2.91746 -13.7768 0)
(2.15926 -13.503 0)
(1.46709 -13.22 0)
(0.907812 -12.9397 0)
(0.419293 -12.6386 0)
(0.0613536 -12.2986 0)
(-0.220251 -11.9181 0)
(-0.419212 -11.5206 0)
(-0.580376 -11.0763 0)
(-0.597892 -10.6526 0)
(-0.612364 -10.2123 0)
(-0.493021 -9.78813 0)
(9.6498 -11.8018 0)
(8.45162 -13.7002 0)
(7.27274 -13.4634 0)
(6.15684 -13.2909 0)
(5.10107 -13.1402 0)
(4.18929 -13.001 0)
(3.36369 -12.8289 0)
(2.6794 -12.6436 0)
(2.05438 -12.4445 0)
(1.54989 -12.2317 0)
(1.11467 -12.0174 0)
(0.809463 -11.7672 0)
(0.568736 -11.4874 0)
(0.437289 -11.1875 0)
(0.322847 -10.8588 0)
(0.274326 -10.4934 0)
(0.249532 -10.1284 0)
(0.3463 -9.77849 0)
(9.63611 -10.5197 0)
(8.35857 -12.2383 0)
(7.15503 -12.1262 0)
(6.10215 -12.039 0)
(5.16667 -11.9196 0)
(4.3997 -11.7907 0)
(3.688 -11.6551 0)
(3.08254 -11.4934 0)
(2.5475 -11.3292 0)
(2.09134 -11.1549 0)
(1.70379 -10.9732 0)
(1.42002 -10.7743 0)
(1.21094 -10.5652 0)
(1.08119 -10.332 0)
(1.02318 -10.1109 0)
(1.03037 -9.84525 0)
(0.991961 -9.54326 0)
(1.07229 -9.25088 0)
(9.49005 -9.2576 0)
(8.53174 -10.6742 0)
(7.39494 -10.6536 0)
(6.33335 -10.6571 0)
(5.39991 -10.616 0)
(4.62638 -10.5038 0)
(3.95688 -10.3874 0)
(3.40354 -10.2585 0)
(2.89877 -10.1088 0)
(2.51137 -9.97963 0)
(2.17884 -9.84205 0)
(1.93647 -9.69413 0)
(1.77467 -9.53415 0)
(1.67849 -9.35923 0)
(1.63452 -9.17408 0)
(1.67574 -8.98834 0)
(1.69956 -8.76785 0)
(1.74892 -8.54683 0)
(9.35753 -7.99751 0)
(8.34216 -9.25228 0)
(7.36463 -9.20693 0)
(6.42375 -9.22192 0)
(5.54637 -9.21973 0)
(4.77609 -9.149 0)
(4.11316 -9.04158 0)
(3.61361 -8.93588 0)
(3.22207 -8.82466 0)
(2.92298 -8.72713 0)
(2.67985 -8.63209 0)
(2.49307 -8.51022 0)
(2.3462 -8.38136 0)
(2.25998 -8.23273 0)
(2.20038 -8.08346 0)
(2.20485 -7.90759 0)
(2.2065 -7.74595 0)
(2.26112 -7.59717 0)
(9.57014 -6.66284 0)
(8.54943 -7.88228 0)
(7.58834 -7.98492 0)
(6.68769 -7.98582 0)
(5.83928 -7.92051 0)
(5.06898 -7.8486 0)
(4.41347 -7.7871 0)
(3.86527 -7.72353 0)
(3.41233 -7.66294 0)
(3.06847 -7.58121 0)
(2.80139 -7.49488 0)
(2.59014 -7.36903 0)
(2.4473 -7.22846 0)
(2.37625 -7.07719 0)
(2.36033 -6.9546 0)
(2.41016 -6.79619 0)
(2.43404 -6.69616 0)
(2.55165 -6.56966 0)
(9.15364 -5.5936 0)
(8.49928 -6.60515 0)
(7.74632 -6.66875 0)
(6.9358 -6.66756 0)
(6.11563 -6.63234 0)
(5.34568 -6.5584 0)
(4.65695 -6.47511 0)
(4.0842 -6.4001 0)
(3.6277 -6.32952 0)
(3.2809 -6.26606 0)
(3.0404 -6.22062 0)
(2.87204 -6.1752 0)
(2.77787 -6.1064 0)
(2.71157 -6.03148 0)
(2.72365 -5.92726 0)
(2.76581 -5.8305 0)
(2.80896 -5.7313 0)
(2.96584 -5.59635 0)
(9.42421 -4.64474 0)
(8.67332 -5.63439 0)
(7.86374 -5.69165 0)
(6.99952 -5.60993 0)
(6.17152 -5.49501 0)
(5.43829 -5.38073 0)
(4.83515 -5.32012 0)
(4.34417 -5.28992 0)
(3.94668 -5.27554 0)
(3.64707 -5.24887 0)
(3.39951 -5.20113 0)
(3.20812 -5.14538 0)
(3.07332 -5.07208 0)
(2.98588 -4.99967 0)
(2.95722 -4.8901 0)
(2.9598 -4.84498 0)
(3.00427 -4.73526 0)
(3.1216 -4.64061 0)
(9.65022 -3.70226 0)
(8.94966 -4.53048 0)
(8.13702 -4.54672 0)
(7.25019 -4.4801 0)
(6.4344 -4.4196 0)
(5.73081 -4.33569 0)
(5.16192 -4.27399 0)
(4.66267 -4.2258 0)
(4.2328 -4.18017 0)
(3.85825 -4.14057 0)
(3.52281 -4.08467 0)
(3.25274 -4.04545 0)
(3.03366 -4.00905 0)
(2.91116 -3.98029 0)
(2.81975 -3.92573 0)
(2.81597 -3.89112 0)
(2.84043 -3.82122 0)
(2.89771 -3.75886 0)
(9.65117 -2.90242 0)
(9.02141 -3.62904 0)
(8.24872 -3.64212 0)
(7.37645 -3.56764 0)
(6.47952 -3.48775 0)
(5.67279 -3.39893 0)
(4.95331 -3.35095 0)
(4.33446 -3.29075 0)
(3.77603 -3.25589 0)
(3.32234 -3.18642 0)
(2.9115 -3.12022 0)
(2.5942 -3.07564 0)
(2.29072 -3.04564 0)
(2.10997 -3.03455 0)
(1.90869 -3.01269 0)
(1.78904 -2.95629 0)
(1.67337 -2.92632 0)
(1.58222 -2.867 0)
(9.54719 -2.24045 0)
(9.25188 -2.82942 0)
(8.43873 -2.75354 0)
(7.30648 -2.63156 0)
(6.02545 -2.51019 0)
(4.84839 -2.38487 0)
(3.75511 -2.32352 0)
(2.81609 -2.26132 0)
(2.00631 -2.23516 0)
(1.33491 -2.18047 0)
(0.784178 -2.12747 0)
(0.312221 -2.09484 0)
(-0.122466 -2.07725 0)
(-0.441123 -2.06443 0)
(-0.782808 -2.03893 0)
(-1.01137 -1.979 0)
(-1.2382 -1.94218 0)
(-1.43414 -1.88337 0)
(9.75798 -1.74415 0)
(8.6454 -2.15178 0)
(6.87625 -1.94055 0)
(4.94493 -1.72596 0)
(3.15141 -1.5293 0)
(1.66134 -1.36373 0)
(0.364644 -1.30674 0)
(-0.700654 -1.25221 0)
(-1.56203 -1.22687 0)
(-2.26641 -1.19879 0)
(-2.85429 -1.17181 0)
(-3.35749 -1.15113 0)
(-3.764 -1.13186 0)
(-4.08445 -1.11818 0)
(-4.35876 -1.09361 0)
(-4.52517 -1.06868 0)
(-4.66418 -1.0553 0)
(-4.77722 -1.03157 0)
(7.92821 -0.719593 0)
(4.55762 -0.754579 0)
(1.69558 -0.513598 0)
(-0.520913 -0.395603 0)
(-2.0822 -0.357842 0)
(-3.23482 -0.347904 0)
(-4.17642 -0.375521 0)
(-4.92497 -0.376098 0)
(-5.53639 -0.36852 0)
(-6.04559 -0.372588 0)
(-6.46274 -0.367935 0)
(-6.78795 -0.36212 0)
(-7.04239 -0.356437 0)
(-7.22774 -0.347999 0)
(-7.35426 -0.343129 0)
(-7.42055 -0.330211 0)
(-7.4291 -0.333033 0)
(-7.45484 -0.301709 0)
(0.075121 0.961079 0)
(0.162307 0.95391 0)
(0.289305 1.04096 0)
(0.337908 0.995805 0)
(0.48127 0.945161 0)
(0.660816 0.909825 0)
(0.906946 0.854387 1.10059e-17)
(1.16966 0.841426 -1.09227e-17)
(1.43435 0.831271 0)
(1.71152 0.817409 -1.07691e-17)
(1.99067 0.814029 0)
(2.27674 0.805398 0)
(2.56318 0.801495 0)
(2.8576 0.792162 1.04859e-17)
(3.16487 0.781796 0)
(3.48884 0.766183 0)
(3.81402 0.752324 -1.02993e-17)
(4.15574 0.729662 0)
(4.51934 0.715302 0)
(4.89732 0.698589 0)
(5.27383 0.685303 1.00506e-17)
(5.66259 0.667591 0)
(6.08843 0.627304 9.92938e-18)
(6.54512 0.590546 0)
(7.01618 0.561116 0)
(7.5065 0.528132 9.73748e-18)
(8.0493 0.482043 0)
(8.62624 0.442383 -9.61236e-18)
(9.22412 0.396884 0)
(9.87917 0.335553 9.49223e-18)
(10.578 0.278054 0)
(11.2954 0.245298 0)
(12.07 0.179453 0)
(12.9286 0.140731 0)
(13.7718 0.126187 0)
(14.6409 0.0891338 -9.14128e-18)
(15.4998 0.0518511 0)
(16.3937 0.0075316 1.80532e-17)
(17.341 -0.029778 0)
(18.3062 -0.0475745 -1.78258e-17)
(19.254 -0.0428002 0)
(20.156 -0.00857977 0)
(21.011 0.0568416 1.74963e-17)
(21.7746 0.142024 0)
(22.4046 0.19376 1.73094e-17)
(22.8896 0.277327 -1.72007e-17)
(23.2438 0.4403 0)
(23.3876 0.61206 -1.70127e-17)
(23.228 0.608865 -1.69684e-17)
(22.9332 0.397857 0)
(22.6585 0.0923534 0)
(22.4237 -0.154579 0)
(22.2076 -0.23364 0)
(22.0265 -0.159247 0)
(21.9101 -0.113639 1.63579e-17)
(21.7551 -0.0706791 0)
(21.5982 -0.093689 -1.60945e-17)
(21.3329 -0.2187 0)
(20.8996 -0.268372 0)
(20.6368 -0.254803 1.56741e-17)
(20.6315 -0.127498 0)
(20.4031 -0.0264916 -1.56789e-17)
(20.0773 -0.299731 0)
(20.0297 -0.729119 0)
(19.9326 -1.04616 0)
(19.8962 -1.26291 1.51351e-17)
(20.3132 -1.41747 0)
(21.0223 -1.29376 0)
(21.6167 -0.940386 1.47139e-17)
(21.8821 -0.884708 0)
(21.8921 -1.29662 1.4472e-17)
(21.7827 -1.81504 0)
(21.5164 -1.813 0)
(20.6832 -1.26253 0)
(19.0982 -0.525305 -1.46009e-17)
(17.1017 -0.153512 0)
(14.9821 -0.0769796 0)
(12.8946 -0.151027 -1.37466e-17)
(10.909 -0.273757 -1.3551e-17)
(9.06293 -0.399708 0)
(7.36295 -0.506838 -1.3231e-17)
(5.82402 -0.658198 0)
(4.42519 -0.780576 -2.59155e-17)
(3.18746 -0.903429 0)
(2.0561 -1.02009 -2.54251e-17)
(1.01332 -1.10428 0)
(0.0736321 -1.16915 2.49531e-17)
(-0.776807 -1.22457 0)
(-1.54228 -1.28031 0)
(-2.26208 -1.33394 0)
(-2.88211 -1.38121 -2.40726e-17)
(-3.4101 -1.44691 0)
(-3.87861 -1.48932 2.36447e-17)
(-4.24795 -1.54386 0)
(-4.42992 -1.60381 -2.32181e-17)
(-4.61978 -1.57139 -2.29921e-17)
(-4.87896 -1.56661 -2.28107e-17)
(-4.89756 -1.62253 0)
(-4.90362 -1.61253 0)
(-4.90253 -1.57779 0)
(-4.97643 -1.54438 0)
(-4.94439 -1.58728 0)
(-4.97424 -1.51189 0)
(-4.89934 -1.55237 0)
(-4.79156 -1.50218 0)
(-4.69992 -1.48778 2.12525e-17)
(-4.58156 -1.44667 2.11088e-17)
(-4.45918 -1.44058 0)
(-4.3459 -1.39905 0)
(-4.23032 -1.35436 0)
(-4.1247 -1.30337 2.06243e-17)
(-4.04188 -1.26066 0)
(-3.98515 -1.21682 0)
(-3.92877 -1.17317 0)
(-3.93162 -1.11191 0)
(-3.98579 -1.04344 -2.02328e-17)
(-4.08081 -0.989587 0)
(-4.08828 -0.947071 0)
(-3.99055 -0.870045 1.98815e-17)
(-3.75735 -0.805973 -1.98479e-17)
(-3.62948 -0.773688 0)
(-3.42998 -0.740186 -1.96491e-17)
(-3.15358 -0.636671 0)
(-2.77131 -0.585895 1.94127e-17)
(-2.49293 -0.563614 0)
(-2.06379 -0.543155 0)
(-1.43564 -0.591132 0)
(-0.484371 -0.564612 0)
(0.492898 -0.474045 0)
(1.54776 -0.357491 -3.83059e-17)
(2.40899 -0.326941 -3.81323e-17)
(3.21584 -0.36933 0)
(3.69488 -0.209106 0)
(4.23973 -0.258039 0)
(4.48075 -0.133885 3.67852e-17)
(5.01101 -0.0902399 0)
(5.34473 -0.00791343 0)
(5.40971 -0.0282068 0)
(5.75247 -0.0379604 3.55026e-17)
(5.94047 -0.0258822 -3.52306e-17)
(6.34902 -0.0121906 0)
(6.87478 0.0133687 0)
(7.32318 -0.100477 -3.42582e-17)
(8.06615 0.026739 -3.40911e-17)
(8.50581 -0.11185 0)
(9.11757 -0.0134503 0)
(9.49998 -0.135584 3.33636e-17)
(9.95829 -0.0607036 -3.32308e-17)
(10.2624 -0.13253 0)
(10.518 -0.0895058 0)
(10.6537 -0.164699 -3.26014e-17)
(10.6704 -0.209217 0)
(10.8536 -0.277601 0)
(11.0484 -0.326075 -3.20518e-17)
(11.3588 -0.389335 0)
(11.2079 -0.405377 -3.17677e-17)
(11.4793 -0.488478 0)
(11.3646 -0.482686 0)
(11.2039 -0.507368 0)
(11.1247 -0.510009 3.09484e-17)
(10.671 -0.51157 0)
(9.99899 -0.629128 0)
(8.97374 -0.65879 0)
(7.872 -0.763212 0)
(6.68241 -0.791678 0)
(5.57027 -0.786389 0)
(4.53526 -0.809152 2.91327e-17)
(3.21627 -0.770487 2.88955e-17)
(2.28965 -0.845259 0)
(1.39822 -0.981009 0)
(0.949431 -1.07005 0)
(0.485282 -1.17967 -2.81168e-17)
(0.644269 -1.37095 0)
(0.789333 -1.37497 5.68278e-17)
(0.686059 -1.18753 -5.70383e-17)
(-0.200614 -1.14518 -5.73862e-17)
(-2.31113 -1.18429 5.63266e-17)
(-3.57977 -1.18881 -5.50619e-17)
(-4.88946 -1.12491 5.52765e-17)
(-7.23394 -1.20141 0)
(0.0931601 3.09901 0)
(-0.0301444 3.08935 0)
(0.027747 3.12284 -2.26917e-17)
(0.0754531 3.07052 0)
(0.203392 2.86602 2.28318e-17)
(0.414102 2.67695 2.27995e-17)
(0.685273 2.55206 1.13272e-17)
(0.939231 2.50397 1.12179e-17)
(1.19499 2.47734 0)
(1.44421 2.44677 1.1028e-17)
(1.70645 2.4266 0)
(1.97579 2.39886 0)
(2.25663 2.35882 -2.15423e-17)
(2.54447 2.31496 -1.0681e-17)
(2.83417 2.29263 2.12154e-17)
(3.16429 2.25305 2.10517e-17)
(3.49366 2.20694 1.0433e-17)
(3.84461 2.12731 0)
(4.20877 2.04491 0)
(4.56759 1.98377 0)
(4.94329 1.93531 1.01194e-17)
(5.33404 1.8546 0)
(5.74173 1.71712 -2.98876e-17)
(6.15998 1.60034 0)
(6.61426 1.51048 0)
(7.10923 1.39437 -9.73167e-18)
(7.63512 1.23492 0)
(8.18804 1.10788 9.58989e-18)
(8.80406 0.975087 1.90644e-17)
(9.4841 0.765537 -9.46671e-18)
(10.1639 0.560558 0)
(10.9594 0.471508 0)
(11.7354 0.243962 0)
(12.6424 0.0824938 1.84571e-17)
(13.5059 0.00410019 1.83284e-17)
(14.429 -0.135791 9.10854e-18)
(15.3462 -0.231906 0)
(16.3059 -0.398681 -1.80054e-17)
(17.3425 -0.583816 0)
(18.422 -0.724221 1.77589e-17)
(19.5469 -0.746249 0)
(20.6297 -0.733272 0)
(21.6771 -0.710327 -1.74685e-17)
(22.6909 -0.605485 0)
(23.6511 -0.413829 -5.1767e-17)
(24.4885 -0.228966 1.72038e-17)
(25.3099 -0.0634454 0)
(26.0609 0.213621 1.69192e-17)
(26.5712 0.687254 1.68771e-17)
(26.8856 0.977865 0)
(26.9503 0.926319 0)
(26.7319 0.909038 0)
(26.035 0.784837 0)
(25.2027 0.404352 0)
(24.7456 -0.18545 -1.6237e-17)
(24.1138 -0.312362 -3.20721e-17)
(23.6064 -0.208362 1.58252e-17)
(23.3317 -0.318374 0)
(22.7132 -0.322396 -3.10772e-17)
(22.3887 -0.93296 1.54903e-17)
(22.2854 -1.79096 0)
(21.907 -1.67156 1.53365e-17)
(21.9684 -1.73652 0)
(22.3768 -2.07974 0)
(22.2462 -1.91205 2.99439e-17)
(22.1372 -2.36575 -1.49662e-17)
(22.5326 -3.62144 2.97806e-17)
(23.0465 -4.35965 -2.94025e-17)
(23.3357 -4.37393 -1.45218e-17)
(23.1283 -3.86531 0)
(21.9205 -3.01904 -1.4328e-17)
(19.6924 -2.20508 0)
(17.09 -1.58344 0)
(14.5815 -1.11505 0)
(12.4158 -0.797128 -1.34352e-17)
(10.4876 -0.813237 0)
(8.72477 -1.02328 -2.61552e-17)
(7.06091 -1.34292 3.88744e-17)
(5.56516 -1.71448 1.28604e-17)
(4.216 -2.08765 0)
(2.92899 -2.44745 1.26924e-17)
(1.79458 -2.79433 0)
(0.808253 -3.1394 2.51204e-17)
(-0.101546 -3.47149 0)
(-0.907776 -3.72686 2.47727e-17)
(-1.67239 -3.92179 -4.91056e-17)
(-2.33776 -4.12851 -2.43682e-17)
(-2.94948 -4.28964 0)
(-3.48435 -4.4331 0)
(-3.98738 -4.59602 0)
(-4.39527 -4.74372 2.36721e-17)
(-4.72301 -4.8899 0)
(-4.9815 -4.99388 -2.32889e-17)
(-5.16288 -5.18089 0)
(-5.12606 -5.2461 6.87797e-17)
(-5.17029 -5.09358 2.24781e-17)
(-5.31108 -5.18462 2.23488e-17)
(-5.04689 -5.34278 0)
(-5.00033 -5.22784 0)
(-4.77862 -5.13985 0)
(-4.93126 -4.97872 0)
(-4.61731 -5.11058 0)
(-4.63356 -4.84487 4.16689e-17)
(-4.39685 -4.95177 4.14289e-17)
(-4.18917 -4.74634 0)
(-3.95333 -4.69499 -2.01634e-17)
(-3.7557 -4.52979 -1.99044e-17)
(-3.51706 -4.47946 0)
(-3.3005 -4.33124 -3.89614e-17)
(-3.07914 -4.1918 0)
(-2.905 -4.02309 1.91359e-17)
(-2.73084 -3.85174 0)
(-2.60441 -3.68945 0)
(-2.43525 -3.49831 -3.75171e-17)
(-2.36148 -3.2868 0)
(-2.37968 -3.12125 1.86184e-17)
(-2.42651 -2.9136 0)
(-2.31925 -2.84874 0)
(-2.28505 -2.85901 1.84206e-17)
(-1.96626 -2.72896 1.82318e-17)
(-1.60729 -2.38739 0)
(-1.40382 -2.3082 -1.84073e-17)
(-1.35878 -2.25271 0)
(-0.873365 -2.03673 1.79064e-17)
(-0.307312 -1.71305 3.56594e-17)
(0.101131 -1.62689 0)
(0.4988 -1.70344 0)
(1.24624 -1.79705 0)
(2.2029 -1.57777 0)
(3.07495 -1.39761 3.73954e-17)
(3.67605 -1.06797 1.12164e-16)
(4.24845 -0.657818 0)
(3.82423 -0.398021 0)
(3.93224 -0.171961 0)
(3.84976 0.0639871 -3.57464e-17)
(3.86631 -0.263918 0)
(3.64618 0.130962 0)
(3.96006 0.140023 6.87402e-17)
(4.17298 0.197076 3.45101e-17)
(4.66113 -0.0509545 3.41499e-17)
(4.48703 -0.300989 0)
(5.84773 -0.262793 0)
(5.76214 -0.662711 3.29657e-17)
(7.16207 -0.417632 -3.29989e-17)
(7.34603 -0.756689 0)
(8.25932 -0.510636 0)
(8.78874 -0.768147 -3.21166e-17)
(9.25196 -0.605151 9.61745e-17)
(9.93856 -0.731478 0)
(10.0023 -0.703514 0)
(10.6997 -0.879255 3.15117e-17)
(10.608 -1.065 0)
(11.3736 -1.3182 6.26154e-17)
(11.6339 -1.54189 -3.11446e-17)
(12.4165 -1.71508 0)
(12.3295 -1.75783 3.11038e-17)
(13.1442 -2.13342 6.23742e-17)
(13.0609 -2.03885 0)
(13.3652 -2.25977 0)
(13.7636 -2.31952 -3.06333e-17)
(13.8303 -2.12714 0)
(13.6809 -2.07718 5.87342e-17)
(12.6617 -1.85183 0)
(11.4526 -1.92464 0)
(9.79341 -2.04626 0)
(8.26023 -2.22187 0)
(6.888 -2.41879 -2.72038e-17)
(5.20129 -2.59534 -2.69978e-17)
(4.3473 -2.88038 0)
(3.33657 -3.19328 0)
(3.13509 -3.59595 0)
(2.83241 -3.93409 2.51318e-17)
(3.619 -4.27463 0)
(3.00279 -4.40729 -5.28517e-17)
(3.03871 -4.11186 5.36178e-17)
(2.72573 -3.54992 5.55384e-17)
(-0.311481 -3.30253 5.3275e-17)
(-1.65091 -3.81431 5.08991e-17)
(-2.50873 -3.63311 4.9886e-17)
(-4.76901 -3.7103 0)
(0.187345 5.32621 0)
(0.0245471 5.51072 0)
(-0.0220369 5.27852 2.30844e-17)
(-0.0153946 5.06544 2.32736e-17)
(0.101743 4.68987 -2.30287e-17)
(0.325593 4.37479 -2.28918e-17)
(0.63156 4.24069 3.03044e-20)
(0.904095 4.23242 0)
(1.14325 4.2293 0)
(1.39626 4.20191 0)
(1.61767 4.14043 0)
(1.7897 4.07813 0)
(1.99811 4.10003 6.46742e-17)
(2.34806 4.02227 0)
(2.64891 3.81098 -2.10773e-17)
(2.86383 3.66951 -2.08309e-17)
(3.07401 3.57982 0)
(3.31948 3.51092 0)
(3.60245 3.40933 0)
(3.90222 3.31303 0)
(4.19199 3.19967 -1.99487e-17)
(4.49873 3.07673 0)
(4.80546 2.94125 1.96595e-17)
(5.11771 2.80004 0)
(5.5016 2.63753 0)
(5.89974 2.42587 0)
(6.35979 2.19727 3.83779e-17)
(6.89261 1.93442 0)
(7.47834 1.63436 -1.89403e-17)
(8.1221 1.29077 3.76766e-17)
(8.80797 0.986522 0)
(9.63848 0.760119 0)
(10.3662 0.401283 0)
(11.2422 0.244573 -1.83916e-17)
(12.1005 0.0424207 -1.83155e-17)
(12.9683 -0.183172 0)
(13.9304 -0.437974 0)
(14.9142 -0.763797 3.60282e-17)
(15.967 -1.0294 3.58558e-17)
(16.9853 -1.25432 -3.56817e-17)
(18.1128 -1.43809 0)
(19.2557 -1.46103 0)
(20.4053 -1.38592 0)
(21.4543 -1.25197 0)
(22.4958 -1.08939 3.46288e-17)
(23.5474 -1.04987 3.45348e-17)
(24.6277 -0.876997 -3.4218e-17)
(25.6187 -0.316644 0)
(26.3563 0.20101 0)
(27.1155 0.383843 0)
(27.5568 0.694267 0)
(27.77 1.07181 3.29488e-17)
(27.9611 1.33006 0)
(27.4902 1.22738 0)
(27.2175 0.519382 3.26513e-17)
(26.4515 0.458416 3.23196e-17)
(25.7046 0.264843 0)
(25.7821 -0.784145 -6.43356e-17)
(24.9873 -0.542025 3.15438e-17)
(24.8194 -0.94949 -3.11208e-17)
(24.6954 -1.92183 0)
(23.6321 -1.76602 0)
(23.4992 -2.91943 0)
(23.2978 -3.98531 0)
(22.7976 -3.48631 -3.0174e-17)
(23.0966 -4.47852 -6.02476e-17)
(23.119 -6.21295 -2.9884e-17)
(22.1491 -6.10994 2.91831e-17)
(20.5563 -4.52215 0)
(18.6253 -3.0274 -5.64726e-17)
(16.5016 -2.06011 -5.58968e-17)
(14.4173 -1.45944 -5.52303e-17)
(12.6187 -1.2186 5.46096e-17)
(10.8876 -1.15093 0)
(9.33845 -1.3087 8.08307e-17)
(8.0083 -1.63609 0)
(6.81572 -2.10574 -2.68139e-17)
(5.71463 -2.62066 -2.68629e-17)
(4.70597 -3.19641 0)
(3.66693 -3.7844 0)
(2.67773 -4.35971 -5.34e-17)
(1.77135 -4.90252 0)
(0.928242 -5.46468 -5.31995e-17)
(0.186974 -5.91511 0)
(-0.524965 -6.30945 5.27033e-17)
(-1.24894 -6.62306 1.04756e-16)
(-1.88194 -6.95834 0)
(-2.42134 -7.25444 0)
(-2.93875 -7.47625 0)
(-3.44773 -7.72758 5.10415e-17)
(-3.89637 -8.01841 0)
(-4.24917 -8.2539 5.05463e-17)
(-4.47859 -8.42483 0)
(-4.62237 -8.70425 0)
(-4.68305 -8.81977 -9.95579e-17)
(-4.74317 -8.56667 0)
(-4.87236 -8.78887 -4.8628e-17)
(-4.5603 -9.0692 0)
(-4.44926 -8.87231 -4.7674e-17)
(-4.00083 -8.56669 0)
(-4.47556 -8.2895 0)
(-4.02184 -8.67221 0)
(-4.11845 -8.09131 -1.36145e-16)
(-3.81109 -8.36356 -4.52327e-17)
(-3.636 -8.03762 0)
(-3.32502 -7.93742 0)
(-3.12143 -7.63486 0)
(-2.78458 -7.55934 0)
(-2.51428 -7.27098 4.16128e-17)
(-2.20364 -7.0184 -8.19816e-17)
(-2.02006 -6.73073 -4.02361e-17)
(-1.85028 -6.47131 7.92452e-17)
(-1.76739 -6.18792 7.78262e-17)
(-1.57394 -5.95647 3.80255e-17)
(-1.42846 -5.48832 0)
(-1.32397 -5.09802 7.33745e-17)
(-1.52401 -5.01769 0)
(-1.52249 -4.81137 -7.24776e-17)
(-1.42093 -4.55507 -3.63343e-17)
(-1.29309 -4.56095 0)
(-1.06488 -4.21217 7.13182e-17)
(-0.509185 -3.63743 3.5392e-17)
(-0.342596 -3.4147 0)
(-0.339416 -3.55753 3.50751e-17)
(0.131124 -3.07068 -1.02694e-16)
(0.850433 -2.64166 0)
(1.17794 -2.60949 0)
(1.50765 -2.75597 0)
(1.9284 -2.56066 0)
(2.6607 -2.01375 -7.49121e-17)
(2.9864 -1.43921 -7.49298e-17)
(3.7668 -0.843316 0)
(3.40911 -0.264307 0)
(3.45063 -0.332946 0)
(3.48537 0.0742855 0)
(4.44831 0.0391594 0)
(2.96834 0.207213 0)
(3.72121 -0.204633 -6.7529e-17)
(3.39215 -0.287179 1.64635e-19)
(5.41904 -0.166209 0)
(4.23181 -0.741201 0)
(6.71962 -0.608823 -6.6421e-17)
(6.28684 -1.07617 0)
(7.98146 -0.778368 6.55774e-17)
(8.44095 -1.18448 6.51612e-17)
(9.10244 -0.882698 0)
(10.1697 -1.20778 0)
(10.1656 -1.10722 -6.37359e-17)
(11.4752 -1.19833 -1.27521e-16)
(11.1519 -1.31968 0)
(12.2557 -1.64567 0)
(11.8554 -1.84132 0)
(12.9337 -2.36307 -6.31759e-17)
(12.8896 -2.72329 6.28259e-17)
(14.0999 -2.92437 0)
(13.8469 -2.88748 1.25368e-16)
(14.9723 -3.64461 6.33734e-17)
(14.6941 -3.33554 -1.26866e-16)
(14.587 -3.90891 0)
(14.8611 -4.20079 0)
(15.2144 -3.90889 -1.26761e-16)
(15.7795 -3.72052 -6.17182e-17)
(15.1239 -3.23212 0)
(14.3407 -3.2434 0)
(12.876 -3.34042 0)
(11.1184 -3.59041 0)
(9.5848 -3.81057 -1.07315e-16)
(7.65956 -4.06246 0)
(6.40289 -4.67638 0)
(4.87933 -5.31247 0)
(4.72337 -5.91435 0)
(4.03483 -6.51808 0)
(4.82405 -6.89373 0)
(3.40774 -6.87259 -1.05293e-16)
(2.72958 -6.82655 0)
(3.36007 -6.0097 0)
(0.513483 -5.15742 -2.04142e-16)
(-1.57687 -6.17676 1.04875e-16)
(-3.21408 -5.97708 -1.03137e-16)
(-5.07969 -6.15942 1.00233e-16)
(0.259578 7.15816 0)
(0.275933 7.87719 -4.38067e-17)
(0.232045 7.59148 0)
(0.237856 7.15227 -2.30542e-17)
(0.326929 6.53509 0)
(0.50014 5.98893 0)
(0.719065 5.73856 2.29316e-17)
(0.878103 5.75818 0)
(1.00615 5.7953 0)
(1.10009 5.79888 0)
(1.25411 5.90595 0)
(1.67069 5.91685 0)
(1.91995 5.39407 -8.47504e-17)
(1.80328 5.07003 -4.15382e-17)
(1.84076 5.42985 4.12191e-17)
(2.03825 5.53004 0)
(2.19187 5.41876 0)
(2.43977 5.16071 0)
(2.65266 4.95062 0)
(2.87323 4.82165 0)
(3.06852 4.72442 -4.01406e-17)
(3.28154 4.61433 -3.99044e-17)
(3.50526 4.41054 3.96382e-17)
(3.78561 4.16273 -3.93598e-17)
(4.15629 3.85528 0)
(4.58019 3.47075 0)
(5.0747 3.0715 -3.85e-17)
(5.63921 2.63642 0)
(6.27507 2.19142 0)
(6.99463 1.68529 -3.77747e-17)
(7.76288 1.23171 -3.76299e-17)
(8.62146 0.916626 -3.7467e-17)
(9.38867 0.556133 0)
(10.2542 0.263714 0)
(11.1032 -0.0672488 3.68458e-17)
(11.9654 -0.34375 0)
(12.8846 -0.780554 0)
(13.7795 -1.19997 -3.61595e-17)
(14.7965 -1.6279 3.59684e-17)
(15.7922 -1.96458 -3.56728e-17)
(16.8426 -2.24992 0)
(17.9406 -2.27306 0)
(19.0651 -2.20096 -7.01341e-17)
(20.113 -2.15927 0)
(21.2051 -2.19435 -6.95114e-17)
(22.3923 -2.19432 -1.03528e-16)
(23.5161 -2.00784 1.02832e-16)
(24.6022 -1.35873 -6.81697e-17)
(25.557 -0.780484 0)
(26.2784 -0.436193 0)
(26.7951 0.188559 -6.69243e-17)
(27.5881 0.500972 -3.3238e-17)
(28.0186 1.02882 0)
(27.8149 1.37665 0)
(27.9866 0.652211 -3.26857e-17)
(27.2085 0.769943 -6.43079e-17)
(27.0223 0.21287 0)
(27.1095 -1.20964 6.50914e-17)
(25.8334 -0.772273 -6.32167e-17)
(26.1643 -1.61078 6.29768e-17)
(25.9266 -2.61863 0)
(24.7245 -2.26288 0)
(24.8977 -3.46409 0)
(24.19 -4.48334 0)
(23.4555 -4.6525 0)
(23.1701 -5.69085 6.05048e-17)
(21.751 -5.98599 0)
(19.645 -5.17777 0)
(17.6001 -3.93149 0)
(15.605 -2.94221 1.12322e-16)
(13.6885 -2.34182 5.56189e-17)
(12.0518 -1.95698 5.52606e-17)
(10.6974 -2.01227 -1.10266e-16)
(9.52576 -2.32804 5.50146e-17)
(8.51722 -2.79789 -5.49334e-17)
(7.53124 -3.36097 0)
(6.5852 -4.01962 5.47297e-17)
(5.63681 -4.71136 0)
(4.65527 -5.41207 0)
(3.72102 -6.04427 0)
(2.80491 -6.66512 1.07819e-16)
(1.84746 -7.36265 -5.38104e-17)
(0.99983 -8.04287 -5.362e-17)
(0.217766 -8.58922 -1.06807e-16)
(-0.495287 -9.0768 -1.59184e-16)
(-1.13466 -9.49134 -5.26452e-17)
(-1.72919 -9.91596 0)
(-2.23424 -10.3356 -1.03823e-16)
(-2.67871 -10.6101 0)
(-3.10395 -10.8496 -1.52998e-16)
(-3.4587 -11.2109 0)
(-3.84903 -11.61 -1.51778e-16)
(-4.08586 -11.8844 0)
(-4.16737 -12.158 0)
(-4.33318 -12.3892 -4.99002e-17)
(-4.36597 -12.1041 0)
(-4.29799 -12.3628 4.90662e-17)
(-4.25548 -12.7598 9.80672e-17)
(-3.95808 -12.6461 4.85676e-17)
(-3.28438 -12.0002 9.4817e-17)
(-3.78081 -11.4628 -9.37775e-17)
(-3.26447 -12.2435 -9.37985e-17)
(-3.47791 -11.3428 1.84993e-16)
(-3.06945 -11.736 0)
(-2.98336 -11.3517 0)
(-2.57233 -11.2234 9.09829e-17)
(-2.52379 -10.8634 -9.00828e-17)
(-2.08633 -10.7954 0)
(-1.81572 -10.4405 0)
(-1.39643 -10.0656 8.7437e-17)
(-1.18204 -9.5775 0)
(-0.933738 -9.20254 1.23011e-19)
(-0.859849 -8.79549 1.25806e-19)
(-0.666606 -8.46848 8.3718e-17)
(-0.579687 -7.97608 0)
(-0.239224 -7.27875 -7.73684e-17)
(-0.183148 -6.64175 0)
(-0.431641 -6.64677 7.71061e-17)
(-0.480461 -6.54238 0)
(-0.184254 -6.28533 0)
(-0.406442 -5.93937 -7.35228e-17)
(-0.0941201 -5.51464 -7.11524e-17)
(0.165778 -4.81485 0)
(0.431969 -4.5529 -7.08127e-17)
(0.581885 -4.41704 1.37299e-16)
(1.32108 -3.88423 0)
(1.6632 -3.44599 0)
(1.7441 -3.46451 0)
(1.94781 -3.18697 0)
(2.54574 -2.72028 7.44931e-17)
(2.75469 -2.22666 -1.47246e-16)
(3.21627 -1.38675 0)
(3.14415 -0.430095 0)