/*--------------------------------*- C++ -*----------------------------------*\
| =========                 |                                                 |
| \\      /  F ield         | OpenFOAM: The Open Source CFD Toolbox           |
|  \\    /   O peration     | Version:  dev                                   |
|   \\  /    A nd           | Web:      http://www.openfoam.org               |
|    \\/     M anipulation  |                                                 |
\*---------------------------------------------------------------------------*/
FoamFile
{
    version     2.0;
    format      ascii;
    class       volVectorField;
    object      U_0;
    location    "9.126";
}
// * * * * * * * * * * * * * * * * * * * * * * * * * * * * * * * * * * * * * //

dimensions      [0 1 -1 0 0 0 0];

internalField   nonuniform List<vector> 
12225
(
(6.13755 0.158278 0)
(1.4362 -0.208978 0)
(-2.45601 -0.359028 0)
(-4.22834 -0.426455 0)
(-7.12222 -0.362828 0)
(-7.63282 -0.455843 0)
(-10.5054 -0.290753 0)
(-10.4629 -0.457197 0)
(-13.5314 -0.195441 0)
(-12.8351 -0.467867 0)
(-16.449 -0.0864588 0)
(-14.8844 -0.463164 0)
(-19.0582 -0.0168893 0)
(-17.0702 -0.395401 0)
(-20.2392 -0.198405 0)
(-17.0139 -0.439724 0)
(-9.83107 -0.443181 0)
(-28.4826 15.3879 0)
(8.54933 -0.236141 0)
(6.51107 -0.413645 0)
(1.51546 -0.769394 0)
(0.79837 -0.997084 0)
(-4.84089 -1.01963 0)
(-3.17635 -1.22968 0)
(-9.51274 -0.905963 0)
(-5.99822 -1.23914 0)
(-13.654 -0.747069 0)
(-7.84324 -1.18559 0)
(-17.4067 -0.536271 0)
(-9.12344 -1.2447 0)
(-20.2263 0.0691961 0)
(-10.3638 -1.98415 0)
(-22.4256 0.26813 0)
(-10.9646 -3.24868 0)
(-22.6209 -4.03631 0)
(-35.7888 7.27347 0)
(7.92272 -1.36326 0)
(9.30199 -1.19868 0)
(3.0967 -1.55258 0)
(5.31338 -1.62004 0)
(-2.80949 -1.76305 0)
(1.80211 -1.90592 0)
(-7.53893 -1.61863 0)
(-0.832471 -1.99859 0)
(-11.2325 -1.43682 0)
(-3.18276 -2.05289 0)
(-13.2521 -1.08921 0)
(-6.09183 -2.13375 0)
(-15.0883 -0.460236 0)
(-9.26763 -2.00947 0)
(-19.0627 -0.153271 0)
(-11.0384 -2.88483 0)
(-27.0031 2.14619 0)
(-29.0539 3.92998 0)
(6.14571 -2.71287 0)
(11.3634 -2.22618 0)
(3.10112 -2.61214 0)
(7.65799 -2.47426 0)
(-0.809089 -2.63838 0)
(4.02369 -2.80606 0)
(-4.00018 -2.35267 0)
(0.650097 -3.00828 0)
(-6.85302 -1.96459 0)
(-2.41536 -3.32238 0)
(-9.42801 -1.29369 0)
(-5.43967 -3.53845 0)
(-12.4104 -0.341962 0)
(-8.42737 -3.22254 0)
(-15.806 -0.185434 0)
(-16.5866 -2.36496 0)
(-18.9244 2.24831 0)
(-30.4376 9.69598 0)
(5.93543 -3.60204 0)
(10.4753 -3.84277 0)
(4.40779 -3.53884 0)
(6.38051 -3.93024 0)
(1.55742 -3.38767 0)
(2.59332 -4.11816 0)
(-1.01518 -3.11651 0)
(-0.767565 -4.14202 0)
(-4.01631 -2.54879 0)
(-3.76251 -4.33609 0)
(-7.074 -1.6978 0)
(-6.31498 -4.20615 0)
(-10.862 -0.27781 0)
(-9.17623 -3.83846 0)
(-14.0039 2.0458 0)
(-15.4402 -6.80716 0)
(-14.5657 5.15003 0)
(-22.4755 12.4669 0)
(8.18211 -4.78684 0)
(7.43677 -5.40571 0)
(5.48395 -4.73296 0)
(3.442 -5.30324 0)
(2.32355 -4.54626 0)
(0.250858 -5.36223 0)
(-0.210742 -4.19262 0)
(-2.6543 -5.22368 0)
(-3.08948 -3.42719 0)
(-5.15166 -5.38241 0)
(-5.84916 -2.42883 0)
(-7.57791 -4.99611 0)
(-8.65369 -1.06554 0)
(-10.2562 -4.24725 0)
(-11.2348 2.33748 0)
(-12.3546 -3.90196 0)
(-15.484 6.17301 0)
(-17.4926 11.7876 0)
(8.97542 -5.73075 0)
(6.28117 -7.21309 0)
(5.89127 -5.59988 0)
(3.03587 -7.05827 0)
(2.74206 -5.38409 0)
(0.244913 -7.08689 0)
(0.0464872 -4.85385 0)
(-2.50765 -6.84692 0)
(-2.4298 -4.00762 0)
(-4.90123 -6.8141 0)
(-4.90666 -2.93468 0)
(-7.13545 -6.06236 0)
(-6.62198 -1.4344 0)
(-9.43311 -5.05386 0)
(-8.5046 1.16811 0)
(-10.991 -4.12078 0)
(-14.603 5.49082 0)
(-9.94233 5.4813 0)
(9.2931 -7.10254 0)
(6.70167 -8.38896 0)
(5.9686 -6.91306 0)
(3.50034 -8.21081 0)
(2.76267 -6.79017 0)
(0.596896 -8.0249 0)
(-0.151508 -6.23766 0)
(-2.02531 -7.7039 0)
(-2.54144 -5.38093 0)
(-4.2361 -7.26376 0)
(-4.9769 -4.47575 0)
(-6.10452 -6.31127 0)
(-6.99539 -3.1908 0)
(-8.00738 -4.91727 0)
(-9.14788 -0.849658 0)
(-9.35584 -2.76708 0)
(-12.5928 1.51179 0)
(-8.41788 4.85261 0)
(9.25571 -8.14448 0)
(6.71384 -9.86982 0)
(6.01844 -7.82787 0)
(3.59735 -9.64505 0)
(2.93975 -7.63119 0)
(0.622908 -9.36134 0)
(0.0376621 -7.08227 0)
(-1.91976 -8.88228 0)
(-2.32442 -6.21057 0)
(-4.00696 -8.2819 0)
(-4.51317 -5.44585 0)
(-5.93865 -7.16999 0)
(-6.52224 -4.06162 0)
(-7.91928 -5.44619 0)
(-8.34498 -1.82606 0)
(-9.14651 -2.89652 0)
(-9.98615 0.934429 0)
(-9.40604 3.34828 0)
(9.2098 -9.57648 0)
(6.76418 -10.987 0)
(5.89541 -9.24119 0)
(3.74172 -10.6356 0)
(2.73054 -9.07343 0)
(0.802904 -10.1827 0)
(-0.153316 -8.51582 0)
(-1.57761 -9.5436 0)
(-2.47786 -7.7308 0)
(-3.53971 -8.69256 0)
(-4.54859 -6.9414 0)
(-5.37775 -7.32781 0)
(-6.42981 -5.62387 0)
(-7.09249 -5.37932 0)
(-7.89955 -3.47556 0)
(-8.0974 -2.74219 0)
(-8.78119 -1.0247 0)
(-8.00484 1.2256 0)
(9.08096 -10.7691 0)
(6.88006 -12.5314 0)
(5.87578 -10.7428 0)
(3.81599 -12.1926 0)
(2.7597 -10.4914 0)
(0.89664 -11.6816 0)
(-0.0922668 -9.89274 0)
(-1.41842 -10.8818 0)
(-2.3967 -9.10517 0)
(-3.45129 -9.84815 0)
(-4.36086 -8.15697 0)
(-5.24222 -8.39117 0)
(-5.99516 -6.77485 0)
(-6.71975 -6.35103 0)
(-7.20056 -4.80978 0)
(-7.48286 -3.7861 0)
(-7.60262 -2.39448 0)
(-7.22785 -0.680143 0)
(9.40222 -12.2867 0)
(7.37414 -13.7892 0)
(5.84815 -12.5507 0)
(3.88977 -13.2978 0)
(2.52043 -12.206 0)
(0.934466 -12.6716 0)
(-0.261214 -11.5034 0)
(-1.29925 -11.7635 0)
(-2.40533 -10.746 0)
(-3.27739 -10.6466 0)
(-4.183 -9.74115 0)
(-4.84459 -9.14804 0)
(-5.54314 -8.21537 0)
(-6.06335 -7.34918 0)
(-6.44043 -6.22924 0)
(-6.53451 -5.07679 0)
(-6.49685 -3.89668 0)
(-6.16575 -2.60929 0)
(9.09733 -14.0658 0)
(7.36246 -15.2829 0)
(5.64843 -14.2407 0)
(3.9438 -14.8054 0)
(2.52465 -13.9097 0)
(1.13618 -14.185 0)
(-0.115813 -13.1936 0)
(-1.148 -13.1654 0)
(-2.17138 -12.3328 0)
(-2.97868 -12.0342 0)
(-3.71444 -11.2257 0)
(-4.32069 -10.5667 0)
(-4.85587 -9.69327 0)
(-5.21725 -8.8144 0)
(-5.43101 -7.81544 0)
(-5.50462 -6.77963 0)
(-5.47446 -5.78643 0)
(-5.16955 -4.72481 0)
(8.98055 -15.4526 0)
(7.37408 -16.5942 0)
(5.62146 -16.0701 0)
(4.00092 -16.1375 0)
(2.58396 -15.5778 0)
(1.35331 -15.3954 0)
(0.212261 -14.7833 0)
(-0.726439 -14.43 0)
(-1.71295 -13.8336 0)
(-2.49849 -13.3399 0)
(-3.14759 -12.6959 0)
(-3.67615 -12.0197 0)
(-4.10725 -11.2191 0)
(-4.40225 -10.3627 0)
(-4.53526 -9.47311 0)
(-4.51332 -8.55156 0)
(-4.4272 -7.60189 0)
(-4.16305 -6.71956 0)
(9.11998 -16.99 0)
(7.52137 -17.8664 0)
(5.80352 -17.5197 0)
(4.22368 -17.5297 0)
(2.84553 -17.19 0)
(1.70852 -16.9055 0)
(0.695852 -16.3995 0)
(-0.124922 -15.9332 0)
(-0.962336 -15.3742 0)
(-1.67251 -14.7525 0)
(-2.25711 -14.1144 0)
(-2.69766 -13.4542 0)
(-3.0479 -12.7198 0)
(-3.27757 -11.9368 0)
(-3.42135 -11.1377 0)
(-3.34125 -10.372 0)
(-3.2053 -9.56647 0)
(-2.98131 -8.79118 0)
(9.19749 -18.0021 0)
(7.73145 -18.9904 0)
(6.16826 -18.7146 0)
(4.6735 -18.5776 0)
(3.29894 -18.2668 0)
(2.12192 -17.9344 0)
(1.09039 -17.4942 0)
(0.275683 -17.0437 0)
(-0.42568 -16.54 0)
(-0.96619 -15.9639 0)
(-1.45065 -15.3476 0)
(-1.75122 -14.7235 0)
(-1.95989 -14.0598 0)
(-2.06143 -13.3651 0)
(-2.15278 -12.6452 0)
(-2.12004 -11.9286 0)
(-2.02459 -11.2405 0)
(-1.7803 -10.6008 0)
(9.30579 -18.5974 0)
(7.71762 -19.4054 0)
(6.18531 -19.1089 0)
(4.81037 -18.9599 0)
(3.57715 -18.6789 0)
(2.54278 -18.3544 0)
(1.63365 -17.9948 0)
(0.909781 -17.6257 0)
(0.293801 -17.214 0)
(-0.158615 -16.7642 0)
(-0.55276 -16.2487 0)
(-0.789956 -15.672 0)
(-0.930483 -15.0674 0)
(-0.974545 -14.444 0)
(-0.976754 -13.8174 0)
(-0.864635 -13.1786 0)
(-0.799016 -12.5401 0)
(-0.592916 -11.9551 0)
(9.09629 -18.0713 0)
(7.70297 -19.0724 0)
(6.36422 -18.8728 0)
(5.14904 -18.7427 0)
(4.05015 -18.5053 0)
(3.11648 -18.1933 0)
(2.28069 -17.8415 0)
(1.61735 -17.4544 0)
(1.05389 -17.0547 0)
(0.651212 -16.6555 0)
(0.336802 -16.2404 0)
(0.162053 -15.7917 0)
(0.0595614 -15.3072 0)
(0.0444437 -14.8095 0)
(0.0702542 -14.2692 0)
(0.227644 -13.7532 0)
(0.374891 -13.2236 0)
(0.63953 -12.7144 0)
(9.45396 -17.0654 0)
(8.1068 -18.0715 0)
(6.80843 -17.7708 0)
(5.61565 -17.5513 0)
(4.53142 -17.3228 0)
(3.63954 -17.0878 0)
(2.8785 -16.8086 0)
(2.29742 -16.5129 0)
(1.80435 -16.2015 0)
(1.45648 -15.8787 0)
(1.19279 -15.5583 0)
(1.06928 -15.2065 0)
(1.01257 -14.8288 0)
(1.06459 -14.4311 0)
(1.1291 -14.0102 0)
(1.25499 -13.5595 0)
(1.39582 -13.1117 0)
(1.64267 -12.6833 0)
(9.47151 -15.4493 0)
(8.04559 -16.3758 0)
(6.74055 -16.1855 0)
(5.64293 -16.0354 0)
(4.70176 -15.8325 0)
(3.97084 -15.6128 0)
(3.33322 -15.3784 0)
(2.83704 -15.1158 0)
(2.43835 -14.8511 0)
(2.13806 -14.5774 0)
(1.91938 -14.2988 0)
(1.81452 -14.0067 0)
(1.78665 -13.7085 0)
(1.83886 -13.3898 0)
(1.95766 -13.0861 0)
(2.13515 -12.7404 0)
(2.26027 -12.3637 0)
(2.4936 -12.0009 0)
(9.33857 -13.7088 0)
(8.22518 -14.4374 0)
(7.01246 -14.3473 0)
(5.92685 -14.2882 0)
(5.00931 -14.164 0)
(4.29119 -13.9633 0)
(3.70867 -13.757 0)
(3.26951 -13.5363 0)
(2.90079 -13.296 0)
(2.66728 -13.0788 0)
(2.50002 -12.8547 0)
(2.43192 -12.624 0)
(2.44936 -12.3855 0)
(2.53238 -12.1362 0)
(2.66606 -11.8801 0)
(2.8788 -11.6254 0)
(3.06367 -11.3382 0)
(3.26764 -11.0549 0)
(9.20096 -11.9685 0)
(8.07391 -12.5753 0)
(7.02928 -12.455 0)
(6.07182 -12.4157 0)
(5.21768 -12.3438 0)
(4.50983 -12.193 0)
(3.94104 -12.0025 0)
(3.56444 -11.8143 0)
(3.3147 -11.6213 0)
(3.17378 -11.4478 0)
(3.09842 -11.2798 0)
(3.08638 -11.0884 0)
(3.11711 -10.8933 0)
(3.20786 -10.6821 0)
(3.32204 -10.4714 0)
(3.49484 -10.2375 0)
(3.65735 -10.0175 0)
(3.86409 -9.81427 0)
(9.42523 -10.0357 0)
(8.29124 -10.7396 0)
(7.27494 -10.7719 0)
(6.37074 -10.7188 0)
(5.55378 -10.5928 0)
(4.85092 -10.4559 0)
(4.29522 -10.3253 0)
(3.87494 -10.1915 0)
(3.56983 -10.0615 0)
(3.38815 -9.91359 0)
(3.29093 -9.76387 0)
(3.25444 -9.57665 0)
(3.28644 -9.37772 0)
(3.39064 -9.17134 0)
(3.54582 -8.99758 0)
(3.76155 -8.78856 0)
(3.94431 -8.64123 0)
(4.21359 -8.47001 0)
(9.03149 -8.35841 0)
(8.2633 -8.9723 0)
(7.47029 -8.9857 0)
(6.66407 -8.94298 0)
(5.87991 -8.85822 0)
(5.17795 -8.73133 0)
(4.58783 -8.59139 0)
(4.139 -8.45746 0)
(3.82543 -8.32816 0)
(3.63598 -8.20836 0)
(3.56348 -8.11049 0)
(3.56914 -8.01438 0)
(3.65065 -7.89731 0)
(3.75998 -7.77565 0)
(3.94564 -7.62918 0)
(4.15645 -7.48953 0)
(4.3609 -7.35208 0)
(4.67321 -7.17987 0)
(9.26678 -6.90963 0)
(8.42782 -7.54944 0)
(7.59797 -7.55917 0)
(6.75072 -7.44131 0)
(5.96504 -7.28719 0)
(5.30301 -7.13186 0)
(4.79832 -7.02691 0)
(4.43118 -6.94941 0)
(4.17724 -6.8877 0)
(4.03629 -6.81613 0)
(3.95926 -6.72685 0)
(3.94465 -6.63152 0)
(3.98963 -6.52067 0)
(4.07873 -6.41158 0)
(4.22506 -6.26696 0)
(4.39588 -6.18928 0)
(4.60306 -6.04663 0)
(4.87799 -5.92234 0)
(9.51157 -5.46225 0)
(8.7176 -6.02186 0)
(7.88228 -6.00067 0)
(7.01353 -5.90429 0)
(6.24642 -5.8121 0)
(5.62259 -5.69526 0)
(5.16353 -5.60002 0)
(4.79638 -5.51572 0)
(4.51563 -5.43443 0)
(4.30225 -5.36323 0)
(4.1386 -5.27582 0)
(4.04431 -5.20578 0)
(4.00521 -5.13969 0)
(4.05959 -5.08155 0)
(4.14418 -4.99832 0)
(4.31048 -4.93945 0)
(4.49978 -4.84232 0)
(4.71455 -4.75758 0)
(9.51812 -4.19518 0)
(8.79368 -4.72217 0)
(8.00691 -4.70806 0)
(7.16066 -4.61349 0)
(6.32496 -4.51525 0)
(5.61203 -4.4063 0)
(5.01849 -4.33588 0)
(4.54325 -4.24502 0)
(4.13934 -4.18151 0)
(3.84925 -4.08879 0)
(3.60964 -3.99954 0)
(3.46755 -3.93303 0)
(3.34207 -3.88243 0)
(3.33776 -3.85044 0)
(3.31061 -3.8087 0)
(3.35968 -3.73233 0)
(3.40652 -3.68328 0)
(3.46966 -3.60571 0)
(9.42747 -3.13028 0)
(9.0571 -3.56158 0)
(8.24761 -3.47225 0)
(7.1578 -3.34014 0)
(5.94598 -3.21081 0)
(4.86681 -3.07475 0)
(3.90231 -3.00274 0)
(3.10721 -2.91037 0)
(2.44597 -2.86439 0)
(1.93349 -2.79435 0)
(1.55039 -2.72523 0)
(1.24948 -2.6779 0)
(0.986175 -2.64514 0)
(0.838987 -2.61764 0)
(0.663862 -2.57814 0)
(0.59602 -2.5026 0)
(0.522306 -2.4528 0)
(0.471151 -2.38058 0)
(9.65896 -2.27286 0)
(8.52293 -2.57311 0)
(6.77603 -2.35457 0)
(4.8898 -2.13198 0)
(3.15186 -1.932 0)
(1.74156 -1.75837 0)
(0.561499 -1.69234 0)
(-0.37505 -1.62259 0)
(-1.10689 -1.58428 0)
(-1.66436 -1.54563 0)
(-2.09257 -1.50893 0)
(-2.4322 -1.47938 0)
(-2.67371 -1.45021 0)
(-2.82894 -1.42827 0)
(-2.94231 -1.39453 0)
(-2.95165 -1.3613 0)
(-2.93918 -1.33954 0)
(-2.90749 -1.30778 0)
(7.83331 -0.899679 0)
(4.42918 -0.902068 0)
(1.54539 -0.656096 0)
(-0.673225 -0.529432 0)
(-2.21449 -0.488327 0)
(-3.31149 -0.47344 0)
(-4.15766 -0.495342 0)
(-4.78984 -0.497652 0)
(-5.27745 -0.484652 0)
(-5.64476 -0.483553 0)
(-5.90467 -0.475358 0)
(-6.06473 -0.465836 0)
(-6.14987 -0.456681 0)
(-6.16493 -0.445126 0)
(-6.12193 -0.437131 0)
(-6.02204 -0.421151 0)
(-5.8655 -0.421666 0)
(-5.73633 -0.385688 0)
(0.0698625 1.1439 0)
(0.150366 1.13069 0)
(0.274465 1.2166 0)
(0.321894 1.17206 0)
(0.465325 1.11975 0)
(0.647652 1.08193 0)
(0.899097 1.02566 1.10898e-17)
(1.16835 1.01255 -1.10052e-17)
(1.4414 1.00204 0)
(1.72897 0.987862 -1.08493e-17)
(2.02105 0.984217 0)
(2.32289 0.975145 0)
(2.6281 0.970415 0)
(2.94471 0.960133 1.05614e-17)
(3.27781 0.949336 0)
(3.63133 0.933185 0)
(3.98968 0.918394 -1.03708e-17)
(4.36909 0.894432 0)
(4.77435 0.878971 0)
(5.19705 0.861267 0)
(5.62161 0.846864 1.01159e-17)
(6.06342 0.826424 0)
(6.54737 0.783166 9.99173e-18)
(7.0649 0.744973 0)
(7.59923 0.713519 0)
(8.15813 0.676907 9.79475e-18)
(8.77405 0.627616 0)
(9.42483 0.585218 -9.66591e-18)
(10.1011 0.534911 0)
(10.8403 0.469217 9.54285e-18)
(11.6214 0.410169 0)
(12.4211 0.372555 0)
(13.2849 0.302152 0)
(14.2268 0.264081 0)
(15.1479 0.245293 0)
(16.095 0.201576 -9.18203e-18)
(17.0297 0.159311 0)
(18.0041 0.111399 1.81239e-17)
(19.027 0.0723148 0)
(20.0542 0.0544906 -1.78936e-17)
(21.0501 0.0606837 0)
(21.9898 0.0986887 0)
(22.8708 0.165994 1.75498e-17)
(23.641 0.24289 0)
(24.2626 0.290633 1.73565e-17)
(24.7315 0.387639 -1.72396e-17)
(25.0518 0.557474 0)
(25.1314 0.689747 -1.70583e-17)
(24.9127 0.616213 -1.70102e-17)
(24.6034 0.356165 0)
(24.3352 0.0446028 0)
(24.0947 -0.169573 0)
(23.8619 -0.200649 0)
(23.6731 -0.113981 0)
(23.5295 -0.0834177 1.63447e-17)
(23.3126 -0.0564974 0)
(23.0814 -0.113151 -1.60663e-17)
(22.7253 -0.24482 0)
(22.2166 -0.275172 0)
(21.928 -0.247399 1.56435e-17)
(21.86 -0.108247 0)
(21.506 -0.0597612 -1.56492e-17)
(21.0991 -0.403955 0)
(20.9722 -0.835333 0)
(20.7571 -1.12983 0)
(20.6573 -1.32681 1.50552e-17)
(21.0376 -1.42708 0)
(21.631 -1.23592 0)
(22.0353 -0.899827 1.46228e-17)
(22.1087 -0.947259 0)
(21.9628 -1.42297 1.43926e-17)
(21.7106 -1.88676 0)
(21.2551 -1.76234 0)
(20.1706 -1.14565 0)
(18.3535 -0.442893 -1.44626e-17)
(16.1988 -0.140723 0)
(13.958 -0.101312 0)
(11.761 -0.186565 -1.36114e-17)
(9.66814 -0.307131 -1.34191e-17)
(7.71115 -0.425071 0)
(5.89689 -0.523904 -1.31001e-17)
(4.2384 -0.666028 0)
(2.71803 -0.783653 -2.56503e-17)
(1.36194 -0.89412 0)
(0.106427 -1.00076 -2.51554e-17)
(-1.05618 -1.07305 0)
(-2.10388 -1.12826 2.46806e-17)
(-3.05539 -1.17376 0)
(-3.90918 -1.22014 0)
(-4.70345 -1.26438 0)
(-5.38181 -1.30097 -2.37958e-17)
(-5.94955 -1.35657 0)
(-6.44022 -1.38914 2.33688e-17)
(-6.81759 -1.42991 0)
(-6.98822 -1.47896 -2.2946e-17)
(-7.13638 -1.44069 -2.27248e-17)
(-7.34237 -1.42302 -2.25443e-17)
(-7.29747 -1.46509 0)
(-7.21567 -1.44898 0)
(-7.107 -1.40783 0)
(-7.04912 -1.368 0)
(-6.88276 -1.39991 0)
(-6.76226 -1.32129 0)
(-6.53095 -1.35093 0)
(-6.26233 -1.29706 0)
(-6.00609 -1.2762 2.10342e-17)
(-5.7234 -1.23121 2.08974e-17)
(-5.44016 -1.2197 0)
(-5.17343 -1.17596 0)
(-4.91027 -1.12901 0)
(-4.66451 -1.07704 2.04383e-17)
(-4.45139 -1.03399 0)
(-4.27682 -0.990684 0)
(-4.11658 -0.948468 0)
(-4.02928 -0.890294 0)
(-4.00718 -0.824519 -2.00805e-17)
(-4.04399 -0.77277 0)
(-4.01648 -0.731123 0)
(-3.90651 -0.65277 1.97522e-17)
(-3.6841 -0.587057 -1.97263e-17)
(-3.58871 -0.556379 0)
(-3.44094 -0.522298 -1.95459e-17)
(-3.22926 -0.416828 0)
(-2.91919 -0.363776 1.93245e-17)
(-2.72031 -0.33893 0)
(-2.36314 -0.323747 0)
(-1.80663 -0.355436 0)
(-0.92839 -0.319052 0)
(-0.0310196 -0.2257 0)
(0.94615 -0.0987172 -3.82108e-17)
(1.75254 -0.0600268 -3.80456e-17)
(2.52111 -0.0950272 0)
(2.98494 0.0740336 0)
(3.55339 0.0274215 0)
(3.85777 0.159023 3.67177e-17)
(4.49329 0.209043 0)
(4.94098 0.298083 0)
(5.15996 0.277819 0)
(5.68537 0.272347 3.54409e-17)
(6.06879 0.288781 -3.51623e-17)
(6.69114 0.303562 0)
(7.43178 0.328573 0)
(8.09218 0.214871 -3.41811e-17)
(9.03126 0.342476 -3.40093e-17)
(9.63543 0.201908 0)
(10.3832 0.299171 0)
(10.8495 0.173968 3.32642e-17)
(11.3472 0.247892 -3.31238e-17)
(11.6274 0.17048 0)
(11.8121 0.208709 0)
(11.8168 0.127577 -3.24669e-17)
(11.6629 0.0781948 0)
(11.6391 0.00836406 0)
(11.5977 -0.0438831 -3.18852e-17)
(11.6381 -0.10795 0)
(11.2314 -0.132149 -3.15736e-17)
(11.2695 -0.212889 0)
(10.938 -0.212746 0)
(10.6225 -0.241612 0)
(10.422 -0.240195 3.06944e-17)
(9.88113 -0.243972 0)
(9.16948 -0.362888 0)
(8.16882 -0.400195 0)
(7.16121 -0.511048 0)
(6.12237 -0.544758 0)
(5.20494 -0.543394 0)
(4.38881 -0.568522 2.88332e-17)
(3.31949 -0.538256 2.85901e-17)
(2.67036 -0.619727 0)
(2.06286 -0.756276 0)
(1.89066 -0.846608 0)
(1.70699 -0.961289 -2.78129e-17)
(2.12401 -1.15163 0)
(2.5124 -1.15395 5.61659e-17)
(2.61017 -0.973702 -5.63473e-17)
(1.92508 -0.953525 -5.66549e-17)
(0.0137508 -1.01138 5.56144e-17)
(-1.09011 -1.01766 -5.43764e-17)
(-2.26372 -0.964443 5.46013e-17)
(-4.49851 -1.05705 0)
(0.0896352 3.64992 0)
(-0.0457847 3.62219 0)
(0.00573261 3.65761 -2.28748e-17)
(0.0572123 3.60146 0)
(0.18384 3.39443 2.30111e-17)
(0.398334 3.20067 2.29759e-17)
(0.675135 3.07459 1.14113e-17)
(0.935043 3.02722 1.13066e-17)
(1.19799 2.99989 0)
(1.457 2.96793 1.11134e-17)
(1.73101 2.94558 0)
(2.01372 2.91567 0)
(2.31155 2.87574 -2.16972e-17)
(2.62256 2.83044 -1.07593e-17)
(2.93865 2.80338 2.13622e-17)
(3.2962 2.76021 2.11939e-17)
(3.65569 2.71029 1.05046e-17)
(4.04142 2.62684 0)
(4.44408 2.54126 0)
(4.84555 2.47759 0)
(5.26772 2.42403 1.01797e-17)
(5.70844 2.3347 0)
(6.1692 2.19026 -3.00678e-17)
(6.64403 2.06977 0)
(7.16025 1.97265 0)
(7.72102 1.84483 -9.78939e-18)
(8.31596 1.67677 0)
(8.94227 1.54152 9.64376e-18)
(9.6381 1.39241 1.91666e-17)
(10.3971 1.16723 -9.51754e-18)
(11.1598 0.959682 0)
(12.0375 0.855242 0)
(12.8994 0.609706 0)
(13.8872 0.449913 1.85383e-17)
(14.8271 0.359989 1.84099e-17)
(15.8315 0.20538 9.1512e-18)
(16.8268 0.0915948 0)
(17.8676 -0.100277 -1.80729e-17)
(18.98 -0.295586 0)
(20.1307 -0.42793 1.78278e-17)
(21.3141 -0.44448 0)
(22.4386 -0.441452 0)
(23.5173 -0.421216 -1.75047e-17)
(24.5531 -0.307891 0)
(25.5242 -0.120885 -5.19353e-17)
(26.373 0.0415072 1.72392e-17)
(27.1895 0.203736 0)
(27.8894 0.511961 1.69509e-17)
(28.338 0.959235 1.6914e-17)
(28.5806 1.13912 0)
(28.5444 1.02546 0)
(28.2028 0.980215 0)
(27.4003 0.777297 0)
(26.5715 0.310558 0)
(26.1038 -0.251563 -1.61917e-17)
(25.4056 -0.285292 -3.19691e-17)
(24.8899 -0.207425 1.57714e-17)
(24.5507 -0.351339 0)
(23.8526 -0.433095 -3.10246e-17)
(23.5178 -1.1678 1.54642e-17)
(23.3441 -1.92524 0)
(22.9005 -1.7122 1.52815e-17)
(22.9558 -1.83949 0)
(23.2476 -2.14382 0)
(22.9434 -2.00493 2.98416e-17)
(22.7807 -2.61859 -1.49039e-17)
(23.1427 -3.8689 2.96109e-17)
(23.5282 -4.4654 -2.92086e-17)
(23.6094 -4.36903 -1.44284e-17)
(23.1338 -3.78986 0)
(21.6304 -2.92864 -1.42276e-17)
(19.1827 -2.15312 0)
(16.4744 -1.5712 0)
(13.9147 -1.13674 0)
(11.6973 -0.862634 -1.33211e-17)
(9.69341 -0.917641 0)
(7.83228 -1.1419 -2.59254e-17)
(6.05905 -1.45885 3.85181e-17)
(4.44879 -1.81633 1.27332e-17)
(2.97792 -2.16837 0)
(1.56499 -2.50663 1.25576e-17)
(0.293137 -2.82506 0)
(-0.823753 -3.15313 2.48342e-17)
(-1.85292 -3.45533 0)
(-2.78477 -3.68339 2.44741e-17)
(-3.66901 -3.84831 -4.85389e-17)
(-4.44495 -4.02705 -2.40603e-17)
(-5.15931 -4.15943 0)
(-5.78393 -4.27438 0)
(-6.36348 -4.4094 0)
(-6.83265 -4.52673 2.33502e-17)
(-7.20117 -4.64379 0)
(-7.48237 -4.71534 -2.29618e-17)
(-7.6815 -4.86575 0)
(-7.62804 -4.90674 6.78588e-17)
(-7.6071 -4.73422 2.2165e-17)
(-7.70502 -4.7804 2.20266e-17)
(-7.38285 -4.90473 0)
(-7.23927 -4.77313 0)
(-6.91665 -4.66967 0)
(-6.91751 -4.49311 0)
(-6.48508 -4.58693 0)
(-6.33255 -4.31975 4.11494e-17)
(-5.95294 -4.3915 4.09091e-17)
(-5.57777 -4.1784 0)
(-5.18466 -4.10813 -1.99144e-17)
(-4.82464 -3.9332 -1.96688e-17)
(-4.43476 -3.86624 0)
(-4.07171 -3.7114 -3.85508e-17)
(-3.71246 -3.56519 0)
(-3.40688 -3.39341 1.89581e-17)
(-3.11119 -3.21975 0)
(-2.87511 -3.05733 0)
(-2.61127 -2.8636 -3.72137e-17)
(-2.45586 -2.65653 0)
(-2.40436 -2.50002 1.84854e-17)
(-2.39338 -2.29398 0)
(-2.24817 -2.22914 0)
(-2.20088 -2.24282 1.83098e-17)
(-1.89138 -2.11191 1.81261e-17)
(-1.55626 -1.76745 0)
(-1.39864 -1.6822 -1.83184e-17)
(-1.4153 -1.62508 0)
(-0.990971 -1.39813 1.78286e-17)
(-0.498487 -1.07148 3.55301e-17)
(-0.14909 -0.978621 0)
(0.187202 -1.0354 0)
(0.848956 -1.09144 0)
(1.72063 -0.843059 0)
(2.50811 -0.630129 3.73242e-17)
(3.0417 -0.267183 1.11944e-16)
(3.55189 0.173631 0)
(3.09729 0.451317 0)
(3.23148 0.684447 0)
(3.21116 0.92896 -3.56937e-17)
(3.32717 0.617785 0)
(3.20717 1.04228 0)
(3.67925 1.04681 6.86208e-17)
(4.05951 1.11937 3.44367e-17)
(4.73771 0.876085 3.41e-17)
(4.76111 0.621806 0)
(6.33509 0.666987 0)
(6.43666 0.263007 3.29117e-17)
(8.03385 0.510459 -3.2903e-17)
(8.35897 0.166116 0)
(9.41325 0.408402 0)
(10.0104 0.141568 -3.204e-17)
(10.5161 0.298479 9.58853e-17)
(11.1735 0.153834 0)
(11.1713 0.162257 0)
(11.7534 -0.0322427 3.14008e-17)
(11.4959 -0.239311 0)
(12.0747 -0.49743 6.23194e-17)
(12.1033 -0.727764 -3.09655e-17)
(12.6223 -0.897221 0)
(12.2942 -0.964542 3.0945e-17)
(12.8753 -1.32731 6.19708e-17)
(12.5763 -1.25474 0)
(12.7487 -1.48931 0)
(13.0358 -1.53564 -3.03543e-17)
(13.0267 -1.35055 0)
(12.822 -1.30204 5.81354e-17)
(11.8139 -1.10081 0)
(10.6845 -1.19243 0)
(9.16761 -1.3355 0)
(7.8347 -1.52821 0)
(6.67647 -1.73572 -2.69343e-17)
(5.23501 -1.93634 -2.67325e-17)
(4.6554 -2.24216 0)
(3.91045 -2.56213 0)
(3.94741 -2.9741 0)
(3.90313 -3.32216 2.48766e-17)
(4.91964 -3.66352 0)
(4.58333 -3.79656 -5.22947e-17)
(4.84873 -3.5086 5.30176e-17)
(4.74646 -2.9941 5.48737e-17)
(1.84841 -2.79938 5.26491e-17)
(0.64934 -3.33254 5.02398e-17)
(-0.125462 -3.20351 4.92606e-17)
(-2.25765 -3.33123 0)
(0.180076 6.2354 0)
(0.0145957 6.38935 0)
(-0.0351665 6.18115 2.32514e-17)
(-0.023028 5.96097 2.34473e-17)
(0.0947182 5.56507 -2.32045e-17)
(0.321647 5.23664 -2.30642e-17)
(0.630007 5.10266 2.02214e-20)
(0.902722 5.09722 0)
(1.14426 5.09251 0)
(1.40225 5.06446 0)
(1.63289 5.00532 0)
(1.82664 4.94404 0)
(2.05616 4.95064 6.50883e-17)
(2.41582 4.86094 0)
(2.7307 4.65602 -2.12086e-17)
(2.96848 4.51633 -2.09632e-17)
(3.20554 4.42148 0)
(3.48482 4.34188 0)
(3.80391 4.23176 0)
(4.14242 4.12922 0)
(4.47363 4.00896 -2.00782e-17)
(4.82534 3.8786 0)
(5.18025 3.73377 1.97847e-17)
(5.5483 3.58116 0)
(5.99371 3.40314 0)
(6.4575 3.17434 0)
(6.98946 2.92847 3.85907e-17)
(7.5976 2.64533 0)
(8.2622 2.32295 -1.90473e-17)
(8.98541 1.96009 3.78695e-17)
(9.75805 1.64396 0)
(10.6665 1.39353 0)
(11.4735 1.0214 0)
(12.4321 0.855936 -1.84822e-17)
(13.3675 0.62622 -1.84061e-17)
(14.3199 0.373014 0)
(15.3652 0.0836947 0)
(16.4288 -0.267723 3.61669e-17)
(17.5533 -0.545458 3.59929e-17)
(18.6434 -0.782776 -3.58027e-17)
(19.841 -0.96208 0)
(21.0319 -0.977021 0)
(22.2138 -0.907603 0)
(23.2931 -0.7877 0)
(24.3741 -0.666235 3.47361e-17)
(25.4591 -0.648079 3.45906e-17)
(26.5426 -0.420796 -3.42276e-17)
(27.4834 0.153145 0)
(28.1989 0.571065 0)
(28.9121 0.701075 0)
(29.24 1.01542 0)
(29.3974 1.33718 3.30007e-17)
(29.4608 1.47112 0)
(28.8882 1.18376 0)
(28.5453 0.471138 3.25879e-17)
(27.6602 0.469015 3.2282e-17)
(26.9976 0.0893127 0)
(27.024 -0.904094 -6.41016e-17)
(26.1033 -0.593901 3.1368e-17)
(25.9308 -1.20191 -3.09866e-17)
(25.6145 -2.09882 0)
(24.4709 -1.98117 0)
(24.3597 -3.28997 0)
(24.0463 -4.13142 0)
(23.5045 -3.64158 -3.00253e-17)
(23.7452 -4.89067 -5.99828e-17)
(23.5341 -6.47351 -2.96519e-17)
(22.3056 -6.01939 2.89156e-17)
(20.5232 -4.33581 0)
(18.4605 -2.93666 -5.61118e-17)
(16.2411 -2.07378 -5.55216e-17)
(14.0748 -1.55234 -5.48358e-17)
(12.192 -1.35914 5.42156e-17)
(10.3646 -1.31285 0)
(8.71801 -1.48762 8.02069e-17)
(7.2769 -1.82461 0)
(5.95723 -2.29118 -2.6626e-17)
(4.71933 -2.79021 -2.66095e-17)
(3.56845 -3.34212 0)
(2.37938 -3.90092 0)
(1.2453 -4.4458 -5.28785e-17)
(0.181363 -4.94751 0)
(-0.808324 -5.47135 -5.26387e-17)
(-1.6726 -5.87841 0)
(-2.5215 -6.23055 5.21155e-17)
(-3.37803 -6.49989 1.03497e-16)
(-4.13461 -6.78807 0)
(-4.78589 -7.03594 0)
(-5.40088 -7.21143 0)
(-5.99393 -7.41657 5.0419e-17)
(-6.51223 -7.65726 0)
(-6.91263 -7.8414 4.99046e-17)
(-7.16575 -7.95528 0)
(-7.3263 -8.17807 0)
(-7.37385 -8.25418 -9.81991e-17)
(-7.37188 -7.96168 0)
(-7.46406 -8.10559 -4.79584e-17)
(-7.07362 -8.33419 0)
(-6.87157 -8.10624 -4.7018e-17)
(-6.30902 -7.78157 0)
(-6.62404 -7.47214 0)
(-6.04774 -7.78152 0)
(-5.95109 -7.20584 -1.34297e-16)
(-5.49564 -7.41021 -4.45864e-17)
(-5.12974 -7.07431 0)
(-4.65094 -6.94275 0)
(-4.25776 -6.626 0)
(-3.75932 -6.5203 0)
(-3.32567 -6.224 4.10502e-17)
(-2.86916 -5.96274 -8.09476e-17)
(-2.54401 -5.67566 -3.97252e-17)
(-2.24728 -5.41672 7.83075e-17)
(-2.0474 -5.13934 7.69477e-17)
(-1.75547 -4.9152 3.75918e-17)
(-1.52962 -4.46347 0)
(-1.36245 -4.08163 7.27389e-17)
(-1.5073 -4.01345 0)
(-1.46321 -3.80723 -7.18855e-17)
(-1.34241 -3.54054 -3.60645e-17)
(-1.22483 -3.53687 0)
(-1.01398 -3.19097 7.08792e-17)
(-0.494951 -2.61433 3.52167e-17)
(-0.381722 -2.37881 0)
(-0.445712 -2.49849 3.48997e-17)
(-0.0437909 -2.00999 -1.02292e-16)
(0.616346 -1.56816 0)
(0.882744 -1.51752 0)
(1.1319 -1.59648 0)
(1.46362 -1.33041 0)
(2.11127 -0.719117 -7.47273e-17)
(2.36712 -0.0845188 -7.48021e-17)
(3.09518 0.543419 0)
(2.70566 1.15366 0)
(2.78325 1.08948 0)
(2.89293 1.52341 0)
(3.95175 1.52164 0)
(2.5585 1.72019 0)
(3.48295 1.30326 -6.74551e-17)
(3.3174 1.2426 1.05406e-19)
(5.53572 1.38614 0)
(4.53157 0.807123 0)
(7.23858 0.955176 -6.62794e-17)
(6.97638 0.487892 0)
(8.88312 0.7858 6.54769e-17)
(9.46707 0.369675 6.49763e-17)
(10.2759 0.663132 0)
(11.4035 0.32425 0)
(11.4336 0.408651 -6.35752e-17)
(12.7212 0.294568 -1.2703e-16)
(12.3138 0.129713 0)
(13.3127 -0.214251 0)
(12.7372 -0.449404 0)
(13.6307 -0.983991 -6.29264e-17)
(13.3589 -1.3521 6.2497e-17)
(14.2976 -1.54292 0)
(13.7984 -1.54952 1.24667e-16)
(14.6779 -2.26737 6.29302e-17)
(14.1413 -1.98998 -1.26135e-16)
(13.8999 -2.59051 0)
(14.101 -2.84935 0)
(14.4193 -2.56219 -1.25384e-16)
(14.9217 -2.37885 -6.09932e-17)
(14.2681 -1.95797 0)
(13.5631 -2.01449 0)
(12.2205 -2.16014 0)
(10.6508 -2.43295 0)
(9.32375 -2.66002 -1.06049e-16)
(7.62159 -2.95354 0)
(6.64682 -3.59144 0)
(5.43143 -4.23 0)
(5.5241 -4.85066 0)
(5.07431 -5.48503 0)
(6.07222 -5.87313 0)
(4.95338 -5.86904 -1.04125e-16)
(4.55707 -5.81677 0)
(5.39382 -5.06003 0)
(2.58627 -4.32386 -2.0162e-16)
(0.782194 -5.36957 1.03382e-16)
(-0.737091 -5.25799 -1.01481e-16)
(-2.50114 -5.5281 9.85567e-17)
(0.243435 8.41775 0)
(0.268416 9.06864 -4.40795e-17)
(0.231702 8.80907 0)
(0.24394 8.37718 -2.31971e-17)
(0.334438 7.74165 0)
(0.503291 7.1855 0)
(0.712486 6.95284 2.30872e-17)
(0.864098 6.97867 0)
(0.991753 7.00854 0)
(1.09717 7.00644 0)
(1.27388 7.08579 0)
(1.69884 7.0714 0)
(1.94763 6.5947 -8.52263e-17)
(1.83442 6.28803 -4.18144e-17)
(1.87749 6.61197 4.14896e-17)
(2.10551 6.70606 0)
(2.29401 6.57773 0)
(2.57215 6.31128 0)
(2.82025 6.09899 0)
(3.0744 5.96739 0)
(3.31066 5.86414 -4.03876e-17)
(3.56955 5.7406 -4.01426e-17)
(3.84504 5.51812 3.98681e-17)
(4.18576 5.24748 -3.9582e-17)
(4.62034 4.91525 0)
(5.11298 4.50658 0)
(5.67935 4.08311 -3.87223e-17)
(6.3189 3.62232 0)
(7.03467 3.14705 0)
(7.83455 2.61384 -3.79857e-17)
(8.68395 2.14623 -3.78178e-17)
(9.61629 1.81083 -3.76507e-17)
(10.4589 1.4249 0)
(11.4029 1.10569 0)
(12.3236 0.74449 3.69951e-17)
(13.263 0.424376 0)
(14.2549 -0.0579667 0)
(15.2247 -0.508867 -3.62982e-17)
(16.314 -0.962194 3.60606e-17)
(17.3725 -1.31695 -3.57613e-17)
(18.4889 -1.59539 0)
(19.6451 -1.60625 0)
(20.815 -1.5599 -7.0369e-17)
(21.9085 -1.56688 0)
(23.055 -1.64233 -6.965e-17)
(24.2666 -1.64352 -1.03702e-16)
(25.3948 -1.39408 1.03002e-16)
(26.4695 -0.737373 -6.83342e-17)
(27.3855 -0.25561 0)
(28.0374 0.0549814 0)
(28.5434 0.627066 -6.68662e-17)
(29.3055 0.883107 -3.32279e-17)
(29.542 1.36523 0)
(29.2802 1.4572 0)
(29.342 0.676289 -3.26365e-17)
(28.4443 0.780584 -6.42394e-17)
(28.349 -0.0548801 0)
(28.2403 -1.33045 6.48594e-17)
(26.9203 -0.851594 -6.28839e-17)
(27.3194 -1.93186 6.28812e-17)
(26.8077 -2.77589 0)
(25.5708 -2.48726 0)
(25.7117 -3.88726 0)
(24.8265 -4.7628 0)
(24.0664 -4.93632 0)
(23.6125 -5.98624 6.00107e-17)
(21.9219 -6.08986 0)
(19.6649 -5.15829 0)
(17.5418 -3.91879 0)
(15.4684 -3.00324 1.11578e-16)
(13.4785 -2.47053 5.52183e-17)
(11.7652 -2.14305 5.48652e-17)
(10.3196 -2.24481 -1.09516e-16)
(9.0414 -2.57918 5.4647e-17)
(7.91221 -3.05464 -5.44787e-17)
(6.79509 -3.61329 0)
(5.71425 -4.25895 5.42385e-17)
(4.62893 -4.92831 0)
(3.51077 -5.60001 0)
(2.43501 -6.19896 0)
(1.37962 -6.77984 1.06754e-16)
(0.27373 -7.43459 -5.32951e-17)
(-0.710605 -8.0549 -5.31716e-17)
(-1.61002 -8.54724 -1.05701e-16)
(-2.453 -8.98227 -1.57421e-16)
(-3.21617 -9.34072 -5.19967e-17)
(-3.92904 -9.70334 0)
(-4.54541 -10.0624 -1.027e-16)
(-5.08469 -10.277 0)
(-5.59317 -10.4536 -1.51242e-16)
(-6.01957 -10.747 0)
(-6.46907 -11.0789 -1.49984e-16)
(-6.74332 -11.2825 0)
(-6.82173 -11.4854 0)
(-6.97051 -11.6609 -4.93977e-17)
(-6.96699 -11.3132 0)
(-6.8642 -11.4787 4.83895e-17)
(-6.74241 -11.8041 9.68659e-17)
(-6.3706 -11.6316 4.79137e-17)
(-5.54868 -10.978 9.37563e-17)
(-5.916 -10.4006 -9.27517e-17)
(-5.28963 -11.0732 -9.27168e-17)
(-5.32091 -10.1785 1.82859e-16)
(-4.7719 -10.4753 0)
(-4.50484 -10.0718 0)
(-3.93446 -9.89466 8.99883e-17)
(-3.69283 -9.50404 -8.90857e-17)
(-3.10014 -9.37997 0)
(-2.66649 -9.00043 0)
(-2.10257 -8.60592 8.64048e-17)
(-1.73692 -8.11186 0)
(-1.36398 -7.72319 1.83246e-19)
(-1.16351 -7.32169 1.7841e-19)
(-0.86196 -6.97715 8.27998e-17)
(-0.682885 -6.50182 0)
(-0.27534 -5.8546 -7.64635e-17)
(-0.172035 -5.23186 0)
(-0.395124 -5.22092 7.63979e-17)
(-0.411877 -5.12834 0)
(-0.11402 -4.86307 0)
(-0.36023 -4.51617 -7.2937e-17)
(-0.0803607 -4.10655 -7.0631e-17)
(0.147949 -3.39015 0)
(0.343188 -3.07531 -7.04727e-17)
(0.417848 -2.92707 1.36663e-16)
(1.09772 -2.39282 0)
(1.37317 -1.89953 0)
(1.37771 -1.82859 0)
(1.5082 -1.44885 0)
(2.03549 -0.913444 7.43442e-17)
(2.18483 -0.367092 -1.46816e-16)
(2.58897 0.55292 0)
(2.49757 1.55769 0)
(3.07974 1.66514 0)
(2.90408 1.72752 0)
(4.67626 1.98201 0)
(3.21016 2.86623 0)