/*--------------------------------*- C++ -*----------------------------------*\
| =========                 |                                                 |
| \\      /  F ield         | OpenFOAM: The Open Source CFD Toolbox           |
|  \\    /   O peration     | Version:  dev                                   |
|   \\  /    A nd           | Web:      http://www.openfoam.org               |
|    \\/     M anipulation  |                                                 |
\*---------------------------------------------------------------------------*/
FoamFile
{
    version     2.0;
    format      ascii;
    class       volVectorField;
    object      UMean;
    location    "9.126";
}
// * * * * * * * * * * * * * * * * * * * * * * * * * * * * * * * * * * * * * //

dimensions      [0 1 -1 0 0 0 0];

internalField   nonuniform List<vector> 
12225
(
(7.00367 0.43027 0)
(4.43883 0.192537 0)
(2.55685 0.0311461 0)
(2.51098 -0.0166581 0)
(1.3845 0.0193521 0)
(2.26757 -0.0342818 0)
(0.989496 0.0489749 0)
(2.18298 -0.0591819 0)
(0.797426 0.0716592 0)
(2.29233 -0.0978655 0)
(0.688611 0.0993878 0)
(2.7443 -0.138647 0)
(0.947855 0.102617 0)
(3.39744 -0.172122 0)
(3.52966 -0.168396 0)
(4.69448 0.0502073 0)
(14.8376 -2.43326 0)
(7.11605 5.13134 0)
(9.54625 0.981601 0)
(9.5434 0.860845 0)
(6.68688 0.466267 0)
(7.59065 0.214546 0)
(4.09063 0.140286 0)
(6.84366 0.010815 0)
(2.66496 0.132605 0)
(6.69015 -0.0903335 0)
(1.82229 0.141801 0)
(7.04051 -0.165075 0)
(1.26014 0.123889 0)
(8.12343 -0.414418 0)
(1.38491 0.252549 0)
(9.95578 -1.44198 0)
(3.43493 0.272873 0)
(12.3867 -4.06629 0)
(10.4237 -1.92617 0)
(7.77392 0.482616 0)
(9.11844 0.763501 0)
(12.1669 0.951339 0)
(8.3295 0.623903 0)
(11.8323 0.443354 0)
(6.22597 0.310226 0)
(11.4134 0.206496 0)
(4.58235 0.221393 0)
(11.3158 -0.0195073 0)
(3.87349 0.192835 0)
(11.3777 -0.277901 0)
(4.34969 0.187226 0)
(11.2545 -0.723364 0)
(5.72762 0.176351 0)
(11.0917 -1.49182 0)
(7.21382 0.0536097 0)
(12.1176 -3.86401 0)
(6.93349 0.35054 0)
(9.35402 -2.39262 0)
(7.21883 0.524987 0)
(13.9931 0.960916 0)
(7.92978 0.609386 0)
(14.2954 0.553782 0)
(7.47442 0.420819 0)
(14.1166 0.2711 0)
(7.1758 0.396577 0)
(13.7388 -0.145073 0)
(7.25674 0.459463 0)
(13.27 -0.698723 0)
(7.65901 0.576676 0)
(12.8748 -1.42273 0)
(8.26566 0.699677 0)
(12.6517 -2.31324 0)
(9.02089 0.0435597 0)
(11.8888 -3.63681 0)
(8.68578 -1.43091 0)
(8.36622 0.680248 0)
(6.42435 0.56997 0)
(14.0106 0.565773 0)
(8.4741 0.674343 0)
(13.9576 0.284425 0)
(9.17018 0.636575 0)
(13.6429 -0.00258919 0)
(9.51808 0.657706 0)
(13.2132 -0.388674 0)
(9.59304 0.734233 0)
(12.8119 -0.871262 0)
(9.44636 0.876845 0)
(12.581 -1.5213 0)
(9.15005 1.09015 0)
(12.5684 -2.48946 0)
(8.82723 1.13314 0)
(11.6143 -5.02743 0)
(8.54431 1.2677 0)
(8.72323 0.12306 0)
(7.95733 0.616901 0)
(11.802 0.152244 0)
(9.50621 0.654685 0)
(11.7383 0.0500976 0)
(10.0894 0.693879 0)
(11.5993 -0.165766 0)
(10.3218 0.725798 0)
(11.4749 -0.457614 0)
(10.3019 0.783078 0)
(11.388 -0.853668 0)
(10.0344 0.832355 0)
(11.3534 -1.40025 0)
(9.49455 0.802104 0)
(11.4156 -2.13859 0)
(8.80425 0.7278 0)
(10.9957 -3.9205 0)
(7.73809 1.33636 0)
(9.48933 -0.221116 0)
(9.34539 0.812662 0)
(10.4374 -0.266164 0)
(10.1421 0.930426 0)
(10.5525 -0.304728 0)
(10.4001 1.01995 0)
(10.5806 -0.503091 0)
(10.5216 1.07547 0)
(10.6241 -0.781379 0)
(10.5652 1.15351 0)
(10.6705 -1.15799 0)
(10.5177 1.23545 0)
(10.6987 -1.63598 0)
(10.37 1.26175 0)
(10.6866 -2.32727 0)
(10.0576 1.27205 0)
(10.3754 -3.95331 0)
(8.30426 2.01771 0)
(9.69669 -0.955365 0)
(9.85036 0.701159 0)
(10.1547 -0.326265 0)
(10.4079 0.855013 0)
(10.3888 -0.350172 0)
(10.5816 0.906847 0)
(10.4696 -0.494291 0)
(10.703 0.892976 0)
(10.5512 -0.686604 0)
(10.8068 0.872804 0)
(10.6433 -0.935595 0)
(10.8826 0.824144 0)
(10.735 -1.23306 0)
(10.9102 0.671916 0)
(10.7537 -1.67267 0)
(10.7261 0.520166 0)
(10.493 -2.47341 0)
(8.89782 0.978948 0)
(9.96396 -0.485918 0)
(10.0869 0.802129 0)
(10.0186 -0.583683 0)
(10.5367 1.02132 0)
(10.3098 -0.604742 0)
(10.6764 1.07491 0)
(10.4392 -0.725225 0)
(10.7788 1.04811 0)
(10.5702 -0.890277 0)
(10.8584 1.00356 0)
(10.7109 -1.118 0)
(10.8999 0.921014 0)
(10.8314 -1.3951 0)
(10.8753 0.734666 0)
(10.822 -1.76076 0)
(10.6037 0.505316 0)
(10.5208 -2.0682 0)
(9.35268 0.584422 0)
(10.0232 -0.392884 0)
(10.1401 0.648589 0)
(10.0414 -0.512235 0)
(10.5111 0.878041 0)
(10.3327 -0.456823 0)
(10.6221 0.869207 0)
(10.4813 -0.493971 0)
(10.6985 0.778228 0)
(10.6285 -0.572469 0)
(10.7348 0.657848 0)
(10.7632 -0.695661 0)
(10.7184 0.495465 0)
(10.84 -0.845167 0)
(10.6188 0.263928 0)
(10.7653 -1.03205 0)
(10.2832 0.0698531 0)
(10.4795 -1.05253 0)
(9.6249 0.122884 0)
(10.2066 -0.0335781 0)
(10.1416 0.699854 0)
(10.0701 -0.692084 0)
(10.453 0.90238 0)
(10.2982 -0.619145 0)
(10.5379 0.847447 0)
(10.4299 -0.645727 0)
(10.6036 0.73505 0)
(10.5604 -0.707566 0)
(10.6276 0.586512 0)
(10.6602 -0.791374 0)
(10.6095 0.382823 0)
(10.6812 -0.869269 0)
(10.5273 0.116671 0)
(10.571 -0.921911 0)
(10.2922 -0.114423 0)
(10.3611 -0.764934 0)
(10.0209 -0.155219 0)
(10.2456 -0.125876 0)
(10.0971 0.467895 0)
(10.1506 -0.495363 0)
(10.3538 0.595639 0)
(10.2933 -0.374877 0)
(10.4205 0.527386 0)
(10.4093 -0.355047 0)
(10.485 0.418703 0)
(10.5239 -0.374439 0)
(10.5133 0.275513 0)
(10.5993 -0.41488 0)
(10.5159 0.093049 0)
(10.5971 -0.461776 0)
(10.477 -0.10366 0)
(10.4997 -0.500168 0)
(10.3576 -0.232607 0)
(10.3648 -0.405836 0)
(10.2665 -0.220533 0)
(10.374 -0.110858 0)
(10.0501 0.410789 0)
(10.1753 -0.487442 0)
(10.2548 0.436986 0)
(10.2378 -0.367657 0)
(10.3088 0.367106 0)
(10.3306 -0.345737 0)
(10.3793 0.250582 0)
(10.4246 -0.355455 0)
(10.4227 0.09918 0)
(10.4823 -0.375036 0)
(10.4463 -0.0800196 0)
(10.4818 -0.403555 0)
(10.4331 -0.247022 0)
(10.4262 -0.431425 0)
(10.3775 -0.339614 0)
(10.3688 -0.392986 0)
(10.3573 -0.321054 0)
(10.4224 -0.277085 0)
(10.0154 0.199475 0)
(10.1907 -0.285985 0)
(10.1932 0.167118 0)
(10.2052 -0.179453 0)
(10.2293 0.131416 0)
(10.2792 -0.17154 0)
(10.3062 0.0469716 0)
(10.3626 -0.197969 0)
(10.366 -0.0589919 0)
(10.4142 -0.235942 0)
(10.4056 -0.176295 0)
(10.4268 -0.286664 0)
(10.4125 -0.275302 0)
(10.4113 -0.331938 0)
(10.3996 -0.324499 0)
(10.4067 -0.337582 0)
(10.411 -0.316477 0)
(10.4698 -0.305323 0)
(9.99662 0.0969751 0)
(10.1444 -0.186042 0)
(10.1463 0.0214377 0)
(10.1501 -0.133822 0)
(10.1621 -0.00887205 0)
(10.2089 -0.146343 0)
(10.241 -0.0772105 0)
(10.2919 -0.186939 0)
(10.311 -0.159662 0)
(10.3486 -0.238206 0)
(10.3575 -0.245064 0)
(10.3791 -0.298584 0)
(10.3805 -0.316587 0)
(10.3939 -0.350393 0)
(10.3959 -0.361378 0)
(10.4185 -0.380582 0)
(10.4238 -0.381473 0)
(10.4788 -0.387694 0)
(9.99372 0.0153797 0)
(10.106 -0.0859503 0)
(10.1089 -0.0445036 0)
(10.1138 -0.093417 0)
(10.1188 -0.0750899 0)
(10.1675 -0.119128 0)
(10.198 -0.120828 0)
(10.2519 -0.164052 0)
(10.2741 -0.180813 0)
(10.3154 -0.219405 0)
(10.3279 -0.244197 0)
(10.3598 -0.278092 0)
(10.3659 -0.301628 0)
(10.394 -0.329309 0)
(10.3996 -0.347322 0)
(10.4329 -0.371153 0)
(10.4356 -0.384157 0)
(10.4884 -0.397399 0)
(9.99179 0.00467278 0)
(10.0636 -0.0252669 0)
(10.0567 -0.0350493 0)
(10.0678 -0.0666112 0)
(10.0778 -0.0758769 0)
(10.128 -0.0999343 0)
(10.1573 -0.116135 0)
(10.211 -0.144905 0)
(10.2337 -0.169194 0)
(10.2782 -0.199799 0)
(10.292 -0.226809 0)
(10.33 -0.257293 0)
(10.3384 -0.283593 0)
(10.3731 -0.312341 0)
(10.3788 -0.337112 0)
(10.4152 -0.365856 0)
(10.4146 -0.388381 0)
(10.4634 -0.407817 0)
(9.99153 0.0141189 0)
(10.0466 0.0161066 0)
(10.0398 -0.010653 0)
(10.0575 -0.0377712 0)
(10.0748 -0.056645 0)
(10.1254 -0.0779787 0)
(10.1553 -0.0990098 0)
(10.2071 -0.123977 0)
(10.2311 -0.149164 0)
(10.2753 -0.176811 0)
(10.2911 -0.20363 0)
(10.3292 -0.232369 0)
(10.3394 -0.259591 0)
(10.3736 -0.288543 0)
(10.3801 -0.315886 0)
(10.414 -0.345962 0)
(10.4132 -0.371826 0)
(10.4566 -0.393655 0)
(9.99163 0.0329015 0)
(10.0502 0.0496421 0)
(10.0565 0.00990606 0)
(10.0798 -0.0181178 0)
(10.1006 -0.0403057 0)
(10.1506 -0.0615578 0)
(10.1818 -0.0837102 0)
(10.2315 -0.10652 0)
(10.2562 -0.130679 0)
(10.2983 -0.155652 0)
(10.3149 -0.181232 0)
(10.3507 -0.20749 0)
(10.3614 -0.233736 0)
(10.3925 -0.260594 0)
(10.399 -0.287222 0)
(10.4287 -0.315483 0)
(10.428 -0.341215 0)
(10.4652 -0.363002 0)
(9.98987 0.0407179 0)
(10.0547 0.0526994 0)
(10.0828 -0.00632548 0)
(10.1167 -0.0406789 0)
(10.1419 -0.0641511 0)
(10.1903 -0.0823186 0)
(10.2223 -0.102169 0)
(10.269 -0.121094 0)
(10.2935 -0.142849 0)
(10.332 -0.164107 0)
(10.3482 -0.187531 0)
(10.3801 -0.210228 0)
(10.3904 -0.234544 0)
(10.4173 -0.258068 0)
(10.4228 -0.282942 0)
(10.4472 -0.307981 0)
(10.446 -0.332611 0)
(10.4767 -0.353016 0)
(9.99053 0.0316206 0)
(10.0685 0.0220781 0)
(10.1262 -0.0557166 0)
(10.177 -0.0967572 0)
(10.2125 -0.11981 0)
(10.2609 -0.13279 0)
(10.2937 -0.147845 0)
(10.3361 -0.161739 0)
(10.3601 -0.17993 0)
(10.394 -0.197024 0)
(10.4103 -0.217476 0)
(10.4376 -0.236364 0)
(10.4478 -0.25812 0)
(10.4701 -0.27819 0)
(10.4753 -0.300879 0)
(10.4945 -0.322504 0)
(10.4938 -0.345359 0)
(10.5185 -0.363646 0)
(9.99118 0.00989472 0)
(10.092 -0.029654 0)
(10.187 -0.120817 0)
(10.2595 -0.162773 0)
(10.3093 -0.181155 0)
(10.359 -0.187204 0)
(10.3929 -0.196098 0)
(10.4304 -0.204438 0)
(10.4542 -0.218193 0)
(10.4836 -0.230837 0)
(10.5001 -0.247704 0)
(10.5232 -0.262737 0)
(10.5336 -0.281453 0)
(10.5516 -0.298144 0)
(10.5571 -0.318208 0)
(10.5718 -0.336544 0)
(10.5721 -0.357122 0)
(10.5919 -0.373262 0)
(9.99279 -0.023317 0)
(10.1275 -0.103525 0)
(10.2671 -0.204875 0)
(10.3665 -0.241567 0)
(10.432 -0.250811 0)
(10.4836 -0.248414 0)
(10.5183 -0.250937 0)
(10.5517 -0.253743 0)
(10.5753 -0.263032 0)
(10.6011 -0.271402 0)
(10.6181 -0.284741 0)
(10.6377 -0.296366 0)
(10.6486 -0.312187 0)
(10.6631 -0.325949 0)
(10.6691 -0.343492 0)
(10.68 -0.358943 0)
(10.6812 -0.377254 0)
(10.6967 -0.391405 0)
(9.99058 -0.0715699 0)
(10.1745 -0.201109 0)
(10.368 -0.305424 0)
(10.5002 -0.327846 0)
(10.5806 -0.322573 0)
(10.6345 -0.310219 0)
(10.6691 -0.305614 0)
(10.6998 -0.302616 0)
(10.7227 -0.306765 0)
(10.746 -0.310657 0)
(10.7624 -0.319991 0)
(10.7794 -0.328141 0)
(10.7895 -0.340687 0)
(10.8006 -0.351468 0)
(10.8054 -0.366068 0)
(10.8123 -0.37863 0)
(10.8121 -0.394188 0)
(10.8221 -0.406142 0)
(9.99201 -0.136329 0)
(10.2448 -0.322947 0)
(10.5027 -0.418953 0)
(10.6712 -0.417595 0)
(10.7627 -0.39416 0)
(10.8175 -0.371104 0)
(10.8494 -0.358956 0)
(10.8772 -0.350611 0)
(10.896 -0.350139 0)
(10.9148 -0.350546 0)
(10.9252 -0.356447 0)
(10.9354 -0.361586 0)
(10.9373 -0.370896 0)
(10.9392 -0.378764 0)
(10.9338 -0.389967 0)
(10.9289 -0.399555 0)
(10.9162 -0.411479 0)
(10.9113 -0.420629 0)
(9.98977 -0.219872 0)
(10.3369 -0.468078 0)
(10.6737 -0.539698 0)
(10.8758 -0.508205 0)
(10.9698 -0.464851 0)
(11.0135 -0.428071 0)
(11.0286 -0.404833 0)
(11.0352 -0.38842 0)
(11.029 -0.381467 0)
(11.0193 -0.377024 0)
(10.9978 -0.378248 0)
(10.9734 -0.37916 0)
(10.9375 -0.383888 0)
(10.8997 -0.387372 0)
(10.8519 -0.393744 0)
(10.8038 -0.39907 0)
(10.7457 -0.405391 0)
(10.694 -0.410167 0)
(9.98336 -0.332049 0)
(10.4677 -0.642279 0)
(10.883 -0.667077 0)
(11.0725 -0.602632 0)
(11.103 -0.53719 0)
(11.0584 -0.483129 0)
(10.9743 -0.444999 0)
(10.8731 -0.416253 0)
(10.7576 -0.398048 0)
(10.6348 -0.383314 0)
(10.5033 -0.374939 0)
(10.3663 -0.366385 0)
(10.2238 -0.362506 0)
(10.077 -0.357058 0)
(9.92812 -0.355917 0)
(9.77648 -0.353324 0)
(9.62523 -0.353027 0)
(9.47524 -0.351189 0)
(10.0025 -0.453662 0)
(10.619 -0.818939 0)
(10.9017 -0.752066 0)
(10.7933 -0.62376 0)
(10.4938 -0.512541 0)
(10.1376 -0.429196 0)
(9.77005 -0.373575 0)
(9.41748 -0.33474 0)
(9.0766 -0.307317 0)
(8.75519 -0.284635 0)
(8.44613 -0.267684 0)
(8.15298 -0.251365 0)
(7.87215 -0.240078 0)
(7.6025 -0.227375 0)
(7.34763 -0.221171 0)
(7.09803 -0.211858 0)
(6.86954 -0.210885 0)
(6.64005 -0.204206 0)
(10.0975 -0.750784 0)
(10.0459 -1.01319 0)
(9.42504 -0.801088 0)
(8.5145 -0.57219 0)
(7.65504 -0.37874 0)
(6.92888 -0.244901 0)
(6.32728 -0.167544 0)
(5.83152 -0.126271 0)
(5.40904 -0.104724 0)
(5.0484 -0.0923386 0)
(4.72825 -0.0849776 0)
(4.44747 -0.0793671 0)
(4.191 -0.075824 0)
(3.96205 -0.0719043 0)
(3.75029 -0.0721442 0)
(3.55507 -0.0690903 0)
(3.38279 -0.0802644 0)
(3.21784 -0.0828565 0)
(8.51678 -0.436046 0)
(6.11032 -0.380886 0)
(4.2984 -0.138049 0)
(3.12389 -0.0213818 0)
(2.48108 0.0191315 0)
(2.12042 0.0224701 0)
(1.89614 0.0137118 0)
(1.73479 0.00461284 0)
(1.59872 -0.00157139 0)
(1.47794 -0.00479313 0)
(1.36582 -0.0064072 0)
(1.26364 -0.00672261 0)
(1.16794 -0.00671002 0)
(1.08119 -0.00639146 0)
(0.999137 -0.00665788 0)
(0.918894 -0.0070325 0)
(0.851369 -0.0185978 0)
(0.730889 -0.00612986 0)
(-0.0520638 0.138071 0)
(-0.157134 0.071583 0)
(-0.207182 0.0165163 0)
(-0.195398 -0.0442956 0)
(-0.118194 -0.0990339 0)
(0.0119894 -0.145093 0)
(0.186072 -0.175658 1.11353e-17)
(0.387897 -0.19364 -1.10603e-17)
(0.606223 -0.19804 0)
(0.828715 -0.192784 -1.09172e-17)
(1.04598 -0.178454 0)
(1.24903 -0.1577 0)
(1.43131 -0.131066 0)
(1.58754 -0.101693 1.06426e-17)
(1.71507 -0.0704189 0)
(1.81116 -0.0383184 0)
(1.87494 -0.00613893 -1.04454e-17)
(1.90711 0.0241259 0)
(1.90934 0.0505469 0)
(1.88372 0.0721891 0)
(1.83396 0.0891019 1.0196e-17)
(1.7626 0.100672 0)
(1.67355 0.108596 1.0074e-17)
(1.56852 0.111522 0)
(1.45217 0.109595 0)
(1.32723 0.107862 9.89535e-18)
(1.19396 0.111087 0)
(1.05158 0.11617 -9.77902e-18)
(0.90327 0.121418 0)
(0.749587 0.126499 9.66415e-18)
(0.592062 0.130555 0)
(0.432964 0.133076 0)
(0.274556 0.134285 0)
(0.117317 0.134106 0)
(-0.0384338 0.131251 0)
(-0.190638 0.126589 -9.32954e-18)
(-0.337628 0.120504 0)
(-0.478979 0.114023 1.84404e-17)
(-0.613238 0.107539 0)
(-0.739962 0.100306 -1.82215e-17)
(-0.857674 0.093257 0)
(-0.966529 0.086456 0)
(-1.06697 0.0786797 1.78884e-17)
(-1.15851 0.0702821 0)
(-1.24179 0.0625505 1.76651e-17)
(-1.3169 0.0553012 -1.75531e-17)
(-1.38333 0.0483012 0)
(-1.44194 0.042246 -1.73282e-17)
(-1.4938 0.0369105 -1.72151e-17)
(-1.5379 0.0332298 0)
(-1.57441 0.0316409 0)
(-1.60521 0.0316156 0)
(-1.63242 0.0316975 0)
(-1.65701 0.0316595 0)
(-1.6804 0.0325039 1.65281e-17)
(-1.70438 0.0340285 0)
(-1.73032 0.0362537 -1.62989e-17)
(-1.75697 0.0382988 0)
(-1.7831 0.0389577 0)
(-1.80871 0.039601 1.59524e-17)
(-1.83456 0.0413928 0)
(-1.8625 0.0426164 -1.57211e-17)
(-1.89241 0.0442822 0)
(-1.92417 0.0458123 0)
(-1.95731 0.0467198 0)
(-1.99126 0.0479543 1.52556e-17)
(-2.02568 0.049808 0)
(-2.06083 0.0520391 0)
(-2.09651 0.0544447 1.49059e-17)
(-2.13299 0.05589 0)
(-2.16727 0.0560989 1.46712e-17)
(-2.19842 0.0564668 0)
(-2.22633 0.0566417 0)
(-2.24994 0.0564717 0)
(-2.26829 0.0558601 -1.4205e-17)
(-2.28068 0.0546138 0)
(-2.2878 0.0538872 0)
(-2.29158 0.053818 -1.38612e-17)
(-2.29246 0.052846 -1.37478e-17)
(-2.28871 0.0511902 0)
(-2.27855 0.0489266 -1.35225e-17)
(-2.26185 0.0460225 0)
(-2.23826 0.0429013 -2.66021e-17)
(-2.20779 0.0394886 0)
(-2.17095 0.0358193 -2.61668e-17)
(-2.12755 0.0327295 0)
(-2.07862 0.0302881 2.5738e-17)
(-2.02499 0.0282837 0)
(-1.96671 0.0267956 0)
(-1.90445 0.025763 0)
(-1.83972 0.0251411 -2.4901e-17)
(-1.77233 0.024861 0)
(-1.70387 0.0248097 2.44993e-17)
(-1.63447 0.0254474 0)
(-1.5649 0.0265696 -2.41099e-17)
(-1.49707 0.0291246 -2.39213e-17)
(-1.43012 0.0302898 -2.3737e-17)
(-1.36312 0.0313763 0)
(-1.29793 0.0314341 0)
(-1.2333 0.0326093 0)
(-1.16734 0.0333379 0)
(-1.10232 0.0328861 0)
(-1.03222 0.0317609 0)
(-0.963468 0.033213 0)
(-0.892333 0.0328372 0)
(-0.825523 0.0353956 2.22129e-17)
(-0.757964 0.0357497 2.20608e-17)
(-0.695536 0.0401807 0)
(-0.634768 0.0413782 0)
(-0.579432 0.0411984 0)
(-0.512246 0.0384908 2.14804e-17)
(-0.450282 0.0426831 0)
(-0.38198 0.0409697 0)
(-0.317503 0.0438402 0)
(-0.247253 0.0408698 0)
(-0.17515 0.0434121 -2.08059e-17)
(-0.101188 0.0451291 0)
(-0.0219027 0.0441628 0)
(0.0622518 0.0455183 2.04288e-17)
(0.15018 0.0452216 -2.03073e-17)
(0.241843 0.0444126 0)
(0.338194 0.0482278 -2.00747e-17)
(0.429986 0.0511114 0)
(0.523005 0.0542533 1.98483e-17)
(0.605951 0.0590265 0)
(0.677643 0.0619971 0)
(0.753332 0.0623487 0)
(0.822751 0.0631458 0)
(0.902413 0.0603638 0)
(0.975888 0.0609563 -3.83968e-17)
(1.05149 0.062686 -3.81778e-17)
(1.11114 0.0676389 0)
(1.16129 0.0663835 0)
(1.20664 0.0673705 0)
(1.24475 0.0633898 3.72531e-17)
(1.29391 0.0587106 0)
(1.34429 0.0571059 0)
(1.39 0.0559464 0)
(1.43881 0.0541036 3.6233e-17)
(1.47597 0.0567679 -3.59649e-17)
(1.51912 0.052663 0)
(1.55845 0.0526715 0)
(1.60016 0.0531348 -3.51503e-17)
(1.62648 0.0582467 -3.48774e-17)
(1.65659 0.0549505 0)
(1.68511 0.0587156 0)
(1.72433 0.0557068 3.40445e-17)
(1.76087 0.0659169 -3.37651e-17)
(1.76936 0.0713271 0)
(1.78318 0.0706698 0)
(1.8089 0.0710101 -3.29284e-17)
(1.84257 0.0757002 0)
(1.85659 0.0832861 0)
(1.86851 0.0890061 -3.20843e-17)
(1.86828 0.0931063 0)
(1.88287 0.0979573 -3.15243e-17)
(1.88517 0.104987 0)
(1.89094 0.109147 0)
(1.87814 0.120751 0)
(1.86499 0.126569 3.04345e-17)
(1.85024 0.132994 0)
(1.81833 0.142944 0)
(1.74584 0.154686 0)
(1.66896 0.154724 0)
(1.6028 0.157044 0)
(1.51238 0.165835 0)
(1.38358 0.172567 2.88923e-17)
(1.26463 0.173837 2.87383e-17)
(1.08056 0.181865 0)
(0.873646 0.184571 0)
(0.630421 0.183547 0)
(0.414861 0.169751 -2.83208e-17)
(0.193063 0.162793 0)
(0.0410803 0.146648 5.63468e-17)
(-0.159945 0.144079 -5.62373e-17)
(-0.263374 0.123722 -5.6058e-17)
(-0.424721 0.126829 5.5954e-17)
(-0.459995 0.0966767 -5.57516e-17)
(-0.617654 0.129185 5.57318e-17)
(-0.565062 -0.00405 0)
(0.0101458 0.248954 0)
(0.0146558 0.192237 0)
(0.0497366 0.00798726 -2.27956e-17)
(0.121063 -0.19813 0)
(0.235969 -0.384195 2.23642e-17)
(0.388296 -0.535734 2.22176e-17)
(0.569477 -0.644749 1.10435e-17)
(0.769407 -0.710791 1.09811e-17)
(0.976741 -0.737467 0)
(1.18094 -0.731207 1.0854e-17)
(1.37333 -0.695327 0)
(1.54666 -0.636962 0)
(1.69694 -0.56226 -2.13197e-17)
(1.81945 -0.477767 -1.05947e-17)
(1.91413 -0.38585 2.10553e-17)
(1.9792 -0.291357 2.09218e-17)
(2.01603 -0.199059 1.03953e-17)
(2.02472 -0.111026 0)
(2.00768 -0.0280443 0)
(1.96491 0.046639 0)
(1.90027 0.112044 1.01364e-17)
(1.81383 0.171062 0)
(1.71026 0.223854 -3.00367e-17)
(1.58835 0.266567 0)
(1.45042 0.301441 0)
(1.29697 0.331949 -9.83166e-18)
(1.13149 0.355899 0)
(0.956703 0.373193 9.71533e-18)
(0.776473 0.384285 1.93123e-17)
(0.591684 0.391625 -9.59735e-18)
(0.405117 0.393814 0)
(0.218021 0.390126 0)
(0.0300825 0.382968 0)
(-0.158226 0.376128 1.87307e-17)
(-0.345132 0.367665 1.86163e-17)
(-0.529351 0.355506 9.25115e-18)
(-0.708117 0.340849 0)
(-0.881965 0.323862 -1.8276e-17)
(-1.04695 0.303395 0)
(-1.20533 0.28155 1.80506e-17)
(-1.35551 0.259108 0)
(-1.49912 0.236297 0)
(-1.63461 0.215911 -1.77165e-17)
(-1.76292 0.196822 0)
(-1.8865 0.178881 -5.2486e-17)
(-2.0044 0.160128 1.73855e-17)
(-2.11572 0.141249 0)
(-2.22008 0.124393 1.71654e-17)
(-2.3183 0.106794 1.70551e-17)
(-2.40914 0.0872892 0)
(-2.49076 0.0683812 0)
(-2.56528 0.0538109 0)
(-2.63452 0.0442646 0)
(-2.70042 0.0393099 0)
(-2.76242 0.0378166 -1.63736e-17)
(-2.82249 0.0372078 -3.2515e-17)
(-2.88097 0.0371791 1.61413e-17)
(-2.935 0.0345049 0)
(-2.98671 0.0304938 -3.18128e-17)
(-3.0362 0.0291342 1.57874e-17)
(-3.08287 0.0301475 0)
(-3.13054 0.031096 1.55498e-17)
(-3.17599 0.0337793 0)
(-3.21947 0.0352241 0)
(-3.26134 0.0348045 3.03752e-17)
(-3.3022 0.034171 -1.50673e-17)
(-3.33856 0.0321512 2.98916e-17)
(-3.37244 0.0294689 -2.96503e-17)
(-3.40036 0.0258512 -1.47045e-17)
(-3.42512 0.0210464 0)
(-3.44347 0.0134266 -1.44628e-17)
(-3.45504 0.00313702 0)
(-3.46084 -0.00771233 0)
(-3.45813 -0.0203512 0)
(-3.44614 -0.0347111 -1.39829e-17)
(-3.42582 -0.0488236 0)
(-3.39894 -0.0590285 -2.74949e-17)
(-3.36624 -0.0662054 4.0894e-17)
(-3.32816 -0.0747551 1.35162e-17)
(-3.28376 -0.0858118 0)
(-3.23146 -0.0984919 1.32878e-17)
(-3.1739 -0.111092 0)
(-3.11075 -0.123051 2.61241e-17)
(-3.04245 -0.133968 0)
(-2.96922 -0.144382 2.56811e-17)
(-2.89095 -0.153708 -5.09223e-17)
(-2.8088 -0.162598 -2.52473e-17)
(-2.7243 -0.170611 0)
(-2.63474 -0.178244 0)
(-2.54297 -0.183969 0)
(-2.44891 -0.18819 2.44072e-17)
(-2.35157 -0.192253 0)
(-2.25298 -0.194907 -2.40008e-17)
(-2.15442 -0.195206 0)
(-2.05531 -0.196701 7.08211e-17)
(-1.95635 -0.195954 2.34168e-17)
(-1.85684 -0.196839 2.32308e-17)
(-1.7595 -0.193959 0)
(-1.66459 -0.193422 0)
(-1.56907 -0.194465 0)
(-1.47098 -0.195219 0)
(-1.37408 -0.197561 0)
(-1.27124 -0.201886 4.43214e-17)
(-1.17514 -0.199733 4.39851e-17)
(-1.07514 -0.199938 0)
(-0.988091 -0.194114 -2.16746e-17)
(-0.891403 -0.195474 -2.15227e-17)
(-0.804771 -0.188319 0)
(-0.710085 -0.187114 -4.24426e-17)
(-0.63257 -0.185878 0)
(-0.53676 -0.196293 2.0937e-17)
(-0.45156 -0.190247 0)
(-0.346482 -0.198507 0)
(-0.25245 -0.195201 -4.10566e-17)
(-0.139979 -0.203655 0)
(-0.0365086 -0.203609 2.02717e-17)
(0.0878891 -0.211045 0)
(0.21328 -0.218893 0)
(0.348749 -0.223412 1.98866e-17)
(0.488768 -0.228588 1.97704e-17)
(0.634194 -0.234515 0)
(0.783429 -0.235353 -1.95332e-17)
(0.943147 -0.236759 0)
(1.10225 -0.228963 1.92967e-17)
(1.26755 -0.219191 3.83634e-17)
(1.41508 -0.212835 0)
(1.57213 -0.213802 0)
(1.71683 -0.213735 0)
(1.87631 -0.215102 0)
(2.02256 -0.210106 3.72315e-17)
(2.17662 -0.206798 1.1101e-16)
(2.31251 -0.187584 0)
(2.43618 -0.183137 0)
(2.55551 -0.173184 0)
(2.6614 -0.175323 -3.60811e-17)
(2.76492 -0.17989 0)
(2.86686 -0.179155 0)
(2.96279 -0.177372 7.06185e-17)
(3.05705 -0.176474 3.50349e-17)
(3.13113 -0.170392 3.47661e-17)
(3.21859 -0.179822 0)
(3.28278 -0.1739 0)
(3.35136 -0.175274 3.3922e-17)
(3.39786 -0.164291 -3.36164e-17)
(3.44429 -0.178372 0)
(3.47394 -0.17502 0)
(3.50879 -0.191141 -3.2724e-17)
(3.53717 -0.173334 9.71955e-17)
(3.55222 -0.169035 0)
(3.56328 -0.180041 0)
(3.57516 -0.191721 3.14625e-17)
(3.59637 -0.189718 0)
(3.59261 -0.183167 6.16313e-17)
(3.59137 -0.1814 -3.04744e-17)
(3.56455 -0.185628 0)
(3.56101 -0.19455 2.98482e-17)
(3.53692 -0.190853 5.9061e-17)
(3.52548 -0.192283 0)
(3.47884 -0.185551 0)
(3.45539 -0.194539 -2.85763e-17)
(3.41494 -0.186448 0)
(3.35766 -0.16903 5.58896e-17)
(3.26018 -0.149811 0)
(3.16808 -0.154798 0)
(3.04768 -0.146292 0)
(2.91879 -0.121301 0)
(2.72309 -0.102325 -2.66524e-17)
(2.56412 -0.0757776 -2.64632e-17)
(2.27959 -0.0262983 0)
(2.00652 -0.00149533 0)
(1.67668 0.0227397 0)
(1.38193 0.0186782 2.59581e-17)
(1.04864 0.0233275 0)
(0.84126 0.0142831 -5.16685e-17)
(0.520238 0.0333917 5.16414e-17)
(0.405043 0.00119196 5.1493e-17)
(0.124029 0.0320613 5.14833e-17)
(0.124185 -0.0158428 5.13304e-17)
(-0.1723 0.0788086 5.14945e-17)
(0.0148425 -0.117439 0)
(0.0290571 0.0710937 0)
(0.121182 -0.0382402 0)
(0.22821 -0.241314 2.29123e-17)
(0.340301 -0.468189 2.26638e-17)
(0.474731 -0.69285 -2.25124e-17)
(0.61886 -0.874891 -2.23999e-17)
(0.773089 -1.00369 -1.48279e-21)
(0.924402 -1.07406 0)
(1.0695 -1.08488 0)
(1.19628 -1.04572 0)
(1.30504 -0.965923 0)
(1.391 -0.856708 0)
(1.4566 -0.726254 6.47119e-17)
(1.49733 -0.586072 0)
(1.51602 -0.441294 -2.13049e-17)
(1.51086 -0.294927 -2.11686e-17)
(1.48478 -0.153628 0)
(1.43632 -0.0202572 0)
(1.37014 0.103475 0)
(1.28598 0.215829 0)
(1.18613 0.31507 -2.05025e-17)
(1.0714 0.398033 0)
(0.946812 0.470358 2.02485e-17)
(0.809617 0.535467 0)
(0.662696 0.590328 0)
(0.50741 0.635268 0)
(0.349174 0.671243 3.95249e-17)
(0.186969 0.698489 0)
(0.0233043 0.717963 -1.95222e-17)
(-0.141377 0.728416 3.87998e-17)
(-0.305344 0.731665 0)
(-0.471605 0.733503 0)
(-0.638087 0.730625 0)
(-0.803414 0.721263 -1.89165e-17)
(-0.965151 0.706161 -1.87957e-17)
(-1.12372 0.684804 0)
(-1.27754 0.657634 0)
(-1.42581 0.626237 3.68588e-17)
(-1.56714 0.592294 3.66191e-17)
(-1.70677 0.558028 -3.63808e-17)
(-1.8414 0.525378 0)
(-1.97425 0.491908 0)
(-2.1015 0.459772 0)
(-2.22505 0.430433 0)
(-2.34441 0.402765 3.52e-17)
(-2.45778 0.373547 3.49664e-17)
(-2.56601 0.34397 -3.47344e-17)
(-2.66866 0.315462 0)
(-2.76527 0.287545 0)
(-2.85657 0.258556 0)
(-2.94254 0.231732 0)
(-3.02849 0.213853 3.35752e-17)
(-3.10852 0.197835 0)
(-3.1835 0.184528 0)
(-3.25193 0.176627 3.28777e-17)
(-3.31567 0.171325 3.26461e-17)
(-3.374 0.164329 0)
(-3.42468 0.154859 -6.43591e-17)
(-3.47339 0.147882 3.19482e-17)
(-3.5181 0.141382 -3.17138e-17)
(-3.55705 0.13762 0)
(-3.59305 0.134914 0)
(-3.62298 0.130707 0)
(-3.648 0.126537 0)
(-3.67047 0.121389 -3.05524e-17)
(-3.68862 0.114048 -6.06458e-17)
(-3.70057 0.106195 -3.00973e-17)
(-3.70877 0.0978763 2.98724e-17)
(-3.70972 0.0863421 0)
(-3.70552 0.0730743 -5.88394e-17)
(-3.69331 0.0568808 -5.83911e-17)
(-3.67579 0.0405268 -5.79462e-17)
(-3.654 0.0225127 5.75045e-17)
(-3.62335 -2.39832e-05 0)
(-3.58572 -0.0229626 8.49416e-17)
(-3.54216 -0.04261 0)
(-3.49382 -0.0581388 -2.78776e-17)
(-3.43689 -0.0719629 -2.76647e-17)
(-3.37199 -0.0876196 0)
(-3.30083 -0.104421 0)
(-3.22616 -0.12108 -5.40411e-17)
(-3.14926 -0.135806 0)
(-3.06837 -0.149886 -5.31939e-17)
(-2.98493 -0.163401 0)
(-2.89691 -0.177649 5.2355e-17)
(-2.80543 -0.188937 1.03882e-16)
(-2.71029 -0.198622 0)
(-2.61437 -0.207845 0)
(-2.51542 -0.215423 0)
(-2.41776 -0.221782 5.02916e-17)
(-2.31827 -0.227698 0)
(-2.21551 -0.232467 4.94699e-17)
(-2.10984 -0.235777 0)
(-2.00371 -0.23494 0)
(-1.89516 -0.234949 -9.65064e-17)
(-1.78945 -0.2324 0)
(-1.68184 -0.23174 -4.74617e-17)
(-1.5785 -0.225618 0)
(-1.47091 -0.226381 -4.66936e-17)
(-1.36421 -0.225692 0)
(-1.25519 -0.224862 0)
(-1.14783 -0.228584 0)
(-1.03709 -0.231093 -1.3569e-16)
(-0.937159 -0.222391 -4.48682e-17)
(-0.827542 -0.21933 0)
(-0.734854 -0.208416 0)
(-0.63292 -0.210242 0)
(-0.548215 -0.197284 0)
(-0.444 -0.193412 4.32335e-17)
(-0.358962 -0.187407 -8.58309e-17)
(-0.25256 -0.204437 -4.26304e-17)
(-0.165954 -0.196672 8.46529e-17)
(-0.0466516 -0.212561 8.40899e-17)
(0.0546002 -0.208756 4.17592e-17)
(0.184037 -0.223586 0)
(0.296271 -0.224125 8.23929e-17)
(0.434581 -0.239711 0)
(0.566021 -0.249046 -8.12821e-17)
(0.713788 -0.256005 -4.03832e-17)
(0.859396 -0.261447 0)
(1.01403 -0.270215 7.97617e-17)
(1.16278 -0.273412 3.96278e-17)
(1.32477 -0.281705 0)
(1.48297 -0.280097 3.909e-17)
(1.65705 -0.26929 -1.16509e-16)
(1.81583 -0.25707 0)
(1.98026 -0.255967 0)
(2.13181 -0.255476 0)
(2.29186 -0.258548 0)
(2.44786 -0.253905 -7.51571e-17)
(2.60345 -0.25087 -7.46584e-17)
(2.75436 -0.219768 0)
(2.89221 -0.214506 0)
(3.02344 -0.202369 0)
(3.14548 -0.201045 0)
(3.25307 -0.206057 0)
(3.37331 -0.208897 0)
(3.48702 -0.207977 -7.09564e-17)
(3.60111 -0.205468 -1.65038e-20)
(3.69487 -0.19617 0)
(3.80555 -0.209456 0)
(3.89387 -0.197128 -6.86117e-17)
(3.98753 -0.197832 0)
(4.06616 -0.176998 6.74311e-17)
(4.1367 -0.187898 6.68141e-17)
(4.17841 -0.170614 0)
(4.2335 -0.189082 0)
(4.27213 -0.165146 -6.49057e-17)
(4.32291 -0.156424 -1.28522e-16)
(4.35099 -0.160802 0)
(4.38449 -0.172928 0)
(4.42684 -0.164058 0)
(4.4405 -0.149617 -6.16971e-17)
(4.46995 -0.13652 6.10091e-17)
(4.46959 -0.135996 0)
(4.48979 -0.142013 1.19383e-16)
(4.47348 -0.129832 5.90363e-17)
(4.49068 -0.128152 -1.16778e-16)
(4.46806 -0.109749 0)
(4.46737 -0.116802 0)
(4.43658 -0.0953554 -1.12757e-16)
(4.39621 -0.0674496 -5.57179e-17)
(4.3117 -0.0379015 0)
(4.24785 -0.0354726 0)
(4.11463 -0.0171029 0)
(4.00438 0.0255716 0)
(3.79154 0.0530177 -1.05586e-16)
(3.62261 0.0959824 0)
(3.3243 0.167276 0)
(3.06543 0.191941 0)
(2.71491 0.219724 0)
(2.40095 0.202659 0)
(2.01204 0.187087 0)
(1.77473 0.154081 -1.00634e-16)
(1.3694 0.151731 0)
(1.23992 0.0831607 0)
(0.855958 0.10538 -1.99413e-16)
(0.851325 0.0228257 9.92454e-17)
(0.465839 0.11139 -9.94007e-17)
(0.661652 -0.12871 9.87812e-17)
(0.0206108 -0.0942215 0)
(0.125018 -0.269347 -4.69557e-17)
(0.247771 -0.489734 0)
(0.375673 -0.755182 -2.27963e-17)
(0.50225 -0.998869 0)
(0.618253 -1.18781 0)
(0.722724 -1.30545 2.24454e-17)
(0.8032 -1.34869 0)
(0.865886 -1.31882 0)
(0.904941 -1.23305 0)
(0.926862 -1.11033 0)
(0.92949 -0.961159 0)
(0.917705 -0.794116 -8.66155e-17)
(0.888873 -0.617105 -4.30249e-17)
(0.846482 -0.434508 4.27454e-17)
(0.790244 -0.253621 0)
(0.722209 -0.0811144 0)
(0.640998 0.0801016 0)
(0.550089 0.228635 0)
(0.448963 0.361822 0)
(0.340396 0.479261 -4.11505e-17)
(0.222565 0.581077 -4.08979e-17)
(0.0967874 0.671827 4.06487e-17)
(-0.034791 0.747922 -4.04011e-17)
(-0.170511 0.810768 0)
(-0.30901 0.858948 0)
(-0.449043 0.895077 -3.96578e-17)
(-0.589453 0.919908 0)
(-0.730804 0.934172 0)
(-0.87272 0.94293 -3.89248e-17)
(-1.01524 0.948571 -3.86815e-17)
(-1.15563 0.946457 -3.84371e-17)
(-1.29297 0.937574 0)
(-1.4271 0.922504 0)
(-1.55669 0.901253 3.76935e-17)
(-1.68133 0.87183 0)
(-1.80208 0.836505 0)
(-1.91926 0.797234 -3.69486e-17)
(-2.03349 0.759431 3.6697e-17)
(-2.14621 0.721502 -3.64482e-17)
(-2.2525 0.682916 0)
(-2.35715 0.643668 0)
(-2.45778 0.607458 -7.14189e-17)
(-2.55566 0.573336 0)
(-2.64823 0.535305 -7.04529e-17)
(-2.73735 0.497289 -1.04962e-16)
(-2.82282 0.461528 1.04241e-16)
(-2.90301 0.425264 -6.9014e-17)
(-2.98004 0.387994 0)
(-3.05445 0.352337 0)
(-3.12841 0.3241 -6.76015e-17)
(-3.19958 0.29945 -3.35702e-17)
(-3.26441 0.273725 0)
(-3.32503 0.252513 0)
(-3.38102 0.237005 -3.28781e-17)
(-3.43157 0.219975 -6.52964e-17)
(-3.47585 0.200875 0)
(-3.51414 0.182795 6.43785e-17)
(-3.54856 0.168267 -6.39194e-17)
(-3.57759 0.154594 6.34637e-17)
(-3.60086 0.140732 0)
(-3.61785 0.127424 0)
(-3.63043 0.116181 0)
(-3.63765 0.104973 0)
(-3.6412 0.0948338 0)
(-3.63931 0.0790105 6.07739e-17)
(-3.63307 0.0618415 0)
(-3.62009 0.0431313 0)
(-3.60122 0.0219918 0)
(-3.57818 -0.000108549 1.18047e-16)
(-3.5496 -0.0242633 5.85914e-17)
(-3.51625 -0.0484844 5.8158e-17)
(-3.47792 -0.0757286 -1.15458e-16)
(-3.4332 -0.107421 5.73041e-17)
(-3.38507 -0.137759 -5.68848e-17)
(-3.33068 -0.165498 0)
(-3.27137 -0.191569 5.60377e-17)
(-3.20211 -0.218364 0)
(-3.12868 -0.24373 0)
(-3.04961 -0.265754 0)
(-2.96902 -0.286555 1.08719e-16)
(-2.88625 -0.305623 -5.39463e-17)
(-2.80016 -0.324569 -5.35328e-17)
(-2.7128 -0.343346 -1.0627e-16)
(-2.62143 -0.363126 -1.58216e-16)
(-2.52916 -0.378858 -5.23434e-17)
(-2.43215 -0.391673 0)
(-2.33557 -0.403145 -1.03071e-16)
(-2.23746 -0.411303 0)
(-2.13945 -0.417799 -1.52207e-16)
(-2.04064 -0.427874 0)
(-1.943 -0.434355 -1.49834e-16)
(-1.83923 -0.440722 0)
(-1.73497 -0.441357 0)
(-1.62586 -0.442861 -4.87477e-17)
(-1.51825 -0.439488 0)
(-1.40732 -0.438897 4.79728e-17)
(-1.30122 -0.43416 9.51573e-17)
(-1.18729 -0.435872 4.72039e-17)
(-1.07743 -0.437759 9.36503e-17)
(-0.958948 -0.438332 -9.28932e-17)