/*--------------------------------*- C++ -*----------------------------------*\
| =========                 |                                                 |
| \\      /  F ield         | OpenFOAM: The Open Source CFD Toolbox           |
|  \\    /   O peration     | Version:  dev                                   |
|   \\  /    A nd           | Web:      http://www.openfoam.org               |
|    \\/     M anipulation  |                                                 |
\*---------------------------------------------------------------------------*/
FoamFile
{
    version     2.0;
    format      ascii;
    class       volSymmTensorField;
    object      UPrime2Mean;
    location    "9.126";
}
// * * * * * * * * * * * * * * * * * * * * * * * * * * * * * * * * * * * * * //

dimensions      [0 2 -2 0 0 0 0];

internalField   nonuniform List<symmTensor> 
12225
(
(0.329197 0.0192887 0 0.0693106 0 0)
(2.98538 0.0797448 0 0.0782405 0 0)
(7.87815 0.112399 0 0.0769421 0 0)
(14.53 0.148336 0 0.0756151 0 0)
(22.6958 0.133171 0 0.0765596 0 0)
(32.0564 0.20125 0 0.0747118 0 0)
(42.3649 0.0962241 0 0.0766513 0 0)
(53.504 0.200668 0 0.0738877 0 0)
(65.5928 -0.0280569 0 0.0776452 0 0)
(78.184 0.126093 0 0.0736522 0 0)
(92.9246 -0.305679 0 0.081337 0 0)
(107.26 -0.115108 0 0.0770191 0 0)
(127.86 -0.671505 0 0.086322 0 0)
(145.563 -1.27646 0 0.134727 0 0)
(185.856 -1.40846 0 0.116365 0 0)
(198.442 -0.392797 0 2.39144 0 0)
(272.202 -33.5209 0 5.8064 0 0)
(575.619 -52.8974 0 18.8076 0 0)
(0.377331 0.0568674 0 0.689425 0 0)
(3.15516 0.252404 0 0.732754 0 0)
(8.40828 0.362379 0 0.714597 0 0)
(15.4682 0.485762 0 0.707083 0 0)
(24.1891 0.453583 0 0.703934 0 0)
(34.443 0.633393 0 0.683755 0 0)
(45.5064 0.297004 0 0.692531 0 0)
(58.4538 0.610077 0 0.659195 0 0)
(71.4402 -0.133762 0 0.683017 0 0)
(87.1032 0.284403 0 0.646337 0 0)
(102.732 -1.06292 0 0.71158 0 0)
(121.361 -0.763383 0 0.65573 0 0)
(142.775 -2.54019 0 1.06884 0 0)
(166.237 -4.48796 0 1.04662 0 0)
(199.663 -0.927243 0 3.09871 0 0)
(274.238 -9.97494 0 6.59897 0 0)
(280.918 -20.816 0 8.73599 0 0)
(799.5 -185.092 0 64.6763 0 0)
(0.504951 0.058449 0 2.14201 0 0)
(3.0632 0.424941 0 2.20398 0 0)
(8.46336 0.570933 0 2.15286 0 0)
(14.8475 0.852621 0 2.14434 0 0)
(24.2673 0.865556 0 2.12121 0 0)
(33.137 1.05423 0 2.08397 0 0)
(45.2537 0.758008 0 2.07968 0 0)
(56.1759 0.888263 0 2.00885 0 0)
(69.6566 0.174866 0 2.05293 0 0)
(83.4049 0.0201276 0 1.96047 0 0)
(98.1414 -1.11934 0 2.12362 0 0)
(115.6 -2.44266 0 2.09519 0 0)
(138.552 -3.59067 0 2.62271 0 0)
(154.795 -7.19249 0 2.83079 0 0)
(210.898 -12.9951 0 6.11451 0 0)
(223.275 -7.88944 0 6.36983 0 0)
(352.817 -62.2196 0 31.0706 0 0)
(534.226 -192.328 0 98.1423 0 0)
(1.02986 0.0925196 0 4.67358 0 0)
(3.54892 0.619932 0 4.77023 0 0)
(9.06675 0.816477 0 4.64593 0 0)
(15.0616 1.151 0 4.60517 0 0)
(24.6284 1.31444 0 4.56081 0 0)
(32.9712 1.35164 0 4.48642 0 0)
(44.9885 1.26405 0 4.45134 0 0)
(55.1442 0.976274 0 4.35269 0 0)
(68.5722 0.479863 0 4.38434 0 0)
(80.6762 -0.278301 0 4.26043 0 0)
(95.9935 -1.32503 0 4.50956 0 0)
(110.461 -3.3348 0 4.3742 0 0)
(131.415 -4.78613 0 5.30291 0 0)
(152.169 -10.959 0 5.60722 0 0)
(187.782 -11.421 0 9.28146 0 0)
(238.28 -28.8365 0 16.8144 0 0)
(291.259 -58.8526 0 32.6635 0 0)
(414.648 -178.21 0 107.784 0 0)
(1.86382 0.365364 0 8.52845 0 0)
(5.00852 0.720574 0 8.73007 0 0)
(9.43344 1.14108 0 8.47873 0 0)
(16.2368 1.2958 0 8.37556 0 0)
(24.6389 1.70285 0 8.2858 0 0)
(33.9338 1.50462 0 8.15065 0 0)
(44.8006 1.6012 0 8.04977 0 0)
(55.4991 0.996485 0 7.91751 0 0)
(68.3834 0.605537 0 7.86425 0 0)
(80.0851 -0.588239 0 7.76601 0 0)
(95.326 -1.77146 0 7.96722 0 0)
(108.506 -4.2187 0 7.91383 0 0)
(128.037 -6.8684 0 9.02921 0 0)
(145.153 -12.2764 0 9.27034 0 0)
(173.875 -19.1825 0 14.5854 0 0)
(217.805 -25.9308 0 17.2087 0 0)
(233.505 -55.5184 0 46.2681 0 0)
(326.544 -171.658 0 138.623 0 0)
(2.56087 0.75096 0 14.0493 0 0)
(6.32283 0.807167 0 14.4013 0 0)
(9.29426 1.5412 0 13.9713 0 0)
(17.0909 1.59585 0 13.7763 0 0)
(24.1278 2.12295 0 13.6014 0 0)
(34.2532 1.93931 0 13.3692 0 0)
(43.9537 1.99496 0 13.1637 0 0)
(55.1478 1.41999 0 12.9224 0 0)
(67.294 0.90053 0 12.7852 0 0)
(78.8733 -0.378812 0 12.5836 0 0)
(94.3769 -1.72971 0 12.7829 0 0)
(105.779 -4.30199 0 12.6907 0 0)
(128.047 -7.25516 0 13.9909 0 0)
(137.87 -13.1416 0 14.6689 0 0)
(170.876 -21.8204 0 21.2447 0 0)
(191.392 -33.0126 0 24.5946 0 0)
(210.974 -55.8623 0 51.5691 0 0)
(265.537 -145.592 0 130.615 0 0)
(2.24172 0.72199 0 21.5468 0 0)
(5.53927 0.940926 0 22.163 0 0)
(9.19454 1.76506 0 21.3885 0 0)
(16.333 2.07917 0 21.2005 0 0)
(23.9633 2.45263 0 20.8015 0 0)
(33.3504 2.54596 0 20.5682 0 0)
(43.594 2.27884 0 20.0992 0 0)
(54.0261 1.93324 0 19.8689 0 0)
(66.4561 0.904021 0 19.4499 0 0)
(77.3265 -0.210948 0 19.2969 0 0)
(92.4729 -2.36198 0 19.2354 0 0)
(103.45 -4.8127 0 19.2779 0 0)
(123.577 -8.96747 0 20.4844 0 0)
(133.861 -14.2454 0 21.4618 0 0)
(161.446 -24.3811 0 28.5164 0 0)
(169.281 -32.3832 0 32.0536 0 0)
(203.304 -58.9665 0 56.8575 0 0)
(190.128 -108.697 0 114.112 0 0)
(1.42057 0.598872 0 29.7743 0 0)
(4.31588 1.13468 0 30.6602 0 0)
(8.57638 1.92538 0 29.5122 0 0)
(15.2437 2.47464 0 29.3409 0 0)
(23.1952 2.78024 0 28.6951 0 0)
(32.2515 2.96683 0 28.4339 0 0)
(42.4001 2.60291 0 27.6813 0 0)
(52.7658 2.19657 0 27.4005 0 0)
(64.3977 1.01411 0 26.6755 0 0)
(75.5801 -0.355329 0 26.5099 0 0)
(88.6015 -2.7426 0 26.1246 0 0)
(100.385 -5.72374 0 26.3486 0 0)
(115.481 -10.3077 0 27.1014 0 0)
(128.017 -15.7827 0 28.6152 0 0)
(144.569 -26.469 0 33.9215 0 0)
(151.945 -33.432 0 37.4848 0 0)
(180.239 -54.8482 0 53.1777 0 0)
(139.498 -71.2467 0 83.6829 0 0)
(1.00155 0.521306 0 38.5512 0 0)
(3.77034 1.2878 0 39.7464 0 0)
(8.17072 2.03706 0 38.2079 0 0)
(14.7184 2.78164 0 38.0667 0 0)
(22.6363 3.0085 0 37.156 0 0)
(31.5712 3.31936 0 36.8808 0 0)
(41.4811 2.80965 0 35.8286 0 0)
(51.751 2.47871 0 35.5098 0 0)
(62.7964 1.04529 0 34.4995 0 0)
(73.8097 -0.273486 0 34.2993 0 0)
(85.6139 -3.03638 0 33.6662 0 0)
(96.972 -5.89239 0 33.9254 0 0)
(109.281 -10.9344 0 34.4305 0 0)
(121.157 -16.022 0 36.1491 0 0)
(131.145 -25.5398 0 40.024 0 0)
(138.071 -33.1786 0 44.7549 0 0)
(149.896 -47.2776 0 52.4686 0 0)
(123.14 -58.6965 0 73.1198 0 0)
(0.60692 0.48467 0 49.7451 0 0)
(3.22894 1.44663 0 51.3345 0 0)
(7.73461 2.188 0 49.2362 0 0)
(14.1894 3.03835 0 49.149 0 0)
(21.9789 3.27651 0 47.8587 0 0)
(30.8335 3.58339 0 47.5793 0 0)
(40.4513 3.06964 0 46.1166 0 0)
(50.5816 2.64247 0 45.7477 0 0)
(61.0972 1.16824 0 44.3265 0 0)
(71.7603 -0.285291 0 44.0823 0 0)
(82.6325 -3.13302 0 43.0357 0 0)
(93.1707 -6.02741 0 43.3535 0 0)
(103.8 -11.0796 0 43.35 0 0)
(113.661 -15.8278 0 45.2054 0 0)
(121.26 -24.4827 0 47.7024 0 0)
(125.698 -30.5411 0 51.9715 0 0)
(129.025 -40.6789 0 56.4854 0 0)
(115.952 -48.3447 0 69.0432 0 0)
(0.43249 0.516485 0 63.9488 0 0)
(2.97612 1.62874 0 66.0055 0 0)
(7.46546 2.38531 0 63.3116 0 0)
(13.8379 3.31326 0 63.2 0 0)
(21.48 3.5731 0 61.5648 0 0)
(30.1728 3.86357 0 61.1502 0 0)
(39.5251 3.36096 0 59.3405 0 0)
(49.3572 2.82404 0 58.7452 0 0)
(59.4191 1.37549 0 57.0224 0 0)
(69.5155 -0.260395 0 56.5037 0 0)
(79.6022 -2.97372 0 55.1984 0 0)
(89.1309 -6.07163 0 55.2527 0 0)
(98.4391 -10.5408 0 54.903 0 0)
(106.312 -15.4002 0 56.4486 0 0)
(112.469 -22.11 0 57.8872 0 0)
(115.003 -28.0218 0 61.6149 0 0)
(115.946 -35.1616 0 64.5757 0 0)
(109.504 -40.7551 0 71.4677 0 0)
(0.355855 0.540985 0 81.4535 0 0)
(2.82977 1.7464 0 84.141 0 0)
(7.25777 2.55687 0 80.6707 0 0)
(13.5086 3.50436 0 80.5616 0 0)
(20.9769 3.81238 0 78.4736 0 0)
(29.4497 4.04085 0 77.9202 0 0)
(38.5001 3.56506 0 75.6291 0 0)
(47.9625 2.92448 0 74.8036 0 0)
(57.5077 1.48681 0 72.6093 0 0)
(66.9929 -0.216064 0 71.8209 0 0)
(76.1976 -2.86415 0 70.0627 0 0)
(84.7764 -5.84721 0 69.8015 0 0)
(92.6748 -9.94873 0 68.9626 0 0)
(99.0992 -14.2743 0 69.9135 0 0)
(103.808 -19.7166 0 70.5519 0 0)
(105.751 -24.6265 0 73.053 0 0)
(105.906 -29.7874 0 74.9916 0 0)
(101.665 -33.2689 0 78.6422 0 0)
(0.329092 0.569507 0 102.545 0 0)
(2.73464 1.80814 0 105.758 0 0)
(7.06488 2.68499 0 101.729 0 0)
(13.1475 3.58604 0 101.26 0 0)
(20.4206 3.93661 0 98.9935 0 0)
(28.5984 4.05839 0 97.9133 0 0)
(37.3245 3.61934 0 95.3966 0 0)
(46.3171 2.83852 0 93.946 0 0)
(55.3377 1.47993 0 91.507 0 0)
(64.1106 -0.335406 0 90.0541 0 0)
(72.4818 -2.75142 0 88.0245 0 0)
(80.0647 -5.68023 0 87.0477 0 0)
(86.7795 -9.18769 0 85.8325 0 0)
(92.0358 -13.074 0 85.8365 0 0)
(95.7335 -17.2887 0 85.7827 0 0)
(97.3171 -21.3526 0 86.9206 0 0)
(97.4193 -25.1941 0 87.9443 0 0)
(94.6177 -27.6468 0 89.5444 0 0)
(0.313529 0.573752 0 126.556 0 0)
(2.63939 1.77529 0 130.488 0 0)
(6.84415 2.66937 0 125.775 0 0)
(12.7235 3.46571 0 124.965 0 0)
(19.7545 3.7943 0 122.432 0 0)
(27.5986 3.80923 0 120.855 0 0)
(35.933 3.33675 0 117.969 0 0)
(44.4351 2.49108 0 115.934 0 0)
(52.8643 1.13768 0 113.071 0 0)
(60.9506 -0.623944 0 110.978 0 0)
(68.4924 -2.89003 0 108.484 0 0)
(75.2096 -5.51988 0 106.754 0 0)
(80.9419 -8.57275 0 104.983 0 0)
(85.387 -11.7939 0 103.975 0 0)
(88.4294 -15.1542 0 103.139 0 0)
(89.8656 -18.3195 0 102.961 0 0)
(90.1678 -21.2364 0 102.97 0 0)
(88.2063 -22.8814 0 103.118 0 0)
(0.29914 0.525265 0 151.989 0 0)
(2.53146 1.58284 0 156.495 0 0)
(6.58006 2.37912 0 151.361 0 0)
(12.2258 2.99006 0 149.922 0 0)
(18.9617 3.21442 0 147.361 0 0)
(26.4346 3.07338 0 145.047 0 0)
(34.3284 2.53407 0 141.956 0 0)
(42.3108 1.60326 0 139.147 0 0)
(50.1407 0.275364 0 135.945 0 0)
(57.5532 -1.42787 0 133.065 0 0)
(64.3599 -3.48787 0 130.11 0 0)
(70.3332 -5.82362 0 127.534 0 0)
(75.3425 -8.39852 0 125.127 0 0)
(79.2256 -11.0486 0 123.121 0 0)
(81.9212 -13.6847 0 121.403 0 0)
(83.3377 -16.1477 0 120.06 0 0)
(83.9198 -18.3447 0 118.967 0 0)
(82.7135 -19.3892 0 117.852 0 0)
(0.283835 0.394466 0 175.227 0 0)
(2.41306 1.14627 0 180.432 0 0)
(6.27991 1.67167 0 174.819 0 0)
(11.6642 2.00456 0 172.936 0 0)
(18.0666 2.00246 0 170.252 0 0)
(25.1413 1.66647 0 167.399 0 0)
(32.5675 0.986822 0 164.01 0 0)
(40.03 -0.0210211 0 160.611 0 0)
(47.2817 -1.35412 0 156.991 0 0)
(54.0896 -2.96462 0 153.473 0 0)
(60.2757 -4.83143 0 149.982 0 0)
(65.6762 -6.86066 0 146.687 0 0)
(70.1861 -9.0133 0 143.586 0 0)
(73.7325 -11.1596 0 140.728 0 0)
(76.2858 -13.222 0 138.133 0 0)
(77.8105 -15.1202 0 135.804 0 0)
(78.692 -16.7667 0 133.688 0 0)
(78.1437 -17.363 0 131.485 0 0)
(0.268625 0.156493 0 190.348 0 0)
(2.29224 0.391313 0 196.027 0 0)
(5.9635 0.48945 0 190.128 0 0)
(11.0688 0.411258 0 187.984 0 0)
(17.1212 0.07506 0 185.236 0 0)
(23.7884 -0.532793 0 182.063 0 0)
(30.7532 -1.40132 0 178.482 0 0)
(37.7204 -2.52282 0 174.726 0 0)
(44.4541 -3.87161 0 170.811 0 0)
(50.7484 -5.4106 0 166.889 0 0)
(56.4503 -7.09635 0 162.993 0 0)
(61.4384 -8.86375 0 159.21 0 0)
(65.6372 -10.6584 0 155.57 0 0)
(69.0176 -12.4023 0 152.105 0 0)
(71.5723 -14.0196 0 148.835 0 0)
(73.2903 -15.4888 0 145.788 0 0)
(74.4844 -16.7242 0 142.892 0 0)
(74.5288 -17.0441 0 139.893 0 0)
(0.258977 -0.14261 0 190.321 0 0)
(2.19477 -0.534682 0 195.957 0 0)
(5.68701 -0.938318 0 190.122 0 0)
(10.5363 -1.49362 0 187.969 0 0)
(16.2733 -2.21404 0 185.264 0 0)
(22.5804 -3.11633 0 182.097 0 0)
(29.15 -4.1896 0 178.541 0 0)
(35.7095 -5.42813 0 174.789 0 0)
(42.0363 -6.80144 0 170.861 0 0)
(47.953 -8.28093 0 166.906 0 0)
(53.3236 -9.81985 0 162.929 0 0)
(58.0598 -11.3757 0 159.04 0 0)
(62.1006 -12.8957 0 155.224 0 0)
(65.44 -14.3364 0 151.557 0 0)
(68.0768 -15.6326 0 148.012 0 0)
(70.0162 -16.7915 0 144.671 0 0)
(71.4918 -17.7377 0 141.42 0 0)
(72.0253 -17.9416 0 138.087 0 0)
(0.255832 -0.396592 0 174.493 0 0)
(2.13567 -1.30721 0 179.449 0 0)
(5.49643 -2.1291 0 174.116 0 0)
(10.1559 -3.07789 0 172.122 0 0)
(15.6596 -4.10655 0 169.639 0 0)
(21.7029 -5.23581 0 166.748 0 0)
(27.9888 -6.45859 0 163.495 0 0)
(34.2628 -7.7718 0 160.069 0 0)
(40.3152 -9.14698 0 156.461 0 0)
(45.9894 -10.5643 0 152.83 0 0)
(51.1604 -11.9817 0 149.144 0 0)
(55.7599 -13.3729 0 145.535 0 0)
(59.7346 -14.6927 0 141.949 0 0)
(63.0886 -15.9182 0 138.495 0 0)
(65.8199 -16.9979 0 135.108 0 0)
(67.9461 -17.947 0 131.905 0 0)
(69.6362 -18.7042 0 128.747 0 0)
(70.5327 -18.8912 0 125.545 0 0)
(0.257299 -0.545811 0 149.041 0 0)
(2.10796 -1.74853 0 153.002 0 0)
(5.38216 -2.82448 0 148.463 0 0)
(9.91418 -4.00828 0 146.745 0 0)
(15.2613 -5.21226 0 144.622 0 0)
(21.1278 -6.4614 0 142.168 0 0)
(27.2261 -7.74772 0 139.402 0 0)
(33.3143 -9.07306 0 136.495 0 0)
(39.1929 -10.4101 0 133.422 0 0)
(44.7182 -11.7488 0 130.328 0 0)
(49.7749 -13.051 0 127.17 0 0)
(54.3041 -14.3036 0 124.073 0 0)
(58.2593 -15.4672 0 120.977 0 0)
(61.6463 -16.5329 0 117.986 0 0)
(64.4641 -17.457 0 115.035 0 0)
(66.7349 -18.2587 0 112.236 0 0)
(68.5839 -18.8874 0 109.461 0 0)
(69.7433 -19.0964 0 106.668 0 0)
(0.26018 -0.601586 0 120.119 0 0)
(2.0991 -1.89069 0 123.092 0 0)
(5.31625 -3.06911 0 119.441 0 0)
(9.76297 -4.34251 0 118.047 0 0)
(15.0053 -5.60108 0 116.34 0 0)
(20.7544 -6.87094 0 114.375 0 0)
(26.729 -8.14183 0 112.161 0 0)
(32.6967 -9.41911 0 109.833 0 0)
(38.4649 -10.6774 0 107.367 0 0)
(43.8987 -11.9137 0 104.882 0 0)
(48.8904 -13.0941 0 102.339 0 0)
(53.3856 -14.2141 0 99.8385 0 0)
(57.3431 -15.2394 0 97.3322 0 0)
(60.7677 -16.1699 0 94.9053 0 0)
(63.6595 -16.9686 0 92.5056 0 0)
(66.0436 -17.6552 0 90.2206 0 0)
(68.0146 -18.1886 0 87.9543 0 0)
(69.3727 -18.4238 0 85.6776 0 0)
(0.263118 -0.59077 0 91.9508 0 0)
(2.09879 -1.83084 0 94.0679 0 0)
(5.27857 -2.99794 0 91.2751 0 0)
(9.6685 -4.24872 0 90.2011 0 0)
(14.8404 -5.46927 0 88.9012 0 0)
(20.5109 -6.68202 0 87.4056 0 0)
(26.4039 -7.87652 0 85.7242 0 0)
(32.2928 -9.05777 0 83.9513 0 0)
(37.9911 -10.2051 0 82.0746 0 0)
(43.3687 -11.3172 0 80.1764 0 0)
(48.3239 -12.3672 0 78.2345 0 0)
(52.8047 -13.3533 0 76.3189 0 0)
(56.7735 -14.2483 0 74.3996 0 0)
(60.2334 -15.0546 0 72.5351 0 0)
(63.1862 -15.7441 0 70.6927 0 0)
(65.6588 -16.3318 0 68.9316 0 0)
(67.7242 -16.7885 0 67.1877 0 0)
(69.235 -17.0377 0 65.4336 0 0)
(0.266214 -0.536928 0 66.9807 0 0)
(2.10267 -1.65152 0 68.4221 0 0)
(5.25734 -2.73171 0 66.3891 0 0)
(9.60959 -3.8849 0 65.6059 0 0)
(14.7343 -5.00473 0 64.6672 0 0)
(20.3525 -6.10706 0 63.5849 0 0)
(26.192 -7.18388 0 62.37 0 0)
(32.0299 -8.23707 0 61.0837 0 0)
(37.6843 -9.25183 0 59.724 0 0)
(43.0283 -10.2257 0 58.3435 0 0)
(47.9646 -11.1395 0 56.9337 0 0)
(52.4423 -11.9908 0 55.5383 0 0)
(56.4262 -12.7601 0 54.1435 0 0)
(59.9181 -13.4492 0 52.7839 0 0)
(62.9209 -14.0384 0 51.443 0 0)
(65.4626 -14.5372 0 50.1563 0 0)
(67.6004 -14.9272 0 48.8858 0 0)
(69.2291 -15.1748 0 47.6039 0 0)
(0.268034 -0.46302 0 46.3222 0 0)
(2.1071 -1.41644 0 47.2617 0 0)
(5.24555 -2.36461 0 45.8601 0 0)
(9.57287 -3.37624 0 45.3218 0 0)
(14.666 -4.35757 0 44.6802 0 0)
(20.2496 -5.318 0 43.9361 0 0)
(26.0546 -6.25252 0 43.1016 0 0)
(31.8602 -7.15942 0 42.2139 0 0)
(37.4878 -8.02979 0 41.2778 0 0)
(42.8127 -8.85893 0 40.3242 0 0)
(47.7398 -9.63462 0 39.3537 0 0)
(52.2195 -10.3528 0 38.3905 0 0)
(56.2178 -11.0013 0 37.4304 0 0)
(59.7358 -11.5794 0 36.4918 0 0)
(62.7765 -12.0748 0 35.568 0 0)
(65.369 -12.4916 0 34.6783 0 0)
(67.5588 -12.8195 0 33.8029 0 0)
(69.2734 -13.0499 0 32.9163 0 0)
(0.269221 -0.383206 0 30.1793 0 0)
(2.11068 -1.16508 0 30.7641 0 0)
(5.23887 -1.959 0 29.8533 0 0)
(9.54949 -2.80826 0 29.5059 0 0)
(14.6213 -3.63214 0 29.0936 0 0)
(20.1818 -4.43685 0 28.6128 0 0)
(25.9637 -5.21861 0 28.0733 0 0)
(31.7473 -5.97441 0 27.4974 0 0)
(37.3561 -6.69776 0 26.891 0 0)
(42.6663 -7.38389 0 26.2723 0 0)
(47.5851 -8.02427 0 25.644 0 0)
(52.0622 -8.61476 0 25.0192 0 0)
(56.0659 -9.14741 0 24.3978 0 0)
(59.596 -9.62033 0 23.7888 0 0)
(62.6564 -10.026 0 23.1904 0 0)
(65.2748 -10.3647 0 22.6123 0 0)
(67.4915 -10.6319 0 22.0449 0 0)
(69.2591 -10.8294 0 21.469 0 0)
(0.269548 -0.304711 0 18.2245 0 0)
(2.11247 -0.920109 0 18.5689 0 0)
(5.23353 -1.55465 0 18.0179 0 0)
(9.53013 -2.2378 0 17.8118 0 0)
(14.5829 -2.90215 0 17.5686 0 0)
(20.1214 -3.55231 0 17.284 0 0)
(25.879 -4.18353 0 16.9636 0 0)
(31.6369 -4.7925 0 16.6205 0 0)
(37.2201 -5.37267 0 16.2585 0 0)
(42.5051 -5.92057 0 15.8883 0 0)
(47.4014 -6.42893 0 15.5115 0 0)
(51.8575 -6.8954 0 15.1362 0 0)
(55.8454 -7.31315 0 14.7625 0 0)
(59.3627 -7.68191 0 14.3955 0 0)
(62.418 -7.99587 0 14.0348 0 0)
(65.0336 -8.25563 0 13.6856 0 0)
(67.2535 -8.46034 0 13.3434 0 0)
(69.0486 -8.61075 0 12.9964 0 0)
(0.269181 -0.228352 0 9.88906 0 0)
(2.11022 -0.691489 0 10.0727 0 0)
(5.21632 -1.17905 0 9.77532 0 0)
(9.48667 -1.70896 0 9.67291 0 0)
(14.5093 -2.22354 0 9.54846 0 0)
(20.0143 -2.7241 0 9.39921 0 0)
(25.735 -3.2063 0 9.22845 0 0)
(31.455 -3.66767 0 9.04415 0 0)
(36.9991 -4.10245 0 8.8483 0 0)
(42.247 -4.5091 0 8.64721 0 0)
(47.1073 -4.88203 0 8.44145 0 0)
(51.5334 -5.2214 0 8.23621 0 0)
(55.4961 -5.5214 0 8.03093 0 0)
(58.9972 -5.78426 0 7.82957 0 0)
(62.0443 -6.00386 0 7.63117 0 0)
(64.659 -6.18376 0 7.43975 0 0)
(66.8827 -6.32691 0 7.25286 0 0)
(68.7113 -6.42898 0 7.06454 0 0)
(0.268062 -0.154856 0 4.48915 0 0)
(2.08337 -0.498015 0 4.58482 0 0)
(5.15502 -0.85262 0 4.45955 0 0)
(9.38585 -1.22912 0 4.4239 0 0)
(14.3829 -1.58627 0 4.37281 0 0)
(19.8625 -1.92867 0 4.30837 0 0)
(25.5566 -2.2537 0 4.23102 0 0)
(31.2507 -2.55908 0 4.14449 0 0)
(36.7718 -2.84326 0 4.05141 0 0)
(41.9991 -3.10738 0 3.95554 0 0)
(46.8428 -3.34856 0 3.85768 0 0)
(51.2596 -3.56765 0 3.76054 0 0)
(55.2165 -3.76091 0 3.6636 0 0)
(58.7236 -3.9304 0 3.56956 0 0)
(61.7773 -4.07002 0 3.47684 0 0)
(64.4108 -4.18508 0 3.38932 0 0)
(66.6316 -4.27559 0 3.30402 0 0)
(68.4884 -4.34564 0 3.21977 0 0)
(0.255144 -0.0882169 0 1.42199 0 0)
(2.06733 -0.313522 0 1.48774 0 0)
(5.20336 -0.526123 0 1.44766 0 0)
(9.49262 -0.734557 0 1.43451 0 0)
(14.5431 -0.924704 0 1.41439 0 0)
(20.0739 -1.10735 0 1.39111 0 0)
(25.8241 -1.28401 0 1.36446 0 0)
(31.5773 -1.45213 0 1.33512 0 0)
(37.1598 -1.61007 0 1.30411 0 0)
(42.446 -1.75765 0 1.27249 0 0)
(47.3491 -1.89337 0 1.24066 0 0)
(51.8182 -2.01724 0 1.20922 0 0)
(55.8248 -2.12726 0 1.17816 0 0)
(59.3716 -2.22407 0 1.14818 0 0)
(62.4585 -2.30359 0 1.1189 0 0)
(65.1234 -2.36981 0 1.0924 0 0)
(67.3439 -2.42243 0 1.06716 0 0)
(69.1927 -2.46192 0 1.0402 0 0)
(0.245826 -0.0253363 0 0.141942 0 0)
(2.06516 -0.0978402 0 0.153729 0 0)
(5.1823 -0.165597 0 0.150942 0 0)
(9.44079 -0.23086 0 0.149774 0 0)
(14.4726 -0.29377 0 0.147471 0 0)
(19.9908 -0.354105 0 0.144742 0 0)
(25.7345 -0.412926 0 0.141742 0 0)
(31.4854 -0.46942 0 0.13861 0 0)
(37.0751 -0.522762 0 0.135386 0 0)
(42.3793 -0.572765 0 0.132132 0 0)
(47.3128 -0.619121 0 0.128874 0 0)
(51.8228 -0.661802 0 0.12567 0 0)
(55.8829 -0.700237 0 0.122525 0 0)
(59.4883 -0.734285 0 0.119499 0 0)
(62.6453 -0.763211 0 0.116672 0 0)
(65.387 -0.788457 0 0.114333 0 0)
(67.6976 -0.806677 0 0.112257 0 0)
(69.6239 -0.815998 0 0.111871 0 0)
(0.024486 0.0357798 0 0.718005 0 0)
(0.267338 0.0991531 0 0.679036 0 0)
(0.785743 0.180999 0 0.671856 0 0)
(1.53947 0.295138 0 0.662607 0 0)
(2.48671 0.424263 0 0.660994 0 0)
(3.60919 0.569206 0 0.657723 0 0)
(4.88497 0.716374 -2.38558e-19 0.655768 -6.49333e-20 1.47967e-37)
(6.3112 0.867384 2.42503e-19 0.651467 6.92453e-20 1.48421e-37)
(7.88119 1.01441 0 0.645458 0 0)
(9.59298 1.16189 2.44767e-19 0.637881 6.86641e-20 1.46196e-37)
(11.4414 1.30596 0 0.629291 0 0)
(13.4204 1.44886 0 0.620187 0 0)
(15.5236 1.586 0 0.61222 0 0)
(17.7444 1.71771 -2.77036e-19 0.605744 -5.17442e-20 1.34815e-37)
(20.0769 1.84082 0 0.59952 0 0)
(22.5214 1.9544 0 0.594274 0 0)
(25.0781 2.05427 3.40125e-19 0.589952 3.90442e-20 1.22142e-37)
(27.7455 2.14209 0 0.585481 0 0)
(30.5186 2.22059 0 0.580806 0 0)
(33.3915 2.29207 0 0.576346 0 0)
(36.3484 2.35545 -4.55986e-19 0.573002 -1.96093e-20 1.01814e-37)
(39.3796 2.41135 0 0.569255 0 0)
(42.4714 2.45784 -5.15733e-19 0.566984 -1.03173e-20 9.2558e-38)
(45.6148 2.49486 0 0.568147 0 0)
(48.7935 2.52864 0 0.568845 0 0)
(51.9934 2.55183 -6.03841e-19 0.570972 1.16656e-21 7.97974e-38)
(55.2074 2.55419 0 0.572816 0 0)
(58.4398 2.5369 6.57455e-19 0.571339 -6.89406e-21 7.21865e-38)
(61.6847 2.50594 0 0.56353 0 0)
(64.9479 2.46313 -7.02219e-19 0.553169 1.04728e-20 6.54212e-38)
(68.2281 2.41111 0 0.539638 0 0)
(71.513 2.35236 0 0.523824 0 0)
(74.7948 2.28678 0 0.509778 0 0)
(78.0751 2.21063 0 0.498389 0 0)
(81.3477 2.12331 0 0.486829 0 0)
(84.6093 2.02776 7.79481e-19 0.475914 -1.4009e-20 4.60142e-38)
(87.8585 1.92383 0 0.464276 0 0)
(91.0964 1.81138 -1.56216e-18 0.448213 2.71704e-20 1.6144e-37)
(94.3213 1.69202 0 0.432598 0 0)
(97.5283 1.56459 1.55217e-18 0.417944 -2.6186e-20 1.40024e-37)
(100.71 1.43158 0 0.402785 0 0)
(103.867 1.28936 0 0.391121 0 0)
(106.989 1.13886 -1.51415e-18 0.378558 2.1574e-20 1.11321e-37)
(110.059 0.986108 0 0.365743 0 0)
(113.061 0.831354 -1.47562e-18 0.354936 1.82686e-20 9.43838e-38)
(115.982 0.673476 1.45317e-18 0.346079 -1.65349e-20 8.66902e-38)
(118.804 0.509757 0 0.339957 0 0)
(121.521 0.339807 1.40235e-18 0.335176 -1.25123e-20 7.34764e-38)
(124.116 0.164387 1.37414e-18 0.331272 -1.06476e-20 6.80139e-38)
(126.589 -0.0135159 0 0.328007 0 0)
(128.926 -0.192825 0 0.325865 0 0)
(131.109 -0.376363 0 0.323173 0 0)
(133.116 -0.564861 0 0.321954 0 0)
(134.926 -0.75564 0 0.323991 0 0)
(136.514 -0.945407 -1.17395e-18 0.328196 -4.39265e-21 5.0215e-38)
(137.851 -1.1366 0 0.332294 0 0)
(138.926 -1.33256 1.07935e-18 0.335973 1.14591e-20 4.756e-38)
(139.74 -1.53511 0 0.341196 0 0)
(140.29 -1.7438 0 0.347993 0 0)
(140.56 -1.94964 -9.11625e-19 0.357311 -2.24622e-20 4.75526e-38)
(140.545 -2.15374 0 0.369288 0 0)
(140.227 -2.35869 7.80246e-19 0.381293 3.12437e-20 4.97175e-38)
(139.613 -2.56239 0 0.391594 0 0)
(138.698 -2.766 0 0.404398 0 0)
(137.493 -2.96878 0 0.418559 0 0)
(136.01 -3.16435 -4.81822e-19 0.43295 -4.76086e-20 6.03575e-38)
(134.25 -3.35331 0 0.447651 0 0)
(132.229 -3.53593 0 0.460705 0 0)
(129.957 -3.71125 -2.25944e-19 0.474346 -6.12062e-20 7.30491e-38)
(127.455 -3.88445 0 0.489417 0 0)
(124.761 -4.05044 -5.0267e-20 0.504594 -6.98388e-20 8.30291e-38)
(121.886 -4.20396 0 0.520036 0 0)
(118.846 -4.34529 0 0.536011 0 0)
(115.674 -4.47584 0 0.55314 0 0)
(112.391 -4.59718 -3.05211e-19 0.571289 8.31888e-20 1.04542e-37)
(109.017 -4.70647 0 0.58938 0 0)
(105.568 -4.80037 0 0.607334 0 0)
(102.055 -4.87916 -5.64408e-19 0.625413 9.03164e-20 1.20174e-37)
(98.4909 -4.94729 -6.46178e-19 0.644164 9.18501e-20 1.25288e-37)
(94.9032 -5.00438 0 0.662951 0 0)
(91.3226 -5.04956 -7.9915e-19 0.682666 9.46136e-20 1.34708e-37)
(87.7703 -5.08355 0 0.703872 0 0)
(84.2664 -5.10567 -1.87797e-18 0.725444 1.92534e-19 5.74444e-37)
(80.8253 -5.1149 0 0.748086 0 0)
(77.4648 -5.1096 -2.12293e-18 0.770663 1.93652e-19 6.07567e-37)
(74.2031 -5.08801 0 0.793613 0 0)
(71.0544 -5.05335 2.32544e-18 0.819596 -1.93787e-19 6.36523e-37)
(68.0361 -5.00543 0 0.844655 0 0)
(65.1629 -4.93895 0 0.866985 0 0)
(62.4344 -4.85383 0 0.889713 0 0)
(59.8552 -4.75187 -2.58577e-18 0.914739 1.86139e-19 6.79818e-37)
(57.431 -4.63558 0 0.939359 0 0)
(55.1705 -4.50309 2.64625e-18 0.96358 -1.79894e-19 6.94543e-37)
(53.0757 -4.35403 0 0.987277 0 0)
(51.1353 -4.18274 -2.65807e-18 1.01082 1.73618e-19 7.03337e-37)
(49.3446 -3.99504 -2.64894e-18 1.0321 1.70411e-19 7.06829e-37)
(47.6915 -3.79462 -2.63014e-18 1.05328 1.66274e-19 7.09486e-37)
(46.1708 -3.58505 0 1.07566 0 0)
(44.7562 -3.36554 0 1.09878 0 0)
(43.4591 -3.13716 0 1.11835 0 0)
(42.2616 -2.90001 0 1.13816 0 0)
(41.1586 -2.66086 0 1.15791 0 0)
(40.1309 -2.42107 0 1.17695 0 0)
(39.1784 -2.17891 0 1.19204 0 0)
(38.2511 -1.93555 0 1.20799 0 0)
(37.3522 -1.69877 2.02503e-18 1.22306 -1.31513e-19 7.0741e-37)
(36.4426 -1.47041 1.91085e-18 1.24031 -1.24232e-19 7.06638e-37)
(35.551 -1.25137 0 1.25172 0 0)
(34.6377 -1.04078 0 1.26474 0 0)
(33.7177 -0.853961 0 1.27871 0 0)
(32.7345 -0.677536 1.35462e-18 1.29174 -1.04862e-19 6.90578e-37)
(31.7921 -0.527698 0 1.29907 0 0)
(30.7835 -0.385674 0 1.30884 0 0)
(29.8289 -0.283288 0 1.31897 0 0)
(28.9063 -0.200281 0 1.33201 0 0)
(28.0816 -0.150142 -4.40643e-19 1.34034 7.56366e-20 6.6573e-37)
(27.3878 -0.123859 0 1.34944 0 0)
(26.853 -0.132355 0 1.36283 0 0)
(26.5613 -0.174366 -2.22446e-19 1.37041 -6.50792e-20 6.42053e-37)
(26.5108 -0.243024 4.49838e-19 1.38343 6.09956e-20 6.29643e-37)
(26.758 -0.352802 0 1.40035 0 0)
(27.3559 -0.50923 9.12232e-19 1.41756 6.00642e-20 6.05068e-37)
(28.3695 -0.705765 0 1.43668 0 0)
(29.8609 -0.957788 -1.35328e-18 1.45433 -6.45821e-20 5.75465e-37)
(31.8511 -1.24367 0 1.47705 0 0)
(34.4143 -1.57941 0 1.50404 0 0)
(37.4491 -1.95736 0 1.53676 0 0)
(41.0665 -2.3859 0 1.571 0 0)
(45.1188 -2.84049 0 1.60902 0 0)
(49.6112 -3.34159 4.89744e-18 1.65117 2.04521e-19 1.97179e-36)
(54.4792 -3.88669 5.15253e-18 1.69727 2.30449e-19 1.93694e-36)
(59.7417 -4.46745 0 1.74533 0 0)
(65.1998 -5.06868 0 1.80128 0 0)
(70.8147 -5.69521 0 1.85647 0 0)
(76.4368 -6.30745 -5.69292e-18 1.91737 -3.5205e-19 1.91685e-36)
(81.8384 -6.92127 0 1.98855 0 0)
(86.9825 -7.54245 0 2.06073 0 0)
(91.8119 -8.1567 0 2.13721 0 0)
(96.2507 -8.74944 -5.33107e-18 2.21551 -5.3324e-19 2.07095e-36)
(100.281 -9.31633 5.09741e-18 2.29896 5.81906e-19 2.13273e-36)
(103.691 -9.83844 0 2.38975 0 0)
(106.599 -10.3481 0 2.48255 0 0)
(108.969 -10.8019 4.07908e-18 2.57713 7.34937e-19 2.36471e-36)
(110.81 -11.2215 3.65007e-18 2.67054 7.83788e-19 2.44998e-36)
(111.966 -11.5661 0 2.77084 0 0)
(112.541 -11.8816 0 2.8708 0 0)
(112.426 -12.1244 -2.05275e-18 2.97481 -9.45289e-19 2.71785e-36)
(111.752 -12.3491 1.42302e-18 3.06984 9.88909e-19 2.79656e-36)
(110.564 -12.5035 0 3.16667 0 0)
(108.659 -12.6037 0 3.26734 0 0)
(106.161 -12.6377 -5.21449e-19 3.35827 1.1168e-18 3.06718e-36)
(103.03 -12.6177 0 3.44878 0 0)
(99.5515 -12.5602 0 3.53241 0 0)
(95.5649 -12.4116 -2.54855e-18 3.60492 1.20581e-18 3.29967e-36)
(91.267 -12.1914 0 3.67695 0 0)
(86.6462 -11.8602 -3.83229e-18 3.73851 1.25678e-18 3.44262e-36)
(81.7608 -11.444 0 3.79429 0 0)
(76.6555 -10.9097 0 3.83346 0 0)
(71.7146 -10.277 0 3.85761 0 0)
(66.8301 -9.47946 5.87139e-18 3.87642 -1.27756e-18 3.6808e-36)
(62.1677 -8.56238 0 3.88005 0 0)
(57.9432 -7.49316 0 3.86796 0 0)
(54.4803 -6.30412 0 3.84013 0 0)
(51.6165 -4.92636 0 3.79814 0 0)
(49.5215 -3.46746 0 3.7475 0 0)
(48.7959 -1.91374 0 3.67558 0 0)
(49.6296 -0.290321 6.02042e-18 3.58593 -1.10409e-18 3.72651e-36)
(51.6823 1.42285 5.60477e-18 3.48767 -1.04991e-18 3.70917e-36)
(55.3807 3.11488 0 3.37613 0 0)
(60.6339 4.74138 0 3.25821 0 0)
(67.4385 6.32147 0 3.12871 0 0)
(75.3714 7.79495 -3.05187e-18 2.99901 7.9515e-19 3.38353e-36)
(84.4983 9.09628 0 2.87079 0 0)
(94.0574 10.2846 2.94767e-18 2.73573 -1.35053e-18 1.23624e-35)
(103.947 11.2421 -1.30962e-18 2.60498 1.21771e-18 1.16611e-35)
(113.585 12.0329 3.18332e-19 2.47371 1.10517e-18 1.10189e-35)
(123.242 12.6839 -2.02141e-18 2.34892 -1.01434e-18 1.0334e-35)
(131.364 13.2253 3.67344e-18 2.22995 9.22906e-19 9.75982e-36)
(139.242 13.7028 -5.27811e-18 2.12268 -9.03589e-19 8.99567e-36)
(142.995 14.396 0 2.06676 0 0)
(0.0183114 0.174307 0 6.10212 0 0)
(0.20275 0.388076 0 6.04004 0 0)
(0.629608 0.610097 1.31839e-19 5.86697 1.75905e-19 6.76875e-37)
(1.32733 0.854738 0 5.74588 0 0)
(2.26968 1.13419 -1.92304e-19 5.68588 -3.53895e-19 9.19952e-37)
(3.44612 1.43916 -1.83815e-19 5.65864 -4.41936e-19 9.73164e-37)
(4.8355 1.76398 -8.05387e-20 5.64322 -2.51741e-19 2.49142e-37)
(6.4235 2.10468 -6.87195e-20 5.62517 -2.70696e-19 2.61408e-37)
(8.20225 2.45399 0 5.5968 0 0)
(10.1698 2.80739 -4.17447e-20 5.55418 -2.69528e-19 2.59563e-37)
(12.3274 3.15607 0 5.50229 0 0)
(14.6734 3.49764 0 5.44266 0 0)
(17.1993 3.82699 9.36524e-20 5.37433 4.24329e-19 9.51669e-37)
(19.9059 4.14367 6.89785e-20 5.30236 1.8714e-19 2.34265e-37)
(22.7824 4.43812 -1.84362e-19 5.22703 -3.26675e-19 8.94137e-37)
(25.8229 4.71032 -2.50583e-19 5.14866 -2.81614e-19 8.66381e-37)
(29.0158 4.96167 -1.70631e-19 5.06415 -1.18626e-19 2.12859e-37)
(32.3551 5.19357 0 4.97329 0 0)
(35.8288 5.40439 0 4.8775 0 0)
(39.4284 5.59866 0 4.77469 0 0)
(43.1305 5.77564 -3.86121e-19 4.66964 -3.68324e-20 1.80479e-37)
(46.9262 5.93264 0 4.56495 0 0)
(50.7924 6.06124 1.60733e-18 4.45823 -1.58073e-20 1.55246e-36)
(54.717 6.16504 0 4.35509 0 0)
(58.6831 6.24559 0 4.24974 0 0)
(62.6737 6.30298 7.74225e-19 4.14542 -5.7554e-20 1.56562e-37)
(66.6612 6.33394 0 4.0394 0 0)
(70.6268 6.34784 -9.32439e-19 3.93877 8.16987e-20 1.46054e-37)
(74.5368 6.33834 -1.99259e-18 3.83877 1.81392e-19 5.57317e-37)
(78.3812 6.30034 1.0766e-18 3.73601 -9.86842e-20 1.36677e-37)
(82.1561 6.23086 0 3.62817 0 0)
(85.8613 6.1335 0 3.5228 0 0)
(89.4833 6.01076 0 3.41935 0 0)
(93.026 5.86376 -2.57598e-18 3.31109 2.22712e-19 4.71572e-37)
(96.4812 5.68701 -2.65433e-18 3.20345 2.20217e-19 4.55402e-37)
(99.8622 5.48086 -1.37339e-18 3.10225 1.07525e-19 1.10816e-37)
(103.177 5.24365 0 3.0101 0 0)
(106.42 4.97043 2.83767e-18 2.92175 -2.02845e-19 4.13047e-37)
(109.598 4.65917 0 2.83633 0 0)
(112.705 4.31916 -2.87444e-18 2.75462 1.88254e-19 3.8179e-37)
(115.75 3.95147 0 2.67411 0 0)
(118.727 3.56389 0 2.60191 0 0)
(121.644 3.16036 2.82759e-18 2.53094 -1.53949e-19 3.31892e-37)
(124.486 2.7379 0 2.46562 0 0)
(127.235 2.28994 8.1603e-18 2.4077 -3.93252e-19 2.68627e-36)
(129.888 1.81232 -2.689e-18 2.36241 1.19175e-19 2.83894e-37)
(132.449 1.30938 0 2.33524 0 0)
(134.934 0.781167 -2.54939e-18 2.31944 9.09801e-20 2.51943e-37)
(137.328 0.220162 -2.46876e-18 2.31325 7.67505e-20 2.3637e-37)
(139.63 -0.36715 0 2.31557 0 0)
(141.815 -0.966126 0 2.32889 0 0)
(143.865 -1.56283 0 2.34384 0 0)
(145.766 -2.14771 0 2.35737 0 0)
(147.481 -2.72498 0 2.38092 0 0)
(148.998 -3.30366 1.88385e-18 2.41364 1.44569e-20 1.72223e-37)
(150.294 -3.89127 3.45213e-18 2.45695 7.10636e-20 6.56395e-37)
(151.35 -4.48252 -1.64486e-18 2.50809 -5.58852e-20 1.60228e-37)
(152.177 -5.09204 0 2.56426 0 0)
(152.748 -5.70295 2.68783e-18 2.62743 1.90227e-19 6.01903e-37)
(153.035 -6.29306 -1.17039e-18 2.69556 -1.13259e-19 1.46974e-37)
(153.065 -6.87781 0 2.77232 0 0)
(152.787 -7.45664 -9.78461e-19 2.86223 -1.48662e-19 1.49607e-37)
(152.215 -8.01382 0 2.95554 0 0)
(151.34 -8.56154 0 3.05686 0 0)
(150.161 -9.09094 -1.04754e-18 3.16298 -3.97126e-19 6.25959e-37)
(148.662 -9.59156 4.2252e-19 3.2738 2.15353e-19 1.63851e-37)
(146.884 -10.0842 -4.88807e-19 3.39404 -4.62456e-19 6.68831e-37)
(144.819 -10.5551 2.11601e-19 3.51831 4.89367e-19 6.92617e-37)