/*--------------------------------*- C++ -*----------------------------------*\
| =========                 |                                                 |
| \\      /  F ield         | OpenFOAM: The Open Source CFD Toolbox           |
|  \\    /   O peration     | Version:  dev                                   |
|   \\  /    A nd           | Web:      http://www.openfoam.org               |
|    \\/     M anipulation  |                                                 |
\*---------------------------------------------------------------------------*/
FoamFile
{
    version     2.0;
    format      ascii;
    class       volScalarField;
    object      k;
    location    "9.123";
}
// * * * * * * * * * * * * * * * * * * * * * * * * * * * * * * * * * * * * * //

dimensions      [0 2 -2 0 0 0 0];

internalField   nonuniform List<scalar> 
12225
(
7.99648
10.0388
6.90798
7.74035
6.64615
8.78386
9.06231
10.915
12.4096
13.2513
16.6566
15.7367
20.9256
18.0321
24.5397
22.3425
25.9077
41.4433
1.71675
6.60507
5.65723
7.28587
5.14653
7.55598
5.35811
8.30331
6.27586
9.11606
7.56013
9.61626
9.38477
9.45996
12.5316
13.8998
22.4657
44.4486
0.166493
2.00217
2.12397
3.30231
2.96338
3.71175
3.31311
3.66607
3.63438
3.45769
3.96111
3.03793
4.36521
2.63702
4.65211
3.15112
10.3279
25.8844
0.0231473
0.422938
0.633555
1.05783
1.39345
1.45739
1.89377
1.65215
2.18016
1.61061
2.10721
1.38307
1.96674
1.17215
2.11716
1.34166
4.87997
10.0044
0.00921154
0.142946
0.245734
0.406113
0.630115
0.685397
0.901529
0.852308
1.02938
0.815335
1.02852
0.705925
0.973855
0.614654
1.03232
0.66153
1.79179
2.8917
0.0185526
0.0763786
0.12884
0.179535
0.283283
0.30894
0.415331
0.398027
0.494384
0.403879
0.521467
0.384982
0.516127
0.377144
0.5537
0.507405
0.805023
1.41505
0.0248589
0.0436095
0.0780985
0.0958223
0.148737
0.159484
0.217595
0.212433
0.264233
0.238973
0.289929
0.251716
0.300331
0.271167
0.334208
0.317072
0.518224
0.592802
0.0333286
0.0479109
0.0713123
0.0872021
0.118316
0.13181
0.160252
0.167186
0.190386
0.192006
0.209314
0.206585
0.220828
0.219146
0.239143
0.245545
0.309678
0.355364
0.05607
0.0788421
0.0843444
0.101589
0.119331
0.135353
0.153343
0.164746
0.178222
0.187912
0.193736
0.202703
0.20612
0.213831
0.220156
0.233232
0.253773
0.265232
0.0954624
0.153518
0.141833
0.161395
0.154941
0.170758
0.171769
0.18603
0.188149
0.201925
0.201807
0.211826
0.212246
0.220792
0.225064
0.234398
0.246167
0.257003
0.195364
0.267083
0.257993
0.283471
0.264739
0.276938
0.255284
0.263595
0.247965
0.25659
0.247278
0.254637
0.25098
0.254824
0.257614
0.261402
0.270741
0.272993
0.437034
0.48534
0.463083
0.474848
0.448233
0.449933
0.420901
0.419012
0.393439
0.390671
0.371165
0.364757
0.353721
0.349591
0.346411
0.343059
0.345495
0.347773
0.863856
0.826083
0.764898
0.751663
0.697909
0.674119
0.61645
0.593858
0.54607
0.526354
0.492358
0.469149
0.452131
0.441684
0.438668
0.437569
0.440146
0.445187
1.37771
1.26896
1.15574
1.11151
1.01938
0.965493
0.881609
0.836141
0.77477
0.736428
0.693026
0.66428
0.637248
0.620972
0.601768
0.590854
0.576463
0.565361
2.42893
2.22958
2.02531
1.86479
1.67689
1.51985
1.36335
1.23695
1.11935
1.02491
0.938405
0.870619
0.80834
0.763354
0.717335
0.68793
0.653476
0.630275
3.58695
3.27332
2.80112
2.42775
2.10689
1.84633
1.62524
1.44594
1.29137
1.16609
1.05559
0.968144
0.888204
0.828775
0.770004
0.731122
0.686945
0.658036
4.24234
3.7425
3.09584
2.63844
2.2671
1.96893
1.72247
1.52283
1.35315
1.21616
1.09647
1.00176
0.915604
0.851247
0.787877
0.74561
0.697495
0.666823
4.30025
3.77681
3.11399
2.6506
2.27739
1.97726
1.72761
1.52536
1.35404
1.21619
1.09613
1.00123
0.914625
0.849962
0.78621
0.743508
0.69401
0.663004
3.77739
3.39512
2.86305
2.47306
2.15192
1.88427
1.65344
1.4616
1.2978
1.16673
1.05354
0.964478
0.882716
0.8212
0.759494
0.718061
0.669166
0.639351
2.54898
2.37936
2.11904
1.92804
1.75801
1.58923
1.41938
1.26584
1.12995
1.02134
0.927874
0.855372
0.787732
0.736216
0.682603
0.646314
0.601431
0.574279
1.55392
1.45749
1.3074
1.20303
1.1139
1.03291
0.946594
0.85871
0.777737
0.713436
0.657498
0.613862
0.571964
0.539602
0.504144
0.479108
0.445724
0.424634
0.89802
0.870676
0.815404
0.767771
0.726371
0.694214
0.647559
0.584506
0.517451
0.462277
0.422121
0.399353
0.382589
0.370693
0.358224
0.349162
0.337093
0.329948
0.476836
0.485267
0.470627
0.454645
0.429095
0.403663
0.377512
0.357868
0.344144
0.334988
0.328866
0.326266
0.324072
0.321739
0.318612
0.315609
0.3106
0.307535
0.238312
0.253655
0.240684
0.227519
0.238877
0.253239
0.270648
0.286186
0.296762
0.304029
0.309233
0.314173
0.317635
0.318269
0.317728
0.316434
0.313954
0.311991
0.10357
0.108888
0.12096
0.150935
0.190613
0.223802
0.256444
0.285082
0.307172
0.326989
0.341383
0.35274
0.360898
0.3633
0.364595
0.365242
0.365646
0.365194
0.0300582
0.0574714
0.0941045
0.163198
0.23801
0.296649
0.352249
0.402166
0.446527
0.487267
0.516018
0.536704
0.549816
0.552246
0.555505
0.557522
0.559699
0.561171
0.0113467
0.075192
0.216171
0.414146
0.590294
0.705912
0.807339
0.895699
0.969448
1.02787
1.06441
1.08423
1.08865
1.0836
1.07926
1.07789
1.07465
1.0722
0.0614953
0.460134
1.10309
1.56311
1.86959
2.03928
2.16544
2.26393
2.31918
2.33444
2.31999
2.27998
2.22691
2.16542
2.11136
2.06996
2.00549
1.95418
0.858109
3.41367
4.75291
4.95459
4.81787
4.59298
4.3666
4.16906
3.99856
3.87227
3.73736
3.59213
3.45017
3.30562
3.17924
3.04781
2.92321
2.79478
6.43162
10.2638
9.51701
7.83067
6.6176
6.11517
5.88815
5.77504
5.7545
5.77357
5.78492
5.79426
5.77977
5.73706
5.67715
5.5917
5.46661
5.2777
0.195919
0.164435
0.205506
0.228634
0.250711
0.279264
0.303927
0.328471
0.353781
0.376125
0.397831
0.423802
0.456973
0.499057
0.547398
0.604347
0.677669
0.756903
0.847779
0.951373
1.06555
1.1847
1.32141
1.47213
1.62744
1.80432
1.98748
2.18445
2.39998
2.60833
2.82258
3.03404
3.24825
3.45171
3.65224
3.90081
4.07455
4.10244
4.07415
4.07898
4.11972
4.13885
4.16275
4.31049
4.53458
4.66413
4.71011
4.72199
4.6566
4.72225
4.87842
5.12145
5.47586
6.14489
6.8558
7.23709
7.13092
6.70457
6.39259
6.33875
6.46271
6.7302
7.21372
8.09571
9.09917
9.94502
10.5994
10.9893
11.1973
11.2842
11.1591
10.8906
10.5425
10.1064
9.60327
9.07585
8.56018
8.02483
7.48895
6.96091
6.43494
5.9447
5.50774
5.08349
4.67424
4.28973
3.9567
3.63709
3.3523
3.09447
2.85771
2.64536
2.43418
2.29105
2.12983
1.98698
1.88589
1.78527
1.70636
1.65078
1.60302
1.57285
1.55887
1.55375
1.56054
1.57426
1.60129
1.63783
1.68949
1.74534
1.80389
1.8773
1.96291
2.05977
2.14394
2.20499
2.29721
2.37322
2.40499
2.45072
2.54586
2.68111
2.7365
2.79544
2.95547
3.30683
3.69448
4.0054
4.14593
4.1415
4.25994
4.11992
4.35483
3.98668
4.30875
3.98894
4.17029
4.3774
4.49551
4.80645
5.07001
5.2187
5.42925
5.61413
5.82647
6.12913
6.41465
6.84197
7.17624
7.47048
7.64359
7.68617
7.55983
7.20479
6.92785
6.77401
6.7269
6.71022
6.80002
6.93513
7.01584
7.00542
6.73219
6.27281
5.76806
5.66125
5.81908
6.05343
6.08947
5.87201
6.45576
6.55571
5.94483
5.48859
6.01064
8.05023
9.79631
9.89955
8.86328
8.35353
1.04541
0.353572
0.218745
0.204061
0.208648
0.219459
0.223746
0.224177
0.220492
0.208974
0.199951
0.197789
0.198713
0.201539
0.207842
0.215888
0.230488
0.244825
0.260825
0.281504
0.305007
0.322415
0.346484
0.374065
0.394228
0.428377
0.464569
0.504245
0.561818
0.615955
0.689984
0.761872
0.872621
0.973983
1.0905
1.27056
1.43619
1.6955
1.87452
1.91865
1.90657
1.79746
1.48251
1.33659
1.26819
1.10979
0.858809
0.68682
0.63794
0.675217
0.751153
0.771605
0.785432
0.867268
1.11732
1.73958
2.23038
2.3452
2.47533
3.52332
5.03425
5.49451
5.69239
5.78214
5.63659
5.25311
4.77635
4.25093
3.7392
3.28994
2.92996
2.60082
2.35005
2.13558
1.9614
1.82286
1.70665
1.59536
1.50234
1.41701
1.3454
1.28937
1.23688
1.17422
1.13113
1.09318
1.06219
1.01879
0.990978
0.968588
0.942143
0.922312
0.906871
0.896789
0.875205
0.865736
0.861843
0.855175
0.855104
0.860079
0.86404
0.873641
0.884575
0.893081
0.904144
0.91163
0.921504
0.932265
0.948492
0.963481
0.972618
0.984493
1.0046
1.03783
1.06905
1.08609
1.11379
1.13982
1.1471
1.16229
1.22087
1.39281
1.60999
1.7814
2.00683
2.21293
2.3098
2.26752
2.15506
2.04389
2.09275
2.02577
2.1504
1.99109
2.1422
2.03489
2.07957
2.39649
2.40019
2.85242
3.04236
2.93894
2.9299
2.94755
3.04311
3.28367
3.51474
3.93088
4.28448
4.52851
4.75656
5.21068
5.72907
5.8853
5.83438
5.68672
5.62581
5.519
5.54295
5.60739
5.65963
5.54849
5.19939
4.65102
3.9952
3.82114
3.88621
3.73812
3.18644
3.23629
3.99436
4.47865
4.21759
3.71311
3.6289
4.29376
5.45765
5.66961
5.3084
5.03363
2.85159
0.787576
0.282546
0.204428
0.197886
0.206428
0.209745
0.200963
0.176584
0.149128
0.134983
0.130268
0.12972
0.130685
0.134754
0.140403
0.148745
0.156276
0.164612
0.175136
0.186547
0.193207
0.20305
0.211951
0.216262
0.225186
0.233094
0.238125
0.248564
0.257415
0.271911
0.289578
0.312436
0.336409
0.371307
0.42035
0.462135
0.55879
0.673952
0.74417
0.900849
1.02527
1.05777
1.04401
0.929717
0.629161
0.471269
0.437454
0.456447
0.564351
0.647828
0.702378
0.743992
0.822877
0.996639
1.50565
2.3747
3.02017
3.34851
3.83034
3.81427
3.34194
2.9558
2.44763
2.03633
1.64065
1.30299
1.05975
0.880777
0.754427
0.683456
0.622678
0.586798
0.564349
0.547673
0.537436
0.529671
0.52246
0.517585
0.514271
0.512538
0.511658
0.509048
0.50475
0.50244
0.500974
0.49831
0.494467
0.49311
0.49377
0.492739
0.49682
0.502419
0.510666
0.513477
0.520777
0.531558
0.536426
0.551263
0.56653
0.581877
0.604014
0.620963
0.63588
0.645062
0.653483
0.660576
0.66537
0.669724
0.670078
0.666851
0.663769
0.664098
0.668924
0.675573
0.683319
0.695512
0.702353
0.718692
0.756929
0.804039
0.881048
1.06311
1.24452
1.34325
1.37419
1.36506
1.2906
1.22498
1.21097
1.21852
1.26545
1.24275
1.22593
1.20759
1.20478
1.27453
1.4338
1.43377
1.66135
1.92865
1.87695
1.79704
1.71257
1.72701
1.82297
1.9509
2.15717
2.36178
2.39883
2.43554
2.60394
3.14804
3.60608
3.75239
3.84889
3.92824
3.84737
3.68874
3.68029
3.81588
3.97235
3.92818
3.63339
3.06351
2.82837
2.94222
2.93376
2.20264
2.01201
2.63853
2.99043
3.0828
2.81366
2.48156
2.94449
3.40141
3.62825
3.46609
3.12797
5.44626
1.34834
0.418984
0.223797
0.209226
0.221163
0.217889
0.197283
0.157895
0.127699
0.11859
0.117606
0.11887
0.122779
0.130025
0.138404
0.148347
0.158449
0.170368
0.182063
0.193457
0.201731
0.20705
0.210419
0.211608
0.213465
0.214226
0.21475
0.216301
0.21802
0.220517
0.224014
0.228515
0.240167
0.24852
0.258144
0.275414
0.29272
0.312937
0.353273
0.41915
0.477329
0.622987
0.719397
0.718823
0.642379
0.549117
0.543461
0.591172
0.805587
0.947738
1.0701
1.21065
1.35482
1.62703
2.069
2.54534
2.84883
2.83902
2.39216
1.99985
1.64951
1.27676
0.977524
0.744542
0.583402
0.486849
0.42939
0.395729
0.378033
0.369758
0.365874
0.364914
0.365599
0.366663
0.369273
0.371402
0.37333
0.375191
0.377625
0.378815
0.37972
0.379723
0.380688
0.381746
0.381586
0.379559
0.37444
0.37148
0.367685
0.362977
0.359499
0.35965
0.363158
0.364973
0.373868
0.385415
0.390018
0.40589
0.420873
0.443063
0.471768
0.497149
0.524389
0.546501
0.563014
0.57872
0.589033
0.597766
0.599396
0.597149
0.600567
0.6053
0.602851
0.596119
0.596527
0.607754
0.62066
0.625593
0.657516
0.732274
0.767849
0.829631
0.918474
0.989552
1.0202
1.02406
1.00632
0.983729
1.02638
1.03923
1.08153
1.0742
1.03374
1.07209
1.03618
1.12995
1.13977
1.17091
1.31965
1.4084
1.40492
1.41546
1.35104
1.3097
1.31649
1.36814
1.46756
1.57134
1.58159
1.56583
1.62984
1.96457
2.37163
2.49056
2.67503
2.98345
2.9843
2.75389
2.66465
2.81228
3.23727
3.39754
3.26513
2.73465
2.32647
2.41782
2.46088
1.77897
1.60144
2.10804
2.37435
2.65294
2.39924
1.94861
2.45756
2.88433
3.00706
2.87737
2.41733
8.56248
1.89506
0.539551
0.281537
0.254653
0.244178
0.215929
0.169314
0.130105
0.118039
0.116053
0.118009
0.124095
0.133679
0.146146
0.159953
0.175113
0.191923
0.206441
0.213722
0.216911
0.219153
0.219532
0.21761
0.215664
0.214017
0.211816
0.210075
0.206582
0.202909
0.200596
0.199439
0.199999
0.202109
0.207209
0.216811
0.228968
0.24553
0.260509
0.263517
0.267395
0.2825
0.335559
0.435544
0.547477
0.573434
0.57562
0.600757
0.737896
0.990351
1.09604
1.2102
1.36539
1.52811
1.7172
1.98902
2.06879
1.90009
1.63232
1.24089
0.969169
0.778811
0.569462
0.453564
0.378547
0.33759
0.317763
0.308692
0.305255
0.306931
0.309885
0.313494
0.314887
0.316064
0.31765
0.319234
0.32112
0.322786
0.324135
0.326201
0.3278
0.32945
0.330312
0.332212
0.336346
0.337298
0.337422
0.333017
0.330947
0.322207
0.31637
0.305941
0.300949
0.296168
0.293498
0.294553
0.29609
0.296396
0.300987
0.306736
0.314294
0.327108
0.344566
0.360818
0.385672
0.410743
0.433588
0.461773
0.488752
0.51545
0.536732
0.559475
0.577308
0.58296
0.587313
0.594141
0.604636
0.620012
0.618455
0.626789
0.689358
0.774886
0.811296
0.841355
0.874665
0.908669
0.9284
0.965376
0.934781
0.965024
1.01871
0.997425
1.04754
0.99951
1.08343
1.02354
1.11782
1.05808
1.12587
1.21066
1.25436
1.24513
1.23809
1.19277
1.127
1.06721
1.04747
1.06313
1.1475
1.17563
1.18993
1.23913
1.45873
1.75351
1.85769
1.9812
2.20251
2.31983
2.20841
2.09406
2.19128
2.6714
3.01428
3.03633
2.72183
2.16027
2.1732
2.0478
1.61461
1.55525
1.60226
2.10072
2.31101
1.97809
1.93053
2.0898
2.53168
2.78943
2.68185
2.16793
12.0844
2.47953
0.669349
0.351623
0.270495
0.234461
0.172187
0.132465
0.120682
0.119417
0.123251
0.133799
0.150438
0.17213
0.194507
0.214305
0.22314
0.227344
0.229472
0.229879
0.229425
0.230033
0.229921
0.229026
0.225385
0.221198
0.217968
0.211987
0.20644
0.20115
0.196068
0.189789
0.183629
0.181485
0.179009
0.179693
0.181905
0.18828
0.211602
0.232001
0.236252
0.23738
0.243031
0.267107
0.363296
0.46462
0.512387
0.587183
0.779217
1.0849
1.26978
1.30259
1.35443
1.45665
1.49113
1.42098
1.2998
1.05329
0.870546
0.673906
0.505458
0.415571
0.343068
0.308601
0.290659
0.282855
0.279909
0.278449
0.276078
0.272583
0.26597
0.25703
0.246999
0.242015
0.240336
0.239564
0.240536
0.240897
0.240165
0.239137
0.238971
0.241429
0.247733
0.25249
0.257838
0.266828
0.274967
0.281106
0.289688
0.290662
0.288861
0.279489
0.271873
0.261502
0.25666
0.256656
0.252568
0.252109
0.251971
0.25322
0.253059
0.254715
0.260936
0.269083
0.28224
0.296895
0.310057
0.325487
0.343479
0.371767
0.399816
0.438446
0.497582
0.535813
0.567751
0.59018
0.603864
0.625543
0.634255
0.640564
0.665901
0.754346
0.807158
0.838471
0.852006
0.89596
0.902973
0.943189
0.935023
0.940344
1.00122
0.960972
1.00441
0.969763
1.04519
1.00486
1.06427
1.00596
1.0415
1.05233
1.15162
1.1707
1.15773
1.1033
0.973264
0.89774
0.878882
0.880943
0.945686
1.02556
1.06309
1.09256
1.25711
1.43724
1.50702
1.5522
1.69534
1.93386
1.98625
1.89949
1.89764
2.26525
2.67452
2.7883
2.64625
2.0706
2.0533
1.87496
1.54069
1.45805
1.45035
1.78008
1.9124
1.86968
1.94395
2.02657
2.20657
2.67523
2.61679
2.14338
15.9414
3.17012
0.88063
0.383577
0.261228
0.171448
0.133239
0.124386
0.1254
0.13555
0.154462
0.184149
0.215355
0.237782
0.246868
0.250324
0.251706
0.252558
0.253389
0.251009
0.248586
0.248197
0.245345
0.240159
0.233281
0.22654
0.218328
0.210618
0.206484
0.19939
0.193361
0.188622
0.183493
0.180973
0.177589
0.168364
0.162387
0.162452
0.166905
0.180547
0.214527
0.21819
0.217367
0.225229
0.256761
0.324563
0.443332
0.559947
0.810842
1.10118
1.22582
1.23829
1.19421
1.12646
1.05517
0.923313
0.803042
0.634455
0.500769
0.407723
0.331893
0.296764
0.275131
0.265548
0.261413
0.258397
0.251452
0.239412
0.22629
0.214648
0.206146
0.201953
0.198826
0.197153
0.196508
0.196768
0.19959
0.202291
0.20313
0.202862
0.202255
0.201806
0.201552
0.20253
0.204858
0.207817
0.209231
0.211461
0.217169
0.223206
0.224575
0.22442
0.221927
0.214672
0.208152
0.209987
0.20931
0.208841
0.208992
0.213131
0.215432
0.215652
0.216147
0.220749
0.228937
0.234827
0.241706
0.246156
0.253724
0.26773
0.291927
0.316879
0.349628
0.40294
0.4637
0.528779
0.563841
0.611134
0.63596
0.662659
0.67367
0.720068
0.767156
0.818446
0.838052
0.873817
0.879567
0.907675
0.917679
0.885998
0.920275
0.895589
0.91297
0.887938
0.930218
0.900021
0.942432
0.885614
0.887026
0.851806
0.921539
0.969643
0.96717
0.914276
0.803152
0.76562
0.778734
0.785953
0.856152
0.939161
0.955173
0.954559
1.06778
1.20274
1.28164
1.26414
1.31193
1.49443
1.65546
1.67245
1.6676
1.98084
2.4304
2.55227
2.45612
1.92144
1.90951
1.80109
1.52592
1.42475
1.40052
1.53821
1.82427
2.11206
2.08799
1.78749
1.84447
2.45704
2.53512
2.16254
19.9725
3.87375
1.0471
0.384517
0.197988
0.135248
0.127457
0.132174
0.15203
0.19686
0.243144
0.269681
0.28248
0.288449
0.289351
0.285441
0.278232
0.272032
0.268013
0.26462
0.260842
0.257227
0.251512
0.242432
0.231949
0.221962
0.213772
0.20635
0.200877
0.193106
0.188411
0.187059
0.18478
0.181739
0.177787
0.168561
0.157417
0.152361
0.152436
0.156197
0.175457
0.188308
0.200323
0.204318
0.215011
0.264374
0.408696
0.528604
0.796739
1.05222
1.11645
1.08452
0.954469
0.851103
0.754357
0.635551
0.529592
0.424947
0.343872
0.299763
0.270128
0.256659
0.249473
0.244959
0.238509
0.226617
0.210159
0.195911
0.187317
0.180921
0.178185
0.177535
0.179014
0.181871
0.184169
0.186746
0.191277
0.194327
0.1952
0.195309
0.195122
0.194092
0.191794
0.190364
0.191258
0.191023
0.19029
0.18809
0.187524
0.193428
0.195053
0.192108
0.192664
0.19017
0.184734
0.180794
0.184404
0.183576
0.179157
0.181574
0.185416
0.184723
0.184961
0.187274
0.195013
0.19799
0.202686
0.206342
0.207573
0.214363
0.229369
0.246194
0.257848
0.279028
0.30753
0.380162
0.426097
0.518407
0.584667
0.642592
0.674286
0.709557
0.756143
0.766091
0.805303
0.817099
0.83038
0.826682
0.828887
0.800579
0.815773
0.794008
0.812216
0.796367
0.808936
0.763977
0.785909
0.736293
0.758051
0.72466
0.755558
0.740824
0.7413
0.724766
0.7051
0.70511
0.726706
0.747055
0.785881
0.8818
0.892222
0.870586
0.898694
1.02011
1.06734
1.0657
1.07699
1.17959
1.35356
1.47228
1.49561
1.75475
2.22617
2.37019
2.32067
1.82353
1.74744
1.6742
1.50524
1.30674
1.32932
1.51715
2.14335
2.29878
2.14393
1.64421
1.60278
2.16409
2.37596
2.15962
23.9472
4.48112
1.11272
0.35391
0.152436
0.130296
0.137457
0.170777
0.249618
0.299419
0.322237
0.330506
0.32711
0.319574
0.315495
0.315083
0.312403
0.307031
0.299515
0.288689
0.28056
0.273504
0.26508
0.254674
0.245596
0.235673
0.229281
0.221714
0.215311
0.208367
0.202298
0.19586
0.189802
0.184441
0.179567
0.169935
0.158825
0.152959
0.151648
0.152473
0.160341
0.171967
0.181233
0.186243
0.19928
0.253679
0.348653
0.45886
0.739546
0.954222
0.999532
0.946324
0.776546
0.673054
0.566119
0.471748
0.388042
0.323507
0.27946
0.257624
0.244868
0.238184
0.233201
0.226277
0.213667
0.196361
0.182324
0.17415
0.167815
0.165415
0.16529
0.167369
0.171423
0.17602
0.181423
0.18675
0.192106
0.196176
0.197843
0.199077
0.199405
0.198265
0.193892
0.190945
0.19066
0.189265
0.18824
0.18429
0.179933
0.183807
0.188521
0.181574
0.180196
0.182419
0.177941
0.169677
0.173284
0.17366
0.166352
0.164104
0.168532
0.167404
0.165917
0.166999
0.173593
0.176143
0.180086
0.182468
0.185373
0.1895
0.197332
0.209725
0.21562
0.224661
0.238338
0.277803
0.301641
0.342156
0.427619
0.52374
0.622415
0.664534
0.735047
0.739648
0.766864
0.776701
0.785689
0.781327
0.781645
0.751722
0.751434
0.743514
0.734769
0.683056
0.677071
0.628956
0.646244
0.609841
0.630833
0.600281
0.616423
0.610649
0.622542
0.627416
0.647828
0.679691
0.728085
0.753815
0.763054
0.81588
0.84165
0.833569
0.811414
0.879622
0.938667
0.970346
0.940941
0.989483
1.16033
1.32845
1.35129
1.54979
2.04023
2.24671
2.23462
1.82009
1.56967
1.52066
1.45609
1.16544
1.10539
1.54927
2.22137
2.25271
2.02653
1.54141
1.48215
1.88334
2.23135
2.11409
27.6172
4.87889
1.10233
0.259562
0.139886
0.139412
0.187284
0.283559
0.329568
0.347958
0.346369
0.340972
0.341249
0.339584
0.334662
0.331887
0.329948
0.331034
0.332416
0.333767
0.334466
0.33428
0.332095
0.326132
0.316717
0.302378
0.294368
0.2878
0.28303
0.275252
0.264966
0.244526
0.220863
0.206906
0.197077
0.184495
0.171225
0.161904
0.155992
0.154453
0.154841
0.157052
0.160875
0.165139
0.179554
0.213007
0.269841
0.380299
0.682049
0.879451
0.90546
0.828685
0.649086
0.554031
0.454808
0.385898
0.319958
0.277373
0.252433
0.239397
0.231651
0.226428
0.220356
0.209665
0.193393
0.177223
0.168385
0.16203
0.159139
0.159085
0.160581
0.163912
0.167643
0.172811
0.179982
0.189588
0.198096
0.204568
0.21217
0.217728
0.218717
0.216917
0.209647
0.202487
0.197769
0.1949
0.191216
0.188631
0.180506
0.181546
0.190096
0.18082
0.17625
0.18157
0.177914
0.167222
0.167694
0.170324
0.162911
0.157225
0.161131
0.160712
0.157741
0.158302
0.163652
0.16432
0.166614
0.169723
0.172949
0.175997
0.182015
0.190258
0.196272
0.199649
0.208555
0.230306
0.245673
0.264801
0.309066
0.34961
0.449186
0.523999
0.630704
0.664471
0.696797
0.712961
0.717732
0.707234
0.699248
0.674695
0.643831
0.633959
0.619209
0.555183
0.546715
0.516156
0.527912
0.512438
0.536377
0.526303
0.535258
0.558965
0.566046
0.574863
0.612926
0.67421
0.732638
0.744289
0.751335
0.78076
0.805786
0.781613
0.753419
0.826513
0.884832
0.898537
0.856968
0.900512
1.04922
1.18325
1.20084
1.37453
1.89896
2.15082
2.12797
1.84578
1.446
1.40941
1.40621
1.14392
1.02874
1.3237
1.84674
1.87442
1.61203
1.37571
1.38611
1.75246
2.05125
2.02371
30.5769
5.0797
1.02308
0.214342
0.142582
0.190017
0.292746
0.342812
0.355327
0.350489
0.346393
0.344558
0.338907
0.336917
0.334871
0.33282
0.33363
0.338647
0.342197
0.34832
0.353548
0.358457
0.363915
0.369711
0.370946
0.368006
0.356108
0.342361
0.329872
0.322179
0.318573
0.315573
0.307457
0.286838
0.263987
0.240002
0.209751
0.186516
0.170519
0.161593
0.155881
0.149768
0.147923
0.148843
0.155745
0.173754
0.214273
0.326912
0.626612
0.806357
0.827498
0.750537
0.564803
0.473825
0.388175
0.336206
0.284421
0.253555
0.236474
0.22702
0.221813
0.21675
0.209221
0.196724
0.181121
0.168153
0.160603
0.157045
0.156189
0.157574
0.159825
0.160995
0.161963
0.166428
0.175858
0.189033
0.198689
0.205695
0.21668
0.225807
0.231571
0.235653
0.234474
0.230159
0.220928
0.216129
0.204278
0.19914
0.191713
0.182662
0.189563
0.189771
0.176817
0.180551
0.183278
0.168485
0.166221
0.169709
0.162327
0.155602
0.158876
0.15901
0.155519
0.155542
0.160287
0.160104
0.160918
0.164656
0.1678
0.170813
0.17528
0.181996
0.188213
0.189213
0.197371
0.210879
0.2198
0.230729
0.260134
0.280604
0.313923
0.363684
0.444899
0.479566
0.533676
0.558007
0.574331
0.562676
0.563668
0.552224
0.517841
0.50896
0.491654
0.468993
0.467819
0.452755
0.458055
0.459406
0.482322
0.480803
0.492548
0.523384
0.529128
0.570988
0.6166
0.672394
0.737946
0.739621
0.725117
0.742903
0.756274
0.730691
0.726604
0.830956
0.865625
0.85955
0.821649
0.86287
0.983839
1.07796
1.10298
1.23557
1.70739
2.04307
2.03881
1.89265
1.43602
1.34125
1.30595
1.12441
1.01318
1.18922
1.43295
1.4003
1.32772
1.31611
1.33655
1.60675
1.90016
1.91668
32.8024
5.15031
0.98237
0.205318
0.169588
0.276102
0.341937
0.361601
0.351919
0.341614
0.343297
0.344037
0.333264
0.326845
0.324055
0.322759
0.324372
0.327149
0.331412
0.338991
0.347193
0.354843
0.363646
0.376441
0.389093
0.398298
0.393328
0.376759
0.357357
0.342174
0.336122
0.336533
0.338602
0.335331
0.32527
0.310709
0.28753
0.244635
0.20311
0.17931
0.162539
0.151091
0.146259
0.1457
0.147892
0.157872
0.192858
0.301423
0.558419
0.720891
0.744867
0.684117
0.505477
0.417833
0.349697
0.30918
0.266665
0.241748
0.228733
0.221281
0.216017
0.21041
0.202509
0.190451
0.176267
0.163257
0.156418
0.155366
0.156044
0.158769
0.160839
0.160679
0.160128
0.163038
0.170738
0.181029
0.191723
0.201194
0.213431
0.223725
0.232317
0.238988
0.241653
0.240069
0.236973
0.231602
0.225509
0.212865
0.208356
0.193635
0.191512
0.198127
0.18459
0.180495
0.187752
0.175778
0.166629
0.17117
0.16339
0.156025
0.159224
0.159316
0.155394
0.155416
0.159436
0.159211
0.159758
0.163673
0.166518
0.16959
0.17319
0.179712
0.185526
0.186172
0.193601
0.205427
0.210388
0.21729
0.240264
0.250101
0.264002
0.288162
0.343051
0.362148
0.388712
0.413029
0.443564
0.441192
0.44466
0.440564
0.42872
0.423098
0.417849
0.420763
0.417773
0.416887
0.427869
0.438852
0.439999
0.442176
0.48337
0.497019
0.509085
0.585087
0.61293
0.694539
0.801558
0.789476
0.725283
0.738532
0.753836
0.717487
0.715717
0.857107
0.880999
0.836673
0.803613
0.844115
0.941257
0.988505
0.994429
1.08151
1.47214
1.90273
1.95431
1.8896
1.46219
1.28699
1.20974
1.06084
1.02255
1.13888
1.25436
1.21976
1.23311
1.31326
1.31576
1.44704
1.71303
1.79519
34.0655
5.3
0.995686
0.20597
0.183954
0.305867
0.355155
0.361023
0.34701
0.34184
0.341803
0.33045
0.304901
0.289365
0.281536
0.280176
0.281766
0.283843
0.28595
0.299984
0.31832
0.335247
0.352151
0.373343
0.392002
0.41378
0.433179
0.43832
0.420672
0.378053
0.350892
0.341995
0.344737
0.346685
0.343218
0.336355
0.329376
0.314745
0.280828
0.222112
0.186125
0.16206
0.150794
0.147825
0.149104
0.157783
0.191593
0.286075
0.512375
0.645003
0.669245
0.631148
0.469253
0.37589
0.322461
0.287813
0.252726
0.231506
0.220655
0.214212
0.209324
0.204491
0.197382
0.186836
0.174686
0.162322
0.15597
0.155205
0.155617
0.158697
0.162714
0.162963
0.161433
0.163723
0.170401
0.176883
0.181822
0.1877
0.20215
0.21501
0.227372
0.237918
0.243096
0.245275
0.245543
0.241033
0.233448
0.224091
0.215648
0.206876
0.201084
0.203811
0.194463
0.182765
0.187901
0.183481
0.171475
0.173995
0.169043
0.161784
0.163899
0.164114
0.159467
0.158661
0.162317
0.161551
0.161627
0.167134
0.16941
0.171334
0.175167
0.180974
0.184776
0.186414
0.19323
0.20405
0.208092
0.2144
0.23205
0.239812
0.246903
0.258087
0.290047
0.309113
0.320196
0.332398
0.357797
0.365971
0.372741
0.374866
0.376686
0.376532
0.376866
0.37992
0.383666
0.400279
0.412227
0.415398
0.418938
0.446029
0.466413
0.477233
0.528524
0.565996
0.603124
0.804305
0.846755
0.787814
0.727151
0.73847
0.746531
0.717438
0.726324
0.83204
0.905705
0.840927
0.791009
0.834518
0.902993
0.92527
0.907893
0.967646
1.27939
1.76407
1.8502
1.85655
1.48936
1.2754
1.16027
1.04715
1.03376
1.11933
1.19149
1.16853
1.19262
1.34535
1.31593
1.34413
1.57007
1.68339
34.2286
5.47703
1.06938
0.215039
0.180625
0.304677
0.356971
0.362945
0.345144
0.340295
0.332664
0.286765
0.26615
0.256573
0.251154
0.250725
0.249586
0.247668
0.251407
0.263982
0.288172
0.318762
0.341721
0.367661
0.394764
0.421708
0.448439
0.467002
0.467322
0.448031
0.385959
0.346969
0.337327
0.34095
0.342249
0.340732
0.340981
0.344264
0.336938
0.313868
0.264032
0.199874
0.169681
0.160566
0.160552
0.170177
0.201171
0.270287
0.454971
0.606991
0.634383
0.609763
0.468623
0.35869
0.309197
0.278053
0.244998
0.225946
0.216054
0.210102
0.205731
0.201485
0.195332
0.186061
0.174932
0.162802
0.155587
0.154421
0.15471
0.156789
0.161534
0.163758
0.163996
0.165832
0.172345
0.178752
0.180555
0.182172
0.185405
0.200827
0.212354
0.229097
0.240468
0.246214
0.24877
0.250608
0.246742
0.23771
0.232609
0.221003
0.210876
0.209268
0.198305
0.187846
0.189312
0.186237
0.176513
0.177707
0.178304
0.174503
0.176779
0.177276
0.172921
0.172538
0.175975
0.173658
0.174301
0.181096
0.183156
0.183162
0.18427
0.189254
0.190045
0.190797
0.19724
0.20666
0.208913
0.214217
0.228807
0.237435
0.241754
0.247631
0.26731
0.285582
0.292048
0.298394
0.312504
0.324682
0.331497
0.343181
0.347519
0.350629
0.359203
0.362908
0.367555
0.382837
0.401928
0.406833
0.410685
0.449559
0.459033
0.471783
0.544311
0.571511
0.663843
0.869639
0.848065
0.758246
0.737555
0.73704
0.740487
0.739416
0.758766
0.833968
0.890976
0.851166
0.794711
0.821725
0.866783
0.872528
0.851338
0.8979
1.13854
1.64926
1.74518
1.76365
1.48668
1.2821
1.14432
1.04919
1.06784
1.13028
1.18205
1.16026
1.18722
1.39515
1.35122
1.31239
1.54206
1.65887
33.2547
5.67556
1.23709
0.247311
0.179269
0.287874
0.354333
0.363646
0.338229
0.32678
0.31896
0.281294
0.258304
0.249694
0.243865
0.241399
0.238733
0.237377
0.23953
0.250122
0.275761
0.311769
0.342432
0.377219
0.418724
0.45686
0.483904
0.50116
0.498997
0.478277
0.428799
0.361943
0.333804
0.326995
0.329646
0.331916
0.335548
0.344521
0.353141
0.350826
0.337983
0.300736
0.224356
0.188063
0.187278
0.200256
0.220562
0.254517
0.341249
0.554458
0.624464
0.61011
0.48041
0.355461
0.296649
0.265987
0.235986
0.218419
0.208445
0.202642
0.198811
0.19548
0.190725
0.184243
0.176429
0.165972
0.156338
0.153294
0.153299
0.155036
0.159605
0.161657
0.162013
0.163298
0.168153
0.175702
0.179047
0.179609
0.17729
0.177864
0.185464
0.203347
0.226049
0.241356
0.247646
0.251336
0.249419
0.244299
0.238167
0.231804
0.219679
0.218087
0.207657
0.197943
0.196679
0.193717
0.186487
0.187417
0.188045
0.18622
0.187666
0.189539
0.188157
0.188069
0.193048
0.19181
0.191539
0.196988
0.197703
0.198333
0.200566
0.205876
0.205335
0.205926
0.211396
0.216649
0.217022
0.219885
0.228075
0.236747
0.240929
0.245031
0.257542
0.271534
0.278526
0.28439
0.293884
0.301206
0.30941
0.324329
0.333765
0.338243
0.346064
0.353077
0.367945
0.375824
0.385117
0.399232
0.412392
0.438452
0.450092
0.487241
0.543093
0.591246
0.753008
0.866562
0.836639
0.753001
0.740106
0.745426
0.762166
0.819142
0.837215
0.869916
0.896784
0.863989
0.807317
0.818252
0.836571
0.832756
0.81326
0.843128
1.02507
1.54046
1.64929
1.65285
1.4772
1.28966
1.14019
1.06294
1.11391
1.19587
1.20732
1.18191
1.18378
1.40604
1.37885
1.30196
1.56619
1.69882
31.4025
5.94401
1.7309
0.380521
0.188334
0.232945
0.336058
0.360441
0.344793
0.326857
0.31977
0.288176
0.26456
0.254399
0.248032
0.244781
0.240853
0.239218
0.241119
0.250641
0.275664
0.316022
0.359857
0.420333
0.483258
0.539888
0.569196
0.56876
0.53411
0.478612
0.436578
0.363491
0.325223
0.314915
0.31724
0.324234
0.326698
0.333201
0.348112
0.363869
0.368445
0.359951
0.328115
0.254942
0.215997
0.21778
0.22432
0.232084
0.263929
0.437626
0.605125
0.613645
0.524335
0.365809
0.293333
0.259804
0.231655
0.213054
0.203196
0.197288
0.193929
0.19173
0.188125
0.183134
0.177108
0.170242
0.159548
0.153992
0.15197
0.152303
0.15622
0.159216
0.15936
0.158045
0.157286
0.158602
0.162534
0.160772
0.154823
0.15089
0.149762
0.157346
0.18839
0.218123
0.237812
0.248588
0.248476
0.245155
0.240585
0.234501
0.222284
0.221212
0.217028
0.207222
0.207006
0.203564
0.196608
0.197212
0.197553
0.194408
0.194877
0.197197
0.196228
0.196409
0.200883
0.200927
0.199927
0.203455
0.205137
0.206384
0.209485
0.215947
0.216926
0.217783
0.223883
0.226967
0.229109
0.233096
0.234766
0.238422
0.243399
0.246064
0.252866
0.262967
0.272011
0.277812
0.284838
0.28953
0.300958
0.312658
0.325582
0.332546
0.33845
0.344987
0.364361
0.374883
0.380262
0.39405
0.410097
0.432032
0.447172
0.502941
0.553978
0.626764
0.789677
0.844121
0.832804