/*--------------------------------*- C++ -*----------------------------------*\
| =========                 |                                                 |
| \\      /  F ield         | OpenFOAM: The Open Source CFD Toolbox           |
|  \\    /   O peration     | Version:  dev                                   |
|   \\  /    A nd           | Web:      http://www.openfoam.org               |
|    \\/     M anipulation  |                                                 |
\*---------------------------------------------------------------------------*/
FoamFile
{
    version     2.0;
    format      ascii;
    class       volScalarField;
    object      k_0;
    location    "9.123";
}
// * * * * * * * * * * * * * * * * * * * * * * * * * * * * * * * * * * * * * //

dimensions      [0 2 -2 0 0 0 0];

internalField   nonuniform List<scalar> 
12225
(
8.10735
10.4404
7.30825
8.30458
6.79087
9.37052
8.86105
11.5368
11.7508
13.8595
15.2292
16.3254
18.9936
18.3282
22.3063
21.8131
23.2976
38.8961
1.87874
6.66719
5.6777
7.22391
5.1729
7.51835
5.34979
8.36053
6.23396
9.29414
7.53045
9.87497
9.47331
9.67783
12.4127
14.1439
19.4137
38.5968
0.189259
2.07792
2.18363
3.36309
3.009
3.74281
3.34393
3.69125
3.64986
3.49299
3.96014
3.06116
4.35975
2.59226
4.59298
2.8402
7.61558
16.364
0.0241917
0.454274
0.665434
1.10423
1.43201
1.49798
1.91517
1.69739
2.18448
1.6708
2.11586
1.43344
1.97149
1.17647
2.05939
1.24298
3.63835
5.48228
0.00937729
0.147441
0.255248
0.422181
0.652912
0.708962
0.930654
0.885951
1.05359
0.855897
1.04547
0.737631
0.981444
0.623386
1.00663
0.601167
1.42337
1.7491
0.0195776
0.078922
0.133679
0.186321
0.296278
0.32223
0.432421
0.416709
0.509052
0.422124
0.531002
0.397286
0.517989
0.377484
0.531572
0.478997
0.677988
1.07357
0.0242056
0.042568
0.0785008
0.0954118
0.152772
0.162434
0.224051
0.218469
0.269973
0.245409
0.292921
0.256425
0.300141
0.271078
0.323467
0.309854
0.45507
0.529967
0.0294889
0.0442861
0.0694567
0.0842378
0.116671
0.128715
0.159675
0.165091
0.189843
0.190482
0.20798
0.204772
0.218221
0.217178
0.234002
0.243635
0.284548
0.344148
0.0480379
0.0686142
0.0780555
0.0937967
0.114864
0.129965
0.14935
0.160524
0.174068
0.1843
0.18928
0.199793
0.20154
0.211062
0.214523
0.229907
0.243118
0.254941
0.0794001
0.136509
0.126394
0.144603
0.141535
0.157447
0.161746
0.176251
0.180145
0.194783
0.194881
0.206397
0.205953
0.216384
0.21815
0.23055
0.236933
0.245685
0.160313
0.23812
0.230579
0.255851
0.239476
0.252578
0.234455
0.244
0.231461
0.241389
0.234175
0.242983
0.240347
0.245707
0.248538
0.253496
0.262407
0.26429
0.366657
0.438016
0.419931
0.435108
0.411469
0.416741
0.391026
0.392437
0.369784
0.370127
0.352465
0.349258
0.338906
0.336963
0.333759
0.331472
0.333932
0.335927
0.757557
0.760346
0.706506
0.699518
0.650612
0.632073
0.579374
0.56108
0.516833
0.500843
0.469135
0.448549
0.433036
0.424097
0.422364
0.42211
0.425906
0.431587
1.20195
1.15722
1.06022
1.02875
0.945809
0.903203
0.827584
0.790703
0.73412
0.701815
0.66202
0.637222
0.613477
0.599555
0.583365
0.574274
0.561959
0.552449
2.17855
2.07471
1.89529
1.75943
1.58993
1.45003
1.30551
1.19027
1.08106
0.993743
0.9127
0.849515
0.79112
0.749033
0.705422
0.677804
0.644806
0.622552
3.31455
3.14216
2.71176
2.36598
2.06045
1.81145
1.5979
1.42458
1.27426
1.1523
1.04425
0.958708
0.880384
0.822123
0.764267
0.726176
0.682562
0.653991
4.03454
3.70633
3.07396
2.62497
2.25733
1.96199
1.71783
1.51979
1.35108
1.21472
1.09535
1.0009
0.914917
0.850706
0.78746
0.74531
0.697152
0.666591
4.14044
3.78645
3.12302
2.66009
2.28534
1.98437
1.73422
1.53166
1.35991
1.22156
1.10091
1.00556
0.918504
0.853583
0.789566
0.746685
0.697048
0.666193
3.74418
3.48697
2.92709
2.52328
2.18921
1.91316
1.67714
1.48211
1.31592
1.18289
1.06778
0.977082
0.893875
0.831332
0.768721
0.726643
0.677061
0.647152
2.59859
2.51542
2.22378
2.01835
1.8319
1.64936
1.46895
1.30805
1.16645
1.05334
0.95595
0.880264
0.80975
0.756069
0.700515
0.662862
0.616523
0.588857
1.60477
1.56153
1.39319
1.28235
1.18407
1.09321
0.997856
0.903268
0.81753
0.749624
0.690226
0.644443
0.599674
0.564777
0.526604
0.499558
0.463742
0.441341
0.936219
0.938718
0.870112
0.81856
0.772919
0.736496
0.684427
0.61745
0.546223
0.487794
0.444819
0.418617
0.399053
0.385067
0.370479
0.36003
0.346266
0.338015
0.501196
0.525431
0.50656
0.489616
0.462288
0.434111
0.403757
0.377606
0.358511
0.345329
0.336638
0.332523
0.329185
0.326235
0.322606
0.319224
0.313995
0.310845
0.250743
0.275888
0.261868
0.247884
0.253427
0.263382
0.277273
0.289937
0.299207
0.306047
0.311103
0.316063
0.319524
0.320233
0.319743
0.318414
0.315752
0.313748
0.111139
0.120956
0.127773
0.152594
0.190858
0.22341
0.255687
0.283817
0.304867
0.323565
0.337226
0.348221
0.356175
0.358718
0.360135
0.360937
0.361496
0.36117
0.0327706
0.0580012
0.0916499
0.15639
0.225937
0.281961
0.336133
0.384993
0.42854
0.468725
0.497225
0.518151
0.531704
0.534875
0.538805
0.541563
0.544483
0.546389
0.0101207
0.0661568
0.189782
0.376377
0.545512
0.658908
0.760616
0.849678
0.924861
0.985327
1.02399
1.04627
1.05341
1.05084
1.04909
1.04984
1.04915
1.04878
0.0457216
0.392758
1.0058
1.46938
1.78809
1.96942
2.1069
2.21434
2.27576
2.29605
2.28592
2.24987
2.20134
2.14417
2.09404
2.0561
1.99446
1.9461
0.730295
3.2057
4.59366
4.84303
4.74547
4.54024
4.32605
4.13694
3.97194
3.85133
3.72049
3.57778
3.43751
3.29459
3.17009
3.04067
2.91833
2.79462
6.50144
10.5672
9.92112
8.24818
7.01837
6.51502
6.29164
6.17914
6.16332
6.18825
6.2032
6.21651
6.20347
6.15979
6.09736
6.00743
5.87405
5.68162
0.206428
0.168307
0.208217
0.231791
0.25487
0.284626
0.310146
0.335366
0.360764
0.382262
0.402496
0.426878
0.458249
0.497953
0.543589
0.597781
0.667209
0.741627
0.827202
0.924321
1.03035
1.14091
1.26806
1.40624
1.54877
1.71105
1.87801
2.05911
2.25468
2.44332
2.63879
2.83103
3.02867
3.2152
3.40931
3.64188
3.78552
3.8221
3.81421
3.82712
3.85676
3.87336
3.91706
4.09928
4.31019
4.41757
4.44584
4.42578
4.31587
4.36265
4.47816
4.67671
4.994
5.64845
6.29755
6.61201
6.51034
6.17939
5.99346
6.00396
6.19334
6.49218
7.09193
8.1355
9.26395
10.1853
10.8884
11.3075
11.537
11.6367
11.5047
11.2403
10.8856
10.4351
9.91082
9.36109
8.82269
8.26268
7.70233
7.1503
6.60071
6.08869
5.63322
5.19226
4.76626
4.36683
4.02079
3.68994
3.39488
3.12767
2.88253
2.66311
2.44471
2.29578
2.12972
1.98196
1.87656
1.77228
1.69009
1.63125
1.58126
1.54887
1.53253
1.52529
1.52996
1.542
1.56757
1.60285
1.6535
1.70804
1.76579
1.83923
1.92557
2.0241
2.11136
2.17422
2.26835
2.34844
2.38283
2.43313
2.5327
2.67311
2.72772
2.78735
2.94747
3.29646
3.68379
4.00028
4.15156
4.16647
4.29747
4.18648
4.43278
4.08511
4.41852
4.09732
4.28878
4.48969
4.60973
4.90676
5.19054
5.32241
5.53669
5.70061
5.89651
6.165
6.42219
6.81592
7.13483
7.41366
7.57547
7.61002
7.48809
7.17053
6.93836
6.82582
6.80072
6.81142
6.91675
7.07281
7.14654
7.13033
6.82051
6.34173
5.84487
5.74807
5.92522
6.19602
6.25573
5.92618
6.41824
6.50793
5.8724
5.47752
6.01952
8.05799
9.67204
9.70954
8.65534
8.27502
1.07875
0.368125
0.221624
0.205857
0.21027
0.221077
0.225165
0.225277
0.22039
0.207462
0.198007
0.195595
0.196099
0.198683
0.204673
0.212554
0.226866
0.240308
0.25592
0.276237
0.298194
0.3146
0.338425
0.363864
0.383364
0.417381
0.452053
0.491636
0.548087
0.601634
0.675502
0.749479
0.861355
0.961607
1.08743
1.27224
1.44916
1.71705
1.87452
1.90035
1.8768
1.72227
1.42259
1.30201
1.22802
1.03517
0.791177
0.655826
0.636625
0.696763
0.765521
0.779914
0.795855
0.900725
1.20033
1.84062
2.26801
2.35838
2.54504
3.88078
5.19349
5.52977
5.68986
5.75486
5.56547
5.17679
4.7092
4.20219
3.71517
3.29434
2.94714
2.62488
2.37859
2.16592
1.99202
1.85331
1.73629
1.62349
1.52909
1.44204
1.3687
1.3111
1.25714
1.19275
1.14819
1.10893
1.07687
1.03176
1.00267
0.97904
0.951195
0.929768
0.913061
0.901881
0.87896
0.86862
0.863837
0.856473
0.855479
0.859784
0.863342
0.872483
0.883604
0.892441
0.904244
0.912096
0.92255
0.933816
0.951046
0.967215
0.977291
0.990125
1.01118
1.04535
1.07782
1.09508
1.12311
1.15172
1.15914
1.17215
1.22925
1.40157
1.62074
1.79251
2.01925
2.22763
2.33495
2.29599
2.18743
2.06977
2.12246
2.05079
2.17922
2.01558
2.16949
2.05809
2.11281
2.42477
2.43552
2.89634
3.07659
2.96725
2.95992
2.97889
3.08549
3.33419
3.57241
3.99447
4.34452
4.58545
4.82132
5.28729
5.80389
5.94972
5.8927
5.75255
5.69882
5.59617
5.62828
5.69849
5.75668
5.63795
5.27035
4.69988
4.03226
3.86159
3.92567
3.75502
3.22332
3.28631
4.0884
4.54508
4.2453
3.74204
3.67077
4.4068
5.57382
5.74485
5.32788
5.05726
2.88246
0.82245
0.291138
0.206755
0.200507
0.209839
0.213158
0.202902
0.176304
0.148227
0.134662
0.130496
0.130193
0.131573
0.136288
0.142379
0.151061
0.158719
0.167463
0.178437
0.189622
0.196224
0.206393
0.214606
0.218723
0.227793
0.234551
0.239197
0.249278
0.257616
0.271886
0.289042
0.310736
0.334728
0.370461
0.417527
0.462134
0.568027
0.676532
0.754133
0.921519
1.03137
1.05522
1.03115
0.871954
0.580181
0.45366
0.437765
0.47484
0.593965
0.669817
0.721134
0.766993
0.857799
1.0737
1.67417
2.53236
3.10244
3.39253
3.84797
3.75515
3.23928
2.87876
2.37041
1.97018
1.58878
1.26852
1.04147
0.875566
0.754657
0.686601
0.626785
0.59152
0.569147
0.552334
0.541754
0.533624
0.526005
0.520729
0.516944
0.514999
0.513931
0.511149
0.506369
0.503887
0.50225
0.499683
0.495918
0.494832
0.495389
0.494801
0.498863
0.504492
0.512806
0.515293
0.522117
0.532736
0.537453
0.551983
0.566963
0.581638
0.602931
0.61924
0.633386
0.641796
0.649812
0.656595
0.661336
0.665919
0.666592
0.663483
0.659795
0.660395
0.667098
0.676126
0.684881
0.696658
0.703631
0.721134
0.758878
0.803215
0.881951
1.06679
1.25013
1.35258
1.38472
1.37607
1.30313
1.23487
1.22
1.22668
1.27562
1.2516
1.23626
1.21974
1.21535
1.29275
1.44679
1.45087
1.68647
1.94422
1.88298
1.804
1.724
1.74441
1.84735
1.97758
2.18324
2.37355
2.40276
2.44229
2.62409
3.18305
3.6206
3.75785
3.8645
3.94894
3.86348
3.71084
3.70986
3.86383
4.02206
3.97218
3.65848
3.08468
2.85298
2.97018
2.95694
2.21497
2.03481
2.68535
3.0266
3.10894
2.82044
2.51589
2.98693
3.44371
3.66789
3.46825
3.13142
5.37902
1.3907
0.4293
0.228902
0.215337
0.22812
0.22188
0.197881
0.156036
0.126883
0.119163
0.118764
0.120565
0.125086
0.132961
0.141951
0.152566
0.163626
0.176611
0.188783
0.200196
0.207971
0.212457
0.214835
0.215773
0.217487
0.217757
0.218085
0.219575
0.220817
0.22298
0.226109
0.230693
0.242253
0.249065
0.258739
0.275653
0.291785
0.313163
0.358583
0.423547
0.48944
0.645719
0.72291
0.712582
0.619898
0.54389
0.548694
0.624748
0.854939
0.982954
1.10456
1.2494
1.41112
1.71037
2.16077
2.6072
2.85958
2.79308
2.26569
1.91997
1.58242
1.21929
0.936639
0.717296
0.567779
0.479426
0.427021
0.395206
0.378133
0.370096
0.366241
0.365305
0.36593
0.366926
0.369447
0.371461
0.373254
0.374985
0.377204
0.378143
0.378892
0.378654
0.379291
0.379856
0.379503
0.377118
0.371997
0.368883
0.365536
0.361036
0.358623
0.359186
0.363189
0.365508
0.374636
0.386424
0.391163
0.40706
0.421931
0.443972
0.47259
0.497705
0.524856
0.54647
0.562613
0.577988
0.587649
0.595853
0.596513
0.593291
0.596514
0.601963
0.599705
0.591925
0.591569
0.602725
0.61615
0.623356
0.656748
0.731911
0.765604
0.82871
0.919789
0.992377
1.02429
1.02839
1.01122
0.988087
1.03168
1.04238
1.08742
1.07919
1.04129
1.08016
1.04518
1.14218
1.15122
1.18654
1.33603
1.42051
1.41555
1.42499
1.35688
1.31929
1.32869
1.38534
1.48257
1.57546
1.57762
1.56415
1.64358
1.99572
2.38172
2.49262
2.68881
2.9942
2.98875
2.74908
2.67747
2.84937
3.28361
3.43666
3.29229
2.74886
2.3451
2.4431
2.47707
1.77772
1.61575
2.13744
2.39471
2.68006
2.38974
1.94557
2.49611
2.89691
3.02558
2.8727
2.40177
8.24971
1.93815
0.551766
0.292056
0.263043
0.248928
0.216262
0.164646
0.128261
0.118529
0.117319
0.120293
0.127966
0.139333
0.153544
0.168866
0.184616
0.201441
0.214756
0.22044
0.22245
0.224061
0.223972
0.221347
0.219088
0.216919
0.214643
0.212533
0.208586
0.204828
0.202526
0.201222
0.201762
0.203814
0.209716
0.219317
0.231338
0.247421
0.260072
0.261196
0.265361
0.285724
0.348764
0.453209
0.558108
0.572733
0.577523
0.614881
0.790029
1.03078
1.12478
1.24214
1.40093
1.56777
1.7631
2.01358
2.03907
1.81872
1.55929
1.17623
0.920424
0.742103
0.544069
0.439108
0.3709
0.334057
0.316285
0.308013
0.30497
0.307242
0.31039
0.314262
0.315939
0.317342
0.319033
0.320695
0.322626
0.32433
0.325692
0.327967
0.329512
0.330877
0.331323
0.332988
0.336749
0.337176
0.336627
0.3318
0.329029
0.320095
0.314205
0.303731
0.299238
0.295188
0.292979
0.294041
0.29628
0.296823
0.301802
0.308113
0.316591
0.33035
0.348311
0.36509
0.389966
0.415162
0.437727
0.465449
0.492007
0.517515
0.537985
0.559448
0.575604
0.579515
0.582481
0.589263
0.599919
0.615131
0.613911
0.622928
0.686726
0.7719
0.809768
0.840324
0.874105
0.908382
0.929462
0.968174
0.937073
0.968268
1.01869
1.00103
1.05021
1.00585
1.08757
1.03054
1.12388
1.06453
1.13683
1.22409
1.26615
1.25652
1.24789
1.19805
1.13044
1.07112
1.0533
1.07323
1.15749
1.17981
1.19465
1.25435
1.48838
1.76448
1.86117
1.99159
2.20977
2.32166
2.20449
2.10302
2.21734
2.71889
3.04887
3.06558
2.73301
2.17733
2.19637
2.05317
1.62148
1.57338
1.61868
2.11819
2.33508
1.96684
1.93745
2.10567
2.54627
2.8035
2.67511
2.13532
11.3549
2.53089
0.690831
0.361147
0.274635
0.232142
0.164703
0.130057
0.121103
0.121242
0.127559
0.140949
0.160441
0.183401
0.205522
0.223835
0.230864
0.233556
0.234476
0.233988
0.23287
0.233222
0.23268
0.231476
0.227144
0.223046
0.219225
0.212766
0.207211
0.201729
0.196566
0.189972
0.184159
0.182411
0.179605
0.17972
0.18205
0.189554
0.215508
0.231913
0.235385
0.236066
0.243267
0.274156
0.38387
0.474366
0.521503
0.611386
0.834622
1.13509
1.2892
1.31044
1.36982
1.4646
1.47682
1.37548
1.25193
1.00095
0.825337
0.639788
0.481656
0.400407
0.334818
0.304429
0.288586
0.281764
0.279283
0.278136
0.276063
0.272947
0.266772
0.258254
0.248699
0.244365
0.243157
0.242712
0.243803
0.24417
0.243379
0.242482
0.242536
0.245481
0.251808
0.256479
0.262032
0.270665
0.278614
0.28416
0.291417
0.291433
0.289117
0.279346
0.271662
0.261468
0.256932
0.256863
0.252853
0.252424
0.252562
0.253803
0.253869
0.256049
0.26299
0.271544
0.285143
0.300602
0.314627
0.330897
0.349017
0.378013
0.406292
0.443971
0.501253
0.536959
0.566477
0.587466
0.601007
0.622056
0.629631
0.634514
0.660773
0.750257
0.803589
0.835569
0.85033
0.894326
0.902115
0.942907
0.934702
0.941557
1.00099
0.964181
1.00704
0.975347
1.04933
1.00985
1.06805
1.00937
1.0474
1.05871
1.16337
1.179
1.16359
1.10295
0.970544
0.899061
0.883229
0.887135
0.961048
1.03662
1.07006
1.10414
1.28364
1.44668
1.50838
1.55434
1.70737
1.93688
1.98688
1.90206
1.91033
2.31079
2.70847
2.81236
2.65501
2.07808
2.07348
1.88175
1.54605
1.47153
1.46089
1.80659
1.92693
1.8743
1.95038
2.05107
2.24884
2.69708
2.61522
2.10684
14.6256
3.23905
0.90987
0.387002
0.25776
0.16194
0.130697
0.124808
0.128637
0.143178
0.166768
0.198717
0.228891
0.249028
0.255421
0.256428
0.256301
0.256019
0.256233
0.253337
0.25111
0.25045
0.246762
0.240841
0.233385
0.22639
0.217801
0.210305
0.206437
0.198847
0.193141
0.188842
0.184139
0.18183
0.177905
0.167272
0.161804
0.162156
0.167446
0.184567
0.215547
0.215882
0.216009
0.22765
0.264717
0.339838
0.465615
0.592498
0.866633
1.13859
1.23275
1.23351
1.17142
1.09898
1.02466
0.888108
0.766977
0.603222
0.476557
0.391648
0.322486
0.291542
0.272414
0.264
0.260366
0.257549
0.250643
0.238958
0.226269
0.215109
0.20694
0.202836
0.199599
0.197543
0.196784
0.196927
0.199411
0.201935
0.202552
0.20229
0.201679
0.201281
0.201399
0.202965
0.205507
0.209039
0.211015
0.214156
0.220734
0.226343
0.227728
0.226946
0.223503
0.216052
0.209897
0.21166
0.210427
0.209833
0.210107
0.213925
0.216163
0.216438
0.217186
0.221986
0.230531
0.236839
0.243921
0.249318
0.25751
0.27249
0.296972
0.322962
0.357609
0.410899
0.471349
0.533733
0.567055
0.610451
0.632992
0.658828
0.670129
0.715593
0.762686
0.813952
0.834214
0.871453
0.877863
0.906048
0.916385
0.887567
0.92235
0.899125
0.91608
0.891195
0.933762
0.903735
0.945053
0.88627
0.889062
0.853358
0.929875
0.971743
0.967617
0.907786
0.800966
0.768584
0.78532
0.792597
0.871693
0.949449
0.960127
0.959575
1.08694
1.20852
1.27665
1.25769
1.31605
1.49787
1.65129
1.67281
1.67621
2.02227
2.46263
2.5733
2.46139
1.92286
1.92591
1.80923
1.52696
1.43367
1.41602
1.55373
1.83685
2.09864
2.06165
1.79492
1.8908
2.51355
2.54572
2.12611
17.8933
3.94662
1.06644
0.382473
0.185668
0.132376
0.127895
0.137045
0.164558
0.215713
0.260722
0.283348
0.29199
0.294526
0.294117
0.290004
0.283005
0.276703
0.272019
0.267781
0.263319
0.25865
0.251835
0.241933
0.231256
0.221161
0.213281
0.206081
0.200315
0.192867
0.1888
0.187638
0.185372
0.182169
0.177736
0.167383
0.156498
0.15224
0.152671
0.157667
0.177702
0.188941
0.199952
0.20371
0.217729
0.286614
0.43168
0.558172
0.847813
1.07501
1.11566
1.06268
0.924224
0.824817
0.726491
0.609101
0.505834
0.406964
0.332085
0.29285
0.266492
0.25464
0.248154
0.243782
0.237257
0.22533
0.209172
0.195387
0.187195
0.180901
0.178249
0.177458
0.178565
0.181105
0.182986
0.185131
0.189312
0.192011
0.192687
0.192708
0.192444
0.191256
0.18897
0.187884
0.188895
0.189002
0.188352
0.186905
0.187375
0.193374
0.194539
0.192309
0.192922
0.189812
0.184047
0.181121
0.183929
0.183343
0.179853
0.182301
0.186006
0.185389
0.185824
0.188172
0.195714
0.199092
0.203468
0.207306
0.209084
0.215923
0.23198
0.24932
0.262863
0.285363
0.316285
0.389523
0.435664
0.52632
0.588709
0.643349
0.671848
0.707364
0.752456
0.764816
0.802455
0.815113
0.828726
0.826292
0.829172
0.802776
0.817459
0.796641
0.81493
0.799317
0.809932
0.765503
0.787495
0.736641
0.759079
0.724454
0.756638
0.738336
0.741329
0.72463
0.708939
0.710364
0.735505
0.756084
0.797737
0.89224
0.897878
0.87319
0.907714
1.02651
1.06268
1.06186
1.07643
1.18502
1.35458
1.47332
1.50283
1.78871
2.2561
2.39173
2.33035
1.8221
1.75666
1.68082
1.50197
1.31276
1.35174
1.53402
2.1452
2.2758
2.12024
1.63607
1.62684
2.23808
2.39353
2.13437
20.9262
4.53106
1.11659
0.33703
0.146793
0.130453
0.143514
0.188756
0.271031
0.315011
0.331774
0.336047
0.332113
0.325115
0.320639
0.319611
0.316646
0.311544
0.304364
0.293798
0.285149
0.27778
0.269038
0.258561
0.249697
0.239703
0.233516
0.225854
0.219354
0.212387
0.205749
0.197921
0.190959
0.185459
0.180021
0.169606
0.158776
0.153458
0.152408
0.153528
0.162199
0.172515
0.180234
0.185939
0.203291
0.268686
0.360636
0.48512
0.784797
0.972524
0.99735
0.918001
0.746625
0.649627
0.543641
0.453447
0.373324
0.313628
0.273888
0.254575
0.243136
0.236946
0.232045
0.224928
0.212095
0.194946
0.181349
0.173484
0.167293
0.165006
0.164729
0.166588
0.170568
0.174955
0.179998
0.184811
0.189721
0.193167
0.194575
0.195341
0.195387
0.194017
0.189946
0.187604
0.187503
0.186282
0.18541
0.181414
0.177862
0.182155
0.186012
0.180097
0.179206
0.180298
0.175888
0.168499
0.172301
0.172279
0.165309
0.163855
0.168003
0.167073
0.165976
0.167001
0.173741
0.176624
0.180304
0.182732
0.185593
0.190093
0.198197
0.210451
0.216938
0.227299
0.241876
0.283781
0.308674
0.353072
0.438645
0.534949
0.627035
0.667791
0.733886
0.740112
0.766954
0.776766
0.786842
0.782572
0.782388
0.754216
0.753018
0.746038
0.736554
0.683211
0.676449
0.630019
0.646347
0.609833
0.630242
0.599935
0.615492
0.611361
0.625581
0.631137
0.655357
0.689202
0.738586
0.762047
0.770609
0.825933
0.847892
0.833943
0.814068
0.889268
0.942392
0.96712
0.936711
0.995772
1.16979
1.32772
1.35311
1.57556
2.07077
2.26975
2.24468
1.81667
1.57006
1.52558
1.45503
1.15706
1.12242
1.58639
2.2269
2.2402
2.01999
1.54302
1.49789
1.94308
2.2543
2.10246
23.4872
4.88739
1.09324
0.243843
0.139048
0.145143
0.207433
0.303475
0.341376
0.352846
0.348914
0.343751
0.343157
0.341459
0.336887
0.334425
0.333262
0.335418
0.337642
0.340243
0.342568
0.343549
0.34241
0.337052
0.32715
0.312466
0.303862
0.297026
0.291796
0.283544
0.27268
0.251517
0.226927
0.212174
0.201295
0.18753
0.173556
0.163891
0.15766
0.155869
0.155184
0.156921
0.159788
0.164704
0.182549
0.21672
0.277978
0.410418
0.726348
0.894761
0.903066
0.798003
0.622508
0.534316
0.437935
0.373487
0.310589
0.271777
0.249392
0.237602
0.230412
0.225274
0.219023
0.208056
0.191754
0.175924
0.167446
0.161257
0.158436
0.158294
0.159708
0.163178
0.166915
0.171958
0.178922
0.188029
0.196018
0.20227
0.208693
0.213053
0.213446
0.210998
0.20356
0.196723
0.193089
0.190447
0.187851
0.184907
0.177609
0.179732
0.187359
0.178111
0.174679
0.179524
0.175409
0.165705
0.166265
0.168659
0.161284
0.156203
0.16013
0.159452
0.156897
0.157539
0.162703
0.163821
0.166394
0.169394
0.172645
0.175677
0.181804
0.190433
0.196207
0.200213
0.20891
0.232272
0.248413
0.268432
0.31611
0.359133
0.462361
0.534361
0.638849
0.670104
0.701646
0.716539
0.720443
0.710323
0.701808
0.67655
0.645705
0.635305
0.618417
0.553339
0.545901
0.516878
0.526966
0.513363
0.537022
0.527406
0.536064
0.563835
0.56831
0.581107
0.623404
0.684962
0.742195
0.750352
0.756532
0.788905
0.810103
0.778461
0.756156
0.840931
0.891879
0.896175
0.854942
0.911674
1.06002
1.18092
1.20145
1.39536
1.92865
2.1719
2.13544
1.8459
1.44523
1.41405
1.40835
1.13747
1.03217
1.36405
1.87883
1.89675
1.62508
1.38623
1.40283
1.80429
2.07288
2.02363
25.2466
5.0545
1.00798
0.208645
0.145426
0.208843
0.310832
0.352722
0.35897
0.351603
0.347876
0.346672
0.340062
0.33773
0.336037
0.334149
0.335316
0.340734
0.344805
0.351528
0.357388
0.362734
0.36886
0.375826
0.378269
0.376268
0.36342
0.3491
0.335872
0.328161
0.324911
0.322996
0.315596
0.294546
0.271612
0.246537
0.214849
0.189849
0.172863
0.162882
0.155966
0.149263
0.147366
0.148874
0.157052
0.176248
0.222858
0.362688
0.664009
0.817798
0.824488
0.721556
0.540545
0.457281
0.375889
0.327633
0.278178
0.250009
0.234493
0.22577
0.220751
0.215579
0.207805
0.195085
0.179656
0.167033
0.159759
0.156328
0.155453
0.156815
0.158927
0.159946
0.16115
0.166102
0.17573
0.188471
0.197893
0.20476
0.215487
0.224407
0.229458
0.232343
0.230142
0.22502
0.215563
0.2108
0.198932
0.195255
0.18684
0.180407
0.188015
0.185986
0.174852
0.179077
0.180142
0.166315
0.164881
0.167941
0.16092
0.154359
0.15748
0.157684
0.154295
0.154342
0.15908
0.159187
0.159873
0.16384
0.166538
0.169704
0.174555
0.180812
0.187317
0.188669
0.196667
0.210152
0.220743
0.231548
0.262123
0.283594
0.321936
0.374086
0.455056
0.490025
0.542463
0.565937
0.579411
0.567835
0.566474
0.553866
0.520445
0.510095
0.491089
0.469669
0.468198
0.453078
0.458629
0.462184
0.484317
0.482795
0.496858
0.528009
0.53097
0.582591
0.625959
0.682988
0.747784
0.744885
0.728082
0.74955
0.76044
0.730585
0.730189
0.848057
0.872722
0.858205
0.822777
0.875133
0.994201
1.07638
1.10245
1.24684
1.7292
2.06047
2.04755
1.89279
1.43422
1.34149
1.30452
1.12354
1.01404
1.20711
1.45728
1.42127
1.33889
1.31482
1.34945
1.65107
1.9226
1.92046
26.2727
5.11964
0.980411
0.204311
0.175776
0.289646
0.351141
0.366007
0.353126
0.34323
0.345658
0.345245
0.331916
0.323445
0.320184
0.319099
0.321432
0.324144
0.329198
0.338133
0.348133
0.35712
0.367174
0.380733
0.394229
0.404592
0.40037
0.38343
0.363303
0.347252
0.340665
0.341187
0.343988
0.340867
0.330652
0.316213
0.292039
0.248273
0.205891
0.18108
0.163041
0.151024
0.146396
0.146191
0.148947
0.161243
0.204013
0.333827
0.587779
0.729517
0.741429
0.659885
0.483613
0.404077
0.340738
0.302739
0.261977
0.23911
0.227207
0.220169
0.214881
0.209149
0.201087
0.188965
0.174882
0.162175
0.155641
0.15479
0.155567
0.158316
0.160189
0.159968
0.159472
0.162612
0.170418
0.181609
0.192931
0.201918
0.21388
0.223797
0.231879
0.238027
0.239669
0.237391
0.233256
0.227951
0.221519
0.209242
0.204984
0.189899
0.189647
0.195449
0.181383
0.17954
0.1862
0.172815
0.165357
0.16949
0.161683
0.15475
0.157652
0.157992
0.154134
0.154109
0.158302
0.158242
0.158505
0.16251
0.165279
0.168254
0.172271
0.178433
0.184299
0.185245
0.192613
0.204018
0.209897
0.216686
0.240497
0.250876
0.266498
0.292505
0.348948
0.369298
0.396325
0.421474
0.448816
0.446626
0.448537
0.442957
0.431561
0.423796
0.420186
0.423786
0.418728
0.417944
0.431541
0.44155
0.440696
0.445124
0.490139
0.500202
0.514242
0.597702
0.620039
0.713778
0.816068
0.792379
0.72623
0.744403
0.756728
0.717708
0.719903
0.874386
0.889394
0.834427
0.804839
0.854704
0.947924
0.985845
0.989936
1.08644
1.4901
1.91841
1.96146
1.89021
1.45771
1.28463
1.20337
1.05873
1.02542
1.149
1.26647
1.22433
1.24705
1.30835
1.31999
1.48136
1.73825
1.7992
26.4959
5.26643
1.00434
0.206753
0.185509
0.31021
0.359927
0.364373
0.349286
0.344765
0.343508
0.323991
0.297919
0.282867
0.275017
0.273379
0.274464
0.277229
0.279933
0.295447
0.316117
0.335703
0.354118
0.376749
0.396593
0.419648
0.440463
0.446746
0.427337
0.383343
0.354431
0.345017
0.348428
0.350403
0.346274
0.339868
0.333785
0.320101
0.284335
0.225304
0.188292
0.163233
0.151993
0.149095
0.150803
0.162132
0.20285
0.310642
0.536086
0.654188
0.668866
0.617304
0.448782
0.364725
0.316049
0.282976
0.249036
0.229372
0.21931
0.213068
0.208124
0.203264
0.196098
0.185585
0.173465
0.161315
0.155407
0.154968
0.155554
0.158852
0.162694
0.162613
0.160938
0.16345
0.170266
0.176703
0.182076
0.189423
0.204601
0.216837
0.228941
0.238462
0.242926
0.244106
0.243554
0.237743
0.230383
0.220753
0.21241
0.203346
0.198505
0.202198
0.19217
0.181541
0.18732
0.181459
0.170082
0.172933
0.166671
0.159665
0.161606
0.161682
0.157372
0.156544
0.160147
0.159851
0.159802
0.164571
0.167497
0.169416
0.17322
0.179441
0.183549
0.185405
0.191933
0.203023
0.207353
0.213467
0.231076
0.239572
0.247312
0.259208
0.292884
0.312274
0.323607
0.337648
0.362261
0.370564
0.375655
0.377517
0.380043
0.377835
0.379293
0.38184
0.386521
0.404281
0.415089
0.417286
0.42084
0.452736
0.470247
0.480808
0.539756
0.572582
0.613137
0.83166
0.853241
0.783011
0.728896
0.742328
0.748023
0.718227
0.732938
0.845524
0.910949
0.838098
0.791955
0.842793
0.905835
0.921979
0.902337
0.971481
1.29743
1.7796
1.85327
1.85457
1.48038
1.27439
1.15348
1.04068
1.03441
1.12223
1.19442
1.16397
1.19757
1.33732
1.31267
1.35896
1.58674
1.68123
25.9385
5.43889
1.10129
0.218657
0.180328
0.304941
0.360206
0.366651
0.346614
0.341285
0.331697
0.283837
0.262642
0.254191
0.249155
0.247604
0.246167
0.245132
0.249775
0.262945
0.288735
0.321251
0.345188
0.371755
0.399935
0.42802
0.456096
0.474991
0.475385
0.453483
0.388222
0.348226
0.338524
0.342501
0.344268
0.342856
0.343663
0.348064
0.341097
0.318387
0.268418
0.20283
0.172566
0.164378
0.165119
0.179032
0.2128
0.283482
0.472633
0.619005
0.639092
0.604435
0.449816
0.34891
0.303856
0.273904
0.241706
0.224063
0.214768
0.208964
0.204623
0.200343
0.194183
0.184975
0.173877
0.161929
0.155156
0.154317
0.154855
0.157299
0.162018
0.163988
0.164164
0.166216
0.173008
0.179334
0.181055
0.182895
0.187774
0.204662
0.216707
0.232849
0.242544
0.246982
0.249119
0.250199
0.24502
0.235228
0.230063
0.217508
0.20837
0.207643
0.196624
0.186121
0.188588
0.184921
0.174778
0.176457
0.176177
0.171879
0.17439
0.174419
0.169888
0.16962
0.172585
0.170524
0.171515
0.177519
0.180213
0.180469
0.181331
0.186589
0.187859
0.188874
0.194982
0.205093
0.207991
0.213429
0.227421
0.237364
0.241547
0.247556
0.267863
0.287482
0.293963
0.300674
0.315258
0.328215
0.334501
0.34614
0.349772
0.352338
0.362401
0.364444
0.370077
0.386778
0.405341
0.408503
0.413381
0.456145
0.461809
0.477197
0.555605
0.578357
0.690969
0.8829
0.845064
0.754981
0.738775
0.739053
0.743637
0.745451
0.767758
0.844639
0.892623
0.849296
0.795475
0.828271
0.867511
0.869075
0.846345
0.900852
1.15451
1.66331
1.7465
1.75502
1.47811
1.28175
1.13686
1.04244
1.06465
1.12744
1.18184
1.15465
1.18753
1.39449
1.33945
1.31513
1.54981
1.64691
24.6072
5.65967
1.30757
0.261382
0.179762
0.279973
0.355917
0.366595
0.339476
0.326543
0.319296
0.282004
0.258357
0.24991
0.244089
0.241078
0.238313
0.237523
0.240312
0.251659
0.278487
0.315399
0.346878
0.383806
0.428144
0.467809
0.494109
0.510388
0.505338
0.480061
0.429549
0.361636
0.33435
0.327747
0.330431
0.332741
0.336391
0.346151
0.35504
0.354184
0.342063
0.304506
0.22885
0.192376
0.192292
0.207924
0.226671
0.258846
0.349588
0.571279
0.633196
0.61037
0.464229
0.345263
0.291335
0.262175
0.233093
0.216583
0.20709
0.201452
0.197624
0.194335
0.189664
0.183366
0.175582
0.165141
0.155803
0.153145
0.153511
0.155653
0.160349
0.162244
0.162529
0.164147
0.169737
0.177614
0.180734
0.181506
0.180064
0.1827
0.192019
0.211292
0.232318
0.245178
0.249602
0.252452
0.250234
0.244213
0.237869
0.231225
0.21926
0.217252
0.205656
0.196023
0.194959
0.192289
0.184668
0.185858
0.18646
0.184396
0.18626
0.187807
0.185976
0.186042
0.190769
0.189091
0.189486
0.194964
0.195622
0.196452
0.198387
0.203428
0.202934
0.20384
0.209033
0.214444
0.215344
0.218421
0.226979
0.236614
0.240664
0.245056
0.258029
0.272933
0.279891
0.285755
0.295841
0.303548
0.311813
0.327511
0.33606
0.340228
0.348681
0.355678
0.371056
0.378038
0.387978
0.402265
0.416634
0.442108
0.453425
0.497034
0.551582
0.604075
0.774256
0.873037
0.83185
0.749518
0.741475
0.749318
0.769269
0.832774
0.846705
0.878105
0.898764
0.862487
0.808309
0.82228
0.837511
0.829651
0.809036
0.844196
1.03586
1.5532
1.64827
1.64367
1.47059
1.28707
1.13075
1.05483
1.10644
1.18705
1.20208
1.17235
1.18276
1.41208
1.36863
1.30241
1.55719
1.6808
22.9105
5.94381
1.8493
0.434013
0.193392
0.225682
0.326873
0.360569
0.347342
0.328179
0.320527
0.291137
0.266823
0.256343
0.249897
0.245712
0.241491
0.24052
0.242936
0.25336
0.279755
0.322154
0.369314
0.430783
0.492367
0.550434
0.579662
0.577218
0.53381
0.476995
0.434838
0.360815
0.323435
0.314574
0.317772
0.325292
0.327703
0.333822
0.349034
0.36566
0.370799
0.362446
0.330464
0.258297
0.219314
0.221867
0.226203
0.231311
0.26585
0.458015
0.617946
0.618779
0.510603
0.354799
0.287374
0.255977
0.228781
0.211089
0.201845
0.196142
0.192863
0.190755
0.187286
0.182482
0.17651
0.169592
0.158942
0.15371
0.151867
0.152659
0.157214
0.159988
0.159931
0.15892
0.159112
0.161496
0.166109
0.164885
0.159591
0.156263
0.156198
0.166316
0.198179
0.225896
0.243325
0.252044
0.250516
0.246532
0.24126
0.234769
0.222502
0.221664
0.21652
0.206764
0.206601
0.202765
0.19567
0.196364
0.19686
0.193874
0.194581
0.196833
0.195675
0.195883
0.200639
0.20027
0.199451
0.203303
0.204503
0.205833
0.209118
0.214962
0.215586
0.21693
0.223235
0.225478
0.228502
0.2322
0.233712
0.238042
0.243457
0.246466
0.253413
0.264437
0.273431
0.279044
0.286482
0.291333
0.303697
0.315337
0.328199
0.334707
0.34057
0.347532
0.368105
0.377167
0.382306
0.397496
0.413751
0.435726