/*--------------------------------*- C++ -*----------------------------------*\
| =========                 |                                                 |
| \\      /  F ield         | OpenFOAM: The Open Source CFD Toolbox           |
|  \\    /   O peration     | Version:  dev                                   |
|   \\  /    A nd           | Web:      http://www.openfoam.org               |
|    \\/     M anipulation  |                                                 |
\*---------------------------------------------------------------------------*/
FoamFile
{
    version     2.0;
    format      ascii;
    class       volScalarField;
    object      muSgs;
    location    "9.123";
}
// * * * * * * * * * * * * * * * * * * * * * * * * * * * * * * * * * * * * * //

dimensions      [1 -1 -1 0 0 0 0];

internalField   nonuniform List<scalar> 
12225
(
0.000209272
0.000231552
0.00018852
0.000195475
0.000177673
0.000199907
0.000199065
0.000213922
0.000223565
0.000226489
0.000248847
0.00023743
0.000268278
0.000244714
0.000279954
0.000261986
0.000278197
0.000343481
0.000102375
0.000198777
0.000180609
0.000201043
0.000165808
0.000197018
0.000162573
0.000198605
0.000168915
0.000200125
0.000178066
0.000197785
0.000190801
0.000188652
0.000212871
0.000219393
0.000274358
0.000377254
3.34837e-05
0.000114892
0.000116212
0.000142142
0.000132223
0.000145134
0.000134542
0.000138845
0.000135502
0.00012975
0.000136023
0.000117026
0.000137351
0.000104949
0.000136656
0.000110531
0.000195968
0.000305231
1.31239e-05
5.54057e-05
6.66957e-05
8.43555e-05
9.52571e-05
9.5306e-05
0.000106875
9.76276e-05
0.00011033
9.27693e-05
0.000104346
8.27473e-05
9.69866e-05
7.33683e-05
9.68836e-05
7.57082e-05
0.000141745
0.000199314
8.71508e-06
3.3808e-05
4.36509e-05
5.48349e-05
6.7246e-05
6.85627e-05
7.73732e-05
7.3544e-05
7.95322e-05
6.92398e-05
7.64903e-05
6.20556e-05
7.16282e-05
5.58034e-05
7.10174e-05
5.58305e-05
9.02189e-05
0.000112515
1.29787e-05
2.59499e-05
3.32063e-05
3.82954e-05
4.7358e-05
4.83458e-05
5.51435e-05
5.27719e-05
5.78844e-05
5.11583e-05
5.72105e-05
4.80965e-05
5.47724e-05
4.58777e-05
5.46231e-05
5.12916e-05
6.34804e-05
8.26182e-05
1.5784e-05
2.06053e-05
2.71515e-05
2.9391e-05
3.60512e-05
3.6488e-05
4.19242e-05
4.04981e-05
4.44545e-05
4.13322e-05
4.47981e-05
4.08495e-05
4.387e-05
4.08543e-05
4.45663e-05
4.25672e-05
5.34558e-05
5.61328e-05
1.61689e-05
1.90863e-05
2.29458e-05
2.47703e-05
2.84306e-05
2.93049e-05
3.18046e-05
3.17407e-05
3.33614e-05
3.27276e-05
3.36412e-05
3.26871e-05
3.32493e-05
3.24372e-05
3.33051e-05
3.30841e-05
3.65196e-05
3.83719e-05
2.26582e-05
2.64511e-05
2.69549e-05
2.88784e-05
3.0838e-05
3.20774e-05
3.35985e-05
3.40434e-05
3.48482e-05
3.49747e-05
3.4942e-05
3.49718e-05
3.46783e-05
3.46085e-05
3.44901e-05
3.48193e-05
3.56686e-05
3.57618e-05
3.19533e-05
3.987e-05
3.77599e-05
3.93184e-05
3.79555e-05
3.89148e-05
3.8399e-05
3.90738e-05
3.86413e-05
3.91476e-05
3.84781e-05
3.85968e-05
3.79538e-05
3.79511e-05
3.76046e-05
3.76525e-05
3.78521e-05
3.79434e-05
4.93703e-05
5.68346e-05
5.49798e-05
5.63003e-05
5.35423e-05
5.35227e-05
5.05213e-05
5.02382e-05
4.78466e-05
4.76517e-05
4.5932e-05
4.56655e-05
4.44994e-05
4.39611e-05
4.33618e-05
4.28477e-05
4.27661e-05
4.21233e-05
7.97554e-05
8.28391e-05
7.95369e-05
7.8752e-05
7.51776e-05
7.3665e-05
6.9982e-05
6.83477e-05
6.49749e-05
6.34269e-05
6.06479e-05
5.89191e-05
5.69102e-05
5.5466e-05
5.4142e-05
5.28542e-05
5.19938e-05
5.11489e-05
0.000121228
0.000116846
0.000110326
0.000107033
0.000101174
9.73368e-05
9.13104e-05
8.77649e-05
8.24997e-05
7.93837e-05
7.52529e-05
7.20033e-05
6.92983e-05
6.71357e-05
6.56033e-05
6.42439e-05
6.31504e-05
6.22782e-05
0.000165494
0.000156612
0.000146467
0.000140633
0.00013197
0.000125765
0.000117769
0.000112319
0.000105942
0.000101216
9.62004e-05
9.23061e-05
8.8605e-05
8.57219e-05
8.27163e-05
8.03409e-05
7.77705e-05
7.54978e-05
0.000237726
0.000224459
0.000209477
0.000196796
0.000182739
0.000170343
0.000157986
0.000147349
0.000137305
0.00012871
0.000120631
0.000113863
0.000107499
0.000102371
9.72551e-05
9.33328e-05
8.91454e-05
8.58053e-05
0.000312594
0.000294008
0.000266155
0.000242514
0.000221165
0.000202687
0.000186166
0.000171931
0.000159121
0.000148078
0.000137978
0.000129457
0.000121475
0.00011497
0.000108577
0.000103675
9.84819e-05
9.4456e-05
0.000368106
0.000340049
0.000302561
0.000273302
0.00024794
0.000226143
0.000207044
0.00019061
0.000175941
0.000163325
0.000151887
0.000142216
0.000133197
0.000125825
0.000118598
0.000113062
0.000107168
0.000102694
0.000373516
0.00034397
0.000305637
0.000275967
0.000250382
0.000228361
0.000209
0.000192302
0.000177435
0.000164696
0.000153153
0.000143401
0.00013431
0.000126853
0.000119563
0.000113963
0.000107921
0.000103393
0.000331104
0.000308292
0.000277167
0.000252192
0.000230368
0.000211107
0.000193716
0.000178419
0.000164732
0.000153043
0.000142491
0.000133606
0.000125281
0.000118413
0.000111641
0.000106407
0.000100719
9.65194e-05
0.000257047
0.0002439
0.000225458
0.000210659
0.000197109
0.000183633
0.000170089
0.000157452
0.000145839
0.000135933
0.000127022
0.000119553
0.000112485
0.000106604
0.000100645
9.60158e-05
9.08436e-05
8.7046e-05
0.00018958
0.000180322
0.000167399
0.000157416
0.000148524
0.000140227
0.000131647
0.000122965
0.000114781
0.000107833
0.000101536
9.62103e-05
9.1091e-05
8.67604e-05
8.22491e-05
7.86306e-05
7.44006e-05
7.12309e-05
0.000136114
0.000131661
0.000124953
0.000118921
0.000113475
0.000108821
0.000103118
9.61358e-05
8.87718e-05
8.23309e-05
7.72071e-05
7.3676e-05
7.07461e-05
6.83108e-05
6.58764e-05
6.37915e-05
6.15e-05
5.96868e-05
9.36718e-05
9.28434e-05
8.97091e-05
8.65239e-05
8.25031e-05
7.85256e-05
7.4537e-05
7.12337e-05
6.85729e-05
6.64123e-05
6.45935e-05
6.31418e-05
6.17562e-05
6.03765e-05
5.89511e-05
5.75614e-05
5.6028e-05
5.46959e-05
6.25321e-05
6.33959e-05
6.06122e-05
5.78455e-05
5.81947e-05
5.88186e-05
5.96979e-05
6.0269e-05
6.02647e-05
5.98934e-05
5.93083e-05
5.86886e-05
5.79258e-05
5.69077e-05
5.57965e-05
5.46356e-05
5.33992e-05
5.2226e-05
3.89169e-05
3.92191e-05
4.05848e-05
4.45167e-05
4.91324e-05
5.22772e-05
5.49536e-05
5.68982e-05
5.8001e-05
5.87691e-05
5.89681e-05
5.88505e-05
5.84441e-05
5.75567e-05
5.65922e-05
5.55887e-05
5.45817e-05
5.35248e-05
1.97958e-05
2.69034e-05
3.38003e-05
4.37135e-05
5.18577e-05
5.68668e-05
6.08689e-05
6.38789e-05
6.61101e-05
6.78228e-05
6.85406e-05
6.86351e-05
6.82102e-05
6.71083e-05
6.60686e-05
6.49639e-05
6.3884e-05
6.27756e-05
1.14828e-05
2.90521e-05
4.837e-05
6.57565e-05
7.71234e-05
8.28441e-05
8.70314e-05
9.00439e-05
9.20227e-05
9.30745e-05
9.30349e-05
9.22169e-05
9.07483e-05
8.88947e-05
8.70996e-05
8.54495e-05
8.37532e-05
8.21117e-05
2.52284e-05
6.78384e-05
0.000103144
0.0001206
0.000129595
0.000132987
0.000134657
0.000135282
0.000134543
0.000132615
0.000129879
0.000126458
0.000122743
0.000118841
0.000115224
0.000112001
0.000108237
0.000104875
8.89704e-05
0.000174457
0.000202145
0.000202734
0.00019644
0.000188473
0.00018057
0.000173351
0.000166783
0.00016119
0.000155504
0.000149674
0.000144007
0.000138358
0.000133188
0.000127971
0.000123014
0.000117983
0.000229854
0.000285208
0.00026947
0.00023988
0.000216454
0.000204237
0.000196693
0.000191171
0.000187269
0.000184058
0.000180785
0.00017753
0.00017397
0.000170054
0.000165966
0.000161585
0.000156725
0.000151041
3.94811e-05
3.79809e-05
4.25443e-05
4.47919e-05
4.70195e-05
4.94596e-05
5.13679e-05
5.32064e-05
5.50976e-05
5.67571e-05
5.84282e-05
6.04446e-05
6.28928e-05
6.59004e-05
6.92203e-05
7.29177e-05
7.74336e-05
8.20209e-05
8.70014e-05
9.23812e-05
9.79318e-05
0.000103435
0.000109439
0.000115666
0.000121828
0.000128542
0.000135172
0.000142024
0.000149181
0.000155826
0.000162432
0.000168775
0.000174943
0.000180883
0.000186426
0.000192962
0.000198517
0.000199537
0.000197453
0.000196782
0.000198556
0.000200478
0.000202394
0.000206651
0.000212636
0.00021642
0.000218355
0.000219948
0.000219688
0.000221585
0.00022597
0.000232592
0.000241771
0.000256955
0.000271285
0.000279039
0.000277595
0.000269825
0.000264259
0.000264794
0.000268164
0.000269505
0.000274262
0.000292545
0.000316237
0.000335405
0.000349756
0.00035897
0.000364722
0.000368211
0.000368024
0.000365259
0.00036094
0.000354877
0.000347334
0.000338993
0.000330463
0.000321145
0.000311368
0.000301259
0.000290662
0.000280286
0.000270628
0.000260827
0.000250941
0.000241168
0.000232309
0.000223396
0.000215189
0.000207398
0.000199968
0.000193066
0.000185818
0.00018078
0.000174983
0.000169638
0.000165702
0.000161823
0.000158685
0.000156461
0.000154585
0.000153442
0.000153089
0.00015321
0.000153927
0.000155129
0.000156878
0.000159021
0.000161629
0.000164452
0.000167494
0.000171071
0.000175144
0.000179598
0.000183633
0.00018694
0.00019125
0.000194706
0.000196871
0.00019963
0.000203279
0.000207966
0.000209753
0.000211751
0.000217535
0.000230277
0.00024391
0.000255314
0.000261446
0.000262786
0.000267712
0.000264726
0.000272982
0.000262955
0.000272985
0.000263948
0.000271441
0.000277196
0.000283959
0.000291915
0.000300924
0.000305948
0.000314371
0.00032075
0.000327922
0.000337454
0.000346459
0.000358932
0.000368484
0.000376535
0.000381201
0.000382638
0.000380137
0.000371984
0.000365791
0.000362896
0.000362746
0.000363549
0.000367251
0.000371457
0.000375081
0.000374519
0.000367584
0.000353951
0.00034174
0.000340272
0.000343645
0.000353324
0.000361008
0.00035208
0.000368202
0.000367678
0.000352268
0.000340739
0.000357334
0.000408368
0.000447666
0.000447763
0.000424162
0.000409733
9.0299e-05
5.56301e-05
4.5158e-05
4.3989e-05
4.42009e-05
4.43564e-05
4.36339e-05
4.28331e-05
4.20002e-05
4.06203e-05
3.96317e-05
3.9463e-05
3.96372e-05
4.00441e-05
4.08224e-05
4.17689e-05
4.33585e-05
4.48441e-05
4.64774e-05
4.85268e-05
5.0649e-05
5.22527e-05
5.44355e-05
5.66512e-05
5.83348e-05
6.10869e-05
6.37304e-05
6.67181e-05
7.06414e-05
7.41879e-05
7.89022e-05
8.30352e-05
8.9307e-05
9.45698e-05
0.000100428
0.000108943
0.000115963
0.000127307
0.000134046
0.000136353
0.000137456
0.000134912
0.000125439
0.00011945
0.000115705
0.000108474
9.5572e-05
8.60481e-05
8.33386e-05
8.54668e-05
9.02056e-05
9.13978e-05
9.20623e-05
9.77434e-05
0.000111587
0.000137949
0.000157538
0.000164611
0.000167071
0.00019725
0.000239717
0.000254019
0.00026055
0.000265304
0.000264072
0.000256151
0.000245211
0.000231832
0.000218001
0.000204914
0.00019372
0.000183046
0.000174367
0.000166774
0.000160348
0.000155106
0.000150639
0.000146152
0.000142425
0.000138882
0.000135949
0.00013369
0.000131463
0.000128535
0.000126814
0.00012527
0.000124076
0.000121848
0.000120867
0.00012006
0.000118986
0.000118442
0.000118307
0.000118234
0.000117264
0.0001177
0.000118155
0.000118198
0.000119342
0.000120153
0.000121271
0.000122613
0.000124003
0.000125098
0.000126359
0.000127403
0.000128548
0.000129667
0.000130749
0.000131558
0.000132101
0.000132679
0.000133762
0.000135765
0.000138039
0.000140292
0.000142547
0.000143785
0.000145004
0.000147025
0.000149726
0.000155253
0.000161984
0.000169434
0.000180486
0.000188879
0.000194524
0.000194716
0.000191069
0.000187657
0.000190822
0.000188792
0.000194382
0.000187965
0.000194349
0.000185896
0.000197577
0.000205573
0.00021197
0.000225921
0.0002315
0.000226011
0.000229112
0.000231251
0.000236241
0.000246262
0.000256656
0.000273667
0.000288913
0.000299347
0.00030747
0.000320672
0.000335498
0.000340468
0.000339685
0.000337884
0.000339312
0.000340382
0.000345849
0.000350557
0.000356335
0.000354324
0.000345564
0.000325818
0.000305826
0.000305607
0.000309476
0.000303945
0.000271648
0.000252827
0.000308928
0.000339416
0.000337135
0.000313704
0.000299962
0.000326731
0.000368618
0.000371805
0.000367909
0.000349597
0.000147723
8.15448e-05
5.12024e-05
4.46948e-05
4.37878e-05
4.32234e-05
4.19025e-05
3.99517e-05
3.69237e-05
3.372e-05
3.20272e-05
3.14904e-05
3.15187e-05
3.17581e-05
3.23854e-05
3.3226e-05
3.43602e-05
3.53892e-05
3.65307e-05
3.78921e-05
3.92764e-05
4.01793e-05
4.14584e-05
4.25118e-05
4.30691e-05
4.42861e-05
4.51285e-05
4.57723e-05
4.69668e-05
4.78919e-05
4.94856e-05
5.105e-05
5.33105e-05
5.54409e-05
5.83025e-05
6.24218e-05
6.53442e-05
7.21409e-05
7.9501e-05
8.36607e-05
9.19524e-05
9.90976e-05
0.00010213
0.000103126
0.000100315
8.33681e-05
7.10861e-05
6.86282e-05
6.99946e-05
7.75799e-05
8.32923e-05
8.69069e-05
8.87349e-05
9.33624e-05
0.000103586
0.00012822
0.000162897
0.000185768
0.000196855
0.00021202
0.000213007
0.000199545
0.000187763
0.000170358
0.000154983
0.00013864
0.000123177
0.00011091
0.000100929
9.33642e-05
8.88949e-05
8.48639e-05
8.24863e-05
8.10187e-05
7.99426e-05
7.94012e-05
7.89706e-05
7.86197e-05
7.84867e-05
7.84635e-05
7.86068e-05
7.8826e-05
7.88877e-05
7.87186e-05
7.88522e-05
7.89842e-05
7.92376e-05
7.90832e-05
7.93273e-05
7.97239e-05
7.9918e-05
8.05356e-05
8.16713e-05
8.29992e-05
8.33623e-05
8.47136e-05
8.65888e-05
8.71758e-05
8.99097e-05
9.1838e-05
9.42015e-05
9.7344e-05
0.000100196
0.000102571
0.000104459
0.000105976
0.000107693
0.000109104
0.000110443
0.000111051
0.000111058
0.000110807
0.00011049
0.000110643
0.000111262
0.00011264
0.000115882
0.000117807
0.00011646
0.00011944
0.000126406
0.000129475
0.000134614
0.000140354
0.000144484
0.000146893
0.000148283
0.000146341
0.000144443
0.000145459
0.00014669
0.000150037
0.000148017
0.000144993
0.000150923
0.000138649
0.00015576
0.000160778
0.000167151
0.000179265
0.000185077
0.000178297
0.000174191
0.000171433
0.000172874
0.000177497
0.000184551
0.000194701
0.000207319
0.000213789
0.000220585
0.000229575
0.000249674
0.000260964
0.000260576
0.000262129
0.00026657
0.000270159
0.000271023
0.000278356
0.000291133
0.000302297
0.000306145
0.000299511
0.000272017
0.000261659
0.000277768
0.0002739
0.000206473
0.000181534
0.000223245
0.000267462
0.000301161
0.000261825
0.000211774
0.0002354
0.000280913
0.000298811
0.000314523
0.000300899
0.000202822
0.000104901
6.12989e-05
4.61957e-05
4.43672e-05
4.40657e-05
4.22654e-05
3.93591e-05
3.48017e-05
3.11469e-05
3.00149e-05
2.99845e-05
3.02916e-05
3.09624e-05
3.20517e-05
3.32755e-05
3.46573e-05
3.60399e-05
3.76032e-05
3.91136e-05
4.04733e-05
4.16293e-05
4.23562e-05
4.28259e-05
4.30881e-05
4.35561e-05
4.37565e-05
4.38209e-05
4.42126e-05
4.44608e-05
4.48883e-05
4.53121e-05
4.58739e-05
4.71819e-05
4.81438e-05
4.92471e-05
5.10048e-05
5.29848e-05
5.46487e-05
5.85529e-05
6.40092e-05
6.78453e-05
7.75281e-05
8.41252e-05
8.53096e-05
8.27092e-05
7.71089e-05
7.75093e-05
8.06473e-05
9.40138e-05
0.000102947
0.000109899
0.00011578
0.00012268
0.000134919
0.000153395
0.000171162
0.000181634
0.000181909
0.000166624
0.000151941
0.000137523
0.000120546
0.00010515
9.16039e-05
8.10008e-05
7.39911e-05
6.96073e-05
6.69344e-05
6.56122e-05
6.50888e-05
6.49333e-05
6.51032e-05
6.5292e-05
6.562e-05
6.59636e-05
6.62965e-05
6.66239e-05
6.68901e-05
6.72738e-05
6.74975e-05
6.76457e-05
6.77302e-05
6.79735e-05
6.82403e-05
6.82608e-05
6.8192e-05
6.78485e-05
6.77482e-05
6.75225e-05
6.72908e-05
6.69915e-05
6.71138e-05
6.75421e-05
6.78918e-05
6.88378e-05
7.01916e-05
7.07035e-05
7.25906e-05
7.43373e-05
7.68189e-05
7.98903e-05
8.30359e-05
8.62311e-05
8.94133e-05
9.16416e-05
9.40145e-05
9.5903e-05
9.76648e-05
9.92678e-05
0.000101075
0.000104239
0.000106241
0.000105202
0.000104407
0.000104181
0.000105572
0.000110782
0.000112357
0.000110108
0.000116931
0.000122973
0.000122132
0.000121923
0.000124781
0.000128347
0.000131162
0.000132559
0.00013302
0.000137111
0.000137853
0.000140087
0.000140445
0.000133586
0.000142661
0.000136717
0.000142802
0.000139717
0.000147379
0.000163698
0.000166173
0.000163283
0.000159946
0.000155349
0.00015215
0.000151212
0.000154176
0.00015946
0.000163467
0.000162894
0.000166443
0.000176122
0.000197087
0.000215429
0.000219188
0.000224018
0.000228368
0.000222461
0.000213972
0.000218582
0.000237141
0.000268616
0.00028481
0.000290868
0.000257796
0.000232193
0.000249324
0.000245331
0.000186844
0.000183755
0.000199317
0.000235909
0.00027573
0.000219161
0.00018424
0.000196407
0.00023373
0.000259017
0.000285213
0.000275451
0.000252888
0.000122193
6.74705e-05
4.97088e-05
4.66672e-05
4.43647e-05
4.06858e-05
3.54703e-05
3.08692e-05
2.94066e-05
2.93061e-05
2.97758e-05
3.07815e-05
3.22255e-05
3.39795e-05
3.58327e-05
3.77991e-05
3.9853e-05
4.16463e-05
4.26614e-05
4.31593e-05
4.37189e-05
4.39642e-05
4.38513e-05
4.38398e-05
4.38606e-05
4.37151e-05
4.35633e-05
4.33156e-05
4.29922e-05
4.28099e-05
4.27427e-05
4.29509e-05
4.31424e-05
4.36827e-05
4.49386e-05
4.60026e-05
4.7804e-05
4.94492e-05
5.00317e-05
5.04393e-05
5.18066e-05
5.71072e-05
6.5447e-05
7.31509e-05
7.6484e-05
7.81353e-05
8.03594e-05
8.83759e-05
0.000103028
0.000109099
0.000115788
0.000123562
0.000131149
0.000139401
0.000150443
0.00015332
0.000147009
0.000135761
0.000118071
0.00010414
9.31195e-05
7.94713e-05
7.09012e-05
6.47164e-05
6.11832e-05
5.94795e-05
5.88279e-05
5.87466e-05
5.91796e-05
5.9773e-05
6.04179e-05
6.07824e-05
6.11582e-05
6.14689e-05
6.17551e-05
6.20358e-05
6.22542e-05
6.25468e-05
6.28327e-05
6.30395e-05
6.3288e-05
6.32741e-05
6.36714e-05
6.40313e-05
6.42484e-05
6.44424e-05
6.41007e-05
6.40996e-05
6.3393e-05
6.29962e-05
6.20878e-05
6.17885e-05
6.14553e-05
6.12201e-05
6.15331e-05
6.16585e-05
6.18149e-05
6.24138e-05
6.30273e-05
6.4015e-05
6.53995e-05
6.7477e-05
6.93352e-05
7.22621e-05
7.52117e-05
7.78062e-05
8.14789e-05
8.48635e-05
8.77279e-05
9.0297e-05
9.25341e-05
9.63083e-05
9.97584e-05
0.000103423
0.000106808
0.000106932
0.000107185
0.000109289
0.000109262
0.000111465
0.000119208
0.000122987
0.000122229
0.000121698
0.000124122
0.000126311
0.000129596
0.000128875
0.000132315
0.000139047
0.000136428
0.000138389
0.000140043
0.000140437
0.000137471
0.000144502
0.00013606
0.000140166
0.000146099
0.000154668
0.000154605
0.000152652
0.000148451
0.000143736
0.00013798
0.000134474
0.000135529
0.000144863
0.000147171
0.00014628
0.00014949
0.000166441
0.000182135
0.000185671
0.000191694
0.000202405
0.000204401
0.000194149
0.000188494
0.000198711
0.000235669
0.000262005
0.000280844
0.000258469
0.000222599
0.000232582
0.000215282
0.000182419
0.000183023
0.000182645
0.000228696
0.00024231
0.000203058
0.000224653
0.000207992
0.000214958
0.000242018
0.000271579
0.000263238
0.000298998
0.000137472
7.26553e-05
5.28194e-05
4.55944e-05
4.16574e-05
3.5302e-05
3.08812e-05
2.96548e-05
2.98365e-05
3.07073e-05
3.23875e-05
3.47261e-05
3.75581e-05
4.03614e-05
4.28173e-05
4.40968e-05
4.48735e-05
4.54244e-05
4.57248e-05
4.58727e-05
4.59761e-05
4.60112e-05
4.59676e-05
4.54972e-05
4.49948e-05
4.46729e-05
4.40811e-05
4.34996e-05
4.29963e-05
4.26144e-05
4.19385e-05
4.1358e-05
4.1315e-05
4.11312e-05
4.12031e-05
4.15948e-05
4.25191e-05
4.46894e-05
4.68789e-05
4.7911e-05
4.83336e-05
4.85509e-05
5.04809e-05
5.89911e-05
6.81783e-05
7.26777e-05
7.8512e-05
9.0822e-05
0.000107616
0.000117558
0.000119692
0.000122492
0.000127322
0.000128871
0.000125901
0.000120282
0.000108104
9.80543e-05
8.62252e-05
7.44308e-05
6.73009e-05
6.10725e-05
5.79426e-05
5.63259e-05
5.58308e-05
5.58471e-05
5.60637e-05
5.62613e-05
5.63014e-05
5.60217e-05
5.5447e-05
5.46124e-05
5.43884e-05
5.43575e-05
5.44973e-05
5.46789e-05
5.47137e-05
5.46428e-05
5.46414e-05
5.45011e-05
5.48808e-05
5.52583e-05
5.59272e-05
5.62798e-05
5.71504e-05
5.79833e-05
5.85671e-05
5.93964e-05
5.95753e-05
5.95389e-05
5.87929e-05
5.81566e-05
5.73406e-05
5.70216e-05
5.72181e-05
5.70462e-05
5.7024e-05
5.72033e-05
5.73798e-05
5.75188e-05
5.77662e-05
5.85122e-05
5.94573e-05
6.0971e-05
6.27876e-05
6.46509e-05
6.61871e-05
6.87235e-05
7.24881e-05
7.5523e-05
7.92807e-05
8.60611e-05
9.1301e-05
9.56163e-05
9.93318e-05
0.000103754
0.000108333
0.000110722
0.000112337
0.000111407
0.00011461
0.000117183
0.000119112
0.000120211
0.000124227
0.000124456
0.00012533
0.000128901
0.0001298
0.000138377
0.000139385
0.000139463
0.00013672
0.000140611
0.000133992
0.000141046
0.000134308
0.000139423
0.000134457
0.000142667
0.000142661
0.000143203
0.000139488
0.000131404
0.00012624
0.000124142
0.000119673
0.000128086
0.0001393
0.000141388
0.000137498
0.000151556
0.000167802
0.000168832
0.000165011
0.000173451
0.00019053
0.000191261
0.000182959
0.000181072
0.000212308
0.000241936
0.000267429
0.000256963
0.00021753
0.000223393
0.000204302
0.000181785
0.000172798
0.000169604
0.000198271
0.000198361
0.000209172
0.000239155
0.000222669
0.000204621
0.00023321
0.000265255
0.000262342
0.000342207
0.000153492
8.12911e-05
5.33239e-05
4.3525e-05
3.50687e-05
3.09395e-05
3.01192e-05
3.0626e-05
3.22568e-05
3.48508e-05
3.85704e-05
4.23071e-05
4.51235e-05
4.66299e-05
4.74818e-05
4.79711e-05
4.81691e-05
4.82176e-05
4.7797e-05
4.72162e-05
4.68371e-05
4.62898e-05
4.55691e-05
4.4816e-05
4.41911e-05
4.3372e-05
4.26662e-05
4.23737e-05
4.17006e-05
4.11768e-05
4.08598e-05
4.05311e-05
4.04567e-05
4.04367e-05
3.95184e-05
3.90691e-05
3.92687e-05
3.99479e-05
4.15599e-05
4.48432e-05
4.54832e-05
4.56314e-05
4.70053e-05
5.04207e-05
5.68559e-05
6.67958e-05
7.61238e-05
9.26186e-05
0.000108485
0.000115359
0.000116065
0.000114257
0.000110975
0.000107563
0.000100603
9.36828e-05
8.32038e-05
7.37331e-05
6.63008e-05
5.95987e-05
5.63677e-05
5.43816e-05
5.36461e-05
5.35912e-05
5.37194e-05
5.34079e-05
5.25888e-05
5.16126e-05
5.07255e-05
5.01216e-05
4.99577e-05
4.98178e-05
4.97871e-05
4.99083e-05
5.00556e-05
5.0601e-05
5.11282e-05
5.12303e-05
5.13415e-05
5.11274e-05
5.14033e-05
5.1221e-05
5.13669e-05
5.14048e-05
5.16584e-05
5.16802e-05
5.18229e-05
5.22718e-05
5.26877e-05
5.27045e-05
5.25917e-05
5.23106e-05
5.1587e-05
5.10896e-05
5.13991e-05
5.17337e-05
5.18854e-05
5.21872e-05
5.27941e-05
5.3356e-05
5.34407e-05
5.37056e-05
5.42355e-05
5.53485e-05
5.56874e-05
5.68775e-05
5.77604e-05
5.83599e-05
6.02204e-05
6.36446e-05
6.67746e-05
7.0271e-05
7.61524e-05
8.33741e-05
8.99768e-05
9.40722e-05
0.000100113
0.000106131
0.000113268
0.000115026
0.000117386
0.000117475
0.00011719
0.000117592
0.000119317
0.000121946
0.000121711
0.000126263
0.000124357
0.000131763
0.00013213
0.000131199
0.000129821
0.000134521
0.000125686
0.000132265
0.00012276
0.000127208
0.000121648
0.000127671
0.000129042
0.000130387
0.000126199
0.000117768
0.000113177
0.000115983
0.000113615
0.000121017
0.00013132
0.000133167
0.000124815
0.00013063
0.00014807
0.000154686
0.000145407
0.00014532
0.000163846
0.000176272
0.000173969
0.000166978
0.000194319
0.00022672
0.000252015
0.000248196
0.000208594
0.000211717
0.000203488
0.000182686
0.000172736
0.000166893
0.000170457
0.000185838
0.000229605
0.000228369
0.00019719
0.000179348
0.000217366
0.000255276
0.000260292
0.000382174
0.000168304
8.73854e-05
5.26078e-05
3.76076e-05
3.10944e-05
3.03355e-05
3.1273e-05
3.40757e-05
3.94706e-05
4.48038e-05
4.83239e-05
5.04725e-05
5.17089e-05
5.19698e-05
5.13136e-05
5.00991e-05
4.88974e-05
4.79666e-05
4.73084e-05
4.68883e-05
4.66175e-05
4.63175e-05
4.58383e-05
4.50667e-05
4.42638e-05
4.35541e-05
4.282e-05
4.22629e-05
4.1485e-05
4.09526e-05
4.07914e-05
4.05263e-05
4.02826e-05
4.01852e-05
3.93012e-05
3.83588e-05
3.79165e-05
3.83863e-05
3.90655e-05
4.13379e-05
4.32491e-05
4.44002e-05
4.49439e-05
4.57337e-05
5.06182e-05
6.37099e-05
7.38902e-05
9.20111e-05
0.000106086
0.00010974
0.000108053
0.000101402
9.58451e-05
9.02396e-05
8.28055e-05
7.55028e-05
6.74837e-05
6.04717e-05
5.63729e-05
5.35592e-05
5.24105e-05
5.19025e-05
5.17836e-05
5.14541e-05
5.05116e-05
4.90187e-05
4.77941e-05
4.71726e-05
4.67967e-05
4.67659e-05
4.68606e-05
4.72064e-05
4.76058e-05
4.79984e-05
4.8256e-05
4.89161e-05
4.95219e-05
4.97844e-05
4.99606e-05
4.98614e-05
5.01262e-05
5.00124e-05
5.00306e-05
4.99699e-05
5.00453e-05
4.99271e-05
4.97778e-05
4.9821e-05
5.01571e-05
5.01167e-05
4.96542e-05
4.93128e-05
4.88493e-05
4.84372e-05
4.78767e-05
4.83795e-05
4.85315e-05
4.83913e-05
4.86502e-05
4.94526e-05
4.94629e-05
4.98188e-05
5.00287e-05
5.1169e-05
5.16113e-05
5.20225e-05
5.27281e-05
5.29615e-05
5.36654e-05
5.55998e-05
5.81354e-05
5.99285e-05
6.22276e-05
6.61137e-05
7.47073e-05
7.99152e-05
8.88858e-05
9.57226e-05
0.000105074
0.0001104
0.000115913
0.000121741
0.000120692
0.000121027
0.000118932
0.000123415
0.000121386
0.000123758
0.000122547
0.000123906
0.000127545
0.000126752
0.000119043
0.000124459
0.000117377
0.00012155
0.000111657
0.000116648
0.000111522
0.000113192
0.000110884
0.000112373
0.000110964
0.000110952
0.000109381
0.000110841
0.000109834
0.000113005
0.000122326
0.000127539
0.000121983
0.000119721
0.000133136
0.000140785
0.000134098
0.000128225
0.000141425
0.000158647
0.000165303
0.000157486
0.000179821
0.00021357
0.000238204
0.000242033
0.000203065
0.00019593
0.000198555
0.000181897
0.000162136
0.00016112
0.000175409
0.000213338
0.000232207
0.000214793
0.000187852
0.000164837
0.000196886
0.000243183
0.000258247
0.00041793
0.000180197
8.94713e-05
5.0208e-05
3.28792e-05
3.04784e-05
3.17331e-05
3.61554e-05
4.48622e-05
5.06154e-05
5.39601e-05
5.53934e-05
5.47997e-05
5.32057e-05
5.18979e-05
5.13787e-05
5.11703e-05
5.11e-05
5.10351e-05
5.07328e-05
5.05494e-05
5.03399e-05
4.97215e-05
4.87584e-05
4.78548e-05
4.6784e-05
4.60114e-05
4.52621e-05
4.44918e-05
4.3603e-05
4.27978e-05
4.20991e-05
4.16427e-05
4.12963e-05
4.08156e-05
3.96074e-05
3.82631e-05
3.73357e-05
3.74909e-05
3.77269e-05
3.89168e-05
4.05112e-05
4.13985e-05
4.23074e-05
4.37064e-05
4.97323e-05
5.91134e-05
6.89628e-05
8.86056e-05
0.000101009
0.000103565
0.000100667
9.11452e-05
8.4839e-05
7.78086e-05
7.09769e-05
6.42113e-05
5.84886e-05
5.42676e-05
5.21692e-05
5.09748e-05
5.05079e-05
5.02031e-05
4.9713e-05
4.85434e-05
4.68976e-05
4.56534e-05
4.51684e-05
4.4854e-05
4.50345e-05
4.53588e-05
4.56784e-05
4.61699e-05
4.67471e-05
4.74368e-05
4.7872e-05
4.83211e-05
4.89903e-05
4.93874e-05
4.96359e-05
4.95908e-05
4.97292e-05
4.94383e-05
4.9282e-05
4.92974e-05
4.92681e-05
4.91672e-05
4.87962e-05
4.87958e-05
4.92871e-05
4.96028e-05
4.91277e-05
4.86943e-05
4.85085e-05
4.81856e-05
4.73634e-05
4.75121e-05
4.75559e-05
4.69815e-05
4.67494e-05
4.74486e-05
4.73455e-05
4.72365e-05
4.75622e-05
4.85535e-05
4.88998e-05
4.955e-05
5.00072e-05
5.03496e-05
5.09431e-05
5.17526e-05
5.357e-05
5.45075e-05
5.54325e-05
5.73918e-05
6.24375e-05
6.59127e-05
7.11552e-05
7.94906e-05
8.99572e-05
0.000101174
0.000106391
0.000115455
0.000117731
0.00012276
0.00011992
0.000122474
0.000120778
0.000125105
0.000120984
0.000116496
0.000118878
0.000118836
0.00011045
0.000111629
0.000102591
0.000107091
0.000100264
0.000103923
0.000100007
0.000100869
0.00010178
0.000104037
0.000103112
0.000104534
0.000107047
0.000111917
0.000113098
0.000113213
0.000117639
0.000122183
0.000118372
0.00011347
0.000122232
0.00013204
0.000129015
0.000118917
0.00012867
0.000147414
0.000157804
0.000147835
0.000165834
0.000201765
0.000227652
0.000237868
0.000203573
0.000179621
0.000189296
0.000178919
0.000152617
0.000144412
0.000184072
0.000221068
0.000211583
0.000196163
0.000183298
0.000161632
0.000180756
0.000232318
0.000253749
0.00044838
0.000187433
8.86232e-05
4.27881e-05
3.14257e-05
3.17965e-05
3.78635e-05
4.81331e-05
5.3654e-05
5.63267e-05
5.59701e-05
5.44081e-05
5.38337e-05
5.40077e-05
5.4342e-05
5.48854e-05
5.53661e-05
5.58421e-05
5.60773e-05
5.60891e-05
5.5856e-05
5.55373e-05
5.51435e-05
5.44247e-05
5.3588e-05
5.25449e-05
5.19923e-05
5.14953e-05
5.11169e-05
5.04669e-05
4.94578e-05
4.74104e-05
4.49807e-05
4.36951e-05
4.28946e-05
4.16777e-05
4.02621e-05
3.92204e-05
3.89125e-05
3.87949e-05
3.90838e-05
3.92787e-05
3.96287e-05
4.03534e-05
4.1914e-05
4.61808e-05
5.22082e-05
6.27628e-05
8.52393e-05
9.70849e-05
9.84895e-05
9.3888e-05
8.30226e-05
7.66738e-05
6.93986e-05
6.38523e-05
5.80073e-05
5.39261e-05
5.13877e-05
5.01755e-05
4.95298e-05
4.91706e-05
4.865e-05
4.77027e-05
4.61344e-05
4.46492e-05
4.40457e-05
4.38308e-05
4.41563e-05
4.47138e-05
4.51083e-05
4.53619e-05
4.55351e-05
4.61547e-05
4.72112e-05
4.8262e-05
4.89457e-05
4.97152e-05
5.07356e-05
5.1423e-05
5.13143e-05
5.12241e-05
5.06223e-05
4.98749e-05
4.94866e-05
4.92669e-05
4.90572e-05
4.87665e-05
4.81136e-05
4.87098e-05
4.93503e-05
4.85878e-05
4.85504e-05
4.87931e-05
4.81961e-05
4.74896e-05
4.73907e-05
4.74471e-05
4.67222e-05
4.61614e-05
4.66567e-05
4.65544e-05
4.63616e-05
4.62862e-05
4.71338e-05
4.7386e-05
4.74665e-05
4.83015e-05
4.85379e-05
4.93357e-05
5.00996e-05
5.11119e-05
5.24054e-05
5.20407e-05
5.38727e-05
5.6486e-05
5.85775e-05
6.09338e-05
6.73879e-05
7.07995e-05
8.3125e-05
9.00563e-05
0.000102457
0.00010511
0.000112617
0.000112675
0.000115512
0.000111408
0.000114288
0.000113201
0.000107233
0.0001065
0.000102911
9.47199e-05
9.73257e-05
9.20237e-05
9.43904e-05
8.9744e-05
9.50986e-05
9.34595e-05
9.38954e-05
9.75728e-05
9.74031e-05
9.79249e-05
0.000100539
0.000105496
0.000110631
0.0001102
0.000111108
0.000115208
0.000120231
0.000117423
0.000111494
0.000119214
0.000129413
0.000126203
0.000114188
0.000122294
0.00014023
0.000149861
0.000137682
0.000152781
0.000192726
0.000219158
0.000231211
0.000205925
0.000169581
0.000181307
0.000174253
0.000154118
0.000138553
0.000162722
0.000196179
0.000184972
0.00016934
0.00016973
0.000159175
0.000175647
0.000219034
0.00024432
0.00047136
0.000190781
8.50857e-05
3.88282e-05
3.19387e-05
3.78698e-05
4.87374e-05
5.44715e-05
5.6448e-05
5.56312e-05
5.44258e-05
5.47606e-05
5.54132e-05
5.53474e-05
5.50256e-05
5.48921e-05
5.48176e-05
5.51208e-05
5.53434e-05
5.58857e-05
5.64227e-05
5.70137e-05
5.78191e-05
5.84303e-05
5.87615e-05
5.86175e-05
5.78229e-05
5.68564e-05
5.59505e-05
5.54471e-05
5.52036e-05
5.48518e-05
5.38919e-05
5.1695e-05
4.93433e-05
4.70152e-05
4.39503e-05
4.15869e-05
4.01843e-05
3.9375e-05
3.90786e-05
3.83445e-05
3.81675e-05
3.8426e-05
3.9105e-05
4.1785e-05
4.63742e-05
5.7902e-05
8.16712e-05
9.30819e-05
9.40351e-05
8.90934e-05
7.72175e-05
7.08004e-05
6.40931e-05
5.95439e-05
5.45686e-05
5.14399e-05
4.9687e-05
4.88689e-05
4.84257e-05
4.80152e-05
4.7303e-05
4.61667e-05
4.4632e-05
4.34414e-05
4.30031e-05
4.32433e-05
4.39738e-05
4.47471e-05
4.51373e-05
4.50439e-05
4.48695e-05
4.54274e-05
4.68657e-05
4.84848e-05
4.94165e-05
5.02338e-05
5.15822e-05
5.24676e-05
5.26562e-05
5.30434e-05
5.29999e-05
5.26704e-05
5.16802e-05
5.11039e-05
4.98492e-05
4.9597e-05
4.88155e-05
4.82173e-05
4.91639e-05
4.90811e-05
4.8227e-05
4.8746e-05
4.8931e-05
4.75394e-05
4.74201e-05
4.74262e-05
4.68232e-05
4.60117e-05
4.6531e-05
4.64796e-05
4.6092e-05
4.62981e-05
4.68341e-05
4.70496e-05
4.67528e-05
4.78028e-05
4.79116e-05
4.86482e-05