/*--------------------------------*- C++ -*----------------------------------*\
| =========                 |                                                 |
| \\      /  F ield         | OpenFOAM: The Open Source CFD Toolbox           |
|  \\    /   O peration     | Version:  dev                                   |
|   \\  /    A nd           | Web:      http://www.openfoam.org               |
|    \\/     M anipulation  |                                                 |
\*---------------------------------------------------------------------------*/
FoamFile
{
    version     2.0;
    format      ascii;
    class       volScalarField;
    object      p;
    location    "9.123";
}
// * * * * * * * * * * * * * * * * * * * * * * * * * * * * * * * * * * * * * //

dimensions      [1 -1 -2 0 0 0 0];

internalField   nonuniform List<scalar> 
12225
(
95926.7
95915.9
95887.4
95848.9
95793.7
95753.7
95713.7
95713.4
95725.7
95794.3
95862.3
95998.6
96128.3
96330.4
96523.7
96757.4
96860.5
96548
95925.8
95921.5
95892.9
95855
95799
95760.2
95718.5
95719.8
95730.4
95802.2
95866.8
96005.9
96132.6
96333.9
96531.4
96773
96967.9
97123.7
95934.5
95933.4
95904.6
95866.6
95810.6
95773.6
95728.1
95733.3
95739.8
95818.7
95875.7
96020.8
96142
96343.3
96545.4
96789.9
97031
97364.2
95949.3
95952.5
95923.6
95885.9
95830.1
95792.5
95748.6
95753.8
95754.9
95847
95888
96045.2
96146.9
96356.3
96558.1
96806
97077.2
97418.4
95972.4
95980.2
95951.5
95914.7
95859.2
95821
95779.5
95781.6
95786.7
95867
95915.8
96070.2
96180.9
96372.7
96573.2
96805.1
97095.4
97429.7
96008.1
96018.7
95990.7
95954.7
95900.2
95861.2
95822.2
95820.8
95830.2
95897.9
95958.5
96091.3
96229.5
96397.7
96609.9
96818.1
97117.9
97405.5
96062.5
96070.4
96044.2
96007.9
95956.2
95915.4
95880.4
95874
95889.3
95942.6
96018.9
96127.4
96299.9
96429.9
96679.4
96839
97138.3
97370.8
96119.9
96128
96104.6
96067.3
96019.1
95976.5
95945.2
95935.6
95954
95999.7
96082.1
96175.7
96364.3
96474.3
96725.2
96865.3
97146.8
97352.1
96179.3
96189.2
96169.2
96131
96086.4
96042.5
96014.2
96002.8
96022.4
96063.8
96147.2
96233.5
96420.9
96526.5
96761.5
96897.1
97139.7
97358.1
96259.8
96269.6
96253.1
96214.8
96173.3
96129.8
96103.4
96091.9
96111
96150.2
96230.2
96315.1
96485
96598.6
96812.3
96948.4
97174
97369.1
96361.9
96374.4
96361.3
96323.8
96285.2
96243.5
96218.8
96208.2
96226.1
96264.6
96338.3
96427.7
96568
96697.3
96873.5
97026.9
97217.1
97408.8
96499
96509.8
96498.8
96464.2
96428.1
96390.1
96367.6
96358.6
96375.8
96413.1
96481.7
96568.2
96691.4
96819.5
96972.1
97127.3
97297.4
97470.8
96670.8
96681.4
96672.1
96642.5
96609.2
96576.6
96556.3
96551
96567.3
96604.7
96666.6
96750.2
96857.4
96980
97116.5
97262.7
97416.1
97572.9
96880.1
96893.4
96886.2
96862.8
96834.3
96808.2
96792.4
96791
96808.8
96846
96904
96981.8
97078.4
97190.6
97314.8
97447.8
97586.6
97728.5
97129.1
97148.4
97143.9
97127.4
97106.3
97088.8
97080.1
97084.9
97105.8
97144.6
97200.7
97273.7
97362
97464
97577
97697.6
97823.3
97952.1
97435.2
97443.5
97441.1
97432.7
97422.5
97416.3
97418.4
97432.3
97459.8
97502.3
97559.6
97630.8
97714.3
97808.7
97912.5
98023.2
98138.4
98256.4
97738.7
97750.8
97758.3
97762.9
97767.9
97777.6
97795
97822.6
97861.6
97912.5
97975.1
98049
98132.7
98224.9
98324
98428.8
98537.3
98648
98005.7
98024.3
98043.7
98064.2
98088
98117.5
98154.8
98201.2
98257.1
98322.4
98396.6
98479.1
98568.8
98664.7
98765.7
98870.5
98977.7
99086
98198
98219.1
98247.5
98282.6
98324.8
98374.9
98433.5
98500.8
98576.2
98659.3
98748.9
98844.3
98944.3
99048.1
99154.9
99264.3
99375.4
99486.5
98331.6
98343.2
98376.4
98423
98480.9
98549.2
98627.3
98714.2
98808.6
98909.3
99015
99124.4
99236.5
99350.2
99464.9
99580.2
99696.3
99811.9
98390.2
98414.3
98453.8
98509.6
98580.1
98663.7
98758.5
98862.5
98973.9
99090.6
99211.2
99334.1
99458.1
99582.2
99705.8
99828.2
99949.5
100069
98436
98459
98500.3
98562
98642.1
98737.9
98846.3
98964.5
99090
99220.4
99353.7
99488.4
99623.1
99756.7
99888.7
100018
100145
100270
98471.3
98488
98528.2
98593.6
98680.7
98785.7
98904.8
99034.4
99171.2
99312.6
99456.3
99600.6
99744.2
99885.8
100025
100161
100293
100422
98504.7
98507.5
98545.1
98612.6
98704.9
98816.9
98944
99082.1
99227.6
99377.6
99529.4
99681.3
99831.9
99980
100125
100266
100402
100535
98515.6
98518.8
98555.2
98624.4
98720.4
98837.5
98970.4
99114.8
99266.8
99423
99581
99738.6
99894.5
100047
100197
100341
100481
100617
98529.5
98527
98562
98632.1
98730.6
98851.3
98988.4
99137.3
99293.8
99454.5
99616.8
99778.4
99938.1
100094
100247
100394
100537
100675
98540.3
98533.3
98566.9
98637.4
98737.4
98860.6
99000.6
99152.4
99312.1
99475.8
99640.9
99805.3
99967.5
100126
100281
100430
100575
100714
98547.5
98538.4
98570.7
98641.2
98742
98867
99008.6
99162.4
99323.9
99489.5
99656.4
99822.6
99986.4
100147
100302
100453
100599
100739
98551.7
98542.8
98573.7
98643.7
98744.6
98870.9
99013.4
99168.2
99330.9
99497.5
99665.4
99832.6
99997.3
100158
100315
100467
100613
100754
98558.1
98546.5
98576.2
98645.7
98745.8
98873.5
99015.9
99171
99334.2
99501.3
99669.7
99837.2
100002
100164
100321
100472
100619
100760
101205
101199
101188
101172
101151
101125
101095
101061
101024
100982
100936
100887
100834
100777
100716
100651
100584
100513
100439
100363
100284
100204
100122
100039
99954.7
99870.6
99786.5
99702.8
99619.8
99538.3
99458.7
99381.4
99306.5
99234.1
99164.6
99098.2
99034.6
98973.7
98915.4
98861
98810.4
98762.4
98717.4
98675.2
98635.2
98597.3
98561.6
98528
98496.7
98467.4
98438.3
98409
98380.9
98352.5
98323.9
98297.1
98269.5
98236.9
98201.2
98162.9
98114.8
98051
97991
97926
97852.2
97765.6
97666.2
97554.9
97431.7
97296.6
97148.8
96989.5
96819
96634.7
96436.9
96225.6
96000.2
95761
95508.4
95242.8
94964.3
94674.7
94376.2
94069.9
93757.3
93440.9
93123.1
92806.7
92493.7
92186.9
91889.1
91603
91331
91075.4
90839
90623.4
90430.4
90262.1
90119
90002.7
89913.7
89852.5
89819.1
89813.9
89836.5
89886.5
89963.1
90065.4
90192.2
90341.7
90512.1
90701.9
90908
91127.4
91356.7
91594.2
91835.1
92078.1
92319.5
92555.3
92781
92992.5
93185.4
93357.8
93512
93648.6
93767.8
93871.4
93960.4
94033.9
94088.5
94126.4
94143.9
94150.7
94135.2
94111.2
94069.9
94011.9
93943.1
93862
93767.9
93661.3
93540.4
93402.3
93244
93060.2
92845.2
92596.9
92312.8
91989.8
91629.4
91234.3
90808.3
90355.8
89883
89399.5
88913.3
88430.1
87955.3
87492.7
87044.8
86610.6
86188.8
85780.4
85392.4
85025
84676.5
84333.6
84002.8
83736.3
83482.7
83235.4
83014.7
82829.6
82706.5
82642.5
82624.1
82659
82756.9
82934.8
101236
101230
101218
101201
101180
101154
101125
101091
101054
101012
100967
100918
100865
100807
100747
100682
100614
100543
100469
100392
100313
100232
100149
100065
99980.2
99895.2
99810.1
99725.4
99641.5
99559
99478.4
99399.9
99323.8
99250.3
99179.9
99112.4
99047.8
98986.8
98928
98873
98822.7
98776.1
98730.9
98686.8
98645.6
98607.7
98571.8
98537.8
98506.6
98476.6
98447.3
98417.4
98387.4
98358.5
98329.4
98303
98278
98246.3
98209.3
98175.6
98135.5
98081.5
98008.8
97935.4
97857.1
97769
97669.7
97559.2
97437
97302
97156.1
96997.7
96832.4
96648.3
96451.5
96242
96018.1
95780.4
95529.4
95265.6
94989.3
94702.1
94405.6
94101.6
93791.5
93477.6
93162.2
92848.2
92537.6
92233.3
91937.9
91654.1
91384.2
91130.5
90895.9
90682
90490.3
90323.2
90180.9
90065.1
89976.4
89915
89881.2
89875.2
89896.7
89945.2
90019.9
90120
90244.2
90390.7
90558.1
90744.3
90946.9
91162
91386.8
91620.1
91858
92097.4
92334.9
92566.9
92789.6
92998.9
93188.6
93357.1
93508
93642.4
93760
93862.9
93951.4
94024.2
94078.1
94116.5
94133.4
94142.8
94122.3
94100.2
94060.3
94002.1
93934.7
93852.5
93758.2
93651.4
93531.1
93393.2
93235.8
93053.6
92840.3
92593.3
92311
91989.7
91630.3
91236
90811
90358.8
89885.8
89402.9
88918.2
88436.5
87962.7
87501.3
87054.2
86620.9
86199.2
85789.2
85400.3
85033.3
84683.6
84339.9
84013.5
83750.3
83502.4
83255.1
83033.8
82847.9
82728
82668.9
82651.8
82686.1
82781.6
82960.4
101296
101290
101278
101261
101239
101213
101183
101150
101113
101072
101027
100977
100924
100866
100805
100740
100672
100600
100525
100448
100368
100286
100202
100117
100031
99944.1
99856.8
99770.4
99685.1
99600.7
99517.7
99437.3
99359.7
99284.4
99212
99142.7
99076.7
99014.6
98955.6
98899.9
98848
98799.1
98752.8
98711.5
98672.5
98631.9
98593.7
98559
98525.2
98493.5
98460.4
98427
98395.2
98365
98338.7
98315.4
98293.4
98267.9
98232
98187.9
98139.8
98085.1
98019.7
97946.4
97865.8
97776.6
97678.2
97569.1
97448.4
97317.1
97174
97019
96852.4
96671.7
96477.1
96272.8
96051.1
95816.2
95568.4
95308
95035.3
94752.5
94460.1
94160.4
93855.3
93546.4
93235.8
92926.5
92620.9
92321.2
92030.5
91751.4
91486.1
91236.5
91005.5
90795.4
90606.7
90442.4
90302.6
90188.7
90101.2
90040.5
90006.6
89999.9
90019.6
90065.6
90136.9
90232.7
90351.7
90492.3
90652.8
90831.4
91026
91232.7
91449.5
91674.3
91904.1
92136.2
92366.1
92589.1
92804.1
93007.9
93193.2
93356.4
93501.6
93631.7
93746.6
93847.7
93933.7
94005.1
94058.2
94097.6
94112.5
94130.7
94096.6
94077.6
94039.1
93980.3
93913.8
93833.1
93739.7
93633.5
93513.1
93376
93220.1
93040.1
92829.5
92586.3
92307
91988.5
91632.2
91240.2
90816.2
90364.2
89892.4
89411.4
88928.3
88448
87976
87517.6
87073.3
86641.7
86220.6
85808
85415.3
85049.6
84698
84355.8
84039.1
83774.6
83534.1
83292.2
83066.4
82888.3
82770.6
82718.5
82708.7
82743.6
82837.5
83015.7
101379
101372
101361
101344
101323
101297
101267
101234
101197
101156
101111
101062
101008
100950
100889
100824
100755
100682
100607
100529
100448
100365
100280
100193
100104
100016
99926.2
99837.2
99749.2
99662.1
99576.7
99493.8
99413.3
99335.4
99260.7
99189.6
99121.9
99057.5
98996.7
98939.8
98885.7
98834.9
98789
98746.6
98706.5
98668.1
98631.9
98596.9
98562.6
98529.6
98496.5
98460.9
98425.9
98393.8
98365.9
98340.4
98314.2
98285.2
98249.7
98206.9
98157.3
98100.1
98035.5
97963.5
97883.7
97795.6
97698.8
97592.2
97474.4
97345.4
97204.7
97052.3
96887.6
96710.1
96519.5
96316.3
96099.3
95869
95626
95371
95101.5
94825
94538.9
94244.7
93945.9
93643.3
93339.4
93036.5
92737.1
92443.7
92159.1
91885.7
91626.1
91382
91155.7
90949.9
90765.4
90604.5
90468
90356.7
90271.2
90212.1
90179.1
90172.2
90190.7
90234
90301.8
90392.4
90505.2
90638.3
90790.4
90959.4
91143
91338
91542.6
91755.5
91973.2
92193.2
92411.5
92623.5
92826.4
93020.2
93197.9
93354.9
93493.8
93618
93728.7
93825.8
93908.1
93977.1
94028.5
94070.9
94076.8
94100.4
94071.3
94046.9
94006.6
93948.9
93883.9
93802.9
93713.1
93607.7
93487.9
93351.5
93196.9
93019.5
92813.3
92574.9
92300
91986.7
91635.1
91247.9
90827.4
90376.3
89904.2
89422.6
88940.7
88463.3
87994.9
87540.5
87100.7
86671.7
86251.5
85836.6
85440.4
85075.8
84723.4
84388.8
84083
83812
83576.9
83342
83129.9
82956.1
82827.5
82780.1
82787.3
82828.7
82925.6
83105.3
101476
101470
101459
101443
101422
101397
101368
101336
101299
101259
101214
101165
101112
101054
100993
100927
100858
100785
100710
100631
100549
100465
100378
100289
100200
100108
100016
99924
99832.7
99742.4
99653.9
99567.6
99483.2
99401.9
99324.6
99250.2
99179.7
99113.9
99051.6
98992.5
98936.5
98885.2
98838.3
98793.9
98753.7
98717.8
98683.1
98647.9
98613.9
98581.5
98547.1
98512
98476.8
98442.6
98411
98380.5
98349.4
98316
98277.8
98234.2
98183.9
98127
98063.4
97992.6
97914.1
97827.5
97732.2
97628
97512.8
97386.7
97249.2
97099.8
96938.4
96764.6
96578
96378.7
96166.5
95941.7
95704.3
95454.9
95193.9
94923.3
94644.6
94356.7
94065.6
93771.3
93475.4
93180.5
92888.3
92602.4
92325.5
92059.3
91806.2
91568
91346.9
91145.8
90965.4
90807.8
90673.9
90564.6
90480.7
90422.2
90389.4
90381.9
90398.9
90439.3
90502.7
90587.9
90693.7
90818.5
90961.1
91119.7
91290.2
91471.4
91662.5
91861.5
92064
92267.9
92469.2
92666.3
92857.1
93038.1
93203.6
93352
93483.9
93601.5
93704.6
93799.8
93875.1
93942.5
93989.5
94034.2
94043.1
94053.3
94033.8
94007.1
93967.7
93910
93849.4
93773.1
93679.9
93574.3
93454.8
93320
93166.8
92992.5
92792.4
92560.9
92293.5
91984.5
91636.1
91254.5
90840.9
90392.8
89921.2
89441.7
88963
88485.9
88016.9
87565
87131.4
86707.7
86290.5
85875.8
85477.5
85113.1
84763.3
84435.5
84134.7
83869.2
83636.9
83414.9
83213.1
83027.6
82902.3
82858.4
82885.8
82938.3
83043.6
83230.3
101581
101574
101563
101548
101528
101505
101478
101447
101411
101372
101328
101280
101228
101171
101110
101045
100977
100904
100828
100749
100666
100580
100492
100401
100308
100215
100120
100026
99931.1
99837.7
99745.6
99655
99567.3
99482.7
99401.1
99323.7
99251.2
99182.2
99117.2
99057.7
99001.5
98948.1
98897.9
98852.2
98812.8
98776.9
98741.6
98706.6
98672.6
98639.7
98606.3
98571.1
98535.2
98499.9
98465.6
98431.6
98397
98360.2
98320.1
98275.5
98224.7
98168.5
98106
98036.6
97959.6
97874.5
97781
97678.5
97566.4
97443.5
97309.4
97163.8
97006.5
96837.1
96655.5
96461.5
96254.9
96036.3
95805.8
95563.6
95310.7
95047.4
94776.2
94497.5
94214.5
93928.6
93642.3
93356.9
93071.6
92794
92527
92269.7
92024.7
91793.2
91578.6
91383.4
91207.7
91053.7
90922
90814.6
90731.3
90672.5
90638.4
90628.6
90642.2
90678.7
90736.6
90814.4
90912
91027.1
91157.5
91303.2
91460.8
91628.7
91804.4
91987.5
92170.9
92356.9
92539.4
92717.8
92893.9
93061.5
93212.7
93349.3
93470.9
93581.2
93674.5
93772.1
93838.6
93899.7
93946.9
93984.6
93997.1
94002
93986.5
93959.6
93921.2
93864.2
93802.4
93728.7
93638.1
93535.1
93417.5
93285.8
93136.5
92965.5
92769.3
92545
92286.6
91984.1
91637.8
91260.5
90857.2
90414.1
89941.6
89464.2
88991.8
88517.5
88046.8
87593.8
87165.2
86748.6
86336.2
85924.9
85526.7
85163
84819.5
84498.6
84205.9
83945.1
83716.3
83504.6
83316.1
83130.7
83020
82979.9
83010.7
83074
83191.2
83389.5
101685
101678
101668
101653
101635
101613
101588
101558
101525
101487
101445
101398
101348
101293
101233
101169
101100
101027
100949
100869
100784
100698
100608
100516
100423
100328
100232
100136
100039
99943
99847.9
99754.5
99663.5
99575.4
99490.6
99409.8
99334
99262.7
99196.1
99133.5
99074.7
99020.8
98970.8
98924.6
98882
98843.1
98808
98774.9
98741.2
98707
98673
98637.9
98602.1
98566.3
98530.6
98494.7
98458.1
98419.7
98378.4
98333.2
98283
98227.4
98166
98097.8
98022.5
97939.2
97847.7
97747.4
97637.9
97518
97388
97246.8
97094
96929.7
96753.7
96566.2
96366.7
96155.3
95932.4
95698.5
95454.8
95200.5
94937.6
94668.1
94394.2
94116.9
93839.3
93561.3
93286.4
93019.3
92759.9
92512.4
92276.5
92050
91842.8
91655.4
91486.3
91336.2
91207.6
91102.5
91019.9
90960.6
90924.4
90911.2
90920
90950.3
91001.2
91069.4
91157.1
91261.5
91378.2
91509.4
91651.8
91803.3
91960
92127.5
92290.6
92457.8
92619.4
92776.1
92937.3
93090
93225.5
93348.7
93458.6
93560.9
93649.3
93733.4
93798.5
93853.2
93897.5
93930.5
93943.3
93945.8
93931.4
93904.9
93867.4
93811.6
93748.7
93672.1
93590.1
93491.5
93378.4
93249.1
93104.7
92939.9
92748.7
92529.6
92278.4
91984.2
91642.6
91269.7
90876
90440.6
89967.2
89489.9
89024.9
88557.1
88085.7
87630.5
87205.6
86796.5
86390.2
85984.5
85589.3
85228
84893.8
84579.4
84294.3
84040.6
83817.4
83612.7
83429.4
83283.7
83179.3
83133
83159.6
83232.7
83365.9
83580.8
101778
101772
101762
101749
101732
101712
101689
101661
101629
101594
101554
101510
101461
101406
101346
101281
101212
101139
101062
100982
100900
100814
100726
100635
100541
100446
100348
100250
100152
100054
99956.4
99860.7
99767.5
99677.2
99589.3
99505.8
99427.6
99353.8
99284.8
99220.1
99161
99105.9
99053.4
99005
98960.5
98921.3
98886.5
98852.5
98817.4
98782.8
98749
98714.3
98679.4
98644.1
98608.3
98572.3
98535.4
98496.6
98455.3
98410.5
98361.2
98306.6
98246.1
98179.4
98105.8
98024.6
97935.4
97837.5
97730.4
97613.5
97486.7
97350.1
97202
97042.7
96872.1
96691.1
96499.4
96296.2
96081.6
95856.7
95623
95379.7
95127.1
94867.8
94604.2
94337.3
94069.6
93802.1
93535.8
93277
93026.6
92784.4
92555.6
92340.9
92139.8
91957
91795.8
91648.9
91524.5
91421.7
91340.7
91280.8
91242.6
91225.4
91229.1
91250.8
91293.6
91351.5
91427.3
91519.5
91619.7
91736.3
91861
91994
92132.6
92276.1
92420.1
92566.8
92709.7
92849.2
92987.5
93118.6
93238.2
93348
93447.1
93540.4
93620.1
93694.8
93755.9
93802.9
93844.8
93873.9
93884
93886.3
93872.3
93844.2
93800.8
93753.9
93692.5
93619.6
93540
93445.8
93336.5
93212
93072.2
92913.5
92728.8
92516.8
92271.6
91987.2
91654.4
91285.7
90895.5
90467.8
89999.2
89523
89062.1
88600.3
88131.8
87676.3
87254
86852.4
86453.3
86055.3
85666.3
85308.6
84985.4
84681.5
84407.7
84159.8
83944.4
83746.4
83573.9
83449.5
83355
83303.6
83327.3
83412
83564.9
83801.3
101852
101846
101837
101825
101811
101793
101772
101747
101718
101684
101645
101600
101548
101494
101436
101375
101311
101241
101167
101090
101009
100925
100838
100747
100653
100558
100461
100363
100264
100165
100067
99971.2
99877.2
99784.6
99694.5
99609
99528.5
99453.5
99383.3
99317.2
99256.6
99199.7
99146.5
99097.8
99052.7
99012.7
98976
98940.6
98905.6
98871.5
98838.3
98805.1
98771.6
98737.6
98703.2
98668.3
98632.3
98594.5
98554
98510
98461.7
98408.5
98349.7
98284.5
98212.8
98133.6
98046.9
97951.4
97846.5
97732.2
97608.3
97475
97331.4
97176.8
97011
96835.4
96650.6
96455.4
96248.9
96032.9
95809.1
95577
95335.6
95088
94835.8
94580.8
94324.2
94069.5
93815.1
93564.6
93324.9
93091
92867.4
92660.1
92467.6
92287.8
92130.2
91990.8
91869.4
91767.6
91687.8
91626.9
91586.1
91564.5
91563
91576.7
91610.2
91657.6
91720.4
91796.1
91881.9
91980.8
92085.7
92198.7
92316.2
92438.3
92560.3
92685.5
92805.7
92926.4
93042.8
93154.9
93256.9
93352.6
93438.2
93520.7
93592
93656.5
93711.9
93753.2
93792
93818.3
93825.6
93826.2
93813.6
93787.1
93748.3
93697.6
93638.1
93569
93491
93400.3
93293.9
93174.9
93041.1
92888.5
92713.3
92506.6
92267.8
91991.1
91668
91307.1
90919.2
90497.6
90036.9
89562.8
89103
88646.6
88183.5
87729.4
87310.5
86917.5
86526.9
86138.1
85756.9
85405.3
85093.9
84802.9
84537.6
84299.3
84092.9
83909.5
83751.6
83633.8
83544.2
83497.9
83517.8
83613.8
83788.8
84046.6
101897
101892
101883
101872
101860
101846
101829
101806
101778
101741
101701
101657
101611
101561
101508
101450
101388
101320
101249
101173
101093
101015
100930
100841
100751
100659
100564
100468
100371
100274
100177
100081
99987.3
99895
99805.4
99719.9
99639.2
99563.6
99492.2
99425.5
99364
99306.1
99252.9
99203.5
99158.1
99117.3
99079.5
99044.8
99011
98978
98946.3
98914.9
98883.4
98851.7
98819.7
98786.9
98752.7
98716.4
98677.4
98634.7
98587.9
98536.3
98479.4
98416.5
98347.1
98270.2
98185.2
98091.9
97989.1
97876.9
97755.5
97624.8
97485
97334.4
97173
97001.5
96822.5
96634.7
96434.7
96226.3
96011.6
95789.7
95559.1
95323.4
95083.3
94841.1
94596.7
94353.5
94112.5
93872.6
93642.4
93421.6
93205.7
93004.6
92819.3
92646.6
92491.4
92356.4
92237.8
92137.5
92056.9
91994.5
91950.4
91924.1
91916.7
91922.6
91946.7
91982
92031.6
92091.6
92160
92240.6
92324.3
92415.8
92511.4
92610.9
92710.1
92813.3
92909.9
93009.8
93104.4
93197.3
93281
93362
93435.4
93504.6
93567
93623.3
93673.8
93710.3
93743
93766.9
93774.3
93772.8
93759.6
93733.8
93700.8
93648.8
93587.9
93518.2
93442.1
93355.6
93253.7
93141.3
93013.2
92867.3
92698.2
92498.5
92267.5
91997.3
91684.9
91331.7
90946.3
90531.5
90080.4
89608.9
89150.2
88699.3
88242.2
87790.3
87376.3
86993.9
86613.3
86235.2
85864
85520.3
85219.5
84944.5
84691.3
84462.4
84261.7
84097
83946.8
83831.8
83748.9
83716.2
83736.5
83840.7
84037.3
84319.7
101904
101901
101893
101885
101874
101861
101844
101822
101794
101760
101724
101685
101643
101595
101543
101487
101427
101363
101296
101226
101153
101077
100999
100917
100832
100744
100654
100562
100470
100376
100282
100188
100096
100006
99918.5
99834.8
99755.2
99680.3
99609.5
99543.5
99482.1
99424.7
99372.1
99323.1
99278.7
99238.5
99201.8
99168.9
99137
99105.6
99076.1
99047.4
99019.1
98990.6
98961.4
98931.3
98899.6
98865.6
98828.6
98787.8
98742.8
98693.1
98638.1
98577.4
98510.1
98435.3
98352.8
98261.6
98160.9
98050.5
97931.2
97802.6
97665.1
97517.8
97360.9
97194.3
97019.2
96835.7
96642.2
96440.3
96233.2
96020
95799.3
95573.6
95345.2
95114.8
94883.5
94651.3
94422.3
94195.3
93973.7
93763.5
93559.6
93365.6
93187.3
93022.6
92871.6
92739
92623.3
92523.7
92443
92377.9
92330.4
92299
92285.1
92282.7
92295.7
92319.5
92354.5
92399.5
92450.5
92511.3
92575.5
92643.5
92717.9
92793.1
92869.3
92948.6
93024
93100.4
93175.1
93248
93314.2
93378.2
93440
93496.2
93548.8
93597.4
93642.3
93675.9
93703.7
93723.4
93730.1
93725.9
93712.8
93686.5
93642.7
93599.6
93542.3
93475.6
93402
93317.1
93221.6
93113.7
92990.6
92850.9
92687.7
92495.6
92271.2
92008.6
91707.3
91359.8
90977.7
90572.2
90131.5
89663.8
89205.5
88759.7
88309.6
87861.9
87453.9
87083
86715
86350.1
85990.5
85655.3
85365.4
85110.1
84875.9
84654.4
84456.5
84304.3
84161.9
84049
83974.1
83954.4
83984.2
84093.7
84311.5
84621.8
101866
101865
101859
101852
101843
101831
101815
101794
101769
101740
101708
101671
101628
101582
101534
101482
101428
101371
101311
101249
101184
101115
101043
100968
100890
100809
100726
100640
100553
100465
100377
100289
100201
100115
100031
99950.3
99873
99800.1
99731.6
99668
99609.1
99554.8
99504.7
99458.1
99415.7
99377.5
99343.6
99313.6
99284.6
99256.6
99230.6
99205.7
99181.4
99156.7
99131.2
99104.5
99075.9
99044.7
99010.2
98971.7
98928.8
98881.2
98828.3
98769.7
98704.6
98632.3
98551.8
98462.8
98364
98255.1
98137.1
98010.4
97875.1
97731.6
97578.9
97415.9
97244.6
97065.2
96877.1
96680.6
96478.7
96271.8
96060.4
95842
95623.8
95403.4
95182.9
94962.4
94743
94527.6
94316.4
94114.3
93920.5
93734.8
93563.2
93405.5
93259.7
93130.1
93017
92917.4
92836.6
92770.2
92718.7
92682.6
92661.4
92650.3
92651.2
92665.5
92685
92715
92750.3
92790.1
92836.5
92881.4
92934.2
92985.4
93039.4
93092.8
93149.3
93200.9
93256.4
93309.5
93360
93407.8
93456.2
93500.8
93543.8
93584
93622.3
93653
93676.5
93692.6
93698.4
93691.8
93677.1
93650.4
93610.4
93566.6
93508.5
93443.8
93370.7
93288.6
93198.9
93093.1
92976.3
92842.4
92684.9
92500.1
92279.3
92023.9
91734.9
91397.5
91019
90618.8
90191.3
89730.6
89271.9
88829.7
88387.6
87947.7
87546.3
87187
86834
86484.3
86138.3
85813.8
85536.5
85300.5
85084.9
84871.8
84681.6
84535.3
84401
84289.4
84227.5
84220.3
84256.6
84371.8
84615
84961.8
101779
101779
101773
101767
101760
101751
101738
101720
101699
101674
101644
101608
101569
101529
101486
101441
101396
101348
101298
101244
101187
101127
101063
100996
100926
100854
100779
100701
100621
100540
100459
100378
100298
100220
100143
100068
99995.9
99927.4
99862.6
99802.6
99747.4
99697.1
99651.1
99608.8
99570.4
99535.5
99506
99480.6
99455.7
99432.3
99411.5
99392.1
99372.8
99352.7
99331.5
99308.7
99283.7
99255.8
99224.3
99188.4
99148
99102.6
99051.7
98994.9
98931.6
98861.2
98783.1
98696.7
98600.5
98493.4
98376.2
98251
98118.3
97977.5
97828.1
97669.4
97501.8
97325.5
97141.1
96949.6
96750.8
96548.6
96342.4
96131.2
95919.9
95708.2
95496.7
95286.2
95076.3
94869.5
94667.6
94473.2
94286.6
94108.5
93941.8
93789.5
93649.2
93522.1
93411.3
93313.7
93231.9
93165.2
93110.5
93068.9
93040.7
93021.5
93011
93014.9
93021
93035.2
93055.4
93076.5
93103
93127.4
93158.4
93187.2
93219
93248.9
93285.1
93314.4
93350.2
93384.3
93420.2
93453.4
93488.5
93522.6
93556
93587.7
93618.6
93644.9
93664.9
93678.1
93681.7
93674.1
93658.6
93629.9
93591.4
93549.3
93489.2
93425.5
93353.6
93274.3
93186.8
93084.9
92973.8
92841.9
92689.7
92512.1
92298.5
92049.8
91770.2
91444
91072.3
90672.9
90258.9
89809.9
89353.7
88914
88481.5
88051.2
87656.5
87308.4
86970.7
86638
86309.2
85998.7
85735.7
85516.2
85315.3
85116.9
84940
84791.9
84663.2
84554.1
84510.3
84520.4
84558.9
84678.4
84939.3
85330.5
101638
101639
101636
101632
101627
101620
101611
101598
101581
101560
101535
101505
101474
101441
101405
101369
101331
101292
101251
101207
101160
101109
101055
100998
100938
100875
100811
100743
100674
100602
100529
100457
100385
100316
100248
100183
100120
100060
100002
99948.9
99899.4
99854.5
99814.2
99778.1
99745.6
99716.3
99692.6
99672.6
99652.9
99635.6
99621.3
99607.8
99594.1
99579.6
99563.6
99545.4
99524.7
99500.6
99472.2
99439.2
99401.2
99357.9
99309
99253.9
99192.1
99123.4
99047.1
98963.4
98870.6
98766.8
98651.5
98526.7
98395.2
98256.6
98109.3
97953.9
97789.9
97616.8
97435.5
97248.3
97051.4
96850.9
96648.2
96441.2
96233.8
96027.9
95822.9
95619.5
95418.3
95220
95025.9
94838.6
94658.1
94485.8
94323.7
94174.3
94037.8
93913
93803.4
93707.8
93625.4
93556.9
93500.1
93454.4
93419
93393.3
93374
93364.7
93360.1
93358.8
93362.5
93367.4
93373.3
93379.9
93388.7
93397.9
93407.1
93417.2
93431.6
93442
93458.2
93474.4
93495.8
93516.2
93539
93563.7
93588.2
93611.7
93635.4
93656.4
93672.9
93683.1
93684.4
93675.2
93658.5
93629.9
93591.9
93543
93487.7
93424.9
93354.9
93278.7
93190.4
93093.4
92983.5
92853.4
92707.8
92536.5
92331.1
92091.9
91815.6
91497.4
91136.8
90741.9
90338.7
89904.1
89453.7
89016.6
88593.8
88174.6
87787.4
87451.2
87129.8
86815.6
86506.6
86213.4
85966.5
85764
85580
85396
85232.6
85076.8
84951.6
84851.3
84825.9
84856.9
84901.7
85015.7
85303.9
85714
101446
101449
101448
101447
101446
101443
101438
101430
101419
101404
101386
101364
101341
101316
101290
101262
101234
101204
101172
101138
101102
101062
101018
100972
100924
100874
100821
100765
100707
100648
100587
100526
100465
100407
100350
100296
100244
100194
100147
100103
100063
100026
99994.3
99966.5
99942.1
99921.2
99904.9
99890.5
99877.2
99868
99861.4
99854.8
99847.7
99839.2
99828.5
99815.2
99799
99778.8
99754
99724.1
99688.7
99647.8
99600.8
99547.1
99486.6
99419.2
99344.7
99261.2
99169.9
99070
98959.1
98836.6
98705.5
98568
98421.7
98267.2
98106.2
97937.1
97760.3
97575.9
97382.4
97182.9
96979.6
96773.7
96568.2
96364.9
96163.8
95964.6
95768.7
95576.2
95388
95206
95031.5
94864.2
94707
94560.4
94425.7
94303
94193.6
94097.8
94014.7
93943.5
93883.8
93834.9
93793.3
93761.2
93734.8
93713.4
93698.1
93683
93670.8
93659.7
93648.3
93638
93625.9
93617.2
93605.6
93597.5
93589.7
93584.5
93581.1
93582.5
93588.6
93597.6
93609.5
93625.3
93642.5
93659.5
93676.2
93691.9
93704.2
93711.3
93711.2
93700.8
93681.6
93652.5
93614.5
93569
93510
93447.6
93379
93302.1
93215.5
93120.6
93011.4
92884.6
92744
92577.7
92379.6
92149.1
91874.9
91565.1
91215.6
90831.5
90438.6
90016.4
89573.5
89142.1
88727.6
88321.2
87942.9
87620.4
87317.3
87022.9
86735.4
86462.5
86233.5
86050.9
85886.4
85712.1
85558.8
85396.4
85274
85189.8
85180.9
85232.8
85285.3
85396
85739.9
86124.9
101204
101210
101212
101214
101216
101218
101220
101219
101217
101212
101203
101192
101178
101163
101147
101130
101111
101091
101070
101047
101022
100994
100962
100928
100892
100854
100814
100771
100726
100680
100633
100586
100539
100493
100449
100408
100369
100332
100297
100266
100237
100211
100190
100172
100158
100147
100140
100134
100131
100130
100132
100132
100132
100131
100126
100118
100107
100091
100070
100043
100010
99971.8
99926.5
99874.1
99814.4
99747
99671.8
99588.6
99497.4
99398.4
99290.9
99172.6
99043.1
98905.5
98760.7
98607.4
98447.1
98280.3
98106.5
97926.4
97737.8
97540.9
97338.3
97131.4
96924.2
96720.5
96521
96324.2
96131.2
95941.7
95756.6
95576.9
95405.3
95241.9
95087.2
94943.5
94810.2
94689.4
94580.7
94484.4
94399.8
94326
94262.5
94209.4
94163
94124.1
94090.7
94059.7
94032.6
94005.4
93980.1
93953.6
93928.1
93901
93872.1
93845.4
93816.4
93789.4
93763.3
93742.3
93722
93710.2
93700.9
93699.6
93702
93709.8
93720.3
93732.5
93744.5
93755.7
93764.3
93768.2
93766
93754.8
93734.9
93704.3
93664.9
93615.4
93560.5
93498.9
93429.8
93352.6
93267.5
93171.9
93064.1
92939.6
92803.8
92641.6
92447.8
92222.3
91954.8
91655.8
91317.9
90944.9
90562
90151.5
89720.2
89296.9
88891.2
88497.2
88128.4
87819.6
87535.9
87263.4
87000.1
86751
86541
86379.8
86226.6
86068.9
85920.7
85755.4
85638
85575
85576
85646.4
85712.4
85821
86223.9
86574.6
100915
100925
100931
100938
100945
100951
100959
100968
100977
100984
100988
100991
100989
100985
100980
100974
100965
100956
100946
100935
100921
100905
100885
100863
100841
100817
100791
100762
100732
100700
100668
100636
100606
100575
100546
100520
100495
100473
100453
100436
100420
100408
100399
100394
100391
100393
100397
100402
100410
100420
100429
100438
100446
100452
100454
100452
100446
100434
100417
100394
100364
100327
100284
100233
100174
100107
100031
99946
99853.7
99752.9
99644.1
99527.2
99400.2
99263.6
99120.5
98969.2
98809.5
98642.7
98469.4
98291.5
98107.7
97915.3
97715.6
97509.5
97300.7
97094.7
96893.7
96697
96504.7
96316.9
96133
95954.8
95783.4
95620.6
95466.1
95322.6
95189.8
95069.8
94961.9
94865
94778.3
94702.2
94635.4
94578.2
94527.4
94482.2
94441.8
94402.4
94364.4
94327.7
94290.6
94251.6
94213
94170.3
94127.2
94083.1
94039.5
93994.7
93954.5
93917
93883.9
93857.8
93837.1
93825.7
93819.9
93820.6
93825.4
93833.1
93842.2
93850.7
93856.9
93858.6
93854.7
93842.5
93821.8
93791.1
93750.6
93701.5
93646.7
93584.6
93513.3
93435.4
93349.3
93254.1
93146.7
93025.4
92891.4
92731.7
92541.6
92322.9
92064.4
91774.6
91447.8
91084.7
90711.5
90312.5
89897.9
89484.9
89089.8
88707.6
88349.7
88053.5
87789.3
87540.6
87303.2
87081.7
86893.2
86752.7
86605.9
86470.8
86322.1
86159.3
86049.5
86006.5
86011.8
86094.3
86180.7
86305.5
86709
87049.7
100582
100595
100604
100618
100635
100652
100669
100686
100704
100723
100740
100755
100769
100778
100786
100791
100795
100798
100799
100800
100799
100795
100788
100780
100773
100764
100753
100740
100726
100711
100696
100682
100668
100655
100643
100633
100625
100619
100615
100614
100614
100618
100623
100631
100643
100657
100673
100692
100712
100731
100750
100770
100788
100802
100810
100814
100813
100807
100793
100773
100746
100712
100671
100621
100563
100496
100420
100336
100241
100138
100026
99906.4
99778.7
99642.5
99499.5
99349
99190.1
99023.3
98849.3
98671.1
98489
98300.6
98104.6
97900.5
97691.4
97483.6
97279.9
97082.3
96888.9
96701
96516.9
96338.5
96166.6
96002.3
95847
95702.2
95568.7
95447.7
95338.5
95239.6
95150.7
95072.1
95003
94941.9
94886.1
94835.1
94788
94740.8
94694.7
94650.3
94602.7
94553.8
94502.4
94447.1
94390.8
94331.7
94274
94215.7
94162.9
94111.3
94067.6
94028.9
93999.8
93978.6
93966.5
93960.6
93961.4
93965.8
93972.8
93979.7
93985
93986
93981.9
93968.8
93947.2
93916.8
93877.3
93832.7
93773.6
93709.4
93635
93555.7
93469
93373.4
93265.2
93147.6
93011.2
92853
92669.1
92457.3
92210.9
91927.8
91610
91258.8
90897
90508.8
90108.8
89709.5
89328
88958.5
88612.1
88328.2
88084.9
87859.6
87648.2
87456.8
87294.6
87171.3
87028.5
86920.5
86768.6
86613.8
86513.1
86484.4
86491.3
86577.7
86675.4
86852.5
87194.8
87555.6
100268
100283
100294
100316
100344
100372
100401
100429
100458
100486
100513
100538
100562
100583
100602
100619
100634
100647
100660
100672
100681
100689
100695
100700
100706
100711
100714
100715
100715
100715
100716
100718
100720
100723
100727