/*--------------------------------*- C++ -*----------------------------------*\
| =========                 |                                                 |
| \\      /  F ield         | OpenFOAM: The Open Source CFD Toolbox           |
|  \\    /   O peration     | Version:  dev                                   |
|   \\  /    A nd           | Web:      http://www.openfoam.org               |
|    \\/     M anipulation  |                                                 |
\*---------------------------------------------------------------------------*/
FoamFile
{
    version     2.0;
    format      ascii;
    class       volScalarField;
    object      p_0;
    location    "9.123";
}
// * * * * * * * * * * * * * * * * * * * * * * * * * * * * * * * * * * * * * //

dimensions      [1 -1 -2 0 0 0 0];

internalField   nonuniform List<scalar> 
12225
(
91762.9
91792.8
91834.2
91885.5
91933
92002.9
92071.9
92181.1
92287.1
92450.3
92609.7
92845.1
93050.5
93359
93629
93979.8
94271.1
94327.9
91769.3
91802.4
91843.9
91895.5
91942
92013.5
92080.5
92192.4
92294.4
92461.9
92614.4
92858.3
93054.2
93369.1
93633.4
93991.2
94325.4
94683.2
91788.7
91824.9
91865.5
91916.9
91963.9
92034.3
92099.7
92217.6
92310.8
92487.4
92627
92887
93062.9
93395.3
93642.3
94005.3
94359.7
94804.4
91820.9
91860.3
91901.3
91952.9
92000.4
92069.7
92137.2
92249
92349.2
92516.5
92658.6
92916.4
93086
93432
93657.3
94020.2
94377.4
94793.8
91868.8
91913.7
91955.2
92007.5
92055.5
92123.9
92193.4
92299.5
92406.1
92562.6
92715.7
92946.8
93138.5
93446.1
93696.2
94024.1
94368.9
94771.7
91939.9
91990.1
92032
92085
92133.7
92201.3
92272.3
92374
92483.8
92632.5
92791.7
93001.9
93213.9
93473.2
93762.6
94037.1
94408.5
94754.8
92043.6
92094.8
92138
92190.7
92241.5
92307.6
92380.9
92478
92591.2
92732.4
92896.3
93089
93311.6
93541.2
93847.1
94090.4
94468.4
94750.9
92163
92213.5
92258.6
92310.6
92363.8
92428.4
92504
92598
92712.7
92849.2
93013.7
93195.9
93418.4
93636.4
93929.1
94160
94508.2
94757.8
92292.1
92341.4
92388.7
92439.9
92495.7
92559
92636.5
92728.4
92843.5
92976.4
93139
93314.1
93530
93741.8
94007.1
94244.2
94536.4
94794.2
92461.4
92510.7
92560.6
92611.2
92669.6
92732.6
92811.3
92902
93016
93145.5
93303.5
93473.3
93677.7
93884.5
94127.7
94360.6
94626.2
94863.8
92685.6
92735.1
92786.9
92837.8
92898.2
92961.9
93041.2
93131.3
93242.8
93369.5
93520.1
93685.1
93875
94075.8
94295.6
94520.2
94754
94978.9
92987.3
93031.2
93083.6
93135.9
93197.7
93262.8
93342.1
93432.2
93541.4
93663.9
93807.4
93964.1
94141.8
94330.2
94532.1
94739.9
94951.9
95160.5
93381.6
93418.2
93470.6
93525.7
93588.5
93656.4
93735.3
93825.5
93930.6
94050.1
94185.5
94334.4
94497.9
94673
94857.2
95047.4
95239.5
95429.8
93872.2
93917.4
93971.4
94030
94095
94165.7
94245.3
94334.8
94436.5
94551.3
94679.5
94819.3
94970.2
95130.6
95298.1
95470.1
95643.8
95816.5
94515.4
94558.2
94611.9
94673.9
94742.2
94816.7
94898.1
94987.9
95087.1
95197
95317.7
95448.9
95588
95734.3
95886.1
96041.2
96197.6
96353.6
95324.3
95362.6
95416.4
95481.2
95553.6
95632.7
95718.1
95810.1
95909
96015.6
96129.9
96252.1
96381.3
96515.2
96653
96793.3
96934.3
97074.9
96287.7
96339.1
96396.3
96464.3
96541.7
96626.9
96718.5
96815.7
96918.1
97025.5
97137.5
97254.1
97374.7
97498.5
97624.9
97752.7
97881
98008.6
97347.7
97397.6
97457.3
97529.5
97613.2
97706.2
97806.3
97911.9
98021.5
98134.3
98249.6
98366.6
98484.8
98603.7
98722.6
98842.1
98961.8
99080.2
98311.7
98356.1
98416.5
98492.7
98583.1
98684.9
98795.1
98911
99030.5
99152.1
99274.7
99397.5
99519.6
99640.1
99758.6
99874.7
99989.2
100102
99096.4
99139.8
99199.8
99279.2
99376
99486.4
99606.5
99732.9
99863
99994.5
100126
100257
100385
100511
100633
100752
100865
100976
99734.4
99764.3
99821.3
99902.9
100005
100123
100253
100389
100529
100670
100811
100950
101085
101217
101345
101467
101584
101695
100226
100249
100303
100386
100493
100618
100755
100900
101049
101199
101348
101494
101636
101774
101906
102033
102153
102268
100602
100618
100669
100753
100863
100993
101137
101289
101445
101602
101758
101910
102058
102201
102337
102468
102592
102709
100883
100892
100940
101025
101138
101272
101421
101578
101740
101903
102064
102221
102374
102520
102661
102794
102921
103040
101092
101091
101137
101223
101338
101475
101627
101789
101955
102122
102287
102448
102604
102754
102896
103032
103161
103282
101233
101231
101276
101362
101479
101618
101773
101937
102106
102276
102444
102608
102766
102918
103063
103201
103331
103453
101332
101327
101371
101456
101574
101715
101871
102038
102209
102381
102551
102716
102876
103030
103176
103315
103446
103569
101397
101388
101431
101516
101634
101776
101934
102102
102274
102447
102618
102785
102946
103101
103248
103387
103519
103643
101437
101425
101465
101550
101669
101811
101969
102138
102311
102485
102657
102824
102986
103141
103288
103429
103561
103685
101455
101442
101481
101566
101684
101826
101984
102153
102328
102501
102673
102841
103003
103158
103306
103446
103578
103703
106179
106171
106154
106128
106093
106050
105999
105941
105876
105805
105726
105640
105547
105445
105337
105220
105096
104965
104827
104682
104531
104374
104212
104045
103874
103698
103520
103339
103155
102970
102785
102598
102412
102225
102040
101855
101671
101487
101306
101127
100951
100775
100601
100428
100256
100087
99918.7
99752.5
99588.3
99426.6
99265.9
99106.2
98948.4
98792.3
98637.1
98484.8
98332.3
98176
98017.8
97857
97685.6
97507.1
97330.6
97149.5
96958.4
96753.7
96536.5
96307.8
96067.7
95816.6
95554
95279.6
94993.9
94697.5
94389.2
94069.3
93738.8
93398.5
93049.2
92692.4
92329.4
91962.2
91592.9
91223.7
90856.7
90494.5
90139.6
89794.6
89461.6
89143
88841.1
88557.9
88295.2
88054.7
87838.3
87647
87481.9
87344.3
87234.3
87152.9
87100.4
87076.9
87082.6
87117.5
87181.6
87274.7
87396.3
87546.2
87723.8
87928.1
88158
88412.9
88691.6
88992.1
89312.6
89650.6
90006.5
90374
90749.4
91129.1
91507.9
91880.2
92239.2
92578.3
92898.2
93197.4
93476.5
93732.5
93964.5
94175.3
94361.9
94519.7
94653.9
94763.1
94832.5
94899
94931.5
94937.5
94926.9
94895
94842.2
94770
94677.9
94561.9
94421.4
94252.4
94049.2
93807.9
93525
93200.5
92835.6
92432.4
91996.7
91535.5
91056.1
90567.5
90079.4
89593.8
89114.8
88640.1
88172.3
87706.6
87239.1
86764.1
86278.3
85788.2
85308.8
84801.3
84276.7
83838.7
83394.5
82952.2
82528.4
82153.7
81855.2
81631.8
81464.2
81357.8
81320
81373.8
106146
106138
106121
106095
106060
106016
105965
105908
105844
105773
105695
105611
105518
105418
105310
105194
105071
104941
104803
104659
104508
104352
104190
104023
103852
103677
103499
103318
103135
102950
102765
102579
102392
102206
102021
101837
101653
101472
101291
101114
100939
100766
100593
100420
100249
100080
99913.4
99748.4
99585.3
99424.4
99265.2
99107
98952.1
98794.7
98640
98490.1
98342.1
98187.4
98030.1
97877.4
97718.6
97542.6
97354.9
97166.9
96972.8
96768.3
96553.4
96327.3
96089.6
95840.7
95580.4
95309
95026.3
94732.2
94426.5
94109.5
93781.8
93444.1
93097.6
92743.5
92383.3
92018.8
91652.1
91285.7
90921.6
90562.1
90209.7
89867.1
89536.5
89220.1
88920.3
88639
88377.9
88138.7
87923.6
87733.4
87568.8
87431.9
87322
87240.6
87187.8
87163.6
87168.3
87202.1
87264.7
87356
87475.5
87622.9
87797.6
87998.7
88224.9
88476.3
88751
89047.5
89363.7
89696.6
90046.8
90409.4
90780.3
91155.8
91530.7
91899.6
92254.2
92588.2
92902.9
93197.4
93471.2
93724.4
93953.8
94163.4
94348.2
94506
94635.5
94747.8
94810.9
94882.7
94911.6
94916.2
94905
94872.1
94817.5
94744
94651.6
94535.1
94395.1
94227
94022.5
93781.2
93499.8
93176.3
92812.1
92410.4
91976.2
91515.2
91036
90549
90062.5
89579.4
89101.4
88629.2
88163.4
87699.7
87233.6
86760.3
86274.5
85787
85309.6
84793
84278.1
83847.7
83414.9
82971.8
82546.1
82169.6
81877.7
81660.4
81493.1
81387.2
81348.4
81400.8
106078
106070
106053
106027
105992
105949
105899
105844
105782
105713
105638
105554
105464
105365
105258
105144
105022
104893
104757
104613
104464
104308
104147
103981
103811
103636
103458
103278
103096
102912
102726
102541
102356
102170
101986
101803
101621
101441
101263
101087
100914
100743
100573
100406
100239
100070
99903.4
99740.2
99578.2
99418.7
99258.6
99099.3
98942.1
98791.7
98644.8
98501.2
98358.9
98212.6
98057.8
97897.4
97734.1
97563.5
97383.6
97196.5
97002.3
96798.9
96590.6
96368.8
96135
95890.3
95634.8
95368.2
95090.2
94800.5
94499.4
94187.1
93864.2
93531.4
93190
92841
92486.1
92127
91765.7
91404.7
91046
90691.9
90344.7
90007
89681.1
89369.2
89073.4
88796.2
88538.9
88302.9
88090.4
87902.9
87740.4
87605.1
87496.7
87416.1
87363.7
87339.4
87343.3
87375.5
87435.8
87524.1
87639.7
87782.4
87951.5
88146
88365
88608.6
88874.6
89162.6
89468.9
89792
90131.2
90484.1
90846
91210.3
91574
91934.8
92282
92607.2
92911.8
93197.2
93463
93710.3
93934.6
94141.3
94320.8
94482.8
94598.9
94717.3
94779.1
94838
94868.5
94871.4
94858.9
94825.3
94770.3
94695.8
94601.6
94484.1
94344.7
94178.4
93971.7
93730.3
93449.6
93127.8
92766.3
92366.9
91934.6
91475.3
90998.7
90514.4
90029.9
89548.7
89073.4
88605.7
88144.3
87685
87222
86749.1
86265.4
85783
85304.9
84790
84289.3
83862.1
83441.9
83008.3
82582
82207
81923
81714.8
81555.8
81449.7
81409.1
81459.8
105973
105964
105947
105922
105888
105848
105801
105749
105690
105624
105551
105470
105382
105285
105181
105068
104948
104820
104685
104543
104395
104241
104081
103916
103747
103573
103397
103217
103036
102853
102669
102485
102301
102118
101935
101755
101575
101398
101222
101049
100878
100709
100544
100381
100220
100058
99898
99738.3
99578.1
99423.7
99268.6
99111.3
98956.7
98807.3
98662.9
98521
98378.7
98233.4
98083.5
97927.9
97767.1
97599.7
97424.9
97242.7
97052.8
96854.4
96649.3
96436.4
96208.5
95969.4
95719.5
95458.7
95186.1
94902.3
94607.1
94301
93984.6
93658.5
93323.8
92981.7
92633.8
92281.9
91928.1
91574.3
91222.8
90875.8
90535.6
90204.5
89884.9
89578.9
89288.5
89016
88763.3
88531.5
88322.4
88137.6
87977.9
87844.6
87738.3
87659.2
87607.7
87584.2
87588.2
87619.8
87678.3
87763.5
87875.1
88012.4
88174.7
88361.5
88571.7
88806.3
89060.7
89334.6
89626.2
89935
90259.5
90597.1
90943.9
91293.6
91640.6
91985.7
92319.2
92632
92922.9
93197.2
93452.4
93693
93907
94109.5
94278.2
94450.3
94549.6
94662.9
94726.3
94777.7
94802.9
94804.2
94790.3
94753.5
94699.5
94623.8
94527.7
94409.3
94267.4
94100.4
93896.2
93656.2
93378.3
93060.3
92700.7
92304.4
91876.5
91420.5
90945.8
90462.8
89981.6
89504.9
89034
88571
88115.1
87661.7
87203.5
86732.6
86252.2
85777.3
85305.2
84794.9
84310.3
83884.9
83473.9
83054.9
82642.6
82282.7
81985.3
81781.1
81639.7
81541.9
81503.7
81554.4
105828
105819
105802
105777
105746
105709
105667
105619
105565
105503
105433
105355
105269
105175
105072
104961
104843
104718
104585
104446
104300
104148
103990
103827
103660
103488
103313
103135
102956
102775
102593
102411
102229
102048
101869
101690
101514
101341
101170
101000
100833
100670
100509
100350
100196
100044
99891.1
99738.4
99589.1
99437.9
99286
99135
98985.3
98838.5
98695
98552.9
98411.3
98268.1
98121.5
97970.8
97815.3
97653.6
97485.2
97309.4
97126
96934.1
96733.6
96528.9
96308.2
96076.9
95834.4
95580.8
95315.9
95039.6
94752.3
94454.3
94146.2
93828.7
93502.7
93169.4
92830.5
92487.3
92142.5
91797.6
91455.1
91117
90785.2
90462.2
90150.5
89851.7
89568.1
89301.3
89053.5
88825.9
88620.1
88438
88280.2
88148.3
88042.7
87964
87912.6
87888.5
87891.8
87921.9
87978.4
88060
88166.8
88298.5
88453.9
88632.4
88833.7
89058.1
89298.4
89556.2
89831.8
90124.3
90431
90748.4
91072
91400.9
91729.9
92055.3
92367.8
92663.1
92938.5
93199.6
93441.5
93673.3
93871.8
94070.7
94233
94386.2
94492.9
94590.6
94654.2
94698.6
94721.6
94718.8
94703.7
94662.7
94605.7
94528.3
94430.5
94309.7
94161.9
93989.6
93792.5
93557.8
93286.8
92972
92613.6
92220.7
91799.4
91349
90877.2
90398.1
89922.7
89450.5
88982.2
88522.7
88073.3
87628.3
87177.5
86712.2
86237.3
85770.1
85307.1
84812.1
84333.7
83922.1
83517.6
83112.2
82722.9
82362.5
82066.1
81862.4
81742.8
81659.6
81630.6
81686.8
105641
105633
105617
105594
105566
105534
105496
105453
105402
105344
105278
105203
105120
105028
104928
104820
104704
104581
104451
104314
104171
104021
103867
103708
103544
103376
103204
103030
102854
102676
102498
102318
102140
101962
101786
101612
101441
101271
101105
100943
100782
100623
100466
100314
100168
100023
99878
99733.2
99589.6
99446.7
99303.4
99159.1
99015.6
98874
98734
98595.3
98456.9
98317.3
98175.6
98030.7
97881.9
97727.3
97566.4
97398.6
97223.1
97039.1
96846.3
96644.8
96436.2
96214.6
95980.9
95736.3
95480.9
95214.2
94936.9
94648.9
94350.8
94043.7
93728.2
93405.5
93077.2
92744
92409.2
92074.5
91741.9
91413.5
91091.5
90777.5
90474.7
90184.9
89909.4
89650
89408.8
89186.7
88985
88806.2
88650.4
88519.6
88413.9
88334.7
88281.8
88255.5
88255.9
88282.4
88334.5
88411.2
88511.6
88635.7
88783.1
88951.6
89139.8
89352.3
89578.4
89822
90081.3
90354.9
90637.9
90932.1
91231.3
91533.9
91838.4
92142.6
92430.5
92705.7
92962.3
93207
93433.6
93649.1
93839.1
94017.9
94174.2
94313.1
94417.8
94504.4
94564.6
94602.7
94620.4
94615.6
94599.7
94553.1
94494.6
94415.5
94315.6
94193.8
94046.7
93870.5
93673.1
93442.8
93175.8
92864
92506.4
92117.2
91705.6
91261.8
90792.7
90317.5
89849.7
89384.3
88919.3
88462.2
88019.5
87584.6
87143.5
86687.6
86220.2
85762.8
85310.7
84838.6
84375.5
83971.4
83576.6
83189.6
82822.7
82469.8
82187.5
81986.3
81873.7
81805.5
81789.6
81857.6
105409
105402
105387
105368
105344
105316
105282
105242
105195
105140
105077
105006
104927
104838
104741
104635
104521
104400
104272
104139
104001
103857
103709
103556
103399
103237
103071
102902
102731
102558
102384
102209
102035
101862
101690
101521
101355
101192
101032
100874
100720
100570
100422
100277
100135
99996.4
99861.2
99726.9
99591.4
99455.6
99320.1
99184.2
99048.8
98914.5
98781.1
98648.5
98516
98382.7
98247.5
98109.6
97968.3
97822.1
97670
97511.2
97344.9
97170.4
96987.1
96794.5
96593.2
96379.7
96159.9
95927.4
95682.6
95427.3
95162
94886.5
94601
94306.2
94003
93692.8
93377.2
93056
92732.1
92408.3
92086.3
91768
91455.7
91150.3
90855.5
90574.4
90306.8
90055.2
89821.4
89606
89409.2
89234.8
89082.9
88953.8
88848.4
88768.9
88714.2
88684.9
88681
88702.2
88747.9
88816.1
88909.1
89022.3
89159.3
89316.7
89491.9
89686.3
89897.1
90123.7
90363.1
90614.5
90875.2
91144.2
91417.2
91692.8
91970
92243.5
92506.9
92758.2
92994
93218.4
93427.2
93625.3
93802.3
93963.7
94107.6
94233.1
94329.6
94406.1
94459.7
94492.2
94503.9
94495
94470.9
94425.8
94365.3
94283.3
94181.5
94059.5
93916.1
93744.1
93545
93312.6
93047.9
92738.9
92384
92001.6
91598.5
91161.4
90694.7
90223.9
89764.5
89307.4
88846.4
88392.4
87956.9
87532.9
87103.5
86659.9
86203.7
85758.6
85319.9
84872.1
84432.6
84034.3
83655.8
83287.1
82937.6
82614.1
82347.5
82145.9
82032.9
81978.7
81980.4
82067
105125
105119
105107
105091
105071
105046
105016
104979
104936
104885
104825
104756
104677
104589
104493
104391
104283
104169
104051
103927
103798
103664
103524
103378
103228
103072
102913
102750
102585
102418
102250
102082
101914
101748
101582
101419
101259
101102
100949
100799
100654
100511
100370
100233
100099
99970.9
99845.6
99719.7
99592.1
99465.2
99339.2
99213.1
99087.7
98962.8
98838.3
98714.4
98590.4
98465.4
98338.9
98209.8
98077.2
97940.1
97797.7
97649.1
97493.3
97329.5
97157.1
96975.2
96783.7
96581.5
96369.6
96152.5
95919.8
95676.8
95424.2
95162.5
94891.6
94611.4
94322.5
94026.8
93726.1
93420.1
93110
92798.8
92489.2
92182.6
91881.3
91586.3
91298.9
91024.9
90764.7
90518
90290.1
90081.3
89889.3
89717.7
89570.8
89444.8
89340.4
89260.1
89204.7
89172.2
89164
89178.3
89216.9
89273.7
89357.2
89459.1
89582.2
89724.9
89884.9
90061.4
90252.5
90458.2
90675.1
90901.7
91136.6
91379.3
91625.5
91873.3
92120.5
92363.2
92597.3
92822.2
93034.6
93238.1
93427.1
93604.4
93765.1
93907.1
94036.8
94147.4
94232.1
94299.4
94344.8
94369.3
94374.6
94361.6
94328.2
94284.9
94223.4
94139.6
94035.2
93911.2
93766.9
93599.2
93402.2
93171
92907.7
92604
92254.4
91875.3
91477.3
91047.1
90586.6
90121.5
89668.8
89219.3
88764.1
88315
87887
87474.9
87059.1
86630.5
86190
85758.9
85338.6
84917.5
84503.3
84118.9
83759.2
83408.9
83078
82789.4
82528.3
82326
82215.2
82177.2
82200.1
82316.1
104783
104779
104770
104756
104739
104718
104693
104660
104619
104570
104509
104439
104362
104280
104193
104102
104005
103902
103793
103678
103556
103429
103296
103158
103016
102869
102720
102566
102410
102253
102094
101935
101777
101617
101459
101304
101152
101005
100861
100720
100583
100449
100318
100191
100067
99948.2
99830.9
99714
99597
99480.8
99365.7
99251
99136.9
99023.1
98909.8
98796.6
98683
98568.4
98452.1
98333
98210.3
98083.3
97951.4
97814.1
97669.8
97518
97357.3
97186.7
97006.1
96815.8
96616.3
96408.7
96189.8
95960.1
95720.2
95471.8
95215.5
94950.6
94677.3
94397.4
94112.6
93823.3
93529.4
93233.8
92938.5
92646
92357.6
92076.1
91800.2
91533.8
91283.1
91042.2
90817.3
90613.6
90426.9
90255.7
90111.9
89989.4
89885.7
89803.5
89748.1
89711.3
89697.6
89705.1
89735.2
89783.4
89854.4
89943.3
90051.2
90175.6
90316.6
90473.6
90642.2
90824.1
91015.3
91216.4
91423.1
91637.2
91851.8
92070.8
92286.7
92499.9
92703.7
92901.3
93087.4
93267.5
93433.2
93586.4
93728
93851.3
93965.1
94060.5
94131.4
94187.9
94225.1
94242
94240.4
94221.2
94185.3
94137.5
94073.2
93986.1
93878.2
93752.2
93606.9
93438.2
93242.4
93016.5
92756.4
92457.7
92115.3
91741.4
91344
90921.1
90468.6
90009.8
89562.8
89120.1
88672.1
88229.7
87810.9
87412.5
87011.8
86600.4
86178.4
85765.1
85367.3
84973.8
84584.7
84220.9
83880.6
83556.1
83248.1
82973.1
82726.5
82533.2
82424.2
82403
82448.7
82580.5
104379
104378
104371
104360
104347
104329
104306
104275
104235
104184
104125
104062
103996
103925
103848
103765
103675
103579
103477
103369
103257
103140
103019
102894
102765
102631
102493
102352
102209
102063
101916
101768
101619
101471
101324
101180
101040
100903
100769
100638
100512
100388
100268
100151
100038
99929.2
99821.9
99717
99612.2
99508
99405.1
99303
99201.4
99100.3
98999.6
98898.7
98797.1
98694.2
98589.2
98481.3
98369.8
98254.2
98133.9
98008.2
97876.2
97737.1
97588.7
97430.4
97261.7
97082.8
96896.6
96699.8
96493.9
96277.5
96050.8
95815.1
95572.1
95321.5
95063
94798.6
94529.8
94257.3
93980.5
93701.8
93423
93146.5
92872.8
92605
92343.6
92087.7
91846.8
91618.2
91397.9
91199.1
91016.7
90846.6
90706.6
90586.1
90481.8
90398.7
90338.4
90297.8
90277.9
90278
90299.3
90337.1
90396.1
90469.7
90561.4
90666.9
90786.1
90921.5
91064.4
91220
91383.6
91556
91732.5
91916.6
92097.5
92284.8
92468
92649.9
92822.2
92990.8
93150.2
93301.6
93443.1
93574.5
93696.5
93800.6
93895.4
93976.1
94035.4
94079.5
94106.4
94114.4
94105.5
94080.7
94037.1
93979.7
93907.6
93822.1
93713.5
93586.1
93440.5
93272.7
93077.3
92854.9
92597.4
92301.3
91968.5
91598.5
91202.5
90784.5
90340.3
89888.8
89448
89012.6
88572.5
88138.4
87731.5
87348.7
86964.7
86572.4
86171.9
85778.8
85406.1
85041.6
84681.4
84342.9
84017.9
83722.8
83432.5
83172.3
82942.7
82768.3
82664.6
82657.4
82732.4
82883.9
103913
103915
103910
103902
103891
103876
103854
103823
103784
103738
103689
103635
103576
103509
103438
103361
103280
103195
103105
103012
102913
102811
102704
102593
102478
102358
102235
102108
101979
101847
101714
101580
101445
101311
101179
101048
100920
100795
100673
100555
100440
100328
100221
100117
100017
99919.5
99825
99733.7
99642.2
99551
99461.5
99373.2
99285.8
99198.8
99111.5
99023.9
98935.4
98845.2
98752.7
98657.1
98557.8
98454.5
98346.5
98233.3
98113.8
97987.3
97852.2
97707.2
97551.2
97384.7
97211.3
97026.1
96832.3
96628.9
96415.8
96193.4
95963.6
95726.5
95481.7
95230.7
94976.2
94719.1
94459.2
94197.3
93935.6
93675.6
93418.8
93165.1
92918.5
92676.5
92444.8
92228.2
92018.7
91824.4
91648.7
91486.8
91344.2
91225
91121.3
91036.1
90972.5
90926.2
90899.7
90891.3
90903.1
90929.2
90974
91032.3
91106
91192.9
91289.6
91400.8
91518.3
91644
91779.5
91919.9
92064.2
92215
92363.4
92515
92665.6
92814.1
92954.5
93090.9
93222.4
93345.4
93461.7
93570.6
93671.7
93757.9
93833.8
93897.4
93944
93975.2
93992.2
93991.2
93971.5
93938.4
93888.6
93824.9
93748.9
93654.4
93543.8
93415.2
93267.9
93101.7
92907.8
92688.4
92433.2
92141.1
91811.7
91445.5
91054
90637.8
90202.4
89759.1
89325.3
88898.3
88468
88044.7
87651.8
87285.8
86920.7
86550.8
86173.8
85802.6
85456.4
85124.7
84799.6
84486.2
84177.1
83905.2
83636.3
83388.7
83178
83023.6
82935.5
82945.8
83043.1
83214.7
103388
103391
103388
103382
103373
103359
103339
103311
103278
103240
103198
103148
103092
103033
102972
102907
102839
102768
102694
102615
102532
102444
102352
102256
102157
102054
101947
101837
101724
101609
101493
101375
101257
101140
101023
100908
100795
100684
100577
100473
100373
100276
100183
100093
100007
99922.9
99843
99766.3
99689.2
99612.9
99538.4
99465.3
99393.1
99321
99248.4
99175.2
99100.6
99024
98944.7
98862.1
98775.7
98685.3
98590.3
98490.1
98383.3
98269.9
98148.5
98017.3
97874.5
97721.2
97559.1
97387.2
97206.3
97016.8
96818
96609.6
96393
96169.5
95938.4
95700.5
95458.3
95214.5
94968.8
94722.1
94476.1
94231.9
93990.3
93751.8
93517.8
93290.8
93070.8
92865.2
92664.9
92478.3
92310.2
92155.5
92014.9
91895.6
91792.9
91705.1
91638.5
91587.8
91553.8
91537.3
91538.6
91552.1
91581
91625.8
91679.6
91747.1
91822.9
91906.9
92000.1
92095.2
92200.8
92308
92419.8
92533.3
92650.5
92763.8
92880.8
92994.6
93103.8
93208
93309.1
93404.2
93495.2
93580
93659.1
93727.2
93784.4
93830.8
93863.6
93880.9
93885.8
93874.6
93845.4
93803.4
93745.2
93674
93590.4
93489.4
93374.4
93242.1
93096
92928.5
92733.5
92513.9
92260.4
91975.1
91650
91288.2
90898.3
90486.1
90058.9
89623.4
89196.5
88779.1
88361.1
87952.3
87574.6
87226.6
86883.1
86537.9
86186.5
85840.4
85522.4
85224.3
84934.3
84652
84361.6
84107.7
83859.3
83625.9
83438.4
83304.2
83229.9
83262.8
83406.1
83606.2
102808
102812
102810
102805
102797
102785
102769
102748
102722
102690
102653
102609
102564
102517
102467
102416
102364
102309
102250
102186
102118
102046
101969
101891
101809
101724
101636
101545
101451
101354
101256
101156
101056
100957
100859
100762
100667
100574
100484
100397
100313
100233
100156
100082
100011
99942.1
99878.4
99817.6
99756.1
99696
99638.5
99582.3
99526.5
99470.2
99413
99354.6
99294.6
99232.3
99166.9
99097.8
99024.9
98947.7
98865.6
98778.2
98684.7
98584.6
98476.7
98359.6
98230.2
98091.5
97941.5
97782.5
97615.8
97440.7
97257.1
97064.1
96861.2
96650.4
96432.2
96206.6
95976.1
95743.6
95509.9
95276.2
95043.6
94814.1
94586.5
94362.5
94141.8
93926.4
93717.5
93522.7
93332.8
93153.9
92989.8
92841.3
92706.1
92586.7
92484.9
92397.1
92326.9
92273.2
92232.8
92207.4
92198.2
92199.6
92212.4
92243
92278.3
92324.5
92379.7
92438
92504.2
92570.2
92644.9
92719.1
92797.4
92874.4
92958.1
93034.3
93115.7
93194
93272
93345.4
93416.7
93483.1
93547.6
93607.6
93663.8
93712.4
93751.5
93780.9
93798.4
93801.9
93794
93769.8
93730.5
93679
93608.3
93530
93436.3
93332.3
93211
93075.5
92928.5
92755.1
92559.5
92341.1
92088.3
91804.9
91484.1
91123.7
90731.6
90326
89911.5
89486.3
89066.7
88659.4
88256.4
87864.1
87502.8
87173.4
86852.6
86534
86212
85894.6
85606.8
85340.7
85083.5
84834.4
84572.3
84332.6
84102.6
83884.3
83724.2
83615.9
83549.6
83598.5
83757.8
84043.8
102181
102186
102186
102183
102177
102168
102157
102143
102123
102100
102072
102040
102007
101973
101936
101898
101858
101815
101771
101723
101673
101618
101560
101499
101436
101371
101303
101232
101159
101083
101006
100928
100848
100769
100691
100615
100540
100467
100396
100328
100263
100201
100142
100086
100033
99981.7
99935.4
99891.4
99846.8
99804.6
99765
99726.1
99687.2
99647.7
99606.8
99564.1
99519.2
99471.6
99420.2
99365
99305.5
99241.3
99172.3
99097.7
99017
98929.9
98835.7
98733.7
98623
98496.8
98359.5
98212.6
98058.8
97897.6
97729
97551.5
97363.8
97166.5
96961.2
96747.3
96527.1
96303.7
96079.8
95855.9
95633.8
95415.6
95201.1
94989.8
94782.9
94580.7
94383.4
94196.1
94015.4
93844.4
93685.7
93540.8
93409.4
93291.1
93189.5
93102.7
93030.3
92972.7
92927.8
92895.2
92875.3
92866.4
92865.5
92878.5
92897.7
92922.4
92954.6
92989.3
93026.7
93065.4
93108.3
93151.3
93195
93238.1
93285.7
93326.9
93372.3
93415.1
93460.6
93503.4
93545.7
93585.2
93622.2
93656.7
93690
93718.2
93739.1
93751.5
93752.7
93741.2
93719.4
93682.9
93632.3
93568.3
93488.4
93399.1
93296.8
93185.1
93057.6
92919.7
92765.3
92585.2
92390.6
92172.9
91918.1
91630
91308.6
90949.3
90563.2
90163.4
89763.4
89351.3
88938.8
88541.5
88155.6
87782
87438.7
87130.3
86833.5
86543.3
86253.2
85967.9
85712.6
85479.7
85256
85037.1
84809
84580.8
84368.6
84169.9
84037.8
83962.4
83909.2
83959.3
84118.8
84496
101516
101523
101525
101525
101523
101520
101514
101507
101496
101483
101467
101448
101426
101404
101380
101354
101327
101300
101271
101241
101208
101173
101134
101093
101051
101007
100959
100910
100857
100803
100747
100691
100635
100579
100523
100469
100416
100364
100315
100268
100224
100182
100144
100108
100074
100044
100016
99989.4
99963.3
99940.8
99920.5
99899.7
99878.3
99855.7
99830.9
99804
99774.6
99741.7
99704.7
99663.3
99617.3
99566.4
99510.2
99448
99379.5
99304.7
99222.9
99133.5
99035.9
98928.5
98807.8
98674.7
98533.1
98384.7
98229
98065.1
97892.6
97710.4
97520
97320
97110.9
96895.9
96678.9
96461.9
96247.9
96038.7
95833.9
95632.6
95436.1
95244.5
95057.3
94878.7
94707.3
94543.7
94392
94250.8
94121.8
94005.4
93903.6
93816.3
93742.1
93680.1
93630.4
93592.4
93562.9
93544
93532.2
93527.8
93530.9
93535.7
93544.4
93555.4
93566.4
93578.5
93589.5
93602.6
93612.6
93623.1
93633.1
93642.1
93650.9
93660.3
93671.8
93683.9
93696.5
93710.3
93722.1
93732
93741.6
93749
93751
93745.7
93731.2
93704.4
93666.9
93617
93554.5
93479.2
93387.1
93287.4
93176.5
93055.1
92920.7
92777.1
92613.1
92426.8
92231.8
92011.8
91751
91454.1
91128
90773.3
90397.6
90008.2
89620
89218.7
88814.2
88429
88061.2
87709
87385.7
87101.5
86831.2
86571
86314.6
86064.6
85843.9
85647.4
85457.2
85267.5
85070.8
84855.8
84661.6
84489.9
84387
84349.9
84320.3
84362.7
84626.8
84972.1
100823
100834
100838
100842
100844
100846
100848
100850
100852
100851
100849
100844
100836
100826
100816
100805
100794
100782
100770
100758
100744
100728
100708
100687
100665
100641
100615
100587
100556
100523
100490
100456
100423
100391
100359
100329
100299
100271
100245
100221
100199
100179
100163
100148
100136
100127
100120
100114
100108
100107
100105
100102
100099
100094
100086
100075
100061
100043
100020
99992.7
99960.1
99922.1
99878.3
99828.1
99771.2
99707.4
99636.4
99558
99472
99378.3
99275
99159
99031.2
98895.2
98751.5
98599.2
98439.3
98271.5
98095.7
97912
97717.6
97514.2
97305.9
97093.7
96884.2
96681
96483.7
96290.9
96102.9
95919.1
95739.5
95566.3
95401.9
95245.3
95099.1
94963
94837.1
94723.7
94622.7
94534.5
94458.3
94392.4
94337.4
94293.6
94256.4
94227.6
94205.4
94186.3
94172
94158.2
94146
94133.2
94120.9
94106.8
94089
94071.8
94050.6
94027.8
94002.7
93979.4
93953.5
93931.2
93908.4
93890.1
93873.8
93861.3
93849.5
93837
93823.8
93809.7
93792.2
93768.7
93737.1
93695.1
93642.7
93577.8
93502.1
93415.2
93311
93200.2
93079.5
92947.4
92805.6
92651.5
92478.1
92285.2
92087.8
91857.8
91588.1
91285.3
90958.3
90613.2
90247.8
89866.1
89485.7
89094.9
88701.7
88330.4
87981.3
87650.9
87348.6
87090
86848.6
86620.3
86400.5
86189.1
86004.4
85847.1
85687.9
85531.1
85359.3
85160.6
84987.3
84851.2
84777.5
84779.6
84780
84823.9
85187.7
85511.3
100113
100126
100135
100145
100154
100162
100171
100183
100196
100210
100223
100234
100242
100248
100254
100258
100262
100267
100272
100276
100280
100281
100279
100277
100275
100273
100270
100263
100255
100247
100238
100229
100220
100213
100207
100201
100196
100193
100191
100190
100192
100195
100201
100210
100220
100233
100248
100264
100281
100299
100316
100333
100348
100361
100370
100375
100376
100373
100365
100351
100331
100305
100273
100235
100190
100137
100075
100006
99929.7
99844.9
99752.4
99651.4
99539.3
99417.2
99286
99145.5
98996.8
98840.6
98677.5
98508.6
98331.3
98143
97946.8
97743.2
97538.8
97339.5
97147.2
96960.4
96779.2
96601.8
96427.8
96259.9
96099.7
95947.6
95803.8
95671
95548.3
95437.8
95338.8
95250.6
95172.2
95103.5
95044.1
94994.7
94951.3
94913.4
94880.8
94849
94817.8
94787.6
94756.7
94722.6
94688.2
94648.3
94604.4
94557.3
94507.3
94451.8
94395.7
94339.2
94282.5
94227.8
94174.1
94126.3
94082
94042.6
94006.8
93973.1
93939.7
93904.7
93867.2
93825.2
93776.4
93718.3
93650.6
93571.3
93480.7
93377.4
93266.4
93143.7
93009.6
92866.4
92714.1
92549.8
92365.8
92168.8
91962.4
91716.9
91438.2
91133.4
90812.7
90473.8
90113.5
89735.3
89364.4
88984.7
88609.2
88252.1
87922.2
87613.1
87333.4
87100.5
86889
86695
86513.8
86344.3
86197.4
86079.7
85948.9
85829
85677
85499.8
85355.2
85260.9
85211.3
85248.7
85295.4
85378.8
85771.5
86094.5
99392.3
99409.5
99423.1
99440.3
99461.6
99481.9
99502.7
99524.3
99548
99573.2
99599.1
99625.1
99650.2
99673.4
99695.3
99716.5
99737.5
99758.5
99779.8
99801.3
99822.3
99842
99860.3
99878.3
99897.8
99917.8
99936.6
99953.2
99968.2
99982.8
99998.3
100015
100032
100050
100069
100089
100110
100132
100155
100180
100206
100234
100264
100295
100329
100364
100401
100440
100478
100516
100554
100591
100625
100656
100681
100702
100719
100730
100735
100734
100727
100714
100693
100666
100631
100589
100538
100478
100410
100333
100248
100155
100054
99943.4
99824.2
99696.1
99559.2
99414
99261.6
99104.4
98941.5
98769.4
98587.1
98395.8
98199.5
98005.8
97817.6
97635.7
97459.3
97286.9
97117.6
96954.3
96797.6
96648
96506.5
96374.9
96254.4
96145.8
96048
95959.3
95879.3
95808.4
95746.4
95692.3
95642.6
95596.7
95554.1
95510.2
95465.3
95421.5
95373.4
95321.1
95265
95201.7
95132.9
95057.7
94979.4
94894.8
94810.5
94722.9
94637.6
94552.2
94471.4
94394.9
94324.5
94258.9
94199.4
94143.4
94089.8
94035.9
93980.6
93920.6
93854.8
93779.9
93695.8
93601.6
93498.2
93380.6
93255
93119.5
92971.9
92816.9
92653.8
92478.2
92283.5
92083.1
91860.9
91603.2
91317.2
91010.3
90687.5
90349.6
89993.1
89623.5
89264.3
88898
88541.7
88201.1
87890.4
87602.3
87345.2
87138
86959.3
86799.9
86657.4
86532.1
86426.3
86345.6
86244.1
86162.2
86029.7
85881
85771.5
85714.3
85686.6
85758.2
85866.2
86016.9
86366.2
86716.1
98793.8
98810.6
98822.4
98850.5
98881.5
98914.4
98948.6
98983.9
99019.5
99056.2
99093.4
99130.9
99168.1
99204.4
99240.3
99275.8
99311.2
99346.8
99382.9
99419
99454.5
99489.7
99525
99561.6
99599.9
99637.6
99673.9
99708.1
99742.1
99777.1
99813.4
99851.2
99889.7
99928.8
99969.3
100012
100055
100100
100145
100191
100239
100289
100339
100391
100445
100500
100556
100614
100671
100727
100783
100838
100889
100934
100974
101008
101038
101061
101078
101088
101092
101088