/*--------------------------------*- C++ -*----------------------------------*\
| =========                 |                                                 |
| \\      /  F ield         | OpenFOAM: The Open Source CFD Toolbox           |
|  \\    /   O peration     | Version:  dev                                   |
|   \\  /    A nd           | Web:      http://www.openfoam.org               |
|    \\/     M anipulation  |                                                 |
\*---------------------------------------------------------------------------*/
FoamFile
{
    version     2.0;
    format      ascii;
    class       surfaceScalarField;
    object      phi;
    location    "9.123";
}
// * * * * * * * * * * * * * * * * * * * * * * * * * * * * * * * * * * * * * //

dimensions      [1 0 -1 0 0 0 0];

internalField   nonuniform List<scalar> 
24170
(
1.50952e-06
-1.38821e-07
2.15063e-07
-5.69714e-07
-6.20645e-07
-9.40029e-07
-1.213e-06
-1.08659e-06
-1.76803e-06
-1.02725e-06
-2.1269e-06
-1.12872e-06
-2.69437e-06
-8.27873e-07
-2.91039e-06
-1.09663e-06
-3.51813e-06
-6.25322e-07
-3.65301e-06
-1.02819e-06
-4.35049e-06
-3.89819e-07
-4.29051e-06
-1.08148e-06
-5.38787e-06
1.44886e-07
-5.01111e-06
-1.2713e-06
-6.46447e-06
6.34157e-07
-6.3014e-06
-9.47608e-07
-5.77333e-06
-1.22191e-06
3.52403e-06
-9.88831e-06
3.14703e-06
-1.55639e-06
2.0227e-06
-1.52334e-06
1.08605e-06
-1.99181e-06
2.07346e-07
-2.0894e-06
-4.11743e-07
-2.18688e-06
-1.12496e-06
-2.08836e-06
-1.58999e-06
-1.93804e-06
-2.07009e-06
-2.09548e-06
-2.57956e-06
-1.51254e-06
-2.87628e-06
-2.04332e-06
-3.41516e-06
-1.08517e-06
-3.51375e-06
-2.1355e-06
-4.24267e-06
-2.03211e-07
-4.0725e-06
-2.45769e-06
-5.22187e-06
8.64535e-07
-4.68738e-06
-2.35909e-06
-8.82194e-06
2.13148e-06
5.78235e-06
-1.17499e-05
3.93402e-06
-3.60518e-06
3.17691e-06
-3.05253e-06
2.45815e-06
-3.46222e-06
1.61104e-06
-3.30918e-06
9.35121e-07
-3.46749e-06
1.93451e-07
-3.18622e-06
-2.67554e-07
-3.21414e-06
-8.42174e-07
-3.1449e-06
-1.39513e-06
-2.50443e-06
-1.49997e-06
-3.38151e-06
-2.27717e-06
-1.67632e-06
-2.23309e-06
-3.44282e-06
-3.1752e-06
-4.62552e-07
-3.45459e-06
-3.28368e-06
-4.44659e-06
8.13373e-07
-5.0584e-06
-2.71552e-06
-7.80461e-06
3.99911e-06
6.77921e-06
-9.57234e-06
4.17792e-06
-5.55295e-06
3.88387e-06
-5.26589e-06
3.22937e-06
-5.21234e-06
2.72174e-06
-5.06373e-06
1.95094e-06
-4.83981e-06
1.66261e-06
-4.90905e-06
8.02192e-07
-4.25345e-06
7.27189e-07
-4.84759e-06
-1.76136e-07
-3.28569e-06
-3.50312e-07
-4.79367e-06
-1.32572e-06
-2.19769e-06
-1.49497e-06
-4.6596e-06
-2.52059e-06
-7.56439e-07
-3.00087e-06
-4.00169e-06
-5.01818e-06
1.6754e-06
-4.52434e-06
-4.27313e-06
-6.45548e-06
4.94819e-06
9.64938e-06
-1.0228e-05
4.16267e-06
-7.86953e-06
4.34045e-06
-8.19171e-06
3.53014e-06
-7.03514e-06
3.35602e-06
-7.36597e-06
2.39015e-06
-6.21643e-06
2.24921e-06
-6.96857e-06
1.26864e-06
-5.34779e-06
1.16617e-06
-6.69175e-06
9.23869e-08
-4.05036e-06
2.83855e-08
-6.46466e-06
-1.14105e-06
-2.65927e-06
-1.42356e-06
-5.90626e-06
-2.48456e-06
-1.14133e-06
-2.71451e-06
-5.09747e-06
-4.45868e-06
2.15708e-06
-4.4164e-06
-5.48272e-06
-4.92874e-06
4.36069e-06
8.88646e-06
-5.1872e-06
4.75225e-06
-9.96148e-06
4.5181e-06
-1.09559e-05
3.46877e-06
-8.85514e-06
3.30755e-06
-9.90891e-06
2.2705e-06
-7.73518e-06
2.09037e-06
-9.19009e-06
1.13325e-06
-6.65414e-06
9.09097e-07
-8.59291e-06
-2.13073e-08
-5.12606e-06
-2.80901e-07
-8.09544e-06
-1.20582e-06
-3.51215e-06
-1.53645e-06
-7.244e-06
-2.27163e-06
-1.98316e-06
-2.81532e-06
-6.01927e-06
-2.70639e-06
6.75407e-07
-4.63247e-06
-4.84339e-06
-4.79526e-06
3.31932e-06
4.46901e-06
-1.50035e-06
5.51618e-06
-1.23706e-05
4.97008e-06
-1.36652e-05
3.8639e-06
-1.08662e-05
3.54539e-06
-1.25205e-05
2.53639e-06
-9.50114e-06
2.218e-06
-1.14727e-05
1.34456e-06
-8.23646e-06
9.80671e-07
-1.05308e-05
3.23599e-07
-6.64574e-06
-2.34277e-07
-9.58021e-06
-6.28126e-07
-5.04708e-06
-1.38533e-06
-8.29247e-06
-1.5664e-06
-3.52298e-06
-2.53525e-06
-6.64635e-06
-2.15649e-06
-1.20834e-06
-4.32975e-06
-4.07406e-06
-2.96965e-06
6.57381e-07
2.31941e-06
-2.04568e-06
4.32531e-06
-1.43042e-05
3.8578e-06
-1.56925e-05
3.07955e-06
-1.24794e-05
2.68441e-06
-1.43692e-05
2.07229e-06
-1.10143e-05
1.70331e-06
-1.30943e-05
1.21794e-06
-9.63041e-06
7.53175e-07
-1.18278e-05
5.2067e-07
-8.0774e-06
-7.02642e-08
-1.05499e-05
-1.33152e-07
-6.45915e-06
-8.56024e-07
-8.94818e-06
-8.70332e-07
-4.83039e-06
-1.81761e-06
-6.92089e-06
-1.53049e-06
-2.65427e-06
-2.54925e-06
-4.13433e-06
-2.07049e-06
-8.24933e-07
1.15513e-06
-1.8539e-06
5.00512e-06
-1.66458e-05
4.43185e-06
-1.79716e-05
3.61576e-06
-1.43938e-05
3.03058e-06
-1.63498e-05
2.49746e-06
-1.2906e-05
1.9394e-06
-1.48099e-05
1.57437e-06
-1.14069e-05
9.38492e-07
-1.32033e-05
7.42204e-07
-9.77289e-06
1.33719e-08
-1.15993e-05
-1.93021e-08
-8.10326e-06
-8.68712e-07
-9.66969e-06
-8.93988e-07
-6.30999e-06
-1.90142e-06
-7.30774e-06
-1.60334e-06
-4.28064e-06
-2.47432e-06
-4.49115e-06
-2.2734e-06
-2.17973e-06
-3.46576e-07
-1.86333e-06
5.83993e-06
-1.93074e-05
4.96998e-06
-2.03407e-05
4.26963e-06
-1.67861e-05
3.51615e-06
-1.85066e-05
3.12199e-06
-1.52528e-05
2.37878e-06
-1.66388e-05
2.09155e-06
-1.35376e-05
1.28949e-06
-1.46734e-05
1.13494e-06
-1.17495e-05
2.49203e-07
-1.27198e-05
2.36595e-07
-9.97766e-06
-6.65086e-07
-1.05388e-05
-6.4339e-07
-8.02246e-06
-1.57931e-06
-7.9427e-06
-1.42933e-06
-5.93047e-06
-2.16152e-06
-5.14421e-06
-1.83949e-06
-3.81056e-06
-2.23908e-06
-1.187e-06
6.937e-06
-2.23211e-05
5.90733e-06
-2.29564e-05
5.26819e-06
-1.96111e-05
4.24301e-06
-2.07499e-05
3.75481e-06
-1.78244e-05
2.78591e-06
-1.85458e-05
2.39312e-06
-1.58395e-05
1.47768e-06
-1.62903e-05
1.20265e-06
-1.38446e-05
3.23168e-07
-1.40741e-05
9.5092e-08
-1.18463e-05
-7.04016e-07
-1.17134e-05
-8.23857e-07
-9.77367e-06
-1.48778e-06
-9.03149e-06
-1.55646e-06
-7.52445e-06
-1.84258e-06
-6.41054e-06
-1.80836e-06
-5.31091e-06
-4.10222e-06
-1.33783e-06
8.30178e-06
-2.53308e-05
6.88189e-06
-2.55713e-05
6.23948e-06
-2.27923e-05
4.91814e-06
-2.30377e-05
4.38683e-06
-2.06581e-05
3.24824e-06
-2.05693e-05
2.81427e-06
-1.83571e-05
1.77289e-06
-1.80191e-05
1.49323e-06
-1.61574e-05
5.28576e-07
-1.55489e-05
3.20366e-07
-1.39277e-05
-5.12792e-07
-1.3036e-05
-6.74262e-07
-1.16503e-05
-1.16469e-06
-1.04591e-05
-1.25906e-06
-9.24345e-06
-1.34079e-06
-8.03608e-06
-1.26731e-06
-6.99715e-06
-5.93833e-06
-9.61409e-07
9.58017e-06
-2.88049e-05
8.09559e-06
-2.84592e-05
7.17414e-06
-2.60035e-05
5.73408e-06
-2.54917e-05
5.0044e-06
-2.35506e-05
3.90696e-06
-2.28697e-05
3.32468e-06
-2.09362e-05
2.45164e-06
-2.01092e-05
1.93852e-06
-1.84137e-05
1.21337e-06
-1.74266e-05
8.06145e-07
-1.59614e-05
1.86184e-07
-1.47161e-05
-1.71669e-07
-1.34609e-05
-4.25898e-07
-1.2251e-05
-5.89526e-07
-1.10131e-05
-5.85986e-07
-9.86463e-06
-4.97541e-07
-8.81294e-06
-7.85976e-06
-2.1474e-07
1.15959e-05
-3.26808e-05
9.92313e-06
-3.13704e-05
8.73357e-06
-2.91482e-05
7.19685e-06
-2.80204e-05
6.25501e-06
-2.63854e-05
4.99783e-06
-2.51375e-05
4.24943e-06
-2.34605e-05
3.23833e-06
-2.21542e-05
2.60028e-06
-2.06298e-05
1.82662e-06
-1.93255e-05
1.36893e-06
-1.80097e-05
9.19026e-07
-1.6624e-05
5.56927e-07
-1.53199e-05
3.8855e-07
-1.41796e-05
2.98805e-07
-1.29044e-05
3.57195e-07
-1.17962e-05
5.19555e-07
-1.07505e-05
-9.8144e-06
7.91101e-07
1.29031e-05
-3.58126e-05
1.10411e-05
-3.40609e-05
9.59057e-06
-3.19983e-05
8.17653e-06
-3.06157e-05
7.05144e-06
-2.89755e-05
5.93991e-06
-2.74734e-05
5.10813e-06
-2.58211e-05
4.27803e-06
-2.42935e-05
3.62965e-06
-2.27468e-05
3.03836e-06
-2.13154e-05
2.53251e-06
-1.99196e-05
2.25244e-06
-1.86121e-05
2.0216e-06
-1.72231e-05
1.81908e-06
-1.59898e-05
1.87819e-06
-1.48645e-05
1.95168e-06
-1.36688e-05
2.12207e-06
-1.2627e-05
-1.1668e-05
2.35697e-06
1.53457e-05
-3.78016e-05
1.31588e-05
-3.60084e-05
1.14111e-05
-3.4144e-05
9.8705e-06
-3.26737e-05
8.61442e-06
-3.10314e-05
7.49314e-06
-2.93973e-05
6.6055e-06
-2.77355e-05
5.87017e-06
-2.61464e-05
5.26453e-06
-2.45371e-05
4.75008e-06
-2.3026e-05
4.32328e-06
-2.1569e-05
3.94647e-06
-2.01756e-05
3.76786e-06
-1.88663e-05
3.63302e-06
-1.75691e-05
3.62237e-06
-1.64701e-05
3.75636e-06
-1.53327e-05
3.94948e-06
-1.42713e-05
-1.33056e-05
4.20907e-06
1.78897e-05
-3.88666e-05
1.56683e-05
-3.68821e-05
1.37805e-05
-3.51531e-05
1.21543e-05
-3.36919e-05
1.07798e-05
-3.20519e-05
9.6178e-06
-3.03951e-05
8.69608e-06
-2.87635e-05
7.95457e-06
-2.71691e-05
7.4115e-06
-2.55981e-05
6.96931e-06
-2.40512e-05
6.62203e-06
-2.25731e-05
6.36946e-06
-2.11737e-05
6.20322e-06
-1.9867e-05
6.12827e-06
-1.85855e-05
6.11302e-06
-1.74822e-05
6.25589e-06
-1.64461e-05
6.47657e-06
-1.54119e-05
-1.44902e-05
6.78687e-06
1.79115e-05
-3.83304e-05
1.62016e-05
-3.63185e-05
1.45841e-05
-3.45862e-05
1.30886e-05
-3.31022e-05
1.17885e-05
-3.15103e-05
1.07028e-05
-2.99262e-05
9.84257e-06
-2.83935e-05
9.18824e-06
-2.68946e-05
8.71902e-06
-2.54194e-05
8.39306e-06
-2.3946e-05
8.18104e-06
-2.25248e-05
8.08341e-06
-2.11973e-05
8.07013e-06
-1.99472e-05
8.17714e-06
-1.87656e-05
8.23551e-06
-1.76019e-05
8.29978e-06
-1.65628e-05
8.51963e-06
-1.56816e-05
-1.47925e-05
8.77403e-06
1.55886e-05
-3.63088e-05
1.46045e-05
-3.47029e-05
1.35426e-05
-3.28889e-05
1.24595e-05
-3.13422e-05
1.14409e-05
-2.97676e-05
1.05274e-05
-2.82395e-05
9.76166e-06
-2.68112e-05
9.1691e-06
-2.54538e-05
8.75651e-06
-2.41393e-05
8.53087e-06
-2.28464e-05
8.44544e-06
-2.15682e-05
8.43758e-06
-2.03265e-05
8.49496e-06
-1.91593e-05
8.616e-06
-1.80665e-05
8.82388e-06
-1.70187e-05
8.99916e-06
-1.5979e-05
9.12774e-06
-1.50879e-05
-1.43093e-05
9.32964e-06
1.45192e-05
-3.28905e-05
1.33513e-05
-3.17302e-05
1.23614e-05
-3.01477e-05
1.14427e-05
-2.86999e-05
1.05903e-05
-2.72084e-05
9.84369e-06
-2.57973e-05
9.24259e-06
-2.45254e-05
8.80342e-06
-2.33468e-05
8.5131e-06
-2.22057e-05
8.35304e-06
-2.10766e-05
8.30167e-06
-1.99486e-05
8.33578e-06
-1.88355e-05
8.4309e-06
-1.77781e-05
8.55489e-06
-1.67674e-05
8.72393e-06
-1.58193e-05
8.99098e-06
-1.49353e-05
9.20906e-06
-1.4055e-05
-1.33118e-05
9.40077e-06
1.325e-05
-2.91885e-05
1.21977e-05
-2.81593e-05
1.1271e-05
-2.67996e-05
1.04841e-05
-2.55583e-05
9.83983e-06
-2.42625e-05
9.31416e-06
-2.30163e-05
8.88702e-06
-2.18869e-05
8.53986e-06
-2.0836e-05
8.28252e-06
-1.98365e-05
8.10376e-06
-1.88417e-05
8.02071e-06
-1.78725e-05
8.01111e-06
-1.68978e-05
8.07357e-06
-1.59786e-05
8.20391e-06
-1.51056e-05
8.37595e-06
-1.42695e-05
8.59156e-06
-1.35004e-05
8.91031e-06
-1.27954e-05
-1.20705e-05
9.17352e-06
1.18199e-05
-2.52821e-05
1.09681e-05
-2.44316e-05
1.02243e-05
-2.32957e-05
9.59373e-06
-2.22523e-05
9.08548e-06
-2.11501e-05
8.66874e-06
-2.00589e-05
8.32064e-06
-1.90583e-05
8.0448e-06
-1.81415e-05
7.84526e-06
-1.72839e-05
7.73441e-06
-1.64466e-05
7.70786e-06
-1.56343e-05
7.76461e-06
-1.48193e-05
7.87786e-06
-1.40325e-05
8.03391e-06
-1.32802e-05
8.20472e-06
-1.25368e-05
8.38748e-06
-1.18574e-05
8.60953e-06
-1.12687e-05
-1.06495e-05
8.85876e-06
1.05871e-05
-2.13668e-05
9.84966e-06
-2.07018e-05
9.24886e-06
-1.98214e-05
8.75459e-06
-1.89746e-05
8.35411e-06
-1.80453e-05
8.02505e-06
-1.70972e-05
7.76584e-06
-1.6234e-05
7.57236e-06
-1.54503e-05
7.44e-06
-1.47237e-05
7.37855e-06
-1.40312e-05
7.36843e-06
-1.33461e-05
7.42005e-06
-1.26724e-05
7.52047e-06
-1.20147e-05
7.64581e-06
-1.13683e-05
7.78594e-06
-1.07196e-05
7.96646e-06
-1.01606e-05
8.15149e-06
-9.65445e-06
-9.11976e-06
8.34256e-06
9.63877e-06
-1.75784e-05
8.92024e-06
-1.70311e-05
8.38146e-06
-1.64448e-05
7.98511e-06
-1.58305e-05
7.69924e-06
-1.50907e-05
7.47465e-06
-1.42781e-05
7.28541e-06
-1.35199e-05
7.11662e-06
-1.2826e-05
6.98215e-06
-1.2204e-05
6.89048e-06
-1.16276e-05
6.8501e-06
-1.10689e-05
6.86695e-06
-1.05299e-05
6.94287e-06
-1.00103e-05
7.04337e-06
-9.46803e-06
7.20873e-06
-8.96348e-06
7.41257e-06
-8.52163e-06
7.59531e-06
-8.0716e-06
-7.65405e-06
7.81872e-06
8.38769e-06
-1.41966e-05
8.00684e-06
-1.38343e-05
7.61196e-06
-1.33391e-05
7.23753e-06
-1.28309e-05
6.9261e-06
-1.22305e-05
6.68625e-06
-1.15623e-05
6.51737e-06
-1.09441e-05
6.40292e-06
-1.03727e-05
6.33558e-06
-9.86587e-06
6.30375e-06
-9.39456e-06
6.30057e-06
-8.93628e-06
6.32102e-06
-8.494e-06
6.3709e-06
-8.07866e-06
6.42487e-06
-7.61591e-06
6.55784e-06
-7.2656e-06
6.69438e-06
-6.90215e-06
6.8436e-06
-6.53852e-06
-6.20431e-06
7.00316e-06
7.63178e-06
-1.10766e-05
7.37316e-06
-1.09529e-05
7.06851e-06
-1.05072e-05
6.72496e-06
-1.00375e-05
6.38272e-06
-9.50878e-06
6.0969e-06
-8.96419e-06
5.90426e-06
-8.50412e-06
5.80017e-06
-8.0858e-06
5.75849e-06
-7.70652e-06
5.75441e-06
-7.33914e-06
5.76916e-06
-6.96758e-06
5.78932e-06
-6.59977e-06
5.79941e-06
-6.24405e-06
5.85267e-06
-5.89489e-06
5.91867e-06
-5.62732e-06
5.9756e-06
-5.32417e-06
6.05551e-06
-5.05198e-06
-4.79815e-06
6.14821e-06
6.89303e-06
-8.07427e-06
6.69993e-06
-8.35339e-06
6.46044e-06
-7.94825e-06
6.17189e-06
-7.50048e-06
5.86596e-06
-7.01923e-06
5.59681e-06
-6.57388e-06
5.37126e-06
-6.2176e-06
5.18876e-06
-5.90227e-06
5.0399e-06
-5.617e-06
4.90509e-06
-5.32511e-06
4.79023e-06
-5.03612e-06
4.69368e-06
-4.74988e-06
4.61653e-06
-4.47727e-06
4.57344e-06
-4.22622e-06
4.51505e-06
-4.00725e-06
4.50346e-06
-3.814e-06
4.49143e-06
-3.60399e-06
-3.41266e-06
4.48038e-06
6.30688e-06
-5.5022e-06
6.07567e-06
-5.93918e-06
5.71653e-06
-5.48522e-06
5.27287e-06
-5.0172e-06
4.80632e-06
-4.57152e-06
4.38635e-06
-4.22982e-06
3.99409e-06
-3.95567e-06
3.64126e-06
-3.73371e-06
3.32941e-06
-3.54335e-06
3.05033e-06
-3.33922e-06
2.80673e-06
-3.14138e-06
2.60177e-06
-2.95044e-06
2.44201e-06
-2.78004e-06
2.31627e-06
-2.62046e-06
2.20771e-06
-2.47584e-06
2.11428e-06
-2.35439e-06
2.05195e-06
-2.23164e-06
-2.09208e-06
1.9864e-06
5.47582e-06
-3.35542e-06
4.85134e-06
-3.34711e-06
4.08105e-06
-2.8181e-06
3.30637e-06
-2.40289e-06
2.61759e-06
-2.09456e-06
2.04566e-06
-1.92011e-06
1.55794e-06
-1.77793e-06
1.14277e-06
-1.67575e-06
7.91351e-07
-1.59672e-06
5.09069e-07
-1.51136e-06
2.8171e-07
-1.41894e-06
1.1078e-07
-1.33598e-06
-1.74322e-08
-1.26014e-06
-1.10995e-07
-1.18755e-06
-1.75693e-07
-1.12365e-06
-2.29573e-07
-1.06486e-06
-2.58931e-07
-1.01718e-06
-9.50071e-07
-2.66864e-07
3.58888e-06
2.009e-06
8.93485e-07
1.3883e-07
-3.55964e-07
-7.24324e-07
-9.95321e-07
-1.2083e-06
-1.38667e-06
-1.52632e-06
-1.62052e-06
-1.67914e-06
-1.70944e-06
-1.71466e-06
-1.70305e-06
-1.67929e-06
-1.65371e-06
-1.60756e-06
4.10014e-07
2.23901e-06
7.42792e-07
2.46989e-06
1.05626e-06
2.52033e-06
1.44148e-06
2.45826e-06
1.91323e-06
2.36708e-06
2.48391e-06
2.22652e-06
3.14665e-06
2.09136e-06
3.93953e-06
1.93101e-06
4.87981e-06
1.76602e-06
5.88219e-06
1.6944e-06
6.93765e-06
1.64032e-06
8.00681e-06
1.62329e-06
9.07913e-06
1.61281e-06
1.01512e-05
1.60837e-06
1.12164e-05
1.6045e-06
1.22697e-05
1.60263e-06
1.32998e-05
1.60907e-06
1.42832e-05
1.63186e-06
1.52493e-05
1.62806e-06
1.61863e-05
1.62856e-06
1.70812e-05
1.6346e-06
1.79717e-05
1.60811e-06
1.88378e-05
1.59549e-06
1.96621e-05
1.59628e-06
2.04774e-05
1.57199e-06
2.12458e-05
1.57909e-06
2.19621e-05
1.5859e-06
2.25949e-05
1.62457e-06
2.31306e-05
1.66793e-06
2.35805e-05
1.69914e-06
2.39356e-05
1.74229e-06
2.41947e-05
1.7757e-06
2.43282e-05
1.85144e-06
2.43451e-05
1.90878e-06
2.42402e-05
1.94711e-06
2.40281e-05
2.04328e-06
2.36678e-05
2.13157e-06
2.30491e-05
2.16341e-06
2.24758e-05
1.96608e-06
2.22751e-05
1.64149e-06
2.22881e-05
1.48894e-06
2.25503e-05
1.20055e-06
2.29725e-05
9.25665e-07
2.32359e-05
9.63117e-07
2.33348e-05
1.04405e-06
2.34113e-05
9.89848e-07
2.36244e-05
7.92844e-07
2.4174e-05
3.89328e-07
2.50214e-05
-5.36677e-08
2.61571e-05
-4.70857e-07
2.71799e-05
-4.09045e-07
2.81207e-05
-3.88991e-07
2.87576e-05
-1.90963e-07
2.86854e-05
3.46074e-07
2.78544e-05
9.82308e-07
2.65839e-05
1.36375e-06
2.51045e-05
1.50103e-06
2.40655e-05
9.7662e-07
2.41078e-05
-1.69073e-07
2.46355e-05
-7.43654e-07
2.45956e-05
-5.39331e-07
2.36823e-05
-7.47203e-09
2.22132e-05
7.27744e-07
2.03405e-05
1.46231e-06
1.82814e-05
1.61472e-06
1.62133e-05
1.39692e-06
1.42836e-05
1.07062e-06
1.25702e-05
6.99452e-07
1.10893e-05
3.256e-07
9.82927e-06
-2.90462e-08
8.74966e-06
-3.39095e-07
7.82967e-06
-6.29956e-07
7.0615e-06
-9.1461e-07
6.4122e-06
-1.16552e-06
5.83422e-06
-1.37038e-06
5.32132e-06
-1.57164e-06
4.85067e-06
-1.75106e-06
4.40983e-06
-1.91777e-06
3.99356e-06
-2.07992e-06
3.58984e-06
-2.22887e-06
3.18925e-06
-2.36608e-06
2.76762e-06
-2.47566e-06
2.32848e-06
-2.5843e-06
1.90334e-06
-2.71866e-06
1.45192e-06
-2.80888e-06
9.88406e-07
-2.90611e-06
4.89562e-07
-2.97143e-06
4.48624e-09
-3.07467e-06
-4.76148e-07
-3.16456e-06
-9.79426e-07
-3.21575e-06
-1.48541e-06
-3.27817e-06
-1.97858e-06
-3.34894e-06
-2.46514e-06
-3.40537e-06
-2.97388e-06
-3.41968e-06
-3.43031e-06
-3.50138e-06
-3.85894e-06
-3.55563e-06
-4.32135e-06
-3.5342e-06
-4.7047e-06
-3.61954e-06
-5.10762e-06
-3.60211e-06
-5.48164e-06
-3.61817e-06
-5.84101e-06
-3.61925e-06
-6.1849e-06
-3.61171e-06
-6.53467e-06
-3.5781e-06
-6.85428e-06
-3.57469e-06
-7.19109e-06
-3.51906e-06
-7.48529e-06
-3.51817e-06
-7.74378e-06
-3.49679e-06
-7.97971e-06
-3.44861e-06
-8.18489e-06
-3.3961e-06
-8.37515e-06
-3.32568e-06
-8.48277e-06
-3.31512e-06
-8.53437e-06
-3.26048e-06
-8.52553e-06
-3.19776e-06
-8.52252e-06
-3.05768e-06
-8.48915e-06
-2.95333e-06
-8.44683e-06
-2.81076e-06
-8.43103e-06
-2.59411e-06
-8.3552e-06
-2.46085e-06
-8.10328e-06
-2.44912e-06
-7.73977e-06
-2.32577e-06
-7.44371e-06
-1.98273e-06
-7.12816e-06
-1.72525e-06
-6.64938e-06
-1.62226e-06
-6.25356e-06
-1.2972e-06
-6.17193e-06
-7.55146e-07
-6.42405e-06
-1.95989e-07
-6.89582e-06
2.30984e-07
-7.16586e-06
2.25949e-07
-7.17191e-06
1.61168e-07
-6.60647e-06
-2.12984e-07
-6.07253e-06
9.56479e-09
-4.97084e-06
-3.98757e-07
-4.36799e-06
2.79185e-07
-2.63571e-06
-7.09753e-07
-1.8426e-06
3.56148e-07
1.31803e-07
-6.81111e-07
1.53807e-06
-2.02367e-08
2.4663e-06
5.56023e-07
3.76422e-06
2.90017e-07
4.4537e-06
9.52921e-07
4.93161e-06
1.25883e-06
5.71344e-06
1.03276e-06
6.36917e-06
1.24346e-06
7.09446e-06
1.2228e-06
7.93301e-06
1.16656e-06
8.86006e-06
1.13052e-06
9.69481e-06
1.26788e-06
1.02949e-05
1.53348e-06
1.05095e-05
1.93572e-06
1.04703e-05
2.19514e-06
1.02926e-05
2.33034e-06
9.92966e-06
2.50529e-06
9.365e-06
2.69359e-06
8.59437e-06
2.88791e-06
7.80724e-06
2.89135e-06
7.05111e-06
2.85451e-06
6.44941e-06
2.70136e-06
5.91473e-06
2.64445e-06
5.7264e-06
2.29873e-06
5.74345e-06
2.08091e-06
6.11251e-06
1.70629e-06
6.60735e-06
1.52113e-06
7.01302e-06
1.54187e-06
7.00573e-06
1.86566e-06
6.74462e-06
2.00538e-06
6.29623e-06
1.96352e-06
5.54834e-06
2.04069e-06
4.1702e-06
2.45501e-06
4.96326e-06
-2.02373e-07
7.83921e-06
-2.5969e-06
8.68509e-06
-1.12171e-06
8.2315e-06
-2.20748e-07
7.51816e-06
-3.52108e-07
6.71108e-06
-6.87725e-07
7.38475e-06
-2.66229e-06
8.32022e-06
-3.34173e-06
8.70508e-06
-3.07877e-06
8.47111e-06
-2.70321e-06
7.21897e-06
-1.98309e-06
-1.61255e-06
5.40186e-06
5.82061e-07
4.23456e-06
1.23409e-06
4.56583e-06
1.78869e-06
4.87057e-06
2.28063e-06
4.92594e-06
2.75181e-06
4.79011e-06
3.21991e-06
4.49682e-06
3.77016e-06
4.14207e-06
4.47372e-06
3.76014e-06
5.34803e-06
3.39805e-06
6.29471e-06
3.24303e-06
7.29584e-06
3.13907e-06
8.33217e-06
3.09288e-06
9.36475e-06
3.08786e-06
1.04101e-05
3.07391e-06
1.14467e-05
3.07735e-06
1.24815e-05
3.07608e-06
1.35224e-05
3.0655e-06
1.4533e-05
3.10239e-06
1.55407e-05
3.10087e-06
1.65318e-05
3.0928e-06
1.7472e-05
3.11358e-06
1.8433e-05
3.06446e-06
1.9386e-05
3.02156e-06
2.02807e-05
3.02764e-06
2.12172e-05
2.95745e-06
2.20988e-05
2.97711e-06
2.28974e-05
3.0249e-06
2.36947e-05
3.03943e-06
2.43816e-05
3.12572e-06
2.50163e-05
3.18059e-06
2.55463e-05
3.26401e-06
2.59472e-05
3.36456e-06
2.62704e-05
3.47888e-06
2.65286e-05
3.51958e-06
2.67117e-05
3.60439e-06
2.67603e-05
3.74712e-06
2.68977e-05
3.7343e-06
2.69205e-05
3.83037e-06
2.6538e-05
3.90556e-06
2.59581e-05
3.84079e-06
2.5215e-05
3.8398e-06
2.45633e-05
3.53763e-06
2.40918e-05
2.94403e-06
2.36858e-05
2.48993e-06
2.35025e-05
2.27759e-06
2.34794e-05
2.0676e-06
2.37336e-05
1.5357e-06
2.44227e-05
6.44278e-07
2.5482e-05
-3.86882e-07
2.70452e-05
-1.46324e-06
2.8479e-05
-1.33424e-06
2.94301e-05
-9.6464e-07
3.00986e-05
-4.19216e-07
3.02932e-05
6.09002e-07
2.99027e-05
1.44379e-06
2.94051e-05
1.87237e-06
2.93328e-05
1.91405e-06
2.85471e-05
1.72476e-06
2.60354e-05
1.78749e-06
2.2629e-05
2.39405e-06
1.89494e-05
3.05771e-06
1.54473e-05
3.18512e-06
1.26499e-05
3.07075e-06
1.06554e-05
2.90026e-06
8.99477e-06
2.55446e-06
7.52171e-06
1.99735e-06
6.27166e-06
1.3201e-06
5.20669e-06
6.46498e-07
4.33533e-06
-3.00498e-08
3.62692e-06
-6.56857e-07
3.05155e-06
-1.2091e-06
2.60569e-06
-1.73884e-06
2.22324e-06
-2.20817e-06
1.90626e-06
-2.63917e-06
1.66355e-06
-3.03802e-06
1.45304e-06
-3.39627e-06
1.25048e-06
-3.70867e-06
1.0627e-06
-4.0165e-06
8.8016e-07
-4.31185e-06
7.04426e-07
-4.59485e-06
5.03613e-07
-4.83497e-06
2.62999e-07
-5.03203e-06
-1.6283e-08
-5.22441e-06
-2.66295e-07
-5.49887e-06
-5.53494e-07
-5.6668e-06
-8.67005e-07
-5.84291e-06
-1.2092e-06
-5.98536e-06
-1.54408e-06
-6.17883e-06
-1.92495e-06
-6.31051e-06
-2.29109e-06
-6.45108e-06
-2.65802e-06
-6.57778e-06
-3.01271e-06
-6.71975e-06
-3.39579e-06
-6.81395e-06
-3.77475e-06
-6.88143e-06
-4.12411e-06
-7.01865e-06
-4.49077e-06
-7.10703e-06
-4.82413e-06
-7.15504e-06
-5.11253e-06
-7.2918e-06
-5.40958e-06
-7.32422e-06
-5.67431e-06
-7.37406e-06
-5.92662e-06
-7.41513e-06
-6.16257e-06
-7.44305e-06
-6.4095e-06
-7.41474e-06
-6.62063e-06
-7.44208e-06
-6.84402e-06
-7.36412e-06
-7.01839e-06
-7.38184e-06
-7.17618e-06
-7.34655e-06
-7.31012e-06
-7.26745e-06
-7.44776e-06
-7.13996e-06
-7.56026e-06
-7.01155e-06
-7.67962e-06
-6.89606e-06
-7.69481e-06
-6.81923e-06
-7.67053e-06
-6.65093e-06
-7.57251e-06
-6.43922e-06
-7.62954e-06
-6.05413e-06
-7.68962e-06
-5.75782e-06
-7.68445e-06
-5.4177e-06
-7.74032e-06
-5.03952e-06
-7.72063e-06
-4.85708e-06
-7.41095e-06
-4.73573e-06
-7.13928e-06
-4.01458e-06
-7.29727e-06
-2.91516e-06
-7.61581e-06
-2.38789e-06
-7.95503e-06
-1.86734e-06
-8.3e-06
-1.08001e-06
-8.65396e-06
-3.12117e-07
-8.83208e-06
9.97147e-08
-8.69716e-06
-1.09523e-09
-8.26613e-06
-1.5675e-07
-7.34912e-06
-8.21072e-07
-6.33368e-06
-4.92489e-07
-5.16094e-06
-8.84202e-07
-3.69555e-06
-3.23911e-07
-2.02e-06
-1.37505e-06
-4.64165e-07
-8.86708e-08
1.38877e-06
-1.25481e-06
2.43101e-06
3.34916e-07
3.99631e-06
4.23128e-07
5.15545e-06
7.00177e-07
5.69758e-06
1.94383e-06
5.92358e-06
2.62835e-06
6.66787e-06
1.98128e-06
7.4493e-06
2.27659e-06
8.53955e-06
1.98467e-06
9.7429e-06
1.86499e-06
1.11249e-05
1.71215e-06
1.22473e-05
2.17809e-06
1.32616e-05
2.61354e-06
1.39322e-05
3.40363e-06
1.44135e-05
3.83923e-06
1.46704e-05
4.1501e-06
1.44906e-05
4.71744e-06
1.37138e-05
5.48784e-06
1.25886e-05
5.97601e-06
1.1513e-05
5.88398e-06
1.07735e-05
5.52733e-06
1.02689e-05
5.18044e-06
9.78106e-06
5.17823e-06
9.46479e-06
4.69486e-06
9.24296e-06
4.40685e-06
9.2017e-06
3.8601e-06
9.035e-06
3.75534e-06
8.49962e-06
4.0834e-06
7.49577e-06
4.81563e-06
6.95585e-06
4.39495e-06
6.25045e-06
4.28771e-06
5.22199e-06
4.45807e-06
3.82687e-06
4.7875e-06
4.74962e-06
-9.32163e-07
8.60212e-06
-5.92776e-06
1.11695e-05
-3.19799e-06
1.064e-05
-1.60067e-07
9.63823e-06
-6.45069e-07
8.84154e-06
-1.83736e-06
1.02934e-05
-5.9278e-06
1.25216e-05
-7.59672e-06
1.33951e-05
-6.91165e-06
1.3063e-05
-5.63484e-06
1.13786e-05
-4.10986e-06
-3.49223e-06
9.07039e-06
6.29999e-07
6.09039e-06
1.40789e-06
6.38376e-06
2.19634e-06
6.85641e-06
2.88986e-06
7.1016e-06
3.42902e-06
7.01316e-06
3.91193e-06
6.57286e-06
4.46363e-06
6.02885e-06
5.13872e-06
5.49534e-06
5.92421e-06
5.02696e-06
6.78311e-06
4.8115e-06
7.65597e-06
4.70765e-06
8.55239e-06
4.65159e-06
9.47536e-06
4.63376e-06
1.04164e-05
4.60907e-06
1.13748e-05
4.6013e-06
1.23372e-05
4.59835e-06
1.33147e-05
4.56572e-06
1.43028e-05
4.59404e-06
1.52935e-05
4.58882e-06
1.62864e-05
4.55536e-06
1.72876e-05
4.54595e-06
1.82933e-05
4.49877e-06
1.92999e-05
4.41726e-06
2.02662e-05
4.39918e-06
2.1237e-05
4.33252e-06
2.21749e-05
4.34523e-06
2.30241e-05
4.39311e-06
2.38291e-05
4.43218e-06
2.45567e-05
4.53875e-06
2.52433e-05
4.59442e-06
2.58123e-05
4.71569e-06
2.62346e-05
4.90298e-06
2.66445e-05
5.00658e-06
2.68847e-05
5.09913e-06
2.70468e-05
5.25255e-06
2.72343e-05
5.27323e-06
2.73264e-05
5.2545e-06
2.73667e-05
5.40573e-06
2.74749e-05
5.2961e-06
2.74657e-05
5.22194e-06
2.72603e-05
5.44558e-06
2.68996e-05
5.40676e-06
2.61491e-05
5.17565e-06
2.54326e-05
4.82442e-06
2.50731e-05
4.15417e-06
2.47211e-05
3.32097e-06
2.46352e-05
2.32455e-06
2.49026e-05
1.15725e-06
2.58719e-05
-7.50383e-07
2.69549e-05
-1.99742e-06
2.77103e-05
-1.56761e-06
2.78305e-05
-7.88932e-07
2.74269e-05
1.6996e-07
2.68718e-05
1.48941e-06
2.59344e-05
2.70942e-06
2.45499e-05
3.55115e-06
2.25013e-05
4.20431e-06
1.96575e-05
4.62279e-06
1.64483e-05
4.90816e-06
1.36978e-05
4.96037e-06
1.1562e-05
4.83996e-06
9.70902e-06
4.51768e-06
8.13504e-06
3.99895e-06
6.93968e-06
3.32966e-06
6.09333e-06
2.53813e-06
5.42985e-06
1.70959e-06
4.87484e-06
8.5312e-07
4.45587e-06
-3.30216e-08
4.08426e-06
-8.39476e-07
3.78511e-06
-1.62454e-06
3.54274e-06
-2.32775e-06
3.33385e-06
-2.98743e-06
3.19983e-06
-3.63602e-06
3.0645e-06
-4.1691e-06
2.93928e-06
-4.68618e-06
2.78746e-06
-5.13001e-06
2.63774e-06
-5.55482e-06
2.47821e-06
-5.96296e-06
2.30151e-06
-6.34873e-06
2.12435e-06
-6.7411e-06
1.89841e-06
-7.03717e-06
1.65437e-06
-7.31807e-06
1.38083e-06
-7.58098e-06
1.09802e-06
-7.94067e-06
7.62675e-07
-8.14673e-06
4.0885e-07
-8.38035e-06
3.82836e-08
-8.58319e-06
-2.95418e-07
-8.882e-06
-6.69478e-07
-9.03389e-06
-1.05482e-06
-9.21361e-06
-1.47517e-06
-9.35173e-06
-1.90238e-06
-9.51253e-06
-2.29005e-06
-9.67403e-06
-2.67663e-06
-9.75692e-06
-3.0507e-06
-9.91965e-06
-3.42314e-06
-1.00202e-05
-3.77768e-06
-1.009e-05
-4.08127e-06
-1.02717e-05
-4.42145e-06
-1.02893e-05
-4.69776e-06
-1.0399e-05
-4.96133e-06
-1.04728e-05
-5.20302e-06
-1.05419e-05
-5.45558e-06
-1.05351e-05
-5.68725e-06
-1.05936e-05
-5.91208e-06
-1.05564e-05
-6.126e-06
-1.05798e-05
-6.35922e-06
-1.05377e-05
-6.59203e-06
-1.04519e-05
-6.82745e-06
-1.03066e-05
-7.03746e-06
-1.01891e-05
-7.13302e-06
-1.01811e-05
-7.06754e-06
-1.02831e-05
-6.98013e-06
-1.00812e-05
-7.11069e-06
-9.48295e-06
-7.33062e-06
-8.86607e-06
-7.50185e-06
-8.48964e-06
-7.43055e-06
-8.24616e-06
-7.35514e-06
-7.67366e-06
-7.54509e-06
-6.95924e-06
-7.54655e-06
-6.79659e-06
-7.15302e-06
-6.18939e-06
-6.89165e-06
-4.50998e-06
-7.13511e-06
-3.07585e-06
-7.58192e-06
-2.16846e-06
-7.91177e-06
-1.40141e-06
-7.94478e-06
-8.07083e-07
-7.7442e-06
-4.61133e-07
-7.19729e-06
-7.06244e-07
-6.61533e-06
-6.87691e-07
-5.75037e-06
-1.42094e-06
-4.62576e-06
-1.13175e-06
-3.69091e-06
-1.13497e-06
-1.69118e-06
-1.49619e-06
-2.73051e-07
-1.84453e-06
1.27068e-06
-5.43064e-07
3.18087e-06
-2.02581e-06
3.67988e-06
1.28319e-06
5.89436e-06
-3.26337e-07
7.53121e-06
7.13972e-07
8.88823e-06
2.05332e-06
8.76368e-06
4.1445e-06
8.68899e-06
3.62391e-06
8.9206e-06
3.74643e-06
9.81151e-06
2.85956e-06
1.09847e-05
2.45394e-06
1.2454e-05
2.04053e-06
1.37412e-05
2.72339e-06
1.4664e-05
3.60896e-06
1.50172e-05
5.09038e-06
1.55088e-05
5.43631e-06
1.62645e-05
5.46424e-06
1.68295e-05
6.03588e-06
1.62916e-05
7.67366e-06
1.50724e-05
8.69042e-06
1.38492e-05
8.66176e-06
1.28076e-05
8.22375e-06
1.20248e-05
7.65567e-06
1.14959e-05
7.39814e-06
1.14137e-05
6.51503e-06
1.15686e-05
6.14298e-06
1.14899e-05
5.91996e-06
1.08744e-05
6.4038e-06
9.82899e-06
7.18412e-06
8.67583e-06
7.9573e-06
7.724e-06
6.90458e-06
7.34764e-06
6.06372e-06
6.72571e-06
6.39058e-06
4.87241e-06
6.98856e-06
4.13763e-06
-4.36389e-07
7.19218e-06
-9.33962e-06
1.13898e-05
-6.79572e-06
1.2775e-05
-1.1097e-06
1.16787e-05
-8.45338e-07
8.8283e-06
-1.86135e-06
8.86286e-06
-7.97751e-06
1.24025e-05
-1.17148e-05
1.49144e-05
-1.06742e-05
1.54221e-05
-8.44231e-06
1.42342e-05
-6.20081e-06
-5.70712e-06
1.2085e-05
6.4639e-07
7.82638e-06
1.33819e-06
8.12085e-06
2.12639e-06
8.57942e-06
2.87185e-06
8.8691e-06
3.53172e-06
8.71393e-06
4.15262e-06
8.18857e-06
4.87329e-06
7.53141e-06
5.59166e-06
7.02884e-06
6.25304e-06
6.65064e-06
6.97552e-06
6.41179e-06
7.71725e-06
6.32858e-06
8.48188e-06
6.28672e-06
9.2908e-06
6.25201e-06
1.01454e-05
6.20257e-06
1.10617e-05
6.14837e-06
1.20243e-05
6.10687e-06
1.30126e-05
6.05378e-06
1.40516e-05
6.03303e-06
1.51379e-05
5.97709e-06
1.62076e-05
5.93242e-06
1.73151e-05
5.87378e-06
1.84339e-05
5.80991e-06
1.94798e-05
5.73008e-06
2.05337e-05
5.65577e-06
2.15914e-05
5.59117e-06
2.26424e-05
5.5672e-06
2.35541e-05
5.64153e-06
2.44109e-05
5.71018e-06
2.52448e-05
5.81111e-06
2.59902e-05
5.88472e-06
2.65895e-05
6.09085e-06
2.71009e-05
6.29378e-06
2.75304e-05
6.44211e-06
2.77211e-05
6.71545e-06
2.78402e-05
6.88145e-06
2.78231e-05
6.97155e-06
2.7676e-05
7.06081e-06
2.76083e-05
6.99998e-06
2.76231e-05
6.74573e-06
2.75994e-05
6.74695e-06
2.759e-05
6.67742e-06
2.76113e-05
6.44471e-06
2.74138e-05
6.58088e-06
2.70893e-05
6.45642e-06
2.68193e-05
5.79213e-06
2.63759e-05
5.0358e-06
2.57805e-05
3.9694e-06
2.54586e-05
2.31809e-06
2.4993e-05
3.07462e-07
2.41052e-05
-4.63641e-07
2.33192e-05
-1.44606e-07
2.21832e-05
6.80176e-07
2.08248e-05
1.74684e-06
1.95139e-05
3.0989e-06
1.81444e-05
4.35957e-06
1.65475e-05
5.36036e-06
1.4791e-05
6.01062e-06
1.29145e-05
6.4055e-06
1.11336e-05
6.44652e-06
9.6182e-06
6.08953e-06
8.48044e-06
5.48594e-06
7.55757e-06
4.85963e-06
6.82531e-06
4.07137e-06
6.23038e-06
3.2007e-06
5.74466e-06
2.2319e-06
5.36264e-06
1.22815e-06
5.03581e-06
2.44228e-07
4.75281e-06
-7.65147e-07
4.53915e-06
-1.73727e-06
4.38613e-06
-2.68656e-06
4.27062e-06
-3.54071e-06
4.18371e-06
-4.34606e-06
4.05544e-06
-5.07484e-06
3.97226e-06
-5.77729e-06
3.87392e-06
-6.401e-06
3.79377e-06
-6.98477e-06
3.69143e-06
-7.50485e-06
3.57042e-06
-8.01e-06
3.41784e-06
-8.48233e-06
3.24911e-06
-8.9706e-06
3.04672e-06
-9.33598e-06
2.7698e-06
-9.64553e-06
2.52322e-06
-1.00205e-05
2.22431e-06
-1.04336e-05
1.91296e-06
-1.07042e-05
1.56416e-06
-1.09835e-05
1.22533e-06
-1.12648e-05
8.19635e-07
-1.15647e-05
4.2565e-07
-1.17902e-05
4.73014e-08
-1.20342e-05
-3.68163e-07
-1.21839e-05
-7.74152e-07
-1.23865e-05
-1.18366e-06
-1.25557e-05
-1.60929e-06
-1.26237e-05
-2.00435e-06
-1.28273e-05
-2.35074e-06
-1.29642e-05
-2.72398e-06
-1.29515e-05
-3.03769e-06
-1.31892e-05
-3.3605e-06
-1.31315e-05
-3.57221e-06
-1.33063e-05
-3.83948e-06
-1.32782e-05
-4.06491e-06
-1.33221e-05
-4.26128e-06
-1.32989e-05
-4.42831e-06
-1.33406e-05
-4.61192e-06
-1.32638e-05
-4.82968e-06
-1.3228e-05
-5.06882e-06
-1.31256e-05