/*--------------------------------*- C++ -*----------------------------------*\
| =========                 |                                                 |
| \\      /  F ield         | OpenFOAM: The Open Source CFD Toolbox           |
|  \\    /   O peration     | Version:  dev                                   |
|   \\  /    A nd           | Web:      http://www.openfoam.org               |
|    \\/     M anipulation  |                                                 |
\*---------------------------------------------------------------------------*/
FoamFile
{
    version     2.0;
    format      ascii;
    class       surfaceScalarField;
    object      phi_0;
    location    "9.123";
}
// * * * * * * * * * * * * * * * * * * * * * * * * * * * * * * * * * * * * * //

dimensions      [1 0 -1 0 0 0 0];

internalField   nonuniform List<scalar> 
24170
(
1.47825e-06
1.19405e-07
1.87405e-07
-2.24581e-07
-6.46629e-07
-6.02561e-07
-1.24434e-06
-7.37372e-07
-1.76504e-06
-7.16021e-07
-2.11095e-06
-7.9183e-07
-2.60299e-06
-5.55706e-07
-2.78039e-06
-7.82261e-07
-3.26915e-06
-3.92358e-07
-3.37328e-06
-7.09897e-07
-3.91957e-06
-2.03302e-07
-3.81605e-06
-7.99959e-07
-4.77168e-06
3.11099e-07
-4.28695e-06
-1.08805e-06
-5.67364e-06
8.34732e-07
-5.69845e-06
-5.04691e-07
-5.88819e-06
-2.81933e-07
2.84603e-06
-9.1257e-06
3.07227e-06
-1.03494e-06
1.95707e-06
-8.38177e-07
1.03431e-06
-1.32071e-06
2.03663e-07
-1.43525e-06
-3.85205e-07
-1.54396e-06
-1.0443e-06
-1.44142e-06
-1.39896e-06
-1.40999e-06
-1.81891e-06
-1.47091e-06
-2.16724e-06
-1.06655e-06
-2.41938e-06
-1.40105e-06
-2.76875e-06
-7.27334e-07
-2.81042e-06
-1.56722e-06
-3.33572e-06
8.54468e-08
-3.05306e-06
-2.0762e-06
-4.04323e-06
1.18225e-06
-3.17152e-06
-1.97947e-06
-7.08301e-06
3.08471e-06
5.66636e-06
-1.0371e-05
3.84748e-06
-2.78748e-06
3.06805e-06
-1.96672e-06
2.35759e-06
-2.42003e-06
1.53041e-06
-2.29141e-06
9.07464e-07
-2.48379e-06
2.76918e-07
-2.25285e-06
-1.7558e-07
-2.29026e-06
-6.00289e-07
-2.27293e-06
-1.01974e-06
-1.77684e-06
-1.02595e-06
-2.44063e-06
-1.61452e-06
-1.10496e-06
-1.42287e-06
-2.65747e-06
-2.15802e-06
-1.50428e-08
-2.24312e-06
-2.76569e-06
-3.04782e-06
1.25411e-06
-3.34152e-06
-2.3493e-06
-5.37306e-06
4.49838e-06
6.32844e-06
-6.60348e-06
4.09485e-06
-4.40578e-06
3.75857e-06
-3.72596e-06
3.1116e-06
-3.76373e-06
2.60392e-06
-3.62988e-06
1.89402e-06
-3.48943e-06
1.65035e-06
-3.58851e-06
8.88191e-07
-2.98755e-06
9.3559e-07
-3.66168e-06
5.5135e-08
-2.13416e-06
3.21119e-07
-3.85008e-06
-6.24962e-07
-1.21504e-06
-4.56534e-07
-3.81603e-06
-1.47916e-06
9.57998e-08
-1.62853e-06
-3.47995e-06
-3.49074e-06
2.31061e-06
-2.59708e-06
-3.97576e-06
-3.85862e-06
5.07473e-06
9.0975e-06
-7.28684e-06
4.10386e-06
-6.33017e-06
4.22259e-06
-6.14628e-06
3.42212e-06
-5.14803e-06
3.24257e-06
-5.47625e-06
2.34454e-06
-4.47138e-06
2.25586e-06
-5.23148e-06
1.40353e-06
-3.73275e-06
1.40031e-06
-5.12771e-06
5.03964e-07
-2.59397e-06
5.82651e-07
-5.18092e-06
-4.23635e-07
-1.36808e-06
-3.44263e-07
-4.97769e-06
-1.34974e-06
1.00596e-07
-1.35907e-06
-4.41695e-06
-2.97978e-06
3.04708e-06
-2.55007e-06
-5.21889e-06
-2.5605e-06
4.32231e-06
7.97989e-06
-2.18121e-06
4.66677e-06
-7.94705e-06
4.40288e-06
-8.4006e-06
3.36623e-06
-6.50072e-06
3.21569e-06
-7.54619e-06
2.24038e-06
-5.55533e-06
2.1306e-06
-7.01849e-06
1.29248e-06
-4.64352e-06
1.19139e-06
-6.63462e-06
4.32771e-07
-3.32014e-06
3.44892e-07
-6.46258e-06
-3.93489e-07
-1.89901e-06
-5.77428e-07
-5.97386e-06
-1.10311e-06
-4.72079e-07
-1.4565e-06
-5.0876e-06
-1.12049e-06
1.73993e-06
-2.74243e-06
-4.48635e-06
-2.60765e-06
3.33705e-06
3.64197e-06
9.19839e-07
5.40594e-06
-9.98775e-06
4.84083e-06
-1.05827e-05
3.73785e-06
-8.00606e-06
3.44362e-06
-9.67073e-06
2.489e-06
-6.84861e-06
2.25382e-06
-8.84859e-06
1.50084e-06
-5.79781e-06
1.27155e-06
-8.15489e-06
7.94691e-07
-4.46281e-06
3.78399e-07
-7.53573e-06
2.33153e-07
-3.13835e-06
-3.69338e-07
-6.65255e-06
-1.60818e-07
-1.87919e-06
-1.00772e-06
-5.35031e-06
-1.56447e-07
-1.69396e-07
-2.27025e-06
-3.34114e-06
-8.08216e-07
9.35727e-07
2.22382e-06
-2.7358e-07
4.24759e-06
-1.16424e-05
3.7625e-06
-1.22149e-05
2.98193e-06
-9.23798e-06
2.61021e-06
-1.11618e-05
2.0352e-06
-8.00581e-06
1.73232e-06
-1.01354e-05
1.33392e-06
-6.86774e-06
9.75207e-07
-9.14261e-06
8.65092e-07
-5.59848e-06
3.9596e-07
-8.2119e-06
5.02376e-07
-4.30964e-06
-1.2605e-07
-7.00797e-06
1.74213e-07
-3.10149e-06
-6.61976e-07
-5.36702e-06
-1.24255e-07
-1.51925e-06
-1.07368e-06
-3.13757e-06
-6.04541e-07
-2.5838e-07
1.40769e-06
-4.67845e-07
4.92695e-06
-1.35887e-05
4.33458e-06
-1.40588e-05
3.51006e-06
-1.07263e-05
2.95173e-06
-1.27466e-05
2.45551e-06
-9.49914e-06
1.97453e-06
-1.14819e-05
1.69852e-06
-8.27589e-06
1.19064e-06
-1.01818e-05
1.12542e-06
-6.95876e-06
5.43079e-07
-8.94334e-06
6.87763e-07
-5.67213e-06
-3.90091e-08
-7.40905e-06
2.37064e-07
-4.43099e-06
-6.19126e-07
-5.48847e-06
-1.74846e-07
-2.88726e-06
-9.54179e-07
-3.221e-06
-7.00133e-07
-1.3343e-06
2.16136e-07
-2.87433e-07
5.74396e-06
-1.59408e-05
4.85963e-06
-1.59648e-05
4.14472e-06
-1.26532e-05
3.42695e-06
-1.44799e-05
3.07248e-06
-1.14134e-05
2.42213e-06
-1.29172e-05
2.23491e-06
-1.00061e-05
1.57742e-06
-1.12875e-05
1.57045e-06
-8.57082e-06
8.48789e-07
-9.71617e-06
1.01713e-06
-7.22144e-06
2.4393e-07
-7.91643e-06
4.94614e-07
-5.87614e-06
-2.94289e-07
-5.81329e-06
9.85028e-08
-4.32721e-06
-5.57627e-07
-3.54721e-06
-1.24833e-07
-2.70177e-06
-1.3033e-06
5.10591e-07
6.8328e-06
-1.85122e-05
5.7812e-06
-1.80897e-05
5.12491e-06
-1.49916e-05
4.14705e-06
-1.62853e-05
3.71008e-06
-1.35381e-05
2.85296e-06
-1.44187e-05
2.57383e-06
-1.18863e-05
1.82376e-06
-1.25252e-05
1.70721e-06
-1.02745e-05
1.02874e-06
-1.07186e-05
9.7381e-07
-8.71669e-06
4.35646e-07
-8.8141e-06
4.17195e-07
-7.19755e-06
4.84194e-09
-6.65013e-06
1.45315e-08
-5.51003e-06
-9.08904e-08
-4.54524e-06
-6.88979e-08
-3.76708e-06
-2.8418e-06
4.81662e-07
8.17187e-06
-2.11771e-05
6.74798e-06
-2.02372e-05
6.10096e-06
-1.77007e-05
4.83299e-06
-1.81387e-05
4.36266e-06
-1.59305e-05
3.33695e-06
-1.60288e-05
3.02918e-06
-1.3989e-05
2.15292e-06
-1.38586e-05
2.05288e-06
-1.21918e-05
1.29095e-06
-1.18201e-05
1.29044e-06
-1.04318e-05
6.66339e-07
-9.78523e-06
6.85883e-07
-8.698e-06
4.0072e-07
-7.74675e-06
4.10259e-07
-6.81422e-06
4.89187e-07
-5.84163e-06
6.4133e-07
-5.06727e-06
-4.25197e-06
9.65439e-07
9.44308e-06
-2.44316e-05
7.9476e-06
-2.26973e-05
7.0307e-06
-2.04863e-05
5.6477e-06
-2.01939e-05
4.99489e-06
-1.84252e-05
4.01771e-06
-1.79449e-05
3.57801e-06
-1.61874e-05
2.88215e-06
-1.55775e-05
2.56086e-06
-1.40797e-05
2.0466e-06
-1.33319e-05
1.85188e-06
-1.20992e-05
1.45356e-06
-1.11113e-05
1.27977e-06
-1.01258e-05
1.2151e-06
-9.17651e-06
1.19712e-06
-8.19433e-06
1.33601e-06
-7.2921e-06
1.51541e-06
-6.48155e-06
-5.75121e-06
1.84857e-06
1.15034e-05
-2.8154e-05
9.80367e-06
-2.52607e-05
8.62381e-06
-2.32981e-05
7.14103e-06
-2.24049e-05
6.28473e-06
-2.09454e-05
5.15175e-06
-1.99032e-05
4.55925e-06
-1.84059e-05
3.73084e-06
-1.73146e-05
3.29556e-06
-1.59882e-05
2.73498e-06
-1.4915e-05
2.49413e-06
-1.38219e-05
2.25928e-06
-1.2688e-05
2.09491e-06
-1.16386e-05
2.1091e-06
-1.0752e-05
2.17799e-06
-9.72061e-06
2.37008e-06
-8.84843e-06
2.63523e-06
-8.02866e-06
-7.30501e-06
2.98253e-06
1.2865e-05
-3.1216e-05
1.09854e-05
-2.77926e-05
9.56855e-06
-2.60068e-05
8.21039e-06
-2.48441e-05
7.18011e-06
-2.33797e-05
6.18663e-06
-2.20655e-05
5.5109e-06
-2.05919e-05
4.85476e-06
-1.92592e-05
4.40847e-06
-1.79074e-05
4.02431e-06
-1.66879e-05
3.73719e-06
-1.55065e-05
3.66838e-06
-1.44224e-05
3.63864e-06
-1.32716e-05
3.61987e-06
-1.22737e-05
3.84405e-06
-1.13778e-05
4.05826e-06
-1.04003e-05
4.34493e-06
-9.56873e-06
-8.81065e-06
4.67393e-06
1.52112e-05
-3.37266e-05
1.31057e-05
-2.99497e-05
1.14343e-05
-2.83099e-05
9.98025e-06
-2.70232e-05
8.83925e-06
-2.55363e-05
7.85369e-06
-2.40604e-05
7.12846e-06
-2.25529e-05
6.57429e-06
-2.11281e-05
6.16759e-06
-1.96872e-05
5.85989e-06
-1.83583e-05
5.64579e-06
-1.70916e-05
5.47947e-06
-1.58959e-05
5.5001e-06
-1.47872e-05
5.54976e-06
-1.36958e-05
5.70613e-06
-1.28009e-05
5.98756e-06
-1.18582e-05
6.30756e-06
-1.09858e-05
-1.0205e-05
6.67595e-06
1.78783e-05
-3.54131e-05
1.57452e-05
-3.13525e-05
1.39525e-05
-2.98331e-05
1.24392e-05
-2.85197e-05
1.12026e-05
-2.70002e-05
1.01972e-05
-2.54596e-05
9.45023e-06
-2.39394e-05
8.89418e-06
-2.24609e-05
8.5471e-06
-2.10127e-05
8.30357e-06
-1.95986e-05
8.15524e-06
-1.8265e-05
8.09705e-06
-1.70202e-05
8.11791e-06
-1.58748e-05
8.21921e-06
-1.47611e-05
8.36564e-06
-1.38216e-05
8.65944e-06
-1.29519e-05
9.01512e-06
-1.2077e-05
-1.13175e-05
9.44687e-06
1.8076e-05
-3.5613e-05
1.64618e-05
-3.15635e-05
1.4948e-05
-3.00314e-05
1.35798e-05
-2.86692e-05
1.24281e-05
-2.71622e-05
1.15044e-05
-2.56512e-05
1.08161e-05
-2.41842e-05
1.03368e-05
-2.27505e-05
1.00418e-05
-2.1345e-05
9.88502e-06
-1.99487e-05
9.83532e-06
-1.86183e-05
9.89345e-06
-1.7396e-05
1.00287e-05
-1.62611e-05
1.02748e-05
-1.5203e-05
1.04646e-05
-1.41709e-05
1.06511e-05
-1.32634e-05
1.0985e-05
-1.25051e-05
-1.17496e-05
1.13461e-05
1.58047e-05
-3.43096e-05
1.49764e-05
-3.07824e-05
1.40481e-05
-2.91332e-05
1.31048e-05
-2.76805e-05
1.22349e-05
-2.61611e-05
1.14732e-05
-2.46715e-05
1.08586e-05
-2.32719e-05
1.04127e-05
-2.19398e-05
1.01407e-05
-2.06536e-05
1.0049e-05
-1.93964e-05
1.00886e-05
-1.81653e-05
1.01948e-05
-1.69838e-05
1.03569e-05
-1.58904e-05
1.05764e-05
-1.4883e-05
1.08759e-05
-1.39302e-05
1.1135e-05
-1.29923e-05
1.13436e-05
-1.22024e-05
-1.15272e-05
1.16194e-05
1.46699e-05
-3.17234e-05
1.37456e-05
-2.86167e-05
1.29421e-05
-2.71451e-05
1.21894e-05
-2.57537e-05
1.14917e-05
-2.42864e-05
1.08903e-05
-2.28859e-05
1.04255e-05
-2.1617e-05
1.01141e-05
-2.04381e-05
9.9421e-06
-1.92982e-05
9.89153e-06
-1.81771e-05
9.93949e-06
-1.70656e-05
1.0063e-05
-1.59821e-05
1.02372e-05
-1.49663e-05
1.04304e-05
-1.40074e-05
1.06622e-05
-1.31222e-05
1.09852e-05
-1.23073e-05
1.12553e-05
-1.15086e-05
-1.08501e-05
1.14956e-05
1.35024e-05
-2.83749e-05
1.26301e-05
-2.56716e-05
1.18867e-05
-2.44219e-05
1.12762e-05
-2.3223e-05
1.0793e-05
-2.19311e-05
1.04116e-05
-2.06767e-05
1.01132e-05
-1.95341e-05
9.88069e-06
-1.84673e-05
9.72518e-06
-1.74527e-05
9.6355e-06
-1.64478e-05
9.6302e-06
-1.54761e-05
9.68681e-06
-1.45091e-05
9.80631e-06
-1.36106e-05
9.98607e-06
-1.27675e-05
1.02022e-05
-1.19722e-05
1.04574e-05
-1.12481e-05
1.08137e-05
-1.06039e-05
-9.94651e-06
1.11111e-05
1.20758e-05
-2.47124e-05
1.14045e-05
-2.24515e-05
1.08441e-05
-2.14229e-05
1.03915e-05
-2.04162e-05
1.0047e-05
-1.93097e-05
9.77416e-06
-1.82004e-05
9.5496e-06
-1.71771e-05
9.37846e-06
-1.62357e-05
9.26757e-06
-1.53547e-05
9.2312e-06
-1.44978e-05
9.26785e-06
-1.36733e-05
9.37712e-06
-1.28538e-05
9.5332e-06
-1.20738e-05
9.72508e-06
-1.13375e-05
9.92386e-06
-1.06174e-05
1.01324e-05
-9.96922e-06
1.03787e-05
-9.42578e-06
-8.8572e-06
1.06495e-05
1.0795e-05
-2.09164e-05
1.02526e-05
-1.91433e-05
9.84572e-06
-1.83639e-05
9.53014e-06
-1.75436e-05
9.28879e-06
-1.66037e-05
9.09728e-06
-1.56334e-05
8.95508e-06
-1.47454e-05
8.85985e-06
-1.39359e-05
8.80927e-06
-1.31845e-05
8.8157e-06
-1.24697e-05
8.86083e-06
-1.17679e-05
8.95781e-06
-1.10842e-05
9.09305e-06
-1.04238e-05
9.24521e-06
-9.78362e-06
9.40358e-06
-9.14535e-06
9.59981e-06
-8.60924e-06
9.79657e-06
-8.13489e-06
-7.63597e-06
9.99613e-06
9.79651e-06
-1.73684e-05
9.28263e-06
-1.58262e-05
8.9392e-06
-1.53277e-05
8.7239e-06
-1.47345e-05
8.59728e-06
-1.39799e-05
8.50613e-06
-1.3141e-05
8.42609e-06
-1.23564e-05
8.34546e-06
-1.16371e-05
8.28194e-06
-1.0992e-05
8.24765e-06
-1.03953e-05
8.2534e-06
-9.82043e-06
8.30779e-06
-9.27098e-06
8.41307e-06
-8.7454e-06
8.53442e-06
-8.20265e-06
8.71678e-06
-7.7045e-06
8.93321e-06
-7.27824e-06
9.12303e-06
-6.84841e-06
-6.45728e-06
9.35205e-06
8.54062e-06
-1.39953e-05
8.33954e-06
-1.29044e-05
8.12159e-06
-1.249e-05
7.91555e-06
-1.20057e-05
7.75737e-06
-1.1395e-05
7.64827e-06
-1.07016e-05
7.58582e-06
-1.0057e-05
7.55436e-06
-9.46008e-06
7.55072e-06
-8.93135e-06
7.56742e-06
-8.44187e-06
7.60118e-06
-7.96957e-06
7.65056e-06
-7.51903e-06
7.72275e-06
-7.09793e-06
7.79214e-06
-6.63195e-06
7.94027e-06
-6.28954e-06
8.08698e-06
-5.93566e-06
8.24303e-06
-5.58539e-06
-5.26909e-06
8.4066e-06
7.75184e-06
-1.09477e-05
7.67591e-06
-1.02616e-05
7.53716e-06
-9.87863e-06
7.34442e-06
-9.43045e-06
7.13826e-06
-8.89696e-06
6.97073e-06
-8.3332e-06
6.87912e-06
-7.85408e-06
6.85726e-06
-7.41482e-06
6.88014e-06
-7.01691e-06
6.92585e-06
-6.63421e-06
6.97769e-06
-6.2501e-06
7.02467e-06
-5.87448e-06
7.0534e-06
-5.51259e-06
7.121e-06
-5.16104e-06
7.19698e-06
-4.89957e-06
7.25941e-06
-4.60158e-06
7.34271e-06
-4.33871e-06
-4.09761e-06
7.43721e-06
6.98824e-06
-8.00955e-06
6.97868e-06
-7.87811e-06
6.89989e-06
-7.51266e-06
6.75554e-06
-7.0827e-06
6.57755e-06
-6.60012e-06
6.41651e-06
-6.13842e-06
6.28314e-06
-5.77073e-06
6.17616e-06
-5.44041e-06
6.0863e-06
-5.14029e-06
5.99648e-06
-4.83606e-06
5.91517e-06
-4.53689e-06
5.84184e-06
-4.24325e-06
5.78046e-06
-3.96501e-06
5.7478e-06
-3.71165e-06
5.69334e-06
-3.49517e-06
5.6839e-06
-3.30621e-06
5.67008e-06
-3.10051e-06
-2.91771e-06
5.65553e-06
6.40263e-06
-5.50735e-06
6.34211e-06
-5.65454e-06
6.13704e-06
-5.22358e-06
5.82915e-06
-4.7671e-06
5.48151e-06
-4.32164e-06
5.15679e-06
-3.9606e-06
4.84311e-06
-3.68031e-06
4.55205e-06
-3.44797e-06
4.28601e-06
-3.24618e-06
4.04021e-06
-3.0332e-06
3.8195e-06
-2.82793e-06
3.62857e-06
-2.63109e-06
3.47691e-06
-2.45692e-06
3.35437e-06
-2.29542e-06
3.24399e-06
-2.15131e-06
3.1464e-06
-2.03299e-06
3.07869e-06
-1.91287e-06
-1.77787e-06
3.00568e-06
5.59337e-06
-3.35298e-06
5.11507e-06
-3.22219e-06
4.47533e-06
-2.70036e-06
3.80973e-06
-2.28626e-06
3.21758e-06
-1.98266e-06
2.7175e-06
-1.78246e-06
2.29107e-06
-1.64368e-06
1.92226e-06
-1.53625e-06
1.60284e-06
-1.44984e-06
1.34432e-06
-1.36201e-06
1.132e-06
-1.26547e-06
9.70071e-07
-1.18005e-06
8.46076e-07
-1.10278e-06
7.53145e-07
-1.02951e-06
6.86225e-07
-9.66162e-07
6.2704e-07
-9.08581e-07
5.91809e-07
-8.62832e-07
-7.96995e-07
5.76326e-07
3.66359e-06
2.18048e-06
1.15594e-06
4.83151e-07
5.14676e-08
-2.42519e-07
-4.59703e-07
-6.31318e-07
-7.77344e-07
-8.94146e-07
-9.71287e-07
-1.01819e-06
-1.04107e-06
-1.04186e-06
-1.02833e-06
-1.0045e-06
-9.79997e-07
-9.33903e-07
2.78991e-07
2.3718e-06
4.86433e-07
2.60325e-06
6.75193e-07
2.66095e-06
9.41798e-07
2.59503e-06
1.30613e-06
2.49367e-06
1.78607e-06
2.33749e-06
2.3719e-06
2.18864e-06
3.10106e-06
2.01568e-06
3.99123e-06
1.84086e-06
4.94601e-06
1.76755e-06
5.95299e-06
1.71523e-06
6.97267e-06
1.70122e-06
7.9958e-06
1.69336e-06
9.01901e-06
1.69148e-06
1.00367e-05
1.68956e-06
1.10455e-05
1.68824e-06
1.20337e-05
1.69522e-06
1.29785e-05
1.71813e-06
1.39096e-05
1.71367e-06
1.48142e-05
1.71426e-06
1.5683e-05
1.71779e-06
1.65553e-05
1.68709e-06
1.74068e-05
1.67392e-06
1.82237e-05
1.67135e-06
1.90377e-05
1.64432e-06
1.98036e-05
1.6543e-06
2.05201e-05
1.66088e-06
2.11537e-05
1.7007e-06
2.16907e-05
1.7448e-06
2.21443e-05
1.77619e-06
2.25026e-05
1.82008e-06
2.27655e-05
1.85448e-06
2.29014e-05
1.93219e-06
2.29214e-05
1.98492e-06
2.2821e-05
2.02876e-06
2.26027e-05
2.13282e-06
2.22176e-05
2.2138e-06
2.16029e-05
2.21806e-06
2.11059e-05
1.9814e-06
2.09962e-05
1.65323e-06
2.10726e-05
1.50652e-06
2.1392e-05
1.2009e-06
2.18378e-05
9.50674e-07
2.20974e-05
1.01732e-06
2.22027e-05
1.08921e-06
2.23145e-05
1.00447e-06
2.26019e-05
7.64179e-07
2.32468e-05
3.26182e-07
2.41796e-05
-1.14663e-07
2.53471e-05
-4.68237e-07
2.63589e-05
-3.60438e-07
2.7272e-05
-3.35473e-07
2.78024e-05
-7.46391e-08
2.75586e-05
5.26557e-07
2.65878e-05
1.14462e-06
2.5226e-05
1.47879e-06
2.37359e-05
1.53068e-06
2.2793e-05
8.9404e-07
2.29048e-05
-2.29432e-07
2.33109e-05
-6.45311e-07
2.3009e-05
-3.13886e-07
2.19738e-05
1.63034e-07
2.03287e-05
1.00592e-06
1.83198e-05
1.6434e-06
1.61523e-05
1.71155e-06
1.40075e-05
1.4655e-06
1.20147e-05
1.14435e-06
1.02363e-05
7.88836e-07
8.68215e-06
4.35367e-07
7.33455e-06
1.08771e-07
6.16811e-06
-1.89566e-07
5.16263e-06
-4.65077e-07
4.28528e-06
-7.04926e-07
3.53001e-06
-9.38589e-07
2.84731e-06
-1.12247e-06
2.2301e-06
-1.29654e-06
1.66125e-06
-1.45078e-06
1.13082e-06
-1.59139e-06
6.36474e-07
-1.72651e-06
1.69968e-07
-1.84843e-06
-2.785e-07
-1.95551e-06
-7.30936e-07
-2.03385e-06
-1.17844e-06
-2.11361e-06
-1.59137e-06
-2.21567e-06
-2.00669e-06
-2.27469e-06
-2.40866e-06
-2.34083e-06
-2.82046e-06
-2.3752e-06
-3.19672e-06
-2.44581e-06
-3.54363e-06
-2.50615e-06
-3.89069e-06
-2.52751e-06
-4.22104e-06
-2.55999e-06
-4.51991e-06
-2.6022e-06
-4.79232e-06
-2.63374e-06
-5.07179e-06
-2.62515e-06
-5.2911e-06
-2.68113e-06
-5.4691e-06
-2.71597e-06
-5.6723e-06
-2.67822e-06
-5.79674e-06
-2.74379e-06
-5.93278e-06
-2.7171e-06
-6.04213e-06
-2.72238e-06
-6.13787e-06
-2.71761e-06
-6.22069e-06
-2.70899e-06
-6.31282e-06
-2.67879e-06
-6.38222e-06
-2.68003e-06
-6.47723e-06
-2.63256e-06
-6.54053e-06
-2.64234e-06
-6.57869e-06
-2.63884e-06
-6.60705e-06
-2.61371e-06
-6.62041e-06
-2.58905e-06
-6.63543e-06
-2.54984e-06
-6.58587e-06
-2.5727e-06
-6.5019e-06
-2.55626e-06
-6.38104e-06
-2.53837e-06
-6.28961e-06
-2.44849e-06
-6.1859e-06
-2.40024e-06
-6.10125e-06
-2.31374e-06
-6.06363e-06
-2.15261e-06
-5.99665e-06
-2.071e-06
-5.78422e-06
-2.11084e-06
-5.49715e-06
-2.04224e-06
-5.31388e-06
-1.75379e-06
-5.14569e-06
-1.54081e-06
-4.83012e-06
-1.48997e-06
-4.59123e-06
-1.22983e-06
-4.65596e-06
-7.49641e-07
-5.05555e-06
-2.32737e-07
-5.67803e-06
1.73813e-07
-6.09445e-06
1.41228e-07
-6.25725e-06
6.08679e-08
-5.8535e-06
-3.35885e-07
-5.48938e-06
-1.27634e-07
-4.52164e-06
-5.52695e-07
-4.0726e-06
1.13168e-07
-2.47737e-06
-8.59205e-07
-1.78156e-06
1.44161e-07
8.23197e-08
-8.80175e-07
1.37955e-06
-2.22442e-07
2.22218e-06
3.4224e-07
3.43843e-06
6.31872e-08
4.02757e-06
7.46177e-07
4.41508e-06
1.03641e-06
5.10902e-06
7.95257e-07
5.65715e-06
1.00731e-06
6.26861e-06
9.74372e-07
6.97098e-06
9.23188e-07
7.73086e-06
9.05246e-07
8.37819e-06
1.0653e-06
8.77425e-06
1.35542e-06
8.77047e-06
1.78585e-06
8.52183e-06
2.06204e-06
8.15506e-06
2.21131e-06
7.62742e-06
2.40576e-06
6.92729e-06
2.61887e-06
6.05725e-06
2.82659e-06
5.2292e-06
2.83073e-06
4.47487e-06
2.80305e-06
3.90748e-06
2.66675e-06
3.42103e-06
2.63502e-06
3.30701e-06
2.29531e-06
3.3981e-06
2.10385e-06
3.84039e-06
1.74686e-06
4.39458e-06
1.58983e-06
4.84542e-06
1.63736e-06
4.88685e-06
1.96024e-06
4.69113e-06
2.09165e-06
4.29725e-06
2.07642e-06
3.569e-06
2.16024e-06
2.28234e-06
2.51635e-06
3.32985e-06
-5.9039e-08
6.29817e-06
-2.31931e-06
7.14648e-06
-7.06362e-07
6.78432e-06
1.91258e-07
6.27745e-06
3.85546e-08
5.78267e-06
-3.20916e-07
6.77207e-06
-2.18775e-06
7.92925e-06
-2.69871e-06
8.54699e-06
-2.38705e-06
8.58034e-06
-2.01115e-06
7.68978e-06
-1.34412e-06
-9.66403e-07
6.27773e-06
4.50424e-07
4.48121e-06
9.98292e-07
4.78984e-06
1.44172e-06
5.11827e-06
1.82164e-06
5.18038e-06
2.18791e-06
5.03198e-06
2.56645e-06
4.70984e-06
3.04355e-06
4.32612e-06
3.68527e-06
3.92002e-06
4.50254e-06
3.5433e-06
5.39424e-06
3.38511e-06
6.33906e-06
3.28445e-06
7.31788e-06
3.24334e-06
8.29365e-06
3.24272e-06
9.2846e-06
3.23144e-06
1.02697e-05
3.23721e-06
1.1257e-05
3.23547e-06
1.22539e-05
3.22521e-06
1.32243e-05
3.26364e-06
1.41965e-05
3.25925e-06
1.51543e-05
3.25119e-06
1.60708e-05
3.26774e-06
1.70158e-05
3.20956e-06
1.7954e-05
3.16569e-06
1.8846e-05
3.16531e-06
1.97847e-05
3.09079e-06
2.06642e-05
3.1181e-06
2.147e-05
3.16103e-06
2.22727e-05
3.17811e-06
2.29632e-05
3.27111e-06
2.36076e-05
3.32152e-06
2.41423e-05
3.40963e-06
2.45475e-05
3.51659e-06
2.48825e-05
3.62411e-06
2.5155e-05
3.65978e-06
2.5345e-05
3.75635e-06
2.54242e-05
3.88568e-06
2.55913e-05
3.8657e-06
2.55892e-05
3.97575e-06
2.51826e-05
4.02801e-06
2.45886e-05
3.95235e-06
2.38495e-05
3.9313e-06
2.32244e-05
3.5646e-06
2.27687e-05
2.95641e-06
2.23982e-05
2.54522e-06
2.2274e-05
2.34342e-06
2.23194e-05
2.07848e-06
2.26638e-05
1.46883e-06
2.34624e-05
5.05957e-07
2.46388e-05
-5.41314e-07
2.62649e-05
-1.48399e-06
2.76362e-05
-1.18696e-06
2.84983e-05
-7.71744e-07
2.90822e-05
-1.65585e-07
2.91509e-05
9.05946e-07
2.86662e-05
1.69899e-06
2.81693e-05
2.07296e-06
2.79904e-05
2.07092e-06
2.68864e-05
1.89181e-06
2.40863e-05
2.06166e-06
2.05378e-05
2.7226e-06
1.68325e-05
3.32097e-06
1.33101e-05
3.36803e-06
1.06176e-05
3.25688e-06
8.64744e-06
3.06424e-06
6.95291e-06
2.69746e-06
5.42784e-06
2.14068e-06
4.11165e-06
1.48951e-06
2.96931e-06
8.4909e-07
2.0044e-06
2.16261e-07
1.20625e-06
-3.77133e-07
5.22497e-07
-8.88727e-07
-5.00599e-08
-1.37364e-06
-5.1526e-07
-1.82051e-06
-9.32576e-07
-2.20323e-06
-1.2759e-06
-2.55926e-06
-1.5953e-06
-2.85718e-06
-1.89731e-06
-3.12558e-06
-2.17531e-06
-3.3854e-06
-2.43762e-06
-3.62938e-06
-2.68135e-06
-3.85857e-06
-2.92995e-06
-4.04689e-06
-3.19775e-06
-4.18631e-06
-3.48366e-06
-4.31981e-06
-3.72102e-06
-4.53294e-06
-3.97257e-06
-4.64163e-06
-4.22725e-06
-4.7554e-06
-4.48288e-06
-4.83552e-06
-4.71e-06
-4.96667e-06
-4.96039e-06
-5.04089e-06
-5.17239e-06
-5.12233e-06
-5.36409e-06
-5.19318e-06
-5.52862e-06
-5.27829e-06
-5.70309e-06
-5.3173e-06
-5.85347e-06
-5.33596e-06
-5.96888e-06
-5.42458e-06
-6.09143e-06
-5.46875e-06
-6.16689e-06
-5.47729e-06
-6.20125e-06
-5.57344e-06
-6.23368e-06
-5.57619e-06
-6.23782e-06
-5.59601e-06
-6.23035e-06
-5.61551e-06
-6.20878e-06
-5.62835e-06
-6.20121e-06
-5.59392e-06
-6.16568e-06
-5.62153e-06
-6.15054e-06
-5.55209e-06
-6.09728e-06
-5.5874e-06
-6.03634e-06
-5.58274e-06
-5.96331e-06
-5.54657e-06
-5.90944e-06
-5.47272e-06
-5.84775e-06
-5.40662e-06
-5.80985e-06
-5.36137e-06
-5.69129e-06
-5.36431e-06
-5.55805e-06
-5.29195e-06
-5.37321e-06
-5.18635e-06
-5.34809e-06
-4.91504e-06
-5.3556e-06
-4.7286e-06
-5.32867e-06
-4.50349e-06
-5.39068e-06
-4.23452e-06
-5.40894e-06
-4.16099e-06
-5.16713e-06
-4.16684e-06
-4.9992e-06
-3.58571e-06
-5.30856e-06
-2.58956e-06
-5.79087e-06
-2.14889e-06
-6.27999e-06
-1.73132e-06
-6.77449e-06
-1.05402e-06
-7.27808e-06
-3.66719e-07
-7.60212e-06
-4.33426e-09
-7.6295e-06
-1.4385e-07
-7.35651e-06
-3.54725e-07
-6.60023e-06
-1.06037e-06
-5.7432e-06
-7.71724e-07
-4.73177e-06
-1.16747e-06
-3.40388e-06
-6.66674e-07
-1.89378e-06
-1.6375e-06
-4.33101e-07
-5.0499e-07
1.33286e-06
-1.68119e-06
2.28418e-06
-9.30125e-08
3.76398e-06
-3.13952e-09
4.82111e-06
2.65469e-07
5.25844e-06
1.53934e-06
5.39164e-06
2.19701e-06
6.05213e-06
1.51704e-06
6.72867e-06
1.81329e-06
7.71487e-06
1.49072e-06
8.78646e-06
1.38511e-06
1.00011e-05
1.26889e-06
1.09403e-05
1.76982e-06
1.17562e-05
2.25294e-06
1.22128e-05
3.09485e-06
1.24891e-05
3.56296e-06
1.25555e-05
3.91535e-06
1.22036e-05
4.53135e-06
1.12755e-05
5.3517e-06
1.00534e-05
5.84487e-06
8.94977e-06
5.7406e-06
8.22772e-06
5.39751e-06
7.76144e-06
5.09032e-06
7.32602e-06
5.13442e-06
7.08026e-06
4.67821e-06
6.93268e-06
4.44386e-06
6.94846e-06
3.95359e-06
6.81249e-06
3.92036e-06
6.28881e-06
4.31216e-06
5.33813e-06
5.02618e-06
4.8675e-06
4.54971e-06
4.21153e-06
4.50622e-06
3.22937e-06
4.68447e-06
1.92324e-06
5.01749e-06
3.13763e-06
-5.92695e-07
7.09853e-06
-5.4156e-06
9.61094e-06
-2.43201e-06
9.12563e-06
6.93468e-07
8.31818e-06
2.31309e-07
7.91107e-06
-1.05947e-06
9.71556e-06
-4.99718e-06
1.21053e-05
-6.31078e-06
1.31268e-05
-5.41837e-06
1.3018e-05
-4.12654e-06
1.16971e-05
-2.67917e-06
-2.09443e-06
9.82883e-06
4.89415e-07
6.43046e-06
1.17056e-06
6.65752e-06
1.85515e-06
7.15799e-06
2.44285e-06
7.41614e-06
2.88757e-06
7.31235e-06
3.29921e-06
6.83459e-06
3.79279e-06
6.25857e-06
4.40791e-06
5.70523e-06
5.12821e-06
5.22747e-06
5.91694e-06
5.01469e-06
6.71777e-06
4.91796e-06
7.54325e-06
4.86841e-06
8.39873e-06
4.85431e-06
9.27777e-06
4.83018e-06
1.01797e-05
4.82275e-06
1.10906e-05
4.81769e-06
1.20227e-05
4.78394e-06
1.29707e-05
4.81277e-06
1.39268e-05
4.80122e-06
1.48935e-05
4.76326e-06
1.58772e-05
4.74906e-06
1.68671e-05
4.69276e-06
1.78605e-05
4.60611e-06
1.88258e-05
4.58256e-06
1.97997e-05
4.51128e-06
2.07373e-05
4.52992e-06
2.15892e-05
4.57898e-06
2.23981e-05
4.62475e-06
2.31393e-05
4.73142e-06
2.38361e-05
4.78458e-06
2.44028e-05
4.92634e-06
2.48383e-05
5.11405e-06
2.5258e-05
5.20653e-06
2.54976e-05
5.3125e-06
2.56794e-05
5.45703e-06
2.58909e-05
5.45111e-06
2.59979e-05
5.45043e-06
2.60741e-05
5.58495e-06
2.62182e-05
5.4384e-06
2.62109e-05
5.41138e-06
2.60093e-05
5.62758e-06
2.56189e-05
5.53165e-06
2.48401e-05
5.28689e-06
2.41638e-05
4.89294e-06
2.38329e-05
4.1663e-06
2.35101e-05
3.30138e-06
2.35066e-05
2.25132e-06
2.38823e-05
9.68661e-07
2.49427e-05
-9.47709e-07
2.60079e-05
-1.9396e-06
2.66599e-05
-1.28058e-06
2.66469e-05
-4.27537e-07
2.61583e-05
5.89927e-07
2.55227e-05
1.94056e-06
2.44691e-05
3.12592e-06
2.29451e-05
3.92533e-06
2.07125e-05
4.55231e-06
1.77205e-05
4.94296e-06
1.4513e-05
5.2033e-06
1.18453e-05
5.2249e-06
9.75817e-06
5.06919e-06
7.8969e-06
4.73223e-06
6.32294e-06
4.21512e-06
5.10464e-06
3.55293e-06
4.20592e-06
2.7767e-06
3.47078e-06
1.97536e-06
2.82999e-06
1.15118e-06
2.30912e-06
3.16185e-07
1.83403e-06
-4.38586e-07
1.42079e-06
-1.17179e-06
1.06288e-06
-1.8233e-06
7.39767e-07
-2.42992e-06
4.77167e-07
-3.02618e-06
2.17139e-07
-3.49895e-06
-3.64352e-08
-3.95171e-06
-2.79591e-07
-4.34671e-06
-5.21853e-07
-4.70145e-06
-7.70594e-07
-5.03869e-06
-1.02768e-06
-5.35164e-06
-1.27523e-06
-5.66663e-06
-1.54614e-06
-5.9014e-06
-1.81801e-06
-6.10247e-06
-2.10052e-06
-6.28168e-06
-2.36918e-06
-6.56007e-06
-2.66805e-06
-6.68649e-06
-2.96338e-06
-6.83882e-06
-3.25054e-06
-6.95698e-06
-3.47441e-06
-7.17245e-06
-3.71792e-06
-7.24805e-06
-3.95104e-06
-7.34725e-06
-4.19515e-06
-7.41233e-06
-4.43349e-06
-7.50142e-06
-4.61691e-06
-7.5958e-06
-4.77835e-06
-7.61207e-06
-4.9158e-06
-7.7118e-06
-5.04861e-06
-7.76005e-06
-5.14934e-06
-7.77739e-06
-5.19923e-06
-7.90799e-06
-5.28283e-06
-7.88676e-06
-5.30255e-06
-7.9517e-06
-5.31001e-06
-7.99641e-06
-5.30212e-06
-8.0365e-06
-5.30778e-06
-8.00989e-06
-5.30008e-06
-8.05743e-06
-5.29062e-06
-8.01941e-06
-5.28056e-06
-8.05924e-06
-5.29881e-06
-8.04795e-06
-5.32772e-06
-8.00949e-06
-5.37553e-06
-7.92312e-06
-5.41751e-06
-7.87461e-06
-5.36293e-06
-7.94689e-06
-5.16291e-06
-8.14562e-06
-4.95926e-06
-8.07947e-06
-4.98721e-06
-7.64075e-06
-5.12873e-06
-7.1795e-06
-5.2467e-06
-6.94909e-06
-5.14992e-06
-6.86368e-06
-5.08525e-06
-6.47372e-06
-5.31707e-06
-5.94114e-06
-5.36855e-06
-5.94946e-06
-5.0618e-06
-5.54068e-06
-4.95201e-06
-4.04931e-06
-5.36944e-06
-2.75787e-06
-5.96983e-06
-1.97931e-06
-6.44273e-06
-1.33572e-06
-6.62104e-06
-8.47562e-07
-6.56122e-06
-5.87941e-07
-6.16094e-06
-9.05284e-07
-5.72849e-06
-9.7357e-07
-5.01881e-06
-1.7665e-06
-4.03784e-06
-1.55088e-06
-3.26932e-06
-1.537e-06
-1.37227e-06
-2.03761e-06
3.90717e-08
-2.37875e-06
1.36954e-06
-1.05292e-06
3.14473e-06
-2.61505e-06
3.53895e-06
6.67986e-07
5.7035e-06
-9.82415e-07
7.25665e-06
6.28471e-08
8.50196e-06
1.44209e-06
8.25232e-06
3.54468e-06
8.07694e-06
2.95736e-06
8.21022e-06
3.06703e-06
9.00797e-06
2.11985e-06
1.00588e-05
1.73849e-06
1.13591e-05
1.38769e-06
1.24649e-05
2.13195e-06
1.31716e-05
3.10672e-06
1.33024e-05
4.63662e-06
1.36095e-05
4.98609e-06
1.41897e-05
5.0806e-06
1.45736e-05
5.76592e-06
1.38652e-05
7.52469e-06
1.25483e-05
8.54998e-06
1.13053e-05
8.47698e-06
1.02821e-05
8.03087e-06
9.53174e-06
7.49562e-06
9.05856e-06
7.28411e-06
9.06238e-06
6.43456e-06
9.29806e-06
6.15113e-06
9.26548e-06
6.05203e-06
8.66292e-06
6.66344e-06
7.61439e-06
7.53534e-06
6.5016e-06
8.29826e-06
5.6438e-06
7.15955e-06
5.32166e-06
6.36714e-06
4.70105e-06
6.78172e-06
2.9757e-06
7.46923e-06
2.53464e-06
1.33e-07
5.77485e-06
-8.61592e-06
9.94146e-06
-5.733e-06
1.12769e-05
1.29902e-07
1.03495e-05
4.763e-07
7.86689e-06
-6.33982e-07
8.37221e-06
-6.74587e-06
1.21688e-05
-9.99622e-06
1.47307e-05
-8.50249e-06
1.53789e-05
-6.17142e-06
1.45213e-05
-3.96192e-06
-3.45728e-06
1.2805e-05
4.98559e-07
8.2293e-06
1.08489e-06
8.41283e-06
1.76492e-06
8.88309e-06
2.4093e-06
9.17029e-06
2.99395e-06
8.98779e-06
3.55923e-06
8.43172e-06
4.22669e-06
7.75639e-06
4.87536e-06
7.25607e-06
5.4558e-06
6.88382e-06
6.09377e-06
6.65502e-06
6.75308e-06
6.58059e-06
7.44122e-06
6.54271e-06
8.18091e-06
6.50798e-06
8.97448e-06
6.4553e-06
9.83787e-06
6.39773e-06
1.07534e-05
6.35298e-06
1.17003e-05
6.29807e-06
1.27057e-05
6.27403e-06
1.37621e-05
6.21067e-06
1.48087e-05
6.1605e-06
1.59005e-05
6.09646e-06
1.70006e-05
6.02481e-06
1.80323e-05
5.9397e-06
1.90845e-05
5.86271e-06
2.01438e-05
5.79219e-06
2.11897e-05
5.7722e-06
2.21026e-05
5.85527e-06
2.29792e-05
5.9245e-06
2.38289e-05
6.02708e-06
2.45776e-05
6.11178e-06
2.51875e-05
6.33656e-06
2.57188e-05
6.53986e-06
2.61485e-05
6.69846e-06
2.6339e-05
6.98535e-06
2.64675e-05
7.13623e-06
2.64467e-05
7.21843e-06
2.63134e-05
7.29788e-06
2.62901e-05
7.19374e-06
2.63282e-05
6.94676e-06
2.63238e-05
6.96344e-06
2.63641e-05
6.84013e-06
2.64048e-05
6.64324e-06
2.62041e-05
6.80756e-06
2.58938e-05
6.58395e-06
2.56168e-05
5.85829e-06
2.51426e-05
5.08118e-06
2.45528e-05
3.91901e-06
2.42324e-05
2.15915e-06
2.37111e-05
2.37334e-07
2.27741e-05
-2.77351e-07
2.19322e-05
2.34417e-07
2.07361e-05
1.14417e-06
1.93541e-05
2.27418e-06
1.80199e-05
3.64986e-06
1.6599e-05
4.87819e-06
1.49438e-05
5.82586e-06
1.31573e-05
6.41685e-06
1.12796e-05
6.75927e-06
9.51859e-06
6.75774e-06
8.02402e-06
6.37448e-06
6.87942e-06
5.76658e-06
5.93226e-06
5.15006e-06
5.15787e-06
4.38177e-06
4.50217e-06
3.53833e-06
3.94025e-06
2.60211e-06
3.47317e-06
1.63805e-06
3.04832e-06
6.96394e-07
2.65523e-06
-2.57025e-07
2.33141e-06
-1.16994e-06
2.06491e-06
-2.05452e-06
1.83243e-06
-2.84084e-06
1.62776e-06
-3.57833e-06
1.37746e-06
-4.23429e-06
1.17668e-06
-4.8621e-06
9.68777e-07
-5.40854e-06
7.75087e-07
-5.91351e-06
5.71997e-07
-6.35133e-06
3.61885e-07
-6.76817e-06
1.34572e-07
-7.15008e-06
-8.95105e-08
-7.54591e-06
-3.55699e-07
-7.80672e-06
-6.63489e-07
-8.02858e-06
-9.23773e-07
-8.30215e-06
-1.21099e-06
-8.61743e-06
-1.48598e-06
-8.79005e-06
-1.77562e-06
-8.96592e-06
-2.03399e-06
-9.14366e-06
-2.33397e-06
-9.34411e-06
-2.59954e-06
-9.47516e-06
-2.82628e-06
-9.62335e-06
-3.06838e-06
-9.68083e-06
-3.28546e-06
-9.79009e-06
-3.49168e-06
-9.87924e-06
-3.70187e-06
-9.86839e-06
-3.86241e-06
-1.00034e-05
-3.96939e-06
-1.00782e-05
-4.09758e-06
-1.00126e-05
-4.15747e-06
-1.01965e-05
-4.23046e-06
-1.01053e-05
-4.19003e-06
-1.02402e-05
-4.20797e-06
-1.01881e-05
-4.19167e-06
-1.02126e-05
-4.15157e-06
-1.01791e-05
-4.09142e-06
-1.02158e-05
-4.05538e-06
-1.01434e-05
-4.05886e-06
-1.0132e-05
-4.09709e-06
-1.00667e-05
-4.16162e-06