/*--------------------------------*- C++ -*----------------------------------*\
| =========                 |                                                 |
| \\      /  F ield         | OpenFOAM: The Open Source CFD Toolbox           |
|  \\    /   O peration     | Version:  dev                                   |
|   \\  /    A nd           | Web:      http://www.openfoam.org               |
|    \\/     M anipulation  |                                                 |
\*---------------------------------------------------------------------------*/
FoamFile
{
    version     2.0;
    format      ascii;
    class       volScalarField;
    object      pMean;
    location    "9.123";
}
// * * * * * * * * * * * * * * * * * * * * * * * * * * * * * * * * * * * * * //

dimensions      [1 -1 -2 0 0 0 0];

internalField   nonuniform List<scalar> 
12225
(
98312.8
98293
98279.2
98272.2
98258
98248.6
98230.1
98220.5
98199.1
98190.3
98165.6
98158.8
98127.8
98121.5
98080.8
98041.1
97952
97586.3
98308.3
98291.9
98278.7
98271.7
98257.4
98248
98229.4
98220
98198.4
98189.9
98164.9
98158.3
98127.5
98119.6
98079
98045.2
97952.9
97791.9
98304.5
98290.3
98277.7
98270.3
98255.9
98246.5
98227.9
98218.6
98196.9
98188.4
98164.1
98156.2
98128
98116.2
98081.3
98046.1
97978.8
97890
98299.4
98287.4
98275.5
98267.9
98253.5
98243.8
98225.9
98216
98195.2
98185.7
98162.7
98153.1
98126.9
98114
98082.3
98054.5
98006
97937.2
98292.8
98283
98272
98263.8
98250
98239.7
98222.8
98211.8
98192.7
98181.4
98161.2
98148.6
98127.1
98110.8
98084.2
98060
98020.2
97987.5
98284.5
98276.8
98266.1
98257.8
98244.3
98233.8
98217.7
98206.1
98188.3
98176.2
98158
98144.4
98126
98109.1
98087.7
98062.5
98040.3
98019.9
98274.2
98267.9
98257.6
98249.1
98236.5
98225.4
98210.6
98198
98182.3
98168.8
98153.4
98138.3
98123.8
98106.2
98092
98071
98060.6
98045.7
98263.5
98257.8
98248.2
98239.5
98227.8
98216.3
98202.7
98189.5
98175.5
98161.2
98148.1
98132.5
98120.9
98103.6
98094.9
98077.1
98075.4
98060.4
98252.7
98247.2
98238.4
98229.5
98218.7
98206.9
98194.4
98180.9
98168.3
98153.7
98142.2
98126.8
98117.1
98101.1
98094.8
98080.6
98080.4
98068.4
98239
98233.6
98225.9
98216.9
98207
98195.2
98183.7
98170.2
98158.9
98144.4
98134.4
98119.5
98111.3
98096.9
98092
98080.2
98079.4
98071.2
98222.1
98216.6
98210.1
98201.3
98192.2
98180.7
98169.9
98157
98146.5
98132.9
98123.6
98110.4
98102.4
98090.9
98085.3
98076.7
98074.1
98068.9
98201.5
98195.8
98190.6
98182.1
98173.8
98162.7
98152.9
98140.6
98131
98118.4
98109.8
98098.3
98090.8
98081.5
98075.8
98069.4
98065.8
98062.2
98176.7
98171.4
98166.9
98159.4
98151.4
98141.5
98132.1
98121.2
98112
98101.3
98092.9
98083.6
98076.4
98069.2
98063.7
98058.9
98055.3
98052.5
98148.5
98143.7
98139.7
98133.1
98125.9
98117
98108.4
98098.9
98090.4
98081.4
98073.7
98066.1
98059.7
98054
98049.4
98045.6
98042.6
98040.5
98118.3
98114.6
98110.8
98105.4
98098.9
98091.3
98083.5
98075.4
98067.8
98060.4
98053.7
98047.6
98042.3
98037.8
98034.1
98031.1
98028.9
98027.5
98090.6
98087.8
98084.5
98080
98074.4
98067.9
98061.1
98054.2
98047.7
98041.5
98035.9
98030.9
98026.6
98023.1
98020.2
98018.1
98016.5
98015.6
98072
98070
98067.3
98063.4
98058.4
98052.8
98046.8
98040.9
98035.3
98030
98025.2
98021.1
98017.5
98014.6
98012.3
98010.6
98009.5
98008.9
98072.2
98070.6
98068
98064.3
98059.6
98054.3
98048.7
98043.1
98037.8
98032.9
98028.4
98024.5
98021.1
98018.3
98016.1
98014.4
98013.2
98012.5
98092
98090.2
98087.3
98083.3
98078.4
98072.9
98067.1
98061.3
98055.7
98050.5
98045.7
98041.5
98037.7
98034.6
98031.9
98029.7
98028.1
98026.8
98122.8
98120.6
98117.2
98112.7
98107.3
98101.3
98094.9
98088.6
98082.5
98076.6
98071.2
98066.3
98061.9
98058.1
98054.7
98051.9
98049.5
98047.6
98157.6
98155.1
98151
98145.8
98139.7
98133.1
98126.1
98119.2
98112.3
98105.8
98099.7
98094
98088.9
98084.3
98080.2
98076.6
98073.4
98070.7
98191.6
98188.5
98183.7
98177.8
98171.1
98163.9
98156.4
98148.8
98141.3
98134.1
98127.3
98120.9
98115.1
98109.7
98104.9
98100.6
98096.7
98093.3
98221.8
98218.1
98212.6
98206.1
98198.9
98191.1
98183.1
98175
98167
98159.2
98151.8
98144.8
98138.4
98132.4
98126.9
98122
98117.5
98113.5
98247.1
98242.8
98236.5
98229.4
98221.7
98213.6
98205.2
98196.7
98188.2
98180
98172.1
98164.7
98157.7
98151.2
98145.3
98139.8
98134.8
98130.3
98267.4
98262.2
98255.1
98247.4
98239.4
98231
98222.4
98213.6
98204.9
98196.3
98188.1
98180.2
98172.9
98166
98159.6
98153.8
98148.4
98143.5
98283.1
98276.7
98268.7
98260.5
98252.3
98243.9
98235.1
98226.1
98217.1
98208.3
98199.8
98191.7
98184.1
98176.9
98170.3
98164.1
98158.5
98153.3
98294.9
98287
98278
98269.5
98261.2
98252.7
98243.8
98234.8
98225.7
98216.7
98208
98199.8
98191.9
98184.6
98177.7
98171.4
98165.5
98160.1
98303.6
98293.8
98283.7
98275
98266.8
98258.3
98249.4
98240.3
98231.2
98222.1
98213.3
98204.9
98197
98189.5
98182.6
98176.1
98170.1
98164.6
98309.7
98297.6
98286.5
98277.8
98269.8
98261.4
98252.7
98243.6
98234.3
98225.2
98216.4
98207.9
98199.9
98192.3
98185.3
98178.7
98172.7
98167.1
98315.6
98300.1
98288
98279.2
98271
98262.7
98253.9
98244.8
98235.6
98226.5
98217.6
98209.1
98201.1
98193.5
98186.4
98179.9
98173.8
98168.2
98312.7
98312.4
98311.6
98310.4
98308.9
98307.1
98304.9
98302.3
98299.2
98295.8
98291.9
98287.6
98283
98278.1
98272.9
98267.4
98261.7
98255.8
98249.7
98243.4
98237
98230.4
98223.7
98216.9
98210
98203
98196
98188.9
98181.8
98174.8
98167.7
98160.6
98153.6
98146.6
98139.8
98133
98126.4
98119.9
98113.5
98107.4
98101.5
98095.8
98090.4
98085.3
98080.4
98076
98071.9
98068.1
98064.8
98062
98059.6
98057.7
98056.3
98055.5
98055.2
98055.5
98056.5
98058.1
98060.4
98063.3
98067
98071.4
98076.4
98082.3
98088.8
98096
98104
98112.6
98121.9
98131.9
98142.5
98153.7
98165.4
98177.7
98190.5
98203.7
98217.3
98231.3
98245.6
98260.2
98275
98290
98305.1
98320.3
98335.6
98350.8
98366
98381.1
98396
98410.7
98425.1
98439.3
98453
98466.4
98479.3
98491.7
98503.6
98514.9
98525.7
98535.8
98545.3
98554.2
98562.4
98570
98577
98583.3
98589
98594.1
98598.7
98602.8
98606.5
98609.7
98612.5
98615
98617.2
98619.1
98620.7
98622.2
98623.4
98624.6
98625.6
98626.7
98627.9
98629.2
98630.8
98632.8
98635.5
98638.9
98643.3
98648.9
98656
98664.7
98675.4
98688.2
98703.6
98721.6
98742.4
98766.1
98792.9
98822.7
98855.7
98891.6
98930.4
98971.9
99016.2
99062.7
99111.7
99162.4
99215
99269.1
99324.6
99381
99438
99495.3
99552.6
99609.2
99664.6
99718.4
99769.4
99817.3
99860.8
99899.2
99931.3
99956.4
99973.2
99980.7
99978.1
99965.2
99941.1
99906.5
99861.1
99806.4
99742.5
99671.8
99594.8
99514.3
99429.7
99345
99258.2
99175.1
98305.8
98305.4
98304.6
98303.5
98301.9
98300.1
98297.8
98295.2
98292.2
98288.8
98285
98280.9
98276.4
98271.6
98266.5
98261.2
98255.7
98249.9
98244
98237.9
98231.7
98225.3
98218.8
98212.1
98205.4
98198.6
98191.7
98184.8
98177.9
98170.9
98164
98157.1
98150.2
98143.4
98136.7
98130.1
98123.6
98117.3
98111.1
98105.1
98099.3
98093.7
98088.4
98083.3
98078.6
98074.2
98070.1
98066.5
98063.2
98060.4
98058
98056.1
98054.7
98053.8
98053.5
98053.8
98054.7
98056.3
98058.5
98061.3
98064.9
98069.2
98074.1
98079.8
98086.2
98093.3
98101.1
98109.6
98118.7
98128.5
98138.9
98149.9
98161.5
98173.5
98186.1
98199.1
98212.5
98226.2
98240.3
98254.6
98269.2
98283.9
98298.8
98313.8
98328.8
98343.7
98358.6
98373.4
98388
98402.5
98416.6
98430.4
98443.9
98457
98469.6
98481.7
98493.3
98504.4
98514.9
98524.8
98534.1
98542.7
98550.7
98558.1
98564.9
98571
98576.6
98581.6
98586.1
98590.1
98593.7
98596.8
98599.6
98602
98604.1
98605.9
98607.5
98608.9
98610.1
98611.1
98612.1
98613.1
98614.2
98615.3
98616.8
98618.6
98621
98624.2
98628.3
98633.6
98640.2
98648.5
98658.7
98671
98685.7
98703.1
98723.2
98746.1
98772.1
98801
98833
98867.9
98905.6
98946.1
98989.3
99034.7
99082.4
99131.9
99183.4
99236.4
99290.7
99345.9
99401.8
99458.1
99514.3
99569.9
99624.4
99677.4
99727.7
99775
99818.1
99856.2
99888.2
99913.4
99930.6
99938.7
99936.9
99925
99902.3
99869.2
99825.4
99772.4
99710.2
99641.4
99566.1
99487.3
99404.4
99321.2
99235.4
99150.5
98293.1
98292.7
98291.9
98290.7
98289.1
98287.2
98284.8
98282.2
98279.2
98275.8
98272.1
98268
98263.7
98259.1
98254.3
98249.2
98244
98238.6
98233
98227.3
98221.4
98215.4
98209.3
98203
98196.7
98190.2
98183.7
98177.1
98170.4
98163.8
98157.1
98150.5
98143.9
98137.3
98130.9
98124.5
98118.2
98112.1
98106.1
98100.4
98094.8
98089.4
98084.2
98079.3
98074.7
98070.4
98066.5
98062.9
98059.7
98056.9
98054.5
98052.6
98051.2
98050.3
98049.9
98050.1
98050.9
98052.3
98054.4
98057.1
98060.5
98064.5
98069.3
98074.7
98080.8
98087.7
98095.2
98103.3
98112.2
98121.6
98131.7
98142.3
98153.5
98165.2
98177.3
98189.9
98202.8
98216.2
98229.8
98243.7
98257.8
98272.1
98286.4
98300.9
98315.4
98329.9
98344.2
98358.5
98372.6
98386.4
98400
98413.3
98426.2
98438.7
98450.8
98462.3
98473.4
98484
98493.9
98503.4
98512.2
98520.4
98528
98535
98541.4
98547.3
98552.6
98557.3
98561.6
98565.3
98568.7
98571.7
98574.3
98576.6
98578.6
98580.3
98581.7
98583
98584
98584.9
98585.8
98586.5
98587.3
98588.2
98589.3
98590.7
98592.6
98595.2
98598.7
98603.2
98609.1
98616.4
98625.6
98636.8
98650.3
98666.3
98684.9
98706.3
98730.5
98757.6
98787.7
98820.6
98856.2
98894.5
98935.5
98978.6
99024
99071.2
99120.2
99170.9
99222.8
99275.7
99329.4
99383.5
99437.6
99491.2
99543.8
99595
99643.8
99689.7
99731.6
99769
99800.4
99825.6
99843.1
99851.9
99851.5
99841.4
99821
99790.6
99749.9
99700.2
99641.7
99576.5
99504.9
99429.6
99350.1
99270.1
99187.1
99103.3
98275.6
98275.3
98274.5
98273.3
98271.7
98269.7
98267.4
98264.7
98261.7
98258.4
98254.8
98250.9
98246.7
98242.4
98237.8
98233.1
98228.2
98223.2
98218
98212.7
98207.3
98201.8
98196.1
98190.3
98184.4
98178.5
98172.4
98166.3
98160.1
98153.9
98147.7
98141.5
98135.4
98129.2
98123.1
98117.1
98111.2
98105.4
98099.8
98094.2
98088.9
98083.7
98078.8
98074.1
98069.6
98065.5
98061.7
98058.2
98055.1
98052.3
98050
98048.1
98046.6
98045.6
98045.1
98045.2
98045.9
98047.1
98049
98051.5
98054.6
98058.3
98062.8
98067.9
98073.6
98080
98087.1
98094.9
98103.3
98112.3
98121.8
98131.9
98142.6
98153.7
98165.3
98177.3
98189.7
98202.4
98215.4
98228.6
98242
98255.6
98269.3
98283.1
98296.9
98310.6
98324.2
98337.7
98351.1
98364.2
98377
98389.5
98401.7
98413.4
98424.7
98435.6
98445.9
98455.7
98465
98473.7
98481.9
98489.5
98496.6
98503
98509
98514.4
98519.2
98523.6
98527.5
98531
98534.1
98536.8
98539.2
98541.3
98543.1
98544.6
98545.9
98546.9
98547.8
98548.5
98549
98549.4
98549.8
98550.3
98550.8
98551.7
98552.9
98554.7
98557.3
98560.8
98565.5
98571.5
98579.3
98588.9
98600.7
98614.8
98631.3
98650.5
98672.4
98697
98724.5
98754.6
98787.3
98822.6
98860.5
98900.5
98942.7
98986.7
99032.6
99080
99128.8
99178.6
99229.3
99280.5
99331.6
99382.5
99432.4
99481.2
99527.9
99571.8
99612.2
99648.3
99678.9
99703.6
99721.4
99731
99732
99723.9
99706.2
99679.1
99642.3
99596.9
99543
99482.7
99415.8
99345.4
99270.6
99195.1
99116.4
99036.3
98254.4
98254.1
98253.4
98252.2
98250.7
98248.8
98246.5
98243.9
98241
98237.8
98234.3
98230.5
98226.6
98222.5
98218.2
98213.8
98209.3
98204.7
98199.9
98195.1
98190.2
98185.1
98180
98174.7
98169.4
98163.9
98158.4
98152.9
98147.3
98141.7
98136.1
98130.4
98124.8
98119.2
98113.6
98108.1
98102.6
98097.3
98092
98086.9
98081.9
98077.1
98072.4
98068
98063.8
98059.8
98056.2
98052.8
98049.8
98047.1
98044.8
98042.9
98041.4
98040.3
98039.7
98039.7
98040.1
98041.2
98042.8
98044.9
98047.7
98051.1
98055.1
98059.8
98065.1
98071
98077.6
98084.7
98092.5
98100.9
98109.9
98119.4
98129.3
98139.8
98150.7
98161.9
98173.5
98185.4
98197.6
98210
98222.6
98235.3
98248.2
98261
98273.9
98286.7
98299.4
98312
98324.4
98336.6
98348.5
98360.1
98371.3
98382.1
98392.5
98402.4
98411.8
98420.7
98429.2
98437.1
98444.5
98451.3
98457.7
98463.5
98468.8
98473.6
98478
98481.9
98485.4
98488.4
98491.2
98493.6
98495.7
98497.6
98499.1
98500.4
98501.4
98502.2
98502.7
98503.1
98503.2
98503.2
98503.1
98503
98503
98503.1
98503.5
98504.3
98505.7
98508
98511.3
98515.8
98521.8
98529.5
98539.1
98550.9
98565
98581.5
98600.6
98622.1
98646.4
98673.2
98702.4
98734.1
98768.3
98804.6
98843
98883.2
98925.2
98968.8
99013.9
99060
99106.9
99154.6
99202.2
99249.7
99296.5
99342.3
99386.3
99427.9
99466.2
99500.6
99530.1
99554.2
99571.9
99582.2
99584.5
99578.7
99564
99540.6
99508.2
99467.8
99419.3
99364.7
99303.6
99239.2
99170.1
99100.3
99027
98952.4
98230.9
98230.7
98230.1
98229
98227.6
98225.8
98223.7
98221.2
98218.5
98215.4
98212.1
98208.6
98204.9
98201.1
98197.1
98193
98188.8
98184.6
98180.2
98175.8
98171.3
98166.7
98162.1
98157.3
98152.5
98147.7
98142.8
98137.8
98132.8
98127.8
98122.8
98117.8
98112.7
98107.7
98102.7
98097.7
98092.9
98088
98083.3
98078.6
98074
98069.6
98065.3
98061.2
98057.3
98053.6
98050.1
98046.9
98044
98041.4
98039.2
98037.3
98035.7
98034.6
98033.9
98033.7
98033.9
98034.7
98036
98037.8
98040.2
98043.2
98046.8
98050.9
98055.6
98061
98066.9
98073.5
98080.6
98088.3
98096.5
98105.2
98114.4
98124
98134.1
98144.5
98155.2
98166.2
98177.4
98188.9
98200.5
98212.2
98224
98235.8
98247.6
98259.4
98271
98282.5
98293.9
98305
98315.8
98326.3
98336.4
98346.2
98355.5
98364.4
98372.8
98380.7
98388.2
98395.2
98401.7
98407.7
98413.3
98418.3
98422.9
98427.1
98430.8
98434.2
98437.2
98439.8
98442.2
98444.2
98445.9
98447.4
98448.6
98449.6
98450.2
98450.7
98450.9
98450.8
98450.5
98450
98449.4
98448.6
98447.8
98447.1
98446.5
98446.2
98446.3
98447.1
98448.8
98451.6
98455.6
98461.1
98468.4
98477.6
98488.9
98502.4
98518.3
98536.5
98557.2
98580.2
98605.7
98633.4
98663.4
98695.6
98729.8
98765.9
98803.7
98843.1
98884
98925.9
98968.8
99012.4
99056.2
99100
99143.3
99185.7
99226.6
99265.4
99301.4
99333.8
99361.8
99385
99402.4
99413.1
99416.7
99413
99401.3
99381.9
99354
99318.9
99276
99227.6
99172.9
99115.1
99052.6
98989.3
98922.4
98854.4
98206.5
98206.3
98205.8
98204.8
98203.6
98202
98200
98197.8
98195.2
98192.4
98189.4
98186.2
98182.8
98179.2
98175.6
98171.8
98168
98164.1
98160.1
98156
98152
98147.8
98143.6
98139.4
98135.1
98130.8
98126.4
98122
98117.6
98113.2
98108.8
98104.3
98099.9
98095.5
98091.1
98086.7
98082.3
98078
98073.8
98069.6
98065.5
98061.5
98057.6
98053.8
98050.2
98046.8
98043.5
98040.5
98037.8
98035.3
98033.1
98031.2
98029.6
98028.4
98027.6
98027.2
98027.3
98027.8
98028.8
98030.3
98032.3
98034.8
98037.8
98041.4
98045.6
98050.3
98055.6
98061.4
98067.8
98074.7
98082.1
98090
98098.3
98107
98116.1
98125.6
98135.3
98145.3
98155.5
98165.9
98176.4
98187
98197.7
98208.4
98219
98229.6
98240.1
98250.4
98260.6
98270.5
98280.1
98289.4
98298.4
98307
98315.2
98323
98330.3
98337.2
98343.6
98349.7
98355.3
98360.4
98365
98369.3
98373.1
98376.6
98379.7
98382.4
98384.8
98387
98388.8
98390.4
98391.7
98392.8
98393.5
98394.1
98394.4
98394.4
98394.1
98393.6
98392.8
98391.8
98390.5
98389
98387.3
98385.6
98384
98382.4
98381.2
98380.4
98380.4
98381.3
98383.1
98386.4
98391.1
98397.6
98405.9
98416.3
98428.8
98443.4
98460.4
98479.5
98501
98524.5
98550.3
98578.1
98607.9
98639.7
98673
98708.1
98744.5
98782.2
98820.8
98860.1
98899.8
98939.7
98979.3
99018
99055.5
99091.2
99124.5
99154.6
99180.7
99202.6
99219.4
99230.4
99235
99233.3
99224.4
99208.7
99185.2
99155.4
99118.4
99076.2
99028.2
98977.5
98921.9
98865.7
98805.7
98744.9
98182.3
98182.2
98181.8
98181
98179.9
98178.5
98176.8
98174.8
98172.5
98170
98167.3
98164.4
98161.3
98158.1
98154.8
98151.3
98147.8
98144.3
98140.7
98137
98133.3
98129.5
98125.8
98122
98118.2
98114.4
98110.5
98106.7
98102.8
98098.9
98095
98091.1
98087.2
98083.4
98079.5
98075.7
98071.8
98068
98064.2
98060.5
98056.8
98053.2
98049.6
98046.2
98042.9
98039.7
98036.8
98033.9
98031.3
98028.9
98026.8
98024.9
98023.3
98022
98021.1
98020.6
98020.4
98020.6
98021.3
98022.4
98024
98026.1
98028.6
98031.6
98035.2
98039.3
98043.9
98049
98054.6
98060.7
98067.2
98074.2
98081.6
98089.4
98097.6
98106
98114.7
98123.7
98132.8
98142.1
98151.5
98160.9
98170.4
98179.9
98189.3
98198.7
98207.9
98217
98225.9
98234.5
98242.9
98251
98258.8
98266.2
98273.2
98279.8
98286
98291.8
98297.2
98302.2
98306.9
98311.1
98314.9
98318.3
98321.3
98324
98326.4
98328.5
98330.3
98331.9
98333.2
98334.3
98335.1
98335.6
98335.9
98336
98335.8
98335.4
98334.6
98333.6
98332.2
98330.5
98328.5
98326.2
98323.6
98320.9
98318.1
98315.3
98312.6
98310.3
98308.4
98307.4
98307
98307.9
98310
98313.7
98319.1
98326.3
98335.3
98346.4
98359.5
98374.8
98392.3
98411.7
98433.1
98456.6
98481.9
98509.4
98538.4
98568.9
98601
98634.3
98668.4
98703.5
98739.1
98775
98810.7
98845.6
98879.4
98911.8
98942.1
98969.7
98993.5
99013.8
99029.5
99040.4
99045.8
99045.7
99039.3
99026.9
99007.5
98982.6
98951.2
98915.3
98874
98830.2
98781.8
98732.9
98680.2
98627.1
98159.4
98159.4
98159.1
98158.5
98157.5
98156.3
98154.9
98153.2
98151.2
98149
98146.6
98144
98141.3
98138.4
98135.4
98132.4
98129.2
98126
98122.8
98119.5
98116.2
98112.8
98109.5
98106.1
98102.8
98099.4
98096
98092.6
98089.2
98085.8
98082.4
98078.9
98075.5
98072.1
98068.7
98065.3
98062
98058.6
98055.2
98051.8
98048.5
98045.2
98042
98038.9
98035.8
98032.9
98030.1
98027.4
98025
98022.6
98020.5
98018.7
98017
98015.7
98014.6
98013.9
98013.5
98013.5
98013.8
98014.6
98015.8
98017.4
98019.4
98021.9
98024.9
98028.3
98032.2
98036.6
98041.5
98046.8
98052.5
98058.6
98065.1
98071.9
98079.1
98086.6
98094.2
98102.1
98110.2
98118.3
98126.6
98134.9
98143.2
98151.5
98159.7
98167.8
98175.8
98183.6
98191.2
98198.6
98205.7
98212.5
98219
98225.2
98231
98236.5
98241.6
98246.3
98250.6
98254.5
98258.1
98261.4
98264.3
98266.9
98269.1
98271.1
98272.7
98274.1
98275.3
98276.3
98277
98277.5
98277.8
98277.8
98277.6
98277.1
98276.4
98275.4
98274
98272.4
98270.4
98268
98265.2
98262
98258.5
98254.7
98250.7
98246.6
98242.6
98238.7
98235.1
98232
98229.6
98228.1
98227.7
98228.6
98231
98235.1
98240.8
98248.4
98257.8
98269.3
98282.8
98298.3
98315.6
98334.8
98355.9
98379.1
98403.8
98430
98457.7
98486.7
98516.6
98547.5
98579
98610.9
98642.5
98673.6
98703.7
98732.6
98759.6
98784.4
98805.8
98824
98838.3
98848.6
98854.3
98855.3
98850.7
98841.1
98825.4
98805
98778.7
98748.8
98714
98677.1
98635.7
98594.2
98548.8
98503.5
98138.7
98138.8
98138.6
98138.1
98137.4
98136.4
98135.2
98133.8
98132.1
98130.2
98128.2
98125.9
98123.5
98121
98118.4
98115.7
98112.9
98110.1
98107.2
98104.3
98101.4
98098.4
98095.5
98092.5
98089.6
98086.6
98083.6
98080.6
98077.6
98074.6
98071.5
98068.5
98065.5
98062.5
98059.4
98056.4
98053.4
98050.3
98047.3
98044.2
98041.2
98038.2
98035.2
98032.3
98029.5
98026.7
98024
98021.5
98019.1
98016.8
98014.7
98012.8
98011.1
98009.6
98008.5
98007.5
98006.9
98006.7
98006.7
98007.1
98007.9
98009.1
98010.7
98012.7
98015.1
98018
98021.2
98024.9
98029.1
98033.6
98038.5
98043.8
98049.4
98055.3
98061.6
98068
98074.7
98081.6
98088.5
98095.6
98102.8
98109.9
98117
98124.1
98131.1
98138
98144.8
98151.4
98157.7
98163.8
98169.7
98175.3
98180.6
98185.6
98190.2
98194.5
98198.4
98202
98205.2
98208.1
98210.7
98213
98215
98216.7
98218.2
98219.3
98220.2
98220.9
98221.4
98221.7
98221.8
98221.7
98221.4
98220.9
98220.1
98219
98217.6
98216
98214
98211.6
98208.9
98205.7
98202.1
98198.1
98193.6
98188.7
98183.6
98178.3
98172.9
98167.5
98162.2
98157.3
98152.8
98149.1
98146.3
98144.6
98144.2
98145.2
98147.8
98152
98158
98166
98175.7
98187.4
98200.9
98216.2
98233.3
98252.4
98273.1
98295.3
98318.8
98343.6
98369.5
98396.3
98423.7
98451.6
98479.2
98506.5
98532.9
98558.1
98581.7
98603.5
98622.2
98638.1
98650.5
98659.7
98664.9
98666.4
98663.2
98655.7
98643.2
98626.7
98605
98580.6
98551.9
98521.4
98486.7
98452.4
98414.1
98376.7
98120.9
98121
98120.9
98120.5
98119.9
98119.2
98118.2
98117
98115.7
98114.1
98112.4
98110.5
98108.5
98106.3
98104.1
98101.8
98099.4
98096.9
98094.4
98091.9
98089.4
98086.8
98084.2
98081.6
98079
98076.4
98073.8
98071.1
98068.4
98065.7
98063
98060.3
98057.6
98054.9
98052.1
98049.4
98046.6
98043.8
98041
98038.2
98035.3
98032.5
98029.7
98026.9
98024.2
98021.5
98018.9
98016.5
98014.1
98011.8
98009.7
98007.7
98005.9
98004.4
98003
98001.9
98001.1
98000.6
98000.4
98000.5
98000.9
98001.7
98002.9
98004.4
98006.3
98008.6
98011.3
98014.4
98017.8
98021.6
98025.8
98030.3
98035.1
98040.2
98045.5
98051.1
98056.8
98062.7
98068.7
98074.7
98080.8
98086.9
98092.9
98098.9
98104.7
98110.4
98116
98121.4
98126.5
98131.4
98136.1
98140.5
98144.6
98148.4
98151.8
98155
98157.8
98160.2
98162.4
98164.3
98165.9
98167.2
98168.3
98169.1
98169.7
98170.1
98170.2
98170.1
98169.9
98169.5
98168.9
98168.1
98167.1
98165.9
98164.5
98162.8
98160.8
98158.4
98155.7
98152.6
98149.1
98145.1
98140.7
98135.7
98130.3
98124.4
98118.3
98111.7
98105.1
98098.2
98091.4
98084.8
98078.4
98072.7
98067.7
98063.5
98060.5
98058.8
98058.4
98059.6
98062.4
98067.1
98073.4
98081.6
98091.6
98103.4
98116.8
98132.3
98149.2
98167.7
98187.3
98208.3
98230.3
98253.2
98276.8
98300.7
98324.4
98348
98370.5
98392
98412.1
98430.6
98446.5
98459.7
98469.9
98477.4
98481.4
98482.7
98480.2
98474.3
98464.2
98451
98433.3
98413.9
98390.6
98366
98337.5
98310.1
98278.7
98248.7
98106.2
98106.4
98106.3
98106.1
98105.7
98105.1
98104.4
98103.5
98102.4
98101.1
98099.7
98098.2
98096.5
98094.8
98092.9
98091
98089
98086.9
98084.8
98082.7
98080.5
98078.3
98076.1
98073.9
98071.6
98069.3
98066.9
98064.5
98062.1
98059.7
98057.2
98054.8
98052.3
98049.7
98047.2
98044.6
98042
98039.3
98036.7
98034
98031.2
98028.5
98025.8
98023
98020.4
98017.7
98015.2
98012.6
98010.2
98007.9
98005.7
98003.7
98001.8
98000.1
97998.6
97997.3
97996.3
97995.5
97995.1
97994.9
97995
97995.5
97996.3
97997.4
97998.9
98000.7
98002.9
98005.4
98008.2
98011.4
98014.9
98018.7
98022.7
98027.1
98031.6
98036.3
98041.2
98046.2
98051.2
98056.3
98061.4
98066.4
98071.4
98076.4
98081.1
98085.8
98090.2
98094.5
98098.5
98102.3
98105.8
98109
98111.9
98114.6
98116.9
98119
98120.7
98122.1
98123.2
98124.1
98124.7
98125
98125.2
98125.1
98124.8
98124.3
98123.6
98122.8
98121.8
98120.6
98119.2
98117.7
98116
98114.1
98112
98109.5
98106.8
98103.7
98100.2
98096.3
98092
98087.2
98081.9
98076.1
98069.7
98062.9
98055.7
98048.1
98040.2
98032.1
98023.9
98015.7
98007.7
98000.2
97993.2
97986.8
97981.5
97977.3
97974.3
97972.8
97972.8
97974.5
97977.9
97983
97989.9
97998.5
98008.8
98020.9
98034.5
98049.7
98065.8
98083.3
98101.6
98120.8
98140.8
98160.9
98180.9
98200.8
98219.5
98237.1
98253.6
98268.6
98281.4
98291.7
98299.3
98304.6
98306.9
98307.2
98304.7
98299.8
98291.4
98280.9
98266.7
98251.3
98232.7
98213.6
98190.8
98169.7
98144.7
98121.8
98094.8
98095
98095
98094.9
98094.6
98094.2
98093.7
98093
98092.2
98091.2
98090.2
98089
98087.7
98086.3
98084.9
98083.3
98081.7
98080.1
98078.4
98076.6
98074.9
98073
98071.2
98069.2
98067.3
98065.2
98063.1
98061
98058.8
98056.6
98054.3
98052
98049.6
98047.2
98044.8
98042.3
98039.7
98037.1
98034.5
98031.8
98029.1
98026.3
98023.6
98020.9
98018.2
98015.5
98012.8
98010.3
98007.8
98005.4
98003
98000.9
97998.9
97997
97995.4
97993.9
97992.7
97991.7
97991
97990.6
97990.5
97990.7
97991.1
97991.9
97993
97994.4
97996.1
97998.2
98000.5
98003.1
98006
98009.2
98012.6
98016.3
98020.1
98024.1
98028.1
98032.3
98036.5
98040.8
98045
98049.1
98053.2
98057.1
98060.9
98064.6
98068
98071.2
98074.1
98076.8
98079.3
98081.4
98083.3
98084.8
98086.1
98087.1
98087.8
98088.1
98088.2
98088.1
98087.7
98087.1
98086.3
98085.3
98084.1
98082.8
98081.3
98079.6
98077.8
98075.8
98073.6
98071.3
98068.8
98066.1
98063.2
98060
98056.4
98052.5
98048.2
98043.6
98038.4
98032.8
98026.7
98020
98012.9
98005.1
97997
97988.3
97979.4
97970.2
97960.7
97951.2
97941.8
97932.6
97923.9
97915.7
97908.3
97902
97896.8
97893
97890.6
97889.7
97890.5
97893
97897.2
97903
97910.5
97919.6
97930.2
97942.3
97955.4
97969.7
97984.7
98000.6
98017.1
98033.7
98050.1
98066.3
98081.2
98095
98107.8
98119
98128.6
98135.8
98140.5
98143.4
98143.7
98142.3
98139.1
98134.4
98127.2
98118.6
98107.2
98095.2
98080.5
98066.1
98048.5
98033.1
98013.9
97997.9
98086.4
98086.6
98086.7
98086.7
98086.6
98086.4
98086
98085.6
98085.1
98084.4
98083.7
98082.9
98082
98081
98080
98078.9
98077.7
98076.5
98075.2
98073.9
98072.5
98071
98069.4
98067.8
98066.1
98064.3
98062.4
98060.5
98058.5
98056.4
98054.2
98052
98049.7
98047.3
98044.9
98042.4
98039.8
98037.2
98034.5
98031.7
98029
98026.2
98023.3
98020.5
98017.7
98014.9
98012.1
98009.4
98006.8
98004.2
98001.8
97999.5
97997.3
97995.3
97993.5
97991.9
97990.5
97989.4
97988.5
97987.8
97987.5
97987.4
97987.6
97988.1
97988.9
97989.9
97991.3
97992.9
97994.8
97997
97999.4
98002.1
98005
98008
98011.2
98014.6
98018
98021.4
98024.9
98028.4
98031.8
98035.2
98038.4
98041.5
98044.4
98047.1
98049.6
98051.8
98053.8
98055.5
98056.9
98058.1
98058.9
98059.5
98059.7
98059.7
98059.4
98058.8
98057.9
98056.7
98055.4
98053.9
98052.1
98050.2
98048.1
98045.9
98043.5
98041
98038.3
98035.5
98032.5
98029.3
98026
98022.5
98018.7
98014.6
98010.2
98005.5
98000.4
97994.9
97989
97982.6
97975.6
97968.1
97960.2
97951.7
97942.7
97933.2
97923.3
97913.1
97902.6
97892
97881.4
97870.8
97860.6
97850.8
97841.8
97833.7
97826.7
97820.9
97816.4
97813.4
97812
97812.3
97814.2
97817.6
97822.5
97829.1
97837
97846.3
97856.6
97868.1
97880.2
97893
97906.2
97919.5
97932.5
97945
97956.2
97966.4
97975.3
97982.9
97988.9
97992.8
97994.6
97995
97992.8
97989.5
97985
97979.8
97973.1
97965.8
97956.5
97947.2
97935.8
97925.5
97912.4
97902
97888
97878.2
98080.4
98080.7
98080.9
98080.9
98080.9
98080.9
98080.8
98080.6
98080.4
98080.1
98079.8
98079.4
98079
98078.5
98077.9
98077.3
98076.6
98075.8
98075
98074
98073
98071.9
98070.6
98069.3
98067.8
98066.2
98064.5
98062.7
98060.8
98058.8
98056.7
98054.5
98052.2
98049.8
98047.3
98044.7
98042
98039.3
98036.5
98033.6
98030.7
98027.8
98024.8
98021.8
98018.9
98015.9
98013
98010.1
98007.3
98004.6
98002
97999.5
97997.2
97995
97993.1
97991.3
97989.8
97988.5
97987.4
97986.6
97986
97985.7
97985.7
97986
97986.5
97987.3
97988.4
97989.7
97991.3
97993.1
97995.2
97997.4
97999.8
98002.4
98005.1
98007.9
98010.7
98013.6
98016.4
98019.3
98022
98024.6
98027.1
98029.4
98031.5
98033.4
98035
98036.4
98037.5
98038.3
98038.8
98039
98039
98038.6
98037.9
98036.9
98035.6
98034.1
98032.2
98030.2
98027.9
98025.4
98022.8
98020
98017
98013.9
98010.6
98007.2
98003.6
97999.9
97996.1
97992
97987.8
97983.4
97978.7
97973.8
97968.5
97963
97957.1
97950.8
97944
97936.8
97929.1
97920.9
97912.2
97903
97893.3
97883.1
97872.4
97861.5
97850.2
97838.6
97827
97815.4
97803.9
97792.9
97782.5
97773
97764.4
97757
97750.9
97746.2
97743
97741.3
97741.1
97742.5
97745.2
97749.5
97755.1
97761.9
97769.8
97778.8
97788.2
97798.1
97808.2
97818.2
97828
97837
97844.7
97851.2
97856.3
97860.2
97862.5
97863
97861.7
97859.5
97854.9
97849.4
97843.3
97837.1
97830.3
97823.7
97815.7
97808.5
97799.8
97792.9
97783.5
97777.7
97768.3
97764
98076.1
98076.3
98076.6
98076.8
98076.9
98077.1
98077.3
98077.5
98077.7
98077.9
98078.1
98078.2
98078.3
98078.4
98078.4
98078.2
98078
98077.7
98077.3
98076.7
98076
98075.2
98074.3
98073.2
98071.9
98070.5
98068.9
98067.2
98065.4
98063.4
98061.3
98059
98056.7
98054.2
98051.6
98048.9
98046.1
98043.2
98040.3
98037.2
98034.2
98031
98027.9
98024.7
98021.5
98018.4
98015.2
98012.2
98009.2
98006.3
98003.6
98000.9
97998.5
97996.2
97994.1
97992.2
97990.5
97989
97987.8
97986.9
97986.2
97985.7
97985.5
97985.6
97986
97986.6
97987.4
97988.5
97989.8
97991.4
97993.1
97995
97997.1
97999.3
98001.6
98003.9
98006.3
98008.6
98010.9
98013.2
98015.3
98017.3
98019.2
98020.8
98022.2
98023.3
98024.2
98024.8
98025.1
98025.1
98024.8
98024.2
98023.2
98022
98020.4
98018.6
98016.4
98014
98011.2
98008.3
98005.1
98001.7
97998.2
97994.5
97990.7
97986.7
97982.5
97978.2
97973.8
97969.2
97964.4
97959.5
97954.4
97949
97943.5
97937.7
97931.6
97925.2
97918.5
97911.4
97903.9
97895.9
97887.5
97878.6
97869.3
97859.5
97849.2
97838.4
97827.1
97815.6
97803.6
97791.3
97778.9
97766.5
97754.1
97742.1
97730.8
97720.2
97710.3
97701.6
97694.1
97687.9
97683.1
97679.8
97677.9
97677.5
97678.5
97680.9
97684.4
97689
97694.7
97701.4
97708.5
97715.6
97722.7
97729.6
97736.2
97741.9
97746.2
97749.3
97750.6
97750.8
97749.3
97746.4
97742
97736.8
97729.8
97722.1
97714.2
97706.7
97699.3
97692.9
97685.7
97680.1
97673.3
97669.2
97662.9
97661.1
97655.8
97656.4
98072.3
98072.5
98072.7
98072.9
98073.2
98073.7
98074.3
98075.1
98075.9
98076.8
98077.7
98078.6
98079.4
98080.1
98080.6
98081.1
98081.4
98081.5
98081.5
98081.3
98080.9
98080.4
98079.7
98078.8
98077.7
98076.4
98074.9
98073.3
98071.4
98069.4
98067.3
98065
98062.6
98060
98057.3
98054.4
98051.5
98048.4
98045.3
98042.1
98038.8
98035.5
98032.1
98028.7
98025.4
98022
98018.7
98015.5
98012.3
98009.3
98006.4
98003.6
98001
97998.6
97996.3
97994.3
97992.5
97991
97989.7
97988.6
97987.8
97987.2
97986.9
97986.9
97987.1
97987.5
97988.2
97989.2
97990.3
97991.6
97993.2
97994.8
97996.6
97998.5
98000.4
98002.4
98004.3
98006.2
98008.1
98009.9
98011.5
98013
98014.2
98015.2
98016
98016.5
98016.7
98016.6
98016.2
98015.5
98014.4
98013
98011.3
98009.2
98006.9
98004.2
98001.2
97998
97994.4
97990.6
97986.6
97982.4
97978
97973.4
97968.7
97963.9
97958.9
97953.7
97948.4
97943
97937.4
97931.6
97925.5
97919.3
97912.9
97906.3
97899.4
97892.2
97884.7
97876.9
97868.6
97859.9
97850.9
97841.5
97831.6
97821.3
97810.4
97799.2
97787.5
97775.5
97762.9
97750.1
97737.1
97724.1
97711.1
97698.5
97686.4
97674.9
97664
97654.2
97645.6
97638.2
97632.1
97627.4
97624.1
97622.2
97621.6
97622.3
97624
97626.7
97630.5
97635
97639.9
97644.5
97648.8
97652.7
97656.2
97658.8
97659.9
97659.7
97657.4
97653.8
97648.7
97642.3
97634.7
97626.4
97617
97607.2
97597.4
97588.6
97580.3
97573.6
97566.8
97562.2
97556.9
97554.9
97551.2
97552.9
97551.1
97556
98067.5
98067.5
98067.5
98067.9
98068.6
98069.9
98071.3
98073.1
98074.8
98076.7
98078.4
98080.1
98081.7
98083
98084.2
98085.2
98086
98086.5
98086.9
98087
98086.9
98086.6
98086.1
98085.4
98084.4
98083.2
98081.8
98080.2
98078.3
98076.3
98074.1
98071.8
98069.2
98066.5
98063.7
98060.7
98057.6
98054.4
98051.1
98047.7
98044.2
98040.7
98037.2
98033.6
98030.1
98026.5
98023.1
98019.7
98016.4
98013.2
98010.2
98007.3
98004.5
98002
97999.7
97997.6
97995.7
97994.1
97992.7
97991.6
97990.7
97990
97989.7
97989.5
97989.7
97990
97990.6
97991.4
97992.4
97993.6
97994.9
97996.4
97997.9
97999.5
98001.2
98002.8
98004.4
98006
98007.4
98008.7
98009.9
98010.9
98011.6
98012.1
98012.3
98012.2
98011.8
98011.1
98010.1
98008.7
98006.9
98004.8
98002.4
97999.6
97996.5
97993.1
97989.3
97985.3
97981
97976.5
97971.7
97966.6
97961.4
97956.1
97950.6
97944.9
97939.1
97933.2
97927
97920.7
97914.3
97907.7
97900.8
97893.8
97886.6
97879.1
97871.5
97863.6
97855.4
97846.8
97837.9
97828.7
97819.2
97809.3
97798.9
97788.1
97777
97765.4
97753.3
97740.9
97728
97714.8
97701.4
97687.9