/*--------------------------------*- C++ -*----------------------------------*\
| =========                 |                                                 |
| \\      /  F ield         | OpenFOAM: The Open Source CFD Toolbox           |
|  \\    /   O peration     | Version:  dev                                   |
|   \\  /    A nd           | Web:      http://www.openfoam.org               |
|    \\/     M anipulation  |                                                 |
\*---------------------------------------------------------------------------*/
FoamFile
{
    version     2.0;
    format      ascii;
    class       volScalarField;
    object      pPrime2Mean;
    location    "9.123";
}
// * * * * * * * * * * * * * * * * * * * * * * * * * * * * * * * * * * * * * //

dimensions      [2 -2 -4 0 0 0 0];

internalField   nonuniform List<scalar> 
12225
(
5.03813e+07
4.99164e+07
4.89559e+07
4.7605e+07
4.59516e+07
4.40851e+07
4.20646e+07
3.99621e+07
3.78185e+07
3.56817e+07
3.35895e+07
3.15448e+07
2.96215e+07
2.77505e+07
2.60029e+07
2.4442e+07
2.28798e+07
2.1299e+07
5.02734e+07
4.98085e+07
4.88488e+07
4.74996e+07
4.58477e+07
4.39835e+07
4.19659e+07
3.9866e+07
3.77263e+07
3.55922e+07
3.35047e+07
3.14636e+07
2.9545e+07
2.76808e+07
2.59507e+07
2.43899e+07
2.28806e+07
2.15457e+07
5.00231e+07
4.95588e+07
4.85996e+07
4.72534e+07
4.5606e+07
4.37466e+07
4.17357e+07
3.96421e+07
3.75105e+07
3.53845e+07
3.33054e+07
3.12761e+07
2.93635e+07
2.75166e+07
2.58064e+07
2.42505e+07
2.28151e+07
2.16014e+07
4.95872e+07
4.91258e+07
4.81689e+07
4.68279e+07
4.51885e+07
4.33376e+07
4.13383e+07
3.92552e+07
3.71384e+07
3.50259e+07
3.29627e+07
3.09512e+07
2.90558e+07
2.72282e+07
2.55477e+07
2.40165e+07
2.263e+07
2.15286e+07
4.89217e+07
4.84605e+07
4.75083e+07
4.61768e+07
4.45492e+07
4.27128e+07
4.07294e+07
3.86656e+07
3.65679e+07
3.44795e+07
3.24365e+07
3.04558e+07
2.8583e+07
2.67916e+07
2.51633e+07
2.36546e+07
2.23734e+07
2.13085e+07
4.79718e+07
4.75081e+07
4.65654e+07
4.52474e+07
4.36377e+07
4.18211e+07
3.98624e+07
3.78242e+07
3.57566e+07
3.36979e+07
3.16892e+07
2.97426e+07
2.79082e+07
2.61632e+07
2.45845e+07
2.31453e+07
2.19185e+07
2.08618e+07
4.6676e+07
4.6211e+07
4.52839e+07
4.39821e+07
4.23985e+07
4.06076e+07
3.86845e+07
3.66797e+07
3.4655e+07
3.26353e+07
3.0675e+07
2.87741e+07
2.6991e+07
2.53039e+07
2.37822e+07
2.24031e+07
2.12347e+07
2.02067e+07
4.52331e+07
4.47696e+07
4.38588e+07
4.25749e+07
4.102e+07
3.92588e+07
3.73741e+07
3.54084e+07
3.3429e+07
3.14555e+07
2.9545e+07
2.76978e+07
2.59662e+07
2.43423e+07
2.28692e+07
2.15533e+07
2.04175e+07
1.94578e+07
4.37173e+07
4.32573e+07
4.23628e+07
4.10986e+07
3.95733e+07
3.78445e+07
3.59993e+07
3.4076e+07
3.21428e+07
3.02188e+07
2.83593e+07
2.65678e+07
2.489e+07
2.33268e+07
2.19057e+07
2.06461e+07
1.95523e+07
1.86537e+07
4.17759e+07
4.13227e+07
4.04475e+07
3.9211e+07
3.77221e+07
3.60373e+07
3.4241e+07
3.23737e+07
3.04978e+07
2.86387e+07
2.68421e+07
2.51222e+07
2.35105e+07
2.20221e+07
2.06673e+07
1.94753e+07
1.84384e+07
1.75858e+07
3.93257e+07
3.88825e+07
3.80309e+07
3.68311e+07
3.53881e+07
3.37604e+07
3.20261e+07
3.02299e+07
2.84272e+07
2.66484e+07
2.49321e+07
2.32982e+07
2.17703e+07
2.0368e+07
1.90964e+07
1.79812e+07
1.70112e+07
1.62048e+07
3.63005e+07
3.58721e+07
3.50487e+07
3.38979e+07
3.25121e+07
3.09577e+07
2.93008e+07
2.75937e+07
2.58815e+07
2.42016e+07
2.25835e+07
2.10527e+07
1.96257e+07
1.83228e+07
1.71477e+07
1.61169e+07
1.52226e+07
1.44695e+07
3.26853e+07
3.22756e+07
3.14885e+07
3.03989e+07
2.90854e+07
2.76199e+07
2.60588e+07
2.44583e+07
2.28563e+07
2.1293e+07
1.97917e+07
1.83799e+07
1.70694e+07
1.58787e+07
1.48103e+07
1.38731e+07
1.30621e+07
1.23741e+07
2.85713e+07
2.81843e+07
2.74441e+07
2.64267e+07
2.52016e+07
2.38397e+07
2.23925e+07
2.09141e+07
1.94403e+07
1.80079e+07
1.66395e+07
1.53584e+07
1.41764e+07
1.31065e+07
1.21516e+07
1.13148e+07
1.05926e+07
9.97877e+06
2.42441e+07
2.38837e+07
2.31995e+07
2.22629e+07
2.11379e+07
1.98902e+07
1.85687e+07
1.72227e+07
1.58865e+07
1.45929e+07
1.33635e+07
1.22175e+07
1.1166e+07
1.02178e+07
9.37536e+06
8.63875e+06
8.00475e+06
7.46668e+06
2.02948e+07
1.9963e+07
1.93384e+07
1.84836e+07
1.74601e+07
1.63255e+07
1.51277e+07
1.39098e+07
1.27054e+07
1.15426e+07
1.0442e+07
9.41931e+06
8.48449e+06
7.64359e+06
6.89849e+06
6.24793e+06
5.68874e+06
5.21469e+06
1.77278e+07
1.74216e+07
1.68471e+07
1.60602e+07
1.5119e+07
1.40755e+07
1.2975e+07
1.18565e+07
1.07517e+07
9.68575e+06
8.67755e+06
7.74066e+06
6.8838e+06
6.11175e+06
5.42585e+06
4.82475e+06
4.30546e+06
3.8626e+06
1.78363e+07
1.75419e+07
1.69897e+07
1.62323e+07
1.53258e+07
1.43192e+07
1.32562e+07
1.21736e+07
1.11016e+07
1.00638e+07
9.07804e+06
8.15691e+06
7.30854e+06
6.53742e+06
5.84495e+06
5.23028e+06
4.69093e+06
4.22254e+06
2.07156e+07
2.04167e+07
1.98547e+07
1.90822e+07
1.81562e+07
1.71256e+07
1.6034e+07
1.49179e+07
1.38073e+07
1.27255e+07
1.16902e+07
1.07141e+07
9.80525e+06
8.96862e+06
8.20606e+06
7.51749e+06
6.90108e+06
6.35344e+06
2.52063e+07
2.48945e+07
2.43044e+07
2.34909e+07
2.25132e+07
2.14223e+07
2.02628e+07
1.90722e+07
1.78811e+07
1.67134e+07
1.55874e+07
1.45161e+07
1.35085e+07
1.25698e+07
1.17027e+07
1.09079e+07
1.01842e+07
9.5293e+06
3.02698e+07
2.99439e+07
2.93206e+07
2.84575e+07
2.74174e+07
2.62533e+07
2.50116e+07
2.37315e+07
2.24447e+07
2.11762e+07
1.99449e+07
1.87648e+07
1.76454e+07
1.65928e+07
1.56105e+07
1.46998e+07
1.38604e+07
1.30905e+07
3.51877e+07
3.48501e+07
3.41957e+07
3.32855e+07
3.21852e+07
3.09498e+07
2.96279e+07
2.82602e+07
2.68797e+07
2.55126e+07
2.41788e+07
2.2893e+07
2.16656e+07
2.05034e+07
1.94107e+07
1.83894e+07
1.74399e+07
1.65611e+07
3.95405e+07
3.91945e+07
3.85147e+07
3.75648e+07
3.64129e+07
3.51157e+07
3.37237e+07
3.22789e+07
3.0816e+07
2.93619e+07
2.79377e+07
2.65587e+07
2.52362e+07
2.39778e+07
2.27881e+07
2.167e+07
2.06241e+07
1.965e+07
4.31392e+07
4.2788e+07
4.2089e+07
4.1108e+07
3.99149e+07
3.8568e+07
3.71189e+07
3.56112e+07
3.40806e+07
3.2555e+07
3.10563e+07
2.96007e+07
2.81999e+07
2.68622e+07
2.55929e+07
2.4395e+07
2.327e+07
2.22176e+07
4.59498e+07
4.55958e+07
4.48829e+07
4.3879e+07
4.26549e+07
4.12698e+07
3.97768e+07
3.82204e+07
3.66373e+07
3.50562e+07
3.34996e+07
3.19843e+07
3.05226e+07
2.91233e+07
2.77919e+07
2.65321e+07
2.53455e+07
2.42322e+07
4.80297e+07
4.7674e+07
4.69515e+07
4.59315e+07
4.4685e+07
4.32722e+07
4.1747e+07
4.0155e+07
3.85332e+07
3.69113e+07
3.5312e+07
3.37527e+07
3.22462e+07
3.08015e+07
2.94245e+07
2.81191e+07
2.6887e+07
2.57288e+07
4.94797e+07
4.91232e+07
4.8394e+07
4.73631e+07
4.61013e+07
4.46696e+07
4.31224e+07
4.15059e+07
3.98575e+07
3.82072e+07
3.65784e+07
3.49887e+07
3.34512e+07
3.19749e+07
3.05663e+07
2.92292e+07
2.79658e+07
2.67764e+07
5.04154e+07
5.00579e+07
4.93245e+07
4.8287e+07
4.70153e+07
4.55716e+07
4.40105e+07
4.23783e+07
4.0713e+07
3.90446e+07
3.73969e+07
3.57877e+07
3.42302e+07
3.27337e+07
3.13047e+07
2.99473e+07
2.86637e+07
2.74544e+07
5.09449e+07
5.0587e+07
4.98521e+07
4.88114e+07
4.75344e+07
4.60842e+07
4.45152e+07
4.28741e+07
4.11989e+07
3.95201e+07
3.78615e+07
3.62411e+07
3.4672e+07
3.31639e+07
3.17232e+07
3.03541e+07
2.90591e+07
2.78388e+07
5.11673e+07
5.08109e+07
5.0074e+07
4.90316e+07
4.7752e+07
4.62989e+07
4.47266e+07
4.30816e+07
4.14022e+07
3.97189e+07
3.80556e+07
3.64304e+07
3.48564e+07
3.33433e+07
3.18976e+07
3.05236e+07
2.92239e+07
2.79991e+07
6.04954e+07
6.04362e+07
6.03055e+07
6.00996e+07
5.98168e+07
5.94562e+07
5.90179e+07
5.85028e+07
5.79119e+07
5.72467e+07
5.6509e+07
5.5701e+07
5.4825e+07
5.38835e+07
5.28794e+07
5.18155e+07
5.06952e+07
4.9522e+07
4.82994e+07
4.70314e+07
4.5722e+07
4.43752e+07
4.29953e+07
4.15867e+07
4.01538e+07
3.87011e+07
3.72333e+07
3.57546e+07
3.42696e+07
3.27829e+07
3.12991e+07
2.98226e+07
2.83583e+07
2.69105e+07
2.54839e+07
2.40832e+07
2.27128e+07
2.13775e+07
2.00821e+07
1.88313e+07
1.76299e+07
1.64828e+07
1.53951e+07
1.43717e+07
1.34178e+07
1.25387e+07
1.17396e+07
1.10259e+07
1.04031e+07
9.87651e+06
9.45166e+06
9.13397e+06
8.92883e+06
8.84151e+06
8.87709e+06
9.0404e+06
9.33599e+06
9.7681e+06
1.03406e+07
1.10568e+07
1.19193e+07
1.29304e+07
1.40915e+07
1.54032e+07
1.68657e+07
1.84781e+07
2.02386e+07
2.2145e+07
2.4194e+07
2.63818e+07
2.87039e+07
3.11549e+07
3.3729e+07
3.64197e+07
3.92202e+07
4.21233e+07
4.51215e+07
4.8207e+07
5.13719e+07
5.46084e+07
5.79082e+07
6.12633e+07
6.46653e+07
6.81056e+07
7.15755e+07
7.50663e+07
7.85687e+07
8.20733e+07
8.55701e+07
8.90486e+07
9.2498e+07
9.59068e+07
9.92628e+07
1.02554e+08
1.05767e+08
1.0889e+08
1.11909e+08
1.14814e+08
1.17592e+08
1.20233e+08
1.22727e+08
1.25067e+08
1.27245e+08
1.29255e+08
1.31094e+08
1.3276e+08
1.34253e+08
1.35575e+08
1.36732e+08
1.37731e+08
1.38583e+08
1.39298e+08
1.39891e+08
1.40375e+08
1.40767e+08
1.41085e+08
1.41348e+08
1.41578e+08
1.41798e+08
1.42036e+08
1.4232e+08
1.42683e+08
1.43163e+08
1.438e+08
1.44635e+08
1.45718e+08
1.47101e+08
1.48841e+08
1.50998e+08
1.53634e+08
1.56814e+08
1.60598e+08
1.6505e+08
1.70225e+08
1.76177e+08
1.82952e+08
1.90584e+08
1.99102e+08
2.0852e+08
2.18841e+08
2.30059e+08
2.42152e+08
2.55092e+08
2.68836e+08
2.83344e+08
2.98551e+08
3.14411e+08
3.3085e+08
3.47806e+08
3.65204e+08
3.82971e+08
4.01023e+08
4.19269e+08
4.37617e+08
4.55944e+08
4.74111e+08
4.91955e+08
5.09306e+08
5.2593e+08
5.41594e+08
5.55997e+08
5.6884e+08
5.79783e+08
5.88501e+08
5.9466e+08
5.97962e+08
5.98147e+08
5.95034e+08
5.88497e+08
5.78562e+08
5.6531e+08
5.49007e+08
5.29973e+08
5.087e+08
4.85663e+08
4.61385e+08
4.36235e+08
4.10648e+08
3.84835e+08
3.59121e+08
5.94194e+07
5.93637e+07
5.92385e+07
5.90386e+07
5.87622e+07
5.84092e+07
5.79803e+07
5.74765e+07
5.68991e+07
5.62496e+07
5.55295e+07
5.4741e+07
5.38861e+07
5.29674e+07
5.19873e+07
5.09487e+07
4.98545e+07
4.87082e+07
4.75133e+07
4.62735e+07
4.49926e+07
4.36747e+07
4.23239e+07
4.09445e+07
3.95409e+07
3.81174e+07
3.66784e+07
3.52282e+07
3.37712e+07
3.23119e+07
3.08546e+07
2.94041e+07
2.79647e+07
2.6541e+07
2.51375e+07
2.37588e+07
2.24093e+07
2.10937e+07
1.98167e+07
1.8583e+07
1.73974e+07
1.62648e+07
1.51901e+07
1.41783e+07
1.32347e+07
1.23643e+07
1.15726e+07
1.08648e+07
1.02463e+07
9.72278e+06
9.29948e+06
8.98189e+06
8.77538e+06
8.68518e+06
8.7164e+06
8.87393e+06
9.16232e+06
9.58581e+06
1.01482e+07
1.08527e+07
1.17022e+07
1.26988e+07
1.38437e+07
1.51379e+07
1.65812e+07
1.81728e+07
1.99111e+07
2.17936e+07
2.38172e+07
2.59782e+07
2.82718e+07
3.06928e+07
3.32354e+07
3.58932e+07
3.86593e+07
4.15267e+07
4.44878e+07
4.7535e+07
5.06604e+07
5.38561e+07
5.7114e+07
6.0426e+07
6.37838e+07
6.7179e+07
7.0603e+07
7.4047e+07
7.75017e+07
8.09579e+07
8.44057e+07
8.78347e+07
9.12342e+07
9.45927e+07
9.78984e+07
1.01139e+08
1.04303e+08
1.07376e+08
1.10347e+08
1.13204e+08
1.15936e+08
1.18532e+08
1.20984e+08
1.23283e+08
1.25423e+08
1.27397e+08
1.29204e+08
1.30839e+08
1.32305e+08
1.33603e+08
1.34738e+08
1.35718e+08
1.36554e+08
1.37256e+08
1.37837e+08
1.38312e+08
1.38696e+08
1.39006e+08
1.39263e+08
1.39485e+08
1.39698e+08
1.39926e+08
1.40199e+08
1.40549e+08
1.41012e+08
1.41626e+08
1.42435e+08
1.43486e+08
1.4483e+08
1.46524e+08
1.48625e+08
1.51197e+08
1.54303e+08
1.58003e+08
1.62358e+08
1.67424e+08
1.73254e+08
1.79892e+08
1.87374e+08
1.95729e+08
2.04969e+08
2.15098e+08
2.26111e+08
2.37986e+08
2.50696e+08
2.64202e+08
2.7846e+08
2.93409e+08
3.08999e+08
3.25167e+08
3.41848e+08
3.58966e+08
3.76451e+08
3.94222e+08
4.12191e+08
4.30267e+08
4.48328e+08
4.66239e+08
4.83839e+08
5.00963e+08
5.17383e+08
5.32864e+08
5.47123e+08
5.5986e+08
5.70739e+08
5.79441e+08
5.8564e+08
5.89044e+08
5.89397e+08
5.86521e+08
5.80285e+08
5.70701e+08
5.57843e+08
5.41967e+08
5.2338e+08
5.02563e+08
4.79976e+08
4.56128e+08
4.31388e+08
4.06182e+08
3.80721e+08
3.55246e+08
5.73522e+07
5.72991e+07
5.71795e+07
5.69879e+07
5.67231e+07
5.63856e+07
5.59763e+07
5.54964e+07
5.49468e+07
5.43287e+07
5.36435e+07
5.28931e+07
5.20793e+07
5.12041e+07
5.02698e+07
4.92791e+07
4.82347e+07
4.71397e+07
4.59974e+07
4.48112e+07
4.35849e+07
4.23223e+07
4.10273e+07
3.97041e+07
3.83566e+07
3.69889e+07
3.56049e+07
3.42089e+07
3.28052e+07
3.13981e+07
2.99919e+07
2.85911e+07
2.71999e+07
2.58227e+07
2.44639e+07
2.31277e+07
2.18187e+07
2.05412e+07
1.92999e+07
1.80994e+07
1.69445e+07
1.584e+07
1.47907e+07
1.38016e+07
1.28778e+07
1.20246e+07
1.12472e+07
1.0551e+07
9.94138e+06
9.42371e+06
9.00346e+06
8.68607e+06
8.47691e+06
8.38124e+06
8.40413e+06
8.55048e+06
8.82482e+06
9.2314e+06
9.77401e+06
1.04559e+07
1.12798e+07
1.22478e+07
1.33613e+07
1.46209e+07
1.60266e+07
1.75775e+07
1.92719e+07
2.11076e+07
2.30813e+07
2.51893e+07
2.7427e+07
2.97891e+07
3.22699e+07
3.4863e+07
3.75618e+07
4.03591e+07
4.32477e+07
4.622e+07
4.92683e+07
5.23846e+07
5.5561e+07
5.87895e+07
6.20618e+07
6.53696e+07
6.87045e+07
7.20576e+07
7.54202e+07
7.87828e+07
8.21358e+07
8.5469e+07
8.87718e+07
9.20329e+07
9.52411e+07
9.83844e+07
1.01451e+08
1.04427e+08
1.07304e+08
1.10068e+08
1.12709e+08
1.15218e+08
1.17585e+08
1.19804e+08
1.21868e+08
1.23773e+08
1.25515e+08
1.27092e+08
1.28503e+08
1.29754e+08
1.30847e+08
1.31791e+08
1.32596e+08
1.33272e+08
1.33831e+08
1.34288e+08
1.34656e+08
1.34951e+08
1.35193e+08
1.35401e+08
1.35598e+08
1.35808e+08
1.36059e+08
1.36381e+08
1.36808e+08
1.37379e+08
1.38134e+08
1.3912e+08
1.40386e+08
1.41985e+08
1.43977e+08
1.46421e+08
1.49378e+08
1.52909e+08
1.57072e+08
1.61921e+08
1.67508e+08
1.73876e+08
1.81061e+08
1.89091e+08
1.97979e+08
2.0773e+08
2.18336e+08
2.29779e+08
2.42035e+08
2.55068e+08
2.68831e+08
2.83268e+08
2.98326e+08
3.13955e+08
3.30085e+08
3.46647e+08
3.63569e+08
3.80779e+08
3.98192e+08
4.15716e+08
4.33237e+08
4.50626e+08
4.67724e+08
4.84372e+08
5.00354e+08
5.15439e+08
5.29363e+08
5.41834e+08
5.5253e+08
5.61148e+08
5.67368e+08
5.70919e+08
5.7155e+08
5.69088e+08
5.63399e+08
5.54469e+08
5.42373e+08
5.27334e+08
5.0964e+08
4.89744e+08
4.68074e+08
4.45107e+08
4.21217e+08
3.96805e+08
3.72097e+08
3.47263e+08
5.44559e+07
5.44066e+07
5.42945e+07
5.41151e+07
5.38681e+07
5.35544e+07
5.31747e+07
5.27296e+07
5.22198e+07
5.16463e+07
5.10102e+07
5.03127e+07
4.95554e+07
4.87401e+07
4.78686e+07
4.69435e+07
4.59673e+07
4.49428e+07
4.3873e+07
4.27611e+07
4.16105e+07
4.04248e+07
3.92076e+07
3.79625e+07
3.66928e+07
3.54024e+07
3.4095e+07
3.27746e+07
3.14453e+07
3.01113e+07
2.87766e+07
2.74454e+07
2.61216e+07
2.48094e+07
2.35129e+07
2.22362e+07
2.09836e+07
1.97595e+07
1.85682e+07
1.74143e+07
1.63025e+07
1.52373e+07
1.42237e+07
1.32665e+07
1.23709e+07
1.15419e+07
1.07848e+07
1.01049e+07
9.50764e+06
8.99835e+06
8.58247e+06
8.26544e+06
8.0526e+06
7.94918e+06
7.96025e+06
8.09068e+06
8.34506e+06
8.72758e+06
9.24199e+06
9.89153e+06
1.06789e+07
1.16061e+07
1.26746e+07
1.38849e+07
1.5237e+07
1.67299e+07
1.8362e+07
2.01311e+07
2.20339e+07
2.40668e+07
2.62252e+07
2.8504e+07
3.08975e+07
3.33996e+07
3.60035e+07
3.87024e+07
4.14892e+07
4.43566e+07
4.72969e+07
5.03022e+07
5.33649e+07
5.64769e+07
5.96303e+07
6.28167e+07
6.60277e+07
6.92549e+07
7.24895e+07
7.57223e+07
7.89438e+07
8.21441e+07
8.53127e+07
8.84388e+07
9.15113e+07
9.45186e+07
9.74493e+07
1.00292e+08
1.03035e+08
1.05668e+08
1.08182e+08
1.10568e+08
1.12816e+08
1.14922e+08
1.1688e+08
1.18685e+08
1.20334e+08
1.21825e+08
1.23161e+08
1.24344e+08
1.25378e+08
1.2627e+08
1.2703e+08
1.27667e+08
1.28194e+08
1.28623e+08
1.28966e+08
1.2924e+08
1.2946e+08
1.29646e+08
1.29819e+08
1.30002e+08
1.30219e+08
1.305e+08
1.30876e+08
1.31383e+08
1.32061e+08
1.32953e+08
1.34108e+08
1.35576e+08
1.37412e+08
1.39674e+08
1.42421e+08
1.45714e+08
1.49606e+08
1.54151e+08
1.59397e+08
1.65387e+08
1.72155e+08
1.79729e+08
1.88124e+08
1.97345e+08
2.07384e+08
2.18226e+08
2.2985e+08
2.42224e+08
2.55299e+08
2.69026e+08
2.8335e+08
2.9823e+08
3.13601e+08
3.29396e+08
3.45543e+08
3.61981e+08
3.78627e+08
3.9539e+08
4.1216e+08
4.28821e+08
4.4522e+08
4.61199e+08
4.76561e+08
4.91083e+08
5.04517e+08
5.16585e+08
5.26991e+08
5.35449e+08
5.41655e+08
5.45353e+08
5.46305e+08
5.44342e+08
5.39332e+08
5.31247e+08
5.20146e+08
5.0622e+08
4.89732e+08
4.71095e+08
4.50691e+08
4.28961e+08
4.06268e+08
3.82988e+08
3.59359e+08
3.35531e+08
5.09311e+07
5.08871e+07
5.07852e+07
5.06222e+07
5.03984e+07
5.01144e+07
4.97705e+07
4.9367e+07
4.89047e+07
4.8384e+07
4.78056e+07
4.71706e+07
4.64802e+07
4.5736e+07
4.49396e+07
4.40932e+07
4.31989e+07
4.22593e+07
4.12769e+07
4.02546e+07
3.91956e+07
3.81028e+07
3.69792e+07
3.5828e+07
3.46522e+07
3.34553e+07
3.22408e+07
3.10125e+07
2.97742e+07
2.85295e+07
2.72822e+07
2.60359e+07
2.47945e+07
2.35617e+07
2.23413e+07
2.11373e+07
1.99538e+07
1.87949e+07
1.76648e+07
1.6568e+07
1.55089e+07
1.44921e+07
1.35222e+07
1.26042e+07
1.1743e+07
1.09437e+07
1.02115e+07
9.55157e+06
8.96938e+06
8.47029e+06
8.0597e+06
7.74298e+06
7.5255e+06
7.41246e+06
7.40889e+06
7.51963e+06
7.74922e+06
8.10179e+06
8.58106e+06
9.19027e+06
9.93207e+06
1.08085e+07
1.18209e+07
1.29698e+07
1.42551e+07
1.56759e+07
1.72305e+07
1.89167e+07
2.07316e+07
2.26712e+07
2.47313e+07
2.69067e+07
2.91921e+07
3.15812e+07
3.40678e+07
3.6645e+07
3.9306e+07
4.20436e+07
4.48505e+07
4.77189e+07
5.06412e+07
5.36098e+07
5.66166e+07
5.96537e+07
6.27127e+07
6.57853e+07
6.8863e+07
7.19369e+07
7.49974e+07
7.8035e+07
8.10397e+07
8.4001e+07
8.69082e+07
8.97501e+07
9.25158e+07
9.51946e+07
9.77762e+07
1.00251e+08
1.0261e+08
1.04844e+08
1.06947e+08
1.08914e+08
1.10741e+08
1.12423e+08
1.13957e+08
1.15344e+08
1.16585e+08
1.17683e+08
1.18642e+08
1.19469e+08
1.20171e+08
1.2076e+08
1.21245e+08
1.21636e+08
1.21947e+08
1.22191e+08
1.22383e+08
1.2254e+08
1.22681e+08
1.22827e+08
1.23002e+08
1.2323e+08
1.23542e+08
1.23972e+08
1.24555e+08
1.25333e+08
1.26351e+08
1.27658e+08
1.29306e+08
1.31348e+08
1.3384e+08
1.36841e+08
1.40402e+08
1.44576e+08
1.49409e+08
1.5494e+08
1.61203e+08
1.68227e+08
1.76026e+08
1.84607e+08
1.93963e+08
2.04082e+08
2.14944e+08
2.26522e+08
2.38772e+08
2.51648e+08
2.65096e+08
2.7908e+08
2.93542e+08
3.08423e+08
3.2365e+08
3.39165e+08
3.54891e+08
3.70743e+08
3.86613e+08
4.02394e+08
4.17945e+08
4.33114e+08
4.4772e+08
4.61551e+08
4.74371e+08
4.85929e+08
4.95955e+08
5.04178e+08
5.10319e+08
5.14137e+08
5.15407e+08
5.13973e+08
5.0971e+08
5.02573e+08
4.92607e+08
4.79963e+08
4.64884e+08
4.4773e+08
4.28835e+08
4.08607e+08
3.87373e+08
3.65486e+08
3.43193e+08
3.20656e+08
4.7001e+07
4.69639e+07
4.68745e+07
4.67307e+07
4.6533e+07
4.62817e+07
4.5977e+07
4.5619e+07
4.52082e+07
4.47446e+07
4.42289e+07
4.36619e+07
4.30446e+07
4.23781e+07
4.1664e+07
4.09039e+07
4.00998e+07
3.92535e+07
3.83675e+07
3.74443e+07
3.64862e+07
3.54958e+07
3.44757e+07
3.34283e+07
3.23567e+07
3.12638e+07
3.01529e+07
2.90273e+07
2.78904e+07
2.67453e+07
2.55954e+07
2.44441e+07
2.32947e+07
2.21507e+07
2.10156e+07
1.98932e+07
1.87873e+07
1.77018e+07
1.66407e+07
1.56082e+07
1.46086e+07
1.36462e+07
1.27257e+07
1.18518e+07
1.10294e+07
1.02635e+07
9.55915e+06
8.9217e+06
8.35644e+06
7.86872e+06
7.46391e+06
7.14737e+06
6.92444e+06
6.80028e+06
6.77989e+06
6.86804e+06
7.06922e+06
7.38754e+06
7.82665e+06
8.38972e+06
9.07935e+06
9.89754e+06
1.08456e+07
1.19242e+07
1.3133e+07
1.44712e+07
1.59372e+07
1.75287e+07
1.92428e+07
2.10757e+07
2.30233e+07
2.50806e+07
2.72423e+07
2.95025e+07
3.1855e+07
3.42933e+07
3.68107e+07
3.94003e+07
4.20548e+07
4.4767e+07
4.75292e+07
5.03342e+07
5.3174e+07
5.60409e+07
5.89269e+07
6.18237e+07
6.47229e+07
6.7616e+07
7.04938e+07
7.33468e+07
7.61656e+07
7.89402e+07
8.16606e+07
8.43158e+07
8.68958e+07
8.93906e+07
9.17909e+07
9.40877e+07
9.62726e+07
9.83382e+07
1.00278e+08
1.02089e+08
1.03767e+08
1.0531e+08
1.06715e+08
1.07983e+08
1.09116e+08
1.10118e+08
1.10991e+08
1.11741e+08
1.12377e+08
1.12907e+08
1.1334e+08
1.13686e+08
1.13957e+08
1.14163e+08
1.1432e+08
1.14441e+08
1.14542e+08
1.14644e+08
1.14767e+08
1.14935e+08
1.15174e+08
1.15516e+08
1.15994e+08
1.16645e+08
1.17509e+08
1.18636e+08
1.20071e+08
1.21867e+08
1.24074e+08
1.26749e+08
1.29942e+08
1.33701e+08
1.38071e+08
1.4309e+08
1.48792e+08
1.55205e+08
1.62343e+08
1.70214e+08
1.78815e+08
1.88136e+08
1.98156e+08
2.08856e+08
2.20196e+08
2.32137e+08
2.44627e+08
2.5763e+08
2.71098e+08
2.84975e+08
2.99194e+08
3.13697e+08
3.28415e+08
3.43261e+08
3.58139e+08
3.72948e+08
3.87559e+08
4.01824e+08
4.15577e+08
4.28628e+08
4.40747e+08
4.51707e+08
4.61271e+08
4.69188e+08
4.75205e+08
4.79089e+08
4.80641e+08
4.79722e+08
4.76207e+08
4.70042e+08
4.61251e+08
4.49963e+08
4.36387e+08
4.20832e+08
4.03588e+08
3.85022e+08
3.6542e+08
3.45106e+08
3.24332e+08
3.03286e+08
4.28906e+07
4.28611e+07
4.27852e+07
4.26618e+07
4.24912e+07
4.22736e+07
4.20092e+07
4.16979e+07
4.13395e+07
4.09343e+07
4.04828e+07
3.99856e+07
3.94433e+07
3.88569e+07
3.82276e+07
3.75566e+07
3.68454e+07
3.60959e+07
3.53098e+07
3.4489e+07
3.36354e+07
3.2751e+07
3.1838e+07
3.08985e+07
2.99352e+07
2.89507e+07
2.79479e+07
2.69296e+07
2.58985e+07
2.48576e+07
2.38097e+07
2.27578e+07
2.17049e+07
2.06542e+07
1.96089e+07
1.85724e+07
1.75484e+07
1.65403e+07
1.5552e+07
1.45874e+07
1.36505e+07
1.27457e+07
1.18773e+07
1.10501e+07
1.02686e+07
9.53793e+06
8.86311e+06
8.24932e+06
7.70184e+06
7.226e+06
6.82713e+06
6.51054e+06
6.28151e+06
6.14518e+06
6.10651e+06
6.17023e+06
6.34076e+06
6.62215e+06
7.01799e+06
7.53139e+06
8.16489e+06
8.92041e+06
9.79923e+06
1.08019e+07
1.19284e+07
1.31776e+07
1.4548e+07
1.60374e+07
1.76428e+07
1.93606e+07
2.11868e+07
2.31166e+07
2.51448e+07
2.72658e+07
2.94735e+07
3.17617e+07
3.4124e+07
3.65535e+07
3.90435e+07
4.15867e+07
4.4176e+07
4.68041e+07
4.94634e+07
5.21464e+07
5.48454e+07
5.75524e+07
6.0259e+07
6.29571e+07
6.56377e+07
6.82919e+07
7.09106e+07
7.34844e+07
7.60037e+07
7.84588e+07
8.08399e+07
8.31383e+07
8.53451e+07
8.74525e+07
8.94528e+07
9.13398e+07
9.3108e+07
9.47539e+07
9.62746e+07
9.7669e+07
9.89367e+07
1.00078e+08
1.01095e+08
1.01992e+08
1.02771e+08
1.03437e+08
1.03999e+08
1.04463e+08
1.04837e+08
1.05131e+08
1.05354e+08
1.05516e+08
1.0563e+08
1.05709e+08
1.05766e+08
1.05818e+08
1.05884e+08
1.05985e+08
1.06146e+08
1.06394e+08
1.0676e+08
1.07276e+08
1.0798e+08
1.08915e+08
1.10126e+08
1.11661e+08
1.1357e+08
1.15902e+08
1.18707e+08
1.22031e+08
1.25915e+08
1.30397e+08
1.35511e+08
1.41284e+08
1.47732e+08
1.54862e+08
1.62675e+08
1.71164e+08
1.80311e+08
1.90101e+08
2.00499e+08
2.11471e+08
2.2297e+08
2.34964e+08
2.47406e+08
2.60246e+08
2.73423e+08
2.86882e+08
3.00552e+08
3.14355e+08
3.28201e+08
3.41995e+08
3.55619e+08
3.68929e+08
3.81773e+08
3.93979e+08
4.05335e+08
4.15634e+08
4.24664e+08
4.32203e+08
4.38023e+08
4.41906e+08
4.43677e+08
4.43215e+08
4.40394e+08
4.35155e+08
4.27506e+08
4.17563e+08
4.05496e+08
3.91568e+08
3.76021e+08
3.59184e+08
3.41295e+08
3.22654e+08
3.03504e+08
2.84068e+08
3.88133e+07
3.87913e+07
3.87287e+07
3.86254e+07
3.84816e+07
3.82972e+07
3.8072e+07
3.78059e+07
3.74988e+07
3.71508e+07
3.67622e+07
3.63333e+07
3.58646e+07
3.53567e+07
3.48105e+07
3.42269e+07
3.36071e+07
3.29524e+07
3.22641e+07
3.15437e+07
3.07925e+07
3.00123e+07
2.92047e+07
2.83717e+07
2.75155e+07
2.66383e+07
2.57424e+07
2.48302e+07
2.3904e+07
2.29663e+07
2.20196e+07
2.10665e+07
2.01096e+07
1.91518e+07
1.8196e+07
1.72453e+07
1.63028e+07
1.5372e+07
1.44563e+07
1.35594e+07
1.26853e+07
1.1838e+07
1.10217e+07
1.0241e+07
9.50054e+06
8.80511e+06
8.15974e+06
7.56955e+06
7.03974e+06
6.57561e+06
6.18243e+06
5.86547e+06
5.62994e+06
5.48094e+06
5.42339e+06
5.46198e+06
5.60105e+06
5.84457e+06
6.19607e+06
6.65859e+06
7.23459e+06
7.92591e+06
8.73381e+06
9.6588e+06
1.07007e+07
1.18586e+07
1.31309e+07
1.45153e+07
1.6009e+07
1.76085e+07
1.93098e+07
2.11083e+07
2.2999e+07
2.49763e+07
2.70347e+07
2.91679e+07
3.13698e+07
3.36338e+07
3.59534e+07
3.83218e+07
4.07319e+07
4.31767e+07
4.56491e+07
4.81415e+07
5.06465e+07
5.31564e+07
5.56632e+07
5.8159e+07
6.06353e+07
6.30836e+07
6.54953e+07
6.78615e+07
7.01732e+07
7.24217e+07
7.45983e+07
7.66946e+07
7.8703e+07
8.06165e+07
8.24282e+07
8.41329e+07
8.57259e+07
8.7204e+07
8.85652e+07
8.9809e+07
9.09364e+07
9.1948e+07
9.28455e+07
9.36325e+07
9.4313e+07
9.48916e+07
9.53742e+07
9.57672e+07
9.60772e+07
9.63123e+07
9.64818e+07
9.65949e+07
9.66612e+07
9.66922e+07
9.66999e+07
9.66982e+07
9.67033e+07
9.67356e+07
9.68152e+07
9.69669e+07
9.72179e+07
9.75976e+07
9.81394e+07
9.88827e+07
9.9869e+07
1.01144e+08
1.02753e+08
1.04743e+08
1.07158e+08
1.10043e+08
1.1344e+08
1.17386e+08
1.21913e+08
1.27046e+08
1.32803e+08
1.39195e+08
1.46224e+08
1.53886e+08
1.62168e+08
1.71055e+08
1.80521e+08
1.90534e+08
2.01055e+08
2.12055e+08
2.23485e+08
2.35301e+08
2.47446e+08
2.59869e+08
2.725e+08
2.85266e+08
2.98083e+08
3.10861e+08
3.23485e+08
3.35822e+08
3.47735e+08
3.59064e+08
3.69617e+08
3.79209e+08
3.87646e+08
3.94739e+08
4.00285e+08
4.04085e+08
4.05992e+08
4.05892e+08
4.03669e+08
3.99261e+08
3.92668e+08
3.83988e+08
3.7336e+08
3.61008e+08
3.4713e+08
3.32008e+08
3.15839e+08
2.98896e+08
2.81409e+08
2.63632e+08
3.49564e+07
3.49411e+07
3.48908e+07
3.48062e+07
3.46873e+07
3.45338e+07
3.43453e+07
3.41217e+07
3.38628e+07
3.35684e+07
3.32388e+07
3.28739e+07
3.24741e+07
3.20397e+07
3.15714e+07
3.10698e+07
3.05356e+07
2.99698e+07
2.93731e+07
2.87469e+07
2.8092e+07
2.74098e+07
2.67017e+07
2.59691e+07
2.52139e+07
2.44379e+07
2.3643e+07
2.2831e+07
2.20039e+07
2.11638e+07
2.03128e+07
1.94532e+07
1.85873e+07
1.77176e+07
1.68467e+07
1.59773e+07
1.51123e+07
1.42548e+07
1.3408e+07
1.25755e+07
1.17609e+07
1.09682e+07
1.02014e+07
9.46501e+06
8.76344e+06
8.10149e+06
7.48405e+06
6.91619e+06
6.40301e+06
5.94976e+06
5.56165e+06
5.24389e+06
5.00165e+06
4.84001e+06
4.7638e+06
4.77765e+06
4.88584e+06
5.09228e+06
5.40038e+06
5.81307e+06
6.33275e+06
6.96121e+06
7.69957e+06
8.5483e+06
9.50717e+06
1.05753e+07
1.1751e+07
1.3032e+07
1.44155e+07
1.58981e+07
1.74759e+07
1.91444e+07
2.08988e+07
2.27338e+07
2.46437e+07
2.66229e+07
2.86651e+07
3.07643e+07
3.29139e+07
3.51075e+07
3.73384e+07
3.95999e+07
4.18848e+07
4.41861e+07
4.64964e+07
4.88086e+07
5.11148e+07
5.34075e+07
5.56788e+07
5.79204e+07
6.01245e+07
6.22826e+07
6.43866e+07
6.64287e+07
6.84008e+07
7.02956e+07
7.21062e+07
7.38265e+07
7.54505e+07
7.69741e+07
7.83932e+07
7.97049e+07
8.09085e+07
8.20038e+07
8.29919e+07
8.3874e+07
8.4652e+07
8.53292e+07
8.59096e+07
8.63975e+07
8.67983e+07
8.71173e+07
8.73596e+07
8.75324e+07
8.76441e+07
8.7703e+07
8.77173e+07
8.76965e+07
8.7651e+07
8.75926e+07
8.75359e+07
8.74979e+07
8.74963e+07
8.75523e+07
8.76906e+07
8.79377e+07
8.83235e+07
8.88835e+07
8.96554e+07
9.06806e+07
9.20014e+07
9.36606e+07
9.57008e+07
9.81647e+07
1.01092e+08
1.0452e+08
1.0848e+08
1.12996e+08
1.18089e+08
1.23772e+08
1.30049e+08
1.36919e+08
1.44371e+08
1.52397e+08
1.60973e+08
1.70071e+08
1.79659e+08
1.8971e+08
2.00179e+08
2.11018e+08
2.22176e+08
2.33603e+08
2.45236e+08
2.57004e+08
2.68825e+08
2.80611e+08
2.92253e+08
3.03626e+08
3.14609e+08
3.25051e+08
3.34783e+08
3.43636e+08
3.51437e+08
3.58021e+08
3.63216e+08
3.66845e+08
3.68786e+08
3.68934e+08
3.67186e+08
3.63482e+08
3.57819e+08
3.50277e+08
3.40968e+08
3.30084e+08
3.17784e+08
3.04301e+08
2.89803e+08
2.74523e+08
2.58683e+08
2.42556e+08
3.14714e+07
3.14618e+07
3.14222e+07
3.13542e+07
3.12575e+07
3.11316e+07
3.09762e+07
3.0791e+07
3.05755e+07
3.03296e+07
3.00531e+07
2.9746e+07
2.94083e+07
2.90403e+07
2.86422e+07
2.82144e+07
2.77572e+07
2.72712e+07
2.67571e+07
2.62156e+07
2.56474e+07
2.50536e+07
2.44351e+07
2.37932e+07
2.31291e+07
2.24444e+07
2.17405e+07
2.10189e+07
2.02813e+07
1.95293e+07
1.87649e+07
1.79898e+07
1.7206e+07
1.64158e+07
1.56215e+07
1.48255e+07
1.40305e+07
1.32392e+07
1.24547e+07
1.16804e+07
1.09196e+07
1.01763e+07
9.4543e+06
8.75785e+06
8.0914e+06
7.45962e+06
6.86732e+06
6.31947e+06
5.82111e+06
5.37737e+06
4.99344e+06
4.67447e+06
4.42558e+06
4.25181e+06
4.15794e+06
4.1485e+06
4.2277e+06
4.39933e+06
4.66672e+06
5.03268e+06
5.49949e+06
6.06886e+06
6.74181e+06
7.51873e+06
8.39932e+06
9.38257e+06
1.04669e+07
1.16499e+07
1.29289e+07
1.43003e+07
1.57603e+07
1.73048e+07
1.89289e+07
2.06274e+07
2.2395e+07
2.4226e+07
2.61145e+07
2.80544e+07
3.00397e+07
3.2064e+07
3.4121e+07
3.62042e+07
3.83067e+07
4.04217e+07
4.25423e+07
4.46613e+07
4.67717e+07
4.8866e+07
5.09369e+07
5.29766e+07
5.49778e+07
5.69328e+07
5.88343e+07
6.0675e+07
6.24477e+07
6.4146e+07
6.57638e+07
6.72957e+07
6.87372e+07
7.00845e+07
7.13344e+07
7.24848e+07
7.35354e+07
7.44863e+07
7.53388e+07
7.60943e+07
7.67549e+07
7.73237e+07
7.78044e+07
7.82013e+07
7.85188e+07
7.87613e+07
7.89336e+07
7.9042e+07
7.90933e+07
7.90947e+07
7.90535e+07
7.89776e+07
7.88765e+07
7.876e+07
7.86411e+07
7.85339e+07
7.84538e+07
7.84191e+07
7.84514e+07
7.85749e+07
7.88166e+07
7.92077e+07
7.97822e+07
8.05768e+07
8.16303e+07
8.29833e+07
8.46756e+07
8.67475e+07
8.9238e+07
9.21825e+07
9.56118e+07
9.95522e+07
1.04026e+08
1.09047e+08
1.14623e+08
1.20755e+08
1.27438e+08
1.34665e+08
1.42416e+08
1.50667e+08
1.59392e+08
1.68562e+08
1.78139e+08
1.88073e+08
1.98312e+08
2.08811e+08
2.1951e+08
2.30336e+08
2.41214e+08
2.52051e+08
2.62748e+08
2.73188e+08
2.83258e+08
2.92819e+08
3.01726e+08
3.09821e+08
3.16953e+08
3.22976e+08
3.27751e+08
3.31118e+08
3.32984e+08
3.33258e+08
3.3185e+08
3.28708e+08
3.23828e+08
3.17271e+08
3.09132e+08
2.9957e+08
2.88716e+08
2.76754e+08
2.63827e+08
2.50131e+08
2.35874e+08
2.21343e+08
2.84688e+07
2.84633e+07
2.84324e+07
2.83782e+07
2.83004e+07
2.81984e+07
2.80716e+07
2.79196e+07
2.77419e+07
2.75381e+07
2.73079e+07
2.70511e+07
2.67675e+07
2.64571e+07
2.61199e+07
2.57559e+07
2.53653e+07
2.49485e+07
2.45058e+07
2.40375e+07
2.35442e+07
2.30266e+07
2.24854e+07
2.19216e+07
2.13361e+07
2.073e+07
2.01045e+07
1.94608e+07
1.88001e+07
1.8124e+07
1.74339e+07
1.67314e+07
1.60182e+07
1.52963e+07
1.45678e+07
1.38348e+07
1.30998e+07
1.23653e+07
1.16344e+07
1.091e+07
1.01955e+07
9.49447e+06
8.81084e+06
8.14865e+06
7.51227e+06
6.90625e+06
6.33535e+06
5.80443e+06
5.31847e+06
4.88255e+06
4.50177e+06
4.18127e+06
3.9261e+06
3.74121e+06
3.63131e+06
3.60085e+06
3.65396e+06
3.79433e+06
4.02516e+06
4.34915e+06
4.76843e+06
5.28459e+06
5.89853e+06
6.61052e+06
7.42015e+06
8.32633e+06
9.32736e+06
1.04209e+07
1.16042e+07
1.28736e+07
1.42253e+07
1.56553e+07
1.71588e+07
1.87308e+07
2.03659e+07
2.20586e+07
2.38033e+07
2.55939e+07
2.74246e+07
2.92893e+07
3.11819e+07
3.30962e+07
3.50256e+07
3.69635e+07
3.89034e+07
4.08384e+07
4.27618e+07
4.46666e+07
4.65459e+07
4.83926e+07
5.01998e+07
5.19606e+07
5.36682e+07
5.53161e+07
5.6898e+07
5.84082e+07
5.98413e+07
6.11932e+07
6.24601e+07
6.36388e+07
6.47269e+07
6.5723e+07
6.6627e+07
6.74391e+07
6.81611e+07
6.87943e+07
6.93407e+07
6.98036e+07
7.01862e+07