/*--------------------------------*- C++ -*----------------------------------*\
| =========                 |                                                 |
| \\      /  F ield         | OpenFOAM: The Open Source CFD Toolbox           |
|  \\    /   O peration     | Version:  dev                                   |
|   \\  /    A nd           | Web:      http://www.openfoam.org               |
|    \\/     M anipulation  |                                                 |
\*---------------------------------------------------------------------------*/
FoamFile
{
    version     2.0;
    format      ascii;
    class       volScalarField;
    object      rho;
    location    "9.123";
}
// * * * * * * * * * * * * * * * * * * * * * * * * * * * * * * * * * * * * * //

dimensions      [1 -3 0 0 0 0 0];

internalField   nonuniform List<scalar> 
12225
(
1.11782
1.12661
1.1285
1.1282
1.12944
1.12815
1.12879
1.12806
1.12842
1.12905
1.12925
1.13131
1.13137
1.13461
1.13558
1.13666
1.14396
1.13973
1.12378
1.13533
1.13759
1.1388
1.14052
1.14148
1.14158
1.14335
1.14156
1.1453
1.14207
1.14795
1.14407
1.14989
1.15055
1.14911
1.15361
1.15096
1.12383
1.13491
1.1375
1.13879
1.14129
1.14239
1.14402
1.14544
1.14585
1.14807
1.14764
1.15068
1.14985
1.15369
1.15431
1.15777
1.1572
1.16196
1.12488
1.13387
1.13817
1.137
1.14173
1.13997
1.14454
1.1424
1.14703
1.14521
1.14936
1.1482
1.1518
1.15189
1.1551
1.15724
1.15946
1.16211
1.12752
1.13321
1.13891
1.13584
1.14128
1.13869
1.14352
1.1409
1.14579
1.14391
1.14831
1.14766
1.15107
1.15203
1.1546
1.15724
1.15968
1.1619
1.12662
1.13306
1.13933
1.13601
1.14142
1.13878
1.14332
1.1407
1.1458
1.14347
1.14855
1.14692
1.15127
1.15132
1.15462
1.15591
1.15917
1.16132
1.12707
1.13375
1.13935
1.13636
1.14183
1.13903
1.14351
1.14098
1.14612
1.1436
1.14849
1.14709
1.15103
1.15132
1.15459
1.15552
1.15844
1.16079
1.12823
1.13366
1.14013
1.13594
1.14237
1.13858
1.14377
1.14056
1.14653
1.14306
1.14851
1.14642
1.15114
1.15054
1.15415
1.15474
1.1584
1.15963
1.12859
1.13396
1.14024
1.13603
1.14236
1.13871
1.14364
1.14099
1.14606
1.14324
1.14804
1.14646
1.15059
1.1506
1.15335
1.15455
1.15718
1.15824
1.12935
1.1341
1.14046
1.13617
1.14245
1.13874
1.14341
1.14104
1.14515
1.14294
1.14687
1.146
1.14898
1.14964
1.15152
1.15307
1.15443
1.15588
1.12934
1.13482
1.13996
1.13658
1.14153
1.13867
1.14253
1.1411
1.14359
1.14268
1.1451
1.14499
1.147
1.14771
1.1491
1.15044
1.15151
1.15277
1.12937
1.13606
1.13968
1.13731
1.14048
1.13839
1.14118
1.14005
1.14149
1.14127
1.14263
1.14283
1.14404
1.14467
1.14558
1.14693
1.14743
1.14826
1.13049
1.13722
1.13886
1.13751
1.13886
1.1378
1.13915
1.13853
1.13906
1.13937
1.13975
1.14019
1.14084
1.14126
1.14209
1.14289
1.14321
1.14411
1.13147
1.13866
1.13883
1.13798
1.13805
1.13735
1.13751
1.13692
1.13698
1.13713
1.13705
1.13733
1.1376
1.13788
1.13833
1.13879
1.13902
1.13953
1.13334
1.13991
1.13918
1.13829
1.13759
1.13681
1.13613
1.13537
1.13508
1.13487
1.13447
1.13463
1.13461
1.13476
1.135
1.13517
1.13537
1.13568
1.13543
1.14094
1.13951
1.13826
1.13725
1.13628
1.13529
1.13449
1.1339
1.13332
1.13277
1.13264
1.13246
1.13242
1.13237
1.13248
1.13266
1.13283
1.13833
1.14264
1.14085
1.13927
1.13795
1.13667
1.13555
1.13473
1.13402
1.13328
1.13281
1.13254
1.13235
1.13223
1.13213
1.13231
1.13254
1.13279
1.14074
1.14403
1.14256
1.14122
1.14005
1.1389
1.13807
1.13736
1.13678
1.1363
1.13595
1.1358
1.13595
1.13586
1.13607
1.13646
1.13686
1.1373
1.14308
1.14577
1.14484
1.1439
1.14323
1.14264
1.14236
1.14213
1.14213
1.14215
1.14212
1.14231
1.1427
1.14284
1.14347
1.14396
1.14476
1.14543
1.14452
1.14718
1.14683
1.14651
1.14659
1.14663
1.14695
1.14744
1.14808
1.14874
1.14939
1.14993
1.15067
1.15125
1.15201
1.15272
1.15388
1.15478
1.14541
1.1481
1.14852
1.14909
1.14992
1.15067
1.15169
1.1527
1.1539
1.15515
1.15636
1.15734
1.15856
1.15949
1.16062
1.16162
1.16302
1.16428
1.14612
1.14908
1.1501
1.15126
1.15267
1.15399
1.15554
1.15727
1.15915
1.16082
1.16264
1.16415
1.1656
1.16694
1.16835
1.16957
1.1712
1.17257
1.14677
1.14992
1.15149
1.15323
1.15522
1.15698
1.159
1.16106
1.16323
1.16539
1.16754
1.16944
1.17128
1.17292
1.17454
1.17603
1.17766
1.17917
1.14728
1.15062
1.15261
1.15468
1.15705
1.1592
1.1615
1.16382
1.16635
1.16881
1.17125
1.17355
1.17569
1.17764
1.17943
1.18108
1.18278
1.18432
1.14748
1.15103
1.15339
1.15589
1.1586
1.16111
1.16372
1.16631
1.16896
1.17164
1.17425
1.17663
1.17902
1.1811
1.18312
1.18503
1.18687
1.18859
1.1479
1.15145
1.15381
1.15646
1.15942
1.1623
1.16521
1.168
1.17081
1.17351
1.17616
1.17864
1.18113
1.18337
1.18554
1.18757
1.18956
1.19143
1.14818
1.15171
1.1542
1.15697
1.16002
1.16293
1.16592
1.16882
1.17182
1.17475
1.17768
1.18043
1.18314
1.1856
1.18797
1.19022
1.19241
1.19448
1.14802
1.15178
1.15433
1.15717
1.16041
1.16365
1.16698
1.17022
1.17356
1.17671
1.17983
1.18265
1.18543
1.18789
1.19042
1.1927
1.19511
1.19726
1.14827
1.15213
1.15468
1.15759
1.16088
1.16423
1.16753
1.17072
1.17381
1.17654
1.17914
1.18149
1.1838
1.18589
1.18802
1.18985
1.19194
1.19325
1.14801
1.15084
1.15245
1.15428
1.15634
1.15839
1.16032
1.16219
1.16398
1.16566
1.16737
1.16902
1.17063
1.17218
1.17371
1.17514
1.17651
1.17772
1.22635
1.28306
1.28092
1.27391
1.27238
1.26354
1.25334
1.24422
1.23699
1.23133
1.22805
1.22643
1.22446
1.22328
1.22242
1.22111
1.22015
1.21849
1.21684
1.21531
1.21296
1.21061
1.20844
1.20569
1.20347
1.20161
1.19962
1.19795
1.19617
1.19422
1.19237
1.19071
1.18856
1.18788
1.18594
1.18352
1.1871
1.18489
1.17238
1.16354
1.16405
1.16843
1.17202
1.17181
1.1714
1.1714
1.17192
1.17481
1.17745
1.17516
1.17491
1.17613
1.17815
1.17785
1.17315
1.17033
1.16878
1.16751
1.16689
1.17009
1.16945
1.14767
1.12416
1.12794
1.14607
1.15864
1.16625
1.17145
1.17501
1.17756
1.17944
1.1808
1.18184
1.18268
1.18337
1.18393
1.18429
1.18457
1.18479
1.18492
1.18495
1.18475
1.18436
1.18407
1.18395
1.18368
1.18316
1.18266
1.18257
1.18224
1.18214
1.18223
1.18216
1.18147
1.18207
1.18243
1.18154
1.18196
1.18154
1.18045
1.17957
1.17806
1.17666
1.17558
1.17458
1.17465
1.1739
1.17267
1.16964
1.167
1.16527
1.1628
1.16039
1.15775
1.15648
1.15708
1.15595
1.15404
1.15535
1.15677
1.15193
1.14464
1.13903
1.134
1.12933
1.12653
1.12525
1.12758
1.13127
1.13403
1.13547
1.13808
1.13783
1.14188
1.13665
1.13861
1.14156
1.13426
1.14295
1.13277
1.1334
1.13223
1.13705
1.13731
1.1378
1.13806
1.13859
1.13862
1.13786
1.13608
1.13358
1.13122
1.12972
1.12895
1.12869
1.12897
1.12903
1.12952
1.13005
1.12841
1.12946
1.12525
1.12325
1.11717
1.12151
1.12386
1.11621
1.12192
1.13959
1.1285
1.12229
1.1089
1.11246
1.11667
1.11584
1.09874
1.08876
1.08024
1.07842
1.07003
1.21424
1.2816
1.31783
1.32426
1.31115
1.27828
1.24082
1.21246
1.19442
1.18228
1.17496
1.17208
1.17025
1.16969
1.16996
1.17032
1.1715
1.17138
1.17197
1.17359
1.17253
1.1723
1.17385
1.17149
1.17083
1.17195
1.16986
1.17131
1.17071
1.16999
1.17148
1.16904
1.17063
1.16914
1.16917
1.1708
1.16799
1.17592
1.17337
1.17554
1.18457
1.19316
1.21721
1.21638
1.20531
1.20365
1.20125
1.20512
1.20678
1.19869
1.19526
1.19068
1.18454
1.19261
1.19531
1.18011
1.18602
1.2043
1.18556
1.1691
1.18445
1.19719
1.20222
1.21037
1.21595
1.2175
1.21803
1.21641
1.21536
1.21367
1.21159
1.2109
1.20926
1.20909
1.20883
1.20873
1.20905
1.20907
1.20999
1.2107
1.21208
1.21339
1.21406
1.21409
1.21626
1.21795
1.21963
1.21881
1.22167
1.22327
1.22505
1.2283
1.23311
1.23506
1.23574
1.24289
1.24629
1.24738
1.25526
1.25589
1.26042
1.2631
1.26525
1.26608
1.26675
1.26772
1.26801
1.26741
1.2628
1.25651
1.2516
1.24534
1.23877
1.23296
1.23111
1.23726
1.23735
1.22972
1.23216
1.23709
1.22522
1.18557
1.14678
1.13666
1.13708
1.12953
1.13496
1.14293
1.14672
1.15276
1.15472
1.15746
1.153
1.15499
1.14767
1.12275
1.17668
1.13687
1.16766
1.13801
1.12558
1.11456
1.12805
1.13163
1.13422
1.13466
1.13948
1.14534
1.15461
1.16005
1.15905
1.1514
1.14534
1.14328
1.14214
1.14725
1.15482
1.16609
1.17871
1.18431
1.19468
1.1962
1.20157
1.19429
1.20595
1.2286
1.23007
1.22817
1.18543
1.09158
1.19709
1.2385
1.26402
1.24993
1.2055
1.2037
1.20111
1.18527
1.20867
1.17613
1.20273
1.25872
1.31474
1.3443
1.33374
1.28434
1.23071
1.19442
1.17336
1.1618
1.15564
1.15246
1.15174
1.15201
1.1527
1.15439
1.15565
1.15703
1.15951
1.16182
1.16264
1.16448
1.16784
1.16788
1.16712
1.17185
1.16949
1.16936
1.17019
1.16834
1.17039
1.16579
1.16783
1.16624
1.16321
1.16631
1.16025
1.16073
1.1606
1.15813
1.15282
1.16043
1.17324
1.18823
1.22048
1.22861
1.20615
1.20434
1.19823
1.19016
1.18842
1.18666
1.1731
1.16948
1.17487
1.17901
1.18851
1.19762
1.20104
1.20523
1.20914
1.20589
1.2023
1.19457
1.1873
1.17913
1.17146
1.16552
1.15937
1.15477
1.15116
1.14735
1.14481
1.14261
1.14051
1.13958
1.13773
1.13653
1.13601
1.13541
1.13548
1.13571
1.1356
1.13408
1.13472
1.13439
1.13717
1.13547
1.13665
1.13768
1.13777
1.13796
1.14367
1.14894
1.14691
1.15339
1.16297
1.1616
1.17781
1.18276
1.19308
1.20602
1.22019
1.23025
1.23979
1.2455
1.25468
1.26232
1.26941
1.27183
1.27076
1.26664
1.25853
1.25159
1.24825
1.2524
1.27291
1.28353
1.25024
1.24535
1.27461
1.24314
1.1728
1.12651
1.11262
1.11475
1.12541
1.13859
1.14982
1.16085
1.1633
1.16384
1.15491
1.13543
1.18702
1.0883
1.18492
1.14952
1.19133
1.18321
1.1302
1.10024
1.0951
1.10058
1.10174
1.09761
1.09977
1.09998
1.11593
1.13832
1.16204
1.16607
1.14984
1.1195
1.0925
1.08186
1.08573
1.1085
1.13229
1.16077
1.18872
1.20615
1.2247
1.24213
1.22493
1.22267
1.26885
1.24931
1.08371
0.994029
1.06438
1.19435
1.32071
1.19842
1.0292
1.04725
1.15945
1.19077
1.27875
1.28416
1.1949
1.23754
1.29255
1.32796
1.31426
1.26499
1.21795
1.18763
1.16955
1.15969
1.15546
1.15491
1.15631
1.15874
1.16139
1.16443
1.1672
1.17019
1.17322
1.17624
1.17648
1.18073
1.18155
1.18078
1.1804
1.18375
1.18282
1.17886
1.18087
1.17856
1.1789
1.17647
1.17505
1.17465
1.17408
1.17417
1.17313
1.17788
1.17078
1.17643
1.17647
1.16436
1.16051
1.16768
1.18039
1.20629
1.21206
1.22034
1.21312
1.20717
1.2144
1.21574
1.1999
1.19763
1.19765
1.20325
1.20622
1.20567
1.20534
1.19855
1.19114
1.18294
1.17446
1.16672
1.16056
1.15528
1.15119
1.14916
1.14706
1.14642
1.14593
1.14526
1.14578
1.14405
1.14416
1.14211
1.14063
1.13936
1.13714
1.13604
1.13412
1.13135
1.12888
1.12762
1.1266
1.12332
1.12134
1.11946
1.11843
1.11662
1.11618
1.11278
1.1108
1.10871
1.10791
1.10616
1.10714
1.10487
1.10822
1.11075
1.11497
1.11995
1.13014
1.13892
1.15295
1.16034
1.17021
1.17929
1.18819
1.20205
1.22218
1.25269
1.26755
1.25355
1.24697
1.23976
1.24057
1.28396
1.29283
1.23178
1.2355
1.26476
1.20451
1.1391
1.11952
1.13043
1.14932
1.16798
1.18161
1.18856
1.18377
1.17543
1.17867
1.1392
1.19084
1.15715
1.15375
1.12041
1.16235
1.2123
1.18748
1.16461
1.13301
1.12286
1.11349
1.10034
1.09712
1.09222
1.07873
1.06817
1.09355
1.13072
1.14897
1.13957
1.128
1.10902
1.0673
1.03641
1.0346
1.07123
1.12789
1.18722
1.2251
1.27249
1.22871
1.19631
1.25636
1.22179
1.09123
1.12782
1.06316
1.18224
1.30348
1.08632
1.01044
0.956428
1.04762
1.1338
1.27269
1.33723
1.18821
1.21595
1.2537
1.27402
1.25304
1.21207
1.17774
1.15531
1.14282
1.13882
1.14044
1.14491
1.15001
1.1558
1.16135
1.1664
1.17169
1.17575
1.18039
1.1841
1.18479
1.18969
1.19103
1.18891
1.18965
1.19049
1.1884
1.1849
1.18382
1.18131
1.17882
1.17615
1.176
1.17086
1.16665
1.16912
1.16044
1.16035
1.1611
1.1639
1.16069
1.15572
1.16476
1.1675
1.15978
1.18066
1.19959
1.20337
1.18989
1.19315
1.19675
1.20446
1.20582
1.20553
1.20451
1.20358
1.19849
1.19488
1.18634
1.17921
1.17275
1.1657
1.15936
1.15493
1.14989
1.14715
1.14546
1.14544
1.14627
1.14756
1.14952
1.15121
1.15158
1.15254
1.1515
1.15
1.14785
1.14495
1.14398
1.14162
1.13866
1.13636
1.13074
1.13069
1.1262
1.12457
1.1239
1.12147
1.12112
1.11988
1.11927
1.11796
1.11796
1.11707
1.11406
1.11397
1.10959
1.10808
1.10651
1.10315
1.10316
1.10102
1.10314
1.10399
1.10919
1.11494
1.11887
1.13159
1.1418
1.14556
1.15166
1.15214
1.17657
1.2088
1.24444
1.27356
1.25978
1.24292
1.26476
1.25193
1.21385
1.22045
1.22657
1.19315
1.16136
1.15836
1.16244
1.16583
1.17439
1.18288
1.20599
1.19202
1.17611
1.21455
1.16612
1.17069
1.17381
1.13241
1.12736
1.12962
1.17117
1.17134
1.1562
1.14198
1.13397
1.11517
1.09363
1.09067
1.11866
1.11935
1.10248
1.10069
1.12605
1.12047
1.10636
1.10272
1.10096
1.08007
1.0483
1.04205
1.07068
1.14663
1.19651
1.27409
1.23481
1.19018
1.23621
1.17532
1.1183
1.13988
1.11747
1.21846
1.22731
1.10849
1.23783
1.09835
1.0284
1.09994
1.25525
1.34944
1.18255
1.19594
1.21209
1.21134
1.18784
1.16145
1.14436
1.13717
1.13992
1.14878
1.15955
1.16954
1.17833
1.1871
1.19574
1.20411
1.21091
1.21637
1.22116
1.22371
1.22445
1.22117
1.218
1.21483
1.20771
1.20129
1.19718
1.19356
1.18925
1.18658
1.18691
1.183
1.18178
1.18326
1.18187
1.17746
1.17718
1.17857
1.16431
1.16227
1.17293
1.17626
1.16358
1.14992
1.14814
1.16921
1.18265
1.18922
1.18996
1.19073
1.19807
1.20011
1.20019
1.19871
1.19496
1.19168
1.1862
1.18013
1.1733
1.16855
1.16064
1.15335
1.14788
1.14424
1.14213
1.1436
1.14593
1.14937
1.15433
1.15849
1.16293
1.16678
1.16826
1.17131
1.17066
1.1715
1.16898
1.16482
1.16106
1.15952
1.15297
1.15111
1.14026
1.13922
1.13057
1.12469
1.12023
1.11527
1.11038
1.10807
1.10707
1.1076
1.10708
1.10921
1.10963
1.1097
1.11152
1.10835
1.1084
1.10534
1.10465
1.10208
1.09924
1.09627
1.094
1.09478
1.09941
1.09488
1.10298
1.11456
1.11604
1.11507
1.13248
1.15396
1.17016
1.18839
1.22312
1.25067
1.26529
1.27324
1.23441
1.18925
1.17167
1.16472
1.16232
1.16754
1.16138
1.14064
1.17447
1.17553
1.21062
1.24074
1.21041
1.20378
1.18873
1.15162
1.1742
1.14642
1.16592
1.11507
1.12745
1.11468
1.12164
1.11569
1.11556
1.11243
1.10218
1.05799
1.08955
1.13436
1.12739
1.07817
1.10452
1.14023
1.11696
1.07241
1.07537
1.10268
1.08893
1.06199
1.04841
1.12176
1.17294
1.26604
1.24502
1.18799
1.22154
1.16564
1.14083
1.1115
1.09067
1.14756
1.10446
1.1745
1.31318
1.19406
1.04858
1.0823
1.24117
1.35253
1.17839
1.18094
1.18234
1.17086
1.15387
1.1434
1.14014
1.14456
1.1549
1.16572
1.17556
1.18723
1.19985
1.21347
1.22623
1.2355
1.24029
1.23882
1.23356
1.22415
1.21077
1.19765
1.18623
1.17605
1.16932
1.16583
1.16136
1.159
1.15835
1.15589
1.15487
1.15613
1.15858
1.16031
1.16655
1.16669
1.17027
1.17181
1.17188
1.16803
1.15207
1.15454
1.15637
1.16605
1.1673
1.1666
1.16852
1.18075
1.1896
1.19144
1.19655
1.19357
1.19224
1.18811
1.18566
1.1813
1.1754
1.17033
1.16327
1.15518
1.1469
1.14311
1.14136
1.14205
1.14586
1.15125
1.15623
1.16271
1.16966
1.17621
1.18181
1.18599
1.1878
1.18796
1.18868
1.18728
1.18759
1.18781
1.18363
1.1829
1.17568
1.17927
1.17179
1.16827
1.1585
1.15194
1.1446
1.1378
1.12862
1.11828
1.11143
1.10567
1.10217
1.10139
1.10398
1.10207
1.10728
1.10803
1.11032
1.10853
1.11059
1.10806
1.10855
1.10405
1.10269
1.09178
1.09547
1.09871
1.0898
1.0911
1.10066
1.10473
1.10314
1.10991
1.12903
1.13725
1.14767
1.16932
1.2112
1.26221
1.26713
1.24671
1.20483
1.15987
1.14643
1.13551
1.153
1.12917
1.16125
1.16026
1.20238
1.21833
1.19435
1.19454
1.20548
1.14142
1.17011
1.11678
1.15268
1.12132
1.12789
1.10789
1.11735
1.10884
1.1006
1.07995
1.09396
1.0634
1.0819
1.11748
1.12021
1.04708
1.03297
1.09988
1.10971
1.04715
1.02419
1.07869
1.09929
1.07617
1.03133
1.09795
1.15305
1.24701
1.24822
1.18258
1.20049
1.18457
1.15202
1.12401
1.09216
1.06131
1.05943
1.213
1.20993
1.12593
1.00524
1.0526
1.21357
1.336
1.17573
1.17141
1.16557
1.15373
1.1452
1.14146
1.14296
1.15286
1.16703
1.18363
1.20456
1.22914
1.24983
1.26254
1.26234
1.25037
1.23202
1.2117
1.19319
1.18006
1.17377
1.17093
1.1723
1.17744
1.17923
1.17973
1.17859
1.17515
1.17133
1.16847
1.16357
1.15901
1.1544
1.15288
1.15865
1.1596
1.16699
1.16833
1.1783
1.1804
1.17432
1.18173
1.17206
1.17058
1.15703
1.15078
1.1608
1.1796
1.19221
1.19189
1.19273
1.18734
1.18355
1.18051
1.17643
1.17195
1.16651
1.15984
1.15131
1.1455
1.14245
1.14289
1.14398
1.1478
1.15177
1.15592
1.16079
1.16814
1.175
1.18194
1.18606
1.1865
1.18618
1.18268
1.18087
1.17491
1.17273
1.17384
1.17336
1.17313
1.16733
1.1726
1.17289
1.17368
1.16551
1.16399
1.1595
1.15881
1.15761
1.14358
1.13403
1.1283
1.11512
1.1081
1.11102
1.10632
1.1032
1.10543
1.11199
1.10674
1.10954
1.10812
1.11164
1.1057
1.10453
1.10199
1.09417
1.09548
1.09342
1.08665
1.08477
1.09118
1.09549
1.08989
1.09936
1.11363
1.12153
1.12722
1.13933
1.18904
1.21562
1.24015
1.25765
1.23467
1.20367
1.17046
1.20095
1.18004
1.19763
1.20282
1.20093
1.24902
1.22335
1.15662
1.19601
1.15698
1.17754
1.11403
1.14338
1.11452
1.10437
1.08913
1.09996
1.09506
1.10664
1.08759
1.08223
1.05443
1.05447
1.07427
1.11007
1.07154
1.03193
1.07383
1.10674
1.05179
0.997413
1.04799
1.09417
1.08986
1.02711
1.0795
1.13491
1.22311
1.25225
1.18174
1.16135
1.19886
1.1549
1.10164
1.08225
1.0997
1.12203
1.17587
1.12306
1.11836
0.991127
1.01591
1.19417
1.3264
1.1742
1.16609
1.15767
1.14772
1.14105
1.13991
1.15131
1.17257
1.19907
1.23074
1.26017
1.27273
1.26102
1.2342
1.20724
1.19161
1.18755
1.19193
1.2009
1.21158
1.22014
1.22622
1.22582
1.22197
1.2169
1.21009
1.20224
1.19836
1.19106
1.1823
1.17352
1.16898
1.17041
1.1732
1.17098
1.1639
1.15891
1.14818
1.1538
1.1538
1.15648
1.15832
1.14893
1.15414
1.14855
1.15423
1.16612
1.18164
1.19165
1.1917
1.18962
1.1842
1.17943
1.17506
1.17093
1.16597
1.15895
1.15211
1.14609
1.14349
1.14203
1.14331
1.14447
1.14649
1.14805
1.15294
1.16069
1.17091
1.18038
1.18955
1.1944
1.19118
1.18555
1.18049
1.17585
1.16555
1.15596
1.15575
1.1562
1.15443
1.14846
1.15101
1.15314
1.15436
1.15163
1.15123
1.14805
1.14761
1.15746
1.15278
1.14168
1.14826
1.1386
1.1235
1.12615
1.12974
1.11765
1.1137
1.12037
1.11867
1.11663
1.1142
1.11287
1.11317
1.11086
1.10695
1.10562
1.10484
1.09999
1.09712
1.08859
1.08941
1.0896
1.08199
1.08404
1.08878
1.09941
1.11072
1.10631
1.12758
1.15952
1.1762
1.2097
1.22572
1.25113
1.21049
1.22522
1.20772
1.24671
1.22546
1.17645
1.20303
1.20588
1.15873
1.17253
1.1145
1.1441
1.09918
1.11665
1.09812
1.08956
1.10112
1.11125
1.09367
1.08775
1.08409
1.09171
1.08088
1.07211
1.07403
1.09494
1.06266
1.02931
1.0617
1.10685
1.06047
0.989623
1.04105
1.09809
1.0953
1.01435
1.05932
1.11996
1.20062
1.25417
1.18581
1.12335
1.19927
1.155
1.09803
1.06375
1.14198
1.14208
1.08234
1.05494
1.12705
1.01063
0.999784
1.1772
1.31726
1.17306
1.16242
1.15209
1.14212
1.13848
1.14967
1.17688
1.21144
1.24805
1.27049
1.26075
1.23075
1.21285
1.21533
1.22736
1.2403
1.25029
1.25442
1.25255
1.24576
1.23481
1.22368
1.2146
1.20532
1.19997
1.19986
1.19896
1.19666
1.19353
1.1906
1.18496
1.1782
1.17196
1.17203
1.17468
1.17542
1.17446
1.17235
1.18076
1.17883
1.18189
1.1752
1.16733
1.16906
1.16038
1.16966
1.17068
1.18128
1.19372
1.1931
1.18864
1.18025
1.17508
1.17049
1.16518
1.15975
1.153
1.14718
1.14189
1.14089
1.14087
1.14157
1.14093
1.14288
1.14685
1.15541
1.16524
1.17796
1.19328
1.20434
1.2051
1.19533
1.18235
1.1763
1.17493
1.16622
1.15307
1.14854
1.14696
1.14362
1.1347
1.13349
1.13552
1.13446
1.13508
1.13443
1.13654
1.13364
1.13946
1.14636
1.13115
1.138
1.14787
1.13273
1.12648
1.14104
1.13322
1.12198
1.12589
1.12851
1.12293
1.11816
1.12021
1.11267
1.11065
1.1106
1.10112
1.10649
1.09783
1.1025
1.09726
1.0913
1.098
1.07754
1.0878
1.08181
1.08265
1.08121
1.10318
1.08619
1.12142
1.1212
1.15892
1.15456
1.20407
1.18712
1.20904
1.17093
1.20415
1.21031
1.1699
1.16718
1.13756
1.10222
1.13766
1.10355
1.11572
1.07329
1.10816
1.09598
1.08841
1.10333
1.09108
1.08508
1.07555
1.07272
1.0758
1.05991
1.06034
1.07524
1.10116
1.08861
1.04959
1.06823
1.11735
1.07801
0.995738
1.03719
1.0985
1.10214
1.00213
1.03629
1.10887
1.18131
1.24925
1.19113
1.10499
1.19312
1.14466
1.11921
1.05793
1.09217
1.11156
1.0373
1.02109
1.10469
1.02917
1.00715
1.15759
1.29633
1.17198
1.15956
1.14814
1.14052
1.14607
1.17285
1.21166
1.24687
1.26455
1.25027
1.22593
1.23226
1.25274
1.2504
1.24241
1.23871
1.23106
1.22422
1.21836
1.21504
1.21321
1.21311
1.21659
1.21538
1.21584
1.21332
1.21232
1.21139
1.21009
1.20908
1.20623
1.19991
1.19009
1.17766
1.16754
1.16255
1.15835
1.15817
1.16625
1.16972
1.17779
1.17482
1.17248
1.17258
1.16242
1.17178
1.16693
1.17541
1.19327
1.19463
1.18714
1.17684
1.17163
1.16873
1.16481
1.15867
1.15042
1.14453
1.14075
1.14107
1.1399
1.13937
1.13848
1.14188
1.14647
1.15407
1.1649
1.18047
1.19951
1.211
1.20872
1.19766
1.18532
1.17976
1.17993
1.17332
1.16242
1.15734
1.1539
1.14578
1.1316
1.12612
1.12415
1.12372
1.12154
1.11745
1.11735
1.12211
1.12178
1.13129
1.12846
1.12212
1.13839
1.13483
1.1268
1.13795
1.13894
1.12352
1.13036
1.1307
1.12782
1.12232
1.12162
1.12278
1.11511
1.11714
1.10359
1.11179
1.10017
1.10351
1.10691
1.0855
1.10448
1.08607
1.08697
1.08281
1.09173
1.06178
1.10068
1.0673
1.09638
1.07905
1.12456
1.1155
1.13034
1.13638
1.17407
1.13717
1.14949
1.1518
1.13006
1.1404
1.12359
1.10504
1.1051
1.07271
1.10058
1.07856
1.09786
1.06803
1.08021
1.10219
1.08288
1.09521
1.07883
1.07489
1.06942
1.05666
1.05623
1.058
1.08479
1.0953
1.05541
1.04936
1.11717
1.11077
1.02363
1.03664
1.08751
1.10514
1.00062
1.01362
1.08902
1.15439
1.2389
1.19721
1.10575
1.17775
1.12023
1.12171
1.07686
1.05646
1.09869
1.03347
1.02995
1.11093
1.04729
1.00148
1.16401
1.28867
1.17097
1.15777
1.14641
1.14284
1.15953
1.19798
1.23354
1.25341
1.25202
1.23841
1.24893
1.26183
1.24217
1.23144
1.23773
1.22846
1.22353
1.22246
1.21801
1.2206
1.21603
1.21435
1.21453
1.20806
1.20787
1.20454
1.20205
1.19854
1.19622
1.19348
1.19478
1.20009
1.20704
1.20709
1.20037
1.19206
1.17899
1.16604
1.15267
1.14434
1.14294
1.14411
1.15158
1.15817
1.15835
1.1643
1.15951
1.1731
1.19111
1.19599
1.19152
1.18031
1.17234
1.16697
1.16079
1.15419
1.14663
1.14184
1.1393
1.13949
1.1369
1.13566
1.13623
1.14083
1.14554
1.15166
1.16426
1.183
1.20277
1.21459
1.21184
1.20119
1.194
1.1931
1.19636
1.19412
1.18319
1.17311
1.17005
1.16231
1.14753
1.1332
1.12853
1.12486
1.12104
1.11625
1.109
1.11116
1.11361
1.11322
1.11787
1.11261
1.11936
1.12401
1.1169
1.12487
1.13372
1.11619
1.11904
1.13
1.11972
1.11843
1.12001
1.11875
1.11051
1.1137
1.10273
1.10951
1.1034
1.09938
1.11147
1.09262
1.09889
1.09518
1.09157
1.08421
1.09673
1.06611
1.09747
1.07293
1.09026
1.06092
1.10116
1.09808
1.08924
1.09533
1.12116
1.10784
1.12034
1.11388
1.10062
1.10208
1.0902
1.09545
1.09976
1.07596
1.08373
1.06608
1.08749
1.06307
1.08387
1.0803
1.07736
1.09206
1.06167
1.07455
1.06963
1.0737
1.07601
1.04959
1.05681
1.10546
1.0961
1.04583
1.08882
1.12839
1.05498
1.03833
1.07626
1.10952
1.00741
0.993545
1.06089
1.12081
1.22017
1.20007
1.11752
1.15861
1.09831
1.09605
1.10098
1.03781
1.06477
1.0262
1.03612
1.12985
1.05274
1.01705
1.15334
1.28289
1.17023
1.15753
1.14677
1.14499
1.16792
1.21259
1.24758
1.25688
1.24942
1.25254
1.26077
1.24007
1.21425
1.22006
1.21527
1.19971
1.21131
1.21092
1.21232
1.21811
1.21375
1.21142
1.20954
1.20546
1.20612
1.20703
1.20918
1.21007
1.2072
1.19958
1.18781
1.17662
1.17641
1.18696
1.19593
1.20072
1.20538
1.20498
1.19399
1.18033
1.16278
1.15075
1.15441
1.15964
1.17007
1.17031
1.16073
1.18147
1.19612
1.19262
1.18579
1.1753
1.17024
1.16937
1.1655
1.15832
1.1492
1.14407
1.14077
1.1395
1.13577
1.13579
1.13874
1.14074
1.142
1.14659
1.15856
1.17689
1.19763
1.21333
1.21123
1.1973
1.19341
1.19734
1.19901
1.19934
1.19568
1.18499
1.17942
1.17242
1.16013
1.14465
1.13677
1.12639
1.11883
1.10948
1.10742
1.10514
1.11195
1.11283
1.11193
1.10894
1.10954
1.11656
1.11186
1.11144
1.12177
1.11097
1.10768
1.12358
1.11895
1.11274
1.12043
1.12272
1.11048
1.11662
1.11436
1.10555
1.10888
1.10485
1.10389
1.09923
1.09681
1.10022
1.09478
1.09139
1.09694
1.07773
1.09023
1.08081
1.09265
1.0591
1.08705
1.09252
1.07864
1.08001
1.08606
1.08678
1.09429
1.08943
1.08646
1.08217
1.07619
1.07416
1.07397
1.07885
1.08421
1.05801
1.06914
1.06746
1.09018
1.06583
1.08178
1.07282
1.05971
1.08375
1.06006
1.07058
1.07842
1.06207
1.05983
1.11645
1.14485
1.08835
1.05696
1.11441
1.08086
1.04595
1.0584
1.11062
1.01697
0.980964
1.03931
1.09555
1.20097
1.20323
1.13207
1.14305
1.08499
1.08591
1.10318
1.02332
1.03763
1.04466
1.04766
1.13934
1.07876
1.02555
1.17819
1.24008
1.16926
1.15715
1.14679
1.14419
1.15979
1.19481
1.23617
1.25996
1.24841
1.24162
1.2412
1.21149
1.20119
1.22063
1.20863
1.20811
1.24005
1.25244
1.25605
1.2485
1.24261
1.23486
1.22736
1.22065
1.21352
1.21006
1.20891
1.21378
1.22156
1.22801
1.22424
1.2053
1.18142
1.17179
1.17411
1.17693
1.18332
1.19398
1.1986
1.19757
1.19097
1.17962
1.17717
1.17531
1.18675
1.1903
1.17613
1.19016
1.20292
1.19965
1.1924
1.17902
1.16918
1.16361
1.15937
1.15319
1.14597
1.14243
1.14036
1.13888
1.13601
1.13548
1.1374
1.13926
1.14206
1.14598
1.15141
1.15896
1.17259
1.19423
1.20961
1.20376
1.1952
1.19618
1.19493
1.19121
1.19181
1.19024
1.18798
1.18901
1.17821
1.16495
1.15195
1.1406
1.12865
1.11076
1.10231
1.09755
1.09784
1.09919
1.1014
1.09883
1.10391
1.10889
1.10929
1.10484
1.11174
1.10573
1.10093
1.11304
1.11129
1.10288
1.10809
1.1184
1.10636
1.10866
1.12077
1.10539
1.10595
1.11185
1.10405
1.09893
1.099
1.10448
1.09311
1.0944
1.09833
1.09265
1.08357
1.09008
1.09332
1.07093
1.08168
1.08543
1.07955
1.07985
1.07526
1.07845
1.079
1.08246
1.0788
1.07307
1.07337
1.07427
1.072
1.06911
1.07586
1.06544
1.06893
1.06889
1.08123
1.06937
1.08578
1.05674
1.07459
1.08328
1.04498
1.06058
1.08714
1.09778
1.12041
1.14521
1.15751
1.12481
1.05658
1.11187
1.10804
1.07505
1.05335
1.11019
1.03336
0.975059
1.02948
1.08324
1.1856
1.20336
1.14775
1.13295
1.07947
1.08576
1.08714
1.02254
1.03355
1.08138
1.06751
1.14856
1.11519
1.05491
1.23067
1.23321
1.16831
1.15742
1.14806
1.14876
1.16733
1.19665
1.22881
1.24743
1.23837
1.2299
1.23096
1.21104
1.20174
1.22277
1.22571
1.22427
1.23164
1.23888
1.23622
1.22414
1.21355
1.2067
1.20096
1.19695
1.19386
1.19235
1.19202
1.19148
1.19477
1.20809
1.23125
1.24489
1.23026
1.20502
1.19513
1.19427
1.19135
1.19472
1.19409
1.19637
1.20202
1.20062
1.19607
1.1932
1.19952
1.20448
1.20033
1.21163
1.21675
1.20498
1.19432
1.18308
1.1762
1.17383
1.1686
1.1594
1.14989
1.1443
1.14113
1.13795
1.13506
1.13569
1.13806
1.14074
1.14217
1.14215
1.14442
1.14745
1.15167
1.16451
1.18658
1.19489
1.18313
1.17738
1.1764
1.17166
1.17033
1.17469
1.17698
1.18664
1.19189
1.18656
1.17463
1.15958
1.14264
1.12489
1.11374
1.10657
1.10415
1.09663
1.09164
1.08797
1.0926
1.10244
1.10112
1.1017
1.10694
1.10514
1.10283
1.1103
1.10683
1.10183
1.10469
1.11244
1.10616
1.10447
1.11845
1.11048
1.10246
1.10906
1.10628
1.09713
1.10314
1.11014
1.10208
1.09741
1.1016
1.0989
1.08591
1.09382
1.09323
1.08804
1.08314
1.08286
1.08465
1.08179
1.07835
1.07786
1.0775
1.0799
1.07728
1.0763
1.07377
1.07584
1.07585
1.07704
1.07259
1.06467
1.07661
1.0733
1.07304
1.0778
1.0719
1.05827
1.0858
1.07525
1.02869
1.06003
1.11875
1.13812
1.18639
1.16634
1.14581
1.12027
1.06115
1.1317
1.13514
1.10124
1.05556
1.10991
1.0539
0.975286
1.01936
1.0715
1.17166
1.20127
1.16159
1.12492
1.07864
1.09056
1.06308
1.03054
1.04773
1.12235
1.09434
1.15624
1.15611
1.13191
1.24647
1.29099
1.16749
1.15844
1.14894
1.14303
1.15409
1.18252
1.21926
1.2439
1.23786
1.22007
1.21027
1.2013
1.19854
1.20863
1.21243
1.22073
1.22593
1.22428
1.21389
1.2118
1.21314
1.20788
1.20045
1.19648
1.1976
1.20026
1.20252
1.20306
1.19652
1.18274
1.17889
1.19888
1.21709
1.20671
1.18992
1.18783
1.18925
1.18888
1.19558
1.19604
1.20265
1.20895
1.20416
1.20153
1.21065
1.21213
1.2052
1.21787
1.23183
1.22469
1.20805
1.18848
1.17409
1.1697
1.16771
1.16189
1.15378
1.14975
1.1467
1.14356
1.1394
1.13916
1.14044
1.14491
1.14718
1.14599
1.14394
1.14263
1.1398
1.13563
1.14385
1.16215
1.16278
1.15772
1.15847
1.15441
1.14887
1.15191
1.15695
1.16521
1.18224
1.18798
1.19025
1.18249
1.16466
1.13633
1.12096
1.11203
1.10556
1.1007
1.09522
1.09393
1.09118
1.09652
1.09141
1.09025
1.09963
1.09891
1.09934
1.10612
1.10101
1.0979
1.10219
1.10548
1.10359
1.10469
1.11269
1.11068
1.1016
1.10705
1.10892
1.10065
1.10538
1.10886
1.10877
1.10162
1.10535
1.10157
1.09712
1.09463
1.09986
1.09529
1.08748
1.08975
1.0894
1.0872
1.08405
1.08246
1.08345
1.08314
1.08043
1.08057
1.07936
1.0792
1.08071
1.08045
1.07349
1.07486
1.07892
1.07675
1.07103
1.07938
1.06334
1.06973
1.08884
1.05094
1.02396
1.09711
1.14895
1.14897
1.16266
1.11451
1.11334
1.11486
1.05391
1.13015
1.13719
1.11274
1.05843
1.10859
1.07633
0.983647
1.01049
1.06021
1.15348
1.19107
1.17103
1.11361
1.0824
1.09012
1.04102
1.04447
1.08016
1.16738
1.12449
1.16111
1.20072
1.22336
1.23406
1.31614
1.16715
1.16182
1.15625
1.15014
1.14646
1.15823
1.18394
1.21534
1.23121
1.23157
1.22993
1.22622
1.21638
1.21404
1.21687
1.22185
1.22253
1.22179
1.2207
1.21871
1.22033
1.22002
1.21632
1.21191
1.20733
1.20689
1.20789
1.21489
1.22775
1.23564
1.22307
1.21002
1.22117
1.22727
1.20632
1.18901
1.18716
1.18764
1.19058
1.19746
1.19919
1.2089
1.2124
1.20391
1.21257
1.22219
1.21525
1.21985
1.22937
1.22924
1.22365
1.20884
1.18845
1.17577
1.16941
1.16088
1.15109
1.14521
1.14167
1.13912
1.13597
1.13565
1.13794
1.1421
1.14529
1.14882
1.15037
1.14847
1.14394
1.13721
1.13028
1.13288
1.13728
1.13613
1.13973
1.14092
1.13501
1.13602
1.13436
1.1333
1.14829
1.16579
1.17938
1.18855
1.17989
1.15832
1.13752
1.1254
1.11123
1.10066
1.09706
1.09766
1.09791
1.09898
1.09502
1.08937
1.09629
1.0949
1.09555
1.1017
1.09673
1.09583
1.1014
1.10276
1.10242
1.105
1.10878
1.10676
1.10103
1.10753
1.11034
1.10909
1.11007
1.11122
1.1138
1.10627
1.10281
1.10195
1.10384
1.09822
1.10405
1.09582
1.0993
1.09818
1.0967
1.09462
1.09193
1.09139
1.08945
1.08942
1.08535
1.08659
1.08533
1.0852
1.08389
1.08362
1.07923
1.07992
1.08148
1.07588
1.07146
1.07797
1.06471
1.07666
1.09287
1.01984
1.04418
1.12494
1.14884
1.13428
1.12164
1.10264
1.11789
1.14433
1.07267
1.12659
1.11226
1.10676
1.058
1.10744
1.09587
0.995287
1.00758
1.04723
1.13229
1.17408
1.17597
1.09812
1.09208
1.08032
1.03103
1.06862
1.1253
1.20689
1.15884
1.16525
1.23688
1.28976
1.21501
1.3417
1.16633
1.16339
1.16252
1.16471
1.16191
1.16214
1.16827
1.18272
1.19736
1.20521
1.21147
1.21858
1.21971
1.21975
1.22197
1.2216
1.22201
1.22082
1.21615
1.21535
1.21744
1.21477
1.2095
1.20269
1.19834
1.19789
1.19749
1.19318
1.1899
1.19716
1.21293
1.21251
1.21023
1.2257
1.22796
1.20503
1.18999
1.18821
1.18741
1.19374
1.19819
1.20247
1.21539
1.21384
1.21105
1.22107
1.22193
1.22907
1.23541
1.23041
1.2236
1.20989
1.19124
1.18089
1.17862
1.17244
1.16342
1.15573
1.14992
1.14489
1.14055
1.1397
1.14292
1.14849
1.1494
1.1507
1.15456
1.15733
1.15651
1.15401
1.14739
1.13931
1.13839
1.13393
1.13024
1.13315
1.13047
1.13617
1.13577
1.12674
1.12732
1.13856
1.15671
1.18053
1.18241
1.1617
1.14519
1.13001
1.11625
1.10364
1.10264
1.10185
1.10106