/*--------------------------------*- C++ -*----------------------------------*\
| =========                 |                                                 |
| \\      /  F ield         | OpenFOAM: The Open Source CFD Toolbox           |
|  \\    /   O peration     | Version:  dev                                   |
|   \\  /    A nd           | Web:      http://www.openfoam.org               |
|    \\/     M anipulation  |                                                 |
\*---------------------------------------------------------------------------*/
FoamFile
{
    version     2.0;
    format      ascii;
    class       volScalarField;
    object      rho_0;
    location    "9.123";
}
// * * * * * * * * * * * * * * * * * * * * * * * * * * * * * * * * * * * * * //

dimensions      [1 -3 0 0 0 0 0];

internalField   nonuniform List<scalar> 
12225
(
1.08343
1.09191
1.09412
1.09452
1.09656
1.09621
1.09778
1.09795
1.09917
1.10054
1.10162
1.10441
1.10532
1.10918
1.11142
1.11247
1.12173
1.1201
1.08943
1.09991
1.10237
1.10427
1.10674
1.1086
1.10956
1.11229
1.11124
1.11584
1.11335
1.12011
1.11708
1.12338
1.12566
1.12439
1.13066
1.13044
1.08948
1.09953
1.10232
1.10436
1.10757
1.10959
1.11199
1.11445
1.11544
1.11861
1.11879
1.12292
1.12256
1.12749
1.12863
1.13301
1.13372
1.14028
1.0906
1.09868
1.10312
1.10282
1.10821
1.10744
1.11277
1.11164
1.11693
1.11589
1.12073
1.12057
1.12465
1.126
1.12934
1.13255
1.13568
1.13909
1.09335
1.09821
1.10409
1.10189
1.10804
1.1064
1.11204
1.11035
1.11598
1.11482
1.11998
1.12008
1.12408
1.12612
1.12903
1.13264
1.13554
1.13836
1.09296
1.09841
1.10489
1.10236
1.1085
1.10678
1.11215
1.11044
1.11627
1.11469
1.12052
1.11963
1.12454
1.12546
1.12936
1.13137
1.13512
1.13789
1.09378
1.09959
1.10537
1.10325
1.10937
1.10756
1.11279
1.11122
1.11702
1.11536
1.12088
1.12029
1.12458
1.12581
1.1295
1.13126
1.13479
1.13761
1.09545
1.10009
1.1067
1.10342
1.11048
1.10769
1.11362
1.11136
1.118
1.11539
1.12144
1.12019
1.12511
1.12551
1.12943
1.13086
1.13506
1.13671
1.09643
1.10099
1.10745
1.10409
1.11111
1.10841
1.11413
1.11235
1.11821
1.11616
1.12161
1.12079
1.12517
1.12609
1.1291
1.13118
1.13425
1.13564
1.09798
1.10192
1.10854
1.10503
1.11208
1.10927
1.11477
1.11324
1.11818
1.11669
1.12132
1.12114
1.12444
1.12592
1.12803
1.13042
1.13213
1.13389
1.09914
1.10367
1.1092
1.1065
1.11237
1.11033
1.11509
1.11444
1.1178
1.11755
1.12069
1.1212
1.12364
1.12498
1.12673
1.12867
1.13011
1.13163
1.10062
1.10636
1.11043
1.1087
1.11285
1.11154
1.11527
1.11492
1.11721
1.11764
1.11969
1.12046
1.12215
1.1233
1.12461
1.1264
1.12726
1.12835
1.10358
1.10943
1.11158
1.11087
1.11319
1.1129
1.1152
1.11534
1.11667
1.11763
1.11868
1.11965
1.12078
1.12165
1.12286
1.12404
1.12467
1.12583
1.10699
1.11346
1.11408
1.1139
1.11489
1.11499
1.11605
1.11622
1.11703
1.11783
1.11836
1.11915
1.11989
1.12056
1.12138
1.12216
1.12265
1.12342
1.11218
1.11815
1.11783
1.11765
1.11778
1.11778
1.11793
1.1179
1.11829
1.11869
1.11885
1.11949
1.11989
1.12041
1.12097
1.12141
1.12184
1.12237
1.1185
1.12362
1.12257
1.122
1.12174
1.12153
1.12127
1.12112
1.12115
1.12112
1.12105
1.12134
1.12153
1.12182
1.12204
1.12237
1.12275
1.12308
1.1269
1.13104
1.12954
1.12854
1.12786
1.12724
1.12675
1.12651
1.12633
1.12606
1.12599
1.12606
1.12615
1.12628
1.12639
1.12673
1.1271
1.12746
1.1359
1.13907
1.13779
1.13687
1.13619
1.13555
1.13523
1.13499
1.13483
1.13471
1.13468
1.13481
1.13515
1.13523
1.13556
1.13606
1.13653
1.13702
1.14465
1.1472
1.14637
1.14573
1.14542
1.14521
1.14532
1.14544
1.14576
1.14605
1.14624
1.14664
1.14719
1.14744
1.14815
1.14868
1.14949
1.15015
1.1515
1.15413
1.15383
1.15372
1.15405
1.15437
1.155
1.15578
1.15666
1.15753
1.15834
1.15902
1.15986
1.16051
1.16133
1.16206
1.16318
1.16401
1.15715
1.15966
1.16007
1.16079
1.16182
1.1628
1.16406
1.1653
1.16669
1.16812
1.16944
1.17051
1.17182
1.17278
1.17393
1.17493
1.17629
1.17746
1.16152
1.16429
1.16529
1.16657
1.16816
1.16969
1.17146
1.17339
1.17543
1.17724
1.17916
1.18073
1.18223
1.18359
1.185
1.18619
1.18778
1.18906
1.16498
1.16796
1.16952
1.17139
1.17354
1.17549
1.17772
1.17997
1.18231
1.18459
1.18682
1.18877
1.19063
1.19227
1.19387
1.19531
1.19688
1.19831
1.16752
1.1708
1.17281
1.17501
1.17754
1.17986
1.18236
1.18486
1.18754
1.19012
1.19264
1.19499
1.19714
1.19907
1.20081
1.2024
1.20402
1.20546
1.16933
1.17278
1.17519
1.17783
1.18071
1.18339
1.18617
1.18893
1.19172
1.19452
1.19721
1.19964
1.20204
1.2041
1.20607
1.2079
1.20965
1.21125
1.17079
1.1743
1.17673
1.17955
1.18269
1.18574
1.18883
1.19177
1.19472
1.19752
1.20024
1.20276
1.20525
1.20745
1.20957
1.21152
1.21341
1.21516
1.17183
1.17531
1.17788
1.18082
1.18405
1.18713
1.19029
1.19334
1.19647
1.19949
1.20248
1.20526
1.20798
1.2104
1.21272
1.21489
1.21698
1.21893
1.17212
1.17585
1.17848
1.1815
1.18493
1.18834
1.19183
1.19524
1.19871
1.20196
1.20516
1.20803
1.21082
1.21327
1.21575
1.21797
1.22029
1.22234
1.17266
1.1765
1.17914
1.18224
1.18574
1.18928
1.19277
1.19615
1.19939
1.20223
1.20491
1.2073
1.20962
1.21168
1.21377
1.21552
1.21752
1.21869
1.17246
1.17532
1.177
1.17898
1.18122
1.18342
1.18551
1.18753
1.18943
1.19118
1.19292
1.19458
1.19617
1.19767
1.19913
1.20046
1.20171
1.20274
1.26906
1.32796
1.32605
1.31888
1.31696
1.30715
1.29598
1.28609
1.27831
1.27222
1.26864
1.26669
1.26434
1.26283
1.26155
1.25979
1.25834
1.2561
1.2539
1.25173
1.24865
1.24564
1.24275
1.23923
1.23634
1.23373
1.23094
1.22847
1.22578
1.22293
1.22022
1.21756
1.21459
1.21297
1.20984
1.20711
1.20965
1.20448
1.19014
1.18182
1.18285
1.18652
1.18858
1.18682
1.18533
1.18433
1.18404
1.18601
1.18687
1.1831
1.18223
1.18265
1.18336
1.18111
1.17509
1.17163
1.16928
1.16707
1.16574
1.16785
1.16333
1.13835
1.117
1.12402
1.1416
1.1519
1.15772
1.16148
1.16375
1.16511
1.16584
1.16609
1.16602
1.16579
1.16542
1.16493
1.16425
1.16353
1.16277
1.16196
1.16111
1.16007
1.15891
1.15792
1.15714
1.1563
1.15529
1.15439
1.15395
1.15337
1.15308
1.15304
1.1529
1.15224
1.1529
1.15335
1.15264
1.15327
1.15309
1.15232
1.15175
1.15061
1.14959
1.14892
1.14834
1.14885
1.14863
1.148
1.14564
1.14365
1.14261
1.14093
1.13937
1.13764
1.13726
1.13884
1.13895
1.13828
1.14078
1.14367
1.14057
1.13504
1.1311
1.1276
1.12436
1.12299
1.12302
1.12659
1.13154
1.13552
1.13812
1.14179
1.14258
1.14756
1.14308
1.1459
1.14937
1.14266
1.15192
1.14201
1.14314
1.14235
1.14757
1.148
1.14872
1.14918
1.14989
1.15004
1.14933
1.14758
1.14507
1.1427
1.14119
1.14043
1.14017
1.14049
1.14061
1.1412
1.14175
1.14005
1.14097
1.13641
1.13402
1.12742
1.13114
1.13229
1.12341
1.12801
1.14354
1.13088
1.12194
1.10671
1.1085
1.11074
1.10768
1.08867
1.07743
1.06783
1.06469
1.0555
1.25566
1.32547
1.36395
1.37098
1.35654
1.32094
1.28106
1.25135
1.23263
1.22005
1.21254
1.20947
1.20743
1.20667
1.20667
1.20677
1.20757
1.20699
1.20734
1.20838
1.20662
1.20616
1.20695
1.20369
1.20277
1.20311
1.20027
1.20117
1.1995
1.19823
1.19868
1.19528
1.1962
1.1935
1.19301
1.19338
1.19027
1.19736
1.19311
1.19595
1.20466
1.21393
1.23594
1.23007
1.21828
1.21651
1.2133
1.21639
1.21541
1.20557
1.20138
1.19532
1.1899
1.19783
1.19626
1.1808
1.19
1.20375
1.17996
1.16679
1.18378
1.19408
1.1977
1.20479
1.20872
1.20882
1.20813
1.20543
1.20339
1.20074
1.19771
1.1961
1.19348
1.19237
1.19117
1.19012
1.1895
1.1886
1.18861
1.18846
1.18898
1.18948
1.1894
1.1888
1.19031
1.19145
1.1926
1.19142
1.19389
1.19523
1.19681
1.1999
1.20452
1.20641
1.20716
1.2142
1.21763
1.21891
1.22662
1.22748
1.23203
1.23479
1.23703
1.23807
1.23898
1.24033
1.24096
1.24087
1.23685
1.23121
1.22704
1.22168
1.21611
1.21129
1.21029
1.21743
1.21873
1.21228
1.21631
1.22306
1.21327
1.17623
1.13918
1.13022
1.13216
1.12587
1.13231
1.14165
1.14671
1.15397
1.15719
1.16106
1.15763
1.1606
1.15385
1.12998
1.18455
1.14495
1.17649
1.14655
1.13447
1.12397
1.13809
1.14178
1.14455
1.14526
1.1504
1.15655
1.16602
1.17135
1.17009
1.16224
1.15616
1.15386
1.15254
1.15782
1.16567
1.17736
1.1902
1.19595
1.20636
1.20763
1.21266
1.20504
1.21609
1.23754
1.2378
1.23377
1.18757
1.09517
1.20041
1.23732
1.25909
1.24196
1.19829
1.19545
1.18852
1.17142
1.19242
1.15817
1.24247
1.29994
1.35848
1.38925
1.37675
1.32397
1.26826
1.23129
1.21002
1.1984
1.1922
1.18898
1.18822
1.18835
1.1889
1.1904
1.19133
1.19252
1.19475
1.19652
1.19684
1.19854
1.20114
1.20015
1.1993
1.20325
1.19954
1.19898
1.19887
1.1963
1.19714
1.19163
1.19317
1.18994
1.18663
1.18831
1.18092
1.18127
1.17948
1.17546
1.17046
1.17915
1.19152
1.20793
1.23848
1.23936
1.21488
1.21382
1.20559
1.19688
1.19467
1.19032
1.17571
1.17361
1.17888
1.18257
1.19135
1.1984
1.20036
1.20351
1.2056
1.20065
1.19582
1.1869
1.17872
1.16973
1.16138
1.15475
1.14787
1.14253
1.13812
1.1335
1.13011
1.12709
1.12414
1.12235
1.11969
1.1177
1.11643
1.11508
1.11448
1.11408
1.11339
1.11134
1.11149
1.1108
1.11324
1.11128
1.11224
1.11316
1.11316
1.1134
1.11913
1.12459
1.1227
1.12929
1.1391
1.13797
1.15421
1.15941
1.16975
1.18272
1.19684
1.207
1.21644
1.22233
1.23154
1.23934
1.24664
1.24925
1.2483
1.24409
1.23637
1.23059
1.22824
1.23327
1.25475
1.26656
1.23495
1.23163
1.26265
1.23388
1.16612
1.1211
1.10788
1.11079
1.1225
1.13693
1.14945
1.16181
1.16563
1.16742
1.15936
1.14069
1.19303
1.09463
1.19322
1.15787
1.20073
1.19128
1.13781
1.10888
1.10448
1.11024
1.11127
1.10725
1.10956
1.11023
1.12682
1.14945
1.17306
1.17605
1.1586
1.12753
1.10095
1.09089
1.09496
1.11774
1.14184
1.17118
1.19964
1.21734
1.23599
1.25313
1.23362
1.23038
1.27614
1.25212
1.08375
0.99307
1.06812
1.19745
1.31564
1.18569
1.02083
1.04604
1.155
1.18148
1.26517
1.26557
1.23272
1.27583
1.33175
1.36684
1.35057
1.29928
1.25189
1.2218
1.204
1.19449
1.19064
1.19041
1.19198
1.19449
1.19713
1.20007
1.2027
1.20549
1.20824
1.21066
1.21055
1.21448
1.21411
1.21255
1.21205
1.21455
1.21197
1.20755
1.20898
1.20557
1.20496
1.20147
1.19942
1.19812
1.19665
1.19578
1.19428
1.19726
1.18938
1.19518
1.19162
1.17775
1.1757
1.18377
1.19698
1.22158
1.22461
1.23038
1.22043
1.21509
1.22197
1.21986
1.20291
1.20148
1.20116
1.2059
1.20705
1.20495
1.20303
1.19474
1.18625
1.17716
1.1679
1.15955
1.15275
1.1468
1.14203
1.13925
1.13629
1.13473
1.13327
1.13159
1.1311
1.12836
1.12749
1.12452
1.12215
1.12005
1.11699
1.11514
1.11256
1.10917
1.10624
1.10435
1.10297
1.09929
1.09702
1.09487
1.09361
1.0917
1.09115
1.08779
1.08597
1.08412
1.08349
1.08205
1.08367
1.08163
1.08564
1.08869
1.09339
1.099
1.10965
1.11888
1.13319
1.14087
1.15111
1.16022
1.16919
1.18323
1.20337
1.23439
1.24932
1.23515
1.22821
1.22116
1.22309
1.26811
1.27875
1.21958
1.22452
1.25573
1.19797
1.13361
1.11447
1.12619
1.14636
1.16647
1.1815
1.18982
1.18601
1.17886
1.18293
1.14367
1.19708
1.16289
1.16036
1.12809
1.17226
1.22189
1.19578
1.17292
1.14162
1.13194
1.12235
1.10929
1.10624
1.10081
1.0871
1.07796
1.10489
1.14184
1.15881
1.14856
1.13686
1.11676
1.07428
1.04377
1.04303
1.08104
1.13866
1.19851
1.23616
1.28301
1.23601
1.20317
1.26248
1.22268
1.09219
1.12474
1.06226
1.18469
1.29561
1.07335
0.995882
0.946044
1.04502
1.12958
1.26357
1.32089
1.2237
1.25083
1.28732
1.30525
1.28204
1.24094
1.20766
1.18638
1.17516
1.17239
1.17496
1.18
1.18541
1.19141
1.19706
1.20214
1.20732
1.21115
1.2155
1.21845
1.21877
1.22295
1.22284
1.21993
1.22009
1.21956
1.21613
1.212
1.21005
1.20654
1.20324
1.2
1.19863
1.19214
1.18815
1.18884
1.17897
1.17932
1.17908
1.18013
1.17551
1.17184
1.18034
1.17915
1.17275
1.19618
1.21195
1.21116
1.19712
1.20135
1.2042
1.21058
1.21027
1.20881
1.20667
1.2043
1.19786
1.19303
1.18329
1.17552
1.1683
1.16054
1.15361
1.14854
1.14282
1.13942
1.13696
1.13612
1.13601
1.1363
1.13721
1.13781
1.13716
1.137
1.13499
1.13245
1.12942
1.12577
1.12402
1.12086
1.11736
1.11433
1.10849
1.10787
1.10323
1.10131
1.10039
1.09781
1.0974
1.096
1.09528
1.09373
1.09363
1.0926
1.08963
1.08959
1.08537
1.08411
1.08295
1.08011
1.0806
1.07908
1.08201
1.08364
1.08972
1.09603
1.10033
1.11384
1.12442
1.1286
1.13589
1.13774
1.16182
1.193
1.22846
1.25804
1.24461
1.22869
1.25135
1.23921
1.20345
1.21227
1.21973
1.18768
1.15672
1.15465
1.16008
1.16491
1.17439
1.18416
1.2081
1.19471
1.18016
1.21906
1.17116
1.17718
1.18
1.13848
1.13482
1.1385
1.18033
1.17903
1.16388
1.15001
1.14186
1.12242
1.10144
1.10034
1.12933
1.12903
1.11115
1.10949
1.13488
1.12855
1.11409
1.11021
1.10915
1.0888
1.05681
1.05088
1.08053
1.15764
1.20719
1.28404
1.24161
1.19651
1.24109
1.17631
1.11988
1.1408
1.11739
1.21869
1.21892
1.10157
1.22167
1.07403
1.01843
1.09611
1.24828
1.33495
1.21547
1.22763
1.24154
1.23812
1.21398
1.18907
1.17389
1.16864
1.1732
1.18326
1.19467
1.20508
1.21427
1.22344
1.23235
1.24066
1.24698
1.2517
1.25538
1.25649
1.25551
1.25044
1.24609
1.24153
1.23306
1.22607
1.22144
1.2171
1.21216
1.2093
1.20875
1.20401
1.20289
1.20382
1.20121
1.19608
1.19636
1.19475
1.1793
1.17966
1.18925
1.18871
1.17276
1.1604
1.16248
1.18347
1.19363
1.19835
1.19801
1.19843
1.2049
1.20506
1.20384
1.20102
1.19618
1.19179
1.18528
1.1783
1.17077
1.16521
1.15647
1.14867
1.1427
1.13851
1.13584
1.13661
1.13808
1.1406
1.14456
1.14763
1.15095
1.15367
1.15408
1.15612
1.15441
1.15427
1.15068
1.14551
1.1411
1.13864
1.1316
1.12873
1.11745
1.11602
1.1072
1.10124
1.09681
1.09184
1.08731
1.08539
1.08462
1.08533
1.08497
1.08709
1.08725
1.08751
1.08891
1.08582
1.08586
1.083
1.08245
1.08025
1.07782
1.07552
1.07391
1.07589
1.08086
1.07711
1.08643
1.09854
1.10033
1.09963
1.11837
1.14121
1.15839
1.17774
1.21219
1.23923
1.25394
1.26146
1.22352
1.18042
1.16486
1.15938
1.15798
1.16455
1.15939
1.1399
1.17478
1.17716
1.2135
1.24378
1.21372
1.20822
1.19286
1.15731
1.18038
1.15304
1.17228
1.12103
1.13453
1.12137
1.12902
1.12303
1.12317
1.11949
1.10757
1.06488
1.10058
1.14436
1.13321
1.0836
1.11288
1.14825
1.12184
1.07634
1.08187
1.11136
1.09703
1.06926
1.05661
1.13202
1.18325
1.27526
1.25123
1.19329
1.2255
1.16797
1.14171
1.11122
1.09085
1.14807
1.09983
1.17316
1.30543
1.17456
1.03687
1.07816
1.23563
1.33915
1.20856
1.20986
1.20942
1.19664
1.18046
1.17159
1.16984
1.17583
1.1873
1.19883
1.20955
1.22239
1.23587
1.24969
1.26155
1.26892
1.27128
1.26727
1.25972
1.24842
1.23389
1.22032
1.2087
1.19862
1.19216
1.18851
1.18359
1.18095
1.17963
1.17644
1.17494
1.1759
1.17758
1.17901
1.18472
1.18402
1.18746
1.18778
1.18762
1.18076
1.1642
1.16869
1.17053
1.17971
1.17794
1.17548
1.17826
1.19093
1.19802
1.19842
1.20208
1.19742
1.19507
1.18993
1.18662
1.18123
1.17452
1.16864
1.16071
1.1519
1.14328
1.13923
1.13703
1.13722
1.14037
1.14494
1.14904
1.1546
1.16059
1.16609
1.17072
1.17399
1.17488
1.17438
1.17427
1.17233
1.17185
1.17098
1.16589
1.16431
1.15648
1.15898
1.15024
1.14604
1.13584
1.12869
1.12106
1.11377
1.1042
1.09461
1.08832
1.08298
1.08035
1.08023
1.08264
1.08114
1.08672
1.08725
1.08925
1.08786
1.08989
1.08758
1.08795
1.08404
1.08301
1.07273
1.07747
1.08081
1.073
1.0757
1.08584
1.09003
1.08959
1.09815
1.11803
1.12687
1.13883
1.16178
1.20422
1.25435
1.2583
1.23735
1.19629
1.15308
1.14144
1.13232
1.15032
1.12778
1.16137
1.16153
1.20556
1.22077
1.19723
1.19959
1.20876
1.14553
1.17498
1.12229
1.15922
1.12695
1.13398
1.11411
1.12416
1.11487
1.1062
1.08632
1.09992
1.06957
1.09064
1.12448
1.12305
1.04926
1.03999
1.10813
1.1136
1.04899
1.02918
1.08677
1.10657
1.08156
1.03771
1.10713
1.16255
1.25493
1.25369
1.18669
1.20334
1.18749
1.15224
1.12304
1.0899
1.05852
1.05736
1.21004
1.2041
1.11242
0.996394
1.0508
1.20934
1.32397
1.20293
1.19765
1.19075
1.17876
1.17097
1.16803
1.17104
1.18277
1.19864
1.21727
1.24007
1.26481
1.28327
1.2921
1.28793
1.27337
1.25389
1.23358
1.21572
1.20365
1.19849
1.19651
1.19834
1.20336
1.20442
1.20401
1.20184
1.19747
1.19272
1.18881
1.1827
1.17721
1.17224
1.17126
1.17627
1.17639
1.18269
1.18296
1.19272
1.19235
1.18737
1.19328
1.18096
1.17822
1.16319
1.1596
1.17202
1.1902
1.2
1.19764
1.19706
1.19043
1.18593
1.1821
1.17714
1.17185
1.16557
1.15807
1.14902
1.14301
1.13974
1.13977
1.14031
1.1435
1.14673
1.15016
1.15433
1.16087
1.16685
1.17282
1.17601
1.17584
1.17498
1.17095
1.16866
1.1625
1.1603
1.16083
1.15948
1.15866
1.15234
1.15712
1.15625
1.15616
1.14716
1.14489
1.13985
1.13847
1.13554
1.12106
1.11192
1.10526
1.09272
1.08695
1.08987
1.08485
1.08316
1.08585
1.09213
1.08711
1.09039
1.08921
1.09311
1.08715
1.08639
1.08376
1.0767
1.07866
1.07683
1.07086
1.07063
1.07766
1.08241
1.07828
1.0892
1.10412
1.11253
1.11931
1.13407
1.18518
1.21114
1.23526
1.25137
1.22779
1.19713
1.16641
1.19822
1.17803
1.19707
1.20302
1.20446
1.25253
1.22357
1.15988
1.2005
1.16129
1.1809
1.11805
1.14881
1.11844
1.10872
1.09483
1.10627
1.10128
1.11224
1.09238
1.08644
1.05905
1.06082
1.08125
1.11469
1.07347
1.03726
1.08159
1.11115
1.05242
1.0011
1.05641
1.10199
1.09402
1.03137
1.08701
1.14322
1.23002
1.25727
1.18439
1.16307
1.20154
1.15389
1.10029
1.08139
1.09414
1.11796
1.17175
1.11936
1.10351
0.977902
1.01396
1.19126
1.31485
1.19811
1.18933
1.18027
1.1703
1.16404
1.16458
1.17886
1.20286
1.23176
1.26418
1.29063
1.29768
1.28217
1.25434
1.22824
1.21434
1.21215
1.21808
1.22798
1.23875
1.24655
1.25144
1.24957
1.24412
1.23795
1.23036
1.22203
1.21761
1.20937
1.19981
1.19064
1.1862
1.18765
1.18964
1.1857
1.17767
1.17115
1.1608
1.16692
1.16573
1.16849
1.16735
1.15798
1.16323
1.15734
1.16513
1.17648
1.19061
1.19844
1.19663
1.19319
1.18675
1.18135
1.1763
1.17145
1.16568
1.15794
1.15064
1.14437
1.14156
1.13972
1.1405
1.14104
1.14246
1.14351
1.14793
1.15509
1.16454
1.17303
1.18118
1.18515
1.18142
1.17564
1.17011
1.16482
1.15409
1.1447
1.14437
1.14435
1.14222
1.13609
1.13863
1.14019
1.1411
1.13739
1.13657
1.13262
1.13223
1.14115
1.13451
1.12403
1.12942
1.11782
1.10372
1.10724
1.10917
1.09767
1.09508
1.10203
1.0998
1.09869
1.09677
1.09579
1.09651
1.09455
1.09079
1.08998
1.08925
1.08533
1.08208
1.07441
1.07657
1.0771
1.07115
1.07371
1.08022
1.09185
1.10402
1.09981
1.12477
1.15664
1.17472
1.20793
1.22429
1.24745
1.20729
1.22352
1.20803
1.24735
1.22395
1.17789
1.20741
1.20783
1.16147
1.17452
1.11763
1.14757
1.10256
1.12104
1.10153
1.09461
1.10759
1.11581
1.09727
1.09172
1.08892
1.09615
1.08457
1.07636
1.07949
1.09821
1.06398
1.03367
1.06942
1.11164
1.06025
0.992695
1.04972
1.10536
1.09739
1.01615
1.06505
1.12719
1.20662
1.25827
1.18699
1.12465
1.20145
1.15349
1.09525
1.06325
1.14021
1.13606
1.07765
1.05395
1.1167
0.994027
0.994951
1.17482
1.30659
1.1934
1.18224
1.17144
1.16161
1.15936
1.1738
1.20417
1.24041
1.27623
1.29401
1.27895
1.24852
1.23331
1.23757
1.25096
1.26465
1.27405
1.27695
1.27354
1.26529
1.25314
1.24109
1.23182
1.22228
1.21702
1.21689
1.21587
1.21318
1.20985
1.20667
1.20053
1.19307
1.18621
1.1857
1.18756
1.18763
1.18603
1.18496
1.19299
1.1902
1.19251
1.18379
1.17672
1.17736
1.16857
1.17846
1.1778
1.18862
1.19987
1.19715
1.19121
1.18195
1.1765
1.17145
1.16555
1.15947
1.15214
1.14596
1.14048
1.1393
1.13883
1.13896
1.13783
1.13945
1.1431
1.15125
1.16054
1.17261
1.18695
1.19696
1.19697
1.18678
1.17363
1.16718
1.16502
1.15555
1.14202
1.13733
1.13552
1.13214
1.12348
1.12253
1.12451
1.12322
1.12351
1.1229
1.12446
1.12091
1.12741
1.13267
1.11679
1.12479
1.13204
1.11595
1.11096
1.12468
1.11572
1.10584
1.10989
1.11238
1.10705
1.10285
1.10503
1.09767
1.09643
1.09613
1.0881
1.093
1.08534
1.08987
1.08418
1.08052
1.08615
1.0672
1.07816
1.07326
1.07483
1.07669
1.09653
1.08312
1.11905
1.12083
1.15809
1.15543
1.20531
1.18719
1.20827
1.17196
1.20751
1.21086
1.17039
1.16842
1.13771
1.10555
1.14107
1.10602
1.11744
1.0766
1.11317
1.09864
1.09279
1.10758
1.09348
1.08816
1.07846
1.07614
1.07797
1.06177
1.06369
1.07959
1.10423
1.09
1.05193
1.07358
1.1212
1.07796
0.998234
1.04414
1.10374
1.10247
1.00222
1.04036
1.1145
1.18555
1.25189
1.19123
1.10614
1.19404
1.14298
1.1161
1.05476
1.09276
1.10616
1.03069
1.01764
1.09689
1.01337
1.00071
1.1537
1.2865
1.18854
1.1758
1.16417
1.15723
1.1652
1.19527
1.23522
1.269
1.28282
1.26501
1.24263
1.25267
1.27274
1.26919
1.26042
1.2543
1.24522
1.23778
1.23153
1.22876
1.22721
1.22758
1.23147
1.23015
1.2306
1.22752
1.22617
1.22484
1.22323
1.22179
1.2186
1.21202
1.20194
1.18895
1.17836
1.17285
1.16789
1.1676
1.17412
1.17667
1.18335
1.17956
1.17815
1.17738
1.16824
1.17733
1.17157
1.18197
1.19893
1.19786
1.18901
1.17826
1.17293
1.1696
1.16497
1.1581
1.14943
1.14342
1.13962
1.13968
1.13796
1.13699
1.13589
1.13909
1.14336
1.15066
1.16115
1.17624
1.19447
1.20499
1.20203
1.19047
1.17752
1.17128
1.17064
1.16308
1.15153
1.1463
1.14245
1.1342
1.12013
1.11542
1.11371
1.11319
1.1111
1.10716
1.1078
1.11186
1.11171
1.12166
1.11677
1.11166
1.12798
1.12241
1.11471
1.12636
1.12562
1.11116
1.11822
1.11782
1.11554
1.10992
1.1095
1.11025
1.10344
1.10534
1.09241
1.10065
1.08922
1.09374
1.09579
1.07621
1.09551
1.07626
1.07884
1.07545
1.08378
1.05691
1.0954
1.06306
1.09368
1.07871
1.12432
1.11498
1.13235
1.13912
1.17509
1.13744
1.15195
1.15321
1.13196
1.14243
1.12414
1.1062
1.10584
1.07522
1.10368
1.0812
1.09998
1.06974
1.08519
1.10489
1.08505
1.09786
1.07983
1.07674
1.07037
1.05824
1.0584
1.05986
1.08602
1.09569
1.0556
1.05214
1.11949
1.11075
1.02462
1.04059
1.09042
1.10423
0.999429
1.01565
1.09202
1.15647
1.24007
1.19639
1.10629
1.17684
1.1182
1.11971
1.07142
1.0556
1.09483
1.02634
1.02457
1.10102
1.03255
0.994117
1.15974
1.27786
1.18369
1.17045
1.15912
1.15618
1.17489
1.21555
1.25097
1.26833
1.26435
1.25244
1.26625
1.27622
1.25138
1.24111
1.24774
1.2375
1.23444
1.23394
1.2299
1.23301
1.22803
1.22594
1.22553
1.21863
1.21829
1.21487
1.21227
1.20858
1.20593
1.20276
1.20379
1.20897
1.21591
1.21608
1.20951
1.20093
1.18764
1.17418
1.15958
1.15072
1.14807
1.14913
1.15717
1.16316
1.16428
1.16867
1.16398
1.18002
1.19637
1.19857
1.19256
1.18073
1.17285
1.16738
1.16076
1.15368
1.14585
1.14103
1.13839
1.13817
1.13511
1.13373
1.13428
1.13865
1.14302
1.14901
1.16155
1.17997
1.19907
1.20996
1.20654
1.19565
1.18783
1.18608
1.18875
1.18557
1.17367
1.16355
1.16021
1.152
1.13669
1.12297
1.11855
1.11556
1.11201
1.1075
1.10034
1.10307
1.10462
1.10497
1.1093
1.10373
1.11193
1.11539
1.10808
1.11722
1.12491
1.10711
1.11121
1.12057
1.11053
1.10954
1.11043
1.10915
1.10166
1.10457
1.09294
1.10152
1.09424
1.09146
1.10395
1.08409
1.09264
1.08745
1.08476
1.0781
1.09082
1.06055
1.09395
1.06834
1.08689
1.05968
1.10149
1.09664
1.08954
1.09751
1.12332
1.10896
1.12203
1.11463
1.10172
1.1035
1.09185
1.09793
1.10046
1.07674
1.08509
1.06824
1.08901
1.06479
1.08702
1.08095
1.07958
1.09196
1.06138
1.07622
1.06986
1.07476
1.07572
1.04868
1.05814
1.10769
1.09522
1.04595
1.08834
1.12657
1.05362
1.03936
1.07707
1.10756
1.0046
0.993548
1.06193
1.12177
1.22017
1.19847
1.11702
1.15629
1.09565
1.09451
1.09582
1.03522
1.06235
1.01886
1.03111
1.11966
1.03784
1.00853
1.14742
1.27388
1.17902
1.16648
1.15584
1.15412
1.17678
1.221
1.25712
1.26744
1.25869
1.26222
1.26936
1.24384
1.21876
1.22802
1.22165
1.20659
1.2214
1.22208
1.22378
1.22854
1.22381
1.22084
1.21825
1.21398
1.21418
1.21499
1.21711
1.21812
1.21521
1.20739
1.19491
1.18284
1.18204
1.1925
1.20147
1.20645
1.21173
1.21151
1.20046
1.18646
1.16842
1.157
1.16108
1.16603
1.17652
1.1746
1.16586
1.1882
1.2
1.19397
1.1862
1.1754
1.17058
1.16947
1.16507
1.15737
1.14815
1.14318
1.13983
1.13822
1.13432
1.13441
1.13723
1.13888
1.13999
1.14466
1.15677
1.17518
1.19573
1.21057
1.20727
1.19295
1.18909
1.19268
1.19427
1.1944
1.18964
1.17803
1.17209
1.16406
1.15111
1.13529
1.12793
1.11811
1.11116
1.10305
1.10104
1.09942
1.10634
1.10686
1.10608
1.10281
1.10364
1.11055
1.10502
1.10606
1.11646
1.10448
1.10232
1.11807
1.11246
1.10723
1.11468
1.11569
1.10414
1.11054
1.10605
1.09978
1.10268
1.09798
1.09907
1.09344
1.09205
1.09493
1.09037
1.08686
1.09302
1.07264
1.08841
1.07742
1.08975
1.05688
1.08774
1.09158
1.07776
1.08044
1.0875
1.08804
1.09562
1.09008
1.08709
1.08282
1.07684
1.07528
1.07552
1.08059
1.08394
1.0581
1.0706
1.06963
1.09074
1.06562
1.08266
1.07061
1.06041
1.08355
1.05757
1.06978
1.07682
1.0607
1.06241
1.11963
1.14274
1.0844
1.05368
1.11214
1.07829
1.04487
1.05756
1.1077
1.01274
0.979304
1.03957
1.09624
1.2002
1.2008
1.13034
1.13969
1.08182
1.08368
1.09911
1.01907
1.03489
1.03534
1.04116
1.13025
1.06168
1.01602
1.1686
1.23085
1.17413
1.16229
1.15214
1.14989
1.16498
1.19811
1.23916
1.26428
1.25255
1.24405
1.243
1.21357
1.20486
1.2261
1.21503
1.21574
1.24713
1.25997
1.26289
1.25365
1.24718
1.23898
1.23117
1.22442
1.2171
1.21365
1.21263
1.21776
1.22591
1.23285
1.22954
1.21065
1.18624
1.17602
1.17795
1.18061
1.18697
1.19767
1.20207
1.2012
1.19531
1.18486
1.18236
1.18086
1.19221
1.194
1.18096
1.19595
1.20634
1.20083
1.19242
1.17862
1.16899
1.16349
1.15893
1.15227
1.14502
1.14157
1.13945
1.13769
1.13479
1.13435
1.13623
1.13799
1.14072
1.14457
1.15004
1.15791
1.17218
1.19396
1.20806
1.20092
1.19273
1.19427
1.19311
1.18972
1.19016
1.18738
1.18438
1.18373
1.17111
1.15666
1.14386
1.13283
1.12164
1.10454
1.09705
1.09281
1.09404
1.09625
1.09885
1.09638
1.10102
1.10564
1.10557
1.10115
1.1086
1.10157
1.09698
1.11002
1.10799
1.09964
1.10562
1.1152
1.10264
1.10611
1.11643
1.10111
1.10323
1.10811
1.1006
1.09622
1.09596
1.10113
1.09019
1.09218
1.09627
1.08924
1.08267
1.08857
1.09181
1.06832
1.08208
1.08546
1.07892
1.0796
1.07557
1.07913
1.07993
1.08298
1.0788
1.07326
1.07389
1.07454
1.07203
1.06969
1.07586
1.06514
1.06918
1.06942
1.08044
1.06904
1.08371
1.05438
1.07506
1.07929
1.04036
1.05934
1.0867
1.09738
1.12242
1.14389
1.15155
1.11657
1.05182
1.11076
1.10476
1.07156
1.05072
1.1061
1.02788
0.971722
1.02855
1.08273
1.18356
1.19972
1.14469
1.12846
1.07564
1.08235
1.08384
1.01688
1.02927
1.07069
1.05874
1.14
1.09779
1.04076
1.21938
1.2191
1.1694
1.15897
1.14978
1.15008
1.16803
1.19651
1.22809
1.2468
1.23844
1.22863
1.22844
1.21117
1.20305
1.22303
1.22752
1.22694
1.23181
1.23775
1.23384
1.22223
1.21237
1.20588
1.20031
1.19664
1.19416
1.19308
1.19298
1.19243
1.19573
1.20903
1.23218
1.24604
1.23179
1.20665
1.19687
1.19607
1.19304
1.1959
1.19528
1.19805
1.20428
1.20326
1.1984
1.19629
1.20292
1.20688
1.20372
1.2154
1.21868
1.20536
1.19402
1.18251
1.17577
1.17347
1.16787
1.15836
1.14893
1.14358
1.14039
1.13706
1.13423
1.13505
1.13742
1.14005
1.14129
1.14121
1.14358
1.14678
1.15163
1.16575
1.1882
1.19504
1.18277
1.17782
1.17702
1.17251
1.17194
1.17616
1.178
1.18705
1.18954
1.18214
1.16854
1.15303
1.13662
1.11996
1.10958
1.1029
1.10119
1.09431
1.09023
1.08656
1.09215
1.1019
1.10111
1.10139
1.10639
1.10397
1.10127
1.10938
1.1062
1.10077
1.10398
1.1124
1.10501
1.10385
1.11819
1.10864
1.10202
1.10883
1.10497
1.0965
1.10256
1.10954
1.10039
1.09696
1.10133
1.09805
1.08529
1.0943
1.09313
1.08676
1.08327
1.0833
1.08471
1.0817
1.07829
1.07809
1.07782
1.08013
1.07719
1.076
1.07363
1.07576
1.07553
1.07628
1.07118
1.06408
1.07612
1.07172
1.07139
1.07579
1.06773
1.0566
1.08381
1.06736
1.02342
1.06053
1.11874
1.13615
1.18225
1.15652
1.13524
1.10926
1.05497
1.12913
1.12841
1.09355
1.05036
1.10432
1.047
0.970182
1.01636
1.06906
1.16768
1.19588
1.15693
1.11912
1.074
1.08601
1.05995
1.02418
1.04129
1.1109
1.0836
1.14812
1.1396
1.11195
1.2365
1.27468
1.16498
1.1567
1.14778
1.14115
1.14943
1.17563
1.21142
1.23737
1.23418
1.21755
1.20757
1.20068
1.19821
1.20574
1.20954
1.21857
1.2229
1.22016
1.21011
1.2093
1.21141
1.20632
1.19907
1.19529
1.19654
1.19934
1.20167
1.20223
1.19554
1.18176
1.17795
1.19775
1.21599
1.20565
1.18875
1.18673
1.18836
1.18814
1.19516
1.1959
1.20269
1.209
1.20418
1.20224
1.21184
1.21245
1.20619
1.21984
1.23256
1.22401
1.20692
1.18729
1.17294
1.16862
1.16647
1.16033
1.15234
1.1486
1.1456
1.14247
1.13851
1.13856
1.14011
1.14472
1.14681
1.14552
1.1435
1.14225
1.13956
1.13633
1.14636
1.16504
1.16474
1.15983
1.16073
1.15641
1.15164
1.15545
1.16114
1.1707
1.18692
1.19032
1.18993
1.17949
1.1606
1.13271
1.1186
1.1103
1.10518
1.10069
1.09516
1.09347
1.09136
1.09768
1.09287
1.09256
1.10184
1.10102
1.10122
1.10817
1.10319
1.09979
1.10397
1.10793
1.10541
1.1063
1.11538
1.11249
1.10343
1.10919
1.11027
1.10143
1.10702
1.11095
1.10967
1.10301
1.10744
1.1032
1.0977
1.09651
1.10113
1.09609
1.08799
1.09057
1.08999
1.08745
1.08413
1.08261
1.08355
1.0829
1.08007
1.08005
1.07861
1.07845
1.07973
1.07869
1.07161
1.07341
1.07684
1.07368
1.06814
1.07546
1.05875
1.06725
1.08311
1.04023
1.02095
1.09784
1.14436
1.14099
1.1503
1.1016
1.10325
1.10342
1.04593
1.12405
1.12591
1.1011
1.05041
1.10142
1.06782
0.976595
1.00557
1.05557
1.14714
1.18359
1.16462
1.10648
1.07682
1.08483
1.03723
1.03742
1.07126
1.15545
1.11214
1.15321
1.18559
1.20301
1.22599
1.30272
1.16116
1.15661
1.15224
1.14729
1.14205
1.15049
1.17247
1.20236
1.2203
1.22365
1.22401
1.22191
1.21243
1.2094
1.21232
1.21632
1.21642
1.21578
1.2152
1.21349
1.21531
1.21506
1.21145
1.20696
1.20241
1.20225
1.20363
1.21108
1.22424
1.23221
1.21995
1.20699
1.21807
1.22438
1.20357
1.18619
1.18443
1.18517
1.18816
1.19542
1.1973
1.20715
1.21076
1.2028
1.21197
1.22124
1.21467
1.22004
1.22862
1.22761
1.2218
1.20652
1.18613
1.17411
1.16808
1.15938
1.14978
1.14412
1.1407
1.1382
1.13529
1.13538
1.13809
1.14244
1.14568
1.14929
1.15074
1.14867
1.14401
1.13725
1.13115
1.1352
1.13987
1.139
1.14326
1.14402
1.13819
1.13939
1.13835
1.13939
1.15651
1.17365
1.1857
1.19145
1.1804
1.15788
1.13743
1.12612
1.11283
1.10327
1.0994
1.10006
1.1002
1.10198
1.09785
1.09285
1.1001
1.09882
1.10006
1.10652
1.10138
1.1002
1.10546
1.10729
1.10704
1.10947
1.11403
1.11186
1.10517
1.11196
1.11468
1.11233
1.1142
1.11551
1.11747
1.10956
1.10721
1.10556
1.10674
1.10117
1.10687
1.09802
1.10085
1.09969
1.09776
1.09537
1.09233
1.0915
1.08942
1.08897
1.08468
1.08574
1.08411
1.08365
1.08203
1.08121
1.0765
1.07717
1.07788
1.07141
1.06734
1.07267
1.05943
1.07266
1.08301
1.00922
1.04251
1.12145
1.13904
1.12216
1.10845
1.09168
1.10906
1.13148
1.06168
1.11609
1.09749
1.09196
1.04703
1.0982
1.08551
0.986488
1.00061
1.04028
1.1241
1.16508
1.16775
1.08995
1.08542
1.07462
1.0259
1.06006
1.11394
1.19509
1.14547
1.1565
1.22497
1.27518
1.20809
1.32885
1.15706
1.15463
1.1542
1.15775
1.15628
1.15576
1.15903
1.16996
1.18307
1.19108
1.19803
1.20594
1.20862
1.20945
1.21161
1.21105
1.21177
1.21051
1.20644
1.20654
1.20863
1.20549
1.20026
1.19374
1.19019
1.19035
1.19032
1.18623
1.18328
1.19052
1.20653
1.20676
1.20454
1.21993
1.22308
1.20053
1.18567
1.18368
1.1834
1.18976
1.19458
1.1992
1.2121
1.21116
1.20842
1.21884
1.22058
1.22766
1.23306
1.22766
1.22053
1.20594
1.18755
1.17858
1.17689
1.17079
1.16193
1.15474
1.14921
1.14445
1.14044
1.14008
1.14373
1.14934
1.15013
1.15171
1.15587
1.15865
1.15773
1.15496
1.14797
1.14037
1.1398
1.13561
1.13294
1.1362
1.13339
1.13886
1.13795
1.1304
1.13368
1.1472
1.16585
1.18779
1.18638
1.16445
1.14748
1.13338
1.12041