/*--------------------------------*- C++ -*----------------------------------*\
| =========                 |                                                 |
| \\      /  F ield         | OpenFOAM: The Open Source CFD Toolbox           |
|  \\    /   O peration     | Version:  dev                                   |
|   \\  /    A nd           | Web:      http://www.openfoam.org               |
|    \\/     M anipulation  |                                                 |
\*---------------------------------------------------------------------------*/
FoamFile
{
    version     2.0;
    format      ascii;
    class       volScalarField;
    object      T;
    location    "9.123";
}
// * * * * * * * * * * * * * * * * * * * * * * * * * * * * * * * * * * * * * //

dimensions      [0 0 0 1 0 0 0];

internalField   nonuniform List<scalar> 
12225
(
298.282
295.923
295.339
295.3
294.805
295.02
294.729
294.919
294.863
294.908
295.067
294.947
295.331
295.106
295.446
295.879
294.304
294.444
296.699
293.668
292.997
292.569
291.957
291.594
291.44
290.993
291.481
290.747
291.766
290.695
292.065
291.196
291.625
292.72
292.167
293.311
296.712
293.813
293.055
292.608
291.795
291.401
290.85
290.504
290.419
290.098
290.377
290.05
290.626
290.265
290.717
290.581
291.45
291.253
296.48
294.14
292.941
293.127
291.743
292.077
290.779
291.339
290.166
290.906
289.981
290.749
290.147
290.758
290.556
290.764
291.021
291.376
295.857
294.398
292.835
293.515
291.946
292.493
291.131
291.808
290.576
291.298
290.33
290.961
290.434
290.77
290.727
290.76
291.02
291.463
296.204
294.554
292.846
293.593
292.034
292.594
291.312
291.977
290.707
291.506
290.399
291.214
290.53
291.027
290.832
291.135
291.216
291.536
296.253
294.532
293.006
293.664
292.1
292.694
291.442
292.069
290.806
291.608
290.597
291.279
290.803
291.125
291.05
291.295
291.46
291.567
296.126
294.731
292.988
293.956
292.155
292.998
291.573
292.363
290.898
291.919
290.782
291.596
290.972
291.455
291.299
291.571
291.496
291.802
296.213
294.843
293.158
294.128
292.36
293.164
291.814
292.458
291.223
292.067
291.098
291.762
291.28
291.597
291.61
291.716
291.78
292.169
296.262
295.052
293.356
294.348
292.603
293.424
292.145
292.715
291.724
292.406
291.647
292.127
291.883
292.058
292.227
292.244
292.579
292.799
296.579
295.186
293.815
294.574
293.18
293.788
292.72
293.054
292.472
292.82
292.426
292.725
292.638
292.85
293.027
293.15
293.452
293.708
296.993
295.278
294.307
294.813
293.885
294.308
293.52
293.785
293.465
293.636
293.495
293.706
293.77
293.997
294.226
294.35
294.737
295.051
297.227
295.502
295.047
295.306
294.856
295.031
294.619
294.764
294.676
294.71
294.801
294.942
295.101
295.365
295.567
295.804
296.187
296.431
297.613
295.774
295.71
295.859
295.754
295.855
295.766
295.915
295.952
296.028
296.226
296.391
296.616
296.887
297.146
297.433
297.798
298.096
297.886
296.228
296.405
296.585
296.703
296.855
297.004
297.218
297.358
297.533
297.809
297.991
298.267
298.538
298.822
299.146
299.479
299.791
298.274
296.86
297.224
297.526
297.759
297.994
298.259
298.514
298.752
299.036
299.356
299.61
299.915
300.213
300.547
300.857
301.162
301.48
298.443
297.352
297.843
298.269
298.631
298.998
299.345
299.646
299.952
300.304
300.621
300.919
301.226
301.541
301.872
302.148
302.418
302.691
298.625
297.823
298.264
298.677
299.056
299.449
299.78
300.109
300.433
300.761
301.081
301.371
301.607
301.925
302.178
302.394
302.614
302.83
298.597
297.96
298.289
298.642
298.943
299.25
299.502
299.768
299.998
300.244
300.527
300.766
300.968
301.247
301.406
301.609
301.734
301.894
298.627
297.971
298.162
298.386
298.541
298.74
298.891
299.026
299.147
299.279
299.429
299.619
299.767
299.959
300.105
300.268
300.318
300.431
298.575
297.946
297.958
297.979
297.976
298.035
298.059
298.11
298.136
298.163
298.215
298.331
298.388
298.522
298.601
298.71
298.714
298.747
298.529
297.829
297.69
297.576
297.454
297.4
297.328
297.239
297.134
297.097
297.03
297.047
297.079
297.135
297.169
297.246
297.209
297.23
298.464
297.698
297.414
297.163
296.914
296.777
296.616
296.478
296.333
296.206
296.089
296.037
295.998
296.003
296.006
296.034
296.014
296.014
298.434
297.575
297.175
296.846
296.516
296.302
296.095
295.917
295.709
295.532
295.368
295.239
295.146
295.094
295.074
295.076
295.055
295.057
298.415
297.505
297.006
296.572
296.166
295.875
295.609
295.382
295.165
294.955
294.766
294.635
294.498
294.427
294.363
294.315
294.269
294.237
298.349
297.42
296.918
296.448
295.986
295.614
295.285
295.022
294.779
294.576
294.394
294.249
294.1
294.002
293.911
293.84
293.765
293.705
298.307
297.373
296.832
296.334
295.855
295.483
295.142
294.861
294.58
294.33
294.085
293.884
293.686
293.543
293.41
293.292
293.173
293.07
298.37
297.37
296.81
296.293
295.767
295.318
294.898
294.537
294.177
293.88
293.595
293.382
293.175
293.036
292.869
292.747
292.58
292.463
298.32
297.294
296.73
296.195
295.656
295.182
294.773
294.429
294.135
293.944
293.792
293.699
293.611
293.564
293.496
293.488
293.401
293.489
298.406
297.637
297.311
297.049
296.821
296.68
296.612
296.599
296.629
296.701
296.768
296.848
296.928
297.013
297.091
297.179
297.267
297.378
286.845
274.152
274.578
276.046
276.32
278.184
280.365
282.326
283.869
285.055
285.688
285.926
286.235
286.348
286.377
286.502
286.534
286.721
286.9
287.044
287.375
287.702
287.982
288.398
288.689
288.892
289.126
289.288
289.476
289.712
289.929
290.109
290.415
290.368
290.64
291.039
289.976
290.338
293.262
295.327
295.047
293.798
292.765
292.692
292.676
292.563
292.327
291.51
290.764
291.243
291.219
290.83
290.249
290.24
291.319
291.94
292.245
292.465
292.515
291.602
291.619
296.96
302.985
301.769
296.77
293.29
291.082
289.459
288.217
287.194
286.302
285.501
284.75
284.006
283.259
282.504
281.757
280.99
280.196
279.387
278.561
277.759
276.975
276.143
275.254
274.387
273.575
272.761
271.862
271.034
270.182
269.319
268.536
267.941
267.11
266.395
266.027
265.439
265.112
265.013
264.95
265.109
265.326
265.553
265.847
265.979
266.376
266.957
268.026
269.078
269.987
271.127
272.308
273.587
274.577
275.148
276.142
277.33
277.742
278.109
279.959
282.383
284.365
286.154
287.812
288.947
289.646
289.366
288.694
288.217
288.02
287.476
287.591
286.592
287.864
287.296
286.425
288.092
285.691
288.012
287.563
287.533
285.943
285.458
284.849
284.224
283.435
282.669
281.991
281.443
280.961
280.332
279.394
278.191
276.799
275.242
273.731
272.125
270.536
269.504
267.875
267.538
266.708
266.888
264.652
262.964
263.68
261.276
256.217
257.912
258.555
260.901
259.376
257.823
257.632
261.438
263.775
265.969
266.734
269.404
289.796
274.549
266.968
265.628
268.229
275.056
283.275
289.806
294.073
296.972
298.687
299.277
299.585
299.558
299.309
299.026
298.523
298.343
297.972
297.333
297.368
297.185
296.548
296.895
296.812
296.276
296.554
295.935
295.838
295.773
295.159
295.542
294.913
295.07
294.853
294.243
294.758
292.59
293.054
292.348
289.972
287.749
281.935
282.001
284.473
284.755
285.22
284.206
283.726
285.553
286.287
287.301
288.702
286.664
285.934
289.538
288.023
283.559
287.933
291.885
287.985
284.763
283.362
281.243
279.73
279.12
278.718
278.771
278.664
278.664
278.725
278.429
278.331
277.841
277.336
276.755
276.039
275.351
274.421
273.501
272.398
271.282
270.284
269.406
268.039
266.771
265.504
264.789
263.285
262.075
260.857
259.363
257.59
256.47
255.669
253.601
252.374
251.689
249.713
249.267
248.127
247.433
246.919
246.741
246.669
246.613
246.762
247.153
248.396
250.045
251.49
253.276
255.187
256.995
258.018
257.389
258.04
260.316
260.471
260.084
263.237
272.653
282.45
285.481
285.837
288.161
287.143
285.453
284.778
283.507
283.186
282.631
283.777
283.316
285.06
291.319
277.85
287.4
279.623
286.656
289.531
292.061
288.196
286.861
285.725
285.054
283.198
281
277.894
275.628
274.789
275.423
275.592
274.712
273.547
270.865
267.631
263.609
259.39
256.809
253.28
251.698
249.353
249.68
246.146
240.57
239.294
238.69
246.341
266.681
242.457
233.656
228.33
230.387
238.532
238.718
239.182
242.48
238.06
245.175
292.743
279.703
267.754
261.822
263.838
273.917
285.768
294.352
299.527
302.385
303.86
304.55
304.58
304.336
303.967
303.326
302.791
302.214
301.343
300.514
300.062
299.345
298.234
297.969
297.906
296.447
296.786
296.562
296.097
296.315
295.55
296.477
295.727
295.907
296.462
295.468
296.813
296.502
296.36
296.823
298.035
295.933
292.567
288.755
281.013
279.039
284.124
284.453
285.804
287.648
287.974
288.303
291.542
292.353
290.935
289.845
287.463
285.202
284.287
283.171
282.119
282.721
283.375
284.996
286.504
288.226
289.823
290.974
292.156
292.924
293.412
293.916
294.063
294.077
294.026
293.644
293.443
293.035
292.411
291.769
290.914
289.99
289.123
288.592
287.495
286.633
284.983
284.463
283.232
282.06
281.151
280.25
278.046
276.016
275.804
273.621
270.804
270.631
266.493
265.042
262.496
259.505
256.394
254.278
252.378
251.348
249.707
248.46
247.397
247.31
247.958
249.256
251.399
253.368
254.648
254.428
250.956
249.509
256.791
258.422
253.075
260.052
276.198
288.05
292.102
291.949
289.538
286.496
283.958
281.473
281.039
281.026
283.243
288.16
275.534
300.468
275.855
284.172
274.004
275.649
288.289
295.805
296.81
294.899
294.097
294.633
293.391
292.566
287.513
280.886
274.086
271.972
274.527
280.565
285.998
287.265
284.695
277.341
270.064
262.065
254.604
249.683
244.706
240.117
242.375
241.781
232.02
234.696
269.545
292.937
272.791
242.401
218.614
240.406
279.537
274.546
247.947
241.529
225.167
224.7
294.901
284.722
272.572
265.262
267.971
278.336
289.002
296.283
300.754
303.188
304.161
304.158
303.628
302.82
301.945
300.96
300.04
299.059
298.064
297.069
296.768
295.455
295.001
294.936
294.771
293.677
293.646
294.369
293.608
293.926
293.591
293.951
294.069
293.938
293.861
293.627
293.688
292.313
293.905
292.325
292.154
295.043
295.884
293.94
290.658
284.305
282.849
280.83
282.403
283.7
281.916
281.504
285.118
285.565
285.479
284.077
283.302
283.348
283.324
284.805
286.432
288.25
290.139
291.849
293.158
294.234
294.987
295.187
295.37
295.144
294.841
294.553
293.919
293.824
293.218
293.124
292.844
292.469
292.297
291.798
291.468
291.33
291.089
290.507
289.846
289.757
289.327
288.872
288.209
287.761
286.99
287.011
286.711
286.487
285.983
285.79
284.957
285.035
283.747
282.751
281.416
279.981
277.353
275.195
271.902
270.299
268.221
266.424
264.758
262.09
258.206
252.386
249.93
253.262
255.17
257.25
257.692
249.579
248.454
261.365
261.15
255.641
268.942
284.862
290.276
287.858
283.461
279.22
276.242
274.828
276.092
278.175
277.428
287.112
274.577
282.498
283.209
291.459
280.747
268.948
274.305
279.377
286.803
288.972
290.923
293.839
294.048
294.607
297.406
299.328
291.262
280.498
274.769
275.66
277.034
280.264
289.652
296.684
295.628
284.046
268.422
253.75
244.713
234.465
241.699
247.186
234.395
240.076
267.827
258.303
273.243
245.029
221.674
265.43
284.922
300.839
274.677
253.926
226.479
216.015
296.846
290.056
281.292
276.762
281.339
290.775
299.167
304.876
308.098
309.058
308.481
307.127
305.605
303.902
302.265
300.761
299.198
297.949
296.555
295.396
294.984
293.523
292.94
293.203
292.758
292.286
292.529
293.123
293.123
293.479
293.838
294.249
294.038
295.089
295.922
295.075
297.072
296.899
296.518
295.631
296.28
297.399
294.952
294.127
295.964
290.625
285.938
284.938
288.066
287.185
286.221
284.288
283.866
283.836
283.984
284.115
285.232
285.997
287.944
289.557
291.001
292.592
294.002
294.917
295.973
296.417
296.564
296.254
295.689
294.976
294.056
293.174
292.592
291.825
291.525
291.303
291.205
291.26
290.786
290.627
290.588
290.347
290.935
290.062
290.319
289.832
289.088
288.8
287.985
287.418
286.714
286.221
285.435
284.921
285
284.395
284.955
284.849
284.831
285.356
285.087
285.456
284.805
284.562
283.282
281.945
281.153
278.255
276.088
275.562
274.531
274.896
269.692
263.023
256.023
250.712
254.013
258.028
254.126
257.279
265.895
264.973
264.12
271.95
279.789
280.867
280.189
279.658
277.843
276.046
270.892
274.198
277.933
269.166
280.286
279.113
278.256
288.25
289.353
288.542
278.029
277.673
280.95
284.039
285.575
289.847
294.919
294.981
286.771
285.634
288.908
288.171
280.404
280.411
282.504
281.926
280.866
284.763
291.837
292.081
282.863
262.842
250.673
234.278
240.609
248.569
238.33
249.708
261.504
255.743
260.15
237.955
235.667
260.348
232.791
262.214
280.144
262.088
229.952
214.382
298.575
295.213
291.248
291.385
297.091
303.77
308.226
310.079
309.224
306.721
303.74
301.002
298.603
296.229
293.913
291.682
289.849
288.339
286.993
286.168
285.76
286.284
286.778
287.266
288.694
289.965
290.686
291.291
292.071
292.455
292.103
292.803
292.847
292.233
292.336
293.203
293.057
292.508
295.898
296.239
293.38
292.392
295.429
298.8
299.143
293.646
290.206
288.501
288.22
287.939
286.076
285.49
285.366
285.617
286.412
287.103
288.328
289.701
291.269
292.321
294.161
295.85
297.071
297.804
298.12
297.479
296.591
295.394
293.786
292.362
290.847
289.452
288.618
287.363
286.982
286.202
286.205
286.576
286.813
286.468
287.334
287.003
288.906
288.32
289.656
290.286
290.554
290.957
291.345
291.081
290.507
289.56
288.925
287.645
286.864
286.235
285.216
285.549
285.125
285.575
285.491
285.971
286.604
287.347
287.987
287.899
286.87
288.304
286.493
283.877
283.905
284.606
280.714
275.994
272.697
269.049
261.93
256.677
254.213
253.113
261.57
271.994
276.522
278.58
279.519
278.598
280.356
285.749
277.716
277.646
269.733
263.292
269.924
271.427
274.816
283.592
278.025
284.588
279.645
292.167
288.679
291.665
289.49
290.626
290.194
290.477
292.558
304.042
294.411
281.853
282.529
294.209
285.921
275.616
279.889
289.968
287.643
279.024
281.045
286.69
288.983
268.797
255.847
235.903
238.773
249.172
241.351
251.967
256.555
262.512
266.796
252.928
262.205
246.019
219.745
241.55
275.166
266.796
232.975
214.302
299.934
299.269
298.884
301.77
306.159
308.897
309.701
308.416
305.555
302.606
299.947
296.863
293.596
290.143
286.955
284.622
283.327
283.459
284.449
286.407
289.33
292.246
294.798
297.079
298.512
299.121
299.988
300.307
300.186
300.537
300.515
299.907
298.999
298.29
296.441
296.165
295.035
294.434
294.22
295.005
298.913
298.111
297.49
294.881
294.439
294.501
293.911
290.77
288.508
287.964
286.634
287.249
287.463
288.358
288.85
289.811
291.157
292.304
293.954
295.879
297.862
298.681
298.95
298.562
297.343
295.698
294.15
292.211
290.149
288.177
286.429
285.008
284.126
283.606
282.92
282.704
282.047
281.376
281.715
281.202
282.209
280.599
281.61
281.657
283.212
283.988
284.965
285.82
287.299
289.122
290.093
290.828
291.007
290.497
289.165
289.076
287.183
286.519
285.524
285.656
284.868
285.332
285.092
286.212
286.595
289.553
288.74
288.105
290.74
290.725
288.568
287.919
288.783
287.497
283.11
281.575
279.512
274.836
265.795
255.485
254.935
259.537
268.949
279.745
283.358
286.395
282.317
288.534
280.757
281.16
271.439
267.98
273.398
273.362
270.838
285.96
278.836
291.978
282.695
290.363
288.419
293.318
290.481
292.305
294.039
299.131
294.692
302.445
296.465
286.111
284.353
302.977
305.789
285.812
281.797
297.047
302.129
285.357
278.518
283.032
293.904
274.778
260.421
239.668
238.335
250.503
245.798
248.178
254.331
259.885
266.752
273.837
273.721
238.649
238.955
256.64
287.543
274.847
238.774
217.451
300.89
301.983
303.465
306.54
308.772
309.723
309.244
306.505
302.69
298.34
293.043
287.056
282.168
279.178
279.056
281.546
285.545
290.124
294.402
297.443
298.791
299.263
298.651
297.078
296.351
295.943
295.942
296.52
297.194
297.63
298.592
299.482
300.395
300.519
298.76
298.264
296.143
295.583
292.879
292.167
293.505
291.502
293.753
293.98
297.289
298.785
296.101
291.283
288.098
288.075
287.775
288.979
289.802
290.445
291.346
292.353
293.607
295.179
297.241
298.613
299.26
298.979
298.51
297.314
296.066
294.761
293.257
291.12
289.104
287.063
285.693
285.187
284.829
285.205
285.141
286.051
286.015
285.143
284.623
284.012
284.727
282.726
281.908
280.951
282.134
281.705
281.993
281.36
280.853
283.509
285.131
285.834
288.496
289.652
288.26
288.912
289.22
288.177
286.088
287.121
286.144
286.321
285.295
286.775
287.088
287.821
290.013
289.848
290.635
292.742
293.571
292.218
291.463
293.385
291.296
288.011
286.429
285.436
282.838
271.421
265.882
260.99
257.69
262.793
269.849
277.781
270.96
275.982
272.105
271.067
271.615
261.237
266.749
282.144
272.813
281.93
276.881
292.519
284.822
291.972
294.405
298.224
294.943
295.867
292.33
296.945
297.821
304.974
304.154
297.63
286.989
296.111
306.164
292.834
282.654
295.848
310.37
293.858
279.968
279.622
295.276
279.653
264.779
244.553
237.783
250.918
254.357
245.518
254.038
265.537
269.603
264.7
258.898
246.676
257.983
258.906
292.226
285.387
243.232
219.603
301.503
303.581
305.762
308.376
310.135
310.389
307.253
301.606
294.858
287.176
280.361
277.471
279.905
285.836
292.053
295.703
296.529
295.235
292.815
290.013
287.747
286.083
285.928
286.57
287.499
288.841
290.446
291.104
292.599
294.477
296.389
297.256
296.613
295.632
295.926
297.47
298.511
301.071
299.394
299.197
298.319
297.675
299.947
298.446
299.762
298.168
295.018
291.038
288.491
288.381
288.788
290.012
291.085
292.068
292.997
294.139
295.811
297.453
298.894
299.439
299.677
299.177
298.695
297.973
297.35
295.851
293.616
290.77
288.128
285.573
284.052
284.431
285.362
286.13
286.768
288.779
290.618
290.084
289.351
289.145
289.968
288.626
287.366
286.317
286.234
285.564
285.576
284.915
281.727
282.114
284.129
281.793
283.501
286.669
285.399
283.94
286.522
287.103
285.016
285.133
285.407
285.838
286.053
285.908
286.499
287.553
288.003
288.358
289.828
290.826
293.378
293.473
293.755
296.184
296.001
295.103
292.636
290.046
291.581
286.453
278.91
275.288
267.957
264.726
259.588
268.539
265.514
269.547
261.27
265.918
277.11
271.064
270.445
281.451
278.102
292.498
284.813
296.293
291.472
296.173
298.25
294.833
291.811
296.125
297.309
297.822
295.187
297.478
299.139
297.708
290.996
298.657
307.023
296.277
282.743
293.556
312.956
295.974
279.133
278.403
299.184
285.194
268.54
249.373
237.67
250.341
263.295
245.785
254.407
266.853
274.777
255.395
254.893
268.584
275.263
257.509
287.242
290.692
247.399
221.774
301.926
304.675
307.381
310.031
310.986
307.917
300.745
292.099
283.456
278.344
280.385
287.097
291.201
290.464
287.468
284.307
281.861
280.746
280.968
282.287
284.565
286.932
288.832
290.802
291.837
291.597
291.541
291.823
292.305
292.741
293.85
295.255
296.546
296.256
295.321
294.884
294.884
295.192
292.879
293.163
292.222
293.715
295.536
294.951
297.023
294.545
294.176
291.435
288.298
288.351
289.342
291.306
292.494
293.546
294.789
296.07
297.7
299.101
300.369
300.502
300.364
300.023
300.017
299.316
298.07
295.629
292.881
289.443
285.429
282.482
281.956
283.878
286.584
287.614
287.471
289.108
291.866
292.447
292.244
292.465
294.106
293.74
292.508
292.059
291.165
290.589
289.303
289.298
287.085
284.63
287.749
285.341
282.235
285.39
286.401
282.221
283.693
286.116
284.756
283.787
284.949
285.969
285.31
287.161
287.661
287.691
290.243
288.946
291.383
290.336
291.939
293.792
292.263
298.109
295.601
297.559
297.646
298.374
292.738
297.634
288.577
288.922
279.771
281.07
269.724
273.779
268.994
277.917
270.394
269.123
278.516
279.237
286.529
295.712
286.461
295.232
291.91
303.28
293.547
296.59
298.408
294.102
297.079
298.36
300.591
300.91
299.502
303.339
302.456
297.394
289.407
291.616
301.18
294.576
280.222
288.928
311.199
297.251
279.215
276.866
303.062
291.788
271.497
253.736
238.904
249.557
268.066
247.463
257.172
262.31
276.844
267.641
262.502
280.908
285.088
263.408
282.807
289.349
252.336
226.087
302.226
305.454
308.468
310.503
308.968
301.875
292.157
283.844
279.8
282.903
288.416
286.825
282.017
282.412
284.083
284.774
286.374
287.793
288.987
289.577
289.802
289.611
288.558
288.61
288.258
288.607
288.585
288.544
288.588
288.559
288.971
290.222
292.346
295.165
297.463
298.491
299.336
299.155
296.872
295.795
293.589
294.162
294.592
294.421
296.861
294.37
295.485
293.257
288.773
288.354
290.088
292.541
293.758
294.401
295.307
296.78
298.813
300.246
301.131
300.921
301.091
301.082
301.147
300.067
298.662
296.468
293.467
289.327
284.443
281.427
281.616
283.844
286.394
287.312
286.806
287.93
290.106
290.828
291.112
292.562
295.593
296.373
296.209
295.624
295.491
295.857
295.162
293.192
292.568
289.412
289.455
290.44
285.665
285.969
287.456
284.137
283.429
286.909
284.817
284.424
284.902
286.095
286.128
285.734
287.658
287.127
290.692
288.624
291.783
291.04
290.307
296.228
291.338
296.495
296.489
297.868
295.677
304.278
293.761
303.199
295.393
300.372
288.42
290.962
287.332
285.978
276.952
286.087
283.157
282.69
288.216
285.662
289.957
294.811
294.753
303.567
295.743
301.642
296.156
304.213
300.545
294.284
299.226
295.514
299.604
300.251
301.255
304.26
303.646
302.277
293.847
289.924
299.622
300.007
280.425
280.579
302.907
297.61
282.252
276.34
303.789
298.621
276.77
259.998
241.254
248.683
268.341
251.182
263.353
262.319
272.607
277.37
266.256
282.682
283.393
262.674
278.736
291.865
251.762
228.245
302.374
305.819
308.83
309.772
305.289
295.455
286.894
282.287
282.53
285.554
283.06
280.063
284.377
286.725
285.131
287.136
288.14
288.23
289.113
288.324
289.219
289.423
289.174
290.505
290.327
290.897
291.259
291.863
292.176
292.591
292.015
290.467
288.543
288.284
289.655
291.44
294.442
297.495
300.738
302.735
302.926
302.451
300.337
298.49
298.316
296.678
297.8
294.263
289.728
288.466
289.471
292.148
294.061
295.34
296.837
298.455
300.334
301.5
302.066
301.898
302.456
302.64
302.327
300.928
299.494
297.685
294.222
289.299
284.26
281.182
281.481
283.609
284.924
284.721
283.502
283.558
285.674
287.598
287.791
289.12
292.233
295.293
295.865
296.155
296.488
297.074
298.324
297.054
295.717
295.148
293.262
294.018
291.644
289.863
291.173
288.623
285.922
290.011
288.92
285.811
288.185
288.311
287.745
287.955
290.026
289.162
292.041
290.301
291.97
293.132
290.053
295.184
293.647
294.785
295.928
298.102
294.868
303.511
295.019
301.933
297.311
305.707
294.695
295.671
298.227
296.71
290.007
293.62
290.463
292.242
295.839
295.498
298.736
297.284
296.072
302.535
300.236
305.065
298.872
305.527
299.43
300.154
300.683
296.301
304.399
300.317
301.186
299.447
298.092
304.748
301.716
287.377
288.632
301.176
287.919
276.404
294.124
297.361
285.455
275.519
302.06
305.018
284.5
268.204
245.379
248.549
266.046
255.904
269.271
269.15
267.344
283.128
275.519
285.497
282.557
259.094
278.191
288.349
255.007
230.194
302.307
305.624
308.473
308.935
302.849
291.665
283.449
281.303
282.923
282.149
280.224
284.802
290.746
289.246
290.264
293.901
290.956
290.911
290.431
288.899
289.771
290.156
290.424
291.214
290.855
290.428
289.693
289.257
289.715
291.321
293.969
296.527
296.344
293.481
291.053
289.676
288.35
288.247
290.713
293.901
298.171
301.135
300.043
298.563
295.786
295.624
297.975
292.67
289.013
289.792
291.4
293.943
295.157
295.319
296.235
298.002
300.293
301.552
302.33
302.558
303.428
303.283
302.343
301.64
301.113
299.694
296.364
291.494
286.165
282.155
282.309
285.23
285.773
284.425
283.598
283.06
283.438
285.477
286.283
287.424
289.874
293.18
294.583
296.644
297.993
299.841
299.735
299.692
297.2
296.319
295.928
296.116
295.372
292.96
293.677
293.311
290.175
292.6
293.121
288.672
289.612
291.02
288.851
288.135
291.222
289.56
290.115
292.438
291.58
292.687
293.006
294.316
295.049
294.211
295.772
296.782
295.381
300.744
297.411
300.097
296.958
306.476
298.713
297.322
301.261
300.989
299.418
299.322
297.366
298.775
299.658
300.886
302.57
303.118
303.121
301.658
300.042
307.335
303.94
304.211
297.641
304.184
299.418
301.589
304.955
297.765
303.921
300.36
297.488
301.252
300.973
284.693
276.502
289.581
296.82
280.117
287.345
295.475
290.578
275.569
299.597
309.36
290.865
274.877
249.797
248.431
263.24
260.044
273.314
272.449
267.626
288.009
283.603
281.332
280.381
257.851
272.456
286.996
250.586
239.175
302.14
305.305
308.052
308.742
304.573
295.626
285.708
280.279
282.824
284.313
284.338
291.224
293.63
288.861
291.628
291.648
284.029
281.112
280.192
281.762
282.965
284.599
286.186
287.595
289.114
289.762
289.851
288.494
286.459
284.752
285.421
289.697
295.343
297.564
296.778
295.872
294.089
291.288
290.001
290.094
291.557
294.229
294.723
295.082
292.144
291.187
294.625
291.093
287.949
288.682
290.397
293.652
296.083
297.458
298.498
300.041
301.87
302.731
303.193
303.489
304.137
304.148
303.483
302.822
301.891
300.65
299.002
296.803
293.076
287.464
283.479
284.494
286.149
285.512
285.382
285.822
285.199
285.069
285.081
284.287
286.313
288.972
291.623
293.893
296.368
300.497
302.152
302.818
302.102
301.103
299.888
299.995
298.048
296.168
295.555
296.273
294.008
295.214
296.154
292.636
292.839
294.855
293.292
290.445
293.494
292.806
289.581
293.582
293.419
291.858
293.93
295.315
295.316
293.87
296.957
296.635
295.602
297.173
299.707
297.952
297.118
303.385
300.438
299.466
301.17
301.166
302.53
301.711
301.633
300.738
301.811
303.454
303.376
303.092
303.678
304.407
302.374
305.17
303.994
303.802
300.109
303.191
298.326
306.206
300.762
297.934
308.368
303.272
295.205
291.587
284.841
277.707
273.672
280.407
297.188
281.052
280.611
287.81
292.343
276.061
295.285
311.743
294.179
278.571
253.613
249.023
260.342
263.122
275.565
273.378
272.509
289.197
285.694
272.736
276.197
256.8
264.623
280.121
240.929
241.588
301.812
304.66
307.143
306.955
302.065
294.656
286.932
282.626
284.662
286.58
286.281
290.931
293.113
288.002
287.236
287.494
285.694
283.943
284.463
287.174
289.576
291.105
292.369
293.215
293.836
294.06
293.986
293.957
292.979
289.578
283.961
280.678
283.844
289.621
291.852
291.905
292.468
291.499
291.516
290.833
289.348
289.582
290.59
291.208
289.603
288.349
289.299
286.56
285.316
288.077
290.627
293.37
295.064
295.637
296.926
299.243
301.668
303.081
303.847
304.605
305.274
304.979
304.201
303.322
302.758
302.557
301.73
300.681
299.305
295.706
289.881
287.509
289.981
290.99
290.802
291.52
291.372
289.791
288.706
285.816
283.991
284.683
286.973
290.081
293.756
297.761
300.116
301.435
301.477
302.936
303.721
304.164
302.321
299.095
298.957
298.338
296.501
296.6
296.875
294.578
295.241
296.355
295.402
293.191
294.724
295.073
291.304
293.328
295.413
293.606
294.306
296.726
295.073
293.181
295.286
296.515
295.351
296.05
299.569
297.384
297.534
298.959
300.332
300.438
299.979
300.822
301.839
302.029
302.184
301.564
302.337
302.637
303.347
302.73
302.666
302.237
303.367
305.478
301.9
302.628
302.479
300.895
302.27
305.851
297.747
300.258
313.374
303.563
287.014
281.426
269.173
272.876
276.707
281.821
296.235
276.471
274.278
281.36
292.171
276.592
290.042
312.273
297.738
282.294
257.31
250.178
258.038
265.886
276.764
273.183
279.745
288.03
282.897
263.828
270.553
256.224
256.411
262.233
239.091
231.881
301.306
303.676
306.194
307.783
304.841
297.517
288.554
282.84
284.211
288.341
290.652
292.791
293.424
290.932
289.974
287.953
286.678
287.009
289.404
289.837
289.445
290.625
292.332
293.203
292.826
292.067
291.401
291.146
292.605
295.879
296.707
291.623
287.127
289.464
293.42
293.816
293.349
293.334
291.589
291.386
289.701
288.118
289.202
289.784
287.558
287.178
288.808
285.788
282.539
284.185
288.103
292.849
296.437
297.545
298.039
299.509
301.579
302.588
303.329
304.081
305.091
305.038
304.558
303.209
302.429
302.538
302.851
302.946
303.419
304.231
301.718
296.614
296.065
296.948
296.321
296.901
297.848
296.558
294.744
292.117
287.355
285.39
284.253
285.51
289.264
295.854
299.289
301.078
302.233
302.97
303.898
303.687
303.906
301.908
302.826
302.692
299.688
299.503
299.043
296.907
298.018
298.628
297.264
296.214
296.574
296.158
293.922
294.358
296.699
295.154
294.575
296.705
295.355
294.344
294.277
296.102
295.012
295.94
297.056
297.667
296.187
297.384
299.491
298.862
298.966
299.596
300.501
300.98
300.744
300.868
301.65
301.623
301.953
301.963
301.476
301.449
303.278
302.731
301.414
301.822
303.211
300.616
304.873
302.742
297.085
307.385
315.023
293.507
279.676
278.989
274.904
285.849
285.096
283.542
298.678
277.267
274.231
278.934
291.915
277.473
284.597
310.322
301.102
286.09
262.162
253.161
256.871
269.612
276.894
274.431
286.881
285.381
275.574
254.797
264.521
256.387
248.122
243.838
242.858
228.639
300.533
301.941
303.411
305.045
306.045
302.956
296.401
288.766
285.068
285.005
285.398
286.267
288.58
289.126
288.44
287.245
287.06
287.209
287.436
287.873
287.453
287.478
288.298
289.285
290.316
290.354
290.037
288.286
285.178
283.269
286.088
289.083
286.357
284.848
289.712
293.85
294.237
294.053
293.268
291.533
291.068
288.695
287.835
289.849
287.775
285.512
287.153
286.088
283.895
283.951
285.274
288.794
293.775
296.958
298.579
300.769
303.307
304.83
305.724
306.336
307.095
307.069
306.318
305.046
304.018
302.881
302.244
302.487
303.405
304.892
306.425
305.366
303.795
303.684
302.29
301.513
302.594
301.816
301.724
301.461
296.97
291.939
287.985
285.161
286.638
291.359
296.073
298.652
301.86
304.167
304.581
303.85
303.239
302.427
303.033
304.145
301.804
301.808
301.284
299.299
300.38
300.385
298.656
298.107
298.039
297.199
296.059
296.477
297.901
296.035
295.17
295.382
295
294.56
293.745
295.606
296.395
296.486
295.85
297.245
295.573
297.71
296.703
296.967
297.351
297.917
298.666
298.839
299.4
299.434
300.579
300.242
300.576
300.573
300.87
300.846
301.942
301.59
300.978
302.344
303.361
301.277
304.749
301.058
296.251
317.053
309.215
286.523
279.986
282.912
285.299
289.302
284.339
276.665
293.938
278.639
280.934
281.034
292.687
278.422
280.226
307.51
302.845
290.555
267.999
257.805
256.833
274.596
275.648
278.214
291.012
280.248
265.793
247.699
257.985
256.812
242.184
232.59
248.054
225.514
299.752
300.549
300.797
300.275
301.047
301.039
299.511
295.904
292.339
290.486
289.035
287.393
287.163
287.182
286.682
286.785
286.699
286.984
288.092
288.283
287.784
288.406
289.645
291.262
292.298
292.382
292.446
293.467
294.234
292.404
288.56
288.621
289.125
285.438
284.879
290.27
293.916
294.338
294.527
292.961
291.874
290.845
287.768
288.159
288.855
286.526
286.372
284.762
283.353
284.56
286.199
289.498
294.083
296.7
297.3
298.878
301.193
303.176
304.668
305.945
307.027
307.151
306.16
304.523
304.106
303.563
302.321
301.341
301.27
301.614
303.013
304.799
304.655
305.437
305.993
304.746
304.979
302.939
302.514
304.389
303.67
300.096
294.798
288.249
287.177
291.675
295.26
298.62
301.7
304.555
304.251