/*--------------------------------*- C++ -*----------------------------------*\
| =========                 |                                                 |
| \\      /  F ield         | OpenFOAM: The Open Source CFD Toolbox           |
|  \\    /   O peration     | Version:  dev                                   |
|   \\  /    A nd           | Web:      http://www.openfoam.org               |
|    \\/     M anipulation  |                                                 |
\*---------------------------------------------------------------------------*/
FoamFile
{
    version     2.0;
    format      ascii;
    class       volVectorField;
    object      U;
    location    "9.123";
}
// * * * * * * * * * * * * * * * * * * * * * * * * * * * * * * * * * * * * * //

dimensions      [0 1 -1 0 0 0 0];

internalField   nonuniform List<vector> 
12225
(
(6.04799 0.00801577 0)
(2.22945 -0.22332 0)
(-0.989275 -0.361969 0)
(-2.33783 -0.395294 0)
(-4.81482 -0.345993 0)
(-4.97333 -0.405853 0)
(-7.64653 -0.270441 0)
(-7.18406 -0.424121 0)
(-10.1582 -0.19054 0)
(-9.10235 -0.438187 0)
(-12.8199 -0.0828504 0)
(-10.7126 -0.439485 0)
(-15.3839 0.0208798 0)
(-13.2298 -0.238483 0)
(-16.942 -0.0178757 0)
(-17.9738 0.272776 0)
(-14.9875 -0.326464 0)
(-30.089 10.1404 0)
(8.54871 -0.259465 0)
(7.28812 -0.424778 0)
(3.09606 -0.766336 0)
(2.95469 -0.969501 0)
(-2.1024 -1.03253 0)
(0.0492661 -1.12225 0)
(-6.10748 -0.979406 0)
(-1.79176 -1.19319 0)
(-9.3732 -0.828226 0)
(-2.98352 -1.17855 0)
(-12.6824 -0.598452 0)
(-3.37007 -1.35104 0)
(-15.4567 0.173729 0)
(-4.41975 -2.19042 0)
(-16.8065 1.28875 0)
(-7.93159 -2.09657 0)
(-16.2583 -0.925607 0)
(-33.0766 5.18462 0)
(8.29257 -1.45563 0)
(10.1884 -1.34531 0)
(4.63783 -1.61155 0)
(7.34225 -1.66099 0)
(-0.198722 -1.83351 0)
(4.99378 -1.71726 0)
(-4.37975 -1.88135 0)
(3.26071 -1.82823 0)
(-7.21255 -1.64766 0)
(1.43005 -2.0492 0)
(-8.59104 -1.27206 0)
(-0.735088 -2.31683 0)
(-9.89285 -0.484777 0)
(-3.51698 -2.35874 0)
(-13.213 0.694158 0)
(-6.31958 -2.57143 0)
(-17.8042 5.60252 0)
(-20.5777 3.13245 0)
(6.31593 -2.63851 0)
(12.1728 -2.27643 0)
(4.3108 -2.60041 0)
(9.85352 -2.51355 0)
(1.32264 -2.71633 0)
(7.46387 -2.67737 0)
(-1.06255 -2.58235 0)
(5.08392 -2.97903 0)
(-2.83746 -2.09773 0)
(2.36307 -3.42103 0)
(-4.23927 -1.53469 0)
(-0.612502 -3.76943 0)
(-6.21102 -0.569553 0)
(-3.41923 -3.61994 0)
(-9.38244 0.510821 0)
(-10.6185 -3.0242 0)
(-8.79392 3.3221 0)
(-18.9256 8.74536 0)
(5.50472 -3.78744 0)
(11.3291 -3.95103 0)
(5.23383 -3.68918 0)
(8.87924 -3.93975 0)
(3.65278 -3.57341 0)
(6.11967 -4.09698 0)
(1.89403 -3.37014 0)
(3.63625 -4.30822 0)
(0.0892705 -2.80165 0)
(0.982224 -4.54591 0)
(-1.76206 -1.97763 0)
(-1.72283 -4.64717 0)
(-4.10745 -0.646909 0)
(-4.63169 -4.51722 0)
(-6.26958 2.5997 0)
(-9.69052 -6.99148 0)
(-6.67523 5.24407 0)
(-11.7179 12.0252 0)
(8.23117 -5.14553 0)
(8.77906 -5.63119 0)
(6.5489 -4.90481 0)
(6.17813 -5.4217 0)
(4.87516 -4.67064 0)
(3.6441 -5.48361 0)
(3.00708 -4.36412 0)
(1.52411 -5.59985 0)
(1.03357 -3.58356 0)
(-0.570422 -5.82644 0)
(-0.920667 -2.59956 0)
(-2.65788 -5.72706 0)
(-2.93435 -1.49862 0)
(-4.98518 -5.17148 0)
(-4.55333 1.70157 0)
(-5.62698 -4.59126 0)
(-8.86055 5.16084 0)
(-7.28668 7.46552 0)
(9.82969 -6.14504 0)
(7.56513 -7.31973 0)
(7.60824 -5.81478 0)
(5.23082 -7.26933 0)
(5.55233 -5.47355 0)
(2.9762 -7.27878 0)
(3.56702 -5.08674 0)
(1.06304 -7.3587 0)
(1.75285 -4.24134 0)
(-0.573887 -7.38994 0)
(-0.0855705 -3.13899 0)
(-2.10087 -6.97567 0)
(-1.61859 -1.9374 0)
(-3.68523 -6.07079 0)
(-2.94724 0.356676 0)
(-4.42706 -4.52088 0)
(-7.68246 2.77262 0)
(-2.55374 1.67722 0)
(9.806 -7.59317 0)
(7.7027 -8.53934 0)
(7.44286 -7.11362 0)
(5.53249 -8.49269 0)
(5.15724 -6.8274 0)
(3.55996 -8.37615 0)
(3.21978 -6.4528 0)
(1.77902 -8.22172 0)
(1.4633 -5.74557 0)
(0.374872 -7.90668 0)
(-0.284541 -4.95053 0)
(-0.925124 -7.26774 0)
(-1.93432 -4.01155 0)
(-2.18729 -6.04207 0)
(-3.54707 -2.35268 0)
(-3.33077 -3.89006 0)
(-5.52025 -1.19942 0)
(-3.66009 2.44101 0)
(9.85321 -8.71813 0)
(7.40034 -10.0607 0)
(7.64567 -8.01151 0)
(5.26557 -9.92922 0)
(5.41507 -7.65035 0)
(3.35694 -9.80579 0)
(3.56931 -7.27531 0)
(1.6316 -9.54513 0)
(1.92643 -6.66598 0)
(0.249173 -9.16518 0)
(0.264389 -5.91097 0)
(-1.10662 -8.41808 0)
(-1.29917 -4.89027 0)
(-2.37081 -6.98327 0)
(-2.81809 -3.16736 0)
(-3.2791 -4.76863 0)
(-3.94982 -0.805673 0)
(-4.15757 0.41844 0)
(9.68961 -10.2868 0)
(7.55854 -11.1772 0)
(7.31637 -9.47438 0)
(5.52747 -10.9607 0)
(5.23624 -9.28171 0)
(3.86683 -10.625 0)
(3.51442 -8.95258 0)
(2.33338 -10.1285 0)
(1.87611 -8.4742 0)
(1.02533 -9.49183 0)
(0.243988 -7.82758 0)
(-0.312483 -8.43365 0)
(-1.17825 -6.81002 0)
(-1.53761 -6.77188 0)
(-2.36136 -5.37886 0)
(-2.34633 -4.4626 0)
(-3.0684 -3.59107 0)
(-2.43166 -1.51975 0)
(9.6395 -11.5919 0)
(7.83873 -12.764 0)
(7.53718 -10.8836 0)
(5.75705 -12.586 0)
(5.42557 -10.7461 0)
(3.84195 -12.2764 0)
(3.56419 -10.3407 0)
(2.19481 -11.7176 0)
(1.8563 -9.8208 0)
(0.873519 -11.0262 0)
(0.279191 -9.08388 0)
(-0.440946 -9.87421 0)
(-0.901113 -7.98826 0)
(-1.55518 -8.18597 0)
(-1.9297 -6.6213 0)
(-2.14711 -6.03949 0)
(-2.29376 -4.83929 0)
(-2.16041 -3.46762 0)
(9.68746 -13.5556 0)
(8.14933 -14.1978 0)
(7.35195 -13.0041 0)
(5.95996 -13.8441 0)
(5.17739 -12.8046 0)
(4.02876 -13.2973 0)
(3.35489 -12.2455 0)
(2.43418 -12.5812 0)
(1.75666 -11.6308 0)
(1.13028 -11.7379 0)
(0.332077 -10.9216 0)
(-0.0550273 -10.5599 0)
(-0.663873 -9.78424 0)
(-1.07141 -9.14574 0)
(-1.38403 -8.30494 0)
(-1.4793 -7.39948 0)
(-1.42677 -6.54481 0)
(-1.19495 -5.51929 0)
(9.31317 -15.2162 0)
(8.34784 -15.8233 0)
(7.22927 -14.7529 0)
(5.9655 -15.4025 0)
(5.01344 -14.5078 0)
(4.07357 -14.9425 0)
(3.37312 -14.0114 0)
(2.65189 -14.2777 0)
(2.00829 -13.332 0)
(1.44642 -13.3527 0)
(0.855954 -12.5335 0)
(0.424599 -12.1653 0)
(0.03335 -11.4921 0)
(-0.37492 -10.8217 0)
(-0.555525 -10.0866 0)
(-0.617946 -9.30245 0)
(-0.594777 -8.54028 0)
(-0.339904 -7.8132 0)
(9.61361 -17.3904 0)
(8.71291 -17.4595 0)
(7.52274 -16.8103 0)
(6.32435 -16.908 0)
(5.32548 -16.509 0)
(4.44031 -16.4352 0)
(3.64415 -15.9758 0)
(2.92559 -15.7629 0)
(2.27184 -15.2055 0)
(1.70579 -14.7904 0)
(1.19458 -14.2272 0)
(0.839951 -13.681 0)
(0.539853 -13.1253 0)
(0.305681 -12.4903 0)
(0.17566 -11.8201 0)
(0.166683 -11.199 0)
(0.231945 -10.5439 0)
(0.44475 -9.9701 0)
(9.20496 -19.2411 0)
(8.22095 -19.0696 0)
(7.08901 -18.5624 0)
(6.0069 -18.51 0)
(5.11242 -18.1777 0)
(4.34488 -17.9628 0)
(3.66861 -17.5683 0)
(3.11479 -17.2643 0)
(2.58866 -16.8286 0)
(2.1857 -16.4168 0)
(1.81051 -15.914 0)
(1.54056 -15.4109 0)
(1.37434 -14.8894 0)
(1.26667 -14.3444 0)
(1.18571 -13.7834 0)
(1.20769 -13.2386 0)
(1.24985 -12.6899 0)
(1.43792 -12.1918 0)
(9.37938 -20.6322 0)
(8.31615 -20.311 0)
(7.13683 -20.0162 0)
(6.11291 -19.9966 0)
(5.27338 -19.7933 0)
(4.6017 -19.5503 0)
(4.01116 -19.1773 0)
(3.53945 -18.8229 0)
(3.13213 -18.4117 0)
(2.83584 -17.9859 0)
(2.54068 -17.5315 0)
(2.33359 -17.0297 0)
(2.15707 -16.5113 0)
(2.08679 -16.0088 0)
(2.05451 -15.4814 0)
(2.07984 -14.9744 0)
(2.10957 -14.4814 0)
(2.29084 -14.0393 0)
(9.40489 -21.3711 0)
(8.32872 -21.0918 0)
(7.24788 -20.9168 0)
(6.35823 -20.8588 0)
(5.59901 -20.6483 0)
(4.98587 -20.3769 0)
(4.45071 -20.053 0)
(4.05884 -19.7018 0)
(3.7295 -19.3203 0)
(3.49527 -18.9241 0)
(3.28658 -18.4961 0)
(3.17267 -18.0602 0)
(3.04071 -17.6312 0)
(3.01478 -17.1979 0)
(3.00585 -16.7875 0)
(3.04 -16.3925 0)
(3.06146 -15.9883 0)
(3.24369 -15.6355 0)
(9.2964 -21.3344 0)
(8.36024 -20.8528 0)
(7.48655 -20.7475 0)
(6.70582 -20.764 0)
(6.00596 -20.6322 0)
(5.43662 -20.448 0)
(4.94967 -20.2259 0)
(4.59903 -19.9647 0)
(4.30363 -19.6437 0)
(4.13147 -19.2631 0)
(3.99134 -18.845 0)
(3.93214 -18.4254 0)
(3.90023 -18.0213 0)
(3.94414 -17.6418 0)
(3.97301 -17.2871 0)
(4.06302 -16.9404 0)
(4.06368 -16.5671 0)
(4.16716 -16.2358 0)
(9.00697 -20.5379 0)
(8.32381 -20.2324 0)
(7.70489 -20.0257 0)
(7.11119 -19.9326 0)
(6.51564 -19.7554 0)
(5.99337 -19.5383 0)
(5.51856 -19.3153 0)
(5.15825 -19.0751 0)
(4.86827 -18.8094 0)
(4.70196 -18.5131 0)
(4.59929 -18.1919 0)
(4.6072 -17.8604 0)
(4.61669 -17.5362 0)
(4.68226 -17.2331 0)
(4.75915 -16.9336 0)
(4.89548 -16.653 0)
(4.93014 -16.3459 0)
(5.02387 -16.0439 0)
(9.39814 -19.0296 0)
(8.58174 -18.812 0)
(7.95834 -18.5851 0)
(7.38455 -18.4355 0)
(6.8187 -18.2208 0)
(6.324 -18.0046 0)
(5.89484 -17.8194 0)
(5.5859 -17.6488 0)
(5.34176 -17.4684 0)
(5.21486 -17.2564 0)
(5.13098 -16.9943 0)
(5.13314 -16.7112 0)
(5.14431 -16.4174 0)
(5.22403 -16.1238 0)
(5.29984 -15.843 0)
(5.44014 -15.5957 0)
(5.54941 -15.3451 0)
(5.6873 -15.0948 0)
(9.47387 -17.0439 0)
(8.84568 -16.9408 0)
(8.17924 -16.7795 0)
(7.58215 -16.6265 0)
(7.076 -16.3953 0)
(6.67978 -16.1758 0)
(6.33843 -16.0103 0)
(6.0761 -15.8799 0)
(5.84703 -15.7312 0)
(5.69777 -15.5512 0)
(5.5829 -15.3401 0)
(5.55088 -15.0924 0)
(5.54827 -14.8496 0)
(5.60877 -14.6128 0)
(5.68363 -14.3886 0)
(5.84139 -14.1886 0)
(5.98548 -14.0053 0)
(6.18314 -13.8266 0)
(9.47396 -14.8929 0)
(8.87897 -14.7811 0)
(8.30147 -14.6443 0)
(7.76353 -14.564 0)
(7.3109 -14.4128 0)
(6.95765 -14.2376 0)
(6.64441 -14.0866 0)
(6.3995 -13.9381 0)
(6.19566 -13.809 0)
(6.06743 -13.6512 0)
(5.99098 -13.4895 0)
(6.00005 -13.286 0)
(6.0401 -13.0909 0)
(6.13604 -12.9012 0)
(6.24284 -12.6902 0)
(6.37617 -12.5384 0)
(6.48434 -12.3853 0)
(6.66945 -12.2308 0)
(9.52625 -12.7585 0)
(8.91344 -12.7499 0)
(8.39223 -12.65 0)
(7.92189 -12.5578 0)
(7.52364 -12.403 0)
(7.19857 -12.2249 0)
(6.92764 -12.068 0)
(6.72115 -11.9557 0)
(6.56543 -11.8488 0)
(6.46405 -11.7421 0)
(6.41043 -11.6216 0)
(6.42511 -11.48 0)
(6.44839 -11.3188 0)
(6.55088 -11.1562 0)
(6.64094 -10.9737 0)
(6.73648 -10.828 0)
(6.87538 -10.6831 0)
(7.04414 -10.5132 0)
(9.69753 -10.5318 0)
(9.06405 -10.5499 0)
(8.52132 -10.5686 0)
(8.07956 -10.5609 0)
(7.73618 -10.4569 0)
(7.48478 -10.2986 0)
(7.2672 -10.1686 0)
(7.08061 -10.0549 0)
(6.912 -9.96275 0)
(6.77969 -9.87681 0)
(6.68971 -9.76545 0)
(6.66559 -9.64945 0)
(6.67697 -9.52536 0)
(6.7555 -9.37581 0)
(6.86547 -9.25394 0)
(6.97446 -9.12576 0)
(7.15567 -8.99257 0)
(7.37545 -8.84775 0)
(9.30613 -8.68486 0)
(9.02706 -8.68045 0)
(8.67271 -8.71402 0)
(8.24643 -8.73262 0)
(7.84023 -8.65982 0)
(7.51811 -8.5091 0)
(7.27818 -8.35107 0)
(7.11297 -8.21254 0)
(6.99706 -8.10836 0)
(6.92346 -8.02366 0)
(6.88033 -7.95096 0)
(6.87695 -7.877 0)
(6.87581 -7.80748 0)
(6.93212 -7.71042 0)
(6.99108 -7.62619 0)
(7.07921 -7.52662 0)
(7.23453 -7.39776 0)
(7.41649 -7.29548 0)
(9.44429 -6.84375 0)
(9.24348 -6.92521 0)
(9.01372 -6.93698 0)
(8.62256 -6.92353 0)
(8.14886 -6.84847 0)
(7.72592 -6.72593 0)
(7.40248 -6.6315 0)
(7.21334 -6.546 0)
(7.11185 -6.48378 0)
(7.06535 -6.42263 0)
(7.05101 -6.34425 0)
(7.06169 -6.26108 0)
(7.04419 -6.19453 0)
(7.06325 -6.08817 0)
(7.0844 -6.02724 0)
(7.13429 -5.92964 0)
(7.20914 -5.8471 0)
(7.31653 -5.77775 0)
(9.46928 -5.19767 0)
(9.3815 -5.46033 0)
(9.22713 -5.42074 0)
(8.86515 -5.35044 0)
(8.3934 -5.2359 0)
(7.96088 -5.11688 0)
(7.59898 -5.04634 0)
(7.29782 -4.99387 0)
(7.05927 -4.9447 0)
(6.83593 -4.89005 0)
(6.64953 -4.81948 0)
(6.47558 -4.74128 0)
(6.33209 -4.67385 0)
(6.20608 -4.592 0)
(6.12914 -4.52168 0)
(6.07414 -4.45381 0)
(6.04293 -4.38577 0)
(6.03773 -4.31611 0)
(9.6325 -3.64755 0)
(9.59966 -4.00037 0)
(9.30556 -3.95521 0)
(8.66292 -3.84241 0)
(7.86658 -3.71059 0)
(7.16228 -3.58922 0)
(6.50984 -3.50985 0)
(5.91681 -3.45022 0)
(5.38841 -3.40995 0)
(4.91086 -3.34326 0)
(4.49715 -3.27143 0)
(4.14498 -3.19764 0)
(3.86854 -3.14256 0)
(3.6294 -3.0848 0)
(3.47033 -3.01672 0)
(3.2912 -2.98387 0)
(3.15933 -2.93364 0)
(3.04345 -2.87435 0)
(9.49647 -2.5111 0)
(9.00597 -2.85237 0)
(7.92229 -2.66637 0)
(6.50456 -2.42543 0)
(5.16252 -2.21633 0)
(4.07663 -2.07173 0)
(3.13561 -1.97279 0)
(2.35402 -1.91522 0)
(1.70083 -1.8805 0)
(1.15555 -1.83745 0)
(0.720785 -1.79802 0)
(0.392847 -1.75506 0)
(0.139977 -1.71847 0)
(-0.0484917 -1.67598 0)
(-0.179725 -1.6597 0)
(-0.282909 -1.63759 0)
(-0.359195 -1.62048 0)
(-0.393668 -1.59199 0)
(8.11995 -1.00352 0)
(5.17963 -1.00857 0)
(2.74177 -0.759397 0)
(0.933798 -0.627109 0)
(-0.251425 -0.578253 0)
(-1.04888 -0.576306 0)
(-1.65008 -0.575287 0)
(-2.11888 -0.577759 0)
(-2.47671 -0.577617 0)
(-2.77199 -0.571269 0)
(-2.99551 -0.558293 0)
(-3.13817 -0.546372 0)
(-3.2272 -0.535025 0)
(-3.2642 -0.526977 0)
(-3.25197 -0.519004 0)
(-3.21689 -0.508909 0)
(-3.15304 -0.509313 0)
(-3.10618 -0.479159 0)
(0.175523 1.79948 0)
(0.429792 1.90571 0)
(0.607259 1.80367 0)
(0.841956 1.69252 0)
(1.12729 1.64526 0)
(1.51537 1.56198 0)
(1.97189 1.47167 1.09482e-17)
(2.49935 1.37406 -1.09453e-17)
(3.12969 1.2924 0)
(3.85953 1.21533 -1.08917e-17)
(4.62342 1.18165 0)
(5.40723 1.1719 0)
(6.1856 1.15487 0)
(6.97071 1.16224 1.06277e-17)
(7.75887 1.16976 0)
(8.52282 1.15174 0)
(9.28602 1.16332 -1.04054e-17)
(10.0404 1.15124 0)
(10.7724 1.14779 0)
(11.5008 1.1412 0)
(12.1981 1.13072 1.01379e-17)
(12.882 1.1163 0)
(13.5617 1.10367 1.00135e-17)
(14.2222 1.09681 0)
(14.8587 1.09559 0)
(15.4748 1.09917 9.82989e-18)
(16.0415 1.11279 0)
(16.5775 1.13501 -9.70281e-18)
(17.0768 1.15481 0)
(17.4937 1.18326 9.5792e-18)
(17.8328 1.19936 0)
(18.0969 1.22871 0)
(18.2719 1.26335 0)
(18.373 1.30933 0)
(18.3753 1.36272 0)
(18.2999 1.41331 -9.22143e-18)
(18.0965 1.57453 0)
(17.7262 1.59643 1.81548e-17)
(17.4059 1.11035 0)
(17.2731 0.476063 -1.8215e-17)
(17.2012 0.201208 0)
(17.2731 0.351533 0)
(17.5474 0.510852 1.76816e-17)
(17.8106 0.598856 0)
(17.9584 0.617559 1.74367e-17)
(18.0413 0.542917 -1.73111e-17)
(18.1147 0.424856 0)
(18.3967 0.229638 -1.70151e-17)
(18.9412 0.0482726 -1.68614e-17)
(19.75 -0.0134441 0)
(20.622 0.016043 0)
(21.349 -0.120567 0)
(21.9592 -0.0516011 0)
(22.3238 0.439644 0)
(22.1166 0.905293 1.62078e-17)
(21.3373 1.29985 0)
(20.1062 1.65811 -1.60372e-17)
(19.0393 1.30045 0)
(18.8326 -0.0108794 0)
(19.0222 -1.40453 1.56829e-17)
(19.3251 -2.09335 0)
(19.4673 -1.7 -1.57832e-17)
(18.9735 -0.44084 0)
(17.4618 0.602469 0)
(15.4862 0.9469 0)
(13.6777 0.913713 1.5118e-17)
(12.0041 0.752531 0)
(10.5284 0.562831 0)
(9.26208 0.38602 1.45673e-17)
(8.17626 0.194244 0)
(7.26416 0.045575 1.42848e-17)
(6.49463 -0.0903817 0)
(5.83286 -0.23185 0)
(5.26843 -0.340515 0)
(4.80143 -0.452338 -1.37818e-17)
(4.37338 -0.544375 0)
(3.98525 -0.619658 0)
(3.61858 -0.694076 -1.342e-17)
(3.27161 -0.764127 -1.33001e-17)
(2.94273 -0.828836 0)
(2.62299 -0.88609 -1.30613e-17)
(2.29662 -0.927402 0)
(1.95337 -0.959696 -2.56564e-17)
(1.59775 -1.00605 0)
(1.2514 -1.04825 -2.51842e-17)
(0.891353 -1.08103 0)
(0.515161 -1.09874 2.47212e-17)
(0.124592 -1.12979 0)
(-0.265009 -1.16007 0)
(-0.668086 -1.16852 0)
(-1.06739 -1.17915 -2.38047e-17)
(-1.44986 -1.20774 0)
(-1.84568 -1.22408 2.33574e-17)
(-2.27355 -1.2042 0)
(-2.6445 -1.22841 -2.29318e-17)
(-2.97649 -1.24719 -2.27209e-17)
(-3.36611 -1.2155 -2.25397e-17)
(-3.68266 -1.25122 0)
(-3.99935 -1.22938 0)
(-4.33316 -1.23731 0)
(-4.59431 -1.23508 0)
(-4.88795 -1.23235 0)
(-5.1971 -1.21938 0)
(-5.46914 -1.21193 0)
(-5.74503 -1.20487 0)
(-5.9959 -1.20222 2.1198e-17)
(-6.22743 -1.18788 2.10822e-17)
(-6.42762 -1.16173 0)
(-6.60719 -1.13726 0)
(-6.80171 -1.10466 0)
(-6.95187 -1.07887 2.07739e-17)
(-7.00804 -1.03491 0)
(-7.03112 -1.01253 0)
(-7.03187 -0.970054 0)
(-7.01232 -0.95024 0)
(-7.04307 -0.902172 -2.04231e-17)
(-7.03836 -0.847929 0)
(-6.97815 -0.791243 0)
(-6.83682 -0.739568 2.01713e-17)
(-6.51493 -0.688106 -2.00503e-17)
(-6.23548 -0.680132 0)
(-6.05238 -0.689629 -2.00588e-17)
(-5.78799 -0.650706 0)
(-5.39401 -0.478891 2.00333e-17)
(-5.1169 -0.279592 0)
(-5.34763 -0.0820725 0)
(-5.71554 0.16241 0)
(-6.03098 0.190515 0)
(-6.35662 0.187152 0)
(-5.82942 0.0449022 -3.86665e-17)
(-5.82196 0.0970174 -3.83736e-17)
(-4.40598 -0.090446 0)
(-4.62211 0.150119 0)
(-2.55817 -0.175728 0)
(-2.34291 0.207257 3.73374e-17)
(-0.623747 -0.178855 0)
(0.827865 0.00686269 0)
(1.73581 0.236863 0)
(2.69387 0.0627968 3.60926e-17)
(3.84926 0.354756 -3.61441e-17)
(3.94107 0.479629 0)
(4.77369 0.412559 0)
(5.18588 0.459663 -3.5185e-17)
(5.85559 0.413884 -3.48991e-17)
(6.51194 0.434553 0)
(7.38666 0.448601 0)
(8.19124 0.464978 3.3986e-17)
(8.83949 0.528865 -3.36759e-17)
(9.12628 0.602824 0)
(9.27179 0.637547 0)
(9.20928 0.628147 -3.28483e-17)
(9.01344 0.691193 0)
(8.61888 0.773357 0)
(7.9891 0.914754 -3.19471e-17)
(7.31823 0.89979 0)
(6.57416 0.829985 -3.12401e-17)
(6.03655 0.710642 0)
(5.42924 0.630647 0)
(5.20592 0.5692 0)
(5.01275 0.532784 2.98636e-17)
(5.32237 0.442933 0)
(5.70284 0.404257 0)
(6.27426 0.326982 0)
(6.55852 0.384939 0)
(6.18513 0.587971 0)
(5.95307 0.604846 0)
(5.65796 0.583567 2.80856e-17)
(4.30475 0.799274 2.76739e-17)
(3.2767 0.35095 0)
(6.22239 -0.275445 0)
(8.1078 0.0216998 0)
(7.95 0.059278 -2.70793e-17)
(7.43848 0.0417117 0)
(6.28307 0.114283 5.30194e-17)
(6.62045 -0.334761 -5.27106e-17)
(7.68829 -0.490941 -5.31655e-17)
(8.4691 -0.55584 5.33165e-17)
(8.59975 -0.519128 -5.34752e-17)
(7.80517 -0.468893 5.33773e-17)
(6.25092 -0.402687 0)
(0.196041 5.00925 0)
(0.65304 5.18226 0)
(1.0518 5.27358 -2.14705e-17)
(1.34942 5.14081 0)
(1.66803 4.90546 2.12677e-17)
(2.03635 4.66552 2.16591e-17)
(2.46226 4.40798 1.10802e-17)
(2.99015 4.09953 1.12448e-17)
(3.61626 3.82651 0)
(4.34988 3.59531 1.13575e-17)
(5.12353 3.44919 0)
(5.90659 3.39153 0)
(6.70095 3.3616 -2.24329e-17)
(7.49405 3.33137 -1.11299e-17)
(8.27231 3.34573 2.20918e-17)
(9.04208 3.32882 2.19125e-17)
(9.85737 3.30476 1.0855e-17)
(10.6401 3.29551 0)
(11.3969 3.24869 0)
(12.1578 3.2162 0)
(12.9038 3.21598 1.05177e-17)
(13.6192 3.13548 0)
(14.3431 3.08183 -3.10032e-17)
(15.0777 3.06845 0)
(15.7702 2.98194 0)
(16.4629 2.97295 -1.01053e-17)
(17.1072 2.98831 0)
(17.7161 3.00184 9.95148e-18)
(18.3331 3.05339 1.97646e-17)
(18.8385 3.07517 -9.80671e-18)
(19.2801 3.14192 0)
(19.7027 3.19609 0)
(19.957 3.27766 0)
(20.2359 3.34839 1.90295e-17)
(20.4197 3.35913 1.88793e-17)
(20.454 3.51437 9.35246e-18)
(20.5977 3.578 0)
(20.556 3.62926 -1.83334e-17)
(20.5103 3.64397 0)
(20.1787 3.52026 1.80635e-17)
(19.5063 3.37388 0)
(18.6961 2.56583 0)
(17.9489 1.61657 -1.70668e-17)
(17.7482 1.48326 0)
(17.6558 1.64738 -5.10538e-17)
(17.64 1.65344 1.69161e-17)
(17.7049 1.34092 0)
(18.1009 0.626844 1.66595e-17)
(18.6938 -0.200902 1.65261e-17)
(19.8412 -1.01706 0)
(21.15 -0.854038 0)
(22.1307 -0.642509 0)
(22.7722 -0.358992 0)
(23.0526 0.32455 0)
(23.1031 1.04417 -1.59819e-17)
(22.9758 1.44985 -3.21387e-17)
(22.3988 1.36183 1.5846e-17)
(22.0978 0.565017 0)
(21.6272 -0.369494 -3.13249e-17)
(19.3143 0.053243 1.57454e-17)
(15.8164 1.1562 0)
(12.8408 1.80291 1.51313e-17)
(10.643 2.19615 0)
(8.85892 2.2728 0)
(7.44201 2.08377 2.91593e-17)
(6.22747 1.64299 -1.44556e-17)
(5.21366 1.14926 2.86891e-17)
(4.33672 0.6397 -2.85136e-17)
(3.59725 0.123721 -1.416e-17)
(3.05171 -0.315966 0)
(2.56761 -0.725974 -1.39834e-17)
(2.15091 -1.11485 0)
(1.85223 -1.45108 0)
(1.60216 -1.74138 0)
(1.39605 -2.00789 -1.35671e-17)
(1.21904 -2.24413 0)
(1.03657 -2.45354 -2.66589e-17)
(0.878566 -2.64338 3.96308e-17)
(0.716312 -2.82188 1.30791e-17)
(0.566927 -2.98229 0)
(0.418985 -3.11774 1.28173e-17)
(0.237316 -3.22372 0)
(0.0178715 -3.33832 2.51119e-17)
(-0.182313 -3.48162 0)
(-0.406327 -3.54954 2.45845e-17)
(-0.629327 -3.61614 -4.86487e-17)
(-0.879812 -3.68662 -2.40396e-17)
(-1.12184 -3.79253 0)
(-1.41636 -3.85856 0)
(-1.69051 -3.89196 0)
(-1.98635 -3.94076 2.30088e-17)
(-2.28193 -3.97862 0)
(-2.51259 -3.99937 -2.24221e-17)
(-2.85634 -3.99891 0)
(-3.08815 -4.05952 6.59205e-17)
(-3.34457 -4.06513 2.16373e-17)
(-3.60596 -4.01729 2.13891e-17)
(-3.80716 -4.07439 0)
(-4.0374 -4.01493 0)
(-4.24767 -4.00243 0)
(-4.41704 -3.96197 0)
(-4.57493 -3.91554 0)
(-4.78528 -3.8339 4.02351e-17)
(-4.94355 -3.77142 3.99332e-17)
(-5.1168 -3.70863 0)
(-5.24689 -3.67923 -1.96648e-17)
(-5.37058 -3.63247 -1.95423e-17)
(-5.47482 -3.56032 0)
(-5.58031 -3.4861 -3.88373e-17)
(-5.73531 -3.41544 0)
(-5.83797 -3.37762 1.9402e-17)
(-5.88019 -3.35457 0)
(-5.91148 -3.27294 0)
(-5.9178 -3.13032 -3.87833e-17)
(-5.92139 -2.93257 0)
(-5.92408 -2.74087 1.91371e-17)
(-5.89147 -2.48315 0)
(-5.95029 -2.37734 0)
(-6.01221 -2.39005 1.89626e-17)
(-5.87535 -2.24339 1.87861e-17)
(-5.576 -1.74907 0)
(-5.65138 -1.41119 -1.94019e-17)
(-6.22444 -1.36447 0)
(-6.65152 -1.14612 2.00237e-17)
(-6.83454 -0.645282 3.98081e-17)
(-7.22224 -0.165356 0)
(-7.52171 0.0983115 0)
(-7.49639 0.0759648 0)
(-7.38354 0.020138 0)
(-6.40786 -0.300647 3.81423e-17)
(-6.32174 -0.0985083 1.13501e-16)
(-4.16726 -0.391656 0)
(-4.94808 0.170718 0)
(-0.830385 -0.708706 0)
(-2.88968 0.174007 -3.70831e-17)
(2.14806 -0.623904 0)
(0.305284 0.00394096 0)
(3.6158 0.408257 7.32922e-17)
(3.46466 0.28604 3.5418e-17)
(5.32372 0.743327 3.60824e-17)
(4.62021 0.893299 0)
(5.80106 0.684203 0)
(5.89741 0.895767 3.55766e-17)
(7.09692 0.875569 -3.51782e-17)
(7.92992 0.781883 0)
(9.29012 0.71772 0)
(10.184 0.839643 -3.40736e-17)
(11.2765 1.03615 1.00771e-16)
(11.7451 1.4121 0)
(12.278 1.65478 0)
(12.6393 1.76402 3.22432e-17)
(12.8887 1.89508 0)
(12.5432 1.9456 6.3882e-17)
(11.5539 1.9445 -3.16514e-17)
(10.6201 1.8767 0)
(9.72932 1.89762 3.08398e-17)
(9.35485 1.8649 6.05842e-17)
(8.61711 1.94091 0)
(8.50353 1.6615 0)
(7.89824 1.4781 -2.85464e-17)
(8.04444 1.18044 0)
(7.76231 1.06079 5.53089e-17)
(7.61795 1.1066 0)
(6.98738 1.45583 0)
(5.96721 1.28846 0)
(5.65583 1.15195 0)
(5.05835 1.24991 -2.55715e-17)
(3.52292 1.35983 -2.53802e-17)
(2.74688 -0.557638 0)
(6.35645 -2.13402 0)
(9.59285 -0.902544 0)
(9.22638 -0.218474 2.432e-17)
(8.49856 -0.339078 0)
(7.2517 -0.726844 -4.75451e-17)
(8.11812 -1.94965 4.89409e-17)
(10.1942 -2.24858 4.86882e-17)
(11.9355 -2.0294 4.85998e-17)
(12.0283 -1.75919 4.89629e-17)
(10.936 -1.23238 4.78937e-17)
(9.16385 -0.979686 0)
(0.207895 7.97813 0)
(0.706548 8.04944 0)
(1.24655 8.1918 2.15187e-17)
(1.68518 8.17096 2.09149e-17)
(2.07441 8.04382 -2.09194e-17)
(2.49327 7.83598 -2.15717e-17)
(2.98256 7.42717 1.57692e-20)
(3.54026 6.88648 0)
(4.16895 6.42476 0)
(4.83752 6.05555 0)
(5.52418 5.83777 0)
(6.21875 5.71875 0)
(6.93647 5.70228 6.84287e-17)
(7.62176 5.65168 0)
(8.37377 5.63705 -2.24273e-17)
(9.09638 5.6118 -2.22197e-17)
(9.8351 5.52476 0)
(10.605 5.50085 0)
(11.3375 5.43268 0)
(12.0882 5.34429 0)
(12.8395 5.321 -2.12107e-17)
(13.6002 5.19914 0)
(14.3136 5.04848 2.07842e-17)
(15.0894 5.00916 0)
(15.8155 4.85403 0)
(16.4697 4.82686 0)
(17.2397 4.88042 4.02542e-17)
(17.8832 4.85302 0)
(18.418 4.96523 -1.97902e-17)
(19.0039 5.028 3.93527e-17)
(19.5334 5.06982 0)
(19.9767 5.24851 0)
(20.2288 5.36965 0)
(20.5785 5.34909 -1.9105e-17)
(20.7642 5.46158 -1.9004e-17)
(20.843 5.55133 0)
(21.1148 5.43193 0)
(21.1304 5.54337 3.72361e-17)
(21.1796 5.63507 3.69622e-17)
(21.4133 5.5059 -3.67719e-17)
(21.3845 5.53749 0)
(21.041 5.50587 0)
(20.6031 5.08982 0)
(19.4953 4.26562 0)
(18.4711 3.42199 3.3576e-17)
(18.367 2.64402 3.31999e-17)
(18.481 1.79507 -3.36039e-17)
(18.5428 0.653365 0)
(19.2418 -0.938556 0)
(20.085 -2.5935 0)
(20.8124 -2.468 0)
(21.3016 -1.81519 3.29367e-17)
(21.3137 -0.733155 0)
(21.1638 0.551448 0)
(20.6148 1.68571 3.25205e-17)
(19.7142 2.28733 3.21483e-17)
(18.3574 2.70047 0)
(16.1804 3.20459 -6.2377e-17)
(13.6393 3.87279 3.08755e-17)
(11.4544 4.17987 -3.05454e-17)
(9.52366 4.13742 0)
(8.02071 3.88814 0)
(6.70811 3.58077 0)
(5.7859 3.16634 0)
(5.06722 2.57336 -2.99488e-17)
(4.49774 1.9058 -5.98856e-17)
(4.05915 1.14727 -2.99108e-17)
(3.70157 0.395086 2.9836e-17)
(3.41489 -0.304078 0)
(3.18405 -1.00988 -5.93084e-17)
(2.987 -1.62395 -5.90213e-17)
(2.80744 -2.17515 -5.87382e-17)
(2.68868 -2.68621 5.83856e-17)
(2.5667 -3.11112 0)
(2.44131 -3.52645 8.6422e-17)
(2.34519 -3.88385 0)
(2.2299 -4.20092 -2.8394e-17)
(2.08561 -4.50626 -2.81459e-17)
(1.91928 -4.78967 0)
(1.7698 -5.05308 0)
(1.60549 -5.25578 -5.48319e-17)
(1.40937 -5.42176 0)
(1.14232 -5.58685 -5.37929e-17)
(0.988947 -5.83562 0)
(0.675743 -5.94277 5.28005e-17)
(0.435896 -6.06802 1.04552e-16)
(0.0824101 -6.16651 0)
(-0.152676 -6.33612 0)
(-0.505963 -6.39486 0)
(-0.80371 -6.48719 5.01325e-17)
(-1.13266 -6.55277 0)
(-1.50572 -6.62271 4.91531e-17)
(-1.77971 -6.62529 0)
(-2.18902 -6.62027 0)
(-2.41948 -6.68744 -9.4748e-17)
(-2.74502 -6.665 0)
(-3.05481 -6.63373 -4.59184e-17)
(-3.23375 -6.6982 0)
(-3.54928 -6.60151 -4.45754e-17)
(-3.67799 -6.577 0)
(-3.92762 -6.52957 0)
(-4.05633 -6.46579 0)
(-4.21571 -6.34309 -1.25129e-16)
(-4.33183 -6.26098 -4.10391e-17)
(-4.48772 -6.17828 0)
(-4.63257 -6.14696 0)
(-4.77325 -6.04599 0)
(-4.90495 -5.91852 0)
(-5.0601 -5.76616 3.85961e-17)
(-5.22301 -5.62242 -7.67496e-17)
(-5.34101 -5.50218 -3.81656e-17)
(-5.33791 -5.40182 7.63131e-17)
(-5.3315 -5.24846 7.64386e-17)
(-5.36713 -5.04131 3.82067e-17)
(-5.49893 -4.72966 0)
(-5.68949 -4.48503 7.57223e-17)
(-5.6529 -4.19592 0)
(-5.40694 -3.74851 -7.31865e-17)
(-5.60247 -3.50064 -3.73725e-17)
(-5.88206 -3.58391 0)
(-5.57038 -3.08898 7.26216e-17)
(-5.20298 -2.21013 3.70183e-17)
(-5.5927 -1.6815 0)
(-6.31454 -1.26031 4.04125e-17)
(-6.77149 -0.686684 -1.22111e-16)
(-6.89524 -0.229166 0)
(-6.76244 0.0511118 0)
(-6.3201 -0.0633624 0)
(-6.11799 -0.163534 0)
(-4.75492 -0.659553 -7.57854e-17)
(-5.14527 -0.445062 -7.51672e-17)
(-2.23043 -0.638306 0)
(-4.40184 -0.562964 0)
(1.8915 -0.97896 0)
(-2.50211 -0.238662 0)
(5.00951 -1.01275 0)
(0.314474 0.386244 0)
(5.5991 0.0521731 -7.25422e-17)
(4.51033 0.439505 -1.87975e-20)
(7.91579 1.39002 0)
(7.36133 2.11761 0)
(8.27018 1.61457 -7.3559e-17)
(7.40831 1.65887 0)
(8.5645 1.35887 7.24168e-17)
(9.05845 1.22211 7.17536e-17)
(10.8653 1.11048 0)
(11.7776 1.44751 0)
(13.2035 1.72794 -7.00321e-17)
(13.2789 2.01364 -1.36751e-16)
(13.347 2.09601 0)
(13.6043 2.288 0)
(14.5025 2.79134 0)
(14.8198 3.43663 -6.37476e-17)
(14.1775 4.14854 6.47572e-17)
(13.4523 4.24293 0)
(12.3187 3.8339 1.30965e-16)
(11.7112 3.24873 6.45101e-17)
(10.5203 2.92554 -1.24944e-16)
(10.4737 2.60763 0)
(9.95055 2.48006 0)
(10.2117 2.24211 -1.1266e-16)
(9.57021 2.30593 -5.4892e-17)
(8.7916 2.43446 0)
(7.57899 2.7441 0)
(6.78911 2.47617 0)
(6.25684 2.33697 0)
(6.18665 2.22343 -9.92736e-17)
(4.46428 2.45534 0)
(3.97348 -0.342267 0)
(4.5171 -3.83301 0)
(10.1552 -1.97645 0)
(10.8095 0.00324842 0)
(10.3309 -0.255463 0)
(8.67807 -0.894217 -9.94773e-17)
(8.24913 -3.31712 0)
(10.4213 -4.21023 0)
(13.5308 -3.61894 -2.01025e-16)
(13.7781 -2.8872 9.75475e-17)
(12.4972 -1.97026 -9.0482e-17)
(10.8512 -1.75558 9.00563e-17)
(0.241919 10.8264 0)
(0.693685 10.8181 -4.60211e-17)
(1.18578 10.9595 0)
(1.65806 10.996 -2.11903e-17)
(2.13628 10.9138 0)
(2.65594 10.5761 0)
(3.26149 9.98408 2.26492e-17)
(3.91233 9.29851 0)
(4.49047 8.7833 0)
(5.03812 8.42617 0)
(5.60949 8.22624 0)
(6.19504 8.10622 0)
(6.80112 8.02838 -9.09555e-17)
(7.4251 7.93762 -4.50498e-17)
(8.07821 7.82801 4.45956e-17)
(8.77955 7.71542 0)
(9.51782 7.58528 0)
(10.265 7.50749 0)
(11.0464 7.39834 0)
(11.8503 7.24833 0)
(12.6597 7.10789 -4.19881e-17)
(13.4453 6.97095 -4.15049e-17)
(14.2565 6.79831 4.11571e-17)
(15.075 6.68469 -4.0864e-17)
(15.892 6.56169 0)
(16.6155 6.46011 0)
(17.4113 6.44523 -3.98136e-17)
(18.1193 6.4944 0)
(18.7196 6.59415 0)
(19.4123 6.62444 -3.90275e-17)
(19.9247 6.78304 -3.87427e-17)
(20.382 7.03681 -3.8525e-17)
(20.7902 7.07689 0)
(21.078 7.28536 0)
(21.1822 7.48499 3.77175e-17)
(21.3013 7.3399 0)
(21.2065 7.27091 0)
(21.0281 7.33368 -3.67344e-17)
(21.2037 6.89844 3.67162e-17)
(21.0937 6.73428 -3.62482e-17)
(21.0753 7.13456 0)
(21.454 6.97062 0)
(21.4457 6.77213 -7.1849e-17)
(21.0849 6.54348 0)
(20.5556 5.73841 -6.95341e-17)
(19.9173 4.65885 -1.0135e-16)
(19.4996 3.388 1.0021e-16)
(18.8474 1.85941 -6.5922e-17)
(19.1918 -0.620885 0)
(18.4119 -1.59015 0)
(17.6032 -0.772394 -6.47938e-17)
(16.984 0.113831 -3.21363e-17)
(16.1884 1.10037 0)
(15.3741 2.48692 0)
(14.4425 3.75397 -3.18962e-17)
(13.2702 4.70279 -6.30431e-17)
(11.9944 5.38759 0)
(10.5092 5.71453 6.20168e-17)
(9.07925 5.88006 -6.16287e-17)
(7.93232 5.76371 6.15664e-17)
(6.90034 5.27627 0)
(6.22274 4.68606 0)
(5.60263 3.97703 0)
(5.19319 3.18511 0)
(4.77698 2.30987 0)
(4.45138 1.40126 6.11943e-17)
(4.17713 0.481382 0)
(3.92901 -0.441266 0)
(3.78361 -1.29916 0)
(3.6049 -2.1273 1.19584e-16)
(3.51936 -2.85427 5.93285e-17)
(3.46021 -3.55838 5.8882e-17)
(3.34486 -4.18342 -1.16768e-16)
(3.29798 -4.74246 5.79992e-17)
(3.20246 -5.2536 -5.74736e-17)
(3.13988 -5.69499 0)
(3.07708 -6.10708 5.66542e-17)
(2.95002 -6.48623 0)
(2.83098 -6.83549 0)
(2.71103 -7.20063 0)
(2.54429 -7.46002 1.09909e-16)
(2.42101 -7.69538 -5.45972e-17)
(2.0473 -7.9226 -5.42495e-17)
(1.99013 -8.22653 -1.0748e-16)
(1.65273 -8.38326 -1.59748e-16)
(1.39706 -8.57483 -5.28452e-17)
(1.05713 -8.70689 0)
(0.826911 -8.9486 -1.04126e-16)
(0.387255 -9.03101 0)
(0.155288 -9.1839 -1.53481e-16)
(-0.272958 -9.23576 0)
(-0.564934 -9.34899 -1.51069e-16)
(-0.943061 -9.43435 0)
(-1.26974 -9.38585 0)
(-1.63959 -9.51631 -4.92945e-17)
(-1.93034 -9.51289 0)
(-2.28932 -9.42879 4.82609e-17)
(-2.48426 -9.56721 9.60865e-17)
(-2.85022 -9.38051 4.73933e-17)
(-2.98924 -9.41351 9.39917e-17)
(-3.2478 -9.29428 -9.2897e-17)
(-3.38306 -9.20526 -9.17726e-17)
(-3.55629 -9.02861 1.80358e-16)
(-3.64795 -8.88027 0)
(-3.78091 -8.71767 0)
(-3.88257 -8.59898 8.6159e-17)
(-4.04493 -8.40687 -8.49027e-17)
(-4.20607 -8.18948 0)
(-4.39774 -7.98577 0)
(-4.50799 -7.79841 8.11253e-17)
(-4.46636 -7.71423 0)
(-4.35545 -7.65017 1.22204e-19)
(-4.4609 -7.38571 1.0991e-19)
(-4.88463 -6.91452 7.63993e-17)
(-5.15401 -6.44787 0)
(-5.24913 -6.1541 -7.64886e-17)
(-5.23448 -5.9448 0)
(-4.96421 -5.40745 7.31511e-17)
(-4.75852 -4.78026 0)
(-5.31254 -4.60409 0)
(-5.90204 -4.24036 -7.49198e-17)
(-5.5763 -3.20373 -7.28098e-17)
(-5.34428 -2.21541 0)
(-5.54202 -1.54914 -7.99611e-17)
(-5.63092 -1.09205 1.61879e-16)
(-5.37592 -0.797924 0)
(-5.07293 -0.606815 0)
(-4.31741 -0.74459 0)
(-4.17776 -0.698704 0)
(-2.56352 -1.08465 7.40374e-17)
(-3.40432 -0.96829 -1.47697e-16)
(0.271432 -0.599472 0)
(-2.55081 -1.28627 0)
(3.58173 -1.2714 0)
(-1.22473 -0.36277 0)
(5.9395 -1.314 0)
(0.860611 0.976117 0)
(6.74159 -0.599121 0)
(4.30113 0.32634 7.11648e-17)
(8.31374 0.661744 0)
(9.10976 2.31716 0)
(10.8026 2.36436 6.95444e-17)
(10.1117 2.5255 0)
(10.7349 1.85712 0)
(10.8057 1.4116 -7.10476e-17)
(12.3537 1.17423 0)
(12.9347 1.41155 0)
(14.9306 2.14367 1.41193e-16)
(15.8872 3.62366 1.41669e-16)
(15.8338 3.9022 1.41628e-16)