/*--------------------------------*- C++ -*----------------------------------*\
| =========                 |                                                 |
| \\      /  F ield         | OpenFOAM: The Open Source CFD Toolbox           |
|  \\    /   O peration     | Version:  dev                                   |
|   \\  /    A nd           | Web:      http://www.openfoam.org               |
|    \\/     M anipulation  |                                                 |
\*---------------------------------------------------------------------------*/
FoamFile
{
    version     2.0;
    format      ascii;
    class       volVectorField;
    object      U_0;
    location    "9.123";
}
// * * * * * * * * * * * * * * * * * * * * * * * * * * * * * * * * * * * * * //

dimensions      [0 1 -1 0 0 0 0];

internalField   nonuniform List<vector> 
12225
(
(6.03522 0.0454086 0)
(2.20967 -0.119118 0)
(-1.07282 -0.259387 0)
(-2.49978 -0.28698 0)
(-4.95862 -0.243601 0)
(-5.11231 -0.290609 0)
(-7.65023 -0.172141 0)
(-7.087 -0.306702 0)
(-9.82264 -0.0957364 0)
(-8.59067 -0.309103 0)
(-12.0661 -0.000713662 0)
(-9.7116 -0.30172 0)
(-14.0819 0.076267 0)
(-11.758 -0.0861634 0)
(-14.8618 0.0231858 0)
(-16.8693 0.586766 0)
(-14.3635 0.0149227 0)
(-28.1992 7.36692 0)
(8.51432 -0.0763517 0)
(7.28893 -0.127643 0)
(3.08083 -0.473893 0)
(2.92483 -0.670272 0)
(-2.09068 -0.738886 0)
(0.165453 -0.807099 0)
(-5.86541 -0.714179 0)
(-1.31183 -0.868175 0)
(-8.71093 -0.584185 0)
(-1.9519 -0.815346 0)
(-11.5438 -0.380992 0)
(-1.69993 -1.01353 0)
(-13.7009 0.422879 0)
(-2.07772 -1.99264 0)
(-14.2743 1.63057 0)
(-5.12449 -1.61544 0)
(-11.8183 0.37305 0)
(-28.047 5.47034 0)
(8.33386 -1.1053 0)
(10.1679 -0.854515 0)
(4.60295 -1.12382 0)
(7.27409 -1.16987 0)
(-0.239998 -1.33558 0)
(5.07971 -1.21312 0)
(-4.23043 -1.39998 0)
(3.71576 -1.31102 0)
(-6.62279 -1.2235 0)
(2.3556 -1.45295 0)
(-7.42924 -0.90337 0)
(0.782295 -1.76473 0)
(-8.00097 -0.198887 0)
(-1.17121 -1.97223 0)
(-10.5286 1.04041 0)
(-3.03119 -2.39199 0)
(-13.4137 6.7367 0)
(-13.762 3.76218 0)
(6.34636 -2.15062 0)
(12.2123 -1.55964 0)
(4.24754 -1.90178 0)
(9.83587 -1.79368 0)
(1.22587 -2.00665 0)
(7.57617 -1.96033 0)
(-0.958214 -1.85265 0)
(5.52962 -2.27369 0)
(-2.24313 -1.40355 0)
(3.3 -2.72723 0)
(-3.0759 -0.903672 0)
(0.918796 -3.12955 0)
(-4.36634 0.0264402 0)
(-1.05272 -3.1925 0)
(-6.56322 1.04477 0)
(-7.47314 -2.69182 0)
(-4.15983 3.41241 0)
(-13.0553 8.39257 0)
(5.46931 -3.10298 0)
(11.4916 -2.98758 0)
(5.1439 -2.75458 0)
(8.96152 -2.97317 0)
(3.56121 -2.62887 0)
(6.31257 -3.13442 0)
(2.04347 -2.40829 0)
(4.15401 -3.37346 0)
(0.723984 -1.84456 0)
(1.97141 -3.7405 0)
(-0.552718 -1.06179 0)
(-0.144388 -3.9702 0)
(-2.29621 0.330789 0)
(-2.35828 -4.05157 0)
(-3.5568 3.49217 0)
(-6.91592 -6.83499 0)
(-3.04174 5.39038 0)
(-6.41663 11.6576 0)
(8.07875 -4.27676 0)
(8.95221 -4.40952 0)
(6.46893 -3.72865 0)
(6.27222 -4.1923 0)
(4.83988 -3.48323 0)
(3.83063 -4.25591 0)
(3.21287 -3.16399 0)
(2.01949 -4.39828 0)
(1.68392 -2.39717 0)
(0.373498 -4.75608 0)
(0.260747 -1.43515 0)
(-1.1221 -4.86764 0)
(-1.15839 -0.292166 0)
(-2.86432 -4.50449 0)
(-2.07323 2.65652 0)
(-2.90524 -4.49042 0)
(-5.52599 5.37926 0)
(-3.23578 6.38841 0)
(9.76754 -5.05652 0)
(7.64108 -5.84691 0)
(7.58721 -4.36396 0)
(5.23578 -5.78077 0)
(5.57178 -4.00076 0)
(3.06857 -5.79048 0)
(3.80558 -3.60213 0)
(1.46006 -5.89801 0)
(2.39731 -2.77984 0)
(0.26603 -6.06026 0)
(1.05665 -1.72126 0)
(-0.641653 -5.84963 0)
(0.0943757 -0.543452 0)
(-1.66954 -5.13365 0)
(-0.604618 1.43069 0)
(-1.77242 -4.02374 0)
(-4.49314 3.00215 0)
(0.583895 1.23777 0)
(9.80709 -6.34151 0)
(7.75682 -6.81264 0)
(7.44481 -5.4207 0)
(5.52308 -6.75857 0)
(5.18357 -5.11101 0)
(3.64825 -6.6311 0)
(3.44828 -4.72751 0)
(2.16773 -6.49921 0)
(2.07947 -4.05322 0)
(1.21659 -6.28714 0)
(0.80411 -3.33954 0)
(0.563218 -5.83273 0)
(-0.273668 -2.5491 0)
(-0.193174 -4.79241 0)
(-1.34184 -1.34305 0)
(-0.847448 -3.0635 0)
(-2.67436 -0.988994 0)
(-1.02557 2.56994 0)
(9.87694 -7.30742 0)
(7.46598 -8.12393 0)
(7.66583 -6.09248 0)
(5.2601 -7.9885 0)
(5.44475 -5.70345 0)
(3.44483 -7.85355 0)
(3.79314 -5.31793 0)
(2.0074 -7.6126 0)
(2.52589 -4.74344 0)
(1.07315 -7.32352 0)
(1.31983 -4.09666 0)
(0.346528 -6.73745 0)
(0.318108 -3.33879 0)
(-0.473259 -5.51647 0)
(-0.721949 -2.00626 0)
(-1.03712 -3.70397 0)
(-1.30182 -0.244455 0)
(-1.57242 0.81491 0)
(9.72435 -8.70777 0)
(7.5957 -9.00783 0)
(7.34242 -7.31483 0)
(5.50558 -8.78242 0)
(5.27708 -7.08605 0)
(3.95267 -8.42373 0)
(3.75053 -6.74434 0)
(2.70431 -7.94234 0)
(2.47478 -6.30619 0)
(1.8267 -7.38646 0)
(1.28181 -5.78521 0)
(1.06112 -6.4541 0)
(0.386694 -5.09191 0)
(0.272272 -5.02772 0)
(-0.379205 -3.98722 0)
(-0.214679 -3.07325 0)
(-0.648175 -2.5672 0)
(-0.037265 -0.730884 0)
(9.6653 -9.82013 0)
(7.8874 -10.336 0)
(7.56435 -8.45789 0)
(5.7447 -10.1561 0)
(5.47585 -8.28828 0)
(3.94914 -9.81943 0)
(3.80966 -7.87005 0)
(2.58146 -9.26934 0)
(2.44453 -7.38737 0)
(1.66713 -8.64829 0)
(1.29304 -6.77308 0)
(0.848088 -7.62063 0)
(0.590274 -5.97519 0)
(0.14906 -6.17566 0)
(-0.0657134 -4.95125 0)
(-0.140425 -4.3559 0)
(-0.0895058 -3.50236 0)
(0.0856885 -2.29312 0)
(9.70372 -11.62 0)
(8.19467 -11.5218 0)
(7.40119 -10.3163 0)
(5.97155 -11.1649 0)
(5.25535 -10.0795 0)
(4.14552 -10.5793 0)
(3.60717 -9.49522 0)
(2.80454 -9.86113 0)
(2.31728 -8.90914 0)
(1.87123 -9.08513 0)
(1.28155 -8.30999 0)
(1.12424 -8.04646 0)
(0.723112 -7.40944 0)
(0.488241 -6.87615 0)
(0.346201 -6.23177 0)
(0.390208 -5.4274 0)
(0.579276 -4.77715 0)
(0.874124 -3.94098 0)
(9.33231 -13.1082 0)
(8.3973 -12.9024 0)
(7.26494 -11.82 0)
(5.98665 -12.4666 0)
(5.08395 -11.5277 0)
(4.20128 -11.9485 0)
(3.61606 -10.9894 0)
(3.02043 -11.2644 0)
(2.54021 -10.3283 0)
(2.15489 -10.3927 0)
(1.74573 -9.62952 0)
(1.51466 -9.33218 0)
(1.30514 -8.78588 0)
(1.06172 -8.21672 0)
(1.0323 -7.62828 0)
(1.09911 -6.96918 0)
(1.22984 -6.36537 0)
(1.56699 -5.7929 0)
(9.66003 -15.2092 0)
(8.8091 -14.3177 0)
(7.58841 -13.6537 0)
(6.3834 -13.7522 0)
(5.42069 -13.2988 0)
(4.59461 -13.2142 0)
(3.8969 -12.7131 0)
(3.29626 -12.5078 0)
(2.78645 -11.9378 0)
(2.37634 -11.562 0)
(2.02859 -11.0323 0)
(1.84167 -10.554 0)
(1.70306 -10.0851 0)
(1.61363 -9.54565 0)
(1.61821 -8.98592 0)
(1.72365 -8.48057 0)
(1.885 -7.94811 0)
(2.1884 -7.499 0)
(9.24236 -16.9954 0)
(8.34375 -15.7754 0)
(7.19071 -15.2647 0)
(6.11538 -15.188 0)
(5.25453 -14.8056 0)
(4.54291 -14.5546 0)
(3.94785 -14.1221 0)
(3.49561 -13.7988 0)
(3.08999 -13.3507 0)
(2.81952 -12.9485 0)
(2.58568 -12.4695 0)
(2.45977 -12.0114 0)
(2.43328 -11.5522 0)
(2.4556 -11.0813 0)
(2.49238 -10.6046 0)
(2.61593 -10.151 0)
(2.74737 -9.69638 0)
(3.02952 -9.29598 0)
(9.3542 -18.4978 0)
(8.3906 -16.9993 0)
(7.23167 -16.693 0)
(6.23693 -16.6364 0)
(5.44212 -16.3738 0)
(4.83105 -16.0789 0)
(4.31844 -15.6532 0)
(3.93919 -15.2619 0)
(3.63675 -14.8223 0)
(3.45518 -14.386 0)
(3.27932 -13.9343 0)
(3.19349 -13.453 0)
(3.13712 -12.9683 0)
(3.17853 -12.5118 0)
(3.24892 -12.0381 0)
(3.36423 -11.5923 0)
(3.47405 -11.1642 0)
(3.74807 -10.7925 0)
(9.4181 -19.4926 0)
(8.43483 -17.9387 0)
(7.38135 -17.74 0)
(6.53216 -17.6296 0)
(5.82557 -17.3518 0)
(5.27783 -17.0126 0)
(4.81899 -16.6197 0)
(4.51225 -16.2086 0)
(4.27459 -15.7773 0)
(4.13604 -15.3451 0)
(4.02513 -14.8957 0)
(4.00856 -14.4522 0)
(3.97082 -14.0279 0)
(4.03664 -13.6101 0)
(4.11286 -13.2237 0)
(4.22244 -12.8596 0)
(4.3153 -12.4916 0)
(4.58439 -12.1832 0)
(9.35038 -19.7201 0)
(8.50848 -17.973 0)
(7.67296 -17.8654 0)
(6.94295 -17.8312 0)
(6.30608 -17.628 0)
(5.80918 -17.3674 0)
(5.40105 -17.066 0)
(5.13336 -16.7276 0)
(4.92179 -16.3351 0)
(4.83295 -15.893 0)
(4.77299 -15.4256 0)
(4.79139 -14.9707 0)
(4.83353 -14.5443 0)
(4.94806 -14.1523 0)
(5.04394 -13.7959 0)
(5.1946 -13.4542 0)
(5.25052 -13.0923 0)
(5.42822 -12.7827 0)
(9.04259 -19.201 0)
(8.48896 -17.7161 0)
(7.94137 -17.514 0)
(7.42042 -17.3819 0)
(6.90273 -17.1402 0)
(6.46235 -16.8474 0)
(6.06967 -16.5419 0)
(5.79057 -16.2163 0)
(5.5784 -15.8671 0)
(5.48666 -15.4927 0)
(5.45435 -15.1029 0)
(5.52687 -14.7151 0)
(5.59506 -14.3474 0)
(5.71571 -14.0109 0)
(5.84444 -13.689 0)
(6.02714 -13.3929 0)
(6.10215 -13.0777 0)
(6.25355 -12.779 0)
(9.37801 -18.0793 0)
(8.71175 -16.6959 0)
(8.21929 -16.4675 0)
(7.75471 -16.28 0)
(7.28743 -16.0054 0)
(6.88535 -15.7163 0)
(6.54287 -15.4492 0)
(6.31494 -15.1917 0)
(6.14565 -14.9247 0)
(6.08794 -14.6297 0)
(6.06683 -14.2915 0)
(6.12575 -13.9424 0)
(6.18635 -13.5925 0)
(6.3097 -13.2525 0)
(6.42442 -12.9356 0)
(6.5996 -12.6599 0)
(6.73757 -12.3881 0)
(6.91627 -12.1283 0)
(9.49068 -16.3606 0)
(9.00625 -15.1926 0)
(8.46602 -15.0302 0)
(7.99841 -14.8391 0)
(7.61052 -14.5491 0)
(7.32002 -14.2612 0)
(7.07267 -14.0209 0)
(6.89421 -13.8108 0)
(6.73869 -13.5798 0)
(6.65444 -13.3199 0)
(6.59523 -13.0321 0)
(6.61117 -12.7153 0)
(6.64806 -12.4124 0)
(6.74247 -12.1228 0)
(6.84656 -11.8557 0)
(7.03079 -11.6198 0)
(7.1968 -11.4083 0)
(7.42536 -11.2114 0)
(9.4886 -14.3281 0)
(9.04562 -13.3267 0)
(8.60781 -13.2069 0)
(8.2142 -13.101 0)
(7.89647 -12.8981 0)
(7.66348 -12.6604 0)
(7.45326 -12.4412 0)
(7.29627 -12.2202 0)
(7.16529 -12.0167 0)
(7.09863 -11.784 0)
(7.07264 -11.5509 0)
(7.12344 -11.2803 0)
(7.19703 -11.0271 0)
(7.31932 -10.7851 0)
(7.4468 -10.5312 0)
(7.59761 -10.3438 0)
(7.71961 -10.1607 0)
(7.92707 -9.98511 0)
(9.51607 -12.2977 0)
(9.05328 -11.5589 0)
(8.70271 -11.4789 0)
(8.39751 -11.3677 0)
(8.14763 -11.1711 0)
(7.95165 -10.9401 0)
(7.79006 -10.7246 0)
(7.67566 -10.549 0)
(7.5956 -10.3768 0)
(7.55628 -10.2044 0)
(7.55303 -10.0213 0)
(7.60745 -9.81946 0)
(7.66169 -9.6042 0)
(7.78758 -9.39386 0)
(7.89137 -9.16895 0)
(7.99893 -8.98967 0)
(8.14455 -8.81468 0)
(8.32318 -8.62321 0)
(9.67956 -10.181 0)
(9.16833 -9.59364 0)
(8.82505 -9.63599 0)
(8.57155 -9.61044 0)
(8.39559 -9.46811 0)
(8.2858 -9.26421 0)
(8.1839 -9.08552 0)
(8.091 -8.92057 0)
(7.99712 -8.77502 0)
(7.92428 -8.63448 0)
(7.88172 -8.46939 0)
(7.8948 -8.30289 0)
(7.93437 -8.13041 0)
(8.03445 -7.93874 0)
(8.15705 -7.77944 0)
(8.27494 -7.61862 0)
(8.46245 -7.45782 0)
(8.68674 -7.29149 0)
(9.29693 -8.40447 0)
(9.13424 -7.91857 0)
(8.97191 -7.97946 0)
(8.73834 -7.9893 0)
(8.51123 -7.88608 0)
(8.34533 -7.69537 0)
(8.23356 -7.49531 0)
(8.16869 -7.31346 0)
(8.12879 -7.16564 0)
(8.11198 -7.03793 0)
(8.11138 -6.92318 0)
(8.13924 -6.80928 0)
(8.16225 -6.70118 0)
(8.2361 -6.56847 0)
(8.30646 -6.45337 0)
(8.40326 -6.32511 0)
(8.56484 -6.17157 0)
(8.75054 -6.0508 0)
(9.40581 -6.61713 0)
(9.33381 -6.33266 0)
(9.3131 -6.37034 0)
(9.1174 -6.3548 0)
(8.82249 -6.25998 0)
(8.5574 -6.10706 0)
(8.36826 -5.97878 0)
(8.28957 -5.85699 0)
(8.27335 -5.75903 0)
(8.29211 -5.66265 0)
(8.32622 -5.55102 0)
(8.37117 -5.43799 0)
(8.37693 -5.34219 0)
(8.41335 -5.20878 0)
(8.44425 -5.12497 0)
(8.50004 -5.0048 0)
(8.5779 -4.90335 0)
(8.68731 -4.81871 0)
(9.40381 -5.04365 0)
(9.46364 -5.02333 0)
(9.537 -5.00036 0)
(9.3859 -4.9307 0)
(9.10398 -4.80448 0)
(8.83509 -4.66417 0)
(8.61084 -4.57214 0)
(8.42477 -4.49401 0)
(8.27687 -4.41826 0)
(8.12308 -4.33825 0)
(7.98886 -4.24255 0)
(7.85233 -4.14129 0)
(7.73274 -4.05203 0)
(7.62304 -3.94908 0)
(7.55453 -3.86185 0)
(7.50298 -3.77696 0)
(7.47036 -3.69407 0)
(7.46186 -3.61223 0)
(9.5763 -3.54683 0)
(9.69185 -3.70202 0)
(9.64616 -3.6696 0)
(9.23392 -3.56091 0)
(8.64218 -3.42468 0)
(8.10995 -3.2861 0)
(7.59661 -3.1939 0)
(7.1164 -3.11741 0)
(6.67476 -3.05831 0)
(6.26078 -2.97356 0)
(5.89308 -2.88455 0)
(5.57185 -2.79459 0)
(5.31402 -2.72452 0)
(5.08471 -2.65216 0)
(4.92739 -2.57149 0)
(4.74429 -2.52791 0)
(4.60509 -2.46639 0)
(4.4793 -2.39756 0)
(9.48654 -2.46473 0)
(9.15843 -2.68517 0)
(8.33026 -2.50389 0)
(7.13986 -2.2656 0)
(5.99422 -2.05748 0)
(5.06951 -1.89542 0)
(4.25443 -1.79134 0)
(3.57523 -1.72346 0)
(2.99808 -1.67665 0)
(2.5075 -1.62364 0)
(2.11133 -1.57394 0)
(1.80835 -1.52111 0)
(1.56948 -1.47555 0)
(1.38646 -1.42467 0)
(1.25395 -1.40134 0)
(1.14425 -1.37297 0)
(1.05796 -1.34979 0)
(1.01163 -1.3154 0)
(8.10094 -0.99574 0)
(5.31775 -0.962635 0)
(3.10391 -0.711813 0)
(1.4978 -0.577562 0)
(0.493495 -0.528151 0)
(-0.156062 -0.516209 0)
(-0.641597 -0.51475 0)
(-1.01175 -0.513742 0)
(-1.29628 -0.509097 0)
(-1.53818 -0.500037 0)
(-1.72238 -0.483418 0)
(-1.83758 -0.468268 0)
(-1.90909 -0.453862 0)
(-1.93637 -0.442958 0)
(-1.92037 -0.432775 0)
(-1.88628 -0.420336 0)
(-1.82546 -0.419226 0)
(-1.78661 -0.386054 0)
(0.124407 1.84142 0)
(0.290368 1.94449 0)
(0.374201 1.84488 0)
(0.516278 1.73046 0)
(0.71508 1.67664 0)
(1.02129 1.58606 0)
(1.40201 1.49008 1.1084e-17)
(1.86129 1.38791 -1.10827e-17)
(2.42881 1.30313 0)
(3.09798 1.2265 -1.10275e-17)
(3.8025 1.19503 0)
(4.52656 1.18742 0)
(5.24469 1.17264 0)
(5.97121 1.18234 1.07551e-17)
(6.70133 1.19038 0)
(7.40924 1.17367 0)
(8.12075 1.18598 -1.05265e-17)
(8.82507 1.17394 0)
(9.51132 1.17091 0)
(10.1975 1.16372 0)
(10.8557 1.15268 1.02508e-17)
(11.5079 1.13713 0)
(12.1611 1.1242 1.01212e-17)
(12.799 1.11749 0)
(13.42 1.11579 0)
(14.0238 1.12021 9.92856e-18)
(14.5803 1.13485 0)
(15.1124 1.15727 -9.79546e-18)
(15.6093 1.17774 0)
(16.0255 1.20559 9.66645e-18)
(16.3692 1.22172 0)
(16.6395 1.25273 0)
(16.8221 1.28943 0)
(16.9359 1.33745 0)
(16.9511 1.39178 0)
(16.8848 1.4552 -9.28504e-18)
(16.6902 1.61294 0)
(16.3411 1.56942 1.83024e-17)
(16.0715 1.01818 0)
(15.9956 0.407342 -1.83305e-17)
(15.9758 0.214939 0)
(16.1111 0.406685 0)
(16.4383 0.553456 1.77607e-17)
(16.7189 0.622101 0)
(16.8776 0.625086 1.7509e-17)
(16.9848 0.538411 -1.73759e-17)
(17.1115 0.407464 0)
(17.4804 0.204457 -1.70621e-17)
(18.1207 0.0390339 -1.69132e-17)
(18.994 0.00199694 0)
(19.8759 0.0230445 0)
(20.5974 -0.105843 0)
(21.1881 0.0410989 0)
(21.4682 0.580017 0)
(21.1456 1.0341 1.62384e-17)
(20.274 1.41886 0)
(19.0051 1.70242 -1.60478e-17)
(18.0145 1.17526 0)
(17.9013 -0.236494 0)
(18.0939 -1.54901 1.56728e-17)
(18.3022 -2.02574 0)
(18.3046 -1.41213 -1.58313e-17)
(17.6084 -0.13421 0)
(15.9113 0.788822 0)
(13.8707 1.02602 0)
(12.03 0.953758 1.50553e-17)
(10.3179 0.787476 0)
(8.80021 0.603449 0)
(7.48166 0.433915 1.45082e-17)
(6.33076 0.247462 0)
(5.34646 0.110336 1.42199e-17)
(4.50516 -0.0173779 0)
(3.76244 -0.13946 0)
(3.10807 -0.242155 0)
(2.55121 -0.345876 -1.37019e-17)
(2.03371 -0.427442 0)
(1.55855 -0.49348 0)
(1.11003 -0.55873 -1.33293e-17)
(0.688654 -0.619333 -1.32059e-17)
(0.291765 -0.674772 0)
(-0.0850977 -0.721367 -1.29607e-17)
(-0.4506 -0.751659 0)
(-0.816887 -0.773954 -2.54435e-17)
(-1.18223 -0.809084 0)
(-1.52015 -0.840574 -2.49613e-17)
(-1.85175 -0.863045 0)
(-2.17985 -0.87059 2.44906e-17)
(-2.5038 -0.890652 0)
(-2.80754 -0.911166 0)
(-3.10614 -0.910241 0)
(-3.38231 -0.910974 -2.35662e-17)
(-3.62483 -0.930769 0)
(-3.86597 -0.940169 2.31196e-17)
(-4.12568 -0.913275 0)
(-4.31616 -0.929763 -2.26966e-17)
(-4.45664 -0.943973 -2.24881e-17)
(-4.6482 -0.907976 -2.23094e-17)
(-4.76085 -0.939037 0)
(-4.86904 -0.915904 0)
(-4.99297 -0.921924 0)
(-5.04311 -0.919899 0)
(-5.12614 -0.918809 0)
(-5.22736 -0.908956 0)
(-5.29452 -0.905264 0)
(-5.37027 -0.903613 0)
(-5.42855 -0.907527 2.10044e-17)
(-5.47478 -0.901621 2.08934e-17)
(-5.49765 -0.88514 0)
(-5.50823 -0.871312 0)
(-5.54617 -0.850802 0)
(-5.55437 -0.837584 2.0607e-17)
(-5.48152 -0.807367 0)
(-5.39278 -0.800522 0)
(-5.29979 -0.775671 0)
(-5.20438 -0.774831 0)
(-5.17891 -0.746526 -2.03012e-17)
(-5.13723 -0.711625 0)
(-5.06233 -0.671936 0)
(-4.93629 -0.636121 2.00809e-17)
(-4.65459 -0.601474 -1.99703e-17)
(-4.43331 -0.610317 0)
(-4.33762 -0.633117 -1.99945e-17)
(-4.19059 -0.611093 0)
(-3.91846 -0.458768 1.99892e-17)
(-3.75588 -0.277622 0)
(-4.10595 -0.094852 0)
(-4.59819 0.139235 0)
(-5.0392 0.163095 0)
(-5.50259 0.154871 0)
(-5.10538 0.00778031 -3.86927e-17)
(-5.24056 0.0544658 -3.84121e-17)
(-3.95441 -0.136436 0)
(-4.29578 0.097206 0)
(-2.36327 -0.220291 0)
(-2.24431 0.141064 3.74128e-17)
(-0.617722 -0.236809 0)
(0.738701 -0.0513998 0)
(1.54804 0.175004 0)
(2.4342 0.00366831 3.61898e-17)
(3.49695 0.295839 -3.62487e-17)
(3.4966 0.414157 0)
(4.24913 0.342104 0)
(4.56718 0.390564 -3.52883e-17)
(5.13522 0.343001 -3.50063e-17)
(5.67551 0.367124 0)
(6.41144 0.385668 0)
(7.05262 0.405573 3.40903e-17)
(7.5191 0.475839 -3.37778e-17)
(7.61177 0.557899 0)
(7.56535 0.598318 0)
(7.32126 0.594079 -3.29409e-17)
(6.96432 0.6632 0)
(6.43165 0.752 0)
(5.69711 0.894591 -3.20245e-17)
(4.96495 0.875137 0)
(4.20577 0.808361 -3.13079e-17)
(3.68564 0.694686 0)
(3.1168 0.623478 0)
(2.94829 0.565223 0)
(2.81285 0.535122 2.99179e-17)
(3.18853 0.449426 0)
(3.61322 0.41726 0)
(4.2224 0.343583 0)
(4.53003 0.406626 0)
(4.20729 0.608625 0)
(4.04483 0.629596 0)
(3.76144 0.611287 2.80985e-17)
(2.41779 0.815798 2.76619e-17)
(1.60429 0.380256 0)
(4.76063 -0.211417 0)
(6.67039 0.1235 0)
(6.54201 0.156135 -2.70193e-17)
(6.17137 0.133616 0)
(5.27241 0.201021 5.28152e-17)
(5.93851 -0.229569 -5.24936e-17)
(7.26985 -0.352061 -5.29349e-17)
(8.28064 -0.408644 5.30512e-17)
(8.66205 -0.369653 -5.31754e-17)
(8.17186 -0.330001 5.30589e-17)
(7.01033 -0.262362 0)
(0.136544 5.13033 0)
(0.511933 5.27231 0)
(0.829378 5.3699 -2.17094e-17)
(1.0433 5.23513 0)
(1.27714 4.99256 2.15073e-17)
(1.5604 4.74196 2.19268e-17)
(1.90572 4.47015 1.12155e-17)
(2.35878 4.14771 1.14043e-17)
(2.9147 3.86595 0)
(3.57946 3.63577 1.15144e-17)
(4.28401 3.49577 0)
(4.99904 3.44501 0)
(5.72631 3.42079 -2.27062e-17)
(6.4535 3.39576 -1.12723e-17)
(7.16905 3.41381 2.23517e-17)
(7.8812 3.39752 2.21654e-17)
(8.64274 3.37501 1.09876e-17)
(9.37166 3.36679 0)
(10.0813 3.31872 0)
(10.8016 3.28915 0)
(11.5072 3.285 1.0623e-17)
(12.1913 3.19762 0)
(12.8935 3.14645 -3.13286e-17)
(13.6055 3.12727 0)
(14.284 3.03703 0)
(14.9671 3.03609 -1.02079e-17)
(15.6008 3.05058 0)
(16.2139 3.06595 1.00457e-17)
(16.8286 3.12054 1.99387e-17)
(17.3327 3.14278 -9.89427e-18)
(17.7899 3.21088 0)
(18.2127 3.26812 0)
(18.4806 3.35293 0)
(18.7842 3.41288 1.91733e-17)
(18.9734 3.4354 1.90101e-17)
(19.0417 3.59739 9.42161e-18)
(19.2185 3.64482 0)
(19.2007 3.69755 -1.8447e-17)
(19.1547 3.7002 0)
(18.8053 3.55708 1.81473e-17)
(18.1419 3.3393 0)
(17.3616 2.45305 0)
(16.7123 1.58144 -1.71235e-17)
(16.587 1.56239 0)
(16.5294 1.73476 -5.13058e-17)
(16.5609 1.67619 1.69834e-17)
(16.6933 1.28061 0)
(17.1774 0.510535 1.67058e-17)
(17.8855 -0.325396 1.65878e-17)
(19.1395 -1.02052 0)
(20.4512 -0.753004 0)
(21.3645 -0.538072 0)
(21.9282 -0.197126 0)
(22.1472 0.545867 0)
(22.1684 1.24575 -1.60226e-17)
(21.979 1.56997 -3.21753e-17)
(21.367 1.36424 1.58038e-17)
(21.0301 0.522546 0)
(20.3054 -0.238571 -3.14222e-17)
(17.7086 0.384599 1.57283e-17)
(14.1725 1.48921 0)
(11.2568 2.08496 1.50928e-17)
(9.10497 2.41641 0)
(7.37131 2.43055 0)
(5.9562 2.19988 2.90837e-17)
(4.70768 1.74652 -1.44156e-17)
(3.64596 1.26579 2.86101e-17)
(2.70624 0.773958 -2.84274e-17)
(1.89335 0.277273 -1.41081e-17)
(1.27081 -0.138712 0)
(0.704721 -0.521627 -1.39206e-17)
(0.218652 -0.884198 0)
(-0.170773 -1.19493 0)
(-0.526243 -1.46198 0)
(-0.818508 -1.70552 -1.34927e-17)
(-1.08369 -1.90936 0)
(-1.35295 -2.0952 -2.64811e-17)
(-1.59066 -2.25955 3.93455e-17)
(-1.82324 -2.41138 1.2976e-17)
(-2.03552 -2.54464 0)
(-2.2324 -2.6527 1.27065e-17)
(-2.44781 -2.72859 0)
(-2.68638 -2.81386 2.48767e-17)
(-2.89341 -2.92622 0)
(-3.10138 -2.96503 2.43381e-17)
(-3.2922 -3.00089 -4.81711e-17)
(-3.48931 -3.04172 -2.3785e-17)
(-3.66591 -3.11696 0)
(-3.86951 -3.15762 0)
(-4.03839 -3.16399 0)
(-4.21079 -3.18718 2.27469e-17)
(-4.36721 -3.20127 0)
(-4.44169 -3.20187 -2.21629e-17)
(-4.6195 -3.18146 0)
(-4.67902 -3.22253 6.51767e-17)
(-4.74553 -3.21725 2.13873e-17)
(-4.81539 -3.15692 2.11433e-17)
(-4.82384 -3.20096 0)
(-4.85211 -3.13935 0)
(-4.86666 -3.12023 0)
(-4.83721 -3.08008 0)
(-4.7996 -3.03666 0)
(-4.81759 -2.96158 3.98425e-17)
(-4.78764 -2.90686 3.95546e-17)
(-4.7771 -2.85701 0)
(-4.73039 -2.84371 -1.94806e-17)
(-4.68375 -2.81909 -1.93654e-17)
(-4.62455 -2.77341 0)
(-4.57223 -2.72809 -3.85242e-17)
(-4.57906 -2.68919 0)
(-4.54665 -2.68777 1.92663e-17)
(-4.4657 -2.70569 0)
(-4.38913 -2.66983 0)
(-4.30383 -2.57551 -3.85371e-17)
(-4.23406 -2.43159 0)
(-4.18889 -2.29664 1.90274e-17)
(-4.1199 -2.09173 0)
(-4.15681 -2.03299 0)
(-4.23294 -2.09747 1.88938e-17)
(-4.13552 -2.00782 1.8712e-17)
(-3.8769 -1.56517 0)
(-3.98681 -1.26223 -1.93396e-17)
(-4.63129 -1.25261 0)
(-5.1799 -1.08852 1.99859e-17)
(-5.48618 -0.642186 3.97436e-17)
(-5.98744 -0.200447 0)
(-6.41852 0.0370929 0)
(-6.52313 -0.00213872 0)
(-6.54553 -0.0748888 0)
(-5.69791 -0.411654 3.81774e-17)
(-5.74818 -0.225386 1.13632e-16)
(-3.7237 -0.521559 0)
(-4.61573 0.0181428 0)
(-0.646736 -0.828772 0)
(-2.78313 -0.0107836 -3.71664e-17)
(2.15371 -0.807176 0)
(0.213439 -0.169209 0)
(3.43584 0.218512 7.34886e-17)
(3.20035 0.104108 3.55095e-17)
(4.95993 0.559108 3.62098e-17)
(4.15256 0.69846 0)
(5.25079 0.479872 0)
(5.25677 0.694714 3.56949e-17)
(6.36528 0.667033 -3.52832e-17)
(7.08544 0.577549 0)
(8.30416 0.528725 0)
(9.03561 0.666061 -3.4192e-17)
(9.9571 0.885953 1.01079e-16)
(10.244 1.28319 0)
(10.6014 1.5351 0)
(10.7868 1.65842 3.23535e-17)
(10.8657 1.8035 0)
(10.3616 1.86606 6.40665e-17)
(9.26312 1.87524 -3.17347e-17)
(8.28032 1.81442 0)
(7.39917 1.84484 3.09401e-17)
(7.06278 1.82196 6.07459e-17)
(6.38363 1.90868 0)
(6.34637 1.63576 0)
(5.80812 1.47486 -2.86148e-17)
(6.02937 1.19696 0)
(5.78105 1.10229 5.54138e-17)
(5.66671 1.16755 0)
(5.04315 1.51488 0)
(4.0939 1.33001 0)
(3.88317 1.21172 0)
(3.30538 1.31058 -2.55885e-17)
(1.78621 1.41355 -2.53886e-17)
(1.14186 -0.459268 0)
(4.8926 -1.94232 0)
(8.23716 -0.647987 0)
(7.91341 0.0342318 2.4243e-17)
(7.33028 -0.128749 0)
(6.32465 -0.504698 -4.74104e-17)
(7.51115 -1.66557 4.86775e-17)
(9.84234 -1.86596 4.83743e-17)
(11.7354 -1.60254 4.83721e-17)
(12.0024 -1.32466 4.86964e-17)
(11.1766 -0.827966 4.76402e-17)
(9.79873 -0.574481 0)
(0.141953 8.16473 0)
(0.557306 8.15242 0)
(1.0185 8.30523 2.17998e-17)
(1.38021 8.29106 2.11507e-17)
(1.691 8.16445 -2.12094e-17)
(2.03075 7.9421 -2.18962e-17)
(2.445 7.5094 -1.75405e-20)
(2.93015 6.94991 0)
(3.48327 6.48121 0)
(4.07402 6.11885 0)
(4.68214 5.91286 0)
(5.2998 5.80575 0)
(5.94214 5.79678 6.92119e-17)
(6.55788 5.74999 0)
(7.24467 5.73835 -2.26922e-17)
(7.90606 5.71056 -2.24767e-17)
(8.5903 5.62467 0)
(9.30745 5.60387 0)
(9.99414 5.53122 0)
(10.7071 5.44436 0)
(11.4254 5.41576 -2.14325e-17)
(12.1553 5.28112 0)
(12.8495 5.13352 2.09918e-17)
(13.6094 5.0889 0)
(14.314 4.93128 0)
(14.9706 4.92071 0)
(15.7375 4.96957 4.05947e-17)
(16.3662 4.94833 0)
(16.9066 5.07126 -1.99665e-17)
(17.5061 5.12306 3.96504e-17)
(18.0429 5.18146 0)
(18.4776 5.37367 0)
(18.7547 5.46762 0)
(19.121 5.45223 -1.92594e-17)
(19.3021 5.58251 -1.91406e-17)
(19.436 5.636 0)
(19.7246 5.52338 0)
(19.7524 5.66472 3.74427e-17)
(19.8759 5.71655 3.71813e-17)
(20.1385 5.58741 -3.69921e-17)
(20.0842 5.64533 0)
(19.7571 5.56065 0)
(19.2937 5.07007 0)
(18.1798 4.22036 0)
(17.3023 3.38373 3.3618e-17)
(17.3186 2.59472 3.33846e-17)
(17.4541 1.69586 -3.37882e-17)
(17.599 0.467536 0)
(18.4033 -1.18069 0)
(19.2753 -2.63277 0)
(19.9691 -2.24437 0)
(20.3789 -1.48987 3.30543e-17)
(20.3095 -0.334161 0)
(20.0869 0.966719 0)
(19.4563 2.04867 3.25043e-17)
(18.4769 2.59651 3.21086e-17)
(17.0069 3.01614 0)
(14.7194 3.56173 -6.2313e-17)
(12.1631 4.22732 3.08424e-17)
(10.038 4.45865 -3.05038e-17)
(8.1683 4.3467 0)
(6.68479 4.07712 0)
(5.36187 3.78798 0)
(4.42443 3.37186 0)
(3.66502 2.77521 -2.99075e-17)
(3.04061 2.11814 -5.97939e-17)
(2.52776 1.38351 -2.98419e-17)
(2.07559 0.665933 2.97513e-17)
(1.69281 0.00164093 0)
(1.36635 -0.665023 -5.91041e-17)
(1.06928 -1.24099 -5.8792e-17)
(0.788781 -1.75033 -5.84858e-17)
(0.565574 -2.23576 5.81103e-17)
(0.333509 -2.61861 0)
(0.114877 -2.99312 8.59276e-17)
(-0.0796244 -3.31026 0)
(-0.301861 -3.58425 -2.82321e-17)
(-0.532006 -3.84532 -2.79368e-17)
(-0.776253 -4.0832 0)
(-0.996608 -4.2982 0)
(-1.21424 -4.46107 -5.43941e-17)
(-1.44869 -4.57627 0)
(-1.73738 -4.68918 -5.33185e-17)
(-1.90181 -4.88685 0)
(-2.19829 -4.9448 5.22973e-17)
(-2.40807 -5.01778 1.03473e-16)
(-2.70333 -5.06746 0)
(-2.87213 -5.18499 0)
(-3.12898 -5.19991 0)
(-3.31776 -5.24585 4.95744e-17)
(-3.51396 -5.26945 0)
(-3.74412 -5.29828 4.85848e-17)
(-3.84705 -5.26754 0)
(-4.07844 -5.23307 0)
(-4.12465 -5.26491 -9.35563e-17)
(-4.24791 -5.22323 0)
(-4.34774 -5.17771 -4.53461e-17)
(-4.32279 -5.21726 0)
(-4.41787 -5.12581 -4.4021e-17)
(-4.33885 -5.09037 0)
(-4.37775 -5.04768 0)
(-4.30399 -4.99498 0)
(-4.26576 -4.89037 -1.23616e-16)
(-4.19299 -4.82571 -4.05317e-17)
(-4.16691 -4.76829 0)
(-4.1381 -4.76568 0)
(-4.11445 -4.70561 0)
(-4.09067 -4.62558 0)
(-4.10107 -4.52688 3.81943e-17)
(-4.13104 -4.43766 -7.60458e-17)
(-4.12772 -4.37389 -3.78169e-17)
(-4.01175 -4.33124 7.5744e-17)
(-3.89515 -4.24799 7.59309e-17)
(-3.83082 -4.12485 3.79359e-17)
(-3.88631 -3.90187 0)
(-4.03083 -3.74496 7.53038e-17)
(-3.98811 -3.55228 0)
(-3.74115 -3.1961 -7.28475e-17)
(-3.90539 -3.01801 -3.7205e-17)
(-4.21166 -3.18848 0)
(-3.98016 -2.79859 7.23699e-17)
(-3.65187 -1.99686 3.68751e-17)
(-4.07395 -1.52498 0)
(-4.87397 -1.16874 4.03135e-17)
(-5.44389 -0.668032 -1.21906e-16)
(-5.69381 -0.268298 0)
(-5.68932 -0.0309079 0)
(-5.3743 -0.174518 0)
(-5.3046 -0.313557 0)
(-4.06695 -0.835751 -7.58641e-17)
(-4.57971 -0.655157 -7.52612e-17)
(-1.80133 -0.837849 0)
(-4.05647 -0.821769 0)
(2.06808 -1.21569 0)
(-2.41325 -0.496315 0)
(5.01627 -1.31603 0)
(0.213931 0.093226 0)
(5.42935 -0.262804 -7.27241e-17)
(4.27926 0.153089 -4.20856e-20)
(7.61088 1.10789 0)
(6.91341 1.8096 0)
(7.70813 1.27569 -7.38065e-17)
(6.74325 1.31699 0)
(7.81665 1.00754 7.26674e-17)
(8.20548 0.876041 7.19959e-17)
(9.87054 0.787362 0)
(10.6125 1.15615 0)
(11.8446 1.46292 -7.02726e-17)
(11.7202 1.78258 -1.37088e-16)
(11.6382 1.8951 0)
(11.7784 2.1247 0)
(12.5382 2.67063 0)
(12.6679 3.35509 -6.40467e-17)
(11.8503 4.06666 6.50806e-17)
(11.0161 4.13091 0)
(9.85801 3.71264 1.31378e-16)
(9.28314 3.15478 6.46713e-17)
(8.1786 2.86494 -1.25354e-16)
(8.24374 2.57052 0)
(7.84069 2.47509 0)
(8.2045 2.27656 -1.12895e-16)
(7.60591 2.38277 -5.50145e-17)
(6.86702 2.53971 0)
(5.70128 2.84201 0)
(4.95507 2.55349 0)
(4.48225 2.43751 0)
(4.50947 2.33526 -9.93424e-17)
(2.79257 2.6034 0)
(2.2388 -0.109261 0)
(2.9451 -3.49293 0)
(8.75126 -1.52839 0)
(9.48531 0.420691 0)
(9.21521 0.1166 0)
(7.70201 -0.452796 -9.96226e-17)
(7.55495 -2.81514 0)
(10.1401 -3.52426 0)
(13.3903 -2.87791 -1.98781e-16)
(13.7398 -2.14247 9.66673e-17)
(12.6996 -1.29755 -8.975e-17)
(11.4331 -1.09937 8.95365e-17)
(0.171742 11.0608 0)
(0.536392 10.9089 -4.65743e-17)
(0.944929 11.063 0)
(1.34301 11.108 -2.1525e-17)
(1.74916 11.0194 0)
(2.20011 10.6568 0)
(2.73681 10.0413 2.29322e-17)
(3.31083 9.35225 0)
(3.80522 8.84731 0)
(4.26743 8.50844 0)
(4.75492 8.32501 0)
(5.26151 8.21499 0)
(5.79492 8.13939 -9.196e-17)
(6.35318 8.04658 -4.54886e-17)
(6.94571 7.93346 4.50155e-17)
(7.59351 7.81827 0)
(8.28025 7.6888 0)
(8.98059 7.61115 0)
(9.72267 7.49392 0)
(10.4907 7.34037 0)
(11.2654 7.19791 -4.23286e-17)
(12.0243 7.05445 -4.18316e-17)
(12.8135 6.88108 4.14957e-17)
(13.6121 6.76993 -4.11961e-17)
(14.4071 6.64577 0)
(15.1278 6.54953 0)
(15.9196 6.55056 -4.01965e-17)
(16.613 6.61221 0)
(17.2328 6.70411 0)
(17.9289 6.74482 -3.93659e-17)
(18.4416 6.93817 -3.90211e-17)
(18.9173 7.1761 -3.87977e-17)
(19.3387 7.21569 0)
(19.6247 7.45848 0)
(19.7484 7.61459 3.79508e-17)
(19.8848 7.44681 0)
(19.7866 7.42069 0)
(19.6814 7.42298 -3.69872e-17)
(19.8888 6.9613 3.68741e-17)
(19.7796 6.91483 -3.63697e-17)
(19.8671 7.28709 0)
(20.2886 7.04928 0)
(20.2274 6.88387 -7.20971e-17)
(19.8778 6.59523 0)
(19.3678 5.69759 -6.95706e-17)
(18.7704 4.59199 -1.01452e-16)
(18.3662 3.27955 1.00422e-16)
(17.8112 1.61982 -6.61115e-17)
(18.1579 -0.776907 0)
(17.2893 -1.38533 0)
(16.5026 -0.370752 -6.48762e-17)
(15.8712 0.542903 -3.22403e-17)
(15.0424 1.59171 0)
(14.21 3.01164 0)
(13.2439 4.24751 -3.18964e-17)
(12.0475 5.15128 -6.30152e-17)
(10.7552 5.78281 0)
(9.2688 6.06033 6.20286e-17)
(7.86552 6.19219 -6.16571e-17)
(6.73563 6.05105 6.16065e-17)
(5.70575 5.5461 0)
(5.00719 4.95415 0)
(4.3494 4.25666 0)
(3.89104 3.48308 0)
(3.41204 2.63066 0)
(3.01803 1.75085 6.1056e-17)
(2.6693 0.861524 0)
(2.33009 -0.0160592 0)
(2.08397 -0.828599 0)
(1.80963 -1.61197 1.19156e-16)
(1.62867 -2.29348 5.90793e-17)
(1.47171 -2.95159 5.86171e-17)
(1.25804 -3.53262 -1.16252e-16)
(1.10918 -4.04117 5.77514e-17)
(0.918306 -4.50137 -5.71652e-17)
(0.756924 -4.89703 0)
(0.599633 -5.25277 5.63113e-17)
(0.385472 -5.57305 0)
(0.187132 -5.86165 0)
(-0.0125828 -6.16534 0)
(-0.234796 -6.3632 1.09139e-16)
(-0.396977 -6.53602 -5.4223e-17)
(-0.803644 -6.69287 -5.39116e-17)
(-0.871554 -6.9334 -1.06672e-16)
(-1.19721 -7.02417 -1.5842e-16)
(-1.43178 -7.1466 -5.23519e-17)
(-1.72693 -7.20811 0)
(-1.89229 -7.38452 -1.03215e-16)
(-2.24187 -7.40617 0)
(-2.37183 -7.49696 -1.52012e-16)
(-2.66804 -7.49228 0)
(-2.8248 -7.54664 -1.4957e-16)
(-3.04242 -7.58249 0)
(-3.20139 -7.4838 0)
(-3.38458 -7.57419 -4.88504e-17)
(-3.47902 -7.5353 0)
(-3.63255 -7.42272 4.76911e-17)
(-3.61697 -7.53166 9.50596e-17)
(-3.7641 -7.33367 4.68194e-17)
(-3.68766 -7.35093 9.29333e-17)
(-3.7285 -7.2329 -9.18364e-17)
(-3.65201 -7.14719 -9.07042e-17)
(-3.618 -6.98972 1.78147e-16)
(-3.515 -6.86322 0)
(-3.4625 -6.74056 0)
(-3.38686 -6.66253 8.51608e-17)
(-3.38142 -6.52482 -8.39292e-17)
(-3.38934 -6.36907 0)
(-3.44072 -6.2327 0)
(-3.42951 -6.12419 8.02275e-17)
(-3.28397 -6.13396 0)
(-3.08882 -6.19035 1.93221e-19)
(-3.11152 -6.05208 1.7879e-19)
(-3.44153 -5.68027 7.58269e-17)
(-3.64273 -5.31177 0)
(-3.68371 -5.11278 -7.60537e-17)
(-3.63119 -5.01798 0)
(-3.38752 -4.63519 7.27486e-17)
(-3.19643 -4.14635 0)
(-3.71312 -4.06546 0)
(-4.3559 -3.82221 -7.46182e-17)
(-4.13393 -2.91028 -7.25584e-17)
(-3.93854 -2.01389 0)
(-4.19263 -1.42382 -7.97457e-17)
(-4.38389 -1.04891 1.61683e-16)
(-4.25058 -0.828081 0)
(-4.06777 -0.704362 0)
(-3.43689 -0.882915 0)
(-3.41458 -0.900637 0)
(-1.91869 -1.31866 7.40897e-17)
(-2.84987 -1.24513 -1.47847e-16)
(0.669386 -0.890708 0)
(-2.24394 -1.60552 0)
(3.77451 -1.65247 0)
(-1.15788 -0.706797 0)
(5.93001 -1.69393 0)
(0.752659 0.567326 0)
(6.54917 -1.04624 0)
(4.04121 -0.0714789 7.12036e-17)
(8.05171 0.304149 0)
(8.74105 1.94192 0)
(10.2955 1.93997 6.98274e-17)
(9.46936 2.06654 0)
(9.9935 1.36711 0)
(9.95993 0.920222 -7.1332e-17)
(11.3652 0.703619 0)
(11.8003 1.01122 0)