/*--------------------------------*- C++ -*----------------------------------*\
| =========                 |                                                 |
| \\      /  F ield         | OpenFOAM: The Open Source CFD Toolbox           |
|  \\    /   O peration     | Version:  dev                                   |
|   \\  /    A nd           | Web:      http://www.openfoam.org               |
|    \\/     M anipulation  |                                                 |
\*---------------------------------------------------------------------------*/
FoamFile
{
    version     2.0;
    format      ascii;
    class       volVectorField;
    object      UMean;
    location    "9.123";
}
// * * * * * * * * * * * * * * * * * * * * * * * * * * * * * * * * * * * * * //

dimensions      [0 1 -1 0 0 0 0];

internalField   nonuniform List<vector> 
12225
(
(7.00367 0.430267 0)
(4.43884 0.192539 0)
(2.55686 0.0311472 0)
(2.51096 -0.0166576 0)
(1.38451 0.019356 0)
(2.26751 -0.0342795 0)
(0.989505 0.0489773 0)
(2.18287 -0.059178 0)
(0.797438 0.0716567 0)
(2.29216 -0.0978587 0)
(0.688628 0.0993804 0)
(2.74405 -0.138639 0)
(0.947848 0.102611 0)
(3.39715 -0.172119 0)
(3.52963 -0.168415 0)
(4.69432 0.0501564 0)
(14.838 -2.43328 0)
(7.116 5.13126 0)
(9.54627 0.981599 0)
(9.54341 0.860852 0)
(6.68692 0.466274 0)
(7.59062 0.214548 0)
(4.09069 0.140297 0)
(6.84356 0.0108147 0)
(2.66508 0.132621 0)
(6.68995 -0.0903338 0)
(1.82248 0.141823 0)
(7.04012 -0.165068 0)
(1.26037 0.123899 0)
(8.12283 -0.414376 0)
(1.38504 0.252509 0)
(9.95515 -1.44189 0)
(3.43494 0.272699 0)
(12.386 -4.06638 0)
(10.4241 -1.92625 0)
(7.77323 0.482848 0)
(9.1185 0.763495 0)
(12.1669 0.951347 0)
(8.32959 0.623922 0)
(11.8322 0.443354 0)
(6.22608 0.310254 0)
(11.4133 0.206487 0)
(4.58248 0.221429 0)
(11.3155 -0.0195082 0)
(3.87361 0.192872 0)
(11.3774 -0.277868 0)
(4.34978 0.187232 0)
(11.2542 -0.723264 0)
(5.72773 0.176285 0)
(11.0914 -1.49172 0)
(7.21411 0.0535125 0)
(12.1174 -3.86415 0)
(6.93342 0.350519 0)
(9.35346 -2.39251 0)
(7.21891 0.524997 0)
(13.993 0.960933 0)
(7.92976 0.609413 0)
(14.2954 0.553783 0)
(7.47433 0.420844 0)
(14.1166 0.271103 0)
(7.17564 0.396603 0)
(13.7388 -0.145054 0)
(7.25655 0.459489 0)
(13.2701 -0.698681 0)
(7.65887 0.576683 0)
(12.875 -1.42265 0)
(8.2657 0.699606 0)
(12.6519 -2.31309 0)
(9.02114 0.0432902 0)
(11.8893 -3.63628 0)
(8.68529 -1.43108 0)
(8.36608 0.680617 0)
(6.42417 0.569948 0)
(14.0109 0.565832 0)
(8.47387 0.674351 0)
(13.9579 0.284465 0)
(9.16989 0.63658 0)
(13.6433 -0.00255011 0)
(9.51777 0.657715 0)
(13.2136 -0.388627 0)
(9.59273 0.734235 0)
(12.8124 -0.871192 0)
(9.44606 0.876801 0)
(12.5815 -1.52118 0)
(9.14978 1.09 0)
(12.5689 -2.48929 0)
(8.82681 1.13269 0)
(11.6147 -5.02686 0)
(8.54366 1.26731 0)
(8.72268 0.123824 0)
(7.957 0.61689 0)
(11.8025 0.152291 0)
(9.50597 0.654699 0)
(11.7388 0.0501378 0)
(10.0892 0.693898 0)
(11.5997 -0.165724 0)
(10.3216 0.725817 0)
(11.4754 -0.457556 0)
(10.3016 0.783078 0)
(11.3884 -0.853575 0)
(10.034 0.83231 0)
(11.3538 -1.40011 0)
(9.49401 0.801999 0)
(11.4159 -2.13842 0)
(8.80336 0.727589 0)
(10.9957 -3.92042 0)
(7.73765 1.33634 0)
(9.48929 -0.220282 0)
(9.34514 0.812641 0)
(10.4377 -0.266105 0)
(10.1419 0.930395 0)
(10.5528 -0.30465 0)
(10.3999 1.01992 0)
(10.5808 -0.502999 0)
(10.5214 1.07543 0)
(10.6242 -0.781255 0)
(10.565 1.15346 0)
(10.6706 -1.15784 0)
(10.5174 1.23537 0)
(10.6987 -1.63582 0)
(10.3696 1.26167 0)
(10.6866 -2.32711 0)
(10.0571 1.27206 0)
(10.3752 -3.95326 0)
(8.30378 2.01815 0)
(9.69664 -0.954747 0)
(9.85021 0.701177 0)
(10.1548 -0.326214 0)
(10.4077 0.855015 0)
(10.3888 -0.350106 0)
(10.5815 0.906861 0)
(10.4697 -0.49422 0)
(10.7029 0.893006 0)
(10.5512 -0.686519 0)
(10.8067 0.872842 0)
(10.6433 -0.935505 0)
(10.8825 0.824202 0)
(10.7349 -1.23296 0)
(10.9101 0.672016 0)
(10.7535 -1.6726 0)
(10.726 0.520349 0)
(10.4928 -2.4735 0)
(8.89751 0.979427 0)
(9.96386 -0.485782 0)
(10.0868 0.802138 0)
(10.0187 -0.58361 0)
(10.5366 1.0213 0)
(10.3099 -0.604655 0)
(10.6763 1.0749 0)
(10.4393 -0.725129 0)
(10.7787 1.04812 0)
(10.5702 -0.890173 0)
(10.8583 1.00359 0)
(10.7109 -1.11788 0)
(10.8999 0.921083 0)
(10.8314 -1.39499 0)
(10.8752 0.734775 0)
(10.8219 -1.76068 0)
(10.6036 0.50548 0)
(10.5207 -2.06824 0)
(9.35237 0.584746 0)
(10.0232 -0.392666 0)
(10.14 0.648623 0)
(10.0414 -0.512182 0)
(10.5111 0.878054 0)
(10.3327 -0.456769 0)
(10.6221 0.869252 0)
(10.4813 -0.493911 0)
(10.6985 0.778295 0)
(10.6284 -0.572411 0)
(10.7347 0.657943 0)
(10.7631 -0.6956 0)
(10.7184 0.495599 0)
(10.8399 -0.845129 0)
(10.6187 0.264104 0)
(10.7652 -1.03204 0)
(10.2831 0.0700865 0)
(10.4794 -1.05253 0)
(9.62463 0.123238 0)
(10.2065 -0.0333931 0)
(10.1416 0.699889 0)
(10.0702 -0.692026 0)
(10.4529 0.902406 0)
(10.2982 -0.619075 0)
(10.5378 0.847503 0)
(10.4299 -0.645646 0)
(10.6036 0.735118 0)
(10.5604 -0.707484 0)
(10.6275 0.586605 0)
(10.6602 -0.791289 0)
(10.6094 0.382946 0)
(10.6811 -0.869198 0)
(10.5273 0.116834 0)
(10.5709 -0.92185 0)
(10.2921 -0.114208 0)
(10.361 -0.764839 0)
(10.0207 -0.154953 0)
(10.2455 -0.125644 0)
(10.0971 0.467958 0)
(10.1506 -0.495327 0)
(10.3538 0.595709 0)
(10.2933 -0.374834 0)
(10.4205 0.527483 0)
(10.4093 -0.354993 0)
(10.485 0.418811 0)
(10.5239 -0.374383 0)
(10.5133 0.275638 0)
(10.5993 -0.414818 0)
(10.5159 0.0931922 0)
(10.5971 -0.461707 0)
(10.4769 -0.103495 0)
(10.4997 -0.500078 0)
(10.3576 -0.232416 0)
(10.3648 -0.40569 0)
(10.2664 -0.22032 0)
(10.374 -0.110626 0)
(10.0501 0.410857 0)
(10.1753 -0.487386 0)
(10.2549 0.437062 0)
(10.2378 -0.367601 0)
(10.3088 0.367197 0)
(10.3306 -0.345669 0)
(10.3793 0.250685 0)
(10.4246 -0.355375 0)
(10.4227 0.0992975 0)
(10.4823 -0.374948 0)
(10.4463 -0.0798868 0)
(10.4818 -0.403452 0)
(10.4331 -0.246869 0)
(10.4262 -0.431296 0)
(10.3774 -0.339439 0)
(10.3687 -0.392813 0)
(10.3573 -0.320852 0)
(10.4224 -0.276857 0)
(10.0154 0.199532 0)
(10.1907 -0.285942 0)
(10.1932 0.167212 0)
(10.2052 -0.179397 0)
(10.2293 0.131525 0)
(10.2792 -0.171465 0)
(10.3062 0.0470923 0)
(10.3626 -0.197876 0)
(10.366 -0.0588629 0)
(10.4142 -0.235834 0)
(10.4055 -0.176163 0)
(10.4268 -0.286541 0)
(10.4124 -0.275159 0)
(10.4113 -0.331793 0)
(10.3996 -0.324337 0)
(10.4067 -0.337405 0)
(10.411 -0.316285 0)
(10.4698 -0.305111 0)
(9.99663 0.0970304 0)
(10.1445 -0.18598 0)
(10.1463 0.0215344 0)
(10.1501 -0.133736 0)
(10.1622 -0.00876357 0)
(10.2089 -0.146247 0)
(10.241 -0.0770989 0)
(10.2919 -0.186837 0)
(10.311 -0.159546 0)
(10.3486 -0.238095 0)
(10.3575 -0.24494 0)
(10.3791 -0.29846 0)
(10.3805 -0.316452 0)
(10.3939 -0.350252 0)
(10.396 -0.361224 0)
(10.4186 -0.380414 0)
(10.4239 -0.38129 0)
(10.4789 -0.387492 0)
(9.99372 0.0154423 0)
(10.106 -0.0858866 0)
(10.1089 -0.044423 0)
(10.1138 -0.0933297 0)
(10.1188 -0.0749933 0)
(10.1675 -0.119027 0)
(10.198 -0.120721 0)
(10.2519 -0.163942 0)
(10.2741 -0.180698 0)
(10.3154 -0.219286 0)
(10.3279 -0.244072 0)
(10.3598 -0.277962 0)
(10.366 -0.301493 0)
(10.394 -0.329167 0)
(10.3996 -0.347172 0)
(10.4329 -0.370994 0)
(10.4356 -0.383988 0)
(10.4884 -0.397214 0)
(9.9918 0.00471635 0)
(10.0636 -0.0252226 0)
(10.0567 -0.034992 0)
(10.0678 -0.0665431 0)
(10.0778 -0.0758001 0)
(10.128 -0.0998501 0)
(10.1573 -0.116043 0)
(10.211 -0.144807 0)
(10.2337 -0.169092 0)
(10.2782 -0.199693 0)
(10.292 -0.226699 0)
(10.3301 -0.257179 0)
(10.3384 -0.283475 0)
(10.3732 -0.312217 0)
(10.3789 -0.336982 0)
(10.4153 -0.365719 0)
(10.4147 -0.388238 0)
(10.4635 -0.407658 0)
(9.99152 0.0141696 0)
(10.0466 0.0161529 0)
(10.0398 -0.0106011 0)
(10.0575 -0.0377122 0)
(10.0748 -0.0565797 0)
(10.1254 -0.0779072 0)
(10.1553 -0.0989321 0)
(10.2071 -0.123893 0)
(10.2311 -0.149073 0)
(10.2753 -0.176713 0)
(10.2911 -0.203526 0)
(10.3292 -0.232261 0)
(10.3394 -0.25948 0)
(10.3736 -0.288428 0)
(10.3801 -0.315767 0)
(10.4141 -0.345838 0)
(10.4132 -0.371699 0)
(10.4567 -0.393519 0)
(9.99164 0.0329398 0)
(10.0502 0.0496756 0)
(10.0566 0.00994932 0)
(10.0798 -0.0180639 0)
(10.1006 -0.040242 0)
(10.1506 -0.0614867 0)
(10.1818 -0.0836342 0)
(10.2315 -0.106439 0)
(10.2562 -0.130595 0)
(10.2984 -0.155564 0)
(10.315 -0.181142 0)
(10.3507 -0.207397 0)
(10.3614 -0.233641 0)
(10.3926 -0.260496 0)
(10.399 -0.287122 0)
(10.4287 -0.315379 0)
(10.428 -0.34111 0)
(10.4652 -0.36289 0)
(9.98988 0.0407455 0)
(10.0547 0.0527187 0)
(10.0828 -0.00629757 0)
(10.1167 -0.0406409 0)
(10.1419 -0.0641054 0)
(10.1903 -0.0822658 0)
(10.2223 -0.102111 0)
(10.269 -0.121032 0)
(10.2935 -0.142783 0)
(10.332 -0.164037 0)
(10.3482 -0.187458 0)
(10.3801 -0.21015 0)
(10.3904 -0.234465 0)
(10.4173 -0.257986 0)
(10.4228 -0.282857 0)
(10.4473 -0.307894 0)
(10.4461 -0.332521 0)
(10.4767 -0.35292 0)
(9.99054 0.0316489 0)
(10.0685 0.0220978 0)
(10.1262 -0.0556876 0)
(10.177 -0.0967185 0)
(10.2125 -0.119764 0)
(10.2609 -0.132738 0)
(10.2937 -0.147787 0)
(10.3361 -0.161676 0)
(10.3601 -0.179863 0)
(10.394 -0.196955 0)
(10.4103 -0.217404 0)
(10.4376 -0.23629 0)
(10.4478 -0.258044 0)
(10.4701 -0.278112 0)
(10.4753 -0.300799 0)
(10.4945 -0.322422 0)
(10.4938 -0.345275 0)
(10.5186 -0.363556 0)
(9.99117 0.0099065 0)
(10.092 -0.0296532 0)
(10.1869 -0.120806 0)
(10.2595 -0.162755 0)
(10.3093 -0.181128 0)
(10.359 -0.18717 0)
(10.3929 -0.196057 0)
(10.4304 -0.204391 0)
(10.4541 -0.218141 0)
(10.4836 -0.230781 0)
(10.5001 -0.247646 0)
(10.5232 -0.262678 0)
(10.5336 -0.28139 0)
(10.5516 -0.298078 0)
(10.5571 -0.31814 0)
(10.5718 -0.336473 0)
(10.5722 -0.357048 0)
(10.5919 -0.373183 0)
(9.99279 -0.023292 0)
(10.1275 -0.10351 0)
(10.2671 -0.204853 0)
(10.3665 -0.241542 0)
(10.4319 -0.250779 0)
(10.4836 -0.248376 0)
(10.5183 -0.250894 0)
(10.5517 -0.253697 0)
(10.5753 -0.26298 0)
(10.6011 -0.271346 0)
(10.6181 -0.284682 0)
(10.6378 -0.296306 0)
(10.6486 -0.312123 0)
(10.6631 -0.325882 0)
(10.6691 -0.34342 0)
(10.68 -0.358867 0)
(10.6813 -0.377175 0)
(10.6967 -0.391324 0)
(9.99058 -0.0715717 0)
(10.1745 -0.201115 0)
(10.368 -0.305425 0)
(10.5002 -0.327841 0)
(10.5806 -0.322558 0)
(10.6345 -0.310197 0)
(10.6691 -0.305585 0)
(10.6997 -0.302581 0)
(10.7227 -0.306724 0)
(10.746 -0.310609 0)
(10.7624 -0.319936 0)
(10.7794 -0.328082 0)
(10.7895 -0.340623 0)
(10.8006 -0.351402 0)
(10.8055 -0.365997 0)
(10.8123 -0.378556 0)
(10.8121 -0.394111 0)
(10.8221 -0.406063 0)
(9.99203 -0.136313 0)
(10.2448 -0.322939 0)
(10.5027 -0.418946 0)
(10.6712 -0.417583 0)
(10.7627 -0.394138 0)
(10.8175 -0.371075 0)
(10.8494 -0.358921 0)
(10.8772 -0.350572 0)
(10.896 -0.350096 0)
(10.9148 -0.350498 0)
(10.9252 -0.356395 0)
(10.9354 -0.361528 0)
(10.9373 -0.370834 0)
(10.9393 -0.378698 0)
(10.9338 -0.389897 0)
(10.929 -0.399481 0)
(10.9162 -0.411403 0)
(10.9113 -0.420549 0)
(9.98978 -0.219871 0)
(10.3369 -0.468085 0)
(10.6737 -0.539702 0)
(10.8758 -0.508202 0)
(10.9698 -0.464837 0)
(11.0135 -0.428053 0)
(11.0286 -0.404809 0)
(11.0352 -0.388392 0)
(11.029 -0.381433 0)
(11.0194 -0.376984 0)
(10.9979 -0.378202 0)
(10.9734 -0.379108 0)
(10.9375 -0.38383 0)
(10.8997 -0.387309 0)
(10.852 -0.393679 0)
(10.8039 -0.399002 0)
(10.7458 -0.405322 0)
(10.6941 -0.410094 0)
(9.98337 -0.332044 0)
(10.4677 -0.642275 0)
(10.883 -0.667067 0)
(11.0725 -0.602616 0)
(11.103 -0.537167 0)
(11.0584 -0.483106 0)
(10.9743 -0.444972 0)
(10.8731 -0.416226 0)
(10.7576 -0.398015 0)
(10.6349 -0.383278 0)
(10.5033 -0.374897 0)
(10.3663 -0.366339 0)
(10.2239 -0.362456 0)
(10.0771 -0.357005 0)
(9.92827 -0.355862 0)
(9.77665 -0.353269 0)
(9.62543 -0.35297 0)
(9.47547 -0.351132 0)
(10.0025 -0.453661 0)
(10.619 -0.818939 0)
(10.9017 -0.752056 0)
(10.7933 -0.623748 0)
(10.4938 -0.512526 0)
(10.1376 -0.429183 0)
(9.77008 -0.373561 0)
(9.41752 -0.334726 0)
(9.07667 -0.307298 0)
(8.75528 -0.284614 0)
(8.44625 -0.26766 0)
(8.15313 -0.251337 0)
(7.87233 -0.24005 0)
(7.60272 -0.227345 0)
(7.34787 -0.22114 0)
(7.09831 -0.211826 0)
(6.86985 -0.210853 0)
(6.64039 -0.204176 0)
(10.0975 -0.750787 0)
(10.0459 -1.01319 0)
(9.42502 -0.801078 0)
(8.51449 -0.572181 0)
(7.65506 -0.378729 0)
(6.92891 -0.244892 0)
(6.32732 -0.167533 0)
(5.83158 -0.126262 0)
(5.40912 -0.104711 0)
(5.0485 -0.0923258 0)
(4.72837 -0.0849636 0)
(4.44762 -0.0793518 0)
(4.19118 -0.0758108 0)
(3.96225 -0.0718915 0)
(3.75051 -0.0721318 0)
(3.55532 -0.0690768 0)
(3.38307 -0.0802533 0)
(3.21813 -0.0828456 0)
(8.51678 -0.436047 0)
(6.1103 -0.380883 0)
(4.29838 -0.138047 0)
(3.1239 -0.021382 0)
(2.4811 0.0191338 0)
(2.12045 0.0224734 0)
(1.89619 0.0137164 0)
(1.73485 0.00461634 0)
(1.59879 -0.00156761 0)
(1.47802 -0.00478974 0)
(1.36591 -0.00640403 0)
(1.26374 -0.00671987 0)
(1.16806 -0.00670785 0)
(1.08132 -0.00638961 0)
(0.999276 -0.00665605 0)
(0.919043 -0.00703076 0)
(0.851527 -0.0185971 0)
(0.731048 -0.00612879 0)
(-0.0520466 0.137996 0)
(-0.15703 0.0714829 0)
(-0.206976 0.016419 0)
(-0.195082 -0.0444056 0)
(-0.117766 -0.0991397 0)
(0.0125149 -0.145187 0)
(0.186681 -0.175734 1.11353e-17)
(0.388565 -0.193694 -1.10603e-17)
(0.606937 -0.198079 0)
(0.829459 -0.192811 -1.09171e-17)
(1.04675 -0.178475 0)
(1.24982 -0.157715 0)
(1.43211 -0.131076 0)
(1.58834 -0.101695 1.06425e-17)
(1.71588 -0.0704168 0)
(1.81196 -0.0383039 0)
(1.87571 -0.00611668 -1.04454e-17)
(1.90785 0.0241592 0)
(1.91003 0.0505909 0)
(1.88436 0.0722442 0)
(1.83452 0.0891676 1.01959e-17)
(1.76308 0.100741 0)
(1.67394 0.10867 1.0074e-17)
(1.56879 0.111603 0)
(1.45232 0.109678 0)
(1.32726 0.107945 9.89534e-18)
(1.19386 0.111171 0)
(1.05135 0.116252 -9.77901e-18)
(0.902902 0.121499 0)
(0.749081 0.12658 9.66414e-18)
(0.591416 0.130632 0)
(0.432183 0.133146 0)
(0.273646 0.134348 0)
(0.116286 0.134157 0)
(-0.0395718 0.131286 0)
(-0.191869 0.126607 -9.32954e-18)
(-0.338934 0.120502 0)
(-0.480339 0.113992 1.84405e-17)
(-0.614627 0.107485 0)
(-0.741363 0.10026 -1.82216e-17)
(-0.859074 0.0932394 0)
(-0.967919 0.0864599 0)
(-1.06835 0.0786905 1.78884e-17)
(-1.15988 0.070291 0)
(-1.24315 0.0625506 1.76651e-17)
(-1.31825 0.0552951 -1.75531e-17)
(-1.38466 0.0482936 0)
(-1.44324 0.0422449 -1.73282e-17)
(-1.49509 0.0369174 -1.72151e-17)
(-1.53919 0.0332557 0)
(-1.57574 0.0316823 0)
(-1.60663 0.0316659 0)
(-1.63393 0.0317484 0)
(-1.65863 0.0316952 0)
(-1.6821 0.032504 1.65282e-17)
(-1.70613 0.0339837 0)
(-1.73204 0.0361514 -1.62989e-17)
(-1.75857 0.0381387 0)
(-1.78455 0.0387863 0)
(-1.81001 0.0394831 1.59524e-17)
(-1.83575 0.0413826 0)
(-1.86365 0.0427543 -1.57211e-17)
(-1.8936 0.0445503 0)
(-1.92543 0.0461198 0)
(-1.95864 0.0469898 0)
(-1.99262 0.0481482 1.52556e-17)
(-2.02701 0.0499134 0)
(-2.06208 0.052059 0)
(-2.09761 0.0544018 1.49059e-17)
(-2.13389 0.055814 0)
(-2.16794 0.0559974 1.46712e-17)
(-2.19884 0.0563435 0)
(-2.22648 0.0564897 0)
(-2.24983 0.0563 0)
(-2.26793 0.0556825 -1.42051e-17)
(-2.28009 0.054449 0)
(-2.28701 0.0537392 0)
(-2.29063 0.0536897 -1.38613e-17)
(-2.29136 0.0527374 -1.37479e-17)
(-2.2875 0.0510995 0)
(-2.27726 0.048852 -1.35227e-17)
(-2.2605 0.0459629 0)
(-2.23688 0.0428553 -2.66024e-17)
(-2.2064 0.0394553 0)
(-2.16957 0.0357961 -2.6167e-17)
(-2.12619 0.032716 0)
(-2.07731 0.0302841 2.57383e-17)
(-2.02374 0.0282892 0)
(-1.96553 0.0268085 0)
(-1.90334 0.0257832 0)
(-1.8387 0.025165 -2.49013e-17)
(-1.7714 0.0248847 0)
(-1.70304 0.0248349 2.44995e-17)
(-1.63374 0.0254755 0)
(-1.56427 0.0265979 -2.41102e-17)
(-1.49655 0.029157 -2.39216e-17)
(-1.4297 0.0303134 -2.37373e-17)
(-1.36281 0.03141 0)
(-1.29772 0.0314591 0)
(-1.23318 0.0326352 0)
(-1.16731 0.0333619 0)
(-1.10237 0.0329115 0)
(-1.03235 0.0317795 0)
(-0.963668 0.0332328 0)
(-0.892591 0.0328548 0)
(-0.825832 0.0354119 2.22131e-17)
(-0.758323 0.0357658 2.2061e-17)
(-0.69594 0.0401991 0)
(-0.635213 0.0413939 0)
(-0.579914 0.0412134 0)
(-0.51275 0.038502 2.14805e-17)
(-0.450805 0.0426937 0)
(-0.382514 0.0409802 0)
(-0.318049 0.0438489 0)
(-0.24781 0.0408797 0)
(-0.175715 0.0434228 -2.0806e-17)
(-0.101759 0.0451376 0)
(-0.022483 0.0441728 0)
(0.0616733 0.0455239 2.04288e-17)
(0.149606 0.0452312 -2.03073e-17)
(0.241273 0.0444223 0)
(0.337625 0.0482381 -2.00747e-17)
(0.429449 0.0511281 0)
(0.522494 0.0542831 1.98482e-17)
(0.605457 0.0590604 0)
(0.677181 0.0620282 0)
(0.752962 0.0623417 0)
(0.822521 0.0631092 0)
(0.902423 0.0603036 0)
(0.976079 0.0609037 -3.83965e-17)
(1.05198 0.0626269 -3.81775e-17)
(1.11178 0.0676085 0)
(1.16235 0.0663067 0)
(1.2076 0.0674039 0)
(1.24597 0.0633563 3.72529e-17)
(1.29496 0.0587783 0)
(1.34536 0.0571015 0)
(1.39115 0.0559413 0)
(1.43994 0.0541496 3.62329e-17)
(1.47701 0.0567796 -3.59647e-17)
(1.52026 0.0526804 0)
(1.55947 0.052675 0)
(1.6012 0.0531491 -3.51501e-17)
(1.62739 0.0582515 -3.48772e-17)
(1.65749 0.0549676 0)
(1.68593 0.0587267 0)
(1.72507 0.0557391 3.40443e-17)
(1.76154 0.0659372 -3.37649e-17)
(1.76988 0.0713638 0)
(1.78359 0.0706947 0)
(1.80915 0.0710505 -3.29282e-17)
(1.8427 0.0757363 0)
(1.85656 0.0833284 0)
(1.86835 0.0890409 -3.20841e-17)
(1.86799 0.0931379 0)
(1.88252 0.0979837 -3.1524e-17)
(1.88473 0.105014 0)
(1.89048 0.109168 0)
(1.87765 0.120781 0)
(1.86453 0.126596 3.04343e-17)
(1.8498 0.133033 0)
(1.81794 0.142986 0)
(1.74546 0.154737 0)
(1.66858 0.154773 0)
(1.60243 0.157086 0)
(1.51203 0.165864 0)
(1.38325 0.172596 2.88922e-17)
(1.26434 0.173852 2.87381e-17)
(1.08037 0.181877 0)
(0.873406 0.184621 0)
(0.629871 0.183592 0)
(0.414226 0.169783 -2.83207e-17)
(0.192182 0.162845 0)
(0.0400469 0.146638 5.63465e-17)
(-0.160936 0.144053 -5.62372e-17)
(-0.264199 0.1237 -5.60579e-17)
(-0.425535 0.12685 5.59541e-17)
(-0.460967 0.096695 -5.57516e-17)
(-0.618752 0.129187 5.57318e-17)
(-0.566055 -0.00407965 0)
(0.0101565 0.248747 0)
(0.014758 0.191911 0)
(0.0499666 0.00762568 -2.27958e-17)
(0.121434 -0.198499 0)
(0.236474 -0.384542 2.23641e-17)
(0.388921 -0.536035 2.22174e-17)
(0.57019 -0.64499 1.10433e-17)
(0.770179 -0.710968 1.09809e-17)
(0.977554 -0.737598 0)
(1.18177 -0.731303 1.08538e-17)
(1.37419 -0.695403 0)
(1.54753 -0.637023 0)
(1.69782 -0.562307 -2.13193e-17)
(1.82034 -0.477789 -1.05945e-17)
(1.91501 -0.385851 2.10549e-17)
(1.98006 -0.29133 2.09214e-17)
(2.01687 -0.198996 1.03951e-17)
(2.02551 -0.110929 0)
(2.00842 -0.0279124 0)
(1.96558 0.0468117 0)
(1.90085 0.112259 1.01363e-17)
(1.8143 0.1713 0)
(1.71062 0.224124 -3.00363e-17)
(1.58859 0.266874 0)
(1.45052 0.301772 0)
(1.29692 0.332293 -9.83157e-18)
(1.13127 0.356262 0)
(0.956318 0.373562 9.71525e-18)
(0.775918 0.384653 1.93121e-17)
(0.590952 0.391999 -9.59728e-18)
(0.404209 0.394186 0)
(0.216932 0.390479 0)
(0.0288222 0.383309 0)
(-0.159662 0.376442 1.87306e-17)
(-0.34673 0.367943 1.86162e-17)
(-0.531106 0.355747 9.25111e-18)
(-0.71001 0.341046 0)
(-0.883994 0.324014 -1.82759e-17)
(-1.04909 0.303488 0)
(-1.20759 0.28159 1.80505e-17)
(-1.35784 0.259097 0)
(-1.50149 0.236245 0)
(-1.63697 0.215855 -1.77164e-17)
(-1.76527 0.19678 0)
(-1.88882 0.17884 -5.24861e-17)
(-2.00669 0.160077 1.73856e-17)
(-2.11797 0.141177 0)
(-2.2223 0.124334 1.71654e-17)
(-2.3205 0.106747 1.70552e-17)
(-2.41136 0.0873335 0)
(-2.49303 0.0685195 0)
(-2.56764 0.0540165 0)
(-2.63698 0.044503 0)
(-2.70299 0.0395303 0)
(-2.76511 0.0379604 -1.63737e-17)
(-2.82525 0.0372357 -3.25152e-17)
(-2.88377 0.0370908 1.61414e-17)
(-2.93779 0.0343109 0)
(-2.98947 0.0302672 -3.1813e-17)
(-3.03892 0.0289506 1.57875e-17)
(-3.08545 0.0299871 0)
(-3.1329 0.0309467 1.55499e-17)
(-3.17807 0.0336569 0)
(-3.22123 0.0350918 0)
(-3.26276 0.0346444 3.03753e-17)
(-3.30332 0.0340051 -1.50674e-17)
(-3.33941 0.0319471 2.98919e-17)
(-3.373 0.029188 -2.96505e-17)
(-3.40062 0.0254872 -1.47047e-17)
(-3.42507 0.0206175 0)
(-3.4431 0.0129619 -1.44629e-17)
(-3.45438 0.00266971 0)
(-3.45993 -0.00815992 0)
(-3.457 -0.0207578 0)
(-3.44484 -0.0350714 -1.39831e-17)
(-3.42437 -0.0491285 0)
(-3.39738 -0.0592795 -2.74952e-17)
(-3.36459 -0.0664014 4.08945e-17)
(-3.32645 -0.0749022 1.35164e-17)
(-3.282 -0.0859129 0)
(-3.22969 -0.0985519 1.32879e-17)
(-3.17213 -0.111113 0)
(-3.109 -0.123038 2.61243e-17)
(-3.04075 -0.133922 0)
(-2.96758 -0.144313 2.56813e-17)
(-2.88938 -0.15361 -5.09228e-17)
(-2.80731 -0.16248 -2.52475e-17)
(-2.72291 -0.170472 0)
(-2.63345 -0.17809 0)
(-2.5418 -0.183802 0)
(-2.44786 -0.188015 2.44074e-17)
(-2.35064 -0.192075 0)
(-2.25217 -0.194727 -2.40011e-17)
(-2.15373 -0.195024 0)
(-2.05474 -0.196519 7.0822e-17)
(-1.95592 -0.195765 2.34172e-17)
(-1.85652 -0.196671 2.32312e-17)
(-1.75931 -0.19377 0)
(-1.6645 -0.193258 0)
(-1.56911 -0.194308 0)
(-1.47109 -0.195071 0)
(-1.37431 -0.197418 0)
(-1.27154 -0.20177 4.43223e-17)
(-1.17553 -0.199624 4.3986e-17)
(-1.0756 -0.199852 0)
(-0.988621 -0.194036 -2.16751e-17)
(-0.891989 -0.19541 -2.15232e-17)
(-0.805414 -0.188258 0)
(-0.710773 -0.187067 -4.24436e-17)
(-0.633304 -0.185845 0)
(-0.53752 -0.19628 2.09375e-17)
(-0.452346 -0.190243 0)
(-0.347281 -0.198513 0)
(-0.253265 -0.195206 -4.10574e-17)
(-0.140796 -0.203666 0)
(-0.0373337 -0.203615 2.02721e-17)
(0.0870734 -0.21106 0)
(0.212467 -0.218914 0)
(0.347954 -0.223444 1.98869e-17)
(0.487994 -0.228615 1.97707e-17)
(0.633461 -0.234549 0)
(0.782718 -0.23541 -1.95334e-17)
(0.942514 -0.236853 0)
(1.10174 -0.229052 1.92967e-17)
(1.2672 -0.219291 3.83633e-17)
(1.41491 -0.212965 0)
(1.57217 -0.213985 0)
(1.71709 -0.213967 0)
(1.87684 -0.215391 0)
(2.02331 -0.210367 3.72311e-17)
(2.1777 -0.207138 1.11009e-16)
(2.31369 -0.187877 0)
(2.43792 -0.183408 0)
(2.55685 -0.173219 0)
(2.66339 -0.175504 -3.60807e-17)
(2.76608 -0.179792 0)
(2.86887 -0.179275 0)
(2.96425 -0.177426 7.06178e-17)
(3.05894 -0.17645 3.50347e-17)
(3.13246 -0.170443 3.47657e-17)
(3.22031 -0.179821 0)
(3.28416 -0.173862 0)
(3.35293 -0.175199 3.39216e-17)
(3.39916 -0.164234 -3.36159e-17)
(3.44562 -0.178308 0)
(3.47508 -0.174971 0)
(3.50981 -0.191042 -3.27235e-17)
(3.53806 -0.173251 9.7194e-17)
(3.55283 -0.16889 0)
(3.56378 -0.179931 0)
(3.57531 -0.191575 3.14619e-17)
(3.59637 -0.189591 0)
(3.59228 -0.183026 6.16301e-17)
(3.59086 -0.181289 -3.04738e-17)
(3.56377 -0.185535 0)
(3.56013 -0.194492 2.98475e-17)
(3.53583 -0.190802 5.90596e-17)
(3.52435 -0.192277 0)
(3.4776 -0.185556 0)
(3.45419 -0.194592 -2.85757e-17)
(3.41374 -0.186499 0)
(3.35657 -0.169086 5.58886e-17)
(3.25917 -0.149844 0)
(3.16718 -0.154829 0)
(3.0469 -0.146326 0)
(2.91812 -0.121332 0)
(2.72252 -0.102363 -2.66522e-17)
(2.56372 -0.075841 -2.6463e-17)
(2.27935 -0.0263159 0)
(2.00636 -0.00136256 0)
(1.67618 0.0229166 0)
(1.38132 0.0187883 2.59576e-17)
(1.04767 0.0235158 0)
(0.840099 0.0143422 -5.16676e-17)
(0.518817 0.0333783 5.16409e-17)
(0.403754 0.00114267 5.14924e-17)
(0.122605 0.0321552 5.14834e-17)
(0.122518 -0.0156987 5.13303e-17)
(-0.174291 0.0788719 5.14946e-17)
(0.0128918 -0.117459 0)
(0.0290565 0.0707691 0)
(0.121241 -0.0388046 0)
(0.228368 -0.241978 2.29126e-17)
(0.340595 -0.468866 2.2664e-17)
(0.475164 -0.693482 -2.25125e-17)
(0.619414 -0.875425 -2.23998e-17)
(0.773725 -1.00409 -1.48286e-21)
(0.925079 -1.07433 0)
(1.07021 -1.08507 0)
(1.197 -1.04586 0)
(1.30578 -0.96603 0)
(1.39175 -0.856789 0)
(1.45736 -0.726312 6.47109e-17)
(1.4981 -0.586098 0)
(1.51678 -0.441272 -2.13046e-17)
(1.51161 -0.294857 -2.11684e-17)
(1.48549 -0.153493 0)
(1.43699 -0.0200594 0)
(1.37076 0.103735 0)
(1.28653 0.216151 0)
(1.18659 0.315459 -2.05024e-17)
(1.07176 0.398471 0)
(0.947051 0.470849 2.02484e-17)
(0.809728 0.536014 0)
(0.662668 0.590912 0)
(0.50723 0.635882 0)
(0.348842 0.671883 3.95248e-17)
(0.18647 0.699143 0)
(0.0226389 0.718623 -1.95222e-17)
(-0.14221 0.729083 3.87997e-17)
(-0.306352 0.732329 0)
(-0.472802 0.734149 0)
(-0.639453 0.73126 0)
(-0.80496 0.721849 -1.89164e-17)
(-0.966867 0.7067 -1.87956e-17)
(-1.1256 0.68529 0)
(-1.27957 0.658058 0)
(-1.428 0.626606 3.68587e-17)
(-1.56947 0.592584 3.6619e-17)
(-1.70923 0.558248 -3.63808e-17)
(-1.84397 0.525519 0)
(-1.97693 0.491972 0)
(-2.10425 0.459756 0)
(-2.22786 0.430363 0)
(-2.34723 0.402659 3.52e-17)
(-2.4606 0.373435 3.49664e-17)
(-2.56882 0.343855 -3.47345e-17)
(-2.67148 0.315386 0)
(-2.76809 0.287533 0)
(-2.85944 0.25869 0)
(-2.94545 0.232003 0)
(-3.03148 0.214218 3.35754e-17)
(-3.11159 0.198241 0)
(-3.18663 0.184908 0)
(-3.25511 0.176906 3.28778e-17)
(-3.31887 0.171444 3.26462e-17)
(-3.3772 0.164293 0)
(-3.42782 0.15466 -6.43594e-17)
(-3.47639 0.147541 3.19484e-17)
(-3.52087 0.140959 -3.1714e-17)
(-3.55949 0.137113 0)
(-3.59513 0.134381 0)
(-3.62468 0.130187 0)
(-3.64929 0.125986 0)
(-3.67136 0.120817 -3.05527e-17)
(-3.68916 0.113484 -6.06462e-17)
(-3.70075 0.105576 -3.00975e-17)
(-3.70861 0.0971542 2.98726e-17)
(-3.70926 0.0855405 0)
(-3.70482 0.0722491 -5.88397e-17)
(-3.69239 0.0560739 -5.83914e-17)
(-3.67469 0.0397719 -5.79465e-17)
(-3.65277 0.0218248 5.75047e-17)
(-3.62201 -0.000635939 0)
(-3.58429 -0.023496 8.49417e-17)
(-3.54066 -0.0430608 0)
(-3.49226 -0.0585083 -2.78776e-17)
(-3.4353 -0.0722555 -2.76647e-17)
(-3.37036 -0.0878415 0)
(-3.29919 -0.104576 0)
(-3.22452 -0.121175 -5.40409e-17)
(-3.14764 -0.135842 0)
(-3.06679 -0.149868 -5.31936e-17)
(-2.9834 -0.16333 0)
(-2.89544 -0.177539 5.23547e-17)
(-2.80404 -0.188781 1.03881e-16)
(-2.70897 -0.198436 0)
(-2.61317 -0.207628 0)
(-2.51431 -0.215183 0)
(-2.4168 -0.221525 5.02912e-17)
(-2.31741 -0.227434 0)
(-2.21479 -0.232199 4.94695e-17)
(-2.10922 -0.235512 0)
(-2.00324 -0.234674 0)
(-1.89478 -0.234682 -9.65057e-17)
(-1.78924 -0.232129 0)
(-1.68171 -0.231497 -4.74614e-17)
(-1.57853 -0.225357 0)
(-1.47103 -0.226143 -4.66935e-17)
(-1.36449 -0.225481 0)
(-1.25553 -0.224674 0)
(-1.14829 -0.228389 0)
(-1.03762 -0.230938 -1.35691e-16)
(-0.937781 -0.22223 -4.48685e-17)
(-0.82823 -0.219197 0)
(-0.735621 -0.208289 0)
(-0.633737 -0.210135 0)
(-0.549087 -0.19718 0)
(-0.444893 -0.193326 4.32343e-17)
(-0.359882 -0.187331 -8.58326e-17)
(-0.253477 -0.204387 -4.26313e-17)
(-0.166882 -0.196627 8.46549e-17)
(-0.0475667 -0.21253 8.40921e-17)
(0.0536801 -0.208727 4.17603e-17)
(0.183143 -0.22358 0)
(0.295398 -0.224121 8.2395e-17)
(0.433755 -0.239721 0)
(0.565217 -0.249064 -8.12842e-17)
(0.713024 -0.256046 -4.03843e-17)
(0.858667 -0.261496 0)
(1.01338 -0.270257 7.97637e-17)
(1.16216 -0.273472 3.96287e-17)
(1.32422 -0.281841 0)
(1.48253 -0.280279 3.90905e-17)
(1.65682 -0.269532 -1.16509e-16)
(1.81583 -0.257344 0)
(1.9805 -0.256333 0)
(2.13225 -0.255878 0)
(2.29258 -0.25901 0)
(2.44868 -0.254348 -7.51565e-17)
(2.60469 -0.251334 -7.46578e-17)
(2.75556 -0.220149 0)
(2.89403 -0.214839 0)
(3.02447 -0.202408 0)
(3.14764 -0.201085 0)
(3.25372 -0.205925 0)
(3.37549 -0.209179 0)
(3.48809 -0.207958 -7.09558e-17)
(3.60312 -0.205337 -1.65061e-20)
(3.69596 -0.196073 0)
(3.80709 -0.209459 0)
(3.89484 -0.197075 -6.86111e-17)
(3.98876 -0.197776 0)
(4.06711 -0.176915 6.743e-17)
(4.13771 -0.187793 6.6813e-17)
(4.17924 -0.170476 0)
(4.23419 -0.188889 0)
(4.27276 -0.164952 -6.49044e-17)
(4.32321 -0.156141 -1.28519e-16)
(4.35126 -0.160556 0)
(4.38439 -0.172607 0)
(4.42666 -0.163776 0)
(4.43994 -0.149291 -6.16954e-17)
(4.46925 -0.136259 6.10074e-17)
(4.46855 -0.135775 0)
(4.48865 -0.141856 1.19379e-16)
(4.47206 -0.129702 5.90343e-17)
(4.48923 -0.128094 -1.16774e-16)
(4.46643 -0.109692 0)
(4.46575 -0.116833 0)
(4.4349 -0.0953987 -1.12754e-16)
(4.3946 -0.0675281 -5.57165e-17)
(4.31015 -0.0379652 0)
(4.24647 -0.035556 0)
(4.11342 -0.017185 0)
(4.00337 0.025478 0)
(3.79066 0.0529126 -1.05585e-16)
(3.62199 0.0958291 0)
(3.32392 0.16715 0)
(3.06545 0.192075 0)
(2.71489 0.219986 0)
(2.40081 0.202881 0)
(2.01147 0.187413 0)
(1.77408 0.154227 -1.00632e-16)
(1.36824 0.151776 0)
(1.23884 0.0831013 0)
(0.854567 0.105542 -1.9941e-16)
(0.849677 0.023072 9.92428e-17)
(0.463761 0.111519 -9.93991e-17)
(0.659438 -0.128704 9.87797e-17)
(0.0206056 -0.0945735 0)
(0.125035 -0.270026 -4.69562e-17)
(0.247844 -0.490607 0)
(0.375852 -0.756118 -2.27967e-17)
(0.502541 -0.999756 0)
(0.618642 -1.18855 0)
(0.723168 -1.30597 2.24453e-17)
(0.803671 -1.34902 0)
(0.866385 -1.31905 0)
(0.905467 -1.23322 0)
(0.927422 -1.11047 0)
(0.930071 -0.96128 0)
(0.918298 -0.7942 -8.66145e-17)
(0.889474 -0.617129 -4.30246e-17)
(0.847094 -0.434467 4.27452e-17)
(0.790853 -0.253513 0)
(0.722806 -0.08093 0)
(0.641571 0.0803672 0)
(0.550623 0.228992 0)
(0.449441 0.362267 0)
(0.340796 0.479794 -4.11505e-17)
(0.222876 0.581695 -4.08979e-17)
(0.0969881 0.672522 4.06487e-17)
(-0.0347087 0.748687 -4.04011e-17)
(-0.170567 0.811588 0)
(-0.309208 0.859813 0)
(-0.449389 0.895978 -3.96579e-17)
(-0.58996 0.920825 0)
(-0.731473 0.935109 0)
(-0.873561 0.943881 -3.89248e-17)
(-1.01626 0.949537 -3.86815e-17)
(-1.15684 0.947404 -3.84371e-17)
(-1.29435 0.938497 0)
(-1.42867 0.923363 0)
(-1.55844 0.902063 3.76935e-17)
(-1.68324 0.872568 0)
(-1.80417 0.83719 0)
(-1.9215 0.797838 -3.69486e-17)
(-2.03587 0.759945 3.6697e-17)
(-2.14872 0.721932 -3.64482e-17)
(-2.25513 0.683249 0)
(-2.35989 0.64389 0)
(-2.46062 0.607593 -7.14189e-17)
(-2.55858 0.573384 0)
(-2.65123 0.535288 -7.04529e-17)
(-2.74038 0.497212 -1.04962e-16)
(-2.82591 0.461438 1.04241e-16)
(-2.90608 0.425177 -6.90141e-17)
(-2.98313 0.388001 0)
(-3.05755 0.352491 0)
(-3.13149 0.324377 -6.76017e-17)
(-3.20266 0.299797 -3.35704e-17)
(-3.26746 0.274093 0)
(-3.32805 0.252846 0)
(-3.384 0.237223 -3.28782e-17)
(-3.43448 0.220002 -6.52966e-17)
(-3.47868 0.200693 0)
(-3.51682 0.182369 6.43788e-17)
(-3.55105 0.167612 -6.39197e-17)
(-3.57983 0.153769 6.3464e-17)
(-3.60278 0.139748 0)
(-3.61944 0.12636 0)
(-3.63165 0.115102 0)
(-3.63848 0.103883 0)
(-3.64166 0.0937713 0)
(-3.63943 0.0779806 6.07742e-17)
(-3.63285 0.0607971 0)
(-3.61958 0.0420759 0)
(-3.6005 0.0209444 0)
(-3.57729 -0.00111623 1.18047e-16)
(-3.54857 -0.0251988 5.85916e-17)
(-3.51512 -0.0493321 5.81582e-17)
(-3.47672 -0.0764786 -1.15458e-16)
(-3.43194 -0.108069 5.73042e-17)
(-3.38376 -0.138306 -5.68849e-17)
(-3.32934 -0.165943 0)
(-3.26999 -0.191921 5.60377e-17)
(-3.2007 -0.218627 0)
(-3.12724 -0.243909 0)
(-3.04815 -0.26585 0)
(-2.96756 -0.286577 1.08719e-16)
(-2.88481 -0.305572 -5.39463e-17)
(-2.79874 -0.324448 -5.35327e-17)
(-2.71144 -0.343158 -1.0627e-16)
(-2.62011 -0.36288 -1.58215e-16)
(-2.52794 -0.378558 -5.23432e-17)
(-2.431 -0.391325 0)
(-2.33453 -0.402759 -1.0307e-16)
(-2.23651 -0.410877 0)
(-2.13865 -0.417355 -1.52206e-16)
(-2.03996 -0.427421 0)
(-1.94248 -0.433902 -1.49834e-16)
(-1.83882 -0.440282 0)
(-1.73471 -0.440923 0)
(-1.62566 -0.442419 -4.87473e-17)
(-1.51823 -0.439029 0)
(-1.40738 -0.438498 4.79724e-17)
(-1.30144 -0.43373 9.51564e-17)
(-1.1876 -0.435472 4.72035e-17)
(-1.07792 -0.437409 9.36494e-17)