/*--------------------------------*- C++ -*----------------------------------*\
| =========                 |                                                 |
| \\      /  F ield         | OpenFOAM: The Open Source CFD Toolbox           |
|  \\    /   O peration     | Version:  dev                                   |
|   \\  /    A nd           | Web:      http://www.openfoam.org               |
|    \\/     M anipulation  |                                                 |
\*---------------------------------------------------------------------------*/
FoamFile
{
    version     2.0;
    format      ascii;
    class       volSymmTensorField;
    object      UPrime2Mean;
    location    "9.123";
}
// * * * * * * * * * * * * * * * * * * * * * * * * * * * * * * * * * * * * * //

dimensions      [0 2 -2 0 0 0 0];

internalField   nonuniform List<symmTensor> 
12225
(
(0.329213 0.0192787 0 0.0693014 0 0)
(2.9855 0.0797156 0 0.0782285 0 0)
(7.87838 0.112354 0 0.0769306 0 0)
(14.5303 0.148278 0 0.0756039 0 0)
(22.6963 0.133103 0 0.0765493 0 0)
(32.0571 0.201167 0 0.0747014 0 0)
(42.366 0.0961462 0 0.0766422 0 0)
(53.5052 0.200564 0 0.0738784 0 0)
(65.5945 -0.028137 0 0.0776373 0 0)
(78.1859 0.125979 0 0.073644 0 0)
(92.9271 -0.305762 0 0.0813319 0 0)
(107.262 -0.115218 0 0.0770116 0 0)
(127.864 -0.6716 0 0.0863223 0 0)
(145.567 -1.27649 0 0.134719 0 0)
(185.861 -1.40869 0 0.116384 0 0)
(198.449 -0.392822 0 2.39179 0 0)
(272.207 -33.5232 0 5.8069 0 0)
(575.627 -52.8938 0 18.8079 0 0)
(0.377352 0.0568375 0 0.689333 0 0)
(3.15526 0.252303 0 0.732649 0 0)
(8.40854 0.362229 0 0.714494 0 0)
(15.4685 0.485548 0 0.706981 0 0)
(24.1897 0.453337 0 0.703839 0 0)
(34.4437 0.633086 0 0.683656 0 0)
(45.5077 0.2967 0 0.692448 0 0)
(58.4553 0.609686 0 0.659104 0 0)
(71.4422 -0.134094 0 0.682942 0 0)
(87.1058 0.283958 0 0.646263 0 0)
(102.735 -1.06327 0 0.711515 0 0)
(121.365 -0.763788 0 0.655693 0 0)
(142.779 -2.54047 0 1.06879 0 0)
(166.243 -4.48838 0 1.0467 0 0)
(199.668 -0.927363 0 3.09899 0 0)
(274.256 -9.97561 0 6.59992 0 0)
(280.929 -20.8196 0 8.73702 0 0)
(799.516 -185.097 0 64.6799 0 0)
(0.504998 0.0584096 0 2.14172 0 0)
(3.06334 0.424768 0 2.20367 0 0)
(8.46376 0.570682 0 2.15256 0 0)
(14.8478 0.852254 0 2.14404 0 0)
(24.2681 0.865114 0 2.12092 0 0)
(33.1379 1.05371 0 2.08369 0 0)
(45.255 0.757446 0 2.07942 0 0)
(56.1778 0.887612 0 2.00859 0 0)
(69.6588 0.174243 0 2.0527 0 0)
(83.4083 0.0193912 0 1.96027 0 0)
(98.1444 -1.12003 0 2.12341 0 0)
(115.605 -2.44344 0 2.09509 0 0)
(138.557 -3.59149 0 2.6226 0 0)
(154.802 -7.19296 0 2.83085 0 0)
(210.905 -12.9973 0 6.11558 0 0)
(223.286 -7.89021 0 6.37059 0 0)
(352.841 -62.2229 0 31.07 0 0)
(534.249 -192.343 0 98.1505 0 0)
(1.03005 0.0924412 0 4.67294 0 0)
(3.54927 0.619735 0 4.76958 0 0)
(9.06734 0.816103 0 4.64528 0 0)
(15.0623 1.15054 0 4.60455 0 0)
(24.6293 1.31379 0 4.56018 0 0)
(32.9724 1.35097 0 4.48584 0 0)
(44.9896 1.26319 0 4.45076 0 0)
(55.1463 0.975398 0 4.35217 0 0)
(68.5738 0.478878 0 4.38382 0 0)
(80.6794 -0.279356 0 4.26002 0 0)
(95.9961 -1.32616 0 4.5091 0 0)
(110.465 -3.33606 0 4.37397 0 0)
(131.419 -4.78746 0 5.30255 0 0)
(152.176 -10.9604 0 5.60736 0 0)
(187.788 -11.423 0 9.282 0 0)
(238.28 -28.8396 0 16.8164 0 0)
(291.281 -58.8634 0 32.664 0 0)
(414.646 -178.205 0 107.773 0 0)
(1.86418 0.365193 0 8.52727 0 0)
(5.00911 0.720375 0 8.72887 0 0)
(9.43397 1.14054 0 8.47755 0 0)
(16.2377 1.29522 0 8.37443 0 0)
(24.6396 1.70197 0 8.28468 0 0)
(33.9352 1.50371 0 8.14961 0 0)
(44.8019 1.60005 0 8.04873 0 0)
(55.5011 0.995293 0 7.91657 0 0)
(68.3855 0.604204 0 7.86332 0 0)
(80.0879 -0.589693 0 7.76523 0 0)
(95.3291 -1.77297 0 7.96642 0 0)
(108.51 -4.22046 0 7.91332 0 0)
(128.041 -6.87016 0 9.02852 0 0)
(145.158 -12.2782 0 9.27013 0 0)
(173.882 -19.1843 0 14.5847 0 0)
(217.811 -25.9346 0 17.2113 0 0)
(233.507 -55.5266 0 46.2661 0 0)
(326.548 -171.647 0 138.594 0 0)
(2.56126 0.750794 0 14.0474 0 0)
(6.32342 0.806877 0 14.3994 0 0)
(9.29481 1.54056 0 13.9693 0 0)
(17.0917 1.59504 0 13.7745 0 0)
(24.1288 2.12189 0 13.5996 0 0)
(34.2544 1.93811 0 13.3675 0 0)
(43.9554 1.99356 0 13.162 0 0)
(55.1496 1.41848 0 12.9209 0 0)
(67.2965 0.898909 0 12.7836 0 0)
(78.8758 -0.380575 0 12.5823 0 0)
(94.3806 -1.73146 0 12.7816 0 0)
(105.782 -4.30387 0 12.6897 0 0)
(128.052 -7.25705 0 13.99 0 0)
(137.874 -13.1434 0 14.6683 0 0)
(170.883 -21.8216 0 21.2445 0 0)
(191.403 -33.0143 0 24.5965 0 0)
(210.97 -55.8618 0 51.5713 0 0)
(265.557 -145.598 0 130.606 0 0)
(2.24216 0.721832 0 21.5439 0 0)
(5.54003 0.940385 0 22.16 0 0)
(9.19518 1.76428 0 21.3855 0 0)
(16.3339 2.07803 0 21.1976 0 0)
(23.9644 2.45132 0 20.7987 0 0)
(33.3516 2.54437 0 20.5655 0 0)
(43.5958 2.27713 0 20.0966 0 0)
(54.0279 1.93132 0 19.8665 0 0)
(66.4588 0.902061 0 19.4477 0 0)
(77.329 -0.213086 0 19.2948 0 0)
(92.4768 -2.36406 0 19.2335 0 0)
(103.454 -4.81495 0 19.2761 0 0)
(123.583 -8.9695 0 20.4831 0 0)
(133.865 -14.2477 0 21.4607 0 0)
(161.454 -24.3831 0 28.5166 0 0)
(169.289 -32.3853 0 32.0542 0 0)
(203.31 -58.9678 0 56.8605 0 0)
(190.147 -108.71 0 114.117 0 0)
(1.42087 0.59871 0 29.7702 0 0)
(4.31643 1.13407 0 30.656 0 0)
(8.57693 1.92448 0 29.5082 0 0)
(15.2444 2.47337 0 29.3369 0 0)
(23.1961 2.77872 0 28.6912 0 0)
(32.2526 2.96504 0 28.4302 0 0)
(42.4017 2.60095 0 27.6778 0 0)
(52.7675 2.19441 0 27.3971 0 0)
(64.4001 1.01187 0 26.6723 0 0)
(75.5826 -0.357774 0 26.5069 0 0)
(88.605 -2.74496 0 26.122 0 0)
(100.388 -5.72637 0 26.3461 0 0)
(115.486 -10.3101 0 27.0994 0 0)
(128.022 -15.7854 0 28.6131 0 0)
(144.576 -26.4713 0 33.9207 0 0)
(151.951 -33.4346 0 37.4842 0 0)
(180.251 -54.8529 0 53.1795 0 0)
(139.504 -71.2512 0 83.6811 0 0)
(1.00174 0.5211 0 38.5459 0 0)
(3.7707 1.2871 0 39.7409 0 0)
(8.17118 2.03604 0 38.2027 0 0)
(14.7189 2.7802 0 38.0615 0 0)
(22.6372 3.00679 0 37.1511 0 0)
(31.5722 3.31732 0 36.876 0 0)
(41.4826 2.80744 0 35.824 0 0)
(51.7526 2.47626 0 35.5054 0 0)
(62.7987 1.04276 0 34.4954 0 0)
(73.8122 -0.276242 0 34.2953 0 0)
(85.6171 -3.03909 0 33.6627 0 0)
(96.9754 -5.89533 0 33.922 0 0)
(109.285 -10.9372 0 34.4278 0 0)
(121.162 -16.025 0 36.1464 0 0)
(131.15 -25.5429 0 40.0223 0 0)
(138.077 -33.1816 0 44.753 0 0)
(149.903 -47.2807 0 52.467 0 0)
(123.142 -58.6994 0 73.1184 0 0)
(0.607012 0.48443 0 49.7383 0 0)
(3.22917 1.44586 0 51.3274 0 0)
(7.73498 2.18687 0 49.2295 0 0)
(14.1899 3.03676 0 49.1423 0 0)
(21.9797 3.27462 0 47.8523 0 0)
(30.8345 3.58113 0 47.573 0 0)
(40.4527 3.06722 0 46.1107 0 0)
(50.5832 2.63976 0 45.7419 0 0)
(61.0993 1.16546 0 44.3212 0 0)
(71.7628 -0.288308 0 44.0771 0 0)
(82.6355 -3.13601 0 43.031 0 0)
(93.174 -6.03061 0 43.349 0 0)
(103.803 -11.0827 0 43.3463 0 0)
(113.665 -15.831 0 45.2017 0 0)
(121.264 -24.4859 0 47.6995 0 0)
(125.703 -30.5442 0 51.9686 0 0)
(129.03 -40.6822 0 56.4826 0 0)
(115.955 -48.3486 0 69.0405 0 0)
(0.43253 0.516231 0 63.9399 0 0)
(2.97629 1.62793 0 65.9963 0 0)
(7.46579 2.38408 0 63.3029 0 0)
(13.8383 3.31153 0 63.1914 0 0)
(21.4807 3.57103 0 61.5565 0 0)
(30.1738 3.86112 0 61.1421 0 0)
(39.5264 3.35829 0 59.3328 0 0)
(49.3588 2.82109 0 58.7378 0 0)
(59.4211 1.37242 0 57.0154 0 0)
(69.518 -0.263623 0 56.4971 0 0)
(79.605 -2.97702 0 55.1923 0 0)
(89.1342 -6.07501 0 55.247 0 0)
(98.4428 -10.5442 0 54.8978 0 0)
(106.316 -15.4036 0 56.4438 0 0)
(112.474 -22.1135 0 57.8829 0 0)
(115.007 -28.0251 0 61.6109 0 0)
(115.95 -35.165 0 64.5716 0 0)
(109.508 -40.7588 0 71.4646 0 0)
(0.355884 0.540744 0 81.4421 0 0)
(2.82991 1.74548 0 84.1292 0 0)
(7.25809 2.55553 0 80.6595 0 0)
(13.509 3.50243 0 80.5506 0 0)
(20.9777 3.81013 0 78.463 0 0)
(29.4506 4.03815 0 77.9098 0 0)
(38.5014 3.56217 0 75.6193 0 0)
(47.9641 2.92126 0 74.7941 0 0)
(57.5098 1.48351 0 72.6004 0 0)
(66.9953 -0.219546 0 71.8124 0 0)
(76.2004 -2.86768 0 70.0548 0 0)
(84.7796 -5.85081 0 69.794 0 0)
(92.6784 -9.95235 0 68.9557 0 0)
(99.103 -14.2779 0 69.9071 0 0)
(103.812 -19.7203 0 70.546 0 0)
(105.756 -24.63 0 73.0476 0 0)
(105.91 -29.7909 0 74.9864 0 0)
(101.669 -33.2724 0 78.6376 0 0)
(0.329118 0.569199 0 102.531 0 0)
(2.73479 1.80716 0 105.743 0 0)
(7.06518 2.6835 0 101.715 0 0)
(13.148 3.58398 0 101.246 0 0)
(20.4213 3.93414 0 98.9801 0 0)
(28.5994 4.05553 0 97.9003 0 0)
(37.3258 3.61622 0 95.3842 0 0)
(46.3188 2.83514 0 93.934 0 0)
(55.3397 1.47641 0 91.4957 0 0)
(64.113 -0.339043 0 90.0434 0 0)
(72.4845 -2.75513 0 88.0143 0 0)
(80.0679 -5.68394 0 87.0382 0 0)
(86.783 -9.19144 0 85.8236 0 0)
(92.0395 -13.0777 0 85.8282 0 0)
(95.7375 -17.2924 0 85.775 0 0)
(97.3212 -21.3561 0 86.9135 0 0)
(97.4235 -25.1975 0 87.9376 0 0)
(94.6219 -27.6502 0 89.5383 0 0)
(0.313554 0.57343 0 126.538 0 0)
(2.63953 1.77429 0 130.47 0 0)
(6.84443 2.6678 0 125.758 0 0)
(12.7239 3.46356 0 124.948 0 0)
(19.7552 3.79173 0 122.416 0 0)
(27.5996 3.80626 0 120.838 0 0)
(35.9342 3.33352 0 117.954 0 0)
(44.4367 2.48761 0 115.919 0 0)
(52.8663 1.13407 0 113.057 0 0)
(60.9529 -0.627642 0 110.964 0 0)
(68.4952 -2.89376 0 108.471 0 0)
(75.2127 -5.52361 0 106.742 0 0)
(80.9454 -8.57646 0 104.971 0 0)
(85.3907 -11.7975 0 103.964 0 0)
(88.4333 -15.1577 0 103.129 0 0)
(89.8697 -18.3229 0 102.952 0 0)
(90.172 -21.2397 0 102.962 0 0)
(88.2106 -22.8846 0 103.11 0 0)
(0.29916 0.524938 0 151.967 0 0)
(2.53159 1.58184 0 156.473 0 0)
(6.58032 2.37753 0 151.34 0 0)
(12.2262 2.98791 0 149.901 0 0)
(18.9624 3.21184 0 147.341 0 0)
(26.4356 3.07044 0 145.028 0 0)
(34.3297 2.53086 0 141.937 0 0)
(42.3125 1.59986 0 139.129 0 0)
(50.1427 0.271839 0 135.928 0 0)
(57.5556 -1.43146 0 133.049 0 0)
(64.3626 -3.49147 0 130.095 0 0)
(70.3363 -5.82717 0 127.519 0 0)
(75.3459 -8.40201 0 125.113 0 0)
(79.2294 -11.052 0 123.108 0 0)
(81.9252 -13.688 0 121.391 0 0)
(83.3418 -16.1508 0 120.049 0 0)
(83.9241 -18.3476 0 118.957 0 0)
(82.7179 -19.3921 0 117.842 0 0)
(0.283851 0.394163 0 175.202 0 0)
(2.41318 1.14535 0 180.407 0 0)
(6.28017 1.67018 0 174.795 0 0)
(11.6646 2.00253 0 172.912 0 0)
(18.0673 2.00001 0 170.229 0 0)
(25.1422 1.66369 0 167.377 0 0)
(32.5688 0.983814 0 163.989 0 0)
(40.0317 -0.0241788 0 160.59 0 0)
(47.2838 -1.35735 0 156.971 0 0)
(54.092 -2.96787 0 153.454 0 0)
(60.2786 -4.83466 0 149.964 0 0)
(65.6793 -6.86381 0 146.67 0 0)
(70.1896 -9.01633 0 143.57 0 0)
(73.7363 -11.1625 0 140.712 0 0)
(76.2899 -13.2247 0 138.119 0 0)
(77.8148 -15.1228 0 135.79 0 0)
(78.6964 -16.769 0 133.675 0 0)
(78.1483 -17.3653 0 131.473 0 0)
(0.268644 0.156229 0 190.321 0 0)
(2.29235 0.390495 0 195.999 0 0)
(5.96374 0.488123 0 190.101 0 0)
(11.0692 0.409469 0 187.958 0 0)
(17.1219 0.0729188 0 185.21 0 0)
(23.7894 -0.535193 0 182.039 0 0)
(30.7545 -1.40389 0 178.458 0 0)
(37.7221 -2.52547 0 174.703 0 0)
(44.4562 -3.87428 0 170.789 0 0)
(50.7509 -5.41323 0 166.868 0 0)
(56.4531 -7.0989 0 162.973 0 0)
(61.4416 -8.86618 0 159.191 0 0)
(65.6408 -10.6607 0 155.553 0 0)
(69.0215 -12.4044 0 152.088 0 0)
(71.5765 -14.0215 0 148.82 0 0)
(73.2947 -15.4905 0 145.773 0 0)
(74.489 -16.7257 0 142.878 0 0)
(74.5336 -17.0455 0 139.88 0 0)
(0.258985 -0.142822 0 190.294 0 0)
(2.19485 -0.535343 0 195.93 0 0)
(5.68722 -0.939372 0 190.095 0 0)
(10.5367 -1.49502 0 187.943 0 0)
(16.2739 -2.2157 0 185.239 0 0)
(22.5814 -3.11817 0 182.073 0 0)
(29.1514 -4.19153 0 178.518 0 0)
(35.7112 -5.43008 0 174.766 0 0)
(42.0384 -6.80334 0 170.839 0 0)
(47.9555 -8.28274 0 166.885 0 0)
(53.3265 -9.82152 0 162.909 0 0)
(58.0632 -11.3772 0 159.021 0 0)
(62.1043 -12.897 0 155.206 0 0)
(65.4441 -14.3375 0 151.54 0 0)
(68.0811 -15.6335 0 147.997 0 0)
(70.0208 -16.7921 0 144.656 0 0)
(71.4966 -17.7381 0 141.406 0 0)
(72.0304 -17.9419 0 138.073 0 0)
(0.255833 -0.396755 0 174.469 0 0)
(2.13572 -1.3077 0 179.424 0 0)
(5.49662 -2.12989 0 174.092 0 0)
(10.1563 -3.07892 0 172.098 0 0)
(15.6603 -4.10774 0 169.616 0 0)
(21.7039 -5.2371 0 166.726 0 0)
(27.9901 -6.4599 0 163.473 0 0)
(34.2646 -7.77307 0 160.048 0 0)
(40.3174 -9.14816 0 156.441 0 0)
(45.992 -10.5653 0 152.811 0 0)
(51.1634 -11.9826 0 149.126 0 0)
(55.7632 -13.3735 0 145.517 0 0)
(59.7383 -14.6932 0 141.933 0 0)
(63.0927 -15.9185 0 138.479 0 0)
(65.8244 -16.9979 0 135.094 0 0)
(67.9508 -17.9467 0 131.891 0 0)
(69.6411 -18.7037 0 128.734 0 0)
(70.5379 -18.8905 0 125.533 0 0)
(0.257295 -0.545925 0 149.02 0 0)
(2.10798 -1.74889 0 152.981 0 0)
(5.38232 -2.82505 0 148.442 0 0)
(9.91454 -4.00901 0 146.725 0 0)
(15.262 -5.21307 0 144.603 0 0)
(21.1288 -6.46224 0 142.149 0 0)
(27.2274 -7.74853 0 139.384 0 0)
(33.3161 -9.07379 0 136.478 0 0)
(39.195 -10.4107 0 133.405 0 0)
(44.7207 -11.7493 0 130.312 0 0)
(49.778 -13.0513 0 127.154 0 0)
(54.3075 -14.3037 0 124.059 0 0)
(58.2631 -15.467 0 120.963 0 0)
(61.6505 -16.5325 0 117.973 0 0)
(64.4686 -17.4564 0 115.023 0 0)
(66.7397 -18.2578 0 112.224 0 0)
(68.5889 -18.8863 0 109.45 0 0)
(69.7486 -19.0951 0 106.658 0 0)
(0.260169 -0.601675 0 120.103 0 0)
(2.0991 -1.89095 0 123.075 0 0)
(5.31638 -3.0695 0 119.425 0 0)
(9.76331 -4.34299 0 118.031 0 0)
(15.0059 -5.60159 0 116.324 0 0)
(20.7553 -6.87144 0 114.359 0 0)
(26.7303 -8.14226 0 112.146 0 0)
(32.6984 -9.41943 0 109.818 0 0)
(38.4671 -10.6776 0 107.354 0 0)
(43.9013 -11.9137 0 104.869 0 0)
(48.8934 -13.0939 0 102.326 0 0)
(53.389 -14.2137 0 99.8266 0 0)
(57.3469 -15.2388 0 97.3209 0 0)
(60.7718 -16.1691 0 94.8946 0 0)
(63.664 -16.9676 0 92.4954 0 0)
(66.0483 -17.6539 0 90.2111 0 0)
(68.0196 -18.1872 0 87.9453 0 0)
(69.3779 -18.4222 0 85.6692 0 0)
(0.263107 -0.590838 0 91.9383 0 0)
(2.09877 -1.831 0 94.055 0 0)
(5.27868 -2.99818 0 91.2627 0 0)
(9.6688 -4.249 0 90.1889 0 0)
(14.841 -5.46954 0 88.8892 0 0)
(20.5118 -6.68225 0 87.394 0 0)
(26.4052 -7.87667 0 85.7129 0 0)
(32.2946 -9.05782 0 83.9405 0 0)
(37.9932 -10.205 0 82.0641 0 0)
(43.3713 -11.3169 0 80.1665 0 0)
(48.3269 -12.3667 0 78.225 0 0)
(52.8081 -13.3527 0 76.3098 0 0)
(56.7773 -14.2475 0 74.391 0 0)
(60.2375 -15.0536 0 72.527 0 0)
(63.1907 -15.7429 0 70.6849 0 0)
(65.6636 -16.3304 0 68.9243 0 0)
(67.7292 -16.7869 0 67.1808 0 0)
(69.2403 -17.0359 0 65.4271 0 0)
(0.266211 -0.536967 0 66.9716 0 0)
(2.10266 -1.65162 0 68.4128 0 0)
(5.25744 -2.73184 0 66.3801 0 0)
(9.60988 -3.88505 0 65.597 0 0)
(14.7348 -5.00485 0 64.6586 0 0)
(20.3534 -6.10713 0 63.5765 0 0)
(26.1933 -7.18386 0 62.3619 0 0)
(32.0316 -8.23695 0 61.0758 0 0)
(37.6864 -9.25159 0 59.7165 0 0)
(43.0309 -10.2253 0 58.3362 0 0)
(47.9676 -11.139 0 56.9268 0 0)
(52.4458 -11.99 0 55.5317 0 0)
(56.43 -12.7592 0 54.1372 0 0)
(59.9223 -13.4481 0 52.778 0 0)
(62.9254 -14.0372 0 51.4374 0 0)
(65.4674 -14.5358 0 50.151 0 0)
(67.6054 -14.9256 0 48.8808 0 0)
(69.2343 -15.1731 0 47.5993 0 0)
(0.268025 -0.463054 0 46.3159 0 0)
(2.10707 -1.4165 0 47.2552 0 0)
(5.24563 -2.36469 0 45.8538 0 0)
(9.57314 -3.37632 0 45.3157 0 0)
(14.6665 -4.35761 0 44.6743 0 0)
(20.2505 -5.31798 0 43.9303 0 0)
(26.0559 -6.25243 0 43.096 0 0)
(31.8619 -7.15923 0 42.2085 0 0)
(37.49 -8.02948 0 41.2727 0 0)
(42.8152 -8.8585 0 40.3192 0 0)
(47.7428 -9.63404 0 39.3489 0 0)
(52.2229 -10.3521 0 38.3859 0 0)
(56.2216 -11.0004 0 37.4261 0 0)
(59.7399 -11.5783 0 36.4877 0 0)
(62.781 -12.0737 0 35.5641 0 0)
(65.3738 -12.4902 0 34.6747 0 0)
(67.5638 -12.8181 0 33.7995 0 0)
(69.2786 -13.0483 0 32.913 0 0)
(0.269213 -0.383221 0 30.1752 0 0)
(2.11065 -1.16512 0 30.7599 0 0)
(5.23894 -1.95904 0 29.8492 0 0)
(9.54974 -2.80829 0 29.502 0 0)
(14.6218 -3.63214 0 29.0897 0 0)
(20.1826 -4.43679 0 28.609 0 0)
(25.965 -5.21848 0 28.0697 0 0)
(31.7489 -5.9742 0 27.4939 0 0)
(37.3582 -6.69745 0 26.8877 0 0)
(42.6689 -7.38347 0 26.2691 0 0)
(47.5881 -8.02373 0 25.6409 0 0)
(52.0656 -8.61411 0 25.0163 0 0)
(56.0697 -9.14664 0 24.395 0 0)
(59.6002 -9.61943 0 23.7862 0 0)
(62.6609 -10.025 0 23.1878 0 0)
(65.2795 -10.3635 0 22.6099 0 0)
(67.4965 -10.6306 0 22.0427 0 0)
(69.2643 -10.8281 0 21.4669 0 0)
(0.269532 -0.304719 0 18.222 0 0)
(2.11243 -0.920129 0 18.5664 0 0)
(5.23359 -1.55467 0 18.0155 0 0)
(9.53038 -2.2378 0 17.8094 0 0)
(14.5835 -2.90212 0 17.5663 0 0)
(20.1222 -3.55224 0 17.2817 0 0)
(25.8802 -4.1834 0 16.9614 0 0)
(31.6386 -4.79231 0 16.6184 0 0)
(37.2222 -5.3724 0 16.2565 0 0)
(42.5077 -5.92021 0 15.8864 0 0)
(47.4044 -6.42848 0 15.5096 0 0)
(51.861 -6.89485 0 15.1344 0 0)
(55.8493 -7.3125 0 14.7608 0 0)
(59.367 -7.68117 0 14.3939 0 0)
(62.4225 -7.99504 0 14.0333 0 0)
(65.0384 -8.2547 0 13.6842 0 0)
(67.2585 -8.45932 0 13.3421 0 0)
(69.0538 -8.60965 0 12.9951 0 0)
(0.269162 -0.228356 0 9.88772 0 0)
(2.11017 -0.691496 0 10.0714 0 0)
(5.21638 -1.17905 0 9.77401 0 0)
(9.48693 -1.70895 0 9.67162 0 0)
(14.5099 -2.2235 0 9.5472 0 0)
(20.0152 -2.72402 0 9.39798 0 0)
(25.7363 -3.20618 0 9.22727 0 0)
(31.4568 -3.6675 0 9.04301 0 0)
(37.0013 -4.10223 0 8.84721 0 0)
(42.2497 -4.50881 0 8.64616 0 0)
(47.1105 -4.88167 0 8.44045 0 0)
(51.537 -5.22097 0 8.23526 0 0)
(55.5 -5.5209 0 8.03002 0 0)
(59.0015 -5.78368 0 7.8287 0 0)
(62.0489 -6.00322 0 7.63035 0 0)
(64.6639 -6.18305 0 7.43897 0 0)
(66.8878 -6.32614 0 7.25213 0 0)
(68.7165 -6.42815 0 7.06385 0 0)
(0.268043 -0.154852 0 4.48854 0 0)
(2.08333 -0.49801 0 4.5842 0 0)
(5.15512 -0.852609 0 4.45895 0 0)
(9.38617 -1.2291 0 4.42332 0 0)
(14.3836 -1.58624 0 4.37224 0 0)
(19.8635 -1.92861 0 4.30781 0 0)
(25.558 -2.25361 0 4.23048 0 0)
(31.2526 -2.55896 0 4.14397 0 0)
(36.7742 -2.84309 0 4.05091 0 0)
(42.0019 -3.10717 0 3.95507 0 0)
(46.8459 -3.34831 0 3.85723 0 0)
(51.2632 -3.56735 0 3.76011 0 0)
(55.2204 -3.76056 0 3.66318 0 0)
(58.7279 -3.93001 0 3.56917 0 0)
(61.7818 -4.06958 0 3.47647 0 0)
(64.4156 -4.1846 0 3.38897 0 0)
(66.6366 -4.27506 0 3.30369 0 0)
(68.4935 -4.34507 0 3.21946 0 0)
(0.255137 -0.0882151 0 1.42179 0 0)
(2.06733 -0.31352 0 1.48755 0 0)
(5.20352 -0.526118 0 1.44747 0 0)
(9.49301 -0.734545 0 1.43432 0 0)
(14.5438 -0.924683 0 1.41421 0 0)
(20.0749 -1.10732 0 1.39094 0 0)
(25.8256 -1.28396 0 1.36429 0 0)
(31.5792 -1.45205 0 1.33495 0 0)
(37.1622 -1.60997 0 1.30395 0 0)
(42.4488 -1.75752 0 1.27233 0 0)
(47.3523 -1.89322 0 1.24051 0 0)
(51.8218 -2.01707 0 1.20909 0 0)
(55.8287 -2.12706 0 1.17803 0 0)
(59.3758 -2.22383 0 1.14805 0 0)
(62.463 -2.30333 0 1.11878 0 0)
(65.1281 -2.36953 0 1.09228 0 0)
(67.3488 -2.42211 0 1.06706 0 0)
(69.1977 -2.46158 0 1.0401 0 0)
(0.24582 -0.0253385 0 0.141924 0 0)
(2.06516 -0.0978416 0 0.15371 0 0)
(5.18242 -0.165595 0 0.150923 0 0)
(9.44111 -0.230852 0 0.149755 0 0)
(14.4732 -0.293756 0 0.147452 0 0)
(19.9917 -0.354084 0 0.144724 0 0)
(25.7358 -0.412899 0 0.141724 0 0)
(31.4871 -0.469384 0 0.138593 0 0)
(37.0772 -0.522719 0 0.135369 0 0)
(42.3818 -0.572713 0 0.132117 0 0)
(47.3158 -0.61906 0 0.128859 0 0)
(51.8261 -0.661731 0 0.125655 0 0)
(55.8865 -0.700157 0 0.122511 0 0)
(59.4922 -0.734195 0 0.119486 0 0)
(62.6496 -0.763113 0 0.11666 0 0)
(65.3915 -0.788353 0 0.114321 0 0)
(67.7023 -0.806563 0 0.112245 0 0)
(69.6288 -0.815874 0 0.11186 0 0)
(0.0244878 0.0357733 0 0.718014 0 0)
(0.267343 0.0991467 0 0.679035 0 0)
(0.785728 0.180995 0 0.671856 0 0)
(1.53939 0.295165 0 0.662596 0 0)
(2.4865 0.424309 0 0.660985 0 0)
(3.60885 0.569258 0 0.657718 0 0)
(4.88451 0.716413 -2.38546e-19 0.65577 -6.49514e-20 1.47993e-37)
(6.31069 0.867396 2.42453e-19 0.651476 6.92657e-20 1.48446e-37)
(7.8807 1.0144 0 0.645468 0 0)
(9.59257 1.16187 2.44675e-19 0.637893 6.86821e-20 1.4622e-37)
(11.4411 1.30595 0 0.629305 0 0)
(13.4202 1.44885 0 0.620203 0 0)
(15.5235 1.586 0 0.612241 0 0)
(17.7445 1.7177 -2.76938e-19 0.605769 -5.17544e-20 1.3484e-37)
(20.0771 1.84081 0 0.59955 0 0)
(22.5218 1.95437 0 0.594307 0 0)
(25.0787 2.05422 3.40047e-19 0.589989 3.90492e-20 1.22165e-37)
(27.7464 2.14201 0 0.585521 0 0)
(30.5198 2.22049 0 0.580848 0 0)
(33.393 2.29195 0 0.576388 0 0)
(36.3502 2.35532 -4.55951e-19 0.573044 -1.96065e-20 1.01833e-37)
(39.3818 2.41122 0 0.569299 0 0)
(42.474 2.45771 -5.15725e-19 0.567031 -1.0312e-20 9.25759e-38)
(45.6177 2.49475 0 0.568198 0 0)
(48.7966 2.52854 0 0.5689 0 0)
(51.9966 2.55177 -6.03876e-19 0.571033 1.17426e-21 7.98132e-38)
(55.2107 2.55414 0 0.572882 0 0)
(58.443 2.53687 6.57513e-19 0.571411 -6.90225e-21 7.22012e-38)
(61.6877 2.50592 0 0.563605 0 0)
(64.9506 2.46312 -7.02292e-19 0.553245 1.0481e-20 6.54347e-38)
(68.2305 2.4111 0 0.539715 0 0)
(71.5149 2.35235 0 0.523902 0 0)
(74.7961 2.28676 0 0.509856 0 0)
(78.0759 2.21059 0 0.498469 0 0)
(81.3479 2.12323 0 0.48691 0 0)
(84.609 2.02763 7.79543e-19 0.475995 -1.40144e-20 4.60241e-38)
(87.8578 1.92364 0 0.464352 0 0)
(91.0952 1.81111 -1.56223e-18 0.448274 2.71844e-20 1.61474e-37)
(94.3198 1.69171 0 0.432655 0 0)
(97.5266 1.56432 1.55225e-18 0.418016 -2.61977e-20 1.40052e-37)
(100.709 1.43136 0 0.402854 0 0)
(103.865 1.28916 0 0.391182 0 0)
(106.987 1.13867 -1.51424e-18 0.378617 2.15826e-20 1.11346e-37)
(110.056 0.985908 0 0.365803 0 0)
(113.059 0.831136 -1.47569e-18 0.354999 1.82727e-20 9.4405e-38)
(115.98 0.673251 1.45323e-18 0.346142 -1.65377e-20 8.67096e-38)
(118.803 0.509547 0 0.340021 0 0)
(121.52 0.339646 1.4024e-18 0.335243 -1.25122e-20 7.34925e-38)
(124.115 0.164297 1.37417e-18 0.331343 -1.06454e-20 6.80269e-38)
(126.588 -0.0135069 0 0.328072 0 0)
(128.925 -0.192728 0 0.32592 0 0)
(131.107 -0.376189 0 0.323216 0 0)
(133.113 -0.564647 0 0.32199 0 0)
(134.923 -0.755496 0 0.32403 0 0)
(136.51 -0.94549 -1.17363e-18 0.328233 -4.39914e-21 5.02074e-38)
(137.847 -1.13697 0 0.332309 0 0)
(138.922 -1.33326 1.07903e-18 0.335934 1.14453e-20 4.75519e-38)
(139.738 -1.53597 0 0.341088 0 0)
(140.29 -1.74451 0 0.347903 0 0)
(140.561 -1.94996 -9.11545e-19 0.357263 -2.24628e-20 4.75553e-38)
(140.547 -2.15348 0 0.36917 0 0)
(140.229 -2.35774 7.8022e-19 0.381033 3.12768e-20 4.9725e-38)
(139.615 -2.561 0 0.391234 0 0)
(138.7 -2.76456 0 0.404004 0 0)
(137.494 -2.96749 0 0.418163 0 0)
(136.01 -3.16324 -4.81815e-19 0.43257 -4.76359e-20 6.03473e-38)
(134.251 -3.35242 0 0.447312 0 0)
(132.229 -3.53523 0 0.460419 0 0)
(129.958 -3.71072 -2.25917e-19 0.474103 -6.12039e-20 7.30425e-38)
(127.457 -3.88401 0 0.489205 0 0)
(124.764 -4.05011 -5.03441e-20 0.504403 -6.98223e-20 8.30254e-38)
(121.889 -4.20378 0 0.519869 0 0)
(118.851 -4.34533 0 0.53587 0 0)
(115.68 -4.47605 0 0.553013 0 0)
(112.399 -4.59742 -3.05107e-19 0.571159 8.31539e-20 1.04533e-37)
(109.025 -4.70666 0 0.589257 0 0)
(105.577 -4.8005 0 0.60722 0 0)
(102.063 -4.87926 -5.64225e-19 0.625312 9.02717e-20 1.20153e-37)
(98.4988 -4.94739 -6.45945e-19 0.644075 9.18078e-20 1.25264e-37)
(94.9107 -5.00451 0 0.662871 0 0)
(91.3298 -5.04974 -7.98828e-19 0.682591 9.45795e-20 1.34679e-37)
(87.7771 -5.08379 0 0.703803 0 0)
(84.2729 -5.10598 -1.87721e-18 0.725378 1.92486e-19 5.74316e-37)
(80.8316 -5.11529 0 0.748024 0 0)
(77.4709 -5.11007 -2.12215e-18 0.770603 1.93623e-19 6.07436e-37)
(74.2092 -5.08856 0 0.793555 0 0)
(71.0605 -5.05398 2.32469e-18 0.81954 -1.93776e-19 6.36393e-37)
(68.0423 -5.00613 0 0.844601 0 0)
(65.1692 -4.93972 0 0.866933 0 0)
(62.4409 -4.85465 0 0.889662 0 0)
(59.8619 -4.75273 -2.58524e-18 0.914691 1.86154e-19 6.79696e-37)
(57.4379 -4.63647 0 0.939316 0 0)
(55.1775 -4.50401 2.64586e-18 0.963541 -1.79913e-19 6.94428e-37)
(53.0829 -4.35496 0 0.987242 0 0)
(51.1427 -4.18369 -2.65784e-18 1.01079 1.73643e-19 7.03227e-37)
(49.3522 -3.99599 -2.6488e-18 1.03207 1.7044e-19 7.06721e-37)
(47.6991 -3.79555 -2.63007e-18 1.05327 1.66296e-19 7.09384e-37)
(46.1784 -3.58598 0 1.07564 0 0)
(44.7638 -3.36645 0 1.09877 0 0)
(43.4666 -3.13806 0 1.11835 0 0)
(42.269 -2.90088 0 1.13817 0 0)
(41.1658 -2.66171 0 1.15793 0 0)
(40.1379 -2.4219 0 1.17698 0 0)
(39.1852 -2.17972 0 1.19208 0 0)
(38.2576 -1.93633 0 1.20804 0 0)
(37.3584 -1.69953 2.02547e-18 1.22312 -1.31535e-19 7.07412e-37)
(36.4486 -1.47114 1.9113e-18 1.24038 -1.24253e-19 7.06653e-37)
(35.5566 -1.25208 0 1.25181 0 0)
(34.643 -1.04146 0 1.26484 0 0)
(33.7226 -0.854625 0 1.27883 0 0)
(32.7391 -0.678182 1.35501e-18 1.29186 -1.04881e-19 6.90663e-37)
(31.7963 -0.528323 0 1.29921 0 0)
(30.7873 -0.386273 0 1.30899 0 0)
(29.8324 -0.283868 0 1.31914 0 0)
(28.9093 -0.200835 0 1.33219 0 0)
(28.0842 -0.150669 -4.40818e-19 1.34053 7.56547e-20 6.65863e-37)
(27.39 -0.124362 0 1.34964 0 0)
(26.8547 -0.132831 0 1.36305 0 0)
(26.5625 -0.174828 -2.22412e-19 1.37063 -6.50979e-20 6.42189e-37)
(26.5115 -0.243455 4.49839e-19 1.38367 6.10145e-20 6.2978e-37)
(26.7581 -0.353211 0 1.4006 0 0)
(27.3556 -0.509621 9.12304e-19 1.41782 6.00832e-20 6.0519e-37)
(28.3688 -0.706132 0 1.43695 0 0)
(29.86 -0.958128 -1.35349e-18 1.4546 -6.45945e-20 5.75544e-37)
(31.85 -1.24398 0 1.47731 0 0)
(34.413 -1.57969 0 1.5043 0 0)
(37.4479 -1.95761 0 1.53701 0 0)
(41.0651 -2.3861 0 1.57125 0 0)
(45.1172 -2.84062 0 1.60928 0 0)
(49.6094 -3.34174 4.89747e-18 1.65144 2.04627e-19 1.9718e-36)
(54.4766 -3.88675 5.15232e-18 1.69754 2.30561e-19 1.93698e-36)
(59.7394 -4.4676 0 1.7456 0 0)
(65.1957 -5.0687 0 1.80154 0 0)
(70.813 -5.69573 0 1.85674 0 0)
(76.4343 -6.30774 -5.69225e-18 1.91765 -3.52121e-19 1.91698e-36)
(81.8393 -6.92211 0 1.98879 0 0)
(86.9843 -7.543 0 2.06098 0 0)
(91.8147 -8.15733 0 2.13747 0 0)
(96.2548 -8.75036 -5.331e-18 2.21575 -5.33275e-19 2.07124e-36)
(100.287 -9.31722 5.09702e-18 2.2992 5.81952e-19 2.1329e-36)
(103.698 -9.83954 0 2.39 0 0)
(106.607 -10.3492 0 2.48281 0 0)
(108.978 -10.8032 4.07867e-18 2.57739 7.34982e-19 2.3649e-36)
(110.82 -11.2229 3.64968e-18 2.67079 7.83842e-19 2.45018e-36)
(111.977 -11.5676 0 2.7711 0 0)
(112.553 -11.8832 0 2.87105 0 0)
(112.438 -12.1261 -2.05234e-18 2.97507 -9.45349e-19 2.71809e-36)
(111.764 -12.3508 1.42257e-18 3.07009 9.88979e-19 2.7968e-36)
(110.576 -12.5053 0 3.16692 0 0)
(108.671 -12.6054 0 3.26761 0 0)
(106.173 -12.6395 -5.21754e-19 3.35854 1.11688e-18 3.06744e-36)
(103.042 -12.6194 0 3.44907 0 0)
(99.5636 -12.562 0 3.53271 0 0)
(95.5769 -12.4134 -2.54872e-18 3.60524 1.20591e-18 3.29993e-36)
(91.2788 -12.1932 0 3.67729 0 0)
(86.6577 -11.8619 -3.83243e-18 3.73886 1.2569e-18 3.44286e-36)
(81.7719 -11.4456 0 3.79465 0 0)
(76.6661 -10.9112 0 3.83383 0 0)
(71.7245 -10.2785 0 3.85798 0 0)
(66.8393 -9.48074 5.87165e-18 3.8768 -1.27769e-18 3.68111e-36)
(62.1763 -8.56346 0 3.88042 0 0)
(57.951 -7.49402 0 3.86832 0 0)
(54.4875 -6.30472 0 3.84048 0 0)
(51.6231 -4.92668 0 3.7985 0 0)
(49.528 -3.46756 0 3.74787 0 0)
(48.8028 -1.9136 0 3.67595 0 0)
(49.6372 -0.289937 6.02094e-18 3.5863 -1.10423e-18 3.72705e-36)
(51.6911 1.42346 5.60523e-18 3.48805 -1.05006e-18 3.70968e-36)
(55.3911 3.11575 0 3.3765 0 0)
(60.6463 4.74254 0 3.25856 0 0)
(67.4526 6.32301 0 3.12907 0 0)
(75.3874 7.79674 -3.05195e-18 2.99936 7.95265e-19 3.38392e-36)
(84.516 9.09836 0 2.87113 0 0)
(94.0771 10.2867 2.9472e-18 2.73607 -1.35078e-18 1.23639e-35)
(103.969 11.2443 -1.30932e-18 2.6053 1.21796e-18 1.16627e-35)
(113.611 12.0352 3.18663e-19 2.474 1.10539e-18 1.10204e-35)
(123.269 12.6864 -2.02169e-18 2.3492 -1.01451e-18 1.03354e-35)
(131.393 13.2279 3.67417e-18 2.23022 9.23069e-19 9.7609e-36)
(139.271 13.7054 -5.27898e-18 2.12294 -9.03751e-19 8.99668e-36)
(143.024 14.3986 0 2.06703 0 0)
(0.0183122 0.174312 0 6.10208 0 0)
(0.202727 0.388126 0 6.03999 0 0)
(0.629485 0.610202 1.31902e-19 5.86683 1.75714e-19 6.76787e-37)
(1.32703 0.854917 0 5.74568 0 0)
(2.26915 1.13441 -1.92093e-19 5.68568 -3.54064e-19 9.19985e-37)
(3.44533 1.43935 -1.8334e-19 5.65848 -4.42237e-19 9.73168e-37)
(4.83454 1.76406 -8.01757e-20 5.64311 -2.51915e-19 2.49126e-37)
(6.42251 2.10461 -6.82514e-20 5.62511 -2.7086e-19 2.61372e-37)
(8.20132 2.45382 0 5.59676 0 0)
(10.169 2.80716 -4.11735e-20 5.55416 -2.69645e-19 2.59506e-37)
(12.3268 3.15582 0 5.50229 0 0)
(14.6729 3.49738 0 5.44269 0 0)
(17.1991 3.82671 9.25265e-20 5.3744 4.24451e-19 9.51482e-37)
(19.9059 4.14334 6.84345e-20 5.30248 1.8718e-19 2.34224e-37)
(22.7828 4.43773 -1.83346e-19 5.22718 -3.26719e-19 8.94004e-37)
(25.8236 4.70985 -2.49634e-19 5.14884 -2.81617e-19 8.66272e-37)
(29.017 4.9611 -1.70198e-19 5.06435 -1.18606e-19 2.12838e-37)
(32.3567 5.1929 0 4.97351 0 0)
(35.831 5.40363 0 4.87771 0 0)
(39.4313 5.59782 0 4.77489 0 0)
(43.1341 5.77474 -3.85936e-19 4.66979 -3.67393e-20 1.8048e-37)
(46.9303 5.93175 0 4.56509 0 0)
(50.7972 6.06039 1.60718e-18 4.45835 -1.61468e-20 1.55253e-36)
(54.7223 6.16423 0 4.35516 0 0)
(58.6889 6.24487 0 4.24978 0 0)
(62.6799 6.30241 7.74381e-19 4.14544 -5.76824e-20 1.56578e-37)
(66.6675 6.33352 0 4.03941 0 0)
(70.6331 6.34758 -9.32719e-19 3.93877 8.1824e-20 1.46075e-37)
(74.5429 6.33825 -1.99326e-18 3.8388 1.81634e-19 5.57401e-37)
(78.3869 6.30041 1.07698e-18 3.73603 -9.88028e-20 1.36699e-37)
(82.1611 6.23106 0 3.6282 0 0)
(85.8655 6.13382 0 3.52287 0 0)
(89.4865 6.01116 0 3.41943 0 0)
(93.0282 5.8642 -2.57701e-18 3.31121 2.22877e-19 4.7167e-37)
(96.4821 5.68744 -2.6554e-18 3.20362 2.20362e-19 4.555e-37)
(99.8618 5.48125 -1.37392e-18 3.10246 1.07587e-19 1.10841e-37)
(103.176 5.24392 0 3.01034 0 0)
(106.417 4.97057 2.83873e-18 2.922 -2.02929e-19 4.13149e-37)
(109.594 4.65907 0 2.8366 0 0)
(112.7 4.31884 -2.87545e-18 2.75492 1.88309e-19 3.81891e-37)
(115.743 3.9509 0 2.67444 0 0)
(118.72 3.56316 0 2.60228 0 0)
(121.637 3.15961 2.82836e-18 2.53138 -1.53984e-19 3.31983e-37)
(124.479 2.73716 0 2.46609 0 0)
(127.228 2.28914 8.16195e-18 2.40817 -3.93287e-19 2.68691e-36)
(129.881 1.81142 -2.68946e-18 2.36288 1.19182e-19 2.8396e-37)
(132.442 1.30832 0 2.33572 0 0)
(134.928 0.780122 -2.54969e-18 2.31989 9.09802e-20 2.51999e-37)
(137.322 0.219165 -2.46897e-18 2.31366 7.67406e-20 2.36417e-37)
(139.624 -0.367631 0 2.31579 0 0)
(141.809 -0.965918 0 2.32885 0 0)
(143.858 -1.56194 0 2.34365 0 0)
(145.759 -2.14634 0 2.35715 0 0)
(147.472 -2.72361 0 2.38081 0 0)
(148.987 -3.30284 1.88334e-18 2.41365 1.45208e-20 1.72238e-37)
(150.282 -3.89143 3.45096e-18 2.45698 7.11358e-20 6.56445e-37)
(151.337 -4.48368 -1.64428e-18 2.508 -5.58965e-20 1.60242e-37)
(152.165 -5.094 0 2.56399 0 0)
(152.736 -5.70505 2.68671e-18 2.62708 1.90185e-19 6.0197e-37)
(153.024 -6.29475 -1.16995e-18 2.69526 -1.13251e-19 1.46996e-37)
(153.057 -6.87912 0 2.77214 0 0)
(152.782 -7.45742 -9.78182e-19 2.8621 -1.48656e-19 1.49636e-37)
(152.213 -8.01381 0 2.95529 0 0)
(151.341 -8.56085 0 3.05636 0 0)
(150.163 -9.08962 -1.04724e-18 3.1622 -3.96968e-19 6.26023e-37)
(148.666 -9.58961 4.22385e-19 3.27277 2.15249e-19 1.63859e-37)
(146.888 -10.082 -4.88554e-19 3.39282 -4.62209e-19 6.68838e-37)
(144.824 -10.5531 2.11355e-19 3.5171 4.89088e-19 6.92601e-37)
(142.5 -11.0001 9.71894e-21 3.64258 2.54436e-19 1.82788e-37)
(139.902 -11.4208 0 3.7731 0 0)