/*--------------------------------*- C++ -*----------------------------------*\
| =========                 |                                                 |
| \\      /  F ield         | OpenFOAM: The Open Source CFD Toolbox           |
|  \\    /   O peration     | Version:  dev                                   |
|   \\  /    A nd           | Web:      http://www.openfoam.org               |
|    \\/     M anipulation  |                                                 |
\*---------------------------------------------------------------------------*/
FoamFile
{
    version     2.0;
    format      ascii;
    class       volScalarField;
    object      k;
    location    "9.144";
}
// * * * * * * * * * * * * * * * * * * * * * * * * * * * * * * * * * * * * * //

dimensions      [0 2 -2 0 0 0 0];

internalField   nonuniform List<scalar> 
12225
(
7.91697
9.68836
6.73381
7.2176
7.02244
8.46596
9.78725
11.0512
13.3975
14.4656
18.2018
17.9615
25.2607
20.5135
29.5896
23.0539
29.907
44.1319
1.59661
6.3776
5.69441
7.10564
5.46184
7.26204
6.07097
7.68515
7.14905
8.67081
8.35661
10.0441
10.7284
10.2433
14.7336
18.0545
39.3327
57.1088
0.135681
1.68817
1.94474
3.31893
2.89477
3.93443
3.27765
4.31888
3.51688
4.47333
3.89285
4.23943
5.12866
3.47635
5.44412
6.01335
24.7165
54.2254
0.0229969
0.405103
0.5939
1.13593
1.20442
1.46594
1.47263
1.74073
1.61
1.65138
1.76118
1.6681
2.23698
1.42101
2.22621
2.58013
13.2094
34.5262
0.00472684
0.0737031
0.134608
0.267915
0.421654
0.475302
0.617209
0.65688
0.764092
0.733665
0.900893
0.903026
1.06752
0.894257
1.21146
1.07798
5.13257
14.2602
0.00309767
0.0624758
0.0881067
0.19983
0.241379
0.353088
0.380888
0.531129
0.520594
0.509781
0.669034
0.724757
0.807717
0.708277
0.971584
0.813513
2.20304
4.91481
0.00979258
0.112587
0.11806
0.185075
0.20712
0.245698
0.281737
0.280039
0.341766
0.316773
0.497493
0.410981
0.533929
0.4753
0.654497
0.829172
1.2894
1.56928
0.0101441
0.0548145
0.0888808
0.0979402
0.162832
0.17281
0.194828
0.193628
0.213704
0.221946
0.304258
0.268213
0.317501
0.319161
0.457058
0.402266
0.610949
0.750647
0.0156615
0.031614
0.0610435
0.0794637
0.122589
0.1493
0.167068
0.168129
0.182348
0.197245
0.240714
0.227205
0.259495
0.24423
0.295417
0.269579
0.386701
0.476081
0.0336254
0.0500456
0.066608
0.083583
0.122849
0.150872
0.164771
0.170051
0.183066
0.195216
0.223846
0.220372
0.235736
0.237105
0.264427
0.249766
0.32159
0.363107
0.0680707
0.115963
0.113418
0.128138
0.14106
0.170382
0.175843
0.187041
0.18762
0.202925
0.218733
0.226965
0.228033
0.233627
0.243656
0.235317
0.265184
0.266703
0.115336
0.208936
0.21843
0.249372
0.239575
0.254269
0.247342
0.259713
0.24651
0.254742
0.252074
0.260599
0.256801
0.255408
0.255706
0.248726
0.261455
0.267021
0.243217
0.378673
0.395994
0.43482
0.427234
0.437575
0.424733
0.428782
0.410207
0.402238
0.380006
0.372135
0.357192
0.342357
0.325201
0.313264
0.307745
0.307233
0.436313
0.594873
0.619071
0.650088
0.64673
0.652613
0.644649
0.647683
0.628548
0.608674
0.578741
0.560246
0.53476
0.515058
0.490474
0.474775
0.460554
0.445987
0.727079
0.975679
1.01963
1.03965
1.03519
1.02783
1.00552
0.971499
0.915265
0.862581
0.807412
0.764256
0.717299
0.683246
0.643668
0.618058
0.586303
0.565135
1.12976
1.37767
1.39743
1.3809
1.3302
1.26625
1.19222
1.12163
1.04514
0.978791
0.912161
0.858785
0.802885
0.760979
0.713678
0.682517
0.643012
0.617318
1.34467
1.51417
1.5162
1.48614
1.41849
1.34004
1.25258
1.17048
1.08792
1.01715
0.946282
0.889215
0.830335
0.785782
0.735432
0.701491
0.659331
0.63152
1.34548
1.49928
1.50218
1.47531
1.41149
1.33365
1.24589
1.16401
1.08263
1.01276
0.94241
0.88576
0.827264
0.782695
0.731973
0.697703
0.655472
0.627244
1.06788
1.28614
1.32742
1.3232
1.29109
1.22913
1.15403
1.08313
1.01266
0.951886
0.888539
0.837682
0.785924
0.746658
0.699363
0.668186
0.627913
0.600119
0.687123
0.865042
0.937986
0.960417
0.967573
0.961632
0.929329
0.884444
0.839538
0.799029
0.751534
0.712754
0.676281
0.650476
0.612982
0.589211
0.55534
0.531237
0.412649
0.512171
0.548263
0.564098
0.570786
0.572757
0.571839
0.560878
0.542359
0.526
0.501995
0.480506
0.466406
0.458563
0.440131
0.426376
0.405075
0.389298
0.221503
0.284028
0.318867
0.347639
0.368119
0.377151
0.380204
0.378808
0.372246
0.357371
0.335857
0.314885
0.298019
0.290026
0.281977
0.277335
0.271224
0.267458
0.102539
0.136447
0.171276
0.197812
0.210104
0.214244
0.215787
0.216598
0.220191
0.224837
0.226962
0.22849
0.22944
0.230087
0.230706
0.232005
0.232804
0.233128
0.0478602
0.0719661
0.0818619
0.0927121
0.108549
0.126221
0.143982
0.161834
0.179511
0.193278
0.202936
0.21046
0.216056
0.219861
0.223123
0.226603
0.229633
0.231326
0.0173926
0.0271239
0.0397534
0.0621743
0.0862635
0.111981
0.137614
0.163305
0.188337
0.209177
0.224709
0.237328
0.246519
0.253262
0.259202
0.264831
0.269396
0.272226
0.00448195
0.0157988
0.0386605
0.0836401
0.134707
0.187513
0.236695
0.282729
0.325558
0.355933
0.37721
0.396476
0.407724
0.416708
0.426092
0.43339
0.437686
0.438559
0.00368352
0.0491131
0.167343
0.33829
0.482258
0.606995
0.704253
0.782004
0.843845
0.876581
0.894831
0.914329
0.920926
0.928342
0.935
0.938172
0.932349
0.922495
0.0437514
0.4644
1.09906
1.52419
1.78896
1.98021
2.09073
2.14299
2.16516
2.15025
2.13319
2.11661
2.09421
2.06562
2.03606
2.00379
1.94105
1.88739
0.773921
3.62824
4.89888
5.11897
5.00178
4.85397
4.67914
4.54082
4.4472
4.32295
4.20664
4.0885
3.97605
3.85479
3.74516
3.60946
3.48892
3.3304
6.68686
10.1725
9.21413
7.76586
6.96729
6.84864
6.9903
7.27675
7.61729
7.92685
8.15879
8.33456
8.45202
8.48973
8.47759
8.41927
8.30347
8.00433
0.103277
0.108495
0.120842
0.131089
0.144346
0.162436
0.187049
0.218442
0.256753
0.301716
0.35559
0.409685
0.470527
0.547578
0.637927
0.735892
0.847385
0.983768
1.13888
1.29509
1.44912
1.63569
1.8289
2.02519
2.20478
2.34871
2.4984
2.62862
2.74117
2.86813
2.98881
3.12203
3.24871
3.31937
3.37341
3.47558
3.62802
3.76576
3.88424
3.98431
4.07579
4.1805
4.30051
4.41938
4.53752
4.69588
4.94218
5.33916
5.82162
6.20272
6.4343
6.58574
6.72745
6.87331
7.00754
7.11439
7.20963
7.37423
7.56007
7.74751
7.8991
8.00374
8.05346
8.06431
8.04731
8.00688
7.97626
7.99079
8.12342
8.46428
9.20029
10.5744
12.8548
16.0576
19.2856
20.8436
21.3718
21.4133
20.4964
19.1683
17.6136
15.8744
14.2484
12.7388
11.3747
10.1717
9.11143
8.18729
7.35038
6.56974
5.95881
5.37703
4.88886
4.45399
4.04857
3.74371
3.47905
3.21364
3.05278
2.82609
2.70923
2.55441
2.45386
2.37413
2.29154
2.23156
2.21285
2.33318
2.42556
2.44362
2.39968
2.28815
2.24765
2.1859
2.07496
1.97064
1.66981
1.36015
1.29766
1.41571
1.48744
1.44071
1.49238
1.75618
2.12801
2.5144
2.71119
2.89284
3.21668
3.86948
4.93547
6.1781
7.46152
8.44352
8.98455
9.7084
11.6567
14.5048
14.7567
10.7604
10.4005
10.4373
10.8345
11.3674
11.3764
11.3637
10.9938
10.5098
10.2008
9.63766
9.05814
8.41884
7.87531
7.53918
7.16698
6.7146
6.31289
6.09033
6.11062
6.54663
6.73728
6.91332
6.66609
6.18373
6.02251
6.19389
6.33892
6.51299
6.5963
6.56183
7.00881
8.04464
9.92629
11.4027
12.7937
14.5137
16.1821
17.0541
17.3865
17.488
0.500673
0.257455
0.174525
0.156735
0.163026
0.183485
0.219725
0.263341
0.303753
0.333365
0.350479
0.358013
0.358646
0.359437
0.3652
0.369782
0.372412
0.378812
0.398271
0.418181
0.434452
0.46823
0.514987
0.567059
0.644036
0.708746
0.766644
0.889874
0.97709
1.07838
1.19688
1.24806
1.3073
1.438
1.52687
1.57787
1.58361
1.53508
1.46591
1.413
1.27908
1.10074
0.967027
0.842092
0.730524
0.664825
0.656535
0.693109
0.831682
1.26879
1.63837
1.72301
1.68399
1.54347
1.45551
1.40975
1.40965
1.47004
1.67708
2.05958
2.402
2.67358
2.94133
3.2072
3.53723
3.97896
4.58123
5.43655
6.58492
7.83948
8.92574
9.95771
10.6871
10.9477
10.0425
8.08037
6.39781
4.82536
3.49503
2.62607
2.15
1.85346
1.68872
1.54388
1.45738
1.38205
1.32458
1.26513
1.20808
1.15279
1.12249
1.08106
1.05973
1.04008
1.0286
1.02264
1.01743
1.01133
1.0112
1.00332
1.00955
1.01689
1.04207
1.04361
0.973488
0.928898
0.949011
1.09126
1.32803
1.48281
1.55062
1.5323
1.53017
1.58622
1.61532
1.59331
1.45952
1.13427
1.00039
1.03588
1.14616
1.18559
1.31762
1.8204
2.39279
2.39344
2.25667
2.22207
2.43249
3.14884
4.22124
5.07554
5.49539
5.61687
5.75254
6.45209
8.50917
9.50992
6.60682
3.93294
5.84378
5.40504
5.15261
6.41809
6.88904
7.05213
6.50029
6.03139
6.17673
6.08899
5.93229
5.46843
5.14164
5.17286
5.3035
5.26068
5.08615
4.92437
4.91226
5.52191
6.17947
6.99746
7.07299
6.60143
6.13202
6.2628
6.31566
6.21563
6.0147
5.3793
5.12442
5.22284
5.94312
6.81328
7.16751
7.7191
9.15437
10.4935
11.0852
10.317
1.26264
0.566034
0.307571
0.229907
0.245819
0.316196
0.399508
0.429579
0.429665
0.415996
0.393973
0.381316
0.374835
0.35698
0.34242
0.33925
0.33579
0.324041
0.319663
0.31873
0.315377
0.315759
0.317093
0.320669
0.334424
0.34674
0.360848
0.403038
0.431703
0.487352
0.55391
0.60006
0.718526
0.834046
0.873102
0.869515
0.823723
0.74743
0.727513
0.718172
0.687446
0.592913
0.500502
0.418955
0.362262
0.336333
0.33212
0.337184
0.352632
0.382451
0.452388
0.533672
0.656342
0.828142
1.09003
1.37587
1.56151
1.7141
1.8525
2.02472
2.14108
2.23449
2.41678
2.7061
3.12122
3.65303
4.24847
4.87472
5.33603
5.57399
5.56812
5.02305
4.11023
3.31414
2.43765
1.6713
1.23998
0.951414
0.825476
0.776604
0.753461
0.73353
0.718301
0.707041
0.69756
0.685958
0.67245
0.654762
0.636004
0.618432
0.60899
0.592441
0.573037
0.558416
0.555135
0.557726
0.56472
0.566866
0.569232
0.568143
0.579628
0.590298
0.610943
0.612081
0.574381
0.530841
0.527603
0.569164
0.680427
0.793167
0.882395
0.916694
0.931118
0.970722
1.02623
1.14491
1.25088
1.1477
0.954281
0.904466
0.956976
1.06441
1.40974
2.45024
2.48174
2.11541
1.87407
1.79668
1.98637
2.68894
3.29233
3.58006
3.58247
3.40298
3.38141
3.87725
5.13556
5.13047
3.18704
2.82416
3.48999
3.06758
2.90622
3.56323
4.11425
4.35986
3.97708
3.61758
3.77057
4.11452
4.29443
3.94202
3.56584
3.55234
3.72151
4.05577
4.05991
3.74083
3.49231
3.67977
4.02067
4.48349
5.6147
5.69322
5.18961
4.99032
5.07815
5.32826
5.25716
4.75005
3.90974
3.72143
3.93559
4.25223
4.41714
5.05947
6.54983
7.20774
6.78434
5.09176
2.22298
0.721973
0.398782
0.38681
0.514535
0.574923
0.558135
0.500057
0.435497
0.380129
0.328867
0.28229
0.268267
0.256253
0.23771
0.233691
0.230553
0.219486
0.214411
0.209239
0.207318
0.203173
0.196155
0.195256
0.196303
0.198837
0.203208
0.218414
0.229651
0.250828
0.282614
0.305639
0.361633
0.421611
0.521681
0.653746
0.688744
0.679373
0.595179
0.500417
0.456637
0.413844
0.366542
0.3388
0.332524
0.332874
0.34601
0.387652
0.419235
0.464519
0.557636
0.902
1.23121
1.38246
1.4259
1.4612
1.50951
1.55874
1.59103
1.58528
1.61237
1.74004
1.95459
2.23436
2.53115
2.82853
3.08144
3.20294
3.24896
3.08495
2.68265
2.10278
1.46666
1.10743
0.875857
0.75602
0.707756
0.688879
0.681976
0.670322
0.654848
0.62849
0.608489
0.5968
0.58659
0.580615
0.569428
0.556417
0.539993
0.524236
0.519676
0.510701
0.495015
0.465092
0.453427
0.449948
0.453686
0.457867
0.458066
0.458658
0.466937
0.479481
0.500694
0.503755
0.482818
0.454522
0.452609
0.464446
0.50277
0.556357
0.611499
0.659691
0.699061
0.731184
0.765307
0.834985
1.03646
1.0719
0.964949
0.889917
0.93767
1.11035
1.93213
2.64841
2.34548
1.82747
1.65524
1.58342
1.81105
2.39883
2.62435
2.71695
2.71875
2.59946
2.61663
2.9352
3.67612
3.62107
2.77782
2.88404
2.78109
2.51431
2.48246
2.72344
3.00749
3.30671
2.87265
2.60682
2.80657
3.18266
3.80729
3.65515
2.99754
2.77298
2.81964
3.11673
3.62282
3.32549
2.87644
2.87186
2.93004
3.09071
3.93172
4.52613
4.25549
3.92194
3.95294
4.23568
4.77235
4.56838
3.72518
3.28319
3.29369
3.34425
3.55097
4.4101
5.19497
5.18883
4.19033
3.11556
3.48834
1
0.589899
0.726746
0.754354
0.672298
0.534245
0.381983
0.275758
0.222938
0.198504
0.18703
0.180009
0.174926
0.167658
0.164634
0.160055
0.154922
0.152903
0.147377
0.145139
0.140345
0.137015
0.136559
0.137051
0.140292
0.149268
0.159357
0.165577
0.179596
0.196812
0.205521
0.223147
0.243961
0.28531
0.346137
0.454479
0.523473
0.524299
0.503718
0.446485
0.397843
0.367196
0.360909
0.367298
0.403713
0.546844
0.644252
0.713552
0.879605
1.03741
1.17293
1.24771
1.22421
1.13907
1.07601
1.04327
1.03128
1.0435
1.08564
1.17256
1.3149
1.49073
1.68443
1.8231
1.9146
1.96924
1.95847
1.83453
1.59938
1.27153
0.958509
0.772645
0.692582
0.663674
0.65947
0.660332
0.655125
0.633254
0.588149
0.525357
0.466031
0.428164
0.402235
0.389215
0.38456
0.383759
0.386061
0.390334
0.394192
0.404601
0.411784
0.418502
0.41935
0.403738
0.394667
0.395269
0.400811
0.402218
0.408759
0.417611
0.432293
0.456055
0.468239
0.452917
0.433001
0.435528
0.444426
0.456145
0.473605
0.487094
0.501356
0.559462
0.631852
0.640662
0.666222
0.791512
0.931275
0.922444
0.9018
0.978771
1.37538
2.34703
2.62025
1.91716
1.60188
1.52818
1.51814
1.70848
2.07135
2.14133
2.14183
2.16747
2.11477
2.13361
2.51886
2.89914
3.10967
2.80589
2.99931
2.86969
2.34347
2.34078
2.43598
2.50722
2.79047
2.4181
2.22322
2.34431
2.72453
3.31572
3.36032
3.00978
2.56938
2.39416
2.58197
3.20631
3.15502
2.66493
2.51786
2.51075
2.56723
3.06461
3.67247
3.63804
3.37394
3.27253
3.39757
4.14566
4.23703
3.78924
3.21168
3.00593
2.98032
3.25686
4.02341
4.27328
3.87596
2.92957
2.46883
5.06576
1.59712
1.09
1.04015
0.843809
0.576879
0.334255
0.22494
0.189535
0.180835
0.172733
0.167564
0.159616
0.150319
0.139429
0.13198
0.130047
0.127005
0.125285
0.124092
0.122437
0.120732
0.120543
0.121859
0.129706
0.138051
0.14315
0.153938
0.167231
0.184404
0.195256
0.198994
0.207046
0.215954
0.228312
0.257661
0.2973
0.382051
0.47341
0.493003
0.477761
0.410767
0.38906
0.397095
0.489955
0.6653
0.772925
0.815168
0.850634
0.937693
1.0139
1.00749
0.882077
0.770505
0.721639
0.695875
0.686968
0.695482
0.725562
0.778755
0.865566
0.986641
1.12022
1.21518
1.26537
1.28882
1.27876
1.20714
1.07861
0.907464
0.740136
0.648343
0.612907
0.60949
0.62762
0.627954
0.617364
0.57882
0.509389
0.426147
0.36204
0.322296
0.29342
0.27307
0.258508
0.251111
0.248645
0.250364
0.254248
0.258221
0.262639
0.273434
0.281962
0.300193
0.308802
0.298891
0.294291
0.30091
0.304333
0.306751
0.319585
0.350753
0.374603
0.407754
0.425407
0.421635
0.422066
0.430754
0.440367
0.443791
0.435829
0.423524
0.438771
0.528601
0.548595
0.552559
0.636384
0.757377
0.832338
0.889284
1.10627
1.81888
2.4492
2.35305
1.57279
1.4709
1.5125
1.51376
1.54754
1.7654
1.88353
1.92497
1.89211
1.85291
2.00012
2.37293
3.11588
3.00577
2.96422
2.54469
2.84553
2.28342
2.06984
2.15765
2.19596
2.30538
2.15327
2.1176
2.17042
2.27561
2.75535
2.89884
2.76786
2.61363
2.23085
2.33147
2.71524
2.75764
2.53074
2.32241
2.38336
2.40674
2.74072
3.11058
3.16794
3.07985
2.8932
2.91126
3.40667
3.9152
3.78299
3.27402
2.84616
2.7852
3.10752
3.73392
3.75351
3.06648
2.45246
2.22757
6.76359
2.33728
1.56004
1.14691
0.696326
0.354435
0.220635
0.185038
0.178814
0.175961
0.168009
0.159685
0.146066
0.130584
0.121732
0.117442
0.115374
0.115255
0.115887
0.116811
0.117155
0.117853
0.118547
0.120559
0.128201
0.134501
0.137121
0.143004
0.152767
0.164343
0.176302
0.182626
0.186373
0.19228
0.19861
0.211862
0.236455
0.301511
0.401481
0.458038
0.462817
0.448943
0.456623
0.561197
0.670769
0.736667
0.781893
0.804138
0.831978
0.838899
0.764003
0.651094
0.556958
0.511719
0.49232
0.485065
0.490907
0.513852
0.551766
0.598889
0.665254
0.755485
0.838632
0.881428
0.901229
0.907898
0.883957
0.813276
0.723724
0.635557
0.580895
0.560028
0.562082
0.585979
0.589308
0.575511
0.530943
0.465212
0.395018
0.341145
0.305253
0.270743
0.234385
0.216155
0.206645
0.203732
0.204846
0.207628
0.214657
0.217678
0.219129
0.22488
0.227164
0.230507
0.24162
0.242111
0.235223
0.235739
0.235865
0.234567
0.238594
0.263849
0.293006
0.306292
0.340675
0.383277
0.396741
0.400656
0.408168
0.415026
0.407923
0.401433
0.39221
0.431288
0.466184
0.48138
0.580613
0.654435
0.725153
0.860996
1.28501
2.03666
2.4367
1.86528
1.3181
1.34231
1.53604
1.56859
1.52355
1.5981
1.77841
1.86239
1.84366
1.74822
1.94502
2.36725
3.05999
4.09985
3.29103
2.44098
2.19942
2.1072
1.96121
1.98343
2.07227
2.08544
2.04296
2.04697
2.08906
2.00048
2.14761
2.24921
2.22379
2.31357
2.19436
2.14131
2.29099
2.51747
2.37581
2.2254
2.3406
2.3324
2.63855
2.82871
2.9381
2.86024
2.64223
2.57676
2.81181
3.54117
3.7077
3.37199
2.76212
2.67023
2.96672
3.4483
3.36154
2.6306
2.23783
2.06995
8.53155
3.12396
1.74683
0.983194
0.464417
0.256326
0.192504
0.183098
0.181543
0.177724
0.165422
0.154623
0.139566
0.12476
0.117886
0.115909
0.114102
0.113525
0.11395
0.115843
0.118252
0.124
0.130939
0.13543
0.137112
0.135707
0.134286
0.135141
0.139051
0.148199
0.153574
0.157022
0.161235
0.171832
0.180349
0.190891
0.211163
0.269296
0.372239
0.445717
0.476971
0.499617
0.58003
0.664661
0.705654
0.731684
0.736955
0.707631
0.663325
0.592457
0.50829
0.434503
0.389192
0.371666
0.365583
0.366646
0.377166
0.399812
0.428609
0.462322
0.51022
0.577822
0.64323
0.672191
0.683996
0.686789
0.672517
0.628291
0.57943
0.544934
0.527719
0.523293
0.542129
0.552398
0.543526
0.51174
0.462405
0.404577
0.355301
0.322739
0.286819
0.244167
0.205222
0.189597
0.187208
0.189068
0.195598
0.197568
0.206245
0.207819
0.209666
0.208611
0.210925
0.20428
0.212615
0.213555
0.207657
0.201654
0.19798
0.197824
0.197163
0.209787
0.244949
0.26593
0.281434
0.309835
0.336224
0.352139
0.366481
0.389477
0.399369
0.393648
0.387834
0.392421
0.420582
0.445543
0.564671
0.617328
0.66126
0.818886
1.3687
2.07257
2.33605
1.53297
1.18693
1.24213
1.51171
1.61697
1.54867
1.56512
1.74428
1.86691
1.94122
1.73603
1.66236
2.01963
2.77399
3.60701
2.53622
2.24258
1.98899
1.96008
1.95095
1.9532
2.02054
2.05734
2.20046
2.17554
2.04952
1.7696
1.79269
1.97762
1.99708
2.12881
2.05437
1.90323
2.03633
2.29551
2.20445
2.19887
2.34938
2.20316
2.52051
2.67785
2.82774
2.73168
2.5017
2.39312
2.49531
3.06387
3.5472
3.37925
2.75754
2.61392
2.82627
3.15365
2.99518
2.40777
2.12241
1.92858
10.3109
3.68545
1.71365
0.736417
0.365906
0.230257
0.191171
0.191386
0.192997
0.186517
0.166609
0.152339
0.136632
0.124212
0.119175
0.117394
0.116318
0.115855
0.116209
0.117586
0.119299
0.124004
0.131393
0.137182
0.138784
0.137114
0.136669
0.137813
0.147741
0.170454
0.177206
0.173519
0.170598
0.174046
0.182476
0.19455
0.216778
0.289177
0.383429
0.446477
0.473536
0.506179
0.599078
0.663597
0.682274
0.663075
0.586598
0.531501
0.478613
0.424904
0.363456
0.318283
0.29841
0.292384
0.292211
0.296092
0.308528
0.333972
0.365378
0.394483
0.424774
0.469452
0.512815
0.533914
0.542757
0.547413
0.545592
0.533219
0.513997
0.502736
0.498343
0.501925
0.51511
0.51477
0.501565
0.469189
0.42246
0.380311
0.346556
0.323617
0.283648
0.228936
0.188868
0.18217
0.183357
0.18752
0.197048
0.198364
0.205949
0.206185
0.207966
0.201905
0.204747
0.195818
0.190978
0.192463
0.189244
0.182783
0.17766
0.177397
0.17789
0.187604
0.219295
0.24314
0.25456
0.273285
0.280827
0.289751
0.312223
0.346765
0.372157
0.395919
0.407544
0.385035
0.387778
0.414531
0.546806
0.604449
0.628346
0.776943
1.38355
2.0676
2.08695
1.35367
1.16107
1.21375
1.41913
1.6123
1.57675
1.54586
1.64467
1.7599
1.85343
1.79452
1.54831
1.77422
2.08665
2.37498
1.98447
2.12789
1.99448
1.92004
2.01209
2.04153
2.22613
2.35106
2.48669
2.28318
2.0494
1.61243
1.67522
1.88342
1.89983
1.95347
1.82977
1.70282
1.9492
2.14289
2.08909
2.18623
2.29149
2.05713
2.25182
2.56682
2.72477
2.6355
2.47064
2.3718
2.34907
2.72051
3.30001
3.29554
2.74233
2.58261
2.6968
2.83268
2.66788
2.3807
2.07994
1.88835
12.0421
3.95805
1.49571
0.617375
0.337245
0.231371
0.207106
0.209793
0.207369
0.191691
0.168819
0.155901
0.142496
0.132841
0.128802
0.127021
0.125786
0.124118
0.122783
0.119983
0.116757
0.114989
0.116015
0.118584
0.120886
0.12284
0.127993
0.146019
0.180628
0.196941
0.198807
0.196916
0.194895
0.195642
0.204248
0.226969
0.270418
0.333722
0.389781
0.422342
0.43523
0.496085
0.585155
0.617823
0.605978
0.511939
0.437368
0.399757
0.358274
0.317027
0.280049
0.25422
0.245889
0.244687
0.245066
0.24895
0.262271
0.285038
0.30939
0.333454
0.362811
0.401266
0.440317
0.466888
0.481523
0.485637
0.485141
0.485363
0.484574
0.483472
0.482174
0.483177
0.485175
0.481219
0.46641
0.43406
0.400596
0.368299
0.349778
0.329857
0.282973
0.212043
0.184224
0.180425
0.1844
0.188947
0.196067
0.198683
0.199428
0.200258
0.201496
0.196549
0.196589
0.194018
0.181147
0.177342
0.177924
0.17133
0.169212
0.169139
0.167254
0.179904
0.212574
0.225625
0.241524
0.248234
0.250176
0.250196
0.273335
0.313387
0.352545
0.367912
0.405499
0.38926
0.368611
0.386321
0.50622
0.597696
0.60692
0.746725
1.37075
2.03848
1.86574
1.24966
1.15611
1.16513
1.21981
1.4633
1.54913
1.46332
1.38629
1.36315
1.40443
1.52794
1.48214
1.58029
1.68648
1.73381
1.83533
2.11938
1.9552
1.94179
2.15388
2.28085
2.51198
2.9426
2.88317
2.2927
1.9524
1.53427
1.58391
1.82564
1.96402
1.92347
1.67707
1.61251
2.01876
2.09002
1.99105
2.1353
2.1881
2.01874
2.09277
2.47008
2.60083
2.54022
2.47015
2.41173
2.26688
2.53111
3.06702
3.09257
2.69932
2.58735
2.64459
2.63404
2.52508
2.45944
2.04275
1.87766
13.7404
4.07462
1.32672
0.571671
0.349608
0.261239
0.227191
0.215476
0.208846
0.191076
0.169153
0.159243
0.149434
0.138845
0.134693
0.1333
0.132074
0.130002
0.127638
0.122418
0.116108
0.111293
0.109011
0.108494
0.109181
0.112882
0.123786
0.15281
0.183446
0.196489
0.197617
0.200443
0.214265
0.23072
0.252579
0.278471
0.309238
0.342446
0.358314
0.36249
0.402659
0.502947
0.561203
0.562623
0.477221
0.376737
0.325334
0.299305
0.271454
0.243581
0.222765
0.210675
0.207886
0.206462
0.206751
0.212284
0.227353
0.248547
0.269933
0.288732
0.309679
0.336891
0.367062
0.396433
0.420804
0.437556
0.448291
0.456116
0.461956
0.46367
0.462275
0.459332
0.455363
0.448243
0.432004
0.407882
0.380458
0.366332
0.367926
0.341117
0.260325
0.205637
0.184012
0.178935
0.178695
0.182802
0.180196
0.184966
0.174826
0.174757
0.177057
0.182947
0.179027
0.186743
0.180042
0.172161
0.172177
0.168563
0.164433
0.166707
0.165627
0.178872
0.187971
0.216792
0.218552
0.227918
0.239688
0.237274
0.255329
0.303274
0.341904
0.344959
0.362196
0.375467
0.364399
0.376036
0.46725
0.582922
0.593602
0.733268
1.34968
1.9785
1.73995
1.21757
1.14989
1.06469
1.06936
1.21129
1.34518
1.27128
1.16539
1.11788
1.06001
1.10015
1.33399
1.54926
1.55245
1.63719
1.98364
2.19417
2.02535
1.9461
2.18765
2.58469
2.67511
2.91785
2.6165
2.08167
1.77897
1.50475
1.48209
1.66607
1.79095
1.7812
1.60144
1.59443
2.06109
2.05664
1.85383
1.98013
2.02606
2.00648
2.06558
2.3686
2.46383
2.45828
2.49586
2.42982
2.2116
2.38913
2.82681
2.87252
2.64985
2.59075
2.64616
2.60187
2.53899
2.46608
1.9118
1.82695
15.4171
4.08801
1.26845
0.600463
0.442204
0.346962
0.26043
0.223005
0.214975
0.204019
0.179676
0.171081
0.163894
0.14711
0.138071
0.134964
0.132521
0.130232
0.126665
0.120437
0.114214
0.110512
0.109041
0.108824
0.109669
0.11467
0.129202
0.155122
0.173355
0.180774
0.186189
0.199443
0.219385
0.240455
0.26738
0.29156
0.309602
0.315181
0.31949
0.34746
0.417898
0.49979
0.512844
0.448687
0.336627
0.275044
0.245532
0.229742
0.211005
0.19624
0.187339
0.181796
0.179405
0.179023
0.180669
0.187469
0.201658
0.220635
0.24017
0.263002
0.289415
0.312133
0.330462
0.350224
0.370718
0.386617
0.404297
0.424776
0.435719
0.441799
0.443076
0.441274
0.436076
0.427831
0.41018
0.383557
0.360848
0.364472
0.379086
0.345016
0.246121
0.211326
0.189416
0.172139
0.154456
0.152137
0.149496
0.154591
0.156703
0.157392
0.158542
0.166009
0.170442
0.173378
0.176826
0.172048
0.168409
0.170209
0.163936
0.161239
0.166751
0.170745
0.180038
0.192078
0.201277
0.209184
0.216591
0.240699
0.244694
0.285157
0.343532
0.349597
0.337273
0.351119
0.366148
0.377196
0.454435
0.579306
0.592569
0.726143
1.32839
1.84243
1.63091
1.20377
1.11532
0.967819
0.958015
1.04146
1.09886
1.07826
1.01806
0.997965
0.919131
0.933093
1.23581
1.49178
1.47218
1.75071
2.07305
2.12351
2.13968
2.05463
2.20754
2.46189
2.36141
2.26628
2.24102
2.0057
1.73185
1.49813
1.42252
1.51356
1.62664
1.64864
1.5888
1.61962
1.94024
1.91631
1.70481
1.80468
1.87768
1.99432
2.06883
2.27054
2.33788
2.36534
2.49679
2.36574
2.11149
2.31756
2.59359
2.63268
2.54835
2.57891
2.65455
2.61483
2.59137
2.34903
1.70003
1.64377
17.1221
4.19998
1.35712
0.821631
0.760199
0.618075
0.389427
0.272984
0.259109
0.251879
0.215814
0.195699
0.190087
0.176311
0.157767
0.147065
0.14044
0.136657
0.131631
0.12508
0.118782
0.114727
0.113163
0.112856
0.114488
0.122529
0.135759
0.15073
0.160073
0.16934
0.182416
0.200188
0.220563
0.242199
0.267251
0.284846
0.289487
0.295155
0.314032
0.356865
0.420077
0.443037
0.412902
0.316425
0.242708
0.208685
0.193274
0.183399
0.173975
0.167378
0.163833
0.16292
0.16346
0.165184
0.1676
0.172954
0.181803
0.192919
0.20735
0.228827
0.254896
0.28148
0.304214
0.326133
0.342568
0.357891
0.373719
0.387647
0.404228
0.418644
0.42261
0.420982
0.414596
0.399176
0.377122
0.345489
0.33635
0.343086
0.358989
0.330022
0.251833
0.228413
0.199597
0.164039
0.135372
0.128305
0.130935
0.142207
0.15223
0.153959
0.152709
0.154025
0.161323
0.169291
0.170196
0.174809
0.167663
0.168049
0.167617
0.164931
0.163355
0.17031
0.175323
0.187761
0.195953
0.20082
0.212292
0.234803
0.255373
0.265573
0.331346
0.359742
0.334769
0.330348
0.349295
0.372418
0.430591
0.562028
0.593431
0.721709
1.31773
1.70314
1.50924
1.17586
1.03972
0.895787
0.872921
0.937568
0.993832
0.977937
0.925712
0.903544
0.853427
0.854957
1.10831
1.32077
1.4181
1.83293
1.96716
2.25875
2.15497
2.02068
2.02547
2.10062
2.34707
2.27519
1.93832
1.6376
1.53128
1.45037
1.32176
1.34575
1.38385
1.41729
1.49536
1.58679
1.67066
1.68622
1.57898
1.71528
1.82581
2.04032
2.06842
2.17068
2.22689
2.29604
2.38938
2.19486
2.00606
2.30603
2.43602
2.45047
2.44531
2.57722
2.69581
2.63222
2.5444
2.02957
1.53474
1.48818
18.7359
4.60118
1.83578
1.43311
1.2468
1.10697
0.71262
0.401676
0.295368
0.26436
0.21703
0.193756
0.18822
0.181754
0.174181
0.168655
0.163114
0.15876
0.154694
0.149508
0.143094
0.136468
0.130878
0.128459
0.129034
0.132963
0.141532
0.150912
0.159119
0.169802
0.184846
0.203879
0.222663
0.238503
0.251197
0.259151
0.268712
0.288496
0.315436
0.349852
0.363515
0.347569
0.301551
0.228343
0.18696
0.168758
0.161041
0.15641
0.152701
0.151239
0.152571
0.156126
0.159612
0.162958
0.166021
0.171012
0.17726
0.184285
0.194438
0.208735
0.223309
0.239577
0.260654
0.280787
0.296555
0.313281
0.331196
0.350513
0.361677
0.369941
0.373343
0.37138
0.363814
0.345653
0.322904
0.31125
0.313157
0.313739
0.304055
0.282157
0.261141
0.251221
0.228718
0.171104
0.134344
0.121524
0.123598
0.13632
0.150793
0.154224
0.151586
0.1492
0.150013
0.158604
0.16208
0.173194
0.167893
0.169304
0.169334
0.165541
0.166028
0.173142
0.175342
0.186654
0.196133
0.19648
0.214002
0.225595
0.254519
0.264685
0.301037
0.365146
0.336071
0.328216
0.337476
0.358316
0.395376
0.526641
0.585392
0.716045
1.31006
1.60999
1.40722
1.10698
0.970622
0.869438
0.816768
0.849082
0.947992
0.94166
0.88529
0.85287
0.790314
0.773599
0.912438
0.99172
1.37167
1.80298
2.06947
2.1304
1.92492
1.99336
2.17766
2.23877
2.08771
1.8132
1.78042
1.59717
1.41498
1.35995
1.24399
1.29341
1.28762
1.2891
1.38806
1.46482
1.49978
1.51453
1.52488
1.72549
1.85932
2.079
2.0368
2.04246
2.11395
2.21315
2.24477
2.00295
1.91048
2.30353
2.34532
2.30511
2.32408
2.55609
2.76648
2.65383
2.33718
1.71295
1.44393
1.41653
20.0787
5.5362
3.03576
2.12659
1.72488
1.60262
1.0689
0.460882
0.308522
0.265625
0.222007
0.197006
0.187117
0.182339
0.179014
0.176241
0.173438
0.172159
0.173686
0.174925
0.174805
0.172971
0.169732
0.164532
0.159176
0.155785
0.155004
0.157614
0.165397
0.181675
0.202035
0.216511
0.225867
0.229418
0.233136
0.241424
0.259517
0.278373
0.293764
0.295622
0.288713
0.27112
0.235338
0.182805
0.157477
0.148142
0.144658
0.142494
0.142322
0.144754
0.150102
0.155403
0.160842
0.168968
0.175736
0.18066
0.185032
0.190345
0.198226
0.209842
0.220119
0.225291
0.234769
0.250375
0.266084
0.276477
0.288346
0.298149
0.30586
0.311434
0.310813
0.307377
0.299454
0.288444
0.278523
0.270382
0.271682
0.283924
0.28421
0.27023
0.266187
0.262507
0.241898
0.18349
0.137531
0.117868
0.11655
0.121861
0.142546
0.148542
0.151298
0.145475
0.147288
0.150151
0.152
0.161784
0.167041
0.164019
0.16798
0.165572
0.168758
0.178408
0.177517
0.18147
0.191238
0.186992
0.198086
0.23408
0.232235
0.256087
0.261379
0.338158
0.33761
0.326055
0.333179
0.354727
0.384196
0.512292
0.58154
0.699467
1.27786
1.55677
1.35382
1.03934
0.922244
0.865834
0.802706
0.786545
0.898877
0.920222
0.837332
0.808279
0.744554
0.731828
0.79706
0.839752
1.27335
1.76794
2.06005
1.77116
1.83582
2.26203
2.0321
1.85724
1.63059
1.65702
1.68192
1.62083
1.42853
1.36532
1.23936
1.29724
1.30074
1.28745
1.34806
1.42826
1.42032
1.41911
1.51837
1.71018
1.98548
2.05756
1.92166
1.87338
1.98077
2.06682
2.06984
1.8564
1.82512
2.31412
2.32662
2.18634
2.231
2.54136
2.78633
2.64028
2.03681
1.50993
1.35286
1.34882
21.0324
7.87652
4.30723
2.69392
1.98137
1.75717
1.42205
0.789917
0.511943
0.411296
0.301899
0.236695
0.217172
0.200819
0.19424
0.192695
0.191271
0.190516
0.190117
0.190099
0.190718
0.19252
0.193896
0.193236
0.190534
0.186663
0.185516
0.184289
0.189005
0.202123
0.221034
0.230597
0.231865
0.230192
0.230591
0.237155
0.257817
0.274005
0.277414
0.27354
0.258687
0.23328
0.202803
0.168907
0.147432
0.141254
0.139519
0.138795
0.139722
0.144161
0.151568
0.161087
0.172216
0.183104
0.19515
0.203863
0.206813
0.208118
0.211047
0.218299
0.223277
0.224959
0.228428
0.236777
0.244378
0.251103
0.256179
0.262551
0.266844
0.267139
0.268748
0.270138
0.268466
0.262083
0.249678
0.243394
0.24349
0.248059
0.252836
0.265483
0.270881
0.268097
0.244591
0.183628
0.136597
0.111018
0.105915
0.11102
0.129037
0.141842
0.15013
0.144317
0.144389
0.14825
0.149701
0.15482
0.161171
0.15769
0.164996
0.167248
0.16428
0.170856
0.173993
0.17885
0.190746
0.181826
0.185713
0.202477
0.216663
0.218497
0.234058
0.282528
0.310673
0.316584
0.32426
0.346869
0.373326
0.49613
0.579798
0.685543
1.17734
1.52277
1.34573
0.991773
0.88653
0.866025
0.811958
0.766128
0.830354
0.892594
0.758834
0.746706
0.699148
0.648096
0.693052
0.739107
1.21634
1.77833
1.69432
1.6704
1.90316
2.00286
1.63242
1.50563
1.57013
1.7216
1.65261
1.51348
1.39623
1.35921
1.28119
1.35378
1.30802
1.28075
1.354
1.34498
1.3153
1.33224
1.47942
1.63428
2.03807
1.9618
1.79136
1.72309
1.82766
1.90395
1.87909
1.71941
1.77704
2.35243
2.3367
2.123
2.15248
2.53651
2.77098
2.52464
1.79698
1.38478
1.2654
1.2676
22.1493
11.093
4.82035
2.64464
1.91117
1.69183
1.41729
0.944863
0.655688
0.482747
0.322911