/*--------------------------------*- C++ -*----------------------------------*\
| =========                 |                                                 |
| \\      /  F ield         | OpenFOAM: The Open Source CFD Toolbox           |
|  \\    /   O peration     | Version:  dev                                   |
|   \\  /    A nd           | Web:      http://www.openfoam.org               |
|    \\/     M anipulation  |                                                 |
\*---------------------------------------------------------------------------*/
FoamFile
{
    version     2.0;
    format      ascii;
    class       volScalarField;
    object      k_0;
    location    "9.144";
}
// * * * * * * * * * * * * * * * * * * * * * * * * * * * * * * * * * * * * * //

dimensions      [0 2 -2 0 0 0 0];

internalField   nonuniform List<scalar> 
12225
(
8.06116
10.2562
7.27608
7.86504
7.40859
9.06158
10.0242
11.4808
13.4304
14.586
17.9574
17.9352
24.7663
20.6726
29.6119
24.4399
31.6564
47.3564
1.49894
6.29724
5.67913
7.07933
5.47859
7.24491
6.04203
7.69858
7.09085
8.70057
8.25156
10.0367
10.6278
10.3784
14.5618
18.2282
36.4666
61.9769
0.113227
1.59058
1.86741
3.18317
2.85178
3.80758
3.23608
4.18047
3.45284
4.33602
3.8004
4.07251
4.98253
3.31083
5.17427
4.99794
20.1557
48.6295
0.0217872
0.372349
0.558543
1.07577
1.16215
1.39957
1.42915
1.66515
1.5628
1.59298
1.7044
1.6304
2.11603
1.36374
2.02744
2.16423
9.74616
24.644
0.00472573
0.0676134
0.124823
0.253038
0.398527
0.455901
0.593395
0.638753
0.732081
0.714387
0.872895
0.885243
1.01837
0.862103
1.12701
0.964784
3.67433
8.36252
0.00261495
0.0629428
0.0856077
0.196759
0.23292
0.343572
0.370166
0.514954
0.508072
0.504896
0.642863
0.714804
0.798669
0.698006
0.914285
0.731993
1.67704
3.11206
0.00788463
0.112445
0.117441
0.184491
0.204687
0.239005
0.27371
0.273478
0.332695
0.310632
0.47377
0.397217
0.514298
0.462556
0.617158
0.736212
1.12352
1.15207
0.00862297
0.0503361
0.0849488
0.0924221
0.160404
0.170105
0.190353
0.190134
0.206654
0.217553
0.291836
0.261094
0.30309
0.305433
0.429814
0.35059
0.518538
0.637358
0.0164405
0.0308724
0.0606812
0.0777665
0.12131
0.149214
0.166
0.166949
0.179291
0.19631
0.236487
0.225605
0.255456
0.238609
0.282663
0.259615
0.348826
0.433127
0.0365418
0.0530936
0.067808
0.0838847
0.122307
0.151386
0.164088
0.16981
0.18233
0.194632
0.223823
0.220471
0.234642
0.233424
0.261183
0.245066
0.305983
0.342383
0.0719125
0.122532
0.119783
0.134657
0.144342
0.173383
0.177919
0.18895
0.18883
0.204216
0.219835
0.227888
0.228306
0.23274
0.243206
0.235289
0.259608
0.261267
0.122836
0.219111
0.229565
0.259698
0.252579
0.263989
0.258858
0.268376
0.258125
0.263192
0.26027
0.266577
0.264451
0.26063
0.260737
0.253816
0.262934
0.269516
0.262396
0.394386
0.411108
0.449007
0.44248
0.451976
0.440161
0.443005
0.426633
0.417132
0.396589
0.386154
0.372129
0.356966
0.339686
0.327605
0.321028
0.319098
0.462602
0.617897
0.641547
0.669632
0.668455
0.672744
0.666545
0.667571
0.648963
0.627703
0.597886
0.578168
0.552505
0.532806
0.508069
0.492229
0.477897
0.463106
0.763703
1.00735
1.04689
1.06491
1.05962
1.05037
1.02691
0.990768
0.933673
0.880113
0.824308
0.780352
0.732667
0.698125
0.65776
0.63173
0.598914
0.577324
1.16908
1.40166
1.41551
1.39642
1.3441
1.27842
1.20309
1.1316
1.05502
0.988766
0.921988
0.868467
0.812187
0.770097
0.722297
0.690829
0.650661
0.624645
1.36457
1.52329
1.52131
1.48927
1.42156
1.3434
1.2563
1.17463
1.0925
1.02217
0.951486
0.894595
0.835685
0.791163
0.740576
0.706539
0.664008
0.636045
1.35589
1.50114
1.50098
1.47283
1.40961
1.33256
1.24555
1.1645
1.08384
1.01462
0.94466
0.888377
0.83005
0.785661
0.734832
0.700575
0.65812
0.629802
1.05766
1.27077
1.31064
1.30795
1.27773
1.21791
1.14477
1.0757
1.00685
0.947482
0.885113
0.83506
0.784053
0.745483
0.69853
0.667734
0.627513
0.599867
0.678832
0.848936
0.916908
0.937931
0.945381
0.941825
0.911359
0.868926
0.826056
0.787286
0.741246
0.703593
0.668328
0.64379
0.607127
0.583991
0.550641
0.527042
0.404208
0.498259
0.531551
0.54694
0.553766
0.556153
0.556394
0.54645
0.529343
0.513983
0.490932
0.470292
0.456688
0.4492
0.43168
0.418403
0.397814
0.382763
0.214669
0.275335
0.309266
0.337802
0.357957
0.366781
0.369889
0.368944
0.363026
0.348747
0.328055
0.307896
0.291538
0.283813
0.276368
0.272202
0.266695
0.263479
0.0991647
0.132
0.165984
0.191398
0.20302
0.207138
0.208969
0.210236
0.2145
0.219842
0.222812
0.225106
0.226703
0.227757
0.228707
0.230285
0.231397
0.2319
0.0466493
0.0697424
0.0788261
0.0894487
0.105401
0.12334
0.141454
0.159702
0.177592
0.191505
0.20136
0.209081
0.214865
0.218872
0.222318
0.225941
0.229116
0.230914
0.0166722
0.0262191
0.0391685
0.0616804
0.0856177
0.111201
0.136746
0.162535
0.187933
0.209187
0.225112
0.238136
0.247691
0.254763
0.261036
0.266959
0.271738
0.274778
0.00447631
0.0161032
0.0394136
0.0853521
0.137317
0.191106
0.24122
0.288073
0.331428
0.362118
0.383689
0.403301
0.414831
0.424101
0.43382
0.441411
0.445898
0.446787
0.00403403
0.0530657
0.175156
0.348255
0.493901
0.620204
0.718557
0.797095
0.859272
0.892305
0.910849
0.93054
0.937429
0.945201
0.952219
0.955462
0.949797
0.940036
0.0502783
0.483867
1.11498
1.53979
1.8073
2.00112
2.11259
2.16391
2.18523
2.17027
2.15338
2.13689
2.11562
2.08757
2.05843
2.02675
1.96445
1.91297
0.848901
3.66219
4.90614
5.11237
4.99344
4.85104
4.67976
4.54697
4.4602
4.34187
4.2292
4.11412
4.00481
3.88635
3.78001
3.64603
3.52837
3.38516
6.73186
10.4116
9.60282
8.18018
7.3259
7.15768
7.25248
7.49461
7.79464
8.0694
8.27121
8.41999
8.52588
8.55524
8.53714
8.48193
8.38043
8.13839
0.105157
0.109835
0.122155
0.132475
0.145912
0.16425
0.189139
0.220723
0.259064
0.303901
0.357143
0.410276
0.470492
0.546698
0.635004
0.730747
0.840737
0.975572
1.127
1.27839
1.43099
1.61641
1.80735
2.00039
2.17455
2.31738
2.46697
2.59717
2.71246
2.84185
2.9665
3.10247
3.23065
3.31192
3.38365
3.49801
3.65214
3.78537
3.90148
4.00393
4.09863
4.20348
4.31902
4.43023
4.54233
4.69657
4.9402
5.33096
5.79395
6.14914
6.35559
6.49044
6.61593
6.73561
6.83703
6.91646
7.00143
7.16687
7.34609
7.52245
7.66213
7.75773
7.80574
7.82511
7.82627
7.82136
7.83759
7.92278
8.14485
8.60089
9.49576
11.069
13.5854
17.033
20.4422
22.0394
22.5809
22.6205
21.6171
20.1761
18.499
16.6459
14.9155
13.3088
11.8533
10.5727
9.4476
8.4684
7.58503
6.7646
6.12169
5.51374
5.00383
4.55152
4.13031
3.81357
3.54056
3.26673
3.10102
2.86996
2.74976
2.59281
2.48993
2.40785
2.32446
2.26451
2.24574
2.36791
2.45965
2.47617
2.42868
2.31304
2.26815
2.20056
2.08408
1.97213
1.66307
1.35686
1.2939
1.40999
1.47668
1.4278
1.47362
1.72733
2.09136
2.48481
2.67104
2.85062
3.19225
3.89352
5.02174
6.32317
7.66661
8.69194
9.25694
10.0237
12.1107
15.1125
15.4238
10.5645
10.3732
10.4296
10.6941
11.1214
11.1371
11.1378
10.748
10.1869
9.87717
9.26796
8.7106
8.12332
7.61544
7.30657
6.97364
6.56551
6.21235
6.05448
6.12688
6.59013
6.8072
6.99362
6.76333
6.29091
6.13926
6.31365
6.44794
6.61169
6.67965
6.58637
6.918
7.84039
9.74164
11.1853
12.5881
14.4674
16.3303
17.3178
17.616
17.7442
0.512751
0.260079
0.176269
0.158332
0.164926
0.185973
0.222724
0.266713
0.30691
0.336399
0.353158
0.360078
0.360663
0.361822
0.368074
0.372391
0.375447
0.3827
0.403469
0.422496
0.439213
0.474569
0.52108
0.574061
0.650548
0.711596
0.77418
0.898954
0.982784
1.08735
1.20055
1.24814
1.31465
1.44819
1.53504
1.58198
1.58429
1.52502
1.4604
1.40462
1.2579
1.08199
0.951154
0.82664
0.71985
0.663167
0.659743
0.710526
0.879429
1.34274
1.66842
1.72233
1.66281
1.52375
1.44741
1.4139
1.42251
1.50389
1.74862
2.14218
2.47443
2.73727
3.00072
3.26646
3.6054
4.0631
4.68765
5.5672
6.72309
7.96605
9.02398
10.0143
10.6319
10.8216
9.86502
7.8891
6.24208
4.7166
3.43254
2.60137
2.15647
1.86253
1.69651
1.55104
1.46413
1.38914
1.33232
1.27335
1.21659
1.16125
1.13104
1.08967
1.06876
1.04928
1.03793
1.03214
1.02708
1.02121
1.02141
1.01393
1.02019
1.02748
1.0534
1.0555
0.985872
0.941377
0.961778
1.10778
1.34774
1.50246
1.56882
1.54814
1.54604
1.60446
1.63056
1.6025
1.45808
1.12861
0.999688
1.04013
1.15263
1.18913
1.32387
1.84139
2.4174
2.40519
2.26262
2.23867
2.47048
3.21135
4.29558
5.16121
5.58898
5.71906
5.86424
6.59893
8.71711
9.70877
6.707
3.94212
6.05303
5.48787
5.29094
6.66094
7.059
7.19786
6.568
6.13306
6.30343
6.1844
6.00852
5.51244
5.2035
5.24844
5.37722
5.31889
5.13328
4.97316
4.96921
5.62645
6.27957
7.09071
7.14056
6.64262
6.18126
6.31806
6.37323
6.26953
6.07263
5.4277
5.15607
5.25564
5.98944
6.89985
7.27523
7.84174
9.28754
10.6849
11.3571
10.6682
1.30302
0.570207
0.310108
0.232721
0.249872
0.322396
0.404829
0.433371
0.433318
0.417708
0.395933
0.383769
0.376707
0.357741
0.344466
0.341557
0.33754
0.32536
0.321823
0.320659
0.317304
0.317728
0.318995
0.32309
0.337492
0.349032
0.364578
0.408557
0.436545
0.495276
0.5591
0.608026
0.736681
0.842654
0.872981
0.865899
0.811251
0.742051
0.727108
0.717354
0.680002
0.579917
0.489296
0.410036
0.358312
0.337032
0.334741
0.342272
0.359905
0.393145
0.467466
0.554267
0.689715
0.879782
1.15627
1.43406
1.60314
1.75113
1.8894
2.05451
2.15823
2.25291
2.44539
2.74581
3.17015
3.70739
4.30084
4.90698
5.32992
5.51102
5.44565
4.85614
3.95101
3.15939
2.31597
1.59822
1.20341
0.937671
0.823985
0.781268
0.75766
0.737606
0.722143
0.710689
0.701083
0.689358
0.675791
0.657916
0.63907
0.621281
0.61163
0.595045
0.575613
0.561072
0.5579
0.560474
0.567559
0.569871
0.572423
0.571637
0.583107
0.593685
0.614494
0.61606
0.578717
0.534891
0.531202
0.573269
0.687887
0.80287
0.892575
0.925181
0.937877
0.981768
1.04008
1.15941
1.25842
1.14313
0.951011
0.902355
0.956445
1.06758
1.42777
2.48456
2.49657
2.11506
1.88088
1.80918
2.00836
2.72664
3.3304
3.62165
3.6269
3.44736
3.42664
3.94327
5.21651
5.20177
3.18663
2.81604
3.54728
3.06444
2.94748
3.68455
4.20781
4.42993
3.99245
3.66207
3.85123
4.18862
4.34874
3.93913
3.59324
3.59301
3.78298
4.10417
4.09169
3.74872
3.52273
3.7409
4.08873
4.57489
5.69018
5.7299
5.211
5.02899
5.12174
5.37365
5.29154
4.78553
3.93053
3.74233
3.96305
4.29461
4.46464
5.09011
6.61203
7.34896
6.95507
5.2781
2.30979
0.726606
0.404244
0.393543
0.524575
0.580924
0.561612
0.501029
0.436138
0.381108
0.329189
0.283613
0.270592
0.257574
0.239235
0.235503
0.231963
0.219909
0.215313
0.210259
0.208095
0.203062
0.196287
0.195744
0.197109
0.199721
0.204768
0.221162
0.231988
0.255257
0.285828
0.309622
0.37088
0.431657
0.538542
0.664624
0.689178
0.674858
0.577066
0.492037
0.452139
0.409286
0.363454
0.339514
0.335024
0.336872
0.356399
0.39975
0.431848
0.48261
0.598504
0.985331
1.28193
1.40536
1.43775
1.47192
1.51789
1.56131
1.58594
1.57546
1.61225
1.75165
1.96905
2.24977
2.54095
2.82269
3.05013
3.14958
3.18476
3.00327
2.59004
2.01942
1.40207
1.0613
0.853209
0.748755
0.707502
0.691555
0.685412
0.674035
0.65908
0.633104
0.613048
0.601432
0.591178
0.585129
0.57382
0.560442
0.54371
0.527431
0.522438
0.513199
0.497381
0.466939
0.455262
0.451978
0.455608
0.459821
0.46016
0.460639
0.468789
0.4812
0.501921
0.50476
0.484299
0.456187
0.454217
0.465649
0.505353
0.561144
0.618221
0.666035
0.705005
0.736011
0.769998
0.844088
1.04903
1.07778
0.961471
0.88826
0.938746
1.11657
1.9592
2.67638
2.35329
1.833
1.66402
1.59102
1.82871
2.4206
2.6464
2.7442
2.75086
2.63116
2.64137
2.96545
3.71271
3.66501
2.77028
2.87732
2.77022
2.51635
2.50703
2.77287
3.06631
3.35598
2.85961
2.6285
2.87742
3.26403
3.86497
3.64999
2.97362
2.78816
2.8549
3.17954
3.66057
3.31186
2.88625
2.90048
2.96689
3.13757
4.01878
4.56941
4.26957
3.95091
3.99002
4.28289
4.80915
4.59425
3.74722
3.30035
3.31756
3.371
3.56828
4.41257
5.27468
5.29822
4.31971
3.19123
3.6445
1.00534
0.600391
0.741048
0.762659
0.673082
0.532946
0.380035
0.275093
0.223106
0.199344
0.188106
0.181211
0.176
0.168765
0.165708
0.160753
0.155716
0.153449
0.147736
0.145424
0.140254
0.137474
0.137143
0.137916
0.142361
0.151861
0.161609
0.168305
0.183938
0.199943
0.208574
0.226702
0.248943
0.293117
0.358597
0.467865
0.527204
0.524233
0.499378
0.439751
0.39384
0.367558
0.364113
0.374638
0.425525
0.578201
0.665605
0.739802
0.918314
1.06944
1.19398
1.25701
1.20971
1.12143
1.05831
1.02792
1.01889
1.03592
1.08165
1.17249
1.3171
1.49237
1.68046
1.809
1.88834
1.93042
1.90887
1.7748
1.53781
1.2185
0.922945
0.755797
0.686194
0.663069
0.661581
0.663148
0.658241
0.637198
0.592948
0.531255
0.471728
0.433419
0.40757
0.394716
0.390218
0.389402
0.391535
0.39546
0.399144
0.409279
0.416007
0.422215
0.422032
0.406058
0.397195
0.397857
0.403386
0.404941
0.411482
0.42023
0.43483
0.458539
0.469352
0.453311
0.434013
0.437057
0.445839
0.457186
0.475133
0.48945
0.505714
0.565751
0.636973
0.644972
0.670966
0.804715
0.941153
0.926248
0.903498
0.981967
1.38857
2.37711
2.64229
1.92672
1.61029
1.53139
1.52387
1.72148
2.08747
2.15598
2.15637
2.18966
2.1397
2.14785
2.52784
2.90373
3.14265
2.81173
3.02373
2.823
2.32938
2.36011
2.45492
2.54351
2.82767
2.40242
2.23581
2.38843
2.79832
3.36415
3.37945
2.97181
2.5544
2.40601
2.63774
3.25061
3.15486
2.65362
2.53278
2.5282
2.58851
3.12708
3.71492
3.65686
3.39103
3.29975
3.43585
4.19489
4.26066
3.80819
3.22888
3.02357
2.99745
3.25999
4.04222
4.34354
3.97043
3.0125
2.49572
5.32601
1.60645
1.11093
1.05104
0.843208
0.572259
0.330259
0.223912
0.190198
0.18193
0.173655
0.168436
0.160204
0.150749
0.139829
0.13277
0.130831
0.127652
0.125977
0.124661
0.122946
0.121334
0.121345
0.12322
0.132222
0.139905
0.145279
0.157003
0.170908
0.187957
0.19742
0.201108
0.209839
0.218865
0.232535
0.264189
0.306378
0.398205
0.48315
0.495607
0.471614
0.405534
0.391375
0.4072
0.525585
0.692592
0.787648
0.825444
0.864723
0.955745
1.02253
0.99222
0.850615
0.750433
0.707835
0.685278
0.678462
0.689412
0.721659
0.776289
0.86407
0.984601
1.11485
1.20247
1.24566
1.26322
1.24722
1.17016
1.04083
0.874976
0.719096
0.639139
0.610269
0.61014
0.629996
0.630376
0.620018
0.582166
0.513707
0.430783
0.365215
0.324901
0.296613
0.276241
0.261617
0.253991
0.251399
0.252957
0.256566
0.260578
0.265195
0.276054
0.28513
0.30368
0.31167
0.301526
0.297222
0.30369
0.307328
0.310288
0.323029
0.354303
0.378804
0.412385
0.428079
0.422859
0.423807
0.432792
0.442097
0.445413
0.438443
0.424994
0.442192
0.532621
0.552587
0.55617
0.644966
0.768755
0.841644
0.895899
1.11531
1.83474
2.47317
2.3752
1.58618
1.48274
1.51675
1.51615
1.5535
1.7791
1.89155
1.92475
1.89845
1.86873
2.02453
2.39722
3.08833
2.98666
2.94805
2.55956
2.84322
2.2523
2.0803
2.18416
2.21573
2.32176
2.15849
2.13958
2.20109
2.30983
2.80304
2.91311
2.75404
2.59442
2.22376
2.36567
2.74462
2.76824
2.52353
2.33185
2.39847
2.423
2.77288
3.14289
3.18713
3.0923
2.91258
2.93719
3.456
3.94425
3.79904
3.28853
2.86071
2.79627
3.09883
3.77045
3.81992
3.14941
2.4995
2.25104
7.1596
2.35395
1.57637
1.14785
0.689911
0.349142
0.219284
0.18567
0.18
0.176966
0.168683
0.160098
0.146069
0.130724
0.122161
0.118028
0.116132
0.116072
0.116815
0.117637
0.118004
0.118853
0.119752
0.122273
0.130404
0.135903
0.138431
0.145031
0.154781
0.166298
0.177735
0.183802
0.187845
0.194022
0.200983
0.215828
0.242987
0.317669
0.414654
0.463179
0.463771
0.45097
0.468378
0.590821
0.6882
0.747691
0.789218
0.809874
0.83708
0.830723
0.738783
0.630015
0.540846
0.501169
0.484605
0.478857
0.486196
0.510648
0.548978
0.596232
0.662261
0.751088
0.8307
0.868923
0.885176
0.88915
0.862491
0.791066
0.70433
0.622413
0.57506
0.558587
0.563097
0.588081
0.591076
0.577223
0.532658
0.467394
0.396988
0.342344
0.3064
0.272119
0.236034
0.21805
0.208049
0.204724
0.205316
0.20817
0.214792
0.217908
0.219258
0.225346
0.227701
0.232001
0.242967
0.243618
0.236907
0.237718
0.238009
0.236963
0.241375
0.266443
0.295201
0.30977
0.345612
0.387126
0.399752
0.403533
0.410385
0.416053
0.408474
0.402787
0.393074
0.435986
0.469337
0.483874
0.582819
0.660147
0.735935
0.87461
1.30626
2.0626
2.45885
1.87591
1.33057
1.35662
1.54386
1.56916
1.52543
1.60415
1.78667
1.86044
1.83374
1.75788
1.97839
2.40921
3.09489
4.00349
3.21844
2.42746
2.21453
2.1303
1.96867
2.00203
2.0848
2.09329
2.05461
2.05941
2.11139
2.01656
2.17862
2.2654
2.23394
2.32985
2.18662
2.15222
2.32532
2.5346
2.37298
2.22989
2.35121
2.34579
2.6621
2.85151
2.95505
2.8667
2.65461
2.59703
2.84628
3.57727
3.72302
3.38725
2.77362
2.6786
2.96015
3.48632
3.42379
2.69782
2.27631
2.09529
9.08962
3.14469
1.75287
0.977489
0.458265
0.254112
0.192701
0.184212
0.182705
0.17877
0.165977
0.155124
0.139732
0.125018
0.118501
0.116627
0.114884
0.114411
0.114953
0.116975
0.119519
0.125691
0.132562
0.136805
0.138193
0.136301
0.135138
0.136346
0.14119
0.150459
0.155327
0.158553
0.163411
0.174852
0.183353
0.195109
0.218184
0.287164
0.388632
0.455197
0.482659
0.508109
0.599898
0.676807
0.712284
0.734722
0.734895
0.696504
0.647401
0.576173
0.491902
0.42155
0.38082
0.366046
0.36126
0.363141
0.374922
0.39809
0.427022
0.460546
0.507871
0.574006
0.636667
0.662699
0.672486
0.674065
0.658958
0.616178
0.570661
0.540479
0.526464
0.523764
0.544181
0.553761
0.54442
0.51208
0.462923
0.40493
0.35542
0.322223
0.286409
0.244418
0.205966
0.189965
0.187319
0.188868
0.19476
0.196979
0.205373
0.207174
0.208848
0.20833
0.210319
0.204455
0.212955
0.214171
0.208431
0.202675
0.199457
0.199138
0.198663
0.212259
0.247398
0.267082
0.283124
0.313142
0.340319
0.356566
0.370449
0.391986
0.400694
0.394126
0.38644
0.392425
0.42333
0.449285
0.567037
0.618192
0.668754
0.836861
1.40197
2.09985
2.36117
1.53311
1.19057
1.25075
1.52395
1.62297
1.54977
1.56925
1.7531
1.86249
1.91547
1.71537
1.67773
2.08491
2.86168
3.59157
2.54314
2.247
1.9909
1.98587
1.96191
1.96375
2.03035
2.07261
2.21808
2.16573
2.04484
1.77268
1.81251
2.00954
2.01075
2.1525
2.04491
1.91277
2.07198
2.31137
2.20347
2.20649
2.3578
2.21208
2.5501
2.6961
2.84323
2.7322
2.50618
2.39851
2.51302
3.09803
3.56446
3.39099
2.76936
2.62233
2.82802
3.18847
3.04776
2.45338
2.15701
1.94626
11.0488
3.69974
1.71343
0.729684
0.36297
0.229634
0.192154
0.192959
0.194432
0.187256
0.166993
0.152768
0.136923
0.124713
0.119942
0.11828
0.117258
0.116853
0.117322
0.118798
0.120604
0.12568
0.132969
0.138251
0.139362
0.137386
0.13728
0.139063
0.152185
0.174208
0.179463
0.17491
0.172695
0.177129
0.186104
0.199652
0.225943
0.309368
0.397776
0.454024
0.478693
0.517126
0.614274
0.670865
0.682683
0.651172
0.570848
0.518819
0.465703
0.412476
0.353051
0.311283
0.294243
0.289491
0.289753
0.294309
0.307737
0.333707
0.364984
0.393585
0.423496
0.46727
0.508775
0.52849
0.536443
0.540375
0.538471
0.527177
0.510374
0.501278
0.498292
0.503111
0.516197
0.51552
0.501342
0.468612
0.42189
0.379897
0.345527
0.322188
0.281965
0.228335
0.188545
0.181875
0.182659
0.186868
0.195879
0.197395
0.205033
0.205421
0.207065
0.201428
0.204024
0.195146
0.191386
0.192527
0.18922
0.182952
0.177951
0.178117
0.178617
0.187854
0.220261
0.244778
0.255789
0.274369
0.283228
0.29411
0.316831
0.350973
0.374393
0.398464
0.408013
0.384503
0.389494
0.418993
0.551828
0.602817
0.633426
0.795385
1.42295
2.09363
2.10865
1.34894
1.16357
1.22283
1.43714
1.62404
1.5793
1.54824
1.6594
1.77614
1.85429
1.7708
1.55361
1.82684
2.16124
2.45009
2.0074
2.14669
1.99925
1.9238
2.0184
2.05341
2.24506
2.34362
2.4663
2.25334
2.02708
1.604
1.70843
1.90806
1.90335
1.96957
1.81501
1.71183
1.98018
2.15562
2.08546
2.20469
2.29431
2.0506
2.2907
2.58576
2.73916
2.63715
2.4733
2.37215
2.35697
2.74691
3.31641
3.30616
2.75451
2.59093
2.70693
2.86337
2.7036
2.41265
2.11239
1.89816
12.9643
3.96516
1.48941
0.6137
0.336699
0.232134
0.208675
0.211288
0.208426
0.192182
0.169286
0.156382
0.142958
0.133504
0.12964
0.127924
0.126709
0.125088
0.123748
0.120881
0.117635
0.11588
0.116988
0.119378
0.121467
0.123512
0.129434
0.150111
0.184407
0.19908
0.200389
0.198621
0.197851
0.200299
0.211669
0.238112
0.285108
0.34588
0.397823
0.423243
0.437509
0.511938
0.594371
0.618214
0.595335
0.492771
0.424302
0.389092
0.34823
0.308155
0.273491
0.250151
0.243444
0.242678
0.243227
0.247839
0.262259
0.285137
0.309151
0.332896
0.362196
0.400058
0.437904
0.463792
0.478208
0.482194
0.481928
0.482969
0.483314
0.482908
0.482122
0.483536
0.48541
0.481114
0.465272
0.432781
0.399427
0.367041
0.348
0.32719
0.280241
0.21055
0.183537
0.18001
0.183638
0.188179
0.195495
0.197765
0.199439
0.200214
0.201459
0.196192
0.19661
0.193103
0.180712
0.177337
0.17754
0.171358
0.169017
0.168356
0.167318
0.179739
0.212345
0.226335
0.243152
0.250254
0.250872
0.250117
0.274448
0.315035
0.35276
0.371923
0.408461
0.390052
0.369852
0.391141
0.515407
0.596673
0.610126
0.764526
1.41291
2.06654
1.87438
1.24636
1.15973
1.17647
1.23832
1.48414
1.56034
1.47215
1.40328
1.39651
1.44816
1.5504
1.48981
1.60027
1.70563
1.76003
1.8448
2.13717
1.94734
1.95246
2.17918
2.28724
2.51833
2.91205
2.8287
2.23482
1.91689
1.51871
1.60992
1.85818
1.96209
1.91763
1.65292
1.61494
2.04924
2.09772
1.98406
2.15798
2.19196
2.00806
2.11016
2.49148
2.61358
2.54484
2.47255
2.40789
2.27
2.54904
3.08139
3.10132
2.70881
2.5946
2.65871
2.65381
2.54403
2.48897
2.07205
1.89439
14.8436
4.07625
1.32327
0.572691
0.351904
0.263585
0.228866
0.21678
0.210149
0.192269
0.170114
0.160076
0.150156
0.139585
0.135455
0.134072
0.132864
0.130811
0.12837
0.123005
0.116663
0.111937
0.109786
0.109335
0.110113
0.114236
0.126173
0.156587
0.186376
0.198216
0.199214
0.203064
0.21877
0.236238
0.259638
0.286386
0.316711
0.347506
0.357688
0.364299
0.416501
0.517043
0.565079
0.556643
0.454872
0.361474
0.315441
0.291181
0.264126
0.237694
0.218755
0.208274
0.2061
0.204829
0.205397
0.21205
0.22778
0.249064
0.270198
0.288962
0.310117
0.336895
0.366118
0.394838
0.418799
0.43541
0.446564
0.455036
0.461108
0.462968
0.46164
0.458884
0.454883
0.447526
0.430464
0.406135
0.379012
0.365146
0.365822
0.336324
0.256997
0.203576
0.182865
0.178331
0.178858
0.18282
0.180939
0.185443
0.17566
0.175826
0.178234
0.183227
0.179342
0.186884
0.179169
0.171655
0.171686
0.167528
0.164265
0.16624
0.164834
0.179262
0.188957
0.217097
0.219923
0.229987
0.241831
0.23695
0.254867
0.303107
0.340118
0.344054
0.367424
0.378546
0.364698
0.377213
0.474189
0.582164
0.595096
0.750417
1.3922
2.00933
1.74117
1.21639
1.15432
1.07605
1.08172
1.23272
1.3662
1.28762
1.18222
1.13903
1.08605
1.12997
1.35497
1.54743
1.5494
1.64639
1.99783
2.22552
1.99076
1.94193
2.21559
2.57825
2.68097
2.92121
2.56973
2.04699
1.74856
1.4931
1.48911
1.70177
1.79916
1.77953
1.58065
1.59872
2.09196
2.05376
1.84457
2.00332
2.0309
1.99993
2.07558
2.38507
2.47404
2.46617
2.49986
2.4248
2.21311
2.39911
2.839
2.87941
2.65658
2.59711
2.66047
2.618
2.55644
2.50826
1.93557
1.85398
16.684
4.09325
1.27418
0.608446
0.450739
0.353797
0.263918
0.225181
0.217041
0.206174
0.181224
0.172333
0.165053
0.148246
0.139243
0.136151
0.133702
0.131378
0.127723
0.121384
0.115063
0.111327
0.10985
0.109664
0.110687
0.116206
0.131645
0.157476
0.174648
0.181799
0.188036
0.202586
0.2232
0.244933
0.27232
0.296063
0.312117
0.315236
0.322226
0.357183
0.431603
0.506709
0.508892
0.427629
0.319696
0.264819
0.238892
0.224159
0.206239
0.192879
0.185166
0.180369
0.178357
0.178276
0.180393
0.187942
0.202264
0.221045
0.240539
0.263832
0.290376
0.312607
0.330475
0.350031
0.369971
0.385657
0.40385
0.424298
0.434961
0.441205
0.442547
0.440472
0.435073
0.426369
0.407768
0.381114
0.359578
0.364064
0.377325
0.338673
0.24142
0.208883
0.187411
0.171264
0.155653
0.15382
0.150738
0.155556
0.156411
0.157184
0.158695
0.166644
0.170512
0.173326
0.17647
0.170952
0.168127
0.169356
0.163201
0.160565
0.165609
0.170319
0.18081
0.192895
0.201972
0.210154
0.217777
0.241377
0.243379
0.286267
0.34192
0.346312
0.338206
0.355705
0.368693
0.37942
0.461533
0.579435
0.593621
0.742193
1.36888
1.87231
1.6326
1.20307
1.12064
0.977116
0.967824
1.0566
1.11639
1.09449
1.03224
1.01326
0.928153
0.946037
1.26638
1.48873
1.47091
1.76632
2.11311
2.11798
2.10019
2.02579
2.2187
2.47701
2.34651
2.274
2.267
1.99336
1.7133
1.48649
1.42794
1.54187
1.64606
1.65527
1.57477
1.63237
1.95986
1.902
1.70097
1.82465
1.88553
1.98455
2.07809
2.27761
2.34576
2.37364
2.50287
2.35884
2.11721
2.31538
2.60209
2.63849
2.55159
2.5827
2.66713
2.63009
2.61371
2.40645
1.72471
1.66838
18.5197
4.21127
1.37449
0.842913
0.78068
0.633045
0.395602
0.27648
0.261919
0.253389
0.215945
0.195797
0.19009
0.176733
0.15863
0.148187
0.14169
0.13799
0.133014
0.126469
0.120153
0.116048
0.114481
0.114195
0.115992
0.124396
0.137666
0.152301
0.161572
0.17124
0.184954
0.203362
0.22413
0.246082
0.270846
0.286738
0.290793
0.29808
0.320446
0.366373
0.426685
0.437443
0.397999
0.299277
0.232249
0.202646
0.1892
0.180021
0.171467
0.165776
0.163006
0.162715
0.163709
0.165659
0.168322
0.173948
0.182715
0.193606
0.208213
0.229936
0.255726
0.28178
0.304302
0.325818
0.341681
0.357095
0.372946
0.386956
0.403725
0.417786
0.421229
0.419175
0.412155
0.395915
0.373356
0.342753
0.335203
0.343515
0.358262
0.324218
0.24729
0.224924
0.195804
0.16151
0.13415
0.128437
0.131106
0.142258
0.151345
0.152823
0.152011
0.153994
0.162011
0.169202
0.170213
0.173818
0.167082
0.167435
0.166303
0.164554
0.162963
0.169862
0.175077
0.187379
0.195679
0.201537
0.211751
0.236689
0.255607
0.265586
0.332621
0.35541
0.333661
0.331585
0.353999
0.37689
0.441145
0.566629
0.595643
0.7362
1.35589
1.72871
1.5112
1.17602
1.04393
0.901708
0.882494
0.949159
1.00105
0.983567
0.930389
0.914707
0.86384
0.863851
1.13764
1.34215
1.4358
1.87386
1.96908
2.21825
2.12009
1.99082
2.00523
2.12487
2.36654
2.2846
1.91466
1.62986
1.53902
1.44413
1.3241
1.35521
1.4022
1.43359
1.49618
1.60259
1.67552
1.67311
1.5764
1.72422
1.83251
2.02331
2.07341
2.17623
2.23258
2.30415
2.39597
2.18587
2.01347
2.29558
2.44072
2.45531
2.44641
2.57609
2.70498
2.64905
2.57817
2.08859
1.55441
1.501
20.2225
4.63398
1.88692
1.47415
1.28046
1.13794
0.724079
0.402608
0.295686
0.264647
0.217735
0.194359
0.188453
0.181968
0.174757
0.169593
0.16439
0.160346
0.156545
0.151566
0.14528
0.138727
0.133108
0.130622
0.131174
0.134929
0.143395
0.152593
0.160944
0.172058
0.187718
0.207242
0.225876
0.240882
0.252377
0.260339
0.271257
0.292515
0.320826
0.351879
0.357945
0.338274
0.2889
0.217971
0.181211
0.165571
0.158981
0.154917
0.151851
0.151026
0.153223
0.157097
0.160688
0.164086
0.167287
0.172401
0.178642
0.185708
0.19604
0.210166
0.224182
0.240017
0.260853
0.280445
0.295974
0.312656
0.330623
0.349385
0.359615
0.367231
0.370337
0.36809
0.359658
0.341274
0.319554
0.309669
0.31247
0.313021
0.301455
0.279618
0.25827
0.248055
0.223289
0.166015
0.13189
0.12097
0.123649
0.136687
0.15016
0.153035
0.150296
0.14861
0.149522
0.159101
0.16248
0.172869
0.166957
0.169038
0.168616
0.165076
0.165091
0.171778
0.175039
0.18699
0.196295
0.197173
0.21315
0.223125
0.256403
0.265303
0.306782
0.363326
0.334571
0.328726
0.339111
0.361166
0.402437
0.53411
0.589762
0.72969
1.34684
1.63197
1.4072
1.10756
0.97384
0.870622
0.821406
0.859752
0.955117
0.941469
0.885137
0.85918
0.798185
0.779664
0.93469
1.02837
1.42064
1.83859
2.03008
2.13223
1.9131
1.96707
2.20541
2.25534
2.11676
1.82737
1.77012
1.56867
1.39719
1.34713
1.23738
1.28543
1.28156
1.28923
1.39238
1.47227
1.5
1.49732
1.52739
1.73615
1.85811
2.06533
2.04081
2.04889
2.1192
2.22265
2.25011
1.99223
1.91632
2.29348
2.34489
2.30904
2.32371
2.54925
2.77744
2.67856
2.38256
1.7606
1.45788
1.42784
21.6148
5.64749
3.13956
2.18362
1.76106
1.63087
1.09148
0.469691
0.314236
0.269788
0.22507
0.198835
0.188439
0.183507
0.180227
0.177619
0.175046
0.173947
0.175702
0.177231
0.177298
0.175616
0.172479
0.167287
0.161828
0.158369
0.157481
0.159907
0.168153
0.185233
0.20605
0.220046
0.228583
0.231482
0.23483
0.243445
0.262236
0.280721
0.293519
0.293062
0.284254
0.264534
0.22759
0.17731
0.154886
0.147079
0.144076
0.142325
0.142577
0.145827
0.15143
0.156818
0.1628
0.171763
0.178806
0.18364
0.18766
0.192787
0.200574
0.211761
0.221088
0.22566
0.235229
0.250796
0.26591
0.275674
0.287087
0.296264
0.303712
0.30881
0.307845
0.303959
0.29614
0.285764
0.276501
0.269358
0.271704
0.284339
0.283253
0.267879
0.263947
0.259924
0.236865
0.178018
0.134465
0.11703
0.116704
0.123071
0.143231
0.148482
0.150112
0.144658
0.146902
0.149623
0.151928
0.162563
0.166376
0.164171
0.16748
0.164818
0.168869
0.178166
0.177005
0.18185
0.19115
0.187849
0.199754
0.232033
0.233801
0.258958
0.267244
0.343387
0.337241
0.327852
0.335843
0.357908
0.389348
0.51937
0.585309
0.711722
1.31629
1.57654
1.34953
1.03906
0.92546
0.866958
0.803207
0.791546
0.91004
0.920585
0.839275
0.814152
0.751205
0.743365
0.807626
0.862842
1.3356
1.78018
2.04407
1.77383
1.84316
2.29827
2.04706
1.88621
1.63052
1.64676
1.68484
1.60717
1.41104
1.35275
1.22685
1.27838
1.29903
1.28337
1.33995
1.43385
1.4156
1.40141
1.53324
1.71933
1.97113
2.0458
1.92545
1.88098
1.98857
2.07991
2.0768
1.84784
1.82794
2.30288
2.31985
2.1886
2.22911
2.5301
2.79924
2.67472
2.09241
1.54012
1.36262
1.36288
22.6236
8.15522
4.39196
2.72726
2.00175
1.77211
1.4343
0.812076
0.528234
0.419202
0.304543
0.237887
0.218402
0.202474
0.195905
0.194659
0.193575
0.193064
0.192787
0.192836
0.193431
0.19516
0.19657
0.195912
0.193148
0.189189
0.188072
0.187134
0.192076
0.205279
0.224179
0.233378
0.23423
0.232182
0.232483
0.239419
0.260184
0.275053
0.277378
0.272416
0.255602
0.228443
0.19761
0.165797
0.146315
0.1413
0.139855
0.13925
0.140586
0.145728
0.153801
0.163985
0.175025
0.18547
0.197382
0.205416
0.207876
0.209061
0.212349
0.219606
0.223938
0.225186
0.228715
0.236714
0.24364
0.249978
0.254869
0.261149
0.265099
0.265193
0.267414
0.268844
0.266692
0.259582
0.247492
0.242481
0.243219
0.248392
0.252852
0.265337
0.269206
0.265099
0.239691
0.17883
0.134079
0.110063
0.106288
0.11163
0.130551
0.141348
0.149982
0.143007
0.143598
0.147272
0.148795
0.154441
0.160782
0.157488
0.165572
0.166482
0.164042
0.171023
0.174078
0.179503
0.191385
0.182388
0.187338
0.204794
0.217418
0.221119
0.236478
0.290719
0.313202
0.318938
0.326335
0.350832
0.379121
0.505291
0.582127
0.696856
1.21829
1.54321
1.33977
0.988228
0.889982
0.868534
0.809983
0.766636
0.841595
0.896917
0.761493
0.753897
0.705114
0.662504
0.701226
0.756823
1.26769
1.75726
1.69904
1.67791
1.94077
2.0648
1.64966
1.52519
1.57039
1.72446
1.65073
1.51764
1.38946
1.35182
1.26467
1.33024
1.30407
1.27391
1.3305
1.34639
1.30785
1.32057
1.49545
1.64552
2.02517
1.95061
1.7946
1.72742
1.83076
1.90622
1.8817
1.71596
1.77054
2.33716
2.32605
2.12311
2.14923
2.52331
2.78675
2.56826
1.84935
1.40633
1.27247
1.28149
23.9757
11.3289
4.76964
2.62065
1.9127
1.6994
1.42479
0.948972
0.654246
0.477604
0.321472
0.245579
0.231748
0.228377
0.23173
0.235946
0.237921
0.237794