/*--------------------------------*- C++ -*----------------------------------*\
| =========                 |                                                 |
| \\      /  F ield         | OpenFOAM: The Open Source CFD Toolbox           |
|  \\    /   O peration     | Version:  dev                                   |
|   \\  /    A nd           | Web:      http://www.openfoam.org               |
|    \\/     M anipulation  |                                                 |
\*---------------------------------------------------------------------------*/
FoamFile
{
    version     2.0;
    format      ascii;
    class       volScalarField;
    object      muSgs;
    location    "9.144";
}
// * * * * * * * * * * * * * * * * * * * * * * * * * * * * * * * * * * * * * //

dimensions      [1 -1 -1 0 0 0 0];

internalField   nonuniform List<scalar> 
12225
(
0.000212376
0.000230831
0.00018865
0.000191389
0.000185004
0.000199017
0.000209609
0.000218227
0.00023534
0.000239506
0.000263218
0.000256015
0.000297322
0.000262673
0.00030855
0.000266868
0.000298304
0.000352489
0.000100299
0.000197421
0.000182951
0.000200482
0.000172339
0.00019496
0.000174626
0.000192632
0.000182003
0.000196177
0.000188828
0.00020254
0.000204783
0.00019645
0.000230057
0.000249452
0.000360253
0.000423879
3.07035e-05
0.00010666
0.000112297
0.000143884
0.000131895
0.000150762
0.000135101
0.000151836
0.000134649
0.000148375
0.000136009
0.000138849
0.000149565
0.000120717
0.000147796
0.000152316
0.000300653
0.000436378
1.32791e-05
5.47983e-05
6.52207e-05
8.82672e-05
8.93979e-05
9.64375e-05
9.51867e-05
0.000101014
9.5681e-05
9.46565e-05
9.6115e-05
9.14531e-05
0.000103936
8.10041e-05
9.97373e-05
0.000104729
0.000231565
0.000367015
6.3281e-06
2.45074e-05
3.26136e-05
4.49791e-05
5.54993e-05
5.76175e-05
6.4662e-05
6.51339e-05
6.91127e-05
6.62285e-05
7.21914e-05
7.06191e-05
7.52921e-05
6.75433e-05
7.73886e-05
7.11369e-05
0.000152084
0.00024905
5.37961e-06
2.36922e-05
2.76879e-05
4.07631e-05
4.40459e-05
5.21145e-05
5.32679e-05
6.15609e-05
5.98784e-05
5.78417e-05
6.52659e-05
6.64922e-05
6.87774e-05
6.30076e-05
7.2524e-05
6.50133e-05
0.000104793
0.000153464
1.00332e-05
3.33844e-05
3.36278e-05
4.11488e-05
4.28456e-05
4.56227e-05
4.81292e-05
4.68549e-05
5.08864e-05
4.79026e-05
5.91502e-05
5.24831e-05
5.86853e-05
5.41562e-05
6.24218e-05
6.88578e-05
8.39032e-05
9.08026e-05
9.01471e-06
2.05599e-05
2.57726e-05
2.64129e-05
3.36111e-05
3.37675e-05
3.53265e-05
3.43208e-05
3.55543e-05
3.54085e-05
4.08759e-05
3.74224e-05
3.99491e-05
3.91486e-05
4.61005e-05
4.23363e-05
5.11153e-05
5.54889e-05
1.2094e-05
1.68422e-05
2.30667e-05
2.56641e-05
3.14978e-05
3.38645e-05
3.52707e-05
3.45e-05
3.54393e-05
3.606e-05
3.92272e-05
3.71524e-05
3.89652e-05
3.69771e-05
3.99922e-05
3.73812e-05
4.3981e-05
4.77353e-05
1.91152e-05
2.28529e-05
2.59813e-05
2.83939e-05
3.39613e-05
3.67217e-05
3.77449e-05
3.7419e-05
3.82844e-05
3.86662e-05
4.07222e-05
3.94349e-05
4.00155e-05
3.92821e-05
4.07699e-05
3.88289e-05
4.31923e-05
4.49552e-05
2.93273e-05
3.75215e-05
3.65292e-05
3.79227e-05
3.918e-05
4.2076e-05
4.19992e-05
4.23437e-05
4.1749e-05
4.24748e-05
4.33122e-05
4.31051e-05
4.23733e-05
4.20329e-05
4.21362e-05
4.05791e-05
4.22359e-05
4.14943e-05
4.10969e-05
5.43136e-05
5.46087e-05
5.70225e-05
5.49618e-05
5.53692e-05
5.36196e-05
5.37628e-05
5.14876e-05
5.12314e-05
4.99805e-05
4.97306e-05
4.83968e-05
4.73077e-05
4.64241e-05
4.48885e-05
4.51257e-05
4.46803e-05
6.42522e-05
7.87919e-05
7.91098e-05
8.10953e-05
7.89211e-05
7.81642e-05
7.55412e-05
7.43403e-05
7.13643e-05
6.92082e-05
6.59361e-05
6.39032e-05
6.13595e-05
5.88966e-05
5.62699e-05
5.41432e-05
5.25913e-05
5.14944e-05
9.2568e-05
0.000106306
0.000106349
0.000106674
0.000104336
0.00010263
9.99904e-05
9.82031e-05
9.4841e-05
9.14364e-05
8.73658e-05
8.42199e-05
8.06256e-05
7.75641e-05
7.41737e-05
7.15364e-05
6.90378e-05
6.65807e-05
0.000128396
0.000146372
0.0001466
0.000144956
0.000141731
0.000138338
0.000134057
0.000129099
0.000122781
0.000116781
0.000110698
0.000105531
0.00010018
9.58085e-05
9.11107e-05
8.7498e-05
8.35059e-05
8.03455e-05
0.000171809
0.000186741
0.00018417
0.000179266
0.000172355
0.00016472
0.000156538
0.000148721
0.000140638
0.000133332
0.000126103
0.000119886
0.000113568
0.000108322
0.000102788
9.85043e-05
9.36947e-05
8.99853e-05
0.000200962
0.000209935
0.000205673
0.00019937
0.000190773
0.000181586
0.000171904
0.000162777
0.000153747
0.000145631
0.000137622
0.000130705
0.000123731
0.000117928
0.000111801
0.000107011
0.000101672
9.75336e-05
0.00020046
0.000208417
0.000204253
0.000198203
0.000189914
0.000180806
0.000171166
0.000162112
0.000153182
0.000145134
0.000137191
0.000130346
0.000123413
0.000117614
0.000111499
0.000106694
0.000101359
9.72268e-05
0.000167197
0.000180933
0.000180032
0.00017606
0.000170391
0.00016286
0.000154643
0.000146828
0.000139125
0.000132145
0.000125172
0.000119193
0.000113108
0.000108015
0.000102531
9.82449e-05
9.3371e-05
8.95536e-05
0.000125817
0.000139223
0.000142046
0.000140894
0.00013859
0.000135367
0.000130463
0.000124789
0.000119172
0.000113937
0.000108431
0.000103595
9.88412e-05
9.50009e-05
9.048e-05
8.69924e-05
8.28356e-05
7.95045e-05
9.15638e-05
0.000100645
0.000102069
0.000101533
0.000100127
9.8287e-05
9.6325e-05
9.35883e-05
9.0203e-05
8.7117e-05
8.35834e-05
8.01938e-05
7.73956e-05
7.52934e-05
7.23655e-05
6.9847e-05
6.68237e-05
6.42526e-05
6.30702e-05
7.05064e-05
7.32336e-05
7.5004e-05
7.57212e-05
7.51415e-05
7.39908e-05
7.24549e-05
7.04372e-05
6.77285e-05
6.44795e-05
6.12036e-05
5.83918e-05
5.65935e-05
5.47221e-05
5.32115e-05
5.16644e-05
5.02853e-05
4.03622e-05
4.59987e-05
5.05342e-05
5.32741e-05
5.38829e-05
5.33935e-05
5.25601e-05
5.16624e-05
5.11286e-05
5.06831e-05
4.99337e-05
4.91369e-05
4.83792e-05
4.76171e-05
4.677e-05
4.60026e-05
4.52091e-05
4.43398e-05
2.59788e-05
3.14761e-05
3.29237e-05
3.43673e-05
3.64909e-05
3.86208e-05
4.04854e-05
4.21356e-05
4.35749e-05
4.43412e-05
4.45251e-05
4.45151e-05
4.43307e-05
4.39157e-05
4.34247e-05
4.29432e-05
4.24037e-05
4.17494e-05
1.47552e-05
1.82095e-05
2.16249e-05
2.65411e-05
3.06863e-05
3.43089e-05
3.73151e-05
3.98986e-05
4.20836e-05
4.35298e-05
4.42594e-05
4.46591e-05
4.46837e-05
4.44347e-05
4.41388e-05
4.37912e-05
4.33389e-05
4.27804e-05
7.06163e-06
1.31052e-05
2.01098e-05
2.9023e-05
3.61565e-05
4.18768e-05
4.61796e-05
4.9526e-05
5.21652e-05
5.35588e-05
5.41268e-05
5.44638e-05
5.42259e-05
5.38148e-05
5.34126e-05
5.28848e-05
5.21631e-05
5.12532e-05
6.03966e-06
2.17914e-05
3.94633e-05
5.50633e-05
6.45363e-05
7.10758e-05
7.51621e-05
7.77544e-05
7.92949e-05
7.93351e-05
7.86959e-05
7.81025e-05
7.69565e-05
7.58569e-05
7.47431e-05
7.35002e-05
7.19329e-05
7.02418e-05
1.96341e-05
6.32247e-05
9.54355e-05
0.000110302
0.000117312
0.000121171
0.000122247
0.000121525
0.00011995
0.000117373
0.000114797
0.00011227
0.000109653
0.000106919
0.000104228
0.000101511
9.80962e-05
9.49618e-05
7.78959e-05
0.000166766
0.000190161
0.000190776
0.000185127
0.000179045
0.0001726
0.000166947
0.000162207
0.000157
0.000152031
0.000147117
0.000142406
0.000137622
0.00013314
0.000128266
0.000123779
0.000118651
0.000215594
0.000262558
0.000245124
0.000220782
0.000205198
0.000199607
0.00019785
0.000198038
0.000198772
0.000198928
0.000197999
0.000196339
0.000193987
0.000190755
0.000187027
0.000182875
0.000178196
0.000171656
2.61057e-05
2.75473e-05
2.92799e-05
3.06427e-05
3.22655e-05
3.43474e-05
3.69605e-05
4.0048e-05
4.35235e-05
4.72896e-05
5.14547e-05
5.53556e-05
5.94555e-05
6.42894e-05
6.95376e-05
7.4842e-05
8.05036e-05
8.6911e-05
9.36795e-05
0.000100129
0.000106112
0.000112972
0.000119735
0.000126212
0.000132082
0.000136702
0.000141427
0.000145548
0.000149009
0.000153033
0.000156476
0.00016064
0.000165673
0.000167721
0.000167934
0.000170487
0.000175393
0.000180096
0.000184207
0.000187795
0.000191149
0.000194748
0.000198609
0.0002023
0.000205819
0.000210039
0.000215857
0.000224322
0.000233609
0.000240243
0.000244347
0.000247696
0.000251255
0.000255015
0.000258427
0.000261003
0.00026327
0.00026687
0.000270837
0.00027476
0.000278102
0.000280824
0.000282772
0.000284152
0.000285084
0.00028559
0.000286286
0.000287785
0.000291241
0.000298196
0.000311844
0.000335962
0.000373723
0.000420653
0.000460272
0.000478418
0.000488576
0.000492976
0.000484666
0.000471179
0.000453915
0.000432786
0.00041176
0.000390888
0.000370729
0.000351807
0.000334046
0.000317612
0.000301783
0.000286071
0.00027315
0.000260173
0.000248779
0.000238145
0.000227625
0.000219351
0.000211883
0.000204166
0.000199521
0.000192429
0.000188808
0.000183916
0.000180924
0.000178212
0.000174947
0.000172382
0.000172194
0.000177958
0.000182091
0.000182825
0.000181416
0.000178588
0.000178833
0.000178653
0.000176423
0.000172735
0.000160507
0.000149239
0.000148251
0.000152087
0.000152478
0.000150322
0.000154341
0.000165274
0.00017772
0.000192616
0.00020119
0.000209987
0.000221958
0.000242252
0.000272415
0.00030434
0.000334032
0.000356799
0.00037049
0.000384071
0.000417214
0.000462193
0.000463094
0.000384389
0.000396721
0.00039517
0.000406545
0.000417338
0.000419372
0.000421036
0.000419264
0.000411234
0.000405834
0.000396874
0.000385529
0.000373736
0.000362825
0.000354794
0.000346322
0.000335689
0.00032548
0.000320382
0.000322099
0.000334242
0.000340675
0.000347311
0.000342278
0.000331433
0.000328496
0.000334084
0.000338809
0.000345259
0.000347573
0.000349501
0.000361372
0.00038885
0.000427749
0.000455844
0.00048775
0.000519857
0.000545122
0.000557964
0.000565813
0.00057475
5.70771e-05
4.2496e-05
3.55718e-05
3.39413e-05
3.47324e-05
3.68984e-05
4.03903e-05
4.42071e-05
4.74805e-05
4.97644e-05
5.10799e-05
5.17515e-05
5.19148e-05
5.21172e-05
5.27233e-05
5.31697e-05
5.3575e-05
5.43283e-05
5.57658e-05
5.72302e-05
5.86871e-05
6.10862e-05
6.41413e-05
6.74864e-05
7.20499e-05
7.58125e-05
7.89738e-05
8.50727e-05
8.92635e-05
9.39804e-05
9.8921e-05
0.000101165
0.000104391
0.000109878
0.000113216
0.000115766
0.00011736
0.000117084
0.000115272
0.000113469
0.000108574
0.000101703
9.63109e-05
9.0638e-05
8.48531e-05
8.11655e-05
8.06979e-05
8.30141e-05
9.14419e-05
0.000113769
0.000129495
0.000132136
0.000130401
0.000126137
0.000124334
0.000122573
0.00012129
0.000122858
0.000130382
0.000143105
0.000153589
0.000162817
0.000173111
0.000183342
0.000194422
0.000207795
0.00022575
0.000249439
0.000273621
0.000292001
0.000308658
0.000329281
0.000344243
0.000351198
0.000339228
0.000306327
0.000274328
0.000239314
0.00020439
0.000177835
0.000161429
0.000150397
0.000144087
0.000138267
0.000134813
0.000131734
0.000129368
0.00012677
0.000124135
0.000121476
0.00012007
0.000117991
0.00011703
0.000116187
0.000115811
0.000115869
0.000115996
0.000116012
0.000116312
0.000116058
0.000116553
0.000117433
0.00011957
0.000119775
0.000114601
0.000110653
0.000111826
0.000122271
0.000136915
0.000145094
0.000149426
0.000151432
0.000153022
0.00015679
0.00016221
0.000165273
0.000161164
0.000147256
0.000140714
0.000140708
0.000145261
0.000150016
0.000159933
0.000180208
0.000196058
0.000191974
0.000190534
0.000193781
0.00020304
0.000229103
0.000263733
0.000287128
0.000300199
0.000309447
0.000315366
0.000328333
0.000367863
0.000376815
0.000302798
0.000226292
0.000311402
0.000278353
0.000283915
0.000324425
0.00034305
0.000351857
0.000344767
0.000335063
0.000339079
0.000339574
0.000337363
0.000325321
0.000317268
0.000317358
0.000318235
0.000316179
0.000310443
0.000304792
0.000306946
0.000326573
0.00034747
0.000373894
0.00037983
0.000371089
0.000365045
0.00037468
0.000377977
0.000380044
0.000371432
0.00036019
0.000355769
0.000360486
0.000370312
0.000389674
0.000409241
0.000417818
0.000439712
0.000462013
0.000481688
0.00048436
8.97455e-05
6.17431e-05
4.64788e-05
4.07222e-05
4.22565e-05
4.77606e-05
5.34426e-05
5.51878e-05
5.50673e-05
5.41387e-05
5.26391e-05
5.19462e-05
5.17301e-05
5.04981e-05
4.97135e-05
4.98553e-05
4.97286e-05
4.90306e-05
4.91784e-05
4.93132e-05
4.92252e-05
4.97025e-05
4.98371e-05
5.04818e-05
5.19809e-05
5.29017e-05
5.45751e-05
5.78449e-05
5.99096e-05
6.42625e-05
6.8173e-05
7.12715e-05
7.86294e-05
8.41656e-05
8.63425e-05
8.63773e-05
8.36782e-05
7.99727e-05
8.00299e-05
8.03819e-05
7.92228e-05
7.43322e-05
6.88602e-05
6.3285e-05
5.89415e-05
5.70079e-05
5.69277e-05
5.72293e-05
5.81883e-05
6.06774e-05
6.65654e-05
7.29299e-05
8.20111e-05
9.31398e-05
0.000105417
0.00011595
0.000123226
0.000130482
0.000137292
0.000145313
0.000151392
0.000156627
0.000165036
0.000176657
0.000190487
0.000204425
0.000217459
0.000230615
0.000239912
0.000245102
0.000247181
0.000237707
0.000216652
0.000195417
0.000167956
0.000139123
0.000119937
0.000105078
9.79433e-05
9.51434e-05
9.39109e-05
9.29304e-05
9.22554e-05
9.18166e-05
9.14977e-05
9.10594e-05
9.04707e-05
8.95609e-05
8.85292e-05
8.75083e-05
8.70803e-05
8.60313e-05
8.4752e-05
8.37737e-05
8.37969e-05
8.43288e-05
8.55148e-05
8.59756e-05
8.6087e-05
8.62476e-05
8.7278e-05
8.81741e-05
9.00732e-05
9.02745e-05
8.66429e-05
8.26927e-05
8.1941e-05
8.63311e-05
9.71158e-05
0.000105987
0.000112765
0.00011713
0.000119558
0.000122266
0.000125481
0.00013494
0.000149914
0.000150389
0.000136727
0.000130396
0.000133938
0.000144383
0.000164009
0.000204418
0.000197543
0.000184116
0.00018068
0.000177
0.000188373
0.000217026
0.000237511
0.000246753
0.000248286
0.000244414
0.000240878
0.000253021
0.000290083
0.00027687
0.000215036
0.00021145
0.000248447
0.000211672
0.000214406
0.000239682
0.000264957
0.000277571
0.000261025
0.000256115
0.000266855
0.000278126
0.000284198
0.000267953
0.000256545
0.000264674
0.000273823
0.000282856
0.000279436
0.000261332
0.000250914
0.000260443
0.000279364
0.000295218
0.000343177
0.000352766
0.000338225
0.000337131
0.000346862
0.000366622
0.000363864
0.000357485
0.000338292
0.000332186
0.000320807
0.000329036
0.000339942
0.000347331
0.000377946
0.000395844
0.000400805
0.000365048
0.000118764
6.91344e-05
5.22095e-05
5.16882e-05
5.93663e-05
6.23904e-05
6.13283e-05
5.80241e-05
5.42068e-05
5.0837e-05
4.74072e-05
4.4036e-05
4.32452e-05
4.24294e-05
4.10609e-05
4.08779e-05
4.07692e-05
4.01645e-05
3.97681e-05
3.93457e-05
3.95273e-05
3.91418e-05
3.86232e-05
3.89632e-05
3.89836e-05
3.94293e-05
4.05137e-05
4.19374e-05
4.3085e-05
4.56475e-05
4.86429e-05
5.07462e-05
5.55046e-05
6.03496e-05
6.71956e-05
7.57656e-05
7.76988e-05
7.67402e-05
7.29229e-05
6.71623e-05
6.42043e-05
6.17022e-05
5.85918e-05
5.68618e-05
5.68481e-05
5.70417e-05
5.82809e-05
6.16386e-05
6.38182e-05
6.75017e-05
7.47051e-05
9.45923e-05
0.00010912
0.000115814
0.000119115
0.000121989
0.000125378
0.000128792
0.000131453
0.000132515
0.000135078
0.000141821
0.000151151
0.000160886
0.000169018
0.000176211
0.000182515
0.000185956
0.000188119
0.00018469
0.000173683
0.000154548
0.00012914
0.00011208
9.95536e-05
9.25142e-05
8.96321e-05
8.85224e-05
8.82394e-05
8.77232e-05
8.70261e-05
8.56007e-05
8.45784e-05
8.40837e-05
8.36422e-05
8.3502e-05
8.29385e-05
8.2152e-05
8.11149e-05
7.99292e-05
7.97917e-05
7.91508e-05
7.82781e-05
7.57911e-05
7.54255e-05
7.50266e-05
7.57382e-05
7.65849e-05
7.63992e-05
7.66434e-05
7.75486e-05
7.86235e-05
8.05606e-05
8.14938e-05
7.98322e-05
7.77797e-05
7.74244e-05
7.819e-05
8.30665e-05
8.89262e-05
9.42981e-05
9.82701e-05
0.000102605
0.000107406
0.000108284
0.000110273
0.000129141
0.000141204
0.000138448
0.000131241
0.000133412
0.000145379
0.000186955
0.000209056
0.000192466
0.000173448
0.000167982
0.00016814
0.000184737
0.000208089
0.000216
0.000217275
0.000213509
0.000204723
0.000199798
0.000212316
0.000247312
0.00023915
0.000211856
0.000205889
0.000222629
0.000204535
0.000203491
0.000211251
0.000226726
0.000234616
0.000205409
0.000199206
0.000218496
0.000241284
0.000273094
0.00025413
0.000220333
0.000216081
0.000227673
0.000246386
0.000271684
0.000253765
0.000227788
0.000222809
0.000235068
0.000235614
0.000278463
0.000313918
0.000307993
0.000295103
0.000299357
0.000321307
0.000347928
0.000356045
0.000343465
0.000323535
0.000302059
0.000304601
0.000306416
0.000321944
0.000340533
0.000348861
0.000327785
0.000290154
0.000148536
8.081e-05
6.25175e-05
6.92363e-05
7.03551e-05
6.65093e-05
5.96134e-05
5.07304e-05
4.32715e-05
3.90752e-05
3.70956e-05
3.61555e-05
3.57156e-05
3.54026e-05
3.4864e-05
3.49849e-05
3.46756e-05
3.41999e-05
3.42732e-05
3.37248e-05
3.36018e-05
3.32047e-05
3.27725e-05
3.29536e-05
3.313e-05
3.36379e-05
3.48819e-05
3.60088e-05
3.69866e-05
3.88147e-05
4.05115e-05
4.13215e-05
4.3653e-05
4.56778e-05
4.91629e-05
5.56437e-05
6.32882e-05
6.77526e-05
6.82917e-05
6.69491e-05
6.36981e-05
6.02059e-05
5.81948e-05
5.8353e-05
5.9335e-05
6.2175e-05
7.21908e-05
7.85643e-05
8.29055e-05
9.19247e-05
9.92061e-05
0.000105095
0.0001091
0.000109627
0.000107258
0.000105451
0.000104921
0.000105389
0.000107085
0.000110267
0.000115605
0.000123069
0.000130718
0.00013734
0.000140874
0.000143407
0.000145791
0.000146197
0.000142274
0.000133573
0.000119478
0.000103643
9.28859e-05
8.79323e-05
8.6135e-05
8.59488e-05
8.61139e-05
8.58749e-05
8.4602e-05
8.17482e-05
7.75039e-05
7.32444e-05
7.04862e-05
6.85856e-05
6.77109e-05
6.75797e-05
6.78505e-05
6.8256e-05
6.90669e-05
6.93464e-05
7.06123e-05
7.08791e-05
7.21343e-05
7.13715e-05
7.08247e-05
6.99968e-05
7.00387e-05
7.13043e-05
7.15935e-05
7.22207e-05
7.3082e-05
7.46833e-05
7.61783e-05
7.76298e-05
7.75769e-05
7.68008e-05
7.68626e-05
7.70443e-05
7.85903e-05
8.07308e-05
8.23754e-05
8.13847e-05
8.47971e-05
9.59017e-05
9.92714e-05
9.74777e-05
0.000108038
0.000126812
0.000132813
0.000130125
0.000133838
0.000157943
0.000200668
0.000204159
0.000172876
0.00016053
0.000159592
0.000167197
0.000179945
0.000192242
0.000195963
0.000194291
0.000188144
0.000179456
0.000178068
0.000199102
0.000219393
0.000226765
0.000224551
0.00019739
0.000223275
0.0001914
0.00018819
0.000198012
0.000209077
0.000216686
0.000196861
0.000188955
0.000193405
0.00020566
0.000242092
0.000249865
0.000232788
0.000210841
0.000204349
0.000214289
0.000251367
0.00025363
0.000226715
0.000208494
0.000217619
0.000209149
0.000236065
0.000276024
0.000285085
0.000271562
0.000267846
0.000277659
0.000316018
0.000338535
0.000349002
0.000322197
0.000292484
0.000293822
0.000291437
0.000308382
0.000316889
0.000312304
0.000278447
0.000255169
0.000178739
0.000101489
8.41768e-05
8.22021e-05
7.43247e-05
6.19648e-05
4.75702e-05
3.92115e-05
3.60639e-05
3.52389e-05
3.45417e-05
3.42344e-05
3.3656e-05
3.29408e-05
3.21591e-05
3.16172e-05
3.16593e-05
3.16946e-05
3.16407e-05
3.15996e-05
3.14681e-05
3.13255e-05
3.14577e-05
3.18312e-05
3.30657e-05
3.42164e-05
3.50524e-05
3.62147e-05
3.74244e-05
3.96325e-05
4.0855e-05
4.12275e-05
4.24793e-05
4.29471e-05
4.44144e-05
4.73598e-05
5.05394e-05
5.88821e-05
6.51717e-05
6.62491e-05
6.54254e-05
6.10091e-05
6.00267e-05
6.07751e-05
6.77706e-05
7.91357e-05
8.50378e-05
8.73564e-05
8.92413e-05
9.35099e-05
9.73095e-05
9.77311e-05
9.24939e-05
8.7319e-05
8.52201e-05
8.44238e-05
8.47107e-05
8.60423e-05
8.86732e-05
9.2749e-05
9.85632e-05
0.000105422
0.000111631
0.000115001
0.000116455
0.000117616
0.000117969
0.00011543
0.000109433
0.000100327
9.05195e-05
8.46762e-05
8.23466e-05
8.222e-05
8.35274e-05
8.35932e-05
8.29309e-05
8.04067e-05
7.5652e-05
6.94603e-05
6.42569e-05
6.08154e-05
5.82111e-05
5.62776e-05
5.48265e-05
5.4007e-05
5.39153e-05
5.4056e-05
5.48629e-05
5.53028e-05
5.62088e-05
5.69547e-05
5.88164e-05
5.98769e-05
6.09602e-05
5.9776e-05
5.89873e-05
5.99289e-05
6.1109e-05
6.18712e-05
6.31302e-05
6.71065e-05
6.98025e-05
7.27456e-05
7.47258e-05
7.52848e-05
7.53351e-05
7.57423e-05
7.75598e-05
7.8104e-05
7.71978e-05
7.3693e-05
7.13868e-05
8.10462e-05
8.67781e-05
8.58714e-05
9.35737e-05
0.000110696
0.000123928
0.000128492
0.000141466
0.000178708
0.000201233
0.000190955
0.000154255
0.000150867
0.000155827
0.000167121
0.000173109
0.000175836
0.000179973
0.000185494
0.000180338
0.000172926
0.000176977
0.000194594
0.000230318
0.000228275
0.000223267
0.000194667
0.00021132
0.000190457
0.000173687
0.000183352
0.000190297
0.000190873
0.000190632
0.000192465
0.000196294
0.000191101
0.000209739
0.000225373
0.000224132
0.000216186
0.000197922
0.000195314
0.000220626
0.000237377
0.000223482
0.00020044
0.000213649
0.000200196
0.000215853
0.00024554
0.000264865
0.000256193
0.000249798
0.00024721
0.000275053
0.000315702
0.000343359
0.00032287
0.000287264
0.000286429
0.000282483
0.000299707
0.000304413
0.00028274
0.0002538
0.000236425
0.00020647
0.000122262
0.000100217
8.62885e-05
6.78149e-05
4.88403e-05
3.86784e-05
3.53433e-05
3.4745e-05
3.45833e-05
3.39457e-05
3.33569e-05
3.23253e-05
3.09622e-05
3.03529e-05
3.04041e-05
3.05242e-05
3.06766e-05
3.09592e-05
3.11058e-05
3.12193e-05
3.14403e-05
3.15747e-05
3.18304e-05
3.25892e-05
3.32479e-05
3.36694e-05
3.44779e-05
3.57084e-05
3.70185e-05
3.84997e-05
3.92531e-05
3.97651e-05
4.1063e-05
4.2062e-05
4.29958e-05
4.58191e-05
5.18278e-05
5.93362e-05
6.40925e-05
6.40948e-05
6.38246e-05
6.52345e-05
7.24788e-05
7.92631e-05
8.3007e-05
8.53931e-05
8.64431e-05
8.77282e-05
8.81483e-05
8.46784e-05
7.89833e-05
7.37628e-05
7.12794e-05
7.04602e-05
7.04606e-05
7.12989e-05
7.32799e-05
7.64383e-05
8.0437e-05
8.55682e-05
9.15637e-05
9.61941e-05
9.79518e-05
9.86492e-05
9.91798e-05
9.84249e-05
9.49552e-05
8.9692e-05
8.3803e-05
7.98681e-05
7.83621e-05
7.86947e-05
8.05796e-05
8.09219e-05
7.99991e-05
7.68853e-05
7.21122e-05
6.67432e-05
6.23994e-05
5.93224e-05
5.60382e-05
5.22717e-05
5.02929e-05
4.92653e-05
4.8707e-05
4.88951e-05
4.90788e-05
4.97963e-05
5.03996e-05
5.05306e-05
5.11871e-05
5.19865e-05
5.25161e-05
5.40106e-05
5.44276e-05
5.32549e-05
5.29979e-05
5.25231e-05
5.27889e-05
5.30671e-05
5.58567e-05
5.9626e-05
6.17693e-05
6.58868e-05
7.02589e-05
7.16358e-05
7.13785e-05
7.2576e-05
7.37326e-05
7.33852e-05
7.28647e-05
6.92305e-05
7.22929e-05
7.85153e-05
7.92473e-05
8.79206e-05
0.000100643
0.000113557
0.000124983
0.000151064
0.000186753
0.00019784
0.000167973
0.000139899
0.000141723
0.000153099
0.000164804
0.000173355
0.000173398
0.00017464
0.000181074
0.000180242
0.000172442
0.000171057
0.000189644
0.000224633
0.000290044
0.000211895
0.000183953
0.000182153
0.000181442
0.000171132
0.000175032
0.000176256
0.000181771
0.000191338
0.0001856
0.000189295
0.000180204
0.000184332
0.000194335
0.000199501
0.000206131
0.000200183
0.000184629
0.000196629
0.000226299
0.000212616
0.00019583
0.000214403
0.000194105
0.000205786
0.000227722
0.000255091
0.000242984
0.000236666
0.000225231
0.000237573
0.000288628
0.000333729
0.00032669
0.000286192
0.000280678
0.000273798
0.000289707
0.000292249
0.000261415
0.000238842
0.000223766
0.00023215
0.000141249
0.000106161
8.01994e-05
5.56162e-05
4.15705e-05
3.60463e-05
3.51819e-05
3.51875e-05
3.4965e-05
3.38874e-05
3.29578e-05
3.16214e-05
3.03667e-05
3.00445e-05
3.01968e-05
3.03762e-05
3.05383e-05
3.07999e-05
3.12017e-05
3.15544e-05
3.23753e-05
3.32623e-05
3.38208e-05
3.40103e-05
3.36927e-05
3.3322e-05
3.352e-05
3.42979e-05
3.5589e-05
3.6279e-05
3.65161e-05
3.68724e-05
3.81915e-05
3.94587e-05
4.06831e-05
4.30114e-05
4.89045e-05
5.79468e-05
6.32023e-05
6.52399e-05
6.80447e-05
7.35325e-05
7.8503e-05
8.06903e-05
8.20384e-05
8.24532e-05
8.09465e-05
7.87008e-05
7.49198e-05
7.002e-05
6.51727e-05
6.18701e-05
6.05933e-05
6.03432e-05
6.08951e-05
6.2276e-05
6.44834e-05
6.70403e-05
6.99873e-05
7.40383e-05
7.92467e-05
8.36492e-05
8.52124e-05
8.57867e-05
8.61492e-05
8.56934e-05
8.31816e-05
7.99826e-05
7.74475e-05
7.6008e-05
7.56582e-05
7.72187e-05
7.81789e-05
7.76391e-05
7.52993e-05
7.15567e-05
6.70528e-05
6.31688e-05
6.06496e-05
5.74582e-05
5.29617e-05
4.85177e-05
4.65805e-05
4.63964e-05
4.6492e-05
4.71927e-05
4.77217e-05
4.81663e-05
4.88434e-05
4.85093e-05
4.87029e-05
4.87053e-05
4.84455e-05
4.90086e-05
5.01816e-05
4.96348e-05
4.94033e-05
4.88374e-05
4.91873e-05
4.95485e-05
5.0952e-05
5.49692e-05
5.68421e-05
5.87302e-05
6.2233e-05
6.60815e-05
6.84541e-05
7.0246e-05
7.24028e-05
7.34965e-05
7.32522e-05
6.99095e-05
6.82818e-05
7.36126e-05
7.61572e-05
8.62905e-05
9.63292e-05
0.000106485
0.000120309
0.00015468
0.000186329
0.000191318
0.000150535
0.000132547
0.000136078
0.000150955
0.00015971
0.000166552
0.000170102
0.000167993
0.000171497
0.000175579
0.000171044
0.000162704
0.00017577
0.000197311
0.000228894
0.000189346
0.000178438
0.000178198
0.000166761
0.000167717
0.000175216
0.000174271
0.000190143
0.000203075
0.000190673
0.000189588
0.000168682
0.000171941
0.000189322
0.000195159
0.000204723
0.000197733
0.000174153
0.000183584
0.000215435
0.000198079
0.000194658
0.000217353
0.000186786
0.00019482
0.000216297
0.000249493
0.000235038
0.000228985
0.000214914
0.000216355
0.000256936
0.000316295
0.00032464
0.000289525
0.00027839
0.000265904
0.000276704
0.000273789
0.000245688
0.000230383
0.000212066
0.000255758
0.000153681
0.000105434
6.95337e-05
4.9348e-05
3.93826e-05
3.60164e-05
3.61314e-05
3.63531e-05
3.56924e-05
3.37558e-05
3.23849e-05
3.08808e-05
2.98038e-05
2.96362e-05
2.98441e-05
3.01232e-05
3.03948e-05
3.07529e-05
3.11853e-05
3.15924e-05
3.2352e-05
3.34375e-05
3.43224e-05
3.44942e-05
3.40337e-05
3.40761e-05
3.48198e-05
3.64299e-05
3.86585e-05
3.86943e-05
3.81435e-05
3.80946e-05
3.87464e-05
3.99244e-05
4.14451e-05
4.42502e-05
5.10063e-05
5.86281e-05
6.31277e-05
6.56019e-05
6.86388e-05
7.44489e-05
7.80906e-05
7.89168e-05
7.7809e-05
7.33484e-05
7.00804e-05
6.69786e-05
6.35943e-05
5.92174e-05
5.56499e-05
5.40239e-05
5.36384e-05
5.3883e-05
5.4596e-05
5.60574e-05
5.85862e-05
6.16027e-05
6.44137e-05
6.7301e-05
7.12742e-05
7.48863e-05
7.64372e-05
7.69308e-05
7.72899e-05
7.73568e-05
7.66765e-05
7.53445e-05
7.44145e-05
7.39512e-05
7.41968e-05
7.5259e-05
7.53165e-05
7.43291e-05
7.18101e-05
6.82026e-05
6.50128e-05
6.25668e-05
6.09831e-05
5.74315e-05
5.13142e-05
4.64566e-05
4.54933e-05
4.56653e-05
4.63808e-05
4.72231e-05
4.77759e-05
4.84383e-05
4.84093e-05
4.85089e-05
4.80047e-05
4.80736e-05
4.75338e-05
4.66657e-05
4.6507e-05
4.65775e-05
4.57782e-05
4.50826e-05
4.51231e-05
4.5171e-05
4.65497e-05
5.17342e-05
5.53459e-05
5.59161e-05
5.73339e-05
5.86408e-05
6.0239e-05
6.36063e-05
6.71551e-05
7.02837e-05
7.50618e-05
7.47274e-05
6.87758e-05
6.96344e-05
7.24632e-05
8.36131e-05
9.29203e-05
0.000101425
0.000115526
0.000154622
0.000184872
0.000178998
0.000141109
0.000131742
0.000135339
0.000146716
0.000156224
0.000157203
0.000159052
0.000155318
0.000154865
0.000159705
0.000163732
0.00016349
0.000166775
0.000174531
0.000180578
0.000170224
0.000178242
0.000179033
0.000163587
0.000168277
0.000183457
0.000190527
0.000207546
0.000205617
0.000189543
0.000187524
0.000162965
0.000169615
0.000191796
0.000189757
0.000195739
0.000186288
0.000166443
0.000181443
0.000208216
0.000187348
0.000193428
0.000214934
0.000183345
0.000181162
0.000207732
0.00024281
0.00022991
0.000227666
0.000214737
0.000206624
0.000235341
0.000296885
0.000317751
0.000291144
0.000277341
0.000258916
0.000260553
0.000254424
0.000243344
0.000226239
0.000208821
0.000277103
0.000159615
9.86748e-05
6.37384e-05
4.74744e-05
3.96123e-05
3.75457e-05
3.78066e-05
3.76348e-05
3.62561e-05
3.41764e-05
3.29762e-05
3.17494e-05
3.09971e-05
3.09257e-05
3.11324e-05
3.13979e-05
3.15455e-05
3.17434e-05
3.16434e-05
3.13906e-05
3.12417e-05
3.14065e-05
3.17581e-05
3.20568e-05
3.23076e-05
3.31211e-05
3.55151e-05
3.94105e-05
4.0805e-05
4.07939e-05
4.07043e-05
4.0744e-05
4.11678e-05
4.23854e-05
4.48627e-05
4.89681e-05
5.42874e-05
5.90621e-05
6.16256e-05
6.32552e-05
6.78123e-05
7.34752e-05
7.52773e-05
7.42391e-05
6.83365e-05
6.33217e-05
6.08241e-05
5.79074e-05
5.47537e-05
5.16725e-05
4.93783e-05
4.87273e-05
4.88261e-05
4.91573e-05
4.9882e-05
5.15355e-05
5.39754e-05
5.63792e-05
5.86682e-05
6.14508e-05
6.50409e-05
6.85591e-05
7.09522e-05
7.2331e-05
7.27831e-05
7.28837e-05
7.30691e-05
7.30689e-05
7.29327e-05
7.27422e-05
7.27473e-05
7.28843e-05
7.26048e-05
7.14511e-05
6.89868e-05
6.65974e-05
6.4478e-05
6.34312e-05
6.1765e-05
5.73867e-05
4.92275e-05
4.57792e-05
4.55159e-05
4.61177e-05
4.71852e-05
4.84131e-05
4.83684e-05
4.90544e-05
4.84364e-05
4.85842e-05
4.78544e-05
4.78363e-05
4.71219e-05
4.6334e-05
4.53826e-05
4.54766e-05
4.49518e-05
4.4539e-05
4.49091e-05
4.54637e-05
4.61904e-05
4.94565e-05
5.24818e-05
5.50806e-05
5.52117e-05
5.5729e-05
5.55599e-05
5.85831e-05
6.32857e-05
6.62584e-05
6.99318e-05
7.5109e-05
7.12243e-05
6.84446e-05
7.00839e-05
7.9889e-05
9.01277e-05
9.71582e-05
0.0001117
0.000152723
0.000183253
0.000168546
0.000136207
0.000130301
0.000130524
0.00013393
0.000147735
0.000150946
0.000145721
0.00013839
0.000134836
0.000138179
0.000149218
0.00015705
0.000154161
0.000151191
0.000159026
0.000162205
0.000174891
0.000167464
0.000165171
0.00017549
0.000191266
0.000196032
0.000213106
0.000201331
0.000187248
0.000171914
0.00016183
0.000166365
0.000183796
0.000186827
0.000186376
0.000177996
0.000167258
0.000188955
0.000204916
0.000180998
0.00019024
0.000210563
0.000188063
0.000176584
0.000202456
0.000235288
0.000225072
0.000227044
0.000218182
0.000202168
0.000222804
0.000281476
0.0003066
0.000291634
0.000278265
0.000255993
0.000250638
0.000247607
0.000249919
0.000219439
0.000211526
0.000296823
0.000162354
9.32216e-05
6.16356e-05
4.85283e-05
4.21206e-05
3.93825e-05
3.86155e-05
3.81259e-05
3.65485e-05
3.44941e-05
3.35201e-05
3.26871e-05
3.17566e-05
3.16297e-05
3.18559e-05
3.21743e-05
3.24439e-05
3.26517e-05
3.22924e-05
3.16308e-05
3.10777e-05
3.08707e-05
3.08512e-05
3.08463e-05
3.11891e-05
3.25948e-05
3.62023e-05
3.93697e-05
4.02825e-05
4.04259e-05
4.10853e-05
4.27777e-05
4.46551e-05
4.68913e-05
4.93737e-05
5.22418e-05
5.53523e-05
5.68472e-05
5.76547e-05
6.14901e-05
6.85468e-05
7.2042e-05
7.1752e-05
6.59435e-05
5.87519e-05
5.47648e-05
5.28231e-05
5.05511e-05
4.82051e-05
4.63417e-05
4.52947e-05
4.52178e-05
4.5219e-05
4.54542e-05
4.63023e-05
4.82444e-05
5.07756e-05
5.32107e-05
5.52664e-05
5.73533e-05
5.99172e-05
6.27043e-05
6.53628e-05
6.75776e-05
6.9124e-05
7.01014e-05
7.07931e-05
7.12546e-05
7.1326e-05
7.1119e-05
7.0851e-05
7.05942e-05
7.01258e-05
6.8909e-05
6.71434e-05
6.53511e-05
6.49392e-05
6.54248e-05
6.23552e-05
5.42314e-05
4.79596e-05
4.55448e-05
4.55681e-05
4.60886e-05
4.65718e-05
4.71986e-05
4.76087e-05
4.64937e-05
4.64585e-05
4.63996e-05
4.69154e-05
4.63861e-05
4.6746e-05
4.56588e-05
4.51181e-05
4.47954e-05
4.41183e-05
4.42078e-05
4.36806e-05
4.38457e-05
4.6733e-05
4.74515e-05
5.08744e-05
5.1671e-05
5.22457e-05
5.42612e-05
5.41235e-05
5.52569e-05
6.08063e-05