/*--------------------------------*- C++ -*----------------------------------*\
| =========                 |                                                 |
| \\      /  F ield         | OpenFOAM: The Open Source CFD Toolbox           |
|  \\    /   O peration     | Version:  dev                                   |
|   \\  /    A nd           | Web:      http://www.openfoam.org               |
|    \\/     M anipulation  |                                                 |
\*---------------------------------------------------------------------------*/
FoamFile
{
    version     2.0;
    format      ascii;
    class       volScalarField;
    object      p;
    location    "9.144";
}
// * * * * * * * * * * * * * * * * * * * * * * * * * * * * * * * * * * * * * //

dimensions      [1 -1 -2 0 0 0 0];

internalField   nonuniform List<scalar> 
12225
(
99517.7
99498.2
99479.5
99463.6
99434.2
99405.9
99369.4
99333.1
99290.7
99246
99185.7
99125.2
99045.3
98979
98875.8
98778.7
98560.4
97545.4
99506
99489.2
99471.2
99456
99426.2
99398.6
99361.7
99325.8
99283.2
99239.9
99179
99119.6
99039.8
98973.5
98878.3
98788.9
98581.9
98026.2
99484.6
99469.8
99452.7
99437.3
99408
99381.5
99343.9
99308.6
99265.4
99225.5
99163.5
99105.8
99029
98965.6
98879.4
98793.3
98621.6
98337.3
99450.9
99436.9
99420.8
99404.9
99376.5
99350.2
99313
99278.6
99233.7
99199.5
99137.2
99080.5
99007
98948
98873
98810.2
98668.5
98551.2
99399.4
99386.8
99371.9
99355.1
99328.3
99301.8
99266.1
99231.2
99187
99156.7
99096.6
99035.5
98969.8
98916.7
98840.7
98764.7
98707.5
98693.9
99325
99314.6
99301
99283.5
99258.2
99232.1
99198
99163.9
99121.6
99090.3
99036.8
98980.3
98915
98867.8
98793.4
98730.4
98714.7
98708.8
99219.4
99214.6
99202.1
99183.9
99160.5
99135.3
99102.9
99070.1
99033.1
98998.3
98948.5
98897.3
98841.7
98792.2
98740.4
98725.6
98700.6
98683.9
99105
99101.4
99088.9
99071.4
99049
99024.9
98994.5
98963.8
98932.2
98894.5
98851.8
98802.3
98755.2
98708.4
98678.2
98666.6
98649.3
98629.6
98983.3
98979.4
98967.1
98950.3
98928.9
98905.5
98878.2
98848.8
98822.4
98782.9
98749.2
98701
98661.3
98621.9
98602.8
98588.9
98578.9
98562.9
98825.5
98818.2
98805.5
98789.8
98770
98747.5
98723.8
98696.8
98677
98633.1
98612.8
98565
98537.6
98506.1
98493.5
98479.7
98479.6
98472.8
98616.2
98604.2
98591.2
98576.5
98559.2
98538.8
98518.5
98495
98477.2
98441.6
98435.7
98380.1
98370.4
98347.8
98341.7
98332.1
98340
98344.5
98330.5
98320.5
98308.4
98294.9
98281.5
98263.6
98248.3
98228
98214.2
98183.9
98194.1
98146
98143.1
98131.3
98133.8
98133.9
98148.8
98166.9
97951.4
97948.6
97937.3
97927
97915.7
97903.8
97892.9
97879.4
97869.1
97849.9
97863.7
97840.4
97841.8
97842.6
97853.4
97867.4
97892
97923.5
97468.2
97465.3
97457.6
97449.2
97442.4
97435.6
97431.4
97425.9
97423.2
97418
97432.2
97433
97444.3
97459.8
97482.9
97512.1
97549.4
97594.7
96848
96847.4
96842.2
96837.8
96836.1
96835.8
96838.8
96843.6
96851.7
96862.5
96881.3
96902
96928.6
96960.7
96999.7
97045.2
97097.6
97158.8
96068.4
96067
96065.5
96066.7
96071.7
96079.6
96091.7
96108.3
96130.4
96157.1
96190
96228.5
96273
96323.9
96381.2
96444.8
96515.1
96591.8
95097.4
95101.4
95107.9
95118.4
95133.4
95152.5
95177.2
95207.7
95244.9
95288.9
95339.8
95397.4
95461.7
95532.3
95609.4
95693
95782.3
95877.3
94010.9
94032.9
94053.4
94076.7
94104.2
94137
94175.9
94221.7
94274.8
94335.5
94403.7
94479.6
94562.8
94652.7
94749.2
94851.6
94959.1
95071.5
93018.5
93054.9
93086.7
93121
93159.9
93204.6
93256.3
93315.5
93382.7
93457.9
93541.1
93631.9
93730.4
93835.9
93947.9
94065.3
94187.5
94314
92205.7
92247.9
92286.7
92329.6
92377.7
92432.3
92494.4
92564.4
92642.8
92729.6
92824.8
92927.8
93037.4
93154.2
93277.3
93405.7
93538.8
93676
91576.2
91604.4
91645
91693.5
91748.7
91811.1
91881.1
91959.4
92046.4
92142
92246.2
92358.2
92477.3
92602.5
92733.9
92870.5
93011.7
93156.7
91066.3
91096.9
91141.3
91194.5
91255.3
91323.6
91399.8
91484.5
91578
91680.2
91790.9
91909.6
92035.3
92167.4
92305.1
92447.8
92595
92745.9
90664.9
90706.4
90755.2
90812.3
90877
90949.7
91030.6
91120.1
91218.4
91325.6
91441.1
91564.5
91694.9
91831.8
91974.5
92122.1
92273.9
92429.2
90368.3
90415
90466.2
90526
90593.8
90669.6
90753.9
90846.9
90948.9
91059.6
91178.7
91305.5
91439.4
91579.8
91726
91877.2
92032.4
92191.1
90163.7
90204.5
90256
90317.4
90387.1
90465.2
90551.9
90647.5
90751.9
90865.2
90986.8
91116.3
91252.8
91395.8
91544.5
91698.1
91855.8
92016.7
90015.6
90056.2
90107.5
90169.8
90240.8
90320.5
90409
90506.4
90612.5
90727.5
90851
90982.2
91120.7
91265.5
91416
91571.4
91730.7
91893.2
89917.2
89956.1
90006.8
90070
90141.6
90222.4
90312.1
90410.7
90517.9
90634.1
90758.9
90891.2
91030.9
91177.1
91328.7
91485.2
91645.7
91809.2
89860
89893.3
89942.9
90006.7
90078.3
90159.8
90250.3
90349.7
90457.6
90574.7
90700.2
90833.1
90973.7
91120.7
91273.2
91430.4
91591.6
91755.9
89828.1
89857.3
89905.3
89967.1
90041.7
90124.1
90215.2
90315.1
90423.3
90540.8
90666.8
90800.4
90941.4
91088.8
91241.8
91399.5
91561.2
91726.1
89819.3
89842.4
89889.5
89951.9
90025.9
90108.6
90200
90300.1
90408.6
90526.3
90652.5
90786.4
90927.6
91075.2
91228.4
91386.4
91548.4
91713.7
91498.6
91500.1
91503.6
91509.1
91516.9
91526.8
91539
91553.2
91569.2
91587
91606.5
91627.7
91650.5
91674.9
91701
91728.7
91758.3
91790.8
91825.3
91861.7
91900.3
91941.1
91984.1
92029.2
92076.4
92125.4
92176.3
92228.9
92282.7
92337.6
92393.4
92449.6
92506.5
92563.7
92620.6
92677.3
92733.2
92788.7
92844.1
92899.1
92953.2
93006.6
93059.3
93110.9
93161.1
93210.3
93256.4
93300.6
93342.4
93381.1
93416.8
93449.7
93480.3
93508.6
93534.3
93557.7
93579.1
93597.2
93611.6
93622.9
93631.4
93636.9
93638.7
93636.9
93631
93620.7
93605.4
93584.3
93556.9
93523.8
93486
93443.6
93395.3
93338.3
93269.5
93188.7
93096.7
92988.7
92882.7
92770.7
92652.2
92526.8
92395.1
92256.9
92112.1
91960.1
91800.8
91634.2
91460.3
91278.9
91089.7
90893.2
90689.4
90478.9
90261.8
90038.9
89810.8
89579
89344.8
89110.5
88877.5
88648.2
88424.7
88209.2
88005.7
87817.2
87644.7
87486.4
87337.7
87216.6
87115.5
87034.2
86971.9
86927.6
86900.4
86887.8
86886.1
86892.1
86903.2
86913.2
86915.5
86906.1
86882.5
86840.7
86777
86689.9
86574.6
86426.4
86246.4
86040.6
85803.1
85532.7
85231.5
84901.8
84549
84182.1
83803
83454.5
83024.5
82676.6
82264.7
81876.6
81512.6
81152.8
80814.1
80503.9
80220.7
79963.1
79729.3
79515
79312.2
79118.5
78932.2
78747
78558
78364.4
78165.5
77958.9
77754.5
77558.9
77370.3
77196.7
77040.7
76895.8
76782.9
76706.6
76663.7
76666.3
76715.3
76808.6
76948.8
77151
77414.4
77740.1
78131.6
78584.7
79101.8
79687.2
80344.4
81051.2
91546.4
91547.8
91551.2
91556.7
91564.4
91574.3
91586.3
91600.3
91616.5
91634.4
91653.9
91675.1
91697.8
91722
91748.4
91776.6
91806.6
91838.2
91872
91907.7
91946.1
91986.8
92029.5
92074.7
92122.1
92171
92222.1
92275.1
92328.8
92384
92439.9
92496.1
92553.4
92610
92666.4
92722.9
92778.9
92834.8
92890.7
92945.3
92998.5
93051.1
93103.3
93153.9
93202.7
93250.1
93297.2
93342.1
93382.6
93420.2
93454.7
93486.5
93516.6
93544.7
93569.1
93590.3
93608.8
93624.7
93637.7
93648.2
93656.3
93661.4
93662.8
93659.9
93652.9
93642
93626.7
93605.1
93576.3
93541.3
93500.2
93452.4
93395.4
93335.1
93264.8
93183
93090.5
92988.8
92882.7
92772.5
92652.3
92527
92395.4
92257.2
92111.9
91959.3
91799.5
91632.1
91457.1
91274.8
91084.8
90887.4
90683.1
90472.1
90254.8
90031.7
89803.4
89571.3
89337.3
89103.2
88870.4
88641.6
88418.5
88203
87999.2
87811
87639.1
87480.6
87335.6
87213.2
87111.9
87030.7
86968.4
86923.9
86896
86883
86880.7
86885.2
86895.1
86905.5
86908.8
86899.9
86875.8
86834.1
86772.5
86688.5
86574.8
86427.6
86249.8
86046.2
85811.6
85543.5
85247.1
84920.7
84570.2
84210
83823
83496.6
83040.2
82689.9
82290.6
81909.8
81549.8
81189.7
80850.8
80539.4
80256.5
79998.9
79765
79548.2
79343.8
79147.3
78960.4
78774.7
78584.9
78389.9
78187.3
77978.5
77774.3
77579.5
77390.8
77217.2
77058.8
76915.2
76799.6
76722.4
76676.5
76678.8
76727
76818.9
76960.8
77163.2
77428.5
77756.8
78150.9
78604.9
79121.9
79705.2
80361.8
81075.1
91640.9
91642.5
91646
91651.7
91659.6
91669.6
91681.3
91695
91710.6
91727.8
91746.7
91767.2
91789.5
91813.1
91838.7
91866.5
91895.8
91927.7
91962.1
91997.7
92035.9
92076.8
92119.8
92165.1
92212.8
92262.2
92313.4
92366.4
92420.5
92475.8
92531.8
92588.1
92645.4
92703.1
92760.4
92816.8
92872.6
92928.2
92983.5
93037.5
93089.8
93141.7
93193.1
93242.5
93289.6
93335
93379.6
93422.2
93461.6
93498
93531.5
93562.2
93590.4
93614.8
93635.8
93655.5
93673.1
93686.4
93696.2
93703.6
93708.7
93711
93709.9
93705.1
93696.1
93682.4
93663.5
93637.9
93605.5
93567.2
93522
93468.6
93407.1
93339.1
93263.2
93178.9
93086.6
92987.6
92882.2
92768.5
92651.9
92527.9
92396.4
92257.5
92111.4
91957.6
91796.2
91627.2
91450.4
91266.6
91075.1
90876.4
90670.8
90458.9
90240.5
90017
89788.6
89556.2
89322.4
89088.8
88856.7
88628.4
88406.5
88191.8
87988.2
87799.7
87627.9
87472.6
87326.5
87205.1
87104
87023.3
86961.1
86915.8
86887
86873.3
86869.6
86871.5
86879
86889
86893.4
86885.5
86862.3
86822.9
86765.2
86685.6
86575.1
86429.8
86256.1
86055.7
85827.3
85564.6
85278.3
84958.6
84614.9
84271.4
83882.4
83535.3
83094.1
82737.1
82341.7
81974.1
81620.2
81261.1
80923.6
80611.3
80321.1
80070.8
79830.4
79616
79409.5
79208
79010.5
78821.1
78627.1
78436.4
78236.1
78025.3
77815.5
77621.5
77432.2
77258.2
77096.8
76950.1
76833.4
76752.1
76706.9
76706
76751.3
76840.7
76981.5
77190.2
77459
77792.9
78191.9
78645.7
79160.7
79743.6
80401
81122.9
91780
91781.6
91785.3
91791.3
91799.4
91809.5
91820.2
91832.6
91847.1
91863.4
91881.4
91901.1
91922.5
91945.6
91970.5
91997.5
92026.7
92058.5
92093.2
92129.1
92167.5
92208.9
92252.6
92298.6
92346.9
92397
92448.9
92502.6
92556.8
92612.7
92669.6
92726
92784.1
92841.7
92897.8
92955.2
93012
93066.6
93121.4
93175.2
93227
93278
93327.8
93375.7
93421
93464.2
93505.6
93543.4
93578.8
93612.9
93644.5
93673.5
93700.1
93721.5
93737.5
93751.4
93764.3
93774.8
93782.1
93786.6
93788.2
93786.6
93781.4
93772.1
93758.5
93740.4
93716.9
93686.4
93648.8
93604.2
93552.3
93492.7
93425.5
93351.4
93270.8
93184.1
93091.5
92993.3
92888.4
92776.6
92658.6
92533.4
92400.5
92259.9
92111.7
91955.8
91792
91620.8
91441.6
91255.3
91061.6
90861
90653.7
90440.4
90220.6
89995.9
89767.6
89535.3
89301.6
89068.6
88837.3
88610
88389.5
88177.1
87974.2
87785.3
87612.4
87457.3
87315.7
87193.4
87092.2
87011.6
86949.8
86904
86874
86858.5
86852.8
86852.5
86857.3
86865.9
86870.7
86863.9
86843.2
86807.9
86755.1
86679.5
86576.2
86435
86266.5
86073.2
85853.4
85599.1
85323.9
85015
84689.7
84352.3
83972.8
83589.7
83174.8
82834.6
82459.2
82077.8
81728.2
81369.1
81035.1
80721.9
80439
80178
79942.7
79719.8
79508.9
79299.1
79101.2
78907.4
78714.8
78515.9
78307
78094.4
77876.1
77683.3
77493.3
77318.3
77155.3
77005.4
76883.9
76798.5
76751.7
76748.9
76788.9
76876.9
77016.9
77235.3
77507.1
77849.3
78253.7
78705.7
79219.7
79805.3
80466.6
81193.2
91961.8
91963.2
91966.4
91971.6
91978.4
91986.4
91997.5
92010.1
92024.3
92040.3
92057.9
92077.1
92097.9
92120.4
92144.8
92171.1
92200.1
92231.9
92266.5
92302.9
92341.9
92383.9
92428.8
92475.8
92525.3
92576.7
92629
92682.8
92738.3
92794.9
92851
92907.6
92965.6
93022.4
93079.9
93138.8
93194.9
93249.5
93304.9
93358.4
93409.4
93458.8
93505.9
93550.8
93593.1
93632.5
93670.3
93704.9
93736.4
93766.3
93793.7
93817.7
93838.9
93856.7
93870.4
93880.7
93888.8
93894.3
93896.9
93896.4
93892.8
93885.7
93874.9
93859.6
93840.4
93816.7
93787
93750
93705.5
93653.3
93593.6
93526.7
93453.2
93373.8
93289
93199.7
93105.9
93007
92901.7
92789.8
92670.7
92543.8
92408.5
92265
92113.9
91955
91788
91613.8
91431.6
91242.2
91045.9
90843
90633.1
90418.1
90196.8
89970.6
89742
89510.1
89276.6
89044
88814
88587.9
88368.5
88158.1
87957.1
87769.1
87594.6
87439.3
87301
87179.4
87077.5
86996.1
86934.3
86888.8
86857.1
86839
86831.2
86828.9
86831.9
86839
86843.5
86838.2
86821.5
86790.3
86741.4
86669.4
86581.1
86443.7
86281.7
86103.5
85896.8
85651.2
85391.1
85089.9
84782.2
84452.3
84091.9
83681.7
83289.8
82967.4
82612.6
82216.1
81873.6
81519.6
81183
80864.8
80568
80311.5
80076.9
79859.4
79647.4
79423.6
79210.6
79013.8
78818.9
78619.3
78399.1
78175.6
77959.3
77766.8
77574.4
77396.2
77233.6
77078.7
76952.3
76860.6
76810.4
76806.5
76841.8
76925.9
77066.5
77300.1
77573.2
77924.1
78332.3
78784.4
79301.5
79892.2
80556.5
81277.8
92185.4
92186.5
92189.3
92193.9
92200.3
92208.4
92218.9
92231.4
92245.7
92261.4
92278.8
92297.6
92318.1
92340.3
92364.4
92390.6
92419.1
92450.5
92485
92522.4
92562.8
92605.7
92651.4
92699.8
92750.9
92803.9
92857.4
92912.3
92968
93023.5
93079.4
93135.6
93191.3
93247
93303.7
93361.5
93419
93476.2
93532.1
93584.4
93633.7
93679.8
93723.6
93765.7
93804.8
93840.3
93872.9
93902.5
93929.4
93954
93975.7
93994.4
94010
94022.4
94031.7
94037.9
94040.8
94040.8
94037.6
94031.1
94021.1
94007.4
93989.4
93967.3
93941.4
93910.4
93873.7
93828.5
93776
93716.1
93648.6
93574.3
93494.1
93409
93320
93227.9
93132.6
93031.9
92925.8
92812
92690.4
92560.6
92421.5
92273.9
92118.6
91956.2
91785.4
91607.7
91422.2
91229.4
91029.9
90824.4
90611.9
90393.8
90171.4
89943.5
89713.8
89482.5
89250
89017.5
88788.8
88564.8
88345.9
88136.4
87937
87751.4
87577.7
87422.5
87284.6
87164
87061.7
86978.2
86914.7
86869.4
86836.8
86816.3
86806.1
86802.3
86804.3
86809.9
86814.2
86811.4
86798.7
86771.5
86726
86662
86583
86461.3
86309.5
86140.4
85958
85734.1
85479.3
85190.4
84890
84576.3
84234.5
83841.6
83479.8
83136
82782.7
82393.3
82048.4
81700.9
81371.9
81051.3
80742.6
80491.1
80249
80021
79815.1
79586
79356.8
79153.3
78948.1
78744.9
78544.6
78304.6
78075.5
77876.9
77677.7
77494.7
77331.1
77172
77039.3
76940.3
76884.8
76879.1
76910.2
76989.7
77129.1
77382.5
77657.2
78016.6
78426.7
78882.9
79407.4
80001.2
80664.1
81373.4
92449.4
92450.3
92452.9
92457.4
92464
92472.4
92483
92495.5
92509.8
92525.8
92543.3
92562.5
92583.2
92605.7
92629.9
92656.5
92685.5
92717
92751.2
92790.2
92831.7
92875.7
92922.6
92972.7
93025
93078.5
93132.5
93186.9
93241.8
93297.2
93352.2
93406.8
93461.6
93516.5
93572.2
93628.6
93685.2
93741.8
93795.9
93846.5
93893.9
93937.9
93979.5
94018.6
94053
94083.3
94110.6
94134.6
94155.5
94173.6
94188.9
94201.4
94210.9
94217.4
94220.8
94220.7
94217.4
94211.1
94201.6
94188.5
94171.6
94150.5
94124.7
94094.9
94060.9
94021.8
93976.2
93922.8
93861.9
93794
93718.8
93637.5
93550.8
93459.7
93365.9
93270
93171.5
93068.5
92960.9
92843.6
92718.1
92585.5
92440.3
92288.2
92128.1
91961.4
91786.5
91604.2
91415.5
91218.5
91016
90806.7
90592.5
90371
90147.5
89917
89685.8
89453.8
89222.2
88990.8
88762.8
88540.7
88324.1
88115.8
87918.8
87733.9
87561.5
87406.7
87269.3
87149.2
87046.7
86961.2
86894.8
86847.6
86813.7
86791.1
86778.8
86774.2
86775.3
86779.9
86784.4
86784.4
86776.1
86753.9
86713.4
86654.8
86588
86486.8
86350.7
86185.2
86033
85831.6
85593.1
85316.5
85020.5
84722.9
84410.4
84053.9
83681.9
83336.2
82980.8
82612.8
82261.2
81915.4
81595.1
81278.7
80991.3
80717.5
80463.9
80222.6
79993.2
79771.4
79545.6
79330
79107.5
78895
78692.6
78455.1
78222.7
78014.9
77806.3
77615.4
77450.1
77286.4
77149
77039.7
76978.2
76968.1
76995.2
77071.4
77206.8
77467.5
77753.6
78123.6
78537.8
79002
79536
80130.8
80787.6
81485.1
92751.6
92752.2
92754.6
92758.9
92765.3
92774.1
92785.1
92798
92813.1
92830.1
92849
92869.4
92891.5
92915.1
92940.5
92968
92997.3
93028.6
93064.7
93104.7
93147
93191.6
93238.9
93288.9
93341
93394.5
93448.3
93502.2
93556.8
93611.9
93666.8
93720.6
93773.1
93825.8
93879.2
93933.4
93988.9
94044.1
94096.7
94145.8
94191.3
94233
94271
94305.1
94334.3
94359.4
94380.6
94398.1
94412.4
94423.8
94432.1
94437.6
94440.2
94439.7
94436
94429
94418.6
94404.8
94387.6
94367
94342.4
94313.4
94279.7
94241.4
94198.3
94150.2
94095.7
94033.7
93964.5
93888.2
93805.3
93716.9
93623.9
93527.5
93429.1
93329
93226.2
93119.8
93007.3
92886
92755.5
92617
92466.3
92310
92144.9
91972.8
91794.2
91606.5
91412.9
91212
91005.7
90792.2
90575.7
90351.2
90125.8
89895.5
89662.5
89429.6
89197.6
88967.3
88739.5
88518.4
88303.4
88095.5
87902.7
87719.8
87549
87394.2
87256.5
87136.6
87033.8
86946
86876.3
86826.5
86791
86766.4
86752.3
86746.8
86747
86751
86756.6
86759.9
86756.5
86737.3
86704.8
86656.5
86593.3
86516.1
86403.8
86250.6
86105.6
85941.5
85726.3
85471.2
85177.5
84891.2
84597.9
84282.4
83905.2
83560.6
83211.4
82860.7
82516.7
82172.6
81852.8
81537.2
81251.3
80979.4
80715.1
80462.1
80225.4
79984.5
79757
79533.5
79299.4
79077
78869.2
78630.3
78399.5
78181.2
77964.3
77758.1
77590.8
77424.2
77274.6
77162.8
77094.2
77076.7
77099.1
77172
77315.1
77555
77863.3
78243.7
78665.5
79141.8
79684.5
80277.2
80928.7
81613.9
93089.9
93090.3
93092.7
93097
93103.6
93112.7
93124.2
93138.4
93154.7
93172.9
93193.1
93215.2
93239.1
93264.7
93292.1
93321
93352.6
93387.4
93422.6
93461.3
93503.3
93548.2
93595.7
93645.7
93697.8
93751
93804.8
93859.3
93914.5
93968.6
94020.6
94070.6
94120.3
94171
94222.8
94276
94329.7
94382.6
94433
94478.9
94520.7
94558.3
94592
94621.1
94645.2
94664.6
94679.6
94690.6
94698.3
94702.6
94703.6
94701.5
94696.1
94687.8
94676.1
94661
94642.5
94620.6
94595.2
94566.2
94533.1
94495.5
94453.2
94405.8
94353.5
94296.1
94232.4
94161.8
94084.3
94000
93909.6
93814.2
93715.1
93613.8
93510.6
93405.5
93297.6
93185.4
93066.8
92939.6
92802.6
92657.1
92502.2
92339.8
92170.9
91991.3
91809.3
91617.2
91416.5
91212.1
91001.5
90784.1
90563.6
90337.5
90107.7
89877.8
89643.9
89410.7
89178.6
88948.9
88721.6
88502.2
88291.3
88081.7
87888.5
87708.6
87540.7
87387.9
87251
87130.3
87027.2
86936.2
86861.5
86808.2
86771.2
86744.8
86729
86722.3
86721.4
86725.5
86732.8
86738.5
86740
86726.5
86702.8
86664.9
86610
86552.8
86460.9
86331.8
86196.2
86049.9
85864.5
85641.3
85367.2
85089.2
84807.8
84504.1
84160.1
83821.4
83484.9
83137.4
82805.1
82474
82156.1
81859.9
81570.7
81278.3
81009.6
80740
80496.8
80252.4
80021.1
79794.6
79540.8
79296.3
79080.7
78836.5
78603
78376.3
78151.1
77925.3
77753.6
77583.2
77422.2
77313.2
77238.5
77211.7
77227.3
77292.8
77439.5
77670.1
77973.6
78375.2
78809.7
79300.7
79849.9
80442.9
81088.4
81754.9
93461.4
93461.6
93463.9
93468.5
93475.5
93485.2
93497.5
93512.2
93529.1
93548.2
93569.6
93593.6
93620.3
93648.5
93677.1
93708.1
93740.8
93775.2
93811.9
93851.8
93894.7
93940.5
93988.9
94039.4
94091.6
94144.8
94198.9
94254
94308.8
94361.4
94410.9
94458.5
94506.4
94555.3
94605.5
94656.4
94706.8
94755.5
94800.8
94842
94879.2
94912.5
94941.5
94965.1
94983.3
94996.3
95004.6
95009
95009.6
95006.5
94999.7
94989.4
94975.9
94959.1
94938.7
94914.9
94887.7
94857
94822.6
94784.5
94742.3
94696
94644.8
94588.2
94526.5
94459.5
94386.8
94307.7
94222.1
94130.3
94032.8
93931
93825.9
93718.7
93609.7
93498.7
93384.6
93265.3
93139.1
93004.8
92860.8
92708.5
92548.2
92380.2
92209.2
92016.2
91833.8
91640.6
91426.6
91221.2
91005.4
90784.9
90558.7
90332.8
90099.1
89866.8
89633.2
89400.2
89167.6
88939.3
88711.7
88491.6
88283
88077.5
87884
87705.1
87538.4
87387.1
87252.6
87131.4
87026.9
86934.8
86857.4
86799.1
86757.8
86729
86711.3
86703
86701.4
86706.3
86715.7
86724.9
86731.1
86725.3
86710.5
86685.9
86648.8
86598
86527
86422
86305.4
86174.1
86015.3
85818
85580.3
85314.4
85049.4
84760.2
84436.2
84110
83794.9
83455.8
83127.5
82811.6
82501.3
82211.8
81909.4
81602.8
81335.8
81062.3
80811.4
80599.4
80344.7
80103
79830.3
79554.1
79328.7
79078.8
78836.4
78600.7
78349.9
78126.6
77945.2
77770.2
77610
77493.8
77413.4
77379.7
77385.7
77443.2
77589.5
77811.5
78114.6
78525.8
78972.4
79475.4
80027.9
80629.7
81263.8
81910.5
93862.3
93862.2
93864.3
93868.9
93876.3
93886.6
93899.4
93914.7
93932.5
93952.3
93973.8
93996.9
94021.1
94047.8
94078.9
94112.6
94148.4
94186.1
94225.8
94268.1
94313.2
94361.4
94412
94464.3
94517.6
94571.4
94625.8
94680.2
94733.2
94783.7
94832
94879.4
94927
94975
95023
95070.2
95115.8
95159
95198.9
95235
95267.3
95295.6
95318.7
95335.7
95347.1
95353.2
95354.5
95351.8
95345
95334
95319.1
95300.5
95278.3
95252.4
95223
95190.2
95153.9
95113.9
95069.7
95021.6
94969.6
94913.5
94852.6
94786.7
94716
94639.9
94558.2
94470.8
94377.4
94278.4
94174.4
94066.6
93955.5
93842
93726.2
93608.1
93486.6
93359.1
93224.3
93082
92931.1
92772
92605.9
92431.6
92251.6
92063.1
91869.4
91669
91457.5
91243.1
91023.3
90799.7
90565.1
90337.2
90104.8
89869.6
89634.3
89402.4
89167.6
88939.2
88716.5
88494.2
88284.2
88083.9
87890.1
87711.8
87547.9
87393.5
87262.3
87141.2
87035.3
86943.1
86863.5
86800.5
86754
86722.5
86702.6
86693.2
86690.6
86696
86708.1
86723.2
86732.5
86735
86729.8
86719.5
86699.7
86666.2
86609.7
86529.2
86434.7
86322.8
86190.1
86017.7
85812.5
85574.5
85317.9
85048.3
84748.9
84438.1
84130
83809.3
83484
83172.2
82861.8
82567
82264.2
81964.6
81693.7
81428.3
81167.5
80941.7
80673.9
80430
80133
79853.2
79616
79364.3
79108
78861.5
78609.2
78375.1
78175.6
77992.7
77834.1
77709.4
77621.9
77580.6
77578.6
77628.5
77770.7
77981.6
78284.9
78704.1
79159.1
79668.8
80223.1
80830.1
81448.7
82085
94288.1
94287.5
94289.5
94294.4
94302.2
94312.9
94326
94342.1
94360.9
94382
94405.6
94431.6
94460.2
94491.1
94524.1
94558.8
94595.2
94633.8
94674.8
94718.3
94764.5
94813.1
94864
94916.6
94970
95023.5
95077.1
95129.9
95181.2
95230.8
95279.4
95327.7
95375.4
95422.5
95468.1
95511.7
95552.7
95590.8
95625.3
95655.8
95682.5
95704.7
95720.8
95730.6
95734.6
95733.3
95727.6
95717.4
95702.5
95683.4
95660.1
95632.8
95601.3
95566.1
95527.1
95484.6
95438.5
95388.5
95334.5
95276.6
95214.8
95148.4
95077.5
95002.1
94922
94836.9
94746.7
94651.2
94550.2
94444.3
94334
94219.8
94102.4
93982.1
93859
93733
93603
93467.1
93323.5
93172.6
93015.4
92849.9
92677.1
92497.5
92311.2
92118.8
91921.2
91715.2
91501.8
91282
91056.9
90827.7
90594.7
90359.7
90125.7
89890.7
89651.1
89418.1
89186.7
88955.5
88732.1
88513.7
88303.1
88103.1
87911.3
87731.3
87572.3
87416.7
87280
87160.4
87055.9
86963.6
86881
86815.5
86765.2
86729.8
86707.7
86697.4
86693.2
86698.8
86712.5
86732.4
86747.5
86757.8
86764.2
86769.5
86767.6
86753.5
86718.1
86659
86589.3
86498.5
86388.7
86245.2
86064.9
85859.6
85623.8
85373.8
85103.2
84812.3
84498.8
84187.4
83864.7
83554.2
83243.8
82948.7
82660.2
82386.3
82116.2
81858.8
81576.9
81311.3
81064.1
80758.4
80474.7
80208.9
79953.9
79698.9
79424
79166
78918.2
78672.4
78451.5
78257.1
78089
77964.4
77866
77814.3
77808.7
77853.1
77985.8
78178.6
78485.2
78912.7
79370.9
79883.3
80438.4
81041.2
81642.3
82270.8
94733.1
94732.1
94734.2
94739.5
94747.8
94758.7
94772.1
94788.3
94807.1
94828.9
94853.9
94881.9
94912.8
94946.1
94981.6
95019
95058.6
95100.3
95143.9
95189.4
95236.8
95285.8
95336.3
95387.9
95440.4
95493.3
95546.1
95598.3
95649.4
95699.8
95749.7
95799
95846.9
95892.9
95936.2
95976.3
96013.2
96046.2
96075.1
96099.8
96120
96134.5
96143
96145.7
96142.3
96133.5
96120.1
96101.8
96078.8
96051.3
96019.5
95983.1
95942.5
95897.7
95848.7
95796.1
95739.6
95678.9
95614.5
95546.3
95474.3
95398.2
95317.9
95233.2
95143.9
95050
94951.4
94848
94739.6
94626.7
94509.8
94389.2
94265
94137.6
94007.1
93873.1
93734.7
93590.3
93438.2
93279.2
93114.6
92943.8
92765.3
92579.3
92388.4
92191.2
91989.2
91780.6
91563.8
91340.6
91111.2
90877.2
90641.3
90404.4
90164.2
89932.7
89691.4
89453.6
89224.6
88992.7
88767.7
88550.1
88339.6
88140.1
87951.1
87769.3
87611
87458.1
87315.6
87192.9
87089.7
86998.9
86916.1
86848.4
86797.1
86758.5
86733.1
86719.9
86714.2
86719.2
86734
86758.4
86781.7
86800.1
86818.4
86839.4
86856.6
86863.2
86852.9
86817.4
86771.6
86703.7
86618.2
86504.7
86351.7
86170.3
85963.4
85741.5
85492.1
85211
84900
84591.2
84274.6
83970.9
83680.5
83399.4
83129.6
82872.5
82610
82359.8
82065.1
81789.1
81531.8
81233.5
80944.4
80640.4
80354.7
80085.7
79788.5
79521.6
79257
79018.1
78778.1
78571.3
78408.8
78265.1
78147.5
78084.5
78077.7
78119.9
78212.3
78411.1
78718.8
79148.4
79609.9
80120.9
80676.2
81259
81846.3
82463.8
95190.8
95189.7
95191.5
95196.8
95205.4
95216.9
95231.6
95249.5
95270
95293
95318.5
95346.7
95378
95412.2
95449.4
95489.4
95531.8
95576.4
95622.9
95670.8
95720.1
95770.3
95821.3
95873
95925.5
95978.5
96031.7
96084.6
96136.9
96188.6
96239.5
96288.9
96336
96380
96420.4
96456.9
96489.5
96518
96542
96560.9
96574.1
96580.6
96581.2
96576.4
96565.7
96549.6
96528.1
96501.4
96470.1
96434.2
96393.4
96347.8
96297.5
96242.8
96184.2
96121.6
96054.8
95983.9
95909.2
95830.7
95748.3
95661.9
95571.6
95477.6
95379.5
95277
95170.3
95059.3
94943.8
94824.4
94701.1
94574
94443.3
94309.3
94171.3
94029.2
93882.1
93729.4
93570.9
93405.4
93233.2
93056.3
92874.1
92683.3
92486.1
92283.7
92076.5
91864.8
91645.2
91419.1
91187
90950.1
90710.6
90470.5
90229.7
89992.1
89754.3
89511.7
89284.6
89053.3
88826.7
88610.3
88398.4
88198.2
88010.8
87831.8
87668.3
87520.1
87376
87247.3
87141.2
87052.2
86970.7
86900.7
86848.2
86807.4
86780.2
86763.3
86757.9
86761.7
86778.7
86806.7
86836.5
86866.3
86896.7
86933
86969.8
86998.8
87015.3
87008.1
86984.7
86939.8
86881.6
86793.8
86674.2
86513.5
86336.7
86145.4
85914
85634.6
85335.6
85033.2
84737.7
84450.8
84188.9
83928.9
83674.8
83419.1
83158.4
82906.3
82618.6
82338.5
82054.8
81767
81480
81136.1
80808.6
80490
80205.5
79933
79673.4
79420.2
79159.1
78942.6
78774.2
78616.9
78472.1
78398.3
78389.6
78425.1
78491
78688.2
78987
79413.8
79876.3
80379.9
80928.4
81488
82065.7
82667.9
95655.3
95653.8
95655.6
95661.5
95671.4
95684.3
95699.6
95716.7
95737
95761.1
95787.4
95816.2
95848.4
95883.9
95922.6
95964.5
96009.3
96056.7
96106.2
96157.4
96209.5
96262.2
96315.3
96368.6
96422.3
96476.3
96530.4
96584.3
96637.7
96690.2
96741
96789.5
96835
96876.7
96914.1
96946.8
96974.9
96998.6
97017.3
97030.2
97036.9
97037
97030.4
97017.9
97000
96976.8
96947.5
96912.4
96872.4
96827.4
96777.1
96721.8
96661.7
96597.1
96528.2
96455.4
96378.6
96297.9
96213.6
96126.1
96034.8
95939.3
95839.5
95736
95628.8
95518.1
95403.8
95285.6
95163.6
95037.7
94908
94774.8
94637.8
94497.3
94352.1
94201.7
94046.7
93886.8
93721.8
93550.3
93372.3
93190.4
93004.9
92811.1
92608.8
92400.9
92188.7
91973.3
91751.3
91522.2
91287.6
91048.7
90806.7
90564.7
90322
90080.3
89841.5
89598.3
89372.1
89139.1
88910.1
88695.2
88484.7
88282.9
88096.1
87917.9
87748.7
87603.8
87460.7
87329.6
87219.8
87129.1
87047.7
86976.2
86921.2
86878.8
86851.7
86833.8
86830.2
86832.9
86852.8
86884.2
86919.1
86961.7
87005.3
87057.2
87113.5
87165.1
87208.6
87230.2
87232.8
87212.2
87179.8
87120.8
87032.4
86899.4
86743.3
86585.1
86354.3
86089.9
85818.8
85543.4
85267.1
85002.5
84766.5
84526.3
84290.2
84031.7
83771
83508.9
83209.4
82948
82629.4
82322.3
82053.1
81687.1
81311.4
80997.8
80690.9
80408.6
80155.8
79882.1
79601
79374.8
79190.2
79029.9
78859
78757.4
78750.8
78782.9
78847.3
79018.6
79294.6
79714
80168.8
80658.5
81195.3
81738.9
82307
82887.7
96120.1
96118.1
96119.7
96125.7
96135.8
96148.9
96164.2
96181
96201.3
96226.3
96254.4
96283.7
96317.1
96353.4
96392.8
96435.5
96481.5
96530.5
96582.5
96636.9
96692.9
96750
96807.3
96864.4
96921.1
96977.1
97032.5
97087.3
97140.9
97193.1
97242.9
97289.9
97333.3
97372.6
97407.5
97437.5
97462.2
97481.3
97494.5
97501.3
97501.7
97495.9
97483.4
97464.4
97439.6
97409.5
97373.3
97330.6
97281.8
97227.5
97167.9
97103.1
97033.5
96959.2
96880.6
96797.8
96710.6
96619.5
96525.2
96428.2
96328.5
96225.2
96117.7
96006.4
95891.7
95773.4
95651.8
95526.7
95397.8
95265.5
95129.8
94990.8
94847.6
94700.8
94549.7
94392.9
94231.4
94065.5
93894.7
93716.3
93532.8
93347.3
93159.2
92963.1
92756.9
92545.8
92330.7
92112
91888.4
91657.3
91420
91179.8
90936.4
90691.4
90447.9
90202.4
89962.4
89720.8
89485.2
89255.6
89025.3
88814.2
88600.5
88397
88210.1
88033.8
87864.8
87711.5
87571.9
87441.6
87330
87237.1
87152.9
87081.1
87024.2
86982.2
86954.1
86938.2
86936.6
86940.8
86962.2
87000.1
87041.5
87094.6
87151.4
87217.5
87293.1
87368.3
87438.7
87488.3
87515.6
87525.6
87515.3
87488.1
87429.3
87326.7
87187.1
87051.6
86824.1
86586.1
86355.1
86121.2
85864.6
85623.3
85412.3
85195.9
84969.4
84707.8
84448.3
84180.1
83874.3
83617.5
83276.4
82950.4
82688.1
82295.5
81914.1
81579
81251.6
80963.3
80703.1
80407.2
80109.1
79872.1
79671.9
79515
79330.3
79189.1
79170.5
79198.8
79253.7
79402.5
79647.7
80042.9
80489.3
80967.1
81491.4
82017.6
82571.7
83126.4
96578.1
96574.9
96573.9
96575.7
96581.3
96592.3
96608.3
96629.2
96654.4
96681.9
96710.9
96741.8
96775.7
96812.8
96853.1
96896.5
96943.2
96993.2
97046.3
97102.5
97161.2
97221.8
97283.6
97345.6
97407.2
97467.1
97525.8
97582.4
97636.6
97688.1
97736.6
97781.6
97822.5
97859.3
97891.6
97919.4
97941.9
97957.9
97967.1
97969.5
97964.7
97953.4
97935.8
97911.3
97880.2
97843.2
97800.1
97750
97693.4
97631
97563.1
97489.8
97411.6
97328.6
97241
97148.9
97052.3
96951.5
96847.2
96740.4
96631
96518.9
96404.2
96286.5
96165.1
96040.2
95911.9
95780
95645.2
95507.2
95365.3
95220.9
95072.9
94920.2
94764
94603.3
94437.6
94266.4
94090.5
93907.2
93719.2
93530.9
93339.6
93141
92932.6
92718.8
92502.5
92280.8
92055.7
91823.6
91585.5
91343.2
91100
90852.8
90608.7
90362.3
90120
89878.9
89640.2
89407
89174.9
88964.6
88750.7
88545.8
88360.7
88181.6
88012.3
87856.3
87716.2
87586.2
87471.9
87378.9
87293
87221.4
87163.4
87122.2
87093.5
87081.2
87080.5
87091.1
87113.6
87157.7
87210.2
87272.4
87340.6
87417.6
87513.1
87613.1
87707.8
87786.9
87837.7
87877
87894.9
87895.5
87866.7
87793.4
87688.4
87541.7
87350.8
87151.4
86956.6
86758
86533.5
86317.6
86130.9
85929.1
85674.5
85418.4
85165.2
84897
84598.8
84326.1
83987
83660.2
83365.8
82959.2
82585.1
82230
81891.5
81599.4
81317.1
81003.1
80692.9
80440.2
80222.6
80073.2
79891.7
79708.5
79654
79676.1
79707.9
79828.4
80044
80412.1
80840.1
81310
81818.4
82326.8
82859.9
83385.4
97021.6
97015.7
97009.1
97006.1
97008.1
97017
97032
97053.4
97080.5
97109.5
97140.3
97173.5
97209.9
97249.4
97291.9
97337.2
97385.5
97437
97492
97550.1
97610.9
97673.9
97738.4
97803.7
97868.8
97933.2
97996.1
98056.5
98113.5
98166.7
98215.6
98259.7
98299
98333.4
98363
98388.1
98408.1
98421.9
98428.5
98427.9
98420
98404.5
98382.4
98353.4
98317.1
98273.7
98223.7
98166.8
98103.4
98034
97958.8
97878.2
97792.4
97701.8
97606.8
97507
97402.5
97293.8
97181.2
97064.9
96946.3
96825.8
96703
96577.6
96449.6
96318.7
96184.2
96046.5
95905.6
95762.4
95616.3
95466.7
95313.6
95157.6
94998.3
94833.1
94663.8
94490.4
94310.8
94124.8
93933.6
93742.2
93548
93346.8
93137.5
92921.7
92704.6
92481.6
92255
92022.6
91784.4
91541.3
91297.5
91049.5
90803.1
90557.7
90313.4
90072.8
89832.5
89599.9
89369
89149.9
88937.6
88732.7
88546.5
88365.3
88195.3
88038.7
87897.1
87767.6
87651.1
87558.1
87473.5
87401.4
87343.6
87303.5
87276.6
87268.4
87270
87287.3
87313.1
87360.5
87425.1
87497.7
87575.4
87664.2
87778.9
87902.7
88021.1
88127.6
88207.1
88273.7
88319.5