/*--------------------------------*- C++ -*----------------------------------*\
| =========                 |                                                 |
| \\      /  F ield         | OpenFOAM: The Open Source CFD Toolbox           |
|  \\    /   O peration     | Version:  dev                                   |
|   \\  /    A nd           | Web:      http://www.openfoam.org               |
|    \\/     M anipulation  |                                                 |
\*---------------------------------------------------------------------------*/
FoamFile
{
    version     2.0;
    format      ascii;
    class       surfaceScalarField;
    object      phi_0;
    location    "9.144";
}
// * * * * * * * * * * * * * * * * * * * * * * * * * * * * * * * * * * * * * //

dimensions      [1 0 -1 0 0 0 0];

internalField   nonuniform List<scalar> 
24170
(
1.51095e-06
1.95457e-06
1.27337e-07
1.26217e-06
-7.4561e-07
7.67545e-07
-1.34021e-06
5.05271e-07
-1.94996e-06
5.42868e-07
-2.32525e-06
3.32317e-07
-2.88169e-06
5.35073e-07
-3.20399e-06
3.20875e-07
-3.67001e-06
4.86283e-07
-3.93011e-06
2.99688e-07
-4.45675e-06
5.91216e-07
-4.48715e-06
1.17005e-07
-5.38112e-06
9.97201e-07
-4.80007e-06
-4.59356e-07
-5.71399e-06
1.0545e-06
-4.55926e-06
-1.01866e-06
-2.57919e-06
-1.83085e-06
4.44767e-06
-6.84224e-06
3.2047e-06
2.60913e-06
2.05447e-06
2.31951e-06
1.04085e-06
1.69347e-06
2.45297e-07
1.23247e-06
-4.97263e-07
1.23702e-06
-1.09391e-06
9.10832e-07
-1.77467e-06
1.22042e-06
-2.14816e-06
7.22025e-07
-2.67492e-06
1.06665e-06
-3.13262e-06
8.29396e-07
-3.57842e-06
1.13937e-06
-3.90857e-06
5.74236e-07
-4.3584e-06
1.59165e-06
-4.17787e-06
-4.81197e-07
-4.77303e-06
1.84011e-06
-4.50774e-06
-1.10583e-06
-8.01621e-06
1.87537e-06
5.12105e-06
-8.44476e-06
3.92927e-06
2.96923e-06
3.22337e-06
2.91245e-06
2.46493e-06
2.34863e-06
1.77295e-06
1.84113e-06
9.31851e-07
2.02037e-06
4.85485e-07
1.32696e-06
-2.17765e-07
1.92345e-06
-6.7373e-07
1.19834e-06
-1.20788e-06
1.65306e-06
-1.5798e-06
1.27195e-06
-2.16342e-06
1.82688e-06
-2.25378e-06
7.98422e-07
-3.09946e-06
2.59725e-06
-3.77263e-06
3.65481e-07
-3.80699e-06
2.07744e-06
-4.77438e-06
7.64756e-08
-7.74814e-06
5.08412e-06
5.46248e-06
-7.79812e-06
4.11534e-06
3.49991e-06
3.64049e-06
3.2555e-06
3.13172e-06
2.7409e-06
2.64443e-06
2.23167e-06
1.90232e-06
2.69585e-06
1.58034e-06
1.61029e-06
9.17678e-07
2.5809e-06
6.26697e-07
1.50615e-06
-4.14889e-09
2.33452e-06
-2.49511e-07
1.58756e-06
-8.46321e-07
2.52918e-06
-6.43219e-07
7.38944e-07
-1.57261e-06
3.69133e-06
-2.43475e-06
1.41029e-06
-4.69484e-06
4.56333e-06
-3.6132e-06
-7.71437e-07
-5.50245e-06
7.23042e-06
9.93987e-06
-9.67285e-06
4.46688e-06
4.25055e-06
4.13529e-06
3.43498e-06
3.44425e-06
3.29629e-06
3.21124e-06
2.35243e-06
2.33699e-06
3.48877e-06
1.8735e-06
2.02739e-06
1.33403e-06
3.10564e-06
1.31133e-06
1.54783e-06
4.72689e-08
3.64937e-06
-2.95427e-07
2.00342e-06
-7.03811e-07
3.05308e-06
-4.30195e-07
6.18847e-07
-1.46714e-06
4.90265e-06
-2.48784e-06
2.63264e-06
-4.63918e-06
6.94164e-06
-3.20962e-06
-1.95313e-06
-4.7385e-06
9.0264e-06
1.22921e-05
-6.81257e-06
4.68142e-06
5.16316e-06
4.62633e-06
3.31148e-06
3.50684e-06
4.25259e-06
3.50518e-06
2.22052e-06
2.51441e-06
4.3826e-06
1.9159e-06
2.56495e-06
1.04851e-06
3.95101e-06
5.38982e-07
2.06883e-06
-5.96718e-08
4.29508e-06
3.65379e-07
1.65884e-06
-1.57046e-06
5.11353e-06
-2.156e-06
1.3624e-06
-2.15563e-06
5.09503e-06
-1.79586e-06
2.49364e-06
-3.18475e-06
8.55401e-06
-4.62855e-06
-2.5583e-07
-5.10554e-06
9.76778e-06
1.05074e-05
-3.06398e-06
5.00338e-06
6.39693e-06
4.72977e-06
3.36798e-06
3.52796e-06
5.25683e-06
3.23701e-06
2.34857e-06
2.33448e-06
5.17066e-06
1.50235e-06
3.31347e-06
3.94257e-07
5.02141e-06
1.83633e-07
2.27419e-06
1.65957e-08
4.50257e-06
-5.40048e-07
2.29289e-06
-1.75831e-06
6.461e-06
-1.97724e-06
1.74191e-06
-2.57317e-06
5.89306e-06
-2.05789e-06
2.20993e-06
-1.80591e-06
8.5696e-06
-4.67267e-06
2.87475e-06
-2.50564e-06
7.88466e-06
9.99739e-06
-1.72527e-06
3.95683e-06
7.21293e-06
3.41907e-06
3.71921e-06
2.80829e-06
5.69988e-06
2.11515e-06
2.90048e-06
1.52471e-06
5.65947e-06
1.10717e-06
3.65107e-06
7.18992e-07
5.36255e-06
4.03484e-07
2.57435e-06
-1.16961e-07
5.04625e-06
-6.98764e-07
2.92529e-06
-7.41054e-07
6.58801e-06
-1.50511e-06
2.61943e-06
-1.53353e-06
6.07578e-06
-1.60974e-06
2.45348e-06
-1.25693e-06
8.42152e-06
-2.4999e-06
4.30607e-06
-2.01527e-06
7.62267e-06
9.20585e-06
-1.00259e-06
5.08117e-06
7.59405e-06
4.05592e-06
4.50739e-06
3.57687e-06
5.96132e-06
2.39462e-06
3.89961e-06
1.77557e-06
6.13332e-06
1.4141e-06
3.90357e-06
1.12873e-06
5.57599e-06
4.71742e-07
3.20221e-06
-3.02966e-07
5.83121e-06
-8.11911e-07
3.48042e-06
-1.03785e-06
6.89195e-06
-1.6079e-06
3.30593e-06
-1.45547e-06
6.09593e-06
-2.39659e-06
3.57157e-06
-2.10434e-06
8.34272e-06
-2.9038e-06
5.31633e-06
-2.91856e-06
7.87044e-06
8.83128e-06
-2.29598e-06
5.78273e-06
8.26377e-06
4.88917e-06
5.09453e-06
4.04872e-06
6.51398e-06
3.06768e-06
4.6406e-06
2.32381e-06
6.67331e-06
1.8338e-06
4.24265e-06
1.22395e-06
6.07874e-06
6.08823e-07
3.76428e-06
2.56963e-08
6.40282e-06
-8.00327e-07
4.34008e-06
-7.36637e-07
6.8848e-06
-1.29442e-06
3.98181e-06
-1.39881e-06
6.37809e-06
-2.6304e-06
4.98671e-06
-1.88505e-06
7.82302e-06
-2.73726e-06
6.39072e-06
-2.17894e-06
7.56542e-06
8.57621e-06
-1.67118e-06
6.37066e-06
9.14459e-06
5.52713e-06
5.53365e-06
4.55354e-06
7.10784e-06
3.62697e-06
5.24601e-06
2.96746e-06
7.05652e-06
2.08728e-06
4.90886e-06
1.52305e-06
6.48403e-06
6.08156e-07
4.58482e-06
3.59235e-07
6.60447e-06
-3.53086e-07
5.06663e-06
-1.74203e-07
6.74321e-06
-1.14566e-06
5.0669e-06
-1.23947e-06
6.62279e-06
-1.97846e-06
5.91212e-06
-1.429e-06
7.50231e-06
-1.8008e-06
7.00243e-06
-1.67587e-06
7.715e-06
8.42963e-06
-1.25086e-06
7.91238e-06
1.00637e-05
6.45766e-06
6.44976e-06
5.6054e-06
7.4535e-06
4.29171e-06
6.12173e-06
3.77706e-06
7.18657e-06
2.48597e-06
5.89319e-06
1.96223e-06
6.76725e-06
8.23075e-07
5.56134e-06
5.43043e-07
6.77927e-06
-2.22711e-07
5.80106e-06
-2.18153e-07
6.74893e-06
-9.86161e-07
5.92587e-06
-1.07748e-06
6.83501e-06
-1.74381e-06
6.75981e-06
-1.37982e-06
7.35401e-06
-1.58922e-06
7.4613e-06
-1.25748e-06
7.65699e-06
8.02907e-06
-5.6856e-07
9.07704e-06
1.133e-05
7.45974e-06
7.32987e-06
6.16854e-06
8.06354e-06
4.88814e-06
6.79938e-06
3.9185e-06
7.63326e-06
2.82679e-06
6.5447e-06
2.0588e-06
7.17687e-06
1.06813e-06
6.28485e-06
6.96437e-07
6.95766e-06
-1.58443e-07
6.54746e-06
-3.53712e-07
6.9014e-06
-1.06588e-06
6.67666e-06
-1.15804e-06
7.00926e-06
-1.37767e-06
7.1284e-06
-1.22882e-06
7.39601e-06
-1.13104e-06
7.5963e-06
-8.6884e-07
7.65545e-06
7.81902e-06
-3.76149e-07
1.06974e-05
1.17624e-05
8.85357e-06
8.15661e-06
7.72602e-06
8.24416e-06
5.85735e-06
7.82767e-06
4.86155e-06
7.89274e-06
3.37347e-06
7.40213e-06
2.63283e-06
7.38659e-06
1.48791e-06
7.00571e-06
9.61197e-07
7.15966e-06
1.55933e-07
7.12845e-06
-2.31111e-07
7.15143e-06
-7.4055e-07
7.13577e-06
-9.69199e-07
7.25746e-06
-1.12238e-06
7.36777e-06
-1.0067e-06
7.42175e-06
-6.76522e-07
7.45467e-06
-2.84771e-07
7.49049e-06
7.49725e-06
2.92656e-07
1.21296e-05
1.25432e-05
1.02257e-05
8.65008e-06
8.6246e-06
8.52874e-06
7.00848e-06
8.26505e-06
5.58e-06
8.27706e-06
4.144e-06
7.93113e-06
2.96498e-06
7.78978e-06
1.82372e-06
7.49992e-06
1.01363e-06
7.44922e-06
2.75388e-07
7.46736e-06
-2.47804e-07
7.38644e-06
-6.50983e-07
7.3527e-06
-7.83643e-07
7.29427e-06
-7.77812e-07
7.34516e-06
-6.48853e-07
7.34553e-06
-3.91318e-07
7.30794e-06
2.05778e-09
7.25662e-06
7.11844e-06
5.79147e-07
1.43871e-05
1.3044e-05
1.18943e-05
9.19479e-06
9.91615e-06
8.68628e-06
8.05312e-06
8.48561e-06
6.49409e-06
8.36918e-06
4.95974e-06
8.1755e-06
3.63744e-06
7.99427e-06
2.39837e-06
7.78923e-06
1.45249e-06
7.59619e-06
7.49359e-07
7.5216e-06
2.29544e-07
7.39492e-06
-8.21413e-08
7.27761e-06
-2.74402e-07
7.211e-06
-2.51739e-07
7.14585e-06
-5.42748e-08
7.05875e-06
2.73957e-07
6.96428e-06
7.24022e-07
6.85353e-06
6.7335e-06
1.20764e-06
1.63782e-05
1.27626e-05
1.39687e-05
8.94193e-06
1.16499e-05
8.51617e-06
9.49569e-06
8.37457e-06
7.58816e-06
8.23621e-06
5.8902e-06
8.05708e-06
4.44566e-06
7.84454e-06
3.21831e-06
7.6371e-06
2.17891e-06
7.4559e-06
1.41759e-06
7.28586e-06
8.70176e-07
7.11533e-06
5.01232e-07
6.97472e-06
3.12199e-07
6.86728e-06
3.07883e-07
6.74149e-06
4.57711e-07
6.61067e-06
7.43607e-07
6.47478e-06
1.13911e-06
6.33527e-06
6.12994e-06
1.68851e-06
1.64771e-05
1.16527e-05
1.42637e-05
8.09949e-06
1.19899e-05
7.91506e-06
9.8868e-06
7.84295e-06
8.01756e-06
7.71383e-06
6.4037e-06
7.52191e-06
5.06441e-06
7.2767e-06
3.9652e-06
7.0598e-06
3.03922e-06
6.9214e-06
2.34154e-06
6.72481e-06
1.82093e-06
6.56604e-06
1.48186e-06
6.41364e-06
1.26944e-06
6.32952e-06
1.19247e-06
6.20259e-06
1.27714e-06
6.03155e-06
1.47492e-06
5.88681e-06
1.81009e-06
5.70105e-06
5.44702e-06
2.27362e-06
1.51838e-05
1.08914e-05
1.27371e-05
7.57006e-06
1.05373e-05
7.29492e-06
8.64004e-06
7.14341e-06
7.00589e-06
6.97745e-06
5.61239e-06
6.77281e-06
4.44595e-06
6.52647e-06
3.465e-06
6.33883e-06
2.71388e-06
6.17322e-06
2.16106e-06
5.96897e-06
1.80316e-06
5.79403e-06
1.58895e-06
5.66097e-06
1.51821e-06
5.57257e-06
1.55656e-06
5.46391e-06
1.68648e-06
5.31576e-06
1.9151e-06
5.1724e-06
2.25385e-06
4.96583e-06
4.74968e-06
2.63196e-06
1.33267e-05
9.76675e-06
1.14399e-05
6.63029e-06
9.79059e-06
6.26367e-06
8.33342e-06
6.12157e-06
7.00176e-06
6.03497e-06
5.77372e-06
5.93669e-06
4.66477e-06
5.7792e-06
3.71695e-06
5.62845e-06
2.95933e-06
5.45782e-06
2.35688e-06
5.27538e-06
1.91044e-06
5.10772e-06
1.67972e-06
4.90147e-06
1.5672e-06
4.83062e-06
1.58495e-06
4.71543e-06
1.74092e-06
4.5353e-06
1.96882e-06
4.41396e-06
2.23628e-06
4.25341e-06
4.07737e-06
2.5349e-06
1.17736e-05
8.52231e-06
1.00935e-05
5.68013e-06
8.62462e-06
5.23593e-06
7.32446e-06
5.10466e-06
6.16714e-06
5.06091e-06
5.14705e-06
5.01717e-06
4.22807e-06
4.94672e-06
3.45139e-06
4.83136e-06
2.82844e-06
4.67667e-06
2.32607e-06
4.53648e-06
1.94378e-06
4.39344e-06
1.67427e-06
4.20269e-06
1.58715e-06
4.07452e-06
1.58944e-06
3.98831e-06
1.65617e-06
3.84038e-06
1.82337e-06
3.70603e-06
2.0352e-06
3.57994e-06
3.45301e-06
2.26315e-06
1.05723e-05
7.15339e-06
9.18994e-06
4.6516e-06
7.86898e-06
4.26268e-06
6.65486e-06
4.18656e-06
5.58824e-06
4.16153e-06
4.6762e-06
4.13453e-06
3.89075e-06
4.10594e-06
3.23059e-06
4.02614e-06
2.70445e-06
3.89323e-06
2.29586e-06
3.77892e-06
2.00842e-06
3.6408e-06
1.76044e-06
3.53052e-06
1.63806e-06
3.39467e-06
1.66302e-06
3.26349e-06
1.73205e-06
3.16042e-06
1.85579e-06
3.0542e-06
2.03576e-06
2.9422e-06
2.86894e-06
2.22415e-06
9.72466e-06
5.89584e-06
8.40728e-06
3.78259e-06
7.18513e-06
3.39796e-06
6.07202e-06
3.35704e-06
5.08201e-06
3.35785e-06
4.23521e-06
3.33907e-06
3.55406e-06
3.29535e-06
3.04133e-06
3.19378e-06
2.61997e-06
3.10782e-06
2.30391e-06
3.01373e-06
2.05215e-06
2.92708e-06
1.89277e-06
2.83843e-06
1.80372e-06
2.73641e-06
1.77359e-06
2.63367e-06
1.82589e-06
2.5297e-06
1.9226e-06
2.45369e-06
2.04987e-06
2.3746e-06
2.29472e-06
2.2443e-06
8.45746e-06
4.79121e-06
7.42698e-06
2.83917e-06
6.44496e-06
2.49282e-06
5.54434e-06
2.49919e-06
4.7176e-06
2.56022e-06
4.00015e-06
2.56727e-06
3.40922e-06
2.53099e-06
2.92157e-06
2.45602e-06
2.55146e-06
2.37391e-06
2.26863e-06
2.30634e-06
2.04432e-06
2.27078e-06
1.89875e-06
2.20576e-06
1.81915e-06
2.1258e-06
1.76938e-06
2.07114e-06
1.76147e-06
1.9996e-06
1.81317e-06
1.93055e-06
1.90818e-06
1.86747e-06
1.80972e-06
2.03602e-06
7.6949e-06
3.60129e-06
6.77839e-06
1.98241e-06
5.90393e-06
1.67072e-06
5.10618e-06
1.71472e-06
4.39072e-06
1.81133e-06
3.779e-06
1.83448e-06
3.26848e-06
1.8169e-06
2.84827e-06
1.76804e-06
2.51282e-06
1.70993e-06
2.23424e-06
1.68824e-06
2.0445e-06
1.66188e-06
1.91676e-06
1.62308e-06
1.82417e-06
1.5864e-06
1.78875e-06
1.54767e-06
1.79341e-06
1.50259e-06
1.83227e-06
1.45868e-06
1.90814e-06
1.41297e-06
1.3657e-06
2.0219e-06
6.8515e-06
2.48649e-06
6.14864e-06
1.09518e-06
5.4107e-06
8.86197e-07
4.71426e-06
9.91057e-07
4.09664e-06
1.115e-06
3.55131e-06
1.17313e-06
3.07718e-06
1.19045e-06
2.66921e-06
1.17856e-06
2.33853e-06
1.14154e-06
2.06485e-06
1.15483e-06
1.85585e-06
1.1491e-06
1.72249e-06
1.11323e-06
1.62362e-06
1.1142e-06
1.57715e-06
1.08886e-06
1.58076e-06
1.05289e-06
1.61482e-06
1.03206e-06
1.67441e-06
1.00898e-06
9.7468e-07
1.76395e-06
5.9956e-06
1.32172e-06
5.49474e-06
1.72194e-07
4.85587e-06
1.6349e-07
4.2202e-06
3.56152e-07
3.61949e-06
5.39454e-07
3.06316e-06
6.48972e-07
2.56315e-06
7.0462e-07
2.12955e-06
7.18036e-07
1.75448e-06
7.10126e-07
1.45579e-06
7.28716e-07
1.21356e-06
7.42699e-07
1.02203e-06
7.26371e-07
8.9774e-07
7.24309e-07
8.10018e-07
7.20943e-07
7.47384e-07
7.13068e-07
7.40995e-07
6.83831e-07
7.55323e-07
6.83231e-07
6.78793e-07
7.78361e-07
5.39343e-06
2.67582e-07
4.87659e-06
-5.81344e-07
4.18003e-06
-3.55927e-07
3.4466e-06
-4.56668e-08
2.74927e-06
1.85414e-07
2.10828e-06
3.23726e-07
1.52499e-06
4.05733e-07
1.00843e-06
4.33676e-07
5.54643e-07
4.41447e-07
1.68051e-07
4.65503e-07
-1.39e-07
4.67624e-07
-3.96198e-07
4.63864e-07
-6.08818e-07
4.74541e-07
-7.64111e-07
4.66057e-07
-8.72824e-07
4.59028e-07
-9.50803e-07
4.41849e-07
-9.93644e-07
4.44653e-07
4.48959e-07
-1.01073e-06
4.80847e-06
-5.08789e-07
3.8248e-06
-7.25636e-07
2.74289e-06
-3.5584e-07
1.76232e-06
-7.64151e-08
9.04982e-07
1.05336e-07
1.73392e-07
1.93336e-07
-4.54022e-07
2.45788e-07
-9.97892e-07
2.62224e-07
-1.43868e-06
2.38008e-07
-1.7889e-06
2.361e-07
-2.08401e-06
2.43542e-07
-2.32058e-06
2.37084e-07
-2.49049e-06
2.32305e-07
-2.62088e-06
2.30899e-07
-2.71029e-06
2.25282e-07
-2.77313e-06
2.1945e-07
-2.77823e-06
1.99274e-07
2.15688e-07
-2.76494e-06
2.98575e-06
1.3044e-06
3.43032e-08
-8.99565e-07
-1.58972e-06
-2.12689e-06
-2.54676e-06
-2.88726e-06
-3.19075e-06
-3.44026e-06
-3.63051e-06
-3.77948e-06
-3.88964e-06
-3.96162e-06
-4.00349e-06
-4.01897e-06
-4.02551e-06
-3.99148e-06
2.11874e-07
4.09519e-07
3.67872e-07
4.83164e-07
5.39488e-07
4.71752e-07
7.8887e-07
3.98435e-07
1.12265e-06
3.1726e-07
1.5636e-06
2.13118e-07
2.09185e-06
1.28121e-07
2.73102e-06
1.96596e-08
3.46788e-06
-7.56987e-08
4.28344e-06
-1.51917e-07
5.16288e-06
-2.13174e-07
6.05149e-06
-2.19939e-07
6.90769e-06
-1.84772e-07
7.77367e-06
-1.92354e-07
8.61397e-06
-1.65326e-07
9.34066e-06
-4.78451e-08
1.0013e-05
8.61648e-09
1.0636e-05
5.76286e-08
1.1133e-05
1.88672e-07
1.15314e-05
2.90964e-07
1.18853e-05
3.3752e-07
1.21534e-05
4.29629e-07
1.2333e-05
5.19595e-07
1.24341e-05
6.05842e-07
1.24653e-05
6.86672e-07
1.24228e-05
7.64596e-07
1.23638e-05
7.87881e-07
1.22528e-05
8.39869e-07
1.21057e-05
8.82619e-07
1.19608e-05
8.8014e-07
1.17675e-05
9.34824e-07
1.1616e-05
9.50881e-07
1.14136e-05
9.90791e-07
1.10018e-05
1.10026e-06
1.06471e-05
1.0407e-06
1.0495e-05
9.20991e-07
1.04593e-05
8.53328e-07
1.05242e-05
7.61793e-07
1.06892e-05
6.63078e-07
1.09306e-05
5.91089e-07
1.12825e-05
4.86186e-07
1.17341e-05
3.907e-07
1.22633e-05
3.1454e-07
1.28479e-05
2.57597e-07
1.35621e-05
1.21937e-07
1.43924e-05
-7.84645e-09
1.52724e-05
-8.21624e-08
1.59949e-05
3.97208e-08
1.6419e-05
3.10732e-07
1.65684e-05
6.01803e-07
1.66203e-05
7.48572e-07
1.67594e-05
6.9765e-07
1.70764e-05
5.30184e-07
1.75055e-05
4.11717e-07
1.79573e-05
3.6567e-07
1.84756e-05
2.72602e-07
1.90096e-05
2.44139e-07
1.94274e-05
3.48769e-07
1.9729e-05
4.44271e-07
2.00028e-05
4.50004e-07
2.02714e-05
4.39859e-07
2.04968e-05
4.68435e-07
2.06048e-05
5.64718e-07
2.05622e-05
6.85918e-07
2.03872e-05
7.80314e-07
2.01539e-05
7.95051e-07
1.98783e-05
7.90117e-07
1.94669e-05
8.70124e-07
1.87616e-05
1.09845e-06
1.76443e-05
1.44265e-06
1.59988e-05
1.92441e-06
1.36922e-05
2.57054e-06
1.07921e-05
3.11139e-06
7.55979e-06
3.328e-06
4.46527e-06
3.09734e-06
1.84113e-06
2.57379e-06
-2.41193e-07
1.9758e-06
-1.84203e-06
1.41675e-06
-2.97667e-06
8.73515e-07
-3.7174e-06
4.07828e-07
-4.17567e-06
5.7765e-08
-4.43136e-06
-2.08822e-07
-4.55548e-06
-4.01444e-07
-4.5866e-06
-5.51785e-07
-4.60455e-06
-6.18502e-07
-4.61902e-06
-6.71415e-07
-4.63423e-06
-7.15394e-07
-4.67014e-06
-7.33978e-07
-4.73161e-06
-7.42077e-07
-4.76418e-06
-7.99403e-07
-4.82656e-06
-7.91815e-07
-4.85375e-06
-8.43628e-07
-4.87535e-06
-8.59569e-07
-4.87476e-06
-8.85165e-07
-4.8445e-06
-9.11801e-07
-4.79919e-06
-9.20007e-07
-4.73857e-06
-9.26729e-07
-4.62499e-06
-9.67973e-07
-4.49557e-06
-9.67202e-07
-4.24491e-06
-1.07114e-06
-3.95944e-06
-1.09139e-06
-3.6155e-06
-1.14106e-06
-3.31212e-06
-1.08983e-06
-3.05557e-06
-1.03159e-06
-2.5215e-06
-1.30345e-06
-1.62714e-06
-1.67092e-06
-6.12112e-07
-1.81353e-06
5.81517e-08
-1.50919e-06
3.46998e-07
-1.17057e-06
5.05749e-07
-1.08602e-06
6.60971e-07
-1.1382e-06
9.15312e-07
-1.30706e-06
1.34556e-06
-1.54951e-06
1.83612e-06
-1.67318e-06
2.41207e-06
-1.86478e-06
2.91589e-06
-1.89753e-06
3.0308e-06
-1.56024e-06
3.16193e-06
-1.67876e-06
3.81329e-06
-2.3924e-06
4.28375e-06
-2.31776e-06
4.20982e-06
-1.73342e-06
4.18388e-06
-1.76047e-06
5.00854e-06
-2.71419e-06
6.30563e-06
-3.23494e-06
7.08198e-06
-2.59302e-06
7.2979e-06
-1.88229e-06
7.62089e-06
-1.94089e-06
7.68382e-06
-1.66893e-06
6.68836e-06
-5.68115e-07
5.29982e-06
-1.0827e-07
4.06941e-06
-1.59841e-07
3.28157e-06
-4.89797e-07
3.01423e-06
-8.87099e-07
2.89248e-06
-9.0307e-07
2.74413e-06
-7.38568e-07
2.56833e-06
-5.66531e-07
1.95401e-06
3.27419e-08
8.21077e-07
6.74144e-07
3.0118e-06
-2.45947e-06
9.49335e-06
-6.41094e-06
8.66465e-06
1.01434e-06
9.80224e-06
-1.041e-06
1.18634e-05
-1.86371e-06
1.17613e-05
3.56853e-07
1.20714e-05
-6.93003e-09
1.20141e-05
4.23064e-07
1.23029e-05
4.10639e-08
1.25681e-05
-7.43346e-08
1.24451e-05
2.51901e-07
1.24412e-05
4.35056e-09
1.19395e-05
3.52395e-07
1.11468e-05
4.99058e-07
1.04085e-05
2.28667e-07
9.4686e-06
2.4193e-07
8.50084e-06
1.26328e-07
7.52004e-06
-1.55844e-08
6.29855e-06
1.12595e-07
4.88056e-06
2.41222e-07
3.88027e-06
-2.75509e-07
3.20467e-06
-6.6217e-07
2.35467e-06
-5.2801e-07
1.76858e-06
-8.49781e-07
6.94926e-07
-4.47291e-07
-6.122e-07
-2.39562e-07
-1.90022e-06
-3.41635e-07
-2.91088e-06
-7.00612e-07
-3.96075e-06
-7.12746e-07
-4.80171e-06
-9.70071e-07
-5.66309e-06
-9.83981e-07
-7.23341e-06
-2.57885e-07
-8.94069e-06
-5.66976e-08
-9.8193e-06
-7.65125e-07
-9.69793e-06
-1.57621e-06
-1.00403e-05
-1.01451e-06
-1.01224e-05
-1.13494e-06
-8.98449e-06
-2.05398e-06
-7.96394e-06
-1.66012e-06
-7.1083e-06
-1.35163e-06
-6.97572e-06
-6.06517e-07
-9.12393e-07
-6.44707e-06
3.3147e-07
6.95463e-07
6.5291e-07
8.00421e-07
9.339e-07
8.39099e-07
1.21326e-06
7.71406e-07
1.57124e-06
6.12537e-07
2.05156e-06
3.8488e-07
2.68355e-06
1.47761e-07
3.45037e-06
-9.43934e-08
4.32573e-06
-2.95309e-07
5.28478e-06
-4.51002e-07
6.29657e-06
-5.57179e-07
7.35375e-06
-6.03581e-07
8.34643e-06
-5.0196e-07
9.32916e-06
-4.90308e-07
1.03451e-05
-4.96594e-07
1.12315e-05
-2.46964e-07
1.20441e-05
-9.54535e-08
1.28353e-05
-4.12209e-08
1.35237e-05
1.70988e-07
1.41377e-05
3.8586e-07
1.46917e-05
5.00777e-07
1.51107e-05
6.95155e-07
1.54166e-05
9.02931e-07
1.57191e-05
1.00353e-06
1.58747e-05
1.2379e-06
1.59298e-05
1.41489e-06
1.59489e-05
1.45736e-06
1.57567e-05
1.72412e-06
1.55183e-05
1.83387e-06
1.51799e-05
1.92185e-06
1.4708e-05
2.10772e-06
1.44552e-05
1.97753e-06
1.42115e-05
2.02094e-06
1.40157e-05
2.01886e-06
1.40391e-05
1.77469e-06
1.39418e-05
1.86715e-06
1.38088e-05
1.87773e-06
1.37789e-05
1.65507e-06
1.366e-05
1.5864e-06
1.34675e-05
1.59023e-06
1.34961e-05
1.32419e-06
1.38685e-05
9.27231e-07
1.43675e-05
7.25531e-07
1.48734e-05
6.33132e-07
1.54443e-05
3.95887e-07
1.62341e-05
1.82428e-08
1.71758e-05
-2.12949e-07
1.81231e-05
-4.26473e-08
1.89806e-05
3.76255e-07
1.96022e-05
8.60752e-07
1.98129e-05
1.3011e-06
1.9923e-05
1.33729e-06
2.03892e-05
9.81775e-07
2.11671e-05
7.04685e-07
2.17905e-05
6.80422e-07
2.19793e-05
7.20574e-07
2.19138e-05
8.42856e-07
2.17046e-05
1.12655e-06
2.12455e-05
1.43905e-06
2.05682e-05
1.66793e-06
1.98831e-05
1.81461e-06
1.92562e-05
1.95546e-06
1.86087e-05
2.11979e-06
1.77867e-05
2.33786e-06
1.66872e-05
2.6109e-06
1.52762e-05
2.89562e-06
1.35417e-05
3.17022e-06
1.13153e-05
3.55236e-06
8.58836e-06
4.03567e-06
5.56843e-06
4.63026e-06
2.54832e-06
5.18967e-06
-1.92263e-07
5.5504e-06
-2.54629e-06
5.62125e-06
-4.49573e-06
5.34512e-06
-6.10345e-06
4.69987e-06
-7.35148e-06
3.73684e-06
-8.23336e-06
2.68958e-06
-8.7184e-06
1.66179e-06
-8.858e-06
7.04756e-07
-8.83444e-06
4.87881e-09
-8.65376e-06
-5.65724e-07
-8.37777e-06
-9.92513e-07
-8.04795e-06
-1.29982e-06
-7.70889e-06
-1.51577e-06
-7.39495e-06
-1.61044e-06
-7.12271e-06
-1.67021e-06
-6.90502e-06
-1.70256e-06
-6.73243e-06
-1.71277e-06
-6.55694e-06
-1.75483e-06
-6.38749e-06
-1.83245e-06
-6.26e-06
-1.80369e-06
-6.15989e-06
-1.84304e-06
-6.04042e-06
-1.88865e-06
-5.91065e-06
-1.92773e-06
-5.72138e-06
-2.01535e-06
-5.48239e-06
-2.07081e-06
-5.24508e-06
-2.06937e-06
-5.06298e-06
-2.03926e-06
-4.72296e-06
-2.17097e-06
-4.34636e-06
-2.29079e-06
-3.98851e-06
-2.28038e-06
-3.55096e-06
-2.40197e-06
-3.17362e-06
-2.27689e-06
-2.84649e-06
-2.14043e-06
-2.40267e-06
-2.50353e-06
-1.59746e-06
-3.24404e-06
-4.384e-07
-3.76091e-06
7.24078e-07
-3.49813e-06
1.48952e-06
-2.83595e-06
2.04893e-06
-2.60268e-06
2.56503e-06
-2.65257e-06
3.16278e-06
-2.97754e-06
3.78069e-06
-3.33642e-06
4.03705e-06
-3.13386e-06
4.16237e-06
-3.21953e-06
4.50356e-06
-3.58941e-06
4.51699e-06
-3.09096e-06
4.35918e-06
-3.19486e-06
4.64971e-06
-4.56772e-06
5.40747e-06
-5.06568e-06
6.0806e-06
-4.34849e-06
6.74517e-06
-4.36454e-06
7.25851e-06
-5.38677e-06
6.7596e-06
-4.96803e-06
5.84174e-06
-3.69428e-06
6.11377e-06
-3.92954e-06
6.85625e-06
-4.38541e-06
6.86443e-06
-3.37458e-06
5.94122e-06
-1.35311e-06
4.44872e-06
-2.31049e-07
2.93593e-06
-1.46118e-07
1.68561e-06
-6.19418e-07
7.52009e-07
-1.21785e-06
3.37109e-07
-1.63994e-06
4.34913e-07
-1.83846e-06
4.4092e-07
-1.42286e-06
-2.17938e-07
8.89205e-09
-4.68602e-07
3.80872e-07
3.91611e-06
-7.36711e-06
1.02812e-05
-1.30992e-05
9.20455e-06
2.33569e-06
1.1077e-05
-3.11486e-06
1.3199e-05
-3.57569e-06
1.33154e-05
6.27678e-07
1.33745e-05
3.05605e-07
1.32877e-05
8.99948e-07
1.35733e-05
8.79142e-08
1.42185e-05
-6.12435e-07
1.42835e-05
1.99751e-07
1.4278e-05
-6.46259e-08
1.35985e-05
7.73079e-07
1.29774e-05
6.81177e-07
1.26074e-05
-7.38625e-08
1.20657e-05
-1.88533e-07
1.10216e-05
2.63833e-08
1.00151e-05
-2.57078e-07
9.01511e-06
-2.37979e-07
7.96971e-06
-9.56389e-08
7.42189e-06
-1.173e-06
7.3399e-06
-2.11596e-06
6.58486e-06
-1.37372e-06
5.72326e-06
-1.64054e-06
4.22897e-06
-7.13701e-07
2.56795e-06
-4.20234e-07
1.16161e-06
-8.58879e-07
-4.59159e-08
-1.54517e-06
-1.2826e-06
-1.6268e-06
-2.35962e-06
-2.14073e-06
-3.7496e-06
-1.90726e-06
-5.7207e-06
-6.00473e-07
-7.63458e-06
-4.01563e-07
-8.41711e-06
-2.04556e-06
-8.76259e-06
-3.01536e-06
-9.35166e-06
-2.23352e-06
-8.89043e-06
-3.24568e-06
-7.59061e-06
-4.47329e-06
-6.74309e-06
-3.30961e-06
-7.20916e-06
-1.64594e-06
-8.04847e-06
-6.40947e-07
-2.69412e-06
-7.19139e-06
3.42485e-07
9.66768e-07
7.60774e-07
1.0049e-06
1.14553e-06
1.09165e-06
1.50688e-06
1.05018e-06
1.98718e-06
7.64748e-07
2.63928e-06
3.59598e-07
3.45063e-06
-3.64869e-08
4.37469e-06
-3.87385e-07
5.3624e-06
-6.45166e-07
6.36306e-06
-8.1146e-07
7.36831e-06
-9.0918e-07
8.42678e-06
-9.86434e-07
9.47048e-06
-8.83659e-07
1.04518e-05
-8.01914e-07
1.14787e-05
-8.1007e-07
1.2387e-05
-4.58038e-07
1.32632e-05
-2.92034e-07
1.41424e-05
-1.86191e-07
1.48837e-05
1.67261e-07
1.56099e-05
3.55433e-07
1.62322e-05
6.17257e-07
1.6705e-05
9.36818e-07
1.72417e-05
1.07595e-06
1.77297e-05
1.29637e-06
1.80287e-05
1.64694e-06
1.84606e-05
1.73242e-06
1.87945e-05
1.9127e-06
1.88771e-05
2.33038e-06
1.90315e-05
2.4414e-06
1.89646e-05
2.70832e-06
1.87304e-05
3.03025e-06
1.84434e-05
3.077e-06
1.78203e-05
3.34662e-06
1.70861e-05
3.42761e-06
1.63297e-05
3.29013e-06
1.57289e-05
3.16853e-06
1.54863e-05
2.82449e-06
1.56037e-05
2.38321e-06
1.58328e-05
2.27234e-06
1.59059e-05
2.38097e-06
1.6122e-05
1.97701e-06
1.66397e-05
1.29925e-06
1.72132e-05
9.99438e-07
1.77305e-05
9.16581e-07
1.82027e-05
7.316e-07
1.8663e-05
3.97786e-07
1.91479e-05
7.79089e-08
1.94628e-05
3.2082e-07
1.96851e-05
8.81039e-07
2.00433e-05
1.3725e-06
2.05752e-05
1.71447e-06
2.10342e-05
1.87559e-06
2.12172e-05
1.78332e-06
2.08825e-05
1.6988e-06
1.99339e-05
1.98977e-06
1.87135e-05
2.48183e-06
1.7552e-05
2.8572e-06
1.65735e-05
3.05952e-06
1.57245e-05
3.24131e-06
1.49763e-05
3.37339e-06
1.42213e-05
3.52032e-06
1.33325e-05
3.76809e-06
1.22129e-05
4.10324e-06
1.08275e-05
4.45607e-06
9.13174e-06
4.85165e-06
7.19819e-06
5.22051e-06
5.07284e-06
5.61588e-06
2.88046e-06
6.03177e-06
6.50154e-07
6.54581e-06
-1.46624e-06
7.04545e-06
-3.40935e-06
7.40415e-06
-5.12673e-06
7.45228e-06
-6.50342e-06
7.09612e-06
-7.47509e-06
6.33078e-06
-8.04347e-06
5.20162e-06
-8.29809e-06
3.85034e-06
-8.32149e-06
2.50291e-06
-8.15941e-06
1.22679e-06
-7.91487e-06
1.21756e-07
-7.55276e-06
-7.5682e-07
-7.16572e-06
-1.41559e-06
-6.7669e-06
-1.91615e-06
-6.40911e-06
-2.23998e-06
-6.07792e-06
-2.48355e-06
-5.7599e-06
-2.61733e-06
-5.54529e-06
-2.62156e-06
-5.34497e-06
-2.68095e-06
-5.16464e-06
-2.70611e-06
-5.06964e-06
-2.69188e-06
-4.96893e-06
-2.79644e-06
-4.89104e-06
-2.7635e-06
-4.82535e-06
-2.79878e-06
-4.79945e-06
-2.81368e-06
-4.73686e-06
-2.88868e-06
-4.71115e-06
-2.94909e-06
-4.56318e-06
-3.12048e-06
-4.37352e-06
-3.14934e-06
-4.1964e-06
-3.07751e-06
-3.88269e-06
-3.31465e-06
-3.5538e-06
-3.43481e-06
-3.16541e-06
-3.46458e-06
-2.71654e-06
-3.62755e-06
-2.23525e-06
-3.52187e-06
-1.90924e-06
-3.22362e-06
-1.70794e-06
-3.46114e-06
-1.49638e-06
-4.24376e-06
-8.62956e-07
-5.21082e-06
9.82305e-08
-5.26267e-06
9.38289e-07
-4.52764e-06
1.60908e-06
-4.19492e-06
2.18976e-06
-4.20204e-06
3.10331e-06
-4.88641e-06
4.31828e-06
-5.64724e-06
5.14488e-06
-5.19829e-06
5.63066e-06
-4.88397e-06
6.42051e-06
-5.32934e-06
6.67772e-06
-4.42005e-06
5.93609e-06
-3.95822e-06
5.31965e-06
-5.7788e-06
5.8808e-06
-7.49449e-06
7.083e-06
-7.33921e-06
7.8242e-06
-6.95106e-06
6.87168e-06
-6.45228e-06
5.01455e-06
-5.09161e-06
3.94343e-06
-4.40977e-06
4.26909e-06
-5.95169e-06
4.51976e-06
-6.34957e-06
4.59855e-06
-5.2121e-06
3.89961e-06
-2.39043e-06
2.67934e-06
-6.42666e-07
1.56018e-06
-5.47157e-07
2.63186e-07
-7.20611e-07
-7.42585e-07
-1.47344e-06
-8.5276e-07
-2.63309e-06
-1.30795e-07
-3.46119e-06
6.95846e-07
-3.06556e-06
2.34513e-07
-2.5719e-07
7.73708e-08
-6.72859e-08
3.25715e-06
-1.12765e-05
7.30031e-06
-1.75448e-05
8.58235e-06
6.68918e-07
1.11447e-05
-6.18976e-06
1.31555e-05
-5.37186e-06
1.40629e-05
1.30852e-08
1.4058e-05
7.10436e-07
1.3363e-05
1.68527e-06
1.37028e-05
-9.07983e-08
1.50861e-05
-1.57037e-06
1.58447e-05
-5.33947e-07
1.56625e-05
-1.77316e-07
1.47702e-05
1.10848e-06
1.40628e-05
7.1505e-07
1.39952e-05
-4.52158e-07
1.40543e-05
-8.42439e-07
1.32109e-05
-2.54331e-07
1.17869e-05
-2.76658e-07
1.00844e-05
-1.59345e-07
8.71761e-06
-3.64281e-07
8.4283e-06
-2.38142e-06
9.05098e-06
-4.09097e-06
9.27829e-06
-3.15274e-06
9.39208e-06
-3.25601e-06
8.07226e-06
-9.80884e-07
6.11111e-06
-3.30903e-07
4.60832e-06
-1.38158e-06
3.56801e-06
-2.54982e-06
2.15028e-06
-2.33322e-06
6.68942e-07
-2.92799e-06
-1.0797e-06
-2.549e-06
-3.14032e-06
-1.03512e-06
-5.17128e-06
-9.10145e-07
-6.43571e-06
-3.0396e-06
-7.65043e-06
-3.70796e-06
-8.68051e-06
-3.18506e-06
-8.36726e-06
-5.1522e-06
-7.92293e-06
-5.85804e-06
-8.50352e-06
-3.5841e-06
-9.58991e-06
-1.59754e-06
-1.02278e-05
-1.14098e-06
-5.63551e-06
-8.31393e-06
2.05199e-07
1.38192e-06
3.96616e-07
1.43398e-06
7.06606e-07
1.40318e-06
1.24635e-06
1.12339e-06
2.02039e-06
5.98692e-07
2.97618e-06
1.74044e-08
4.00592e-06
-4.42446e-07
5.08284e-06
-8.33079e-07
6.0817e-06
-1.0008e-06
7.06793e-06
-1.14742e-06
8.01655e-06
-1.21081e-06
8.91974e-06
-1.2182e-06
9.91308e-06
-1.19596e-06
1.08726e-05
-1.08992e-06
1.1739e-05
-9.97497e-07
1.27371e-05
-7.76418e-07
1.36786e-05
-5.10049e-07
1.45003e-05
-2.96978e-07
1.52222e-05
1.06625e-07
1.59429e-05
3.61481e-07
1.65884e-05
6.88156e-07
1.7105e-05
1.10559e-06
1.77259e-05
1.23591e-06
1.81555e-05
1.58487e-06
1.85309e-05
1.95379e-06
1.91305e-05
1.99413e-06
1.94789e-05
2.33585e-06
1.9759e-05
2.7005e-06
2.02704e-05
2.76027e-06
2.05761e-05
3.23007e-06
2.07131e-05
3.61405e-06
2.07866e-05
3.75197e-06
2.0709e-05
4.22339e-06
2.03554e-05
4.53906e-06
1.97369e-05
4.66381e-06
1.88936e-05
4.80237e-06
1.77405e-05
4.6401e-06
1.69223e-05
4.01335e-06
1.67247e-05
3.35056e-06
1.69749e-05
2.87605e-06
1.73873e-05
2.37988e-06
1.75651e-05
2.00805e-06
1.76758e-05
1.77926e-06
1.82359e-05
1.26089e-06
1.90718e-05
7.47997e-07
1.9684e-05
5.7435e-07
1.98042e-05
7.09129e-07
1.95081e-05
1.31119e-06
1.89757e-05
2.17973e-06
1.83691e-05
2.8622e-06
1.75722e-05
3.26344e-06
1.64926e-05
3.50494e-06
1.52345e-05
3.67054e-06
1.40434e-05
3.72948e-06
1.30963e-05
3.86013e-06
1.23835e-05
4.13195e-06
1.17727e-05
4.40578e-06
1.11387e-05
4.60906e-06
1.04769e-05
4.79214e-06
9.71478e-06
4.99746e-06
8.8315e-06
5.22993e-06
7.77716e-06
5.57399e-06
6.52609e-06
5.9717e-06
5.13776e-06
6.30597e-06
3.70079e-06
6.64213e-06
2.22037e-06
7.03362e-06
6.64852e-07
7.52414e-06
-9.82538e-07
8.03591e-06
-2.56468e-06
8.45926e-06
-4.01897e-06
8.78052e-06
-5.27535e-06
8.8549e-06
-6.29019e-06
8.5602e-06
-7.01028e-06
7.82651e-06
-7.40573e-06
6.66565e-06
-7.54567e-06
5.21281e-06
-7.45193e-06
3.56212e-06
-7.13385e-06
1.92947e-06
-6.70844e-06
4.84226e-07
-6.2756e-06
-6.9044e-07
-5.8481e-06
-1.62792e-06
-5.4328e-06
-2.33732e-06
-5.09583e-06
-2.819e-06
-4.79934e-06
-3.15895e-06
-4.53755e-06
-3.42024e-06
-4.32722e-06
-3.5522e-06
-4.12517e-06
-3.59439e-06
-4.01601e-06
-3.602e-06
-3.88517e-06
-3.68249e-06
-3.84779e-06
-3.60658e-06
-3.80135e-06
-3.73725e-06
-3.81592e-06
-3.66536e-06
-3.77389e-06
-3.75785e-06
-3.74194e-06
-3.77783e-06
-3.68639e-06
-3.85476e-06
-3.71994e-06
-3.83476e-06
-3.7326e-06
-4.00229e-06
-3.62256e-06
-4.13886e-06
-3.43656e-06
-4.12605e-06
-3.19885e-06
-4.38892e-06
-2.9241e-06
-4.5272e-06
-2.59907e-06
-4.58066e-06
-2.22069e-06
-4.78345e-06
-1.59952e-06
-4.88643e-06
-9.43953e-07
-4.62155e-06
-6.11259e-07
-4.57988e-06
-5.94892e-07
-5.09697e-06
-6.24904e-07
-6.04745e-06
-2.69534e-07
-6.44861e-06
3.49407e-07
-5.95389e-06
8.56663e-07
-5.5389e-06
1.36662e-06
-5.58901e-06
2.3862e-06
-6.67487e-06
3.65731e-06
-7.59419e-06
4.49533e-06
-7.0773e-06
5.54948e-06
-7.25141e-06
7.02958e-06
-7.79326e-06
8.01749e-06
-6.08498e-06
7.78377e-06
-4.72547e-06
6.87815e-06
-6.42498e-06
6.7759e-06
-9.15948e-06
7.33889e-06
-9.60024e-06
7.15131e-06
-8.47462e-06
5.29209e-06
-6.38691e-06