/*--------------------------------*- C++ -*----------------------------------*\
| =========                 |                                                 |
| \\      /  F ield         | OpenFOAM: The Open Source CFD Toolbox           |
|  \\    /   O peration     | Version:  dev                                   |
|   \\  /    A nd           | Web:      http://www.openfoam.org               |
|    \\/     M anipulation  |                                                 |
\*---------------------------------------------------------------------------*/
FoamFile
{
    version     2.0;
    format      ascii;
    class       volScalarField;
    object      pMean;
    location    "9.144";
}
// * * * * * * * * * * * * * * * * * * * * * * * * * * * * * * * * * * * * * //

dimensions      [1 -1 -2 0 0 0 0];

internalField   nonuniform List<scalar> 
12225
(
98311.6
98291.8
98278.1
98271.1
98256.8
98247.4
98228.9
98219.3
98197.8
98189.1
98164.4
98157.5
98126.6
98120.2
98079.5
98039.7
97950.5
97584.4
98307.1
98290.8
98277.5
98270.6
98256.2
98246.8
98228.3
98218.8
98197.1
98188.7
98163.7
98157
98126.2
98118.3
98077.7
98043.8
97951.4
97790.3
98303.4
98289.2
98276.5
98269.2
98254.8
98245.3
98226.8
98217.4
98195.7
98187.2
98162.8
98155
98126.8
98114.9
98080
98044.7
97977.3
97888.5
98298.3
98286.3
98274.4
98266.7
98252.4
98242.6
98224.7
98214.8
98194
98184.5
98161.5
98151.9
98125.7
98112.7
98081
98053.1
98004.6
97935.8
98291.6
98281.9
98270.8
98262.7
98248.8
98238.5
98221.6
98210.6
98191.5
98180.2
98160
98147.3
98125.8
98109.5
98082.9
98058.7
98018.8
97986.1
98283.4
98275.7
98264.9
98256.7
98243.2
98232.6
98216.5
98204.9
98187.1
98175
98156.8
98143.2
98124.8
98107.8
98086.4
98061.1
98039
98018.5
98273.1
98266.8
98256.4
98247.9
98235.3
98224.2
98209.4
98196.8
98181.1
98167.5
98152.1
98137.1
98122.5
98105
98090.7
98069.7
98059.3
98044.4
98262.4
98256.7
98247.1
98238.4
98226.6
98215.1
98201.5
98188.3
98174.3
98160
98146.9
98131.2
98119.7
98102.4
98093.6
98075.8
98074.1
98059.1
98251.5
98246.1
98237.3
98228.4
98217.5
98205.7
98193.2
98179.7
98167.1
98152.5
98141
98125.5
98115.8
98099.8
98093.5
98079.4
98079.1
98067.1
98237.9
98232.5
98224.8
98215.7
98205.8
98194
98182.5
98169
98157.7
98143.2
98133.2
98118.3
98110.1
98095.7
98090.7
98079
98078.2
98069.9
98221
98215.5
98209
98200.2
98191
98179.6
98168.8
98155.9
98145.3
98131.7
98122.4
98109.2
98101.2
98089.7
98084
98075.5
98072.8
98067.6
98200.4
98194.7
98189.5
98181
98172.7
98161.6
98151.7
98139.4
98129.8
98117.3
98108.6
98097.1
98089.6
98080.3
98074.6
98068.2
98064.6
98061
98175.6
98170.4
98165.8
98158.3
98150.3
98140.4
98130.9
98120.1
98110.8
98100.2
98091.7
98082.4
98075.2
98068
98062.5
98057.7
98054.1
98051.3
98147.4
98142.6
98138.6
98132.1
98124.8
98115.9
98107.3
98097.8
98089.2
98080.2
98072.5
98065
98058.6
98052.8
98048.2
98044.4
98041.4
98039.3
98117.3
98113.5
98109.8
98104.3
98097.9
98090.2
98082.4
98074.3
98066.7
98059.3
98052.6
98046.5
98041.1
98036.6
98032.9
98030
98027.7
98026.3
98089.6
98086.8
98083.4
98078.9
98073.3
98066.8
98060
98053.1
98046.6
98040.4
98034.8
98029.8
98025.5
98021.9
98019.1
98016.9
98015.3
98014.4
98071
98069
98066.2
98062.3
98057.4
98051.7
98045.8
98039.8
98034.1
98028.9
98024.1
98019.9
98016.4
98013.5
98011.2
98009.5
98008.3
98007.7
98071.2
98069.5
98067
98063.2
98058.5
98053.2
98047.6
98042
98036.7
98031.7
98027.3
98023.3
98019.9
98017.2
98014.9
98013.2
98012
98011.3
98090.9
98089.1
98086.2
98082.3
98077.3
98071.8
98066
98060.2
98054.6
98049.4
98044.6
98040.3
98036.6
98033.4
98030.7
98028.6
98026.9
98025.7
98121.7
98119.5
98116.1
98111.6
98106.2
98100.2
98093.8
98087.5
98081.3
98075.5
98070.1
98065.2
98060.8
98056.9
98053.5
98050.7
98048.3
98046.4
98156.5
98153.9
98149.9
98144.7
98138.6
98132
98125
98118
98111.2
98104.6
98098.5
98092.8
98087.7
98083.1
98079
98075.4
98072.2
98069.5
98190.4
98187.3
98182.6
98176.7
98170
98162.7
98155.2
98147.6
98140.1
98132.9
98126.1
98119.7
98113.9
98108.5
98103.7
98099.4
98095.5
98092.1
98220.6
98217
98211.5
98204.9
98197.7
98189.9
98181.9
98173.8
98165.8
98158
98150.6
98143.6
98137.1
98131.2
98125.7
98120.8
98116.3
98112.3
98246
98241.6
98235.3
98228.2
98220.5
98212.4
98204
98195.5
98187
98178.8
98170.9
98163.4
98156.5
98150
98144
98138.5
98133.6
98129
98266.2
98261
98253.9
98246.2
98238.2
98229.8
98221.2
98212.4
98203.6
98195.1
98186.8
98179
98171.6
98164.7
98158.4
98152.5
98147.1
98142.2
98281.9
98275.5
98267.5
98259.3
98251.1
98242.7
98233.9
98224.9
98215.9
98207.1
98198.6
98190.5
98182.8
98175.7
98169
98162.9
98157.2
98152
98293.7
98285.8
98276.7
98268.2
98260
98251.5
98242.6
98233.5
98224.4
98215.5
98206.8
98198.5
98190.7
98183.3
98176.5
98170.1
98164.2
98158.8
98302.4
98292.6
98282.5
98273.8
98265.6
98257.1
98248.2
98239.1
98229.9
98220.9
98212.1
98203.7
98195.7
98188.2
98181.3
98174.8
98168.8
98163.3
98308.5
98296.4
98285.2
98276.6
98268.5
98260.2
98251.4
98242.3
98233.1
98224
98215.1
98206.6
98198.6
98191.1
98184
98177.5
98171.4
98165.8
98314.4
98298.9
98286.8
98278
98269.8
98261.4
98252.7
98243.6
98234.4
98225.3
98216.4
98207.9
98199.8
98192.2
98185.2
98178.6
98172.5
98166.9
98311.5
98311.2
98310.4
98309.2
98307.7
98305.9
98303.7
98301.1
98298
98294.6
98290.7
98286.4
98281.8
98276.9
98271.7
98266.2
98260.5
98254.6
98248.5
98242.2
98235.8
98229.2
98222.5
98215.7
98208.8
98201.8
98194.8
98187.7
98180.7
98173.6
98166.5
98159.4
98152.4
98145.4
98138.5
98131.8
98125.1
98118.6
98112.3
98106.2
98100.3
98094.6
98089.2
98084
98079.2
98074.7
98070.6
98066.9
98063.6
98060.7
98058.3
98056.4
98055
98054.2
98053.9
98054.3
98055.2
98056.8
98059.1
98062.1
98065.7
98070.1
98075.2
98081
98087.6
98094.8
98102.8
98111.4
98120.8
98130.7
98141.3
98152.5
98164.3
98176.6
98189.3
98202.6
98216.2
98230.2
98244.5
98259.1
98273.9
98288.9
98304.1
98319.3
98334.6
98349.8
98365.1
98380.1
98395.1
98409.8
98424.2
98438.3
98452.1
98465.5
98478.4
98490.8
98502.7
98514
98524.8
98534.9
98544.4
98553.3
98561.5
98569.1
98576
98582.4
98588.1
98593.2
98597.8
98601.9
98605.6
98608.8
98611.6
98614.1
98616.3
98618.2
98619.8
98621.3
98622.5
98623.6
98624.7
98625.7
98626.9
98628.2
98629.8
98631.8
98634.5
98637.9
98642.3
98647.9
98655
98663.7
98674.4
98687.3
98702.7
98720.7
98741.5
98765.3
98792.1
98821.9
98855
98890.9
98929.7
98971.2
99015.6
99062.1
99111.1
99161.8
99214.4
99268.6
99324
99380.4
99437.4
99494.7
99551.9
99608.5
99663.9
99717.6
99768.5
99816.4
99859.8
99898.1
99930.1
99955.1
99971.8
99979.3
99976.6
99963.6
99939.5
99904.8
99859.4
99804.6
99740.6
99669.9
99592.9
99512.4
99427.9
99343.2
99256.4
99173.3
98304.6
98304.2
98303.4
98302.3
98300.7
98298.9
98296.6
98294
98291
98287.6
98283.8
98279.7
98275.2
98270.4
98265.3
98260
98254.5
98248.7
98242.8
98236.7
98230.5
98224.1
98217.6
98210.9
98204.2
98197.4
98190.6
98183.6
98176.7
98169.7
98162.8
98155.9
98149
98142.2
98135.5
98128.9
98122.4
98116
98109.8
98103.8
98098
98092.4
98087.1
98082.1
98077.3
98072.9
98068.9
98065.2
98062
98059.1
98056.7
98054.8
98053.4
98052.6
98052.3
98052.5
98053.5
98055
98057.2
98060.1
98063.7
98067.9
98072.9
98078.6
98085
98092.1
98099.9
98108.4
98117.6
98127.4
98137.8
98148.8
98160.3
98172.4
98185
98198
98211.4
98225.1
98239.2
98253.6
98268.1
98282.9
98297.8
98312.8
98327.8
98342.8
98357.7
98372.5
98387.1
98401.5
98415.7
98429.5
98443
98456.1
98468.7
98480.8
98492.4
98503.5
98514
98523.9
98533.2
98541.8
98549.8
98557.2
98564
98570.1
98575.7
98580.7
98585.2
98589.2
98592.8
98595.9
98598.6
98601
98603.2
98605
98606.6
98608
98609.1
98610.2
98611.2
98612.1
98613.2
98614.3
98615.8
98617.6
98620
98623.2
98627.3
98632.6
98639.3
98647.5
98657.7
98670.1
98684.8
98702.2
98722.3
98745.3
98771.2
98800.2
98832.2
98867.1
98904.9
98945.4
98988.6
99034
99081.8
99131.3
99182.8
99235.8
99290.1
99345.3
99401.2
99457.5
99513.6
99569.2
99623.7
99676.6
99726.8
99774.1
99817.1
99855.1
99887
99912.2
99929.2
99937.3
99935.4
99923.5
99900.7
99867.5
99823.6
99770.6
99708.4
99639.5
99564.3
99485.5
99402.5
99319.4
99233.6
99148.7
98291.9
98291.5
98290.7
98289.5
98287.9
98286
98283.7
98281
98278
98274.6
98270.9
98266.8
98262.5
98257.9
98253.1
98248
98242.8
98237.4
98231.8
98226.1
98220.2
98214.2
98208.1
98201.8
98195.5
98189
98182.5
98175.9
98169.2
98162.6
98155.9
98149.3
98142.7
98136.1
98129.7
98123.3
98117
98110.9
98104.9
98099.1
98093.5
98088.1
98083
98078.1
98073.5
98069.2
98065.3
98061.7
98058.5
98055.7
98053.3
98051.4
98049.9
98049
98048.6
98048.8
98049.6
98051
98053.1
98055.8
98059.2
98063.3
98068
98073.5
98079.6
98086.5
98094
98102.2
98111
98120.5
98130.5
98141.2
98152.3
98164
98176.2
98188.8
98201.7
98215.1
98228.7
98242.6
98256.7
98271
98285.4
98299.9
98314.4
98328.9
98343.2
98357.5
98371.6
98385.5
98399.1
98412.3
98425.3
98437.8
98449.8
98461.4
98472.5
98483.1
98493
98502.5
98511.3
98519.5
98527.1
98534.1
98540.5
98546.4
98551.7
98556.4
98560.7
98564.4
98567.8
98570.7
98573.4
98575.7
98577.6
98579.3
98580.8
98582
98583.1
98584
98584.8
98585.5
98586.3
98587.2
98588.2
98589.7
98591.6
98594.2
98597.7
98602.2
98608.1
98615.4
98624.7
98635.9
98649.4
98665.3
98684
98705.4
98729.7
98756.8
98787
98819.8
98855.5
98893.8
98934.8
98977.9
99023.3
99070.6
99119.6
99170.3
99222.2
99275.1
99328.8
99382.9
99436.9
99490.5
99543
99594.2
99642.9
99688.7
99730.6
99767.9
99799.3
99824.3
99841.8
99850.6
99850.1
99839.9
99819.4
99788.9
99748.2
99698.5
99639.9
99574.6
99503
99427.7
99348.3
99268.3
99185.4
99101.5
98274.4
98274.1
98273.3
98272.1
98270.5
98268.5
98266.2
98263.5
98260.5
98257.2
98253.6
98249.7
98245.6
98241.2
98236.6
98231.9
98227
98222
98216.8
98211.6
98206.1
98200.6
98194.9
98189.2
98183.3
98177.3
98171.2
98165.1
98158.9
98152.8
98146.6
98140.4
98134.2
98128
98121.9
98115.9
98110
98104.2
98098.6
98093
98087.7
98082.5
98077.6
98072.8
98068.4
98064.3
98060.4
98057
98053.8
98051.1
98048.8
98046.8
98045.4
98044.4
98043.9
98044
98044.6
98045.9
98047.8
98050.2
98053.4
98057.1
98061.6
98066.6
98072.4
98078.9
98086
98093.7
98102.1
98111.1
98120.7
98130.8
98141.5
98152.6
98164.2
98176.2
98188.6
98201.3
98214.3
98227.5
98241
98254.6
98268.3
98282.1
98295.8
98309.6
98323.2
98336.8
98350.1
98363.2
98376.1
98388.6
98400.8
98412.5
98423.8
98434.6
98445
98454.8
98464.1
98472.8
98481
98488.6
98495.6
98502.1
98508.1
98513.4
98518.3
98522.7
98526.6
98530.1
98533.2
98535.9
98538.3
98540.4
98542.2
98543.7
98545
98546
98546.8
98547.5
98548
98548.4
98548.8
98549.2
98549.8
98550.6
98551.9
98553.7
98556.2
98559.7
98564.5
98570.5
98578.3
98587.9
98599.7
98613.8
98630.4
98649.6
98671.5
98696.2
98723.7
98753.8
98786.5
98821.9
98859.8
98899.8
98942
98986.1
99031.9
99079.4
99128.2
99178
99228.6
99279.8
99330.9
99381.7
99431.7
99480.4
99527
99570.9
99611.2
99647.2
99677.7
99702.4
99720.1
99729.7
99730.6
99722.4
99704.7
99677.5
99640.6
99595.2
99541.2
99480.9
99414
99343.6
99268.8
99193.3
99114.6
99034.6
98253.2
98253
98252.2
98251.1
98249.5
98247.6
98245.4
98242.7
98239.8
98236.6
98233.1
98229.4
98225.5
98221.3
98217.1
98212.7
98208.2
98203.5
98198.8
98193.9
98189
98184
98178.8
98173.5
98168.2
98162.8
98157.3
98151.7
98146.1
98140.5
98134.9
98129.2
98123.6
98118
98112.4
98106.9
98101.4
98096.1
98090.8
98085.7
98080.7
98075.9
98071.2
98066.8
98062.5
98058.6
98054.9
98051.6
98048.5
98045.9
98043.6
98041.6
98040.1
98039.1
98038.5
98038.4
98038.9
98039.9
98041.5
98043.7
98046.5
98049.9
98053.9
98058.6
98063.9
98069.8
98076.4
98083.6
98091.4
98099.8
98108.7
98118.2
98128.2
98138.7
98149.5
98160.8
98172.4
98184.3
98196.5
98208.9
98221.5
98234.3
98247.1
98260
98272.9
98285.7
98298.4
98311
98323.4
98335.6
98347.5
98359.1
98370.3
98381.2
98391.6
98401.5
98410.9
98419.8
98428.3
98436.2
98443.5
98450.4
98456.7
98462.5
98467.9
98472.7
98477
98480.9
98484.4
98487.5
98490.3
98492.7
98494.8
98496.6
98498.1
98499.4
98500.4
98501.2
98501.7
98502
98502.2
98502.2
98502.1
98502
98501.9
98502
98502.4
98503.2
98504.6
98506.9
98510.2
98514.7
98520.7
98528.4
98538.1
98549.9
98564
98580.6
98599.6
98621.2
98645.5
98672.3
98701.6
98733.3
98767.5
98803.9
98842.2
98882.5
98924.5
98968.2
99013.2
99059.3
99106.2
99153.9
99201.5
99249
99295.8
99341.5
99385.4
99427
99465.2
99499.6
99529
99553
99570.7
99580.9
99583.2
99577.2
99562.5
99539
99506.6
99466.1
99417.6
99362.9
99301.8
99237.4
99168.4
99098.5
99025.3
98950.7
98229.8
98229.6
98228.9
98227.9
98226.5
98224.7
98222.5
98220.1
98217.3
98214.3
98211
98207.5
98203.8
98200
98196
98191.9
98187.7
98183.4
98179.1
98174.7
98170.2
98165.6
98160.9
98156.2
98151.4
98146.5
98141.6
98136.7
98131.7
98126.7
98121.6
98116.6
98111.5
98106.5
98101.5
98096.6
98091.7
98086.8
98082.1
98077.4
98072.8
98068.4
98064.1
98060
98056
98052.3
98048.9
98045.7
98042.8
98040.2
98037.9
98036
98034.5
98033.3
98032.6
98032.4
98032.7
98033.5
98034.8
98036.6
98039
98042
98045.5
98049.7
98054.4
98059.8
98065.8
98072.3
98079.4
98087.1
98095.3
98104.1
98113.3
98122.9
98132.9
98143.3
98154.1
98165.1
98176.3
98187.8
98199.4
98211.1
98222.9
98234.8
98246.6
98258.4
98270
98281.6
98292.9
98304
98314.8
98325.3
98335.5
98345.2
98354.6
98363.5
98371.9
98379.8
98387.3
98394.3
98400.8
98406.8
98412.3
98417.4
98422
98426.2
98429.9
98433.2
98436.2
98438.9
98441.2
98443.2
98445
98446.5
98447.7
98448.6
98449.2
98449.7
98449.8
98449.8
98449.4
98449
98448.3
98447.5
98446.7
98446
98445.4
98445
98445.2
98446
98447.7
98450.5
98454.5
98460
98467.3
98476.5
98487.9
98501.4
98517.3
98535.5
98556.3
98579.3
98604.8
98632.5
98662.6
98694.8
98729
98765.1
98803
98842.4
98883.3
98925.2
98968.1
99011.7
99055.4
99099.2
99142.5
99184.9
99225.7
99264.6
99300.4
99332.8
99360.7
99383.9
99401.2
99411.9
99415.4
99411.7
99399.9
99380.4
99352.4
99317.3
99274.4
99225.9
99171.2
99113.4
99050.9
98987.6
98920.7
98852.7
98205.3
98205.2
98204.7
98203.7
98202.5
98200.8
98198.9
98196.7
98194.1
98191.3
98188.3
98185.1
98181.7
98178.1
98174.5
98170.7
98166.8
98162.9
98158.9
98154.9
98150.8
98146.7
98142.5
98138.2
98133.9
98129.6
98125.3
98120.9
98116.5
98112.1
98107.6
98103.2
98098.7
98094.3
98089.9
98085.5
98081.2
98076.9
98072.6
98068.4
98064.3
98060.3
98056.4
98052.6
98049
98045.5
98042.3
98039.3
98036.6
98034.1
98031.9
98030
98028.4
98027.2
98026.4
98026
98026.1
98026.6
98027.6
98029
98031
98033.6
98036.6
98040.2
98044.4
98049.1
98054.4
98060.2
98066.6
98073.5
98080.9
98088.8
98097.1
98105.9
98115
98124.4
98134.2
98144.2
98154.4
98164.8
98175.3
98186
98196.6
98207.3
98218
98228.6
98239.1
98249.4
98259.6
98269.5
98279.1
98288.4
98297.4
98306
98314.2
98322
98329.3
98336.2
98342.7
98348.7
98354.3
98359.4
98364.1
98368.3
98372.2
98375.6
98378.7
98381.4
98383.8
98386
98387.8
98389.4
98390.7
98391.8
98392.5
98393.1
98393.3
98393.3
98393.1
98392.5
98391.7
98390.7
98389.4
98387.8
98386.2
98384.5
98382.8
98381.3
98380
98379.3
98379.2
98380.1
98382
98385.2
98390
98396.5
98404.8
98415.3
98427.8
98442.4
98459.4
98478.6
98500
98523.6
98549.4
98577.3
98607.1
98638.9
98672.3
98707.3
98743.8
98781.5
98820
98859.3
98899
98938.9
98978.5
99017.2
99054.6
99090.3
99123.6
99153.7
99179.7
99201.5
99218.2
99229.1
99233.8
99232
99223
99207.3
99183.7
99153.8
99116.8
99074.6
99026.6
98975.8
98920.3
98864.1
98804.1
98743.3
98181.2
98181.1
98180.7
98179.9
98178.8
98177.4
98175.7
98173.7
98171.4
98168.9
98166.2
98163.3
98160.2
98157
98153.7
98150.2
98146.7
98143.2
98139.5
98135.9
98132.2
98128.4
98124.7
98120.9
98117.1
98113.2
98109.4
98105.5
98101.7
98097.8
98093.9
98090
98086.1
98082.2
98078.3
98074.5
98070.7
98066.8
98063.1
98059.3
98055.6
98052
98048.4
98045
98041.7
98038.5
98035.5
98032.7
98030.1
98027.7
98025.6
98023.7
98022.1
98020.8
98019.9
98019.3
98019.2
98019.4
98020.1
98021.2
98022.8
98024.8
98027.4
98030.4
98034
98038.1
98042.7
98047.8
98053.4
98059.5
98066
98073
98080.5
98088.3
98096.4
98104.9
98113.6
98122.5
98131.7
98141
98150.4
98159.8
98169.3
98178.8
98188.3
98197.7
98206.9
98216
98224.9
98233.6
98241.9
98250
98257.8
98265.2
98272.2
98278.8
98285.1
98290.9
98296.3
98301.3
98305.9
98310.1
98313.9
98317.3
98320.3
98323
98325.4
98327.5
98329.3
98330.9
98332.2
98333.2
98334
98334.6
98334.9
98335
98334.8
98334.3
98333.5
98332.5
98331.1
98329.4
98327.4
98325
98322.5
98319.7
98316.9
98314.1
98311.4
98309.1
98307.2
98306.2
98305.9
98306.7
98308.9
98312.6
98318
98325.2
98334.2
98345.3
98358.5
98373.8
98391.3
98410.7
98432.2
98455.7
98481.1
98508.5
98537.5
98568.1
98600.2
98633.5
98667.7
98702.7
98738.3
98774.2
98809.9
98844.8
98878.6
98911
98941.2
98968.7
98992.5
99012.7
99028.4
99039.2
99044.6
99044.5
99037.9
99025.5
99006.1
98981.1
98949.6
98913.7
98872.4
98828.7
98780.2
98731.4
98678.7
98625.5
98158.3
98158.3
98158
98157.4
98156.4
98155.3
98153.8
98152.1
98150.1
98147.9
98145.5
98142.9
98140.2
98137.3
98134.3
98131.2
98128.1
98124.9
98121.6
98118.3
98115
98111.7
98108.4
98105
98101.6
98098.3
98094.9
98091.5
98088.1
98084.6
98081.2
98077.8
98074.4
98071
98067.6
98064.2
98060.8
98057.4
98054
98050.7
98047.3
98044.1
98040.8
98037.7
98034.6
98031.7
98028.9
98026.2
98023.8
98021.4
98019.3
98017.4
98015.8
98014.5
98013.4
98012.7
98012.3
98012.2
98012.6
98013.4
98014.5
98016.1
98018.2
98020.7
98023.7
98027.1
98031
98035.4
98040.3
98045.6
98051.3
98057.4
98063.9
98070.8
98078
98085.4
98093.1
98101
98109
98117.2
98125.5
98133.8
98142.1
98150.4
98158.6
98166.7
98174.7
98182.5
98190.2
98197.5
98204.7
98211.5
98218
98224.2
98230
98235.5
98240.6
98245.3
98249.6
98253.5
98257.1
98260.4
98263.3
98265.9
98268.1
98270
98271.7
98273.1
98274.3
98275.2
98276
98276.5
98276.7
98276.7
98276.5
98276
98275.3
98274.2
98272.9
98271.2
98269.2
98266.8
98264
98260.8
98257.3
98253.5
98249.5
98245.4
98241.3
98237.4
98233.8
98230.8
98228.3
98226.9
98226.5
98227.4
98229.9
98233.9
98239.6
98247.3
98256.7
98268.3
98281.8
98297.3
98314.6
98333.8
98355
98378.2
98402.9
98429.2
98456.9
98485.9
98515.8
98546.7
98578.2
98610.1
98641.7
98672.8
98702.9
98731.7
98758.7
98783.4
98804.8
98822.9
98837.2
98847.5
98853.1
98854.1
98849.4
98839.7
98824
98803.6
98777.2
98747.3
98712.5
98675.6
98634.1
98592.7
98547.2
98502
98137.6
98137.7
98137.5
98137
98136.3
98135.3
98134.1
98132.7
98131
98129.1
98127.1
98124.8
98122.4
98119.9
98117.3
98114.6
98111.8
98109
98106.1
98103.2
98100.3
98097.3
98094.4
98091.4
98088.4
98085.5
98082.5
98079.5
98076.4
98073.4
98070.4
98067.4
98064.3
98061.3
98058.3
98055.2
98052.2
98049.2
98046.1
98043.1
98040
98037
98034
98031.1
98028.3
98025.5
98022.8
98020.3
98017.9
98015.6
98013.5
98011.6
98009.9
98008.4
98007.2
98006.3
98005.7
98005.4
98005.5
98005.9
98006.7
98007.9
98009.5
98011.5
98013.9
98016.8
98020
98023.8
98027.9
98032.4
98037.3
98042.6
98048.2
98054.2
98060.4
98066.9
98073.6
98080.4
98087.4
98094.5
98101.6
98108.8
98115.9
98123
98130
98136.9
98143.7
98150.3
98156.7
98162.8
98168.7
98174.3
98179.6
98184.5
98189.2
98193.5
98197.4
98200.9
98204.2
98207.1
98209.7
98212
98214
98215.7
98217.1
98218.3
98219.2
98219.9
98220.3
98220.6
98220.7
98220.6
98220.3
98219.8
98218.9
98217.9
98216.5
98214.8
98212.8
98210.5
98207.7
98204.5
98200.9
98196.8
98192.4
98187.5
98182.4
98177
98171.7
98166.2
98160.9
98156
98151.6
98147.9
98145.1
98143.4
98143
98144
98146.6
98150.9
98156.9
98164.8
98174.6
98186.3
98199.8
98215.2
98232.3
98251.5
98272.2
98294.4
98317.9
98342.8
98368.6
98395.4
98422.9
98450.8
98478.4
98505.6
98532
98557.2
98580.8
98602.5
98621.2
98637
98649.4
98658.6
98663.7
98665.2
98661.9
98654.4
98641.8
98625.3
98603.5
98579.1
98550.4
98519.9
98485.2
98450.9
98412.6
98375.2
98119.8
98120
98119.8
98119.4
98118.9
98118.1
98117.1
98116
98114.6
98113
98111.3
98109.4
98107.4
98105.3
98103
98100.7
98098.3
98095.8
98093.3
98090.8
98088.3
98085.7
98083.1
98080.5
98077.9
98075.3
98072.6
98070
98067.3
98064.6
98061.9
98059.2
98056.5
98053.7
98051
98048.2
98045.4
98042.6
98039.8
98037
98034.2
98031.3
98028.5
98025.7
98023
98020.4
98017.8
98015.3
98012.9
98010.6
98008.5
98006.5
98004.7
98003.2
98001.8
98000.7
97999.9
97999.4
97999.1
97999.3
97999.7
98000.5
98001.7
98003.2
98005.1
98007.4
98010.1
98013.2
98016.6
98020.5
98024.6
98029.1
98033.9
98039
98044.4
98049.9
98055.7
98061.5
98067.5
98073.6
98079.6
98085.7
98091.8
98097.7
98103.6
98109.3
98114.9
98120.3
98125.5
98130.4
98135.1
98139.4
98143.5
98147.3
98150.8
98153.9
98156.7
98159.2
98161.4
98163.2
98164.8
98166.2
98167.2
98168
98168.6
98169
98169.1
98169
98168.8
98168.4
98167.8
98167
98166
98164.8
98163.3
98161.6
98159.6
98157.2
98154.5
98151.4
98147.8
98143.8
98139.4
98134.4
98129
98123.1
98116.9
98110.4
98103.7
98096.9
98090
98083.4
98077.1
98071.4
98066.4
98062.2
98059.3
98057.6
98057.2
98058.4
98061.2
98065.9
98072.2
98080.5
98090.5
98102.3
98115.8
98131.2
98148.2
98166.7
98186.4
98207.4
98229.4
98252.3
98275.9
98299.8
98323.5
98347.1
98369.6
98391.1
98411.2
98429.6
98445.5
98458.6
98468.8
98476.2
98480.3
98481.5
98478.9
98473
98462.9
98449.6
98432
98412.5
98389.2
98364.6
98336.1
98308.6
98277.3
98247.3
98105.1
98105.3
98105.3
98105
98104.6
98104
98103.3
98102.4
98101.3
98100
98098.6
98097.1
98095.4
98093.7
98091.8
98089.9
98087.9
98085.8
98083.7
98081.6
98079.4
98077.2
98075
98072.7
98070.4
98068.1
98065.8
98063.4
98061
98058.5
98056.1
98053.6
98051.1
98048.6
98046
98043.4
98040.8
98038.2
98035.5
98032.8
98030.1
98027.3
98024.6
98021.9
98019.2
98016.6
98014
98011.5
98009
98006.7
98004.5
98002.5
98000.6
97998.9
97997.4
97996.1
97995.1
97994.3
97993.9
97993.7
97993.8
97994.3
97995.1
97996.2
97997.7
97999.5
98001.7
98004.2
98007
98010.2
98013.7
98017.5
98021.6
98025.9
98030.4
98035.1
98040
98045
98050
98055.1
98060.2
98065.3
98070.3
98075.2
98080
98084.6
98089.1
98093.4
98097.4
98101.2
98104.7
98107.9
98110.9
98113.5
98115.8
98117.9
98119.6
98121
98122.1
98123
98123.6
98123.9
98124.1
98124
98123.7
98123.2
98122.5
98121.6
98120.6
98119.4
98118.1
98116.5
98114.8
98112.9
98110.7
98108.3
98105.5
98102.4
98098.9
98095
98090.7
98085.9
98080.6
98074.7
98068.4
98061.6
98054.4
98046.7
98038.9
98030.7
98022.5
98014.4
98006.4
97998.8
97991.9
97985.5
97980.2
97976
97973
97971.6
97971.6
97973.3
97976.6
97981.8
97988.7
97997.3
98007.7
98019.8
98033.4
98048.6
98064.7
98082.2
98100.6
98119.9
98139.9
98160
98180
98199.8
98218.5
98236.2
98252.7
98267.6
98280.4
98290.6
98298.2
98303.4
98305.8
98306
98303.4
98298.5
98290.2
98279.6
98265.4
98250
98231.4
98212.2
98189.4
98168.3
98143.3
98120.5
98093.7
98093.9
98094
98093.8
98093.5
98093.1
98092.6
98091.9
98091.1
98090.1
98089.1
98087.9
98086.6
98085.2
98083.7
98082.2
98080.6
98079
98077.3
98075.5
98073.7
98071.9
98070
98068.1
98066.1
98064.1
98062
98059.8
98057.7
98055.4
98053.1
98050.8
98048.4
98046
98043.6
98041.1
98038.5
98035.9
98033.3
98030.6
98027.9
98025.2
98022.4
98019.7
98017
98014.3
98011.7
98009.1
98006.6
98004.2
98001.9
97999.7
97997.7
97995.8
97994.2
97992.7
97991.5
97990.5
97989.8
97989.4
97989.3
97989.5
97989.9
97990.7
97991.8
97993.2
97994.9
97996.9
97999.3
98001.9
98004.8
98008
98011.4
98015.1
98018.9
98022.9
98026.9
98031.1
98035.3
98039.6
98043.8
98047.9
98052
98056
98059.8
98063.4
98066.8
98070
98073
98075.7
98078.1
98080.3
98082.2
98083.7
98085
98086
98086.6
98087
98087.1
98086.9
98086.5
98086
98085.2
98084.2
98083
98081.6
98080.1
98078.4
98076.6
98074.6
98072.4
98070.1
98067.6
98064.9
98061.9
98058.7
98055.1
98051.2
98046.9
98042.2
98037.1
98031.5
98025.3
98018.6
98011.4
98003.7
97995.6
97986.9
97978
97968.8
97959.3
97949.8
97940.4
97931.3
97922.5
97914.3
97907
97900.6
97895.4
97891.6
97889.2
97888.4
97889.2
97891.7
97895.9
97901.8
97909.2
97918.4
97929.1
97941.1
97954.3
97968.6
97983.6
97999.5
98016.1
98032.7
98049.1
98065.3
98080.2
98094
98106.8
98118
98127.5
98134.7
98139.4
98142.3
98142.5
98141.1
98137.8
98133.1
98125.9
98117.3
98106
98093.9
98079.2
98064.8
98047.2
98031.8
98012.6
97996.6
98085.3
98085.5
98085.6
98085.6
98085.5
98085.3
98084.9
98084.5
98084
98083.3
98082.6
98081.8
98080.9
98079.9
98078.9
98077.8
98076.6
98075.4
98074.1
98072.7
98071.3
98069.9
98068.3
98066.7
98065
98063.2
98061.3
98059.3
98057.3
98055.2
98053
98050.8
98048.5
98046.1
98043.7
98041.2
98038.6
98036
98033.3
98030.6
98027.8
98025
98022.2
98019.3
98016.5
98013.7
98011
98008.2
98005.6
98003.1
98000.6
97998.3
97996.1
97994.1
97992.3
97990.7
97989.3
97988.2
97987.3
97986.6
97986.3
97986.2
97986.4
97986.9
97987.6
97988.7
97990.1
97991.7
97993.6
97995.8
97998.2
98000.9
98003.8
98006.8
98010
98013.3
98016.8
98020.2
98023.7
98027.2
98030.6
98034
98037.2
98040.3
98043.2
98045.9
98048.4
98050.7
98052.6
98054.3
98055.8
98056.9
98057.8
98058.3
98058.6
98058.6
98058.2
98057.6
98056.7
98055.6
98054.2
98052.7
98050.9
98049
98046.9
98044.7
98042.3
98039.8
98037
98034.2
98031.2
98028
98024.7
98021.2
98017.3
98013.3
98008.8
98004.1
97999
97993.5
97987.6
97981.1
97974.2
97966.7
97958.7
97950.2
97941.2
97931.7
97921.8
97911.7
97901.2
97890.6
97879.9
97869.4
97859.2
97849.5
97840.4
97832.3
97825.3
97819.5
97815
97812.1
97810.7
97811
97812.8
97816.3
97821.2
97827.8
97835.8
97845
97855.4
97866.9
97879
97891.9
97905.1
97918.4
97931.4
97944
97955.2
97965.3
97974.2
97981.8
97987.8
97991.7
97993.4
97993.8
97991.6
97988.2
97983.8
97978.6
97971.8
97964.6
97955.3
97946
97934.5
97924.2
97911.1
97900.8
97886.8
97877
98079.3
98079.6
98079.8
98079.8
98079.8
98079.8
98079.7
98079.5
98079.3
98079
98078.7
98078.3
98077.9
98077.4
98076.8
98076.2
98075.5
98074.7
98073.8
98072.9
98071.8
98070.7
98069.5
98068.1
98066.7
98065.1
98063.4
98061.6
98059.7
98057.6
98055.5
98053.3
98051
98048.6
98046.1
98043.5
98040.9
98038.1
98035.3
98032.5
98029.6
98026.6
98023.6
98020.7
98017.7
98014.7
98011.8
98008.9
98006.1
98003.4
98000.8
97998.3
97996
97993.9
97991.9
97990.1
97988.6
97987.3
97986.2
97985.4
97984.8
97984.5
97984.5
97984.8
97985.3
97986.1
97987.2
97988.5
97990.1
97991.9
97993.9
97996.2
97998.6
98001.2
98003.9
98006.6
98009.5
98012.3
98015.2
98018
98020.8
98023.4
98025.9
98028.2
98030.3
98032.2
98033.8
98035.2
98036.3
98037.1
98037.6
98037.8
98037.8
98037.4
98036.7
98035.7
98034.5
98032.9
98031
98029
98026.7
98024.2
98021.5
98018.7
98015.7
98012.6
98009.3
98005.9
98002.3
97998.6
97994.7
97990.7
97986.5
97982
97977.3
97972.4
97967.1
97961.6
97955.7
97949.3
97942.6
97935.3
97927.6
97919.4
97910.7
97901.5
97891.8
97881.6
97871
97860
97848.7
97837.2
97825.5
97813.9
97802.5
97791.4
97781.1
97771.6
97763
97755.6
97749.4
97744.8
97741.5
97739.9
97739.7
97741.1
97743.9
97748.2
97753.8
97760.6
97768.5
97777.5
97787
97797
97807.1
97817.1
97826.8
97835.9
97843.6
97850.2
97855.2
97859.1
97861.4
97861.9
97860.6
97858.2
97853.6
97848.2
97842
97835.8
97829
97822.5
97814.5
97807.3
97798.6
97791.7
97782.3
97776.5
97767.1
97762.9
98074.9
98075.2
98075.5
98075.6
98075.8
98076
98076.1
98076.3
98076.5
98076.7
98076.9
98077.1
98077.2
98077.3
98077.2
98077.1
98076.9
98076.6
98076.1
98075.6
98074.9
98074.1
98073.1
98072
98070.8
98069.3
98067.8
98066.1
98064.2
98062.2
98060.1
98057.9
98055.5
98053
98050.4
98047.7
98044.9
98042.1
98039.1
98036.1
98033
98029.8
98026.7
98023.5
98020.3
98017.2
98014.1
98011
98008
98005.1
98002.4
97999.8
97997.3
97995
97992.9
97991
97989.3
97987.8
97986.6
97985.7
97985
97984.5
97984.3
97984.4
97984.7
97985.3
97986.2
97987.3
97988.6
97990.1
97991.9
97993.8
97995.8
97998
98000.3
98002.6
98005
98007.4
98009.7
98011.9
98014.1
98016.1
98017.9
98019.5
98020.9
98022.1
98023
98023.6
98023.9
98023.9
98023.6
98022.9
98022
98020.8
98019.2
98017.3
98015.2
98012.7
98010
98007
98003.8
98000.4
97996.9
97993.2
97989.3
97985.3
97981.2
97976.9
97972.4
97967.8
97963
97958.1
97953
97947.6
97942
97936.2
97930.1
97923.8
97917
97909.9
97902.4
97894.4
97885.9
97877.1
97867.8
97858
97847.6
97836.9
97825.6
97814.1
97802.1
97789.8
97777.4
97765
97752.6
97740.7
97729.3
97718.7
97708.8
97700.1
97692.6
97686.5
97681.7
97678.4
97676.5
97676.1
97677.1
97679.5
97683
97687.6
97693.4
97700.1
97707.3
97714.4
97721.5
97728.4
97735
97740.7
97745.1
97748.2
97749.5
97749.7
97748.2
97745.3
97740.8
97735.6
97728.6
97720.9
97712.9
97705.5
97698.1
97691.7
97684.5
97678.8
97672.1
97668
97661.7
97660
97654.6
97655.2
98071.2
98071.3
98071.6
98071.7
98072
98072.5
98073.1
98073.9
98074.7
98075.7
98076.5
98077.4
98078.2
98078.9
98079.5
98079.9
98080.2
98080.3
98080.3
98080.1
98079.8
98079.2
98078.5
98077.6
98076.5
98075.2
98073.8
98072.1
98070.3
98068.3
98066.1
98063.8
98061.4
98058.8
98056.1
98053.3
98050.3
98047.3
98044.1
98040.9
98037.6
98034.3
98030.9
98027.6
98024.2
98020.8
98017.5
98014.3
98011.1
98008.1
98005.2
98002.4
97999.8
97997.4
97995.1
97993.1
97991.3
97989.8
97988.5
97987.4
97986.6
97986
97985.7
97985.7
97985.9
97986.3
97987
97987.9
97989.1
97990.4
97991.9
97993.6
97995.3
97997.2
97999.1
98001.1
98003.1
98005
98006.8
98008.6
98010.2
98011.7
98012.9
98014
98014.7
98015.2
98015.5
98015.4
98015
98014.2
98013.2
98011.8
98010
98008
98005.6
98002.9
98000
97996.7
97993.1
97989.3
97985.3
97981.1
97976.6
97972.1
97967.4
97962.5
97957.5
97952.4
97947
97941.5
97935.9
97930.1
97924.1
97917.8
97911.4
97904.8
97897.9
97890.7
97883.2
97875.3
97867
97858.4
97849.4
97839.9
97830.1
97819.7
97808.9
97797.6
97786
97773.9
97761.4
97748.6
97735.6
97722.6
97709.6
97697
97684.9
97673.4
97662.5
97652.7
97644.1
97636.7
97630.6
97625.9
97622.6
97620.7
97620.2
97620.9
97622.6
97625.3
97629.1
97633.7
97638.6
97643.2
97647.5
97651.4
97655
97657.6
97658.8
97658.5
97656.2
97652.6
97647.5
97641.2
97633.5
97625.2
97615.8
97606
97596.1
97587.4
97579.1
97572.4
97565.6
97561
97555.7
97553.8
97550
97551.7
97550
97554.9
98066.3
98066.3
98066.3
98066.7
98067.4
98068.7
98070.1
98071.9
98073.6
98075.5
98077.2
98078.9
98080.5
98081.9
98083
98084
98084.8
98085.4
98085.7
98085.8
98085.7
98085.4
98084.9
98084.2
98083.2
98082
98080.6
98079
98077.2
98075.2
98073
98070.6
98068.1
98065.4
98062.5
98059.5
98056.4
98053.2
98049.9
98046.5
98043
98039.5
98036
98032.4
98028.9
98025.4
98021.9
98018.5
98015.2
98012
98009
98006.1
98003.4
98000.8
97998.5
97996.4
97994.5
97992.9
97991.5
97990.4
97989.5
97988.8
97988.4
97988.3
97988.4
97988.8
97989.4
97990.2
97991.2
97992.3
97993.7
97995.1
97996.7
97998.3
97999.9
98001.5
98003.1
98004.7
98006.1
98007.5
98008.6
98009.6
98010.3
98010.8
98011
98011
98010.6
98009.8
98008.8
98007.4
98005.6
98003.5
98001.1
97998.3
97995.2
97991.8
97988
97984
97979.7
97975.1
97970.3
97965.3
97960.1
97954.7
97949.2
97943.5
97937.7
97931.7
97925.6
97919.3
97912.8
97906.2
97899.3
97892.3
97885
97877.6
97869.9
97862
97853.8
97845.3
97836.4
97827.1
97817.6
97807.7
97797.3
97786.5
97775.4
97763.8
97751.8
97739.3
97726.4
97713.2
97699.8
97686.4
97673
97660