/*--------------------------------*- C++ -*----------------------------------*\
| =========                 |                                                 |
| \\      /  F ield         | OpenFOAM: The Open Source CFD Toolbox           |
|  \\    /   O peration     | Version:  dev                                   |
|   \\  /    A nd           | Web:      http://www.openfoam.org               |
|    \\/     M anipulation  |                                                 |
\*---------------------------------------------------------------------------*/
FoamFile
{
    version     2.0;
    format      ascii;
    class       volScalarField;
    object      rho;
    location    "9.144";
}
// * * * * * * * * * * * * * * * * * * * * * * * * * * * * * * * * * * * * * //

dimensions      [1 -3 0 0 0 0 0];

internalField   nonuniform List<scalar> 
12225
(
1.14009
1.14323
1.14379
1.14392
1.1441
1.14402
1.1437
1.14365
1.14321
1.14274
1.14264
1.14182
1.1412
1.14185
1.13978
1.13984
1.14169
1.13344
1.14166
1.14751
1.14857
1.14994
1.15071
1.1522
1.15197
1.15271
1.15246
1.15117
1.15194
1.15023
1.14845
1.15073
1.14676
1.14641
1.14481
1.14089
1.14155
1.1474
1.14871
1.14985
1.15187
1.15263
1.15495
1.15407
1.1575
1.15424
1.15755
1.15571
1.15516
1.15577
1.15403
1.15494
1.14763
1.14774
1.1419
1.14586
1.14956
1.1481
1.15251
1.15014
1.15597
1.15156
1.15754
1.154
1.15803
1.15551
1.15738
1.15505
1.15964
1.15437
1.1513
1.15191
1.1429
1.14401
1.14972
1.14709
1.15145
1.14911
1.15498
1.15096
1.15568
1.15346
1.158
1.15474
1.15566
1.15604
1.16144
1.1551
1.15505
1.15814
1.14283
1.14381
1.14879
1.14616
1.15006
1.14825
1.15329
1.15194
1.15505
1.15075
1.15677
1.15562
1.15561
1.15382
1.1573
1.15711
1.15673
1.15749
1.14147
1.14322
1.1477
1.14478
1.14997
1.14743
1.15368
1.14974
1.15357
1.15119
1.15765
1.15339
1.15481
1.15276
1.15561
1.15588
1.15272
1.15409
1.14018
1.14171
1.14707
1.14294
1.15121
1.1458
1.15219
1.14598
1.1533
1.15026
1.15747
1.15189
1.15347
1.15063
1.15558
1.15449
1.15435
1.1538
1.13981
1.14023
1.14697
1.14152
1.15119
1.14462
1.15019
1.1446
1.15224
1.1505
1.15625
1.1504
1.15222
1.1503
1.15449
1.15291
1.15589
1.15396
1.13835
1.13853
1.14508
1.14014
1.14801
1.14319
1.14755
1.14291
1.15022
1.14813
1.15246
1.14795
1.14946
1.1483
1.15179
1.15193
1.15251
1.15215
1.13651
1.13699
1.14233
1.13869
1.14436
1.14123
1.14442
1.14177
1.14715
1.14533
1.14809
1.14479
1.14584
1.14607
1.14816
1.14833
1.14909
1.14887
1.13282
1.13525
1.13933
1.13637
1.14049
1.13822
1.1406
1.13906
1.14275
1.14158
1.14264
1.14121
1.14182
1.14222
1.1433
1.14397
1.14478
1.14471
1.12922
1.13264
1.13496
1.13316
1.13544
1.13407
1.13537
1.13493
1.13684
1.13629
1.13672
1.13619
1.13649
1.1372
1.13774
1.13837
1.13859
1.13875
1.12461
1.12886
1.12983
1.12869
1.12961
1.1289
1.12943
1.12943
1.13005
1.12993
1.13
1.12994
1.13
1.1305
1.13067
1.13118
1.13122
1.13147
1.1188
1.1237
1.12361
1.12292
1.12295
1.12264
1.12256
1.12246
1.12248
1.1224
1.12233
1.12239
1.12245
1.12255
1.12249
1.12275
1.12282
1.12303
1.11198
1.11703
1.11636
1.11564
1.11538
1.11507
1.11457
1.11421
1.11402
1.11383
1.11371
1.11369
1.11357
1.11346
1.11349
1.11365
1.11381
1.11423
1.10383
1.10904
1.10816
1.10736
1.10692
1.10634
1.10561
1.10532
1.10518
1.10495
1.10487
1.10478
1.10457
1.10449
1.10465
1.10489
1.10512
1.10553
1.09449
1.1002
1.09936
1.09864
1.09839
1.09796
1.09755
1.09758
1.09755
1.0973
1.09741
1.09763
1.09751
1.09746
1.098
1.09834
1.09868
1.09953
1.08562
1.09254
1.0921
1.09174
1.09168
1.09143
1.09158
1.09184
1.09198
1.09182
1.09249
1.09349
1.09335
1.09329
1.09438
1.09491
1.09555
1.09696
1.07899
1.08603
1.08601
1.08648
1.08668
1.08661
1.08723
1.08797
1.08838
1.08859
1.09022
1.09158
1.09123
1.09146
1.09289
1.09383
1.09495
1.09663
1.07353
1.08099
1.08141
1.08237
1.08296
1.08308
1.0842
1.08554
1.0859
1.08687
1.08941
1.09035
1.09009
1.09154
1.09289
1.09381
1.09574
1.09685
1.06931
1.07738
1.07791
1.07907
1.08046
1.08108
1.08208
1.08344
1.08439
1.08609
1.08856
1.08908
1.09004
1.09299
1.0939
1.09466
1.09687
1.09723
1.06557
1.07441
1.07522
1.07648
1.07821
1.07983
1.08099
1.08238
1.0843
1.08559
1.08645
1.08748
1.0905
1.09388
1.09508
1.09621
1.0976
1.09791
1.06358
1.07253
1.07353
1.07468
1.07628
1.07811
1.07996
1.08201
1.08433
1.08528
1.08543
1.08756
1.09096
1.09341
1.09536
1.097
1.09821
1.09949
1.06167
1.07079
1.07201
1.07374
1.07565
1.07728
1.0787
1.08059
1.08318
1.08502
1.08632
1.08856
1.09068
1.0921
1.09441
1.09631
1.09791
1.10032
1.06043
1.06979
1.07101
1.07253
1.07453
1.07656
1.07842
1.08003
1.08195
1.08428
1.08635
1.08819
1.09039
1.09244
1.09435
1.0965
1.09838
1.10036
1.05993
1.0689
1.07027
1.07196
1.07393
1.07596
1.07809
1.08018
1.08228
1.0843
1.08647
1.08869
1.09088
1.09305
1.09526
1.09737
1.0995
1.1016
1.05925
1.06851
1.07001
1.07179
1.07384
1.07596
1.07819
1.08047
1.08285
1.08516
1.08752
1.08973
1.09204
1.09424
1.09654
1.09869
1.10098
1.1031
1.05861
1.06827
1.06991
1.07168
1.07372
1.07585
1.07808
1.08033
1.08249
1.08458
1.08661
1.08854
1.09048
1.09233
1.0942
1.09589
1.09782
1.09928
1.05604
1.06419
1.06542
1.06681
1.06834
1.06979
1.07119
1.07254
1.07384
1.07519
1.07657
1.07798
1.07943
1.0809
1.08237
1.08387
1.08539
1.08684
1.11686
1.14565
1.14962
1.15094
1.1507
1.15053
1.14954
1.1484
1.14701
1.14548
1.14392
1.14236
1.14075
1.13928
1.13756
1.1358
1.1344
1.13252
1.13045
1.12898
1.12699
1.12528
1.12382
1.12169
1.12099
1.12004
1.11947
1.11915
1.11797
1.11844
1.11626
1.11723
1.1255
1.12318
1.11158
1.10779
1.11149
1.11623
1.12015
1.12352
1.12665
1.12936
1.13153
1.13292
1.13348
1.13302
1.13099
1.1268
1.1198
1.11171
1.10624
1.10453
1.10462
1.10528
1.10538
1.10408
1.1024
1.10105
1.09972
1.09821
1.09699
1.09661
1.09695
1.09771
1.09862
1.09949
1.10044
1.10135
1.10159
1.10111
1.10065
1.10221
1.10818
1.11217
1.10658
1.10255
1.10813
1.11317
1.11476
1.1168
1.1185
1.11948
1.12036
1.12097
1.12126
1.12134
1.12113
1.12069
1.12
1.11917
1.11825
1.11746
1.11679
1.11624
1.11529
1.11387
1.11236
1.11147
1.11068
1.1096
1.10821
1.108
1.10837
1.10622
1.10166
1.09633
1.09609
1.09952
1.09976
1.09645
1.09429
1.09952
1.10723
1.11794
1.12938
1.13094
1.13788
1.16842
1.18442
1.15951
1.13041
1.12868
1.13492
1.11669
1.08731
1.08062
1.08348
1.09125
1.09034
1.08154
1.07343
1.06844
1.06367
1.06465
1.0683
1.062
1.04949
1.03897
1.02882
0.996901
1.04325
1.03409
1.04091
1.03994
1.04135
1.04282
1.05248
1.05257
1.05111
1.05426
1.05313
1.05573
1.05645
1.05263
1.05064
1.04894
1.04573
1.04483
1.04553
1.04505
1.04685
1.05043
1.05109
1.05361
1.05503
1.05491
1.05441
1.05693
1.05418
1.05972
1.05712
1.05868
1.04539
1.03644
1.04397
1.0417
1.03154
1.02558
1.02711
1.03738
1.10905
1.1473
1.16218
1.16589
1.16556
1.16292
1.15905
1.15456
1.15042
1.14678
1.14383
1.14246
1.1409
1.13994
1.13992
1.1383
1.13878
1.14086
1.13796
1.13559
1.13836
1.13724
1.13452
1.13346
1.1314
1.13076
1.12849
1.12428
1.12174
1.12015
1.11514
1.1128
1.11796
1.11796
1.11389
1.11642
1.12571
1.1366
1.14102
1.13994
1.14235
1.14939
1.15714
1.16282
1.16463
1.16362
1.16007
1.15734
1.15968
1.16402
1.16183
1.15196
1.14586
1.15367
1.16691
1.16479
1.14859
1.13528
1.12403
1.10937
1.09865
1.10006
1.1112
1.1231
1.13009
1.13483
1.14499
1.15732
1.1495
1.12038
1.10603
1.11324
1.11951
1.12455
1.1302
1.13383
1.13718
1.13836
1.13844
1.13879
1.13853
1.13851
1.13879
1.13899
1.1391
1.13911
1.13876
1.13791
1.13638
1.13452
1.13255
1.13023
1.12841
1.12697
1.12576
1.12578
1.12608
1.12582
1.12501
1.12316
1.12069
1.1213
1.12405
1.12138
1.1072
1.09077
1.08696
1.10464
1.11753
1.11706
1.12125
1.1393
1.14826
1.15176
1.1769
1.20341
1.22207
1.26248
1.28038
1.2541
1.22681
1.24167
1.2516
1.19592
1.13119
1.1039
1.1247
1.14902
1.14697
1.13385
1.12371
1.11212
1.11389
1.1321
1.13645
1.11365
1.08306
1.0461
1.00536
0.970744
1.09246
1.0122
1.0541
1.07588
1.09466
1.10625
1.12554
1.13208
1.1286
1.13486
1.13876
1.14023
1.1433
1.1367
1.1223
1.11618
1.11121
1.10542
1.11125
1.11179
1.11488
1.12401
1.13236
1.14174
1.1619
1.17657
1.17848
1.19092
1.17976
1.20621
1.21714
1.21807
1.16962
1.14619
1.17026
1.14803
1.10628
1.08261
1.09508
1.1382
1.09809
1.1242
1.14387
1.15495
1.15481
1.14666
1.13733
1.1285
1.12184
1.11683
1.11178
1.11116
1.11202
1.10832
1.11003
1.11433
1.11317
1.11323
1.12015
1.1208
1.12068
1.12678
1.12339
1.12749
1.13275
1.12809
1.13669
1.1359
1.13263
1.13936
1.12969
1.13064
1.13583
1.12443
1.12338
1.12213
1.11288
1.11258
1.12449
1.13271
1.13699
1.14461
1.14999
1.15107
1.14881
1.14907
1.15061
1.14392
1.1333
1.13076
1.13655
1.14242
1.15433
1.16298
1.14327
1.11534
1.10872
1.11661
1.12617
1.13615
1.14703
1.15755
1.1687
1.17809
1.1787
1.16517
1.14532
1.12996
1.11964
1.11529
1.12143
1.13152
1.13612
1.13727
1.13577
1.13227
1.12934
1.12565
1.12253
1.12036
1.11884
1.11825
1.11799
1.11765
1.11747
1.11765
1.11769
1.11747
1.11695
1.11583
1.11515
1.1132
1.11128
1.10897
1.10878
1.10947
1.11431
1.11442
1.10979
1.10919
1.10753
1.10503
1.10588
1.10361
1.08977
1.0783
1.0682
1.07996
1.10742
1.11568
1.1217
1.13933
1.1501
1.1481
1.14221
1.15908
1.22792
1.28178
1.27381
1.24376
1.23795
1.26123
1.24085
1.1693
1.11915
1.12614
1.17034
1.16717
1.17756
1.16231
1.14588
1.13798
1.14101
1.1488
1.13217
1.10708
1.09935
1.04648
1.02797
1.07043
1.12785
1.02172
1.05994
1.06676
1.09403
1.10991
1.08943
1.11734
1.13681
1.13074
1.12749
1.10615
1.11012
1.14397
1.15279
1.13724
1.11952
1.08744
1.07736
1.08615
1.11124
1.10873
1.14829
1.16874
1.17021
1.18598
1.20606
1.24084
1.23619
1.27398
1.32498
1.32973
1.24515
1.22509
1.23829
1.17879
1.12415
1.11919
1.16474
1.22108
1.09518
1.11459
1.12844
1.13019
1.1214
1.11085
1.10421
1.09972
1.09689
1.09708
1.09592
1.09478
1.09886
1.09912
1.10038
1.10086
1.10138
1.10805
1.10601
1.10371
1.10991
1.10624
1.10693
1.11521
1.10881
1.11031
1.12445
1.11869
1.11681
1.12812
1.12847
1.12799
1.13017
1.13399
1.13103
1.13514
1.13009
1.11981
1.13283
1.13379
1.13058
1.13726
1.14342
1.15009
1.15649
1.15571
1.15407
1.14906
1.13995
1.14142
1.14887
1.13975
1.1214
1.11924
1.12948
1.13865
1.14736
1.15576
1.16351
1.17091
1.17934
1.18774
1.19021
1.18076
1.16138
1.14139
1.12872
1.12405
1.12511
1.12964
1.13524
1.13702
1.13368
1.12838
1.12311
1.11949
1.11712
1.11444
1.11264
1.11187
1.11215
1.1128
1.1136
1.11405
1.11397
1.11399
1.11347
1.11193
1.11067
1.10698
1.10614
1.10309
1.10432
1.09936
1.10429
1.09896
1.10108
1.10456
1.09793
1.09703
1.09641
1.09329
1.09257
1.09818
1.09519
1.09608
1.08973
1.08278
1.10193
1.1177
1.12677
1.12679
1.13911
1.16209
1.1414
1.10916
1.16204
1.24533
1.2827
1.26201
1.24572
1.24339
1.20821
1.15022
1.12161
1.14141
1.15778
1.18105
1.20944
1.17991
1.16722
1.15024
1.12632
1.10096
1.06754
1.0677
1.10779
1.07593
1.08481
1.0314
1.13215
1.0905
1.08846
1.07546
1.09496
1.07723
1.00874
1.02378
1.07888
1.11536
1.15066
1.08948
1.03988
1.05707
1.10117
1.13003
1.15225
1.11996
1.07769
1.05181
1.09533
1.06577
1.11346
1.16644
1.17676
1.17102
1.17976
1.21969
1.24064
1.29384
1.37817
1.37883
1.28154
1.27883
1.24487
1.17032
1.13731
1.16251
1.21204
1.24076
1.09342
1.10699
1.11098
1.10447
1.09758
1.09508
1.09707
1.10009
1.10037
1.10111
1.10378
1.10429
1.1079
1.10999
1.11251
1.1225
1.1243
1.12302
1.12874
1.12723
1.12766
1.12912
1.12382
1.12784
1.12777
1.12768
1.12961
1.12453
1.1291
1.13364
1.12621
1.12009
1.13153
1.12833
1.11896
1.14571
1.13317
1.1263
1.13032
1.12648
1.13435
1.13177
1.13466
1.14353
1.14852
1.14386
1.13711
1.13608
1.13512
1.12959
1.11856
1.11046
1.11376
1.12584
1.13792
1.14701
1.15494
1.16272
1.17036
1.17738
1.18357
1.18568
1.17863
1.16088
1.14058
1.12905
1.12784
1.13013
1.1324
1.13466
1.13432
1.12939
1.12345
1.11944
1.11631
1.11358
1.11114
1.10861
1.10705
1.10615
1.10581
1.10575
1.10636
1.10688
1.10709
1.10781
1.1096
1.1091
1.11232
1.10756
1.10939
1.10008
1.10677
1.09025
1.09889
1.09474
1.09087
1.09916
1.09797
1.095
1.09257
1.09371
1.08251
1.08505
1.09882
1.10885
1.10284
1.09068
1.09454
1.09977
1.10286
1.07044
1.05233
1.1162
1.14367
1.09764
1.11246
1.19986
1.25852
1.24301
1.22318
1.21374
1.17664
1.1293
1.11432
1.12834
1.14477
1.19941
1.21292
1.17307
1.17231
1.15845
1.11159
1.06997
1.05364
1.08083
1.10662
1.10091
1.14404
0.96964
1.11777
1.05701
1.03663
1.06588
1.10588
1.08303
1.05372
1.05154
1.04491
1.0275
1.09304
1.11719
1.09643
1.07153
1.0726
1.07981
1.13322
1.1492
1.11436
1.05115
1.09542
1.03804
1.06916
1.13861
1.17805
1.16183
1.16013
1.17684
1.20903
1.2774
1.3885
1.38833
1.29896
1.30673
1.23633
1.17365
1.16691
1.20411
1.23138
1.22577
1.09185
1.10009
1.10046
1.09609
1.09632
1.1014
1.10677
1.10806
1.10619
1.10256
1.10179
1.10469
1.1087
1.11414
1.12529
1.13301
1.13878
1.14946
1.15118
1.15103
1.1498
1.14849
1.15008
1.15326
1.15701
1.15635
1.15913
1.15069
1.1368
1.14233
1.14027
1.13573
1.14312
1.12757
1.13004
1.13023
1.11882
1.14577
1.13518
1.12675
1.12633
1.12868
1.13701
1.13543
1.1358
1.13412
1.12667
1.12301
1.11909
1.11291
1.10982
1.11422
1.12301
1.13034
1.13589
1.14189
1.14912
1.15594
1.16223
1.16929
1.1745
1.1725
1.16112
1.14446
1.13175
1.12863
1.13251
1.13655
1.13593
1.13143
1.12642
1.12192
1.11826
1.11579
1.11317
1.10991
1.10668
1.10433
1.10376
1.10417
1.1044
1.10402
1.10372
1.10231
1.09994
1.09559
1.09538
1.09073
1.09478
1.09131
1.09608
1.08478
1.09943
1.08106
1.08149
1.07428
1.06476
1.06618
1.07741
1.08289
1.07887
1.09102
1.09445
1.08959
1.09212
1.10152
1.09802
1.08914
1.09937
1.09915
1.09264
1.05458
1.00036
1.03132
1.08038
1.06175
1.07456
1.16141
1.23626
1.23602
1.21611
1.1942
1.15507
1.11462
1.09776
1.10663
1.12354
1.2006
1.22601
1.16221
1.14797
1.16664
1.14036
1.10149
1.08156
1.08835
1.12059
1.12724
1.10671
1.03818
1.0624
1.06555
1.01744
1.04869
1.07552
1.0496
1.08131
1.09746
1.10218
1.04471
1.03881
1.08494
1.10083
1.08935
1.07622
1.03572
1.08084
1.15045
1.12722
1.05221
1.10381
1.0262
1.03377
1.10055
1.1729
1.14721
1.15071
1.13192
1.16084
1.23924
1.36718
1.37792
1.3111
1.31772
1.2268
1.18403
1.19607
1.22559
1.22671
1.19565
1.09152
1.09551
1.09513
1.09572
1.10115
1.10753
1.10763
1.10118
1.09722
1.09693
1.0979
1.1026
1.11316
1.12357
1.13668
1.15501
1.16569
1.16788
1.17117
1.16782
1.16614
1.16669
1.16403
1.15943
1.14701
1.13835
1.13761
1.13662
1.13486
1.13023
1.13082
1.12875
1.12787
1.14255
1.14743
1.13157
1.13736
1.13524
1.12231
1.13092
1.12109
1.12945
1.14059
1.13903
1.13533
1.13051
1.12487
1.11886
1.11238
1.10915
1.11255
1.12014
1.12706
1.13224
1.13704
1.14149
1.14414
1.14533
1.14887
1.15636
1.16307
1.16379
1.15639
1.14456
1.13599
1.13393
1.13646
1.13907
1.13659
1.12929
1.12185
1.11713
1.11594
1.11525
1.11295
1.10953
1.10636
1.10474
1.1058
1.10864
1.11038
1.10993
1.10892
1.10721
1.10547
1.09696
1.09445
1.08745
1.08144
1.08322
1.07875
1.07504
1.08264
1.08203
1.08326
1.08683
1.07523
1.06526
1.05188
1.05657
1.04959
1.04704
1.05708
1.06748
1.07605
1.0782
1.07691
1.06424
1.06853
1.07298
1.07362
1.07104
1.02611
1.01844
1.06039
1.04979
1.05702
1.13596
1.21363
1.22185
1.20492
1.17935
1.13851
1.10123
1.08753
1.08821
1.09539
1.16307
1.23738
1.20461
1.1464
1.15781
1.15464
1.13081
1.06009
1.06195
1.10286
1.22635
0.996821
1.00166
1.04163
1.05671
1.02986
1.04415
1.02546
1.05093
1.11422
1.07642
1.08338
1.0507
1.03411
1.06206
1.09316
1.10399
1.09752
1.02161
1.04869
1.14789
1.10683
1.05017
1.11777
1.01071
1.00445
1.07033
1.17296
1.12906
1.14082
1.09618
1.10364
1.1913
1.34226
1.37382
1.32593
1.31877
1.21697
1.19098
1.21338
1.22344
1.2085
1.17393
1.09275
1.09474
1.09631
1.09992
1.10579
1.10849
1.1051
1.10194
1.10281
1.10353
1.10455
1.1071
1.11399
1.12739
1.14333
1.1547
1.16648
1.17144
1.17501
1.17631
1.17318
1.17123
1.16678
1.16233
1.15748
1.14844
1.1377
1.13673
1.14253
1.14424
1.14173
1.13243
1.1244
1.1241
1.12959
1.12798
1.1298
1.13347
1.13826
1.13052
1.12406
1.14144
1.14073
1.13362
1.12684
1.12112
1.11877
1.11688
1.1176
1.12176
1.12787
1.13143
1.13089
1.12937
1.13003
1.13471
1.14012
1.14258
1.14325
1.14514
1.14912
1.15172
1.14821
1.14019
1.13395
1.13246
1.13439
1.13526
1.13274
1.12709
1.12013
1.1158
1.11498
1.11443
1.11187
1.1075
1.10336
1.10152
1.10352
1.10785
1.10951
1.10461
1.09998
1.09495
1.0938
1.08692
1.08103
1.08397
1.06716
1.07438
1.05871
1.062
1.05263
1.06031
1.04784
1.06693
1.06658
1.07366
1.06756
1.07202
1.07806
1.07113
1.06584
1.05425
1.0553
1.06221
1.07912
1.08868
1.09146
1.08764
1.0867
1.08732
1.04201
1.00844
1.04669
1.04865
1.05196
1.11947
1.19177
1.20602
1.19545
1.16644
1.12445
1.08864
1.08583
1.08618
1.0887
1.11013
1.17914
1.19409
1.11351
1.09525
1.09614
1.12558
1.09068
1.0656
1.01744
1.0318
1.01467
1.0137
1.07156
1.00699
1.01196
1.0533
1.02681
1.10682
1.13947
1.07266
1.09547
1.04571
1.05578
1.10343
1.12844
1.14303
1.12042
1.02213
1.03853
1.14439
1.07048
1.05017
1.13103
1.00072
0.972941
1.04488
1.1694
1.11755
1.13437
1.08536
1.0669
1.1401
1.3006
1.36373
1.34248
1.32203
1.21089
1.18948
1.20425
1.20186
1.19698
1.15261
1.09508
1.09662
1.0993
1.1019
1.10538
1.10801
1.10803
1.10691
1.10501
1.09961
1.09633
1.09598
1.09952
1.10893
1.12168
1.13396
1.14569
1.15415
1.16175
1.16694
1.16942
1.17037
1.1709
1.17202
1.16685
1.1541
1.15325
1.1693
1.17731
1.15895
1.13363
1.12526
1.12934
1.13316
1.13624
1.13826
1.14719
1.14082
1.13472
1.12822
1.13439
1.14391
1.13644
1.12857
1.1208
1.11698
1.11551
1.11572
1.11973
1.12436
1.12802
1.1288
1.12772
1.12717
1.12865
1.13207
1.1347
1.13581
1.1378
1.14097
1.1448
1.14921
1.15123
1.1476
1.14156
1.13801
1.13692
1.13595
1.13294
1.12749
1.12148
1.1173
1.11481
1.11217
1.1081
1.10304
1.10023
1.10155
1.10671
1.11243
1.11518
1.10527
1.09791
1.09098
1.08782
1.08879
1.07774
1.08302
1.07396
1.06904
1.06302
1.06402
1.05454
1.06259
1.05275
1.04158
1.04844
1.04497
1.04031
1.03851
1.03469
1.03482
1.06017
1.07353
1.05644
1.04197
1.04782
1.05615
1.07073
1.06914
1.07652
1.11099
1.08655
1.02544
1.03115
1.03443
1.03584
1.09129
1.16449
1.18892
1.18856
1.1587
1.11305
1.08596
1.09118
1.09284
1.09209
1.08748
1.103
1.12345
1.06021
1.01866
1.02038
1.05975
1.1356
1.07873
1.03766
1.00316
1.03124
1.03952
1.0751
0.99807
0.999793
1.07872
1.0695
1.13014
1.0853
1.04087
1.08358
1.05836
1.07739
1.14546
1.12494
1.14087
1.11848
1.03277
1.04911
1.14475
1.04007
1.04655
1.13249
1.01655
0.95719
1.02498
1.15937
1.11293
1.1349
1.08933
1.05016
1.10822
1.26568
1.35163
1.35372
1.325
1.20704
1.1818
1.18573
1.19715
1.18739
1.14699
1.09788
1.09904
1.10123
1.10316
1.10768
1.11178
1.10975
1.10625
1.10362
1.1018
1.1027
1.10317
1.10694
1.11524
1.12589
1.1372
1.14835
1.15728
1.16663
1.1722
1.17453
1.17367
1.1704
1.1664
1.16191
1.15747
1.1583
1.15866
1.15187
1.13807
1.12835
1.12721
1.13009
1.13558
1.14018
1.14073
1.13664
1.13027
1.13376
1.13241
1.14094
1.14158
1.13484
1.1275
1.11877
1.11645
1.11527
1.11658
1.11892
1.12072
1.12134
1.1207
1.12054
1.12159
1.12435
1.12801
1.13143
1.13269
1.13163
1.13031
1.13103
1.13431
1.13743
1.13915
1.1395
1.13778
1.13596
1.13462
1.13159
1.12683
1.12149
1.11652
1.11245
1.10887
1.10461
1.10172
1.10327
1.11017
1.11682
1.11599
1.11564
1.10176
1.09545
1.09678
1.09548
1.10348
1.10765
1.09557
1.10525
1.08536
1.08163
1.07504
1.07088
1.05826
1.07326
1.05885
1.05572
1.05985
1.05311
1.05852
1.074
1.04857
1.02939
1.05675
1.06837
1.05282
1.05503
1.04829
1.05399
1.05983
1.04271
1.07373
1.09485
1.05617
1.03955
1.03635
1.02861
1.06446
1.13502
1.17258
1.17944
1.15673
1.10845
1.09097
1.08156
1.07573
1.07529
1.07947
1.0685
1.05792
1.02893
1.00775
1.0142
1.04669
1.11496
1.05655
0.999871
1.03395
1.02181
1.02202
1.01568
1.00207
1.00774
1.064
1.0359
1.03724
0.986909
1.02613
1.01776
1.07743
1.08678
1.11492
1.08931
1.09473
1.11629
1.06649
1.07355
1.14077
1.02926
1.0415
1.13536
1.05257
0.967806
1.01832
1.14992
1.10976
1.13191
1.0976
1.04597
1.08774
1.24473
1.34632
1.36676
1.3282
1.20514
1.17892
1.18614
1.20965
1.16214
1.16515
1.10094
1.10179
1.10464
1.10858
1.11207
1.11255
1.1114
1.11492
1.11406
1.11247
1.11185
1.10954
1.11286
1.11759
1.12606
1.1359
1.1484
1.16299
1.17697
1.18428
1.18682
1.18673
1.18682
1.1846
1.17644
1.16564
1.1591
1.15454
1.14181
1.12479
1.12154
1.12771
1.13159
1.13428
1.13431
1.13341
1.13396
1.13767
1.13815
1.14356
1.15308
1.14605
1.1362
1.12618
1.11983
1.11892
1.11838
1.12067
1.12216
1.12565
1.12757
1.12927
1.13089
1.13081
1.13189
1.13388
1.1376
1.14108
1.14343
1.14426
1.14259
1.14043
1.13938
1.13885
1.13884
1.1384
1.13661
1.13397
1.13018
1.1253
1.11982
1.11528
1.1122
1.10971
1.10692
1.10615
1.11091
1.12111
1.12316
1.1079
1.0992
1.08997
1.09047
1.1026
1.11213
1.10729
1.12642
1.11763
1.11884
1.11441
1.10198
1.09243
1.08816
1.07007
1.06085
1.06839
1.05712
1.0487
1.06036
1.03705
1.04085
1.06395
1.05031
1.04504
1.05359
1.03971
1.04947
1.04862
1.02861
1.03515
1.02821
1.05929
1.0896
1.0608
1.0433
1.03336
1.02394
1.04641
1.11585
1.16125
1.17251
1.15811
1.11279
1.09646
1.06965
1.05317
1.04579
1.05983
1.06657
1.03235
1.01565
1.00018
0.988936
1.0342
1.07549
1.05256
1.04758
1.02147
1.06215
1.0656
0.99388
0.99653
1.01012
0.991534
0.955996
0.956978
0.964063
1.07418
1.04059
1.13715
1.10649
1.08581
1.11356
1.08513
1.14881
1.131
1.11799
1.13754
1.03402
1.04274
1.1366
1.07448
0.987015
1.02365
1.13768
1.10417
1.13027
1.09647
1.04252
1.07107
1.21659
1.32897
1.37231
1.32886
1.20799
1.19056
1.20484
1.2112
1.13365
1.16103
1.10429
1.10562
1.11129
1.11654
1.11671
1.11515
1.11702
1.11661
1.1037
1.09749
1.09378
1.08974
1.09379
1.10001
1.11094
1.12549
1.14175
1.15889
1.17721
1.19286
1.19971
1.19252
1.178
1.16212
1.15138
1.14539
1.14008
1.13475
1.12635
1.12214
1.132
1.14274
1.14587
1.14739
1.14876
1.15171
1.15434
1.15343
1.15561
1.16282
1.15773
1.14399
1.13434
1.12603
1.12377
1.12264
1.12461
1.1282
1.12941
1.13254
1.13296
1.13449
1.13465
1.13268
1.13226
1.13108
1.13045
1.13027
1.13086
1.13275
1.13626
1.13976
1.14089
1.14113
1.14128
1.14127
1.14166
1.14152
1.13899
1.13431
1.12965
1.1255
1.12202
1.11814
1.11496
1.11472
1.11931
1.1305
1.12509
1.099
1.08652
1.09658
1.11232
1.11883
1.13285
1.12634
1.12066
1.13194
1.11927
1.12123
1.11044
1.09921
1.08802
1.08931
1.07989
1.0711
1.08049
1.04753
1.06186
1.06974
1.04568
1.04638
1.04826
1.04754
1.0537
1.03949
1.03859
1.05833
1.03774
1.02168
1.00734
1.0347
1.07796
1.06736
1.06146
1.04814
1.03371
1.03613
1.10331
1.15022
1.16574
1.15672
1.12304
1.09575
1.05653
1.02751
1.02424
1.04052
1.06853
1.03831
1.00769
0.996003
0.981231
1.03776
1.05609
1.02898
1.03393
1.04766
1.05096
1.02647
0.984319
0.981476
1.00351
0.974522
0.968432
0.996414
1.0594
1.1554
1.14319
1.21685
1.16803
1.14325
1.1822
1.14842
1.23199
1.20307
1.15513
1.12837
1.0476
1.05429
1.14052
1.08222
1.00459
1.03411
1.12694
1.0932
1.12422
1.09734
1.03547
1.06786
1.20587
1.32004
1.37706
1.32577
1.20907
1.21022
1.2255
1.19807
1.12272
1.13501
1.10815
1.1108
1.11753
1.1193
1.11743
1.1164
1.11878
1.11613
1.10755
1.10679
1.10517
1.10261
1.10176
1.10234
1.10707
1.11529
1.1278
1.14389
1.1595
1.17223
1.18096
1.1822
1.17327
1.15695
1.14234
1.13597
1.13286
1.13194
1.13439
1.14065
1.15071
1.15582
1.15806
1.1601
1.16139
1.16151
1.16199
1.16547
1.17174
1.16908
1.15615
1.14165
1.12891
1.12409
1.12716
1.12832
1.13099
1.13116
1.13015
1.13312
1.13408
1.135
1.13553
1.13547
1.13668
1.13753
1.13795
1.13611
1.13264
1.12975
1.12677
1.12551
1.127
1.12988
1.13308
1.13508
1.13651
1.1369
1.13572
1.13362
1.13022
1.12561
1.12124
1.1188
1.11833
1.12572
1.12999
1.13491
1.12097
1.09679
1.08826
1.10858
1.13155
1.13093
1.11804
1.11511
1.10005
1.10558
1.10748
1.1058
1.10354
1.09432
1.07896
1.06253
1.06718
1.05386
1.06583
1.05955
1.0495
1.06341
1.05502
1.05097
1.04396
1.03445
1.04541
1.04679
1.0286
1.05134
1.06119
1.03806
0.999224
1.01718
1.07477
1.07089
1.05787
1.04725
1.03991
1.03185
1.10105
1.1415
1.16467
1.1539
1.12731
1.08736
1.0436
1.0061
1.00043
1.02186
1.06095
1.05413
1.00319
0.997036
0.981673
1.03939
1.05816
1.03987
1.06654
1.03319
1.02589
0.981004
0.992513
0.993459
1.05369
1.0234
1.06516
1.11123
1.147
1.17414
1.16973
1.2011
1.21454
1.19535
1.19217
1.20961
1.2877
1.23031
1.16181
1.11736
1.06652
1.07478
1.14581
1.08147
1.02177
1.05108
1.11272
1.08021
1.11617
1.10262
1.02863
1.06505
1.20226
1.31492
1.37888
1.32012
1.20951
1.21988
1.22724
1.17471
1.12501
1.1166
1.11207
1.11474
1.1188
1.12022
1.12193
1.12384
1.12976
1.12881
1.12797
1.13365
1.13039
1.12391
1.11833
1.11397
1.11345
1.11724
1.12771
1.14284
1.15814
1.17254
1.18254
1.18556
1.18069
1.17161
1.16017
1.15243
1.14947
1.15142
1.15693
1.16338
1.16873
1.16894
1.16682
1.1639
1.15971
1.15653
1.15769
1.16438
1.16648
1.15651
1.14921
1.14416
1.13278
1.12617
1.12885
1.13454
1.13803
1.1343
1.13267
1.13599
1.13545
1.13417
1.13288
1.13022
1.1298
1.13118
1.13217
1.13309
1.13581
1.1397
1.14061
1.13712
1.13349
1.13137
1.13026
1.13033
1.13084
1.13127
1.13084
1.12929
1.12715
1.12762
1.13059
1.13487
1.13754
1.14252
1.14
1.12434
1.10154
1.09435
1.10572
1.12198
1.12583
1.13073
1.11817
1.10729
1.09904
1.09391
1.10158
1.1005
1.10272
1.09785
1.09578
1.08368
1.07365
1.06161
1.0594
1.05848
1.04092
1.05371
1.05
1.05017
1.06349
1.04587
1.03475
1.04653
1.03116
1.02793
1.06377
1.06039
1.0018
0.997396
1.06655
1.07438
1.04626
1.03672
1.03185
1.02356
1.09755
1.13578
1.16113
1.15717
1.12705
1.07861
1.03754
1.00097
0.986448
0.999527
1.03758
1.04802
1.00211
1.00453
0.974293
1.02991
1.05536
1.0608
1.05226
1.00955
1.00436
0.987777
1.03332
1.05512
1.11295
1.09057
1.13704
1.15752
1.1834
1.19065
1.17836
1.16816
1.21686
1.20334
1.15972
1.21227
1.25983
1.21601
1.1685
1.13115
1.09913
1.11094
1.15745
1.07822
1.03807
1.06671
1.09509
1.07209
1.11643
1.11088
1.02425
1.06225
1.20093
1.30879
1.37924
1.31701
1.21309
1.22466
1.21534
1.16037
1.13634
1.11238
1.11582
1.11793
1.12141
1.1253
1.12799
1.12715
1.12712
1.12813
1.13016
1.12912
1.12854
1.13166
1.13264
1.12956
1.12443
1.12041
1.11955
1.12401
1.13662
1.15218
1.16668
1.17917
1.18535
1.18539
1.18082
1.17452
1.1704
1.16998
1.17206
1.17472
1.17633
1.17338
1.16812
1.16224
1.15945
1.16116
1.16265
1.15995
1.15318
1.14183
1.13476
1.13582
1.13746
1.13293
1.13017
1.1381
1.14671
1.14392
1.13955
1.1395
1.13614
1.13194
1.12856
1.12471
1.12142
1.11629
1.11166
1.10956
1.10962
1.11252
1.12137
1.13091
1.13379
1.13315
1.13232
1.13224
1.13271
1.13272
1.13429
1.13646
1.14199
1.14511
1.14581
1.14276
1.14885
1.14363
1.12813
1.10332
1.08424
1.08763
1.10677
1.11302
1.10981
1.11775
1.12504
1.12887
1.12116
1.11355
1.11634
1.11516
1.11397
1.10896
1.09657
1.08163
1.08329
1.06769
1.05795
1.07068
1.04984
1.0569
1.06239
1.03904
1.04436
1.04793
1.03894
1.05444
1.05199
1.01634
1.03675
1.07279
1.03298
1.00024
1.04767
1.06119
1.03462
1.04153
1.03739
1.03102
1.09193
1.14058
1.14905
1.16287
1.13241
1.08101
1.04583
1.01271
0.986832
0.988416
1.01596
1.02857
0.999828
1.01033
0.974562
1.05042
1.05824
1.08076
1.06564
0.989564
0.962102
1.00938
1.07776
1.13017
1.15403
1.14991
1.18644
1.20573
1.23437
1.22046
1.20657
1.17743
1.24605
1.23611
1.18757
1.25305
1.22428
1.2
1.19348
1.16012
1.13672
1.15042
1.15736
1.06959
1.05371
1.07506
1.08518
1.07269
1.13033
1.1433
1.02792
1.0623
1.20851
1.30803
1.38013
1.31128
1.2118
1.22742
1.20299
1.15891
1.1399
1.11281
1.11972
1.12215
1.1258
1.12865
1.12839
1.12969
1.12545
1.12491
1.12602
1.12882
1.13815
1.1403
1.14008
1.14021
1.1363
1.13185
1.12744
1.12389
1.12387
1.12887
1.14043
1.15507
1.16892
1.17973
1.18562
1.18672
1.18539
1.18349
1.18118
1.17858
1.17631
1.16964
1.16092
1.14955
1.14421
1.15116
1.16245
1.16279
1.15354
1.14677
1.1381
1.13029
1.1354
1.13802
1.13463
1.13814
1.14722
1.14911
1.14565
1.14277
1.13758
1.13273
1.12911
1.12697
1.12589
1.12351
1.11968
1.11381
1.10802
1.10551
1.10503
1.10682
1.1127
1.12194
1.12793
1.12946
1.13289
1.13845
1.14161
1.14407
1.14279
1.13773
1.13743
1.13041
1.12501
1.11658
1.10419
1.09614
1.09775
1.10782
1.10514
1.08923
1.09563
1.11946
1.13889
1.14019
1.12861
1.11574
1.1143
1.11831
1.118
1.10758
1.11522
1.09226
1.08631
1.0853
1.05862
1.07272
1.05457
1.04419
1.06208
1.06009
1.06247
1.05468
1.03334
1.04028
1.05657
1.03282
1.02802
1.07053
1.04488
1.0005
1.04015
1.06393
1.03702
1.03972
1.03263
1.03892
1.07973
1.14818
1.14013
1.15816
1.14281
1.09202
1.06459
1.03077
0.998637
0.989808
0.998534
1.01464
0.990972
1.01471
0.987578
1.04184
1.04948
1.08271
1.06124
0.931621
1.01085
1.08799
1.13511
1.15684
1.21823
1.21851
1.24059
1.25622
1.20594
1.20131
1.19308
1.16256
1.27121
1.2012
1.20778
1.28721
1.17014
1.1932
1.22111
1.18085
1.17019
1.17688
1.14143
1.0678
1.0714
1.07862
1.07997
1.06653
1.14671
1.18173
1.03524
1.05194
1.20634
1.30459
1.37939
1.3026
1.20758
1.22619
1.1928
1.16711
1.13723
1.11842
1.12418
1.12884
1.13212
1.13519
1.1332
1.13607
1.13477
1.13441
1.13579
1.13568
1.14224
1.1472
1.15157
1.15499
1.15617
1.15481
1.15114
1.14663
1.13983
1.13326
1.12947
1.12971
1.13599
1.14715
1.16027
1.17249
1.18234
1.1882
1.19041
1.18863
1.18358
1.17611
1.16582
1.15237
1.14192
1.14248
1.15283
1.15832
1.15242
1.15116
1.15078
1.14229
1.14394
1.14906
1.14768
1.14499
1.14718
1.14905
1.14632
1.14276
1.13911
1.13552
1.13406
1.13695
1.14074
1.14251
1.14085
1.13949
1.13613
1.12894
1.12069
1.11396
1.11416
1.11657
1.12007
1.12715
1.12996
1.13026
1.1283
1.12637
1.11881
1.11695
1.11225
1.10517
1.10133
1.10797
1.10739
1.10299
1.09647
1.10716
1.09821
1.07927
1.10092
1.12868
1.1492
1.14036
1.11502
1.10544
1.09617
1.1017
1.10563
1.09452
1.08431
1.08022
1.06671
1.08106
1.05747
1.07153
1.07307
1.06716
1.06145
1.0372
1.04635
1.05909
1.04637
1.049
1.05451
1.03804
1.02741
1.07083
1.05484
0.993506
1.03678
1.06792
1.04425
1.03843
1.0299
1.04104
1.06894
1.14599
1.14621
1.14889
1.1449
1.10137
1.08424
1.05272
1.01424
0.998222
0.990954
0.995752
0.993876
1.00624
0.990499
1.0506
1.04861
1.09329
1.09291
0.943147
1.07668
1.1428
1.1725
1.17474
1.29182
1.29603
1.27377
1.22683
1.12336
1.15115
1.14564
1.12534
1.25679
1.13715
1.22417
1.27674
1.11034
1.18693
1.22906
1.1896
1.19221
1.18005
1.11987
1.07246
1.08551
1.08281
1.07881
1.04393
1.14491
1.20599
1.05265
1.0439
1.20032
1.30048
1.37929
1.2963
1.20509
1.21524
1.18073
1.17294
1.12884
1.12358
1.12967
1.13719
1.13922
1.13962
1.13918
1.13984
1.14006
1.13984
1.14038
1.14046
1.14779
1.1518
1.15598
1.15781
1.15634
1.15687
1.15762
1.15941
1.16096
1.16195
1.16067
1.15529
1.14673
1.1386
1.13514
1.13832
1.14772
1.16011
1.1733
1.18331
1.18887
1.18881
1.18337
1.17094
1.15886
1.15295
1.15736
1.16313
1.15827
1.15335
1.15394
1.14819
1.14628
1.15015
1.1544
1.15518
1.15403
1.15288
1.14911
1.14482
1.14275
1.14164
1.14161
1.1444
1.14839
1.15191
1.15403
1.15556
1.15584
1.15074
1.14063
1.13244
1.12468
1.12044
1.12141
1.12059
1.12235
1.12006
1.11306
1.10909
1.10767
1.10717
1.10226
1.10872
1.11553
1.12142
1.10663
1.10359
1.11106
1.10635
1.09726
1.08801
1.11137