/*--------------------------------*- C++ -*----------------------------------*\
| =========                 |                                                 |
| \\      /  F ield         | OpenFOAM: The Open Source CFD Toolbox           |
|  \\    /   O peration     | Version:  dev                                   |
|   \\  /    A nd           | Web:      http://www.openfoam.org               |
|    \\/     M anipulation  |                                                 |
\*---------------------------------------------------------------------------*/
FoamFile
{
    version     2.0;
    format      ascii;
    class       volScalarField;
    object      rho_0;
    location    "9.144";
}
// * * * * * * * * * * * * * * * * * * * * * * * * * * * * * * * * * * * * * //

dimensions      [1 -3 0 0 0 0 0];

internalField   nonuniform List<scalar> 
12225
(
1.14049
1.14479
1.14564
1.14606
1.14666
1.14698
1.14719
1.14766
1.14779
1.14786
1.1484
1.14819
1.14806
1.14931
1.1479
1.14802
1.1504
1.14295
1.1429
1.1498
1.15095
1.15265
1.1538
1.15579
1.15606
1.1574
1.15779
1.15701
1.1585
1.15745
1.15611
1.15886
1.15586
1.1553
1.15428
1.15223
1.14273
1.14949
1.15096
1.15239
1.15484
1.156
1.15892
1.15852
1.16268
1.15992
1.16392
1.16282
1.16283
1.16385
1.16296
1.16442
1.15763
1.15968
1.143
1.14781
1.15174
1.15051
1.15538
1.15338
1.15982
1.15586
1.16251
1.15955
1.16419
1.16246
1.16475
1.16288
1.16858
1.16365
1.16131
1.16386
1.14386
1.14583
1.15176
1.14937
1.15413
1.15225
1.15863
1.15518
1.16051
1.1588
1.164
1.16149
1.16274
1.16368
1.16983
1.1642
1.16467
1.16866
1.14359
1.14543
1.15058
1.14823
1.15257
1.15119
1.15679
1.15594
1.15964
1.15587
1.16267
1.1621
1.16268
1.16136
1.16504
1.16581
1.16561
1.16657
1.142
1.14452
1.1492
1.14655
1.15232
1.15005
1.15691
1.15333
1.15788
1.15607
1.16335
1.15955
1.16159
1.16005
1.16343
1.16421
1.16135
1.16287
1.14044
1.14265
1.14826
1.14438
1.15327
1.14806
1.15497
1.14924
1.15733
1.15482
1.16276
1.15772
1.15997
1.1576
1.16316
1.16237
1.16315
1.16274
1.13975
1.14081
1.14778
1.1426
1.15273
1.14654
1.15257
1.14757
1.15585
1.15471
1.16106
1.15587
1.15835
1.15695
1.16155
1.16043
1.16393
1.16252
1.13769
1.13864
1.14535
1.14079
1.14895
1.14466
1.14947
1.14547
1.15328
1.15182
1.15672
1.15291
1.15507
1.15446
1.15829
1.15899
1.15981
1.15995
1.13517
1.13647
1.14197
1.13871
1.14469
1.14209
1.14573
1.14375
1.14956
1.14842
1.15168
1.14922
1.1509
1.15163
1.15412
1.15468
1.15589
1.15604
1.1307
1.13395
1.1381
1.13555
1.14004
1.13826
1.14112
1.14023
1.14437
1.14392
1.14539
1.14485
1.14615
1.14697
1.1485
1.1496
1.15081
1.15113
1.12626
1.13026
1.13261
1.13127
1.13388
1.13308
1.13487
1.13509
1.13748
1.13765
1.13855
1.13879
1.13975
1.14096
1.14199
1.14305
1.14366
1.14421
1.12042
1.12514
1.12617
1.12546
1.12677
1.12662
1.1277
1.12833
1.12949
1.13005
1.13067
1.13131
1.13199
1.13304
1.13371
1.13469
1.13517
1.1358
1.11316
1.11832
1.11832
1.11805
1.11853
1.11878
1.11926
1.11979
1.12042
1.12099
1.12156
1.12227
1.12295
1.12362
1.12411
1.12486
1.12539
1.12601
1.10455
1.10964
1.1091
1.1088
1.10905
1.10928
1.10937
1.10965
1.11014
1.11062
1.11118
1.11181
1.11232
1.11281
1.11342
1.11411
1.11475
1.11561
1.09424
1.09931
1.09861
1.09826
1.09835
1.09836
1.09827
1.09866
1.09921
1.09968
1.10031
1.10091
1.10135
1.1019
1.10266
1.10345
1.10418
1.10507
1.08286
1.0882
1.08752
1.08727
1.08758
1.08776
1.08804
1.08878
1.08946
1.08993
1.09077
1.09171
1.09227
1.09286
1.09403
1.09494
1.09582
1.09717
1.0725
1.0787
1.07836
1.07847
1.07896
1.07933
1.08019
1.08117
1.08205
1.08264
1.08407
1.08579
1.08633
1.08694
1.08868
1.0898
1.09101
1.09293
1.06455
1.07068
1.07078
1.07171
1.07247
1.07304
1.07437
1.07584
1.07699
1.07798
1.08039
1.08245
1.08278
1.08372
1.08579
1.08733
1.08904
1.09122
1.05778
1.06444
1.06504
1.06646
1.06761
1.06839
1.0702
1.07227
1.07338
1.07514
1.07842
1.08005
1.08053
1.08271
1.08468
1.0862
1.08872
1.09033
1.0528
1.05999
1.06068
1.06231
1.06425
1.06554
1.06723
1.0693
1.07103
1.07349
1.07664
1.07789
1.07964
1.08329
1.08482
1.0862
1.08897
1.08985
1.04872
1.05647
1.05739
1.0591
1.06138
1.06363
1.06548
1.06761
1.07029
1.07231
1.07386
1.07566
1.07943
1.08345
1.08531
1.08708
1.08903
1.0899
1.04648
1.05416
1.05525
1.05685
1.05901
1.06145
1.06398
1.06675
1.06981
1.07149
1.07242
1.07532
1.07938
1.08246
1.08507
1.08733
1.08913
1.09101
1.04425
1.05212
1.05343
1.05561
1.05805
1.06029
1.06239
1.065
1.06831
1.0709
1.07298
1.07594
1.07872
1.08081
1.08377
1.0863
1.0885
1.09147
1.04283
1.0509
1.05221
1.05416
1.0567
1.05935
1.06189
1.06421
1.06687
1.06994
1.07275
1.0753
1.07821
1.08094
1.0835
1.08627
1.08875
1.09127
1.04209
1.04986
1.05133
1.05345
1.05596
1.0586
1.06141
1.06421
1.06705
1.0698
1.0727
1.07565
1.07854
1.08138
1.08424
1.08697
1.08969
1.09235
1.04131
1.04938
1.05098
1.05319
1.05578
1.05851
1.0614
1.06439
1.06748
1.07053
1.07362
1.07656
1.07956
1.08243
1.08538
1.08814
1.09101
1.09369
1.04068
1.04915
1.05087
1.05306
1.05561
1.05834
1.06123
1.0642
1.06707
1.0699
1.07266
1.07531
1.07796
1.08048
1.083
1.0853
1.08783
1.08983
1.03827
1.04566
1.04702
1.04878
1.0508
1.05284
1.05492
1.05698
1.059
1.06109
1.06319
1.06532
1.06744
1.06957
1.07167
1.07377
1.07586
1.07779
1.12501
1.15395
1.1579
1.15922
1.15896
1.15876
1.15773
1.15657
1.15515
1.1536
1.15201
1.15042
1.14878
1.14728
1.14551
1.14375
1.14232
1.14036
1.1383
1.13682
1.13479
1.1331
1.13161
1.12952
1.12891
1.12796
1.12743
1.12706
1.12592
1.12633
1.12417
1.12583
1.13396
1.13035
1.11862
1.1158
1.12006
1.12487
1.12877
1.13214
1.1353
1.13802
1.14016
1.14149
1.14195
1.14129
1.13898
1.13436
1.127
1.11904
1.11411
1.11281
1.11302
1.11361
1.11344
1.11183
1.11
1.10853
1.10699
1.10524
1.10386
1.10333
1.10346
1.10393
1.10446
1.1049
1.10538
1.10574
1.10534
1.10421
1.10329
1.10473
1.11026
1.11313
1.10662
1.10215
1.10715
1.11153
1.11241
1.1138
1.11492
1.11534
1.11571
1.11585
1.11571
1.11542
1.11488
1.11417
1.11325
1.11225
1.11121
1.11035
1.10966
1.10913
1.10824
1.1069
1.10547
1.10467
1.10399
1.103
1.10169
1.10149
1.10187
1.09972
1.09513
1.0897
1.08926
1.09233
1.09227
1.08862
1.08607
1.09085
1.09812
1.10845
1.11926
1.12019
1.12697
1.15701
1.17184
1.14636
1.11774
1.11635
1.12202
1.10354
1.07509
1.06956
1.07285
1.08076
1.08007
1.07174
1.0643
1.05995
1.05577
1.05739
1.06167
1.05595
1.04421
1.0347
1.02517
0.995505
1.04246
1.03256
1.03991
1.03919
1.04086
1.04274
1.05222
1.05152
1.04977
1.05231
1.05051
1.05243
1.052
1.04724
1.04453
1.04206
1.03823
1.03691
1.03713
1.03625
1.03781
1.04104
1.04147
1.04363
1.04474
1.04424
1.04356
1.04586
1.04304
1.0488
1.04651
1.04863
1.03621
1.0277
1.03592
1.03514
1.02639
1.02128
1.02317
1.0338
1.11717
1.15563
1.17054
1.17423
1.17384
1.17114
1.1672
1.16268
1.15853
1.1549
1.15201
1.15065
1.14905
1.14817
1.14807
1.14639
1.14711
1.14892
1.14561
1.14369
1.14655
1.14491
1.14217
1.14119
1.13917
1.13847
1.13591
1.13168
1.12937
1.12762
1.12251
1.12104
1.12637
1.12554
1.12179
1.1254
1.13522
1.14576
1.14939
1.14824
1.15131
1.15882
1.16656
1.17188
1.17323
1.17184
1.16816
1.16599
1.16901
1.17294
1.16938
1.15918
1.15484
1.16446
1.17649
1.17109
1.15356
1.14057
1.12897
1.11427
1.10506
1.10836
1.12014
1.1313
1.13725
1.14156
1.15137
1.16182
1.15139
1.12176
1.10831
1.11553
1.12104
1.12524
1.1302
1.13309
1.13565
1.13617
1.13562
1.13535
1.13453
1.13397
1.13374
1.13348
1.13317
1.13281
1.13215
1.13104
1.12931
1.1273
1.12523
1.12284
1.12099
1.11958
1.1184
1.11848
1.11884
1.11871
1.11807
1.11635
1.11393
1.11456
1.11735
1.11477
1.10069
1.08415
1.08023
1.09763
1.10992
1.10898
1.11292
1.13048
1.13877
1.14211
1.16723
1.19302
1.21068
1.25015
1.26676
1.23994
1.21321
1.22833
1.23685
1.18068
1.11753
1.0921
1.11355
1.13794
1.13574
1.12328
1.11383
1.1029
1.10528
1.12402
1.129
1.10681
1.07706
1.04071
1.00012
0.966946
1.09193
1.00865
1.05451
1.07601
1.09455
1.10623
1.12523
1.13045
1.12637
1.1323
1.13535
1.13598
1.1378
1.12954
1.11425
1.10773
1.10221
1.09626
1.10183
1.10183
1.10451
1.11337
1.12119
1.13017
1.14988
1.1639
1.16537
1.17732
1.16594
1.19246
1.20372
1.2056
1.15855
1.1349
1.15981
1.14039
1.10037
1.07684
1.08878
1.1315
1.1062
1.13236
1.15216
1.16321
1.1629
1.15463
1.14526
1.13644
1.12981
1.12477
1.11985
1.11951
1.12009
1.11641
1.11867
1.1227
1.12118
1.12192
1.12886
1.12885
1.12923
1.13497
1.13139
1.1364
1.14066
1.13641
1.14553
1.14336
1.14095
1.14711
1.13688
1.13942
1.14326
1.13135
1.13134
1.12936
1.12007
1.12146
1.13422
1.14181
1.14608
1.15392
1.15878
1.15925
1.15699
1.15761
1.15845
1.15057
1.14039
1.13944
1.14608
1.15255
1.16453
1.16972
1.14638
1.12008
1.11692
1.12606
1.13563
1.14561
1.15641
1.16667
1.17724
1.18531
1.18398
1.16883
1.14826
1.1326
1.12222
1.1181
1.12404
1.1333
1.13707
1.13741
1.13514
1.13095
1.12738
1.12314
1.11944
1.11672
1.11464
1.11352
1.11277
1.112
1.11141
1.11122
1.11096
1.1105
1.10979
1.10856
1.10778
1.10582
1.10388
1.10163
1.10141
1.10219
1.10714
1.10745
1.10305
1.10255
1.10099
1.0986
1.09949
1.09717
1.08325
1.07149
1.0612
1.07312
1.10024
1.1079
1.11358
1.13111
1.14121
1.13822
1.13289
1.15169
1.21989
1.27075
1.26061
1.23046
1.22544
1.24855
1.22706
1.15583
1.10717
1.11499
1.15913
1.15562
1.16621
1.15152
1.13584
1.12867
1.1323
1.14099
1.12548
1.10066
1.09312
1.0407
1.02152
1.06635
1.12302
1.01593
1.05892
1.06624
1.09418
1.10809
1.08827
1.11793
1.13498
1.12696
1.12225
1.10049
1.10613
1.13927
1.14502
1.12759
1.10881
1.0767
1.06758
1.07731
1.1012
1.09904
1.13811
1.15687
1.1577
1.1734
1.19312
1.22712
1.22189
1.25911
1.30981
1.31611
1.23331
1.21286
1.22831
1.17218
1.11791
1.11184
1.1568
1.21391
1.10342
1.12274
1.13655
1.13815
1.12925
1.11872
1.11215
1.10768
1.10497
1.10519
1.10389
1.10303
1.1072
1.10723
1.10852
1.10888
1.10994
1.11642
1.11357
1.1121
1.11815
1.11394
1.11591
1.12337
1.11629
1.12012
1.13324
1.12567
1.12597
1.13737
1.1363
1.13604
1.13881
1.14211
1.13903
1.14352
1.13684
1.12826
1.14222
1.14155
1.13903
1.14656
1.15276
1.15955
1.16532
1.16376
1.16169
1.15593
1.1475
1.15039
1.15654
1.14504
1.12738
1.12757
1.13874
1.148
1.1567
1.16486
1.17232
1.17943
1.1875
1.19514
1.19623
1.18516
1.16466
1.14445
1.13202
1.12742
1.12826
1.13233
1.1371
1.13788
1.13374
1.12777
1.12186
1.11764
1.11472
1.11153
1.10914
1.10779
1.10752
1.10766
1.10799
1.108
1.10754
1.1072
1.10637
1.1046
1.10311
1.09934
1.09838
1.0954
1.09655
1.09183
1.09673
1.09162
1.09391
1.09749
1.09104
1.09028
1.08983
1.08677
1.0863
1.09186
1.08847
1.0889
1.08228
1.07565
1.09505
1.11058
1.11934
1.12027
1.13349
1.15381
1.13113
1.10146
1.15689
1.23802
1.27152
1.24942
1.23383
1.23161
1.19594
1.13834
1.11055
1.13065
1.14749
1.16972
1.1982
1.1692
1.15707
1.14072
1.11776
1.09375
1.06116
1.06155
1.10182
1.07007
1.07484
1.03444
1.12931
1.08614
1.08638
1.07371
1.09297
1.07145
1.00439
1.02462
1.08078
1.11601
1.14505
1.07935
1.03263
1.05303
1.09657
1.12356
1.14248
1.10763
1.06544
1.04249
1.08503
1.05627
1.10498
1.15571
1.164
1.15815
1.16725
1.20697
1.227
1.27916
1.36246
1.36481
1.26902
1.26678
1.23648
1.16376
1.12961
1.15375
1.20402
1.23601
1.10183
1.11521
1.11907
1.11244
1.10562
1.10329
1.10541
1.10837
1.10857
1.10948
1.11217
1.11271
1.11645
1.11847
1.12147
1.13144
1.13243
1.13153
1.13731
1.13541
1.1362
1.1372
1.13221
1.1368
1.13641
1.13648
1.1378
1.13306
1.13848
1.14147
1.1329
1.12901
1.14069
1.13468
1.12907
1.15509
1.13858
1.13473
1.13836
1.13477
1.14287
1.13979
1.14385
1.15285
1.1566
1.15086
1.1444
1.14376
1.14227
1.13577
1.12445
1.11756
1.12241
1.13494
1.14657
1.15522
1.16287
1.17038
1.1777
1.18436
1.19001
1.19115
1.1829
1.16428
1.14379
1.1325
1.13137
1.13342
1.13502
1.13631
1.13503
1.12937
1.12282
1.11827
1.11461
1.11129
1.10828
1.10516
1.10304
1.10156
1.10069
1.10014
1.10029
1.10042
1.10029
1.10074
1.10225
1.10159
1.10455
1.09971
1.10141
1.09224
1.09876
1.08261
1.09134
1.08749
1.08396
1.09244
1.09119
1.08829
1.0861
1.0871
1.07592
1.07869
1.09243
1.10222
1.09604
1.08387
1.08775
1.0931
1.09614
1.06456
1.0495
1.11297
1.13654
1.09014
1.10797
1.19495
1.24969
1.23187
1.21235
1.20307
1.16563
1.11871
1.10425
1.11875
1.13517
1.18812
1.2019
1.16289
1.16257
1.14869
1.10227
1.06155
1.04577
1.07402
1.10028
1.09578
1.13482
0.964418
1.11701
1.05187
1.0363
1.0668
1.10445
1.07806
1.04968
1.04732
1.03998
1.02686
1.09344
1.11194
1.08779
1.06326
1.06525
1.0744
1.12678
1.13824
1.10022
1.04018
1.08402
1.02731
1.06139
1.12954
1.1657
1.14858
1.14728
1.16481
1.19652
1.2637
1.37315
1.37413
1.2859
1.29517
1.22861
1.16597
1.15782
1.19517
1.22473
1.22305
1.10047
1.10845
1.10873
1.10442
1.10485
1.11009
1.11542
1.11656
1.11454
1.11094
1.11046
1.11355
1.11766
1.12348
1.13479
1.14222
1.14828
1.15882
1.15985
1.15958
1.15831
1.15734
1.15941
1.16273
1.166
1.1651
1.16708
1.15712
1.14445
1.15094
1.14793
1.14434
1.15022
1.13463
1.13907
1.13651
1.12884
1.15568
1.14068
1.13399
1.13426
1.13765
1.14566
1.14322
1.14357
1.14116
1.13349
1.12996
1.12567
1.11952
1.11728
1.12255
1.13142
1.13828
1.14343
1.14917
1.15605
1.1624
1.16829
1.17501
1.17969
1.17695
1.16488
1.14792
1.1353
1.13214
1.13563
1.13912
1.13774
1.13223
1.1263
1.1212
1.1171
1.11411
1.11091
1.10703
1.1032
1.10022
1.09904
1.09884
1.09849
1.0976
1.09687
1.0951
1.09242
1.08794
1.08757
1.08285
1.08692
1.08325
1.08813
1.07677
1.09144
1.07299
1.07365
1.06654
1.05741
1.05936
1.07115
1.07672
1.0731
1.08556
1.0886
1.08365
1.08639
1.09598
1.09235
1.0836
1.09376
1.09333
1.08654
1.04735
0.994557
1.0284
1.07591
1.05585
1.07073
1.15805
1.22948
1.22618
1.20577
1.18405
1.14499
1.10498
1.08846
1.09786
1.11489
1.19088
1.21505
1.15175
1.13846
1.15692
1.13011
1.09129
1.07363
1.08248
1.1147
1.11964
1.106
1.03017
1.0608
1.06003
1.01396
1.04893
1.07345
1.04692
1.08086
1.09498
1.0952
1.0371
1.03653
1.08288
1.09441
1.08031
1.06542
1.02811
1.07673
1.14195
1.11274
1.04068
1.0916
1.01412
1.02575
1.09268
1.1611
1.13382
1.13738
1.11999
1.14941
1.2267
1.3524
1.36323
1.2975
1.30654
1.21899
1.17519
1.18642
1.21741
1.22179
1.19246
1.1004
1.1041
1.10374
1.10448
1.11009
1.11642
1.11624
1.10967
1.10583
1.10565
1.1068
1.11196
1.12286
1.13344
1.14707
1.16544
1.17531
1.17721
1.18021
1.17654
1.17512
1.17558
1.17244
1.16695
1.15406
1.14612
1.14573
1.14472
1.14286
1.13824
1.13895
1.13664
1.13709
1.15256
1.15424
1.13855
1.14603
1.14114
1.12997
1.13881
1.12878
1.1394
1.14927
1.1463
1.14223
1.13715
1.13148
1.12544
1.11923
1.11673
1.12079
1.12834
1.13469
1.13932
1.14377
1.14792
1.15019
1.15099
1.15419
1.16123
1.16737
1.16756
1.15978
1.14777
1.13908
1.13669
1.1386
1.14045
1.13725
1.12929
1.12115
1.11581
1.1141
1.11284
1.10992
1.10586
1.10209
1.09991
1.10037
1.10258
1.10373
1.10285
1.10149
1.09948
1.0974
1.08871
1.08613
1.07882
1.0732
1.07466
1.07072
1.06673
1.07495
1.07393
1.07569
1.0788
1.0673
1.05748
1.04478
1.04972
1.04275
1.0409
1.05146
1.06233
1.07105
1.07329
1.07143
1.05833
1.06287
1.06736
1.06773
1.0635
1.01804
1.01382
1.05558
1.04368
1.05289
1.13317
1.20843
1.21373
1.19575
1.17002
1.12923
1.09233
1.07872
1.07967
1.08704
1.15563
1.22787
1.1941
1.13749
1.15025
1.14642
1.1202
1.05096
1.05583
1.10205
1.21886
0.98889
1.00023
1.0389
1.05484
1.02609
1.04045
1.02339
1.05267
1.11182
1.07138
1.0778
1.04338
1.02957
1.05977
1.08865
1.0959
1.08439
1.01097
1.04533
1.1399
1.09244
1.03935
1.10489
0.997457
0.996558
1.06342
1.16133
1.11526
1.12715
1.08345
1.09265
1.1799
1.32807
1.35866
1.31197
1.30795
1.2089
1.18146
1.204
1.21644
1.20413
1.16931
1.10193
1.10366
1.10532
1.10905
1.11499
1.11755
1.11399
1.11086
1.1118
1.11258
1.11371
1.11656
1.12399
1.13787
1.15387
1.16523
1.17683
1.1814
1.18475
1.18564
1.18224
1.18013
1.17543
1.17089
1.16567
1.156
1.14584
1.14641
1.15238
1.15299
1.14907
1.13915
1.13193
1.13248
1.13775
1.13632
1.13867
1.14235
1.14618
1.13694
1.13323
1.15089
1.14756
1.13993
1.13311
1.12759
1.12547
1.12381
1.12508
1.12962
1.13557
1.13845
1.13727
1.1354
1.13595
1.14051
1.14559
1.14762
1.14789
1.14934
1.15284
1.15498
1.15114
1.14292
1.1364
1.13444
1.13566
1.1357
1.13246
1.12624
1.11874
1.11386
1.11239
1.11112
1.10787
1.1029
1.09824
1.0959
1.09734
1.10103
1.10203
1.09681
1.09196
1.08674
1.08534
1.07804
1.0722
1.07471
1.05796
1.06534
1.04981
1.05305
1.0443
1.0519
1.03999
1.0597
1.05915
1.06641
1.06041
1.06538
1.0717
1.065
1.05941
1.04797
1.05009
1.05789
1.07471
1.08362
1.08602
1.08244
1.08124
1.08002
1.03326
1.00299
1.04297
1.04384
1.04851
1.11753
1.18798
1.1995
1.18732
1.15787
1.11595
1.08045
1.07739
1.07749
1.08004
1.10325
1.17253
1.18616
1.10673
1.09096
1.09263
1.11895
1.07856
1.05587
1.01222
1.03101
1.00577
1.00833
1.06509
1.00269
1.01113
1.04898
1.02448
1.10873
1.13352
1.06715
1.08911
1.03814
1.0528
1.10124
1.12299
1.13355
1.10441
1.00879
1.03413
1.13477
1.0563
1.04075
1.1176
0.985053
0.96464
1.0387
1.15795
1.10328
1.12036
1.07142
1.05537
1.12911
1.28676
1.34835
1.3281
1.3114
1.20267
1.18007
1.19549
1.19467
1.19217
1.14716
1.1046
1.10588
1.10863
1.11129
1.11481
1.11741
1.11734
1.11616
1.11418
1.10871
1.10552
1.10535
1.1092
1.119
1.132
1.14437
1.15607
1.16438
1.17189
1.17687
1.17914
1.17996
1.18045
1.18118
1.17508
1.16255
1.16375
1.18034
1.18539
1.16412
1.13942
1.13336
1.13847
1.14226
1.14515
1.14758
1.15548
1.14739
1.1413
1.13603
1.14377
1.15151
1.14257
1.13466
1.12696
1.12349
1.12213
1.12257
1.12667
1.13101
1.13413
1.13439
1.13311
1.13255
1.13402
1.13718
1.13937
1.1401
1.14173
1.14443
1.14773
1.15166
1.15326
1.14932
1.14306
1.13907
1.13728
1.13555
1.13179
1.12568
1.11915
1.11438
1.11118
1.10781
1.10307
1.09751
1.09428
1.09507
1.09959
1.10473
1.10675
1.09653
1.08892
1.08157
1.07814
1.07848
1.06689
1.07255
1.06262
1.05864
1.05234
1.0538
1.04435
1.0533
1.04284
1.03307
1.04035
1.03729
1.03308
1.03159
1.02781
1.02909
1.05535
1.06749
1.05028
1.03692
1.04354
1.05278
1.06735
1.06553
1.07415
1.1069
1.07849
1.01796
1.02698
1.03043
1.03324
1.09075
1.16255
1.18412
1.18172
1.15078
1.10525
1.0784
1.08376
1.08529
1.08436
1.07995
1.09718
1.11787
1.05405
1.01346
1.01607
1.05685
1.12673
1.06868
1.02981
0.996009
1.02628
1.03488
1.07
0.990422
0.998515
1.07664
1.06687
1.1269
1.07852
1.03776
1.08093
1.0512
1.07538
1.14073
1.11639
1.13077
1.10212
1.01787
1.04284
1.13246
1.02548
1.03807
1.11897
0.997943
0.946238
1.01834
1.14794
1.09839
1.1206
1.07445
1.03775
1.09686
1.25182
1.33606
1.3392
1.31428
1.19874
1.17256
1.17661
1.18886
1.18274
1.13924
1.10773
1.10864
1.11087
1.11285
1.11744
1.1215
1.11936
1.11582
1.11317
1.11133
1.11223
1.11272
1.11663
1.12517
1.13605
1.14752
1.15873
1.16768
1.17701
1.18239
1.1845
1.18337
1.17988
1.17569
1.17102
1.16675
1.16757
1.16701
1.15898
1.14495
1.13619
1.13587
1.13897
1.14442
1.14849
1.14824
1.14326
1.13773
1.14176
1.14111
1.14968
1.14847
1.14104
1.13339
1.12488
1.12294
1.12181
1.12321
1.12527
1.12678
1.12703
1.12621
1.126
1.12693
1.1295
1.13283
1.13588
1.13673
1.1352
1.13345
1.13367
1.13629
1.1387
1.13992
1.1399
1.13767
1.13523
1.13316
1.12935
1.12392
1.11796
1.11239
1.10773
1.10354
1.09872
1.09546
1.09665
1.10288
1.10866
1.10743
1.10661
1.09235
1.08575
1.08628
1.08425
1.09227
1.09493
1.08335
1.0926
1.07278
1.06946
1.0635
1.05936
1.04812
1.0634
1.04868
1.04666
1.05136
1.04444
1.05121
1.06666
1.04072
1.02356
1.05206
1.06299
1.04778
1.05018
1.04412
1.05157
1.0571
1.04115
1.07265
1.09055
1.04963
1.03494
1.03251
1.02599
1.06439
1.13439
1.16928
1.17398
1.14964
1.10131
1.08395
1.07518
1.06985
1.06943
1.07249
1.0614
1.05232
1.02203
1.00035
1.00859
1.04201
1.10851
1.04597
0.990844
1.02633
1.01217
1.01401
1.01212
0.996194
1.00424
1.06243
1.03421
1.03309
0.984373
1.02141
1.01595
1.07289
1.08089
1.10672
1.0789
1.08618
1.10331
1.04965
1.06408
1.12589
1.0135
1.03298
1.12246
1.0325
0.953312
1.00988
1.13786
1.09495
1.11736
1.08264
1.0329
1.0759
1.23063
1.33044
1.35197
1.31732
1.19657
1.16901
1.17578
1.20166
1.15766
1.1562
1.11113
1.11174
1.11467
1.11866
1.12214
1.12257
1.12142
1.12497
1.12402
1.12243
1.12183
1.11954
1.12296
1.12779
1.13637
1.14634
1.15901
1.17377
1.18774
1.19487
1.19724
1.19699
1.19681
1.19403
1.18523
1.17422
1.16759
1.16249
1.14906
1.13247
1.13044
1.13708
1.14073
1.14305
1.14269
1.14182
1.14279
1.14662
1.14703
1.15318
1.16106
1.15203
1.14178
1.13179
1.12606
1.12531
1.12488
1.12718
1.12845
1.13183
1.13342
1.13497
1.13623
1.13569
1.13641
1.13797
1.14123
1.14421
1.14612
1.1465
1.14437
1.14176
1.14018
1.13909
1.13852
1.1375
1.13512
1.13182
1.1273
1.12168
1.11558
1.11051
1.10686
1.10368
1.1003
1.0992
1.10364
1.1129
1.11364
1.09811
1.08947
1.07968
1.07952
1.0911
1.09942
1.09496
1.11413
1.10418
1.10637
1.10105
1.08914
1.08014
1.0765
1.05824
1.0505
1.05823
1.04687
1.04055
1.05178
1.02882
1.03481
1.05735
1.04327
1.03966
1.0488
1.0354
1.0457
1.04406
1.02554
1.03347
1.0272
1.05888
1.08732
1.05649
1.03876
1.02946
1.02095
1.04651
1.11601
1.15922
1.16827
1.15204
1.10625
1.09001
1.06382
1.04827
1.04095
1.05412
1.0585
1.02464
1.00826
0.99237
0.983659
1.02808
1.06946
1.04461
1.03603
1.01318
1.05417
1.05569
0.986683
0.992102
1.00423
0.985985
0.95131
0.952449
0.962811
1.06866
1.03415
1.12979
1.09311
1.07652
1.10113
1.0759
1.13887
1.11175
1.10387
1.11977
1.01683
1.03291
1.1234
1.05479
0.970508
1.01299
1.12458
1.08932
1.11541
1.08155
1.02935
1.05849
1.20212
1.31282
1.35711
1.31764
1.19872
1.17947
1.19395
1.20475
1.12879
1.15401
1.11482
1.11596
1.12174
1.12699
1.1271
1.1255
1.12743
1.12694
1.11387
1.10769
1.10397
1.09989
1.10395
1.11018
1.12115
1.13579
1.15218
1.16945
1.18791
1.20362
1.21029
1.20265
1.18758
1.17123
1.16023
1.15412
1.14863
1.14308
1.13488
1.13162
1.14222
1.15265
1.15536
1.15671
1.1581
1.16106
1.16339
1.1623
1.165
1.17114
1.16361
1.14912
1.13944
1.13155
1.12992
1.12887
1.13098
1.13417
1.135
1.13782
1.13784
1.13903
1.13868
1.13636
1.13564
1.13404
1.13294
1.13217
1.13218
1.13361
1.13666
1.13958
1.14015
1.13995
1.13967
1.13919
1.13912
1.13834
1.13504
1.12971
1.12447
1.1197
1.11551
1.11097
1.10735
1.10682
1.11119
1.12121
1.11407
1.08775
1.07597
1.08553
1.09988
1.10617
1.12041
1.11335
1.10938
1.11981
1.10709
1.10906
1.09797
1.08712
1.07698
1.07864
1.06899
1.06168
1.07045
1.03806
1.05387
1.06056
1.03772
1.04013
1.04232
1.04237
1.04887
1.03454
1.03535
1.05447
1.03282
1.01852
1.00663
1.03533
1.07686
1.0644
1.05823
1.04479
1.03042
1.03613
1.10386
1.14931
1.16257
1.15192
1.1173
1.08994
1.05109
1.02327
1.02018
1.03595
1.06119
1.02857
0.999812
0.987672
0.974487
1.03027
1.04757
1.02023
1.02426
1.03894
1.04475
1.02153
0.975703
0.975694
0.993575
0.96434
0.957888
0.989175
1.05489
1.14905
1.13381
1.20685
1.15115
1.13187
1.16871
1.13755
1.22016
1.18081
1.13646
1.10867
1.02946
1.04239
1.12593
1.0629
0.987088
1.02134
1.11282
1.07825
1.10925
1.08202
1.02226
1.05425
1.19059
1.30347
1.36154
1.31429
1.19897
1.19824
1.21521
1.19276
1.11705
1.12907
1.11901
1.12152
1.12832
1.13004
1.12814
1.12716
1.1296
1.12674
1.11826
1.11773
1.11602
1.11336
1.11239
1.11286
1.11753
1.12571
1.13822
1.15437
1.17006
1.18283
1.19156
1.19274
1.18361
1.16703
1.15218
1.14567
1.1425
1.14171
1.14454
1.15117
1.16102
1.16552
1.16737
1.16906
1.16989
1.16953
1.16989
1.17375
1.17942
1.17471
1.16091
1.14663
1.13398
1.12971
1.13307
1.13435
1.13677
1.13608
1.13479
1.13759
1.13808
1.13852
1.1386
1.13821
1.13911
1.13965
1.1396
1.13717
1.1333
1.13005
1.12655
1.12473
1.12571
1.12803
1.13055
1.13186
1.13261
1.13226
1.13041
1.12768
1.1236
1.11844
1.1137
1.11096
1.11041
1.11728
1.12059
1.12417
1.10879
1.08457
1.07671
1.09701
1.11906
1.11724
1.10533
1.1026
1.08794
1.09448
1.09532
1.09386
1.09111
1.0818
1.06647
1.05135
1.05656
1.04393
1.05693
1.04969
1.04182
1.05599
1.0473
1.04392
1.03698
1.0289
1.04126
1.042
1.02509
1.04938
1.05687
1.03332
0.997658
1.01844
1.07448
1.06882
1.05708
1.04647
1.03854
1.03253
1.10206
1.14139
1.16255
1.15001
1.12242
1.0821
1.03834
1.00153
0.996824
1.01851
1.05569
1.04475
0.99457
0.987931
0.974937
1.03287
1.04881
1.02884
1.0557
1.0263
1.01886
0.974069
0.981444
0.984052
1.04058
1.01054
1.05341
1.09989
1.13663
1.16455
1.16
1.19476
1.20115
1.18077
1.18107
1.19931
1.27269
1.20772
1.14086
1.09743
1.04748
1.06029
1.12925
1.0621
1.00368
1.03636
1.09752
1.06487
1.10067
1.08668
1.01503
1.05063
1.18632
1.29779
1.36303
1.30831
1.19867
1.2078
1.21815
1.16918
1.11813
1.10986
1.12326
1.12579
1.12985
1.13132
1.1331
1.13508
1.14097
1.13996
1.13931
1.145
1.14175
1.13533
1.12968
1.12514
1.12435
1.12785
1.13809
1.15313
1.16849
1.18302
1.19318
1.19634
1.19155
1.18251
1.17103
1.16313
1.16006
1.16201
1.16748
1.17372
1.17858
1.17818
1.17547
1.17193
1.16728
1.16405
1.16534
1.17147
1.17194
1.16082
1.15369
1.14898
1.13802
1.13169
1.13432
1.14018
1.14323
1.13876
1.13699
1.13987
1.1385
1.13658
1.13467
1.13152
1.13073
1.13152
1.13185
1.13246
1.13509
1.13868
1.13917
1.13531
1.13127
1.12858
1.12687
1.12637
1.12626
1.12601
1.12493
1.12278
1.12038
1.1207
1.12326
1.12673
1.12866
1.13249
1.12822
1.11145
1.08898
1.08273
1.09394
1.10962
1.11358
1.11744
1.10355
1.09247
1.084
1.07994
1.08764
1.08661
1.08894
1.08414
1.0823
1.07061
1.06132
1.05009
1.04962
1.04827
1.03201
1.04572
1.04193
1.04384
1.05715
1.03957
1.03011
1.0418
1.02625
1.02679
1.06258
1.05606
0.997791
0.997983
1.06802
1.07391
1.04653
1.03641
1.03135
1.02441
1.09963
1.13606
1.16041
1.15398
1.12253
1.07357
1.03211
0.995272
0.981946
0.996302
1.0339
1.04097
0.99362
0.99483
0.967362
1.02199
1.04651
1.04751
1.0412
1.00277
1.00033
0.978269
1.02095
1.0401
1.0995
1.07568
1.12413
1.14499
1.17042
1.17716
1.16397
1.15934
1.20509
1.18517
1.14637
1.20165
1.2449
1.19587
1.14754
1.1109
1.07845
1.09355
1.13821
1.05868
1.01949
1.05047
1.07886
1.05595
1.09958
1.09362
1.00964
1.04706
1.18398
1.29091
1.3629
1.3048
1.20177
1.21277
1.20677
1.15352
1.12875
1.1051
1.12729
1.12931
1.13286
1.13681
1.13944
1.13852
1.1382
1.13915
1.14129
1.14022
1.13991
1.1432
1.14432
1.14132
1.13604
1.13174
1.13046
1.13442
1.14667
1.16213
1.1767
1.18941
1.19589
1.19617
1.19175
1.18542
1.18116
1.18051
1.18225
1.18444
1.18549
1.18188
1.17597
1.16949
1.16653
1.16845
1.1699
1.16626
1.15824
1.14667
1.1396
1.14053
1.14255
1.13799
1.13513
1.14322
1.15128
1.14775
1.14304
1.14234
1.13814
1.1334
1.12955
1.12534
1.12152
1.11571
1.11062
1.10809
1.10767
1.11041
1.11912
1.12796
1.13005
1.12907
1.12797
1.12744
1.12742
1.12706
1.12825
1.13014
1.13505
1.13699
1.1365
1.1331
1.13839
1.13126
1.11435
1.08933
1.07141
1.07593
1.09479
1.10078
1.09742
1.10461
1.10994
1.11247
1.10456
1.09781
1.10136
1.09998
1.09917
1.09471
1.08213
1.06864
1.07063
1.05498
1.04756
1.05998
1.03986
1.04895
1.05387
1.03137
1.03797
1.0418
1.03413
1.05051
1.04693
1.01322
1.03673
1.07051
1.02828
0.999603
1.04947
1.06148
1.03501
1.04163
1.03742
1.03124
1.09502
1.141
1.14926
1.16086
1.128
1.07595
1.04002
1.00608
0.980877
0.983943
1.01247
1.02275
0.992646
1.00072
0.966076
1.0424
1.04981
1.06872
1.05207
0.984891
0.952978
0.996679
1.06553
1.11519
1.1375
1.1333
1.17136
1.19035
1.22165
1.20565
1.19031
1.16617
1.23209
1.21719
1.17025
1.23578
1.20691
1.18114
1.17259
1.13808
1.11457
1.1303
1.136
1.04968
1.03439
1.05765
1.0678
1.05598
1.11216
1.12396
1.01202
1.04689
1.1905
1.28942
1.36332
1.29886
1.2003
1.21546
1.19428
1.15082
1.13244
1.10496
1.13148
1.13395
1.13766
1.14047
1.14007
1.14142
1.13704
1.13657
1.1377
1.14054
1.15009
1.15226
1.1521
1.15239
1.14857
1.14405
1.13941
1.13548
1.13487
1.13923
1.15031
1.16472
1.17857
1.18954
1.19565
1.19694
1.19568
1.19367
1.19109
1.18807
1.1852
1.17788
1.16845
1.15647
1.15096
1.15805
1.16921
1.16884
1.15894
1.1523
1.14351
1.13542
1.1407
1.14309
1.13944
1.14266
1.15096
1.15204
1.14799
1.14443
1.13873
1.13362
1.12985
1.12775
1.1265
1.12375
1.11931
1.11282
1.10662
1.10359
1.10224
1.10337
1.10918
1.11795
1.12296
1.12397
1.12718
1.1321
1.1343
1.13571
1.13305
1.12753
1.12657
1.1188
1.11292
1.1037
1.09098
1.08339
1.0855
1.09461
1.09083
1.07623
1.08308
1.10594
1.12328
1.124
1.11317
1.10103
1.10098
1.1047
1.10404
1.09457
1.10233
1.07925
1.07503
1.07262
1.04781
1.06243
1.04359
1.03492
1.05419
1.05294
1.05586
1.04827
1.02796
1.0364
1.05285
1.02867
1.02684
1.06931
1.0418
1.00062
1.04157
1.06384
1.0367
1.04065
1.03397
1.03984
1.08369
1.14961
1.14012
1.15744
1.13907
1.08715
1.05865
1.02365
0.991624
0.983832
0.994428
1.00951
0.983999
1.00673
0.978277
1.03413
1.04165
1.07124
1.04287
0.926812
0.995388
1.07023
1.11855
1.14438
1.19825
1.19755
1.22316
1.23977
1.19774
1.19045
1.18015
1.154
1.25507
1.18627
1.19191
1.26481
1.1531
1.1763
1.19937
1.15757
1.14717
1.15449
1.11926
1.04698
1.05107
1.05974
1.06145
1.05033
1.12796
1.16114
1.01769
1.03674
1.18787
1.28516
1.36207
1.2901
1.19582
1.2143
1.18359
1.15825
1.13003
1.10979
1.13625
1.1411
1.14435
1.14731
1.14528
1.14823
1.14702
1.14674
1.14808
1.14777
1.15425
1.15923
1.16373
1.16716
1.16839
1.16716
1.16354
1.15903
1.15208
1.14514
1.1408
1.14038
1.146
1.15665
1.16945
1.18158
1.19147
1.19739
1.19963
1.19774
1.19243
1.18465
1.17387
1.15994
1.14929
1.14975
1.1597
1.16439
1.15798
1.15666
1.15603
1.14734
1.14896
1.15362
1.1518
1.14874
1.15024
1.15124
1.14774
1.14365
1.13976
1.13607
1.13478
1.13779
1.14123
1.14236
1.14021
1.13849
1.13433
1.12611
1.11706
1.11015
1.11002
1.11166
1.1148
1.12115
1.12275
1.12189
1.11903
1.11609
1.10815
1.10616
1.10062
1.09331
1.09004
1.0963
1.09447
1.08923
1.08318
1.09345
1.08281
1.06524
1.0878
1.11448
1.13411
1.12409
1.10035
1.09023
1.08256
1.08815
1.09229
1.08094
1.07232
1.06729
1.05585
1.07015
1.04649
1.06174
1.06309
1.05786
1.05251
1.02946
1.03992
1.05294
1.04099
1.04476
1.05123
1.0345
1.0259
1.07044
1.0522
0.993394
1.0387
1.06885
1.04431
1.03961
1.03099
1.04275
1.07281
1.14903
1.14589
1.14845
1.14214
1.09722
1.07878
1.04517
1.0064
0.991066
0.985075
0.990925
0.986629
0.998373
0.982502
1.04245
1.04011
1.08109
1.07425
0.923088
1.05837
1.12407
1.15553
1.16021
1.27017
1.27327
1.25665
1.21323
1.11226
1.14147
1.13479
1.11829
1.23994
1.12571
1.2102
1.2517
1.09393
1.17131
1.20663
1.16562
1.16796
1.15603
1.09731
1.05048
1.06398
1.0618
1.05841
1.02828
1.12722
1.18498
1.03353
1.02843
1.18139
1.28021
1.3614
1.28348
1.19295
1.20342
1.17069
1.16374
1.12143
1.11436
1.14205
1.14972
1.15151
1.15181
1.1514
1.15199
1.15234
1.15214
1.15254
1.15269
1.16012
1.16392
1.16779
1.16944
1.16765
1.16796
1.16875
1.17065
1.17235
1.17351
1.17238
1.167
1.1582
1.14959
1.14544
1.14784
1.15659
1.16853
1.18147
1.19138
1.19694
1.19689
1.19136
1.17879
1.16677
1.16084
1.16482
1.16951
1.16372
1.1583
1.15831
1.1523
1.15041
1.15406
1.15796
1.15819
1.15625
1.15421
1.14966
1.14495
1.14265
1.1414
1.14146
1.14421
1.14781
1.1507
1.15224
1.15315
1.15258
1.14636
1.13553
1.12688
1.11861
1.11431
1.11479
1.1131
1.11398
1.11043
1.10297
1.09898
1.09742
1.09623
1.09142
1.09821
1.10435
1.10793
1.09225
1.09067
1.09711
1.09112
1.08192
1.0732
1.09778
1.12493
1.12365
1.11493