/*--------------------------------*- C++ -*----------------------------------*\
| =========                 |                                                 |
| \\      /  F ield         | OpenFOAM: The Open Source CFD Toolbox           |
|  \\    /   O peration     | Version:  dev                                   |
|   \\  /    A nd           | Web:      http://www.openfoam.org               |
|    \\/     M anipulation  |                                                 |
\*---------------------------------------------------------------------------*/
FoamFile
{
    version     2.0;
    format      ascii;
    class       volScalarField;
    object      T;
    location    "9.144";
}
// * * * * * * * * * * * * * * * * * * * * * * * * * * * * * * * * * * * * * //

dimensions      [0 0 0 1 0 0 0];

internalField   nonuniform List<scalar> 
12225
(
303.405
302.511
302.308
302.225
302.088
302.023
301.995
301.899
301.888
301.876
301.718
301.749
301.67
301.298
301.529
301.218
300.066
299.138
302.952
301.356
301.024
300.62
300.327
299.857
299.806
299.504
299.442
299.645
299.262
299.526
299.75
298.955
299.702
299.521
299.313
298.647
302.915
301.327
300.931
300.586
299.971
299.694
298.977
299.099
298.084
298.805
297.765
298.066
297.976
297.627
297.816
297.323
298.699
297.808
302.72
301.632
300.613
300.947
299.709
300.247
298.622
299.661
297.978
298.79
297.561
298.041
297.338
297.76
296.358
297.521
297.887
297.375
302.299
301.967
300.423
301.062
299.84
300.371
298.735
299.673
298.318
298.801
297.449
298.103
297.67
297.412
295.801
297.197
297.038
296.203
302.091
301.802
300.451
301.087
299.991
300.385
298.969
299.216
298.284
299.302
297.584
297.711
297.518
297.836
296.719
296.576
296.628
296.414
302.129
301.653
300.437
301.149
299.719
300.306
298.581
299.506
298.399
298.912
297.094
298.036
297.504
297.882
296.991
296.877
297.617
297.214
302.124
301.708
300.26
301.29
299.059
300.397
298.64
300.166
298.165
298.84
296.849
298.138
297.587
298.18
296.813
297.058
297.043
297.125
301.849
301.727
299.916
301.298
298.701
300.344
298.808
300.179
298.108
298.44
296.853
298.219
297.626
298.004
296.866
297.231
296.433
296.881
301.755
301.686
299.92
301.172
299.048
300.24
299.028
300.161
298.193
298.603
297.419
298.442
297.969
298.174
297.233
297.154
297.003
297.077
301.602
301.438
299.991
300.904
299.362
300.119
299.223
299.845
298.384
298.75
298.016
298.706
298.403
298.274
297.711
297.639
297.467
297.535
301.709
301.033
299.918
300.658
299.531
300.074
299.401
299.743
298.733
298.948
298.701
298.93
298.759
298.62
298.344
298.17
298.006
298.079
301.505
300.586
299.936
300.382
299.744
300.07
299.693
299.766
299.233
299.319
299.246
299.315
299.241
299.055
298.948
298.824
298.841
298.896
301.247
300.103
299.823
300.1
299.835
300.002
299.848
299.83
299.658
299.674
299.7
299.716
299.736
299.65
299.678
299.633
299.735
299.809
300.884
299.571
299.579
299.749
299.734
299.817
299.848
299.889
299.908
299.965
300.041
300.089
300.155
300.227
300.364
300.436
300.58
300.713
300.293
298.931
299.104
299.303
299.387
299.496
299.668
299.815
299.937
300.071
300.205
300.332
300.502
300.691
300.861
301.016
301.194
301.318
299.453
298.058
298.315
298.565
298.73
298.945
299.221
299.397
299.55
299.752
299.933
300.138
300.397
300.641
300.84
301.037
301.258
301.443
298.556
297.078
297.369
297.639
297.791
298.013
298.247
298.384
298.561
298.82
299.006
299.187
299.483
299.783
299.941
300.172
300.417
300.541
297.82
296.048
296.269
296.476
296.617
296.828
296.95
297.069
297.243
297.526
297.609
297.625
297.976
298.329
298.386
298.615
298.827
298.846
297.03
295.241
295.37
295.38
295.478
295.672
295.702
295.726
295.863
296.084
295.945
295.903
296.348
296.658
296.66
296.815
296.933
296.914
296.502
294.549
294.563
294.459
294.476
294.642
294.564
294.45
294.63
294.674
294.32
294.422
294.872
294.88
294.933
295.119
295.048
295.208
296.017
293.897
293.897
293.752
293.57
293.62
293.593
293.498
293.539
293.408
293.096
293.333
293.475
293.104
293.299
293.548
293.422
293.805
295.745
293.446
293.382
293.225
292.963
292.756
292.704
292.615
292.412
292.406
292.545
292.663
292.269
291.8
291.933
292.099
292.21
292.621
295.329
293.016
292.909
292.79
292.572
292.32
292.092
291.838
291.539
291.64
291.979
291.813
291.332
291.123
291.069
291.112
291.283
291.446
295.192
292.81
292.643
292.37
292.076
291.886
291.781
291.579
291.216
291.085
291.126
290.94
290.812
290.888
290.745
290.728
290.803
290.675
295.05
292.602
292.435
292.223
291.908
291.614
291.396
291.276
291.099
290.843
290.683
290.613
290.467
290.383
290.353
290.276
290.283
290.276
294.867
292.518
292.309
292.055
291.749
291.46
291.174
290.929
290.706
290.537
290.358
290.188
290.051
289.94
289.836
289.774
289.719
289.682
294.87
292.423
292.173
291.894
291.568
291.258
290.948
290.653
290.362
290.119
289.889
289.724
289.56
289.444
289.32
289.251
289.161
289.121
294.944
292.37
292.078
291.797
291.483
291.173
290.865
290.579
290.347
290.163
290.026
289.939
289.87
289.849
289.84
289.894
289.894
290.032
295.632
293.442
293.258
293.079
292.899
292.773
292.686
292.642
292.638
292.652
292.683
292.732
292.795
292.872
292.965
293.065
293.175
293.312
284.759
277.606
276.659
276.358
276.439
276.512
276.786
277.103
277.488
277.912
278.352
278.795
279.259
279.693
280.196
280.714
281.151
281.717
282.339
282.818
283.437
283.995
284.496
285.178
285.502
285.896
286.2
286.443
286.913
286.965
287.699
287.623
285.685
286.452
289.62
290.787
289.995
288.937
288.097
287.404
286.771
286.247
285.86
285.67
285.68
285.949
286.603
287.806
289.735
291.964
293.519
294.079
294.151
294.063
294.117
294.536
295.054
295.473
295.875
296.319
296.675
296.796
296.71
296.497
296.232
295.965
295.663
295.352
295.201
295.226
295.229
294.677
292.938
291.709
292.968
293.782
292.016
290.356
289.611
288.734
287.927
287.285
286.65
286.066
285.544
285.051
284.611
284.206
283.842
283.488
283.134
282.723
282.257
281.742
281.305
280.967
280.637
280.136
279.602
279.142
278.759
278.093
277.301
277.162
277.668
278.42
277.933
276.567
276.036
276.484
276.71
275.137
273.024
270.272
267.45
267.042
265.409
258.489
255.031
260.539
267.252
267.634
266.091
270.303
277.405
278.84
277.735
275.285
274.941
276.518
277.837
278.255
278.52
277.186
275.091
275.523
277.55
279.196
280.498
288.265
274.085
275.209
272.191
271.241
269.744
268.331
264.931
264.059
263.652
262.158
261.77
260.487
259.696
260.027
259.895
259.675
259.811
259.347
258.493
257.961
256.892
255.443
254.765
253.679
252.965
252.742
252.72
252.128
252.945
251.93
253.01
253.302
257.398
260.712
260.136
262.215
266.539
270.072
271.893
271.571
286.914
277.352
273.813
272.957
273.057
273.705
274.657
275.767
276.808
277.74
278.515
278.916
279.365
279.674
279.759
280.245
280.216
279.802
280.619
281.315
280.747
281.147
281.953
282.355
283.014
283.325
284.053
285.28
286.092
286.67
288.132
288.913
287.758
287.935
289.161
288.682
286.474
283.899
282.97
283.405
282.967
281.394
279.667
278.451
278.164
278.547
279.54
280.334
279.892
278.959
279.589
282.081
283.672
281.836
278.712
279.283
283.278
286.647
289.557
293.416
296.305
295.941
292.978
289.865
288.05
286.814
284.222
281.13
282.954
290.202
293.837
291.784
289.973
288.488
286.83
285.66
284.535
283.93
283.586
283.163
282.86
282.483
282.013
281.541
281.071
280.602
280.201
279.899
279.741
279.641
279.543
279.512
279.333
279.038
278.667
277.972
277.195
276.541
276.018
275.748
275.633
274.775
273.412
273.396
276.258
279.82
280.25
275.266
271.639
271.373
270.044
265.518
263.258
262.325
256.637
250.948
247.108
239.211
235.894
240.867
246.234
243.261
241.265
252.377
266.629
272.957
267.558
261.448
261.376
263.777
265.433
267.359
266.011
260.729
258.66
262.831
269.013
277.432
287.097
296.08
261.823
281.275
268.906
262.3
256.725
253.055
247.845
245.623
245.66
243.641
242.182
241.27
240.054
240.881
243.384
244.11
244.569
245.194
243.268
242.542
241.28
238.784
236.536
234.156
229.748
226.655
226.153
223.798
226.056
221.363
219.782
220.192
230.101
235.799
232.12
237.99
248.595
255.903
255.073
247.587
290.077
283.343
278.483
275.827
275.884
277.876
280.192
282.426
284.152
285.481
286.836
287.059
286.907
287.938
287.576
286.552
286.941
287.026
285.361
285.305
285.455
284.035
285.025
284.13
282.956
284.278
282.282
282.641
283.622
282.116
284.704
284.637
283.513
286.565
287.009
287.505
290.068
290.32
287.416
285.497
284.583
282.845
281.676
281.563
282.258
282.332
282.088
283.867
286.648
287.403
286.043
284.666
281.813
279.791
284.679
291.869
293.665
291.634
289.187
286.671
283.966
281.392
278.705
276.469
276.298
279.467
284.253
288.038
290.593
291.607
289.869
287.121
285.77
285.273
285.417
286.04
286.5
287.131
287.603
287.808
287.837
287.604
287.263
286.918
286.509
285.985
285.472
285.003
284.586
284.298
283.876
283.752
283.6
283.526
282.889
282.015
280.077
279.324
279.756
279.177
278.865
278.779
277.868
277.762
280.64
283.019
285.136
281.532
274.091
271.684
269.913
265.49
262.816
263.135
264.405
260.515
245.899
235.573
237.067
242.822
243.975
239.449
243.318
258.088
269.475
267.556
257.124
257.39
254.605
257.346
260.343
261.349
259.782
257.055
259.774
264.583
265.213
277.46
280.964
268.661
253.763
278.872
267.657
264.776
257.103
252.447
256.265
249.087
244.085
244.737
244.805
248.895
247.387
239.49
237.074
239.733
242.904
249.397
251.054
248.402
242.2
242.204
233.37
228.851
228.217
224.944
221.069
214.869
215.805
209.647
201.947
201.772
216.228
220.716
219.483
231.899
244.763
247.658
239.934
230.919
291.29
286.222
282.721
282.299
284.539
287.271
289.032
290.254
291.048
291.05
291.414
291.78
290.763
290.768
290.513
290.473
290.427
288.78
289.42
290.138
288.638
289.725
289.68
287.673
289.485
289.251
285.773
287.413
288.066
285.35
285.437
285.731
285.359
284.573
285.491
284.633
286.079
288.876
285.724
285.646
286.616
285.09
283.706
282.204
280.778
281.099
281.621
282.964
285.333
285.07
283.318
285.672
290.43
291.056
288.468
286.186
284.053
282.021
280.163
278.406
276.42
274.46
273.876
276.041
280.606
285.465
288.596
289.702
289.313
288.015
286.436
285.806
286.442
287.557
288.658
289.322
289.649
290.038
290.18
290.032
289.59
289.029
288.407
287.853
287.409
286.918
286.54
286.403
286.168
286.537
286.146
286.304
285.333
285.947
283.978
284.644
283.376
281.753
282.713
282.208
281.634
281.715
281.199
279.091
279.207
278.382
279.451
280.747
275.422
271.157
268.661
268.407
265.315
259.933
264.553
272.195
259.79
242.415
235.366
239.248
242.389
242.825
249.836
262.324
268.853
263.958
259.916
254.38
247.923
253.559
255.662
258.668
263.311
268.402
275.745
274.605
263.476
270.04
266.502
279.154
253.16
261.614
260.987
262.983
257.239
260.461
277.171
272.215
257.554
248.436
240.175
252.995
264.399
259.462
248.464
241.506
236.218
242.37
251.172
256.714
245.913
252.163
240.853
229.468
227.095
227.955
226.128
218.718
215.137
206.527
194.243
194.7
210.218
211.593
218.495
233.757
242.112
238.614
230.76
227.454
292.336
288.756
287.729
289.443
291.281
291.971
291.475
290.716
290.686
290.541
289.895
289.82
288.942
288.467
287.891
285.41
285.044
285.467
284.126
284.619
284.631
284.393
285.871
284.998
285.169
285.35
285.023
286.477
285.489
284.519
286.57
288.309
285.572
286.558
289.136
282.565
285.864
287.775
286.922
288.065
286.223
287.027
286.441
284.356
283.247
284.521
286.326
286.692
287.03
288.528
291.458
293.658
292.855
289.767
286.734
284.493
282.564
280.69
278.864
277.201
275.739
275.229
276.844
281.029
285.973
288.82
289.039
288.338
287.625
286.893
286.796
287.841
289.135
289.925
290.474
290.907
291.252
291.606
291.686
291.573
291.288
290.905
290.32
289.733
289.204
288.518
287.528
287.111
285.712
286.346
285.258
287.032
284.637
288.264
285.298
285.661
285.946
283.057
282.622
282.651
282.548
281.535
283.743
282.405
278.231
275.124
276.075
278.656
277.236
275.533
274.438
282.487
287.144
270.572
263.977
274.99
271.302
251.533
239.818
242.83
246.779
248.683
256.476
267.13
270.57
266.986
262.886
250.511
247.257
255.129
254.681
256.99
267.01
276.418
279.687
271.59
264.13
264.203
253.053
297.412
256.895
270.357
274.524
265.837
255.163
259.526
265.766
265.469
266.373
270.149
253.277
247.105
251.111
256.307
255.42
253.072
240.468
236.448
243.166
257.153
246.149
259.159
251.088
235.298
227.049
229.945
230.13
226.852
220.914
209.318
192.922
193.531
207.576
207.275
220.226
233.326
236.213
230.621
227.389
230.474
293.469
291.273
291.184
292.36
292.318
290.995
289.616
289.32
289.853
290.856
291.114
290.41
289.424
288.079
285.299
283.436
282.086
279.561
279.247
279.396
279.818
280.268
280.017
279.39
278.639
278.958
278.449
280.656
284.258
283.049
283.731
285.039
283.363
287.443
286.988
287.119
290.226
283.573
286.39
288.693
288.954
288.493
286.513
287.041
287.068
287.602
289.605
290.64
291.741
293.438
294.323
293.22
290.973
289.123
287.738
286.246
284.455
282.776
281.235
279.52
278.25
278.682
281.361
285.389
288.514
289.217
288.114
286.951
286.946
287.904
288.977
289.905
290.605
290.984
291.389
291.958
292.51
292.817
292.634
292.165
291.723
291.415
291.055
290.961
291.097
291.739
291.252
291.928
290.259
290.568
288.671
291.019
286.47
290.636
289.805
291.013
292.867
291.721
287.931
285.728
286.055
282.157
280.576
281.159
279.873
276.9
277.232
278.999
275.966
275.641
276.956
286.676
301.994
292.776
279.376
284.211
280.79
259.78
244.059
244.122
248.131
252.674
261.195
270.589
274.6
272.2
267.858
250.314
244.695
257.621
260.266
255.434
260.542
268.827
272.814
270.109
261.28
258.527
262.186
278.342
270.84
268.77
280.3
270.795
262.977
268.41
259.546
254.931
253.075
266.238
267.061
254.973
250.568
252.56
254.978
264.267
252.59
236.581
240.75
257.257
244.605
262.484
260.012
243.732
228.304
233.116
232.24
236.077
230.289
215.942
196.09
195.201
205.877
205.791
222.204
231.57
230.764
226.888
228.56
236.558
294.396
293.329
293.437
293.295
291.869
290.214
290.222
291.961
293.059
293.186
292.983
291.794
289.092
286.483
283.254
278.838
276.37
275.946
275.271
276.176
276.699
276.699
277.471
278.721
281.899
284.207
284.556
284.972
285.582
286.921
286.941
287.634
288.029
284.495
283.454
287.6
286.307
287.017
290.492
288.436
291.11
289.09
286.396
286.905
287.946
289.268
290.802
292.438
294.207
295.12
294.267
292.312
290.545
289.238
288.026
286.904
286.229
285.912
285.002
283.116
281.433
281.197
282.918
285.751
287.802
288.206
287.425
286.604
287.043
288.689
290.37
291.345
291.386
291.282
291.59
292.19
292.717
292.822
292.204
291.086
290.237
289.94
289.75
289.719
289.673
291.391
291.504
292.797
293.819
292.704
293.263
293.599
290.849
290.302
289.257
287.569
289.924
291.879
294.826
292.759
293.948
293.926
290.423
286.915
283.995
282.834
282.614
285.474
283.88
282.313
281.814
282.217
294.347
296.404
284.565
287.364
285.359
265.516
248.525
246.867
250.347
255.776
264.927
273.824
277.143
276.785
274.759
258.466
242.563
248.685
260.849
257.674
257.663
262.243
278.768
277.306
266.033
238.235
291.793
289.184
276.903
271.74
277.638
272.687
276.571
268.822
252.654
260.645
258.155
265.388
268.873
261.071
252.926
249.767
250.533
268.428
260.825
237.565
245.648
258.213
241.948
266.921
268.011
250.984
228.616
237.169
234.538
244.056
242.493
224.871
199.931
195.998
203.827
205.909
224.316
230.566
227.84
227.655
232.358
241.266
295.028
294.491
294.078
293.127
291.59
290.908
291.834
292.712
292.53
292.393
292.181
291.572
289.839
286.467
282.549
279.851
277.111
276.031
275.3
275.113
275.973
276.565
277.76
278.972
280.299
282.665
285.5
285.907
284.622
284.363
285.157
287.664
289.881
290.12
288.875
289.453
289.158
288.392
287.338
289.458
291.26
286.954
287.247
289.153
290.982
292.547
293.227
293.778
293.632
292.578
291.018
290.121
290.266
290.655
290.474
289.257
287.852
287.19
286.968
286.433
285.367
284.635
285.404
287.294
288.743
288.975
288.317
287.905
288.333
289.543
291.084
291.94
291.865
291.709
292.072
292.909
293.686
293.84
292.952
291.426
290.582
291.436
292.186
293.032
292.816
294.118
295.148
293.745
297.742
295.09
298.78
297.156
299.087
296.185
298.962
292.861
292.199
289.518
290.418
288.463
286.111
287.246
287.969
290.45
289.525
287.045
281.996
279.025
277.875
278.469
278.381
277.94
289.796
299.269
288.215
287.597
286.643
269.342
253.001
250.024
252.251
258.534
268.179
276.939
277.552
277.306
276.463
270.884
254.699
251.066
268.782
272.741
271.837
263.94
271.449
276.905
289.011
283.925
287.425
286.52
269.915
286.012
283.427
271.165
277.08
256.059
247.851
262.405
256.103
267.449
264.12
251.955
245.671
241.853
246.009
268.908
263.967
238.824
254.563
258.764
239.597
270.082
277.195
257.556
229.687
239.996
236.226
246.837
251.18
235.276
206.625
197.672
201.598
205.717
225.808
231.266
229.996
232.166
235.005
246.119
295.473
295.061
294.348
293.666
292.763
292.097
292.128
292.468
293.021
294.519
295.463
295.627
294.752
292.332
289.093
286.049
283.217
281.248
279.511
278.383
277.917
277.826
277.842
277.725
279.11
282.354
282.723
279.004
277.269
281.824
288.278
290.578
289.68
288.86
288.234
287.887
285.808
287.565
289.266
291.073
289.617
287.321
289.314
291.42
293.516
294.581
295.016
294.994
293.96
292.764
291.816
291.609
291.871
291.989
291.57
290.643
289.913
289.561
288.977
288.086
287.022
285.807
285.177
285.937
287.291
288.01
288.093
288.122
288.65
289.786
291.057
291.851
292.192
292.57
293.322
294.336
294.745
294.038
292.295
290.394
289.252
291.387
292.851
294.195
294.51
293.673
296.098
294.037
295.869
296.563
297.555
296.566
298.506
295.503
297.508
299.93
297.192
297.404
297.96
297.707
298.044
297.27
289.471
285.189
289.166
292.582
290.393
287.6
283.237
283.268
280.992
271.99
277.868
294.248
292.491
291.476
291.027
276.217
258.852
253.544
253.642
260.196
270.874
277.588
276.183
275.642
275.657
276.644
272.462
267.102
282.591
293.618
292.492
280.892
261.292
274.172
284.08
292.799
283.666
280.275
269.911
289.532
287.878
265.748
267.005
251.769
261.244
271.419
259.859
265.164
259.696
243.522
247.251
243.108
247.186
266.876
262.007
239.374
262.687
260.308
239.863
266.447
282.347
263.097
232.115
241.461
236.558
246.369
255.61
242.422
212.667
199.736
200.207
205.6
226.944
233.235
234.072
233.562
237.37
247.75
295.895
295.585
295.005
294.503
293.323
292.271
292.844
293.817
294.57
295.117
294.942
294.893
293.972
291.873
289.2
286.418
283.736
281.65
279.503
278.293
277.867
278.207
279.127
280.236
281.476
282.714
282.673
282.751
284.583
288.194
290.83
291.271
290.677
289.42
288.406
288.421
289.614
291.396
290.637
291.111
289.048
288.987
290.792
292.759
295.098
295.753
296.091
295.758
295.142
294.657
294.474
294.609
294.611
294.281
293.496
292.471
291.505
291.085
291.253
291.475
291.16
290.175
289.224
288.615
288.336
288.569
288.809
288.907
289.418
290.356
291.436
292.417
293.16
293.769
294.561
294.983
294.209
292.007
289.874
289.672
289.315
292.479
293.655
292.765
292.571
289.841
288.177
290.742
287.523
292.135
292.448
293.527
293.933
296.698
291.795
295.004
295.107
293.194
294.302
292.049
287.104
293.335
298.098
289.704
285.922
289.556
288.401
289.754
287.741
285.759
290.102
281.423
275.749
285.657
290.083
290.883
293.011
283.117
265.513
257.021
255.554
260.598
271.969
276.307
278.664
280.096
280.09
278.842
281.475
283.943
291.55
297.224
294.791
284.986
266.795
280.667
295.657
284.939
287.223
286.055
286.763
289.479
286.719
270.527
276.824
275.497
288.481
276.416
277.778
261.513
258.459
251.275
256.369
254.333
248.572
259.278
256.843
240.948
266.234
262.319
239.864
257.993
279.938
265.455
234.591
242.717
237.72
245.043
257.159
247.469
216.664
200.889
198.656
205.499
227.771
234.321
234.513
231.684
243.053
244.353
296.339
296.111
295.353
294.316
293.418
293.323
293.666
292.786
293.068
293.548
293.779
294.465
293.66
292.501
290.397
287.985
284.959
281.495
278.271
276.676
276.215
276.377
276.506
277.176
279.258
282.004
283.759
285.044
288.383
292.902
293.903
292.44
291.582
291.038
291.179
291.554
291.551
290.735
290.731
289.466
287.173
289.022
291.598
294.245
295.95
296.209
296.356
295.741
295.328
294.378
293.831
293.331
292.843
292.784
292.413
291.8
290.735
289.727
288.998
288.641
288.906
289.28
289.362
289.297
289.082
288.962
289.167
289.571
290.256
291.21
292.312
293.165
293.629
293.934
294.312
294.144
292.505
289.449
288.503
292.029
293.863
295.844
295.18
291.382
288.324
288.992
283.486
285.092
284.127
284.589
287.104
288.904
289.287
293.437
295.225
292.376
294.72
296.318
292.29
298.096
296.264
289.106
292.165
292.971
289.953
293.228
289.959
289.682
294.875
292.606
294.223
285.287
277.096
284.415
289.03
291.703
294.318
287.967
270.039
259.499
257.043
260.283
270.914
274.957
281.831
286.205
288.16
284.233
282.254
291.339
295.805
299.99
302.936
289.097
277.335
282.591
283.083
289.403
277.337
275.426
294.224
292.323
287.272
291.562
301.272
299.893
296.597
265.224
272.879
248.897
254.974
259.106
251.815
257.631
242.451
245.408
247.527
242.504
265.92
262.875
240.396
253.538
275.302
264.829
237.799
244.623
238.707
245.934
258.653
251.921
222.195
203.956
198.284
205.864
227.772
232.595
231.435
231.964
249.728
245.743
296.78
296.423
294.916
293.544
293.523
293.967
293.515
293.675
297.169
298.915
300.005
301.199
300.177
298.577
295.743
292.027
287.977
283.833
279.539
275.998
274.555
276.353
279.91
283.892
286.701
288.363
289.868
291.393
293.723
294.979
292.558
289.957
289.308
289.068
288.862
288.253
287.72
288.062
287.623
285.93
287.267
290.785
293.308
295.504
296.109
296.403
295.868
294.895
294.532
293.66
293.48
293
292.861
293.264
293.253
293.428
293.449
293.342
293.024
292.356
291.265
290.167
289.664
289.374
289.091
288.834
288.461
288.206
288.539
289.403
290.259
290.975
291.516
292.152
292.601
292.273
290.671
287.377
288.314
294.68
297.562
294.307
289.602
287.361
283.233
284.275
285.104
281.629
284.155
282.978
285.021
287.209
289.419
288.327
290.089
291.707
288.4
296.702
291.939
289.037
294.946
294.025
292.799
292.337
289.993
293.356
293.079
287.102
292.339
296.528
300.387
292.136
280.146
282.713
284.121
287.614
291.555
290.84
273.116
261.995
258.548
260.625
268.487
275.207
285.443
293.523
294.454
289.8
282.089
290.1
298.674
301.863
306.018
288.867
283.261
290.029
287.849
283.246
281.464
287.192
298.384
298.146
290.481
298.015
298.775
289.355
271.205
247.847
249.672
233.825
242.759
247.214
238.341
244.427
227.046
231.736
240.585
245.507
263.523
261
240.511
252.678
271.441
263.039
240.852
247.889
240.745
246.479
261.187
253.408
224.789
205.855
198.106
206.89
228.177
229.432
228.146
235.117
252.759
251.947
297.142
296.432
294.65
294.201
294.719
295.027
294.439
295.189
297.537
297.81
298.324
299.103
299.433
299.38
298.212
296.131
292.969
288.974
285.214
282.252
280.304
280.154
282.437
286.576
290.402
292.191
293.156
293.554
293.077
291.621
289.223
288.094
287.679
287.312
287.122
287.211
287.205
286.444
284.998
285.72
288.975
292.689
296.02
297.296
296.477
296.144
295.404
295.303
295.497
294.638
294.291
293.94
293.679
293.558
293.097
292.717
292.434
292.724
293.423
293.964
294.518
294.612
293.976
292.966
291.864
291.063
290.394
289.98
289.95
290.141
290.653
291.47
292.223
292.465
292.182
289.849
288.329
286.637
289.728
295.612
297.404
291.416
284.953
284.539
287.224
287.364
290.659
288.551
287.375
287.11
286.975
288.65
291.999
295.741
293.67
296.616
292.499
293.452
295.505
290.879
292.452
292.859
294.126
296.16
292.425
291.435
296.057
289.148
285.997
291.957
302.946
297.288
281.09
281.889
285.189
287.952
289.901
292.122
273.745
264.058
258.85
261.339
267.576
277.465
289.161
300.011
301.771
295.463
284.546
286.268
300.646
302.265
306.693
289.282
283.649
288.032
280.153
288.45
289.66
301.916
297.326
295.962
278
285.198
273.068
260.867
251.914
245.331
245.476
238.34
234.86
237.828
237.711
233.426
218.491
227.823
240.402
249.129
260.035
257.174
240.429
253.965
267.987
259.829
244.928
251.839
243.357
246.151
263.832
254.948
226.12
207.271
198.433
208.396
228.78
228.291
228.495
240.437
252.874
256.701
297.524
296.809
295.738
295.38
294.957
294.49
292.993
293.294
293.574
292.174
293.095
294.872
296.443
297.708
297.964
297.077
294.45
290.688
286.987
283.605
281.35
280.782
282.09
284.43
287.391
289.481
290.389
290.055
288.83
287.384
286.22
286.316
286.977
287.829
288.989
289.894
289.699
288.121
287.674
290.21
292.094
293.404
296.352
298.077
297.337
295.795
294.823
295.71
296.04
295.064
295.08
295.273
295.455
295.982
295.912
295.359
294.895
294.439
293.505
292.264
291.779
292.412
293.07
293.332
293.318
292.985
292.525
292.072
291.828
291.86
292.035
291.521
290.355
288.849
287.75
286.061
286.245
289.76
295.259
296.672
293.081
288.285
286.736
284.907
287.494
289.685
291.203
291.896
289.171
288.741
287.428
287.953
287.737
290.179
292.111
294.646
294.48
293.941
298.139
293.758
294.047
293.283
288.915
293.118
295.638
291.716
295.513
295.943
285.499
285.988
302.347
303.371
283.436
281.143
288.525
291.043
292.325
294.635
274.756
265.519
259.772
260.746
267.805
279.93
291.113
301.873
306.447
302.538
291.498
288.569
301.708
300.827
309.955
292.92
285.463
283.473
285.191
296.597
297.329
301.337
287.05
280.122
264.643
269.161
257.359
252.024
245.768
243.525
245.296
246.687
235.993
237.834
245.931
234.445
224.802
231.919
240.375
247.333
253.64
250.091
239.262
256.027
265.054
257.232
250.032
254.887
244.312
245.302
266.019
256.619
227.176
208.978
199.057
209.588
228.869
228.136
231.453
244.094
251.024
258.312
297.973
297.406
296.488
295.481
294.806
295.067
295.123
294.909
294.442
294.789
295.021
294.295
294.139
295.051
296.516
297.71
298.079
297.042
293.898
290.083
286.633
283.754
282.43
282.576
283.827
285.509
286.675
286.939
286.588
286.095
285.854
286.716
288.142
289.724
290.533
290.204
289.915
290.661
292.425
295.37
297.232
296.954
296.507
297.653
298.326
296.176
293.861
294.474
295.481
295.356
296.076
297.003
297.709
298.528
299.191
300.339
301.35
301.667
301.386
300.328
297.674
294.869
293.815
293.663
293.548
293.231
292.759
292.393
291.613
290.672
288.869
287.677
287.087
287.426
285.463
286.309
289.764
295.778
300.452
298.967
293.24
291.024
291.285
288.613
286.119
284.506
285.806
287.086
285.677
285.267
284.84
285.376
287.835
291.032
289.808
293.255
295.172
290.872
295.896
293.153
290.89
296.708
294.496
292.824
294.733
289.813
289.928
299.602
293.225
282.95
293.483
302.774
288.799
284.885
292.014
289.937
291.003
292.741
276.4
264.618
262.727
259.698
266.792
279.614
289.166
298.802
306.834
306.524
298.362
294.777
303.26
300.037
310.934
288.284
285.863
279.477
282.935
304.131
311.978
296.455
276.773
263.091
256.819
256.938
248.336
243.67
237.353
239.32
241.325
246.524
232.111
233.243
241.845
228.356
232.957
236.61
236.808
242.679
246.735
242.945
240.728
259.593
262.579
256.631
253.648
256.08
242.498
239.438
266.291
257.778
226.777
209.978
199.703
211.301
229.951
228.412
234.601
245.154
250.975
258.899
298.378
297.726
296.764
296.034
296.133
295.832
296.996
297.189
296.958
296.299
293.956
293.49
293.649
293.726
294.859
296.148
297.45
298.539
298.706
297.55
294.705
291.14
287.863
285.392
284.141
284.041
284.523
285.141
285.856
286.64
287.342
289.118
291.422
294.423
295.903
294.206
291.422
291.393
293.772
295.527
297.779
299.817
298.431
297.685
298.497
297.486
295.021
294.406
295.149
295.729
296.895
297.967
298.709
299.045
299.09
299.467
300.221
301.519
302.8
303.181
302.999
302.186
300.252
297.435
295.501
294.738
293.472
291.657
290.456
289.43
289.342
290.205
289.843
291.191
292.121
293.84
296.628
298.282
297.302
294.042
294.175
297.881
295.544
288.644
283.09
282.125
284.357
286.955
286.629
284.883
284.223
286.145
283.426
288.605
289.406
288.887
295.38
290.716
294.942
297.111
291.352
291.206
289.854
291.325
296.713
294.145
289.054
295.184
296.09
283.909
290.508
303.071
291.238
284.494
291.686
290.786
292.689
290.864
279.864
263.192
265.118
261.102
264.737
277.217
284.546
294.104
303.832
306.806
304.37
299.71
306.962
299.815
308.016
291.884
289.563
280.348
285.562
324.787
298.547
276.62
264.43
258.76
244.989
244.243
239.306
235.729
244.906
245.092
246.026
251.683
229.336
241.96
239.66
223.99
245.622
239.731
233.167
240.129
241.345
239.121
245.754
261.738
259.891
257.387
256.422
259.143
240.462
232.921
265.817
261.691
228.355
211.554
200.7
213.586
231.678
229.516
237.467
244.263
252.373
258.343
298.61
297.367
296.502
295.707
296.243
295.528
295.917
296.074
295.791
295.904
294.293
293.115
292.103
291.351
291.174
291.647
292.718
294.021
295.938
297.825
299.006
299.129
297.664
294.955
291.807
288.942
286.707
285.459
285.087
285.666
287.025
288.981
291.655
295.168
297.97
297.907
295.299
293.948
295.483
295.813
295.895
298.06
297.577
296.177
296.439
297.022
296.325
295.691
296.225
296.958
297.7
298.419
298.562
297.55
296.294
295.555
295.692
295.736
296.293
297.851
299.704
301.164
300.753
299.738
298.423
296.163
295.032
294.55
294.645
294.726
296.275
296.318
297.109
298.532
299.08
296.783
296.419
297.062
298.269
294.815
296.624
301.223
294.694
286.833
281.082
282.608
288.357
290.16
291.9
289.703
287.923
290.077
292.029
292.34
295.246
290.534
296.221
291.552
290.359
291.208
292.014
298.137
294.82
290.601
293.519
292.189
290.103
294.186
296.754
284.299
288.232
305.701
292.653
283.886
290.129
291.616
293.935
290.75
283.157
264.151
264.171
263.687
264.765
275.426
279.996
288.635
299.912
305.072
307.642
306.436
307.192
303.553
308.44
290.797
291.252
279.119
278.881
322.624
281.996
265.072
257.78
256.701
232.832
231.498
235.034
243.454
265.09
257.918
258.391
262.221
233.972
257.754
238.47
227.759
260.972
242.941
233.555
240.266
238.752
240.351
252.392
262.533
258.381
258.216
258.473
266.611
242.545
229.733
263.017
265.296
230.816
213.361
201.713
215.615
233.168
232.565
240.858
243.963
255.137
257.957
298.524
296.532
295.982
295.87
295.99
295.845
295.835
295.956
295.9
295.968
294.17
293.246
292.295
291.951
292.45
292.452
292.409
292.112
291.886
291.812
292.314
293.865
296.255
298.568
299.677
299.039
296.779
293.79
290.657
288.355
287.148
287.294
288.727
291.896
295.027
296.616
295.545
294.121
295.375
296.632
296.457
297.894
298.323
297.233
296.028
295.699
295.841
295.965
296.745
297.646
297.957
298.001
297.746
296.747
295.427
294.225
293.368
292.654
292.243
293.187
295.425
297.192
298.863
299.604
298.95
298.762
297.877
298.059
299.492
300.117
300.044
299.708
300.561
298.32
296.003
293.936
297.333
297.606
295.043
295.716
297.558
299.478
292.574
284.655
284.291
285.493
292.518
289.735
292.739
289.505
290.351
290.549
291.948