/*--------------------------------*- C++ -*----------------------------------*\
| =========                 |                                                 |
| \\      /  F ield         | OpenFOAM: The Open Source CFD Toolbox           |
|  \\    /   O peration     | Version:  dev                                   |
|   \\  /    A nd           | Web:      http://www.openfoam.org               |
|    \\/     M anipulation  |                                                 |
\*---------------------------------------------------------------------------*/
FoamFile
{
    version     2.0;
    format      ascii;
    class       volVectorField;
    object      U;
    location    "9.144";
}
// * * * * * * * * * * * * * * * * * * * * * * * * * * * * * * * * * * * * * //

dimensions      [0 1 -1 0 0 0 0];

internalField   nonuniform List<vector> 
12225
(
(6.23239 0.669997 0)
(2.06304 0.421405 0)
(-1.2206 0.256281 0)
(-2.57309 0.213145 0)
(-4.81963 0.267342 0)
(-5.33644 0.190736 0)
(-7.28838 0.291235 0)
(-7.77162 0.208229 0)
(-9.37517 0.289152 0)
(-9.66705 0.180298 0)
(-11.4881 0.360724 0)
(-10.7639 0.0721459 0)
(-13.8152 0.517265 0)
(-11.5458 -0.0732327 0)
(-13.9185 0.223007 0)
(-10.469 -0.155222 0)
(-1.16299 -0.713745 0)
(-15.7813 10.1114 0)
(8.71403 1.7366 0)
(7.22066 1.55384 0)
(3.03927 1.17224 0)
(2.65223 0.904994 0)
(-1.76811 0.897663 0)
(-0.796928 0.722014 0)
(-4.8429 0.923286 0)
(-3.80205 0.700488 0)
(-7.18495 0.920377 0)
(-5.99442 0.688941 0)
(-10.1642 1.04894 0)
(-6.41618 0.499977 0)
(-14.1854 1.3831 0)
(-5.42944 -0.681227 0)
(-15.7206 1.7126 0)
(-4.43527 -2.17237 0)
(-15.5387 -1.68577 0)
(-24.6536 7.43312 0)
(8.25763 2.11336 0)
(9.95764 2.11822 0)
(4.79862 1.85579 0)
(7.07065 1.60382 0)
(0.62049 1.64944 0)
(4.07437 1.38238 0)
(-2.2111 1.67179 0)
(1.14991 1.25131 0)
(-4.29719 1.604 0)
(-0.863326 1.4587 0)
(-6.61417 1.55244 0)
(-1.99351 1.26632 0)
(-8.57471 1.97632 0)
(-4.07167 0.674742 0)
(-13.2553 1.87819 0)
(-2.12053 -0.316766 0)
(-19.6434 3.80637 0)
(-18.4439 0.501113 0)
(6.27891 2.51134 0)
(11.7458 2.72152 0)
(3.55392 2.43891 0)
(10.0062 2.22133 0)
(0.680894 2.38115 0)
(7.74355 1.86414 0)
(-1.44368 2.43481 0)
(5.63489 1.94938 0)
(-3.18669 2.24387 0)
(3.40229 1.75919 0)
(-4.38163 2.59429 0)
(1.62479 1.54434 0)
(-4.21843 3.48785 0)
(-1.30972 0.891117 0)
(-8.87427 2.86602 0)
(-8.22384 1.37527 0)
(-8.10609 5.37984 0)
(-19.1295 9.12119 0)
(3.92369 3.26364 0)
(14.2313 3.12799 0)
(1.86535 2.99014 0)
(11.5675 2.62945 0)
(0.494967 3.24051 0)
(8.78879 2.32351 0)
(-1.67423 3.2262 0)
(7.00536 2.16821 0)
(-1.74106 3.33382 0)
(2.28648 2.63522 0)
(-3.25957 3.42496 0)
(1.37066 1.20786 0)
(-2.81404 4.77857 0)
(-1.6462 3.23483 0)
(-8.03519 5.72305 0)
(-8.30783 -2.92678 0)
(-4.0655 7.9376 0)
(-16.4293 11.1272 0)
(3.89603 3.88545 0)
(13.3956 3.57364 0)
(3.00615 3.64205 0)
(9.43365 3.01004 0)
(2.66724 3.90045 0)
(6.4273 3.16933 0)
(0.276374 3.6022 0)
(3.67406 2.83673 0)
(-1.59979 4.54899 0)
(1.6098 3.02174 0)
(-0.214257 3.83335 0)
(-4.4524 2.70912 0)
(-3.19981 5.67806 0)
(-2.66789 3.64581 0)
(-3.96949 8.03488 0)
(-7.41698 0.36975 0)
(-7.51832 11.1028 0)
(-11.6107 13.7484 0)
(5.97209 5.00308 0)
(10.5591 3.69322 0)
(4.40469 4.84797 0)
(6.84593 3.11605 0)
(3.26349 5.0506 0)
(4.37941 3.63852 0)
(0.392361 5.15736 0)
(1.05017 3.36091 0)
(-0.314441 5.07141 0)
(0.497227 2.84341 0)
(-2.01815 7.08378 0)
(-2.94928 2.4262 0)
(-2.54885 6.16949 0)
(-5.27851 3.38338 0)
(-0.50007 10.2937 0)
(-5.41127 1.98964 0)
(-7.77975 12.5203 0)
(-2.02401 10.5005 0)
(8.22234 5.75645 0)
(8.08618 4.32916 0)
(5.54094 5.38732 0)
(5.98156 3.85118 0)
(2.53005 5.48313 0)
(3.87627 4.76809 0)
(0.57872 5.65233 0)
(2.36028 3.86633 0)
(-0.615624 5.35276 0)
(0.186881 4.37205 0)
(-2.59314 7.10868 0)
(-0.637291 3.97382 0)
(-4.46617 7.11414 0)
(-2.23912 3.95675 0)
(-2.8664 9.36361 0)
(-2.4083 5.99881 0)
(-6.87808 7.6997 0)
(-2.00489 12.3513 0)
(9.49931 6.4393 0)
(7.91231 4.7554 0)
(5.88285 6.19109 0)
(6.67419 4.48265 0)
(1.85557 6.55209 0)
(4.43334 4.83078 0)
(0.683137 6.44195 0)
(3.16856 4.35429 0)
(-1.21578 6.68564 0)
(-0.0234264 4.61613 0)
(-2.374 7.80225 0)
(-1.67583 4.77682 0)
(-3.20216 7.63064 0)
(-2.36706 4.39918 0)
(-4.75291 9.92676 0)
(-3.3583 5.73751 0)
(-5.89925 11.0943 0)
(-5.14706 10.927 0)
(9.16422 6.80212 0)
(8.22137 6.01147 0)
(6.14693 6.30044 0)
(6.05322 5.90252 0)
(3.28918 6.65409 0)
(3.61307 5.86191 0)
(2.06155 6.49801 0)
(1.40518 5.49381 0)
(0.614491 7.12948 0)
(-1.06103 5.92326 0)
(-0.983298 8.08558 0)
(-1.60287 5.54197 0)
(-1.79054 7.54878 0)
(-3.1125 6.62261 0)
(-3.70173 9.79898 0)
(-2.90114 8.52759 0)
(-4.50601 9.35679 0)
(-2.94047 11.553 0)
(8.90849 7.99048 0)
(7.52918 6.05051 0)
(6.68154 7.73118 0)
(5.00344 5.94043 0)
(4.47908 7.9621 0)
(2.95619 5.89831 0)
(2.54444 7.85907 0)
(1.10405 5.9014 0)
(0.542633 8.16845 0)
(-0.239584 6.63557 0)
(-0.651209 8.38896 0)
(-0.584124 6.73914 0)
(-1.93551 8.52785 0)
(-2.17469 7.36794 0)
(-2.74785 9.75339 0)
(-2.079 9.01818 0)
(-2.69239 10.5771 0)
(-2.71749 11.4619 0)
(9.65204 8.45209 0)
(7.60544 7.45137 0)
(6.78492 7.8467 0)
(5.3463 7.60797 0)
(4.37573 8.04048 0)
(3.39569 7.60988 0)
(2.30699 8.00697 0)
(1.43959 7.48744 0)
(0.482115 8.50238 0)
(-0.0147808 7.79682 0)
(-0.42643 8.83506 0)
(-0.833791 7.88226 0)
(-1.42133 9.18129 0)
(-1.74034 9.08544 0)
(-2.12275 10.0151 0)
(-1.97506 10.0024 0)
(-2.00094 10.6797 0)
(-1.6026 11.5264 0)
(9.37353 10.0165 0)
(7.67986 7.9845 0)
(6.5305 9.10262 0)
(5.1281 7.8854 0)
(4.16118 9.18501 0)
(3.05364 8.08111 0)
(2.25469 9.12405 0)
(1.28362 8.26199 0)
(0.593898 9.10477 0)
(0.00747569 8.65359 0)
(-0.49587 9.30272 0)
(-0.974964 8.98074 0)
(-1.45107 9.52843 0)
(-1.55252 9.7066 0)
(-1.66118 10.4043 0)
(-1.63676 10.8322 0)
(-1.56284 11.1859 0)
(-1.22111 11.6206 0)
(9.2029 10.4317 0)
(7.94717 9.38808 0)
(6.68602 9.46542 0)
(5.45695 9.3739 0)
(4.18884 9.56131 0)
(3.15112 9.35744 0)
(2.21237 9.57607 0)
(1.46795 9.40165 0)
(0.66638 9.75299 0)
(0.109387 9.7242 0)
(-0.372516 10.0061 0)
(-0.776874 10.0856 0)
(-1.14949 10.4518 0)
(-1.40268 10.7015 0)
(-1.46424 10.9881 0)
(-1.34267 11.2325 0)
(-1.18558 11.5606 0)
(-0.789344 11.8605 0)
(9.14763 11.541 0)
(7.74489 9.89859 0)
(6.57512 10.2383 0)
(5.40235 10.1231 0)
(4.25301 10.4269 0)
(3.18176 10.2205 0)
(2.20662 10.3299 0)
(1.35428 10.2306 0)
(0.587096 10.4004 0)
(-0.00407353 10.5062 0)
(-0.474918 10.6319 0)
(-0.844655 10.7615 0)
(-1.13187 10.9214 0)
(-1.24994 11.133 0)
(-1.27226 11.3717 0)
(-1.18812 11.5734 0)
(-1.08443 11.7735 0)
(-0.752667 11.9399 0)
(9.29174 12.1677 0)
(7.88503 10.8114 0)
(6.4797 10.6799 0)
(5.25619 10.7285 0)
(4.12137 10.855 0)
(3.12239 10.8807 0)
(2.18746 10.9494 0)
(1.35537 10.9939 0)
(0.624386 11.0803 0)
(0.0670575 11.1387 0)
(-0.394509 11.2174 0)
(-0.684462 11.296 0)
(-0.914086 11.4307 0)
(-1.0534 11.574 0)
(-1.0703 11.6988 0)
(-0.972172 11.8109 0)
(-0.860079 11.9155 0)
(-0.567199 12.023 0)
(9.10816 12.6563 0)
(7.8206 11.2078 0)
(6.45995 11.0385 0)
(5.2099 11.0933 0)
(4.04088 11.1739 0)
(3.04373 11.2315 0)
(2.13853 11.2664 0)
(1.37946 11.2757 0)
(0.708548 11.2903 0)
(0.170431 11.3004 0)
(-0.268482 11.3169 0)
(-0.579356 11.3544 0)
(-0.822287 11.4319 0)
(-0.946516 11.5037 0)
(-1.00137 11.5832 0)
(-0.959954 11.6497 0)
(-0.886894 11.7014 0)
(-0.654246 11.7582 0)
(9.0838 12.3589 0)
(7.8265 10.8452 0)
(6.50997 10.7918 0)
(5.26459 10.9094 0)
(4.13263 10.9959 0)
(3.14992 11.0508 0)
(2.27897 11.059 0)
(1.57765 11.0726 0)
(0.965536 11.1019 0)
(0.464566 11.1409 0)
(0.0366173 11.1475 0)
(-0.266438 11.1843 0)
(-0.509582 11.2408 0)
(-0.666795 11.2627 0)
(-0.758148 11.2478 0)
(-0.775828 11.2338 0)
(-0.75579 11.2032 0)
(-0.569683 11.1649 0)
(9.45556 11.7394 0)
(7.96295 10.3444 0)
(6.47217 10.3041 0)
(5.14005 10.3815 0)
(3.98828 10.4271 0)
(3.00984 10.4125 0)
(2.14712 10.3485 0)
(1.43315 10.2956 0)
(0.829089 10.2796 0)
(0.34954 10.2917 0)
(-0.0206806 10.2781 0)
(-0.283754 10.2869 0)
(-0.487423 10.3833 0)
(-0.566334 10.4245 0)
(-0.621013 10.3815 0)
(-0.628215 10.3597 0)
(-0.557255 10.3265 0)
(-0.386549 10.249 0)
(9.22986 10.7482 0)
(7.96961 9.52544 0)
(6.65254 9.45226 0)
(5.48239 9.47256 0)
(4.43261 9.49018 0)
(3.47652 9.49723 0)
(2.58076 9.44909 0)
(1.79291 9.37141 0)
(1.11341 9.35323 0)
(0.581859 9.36794 0)
(0.114015 9.32265 0)
(-0.221041 9.25554 0)
(-0.447888 9.32373 0)
(-0.567274 9.36317 0)
(-0.623708 9.30515 0)
(-0.591992 9.26746 0)
(-0.510959 9.25191 0)
(-0.375315 9.18601 0)
(9.25403 9.56452 0)
(7.95272 8.33339 0)
(6.61207 8.14838 0)
(5.4188 8.16662 0)
(4.35194 8.24848 0)
(3.41254 8.32263 0)
(2.56909 8.33211 0)
(1.82056 8.27651 0)
(1.1599 8.25554 0)
(0.657733 8.27518 0)
(0.233131 8.23971 0)
(-0.142025 8.14536 0)
(-0.417915 8.1342 0)
(-0.51961 8.15163 0)
(-0.593915 8.08421 0)
(-0.619492 8.03609 0)
(-0.547814 8.01565 0)
(-0.4434 7.9542 0)
(9.25961 8.45654 0)
(8.11773 7.26978 0)
(6.82714 7.03128 0)
(5.57925 7.02766 0)
(4.45011 7.0812 0)
(3.46914 7.14352 0)
(2.62844 7.18569 0)
(1.89585 7.17817 0)
(1.24704 7.16382 0)
(0.76179 7.16951 0)
(0.382793 7.11298 0)
(0.0292896 7.06376 0)
(-0.272053 7.0078 0)
(-0.396066 6.95864 0)
(-0.456598 6.94008 0)
(-0.493733 6.90985 0)
(-0.431332 6.86181 0)
(-0.356001 6.84835 0)
(9.59891 6.99501 0)
(8.34363 5.93703 0)
(7.03015 5.75704 0)
(5.75244 5.80467 0)
(4.58421 5.8507 0)
(3.55784 5.88921 0)
(2.67783 5.92255 0)
(1.95624 5.93868 0)
(1.39694 5.95954 0)
(0.952017 5.9287 0)
(0.562637 5.87568 0)
(0.255746 5.86804 0)
(0.0192602 5.8148 0)
(-0.147417 5.73151 0)
(-0.260765 5.71057 0)
(-0.270623 5.69073 0)
(-0.255673 5.64938 0)
(-0.185108 5.66804 0)
(9.28983 5.82106 0)
(8.21322 4.90221 0)
(7.02879 4.69548 0)
(5.87012 4.72763 0)
(4.7837 4.80764 0)
(3.78641 4.86187 0)
(2.9181 4.88522 0)
(2.19868 4.86759 0)
(1.6008 4.81993 0)
(1.14209 4.79707 0)
(0.756147 4.82275 0)
(0.439796 4.80168 0)
(0.206095 4.77014 0)
(0.0422515 4.76671 0)
(-0.113667 4.70524 0)
(-0.195446 4.67935 0)
(-0.201646 4.66461 0)
(-0.172366 4.60708 0)
(9.49518 4.62341 0)
(8.40758 3.76258 0)
(7.23077 3.57858 0)
(6.07937 3.6075 0)
(5.01308 3.68128 0)
(4.03709 3.724 0)
(3.18463 3.74395 0)
(2.4819 3.74008 0)
(1.89419 3.72262 0)
(1.39367 3.71649 0)
(0.995255 3.72643 0)
(0.702298 3.7426 0)
(0.440024 3.72518 0)
(0.254494 3.71212 0)
(0.128429 3.71807 0)
(0.0324341 3.70106 0)
(0.000525193 3.67769 0)
(0.0452584 3.65576 0)
(9.40054 3.44629 0)
(8.4857 2.70595 0)
(7.42264 2.55963 0)
(6.31514 2.63731 0)
(5.26404 2.74995 0)
(4.29235 2.81753 0)
(3.42789 2.84148 0)
(2.68131 2.83658 0)
(2.03664 2.81801 0)
(1.51066 2.84138 0)
(1.07335 2.85383 0)
(0.715637 2.83189 0)
(0.44375 2.84797 0)
(0.22958 2.85536 0)
(0.0725781 2.82635 0)
(0.00369931 2.81778 0)
(-0.0334411 2.80428 0)
(-0.0283604 2.77706 0)
(9.11764 2.30961 0)
(8.41765 1.7352 0)
(7.47566 1.65467 0)
(6.38361 1.72354 0)
(5.27401 1.81315 0)
(4.18763 1.86546 0)
(3.21832 1.89776 0)
(2.35093 1.91346 0)
(1.58959 1.90934 0)
(0.957961 1.94409 0)
(0.441098 1.96727 0)
(-0.00779242 1.9699 0)
(-0.345702 1.98332 0)
(-0.631058 1.98532 0)
(-0.837661 1.98043 0)
(-0.987386 1.97043 0)
(-1.08021 1.98274 0)
(-1.15562 1.98389 0)
(9.13728 1.28721 0)
(8.48817 0.707463 0)
(7.38517 0.764113 0)
(5.99457 0.928177 0)
(4.58007 1.08492 0)
(3.223 1.18952 0)
(2.02862 1.24729 0)
(0.94271 1.26261 0)
(-0.0155625 1.26817 0)
(-0.840438 1.291 0)
(-1.5211 1.30903 0)
(-2.13104 1.30978 0)
(-2.61131 1.32752 0)
(-3.03349 1.33245 0)
(-3.33783 1.34871 0)
(-3.61001 1.33613 0)
(-3.77943 1.34472 0)
(-3.92654 1.35874 0)
(9.4491 0.26955 0)
(8.00137 -0.124343 0)
(5.91164 0.0720645 0)
(3.70657 0.299998 0)
(1.75172 0.48885 0)
(0.0642895 0.61889 0)
(-1.35301 0.71035 0)
(-2.55848 0.754548 0)
(-3.59946 0.762038 0)
(-4.46583 0.775841 0)
(-5.19156 0.786676 0)
(-5.80804 0.787308 0)
(-6.2707 0.796744 0)
(-6.65527 0.797976 0)
(-6.94582 0.790902 0)
(-7.16601 0.785138 0)
(-7.29059 0.775577 0)
(-7.40691 0.780233 0)
(7.73459 -0.132996 0)
(4.10596 -0.100824 0)
(0.864612 0.128814 0)
(-1.61626 0.240142 0)
(-3.43097 0.287582 0)
(-4.82313 0.292166 0)
(-5.92999 0.294669 0)
(-6.84307 0.285889 0)
(-7.62259 0.265135 0)
(-8.30033 0.261392 0)
(-8.86826 0.264145 0)
(-9.33034 0.262527 0)
(-9.6963 0.25966 0)
(-9.97974 0.261153 0)
(-10.1889 0.258208 0)
(-10.3361 0.263133 0)
(-10.4193 0.244424 0)
(-10.5258 0.276175 0)
(0.0936903 0.16584 0)
(0.18025 0.182001 0)
(0.259423 0.203817 0)
(0.380441 0.166075 0)
(0.567117 0.116188 0)
(0.823894 0.0553589 0)
(1.16226 -0.0197857 1.09366e-17)
(1.57567 -0.0950831 -1.0868e-17)
(2.07762 -0.163972 0)
(2.64089 -0.215298 -1.07385e-17)
(3.26928 -0.246818 0)
(3.92259 -0.246532 0)
(4.57555 -0.231204 0)
(5.21527 -0.221368 1.04898e-17)
(5.86079 -0.189902 0)
(6.45654 -0.115556 0)
(6.98484 -0.0764164 -1.03105e-17)
(7.4722 -0.0230946 0)
(7.91481 0.053218 0)
(8.2619 0.110505 0)
(8.5447 0.162491 1.00877e-17)
(8.79518 0.213741 0)
(8.97275 0.251301 9.97503e-18)
(9.08382 0.279341 0)
(9.1367 0.331057 0)
(9.1197 0.356166 9.80334e-18)
(9.07486 0.339504 0)
(9.00893 0.344427 -9.67905e-18)
(8.90798 0.297043 0)
(8.80487 0.298869 9.55614e-18)
(8.68275 0.373558 0)
(8.49863 0.485841 0)
(8.36773 0.78208 0)
(8.19621 1.01125 0)
(7.91773 0.787626 0)
(7.7049 0.315046 -9.27061e-18)
(7.6238 -0.0313813 0)
(7.62472 -0.123419 1.81547e-17)
(7.70353 -0.0318953 0)
(7.85022 0.089842 -1.77998e-17)
(8.07647 0.160664 0)
(8.38413 0.176474 0)
(8.76873 0.172734 1.73259e-17)
(9.21218 0.151188 0)
(9.73425 0.105768 1.70678e-17)
(10.3898 0.0585059 -1.69611e-17)
(11.1463 0.055002 0)
(11.9009 0.173329 -1.6825e-17)
(12.5259 0.306188 -1.68141e-17)
(12.9046 0.329745 0)
(13.071 0.222366 0)
(13.2022 0.0972919 0)
(13.4211 0.0308417 0)
(13.7653 0.0819541 0)
(14.1855 0.207849 1.63408e-17)
(14.6323 0.319696 0)
(15.1298 0.380653 -1.61627e-17)
(15.6205 0.326955 0)
(16.0361 0.159252 0)
(16.3848 -0.0305571 1.58885e-17)
(16.6895 -0.131498 0)
(16.9724 -0.135796 -1.56902e-17)
(17.2034 -0.049745 0)
(17.3231 0.0565781 0)
(17.3185 0.14903 0)
(17.229 0.191588 1.52173e-17)
(17.092 0.172442 0)
(16.8968 0.0916418 0)
(16.5732 -0.02339 1.48661e-17)
(15.9892 -0.129453 0)
(15.0464 -0.0667225 1.46565e-17)
(13.5846 0.342649 0)
(11.4571 1.05273 0)
(8.85392 1.71111 0)
(6.15748 1.92576 -1.41051e-17)
(3.71395 1.71361 0)
(1.73078 1.39417 0)
(0.240373 1.10255 -1.36969e-17)
(-0.857947 0.825268 -1.35767e-17)
(-1.59548 0.577474 0)
(-2.02045 0.37635 -1.33332e-17)
(-2.27601 0.195593 0)
(-2.40324 0.0695092 -2.62278e-17)
(-2.42685 -0.0221543 0)
(-2.41182 -0.0809201 -2.5808e-17)
(-2.41211 -0.12368 0)
(-2.41806 -0.130446 2.5405e-17)
(-2.42048 -0.1253 0)
(-2.41461 -0.147008 0)
(-2.44296 -0.187446 0)
(-2.48508 -0.176462 -2.46385e-17)
(-2.51284 -0.208008 0)
(-2.51932 -0.205673 2.42467e-17)
(-2.52046 -0.221259 0)
(-2.48245 -0.229142 -2.38526e-17)
(-2.43815 -0.237789 -2.36685e-17)
(-2.3944 -0.239901 -2.34862e-17)
(-2.29237 -0.280739 0)
(-2.22957 -0.261813 0)
(-2.05237 -0.310817 0)
(-1.87779 -0.32419 0)
(-1.58702 -0.334446 0)
(-1.32161 -0.323036 0)
(-1.22751 -0.294045 0)
(-1.05907 -0.400589 0)
(-0.489912 -0.526972 2.19717e-17)
(0.296697 -0.497467 2.17904e-17)
(1.00809 -0.332967 0)
(1.27711 -0.242712 0)
(1.29154 -0.266592 0)
(1.29189 -0.345653 2.11344e-17)
(1.26602 -0.458076 0)
(1.50198 -0.602872 0)
(1.79546 -0.675061 0)
(2.07177 -0.673484 0)
(2.62726 -0.615886 -1.97527e-17)
(2.74047 -0.50174 0)
(2.46601 -0.473654 0)
(2.81202 -0.636763 1.85111e-17)
(3.60823 -0.556414 -1.87881e-17)
(3.84294 -0.368834 0)
(3.59332 -0.503428 -1.90418e-17)
(4.06457 -0.860615 0)
(5.33902 -1.192 1.89788e-17)
(6.74206 -1.20473 0)
(7.12956 -0.698277 0)
(7.38929 -0.336784 0)
(7.99509 -0.289818 0)
(7.93385 -0.0981927 0)
(6.86864 -0.0817042 -3.72526e-17)
(5.67356 -0.155057 -3.71591e-17)
(4.92378 -0.275306 0)
(4.60304 -0.356435 0)
(4.63661 -0.339614 0)
(4.60552 -0.239444 3.57845e-17)
(4.54182 -0.250797 0)
(4.07377 -0.183519 0)
(4.10293 0.0764887 0)
(1.0986 -0.182585 3.54936e-17)
(9.90934 -2.05804 -3.62766e-17)
(11.1794 0.242342 0)
(10.1061 -0.167908 0)
(12.9553 -0.581485 -3.36177e-17)
(13.1489 -0.00754472 -3.32805e-17)
(13.2823 -0.125074 0)
(13.1021 0.0221092 0)
(12.933 -0.0494404 3.18997e-17)
(13.3915 -0.0176179 -3.16123e-17)
(13.1487 0.09217 0)
(13.3185 0.065335 0)
(12.9895 0.150752 -3.07875e-17)
(12.1357 0.157257 0)
(11.5046 0.0856244 0)
(10.8663 0.083219 -3.00663e-17)
(9.99405 0.0915962 0)
(9.06666 0.133531 -2.96844e-17)
(8.02047 0.19388 0)
(6.65001 0.201919 0)
(5.3977 0.0390491 0)
(4.65084 -0.153851 2.88041e-17)
(3.61161 -0.19154 0)
(3.04713 -0.251546 0)
(2.11023 -0.108814 0)
(0.755393 0.000557111 0)
(-0.90561 0.0618486 0)
(-2.07472 -0.0282418 0)
(-3.43239 -0.0512821 2.7085e-17)
(-4.53012 -0.135757 2.68628e-17)
(-5.4547 -0.168511 0)
(-6.85925 0.0378092 0)
(-9.13257 0.0620054 0)
(-10.8449 -0.109298 -2.63443e-17)
(-11.2215 -0.358568 0)
(-11.9569 -0.289118 5.35101e-17)
(-12.4933 -0.222378 -5.30397e-17)
(-12.0658 -0.422137 -5.30903e-17)
(-11.2027 -0.382878 5.35897e-17)
(-10.4992 -0.461733 -5.39441e-17)
(-10.5379 -0.342102 5.39737e-17)
(-10.3102 -0.294756 0)
(0.11639 0.375475 0)
(0.342357 0.576586 0)
(0.531059 0.505571 -2.22878e-17)
(0.687476 0.301815 0)
(0.877492 0.0909467 2.1908e-17)
(1.15674 -0.132539 2.17984e-17)
(1.55033 -0.371351 1.08644e-17)
(2.05873 -0.620366 1.08104e-17)
(2.66921 -0.83857 0)
(3.33763 -1.00278 1.07275e-17)
(4.07942 -1.14049 0)
(4.84602 -1.15272 0)
(5.60822 -1.04869 -2.11281e-17)
(6.36421 -1.0709 -1.04908e-17)
(7.09476 -1.02958 2.08517e-17)
(7.79995 -0.765636 2.0737e-17)
(8.48005 -0.619944 1.02839e-17)
(9.03817 -0.549556 0)
(9.60362 -0.266563 0)
(10.1559 -0.0478114 0)
(10.5128 0.0644704 1.00225e-17)
(10.9228 0.243551 0)
(11.2432 0.441949 -2.97335e-17)
(11.4418 0.656043 0)
(11.6577 0.81002 0)
(11.7351 0.976544 -9.73749e-18)
(11.8065 1.07782 0)
(11.7514 1.1475 9.66259e-18)
(11.6206 1.30668 1.92516e-17)
(11.4506 1.32675 -9.56798e-18)
(11.1415 1.37164 0)
(10.8838 1.29816 0)
(10.6014 1.00697 0)
(10.4119 1.01381 1.86812e-17)
(10.4315 1.13669 1.86248e-17)
(10.4394 1.29904 9.22068e-18)
(10.2825 1.46315 0)
(10.1321 1.34877 -1.78777e-17)
(10.0631 1.00579 0)
(9.90944 0.652332 1.76014e-17)
(9.81552 0.349571 0)
(9.935 0.0724487 0)
(10.2244 -0.108587 -1.70058e-17)
(10.5944 -0.247331 0)
(11.0411 -0.453455 -5.00731e-17)
(11.5758 -0.717278 1.65906e-17)
(12.2733 -0.877283 0)
(13.076 -0.727882 1.64568e-17)
(13.8277 -0.259416 1.63056e-17)
(14.4727 0.365538 0)
(14.9495 0.874876 0)
(15.2195 0.974761 0)
(15.4236 0.738086 0)
(15.8105 0.43861 0)
(16.4247 0.152123 -1.55437e-17)
(16.9657 -0.210054 -3.09749e-17)
(17.2601 -0.407599 1.55975e-17)
(17.4639 -0.172272 0)
(17.5354 0.256307 -3.14438e-17)
(17.3883 0.593067 1.58223e-17)
(16.9913 0.755395 0)
(16.4553 0.859743 1.56985e-17)
(15.8479 0.991156 0)
(15.228 1.13285 0)
(14.5517 1.25046 2.99248e-17)
(13.6227 1.27246 -1.47873e-17)
(12.3389 1.28911 2.91051e-17)
(10.7338 1.51286 -2.85932e-17)
(8.96467 2.06541 -1.42918e-17)
(6.92661 2.89257 0)
(4.38011 3.77728 -1.46216e-17)
(1.91383 4.38783 0)
(-0.0898996 4.57986 0)
(-1.76528 4.35552 0)
(-3.26452 3.7715 -1.38907e-17)
(-4.48088 3.0163 0)
(-5.35783 2.22078 -2.72306e-17)
(-5.85733 1.45033 4.05149e-17)
(-6.05933 0.774745 1.34073e-17)
(-6.0497 0.204867 0)
(-5.91263 -0.244229 1.32059e-17)
(-5.69959 -0.562893 0)
(-5.41578 -0.769558 2.59926e-17)
(-5.119 -0.922005 0)
(-4.83081 -0.977895 2.55666e-17)
(-4.5807 -1.00355 -5.07098e-17)
(-4.33429 -1.02217 -2.51512e-17)
(-4.15852 -1.02926 0)
(-3.99862 -1.04624 0)
(-3.84112 -1.08375 0)
(-3.7434 -1.05449 2.44304e-17)
(-3.63841 -1.09684 0)
(-3.51833 -1.09239 -2.40863e-17)
(-3.38717 -1.11354 0)
(-3.22246 -1.1432 7.11171e-17)
(-3.07676 -1.14051 2.34898e-17)
(-2.84958 -1.14544 2.32672e-17)
(-2.67233 -1.14256 0)
(-2.54505 -1.16464 0)
(-2.09195 -1.27144 0)
(-1.99177 -1.30268 0)
(-1.51556 -1.37848 0)
(-1.23739 -1.31792 4.4094e-17)
(-1.06153 -1.27252 4.38033e-17)
(-0.888129 -1.60298 0)
(-0.436281 -2.05444 -2.21285e-17)
(0.277672 -2.29988 -2.20154e-17)
(1.32227 -1.97705 0)
(2.04972 -1.55333 -4.21112e-17)
(2.41959 -1.40526 0)
(2.76311 -1.4024 2.06572e-17)
(2.93916 -1.52723 0)
(3.51632 -1.68007 0)
(3.78743 -1.74087 -3.936e-17)
(3.56021 -1.94467 0)
(3.78741 -2.00559 1.85817e-17)
(3.80384 -1.60797 0)
(3.4549 -1.72179 0)
(3.33539 -2.42175 1.71384e-17)
(3.99537 -2.48608 1.73921e-17)
(4.68145 -1.95348 0)
(5.08659 -1.81945 -1.73237e-17)
(5.93028 -2.63069 0)
(6.39968 -3.07415 1.7741e-17)
(5.89167 -2.33142 3.72263e-17)
(5.48432 -1.97324 0)
(6.47039 -2.39173 0)
(6.89941 -1.94993 0)
(6.7905 -0.743133 0)
(5.95331 -0.21295 3.56054e-17)
(4.56804 -0.209933 1.06742e-16)
(3.58607 -0.550438 0)
(2.73443 -1.02026 0)
(2.0893 -1.07015 0)
(2.22056 -1.03992 -3.37653e-17)
(2.62663 -0.942121 0)
(2.24122 -0.192133 0)
(2.27846 0.191277 7.10139e-17)
(0.147384 -3.41688 3.65592e-17)
(13.0504 -7.92019 3.74432e-17)
(9.48034 0.435729 0)
(12.5904 -1.64759 0)
(13.2819 -2.2743 3.33189e-17)
(14.6002 -0.30545 -3.23323e-17)
(14.0993 -0.489821 0)
(13.7189 -0.12726 0)
(13.1365 -0.47368 -2.9951e-17)
(14.0433 -0.637465 8.85843e-17)
(13.9385 -0.410234 0)
(14.1545 -0.661129 0)
(13.5678 -0.36126 2.85789e-17)
(12.9715 -0.177654 0)
(12.6493 -0.339635 5.60412e-17)
(12.3843 -0.271785 -2.7972e-17)
(11.7424 -0.325399 0)
(10.8884 -0.538057 2.79867e-17)
(10.0405 -0.523592 5.57819e-17)
(8.88115 -0.397836 0)
(8.0311 -0.678031 0)
(8.21251 -0.901891 -2.71581e-17)
(7.30117 -0.686596 0)
(6.96373 -0.920025 5.28466e-17)
(5.26012 -0.613776 0)
(3.80805 -0.484394 0)
(1.96475 -0.65125 0)
(0.923404 -0.859967 0)
(-0.653404 -0.821983 -2.43079e-17)
(-1.67747 -0.937999 -2.39171e-17)
(-3.00254 -0.877382 0)
(-4.63239 -0.398885 0)
(-6.77569 -0.25274 0)
(-8.40959 -0.820902 2.29914e-17)
(-8.92531 -1.28761 0)
(-10.4223 -0.976164 -4.86421e-17)
(-10.5135 -1.20435 4.75835e-17)
(-9.75873 -1.73427 4.84474e-17)
(-9.10602 -1.44089 5.02963e-17)
(-9.62981 -1.01551 5.1421e-17)
(-10.7866 -0.503805 5.1003e-17)
(-10.597 -0.927135 0)
(0.100516 0.346441 0)
(0.372844 0.458232 0)
(0.673491 0.608519 2.26287e-17)
(0.889854 0.58913 2.22864e-17)
(1.14015 0.317761 -2.21003e-17)
(1.5438 -0.163057 -2.20932e-17)
(2.1077 -0.667767 2.82116e-20)
(2.75769 -1.17056 0)
(3.50302 -1.58197 0)
(4.25791 -1.85064 0)
(5.05121 -2.0935 0)
(5.82716 -2.24658 0)
(6.60248 -1.99715 6.5072e-17)
(7.42799 -1.93111 0)
(8.21199 -2.01253 -2.14094e-17)
(8.83151 -1.58752 -2.11804e-17)
(9.58497 -1.25448 0)
(10.2967 -1.15094 0)
(10.7346 -0.851007 0)
(11.3609 -0.455967 0)
(11.9319 -0.235689 -2.03506e-17)
(12.1952 0.10168 0)
(12.593 0.505043 2.00319e-17)
(13.0372 0.49164 0)
(13.1917 0.933261 0)
(13.4814 1.31976 0)
(13.8374 1.20178 3.85828e-17)
(13.8837 1.7703 0)
(14.0438 1.98117 -1.90823e-17)
(14.1 2.06085 3.77372e-17)
(13.9846 2.583 0)
(13.9339 2.36599 0)
(13.5473 2.6411 0)
(13.0765 2.80466 -1.85946e-17)
(12.507 2.00519 -1.8484e-17)
(11.942 1.87513 0)
(11.7177 1.77983 0)
(11.6546 1.34004 3.66434e-17)
(11.7394 1.39462 3.6011e-17)
(11.8026 1.70715 -3.55224e-17)
(11.8579 1.43694 0)
(12.0996 0.765874 0)
(12.4848 0.409053 0)
(12.9189 0.372021 0)
(13.4261 0.156017 3.38805e-17)
(13.8446 -0.426628 3.36846e-17)
(14.2366 -0.89062 -3.342e-17)
(14.6975 -0.765668 0)
(15.0867 -0.283846 0)
(15.3633 0.247873 0)
(15.6847 0.782585 0)
(16.1442 0.900534 3.25029e-17)
(16.3486 0.393541 0)
(16.3639 -0.0436704 0)
(16.3879 0.241917 3.18546e-17)
(15.8293 0.90285 3.2385e-17)
(14.9084 1.46499 0)
(14.0055 1.84097 -6.37453e-17)
(13.2504 2.05851 3.13543e-17)
(12.6206 2.16601 -3.08608e-17)
(11.9592 2.25153 0)
(11.293 2.3782 0)
(10.4703 2.5395 0)
(9.52881 2.78154 0)
(8.45352 3.15022 -2.87295e-17)
(7.23931 3.66413 -5.77534e-17)
(5.76839 4.19791 -2.91479e-17)
(4.06709 4.72389 2.9324e-17)
(2.37154 5.22391 0)
(0.660561 5.71154 -5.8552e-17)
(-1.10991 6.13222 -5.78046e-17)
(-2.63163 6.3405 -5.68903e-17)
(-3.86289 6.24628 5.62708e-17)
(-4.76913 5.74479 0)
(-5.38326 4.86383 8.32659e-17)
(-5.71103 3.76672 0)
(-5.80943 2.60712 -2.7517e-17)
(-5.68825 1.52477 -2.74006e-17)
(-5.48644 0.576823 0)
(-5.19035 -0.200524 0)
(-4.83797 -0.807587 -5.3862e-17)
(-4.47556 -1.22984 0)
(-4.15522 -1.50517 -5.30405e-17)
(-3.81526 -1.67208 0)
(-3.50077 -1.74904 5.21949e-17)
(-3.26322 -1.75958 1.03501e-16)
(-3.0595 -1.79055 0)
(-2.9177 -1.78455 0)
(-2.78068 -1.78446 0)
(-2.62734 -1.81936 5.00734e-17)
(-2.58326 -1.78364 0)
(-2.52499 -1.77902 4.93047e-17)
(-2.45898 -1.79309 0)
(-2.46601 -1.85966 0)
(-2.36508 -1.94863 -9.6343e-17)
(-2.33193 -2.01566 0)
(-2.1068 -1.98167 -4.70458e-17)
(-1.9848 -1.86676 0)
(-1.75316 -2.0114 -4.63624e-17)
(-1.42217 -2.10191 0)
(-1.27899 -2.11109 0)
(-0.870026 -2.22258 0)
(-0.518748 -2.10994 -1.34514e-16)
(-0.273645 -1.95071 -4.45333e-17)
(-0.0912035 -2.28875 0)
(-0.0644226 -3.02351 0)
(0.0976413 -3.62846 0)
(0.776494 -3.40226 0)
(1.49575 -2.75705 4.25177e-17)
(1.9745 -2.55981 -8.37317e-17)
(2.39964 -2.53132 -4.13236e-17)
(2.66088 -2.83464 8.07428e-17)
(3.63758 -3.18679 7.94142e-17)
(4.48301 -2.8256 3.95079e-17)
(4.80702 -2.69507 0)
(5.30278 -2.9886 7.71109e-17)
(5.45385 -2.50643 0)
(4.97682 -2.31868 -6.88644e-17)
(4.2279 -3.21819 -3.44554e-17)
(4.25552 -3.91046 0)
(5.07649 -3.52202 6.9962e-17)
(6.14234 -3.54073 3.4108e-17)
(6.48176 -3.84135 0)
(5.34031 -3.25622 3.62546e-17)
(3.98009 -2.64151 -1.12804e-16)
(3.99243 -3.28748 0)
(4.32454 -3.48935 0)
(4.63507 -2.50363 0)
(4.85181 -1.24326 0)
(4.00141 -0.454435 -6.95125e-17)
(3.06668 -0.375744 -6.98237e-17)
(2.4642 -0.634552 0)
(1.28926 -0.960059 0)
(0.780533 -1.4557 0)
(1.25959 -1.91703 0)
(2.64193 -1.71597 0)
(2.75206 -0.794174 0)
(2.25667 -0.447706 -7.1106e-17)
(1.58411 -6.85561 5.80276e-20)
(9.31806 -11.0959 0)
(6.53632 0.369477 0)
(13.6107 -3.46445 -6.98516e-17)
(12.2198 -3.5057 0)
(15.4307 -0.52148 6.5271e-17)
(14.7156 -0.474874 6.30257e-17)
(14.1439 -0.0251643 0)
(13.322 -0.660052 0)
(14.5616 -1.26477 -5.98625e-17)
(14.8723 -0.702502 -1.16805e-16)
(15.8292 -0.626654 0)
(14.8667 -0.0149116 0)
(14.2356 -0.0704097 0)
(13.8617 -0.766638 -5.77242e-17)
(13.7029 -0.958371 5.55519e-17)
(13.4536 -0.631471 0)
(12.6657 -0.643864 1.10112e-16)
(11.36 -0.488535 5.55091e-17)
(9.97981 -0.393497 -1.1324e-16)
(8.94344 -1.20661 0)
(9.71282 -1.95725 0)
(9.18208 -1.43441 -1.07947e-16)
(10.1542 -1.41363 -5.35962e-17)
(8.86909 -0.76613 0)
(7.25498 -0.565686 0)
(5.04379 -0.716471 0)
(4.16001 -1.07775 0)
(2.43492 -1.13166 -9.51026e-17)
(1.29535 -1.35426 0)
(-0.350533 -1.21368 0)
(-2.33786 -0.493123 0)
(-4.19445 -0.422142 0)
(-5.72638 -1.32352 0)
(-7.05083 -1.78022 0)
(-9.45254 -1.52234 -9.12111e-17)
(-9.1138 -2.27427 0)
(-9.26207 -2.68949 0)
(-9.94558 -1.985 -1.9823e-16)
(-11.4586 -1.0554 9.97724e-17)
(-12.3975 -0.706251 -9.60885e-17)
(-11.6009 -1.9885 9.20058e-17)
(0.0856461 0.55923 0)
(0.164733 0.555947 -4.68506e-17)
(0.322832 0.656541 0)
(0.579424 0.540051 -2.27588e-17)
(1.0865 -0.0522261 0)
(1.74664 -0.873863 0)
(2.55886 -1.60856 2.28676e-17)
(3.34081 -2.22508 0)
(4.17741 -2.64835 0)
(4.89805 -2.94214 0)
(5.71546 -3.0383 0)
(6.3856 -3.14487 0)
(7.08296 -3.06492 -8.79314e-17)
(7.87258 -2.84474 -4.369e-17)
(8.54833 -2.7482 4.33382e-17)
(9.22517 -2.21902 0)
(9.98388 -1.99146 0)
(10.6537 -1.85391 0)
(11.2323 -1.13944 0)
(11.7826 -0.9399 0)
(12.3199 -0.461956 -4.12309e-17)
(12.7622 0.192837 -4.10967e-17)
(13.1152 0.106651 4.07806e-17)
(13.5566 0.628288 -4.0213e-17)
(13.8283 1.15439 0)
(14.1014 0.983529 0)
(14.5564 1.47113 -3.90148e-17)
(14.6271 1.99451 0)
(15.0702 2.06806 0)
(15.3587 2.5814 -3.81159e-17)
(15.2909 2.93819 -3.79307e-17)
(15.6982 3.21221 -3.7696e-17)
(15.5122 3.60059 0)
(15.3637 3.62083 0)
(15.2471 3.98397 3.68447e-17)
(14.491 3.91607 0)
(13.8396 3.18793 0)
(13.0787 2.43147 -3.64194e-17)
(12.469 1.909 3.58809e-17)
(12.4485 1.91819 -3.56352e-17)
(12.9319 1.43386 0)
(13.217 0.505914 0)
(13.1574 0.0488503 -6.91593e-17)
(13.2169 -0.11436 0)
(13.8235 -0.245726 -6.74868e-17)
(14.6001 -0.437997 -1.00586e-16)
(14.9494 -0.742005 1.00059e-16)
(15.0994 -0.615314 -6.65934e-17)
(14.9964 0.119664 0)
(14.518 0.793632 0)
(14.0841 1.13122 -6.52092e-17)
(13.6647 1.60371 -3.26076e-17)
(12.8417 2.11394 0)
(11.8214 2.35719 0)
(10.9941 2.49679 -3.21863e-17)
(10.3536 2.75526 -6.34904e-17)
(9.78894 3.03921 0)
(9.27445 3.24372 6.1617e-17)
(8.78945 3.41193 -6.08508e-17)
(8.26534 3.55271 6.00473e-17)
(7.61831 3.68624 0)
(6.8725 3.96082 0)
(6.03666 4.37477 0)
(5.13437 4.80865 0)
(4.16298 5.29176 0)
(3.15192 5.76817 5.90082e-17)
(1.98981 6.23499 0)
(0.666418 6.72777 0)
(-0.635108 7.2266 0)
(-1.83806 7.56944 1.15831e-16)
(-2.93845 7.66913 5.72198e-17)
(-3.85237 7.50767 5.67447e-17)
(-4.56708 7.01178 -1.1306e-16)
(-5.03272 6.15617 5.63972e-17)
(-5.23833 4.94235 -5.62399e-17)
(-5.22082 3.50713 0)
(-4.9944 2.10839 5.5693e-17)
(-4.60257 0.844193 0)
(-4.18488 -0.277727 0)
(-3.77528 -1.13733 0)
(-3.3774 -1.74915 1.08426e-16)
(-3.01817 -2.16728 -5.37497e-17)
(-2.73481 -2.43536 -5.32789e-17)
(-2.4641 -2.57655 -1.05634e-16)
(-2.22478 -2.64828 -1.57143e-16)
(-2.0606 -2.64172 -5.19411e-17)
(-1.88102 -2.67465 0)
(-1.77794 -2.67794 -1.02303e-16)
(-1.71999 -2.60865 0)
(-1.6601 -2.67775 -1.5147e-16)
(-1.63983 -2.62523 0)
(-1.62078 -2.64212 -1.49305e-16)
(-1.45105 -2.55845 0)
(-1.52177 -2.63314 0)
(-1.41473 -2.64396 -4.83565e-17)
(-1.51866 -2.82124 0)
(-1.38475 -2.85235 4.76258e-17)
(-1.4052 -2.78139 9.40472e-17)
(-1.0774 -2.95597 4.68799e-17)
(-1.01836 -3.0434 9.29402e-17)
(-0.701158 -3.1347 -9.21317e-17)
(-0.52121 -3.31296 -9.15457e-17)
(-0.0462153 -3.28913 1.81547e-16)
(0.431798 -3.01657 0)
(0.843254 -3.09295 0)
(0.890733 -3.61698 8.81263e-17)
(0.712287 -4.47325 -8.78937e-17)
(0.594621 -4.74645 0)
(0.987601 -4.16238 0)
(1.37452 -3.81389 8.35922e-17)
(1.63074 -3.78604 0)
(2.07135 -4.39971 -1.27735e-20)
(3.0428 -5.07159 -1.23394e-20)
(3.76979 -4.58754 7.80225e-17)
(4.38361 -4.41144 0)
(5.79188 -4.7546 -8.06233e-17)
(6.66642 -3.55969 0)
(6.40096 -2.69934 7.08104e-17)
(5.66677 -3.82858 0)
(5.16756 -5.46359 0)
(5.57766 -5.72841 -6.95139e-17)
(6.13526 -5.06868 -6.91411e-17)
(5.64409 -4.19296 0)
(3.80796 -3.49473 -7.36812e-17)
(2.36148 -3.28929 1.50037e-16)
(2.388 -4.50044 0)
(2.38444 -4.88996 0)
(2.99591 -4.1258 0)
(2.73093 -2.07303 0)
(2.04702 -0.812918 6.84978e-17)
(1.63851 -0.899229 -1.37267e-16)
(1.41403 -0.933349 0)
(0.297524 -1.61652 0)
(0.151524 -2.71729 0)
(1.52737 -3.54591 0)
(4.39107 -3.33452 0)
(5.83071 -0.959528 0)
(3.44075 -0.790606 0)
(3.82161 -9.02284 6.82055e-17)
(7.19277 -12.4852 0)
(4.52791 -1.44287 0)
(12.9557 -5.96833 6.54399e-17)
(10.8417 -5.06597 0)
(15.5998 -1.66108 0)
(15.7557 -0.647291 -6.30645e-17)
(14.8081 0.275976 0)