/*--------------------------------*- C++ -*----------------------------------*\
| =========                 |                                                 |
| \\      /  F ield         | OpenFOAM: The Open Source CFD Toolbox           |
|  \\    /   O peration     | Version:  dev                                   |
|   \\  /    A nd           | Web:      http://www.openfoam.org               |
|    \\/     M anipulation  |                                                 |
\*---------------------------------------------------------------------------*/
FoamFile
{
    version     2.0;
    format      ascii;
    class       volVectorField;
    object      U_0;
    location    "9.144";
}
// * * * * * * * * * * * * * * * * * * * * * * * * * * * * * * * * * * * * * //

dimensions      [0 1 -1 0 0 0 0];

internalField   nonuniform List<vector> 
12225
(
(6.16568 0.589045 0)
(2.0138 0.313674 0)
(-1.30938 0.147108 0)
(-2.71512 0.108365 0)
(-5.01093 0.161363 0)
(-5.57945 0.0950781 0)
(-7.57991 0.191443 0)
(-8.12612 0.115408 0)
(-9.81043 0.196483 0)
(-10.1812 0.0997886 0)
(-12.1936 0.28456 0)
(-11.4822 0.00226229 0)
(-14.8682 0.477303 0)
(-12.7233 -0.10722 0)
(-15.4053 0.24653 0)
(-13.5639 0.109077 0)
(-6.47255 -0.722289 0)
(-20.2553 10.8916 0)
(8.64447 1.43065 0)
(7.24658 1.19866 0)
(3.06164 0.824422 0)
(2.71935 0.562658 0)
(-1.74669 0.558408 0)
(-0.718397 0.398318 0)
(-4.80312 0.590915 0)
(-3.72995 0.382878 0)
(-7.15487 0.598436 0)
(-5.93273 0.414748 0)
(-10.3057 0.763212 0)
(-6.37084 0.250328 0)
(-14.6029 1.24752 0)
(-5.6153 -0.949826 0)
(-16.4752 1.89702 0)
(-5.48903 -1.8413 0)
(-16.8078 -1.74192 0)
(-29.1898 6.58595 0)
(8.14919 1.54392 0)
(9.96345 1.49469 0)
(4.75685 1.24502 0)
(7.11523 0.99252 0)
(0.587993 1.06004 0)
(4.14608 0.795567 0)
(-2.21892 1.09766 0)
(1.23016 0.681727 0)
(-4.28635 1.02436 0)
(-0.80653 0.979184 0)
(-6.68684 1.0345 0)
(-2.08887 0.830026 0)
(-8.62599 1.5933 0)
(-4.116 0.321985 0)
(-13.6738 1.81229 0)
(-2.32826 -0.426804 0)
(-19.948 5.26789 0)
(-19.8335 0.0158035 0)
(6.12729 1.70974 0)
(11.759 1.80853 0)
(3.47078 1.54023 0)
(10.0319 1.31827 0)
(0.59483 1.51315 0)
(7.78135 0.981707 0)
(-1.51575 1.60051 0)
(5.68649 1.08539 0)
(-3.22794 1.40764 0)
(3.40352 0.984335 0)
(-4.49377 1.87742 0)
(1.44796 0.750671 0)
(-4.31954 2.90245 0)
(-1.37297 0.316604 0)
(-8.85855 2.55584 0)
(-8.91226 0.952972 0)
(-6.93035 5.91734 0)
(-18.2942 9.08469 0)
(3.76192 2.16634 0)
(14.2333 1.88338 0)
(1.76756 1.7778 0)
(11.5653 1.41022 0)
(0.415394 2.06528 0)
(8.7864 1.12979 0)
(-1.72798 2.08535 0)
(6.99961 1.00268 0)
(-1.81167 2.25334 0)
(2.23114 1.51378 0)
(-3.35107 2.44672 0)
(1.19036 0.110903 0)
(-2.96157 3.94406 0)
(-1.74824 2.37847 0)
(-7.95505 5.50458 0)
(-8.75405 -3.81751 0)
(-3.55896 8.0723 0)
(-14.463 11.9257 0)
(3.79991 2.46516 0)
(13.3541 1.9768 0)
(2.91992 2.08883 0)
(9.41002 1.44182 0)
(2.63742 2.39387 0)
(6.38469 1.63811 0)
(0.251832 2.1316 0)
(3.63454 1.36247 0)
(-1.59818 3.16628 0)
(1.56856 1.56032 0)
(-0.266709 2.58668 0)
(-4.6068 1.35235 0)
(-3.35538 4.5533 0)
(-2.90826 2.41778 0)
(-3.65591 7.50362 0)
(-7.41579 -0.592283 0)
(-7.48893 10.5868 0)
(-9.55402 13.1943 0)
(5.93907 3.26335 0)
(10.5114 1.72526 0)
(4.36453 2.92228 0)
(6.83043 1.17319 0)
(3.22877 3.18254 0)
(4.3487 1.74682 0)
(0.368056 3.34738 0)
(1.04545 1.52676 0)
(-0.281091 3.33725 0)
(0.469765 1.04944 0)
(-2.16313 5.54905 0)
(-3.02824 0.768364 0)
(-2.66375 4.76215 0)
(-5.43388 1.79723 0)
(-0.444489 9.25273 0)
(-5.11117 0.905607 0)
(-7.63261 11.1149 0)
(-0.851933 9.4616 0)
(8.22355 3.72284 0)
(8.03554 2.01884 0)
(5.54823 3.11974 0)
(5.95935 1.57277 0)
(2.48777 3.29025 0)
(3.88766 2.54719 0)
(0.588964 3.50039 0)
(2.40743 1.70757 0)
(-0.630992 3.33318 0)
(0.194485 2.28242 0)
(-2.65072 5.21218 0)
(-0.642306 2.0297 0)
(-4.54797 5.41679 0)
(-2.22491 2.20253 0)
(-3.07415 7.84928 0)
(-2.11003 4.63883 0)
(-6.60371 6.08314 0)
(-2.20041 10.9448 0)
(9.49141 4.11817 0)
(7.85897 2.13531 0)
(5.89618 3.61268 0)
(6.6482 1.90197 0)
(1.86045 4.04935 0)
(4.4674 2.29373 0)
(0.734747 3.98789 0)
(3.22216 1.9035 0)
(-1.17536 4.39205 0)
(0.00811962 2.23467 0)
(-2.31133 5.66395 0)
(-1.68586 2.57525 0)
(-3.08515 5.63281 0)
(-2.27685 2.44278 0)
(-4.66231 8.14261 0)
(-3.16542 3.9548 0)
(-5.51981 9.43995 0)
(-5.13739 9.28731 0)
(9.09125 4.19603 0)
(8.17893 3.02961 0)
(6.14503 3.3674 0)
(6.03091 2.97126 0)
(3.34846 3.78504 0)
(3.64118 2.98676 0)
(2.13902 3.69848 0)
(1.46173 2.72037 0)
(0.704778 4.45814 0)
(-0.989314 3.25275 0)
(-0.871863 5.60576 0)
(-1.54529 3.03256 0)
(-1.64273 5.22948 0)
(-2.95969 4.40735 0)
(-3.4177 7.6025 0)
(-2.60546 6.55416 0)
(-4.05255 7.26678 0)
(-2.51772 9.69881 0)
(8.83512 4.98698 0)
(7.49763 2.66385 0)
(6.6798 4.39868 0)
(5.0058 2.60021 0)
(4.53399 4.70532 0)
(3.00054 2.63679 0)
(2.61911 4.68848 0)
(1.19683 2.74761 0)
(0.618454 5.09963 0)
(-0.0718001 3.62715 0)
(-0.550952 5.52236 0)
(-0.474847 3.92305 0)
(-1.73469 5.85612 0)
(-1.93813 4.81518 0)
(-2.44652 7.21888 0)
(-1.7554 6.65793 0)
(-2.19933 8.27824 0)
(-2.29829 9.27408 0)
(9.57949 5.03431 0)
(7.5669 3.62828 0)
(6.7833 4.06269 0)
(5.37547 3.85147 0)
(4.42406 4.32478 0)
(3.46996 3.94525 0)
(2.39787 4.40103 0)
(1.56802 3.94379 0)
(0.602503 5.01267 0)
(0.208831 4.40249 0)
(-0.252324 5.51163 0)
(-0.678708 4.7376 0)
(-1.14114 6.07767 0)
(-1.44514 6.14898 0)
(-1.75688 7.10962 0)
(-1.58689 7.29087 0)
(-1.48992 7.99265 0)
(-1.05645 8.97154 0)
(9.27654 6.20362 0)
(7.65494 3.69115 0)
(6.53626 4.87386 0)
(5.17679 3.66962 0)
(4.24246 5.02195 0)
(3.1702 3.96114 0)
(2.39679 5.08066 0)
(1.45493 4.28152 0)
(0.778021 5.19129 0)
(0.285553 4.85238 0)
(-0.219167 5.52514 0)
(-0.704255 5.41818 0)
(-1.09742 6.00266 0)
(-1.16557 6.334 0)
(-1.20353 7.10376 0)
(-1.11979 7.68941 0)
(-0.952341 8.13008 0)
(-0.566655 8.66684 0)
(9.15102 6.18357 0)
(7.94375 4.64225 0)
(6.71072 4.77494 0)
(5.52684 4.71498 0)
(4.30384 4.94123 0)
(3.31645 4.79272 0)
(2.41361 5.06805 0)
(1.70273 4.97915 0)
(0.928335 5.40558 0)
(0.449259 5.4956 0)
(0.00893088 5.80995 0)
(-0.376966 6.05771 0)
(-0.683301 6.50621 0)
(-0.884335 6.89088 0)
(-0.878384 7.27618 0)
(-0.685012 7.64578 0)
(-0.444792 8.08088 0)
(-0.00487004 8.49018 0)
(9.08407 6.91351 0)
(7.74619 4.70033 0)
(6.62318 5.1098 0)
(5.5051 5.02499 0)
(4.41146 5.37615 0)
(3.39545 5.21974 0)
(2.47418 5.39065 0)
(1.67064 5.37231 0)
(0.954 5.63355 0)
(0.426637 5.84778 0)
(0.0152801 6.04428 0)
(-0.300424 6.29865 0)
(-0.523893 6.5654 0)
(-0.574301 6.89699 0)
(-0.524245 7.24968 0)
(-0.366727 7.5681 0)
(-0.178556 7.87722 0)
(0.201348 8.14949 0)
(9.21646 7.17343 0)
(7.89067 5.22107 0)
(6.55381 5.16392 0)
(5.40315 5.26231 0)
(4.33542 5.43957 0)
(3.4025 5.52675 0)
(2.53622 5.66204 0)
(1.77881 5.78563 0)
(1.11789 5.96127 0)
(0.628439 6.11852 0)
(0.239743 6.29437 0)
(0.0221796 6.48161 0)
(-0.133469 6.72633 0)
(-0.197092 6.98137 0)
(-0.13687 7.21712 0)
(0.0410836 7.44051 0)
(0.236538 7.65365 0)
(0.585391 7.86422 0)
(9.0662 7.36907 0)
(7.87524 5.36901 0)
(6.59279 5.29952 0)
(5.42424 5.41549 0)
(4.33429 5.55593 0)
(3.41725 5.68016 0)
(2.59475 5.78648 0)
(1.92147 5.87591 0)
(1.33849 5.97396 0)
(0.887626 6.07668 0)
(0.533925 6.18893 0)
(0.307393 6.32759 0)
(0.148465 6.50737 0)
(0.109071 6.68243 0)
(0.13998 6.86623 0)
(0.266397 7.03639 0)
(0.424358 7.18833 0)
(0.716593 7.34312 0)
(9.11707 7.05001 0)
(7.97184 5.03698 0)
(6.72331 5.0891 0)
(5.56186 5.266 0)
(4.51895 5.4132 0)
(3.62832 5.5338 0)
(2.85197 5.61348 0)
(2.24662 5.70648 0)
(1.73127 5.81806 0)
(1.32761 5.94049 0)
(0.998858 6.03469 0)
(0.7948 6.16157 0)
(0.647756 6.30976 0)
(0.586168 6.42408 0)
(0.587808 6.50339 0)
(0.659774 6.58105 0)
(0.769308 6.63972 0)
(1.02144 6.69052 0)
(9.48791 6.74048 0)
(8.1521 4.83114 0)
(6.74288 4.88238 0)
(5.51002 5.01271 0)
(4.45954 5.11524 0)
(3.58411 5.16168 0)
(2.82545 5.16626 0)
(2.21623 5.18692 0)
(1.71718 5.24698 0)
(1.3435 5.33606 0)
(1.07661 5.40523 0)
(0.918546 5.49808 0)
(0.822322 5.67066 0)
(0.846319 5.789 0)
(0.88858 5.8279 0)
(0.975777 5.88547 0)
(1.1401 5.93092 0)
(1.38221 5.93376 0)
(9.28566 6.17216 0)
(8.20661 4.46477 0)
(6.98017 4.46575 0)
(5.91693 4.5363 0)
(4.97318 4.6082 0)
(4.12473 4.67222 0)
(3.33903 4.68679 0)
(2.66336 4.67626 0)
(2.0976 4.72693 0)
(1.68035 4.81031 0)
(1.32252 4.84067 0)
(1.09046 4.85047 0)
(0.970741 4.98507 0)
(0.960825 5.08815 0)
(1.00588 5.0995 0)
(1.13616 5.13016 0)
(1.31221 5.18326 0)
(1.52419 5.18676 0)
(9.29062 5.4761 0)
(8.18719 3.80537 0)
(6.97178 3.69082 0)
(5.89686 3.75846 0)
(4.94327 3.88984 0)
(4.11753 4.0134 0)
(3.38929 4.07785 0)
(2.7577 4.08176 0)
(2.21593 4.11954 0)
(1.83288 4.19977 0)
(1.52269 4.22951 0)
(1.25837 4.19735 0)
(1.09003 4.2464 0)
(1.09401 4.32457 0)
(1.12478 4.31635 0)
(1.2005 4.32577 0)
(1.36878 4.36511 0)
(1.55496 4.36074 0)
(9.31825 4.82653 0)
(8.3799 3.3122 0)
(7.21558 3.14476 0)
(6.09035 3.18606 0)
(5.081 3.28347 0)
(4.21924 3.38919 0)
(3.49779 3.47816 0)
(2.88546 3.52065 0)
(2.35881 3.55724 0)
(1.99464 3.61562 0)
(1.73234 3.61244 0)
(1.49373 3.61257 0)
(1.30416 3.6071 0)
(1.28513 3.61636 0)
(1.32814 3.64904 0)
(1.39478 3.66791 0)
(1.55564 3.67222 0)
(1.71826 3.70467 0)
(9.67892 3.90474 0)
(8.62993 2.56941 0)
(7.43696 2.45192 0)
(6.28586 2.53562 0)
(5.24229 2.61698 0)
(4.3398 2.69367 0)
(3.58361 2.76675 0)
(2.98627 2.82502 0)
(2.55062 2.88963 0)
(2.22674 2.9004 0)
(1.95647 2.88912 0)
(1.76689 2.92247 0)
(1.64133 2.91464 0)
(1.58153 2.88008 0)
(1.57559 2.90344 0)
(1.66935 2.92661 0)
(1.78214 2.92873 0)
(1.94399 2.98682 0)
(9.3731 3.29706 0)
(8.51765 2.11698 0)
(7.45463 1.9538 0)
(6.4254 2.01474 0)
(5.46478 2.1231 0)
(4.59288 2.20794 0)
(3.8503 2.2641 0)
(3.25594 2.28109 0)
(2.78216 2.26987 0)
(2.4466 2.28199 0)
(2.18177 2.34066 0)
(1.98173 2.35519 0)
(1.85993 2.36348 0)
(1.80632 2.39748 0)
(1.7577 2.37189 0)
(1.78014 2.38235 0)
(1.8756 2.40117 0)
(1.99777 2.37741 0)
(9.57177 2.59134 0)
(8.70104 1.518 0)
(7.66176 1.36779 0)
(6.64522 1.41984 0)
(5.70807 1.51534 0)
(4.85971 1.58179 0)
(4.13478 1.62758 0)
(3.55822 1.65173 0)
(3.09469 1.66354 0)
(2.71773 1.68594 0)
(2.44145 1.72405 0)
(2.26559 1.76955 0)
(2.1176 1.78198 0)
(2.04547 1.79816 0)
(2.0275 1.83365 0)
(2.03597 1.84448 0)
(2.10547 1.84816 0)
(2.24276 1.85296 0)
(9.48089 1.84698 0)
(8.7857 0.960643 0)
(7.85936 0.841285 0)
(6.88856 0.938768 0)
(5.96799 1.06603 0)
(5.12512 1.15134 0)
(4.38827 1.19526 0)
(3.76779 1.2117 0)
(3.24877 1.21457 0)
(2.84747 1.26087 0)
(2.53172 1.29518 0)
(2.29292 1.29496 0)
(2.13676 1.3351 0)
(2.03472 1.36527 0)
(1.98698 1.35783 0)
(2.02257 1.37116 0)
(2.08496 1.37856 0)
(2.18393 1.37219 0)
(9.21641 1.15416 0)
(8.72654 0.454986 0)
(7.91825 0.388252 0)
(6.96233 0.471681 0)
(5.98229 0.567236 0)
(5.02639 0.632282 0)
(4.18612 0.679885 0)
(3.44482 0.712088 0)
(2.81013 0.722325 0)
(2.30496 0.774533 0)
(1.90941 0.814509 0)
(1.57938 0.83214 0)
(1.35776 0.863052 0)
(1.18366 0.882133 0)
(1.08434 0.894115 0)
(1.03827 0.90043 0)
(1.04334 0.929306 0)
(1.06026 0.946378 0)
(9.21334 0.533405 0)
(8.78457 -0.157642 0)
(7.83084 -0.0967809 0)
(6.58123 0.0605344 0)
(5.29986 0.236108 0)
(4.07805 0.351156 0)
(3.01434 0.418956 0)
(2.05401 0.446509 0)
(1.22256 0.45861 0)
(0.523787 0.494632 0)
(-0.0374018 0.524474 0)
(-0.529795 0.536755 0)
(-0.894832 0.566521 0)
(-1.20741 0.583066 0)
(-1.40659 0.611677 0)
(-1.57702 0.610791 0)
(-1.65028 0.631216 0)
(-1.70647 0.656597 0)
(9.51243 -0.153104 0)
(8.29483 -0.622745 0)
(6.3729 -0.428721 0)
(4.32748 -0.209776 0)
(2.51602 -0.00626411 0)
(0.95767 0.132292 0)
(-0.332316 0.231621 0)
(-1.41613 0.283524 0)
(-2.33269 0.296366 0)
(-3.07401 0.317519 0)
(-3.68256 0.335196 0)
(-4.18409 0.344811 0)
(-4.53397 0.361169 0)
(-4.8097 0.369328 0)
(-4.99595 0.369147 0)
(-5.11524 0.371102 0)
(-5.14232 0.369332 0)
(-5.16797 0.381294 0)
(7.80476 -0.252129 0)
(4.39999 -0.267993 0)
(1.30725 -0.039697 0)
(-1.04658 0.0787913 0)
(-2.74841 0.124407 0)
(-4.03517 0.131536 0)
(-5.03586 0.136989 0)
(-5.84375 0.129826 0)
(-6.51187 0.112639 0)
(-7.07486 0.110233 0)
(-7.53271 0.115636 0)
(-7.88401 0.117758 0)
(-8.13955 0.117637 0)
(-8.31433 0.121909 0)
(-8.41639 0.121397 0)
(-8.45872 0.130555 0)
(-8.43516 0.113415 0)
(-8.4481 0.151125 0)
(0.105507 0.364044 0)
(0.219601 0.375175 0)
(0.330638 0.395389 0)
(0.485262 0.355754 0)
(0.706661 0.304692 0)
(0.999188 0.242817 0)
(1.37372 0.166478 1.09604e-17)
(1.82155 0.0902281 -1.08918e-17)
(2.35778 0.0221074 0)
(2.95642 -0.0282608 -1.07623e-17)
(3.61898 -0.0581631 0)
(4.30352 -0.0560805 0)
(4.98631 -0.0408725 0)
(5.65727 -0.0306824 1.05137e-17)
(6.33134 0.00487231 0)
(6.95079 0.0808279 0)
(7.50909 0.119492 -1.03346e-17)
(8.02746 0.173153 0)
(8.49052 0.248255 0)
(8.8564 0.302435 0)
(9.16296 0.354123 1.01117e-17)
(9.43533 0.404477 0)
(9.63028 0.43998 9.9987e-18)
(9.75891 0.471002 0)
(9.82589 0.524071 0)
(9.82288 0.543684 9.82517e-18)
(9.79381 0.527063 0)
(9.73831 0.531715 -9.70069e-18)
(9.64472 0.484585 0)
(9.54648 0.497141 9.57761e-18)
(9.42292 0.580691 0)
(9.23884 0.706596 0)
(9.10399 1.00716 0)
(8.91977 1.19801 0)
(8.63745 0.929009 0)
(8.42764 0.450978 -9.28983e-18)
(8.34427 0.128826 0)
(8.3418 0.0629558 1.8184e-17)
(8.41708 0.165885 0)
(8.5565 0.281884 -1.78308e-17)
(8.77559 0.339771 0)
(9.07842 0.346191 0)
(9.45593 0.337065 1.73591e-17)
(9.88979 0.30755 0)
(10.4084 0.253757 1.71048e-17)
(11.0579 0.203504 -1.70015e-17)
(11.7947 0.215225 0)
(12.5123 0.345683 -1.68767e-17)
(13.0729 0.466328 -1.68707e-17)
(13.3737 0.466336 0)
(13.4771 0.343026 0)
(13.5708 0.217037 0)
(13.7663 0.16243 0)
(14.0848 0.227865 0)
(14.4714 0.35216 1.63792e-17)
(14.8844 0.44823 0)
(15.3404 0.482139 -1.62023e-17)
(15.7698 0.396971 0)
(16.1185 0.210655 0)
(16.4076 0.0241779 1.59237e-17)
(16.6557 -0.0607236 0)
(16.8764 -0.0485006 -1.57184e-17)
(17.0334 0.0457562 0)
(17.0704 0.147721 0)
(16.9842 0.229041 0)
(16.8181 0.258206 1.52328e-17)
(16.6023 0.226395 0)
(16.317 0.134712 0)
(15.8876 0.0144806 1.48739e-17)
(15.1873 -0.077849 0)
(14.1179 0.0199556 1.46566e-17)
(12.5222 0.453745 0)
(10.2932 1.14255 0)
(7.63679 1.75639 0)
(4.91267 1.92807 -1.40929e-17)
(2.4443 1.69285 0)
(0.421729 1.36924 0)
(-1.078 1.09313 -1.36744e-17)
(-2.17419 0.813917 -1.35529e-17)
(-2.94433 0.569354 0)
(-3.40606 0.36177 -1.33063e-17)
(-3.69589 0.180064 0)
(-3.85366 0.053304 -2.61682e-17)
(-3.90558 -0.0396997 0)
(-3.91823 -0.100576 -2.57439e-17)
(-3.94656 -0.146117 0)
(-3.98107 -0.154922 2.53383e-17)
(-4.01106 -0.151139 0)
(-4.03146 -0.174995 0)
(-4.08723 -0.218529 0)
(-4.15763 -0.209223 -2.45712e-17)
(-4.212 -0.242738 0)
(-4.24348 -0.241369 2.41811e-17)
(-4.26832 -0.256968 0)
(-4.25279 -0.264445 -2.37888e-17)
(-4.22802 -0.272311 -2.36058e-17)
(-4.20014 -0.27269 -2.34251e-17)
(-4.10341 -0.313673 0)
(-4.03754 -0.292213 0)
(-3.84894 -0.337535 0)
(-3.6505 -0.348262 0)
(-3.32134 -0.354864 0)
(-2.99897 -0.340183 0)
(-2.83481 -0.307512 0)
(-2.58305 -0.409362 0)
(-1.91492 -0.531043 2.19068e-17)
(-1.01768 -0.495211 2.17243e-17)
(-0.207722 -0.328446 0)
(0.189281 -0.226592 0)
(0.356272 -0.252759 0)
(0.491083 -0.329927 2.10674e-17)
(0.600122 -0.43976 0)
(0.966972 -0.581766 0)
(1.38514 -0.652889 0)
(1.77796 -0.647827 0)
(2.42762 -0.587317 -1.96868e-17)
(2.60441 -0.477269 0)
(2.38578 -0.45662 0)
(2.77817 -0.618804 1.84529e-17)
(3.57451 -0.532142 -1.8739e-17)
(3.75772 -0.348182 0)
(3.44686 -0.492384 -1.89809e-17)
(3.85621 -0.850246 0)
(5.05247 -1.17666 1.89369e-17)
(6.33504 -1.17809 0)
(6.55784 -0.652167 0)
(6.65244 -0.290301 0)
(7.092 -0.251867 0)
(6.84537 -0.062685 0)
(5.59675 -0.0415589 -3.71328e-17)
(4.22831 -0.106641 -3.7037e-17)
(3.31946 -0.217922 0)
(2.84797 -0.281452 0)
(2.75772 -0.254117 0)
(2.64042 -0.145751 3.56577e-17)
(2.49442 -0.13407 0)
(2.07638 -0.084561 0)
(1.9482 0.226896 0)
(-1.05488 -0.0919153 3.53634e-17)
(7.81302 -1.86747 -3.61039e-17)
(9.02222 0.403431 0)
(8.07336 -0.0455018 0)
(11.0819 -0.412751 -3.35064e-17)
(11.2485 0.163348 -3.31758e-17)
(11.4844 0.0293025 0)
(11.4155 0.175358 0)
(11.3926 0.098446 3.17917e-17)
(11.9537 0.140101 -3.15192e-17)
(11.7846 0.24694 0)
(12.0206 0.210226 0)
(11.6966 0.29071 -3.0681e-17)
(10.8669 0.279424 0)
(10.2679 0.203354 0)
(9.6289 0.201735 -2.99495e-17)
(8.75018 0.207875 0)
(7.82143 0.247185 -2.95548e-17)
(6.76779 0.293543 0)
(5.41679 0.288789 0)
(4.22971 0.123406 0)
(3.54735 -0.0640785 2.8651e-17)
(2.58592 -0.101057 0)
(2.11902 -0.161176 0)
(1.26486 -0.0225257 0)
(0.0353665 0.0971646 0)
(-1.44412 0.141827 0)
(-2.43227 0.0481367 0)
(-3.58481 0.0146934 2.69267e-17)
(-4.45188 -0.0716231 2.67052e-17)
(-5.12692 -0.11052 0)
(-6.25573 0.0957398 0)
(-8.22847 0.129215 0)
(-9.66624 -0.0382162 -2.61875e-17)
(-9.74235 -0.282378 0)
(-10.1397 -0.212851 5.3212e-17)
(-10.4074 -0.126479 -5.27671e-17)
(-9.7225 -0.319135 -5.2807e-17)
(-8.55841 -0.287135 5.33043e-17)
(-7.54255 -0.381251 -5.36851e-17)
(-7.32642 -0.264061 5.3766e-17)
(-6.98624 -0.188476 0)
(0.12772 0.968563 0)
(0.382114 1.14797 0)
(0.602826 1.06878 -2.23373e-17)
(0.793079 0.862155 0)
(1.01867 0.649309 2.19584e-17)
(1.33446 0.423312 2.18495e-17)
(1.76518 0.181582 1.0891e-17)
(2.31238 -0.0688028 1.08353e-17)
(2.96047 -0.285997 0)
(3.66504 -0.448989 1.07517e-17)
(4.44315 -0.582487 0)
(5.24204 -0.58562 0)
(6.03503 -0.484809 -2.11759e-17)
(6.82306 -0.512938 -1.05129e-17)
(7.58556 -0.454881 2.08984e-17)
(8.32136 -0.184712 2.07837e-17)
(9.02072 -0.0550501 1.03043e-17)
(9.60134 0.0253101 0)
(10.2006 0.32194 0)
(10.7704 0.524581 0)
(11.1477 0.632693 1.00448e-17)
(11.5832 0.823153 0)
(11.916 1.0274 -2.98098e-17)
(12.137 1.23788 0)
(12.3643 1.39311 0)
(12.4524 1.55733 -9.76145e-18)
(12.5377 1.65041 0)
(12.4804 1.73518 9.68843e-18)
(12.3548 1.89156 1.92996e-17)
(12.1813 1.90322 -9.59289e-18)
(11.8737 1.94796 0)
(11.6247 1.84091 0)
(11.3399 1.56031 0)
(11.162 1.60334 1.87291e-17)
(11.1847 1.73004 1.86662e-17)
(11.1608 1.89214 9.23223e-18)
(10.9744 2.02443 0)
(10.8158 1.85856 -1.79023e-17)
(10.729 1.49574 0)
(10.5516 1.14439 1.76399e-17)
(10.4562 0.833268 0)
(10.5845 0.548261 0)
(10.8679 0.364597 -1.70307e-17)
(11.2198 0.209418 0)
(11.6522 -0.0230977 -5.01878e-17)
(12.1879 -0.298914 1.66347e-17)
(12.8861 -0.429832 0)
(13.6559 -0.231276 1.64934e-17)
(14.3496 0.269441 1.63329e-17)
(14.9276 0.885959 0)
(15.33 1.33644 0)
(15.5419 1.3564 0)
(15.7214 1.06786 0)
(16.0962 0.740771 0)
(16.6662 0.424479 -1.55664e-17)
(17.122 0.0614128 -3.11003e-17)
(17.3307 -0.0812354 1.56753e-17)
(17.4541 0.203539 0)
(17.4303 0.624894 -3.15757e-17)
(17.1812 0.920529 1.58798e-17)
(16.6916 1.04654 0)
(16.0779 1.13251 1.57004e-17)
(15.4008 1.2503 0)
(14.7128 1.3745 0)
(13.9535 1.4698 2.99203e-17)
(12.9267 1.47532 -1.4786e-17)
(11.5467 1.49451 2.90901e-17)
(9.8581 1.73237 -2.86095e-17)
(8.00891 2.29231 -1.43252e-17)
(5.88338 3.10855 0)
(3.27389 3.95355 -1.46286e-17)
(0.772044 4.50651 0)
(-1.24758 4.63887 0)
(-2.92967 4.36496 0)
(-4.44948 3.74686 -1.3877e-17)
(-5.69674 2.97097 0)
(-6.61359 2.17099 -2.72048e-17)
(-7.1464 1.41846 4.04727e-17)
(-7.3711 0.737472 1.33928e-17)
(-7.40183 0.155967 0)
(-7.30672 -0.293408 1.31865e-17)
(-7.12101 -0.613151 0)
(-6.86634 -0.821754 2.59462e-17)
(-6.59725 -0.979403 0)
(-6.33567 -1.04167 2.55139e-17)
(-6.11172 -1.07275 -5.05872e-17)
(-5.89053 -1.09674 -2.50938e-17)
(-5.74039 -1.10984 0)
(-5.60747 -1.13366 0)
(-5.47596 -1.17804 0)
(-5.40478 -1.15376 2.43691e-17)
(-5.32671 -1.20049 0)
(-5.231 -1.19914 -2.40261e-17)
(-5.1224 -1.22011 0)
(-4.97834 -1.25004 7.09368e-17)
(-4.84963 -1.24457 2.34333e-17)
(-4.6345 -1.24606 2.32123e-17)
(-4.45736 -1.24093 0)
(-4.33058 -1.25288 0)
(-3.86226 -1.35063 0)
(-3.73852 -1.3734 0)
(-3.22391 -1.43955 0)
(-2.88682 -1.36903 4.39824e-17)
(-2.64472 -1.30997 4.36843e-17)
(-2.3992 -1.62575 0)
(-1.8582 -2.06424 -2.2063e-17)
(-1.036 -2.29603 -2.19481e-17)
(0.133606 -1.95694 0)
(0.99745 -1.5224 -4.19918e-17)
(1.51092 -1.36904 0)
(1.99499 -1.35919 2.06e-17)
(2.31331 -1.47251 0)
(3.01272 -1.61268 0)
(3.38387 -1.67751 -3.92292e-17)
(3.2608 -1.88238 0)
(3.57656 -1.93046 1.85033e-17)
(3.64915 -1.54183 0)
(3.34925 -1.68645 0)
(3.28018 -2.39095 1.70977e-17)
(3.9625 -2.42964 1.73455e-17)
(4.60933 -1.89367 0)
(4.95275 -1.78139 -1.72771e-17)
(5.72718 -2.60471 0)
(6.09663 -3.02901 1.77284e-17)
(5.45694 -2.25982 3.71669e-17)
(4.9182 -1.89157 0)
(5.77289 -2.30055 0)
(6.03237 -1.84183 0)
(5.74769 -0.629763 0)
(4.73449 -0.102677 3.55013e-17)
(3.17492 -0.0759286 1.06428e-16)
(2.03488 -0.390415 0)
(1.04743 -0.814791 0)
(0.30024 -0.835556 0)
(0.360117 -0.771342 -3.36603e-17)
(0.643579 -0.589562 0)
(0.283849 0.14795 0)
(0.0827956 0.51358 7.07902e-17)
(-2.08385 -3.05519 3.64865e-17)
(10.9487 -7.24501 3.73611e-17)
(7.32923 0.921551 0)
(10.5378 -1.2899 0)
(11.3441 -1.76069 3.31653e-17)
(12.6967 0.198245 -3.21925e-17)
(12.264 -0.0492393 0)
(12.014 0.297992 0)
(11.6077 -0.0991422 -2.98508e-17)
(12.6355 -0.223802 8.83505e-17)
(12.5795 -0.0160581 0)
(12.8429 -0.270797 0)
(12.2733 0.0293802 2.84917e-17)
(11.7272 0.166985 0)
(11.4507 -0.039597 5.58525e-17)
(11.1827 0.0159434 -2.78841e-17)
(10.5158 -0.0600827 0)
(9.65394 -0.263807 2.78915e-17)
(8.80468 -0.24294 5.55635e-17)
(7.67709 -0.137578 0)
(6.92359 -0.443111 0)
(7.16557 -0.643721 -2.70294e-17)
(6.3209 -0.432739 0)
(6.06231 -0.672961 5.25704e-17)
(4.4409 -0.384421 0)
(3.12009 -0.265208 0)
(1.45697 -0.457521 0)
(0.595584 -0.68033 0)
(-0.787735 -0.647286 -2.41879e-17)
(-1.59084 -0.775175 -2.38012e-17)
(-2.68293 -0.729696 0)
(-4.06463 -0.274057 0)
(-5.93936 -0.117829 0)
(-7.31425 -0.646927 2.28711e-17)
(-7.4948 -1.09501 0)
(-8.66233 -0.756428 -4.84396e-17)
(-8.54538 -0.937023 4.7399e-17)
(-7.50063 -1.46188 4.82149e-17)
(-6.47729 -1.1932 5.00504e-17)
(-6.6663 -0.787916 5.12358e-17)
(-7.63494 -0.254509 5.08938e-17)
(-7.38107 -0.616644 0)
(0.113285 1.32903 0)
(0.414987 1.41218 0)
(0.74746 1.54907 2.26785e-17)
(0.998658 1.51877 2.23405e-17)
(1.28793 1.23812 -2.21543e-17)
(1.73099 0.754189 -2.21487e-17)
(2.33507 0.246968 3.10599e-20)
(3.0258 -0.255424 0)
(3.80942 -0.662311 0)
(4.60028 -0.928649 0)
(5.42848 -1.16995 0)
(6.23803 -1.30227 0)
(7.04847 -1.0471 6.52203e-17)
(7.90765 -1.00436 0)
(8.71428 -1.06412 -2.14438e-17)
(9.36651 -0.618437 -2.12207e-17)
(10.1632 -0.313785 0)
(10.8869 -0.210026 0)
(11.3461 0.114656 0)
(12.0143 0.502103 0)
(12.5854 0.720974 -2.03857e-17)
(12.8626 1.07664 0)
(13.3108 1.44682 2.00767e-17)
(13.7554 1.44433 0)
(13.918 1.92926 0)
(14.2554 2.25528 0)
(14.5995 2.16437 3.86462e-17)
(14.6449 2.77531 0)
(14.8273 2.93047 -1.912e-17)
(14.8623 3.05208 3.78355e-17)
(14.7503 3.5542 0)
(14.6799 3.31279 0)
(14.2548 3.63528 0)
(13.7746 3.69653 -1.86537e-17)
(13.1828 2.87858 -1.85257e-17)
(12.6296 2.81798 0)
(12.4348 2.68117 0)
(12.3711 2.23714 3.66948e-17)
(12.434 2.33708 3.60385e-17)
(12.4692 2.60466 -3.55734e-17)
(12.5225 2.229 0)
(12.7701 1.53194 0)
(13.1427 1.21365 0)
(13.5538 1.16832 0)
(14.0292 0.882071 3.39661e-17)
(14.4101 0.25813 3.37569e-17)
(14.7765 -0.159216 -3.35143e-17)
(15.2018 0.0339711 0)
(15.5308 0.539285 0)
(15.7523 1.05795 0)
(16.0382 1.52526 0)
(16.4286 1.52055 3.25211e-17)
(16.524 0.945716 0)
(16.4556 0.566164 0)
(16.3669 0.938974 3.20635e-17)
(15.6683 1.60625 3.25424e-17)
(14.6636 2.11315 0)
(13.7187 2.42713 -6.37498e-17)
(12.9343 2.59165 3.13602e-17)
(12.2672 2.65635 -3.08595e-17)
(11.558 2.70885 0)
(10.8316 2.80851 0)
(9.94065 2.94796 0)
(8.93306 3.17423 0)
(7.78964 3.53119 -2.87806e-17)
(6.50347 4.03009 -5.7877e-17)
(4.95744 4.54021 -2.92208e-17)
(3.19031 5.03634 2.93857e-17)
(1.44559 5.50186 0)
(-0.300522 5.94127 -5.85594e-17)
(-2.09234 6.29893 -5.7783e-17)
(-3.63306 6.44761 -5.687e-17)
(-4.88958 6.30745 5.62499e-17)
(-5.8292 5.76076 0)
(-6.48916 4.84676 8.32318e-17)
(-6.87193 3.72891 0)
(-7.02667 2.56236 -2.74778e-17)
(-6.95988 1.48327 -2.73789e-17)
(-6.81653 0.52886 0)
(-6.56362 -0.261412 0)
(-6.24529 -0.86938 -5.37603e-17)
(-5.92504 -1.29814 0)
(-5.64272 -1.58249 -5.2923e-17)
(-5.33722 -1.76023 0)
(-5.05173 -1.84839 5.20659e-17)
(-4.84102 -1.8692 1.03255e-16)
(-4.66368 -1.91087 0)
(-4.54856 -1.9149 0)
(-4.43683 -1.92564 0)
(-4.30629 -1.9703 4.99301e-17)
(-4.2851 -1.94433 0)
(-4.25187 -1.94468 4.91616e-17)
(-4.20808 -1.96313 0)
(-4.23752 -2.0298 0)
(-4.15427 -2.1212 -9.60928e-17)
(-4.1339 -2.18654 0)
(-3.91235 -2.14724 -4.69214e-17)
(-3.7886 -2.02183 0)
(-3.55967 -2.15089 -4.62354e-17)
(-3.2048 -2.22988 0)
(-3.03887 -2.22279 0)
(-2.59002 -2.31745 0)
(-2.1845 -2.18684 -1.34146e-16)
(-1.87618 -2.00274 -4.44091e-17)
(-1.62217 -2.31869 0)
(-1.49852 -3.03892 0)
(-1.22624 -3.62983 0)
(-0.418842 -3.37416 0)
(0.451519 -2.70815 4.23843e-17)
(1.08668 -2.50007 -8.3503e-17)
(1.65644 -2.46071 -4.11903e-17)
(2.06288 -2.74107 8.04851e-17)
(3.16967 -3.0596 7.91728e-17)
(4.11692 -2.69705 3.9386e-17)
(4.53186 -2.57886 0)
(5.09351 -2.85995 7.66811e-17)
(5.28117 -2.39513 0)
(4.83512 -2.25815 -6.85946e-17)
(4.12609 -3.18055 -3.43498e-17)
(4.19987 -3.8294 0)
(5.01805 -3.41909 6.97453e-17)
(6.02538 -3.46526 3.39791e-17)
(6.26868 -3.77554 0)
(5.0251 -3.17468 3.62068e-17)
(3.56332 -2.55113 -1.12501e-16)
(3.46413 -3.16907 0)
(3.6675 -3.32893 0)
(3.80236 -2.32672 0)
(3.86893 -1.07516 0)
(2.85081 -0.275827 -6.93117e-17)
(1.74556 -0.162797 -6.96174e-17)
(0.992609 -0.379175 0)
(-0.317435 -0.631279 0)
(-0.949911 -1.06369 0)
(-0.559959 -1.42666 0)
(0.668087 -1.12795 0)
(0.768866 -0.195427 0)
(0.0389831 -0.032771 -7.09122e-17)
(-0.725879 -6.19821 3.45723e-20)
(7.52952 -10.1662 0)
(4.61727 1.15327 0)
(11.6805 -2.7914 -6.98582e-17)
(10.3296 -2.63358 0)
(13.574 0.326125 6.50362e-17)
(12.8651 0.277386 6.27631e-17)
(12.4112 0.688385 0)
(11.7423 0.0252599 0)
(13.164 -0.558537 -5.95917e-17)
(13.5643 0.0150953 -1.16422e-16)
(14.528 0.0708557 0)
(13.5297 0.654042 0)
(12.9163 0.507537 0)
(12.5957 -0.227947 -5.74646e-17)
(12.5035 -0.428051 5.52729e-17)
(12.2672 -0.119412 0)
(11.4458 -0.148869 1.09785e-16)
(10.1032 -0.00299892 5.53418e-17)
(8.71799 0.0666861 -1.12878e-16)
(7.78792 -0.809091 0)
(8.65003 -1.51327 0)
(8.22582 -0.993016 -1.07358e-16)
(9.26126 -0.973518 -5.32794e-17)
(8.03351 -0.370116 0)
(6.54587 -0.211043 0)
(4.50743 -0.383103 0)
(3.81116 -0.769592 0)
(2.27846 -0.830963 -9.45756e-17)
(1.34715 -1.07646 0)
(-0.0798654 -0.962283 0)
(-1.83132 -0.27432 0)
(-3.43458 -0.218071 0)
(-4.70557 -1.043 0)
(-5.6728 -1.46614 0)
(-7.78699 -1.14759 -9.08341e-17)
(-7.23129 -1.84308 0)
(-7.01434 -2.26924 0)
(-7.32002 -1.59713 -1.97302e-16)
(-8.5773 -0.664086 9.95147e-17)
(-9.43189 -0.26513 -9.59808e-17)
(-8.61281 -1.48461 9.19245e-17)
(0.100252 1.91979 0)
(0.208849 1.8819 -4.69643e-17)
(0.399653 1.96044 0)
(0.695953 1.82558 -2.28173e-17)
(1.2482 1.22129 0)
(1.94487 0.395247 0)
(2.79058 -0.336226 2.29309e-17)
(3.61396 -0.947044 0)
(4.4866 -1.36487 0)
(5.24155 -1.65107 0)
(6.09143 -1.74264 0)
(6.78884 -1.84471 0)
(7.52596 -1.75414 -8.81129e-17)
(8.34608 -1.53679 -4.37923e-17)
(9.04615 -1.42138 4.3438e-17)
(9.76742 -0.889854 0)
(10.5638 -0.695792 0)
(11.2542 -0.517799 0)
(11.8564 0.203581 0)
(12.4314 0.389059 0)
(12.9881 0.911597 -4.13204e-17)
(13.4495 1.5133 -4.12037e-17)
(13.829 1.42653 4.08395e-17)
(14.2808 2.01319 -4.03057e-17)
(14.5657 2.47164 0)
(14.8758 2.30729 0)
(15.3161 2.86484 -3.90807e-17)
(15.409 3.34316 0)
(15.8888 3.42274 0)
(16.1235 3.96638 -3.81623e-17)
(16.0859 4.2948 -3.80287e-17)
(16.4893 4.57708 -3.77836e-17)
(16.2503 4.94243 0)
(16.113 4.96957 0)
(15.9269 5.33408 3.69318e-17)
(15.1195 5.14985 0)
(14.456 4.37627 0)
(13.6783 3.63804 -3.64862e-17)
(13.1069 3.13806 3.59224e-17)
(13.1472 3.11135 -3.57296e-17)
(13.6237 2.52265 0)
(13.8202 1.58876 0)
(13.7084 1.17653 -6.92505e-17)
(13.7967 0.99826 0)
(14.4332 0.826466 -6.76126e-17)
(15.1486 0.593496 -1.00845e-16)
(15.3885 0.302364 1.00355e-16)
(15.4408 0.513812 -6.68256e-17)
(15.2303 1.28146 0)
(14.6692 1.88912 0)
(14.1813 2.17559 -6.53863e-17)
(13.6718 2.63819 -3.27682e-17)
(12.742 3.10899 0)
(11.6561 3.29039 0)
(10.7962 3.38669 -3.22186e-17)
(10.1319 3.60264 -6.35196e-17)
(9.53886 3.83011 0)
(8.98923 3.98278 6.16636e-17)
(8.46099 4.10835 -6.08745e-17)
(7.88746 4.20949 6.0069e-17)
(7.1892 4.30781 0)
(6.39035 4.55225 0)
(5.50118 4.93379 0)
(4.54641 5.33582 0)
(3.52107 5.78749 0)
(2.45424 6.23225 5.91646e-17)
(1.23575 6.6571 0)
(-0.133143 7.09998 0)
(-1.47284 7.54348 0)
(-2.7106 7.82591 1.15836e-16)
(-3.84268 7.86079 5.72407e-17)
(-4.79638 7.63901 5.67721e-17)
(-5.55772 7.08986 -1.13071e-16)
(-6.07828 6.19158 5.63742e-17)
(-6.34331 4.94926 -5.6238e-17)
(-6.38799 3.49436 0)
(-6.22159 2.08279 5.56608e-17)
(-5.89235 0.809903 0)
(-5.53399 -0.317429 0)
(-5.17114 -1.1808 0)
(-4.81512 -1.80846 1.08234e-16)
(-4.49559 -2.24209 -5.36289e-17)
(-4.24872 -2.5269 -5.312e-17)
(-4.01104 -2.68489 -1.05363e-16)
(-3.80027 -2.77334 -1.56751e-16)
(-3.66322 -2.78096 -5.18247e-17)
(-3.50979 -2.82956 0)
(-3.43322 -2.84656 -1.02006e-16)
(-3.40185 -2.79186 0)
(-3.36736 -2.87353 -1.51043e-16)
(-3.37091 -2.83469 0)
(-3.3766 -2.85806 -1.4888e-16)
(-3.22324 -2.7818 0)
(-3.31753 -2.85685 0)
(-3.21782 -2.86935 -4.82045e-17)
(-3.33717 -3.04674 0)
(-3.20534 -3.06859 4.75014e-17)
(-3.22235 -2.98059 9.37851e-17)
(-2.89355 -3.1383 4.67584e-17)
(-2.80911 -3.20962 9.26908e-17)
(-2.46432 -3.27776 -9.18837e-17)
(-2.24144 -3.43373 -9.13063e-17)
(-1.70543 -3.38317 1.81044e-16)
(-1.14976 -3.07833 0)
(-0.661971 -3.12831 0)
(-0.512572 -3.63425 8.79488e-17)
(-0.578508 -4.48097 -8.77311e-17)
(-0.576876 -4.73032 0)
(-0.0396609 -4.10111 0)
(0.498915 -3.73624 8.33119e-17)
(0.903609 -3.69674 0)
(1.48102 -4.28031 3.44257e-20)
(2.57911 -4.91015 3.97901e-20)
(3.41412 -4.41787 7.77639e-17)
(4.13969 -4.23887 0)
(5.63058 -4.54081 -8.02149e-17)
(6.51138 -3.36374 0)
(6.24623 -2.59725 7.03329e-17)
(5.5324 -3.79639 0)
(5.0725 -5.4002 0)
(5.50427 -5.60799 -6.92549e-17)
(6.02326 -4.94636 -6.89253e-17)
(5.44363 -4.09252 0)
(3.50767 -3.39748 -7.34582e-17)
(1.96929 -3.17941 1.49566e-16)
(1.90399 -4.35729 0)
(1.74863 -4.66252 0)
(2.19918 -3.89479 0)
(1.8063 -1.84206 0)
(0.956424 -0.529663 6.82694e-17)
(0.383144 -0.56796 -1.36818e-16)
(0.00523125 -0.551821 0)
(-1.28536 -1.13531 0)
(-1.61058 -2.13761 0)
(-0.35372 -2.77892 0)
(2.40954 -2.48287 0)
(3.80132 -0.106288 0)
(1.23176 -0.204429 0)
(1.64245 -8.19522 6.82593e-17)
(5.08522 -11.3114 0)
(2.68609 -0.330918 0)
(11.0762 -4.99215 6.53491e-17)
(9.01393 -3.85648 0)
(13.8464 -0.445026 0)
(13.9294 0.46058 -6.29197e-17)
(13.0161 1.30122 0)
(11.9601 0.0186451 0)
(13.9796 -1.19353 1.30328e-16)
(14.4467 -0.492146 1.2218e-16)
(16.7959 -0.501407 1.17336e-16)