/*--------------------------------*- C++ -*----------------------------------*\
| =========                 |                                                 |
| \\      /  F ield         | OpenFOAM: The Open Source CFD Toolbox           |
|  \\    /   O peration     | Version:  dev                                   |
|   \\  /    A nd           | Web:      http://www.openfoam.org               |
|    \\/     M anipulation  |                                                 |
\*---------------------------------------------------------------------------*/
FoamFile
{
    version     2.0;
    format      ascii;
    class       volVectorField;
    object      UMean;
    location    "9.144";
}
// * * * * * * * * * * * * * * * * * * * * * * * * * * * * * * * * * * * * * //

dimensions      [0 1 -1 0 0 0 0];

internalField   nonuniform List<vector> 
12225
(
(7.00368 0.430275 0)
(4.43881 0.192555 0)
(2.55668 0.0311621 0)
(2.5108 -0.0166626 0)
(1.38434 0.0193794 0)
(2.26722 -0.034288 0)
(0.989456 0.0489964 0)
(2.18238 -0.0591829 0)
(0.797503 0.0716631 0)
(2.29151 -0.0978535 0)
(0.688833 0.0993619 0)
(2.74343 -0.138637 0)
(0.948384 0.10259 0)
(3.39712 -0.172127 0)
(3.53253 -0.168609 0)
(4.69697 0.0499923 0)
(14.8493 -2.43467 0)
(7.1211 5.13457 0)
(9.54625 0.981591 0)
(9.54341 0.860889 0)
(6.68667 0.466306 0)
(7.59031 0.214542 0)
(4.09023 0.140341 0)
(6.84295 0.0107739 0)
(2.66484 0.132704 0)
(6.68887 -0.0903736 0)
(1.82263 0.141895 0)
(7.0385 -0.165114 0)
(1.26092 0.123925 0)
(8.12098 -0.414492 0)
(1.38543 0.252332 0)
(9.95537 -1.44262 0)
(3.43562 0.271254 0)
(12.3914 -4.06906 0)
(10.4318 -1.92903 0)
(7.778 0.48678 0)
(9.11844 0.76349 0)
(12.1669 0.951401 0)
(8.3294 0.624004 0)
(11.8321 0.443403 0)
(6.22564 0.310361 0)
(11.413 0.206403 0)
(4.58239 0.221618 0)
(11.3148 -0.0196639 0)
(3.87434 0.193097 0)
(11.376 -0.277995 0)
(4.35127 0.187324 0)
(11.252 -0.723105 0)
(5.7298 0.17567 0)
(11.0897 -1.49158 0)
(7.2162 0.0516813 0)
(12.119 -3.86729 0)
(6.93193 0.350052 0)
(9.35485 -2.39002 0)
(7.21888 0.524947 0)
(13.9932 0.961052 0)
(7.92941 0.609487 0)
(14.2956 0.553866 0)
(7.47376 0.420953 0)
(14.1169 0.270982 0)
(7.17513 0.396799 0)
(13.739 -0.145325 0)
(7.2563 0.459735 0)
(13.2703 -0.699008 0)
(7.65931 0.576825 0)
(12.8755 -1.42298 0)
(8.26758 0.699091 0)
(12.6523 -2.31336 0)
(9.02545 0.040088 0)
(11.8881 -3.63656 0)
(8.68673 -1.43449 0)
(8.36356 0.682875 0)
(6.42327 0.569978 0)
(14.012 0.565979 0)
(8.47279 0.674513 0)
(13.9592 0.284554 0)
(9.16856 0.636766 0)
(13.6447 -0.00262469 0)
(9.51624 0.657956 0)
(13.2152 -0.388849 0)
(9.591 0.7345 0)
(12.8144 -0.871529 0)
(9.4444 0.876946 0)
(12.5844 -1.52168 0)
(9.1485 1.08974 0)
(12.5728 -2.49045 0)
(8.82627 1.13114 0)
(11.6184 -5.02863 0)
(8.54164 1.26493 0)
(8.72201 0.131857 0)
(7.95564 0.616744 0)
(11.8041 0.152506 0)
(9.50448 0.654634 0)
(11.7404 0.0503239 0)
(10.0877 0.693827 0)
(11.6014 -0.165588 0)
(10.32 0.725727 0)
(11.4772 -0.457461 0)
(10.2997 0.782847 0)
(11.3905 -0.85354 0)
(10.0316 0.831733 0)
(11.3563 -1.40009 0)
(9.49055 0.800713 0)
(11.4193 -2.13856 0)
(8.79795 0.724933 0)
(10.9991 -3.92126 0)
(7.73095 1.33487 0)
(9.48905 -0.215735 0)
(9.34361 0.812663 0)
(10.4393 -0.265937 0)
(10.1404 0.930464 0)
(10.5542 -0.30451 0)
(10.3984 1.01997 0)
(10.5822 -0.502857 0)
(10.5198 1.07547 0)
(10.6256 -0.78112 0)
(10.5631 1.15343 0)
(10.672 -1.15767 0)
(10.5149 1.23517 0)
(10.7001 -1.63569 0)
(10.3661 1.2611 0)
(10.6881 -2.32751 0)
(10.0519 1.27106 0)
(10.3756 -3.95566 0)
(8.29731 2.01989 0)
(9.69675 -0.951299 0)
(9.84888 0.701044 0)
(10.1562 -0.325936 0)
(10.4065 0.854912 0)
(10.3899 -0.349812 0)
(10.5802 0.906728 0)
(10.4706 -0.493866 0)
(10.7016 0.892809 0)
(10.552 -0.686151 0)
(10.8053 0.872557 0)
(10.6438 -0.935132 0)
(10.881 0.823694 0)
(10.7352 -1.23269 0)
(10.9082 0.671196 0)
(10.7535 -1.67278 0)
(10.7234 0.519591 0)
(10.4919 -2.47491 0)
(8.89284 0.98144 0)
(9.96329 -0.484028 0)
(10.0857 0.802221 0)
(10.0198 -0.583396 0)
(10.5355 1.0214 0)
(10.3107 -0.604473 0)
(10.6751 1.07498 0)
(10.4401 -0.724943 0)
(10.7776 1.04819 0)
(10.571 -0.890054 0)
(10.8572 1.00369 0)
(10.7115 -1.11786 0)
(10.8989 0.921201 0)
(10.832 -1.39518 0)
(10.8743 0.734894 0)
(10.8223 -1.76141 0)
(10.6026 0.505853 0)
(10.5205 -2.06982 0)
(9.34947 0.586637 0)
(10.0232 -0.391764 0)
(10.1391 0.648574 0)
(10.0423 -0.511924 0)
(10.5103 0.877935 0)
(10.3335 -0.456458 0)
(10.6214 0.86914 0)
(10.482 -0.493588 0)
(10.6979 0.778175 0)
(10.6291 -0.572102 0)
(10.7342 0.657841 0)
(10.7637 -0.695369 0)
(10.7179 0.495513 0)
(10.8403 -0.845123 0)
(10.6183 0.26404 0)
(10.7655 -1.03252 0)
(10.2823 0.0702424 0)
(10.4793 -1.05346 0)
(9.62274 0.124259 0)
(10.2067 -0.0329132 0)
(10.141 0.699977 0)
(10.0707 -0.691935 0)
(10.4525 0.902498 0)
(10.2986 -0.618971 0)
(10.5375 0.847655 0)
(10.4302 -0.645601 0)
(10.6033 0.735321 0)
(10.5607 -0.707504 0)
(10.6273 0.586851 0)
(10.6604 -0.791426 0)
(10.6092 0.383216 0)
(10.6813 -0.869543 0)
(10.5269 0.117119 0)
(10.5709 -0.922478 0)
(10.2914 -0.113721 0)
(10.3607 -0.765464 0)
(10.0195 -0.153998 0)
(10.2453 -0.125306 0)
(10.0968 0.467992 0)
(10.1508 -0.495157 0)
(10.3536 0.595744 0)
(10.2934 -0.374666 0)
(10.4203 0.527531 0)
(10.4093 -0.354835 0)
(10.4848 0.418886 0)
(10.5239 -0.374244 0)
(10.5131 0.275739 0)
(10.5994 -0.414745 0)
(10.5157 0.0933129 0)
(10.5971 -0.46177 0)
(10.4766 -0.10335 0)
(10.4995 -0.500282 0)
(10.357 -0.232163 0)
(10.3645 -0.405746 0)
(10.2657 -0.219843 0)
(10.3737 -0.110197 0)
(10.0501 0.411 0)
(10.1755 -0.487345 0)
(10.2549 0.437231 0)
(10.2379 -0.367597 0)
(10.3088 0.367414 0)
(10.3307 -0.345676 0)
(10.3793 0.250923 0)
(10.4246 -0.355403 0)
(10.4226 0.0995362 0)
(10.4823 -0.375004 0)
(10.4463 -0.079678 0)
(10.4818 -0.403544 0)
(10.433 -0.246693 0)
(10.4261 -0.431387 0)
(10.3772 -0.339237 0)
(10.3685 -0.392731 0)
(10.357 -0.320557 0)
(10.4222 -0.276523 0)
(10.0154 0.199627 0)
(10.1907 -0.285882 0)
(10.1932 0.167336 0)
(10.2052 -0.179364 0)
(10.2293 0.131678 0)
(10.2792 -0.171426 0)
(10.3062 0.0472564 0)
(10.3626 -0.19784 0)
(10.366 -0.0586948 0)
(10.4142 -0.235797 0)
(10.4055 -0.176032 0)
(10.4267 -0.286501 0)
(10.4123 -0.27504 0)
(10.4112 -0.33172 0)
(10.3994 -0.324173 0)
(10.4065 -0.337228 0)
(10.4108 -0.316037 0)
(10.4697 -0.304831 0)
(9.99663 0.0971262 0)
(10.1445 -0.18593 0)
(10.1463 0.0216763 0)
(10.1501 -0.133706 0)
(10.1622 -0.00860963 0)
(10.2089 -0.146202 0)
(10.241 -0.0769458 0)
(10.2919 -0.186773 0)
(10.311 -0.159396 0)
(10.3486 -0.238006 0)
(10.3575 -0.244815 0)
(10.3791 -0.298356 0)
(10.3805 -0.316322 0)
(10.3938 -0.350119 0)
(10.3959 -0.361054 0)
(10.4185 -0.380221 0)
(10.4238 -0.381068 0)
(10.4788 -0.38725 0)
(9.99367 0.0154948 0)
(10.106 -0.0858297 0)
(10.1089 -0.0443223 0)
(10.1138 -0.0932691 0)
(10.1188 -0.0748832 0)
(10.1675 -0.118954 0)
(10.198 -0.120611 0)
(10.2518 -0.163858 0)
(10.274 -0.180589 0)
(10.3154 -0.219191 0)
(10.3278 -0.243963 0)
(10.3597 -0.277858 0)
(10.3659 -0.301373 0)
(10.3939 -0.329041 0)
(10.3995 -0.347023 0)
(10.4329 -0.370829 0)
(10.4356 -0.38381 0)
(10.4883 -0.397024 0)
(9.99176 0.00474928 0)
(10.0636 -0.0251692 0)
(10.0567 -0.0349147 0)
(10.0678 -0.0664735 0)
(10.0778 -0.075709 0)
(10.128 -0.0997679 0)
(10.1573 -0.115945 0)
(10.211 -0.144718 0)
(10.2337 -0.168992 0)
(10.2782 -0.199597 0)
(10.292 -0.226592 0)
(10.33 -0.25707 0)
(10.3384 -0.283353 0)
(10.3731 -0.312089 0)
(10.3788 -0.336838 0)
(10.4152 -0.36557 0)
(10.4146 -0.388083 0)
(10.4635 -0.407498 0)
(9.99163 0.0141534 0)
(10.0467 0.0161562 0)
(10.0399 -0.0105743 0)
(10.0576 -0.0376791 0)
(10.0749 -0.0565273 0)
(10.1255 -0.0778516 0)
(10.1555 -0.0988637 0)
(10.2072 -0.123827 0)
(10.2312 -0.148999 0)
(10.2754 -0.176642 0)
(10.2912 -0.203447 0)
(10.3293 -0.232181 0)
(10.3395 -0.259391 0)
(10.3737 -0.288339 0)
(10.3802 -0.315667 0)
(10.4141 -0.345737 0)
(10.4133 -0.371595 0)
(10.4568 -0.393411 0)
(9.99167 0.0329294 0)
(10.0502 0.0496498 0)
(10.0566 0.00993873 0)
(10.0799 -0.0180724 0)
(10.1007 -0.040233 0)
(10.1506 -0.0614769 0)
(10.1819 -0.0836095 0)
(10.2316 -0.106412 0)
(10.2563 -0.130553 0)
(10.2985 -0.15552 0)
(10.3151 -0.181086 0)
(10.3508 -0.207337 0)
(10.3615 -0.233573 0)
(10.3927 -0.260427 0)
(10.3991 -0.287046 0)
(10.4288 -0.315304 0)
(10.4282 -0.341036 0)
(10.4654 -0.362813 0)
(9.98991 0.0407189 0)
(10.0547 0.0526771 0)
(10.0828 -0.00631821 0)
(10.1167 -0.0406519 0)
(10.142 -0.0640988 0)
(10.1904 -0.0822534 0)
(10.2224 -0.102086 0)
(10.2691 -0.121004 0)
(10.2936 -0.142745 0)
(10.3321 -0.163993 0)
(10.3484 -0.187408 0)
(10.3802 -0.210095 0)
(10.3905 -0.2344 0)
(10.4175 -0.25792 0)
(10.4229 -0.282785 0)
(10.4474 -0.30782 0)
(10.4462 -0.33245 0)
(10.4769 -0.352844 0)
(9.99052 0.0315747 0)
(10.0685 0.0220162 0)
(10.1262 -0.0557394 0)
(10.177 -0.0967526 0)
(10.2126 -0.119778 0)
(10.261 -0.132743 0)
(10.2938 -0.147781 0)
(10.3361 -0.161667 0)
(10.3602 -0.179844 0)
(10.3941 -0.196932 0)
(10.4104 -0.217375 0)
(10.4377 -0.236256 0)
(10.4479 -0.257998 0)
(10.4702 -0.278063 0)
(10.4754 -0.30074 0)
(10.4947 -0.322361 0)
(10.494 -0.345212 0)
(10.5188 -0.363491 0)
(9.99116 0.00987967 0)
(10.092 -0.0296989 0)
(10.187 -0.120827 0)
(10.2595 -0.162761 0)
(10.3093 -0.181118 0)
(10.359 -0.187156 0)
(10.3929 -0.196036 0)
(10.4305 -0.204373 0)
(10.4542 -0.218114 0)
(10.4837 -0.230752 0)
(10.5002 -0.247609 0)
(10.5233 -0.262637 0)
(10.5338 -0.281341 0)
(10.5518 -0.298025 0)
(10.5573 -0.318078 0)
(10.572 -0.336412 0)
(10.5724 -0.356988 0)
(10.5921 -0.373122 0)
(9.99279 -0.0233744 0)
(10.1275 -0.103604 0)
(10.2671 -0.204921 0)
(10.3665 -0.241588 0)
(10.432 -0.250807 0)
(10.4836 -0.248394 0)
(10.5183 -0.250905 0)
(10.5518 -0.253704 0)
(10.5754 -0.262982 0)
(10.6012 -0.27134 0)
(10.6182 -0.284668 0)
(10.6379 -0.296285 0)
(10.6487 -0.312094 0)
(10.6632 -0.325847 0)
(10.6692 -0.343377 0)
(10.6802 -0.358823 0)
(10.6815 -0.377134 0)
(10.6969 -0.391277 0)
(9.99047 -0.0715848 0)
(10.1744 -0.201151 0)
(10.3679 -0.30545 0)
(10.5001 -0.327853 0)
(10.5805 -0.322559 0)
(10.6344 -0.310192 0)
(10.669 -0.305575 0)
(10.6997 -0.302567 0)
(10.7227 -0.306704 0)
(10.7461 -0.310582 0)
(10.7625 -0.319902 0)
(10.7795 -0.328046 0)
(10.7896 -0.340579 0)
(10.8007 -0.351354 0)
(10.8056 -0.365943 0)
(10.8125 -0.378499 0)
(10.8123 -0.394055 0)
(10.8223 -0.406004 0)
(9.99201 -0.13637 0)
(10.2447 -0.323006 0)
(10.5027 -0.419005 0)
(10.6712 -0.417631 0)
(10.7628 -0.394177 0)
(10.8175 -0.371111 0)
(10.8494 -0.358944 0)
(10.8772 -0.350587 0)
(10.8961 -0.350096 0)
(10.9149 -0.350491 0)
(10.9254 -0.356374 0)
(10.9356 -0.361507 0)
(10.9375 -0.370804 0)
(10.9394 -0.378665 0)
(10.934 -0.389858 0)
(10.9292 -0.39944 0)
(10.9165 -0.411358 0)
(10.9116 -0.420504 0)
(9.98977 -0.219913 0)
(10.3369 -0.468123 0)
(10.6737 -0.539731 0)
(10.8758 -0.508218 0)
(10.9697 -0.46485 0)
(11.0135 -0.42806 0)
(11.0286 -0.404808 0)
(11.0352 -0.388382 0)
(11.0291 -0.381415 0)
(11.0195 -0.376964 0)
(10.998 -0.378173 0)
(10.9735 -0.379079 0)
(10.9377 -0.383797 0)
(10.9 -0.387274 0)
(10.8523 -0.393637 0)
(10.8042 -0.398959 0)
(10.7462 -0.405274 0)
(10.6945 -0.410047 0)
(9.98331 -0.332076 0)
(10.4676 -0.642317 0)
(10.8829 -0.667106 0)
(11.0725 -0.602644 0)
(11.103 -0.537198 0)
(11.0583 -0.483125 0)
(10.9743 -0.444986 0)
(10.8732 -0.416227 0)
(10.7577 -0.398015 0)
(10.635 -0.383275 0)
(10.5035 -0.374891 0)
(10.3666 -0.36633 0)
(10.2241 -0.362444 0)
(10.0774 -0.356992 0)
(9.92862 -0.355843 0)
(9.77704 -0.353247 0)
(9.62587 -0.352946 0)
(9.47595 -0.351108 0)
(10.0025 -0.453659 0)
(10.619 -0.818953 0)
(10.9017 -0.752073 0)
(10.7933 -0.623759 0)
(10.4938 -0.512548 0)
(10.1376 -0.4292 0)
(9.77011 -0.373573 0)
(9.41758 -0.334732 0)
(9.07676 -0.307303 0)
(8.7554 -0.284618 0)
(8.4464 -0.267661 0)
(8.15329 -0.251335 0)
(7.87254 -0.240043 0)
(7.60295 -0.227339 0)
(7.34814 -0.221131 0)
(7.09861 -0.211818 0)
(6.87018 -0.210845 0)
(6.64076 -0.204166 0)
(10.0974 -0.75079 0)
(10.0458 -1.0132 0)
(9.42494 -0.801096 0)
(8.51442 -0.572192 0)
(7.65496 -0.378732 0)
(6.92879 -0.244886 0)
(6.3272 -0.167525 0)
(5.83147 -0.126257 0)
(5.40902 -0.104711 0)
(5.04842 -0.0923291 0)
(4.72832 -0.0849688 0)
(4.44758 -0.0793555 0)
(4.19118 -0.0758114 0)
(3.96229 -0.0718923 0)
(3.75059 -0.0721356 0)
(3.55542 -0.0690827 0)
(3.38322 -0.0802677 0)
(3.21833 -0.0828624 0)
(8.51677 -0.436069 0)
(6.11027 -0.380898 0)
(4.29833 -0.13806 0)
(3.12384 -0.0213947 0)
(2.48106 0.0191274 0)
(2.12044 0.0224664 0)
(1.8962 0.0137069 0)
(1.73488 0.00460891 0)
(1.59884 -0.00157411 0)
(1.4781 -0.0047947 0)
(1.366 -0.00640776 0)
(1.26385 -0.00672088 0)
(1.16818 -0.00670833 0)
(1.08146 -0.00638986 0)
(0.999435 -0.00665862 0)
(0.919205 -0.0070348 0)
(0.851712 -0.0186137 0)
(0.731181 -0.00614107 0)
(-0.0520422 0.137984 0)
(-0.15706 0.0714648 0)
(-0.206968 0.0163581 0)
(-0.195004 -0.0444975 0)
(-0.117598 -0.0992318 0)
(0.0127427 -0.145261 0)
(0.186938 -0.17579 1.11354e-17)
(0.388813 -0.193729 -1.10604e-17)
(0.607157 -0.198101 0)
(0.829643 -0.192817 -1.09172e-17)
(1.0469 -0.178461 0)
(1.24994 -0.157679 0)
(1.43221 -0.131027 0)
(1.58843 -0.101649 1.06426e-17)
(1.71596 -0.0703766 0)
(1.812 -0.0382798 0)
(1.87567 -0.00609933 -1.04455e-17)
(1.90771 0.0242024 0)
(1.90978 0.0506979 0)
(1.88394 0.072439 0)
(1.83389 0.0894096 1.01961e-17)
(1.76223 0.100958 0)
(1.67286 0.10883 1.00742e-17)
(1.56751 0.111725 0)
(1.4508 0.109814 0)
(1.32549 0.10814 9.89548e-18)
(1.19182 0.111418 0)
(1.04904 0.116519 -9.77916e-18)
(0.900351 0.121737 0)
(0.746335 0.126751 9.6643e-18)
(0.588546 0.130716 0)
(0.429269 0.133135 0)
(0.270768 0.134255 0)
(0.113517 0.133984 0)
(-0.0421565 0.131049 0)
(-0.194186 0.126351 -9.32961e-18)
(-0.340933 0.120257 0)
(-0.481994 0.113776 1.84405e-17)
(-0.615926 0.107294 0)
(-0.742312 0.100071 -1.82216e-17)
(-0.859689 0.0930379 0)
(-0.96822 0.0862739 0)
(-1.06836 0.0785377 1.78884e-17)
(-1.15962 0.0701955 0)
(-1.24266 0.062516 1.76652e-17)
(-1.31754 0.0553007 -1.75531e-17)
(-1.38377 0.048318 0)
(-1.44219 0.0422719 -1.73282e-17)
(-1.49387 0.0369383 -1.72152e-17)
(-1.53781 0.0332454 0)
(-1.57414 0.0316367 0)
(-1.60475 0.0315991 0)
(-1.63177 0.0316755 0)
(-1.65619 0.0316274 0)
(-1.67943 0.0324653 1.65281e-17)
(-1.70328 0.0339826 0)
(-1.72913 0.0361997 -1.62989e-17)
(-1.75571 0.0382415 0)
(-1.78183 0.038885 0)
(-1.80745 0.0395375 1.59524e-17)
(-1.83331 0.0413564 0)
(-1.86127 0.0426104 -1.57211e-17)
(-1.89121 0.0442861 0)
(-1.92297 0.045786 0)
(-1.95609 0.0466617 0)
(-1.98999 0.0478736 1.52555e-17)
(-2.02432 0.0496976 0)
(-2.05934 0.0519092 0)
(-2.09485 0.0543059 1.49058e-17)
(-2.13113 0.0557726 0)
(-2.16523 0.0560265 1.46711e-17)
(-2.19628 0.0564328 0)
(-2.22416 0.0566568 0)
(-2.24785 0.0565351 0)
(-2.26639 0.0559746 -1.4205e-17)
(-2.27905 0.0547763 0)
(-2.28648 0.054066 0)
(-2.2906 0.0539976 -1.38611e-17)
(-2.29181 0.0530265 -1.37477e-17)
(-2.28839 0.051359 0)
(-2.27853 0.0490762 -1.35225e-17)
(-2.26208 0.0461204 0)
(-2.23865 0.0429263 -2.6602e-17)
(-2.20822 0.0394527 0)
(-2.17133 0.0357368 -2.61665e-17)
(-2.12784 0.0326457 0)
(-2.07879 0.0302208 2.57377e-17)
(-2.02507 0.0282455 0)
(-1.96679 0.0268116 0)
(-1.90459 0.0258457 0)
(-1.84001 0.0252607 -2.49006e-17)
(-1.7728 0.0250087 0)
(-1.70459 0.0249695 2.44988e-17)
(-1.6354 0.025556 0)
(-1.56593 0.0265942 -2.41095e-17)
(-1.49811 0.029103 -2.39209e-17)
(-1.43112 0.0302447 -2.37366e-17)
(-1.36397 0.0312954 0)
(-1.29865 0.0314075 0)
(-1.23401 0.0326078 0)
(-1.16818 0.0333836 0)
(-1.10329 0.0330012 0)
(-1.03347 0.0319041 0)
(-0.964767 0.0332471 0)
(-0.893947 0.032892 0)
(-0.827 0.0352599 2.22128e-17)
(-0.759798 0.0357904 2.20605e-17)
(-0.697704 0.0401863 0)
(-0.637295 0.0414457 0)
(-0.58185 0.0411 0)
(-0.514526 0.0384651 2.14801e-17)
(-0.452424 0.0426006 0)
(-0.383544 0.0407941 0)
(-0.318736 0.0437398 0)
(-0.247985 0.0406987 0)
(-0.175181 0.0431597 -2.08059e-17)
(-0.100173 0.0446892 0)
(-0.0196001 0.0437024 0)
(0.0655517 0.0450925 2.0429e-17)
(0.154247 0.0451269 -2.03075e-17)
(0.245888 0.0444206 0)
(0.342085 0.0483184 -2.00748e-17)
(0.433428 0.0513485 0)
(0.525768 0.0546065 1.98484e-17)
(0.607811 0.0593627 0)
(0.678852 0.062388 0)
(0.753937 0.0626247 0)
(0.823383 0.0632598 0)
(0.903237 0.060339 0)
(0.977279 0.0608721 -3.83964e-17)
(1.05332 0.0624878 -3.81773e-17)
(1.1138 0.0672888 0)
(1.16465 0.066394 0)
(1.2097 0.0677155 0)
(1.24659 0.0636391 3.72527e-17)
(1.29484 0.0587569 0)
(1.34496 0.0569735 0)
(1.39046 0.0559136 0)
(1.43857 0.0541244 3.62324e-17)
(1.4761 0.0565926 -3.59643e-17)
(1.51951 0.0526342 0)
(1.55906 0.0526267 0)
(1.6007 0.0532413 -3.51495e-17)
(1.62701 0.0582685 -3.48766e-17)
(1.65712 0.055 0)
(1.68594 0.0587056 0)
(1.72512 0.0557512 3.40434e-17)
(1.7617 0.0660104 -3.3764e-17)
(1.76996 0.0714194 0)
(1.78356 0.0708061 0)
(1.80879 0.071146 -3.29273e-17)
(1.84197 0.0758923 0)
(1.85542 0.0834361 0)
(1.86679 0.0891875 -3.20833e-17)
(1.8659 0.0933064 0)
(1.88002 0.0981458 -3.15232e-17)
(1.88177 0.105117 0)
(1.88741 0.109172 0)
(1.87448 0.120719 0)
(1.86111 0.126569 3.04338e-17)
(1.84612 0.133085 0)
(1.81428 0.142914 0)
(1.74244 0.154549 0)
(1.66574 0.15458 0)
(1.60048 0.156886 0)
(1.51068 0.165765 0)
(1.38263 0.172536 2.88933e-17)
(1.26356 0.173873 2.87394e-17)
(1.0793 0.181822 0)
(0.87284 0.184443 0)
(0.629945 0.183474 0)
(0.413751 0.169745 -2.83221e-17)
(0.191886 0.162686 0)
(0.0398832 0.146522 5.63492e-17)
(-0.160305 0.14388 -5.62394e-17)
(-0.263187 0.123616 -5.60603e-17)
(-0.424554 0.126676 5.59564e-17)
(-0.459852 0.0965591 -5.57541e-17)
(-0.617788 0.129128 5.57339e-17)
(-0.565887 -0.00401506 0)
(0.0101406 0.248874 0)
(0.0145923 0.192014 0)
(0.0497355 0.00754402 -2.27962e-17)
(0.121127 -0.198699 0)
(0.236114 -0.384724 2.23649e-17)
(0.388486 -0.536095 2.22182e-17)
(0.569697 -0.644924 1.10437e-17)
(0.769626 -0.710817 1.09813e-17)
(0.976988 -0.7374 0)
(1.18122 -0.731105 1.08542e-17)
(1.37368 -0.695247 0)
(1.54707 -0.636916 0)
(1.69739 -0.562247 -2.13201e-17)
(1.81991 -0.477739 -1.05949e-17)
(1.91458 -0.385715 2.10557e-17)
(1.9796 -0.291062 2.09222e-17)
(2.01632 -0.198644 1.03955e-17)
(2.02482 -0.110515 0)
(2.00755 -0.0274361 0)
(1.9645 0.0473448 0)
(1.89953 0.112851 1.01365e-17)
(1.81271 0.171968 0)
(1.70873 0.224837 -3.00371e-17)
(1.58642 0.267611 0)
(1.44809 0.302523 0)
(1.29426 0.333044 -9.83179e-18)
(1.12843 0.356957 0)
(0.953331 0.374179 9.71545e-18)
(0.772805 0.38517 1.93125e-17)
(0.587739 0.392373 -9.59747e-18)
(0.400916 0.394409 0)
(0.213602 0.390553 0)
(0.0254896 0.38321 0)
(-0.162941 0.376169 1.8731e-17)
(-0.349906 0.367486 1.86165e-17)
(-0.534112 0.355128 9.25124e-18)
(-0.712822 0.340292 0)
(-0.886553 0.32317 -1.82761e-17)
(-1.05137 0.302626 0)
(-1.20955 0.280758 1.80507e-17)
(-1.35947 0.258325 0)
(-1.50278 0.235557 0)
(-1.63793 0.215196 -1.77166e-17)
(-1.76586 0.19614 0)
(-1.88903 0.178237 -5.24865e-17)
(-2.0065 0.159515 1.73857e-17)
(-2.11738 0.140662 0)
(-2.22129 0.123846 1.71655e-17)
(-2.31908 0.106296 1.70553e-17)
(-2.4095 0.0868064 0)
(-2.49073 0.0678814 0)
(-2.56486 0.0533189 0)
(-2.63377 0.043817 0)
(-2.69939 0.038913 0)
(-2.76119 0.0374801 -1.63737e-17)
(-2.82112 0.0369733 -3.25152e-17)
(-2.87951 0.0370611 1.61414e-17)
(-2.9335 0.0345081 0)
(-2.98518 0.0305909 -3.1813e-17)
(-3.03469 0.029271 1.57875e-17)
(-3.08137 0.030241 0)
(-3.12901 0.0311525 1.55499e-17)
(-3.17445 0.0338265 0)
(-3.21787 0.0352278 0)
(-3.25965 0.0347635 3.03752e-17)
(-3.30045 0.0341076 -1.50673e-17)
(-3.33673 0.032019 2.98916e-17)
(-3.37047 0.0292341 -2.96503e-17)
(-3.39822 0.025526 -1.47045e-17)
(-3.4228 0.020706 0)
(-3.44101 0.0131646 -1.44627e-17)
(-3.4525 0.00301848 0)
(-3.4583 -0.00763999 0)
(-3.4557 -0.0200921 0)
(-3.4439 -0.0342763 -1.39828e-17)
(-3.42387 -0.0482745 0)
(-3.39732 -0.0584329 -2.74947e-17)
(-3.36495 -0.0656041 4.08937e-17)
(-3.3272 -0.0741513 1.35161e-17)
(-3.28317 -0.0852425 0)
(-3.23121 -0.0979923 1.32876e-17)
(-3.17395 -0.110718 0)
(-3.11103 -0.122823 2.61237e-17)
(-3.04293 -0.133893 0)
(-2.9698 -0.144426 2.56807e-17)
(-2.89155 -0.153823 -5.09214e-17)
(-2.80936 -0.162726 -2.52467e-17)
(-2.72479 -0.170661 0)
(-2.63524 -0.178164 0)
(-2.54351 -0.183755 0)
(-2.44963 -0.187926 2.44063e-17)
(-2.35244 -0.191938 0)
(-2.25407 -0.19462 -2.40001e-17)
(-2.15575 -0.194981 0)
(-2.05687 -0.196563 7.08193e-17)
(-1.95803 -0.195911 2.34164e-17)
(-1.85862 -0.196918 2.32304e-17)
(-1.76127 -0.194148 0)
(-1.66635 -0.193465 0)
(-1.57084 -0.19432 0)
(-1.47291 -0.194958 0)
(-1.37594 -0.197363 0)
(-1.27339 -0.201548 4.4321e-17)
(-1.17723 -0.199609 4.3985e-17)
(-1.07775 -0.199682 0)
(-0.990595 -0.193946 -2.16749e-17)
(-0.894601 -0.194758 -2.15228e-17)
(-0.807888 -0.187949 0)
(-0.713589 -0.186868 -4.24428e-17)
(-0.635556 -0.186165 0)
(-0.539475 -0.196486 2.09373e-17)
(-0.453886 -0.190743 0)
(-0.348442 -0.199171 0)
(-0.254073 -0.195681 -4.10571e-17)
(-0.141082 -0.204494 0)
(-0.0371006 -0.204663 2.0272e-17)
(0.0881534 -0.212551 0)
(0.214483 -0.220181 0)
(0.350488 -0.224546 1.98869e-17)
(0.491159 -0.228957 1.97707e-17)
(0.636475 -0.234414 0)
(0.78576 -0.235017 -1.95334e-17)
(0.945136 -0.236209 0)
(1.104 -0.228089 1.92968e-17)
(1.26847 -0.218484 3.83635e-17)
(1.41618 -0.21227 0)
(1.57316 -0.213692 0)
(1.71845 -0.214004 0)
(1.87838 -0.215695 0)
(2.02563 -0.210782 3.72311e-17)
(2.1804 -0.207519 1.11008e-16)
(2.31712 -0.188606 0)
(2.44141 -0.183411 0)
(2.56099 -0.172486 0)
(2.66598 -0.174338 -3.60802e-17)
(2.76843 -0.17913 0)
(2.86966 -0.178778 0)
(2.96473 -0.176799 7.0616e-17)
(3.05763 -0.17613 3.50339e-17)
(3.13241 -0.170879 3.47653e-17)
(3.21975 -0.179925 0)
(3.2845 -0.174118 0)
(3.35246 -0.175181 3.39209e-17)
(3.3993 -0.164441 -3.36149e-17)
(3.44518 -0.178513 0)
(3.47542 -0.17526 0)
(3.50973 -0.19115 -3.27218e-17)
(3.53833 -0.173303 9.71891e-17)
(3.55296 -0.168844 0)
(3.56368 -0.179703 0)
(3.57496 -0.191274 3.14604e-17)
(3.59558 -0.189176 0)
(3.59115 -0.182692 6.16272e-17)
(3.58916 -0.180802 -3.04725e-17)
(3.56163 -0.185182 0)
(3.55753 -0.194157 2.98464e-17)
(3.53295 -0.190566 5.9058e-17)
(3.52131 -0.192154 0)
(3.47437 -0.185331 0)
(3.45018 -0.194265 -2.85755e-17)
(3.40978 -0.186336 0)
(3.35235 -0.1694 5.58905e-17)
(3.25526 -0.150036 0)
(3.16317 -0.155058 0)
(3.04402 -0.146911 0)
(2.91574 -0.121796 0)
(2.72138 -0.102565 -2.66546e-17)
(2.56237 -0.0756241 -2.64654e-17)
(2.27786 -0.0263734 0)
(2.0055 -0.00173077 0)
(1.6763 0.0229339 0)
(1.38077 0.0190942 2.59605e-17)
(1.04747 0.0233664 0)
(0.840025 0.0141246 -5.16731e-17)
(0.520128 0.0327928 5.16459e-17)
(0.405697 0.0010941 5.14981e-17)
(0.124372 0.0320856 5.14888e-17)
(0.123822 -0.0156176 5.13365e-17)
(-0.173502 0.0792598 5.14995e-17)
(0.0124402 -0.116909 0)
(0.0290468 0.0711812 0)
(0.12113 -0.0383143 0)
(0.228173 -0.241699 2.29132e-17)
(0.340248 -0.468689 2.26646e-17)
(0.474662 -0.69332 -2.25131e-17)
(0.618738 -0.87522 -2.24004e-17)
(0.77294 -1.00387 -1.48153e-21)
(0.924263 -1.07418 0)
(1.06946 -1.08501 0)
(1.19636 -1.0459 0)
(1.30527 -0.966068 0)
(1.39139 -0.856753 0)
(1.45711 -0.726215 6.4713e-17)
(1.4979 -0.585976 0)
(1.5166 -0.441082 -2.13052e-17)
(1.5114 -0.294522 -2.11689e-17)
(1.48517 -0.152987 0)
(1.43649 -0.0193386 0)
(1.37 0.104675 0)
(1.28546 0.217264 0)
(1.18521 0.316663 -2.05027e-17)
(1.07009 0.399711 0)
(0.945119 0.472054 2.02486e-17)
(0.807573 0.537132 0)
(0.660328 0.591962 0)
(0.504742 0.636844 0)
(0.346197 0.672763 3.95251e-17)
(0.183693 0.699929 0)
(0.019725 0.719291 -1.95223e-17)
(-0.145252 0.729595 3.87999e-17)
(-0.309493 0.73264 0)
(-0.475997 0.73423 0)
(-0.64269 0.731072 0)
(-0.808194 0.721416 -1.89165e-17)
(-0.97007 0.706033 -1.87957e-17)
(-1.12872 0.684442 0)
(-1.28256 0.657065 0)
(-1.4308 0.625507 3.6859e-17)
(-1.57205 0.591442 3.66193e-17)
(-1.71152 0.557065 -3.63811e-17)
(-1.84593 0.524302 0)
(-1.97851 0.490754 0)
(-2.10543 0.458559 0)
(-2.22863 0.429178 0)
(-2.34759 0.401506 3.52006e-17)
(-2.46054 0.372288 3.49669e-17)
(-2.56836 0.342706 -3.47349e-17)
(-2.67062 0.314237 0)
(-2.76682 0.286394 0)
(-2.85773 0.25744 0)
(-2.94333 0.23065 0)
(-3.029 0.212877 3.35756e-17)
(-3.10878 0.197014 0)
(-3.18355 0.183875 0)
(-3.25182 0.17614 3.28781e-17)
(-3.31539 0.170999 3.26465e-17)
(-3.37355 0.164117 0)
(-3.42404 0.154737 -6.43598e-17)
(-3.47257 0.147837 3.19485e-17)
(-3.5171 0.141366 -3.17141e-17)
(-3.55587 0.13757 0)
(-3.59169 0.134853 0)
(-3.62149 0.130666 0)
(-3.64637 0.126433 0)
(-3.6687 0.121203 -3.05524e-17)
(-3.68674 0.113801 -6.06458e-17)
(-3.69854 0.105847 -3.00973e-17)
(-3.70661 0.0973877 2.98724e-17)
(-3.70751 0.0857901 0)
(-3.70332 0.0725646 -5.88393e-17)
(-3.69114 0.0565166 -5.83908e-17)
(-3.67368 0.0403824 -5.79458e-17)
(-3.65196 0.0226178 5.75039e-17)
(-3.62142 0.000355501 0)
(-3.58393 -0.022319 8.49403e-17)
(-3.54058 -0.0418072 0)
(-3.49247 -0.0572831 -2.78773e-17)
(-3.43576 -0.0710858 -2.76644e-17)
(-3.37108 -0.0866913 0)
(-3.30023 -0.103495 0)
(-3.22587 -0.120231 -5.40406e-17)
(-3.14927 -0.135126 0)
(-3.06866 -0.149403 -5.31937e-17)
(-2.98548 -0.16311 0)
(-2.89772 -0.177546 5.2355e-17)
(-2.80639 -0.188974 1.03882e-16)
(-2.71133 -0.198761 0)
(-2.61538 -0.207941 0)
(-2.5164 -0.21538 0)
(-2.41871 -0.221451 5.02902e-17)
(-2.31934 -0.227269 0)
(-2.21668 -0.231914 4.94681e-17)
(-2.11125 -0.235165 0)
(-2.00536 -0.234393 0)
(-1.89714 -0.234563 -9.65036e-17)
(-1.79164 -0.232212 0)
(-1.68424 -0.231734 -4.74611e-17)
(-1.58095 -0.225775 0)
(-1.47347 -0.226419 -4.66935e-17)
(-1.36673 -0.225556 0)
(-1.25787 -0.224617 0)
(-1.15035 -0.228385 0)
(-1.04004 -0.230554 -1.3569e-16)
(-0.940052 -0.222019 -4.48688e-17)
(-0.831186 -0.218664 0)
(-0.738265 -0.208084 0)
(-0.636736 -0.209375 0)
(-0.551427 -0.197055 0)
(-0.447469 -0.193295 4.3234e-17)
(-0.361793 -0.188168 -8.58328e-17)
(-0.255095 -0.204982 -4.26313e-17)
(-0.168309 -0.197299 8.46544e-17)
(-0.0490321 -0.213445 8.40917e-17)
(0.0524239 -0.209464 4.17598e-17)
(0.182116 -0.224653 0)
(0.294491 -0.225468 8.23942e-17)
(0.432987 -0.241686 0)
(0.564709 -0.25078 -8.12837e-17)
(0.712793 -0.257495 -4.0384e-17)
(0.858836 -0.261965 0)
(1.0135 -0.270221 7.9762e-17)
(1.16249 -0.273121 3.9628e-17)
(1.32439 -0.281056 0)
(1.48284 -0.278872 3.909e-17)
(1.65646 -0.26858 -1.16509e-16)
(1.81606 -0.256701 0)
(1.98054 -0.256148 0)
(2.13264 -0.256119 0)
(2.29318 -0.259698 0)
(2.45008 -0.255262 -7.51554e-17)
(2.60648 -0.252219 -7.46566e-17)
(2.75826 -0.22136 0)
(2.89661 -0.214997 0)
(3.02823 -0.201467 0)
(3.15004 -0.199643 0)
(3.25702 -0.204846 0)
(3.37681 -0.208163 0)
(3.48982 -0.206761 -7.09519e-17)
(3.6024 -0.204939 -1.65147e-20)
(3.69749 -0.197026 0)
(3.80761 -0.209712 0)
(3.89707 -0.197561 -6.86076e-17)
(3.98975 -0.197524 0)
(4.06906 -0.176996 6.74268e-17)
(4.13852 -0.187884 6.68089e-17)
(4.18055 -0.170725 0)
(4.23501 -0.188893 0)
(4.2736 -0.164964 -6.49006e-17)
(4.32405 -0.155986 -1.28512e-16)
(4.35166 -0.16017 0)
(4.38469 -0.172183 0)
(4.42626 -0.163135 0)
(4.43957 -0.148795 -6.16924e-17)
(4.4681 -0.135574 6.10047e-17)
(4.46729 -0.135138 0)
(4.48674 -0.141298 1.19376e-16)
(4.47018 -0.129311 5.90339e-17)
(4.48704 -0.127872 -1.16775e-16)
(4.46432 -0.109259 0)
(4.46271 -0.116542 0)
(4.43225 -0.0951106 -1.12756e-16)
(4.39109 -0.0675303 -5.57216e-17)
(4.30633 -0.0381286 0)
(4.24268 -0.0361826 0)
(4.11028 -0.0183968 0)
(4.00062 0.0244253 0)
(3.78884 0.05235 -1.05597e-16)
(3.62023 0.096116 0)
(3.32195 0.167006 0)
(3.06368 0.191379 0)
(2.71451 0.219715 0)
(2.39998 0.20317 0)
(2.01086 0.187005 0)
(1.77384 0.153602 -1.00645e-16)
(1.36923 0.150618 0)
(1.24025 0.0830866 0)
(0.855504 0.105738 -1.99442e-16)
(0.849713 0.0234858 9.92609e-17)
(0.46354 0.112223 -9.94135e-17)
(0.658854 -0.127772 9.87934e-17)
(0.0206281 -0.0941503 0)
(0.125095 -0.269499 -4.69563e-17)
(0.24787 -0.490177 0)
(0.37578 -0.755675 -2.27969e-17)
(0.50235 -0.999245 0)
(0.618327 -1.18797 0)
(0.722821 -1.30556 2.24458e-17)
(0.803371 -1.34889 0)
(0.866224 -1.31913 0)
(0.905477 -1.23349 0)
(0.9276 -1.11087 0)
(0.930434 -0.961662 0)
(0.918782 -0.794487 -8.6617e-17)
(0.889981 -0.617201 -4.30257e-17)
(0.847521 -0.434243 4.27462e-17)
(0.791133 -0.252951 0)
(0.722867 -0.0800424 0)
(0.641393 0.0815685 0)
(0.550179 0.230447 0)
(0.448735 0.363896 0)
(0.339836 0.48151 -4.11509e-17)
(0.221673 0.583393 -4.08982e-17)
(0.0955815 0.67412 4.0649e-17)
(-0.0363064 0.750149 -4.04013e-17)
(-0.172319 0.812935 0)
(-0.311086 0.861073 0)
(-0.451394 0.897153 -3.9658e-17)
(-0.592065 0.92188 0)
(-0.73367 0.93601 0)
(-0.875842 0.944593 -3.89247e-17)
(-1.01861 0.950004 -3.86814e-17)
(-1.15926 0.94762 -3.84368e-17)
(-1.29688 0.938427 0)
(-1.43126 0.923029 0)
(-1.56107 0.901429 3.76932e-17)
(-1.68588 0.87165 0)
(-1.80671 0.835982 0)
(-1.92391 0.796404 -3.69485e-17)
(-2.03805 0.758329 3.6697e-17)
(-2.15059 0.720188 -3.64483e-17)
(-2.25665 0.68144 0)
(-2.36108 0.642082 0)
(-2.46145 0.605757 -7.14194e-17)
(-2.55904 0.571538 0)
(-2.65126 0.533497 -7.04535e-17)
(-2.74005 0.495508 -1.04963e-16)
(-2.82521 0.459764 1.04242e-16)
(-2.90511 0.423551 -6.90146e-17)
(-2.98182 0.386371 0)
(-3.05596 0.350793 0)
(-3.12965 0.322658 -6.76023e-17)
(-3.2006 0.2982 -3.35707e-17)
(-3.26518 0.272645 0)
(-3.32556 0.25156 0)
(-3.38131 0.236176 -3.28787e-17)
(-3.43159 0.219279 -6.52975e-17)
(-3.47563 0.200283 0)
(-3.51368 0.182319 6.43795e-17)
(-3.54786 0.167887 -6.39203e-17)
(-3.57663 0.154243 6.34646e-17)
(-3.59963 0.140323 0)
(-3.6164 0.127047 0)
(-3.62875 0.115864 0)
(-3.63576 0.104637 0)
(-3.63912 0.0944494 0)
(-3.63706 0.0785677 6.07745e-17)
(-3.63066 0.0613659 0)
(-3.61762 0.0426769 0)
(-3.59879 0.0216454 0)
(-3.5759 -0.000324373 1.18047e-16)
(-3.54749 -0.0243263 5.85913e-17)
(-3.51432 -0.0483585 5.81577e-17)
(-3.47612 -0.0753731 -1.15457e-16)
(-3.43153 -0.106789 5.73034e-17)
(-3.38353 -0.136864 -5.6884e-17)
(-3.32928 -0.164439 0)
(-3.27015 -0.19051 5.60371e-17)
(-3.20109 -0.217278 0)
(-3.12784 -0.242517 0)
(-3.04897 -0.264478 0)
(-2.96861 -0.285321 1.08718e-16)
(-2.8861 -0.304606 -5.39459e-17)
(-2.80029 -0.323752 -5.35326e-17)
(-2.71324 -0.342711 -1.0627e-16)
(-2.62222 -0.362738 -1.58216e-16)
(-2.53019 -0.378706 -5.23433e-17)
(-2.43337 -0.391763 0)
(-2.33684 -0.403261 -1.0307e-16)
(-2.23877 -0.411269 0)
(-2.14075 -0.417424 -1.52203e-16)
(-2.04204 -0.427302 0)
(-1.94447 -0.433662 -1.49829e-16)
(-1.84084 -0.439933 0)
(-1.73674 -0.440596 0)
(-1.62795 -0.442175 -4.87461e-17)
(-1.52061 -0.439042 0)
(-1.40997 -0.438723 4.79719e-17)
(-1.30404 -0.434206 9.51556e-17)
(-1.19029 -0.435856 4.72032e-17)
(-1.08046 -0.437582 9.36487e-17)
(-0.962145 -0.438038 -9.28917e-17)