/*--------------------------------*- C++ -*----------------------------------*\
| =========                 |                                                 |
| \\      /  F ield         | OpenFOAM: The Open Source CFD Toolbox           |
|  \\    /   O peration     | Version:  dev                                   |
|   \\  /    A nd           | Web:      http://www.openfoam.org               |
|    \\/     M anipulation  |                                                 |
\*---------------------------------------------------------------------------*/
FoamFile
{
    version     2.0;
    format      ascii;
    class       volSymmTensorField;
    object      UPrime2Mean;
    location    "9.144";
}
// * * * * * * * * * * * * * * * * * * * * * * * * * * * * * * * * * * * * * //

dimensions      [0 2 -2 0 0 0 0];

internalField   nonuniform List<symmTensor> 
12225
(
(0.329483 0.0192659 0 0.0692591 0 0)
(2.98844 0.0796787 0 0.0781818 0 0)
(7.88637 0.112272 0 0.0768858 0 0)
(14.5454 0.148175 0 0.0755618 0 0)
(22.7201 0.132911 0 0.0765086 0 0)
(32.0911 0.201001 0 0.0746656 0 0)
(42.4112 0.09585 0 0.0766066 0 0)
(53.5628 0.200246 0 0.0738461 0 0)
(65.6652 -0.0285404 0 0.0776071 0 0)
(78.271 0.125443 0 0.0736171 0 0)
(93.0274 -0.306318 0 0.0813077 0 0)
(107.378 -0.11607 0 0.0769915 0 0)
(128.002 -0.672237 0 0.0863084 0 0)
(145.71 -1.27744 0 0.134733 0 0)
(186.061 -1.41144 0 0.116474 0 0)
(198.637 -0.390755 0 2.39522 0 0)
(272.451 -33.5556 0 5.81166 0 0)
(576.095 -52.9763 0 18.8401 0 0)
(0.377683 0.0567893 0 0.688902 0 0)
(3.15852 0.252195 0 0.73219 0 0)
(8.41722 0.362039 0 0.714055 0 0)
(15.4852 0.485286 0 0.706551 0 0)
(24.2155 0.452801 0 0.70342 0 0)
(34.4825 0.632667 0 0.683252 0 0)
(45.5578 0.295813 0 0.69205 0 0)
(58.5232 0.608791 0 0.658728 0 0)
(71.5227 -0.135393 0 0.682581 0 0)
(87.2096 0.282214 0 0.645937 0 0)
(102.853 -1.06537 0 0.711237 0 0)
(121.51 -0.766787 0 0.655484 0 0)
(142.948 -2.54327 0 1.06911 0 0)
(166.422 -4.49205 0 1.04694 0 0)
(199.903 -0.925081 0 3.10462 0 0)
(274.556 -9.9758 0 6.61133 0 0)
(281.175 -20.8466 0 8.73955 0 0)
(800.338 -185.288 0 64.7378 0 0)
(0.505275 0.0583434 0 2.14037 0 0)
(3.06623 0.424559 0 2.20228 0 0)
(8.47205 0.570399 0 2.15121 0 0)
(14.8636 0.851749 0 2.14269 0 0)
(24.2931 0.864292 0 2.11961 0 0)
(33.1749 1.05289 0 2.0824 0 0)
(45.3022 0.755951 0 2.07818 0 0)
(56.2429 0.886024 0 2.00738 0 0)
(69.7337 0.17188 0 2.05156 0 0)
(83.5086 0.0162362 0 1.95917 0 0)
(98.2548 -1.12389 0 2.12241 0 0)
(115.748 -2.45017 0 2.09448 0 0)
(138.719 -3.59761 0 2.62251 0 0)
(154.985 -7.20183 0 2.8321 0 0)
(211.171 -13.0182 0 6.12624 0 0)
(223.551 -7.88375 0 6.38039 0 0)
(353.309 -62.3045 0 31.0959 0 0)
(534.945 -192.668 0 98.3214 0 0)
(1.03015 0.092312 0 4.67003 0 0)
(3.55189 0.619415 0 4.76656 0 0)
(9.07531 0.815666 0 4.64239 0 0)
(15.0773 1.14974 0 4.60163 0 0)
(24.6541 1.31262 0 4.55738 0 0)
(33.0079 1.34955 0 4.48304 0 0)
(45.0374 1.26095 0 4.44808 0 0)
(55.2084 0.972898 0 4.34954 0 0)
(68.6493 0.475126 0 4.38137 0 0)
(80.7728 -0.283787 0 4.25768 0 0)
(96.1037 -1.33228 0 4.50716 0 0)
(110.596 -3.34433 0 4.37234 0 0)
(131.568 -4.7964 0 5.30256 0 0)
(152.372 -10.9793 0 5.60985 0 0)
(187.993 -11.4325 0 9.28978 0 0)
(238.618 -28.8814 0 16.8381 0 0)
(291.727 -58.9771 0 32.6938 0 0)
(415.071 -178.391 0 107.858 0 0)
(1.86379 0.364987 0 8.52193 0 0)
(5.01102 0.720063 0 8.72342 0 0)
(9.44252 1.13985 0 8.47227 0 0)
(16.2524 1.29429 0 8.36915 0 0)
(24.6672 1.70048 0 8.27956 0 0)
(33.9703 1.5019 0 8.14448 0 0)
(44.8538 1.59718 0 8.04383 0 0)
(55.5626 0.992022 0 7.91179 0 0)
(68.4656 0.599131 0 7.85879 0 0)
(80.1798 -0.595619 0 7.76103 0 0)
(95.4411 -1.78151 0 7.96288 0 0)
(108.636 -4.2312 0 7.91037 0 0)
(128.19 -6.88522 0 9.02797 0 0)
(145.328 -12.2949 0 9.27043 0 0)
(174.087 -19.2123 0 14.5944 0 0)
(218.066 -25.9721 0 17.2205 0 0)
(233.829 -55.6196 0 46.2806 0 0)
(326.877 -171.831 0 138.714 0 0)
(2.56289 0.750723 0 14.0387 0 0)
(6.32864 0.80693 0 14.3906 0 0)
(9.30783 1.53986 0 13.9607 0 0)
(17.109 1.59404 0 13.7659 0 0)
(24.1598 2.1203 0 13.5912 0 0)
(34.2917 1.93581 0 13.3593 0 0)
(44.0098 1.99033 0 13.1541 0 0)
(55.2127 1.41393 0 12.9135 0 0)
(67.3803 0.892892 0 12.7769 0 0)
(78.969 -0.388669 0 12.5761 0 0)
(94.4992 -1.74142 0 12.7769 0 0)
(105.908 -4.31654 0 12.6856 0 0)
(128.215 -7.27229 0 13.989 0 0)
(138.038 -13.1639 0 14.6697 0 0)
(171.105 -21.8478 0 21.2565 0 0)
(191.634 -33.0594 0 24.6126 0 0)
(211.186 -55.9407 0 51.5962 0 0)
(265.897 -145.752 0 130.696 0 0)
(2.24694 0.72209 0 21.5305 0 0)
(5.5495 0.941284 0 22.1466 0 0)
(9.20852 1.76361 0 21.3723 0 0)
(16.354 2.07708 0 21.1846 0 0)
(23.9934 2.44934 0 20.7859 0 0)
(33.3916 2.54188 0 20.5527 0 0)
(43.6477 2.27294 0 20.0845 0 0)
(54.0938 1.92644 0 19.8546 0 0)
(66.5409 0.894452 0 19.4368 0 0)
(77.4246 -0.221354 0 19.284 0 0)
(92.5946 -2.37599 0 19.2244 0 0)
(103.581 -4.828 0 19.2672 0 0)
(123.746 -8.98815 0 20.4779 0 0)
(134.029 -14.2693 0 21.4568 0 0)
(161.678 -24.4165 0 28.5257 0 0)
(169.519 -32.4258 0 32.0606 0 0)
(203.527 -59.0402 0 56.8968 0 0)
(190.432 -108.866 0 114.217 0 0)
(1.42642 0.599031 0 29.7517 0 0)
(4.3264 1.13483 0 30.6373 0 0)
(8.59078 1.92384 0 29.49 0 0)
(15.2645 2.4722 0 29.3188 0 0)
(23.2262 2.77658 0 28.6734 0 0)
(32.2922 2.96219 0 28.4124 0 0)
(42.4543 2.59645 0 27.6608 0 0)
(52.8327 2.18879 0 27.3803 0 0)
(64.4806 1.0041 0 26.6565 0 0)
(75.6758 -0.367575 0 26.4916 0 0)
(88.7181 -2.75754 0 26.1084 0 0)
(100.51 -5.74253 0 26.3333 0 0)
(115.641 -10.3309 0 27.0903 0 0)
(128.178 -15.8113 0 28.6059 0 0)
(144.783 -26.5083 0 33.9242 0 0)
(152.147 -33.4783 0 37.4884 0 0)
(180.487 -54.9314 0 53.2139 0 0)
(139.698 -71.3578 0 83.7374 0 0)
(1.00849 0.521547 0 38.5219 0 0)
(3.78128 1.28787 0 39.7163 0 0)
(8.18662 2.03546 0 38.1789 0 0)
(14.7391 2.7791 0 38.0378 0 0)
(22.6708 3.00467 0 37.1278 0 0)
(31.6112 3.31413 0 36.8527 0 0)
(41.5372 2.80244 0 35.8017 0 0)
(51.8148 2.46999 0 35.4832 0 0)
(62.8787 1.03388 0 34.4745 0 0)
(73.9005 -0.286895 0 34.2747 0 0)
(85.7265 -3.05351 0 33.6441 0 0)
(97.0921 -5.91275 0 33.9039 0 0)
(109.428 -10.9606 0 34.4137 0 0)
(121.309 -16.0536 0 36.1337 0 0)
(131.326 -25.5816 0 40.0198 0 0)
(138.251 -33.2292 0 44.7497 0 0)
(150.112 -47.3518 0 52.4841 0 0)
(123.292 -58.7845 0 73.1517 0 0)
(0.612683 0.484569 0 49.7073 0 0)
(3.23825 1.44571 0 51.2955 0 0)
(7.74711 2.18592 0 49.1991 0 0)
(14.2085 3.03493 0 49.1116 0 0)
(22.0075 3.27175 0 47.8223 0 0)
(30.8709 3.57683 0 47.543 0 0)
(40.5014 3.06149 0 46.0816 0 0)
(50.6422 2.63212 0 45.7131 0 0)
(61.1725 1.15576 0 44.2936 0 0)
(71.8468 -0.300833 0 44.0502 0 0)
(82.7349 -3.15201 0 43.0061 0 0)
(93.2837 -6.05053 0 43.3255 0 0)
(103.931 -11.1085 0 43.3265 0 0)
(113.8 -15.8623 0 45.1836 0 0)
(121.415 -24.5267 0 47.6892 0 0)
(125.855 -30.5932 0 51.9599 0 0)
(129.193 -40.745 0 56.4839 0 0)
(116.084 -48.4194 0 69.0531 0 0)
(0.434448 0.516127 0 63.9003 0 0)
(2.98088 1.62697 0 65.9553 0 0)
(7.4743 2.38257 0 63.2636 0 0)
(13.8543 3.30881 0 63.1517 0 0)
(21.5047 3.56731 0 61.5178 0 0)
(30.2076 3.85596 0 61.1032 0 0)
(39.5714 3.35171 0 59.2953 0 0)
(49.4149 2.81248 0 58.7004 0 0)
(59.49 1.36162 0 56.9798 0 0)
(69.5982 -0.277321 0 56.462 0 0)
(79.6988 -2.99415 0 55.1597 0 0)
(89.2384 -6.09626 0 55.2157 0 0)
(98.5606 -10.5706 0 54.8703 0 0)
(106.441 -15.4357 0 56.4185 0 0)
(112.61 -22.1541 0 57.8638 0 0)
(115.144 -28.0718 0 61.5943 0 0)
(116.09 -35.2213 0 64.5614 0 0)
(109.634 -40.8229 0 71.4631 0 0)
(0.356555 0.540379 0 81.392 0 0)
(2.83312 1.74414 0 84.077 0 0)
(7.26586 2.55347 0 80.6094 0 0)
(13.5236 3.49921 0 80.5001 0 0)
(21.0005 3.80578 0 78.4136 0 0)
(29.4832 4.03243 0 77.8605 0 0)
(38.5445 3.55483 0 75.5713 0 0)
(48.0183 2.91193 0 74.7466 0 0)
(57.5757 1.4718 0 72.5545 0 0)
(67.0726 -0.234005 0 71.7676 0 0)
(76.2893 -2.88572 0 70.0122 0 0)
(84.8787 -5.87263 0 69.7533 0 0)
(92.7883 -9.97921 0 68.9183 0 0)
(99.2199 -14.3096 0 69.8725 0 0)
(103.936 -19.7589 0 70.5159 0 0)
(105.881 -24.6739 0 73.0211 0 0)
(106.036 -29.8414 0 74.964 0 0)
(101.788 -33.3274 0 78.6222 0 0)
(0.329429 0.568776 0 102.468 0 0)
(2.73758 1.80566 0 105.677 0 0)
(7.07256 2.68114 0 101.652 0 0)
(13.162 3.5805 0 101.182 0 0)
(20.4435 3.92944 0 98.918 0 0)
(28.6308 4.04941 0 97.8382 0 0)
(37.3674 3.6084 0 95.3236 0 0)
(46.371 2.8253 0 93.8741 0 0)
(55.4029 1.46417 0 91.4376 0 0)
(64.1869 -0.354087 0 89.9865 0 0)
(72.5688 -2.77351 0 87.9598 0 0)
(80.1614 -5.70605 0 86.9858 0 0)
(86.8853 -9.21792 0 85.7742 0 0)
(92.1481 -13.1086 0 85.7818 0 0)
(95.8514 -17.3285 0 85.7323 0 0)
(97.4365 -21.3968 0 86.8746 0 0)
(97.5391 -25.2428 0 87.9023 0 0)
(94.7339 -27.699 0 89.5081 0 0)
(0.313822 0.572939 0 126.461 0 0)
(2.64216 1.77266 0 130.39 0 0)
(6.85159 2.66523 0 125.68 0 0)
(12.7375 3.45985 0 124.87 0 0)
(19.7767 3.78675 0 122.339 0 0)
(27.63 3.79985 0 120.762 0 0)
(35.9744 3.32538 0 117.879 0 0)
(44.4869 2.4775 0 115.845 0 0)
(52.9266 1.1216 0 112.985 0 0)
(61.0231 -0.642782 0 110.894 0 0)
(68.5746 -2.91202 0 108.403 0 0)
(75.3004 -5.54521 0 106.676 0 0)
(81.0404 -8.60185 0 104.908 0 0)
(85.4912 -11.8267 0 103.904 0 0)
(88.5379 -15.191 0 103.072 0 0)
(89.9761 -18.3598 0 102.898 0 0)
(90.2785 -21.28 0 102.911 0 0)
(88.3149 -22.9277 0 103.064 0 0)
(0.299416 0.52442 0 151.875 0 0)
(2.53414 1.5802 0 156.376 0 0)
(6.58725 2.3749 0 151.247 0 0)
(12.2394 2.98418 0 149.808 0 0)
(18.9831 3.20684 0 147.249 0 0)
(26.4648 3.06405 0 144.936 0 0)
(34.3682 2.52281 0 141.846 0 0)
(42.3603 1.58991 0 139.04 0 0)
(50.1999 0.259704 0 135.841 0 0)
(57.6218 -1.44607 0 132.963 0 0)
(64.4372 -3.50882 0 130.011 0 0)
(70.4182 -5.84747 0 127.438 0 0)
(75.4341 -8.42546 0 125.035 0 0)
(79.3224 -11.0786 0 123.033 0 0)
(82.0217 -13.7177 0 121.319 0 0)
(83.4401 -16.1834 0 119.98 0 0)
(84.0228 -18.3827 0 118.89 0 0)
(82.8154 -19.4296 0 117.779 0 0)
(0.28412 0.39365 0 175.096 0 0)
(2.41566 1.14383 0 180.296 0 0)
(6.28686 1.66777 0 174.687 0 0)
(11.6773 1.99913 0 172.805 0 0)
(18.0871 1.99547 0 170.122 0 0)
(25.1702 1.65786 0 167.271 0 0)
(32.6054 0.976471 0 163.884 0 0)
(40.077 -0.0332421 0 160.487 0 0)
(47.3377 -1.36838 0 156.869 0 0)
(54.1542 -2.98107 0 153.355 0 0)
(60.3483 -4.85019 0 149.867 0 0)
(65.7557 -6.88181 0 146.575 0 0)
(70.2715 -9.03687 0 143.478 0 0)
(73.8225 -11.1856 0 140.622 0 0)
(76.3793 -13.2502 0 138.031 0 0)
(77.9061 -15.1504 0 135.705 0 0)
(78.7884 -16.7985 0 133.593 0 0)
(78.2398 -17.3968 0 131.394 0 0)
(0.268892 0.155856 0 190.206 0 0)
(2.29474 0.389421 0 195.879 0 0)
(5.97018 0.486352 0 189.984 0 0)
(11.0814 0.406899 0 187.841 0 0)
(17.1409 0.0693924 0 185.094 0 0)
(23.8159 -0.539824 0 181.923 0 0)
(30.7892 -1.40982 0 178.344 0 0)
(37.7649 -2.53287 0 174.59 0 0)
(44.507 -3.88334 0 170.678 0 0)
(50.8091 -5.42409 0 166.759 0 0)
(56.5183 -7.11166 0 162.866 0 0)
(61.5128 -8.88092 0 159.086 0 0)
(65.7171 -10.6774 0 155.449 0 0)
(69.1018 -12.4231 0 151.987 0 0)
(71.6599 -14.042 0 148.721 0 0)
(73.3801 -15.5126 0 145.676 0 0)
(74.5755 -16.7491 0 142.784 0 0)
(74.6202 -17.0706 0 139.789 0 0)
(0.259244 -0.142989 0 190.179 0 0)
(2.19719 -0.535877 0 195.809 0 0)
(5.69342 -0.94036 0 189.978 0 0)
(10.5483 -1.49656 0 187.826 0 0)
(16.292 -2.21797 0 185.122 0 0)
(22.6067 -3.1213 0 181.957 0 0)
(29.1842 -4.19571 0 178.403 0 0)
(35.7516 -5.43544 0 174.653 0 0)
(42.0863 -6.81004 0 170.727 0 0)
(48.0104 -8.29086 0 166.775 0 0)
(53.3877 -9.83113 0 162.8 0 0)
(58.13 -11.3884 0 158.914 0 0)
(62.176 -12.9096 0 155.101 0 0)
(65.5196 -14.3515 0 151.437 0 0)
(68.1597 -15.6489 0 147.895 0 0)
(70.1016 -16.8087 0 144.556 0 0)
(71.5788 -17.7557 0 141.308 0 0)
(72.1132 -17.9607 0 137.978 0 0)
(0.256077 -0.396809 0 174.362 0 0)
(2.13799 -1.30777 0 179.313 0 0)
(5.50258 -2.13019 0 173.984 0 0)
(10.1675 -3.07958 0 171.991 0 0)
(15.6776 -4.10891 0 169.509 0 0)
(21.728 -5.23893 0 166.62 0 0)
(28.0214 -6.46255 0 163.368 0 0)
(34.3031 -7.77666 0 159.944 0 0)
(40.3629 -9.15281 0 156.338 0 0)
(46.0442 -10.5711 0 152.709 0 0)
(51.2217 -11.9895 0 149.025 0 0)
(55.8269 -13.3816 0 145.419 0 0)
(59.8067 -14.7024 0 141.835 0 0)
(63.1649 -15.9288 0 138.383 0 0)
(65.8997 -17.0093 0 134.999 0 0)
(68.0285 -17.9589 0 131.798 0 0)
(69.7204 -18.7167 0 128.643 0 0)
(70.6181 -18.9044 0 125.443 0 0)
(0.257521 -0.545856 0 148.929 0 0)
(2.11016 -1.74867 0 152.886 0 0)
(5.38807 -2.82496 0 148.35 0 0)
(9.92528 -4.00913 0 146.633 0 0)
(15.2786 -5.21355 0 144.511 0 0)
(21.1521 -6.46323 0 142.058 0 0)
(27.2576 -7.75015 0 139.294 0 0)
(33.3532 -9.07615 0 136.389 0 0)
(39.239 -10.4139 0 133.316 0 0)
(44.7711 -11.7533 0 130.225 0 0)
(49.8342 -13.0563 0 127.068 0 0)
(54.3689 -14.3096 0 123.974 0 0)
(58.3292 -15.4738 0 120.879 0 0)
(61.7204 -16.5401 0 117.89 0 0)
(64.5417 -17.4648 0 114.941 0 0)
(66.8152 -18.2669 0 112.144 0 0)
(68.6662 -18.8959 0 109.371 0 0)
(69.8271 -19.1054 0 106.58 0 0)
(0.260383 -0.601587 0 120.029 0 0)
(2.10121 -1.8907 0 122.998 0 0)
(5.32198 -3.06931 0 119.35 0 0)
(9.77376 -4.3429 0 117.956 0 0)
(15.0222 -5.60175 0 116.251 0 0)
(20.7779 -6.87197 0 114.286 0 0)
(26.7596 -8.1433 0 112.073 0 0)
(32.7345 -9.42105 0 109.746 0 0)
(38.5098 -10.6799 0 107.282 0 0)
(43.9502 -11.9167 0 104.798 0 0)
(48.9481 -13.0976 0 102.256 0 0)
(53.449 -14.2182 0 99.7577 0 0)
(57.4114 -15.244 0 97.253 0 0)
(60.8401 -16.1749 0 94.8276 0 0)
(63.7355 -16.974 0 92.4293 0 0)
(66.1224 -17.6608 0 90.1459 0 0)
(68.0956 -18.1944 0 87.881 0 0)
(69.4553 -18.43 0 85.6059 0 0)
(0.263333 -0.590784 0 91.8814 0 0)
(2.10087 -1.83081 0 93.9963 0 0)
(5.28418 -2.998 0 91.2055 0 0)
(9.67906 -4.24888 0 90.1319 0 0)
(14.8569 -5.4696 0 88.8326 0 0)
(20.534 -6.6826 0 87.3377 0 0)
(26.4339 -7.87741 0 85.6571 0 0)
(32.3299 -9.05901 0 83.8851 0 0)
(38.035 -10.2067 0 82.0093 0 0)
(43.4192 -11.3192 0 80.1122 0 0)
(48.3805 -12.3696 0 78.1714 0 0)
(52.8669 -13.3561 0 76.2568 0 0)
(56.8406 -14.2515 0 74.3387 0 0)
(60.3047 -15.058 0 72.4753 0 0)
(63.261 -15.7478 0 70.634 0 0)
(65.7366 -16.3357 0 68.874 0 0)
(67.8042 -16.7924 0 67.1312 0 0)
(69.3168 -17.0419 0 65.3782 0 0)
(0.266403 -0.536946 0 66.9299 0 0)
(2.1047 -1.65153 0 68.37 0 0)
(5.26285 -2.73175 0 66.3384 0 0)
(9.61997 -3.88498 0 65.5555 0 0)
(14.7505 -5.0049 0 64.6172 0 0)
(20.3752 -6.1074 0 63.5354 0 0)
(26.2216 -7.18443 0 62.3211 0 0)
(32.0664 -8.23788 0 61.0354 0 0)
(37.7276 -9.25292 0 59.6764 0 0)
(43.0781 -10.2271 0 58.2966 0 0)
(48.0205 -11.1412 0 56.8876 0 0)
(52.5037 -11.9927 0 55.4929 0 0)
(56.4924 -12.7623 0 54.0989 0 0)
(59.9886 -13.4516 0 52.7401 0 0)
(62.995 -14.041 0 51.4 0 0)
(65.5396 -14.5399 0 50.1142 0 0)
(67.6797 -14.9299 0 48.8445 0 0)
(69.3102 -15.1777 0 47.5634 0 0)
(0.268254 -0.463039 0 46.287 0 0)
(2.10911 -1.41647 0 47.2256 0 0)
(5.25099 -2.36465 0 45.825 0 0)
(9.58313 -3.37629 0 45.2869 0 0)
(14.682 -4.35767 0 44.6456 0 0)
(20.2721 -5.31821 0 43.9018 0 0)
(26.0838 -6.25288 0 43.0677 0 0)
(31.8963 -7.15997 0 42.1804 0 0)
(37.5307 -8.03053 0 41.2449 0 0)
(42.8619 -8.85988 0 40.2917 0 0)
(47.7951 -9.63577 0 39.3217 0 0)
(52.2803 -10.3542 0 38.359 0 0)
(56.2835 -11.0028 0 37.3995 0 0)
(59.8057 -11.581 0 36.4614 0 0)
(62.8501 -12.0766 0 35.5382 0 0)
(65.4455 -12.4934 0 34.6491 0 0)
(67.6377 -12.8214 0 33.7742 0 0)
(69.3541 -13.0518 0 32.8881 0 0)
(0.269424 -0.383214 0 30.1563 0 0)
(2.11266 -1.16513 0 30.7405 0 0)
(5.24425 -1.95905 0 29.8304 0 0)
(9.55965 -2.8083 0 29.4832 0 0)
(14.6372 -3.63221 0 29.071 0 0)
(20.204 -4.43699 0 28.5904 0 0)
(25.9927 -5.21885 0 28.0512 0 0)
(31.783 -5.97478 0 27.4756 0 0)
(37.3986 -6.69825 0 26.8695 0 0)
(42.7153 -7.38453 0 26.2511 0 0)
(47.6401 -8.02504 0 25.6231 0 0)
(52.1226 -8.61566 0 24.9986 0 0)
(56.1312 -9.14843 0 24.3776 0 0)
(59.6656 -9.62144 0 23.769 0 0)
(62.7296 -10.0272 0 23.1708 0 0)
(65.3509 -10.3659 0 22.5931 0 0)
(67.57 -10.6331 0 22.0261 0 0)
(69.3395 -10.8307 0 21.4505 0 0)
(0.269748 -0.304706 0 18.2106 0 0)
(2.11442 -0.920161 0 18.5547 0 0)
(5.23887 -1.55471 0 18.0041 0 0)
(9.54023 -2.23783 0 17.7981 0 0)
(14.5987 -2.90219 0 17.555 0 0)
(20.1435 -3.55239 0 17.2704 0 0)
(25.9077 -4.18366 0 16.9502 0 0)
(31.6725 -4.79271 0 16.6072 0 0)
(37.2623 -5.37297 0 16.2455 0 0)
(42.5537 -5.92096 0 15.8754 0 0)
(47.456 -6.42941 0 15.4988 0 0)
(51.9176 -6.89596 0 15.1237 0 0)
(55.9103 -7.31378 0 14.7502 0 0)
(59.4318 -7.68259 0 14.3834 0 0)
(62.4907 -7.9966 0 14.0229 0 0)
(65.1092 -8.25637 0 13.6739 0 0)
(67.3315 -8.46107 0 13.332 0 0)
(69.1285 -8.61148 0 12.9851 0 0)
(0.269389 -0.228349 0 9.8815 0 0)
(2.11216 -0.691527 0 10.065 0 0)
(5.22164 -1.17908 0 9.76781 0 0)
(9.49673 -1.70896 0 9.66544 0 0)
(14.525 -2.22352 0 9.54103 0 0)
(20.0363 -2.72408 0 9.39183 0 0)
(25.7636 -3.20631 0 9.22115 0 0)
(31.4904 -3.66772 0 9.03692 0 0)
(37.0411 -4.10256 0 8.84117 0 0)
(42.2953 -4.50928 0 8.64018 0 0)
(47.1615 -4.88226 0 8.43453 0 0)
(51.5929 -5.22168 0 8.2294 0 0)
(55.5604 -5.52174 0 8.02423 0 0)
(59.0656 -5.78463 0 7.82298 0 0)
(62.1162 -6.00425 0 7.6247 0 0)
(64.7338 -6.18416 0 7.4334 0 0)
(66.9597 -6.3273 0 7.24663 0 0)
(68.79 -6.42936 0 7.05843 0 0)
(0.268244 -0.154855 0 4.4857 0 0)
(2.08529 -0.498032 0 4.58131 0 0)
(5.16033 -0.852615 0 4.45612 0 0)
(9.39585 -1.22907 0 4.42049 0 0)
(14.3985 -1.5862 0 4.36941 0 0)
(19.8843 -1.9286 0 4.30498 0 0)
(25.585 -2.25364 0 4.22766 0 0)
(31.2858 -2.55906 0 4.14117 0 0)
(36.8134 -2.84327 0 4.04814 0 0)
(42.0469 -3.10744 0 3.95232 0 0)
(46.8964 -3.34866 0 3.85451 0 0)
(51.3184 -3.56779 0 3.75742 0 0)
(55.28 -3.76108 0 3.66054 0 0)
(58.7913 -3.93061 0 3.56656 0 0)
(61.8484 -4.07023 0 3.47389 0 0)
(64.4848 -4.18529 0 3.38643 0 0)
(66.7078 -4.27579 0 3.30118 0 0)
(68.5663 -4.34583 0 3.21698 0 0)
(0.255339 -0.0882161 0 1.42088 0 0)
(2.06931 -0.313522 0 1.48661 0 0)
(5.20882 -0.526101 0 1.44656 0 0)
(9.50285 -0.734509 0 1.4334 0 0)
(14.559 -0.924638 0 1.41329 0 0)
(20.0961 -1.10729 0 1.39002 0 0)
(25.853 -1.28397 0 1.36338 0 0)
(31.613 -1.45212 0 1.33405 0 0)
(37.2022 -1.61009 0 1.30306 0 0)
(42.4948 -1.75769 0 1.27145 0 0)
(47.4039 -1.89344 0 1.23964 0 0)
(51.8784 -2.01734 0 1.20822 0 0)
(55.8899 -2.12738 0 1.17718 0 0)
(59.4409 -2.22421 0 1.14721 0 0)
(62.5314 -2.30373 0 1.11795 0 0)
(65.1994 -2.36995 0 1.09147 0 0)
(67.4223 -2.42256 0 1.06625 0 0)
(69.2728 -2.46204 0 1.0393 0 0)
(0.246013 -0.0253346 0 0.141832 0 0)
(2.06714 -0.0978445 0 0.153613 0 0)
(5.18769 -0.16559 0 0.150828 0 0)
(9.45086 -0.230842 0 0.149659 0 0)
(14.4883 -0.293749 0 0.147356 0 0)
(20.0127 -0.354087 0 0.144628 0 0)
(25.763 -0.412915 0 0.141629 0 0)
(31.5206 -0.469419 0 0.138498 0 0)
(37.1169 -0.522769 0 0.135276 0 0)
(42.4274 -0.572777 0 0.132024 0 0)
(47.3668 -0.619141 0 0.128766 0 0)
(51.8822 -0.661829 0 0.125564 0 0)
(55.9472 -0.700272 0 0.122421 0 0)
(59.5568 -0.734324 0 0.119397 0 0)
(62.7176 -0.76325 0 0.116572 0 0)
(65.4624 -0.788498 0 0.114235 0 0)
(67.7754 -0.806715 0 0.112161 0 0)
(69.7036 -0.816001 0 0.111777 0 0)
(0.0244862 0.0357658 0 0.717374 0 0)
(0.267301 0.0991182 0 0.678431 0 0)
(0.78556 0.180951 0 0.671259 0 0)
(1.53908 0.295017 0 0.66204 0 0)
(2.48614 0.424025 0 0.660443 0 0)
(3.60855 0.568813 0 0.657176 0 0)
(4.88441 0.71584 -2.38382e-19 0.655212 -6.4847e-20 1.47812e-37)
(6.31084 0.866718 2.42372e-19 0.650899 6.91441e-20 1.48262e-37)
(7.88118 1.01365 0 0.64488 0 0)
(9.5934 1.16106 2.4477e-19 0.637298 6.85555e-20 1.46043e-37)
(11.4423 1.30509 0 0.62871 0 0)
(13.4219 1.44797 0 0.619614 0 0)
(15.5256 1.58508 0 0.611658 0 0)
(17.7471 1.71677 -2.77289e-19 0.60519 -5.16727e-20 1.34694e-37)
(20.0802 1.83988 0 0.598978 0 0)
(22.5254 1.95348 0 0.593752 0 0)
(25.083 2.05338 3.40456e-19 0.58946 3.90238e-20 1.22048e-37)
(27.7514 2.14122 0 0.585009 0 0)
(30.5257 2.21967 0 0.580346 0 0)
(33.4001 2.29098 0 0.575909 0 0)
(36.3589 2.35415 -4.56358e-19 0.572585 -1.95719e-20 1.01752e-37)
(39.3923 2.40994 0 0.568836 0 0)
(42.4865 2.45643 -5.1612e-19 0.566583 -1.02959e-20 9.24986e-38)
(45.6326 2.49346 0 0.567791 0 0)
(48.8141 2.52722 0 0.568562 0 0)
(52.0171 2.55032 -6.04276e-19 0.570746 1.22792e-21 7.97499e-38)
(55.2347 2.55254 0 0.572584 0 0)
(58.4711 2.53514 6.57914e-19 0.571054 -6.95154e-21 7.21449e-38)
(61.7203 2.50414 0 0.56318 0 0)
(64.988 2.46139 -7.02663e-19 0.552765 1.05018e-20 6.53828e-38)
(68.2729 2.40947 0 0.539191 0 0)
(71.5623 2.35087 0 0.523358 0 0)
(74.8487 2.28544 0 0.509315 0 0)
(78.1335 2.20941 0 0.497917 0 0)
(81.4107 2.12222 0 0.486354 0 0)
(84.6768 2.0268 7.79714e-19 0.475461 -1.40067e-20 4.59855e-38)
(87.9307 1.92297 0 0.463857 0 0)
(91.1733 1.81057 -1.56261e-18 0.447836 2.71671e-20 1.61359e-37)
(94.4032 1.6912 0 0.432259 0 0)
(97.6154 1.56375 1.55266e-18 0.417638 -2.61795e-20 1.39969e-37)
(100.803 1.43072 0 0.402497 0 0)
(103.965 1.2885 0 0.390827 0 0)
(107.092 1.13804 -1.51472e-18 0.378261 2.15908e-20 1.11276e-37)
(110.168 0.985312 0 0.365444 0 0)
(113.176 0.830593 -1.47621e-18 0.354625 1.82888e-20 9.4332e-38)
(116.102 0.672701 1.45374e-18 0.345748 -1.655e-20 8.66328e-38)
(118.93 0.508985 0 0.339606 0 0)
(121.652 0.339036 1.40283e-18 0.334812 -1.25175e-20 7.34084e-38)
(124.251 0.163659 1.37458e-18 0.330908 -1.06502e-20 6.79439e-38)
(126.729 -0.0142393 0 0.327653 0 0)
(129.069 -0.193591 0 0.325527 0 0)
(131.255 -0.377193 0 0.322852 0 0)
(133.264 -0.565819 0 0.321648 0 0)
(135.077 -0.756747 0 0.323696 0 0)
(136.666 -0.946659 -1.17423e-18 0.327916 -4.40164e-21 5.01577e-38)
(138.004 -1.13802 0 0.332032 0 0)
(139.078 -1.33415 1.07959e-18 0.335728 1.14673e-20 4.75105e-38)
(139.892 -1.53688 0 0.34095 0 0)
(140.441 -1.74577 0 0.347744 0 0)
(140.71 -1.95173 -9.11829e-19 0.357063 -2.24686e-20 4.75163e-38)
(140.693 -2.15591 0 0.369039 0 0)
(140.373 -2.36097 7.80429e-19 0.381042 3.12483e-20 4.96865e-38)
(139.757 -2.56484 0 0.391331 0 0)
(138.84 -2.76867 0 0.404118 0 0)
(137.632 -2.97164 0 0.418285 0 0)
(136.146 -3.16738 -4.82129e-19 0.432689 -4.76074e-20 6.03429e-38)
(134.384 -3.35656 0 0.447412 0 0)
(132.36 -3.53937 0 0.460491 0 0)
(130.086 -3.71484 -2.26407e-19 0.47415 -6.11984e-20 7.30425e-38)
(127.582 -3.88806 0 0.489228 0 0)
(124.886 -4.05396 -5.08454e-20 0.50441 -6.98437e-20 8.3026e-38)
(122.008 -4.20743 0 0.519871 0 0)
(118.967 -4.34875 0 0.535891 0 0)
(115.791 -4.47938 0 0.553072 0 0)
(112.505 -4.60078 -3.04843e-19 0.571265 8.32165e-20 1.04537e-37)
(109.127 -4.71013 0 0.589387 0 0)
(105.674 -4.80415 0 0.607357 0 0)
(102.156 -4.88302 -5.64264e-19 0.625451 9.03479e-20 1.20172e-37)
(98.588 -4.95115 -6.4611e-19 0.64422 9.18904e-20 1.25286e-37)
(94.9956 -5.00818 0 0.663014 0 0)
(91.4099 -5.05326 -7.99232e-19 0.682727 9.46627e-20 1.34709e-37)
(87.8519 -5.0871 0 0.703904 0 0)
(84.342 -5.1091 -1.87817e-18 0.725464 1.92635e-19 5.74503e-37)
(80.8947 -5.11812 0 0.748114 0 0)
(77.5278 -5.11263 -2.12313e-18 0.7707 1.93762e-19 6.07657e-37)
(74.2596 -5.09076 0 0.793657 0 0)
(71.1047 -5.05588 2.32576e-18 0.819635 -1.93905e-19 6.36627e-37)
(68.0805 -5.00777 0 0.844664 0 0)
(65.2011 -4.94105 0 0.866978 0 0)
(62.4667 -4.85552 0 0.889683 0 0)
(59.8815 -4.75331 -2.58667e-18 0.914696 1.86311e-19 6.79981e-37)
(57.4512 -4.63679 0 0.939302 0 0)
(55.185 -4.50424 2.64759e-18 0.963564 -1.8003e-19 6.94702e-37)
(53.0858 -4.35542 0 0.987317 0 0)
(51.1424 -4.18438 -2.65956e-18 1.01089 1.73676e-19 7.03559e-37)
(49.3496 -3.9967 -2.65039e-18 1.03219 1.70439e-19 7.07082e-37)
(47.6954 -3.79637 -2.63139e-18 1.05344 1.66271e-19 7.09772e-37)
(46.1754 -3.58696 0 1.07584 0 0)
(44.7628 -3.3674 0 1.09895 0 0)
(43.468 -3.13882 0 1.11851 0 0)
(42.2722 -2.90125 0 1.13832 0 0)
(41.1705 -2.66183 0 1.1582 0 0)
(40.1445 -2.42197 0 1.1772 0 0)
(39.1911 -2.17922 0 1.19231 0 0)
(38.2644 -1.93577 0 1.2083 0 0)
(37.3622 -1.69903 2.02607e-18 1.22362 -1.31591e-19 7.07604e-37)
(36.4518 -1.47063 1.91195e-18 1.24079 -1.24256e-19 7.06964e-37)
(35.5571 -1.25146 0 1.25246 0 0)
(34.6439 -1.04128 0 1.26548 0 0)
(33.7224 -0.854613 0 1.2795 0 0)
(32.7402 -0.678247 1.35394e-18 1.29211 -1.04634e-19 6.91187e-37)
(31.7974 -0.527873 0 1.29937 0 0)
(30.7863 -0.385529 0 1.30918 0 0)
(29.8296 -0.282575 0 1.31926 0 0)
(28.9013 -0.198969 0 1.33249 0 0)
(28.0708 -0.14864 -4.38408e-19 1.34093 7.57542e-20 6.66304e-37)
(27.3707 -0.122538 0 1.35028 0 0)
(26.8336 -0.131874 0 1.36371 0 0)
(26.5442 -0.174753 -2.23403e-19 1.37162 -6.55498e-20 6.42738e-37)
(26.5012 -0.24394 4.50305e-19 1.38435 6.11597e-20 6.30028e-37)
(26.7554 -0.35364 0 1.40124 0 0)
(27.3605 -0.510409 9.12938e-19 1.41866 6.00512e-20 6.05256e-37)
(28.3826 -0.707537 0 1.43772 0 0)
(29.8819 -0.959556 -1.35453e-18 1.45536 -6.45132e-20 5.75522e-37)
(31.8789 -1.24604 0 1.47814 0 0)
(34.4487 -1.58205 0 1.50521 0 0)
(37.4876 -1.96004 0 1.53789 0 0)
(41.1046 -2.38853 0 1.57213 0 0)
(45.1531 -2.84294 0 1.61028 0 0)
(49.6388 -3.34464 4.89987e-18 1.65253 2.0473e-19 1.97228e-36)
(54.5016 -3.89044 5.15497e-18 1.69879 2.30554e-19 1.93766e-36)
(59.7615 -4.47238 0 1.74727 0 0)
(65.2243 -5.07473 0 1.80292 0 0)
(70.8421 -5.70161 0 1.85816 0 0)
(76.4666 -6.31522 -5.69502e-18 1.91892 -3.5234e-19 1.91764e-36)
(81.8739 -6.92964 0 1.98995 0 0)
(87.022 -7.55038 0 2.0622 0 0)
(91.856 -8.16507 0 2.13875 0 0)
(96.3058 -8.75818 -5.33423e-18 2.21706 -5.33622e-19 2.0724e-36)
(100.332 -9.32353 5.10112e-18 2.30071 5.82507e-19 2.1345e-36)
(103.741 -9.84569 0 2.39129 0 0)
(106.647 -10.3546 0 2.48411 0 0)
(109.016 -10.8085 4.08138e-18 2.5786 7.3553e-19 2.36661e-36)
(110.851 -11.2271 3.65188e-18 2.67194 7.84437e-19 2.45191e-36)
(112.002 -11.5708 0 2.77221 0 0)
(112.566 -11.8848 0 2.8721 0 0)
(112.441 -12.1266 -2.05358e-18 2.97602 -9.4588e-19 2.71969e-36)
(111.756 -12.3502 1.42408e-18 3.07097 9.89485e-19 2.79844e-36)
(110.556 -12.5034 0 3.16771 0 0)
(108.641 -12.6025 0 3.26828 0 0)
(106.132 -12.6352 -5.20237e-19 3.35914 1.11724e-18 3.06914e-36)
(102.993 -12.6141 0 3.44956 0 0)
(99.5066 -12.5552 0 3.53309 0 0)
(95.5152 -12.4056 -2.54645e-18 3.60551 1.2061e-18 3.30179e-36)
(91.2155 -12.1841 0 3.67745 0 0)
(86.5947 -11.8517 -3.82989e-18 3.73885 1.25705e-18 3.44462e-36)
(81.7105 -11.4339 0 3.7945 0 0)
(76.605 -10.8983 0 3.83361 0 0)
(71.665 -10.2646 0 3.85763 0 0)
(66.7878 -9.46677 5.86838e-18 3.87636 -1.27766e-18 3.68235e-36)
(62.1367 -8.54935 0 3.87981 0 0)
(57.927 -7.47984 0 3.86777 0 0)
(54.4781 -6.29052 0 3.83983 0 0)
(51.6307 -4.91209 0 3.79777 0 0)
(49.5403 -3.45336 0 3.74725 0 0)
(48.8242 -1.89997 0 3.67509 0 0)
(49.6674 -0.276909 6.02016e-18 3.58527 -1.10409e-18 3.72713e-36)
(51.7366 1.43584 5.60444e-18 3.487 -1.04966e-18 3.70947e-36)
(55.4476 3.1277 0 3.37545 0 0)
(60.7088 4.75396 0 3.25755 0 0)
(67.5213 6.3335 0 3.128 0 0)
(75.4635 7.80621 -3.0498e-18 2.99834 7.9478e-19 3.38354e-36)
(84.5921 9.10725 0 2.87019 0 0)
(94.1471 10.295 2.94312e-18 2.73531 -1.35028e-18 1.23613e-35)
(104.025 11.2516 -1.30703e-18 2.6048 1.21754e-18 1.16604e-35)
(113.651 12.0406 3.20309e-19 2.47345 1.10456e-18 1.10174e-35)
(123.292 12.6897 -2.02498e-18 2.34861 -1.01383e-18 1.03324e-35)
(131.397 13.2295 3.67798e-18 2.22963 9.2243e-19 9.75836e-36)
(139.259 13.7049 -5.28361e-18 2.12233 -9.03021e-19 8.99321e-36)
(143.001 14.3966 0 2.06643 0 0)
(0.0183142 0.174247 0 6.09665 0 0)
(0.202734 0.387956 0 6.03471 0 0)
(0.629547 0.609861 1.31773e-19 5.862 1.75894e-19 6.76358e-37)
(1.3272 0.85431 0 5.74124 0 0)
(2.2695 1.1335 -1.92407e-19 5.68139 -3.53517e-19 9.19068e-37)
(3.44592 1.43817 -1.84056e-19 5.65417 -4.41299e-19 9.72072e-37)
(4.83536 1.76269 -8.07641e-20 5.63871 -2.51313e-19 2.4884e-37)
(6.42349 2.10311 -6.90667e-20 5.6206 -2.70193e-19 2.61086e-37)
(8.20247 2.45217 0 5.59218 0 0)
(10.1703 2.80539 -4.23367e-20 5.54952 -2.68998e-19 2.59249e-37)
(12.3282 3.15394 0 5.4976 0 0)
(14.6745 3.49543 0 5.43796 0 0)
(17.2009 3.82468 9.5127e-20 5.3697 4.23663e-19 9.50559e-37)
(19.9082 4.14124 6.97181e-20 5.29787 1.86883e-19 2.33999e-37)
(22.7858 4.43541 -1.85845e-19 5.22274 -3.26265e-19 8.93147e-37)
(25.8277 4.70721 -2.52082e-19 5.1446 -2.81272e-19 8.65453e-37)
(29.0225 4.95814 -1.71375e-19 5.06026 -1.18496e-19 2.12637e-37)
(32.3639 5.18971 0 4.96949 0 0)
(35.8401 5.40021 0 4.87379 0 0)
(39.4424 5.59418 0 4.77109 0 0)
(43.1475 5.77089 -3.86811e-19 4.66616 -3.67339e-20 1.80308e-37)
(46.9465 5.92761 0 4.56163 0 0)
(50.8166 6.05595 1.6096e-18 4.45508 -1.63246e-20 1.55112e-36)
(54.7453 6.15959 0 4.3521 0 0)
(58.7155 6.24014 0 4.2469 0 0)
(62.7099 6.29776 7.75093e-19 4.14263 -5.77311e-20 1.56431e-37)
(66.7007 6.32917 0 4.03657 0 0)
(70.6693 6.34364 -9.33263e-19 3.93587 8.18131e-20 1.45935e-37)
(74.582 6.33477 -1.99416e-18 3.83581 1.81554e-19 5.56866e-37)
(78.4289 6.29735 1.07734e-18 3.73297 -9.87342e-20 1.36568e-37)
(82.2061 6.22839 0 3.62509 0 0)
(85.9137 6.13142 0 3.51972 0 0)
(89.5381 6.00893 0 3.41636 0 0)
(93.0833 5.86205 -2.5771e-18 3.30826 2.22731e-19 4.71237e-37)
(96.541 5.68528 -2.65537e-18 3.20087 2.20271e-19 4.55101e-37)
(99.9248 5.47897 -1.37389e-18 3.09997 1.07577e-19 1.10749e-37)
(103.243 5.24148 0 3.00814 0 0)
(106.489 4.96791 2.83859e-18 2.9201 -2.03041e-19 4.12822e-37)
(109.671 4.65623 0 2.83498 0 0)
(112.783 4.31581 -2.87531e-18 2.75351 1.88505e-19 3.81592e-37)
(115.832 3.94774 0 2.67318 0 0)
(118.815 3.55985 0 2.60098 0 0)
(121.738 3.15608 2.82835e-18 2.52999 -1.54158e-19 3.3172e-37)
(124.587 2.73357 0 2.46458 0 0)
(127.341 2.28574 8.16203e-18 2.4065 -3.93546e-19 2.68454e-36)
(130 1.80837 -2.68946e-18 2.36106 1.19198e-19 2.83693e-37)
(132.568 1.30578 0 2.33379 0 0)
(135.058 0.777958 -2.54962e-18 2.31789 9.08811e-20 2.51729e-37)
(137.458 0.217342 -2.46888e-18 2.31158 7.66233e-20 2.3615e-37)
(139.763 -0.369703 0 2.31389 0 0)
(141.953 -0.968652 0 2.32732 0 0)
(144.006 -1.56534 0 2.3424 0 0)
(145.91 -2.15023 0 2.356 0 0)
(147.627 -2.72766 0 2.37964 0 0)
(149.144 -3.30652 1.88343e-18 2.41247 1.4533e-20 1.71976e-37)
(150.44 -3.89422 3.45116e-18 2.45583 7.11761e-20 6.55394e-37)
(151.495 -4.48552 -1.64436e-18 2.50698 -5.59225e-20 1.59982e-37)
(152.321 -5.09514 0 2.56316 0 0)
(152.89 -5.70633 2.68674e-18 2.62631 1.90204e-19 6.01025e-37)
(153.175 -6.29706 -1.16985e-18 2.69444 -1.13229e-19 1.46767e-37)
(153.202 -6.88272 0 2.77119 0 0)
(152.922 -7.46236 -9.78132e-19 2.86107 -1.4861e-19 1.49416e-37)
(152.347 -8.02026 0 2.95432 0 0)
(151.47 -8.56883 0 3.05557 0 0)
(150.287 -9.09905 -1.04762e-18 3.16168 -3.9696e-19 6.2525e-37)
(148.787 -9.60044 4.22658e-19 3.2725 2.15263e-19 1.63681e-37)
(147.007 -10.0941 -4.89153e-19 3.39281 -4.62266e-19 6.68166e-37)
(144.941 -10.5664 2.12006e-19 3.51737 4.89186e-19 6.91982e-37)