/*--------------------------------*- C++ -*----------------------------------*\
| =========                 |                                                 |
| \\      /  F ield         | OpenFOAM: The Open Source CFD Toolbox           |
|  \\    /   O peration     | Version:  dev                                   |
|   \\  /    A nd           | Web:      http://www.openfoam.org               |
|    \\/     M anipulation  |                                                 |
\*---------------------------------------------------------------------------*/
FoamFile
{
    version     2.0;
    format      ascii;
    class       volScalarField;
    object      k;
    location    "9.146";
}
// * * * * * * * * * * * * * * * * * * * * * * * * * * * * * * * * * * * * * //

dimensions      [0 2 -2 0 0 0 0];

internalField   nonuniform List<scalar> 
12225
(
8.76636
11.7587
8.61857
10.2253
6.89026
12.2172
8.34815
15.2847
11.3577
18.8169
15.3664
21.9129
21.3914
23.3752
31.7222
29.0708
47.0262
39.4223
1.80081
5.7676
4.98887
6.08312
4.38701
5.67047
4.26007
5.41963
4.54856
5.37937
4.99787
5.1418
5.71525
5.44072
7.0702
6.58546
6.95031
8.87964
0.166927
1.66551
1.91436
3.18087
2.8865
3.19409
3.14452
2.91461
2.86319
2.67044
2.71302
2.36851
2.50098
2.15293
2.44678
2.12687
2.23716
1.56112
0.0137898
0.238614
0.429895
0.791908
1.22477
1.2185
1.58733
1.41078
1.55914
1.35266
1.45306
1.20079
1.26643
1.05907
1.13366
0.988151
1.11102
0.917125
0.00312184
0.0950983
0.135807
0.257893
0.511974
0.562877
0.747126
0.706115
0.77882
0.684289
0.755001
0.631575
0.685172
0.575314
0.617195
0.520168
0.669051
0.6456
0.00880471
0.0812224
0.102508
0.169622
0.268006
0.247091
0.324301
0.299448
0.347761
0.303428
0.362139
0.307061
0.353872
0.307934
0.341401
0.300791
0.365713
0.475707
0.00320183
0.0150729
0.0461804
0.0503806
0.0874342
0.0755003
0.125158
0.117485
0.146895
0.128936
0.164946
0.143462
0.171645
0.155917
0.179531
0.172024
0.19485
0.288481
0.000696078
0.00256928
0.0157624
0.0153266
0.0285461
0.0263218
0.049493
0.0478318
0.0647512
0.0611134
0.0786109
0.0719071
0.0855618
0.0875047
0.0970455
0.112394
0.123101
0.140046
0.000328327
0.00375412
0.008938
0.00825911
0.0134456
0.0134158
0.0239818
0.0250985
0.034272
0.0349407
0.0414832
0.0439973
0.0552254
0.0636397
0.0742441
0.094388
0.0997254
0.110676
0.000420933
0.00563764
0.00673347
0.00649494
0.00800835
0.00827278
0.0122427
0.0137376
0.0180086
0.0203192
0.0279964
0.0382271
0.046937
0.0580673
0.0691531
0.087594
0.0932922
0.109087
0.0022967
0.0041411
0.00515297
0.00496006
0.00587491
0.00594346
0.00719606
0.0088499
0.0125512
0.0185747
0.0251096
0.0374124
0.0456419
0.0581837
0.0689133
0.0838341
0.0936008
0.103739
0.00792597
0.00642239
0.00577929
0.00511229
0.00528605
0.00552342
0.00603286
0.00823992
0.0115769
0.0196358
0.0256419
0.0387583
0.0493563
0.0641639
0.0752871
0.0895347
0.102077
0.11527
0.0139981
0.0118646
0.00772326
0.00627403
0.00594727
0.00613406
0.00669525
0.00983627
0.0140088
0.0246729
0.0324409
0.049101
0.0652432
0.085051
0.101458
0.118638
0.135015
0.151862
0.0255949
0.0201597
0.0127969
0.00990416
0.00899326
0.00917726
0.0103265
0.0161337
0.0243468
0.040041
0.0575496
0.0833758
0.112144
0.141867
0.16956
0.196527
0.218527
0.237458
0.0401659
0.0300124
0.0189331
0.0151385
0.0146404
0.0155704
0.019925
0.03438
0.058616
0.0877007
0.122342
0.161634
0.202589
0.240476
0.272565
0.298875
0.317152
0.331693
0.0723233
0.0536826
0.0358662
0.0306901
0.0304885
0.0329186
0.0421288
0.0681877
0.102944
0.141167
0.181373
0.22226
0.261176
0.295743
0.324738
0.347504
0.362782
0.374355
0.0952104
0.0704721
0.0489095
0.0427038
0.042163
0.0441837
0.0528342
0.0792666
0.11756
0.159156
0.201832
0.243767
0.282424
0.316203
0.343884
0.364722
0.378575
0.388513
0.0970619
0.0709264
0.0499773
0.0445108
0.0443903
0.0467194
0.0550375
0.0795228
0.116885
0.158333
0.201314
0.243437
0.282155
0.315687
0.342888
0.363149
0.376594
0.386263
0.0788479
0.0601291
0.0442328
0.0401427
0.0400507
0.0420687
0.0492354
0.0694927
0.10372
0.142348
0.182835
0.222362
0.259001
0.291648
0.318126
0.337868
0.350946
0.361589
0.051631
0.0398383
0.0297148
0.0271925
0.0270346
0.0283405
0.0332941
0.0477084
0.0730846
0.102192
0.133592
0.164846
0.196079
0.226957
0.252449
0.272333
0.285028
0.298061
0.0314234
0.0244643
0.0184614
0.0169789
0.0169801
0.0181824
0.0234377
0.0317747
0.0419957
0.0548951
0.0706691
0.0901111
0.112339
0.136757
0.155951
0.17186
0.178566
0.188696
0.0168964
0.0132062
0.0101213
0.00971264
0.0106138
0.0143949
0.0177231
0.0198859
0.0225762
0.0275707
0.0360992
0.049534
0.0632893
0.0779115
0.0887665
0.0994729
0.104631
0.111462
0.00921506
0.00739803
0.00606021
0.00608586
0.00675339
0.00876619
0.00995349
0.0119259
0.0136616
0.0171238
0.0221097
0.0313795
0.0394233
0.0486259
0.0555987
0.0634899
0.0691963
0.0762066
0.00447574
0.00367593
0.00336116
0.0037569
0.00480832
0.0071168
0.00850214
0.0111788
0.0130721
0.0168008
0.0214472
0.0301428
0.03728
0.0454787
0.0518089
0.0592594
0.0651888
0.0723611
0.00185031
0.00196161
0.00242023
0.00385682
0.00643471
0.0120227
0.0167904
0.0240816
0.0283085
0.0358702
0.0450124
0.0577529
0.0678827
0.0784757
0.0865224
0.0951764
0.101545
0.108777
0.00040601
0.00241805
0.00750625
0.0195955
0.0395421
0.0647892
0.0892037
0.11447
0.130543
0.150102
0.17376
0.198817
0.218606
0.236172
0.248061
0.258491
0.263736
0.268977
0.00144086
0.0205262
0.0790864
0.185056
0.296986
0.394447
0.47315
0.531463
0.567067
0.600461
0.63789
0.66898
0.695069
0.711657
0.718239
0.720114
0.716597
0.710548
0.0215296
0.268607
0.811002
1.22708
1.56979
1.76299
1.86616
1.90226
1.91197
1.91047
1.90079
1.87142
1.82411
1.77104
1.71205
1.65883
1.59443
1.55757
0.568175
3.02703
4.23642
4.42256
4.36819
4.14833
3.89905
3.65248
3.4293
3.22797
3.05211
2.90625
2.77074
2.6316
2.49757
2.37075
2.25762
2.16931
7.18034
10.8321
10.2929
8.48425
7.20283
6.52888
6.23247
6.12959
6.11743
6.11538
6.08841
6.02891
5.9284
5.80256
5.65345
5.48245
5.29654
5.05963
0.0533962
0.0772819
0.0956867
0.110955
0.133204
0.160871
0.193749
0.228097
0.257703
0.286304
0.31191
0.342702
0.374664
0.403463
0.444727
0.499717
0.563222
0.625972
0.69516
0.79442
0.947938
1.12356
1.296
1.47702
1.67151
1.86704
2.09168
2.351
2.59136
2.81808
3.05597
3.30234
3.45956
3.44989
3.26373
2.86715
2.58569
2.38934
2.26504
2.23917
2.26641
2.36088
2.46404
2.51548
2.55179
2.58941
2.62401
2.66286
2.71543
2.75806
2.80115
2.85871
3.01192
3.31583
3.77552
4.43484
4.9204
5.13488
5.24997
5.21619
5.09738
5.11079
5.07739
4.86738
4.77877
4.66245
4.60918
4.62998
5.02711
5.40586
5.57504
5.95891
7.47839
9.21966
10.0879
10.7159
11.1607
11.3554
11.4096
11.3413
11.0022
10.6014
10.0541
9.48298
8.81011
8.16723
7.43644
6.76876
6.14351
5.56603
5.02875
4.51421
4.06958
3.75827
3.42164
3.0913
2.87222
2.65882
2.4542
2.35428
2.27217
2.2163
2.19558
2.20382
2.23668
2.27406
2.31261
2.33276
2.35612
2.39811
2.45772
2.59297
2.76102
2.75374
2.59927
2.56476
2.54796
2.38406
2.29868
2.38913
2.68925
2.923
3.02493
3.00318
2.79524
2.70988
2.76508
3.19737
3.86027
4.32548
4.74389
5.41936
6.44786
8.15542
10.861
13.906
15.0911
13.9507
12.0082
11.4547
12.0793
14.507
15.2528
14.6567
15.2615
14.5353
14.1926
15.0996
15.6836
15.27
14.7377
13.8914
13.6584
11.8833
11.0896
10.6119
10.0426
9.26173
8.72864
8.02344
7.01771
6.15526
5.29746
4.59504
4.18171
4.04583
4.18187
4.23748
4.61524
5.30347
5.47949
5.68263
6.14413
7.22457
8.47109
9.55791
12.0715
16.1681
19.5509
23.5449
0.181083
0.106685
0.0969734
0.105307
0.128799
0.174539
0.230836
0.26844
0.273477
0.266302
0.253411
0.231912
0.2153
0.207077
0.205563
0.208877
0.2177
0.223041
0.223213
0.222028
0.216657
0.208198
0.206607
0.207766
0.214355
0.221086
0.237549
0.261029
0.309082
0.364689
0.45976
0.645679
0.859654
1.22161
1.5989
1.81863
1.90252
1.8781
1.75597
1.49314
1.25565
1.11003
0.935331
0.787864
0.686127
0.576959
0.47843
0.430662
0.416674
0.415428
0.445825
0.495568
0.530801
0.559655
0.613562
0.749311
1.05693
1.6242
2.31455
2.79723
3.03344
3.01659
2.45732
1.70761
1.52802
1.57444
1.97672
2.6418
3.83169
4.74645
4.85999
4.88182
4.9775
4.76135
4.2772
3.8132
3.46632
3.07209
2.78774
2.49985
2.27128
2.04551
1.88527
1.70671
1.57245
1.45096
1.32648
1.24915
1.1714
1.11425
1.05131
1.00328
0.976739
0.959171
0.920921
0.901794
0.889979
0.868026
0.860344
0.897602
0.911019
0.917993
0.948914
0.995948
1.06745
1.13179
1.19648
1.22374
1.22982
1.24251
1.27137
1.32864
1.5341
1.68295
1.65467
1.64407
1.69759
1.66797
1.57659
1.58957
1.80494
2.00795
2.10163
2.11512
1.87993
1.75585
1.771
2.0448
2.60103
3.07934
3.41511
3.88419
4.72433
6.28218
8.02766
8.68041
7.54205
5.47856
4.87933
5.30395
7.42115
9.32738
8.52473
7.84509
7.60663
6.891
7.6713
9.29737
9.67378
8.9926
8.48071
8.14109
7.58269
6.61361
6.74735
6.80708
6.6247
6.39094
6.35754
6.09493
5.55231
5.08367
4.55275
4.03121
3.77466
3.73212
3.9549
4.06088
4.40533
4.76192
4.78611
4.67318
4.74442
5.07591
5.58552
5.65058
5.95786
7.13903
8.80008
11.1121
0.425492
0.189187
0.123382
0.124242
0.173922
0.283795
0.323072
0.304358
0.274358
0.22526
0.185331
0.165181
0.162496
0.169523
0.175936
0.176526
0.175348
0.176097
0.176213
0.172145
0.159006
0.146647
0.143351
0.140569
0.134266
0.128486
0.121298
0.115986
0.115879
0.117424
0.122472
0.134271
0.159939
0.218674
0.31009
0.499804
0.700587
0.893022
1.06704
1.14545
1.14798
1.04773
0.841117
0.671066
0.56933
0.426192
0.322953
0.289799
0.28472
0.305785
0.367706
0.445362
0.467167
0.467723
0.455286
0.445829
0.4525
0.509985
0.667211
0.929608
1.3367
1.46586
1.32824
1.14085
1.31018
2.48078
3.79217
3.78984
3.39388
3.36879
2.87199
2.55149
1.9753
1.50894
1.27104
1.0025
0.871122
0.71683
0.642709
0.563555
0.523941
0.482643
0.461157
0.435511
0.422253
0.409065
0.401428
0.397695
0.395506
0.396512
0.397367
0.404608
0.412491
0.414165
0.413273
0.419239
0.426156
0.425998
0.434686
0.463927
0.473654
0.477754
0.486382
0.503578
0.543744
0.585852
0.648158
0.683819
0.695106
0.705015
0.719129
0.737016
0.835365
0.969235
1.0147
1.02762
1.0574
1.1211
1.16328
1.18064
1.37587
1.48419
1.59078
1.56255
1.34379
1.27107
1.34025
1.50328
1.77125
2.13146
2.59606
3.14946
3.76978
4.93528
5.45966
5.3421
4.02185
2.99287
2.87851
3.23696
4.52272
5.42321
4.59254
4.15825
3.98087
3.45894
3.78028
4.82314
5.30156
5.01294
4.80652
4.85548
4.64007
4.20671
4.33485
4.48851
4.36401
4.26031
4.44947
4.50008
4.33815
4.21623
4.05268
3.80576
3.59612
3.5602
3.66513
3.90202
4.31209
4.57991
4.72039
4.59934
4.36286
4.31273
4.09832
3.6031
3.53732
3.86908
4.50457
5.49075
0.76269
0.266465
0.170295
0.2009
0.333335
0.387758
0.351975
0.283321
0.198718
0.159554
0.149306
0.150033
0.156499
0.169449
0.176965
0.172796
0.162628
0.152889
0.144212
0.128935
0.121064
0.118809
0.116191
0.111761
0.106494
0.103687
0.10052
0.0990359
0.0996772
0.0996583
0.0994631
0.0998543
0.101062
0.105247
0.117334
0.150385
0.225253
0.328085
0.471238
0.601684
0.716542
0.746116
0.702216
0.67129
0.626695
0.510631
0.387583
0.331293
0.317586
0.329285
0.386294
0.47969
0.508266
0.503495
0.474222
0.451785
0.427534
0.400226
0.406569
0.467126
0.635677
0.812382
0.896499
1.35588
2.81527
3.95675
3.48963
2.47568
1.99454
1.48464
1.13674
0.945513
0.672594
0.545748
0.443212
0.386281
0.34396
0.313396
0.298542
0.288695
0.28337
0.280651
0.280517
0.279584
0.281492
0.28293
0.286434
0.290251
0.292085
0.292644
0.294787
0.304361
0.316186
0.317903
0.317061
0.325491
0.328366
0.324818
0.326874
0.343128
0.357979
0.362957
0.364749
0.364661
0.379999
0.399952
0.436732
0.480249
0.501388
0.518506
0.536709
0.566373
0.630366
0.725526
0.772437
0.790257
0.830589
0.922288
1.00405
0.968364
0.999643
1.27405
1.34304
1.33679
1.18134
1.16256
1.23756
1.33032
1.50413
1.79785
2.29111
2.86686
3.27113
3.71648
4.09328
4.07694
3.22543
2.59839
2.64596
2.95454
3.46598
3.67782
3.29614
2.93061
2.77627
2.52252
2.58925
3.1127
3.57799
3.57842
3.5521
3.66978
3.49634
3.28484
3.45267
3.58783
3.52101
3.39008
3.64316
3.85442
3.81806
3.77645
3.77366
3.65614
3.50327
3.40877
3.50951
3.71757
4.08511
4.4033
4.56679
4.48149
4.35609
4.25333
3.77508
3.03542
2.87889
3.02683
3.22728
3.54339
1.23646
0.411646
0.272811
0.380914
0.452184
0.40231
0.297182
0.200323
0.159659
0.14899
0.149137
0.159071
0.17499
0.175467
0.170865
0.153009
0.129393
0.11532
0.109694
0.105253
0.101781
0.0999485
0.0980435
0.0978899
0.098464
0.0988172
0.0998759
0.102424
0.103449
0.101898
0.101288
0.101056
0.0992811
0.0986971
0.0991726
0.102861
0.11601
0.144313
0.20987
0.27808
0.382519
0.441263
0.464781
0.494359
0.489583
0.460231
0.406739
0.341734
0.32837
0.363078
0.469798
0.557078
0.556111
0.514684
0.479249
0.462601
0.450481
0.43001
0.412329
0.429628
0.517912
0.721715
1.19648
2.75712
3.70801
3.27928
1.96589
1.20953
0.939507
0.672381
0.49018
0.403622
0.3221
0.287545
0.260527
0.247647
0.235363
0.22904
0.226168
0.225157
0.226702
0.232151
0.237821
0.244255
0.251689
0.256232
0.262127
0.267696
0.270019
0.270418
0.271511
0.27831
0.288385
0.290546
0.292079
0.297442
0.293684
0.288252
0.288102
0.295208
0.309246
0.322445
0.323
0.316321
0.317251
0.323722
0.3371
0.365111
0.37899
0.407171
0.455899
0.488254
0.549027
0.655258
0.681455
0.661291
0.69469
0.80849
0.892764
0.869235
0.802605
0.982048
1.15971
1.17423
1.09533
1.11928
1.20678
1.26468
1.38316
1.6481
2.2598
2.81405
2.80005
2.86445
3.13454
3.17662
2.87593
2.64073
2.36376
2.62425
2.90166
2.95492
2.77185
2.39052
2.30697
2.29471
2.22932
2.47144
2.82742
3.14226
3.13027
3.19763
3.03112
2.90951
3.08892
3.18736
3.04184
2.94222
3.06331
3.32011
3.49644
3.52381
3.63816
3.61342
3.51851
3.41547
3.51214
3.40613
3.32023
4.22123
4.31836
4.11888
4.20197
4.21888
3.7895
2.95441
2.67482
2.66619
2.73643
2.83551
1.81052
0.609125
0.478665
0.529927
0.463173
0.327685
0.241466
0.183883
0.155764
0.155843
0.165412
0.178648
0.179094
0.168641
0.148111
0.127808
0.113546
0.107541
0.104878
0.101262
0.098168
0.0983114
0.0996992
0.102944
0.108249
0.112708
0.118299
0.119396
0.118204
0.11861
0.116865
0.111367
0.106707
0.101746
0.0976194
0.0985401
0.101358
0.107547
0.127621
0.149268
0.202785
0.247699
0.282514
0.293856
0.30066
0.297374
0.290685
0.294189
0.326369
0.444648
0.602757
0.612798
0.558398
0.505366
0.492811
0.493553
0.492327
0.475628
0.449671
0.454301
0.590888
1.12329
2.7103
3.28553
3.11351
1.67279
0.917838
0.6173
0.478757
0.352193
0.274173
0.240313
0.217048
0.206702
0.197989
0.193853
0.191165
0.190099
0.190687
0.194369
0.199597
0.20573
0.212046
0.21992
0.229049
0.239037
0.250563
0.258573
0.262497
0.264338
0.266379
0.271388
0.276408
0.278751
0.281476
0.278864
0.272533
0.272878
0.272555
0.276498
0.281737
0.296629
0.308169
0.299066
0.285915
0.284293
0.287279
0.303526
0.313962
0.328966
0.384675
0.413473
0.457449
0.573791
0.624145
0.64414
0.652889
0.764976
0.795736
0.797698
0.787109
0.834443
1.03093
1.01879
0.979975
1.07883
1.18025
1.19895
1.31683
1.64733
2.38338
2.74717
2.46209
2.46826
2.65596
2.7382
2.79527
2.55024
2.06791
2.35098
2.47516
2.55533
2.47757
2.17074
2.12395
2.16125
2.10833
2.30474
2.68117
2.94741
2.91145
2.8908
2.95017
2.75896
2.77072
2.93513
2.85419
2.5413
2.64444
2.85218
3.05441
3.11616
3.27721
3.52091
3.5098
3.45219
3.63417
3.33547
3.01565
3.54777
3.76226
3.59893
3.67511
3.99774
3.75985
2.98866
2.6658
2.51182
2.54161
2.58402
2.46833
0.812101
0.632039
0.550386
0.390431
0.299144
0.242583
0.192532
0.172202
0.176673
0.185755
0.189183
0.179025
0.1575
0.136402
0.122171
0.112087
0.107356
0.104971
0.102812
0.102877
0.106653
0.116496
0.128035
0.138333
0.14304
0.143692
0.141927
0.139879
0.136882
0.128048
0.119435
0.10934
0.0990865
0.0972414
0.0984966
0.100625
0.114282
0.128007
0.139805
0.168596
0.192133
0.215227
0.224813
0.237005
0.243499
0.259807
0.308482
0.449635
0.617046
0.632555
0.608257
0.568166
0.562968
0.595704
0.616697
0.604588
0.592247
0.614683
0.785038
1.48743
2.49615
2.82246
2.80017
1.60473
0.803652
0.499526
0.363558
0.283705
0.232592
0.201591
0.188426
0.18173
0.178724
0.177318
0.176979
0.177669
0.180504
0.185127
0.191783
0.198325
0.204912
0.210958
0.217145
0.220186
0.223512
0.2275
0.236109
0.248784
0.255783
0.260942
0.26344
0.266401
0.271932
0.275061
0.26171
0.258985
0.262736
0.267363
0.270451
0.270792
0.273957
0.289531
0.289373
0.276099
0.265871
0.266087
0.272685
0.286732
0.295292
0.335928
0.370331
0.394853
0.445561
0.540771
0.581427
0.607405
0.673469
0.676913
0.700058
0.763098
0.809918
0.925547
0.89278
0.876831
1.03956
1.17256
1.18196
1.3267
1.85995
2.41694
2.53187
2.40081
2.31798
2.42497
2.54701
2.56098
2.25057
1.94418
2.14221
2.42531
2.30475
2.35429
2.14151
1.98372
1.96649
2.07656
2.2659
2.62696
2.69591
2.67119
2.78325
2.76797
2.60956
2.42175
2.65139
2.78837
2.40161
2.36948
2.42992
2.55878
2.69003
2.82612
3.1869
3.37525
3.37999
3.65166
3.39665
3.08199
3.27977
3.32374
3.17389
3.20672
3.61806
3.65039
3.10392
2.68804
2.45872
2.4364
2.49966
3.2179
1.01915
0.670578
0.519925
0.380896
0.325925
0.272504
0.215789
0.198262
0.203233
0.203642
0.194377
0.173718
0.142576
0.12653
0.119298
0.114347
0.11146
0.109677
0.109894
0.114977
0.125449
0.135643
0.143223
0.148642
0.15194
0.153372
0.153425
0.151307
0.150837
0.150223
0.143926
0.131854
0.113331
0.102633
0.100948
0.106977
0.121646
0.134489
0.15521
0.190779
0.21779
0.221713
0.232041
0.244555
0.259558
0.306917
0.433908
0.617447
0.648415
0.636835
0.64695
0.717546
0.81828
0.995671
1.10967
1.15268
1.3479
1.5907
1.941
2.28174
2.43079
2.38893
1.42541
0.713554
0.426716
0.303815
0.242915
0.208842
0.190741
0.182738
0.180305
0.179329
0.178727
0.179353
0.181371
0.184437
0.189466
0.196313
0.206146
0.216781
0.225704
0.230123
0.23192
0.229332
0.227979
0.226593
0.220871
0.220166
0.223357
0.237839
0.241757
0.244948
0.258776
0.263822
0.253702
0.251155
0.252081
0.257691
0.26127
0.264112
0.261304
0.26192
0.264391
0.259727
0.254385
0.253127
0.254411
0.270733
0.285651
0.299712
0.328972
0.343943
0.369314
0.429206
0.47813
0.515486
0.60015
0.625849
0.621948
0.674328
0.780806
0.866319
0.813682
0.812019
1.01058
1.16013
1.18787
1.39276
1.95599
2.29336
2.2511
2.38843
2.21811
2.25902
2.27244
2.18381
2.17569
1.84305
1.87151
2.40757
2.34559
2.25117
2.07384
1.92215
1.89547
2.09092
2.27612
2.45046
2.5256
2.63687
2.67821
2.57511
2.39872
2.35234
2.43843
2.54011
2.35899
2.23185
2.24582
2.24782
2.39777
2.55606
2.84094
3.03028
3.03435
3.44659
3.37369
3.05773
3.04297
3.07223
2.92199
2.92869
3.35577
3.49441
3.14074
2.71567
2.46032
2.41654
2.50794
3.98519
1.15169
0.682657
0.53722
0.427428
0.358271
0.269263
0.213771
0.203938
0.207877
0.201176
0.177187
0.142699
0.124009
0.118696
0.117434
0.118043
0.118905
0.118823
0.119552
0.124749
0.133167
0.140192
0.145864
0.150666
0.15406
0.155285
0.156321
0.157471
0.16028
0.163144
0.165073
0.164208
0.155995
0.128255
0.112824
0.109759
0.113946
0.12344
0.14449
0.169156
0.183726
0.200011
0.209878
0.224775
0.286712
0.446324
0.607385
0.639364
0.645309
0.69877
0.867063
1.1499
1.44771
1.74436
1.83101
1.84654
1.8685
1.91786
2.02712
2.11807
1.92261
1.13127
0.588049
0.352396
0.254366
0.211732
0.193167
0.185636
0.183336
0.183459
0.184987
0.189753
0.197499
0.208927
0.227682
0.236342
0.244136
0.252026
0.259984
0.265713
0.270994
0.272594
0.273135
0.26643
0.251754
0.238558
0.222561
0.215923
0.197043
0.184212
0.180837
0.18052
0.206126
0.222273
0.241799
0.241022
0.237075
0.241576
0.241059
0.248588
0.248209
0.247302
0.245434
0.241068
0.239469
0.241599
0.253508
0.263022
0.267066
0.27693
0.293167
0.309531
0.331549
0.363707
0.407342
0.453544
0.536254
0.576917
0.593203
0.659158
0.764315
0.844626
0.794309
0.788835
0.990131
1.12164
1.20202
1.41001
1.91344
1.94974
2.1134
2.27253
2.01393
2.04909
1.92211
2.00391
2.16178
1.69723
1.59135
2.11655
2.36831
2.03117
1.93532
1.90379
1.90501
2.06826
2.31668
2.43422
2.49067
2.48347
2.41281
2.47794
2.28525
2.30335
2.30561
2.33893
2.23483
2.08487
2.14056
2.15349
2.29515
2.43248
2.64647
2.7926
2.67894
2.85862
3.12968
2.90615
2.80805
2.91908
2.78062
2.80973
3.20952
3.37615
3.13668
2.73882
2.4651
2.44307
2.54814
4.72694
1.27208
0.736497
0.586409
0.480378
0.348944
0.227819
0.201189
0.201282
0.195888
0.173496
0.142712
0.127878
0.121282
0.118784
0.119556
0.123394
0.12751
0.129247
0.130696
0.134048
0.139279
0.145424
0.150173
0.153429
0.154263
0.154165
0.153994
0.155064
0.158189
0.162111
0.166841
0.169205
0.169463
0.162513
0.142796
0.120353
0.115973
0.116793
0.123485
0.13737
0.149187
0.158626
0.18851
0.263481
0.428583
0.575529
0.616584
0.629935
0.676467
0.887836
1.31146
1.62938
1.77985
1.84359
1.84352
1.83486
1.81807
1.80264
1.74672
1.37966
0.844933
0.471334
0.297345
0.227825
0.201714
0.192059
0.187976
0.186562
0.189391
0.196304
0.208833
0.231086
0.266316
0.285551
0.29298
0.294958
0.28925
0.281632
0.278174
0.276022
0.276795
0.277813
0.27836
0.275374
0.259501
0.241792
0.222463
0.211447
0.191341
0.164433
0.149379
0.143241
0.152437
0.169239
0.200498
0.210984
0.209992
0.207588
0.215306
0.219965
0.220854
0.218823
0.2238
0.223635
0.22746
0.233155
0.241633
0.253834
0.255743
0.263081
0.271202
0.289447
0.312426
0.347098
0.367045
0.406062
0.504816
0.542119
0.55538
0.63616
0.70751
0.781265
0.781836
0.778858
0.951499
1.06571
1.20758
1.38093
1.68097
1.83986
2.11392
1.96676
1.65514
1.70343
1.75157
2.00552
2.11463
1.67627
1.57081
1.89703
2.15497
1.96673
1.92353
1.88547
1.88577
1.9471
2.17736
2.37801
2.44094
2.43873
2.38972
2.42317
2.35345
2.30724
2.24676
2.28361
2.10699
1.99867
2.03997
2.12737
2.29495
2.40711
2.56153
2.64274
2.42418
2.46019
2.63978
2.66598
2.68098
2.89491
2.73605
2.66475
3.12042
3.27309
3.12222
2.75781
2.47938
2.4842
2.5592
5.44679
1.43193
0.803293
0.590636
0.504203
0.309601
0.216263
0.198326
0.191059
0.176866
0.159343
0.136797
0.127328
0.125047
0.126306
0.130221
0.136809
0.144895
0.148011
0.149183
0.149331
0.151682
0.156568
0.15946
0.159548
0.1582
0.155392
0.153763
0.153607
0.154749
0.156103
0.159732
0.164761
0.166495
0.165332
0.155035
0.136951
0.129
0.127682
0.13098
0.139153
0.156357
0.192166
0.271501
0.422795
0.535245
0.573298
0.589026
0.620612
0.781864
1.16346
1.57518
1.69624
1.73444
1.74943
1.6979
1.61756
1.48805
1.26712
0.969518
0.619436
0.389823
0.271705
0.224379
0.207374
0.201246
0.198963
0.204309
0.214896
0.239926
0.26562
0.288256
0.307627
0.317549
0.321046
0.315604
0.303146
0.291156
0.27896
0.27172
0.266721
0.265706
0.267486
0.269319
0.26811
0.254082
0.235143
0.216932
0.200768
0.184512
0.158397
0.138174
0.12807
0.127805
0.139299
0.162742
0.172188
0.188972
0.182093
0.186671
0.18845
0.197791
0.197319
0.201652
0.204517
0.208513
0.220384
0.232784
0.23963
0.243492
0.250468
0.26132
0.282406
0.301462
0.337528
0.36444
0.399518
0.466366
0.533157
0.529919
0.592564
0.634754
0.689193
0.759538
0.770545
0.914699
1.02796
1.20672
1.33968
1.50657
1.85472
2.10249
1.66886
1.44721
1.59155
1.64578
1.92983
2.10194
1.71021
1.60227
1.68233
1.88585
2.00129
2.02542
1.9239
1.90386
1.99559
2.05354
2.24851
2.40369
2.3898
2.32902
2.40682
2.35566
2.27668
2.26955
2.26047
2.06053
1.98291
2.03397
2.08057
2.31708
2.41782
2.52704
2.59182
2.3396
2.22981
2.31378
2.41434
2.5267
2.87149
2.71927
2.46768
2.99112
3.14687
3.08024
2.7712
2.50514
2.48501
2.46631
6.05861
1.55285
0.828065
0.605903
0.538485
0.299976
0.226201
0.211015
0.192093
0.177051
0.165212
0.144742
0.138797
0.138758
0.140187
0.143088
0.146028
0.152215
0.155954
0.159506
0.162582
0.166453
0.170421
0.174032
0.175917
0.17599
0.170768
0.162315
0.158211
0.156507
0.15614
0.157448
0.159387
0.160299
0.159312
0.153399
0.150236
0.149822
0.151137
0.157633
0.176214
0.220777
0.304572
0.417777
0.472679
0.494134
0.500688
0.529888
0.661556
0.94345
1.31106
1.5465
1.61274
1.59611
1.46619
1.25403
1.05072
0.879107
0.652619
0.464473
0.330844
0.264095
0.234992
0.22494
0.221054
0.236346
0.264089
0.293164
0.312001
0.324793
0.331507
0.330291
0.328589
0.324042
0.321228
0.312097
0.297728
0.277166
0.259194
0.240036
0.227106
0.218477
0.211163
0.212103
0.213755
0.206315
0.189774
0.177155
0.164772
0.160342
0.147089
0.133772
0.122544
0.121998
0.122193
0.135406
0.146382
0.157435
0.161675
0.166731
0.172183
0.184696
0.185167
0.183633
0.191064
0.198945
0.203151
0.215214
0.230732
0.239292
0.244413
0.263129
0.285839
0.299737
0.323342
0.354888
0.395871
0.442677
0.505733
0.516273
0.53735
0.570106
0.614354
0.745786
0.764369
0.883987
1.01397
1.19896
1.33261
1.47967
1.86789
2.06225
1.42224
1.32348
1.54023
1.59426
1.82933
1.84788
1.64088
1.50152
1.58091
1.87488
2.23105
2.09233
1.95443
1.95097
2.00236
1.97555
2.26371
2.37771
2.29737
2.23411
2.40831
2.25188
2.21813
2.40792
2.25981
2.0654
2.02301
2.02151
2.06341
2.20433
2.41277
2.51427
2.556
2.32044
2.08652
2.0863
2.24019
2.416
2.86127
2.69788
2.2775
2.68771
3.0176
3.01703
2.77674
2.50753
2.4098
2.27773
6.59922
1.78209
0.944327
0.69914
0.6228
0.380939
0.30863
0.299009
0.250249
0.222901
0.213304
0.18127
0.161151
0.156293
0.155419
0.155819
0.157229
0.162785
0.169558
0.174781
0.176898
0.178155
0.179699
0.183733
0.193129
0.197542
0.198081
0.190224
0.181235
0.17623
0.174365
0.173757
0.174421
0.177197
0.178061
0.176981
0.176689
0.184973
0.202976
0.227479
0.264
0.312944
0.366839
0.400346
0.408291
0.39656
0.411504
0.507549
0.721239
1.03542
1.27955
1.36884
1.37381
1.2812
1.05519
0.817168
0.618089
0.486168
0.363459
0.294518
0.261591
0.249049
0.243226
0.255813
0.293901
0.335005
0.355523
0.366946
0.370822
0.36776
0.35369
0.337524
0.324935
0.31088
0.301592
0.285303
0.272214
0.245102
0.226542
0.211453
0.203374
0.194521
0.176223
0.165859
0.163351
0.157623
0.152783
0.147662
0.142276
0.138779
0.13731
0.134521
0.121914
0.11798
0.115554
0.115171
0.127358
0.137546
0.148255
0.153398
0.162007
0.171832
0.176732
0.181177
0.185056
0.189723
0.198433
0.211214
0.226455
0.234114
0.236668
0.25675
0.291167
0.304392
0.317107
0.337022
0.380905
0.429116
0.461648
0.476278
0.467559
0.499785
0.543989
0.707023
0.744705
0.872538
1.01294
1.18595
1.35595
1.50335
1.84535
1.83774
1.23825
1.19798
1.41161
1.48538
1.63054
1.51855
1.56709
1.46598
1.63147
1.97055
2.23978
1.92921
1.81159
1.84601
1.88616
1.77947
2.16694
2.42298
2.34275
2.33382
2.35496
2.2104
2.19918
2.49119
2.37023
2.19735
2.295
2.11693
2.10451
2.05778
2.15161
2.34343
2.40462
2.24486
1.99445
1.95113
2.16851
2.36764
2.85636
2.66797
2.16876
2.43985
2.89666
2.94941
2.76894
2.43637
2.3009
2.15119
7.44117
2.61204
1.37946
0.868821
0.713323
0.555783
0.478648
0.499356
0.389789
0.293974
0.274276
0.244951
0.193929
0.176581
0.174249
0.176762
0.181116
0.18734
0.194156
0.198708
0.201207
0.202112
0.202059
0.202236
0.208027
0.218201
0.223431
0.225023
0.221238
0.215088
0.213217
0.213431
0.215373
0.218509
0.225425
0.233015
0.237444
0.242474
0.255688
0.273128
0.29444
0.322074
0.334832
0.331207
0.316556
0.3174
0.359813
0.4901
0.731622
1.04137
1.17414
1.18764
1.1365
0.939127
0.676712
0.509034
0.394784
0.320432
0.281316
0.264086
0.258379
0.257401
0.278837
0.325897
0.358827
0.380124
0.392721
0.396956
0.397586
0.388264
0.364471
0.339757
0.322014
0.291701
0.271016
0.259781
0.256498
0.243367
0.22076
0.20374
0.195365
0.187356
0.170867
0.152891
0.151727
0.145774
0.145883
0.14465
0.138206
0.137669
0.136712
0.138666
0.126767
0.110107
0.107598
0.105631
0.111137
0.13058
0.138704
0.15162
0.156503
0.169553
0.176089
0.177238
0.181896
0.188177
0.196945
0.206242
0.211357
0.23047
0.238687
0.246352
0.27643
0.304462
0.317624
0.331129
0.350183
0.374966
0.401065
0.428714
0.422843
0.464759
0.493586
0.63812
0.715063
0.845834
1.02299
1.17743
1.39412
1.53363
1.78568
1.5047
1.15084
1.11063
1.21325
1.29577
1.3869
1.25697
1.37709
1.56708
1.72793
1.94082
2.02826
1.72511
1.61185
1.69746
1.7093
1.62812
2.06946
2.58034
2.59808
2.83784
2.37005
2.2279
2.18918
2.40535
2.38846
2.22931
2.42003
2.25593
2.10709
2.06887
1.98334
2.05794
2.14984
2.08719
1.95944
1.88564
2.15697
2.35885
2.82495
2.58189
2.11854
2.3167
2.80975
2.88322
2.73089
2.33659
2.19171
2.06033
9.32224
3.30952
1.53674
0.890957
0.656099
0.575186
0.504561
0.54405
0.457793
0.312912
0.28974
0.282512
0.260287
0.224618
0.214522
0.21396
0.2182
0.22634
0.237231
0.247471
0.25588
0.26101
0.263659
0.263353
0.259222
0.253632
0.25347
0.251578
0.249193
0.245007
0.237259
0.233821
0.229846
0.228015
0.231215
0.240862
0.249782
0.253214
0.262161
0.280431
0.289045
0.290358
0.273541
0.253302
0.251667
0.265156
0.317186
0.444637
0.676312
0.96733
1.07249
1.08708
1.0295
0.819847
0.522795
0.384723
0.322829
0.290902
0.27512
0.267361
0.265979
0.279869
0.324007
0.367583
0.389819
0.401299
0.405722
0.405447
0.395606
0.386994
0.367353
0.339517
0.320631
0.290754
0.259707
0.240758
0.238599
0.235647
0.216211
0.198046
0.189859
0.182173
0.169012
0.148095
0.143577
0.142801
0.140783
0.145863
0.139553
0.137758
0.136
0.135978
0.124817
0.10352
0.100245
0.10158
0.106225
0.127868
0.136807
0.151026
0.157042
0.164465
0.180831
0.176753
0.180631
0.190018
0.193056
0.205757
0.211596
0.218774
0.231084
0.235248
0.254822
0.273076
0.297401
0.32055
0.321776
0.332102
0.359213
0.382127
0.383148
0.436101
0.47504
0.577713
0.69009
0.805332
1.03643
1.17429
1.41166
1.53453
1.57704
1.29603
1.12797
1.09477
1.11116
1.17053
1.24765
1.20492
1.26882
1.6268
1.71634
1.75796
1.72896
1.54545
1.51668
1.70676
1.56678
1.5133
2.01635
2.72948
2.87989
2.95418
2.41701
2.2484
2.15045
2.20888
2.28574
2.20882
2.40275
2.30953
2.08281
2.1166
1.98428
1.93273
1.94618
1.97682
1.94063
1.80857
2.16486
2.36901
2.72427
2.46742
2.09872
2.27689
2.75563
2.81846
2.63941
2.23468
2.11623
1.97464
11.464
3.02855
1.0557
0.601336
0.473868
0.448298
0.42659
0.422786
0.34625
0.285204
0.27694
0.282836
0.282781
0.276556
0.266853
0.263081
0.260714
0.273406
0.296986
0.32628
0.355753
0.383437
0.405838
0.414636
0.411854
0.379818
0.339493
0.310793
0.286728
0.27218
0.263631
0.257119
0.251903
0.239306
0.232201
0.232609
0.24312
0.25261
0.256902
0.261178
0.259815
0.247853
0.221555
0.212772
0.214298
0.231034
0.282132
0.387888
0.566181
0.812659
1.00499
1.03829
1.01249
0.842038
0.543271
0.381839
0.323534
0.298187
0.289949
0.290567
0.296726
0.317656
0.350618
0.385962
0.403434
0.408385
0.408579
0.403586
0.391774
0.368913
0.351228
0.327056
0.308139
0.286238
0.257101
0.228729
0.215314
0.218055
0.210306
0.191789
0.174758
0.163504
0.157288
0.143009
0.133592
0.134977
0.134621
0.1354
0.131988
0.130088
0.124929
0.114075
0.104463
0.0949154
0.0973023
0.0997324
0.105943
0.127422
0.145121
0.150625
0.165458
0.165115
0.178437
0.175743
0.179252
0.193559
0.191996
0.199643
0.211312
0.215276
0.223234
0.228256
0.241964
0.252437
0.272691
0.294925
0.29773
0.30637
0.341449
0.362053
0.361475
0.405861
0.465508
0.532614
0.67333
0.774221
1.0386
1.17701
1.41215
1.46943
1.36634
1.19669
1.12754
1.0905
1.09395
1.08179