/*--------------------------------*- C++ -*----------------------------------*\
| =========                 |                                                 |
| \\      /  F ield         | OpenFOAM: The Open Source CFD Toolbox           |
|  \\    /   O peration     | Version:  dev                                   |
|   \\  /    A nd           | Web:      http://www.openfoam.org               |
|    \\/     M anipulation  |                                                 |
\*---------------------------------------------------------------------------*/
FoamFile
{
    version     2.0;
    format      ascii;
    class       volScalarField;
    object      k_0;
    location    "9.146";
}
// * * * * * * * * * * * * * * * * * * * * * * * * * * * * * * * * * * * * * //

dimensions      [0 2 -2 0 0 0 0];

internalField   nonuniform List<scalar> 
12225
(
8.74472
11.4615
8.24808
9.65114
6.44376
11.4518
7.82065
14.4071
10.7151
17.8989
14.597
21.146
20.6109
22.8813
31.4137
29.0848
48.7031
43.6959
1.75355
5.68015
4.91755
5.99126
4.31233
5.5561
4.16296
5.26814
4.42578
5.18413
4.80106
4.92572
5.40554
5.18835
6.58345
6.1394
6.25398
8.17627
0.159879
1.64047
1.91123
3.20036
2.88642
3.20721
3.15242
2.8991
2.86483
2.67306
2.70418
2.36402
2.48591
2.16665
2.4379
2.17116
2.06938
1.3866
0.0128694
0.227643
0.425373
0.789351
1.21119
1.20973
1.58739
1.40583
1.55812
1.35179
1.44593
1.19607
1.25697
1.05958
1.13089
1.00824
1.08846
0.836979
0.00296602
0.0943674
0.133903
0.258678
0.510628
0.560371
0.742729
0.698647
0.773059
0.681037
0.749657
0.629559
0.682246
0.576654
0.616722
0.531437
0.671128
0.658784
0.00841183
0.0821926
0.103014
0.171124
0.264528
0.242116
0.321679
0.295021
0.343401
0.301304
0.35966
0.306406
0.35362
0.30925
0.341597
0.303643
0.360325
0.5566
0.00287825
0.0143203
0.0456123
0.0490439
0.0840763
0.0730749
0.124141
0.115477
0.144752
0.127652
0.163952
0.142876
0.171514
0.156599
0.180279
0.174778
0.207483
0.288888
0.000638798
0.0025271
0.0152415
0.0146691
0.0274474
0.0257011
0.049172
0.0471567
0.0640212
0.0607682
0.0778481
0.0718063
0.0864414
0.0893085
0.100174
0.115621
0.127159
0.143004
0.00036346
0.00408175
0.00869281
0.00809054
0.0132006
0.0132843
0.0239848
0.0249423
0.0342033
0.035176
0.0413377
0.0448524
0.0574676
0.0659802
0.0783038
0.0974817
0.102099
0.114969
0.000534014
0.00571054
0.00664674
0.00642244
0.00795205
0.00819745
0.0123197
0.0138914
0.0180754
0.0209626
0.029766
0.0400266
0.0492045
0.0604339
0.0730624
0.0905111
0.0960797
0.112458
0.00255183
0.00408571
0.00508908
0.00491014
0.00583683
0.00589935
0.00729756
0.00916634
0.0132234
0.0196989
0.0269203
0.039506
0.0481127
0.0607768
0.0723347
0.0869934
0.0964695
0.106426
0.008045
0.00644492
0.00576431
0.00506947
0.00528104
0.00552064
0.00612955
0.00873868
0.012408
0.0211243
0.0275349
0.0414298
0.0526273
0.0675669
0.0790389
0.0933855
0.105946
0.118775
0.0143242
0.0118182
0.0076676
0.00627745
0.00601567
0.00622406
0.00695856
0.0107328
0.0153716
0.026954
0.0353633
0.0534684
0.0703341
0.090446
0.107048
0.12448
0.140934
0.157558
0.0258944
0.0198666
0.012681
0.00994025
0.00920039
0.00947586
0.0110332
0.0180528
0.0272715
0.0442435
0.0636318
0.0910691
0.120884
0.150987
0.178798
0.205438
0.226604
0.244608
0.0406252
0.0295801
0.0188214
0.0153676
0.0150645
0.0163614
0.0219106
0.0390042
0.0648648
0.0956532
0.131943
0.172548
0.213992
0.251493
0.282727
0.307762
0.324794
0.338048
0.0724367
0.0525818
0.0356718
0.0311584
0.0311831
0.0342841
0.0453462
0.0742535
0.110227
0.149723
0.190927
0.232359
0.271229
0.305261
0.333347
0.354844
0.368988
0.379171
0.0943365
0.0683771
0.0481611
0.0427756
0.0425271
0.0451533
0.0554812
0.0850481
0.124441
0.1671
0.210524
0.252782
0.291283
0.324479
0.35121
0.370869
0.383694
0.39234
0.095224
0.0683616
0.0490625
0.0444021
0.0445072
0.0474057
0.057171
0.0846393
0.123168
0.165696
0.209397
0.251781
0.290284
0.323182
0.349403
0.368506
0.380988
0.389432
0.0767129
0.0573065
0.0429585
0.0395766
0.0396814
0.0421931
0.0504597
0.0731487
0.108498
0.147968
0.188942
0.22857
0.265053
0.297214
0.322802
0.341522
0.353881
0.363488
0.0498694
0.0377216
0.0284852
0.0263923
0.0263857
0.0280666
0.0338612
0.0499773
0.0758267
0.105241
0.13677
0.168145
0.199611
0.230284
0.255011
0.273971
0.286165
0.298424
0.0302345
0.0229775
0.0175891
0.0164003
0.0165426
0.0181054
0.0240333
0.0323672
0.0426418
0.0557327
0.0719004
0.0918927
0.114566
0.138715
0.157136
0.171958
0.178217
0.188186
0.0161685
0.0122429
0.00957502
0.00935248
0.0105406
0.0145676
0.0176581
0.0197166
0.0225086
0.0278797
0.0369992
0.0508174
0.0645938
0.0788778
0.089337
0.0995205
0.104434
0.111167
0.0088064
0.00685338
0.00571235
0.00582268
0.00663933
0.00869125
0.00988005
0.0119314
0.0137795
0.0175429
0.0229466
0.0324127
0.04042
0.0495254
0.0564072
0.0642188
0.0699477
0.0769722
0.00418522
0.00337127
0.00316671
0.00369008
0.00483129
0.00716806
0.00860094
0.0113362
0.013333
0.0173266
0.0223765
0.0312952
0.0384409
0.0466096
0.0529469
0.0604288
0.0664047
0.0736028
0.00175999
0.00185136
0.00237332
0.00396663
0.00679664
0.0127185
0.0177834
0.025303
0.029751
0.03792
0.0476942
0.0607086
0.0708331
0.0813805
0.0893743
0.0979648
0.10426
0.111433
0.000421628
0.00253394
0.0081852
0.0215125
0.0427913
0.0691996
0.0945963
0.120187
0.136569
0.157257
0.181829
0.206942
0.226393
0.243474
0.254811
0.264634
0.269293
0.273995
0.00162008
0.0229713
0.0873934
0.198054
0.313331
0.412359
0.491425
0.548821
0.583816
0.617729
0.655009
0.685045
0.70974
0.724255
0.729104
0.729865
0.724299
0.717455
0.0249385
0.293618
0.851882
1.27447
1.61997
1.80669
1.90219
1.93191
1.93784
1.93215
1.91811
1.88258
1.83133
1.77526
1.71435
1.65925
1.59472
1.55699
0.600284
3.07861
4.27656
4.43837
4.36812
4.13334
3.88395
3.63596
3.4121
3.21005
3.03452
2.88975
2.75453
2.61524
2.48187
2.35647
2.24605
2.15543
7.17454
10.6732
10.0489
8.15781
6.87175
6.19353
5.89319
5.78569
5.7677
5.76273
5.73683
5.68351
5.59435
5.48257
5.3499
5.19677
5.02672
4.79813
0.053456
0.0771364
0.0954723
0.110641
0.132716
0.160249
0.193099
0.227632
0.257534
0.28657
0.312636
0.343953
0.376595
0.406089
0.448176
0.503851
0.567521
0.630395
0.700812
0.803205
0.959828
1.13629
1.30862
1.49027
1.68571
1.88343
2.11344
2.3771
2.62032
2.85205
3.0968
3.34894
3.50472
3.49403
3.3033
2.90752
2.62836
2.43238
2.30498
2.27668
2.30056
2.38976
2.49041
2.54073
2.57527
2.61004
2.64139
2.67693
2.72821
2.77289
2.82132
2.88725
3.04705
3.35725
3.82673
4.50515
5.02272
5.22748
5.32919
5.2692
5.11186
5.09024
5.03531
4.82375
4.72195
4.6267
4.58088
4.59305
4.94801
5.32119
5.48431
5.80087
7.15191
8.811
9.67015
10.2743
10.707
10.9038
10.9501
10.8866
10.564
10.1753
9.64847
9.09711
8.45002
7.83392
7.13793
6.49579
5.89912
5.35039
4.84383
4.35966
3.93767
3.64717
3.33795
3.02908
2.82623
2.63215
2.44487
2.35654
2.28664
2.2399
2.22744
2.24394
2.28326
2.32693
2.37023
2.39259
2.41829
2.46352
2.52486
2.6644
2.84143
2.83204
2.66836
2.63117
2.6131
2.44365
2.34914
2.44555
2.76238
3.00765
3.11254
3.08272
2.86581
2.77773
2.83921
3.28703
3.97245
4.45229
4.88854
5.59013
6.64882
8.38401
11.1147
14.1793
15.4125
14.3674
12.4633
11.896
12.5303
14.9267
15.6843
15.0359
15.6116
14.9825
14.6753
15.5204
16.0798
15.6112
14.9945
14.0953
13.7304
12.0026
11.2249
10.7408
10.1392
9.3811
8.85905
8.15632
7.1347
6.25195
5.37397
4.65481
4.24352
4.12609
4.31582
4.38356
4.81214
5.5398
5.71023
5.90576
6.36306
7.42375
8.6558
9.78719
12.2865
16.1535
19.3925
23.251
0.182171
0.106949
0.0970323
0.105236
0.128518
0.174085
0.230203
0.268448
0.273801
0.266772
0.254065
0.232968
0.216147
0.207639
0.20598
0.209477
0.218251
0.223134
0.223266
0.22198
0.216206
0.208139
0.20686
0.20827
0.215494
0.222405
0.238485
0.26101
0.308187
0.362293
0.458222
0.643543
0.858343
1.22304
1.59612
1.81089
1.89056
1.86427
1.74437
1.48709
1.25259
1.10665
0.931977
0.784833
0.683072
0.573213
0.473948
0.424197
0.410383
0.411635
0.443893
0.493917
0.529879
0.556813
0.597277
0.704319
0.974651
1.5144
2.19839
2.69533
2.98005
2.99571
2.51149
1.74131
1.52669
1.5652
1.94955
2.56421
3.67603
4.70729
4.85478
4.86284
4.92743
4.69901
4.20715
3.71213
3.34768
2.94193
2.64862
2.35828
2.13353
1.9117
1.75967
1.59171
1.46698
1.35771
1.24358
1.17428
1.10544
1.05644
1.00248
0.960483
0.938216
0.925044
0.892728
0.876724
0.868551
0.851038
0.844476
0.881765
0.897353
0.904838
0.934815
0.981991
1.05431
1.11984
1.18502
1.21217
1.21824
1.23058
1.25867
1.31652
1.51993
1.66991
1.64633
1.63844
1.6915
1.66567
1.57907
1.5987
1.81744
2.01511
2.10369
2.11434
1.8808
1.7578
1.77676
2.0476
2.59926
3.08012
3.42507
3.90143
4.73187
6.26716
7.98908
8.62569
7.53175
5.52978
4.93307
5.29795
7.32487
9.29501
8.54791
7.84845
7.63835
6.9202
7.63548
9.25739
9.70664
9.05217
8.52463
8.2039
7.67512
6.68486
6.80113
6.87617
6.705
6.46936
6.44492
6.1981
5.66326
5.19583
4.66596
4.13955
3.8732
3.83404
4.06467
4.18302
4.55272
4.90604
4.92439
4.80196
4.86684
5.18792
5.65575
5.69731
6.00565
7.19876
8.83118
11.0495
0.429026
0.189949
0.123761
0.124378
0.173608
0.283415
0.323218
0.305005
0.275347
0.226623
0.186426
0.165751
0.162828
0.169774
0.17577
0.17636
0.175416
0.176445
0.176396
0.171958
0.158534
0.146705
0.143696
0.140722
0.134276
0.128336
0.121048
0.115955
0.115856
0.117361
0.122187
0.133419
0.159031
0.216321
0.307059
0.497563
0.694784
0.88464
1.05699
1.13424
1.14076
1.04344
0.841835
0.673738
0.571812
0.429938
0.325194
0.290452
0.285061
0.305531
0.365892
0.445268
0.468751
0.469694
0.456918
0.445303
0.445252
0.486036
0.618775
0.857408
1.26171
1.42718
1.32528
1.13534
1.26081
2.33439
3.7765
3.87587
3.41568
3.36462
2.86421
2.55145
1.99137
1.48636
1.23664
0.966695
0.834333
0.682921
0.610375
0.535031
0.497684
0.460521
0.441263
0.418965
0.407513
0.396858
0.390807
0.388294
0.387102
0.389167
0.391064
0.39888
0.407923
0.410473
0.410018
0.415655
0.423937
0.42409
0.431813
0.460916
0.471421
0.474967
0.482256
0.498337
0.5377
0.579411
0.641784
0.677979
0.688653
0.697838
0.711473
0.73157
0.828297
0.95885
1.00509
1.02236
1.0521
1.11515
1.16044
1.18481
1.38796
1.49742
1.59153
1.56112
1.34907
1.2803
1.35256
1.51336
1.77219
2.12714
2.59819
3.16272
3.76307
4.88228
5.41799
5.32906
4.07807
3.0328
2.91485
3.23491
4.44733
5.35275
4.61057
4.14943
3.97869
3.47361
3.75332
4.72423
5.24987
5.00295
4.7948
4.85545
4.67118
4.25583
4.36768
4.52285
4.40228
4.2952
4.48726
4.55183
4.39964
4.28711
4.13798
3.90147
3.68501
3.65252
3.75758
4.00101
4.4481
4.73267
4.85805
4.72185
4.4905
4.42587
4.14629
3.624
3.56784
3.91732
4.52371
5.44051
0.770932
0.267178
0.170697
0.201042
0.332952
0.388046
0.35249
0.284894
0.199913
0.160032
0.149585
0.150206
0.156523
0.169424
0.176785
0.17251
0.162703
0.153498
0.14462
0.12928
0.121627
0.119349
0.116586
0.111914
0.106479
0.103616
0.100454
0.099113
0.0998222
0.099742
0.0995393
0.0999428
0.101014
0.105029
0.116933
0.149868
0.223967
0.324876
0.465786
0.594195
0.703631
0.734819
0.695818
0.670401
0.626942
0.513453
0.391071
0.33337
0.319358
0.330865
0.386967
0.481565
0.511258
0.507012
0.477505
0.454593
0.430234
0.399971
0.400643
0.448387
0.596069
0.775367
0.860307
1.2861
2.69161
3.95908
3.60027
2.49049
1.97964
1.48307
1.11108
0.919979
0.655718
0.529569
0.427804
0.373927
0.333936
0.30551
0.291694
0.283509
0.279424
0.277365
0.278437
0.2783
0.280822
0.282882
0.28675
0.291096
0.29365
0.294312
0.295934
0.304546
0.318048
0.320455
0.31907
0.327302
0.331129
0.326857
0.328178
0.343581
0.359187
0.364577
0.365649
0.364421
0.378753
0.397709
0.433374
0.477121
0.498104
0.515359
0.533587
0.563608
0.62816
0.723369
0.768704
0.787477
0.828579
0.917848
0.999123
0.969626
1.00276
1.28519
1.34972
1.3399
1.18861
1.17447
1.25462
1.34553
1.51082
1.80042
2.31195
2.89267
3.26296
3.66524
4.05211
4.05998
3.29046
2.6429
2.6655
2.96365
3.46543
3.65894
3.3243
2.95182
2.78796
2.5508
2.60335
3.07498
3.54988
3.59065
3.57186
3.68546
3.53144
3.33944
3.49668
3.63263
3.56336
3.43134
3.67027
3.89693
3.87434
3.83892
3.85198
3.74429
3.59282
3.50143
3.60339
3.77619
4.18497
4.55754
4.70078
4.57848
4.47078
4.36663
3.83603
3.07458
2.92663
3.07653
3.25749
3.53408
1.25334
0.412341
0.273197
0.38072
0.452458
0.402579
0.2985
0.200398
0.159781
0.149194
0.149166
0.158984
0.174679
0.175429
0.171096
0.153266
0.129883
0.115513
0.109799
0.105253
0.101783
0.0999235
0.0980196
0.0978688
0.0984084
0.0987286
0.0998787
0.102412
0.103388
0.101792
0.101332
0.10113
0.0992968
0.0988033
0.0992309
0.102895
0.115942
0.143626
0.208094
0.274458
0.376892
0.43377
0.458559
0.486253
0.483252
0.458007
0.408377
0.343103
0.330351
0.366
0.472191
0.559648
0.557958
0.516509
0.481393
0.465532
0.455221
0.436201
0.414201
0.424629
0.500258
0.688148
1.15208
2.66226
3.71792
3.30879
2.0064
1.20174
0.922886
0.669108
0.477145
0.391422
0.314298
0.281219
0.256063
0.244279
0.233376
0.227443
0.224789
0.22392
0.225521
0.231134
0.237186
0.243972
0.252086
0.257314
0.263675
0.269794
0.273124
0.273645
0.274329
0.280187
0.291328
0.29382
0.295044
0.301033
0.297276
0.291274
0.290716
0.297241
0.310734
0.325215
0.326054
0.318363
0.318152
0.323655
0.335904
0.362859
0.375918
0.404512
0.454039
0.485184
0.546078
0.653442
0.678429
0.662789
0.697822
0.811157
0.887436
0.866648
0.807941
0.984263
1.16708
1.17653
1.09944
1.12926
1.22384
1.27896
1.392
1.66671
2.29347
2.83772
2.79935
2.85141
3.11556
3.17204
2.9138
2.6833
2.37579
2.62146
2.90886
2.957
2.79646
2.42255
2.32685
2.31984
2.25691
2.48142
2.81904
3.17703
3.17634
3.22808
3.08412
2.97186
3.13948
3.22981
3.08931
2.98752
3.08894
3.34339
3.53348
3.56562
3.69869
3.69216
3.59825
3.50008
3.60943
3.4632
3.35969
4.34029
4.4235
4.17146
4.26933
4.31734
3.84866
3.00156
2.72975
2.71117
2.7828
2.86292
1.8406
0.609895
0.479028
0.530142
0.463419
0.328455
0.24091
0.183456
0.155733
0.155676
0.165167
0.178297
0.179191
0.16872
0.148604
0.127924
0.11353
0.107451
0.104722
0.101109
0.0980693
0.0981885
0.0994671
0.102643
0.107756
0.112185
0.117842
0.119
0.11788
0.118447
0.116593
0.111138
0.106619
0.101668
0.097685
0.0988365
0.101598
0.107687
0.12761
0.148225
0.201162
0.244275
0.27825
0.289138
0.29637
0.293599
0.287897
0.294002
0.328632
0.449151
0.604644
0.614183
0.562475
0.508473
0.495019
0.496395
0.496561
0.483252
0.45691
0.4575
0.581094
1.08991
2.67016
3.29255
3.12204
1.73973
0.918901
0.610042
0.467849
0.350452
0.270139
0.236869
0.215048
0.205113
0.196995
0.19302
0.19061
0.189628
0.19023
0.193939
0.199299
0.205616
0.211987
0.219843
0.228877
0.23887
0.250824
0.260007
0.264961
0.267241
0.269357
0.274204
0.279286
0.28168
0.285279
0.282392
0.27518
0.275931
0.275696
0.279325
0.283828
0.298118
0.311389
0.302303
0.28803
0.285146
0.287561
0.30307
0.312588
0.327311
0.383466
0.41042
0.452346
0.568086
0.620725
0.641656
0.653238
0.766571
0.791214
0.791435
0.787731
0.839525
1.03682
1.01942
0.979278
1.08715
1.19777
1.21484
1.33373
1.67793
2.4163
2.76064
2.49954
2.4846
2.6564
2.75308
2.81401
2.59117
2.08803
2.34267
2.49417
2.56283
2.49476
2.20803
2.14686
2.17542
2.13516
2.32745
2.68932
2.98168
2.96716
2.9309
2.99577
2.81712
2.81216
2.97081
2.90711
2.58761
2.67272
2.86108
3.05818
3.12746
3.28766
3.57671
3.57393
3.51543
3.70577
3.41143
3.07943
3.59452
3.81084
3.63286
3.69669
4.04682
3.81592
3.0374
2.71589
2.56019
2.59504
2.63301
2.51698
0.812563
0.633072
0.55062
0.390452
0.298745
0.24153
0.191649
0.171547
0.176058
0.185086
0.189084
0.179111
0.158046
0.13678
0.122219
0.111967
0.107221
0.104801
0.102572
0.102542
0.106163
0.115742
0.12725
0.137669
0.142391
0.143035
0.141321
0.139444
0.136494
0.12763
0.119148
0.109047
0.0989699
0.0973452
0.0987266
0.100877
0.11548
0.128718
0.140535
0.169137
0.191957
0.214434
0.223828
0.235967
0.242766
0.259192
0.30958
0.454762
0.620007
0.635037
0.612556
0.572185
0.567931
0.603838
0.631954
0.622688
0.611562
0.639611
0.820418
1.51065
2.52377
2.82891
2.78871
1.62715
0.807147
0.497146
0.360019
0.279841
0.232153
0.202035
0.188818
0.182279
0.179296
0.177797
0.17744
0.17797
0.180719
0.185291
0.192112
0.198887
0.20565
0.211832
0.2183
0.221494
0.224641
0.228225
0.235508
0.248491
0.256748
0.263331
0.265964
0.268388
0.274282
0.279254
0.264674
0.261382
0.265187
0.270044
0.273227
0.273379
0.274905
0.290725
0.291452
0.278124
0.267082
0.266245
0.272867
0.286585
0.295094
0.335629
0.369083
0.389678
0.437824
0.534624
0.570147
0.597307
0.668384
0.674343
0.693073
0.754815
0.811619
0.930956
0.894904
0.877056
1.04796
1.18822
1.19952
1.3478
1.90433
2.4273
2.52656
2.45953
2.3439
2.4222
2.54362
2.54344
2.28748
1.96913
2.12241
2.45543
2.33486
2.3654
2.17603
2.01436
1.98282
2.0964
2.28509
2.63885
2.73529
2.71837
2.828
2.8119
2.6605
2.46404
2.68148
2.81302
2.45681
2.4068
2.44522
2.5603
2.69921
2.83774
3.198
3.39426
3.4056
3.69128
3.45468
3.13314
3.32069
3.36946
3.20313
3.23885
3.67452
3.70467
3.15076
2.73349
2.50836
2.49518
2.56385
3.29109
1.01936
0.671768
0.519974
0.380441
0.324798
0.272861
0.216021
0.198291
0.203314
0.203959
0.194771
0.17447
0.143565
0.127097
0.119381
0.114148
0.111182
0.109375
0.109572
0.114496
0.124886
0.135292
0.142991
0.148489
0.151824
0.153315
0.153331
0.151161
0.150756
0.150221
0.143878
0.131947
0.113597
0.102916
0.101188
0.107481
0.12208
0.135037
0.156385
0.192289
0.218813
0.221863
0.232239
0.244378
0.259831
0.309887
0.440143
0.620606
0.64996
0.639857
0.650391
0.725278
0.833093
1.02659
1.16231
1.21435
1.41807
1.66446
1.9921
2.29959
2.4253
2.36581
1.40354
0.701851
0.420782
0.300477
0.240579
0.208526
0.191826
0.184132
0.181866
0.181141
0.180561
0.181466
0.183808
0.187239
0.192539
0.199603
0.20996
0.221523
0.230977
0.235524
0.237233
0.233519
0.230631
0.228673
0.221977
0.220005
0.22058
0.234444
0.239532
0.242818
0.258623
0.265567
0.256387
0.253582
0.253813
0.259323
0.262542
0.266179
0.262678
0.26211
0.264263
0.260052
0.255503
0.253299
0.255486
0.272056
0.284276
0.298252
0.327672
0.339925
0.363975
0.422277
0.470871
0.506829
0.593581
0.622458
0.617799
0.669354
0.779065
0.871203
0.820104
0.816546
1.01943
1.17103
1.20552
1.41179
1.96161
2.26039
2.25964
2.45173
2.24316
2.25385
2.24762
2.1718
2.22125
1.86436
1.84816
2.39119
2.38186
2.25693
2.0934
1.96151
1.91968
2.10217
2.30021
2.47066
2.56993
2.67195
2.70745
2.62975
2.44117
2.40353
2.47685
2.55708
2.4124
2.27177
2.27436
2.27403
2.43437
2.58796
2.86199
3.04129
3.01542
3.40908
3.40712
3.096
3.06091
3.11804
2.95418
2.97416
3.43382
3.54748
3.18169
2.75588
2.50837
2.47427
2.57415
4.08835
1.15076
0.68344
0.536133
0.426633
0.360177
0.271155
0.214826
0.20441
0.208271
0.201991
0.179025
0.144333
0.124488
0.118853
0.117422
0.117806
0.118551
0.118443
0.119148
0.12431
0.132839
0.139994
0.145746
0.150616
0.154146
0.155469
0.156547
0.157689
0.160555
0.16347
0.165425
0.164611
0.156587
0.12907
0.113595
0.110065
0.113841
0.122984
0.143686
0.167611
0.18144
0.197823
0.207914
0.222987
0.286084
0.448803
0.610442
0.640549
0.645985
0.699261
0.870019
1.15538
1.4502
1.7541
1.85205
1.87711
1.8967
1.93703
2.02729
2.10296
1.88098
1.08528
0.56721
0.34235
0.249811
0.209575
0.192461
0.186182
0.184355
0.185102
0.187287
0.19299
0.202693
0.216133
0.236786
0.246409
0.253147
0.259478
0.265657
0.269542
0.274569
0.276134
0.276992
0.271572
0.256394
0.242023
0.22429
0.216796
0.19759
0.181704
0.176299
0.174866
0.19931
0.216472
0.241583
0.242117
0.237076
0.241213
0.240824
0.24798
0.248074
0.246719
0.245069
0.240177
0.239722
0.241941
0.253278
0.264159
0.267403
0.275463
0.291634
0.307665
0.328274
0.361142
0.403541
0.450067
0.535228
0.575817
0.588917
0.654144
0.754419
0.840077
0.801628
0.795518
0.996479
1.12372
1.21719
1.41846
1.89855
1.93726
2.14584
2.26339
1.98768
2.02453
1.90436
2.01781
2.19279
1.72901
1.60146
2.04938
2.36984
2.06034
1.96505
1.93754
1.92716
2.05999
2.31818
2.46136
2.5405
2.5162
2.44793
2.5246
2.33237
2.35276
2.35548
2.38945
2.27774
2.12482
2.16911
2.19615
2.36218
2.49175
2.68348
2.81293
2.67233
2.82057
3.07314
2.89531
2.82437
2.97339
2.81567
2.85484
3.299
3.43409
3.17858
2.77627
2.50927
2.49817
2.60231
4.86403
1.26869
0.736318
0.588362
0.482006
0.352442
0.23011
0.202092
0.20217
0.197448
0.175519
0.144036
0.128408
0.121544
0.11879
0.119354
0.122939
0.126856
0.128548
0.130029
0.133444
0.138789
0.145019
0.149882
0.153395
0.154443
0.15443
0.154305
0.155396
0.15854
0.162494
0.16717
0.169511
0.169777
0.163268
0.143934
0.121199
0.116279
0.116755
0.123125
0.136748
0.148451
0.157453
0.186558
0.264014
0.43153
0.577631
0.61687
0.628627
0.671873
0.876467
1.29463
1.62196
1.77308
1.84325
1.8448
1.83759
1.81828
1.78925
1.7085
1.32118
0.808369
0.450083
0.288696
0.224407
0.201212
0.192934
0.189613
0.188335
0.192176
0.200262
0.214189
0.237905
0.272999
0.293365
0.299907
0.300864
0.294001
0.285173
0.280642
0.27765
0.27812
0.279277
0.280146
0.27787
0.262611
0.244284
0.2244
0.212271
0.192413
0.164747
0.147872
0.140578
0.148128
0.164221
0.195713
0.20784
0.209131
0.205634
0.213493
0.217856
0.219218
0.217004
0.222547
0.222468
0.226345
0.2338
0.240425
0.252506
0.255696
0.261556
0.270206
0.290266
0.310854
0.345336
0.366545
0.405786
0.507428
0.547997
0.555172
0.630819
0.691909
0.76454
0.784978
0.784926
0.954363
1.06692
1.22016
1.38196
1.64103
1.8578
2.15269
1.92666
1.61918
1.68613
1.74071
2.00886
2.13338
1.70515
1.59409
1.84228
2.10431
2.01603
1.96482
1.91577
1.90487
1.9551
2.14747
2.39392
2.47741
2.46887
2.43029
2.46757
2.39344
2.35157
2.31171
2.35103
2.16258
2.05028
2.08327
2.16554
2.37584
2.48264
2.61069
2.673
2.43358
2.44437
2.59212
2.64682
2.69155
2.9504
2.76541
2.68276
3.2095
3.32451
3.16513
2.79204
2.52128
2.52163
2.58409
5.62371
1.42863
0.805746
0.594361
0.506938
0.313584
0.217461
0.199083
0.191894
0.17792
0.160412
0.137635
0.127636
0.124963
0.126013
0.129694
0.136065
0.144134
0.147304
0.148467
0.148618
0.150912
0.155819
0.159099
0.159392
0.158211
0.155595
0.154012
0.153879
0.155028
0.156342
0.159906
0.16491
0.166636
0.165662
0.155734
0.137965
0.130148
0.128888
0.131808
0.139138
0.15597
0.193283
0.27537
0.424915
0.536532
0.572675
0.585129
0.614009
0.767615
1.12894
1.55359
1.68847
1.72099
1.73301
1.67921
1.58734
1.44772
1.21178
0.915156
0.584473
0.374876
0.2656
0.224232
0.20925
0.20363
0.203198
0.211667
0.225523
0.252749
0.278731
0.299165
0.314758
0.32267
0.325384
0.319485
0.306365
0.293715
0.280091
0.271145
0.264846
0.262737
0.264446
0.267196
0.266858
0.254201
0.234754
0.216336
0.199328
0.184447
0.158885
0.138579
0.127319
0.126554
0.136382
0.159021
0.168686
0.186543
0.180617
0.184609
0.186639
0.196679
0.196022
0.19985
0.203628
0.207217
0.219141
0.232073
0.23878
0.243762
0.249468
0.261503
0.284936
0.302913
0.334967
0.36315
0.399393
0.465726
0.539848
0.533287
0.585189
0.620824
0.67069
0.760904
0.77595
0.916793
1.03303
1.21786
1.34964
1.5059
1.8786
2.13404
1.61486
1.41495
1.58777
1.64828
1.91886
2.06327
1.71361
1.61633
1.66914
1.89584
2.07021
2.06988
1.9488
1.92394
2.0034
2.04642
2.27393
2.43734
2.41304
2.36042
2.45322
2.38415
2.31205
2.36161
2.33538
2.12605
2.04384
2.07694
2.12511
2.3952
2.4995
2.58565
2.62649
2.35994
2.22707
2.28688
2.40404
2.54421
2.92194
2.73492
2.46813
3.03037
3.1888
3.1177
2.80088
2.53418
2.49509
2.43798
6.27896
1.55012
0.832962
0.609033
0.542654
0.303298
0.22641
0.210685
0.192471
0.177434
0.16559
0.144866
0.138583
0.138477
0.139834
0.142702
0.145596
0.1517
0.155368
0.158782
0.161757
0.165623
0.169771
0.173537
0.175513
0.175713
0.170752
0.162479
0.158382
0.156684
0.156321
0.157609
0.15955
0.160529
0.159604
0.153919
0.151055
0.151062
0.152722
0.159368
0.178553
0.223429
0.306333
0.41827
0.473834
0.489652
0.493947
0.521887
0.647478
0.919125
1.27643
1.52443
1.59252
1.58105
1.45128
1.22768
1.0097
0.839174
0.617627
0.43729
0.318264
0.260846
0.236348
0.228001
0.227274
0.249635
0.280264
0.3104
0.327508
0.336214
0.341172
0.336714
0.332838
0.327003
0.323409
0.313367
0.298776
0.275895
0.257355
0.237328
0.223922
0.215137
0.204951
0.204327
0.205728
0.199009
0.183822
0.172075
0.160595
0.156967
0.146553
0.134802
0.122885
0.122084
0.121151
0.132194
0.143917
0.154506
0.159913
0.165458
0.171007
0.183964
0.184702
0.183398
0.191193
0.198301
0.202967
0.214812
0.229972
0.240184
0.243956
0.261985
0.28825
0.303053
0.323554
0.351322
0.392429
0.438266
0.49856
0.517073
0.526466
0.555585
0.595059
0.742085
0.767427
0.88734
1.02262
1.20881
1.34795
1.49706
1.88342
2.06729
1.37493
1.29527
1.52854
1.60087
1.81495
1.74291
1.61474
1.5051
1.59938
1.9077
2.25493
2.09317
1.94296
1.94699
2.00234
1.95354
2.25728
2.41911
2.34847
2.29408
2.4511
2.27879
2.26576
2.505
2.36056
2.13817
2.11289
2.07158
2.12997
2.21977
2.44405
2.55378
2.57178
2.3308
2.08968
2.07328
2.267
2.45415
2.90511
2.70103
2.27993
2.69849
3.05719
3.05384
2.8024
2.51251
2.38904
2.25164
6.85727
1.7747
0.944834
0.699425
0.625938
0.380685
0.306057
0.295188
0.248824
0.221499
0.212169
0.181099
0.160866
0.155977
0.155089
0.155416
0.156685
0.161946
0.168509
0.173807
0.175972
0.177324
0.178955
0.182921
0.192202
0.196971
0.197663
0.189948
0.181008
0.175858
0.173871
0.173192
0.173769
0.176704
0.178116
0.177749
0.177462
0.185816
0.204162
0.22921
0.265541
0.313983
0.366954
0.399023
0.403286
0.391633
0.403678
0.493005
0.697616
1.0038
1.25738
1.34344
1.34891
1.26162
1.03922
0.799464
0.595822
0.462124
0.349204
0.285961
0.25846
0.249787
0.246471
0.264147
0.305101
0.344795
0.365732
0.376369
0.379629
0.375572
0.35962
0.341271
0.326737
0.309613
0.298824
0.282556
0.270678
0.245285
0.225813
0.210585
0.202612
0.194098
0.175619
0.162993
0.160305
0.154812
0.150831
0.146428
0.141182
0.137912
0.137486
0.13588
0.123079
0.117786
0.115036
0.113554
0.124705
0.136379
0.146876
0.153411
0.161359
0.171633
0.177045
0.18098
0.185991
0.18992
0.198969
0.212604
0.22442
0.23392
0.238389
0.254709
0.289864
0.307231
0.320431
0.337472
0.375145
0.417029
0.446339
0.465233
0.456783
0.490435
0.529213
0.69175
0.741554
0.873731
1.02389
1.19591
1.38129
1.52752
1.85329
1.75622
1.21186
1.17655
1.37303
1.45004
1.57763
1.43673
1.50885
1.4849
1.66838
1.98128
2.21798
1.88639
1.77565
1.81906
1.86238
1.75883
2.13108
2.47554
2.44652
2.51448
2.42183
2.25195
2.24816
2.5607
2.46737
2.26991
2.38216
2.22012
2.18045
2.10481
2.13302
2.30827
2.36232
2.22172
2.00731
1.95773
2.22649
2.42131
2.8834
2.65712
2.18239
2.47121
2.941
2.97971
2.77997
2.40813
2.27525
2.13733
7.74535
2.58475
1.37511
0.86866
0.712267
0.556217
0.477927
0.496631
0.388426
0.294057
0.274503
0.244954
0.193662
0.176127
0.173647
0.175964
0.180079
0.186022
0.192613
0.197003
0.199391
0.200324
0.20024
0.200366
0.20615
0.216594
0.222213
0.224045
0.220509
0.214295
0.21235
0.212476
0.214346
0.217383
0.22424
0.232351
0.237499
0.242658
0.255859
0.27354
0.294343
0.321905
0.332438
0.327792
0.312445
0.312222
0.350237
0.471404
0.703403
1.01241
1.15625
1.17339
1.13013
0.940732
0.670274
0.496314
0.384798
0.311913
0.276546
0.261705
0.257272
0.258263
0.281662
0.329708
0.363516
0.383384
0.396025
0.399946
0.400098
0.391344
0.367537
0.341603
0.323338
0.292267
0.269473
0.256922
0.254115
0.243228
0.220564
0.203522
0.195398
0.187634
0.171878
0.152047
0.150261
0.144854
0.144883
0.144728
0.138504
0.137824
0.137231
0.139299
0.128119
0.109605
0.106566
0.105023
0.109968
0.130417
0.138497
0.151917
0.15705
0.169192
0.177388
0.176773
0.182518
0.189781
0.196434
0.207178
0.211748
0.228495
0.239526
0.246356
0.270457
0.300179
0.317418
0.333186
0.345963
0.362807
0.387492
0.415469
0.412185
0.458115
0.486571
0.622779
0.713056
0.841055
1.03595
1.18834
1.41241
1.5452
1.75509
1.44294
1.14523
1.10503
1.18282
1.25888
1.34904
1.23816
1.33494
1.5778
1.73015
1.91677
1.96076
1.72489
1.59995
1.70204
1.68449
1.61497
2.04269
2.6404
2.73891
2.97491
2.48068
2.28913
2.23534
2.42245
2.4533
2.28536
2.45872
2.33503
2.1661
2.12381
2.01534
2.05532
2.1205
2.07705
1.97908
1.8931
2.22932
2.41914
2.81939
2.55374
2.14352
2.37435
2.86242
2.90631
2.71794
2.30021
2.17045
2.04537
9.6849
3.27266
1.53391
0.891525
0.65975
0.577887
0.506582
0.546662
0.45565
0.312892
0.290192
0.28294
0.260511
0.224005
0.213533
0.212881
0.216863
0.224653
0.235166
0.244959
0.252757
0.257142
0.259273
0.258519
0.254718
0.249464
0.250546
0.249421
0.247611
0.243939
0.236316
0.232933
0.229084
0.227228
0.230136
0.239525
0.248949
0.25267
0.26136
0.279512
0.288712
0.288373
0.272436
0.250241
0.248272
0.260187
0.307528
0.425119
0.64111
0.929133
1.05816
1.07782
1.03348
0.841386
0.5415
0.384554
0.321156
0.289111
0.274005
0.266731
0.265946
0.27999
0.322661
0.366646
0.389672
0.400977
0.40516
0.404752
0.394124
0.384989
0.367434
0.339247
0.320246
0.29136
0.259742
0.238485
0.235375
0.233038
0.215369
0.19701
0.188463
0.181373
0.169271
0.147958
0.142077
0.141651
0.139465
0.144269
0.139197
0.137141
0.135475
0.134548
0.123221
0.102606
0.0996405
0.101294
0.106278
0.127963
0.137654
0.150985
0.158402
0.164403
0.181591
0.177621
0.180629
0.19211
0.193633
0.205282
0.213206
0.218395
0.228486
0.234909
0.252758
0.266415
0.290176
0.316366
0.316943
0.325371
0.353169
0.374238
0.376195
0.429599
0.472372
0.564286
0.690114
0.801182
1.04417
1.18655
1.42335
1.5294
1.51262
1.26847
1.1344
1.09353
1.09981
1.14209
1.22832
1.2112
1.2599
1.60029
1.68119
1.68942
1.68122
1.53132
1.51728
1.70073
1.55061
1.51333
2.00003
2.79591
3.02591
3.06262
2.51517
2.33463
2.21516
2.24545
2.33417
2.27518
2.42278
2.35818
2.13006
2.17112
2.02044
1.96039
1.94369
1.98642
1.94848
1.81123
2.25199
2.42388
2.68031
2.44627
2.13495
2.35023
2.8059
2.82582
2.60107
2.19051
2.10153
1.94678
12.001
3.01158
1.07575
0.612805
0.481157
0.454211
0.430504
0.425343
0.350172
0.287411
0.27864
0.283962
0.283285
0.276501
0.266354
0.262547
0.259951
0.272015
0.294705
0.322834
0.35086
0.375979
0.395947
0.404151
0.400956
0.369427
0.330943
0.304927
0.283055
0.269964
0.262069
0.2559
0.250874
0.238715
0.231477
0.23165
0.241841
0.251738
0.255828
0.259737
0.258085
0.246882
0.220264
0.210526
0.211585
0.226312
0.273043
0.370711
0.536817
0.769598
0.983188
1.02938
1.01473
0.86995
0.577743
0.388649
0.325378
0.29872
0.290934
0.291959
0.298269
0.316908
0.347113
0.381137
0.400305
0.405658
0.405943
0.400185
0.388818
0.364181
0.346096
0.323119
0.304142
0.284187
0.256487
0.227384
0.212225
0.214294
0.208112
0.190563
0.172949
0.160696
0.154344
0.141776
0.131796
0.132556
0.132581
0.132065
0.128739
0.12682
0.121318
0.109809
0.101219
0.0944612
0.0969631
0.0998133
0.106262
0.127287
0.146138
0.150646
0.166229
0.16559
0.177901
0.17653
0.179415
0.194272
0.193022
0.19956
0.212709
0.216281
0.222904
0.228216
0.242493
0.251496
0.268926
0.290183
0.294512
0.30365
0.340409
0.360062
0.360528
0.403339
0.465136
0.522855
0.672528
0.770852
1.03815
1.18704
1.40811
1.43501
1.32059
1.19378
1.14177
1.09103
1.08588
1.06878
1.16346
1.23341
1.26058