/*--------------------------------*- C++ -*----------------------------------*\
| =========                 |                                                 |
| \\      /  F ield         | OpenFOAM: The Open Source CFD Toolbox           |
|  \\    /   O peration     | Version:  dev                                   |
|   \\  /    A nd           | Web:      http://www.openfoam.org               |
|    \\/     M anipulation  |                                                 |
\*---------------------------------------------------------------------------*/
FoamFile
{
    version     2.0;
    format      ascii;
    class       volScalarField;
    object      muSgs;
    location    "9.146";
}
// * * * * * * * * * * * * * * * * * * * * * * * * * * * * * * * * * * * * * //

dimensions      [1 -1 -1 0 0 0 0];

internalField   nonuniform List<scalar> 
12225
(
0.000213397
0.000241736
0.000202663
0.00021643
0.000174166
0.000227623
0.000184533
0.000245248
0.000207329
0.000262185
0.000232408
0.000272692
0.000264278
0.000271358
0.00031027
0.000291485
0.000364551
0.000327909
0.000101538
0.000177527
0.000161706
0.000175157
0.000145788
0.000162812
0.00013826
0.000153419
0.000137664
0.000147261
0.00013913
0.000138832
0.000143528
0.000137473
0.000153876
0.000145611
0.00014747
0.0001635
3.24547e-05
0.000100174
0.000105163
0.000133082
0.000124193
0.000128381
0.000124793
0.000118139
0.000114847
0.000108899
0.000107712
9.88962e-05
9.98977e-05
9.08006e-05
9.50516e-05
8.69058e-05
8.78806e-05
7.1679e-05
9.79659e-06
3.98319e-05
5.23576e-05
6.97083e-05
8.50597e-05
8.32066e-05
9.3192e-05
8.62398e-05
8.91102e-05
8.13146e-05
8.27736e-05
7.38756e-05
7.46528e-05
6.68514e-05
6.80119e-05
6.21447e-05
6.50072e-05
5.79221e-05
4.89784e-06
2.63961e-05
3.0923e-05
4.17378e-05
5.78055e-05
5.93855e-05
6.71435e-05
6.40453e-05
6.61431e-05
6.07292e-05
6.26679e-05
5.62758e-05
5.76176e-05
5.17195e-05
5.26908e-05
4.74148e-05
5.30278e-05
5.10716e-05
8.64284e-06
2.56078e-05
2.82279e-05
3.55735e-05
4.39299e-05
4.13225e-05
4.64705e-05
4.38182e-05
4.63797e-05
4.24675e-05
4.56325e-05
4.12503e-05
4.34599e-05
3.97492e-05
4.11457e-05
3.78754e-05
4.11907e-05
4.5942e-05
5.47533e-06
1.15973e-05
1.99139e-05
2.03725e-05
2.63439e-05
2.40008e-05
3.0335e-05
2.8821e-05
3.16417e-05
2.91052e-05
3.23815e-05
2.96374e-05
3.17752e-05
2.97005e-05
3.13474e-05
3.01324e-05
3.15322e-05
3.76244e-05
2.25611e-06
4.23635e-06
1.02858e-05
9.93452e-06
1.33121e-05
1.25296e-05
1.68749e-05
1.62572e-05
1.85923e-05
1.7716e-05
1.97482e-05
1.85361e-05
1.98459e-05
1.96893e-05
2.03772e-05
2.1543e-05
2.2141e-05
2.31698e-05
1.67421e-06
5.53507e-06
8.35958e-06
7.88215e-06
9.86406e-06
9.66924e-06
1.26905e-05
1.27382e-05
1.46137e-05
1.44724e-05
1.54788e-05
1.56595e-05
1.72289e-05
1.81447e-05
1.92487e-05
2.132e-05
2.15169e-05
2.22242e-05
2.04926e-06
7.32847e-06
7.83943e-06
7.55625e-06
8.21995e-06
8.20639e-06
9.79107e-06
1.01866e-05
1.14367e-05
1.19255e-05
1.37338e-05
1.57785e-05
1.71665e-05
1.87409e-05
2.00751e-05
2.21928e-05
2.24846e-05
2.38432e-05
5.17719e-06
6.78229e-06
7.41788e-06
7.13461e-06
7.61231e-06
7.5146e-06
8.11943e-06
8.83809e-06
1.03243e-05
1.23248e-05
1.40749e-05
1.6877e-05
1.83005e-05
2.02804e-05
2.16702e-05
2.34651e-05
2.4334e-05
2.51162e-05
1.04018e-05
9.13008e-06
8.49911e-06
7.83055e-06
7.81277e-06
7.83181e-06
8.04135e-06
9.22143e-06
1.07288e-05
1.37049e-05
1.53802e-05
1.85644e-05
2.05705e-05
2.30195e-05
2.44751e-05
2.61886e-05
2.7435e-05
2.8596e-05
1.49459e-05
1.34263e-05
1.06245e-05
9.38209e-06
8.96185e-06
8.92688e-06
9.15631e-06
1.08896e-05
1.27547e-05
1.66081e-05
1.86953e-05
2.25802e-05
2.55489e-05
2.86294e-05
3.06862e-05
3.25586e-05
3.40757e-05
3.54477e-05
2.18527e-05
1.89373e-05
1.47871e-05
1.27513e-05
1.19172e-05
1.1811e-05
1.22932e-05
1.50805e-05
1.81779e-05
2.28797e-05
2.69189e-05
3.18044e-05
3.61961e-05
3.99564e-05
4.28562e-05
4.52728e-05
4.68271e-05
4.78869e-05
2.96272e-05
2.50212e-05
1.94679e-05
1.70664e-05
1.64585e-05
1.66506e-05
1.84792e-05
2.38211e-05
3.05191e-05
3.66365e-05
4.24644e-05
4.79042e-05
5.26228e-05
5.62625e-05
5.87569e-05
6.03667e-05
6.09802e-05
6.11669e-05
4.30566e-05
3.62515e-05
2.9025e-05
2.63214e-05
2.57261e-05
2.62213e-05
2.91041e-05
3.63298e-05
4.3797e-05
5.03235e-05
5.59756e-05
6.08055e-05
6.46759e-05
6.75238e-05
6.94061e-05
7.0424e-05
7.05557e-05
7.02853e-05
5.35564e-05
4.5033e-05
3.67484e-05
3.36623e-05
3.27978e-05
3.29307e-05
3.53252e-05
4.24478e-05
5.07153e-05
5.78967e-05
6.39786e-05
6.8995e-05
7.28664e-05
7.5626e-05
7.73536e-05
7.81307e-05
7.80618e-05
7.75312e-05
5.46177e-05
4.5639e-05
3.75268e-05
3.47155e-05
3.39957e-05
3.4207e-05
3.64208e-05
4.29466e-05
5.10718e-05
5.83143e-05
6.45189e-05
6.96204e-05
7.35383e-05
7.6274e-05
7.79591e-05
7.87111e-05
7.8591e-05
7.80387e-05
4.66606e-05
3.98375e-05
3.34706e-05
3.12529e-05
3.06068e-05
3.07629e-05
3.26491e-05
3.80491e-05
4.55949e-05
5.24029e-05
5.82721e-05
6.3064e-05
6.67806e-05
6.94559e-05
7.11401e-05
7.19649e-05
7.19154e-05
7.15786e-05
3.57598e-05
3.07179e-05
2.59919e-05
2.43703e-05
2.38234e-05
2.39238e-05
2.54342e-05
2.98592e-05
3.62528e-05
4.20708e-05
4.72114e-05
5.1455e-05
5.50586e-05
5.80609e-05
6.00394e-05
6.12138e-05
6.14193e-05
6.15823e-05
2.64094e-05
2.27863e-05
1.93932e-05
1.8231e-05
1.78767e-05
1.81472e-05
2.02093e-05
2.30669e-05
2.60052e-05
2.91988e-05
3.25305e-05
3.60093e-05
3.94416e-05
4.26951e-05
4.46966e-05
4.60537e-05
4.60497e-05
4.63991e-05
1.83209e-05
1.58448e-05
1.35899e-05
1.30479e-05
1.33725e-05
1.52785e-05
1.66322e-05
1.72698e-05
1.80412e-05
1.9578e-05
2.19969e-05
2.52499e-05
2.79979e-05
3.05097e-05
3.19322e-05
3.31608e-05
3.33624e-05
3.374e-05
1.27939e-05
1.12148e-05
9.94564e-06
9.76934e-06
1.00888e-05
1.12733e-05
1.17836e-05
1.26539e-05
1.32845e-05
1.45915e-05
1.62696e-05
1.90083e-05
2.09034e-05
2.27971e-05
2.39126e-05
2.5056e-05
2.56587e-05
2.63914e-05
8.4272e-06
7.47199e-06
7.00012e-06
7.2555e-06
8.04834e-06
9.60092e-06
1.02925e-05
1.15806e-05
1.22876e-05
1.36618e-05
1.51393e-05
1.76152e-05
1.92281e-05
2.08408e-05
2.18212e-05
2.28875e-05
2.35459e-05
2.43299e-05
5.11978e-06
5.15781e-06
5.61274e-06
6.94582e-06
8.79755e-06
1.17932e-05
1.36679e-05
1.60584e-05
1.70853e-05
1.88651e-05
2.07258e-05
2.30419e-05
2.4518e-05
2.58589e-05
2.66447e-05
2.74119e-05
2.7767e-05
2.81941e-05
2.26488e-06
5.40898e-06
9.33782e-06
1.47892e-05
2.05978e-05
2.58579e-05
2.97611e-05
3.30685e-05
3.46469e-05
3.64539e-05
3.84812e-05
4.03855e-05
4.15499e-05
4.2375e-05
4.26152e-05
4.26801e-05
4.2295e-05
4.1897e-05
4.02969e-06
1.48834e-05
2.86239e-05
4.29204e-05
5.33106e-05
6.02491e-05
6.4726e-05
6.72956e-05
6.81967e-05
6.88496e-05
6.96313e-05
6.99716e-05
6.99892e-05
6.94932e-05
6.85045e-05
6.73058e-05
6.58748e-05
6.43536e-05
1.47068e-05
5.08367e-05
8.65533e-05
0.000104363
0.000115731
0.00012027
0.000121376
0.000120219
0.000118257
0.000115992
0.000113544
0.000110567
0.000107141
0.000103613
9.99858e-05
9.65852e-05
9.29205e-05
9.01113e-05
7.13286e-05
0.000161123
0.000186745
0.000187032
0.000182245
0.000174172
0.000165647
0.000157303
0.000149578
0.000142428
0.000135936
0.000130196
0.000124776
0.000119339
0.000114097
0.000109067
0.000104433
0.000100415
0.000239356
0.000287852
0.00027489
0.000244619
0.000220985
0.000206335
0.000197747
0.000192384
0.000188558
0.000184961
0.000181063
0.00017676
0.000171949
0.000166866
0.000161554
0.000156026
0.000150392
0.000144128
2.08788e-05
2.59122e-05
2.89737e-05
3.13318e-05
3.4451e-05
3.79384e-05
4.16529e-05
4.51891e-05
4.80394e-05
5.06631e-05
5.2945e-05
5.55775e-05
5.82117e-05
6.05406e-05
6.37129e-05
6.77164e-05
7.21063e-05
7.62323e-05
8.04793e-05
8.61306e-05
9.42588e-05
0.000102894
0.0001109
0.000118876
0.000126878
0.000134615
0.000142948
0.000152026
0.000160182
0.000167576
0.000175063
0.000182522
0.00018788
0.000187683
0.000180782
0.000168356
0.000159868
0.000154117
0.000150897
0.00015083
0.000152416
0.000156305
0.000160453
0.000162875
0.000164739
0.000166572
0.000168226
0.000169958
0.000172079
0.000173787
0.000175397
0.0001774
0.0001823
0.000191432
0.000204264
0.00022108
0.000231966
0.000235071
0.000235457
0.000233737
0.000231325
0.000232323
0.00023207
0.000228266
0.000227014
0.000224102
0.000222808
0.000224396
0.000233401
0.000242615
0.000246658
0.000250997
0.000280172
0.000318308
0.000334993
0.000347179
0.000355455
0.000359976
0.00036195
0.000362098
0.000357811
0.000352352
0.00034436
0.000335479
0.00032459
0.000313574
0.000300354
0.000287597
0.000275047
0.00026285
0.000250831
0.000238642
0.000227447
0.000219356
0.000210106
0.000200523
0.000194071
0.000187286
0.000180838
0.000177789
0.000175325
0.000173972
0.000173893
0.000174944
0.00017677
0.000178656
0.000180386
0.000181453
0.000182918
0.00018557
0.000189094
0.000194952
0.000201393
0.000202083
0.000197833
0.000198291
0.000199624
0.000194467
0.000192319
0.000198261
0.000214081
0.00022499
0.000225471
0.000222584
0.000218749
0.000219184
0.000222153
0.000233956
0.000249654
0.000260758
0.000273366
0.000292661
0.000318949
0.000357039
0.000409648
0.000464544
0.000493224
0.000476662
0.000435481
0.000427056
0.000440942
0.000479436
0.000498377
0.000493107
0.000504973
0.000494193
0.000487442
0.000502731
0.000516152
0.000514921
0.000509498
0.000498474
0.000497121
0.000472478
0.000453746
0.000446449
0.000435286
0.00042066
0.000408333
0.000393218
0.000370543
0.000349717
0.000327713
0.000308272
0.000296846
0.000294029
0.000300478
0.00030388
0.000321045
0.000343456
0.000350694
0.000357902
0.000370623
0.000400647
0.000432072
0.000468072
0.000530837
0.000606464
0.000654592
0.000713474
3.82426e-05
3.06056e-05
2.96914e-05
3.10966e-05
3.43693e-05
3.97254e-05
4.52495e-05
4.84069e-05
4.8649e-05
4.79068e-05
4.67398e-05
4.47479e-05
4.31526e-05
4.23773e-05
4.22919e-05
4.27336e-05
4.37971e-05
4.45424e-05
4.4643e-05
4.46038e-05
4.41937e-05
4.34272e-05
4.34017e-05
4.37029e-05
4.45039e-05
4.54267e-05
4.72979e-05
4.97045e-05
5.44531e-05
5.93968e-05
6.70679e-05
7.99758e-05
9.25773e-05
0.000111286
0.000128142
0.00013706
0.00014171
0.000142623
0.000136667
0.000123162
0.000112595
0.000107535
0.000100029
9.24941e-05
8.69113e-05
8.01369e-05
7.31255e-05
6.94295e-05
6.84527e-05
6.84823e-05
7.08712e-05
7.45004e-05
7.69942e-05
7.9147e-05
8.31512e-05
9.22648e-05
0.000110136
0.000136887
0.000162999
0.000178112
0.000185564
0.000182601
0.0001638
0.000140072
0.000133836
0.000134776
0.00014791
0.000170608
0.000205631
0.000231504
0.000234712
0.000235881
0.000239809
0.000235982
0.000224101
0.000212293
0.000202599
0.000191141
0.000182284
0.000172945
0.000165145
0.00015705
0.000151153
0.000144061
0.000138837
0.000133536
0.000128289
0.000124666
0.000121423
0.00011885
0.000115962
0.000113926
0.000112911
0.000112254
0.000110308
0.00010973
0.000109723
0.000107943
0.000108381
0.000111634
0.000112787
0.000113833
0.000116331
0.000120041
0.000125099
0.000129249
0.000133134
0.000134326
0.000134162
0.000135114
0.000138071
0.000142581
0.000153535
0.000161952
0.000162881
0.000163346
0.000167796
0.000169639
0.000165964
0.000163801
0.000178871
0.000199807
0.000207801
0.000203042
0.000193415
0.00019398
0.000199791
0.000212656
0.000229167
0.000236961
0.000243659
0.000257482
0.000283248
0.000322612
0.000362963
0.000383454
0.000361523
0.000302395
0.0002764
0.000298002
0.000361859
0.000401762
0.000391589
0.00037768
0.00036976
0.000344101
0.000369307
0.00040948
0.000422438
0.000417395
0.000413884
0.000412876
0.000403004
0.000387647
0.000390459
0.000395496
0.000391205
0.000388061
0.000384781
0.000374885
0.0003594
0.000346625
0.000332355
0.00031772
0.000310824
0.000312471
0.000324035
0.000331807
0.000351162
0.0003665
0.000372474
0.000370119
0.000369899
0.00037598
0.000390609
0.000415953
0.000437706
0.00046626
0.000488272
0.000535213
5.80153e-05
4.00315e-05
3.31012e-05
3.35728e-05
3.94096e-05
4.93973e-05
5.20082e-05
5.0147e-05
4.75926e-05
4.32226e-05
3.93693e-05
3.73151e-05
3.71233e-05
3.8017e-05
3.88172e-05
3.90237e-05
3.90267e-05
3.9282e-05
3.94563e-05
3.91981e-05
3.79861e-05
3.66267e-05
3.63439e-05
3.6058e-05
3.52574e-05
3.46733e-05
3.3749e-05
3.30723e-05
3.32309e-05
3.3528e-05
3.43813e-05
3.61426e-05
3.96284e-05
4.65461e-05
5.54895e-05
7.07706e-05
8.40447e-05
9.55759e-05
0.000106306
0.000110952
0.00011075
0.000105628
9.4262e-05
8.38891e-05
7.7598e-05
6.77144e-05
5.91468e-05
5.58118e-05
5.52958e-05
5.76312e-05
6.34138e-05
6.96136e-05
7.11338e-05
7.12237e-05
7.01955e-05
6.96312e-05
7.03046e-05
7.47805e-05
8.63914e-05
0.000102603
0.000124099
0.000130068
0.000124937
0.000114312
0.000121957
0.000167448
0.000205337
0.000207157
0.000196819
0.000196736
0.000182007
0.000171957
0.000151342
0.000132197
0.00012117
0.000107515
0.000100063
9.0688e-05
8.57846e-05
8.0339e-05
7.74911e-05
7.44832e-05
7.28991e-05
7.09364e-05
7.00881e-05
6.89479e-05
6.86443e-05
6.81461e-05
6.83431e-05
6.85201e-05
6.89954e-05
7.00142e-05
7.10607e-05
7.14088e-05
7.15141e-05
7.23288e-05
7.37999e-05
7.33384e-05
7.43771e-05
7.79365e-05
7.91155e-05
8.00016e-05
8.11453e-05
8.28812e-05
8.7063e-05
9.0739e-05
9.62812e-05
9.99424e-05
0.000101135
0.000102093
0.000103612
0.000104916
0.000112647
0.00012382
0.000127835
0.000128019
0.000132932
0.00014163
0.000142691
0.000132626
0.000139301
0.000157239
0.000177965
0.000178624
0.000169373
0.000170945
0.000173971
0.000179958
0.000190491
0.000202675
0.0002168
0.0002355
0.000258021
0.000288432
0.000302031
0.000309449
0.000269007
0.000223498
0.000210409
0.000232984
0.000292395
0.000298657
0.000292056
0.000274586
0.000264848
0.000234098
0.000254025
0.000293867
0.000314595
0.000316726
0.000319544
0.00032875
0.000326356
0.000301812
0.00031691
0.000329154
0.000327113
0.000323771
0.000335944
0.000342451
0.000334406
0.000327892
0.000324066
0.000319433
0.00030956
0.000306714
0.000311984
0.000328037
0.000338227
0.000362407
0.000383866
0.000387688
0.000384816
0.000374609
0.000360257
0.00035982
0.000360976
0.000366493
0.000368842
0.000400424
7.72357e-05
4.70054e-05
3.82821e-05
4.15762e-05
5.28009e-05
5.62326e-05
5.34004e-05
4.80904e-05
4.05815e-05
3.66012e-05
3.55872e-05
3.57474e-05
3.64896e-05
3.79632e-05
3.88801e-05
3.86437e-05
3.77863e-05
3.69065e-05
3.62834e-05
3.46286e-05
3.37705e-05
3.36296e-05
3.33571e-05
3.29189e-05
3.2103e-05
3.16648e-05
3.14136e-05
3.12372e-05
3.13404e-05
3.15887e-05
3.18448e-05
3.20736e-05
3.23976e-05
3.31671e-05
3.49866e-05
3.95019e-05
4.80927e-05
5.78029e-05
6.95561e-05
7.89119e-05
8.66517e-05
8.90611e-05
8.69245e-05
8.58846e-05
8.33578e-05
7.49633e-05
6.51592e-05
6.00628e-05
5.8745e-05
6.00213e-05
6.52324e-05
7.25569e-05
7.45109e-05
7.44989e-05
7.26233e-05
7.04968e-05
6.80666e-05
6.5861e-05
6.69368e-05
7.32908e-05
8.55156e-05
9.4354e-05
0.000100675
0.000124677
0.000178628
0.000210728
0.000198973
0.000168678
0.000151691
0.000130982
0.00011434
0.000104048
8.73051e-05
7.85694e-05
7.0559e-05
6.59077e-05
6.20166e-05
5.93494e-05
5.78709e-05
5.71707e-05
5.66115e-05
5.66411e-05
5.65982e-05
5.68145e-05
5.70534e-05
5.74454e-05
5.7886e-05
5.82448e-05
5.84965e-05
5.86269e-05
5.90954e-05
6.01973e-05
6.14404e-05
6.17088e-05
6.20311e-05
6.28079e-05
6.34442e-05
6.33305e-05
6.35063e-05
6.55171e-05
6.73794e-05
6.8284e-05
6.92722e-05
6.92127e-05
7.12601e-05
7.3441e-05
7.70254e-05
8.16723e-05
8.43933e-05
8.78606e-05
9.0977e-05
9.157e-05
9.78673e-05
0.000109521
0.000111591
0.000107384
0.000114952
0.000129998
0.000132074
0.000117808
0.000112076
0.000132039
0.000151741
0.00016166
0.00015895
0.000162422
0.000163202
0.00016486
0.000173345
0.000186139
0.000203801
0.000228152
0.000245663
0.000250968
0.000261058
0.000266327
0.000240683
0.000215335
0.000203103
0.000217276
0.000258629
0.000251356
0.000242642
0.000224963
0.000221227
0.000204743
0.000209694
0.000234463
0.000259086
0.000269372
0.000276924
0.000284725
0.000280785
0.000253816
0.000270239
0.000282744
0.00028979
0.000284913
0.000298448
0.000316802
0.000322189
0.000319218
0.000319478
0.000319461
0.000307053
0.000292563
0.000292707
0.000303877
0.00029698
0.00033069
0.000367632
0.00037732
0.000391323
0.000388775
0.000366788
0.000344148
0.00032558
0.000319351
0.000318291
0.000335414
9.76351e-05
5.75271e-05
4.73588e-05
5.57051e-05
6.02469e-05
5.68119e-05
4.90847e-05
4.06236e-05
3.64681e-05
3.52446e-05
3.51863e-05
3.62239e-05
3.79181e-05
3.80018e-05
3.78371e-05
3.63177e-05
3.39644e-05
3.25463e-05
3.21502e-05
3.18293e-05
3.1502e-05
3.15152e-05
3.12909e-05
3.12585e-05
3.14174e-05
3.14088e-05
3.15809e-05
3.21744e-05
3.25211e-05
3.24055e-05
3.24485e-05
3.26386e-05
3.26674e-05
3.26337e-05
3.28378e-05
3.36113e-05
3.53061e-05
3.90806e-05
4.69499e-05
5.3756e-05
6.3322e-05
6.83027e-05
7.03307e-05
7.31848e-05
7.2899e-05
7.0301e-05
6.59785e-05
6.04921e-05
5.97865e-05
6.31204e-05
7.1503e-05
7.75806e-05
7.76967e-05
7.52514e-05
7.29679e-05
7.17089e-05
7.06229e-05
6.86697e-05
6.74513e-05
6.99108e-05
7.58722e-05
8.88998e-05
0.000117243
0.000178028
0.000205473
0.000193457
0.000150442
0.000117976
0.000103546
8.70804e-05
7.38138e-05
6.67432e-05
5.95112e-05
5.63737e-05
5.36438e-05
5.25288e-05
5.12889e-05
5.0983e-05
5.08055e-05
5.1093e-05
5.13274e-05
5.22727e-05
5.28951e-05
5.38601e-05
5.46839e-05
5.54735e-05
5.61566e-05
5.68551e-05
5.7084e-05
5.72689e-05
5.74702e-05
5.81465e-05
5.90646e-05
5.92928e-05
5.98389e-05
6.04394e-05
6.03068e-05
5.95799e-05
5.97414e-05
6.04058e-05
6.21389e-05
6.34843e-05
6.42192e-05
6.36364e-05
6.38924e-05
6.50756e-05
6.65446e-05
7.01369e-05
7.17966e-05
7.56728e-05
8.33537e-05
8.43174e-05
8.98303e-05
0.000104834
0.000106716
9.72856e-05
9.93737e-05
0.000117395
0.000123985
0.000115347
0.00010501
0.000113486
0.000133295
0.000145303
0.000149537
0.000156214
0.000156891
0.000157155
0.000163979
0.000176205
0.000203655
0.000229616
0.000224897
0.000221483
0.000232643
0.000235138
0.000224498
0.000222028
0.000188313
0.000201497
0.000216519
0.000236936
0.000218287
0.000197094
0.000199493
0.00019784
0.000197305
0.000210908
0.00023004
0.000254684
0.000258925
0.000263359
0.000265591
0.000244017
0.000254627
0.000263927
0.000258884
0.000251904
0.000264181
0.000284301
0.00030466
0.000310108
0.000315264
0.000322822
0.000315995
0.000294541
0.000286075
0.000278248
0.000260712
0.000301323
0.000340857
0.000347607
0.000371936
0.000387302
0.000380545
0.000346312
0.000312394
0.000298396
0.00029941
0.000306747
0.000117385
6.90073e-05
6.15231e-05
6.46112e-05
6.05279e-05
5.12113e-05
4.42166e-05
3.88047e-05
3.5718e-05
3.56238e-05
3.66568e-05
3.81778e-05
3.84423e-05
3.76271e-05
3.58971e-05
3.41528e-05
3.26787e-05
3.20134e-05
3.17113e-05
3.14295e-05
3.11274e-05
3.12831e-05
3.16694e-05
3.22165e-05
3.31844e-05
3.40037e-05
3.48102e-05
3.50939e-05
3.50892e-05
3.51843e-05
3.50133e-05
3.43371e-05
3.37037e-05
3.31712e-05
3.27802e-05
3.30082e-05
3.35432e-05
3.43225e-05
3.69219e-05
3.96859e-05
4.60226e-05
5.06678e-05
5.40191e-05
5.55302e-05
5.61419e-05
5.61526e-05
5.59026e-05
5.6013e-05
5.95857e-05
6.95772e-05
8.01363e-05
8.10217e-05
7.88258e-05
7.65889e-05
7.62979e-05
7.63202e-05
7.61309e-05
7.44697e-05
7.21478e-05
7.25371e-05
8.16268e-05
0.000112672
0.000176374
0.000192905
0.000188039
0.000138029
0.000102064
8.3096e-05
7.26702e-05
6.19484e-05
5.46169e-05
5.14218e-05
4.92268e-05
4.83571e-05
4.75538e-05
4.73386e-05
4.72804e-05
4.74384e-05
4.77007e-05
4.83153e-05
4.90217e-05
4.99129e-05
5.07242e-05
5.17799e-05
5.29202e-05
5.42487e-05
5.56919e-05
5.67044e-05
5.7177e-05
5.74765e-05
5.77727e-05
5.83884e-05
5.89171e-05
5.90399e-05
5.91734e-05
5.92164e-05
5.88703e-05
5.87099e-05
5.87748e-05
5.93084e-05
5.98559e-05
6.1273e-05
6.26639e-05
6.23257e-05
6.06407e-05
6.0866e-05
6.11766e-05
6.31872e-05
6.51007e-05
6.64374e-05
7.44315e-05
7.75238e-05
8.03472e-05
9.43258e-05
0.000102911
0.000102205
9.93068e-05
0.000111594
0.000114034
0.000111298
0.000108466
0.000107474
0.000121937
0.000129371
0.000138043
0.00014969
0.000151739
0.000151095
0.000159592
0.000178288
0.000214791
0.00022913
0.000207984
0.000206366
0.000215532
0.000220487
0.000224638
0.000210176
0.000178343
0.000190277
0.000196986
0.000216011
0.000205482
0.000187542
0.000190683
0.000189875
0.000192396
0.000207966
0.000232683
0.000246089
0.000238899
0.000242509
0.000262925
0.000238644
0.000235845
0.000253101
0.000252546
0.000227922
0.000237873
0.000254614
0.000275837
0.00028672
0.000292892
0.0003142
0.000322435
0.000307589
0.000297847
0.000280203
0.000269861
0.000277101
0.000308504
0.000314955
0.000332173
0.000365572
0.000381069
0.0003516
0.000312929
0.000292964
0.000287908
0.000293819
0.000136313
7.88551e-05
6.98366e-05
6.54737e-05
5.55413e-05
4.88932e-05
4.41789e-05
3.9551e-05
3.74938e-05
3.80299e-05
3.9053e-05
3.95071e-05
3.8665e-05
3.67345e-05
3.47824e-05
3.34281e-05
3.20001e-05
3.10878e-05
3.05789e-05
3.03549e-05
3.07147e-05
3.15543e-05
3.32375e-05
3.50418e-05
3.64826e-05
3.73304e-05
3.77551e-05
3.75801e-05
3.72578e-05
3.7082e-05
3.6099e-05
3.51767e-05
3.40487e-05
3.25819e-05
3.24283e-05
3.28394e-05
3.32736e-05
3.56177e-05
3.76866e-05
3.89212e-05
4.27066e-05
4.54463e-05
4.77625e-05
4.89587e-05
4.98704e-05
5.09311e-05
5.24461e-05
5.73382e-05
7.0332e-05
8.12275e-05
8.18028e-05
8.20821e-05
8.08843e-05
8.09853e-05
8.29653e-05
8.42202e-05
8.36334e-05
8.29233e-05
8.45417e-05
9.51496e-05
0.000129815
0.000168063
0.000178257
0.000177046
0.000134271
9.46582e-05
7.41904e-05
6.29147e-05
5.55999e-05
5.05681e-05
4.75913e-05
4.64944e-05
4.60371e-05
4.5772e-05
4.57087e-05
4.57598e-05
4.59759e-05
4.63446e-05
4.6931e-05
4.76183e-05
4.83451e-05
4.9075e-05
4.9836e-05
5.06658e-05
5.11792e-05
5.17656e-05
5.24889e-05
5.37589e-05
5.53389e-05
5.62695e-05
5.68741e-05
5.74605e-05
5.80169e-05
5.84557e-05
5.87259e-05
5.79926e-05
5.72943e-05
5.78661e-05
5.82736e-05
5.8899e-05
5.91362e-05
5.95825e-05
6.07382e-05
6.16788e-05
6.03746e-05
5.93763e-05
5.96101e-05
5.98081e-05
6.26145e-05
6.3339e-05
6.7633e-05
7.235e-05
7.47625e-05
8.04309e-05
9.20116e-05
9.65647e-05
9.71952e-05
0.000102827
0.000103585
0.000104313
0.000106911
0.000107623
0.000115248
0.000118929
0.000129218
0.000144032
0.000149458
0.000150616
0.000161816
0.000192732
0.000216605
0.000214522
0.000207978
0.00020676
0.000207724
0.000211316
0.000211792
0.000183753
0.000177613
0.000183007
0.000196655
0.00020454
0.000201703
0.00018727
0.000183016
0.000179389
0.000191042
0.000205604
0.000230257
0.000229441
0.000223153
0.000236567
0.000243216
0.00023297
0.000222584
0.00023584
0.000251567
0.000225279
0.000225093
0.000230902
0.000242729
0.000259355
0.000265798
0.000285774
0.000310225
0.000311496
0.000308074
0.00029497
0.000290708
0.000277041
0.000287316
0.000292673
0.000299749
0.000334024
0.000371404
0.000359361
0.000315593
0.000291144
0.000277872
0.000289973
0.000154933
8.78005e-05
7.1675e-05
6.36268e-05
5.47651e-05
5.08432e-05
4.66723e-05
4.18069e-05
4.0166e-05
4.06907e-05
4.08057e-05
4.00637e-05
3.83298e-05
3.53977e-05
3.37631e-05
3.26623e-05
3.15145e-05
3.089e-05
3.0887e-05
3.1265e-05
3.22484e-05
3.38574e-05
3.53101e-05
3.63997e-05
3.72212e-05
3.77391e-05
3.80844e-05
3.83802e-05
3.82925e-05
3.83932e-05
3.85347e-05
3.80115e-05
3.68977e-05
3.45503e-05
3.27973e-05
3.25083e-05
3.34706e-05
3.56148e-05
3.75975e-05
4.05477e-05
4.48402e-05
4.77687e-05
4.84302e-05
4.95599e-05
5.11369e-05
5.27989e-05
5.72223e-05
6.89752e-05
8.11008e-05
8.23931e-05
8.3312e-05
8.47608e-05
8.90677e-05
9.50251e-05
0.000104191
0.000111355
0.000115633
0.000124877
0.000135218
0.000148891
0.000160508
0.000165481
0.000163763
0.000126185
8.91666e-05
6.86467e-05
5.764e-05
5.1486e-05
4.80253e-05
4.63624e-05
4.58655e-05
4.58232e-05
4.57821e-05
4.55208e-05
4.54541e-05
4.55893e-05
4.60405e-05
4.67815e-05
4.78493e-05
4.91613e-05
5.05488e-05
5.15821e-05
5.20833e-05
5.23171e-05
5.2114e-05
5.21491e-05
5.22404e-05
5.19657e-05
5.21038e-05
5.27718e-05
5.44212e-05
5.49053e-05
5.55e-05
5.68447e-05
5.7476e-05
5.65147e-05
5.67247e-05
5.68158e-05
5.74081e-05
5.79143e-05
5.8206e-05
5.85443e-05
5.82442e-05
5.86709e-05
5.83163e-05
5.78215e-05
5.85446e-05
5.76695e-05
6.07042e-05
6.3537e-05
6.37673e-05
6.71473e-05
7.05157e-05
7.25851e-05
7.922e-05
8.62947e-05
9.04547e-05
9.77436e-05
0.000100311
9.95944e-05
0.000101105
0.00010566
0.00011225
0.000114437
0.000124883
0.000140166
0.000147596
0.000152254
0.000166632
0.000196704
0.000205119
0.00019587
0.000190108
0.000192577
0.000204067
0.00020094
0.000195428
0.000188647
0.000176717
0.000177792
0.000195358
0.000207447
0.000195204
0.000182598
0.000179097
0.000177016
0.00019331
0.000208873
0.000222264
0.000223355
0.000223752
0.000227947
0.000222433
0.00022167
0.000222505
0.000223607
0.000237282
0.00022562
0.000221414
0.000225976
0.000225361
0.000239431
0.000251436
0.000261903
0.000282903
0.000293334
0.000300993
0.00030296
0.00029656
0.000271908
0.000274147
0.000280744
0.000281447
0.000309755
0.000356242
0.000360727
0.000319306
0.000290021
0.000275274
0.000293353
0.000171728
9.29993e-05
7.22015e-05
6.44119e-05
5.76805e-05
5.31108e-05
4.6286e-05
4.14302e-05
4.05857e-05
4.11744e-05
4.07771e-05
3.86799e-05
3.53053e-05
3.3348e-05
3.25766e-05
3.20499e-05
3.19561e-05
3.2211e-05
3.25342e-05
3.2863e-05
3.35913e-05
3.46489e-05
3.56167e-05
3.64556e-05
3.71887e-05
3.78024e-05
3.80397e-05
3.81975e-05
3.84501e-05
3.89076e-05
3.9401e-05
4.00179e-05
4.04585e-05
3.98996e-05
3.64753e-05
3.43886e-05
3.40278e-05
3.47474e-05
3.60427e-05
3.89589e-05
4.23357e-05
4.41006e-05
4.60301e-05
4.7278e-05
4.89431e-05
5.52937e-05
6.94407e-05
8.00238e-05
8.13546e-05
8.37932e-05
8.83643e-05
9.71655e-05
0.00011107
0.000125683
0.000137834
0.000142742
0.000145031
0.000145054
0.000146972
0.000151128
0.000153787
0.000146159
0.00011234
8.08209e-05
6.22968e-05
5.3045e-05
4.85599e-05
4.66537e-05
4.62333e-05
4.64767e-05
4.68229e-05
4.70119e-05
4.73777e-05
4.79395e-05
4.8948e-05
5.08748e-05
5.18791e-05
5.29208e-05
5.41383e-05
5.54024e-05
5.64998e-05
5.73686e-05
5.76534e-05
5.76447e-05
5.67162e-05
5.50804e-05
5.36345e-05
5.22467e-05
5.18948e-05
5.00724e-05
4.87496e-05
4.81426e-05
4.80413e-05
5.14299e-05
5.33778e-05
5.52328e-05
5.54412e-05
5.52481e-05
5.55492e-05
5.57626e-05
5.67728e-05
5.68836e-05
5.70025e-05
5.69119e-05
5.67561e-05
5.60744e-05
5.76522e-05
5.838e-05
5.9078e-05
6.11222e-05
6.21098e-05
6.28285e-05
6.66581e-05
6.95443e-05
7.20203e-05
7.70143e-05
8.20558e-05
8.98402e-05
9.51073e-05
9.92522e-05
0.000103629
0.000105976
0.000111581
0.000115143
0.000124652
0.000137706
0.000144788
0.000154153
0.000168724
0.000190306
0.00018566
0.000194554
0.000176451
0.000171273
0.000183323
0.000177754
0.000188501
0.000184855
0.000172292
0.00017065
0.000188429
0.000205784
0.000180096
0.000174991
0.00017698
0.000179278
0.000193546
0.000213344
0.000228706
0.000219861
0.000214463
0.000207716
0.000223112
0.000223105
0.000218634
0.000213951
0.000222009
0.000220345
0.000216353
0.000224035
0.00022169
0.000230524
0.00024367
0.000249523
0.000261556
0.000268693
0.000267767
0.000291807
0.000291757
0.000262394
0.000265832
0.000275717
0.000271982
0.00029206
0.000340862
0.000357149
0.000321199
0.000287407
0.000277336
0.000299148
0.00018628
9.73992e-05
7.46762e-05
6.68976e-05
6.09693e-05
5.23745e-05
4.25194e-05
4.01245e-05
4.03218e-05
3.99422e-05
3.78075e-05
3.47643e-05
3.34299e-05
3.27895e-05
3.25367e-05
3.27768e-05
3.34934e-05
3.41211e-05
3.43765e-05
3.45248e-05
3.49202e-05
3.56172e-05
3.64855e-05
3.72254e-05
3.77394e-05
3.79342e-05
3.80156e-05
3.80329e-05
3.81339e-05
3.85143e-05
3.9032e-05
3.96782e-05
4.02075e-05
4.07232e-05
4.03032e-05
3.8095e-05
3.54081e-05
3.49731e-05
3.49532e-05
3.57976e-05
3.75822e-05
3.91939e-05
4.06891e-05
4.44999e-05
5.2835e-05
6.74168e-05
7.73381e-05
7.99508e-05
8.29455e-05
8.70966e-05
9.81799e-05
0.000117429
0.000132441
0.000140587
0.00014151
0.000141525
0.000142143
0.000141058
0.00014067
0.000138167
0.000123067
9.59096e-05
7.15384e-05
5.69325e-05
4.96459e-05
4.67942e-05
4.59022e-05
4.57026e-05
4.57788e-05
4.63774e-05
4.72844e-05
4.86822e-05
5.11238e-05
5.48855e-05
5.70251e-05
5.79593e-05
5.82378e-05
5.75717e-05
5.67033e-05
5.63002e-05
5.60607e-05
5.61667e-05
5.64268e-05
5.68219e-05
5.65803e-05
5.49633e-05
5.28271e-05
5.07025e-05
4.99893e-05
4.83491e-05
4.55933e-05
4.39758e-05
4.3076e-05
4.45909e-05
4.66734e-05
5.1246e-05
5.22411e-05
5.23235e-05
5.21894e-05
5.27009e-05
5.36861e-05
5.3749e-05
5.36822e-05
5.41528e-05
5.48778e-05
5.47042e-05
5.61013e-05
5.76893e-05
5.89921e-05
6.00399e-05
6.12587e-05
6.0534e-05
6.39944e-05
6.82845e-05
7.10566e-05
7.27286e-05
7.67611e-05
8.46594e-05
8.83898e-05
9.36829e-05
0.000102218
0.000102692
0.000106577
0.000114843
0.000124716
0.000134238
0.000140843
0.000155083
0.000168722
0.000177302
0.000183482
0.000199004
0.000164758
0.000158047
0.000163677
0.000168056
0.000194985
0.000182876
0.000182004
0.000183429
0.000190503
0.000191386
0.000177262
0.000178021
0.000178361
0.000180824
0.000188616
0.000200346
0.000214739
0.000217366
0.000217206
0.000217469
0.000232068
0.000235233
0.000220029
0.000213968
0.000221929
0.000216763
0.000213123
0.00021964
0.000223328
0.000229993
0.000242895
0.000247354
0.000250701
0.000251774
0.0002424
0.000264035
0.000280411
0.000257508
0.000264235
0.00027663
0.000259515
0.000275863
0.000325536
0.000352086
0.000321946
0.000285613
0.000280614
0.000301895
0.000199103
0.000102856
7.75064e-05
6.68901e-05
6.24234e-05
4.93285e-05
4.13383e-05
3.95879e-05
3.89306e-05
3.76308e-05
3.61284e-05
3.4091e-05
3.33385e-05
3.34091e-05
3.39164e-05
3.45564e-05
3.53894e-05
3.62193e-05
3.64885e-05
3.65979e-05
3.66037e-05
3.69137e-05
3.76464e-05
3.82249e-05
3.85138e-05
3.85958e-05
3.83544e-05
3.81245e-05
3.80117e-05
3.80837e-05
3.82851e-05
3.88609e-05
3.96446e-05
4.0073e-05
4.01525e-05
3.91511e-05
3.71284e-05
3.62549e-05
3.61583e-05
3.65988e-05
3.76946e-05
4.00605e-05
4.45746e-05
5.31719e-05
6.62198e-05
7.39252e-05
7.6894e-05
7.9563e-05
8.26475e-05
9.18779e-05
0.00011076
0.000128677
0.000135432
0.000138599
0.000138458
0.000136203
0.000132846
0.000126973
0.000117675
0.000102052
8.17159e-05
6.48682e-05
5.38155e-05
4.90722e-05
4.72018e-05
4.65396e-05
4.64596e-05
4.737e-05
4.88068e-05
5.17502e-05
5.45776e-05
5.69489e-05
5.88369e-05
5.97837e-05
6.01069e-05
5.95201e-05
5.82739e-05
5.72311e-05
5.63636e-05
5.58129e-05
5.49797e-05
5.45409e-05
5.43778e-05
5.45965e-05
5.46722e-05
5.36527e-05
5.20141e-05
4.98972e-05
4.78787e-05
4.6634e-05
4.38648e-05
4.1773e-05
4.05508e-05
4.07501e-05
4.27755e-05
4.60781e-05
4.76322e-05
4.95911e-05
4.89181e-05
4.98368e-05
4.98816e-05
5.12864e-05
5.15407e-05
5.16192e-05
5.25623e-05
5.33038e-05
5.4799e-05
5.63567e-05
5.70315e-05