/*--------------------------------*- C++ -*----------------------------------*\
| =========                 |                                                 |
| \\      /  F ield         | OpenFOAM: The Open Source CFD Toolbox           |
|  \\    /   O peration     | Version:  dev                                   |
|   \\  /    A nd           | Web:      http://www.openfoam.org               |
|    \\/     M anipulation  |                                                 |
\*---------------------------------------------------------------------------*/
FoamFile
{
    version     2.0;
    format      ascii;
    class       volScalarField;
    object      p;
    location    "9.146";
}
// * * * * * * * * * * * * * * * * * * * * * * * * * * * * * * * * * * * * * //

dimensions      [1 -1 -2 0 0 0 0];

internalField   nonuniform List<scalar> 
12225
(
92124.1
92145.3
92216
92334
92480.8
92659.7
92854.5
93070.7
93295.7
93534.2
93772.2
94022
94264.1
94521.8
94766.2
95021.7
95319.7
95518
92123.7
92148.2
92219.4
92337.3
92484
92662.9
92857.4
93073.6
93298.5
93536.8
93774.7
94023.7
94266.2
94522.4
94766.1
95029.2
95300.9
95590.5
92130
92156.6
92228.2
92345.7
92492
92670.8
92865.2
93080.9
93305.7
93543.4
93781.3
94028.3
94271.7
94524.1
94769.6
95029.8
95283.3
95582.4
92143.1
92171.5
92243.5
92360.5
92506.7
92684.9
92879.3
93094.2
93319
93555
93793.3
94037.6
94281.2
94530.1
94774.5
95028.2
95272.9
95532.3
92165
92195.2
92267.1
92383.3
92529.6
92706.9
92901.5
93115.4
93339.9
93573.9
93811.8
94053.6
94297.7
94541
94787.1
95028.8
95271.7
95539.4
92198.1
92229.7
92300.5
92416.5
92562.5
92738.9
92933.1
93146.5
93370.4
93602.6
93839.4
94079.3
94322.8
94562.1
94808.3
95042.5
95292.2
95535.3
92242.1
92277.4
92346.8
92462.8
92608.4
92783.5
92978
93189.4
93413.1
93643.2
93879.3
94117.3
94359
94595.9
94840.4
95068.5
95316.4
95539.8
92295.5
92332.1
92400.8
92516.4
92661.8
92835.5
93030
93239.9
93463
93691.9
93926.9
94163.2
94402.3
94636
94875.3
95099.7
95332.1
95545.3
92355.2
92391.2
92459.9
92574.8
92720
92892.6
93086.8
93295.2
93517.3
93745.3
93979.3
94212.9
94448.4
94679.9
94911.3
95132.5
95350
95555.1
92435.1
92469.4
92539.3
92652.8
92797.7
92968.9
93162.3
93369.7
93590.5
93816.5
94048.3
94279.5
94510.3
94737.5
94961.4
95175.9
95384.2
95579.7
92542.5
92574.3
92645.1
92757
92901.2
93071.2
93263.3
93469.4
93688
93911.6
94139.5
94367.4
94593.1
94815
95030.6
95238.6
95435.8
95622.1
92688.3
92715.1
92786.1
92895.9
93039
93207.3
93397.5
93601.4
93816.9
94037.3
94261.2
94484.2
94704.1
94919.7
95127.2
95327.2
95515.1
95691.8
92886
92903.7
92972.3
93080
93221.5
93387.5
93575.1
93776.1
93987.8
94204.1
94422.9
94640.2
94853.8
95061.7
95261.2
95452
95631.2
95798.9
93138.8
93150.1
93216.6
93322.5
93461.5
93625.1
93809
94006.4
94213.3
94424.5
94637.2
94847.7
95053.8
95253.3
95444.2
95625.5
95795.7
95954.2
93448.2
93466.7
93533.8
93638.5
93775
93935.4
94115
94307.6
94508.6
94713.5
94918.9
95121.4
95318.8
95509.3
95690.8
95862.2
96022.7
96171.9
93843.3
93869.8
93939.9
94044.8
94178.8
94335.8
94510.3
94696.8
94890.6
95087.6
95284.3
95477.6
95665.2
95845.4
96016.5
96177.7
96328
96467.2
94334.1
94375.6
94451.6
94557.3
94688.9
94841.4
95009.6
95188.5
95373.9
95561.6
95748.2
95930.9
96107.6
96276.6
96436.4
96586.3
96725.4
96853.7
94913.1
94956.7
95033.5
95138.5
95267.3
95414.8
95576.4
95747.4
95923.6
96101.2
96277.1
96448.8
96614.1
96771.5
96919.7
97058
97185.9
97303.2
95466.1
95511.2
95587.1
95690.2
95815.6
95958.5
96114
96277.8
96445.7
96614.3
96780.8
96942.6
97097.8
97244.9
97382.9
97511
97628.8
97736.2
95949.9
95986
96058.9
96159.8
96282.2
96420.9
96571.3
96729
96890.1
97051.4
97210.1
97363.8
97510.7
97649.5
97779.1
97898.8
98008.4
98107.7
96341.4
96375.5
96447
96545.7
96665.3
96800.5
96946.6
97099.4
97255.2
97410.6
97563.1
97710.4
97850.6
97982.5
98105.4
98218.5
98321.6
98414.4
96645.4
96686.3
96757.1
96853.9
96971
97103.1
97245.7
97394.6
97546
97696.9
97844.5
97986.7
98121.7
98248.3
98365.9
98473.9
98571.8
98659.5
96895.5
96930.5
96998.8
97093.3
97207.9
97337.4
97477.3
97623.3
97771.5
97918.8
98062.7
98200.9
98331.8
98454.5
98568.1
98672.1
98766
98849.8
97086.3
97115.4
97181.5
97274
97386.7
97514.3
97652.2
97795.9
97941.6
98086.3
98227.2
98362.4
98490.4
98610.2
98720.8
98821.7
98912.7
98993.6
97215.7
97250
97315.4
97406.4
97517.5
97643.7
97780.1
97922.3
98066.2
98208.8
98347.7
98480.7
98606.7
98724.4
98832.7
98931.4
99020.3
99099.1
97313.6
97345.8
97409.9
97499.7
97609.9
97735.2
97870.6
98011.6
98154.3
98295.6
98433
98564.7
98689.1
98805.2
98912
99009.2
99096.5
99174
97379.4
97410.2
97473.4
97562.4
97672
97796.9
97931.6
98071.8
98213.8
98354.3
98490.8
98621.5
98744.9
98859.9
98965.6
99061.8
99148.1
99224.6
97420
97450.5
97512.8
97601.4
97711
97835.7
97970.1
98109.9
98251.3
98391.4
98527.4
98657.5
98780.2
98894.5
98999.6
99095.1
99180.8
99256.6
97443.4
97472.6
97533.9
97622.8
97732.7
97857.3
97991.6
98131.2
98272.5
98412.3
98548
98677.7
98800.1
98914
99018.7
99113.8
99199.1
99274.5
97457.5
97482.7
97543.1
97631.9
97741.7
97866.4
98000.6
98140.2
98281.3
98421
98556.6
98686.2
98808.4
98922.1
99026.7
99121.6
99206.7
99281.9
106628
106626
106621
106612
106600
106585
106567
106547
106524
106499
106471
106439
106405
106367
106326
106281
106233
106181
106125
106065
106002
105936
105865
105791
105713
105633
105549
105461
105370
105276
105178
105075
104967
104853
104734
104608
104476
104337
104191
104037
103876
103707
103528
103340
103142
102935
102719
102492
102256
102010
101754
101489
101215
100930
100636
100332
100019
99697.1
99366.5
99028.1
98681.9
98327.7
97968.5
97608
97247
96886.3
96531.2
96179.8
95825.6
95480
95141.8
94817.2
94508.5
94206.7
93912.9
93631.6
93364.5
93112.7
92876.9
92657.5
92454.5
92267.6
92096.6
91940.8
91799.6
91672.3
91558
91455.8
91364.8
91284.5
91213.9
91152.2
91099.2
91054.4
91017
90986.5
90962.2
90944.2
90931.5
90924.3
90922
90923.9
90929.4
90937.7
90947.7
90958.5
90968.6
90976.1
90979
90975.5
90963.6
90941.8
90908.2
90859.8
90795.8
90715.7
90616.9
90499.1
90364.8
90214.3
90038.8
89828.6
89588.8
89327.2
89046.9
88756.4
88471.6
88204
87957.7
87728.8
87512.6
87307.2
87111.2
86923.3
86735
86537.7
86333.2
86132.8
85941.2
85735.5
85522.8
85305.1
85057.7
84798.2
84528.9
84254.7
83980.6
83707.6
83432.3
83161.2
82907.2
82674.6
82464.9
82289
82148.8
82042.3
81967.8
81938
81961.7
82043.1
82178
82360.1
82581.4
82838.5
83130.7
83446.6
83785.6
84130.5
84443.3
84773.8
85102.5
85407.3
85687
85934.8
86146.9
86326.1
86499.6
86671.5
86841.4
87016.3
106534
106531
106526
106518
106507
106492
106475
106455
106433
106408
106381
106350
106317
106280
106239
106196
106149
106098
106043
105985
105922
105856
105786
105713
105636
105557
105473
105387
105297
105203
105105
105003
104896
104784
104666
104542
104412
104274
104129
103977
103818
103649
103471
103284
103088
102882
102666
102441
102206
101962
101709
101447
101175
100894
100602
100300
99988.7
99669
99340.7
99005
98662
98311.7
97958.4
97601.9
97243.1
96885.3
96528.9
96179
95837.8
95493.6
95154.3
94829.9
94521.2
94221.9
93932.1
93655.1
93392.4
93144.9
92913.1
92697.5
92498.1
92314.7
92147
91994.3
91856
91731.6
91620
91520.6
91432.2
91354.4
91286.1
91227
91176.4
91133.7
91098.5
91070.2
91047.9
91032.2
91021.7
91016.1
91015.5
91019
91026
91035.7
91046.8
91058.7
91069.5
91077.5
91081.1
91078.4
91067.3
91046.7
91013.3
90964.8
90902
90824.1
90726
90607.6
90474
90328.1
90158.3
89949.5
89705.6
89438.2
89154
88861.6
88576.2
88306.7
88058.2
87828.7
87613.9
87409.5
87213.4
87024.6
86833.1
86630
86421.8
86222.2
86032
85825.6
85608.6
85389.6
85140.9
84882
84613.2
84339.3
84062.8
83788.2
83512.7
83241.2
82985.8
82753
82540.9
82364.7
82224
82115.3
82038.3
82006.4
82028.1
82107.8
82241
82421.8
82641.5
82896.9
83189.8
83505.3
83846.2
84196.6
84497.8
84837.1
85164.1
85471.4
85752
85998.7
86207.2
86384.4
86558.3
86729.5
86896.5
87065.2
106350
106348
106343
106335
106324
106310
106295
106277
106257
106234
106207
106178
106146
106110
106072
106030
105985
105936
105883
105826
105765
105701
105632
105560
105485
105407
105325
105240
105152
105059
104963
104863
104757
104647
104530
104408
104280
104146
104004
103855
103698
103531
103355
103172
102979
102776
102563
102341
102110
101871
101621
101363
101095
100817
100529
100229
99922.3
99608.7
99288.2
98960.2
98624.4
98282.4
97936.8
97588.9
97239.8
96891.6
96543.8
96192.3
95850
95514.8
95182.9
94862.3
94554.8
94259.6
93977.1
93708.2
93453.4
93213.5
92989.2
92780.6
92587.9
92410.8
92249.1
92102.1
91969.4
91850.3
91743.8
91649.1
91565.8
91492.6
91429
91374.8
91328.7
91290.4
91259.5
91235.6
91217.5
91205.6
91199.5
91197.8
91200.6
91207.6
91217.5
91230.4
91244.4
91258.7
91271.8
91281.6
91286.6
91284.9
91275.3
91258
91226
91176.8
91117
91044.2
90948.1
90828.7
90695.1
90550.1
90387.3
90188.7
89945.2
89670.5
89378.4
89082.4
88797
88526.3
88274
88041.5
87825.6
87620.4
87423.1
87230.3
87034.3
86823.9
86609.2
86407.2
86219.1
86012.3
85788.6
85559
85311.9
85054
84784.1
84508.4
84229.8
83953.4
83678.4
83406.3
83150.7
82917.3
82701.5
82524.8
82380.4
82268.3
82187.9
82152.5
82170.5
82247.9
82377.3
82554.7
82770.5
83021.4
83316
83630.5
83972.9
84321.1
84631.2
84968.1
85299.7
85612.9
85897.3
86140.5
86340.7
86517.2
86692.8
86861.7
87020.8
87180.7
106084
106082
106078
106070
106061
106049
106036
106020
106001
105980
105955
105927
105896
105863
105827
105788
105745
105698
105647
105592
105533
105470
105404
105334
105261
105186
105107
105025
104939
104849
104755
104657
104554
104446
104332
104213
104087
103956
103818
103672
103519
103358
103187
103009
102821
102622
102413
102196
101970
101734
101491
101239
100977
100702
100416
100123
99823.1
99517.2
99205.7
98887.1
98562.7
98236
97904.5
97569.7
97233.4
96891.6
96549
96207.4
95868.1
95538.3
95218
94908.7
94610.7
94324.6
94051.7
93792.7
93548.2
93318.4
93103.9
92904.8
92721.4
92553
92400
92261.2
92136.4
92024.6
91925.4
91837.4
91760.8
91694.1
91637
91589.4
91549.7
91517.6
91492.9
91474.8
91463.1
91457.1
91456.5
91460.7
91469
91481.3
91496
91513.2
91531.7
91550
91567.3
91581.3
91590.9
91592.8
91585.9
91572.2
91544.3
91495.4
91436.1
91367.4
91278.4
91159.8
91021.8
90868.1
90702.8
90518.3
90289.5
90016.1
89717.4
89418.1
89130
88855.9
88599.5
88363
88145.9
87940.1
87741.4
87540.6
87338.9
87124.3
86904.1
86693.2
86504
86295
86066
85818.1
85573.1
85314.5
85041
84762.5
84481.7
84200.7
83926.3
83655.1
83400.7
83166.9
82944.4
82760.4
82612.5
82496.7
82411.4
82372.2
82385.5
82461.6
82587
82760.4
82971.1
83213.2
83504.2
83819.3
84159.6
84511.5
84818.9
85162.5
85506.1
85830.1
86123.7
86364.8
86554.4
86728.5
86905.4
87071
87222
87373.8
105743
105742
105738
105732
105725
105716
105704
105689
105671
105651
105628
105602
105575
105544
105511
105474
105432
105386
105336
105283
105225
105165
105102
105036
104967
104895
104820
104741
104659
104572
104481
104386
104286
104182
104072
103957
103836
103709
103575
103435
103288
103132
102968
102795
102613
102421
102221
102011
101792
101563
101328
101083
100827
100559
100280
99992.4
99698.7
99400.3
99097.8
98790.1
98479.3
98169
97855.1
97533.6
97207.4
96877.2
96543.1
96212.6
95888.6
95572.1
95265.2
94969.3
94684.9
94412.3
94152.8
93907
93675.3
93458
93255.9
93069.1
92897.7
92741.2
92599.3
92471.4
92356.9
92255
92165.1
92086.1
92017.9
91959.6
91910.5
91870.7
91839
91814.6
91797.8
91786.8
91782.7
91784.2
91790.6
91801.5
91816.4
91835.1
91856.3
91878.6
91902.6
91926.3
91948.9
91968.4
91984.9
91994.7
91994.2
91984.2
91963.4
91920.1
91857
91784.6
91703.5
91594.2
91453
91288.5
91114.9
90934.7
90721.4
90460.6
90158.4
89859.8
89566.7
89287.4
89027.2
88789.1
88572
88370.2
88170.9
87961.2
87751.2
87532.6
87307.4
87088.2
86878.6
86662
86428.8
86170.2
85920.6
85658.9
85383.8
85103.3
84815
84529.7
84255.6
83987.4
83733.7
83496.7
83263.6
83065.3
82911.6
82790.6
82699.6
82654
82662.7
82742.6
82865
83033.2
83242
83474.1
83754.1
84071.2
84405.6
84744.2
85067.7
85415.7
85778.1
86118
86424.9
86669.9
86850.3
87018.2
87193.6
87357
87500.8
87646.3
105336
105335
105333
105329
105323
105315
105304
105290
105275
105257
105237
105214
105189
105161
105129
105092
105051
105005
104957
104906
104851
104795
104736
104674
104609
104542
104470
104395
104317
104234
104147
104056
103961
103862
103756
103646
103531
103409
103282
103149
103008
102860
102704
102539
102365
102182
101990
101789
101578
101359
101132
100896
100646
100384
100112
99832.6
99548.6
99260.4
98968.5
98673.8
98378.8
98082.8
97782.4
97475.1
97162.1
96845.5
96529.5
96217.5
95911.8
95613.9
95324.9
95045.6
94777.2
94520.9
94277.9
94048.4
93832.9
93631.3
93444.2
93272.2
93115.3
92973.2
92845
92730.5
92628.8
92539.1
92460.9
92392.9
92335.2
92287.3
92247.8
92217.2
92195.2
92180.4
92172.8
92170.9
92175.9
92185.9
92200.7
92219.4
92241.7
92267.2
92295.5
92324.1
92354.2
92384.4
92412.8
92439.8
92461.4
92479.4
92488.8
92484.9
92471.3
92440.1
92381.2
92304.3
92224
92123.8
91985.1
91816.9
91638.2
91451.5
91243.1
90990.2
90696.3
90398.6
90101.5
89817
89554.3
89318.1
89106
88909
88710.5
88493.8
88275.3
88049.8
87817.6
87583.4
87336.1
87104.8
86866.5
86606.9
86350
86083.7
85808.3
85526.8
85233.5
84941.4
84667.2
84400.5
84145.2
83901.7
83658
83439.3
83273.3
83143.6
83049.2
82993.3
82998.1
83081
83205.8
83367.4
83571.5
83804.1
84073.9
84379.6
84714.8
85033.2
85359.3
85738.7
86117.5
86472.8
86793.3
87048.2
87225.5
87386
87558.3
87716.8
87854.8
87998.5
104871
104871
104870
104867
104862
104854
104845
104833
104820
104805
104787
104767
104745
104718
104687
104651
104612
104570
104526
104478
104428
104375
104320
104263
104202
104138
104071
104000
103926
103847
103765
103679
103588
103492
103393
103288
103179
103064
102944
102818
102686
102546
102399
102242
102078
101904
101722
101531
101329
101120
100898
100666
100423
100169
99907.4
99641
99369.6
99093.9
98815.9
98537.1
98258.4
97976.7
97690.4
97399.3
97103.6
96807.1
96513.2
96223.6
95939.3
95662
95393
95133.4
94884.7
94648.1
94424.7
94214.6
94017.9
93834.7
93665.1
93509.7
93368.6
93242.2
93129.5
93030.1
92943.3
92868.1
92803.9
92749.7
92704.6
92669
92641
92621.6
92611.4
92608.1
92611.3
92621.8
92637
92657
92681.8
92710.3
92741.5
92775
92810.9
92847.8
92885.3
92922.8
92956.6
92991.7
93019.4
93043.3
93062.9
93067.9
93059.9
93041.1
92996.4
92927
92845.9
92748.5
92609.8
92442.5
92264.2
92073.1
91860.8
91610.5
91323.1
91029.6
90731.8
90443.8
90181.6
89951.9
89745.7
89551.6
89356.6
89137.9
88909.4
88667.2
88415.1
88158.5
87879.7
87629.9
87385.3
87128.6
86863.4
86589.2
86309.5
86027.7
85734.2
85439.1
85159.4
84887.4
84625.7
84378.2
84126.1
83881.9
83698.6
83557.4
83453.4
83388.6
83387.3
83471.3
83608.8
83760.7
83961.1
84193.8
84455
84749.2
85078.6
85387.9
85721.2
86128.4
86525.7
86891.8
87225.4
87492
87672.5
87827.1
87995.5
88149.9
88287.1
88430.5
104356
104357
104356
104354
104349
104343
104336
104326
104315
104303
104288
104271
104251
104227
104198
104166
104132
104096
104057
104014
103968
103920
103868
103815
103759
103699
103636
103569
103499
103424
103347
103265
103179
103089
102996
102898
102795
102687
102572
102454
102328
102196
102058
101910
101755
101591
101418
101235
101043
100843
100632
100406
100171
99929.3
99680.8
99427.1
99168.1
98906
98643.5
98381
98118.9
97854.6
97586.1
97314.4
97040.9
96768.2
96498.4
96232.3
95971.1
95716.1
95469.3
95232.1
95005.9
94791.2
94589.1
94399.7
94223.5
94060.5
93910.6
93774
93651.1
93542
93446.4
93363.3
93292.8
93233.8
93185.7
93147.9
93117.9
93096.4
93082.1
93075
93077.8
93087
93103.8
93127.8
93156.1
93188.5
93224.8
93264.8
93306.6
93350.6
93395.5
93442.1
93487.7
93533.9
93576.1
93618.9
93656.2
93686.2
93712.7
93728
93727.6
93717.1
93687.4
93632.6
93558.4
93463.2
93326.3
93158.8
92980.5
92792.9
92578.6
92325.1
92041.8
91753.9
91458.7
91170.1
90910.7
90686.4
90477.5
90283
90102.4
89890
89646
89388.3
89107.4
88818.9
88519.8
88244.2
87990.2
87735.8
87459.7
87176.2
86887.8
86604.1
86313.1
86016.9
85730.5
85454
85180.2
84923.3
84664.7
84398.8
84193.8
84040.2
83922.2
83849.5
83835
83910.7
84067.1
84211.2
84404
84641.8
84899.1
85182.4
85509.4
85821.3
86171.9
86600
87003.4
87375.1
87716.7
87995.6
88183.8
88338.2
88504.6
88659.1
88797.6
88937.4
103800
103802
103802
103800
103797
103792
103786
103779
103770
103760
103748
103733
103716
103695
103671
103646
103618
103587
103552
103513
103472
103429
103383
103335
103284
103229
103171
103109
103043
102973
102900
102823
102743
102659
102573
102481
102385
102283
102175
102062
101943
101818
101686
101547
101400
101245
101082
100910
100731
100541
100337
100123
99902.6
99675
99440.5
99200
98955.3
98709.5
98464.2
98218.4
97972.3
97725
97476.2
97225.9
96975.7
96727.5
96482.2
96240.6
96003.8
95773.6
95551.6
95339.5
95137.8
94946.9
94767.5
94600.1
94445.1
94303.1
94174.2
94058.8
93956.6
93867.5
93791
93726.2
93672.7
93630.6
93599.2
93579
93567.3
93562.2
93564.5
93571.6
93588
93611.6
93643
93681
93723.9
93771
93820.8
93873.5
93928
93984.2
94040.1
94098.1
94153.1
94210.1
94263.1
94313.9
94361.3
94401.1
94434.7
94460.3
94468.6
94464.8
94446.7
94405.9
94343.3
94256.5
94129.4
93965.5
93782.5
93599.9
93393.2
93138.2
92856.6
92572.5
92281.7
91994.1
91735.9
91511.4
91300.1
91096
90934.8
90728.4
90473.6
90205.9
89904.7
89595
89262.7
88951.6
88690.8
88425.7
88138.1
87845.8
87548.1
87259.1
86975
86679.8
86381.4
86097.9
85815
85541.1
85266.6
84998.1
84769.6
84597.3
84471.5
84386.6
84359.9
84411
84574.5
84717.6
84897.7
85142
85401.6
85684.6
86014.3
86336.4
86713.8
87148.3
87546.6
87923.6
88266.5
88556.1
88755.6
88917.2
89085
89243
89379.8
89517.6
103215
103217
103218
103217
103216
103212
103207
103202
103195
103186
103176
103164
103149
103133
103115
103094
103070
103043
103013
102980
102946
102909
102869
102827
102782
102733
102681
102625
102565
102500
102433
102361
102286
102208
102127
102040
101949
101854
101752
101646
101534
101416
101292
101161
101023
100877
100725
100566
100396
100214
100023
99826.5
99621.4
99407.9
99188.8
98966.3
98740.5
98512.6
98284
98054.8
97825.4
97595.1
97365
97136.1
96908.5
96683.5
96462.2
96245.5
96034.4
95830.3
95634.8
95449.2
95273.7
95108.3
94953.5
94809.6
94677.4
94557.6
94450.5
94356.6
94275.7
94207.1
94150.1
94104.8
94069.9
94045.8
94031.7
94028.9
94036.9
94051.4
94072.9
94098.6
94130.9
94172.2
94218.9
94273.6
94333.1
94395.5
94461.2
94526.9
94595.5
94666.3
94733.3
94805.2
94873.2
94940.9
95007.4
95069.5
95127.4
95178.5
95221.1
95254.9
95274.7
95280.5
95270.4
95240.6
95187.8
95111.3
94998.6
94847.3
94670.2
94491.1
94291.8
94046.8
93766.2
93482
93196
92911.6
92652.2
92420.4
92211.7
92001.9
91834.6
91624.7
91378.2
91110.4
90799.1
90479.7
90106.4
89756.6
89477.9
89202
88903
88598.4
88293.5
87996.7
87716.8
87431.4
87125.9
86817.5
86524.2
86229.1
85937.1
85668.2
85433.2
85230.9
85099.2
85009.2
84968.1
85008.4
85135.7
85283.3
85449.1
85691.3
85957.5
86249.7
86586.3
86921.3
87320
87755.5
88150.5
88534
88877.6
89173.8
89387
89559.7
89730.5
89895.5
90031.8
90173.9
102612
102614
102616
102617
102616
102614
102610
102606
102600
102593
102585
102575
102564
102551
102536
102519
102499
102478
102454
102428
102400
102369
102336
102300
102262
102219
102174
102124
102070
102013
101951
101885
101815
101741
101662
101582
101497
101407
101313
101214
101110
100999
100882
100759
100629
100495
100354
100203
100042
99872.8
99699.4
99519.1
99329.2
99131.8
98929.4
98724.2
98517.2
98308
98097.7
97886.3
97675
97463.9
97253.6
97046.1
96841.4
96640
96443.2
96251.9
96067.3
95890.2
95721.5
95562.2
95412.5
95272.7
95143.2
95023.9
94915.4
94818.5
94733.4
94661.2
94601.1
94552.8
94515.7
94489.6
94474.4
94469.3
94474.6
94490.9
94518.3
94553.4
94594.6
94641
94692.9
94753.5
94820.7
94893.5
94972.2
95051.6
95133.9
95214.5
95299.2
95384.4
95467.9
95552.1
95635.3
95716.5
95796.8
95872
95942.6
96007.2
96061.5
96104.2
96136.8
96153.3
96152.6
96131.2
96086.6
96018.9
95921.8
95790
95628.7
95452
95263.7
95035
94763.5
94477.7
94195.6
93916.4
93657
93415.4
93209.2
93013.7
92815.4
92589.5
92346.7
92089.3
91790.2
91453.7
91066.3
90687.9
90366.9
90070.8
89751
89435
89119.3
88813.8
88524.5
88240.6
87964.2
87641.9
87333.3
87012.4
86711.4
86440
86186.2
85956.3
85807.6
85717.7
85663.3
85695.2
85772.7
85921.3
86070.6
86299
86566.8
86866
87207
87559.9
87977
88418.3
88816.6
89201.7
89548.8
89846.9
90074.2
90259.4
90436.6
90610.3
90751
90901.4
102001
102004
102006
102008
102008
102007
102005
102003
102000
101996
101989
101982
101973
101963
101952
101940
101926
101910
101893
101873
101851
101827
101799
101769
101736
101699
101660
101617
101571
101519
101464
101403
101339
101269
101196
101119
101040
100956
100867
100774
100675
100571
100462
100347
100228
100103
99969.4
99827.2
99677.9
99524.2
99365.9
99200.5
99026.9
98847.4
98662.5
98472.9
98282.4
98091.1
97899.5
97708
97515.9
97325.3
97136.6
96951.2
96770
96593.2
96421.9
96256.6
96098.6
95948.7
95807.3
95675.3
95552.6
95439.2
95335.8
95241.9
95157.2
95083.8
95021.4
94970.2
94930.2
94902
94886.2
94881.2
94886.4
94901.6
94926.8
94963.3
95009.7
95063.8
95124.8
95191.8
95265.1
95345.4
95436.2
95530.2
95628.4
95726.6
95829.9
95920.2
96026
96128.5
96229.5
96328.8
96427.9
96524.9
96620.3
96712.3
96798.6
96875.9
96944.4
96999.5
97043.2
97071.7
97083
97070.4
97033.1
96971.6
96891.7
96783.4
96639.2
96468.9
96295.9
96089.1
95833.7
95550.1
95274.5
95004.1
94747
94505.2
94297.7
94111.2
93891.7
93660
93410.8
93150.8
92872.1
92529
92153.3
91752.4
91380
91041.4
90700.3
90369.3
90033.7
89723.2
89424.2
89112
88843.2
88552
88246.5
87937.6
87610.3
87335.3
87046.9
86792.6
86626.1
86521.8
86458
86457.4
86496
86648.2
86781
86978.3
87239.1
87539.3
87881.6
88255.3
88693.5
89141.2
89545.1
89921.6
90270.4
90567.4
90808
91010.4
91201.5
91384.8
91532.4
91690.7
101391
101394
101398
101401
101403
101404
101404
101405
101406
101404
101401
101397
101392
101386
101379
101371
101362
101351
101339
101324
101308
101288
101266
101241
101213
101182
101148
101112
101072
101028
100979
100925
100866
100802
100735
100663
100587
100507
100423
100334
100240
100142
100039
99933.1
99821.5
99703.4
99578.2
99446.9
99310.7
99170.2
99024.9
98873.5
98715.2
98551.7
98384.4
98212.5
98038.8
97865
97691
97517.9
97345.8
97175.6
97008.9
96846.4
96689
96537.1
96391.7
96253.2
96122.1
95999.3
95884.8
95779.4
95683.5
95596.7
95519.5
95452.4
95393.2
95343.4
95304.3
95275.5
95257.5
95249.4
95252.8
95268.6
95294.7
95332.2
95378.5
95435.2
95500.9
95572.6
95653.7
95741.2
95836.2
95939.4
96053.5
96170.6
96292.5
96401.4
96524.7
96642.6
96764.7
96885.3
97004.4
97123
97238.9
97353.9
97465.5
97572.9
97676.8
97770.8
97854.1
97926.9
97986.4
98026.2
98049.6
98049.5
98022.8
97971.3
97905.1
97818.4
97691.2
97535.5
97377.1
97197.1
96960.5
96686.7
96421.7
96162.3
95910.4
95676.3
95466
95261.3
95041.8
94826.8
94577.9
94301.8
94022.8
93696.6
93335.6
92920.7
92511.4
92131.7
91771.8
91414.7
91061.1
90745.6
90440.7
90101.9
89799.7
89529.7
89238.1
88966.6
88638.4
88333.6
88017.5
87743.8
87565.6
87432.4
87369.9
87337.3
87321.2
87428
87566.1
87741.6
87989.1
88286.3
88627.7
89017.6
89470.4
89920.8
90327.8
90690.2
91031
91327.2
91582.9
91809.7
92021
92216.4
92370.7
92532.7
100791
100795
100799
100804
100808
100811
100815
100819
100822
100826
100827
100827
100825
100823
100819
100815
100809
100802
100794
100783
100771
100756
100739
100720
100698
100674
100646
100615
100581
100542
100499
100452
100399
100341
100279
100212
100141
100064
99982.4
99897.4
99808.5
99716.1
99619.9
99519.6
99414
99302.5
99186.2
99065.7
98941.2
98813
98680.3
98542.2
98398.2
98248.6
98095.8
97941
97785
97629.2
97473.7
97318.7
97165.9
97016.5
96871.3
96731.5
96597.8
96470.6
96350.8
96239
96135.4
96039.9
95952.6
95873.5
95803.3
95742.2
95690
95648
95614.9
95589
95572.2
95565.3
95569.4
95583.8
95607.9
95643.8
95690.2
95747.5
95815.6
95892.1
95978.2
96069
96169.2
96280.9
96397.1
96517.6
96664.8
96797.1
96938
97075.2
97215.2
97356.8
97497.2
97638.3
97777.2
97916.8
98053.3
98187.5
98320.8
98444.8
98565.7
98680.4
98780
98870.8
98948.8
99004.8
99041.7
99057.6
99047.8
99012.5
98959.7
98889.2
98782.5
98644.9
98499.3
98340.9
98130
97878.3
97625.1
97369
97128
96899
96680.1
96450.5
96240.1
96043.6
95812.9
95526
95225
94923.1
94568.7
94159.3
93745.4
93346.5
92962.6
92577.9
92211.1
91886
91557
91219.1
90892.6
90606.7
90325.4
90060
89787.4
89439.9
89102.7
88829.7
88632.5
88464
88398.5
88348.6
88257.8
88280.9
88411.5
88593.7
88826
89118.7
89452.1
89849.5
90306.1
90753.8
91157.9
91510.3
91834.9
92130
92401.2
92654.4
92888.8
93100.4
93258.9
93416.4
100208
100212
100216
100221
100227
100233
100240
100249
100257
100265
100270
100274
100276
100277
100277
100275
100272
100268
100262
100255
100248
100239
100228
100216
100201
100183
100162
100136
100107
100072
100034
99990.2
99942
99888.7
99830.3
99767.2
99699.4
99627.1
99550.6
99470.2
99386.3
99298.8
99207.1
99110.7
99010.1
98905.3
98797.2
98686
98571.9
98455.1
98334.5
98209.3
98079.2
97944
97804.9
97665
97525.5
97386.8
97249.5
97113.4
96979.6
96850.3
96726.3
96608.4
96497.7
96394.7
96300
96213.8
96136.6
96067.9
96007
95954.4
95909.7
95873.4
95845.7
95827.1
95818.3
95817.4
95823.6
95837.5
95860.8
95895.8
95942.1
95999.3
96067.6
96144.3
96231.4
96329
96431.5
96544.7
96663.8
96796.6
96937
97082.5
97241.8
97398.9
97559
97720.6
97882.8
98047.7
98209.8
98374.1
98535.5
98695.2
98855.6
99010.3
99166.1
99314
99452.1
99586.8
99707.6
99817.7
99911.3
99990.6
100047
100083
100093
100077
100040
99982.8
99897.3
99780.6
99647.4
99508.3
99327.2
99104.9
98868.4
98615.6
98382.1
98145.2
97916.8
97682.2
97484.6
97296.4
97078.5
96798.7
96488.1
96191.4
95855.1
95469.2
95072.3
94665.4
94246.9
93840
93448.1
93109.5
92739.5
92401.3
92093.4
91801.4
91551.1
91299.9
91054.7
90699.4
90351.9
90059.4
89836
89647.2
89532.2
89418.6
89305.2
89260.5
89342.2
89515.6
89737.9
90029.8
90351.9
90749.7
91206.9
91643.4
92036.5
92385.9
92697.4
92985.6
93266.5
93546.6
93806.8
94029.5
94190.4
94333.5
99647.6
99651.2
99655.1
99661.2
99669.6
99679.2
99691.4
99704.6
99715.8
99725.5
99735.6
99744.6
99751.1
99755.5
99758.3
99759.2
99758.3
99756.1
99753.2
99749.8
99746.4
99742.9
99738.9
99733.4
99725.6
99714.7
99699.8
99680.4
99655.9
99626.1
99590.7
99550
99504.3
99453.9
99398.7
99338.8
99274.3
99205.7
99133.3
99057
98976.9
98892.9
98804.7
98712.1
98616.1
98517.4
98416.2
98312.9
98207.6
98100.4
97990.7
97877.3
97760
97638.9
97514.2
97388.5
97264.1
97141.5
97021.1
96903.3
96788.5
96678.5
96574.8
96478.3
96389.9
96310
96239.4
96177.9
96125.1
96081.4
96045.9
96017.9
95998
95985.7
95981.5
95985.6
95999
96020.6
96049.4
96085.9
96130.3
96184.4
96250.1
96326.2
96414.4
96513.1
96616
96733.6
96855.5
96987.4
97128
97280.3
97442.7
97610.4
97788
97966.2
98147.3
98330.4
98514.5
98701.2
98887
99073.7
99261.7
99445.7
99630.7
99809
99986.1
100159
100320
100475
100619
100751
100866
100968
101044
101101
101134
101140
101122
101083
101018
100923
100805
100685
100536
100342
100128
99895.3
99651.8
99409.3
99173.2
98950.9
98772.4
98590.5
98375.8
98111.6
97811.1
97505.9
97200.2
96844.5
96460.4
96041.8
95589.9
95163
94747
94389.3
94000.7
93638.9
93347.6
93083.4
92879
92682.5
92406.5
92083.5
91723.5
91396
91148.7
90969.1
90769.7
90562.9
90438.6
90393.8
90399.9
90499.5
90698.8
90997.7
91320
91712.2
92174.3
92593.1
92964.4
93315.4
93623.6
93899.1
94182.3
94488.7
94770.9
94999.9
95160.9
95280.1
99115.1
99119.9
99125.4
99132.2
99141.8
99154.6
99170.1
99186.4
99202
99217.4
99232.7
99246.9
99258.6
99267.6
99273.6
99276.6
99277
99275.8
99274
99272.8
99273.2
99275.2
99277.6
99279.2
99278.4
99274.3
99265.8
99251.7
99231.7
99205.4
99173.4
99135.5
99092.2
99043.6
98990.4
98932.7
98870.7
98804.7
98735
98661.4
98583.8
98502.3
98417.1
98328.3
98236.6
98142.9
98047.6
97951
97853.3
97754.4
97653.8
97550.7
97444.7
97336.2
97225.4
97113.6
97003.2
96895.4
96790.7
96689.8
96593.2
96502.3
96418.5
96342.6
96275.5
96217.8
96169.4
96131
96101.4
96080.3
96068
96063
96066.2
96076.6
96094.3
96120
96154.1
96197
96245.6
96301.8
96367
96441.4
96525.5
96620.2
96725.4
96841.5
96965.7
97099.6
97240.5
97391.1
97552
97723.9
97905.3
98092.1
98288
98486.4
98688.7
98894.6
99101.3
99310.3
99519.7
99730.2
99942.3
100149
100359
100565
100766
100964
101150
101328
101498
101651
101792
101918
102017
102095
102151
102183
102188
102168
102126
102055
101957
101856
101737
101574
101384
101181
100939
100692
100452
100247
100089
99920.7
99715.6
99474
99195.7
98894.1
98610.4
98277
97891.2
97461.3
96998.4
96555.6
96138.5
95744.1
95359.9
94972.5
94663.2
94419.3
94236.5
94078.4
93792.2
93504.2
93134.4
92793.1
92529.4
92343.6
92122.1
91854.8
91689
91640.7
91595.7
91595.4
91733.3
92033.8
92357.8
92732.2
93194.5
93589.8
93934.7
94293.9
94604.8
94864.1
95147.6
95475.3
95777.4
96010.2
96165.4
96256.6
98605.1
98611.5
98619.7
98630.2
98642.8
98658.7
98677.7
98698.8
98721.6
98744.2
98765.9
98785.8
98802.5
98815.6
98825
98830.4
98832.7
98833.2
98833.4
98835.5
98840.8
98848.7
98857.3
98864.9
98869.3
98869.6
98865.1
98854.5
98837
98811.8
98781.3
98745.4
98704.2
98658
98606.7
98550.7
98490.6
98426.4
98358.1
98286.1
98210.2
98130.5
98047.5
97961.8
97873.9
97784.5
97694
97602.8
97511.1
97419
97326.5
97232.6
97137.1
97040
96942
96843.8
96746.8
96652.9
96563
96477.9
96398.5
96325.6
96260.6
96204.2
96156.9
96119.5
96092
96074
96064.9
96064.7
96072.9
96088.6
96112.5
96143.6
96181.4
96226.7
96279.8
96341.8
96410.1
96485.3
96568.2
96661.3
96763.1
96874.9
96996.7
97129.3
97271.9
97421.6
97579
97747
97925.4
98113.6
98309.9
98514.8
98726.4
98945
99167
99394.9
99624.8
99856.7
100091
100325
100562
100794
101027
101259
101484
101708
101922
102125
102323
102500
102669
102820
102948
103049
103130
103188
103218
103220
103204
103161
103088
103008
102920
102790
102630
102454
102235
101986
101753
101565
101415
101256
101069
100856
100605
100332
100066
99737.3
99348.3
98925
98478.1
98043.7
97636.8
97199.2
96808
96422.1
96069.5
95812.5
95610.4
95434
95214.2
94940.9
94562
94240.5
93935.7
93752.3
93538.8
93274.9
93058.3
92947.7
92868.5
92826.3
92892.7
93171.5
93474.5
93817.1
94252.3
94616.8
94945.2
95316.7
95628.7
95872.9
96157.2
96501.7
96823.8
97055.7
97200.8
97263.5
98197.6
98205.3
98215.6
98228.9
98244.6
98264.6
98288.6
98317.8
98350.1
98381.3
98409.4
98434.4
98454.9
98471
98482.9
98490.9
98496
98500
98504.4
98510.5
98519.6
98530.8
98541.3
98549.7
98554.7
98555.4
98551.4
98541.9
98525.6
98502
98471.8
98435.7
98394.5
98348.9
98299.1
98244.7
98185.6
98122.2
98054.7
97983.4
97908.5
97830.3
97748.9
97665
97579.2
97492.3
97404.8