/*--------------------------------*- C++ -*----------------------------------*\
| =========                 |                                                 |
| \\      /  F ield         | OpenFOAM: The Open Source CFD Toolbox           |
|  \\    /   O peration     | Version:  dev                                   |
|   \\  /    A nd           | Web:      http://www.openfoam.org               |
|    \\/     M anipulation  |                                                 |
\*---------------------------------------------------------------------------*/
FoamFile
{
    version     2.0;
    format      ascii;
    class       volScalarField;
    object      p_0;
    location    "9.146";
}
// * * * * * * * * * * * * * * * * * * * * * * * * * * * * * * * * * * * * * //

dimensions      [1 -1 -2 0 0 0 0];

internalField   nonuniform List<scalar> 
12225
(
94226.6
94212.7
94236.4
94297.6
94380.6
94489.6
94609.8
94747.5
94891.2
95046
95198.8
95361.9
95516.5
95684.1
95835.3
95990.5
96163.6
96229
94224.6
94213.8
94238.1
94299.4
94382.3
94491.2
94611.4
94749
94892.7
95047.2
95200
95362.1
95517.6
95683.9
95835.2
95999.8
96153.5
96351.1
94226.5
94218.1
94243.2
94304.3
94386.9
94495.9
94615.9
94753.1
94896.8
95051
95203.9
95364.2
95520.9
95684.1
95839.1
96005.6
96180.1
96373.8
94230.3
94226.2
94252.3
94313.1
94395.9
94504.3
94624.6
94761.2
94905
95057.8
95211.2
95369.4
95526.6
95687.5
95843.9
96009.8
96171.3
96340.6
94241.5
94239.9
94266.2
94326.6
94409.9
94517.7
94638.4
94774.3
94917.9
95068
95222.6
95379
95537.4
95694.3
95855
96011.4
96174
96355.1
94262.2
94260.2
94285.7
94346.6
94430
94537.3
94657.9
94793.6
94937.1
95086.5
95239.9
95395.2
95553.9
95708.7
95871.5
96023.3
96195.4
96359.7
94289.8
94288.3
94312.7
94374.4
94458
94564.7
94685.9
94820.3
94964.1
95112.5
95265.5
95419.5
95577.8
95732.1
95895.4
96045.2
96219.5
96369.9
94321
94320.5
94344.5
94406.7
94490.9
94597
94718.6
94852
94995.7
95143.6
95296.4
95450.5
95607
95759
95920.1
96068.7
96230.3
96374
94354.1
94354.7
94379.6
94442
94526.7
94632.5
94754.3
94886.8
95030.1
95177.8
95330.5
95483.1
95637.7
95791.3
95944.2
96091.1
96237.9
96377.8
94402.7
94399.6
94426.9
94489.2
94574.6
94679.9
94801.7
94933.9
95076.6
95223.2
95374.8
95526.3
95677.8
95828.2
95976.4
96118.7
96259.4
96389.8
94463.3
94459.7
94489.7
94552.1
94638.2
94743.3
94864.8
94996.7
95138.2
95283.5
95432.6
95582.2
95730.5
95877.1
96019.5
96157.5
96288.4
96412.5
94537.2
94539.6
94573.2
94635.7
94722.5
94827.2
94948.3
95079
95218.7
95362.2
95508.9
95655.2
95799.8
95942.1
96078.8
96211
96334.7
96451.2
94645.5
94648.1
94683.4
94746.2
94833.2
94937.4
95057.4
95186.8
95324.4
95465.4
95608.9
95751.6
95892.1
96029
96160.1
96285.6
96402.7
96512.1
94798.1
94793
94828.2
94891
94977.6
95081.3
95199.5
95327.3
95462
95600.2
95739.7
95878
96013.5
96144.6
96269.7
96388.2
96498.7
96601
94987.8
94982
95016.2
95078.4
95164.2
95266.6
95382.9
95508.2
95639.6
95773.9
95908.9
96042
96171.8
96296.7
96415.2
96526.6
96630
96725.4
95221.1
95219.4
95254.3
95316.4
95400.7
95501.8
95615.5
95737.5
95864.8
95994.4
96124
96251.4
96374.7
96492.7
96604.3
96708.6
96804.8
96893
95492.3
95508.2
95547.2
95609.8
95692.8
95791.7
95902
96020
96142.6
96266.9
96390.5
96511.4
96627.9
96738.8
96843
96939.8
97028.5
97109.4
95805.7
95823.1
95866.2
95930.7
96013.5
96110.3
96217.4
96331.4
96449.1
96567.8
96685.4
96799.8
96909.5
97013.4
97110.5
97200.3
97282.1
97356.2
96099.4
96113.6
96158.1
96224
96306.6
96402
96506.8
96617.5
96731.2
96845.4
96957.9
97067
97171.1
97269.1
97360.3
97444.2
97520.2
97588.6
96319.1
96346.2
96396.5
96465
96548.1
96642.9
96746
96854.3
96965
97075.8
97184.5
97289.4
97389.1
97482.7
97569.3
97648.6
97720.2
97784.2
96504.4
96534.8
96587.9
96657.7
96741.2
96835.5
96937.5
97044.2
97152.9
97261.2
97367.1
97468.9
97565.2
97655.3
97738.4
97814.3
97882.5
97943.1
96659.2
96684.4
96737.9
96808.3
96892
96985.9
97087.2
97192.8
97300.1
97406.5
97510.3
97609.8
97703.6
97791.1
97871.6
97944.9
98010.6
98068.6
96771.7
96799.3
96853.1
96923.4
97006.8
97100.4
97201.2
97306.3
97412.6
97517.8
97620
97717.6
97809.6
97895.2
97973.9
98045.2
98109
98165.1
96854.5
96885.8
96939.3
97009
97092.2
97185.7
97286.4
97391
97496.6
97600.8
97701.8
97798.2
97888.9
97973.2
98050.4
98120.3
98182.6
98237.4
96922
96950.5
97002.4
97071.2
97153.9
97247.4
97348
97452.4
97557.6
97661.1
97761.2
97856.7
97946.5
98029.9
98106.1
98175
98236.3
98290.2
96970.1
96996.6
97046.7
97114.4
97196.9
97290.6
97391.3
97495.5
97600.3
97703.4
97803
97898
97987.2
98069.8
98145.3
98213.4
98274.2
98327.5
97000.4
97027.5
97076.1
97143
97225.6
97319.3
97420.1
97524.3
97629
97731.9
97831.3
97925.8
98014.6
98096.7
98171.7
98239.4
98299.7
98352.6
97023.3
97046.7
97093.7
97160.4
97243.2
97337.2
97438.1
97542.3
97647
97749.9
97849.1
97943.4
98031.8
98113.6
98188.3
98255.8
98315.8
98368.3
97036.4
97056.8
97102.6
97169.7
97252.8
97347.1
97448.2
97552.5
97657.2
97760
97859.1
97953.3
98041.5
98123.1
98197.7
98264.9
98324.7
98377
97045.8
97062
97106.6
97173.6
97256.8
97351.2
97452.3
97556.7
97661.4
97764.2
97863.3
97957.3
98045.5
98127
98201.5
98268.6
98328.3
98380.5
106131
106129
106126
106120
106112
106101
106089
106074
106058
106039
106018
105993
105966
105936
105903
105866
105826
105781
105733
105680
105624
105564
105499
105430
105358
105281
105202
105118
105031
104940
104845
104746
104643
104535
104422
104304
104182
104054
103922
103785
103646
103502
103353
103200
103041
102878
102711
102539
102363
102183
101999
101812
101619
101422
101218
101010
100795
100575
100347
100113
99872.2
99623.4
99369
99112.5
98854.3
98594.2
98335.7
98076.5
97811.2
97551.1
97294
97044.9
96806.9
96572.8
96342.9
96121.2
95909.6
95709.6
95522.3
95348.5
95188.7
95043
94911.5
94794
94689.8
94598.7
94519.7
94451.9
94394.3
94346
94305.9
94272.6
94245.2
94222.8
94204
94187.8
94173.1
94159.2
94145
94130.3
94114.3
94096.2
94076
94053.2
94027.9
94000.4
93970.5
93937.9
93902.2
93862.7
93819.2
93770.6
93717
93656.6
93589.1
93513.1
93425.7
93325.9
93217.8
93102.3
92968.8
92806.7
92616.9
92404.3
92170.5
91925.8
91685.6
91457.5
91240
91026.1
90808.9
90585.2
90354
90114.9
89860
89582.1
89286.6
88994.7
88721.5
88448.5
88181
87921.5
87642.1
87365.4
87091.2
86820.5
86558.3
86302.1
86042.2
85785.7
85552.8
85349.5
85182.7
85061.8
85000.9
84997.1
85048.2
85164.5
85351.3
85601.3
85902.4
86244.9
86618.3
87020.6
87452
87895.4
88360.5
88824.2
89247.7
89681.1
90083
90442.8
90745.1
90972.2
91115.6
91182.4
91211.8
91230.2
91255.4
91308.3
106043
106042
106038
106033
106024
106014
106001
105987
105971
105952
105932
105908
105881
105852
105819
105784
105744
105700
105653
105601
105546
105486
105422
105354
105282
105207
105127
105045
104958
104868
104774
104675
104573
104466
104354
104237
104117
103991
103861
103727
103587
103442
103293
103139
102982
102821
102653
102481
102306
102127
101945
101759
101568
101371
101169
100962
100748
100528
100303
100071
99832.9
99587.2
99337.3
99084
98827.7
98568.2
98306
98049.3
97797.1
97538.1
97279.6
97030.8
96793.3
96561.4
96335.1
96117.5
95910.2
95714.5
95531.3
95361.5
95205.6
95063.6
94935.7
94821.6
94720.8
94632.9
94557.1
94492.6
94438.2
94393.1
94355.9
94325.9
94301.7
94282.4
94266.6
94253.6
94241.9
94231.2
94220.5
94208.6
94195.5
94180.4
94163.1
94143.3
94120.6
94095.7
94068.1
94037.4
94003.7
93966.3
93924.7
93878.8
93826.8
93767.5
93702.4
93630.4
93545.1
93445.9
93340.2
93231.3
93104.6
92945.1
92752.7
92534.6
92297
92050.7
91811.1
91581.4
91360
91143.1
90925.8
90702.1
90469.6
90228.9
89970.5
89686.8
89388.3
89099.4
88831.2
88558.8
88286.2
88025.9
87746.5
87471.5
87198.1
86927.4
86662.4
86404
86144.5
85888.5
85655.5
85453.7
85284.5
85165.8
85105.1
85099.7
85147.2
85258.9
85440.7
85686.5
85984.4
86324.3
86694
87092.9
87525.1
87964
88430.3
88890.1
89322.5
89750.9
90153
90515.4
90819
91045.4
91185.2
91251.6
91283
91301.7
91323.1
91367.6
105870
105869
105865
105860
105852
105842
105831
105818
105803
105785
105765
105743
105717
105689
105658
105623
105585
105543
105497
105447
105392
105334
105271
105204
105134
105060
104982
104900
104815
104726
104633
104536
104435
104329
104219
104104
103985
103861
103733
103600
103463
103319
103171
103020
102863
102701
102537
102367
102194
102018
101837
101653
101464
101269
101069
100862
100649
100433
100213
99987.1
99754.3
99515.3
99272.9
99027
98777.6
98527.3
98274.4
98013.4
97758.5
97507.3
97255.4
97010.3
96773.8
96545.5
96326
96116.3
95916.9
95729.1
95553.7
95391.3
95242.5
95107.4
94986.1
94878.4
94784
94702.4
94632.6
94573.8
94525.5
94486.2
94455.1
94431.3
94413.1
94399.8
94390.2
94383.3
94377.7
94373
94368.5
94362.8
94355.7
94346.7
94335.2
94321.4
94304.7
94285.3
94263.1
94237.3
94207.8
94174
94136.5
94096.5
94048.7
93991.3
93931.3
93867.6
93787.5
93690.2
93587.8
93482
93363.7
93216.9
93029.1
92805.9
92562.1
92313.8
92075.3
91843.6
91615.3
91391.5
91169.7
90942.7
90707.7
90460.8
90197.3
89907.9
89605.7
89317.6
89054.9
88784.8
88507.8
88236.4
87962.8
87690.8
87416.5
87142.6
86874.2
86613.7
86356.5
86102.4
85872.5
85674.2
85502.6
85385.6
85323.8
85317.3
85361
85462.4
85634.1
85873.8
86164.7
86498.6
86859
87250.1
87684.8
88110.7
88578.3
89038.6
89470.8
89897.8
90306.2
90676
90985.8
91209.8
91341.5
91410.6
91447.7
91465.9
91477.9
91509.9
105620
105618
105615
105610
105603
105595
105585
105574
105560
105543
105524
105502
105478
105451
105422
105389
105352
105312
105267
105218
105165
105108
105047
104982
104914
104842
104767
104688
104605
104518
104427
104332
104232
104128
104020
103907
103790
103668
103543
103412
103278
103137
102992
102845
102691
102532
102369
102202
102031
101857
101679
101498
101311
101118
100918
100712
100504
100292
100077
99857.9
99633.8
99406.7
99174.9
98939.9
98701.8
98455.6
98206.1
97954.5
97701.6
97454.1
97212.4
96977.9
96750.6
96531.3
96321.2
96121.2
95932.3
95754.9
95589.8
95437.5
95298.7
95173.1
95061.3
94962.7
94877.2
94804.2
94743.1
94692.6
94652.5
94621.6
94598.8
94583.7
94574.1
94569.1
94568.4
94570.1
94573.5
94577.5
94581.6
94584.8
94586.4
94586.4
94583.6
94578.2
94570.2
94559.3
94545.7
94528.4
94507.8
94481.8
94451.6
94418.9
94379.1
94326.3
94269.4
94212.3
94143.8
94053.1
93950.6
93838.3
93719
93589
93421.1
93205.2
92958.7
92709.3
92468.4
92230.7
91994.8
91763.5
91536.4
91306.4
91068.3
90810.6
90540.5
90249
89946.4
89655.1
89392.9
89123.4
88847.9
88558.9
88291.6
88020.9
87743.6
87467.3
87194
86929.2
86674.9
86426.1
86202.8
86009.4
85833.8
85709.3
85647.7
85641.7
85679.5
85769.8
85926.2
86161.4
86443.2
86770.5
87116.5
87493.3
87915.6
88341.2
88798.1
89254.2
89682.3
90115.6
90536.9
90919.7
91243.2
91468.7
91590.8
91661.3
91705
91723.9
91728.7
91748.7
105299
105298
105296
105292
105287
105280
105271
105260
105247
105231
105213
105193
105170
105145
105118
105086
105051
105011
104967
104919
104867
104812
104753
104691
104626
104557
104485
104408
104328
104243
104155
104062
103965
103864
103759
103649
103535
103417
103295
103168
103037
102901
102760
102615
102466
102311
102152
101990
101823
101652
101478
101300
101116
100926
100728
100526
100321
100113
99902.6
99689.8
99474.5
99259.4
99041.8
98816.7
98585.3
98348.3
98105.3
97862.5
97623.1
97387.7
97158.3
96936.3
96722
96515.8
96318.8
96131.8
95955.7
95790.9
95638.5
95498.8
95372.6
95259.5
95159.8
95073.1
94999.2
94937.5
94887.4
94847.9
94818.4
94798.3
94786.1
94781.6
94783
94788.7
94799
94811.5
94826.3
94841.5
94856.5
94870.4
94882.9
94893.7
94902.1
94907.2
94909.9
94910
94907.3
94900.8
94892.3
94879.6
94861.2
94837.6
94809.9
94766.7
94713.1
94655.1
94599.3
94522.7
94422.1
94305.1
94182.6
94059.5
93910.2
93710.8
93470.1
93222.1
92976.8
92731.3
92488.5
92252.1
92022
91794.1
91553.1
91284.8
91006.7
90713.3
90409.4
90117.1
89835.1
89561.3
89285.7
88996
88727.9
88455.6
88178.1
87902.8
87622.2
87352.2
87100.1
86859.9
86643.3
86452.2
86270
86132.8
86067.8
86060.1
86091.6
86167.5
86302.8
86542.7
86814.7
87128.6
87468.4
87833.3
88230.7
88646.2
89089.3
89529
89958.5
90401.5
90840.8
91240.3
91581.4
91817.5
91934.5
92002.8
92052
92074.8
92074.4
92083.9
104918
104918
104916
104914
104910
104903
104895
104885
104872
104858
104842
104824
104803
104780
104753
104721
104685
104645
104601
104555
104505
104453
104397
104338
104277
104211
104142
104069
103991
103909
103824
103734
103640
103543
103441
103335
103227
103112
102995
102873
102747
102616
102481
102341
102196
102047
101894
101736
101574
101406
101235
101061
100879
100691
100496
100298
100098
99895.8
99692
99487
99282.6
99077.5
98868.5
98653.2
98431.6
98204.9
97976.7
97750
97526.5
97307.9
97095.1
96888.5
96689.2
96498.2
96316.6
96145.3
95984.8
95835.3
95697.8
95573
95461.5
95363.4
95278.2
95206
95146.2
95098.2
95061.7
95035.4
95019
95012
95012.5
95020.7
95035.7
95054.9
95078.1
95104
95132.3
95161
95189.3
95216.5
95241.8
95265
95286.1
95304.1
95319.1
95332
95342.8
95348.2
95352.2
95353.2
95349.8
95339.3
95324
95298.6
95255.5
95200
95156.8
95088.5
94994.1
94882.1
94764.6
94640.2
94497.2
94310.4
94079.7
93838.6
93591.1
93338.2
93090.3
92854.3
92627
92400
92160.1
91885
91598.2
91300
90992.8
90688.5
90372.6
90086.9
89812.8
89532.1
89263.2
88989.7
88714.4
88439.9
88157
87881.8
87633.8
87399.8
87186.3
86994
86807
86653.4
86577.5
86563
86591.2
86650.3
86759.3
87010.9
87270.4
87573.6
87903.7
88257
88633.3
89031.2
89458.6
89869.5
90301.9
90768.5
91221.2
91635.7
91992.7
92245.5
92367
92434.1
92488.6
92513.9
92508.6
92512.7
104484
104485
104484
104482
104478
104473
104465
104456
104446
104433
104419
104402
104383
104360
104333
104301
104266
104228
104187
104144
104097
104048
103995
103939
103880
103818
103751
103681
103606
103528
103446
103360
103269
103175
103077
102974
102868
102760
102648
102532
102412
102287
102158
102023
101885
101741
101594
101441
101282
101119
100952
100778
100597
100410
100220
100028
99834.6
99639.6
99444.3
99250
99056.9
98861.3
98662
98458.4
98249.7
98038.8
97828.7
97620.7
97415.7
97215.1
97020
96830.9
96649.2
96475.9
96312.4
96159.1
96016.7
95885.2
95765.1
95657.3
95562.2
95480.2
95411.2
95354.9
95311.1
95278.8
95258.1
95247.8
95246.6
95254.7
95269.9
95292.7
95323.4
95358.5
95397.1
95440
95483.8
95528.1
95572.1
95615.1
95655.6
95694
95729.5
95762.7
95792.4
95819.7
95843.9
95865.7
95882.9
95896.9
95909
95913.8
95911.8
95903.9
95880.5
95844.1
95803.5
95748.8
95659.2
95552.6
95450.9
95327.1
95183.6
95001.6
94781.6
94550.3
94304.1
94047.4
93797.2
93566.4
93339.4
93109.8
92875.4
92603.3
92310.4
91996.7
91672.4
91348.2
91006.6
90706.4
90434.2
90167.4
89896.6
89620.1
89343.3
89071.7
88793.4
88519.3
88269.9
88035
87819.3
87628.8
87436.2
87262.6
87174.4
87147.1
87164.3
87210.3
87313.7
87547.1
87808.6
88098.2
88419.4
88760.7
89116.3
89491.9
89902.6
90292.8
90722.4
91215.3
91679.8
92103.2
92474.2
92743.7
92877.8
92947.7
93007.8
93036.3
93031.6
93032.2
104007
104008
104008
104006
104003
103998
103991
103984
103975
103964
103952
103937
103919
103897
103872
103842
103810
103777
103740
103700
103656
103609
103559
103506
103450
103390
103326
103259
103187
103112
103033
102950
102863
102773
102679
102582
102481
102377
102268
102156
102040
101921
101797
101669
101535
101397
101255
101106
100952
100795
100632
100459
100282
100099
99915.2
99729.4
99542.4
99354.9
99168.9
98984.9
98802.4
98618.9
98432.1
98242
98049.8
97857.7
97666.9
97478.3
97292.4
97110.5
96934.2
96764.5
96602.7
96449.4
96305.5
96171.6
96048.4
95936.4
95835.7
95746.9
95670.4
95606.5
95555.2
95516.1
95489.2
95474.1
95470.4
95478.1
95494.4
95519.6
95551.9
95590.2
95637.6
95689.6
95746.6
95807.3
95869.8
95932.6
95994.2
96055.1
96112.9
96169
96222.2
96272.7
96317.1
96362.6
96403.5
96441.7
96475.6
96505.3
96531.8
96553
96567.1
96574.7
96571.5
96555.5
96530
96488.4
96411.9
96315.1
96218.6
96106.1
95966.8
95785.5
95574.6
95353.1
95111.4
94854.9
94605.6
94375.1
94139.7
93910.3
93682.6
93420.4
93123.2
92801.1
92454
92105.4
91747.9
91430
91152.3
90899.5
90623
90342.8
90061.7
89794.5
89525.2
89256.3
89004.4
88770.9
88547.3
88349.2
88154.1
87965.2
87861.7
87818.8
87815.6
87851.3
87951.6
88158
88428.1
88700.7
89006.3
89341.4
89678.6
90029.6
90425
90807
91243.2
91752.5
92215.2
92641.5
93019.1
93304.5
93456.3
93537.1
93605.8
93641.8
93641.1
93632.3
103495
103496
103496
103495
103492
103488
103483
103477
103469
103460
103449
103436
103419
103400
103377
103353
103326
103296
103262
103224
103183
103140
103093
103044
102992
102935
102875
102810
102742
102669
102593
102513
102430
102344
102256
102164
102068
101967
101863
101754
101641
101526
101406
101281
101153
101020
100882
100740
100595
100442
100280
100113
99942.1
99770.2
99593.9
99414.7
99235
99056.9
98881.4
98707.4
98534.3
98360.8
98186.6
98011.5
97836
97662
97490.1
97320.6
97154.2
96992.4
96836.9
96689
96549.3
96417.9
96295.5
96182.4
96079.2
95986.6
95905.3
95836.1
95779.3
95734.9
95703
95683.1
95674.3
95677.1
95690.8
95716.7
95752.8
95796.7
95849.2
95906.2
95971
96042
96118.3
96198.5
96280.5
96363.8
96445.6
96525.7
96603.1
96678.9
96749.5
96820.4
96885.6
96949
97009.2
97065.8
97117.4
97165.7
97209.7
97247.9
97278.2
97303.1
97318.6
97321
97312.8
97288
97231.9
97151.9
97059.7
96963.3
96832.6
96657.4
96454.4
96240.9
96005.7
95751.4
95504
95266.4
95030.4
94796.4
94579.6
94324.5
94019.5
93696.4
93346.9
92984.6
92604.5
92262.5
91981.7
91720.4
91440.2
91159.8
90875.3
90609.1
90354.6
90092.6
89835.3
89598.7
89371.1
89156.9
88950.8
88771.4
88645.4
88578.4
88563.8
88587.8
88676.6
88853.7
89120.8
89378.6
89660.1
89989.7
90313
90649.6
91032.6
91412.2
91866.2
92371.5
92820.3
93249.2
93623.1
93921.1
94095.4
94196.9
94277.6
94324.5
94324.5
94305.7
102959
102960
102961
102961
102959
102956
102951
102946
102939
102930
102920
102908
102894
102877
102859
102838
102814
102786
102755
102721
102684
102645
102603
102558
102510
102457
102401
102341
102276
102207
102134
102058
101978
101896
101810
101721
101629
101533
101433
101328
101219
101107
100992
100872
100748
100620
100489
100354
100213
100063
99909.3
99752.5
99591.5
99426.7
99259.1
99090.7
98922.6
98755
98588.8
98423.7
98260
98096.4
97933.4
97772.3
97612.6
97455
97300.5
97149.7
97003.2
96862.3
96728.6
96603.3
96486.4
96377.8
96277.8
96186.4
96104.2
96032.2
95971.2
95921.8
95884.4
95859.1
95845.8
95845.1
95855.8
95877.8
95910.3
95953.8
96009.2
96073.3
96146.4
96225.5
96310.4
96403.4
96500.2
96602.5
96706.7
96810.7
96914.8
97016.8
97111.7
97210.1
97303.1
97394.6
97482
97565.8
97647.3
97725.1
97797.1
97864.9
97928.4
97983.8
98032.8
98077.7
98111.4
98131.8
98139.6
98130.9
98095.8
98037.2
97962
97881
97764.8
97602.8
97409.9
97201.3
96974.2
96725.4
96480.7
96233.9
96004.9
95761.7
95537.3
95284.2
94991.1
94674.5
94331.4
93972.3
93571.1
93202.6
92910.6
92635
92355.4
92071
91786.6
91519.9
91278.6
91030.5
90769.7
90512.2
90279.8
90048.6
89832.8
89661.3
89528.2
89424.6
89401.6
89425
89501.4
89654.9
89889.8
90132.1
90383.7
90697.7
91012
91343.5
91715.5
92092.5
92556.3
93050.4
93488.2
93919.6
94287.4
94591.5
94792.1
94918.8
95012.4
95072.9
95072.9
95048
102410
102412
102414
102414
102413
102410
102406
102401
102395
102387
102378
102367
102354
102339
102323
102304
102282
102258
102231
102202
102170
102135
102097
102057
102012
101965
101913
101857
101797
101733
101664
101592
101515
101436
101353
101266
101176
101082
100985
100886
100782
100675
100563
100447
100328
100206
100081
99950.1
99811.5
99669.6
99526.7
99380.4
99228.1
99071.7
98914
98755.9
98598.9
98441.9
98286.2
98131.4
97977.7
97825.8
97675.2
97527.7
97383.6
97242.5
97105.6
96973.7
96847.6
96728.2
96616.3
96512.7
96417.5
96330.7
96252.7
96183.1
96122.3
96071.2
96030.2
96000.8
95983
95977.4
95983.6
96001.5
96031.4
96072.5
96125
96188.4
96262.3
96345.8
96438
96538.4
96645.4
96760.6
96882.3
97006.9
97135.3
97262.7
97386.6
97511.6
97632.2
97752.2
97868.4
97980.7
98091.4
98199.3
98302.9
98403.3
98498.9
98588.1
98673.9
98749.4
98817.9
98881.2
98936
98975.7
99000.4
99008.4
98995.1
98959.9
98908
98838.9
98746.3
98596.9
98427.1
98222.1
98003.1
97762
97521.8
97271.2
97043.7
96797.7
96552.2
96290.2
96012.6
95714.7
95390
95037.7
94650.7
94264
93943
93653.2
93364.5
93073.7
92787.3
92522.7
92280.9
92034
91809
91544.9
91299.5
91046
90829.7
90659.6
90506.1
90375.1
90331.3
90358.2
90420.3
90563.6
90742.3
90971.8
91185.7
91468.7
91771.5
92095.6
92451.8
92830.7
93300
93785.2
94219
94644.3
95010.4
95313.5
95539.6
95693
95802
95875
95877
95847.3
101858
101861
101862
101863
101863
101860
101857
101853
101849
101842
101834
101824
101813
101800
101785
101769
101751
101730
101708
101682
101655
101624
101590
101553
101512
101468
101421
101370
101315
101255
101191
101122
101049
100972
100891
100807
100719
100628
100534
100437
100337
100232
100124
100014
99900
99783.3
99661.5
99533.9
99402.2
99269.3
99135.3
98997.7
98855.1
98709.4
98561.5
98411.4
98262.8
98115.7
97970.3
97827
97684.7
97544.7
97407.6
97274.4
97145.8
97021.8
96903.2
96790.3
96684.4
96586
96495.5
96413.4
96340
96274.9
96218.9
96171.4
96131.8
96102
96081.7
96071.5
96072.2
96085
96111.2
96149.4
96198.9
96259.8
96331.5
96415.2
96508.4
96609.8
96720.9
96841.3
96970.2
97107.2
97253
97403.1
97553.9
97704.3
97853.2
98000
98147.5
98289.5
98430.9
98567.9
98701.1
98834.4
98961.9
99086.9
99209.8
99320.1
99428.6
99529.7
99618.7
99699.5
99774.9
99835.7
99879
99904.7
99915
99906.1
99875.6
99819.1
99744.4
99629.4
99478.3
99288
99077.4
98848.5
98611.6
98367.7
98130.3
97888
97635.6
97373.6
97096.8
96809.5
96517
96178.3
95837.3
95448.9
95097.7
94780.2
94476.6
94178.4
93881.4
93622.6
93377.6
93102.6
92890.7
92664.9
92428.1
92201.1
91960.4
91795.9
91605
91455.3
91389.2
91401.8
91459.9
91555.3
91684.8
91902.7
92082.8
92313.1
92596.1
92908.8
93246.4
93630.3
94106
94578.3
95008.8
95415.6
95780.5
96078.4
96326.3
96510.1
96640.2
96722.6
96725.9
96689.6
101311
101314
101316
101318
101319
101317
101316
101314
101312
101307
101300
101292
101283
101272
101260
101246
101231
101214
101194
101172
101148
101120
101090
101055
101018
100977
100933
100886
100835
100780
100721
100656
100586
100512
100434
100353
100267
100179
100086
99990.5
99891.7
99789.7
99685.3
99578.7
99469
99355
99236.7
99115
98991
98865.6
98738.3
98608
98473.9
98336.9
98198.8
98058.6
97918.6
97781
97644.9
97511.2
97380
97252
97128.2
97009.6
96896.7
96789.8
96689.5
96596.3
96510.4
96432.5
96362.6
96300.9
96248.1
96203.8
96168.4
96142.8
96125.1
96115.7
96116.2
96126.6
96147.6
96178.7
96221.9
96278.4
96346.3
96427.3
96519
96621.3
96734.5
96854.7
96984.5
97126.2
97274
97436.4
97603.8
97777.7
97952.4
98124.8
98299.3
98469.4
98642
98809.9
98974.7
99140.7
99298.1
99456.8
99611.2
99757.1
99906.3
100046
100175
100303
100421
100522
100615
100696
100760
100807
100841
100857
100846
100809
100752
100667
100538
100377
100175
99962
99729.3
99495.1
99245.9
98999.5
98756.5
98518.4
98248.2
97964.1
97684
97375.2
97072.5
96716.1
96355.1
96012.6
95694.1
95385.6
95084
94830.3
94583.7
94291.9
94045.7
93845.9
93630.4
93454.2
93219.9
93036.1
92831.6
92670.7
92582.7
92557.4
92631.1
92676.2
92725.6
92885.7
93056.4
93242.9
93496.6
93795.5
94113
94498.4
94968.3
95419.7
95842.2
96228.7
96582.6
96876.9
97144.7
97363.2
97517.2
97608.9
97609.8
97562.3
100777
100780
100783
100785
100787
100788
100789
100789
100788
100787
100783
100778
100770
100762
100751
100739
100725
100710
100692
100672
100650
100625
100597
100566
100533
100496
100456
100413
100365
100314
100258
100197
100131
100060
99985.1
99905.7
99822.2
99734.7
99643.7
99549.5
99452.1
99352.5
99250.7
99146.4
99038.7
98927.2
98813
98696.8
98579.3
98460.3
98339.5
98216.1
98089.5
97959.4
97828
97697
97566.7
97438.5
97312.6
97188.6
97068
96952.1
96841.5
96737.1
96639.6
96549.1
96466.5
96392.2
96326.4
96268.9
96219.4
96178
96144.8
96120.3
96104.2
96098
96101.4
96112.3
96131.4
96160
96199.8
96251.3
96313.7
96388.3
96474.4
96572.1
96681.8
96802.6
96933
97074.2
97219.7
97385.3
97552.7
97735
97925.8
98118.9
98317.1
98513.4
98710.2
98908.2
99102
99298.4
99487.3
99679
99866.5
100049
100234
100407
100577
100749
100902
101053
101199
101329
101444
101545
101632
101703
101761
101798
101809
101794
101754
101693
101595
101459
101277
101073
100851
100619
100364
100114
99885.9
99673.3
99433.9
99159.2
98872.1
98610
98323.1
98017.9
97678.5
97337.1
97006.1
96688.6
96391.6
96141
95869.2
95593.9
95328.4
95113.4
94916.7
94748.7
94581.8
94365.3
94168.5
94019.6
93908.4
93829.1
93905.1
93910
93881.7
93940
94083.2
94257.9
94478.6
94760.5
95051.6
95432.5
95877.6
96299.8
96708.3
97084.2
97417.3
97709.4
97994.8
98246.1
98422.4
98523.8
98519.5
98451.4
100261
100264
100267
100269
100272
100275
100278
100282
100285
100286
100285
100281
100276
100269
100260
100249
100236
100221
100204
100186
100166
100144
100121
100095
100066
100034
99998.1
99957.9
99913.2
99863.9
99809.9
99751.1
99687.5
99618.9
99545.6
99467.7
99385.8
99299.9
99210.5
99118
99022.8
98925.2
98824.5
98720.5
98613.8
98504.8
98394.1
98282.4
98170
98056.9
97942.5
97825.7
97706.3
97583.8
97458.9
97334.9
97213.2
97093.9
96977.8
96864.4
96754.6
96650.1
96552.2
96461.1
96378
96303.4
96237.6
96181.1
96133.8
96095.5
96065.3
96043.5
96029.7
96024
96026.7
96038.4
96060.2
96091.4
96130.5
96177.1
96232.6
96300.5
96381
96473.4
96580.1
96697.4
96815.3
96960
97103.2
97261.3
97426.7
97607.9
97797.7
97996.4
98207.5
98420.8
98638.1
98858.1
99077.1
99300.6
99518.6
99740.8
99958.5
100173
100391
100598
100810
101017
101210
101407
101592
101768
101935
102098
102241
102369
102480
102574
102653
102709
102742
102750
102729
102689
102621
102516
102362
102166
101959
101711
101466
101228
101017
100820
100609
100360
100087
99868
99614.4
99343.8
99044.6
98720.4
98374.4
98063.6
97758
97498.7
97188.1
96930.6
96686.1
96469.2
96309.5
96144.5
96016.1
95806.7
95619.3
95463.9
95343.1
95253.6
95231
95186.4
95126.8
95106.1
95177.7
95325.1
95523.5
95788.5
96053.4
96424.1
96832.9
97219.2
97606.8
97980.3
98294.6
98579.6
98875.7
99156.4
99352.5
99456.1
99447.3
99350
99770
99772.3
99774.2
99777.2
99781.4
99786.3
99793.4
99800.6
99804.7
99806.8
99808.6
99808.8
99806
99800.4
99792.6
99782.1
99769.2
99754.4
99738.1
99720.9
99703.2
99685
99665.9
99644.9
99621.3
99594.1
99562.7
99526.5
99484.9
99437.9
99385.3
99327.2
99264.1
99196.3
99124
99047.1
98966.2
98881.5
98793.5
98702.4
98608.2
98511.1
98410.7
98307.2
98201.4
98094.2
97986.1
97877.5
97768.7
97660
97550.7
97439.7
97326.5
97211.4
97094.2
96977.1
96862.9
96752
96644.6
96541.1
96441.9
96348.6
96262.5
96184.5
96115.3
96055.6
96005.8
95966
95935.4
95914.3
95902
95897.7
95901.9
95913.9
95934
95963.2
96001.8
96049.8
96107.3
96172.7
96246.3
96330.1
96424.6
96531.9
96652.9
96785.3
96925.3
97080.2
97241.2
97413.4
97596.3
97792.3
98000.5
98216.4
98444.4
98676.4
98913.5
99153.6
99394.3
99637.8
99881.1
100125
100371
100612
100857
101094
101330
101566
101789
102010
102225
102430
102623
102811
102980
103136
103273
103393
103494
103571
103625
103657
103654
103634
103594
103519
103389
103225
103040
102774
102542
102328
102139
101955
101763
101551
101324
101126
100925
100679
100410
100103
99755.1
99454.8
99140.3
98856
98547
98288
98057.5
97866.6
97746
97627
97480.3
97321.8
97132.4
96950.2
96823.8
96726.1
96634.3
96498.3
96424.1
96399.7
96375.7
96429.6
96595.5
96848.2
97104
97454.1
97827.9
98177.9
98534.7
98906.9
99211.2
99485
99785.2
100090
100299
100399
100386
100256
99307.5
99310.6
99313.4
99316.4
99321.1
99327.9
99336.7
99345.3
99352.3
99358.3
99363.5
99367
99367.3
99364.1
99357.3
99346.7
99333
99316.8
99299.3
99282.2
99266.4
99251.8
99237.3
99221.8
99203.7
99181.8
99154.9
99122.2
99083.2
99037.8
98986.4
98929.2
98866.3
98798.4
98725.9
98649.2
98568.6
98484.2
98396.5
98305.5
98211.3
98113.9
98013.4
97910.5
97805.5
97699.6
97593.2
97487
97381
97275.4
97169.8
97063.2
96955.2
96846.1
96736.2
96626.4
96519
96415.5
96316.2
96221.8
96132.8
96050.4
95976.2
95910.7
95855
95809.4
95774
95749.3
95734
95728
95731.2
95742.6
95763
95792.4
95826.7
95872.6
95927.2
95991.9
96063.5
96143.8
96233.4
96333.4
96443
96564.2
96697.3
96843
96998.7
97164.9
97340.3
97526.9
97724.8
97935.2
98156.8
98387.2
98628.5
98876.8
99130.5
99389.6
99651.5
99915.3
100182
100449
100719
100983
101251
101519
101781
102042
102295
102541
102786
103016
103239
103452
103649
103829
103992
104138
104262
104362
104439
104492
104510
104511
104494
104449
104351
104220
104053
103814
103590
103394
103229
103065
102895
102726
102555
102376
102223
102001
101749
101467
101147
100847
100549
100228
99951.2
99682.3
99445.6
99264.9
99141.8
99046.7
98906.7
98787.4
98597.9
98425.4
98302.1
98200.1
98077.4
97896.3
97784.2
97755.8
97676.1
97623.3
97712.8
97945.4
98196.2
98503.6
98842
99156.6
99479.4
99848.9
100149
100411
100715
101035
101251
101346
101326
101170
98866.9
98871
98875.6
98881.4
98888.1
98896.8
98907.5
98919.3
98932
98943.5
98953.2
98960.2
98963.1
98962
98956.4
98946.4
98932.7
98915.4
98896.5
98880.9
98868.5
98858.1
98848.4
98837.4
98823.3
98804.3
98779.9
98748.9
98710.3
98664.7
98612.9
98555.3
98492.6
98424.8
98352.3
98275.2
98194.3
98109.7
98021.6
97930.2
97835.3
97737.2
97636.4
97533.4
97428.9
97323.7
97218.4
97113.3
97008.9
96905.3
96802.5
96699.8
96596.6
96493
96389.5
96286.9
96186.6
96090.2
95998.7
95912.7
95833.4
95761.6
95698.4
95644.8
95601.1
95568.1
95545.7
95533.4
95530.9
95538.2
95554.9
95580
95614.7
95658.2
95709.1
95768.7
95837.4
95916.1
96002
96095.8
96198.6
96312
96434.9
96568.1
96713
96869.4
97037.2
97214.2
97400.9
97598.8
97807.8
98028.6
98259
98502.6
98754.1
99016.5
99283.6
99558.1
99838.1
100120
100408
100696
100988
101278
101567
101862
102146
102434
102715
102986
103260
103515
103767
104004
104230
104433
104623
104794
104942
105062
105163
105240
105282
105305
105314
105296
105235
105125
104994
104791
104585
104408
104254
104107
103966
103836
103702
103560
103456
103268
103029
102788
102518
102233
101979
101640
101374
101115
100858
100651
100451
100352
100261
100157
99983.8
99846.9
99738.6
99639.8
99506.4
99334.7
99184.2
99102.8
98994.9
98912.7
98917.4
99104.3
99327.9
99570.8
99855.4
100133
100432
100791
101090
101345
101653
101980
102200
102288
102258
102085
98516.3
98521.7
98528.2
98535.8
98544.4
98556
98570.3
98588.7
98608.8
98628.3
98642.1
98652.1
98656.7
98656.3
98651.1
98641.5
98628.5
98613.8
98598.9
98585.9
98575.7
98567.1
98557.8
98546.4
98531.3
98511.4
98486.1
98454.8
98416.3
98370.4
98317.8
98257.9
98194.2
98125.8
98053.1
97976
97894.6
97809.3
97720.3
97627.9
97532.2
97433.6
97332.3
97228.8
97124
97018.7
96913.5
96808.8
96704.7
96601.6
96499.8
96399
96298.8
96199.3
96100.8
96004.1
95910.1
95820