/*--------------------------------*- C++ -*----------------------------------*\
| =========                 |                                                 |
| \\      /  F ield         | OpenFOAM: The Open Source CFD Toolbox           |
|  \\    /   O peration     | Version:  dev                                   |
|   \\  /    A nd           | Web:      http://www.openfoam.org               |
|    \\/     M anipulation  |                                                 |
\*---------------------------------------------------------------------------*/
FoamFile
{
    version     2.0;
    format      ascii;
    class       surfaceScalarField;
    object      phi;
    location    "9.146";
}
// * * * * * * * * * * * * * * * * * * * * * * * * * * * * * * * * * * * * * //

dimensions      [1 0 -1 0 0 0 0];

internalField   nonuniform List<scalar> 
24170
(
2.47424e-06
1.7492e-06
2.01654e-06
1.21794e-06
1.92181e-06
7.99037e-07
2.08716e-06
4.92263e-07
2.22571e-06
4.65438e-07
2.49402e-06
2.96663e-07
2.562e-06
4.47878e-07
2.83071e-06
2.11123e-07
2.87812e-06
3.87135e-07
3.18012e-06
9.92589e-08
3.11736e-06
4.22967e-07
3.57225e-06
-1.26766e-07
3.30983e-06
5.53743e-07
4.09545e-06
-5.24508e-07
3.5607e-06
7.63543e-07
4.12135e-06
-3.62852e-07
5.58785e-06
-1.29996e-06
4.06151e-08
5.66039e-06
4.1439e-06
2.21121e-06
4.06021e-06
2.07843e-06
4.01311e-06
1.57996e-06
4.00594e-06
1.1839e-06
4.11048e-06
9.97607e-07
4.29082e-06
7.04366e-07
4.36885e-06
9.13292e-07
4.77313e-06
3.06711e-07
4.80904e-06
8.06108e-07
5.38818e-06
-6.24261e-08
5.23943e-06
9.49306e-07
6.07601e-06
-6.20398e-07
5.81463e-06
1.11625e-06
6.67401e-06
-1.11344e-06
6.46557e-06
1.20532e-06
7.98593e-06
-1.66874e-06
5.2122e-06
1.65311e-06
-4.89664e-06
1.02584e-05
4.94045e-06
2.46816e-06
5.32225e-06
2.55333e-06
5.60474e-06
2.10834e-06
5.68616e-06
1.85856e-06
5.80061e-06
1.58583e-06
6.12072e-06
1.03335e-06
6.05787e-06
1.57541e-06
6.68883e-06
2.28984e-07
6.57696e-06
1.42039e-06
7.3692e-06
-3.97062e-07
7.03594e-06
1.7e-06
7.9999e-06
-1.20036e-06
7.69098e-06
1.75968e-06
8.53161e-06
-1.66315e-06
8.39463e-06
1.60049e-06
9.95033e-06
-2.97894e-06
8.20999e-06
3.59055e-06
-6.15965e-06
9.63101e-06
5.34147e-06
2.64259e-06
6.30625e-06
2.53133e-06
6.67858e-06
2.62686e-06
7.27271e-06
2.09632e-06
7.15943e-06
2.47288e-06
7.96331e-06
9.40571e-07
7.76595e-06
2.43227e-06
8.34668e-06
2.585e-07
8.1698e-06
2.14948e-06
8.93089e-06
-6.60514e-07
8.57805e-06
2.51157e-06
9.4078e-06
-1.60683e-06
9.0339e-06
2.50132e-06
9.85802e-06
-2.16153e-06
9.46615e-06
2.27594e-06
1.0852e-05
-4.10059e-06
1.05587e-05
4.12877e-06
-6.02093e-06
1.05679e-05
5.46053e-06
3.22412e-06
6.82477e-06
2.20163e-06
7.17589e-06
3.25216e-06
8.3433e-06
1.84422e-06
8.03218e-06
3.63669e-06
8.95274e-06
7.97987e-07
8.86359e-06
3.24285e-06
9.34586e-06
4.46851e-07
9.19528e-06
2.90507e-06
9.87525e-06
-7.94371e-07
9.70088e-06
3.19299e-06
1.02944e-05
-1.74148e-06
1.01641e-05
3.03057e-06
1.05985e-05
-2.2351e-06
1.06452e-05
2.55058e-06
1.09717e-05
-4.13185e-06
1.17759e-05
3.591e-06
-7.06799e-06
1.30137e-05
5.91688e-06
4.06779e-06
7.06387e-06
2.18957e-06
7.05521e-06
4.33579e-06
8.088e-06
1.81487e-06
8.3052e-06
4.34795e-06
9.34655e-06
6.10454e-07
9.3769e-06
4.00577e-06
9.92648e-06
6.26948e-07
1.00386e-05
3.45173e-06
1.07108e-05
-8.58089e-07
1.06941e-05
3.77364e-06
1.10767e-05
-1.63058e-06
1.15389e-05
3.0024e-06
1.16386e-05
-1.93658e-06
1.25503e-05
1.99291e-06
1.19843e-05
-3.23579e-06
1.42357e-05
1.61381e-06
-5.01758e-06
1.2418e-05
7.00833e-06
4.51355e-06
7.63998e-06
2.80189e-06
7.74517e-06
5.40347e-06
8.79978e-06
1.85191e-06
9.37132e-06
4.79109e-06
1.00888e-05
8.30693e-07
1.02644e-05
4.69577e-06
1.1054e-05
6.29332e-07
1.12156e-05
4.02092e-06
1.13688e-05
-3.35775e-07
1.19637e-05
3.79102e-06
1.21516e-05
-1.28641e-06
1.30765e-05
2.5485e-06
1.27723e-05
-1.19192e-06
1.40825e-05
1.0856e-06
1.29539e-05
-1.75402e-06
1.42353e-05
6.36393e-07
-1.72397e-06
1.12053e-05
5.36046e-06
5.01437e-06
5.73747e-06
3.38776e-06
6.27844e-06
5.76248e-06
6.90113e-06
2.07396e-06
7.32923e-06
5.14711e-06
7.88655e-06
9.99902e-07
8.24115e-06
5.00937e-06
8.56549e-06
9.19999e-07
8.88583e-06
4.26762e-06
8.91882e-06
1.45864e-07
9.67669e-06
3.49914e-06
9.57364e-06
-7.64452e-07
1.01557e-05
2.34078e-06
9.90848e-06
-6.05929e-07
1.04537e-05
8.51163e-07
9.81319e-06
-8.39935e-07
1.04171e-05
2.68343e-07
-7.66823e-07
9.66366e-06
6.25737e-06
5.36402e-06
6.76244e-06
3.98735e-06
7.52347e-06
6.03716e-06
8.1775e-06
2.39567e-06
8.59457e-06
5.63165e-06
9.06608e-06
1.36955e-06
9.70794e-06
5.13852e-06
9.81003e-06
1.52836e-06
1.0426e-05
4.29572e-06
1.06189e-05
5.3949e-07
1.15198e-05
3.1348e-06
1.11824e-05
6.41419e-08
1.16846e-05
2.27379e-06
1.15494e-05
-7.93706e-08
1.18908e-05
8.66321e-07
1.15444e-05
-1.76555e-07
1.20836e-05
1.7464e-11
-3.72464e-07
1.19216e-05
7.4287e-06
5.73604e-06
8.44282e-06
4.23523e-06
9.09309e-06
6.58404e-06
9.79398e-06
2.81164e-06
1.05568e-05
5.90666e-06
1.06975e-05
2.19492e-06
1.15964e-05
5.12811e-06
1.17608e-05
2.17844e-06
1.26105e-05
4.18459e-06
1.25006e-05
1.32538e-06
1.31758e-05
3.08349e-06
1.29693e-05
8.40031e-07
1.36097e-05
2.13655e-06
1.3342e-05
6.3813e-07
1.35236e-05
1.09237e-06
1.3362e-05
3.50133e-07
1.36027e-05
7.49851e-08
3.29508e-08
1.3469e-05
8.42951e-06
6.41912e-06
9.63308e-06
4.47095e-06
1.07417e-05
6.84796e-06
1.11609e-05
3.6651e-06
1.22154e-05
6.04234e-06
1.23801e-05
3.13611e-06
1.33348e-05
5.19654e-06
1.35079e-05
2.93395e-06
1.44011e-05
4.13922e-06
1.43441e-05
2.16061e-06
1.49522e-05
3.19175e-06
1.4845e-05
1.59031e-06
1.53613e-05
2.19434e-06
1.52526e-05
1.26337e-06
1.5451e-05
1.35905e-06
1.53826e-05
8.31338e-07
1.53646e-05
4.5157e-07
3.192e-07
1.53938e-05
1.03016e-05
6.72673e-06
1.09684e-05
5.43394e-06
1.22905e-05
7.07752e-06
1.27409e-05
4.65828e-06
1.39143e-05
6.2174e-06
1.41573e-05
4.1459e-06
1.52632e-05
5.24828e-06
1.54595e-05
3.79192e-06
1.63627e-05
4.19595e-06
1.6445e-05
2.95434e-06
1.71576e-05
3.28089e-06
1.70828e-05
2.38879e-06
1.756e-05
2.367e-06
1.76253e-05
1.77953e-06
1.79389e-05
1.56388e-06
1.79287e-05
1.30131e-06
1.78517e-05
9.36149e-07
7.43847e-07
1.77926e-05
1.20265e-05
7.10927e-06
1.28655e-05
6.41799e-06
1.42308e-05
7.44227e-06
1.46802e-05
5.82668e-06
1.59171e-05
6.4883e-06
1.63093e-05
5.15338e-06
1.74045e-05
5.44056e-06
1.78422e-05
4.53139e-06
1.87659e-05
4.34426e-06
1.90189e-05
3.679e-06
1.97318e-05
3.45811e-06
1.99692e-05
2.95481e-06
2.04e-05
2.65644e-06
2.05185e-05
2.30628e-06
2.06958e-05
1.96185e-06
2.08071e-05
1.70177e-06
2.07849e-05
1.41172e-06
1.19054e-06
2.07427e-05
1.37849e-05
7.44076e-06
1.45829e-05
7.63186e-06
1.61964e-05
7.7356e-06
1.69787e-05
6.83022e-06
1.83476e-05
6.78213e-06
1.90133e-05
6.02728e-06
2.01293e-05
5.73997e-06
2.07748e-05
5.18122e-06
2.15883e-05
4.71009e-06
2.20636e-05
4.27595e-06
2.26046e-05
3.88766e-06
2.29134e-05
3.52021e-06
2.32272e-05
3.12667e-06
2.34505e-05
2.78354e-06
2.35931e-05
2.44291e-06
2.3706e-05
2.14329e-06
2.37483e-05
1.86063e-06
1.60918e-06
2.37669e-05
1.63714e-05
8.06266e-06
1.74351e-05
8.75012e-06
1.89677e-05
8.2655e-06
2.00528e-05
7.67366e-06
2.14126e-05
7.2137e-06
2.24218e-05
6.67213e-06
2.35022e-05
6.1797e-06
2.43559e-05
5.71505e-06
2.50595e-05
5.26722e-06
2.56231e-05
4.85453e-06
2.60649e-05
4.47627e-06
2.64182e-05
4.09067e-06
2.66684e-05
3.70248e-06
2.68599e-05
3.3259e-06
2.70187e-05
2.9349e-06
2.71323e-05
2.60321e-06
2.71914e-05
2.30488e-06
2.05341e-06
2.71921e-05
1.82933e-05
8.41795e-06
2.00859e-05
9.25298e-06
2.18346e-05
8.67648e-06
2.33024e-05
8.21627e-06
2.46281e-05
7.74812e-06
2.576e-05
7.25331e-06
2.67713e-05
6.73595e-06
2.76777e-05
6.23164e-06
2.84777e-05
5.75342e-06
2.91891e-05
5.30236e-06
2.98027e-05
4.90291e-06
3.0321e-05
4.49959e-06
3.07354e-05
4.11061e-06
3.1037e-05
3.74791e-06
3.12196e-05
3.38697e-06
3.13322e-05
3.0422e-06
3.13771e-05
2.73917e-06
2.46731e-06
3.13791e-05
2.15168e-05
9.025e-06
2.32866e-05
9.76473e-06
2.51658e-05
8.93606e-06
2.68943e-05
8.46564e-06
2.83776e-05
8.0823e-06
2.96457e-05
7.64684e-06
3.07491e-05
7.14032e-06
3.17468e-05
6.59261e-06
3.2647e-05
6.07063e-06
3.34494e-05
5.58725e-06
3.41556e-05
5.16201e-06
3.47405e-05
4.76387e-06
3.5193e-05
4.39553e-06
3.55187e-05
4.05671e-06
3.57526e-05
3.69946e-06
3.59209e-05
3.34078e-06
3.6e-05
3.0511e-06
2.76966e-06
3.60219e-05
2.15905e-05
8.57708e-06
2.35436e-05
9.61457e-06
2.51183e-05
9.04549e-06
2.66067e-05
8.52487e-06
2.80927e-05
8.00566e-06
2.95386e-05
7.47384e-06
3.08578e-05
6.96056e-06
3.19952e-05
6.46273e-06
3.29291e-05
6.02137e-06
3.36912e-05
5.59985e-06
3.43187e-05
5.20701e-06
3.48136e-05
4.84318e-06
3.52125e-05
4.46973e-06
3.55008e-05
4.15243e-06
3.57159e-05
3.80611e-06
3.587e-05
3.44206e-06
3.59535e-05
3.15513e-06
2.89177e-06
3.59711e-05
1.96135e-05
8.03973e-06
2.11471e-05
9.22756e-06
2.25972e-05
8.65862e-06
2.39882e-05
8.09901e-06
2.52989e-05
7.559e-06
2.6505e-05
7.03478e-06
2.75877e-05
6.54651e-06
2.84991e-05
6.12024e-06
2.92719e-05
5.7287e-06
2.9935e-05
5.33833e-06
3.04979e-05
4.97336e-06
3.09797e-05
4.61981e-06
3.13442e-05
4.28056e-06
3.16083e-05
3.99873e-06
3.1787e-05
3.71112e-06
3.18962e-05
3.37037e-06
3.19238e-05
3.11061e-06
2.88398e-06
3.18827e-05
1.72623e-05
7.43689e-06
1.86498e-05
8.46874e-06
2.00103e-05
7.88806e-06
2.12707e-05
7.36567e-06
2.23968e-05
6.89286e-06
2.33834e-05
6.43925e-06
2.42113e-05
6.03474e-06
2.49283e-05
5.64834e-06
2.55744e-05
5.27012e-06
2.61543e-05
4.89518e-06
2.66724e-05
4.53498e-06
2.71123e-05
4.20228e-06
2.74302e-05
3.9266e-06
2.76876e-05
3.65943e-06
2.78708e-05
3.4322e-06
2.7967e-05
3.15278e-06
2.80082e-05
2.90788e-06
2.69703e-06
2.80134e-05
1.53378e-05
6.90487e-06
1.65632e-05
7.51132e-06
1.78097e-05
6.89722e-06
1.89604e-05
6.43331e-06
2.00025e-05
6.02584e-06
2.09039e-05
5.66429e-06
2.16811e-05
5.32484e-06
2.2363e-05
4.97995e-06
2.29765e-05
4.64266e-06
2.35226e-05
4.3085e-06
2.39611e-05
3.99624e-06
2.42735e-05
3.74172e-06
2.45178e-05
3.51361e-06
2.47064e-05
3.2714e-06
2.48509e-05
3.07192e-06
2.49074e-05
2.86848e-06
2.49043e-05
2.65153e-06
2.45203e-06
2.48776e-05
1.38416e-05
5.78957e-06
1.50585e-05
6.32968e-06
1.61101e-05
5.87535e-06
1.70018e-05
5.54896e-06
1.77741e-05
5.23469e-06
1.84821e-05
4.9065e-06
1.914e-05
4.57294e-06
1.97383e-05
4.24844e-06
2.0293e-05
3.93999e-06
2.07966e-05
3.63937e-06
2.1189e-05
3.38799e-06
2.14791e-05
3.2037e-06
2.17599e-05
2.98907e-06
2.19706e-05
2.79611e-06
2.21353e-05
2.6176e-06
2.22618e-05
2.44482e-06
2.23093e-05
2.28552e-06
2.11403e-06
2.23258e-05
1.20904e-05
4.78581e-06
1.31549e-05
5.14772e-06
1.42107e-05
4.70699e-06
1.52276e-05
4.40712e-06
1.612e-05
4.19964e-06
1.68584e-05
4.00408e-06
1.74334e-05
3.81044e-06
1.78919e-05
3.57938e-06
1.82776e-05
3.32248e-06
1.85931e-05
3.07232e-06
1.88425e-05
2.86274e-06
1.9124e-05
2.63171e-06
1.93875e-05
2.43515e-06
1.95876e-05
2.29169e-06
1.97406e-05
2.13864e-06
1.98588e-05
1.9944e-06
1.99302e-05
1.87396e-06
1.73313e-06
1.99717e-05
1.09127e-05
3.83574e-06
1.18635e-05
3.99132e-06
1.27183e-05
3.65754e-06
1.34552e-05
3.47119e-06
1.4104e-05
3.33838e-06
1.46907e-05
3.18979e-06
1.52229e-05
3.03799e-06
1.56853e-05
2.86254e-06
1.60704e-05
2.66323e-06
1.63844e-05
2.46606e-06
1.66976e-05
2.24993e-06
1.69627e-05
2.06335e-06
1.71841e-05
1.90093e-06
1.73774e-05
1.77323e-06
1.75219e-05
1.65976e-06
1.76236e-05
1.5552e-06
1.76957e-05
1.46407e-06
1.36194e-06
1.77319e-05
9.88178e-06
2.79937e-06
1.06519e-05
2.97571e-06
1.13878e-05
2.68658e-06
1.20518e-05
2.57082e-06
1.2662e-05
2.48401e-06
1.3224e-05
2.37267e-06
1.37384e-05
2.25865e-06
1.41845e-05
2.14288e-06
1.45337e-05
2.02778e-06
1.48332e-05
1.86632e-06
1.50973e-05
1.68147e-06
1.53234e-05
1.53053e-06
1.5502e-05
1.40542e-06
1.56542e-05
1.29916e-06
1.57758e-05
1.21411e-06
1.58598e-05
1.14226e-06
1.59226e-05
1.07483e-06
1.00922e-06
1.59505e-05
8.58494e-06
2.11886e-06
9.39976e-06
1.90447e-06
1.0162e-05
1.67648e-06
1.0811e-05
1.67271e-06
1.13931e-05
1.64816e-06
1.19057e-05
1.60028e-06
1.2352e-05
1.54462e-06
1.27296e-05
1.49005e-06
1.30539e-05
1.42176e-06
1.33141e-05
1.31715e-06
1.35161e-05
1.18384e-06
1.36792e-05
1.06678e-06
1.38133e-05
9.67376e-07
1.39144e-05
8.92933e-07
1.39855e-05
8.36685e-07
1.40301e-05
7.90837e-07
1.40458e-05
7.53116e-07
7.09765e-07
1.40401e-05
7.622e-06
1.11758e-06
8.53244e-06
7.41537e-07
9.23967e-06
7.24688e-07
9.82245e-06
8.4528e-07
1.03175e-05
9.0516e-07
1.07382e-05
9.27464e-07
1.10908e-05
9.35077e-07
1.1379e-05
9.39378e-07
1.16084e-05
9.23961e-07
1.17838e-05
8.68516e-07
1.18993e-05
7.91445e-07
1.19633e-05
7.22652e-07
1.19882e-05
6.59979e-07
1.19823e-05
6.14869e-07
1.19555e-05
5.79344e-07
1.19096e-05
5.53249e-07
1.18508e-05
5.29917e-07
4.96586e-07
1.17843e-05
6.95068e-06
3.47265e-08
7.7439e-06
-2.89595e-07
8.23628e-06
1.38e-09
8.58277e-06
2.67839e-07
8.82298e-06
4.3152e-07
8.99405e-06
5.20148e-07
9.1215e-06
5.67981e-07
9.22401e-06
5.93233e-07
9.30693e-06
5.93329e-07
9.35813e-06
5.66012e-07
9.3723e-06
5.22935e-07
9.35493e-06
4.83356e-07
9.30548e-06
4.51177e-07
9.2348e-06
4.26431e-07
9.15236e-06
4.02572e-07
9.06315e-06
3.83767e-07
8.97035e-06
3.65531e-07
3.47046e-07
8.86499e-06
6.17697e-06
-7.54403e-07
6.33844e-06
-6.69861e-07
6.31448e-06
-1.87597e-07
6.27529e-06
9.47249e-08
6.24309e-06
2.49804e-07
6.23052e-06
3.16742e-07
6.23523e-06
3.44604e-07
6.25789e-06
3.48821e-07
6.28736e-06
3.38888e-07
6.3062e-06
3.19068e-07
6.30217e-06
2.95941e-07
6.27752e-06
2.74545e-07
6.23754e-06
2.55762e-07
6.18865e-06
2.3891e-07
6.12524e-06
2.29186e-07
6.05626e-06
2.16586e-07
5.9857e-06
2.01312e-07
1.92635e-07
5.90752e-06
4.22144e-06
3.3596e-06
2.98142e-06
2.88485e-06
2.94121e-06
3.06176e-06
3.20691e-06
3.35268e-06
3.48478e-06
3.59352e-06
3.67603e-06
3.73469e-06
3.77289e-06
3.79345e-06
3.80431e-06
3.80348e-06
3.78901e-06
3.76871e-06
-3.58825e-07
3.31965e-07
-8.05469e-07
4.26561e-07
-1.22308e-06
4.0219e-07
-1.57059e-06
3.33574e-07
-1.83625e-06
2.54218e-07
-1.96873e-06
1.24928e-07
-1.90201e-06
-6.99114e-08
-1.63351e-06
-2.6794e-07
-1.19574e-06
-4.34237e-07
-6.29065e-07
-5.60605e-07
-1.68159e-10
-6.20675e-07
6.81965e-07
-6.71417e-07
1.40745e-06
-7.11813e-07
2.15275e-06
-7.28301e-07
2.92658e-06
-7.53173e-07
3.76566e-06
-8.13887e-07
4.61488e-06
-8.21054e-07
5.35202e-06
-7.1106e-07
5.98514e-06
-6.10603e-07
6.64736e-06
-6.38066e-07
7.34628e-06
-6.68213e-07
7.97843e-06
-5.93849e-07
8.48307e-06
-4.59547e-07
8.82131e-06
-2.93254e-07
9.00224e-06
-1.36733e-07
9.06942e-06
-2.2491e-08
9.01626e-06
9.43572e-08
8.8211e-06
2.37156e-07
8.49229e-06
3.71209e-07
8.02725e-06
5.05339e-07
7.37888e-06
6.87932e-07
6.53186e-06
8.94342e-07
5.44778e-06
1.12723e-06
4.04355e-06
1.41858e-06
2.46785e-06
1.5898e-06
9.70736e-07
1.53992e-06
-2.91425e-07
1.3239e-06
-1.36995e-06
1.14658e-06
-2.32626e-06
1.02177e-06
-3.07167e-06
8.07869e-07
-3.67011e-06
6.7127e-07
-4.42647e-06
8.46276e-07
-5.2718e-06
9.56356e-07
-5.99154e-06
8.5375e-07
-6.57743e-06
7.47636e-07
-7.0655e-06
6.81939e-07
-7.43583e-06
5.99106e-07
-7.6753e-06
5.06529e-07
-7.77944e-06
4.15078e-07
-7.65897e-06
2.39633e-07
-7.27319e-06
2.66591e-08
-6.65931e-06
-1.46684e-07
-5.97082e-06
-1.61958e-07
-5.44538e-06
6.64507e-08
-5.31857e-06
5.37342e-07
-5.75984e-06
1.18947e-06
-6.77419e-06
1.8657e-06
-8.19112e-06
2.37466e-06
-9.83361e-06
2.66427e-06
-1.14163e-05
2.62364e-06
-1.2641e-05
2.29512e-06
-1.36872e-05
2.16974e-06
-1.46516e-05
2.14086e-06
-1.48218e-05
1.42153e-06
-1.41808e-05
7.16366e-07
-1.32096e-05
4.7692e-07
-1.21686e-05
4.38163e-07
-1.04352e-05
-1.71921e-07
-9.67678e-06
8.78807e-07
-9.63356e-06
1.65481e-06
-9.72924e-06
1.95338e-06
-1.06857e-05
2.87877e-06
-1.2748e-05
3.82951e-06
-1.4803e-05
3.84644e-06
-1.63944e-05
3.53622e-06
-1.7698e-05
3.32245e-06
-1.87369e-05
3.11323e-06
-1.95707e-05
2.95713e-06
-2.01882e-05
2.78918e-06
-2.06317e-05
2.65782e-06
-2.09027e-05
2.53093e-06
-2.10231e-05
2.42018e-06
-2.10094e-05
2.33102e-06
-2.0864e-05
2.23841e-06
-2.05911e-05
2.15409e-06
-2.02076e-05
2.0855e-06
-1.97145e-05
2.01856e-06
-1.91356e-05
1.97412e-06
-1.84888e-05
1.94808e-06
-1.77845e-05
1.93232e-06
-1.69963e-05
1.88845e-06
-1.61416e-05
1.86394e-06
-1.52599e-05
1.87776e-06
-1.43999e-05
1.93031e-06
-1.34676e-05
1.88051e-06
-1.25253e-05
1.89326e-06
-1.15768e-05
1.91388e-06
-1.05034e-05
1.78567e-06
-9.39526e-06
1.75798e-06
-8.46975e-06
1.94994e-06
-7.58786e-06
1.98005e-06
-6.71047e-06
1.97037e-06
-5.93318e-06
2.05266e-06
-5.24967e-06
2.12574e-06
-4.67441e-06
2.20608e-06
-4.16348e-06
2.23299e-06
-3.78193e-06
2.31737e-06
-3.45177e-06
2.31442e-06
-3.084e-06
2.22274e-06
-2.67883e-06
2.14864e-06
-2.39441e-06
2.25684e-06
-2.17756e-06
2.31434e-06
-2.32433e-06
2.65603e-06
-2.6527e-06
2.82911e-06
-2.95032e-06
2.81275e-06
-3.24391e-06
2.82806e-06
-3.65324e-06
2.98998e-06
-3.85559e-06
2.83865e-06
-3.67774e-06
2.49456e-06
-3.00531e-06
2.0339e-06
-2.50752e-06
2.34629e-06
-2.43906e-06
2.9898e-06
-2.64167e-06
3.34803e-06
-3.15957e-06
3.63079e-06
-3.58133e-06
3.61623e-06
-3.5795e-06
3.37452e-06
-3.05811e-06
3.02038e-06
-2.70769e-06
3.24674e-06
-2.88765e-06
3.69114e-06
-3.25889e-06
3.75933e-06
-3.30318e-06
3.37564e-06
-3.09667e-06
3.10278e-06
-3.26632e-06
3.46038e-06
-3.99713e-06
3.96345e-06
-5.67088e-06
4.81843e-06
-8.29389e-06
5.6494e-06
-1.01788e-05
4.8673e-06
-8.98847e-06
1.80973e-06
-6.39803e-06
2.38899e-07
-4.93238e-06
1.22387e-06
-5.81357e-06
3.63692e-06
-7.58229e-06
4.42193e-06
-9.00171e-06
4.04878e-06
-9.74282e-06
3.41964e-06
-9.78574e-06
2.75642e-06
-8.70937e-06
1.67015e-06
-8.9418e-06
3.03444e-06
-1.02877e-05
4.16296e-06
-1.13269e-05
3.85742e-06
-1.1945e-05
3.5181e-06
-1.2681e-05
3.74154e-06
-1.29342e-05
3.35156e-06
-1.36132e-05
3.82735e-06
-1.28069e-05
2.56976e-06
-1.27261e-05
3.53288e-06
-1.25905e-05
3.64787e-06
-1.26272e-05
4.06538e-06
-1.21488e-05
3.85286e-06
-1.17586e-05
4.25851e-06
-1.14315e-05
4.61905e-06
-1.08921e-05
4.74395e-06
-1.03389e-05
5.07625e-06
-9.72036e-06
5.36096e-06
-9.01787e-06
5.6379e-06
-7.91413e-06
5.57379e-06
-6.68883e-06
5.77136e-06
-5.23835e-06
5.83882e-06
-3.82739e-06
6.15259e-06
-1.84153e-06
5.88829e-06
-6.8071e-08
6.34341e-06
1.62299e-06
6.62443e-06
3.55004e-06
6.49098e-06
5.47459e-06
6.47448e-06
7.62858e-06
6.13085e-06
9.34704e-06
6.51978e-06
1.16952e-05
6.00651e-06
1.42901e-05
5.35906e-06
1.58987e-05
5.69367e-06
1.64647e-05
6.25945e-06
6.77055e-06
1.63258e-05
-1.50164e-07
4.50699e-07
-3.70286e-07
6.19304e-07
-6.40215e-07
6.50151e-07
-9.03676e-07
5.81049e-07
-1.08097e-06
4.21258e-07
-1.04781e-06
8.82316e-08
-8.02183e-07
-3.13515e-07
-3.7992e-07
-6.85779e-07
1.5527e-07
-9.64019e-07
7.49616e-07
-1.14866e-06
1.35105e-06
-1.21536e-06
1.95682e-06
-1.26981e-06
2.59103e-06
-1.33704e-06
3.25467e-06
-1.38048e-06
3.93326e-06
-1.41635e-06
4.69432e-06
-1.55226e-06
5.53058e-06
-1.62534e-06
6.34211e-06
-1.49488e-06
7.09902e-06
-1.34977e-06
7.85813e-06
-1.37572e-06
8.56282e-06
-1.35076e-06
9.16336e-06
-1.17044e-06
9.66564e-06
-9.28786e-07
1.00573e-05
-6.53104e-07
1.03565e-05
-3.98691e-07
1.05838e-05
-2.01937e-07
1.07189e-05
-5.72695e-09
1.08057e-05
1.96093e-07
1.07829e-05
4.49434e-07
1.0637e-05
6.98439e-07
1.03809e-05
1.00076e-06
1.00295e-05
1.28955e-06
9.61086e-06
1.59519e-06
9.0843e-06
2.01211e-06
8.34357e-06
2.38084e-06
7.23224e-06
2.72138e-06
5.69695e-06
2.95748e-06
3.86406e-06
3.0343e-06
1.97788e-06
2.93939e-06
3.16499e-07
2.54106e-06
-1.14922e-06
2.22931e-06
-2.46643e-06
2.25025e-06
-3.45306e-06
2.0356e-06
-3.98809e-06
1.5014e-06
-4.44953e-06
1.34993e-06
-4.97216e-06
1.38808e-06
-5.44196e-06
1.29605e-06
-5.7405e-06
1.06545e-06
-5.84455e-06
8.18471e-07
-5.59384e-06
3.48396e-07
-4.94206e-06
-2.01825e-07
-4.13233e-06
-4.82045e-07
-3.32354e-06
-4.51071e-07
-2.68518e-06
-2.61434e-09
-2.2865e-06
7.65992e-07
-2.22398e-06
1.81925e-06
-2.62501e-06
3.03335e-06
-3.54971e-06
4.15918e-06
-4.89467e-06
4.99757e-06
-6.48899e-06
5.2944e-06
-8.25893e-06
5.27821e-06
-1.00996e-05
5.32316e-06
-1.1085e-05
4.31235e-06
-1.14499e-05
2.93426e-06
-1.16292e-05
2.29968e-06
-1.03879e-05
8.73417e-07
-9.92134e-06
1.59738e-06
-1.19387e-05
3.43818e-06
-1.44323e-05
4.95671e-06
-1.74326e-05
6.31395e-06
-1.99994e-05
6.30255e-06
-2.17829e-05
6.49041e-06
-2.2764e-05
6.68655e-06
-2.34786e-05
6.49459e-06
-2.42776e-05
6.32853e-06
-2.48618e-05
5.94865e-06
-2.53301e-05
5.67117e-06
-2.55743e-05
5.32638e-06
-2.56845e-05
5.06281e-06
-2.56161e-05
4.78326e-06
-2.5453e-05
4.5974e-06
-2.51236e-05
4.35289e-06
-2.47284e-05
4.24292e-06
-2.42153e-05
4.05338e-06
-2.36301e-05
3.94882e-06
-2.29394e-05
3.80134e-06
-2.21511e-05
3.68618e-06
-2.13298e-05
3.62783e-06
-2.04652e-05
3.58658e-06
-1.95269e-05
3.55123e-06
-1.85162e-05
3.46328e-06
-1.74618e-05
3.44301e-06
-1.64524e-05
3.56354e-06
-1.5364e-05
3.58116e-06
-1.4204e-05
3.47043e-06
-1.30966e-05
3.53654e-06
-1.19599e-05
3.62467e-06
-1.07063e-05
3.35161e-06
-9.51388e-06
3.33262e-06
-8.43599e-06
3.69269e-06
-7.39644e-06
3.76711e-06
-6.44531e-06
3.82934e-06
-5.59314e-06
3.98788e-06
-4.7237e-06
4.02003e-06
-3.93094e-06
4.17459e-06
-3.20451e-06
4.24184e-06
-2.67719e-06
4.50301e-06
-2.34426e-06
4.66685e-06
-2.07154e-06
4.57752e-06
-1.78838e-06
4.43472e-06
-1.47963e-06
4.49332e-06
-7.93553e-07
4.16421e-06
-4.47839e-07
4.84467e-06
-6.93022e-07
5.6448e-06
-8.92284e-07
5.61083e-06
-8.74648e-07
5.39258e-06
-1.12463e-06
5.89159e-06
-1.68037e-06
6.18924e-06
-1.85916e-06
5.49007e-06
-1.23042e-06
4.03007e-06
-2.98645e-07
4.03855e-06
-3.84497e-08
5.69248e-06
-2.79267e-07
6.98409e-06
-9.56673e-07
7.7919e-06
-1.05978e-06
7.30103e-06
-6.83084e-07
6.80932e-06
-1.38846e-07
6.4027e-06
2.79285e-07
6.79408e-06
1.41506e-07
7.72957e-06
-4.33099e-07
8.07076e-06
-1.30483e-06
7.81366e-06
-2.35427e-06
7.62136e-06
-3.63225e-06
8.20753e-06
-5.55849e-06
9.22437e-06
-7.92652e-06
1.03679e-05
-1.01505e-05
1.11188e-05
-1.10402e-05
9.00957e-06
-9.30201e-06
3.21078e-06
-7.20776e-06
8.36086e-07
-5.98345e-06
2.51859e-06
-6.48101e-06
7.0229e-06
-9.1289e-06
9.66139e-06
-9.71909e-06
7.38052e-06
-1.00547e-05
6.54148e-06
-1.03455e-05
5.91917e-06
-8.42666e-06
2.39517e-06
-7.03824e-06
4.27422e-06
-7.85743e-06
7.74892e-06
-9.21572e-06
7.98961e-06
-1.01888e-05
7.36394e-06
-1.07745e-05
7.39709e-06
-1.16073e-05
7.44783e-06
-1.21091e-05
7.68465e-06
-1.12194e-05
5.14247e-06
-1.05563e-05
6.75939e-06
-1.04473e-05
7.69894e-06
-1.01049e-05
8.17797e-06
-9.76864e-06
8.31792e-06
-9.45826e-06
9.22021e-06
-9.18095e-06
9.9685e-06
-8.90311e-06
1.03642e-05
-8.61046e-06
1.09852e-05
-8.37665e-06
1.16934e-05
-7.75111e-06
1.20365e-05
-6.52566e-06
1.16821e-05
-5.07215e-06
1.19343e-05
-3.36997e-06
1.20668e-05
-1.86354e-06
1.29713e-05
2.56458e-07
1.23262e-05
2.00339e-06
1.36678e-05
3.39661e-06
1.48533e-05
4.96659e-06
1.47958e-05
6.88718e-06
1.44862e-05
8.46987e-06
1.41512e-05
1.01937e-05
1.45286e-05
1.29818e-05
1.36104e-05
1.64344e-05
1.15093e-05
1.85915e-05
1.17484e-05
1.92669e-05
1.28268e-05
1.3919e-05
1.92342e-05
-5.36907e-08
4.67549e-07
-9.92403e-08
6.31391e-07
-2.18732e-07
7.35643e-07
-3.50301e-07
6.82228e-07
-2.98896e-07
3.4658e-07
1.67478e-08
-2.44122e-07
4.75608e-07
-7.85972e-07
9.66061e-07
-1.18852e-06
1.42947e-06
-1.43906e-06
1.85795e-06
-1.58778e-06
2.24983e-06
-1.61619e-06
2.61096e-06
-1.63829e-06
3.01738e-06
-1.74801e-06
3.544e-06
-1.90848e-06
4.14451e-06
-2.0141e-06
4.7542e-06
-2.15688e-06
5.39733e-06
-2.26316e-06
6.12713e-06
-2.2175e-06
6.93396e-06
-2.15379e-06
7.71409e-06
-2.14038e-06
8.34864e-06
-1.96902e-06
8.83559e-06
-1.65537e-06
9.29482e-06
-1.3893e-06
9.70122e-06
-1.07154e-06
1.00087e-05
-6.95081e-07
1.026e-05
-4.29402e-07
1.04363e-05
-1.72071e-07
1.05098e-05
1.54703e-07
1.05242e-05
4.71181e-07
1.0507e-05
7.49005e-07
1.04871e-05
1.06789e-06
1.04277e-05
1.40241e-06
1.03036e-05
1.7814e-06
1.0093e-05
2.26946e-06
9.77966e-06
2.73702e-06
9.28868e-06
3.26368e-06
8.54545e-06
3.74116e-06
7.54021e-06
4.10707e-06
6.2353e-06
4.33378e-06
4.54704e-06
4.29596e-06
2.69318e-06
4.15318e-06
1.0938e-06
3.93939e-06
-1.16555e-07
3.35288e-06
-1.15041e-06
2.66939e-06
-2.02123e-06
2.36804e-06
-2.76468e-06
2.29558e-06
-3.22194e-06
1.9618e-06
-3.50416e-06
1.59451e-06
-3.67931e-06
1.26205e-06
-3.50687e-06
4.85945e-07
-2.85847e-06
-4.74725e-07
-2.01658e-06
-8.91208e-07
-1.3177e-06
-6.6893e-07
-8.91589e-07
1.06983e-07
-7.59424e-07
1.22909e-06
-8.15435e-07
2.52492e-06
-1.08565e-06
3.98974e-06
-1.71575e-06
5.51453e-06
-2.72552e-06
6.81966e-06
-4.18209e-06
7.71965e-06
-5.68557e-06
7.83414e-06
-6.81246e-06
7.51118e-06
-8.05447e-06
6.81844e-06
-9.25215e-06
5.47919e-06
-9.70975e-06
4.11116e-06
-1.17984e-05
4.42341e-06
-1.55026e-05
6.77883e-06
-1.9439e-05
8.87465e-06
-2.17582e-05
8.89473e-06
-2.2924e-05
9.15728e-06
-2.39934e-05
9.10081e-06
-2.49288e-05
9.21493e-06
-2.54155e-05
9.00747e-06
-2.57269e-05
8.68834e-06
-2.58253e-05
8.34202e-06
-2.58882e-05
7.97264e-06
-2.58729e-05
7.64966e-06
-2.57817e-05
7.27165e-06
-2.55907e-05
6.93188e-06
-2.53146e-05
6.6041e-06
-2.49546e-05
6.35254e-06
-2.45431e-05
6.09961e-06
-2.40333e-05
5.92662e-06
-2.34745e-05
5.7154e-06
-2.28422e-05
5.59635e-06
-2.21301e-05
5.39812e-06
-2.13411e-05
5.26816e-06
-2.04817e-05
5.16148e-06
-1.96203e-05
5.11183e-06
-1.8674e-05
5.02475e-06
-1.76617e-05
4.87732e-06
-1.65896e-05
4.84249e-06
-1.5478e-05
4.97773e-06
-1.44376e-05
5.114e-06
-1.33033e-05
4.93847e-06
-1.22684e-05
5.05258e-06
-1.10467e-05
5.04967e-06
-9.84039e-06
4.8533e-06
-8.71377e-06
4.80127e-06
-7.5724e-06
5.15749e-06
-6.48674e-06
5.32643e-06
-5.56928e-06
5.55032e-06
-4.79304e-06
5.85906e-06
-4.01563e-06
5.83266e-06
-3.2125e-06
5.95024e-06
-2.39934e-06
5.98399e-06
-1.59931e-06
6.22587e-06
-1.03587e-06
6.64324e-06
-7.72631e-07
6.86776e-06
-7.52638e-07
7.00682e-06
-9.17303e-07
7.26133e-06
-6.65419e-07
6.38914e-06
-1.79323e-07
6.85734e-06
-3.34023e-07
8.46957e-06
-6.70476e-07
8.53286e-06
-5.1479e-07
7.6e-06
-3.47272e-07
8.26432e-06
-9.85887e-07
9.71953e-06
-1.82817e-06
9.18939e-06
-1.65255e-06
6.35632e-06
1.30479e-07
4.48303e-06
1.36227e-06
6.7725e-06
8.21897e-07
1.03447e-05
1.81714e-07
1.17382e-05
1.44037e-07
1.09781e-05
4.78258e-07
1.02852e-05
7.43472e-07
9.75855e-06
9.08784e-07
1.01469e-05
7.74074e-07
1.14776e-05
3.29491e-08
1.25143e-05
-1.25295e-06
1.26763e-05
-2.67632e-06
1.26216e-05
-4.42109e-06
1.36232e-05
-6.83222e-06
1.50046e-05
-8.67692e-06
1.52542e-05
-9.79036e-06
1.5311e-05
-9.47081e-06
1.20594e-05
-8.72128e-06
5.81805e-06
-8.19526e-06
3.00481e-06
-8.42155e-06
4.99235e-06
-9.09634e-06
1.08447e-05
-1.04628e-05
1.36216e-05
-1.00327e-05
9.43312e-06
-9.86802e-06
9.1224e-06
-1.04377e-05
9.52308e-06
-9.26316e-06
3.85977e-06
-7.52957e-06
4.90535e-06
-7.35909e-06
1.01421e-05
-8.31829e-06
1.16354e-05
-9.18817e-06
1.10618e-05
-9.89939e-06
1.11593e-05
-1.09065e-05
1.16718e-05
-1.14867e-05
1.19286e-05
-1.00943e-05
6.97043e-06
-9.23652e-06
9.2374e-06
-8.83385e-06
1.11171e-05
-8.73741e-06
1.24374e-05
-7.64572e-06
1.17954e-05
-7.12032e-06
1.36978e-05
-6.90164e-06
1.55205e-05
-6.69466e-06
1.64865e-05
-6.35831e-06
1.71879e-05
-6.13259e-06
1.82193e-05
-5.70999e-06
1.8823e-05
-4.72136e-06
1.79992e-05
-3.16924e-06
1.74562e-05
-1.52135e-06
1.75563e-05
2.07322e-08
1.88839e-05
2.48746e-06
1.6823e-05
5.05878e-06
1.91433e-05
6.33007e-06
2.28559e-05
7.33522e-06
2.36569e-05
8.85125e-06
2.35362e-05
1.01966e-05
2.32396e-05
1.20152e-05
2.35102e-05
1.50786e-05
2.16908e-05
1.84146e-05
1.77476e-05
1.97869e-05
1.83075e-05
2.06508e-05
1.93695e-05
2.09159e-05
2.13555e-05
-7.26092e-08
4.95779e-07
-1.48436e-07
6.6823e-07
-1.70822e-07
7.15283e-07
-1.4619e-09
4.69807e-07
4.28359e-07
-1.21402e-07
9.76356e-07
-8.24558e-07
1.48329e-06
-1.32115e-06
1.82149e-06
-1.55226e-06
1.96545e-06
-1.60676e-06
2.03128e-06
-1.6759e-06
2.14606e-06
-1.74956e-06
2.33638e-06
-1.84429e-06
2.60869e-06
-2.03155e-06
3.05611e-06
-2.35852e-06
3.67502e-06
-2.63128e-06
4.30068e-06
-2.7801e-06
4.89498e-06
-2.86486e-06
5.58027e-06
-2.9077e-06
6.2914e-06
-2.8656e-06
6.85389e-06
-2.71981e-06
7.35312e-06
-2.48881e-06
7.8491e-06
-2.18061e-06
8.30259e-06
-1.85805e-06
8.66799e-06
-1.45575e-06
8.89037e-06
-9.56334e-07
9.09817e-06
-6.30372e-07
9.25742e-06
-3.06252e-07
9.32294e-06
8.60101e-08
9.45998e-06
3.64179e-07
9.61941e-06
6.70111e-07
9.76405e-06
9.99183e-07
9.88163e-06
1.34568e-06
9.92794e-06
1.80001e-06
9.91415e-06
2.33464e-06
9.84946e-06
2.84122e-06
9.62403e-06
3.52677e-06
9.24952e-06
4.1381e-06
8.80967e-06
4.59278e-06
8.117e-06
5.0727e-06
7.20754e-06
5.23666e-06
6.18125e-06
5.24586e-06
5.13685e-06
5.07133e-06
4.04463e-06
4.56099e-06
2.70449e-06
4.15687e-06
1.36584e-06
3.84734e-06
3.5038e-07
3.45554e-06
-3.00168e-07
2.78851e-06
-6.65493e-07
2.17647e-06
-8.71538e-07
1.72806e-06
-7.8933e-07
7.01245e-07
-4.73214e-07
-4.46222e-07
-1.78494e-07
-7.91811e-07
-9.3916e-08
-3.11498e-07
-1.62026e-07
6.79019e-07
-4.70882e-07
2.11796e-06
-9.94276e-07
3.6998e-06
-1.5389e-06
5.24789e-06
-2.07662e-06
6.80528e-06
-2.66234e-06
8.17921e-06
-3.55571e-06
9.51968e-06
-5.0671e-06
1.03232e-05
-6.90645e-06
1.03024e-05
-8.53659e-06
9.47497e-06
-9.69627e-06
7.868e-06
-1.23326e-05
8.10182e-06
-1.71433e-05
1.06038e-05
-2.08428e-05
1.18746e-05
-2.23351e-05
1.18256e-05
-2.37425e-05
1.18411e-05
-2.46637e-05
1.16827e-05
-2.52655e-05
1.13537e-05
-2.56155e-05
1.12775e-05
-2.57362e-05
1.08648e-05
-2.58778e-05
1.06169e-05
-2.58544e-05
1.01395e-05
-2.58789e-05
9.88623e-06
-2.57334e-05
9.42411e-06
-2.56289e-05
9.14918e-06
-2.53874e-05
8.70251e-06
-2.51108e-05
8.41287e-06
-2.47218e-05
8.08064e-06
-2.42875e-05
7.84732e-06
-2.37686e-05
7.62026e-06
-2.32359e-05
7.43729e-06
-2.26291e-05
7.28797e-06
-2.19525e-05
7.0754e-06
-2.11629e-05
6.91335e-06
-2.02782e-05
6.76218e-06
-1.93844e-05
6.70507e-06
-1.84087e-05
6.54559e-06
-1.74335e-05
6.41692e-06
-1.63589e-05
6.32801e-06
-1.51628e-05
6.35805e-06
-1.39899e-05
6.4985e-06
-1.29156e-05
6.4864e-06
-1.17961e-05
6.57037e-06
-1.05026e-05
6.3705e-06
-9.36494e-06
6.38455e-06
-8.24828e-06
6.33759e-06
-7.06315e-06
6.55747e-06
-5.9154e-06
6.77183e-06
-4.90609e-06
7.09604e-06
-4.10489e-06
7.64606e-06
-3.38051e-06
7.66865e-06
-2.61531e-06
7.69121e-06
-1.91022e-06
7.78186e-06
-1.20287e-06
7.95921e-06
-4.85938e-07
8.35246e-06
1.10594e-07
8.6839e-06
4.06484e-07
9.19289e-06
3.31536e-07
9.98463e-06
-2.12945e-09
9.19666e-06
1.73277e-08
9.30637e-06
-9.82019e-08
1.13837e-05
-6.09925e-07
1.17862e-05
-6.14069e-07
9.86817e-06
-4.89266e-07
1.03249e-05
-1.16095e-06
1.30725e-05
-2.3099e-06
1.3265e-05
-2.51519e-06
9.47222e-06
-8.47041e-07
5.35889e-06
1.0245e-06
7.18149e-06
1.52638e-06
1.22405e-05
1.22648e-06
1.49801e-05
1.11635e-06
1.45322e-05
8.83585e-07
1.41054e-05
8.88804e-07
1.3157e-05
9.28634e-07
1.34871e-05