/*--------------------------------*- C++ -*----------------------------------*\
| =========                 |                                                 |
| \\      /  F ield         | OpenFOAM: The Open Source CFD Toolbox           |
|  \\    /   O peration     | Version:  dev                                   |
|   \\  /    A nd           | Web:      http://www.openfoam.org               |
|    \\/     M anipulation  |                                                 |
\*---------------------------------------------------------------------------*/
FoamFile
{
    version     2.0;
    format      ascii;
    class       surfaceScalarField;
    object      phi_0;
    location    "9.146";
}
// * * * * * * * * * * * * * * * * * * * * * * * * * * * * * * * * * * * * * //

dimensions      [1 0 -1 0 0 0 0];

internalField   nonuniform List<scalar> 
24170
(
2.60943e-06
1.92948e-06
2.2259e-06
1.36178e-06
2.21597e-06
9.23944e-07
2.46265e-06
6.07982e-07
2.68631e-06
5.66361e-07
3.0243e-06
3.97493e-07
3.15996e-06
5.38394e-07
3.49141e-06
2.90965e-07
3.5954e-06
4.61068e-07
3.94273e-06
1.70975e-07
3.93377e-06
4.75916e-07
4.42843e-06
-7.02848e-08
4.22759e-06
5.79857e-07
5.06279e-06
-4.93073e-07
4.57233e-06
7.93081e-07
5.24421e-06
-4.01392e-07
7.05056e-06
-1.56865e-06
-4.47887e-07
7.67259e-06
4.30366e-06
2.61236e-06
4.30623e-06
2.39023e-06
4.33588e-06
1.87233e-06
4.40599e-06
1.45252e-06
4.58655e-06
1.23783e-06
4.82797e-06
9.43678e-07
4.97368e-06
1.11984e-06
5.43457e-06
4.97637e-07
5.52539e-06
9.77511e-07
6.14048e-06
1.11824e-07
6.0479e-06
1.07186e-06
6.92122e-06
-4.86629e-07
6.7026e-06
1.20259e-06
7.60582e-06
-1.0306e-06
7.49915e-06
1.22121e-06
8.90412e-06
-1.50577e-06
6.99889e-06
5.96607e-07
-6.03415e-06
1.27566e-05
5.11817e-06
3.06361e-06
5.61067e-06
3.03633e-06
5.98232e-06
2.58179e-06
6.15456e-06
2.29083e-06
6.34988e-06
1.98301e-06
6.73839e-06
1.42464e-06
6.74531e-06
1.91503e-06
7.43853e-06
5.42983e-07
7.38149e-06
1.7048e-06
8.20484e-06
-1.01615e-07
7.92608e-06
1.90766e-06
8.93428e-06
-9.84687e-07
8.66003e-06
1.92379e-06
9.55872e-06
-1.53485e-06
9.56638e-06
1.57039e-06
1.10411e-05
-2.64545e-06
9.23507e-06
2.67636e-06
-8.29732e-06
1.1736e-05
5.54353e-06
3.4899e-06
6.62489e-06
3.20763e-06
7.10313e-06
3.29152e-06
7.79901e-06
2.70639e-06
7.77658e-06
3.04066e-06
8.67377e-06
1.48018e-06
8.52921e-06
2.9422e-06
9.17392e-06
7.1177e-07
9.06425e-06
2.55007e-06
9.85299e-06
-2.26836e-07
9.55666e-06
2.81649e-06
1.0415e-05
-1.28144e-06
1.00885e-05
2.74141e-06
1.09577e-05
-1.96502e-06
1.07039e-05
2.21333e-06
1.21221e-05
-3.70021e-06
1.15597e-05
3.55762e-06
-8.46428e-06
1.19454e-05
5.66456e-06
4.36832e-06
7.16375e-06
3.08235e-06
7.63964e-06
4.11825e-06
8.90424e-06
2.66418e-06
8.69232e-06
4.39159e-06
9.72863e-06
1.48614e-06
9.68953e-06
3.94715e-06
1.02337e-05
1.06091e-06
1.01648e-05
3.42438e-06
1.089e-05
-2.22724e-07
1.07665e-05
3.61508e-06
1.13884e-05
-1.29451e-06
1.12934e-05
3.37058e-06
1.17782e-05
-1.96346e-06
1.18552e-05
2.57387e-06
1.23553e-05
-3.79789e-06
1.3128e-05
3.13695e-06
-9.02222e-06
1.39494e-05
6.13902e-06
5.42252e-06
7.40577e-06
3.32191e-06
7.52267e-06
5.43356e-06
8.69758e-06
2.82846e-06
9.05e-06
5.27995e-06
1.01798e-05
1.49984e-06
1.02689e-05
4.91789e-06
1.09134e-05
1.38796e-06
1.11067e-05
4.10964e-06
1.18099e-05
-1.143e-07
1.18369e-05
4.33362e-06
1.2299e-05
-1.10205e-06
1.27954e-05
3.45597e-06
1.2964e-05
-1.59686e-06
1.38387e-05
2.17968e-06
1.35315e-05
-3.04546e-06
1.56182e-05
1.42103e-06
-6.01327e-06
1.29406e-05
7.25272e-06
6.19981e-06
8.003e-06
4.22025e-06
8.28782e-06
6.71012e-06
9.50035e-06
3.07329e-06
1.01834e-05
5.95276e-06
1.0981e-05
1.95549e-06
1.1274e-05
5.7795e-06
1.21438e-05
1.57327e-06
1.23306e-05
4.89495e-06
1.25691e-05
5.41117e-07
1.32457e-05
4.46269e-06
1.35137e-05
-6.65677e-07
1.44331e-05
3.16868e-06
1.42174e-05
-7.89629e-07
1.54917e-05
1.44347e-06
1.43949e-05
-1.47277e-06
1.55633e-05
6.7359e-07
-2.1835e-06
1.21043e-05
5.53118e-06
6.95634e-06
6.03659e-06
4.98868e-06
6.71731e-06
7.22771e-06
7.43813e-06
3.47957e-06
7.96205e-06
6.47536e-06
8.6035e-06
2.28338e-06
9.03437e-06
6.23892e-06
9.39703e-06
2.02851e-06
9.76506e-06
5.27728e-06
9.89185e-06
1.09399e-06
1.068e-05
4.28879e-06
1.05869e-05
-2.11294e-08
1.11796e-05
3.0728e-06
1.09681e-05
-1.2532e-07
1.15014e-05
1.32308e-06
1.08804e-05
-4.85803e-07
1.14379e-05
4.40982e-07
-1.03862e-06
1.05756e-05
6.4772e-06
7.59676e-06
7.14456e-06
5.78175e-06
8.04084e-06
7.7107e-06
8.80643e-06
4.01429e-06
9.33332e-06
7.15071e-06
9.90589e-06
2.83082e-06
1.06313e-05
6.53831e-06
1.07943e-05
2.80726e-06
1.14974e-05
5.42501e-06
1.17628e-05
1.60333e-06
1.26507e-05
4.10791e-06
1.23152e-05
9.59608e-07
1.28681e-05
3.09232e-06
1.27364e-05
5.2222e-07
1.30629e-05
1.46785e-06
1.27634e-05
2.33413e-07
1.32966e-05
2.69263e-07
-2.75082e-07
1.28534e-05
7.70361e-06
8.25705e-06
8.87954e-06
6.27298e-06
9.67901e-06
8.50337e-06
1.0521e-05
4.65888e-06
1.14042e-05
7.64954e-06
1.16586e-05
3.85944e-06
1.26695e-05
6.70506e-06
1.29149e-05
3.63764e-06
1.38162e-05
5.49776e-06
1.37412e-05
2.56819e-06
1.44456e-05
4.22138e-06
1.42826e-05
1.86486e-06
1.49395e-05
3.09217e-06
1.46426e-05
1.40879e-06
1.4841e-05
1.80479e-06
1.47004e-05
8.53055e-07
1.48817e-05
5.0468e-07
3.37658e-07
1.46372e-05
8.73579e-06
9.2744e-06
1.01096e-05
6.79962e-06
1.13913e-05
9.04293e-06
1.19672e-05
5.77417e-06
1.31734e-05
8.02458e-06
1.34649e-05
5.0318e-06
1.45398e-05
6.97985e-06
1.48056e-05
4.59364e-06
1.57561e-05
5.66076e-06
1.5747e-05
3.59516e-06
1.63979e-05
4.50177e-06
1.63209e-05
2.77525e-06
1.68588e-05
3.29925e-06
1.67361e-05
2.20233e-06
1.69383e-05
2.20649e-06
1.68314e-05
1.49622e-06
1.67744e-05
1.03083e-06
8.10347e-07
1.6722e-05
1.06555e-05
1.00406e-05
1.14978e-05
8.10856e-06
1.3033e-05
9.56131e-06
1.36676e-05
7.0527e-06
1.50114e-05
8.46547e-06
1.54052e-05
6.28979e-06
1.66406e-05
7.26332e-06
1.69375e-05
5.67522e-06
1.79185e-05
5.93139e-06
1.80625e-05
4.58863e-06
1.8811e-05
4.78815e-06
1.87558e-05
3.76113e-06
1.92691e-05
3.6201e-06
1.93223e-05
2.89494e-06
1.9613e-05
2.5809e-06
1.95275e-05
2.17303e-06
1.93872e-05
1.69795e-06
1.40556e-06
1.9266e-05
1.23789e-05
1.07697e-05
1.34644e-05
9.41987e-06
1.50657e-05
1.02407e-05
1.57389e-05
8.5134e-06
1.71749e-05
9.01366e-06
1.77406e-05
7.55852e-06
1.89848e-05
7.69741e-06
1.95413e-05
6.64649e-06
2.05441e-05
6.3131e-06
2.08638e-05
5.52544e-06
2.16225e-05
5.16626e-06
2.18739e-05
4.53072e-06
2.2301e-05
4.1053e-06
2.23908e-05
3.62058e-06
2.25418e-05
3.15593e-06
2.25882e-05
2.77249e-06
2.24893e-05
2.37037e-06
2.05251e-06
2.2355e-05
1.41395e-05
1.13208e-05
1.52539e-05
1.09234e-05
1.71617e-05
1.0827e-05
1.82054e-05
9.80641e-06
1.97973e-05
9.59113e-06
2.0658e-05
8.69738e-06
2.1933e-05
8.24992e-06
2.26993e-05
7.54259e-06
2.35972e-05
6.91923e-06
2.41312e-05
6.34999e-06
2.47028e-05
5.81603e-06
2.50202e-05
5.30658e-06
2.53275e-05
4.77345e-06
2.55192e-05
4.29626e-06
2.56162e-05
3.82825e-06
2.56637e-05
3.40694e-06
2.56237e-05
3.01352e-06
2.66263e-06
2.55493e-05
1.67881e-05
1.22788e-05
1.82097e-05
1.22967e-05
2.00618e-05
1.16352e-05
2.14454e-05
1.0912e-05
2.30542e-05
1.02881e-05
2.4276e-05
9.59378e-06
2.55223e-05
8.93688e-06
2.65012e-05
8.31474e-06
2.72897e-05
7.70918e-06
2.7913e-05
7.14439e-06
2.83848e-05
6.61222e-06
2.87431e-05
6.07543e-06
2.89754e-05
5.54079e-06
2.91288e-05
5.0239e-06
2.9231e-05
4.50137e-06
2.92648e-05
4.05127e-06
2.92267e-05
3.64346e-06
3.29006e-06
2.91188e-05
1.88009e-05
1.28265e-05
2.09779e-05
1.29917e-05
2.3073e-05
1.22617e-05
2.48517e-05
1.16701e-05
2.64403e-05
1.10409e-05
2.77992e-05
1.03785e-05
2.89927e-05
9.68851e-06
3.0042e-05
9.0142e-06
3.09459e-05
8.36962e-06
3.17256e-05
7.75827e-06
3.23718e-05
7.20133e-06
3.28899e-05
6.64426e-06
3.32714e-05
6.11056e-06
3.35113e-05
5.60937e-06
3.36105e-05
5.11557e-06
3.36219e-05
4.65045e-06
3.35528e-05
4.23475e-06
3.85706e-06
3.34307e-05
2.2202e-05
1.37222e-05
2.4329e-05
1.3637e-05
2.65611e-05
1.26298e-05
2.86145e-05
1.20222e-05
3.03832e-05
1.14761e-05
3.1897e-05
1.08643e-05
3.32017e-05
1.01785e-05
3.43541e-05
9.45709e-06
3.53614e-05
8.76939e-06
3.62266e-05
8.12742e-06
3.69533e-05
7.5483e-06
3.7519e-05
7.00126e-06
3.79185e-05
6.49129e-06
3.81663e-05
6.01345e-06
3.83027e-05
5.52233e-06
3.83539e-05
5.04486e-06
3.82983e-05
4.64482e-06
4.25743e-06
3.8174e-05
2.22912e-05
1.32023e-05
2.45641e-05
1.3437e-05
2.64627e-05
1.26734e-05
2.82656e-05
1.19966e-05
3.0036e-05
1.13108e-05
3.17191e-05
1.06112e-05
3.32184e-05
9.93494e-06
3.44801e-05
9.27888e-06
3.54917e-05
8.68123e-06
3.62933e-05
8.10606e-06
3.6925e-05
7.56408e-06
3.73916e-05
7.05573e-06
3.77327e-05
6.54572e-06
3.7938e-05
6.09699e-06
3.80525e-05
5.62043e-06
3.80865e-05
5.14319e-06
3.80316e-05
4.75459e-06
4.38922e-06
3.79003e-05
2.01802e-05
1.24368e-05
2.20075e-05
1.28237e-05
2.37532e-05
1.20549e-05
2.54101e-05
1.13465e-05
2.69463e-05
1.06548e-05
2.83322e-05
9.98111e-06
2.95488e-05
9.34682e-06
3.05541e-05
8.77464e-06
3.13877e-05
8.23562e-06
3.20809e-05
7.70064e-06
3.26442e-05
7.19614e-06
3.30966e-05
6.70813e-06
3.34007e-05
6.24745e-06
3.35822e-05
5.84881e-06
3.36641e-05
5.4384e-06
3.36601e-05
4.99073e-06
3.3562e-05
4.6378e-06
4.31465e-06
3.33881e-05
1.76975e-05
1.14513e-05
1.93769e-05
1.17316e-05
2.09961e-05
1.09688e-05
2.24763e-05
1.03142e-05
2.37832e-05
9.70809e-06
2.49131e-05
9.12176e-06
2.58517e-05
8.58288e-06
2.66502e-05
8.06103e-06
2.73488e-05
7.54884e-06
2.79531e-05
7.04344e-06
2.84661e-05
6.55882e-06
2.88701e-05
6.10925e-06
2.91283e-05
5.72766e-06
2.93116e-05
5.35646e-06
2.94051e-05
5.0196e-06
2.93992e-05
4.64039e-06
2.93326e-05
4.30726e-06
4.00865e-06
2.92231e-05
1.56961e-05
1.03903e-05
1.71981e-05
1.03859e-05
1.86667e-05
9.62376e-06
2.00001e-05
9.04592e-06
2.11927e-05
8.52001e-06
2.2216e-05
8.0384e-06
2.30872e-05
7.57709e-06
2.3836e-05
7.11212e-06
2.44905e-05
6.6578e-06
2.50483e-05
6.21072e-06
2.54673e-05
5.79351e-06
2.57386e-05
5.43917e-06
2.59315e-05
5.11348e-06
2.60567e-05
4.77812e-06
2.61195e-05
4.48776e-06
2.60824e-05
4.19495e-06
2.59814e-05
3.89561e-06
3.61871e-06
2.58516e-05
1.41866e-05
8.89803e-06
1.56026e-05
8.83494e-06
1.6835e-05
8.24199e-06
1.7884e-05
7.80876e-06
1.87917e-05
7.38473e-06
1.96102e-05
6.94879e-06
2.03495e-05
6.51142e-06
2.10029e-05
6.08621e-06
2.15893e-05
5.67836e-06
2.20956e-05
5.28365e-06
2.24661e-05
4.94436e-06
2.27234e-05
4.67277e-06
2.29604e-05
4.37207e-06
2.31126e-05
4.09782e-06
2.32074e-05
3.84181e-06
2.32506e-05
3.59533e-06
2.32072e-05
3.36537e-06
3.12668e-06
2.31301e-05
1.23548e-05
7.41366e-06
1.36179e-05
7.25866e-06
1.48471e-05
6.69697e-06
1.60084e-05
6.30727e-06
1.70139e-05
6.01146e-06
1.78358e-05
5.72891e-06
1.84699e-05
5.44812e-06
1.89689e-05
5.12936e-06
1.93755e-05
4.78731e-06
1.96927e-05
4.45648e-06
1.99318e-05
4.16828e-06
2.01923e-05
3.86266e-06
2.04156e-05
3.59973e-06
2.05588e-05
3.39004e-06
2.06474e-05
3.17028e-06
2.06918e-05
2.96651e-06
2.06831e-05
2.78726e-06
2.58968e-06
2.06418e-05
1.11334e-05
5.89081e-06
1.22641e-05
5.71677e-06
1.32615e-05
5.29322e-06
1.41182e-05
5.03121e-06
1.48672e-05
4.82299e-06
1.55341e-05
4.60162e-06
1.6126e-05
4.37778e-06
1.66266e-05
4.13078e-06
1.70309e-05
3.86092e-06
1.73492e-05
3.5958e-06
1.76517e-05
3.31623e-06
1.78903e-05
3.07119e-06
1.80729e-05
2.85474e-06
1.8216e-05
2.67377e-06
1.82999e-05
2.5082e-06
1.83359e-05
2.35467e-06
1.83367e-05
2.21583e-06
2.0677e-06
1.82976e-05
1.00799e-05
4.50957e-06
1.09925e-05
4.35031e-06
1.1861e-05
3.9798e-06
1.26384e-05
3.8025e-06
1.33412e-05
3.65644e-06
1.39753e-05
3.48887e-06
1.4541e-05
3.31965e-06
1.50174e-05
3.14941e-06
1.53793e-05
2.97801e-06
1.56789e-05
2.76014e-06
1.59301e-05
2.52567e-06
1.6129e-05
2.33056e-06
1.62707e-05
2.16212e-06
1.63781e-05
2.01391e-06
1.64463e-05
1.88913e-06
1.64713e-05
1.7787e-06
1.64705e-05
1.67417e-06
1.57307e-06
1.64296e-05
8.74405e-06
3.38677e-06
9.70491e-06
2.93252e-06
1.05858e-05
2.64989e-06
1.13327e-05
2.60268e-06
1.19932e-05
2.53574e-06
1.25659e-05
2.44701e-06
1.30548e-05
2.35061e-06
1.34587e-05
2.25512e-06
1.37933e-05
2.1444e-06
1.40488e-05
1.99732e-06
1.42351e-05
1.8257e-06
1.43733e-05
1.67464e-06
1.44734e-05
1.54344e-06
1.45326e-05
1.43805e-06
1.45556e-05
1.35186e-06
1.45468e-05
1.27731e-06
1.45058e-05
1.21083e-06
1.14058e-06
1.44404e-05
7.78173e-06
1.97931e-06
8.81001e-06
1.46473e-06
9.61466e-06
1.41289e-06
1.02791e-05
1.50463e-06
1.08399e-05
1.53655e-06
1.13111e-05
1.53119e-06
1.16988e-05
1.51115e-06
1.20073e-05
1.48702e-06
1.22433e-05
1.44127e-06
1.24126e-05
1.35557e-06
1.25109e-05
1.25157e-06
1.25495e-05
1.15819e-06
1.25429e-05
1.07213e-06
1.24999e-05
1.00462e-06
1.24312e-05
9.47608e-07
1.23396e-05
9.00871e-07
1.22326e-05
8.55963e-07
8.03013e-07
1.21159e-05
7.09555e-06
5.70484e-07
7.98097e-06
1.69714e-07
8.55162e-06
4.39013e-07
8.96391e-06
6.88682e-07
9.25814e-06
8.3548e-07
9.47234e-06
9.05942e-07
9.63169e-06
9.3542e-07
9.75466e-06
9.41862e-07
9.84605e-06
9.22368e-07
9.89438e-06
8.75737e-07
9.8965e-06
8.15311e-07
9.85944e-06
7.6003e-07
9.78414e-06
7.12657e-07
9.68274e-06
6.73111e-07
9.56554e-06
6.35104e-07
9.43882e-06
6.0224e-07
9.30536e-06
5.69883e-07
5.38223e-07
9.1576e-06
6.28897e-06
-4.86527e-07
6.52805e-06
-4.46955e-07
6.5727e-06
2.49519e-08
6.59411e-06
2.99017e-07
6.61495e-06
4.44446e-07
6.64613e-06
5.01415e-07
6.68405e-06
5.19836e-07
6.72894e-06
5.14649e-07
6.76952e-06
4.95123e-07
6.78929e-06
4.65744e-07
6.77777e-06
4.33988e-07
6.73892e-06
4.0468e-07
6.67914e-06
3.781e-07
6.60539e-06
3.53969e-07
6.51285e-06
3.37369e-07
6.41132e-06
3.17642e-07
6.30463e-06
2.95716e-07
2.78799e-07
6.18972e-06
4.3223e-06
3.5438e-06
3.24059e-06
3.21078e-06
3.32394e-06
3.49029e-06
3.6703e-06
3.84008e-06
3.98562e-06
4.09788e-06
4.17562e-06
4.22266e-06
4.24315e-06
4.241e-06
4.22503e-06
4.19341e-06
4.14506e-06
4.08656e-06
-3.91516e-07
-7.54184e-08
-8.89554e-07
1.9855e-08
-1.36739e-06
-1.20406e-09
-1.76833e-06
-8.00554e-08
-2.08761e-06
-1.60808e-07
-2.27231e-06
-2.90815e-07
-2.25664e-06
-4.84891e-07
-2.03901e-06
-6.81289e-07
-1.65221e-06
-8.46441e-07
-1.13688e-06
-9.71896e-07
-5.59219e-07
-1.03199e-06
7.18846e-08
-1.0828e-06
7.46003e-07
-1.12271e-06
1.43924e-06
-1.13848e-06
2.16074e-06
-1.16299e-06
2.94437e-06
-1.22072e-06
3.73162e-06
-1.22178e-06
4.40424e-06
-1.10886e-06
4.9786e-06
-1.01219e-06
5.58656e-06
-1.0426e-06
6.22852e-06
-1.06975e-06
6.79952e-06
-9.91229e-07
7.24067e-06
-8.55202e-07
7.51659e-06
-6.89875e-07
7.63975e-06
-5.36883e-07
7.65163e-06
-4.24955e-07
7.54377e-06
-3.07609e-07
7.29469e-06
-1.64801e-07
6.91174e-06
-3.08119e-08
6.39177e-06
1.04732e-07
5.68712e-06
2.89039e-07
4.78087e-06
4.95948e-07
3.637e-06
7.30851e-07
2.1833e-06
1.02628e-06
5.64244e-07
1.20117e-06
-9.87164e-07
1.15598e-06
-2.31678e-06
9.43806e-07
-3.4735e-06
7.70108e-07
-4.51034e-06
6.46709e-07
-5.32274e-06
4.28332e-07
-5.99365e-06
2.97472e-07
-6.82932e-06
4.74719e-07
-7.76028e-06
5.88533e-07
-8.57227e-06
4.9221e-07
-9.2529e-06
3.89207e-07
-9.83693e-06
3.2715e-07
-1.03019e-05
2.47619e-07
-1.06363e-05
1.60851e-07
-1.08423e-05
8.34601e-08
-1.08278e-05
-7.90922e-08
-1.05395e-05
-2.90464e-07
-1.00119e-05
-4.6386e-07
-9.39189e-06
-4.8416e-07
-8.91264e-06
-2.62553e-07
-8.8137e-06
2.08724e-07
-9.26827e-06
8.69117e-07
-1.02908e-05
1.57092e-06
-1.17222e-05
2.12208e-06
-1.34111e-05
2.47093e-06
-1.50878e-05
2.49282e-06
-1.64144e-05
2.18799e-06
-1.75413e-05
2.07053e-06
-1.86204e-05
2.10438e-06
-1.89282e-05
1.43534e-06
-1.83492e-05
7.00562e-07
-1.73489e-05
4.24023e-07
-1.62834e-05
4.14943e-07
-1.44933e-05
-1.86358e-07
-1.35419e-05
7.7947e-07
-1.33765e-05
1.65822e-06
-1.3296e-05
1.97828e-06
-1.39994e-05
2.89508e-06
-1.5928e-05
3.9467e-06
-1.79446e-05
4.06444e-06
-1.94755e-05
3.79515e-06
-2.06875e-05
3.60115e-06
-2.16184e-05
3.41658e-06
-2.23329e-05
3.28455e-06
-2.28225e-05
3.14169e-06
-2.31317e-05
3.03456e-06
-2.32649e-05
2.93373e-06
-2.32436e-05
2.84607e-06
-2.30893e-05
2.78435e-06
-2.28047e-05
2.71731e-06
-2.23945e-05
2.65864e-06
-2.18786e-05
2.61724e-06
-2.12554e-05
2.57574e-06
-2.05503e-05
2.5571e-06
-1.97831e-05
2.55977e-06
-1.89667e-05
2.57598e-06
-1.80711e-05
2.56104e-06
-1.71098e-05
2.56276e-06
-1.61248e-05
2.6069e-06
-1.51761e-05
2.70126e-06
-1.41607e-05
2.68408e-06
-1.31377e-05
2.72761e-06
-1.21169e-05
2.78922e-06
-1.09766e-05
2.69169e-06
-9.79392e-06
2.68601e-06
-8.8028e-06
2.91873e-06
-7.86955e-06
2.99107e-06
-6.94607e-06
3.01505e-06
-6.13153e-06
3.13381e-06
-5.41838e-06
3.24235e-06
-4.82262e-06
3.35781e-06
-4.30161e-06
3.41697e-06
-3.92675e-06
3.53683e-06
-3.6204e-06
3.56548e-06
-3.28735e-06
3.49671e-06
-2.9259e-06
3.44713e-06
-2.69367e-06
3.58634e-06
-2.52941e-06
3.66805e-06
-2.75462e-06
4.05338e-06
-3.18442e-06
4.27461e-06
-3.58892e-06
4.29565e-06
-4.00201e-06
4.3505e-06
-4.54314e-06
4.5606e-06
-4.86308e-06
4.43695e-06
-4.79593e-06
4.10928e-06
-4.27204e-06
3.68014e-06
-3.9769e-06
4.09301e-06
-4.10097e-06
4.83932e-06
-4.44765e-06
5.20756e-06
-5.11904e-06
5.46811e-06
-5.63207e-06
5.40977e-06
-5.60186e-06
5.13645e-06
-4.94919e-06
4.77224e-06
-4.43797e-06
5.00547e-06
-4.51748e-06
5.47442e-06
-4.86645e-06
5.574e-06
-4.91541e-06
5.21395e-06
-4.70069e-06
4.94669e-06
-4.86872e-06
5.32911e-06
-5.65378e-06
5.87797e-06
-7.4247e-06
6.74839e-06
-1.02013e-05
7.60817e-06
-1.22442e-05
6.82027e-06
-1.1035e-05
3.58059e-06
-8.35439e-06
1.87039e-06
-6.71828e-06
2.74745e-06
-7.52279e-06
5.28206e-06
-9.47342e-06
6.29633e-06
-1.09804e-05
5.83409e-06
-1.17888e-05
5.21213e-06
-1.18982e-05
4.56627e-06
-1.07161e-05
3.30754e-06
-1.07979e-05
4.66132e-06
-1.21433e-05
5.96622e-06
-1.32155e-05
5.73115e-06
-1.37591e-05
5.34602e-06
-1.43613e-05
5.56804e-06
-1.44433e-05
5.18222e-06
-1.49808e-05
5.69903e-06
-1.38806e-05
4.33205e-06
-1.35154e-05
5.31562e-06
-1.31179e-05
5.46587e-06
-1.28948e-05
5.90106e-06
-1.20867e-05
5.64023e-06
-1.13661e-05
6.03803e-06
-1.07549e-05
6.40619e-06
-9.9727e-06
6.5348e-06
-9.22386e-06
6.88601e-06
-8.42814e-06
7.17707e-06
-7.55175e-06
7.45101e-06
-6.31551e-06
7.41266e-06
-4.94855e-06
7.59238e-06
-3.42506e-06
7.70855e-06
-2.06754e-06
8.13398e-06
5.99135e-08
7.72317e-06
1.77664e-06
8.33251e-06
3.40697e-06
8.66511e-06
5.23437e-06
8.57936e-06
7.01097e-06
8.57255e-06
8.99347e-06
8.19765e-06
1.05703e-05
8.55209e-06
1.30092e-05
7.88353e-06
1.5745e-05
7.19196e-06
1.73949e-05
7.62253e-06
1.80002e-05
8.19814e-06
8.68596e-06
1.79563e-05
-1.87791e-07
-3.43769e-07
-4.57691e-07
-1.82473e-07
-7.8166e-07
-1.57813e-07
-1.10824e-06
-2.32843e-07
-1.34407e-06
-3.93826e-07
-1.3632e-06
-7.22726e-07
-1.1665e-06
-1.11868e-06
-7.91686e-07
-1.48661e-06
-3.04035e-07
-1.76302e-06
2.42375e-07
-1.9471e-06
7.95346e-07
-2.01488e-06
1.35368e-06
-2.0713e-06
1.93996e-06
-2.13798e-06
2.55317e-06
-2.17839e-06
3.1807e-06
-2.21331e-06
3.89053e-06
-2.34713e-06
4.67077e-06
-2.41103e-06
5.42028e-06
-2.27229e-06
6.11549e-06
-2.12973e-06
6.81303e-06
-2.15962e-06
7.45349e-06
-2.13115e-06
7.99113e-06
-1.94733e-06
8.43019e-06
-1.70433e-06
8.76169e-06
-1.43134e-06
9.00516e-06
-1.18333e-06
9.17531e-06
-9.90261e-07
9.2568e-06
-7.94347e-07
9.2904e-06
-5.9267e-07
9.20991e-06
-3.38124e-07
9.00207e-06
-8.21279e-08
8.68574e-06
2.17332e-07
8.27786e-06
5.03572e-07
7.79897e-06
8.14027e-07
7.20951e-06
1.23188e-06
6.41231e-06
1.60007e-06
5.24185e-06
1.94211e-06
3.63763e-06
2.1775e-06
1.7464e-06
2.26383e-06
-1.7769e-07
2.18738e-06
-1.88821e-06
1.79203e-06
-3.43336e-06
1.48043e-06
-4.84686e-06
1.50185e-06
-5.92786e-06
1.29784e-06
-6.55288e-06
7.75913e-07
-7.10097e-06
6.25482e-07
-7.71668e-06
6.76527e-07
-8.2743e-06
5.94058e-07
-8.6632e-06
3.798e-07
-8.8705e-06
1.63855e-07
-8.72734e-06
-2.79205e-07
-8.17099e-06
-8.2301e-07
-7.4383e-06
-1.10732e-06
-6.69119e-06
-1.08922e-06
-6.10531e-06
-6.51152e-07
-5.7571e-06
1.25906e-07
-5.71871e-06
1.17322e-06
-6.1267e-06
2.41488e-06
-7.05243e-06
3.60728e-06
-8.40091e-06
4.54458e-06
-1.00195e-05
4.94858e-06
-1.18192e-05
5.00289e-06
-1.37261e-05
5.15528e-06
-1.48472e-05
4.2586e-06
-1.53265e-05
2.88582e-06
-1.56159e-05
2.2934e-06
-1.43703e-05
8.33346e-07
-1.36787e-05
1.41311e-06
-1.5476e-05
3.27294e-06
-1.79014e-05
4.87032e-06
-2.0874e-05
6.40209e-06
-2.34754e-05
6.53341e-06
-2.52929e-05
6.75298e-06
-2.62408e-05
7.02366e-06
-2.68469e-05
6.90604e-06
-2.75186e-05
6.80401e-06
-2.79756e-05
6.48283e-06
-2.8309e-05
6.25932e-06
-2.84145e-05
5.96797e-06
-2.83788e-05
5.75285e-06
-2.81597e-05
5.52064e-06
-2.78437e-05
5.38457e-06
-2.73603e-05
5.18565e-06
-2.68113e-05
5.12874e-06
-2.61497e-05
4.98995e-06
-2.54212e-05
4.93889e-06
-2.4594e-05
4.84415e-06
-2.36679e-05
4.77636e-06
-2.27124e-05
4.76586e-06
-2.17242e-05
4.78136e-06
-2.06718e-05
4.80839e-06
-1.95518e-05
4.77706e-06
-1.83863e-05
4.80449e-06
-1.72712e-05
4.9877e-06
-1.60906e-05
5.08875e-06
-1.48426e-05
5.04155e-06
-1.36561e-05
5.16676e-06
-1.24416e-05
5.33774e-06
-1.11146e-05
5.12398e-06
-9.85026e-06
5.14893e-06
-8.70385e-06
5.59092e-06
-7.60642e-06
5.74941e-06
-6.6083e-06
5.88674e-06
-5.72188e-06
6.12298e-06
-4.82553e-06
6.22298e-06
-4.00726e-06
6.44857e-06
-3.26481e-06
6.58171e-06
-2.73352e-06
6.91822e-06
-2.41569e-06
7.1611e-06
-2.18231e-06
7.13602e-06
-1.95226e-06
7.04669e-06
-1.70909e-06
7.1695e-06
-1.08908e-06
6.88017e-06
-8.10889e-07
7.634e-06
-1.135e-06
8.54683e-06
-1.43341e-06
8.60369e-06
-1.53779e-06
8.44747e-06
-1.90773e-06
9.04701e-06
-2.56841e-06
9.45101e-06
-2.85758e-06
8.78947e-06
-2.3864e-06
7.23992e-06
-1.65199e-06
7.28662e-06
-1.5998e-06
9.2438e-06
-1.99828e-06
1.08093e-05
-2.82823e-06
1.16624e-05
-2.98282e-06
1.1038e-05
-2.54294e-06
1.05048e-05
-1.88946e-06
1.01169e-05
-1.33823e-06
1.05499e-05
-1.35961e-06
1.15411e-05
-1.88506e-06
1.19178e-05
-2.78686e-06
1.16817e-05
-3.89045e-06
1.14922e-05
-5.21053e-06
1.21179e-05
-7.23543e-06
1.31832e-05
-9.74405e-06
1.43243e-05
-1.20746e-05
1.51162e-05
-1.30093e-05
1.29578e-05
-1.12085e-05
6.79929e-06
-9.10878e-06
4.15792e-06
-7.86379e-06
5.69333e-06
-8.2257e-06
1.03819e-05
-1.10318e-05
1.34092e-05
-1.16628e-05
1.10117e-05
-1.1982e-05
1.01357e-05
-1.23662e-05
9.66814e-06
-1.04324e-05
5.72725e-06
-8.82228e-06
7.4356e-06
-9.50003e-06
1.12539e-05
-1.0839e-05
1.17576e-05
-1.17444e-05
1.11385e-05
-1.21797e-05
1.11953e-05
-1.28744e-05
1.13465e-05
-1.32115e-05
1.16572e-05
-1.2086e-05
8.85905e-06
-1.11028e-05
1.04868e-05
-1.07256e-05
1.1571e-05
-1.00855e-05
1.20792e-05
-9.41322e-06
1.21487e-05
-8.7633e-06
1.30661e-05
-8.20574e-06
1.38756e-05
-7.70172e-06
1.42775e-05
-7.23849e-06
1.49149e-05
-6.85385e-06
1.56328e-05
-6.05702e-06
1.59646e-05
-4.71559e-06
1.56327e-05
-3.1161e-06
1.58101e-05
-1.30795e-06
1.59949e-05
3.64668e-07
1.70079e-05
2.34183e-06
1.6376e-05
4.10038e-06
1.78465e-05
5.39057e-06
1.93645e-05
6.79159e-06
1.94797e-05
8.50698e-06
1.92353e-05
9.80559e-06
1.88584e-05
1.14078e-05
1.9073e-05
1.43164e-05
1.79251e-05
1.78883e-05
1.57009e-05
2.00183e-05
1.60928e-05
2.06653e-05
1.71117e-05
1.8183e-05
2.06596e-05
-9.46542e-08
-6.85264e-07
-1.89873e-07
-5.31215e-07
-3.66899e-07
-4.35964e-07
-5.5769e-07
-4.93041e-07
-5.58431e-07
-8.2421e-07
-2.8854e-07
-1.40723e-06
1.25783e-07
-1.94475e-06
5.72139e-07
-2.3492e-06
9.91889e-07
-2.60579e-06
1.37683e-06
-2.76004e-06
1.72357e-06
-2.79201e-06
2.03964e-06
-2.81732e-06
2.40317e-06
-2.92781e-06
2.88444e-06
-3.08193e-06
3.43273e-06
-3.18039e-06
3.98765e-06
-3.32121e-06
4.57781e-06
-3.42282e-06
5.25323e-06
-3.37024e-06
5.99924e-06
-3.30881e-06
6.7125e-06
-3.29934e-06
7.27713e-06
-3.12493e-06
7.70012e-06
-2.81283e-06
8.10078e-06
-2.54932e-06
8.44852e-06
-2.2317e-06
8.69955e-06
-1.86168e-06
8.89477e-06
-1.60055e-06
9.01293e-06
-1.34019e-06
9.0259e-06
-1.01156e-06
8.98337e-06
-6.96101e-07
8.91307e-06
-4.16099e-07
8.83074e-06
-9.37121e-08
8.70498e-06
2.414e-07
8.51276e-06
6.24749e-07
8.23384e-06
1.11731e-06
7.85515e-06
1.58639e-06
7.29613e-06
2.11775e-06
6.49174e-06
2.59226e-06
5.42656e-06
2.95977e-06
4.06471e-06
3.19167e-06
2.32521e-06
3.16041e-06
4.12517e-07
3.03376e-06
-1.25779e-06
2.83867e-06
-2.5429e-06
2.27495e-06
-3.66739e-06
1.60961e-06
-4.6417e-06
1.30962e-06
-5.47997e-06
1.248e-06
-6.02599e-06
9.36932e-07
-6.38956e-06
5.91831e-07
-6.66336e-06
3.01488e-07
-6.60856e-06
-4.31065e-07
-6.05325e-06
-1.39227e-06
-5.2761e-06
-1.82076e-06
-4.63082e-06
-1.61445e-06
-4.25799e-06
-8.39905e-07
-4.1958e-06
3.18515e-07
-4.29374e-06
1.59484e-06
-4.58187e-06
3.08992e-06
-5.22107e-06
4.67876e-06
-6.23412e-06
6.08071e-06
-7.70369e-06
7.1175e-06
-9.24367e-06
7.36864e-06
-1.04171e-05
7.18683e-06
-1.16953e-05
6.6526e-06
-1.29379e-05
5.4045e-06
-1.33667e-05
4.02149e-06
-1.52856e-05
4.20379e-06
-1.88936e-05
6.52049e-06
-2.29341e-05
8.84159e-06
-2.54259e-05
9.0569e-06
-2.66037e-05
9.38632e-06
-2.75878e-05
9.41547e-06
-2.84419e-05
9.60942e-06
-2.88277e-05
9.49941e-06
-2.90233e-05
9.27954e-06
-2.89873e-05
9.01235e-06
-2.89085e-05
8.72808e-06
-2.87447e-05
8.48196e-06
-2.8505e-05
8.18843e-06
-2.81611e-05
7.91852e-06
-2.77287e-05
7.66286e-06
-2.72111e-05
7.48111e-06
-2.66444e-05
7.29961e-06
-2.59809e-05
7.2029e-06
-2.52739e-05
7.06722e-06
-2.4502e-05
7.02977e-06
-2.36561e-05
6.90986e-06
-2.27358e-05
6.85028e-06
-2.1743e-05
6.81206e-06
-2.07599e-05
6.84347e-06
-1.97026e-05
6.84387e-06
-1.85848e-05
6.77629e-06
-1.74081e-05
6.80653e-06
-1.61899e-05
7.02215e-06
-1.50548e-05
7.27349e-06
-1.38299e-05
7.19859e-06
-1.27221e-05
7.40197e-06
-1.14247e-05
7.49934e-06
-1.01437e-05
7.40409e-06
-8.95441e-06
7.42403e-06
-7.75057e-06
7.88227e-06
-6.6029e-06
8.16709e-06
-5.6367e-06
8.50692e-06
-4.82659e-06
8.9466e-06
-4.03463e-06
9.01957e-06
-3.21571e-06
9.23414e-06
-2.39534e-06
9.36613e-06
-1.59487e-06
9.7119e-06
-1.03502e-06
1.02543e-05
-8.03273e-07
1.06142e-05
-8.22404e-07
1.08781e-05
-1.04854e-06
1.12668e-05
-9.21806e-07
1.04495e-05
-5.5447e-07
1.10229e-05
-7.67935e-07
1.28136e-05
-1.18124e-06
1.29691e-05
-1.18335e-06
1.20405e-05
-1.1553e-06
1.28753e-05
-1.88247e-06
1.45958e-05
-2.84583e-06
1.41454e-05
-2.82568e-06
1.10394e-05
-1.19732e-06
8.89607e-06
-1.86234e-07
1.1483e-05
-9.30042e-07
1.56672e-05
-1.67826e-06
1.73691e-05
-1.7563e-06
1.65786e-05
-1.36708e-06
1.58702e-05
-1.03228e-06
1.5299e-05
-7.98988e-07
1.5696e-05
-8.4918e-07
1.71493e-05
-1.50929e-06
1.83013e-05
-2.77965e-06
1.85093e-05
-4.25079e-06
1.85391e-05
-6.03282e-06
1.96224e-05
-8.44047e-06
2.09008e-05
-1.03376e-05
2.11145e-05
-1.15553e-05
2.125e-05
-1.12365e-05
1.79168e-05
-1.0416e-05
1.13147e-05
-9.97312e-06
8.12354e-06
-1.03925e-05
9.88235e-06
-1.09795e-05
1.59672e-05
-1.22983e-05
1.90938e-05
-1.19575e-05
1.48463e-05
-1.17524e-05
1.436e-05
-1.2356e-05
1.5109e-05
-1.12867e-05
9.0136e-06
-9.46026e-06
9.62598e-06
-9.10641e-06
1.52005e-05
-9.98262e-06
1.71697e-05
-1.07519e-05
1.67099e-05
-1.12972e-05
1.68818e-05
-1.22034e-05
1.75888e-05
-1.2595e-05
1.79558e-05
-1.09286e-05
1.23298e-05
-9.74277e-06
1.46098e-05
-9.05626e-06
1.67574e-05
-8.69356e-06
1.82636e-05
-7.21368e-06
1.74497e-05
-6.29254e-06
1.94301e-05
-5.78434e-06
2.15046e-05
-5.33674e-06
2.25659e-05
-4.81741e-06
2.32816e-05
-4.43959e-06
2.4318e-05
-3.84193e-06
2.48952e-05
-2.73772e-06
2.39614e-05
-1.1256e-06
2.33044e-05
5.63085e-07
2.33389e-05
1.95252e-06
2.49012e-05
4.57666e-06
2.22341e-05
7.3795e-06
2.49251e-05
8.64599e-06
2.95376e-05
9.46026e-06
3.08135e-05
1.07013e-05
3.10524e-05
1.17215e-05
3.08115e-05
1.34377e-05
3.08186e-05
1.65951e-05
2.85524e-05
1.98862e-05
2.43201e-05
2.10996e-05
2.51015e-05
2.19716e-05
2.61123e-05
2.76596e-05
2.28228e-05
-1.16793e-07
-9.81604e-07
-2.4211e-07
-8.18499e-07
-3.15117e-07
-7.784e-07
-1.91368e-07
-1.02152e-06
1.9666e-07
-1.60729e-06
7.01593e-07
-2.31061e-06
1.16469e-06
-2.81533e-06
1.45825e-06
-3.06019e-06
1.55937e-06
-3.12943e-06
1.58471e-06
-3.20667e-06
1.65791e-06
-3.27889e-06
1.80432e-06
-3.36854e-06
2.03285e-06
-3.552e-06
2.43991e-06
-3.87533e-06
3.01135e-06
-4.14104e-06
3.5797e-06
-4.28921e-06
4.11753e-06
-4.38246e-06
4.74857e-06
-4.4318e-06
5.39787e-06
-4.39574e-06
5.89611e-06
-4.25525e-06
6.33725e-06
-4.02593e-06
6.77578e-06
-3.7228e-06
7.1723e-06
-3.40251e-06
7.47888e-06
-2.99668e-06
7.6442e-06
-2.49892e-06
7.7973e-06
-2.1776e-06
7.89569e-06
-1.84883e-06
7.90369e-06
-1.45476e-06
7.98535e-06
-1.18115e-06
8.08139e-06
-8.75944e-07
8.16207e-06
-5.45451e-07
8.20859e-06
-1.89967e-07
8.18064e-06
2.69194e-07
8.09738e-06
8.0889e-07
7.95712e-06
1.32747e-06
7.6567e-06
2.02209e-06
7.21913e-06
2.63343e-06
6.71423e-06
3.09504e-06
5.95735e-06
3.58224e-06
4.99183e-06
3.75198e-06
3.90103e-06
3.77796e-06
2.79093e-06
3.61762e-06
1.62488e-06
3.12982e-06
1.98502e-07
2.74626e-06
-1.22449e-06
2.45809e-06
-2.32195e-06
2.09639e-06
-3.05943e-06
1.46288e-06
-3.51403e-06
8.77441e-07
-3.81719e-06
4.70367e-07
-3.81964e-06
-5.26321e-07
-3.57826e-06
-1.66488e-06
-3.34414e-06
-2.01633e-06
-3.3342e-06
-1.53948e-06
-3.48617e-06
-5.45654e-07
-3.83756e-06
9.14824e-07
-4.41391e-06
2.52914e-06
-5.01176e-06
4.12308e-06
-5.60269e-06
5.74563e-06
-6.24552e-06
7.20265e-06
-7.15302e-06
8.66207e-06
-8.60133e-06
9.64727e-06
-1.04226e-05
9.82153e-06
-1.21042e-05
9.17237e-06
-1.32405e-05
7.64652e-06
-1.56956e-05
7.77771e-06
-2.04688e-05
1.0319e-05
-2.43852e-05
1.18219e-05
-2.59772e-05
1.19219e-05
-2.7332e-05
1.2026e-05
-2.82092e-05
1.19915e-05
-2.87397e-05
1.17618e-05
-2.9004e-05
1.1792e-05
-2.9013e-05
1.14841e-05
-2.90244e-05
1.13485e-05
-2.88629e-05
1.09715e-05
-2.87476e-05
1.08345e-05
-2.8459e-05
1.04749e-05
-2.82072e-05
1.03113e-05
-2.782e-05
9.96292e-06
-2.73936e-05
9.77283e-06
-2.68548e-05
9.53769e-06
-2.6269e-05
9.40228e-06
-2.55978e-05
9.27504e-06
-2.49162e-05
9.19316e-06
-2.41736e-05
9.15484e-06
-2.33711e-05
9.05123e-06
-2.2462e-05
8.98536e-06
-2.14506e-05
8.9262e-06
-2.04343e-05
8.97129e-06
-1.934e-05
8.91991e-06
-1.82594e-05
8.89862e-06
-1.70948e-05
8.90552e-06
-1.57988e-05
9.02138e-06
-1.45223e-05
9.28207e-06
-1.33579e-05
9.40901e-06
-1.21559e-05
9.61562e-06
-1.0785e-05
9.53289e-06
-9.57527e-06
9.67693e-06
-8.39814e-06
9.74394e-06
-7.16055e-06
1.00751e-05
-5.95468e-06
1.04223e-05
-4.89223e-06
1.08788e-05
-4.04787e-06
1.16042e-05
-3.30498e-06
1.17724e-05
-2.53248e-06
1.19082e-05
-1.8239e-06
1.21312e-05
-1.12754e-06
1.2433e-05
-4.22441e-07
1.2979e-05
1.42474e-07
1.34872e-05
4.02047e-07
1.41779e-05
3.08811e-07
1.52093e-05
-1.5109e-07
1.45355e-05
-2.95289e-07
1.47876e-05
-4.83423e-07
1.71404e-05
-1.06515e-06
1.76797e-05
-1.2098e-06
1.56123e-05
-1.25499e-06
1.61537e-05
-2.00816e-06
1.93221e-05
-3.28065e-06
1.97813e-05
-3.64567e-06
1.58063e-05
-2.13484e-06
1.12346e-05
-4.93391e-07
1.30607e-05
-1.97437e-07
1.87182e-05
-6.2951e-07
2.20227e-05
-7.58277e-07
2.17364e-05
-9.76867e-07
2.14353e-05