/*--------------------------------*- C++ -*----------------------------------*\
| =========                 |                                                 |
| \\      /  F ield         | OpenFOAM: The Open Source CFD Toolbox           |
|  \\    /   O peration     | Version:  dev                                   |
|   \\  /    A nd           | Web:      http://www.openfoam.org               |
|    \\/     M anipulation  |                                                 |
\*---------------------------------------------------------------------------*/
FoamFile
{
    version     2.0;
    format      ascii;
    class       volScalarField;
    object      pPrime2Mean;
    location    "9.146";
}
// * * * * * * * * * * * * * * * * * * * * * * * * * * * * * * * * * * * * * //

dimensions      [2 -2 -4 0 0 0 0];

internalField   nonuniform List<scalar> 
12225
(
5.03724e+07
4.99071e+07
4.8946e+07
4.75943e+07
4.59399e+07
4.40723e+07
4.20506e+07
3.9947e+07
3.78022e+07
3.56643e+07
3.35711e+07
3.15256e+07
2.96016e+07
2.77301e+07
2.59823e+07
2.44215e+07
2.28594e+07
2.12794e+07
5.02646e+07
4.97993e+07
4.8839e+07
4.7489e+07
4.5836e+07
4.39708e+07
4.1952e+07
3.98509e+07
3.77101e+07
3.55749e+07
3.34864e+07
3.14445e+07
2.95251e+07
2.76605e+07
2.59301e+07
2.43694e+07
2.28604e+07
2.15262e+07
5.00145e+07
4.95499e+07
4.859e+07
4.7243e+07
4.55946e+07
4.37341e+07
4.1722e+07
3.96272e+07
3.74945e+07
3.53674e+07
3.32873e+07
3.12572e+07
2.93439e+07
2.74965e+07
2.57859e+07
2.42301e+07
2.27949e+07
2.15819e+07
4.95789e+07
4.91172e+07
4.81597e+07
4.68179e+07
4.51774e+07
4.33254e+07
4.1325e+07
3.92407e+07
3.71228e+07
3.50091e+07
3.29449e+07
3.09326e+07
2.90365e+07
2.72084e+07
2.55275e+07
2.39963e+07
2.26097e+07
2.15091e+07
4.8914e+07
4.84525e+07
4.74997e+07
4.61673e+07
4.45387e+07
4.27012e+07
4.07166e+07
3.86517e+07
3.65527e+07
3.44633e+07
3.24193e+07
3.04377e+07
2.85642e+07
2.67722e+07
2.51436e+07
2.36347e+07
2.23534e+07
2.12891e+07
4.79649e+07
4.75008e+07
4.65576e+07
4.52387e+07
4.3628e+07
4.18103e+07
3.98504e+07
3.7811e+07
3.57422e+07
3.36824e+07
3.16727e+07
2.97253e+07
2.789e+07
2.61445e+07
2.45654e+07
2.3126e+07
2.1899e+07
2.08426e+07
4.66702e+07
4.62048e+07
4.52771e+07
4.39745e+07
4.23899e+07
4.05978e+07
3.86736e+07
3.66676e+07
3.46417e+07
3.26208e+07
3.06595e+07
2.87577e+07
2.69738e+07
2.52861e+07
2.3764e+07
2.23846e+07
2.12161e+07
2.01881e+07
4.52284e+07
4.47646e+07
4.38532e+07
4.25684e+07
4.10126e+07
3.92502e+07
3.73644e+07
3.53974e+07
3.34168e+07
3.14422e+07
2.95307e+07
2.76825e+07
2.59502e+07
2.43256e+07
2.2852e+07
2.15358e+07
2.03998e+07
1.944e+07
4.37138e+07
4.32535e+07
4.23583e+07
4.10934e+07
3.95671e+07
3.78372e+07
3.59908e+07
3.40662e+07
3.21318e+07
3.02067e+07
2.83461e+07
2.65537e+07
2.48751e+07
2.33112e+07
2.18896e+07
2.06296e+07
1.95355e+07
1.86369e+07
4.1774e+07
4.13204e+07
4.04447e+07
3.92073e+07
3.77174e+07
3.60315e+07
3.42339e+07
3.23655e+07
3.04884e+07
2.86281e+07
2.68305e+07
2.51095e+07
2.3497e+07
2.20079e+07
2.06526e+07
1.94602e+07
1.8423e+07
1.75702e+07
3.93258e+07
3.88822e+07
3.803e+07
3.68294e+07
3.53854e+07
3.37566e+07
3.20211e+07
3.02236e+07
2.84197e+07
2.66397e+07
2.49224e+07
2.32874e+07
2.17587e+07
2.03557e+07
1.90834e+07
1.79678e+07
1.69975e+07
1.61909e+07
3.63029e+07
3.58742e+07
3.50502e+07
3.38986e+07
3.25118e+07
3.09562e+07
2.92981e+07
2.75898e+07
2.58763e+07
2.41953e+07
2.25761e+07
2.10442e+07
1.96163e+07
1.83126e+07
1.71369e+07
1.61056e+07
1.5211e+07
1.44575e+07
3.26905e+07
3.22804e+07
3.14928e+07
3.04023e+07
2.90878e+07
2.76213e+07
2.60589e+07
2.44572e+07
2.28539e+07
2.12894e+07
1.9787e+07
1.83741e+07
1.70627e+07
1.58712e+07
1.48021e+07
1.38643e+07
1.30529e+07
1.23646e+07
2.85796e+07
2.81923e+07
2.74515e+07
2.64333e+07
2.52072e+07
2.38441e+07
2.23957e+07
2.09161e+07
1.9441e+07
1.80074e+07
1.66378e+07
1.53557e+07
1.41727e+07
1.31019e+07
1.21463e+07
1.13089e+07
1.05862e+07
9.97199e+06
2.42557e+07
2.38949e+07
2.32101e+07
2.22728e+07
2.11468e+07
1.98979e+07
1.85752e+07
1.72279e+07
1.58904e+07
1.45956e+07
1.3365e+07
1.2218e+07
1.11655e+07
1.02164e+07
9.3732e+06
8.63592e+06
8.00136e+06
7.46284e+06
2.03093e+07
1.99772e+07
1.9352e+07
1.84964e+07
1.74719e+07
1.63362e+07
1.51372e+07
1.3918e+07
1.27123e+07
1.15483e+07
1.04466e+07
9.42277e+06
8.48695e+06
7.64514e+06
6.89925e+06
6.24799e+06
5.68819e+06
5.21364e+06
1.77442e+07
1.74376e+07
1.68626e+07
1.60748e+07
1.51327e+07
1.4088e+07
1.29864e+07
1.18667e+07
1.07607e+07
9.69355e+06
8.6842e+06
7.74625e+06
6.8884e+06
6.11545e+06
5.42875e+06
4.82694e+06
4.30702e+06
3.86363e+06
1.78525e+07
1.75578e+07
1.7005e+07
1.62469e+07
1.53395e+07
1.43318e+07
1.32677e+07
1.2184e+07
1.11108e+07
1.00719e+07
9.08509e+06
8.16294e+06
7.31363e+06
6.54164e+06
5.8484e+06
5.23304e+06
4.69308e+06
4.22416e+06
2.07296e+07
2.04304e+07
1.98679e+07
1.90948e+07
1.81678e+07
1.71363e+07
1.60437e+07
1.49266e+07
1.38149e+07
1.27321e+07
1.16958e+07
1.07187e+07
9.80901e+06
8.97157e+06
8.20828e+06
7.51907e+06
6.90208e+06
6.35395e+06
2.52168e+07
2.49047e+07
2.43143e+07
2.35001e+07
2.25217e+07
2.14299e+07
2.02695e+07
1.90779e+07
1.78858e+07
1.67172e+07
1.55903e+07
1.45182e+07
1.35097e+07
1.25703e+07
1.17025e+07
1.09071e+07
1.01829e+07
9.52755e+06
3.02764e+07
2.99503e+07
2.93265e+07
2.84629e+07
2.74221e+07
2.62572e+07
2.50147e+07
2.37337e+07
2.24461e+07
2.11766e+07
1.99446e+07
1.87636e+07
1.76435e+07
1.65903e+07
1.56073e+07
1.46961e+07
1.38562e+07
1.30859e+07
3.51904e+07
3.48526e+07
3.41978e+07
3.32871e+07
3.21862e+07
3.09501e+07
2.96274e+07
2.82589e+07
2.68776e+07
2.55097e+07
2.41751e+07
2.28886e+07
2.16605e+07
2.04978e+07
1.94045e+07
1.83827e+07
1.74328e+07
1.65536e+07
3.95397e+07
3.91936e+07
3.85134e+07
3.7563e+07
3.64105e+07
3.51126e+07
3.37199e+07
3.22744e+07
3.08107e+07
2.93559e+07
2.79309e+07
2.65513e+07
2.52282e+07
2.39692e+07
2.27791e+07
2.16605e+07
2.06142e+07
1.96398e+07
4.31355e+07
4.27842e+07
4.20847e+07
4.11033e+07
3.99097e+07
3.85621e+07
3.71123e+07
3.56039e+07
3.40726e+07
3.25464e+07
3.1047e+07
2.95907e+07
2.81894e+07
2.68512e+07
2.55814e+07
2.43832e+07
2.32578e+07
2.22051e+07
4.59438e+07
4.55896e+07
4.48763e+07
4.38721e+07
4.26474e+07
4.12617e+07
3.9768e+07
3.8211e+07
3.66272e+07
3.50454e+07
3.34882e+07
3.19723e+07
3.05101e+07
2.91103e+07
2.77785e+07
2.65184e+07
2.53314e+07
2.42178e+07
4.8022e+07
4.76661e+07
4.69433e+07
4.59228e+07
4.46758e+07
4.32624e+07
4.17366e+07
4.01439e+07
3.85215e+07
3.68989e+07
3.5299e+07
3.37392e+07
3.22322e+07
3.0787e+07
2.94096e+07
2.81039e+07
2.68715e+07
2.57131e+07
4.94708e+07
4.91141e+07
4.83846e+07
4.73533e+07
4.60909e+07
4.46586e+07
4.31109e+07
4.14937e+07
3.98446e+07
3.81938e+07
3.65644e+07
3.49742e+07
3.34361e+07
3.19594e+07
3.05504e+07
2.9213e+07
2.79493e+07
2.67597e+07
5.04058e+07
5.0048e+07
4.93143e+07
4.82764e+07
4.70042e+07
4.55599e+07
4.39982e+07
4.23654e+07
4.06994e+07
3.90305e+07
3.73822e+07
3.57724e+07
3.42144e+07
3.27175e+07
3.12881e+07
2.99304e+07
2.86466e+07
2.7437e+07
5.09348e+07
5.05768e+07
4.98415e+07
4.88004e+07
4.75229e+07
4.6072e+07
4.45025e+07
4.28607e+07
4.11849e+07
3.95055e+07
3.78464e+07
3.62254e+07
3.46559e+07
3.31473e+07
3.17062e+07
3.03369e+07
2.90416e+07
2.78211e+07
5.1157e+07
5.08004e+07
5.00632e+07
4.90203e+07
4.77403e+07
4.62866e+07
4.47137e+07
4.3068e+07
4.1388e+07
3.97042e+07
3.80403e+07
3.64145e+07
3.484e+07
3.33265e+07
3.18805e+07
3.05062e+07
2.92062e+07
2.79812e+07
6.04902e+07
6.04311e+07
6.03004e+07
6.00946e+07
5.98119e+07
5.94515e+07
5.90135e+07
5.84987e+07
5.79081e+07
5.72433e+07
5.6506e+07
5.56985e+07
5.4823e+07
5.3882e+07
5.28783e+07
5.1815e+07
5.06952e+07
4.95224e+07
4.83003e+07
4.70328e+07
4.57238e+07
4.43775e+07
4.29979e+07
4.15896e+07
4.01569e+07
3.87044e+07
3.72367e+07
3.57581e+07
3.42732e+07
3.27864e+07
3.13024e+07
2.98259e+07
2.83612e+07
2.69132e+07
2.54863e+07
2.40851e+07
2.27143e+07
2.13786e+07
2.00827e+07
1.88314e+07
1.76295e+07
1.6482e+07
1.53937e+07
1.43699e+07
1.34156e+07
1.25362e+07
1.17368e+07
1.10229e+07
1.04e+07
9.8734e+06
9.44864e+06
9.13115e+06
8.92633e+06
8.83945e+06
8.87562e+06
9.03965e+06
9.33611e+06
9.76924e+06
1.03429e+07
1.10604e+07
1.19244e+07
1.2937e+07
1.40998e+07
1.54135e+07
1.68779e+07
1.84924e+07
2.02552e+07
2.21638e+07
2.42153e+07
2.64056e+07
2.87302e+07
3.11838e+07
3.37606e+07
3.64541e+07
3.92573e+07
4.21631e+07
4.5164e+07
4.82521e+07
5.14197e+07
5.46588e+07
5.79611e+07
6.13187e+07
6.4723e+07
6.81655e+07
7.16376e+07
7.51304e+07
7.86347e+07
8.21411e+07
8.56395e+07
8.91195e+07
9.25701e+07
9.598e+07
9.9337e+07
1.02629e+08
1.05842e+08
1.08966e+08
1.11986e+08
1.1489e+08
1.17668e+08
1.20309e+08
1.22803e+08
1.25143e+08
1.27321e+08
1.29331e+08
1.3117e+08
1.32835e+08
1.34328e+08
1.35651e+08
1.36808e+08
1.37807e+08
1.38659e+08
1.39374e+08
1.39967e+08
1.40451e+08
1.40844e+08
1.41162e+08
1.41425e+08
1.41655e+08
1.41876e+08
1.42113e+08
1.42398e+08
1.42762e+08
1.43243e+08
1.4388e+08
1.44717e+08
1.45802e+08
1.47187e+08
1.4893e+08
1.5109e+08
1.5373e+08
1.56915e+08
1.60705e+08
1.65164e+08
1.70346e+08
1.76306e+08
1.83088e+08
1.9073e+08
1.99257e+08
2.08685e+08
2.19016e+08
2.30244e+08
2.42347e+08
2.55296e+08
2.6905e+08
2.83566e+08
2.9878e+08
3.14646e+08
3.3109e+08
3.48049e+08
3.65448e+08
3.83214e+08
4.01262e+08
4.19501e+08
4.37839e+08
4.56154e+08
4.74306e+08
4.92132e+08
5.09462e+08
5.26064e+08
5.41702e+08
5.56079e+08
5.68895e+08
5.79809e+08
5.88499e+08
5.94631e+08
5.97907e+08
5.98068e+08
5.94932e+08
5.88375e+08
5.78421e+08
5.65153e+08
5.48838e+08
5.29793e+08
5.08512e+08
4.85468e+08
4.61187e+08
4.36036e+08
4.10452e+08
3.84644e+08
3.58937e+08
5.94152e+07
5.93596e+07
5.92345e+07
5.90346e+07
5.87583e+07
5.84055e+07
5.79769e+07
5.74734e+07
5.68964e+07
5.62472e+07
5.55275e+07
5.47394e+07
5.3885e+07
5.29667e+07
5.19871e+07
5.0949e+07
4.98553e+07
4.87095e+07
4.7515e+07
4.62756e+07
4.49951e+07
4.36776e+07
4.23271e+07
4.0948e+07
3.95445e+07
3.81212e+07
3.66823e+07
3.52322e+07
3.37752e+07
3.23158e+07
3.08584e+07
2.94076e+07
2.7968e+07
2.6544e+07
2.51402e+07
2.3761e+07
2.24111e+07
2.1095e+07
1.98175e+07
1.85833e+07
1.73972e+07
1.62641e+07
1.51889e+07
1.41767e+07
1.32327e+07
1.2362e+07
1.15699e+07
1.08619e+07
1.02434e+07
9.71978e+06
9.29656e+06
8.97916e+06
8.77296e+06
8.6832e+06
8.71499e+06
8.87323e+06
9.16249e+06
9.58697e+06
1.01505e+07
1.08563e+07
1.17073e+07
1.27054e+07
1.38521e+07
1.5148e+07
1.65933e+07
1.8187e+07
1.99275e+07
2.18124e+07
2.38384e+07
2.60018e+07
2.8298e+07
3.07216e+07
3.32669e+07
3.59273e+07
3.86962e+07
4.15662e+07
4.453e+07
4.75799e+07
5.0708e+07
5.39062e+07
5.71667e+07
6.04811e+07
6.38412e+07
6.72387e+07
7.06649e+07
7.41108e+07
7.75675e+07
8.10255e+07
8.44749e+07
8.79054e+07
9.13061e+07
9.46658e+07
9.79725e+07
1.01214e+08
1.04378e+08
1.07452e+08
1.10423e+08
1.1328e+08
1.16012e+08
1.18608e+08
1.2106e+08
1.23359e+08
1.25498e+08
1.27473e+08
1.29279e+08
1.30915e+08
1.3238e+08
1.33678e+08
1.34813e+08
1.35794e+08
1.3663e+08
1.37332e+08
1.37913e+08
1.38388e+08
1.38772e+08
1.39083e+08
1.39339e+08
1.39562e+08
1.39774e+08
1.40002e+08
1.40276e+08
1.40626e+08
1.4109e+08
1.41705e+08
1.42516e+08
1.43568e+08
1.44915e+08
1.46611e+08
1.48716e+08
1.51292e+08
1.54402e+08
1.58108e+08
1.62469e+08
1.67542e+08
1.7338e+08
1.80026e+08
1.87517e+08
1.95881e+08
2.05131e+08
2.1527e+08
2.26293e+08
2.38178e+08
2.50897e+08
2.64412e+08
2.78678e+08
2.93634e+08
3.0923e+08
3.25404e+08
3.42087e+08
3.59206e+08
3.7669e+08
3.94458e+08
4.12421e+08
4.30487e+08
4.48536e+08
4.66433e+08
4.84015e+08
5.01118e+08
5.17516e+08
5.32973e+08
5.47206e+08
5.59915e+08
5.70767e+08
5.79442e+08
5.85614e+08
5.88993e+08
5.89321e+08
5.86422e+08
5.80166e+08
5.70563e+08
5.5769e+08
5.41801e+08
5.23203e+08
5.02377e+08
4.79783e+08
4.55932e+08
4.31191e+08
4.05988e+08
3.80532e+08
3.55064e+08
5.73501e+07
5.7297e+07
5.71774e+07
5.6986e+07
5.67213e+07
5.63839e+07
5.59749e+07
5.54952e+07
5.49459e+07
5.43281e+07
5.36434e+07
5.28933e+07
5.20799e+07
5.12051e+07
5.02713e+07
4.9281e+07
4.8237e+07
4.71425e+07
4.60005e+07
4.48147e+07
4.35887e+07
4.23264e+07
4.10317e+07
3.97087e+07
3.83614e+07
3.69937e+07
3.56098e+07
3.42138e+07
3.281e+07
3.14028e+07
2.99964e+07
2.85953e+07
2.72038e+07
2.58263e+07
2.4467e+07
2.31305e+07
2.18209e+07
2.0543e+07
1.93011e+07
1.81002e+07
1.69447e+07
1.58397e+07
1.47899e+07
1.38003e+07
1.28761e+07
1.20225e+07
1.12449e+07
1.05485e+07
9.93866e+06
9.42095e+06
9.00075e+06
8.68352e+06
8.47466e+06
8.3794e+06
8.40285e+06
8.54988e+06
8.82506e+06
9.23262e+06
9.77635e+06
1.04595e+07
1.12848e+07
1.22544e+07
1.33695e+07
1.46309e+07
1.60386e+07
1.75915e+07
1.92882e+07
2.11261e+07
2.31022e+07
2.52126e+07
2.74528e+07
2.98175e+07
3.23009e+07
3.48967e+07
3.75982e+07
4.03982e+07
4.32895e+07
4.62645e+07
4.93154e+07
5.24343e+07
5.56132e+07
5.88441e+07
6.21187e+07
6.54288e+07
6.87658e+07
7.21211e+07
7.54856e+07
7.885e+07
8.22046e+07
8.55393e+07
8.88434e+07
9.21057e+07
9.53149e+07
9.8459e+07
1.01526e+08
1.04503e+08
1.0738e+08
1.10144e+08
1.12785e+08
1.15294e+08
1.17661e+08
1.1988e+08
1.21944e+08
1.23848e+08
1.2559e+08
1.27167e+08
1.28578e+08
1.29829e+08
1.30922e+08
1.31867e+08
1.32672e+08
1.33347e+08
1.33907e+08
1.34363e+08
1.34731e+08
1.35027e+08
1.35268e+08
1.35476e+08
1.35673e+08
1.35883e+08
1.36134e+08
1.36456e+08
1.36884e+08
1.37455e+08
1.38212e+08
1.39199e+08
1.40467e+08
1.42069e+08
1.44064e+08
1.46512e+08
1.49473e+08
1.5301e+08
1.57178e+08
1.62035e+08
1.67629e+08
1.74006e+08
1.81199e+08
1.89238e+08
1.98135e+08
2.07895e+08
2.18511e+08
2.29964e+08
2.4223e+08
2.55271e+08
2.69042e+08
2.83486e+08
2.9855e+08
3.14184e+08
3.30317e+08
3.4688e+08
3.63801e+08
3.81008e+08
3.98416e+08
4.15931e+08
4.3344e+08
4.50815e+08
4.67897e+08
4.84525e+08
5.00486e+08
5.15548e+08
5.29448e+08
5.41892e+08
5.52562e+08
5.61153e+08
5.67348e+08
5.70874e+08
5.71481e+08
5.68996e+08
5.63286e+08
5.54339e+08
5.42226e+08
5.27175e+08
5.09469e+08
4.89564e+08
4.67886e+08
4.44916e+08
4.21026e+08
3.96616e+08
3.71912e+08
3.47084e+08
5.44565e+07
5.44072e+07
5.42952e+07
5.41159e+07
5.3869e+07
5.35554e+07
5.31759e+07
5.27311e+07
5.22215e+07
5.16483e+07
5.10125e+07
5.03154e+07
4.95584e+07
4.87434e+07
4.78723e+07
4.69476e+07
4.59717e+07
4.49475e+07
4.3878e+07
4.27664e+07
4.16161e+07
4.04306e+07
3.92136e+07
3.79685e+07
3.66989e+07
3.54085e+07
3.41011e+07
3.27806e+07
3.14512e+07
3.0117e+07
2.87821e+07
2.74505e+07
2.61264e+07
2.48138e+07
2.35169e+07
2.22396e+07
2.09865e+07
1.97619e+07
1.85701e+07
1.74156e+07
1.63032e+07
1.52375e+07
1.42234e+07
1.32657e+07
1.23697e+07
1.15403e+07
1.07829e+07
1.01027e+07
9.50526e+06
8.9959e+06
8.58006e+06
8.26317e+06
8.05059e+06
7.94756e+06
7.95914e+06
8.09023e+06
8.34541e+06
8.72888e+06
9.24437e+06
9.89513e+06
1.06838e+07
1.16126e+07
1.26827e+07
1.38947e+07
1.52487e+07
1.67437e+07
1.83779e+07
2.01492e+07
2.20544e+07
2.40897e+07
2.62505e+07
2.85319e+07
3.0928e+07
3.34327e+07
3.60392e+07
3.87409e+07
4.15303e+07
4.44003e+07
4.73432e+07
5.03511e+07
5.34163e+07
5.65308e+07
5.96865e+07
6.28752e+07
6.60884e+07
6.93176e+07
7.25541e+07
7.57888e+07
7.9012e+07
8.22138e+07
8.53838e+07
8.85111e+07
9.15846e+07
9.45927e+07
9.75241e+07
1.00367e+08
1.0311e+08
1.05744e+08
1.08258e+08
1.10643e+08
1.12892e+08
1.14998e+08
1.16955e+08
1.1876e+08
1.20408e+08
1.219e+08
1.23235e+08
1.24418e+08
1.25452e+08
1.26344e+08
1.27104e+08
1.27741e+08
1.28268e+08
1.28697e+08
1.2904e+08
1.29313e+08
1.29533e+08
1.29719e+08
1.29892e+08
1.30074e+08
1.30292e+08
1.30572e+08
1.30949e+08
1.31456e+08
1.32135e+08
1.33028e+08
1.34185e+08
1.35655e+08
1.37494e+08
1.3976e+08
1.42512e+08
1.45809e+08
1.49706e+08
1.54258e+08
1.59511e+08
1.65509e+08
1.72285e+08
1.79868e+08
1.88272e+08
1.97502e+08
2.0755e+08
2.18402e+08
2.30035e+08
2.42417e+08
2.555e+08
2.69234e+08
2.83564e+08
2.98449e+08
3.13823e+08
3.2962e+08
3.45766e+08
3.62202e+08
3.78842e+08
3.95597e+08
4.12357e+08
4.29006e+08
4.45389e+08
4.6135e+08
4.76693e+08
4.91192e+08
5.04603e+08
5.16647e+08
5.27028e+08
5.35461e+08
5.41643e+08
5.45317e+08
5.46245e+08
5.4426e+08
5.3923e+08
5.31126e+08
5.20009e+08
5.0607e+08
4.89571e+08
4.70924e+08
4.50512e+08
4.28778e+08
4.06084e+08
3.82806e+08
3.5918e+08
3.35358e+08
5.09349e+07
5.0891e+07
5.0789e+07
5.06261e+07
5.04024e+07
5.01186e+07
4.97748e+07
4.93715e+07
4.89094e+07
4.83889e+07
4.78108e+07
4.71761e+07
4.6486e+07
4.5742e+07
4.49459e+07
4.40998e+07
4.32057e+07
4.22663e+07
4.12841e+07
4.0262e+07
3.92031e+07
3.81104e+07
3.69869e+07
3.58357e+07
3.46599e+07
3.34629e+07
3.22484e+07
3.10199e+07
2.97813e+07
2.85364e+07
2.72887e+07
2.60421e+07
2.48003e+07
2.3567e+07
2.23461e+07
2.11416e+07
1.99575e+07
1.8798e+07
1.76674e+07
1.657e+07
1.55103e+07
1.44929e+07
1.35225e+07
1.2604e+07
1.17423e+07
1.09426e+07
1.021e+07
9.5498e+06
8.96742e+06
8.46823e+06
8.05764e+06
7.74104e+06
7.52378e+06
7.41109e+06
7.408e+06
7.51936e+06
7.7497e+06
8.10316e+06
8.58347e+06
9.19385e+06
9.93696e+06
1.08148e+07
1.18288e+07
1.29794e+07
1.42665e+07
1.56893e+07
1.72459e+07
1.89343e+07
2.07514e+07
2.26934e+07
2.47559e+07
2.69338e+07
2.92217e+07
3.16134e+07
3.41026e+07
3.66826e+07
3.93462e+07
4.20864e+07
4.48958e+07
4.77667e+07
5.06916e+07
5.36626e+07
5.66718e+07
5.97111e+07
6.27724e+07
6.5847e+07
6.89267e+07
7.20024e+07
7.50646e+07
7.81038e+07
8.11099e+07
8.40724e+07
8.69807e+07
8.98235e+07
9.25898e+07
9.52692e+07
9.78511e+07
1.00326e+08
1.02685e+08
1.04919e+08
1.07022e+08
1.08989e+08
1.10816e+08
1.12497e+08
1.14031e+08
1.15417e+08
1.16658e+08
1.17756e+08
1.18715e+08
1.19541e+08
1.20244e+08
1.20832e+08
1.21317e+08
1.21708e+08
1.22018e+08
1.22262e+08
1.22454e+08
1.2261e+08
1.2275e+08
1.22896e+08
1.2307e+08
1.23299e+08
1.23611e+08
1.2404e+08
1.24625e+08
1.25404e+08
1.26423e+08
1.27733e+08
1.29382e+08
1.31428e+08
1.33923e+08
1.36929e+08
1.40495e+08
1.44675e+08
1.49514e+08
1.55052e+08
1.61323e+08
1.68356e+08
1.76163e+08
1.84753e+08
1.94118e+08
2.04246e+08
2.15117e+08
2.26703e+08
2.38961e+08
2.51844e+08
2.65298e+08
2.79287e+08
2.93753e+08
3.08635e+08
3.23862e+08
3.39375e+08
3.55097e+08
3.70942e+08
3.86803e+08
4.02573e+08
4.1811e+08
4.33263e+08
4.4785e+08
4.61661e+08
4.7446e+08
4.85995e+08
4.95999e+08
5.04198e+08
5.10317e+08
5.14112e+08
5.15359e+08
5.13904e+08
5.0962e+08
5.02465e+08
4.92483e+08
4.79825e+08
4.64734e+08
4.47569e+08
4.28667e+08
4.08434e+08
3.87199e+08
3.65312e+08
3.43023e+08
3.20491e+08
4.70081e+07
4.69711e+07
4.68817e+07
4.67379e+07
4.65403e+07
4.62891e+07
4.59845e+07
4.56267e+07
4.52161e+07
4.47527e+07
4.42371e+07
4.36703e+07
4.30531e+07
4.23869e+07
4.1673e+07
4.09131e+07
4.0109e+07
3.92629e+07
3.8377e+07
3.74538e+07
3.64958e+07
3.55054e+07
3.44852e+07
3.34378e+07
3.23661e+07
3.1273e+07
3.01619e+07
2.90361e+07
2.78988e+07
2.67534e+07
2.56031e+07
2.44514e+07
2.33015e+07
2.2157e+07
2.10214e+07
1.98984e+07
1.87919e+07
1.77058e+07
1.6644e+07
1.56109e+07
1.46106e+07
1.36476e+07
1.27266e+07
1.18522e+07
1.10292e+07
1.02629e+07
9.55816e+06
8.92041e+06
8.35493e+06
7.86708e+06
7.46224e+06
7.14578e+06
6.92304e+06
6.79919e+06
6.77924e+06
6.86795e+06
7.06984e+06
7.38899e+06
7.82907e+06
8.39325e+06
9.08412e+06
9.90369e+06
1.08533e+07
1.19334e+07
1.3144e+07
1.44841e+07
1.59521e+07
1.75457e+07
1.92619e+07
2.10971e+07
2.3047e+07
2.51068e+07
2.7271e+07
2.95336e+07
3.18887e+07
3.43296e+07
3.68496e+07
3.94417e+07
4.20988e+07
4.48135e+07
4.75782e+07
5.03856e+07
5.32277e+07
5.60969e+07
5.89851e+07
6.1884e+07
6.47852e+07
6.76802e+07
7.05597e+07
7.34143e+07
7.62345e+07
7.90105e+07
8.17319e+07
8.43881e+07
8.69687e+07
8.94641e+07
9.18648e+07
9.41618e+07
9.63467e+07
9.84124e+07
1.00352e+08
1.02163e+08
1.03841e+08
1.05383e+08
1.06788e+08
1.08056e+08
1.09189e+08
1.10189e+08
1.11062e+08
1.11812e+08
1.12447e+08
1.12977e+08
1.1341e+08
1.13756e+08
1.14025e+08
1.14231e+08
1.14387e+08
1.14507e+08
1.14608e+08
1.14709e+08
1.14831e+08
1.14999e+08
1.15238e+08
1.1558e+08
1.16059e+08
1.1671e+08
1.17576e+08
1.18704e+08
1.20141e+08
1.2194e+08
1.2415e+08
1.26829e+08
1.30026e+08
1.33791e+08
1.38167e+08
1.43193e+08
1.48902e+08
1.55323e+08
1.62469e+08
1.70348e+08
1.78958e+08
1.88287e+08
1.98316e+08
2.09024e+08
2.20372e+08
2.3232e+08
2.44815e+08
2.57824e+08
2.71295e+08
2.85174e+08
2.99394e+08
3.13896e+08
3.2861e+08
3.4345e+08
3.58321e+08
3.73119e+08
3.87718e+08
4.01969e+08
4.15706e+08
4.28739e+08
4.40838e+08
4.51778e+08
4.61321e+08
4.69217e+08
4.75212e+08
4.79074e+08
4.80605e+08
4.79666e+08
4.7613e+08
4.69947e+08
4.6114e+08
4.49838e+08
4.3625e+08
4.20684e+08
4.03432e+08
3.84862e+08
3.65257e+08
3.44943e+08
3.24171e+08
3.0313e+08
4.2901e+07
4.28714e+07
4.27956e+07
4.26722e+07
4.25016e+07
4.22841e+07
4.20198e+07
4.17086e+07
4.13503e+07
4.09452e+07
4.04938e+07
3.99967e+07
3.94546e+07
3.88683e+07
3.8239e+07
3.75681e+07
3.6857e+07
3.61075e+07
3.53214e+07
3.45006e+07
3.36469e+07
3.27624e+07
3.18493e+07
3.09097e+07
2.99462e+07
2.89614e+07
2.79583e+07
2.69396e+07
2.59082e+07
2.48668e+07
2.38185e+07
2.27661e+07
2.17127e+07
2.06613e+07
1.96155e+07
1.85784e+07
1.75537e+07
1.6545e+07
1.5556e+07
1.45907e+07
1.36532e+07
1.27478e+07
1.18788e+07
1.1051e+07
1.0269e+07
9.53785e+06
8.86262e+06
8.24851e+06
7.70078e+06
7.22478e+06
6.82585e+06
6.5093e+06
6.28043e+06
6.14437e+06
6.10609e+06
6.17032e+06
6.34149e+06
6.62365e+06
7.02039e+06
7.53483e+06
8.16949e+06
8.92631e+06
9.80655e+06
1.08108e+07
1.19389e+07
1.31899e+07
1.45622e+07
1.60536e+07
1.7661e+07
1.9381e+07
2.12095e+07
2.31416e+07
2.51722e+07
2.72956e+07
2.95058e+07
3.17966e+07
3.41613e+07
3.65934e+07
3.90859e+07
4.16316e+07
4.42233e+07
4.68538e+07
4.95154e+07
5.22007e+07
5.49019e+07
5.76109e+07
6.03196e+07
6.30195e+07
6.57019e+07
6.83577e+07
7.09779e+07
7.3553e+07
7.60735e+07
7.85294e+07
8.09113e+07
8.32102e+07
8.54173e+07
8.7525e+07
8.95254e+07
9.14124e+07
9.31805e+07
9.48261e+07
9.63466e+07
9.77406e+07
9.90079e+07
1.00149e+08
1.01166e+08
1.02061e+08
1.0284e+08
1.03506e+08
1.04067e+08
1.0453e+08
1.04904e+08
1.05197e+08
1.05419e+08
1.0558e+08
1.05694e+08
1.05771e+08
1.05827e+08
1.05879e+08
1.05944e+08
1.06044e+08
1.06205e+08
1.06453e+08
1.06819e+08
1.07335e+08
1.0804e+08
1.08976e+08
1.10189e+08
1.11727e+08
1.13638e+08
1.15974e+08
1.18783e+08
1.22111e+08
1.26e+08
1.30489e+08
1.3561e+08
1.4139e+08
1.47845e+08
1.54983e+08
1.62804e+08
1.71302e+08
1.80458e+08
1.90255e+08
2.00661e+08
2.1164e+08
2.23145e+08
2.35144e+08
2.4759e+08
2.60432e+08
2.73609e+08
2.87068e+08
3.00736e+08
3.14534e+08
3.28374e+08
3.42159e+08
3.55772e+08
3.6907e+08
3.81899e+08
3.9409e+08
4.05428e+08
4.15709e+08
4.24719e+08
4.32239e+08
4.38039e+08
4.41902e+08
4.43652e+08
4.43171e+08
4.4033e+08
4.35074e+08
4.27409e+08
4.17452e+08
4.05372e+08
3.91433e+08
3.75879e+08
3.59036e+08
3.41144e+08
3.22502e+08
3.03354e+08
2.83922e+08
3.88265e+07
3.88044e+07
3.87419e+07
3.86386e+07
3.84948e+07
3.83104e+07
3.80853e+07
3.78193e+07
3.75122e+07
3.71643e+07
3.67757e+07
3.63469e+07
3.58782e+07
3.53703e+07
3.48241e+07
3.42405e+07
3.36207e+07
3.29659e+07
3.22776e+07
3.1557e+07
3.08057e+07
3.00252e+07
2.92174e+07
2.83842e+07
2.75277e+07
2.66502e+07
2.57539e+07
2.48413e+07
2.39147e+07
2.29765e+07
2.20293e+07
2.10756e+07
2.01182e+07
1.91598e+07
1.82033e+07
1.7252e+07
1.63088e+07
1.53773e+07
1.44609e+07
1.35634e+07
1.26886e+07
1.18406e+07
1.10237e+07
1.02424e+07
9.50141e+06
8.8055e+06
8.15971e+06
7.56917e+06
7.0391e+06
6.57479e+06
6.18152e+06
5.86456e+06
5.62915e+06
5.48038e+06
5.42317e+06
5.46221e+06
5.60186e+06
5.84608e+06
6.19841e+06
6.66189e+06
7.23897e+06
7.9315e+06
8.74072e+06
9.66716e+06
1.07106e+07
1.18702e+07
1.31443e+07
1.45306e+07
1.60262e+07
1.76278e+07
1.93312e+07
2.11319e+07
2.30249e+07
2.50046e+07
2.70653e+07
2.9201e+07
3.14053e+07
3.36719e+07
3.59939e+07
3.83647e+07
4.07772e+07
4.32244e+07
4.5699e+07
4.81936e+07
5.07008e+07
5.32127e+07
5.57215e+07
5.82192e+07
6.06973e+07
6.31473e+07
6.55605e+07
6.79279e+07
7.02408e+07
7.24902e+07
7.46675e+07
7.67644e+07
7.87732e+07
8.06869e+07
8.24987e+07
8.42034e+07
8.57962e+07
8.7274e+07
8.86348e+07
8.98783e+07
9.10051e+07
9.20161e+07
9.29131e+07
9.36994e+07
9.43792e+07
9.4957e+07
9.54389e+07
9.58311e+07
9.61402e+07
9.63744e+07
9.65428e+07
9.66549e+07
9.67201e+07
9.675e+07
9.67566e+07
9.6754e+07
9.67583e+07
9.67898e+07
9.68688e+07
9.702e+07
9.72709e+07
9.76507e+07
9.8193e+07
9.89373e+07
9.9925e+07
1.01202e+08
1.02813e+08
1.04806e+08
1.07224e+08
1.10114e+08
1.13516e+08
1.17467e+08
1.22e+08
1.2714e+08
1.32905e+08
1.39304e+08
1.46341e+08
1.54011e+08
1.623e+08
1.71196e+08
1.80669e+08
1.90689e+08
2.01215e+08
2.1222e+08
2.23655e+08
2.35473e+08
2.4762e+08
2.60042e+08
2.72671e+08
2.85434e+08
2.98246e+08
3.11016e+08
3.23631e+08
3.35957e+08
3.47858e+08
3.59173e+08
3.69711e+08
3.79286e+08
3.87706e+08
3.94781e+08
4.00308e+08
4.0409e+08
4.05977e+08
4.05858e+08
4.03618e+08
3.99192e+08
3.92584e+08
3.8389e+08
3.73249e+08
3.60886e+08
3.47e+08
3.31873e+08
3.15701e+08
2.98757e+08
2.81271e+08
2.63496e+08
3.49717e+07
3.49564e+07
3.49061e+07
3.48215e+07
3.47026e+07
3.45491e+07
3.43607e+07
3.41371e+07
3.38781e+07
3.35838e+07
3.32541e+07
3.28892e+07
3.24894e+07
3.2055e+07
3.15866e+07
3.10849e+07
3.05506e+07
2.99846e+07
2.93879e+07
2.87614e+07
2.81063e+07
2.74239e+07
2.67154e+07
2.59826e+07
2.5227e+07
2.44507e+07
2.36553e+07
2.28429e+07
2.20153e+07
2.11747e+07
2.03232e+07
1.9463e+07
1.85965e+07
1.77261e+07
1.68545e+07
1.59844e+07
1.51188e+07
1.42606e+07
1.34131e+07
1.25799e+07
1.17646e+07
1.09712e+07
1.02039e+07
9.46683e+06
8.76471e+06
8.10227e+06
7.4844e+06
6.91618e+06
6.40272e+06
5.94927e+06
5.56105e+06
5.24326e+06
5.00111e+06
4.83964e+06
4.76373e+06
4.77797e+06
4.88669e+06
5.09375e+06
5.4026e+06
5.81617e+06
6.33684e+06
6.96641e+06
7.706e+06
8.55607e+06
9.51639e+06
1.0586e+07
1.17634e+07
1.30462e+07
1.44315e+07
1.59161e+07
1.74959e+07
1.91665e+07
2.09231e+07
2.27603e+07
2.46726e+07
2.6654e+07
2.86986e+07
3.08001e+07
3.29521e+07
3.51481e+07
3.73813e+07
3.9645e+07
4.19322e+07
4.42357e+07
4.65482e+07
4.88624e+07
5.11706e+07
5.34651e+07
5.57381e+07
5.79814e+07
6.01869e+07
6.23463e+07
6.44515e+07
6.64945e+07
6.84674e+07
7.03628e+07
7.21738e+07
7.38942e+07
7.55183e+07
7.70419e+07
7.84607e+07
7.97721e+07
8.09753e+07
8.20701e+07
8.30575e+07
8.39389e+07
8.47162e+07
8.53926e+07
8.59722e+07
8.64592e+07
8.68591e+07
8.71771e+07
8.74184e+07
8.75901e+07
8.77006e+07
8.77582e+07
8.77713e+07
8.77493e+07
8.77027e+07
8.76433e+07
8.75856e+07
8.75467e+07
8.75443e+07
8.75997e+07
8.77375e+07
8.79846e+07
8.83706e+07
8.89312e+07
8.97042e+07
9.07309e+07
9.20535e+07
9.37151e+07
9.57583e+07
9.8226e+07
1.01158e+08
1.04591e+08
1.08556e+08
1.13079e+08
1.18179e+08
1.23869e+08
1.30153e+08
1.37031e+08
1.4449e+08
1.52524e+08
1.61107e+08
1.70212e+08
1.79806e+08
1.89861e+08
2.00334e+08
2.11176e+08
2.22336e+08
2.33763e+08
2.45395e+08
2.5716e+08
2.68977e+08
2.80757e+08
2.92391e+08
3.03755e+08
3.14727e+08
3.25157e+08
3.34875e+08
3.43714e+08
3.51499e+08
3.58066e+08
3.63245e+08
3.66857e+08
3.6878e+08
3.6891e+08
3.67145e+08
3.63424e+08
3.57747e+08
3.50191e+08
3.40869e+08
3.29975e+08
3.17668e+08
3.04179e+08
2.89676e+08
2.74395e+08
2.58555e+08
2.42431e+08
3.14881e+07
3.14785e+07
3.14389e+07
3.13708e+07
3.12741e+07
3.11482e+07
3.09929e+07
3.08076e+07
3.05921e+07
3.03461e+07
3.00696e+07
2.97624e+07
2.94247e+07
2.90566e+07
2.86583e+07
2.82303e+07
2.7773e+07
2.72869e+07
2.67725e+07
2.62308e+07
2.56624e+07
2.50682e+07
2.44494e+07
2.38071e+07
2.31427e+07
2.24575e+07
2.17532e+07
2.10312e+07
2.0293e+07
1.95405e+07
1.87755e+07
1.79998e+07
1.72154e+07
1.64246e+07
1.56296e+07
1.48329e+07
1.40372e+07
1.32452e+07
1.246e+07
1.1685e+07
1.09236e+07
1.01796e+07
9.45697e+06
8.75993e+06
8.09295e+06
7.46067e+06
6.86795e+06
6.31974e+06
5.82108e+06
5.37713e+06
4.99306e+06
4.67405e+06
4.42521e+06
4.25158e+06
4.15795e+06
4.14886e+06
4.22851e+06
4.4007e+06
4.66876e+06
5.0355e+06
5.50321e+06
6.07359e+06
6.74766e+06
7.52581e+06
8.40772e+06
9.39241e+06
1.04782e+07
1.16629e+07
1.29436e+07
1.43168e+07
1.57787e+07
1.73252e+07
1.89513e+07
2.06519e+07
2.24217e+07
2.42549e+07
2.61456e+07
2.80878e+07
3.00753e+07
3.21019e+07
3.41612e+07
3.62465e+07
3.83512e+07
4.04684e+07
4.2591e+07
4.47121e+07
4.68243e+07
4.89205e+07
5.09931e+07
5.30344e+07
5.50371e+07
5.69934e+07
5.8896e+07
6.07375e+07
6.2511e+07
6.42099e+07
6.5828e+07
6.73601e+07
6.88016e+07
7.01488e+07
7.13985e+07
7.25485e+07
7.35986e+07
7.45488e+07
7.54006e+07
7.61554e+07
7.68151e+07
7.7383e+07
7.78627e+07
7.82586e+07
7.85751e+07
7.88164e+07
7.89876e+07
7.90947e+07
7.91447e+07
7.91447e+07
7.91023e+07
7.90252e+07
7.89229e+07
7.88053e+07
7.86853e+07
7.85772e+07
7.84961e+07
7.84607e+07
7.84924e+07
7.86157e+07
7.88573e+07
7.92488e+07
7.98241e+07
8.06198e+07
8.1675e+07
8.30301e+07
8.4725e+07
8.68002e+07
8.92947e+07
9.22439e+07
9.56784e+07
9.96246e+07
1.04105e+08
1.09132e+08
1.14715e+08
1.20855e+08
1.27545e+08
1.34778e+08
1.42536e+08
1.50794e+08
1.59524e+08
1.68699e+08
1.78279e+08
1.88216e+08
1.98457e+08
2.08957e+08
2.19656e+08
2.3048e+08
2.41355e+08
2.52187e+08
2.62878e+08
2.7331e+08
2.83371e+08
2.92921e+08
3.01815e+08
3.09898e+08
3.17015e+08
3.23023e+08
3.27783e+08
3.31134e+08
3.32983e+08
3.33241e+08
3.31817e+08
3.28659e+08
3.23766e+08
3.17195e+08
3.09045e+08
2.99473e+08
2.88611e+08
2.76643e+08
2.63712e+08
2.50015e+08
2.35758e+08
2.21229e+08
2.84858e+07
2.84804e+07
2.84494e+07
2.83952e+07
2.83174e+07
2.82154e+07
2.80886e+07
2.79366e+07
2.77588e+07
2.7555e+07
2.73247e+07
2.70678e+07
2.67841e+07
2.64735e+07
2.61361e+07
2.5772e+07
2.53813e+07
2.49642e+07
2.45213e+07
2.40527e+07
2.35592e+07
2.30412e+07
2.24997e+07
2.19354e+07
2.13495e+07
2.0743e+07
2.01171e+07
1.94729e+07
1.88117e+07
1.8135e+07
1.74444e+07
1.67413e+07
1.60275e+07
1.5305e+07
1.45758e+07
1.38421e+07
1.31064e+07
1.23713e+07
1.16397e+07
1.09146e+07
1.01994e+07
9.49783e+06
8.81359e+06
8.15083e+06
7.51393e+06
6.90744e+06
6.33612e+06
5.80485e+06
5.3186e+06
4.88246e+06
4.50154e+06
4.18097e+06
3.92582e+06
3.74104e+06
3.63134e+06
3.60117e+06
3.65467e+06
3.79553e+06
4.02695e+06
4.35163e+06
4.77171e+06
5.28877e+06
5.90372e+06
6.61682e+06
7.42765e+06
8.33514e+06
9.33757e+06
1.04326e+07
1.16174e+07
1.28885e+07
1.4242e+07
1.56738e+07
1.71792e+07
1.87531e+07
2.03902e+07
2.20851e+07
2.38318e+07
2.56246e+07
2.74574e+07
2.93243e+07
3.1219e+07
3.31354e+07
3.50669e+07
3.70069e+07
3.89487e+07
4.08857e+07
4.28109e+07
4.47175e+07
4.65985e+07
4.84467e+07
5.02554e+07
5.20174e+07
5.37261e+07
5.53749e+07
5.69574e+07
5.84681e+07
5.99016e+07
6.12536e+07
6.25205e+07
6.3699e+07
6.47868e+07
6.57825e+07
6.66858e+07
6.74973e+07
6.82184e+07
6.88507e+07
6.93962e+07
6.98581e+07
7.02397e+07
7.05448e+07
7.07773e+07