/*--------------------------------*- C++ -*----------------------------------*\
| =========                 |                                                 |
| \\      /  F ield         | OpenFOAM: The Open Source CFD Toolbox           |
|  \\    /   O peration     | Version:  dev                                   |
|   \\  /    A nd           | Web:      http://www.openfoam.org               |
|    \\/     M anipulation  |                                                 |
\*---------------------------------------------------------------------------*/
FoamFile
{
    version     2.0;
    format      ascii;
    class       volScalarField;
    object      rho;
    location    "9.146";
}
// * * * * * * * * * * * * * * * * * * * * * * * * * * * * * * * * * * * * * //

dimensions      [1 -3 0 0 0 0 0];

internalField   nonuniform List<scalar> 
12225
(
1.08866
1.08674
1.08612
1.08681
1.08736
1.08921
1.09022
1.09286
1.09385
1.09681
1.09803
1.1011
1.1023
1.10503
1.10694
1.10868
1.11266
1.1156
1.08826
1.08507
1.0846
1.08584
1.08616
1.08889
1.08881
1.09323
1.09283
1.0971
1.0975
1.10196
1.10282
1.10491
1.10726
1.10802
1.11481
1.11603
1.08788
1.08493
1.08424
1.08636
1.08616
1.08934
1.08919
1.09306
1.09419
1.09644
1.0981
1.10129
1.10487
1.10469
1.10709
1.10803
1.11499
1.11111
1.0879
1.08525
1.08468
1.08593
1.08744
1.08845
1.09009
1.09207
1.09549
1.09535
1.09795
1.10016
1.10483
1.10419
1.10813
1.10686
1.11444
1.11542
1.08848
1.08475
1.0853
1.0849
1.08838
1.08834
1.09006
1.09156
1.09551
1.09517
1.09807
1.10033
1.10388
1.10363
1.10789
1.10833
1.11546
1.11618
1.08905
1.08427
1.08582
1.08566
1.08856
1.08837
1.09037
1.09199
1.09463
1.09512
1.09932
1.10143
1.10321
1.10394
1.10763
1.10862
1.11593
1.11379
1.0894
1.08539
1.0867
1.0863
1.08826
1.08892
1.09097
1.09187
1.09412
1.09633
1.10063
1.1024
1.1028
1.10381
1.10805
1.11051
1.1144
1.11533
1.08933
1.08659
1.08708
1.0867
1.08897
1.08937
1.09199
1.09217
1.09563
1.09675
1.10015
1.10192
1.10383
1.1052
1.1085
1.1114
1.11392
1.11539
1.08977
1.08743
1.0863
1.08747
1.08858
1.09026
1.09229
1.0938
1.09597
1.09708
1.09905
1.10189
1.10436
1.10577
1.10842
1.11126
1.11357
1.11428
1.09074
1.0878
1.08668
1.08846
1.08829
1.091
1.09206
1.09466
1.09553
1.09759
1.09903
1.10282
1.1051
1.10702
1.10901
1.11177
1.11392
1.11487
1.09226
1.08757
1.08828
1.08886
1.08947
1.09128
1.09366
1.09559
1.09681
1.09847
1.10115
1.10398
1.10614
1.10805
1.11032
1.11251
1.11434
1.11502
1.09374
1.08847
1.09013
1.08989
1.09141
1.09235
1.09528
1.09685
1.0988
1.09995
1.10245
1.10465
1.10702
1.10888
1.11084
1.1124
1.11388
1.11506
1.0949
1.09036
1.09145
1.09138
1.0928
1.09391
1.09609
1.09765
1.09948
1.10099
1.10309
1.10525
1.10723
1.10907
1.11081
1.11237
1.11379
1.11498
1.09614
1.09237
1.09265
1.09307
1.09413
1.09557
1.09711
1.09892
1.10051
1.10236
1.10411
1.10611
1.10779
1.10965
1.11108
1.11269
1.1139
1.11526
1.09838
1.09522
1.09499
1.09561
1.09653
1.09785
1.09925
1.10098
1.10252
1.1043
1.10603
1.10788
1.10944
1.11115
1.11242
1.11391
1.11483
1.11598
1.1014
1.09852
1.0982
1.09879
1.09968
1.1009
1.10238
1.1039
1.1054
1.10696
1.10865
1.11032
1.1119
1.11338
1.11462
1.11582
1.11664
1.11759
1.10552
1.10274
1.10242
1.10298
1.1038
1.10493
1.10623
1.1076
1.10901
1.11051
1.11218
1.11383
1.11537
1.11657
1.1177
1.11878
1.11975
1.12043
1.11028
1.10767
1.10736
1.10784
1.10872
1.10984
1.11114
1.11246
1.11367
1.11506
1.11664
1.11831
1.1198
1.12066
1.12168
1.12312
1.12389
1.12463
1.11498
1.11254
1.11227
1.11265
1.11337
1.11437
1.11575
1.11702
1.11822
1.11963
1.12119
1.12293
1.12449
1.12484
1.12585
1.12789
1.12869
1.12954
1.11876
1.11658
1.11649
1.11685
1.11752
1.11864
1.11983
1.12087
1.12216
1.12397
1.12588
1.1274
1.12889
1.1293
1.13005
1.13215
1.13323
1.134
1.12205
1.11981
1.11972
1.12021
1.12102
1.12237
1.12357
1.12411
1.12505
1.12763
1.13005
1.13058
1.13192
1.13341
1.13401
1.13597
1.13729
1.13769
1.12465
1.12285
1.12273
1.12305
1.12373
1.12516
1.1266
1.12709
1.12782
1.13031
1.13271
1.13284
1.13416
1.13685
1.13769
1.13906
1.1404
1.14042
1.1267
1.12497
1.125
1.12543
1.12602
1.12711
1.12841
1.12982
1.13105
1.1325
1.13417
1.13518
1.13669
1.1392
1.14052
1.14136
1.14264
1.14297
1.12821
1.12654
1.12644
1.12708
1.12788
1.1287
1.12984
1.13149
1.13309
1.13414
1.13526
1.13718
1.13916
1.14091
1.14227
1.14332
1.14454
1.14562
1.12942
1.12782
1.12766
1.12822
1.12912
1.13013
1.13115
1.13256
1.13428
1.13554
1.1366
1.13854
1.14045
1.14174
1.14347
1.14474
1.14574
1.14717
1.13003
1.12862
1.12863
1.12912
1.12984
1.1309
1.13212
1.13333
1.13483
1.13644
1.13795
1.13947
1.14103
1.14263
1.14433
1.14583
1.1473
1.14855
1.13073
1.12927
1.12923
1.12972
1.13047
1.13142
1.13266
1.13403
1.13547
1.13695
1.13859
1.14026
1.14198
1.14368
1.14534
1.14698
1.14852
1.14998
1.13105
1.12968
1.1297
1.1302
1.13091
1.13184
1.13309
1.13448
1.13606
1.13769
1.13951
1.14134
1.1433
1.1452
1.14714
1.14895
1.15068
1.15227
1.13134
1.12998
1.12986
1.13034
1.13107
1.13209
1.13344
1.13498
1.13675
1.13863
1.14062
1.14259
1.14458
1.14641
1.14825
1.14982
1.15144
1.15271
1.13143
1.13064
1.13045
1.13083
1.13157
1.1326
1.13385
1.13523
1.1367
1.13817
1.13965
1.14107
1.14243
1.1437
1.1449
1.14596
1.14695
1.14778
1.24227
1.27687
1.27842
1.27916
1.279
1.27698
1.27288
1.26811
1.26369
1.2598
1.25677
1.25403
1.25164
1.24985
1.2483
1.24709
1.24631
1.24532
1.24305
1.23997
1.23777
1.2366
1.23652
1.23711
1.23672
1.23706
1.23664
1.23606
1.23605
1.23555
1.23505
1.23427
1.23686
1.23286
1.21656
1.20444
1.20005
1.19919
1.20162
1.2037
1.20472
1.20618
1.20768
1.209
1.2098
1.21003
1.20966
1.20886
1.20776
1.206
1.20351
1.20068
1.19781
1.19456
1.19031
1.1845
1.17576
1.16225
1.14729
1.13858
1.13589
1.1353
1.13381
1.13505
1.13526
1.13063
1.12664
1.12817
1.12222
1.121
1.11837
1.09695
1.08922
1.11065
1.11357
1.11588
1.11562
1.11622
1.11581
1.11577
1.11557
1.11528
1.11542
1.11506
1.11548
1.1154
1.11582
1.11606
1.11654
1.1172
1.11781
1.11865
1.1191
1.1193
1.1198
1.12058
1.12133
1.12092
1.12275
1.12321
1.1237
1.12521
1.12621
1.12711
1.12671
1.12556
1.1232
1.12121
1.12091
1.12343
1.12705
1.12751
1.12504
1.12666
1.13153
1.138
1.14565
1.15
1.15444
1.16355
1.18036
1.186
1.16454
1.15004
1.16772
1.18449
1.18466
1.15646
1.11951
1.10109
1.09872
1.09701
1.09256
1.08402
1.07433
1.07327
1.09041
1.09256
1.07249
1.07347
1.07595
1.06417
1.07546
1.08212
1.0826
1.08227
1.07695
1.07352
1.07813
1.08668
1.09112
1.09619
1.09913
1.11654
1.10662
1.10968
1.10882
1.11245
1.109
1.11055
1.11565
1.12094
1.1289
1.13683
1.14414
1.14876
1.15131
1.15329
1.1641
1.15837
1.16025
1.15938
1.15129
1.14443
1.13651
1.15579
1.16303
1.14487
1.12057
1.10983
1.23559
1.28359
1.30136
1.30315
1.2976
1.28371
1.26685
1.25217
1.24226
1.23518
1.23089
1.22737
1.22398
1.22119
1.21877
1.21727
1.21761
1.21899
1.21686
1.21463
1.2139
1.21245
1.21201
1.21263
1.21135
1.21312
1.21416
1.21283
1.21667
1.21738
1.21987
1.22308
1.22262
1.22847
1.23201
1.23118
1.24012
1.25171
1.23603
1.20365
1.19567
1.2102
1.222
1.22679
1.23087
1.23326
1.23144
1.22797
1.22649
1.22451
1.21894
1.21106
1.20508
1.20216
1.20198
1.20262
1.20448
1.2034
1.19617
1.18479
1.18117
1.16147
1.15033
1.17591
1.18361
1.17013
1.14206
1.13553
1.13248
1.14156
1.1398
1.13895
1.14276
1.14578
1.14405
1.14385
1.14099
1.13949
1.13684
1.13509
1.13322
1.13169
1.13065
1.12868
1.12937
1.12694
1.12845
1.12616
1.12883
1.12903
1.13023
1.1328
1.13399
1.13382
1.13322
1.13533
1.1389
1.13068
1.13649
1.1422
1.14163
1.14397
1.14603
1.15045
1.15421
1.15425
1.1525
1.14597
1.13795
1.13637
1.14419
1.15199
1.15064
1.15498
1.16763
1.17088
1.17978
1.19934
1.20294
1.17854
1.20381
1.27078
1.28764
1.25006
1.25899
1.3023
1.33125
1.31446
1.25192
1.18591
1.15422
1.14003
1.13352
1.11602
1.10721
1.12132
1.13057
1.10605
1.06788
1.10082
1.12651
1.11213
1.13031
1.13286
1.12285
1.09444
1.10983
1.11432
1.12352
1.14785
1.16844
1.18602
1.19587
1.22794
1.22081
1.22739
1.22696
1.23542
1.2245
1.21479
1.21655
1.22254
1.23499
1.25094
1.26095
1.27108
1.2767
1.28637
1.30328
1.30448
1.31855
1.32212
1.3076
1.28127
1.26531
1.33581
1.36505
1.32461
1.24586
1.21187
1.22282
1.26077
1.28622
1.29528
1.28042
1.25183
1.23079
1.21825
1.21334
1.21169
1.21235
1.21275
1.21204
1.21081
1.20917
1.20918
1.20893
1.20987
1.21045
1.21226
1.21794
1.21843
1.21844
1.21636
1.21257
1.21462
1.2124
1.21062
1.21262
1.21103
1.21163
1.21209
1.21333
1.21444
1.21144
1.21265
1.21201
1.21645
1.23336
1.238
1.22998
1.22358
1.21433
1.20561
1.20644
1.21248
1.21231
1.20334
1.19855
1.20111
1.20096
1.1937
1.18676
1.18337
1.17794
1.17664
1.17508
1.17321
1.1808
1.18392
1.18997
1.18683
1.19342
1.17408
1.16477
1.15815
1.14469
1.15117
1.15174
1.15152
1.14977
1.14849
1.14482
1.14018
1.13474
1.12981
1.12411
1.11923
1.11424
1.11055
1.10712
1.10493
1.10254
1.10021
1.10021
1.09586
1.0976
1.091
1.09344
1.09115
1.09381
1.09625
1.09821
1.09763
1.09671
1.09756
1.10701
1.09658
1.09724
1.10918
1.1106
1.11446
1.11657
1.11707
1.12549
1.1263
1.13241
1.14061
1.14101
1.1399
1.14166
1.13814
1.14403
1.16358
1.17023
1.16071
1.18425
1.22136
1.20405
1.10723
1.07378
1.16319
1.26751
1.27948
1.30401
1.34887
1.33254
1.29732
1.26105
1.21917
1.17791
1.15795
1.15592
1.12573
1.1172
1.1535
1.15202
1.10602
1.05838
1.10168
1.16601
1.08421
1.14855
1.13129
1.11175
1.05093
1.08747
1.11031
1.13023
1.16659
1.19829
1.22282
1.23798
1.19875
1.2362
1.25797
1.26405
1.26245
1.27792
1.29144
1.28058
1.26987
1.27632
1.2944
1.28662
1.27743
1.27688
1.29738
1.26878
1.31529
1.36831
1.39595
1.41857
1.38496
1.36238
1.44709
1.46101
1.4143
1.31542
1.28983
1.21593
1.2474
1.26616
1.26143
1.23916
1.21914
1.21074
1.21088
1.21565
1.21917
1.22095
1.21904
1.21395
1.20936
1.2076
1.21025
1.21543
1.21993
1.23043
1.23745
1.2409
1.2429
1.24215
1.24539
1.23971
1.23478
1.23966
1.23744
1.23308
1.23851
1.2453
1.2473
1.24787
1.24737
1.24173
1.23395
1.22313
1.21376
1.21434
1.21487
1.21809
1.22253
1.22556
1.23408
1.23525
1.22628
1.21912
1.21118
1.20562
1.20546
1.20531
1.19883
1.19178
1.193
1.1941
1.18339
1.17042
1.16638
1.17202
1.19301
1.18909
1.15649
1.17054
1.17461
1.16383
1.15408
1.1563
1.15974
1.1579
1.15485
1.1481
1.14157
1.13177
1.12679
1.119
1.11574
1.10874
1.10776
1.1029
1.10416
1.09979
1.10189
1.09754
1.09979
1.0969
1.09785
1.09573
1.09152
1.08906
1.08673
1.08772
1.08673
1.08454
1.08266
1.08607
1.08167
1.08416
1.08444
1.08038
1.08421
1.08799
1.09134
1.10071
1.09622
1.10194
1.10329
1.10365
1.11224
1.12107
1.1439
1.16036
1.13317
1.14419
1.18958
1.17082
1.11024
1.15547
1.23599
1.19957
1.08599
1.01354
1.05425
1.1762
1.25194
1.3052
1.3401
1.30088
1.26338
1.24527
1.21917
1.17867
1.17582
1.18147
1.12875
1.11523
1.1364
1.15096
1.14366
1.06559
1.07538
1.17813
1.10805
1.12635
1.10404
1.112
1.07632
1.08468
1.10272
1.13303
1.17432
1.20799
1.2182
1.22703
1.14084
1.18117
1.20865
1.24669
1.24539
1.25464
1.29091
1.31515
1.30628
1.30394
1.32073
1.293
1.24527
1.22426
1.23128
1.14458
1.22402
1.3323
1.37637
1.44367
1.44733
1.44524
1.50794
1.46068
1.39333
1.34109
1.34493
1.20721
1.22826
1.23755
1.22742
1.21396
1.20921
1.21115
1.21645
1.21876
1.21489
1.20788
1.19968
1.19297
1.18965
1.196
1.20872
1.22478
1.23871
1.25008
1.25889
1.26245
1.2699
1.26847
1.26358
1.26174
1.25461
1.25027
1.25331
1.256
1.25649
1.25742
1.2617
1.26949
1.26738
1.26769
1.26952
1.25121
1.23732
1.22824
1.21735
1.21829
1.21917
1.21885
1.22541
1.22221
1.21135
1.20503
1.20106
1.20668
1.20726
1.19802
1.18947
1.18808
1.19188
1.19346
1.18958
1.18305
1.17325
1.17275
1.18661
1.1688
1.15606
1.17998
1.1762
1.1665
1.1638
1.16481
1.16048
1.15165
1.14087
1.12868
1.12078
1.1148
1.11381
1.10962
1.11061
1.10849
1.11313
1.11243
1.11737
1.11482
1.1181
1.11401
1.11546
1.11185
1.11404
1.11119
1.10945
1.10534
1.10432
1.10221
1.09774
1.09171
1.08814
1.09157
1.08885
1.0897
1.083
1.08256
1.07771
1.07954
1.07648
1.08436
1.08218
1.08131
1.08664
1.08527
1.09545
1.09699
1.11179
1.15351
1.1238
1.12534
1.19817
1.19207
1.09955
1.09222
1.19213
1.19423
1.12229
1.05982
1.03208
1.11189
1.20063
1.27521
1.31356
1.26643
1.23519
1.22843
1.20539
1.18596
1.19441
1.16905
1.13466
1.13571
1.13665
1.13692
1.16972
1.0453
1.05818
1.07796
1.16527
1.10497
1.07098
1.10003
1.09043
1.0999
1.11321
1.13169
1.18484
1.20317
1.20711
1.24652
1.16539
1.17663
1.19699
1.19824
1.18194
1.21114
1.24821
1.29954
1.3137
1.31048
1.34249
1.32777
1.25246
1.19607
1.17785
1.11455
1.13912
1.2703
1.32262
1.39709
1.44772
1.49659
1.53808
1.45401
1.38716
1.37002
1.37497
1.19943
1.21121
1.21371
1.20701
1.20507
1.20776
1.21037
1.21282
1.20852
1.20066
1.19486
1.1931
1.19553
1.20152
1.21872
1.24369
1.25797
1.26172
1.26101
1.26734
1.27018
1.271
1.27311
1.26994
1.27105
1.27181
1.26627
1.26615
1.26778
1.26448
1.26315
1.26442
1.26337
1.2688
1.2755
1.27379
1.27175
1.2588
1.23865
1.22667
1.21612
1.20711
1.20076
1.20599
1.20112
1.20369
1.20774
1.19863
1.20631
1.20252
1.18537
1.18441
1.20287
1.2242
1.23063
1.22574
1.21991
1.20979
1.2012
1.19729
1.17725
1.17445
1.17941
1.16751
1.16499
1.1626
1.15653
1.14415
1.13223
1.12141
1.11668
1.11908
1.12336
1.12688
1.12836
1.13125
1.13385
1.13689
1.13747
1.13724
1.13474
1.1341
1.13135
1.13015
1.12791
1.12794
1.12714
1.12586
1.12289
1.121
1.11864
1.11627
1.11232
1.10618
1.09957
1.10178
1.10425
1.09683
1.095
1.09334
1.08946
1.08325
1.08326
1.09003
1.08106
1.08454
1.08078
1.0824
1.09285
1.08595
1.12135
1.12281
1.1027
1.15206
1.20119
1.17043
1.12589
1.16501
1.16343
1.13041
1.10542
1.06033
1.0788
1.14764
1.24454
1.28208
1.23853
1.21968
1.2253
1.21993
1.21795
1.20631
1.15294
1.13891
1.14305
1.14798
1.15393
1.12675
1.05841
1.05574
1.06185
1.1424
1.10019
1.06942
1.09582
1.07836
1.10288
1.13668
1.17549
1.18209
1.15108
1.16905
1.25082
1.17041
1.15072
1.1962
1.20672
1.15068
1.17373
1.20609
1.25885
1.29163
1.28278
1.32369
1.35651
1.30096
1.22421
1.19863
1.21052
1.14266
1.23177
1.28203
1.33417
1.40378
1.50455
1.55259
1.45896
1.40313
1.36694
1.37962
1.19289
1.19868
1.19896
1.20017
1.2044
1.20685
1.20655
1.20806
1.20654
1.20382
1.20123
1.19978
1.20268
1.2138
1.23052
1.24506
1.23984
1.2263
1.21545
1.21475
1.22432
1.23087
1.23607
1.23859
1.23612
1.23939
1.24615
1.24358
1.23745
1.24055
1.24415
1.25082
1.26084
1.26288
1.26425
1.26755
1.26612
1.26722
1.26239
1.24308
1.23765
1.22934
1.21638
1.21563
1.20172
1.20651
1.19851
1.19823
1.21309
1.19173
1.18117
1.20438
1.22363
1.22646
1.21713
1.21006
1.20933
1.20723
1.20388
1.19474
1.18003
1.17517
1.16808
1.16069
1.15873
1.15029
1.13955
1.12879
1.12532
1.12643
1.13476
1.1427
1.14813
1.14709
1.14605
1.14447
1.14367
1.13981
1.1358
1.12836
1.12266
1.11729
1.11441
1.11288
1.11254
1.11306
1.11486
1.117
1.11634
1.11566
1.11265
1.11498
1.11571
1.10889
1.10391
1.11381
1.10244
1.10174
1.09615
1.09787
1.0979
1.09609
1.08324
1.09664
1.09528
1.09403
1.09424
1.0809
1.09989
1.09274
1.09035
1.10723
1.10439
1.11479
1.15379
1.16395
1.14246
1.14409
1.14583
1.13094
1.10658
1.07776
1.07611
1.12701
1.2316
1.2567
1.22391
1.22451
1.23775
1.2411
1.21967
1.17644
1.16753
1.17749
1.15292
1.14078
1.13662
1.04863
1.0871
1.06373
1.0709
1.13903
1.10787
1.07513
1.0883
1.06807
1.10346
1.13337
1.17518
1.15239
1.12252
1.16223
1.19453
1.17484
1.16164
1.17275
1.21615
1.16995
1.17335
1.185
1.2103
1.2575
1.25359
1.26546
1.33091
1.33149
1.26321
1.25038
1.28992
1.18817
1.22051
1.26859
1.28887
1.34826
1.48821
1.55712
1.46528
1.4094
1.34748
1.38435
1.18747
1.1914
1.19464
1.2
1.20234
1.20232
1.20264
1.20619
1.20459
1.20094
1.19876
1.20031
1.21033
1.22932
1.24018
1.23111
1.2089
1.19585
1.20106
1.21018
1.21593
1.21775
1.21695
1.21645
1.21663
1.21571
1.21671
1.22154
1.22284
1.22356
1.22616
1.23126
1.24423
1.25219
1.2446
1.23944
1.23522
1.22817
1.22868
1.22908
1.22159
1.21367
1.21521
1.21124
1.21307
1.21144
1.20311
1.21536
1.1937
1.17922
1.19892
1.20592
1.199
1.19365
1.1823
1.19272
1.21094
1.20509
1.19695
1.18896
1.17801
1.17257
1.16642
1.15947
1.15396
1.14481
1.13523
1.13009
1.13292
1.14043
1.14864
1.15129
1.14938
1.14078
1.13319
1.12631
1.12407
1.12301
1.12455
1.12361
1.12275
1.11897
1.1151
1.11194
1.11004
1.11027
1.1118
1.11637
1.1173
1.11969
1.11518
1.11215
1.11306
1.1054
1.10319
1.10242
1.10836
1.10437
1.09995
1.09832
1.09421
1.10276
1.09214
1.09133
1.09078
1.08917
1.10185
1.07904
1.09739
1.1145
1.08837
1.09029
1.11609
1.10503
1.11505
1.14703
1.15414
1.15205
1.15399
1.14558
1.11324
1.07764
1.08335
1.13593
1.23687
1.24038
1.21511
1.23475
1.24399
1.23518
1.18571
1.13917
1.06998
1.12114
1.17348
1.14843
1.13576
1.09493
1.1109
1.10564
1.06775
1.14512
1.09646
1.06527
1.08192
1.0735
1.11272
1.14879
1.17453
1.15902
1.13284
1.14163
1.13263
1.16594
1.17823
1.15946
1.20184
1.18226
1.18923
1.20632
1.19891
1.22961
1.24692
1.22834
1.28091
1.32334
1.27036
1.28861
1.32109
1.21068
1.2113
1.26825
1.26632
1.29824
1.45897
1.55385
1.47496
1.4035
1.34036
1.39817
1.18272
1.18711
1.19272
1.19509
1.19543
1.1979
1.19984
1.20095
1.20012
1.20156
1.20523
1.21377
1.23004
1.24182
1.23545
1.21757
1.2065
1.20732
1.21545
1.21957
1.21595
1.20957
1.20743
1.20724
1.20737
1.20934
1.20777
1.20441
1.2036
1.20287
1.20306
1.21038
1.22253
1.23255
1.23822
1.24021
1.23977
1.23808
1.22946
1.22394
1.22486
1.21993
1.21603
1.21495
1.21103
1.20711
1.21071
1.19179
1.17674
1.20215
1.21396
1.19411
1.18111
1.18692
1.18167
1.19023
1.19998
1.18891
1.18485
1.18091
1.17148
1.16451
1.16277
1.15621
1.14723
1.14577
1.14565
1.14834
1.1568
1.16609
1.17031
1.16611
1.15631
1.14288
1.13063
1.1218
1.11892
1.11914
1.12295
1.12755
1.13351
1.13575
1.13413
1.12896
1.12081
1.11593
1.11247
1.11813
1.1237
1.13113
1.13509
1.12752
1.12232
1.12057
1.11618
1.10362
1.10582
1.10736
1.09926
1.10095
1.10009
1.09938
1.1
1.09873
1.10191
1.08866
1.11064
1.09428
1.08354
1.10882
1.10282
1.08067
1.11214
1.1174
1.10121
1.10906
1.11618
1.1202
1.13958
1.16898
1.15408
1.09246
1.09064
1.15679
1.25259
1.23113
1.21227
1.24277
1.25188
1.20822
1.16396
1.1678
1.01812
1.04644
1.10688
1.10462
1.14362
1.07636
1.12865
1.15085
1.09841
1.13048
1.06498
1.0568
1.07427
1.08449
1.12017
1.16307
1.21259
1.14887
1.11884
1.09603
1.15815
1.20227
1.16998
1.14089
1.17184
1.18625
1.2023
1.22501
1.20493
1.21004
1.23872
1.21251
1.23363
1.29008
1.24092
1.28866
1.33316
1.21621
1.20497
1.27681
1.24937
1.25166
1.42022
1.53943
1.47742
1.3895
1.34304
1.4145
1.17799
1.18298
1.18766
1.18801
1.19192
1.19698
1.19827
1.19892
1.20016
1.20074
1.20331
1.21554
1.23035
1.23467
1.23348
1.23409
1.23681
1.23501
1.2314
1.2254
1.21942
1.21578
1.21443
1.21492
1.21417
1.21276
1.21138
1.20825
1.20293
1.19856
1.19558
1.19373
1.19688
1.20697
1.21544
1.22122
1.23198
1.23518
1.22575
1.21652
1.20659
1.20318
1.20704
1.20663
1.2075
1.20377
1.18744
1.18178
1.20869
1.22042
1.1966
1.17343
1.18314
1.19741
1.18008
1.17608
1.17982
1.17208
1.16973
1.16307
1.16157
1.15269
1.14714
1.14538
1.13706
1.13503
1.13706
1.14035
1.14259
1.14485
1.14252
1.13651
1.13066
1.1268
1.1267
1.12663
1.12435
1.11853
1.11261
1.10772
1.1035
1.10025
1.09953
1.10235
1.09982
1.09682
1.08838
1.08532
1.09384
1.10836
1.12363
1.1332
1.12971
1.12977
1.1185
1.12448
1.1137
1.11432
1.11412
1.10098
1.10589
1.10125
1.10127
1.09483
1.10619
1.08974
1.10016
1.10758
1.10137
1.11304
1.11597
1.08254
1.10412
1.13024
1.11217
1.10334
1.10352
1.08798
1.09255
1.14034
1.15876
1.10029
1.08315
1.16294
1.26123
1.22425
1.20979
1.24739
1.26498
1.20097
1.18416
1.19436
1.02188
1.06516
1.0839
1.09402
1.18248
1.07665
1.1997
1.24509
1.17299
1.10219
1.06525
1.07839
1.0879
1.09941
1.12509
1.12661
1.15192
1.14734
1.1435
1.15302
1.21817
1.24913
1.17645
1.15583
1.18553
1.20185
1.20962
1.23023
1.22126
1.20731
1.24127
1.22174
1.21549
1.27078
1.21091
1.2696
1.33779
1.22151
1.20272
1.29144
1.2241
1.199
1.37755
1.52112
1.47575
1.37685
1.34762
1.4244
1.17293
1.17746
1.18031
1.18362
1.19116
1.19685
1.1957
1.19139
1.18935
1.19054
1.19985
1.2175
1.22963
1.23891
1.24692
1.24667
1.2411
1.22979
1.2214
1.21583
1.21104
1.20742
1.20766
1.21067
1.21509
1.21846
1.21734
1.21206
1.20475
1.19826
1.19506
1.19488
1.19593
1.19824
1.20052
1.20451
1.21102
1.21408
1.21274
1.20764
1.20242
1.20125
1.20138
1.20138
1.19471
1.18117
1.18292
1.20325
1.21336
1.19751
1.17924
1.17326
1.18577
1.19583
1.1853
1.17938
1.17439
1.16619
1.16712
1.15307
1.15105
1.14779
1.13658
1.13649
1.13313
1.13016
1.13072
1.13373
1.13502
1.135
1.1337
1.13162
1.1278
1.124
1.12001
1.11474
1.10975
1.10827
1.11123
1.1111
1.10093
1.09046
1.07986
1.07681
1.07703
1.08202
1.08667
1.08162
1.07516
1.08864
1.10144
1.11924
1.12471
1.12758
1.1299
1.12226
1.12403
1.11332
1.11499
1.11815
1.11012
1.11037
1.11346
1.09943
1.10793
1.10903
1.10532
1.10237
1.09587
1.10114
1.12041
1.09127
1.09515
1.12758
1.12001
1.10422
1.09633
1.07388
1.0673
1.11923
1.1572
1.10974
1.07287
1.15739
1.26432
1.22177
1.21258
1.25131
1.27607
1.22943
1.23008
1.15937
1.02297
1.08246
1.11868
1.11254
1.1582
1.10144
1.27173
1.28089
1.19643
1.08771
1.10749
1.11154
1.12008
1.132
1.1788
1.1633
1.13516
1.15676
1.15605
1.17801
1.27354
1.26823
1.1881
1.18201
1.20372
1.22017
1.21567
1.24404
1.23517
1.18331
1.21405
1.21929
1.21458
1.2739
1.19891
1.25695
1.33791
1.21845
1.19878
1.305
1.20299
1.14539
1.33333
1.4994
1.47222
1.36622
1.34906
1.42214
1.16755
1.17128
1.17481
1.18215
1.18944
1.19127
1.185
1.18131
1.18121
1.17786
1.18214
1.19641
1.2087
1.21532
1.21593
1.21259
1.21059
1.20366
1.19704
1.18964
1.18431
1.18157
1.18413
1.18998
1.19811
1.20529
1.20877
1.20658
1.20014
1.19425
1.19209
1.19421
1.19883
1.20374
1.20482
1.2031
1.20271
1.20236
1.20048
1.19885
1.19914
1.20048
1.19804
1.1891
1.18045
1.1841
1.19648
1.20067
1.19051
1.17796
1.17754
1.179
1.17458
1.17121
1.1682
1.16748
1.16554
1.15392
1.15496
1.15254
1.14743
1.1459
1.14069
1.13891
1.13666
1.13535
1.13493
1.13623
1.13656
1.13658
1.13703
1.13796
1.13955
1.14199
1.14479
1.14655
1.14534
1.13951
1.12721
1.11035
1.10022
1.10505
1.10968
1.10792
1.10577
1.10981
1.11177
1.11439
1.09406
1.09303
1.10198
1.11916
1.12836
1.12586
1.13835
1.13151
1.12503
1.1329
1.11399
1.11934
1.119
1.10306
1.11892
1.10785
1.1031
1.11521
1.10484
1.12078
1.12913
1.10448
1.13032
1.12076
1.09759
1.11812
1.12553
1.12201
1.11707
1.10114
1.07301
1.09706
1.15016
1.12966
1.07151
1.146
1.2594
1.2218
1.21518
1.25768
1.27705
1.25862
1.24344
1.1003
1.03297
1.09046
1.13355
1.11686
1.12715
1.11522
1.31673
1.2519
1.21754
1.15392
1.17483
1.1471
1.17531
1.196
1.21343
1.18759
1.17653
1.15553
1.16867
1.19294
1.31721
1.27522
1.19013
1.21999
1.21711
1.26053
1.24405
1.2625
1.24662
1.18001
1.1833
1.20381
1.21374
1.28333
1.19668
1.25093
1.33961
1.21235
1.19829
1.31265
1.19638
1.10285
1.29482
1.4826
1.4685
1.35618
1.34779
1.41023
1.16231
1.166
1.17083
1.17585
1.17966
1.18065
1.17184
1.16852
1.17573
1.17222
1.16639
1.17442
1.18641
1.19302
1.19585
1.1955
1.19435
1.18766
1.18173
1.17729
1.17802
1.17936
1.181
1.18322
1.18751
1.1927
1.19879
1.20254
1.20176
1.1965
1.19108
1.18922
1.19042
1.19391
1.19517
1.19179
1.19097
1.19324
1.19437
1.19503
1.19377
1.19037
1.18338
1.17544
1.17782
1.19168
1.19798
1.19163
1.1784
1.16737
1.17209
1.18328
1.17885
1.16823
1.16536
1.15873
1.15878
1.15844
1.15249
1.15415
1.15707
1.15225
1.14674
1.14505
1.14079
1.13976
1.13911
1.13833
1.13814
1.13724
1.13558
1.13405
1.13386
1.13431
1.13689
1.14141
1.14521
1.14372
1.14162
1.13462
1.12098
1.10512
1.10021
1.10267
1.10598
1.12702
1.13215
1.13027
1.11223
1.09705
1.10431
1.11182
1.13171
1.13692
1.13265
1.14677
1.12784
1.12477
1.13261
1.11487
1.13771
1.11511
1.12406
1.13339
1.10344
1.13457
1.11453
1.09028
1.12536
1.10182
1.10956
1.13495
1.1197
1.11417
1.1127
1.12445
1.13351
1.13106
1.09809
1.09589
1.15434
1.15356
1.07424
1.12526
1.25067
1.22797
1.21695
1.26845
1.26907
1.26484
1.20145
1.07267
1.0391
1.07848
1.10132
1.11544
1.11566
1.12289
1.32967
1.25324
1.26813
1.21448
1.20161
1.20379
1.23033
1.20395
1.20487
1.19865
1.21752
1.20325
1.21239
1.23033
1.30862
1.31553
1.23937
1.29896
1.26632
1.32674
1.29048
1.27318
1.26704
1.2277
1.18421
1.18335
1.21033
1.2931
1.2018
1.25551
1.34388
1.20361
1.19474
1.31607
1.21059
1.08356
1.26582
1.46517
1.46082
1.34671
1.34304
1.3906
1.15725
1.16084
1.16514
1.16791
1.16986
1.17324
1.1745
1.18
1.18723
1.17546
1.16025
1.16296
1.17466
1.17932
1.18135
1.18172
1.18353
1.18456
1.18568
1.18754
1.18938
1.1879
1.18656
1.18543
1.18479
1.18463
1.18724
1.19078
1.1951
1.19812
1.1969
1.1913
1.18627
1.18614
1.1901
1.19021
1.18716
1.18717
1.18681
1.18402
1.1795
1.17381
1.17483
1.18052
1.18298
1.19128
1.19643
1.19209
1.17949
1.16542
1.16265
1.17068
1.16993
1.16054
1.16423
1.16145
1.15053
1.1546
1.15456
1.14806
1.14874
1.14458
1.13807
1.13803
1.13718
1.13624
1.1371
1.13772
1.13898
1.13995
1.13976
1.13924
1.13504
1.13299
1.1351
1.13801
1.14504
1.14113
1.13284
1.12307
1.117
1.11542
1.11315
1.10805
1.09415
1.10338
1.12066
1.11039
1.10739
1.10231
1.10851
1.12207
1.13066
1.14935
1.1421
1.13843
1.1416
1.12761
1.13301
1.12215
1.12239
1.12362
1.10424
1.14508
1.11368
1.12279
1.14913
1.11245
1.13251
1.14317
1.11857
1.12405
1.13733
1.13919
1.11962
1.11638
1.1334
1.14598
1.12159
1.10119
1.15532
1.16814
1.0818
1.10265
1.23169
1.23162
1.21716
1.28253
1.25512
1.24983
1.14318
1.07206
1.05525
1.0774
1.06939
1.11528
1.11035
1.06722
1.23462
1.30183
1.29409
1.22954
1.20331
1.20716
1.23008
1.21774
1.21013
1.20543
1.22433
1.2278
1.24006
1.30725
1.33976
1.37801
1.34213
1.36494
1.30197
1.37383
1.33841
1.25651
1.26065
1.28642
1.22178
1.15999
1.1905
1.28623
1.20163
1.27334
1.34392
1.19048
1.19092
1.32103
1.23036
1.08605
1.25066
1.4564
1.45916
1.33888
1.33727
1.36423
1.15311
1.15836
1.1625
1.16528
1.1666
1.16609
1.16656
1.16584
1.169
1.18266
1.17226
1.15696
1.16877
1.17926
1.18175
1.18132
1.18417
1.1855
1.18284
1.17743
1.17192
1.1685
1.16715
1.16677
1.16796
1.1702
1.17337
1.17496
1.17618
1.17912
1.18499
1.19037
1.18994
1.18325
1.17971
1.18182
1.18062
1.1762
1.17247
1.16836
1.16516
1.16256
1.16376
1.17808
1.18656
1.18761
1.19266
1.19213
1.18142
1.1678
1.16195
1.16628
1.16395
1.14877
1.14524
1.1524
1.14634
1.14122
1.1455
1.14188
1.13819
1.13769
1.13447
1.13505
1.13548
1.13569
1.13587
1.1359
1.13705
1.13991
1.14259
1.14525
1.14222
1.13906
1.13734
1.13273
1.14264
1.1518
1.14134
1.1191
1.10123
1.10302
1.11371
1.12078
1.1229
1.11787
1.12857
1.11801
1.09668
1.11639
1.10954
1.12862
1.13452
1.13781
1.14716
1.13602
1.1239
1.12864
1.12318
1.14032
1.12264
1.15373
1.12493
1.13281
1.13794
1.1201
1.14437
1.13081
1.11057
1.13868
1.12884
1.12282
1.13113
1.1488
1.14252
1.12543
1.13001
1.14877
1.13979
1.10961
1.14929
1.17329
1.098
1.09238
1.21564
1.23794
1.21578
1.30022
1.24353
1.21992
1.10895
1.08798
1.06629
1.08189
1.07305
1.1309
1.11316
1.1386
1.25465
1.3327
1.30955
1.25029
1.21079
1.22943
1.2797
1.23633
1.20416
1.24297
1.21902
1.25619
1.28639
1.32351
1.32774
1.3673
1.37258
1.39193
1.34329
1.38608
1.38886
1.30705
1.29828
1.3324
1.26587
1.17006
1.18403
1.27655
1.20121
1.30372
1.33335
1.17351
1.18649
1.32532
1.24542
1.09937
1.24791
1.45444
1.45266
1.33222
1.3337
1.339
1.15111
1.16072
1.1628
1.16392
1.16566
1.16351
1.15829
1.15654
1.16824
1.18379
1.17174
1.15515
1.15317
1.15867
1.16415
1.16483
1.16378
1.16343
1.16485
1.16746
1.17025
1.17151
1.17187
1.17014
1.16803
1.16567
1.16471
1.16572
1.16672
1.16534
1.16409
1.16622
1.17217
1.17462
1.16944
1.16441
1.16461
1.16391
1.15967
1.15656
1.15664
1.16208
1.16454
1.16495
1.17225
1.17449
1.17954
1.1838
1.17828
1.16845
1.16015
1.16135
1.16397
1.15535
1.14211
1.13961
1.14107
1.13773
1.13825
1.14089
1.13956
1.13826
1.13577
1.13399
1.13255
1.1322
1.13145
1.13118
1.13584
1.13867
1.14023
1.14513
1.1459
1.14384
1.14562
1.13911
1.1348
1.14101
1.1464
1.13951
1.11898
1.1048
1.10818
1.11135
1.11843
1.12823
1.12539
1.13551
1.11598
1.11755
1.12128
1.12899
1.14094
1.14481
1.1513
1.14361
1.14218
1.13727
1.11755
1.13367
1.11585
1.12998
1.13439
1.13575
1.15353
1.12914
1.13791
1.15462
1.13232
1.15848
1.1438
1.13898
1.14206
1.1606
1.15476
1.13747
1.14011
1.15832
1.15294
1.11976
1.14479
1.17923
1.11874
1.08908
1.19823
1.24596
1.2081
1.31712
1.25811
1.18242
1.1082
1.11094
1.0801
1.08151
1.08632
1.14352
1.11666
1.20943
1.2999
1.34086
1.30782
1.24828
1.2156
1.29085
1.34294
1.26891
1.21802
1.324
1.24139
1.26018
1.27188
1.20875
1.30577
1.33709
1.34259
1.35297
1.32761
1.38881
1.41582
1.37558
1.35811
1.35776
1.28333
1.19951
1.21986
1.28083
1.21031
1.34964
1.307
1.15323
1.18632
1.33376
1.25219
1.11826
1.25529
1.45229
1.4475
1.32782
1.33387
1.32398
1.15105
1.16314
1.15922
1.15794
1.16419
1.16767
1.16968
1.17449
1.17566
1.16697
1.16029
1.16258
1.15722
1.15232
1.15386
1.15535
1.15615
1.15721
1.15648
1.15566
1.15469
1.15515
1.15687
1.15946
1.16291
1.16433
1.16409
1.16381
1.16522
1.16657
1.16561
1.16019
1.15562
1.15745
1.15999
1.15628
1.15114
1.15077
1.15061
1.14962
1.15007
1.15306
1.16122
1.16354
1.16416
1.16703
1.16903
1.17247
1.1709
1.16581
1.15962
1.15664
1.1561
1.1552
1.14822
1.14028
1.13735
1.13586
1.1346
1.1345
1.13402
1.13353
1.13271
1.12998
1.12936
1.12773
1.12866
1.13112
1.13668
1.1403
1.14264
1.15145
1.1548
1.14545
1.14555
1.14048
1.13386
1.1349
1.1379
1.12972
1.11865
1.11854
1.11413
1.12148
1.11957
1.13399
1.13586
1.12922
1.12593
1.13291
1.13213
1.1465
1.14936
1.14348
1.15599
1.1501
1.15061
1.16262
1.14838
1.15459
1.14865
1.14818
1.14454
1.12551
1.15582
1.14517
1.14198
1.1574
1.12705
1.14948
1.15194
1.14971
1.14184
1.16211
1.16329
1.14933
1.15186
1.16885
1.16289
1.13186
1.1509
1.18861
1.13686
1.09422
1.17938
1.25632
1.20349
1.31314
1.29905
1.18412
1.13771
1.14682
1.09894
1.08829
1.09982
1.1607
1.18653
1.28994
1.35959
1.33634
1.30012
1.27114
1.2673
1.37271
1.37921
1.27005
1.23622
1.37937
1.27636
1.27561
1.28019
1.1802
1.34115
1.33566
1.35629
1.37172
1.30024
1.32297
1.3965
1.39725
1.39012
1.38639
1.29689
1.22256
1.27379
1.286
1.22814
1.39571
1.2771
1.14099
1.19406
1.34056
1.25225
1.13876
1.26929
1.46414
1.45245
1.32263
1.33696
1.32571
1.14732
1.1591
1.16214
1.16608
1.16767
1.16738
1.16228
1.16015
1.15803
1.16259
1.16638
1.16666
1.1613
1.15794
1.15687
1.15466
1.15436
1.15415
1.154
1.15452
1.15527
1.15657
1.1556
1.15369
1.15221
1.15246
1.15442
1.15559
1.15681
1.15931
1.16424
1.16838
1.16433
1.15435
1.14903
1.15001
1.14913
1.14582
1.14517
1.14444
1.14447
1.14905
1.15337
1.15725
1.15652
1.15613
1.15819
1.16434
1.16949
1.16848
1.16327
1.15865
1.15334
1.1501
1.14768
1.14205
1.13744
1.13333
1.13044
1.12932
1.12794
1.12683
1.12585
1.12622
1.12547
1.12845
1.13357
1.13864
1.14722
1.15624
1.1545
1.15454
1.15686
1.14482
1.13829
1.13044
1.12724
1.12913
1.13155
1.12709
1.11147
1.12231
1.11573
1.11594
1.1197
1.13886
1.14588
1.13697
1.12982
1.14174
1.14261
1.14158
1.14288
1.14789
1.13526
1.14866
1.13976