/*--------------------------------*- C++ -*----------------------------------*\
| =========                 |                                                 |
| \\      /  F ield         | OpenFOAM: The Open Source CFD Toolbox           |
|  \\    /   O peration     | Version:  dev                                   |
|   \\  /    A nd           | Web:      http://www.openfoam.org               |
|    \\/     M anipulation  |                                                 |
\*---------------------------------------------------------------------------*/
FoamFile
{
    version     2.0;
    format      ascii;
    class       volScalarField;
    object      rho_0;
    location    "9.146";
}
// * * * * * * * * * * * * * * * * * * * * * * * * * * * * * * * * * * * * * //

dimensions      [1 -3 0 0 0 0 0];

internalField   nonuniform List<scalar> 
12225
(
1.10791
1.10437
1.10322
1.10345
1.10333
1.10473
1.10501
1.10714
1.10732
1.10972
1.11012
1.11255
1.11292
1.11498
1.11606
1.11702
1.1201
1.12119
1.10646
1.10168
1.10099
1.10178
1.10161
1.10376
1.10311
1.10692
1.1058
1.10948
1.10917
1.11298
1.11293
1.11441
1.11588
1.11634
1.12212
1.12096
1.10604
1.10155
1.10065
1.10233
1.10162
1.10422
1.10349
1.1068
1.10717
1.10875
1.1098
1.11247
1.11504
1.11397
1.11576
1.11655
1.12216
1.11739
1.10596
1.10183
1.10103
1.10186
1.10288
1.10324
1.10436
1.10579
1.10841
1.10749
1.10961
1.11132
1.11496
1.11358
1.11673
1.11522
1.12231
1.12072
1.10645
1.10124
1.10155
1.10079
1.10379
1.103
1.10422
1.10523
1.10835
1.10726
1.10974
1.1113
1.11386
1.11306
1.11669
1.11676
1.12326
1.1221
1.10691
1.10067
1.10203
1.10144
1.10377
1.10295
1.10447
1.10547
1.10731
1.10732
1.11104
1.11212
1.11306
1.11337
1.1164
1.1171
1.1233
1.12044
1.10712
1.10168
1.10273
1.10186
1.10333
1.10342
1.1049
1.10514
1.10685
1.10856
1.11213
1.11284
1.11249
1.11325
1.11702
1.11872
1.12184
1.12211
1.10687
1.10271
1.10283
1.10211
1.10387
1.10374
1.10575
1.10534
1.10825
1.10866
1.11137
1.11242
1.11364
1.11447
1.11733
1.1195
1.12127
1.12205
1.10708
1.10328
1.10184
1.10272
1.10325
1.10451
1.10588
1.10682
1.10824
1.10871
1.11012
1.11242
1.11409
1.11489
1.11708
1.11927
1.12073
1.12077
1.10782
1.10331
1.10206
1.1034
1.10275
1.10501
1.10545
1.10743
1.10758
1.10906
1.11003
1.11324
1.1147
1.11598
1.11747
1.11964
1.12103
1.12131
1.10893
1.10272
1.10337
1.10344
1.10367
1.105
1.10685
1.10804
1.10863
1.10975
1.11193
1.11404
1.11549
1.11681
1.11854
1.1201
1.12123
1.12138
1.10977
1.10317
1.10473
1.10404
1.10517
1.10564
1.10803
1.10893
1.11023
1.11079
1.11275
1.11432
1.11604
1.11728
1.11864
1.1196
1.12055
1.1213
1.11013
1.10444
1.10538
1.10493
1.10594
1.10659
1.1082
1.10915
1.11037
1.1113
1.11284
1.11439
1.11574
1.117
1.11817
1.11918
1.12007
1.12082
1.11047
1.10562
1.10575
1.10584
1.10649
1.10746
1.10846
1.1097
1.1107
1.11198
1.11315
1.11456
1.11566
1.11695
1.11783
1.11892
1.11964
1.12058
1.11175
1.10745
1.10705
1.10735
1.10787
1.10872
1.10962
1.11079
1.11177
1.11299
1.11416
1.11543
1.11644
1.1176
1.11835
1.11933
1.11976
1.1205
1.11334
1.10941
1.1089
1.10917
1.10966
1.11044
1.11143
1.11242
1.11337
1.1144
1.11556
1.11669
1.11774
1.1187
1.11944
1.12014
1.12052
1.12106
1.11563
1.11187
1.11135
1.11159
1.11202
1.11272
1.11355
1.11442
1.11533
1.11634
1.11751
1.11866
1.11968
1.12037
1.12106
1.12171
1.12225
1.12253
1.11812
1.11466
1.11416
1.11434
1.11485
1.11557
1.11643
1.11728
1.11802
1.11897
1.1201
1.1213
1.12229
1.12267
1.12336
1.1244
1.12474
1.12516
1.12063
1.11738
1.11695
1.11705
1.11742
1.11806
1.11904
1.11986
1.12064
1.12165
1.12281
1.12413
1.12516
1.12508
1.12589
1.12757
1.12793
1.12849
1.12216
1.11946
1.11927
1.11938
1.11976
1.12055
1.12134
1.12197
1.12291
1.12438
1.12588
1.12696
1.12799
1.128
1.12859
1.13039
1.13106
1.13156
1.12371
1.12105
1.12089
1.12118
1.12173
1.12276
1.12355
1.1237
1.1244
1.12672
1.12861
1.12869
1.12978
1.1309
1.13125
1.13298
1.13387
1.13403
1.12505
1.12278
1.12259
1.12273
1.12317
1.12432
1.12537
1.12549
1.12601
1.12823
1.13009
1.12983
1.13106
1.13341
1.13386
1.13499
1.13594
1.13578
1.12592
1.12386
1.12383
1.12409
1.12445
1.12527
1.12627
1.12736
1.12827
1.1294
1.13069
1.13141
1.13275
1.13493
1.13584
1.13643
1.13743
1.13759
1.12653
1.12462
1.12449
1.12497
1.12554
1.1261
1.12698
1.12834
1.12958
1.13028
1.13116
1.13285
1.13453
1.13594
1.13699
1.1378
1.13881
1.13973
1.12722
1.12532
1.12513
1.12554
1.12622
1.12697
1.12772
1.12887
1.13027
1.13119
1.13201
1.13371
1.13529
1.1363
1.13779
1.13877
1.13958
1.14081
1.1274
1.12573
1.12569
1.12602
1.12653
1.12735
1.1283
1.12924
1.13046
1.13178
1.13299
1.13423
1.13553
1.13689
1.13834
1.13961
1.14085
1.14189
1.1278
1.12611
1.126
1.12634
1.12688
1.1276
1.12859
1.12969
1.13084
1.13204
1.13341
1.13481
1.13627
1.13771
1.13914
1.14055
1.14188
1.14314
1.12797
1.12635
1.1263
1.12664
1.12715
1.12785
1.12885
1.12998
1.13129
1.13265
1.13419
1.13576
1.13746
1.13911
1.1408
1.14237
1.14389
1.14529
1.12818
1.12654
1.12635
1.12668
1.12721
1.12801
1.12911
1.1304
1.1319
1.1335
1.13521
1.1369
1.13862
1.14018
1.14177
1.1431
1.14451
1.14558
1.12835
1.12725
1.12694
1.12715
1.12768
1.12847
1.12946
1.13056
1.13173
1.13291
1.13409
1.13522
1.13631
1.13731
1.13826
1.13909
1.13987
1.14051
1.23857
1.27317
1.27478
1.27554
1.27544
1.27351
1.26952
1.26483
1.26048
1.25665
1.25367
1.25099
1.24866
1.24694
1.24546
1.24432
1.2436
1.2426
1.2403
1.23726
1.23518
1.23413
1.23416
1.23475
1.23438
1.23474
1.23429
1.23375
1.23376
1.23325
1.23276
1.23209
1.23465
1.23039
1.21416
1.2024
1.19822
1.19741
1.19982
1.20193
1.2031
1.20476
1.20653
1.20813
1.20927
1.20991
1.20996
1.20964
1.20907
1.20791
1.20605
1.20387
1.2017
1.19922
1.19582
1.19099
1.18347
1.17122
1.15701
1.1485
1.14611
1.14613
1.14524
1.14728
1.1487
1.14515
1.1415
1.14394
1.13887
1.13828
1.13744
1.11687
1.10741
1.12896
1.13351
1.13663
1.13696
1.13805
1.13811
1.13846
1.13868
1.13873
1.13925
1.13921
1.13997
1.14021
1.14095
1.14149
1.14227
1.14323
1.14412
1.14526
1.14599
1.14639
1.14701
1.14792
1.14885
1.14834
1.15018
1.15068
1.151
1.15236
1.15317
1.15387
1.15321
1.15172
1.14895
1.14647
1.14568
1.14786
1.15135
1.15171
1.14902
1.15055
1.15552
1.1621
1.1701
1.17488
1.17954
1.18873
1.20654
1.21396
1.19318
1.17819
1.19635
1.21452
1.21596
1.18807
1.15019
1.13055
1.12757
1.12558
1.1209
1.1118
1.10131
1.09928
1.11601
1.1182
1.09671
1.0966
1.09953
1.0869
1.09795
1.10489
1.10552
1.10522
1.10021
1.09684
1.10144
1.11056
1.11571
1.12137
1.12454
1.14331
1.13468
1.13863
1.13904
1.14425
1.14233
1.14523
1.15188
1.1588
1.16842
1.17807
1.1869
1.19294
1.19672
1.19985
1.21204
1.20719
1.20991
1.20925
1.20066
1.19279
1.18439
1.20426
1.20925
1.18752
1.16059
1.14872
1.23192
1.27988
1.29766
1.29953
1.29413
1.28044
1.26375
1.24917
1.23929
1.23224
1.22795
1.22445
1.2211
1.21835
1.21601
1.21463
1.2151
1.21643
1.21418
1.21201
1.21128
1.20988
1.20958
1.2102
1.20902
1.21094
1.21183
1.21066
1.21463
1.21526
1.21787
1.22094
1.22056
1.22663
1.22999
1.22939
1.23863
1.24978
1.23403
1.20217
1.19425
1.20863
1.22056
1.22566
1.2301
1.23302
1.23177
1.22873
1.22771
1.22646
1.22168
1.21443
1.20897
1.2066
1.20706
1.20843
1.21113
1.21114
1.2054
1.195
1.19295
1.17453
1.16189
1.18682
1.1974
1.18679
1.15874
1.15176
1.14854
1.15838
1.158
1.15766
1.16199
1.16567
1.16459
1.16489
1.16252
1.16138
1.15908
1.1576
1.15604
1.15477
1.15411
1.15228
1.15338
1.15112
1.15302
1.15082
1.15365
1.15425
1.15563
1.15854
1.1602
1.16035
1.15978
1.16179
1.16617
1.15765
1.16292
1.16906
1.1685
1.17068
1.17251
1.1767
1.18043
1.18023
1.17829
1.17153
1.163
1.16092
1.16852
1.17618
1.1748
1.1795
1.19236
1.19532
1.20481
1.22565
1.22932
1.20276
1.22751
1.2974
1.31827
1.28145
1.29098
1.33609
1.36584
1.34925
1.28609
1.21854
1.1852
1.17007
1.16349
1.14475
1.13458
1.14914
1.15846
1.13295
1.09113
1.12272
1.15135
1.13456
1.15385
1.1566
1.1471
1.11667
1.13195
1.13744
1.1468
1.17194
1.19396
1.21286
1.22338
1.25566
1.25112
1.25931
1.26052
1.27075
1.26232
1.25437
1.25726
1.26451
1.27866
1.29689
1.30811
1.31931
1.32618
1.33776
1.35514
1.35912
1.37621
1.38087
1.36638
1.33779
1.32234
1.39639
1.42108
1.37304
1.28894
1.25421
1.21925
1.25719
1.28257
1.29172
1.2771
1.2487
1.22773
1.21519
1.21026
1.2086
1.20927
1.2097
1.20905
1.2079
1.20633
1.20637
1.20613
1.20708
1.20757
1.20954
1.21523
1.21554
1.21552
1.21332
1.20989
1.21213
1.20974
1.20828
1.21036
1.20874
1.20953
1.21008
1.21144
1.2124
1.2094
1.21073
1.21001
1.21476
1.23192
1.23634
1.22842
1.22231
1.21333
1.2049
1.20583
1.21209
1.21256
1.20411
1.19953
1.20254
1.20321
1.19669
1.1903
1.18753
1.18278
1.18211
1.18103
1.17955
1.18804
1.19285
1.19993
1.19689
1.20577
1.18758
1.17832
1.17291
1.15962
1.16625
1.16812
1.16862
1.16744
1.16684
1.16369
1.15957
1.15448
1.15002
1.14464
1.14016
1.13539
1.13203
1.12873
1.1269
1.1248
1.12266
1.12314
1.11898
1.12122
1.11477
1.11705
1.11496
1.11758
1.12032
1.12268
1.12242
1.12171
1.12202
1.13219
1.12227
1.1219
1.13385
1.13556
1.13932
1.14151
1.14146
1.14977
1.15036
1.15618
1.16455
1.16509
1.16441
1.16633
1.16154
1.16762
1.18882
1.19464
1.18278
1.20781
1.24816
1.23047
1.13018
1.09357
1.18316
1.2921
1.30863
1.33601
1.38229
1.3642
1.32792
1.2924
1.2512
1.20879
1.18873
1.18732
1.15462
1.1435
1.17982
1.18038
1.1346
1.08171
1.12129
1.19228
1.10687
1.17004
1.15421
1.13673
1.07313
1.10764
1.13182
1.15273
1.19025
1.22354
1.24902
1.26718
1.22413
1.26228
1.28697
1.29636
1.29579
1.31368
1.3316
1.3238
1.31383
1.32106
1.3414
1.33333
1.32206
1.32114
1.34279
1.31044
1.36333
1.42342
1.45411
1.48064
1.44621
1.4256
1.51161
1.51634
1.46094
1.35968
1.33572
1.21245
1.244
1.26273
1.25809
1.23596
1.21598
1.20758
1.20769
1.21247
1.21602
1.2179
1.21609
1.21112
1.20668
1.20495
1.20756
1.21251
1.21699
1.22749
1.23427
1.23769
1.23956
1.23904
1.24226
1.23637
1.2321
1.23722
1.23465
1.23076
1.23681
1.24354
1.24536
1.24599
1.24536
1.23961
1.23186
1.22095
1.21192
1.21254
1.21295
1.21658
1.22127
1.22461
1.23347
1.23468
1.22587
1.21912
1.21167
1.20656
1.20681
1.20729
1.20145
1.19491
1.19677
1.1988
1.18902
1.17677
1.17312
1.17884
1.20129
1.19862
1.16574
1.18025
1.18664
1.1774
1.16783
1.17027
1.17443
1.1735
1.17122
1.16501
1.15916
1.14964
1.14518
1.13772
1.13514
1.12844
1.12805
1.12346
1.12542
1.12133
1.12401
1.11991
1.12249
1.11992
1.12132
1.11986
1.11606
1.11353
1.1112
1.11224
1.11155
1.1094
1.10722
1.11111
1.10678
1.10897
1.10964
1.1054
1.10853
1.11231
1.11525
1.12487
1.12012
1.12529
1.1266
1.12638
1.13483
1.14353
1.16695
1.18502
1.15623
1.16708
1.21548
1.19637
1.13135
1.17544
1.26025
1.22597
1.11241
1.03665
1.07406
1.19658
1.27708
1.33483
1.3711
1.33033
1.2925
1.27535
1.24965
1.20946
1.20769
1.21224
1.1582
1.14337
1.16153
1.17626
1.17364
1.09037
1.09419
1.19685
1.137
1.14832
1.12474
1.13509
1.10053
1.10724
1.12509
1.15558
1.1985
1.23322
1.24364
1.25785
1.1683
1.20617
1.23525
1.27533
1.27528
1.28618
1.32575
1.35613
1.35057
1.3489
1.36886
1.34183
1.28961
1.26513
1.27068
1.1819
1.26417
1.38097
1.42809
1.50052
1.50833
1.51196
1.5705
1.51025
1.43782
1.38906
1.39382
1.20386
1.22508
1.23438
1.2243
1.21088
1.20611
1.20805
1.21335
1.21571
1.21197
1.20511
1.19695
1.19018
1.18687
1.19311
1.20556
1.22155
1.23549
1.24708
1.25579
1.25944
1.2669
1.26514
1.26045
1.25857
1.25141
1.2476
1.25096
1.25362
1.25416
1.25529
1.25991
1.26752
1.26521
1.26593
1.2673
1.24871
1.23539
1.22623
1.21556
1.21673
1.21739
1.21717
1.2239
1.22065
1.21032
1.20466
1.20115
1.20734
1.20835
1.19965
1.19165
1.19077
1.19536
1.19798
1.1953
1.19015
1.1812
1.18056
1.195
1.17811
1.16566
1.18964
1.18749
1.17886
1.17654
1.17806
1.17455
1.16655
1.15641
1.14467
1.13713
1.13163
1.13143
1.12797
1.12953
1.12787
1.13302
1.13292
1.13846
1.13651
1.14024
1.13672
1.13836
1.135
1.13741
1.13525
1.13402
1.1301
1.1292
1.12748
1.12342
1.11742
1.1133
1.11653
1.1143
1.11546
1.10852
1.10806
1.10289
1.10435
1.10069
1.10811
1.10633
1.10458
1.10983
1.10803
1.11774
1.11924
1.13275
1.17548
1.14652
1.14671
1.22048
1.21837
1.12619
1.11431
1.21341
1.21769
1.14965
1.08762
1.05642
1.13292
1.22294
1.30282
1.34265
1.29483
1.26437
1.259
1.23696
1.21942
1.22716
1.19691
1.16406
1.16534
1.16461
1.16333
1.19676
1.07084
1.08024
1.09282
1.19092
1.12975
1.09245
1.122
1.11358
1.12357
1.13827
1.15753
1.20967
1.22613
1.23004
1.27765
1.19665
1.20423
1.22704
1.22904
1.21035
1.24097
1.27986
1.3355
1.35477
1.35224
1.38824
1.37976
1.30305
1.24159
1.22186
1.16379
1.18102
1.31609
1.37065
1.44638
1.50348
1.56239
1.59846
1.50322
1.43545
1.41897
1.42302
1.19623
1.20826
1.21078
1.20408
1.20209
1.20477
1.20742
1.20988
1.20557
1.19771
1.19192
1.19016
1.19249
1.19836
1.21556
1.24042
1.25496
1.25922
1.25916
1.2658
1.2684
1.26918
1.27105
1.26773
1.26892
1.26942
1.26375
1.26386
1.26547
1.26205
1.26082
1.26207
1.26113
1.26687
1.27336
1.27141
1.26939
1.25628
1.23645
1.22479
1.21437
1.20541
1.19931
1.20465
1.19971
1.20302
1.2072
1.19848
1.20674
1.2031
1.18643
1.18598
1.20483
1.22698
1.23449
1.23062
1.22604
1.21734
1.2095
1.20595
1.18673
1.18396
1.18855
1.17745
1.17543
1.17371
1.16862
1.15715
1.14613
1.13593
1.13157
1.13445
1.13986
1.14429
1.14656
1.1497
1.15282
1.1561
1.1573
1.15719
1.15494
1.15428
1.15195
1.15092
1.14905
1.14923
1.14908
1.14851
1.14605
1.14446
1.14234
1.14059
1.13736
1.13141
1.12412
1.12662
1.12918
1.12218
1.11993
1.11859
1.11466
1.10831
1.10705
1.11462
1.1054
1.10838
1.10453
1.10469
1.11607
1.10796
1.14104
1.14469
1.12447
1.17091
1.22272
1.19803
1.15263
1.1868
1.18522
1.15597
1.13283
1.08729
1.10241
1.17073
1.2727
1.31024
1.26732
1.25077
1.25815
1.25468
1.25181
1.23531
1.18205
1.1707
1.1724
1.17547
1.18132
1.14607
1.0863
1.08021
1.08378
1.16468
1.12605
1.09334
1.11897
1.1008
1.12591
1.16108
1.20371
1.20784
1.1736
1.19107
1.2763
1.20274
1.18
1.22569
1.2424
1.18445
1.2063
1.23907
1.29152
1.32905
1.32136
1.36198
1.40387
1.35516
1.27622
1.2527
1.27225
1.19227
1.27868
1.33081
1.37984
1.45367
1.56719
1.61227
1.50978
1.45269
1.41219
1.42762
1.18987
1.19593
1.19621
1.19736
1.20156
1.20403
1.20377
1.20526
1.20368
1.2009
1.19827
1.19678
1.19962
1.21052
1.22736
1.24261
1.23824
1.22518
1.21427
1.21354
1.22303
1.22946
1.23463
1.23701
1.23449
1.2378
1.24439
1.2415
1.23536
1.23855
1.24214
1.24886
1.25872
1.26051
1.26174
1.26488
1.2633
1.26444
1.25964
1.24064
1.23568
1.22737
1.2149
1.2141
1.20062
1.20568
1.19763
1.1982
1.21295
1.19178
1.18183
1.2053
1.22502
1.22846
1.21935
1.21282
1.21334
1.21213
1.20976
1.20171
1.18807
1.18347
1.17663
1.16978
1.1684
1.16104
1.15103
1.14067
1.13756
1.13923
1.1483
1.1572
1.16384
1.16332
1.16226
1.16046
1.16002
1.15667
1.15353
1.14664
1.14123
1.13579
1.13282
1.13129
1.13112
1.13185
1.13399
1.13703
1.13717
1.13727
1.13431
1.13668
1.13847
1.13206
1.12669
1.13699
1.12629
1.12564
1.11988
1.12153
1.12161
1.12073
1.10697
1.11987
1.11897
1.11724
1.1184
1.10328
1.12281
1.1171
1.11085
1.12753
1.12795
1.13481
1.17108
1.18566
1.168
1.16758
1.17001
1.15741
1.13275
1.10407
1.10229
1.1542
1.26231
1.28518
1.25368
1.25795
1.27199
1.27452
1.24762
1.20024
1.18654
1.20298
1.18388
1.16818
1.16394
1.07267
1.1157
1.09285
1.09483
1.16443
1.13337
1.09949
1.11218
1.09212
1.128
1.15868
1.20227
1.18014
1.149
1.18674
1.2148
1.20635
1.1952
1.20214
1.25036
1.20811
1.21132
1.22392
1.24524
1.29388
1.2938
1.30085
1.36982
1.3809
1.3137
1.30911
1.34939
1.2394
1.26846
1.31965
1.3345
1.39436
1.54796
1.61636
1.51718
1.45658
1.3926
1.43571
1.18467
1.18886
1.19205
1.1974
1.19979
1.19975
1.20006
1.20363
1.20197
1.19824
1.19597
1.19737
1.2071
1.226
1.23736
1.22924
1.20734
1.19387
1.19846
1.20743
1.21358
1.21576
1.21513
1.21465
1.21476
1.21381
1.21489
1.21971
1.22088
1.22157
1.22413
1.22918
1.24202
1.24967
1.2419
1.23672
1.23246
1.22534
1.22582
1.22648
1.21911
1.21144
1.2134
1.20956
1.21184
1.21014
1.2023
1.21455
1.19282
1.1791
1.19927
1.20649
1.19981
1.19507
1.18358
1.19363
1.21337
1.20878
1.20134
1.19461
1.18456
1.17917
1.17428
1.1681
1.16278
1.15524
1.14683
1.14208
1.145
1.15308
1.16208
1.16551
1.16429
1.15594
1.14786
1.14034
1.13774
1.13693
1.13933
1.13974
1.14026
1.13759
1.13412
1.13095
1.12867
1.12868
1.12993
1.13511
1.13694
1.14055
1.13717
1.1337
1.13483
1.12777
1.12554
1.12355
1.13052
1.12715
1.12261
1.12101
1.11675
1.12549
1.11568
1.11388
1.11358
1.11104
1.12527
1.10196
1.11842
1.13784
1.11127
1.11034
1.13902
1.12787
1.13399
1.16583
1.17528
1.17373
1.17768
1.1742
1.14297
1.10435
1.11045
1.16675
1.27035
1.26974
1.24572
1.26904
1.27861
1.26384
1.2114
1.17085
1.0823
1.13377
1.19487
1.17152
1.16502
1.12362
1.14096
1.14062
1.09593
1.17022
1.11898
1.08926
1.10626
1.09998
1.13896
1.17697
1.20652
1.18911
1.16235
1.16518
1.16049
1.19961
1.21266
1.19078
1.23295
1.22084
1.23023
1.25078
1.2399
1.26742
1.28951
1.2674
1.31638
1.36571
1.31292
1.34303
1.37485
1.25801
1.25903
1.32154
1.31146
1.34096
1.51522
1.61206
1.52688
1.44817
1.38873
1.45258
1.1802
1.18483
1.19042
1.19286
1.19317
1.19554
1.19747
1.19863
1.19775
1.19911
1.20266
1.21089
1.22696
1.23914
1.23333
1.21537
1.20356
1.20381
1.21204
1.21672
1.2136
1.20734
1.20513
1.20488
1.205
1.207
1.20551
1.20225
1.2015
1.20078
1.20093
1.20821
1.22021
1.22998
1.23556
1.23758
1.23734
1.23588
1.22716
1.22143
1.22236
1.21763
1.21383
1.21297
1.20919
1.20532
1.20917
1.19036
1.17587
1.20157
1.21387
1.19451
1.18148
1.18813
1.18285
1.1902
1.20082
1.1909
1.18708
1.18409
1.17642
1.16896
1.16759
1.16296
1.15385
1.15252
1.15352
1.15671
1.16502
1.17489
1.18028
1.17745
1.16879
1.15638
1.14464
1.13583
1.13255
1.13228
1.13563
1.1402
1.14649
1.14968
1.14912
1.14513
1.13726
1.13225
1.12792
1.13296
1.13929
1.14804
1.15443
1.14855
1.14318
1.14214
1.13791
1.12569
1.12675
1.12901
1.1213
1.12233
1.12217
1.1207
1.12205
1.1204
1.12452
1.11015
1.13207
1.11772
1.1053
1.13035
1.12648
1.10145
1.13306
1.14178
1.12331
1.12787
1.13468
1.13762
1.15746
1.19348
1.18404
1.12005
1.11648
1.18758
1.28673
1.26108
1.24342
1.27692
1.28821
1.23715
1.1963
1.20668
1.04153
1.06821
1.12402
1.1255
1.17751
1.10072
1.16419
1.19316
1.13729
1.15328
1.08971
1.08474
1.1017
1.1135
1.14824
1.18701
1.2394
1.18089
1.15216
1.12746
1.19716
1.24401
1.20726
1.17665
1.20695
1.22683
1.24455
1.26985
1.25049
1.25098
1.28268
1.25682
1.27239
1.33128
1.27884
1.33684
1.38471
1.26138
1.25338
1.3323
1.29053
1.28916
1.47265
1.5963
1.5283
1.43316
1.39397
1.46917
1.17582
1.18105
1.18577
1.1861
1.18985
1.19483
1.19618
1.19693
1.1982
1.19877
1.20109
1.21296
1.2279
1.23245
1.231
1.23112
1.23369
1.23221
1.2291
1.22343
1.21747
1.21366
1.21215
1.21252
1.21169
1.21023
1.20887
1.20583
1.20064
1.19631
1.19332
1.19142
1.19443
1.20434
1.21263
1.21827
1.22904
1.23235
1.22313
1.21396
1.20387
1.20044
1.20442
1.20413
1.20508
1.20159
1.18546
1.17994
1.20707
1.21961
1.19677
1.17298
1.1818
1.19829
1.18256
1.17679
1.18023
1.17341
1.17192
1.16463
1.1643
1.15693
1.15019
1.14968
1.14259
1.13991
1.14188
1.14576
1.14812
1.15065
1.14925
1.14431
1.13921
1.13601
1.13665
1.13749
1.13593
1.13062
1.12492
1.11995
1.11486
1.11086
1.10948
1.11282
1.11146
1.10978
1.1023
1.09825
1.10557
1.12068
1.13723
1.14972
1.14779
1.14884
1.13811
1.1447
1.13428
1.13418
1.13497
1.12205
1.12656
1.12212
1.12252
1.11514
1.12699
1.11175
1.12034
1.1288
1.12312
1.13315
1.13829
1.10425
1.12397
1.15285
1.13564
1.12512
1.12426
1.10641
1.10883
1.16002
1.18479
1.1276
1.10706
1.19107
1.29412
1.25465
1.24148
1.28134
1.30199
1.2377
1.22583
1.22261
1.05022
1.09697
1.11422
1.12276
1.21206
1.10632
1.24252
1.28954
1.21553
1.12698
1.09949
1.11275
1.12202
1.1337
1.16189
1.15791
1.17351
1.17983
1.17938
1.19327
1.26399
1.29482
1.21855
1.19829
1.22819
1.24679
1.25377
1.27688
1.27011
1.24857
1.28302
1.26781
1.26044
1.31746
1.25131
1.31731
1.38854
1.26492
1.25144
1.34782
1.26163
1.23138
1.42718
1.57729
1.52617
1.42069
1.39907
1.47604
1.17115
1.17594
1.17879
1.18194
1.18938
1.19515
1.19424
1.19003
1.18794
1.18903
1.19805
1.21556
1.22783
1.23708
1.24518
1.24527
1.24007
1.22899
1.22057
1.21499
1.21016
1.20638
1.2063
1.209
1.21311
1.21634
1.21527
1.21009
1.20279
1.19619
1.1928
1.19245
1.19343
1.19571
1.19791
1.20173
1.20801
1.21097
1.20977
1.20485
1.19983
1.19874
1.19872
1.19868
1.19217
1.17875
1.18038
1.2007
1.21133
1.19633
1.17862
1.17201
1.18305
1.194
1.18579
1.18014
1.17554
1.16667
1.16879
1.15604
1.1529
1.15167
1.14079
1.14025
1.13818
1.13546
1.13568
1.13887
1.14077
1.14128
1.14083
1.13993
1.13724
1.13432
1.13101
1.12626
1.12147
1.1199
1.12271
1.12274
1.11287
1.10323
1.09295
1.08938
1.08959
1.0953
1.10146
1.09764
1.08892
1.10111
1.11382
1.13288
1.14025
1.14351
1.14809
1.14001
1.14236
1.13242
1.13293
1.13772
1.12962
1.12909
1.13369
1.11945
1.12672
1.13053
1.12501
1.12283
1.11809
1.12024
1.14179
1.11497
1.11524
1.14728
1.14223
1.12774
1.12011
1.09816
1.08876
1.1389
1.182
1.13879
1.09706
1.18294
1.29519
1.25267
1.24461
1.28561
1.3108
1.27107
1.26993
1.17388
1.05125
1.11151
1.15236
1.14294
1.17735
1.13112
1.31339
1.31418
1.23686
1.12757
1.15162
1.15042
1.16186
1.17434
1.22126
1.20544
1.17343
1.19118
1.19281
1.21389
1.32054
1.3152
1.23229
1.23003
1.24907
1.27138
1.26517
1.29482
1.28597
1.22652
1.2521
1.26217
1.26269
1.32547
1.24326
1.30761
1.38847
1.25938
1.24794
1.3606
1.24165
1.1765
1.38199
1.55602
1.52255
1.40995
1.39965
1.46893
1.16621
1.17018
1.17364
1.1809
1.18823
1.19026
1.18419
1.18044
1.18018
1.17682
1.18106
1.19532
1.20771
1.21459
1.2155
1.21224
1.21026
1.20339
1.19677
1.18934
1.18373
1.18056
1.1827
1.1883
1.19631
1.2035
1.20703
1.20488
1.19835
1.19224
1.1898
1.19167
1.19615
1.20112
1.20234
1.20055
1.19993
1.19949
1.19758
1.19597
1.19625
1.19758
1.19523
1.18628
1.17755
1.18132
1.19383
1.19826
1.18843
1.17568
1.17533
1.17804
1.17367
1.16923
1.1665
1.1657
1.16548
1.15475
1.15446
1.15431
1.15016
1.14888
1.14467
1.1429
1.14087
1.13996
1.13963
1.1409
1.1416
1.14196
1.14272
1.144
1.14615
1.14922
1.15296
1.15607
1.15633
1.15137
1.13944
1.12217
1.1111
1.11518
1.1208
1.12003
1.11821
1.12369
1.12618
1.12997
1.10919
1.10573
1.11432
1.13127
1.14252
1.14067
1.15318
1.14854
1.14079
1.1496
1.13145
1.13549
1.13784
1.12034
1.13694
1.12814
1.12023
1.13543
1.12385
1.13779
1.15034
1.12325
1.14809
1.14414
1.11979
1.13692
1.1448
1.14496
1.14298
1.12993
1.09926
1.1181
1.17534
1.16042
1.09657
1.16866
1.28781
1.25335
1.24647
1.29297
1.30793
1.29551
1.26697
1.1158
1.06148
1.11524
1.1558
1.14442
1.14836
1.14099
1.3522
1.28375
1.26215
1.20558
1.21932
1.19149
1.22218
1.23801
1.25031
1.22726
1.2245
1.19834
1.21218
1.23422
1.35952
1.32951
1.24154
1.27757
1.26992
1.32132
1.3024
1.31485
1.30081
1.23611
1.22754
1.24446
1.26227
1.33649
1.24373
1.30577
1.39055
1.25138
1.2475
1.36694
1.24035
1.1383
1.34492
1.53994
1.51799
1.39946
1.39677
1.45203
1.16146
1.16535
1.17015
1.17522
1.17907
1.18012
1.17124
1.16758
1.17466
1.17145
1.16577
1.17367
1.18564
1.1924
1.19532
1.19497
1.19394
1.18724
1.18106
1.17611
1.17634
1.17748
1.17906
1.18128
1.18562
1.19088
1.19697
1.20074
1.19996
1.19461
1.18898
1.18692
1.18793
1.19132
1.19271
1.1893
1.18815
1.19025
1.19136
1.192
1.19069
1.18721
1.1804
1.17259
1.17449
1.18827
1.19519
1.1896
1.17679
1.16489
1.1681
1.18014
1.1778
1.16697
1.16452
1.15787
1.15664
1.15838
1.15269
1.15329
1.15758
1.15377
1.14815
1.14683
1.14301
1.14204
1.14183
1.14132
1.14156
1.14122
1.13991
1.13854
1.13814
1.13842
1.14107
1.14592
1.15095
1.15021
1.14891
1.14312
1.13034
1.11395
1.10821
1.11049
1.11275
1.13447
1.14181
1.13968
1.12349
1.10799
1.11503
1.12266
1.14307
1.15073
1.14539
1.16021
1.14236
1.13805
1.14807
1.12955
1.15263
1.13186
1.13807
1.15228
1.12037
1.15151
1.13486
1.10616
1.14272
1.12312
1.12622
1.15306
1.14232
1.13567
1.13142
1.14348
1.15593
1.15755
1.12559
1.1194
1.17968
1.18297
1.0996
1.1451
1.27573
1.25925
1.24687
1.30471
1.29641
1.29281
1.21123
1.09693
1.06857
1.10231
1.11629
1.14215
1.14022
1.13965
1.3452
1.2954
1.31424
1.26022
1.2378
1.24463
1.27342
1.24304
1.23918
1.2373
1.26021
1.25178
1.26103
1.28446
1.35132
1.37671
1.30609
1.36449
1.32627
1.39246
1.35619
1.32303
1.32086
1.29595
1.24044
1.22329
1.25649
1.34359
1.24966
1.31666
1.39291
1.24002
1.24326
1.3706
1.25919
1.12632
1.3191
1.52384
1.5105
1.38967
1.39034
1.42747
1.1569
1.16067
1.16498
1.16776
1.16973
1.1731
1.1742
1.17951
1.18691
1.17505
1.15973
1.16242
1.17403
1.17875
1.18082
1.18113
1.18278
1.18361
1.18452
1.18622
1.18822
1.18693
1.1856
1.18446
1.1838
1.18347
1.18588
1.18927
1.19343
1.19634
1.19507
1.18939
1.1841
1.18362
1.18746
1.18771
1.18454
1.18427
1.1838
1.18091
1.1763
1.17033
1.17105
1.1773
1.17983
1.18752
1.19311
1.18986
1.17807
1.16363
1.15917
1.16663
1.16728
1.15734
1.16034
1.16009
1.14851
1.15117
1.15313
1.14651
1.14647
1.14355
1.13724
1.13717
1.13712
1.13649
1.13762
1.1386
1.14027
1.14193
1.14247
1.14279
1.13875
1.13646
1.13837
1.14071
1.14864
1.14632
1.13789
1.12706
1.12054
1.1205
1.11987
1.1157
1.10175
1.10874
1.12712
1.11691
1.11366
1.1117
1.11692
1.13196
1.13996
1.15912
1.15334
1.14818
1.15222
1.13929
1.14384
1.13629
1.1335
1.1397
1.1178
1.15865
1.13072
1.1359
1.1667
1.13163
1.14628
1.16284
1.13647
1.13913
1.15562
1.16091
1.14129
1.13516
1.15245
1.16827
1.14719
1.12466
1.17798
1.19408
1.10818
1.12256
1.25405
1.26187
1.24506
1.31924
1.28104
1.26937
1.15392
1.10233
1.08528
1.10356
1.09049
1.14448
1.1375
1.09912
1.25358
1.34613
1.33645
1.27138
1.23874
1.24564
1.27576
1.26123
1.2464
1.25203
1.2618
1.27431
1.28884
1.35604
1.38352
1.42986
1.40851
1.42789
1.36322
1.43425
1.40855
1.3178
1.32172
1.35806
1.28632
1.20687
1.23878
1.33385
1.25014
1.34207
1.38689
1.22413
1.23948
1.37622
1.27904
1.13471
1.30824
1.51776
1.50819
1.3814
1.38379
1.39799
1.15326
1.1586
1.16278
1.16555
1.16683
1.16635
1.16682
1.16613
1.16935
1.18262
1.17216
1.15686
1.16851
1.17901
1.18158
1.18104
1.18377
1.18525
1.18281
1.1775
1.17184
1.16811
1.16648
1.1659
1.16693
1.16904
1.17223
1.17383
1.17492
1.1776
1.18319
1.18845
1.18808
1.18128
1.17734
1.17919
1.17802
1.17347
1.1695
1.16519
1.16187
1.15929
1.15983
1.17356
1.18256
1.18345
1.18847
1.18893
1.17922
1.16576
1.15879
1.16251
1.1617
1.14698
1.14068
1.14779
1.14387
1.13759
1.14174
1.13975
1.1359
1.13578
1.1331
1.13348
1.13406
1.13457
1.13488
1.13502
1.13656
1.13976
1.14284
1.14635
1.14414
1.14117
1.13971
1.1344
1.14336
1.15391
1.14543
1.12383
1.10461
1.10513
1.1164
1.12454
1.12875
1.12413
1.13357
1.12531
1.10266
1.12312
1.11651
1.13553
1.14218
1.14478
1.15555
1.14444
1.13246
1.13837
1.13136
1.15107
1.13248
1.16486
1.13852
1.14325
1.15355
1.13295
1.15554
1.14765
1.12377
1.15448
1.14567
1.13944
1.14719
1.16755
1.16311
1.14504
1.14919
1.1695
1.16288
1.13218
1.16966
1.19694
1.12515
1.11355
1.23608
1.26757
1.24054
1.33568
1.27433
1.23348
1.13004
1.1218
1.0955
1.1068
1.10046
1.16167
1.1415
1.192
1.29815
1.3711
1.34714
1.29047
1.24828
1.27946
1.33956
1.28624
1.24251
1.30461
1.26348
1.30027
1.33015
1.33855
1.36378
1.40365
1.41913
1.44181
1.39851
1.44044
1.45658
1.38655
1.37527
1.402
1.32902
1.22898
1.24698
1.3273
1.25434
1.38033
1.36693
1.20523
1.23646
1.38124
1.29133
1.1516
1.30956
1.51613
1.50002
1.37453
1.38052
1.37411
1.15177
1.1614
1.16358
1.16473
1.16641
1.16425
1.15899
1.15706
1.16867
1.18448
1.17248
1.15561
1.15351
1.15892
1.16438
1.1651
1.16402
1.16352
1.16475
1.16717
1.16986
1.17106
1.17136
1.1695
1.16719
1.16466
1.16357
1.16443
1.16535
1.16392
1.16253
1.16444
1.1702
1.17264
1.16739
1.162
1.16186
1.16108
1.15673
1.15338
1.15311
1.15846
1.16116
1.16091
1.16773
1.16997
1.17469
1.17939
1.17481
1.16557
1.15683
1.15704
1.16017
1.15357
1.14006
1.13554
1.13722
1.13439
1.13413
1.1372
1.13654
1.13542
1.13332
1.13133
1.12987
1.12951
1.12899
1.12892
1.13403
1.1372
1.13887
1.14438
1.14592
1.1436
1.14576
1.13952
1.13408
1.13971
1.1464
1.14111
1.12141
1.10715
1.10944
1.11283
1.11979
1.13147
1.12829
1.13899
1.12132
1.12216
1.12678
1.13449
1.14656
1.15011
1.15708
1.15021
1.15027
1.14614
1.12645
1.14218
1.12581
1.13778
1.14485
1.14418
1.16451
1.14124
1.14819
1.16809
1.14538
1.17138
1.15826
1.15493
1.15688
1.17628
1.17147
1.15561
1.15968
1.17845
1.17319
1.14105
1.16532
1.20198
1.1444
1.11083
1.21569
1.27429
1.23077
1.34552
1.29756
1.20215
1.14112
1.14808
1.11016
1.10572
1.11348
1.17328
1.15689
1.26172
1.34918
1.37298
1.34057
1.28947
1.26145
1.35092
1.40247
1.31677
1.26171
1.39035
1.2988
1.30613
1.31239
1.22022
1.34694
1.37466
1.38752
1.40311
1.37422
1.42963
1.47027
1.44849
1.43484
1.42771
1.34427
1.26309
1.29711
1.33355
1.27
1.42956
1.33348
1.18701
1.24033
1.389
1.29453
1.17282
1.32012
1.51612
1.49648
1.36922
1.38122
1.36515
1.15232
1.1645
1.1606
1.15909
1.16521
1.16876
1.17079
1.17563
1.1769
1.16815
1.16121
1.16335
1.15794
1.15298
1.15444
1.15582
1.15649
1.15746
1.15667
1.15577
1.15471
1.155
1.15662
1.15909
1.16244
1.16369
1.16322
1.16274
1.16394
1.16506
1.16394
1.15842
1.15371
1.15534
1.15779
1.15402
1.1486
1.14791
1.1476
1.14645
1.14664
1.14922
1.15727
1.15975
1.15994
1.16253
1.16423
1.1677
1.16677
1.16224
1.15619
1.15268
1.15146
1.15109
1.14528
1.13707
1.1334
1.13178
1.1302
1.12974
1.12928
1.12888
1.12833
1.1259
1.12541
1.12413
1.12553
1.12844
1.13432
1.13848
1.14068
1.14925
1.1529
1.14303
1.14267
1.13769
1.13132
1.13224
1.13514
1.12729
1.11678
1.11882
1.11389
1.12124
1.11938
1.13469
1.13747
1.12955
1.12768
1.13584
1.13511
1.14915
1.15115
1.14598
1.15728
1.1534
1.15394
1.16733
1.15438
1.16057
1.15732
1.15479
1.15315
1.133
1.16284
1.15455
1.14919
1.16619
1.13779
1.15828
1.16422
1.16304
1.15444
1.17481
1.17878
1.16639
1.16958
1.18664
1.18103
1.15189
1.17124
1.20865
1.15947
1.11647
1.19475
1.28111
1.22858
1.32956
1.33768
1.21892
1.18029
1.18643
1.12909
1.11286
1.1228
1.18652
1.22759
1.33022
1.40768
1.36284
1.33065
1.31892
1.32624
1.42775
1.43413
1.31182
1.28804
1.43659
1.34529
1.33208
1.31655
1.21005
1.37379
1.36318
1.39247
1.42985
1.36604
1.36308
1.43606
1.45437
1.46213
1.465
1.36609
1.28835
1.35048
1.33444
1.29369
1.46851
1.30382
1.18172
1.25379
1.39112
1.29173
1.19495
1.33749
1.52812
1.49793
1.36266
1.3839
1.37612
1.14926
1.16105
1.16395
1.16785
1.16955
1.16945
1.16441
1.16223
1.16
1.16438
1.16798
1.168
1.16243
1.15897
1.1578
1.15547
1.15505
1.15468
1.15435
1.15469
1.15525
1.15631
1.15512
1.15312
1.15171
1.15197
1.15375
1.15475
1.1559
1.15829
1.16297
1.16671
1.16237
1.15227
1.1468
1.1476
1.1466
1.1431
1.14223
1.14138
1.14116
1.14528
1.14926
1.15307
1.15237
1.15176
1.15337
1.159
1.16437
1.16413
1.15949
1.15512
1.14964
1.14594
1.14361
1.13825
1.1334
1.12898
1.12584
1.12438
1.12298
1.1219
1.1209
1.12191
1.12132
1.125
1.13047
1.13591
1.14398
1.15295
1.1507
1.14941
1.15138
1.13947
1.13299
1.12513
1.12196
1.12507
1.12726
1.12253
1.10808
1.11985
1.11332
1.11338
1.11896
1.13711
1.14343
1.13495
1.12959
1.14121
1.14127
1.14004
1.1397
1.14734
1.13376
1.14948