/*--------------------------------*- C++ -*----------------------------------*\
| =========                 |                                                 |
| \\      /  F ield         | OpenFOAM: The Open Source CFD Toolbox           |
|  \\    /   O peration     | Version:  dev                                   |
|   \\  /    A nd           | Web:      http://www.openfoam.org               |
|    \\/     M anipulation  |                                                 |
\*---------------------------------------------------------------------------*/
FoamFile
{
    version     2.0;
    format      ascii;
    class       volScalarField;
    object      T;
    location    "9.146";
}
// * * * * * * * * * * * * * * * * * * * * * * * * * * * * * * * * * * * * * //

dimensions      [0 0 0 1 0 0 0];

internalField   nonuniform List<scalar> 
12225
(
294.133
294.719
295.114
295.304
295.625
295.692
296.039
296.011
296.459
296.416
296.839
296.801
297.24
297.316
297.572
297.904
297.771
297.603
294.238
295.181
295.537
295.579
295.961
295.79
296.434
295.922
296.744
296.346
296.989
296.575
297.108
297.351
297.486
298.105
297.137
297.715
294.361
295.247
295.665
295.464
295.987
295.693
296.354
295.99
296.4
296.545
296.849
296.769
296.572
297.416
297.542
298.105
297.034
299.009
294.397
295.207
295.595
295.628
295.685
295.98
296.154
296.303
296.089
296.877
296.928
297.104
296.614
297.57
297.277
298.415
297.15
297.695
294.311
295.421
295.501
295.98
295.501
296.081
296.232
296.507
296.149
296.984
296.953
297.108
296.921
297.755
297.381
298.02
296.872
297.515
294.263
295.662
295.467
295.88
295.559
296.175
296.249
296.489
296.485
297.089
296.704
296.893
297.179
297.736
297.519
297.987
296.812
298.141
294.309
295.508
295.374
295.855
295.788
296.167
296.229
296.658
296.76
296.889
296.477
296.751
297.406
297.88
297.505
297.561
297.295
297.744
294.499
295.358
295.443
295.916
295.765
296.21
296.118
296.737
296.507
296.931
296.757
297.024
297.264
297.63
297.494
297.421
297.472
297.744
294.569
295.319
295.845
295.894
296.057
296.149
296.218
296.471
296.588
297.011
297.219
297.19
297.265
297.615
297.629
297.561
297.622
298.073
294.562
295.468
295.995
295.875
296.384
296.191
296.522
296.474
296.94
297.099
297.442
297.149
297.261
297.459
297.627
297.56
297.634
297.991
294.495
295.867
295.898
296.099
296.393
296.441
296.407
296.539
296.903
297.161
297.158
297.114
297.243
297.427
297.493
297.558
297.684
298.084
294.558
296.071
295.845
296.263
296.303
296.584
296.395
296.616
296.772
297.159
297.19
297.299
297.356
297.531
297.655
297.865
298.055
298.289
294.873
296.158
296.081
296.444
296.507
296.734
296.738
296.955
297.129
297.406
297.528
297.629
297.768
297.925
298.082
298.261
298.442
298.646
295.342
296.399
296.534
296.756
296.909
297.039
297.204
297.34
297.564
297.731
297.927
298.05
298.244
298.37
298.584
298.719
298.925
299.053
295.719
296.63
296.907
297.071
297.253
297.405
297.593
297.735
297.953
298.116
298.295
298.434
298.632
298.767
298.994
299.128
299.383
299.54
296.155
297.016
297.324
297.496
297.68
297.845
297.995
298.171
298.378
298.574
298.736
298.892
299.054
299.219
299.418
299.601
299.846
300.026
296.595
297.474
297.8
297.981
298.174
298.348
298.526
298.719
298.92
299.104
299.239
299.366
299.503
299.707
299.901
300.077
300.249
300.464
297.135
297.973
298.298
298.497
298.665
298.825
298.982
299.16
299.384
299.565
299.689
299.776
299.89
300.148
300.334
300.377
300.568
300.732
297.608
298.402
298.711
298.93
299.129
299.307
299.421
299.589
299.79
299.935
300.034
300.07
300.134
300.496
300.653
300.503
300.653
300.757
298.105
298.799
299.05
299.268
299.469
299.6
299.748
299.961
300.113
300.13
300.11
300.18
300.235
300.555
300.751
300.563
300.611
300.712
298.442
299.147
299.393
299.567
299.721
299.78
299.912
300.241
300.471
300.263
300.089
300.402
300.475
300.486
300.703
300.53
300.496
300.673
298.692
299.299
299.551
299.763
299.945
299.973
300.028
300.356
300.629
300.431
300.247
300.649
300.713
300.387
300.525
300.493
300.44
300.702
298.922
299.488
299.693
299.869
300.065
300.174
300.26
300.336
300.465
300.531
300.53
300.685
300.687
300.399
300.397
300.493
300.442
300.609
299.108
299.642
299.872
299.988
300.121
300.296
300.417
300.421
300.445
300.61
300.743
300.651
300.519
300.423
300.4
300.432
300.388
300.349
299.187
299.718
299.96
300.091
300.196
300.316
300.464
300.525
300.51
300.614
300.757
300.652
300.532
300.551
300.426
300.392
300.4
300.263
299.327
299.799
299.993
300.14
300.288
300.393
300.485
300.595
300.636
300.641
300.662
300.663
300.631
300.562
300.442
300.342
300.222
300.128
299.343
299.825
300.03
300.173
300.312
300.444
300.528
300.595
300.649
300.686
300.67
300.627
300.549
300.454
300.338
300.2
300.058
299.911
299.382
299.84
300.026
300.166
300.314
300.451
300.532
300.592
300.607
300.603
300.539
300.452
300.311
300.158
299.97
299.788
299.596
299.411
299.379
299.828
300.049
300.195
300.339
300.451
300.506
300.525
300.488
300.419
300.308
300.185
300.035
299.902
299.737
299.617
299.451
299.349
299.398
299.686
299.92
300.092
300.234
300.343
300.423
300.485
300.53
300.566
300.591
300.612
300.625
300.637
300.639
300.649
300.647
300.659
298.343
290.253
289.888
289.696
289.7
290.116
291.002
292.043
293.002
293.837
294.467
295.023
295.49
295.807
296.06
296.225
296.275
296.365
296.749
297.321
297.671
297.764
297.585
297.237
297.112
296.803
296.669
296.561
296.308
296.163
296.004
295.903
294.981
295.617
299.237
301.885
302.607
302.422
301.387
300.422
299.703
298.851
297.965
297.099
296.337
295.684
295.154
294.696
294.287
294.007
293.876
293.801
293.709
293.68
293.87
294.42
295.683
298.156
301.044
302.313
301.969
301.041
300.336
298.904
297.744
297.853
297.814
296.326
296.8
296.051
295.698
300.442
301.59
294.825
293.136
291.653
290.889
289.948
289.32
288.648
288.066
287.558
286.991
286.596
286.049
285.672
285.209
284.829
284.423
284.005
283.632
283.226
282.948
282.759
282.517
282.225
281.962
282.009
281.509
281.37
281.242
280.87
280.638
280.438
280.571
280.889
281.512
282.034
282.119
281.475
280.535
280.352
280.865
280.312
278.908
277.078
274.927
273.532
272.075
269.496
265.141
263.264
267.398
269.979
265.057
260.453
259.58
265.105
273.092
276.938
276.851
276.632
277.135
278.714
280.619
280.257
275.199
274.02
278.528
277.608
276.282
278.629
274.905
272.378
271.392
270.596
271.048
271.028
268.982
266
264.107
262.15
260.784
256.17
258.027
256.981
256.947
256.014
256.886
256.781
256.029
255.385
254.265
253.277
252.548
252.489
252.953
253.557
252.137
254.376
254.948
256.054
258.697
261.001
263.467
259.612
258.514
263.137
269.37
272.524
299.692
288.477
284.525
284.114
285.297
288.344
292.134
295.503
297.799
299.437
300.405
301.178
301.917
302.503
302.987
303.236
303.019
302.53
302.902
303.29
303.296
303.469
303.379
303.014
303.113
302.442
301.945
302.028
300.818
300.374
299.482
298.405
298.215
296.476
295.29
295.142
292.648
289.557
292.822
300.258
301.801
297.693
294.311
292.632
291.109
289.966
289.786
289.966
289.652
289.426
290.027
291.162
291.823
291.717
290.919
289.889
288.545
287.88
288.667
290.455
290.334
294.21
295.991
288.499
285.569
287.797
293.785
294.403
294.149
290.762
290.175
289.403
287.499
285.833
285.383
284.592
284.507
284.124
284.079
283.856
283.714
283.534
283.28
283.302
282.705
282.931
282.208
282.475
281.535
281.246
280.736
279.918
279.469
279.382
279.42
278.815
277.872
279.843
278.382
276.973
277.11
276.552
276.078
275.045
274.184
274.21
274.658
276.247
278.205
278.584
276.647
274.711
274.934
273.754
270.6
269.618
267.295
262.594
261.421
266.402
260.32
246.032
242.152
248.687
246.138
237.172
231.269
233.511
244.486
257.423
263.843
266.505
267.434
271.039
272.593
268.535
265.696
270.959
280.027
270.996
264.146
266.876
261.818
260.435
261.924
267.854
263.275
261.357
258.364
252.067
246.864
242.523
239.909
233.144
234.105
232.542
232.406
230.724
232.843
234.934
234.975
234.337
232.593
230.337
229.315
228.35
228.274
227.504
225.356
226.052
224.502
224.704
227.946
233.299
236.813
224.777
220.405
227.583
242.434
249.718
302.299
293.194
287.381
285.348
288.629
295.184
300.184
303.225
304.394
304.741
304.501
304.317
304.403
304.608
304.913
304.791
304.721
304.346
304.048
303.43
301.841
301.535
301.339
301.648
302.375
301.64
301.96
302.158
301.406
301.537
301.113
300.71
300.101
299.509
299.917
299.269
299.059
297.585
293.104
291.587
293.043
294.104
295.839
297.451
296.69
294.632
294.062
295.612
296.126
294.801
294.115
295.151
296.093
296.127
296.64
296.082
295.566
295.109
292.269
290.536
288.077
287.839
285.243
288.91
290.177
290.791
293.155
290.444
289.266
288.311
287.747
287.097
287.082
287.352
287.863
288.292
288.965
289.482
290.077
290.389
290.684
290.703
290.823
290.975
290.556
291.331
290.532
291.988
291.071
291.448
290.539
289.721
289.056
289.089
289.233
288.933
286.41
289.095
288.903
285.787
285.432
284.464
283.958
283.872
281.791
281.632
280.151
278.168
278.087
278.351
277.893
278.7
277.168
272.363
270.638
272.641
266.938
258.488
261.82
284.259
292.585
269.502
246.654
243.599
238.239
229.552
231.622
237.185
243.311
251.007
259.162
263.012
262.882
269.336
270.782
261.627
261.317
271.548
283.153
271.374
255.735
274.293
258.18
261.325
265.075
279.503
269.222
262.818
257.341
248.509
241.194
235.691
232.199
239.287
231.631
227.312
225.999
226.186
223.498
221.366
223.594
225.967
225.412
222.938
225.081
227.556
228.586
225.907
231.85
224.54
216.683
213.172
210.47
216.189
220.282
207.811
206.249
213.476
229.943
234.936
303.252
295.596
291.203
292.275
297.501
302.355
304.414
304.333
303.084
302.148
301.635
302.03
303.208
304.264
304.604
303.823
302.407
301.158
298.444
296.595
295.605
294.954
294.947
293.985
295.127
296.094
294.707
295.005
295.805
294.257
292.391
291.649
291.229
291.044
292.047
293.552
295.792
297.699
297.162
296.614
295.395
293.862
292.652
290.129
289.325
290.878
291.993
293.283
293.983
293.344
292.679
293.531
294.5
293.399
292.295
294.082
296.448
296.564
294.214
288.109
288.111
295.249
290.722
288.724
290.393
291.818
290.228
288.343
287.781
287.55
288.271
288.979
290.565
290.965
292.145
292.191
293.269
292.808
293.423
292.459
293.042
291.953
292.625
291.589
291.962
291.354
291.603
292.45
292.864
293.278
292.83
292.944
293.408
293.816
292.814
293.948
293.234
293.137
294.239
293.212
292.22
291.363
288.928
290.166
288.718
288.424
288.384
286.199
283.974
278.313
274.345
280.886
278.096
267.342
271.449
286.046
274.58
256.36
263.742
290.836
311.057
298.437
266.819
249.918
238.925
231.926
238.149
244.464
247.302
251.924
259.94
259.961
258.133
269.57
272.21
266.482
262.448
263.481
282.168
278.924
253.921
269.202
264.074
268.595
265.817
273.73
270.722
265.407
257.465
247.61
239.976
237.297
234.961
252.15
243.106
237.245
229.769
229.899
228.24
222.033
218.272
220.216
221.172
218.997
224.476
233.96
238.941
238.572
257.577
241.837
223.078
216.754
207.355
207.411
208.166
199.913
206.8
217.211
226.063
225.81
304.462
299.239
296.98
299.418
302.715
303.877
303.357
301.992
301.371
302.272
303.958
305.964
307.604
308.373
306.64
303.306
299.21
295.717
292.887
290.69
289.713
287.848
288
288.931
289.163
290.607
291.407
290.483
289.632
289.278
288.814
287.572
285.535
285.725
285.353
284.625
288.455
291.336
293.112
295.335
294.685
294.029
293.64
291.576
291.821
293.888
294.851
295.219
293.212
292.413
293.986
295.383
294.981
293.258
292.057
292.169
292.92
294.481
293.71
289.378
292.863
295.158
288.25
288.228
289.652
289.338
288.089
288.175
289.406
291.177
293.375
294.525
295.219
294.631
294.93
293.9
293.734
291.832
291.384
289.513
289.641
288.307
288.922
288.149
288.726
287.841
288.296
288.501
289.36
289.442
289.841
290.897
292.404
293.283
292.309
293.004
292.763
294.579
294.718
296.08
295.627
296.526
294.439
295.106
295.418
294.047
294.489
291.815
291.457
287.608
277.204
284.503
284.049
266.657
267.837
290.146
291.834
267.058
266.177
282.731
298.827
306.251
283.602
261.885
245.746
237.781
245.826
251.256
251.903
256.031
259.59
257.166
262.153
269.456
268.564
267.674
266.92
258.785
288.89
284.662
278.687
257.035
270.275
278.005
269.794
271.274
268.028
263.934
258.782
246.385
241.898
240.427
232.177
247.748
244.926
240.409
239.894
243.069
237.233
230.41
221.638
219.693
220.787
216.123
219.252
233.317
245.287
250.08
265.294
260.634
234.71
226.318
215.019
208.087
201.711
196.649
208.439
218.893
221.997
221.565
305.256
302.283
301.654
303.318
303.79
303.088
302.403
301.755
302.782
304.714
306.134
306.518
305.825
304.217
299.832
293.711
290.261
289.274
289.303
287.718
286.926
286.585
285.95
286.494
286.068
285.712
286.766
286.588
286.004
286.521
286.585
286.048
286.024
284.527
282.746
282.825
282.962
285.539
289.828
292.281
294.413
296.185
297.297
295.532
296.226
295.068
293.525
295.173
292.685
292.976
296.55
296.098
290.829
285.017
282.76
283.098
283.64
285.184
286.381
286.46
290.466
290.282
288.175
290.198
289.891
289.54
290.112
292.303
294.441
296.36
296.716
295.211
293.255
291.55
290.418
288.971
287.648
286.263
285.543
285.077
285.224
284.948
285.248
285.199
285.452
285.168
285.129
285.243
285.82
286.152
286.634
287.146
288.097
289.649
291.367
290.777
290.142
292.136
292.673
293.175
294.291
296.059
296.148
294.399
296.94
296.084
297.204
296.846
294.077
296.004
286.688
286.304
291.482
278.897
267.322
274.118
284.715
274.855
274.815
282.324
288.144
299.787
293.981
275.582
253.303
245.08
252.863
255.962
254.041
254.488
254.297
256.182
267.441
270.076
268.432
266.596
264.523
270.182
286.814
286.779
284.348
263.508
272.807
279.792
272.178
275.676
268.623
259.742
250.355
248.173
254.089
249.459
232.473
247.796
251.534
241.594
239.216
250.697
245.788
239.432
229.742
224.346
226.447
220.059
215.426
225.442
240.528
246.584
245.099
260.809
243.009
234.446
226.118
215.537
201.511
195.634
208.601
217.293
223.397
221.706
305.575
304.097
304.022
303.707
302.626
301.991
302.037
301.629
301.97
302.608
303.209
303.52
302.72
299.872
295.711
292.155
293.275
296.396
298.917
298.952
296.47
294.746
293.35
292.592
293.005
292.055
290.282
290.684
291.915
290.965
289.893
288.108
285.569
284.845
284.261
283.234
283.255
282.694
283.446
287.498
288.387
289.939
292.609
292.34
295.25
293.579
295.009
294.524
290.337
294.932
296.914
290.523
285.262
283.884
285.313
286.216
285.608
285.31
285.302
286.673
289.427
289.791
290.697
291.677
291.283
292.524
294.384
296.297
296.334
295.188
292.196
289.375
287.255
286.798
286.379
286.139
285.739
286.148
286.64
288.051
289.078
290.073
290.473
290.561
290.378
290.006
289.339
288.616
288.646
288.71
289.405
288.739
288.519
290.284
291.603
289.044
292.073
292.322
293.89
293.52
293.612
294.203
297.807
294.286
294.769
295.224
295.276
299.032
293.957
295.958
296.668
292.163
292.887
290.097
280.156
277.504
282.477
281.778
280.93
284.116
289.808
296.943
296.713
282.539
257.735
251.775
257.675
256.73
253.248
251.922
255.759
264.584
266.022
263.127
268.047
270.161
270.379
292.216
280.982
286.339
283.628
265.881
272.526
279.939
275.658
279.962
270.058
262.028
251.878
256.039
262.041
252.348
244.79
248.171
250.444
247.652
238.516
247.742
247.022
244.839
240.116
231.523
232.801
231.256
220.566
221.238
234.103
237.364
230.987
251.959
246.415
238.078
235.231
225.557
204.767
196.05
208.738
217.395
227.739
222.033
305.462
304.455
303.627
302.266
301.664
301.652
301.55
300.635
301.003
301.881
302.388
301.946
299.39
294.696
292.035
294.098
299.403
302.564
301.139
298.749
297.202
296.62
296.669
296.637
296.434
296.487
296.064
294.703
294.189
293.805
292.961
291.516
288.239
286.158
287.641
288.564
289.261
290.616
290.169
289.74
291.16
292.682
291.915
292.448
291.563
291.483
293.002
289.526
294.219
297.243
291.747
289.404
290.394
290.99
293.052
289.753
284.648
285.276
286.452
287.611
289.511
290.071
290.801
291.73
292.299
293.807
295.459
295.985
294.445
291.729
288.896
287.515
287.307
288.82
290.136
291.322
291.359
291.128
290.267
290.087
289.928
290.568
291.279
291.848
292.126
291.881
291.329
290.019
289.683
288.999
290.124
290.891
290.661
292.706
293.346
293.625
292.14
293.299
294.591
295.156
296.397
294.238
297.24
297.61
297.907
298.493
295.192
301.57
296.645
292.184
299.284
298.805
291.897
294.786
292.044
283.736
281.764
281.989
281.103
282.656
290.311
299.296
297.031
282.507
258.656
257.117
261.62
256.646
254.015
255.194
265.23
275.472
292.701
278.685
265.532
270.543
272.701
281.955
276.967
277.419
286.434
266.311
277.253
284.445
279.143
280.413
269.619
260.257
253.708
256.272
261.355
258.561
259.823
251.605
248.377
251.938
242.712
246.518
245.032
241.778
243.726
238.048
235.28
239.513
230.38
223.738
233.964
231.491
226.722
248.628
249.659
239.466
240.769
235.595
210.089
197.606
208.568
219.569
230.273
221.098
305.055
303.931
302.5
301.897
301.801
301.165
300.661
300.363
300.545
300.155
299.205
297.06
293.08
290.242
291.671
295.882
298.517
298.224
296.128
295.019
295.78
297.217
297.611
297.519
297.339
296.699
296.917
297.566
297.575
297.554
297.298
295.277
292.114
289.504
287.935
287.218
287.05
287.156
288.864
289.843
289.288
290.102
290.656
290.516
291.034
291.534
290.198
294.305
297.541
290.702
287.288
291.441
294.001
291.894
292.503
289.695
286.632
288.584
288.852
289.094
290.689
291.692
291.385
292.285
293.815
293.436
292.724
291.306
288.463
285.478
283.791
284.18
285.983
288.764
291.34
293.113
293.388
292.888
291.497
289.951
288.114
287.271
287.447
288.566
290.497
291.636
292.444
290.901
289.423
287.506
286.512
288.456
289.845
290.37
291.609
295.049
294.596
294.335
296.661
296.371
296.777
297.146
297.155
297.68
296.995
300.791
295.005
299.578
302.7
295.922
297.637
303.821
295.25
293.846
298.11
295.874
293.79
292.467
287.105
279.397
282.454
297.803
297.642
279.857
257.67
261.359
264.592
257.295
254.706
263.263
272.642
271.14
310.449
301.364
284.107
283.846
273.251
289.325
274.899
268.656
280.657
271.881
287.663
288.928
283.265
279.67
269.881
259.044
247.61
260.486
266.598
271.277
255.903
245.735
251.839
257.735
250.554
247.262
243.884
239.509
243.972
243.352
238.223
244.073
240.627
230.859
240.929
232.872
226.082
249.065
252.536
239.353
245.566
245.921
217.221
200.764
209.586
223.242
231.319
219.972
304.553
303.275
302.082
301.991
300.996
299.713
299.376
299.198
298.867
298.698
298.032
294.998
291.407
290.341
290.568
290.368
289.662
290.008
290.773
292.105
293.437
294.21
294.424
294.186
294.237
294.441
294.627
295.229
296.358
297.255
297.797
298.05
297.049
294.34
292.058
290.429
287.636
286.62
288.539
290.423
292.49
292.98
291.686
291.406
290.8
291.279
294.84
295.784
288.711
285.417
290.544
295.699
292.671
288.562
292.154
292.492
290.897
292.142
292.052
293.038
292.731
294.29
295.018
294.776
296.238
296.078
294.874
293.361
292.146
290.947
290.946
291.918
292.889
293.382
292.931
292.503
292.688
293.838
295.067
296.075
296.955
297.615
297.629
296.725
297.297
298.035
300.301
301.136
298.818
294.948
291.006
288.627
289.619
289.729
292.794
291.405
294.413
294.445
294.703
298.428
297.317
298.793
298.998
300.986
298.109
302.826
300.167
298.351
300.216
297.228
296.579
305.846
299.933
293.017
297.748
300.037
299.821
303.86
302.228
289.103
283.975
298.5
302.585
281.091
258.412
265.412
267.761
258.898
254.585
267.482
270.668
267.745
312.368
298.992
293.031
289.471
266.899
292.105
261.063
250.569
265.144
281.306
290.085
285.569
282.098
278.206
270.993
269.746
262.898
263.012
263.005
259.942
245.207
238.382
252.414
256.309
249.503
245.853
244.156
240.18
242.306
245.532
239.277
243.792
245.806
235.911
248.541
237.968
226.875
249.711
254.754
238.286
252.369
258.51
225.542
204.649
211.344
226.941
232.215
220.044
304.08
302.917
302.192
301.348
299.437
298.008
298.283
299.35
299.847
299.527
297.179
292.844
289.922
287.713
285.824
285.832
287.061
289.64
291.564
292.824
293.901
294.694
294.541
293.706
292.526
291.597
291.735
292.862
294.486
295.914
296.526
296.379
295.915
295.131
294.341
293.135
291.315
290.324
290.376
291.315
292.278
292.244
291.875
291.518
292.769
295.729
294.877
289.46
286.583
289.888
293.867
294.83
291.165
288.141
290.108
290.959
291.583
293.009
292.15
295.071
294.951
295.151
297.418
296.808
297.058
297.219
296.468
295.094
294.195
293.656
293.477
293.527
294.059
294.621
295.268
296.294
297.285
297.378
296.319
296.128
298.675
301.387
304.226
305.006
304.894
303.471
302.188
303.653
305.567
301.892
298.516
293.913
292.643
292.085
291.692
293.903
293.683
296.757
296.568
295.982
298.389
298.588
298.018
302.089
300.031
299.988
301.249
302.291
304.309
303.057
298.013
306.105
305.124
296.399
298.402
302.599
304.637
310.786
312.387
297.484
287.238
298.968
308.633
285.408
260.521
268.782
270.011
260.879
255.109
264.105
263.383
278.859
315.367
297.312
286.931
287.709
275.47
288.603
248.898
246.093
262.533
287.827
281.683
279.668
276.556
272.707
261.026
263.657
269.345
263.349
262.581
256.739
236.659
236.908
252.143
252.765
247.777
244.181
244.928
239.432
241.371
252.385
246.421
246.015
247.734
237.014
252.828
242.13
228.561
252.23
257.523
237.587
258.736
272.653
234.813
209.235
213.517
230.525
233.82
222.173
303.662
302.703
301.802
299.931
298.094
297.633
299.203
300.132
300.149
300.987
299.879
296.281
293.245
291.619
291.44
292.206
292.649
294.29
295.865
297.649
298.925
299.545
298.818
297.26
295.145
293.284
292.326
292.732
294.17
295.472
295.845
295.143
293.817
292.419
291.947
292.142
292.006
291.848
292.05
292.177
291.821
291.193
291.469
293.325
295.123
293.844
290.417
288.993
291.022
293.669
293.308
292.457
293.043
293.354
293.558
293.176
293.097
295.471
294.628
294.67
295.4
295.217
295.989
295.886
295.918
295.718
295.303
294.461
293.892
293.428
292.878
292.236
291.454
290.486
289.462
288.733
288.782
290.036
293.006
297.296
299.905
298.508
297.211
297.668
298.263
297.225
296.779
296.197
301.847
302.303
300.04
295.644
293.458
294.358
291.407
293.457
295.449
293.7
299.006
297.859
298.278
302.909
298.931
302.228
303.844
300.846
303.97
299.932
297.978
304.873
298.115
300.827
307.317
301.761
299.811
300.712
301.925
306.101
313.866
306.643
292.05
296.825
312.373
291.441
264.495
271.826
272.518
262.563
257.88
260.988
263.594
297.297
315.936
298.541
286.428
289.9
286.394
288.39
243.262
254.747
260.873
274.235
268.346
273.829
266.266
260.756
256.155
260.814
262.472
266.366
262.463
256.222
231.187
238.049
254.225
247.279
247.389
238.581
241.562
238.031
241.17
255.232
254.912
251.14
249.832
237.098
255.26
245.227
230.131
255.571
259.742
238.109
262.262
285.44
243.768
213.367
215.869
234.217
236.056
225.994
303.206
302.258
301.02
299.744
298.783
298.535
300.781
301.637
299.789
300.683
302.176
300.097
297.05
295.387
294.667
294.731
294.986
296.617
298.07
299.152
298.918
298.521
298.042
297.407
296.252
294.871
293.275
292.256
292.329
293.486
294.678
294.983
294.513
293.468
292.962
293.584
293.564
292.772
292.249
291.83
291.864
292.411
293.838
295.508
294.582
290.812
288.92
290.076
292.93
295.279
293.659
290.437
291.062
293.222
293.445
294.608
294.074
293.639
294.632
293.685
292.427
293.138
294.041
293.981
294.6
294.402
294.128
293.906
293.556
293.411
293.489
293.562
293.317
292.935
292.034
290.674
289.529
289.755
290.169
291.873
295.367
299.582
300.928
300.308
299.492
294.015
292.826
293.486
298.451
302.808
301.073
299.314
294.343
293.31
294.768
291.492
296.761
297.907
296.222
301.305
295.63
301.995
299.961
297.855
306.304
298.252
303.964
311.065
301.691
308.432
306.542
299.908
304.176
305.809
306.288
303.087
300.583
301.075
309.905
310.251
294.159
293.888
315.077
300.235
269.472
273.678
275.4
263.508
262.688
262.923
276.188
308.682
317.921
305.62
298.495
293.856
292.93
290.033
243.986
257.715
253.568
263.682
265.466
263.953
257.261
261.986
260.906
261.277
256.367
258.626
255.841
251.344
235.435
233.393
246.847
234.79
240.354
229.06
235.327
238.435
239.546
247.526
257.02
257.722
252.688
237.314
256.33
246.444
231.409
259.678
262.789
239.521
261.369
292.959
251.481
217.802
218.953
238.01
239.059
231.289
302.731
301.808
300.705
300.005
299.516
298.664
298.354
296.975
295.178
298.143
302.057
301.35
298.346
297.158
296.638
296.531
296.063
295.784
295.478
294.985
294.493
294.818
295.1
295.325
295.421
295.391
294.659
293.694
292.531
291.681
291.856
293.088
294.177
294.04
292.879
292.655
293.199
292.97
292.823
293.262
294.123
295.277
294.736
293.02
292.099
289.74
288.155
288.851
291.57
294.709
295.014
292.579
292.34
294.258
292.868
293.106
295.417
293.907
293.45
294.64
294.005
294.62
295.862
295.445
295.256
295.112
294.522
294.019
293.378
292.838
292.621
292.513
293.381
293.722
293.017
292.14
290.246
291.163
293.241
295.771
297.39
297.857
298.539
300.026
303.985
301.622
297.184
300.172
301.253
302.93
301.549
298.25
296.342
291.888
294.189
295.54
295.149
299.233
298.238
301.561
301.932
302.038
307.777
297.224
306.029
303.963
297.398
307.591
302.513
300.042
306.949
305.735
302.403
302.08
307.473
308.416
303.756
300.313
306.68
312.139
297.192
293.523
316.481
309.996
276.924
276.229
278.788
263.884
268.979
269.483
293.956
312.712
317.002
309.85
311.422
297.714
298.093
309.158
266.24
251.402
251.795
263.885
268.53
266.564
260.562
262.275
262.979
263.031
258.042
256.504
253.18
239.461
232.942
225.601
230.758
226.206
236.62
223.818
229.572
244.397
243.343
238.531
251.522
265.466
259.341
240.831
258.751
245.263
233.563
264.975
266.056
240.778
259.44
294.857
256.803
221.13
221.27
241.698
242.4
238.011
302.06
300.704
299.645
298.945
298.622
298.771
298.673
298.883
298.1
294.679
297.31
301.253
298.214
295.565
294.942
295.044
294.325
293.981
294.627
295.96
297.329
298.173
298.488
298.548
298.198
297.574
296.707
296.229
295.834
294.997
293.422
291.97
291.933
293.428
294.137
293.427
293.524
294.414
295.124
295.921
296.484
296.886
296.306
292.419
290.035
289.472
287.932
287.734
290.009
293.041
294.157
292.692
292.89
296.351
296.842
294.575
295.71
296.614
295.089
295.611
296.161
295.896
296.356
295.843
295.392
295.023
294.685
294.415
293.881
292.933
292.06
291.223
291.86
292.558
292.917
294.05
291.474
289.153
291.822
297.665
302.569
302.188
299.432
297.721
297.371
298.946
296.379
299.484
305.634
300.59
302.818
298.109
296.989
296.573
294.639
298.009
301.718
300.947
302.913
298.863
304.071
296.372
304.46
302.831
301.955
307.244
301.201
305.267
311.264
303.992
307.013
309
307.017
302.535
304.368
309.104
307.881
302.804
305.075
313.196
302.123
295.599
315.447
316.626
284.003
278.264
282.659
263.626
274.993
279.639
306.905
312.071
317.777
312.591
314.459
297.513
301.285
293.649
265.555
248.996
252.344
263.173
270.558
265.304
253.818
261.771
267.697
258.391
262.59
254.012
247.373
239.776
238.369
230.569
228.802
224.891
232.457
224.807
224.069
237.792
239.094
232.856
245.317
265.921
263.435
245.138
261.444
241.949
237.764
271.44
269.624
242.295
258.709
293.991
259.778
223.56
224.457
245.329
245.476
244.876
300.893
298.412
297.889
297.62
297.201
297.781
299.159
299.651
296.684
292.815
295.855
300.131
300.666
299.253
297.854
297.682
297.947
298.031
297.658
296.983
296.265
295.935
295.832
296.254
296.765
297.334
297.534
297.22
296.891
297.155
297.368
296.702
295.063
294.296
295.436
296.535
296.291
296.264
297.13
297.699
297.439
295.795
294.907
294.527
292.408
291.558
290.012
288.665
289.707
291.825
293.583
292.941
291.931
293.744
296.77
297.038
296.28
296.776
296.272
295.227
295.221
295.223
295.551
295.722
295.826
295.67
295.652
295.533
294.157
293.294
292.784
291.447
291.19
291.676
291.211
292.889
294.041
292.507
291.219
293.09
298.605
302.609
301.892
301.269
299.635
297.337
298.406
296.105
301.667
301.655
301.087
299.5
296.856
296.362
295.229
297.755
298.679
300.528
306.405
302.618
308.032
304.754
304.146
304.344
300.209
307.244
305.417
301.515
307.951
301.461
305.768
307.466
306.986
302.386
304.144
308.944
308.325
303.498
304.859
313.77
306.715
297.477
313.196
321.343
291.636
279.925
288.08
263.622
275.314
292.225
311.054
309.593
317.858
316.858
314.769
298.221
304.457
280.227
259.908
251.046
256.368
267.429
273.327
256.244
245.227
258.554
268.25
245.827
261.371
256.745
253.825
266.516
245.979
239.377
237.464
234.802
238.639
227.674
222.841
228.837
231.463
231.408
244.845
262.242
258.435
246.946
262.258
236.195
245.129
279.077
272.38
243.186
259.883
291.863
260.787
226.146
227.571
248.683
247.974
250.14
299.301
296.204
297.222
297.572
296.003
295.158
294.696
293.539
293.292
295.522
297.268
296.725
298.136
299.43
299.048
298.673
298.468
298.191
298.372
298.58
298.831
298.719
298.283
297.621
296.735
296.361
296.397
296.426
296.007
295.587
295.734
297.004
298.046
297.43
296.619
297.397
298.539
298.436
298.267
298.3
297.948
296.931
294.59
293.737
293.306
292.305
291.523
290.382
290.481
291.454
292.707
293.154
292.971
292.871
294.318
296.027
296.451
296.51
296.52
296.235
296.065
295.913
295.87
296.352
296.308
296.558
296.167
295.404
293.869
292.872
292.233
289.982
289.151
291.544
291.572
292.945
294.762
294.621
293.994
296.295
299.431
299.69
301.14
299.458
300.298
296.833
296.725
298.884
300.189
298.802
299.503
296.27
296.082
298.171
295.534
297.646
298.126
295.663
299.955
298.971
301.151
301.911
303.515
309.286
301.805
305.237
306.704
303.209
311.949
306.4
306.257
307.316
309.863
304.834
304.824
308.759
308.25
303.864
305.437
313.751
308.431
298.44
311.723
323.552
299.838
281.024
292.813
267.824
270.079
295.57
306.893
303.836
316.571
319.134
315.139
297.886
290.585
266.479
252.102
255.621
261.71
266.501
266.041
244.49
242.286
262.031
268.122
239.319
257.792
257.279
255.861
277.074
243.081
243.33
238.681
235.132
247.353
242.616
229.289
228.502
229.259
229.754
245.489
260.415
250.317
248.753
261.389
230.939
253.644
285.106
273.44
244.489
262.594
289.554
260.554
226.657
229.204
252.314
250.013
252.373
298.728
295.712
294.961
293.998
293.635
293.754
295.1
295.704
296.316
295.22
294.326
294.315
295.722
296.62
296.924
297.508
297.592
297.647
297.685
297.559
297.383
297.07
297.345
297.862
298.256
298.193
297.673
297.341
296.975
296.258
294.911
293.76
294.661
297.067
298.288
297.866
297.912
298.576
298.539
298.511
298.272
296.844
295.48
294.232
294.154
293.984
293.19
291.369
289.814
289.79
290.812
291.69
292.746
293.276
293.597
294.745
295.644
296.429
296.911
296.943
297.061
297.128
297.187
296.916
296.966
296.069
294.645
293.278
291.057
288.787
289.248
289.284
288.775
291.908
293.698
295.876
296.88
296.574
296.148
297.553
301.992
299.364
301.449
301.739
301.105
296.442
295.06
297.83
300.197
297.577