/*--------------------------------*- C++ -*----------------------------------*\
| =========                 |                                                 |
| \\      /  F ield         | OpenFOAM: The Open Source CFD Toolbox           |
|  \\    /   O peration     | Version:  dev                                   |
|   \\  /    A nd           | Web:      http://www.openfoam.org               |
|    \\/     M anipulation  |                                                 |
\*---------------------------------------------------------------------------*/
FoamFile
{
    version     2.0;
    format      ascii;
    class       volVectorField;
    object      U;
    location    "9.146";
}
// * * * * * * * * * * * * * * * * * * * * * * * * * * * * * * * * * * * * * //

dimensions      [0 1 -1 0 0 0 0];

internalField   nonuniform List<vector> 
12225
(
(7.51421 0.494655 0)
(6.20812 0.315392 0)
(5.36044 0.171078 0)
(6.22718 0.0980867 0)
(5.65373 0.142947 0)
(7.60253 0.0862822 0)
(6.52249 0.182809 0)
(8.62128 0.0775911 0)
(7.44322 0.180272 0)
(9.50591 0.0704037 0)
(8.40962 0.179346 0)
(10.0556 0.0442539 0)
(9.86026 0.22102 0)
(9.99963 -0.0826866 0)
(12.6908 -0.0989098 0)
(8.45792 1.53343 0)
(17.741 -3.97026 0)
(6.80768 3.5799 0)
(9.92701 1.31403 0)
(11.4475 1.1622 0)
(9.71446 0.853 0)
(12.1295 0.568225 0)
(8.62738 0.492396 0)
(13.591 0.3246 0)
(8.55601 0.465073 0)
(14.9112 0.228302 0)
(9.73978 0.41848 0)
(16.033 0.0630113 0)
(11.6213 0.544797 0)
(16.5374 -0.323203 0)
(14.3844 0.852888 0)
(17.0214 -1.09029 0)
(16.6148 1.64043 0)
(18.6937 -2.26322 0)
(20.4052 0.588049 0)
(8.57636 -2.43014 0)
(9.6604 1.39562 0)
(14.1423 1.43255 0)
(11.0221 1.22161 0)
(16.5261 1.02795 0)
(10.2368 0.861693 0)
(18.2297 0.731403 0)
(10.4622 0.893863 0)
(19.1664 0.230514 0)
(12.1857 0.883739 0)
(19.8785 -0.173454 0)
(14.5082 1.12764 0)
(19.7693 -0.901358 0)
(17.3318 1.24002 0)
(20.0992 -1.27177 0)
(19.28 0.954719 0)
(21.521 -1.55975 0)
(23.2386 3.26499 0)
(18.0834 -12.2231 0)
(7.68691 1.39173 0)
(16.3231 1.65466 0)
(10.698 1.49371 0)
(19.0402 1.4913 0)
(12.043 1.34099 0)
(19.8808 0.737738 0)
(13.9993 1.54609 0)
(20.4891 0.119947 0)
(15.0167 1.44575 0)
(21.0615 -0.513606 0)
(16.9267 1.92007 0)
(20.781 -1.38297 0)
(19.1106 1.9828 0)
(20.4849 -2.05529 0)
(20.9383 2.1366 0)
(20.8747 -4.45065 0)
(23.9193 3.85377 0)
(22.327 -5.70434 0)
(7.56135 1.68122 0)
(14.7402 1.36268 0)
(11.6046 1.85259 0)
(17.5071 1.25416 0)
(14.7556 2.16958 0)
(17.7704 0.622892 0)
(16.688 2.16909 0)
(18.9916 0.284253 0)
(17.0598 2.0427 0)
(19.6366 -0.611411 0)
(18.5349 2.46839 0)
(19.8752 -1.45034 0)
(19.9923 2.79219 0)
(19.8086 -2.32202 0)
(21.5383 2.68001 0)
(19.813 -4.81083 0)
(22.9468 5.48557 0)
(23.7877 -8.46523 0)
(9.83732 2.12033 0)
(11.5332 1.32808 0)
(12.9719 2.17574 0)
(13.1411 1.15884 0)
(15.0356 2.74263 0)
(15.4459 0.456508 0)
(17.1217 2.51981 0)
(17.0547 0.431026 0)
(17.6942 2.59221 0)
(18.5196 -0.682138 0)
(19.0411 2.95114 0)
(19.0683 -1.71442 0)
(20.0477 2.78929 0)
(20.3269 -1.90528 0)
(21.5085 2.31053 0)
(21.4241 -3.63887 0)
(22.1845 2.54665 0)
(25.8528 -6.00977 0)
(11.6973 2.61899 0)
(10.518 1.34224 0)
(13.3904 3.27152 0)
(12.6184 1.12902 0)
(15.2275 3.13126 0)
(15.815 0.416544 0)
(16.2621 3.50965 0)
(17.3079 0.388741 0)
(18.1693 2.96674 0)
(18.0484 -0.801983 0)
(18.6399 3.63365 0)
(19.2768 -1.32172 0)
(20.1195 2.88332 0)
(21.0417 -1.67125 0)
(20.6154 1.77963 0)
(22.4973 -2.60922 0)
(20.7012 1.16779 0)
(21.6882 -3.84349 0)
(12.1234 2.60749 0)
(9.53483 2.05722 0)
(13.4049 3.45716 0)
(13.4702 1.31047 0)
(14.6278 3.35783 0)
(16.2153 0.735054 0)
(16.1097 3.49721 0)
(17.9916 0.612178 0)
(17.7375 3.30266 0)
(18.4172 0.123148 0)
(18.8696 3.07855 0)
(20.1748 -0.911761 0)
(19.6518 2.11216 0)
(21.1332 -0.697477 0)
(20.0785 0.693592 0)
(21.1268 -1.14685 0)
(20.393 0.192847 0)
(20.1259 -0.965422 0)
(12.171 3.15323 0)
(9.42464 1.94018 0)
(13.839 3.83707 0)
(13.5533 1.37111 0)
(15.1433 3.77615 0)
(15.5366 0.614533 0)
(16.5762 3.85156 0)
(17.3822 0.822659 0)
(17.8508 3.55862 0)
(18.4043 0.18571 0)
(19.6548 2.89193 0)
(20.2697 -0.427204 0)
(19.5639 2.26894 0)
(20.8049 -0.426479 0)
(20.1446 0.844821 0)
(20.6256 -0.660283 0)
(20.1725 0.2168 0)
(21.2142 -0.883334 0)
(11.0502 3.04209 0)
(11.3432 2.85507 0)
(14.1635 3.82625 0)
(13.8156 1.73974 0)
(16.078 3.87444 0)
(15.7188 1.4147 0)
(17.2243 3.71071 0)
(17.445 1.64444 0)
(18.7882 3.31479 0)
(18.7889 0.872969 0)
(19.5688 2.58861 0)
(19.6401 0.659535 0)
(19.8385 1.91996 0)
(20.5327 0.330008 0)
(19.8013 0.884272 0)
(20.1071 0.258512 0)
(20.1045 -0.0816174 0)
(20.0982 0.0175426 0)
(10.3639 3.68984 0)
(11.4609 2.16493 0)
(13.9638 4.418 0)
(13.9159 1.99707 0)
(15.5733 4.12977 0)
(15.8542 1.79282 0)
(16.8866 3.83585 0)
(17.2792 1.75474 0)
(18.2801 3.25787 0)
(18.5815 1.39417 0)
(18.9827 2.67688 0)
(19.2243 0.840383 0)
(19.3541 1.94621 0)
(19.7916 0.912162 0)
(19.5423 1.21586 0)
(19.7647 0.530544 0)
(19.6295 0.15089 0)
(19.607 -0.0219207 0)
(10.5604 3.67627 0)
(11.9666 3.27656 0)
(13.0856 4.17544 0)
(14.0245 2.81022 0)
(14.9102 4.09963 0)
(15.7011 2.66536 0)
(16.3636 3.76667 0)
(17.1316 2.70278 0)
(17.6593 3.28439 0)
(18.2377 2.22062 0)
(18.5873 2.80711 0)
(18.9839 1.98824 0)
(19.02 2.15281 0)
(19.3687 1.50347 0)
(19.5458 1.48821 0)
(19.6823 1.24149 0)
(19.6175 0.877601 0)
(19.4913 0.680692 0)
(10.5054 4.0398 0)
(12.0209 3.32984 0)
(13.1236 4.62176 0)
(13.8222 3.35512 0)
(14.627 4.26594 0)
(15.4449 3.24113 0)
(16.0464 3.85457 0)
(16.8038 3.12916 0)
(17.441 3.31497 0)
(17.9542 2.73714 0)
(18.3643 2.76476 0)
(18.8007 2.33793 0)
(19.0919 2.23485 0)
(19.2763 1.9487 0)
(19.4033 1.68186 0)
(19.4883 1.48515 0)
(19.5258 1.23104 0)
(19.4879 1.01396 0)
(10.2695 4.12107 0)
(11.775 4.35378 0)
(12.6402 4.6584 0)
(13.631 4.20218 0)
(14.4722 4.46211 0)
(15.2883 3.99682 0)
(16.0025 4.03887 0)
(16.6771 3.73002 0)
(17.2738 3.55699 0)
(17.7449 3.29045 0)
(18.1373 3.12432 0)
(18.4323 2.89129 0)
(18.6602 2.67173 0)
(18.8264 2.46593 0)
(18.9663 2.26007 0)
(19.0278 2.05592 0)
(19.08 1.83962 0)
(19.0999 1.6473 0)
(10.5529 4.48897 0)
(11.9647 4.91822 0)
(12.8416 4.90665 0)
(13.6987 4.65875 0)
(14.5116 4.61694 0)
(15.3432 4.45599 0)
(16.0499 4.3216 0)
(16.6936 4.12298 0)
(17.2235 3.93049 0)
(17.6239 3.74225 0)
(17.9366 3.56819 0)
(18.1936 3.37143 0)
(18.3724 3.16274 0)
(18.4922 2.92394 0)
(18.585 2.66839 0)
(18.6721 2.42186 0)
(18.7129 2.19597 0)
(18.7389 1.99762 0)
(10.1371 4.62987 0)
(11.6082 5.37816 0)
(12.6419 5.31489 0)
(13.5813 5.20331 0)
(14.3758 5.05471 0)
(15.0519 4.8504 0)
(15.6633 4.65776 0)
(16.226 4.49807 0)
(16.7139 4.34467 0)
(17.1496 4.19172 0)
(17.5072 4.0432 0)
(17.8295 3.85851 0)
(18.0743 3.64836 0)
(18.2822 3.43213 0)
(18.4009 3.21022 0)
(18.4771 2.97103 0)
(18.4942 2.75641 0)
(18.52 2.54932 0)
(10.4144 5.06735 0)
(11.4689 5.69375 0)
(12.43 5.4152 0)
(13.3532 5.34382 0)
(14.1383 5.31499 0)
(14.8029 5.24119 0)
(15.3881 5.10807 0)
(15.9154 4.91123 0)
(16.3836 4.69782 0)
(16.7956 4.48111 0)
(17.1574 4.29223 0)
(17.4705 4.10115 0)
(17.7145 3.92181 0)
(17.9 3.75293 0)
(18.0191 3.54862 0)
(18.1141 3.34244 0)
(18.1548 3.17264 0)
(18.203 2.99025 0)
(10.3047 4.98994 0)
(11.4397 5.71683 0)
(12.2841 5.5471 0)
(13.0199 5.49886 0)
(13.7322 5.45424 0)
(14.4686 5.34827 0)
(15.1655 5.17378 0)
(15.7805 4.96236 0)
(16.2889 4.75373 0)
(16.6915 4.56367 0)
(17.0175 4.39571 0)
(17.2823 4.23308 0)
(17.4845 4.07265 0)
(17.651 3.91786 0)
(17.7601 3.72731 0)
(17.8388 3.50805 0)
(17.8923 3.33482 0)
(17.93 3.16769 0)
(10.5413 4.81775 0)
(11.5202 5.65323 0)
(12.3264 5.54534 0)
(13.1185 5.37978 0)
(13.8578 5.1935 0)
(14.5703 5.01405 0)
(15.1989 4.86112 0)
(15.7523 4.74481 0)
(16.2141 4.65249 0)
(16.6042 4.53708 0)
(16.9217 4.40855 0)
(17.1975 4.26077 0)
(17.4221 4.09494 0)
(17.6063 3.95724 0)
(17.7116 3.7877 0)
(17.7724 3.5535 0)
(17.794 3.40352 0)
(17.8082 3.27268 0)
(10.3756 4.30163 0)
(11.3658 5.23761 0)
(12.1915 5.13041 0)
(13.0083 5.02167 0)
(13.7652 4.90232 0)
(14.4224 4.74457 0)
(14.9742 4.59205 0)
(15.4465 4.45135 0)
(15.8705 4.30833 0)
(16.2363 4.15132 0)
(16.5505 4.00642 0)
(16.8455 3.8569 0)
(17.0769 3.70965 0)
(17.2508 3.64391 0)
(17.3808 3.56435 0)
(17.4558 3.38823 0)
(17.4716 3.26522 0)
(17.5144 3.16544 0)
(10.3848 4.05938 0)
(11.293 4.77152 0)
(12.1424 4.5867 0)
(12.9944 4.43074 0)
(13.7583 4.3011 0)
(14.4254 4.21561 0)
(15.0064 4.15068 0)
(15.5222 4.06828 0)
(15.9651 3.97021 0)
(16.347 3.83997 0)
(16.6776 3.68699 0)
(16.9397 3.54611 0)
(17.1119 3.41527 0)
(17.2467 3.32776 0)
(17.3703 3.25886 0)
(17.424 3.12825 0)
(17.4213 2.98755 0)
(17.4347 2.86027 0)
(10.4293 3.62635 0)
(11.4968 4.09994 0)
(12.3734 3.94675 0)
(13.1212 3.8723 0)
(13.7536 3.79105 0)
(14.324 3.68821 0)
(14.8568 3.57513 0)
(15.3542 3.44559 0)
(15.79 3.32198 0)
(16.1926 3.19166 0)
(16.5353 3.08446 0)
(16.7972 3.02427 0)
(17.0016 2.97726 0)
(17.173 2.88958 0)
(17.3082 2.83688 0)
(17.4219 2.7916 0)
(17.4759 2.69738 0)
(17.5094 2.60337 0)
(10.2571 3.00455 0)
(11.2045 3.3884 0)
(12.127 3.27187 0)
(13.0612 3.22417 0)
(13.9268 3.18462 0)
(14.6579 3.12427 0)
(15.222 3.04446 0)
(15.639 2.96398 0)
(15.9918 2.86609 0)
(16.2896 2.7499 0)
(16.5256 2.65628 0)
(16.7385 2.57984 0)
(16.9736 2.50422 0)
(17.1695 2.44761 0)
(17.2995 2.36525 0)
(17.4192 2.27077 0)
(17.4963 2.21654 0)
(17.5433 2.14016 0)
(10.3162 2.43437 0)
(11.342 2.72303 0)
(12.2343 2.5716 0)
(13.0374 2.48675 0)
(13.7355 2.48265 0)
(14.3527 2.4877 0)
(14.8931 2.4912 0)
(15.3482 2.43419 0)
(15.744 2.34257 0)
(16.0795 2.25142 0)
(16.3817 2.15893 0)
(16.6576 2.04447 0)
(16.877 1.96364 0)
(17.0596 1.92661 0)
(17.2263 1.87812 0)
(17.3312 1.83756 0)
(17.4086 1.80015 0)
(17.4698 1.74152 0)
(10.5427 1.82854 0)
(11.4163 2.01585 0)
(12.2694 1.95022 0)
(13.1083 1.95183 0)
(13.8505 1.95733 0)
(14.4973 1.94147 0)
(15.0705 1.9131 0)
(15.5576 1.87966 0)
(15.9798 1.83583 0)
(16.321 1.74528 0)
(16.6205 1.65633 0)
(16.8974 1.60045 0)
(17.0941 1.53551 0)
(17.2512 1.47189 0)
(17.4003 1.43164 0)
(17.5005 1.39365 0)
(17.5688 1.35957 0)
(17.6247 1.33049 0)
(10.1853 1.43705 0)
(11.1935 1.50835 0)
(12.2208 1.3868 0)
(13.1943 1.37979 0)
(13.9963 1.38647 0)
(14.6564 1.39063 0)
(15.2174 1.38365 0)
(15.6853 1.36852 0)
(16.0937 1.34771 0)
(16.4553 1.29894 0)
(16.723 1.20591 0)
(16.9427 1.11153 0)
(17.1055 1.05087 0)
(17.2353 1.01487 0)
(17.3222 0.985579 0)
(17.3848 0.971027 0)
(17.3994 0.955345 0)
(17.4047 0.939019 0)
(9.94475 0.903133 0)
(11.3111 0.796263 0)
(12.4985 0.729086 0)
(13.4937 0.779455 0)
(14.2625 0.819026 0)
(14.8608 0.837453 0)
(15.3665 0.852534 0)
(15.7758 0.8719 0)
(16.1132 0.884926 0)
(16.3858 0.86067 0)
(16.5722 0.81194 0)
(16.6879 0.763939 0)
(16.7191 0.718291 0)
(16.7139 0.687547 0)
(16.6736 0.669397 0)
(16.6034 0.655974 0)
(16.5093 0.654027 0)
(16.4036 0.637425 0)
(10.0924 0.329701 0)
(11.5843 0.141131 0)
(12.671 0.215772 0)
(13.3975 0.343586 0)
(13.8345 0.420602 0)
(14.1003 0.470974 0)
(14.2994 0.50786 0)
(14.446 0.540755 0)
(14.5774 0.560428 0)
(14.6705 0.554444 0)
(14.7007 0.526846 0)
(14.6893 0.504836 0)
(14.6103 0.487835 0)
(14.494 0.481837 0)
(14.3576 0.475036 0)
(14.1862 0.476441 0)
(14.0172 0.473633 0)
(13.8479 0.463359 0)
(10.3266 -0.349403 0)
(11.0609 -0.478148 0)
(11.2674 -0.253876 0)
(11.2327 -0.0273038 0)
(11.1265 0.134737 0)
(11.047 0.24805 0)
(11.0229 0.317678 0)
(11.0335 0.360402 0)
(11.0742 0.379152 0)
(11.1017 0.376751 0)
(11.097 0.364052 0)
(11.0639 0.351024 0)
(10.9834 0.341224 0)
(10.894 0.333468 0)
(10.7848 0.328905 0)
(10.6508 0.321184 0)
(10.5236 0.311521 0)
(10.3714 0.299652 0)
(8.89484 -0.346381 0)
(7.21331 -0.236014 0)
(6.16537 0.0205807 0)
(5.76192 0.1437 0)
(5.75051 0.181832 0)
(5.94458 0.1871 0)
(6.21853 0.175764 0)
(6.5054 0.163971 0)
(6.77684 0.153385 0)
(7.01114 0.144209 0)
(7.19642 0.13776 0)
(7.33005 0.133676 0)
(7.41614 0.130133 0)
(7.46776 0.126978 0)
(7.48758 0.12686 0)
(7.48303 0.124306 0)
(7.46096 0.120859 0)
(7.39773 0.134341 0)
(-0.101209 0.30346 0)
(-0.401804 0.328329 0)
(-0.718787 0.330642 0)
(-0.985847 0.302655 0)
(-1.20528 0.239652 0)
(-1.35679 0.138747 0)
(-1.37988 0.00520065 1.14748e-17)
(-1.2573 -0.144498 -1.14308e-17)
(-1.01589 -0.266675 0)
(-0.654465 -0.360473 -1.13324e-17)
(-0.218984 -0.408209 0)
(0.235797 -0.448333 0)
(0.743867 -0.470055 0)
(1.26508 -0.472916 1.10776e-17)
(1.8028 -0.481111 0)
(2.37942 -0.484482 0)
(2.9917 -0.450378 -1.08519e-17)
(3.57148 -0.382274 0)
(4.06309 -0.352622 0)
(4.52781 -0.387339 0)
(5.03346 -0.395597 1.05841e-17)
(5.53841 -0.315495 0)
(5.96571 -0.198555 1.04232e-17)
(6.27715 -0.061041 0)
(6.46905 0.0528127 0)
(6.55822 0.142816 1.01664e-17)
(6.57262 0.220403 0)
(6.49201 0.305973 -1.00083e-17)
(6.30851 0.408368 0)
(6.02633 0.493242 9.8483e-18)
(5.64264 0.637906 0)
(5.07774 0.789597 0)
(4.3874 0.965259 0)
(3.53127 1.23879 0)
(2.38732 1.20891 0)
(1.20979 0.756434 -9.61866e-18)
(0.208177 0.335903 0)
(-0.668641 0.185885 1.90077e-17)
(-1.44015 0.218755 0)
(-2.03397 0.300372 -1.86223e-17)
(-2.49313 0.382555 0)
(-3.02759 0.467606 0)
(-3.65779 0.480279 1.8077e-17)
(-4.23352 0.441799 0)
(-4.7061 0.432516 1.77227e-17)
(-5.10688 0.434773 -1.75575e-17)
(-5.42315 0.413411 0)
(-5.66737 0.367321 -1.72499e-17)
(-5.81135 0.316457 -1.71024e-17)
(-5.80659 0.218665 0)
(-5.64993 0.108259 0)
(-5.25272 0.0450299 0)
(-4.7425 0.0916176 0)
(-4.29805 0.289385 0)
(-4.02142 0.608298 1.63426e-17)
(-4.11553 0.969905 0)
(-4.6821 1.3441 -1.6194e-17)
(-5.7003 1.66006 0)
(-7.08161 1.71369 0)
(-8.50422 1.44849 1.62026e-17)
(-9.60398 1.04954 0)
(-10.5608 0.805094 -1.59124e-17)
(-11.5937 0.786461 0)
(-11.9481 0.771254 0)
(-11.5655 0.492495 0)
(-11.0129 0.227339 1.5312e-17)
(-10.3295 0.327238 0)
(-8.92787 -0.0234917 0)
(-8.21164 -0.272254 1.49345e-17)
(-7.73003 -1.22704 0)
(-7.9747 -1.06178 1.46634e-17)
(-8.07453 0.358299 0)
(-9.52809 1.88699 0)
(-11.5464 2.19326 0)
(-12.8752 1.89795 -1.41149e-17)
(-14.1168 1.798 0)
(-15.0207 1.64592 0)
(-15.826 1.58791 -1.3671e-17)
(-16.4091 1.48499 -1.35483e-17)
(-16.874 1.43437 0)
(-17.1676 1.34279 -1.33088e-17)
(-17.3545 1.29216 0)
(-17.4097 1.23226 -2.61689e-17)
(-17.3556 1.18427 0)
(-17.2021 1.13535 -2.57432e-17)
(-16.9483 1.08243 0)
(-16.5936 1.03218 2.53355e-17)
(-16.1561 0.988441 0)
(-15.6746 0.97193 0)
(-15.1103 0.951172 0)
(-14.488 0.923642 -2.45491e-17)
(-13.8159 0.891878 0)
(-13.0983 0.879976 2.41733e-17)
(-12.4027 0.913885 0)
(-11.6706 0.878505 -2.38235e-17)
(-10.8336 0.863562 -2.36448e-17)
(-10.0701 0.857689 -2.34687e-17)
(-9.27855 0.818835 0)
(-8.31115 0.777853 0)
(-7.48629 0.830613 0)
(-6.74601 0.849208 0)
(-5.98756 0.830162 0)
(-5.29598 0.847377 0)
(-4.64358 0.883738 0)
(-4.12716 0.898021 0)
(-3.67994 0.893298 2.20413e-17)
(-3.32211 0.909905 2.19459e-17)
(-3.06301 0.908893 0)
(-2.77612 0.898373 0)
(-2.45274 0.885285 0)
(-2.18825 0.973826 2.13061e-17)
(-1.86766 1.03639 0)
(-1.77827 1.07301 0)
(-2.13409 1.04612 0)
(-2.43653 1.03082 0)
(-2.57191 0.977429 -2.03667e-17)
(-2.83664 0.932049 0)
(-3.1415 0.915369 0)
(-3.2618 0.868487 1.96141e-17)
(-2.82523 0.717969 -1.92997e-17)
(-2.19346 0.794281 0)
(-1.86485 1.06746 -1.85947e-17)
(-1.90855 1.24762 0)
(-2.39662 1.26792 1.88178e-17)
(-2.81599 1.14539 0)
(-3.01652 1.09482 0)
(-2.69151 1.09226 0)
(-2.21609 1.28123 0)
(-2.24986 1.398 0)
(-2.77706 1.21923 -3.70866e-17)
(-2.91847 0.954824 -3.68321e-17)
(-2.74767 0.856583 0)
(-2.60009 0.968366 0)
(-2.99997 1.08626 0)
(-3.96489 1.24246 3.62862e-17)
(-6.26312 1.58589 0)
(-9.11546 1.68804 0)
(-9.25737 0.974794 0)
(-6.5976 0.242972 3.51202e-17)
(-5.10296 0.75368 -3.4797e-17)
(-3.90208 1.59014 0)
(-6.19386 1.351 0)
(-7.97546 1.17074 -3.37669e-17)
(-8.49248 1.1086 -3.32548e-17)
(-9.5283 0.912296 0)
(-8.4687 0.90688 0)
(-7.70153 1.21315 3.24791e-17)
(-8.99847 1.24265 -3.22638e-17)
(-10.4722 0.981822 0)
(-11.0864 0.956564 0)
(-11.6532 1.10373 -3.08682e-17)
(-11.8348 0.964917 0)
(-12.9815 1.05402 0)
(-12.4355 0.833828 -2.94163e-17)
(-11.8566 1.14176 0)
(-11.8837 1.15691 -2.9145e-17)
(-12.0701 1.26139 0)
(-11.6355 1.20876 0)
(-11.1589 1.2495 0)
(-10.8383 1.28321 2.84024e-17)
(-10.4 1.34627 0)
(-9.83708 1.49738 0)
(-9.21157 1.53847 0)
(-8.67437 1.65491 0)
(-7.8187 1.61367 0)
(-6.88471 1.60315 0)
(-5.1963 1.59104 2.68012e-17)
(-4.34229 1.64604 2.66952e-17)
(-2.76674 1.51291 0)
(-0.510865 1.6431 0)
(0.774838 1.72282 0)
(2.34373 1.65752 -2.6279e-17)
(4.10604 1.65959 0)
(6.49463 1.52603 5.29098e-17)
(8.23785 1.62882 -5.30665e-17)
(9.30951 1.55299 -5.1965e-17)
(11.644 1.40939 5.14261e-17)
(14.2636 1.39685 -5.20084e-17)
(15.5668 1.49421 5.2901e-17)
(16.3104 1.38728 0)
(-0.0385879 0.681249 0)
(-0.16669 0.892554 0)
(-0.34436 0.815504 -2.31094e-17)
(-0.53369 0.620677 0)
(-0.717143 0.446229 2.28329e-17)
(-0.784738 0.179712 2.29049e-17)
(-0.674068 -0.229699 1.15017e-17)
(-0.436239 -0.665052 1.1578e-17)
(-0.0768564 -1.00909 0)
(0.318521 -1.27036 1.15625e-17)
(0.771236 -1.38653 0)
(1.19023 -1.48115 0)
(1.64999 -1.56891 -2.279e-17)
(2.12601 -1.59728 -1.13486e-17)
(2.60879 -1.65356 2.25421e-17)
(3.12805 -1.79849 2.23969e-17)
(3.73043 -1.81634 1.1122e-17)
(4.34422 -1.55668 0)
(4.92658 -1.31444 0)
(5.48796 -1.34748 0)
(6.05067 -1.41767 1.07908e-17)
(6.53494 -1.29664 0)
(6.95527 -1.05034 -3.19644e-17)
(7.30208 -0.737178 0)
(7.55688 -0.428399 0)
(7.74923 -0.224739 -1.04013e-17)
(7.88577 -0.000520894 0)
(7.97707 0.272048 1.02378e-17)
(7.99481 0.4847 2.02235e-17)
(7.93387 0.720397 -1.0034e-17)
(7.76906 1.00663 0)
(7.5309 1.33605 0)
(7.25424 1.71882 0)
(6.87144 2.08096 1.92024e-17)
(6.35234 2.48272 1.89843e-17)
(5.74967 2.82643 9.42626e-18)
(4.79331 2.77994 0)
(3.46713 2.50549 -1.8237e-17)
(2.10094 2.14701 0)
(0.843372 1.58555 1.86509e-17)
(-0.343824 1.23092 0)
(-1.45907 1.46987 0)
(-2.27328 1.64499 -1.79077e-17)
(-2.73213 1.42371 0)
(-3.07473 1.20442 -5.23799e-17)
(-3.44934 1.05623 1.72791e-17)
(-3.81692 0.871772 0)
(-4.1331 0.682867 1.70381e-17)
(-4.31743 0.532384 1.68984e-17)
(-4.25325 0.251854 0)
(-3.9389 -0.0930829 0)
(-3.37749 -0.340087 0)
(-2.76305 -0.397509 0)
(-2.24935 -0.100638 0)
(-1.84651 0.551098 -1.62465e-17)
(-1.61279 1.52236 -3.21228e-17)
(-1.67087 2.4939 1.5875e-17)
(-2.1615 3.2195 0)
(-3.06701 3.78183 -3.12614e-17)
(-4.307 3.91663 1.56039e-17)
(-5.48013 3.61826 0)
(-7.24374 3.68151 1.55869e-17)
(-8.72178 3.59398 0)
(-8.65411 1.99474 0)
(-9.04206 0.896305 2.9661e-17)
(-8.57986 0.63383 -1.48349e-17)
(-7.82008 0.371154 3.00684e-17)
(-8.41971 -0.413532 -2.99127e-17)
(-10.3167 2.14159 -1.48312e-17)
(-12.6923 4.64093 0)
(-15.5476 4.8845 -1.44194e-17)
(-16.8047 5.13381 0)
(-17.7806 5.26535 0)
(-18.4149 4.91533 0)
(-19.2117 4.64924 -1.38087e-17)
(-19.7934 4.33215 0)
(-20.2467 4.07691 -2.71609e-17)
(-20.6096 3.81084 4.04116e-17)
(-20.7648 3.58565 1.33734e-17)
(-20.878 3.37293 0)
(-20.777 3.19243 1.31779e-17)
(-20.6786 3.02782 0)
(-20.37 2.8906 2.59625e-17)
(-20.1015 2.75332 0)
(-19.6271 2.62287 2.55621e-17)
(-19.1848 2.52799 -5.08698e-17)
(-18.5317 2.41477 -2.51742e-17)
(-17.9158 2.36311 0)
(-17.2102 2.29853 0)
(-16.4727 2.2657 0)
(-15.6909 2.18818 2.43747e-17)
(-14.8039 2.15267 0)
(-13.9127 2.19588 -2.39367e-17)
(-13.1227 2.21704 0)
(-12.2294 2.12365 7.08995e-17)
(-11.2568 2.11675 2.34045e-17)
(-10.3485 2.12062 2.3166e-17)
(-9.42447 1.94186 0)
(-8.30981 1.9046 0)
(-7.44959 2.10861 0)
(-6.52235 2.10876 0)
(-5.69641 2.08335 0)
(-4.95212 2.15916 4.43078e-17)
(-4.20632 2.19163 4.38526e-17)
(-3.54487 2.27555 0)
(-2.89393 2.29662 -2.1537e-17)
(-2.35402 2.39322 -2.14301e-17)
(-2.05236 2.39412 0)
(-1.83006 2.28278 -4.2922e-17)
(-1.54458 2.2329 0)
(-1.40285 2.2908 2.11017e-17)
(-0.999107 2.24282 0)
(-0.341959 2.55003 0)
(-0.352851 2.76948 -4.08693e-17)
(-0.722484 2.65696 0)
(-0.751438 2.67261 1.98306e-17)
(-0.691871 2.88946 0)
(-1.04139 2.68122 0)
(-1.58396 2.23661 1.89228e-17)
(-1.47201 1.74997 1.90869e-17)
(-0.609666 1.8904 0)
(-0.00596151 2.21447 -1.74592e-17)
(0.110059 2.50337 0)
(-0.523476 2.99931 1.74111e-17)
(-0.893491 2.9997 3.4177e-17)
(-0.742348 2.65592 0)
(-0.306623 2.17658 0)
(0.22682 2.25664 0)
(0.376173 2.87186 0)
(0.0024247 3.33739 3.45167e-17)
(-0.667867 3.14875 1.05563e-16)
(-1.58319 2.99907 0)
(-2.31635 3.3582 0)
(-3.78717 3.94253 0)
(-5.84426 4.63499 -3.53428e-17)
(-8.02869 5.07872 0)
(-10.1169 3.86161 0)
(-9.07321 1.29177 6.91081e-17)
(-7.08677 -0.242694 3.55681e-17)
(-6.44596 0.441692 3.41038e-17)
(-3.89618 2.78693 0)
(-6.90466 3.56131 0)
(-9.24266 3.35709 3.22966e-17)
(-7.79302 2.63356 -3.20285e-17)
(-9.8093 2.18397 0)
(-8.78141 1.20487 0)
(-6.40828 2.18809 -3.16908e-17)
(-6.24628 3.1511 9.38353e-17)
(-7.97401 3.0289 0)
(-8.85168 2.65422 0)
(-9.63597 2.65645 2.89822e-17)
(-9.43393 2.56692 0)
(-11.2196 2.75931 5.57332e-17)
(-10.1691 1.58698 -2.696e-17)
(-9.07522 2.2257 0)
(-8.63577 2.42482 2.64654e-17)
(-8.96484 2.55754 5.26351e-17)
(-8.34714 2.43877 0)
(-8.04525 2.89592 0)
(-7.82116 3.39262 -2.60521e-17)
(-7.64095 3.41842 0)
(-7.41316 3.50792 5.13901e-17)
(-7.15298 3.6607 0)
(-6.77307 3.75698 0)
(-6.00938 3.50043 0)
(-5.00217 3.4317 0)
(-3.11287 3.45045 -2.42321e-17)
(-2.49084 3.61409 -2.39969e-17)
(-0.625484 3.14108 0)
(1.19104 3.53477 0)
(2.12803 3.82054 0)
(3.35025 3.83902 2.31118e-17)
(4.75332 3.94795 0)
(6.96696 3.88957 -4.74293e-17)
(7.93561 4.10382 4.78483e-17)
(8.70636 3.51855 4.51564e-17)
(11.3468 2.90976 4.41649e-17)
(14.7015 3.03818 4.52797e-17)
(16.3224 3.57489 4.80615e-17)
(17.7506 3.94463 0)
(-0.021826 0.676727 0)
(-0.0487558 0.90522 0)
(-0.091527 1.01835 2.33806e-17)
(-0.214262 0.996289 2.29992e-17)
(-0.284259 0.711421 -2.31382e-17)
(-0.146562 0.0406368 -2.34835e-17)
(0.18487 -0.706368 -4.88447e-20)
(0.519566 -1.36492 0)
(0.904268 -1.82088 0)
(1.18852 -2.1138 0)
(1.52588 -2.18781 0)
(1.77564 -2.22364 0)
(2.05088 -2.3203 6.89747e-17)
(2.37998 -2.38812 0)
(2.82333 -2.41704 -2.27271e-17)
(3.2558 -2.62182 -2.25536e-17)
(3.73559 -2.77344 0)
(4.22843 -2.61255 0)
(4.7828 -2.41927 0)
(5.38668 -2.45599 0)
(5.92693 -2.30983 -2.15417e-17)
(6.31367 -1.92084 0)
(6.6223 -1.50803 2.12011e-17)
(7.02678 -1.08231 0)
(7.2995 -0.726591 0)
(7.46813 -0.412816 0)
(7.68302 -0.127445 4.1215e-17)
(7.80207 0.141057 0)
(7.78648 0.553577 -2.03103e-17)
(7.79127 0.933847 4.02799e-17)
(7.8083 1.36311 0)
(7.78383 1.72833 0)
(7.68491 2.06261 0)
(7.59356 2.66618 -1.94632e-17)
(7.41793 3.14662 -1.93456e-17)
(7.13175 3.60058 0)
(6.72207 4.12553 0)
(5.97831 4.34765 3.74793e-17)
(5.02443 4.40154 3.66448e-17)
(4.01522 4.17897 -3.62003e-17)
(2.65357 3.807 0)
(1.22252 3.61802 0)
(0.261852 2.89754 0)
(-0.460134 1.92475 0)
(-1.23459 1.72249 3.56267e-17)
(-1.8612 1.9602 3.50945e-17)
(-2.22394 1.87437 -3.47862e-17)
(-2.50824 1.55815 0)
(-2.77282 1.17234 0)
(-2.76711 0.420276 0)
(-2.3814 -0.433147 0)
(-1.78704 -0.794619 3.36805e-17)
(-1.22816 -0.654455 0)
(-0.780542 0.0139828 0)
(-0.608113 1.00467 3.31266e-17)
(-0.624486 2.1778 3.28591e-17)
(-0.635116 3.67288 0)
(-0.981498 5.20043 -6.45183e-17)
(-1.56288 6.32235 3.17339e-17)
(-2.51543 6.87069 -3.13015e-17)
(-3.67779 7.0386 0)
(-5.03985 6.89645 0)
(-5.52979 4.90523 0)
(-6.73014 3.97394 0)
(-7.50994 3.80579 -3.01519e-17)
(-7.88649 1.29524 -5.99523e-17)
(-10.2843 3.10219 -2.9988e-17)
(-14.5585 7.42145 2.95048e-17)
(-16.6297 7.40274 0)
(-17.5158 7.49976 -5.77886e-17)
(-18.9641 7.37896 -5.72961e-17)
(-19.405 7.54227 -5.67906e-17)
(-20.2275 7.61661 5.6421e-17)
(-20.3751 7.27456 0)
(-20.9315 7.04642 8.3744e-17)
(-20.9121 6.59836 0)
(-21.2595 6.33749 -2.76811e-17)
(-21.182 5.92545 -2.74973e-17)
(-21.2977 5.66846 0)
(-21.0978 5.32926 0)
(-20.988 5.13194 -5.41704e-17)
(-20.6796 4.85622 0)
(-20.3964 4.71683 -5.3464e-17)
(-19.975 4.48784 0)
(-19.5355 4.36135 5.26907e-17)
(-19.0023 4.18072 1.04862e-16)
(-18.3848 4.03524 0)
(-17.7737 3.947 0)
(-17.0545 3.87096 0)
(-16.3264 3.80447 5.10859e-17)
(-15.5023 3.65329 0)
(-14.5608 3.59276 5.01002e-17)
(-13.6127 3.67817 0)
(-12.8014 3.72871 0)
(-11.7791 3.57012 -9.79083e-17)
(-10.9416 3.57147 0)
(-9.88808 3.5866 -4.78814e-17)
(-8.95984 3.33923 0)
(-7.90707 3.28213 -4.76651e-17)
(-6.99396 3.5279 0)
(-5.88653 3.57667 0)
(-5.0849 3.6238 0)
(-4.36017 3.7356 -1.36746e-16)
(-3.75069 3.69276 -4.51926e-17)
(-3.04754 3.74265 0)
(-2.342 3.75443 0)
(-1.67342 3.95177 0)
(-1.03889 4.14086 0)
(-0.682401 4.10972 4.28323e-17)
(-0.545163 4.13997 -8.54229e-17)
(-0.67684 4.10684 -4.22435e-17)
(-0.787513 3.69418 8.44266e-17)
(-0.290795 3.9802 8.34066e-17)
(0.0136722 4.6948 4.0586e-17)
(-0.439931 4.6661 0)
(-0.66624 4.22789 8.04521e-17)
(-0.276046 4.41066 0)
(-0.275322 4.83265 -7.52562e-17)
(-1.19079 4.56187 -3.77511e-17)
(-1.94106 3.60749 0)
(-0.915601 3.41992 8.34975e-17)
(0.985794 4.31139 3.80812e-17)
(1.19487 4.8959 0)
(0.138757 5.31091 3.41895e-17)
(-0.0750002 4.75737 -9.92314e-17)
(0.314516 4.24448 0)
(0.465536 4.19268 0)
(0.723299 4.56839 0)
(0.83947 5.1961 0)
(0.576858 5.57307 -6.75167e-17)
(-0.390395 5.79521 -6.90372e-17)
(-1.66539 5.95625 0)
(-2.85615 6.34118 0)
(-4.73757 7.19881 0)
(-6.66824 7.44614 0)
(-8.31669 7.28709 0)
(-8.74588 5.89836 0)
(-7.35284 2.78735 -6.91927e-17)
(-7.70638 0.905296 1.96599e-19)
(-7.64981 2.18555 0)
(-6.91682 5.41489 0)
(-8.61535 7.08886 -6.83251e-17)
(-10.1214 4.30055 0)
(-7.57463 4.20481 6.41405e-17)
(-9.75526 3.98115 6.48043e-17)
(-9.38767 1.82965 0)
(-7.82322 3.03442 0)
(-5.94453 4.98036 -6.29313e-17)
(-7.03653 5.23562 -1.22755e-16)
(-7.8903 4.64387 0)
(-8.5363 4.45808 0)
(-8.07694 4.25663 0)
(-10.3894 4.35589 -5.38844e-17)
(-9.58942 3.05526 5.52062e-17)
(-7.99751 3.64354 0)
(-7.10558 4.10839 1.03795e-16)
(-7.63758 4.55073 5.13725e-17)
(-6.52485 4.52973 -1.01952e-16)
(-5.84983 4.84957 0)
(-5.40377 5.0901 0)
(-5.44926 5.6311 -9.8756e-17)
(-5.31702 6.1053 -4.94841e-17)
(-5.16045 6.43559 0)
(-4.75078 6.5899 0)
(-4.1143 6.33234 0)
(-3.51654 6.15611 0)
(-1.48603 6.10984 -9.72832e-17)
(-1.05667 6.5092 0)
(0.531545 6.23578 0)
(3.3599 6.43977 0)
(4.52678 6.79578 0)
(5.05161 6.56412 0)
(5.86962 6.30453 0)
(7.87836 6.42339 -8.80833e-17)
(8.46784 6.65947 0)
(9.4443 5.68175 0)
(11.8839 4.57432 -1.65331e-16)
(15.1001 4.77494 8.52798e-17)
(16.448 5.62996 -9.11585e-17)
(17.9927 6.26682 9.27663e-17)
(-0.0171566 0.750218 0)
(-0.082613 0.957994 -4.82963e-17)
(-0.128576 1.09002 0)
(-0.12023 0.93555 -2.3612e-17)
(0.114078 0.269357 0)
(0.498973 -0.774634 0)
(0.940572 -1.66095 2.39112e-17)
(1.23795 -2.20907 0)
(1.42785 -2.47296 0)
(1.43756 -2.59121 0)
(1.51638 -2.56795 0)
(1.60973 -2.55878 0)
(1.81377 -2.71968 -9.16586e-17)
(2.02574 -3.07328 -4.55925e-17)
(2.47387 -3.3201 4.53116e-17)
(2.93327 -3.4667 0)
(3.35087 -3.54883 0)
(3.79054 -3.55919 0)
(4.29014 -3.52749 0)
(4.75765 -3.38128 0)
(5.09798 -3.0045 -4.21179e-17)
(5.45686 -2.54443 -4.17258e-17)
(5.81504 -2.25888 4.14244e-17)
(6.1365 -1.82024 -4.0996e-17)
(6.36971 -1.20494 0)
(6.49711 -0.835497 0)
(6.69585 -0.435644 -4.03154e-17)
(6.73818 0.169629 0)
(6.78448 0.555881 0)
(6.94751 0.827054 -3.93871e-17)
(6.99024 1.168 -3.87695e-17)
(7.07824 1.59095 -3.83981e-17)
(7.15857 2.15595 0)
(7.16389 2.65362 0)
(7.23119 3.22605 3.76363e-17)
(7.11761 3.96726 0)
(6.9916 4.58326 0)
(6.76525 5.12329 -3.76087e-17)
(6.27236 5.53877 3.71097e-17)
(5.75836 5.60205 -3.67756e-17)
(4.96915 5.49113 0)
(4.05743 5.14271 0)
(3.42417 4.49888 -7.11596e-17)
(2.5912 3.90458 0)
(1.42073 3.51133 -6.93802e-17)
(0.494273 3.09926 -1.03982e-16)
(0.0148573 2.38254 1.03662e-16)
(-0.379706 1.81948 -6.88895e-17)
(-0.660245 1.43768 0)
(-0.64011 0.432233 0)
(-0.412883 -0.858179 -6.72789e-17)
(-0.159889 -1.39049 -3.35387e-17)
(-0.0983707 -1.0338 0)
(-0.157312 -0.0590055 0)
(-0.176866 1.37296 -3.26814e-17)
(-0.515015 2.89691 -6.52182e-17)
(-0.996281 4.47254 0)
(-1.3483 6.11396 6.49116e-17)
(-1.82116 7.48348 -6.38766e-17)
(-2.21086 8.36292 6.20962e-17)
(-2.94485 8.46256 0)
(-4.6771 8.51278 0)
(-6.20574 8.8247 0)
(-7.19601 6.83623 0)
(-7.48819 4.60433 0)
(-11.6405 7.70288 6.01311e-17)
(-15.7393 10.1507 0)
(-17.0295 9.90649 0)
(-18.3322 10.0471 0)
(-19.1494 10.1319 1.15453e-16)
(-19.9651 9.83729 5.74809e-17)
(-20.2683 9.80273 5.72336e-17)
(-20.8265 9.45561 -1.14373e-16)
(-20.8418 9.22284 5.69051e-17)
(-21.2906 8.81338 -5.67015e-17)
(-21.1626 8.50481 0)
(-21.5018 8.10548 5.61387e-17)
(-21.2277 7.74415 0)
(-21.4133 7.34767 0)
(-21.0159 6.99857 0)
(-20.9831 6.69597 1.09205e-16)
(-20.5204 6.41573 -5.40721e-17)
(-20.2957 6.20616 -5.39298e-17)
(-19.7568 5.96342 -1.06545e-16)
(-19.4158 5.82265 -1.58815e-16)
(-18.8183 5.56123 -5.23877e-17)
(-18.2786 5.40082 0)
(-17.6144 5.27088 -1.03956e-16)
(-16.9276 5.21369 0)
(-16.1579 5.06492 -1.5415e-16)
(-15.3636 4.88802 0)
(-14.5143 4.79057 -1.51885e-16)
(-13.5621 4.89774 0)
(-12.6459 5.00119 0)
(-11.4948 4.85038 -4.97817e-17)
(-10.8052 4.88272 0)
(-9.62891 4.75203 4.88973e-17)
(-8.62554 4.59682 9.74033e-17)
(-7.64025 4.52255 4.84063e-17)
(-6.69438 4.71685 9.61582e-17)
(-5.61097 4.81468 -9.51976e-17)
(-4.65177 4.98992 -9.42989e-17)
(-3.83546 5.19234 1.85465e-16)
(-3.22755 5.13746 0)
(-2.60412 5.13013 0)
(-1.89144 5.0862 9.09281e-17)
(-1.37709 5.15993 -9.03241e-17)
(-0.685383 5.41509 0)
(-0.118215 5.61841 0)
(0.284907 5.79322 8.51444e-17)
(0.444918 5.85325 0)
(0.13141 5.38541 3.36842e-19)
(-0.0905845 5.29523 3.36493e-19)
(0.0441442 6.25045 7.99566e-17)
(-0.23576 6.53344 0)
(-0.714615 6.02949 -8.41283e-17)
(-0.410888 6.1288 0)
(-0.394698 6.71503 7.43855e-17)
(-1.3601 6.55278 0)
(-2.45466 4.79049 0)
(-2.06462 3.45388 -8.84703e-17)
(0.429364 5.00573 -8.46451e-17)
(1.41766 7.20422 0)
(0.92475 7.65378 -6.96686e-17)
(0.920566 6.74942 1.3263e-16)
(0.766642 6.17424 0)
(0.623515 5.88475 0)
(0.805906 6.18904 0)
(0.803625 7.18193 0)
(0.0752786 8.19842 6.75402e-17)
(-0.577836 8.65509 -1.3901e-16)
(-1.60366 8.77087 0)
(-3.3006 9.28456 0)
(-4.24745 10.486 0)
(-4.47435 10.4783 0)
(-5.73762 10.0491 0)
(-6.26679 7.42764 0)
(-5.46558 3.9878 0)
(-6.58053 2.48968 7.20023e-17)
(-8.01014 3.94821 0)
(-8.82741 6.6121 0)
(-6.78158 8.55696 6.68358e-17)
(-8.8112 5.9723 0)
(-7.42219 5.84148 0)
(-8.02814 6.09357 -6.48532e-17)
(-8.08041 2.56453 0)
(-8.53057 3.41197 0)
(-6.41473 6.07776 1.27588e-16)
(-6.98596 6.97414 1.2257e-16)
(-7.77068 6.35507 1.17542e-16)
(-8.235 6.12561 0)
(-7.63803 6.58827 1.11226e-16)
(-10.5546 6.7215 0)
(-8.41686 4.07927 -1.16672e-16)
(-7.23383 5.37457 0)
(-5.80892 6.32858 -1.08094e-16)
(-6.51449 6.40373 3.23389e-19)
(-5.19666 5.72554 1.03413e-16)
(-4.26648 6.85668 -1.02324e-16)
(-3.57533 7.69955 9.88699e-17)
(-3.47466 7.90823 1.92725e-16)
(-3.36189 8.2531 0)
(-3.29981 8.75812 0)
(-3.08696 9.11557 0)