/*--------------------------------*- C++ -*----------------------------------*\
| =========                 |                                                 |
| \\      /  F ield         | OpenFOAM: The Open Source CFD Toolbox           |
|  \\    /   O peration     | Version:  dev                                   |
|   \\  /    A nd           | Web:      http://www.openfoam.org               |
|    \\/     M anipulation  |                                                 |
\*---------------------------------------------------------------------------*/
FoamFile
{
    version     2.0;
    format      ascii;
    class       volVectorField;
    object      UMean;
    location    "9.146";
}
// * * * * * * * * * * * * * * * * * * * * * * * * * * * * * * * * * * * * * //

dimensions      [0 1 -1 0 0 0 0];

internalField   nonuniform List<vector> 
12225
(
(7.00368 0.430272 0)
(4.43882 0.192555 0)
(2.5567 0.0311627 0)
(2.51079 -0.016662 0)
(1.38439 0.0193768 0)
(2.26725 -0.0342863 0)
(0.9895 0.0489958 0)
(2.18245 -0.0591832 0)
(0.797534 0.0716657 0)
(2.29161 -0.097855 0)
(0.688873 0.0993669 0)
(2.74349 -0.138635 0)
(0.948497 0.102596 0)
(3.397 -0.17213 0)
(3.53273 -0.168606 0)
(4.69656 0.0499589 0)
(14.8495 -2.43476 0)
(7.12111 5.1343 0)
(9.54627 0.981587 0)
(9.54343 0.860893 0)
(6.68672 0.466314 0)
(7.59028 0.214541 0)
(4.09032 0.140336 0)
(6.84296 0.0107801 0)
(2.66492 0.132698 0)
(6.68895 -0.0903659 0)
(1.82265 0.141892 0)
(7.03866 -0.165123 0)
(1.26099 0.123944 0)
(8.12107 -0.414528 0)
(1.38577 0.252403 0)
(9.955 -1.44264 0)
(3.43626 0.271345 0)
(12.3903 -4.06894 0)
(10.4323 -1.92908 0)
(7.77713 0.486809 0)
(9.11848 0.763494 0)
(12.1669 0.951401 0)
(8.32949 0.624024 0)
(11.8321 0.443397 0)
(6.22575 0.310362 0)
(11.413 0.206415 0)
(4.5825 0.221605 0)
(11.3149 -0.0196379 0)
(3.87438 0.193086 0)
(11.3762 -0.278012 0)
(4.35131 0.187364 0)
(11.2522 -0.72322 0)
(5.72995 0.175819 0)
(11.0897 -1.49173 0)
(7.21663 0.0518815 0)
(12.1187 -3.8672 0)
(6.93289 0.349798 0)
(9.35425 -2.39013 0)
(7.21896 0.524943 0)
(13.9932 0.961064 0)
(7.92942 0.609503 0)
(14.2956 0.553859 0)
(7.47378 0.420944 0)
(14.1169 0.270993 0)
(7.1752 0.396781 0)
(13.7391 -0.1453 0)
(7.25642 0.459732 0)
(13.2703 -0.699018 0)
(7.65945 0.576873 0)
(12.8756 -1.42305 0)
(8.26772 0.699237 0)
(12.6523 -2.31346 0)
(9.02556 0.0403312 0)
(11.8883 -3.63661 0)
(8.68716 -1.43444 0)
(8.36352 0.682897 0)
(6.42314 0.569975 0)
(14.0122 0.566009 0)
(8.47274 0.674551 0)
(13.9593 0.284546 0)
(9.16857 0.636784 0)
(13.6447 -0.00264024 0)
(9.51636 0.657974 0)
(13.2152 -0.38887 0)
(9.59121 0.734526 0)
(12.8143 -0.87157 0)
(9.44463 0.877014 0)
(12.5843 -1.52174 0)
(9.14875 1.08985 0)
(12.5726 -2.4905 0)
(8.82646 1.13128 0)
(11.6182 -5.02875 0)
(8.54202 1.26488 0)
(8.722 0.13154 0)
(7.9554 0.616753 0)
(11.8043 0.152516 0)
(9.50452 0.654674 0)
(11.7404 0.0503114 0)
(10.0878 0.693854 0)
(11.6013 -0.165611 0)
(10.3202 0.72577 0)
(11.4771 -0.457506 0)
(10.3 0.782902 0)
(11.3903 -0.853602 0)
(10.032 0.831831 0)
(11.3562 -1.40019 0)
(9.49091 0.800873 0)
(11.4192 -2.13868 0)
(8.79847 0.725162 0)
(10.999 -3.92152 0)
(7.73165 1.33507 0)
(9.4889 -0.216043 0)
(9.34349 0.812709 0)
(10.4393 -0.265976 0)
(10.1404 0.93053 0)
(10.5541 -0.304566 0)
(10.3985 1.02003 0)
(10.5821 -0.502916 0)
(10.52 1.07555 0)
(10.6255 -0.78121 0)
(10.5633 1.15353 0)
(10.6719 -1.15779 0)
(10.5152 1.23529 0)
(10.7 -1.63581 0)
(10.3664 1.26125 0)
(10.6881 -2.32762 0)
(10.0523 1.27123 0)
(10.3757 -3.95567 0)
(8.29762 2.02012 0)
(9.69684 -0.951618 0)
(9.84875 0.7011 0)
(10.1562 -0.325948 0)
(10.4065 0.854974 0)
(10.3899 -0.349839 0)
(10.5803 0.906785 0)
(10.4706 -0.493907 0)
(10.7017 0.892897 0)
(10.552 -0.68623 0)
(10.8054 0.872649 0)
(10.6438 -0.935233 0)
(10.8811 0.823791 0)
(10.7353 -1.23278 0)
(10.9083 0.671296 0)
(10.7537 -1.67286 0)
(10.7235 0.519628 0)
(10.4921 -2.47493 0)
(8.89297 0.981329 0)
(9.96349 -0.484049 0)
(10.0855 0.802308 0)
(10.0199 -0.58345 0)
(10.5355 1.02147 0)
(10.3108 -0.604536 0)
(10.6751 1.07506 0)
(10.4401 -0.725017 0)
(10.7776 1.0483 0)
(10.571 -0.89015 0)
(10.8573 1.00379 0)
(10.7115 -1.11796 0)
(10.899 0.921294 0)
(10.832 -1.39526 0)
(10.8743 0.734981 0)
(10.8223 -1.76149 0)
(10.6026 0.505905 0)
(10.5206 -2.06987 0)
(9.34955 0.586687 0)
(10.0232 -0.391768 0)
(10.139 0.64864 0)
(10.0424 -0.511921 0)
(10.5103 0.877971 0)
(10.3335 -0.456477 0)
(10.6214 0.8692 0)
(10.482 -0.493628 0)
(10.6979 0.778256 0)
(10.6291 -0.572162 0)
(10.7342 0.657907 0)
(10.7636 -0.695428 0)
(10.718 0.495571 0)
(10.8403 -0.845164 0)
(10.6183 0.26407 0)
(10.7655 -1.03254 0)
(10.2822 0.0702451 0)
(10.4793 -1.05341 0)
(9.62275 0.124229 0)
(10.2067 -0.0328776 0)
(10.141 0.700083 0)
(10.0707 -0.691983 0)
(10.4525 0.902589 0)
(10.2986 -0.619037 0)
(10.5375 0.847755 0)
(10.4302 -0.645672 0)
(10.6032 0.735417 0)
(10.5607 -0.707582 0)
(10.6273 0.586931 0)
(10.6604 -0.791501 0)
(10.6092 0.383294 0)
(10.6813 -0.869613 0)
(10.5269 0.117191 0)
(10.5709 -0.922534 0)
(10.2914 -0.11368 0)
(10.3608 -0.765485 0)
(10.0195 -0.154007 0)
(10.2454 -0.125309 0)
(10.0968 0.46805 0)
(10.1509 -0.495133 0)
(10.3537 0.59579 0)
(10.2934 -0.374659 0)
(10.4203 0.527593 0)
(10.4094 -0.354839 0)
(10.4848 0.41895 0)
(10.5239 -0.374258 0)
(10.5131 0.275793 0)
(10.5994 -0.414759 0)
(10.5157 0.0933648 0)
(10.5971 -0.461789 0)
(10.4766 -0.103307 0)
(10.4995 -0.500294 0)
(10.357 -0.232134 0)
(10.3645 -0.40575 0)
(10.2658 -0.219844 0)
(10.3738 -0.110208 0)
(10.0501 0.411086 0)
(10.1755 -0.487353 0)
(10.2549 0.437312 0)
(10.2379 -0.367619 0)
(10.3088 0.36748 0)
(10.3307 -0.345695 0)
(10.3793 0.250974 0)
(10.4247 -0.355419 0)
(10.4227 0.0995721 0)
(10.4823 -0.375019 0)
(10.4463 -0.0796484 0)
(10.4818 -0.40356 0)
(10.433 -0.246676 0)
(10.4261 -0.431401 0)
(10.3772 -0.339236 0)
(10.3685 -0.392739 0)
(10.3571 -0.320571 0)
(10.4222 -0.276541 0)
(10.0153 0.199684 0)
(10.1907 -0.285842 0)
(10.1932 0.167391 0)
(10.2052 -0.179337 0)
(10.2293 0.131724 0)
(10.2792 -0.171402 0)
(10.3062 0.0472929 0)
(10.3626 -0.197822 0)
(10.366 -0.0586677 0)
(10.4142 -0.235782 0)
(10.4055 -0.176006 0)
(10.4267 -0.286488 0)
(10.4123 -0.275021 0)
(10.4112 -0.331709 0)
(10.3994 -0.32416 0)
(10.4065 -0.337222 0)
(10.4108 -0.316037 0)
(10.4697 -0.304837 0)
(9.99664 0.097181 0)
(10.1445 -0.185897 0)
(10.1463 0.0217214 0)
(10.1501 -0.133677 0)
(10.1622 -0.00857233 0)
(10.2089 -0.14617 0)
(10.241 -0.0769161 0)
(10.2919 -0.186745 0)
(10.311 -0.159373 0)
(10.3486 -0.237984 0)
(10.3575 -0.244797 0)
(10.3791 -0.298341 0)
(10.3805 -0.316311 0)
(10.3938 -0.350111 0)
(10.3958 -0.361051 0)
(10.4184 -0.380221 0)
(10.4238 -0.381073 0)
(10.4788 -0.387259 0)
(9.99367 0.0155351 0)
(10.106 -0.0857834 0)
(10.1089 -0.0442775 0)
(10.1138 -0.0932305 0)
(10.1188 -0.0748478 0)
(10.1675 -0.11892 0)
(10.198 -0.120579 0)
(10.2518 -0.163825 0)
(10.274 -0.180559 0)
(10.3154 -0.219162 0)
(10.3278 -0.243937 0)
(10.3597 -0.277835 0)
(10.3659 -0.301354 0)
(10.3939 -0.329025 0)
(10.3995 -0.347011 0)
(10.4328 -0.37082 0)
(10.4355 -0.383804 0)
(10.4883 -0.397021 0)
(9.99176 0.00479131 0)
(10.0636 -0.0251261 0)
(10.0567 -0.0348733 0)
(10.0678 -0.0664328 0)
(10.0778 -0.0756713 0)
(10.128 -0.0997317 0)
(10.1573 -0.115912 0)
(10.211 -0.144685 0)
(10.2337 -0.168962 0)
(10.2781 -0.199569 0)
(10.292 -0.226565 0)
(10.33 -0.257047 0)
(10.3384 -0.283333 0)
(10.3731 -0.312073 0)
(10.3788 -0.336825 0)
(10.4152 -0.365559 0)
(10.4146 -0.388075 0)
(10.4634 -0.407492 0)
(9.99162 0.0141878 0)
(10.0467 0.0161846 0)
(10.0399 -0.0105493 0)
(10.0576 -0.0376554 0)
(10.0749 -0.0565061 0)
(10.1255 -0.0778314 0)
(10.1555 -0.0988452 0)
(10.2072 -0.123809 0)
(10.2312 -0.148981 0)
(10.2754 -0.176623 0)
(10.2912 -0.203428 0)
(10.3293 -0.232161 0)
(10.3395 -0.259371 0)
(10.3737 -0.288319 0)
(10.3802 -0.315648 0)
(10.4141 -0.345718 0)
(10.4133 -0.371577 0)
(10.4567 -0.393393 0)
(9.99171 0.0329602 0)
(10.0502 0.0496726 0)
(10.0566 0.00996068 0)
(10.0799 -0.018052 0)
(10.1007 -0.0402113 0)
(10.1507 -0.0614545 0)
(10.1819 -0.0835858 0)
(10.2316 -0.106389 0)
(10.2563 -0.130531 0)
(10.2984 -0.155499 0)
(10.315 -0.181066 0)
(10.3508 -0.20732 0)
(10.3615 -0.233557 0)
(10.3926 -0.260411 0)
(10.3991 -0.287032 0)
(10.4288 -0.315289 0)
(10.4281 -0.341021 0)
(10.4653 -0.362798 0)
(9.98992 0.0407387 0)
(10.0547 0.0526891 0)
(10.0828 -0.00630168 0)
(10.1167 -0.0406339 0)
(10.142 -0.0640792 0)
(10.1904 -0.0822342 0)
(10.2224 -0.102065 0)
(10.2691 -0.120983 0)
(10.2936 -0.142723 0)
(10.3321 -0.163972 0)
(10.3484 -0.187386 0)
(10.3802 -0.210074 0)
(10.3905 -0.234378 0)
(10.4174 -0.257897 0)
(10.4229 -0.282762 0)
(10.4474 -0.307797 0)
(10.4462 -0.332426 0)
(10.4768 -0.352819 0)
(9.99054 0.0315982 0)
(10.0685 0.0220286 0)
(10.1262 -0.0557254 0)
(10.177 -0.0967386 0)
(10.2126 -0.119763 0)
(10.261 -0.132725 0)
(10.2938 -0.147762 0)
(10.3361 -0.161648 0)
(10.3601 -0.179826 0)
(10.3941 -0.196914 0)
(10.4104 -0.217356 0)
(10.4377 -0.236239 0)
(10.4479 -0.25798 0)
(10.4702 -0.278045 0)
(10.4754 -0.300723 0)
(10.4946 -0.322345 0)
(10.494 -0.345195 0)
(10.5187 -0.363473 0)
(9.99118 0.00989355 0)
(10.092 -0.0296903 0)
(10.187 -0.120816 0)
(10.2595 -0.162749 0)
(10.3093 -0.181104 0)
(10.359 -0.187139 0)
(10.3929 -0.196018 0)
(10.4305 -0.204352 0)
(10.4542 -0.218093 0)
(10.4837 -0.230727 0)
(10.5002 -0.247583 0)
(10.5233 -0.262609 0)
(10.5338 -0.281313 0)
(10.5517 -0.297996 0)
(10.5572 -0.318049 0)
(10.5719 -0.336383 0)
(10.5723 -0.356959 0)
(10.5921 -0.373093 0)
(9.99283 -0.0233577 0)
(10.1275 -0.103595 0)
(10.2671 -0.204911 0)
(10.3665 -0.241576 0)
(10.432 -0.250792 0)
(10.4836 -0.248376 0)
(10.5183 -0.250886 0)
(10.5518 -0.253684 0)
(10.5754 -0.262962 0)
(10.6012 -0.27132 0)
(10.6182 -0.284647 0)
(10.6379 -0.296264 0)
(10.6487 -0.312073 0)
(10.6632 -0.325825 0)
(10.6692 -0.343355 0)
(10.6802 -0.3588 0)
(10.6814 -0.377111 0)
(10.6969 -0.391253 0)
(9.99045 -0.071572 0)
(10.1744 -0.201146 0)
(10.3678 -0.305442 0)
(10.5001 -0.327842 0)
(10.5805 -0.322542 0)
(10.6344 -0.310171 0)
(10.669 -0.305549 0)
(10.6997 -0.302542 0)
(10.7227 -0.306678 0)
(10.746 -0.310557 0)
(10.7625 -0.319876 0)
(10.7794 -0.328021 0)
(10.7896 -0.340551 0)
(10.8007 -0.351326 0)
(10.8056 -0.365912 0)
(10.8125 -0.378468 0)
(10.8123 -0.394023 0)
(10.8223 -0.40597 0)
(9.99201 -0.136359 0)
(10.2447 -0.322999 0)
(10.5027 -0.418996 0)
(10.6712 -0.41762 0)
(10.7627 -0.394162 0)
(10.8175 -0.371094 0)
(10.8494 -0.358925 0)
(10.8772 -0.350568 0)
(10.896 -0.350078 0)
(10.9149 -0.350474 0)
(10.9254 -0.356356 0)
(10.9356 -0.361488 0)
(10.9375 -0.370784 0)
(10.9394 -0.378644 0)
(10.934 -0.389836 0)
(10.9292 -0.399416 0)
(10.9165 -0.411333 0)
(10.9116 -0.420477 0)
(9.98973 -0.219901 0)
(10.3369 -0.468118 0)
(10.6736 -0.539727 0)
(10.8757 -0.508211 0)
(10.9697 -0.464839 0)
(11.0135 -0.428046 0)
(11.0286 -0.404792 0)
(11.0352 -0.388364 0)
(11.0291 -0.381396 0)
(11.0194 -0.376946 0)
(10.998 -0.378154 0)
(10.9735 -0.379059 0)
(10.9377 -0.383776 0)
(10.9 -0.387251 0)
(10.8523 -0.393613 0)
(10.8042 -0.398933 0)
(10.7462 -0.405247 0)
(10.6945 -0.410018 0)
(9.98328 -0.332071 0)
(10.4676 -0.642314 0)
(10.8829 -0.667102 0)
(11.0724 -0.602635 0)
(11.103 -0.537187 0)
(11.0583 -0.483114 0)
(10.9743 -0.444973 0)
(10.8731 -0.416213 0)
(10.7577 -0.398001 0)
(10.635 -0.383261 0)
(10.5035 -0.374877 0)
(10.3666 -0.366317 0)
(10.2241 -0.362431 0)
(10.0774 -0.356978 0)
(9.92866 -0.355828 0)
(9.77709 -0.353233 0)
(9.62592 -0.352931 0)
(9.47601 -0.351092 0)
(10.0025 -0.453663 0)
(10.619 -0.818955 0)
(10.9017 -0.75207 0)
(10.7933 -0.623751 0)
(10.4938 -0.51254 0)
(10.1376 -0.429193 0)
(9.77012 -0.373564 0)
(9.41759 -0.334721 0)
(9.07679 -0.307292 0)
(8.75544 -0.284607 0)
(8.44645 -0.267651 0)
(8.15335 -0.251325 0)
(7.8726 -0.240033 0)
(7.60302 -0.22733 0)
(7.34822 -0.221122 0)
(7.09869 -0.21181 0)
(6.87028 -0.210836 0)
(6.64086 -0.204158 0)
(10.0974 -0.750782 0)
(10.0459 -1.0132 0)
(9.42495 -0.801088 0)
(8.51443 -0.572183 0)
(7.65497 -0.378726 0)
(6.92881 -0.244881 0)
(6.32723 -0.167519 0)
(5.8315 -0.12625 0)
(5.40907 -0.104704 0)
(5.04848 -0.0923235 0)
(4.72839 -0.0849637 0)
(4.44765 -0.0793513 0)
(4.19126 -0.0758071 0)
(3.96237 -0.0718893 0)
(3.75067 -0.0721328 0)
(3.55551 -0.0690801 0)
(3.38331 -0.0802648 0)
(3.21842 -0.0828588 0)
(8.51677 -0.436073 0)
(6.11026 -0.380898 0)
(4.29833 -0.138059 0)
(3.12385 -0.0213932 0)
(2.48107 0.0191291 0)
(2.12046 0.0224691 0)
(1.89622 0.0137097 0)
(1.73492 0.00461196 0)
(1.59889 -0.00157232 0)
(1.47815 -0.00479313 0)
(1.36606 -0.00640598 0)
(1.2639 -0.00671949 0)
(1.16824 -0.00670686 0)
(1.08152 -0.00638896 0)
(0.999495 -0.00665739 0)
(0.919266 -0.00703332 0)
(0.851771 -0.018612 0)
(0.731244 -0.00613935 0)
(-0.0520393 0.137984 0)
(-0.15707 0.0714847 0)
(-0.20701 0.0163923 0)
(-0.195082 -0.0444566 0)
(-0.117713 -0.0991903 0)
(0.0125939 -0.145226 0)
(0.186767 -0.17577 1.11354e-17)
(0.388636 -0.193729 -1.10604e-17)
(0.606996 -0.198123 0)
(0.829518 -0.192859 -1.09172e-17)
(1.04683 -0.178517 0)
(1.24994 -0.157748 0)
(1.43228 -0.131105 0)
(1.58859 -0.101733 1.06427e-17)
(1.71621 -0.0704652 0)
(1.81235 -0.0383699 0)
(1.87613 -0.00618865 -1.04455e-17)
(1.90826 0.0241159 0)
(1.91043 0.0506172 0)
(1.88469 0.0723673 0)
(1.83473 0.0893505 1.01961e-17)
(1.76313 0.100915 0)
(1.67383 0.108803 1.00742e-17)
(1.56852 0.111717 0)
(1.45185 0.109823 0)
(1.32655 0.108168 9.89548e-18)
(1.19287 0.11146 0)
(1.05007 0.116575 -9.77916e-18)
(0.901335 0.121803 0)
(0.747261 0.126823 9.66429e-18)
(0.589401 0.130791 0)
(0.430037 0.13321 0)
(0.27144 0.13433 0)
(0.114092 0.134069 0)
(-0.0416857 0.131134 0)
(-0.193814 0.126413 -9.32962e-18)
(-0.340639 0.12028 0)
(-0.481757 0.113765 1.84405e-17)
(-0.615728 0.107268 0)
(-0.742138 0.100044 -1.82216e-17)
(-0.859527 0.0930182 0)
(-0.968064 0.0862614 0)
(-1.06819 0.0785278 1.78883e-17)
(-1.15943 0.0701827 0)
(-1.24243 0.062496 1.76651e-17)
(-1.31725 0.05527 -1.75531e-17)
(-1.3834 0.0482754 0)
(-1.44171 0.0422194 -1.73281e-17)
(-1.49327 0.0368833 -1.72151e-17)
(-1.53708 0.0331925 0)
(-1.57329 0.0315872 0)
(-1.60378 0.0315547 0)
(-1.6307 0.0316402 0)
(-1.65505 0.031607 0)
(-1.67824 0.0324658 1.65281e-17)
(-1.70208 0.0340061 0)
(-1.72794 0.0362458 -1.62989e-17)
(-1.75456 0.0383044 0)
(-1.78074 0.0389548 0)
(-1.80645 0.0395985 1.59524e-17)
(-1.83239 0.0414014 0)
(-1.86043 0.0426455 -1.57211e-17)
(-1.89046 0.0443157 0)
(-1.92227 0.0458043 0)
(-1.95541 0.0466529 0)
(-1.98933 0.0478461 1.52556e-17)
(-2.02365 0.0496721 0)
(-2.05856 0.0518064 0)
(-2.09394 0.0540701 1.49058e-17)
(-2.13018 0.0553652 0)
(-2.16437 0.0556685 1.46711e-17)
(-2.19557 0.0563873 0)
(-2.22391 0.056946 0)
(-2.24815 0.056887 0)
(-2.26706 0.0562448 -1.4205e-17)
(-2.28002 0.0549995 0)
(-2.28768 0.0542303 0)
(-2.29195 0.054124 -1.38611e-17)
(-2.29327 0.0531193 -1.37477e-17)
(-2.28992 0.0514271 0)
(-2.28009 0.0491243 -1.35225e-17)
(-2.26365 0.0461511 0)
(-2.2402 0.0429439 -2.6602e-17)
(-2.20974 0.0394578 0)
(-2.1728 0.0357322 -2.61665e-17)
(-2.12924 0.032632 0)
(-2.08012 0.0301998 2.57377e-17)
(-2.02631 0.0282176 0)
(-1.96794 0.0267785 0)
(-1.90563 0.0258087 0)
(-1.84095 0.025221 -2.49006e-17)
(-1.77363 0.0249648 0)
(-1.70531 0.0249253 2.44989e-17)
(-1.63601 0.025512 0)
(-1.56643 0.0265527 -2.41095e-17)
(-1.49851 0.0290604 -2.39209e-17)
(-1.43142 0.030203 -2.37366e-17)
(-1.36418 0.0312572 0)
(-1.29877 0.0313676 0)
(-1.23403 0.0325669 0)
(-1.16812 0.0333481 0)
(-1.10314 0.0329665 0)
(-1.03325 0.031872 0)
(-0.964473 0.033228 0)
(-0.89362 0.0328788 0)
(-0.826632 0.0352394 2.22129e-17)
(-0.759379 0.0357647 2.20606e-17)
(-0.697204 0.0401616 0)
(-0.636708 0.0414354 0)
(-0.581214 0.0411065 0)
(-0.513877 0.0384872 2.14801e-17)
(-0.451798 0.0426248 0)
(-0.382971 0.0408115 0)
(-0.318203 0.043742 0)
(-0.247483 0.0406896 0)
(-0.174699 0.0431453 -2.08059e-17)
(-0.0997051 0.044676 0)
(-0.0191606 0.0436968 0)
(0.0659884 0.0450773 2.04288e-17)
(0.154719 0.0451121 -2.03073e-17)
(0.246396 0.044432 0)
(0.342571 0.0483508 -2.00747e-17)
(0.433851 0.0513685 0)
(0.526175 0.0545888 1.98482e-17)
(0.608294 0.0593126 0)
(0.67941 0.0623453 0)
(0.754555 0.0626136 0)
(0.824011 0.0633131 0)
(0.90371 0.0604398 0)
(0.97747 0.0609434 -3.83964e-17)
(1.0533 0.0625021 -3.81773e-17)
(1.11366 0.0672813 0)
(1.16443 0.0663917 0)
(1.20935 0.0677272 0)
(1.24607 0.0636699 3.72528e-17)
(1.29409 0.0588346 0)
(1.34372 0.0571131 0)
(1.38884 0.0560303 0)
(1.43718 0.0539514 3.62324e-17)
(1.476 0.0561267 -3.59645e-17)
(1.52022 0.0526819 0)
(1.55915 0.0527338 0)
(1.60067 0.0532389 -3.51496e-17)
(1.62724 0.0582846 -3.48766e-17)
(1.65731 0.0549897 0)
(1.68631 0.0586999 0)
(1.72548 0.0557773 3.40434e-17)
(1.76196 0.0660216 -3.3764e-17)
(1.77011 0.0714205 0)
(1.78366 0.0707947 0)
(1.8089 0.0711394 -3.29272e-17)
(1.84208 0.0758852 0)
(1.85547 0.0834376 0)
(1.8669 0.089177 -3.20831e-17)
(1.86602 0.0933168 0)
(1.88014 0.0981484 -3.15231e-17)
(1.88186 0.105126 0)
(1.88748 0.10918 0)
(1.87446 0.120738 0)
(1.86104 0.126579 3.04338e-17)
(1.84596 0.133095 0)
(1.81409 0.142911 0)
(1.74223 0.154539 0)
(1.66555 0.154569 0)
(1.60031 0.156877 0)
(1.51055 0.165753 0)
(1.38252 0.172523 2.88933e-17)
(1.26346 0.173865 2.87393e-17)
(1.07927 0.1818 0)
(0.87286 0.184442 0)
(0.629993 0.183477 0)
(0.413759 0.169751 -2.8322e-17)
(0.191899 0.162684 0)
(0.0398914 0.146516 5.63491e-17)
(-0.160378 0.143887 -5.62392e-17)
(-0.263163 0.1236 -5.606e-17)
(-0.424323 0.126649 5.59562e-17)
(-0.459504 0.0965418 -5.57541e-17)
(-0.617448 0.129119 5.5734e-17)
(-0.565566 -0.00400915 0)
(0.0101372 0.248872 0)
(0.0145824 0.19207 0)
(0.0497033 0.00762935 -2.27961e-17)
(0.121058 -0.19861 0)
(0.236003 -0.384638 2.23649e-17)
(0.388346 -0.536029 2.22182e-17)
(0.569555 -0.644902 1.10437e-17)
(0.769504 -0.710856 1.09813e-17)
(0.976911 -0.737499 0)
(1.1812 -0.731258 1.08543e-17)
(1.37374 -0.695443 0)
(1.5472 -0.63715 0)
(1.69761 -0.562509 -2.13203e-17)
(1.82023 -0.478022 -1.05949e-17)
(1.91501 -0.386016 2.10558e-17)
(1.98014 -0.291373 2.09223e-17)
(2.01697 -0.198954 1.03955e-17)
(2.02559 -0.110819 0)
(2.00844 -0.02773 0)
(1.9655 0.0470684 0)
(1.90063 0.112601 1.01366e-17)
(1.81392 0.17175 0)
(1.71003 0.224656 -3.00372e-17)
(1.58779 0.267472 0)
(1.44952 0.302427 0)
(1.29575 0.332992 -9.83182e-18)
(1.12996 0.356952 0)
(0.954888 0.374219 9.71546e-18)
(0.77437 0.385257 1.93125e-17)
(0.589294 0.392503 -9.59748e-18)
(0.402441 0.394578 0)
(0.215077 0.390757 0)
(0.0268952 0.383433 0)
(-0.161622 0.376395 1.8731e-17)
(-0.348682 0.367706 1.86165e-17)
(-0.532983 0.355327 9.25124e-18)
(-0.711798 0.340464 0)
(-0.885633 0.32331 -1.82761e-17)
(-1.05054 0.30273 0)
(-1.20881 0.280824 1.80507e-17)
(-1.35879 0.258357 0)
(-1.50214 0.235551 0)
(-1.63729 0.215139 -1.77165e-17)
(-1.7652 0.196031 0)
(-1.88832 0.178079 -5.24862e-17)
(-2.00572 0.159308 1.73856e-17)
(-2.11651 0.140406 0)
(-2.22031 0.123547 1.71654e-17)
(-2.31796 0.105972 1.70552e-17)
(-2.40822 0.0864752 0)
(-2.48928 0.0675688 0)
(-2.56326 0.0530461 0)
(-2.63204 0.0435987 0)
(-2.69756 0.0387562 0)
(-2.75926 0.0373874 -1.63736e-17)
(-2.81913 0.0369427 -3.2515e-17)
(-2.87748 0.0370831 1.61413e-17)
(-2.93147 0.0345738 0)
(-2.98319 0.0306997 -3.18128e-17)
(-3.03277 0.0294113 1.57874e-17)
(-3.07954 0.0304014 0)
(-3.12731 0.0313237 1.55499e-17)
(-3.17287 0.0339751 0)
(-3.21638 0.0353054 0)
(-3.25827 0.0348006 3.03752e-17)
(-3.29917 0.0341262 -1.50673e-17)
(-3.33552 0.0319215 2.98917e-17)
(-3.36949 0.0289536 -2.96503e-17)
(-3.39776 0.0255891 -1.47046e-17)
(-3.42306 0.021261 0)
(-3.44197 0.013874 -1.44628e-17)
(-3.45381 0.00378168 0)
(-3.45988 -0.00688796 0)
(-3.45747 -0.0194678 0)
(-3.44583 -0.0337773 -1.39828e-17)
(-3.42591 -0.0478998 0)
(-3.39943 -0.0581645 -2.74947e-17)
(-3.3671 -0.0654237 4.08937e-17)
(-3.32935 -0.0740437 1.35161e-17)
(-3.28531 -0.0851909 0)
(-3.2333 -0.0979867 1.32876e-17)
(-3.17599 -0.110748 0)
(-3.11299 -0.122884 2.61238e-17)
(-3.04481 -0.133979 0)
(-2.97158 -0.144534 2.56807e-17)
(-2.89322 -0.153947 -5.09215e-17)
(-2.81092 -0.162866 -2.52468e-17)
(-2.72621 -0.170813 0)
(-2.63654 -0.178324 0)
(-2.54468 -0.183922 0)
(-2.45066 -0.188093 2.44065e-17)
(-2.35334 -0.192111 0)
(-2.25484 -0.194786 -2.40002e-17)
(-2.15638 -0.195147 0)
(-2.05737 -0.196713 7.08197e-17)
(-1.95842 -0.19606 2.34165e-17)
(-1.85888 -0.197053 2.32305e-17)
(-1.76143 -0.194276 0)
(-1.66639 -0.193607 0)
(-1.57076 -0.194446 0)
(-1.47274 -0.19507 0)
(-1.37567 -0.197479 0)
(-1.27304 -0.201647 4.43212e-17)
(-1.17679 -0.199675 4.39852e-17)
(-1.07725 -0.19973 0)
(-0.990044 -0.194011 -2.1675e-17)
(-0.894012 -0.194852 -2.1523e-17)
(-0.80724 -0.188071 0)
(-0.712849 -0.186976 -4.24432e-17)
(-0.634745 -0.186226 0)
(-0.5386 -0.196499 2.09374e-17)
(-0.452963 -0.190716 0)
(-0.347525 -0.199116 0)
(-0.253168 -0.195637 -4.10571e-17)
(-0.1402 -0.20445 0)
(-0.0362457 -0.204624 2.02719e-17)
(0.0889595 -0.21252 0)
(0.215216 -0.22016 0)
(0.351163 -0.224565 1.98867e-17)
(0.491811 -0.22901 1.97703e-17)
(0.637136 -0.234445 0)
(0.786416 -0.235002 -1.9533e-17)
(0.945784 -0.236185 0)
(1.10465 -0.22813 1.92964e-17)
(1.26913 -0.21857 3.83627e-17)
(1.41679 -0.212345 0)
(1.57378 -0.213753 0)
(1.71907 -0.213952 0)
(1.87886 -0.215484 0)
(2.02584 -0.210505 3.7231e-17)
(2.18027 -0.207296 1.11008e-16)
(2.31666 -0.188448 0)
(2.44067 -0.183265 0)
(2.55998 -0.172286 0)
(2.66474 -0.174087 -3.60802e-17)
(2.76696 -0.17878 0)
(2.86785 -0.178421 0)
(2.96278 -0.17676 7.06162e-17)
(3.05617 -0.176905 3.50341e-17)
(3.13177 -0.172248 3.47657e-17)
(3.21968 -0.17994 0)
(3.28407 -0.173801 0)
(3.35188 -0.17535 3.3921e-17)
(3.39936 -0.164554 -3.3615e-17)
(3.44518 -0.178627 0)
(3.47577 -0.175389 0)
(3.5102 -0.1911 -3.27218e-17)
(3.53875 -0.173229 9.7189e-17)
(3.55322 -0.168767 0)
(3.56388 -0.179693 0)
(3.57514 -0.191284 3.14601e-17)
(3.59577 -0.189184 0)
(3.59127 -0.182698 6.16266e-17)
(3.58941 -0.180884 -3.04722e-17)
(3.5619 -0.185201 0)
(3.55785 -0.194178 2.98461e-17)
(3.5332 -0.190548 5.90575e-17)
(3.52161 -0.192144 0)
(3.47453 -0.185261 0)
(3.45037 -0.194234 -2.85754e-17)
(3.40983 -0.186298 0)
(3.35243 -0.169395 5.58903e-17)
(3.25528 -0.150051 0)
(3.16325 -0.155102 0)
(3.04411 -0.146961 0)
(2.91589 -0.121847 0)
(2.72156 -0.102609 -2.66544e-17)
(2.56251 -0.075672 -2.64651e-17)
(2.27804 -0.0264516 0)
(2.00565 -0.0017692 0)
(1.67645 0.0229215 0)
(1.38081 0.0191105 2.59601e-17)
(1.04753 0.0233734 0)
(0.840003 0.0141467 -5.16727e-17)
(0.520023 0.0327808 5.16453e-17)
(0.405786 0.000956606 5.14974e-17)
(0.124758 0.0319424 5.14883e-17)
(0.124306 -0.0156648 5.13365e-17)
(-0.173128 0.0792711 5.14996e-17)
(0.0128022 -0.116874 0)
(0.0290388 0.0711843 0)
(0.121105 -0.0382552 0)
(0.228131 -0.241566 2.29132e-17)
(0.340171 -0.468506 2.26646e-17)
(0.474557 -0.693146 -2.25131e-17)
(0.618644 -0.875133 -2.24005e-17)
(0.772896 -1.00389 -1.48136e-21)
(0.924279 -1.07432 0)
(1.06956 -1.08525 0)
(1.19653 -1.04622 0)
(1.30553 -0.966446 0)
(1.39173 -0.857185 0)
(1.45754 -0.72669 6.47135e-17)
(1.49843 -0.58648 0)
(1.51724 -0.441616 -2.13054e-17)
(1.51215 -0.295077 -2.11691e-17)
(1.48604 -0.153542 0)
(1.43748 -0.0198855 0)
(1.37111 0.104143 0)
(1.28669 0.216759 0)
(1.18655 0.316201 -2.05028e-17)
(1.07153 0.399298 0)
(0.946659 0.471699 2.02487e-17)
(0.809205 0.536836 0)
(0.662041 0.591724 0)
(0.506525 0.636675 0)
(0.348044 0.67266 3.95252e-17)
(0.185593 0.699893 0)
(0.0216623 0.719331 -1.95223e-17)
(-0.143283 0.729701 3.87999e-17)
(-0.30751 0.732818 0)
(-0.474013 0.734471 0)
(-0.640722 0.731364 0)
(-0.806266 0.721759 -1.89165e-17)
(-0.968206 0.706401 -1.87957e-17)
(-1.12694 0.684805 0)
(-1.28089 0.657406 0)
(-1.42925 0.625797 3.68589e-17)
(-1.57062 0.591664 3.66192e-17)
(-1.71019 0.557223 -3.63811e-17)
(-1.84469 0.524401 0)
(-1.97733 0.490783 0)
(-2.10428 0.458502 0)
(-2.22749 0.429047 0)
(-2.34642 0.401315 3.52004e-17)
(-2.45931 0.372027 3.49668e-17)
(-2.56706 0.342359 -3.47348e-17)
(-2.66921 0.313808 0)
(-2.7653 0.285905 0)
(-2.85608 0.256917 0)
(-2.94155 0.230134 0)
(-3.0271 0.212409 3.35755e-17)
(-3.10677 0.196616 0)
(-3.18145 0.183555 0)
(-3.24965 0.175907 3.2878e-17)
(-3.31318 0.170871 3.26464e-17)
(-3.37135 0.16411 0)
(-3.42189 0.154846 -6.43596e-17)
(-3.4705 0.148048 3.19484e-17)
(-3.51516 0.141651 -3.1714e-17)
(-3.55407 0.137896 0)
(-3.59005 0.135192 0)
(-3.62001 0.13096 0)
(-3.64513 0.126731 0)
(-3.66767 0.121475 -3.05523e-17)
(-3.68604 0.113956 -6.06457e-17)
(-3.69841 0.106304 -3.00973e-17)
(-3.70729 0.0983163 2.98724e-17)
(-3.70873 0.0868311 0)
(-3.70488 0.0736303 -5.88392e-17)
(-3.69302 0.0575236 -5.83907e-17)
(-3.67569 0.0413544 -5.79457e-17)
(-3.6541 0.0234986 5.75038e-17)
(-3.62357 0.00108189 0)
(-3.58611 -0.0217371 8.49402e-17)
(-3.54273 -0.041384 0)
(-3.49461 -0.0569853 -2.78773e-17)
(-3.43786 -0.0709076 -2.76644e-17)
(-3.37315 -0.0866018 0)
(-3.30224 -0.103486 0)
(-3.22783 -0.120281 -5.40407e-17)
(-3.15116 -0.13523 0)
(-3.07047 -0.149548 -5.31938e-17)
(-2.9872 -0.163293 0)
(-2.89933 -0.177759 5.23552e-17)
(-2.8079 -0.189213 1.03882e-16)
(-2.71271 -0.199023 0)
(-2.61664 -0.208221 0)
(-2.51753 -0.215672 0)
(-2.41971 -0.221754 5.02905e-17)
(-2.32021 -0.22757 0)
(-2.21741 -0.232222 4.94684e-17)
(-2.11185 -0.235463 0)
(-2.00583 -0.234691 0)
(-1.89748 -0.234835 -9.65041e-17)
(-1.79188 -0.232489 0)
(-1.68435 -0.231982 -4.74613e-17)
(-1.58097 -0.226009 0)
(-1.47336 -0.226681 -4.66938e-17)
(-1.36653 -0.225783 0)
(-1.25756 -0.224816 0)
(-1.14996 -0.228583 0)
(-1.03957 -0.230734 -1.35691e-16)
(-0.939507 -0.222164 -4.4869e-17)
(-0.83055 -0.218769 0)
(-0.737561 -0.208181 0)
(-0.635999 -0.209486 0)
(-0.550678 -0.197212 0)
(-0.446708 -0.193447 4.32343e-17)
(-0.361018 -0.18828 -8.58332e-17)
(-0.254292 -0.20505 -4.26314e-17)
(-0.167479 -0.197313 8.46545e-17)
(-0.0481921 -0.213406 8.40915e-17)
(0.0532754 -0.209445 4.17597e-17)
(0.182985 -0.224631 0)
(0.295395 -0.225429 8.23937e-17)
(0.433891 -0.241611 0)
(0.56558 -0.250691 -8.12829e-17)
(0.713614 -0.257448 -4.03835e-17)
(0.859622 -0.261978 0)
(1.01427 -0.270216 7.97607e-17)
(1.16323 -0.273085 3.96271e-17)
(1.3251 -0.281039 0)
(1.48351 -0.2789 3.9089e-17)
(1.65699 -0.268603 -1.16506e-16)
(1.81649 -0.256727 0)
(1.98093 -0.256182 0)
(2.13297 -0.255953 0)
(2.29336 -0.259315 0)
(2.44995 -0.254789 -7.51547e-17)
(2.60604 -0.251757 -7.46562e-17)
(2.75749 -0.220965 0)
(2.89545 -0.21463 0)
(3.02687 -0.201106 0)
(3.14867 -0.199308 0)
(3.25561 -0.204424 0)
(3.37528 -0.207776 0)
(3.48831 -0.206761 -7.09521e-17)
(3.6012 -0.205961 -1.65178e-20)
(3.69666 -0.198411 0)
(3.8064 -0.209601 0)
(3.8966 -0.197131 -6.8608e-17)
(3.98898 -0.197925 0)
(4.06894 -0.177287 6.7427e-17)
(4.1383 -0.188127 6.68092e-17)
(4.18071 -0.17104 0)
(4.23531 -0.188889 0)
(4.27393 -0.164862 -6.49006e-17)
(4.32423 -0.155866 -1.28511e-16)
(4.35179 -0.16016 0)
(4.38485 -0.172199 0)
(4.42648 -0.163154 0)
(4.43968 -0.148812 -6.16918e-17)
(4.46843 -0.135706 6.10042e-17)
(4.46765 -0.135167 0)
(4.48723 -0.14134 1.19374e-16)
(4.47059 -0.129301 5.90332e-17)
(4.48755 -0.127888 -1.16773e-16)
(4.46464 -0.109192 0)
(4.46307 -0.116524 0)
(4.43246 -0.0950563 -1.12756e-16)
(4.39135 -0.0675427 -5.57214e-17)
(4.30655 -0.0381451 0)
(4.24298 -0.0362438 0)
(4.11062 -0.0184624 0)
(4.00104 0.0243575 0)
(3.78934 0.052307 -1.05597e-16)
(3.62072 0.096092 0)
(3.32253 0.166937 0)
(3.06418 0.191362 0)
(2.71497 0.219716 0)
(2.40025 0.203183 0)
(2.01111 0.187004 0)
(1.77387 0.153634 -1.00644e-16)
(1.36921 0.150541 0)
(1.24035 0.0828366 0)
(0.855762 0.105521 -1.9944e-16)
(0.849921 0.0234603 9.92607e-17)
(0.463604 0.112231 -9.94133e-17)
(0.659078 -0.127796 9.87927e-17)
(0.0206221 -0.0941054 0)
(0.125046 -0.269392 -4.69564e-17)
(0.247784 -0.489998 0)
(0.375677 -0.755475 -2.27969e-17)
(0.502286 -0.99914 0)
(0.618333 -1.18804 0)
(0.72293 -1.30578 2.2446e-17)
(0.803561 -1.34925 0)
(0.866504 -1.31958 0)
(0.905814 -1.23401 0)
(0.92801 -1.11143 0)
(0.930905 -0.962271 0)
(0.919334 -0.795145 -8.66176e-17)
(0.890618 -0.617905 -4.3026e-17)
(0.848262 -0.434987 4.27465e-17)
(0.791982 -0.253724 0)
(0.723831 -0.0808238 0)
(0.642477 0.0807865 0)
(0.55138 0.229686 0)
(0.450049 0.363175 0)
(0.341258 0.480838 -4.1151e-17)
(0.223199 0.582786 -4.08983e-17)
(0.097203 0.673581 4.0649e-17)
(-0.034596 0.749682 -4.04013e-17)
(-0.170525 0.812551 0)
(-0.309218 0.860767 0)
(-0.449452 0.896926 -3.9658e-17)
(-0.590057 0.92174 0)
(-0.731604 0.935953 0)
(-0.873717 0.944621 -3.89246e-17)
(-1.01643 0.95012 -3.86813e-17)
(-1.15705 0.947821 -3.84368e-17)
(-1.29464 0.938713 0)
(-1.42901 0.923389 0)
(-1.55883 0.901853 3.76931e-17)
(-1.68367 0.872127 0)
(-1.80456 0.836477 0)
(-1.92185 0.796884 -3.69484e-17)
(-2.0361 0.758748 3.66969e-17)
(-2.14876 0.720522 -3.64482e-17)
(-2.25494 0.68168 0)
(-2.35946 0.642197 0)
(-2.45991 0.605733 -7.14192e-17)
(-2.55756 0.571378 0)
(-2.64981 0.533206 -7.04532e-17)
(-2.73858 0.49509 -1.04963e-16)
(-2.82369 0.459223 1.04242e-16)
(-2.90351 0.422903 -6.90143e-17)
(-2.98014 0.385646 0)
(-3.0542 0.350038 0)
(-3.12784 0.321925 -6.7602e-17)
(-3.19877 0.297542 -3.35706e-17)
(-3.26336 0.272107 0)
(-3.32378 0.251165 0)
(-3.37958 0.235932 -3.28786e-17)
(-3.42992 0.219192 -6.52973e-17)
(-3.47403 0.200356 0)
(-3.51215 0.182545 6.43793e-17)
(-3.54642 0.168241 -6.39201e-17)
(-3.57531 0.154699 6.34642e-17)
(-3.59848 0.140846 0)
(-3.61545 0.127638 0)
(-3.62805 0.116516 0)
(-3.63536 0.105278 0)
(-3.63914 0.0951952 0)
(-3.63775 0.079666 6.07743e-17)
(-3.63192 0.0627145 0)
(-3.61928 0.0440821 0)
(-3.60071 0.0230132 0)
(-3.57799 0.000966609 1.18047e-16)
(-3.54966 -0.0231791 5.85912e-17)
(-3.51652 -0.0473305 5.81576e-17)
(-3.47834 -0.0745181 -1.15457e-16)
(-3.43372 -0.106091 5.73034e-17)
(-3.3857 -0.136335 -5.6884e-17)
(-3.3314 -0.16406 0)
(-3.27224 -0.190266 5.60372e-17)
(-3.20313 -0.21715 0)
(-3.12985 -0.242485 0)
(-3.05092 -0.264529 0)
(-2.97051 -0.28544 1.08719e-16)
(-2.88793 -0.304786 -5.39461e-17)
(-2.80206 -0.323982 -5.35328e-17)
(-2.71492 -0.342988 -1.06271e-16)
(-2.6238 -0.363054 -1.58216e-16)
(-2.53166 -0.379057 -5.23436e-17)
(-2.43472 -0.392141 0)
(-2.33806 -0.403666 -1.03071e-16)
(-2.23985 -0.411687 0)
(-2.14171 -0.41786 -1.52204e-16)
(-2.04285 -0.427733 0)
(-1.94514 -0.4341 -1.4983e-16)
(-1.84136 -0.440351 0)
(-1.73714 -0.441006 0)
(-1.62819 -0.442542 -4.87464e-17)
(-1.52075 -0.439406 0)
(-1.41 -0.43907 4.79722e-17)
(-1.30398 -0.434532 9.51561e-17)
(-1.19008 -0.436207 4.72035e-17)
(-1.08017 -0.437894 9.36493e-17)
(-0.961747 -0.438319 -9.28923e-17)