/*--------------------------------*- C++ -*----------------------------------*\
| =========                 |                                                 |
| \\      /  F ield         | OpenFOAM: The Open Source CFD Toolbox           |
|  \\    /   O peration     | Version:  dev                                   |
|   \\  /    A nd           | Web:      http://www.openfoam.org               |
|    \\/     M anipulation  |                                                 |
\*---------------------------------------------------------------------------*/
FoamFile
{
    version     2.0;
    format      ascii;
    class       volSymmTensorField;
    object      UPrime2Mean;
    location    "9.146";
}
// * * * * * * * * * * * * * * * * * * * * * * * * * * * * * * * * * * * * * //

dimensions      [0 2 -2 0 0 0 0];

internalField   nonuniform List<symmTensor> 
12225
(
(0.32946 0.0192623 0 0.069248 0 0)
(2.98826 0.0796676 0 0.078169 0 0)
(7.88589 0.112256 0 0.0768732 0 0)
(14.5446 0.148149 0 0.0755495 0 0)
(22.7188 0.132887 0 0.0764966 0 0)
(32.0893 0.200967 0 0.0746534 0 0)
(42.4088 0.0958153 0 0.076595 0 0)
(53.5599 0.200214 0 0.0738345 0 0)
(65.6616 -0.0285955 0 0.0775967 0 0)
(78.2668 0.125419 0 0.0736057 0 0)
(93.0225 -0.30639 0 0.0812987 0 0)
(107.372 -0.116111 0 0.0769809 0 0)
(127.996 -0.6723 0 0.0863012 0 0)
(145.703 -1.27751 0 0.134723 0 0)
(186.052 -1.41129 0 0.116461 0 0)
(198.628 -0.390377 0 2.39514 0 0)
(272.43 -33.5532 0 5.81114 0 0)
(576.067 -52.9712 0 18.838 0 0)
(0.377662 0.0567802 0 0.68879 0 0)
(3.15833 0.25216 0 0.732069 0 0)
(8.41672 0.361992 0 0.713938 0 0)
(15.4844 0.485212 0 0.706435 0 0)
(24.2141 0.452727 0 0.703307 0 0)
(34.4805 0.632559 0 0.683141 0 0)
(45.5552 0.295726 0 0.691942 0 0)
(58.5199 0.608675 0 0.658621 0 0)
(71.5187 -0.135521 0 0.682482 0 0)
(87.2048 0.282109 0 0.645836 0 0)
(102.848 -1.06553 0 0.711154 0 0)
(121.504 -0.766861 0 0.655391 0 0)
(142.941 -2.54323 0 1.06904 0 0)
(166.415 -4.49211 0 1.04683 0 0)
(199.895 -0.924773 0 3.10431 0 0)
(274.55 -9.97654 0 6.6108 0 0)
(281.169 -20.8473 0 8.73904 0 0)
(800.299 -185.28 0 64.7331 0 0)
(0.505228 0.0583366 0 2.14002 0 0)
(3.06603 0.424499 0 2.20192 0 0)
(8.4715 0.570324 0 2.15086 0 0)
(14.8628 0.851626 0 2.14234 0 0)
(24.2917 0.864153 0 2.11927 0 0)
(33.1731 1.05271 0 2.08207 0 0)
(45.2998 0.755788 0 2.07785 0 0)
(56.2397 0.885813 0 2.00707 0 0)
(69.7299 0.171674 0 2.05126 0 0)
(83.5038 0.016036 0 1.9589 0 0)
(98.2495 -1.12413 0 2.12218 0 0)
(115.741 -2.45022 0 2.09429 0 0)
(138.712 -3.59765 0 2.62239 0 0)
(154.977 -7.20189 0 2.83187 0 0)
(211.157 -13.0168 0 6.12577 0 0)
(223.544 -7.88504 0 6.38 0 0)
(353.292 -62.3013 0 31.0941 0 0)
(534.908 -192.653 0 98.3119 0 0)
(1.03003 0.0922902 0 4.66926 0 0)
(3.5516 0.61932 0 4.76578 0 0)
(9.07461 0.815544 0 4.64163 0 0)
(15.0764 1.14958 0 4.60088 0 0)
(24.6525 1.3124 0 4.55664 0 0)
(33.006 1.3493 0 4.48231 0 0)
(45.0347 1.26068 0 4.44738 0 0)
(55.2052 0.972642 0 4.34887 0 0)
(68.6455 0.474842 0 4.38071 0 0)
(80.7683 -0.284004 0 4.25706 0 0)
(96.0987 -1.33258 0 4.50659 0 0)
(110.59 -3.34442 0 4.37177 0 0)
(131.561 -4.7966 0 5.3021 0 0)
(152.363 -10.9789 0 5.6092 0 0)
(187.984 -11.4325 0 9.28919 0 0)
(238.601 -28.8806 0 16.8365 0 0)
(291.702 -58.9734 0 32.6911 0 0)
(415.055 -178.387 0 107.852 0 0)
(1.86373 0.364942 0 8.52053 0 0)
(5.01101 0.720039 0 8.72199 0 0)
(9.44218 1.13968 0 8.47089 0 0)
(16.2515 1.29408 0 8.36778 0 0)
(24.6659 1.70022 0 8.27822 0 0)
(33.9684 1.50163 0 8.14316 0 0)
(44.8513 1.59685 0 8.04255 0 0)
(55.5595 0.991754 0 7.91054 0 0)
(68.462 0.598767 0 7.85759 0 0)
(80.1752 -0.595883 0 7.75988 0 0)
(95.4361 -1.78176 0 7.96179 0 0)
(108.63 -4.23144 0 7.90929 0 0)
(128.184 -6.88537 0 9.02696 0 0)
(145.32 -12.2947 0 9.26932 0 0)
(174.079 -19.2115 0 14.5932 0 0)
(218.053 -25.9708 0 17.2189 0 0)
(233.812 -55.617 0 46.2785 0 0)
(326.866 -171.83 0 138.709 0 0)
(2.5635 0.750664 0 14.0364 0 0)
(6.32927 0.806923 0 14.3882 0 0)
(9.30746 1.53965 0 13.9584 0 0)
(17.1084 1.59379 0 13.7637 0 0)
(24.1586 2.11999 0 13.589 0 0)
(34.2899 1.93548 0 13.3571 0 0)
(44.0076 1.98992 0 13.1521 0 0)
(55.2096 1.41352 0 12.9114 0 0)
(67.3767 0.892417 0 12.775 0 0)
(78.9645 -0.38907 0 12.5742 0 0)
(94.4944 -1.74181 0 12.7751 0 0)
(105.902 -4.31696 0 12.6839 0 0)
(128.208 -7.27243 0 13.9873 0 0)
(138.031 -13.1641 0 14.6679 0 0)
(171.095 -21.8472 0 21.2547 0 0)
(191.624 -33.0573 0 24.6102 0 0)
(211.178 -55.9379 0 51.5947 0 0)
(265.885 -145.753 0 130.696 0 0)
(2.24727 0.722011 0 21.5269 0 0)
(5.54957 0.941121 0 22.143 0 0)
(9.20811 1.76339 0 21.3688 0 0)
(16.3534 2.0768 0 21.1811 0 0)
(23.992 2.44897 0 20.7825 0 0)
(33.39 2.54149 0 20.5494 0 0)
(43.6454 2.27248 0 20.0813 0 0)
(54.0908 1.92596 0 19.8514 0 0)
(66.5373 0.893935 0 19.4338 0 0)
(77.4203 -0.221963 0 19.2811 0 0)
(92.5896 -2.37645 0 19.2217 0 0)
(103.576 -4.82849 0 19.2645 0 0)
(123.738 -8.98835 0 20.4754 0 0)
(134.022 -14.2697 0 21.4541 0 0)
(161.667 -24.416 0 28.5227 0 0)
(169.509 -32.4253 0 32.0575 0 0)
(203.519 -59.0394 0 56.8925 0 0)
(190.417 -108.858 0 114.208 0 0)
(1.42649 0.598943 0 29.7469 0 0)
(4.32641 1.13463 0 30.6323 0 0)
(8.59048 1.92359 0 29.4852 0 0)
(15.2637 2.47183 0 29.314 0 0)
(23.225 2.77614 0 28.6688 0 0)
(32.2905 2.96168 0 28.4078 0 0)
(42.452 2.59591 0 27.6563 0 0)
(52.8299 2.18819 0 27.3759 0 0)
(64.4772 1.00349 0 26.6524 0 0)
(75.6716 -0.368257 0 26.4875 0 0)
(88.7133 -2.75804 0 26.1045 0 0)
(100.505 -5.74306 0 26.3294 0 0)
(115.634 -10.3312 0 27.0867 0 0)
(128.171 -15.8116 0 28.6022 0 0)
(144.774 -26.508 0 33.9203 0 0)
(152.138 -33.4776 0 37.4846 0 0)
(180.475 -54.9289 0 53.2078 0 0)
(139.687 -71.3539 0 83.7292 0 0)
(1.00876 0.521447 0 38.5156 0 0)
(3.78166 1.28766 0 39.7099 0 0)
(8.18649 2.03522 0 38.1726 0 0)
(14.7387 2.77873 0 38.0316 0 0)
(22.6698 3.00421 0 37.1218 0 0)
(31.6095 3.31357 0 36.8468 0 0)
(41.5351 2.80187 0 35.796 0 0)
(51.812 2.46935 0 35.4776 0 0)
(62.8754 1.03328 0 34.4691 0 0)
(73.8964 -0.287585 0 34.2693 0 0)
(85.7219 -3.05406 0 33.639 0 0)
(97.0867 -5.91325 0 33.8989 0 0)
(109.422 -10.9609 0 34.409 0 0)
(121.303 -16.0537 0 36.1289 0 0)
(131.318 -25.5814 0 40.015 0 0)
(138.243 -33.2282 0 44.7446 0 0)
(150.102 -47.35 0 52.4786 0 0)
(123.285 -58.7832 0 73.1452 0 0)
(0.612722 0.484515 0 49.6992 0 0)
(3.23813 1.44553 0 51.2871 0 0)
(7.74676 2.18567 0 49.191 0 0)
(14.2077 3.03451 0 49.1036 0 0)
(22.0063 3.27127 0 47.8145 0 0)
(30.8691 3.57621 0 47.5353 0 0)
(40.4991 3.06089 0 46.0742 0 0)
(50.6394 2.63141 0 45.7058 0 0)
(61.1692 1.15509 0 44.2866 0 0)
(71.8429 -0.301573 0 44.0434 0 0)
(82.7304 -3.1526 0 42.9996 0 0)
(93.2786 -6.05108 0 43.319 0 0)
(103.925 -11.1088 0 43.3203 0 0)
(113.794 -15.8625 0 45.1775 0 0)
(121.408 -24.5264 0 47.6832 0 0)
(125.848 -30.5926 0 51.9538 0 0)
(129.186 -40.744 0 56.4777 0 0)
(116.078 -48.418 0 69.0461 0 0)
(0.434413 0.516045 0 63.8899 0 0)
(2.9807 1.62671 0 65.9445 0 0)
(7.47388 2.38226 0 63.2533 0 0)
(13.8535 3.30832 0 63.1414 0 0)
(21.5035 3.56676 0 61.5079 0 0)
(30.2059 3.8553 0 61.0933 0 0)
(39.5692 3.35103 0 59.2858 0 0)
(49.4122 2.81173 0 58.691 0 0)
(59.4867 1.36086 0 56.9708 0 0)
(69.5944 -0.278058 0 56.4532 0 0)
(79.6945 -2.99481 0 55.1512 0 0)
(89.2335 -6.09686 0 55.2075 0 0)
(98.5552 -10.5711 0 54.8624 0 0)
(106.435 -15.4359 0 56.4107 0 0)
(112.603 -22.154 0 57.8561 0 0)
(115.138 -28.0714 0 61.5867 0 0)
(116.083 -35.2206 0 64.5538 0 0)
(109.628 -40.8219 0 71.4553 0 0)
(0.35653 0.540316 0 81.3786 0 0)
(2.83295 1.7439 0 84.0632 0 0)
(7.26543 2.55314 0 80.5962 0 0)
(13.5229 3.49872 0 80.4869 0 0)
(20.9993 3.80522 0 78.4009 0 0)
(29.4815 4.03176 0 77.8478 0 0)
(38.5424 3.55413 0 75.559 0 0)
(48.0156 2.91117 0 74.7346 0 0)
(57.5725 1.47104 0 72.5429 0 0)
(67.0688 -0.234755 0 71.7563 0 0)
(76.2851 -2.88638 0 70.0014 0 0)
(84.874 -5.87323 0 69.7428 0 0)
(92.7831 -9.97968 0 68.9081 0 0)
(99.2144 -14.3099 0 69.8626 0 0)
(103.931 -19.7589 0 70.5062 0 0)
(105.875 -24.6737 0 73.0116 0 0)
(106.031 -29.841 0 74.9546 0 0)
(101.783 -33.3269 0 78.6129 0 0)
(0.329418 0.568711 0 102.451 0 0)
(2.73741 1.80543 0 105.66 0 0)
(7.07216 2.6808 0 101.635 0 0)
(13.1613 3.58002 0 101.166 0 0)
(20.4423 3.92887 0 98.9019 0 0)
(28.6292 4.04876 0 97.8223 0 0)
(37.3653 3.6077 0 95.3082 0 0)
(46.3685 2.82458 0 93.859 0 0)
(55.3998 1.46344 0 91.423 0 0)
(64.1833 -0.354783 0 89.9723 0 0)
(72.5648 -2.77416 0 87.9461 0 0)
(80.157 -5.70661 0 86.9725 0 0)
(86.8805 -9.21837 0 85.7613 0 0)
(92.1429 -13.1089 0 85.7693 0 0)
(95.846 -17.3286 0 85.72 0 0)
(97.4311 -21.3968 0 86.8628 0 0)
(97.5337 -25.2426 0 87.8907 0 0)
(94.7286 -27.6988 0 89.4968 0 0)
(0.313796 0.572869 0 126.44 0 0)
(2.64199 1.77245 0 130.368 0 0)
(6.85119 2.66492 0 125.66 0 0)
(12.7368 3.45942 0 124.85 0 0)
(19.7756 3.78625 0 122.319 0 0)
(27.6285 3.79929 0 120.742 0 0)
(35.9724 3.32478 0 117.86 0 0)
(44.4845 2.47688 0 115.827 0 0)
(52.9237 1.12099 0 112.966 0 0)
(61.0197 -0.64336 0 110.876 0 0)
(68.5708 -2.91255 0 108.386 0 0)
(75.2963 -5.54566 0 106.66 0 0)
(81.0359 -8.60221 0 104.892 0 0)
(85.4864 -11.8269 0 103.888 0 0)
(88.5329 -15.1911 0 103.057 0 0)
(89.971 -18.3598 0 102.884 0 0)
(90.2734 -21.2799 0 102.897 0 0)
(88.3099 -22.9276 0 103.05 0 0)
(0.2994 0.524375 0 151.85 0 0)
(2.534 1.58005 0 156.351 0 0)
(6.58689 2.37467 0 151.222 0 0)
(12.2387 2.98387 0 149.783 0 0)
(18.9821 3.20648 0 147.225 0 0)
(26.4634 3.06365 0 144.912 0 0)
(34.3663 2.5224 0 141.823 0 0)
(42.358 1.58951 0 139.017 0 0)
(50.1971 0.259322 0 135.819 0 0)
(57.6186 -1.44641 0 132.942 0 0)
(64.4336 -3.5091 0 129.991 0 0)
(70.4143 -5.84768 0 127.419 0 0)
(75.4299 -8.42558 0 125.016 0 0)
(79.3179 -11.0786 0 123.014 0 0)
(82.0171 -13.7177 0 121.301 0 0)
(83.4354 -16.1832 0 119.962 0 0)
(84.018 -18.3825 0 118.873 0 0)
(82.8107 -19.4294 0 117.763 0 0)
(0.284104 0.393626 0 175.068 0 0)
(2.41553 1.14377 0 180.266 0 0)
(6.28651 1.66769 0 174.659 0 0)
(11.6767 1.99902 0 172.776 0 0)
(18.0861 1.99536 0 170.095 0 0)
(25.1688 1.65776 0 167.244 0 0)
(32.6036 0.976395 0 163.857 0 0)
(40.0748 -0.0332815 0 160.461 0 0)
(47.3351 -1.36837 0 156.844 0 0)
(54.1512 -2.981 0 153.33 0 0)
(60.3449 -4.85005 0 149.843 0 0)
(65.752 -6.8816 0 146.552 0 0)
(70.2675 -9.03659 0 143.455 0 0)
(73.8184 -11.1852 0 140.6 0 0)
(76.375 -13.2498 0 138.01 0 0)
(77.9017 -15.15 0 135.685 0 0)
(78.7839 -16.798 0 133.573 0 0)
(78.2353 -17.3964 0 131.375 0 0)
(0.26888 0.155884 0 190.175 0 0)
(2.29462 0.389512 0 195.847 0 0)
(5.96986 0.486495 0 189.953 0 0)
(11.0808 0.407101 0 187.81 0 0)
(17.14 0.0696612 0 185.064 0 0)
(23.8146 -0.539481 0 181.894 0 0)
(30.7875 -1.4094 0 178.315 0 0)
(37.7628 -2.53237 0 174.562 0 0)
(44.5046 -3.88277 0 170.651 0 0)
(50.8064 -5.42344 0 166.732 0 0)
(56.5152 -7.11093 0 162.84 0 0)
(61.5094 -8.88011 0 159.061 0 0)
(65.7134 -10.6765 0 155.425 0 0)
(69.098 -12.4221 0 151.963 0 0)
(71.6559 -14.041 0 148.698 0 0)
(73.376 -15.5116 0 145.654 0 0)
(74.5713 -16.7481 0 142.762 0 0)
(74.616 -17.0696 0 139.768 0 0)
(0.259232 -0.142918 0 190.148 0 0)
(2.19707 -0.535613 0 195.777 0 0)
(5.69311 -0.939949 0 189.947 0 0)
(10.5477 -1.49601 0 187.795 0 0)
(16.2911 -2.21726 0 185.092 0 0)
(22.6055 -3.12046 0 181.928 0 0)
(29.1826 -4.19474 0 178.374 0 0)
(35.7497 -5.43435 0 174.625 0 0)
(42.084 -6.80883 0 170.7 0 0)
(48.0078 -8.28955 0 166.748 0 0)
(53.3848 -9.82973 0 162.774 0 0)
(58.1268 -11.3869 0 158.888 0 0)
(62.1725 -12.908 0 155.076 0 0)
(65.5159 -14.3499 0 151.413 0 0)
(68.1559 -15.6472 0 147.872 0 0)
(70.0976 -16.8071 0 144.534 0 0)
(71.5747 -17.7541 0 141.286 0 0)
(72.1091 -17.9592 0 137.957 0 0)
(0.256064 -0.396687 0 174.334 0 0)
(2.13787 -1.30738 0 179.284 0 0)
(5.50228 -2.12958 0 173.955 0 0)
(10.1669 -3.07874 0 171.963 0 0)
(15.6767 -4.10788 0 169.482 0 0)
(21.7268 -5.23771 0 166.592 0 0)
(28.0199 -6.46116 0 163.341 0 0)
(34.3012 -7.77511 0 159.918 0 0)
(40.3607 -9.15112 0 156.313 0 0)
(46.0417 -10.5693 0 152.685 0 0)
(51.2188 -11.9876 0 149.001 0 0)
(55.8238 -13.3796 0 145.395 0 0)
(59.8033 -14.7004 0 141.813 0 0)
(63.1613 -15.9267 0 138.361 0 0)
(65.8959 -17.0071 0 134.978 0 0)
(68.0245 -17.9568 0 131.777 0 0)
(69.7163 -18.7145 0 128.623 0 0)
(70.614 -18.9024 0 125.424 0 0)
(0.257504 -0.54572 0 148.905 0 0)
(2.11004 -1.74822 0 152.861 0 0)
(5.38777 -2.82424 0 148.326 0 0)
(9.92474 -4.00814 0 146.609 0 0)
(15.2778 -5.21233 0 144.488 0 0)
(21.1509 -6.46179 0 142.035 0 0)
(27.2561 -7.74852 0 139.271 0 0)
(33.3514 -9.07436 0 136.366 0 0)
(39.2368 -10.4119 0 133.295 0 0)
(44.7686 -11.7513 0 130.204 0 0)
(49.8314 -13.0541 0 127.048 0 0)
(54.3658 -14.3073 0 123.954 0 0)
(58.3258 -15.4715 0 120.86 0 0)
(61.7168 -16.5377 0 117.872 0 0)
(64.5379 -17.4624 0 114.923 0 0)
(66.8113 -18.2645 0 112.126 0 0)
(68.6621 -18.8935 0 109.354 0 0)
(69.823 -19.1031 0 106.563 0 0)
(0.260367 -0.601443 0 120.009 0 0)
(2.10109 -1.89023 0 122.978 0 0)
(5.32168 -3.06856 0 119.331 0 0)
(9.77322 -4.34188 0 117.937 0 0)
(15.0213 -5.60049 0 116.232 0 0)
(20.7768 -6.8705 0 114.267 0 0)
(26.7581 -8.14162 0 112.055 0 0)
(32.7327 -9.41921 0 109.728 0 0)
(38.5076 -10.6779 0 107.265 0 0)
(43.9478 -11.9145 0 104.781 0 0)
(48.9454 -13.0954 0 102.24 0 0)
(53.4459 -14.2159 0 99.7416 0 0)
(57.408 -15.2416 0 97.2374 0 0)
(60.8366 -16.1725 0 94.8124 0 0)
(63.7317 -16.9715 0 92.4146 0 0)
(66.1185 -17.6583 0 90.1316 0 0)
(68.0914 -18.192 0 87.8671 0 0)
(69.4511 -18.4276 0 85.5924 0 0)
(0.26332 -0.590642 0 91.8663 0 0)
(2.10074 -1.83037 0 93.9809 0 0)
(5.28388 -2.99729 0 91.1906 0 0)
(9.67852 -4.24791 0 90.1172 0 0)
(14.8561 -5.4684 0 88.8181 0 0)
(20.5328 -6.68118 0 87.3235 0 0)
(26.4324 -7.87581 0 85.6431 0 0)
(32.3281 -9.05725 0 83.8715 0 0)
(38.0329 -10.2048 0 81.996 0 0)
(43.4167 -11.3172 0 80.0992 0 0)
(48.3777 -12.3674 0 78.1587 0 0)
(52.8638 -13.3539 0 76.2445 0 0)
(56.8372 -14.2492 0 74.3268 0 0)
(60.3011 -15.0557 0 72.4637 0 0)
(63.2572 -15.7454 0 70.6227 0 0)
(65.7326 -16.3333 0 68.863 0 0)
(67.8 -16.7901 0 67.1206 0 0)
(69.3126 -17.0396 0 65.3679 0 0)
(0.26639 -0.536817 0 66.9189 0 0)
(2.10457 -1.65114 0 68.3588 0 0)
(5.26254 -2.73112 0 66.3275 0 0)
(9.61942 -3.88411 0 65.5447 0 0)
(14.7497 -5.00382 0 64.6067 0 0)
(20.3741 -6.10612 0 63.525 0 0)
(26.2201 -7.18298 0 62.3109 0 0)
(32.0646 -8.23628 0 61.0254 0 0)
(37.7254 -9.2512 0 59.6667 0 0)
(43.0756 -10.2252 0 58.2871 0 0)
(48.0177 -11.1393 0 56.8784 0 0)
(52.5006 -11.9907 0 55.4839 0 0)
(56.489 -12.7602 0 54.0902 0 0)
(59.985 -13.4495 0 52.7317 0 0)
(62.9911 -14.0389 0 51.3918 0 0)
(65.5356 -14.5378 0 50.1062 0 0)
(67.6755 -14.9277 0 48.8367 0 0)
(69.3059 -15.1756 0 47.5558 0 0)
(0.268233 -0.462934 0 46.2794 0 0)
(2.10898 -1.41614 0 47.2179 0 0)
(5.25068 -2.36411 0 45.8174 0 0)
(9.58258 -3.37554 0 45.2795 0 0)
(14.6811 -4.35674 0 44.6383 0 0)
(20.2709 -5.31711 0 43.8946 0 0)
(26.0823 -6.25163 0 43.0607 0 0)
(31.8945 -7.15859 0 42.1735 0 0)
(37.5285 -8.02904 0 41.2382 0 0)
(42.8594 -8.85829 0 40.2851 0 0)
(47.7923 -9.6341 0 39.3153 0 0)
(52.2772 -10.3524 0 38.3528 0 0)
(56.2801 -11.001 0 37.3935 0 0)
(59.802 -11.5792 0 36.4556 0 0)
(62.8462 -12.0748 0 35.5325 0 0)
(65.4415 -12.4915 0 34.6435 0 0)
(67.6334 -12.8195 0 33.7688 0 0)
(69.3498 -13.0499 0 32.8828 0 0)
(0.269404 -0.383122 0 30.1513 0 0)
(2.11252 -1.16486 0 30.7355 0 0)
(5.24394 -1.95861 0 29.8255 0 0)
(9.5591 -2.80769 0 29.4783 0 0)
(14.6363 -3.63144 0 29.0663 0 0)
(20.2029 -4.43607 0 28.5858 0 0)
(25.9912 -5.21781 0 28.0466 0 0)
(31.7812 -5.97363 0 27.4711 0 0)
(37.3964 -6.69701 0 26.8651 0 0)
(42.7127 -7.3832 0 26.2468 0 0)
(47.6372 -8.02365 0 25.6189 0 0)
(52.1195 -8.61422 0 24.9946 0 0)
(56.1278 -9.14694 0 24.3737 0 0)
(59.6619 -9.61992 0 23.7651 0 0)
(62.7257 -10.0256 0 23.1671 0 0)
(65.3469 -10.3643 0 22.5895 0 0)
(67.5658 -10.6315 0 22.0226 0 0)
(69.3351 -10.8291 0 21.4471 0 0)
(0.269729 -0.304638 0 18.2076 0 0)
(2.11429 -0.919951 0 18.5517 0 0)
(5.23856 -1.55436 0 18.0011 0 0)
(9.53967 -2.23734 0 17.7951 0 0)
(14.5979 -2.90158 0 17.5521 0 0)
(20.1423 -3.55166 0 17.2676 0 0)
(25.9062 -4.18284 0 16.9474 0 0)
(31.6706 -4.79179 0 16.6045 0 0)
(37.2602 -5.37197 0 16.2428 0 0)
(42.5512 -5.9199 0 15.8728 0 0)
(47.4531 -6.42829 0 15.4963 0 0)
(51.9144 -6.8948 0 15.1212 0 0)
(55.9069 -7.31259 0 14.7478 0 0)
(59.4282 -7.68138 0 14.3811 0 0)
(62.4868 -7.99536 0 14.0207 0 0)
(65.1051 -8.25512 0 13.6718 0 0)
(67.3272 -8.45982 0 13.3298 0 0)
(69.124 -8.61024 0 12.9831 0 0)
(0.269371 -0.228299 0 9.87987 0 0)
(2.11202 -0.691372 0 10.0634 0 0)
(5.22133 -1.17882 0 9.76621 0 0)
(9.49617 -1.70859 0 9.66385 0 0)
(14.5242 -2.22306 0 9.53947 0 0)
(20.0352 -2.72353 0 9.39029 0 0)
(25.7621 -3.20568 0 9.21964 0 0)
(31.4886 -3.66702 0 9.03545 0 0)
(37.0389 -4.1018 0 8.83973 0 0)
(42.2928 -4.50847 0 8.63877 0 0)
(47.1587 -4.88142 0 8.43316 0 0)
(51.5898 -5.2208 0 8.22806 0 0)
(55.5569 -5.52083 0 8.02293 0 0)
(59.062 -5.78371 0 7.82172 0 0)
(62.1123 -6.00332 0 7.62348 0 0)
(64.7297 -6.18322 0 7.43221 0 0)
(66.9554 -6.32637 0 7.24547 0 0)
(68.7855 -6.42843 0 7.0573 0 0)
(0.268224 -0.154822 0 4.48496 0 0)
(2.08515 -0.497923 0 4.58056 0 0)
(5.16002 -0.852429 0 4.45539 0 0)
(9.39531 -1.22881 0 4.41976 0 0)
(14.3977 -1.58588 0 4.36869 0 0)
(19.8831 -1.92821 0 4.30428 0 0)
(25.5835 -2.2532 0 4.22697 0 0)
(31.284 -2.55857 0 4.1405 0 0)
(36.8112 -2.84274 0 4.04748 0 0)
(42.0444 -3.10688 0 3.95168 0 0)
(46.8935 -3.34808 0 3.85389 0 0)
(51.3153 -3.56719 0 3.75681 0 0)
(55.2766 -3.76046 0 3.65995 0 0)
(58.7876 -3.92997 0 3.56598 0 0)
(61.8444 -4.06959 0 3.47333 0 0)
(64.4806 -4.18465 0 3.38588 0 0)
(66.7035 -4.27514 0 3.30066 0 0)
(68.5618 -4.34519 0 3.21647 0 0)
(0.255324 -0.0881961 0 1.42065 0 0)
(2.06918 -0.313455 0 1.48636 0 0)
(5.20851 -0.52599 0 1.44632 0 0)
(9.50231 -0.734355 0 1.43317 0 0)
(14.5581 -0.924447 0 1.41306 0 0)
(20.0949 -1.10707 0 1.38979 0 0)
(25.8516 -1.28372 0 1.36316 0 0)
(31.6112 -1.45184 0 1.33383 0 0)
(37.2 -1.60979 0 1.30285 0 0)
(42.4923 -1.75737 0 1.27125 0 0)
(47.401 -1.89311 0 1.23944 0 0)
(51.8752 -2.017 0 1.20803 0 0)
(55.8864 -2.12702 0 1.17699 0 0)
(59.4371 -2.22384 0 1.14703 0 0)
(62.5274 -2.30337 0 1.11777 0 0)
(65.1952 -2.36958 0 1.09129 0 0)
(67.4179 -2.42219 0 1.06608 0 0)
(69.2682 -2.46167 0 1.03913 0 0)
(0.246004 -0.0253289 0 0.141809 0 0)
(2.06701 -0.0978237 0 0.153588 0 0)
(5.18738 -0.165554 0 0.150803 0 0)
(9.45031 -0.230792 0 0.149634 0 0)
(14.4874 -0.293686 0 0.147332 0 0)
(20.0115 -0.354014 0 0.144604 0 0)
(25.7615 -0.412833 0 0.141606 0 0)
(31.5188 -0.469328 0 0.138476 0 0)
(37.1147 -0.522671 0 0.135254 0 0)
(42.4249 -0.572673 0 0.132002 0 0)
(47.364 -0.619031 0 0.128745 0 0)
(51.879 -0.661715 0 0.125544 0 0)
(55.9437 -0.700154 0 0.122401 0 0)
(59.5531 -0.734204 0 0.119377 0 0)
(62.7136 -0.763129 0 0.116553 0 0)
(65.4582 -0.788375 0 0.114217 0 0)
(67.7711 -0.806592 0 0.112143 0 0)
(69.6991 -0.81588 0 0.111759 0 0)
(0.0244825 0.0357623 0 0.717254 0 0)
(0.267258 0.0991085 0 0.678321 0 0)
(0.785438 0.180928 0 0.671153 0 0)
(1.53885 0.29497 0 0.661938 0 0)
(2.48579 0.423953 0 0.660341 0 0)
(3.60808 0.568718 0 0.657073 0 0)
(4.88377 0.715731 -2.38344e-19 0.655105 -6.48351e-20 1.47787e-37)
(6.31 0.866603 2.42337e-19 0.650791 6.91316e-20 1.48237e-37)
(7.88008 1.01353 0 0.644775 0 0)
(9.592 1.16093 2.44741e-19 0.637199 6.8545e-20 1.46018e-37)
(11.4406 1.30493 0 0.628619 0 0)
(13.4199 1.44777 0 0.619531 0 0)
(15.5233 1.58484 0 0.611582 0 0)
(17.7445 1.71647 -2.77243e-19 0.60512 -5.16691e-20 1.34672e-37)
(20.0775 1.83952 0 0.598913 0 0)
(22.5227 1.95306 0 0.59369 0 0)
(25.0803 2.05291 3.40383e-19 0.589398 3.9023e-20 1.22028e-37)
(27.7488 2.1407 0 0.584946 0 0)
(30.5233 2.21912 0 0.58028 0 0)
(33.398 2.29041 0 0.575839 0 0)
(36.357 2.3536 -4.56266e-19 0.572508 -1.95718e-20 1.01735e-37)
(39.3907 2.40942 0 0.568753 0 0)
(42.4852 2.45596 -5.16031e-19 0.566494 -1.02955e-20 9.24834e-38)
(45.6313 2.49307 0 0.567699 0 0)
(48.8128 2.52691 0 0.568469 0 0)
(52.0157 2.5501 -6.04196e-19 0.570655 1.22732e-21 7.97369e-38)
(55.2329 2.55239 0 0.572498 0 0)
(58.4688 2.53506 6.57836e-19 0.570974 -6.94954e-21 7.21333e-38)
(61.7173 2.50411 0 0.563107 0 0)
(64.9843 2.4614 -7.02578e-19 0.552701 1.04988e-20 6.53725e-38)
(68.2683 2.4095 0 0.539133 0 0)
(71.5568 2.35088 0 0.523306 0 0)
(74.8422 2.28543 0 0.509269 0 0)
(78.1262 2.20936 0 0.497882 0 0)
(81.4026 2.1221 0 0.486315 0 0)
(84.6682 2.02661 7.79584e-19 0.4754 -1.40071e-20 4.59791e-38)
(87.9216 1.92276 0 0.463782 0 0)
(91.1639 1.81036 -1.56238e-18 0.447763 2.71618e-20 1.61334e-37)
(94.3935 1.691 0 0.432191 0 0)
(97.6054 1.56357 1.55247e-18 0.417571 -2.61782e-20 1.39947e-37)
(100.793 1.43056 0 0.402431 0 0)
(103.955 1.28836 0 0.39076 0 0)
(107.082 1.13792 -1.51458e-18 0.378196 2.159e-20 1.11269e-37)
(110.157 0.98521 0 0.365381 0 0)
(113.166 0.830503 -1.47611e-18 0.354565 1.82925e-20 9.43368e-38)
(116.092 0.672613 1.45367e-18 0.345692 -1.65582e-20 8.66422e-38)
(118.92 0.508889 0 0.339555 0 0)
(121.642 0.338928 1.40285e-18 0.334767 -1.25348e-20 7.34227e-38)
(124.242 0.163545 1.37463e-18 0.330869 -1.06692e-20 6.79578e-38)
(126.72 -0.0143512 0 0.327618 0 0)
(129.062 -0.1937 0 0.325495 0 0)
(131.248 -0.377287 0 0.322819 0 0)
(133.258 -0.56587 0 0.321611 0 0)
(135.071 -0.756712 0 0.323656 0 0)
(136.661 -0.946498 -1.17429e-18 0.327876 -4.40159e-21 5.01556e-38)
(137.999 -1.13772 0 0.332001 0 0)
(139.074 -1.33373 1.07957e-18 0.335711 1.14702e-20 4.75038e-38)
(139.887 -1.5364 0 0.340945 0 0)
(140.436 -1.7453 0 0.347739 0 0)
(140.704 -1.95134 -9.11723e-19 0.357042 -2.24587e-20 4.75091e-38)
(140.687 -2.15557 0 0.369002 0 0)
(140.367 -2.36065 7.80304e-19 0.381004 3.12415e-20 4.96803e-38)
(139.751 -2.56457 0 0.391292 0 0)
(138.834 -2.76843 0 0.404068 0 0)
(137.626 -2.9714 0 0.418223 0 0)
(136.14 -3.1671 -4.82007e-19 0.432634 -4.76065e-20 6.03388e-38)
(134.378 -3.35631 0 0.447351 0 0)
(132.355 -3.53943 0 0.460474 0 0)
(130.082 -3.71564 -2.26306e-19 0.474368 -6.12131e-20 7.30349e-38)
(127.579 -3.88964 0 0.490025 0 0)
(124.882 -4.05497 -5.07011e-20 0.50507 -6.99057e-20 8.30185e-38)
(122.004 -4.2071 0 0.519986 0 0)
(118.96 -4.34807 0 0.536312 0 0)
(115.785 -4.47964 0 0.553592 0 0)
(112.501 -4.60136 -3.04771e-19 0.571539 8.31816e-20 1.04527e-37)
(109.125 -4.71082 0 0.589539 0 0)
(105.675 -4.80472 0 0.607401 0 0)
(102.159 -4.88346 -5.64208e-19 0.625443 9.03358e-20 1.20157e-37)
(98.5921 -4.95142 -6.46049e-19 0.644177 9.18796e-20 1.2527e-37)
(95.0007 -5.0083 0 0.662954 0 0)
(91.4157 -5.05325 -7.99143e-19 0.682657 9.46526e-20 1.34692e-37)
(87.8579 -5.08698 0 0.703828 0 0)
(84.348 -5.10889 -1.87793e-18 0.725386 1.92616e-19 5.7443e-37)
(80.9004 -5.11784 0 0.748034 0 0)
(77.533 -5.11231 -2.12281e-18 0.770619 1.93745e-19 6.07582e-37)
(74.2643 -5.09039 0 0.793575 0 0)
(71.1087 -5.05548 2.3254e-18 0.819552 -1.93892e-19 6.3655e-37)
(68.0836 -5.00736 0 0.844581 0 0)
(65.2036 -4.94063 0 0.866895 0 0)
(62.4684 -4.85512 0 0.889601 0 0)
(59.8824 -4.75293 -2.5863e-18 0.914614 1.86307e-19 6.79907e-37)
(57.4514 -4.63644 0 0.939221 0 0)
(55.1847 -4.50393 2.64727e-18 0.963484 -1.8003e-19 6.94631e-37)
(53.085 -4.35516 0 0.987237 0 0)
(51.1413 -4.18418 -2.65931e-18 1.01081 1.73677e-19 7.03491e-37)
(49.3482 -3.99654 -2.65018e-18 1.03212 1.70441e-19 7.07015e-37)
(47.6939 -3.79628 -2.63122e-18 1.05336 1.66275e-19 7.09705e-37)
(46.1737 -3.58692 0 1.07576 0 0)
(44.7611 -3.36742 0 1.09887 0 0)
(43.4664 -3.13891 0 1.11844 0 0)
(42.2707 -2.90141 0 1.13825 0 0)
(41.1691 -2.66205 0 1.15813 0 0)
(40.1434 -2.42226 0 1.17714 0 0)
(39.1901 -2.17956 0 1.19225 0 0)
(38.2635 -1.93616 0 1.20825 0 0)
(37.3615 -1.6995 2.02631e-18 1.22357 -1.316e-19 7.07555e-37)
(36.4513 -1.47119 1.91226e-18 1.24075 -1.24269e-19 7.06928e-37)
(35.557 -1.25208 0 1.25242 0 0)
(34.6442 -1.04192 0 1.26545 0 0)
(33.7229 -0.855248 0 1.27947 0 0)
(32.7406 -0.678887 1.35434e-18 1.29209 -1.04637e-19 6.91138e-37)
(31.7976 -0.528551 0 1.29937 0 0)
(30.7861 -0.386271 0 1.3092 0 0)
(29.8291 -0.283395 0 1.31928 0 0)
(28.9005 -0.19985 0 1.33253 0 0)
(28.0699 -0.149565 -4.38556e-19 1.34098 7.57587e-20 6.66266e-37)
(27.3696 -0.12348 0 1.35034 0 0)
(26.8323 -0.132811 0 1.36379 0 0)
(26.5427 -0.175722 -2.23488e-19 1.37171 -6.55528e-20 6.42862e-37)
(26.4997 -0.244913 4.50502e-19 1.38445 6.11687e-20 6.30215e-37)
(26.754 -0.35454 0 1.40136 0 0)
(27.3588 -0.511225 9.13003e-19 1.41878 6.00954e-20 6.05321e-37)
(28.3805 -0.708315 0 1.43785 0 0)
(29.8795 -0.960336 -1.35457e-18 1.4555 -6.45129e-20 5.7563e-37)
(31.8766 -1.24683 0 1.47829 0 0)
(34.4467 -1.58276 0 1.50536 0 0)
(37.4859 -1.96056 0 1.53803 0 0)
(41.1029 -2.3888 0 1.57229 0 0)
(45.151 -2.84312 0 1.61048 0 0)
(49.6363 -3.34499 4.89967e-18 1.65271 2.04726e-19 1.97223e-36)
(54.4998 -3.89086 5.15491e-18 1.69895 2.30557e-19 1.93764e-36)
(59.7609 -4.47282 0 1.74746 0 0)
(65.225 -5.0752 0 1.80312 0 0)
(70.8441 -5.70215 0 1.85836 0 0)
(76.4703 -6.31591 -5.6952e-18 1.91913 -3.52372e-19 1.91767e-36)
(81.8805 -6.93072 0 1.99019 0 0)
(87.035 -7.5522 0 2.06249 0 0)
(91.8766 -8.16698 0 2.13893 0 0)
(96.3249 -8.75803 -5.3353e-18 2.21729 -5.33539e-19 2.0725e-36)
(100.342 -9.32355 5.10192e-18 2.30218 5.83268e-19 2.13489e-36)
(103.752 -9.84648 0 2.39163 0 0)
(106.656 -10.3559 0 2.48429 0 0)
(109.027 -10.8098 4.0815e-18 2.57877 7.35584e-19 2.36678e-36)
(110.862 -11.2282 3.65187e-18 2.6721 7.84498e-19 2.45203e-36)
(112.013 -11.572 0 2.77236 0 0)
(112.577 -11.886 0 2.87228 0 0)
(112.451 -12.128 -2.05336e-18 2.97621 -9.45934e-19 2.7198e-36)
(111.766 -12.3516 1.42387e-18 3.07114 9.89522e-19 2.79858e-36)
(110.566 -12.5048 0 3.16789 0 0)
(108.65 -12.6039 0 3.26846 0 0)
(106.14 -12.6365 -5.20458e-19 3.35932 1.11731e-18 3.06928e-36)
(102.999 -12.6153 0 3.44975 0 0)
(99.5117 -12.5562 0 3.53326 0 0)
(95.5182 -12.4064 -2.54674e-18 3.60569 1.20618e-18 3.30193e-36)
(91.2168 -12.1848 0 3.67763 0 0)
(86.5944 -11.8522 -3.83015e-18 3.73903 1.25712e-18 3.44473e-36)
(81.7087 -11.4342 0 3.79467 0 0)
(76.6018 -10.8984 0 3.83377 0 0)
(71.6606 -10.2645 0 3.85778 0 0)
(66.7825 -9.46648 5.8685e-18 3.8765 -1.27772e-18 3.68241e-36)
(62.1308 -8.54892 0 3.87995 0 0)
(57.9208 -7.47932 0 3.86791 0 0)
(54.4719 -6.28996 0 3.83998 0 0)
(51.6245 -4.91153 0 3.79792 0 0)
(49.5342 -3.4528 0 3.74741 0 0)
(48.8182 -1.89951 0 3.67528 0 0)
(49.6615 -0.276562 6.02035e-18 3.58548 -1.10413e-18 3.72707e-36)
(51.7307 1.436 5.60469e-18 3.48721 -1.04971e-18 3.70939e-36)
(55.4418 3.12768 0 3.3757 0 0)
(60.7033 4.75381 0 3.25778 0 0)
(67.5161 6.33332 0 3.12822 0 0)
(75.4587 7.80607 -3.05029e-18 2.99853 7.94835e-19 3.38349e-36)
(84.5884 9.10727 0 2.87035 0 0)
(94.1453 10.2952 2.94407e-18 2.73544 -1.35036e-18 1.23612e-35)
(104.025 11.2521 -1.30786e-18 2.60494 1.21762e-18 1.16603e-35)
(113.653 12.0413 3.19581e-19 2.47362 1.10469e-18 1.10176e-35)
(123.297 12.6907 -2.0244e-18 2.3488 -1.01396e-18 1.03329e-35)
(131.403 13.2307 3.67747e-18 2.22983 9.2255e-19 9.75876e-36)
(139.267 13.7062 -5.28326e-18 2.12251 -9.03123e-19 8.99346e-36)
(143.011 14.3979 0 2.06659 0 0)
(0.0183117 0.174222 0 6.09565 0 0)
(0.202703 0.387908 0 6.03371 0 0)
(0.629453 0.609782 1.31747e-19 5.86105 1.75882e-19 6.76244e-37)
(1.32701 0.854191 0 5.74032 0 0)
(2.26919 1.13334 -1.92366e-19 5.68049 -3.53462e-19 9.18897e-37)
(3.44545 1.43797 -1.84034e-19 5.65326 -4.41214e-19 9.71889e-37)
(4.83468 1.76248 -8.0768e-20 5.63778 -2.51262e-19 2.48794e-37)
(6.42254 2.10289 -6.90841e-20 5.61967 -2.70144e-19 2.61041e-37)
(8.2012 2.45192 0 5.5913 0 0)
(10.1686 2.80507 -4.23539e-20 5.5487 -2.6898e-19 2.59214e-37)
(12.3262 3.15351 0 5.49685 0 0)
(14.6723 3.49486 0 5.4373 0 0)
(17.1985 3.82395 9.50353e-20 5.36912 4.23735e-19 9.50463e-37)
(19.9056 4.14032 6.96398e-20 5.29735 1.86933e-19 2.33977e-37)
(22.7832 4.43428 -1.85619e-19 5.22229 -3.26388e-19 8.93068e-37)
(25.8251 4.70587 -2.51781e-19 5.14419 -2.81412e-19 8.65378e-37)
(29.0201 4.95662 -1.71186e-19 5.05986 -1.18569e-19 2.12618e-37)
(32.3618 5.18802 0 4.96909 0 0)
(35.8383 5.39838 0 4.87338 0 0)
(39.441 5.59225 0 4.77067 0 0)
(43.1466 5.76894 -3.86511e-19 4.66571 -3.67995e-20 1.80289e-37)
(46.9461 5.92571 0 4.56113 0 0)
(50.8167 6.05416 1.60865e-18 4.45454 -1.61716e-20 1.55093e-36)
(54.7458 6.15797 0 4.35152 0 0)
(58.7164 6.23875 0 4.24629 0 0)
(62.7109 6.29663 7.74797e-19 4.14201 -5.76987e-20 1.56407e-37)
(66.7019 6.32836 0 4.03597 0 0)
(70.6704 6.34314 -9.33003e-19 3.93529 8.17862e-20 1.4591e-37)
(74.5828 6.3346 -1.99368e-18 3.83527 1.81503e-19 5.56769e-37)
(78.4291 6.29751 1.07711e-18 3.73249 -9.87088e-20 1.36544e-37)
(82.2056 6.22883 0 3.62467 0 0)
(85.9121 6.13209 0 3.51937 0 0)
(89.5354 6.00972 0 3.41607 0 0)
(93.0792 5.86283 -2.57669e-18 3.30799 2.22674e-19 4.71152e-37)
(96.5355 5.68597 -2.65494e-18 3.20062 2.20217e-19 4.5502e-37)
(99.9179 5.47948 -1.37365e-18 3.09969 1.07553e-19 1.1073e-37)
(103.235 5.24176 0 3.00781 0 0)
(106.479 4.96798 2.83804e-18 2.91973 -2.03003e-19 4.12752e-37)
(109.66 4.65611 0 2.83457 0 0)
(112.771 4.31557 -2.87478e-18 2.75308 1.88466e-19 3.81526e-37)
(115.82 3.94744 0 2.67277 0 0)
(118.803 3.55948 0 2.60058 0 0)
(121.726 3.15559 2.82807e-18 2.52961 -1.54151e-19 3.31673e-37)
(124.574 2.73296 0 2.46425 0 0)
(127.329 2.28501 8.16168e-18 2.40624 -3.93703e-19 2.68441e-36)
(129.989 1.80748 -2.68942e-18 2.36088 1.19283e-19 2.8369e-37)
(132.556 1.30468 0 2.33373 0 0)
(135.048 0.776601 -2.54972e-18 2.31793 9.10195e-20 2.51734e-37)
(137.449 0.215757 -2.46906e-18 2.3117 7.67759e-20 2.36157e-37)
(139.756 -0.371435 0 2.31406 0 0)
(141.947 -0.970383 0 2.32749 0 0)
(144.003 -1.56692 0 2.34252 0 0)
(145.909 -2.1515 0 2.35603 0 0)
(147.627 -2.72848 0 2.37953 0 0)
(149.146 -3.30678 1.88401e-18 2.41224 1.44924e-20 1.71982e-37)
(150.443 -3.89389 3.45245e-18 2.45553 7.11289e-20 6.55437e-37)
(151.499 -4.48467 -1.64502e-18 2.50671 -5.59141e-20 1.59992e-37)
(152.325 -5.09386 0 2.56296 0 0)
(152.893 -5.7047 2.68783e-18 2.62622 1.9024e-19 6.01016e-37)
(153.177 -6.29525 -1.17027e-18 2.6944 -1.13246e-19 1.46757e-37)
(153.203 -6.88083 0 2.77115 0 0)
(152.922 -7.46053 -9.78195e-19 2.861 -1.48596e-19 1.494e-37)
(152.345 -8.01867 0 2.9541 0 0)
(151.467 -8.56748 0 3.05516 0 0)
(150.284 -9.09773 -1.04739e-18 3.16128 -3.96845e-19 6.25176e-37)
(148.782 -9.59926 4.22446e-19 3.27208 2.15199e-19 1.63662e-37)
(147.002 -10.0939 -4.88765e-19 3.39243 -4.62251e-19 6.68109e-37)
(144.934 -10.5671 2.11956e-19 3.51772 4.89242e-19 6.91888e-37)