/*--------------------------------*- C++ -*----------------------------------*\
| =========                 |                                                 |
| \\      /  F ield         | OpenFOAM: The Open Source CFD Toolbox           |
|  \\    /   O peration     | Version:  dev                                   |
|   \\  /    A nd           | Web:      http://www.openfoam.org               |
|    \\/     M anipulation  |                                                 |
\*---------------------------------------------------------------------------*/
FoamFile
{
    version     2.0;
    format      ascii;
    class       volScalarField;
    object      k_0;
    location    "9.141";
}
// * * * * * * * * * * * * * * * * * * * * * * * * * * * * * * * * * * * * * //

dimensions      [0 2 -2 0 0 0 0];

internalField   nonuniform List<scalar> 
12225
(
8.28109
11.2835
8.34222
9.83617
9.01046
11.8758
12.5392
15.0171
17.0017
18.4686
22.3116
22.4875
29.5123
27.0995
38.804
37.2958
38.3976
69.2646
1.46054
6.30681
5.58756
7.40353
5.59679
8.182
6.42762
9.26917
8.15616
10.3884
10.253
11.5004
13.8163
13.8237
17.602
22.3966
35.2629
82.1717
0.105165
1.67968
1.87334
3.00772
2.79054
3.53025
3.20991
3.60414
3.54113
3.63084
3.78389
3.39415
4.49636
3.75605
6.3237
6.69962
20.1419
63.3761
0.0181462
0.365948
0.520267
0.874021
1.15803
1.23615
1.56917
1.45285
1.69196
1.50719
1.59345
1.44534
1.53863
1.50376
1.73308
2.13166
8.6021
26.8398
0.00280428
0.0930356
0.169598
0.336431
0.512433
0.631044
0.824451
0.79281
0.93611
0.901175
0.951615
0.83284
0.935696
0.869877
1.52625
1.86529
3.88286
8.77791
0.0047833
0.0907093
0.103824
0.206352
0.269048
0.420993
0.483392
0.477174
0.566566
0.715694
0.752407
0.691283
0.785767
0.712615
0.987216
1.11022
2.12318
2.98478
0.010529
0.0456063
0.0567875
0.0739029
0.128246
0.138154
0.201175
0.190923
0.262619
0.281061
0.381658
0.275243
0.414652
0.320312
0.776802
0.458593
1.22869
1.30095
0.0193002
0.0400914
0.0520613
0.0635771
0.0799611
0.0906309
0.116884
0.120114
0.150854
0.18124
0.187702
0.173956
0.179654
0.210729
0.304784
0.40561
0.906581
0.894743
0.0344332
0.0621351
0.0648015
0.0681124
0.075789
0.0860497
0.102334
0.106626
0.126712
0.141607
0.149522
0.142914
0.150207
0.159877
0.212695
0.198368
0.330503
0.445721
0.0686703
0.112263
0.100119
0.101246
0.0945525
0.0978373
0.104152
0.108691
0.127267
0.131673
0.137194
0.13274
0.137831
0.135548
0.160253
0.161819
0.191438
0.208528
0.129183
0.18085
0.166414
0.167622
0.147605
0.146308
0.13618
0.138823
0.136062
0.140063
0.139123
0.136113
0.134064
0.132922
0.148627
0.144496
0.163967
0.167084
0.270863
0.306583
0.287967
0.280762
0.254289
0.243384
0.221854
0.211362
0.190528
0.175069
0.164806
0.156886
0.149051
0.145829
0.146367
0.146734
0.152196
0.158976
0.505682
0.503094
0.466634
0.442569
0.38838
0.365702
0.32546
0.309538
0.276819
0.255623
0.229718
0.212254
0.194263
0.182788
0.175149
0.168885
0.166803
0.166215
0.858696
0.81286
0.733559
0.670579
0.581967
0.537928
0.48263
0.447981
0.396473
0.362265
0.336097
0.317615
0.293747
0.272437
0.248961
0.232896
0.218956
0.208991
1.37437
1.30796
1.20367
1.06864
0.943505
0.848164
0.753547
0.668823
0.586877
0.520571
0.464283
0.418828
0.376673
0.343539
0.311052
0.287868
0.264133
0.247589
2.00204
1.82056
1.61156
1.37
1.1716
1.01007
0.873865
0.75943
0.661623
0.581182
0.512052
0.456149
0.405918
0.366506
0.32948
0.301969
0.274515
0.255115
2.22853
1.97098
1.71851
1.44819
1.23167
1.05442
0.907278
0.784951
0.682122
0.596751
0.523384
0.464092
0.411267
0.369852
0.331396
0.302472
0.274289
0.253972
2.20954
1.9403
1.69395
1.433
1.22213
1.04738
0.901277
0.779254
0.675712
0.58962
0.516181
0.456717
0.403993
0.36262
0.32457
0.295879
0.268267
0.248056
1.76762
1.61028
1.46894
1.27068
1.10405
0.958549
0.831847
0.72205
0.627258
0.547916
0.479948
0.42537
0.376896
0.338733
0.303762
0.277139
0.251147
0.232274
1.16594
1.05526
0.984907
0.900398
0.823099
0.742043
0.660828
0.582938
0.510748
0.448332
0.39388
0.350772
0.312271
0.282324
0.254746
0.233797
0.212322
0.197603
0.673665
0.621022
0.584062
0.527102
0.478159
0.433836
0.393752
0.353178
0.312831
0.276527
0.241367
0.214726
0.19235
0.176298
0.162232
0.152295
0.141194
0.134162
0.39196
0.366197
0.351512
0.325065
0.303821
0.284565
0.257564
0.231581
0.203509
0.177235
0.159748
0.148846
0.140137
0.13435
0.128425
0.12438
0.118896
0.114791
0.190766
0.196586
0.195069
0.181261
0.171711
0.157305
0.149606
0.147392
0.143618
0.138956
0.135462
0.13286
0.129144
0.126579
0.122972
0.120486
0.11663
0.113167
0.0963974
0.0971968
0.0939781
0.0938642
0.099483
0.109184
0.121195
0.129478
0.133233
0.134678
0.135797
0.136695
0.137744
0.138113
0.137728
0.13664
0.134686
0.131508
0.0396194
0.0422445
0.0554083
0.0724742
0.0883898
0.108227
0.130471
0.150495
0.16514
0.174972
0.184092
0.191322
0.198085
0.203712
0.206385
0.205971
0.204883
0.202522
0.0106901
0.0263779
0.0561961
0.105668
0.153926
0.204871
0.256582
0.300365
0.332711
0.35481
0.375687
0.389891
0.401626
0.409692
0.411741
0.409706
0.405054
0.397391
0.00758801
0.0685053
0.205381
0.37898
0.525223
0.656076
0.760774
0.831687
0.872515
0.89265
0.913697
0.921791
0.925302
0.922186
0.914928
0.902349
0.87808
0.858105
0.0734562
0.51702
1.1385
1.56297
1.84445
2.06378
2.18492
2.23289
2.22741
2.20384
2.17223
2.13015
2.0832
2.03288
1.96955
1.90371
1.82674
1.77975
1.00932
3.70496
4.8956
5.10456
4.99186
4.85899
4.67845
4.55445
4.46548
4.37949
4.27844
4.16533
4.05193
3.93228
3.81802
3.6896
3.58251
3.47203
6.64897
10.8096
10.4145
9.19321
8.26326
7.99317
8.00227
8.19254
8.46119
8.7463
8.97948
9.18924
9.3401
9.4536
9.52307
9.56235
9.57572
9.50701
0.139877
0.217257
0.22714
0.236459
0.241645
0.250728
0.266079
0.287575
0.316801
0.350714
0.392089
0.444842
0.502283
0.554838
0.610822
0.690781
0.819105
0.942023
1.03062
1.19699
1.37121
1.52881
1.80089
2.05229
2.34128
2.7297
3.05288
3.3258
3.45525
3.40697
3.40515
3.5211
3.60147
3.67604
3.75818
3.90619
4.10924
4.33274
4.65108
5.02653
5.25649
5.38875
5.58386
6.00293
6.51047
6.94276
7.3273
7.6855
8.01804
8.30221
8.57215
8.84983
9.10781
9.35459
9.60304
9.85183
10.1045
10.3364
10.5703
10.8088
11.0494
11.2686
11.4899
11.6916
11.8458
11.9762
12.0845
12.1768
12.2437
12.2645
12.2697
12.2597
12.2214
12.1561
12.0245
11.803
11.4862
11.0318
10.4898
9.91417
9.33937
8.78893
8.25572
7.73549
7.21339
6.66238
6.14273
5.60033
5.19258
4.91052
4.67684
4.47117
4.19994
3.92081
3.70956
3.4652
3.25182
3.00011
2.87861
2.85809
2.92343
3.14203
3.4218
3.56487
3.64265
3.67818
3.62315
3.29853
2.80518
2.27265
1.86562
1.6625
1.57846
1.55173
1.53299
1.51867
1.55633
1.51847
1.52638
1.9251
3.86113
5.64059
6.73632
7.49824
8.09454
8.74366
9.79353
10.2387
9.7108
8.224
7.60389
7.24477
7.58306
8.59112
9.72906
10.4083
11.1
12.6032
14.1799
14.2246
13.4713
14.7645
15.4865
12.7198
11.9414
12.8174
13.2238
13.2432
12.9991
12.9556
12.4569
11.4317
10.3526
9.44193
8.76158
8.02534
7.33261
6.77557
6.52745
6.32226
6.15721
5.4271
4.49479
4.59822
5.64425
5.66909
4.82885
5.04726
5.25124
5.22461
6.48958
7.68815
8.95146
9.96753
10.7217
11.91
13.3172
14.2724
15.2076
16.4549
0.549256
0.237437
0.221528
0.218473
0.210937
0.210082
0.218885
0.241541
0.276566
0.310948
0.340891
0.365922
0.387064
0.397447
0.394819
0.369767
0.354308
0.347549
0.335773
0.340593
0.355791
0.37338
0.414717
0.478414
0.556827
0.763686
0.932366
1.27424
1.63759
1.79299
1.89312
1.86858
1.69222
1.33659
1.02199
0.880869
0.841614
0.836465
0.878464
1.07127
1.19873
1.20136
1.21913
1.34069
1.70544
2.09321
2.3029
2.50568
2.67547
2.83025
3.0039
3.19068
3.3729
3.51273
3.66054
3.81496
3.93297
3.99598
4.04018
4.11335
4.17176
4.18642
4.1807
4.14052
4.03442
3.96434
3.84284
3.74921
3.65036
3.55039
3.47254
3.35342
3.21769
3.04021
2.81332
2.57252
2.31069
2.09474
1.91959
1.79101
1.69649
1.61165
1.53437
1.44056
1.32738
1.21177
1.14544
1.11909
1.12518
1.16028
1.16867
1.15085
1.10191
1.0733
1.02097
0.972259
0.912025
0.89997
0.991834
1.05846
1.09893
1.2216
1.45209
1.68866
1.80278
2.0155
2.34709
2.36627
2.15249
1.75794
1.34713
1.13112
1.04425
1.04707
1.12475
1.25336
1.54531
2.17442
3.43112
4.20183
4.55537
4.9522
4.91095
4.86314
4.76334
4.89579
5.07236
4.65996
3.36412
2.91842
2.95373
3.05832
3.66683
4.96088
6.39263
7.10747
7.57319
8.49865
8.86234
7.97963
6.98018
8.09748
7.01941
4.6502
4.71381
5.81367
7.25853
7.71008
7.80445
8.12398
9.23964
9.25522
9.04094
8.51738
7.97557
7.3152
6.58317
5.92806
5.86271
5.82981
5.68405
5.1731
3.96565
3.90284
4.83072
5.99634
5.0661
4.64977
4.25529
4.40629
5.12228
6.17637
6.96473
7.13461
6.97084
7.17459
8.05832
9.09548
11.1446
13.648
1.5132
0.353248
0.241941
0.231082
0.217938
0.218823
0.242301
0.304408
0.386059
0.463476
0.536001
0.554097
0.545999
0.52467
0.510376
0.477694
0.412005
0.353289
0.297658
0.260725
0.246781
0.235239
0.226883
0.228982
0.237242
0.259723
0.303918
0.417027
0.546484
0.798473
0.958811
0.973482
0.945843
0.850297
0.6795
0.553215
0.518368
0.524481
0.601625
0.668278
0.769217
1.00437
1.11322
1.1869
1.26019
1.32415
1.36776
1.40898
1.45574
1.52362
1.55903
1.57017
1.56145
1.53224
1.50563
1.48186
1.45112
1.41161
1.39126
1.37517
1.34184
1.2885
1.2179
1.14481
1.06595
1.0156
0.954025
0.914821
0.879442
0.84052
0.808274
0.763898
0.709702
0.64834
0.577554
0.520188
0.475416
0.451728
0.438817
0.434843
0.436836
0.441211
0.439603
0.43235
0.418631
0.407421
0.405653
0.410185
0.439898
0.48359
0.504509
0.508778
0.508808
0.509653
0.496548
0.451472
0.400064
0.394936
0.458097
0.515286
0.527337
0.565119
0.622666
0.711986
0.758246
0.85325
1.07849
1.37049
1.46069
1.35958
1.13142
0.877053
0.801787
0.826999
1.00046
1.37583
2.17418
3.10904
3.66516
3.84466
3.31449
2.80018
2.6103
2.41276
2.33769
2.34022
2.31661
1.89995
1.48091
1.44894
1.76838
2.13739
2.63716
3.06637
3.63785
4.12437
5.01423
5.58925
5.22749
4.14649
3.67116
4.2413
3.91503
2.64767
2.59449
3.06111
3.90815
4.43491
4.42321
4.49086
5.17222
5.43551
5.71286
5.67403
5.57818
5.28789
4.88293
4.26865
4.13553
4.37229
4.4547
4.29038
3.54765
3.52417
4.5985
5.86538
4.39344
3.80404
3.51428
3.9018
4.09674
4.57629
4.52957
4.24582
4.06666
4.27357
5.0504
6.68838
8.65766
9.60873
3.46608
0.687008
0.324614
0.267425
0.243766
0.25749
0.32931
0.491887
0.644354
0.743515
0.751601
0.707998
0.62801
0.570937
0.542058
0.519918
0.475345
0.399086
0.325507
0.275128
0.247916
0.227017
0.209467
0.190725
0.177332
0.17648
0.180752
0.200703
0.24817
0.364698
0.49138
0.598199
0.619603
0.605144
0.594241
0.593221
0.602018
0.678987
0.782253
0.805968
0.8208
0.899927
0.907637
0.860519
0.843973
0.844614
0.839388
0.816232
0.816576
0.827663
0.835181
0.827149
0.789628
0.722076
0.658048
0.623822
0.603848
0.586205
0.573397
0.554324
0.526937
0.487731
0.448389
0.412122
0.379858
0.363012
0.348067
0.338408
0.332561
0.32364
0.315749
0.307427
0.295992
0.284747
0.270824
0.263743
0.260577
0.259829
0.2626
0.267258
0.274472
0.281667
0.287451
0.290273
0.291756
0.293266
0.298458
0.310536
0.330983
0.358456
0.374161
0.378657
0.379802
0.37976
0.363412
0.319378
0.276491
0.273114
0.304101
0.365112
0.392864
0.435191
0.484573
0.510675
0.517555
0.539057
0.625815
0.800529
0.967565
1.04052
0.9693
0.780747
0.733182
0.803815
1.05999
1.86937
2.68887
3.08818
3.22542
2.70707
2.06825
1.86147
1.7865
1.59298
1.51265
1.46989
1.42502
1.22783
1.09047
1.19085
1.41944
1.70715
2.18546
2.51665
2.66101
2.95799
3.44003
3.90789
3.9124
3.17595
2.80697
3.02502
2.91667
2.32765
2.09823
2.30858
2.72425
3.3083
3.19472
3.01229
3.28168
3.45874
3.75925
3.82487
3.99821
3.93473
3.82784
3.55596
3.28679
3.44312
3.73279
3.79299
3.33203
3.39701
4.6172
4.606
3.92533
3.43331
3.15146
3.30843
3.78025
4.01174
3.50456
3.17529
3.16385
3.50816
4.35273
5.88339
6.93088
6.44832
6.0743
1.38396
0.537953
0.338645
0.311819
0.36123
0.530661
0.822513
0.941852
0.946598
0.858938
0.745963
0.644037
0.561374
0.524956
0.506809
0.475539
0.403822
0.329826
0.284267
0.254477
0.228186
0.200274
0.176893
0.157252
0.145709
0.145906
0.153141
0.173848
0.221724
0.36784
0.463999
0.480251
0.496125
0.527765
0.664125
0.848443
0.830725
0.723157
0.66808
0.635773
0.581912
0.563223
0.556343
0.560258
0.565889
0.559065
0.523528
0.468052
0.450924
0.446617
0.437657
0.412951
0.364567
0.324822
0.309744
0.302299
0.29654
0.29104
0.283602
0.272116
0.256819
0.242451
0.229441
0.221862
0.219027
0.217399
0.216749
0.217047
0.217488
0.217872
0.219049
0.219926
0.220875
0.221212
0.223018
0.22604
0.229948
0.235302
0.241369
0.247955
0.254269
0.260481
0.266044
0.27289
0.278078
0.283867
0.29676
0.310407
0.324371
0.341509
0.347031
0.347584
0.344912
0.321028
0.283945
0.252487
0.249224
0.262238
0.296176
0.352345
0.409313
0.460433
0.470821
0.458512
0.457636
0.483664
0.541078
0.632769
0.748949
0.765358
0.684976
0.682277
0.828289
1.29328
2.21481
2.67263
2.76603
2.36221
1.79625
1.56309
1.53929
1.47518
1.29924
1.21339
1.19026
1.14374
1.03286
0.978605
1.08147
1.14594
1.3464
1.99325
2.43722
2.46756
2.49792
2.65594
2.77359
3.15419
2.95744
2.65649
2.94196
2.89969
2.29532
1.9586
2.10054
2.34646
2.73643
2.69866
2.42305
2.45393
2.57746
2.77664
2.98691
3.09243
3.26865
3.12923
3.14836
3.14228
3.09431
3.33367
3.47301
3.27151
3.38025
4.62008
3.75859
3.75066
3.48822
3.12743
2.93621
3.52694
3.74909
3.14916
2.81101
2.89213
3.35194
4.11883
5.1461
5.50382
4.34975
9.17604
2.22347
0.838333
0.490518
0.49999
0.656731
1.0937
1.23815
1.23045
1.07583
0.879203
0.737371
0.628443
0.534123
0.477965
0.461414
0.440459
0.380347
0.318358
0.279343
0.253802
0.225068
0.190708
0.1637
0.145007
0.134279
0.131699
0.133474
0.144391
0.175762
0.255483
0.339109
0.402425
0.451439
0.53926
0.72317
0.803096
0.765466
0.575003
0.476319
0.42001
0.385055
0.373242
0.369315
0.371875
0.375388
0.373546
0.356966
0.316172
0.282354
0.266929
0.255785
0.239696
0.218259
0.206964
0.203363
0.202391
0.203258
0.203983
0.202598
0.199895
0.196802
0.19408
0.192008
0.191555
0.192258
0.193626
0.195534
0.197922
0.200008
0.201804
0.204628
0.208323
0.212589
0.215482
0.219278
0.223912
0.228379
0.234452
0.240497
0.24644
0.252426
0.258435
0.263025
0.269549
0.273927
0.277114
0.283773
0.291892
0.296362
0.300447
0.30404
0.305405
0.298833
0.276107
0.256475
0.24745
0.237553
0.243126
0.251654
0.292196
0.379405
0.417392
0.418921
0.413077
0.433576
0.442774
0.451099
0.48677
0.557011
0.609566
0.606934
0.647203
0.852294
1.51844
2.25939
2.51082
2.13034
1.76879
1.48384
1.40882
1.38702
1.22702
1.1227
1.05522
1.04027
1.04932
0.959828
0.944262
1.03837
1.00821
1.08523
1.56825
2.40897
2.49191
2.3983
2.29273
2.34588
2.58188
2.52455
2.48278
2.6541
2.65228
2.12508
1.90199
1.98727
2.18247
2.38986
2.44739
2.23961
2.11831
2.25394
2.40057
2.69822
2.69794
2.82239
2.84599
2.86557
3.05229
2.81313
2.97714
3.22406
3.26875
3.3902
4.53446
3.70545
3.62538
3.44981
3.46618
2.75363
3.40568
3.56018
2.92943
2.65835
2.80826
3.33343
3.9074
4.37024
4.26073
3.18933
12.6736
2.99396
1.14423
0.852286
1.083
1.54011
1.65564
1.53017
1.26871
0.999465
0.769248
0.622371
0.527616
0.453226
0.414322
0.383363
0.342039
0.304435
0.286487
0.266662
0.238514
0.205351
0.174887
0.15038
0.135388
0.130301
0.130443
0.132762
0.142426
0.172404
0.250177
0.342133
0.399621
0.485109
0.622084
0.713667
0.711024
0.559859
0.407528
0.330349
0.284822
0.267778
0.264561
0.265448
0.267654
0.266673
0.261302
0.246684
0.221812
0.201055
0.192034
0.18477
0.178178
0.172584
0.172027
0.173716
0.176513
0.180684
0.184563
0.185604
0.186081
0.186397
0.186878
0.187524
0.188731
0.190609
0.192786
0.194476
0.196846
0.199243
0.201518
0.204547
0.208885
0.21368
0.217728
0.223403
0.229253
0.2349
0.242003
0.248461
0.253839
0.260188
0.266023
0.269099
0.273817
0.276157
0.276944
0.27727
0.277717
0.274598
0.273183
0.270585
0.270095
0.269138
0.254228
0.240361
0.243885
0.229062
0.22151
0.225122
0.23712
0.286829
0.340788
0.357809
0.393237
0.425994
0.434501
0.422802
0.426254
0.452086
0.500942
0.551136
0.643688
0.926101
1.64151
2.15169
2.15627
1.79636
1.59045
1.41983
1.35682
1.21596
1.08861
0.991717
0.950346
0.986931
0.99907
0.938487
0.913515
1.03208
0.939184
0.92503
1.15014
1.82236
2.23186
2.34036
2.30092
2.37349
2.50058
2.41276
2.32245
2.28459
2.13436
1.83227
1.94913
1.92849
2.08879
2.16935
2.32662
2.07865
2.00209
2.0779
2.1881
2.44001
2.42315
2.45406
2.72813
2.72009
2.81802
2.63096
2.71835
2.94392
3.21916
3.39507
4.13813
3.75473
3.36482
3.30064
3.6424
2.63864
3.1447
3.23516
2.78743
2.59662
2.77893
3.26973
3.6381
3.79684
3.35045
2.64207
16.4441
3.6475
1.67015
1.89344
2.1876
2.14417
1.79729
1.37572
0.924528
0.646115
0.543961
0.482747
0.405169
0.344196
0.305743
0.278132
0.258527
0.245445
0.23668
0.224756
0.20873
0.189566
0.166122
0.148525
0.138335
0.133843
0.133279
0.135827
0.149122
0.190458
0.282649
0.38679
0.497088
0.595827
0.644982
0.62516
0.476952
0.358317
0.280391
0.228368
0.202251
0.193407
0.190914
0.191225
0.193072
0.19275
0.190566
0.18355
0.170952
0.162812
0.159001
0.157608
0.158435
0.161546
0.166157
0.170347
0.174216
0.179472
0.183603
0.185099
0.185989
0.186925
0.187906
0.18909
0.191007
0.192692
0.194098
0.194898
0.197116
0.200503
0.20382
0.207566
0.213166
0.219772
0.226857
0.235957
0.243778
0.249424
0.258655
0.268218
0.276175
0.286082
0.291109
0.292712
0.29175
0.289392
0.28477
0.278761
0.27738
0.270009
0.263664
0.257587
0.252175
0.256405
0.254676
0.233457
0.226744
0.224643
0.21036
0.214795
0.222484
0.244207
0.303034
0.328796
0.372473
0.41009
0.425691
0.41381
0.403851
0.41647
0.454623
0.518095
0.649937
1.08269
1.64675
1.96013
1.80869
1.59457
1.46476
1.31415
1.22489
1.10863
1.01231
0.93564
0.929275
0.982629
0.97637
0.943039
0.882945
0.915053
0.847964
0.810541
0.971687
1.2205
2.19395
2.27196
2.50583
2.77894
2.86669
2.63369
2.38371
2.23155
1.88987
1.75309
1.97171
1.8584
1.89875
1.94552
2.0595
1.87331
1.92503
1.94426
2.0227
2.15754
2.20335
2.16779
2.54324
2.71696
2.48203
2.58076
2.68732
2.74794
3.01061
3.36762
3.74538
3.82518
3.15014
3.11271
3.50609
2.59805
2.7695
2.9153
2.66605
2.55606
2.73286
3.14125
3.38861
3.33837
2.77019
2.38204
20.338
4.55111
3.16376
3.15491
2.69192
2.04514
1.27691
0.7473
0.530483
0.48756
0.47034
0.409091
0.315675
0.267295
0.245778
0.23553
0.229215
0.222788
0.215065
0.204103
0.195922
0.184972
0.164955
0.148579
0.138915
0.134878
0.136163
0.145779
0.174298
0.278375
0.423552
0.50745
0.564442
0.590539
0.532345
0.380266
0.287017
0.227013
0.190278
0.169166
0.160385
0.156573
0.15504
0.156297
0.158805
0.158976
0.158362
0.156269
0.153046
0.151568
0.151797
0.153491
0.157016
0.161956
0.167976
0.174314
0.179496
0.184384
0.18763
0.190183
0.192321
0.193276
0.193794
0.195382
0.198187
0.199303
0.198458
0.197806
0.19892
0.204303
0.209585
0.215238
0.225114
0.235185
0.24309
0.251381
0.265126
0.280348
0.300754
0.323157
0.347409
0.359532
0.362271
0.360797
0.344009
0.329542
0.308735
0.294397
0.284271
0.276978
0.262699
0.254549
0.239825
0.238888
0.25363
0.236361
0.223729
0.22268
0.209509
0.206405
0.216223
0.230308
0.290231
0.320275
0.357686
0.395634
0.42143
0.416837
0.403206
0.416264
0.438226
0.498441
0.680478
1.23245
1.64118
1.7734
1.55553
1.41847
1.28808
1.14793
1.07759
1.0325
0.968655
0.907302
0.908388
0.940934
0.928647
0.889531
0.831311
0.837085
0.820024
0.763898
0.835334
0.975085
1.53221
2.04183
2.56038
3.07784
3.03385
2.68671
2.49711
2.11151
1.7551
1.80263
2.08885
1.87149
1.70617
1.72055
1.85497
1.7692
1.82682
1.83175
1.95009
1.9701
2.03894
1.96108
2.19108
2.6535
2.31463
2.51417
2.76969
2.65404
2.80829
3.33138
3.51815
3.80586
3.17113
2.85063
2.98509
2.42372
2.50779
2.73068
2.54339
2.47147
2.64499
3.0054
3.2013
2.97207
2.4326
2.2632
24.3501
6.79969
4.78594
3.46039
2.21418
1.09582
0.614011
0.452943
0.400162
0.389518
0.365755
0.317598
0.266618
0.241082
0.232239
0.229097
0.225911
0.220858
0.21014
0.195855
0.185288
0.174473
0.160094
0.147764
0.142137
0.142448
0.152834
0.199539
0.317419
0.418751
0.488191
0.521379
0.516648
0.411327
0.294756
0.223178
0.182619
0.157393
0.144194
0.137642
0.136139
0.137489
0.142097
0.147964
0.153073
0.15513
0.155269
0.154667
0.154021
0.155402
0.159684
0.164073
0.168536
0.173914
0.178847
0.181834
0.183923
0.187248
0.191387
0.193783
0.195294
0.198329
0.201437
0.204282
0.208011
0.20737
0.203844
0.202241
0.204661
0.213452
0.222265
0.229558
0.238402
0.25074
0.264232
0.285251
0.31897
0.353144
0.380551
0.412056
0.442534
0.462715
0.471276
0.47352
0.463686
0.437999
0.379111
0.351162
0.312775
0.297186
0.273255
0.261601
0.238526
0.231416
0.243283
0.247003
0.226882
0.221237
0.211004
0.197899
0.202178
0.20939
0.266199
0.305113
0.340284
0.392101
0.418508
0.420757
0.410421
0.415789
0.421789
0.486994
0.763283
1.35244
1.62874
1.61801
1.37185
1.25922
1.15984
1.02824
0.97372
0.950349
0.910211
0.85066
0.812694
0.830516
0.852915
0.805481
0.775253
0.820568
0.818198
0.740227
0.690773
0.885025
1.07392
1.45667
1.93766
2.16284
2.2082
2.34832
2.28748
1.82092
1.52681
1.79418
2.01084
1.76507
1.64521
1.63803
1.7425
1.73147
1.69937
1.69088
1.84391
1.87661
1.92953
1.87143
1.96466
2.39378
2.21758
2.34893
2.77816
2.65293
2.64567
3.29623
3.40312
3.56101
3.20512
2.68386
2.46212
2.31582
2.35601
2.64967
2.42321
2.35663
2.50892
2.81871
2.99593
2.68154
2.23809
2.2223
27.9177
9.88174
5.07693
2.38907
0.931229
0.506437
0.388816
0.342569
0.324214
0.312234
0.30011
0.283226
0.250963
0.236762
0.234138
0.234251
0.230831
0.222802
0.209295
0.194257
0.184428
0.174938
0.165124
0.161977
0.171682
0.205181
0.269731
0.345767
0.405477
0.448472
0.47675
0.429895
0.314923
0.231846
0.181617
0.154151
0.139126
0.130809
0.127091
0.126301
0.127373
0.131219
0.137608
0.144829
0.151004
0.155352
0.158745
0.160735
0.163329
0.166411
0.168608
0.170733
0.17281
0.17596
0.179762
0.182052
0.183331
0.184387
0.184677
0.185603
0.189159
0.195762
0.202678
0.210627
0.214977
0.214535
0.212427
0.214344
0.223564
0.239837
0.255187
0.264263
0.271839
0.289287
0.31286
0.342406
0.373438
0.397917
0.420954
0.449141
0.477592
0.502782
0.527219
0.536917
0.541225
0.517333
0.478515
0.426553
0.383955
0.346719
0.307856
0.274046
0.256603
0.235756
0.244583
0.24525
0.228347
0.217386
0.210924
0.193901
0.194083
0.203851
0.232982
0.27428
0.313614
0.38734
0.423576
0.430021
0.41472
0.399165
0.404103
0.481079
0.846755
1.41906
1.61735
1.47192
1.23033
1.14893
1.06654
0.932053
0.883491
0.848959
0.808985
0.794725
0.720981
0.734672
0.797479
0.750152
0.760535
0.817168
0.800539
0.634712
0.635298
0.771647
0.943541
1.2553
1.4484
1.58778
1.66341
1.91447
1.80897
1.53975
1.40551
1.53292
1.46018
1.50808
1.75598
1.68149
1.73003
1.66863
1.64561
1.62846
1.71842
1.71056
1.76561
1.77171
1.83915
2.14951
2.14867
2.18583
2.59829
2.78068
2.55518
3.10863
3.40002
3.30202
3.07161
2.68305
2.25659
2.21898
2.26863
2.61852
2.3347
2.25728
2.35426
2.6139
2.77274
2.45651
2.10909
2.2046
31.7459
11.2466
3.43019
0.927446
0.448022
0.353095
0.32166
0.29453
0.281251
0.275484
0.274566
0.266297
0.247222
0.239369
0.248208
0.252198
0.249134
0.23658
0.220029
0.208585
0.207142
0.213857
0.228197
0.248964
0.281015
0.317182
0.350013
0.384136
0.410429
0.41177
0.33662
0.248685
0.188543
0.154166
0.136195
0.127092
0.122481
0.120243
0.119631
0.120284
0.123285
0.128066
0.134408
0.141532
0.148377
0.15431
0.158926
0.162266
0.166042
0.169186
0.170602
0.171006
0.170754
0.171235
0.172606
0.1735
0.172999
0.170691
0.168377
0.1697
0.173548
0.182468
0.196842
0.208146
0.212797
0.215172
0.218256
0.228431
0.245091
0.266663
0.28963
0.310302
0.320045
0.331447
0.356094
0.37663
0.391215
0.408368
0.425967
0.454915
0.483548
0.502966
0.530877
0.544625
0.556266
0.536999
0.51473
0.45776
0.421539
0.37403
0.357612
0.305586
0.287691
0.256224
0.249486
0.248453
0.229354
0.222896
0.218487
0.201931
0.188987
0.198756
0.212634
0.253875
0.304145
0.393346
0.454345
0.450144
0.416836
0.386613
0.39306
0.487228
0.936424
1.45671
1.59034
1.305
1.10121
1.04704
0.957764
0.827492
0.781639
0.736594
0.700324
0.719535
0.67728
0.677688
0.738339
0.657126
0.65259
0.799266
0.731688
0.573353
0.619022
0.709083
0.917492
1.19541
1.31496
1.39459
1.42049
1.60099
1.47777
1.46182
1.31564
1.26043
1.17561
1.21561
1.78375
1.75203
1.77847
1.52909
1.58924
1.57614
1.59199
1.52296
1.57426
1.65848
1.8031
1.93312
2.19148
2.22887
2.18156
2.86397
2.54676
2.75754
3.3976
3.16241
2.93795
2.69227
2.20058
2.15608
2.26579
2.66344
2.29202
2.13889
2.20477
2.44732
2.54927
2.28682
2.03105
2.15051
35.3643
10.0692
1.63669
0.480624
0.346387
0.318422
0.284607
0.253187
0.24722
0.250984
0.255539
0.254878
0.247989
0.250614
0.25843
0.260605
0.25743
0.252862
0.247833
0.248734
0.25598
0.269428
0.285572
0.303246
0.320246
0.340138
0.356093
0.36956
0.336577
0.265064
0.202715
0.158974
0.134334
0.12179
0.115614
0.11263
0.111168
0.11048
0.110672
0.112379
0.115146
0.119156
0.124035
0.129975
0.136122
0.142765
0.148966
0.154968
0.161186
0.16366
0.164337
0.165789
0.169961
0.172091
0.172088
0.170711
0.168194
0.166318
0.166877
0.169371
0.171895
0.179429
0.193084
0.205674
0.211905
0.217171
0.2265
0.240997
0.266189
0.294849
0.317856
0.331518
0.345519
0.367637
0.389363
0.396516
0.402089
0.417471
0.434502
0.456941
0.472836
0.474478
0.484169
0.487402
0.499308
0.498027
0.497292
0.448253
0.417207
0.374888
0.368446
0.334388
0.308932
0.30038
0.261616
0.246459
0.238226
0.237537
0.229765
0.215509
0.187856
0.187128
0.193645
0.22024
0.276672
0.39609
0.47877
0.464227
0.420484
0.386012
0.394304
0.546356
1.03325
1.4513
1.50797
1.13588
0.977394
0.943219
0.844418
0.73583
0.699893
0.660119
0.627551
0.650641
0.63103
0.654883
0.65922
0.599793
0.626313
0.698519
0.643697
0.558476
0.577372
0.667016
0.89597
1.1593
1.28437
1.37783
1.381
1.3953
1.39806
1.42209
1.17426
1.08184
1.04088
1.10549
1.60799
1.69326
1.7869
1.40309
1.46518
1.45605
1.46989
1.41291
1.44802
1.63587
1.79647
1.83341
2.1419
2.54396
2.11107
2.93023
2.65415
2.63855
3.31259
3.13309
2.92604
2.71989
2.20188
2.13171
2.29864
2.72122
2.29638
2.02712
2.09378
2.27279
2.38542
2.14612
1.94349
2.06317
38.233
8.13561
1.13856
0.401846
0.321209
0.288817
0.253422
0.239161
0.238415
0.246987
0.254451
0.256487
0.258625
0.261947
0.261231
0.261846
0.258899
0.257502
0.259943
0.266264
0.275459
0.285785
0.297036
0.310039
0.321386
0.330815
0.31817
0.269586
0.219129
0.174707
0.141128
0.12107
0.11074
0.105542
0.102936
0.101653
0.10126
0.101552
0.102847
0.104493
0.106239
0.110027
0.114719
0.118682
0.123176
0.129258
0.13522
0.141433
0.148349
0.1536
0.157286
0.161875
0.168717
0.172059
0.173047
0.173786
0.17447
0.175398
0.17716
0.178817
0.180464
0.185741
0.196498
0.209327
0.217453
0.224098
0.23227
0.245503
0.270857
0.307824
0.34725
0.363754
0.371382
0.386506
0.403436
0.418274
0.424558
0.426784
0.443588
0.450405
0.455309
0.448141
0.4315
0.423339
0.430318
0.421528
0.420871
0.376609
0.33736
0.328753
0.32503
0.32869
0.305143
0.317048
0.288146
0.261622
0.243683
0.236047
0.236888
0.218876
0.190607
0.18679
0.192648
0.206786
0.254801
0.397489
0.494057
0.485966
0.422123
0.393842
0.429586
0.6593
1.10551
1.43056
1.38106
0.98185
0.858183
0.840655
0.747441
0.666655
0.649206
0.625862
0.604626
0.595581
0.576081
0.636641
0.598219
0.582309
0.616809
0.634814
0.598528
0.548769
0.564833
0.629279
0.834927
0.983357
1.25159
1.45665
1.42526
1.35032
1.27082
1.21406
1.03266
1.02451
0.948281
1.06398
1.34586
1.5364
1.58828
1.22444
1.28427
1.29763
1.36702
1.38062
1.42105
1.72932
1.79963
1.8185
2.00134
2.42685
2.38916
2.79516
2.86287
2.64691
3.09939
3.12128
2.96348
2.83141
2.30124
2.10325
2.27432
2.72994
2.36053
1.96753
2.00282
2.12234
2.27505
2.06528
1.89459
1.86893
40.7321
7.99814
1.12351
0.406263
0.317592
0.2723
0.245088
0.237493
0.24031
0.252805
0.267879
0.273031
0.274851
0.268906
0.265825
0.264107
0.26261
0.263541
0.267192
0.272399
0.278661
0.286378
0.294153
0.298219
0.286178
0.255745
0.221133
0.182554
0.150575
0.128093
0.111995
0.103467
0.0989177
0.0964595
0.0952524
0.0948935
0.0950992
0.0960962
0.0977832
0.100116
0.102724
0.105649
0.108997
0.113065
0.11819
0.124311
0.131149
0.13871
0.146473
0.15309
0.157914
0.163333
0.171059
0.177647
0.183196
0.191817
0.204577
0.216959
0.220482
0.224215
0.232583
0.235163
0.233633
0.23605
0.241859
0.243843
0.245226
0.25186
0.27075
0.305952
0.353981
0.394063
0.417195
0.423021
0.431575
0.439283
0.439216
0.432837
0.438767
0.441256
0.439159
0.423813
0.402089
0.389541
0.387362
0.393363
0.374706
0.331452
0.264787
0.245938
0.235984
0.269517
0.283765
0.292189
0.291187
0.281735
0.272182
0.244555
0.242471
0.236607
0.203935
0.187324
0.192916
0.204192
0.251146
0.404418
0.524741
0.537796
0.441316
0.420957
0.507141
0.757642
1.12361
1.36581
1.25194
0.876849
0.76856
0.754082
0.671138
0.605627
0.60238
0.592224
0.571029
0.526899
0.520212
0.5762
0.565312
0.56215
0.5682
0.584181
0.540205
0.518085
0.530714
0.578115
0.664714
0.871681
1.43323
1.63376
1.48127
1.28633
1.1767
1.11915
0.99302
0.98714
0.923602
1.10485
1.16448
1.21071
1.20202
1.04496
1.12878
1.17864
1.31417
1.34933
1.39222
1.75228
1.76612
1.83949
2.07971
2.17406
2.45758
2.22251
2.93706
2.73401
2.87594
3.02391
2.95896
2.90029
2.46005
2.10695
2.26304
2.69217
2.4376
1.95437
1.90045
2.0046
2.15617
2.00548
1.84926
1.77934
42.6872
8.07269
1.20677
0.447573
0.32318
0.269816
0.242053
0.235993
0.246089
0.262205
0.274308
0.278358
0.279127
0.27371
0.268714
0.266231
0.26537
0.265635
0.268028
0.271589
0.274327
0.272159
0.259144
0.23671
0.215677
0.189216
0.163921
0.141278
0.121905
0.109774
0.102277
0.0977415
0.0953275
0.094034
0.0934672
0.0933846
0.0935461
0.0944972
0.0964008
0.0981998
0.100495
0.103656
0.107392
0.112279
0.118304
0.124756
0.131959
0.140454
0.149829
0.159651
0.169292
0.178588
0.189006
0.1987
0.208189
0.217948
0.228286
0.235636
0.244996
0.256297
0.268393
0.281806
0.292153
0.295436
0.297225
0.294261
0.28454
0.281399
0.286155
0.307871
0.352266
0.395645
0.432173
0.456052
0.475077
0.478081
0.474023
0.461954
0.449785
0.439153
0.425369
0.413571
0.385391
0.380808
0.366346
0.375842
0.343884
0.296999
0.242279
0.2165
0.192376
0.194992
0.213232
0.232456
0.267011
0.270689
0.287783
0.264239
0.252713
0.254507
0.230039
0.195684
0.193704
0.203272
0.244572
0.400268
0.554642
0.59381
0.526901
0.503816
0.575171
0.83039
1.11856
1.26797
1.1236
0.810795
0.722576
0.70809
0.630779
0.566786
0.565704
0.557254
0.541461
0.491968
0.499308
0.50734
0.529303
0.532727
0.520613
0.544298
0.503627
0.514609
0.502541
0.51737
0.58585
0.848537
1.68614
1.76223
1.34867
1.15509
1.16172
1.20078
1.07281
0.957113
0.943463
1.05104
1.00501
0.970598
0.938853
0.926047
1.00411
1.13612
1.31424
1.35055
1.3903
1.65243
1.62418
1.83075
2.14131
2.26124
2.32426
2.19939
2.83072
2.84412
2.80147
2.7976
2.85509
2.88833
2.54888
2.14802
2.26008
2.60592
2.46505
1.98075
1.83695
1.88117
2.02691
1.95677