/*--------------------------------*- C++ -*----------------------------------*\
| =========                 |                                                 |
| \\      /  F ield         | OpenFOAM: The Open Source CFD Toolbox           |
|  \\    /   O peration     | Version:  dev                                   |
|   \\  /    A nd           | Web:      http://www.openfoam.org               |
|    \\/     M anipulation  |                                                 |
\*---------------------------------------------------------------------------*/
FoamFile
{
    version     2.0;
    format      ascii;
    class       volScalarField;
    object      muSgs;
    location    "9.141";
}
// * * * * * * * * * * * * * * * * * * * * * * * * * * * * * * * * * * * * * //

dimensions      [1 -1 -1 0 0 0 0];

internalField   nonuniform List<scalar> 
12225
(
0.000215769
0.000244414
0.000204118
0.000215574
0.000206131
0.000227912
0.000237411
0.000248928
0.000269497
0.000270944
0.000301345
0.000293134
0.000338401
0.000315476
0.000376553
0.000345871
0.000341807
0.000458373
9.62413e-05
0.000198685
0.000182966
0.000207919
0.000175782
0.000209894
0.000181806
0.000213598
0.000197003
0.000216644
0.000212039
0.000220241
0.000236537
0.000230353
0.000259667
0.000282977
0.000395544
0.000520915
2.71419e-05
0.000107573
0.000111176
0.000139092
0.000130422
0.000145503
0.000134904
0.000141234
0.00013703
0.00013658
0.000137322
0.000127835
0.000145545
0.000132975
0.000169647
0.000193608
0.000343466
0.000546846
1.16384e-05
5.20038e-05
6.09926e-05
7.76845e-05
8.8223e-05
8.92855e-05
9.92636e-05
9.28991e-05
9.94187e-05
9.12236e-05
9.3254e-05
8.63791e-05
8.90304e-05
8.59816e-05
9.5031e-05
0.00011981
0.00025714
0.000448296
4.66655e-06
2.75437e-05
3.68635e-05
5.08415e-05
6.16677e-05
6.73371e-05
7.55059e-05
7.21394e-05
7.75152e-05
7.43502e-05
7.51205e-05
6.87627e-05
7.18474e-05
6.83624e-05
9.28194e-05
0.000102571
0.000177096
0.0002983
6.69042e-06
2.93483e-05
3.05452e-05
4.15527e-05
4.68753e-05
5.73848e-05
6.05163e-05
5.84957e-05
6.34217e-05
7.01383e-05
7.03378e-05
6.63299e-05
6.96571e-05
6.54503e-05
7.72191e-05
8.24599e-05
0.000128041
0.00017334
9.99963e-06
2.15591e-05
2.34643e-05
2.60943e-05
3.38374e-05
3.42488e-05
4.08475e-05
3.86001e-05
4.52619e-05
4.59264e-05
5.32826e-05
4.37672e-05
5.43297e-05
4.78998e-05
7.2802e-05
5.84025e-05
9.4026e-05
0.000105365
1.21641e-05
1.79042e-05
1.99187e-05
2.15945e-05
2.36997e-05
2.47021e-05
2.75167e-05
2.72305e-05
3.02327e-05
3.25778e-05
3.26424e-05
3.06835e-05
3.10664e-05
3.33409e-05
4.1554e-05
4.90921e-05
6.98546e-05
7.01153e-05
1.76264e-05
2.43248e-05
2.41815e-05
2.42703e-05
2.49947e-05
2.60385e-05
2.78404e-05
2.79168e-05
2.98322e-05
3.09639e-05
3.12312e-05
2.9887e-05
3.00443e-05
3.09831e-05
3.51729e-05
3.44371e-05
4.7406e-05
5.15479e-05
2.69205e-05
3.50976e-05
3.25971e-05
3.20884e-05
3.02719e-05
3.00969e-05
3.03437e-05
3.04051e-05
3.23428e-05
3.2103e-05
3.21822e-05
3.10037e-05
3.1037e-05
3.04904e-05
3.2611e-05
3.21788e-05
3.58638e-05
3.6786e-05
3.98163e-05
4.79422e-05
4.52412e-05
4.44518e-05
4.08477e-05
3.9825e-05
3.75323e-05
3.71373e-05
3.59785e-05
3.56594e-05
3.48477e-05
3.37703e-05
3.29744e-05
3.2308e-05
3.37378e-05
3.24514e-05
3.44747e-05
3.41042e-05
6.22711e-05
6.71515e-05
6.38958e-05
6.17687e-05
5.75387e-05
5.51416e-05
5.14909e-05
4.92844e-05
4.57626e-05
4.29554e-05
4.07502e-05
3.90129e-05
3.72542e-05
3.625e-05
3.57123e-05
3.49804e-05
3.51998e-05
3.53249e-05
9.15099e-05
9.23185e-05
8.72222e-05
8.31155e-05
7.62348e-05
7.2431e-05
6.68762e-05
6.38937e-05
5.91901e-05
5.56618e-05
5.17009e-05
4.87197e-05
4.56785e-05
4.34337e-05
4.17121e-05
4.01416e-05
3.92123e-05
3.84722e-05
0.000127764
0.000125957
0.000117221
0.0001097
0.000100064
9.41528e-05
8.73769e-05
8.24591e-05
7.59588e-05
7.10491e-05
6.70385e-05
6.38679e-05
6.0202e-05
5.68582e-05
5.32815e-05
5.05085e-05
4.80145e-05
4.60037e-05
0.000172653
0.000170709
0.000160371
0.000147842
0.000135907
0.00012603
0.00011631
0.000107339
9.84767e-05
9.08495e-05
8.41223e-05
7.83249e-05
7.28343e-05
6.82543e-05
6.37062e-05
6.01337e-05
5.65482e-05
5.37209e-05
0.000222309
0.00021392
0.00019695
0.000177826
0.00016097
0.000146342
0.000133396
0.00012184
0.000111391
0.000102367
9.42599e-05
8.72415e-05
8.07407e-05
7.52951e-05
7.00521e-05
6.58436e-05
6.16346e-05
5.83155e-05
0.000249361
0.00023673
0.000216329
0.000194546
0.000175661
0.000159228
0.000144753
0.000131898
0.000120539
0.000110609
0.000101611
9.38654e-05
8.67224e-05
8.07135e-05
7.49933e-05
7.03471e-05
6.57719e-05
6.21422e-05
0.000246013
0.000232766
0.000212946
0.000191956
0.000173642
0.000157549
0.000143226
0.000130538
0.000119248
0.000109253
0.000100284
9.25769e-05
8.54641e-05
7.94974e-05
7.38465e-05
6.92355e-05
6.47436e-05
6.11327e-05
0.00020451
0.00019674
0.000184245
0.000168114
0.000153631
0.000140411
0.00012832
0.000117326
0.000107279
9.83735e-05
9.03879e-05
8.35142e-05
7.71957e-05
7.18803e-05
6.68406e-05
6.27097e-05
5.86398e-05
5.53733e-05
0.000155143
0.000148438
0.000140414
0.000131707
0.000123537
0.000115212
0.000106826
9.8471e-05
9.04724e-05
8.32843e-05
7.66395e-05
7.1003e-05
6.58177e-05
6.14656e-05
5.73544e-05
5.39831e-05
5.05557e-05
4.78939e-05
0.000110359
0.000106471
0.00010119
9.43556e-05
8.81294e-05
8.25028e-05
7.71968e-05
7.17091e-05
6.63409e-05
6.13114e-05
5.62483e-05
5.2104e-05
4.84575e-05
4.55947e-05
4.29715e-05
4.09355e-05
3.87454e-05
3.70866e-05
7.90864e-05
7.66157e-05
7.36977e-05
6.96734e-05
6.60618e-05
6.28177e-05
5.86788e-05
5.45835e-05
5.03562e-05
4.62573e-05
4.31628e-05
4.09563e-05
3.90728e-05
3.75761e-05
3.60878e-05
3.49042e-05
3.35163e-05
3.23531e-05
5.16194e-05
5.25456e-05
5.14815e-05
4.88477e-05
4.6638e-05
4.38384e-05
4.20864e-05
4.1107e-05
3.99737e-05
3.86899e-05
3.75184e-05
3.65339e-05
3.53764e-05
3.43872e-05
3.33253e-05
3.2373e-05
3.13073e-05
3.03048e-05
3.46705e-05
3.47443e-05
3.35312e-05
3.31412e-05
3.35842e-05
3.45856e-05
3.57971e-05
3.64978e-05
3.63956e-05
3.59105e-05
3.54751e-05
3.49574e-05
3.44584e-05
3.39308e-05
3.32891e-05
3.25547e-05
3.17852e-05
3.08466e-05
2.0799e-05
2.15489e-05
2.43851e-05
2.76214e-05
3.00474e-05
3.2643e-05
3.52349e-05
3.72602e-05
3.83621e-05
3.87588e-05
3.91003e-05
3.91422e-05
3.9082e-05
3.89751e-05
3.85099e-05
3.77811e-05
3.70305e-05
3.61205e-05
1.00251e-05
1.61343e-05
2.34636e-05
3.18335e-05
3.78004e-05
4.28141e-05
4.70058e-05
4.99055e-05
5.15723e-05
5.22624e-05
5.27924e-05
5.28069e-05
5.259e-05
5.21685e-05
5.13655e-05
5.02973e-05
4.91258e-05
4.77803e-05
8.07951e-06
2.5228e-05
4.30321e-05
5.72058e-05
6.59597e-05
7.22298e-05
7.62727e-05
7.82643e-05
7.86946e-05
7.81205e-05
7.75744e-05
7.64906e-05
7.52465e-05
7.37764e-05
7.21664e-05
7.03844e-05
6.81872e-05
6.62086e-05
2.44549e-05
6.59649e-05
9.53689e-05
0.000109159
0.000116014
0.000120258
0.000121434
0.000120557
0.00011828
0.000115567
0.000112677
0.000109576
0.000106423
0.000103249
9.98184e-05
9.63721e-05
9.26975e-05
8.98285e-05
8.63235e-05
0.000164581
0.000185074
0.000185233
0.000179688
0.000173921
0.000167585
0.000162371
0.000157886
0.000153569
0.000149087
0.000144482
0.000139938
0.000135373
0.000130983
0.000126416
0.000122307
0.000118156
0.000207212
0.000258936
0.000247354
0.000226711
0.000210182
0.000202452
0.000198568
0.000197066
0.000196491
0.000196037
0.000194962
0.000193594
0.000191606
0.00018925
0.000186494
0.000183486
0.000180279
0.000176265
3.06492e-05
3.92151e-05
4.00809e-05
4.10954e-05
4.16455e-05
4.26031e-05
4.4044e-05
4.59676e-05
4.84495e-05
5.12175e-05
5.44226e-05
5.83188e-05
6.24718e-05
6.61735e-05
6.9843e-05
7.46712e-05
8.19001e-05
8.86755e-05
9.32142e-05
0.000100618
0.00010822
0.000114461
0.000124495
0.000133276
0.000142423
0.000154324
0.000163365
0.000171052
0.00017414
0.000171204
0.000170601
0.000174552
0.00017848
0.000181538
0.000184853
0.000189771
0.000195895
0.000202043
0.000209398
0.000217691
0.000223733
0.000227589
0.00023117
0.000237519
0.000245923
0.000253432
0.000260238
0.00026666
0.000272758
0.000278155
0.000283264
0.00028849
0.000293322
0.000297921
0.000302571
0.000307086
0.000311607
0.000315804
0.000320041
0.000324484
0.000329092
0.000333475
0.000337764
0.000341755
0.000345119
0.000348009
0.000350501
0.000352743
0.000354614
0.000355773
0.000356669
0.000357385
0.000357765
0.000357813
0.000356971
0.000354901
0.000351543
0.000346218
0.000339525
0.00033212
0.000324396
0.000316633
0.000308632
0.000300281
0.000291323
0.000281257
0.000271243
0.000260149
0.000251617
0.000245839
0.000241222
0.000237259
0.000231404
0.00022491
0.000219622
0.000212275
0.000205194
0.000196497
0.000193706
0.00019351
0.000196147
0.00020333
0.000211545
0.000216005
0.000218556
0.000218966
0.000216672
0.000208206
0.00019686
0.000182808
0.000168795
0.000160439
0.00015627
0.000153154
0.00014995
0.000147808
0.000148819
0.000147298
0.000146493
0.000162703
0.000228935
0.00027712
0.000306895
0.000326557
0.000339848
0.000354682
0.000376945
0.000386901
0.000377838
0.000349439
0.00034036
0.00033948
0.000353302
0.000369175
0.000382278
0.000393589
0.000407436
0.000430219
0.000454629
0.000459527
0.000454476
0.000465694
0.00047651
0.000441188
0.000442761
0.00046666
0.000474868
0.000475185
0.000470253
0.000471419
0.000462584
0.000444837
0.000423017
0.000405268
0.00038842
0.000372488
0.00035513
0.000342748
0.000334651
0.000329956
0.00032432
0.000305745
0.000286633
0.000293027
0.000312434
0.000302675
0.000283534
0.000295517
0.000313867
0.000317197
0.00034058
0.000366911
0.000396504
0.000423194
0.000443792
0.000465409
0.00048606
0.000500042
0.000514737
0.000537278
6.10697e-05
4.12998e-05
3.97713e-05
3.95492e-05
3.90234e-05
3.90743e-05
3.98922e-05
4.18687e-05
4.47692e-05
4.74675e-05
4.97254e-05
5.15374e-05
5.32001e-05
5.43056e-05
5.42385e-05
5.28722e-05
5.22105e-05
5.22853e-05
5.19979e-05
5.25417e-05
5.38277e-05
5.5728e-05
5.84401e-05
6.30164e-05
6.86828e-05
7.90749e-05
8.8202e-05
0.000104346
0.000117223
0.000124786
0.000130737
0.000128938
0.000124378
0.000111866
9.83912e-05
9.18573e-05
9.11602e-05
9.21267e-05
9.44057e-05
0.000103344
0.000108953
0.000109051
0.000112261
0.000117062
0.00012655
0.000136968
0.00014311
0.0001501
0.000156431
0.000162088
0.000168105
0.000174488
0.00018103
0.000186534
0.000192005
0.000197197
0.000201213
0.000203818
0.000205796
0.000208497
0.00021076
0.000211587
0.000211612
0.000210648
0.00020798
0.000206284
0.000203227
0.000200858
0.000198485
0.000196101
0.000194358
0.000191438
0.000188009
0.000183352
0.000177113
0.000170227
0.000162303
0.000155591
0.000150028
0.000146079
0.000143355
0.000140886
0.000138491
0.000134889
0.000129858
0.000124331
0.000121277
0.000120543
0.000122335
0.000125776
0.00012753
0.000126669
0.000123412
0.000121747
0.000116613
0.000111163
0.000105142
0.00010313
0.000111296
0.000116282
0.000119378
0.000127786
0.000140411
0.00015398
0.000162654
0.00017304
0.000187005
0.000186274
0.000176001
0.00016515
0.000153668
0.000143074
0.000136507
0.000136266
0.000139041
0.000142497
0.000154349
0.000181094
0.000221938
0.00024417
0.000259001
0.000274718
0.000276293
0.0002738
0.000273803
0.000279863
0.000283767
0.000267105
0.000222834
0.000209664
0.000218904
0.000225612
0.000251213
0.000286904
0.000318533
0.000330304
0.000342127
0.000359035
0.000366788
0.000360469
0.000339616
0.000342224
0.000316481
0.00025762
0.000269213
0.000305082
0.000343565
0.000354872
0.0003548
0.000361906
0.000389601
0.000401081
0.00039978
0.000397681
0.000388251
0.000379412
0.000362019
0.000348603
0.000346768
0.000350754
0.000345006
0.000332798
0.000309397
0.000310018
0.000322062
0.000341763
0.000321818
0.000318714
0.000319769
0.00032703
0.00033596
0.00035805
0.000381654
0.000393993
0.000397747
0.000397647
0.000410389
0.000426233
0.000463634
0.000511852
0.00010006
5.01597e-05
4.12941e-05
4.03131e-05
3.93446e-05
3.94834e-05
4.12129e-05
4.57566e-05
5.1334e-05
5.62173e-05
6.07796e-05
6.207e-05
6.17853e-05
6.10614e-05
6.06812e-05
5.85847e-05
5.51872e-05
5.21188e-05
4.79319e-05
4.51068e-05
4.39636e-05
4.29204e-05
4.25482e-05
4.29827e-05
4.37343e-05
4.63316e-05
5.01809e-05
5.75345e-05
6.74685e-05
8.2535e-05
8.97372e-05
9.30644e-05
9.31897e-05
8.93697e-05
8.10202e-05
7.28468e-05
7.03411e-05
7.01728e-05
7.39892e-05
7.9013e-05
8.3716e-05
9.44816e-05
0.000100157
0.000103902
0.000107254
0.000110396
0.000113096
0.000115891
0.000118856
0.000122632
0.000125023
0.000126106
0.000126197
0.000125446
0.000124661
0.000123894
0.00012275
0.000121129
0.000120314
0.000119739
0.00011836
0.000115921
0.000112637
0.000109252
0.000105447
0.00010297
9.97652e-05
9.77147e-05
9.59228e-05
9.39678e-05
9.23928e-05
9.00714e-05
8.71154e-05
8.35636e-05
7.91676e-05
7.53608e-05
7.21957e-05
7.04732e-05
6.96137e-05
6.9534e-05
7.00062e-05
7.06905e-05
7.08664e-05
7.04091e-05
6.92816e-05
6.84433e-05
6.8596e-05
6.97333e-05
7.36382e-05
7.851e-05
8.11612e-05
8.13258e-05
8.01054e-05
7.94536e-05
7.57369e-05
6.96276e-05
6.43781e-05
6.39051e-05
7.07095e-05
7.61906e-05
7.76827e-05
8.20648e-05
8.77155e-05
9.47928e-05
0.000100775
0.000107099
0.000123224
0.000146718
0.000151575
0.000146846
0.000139569
0.000124104
0.000116391
0.000116297
0.000125884
0.000145782
0.000182938
0.000216902
0.000232642
0.000239749
0.00022694
0.000211166
0.000202744
0.000194044
0.000192963
0.000192605
0.000189422
0.00016488
0.000143082
0.000148292
0.000169264
0.000182511
0.000207647
0.000225454
0.00024055
0.000253554
0.000287899
0.000292076
0.000280136
0.000257862
0.00024734
0.000270199
0.000239811
0.000196535
0.000195489
0.000223507
0.000256915
0.000270269
0.000261459
0.000259695
0.000280195
0.000300858
0.000316158
0.000325234
0.000329399
0.000329113
0.000322186
0.000308829
0.000305058
0.000315545
0.000318595
0.000322378
0.000305985
0.000288395
0.000310053
0.000334316
0.000305349
0.000299084
0.000298401
0.000298061
0.00032064
0.00032663
0.000330301
0.000327318
0.000321099
0.000317332
0.000333642
0.000371681
0.000415807
0.000439554
0.000150221
6.89445e-05
4.71752e-05
4.31885e-05
4.15154e-05
4.23783e-05
4.69934e-05
5.70233e-05
6.55623e-05
7.09028e-05
7.1876e-05
7.07829e-05
6.71743e-05
6.40367e-05
6.27727e-05
6.16059e-05
5.91131e-05
5.53473e-05
5.007e-05
4.59228e-05
4.39732e-05
4.19308e-05
4.06917e-05
3.95755e-05
3.82358e-05
3.84053e-05
3.91475e-05
4.11813e-05
4.48746e-05
5.44286e-05
6.61154e-05
7.29952e-05
7.45887e-05
7.55857e-05
7.28147e-05
7.31243e-05
7.61861e-05
7.93481e-05
8.37252e-05
8.50325e-05
8.58554e-05
8.96322e-05
9.10908e-05
8.98836e-05
8.95834e-05
9.02824e-05
9.06206e-05
8.99217e-05
9.04745e-05
9.17033e-05
9.26456e-05
9.2332e-05
9.0259e-05
8.62537e-05
8.23682e-05
8.02607e-05
7.91223e-05
7.80917e-05
7.72807e-05
7.59621e-05
7.40872e-05
7.13717e-05
6.85886e-05
6.59604e-05
6.35111e-05
6.23089e-05
6.12535e-05
6.05859e-05
6.02537e-05
5.96366e-05
5.9093e-05
5.84472e-05
5.74634e-05
5.64263e-05
5.50433e-05
5.42684e-05
5.38111e-05
5.35531e-05
5.36573e-05
5.40389e-05
5.47358e-05
5.54478e-05
5.60262e-05
5.63564e-05
5.66395e-05
5.69798e-05
5.76965e-05
5.91646e-05
6.14963e-05
6.42969e-05
6.61225e-05
6.66411e-05
6.63066e-05
6.60909e-05
6.40563e-05
5.92231e-05
5.61674e-05
5.68508e-05
5.9841e-05
6.65972e-05
7.07554e-05
7.48734e-05
7.94722e-05
8.08935e-05
8.21154e-05
8.3221e-05
8.96817e-05
0.000105882
0.000119564
0.000126147
0.000125149
0.00011568
0.000113311
0.000116305
0.000129927
0.00016962
0.000202733
0.000216316
0.000219094
0.000202546
0.000180178
0.00017204
0.000164732
0.000153833
0.000151317
0.000149524
0.000148999
0.000133941
0.000124519
0.000137373
0.000147763
0.000160949
0.000187856
0.000207277
0.000206368
0.000217842
0.000236444
0.000248246
0.000240655
0.000218566
0.000205602
0.000230033
0.000221439
0.000198805
0.000179582
0.000194728
0.000216725
0.000234232
0.000221012
0.000209864
0.000216233
0.00023137
0.000248625
0.000262556
0.000274204
0.000283373
0.000285067
0.000283577
0.000281716
0.000284513
0.000296382
0.000313184
0.000303264
0.000278923
0.000313309
0.000300305
0.000317492
0.000289041
0.000278562
0.000263214
0.000317769
0.000320814
0.000306178
0.000297275
0.000286372
0.000285724
0.000309085
0.000349935
0.000375709
0.000367121
0.000197967
9.70281e-05
6.05241e-05
4.85678e-05
4.64418e-05
4.922e-05
5.85195e-05
7.35352e-05
7.96237e-05
8.0462e-05
7.79236e-05
7.29943e-05
6.82529e-05
6.40259e-05
6.19966e-05
6.11341e-05
5.94619e-05
5.57955e-05
5.04923e-05
4.65228e-05
4.42962e-05
4.21468e-05
4.00953e-05
3.86497e-05
3.69783e-05
3.58169e-05
3.59333e-05
3.65725e-05
3.87054e-05
4.30083e-05
5.3675e-05
6.24526e-05
6.6441e-05
6.68072e-05
6.83158e-05
7.636e-05
8.71876e-05
8.62591e-05
8.11825e-05
7.82107e-05
7.7079e-05
7.4401e-05
7.34195e-05
7.31539e-05
7.3415e-05
7.37726e-05
7.3409e-05
7.15581e-05
6.82224e-05
6.7527e-05
6.77427e-05
6.73355e-05
6.54938e-05
6.13686e-05
5.76127e-05
5.61056e-05
5.55879e-05
5.53054e-05
5.49687e-05
5.43119e-05
5.32182e-05
5.1742e-05
5.0369e-05
4.9107e-05
4.83719e-05
4.81834e-05
4.81334e-05
4.81578e-05
4.82589e-05
4.83827e-05
4.85403e-05
4.88179e-05
4.9049e-05
4.9246e-05
4.93387e-05
4.95775e-05
4.99542e-05
5.04641e-05
5.11894e-05
5.20282e-05
5.28954e-05
5.36465e-05
5.42798e-05
5.47847e-05
5.54064e-05
5.59417e-05
5.65486e-05
5.78031e-05
5.92416e-05
6.04864e-05
6.21076e-05
6.26892e-05
6.29125e-05
6.26763e-05
6.0485e-05
5.69168e-05
5.56349e-05
5.60052e-05
5.61842e-05
5.97944e-05
6.74236e-05
7.40889e-05
7.82946e-05
7.87038e-05
7.88165e-05
7.98692e-05
8.01602e-05
8.45979e-05
9.48179e-05
0.000106525
0.000110261
0.000106881
0.000107467
0.00011713
0.000143203
0.000183369
0.000199443
0.000201542
0.00018492
0.000163114
0.000156254
0.000155741
0.000147071
0.000134859
0.000129941
0.000131069
0.000133634
0.00012157
0.000116913
0.000128183
0.000129281
0.000141669
0.000176875
0.000202033
0.000203544
0.000198941
0.000200265
0.000215143
0.000224081
0.000212736
0.000202549
0.000212511
0.000223282
0.00019557
0.000172423
0.000183125
0.000201131
0.000213164
0.000205449
0.000193496
0.000190214
0.000201818
0.000212
0.000232476
0.000238977
0.000254871
0.000260387
0.000262802
0.000276499
0.000269518
0.000279924
0.000305806
0.000306076
0.000279705
0.0003194
0.000294654
0.000323054
0.000305977
0.000290265
0.000246517
0.000293513
0.000315607
0.000300058
0.000286595
0.000272203
0.000275542
0.000299198
0.000327701
0.000338052
0.000304673
0.000242801
0.000123047
7.59227e-05
5.78889e-05
5.78261e-05
6.48595e-05
8.43957e-05
9.1347e-05
9.18299e-05
8.74187e-05
7.94373e-05
7.32949e-05
6.82718e-05
6.32331e-05
5.96356e-05
5.86101e-05
5.76106e-05
5.43115e-05
4.98066e-05
4.63475e-05
4.41141e-05
4.25094e-05
4.07335e-05
3.84038e-05
3.57129e-05
3.44229e-05
3.47015e-05
3.47024e-05
3.48686e-05
3.77679e-05
4.6183e-05
5.44324e-05
5.85773e-05
6.17061e-05
6.83067e-05
7.99507e-05
8.42641e-05
8.28423e-05
7.35859e-05
6.66135e-05
6.2663e-05
6.01369e-05
5.95282e-05
5.97502e-05
6.0446e-05
6.10587e-05
6.09637e-05
5.969e-05
5.62186e-05
5.31421e-05
5.17312e-05
5.0751e-05
4.91988e-05
4.68502e-05
4.54544e-05
4.503e-05
4.49752e-05
4.51466e-05
4.53467e-05
4.53345e-05
4.5137e-05
4.49111e-05
4.47592e-05
4.46766e-05
4.47541e-05
4.49529e-05
4.52546e-05
4.56116e-05
4.59694e-05
4.62422e-05
4.64796e-05
4.68512e-05
4.73424e-05
4.79126e-05
4.83525e-05
4.89311e-05
4.96188e-05
5.0275e-05
5.11019e-05
5.19219e-05
5.27314e-05
5.35618e-05
5.43588e-05
5.49412e-05
5.55952e-05
5.60322e-05
5.64116e-05
5.68403e-05
5.78178e-05
5.80993e-05
5.84793e-05
5.88589e-05
5.89937e-05
5.85275e-05
5.62111e-05
5.42392e-05
5.49934e-05
5.49808e-05
5.40848e-05
5.32636e-05
5.76792e-05
6.82169e-05
7.29078e-05
7.47093e-05
7.7512e-05
8.09943e-05
7.90587e-05
7.80968e-05
8.28417e-05
9.06018e-05
9.68003e-05
9.83498e-05
0.000102026
0.000117361
0.000154484
0.000183733
0.000191231
0.000176734
0.000161816
0.00015111
0.000151354
0.000148155
0.000132447
0.000122542
0.000117331
0.00012133
0.000126199
0.000116919
0.00011729
0.000125739
0.000122015
0.000125644
0.000152635
0.000191635
0.000205042
0.000197273
0.000189362
0.000205508
0.00021371
0.000201593
0.00020181
0.000203303
0.000211775
0.000188493
0.00017242
0.000174387
0.000187496
0.000198824
0.000200755
0.000187534
0.000186332
0.000192526
0.000201618
0.000218889
0.000223418
0.000227731
0.00025018
0.00024751
0.000262355
0.000249785
0.000255232
0.000295312
0.000308711
0.000283813
0.000320768
0.000315012
0.000289875
0.000312323
0.00030811
0.000234498
0.000268178
0.000306722
0.000295162
0.000281108
0.000265665
0.000272169
0.000291768
0.00030385
0.000301393
0.000266246
0.000285253
0.000143149
8.81453e-05
7.4914e-05
8.26346e-05
0.000100294
0.00010566
0.000103125
9.47796e-05
8.52768e-05
7.55765e-05
6.81242e-05
6.29661e-05
5.87167e-05
5.61206e-05
5.40538e-05
5.15584e-05
4.85759e-05
4.66953e-05
4.54028e-05
4.41337e-05
4.19924e-05
3.91848e-05
3.60635e-05
3.36507e-05
3.32091e-05
3.41172e-05
3.49544e-05
3.62838e-05
3.92109e-05
4.56368e-05
5.30398e-05
5.82337e-05
6.51339e-05
7.48431e-05
8.02571e-05
8.01311e-05
7.37281e-05
6.29125e-05
5.63879e-05
5.2109e-05
5.02476e-05
4.99461e-05
5.02897e-05
5.09496e-05
5.13132e-05
5.11029e-05
4.97858e-05
4.70901e-05
4.45571e-05
4.32743e-05
4.23072e-05
4.15505e-05
4.0984e-05
4.10715e-05
4.13852e-05
4.18047e-05
4.23948e-05
4.30083e-05
4.33275e-05
4.35981e-05
4.38824e-05
4.41897e-05
4.44622e-05
4.47352e-05
4.506e-05
4.54248e-05
4.57276e-05
4.60842e-05
4.64051e-05
4.66884e-05
4.71011e-05
4.76916e-05
4.82968e-05
4.87728e-05
4.94258e-05
5.0121e-05
5.0812e-05
5.16236e-05
5.23316e-05
5.29686e-05
5.37166e-05
5.43288e-05
5.47172e-05
5.52803e-05
5.57652e-05
5.59748e-05
5.5975e-05
5.63028e-05
5.61895e-05
5.60499e-05
5.6106e-05
5.60521e-05
5.60607e-05
5.52951e-05
5.32567e-05
5.31678e-05
5.32455e-05
5.25622e-05
5.13933e-05
5.14846e-05
5.68095e-05
6.36687e-05
6.75761e-05
7.4079e-05
7.78221e-05
7.79731e-05
7.66353e-05
7.70575e-05
8.00812e-05
8.57121e-05
9.17475e-05
0.000100373
0.000121379
0.000159452
0.000177412
0.00017671
0.000163243
0.000154753
0.000147507
0.000144692
0.000133209
0.000121403
0.000114025
0.000111695
0.000118705
0.000121351
0.00011688
0.000115736
0.000122429
0.00011462
0.000115476
0.000132633
0.000164425
0.000185144
0.000206859
0.000199037
0.000215552
0.000216065
0.000202777
0.000195747
0.000194034
0.000192801
0.000172174
0.000175996
0.00017764
0.000181249
0.00018887
0.000199059
0.000177371
0.000189082
0.000185416
0.000195162
0.000200267
0.000208883
0.000203151
0.000243326
0.000238917
0.000238739
0.000238678
0.000234193
0.000275962
0.000303069
0.000288906
0.000308593
0.000323348
0.000269711
0.000296848
0.000308942
0.000230884
0.000248605
0.000289747
0.000290117
0.000278355
0.000261881
0.000268054
0.0002828
0.000287441
0.000272227
0.000247129
0.000325377
0.000157855
0.000104676
0.000109399
0.000119569
0.000120126
0.000112185
9.99162e-05
8.34857e-05
6.99363e-05
6.38722e-05
6.07091e-05
5.60561e-05
5.15977e-05
4.84404e-05
4.60212e-05
4.44416e-05
4.33503e-05
4.27836e-05
4.27225e-05
4.2302e-05
4.08545e-05
3.81258e-05
3.56891e-05
3.45124e-05
3.46129e-05
3.52667e-05
3.57283e-05
3.65938e-05
3.94983e-05
4.73527e-05
5.65839e-05
6.55217e-05
7.28853e-05
7.59596e-05
7.58251e-05
6.82535e-05
5.91579e-05
5.20695e-05
4.68237e-05
4.39261e-05
4.30644e-05
4.31506e-05
4.35825e-05
4.40757e-05
4.41445e-05
4.38273e-05
4.28953e-05
4.11298e-05
3.97759e-05
3.89704e-05
3.85601e-05
3.86289e-05
3.91564e-05
3.99984e-05
4.07836e-05
4.14828e-05
4.23238e-05
4.30142e-05
4.33853e-05
4.36891e-05
4.39899e-05
4.42478e-05
4.4485e-05
4.47978e-05
4.50862e-05
4.53232e-05
4.54591e-05
4.57457e-05
4.61763e-05
4.66073e-05
4.70872e-05
4.77983e-05
4.86853e-05
4.96332e-05
5.07651e-05
5.17301e-05
5.25176e-05
5.36451e-05
5.47573e-05
5.57505e-05
5.68798e-05
5.73864e-05
5.75717e-05
5.73042e-05
5.71878e-05
5.63568e-05
5.57515e-05
5.55975e-05
5.49379e-05
5.44928e-05
5.39023e-05
5.3469e-05
5.3279e-05
5.4066e-05
5.25845e-05
4.99154e-05
5.05717e-05
5.09404e-05
5.14662e-05
5.17681e-05
5.37605e-05
6.09281e-05
6.47707e-05
7.04519e-05
7.33656e-05
7.52076e-05
7.59563e-05
7.54578e-05
7.68875e-05
8.09143e-05
8.81028e-05
0.000100667
0.000130456
0.000158294
0.000168645
0.000162054
0.000154693
0.000147985
0.000138666
0.000132099
0.000123342
0.000116226
0.00011136
0.000111069
0.000117063
0.000118267
0.00011629
0.000112202
0.000113689
0.00010748
0.000107316
0.000119279
0.000140178
0.000178441
0.000197739
0.000204216
0.00022481
0.000220623
0.000217925
0.000203577
0.000191105
0.000181821
0.000170212
0.000172039
0.000173455
0.000173488
0.000180128
0.000189803
0.000166553
0.000186452
0.000179647
0.000189942
0.000182931
0.000196297
0.000186778
0.000232597
0.000240432
0.000216905
0.00023476
0.000229597
0.000264541
0.000288941
0.000291373
0.000294188
0.000325124
0.000267079
0.000282194
0.000298971
0.000230746
0.00023216
0.000274644
0.000284241
0.000275669
0.000257648
0.000262039
0.000274927
0.000272776
0.000251239
0.000236738
0.00036267
0.000174634
0.00014132
0.00014357
0.000135461
0.000120647
9.83018e-05
7.62729e-05
6.35219e-05
6.04462e-05
5.96993e-05
5.63693e-05
4.94707e-05
4.50944e-05
4.2891e-05
4.19875e-05
4.18188e-05
4.16939e-05
4.1487e-05
4.13855e-05
4.13732e-05
4.02816e-05
3.76257e-05
3.54626e-05
3.45856e-05
3.44736e-05
3.47339e-05
3.55282e-05
3.78723e-05
4.61633e-05
5.92533e-05
6.66946e-05
7.06775e-05
7.22019e-05
7.05537e-05
6.08439e-05
5.26299e-05
4.65876e-05
4.24253e-05
3.98067e-05
3.87021e-05
3.83768e-05
3.84229e-05
3.88242e-05
3.94088e-05
3.96418e-05
3.96573e-05
3.93377e-05
3.86839e-05
3.82156e-05
3.80122e-05
3.81194e-05
3.86304e-05
3.94222e-05
4.0366e-05
4.13316e-05
4.21489e-05
4.29116e-05
4.34814e-05
4.39782e-05
4.44388e-05
4.46924e-05
4.47907e-05
4.49317e-05
4.52455e-05
4.53696e-05
4.52313e-05
4.50519e-05
4.51135e-05
4.57638e-05
4.65153e-05
4.72576e-05
4.84815e-05
4.97901e-05
5.0872e-05
5.20385e-05
5.37886e-05
5.56842e-05
5.8068e-05
6.06195e-05
6.32378e-05
6.44227e-05
6.48824e-05
6.51692e-05
6.37214e-05
6.2632e-05
6.05597e-05
5.89877e-05
5.78099e-05
5.64133e-05
5.49074e-05
5.36652e-05
5.18311e-05
5.09741e-05
5.16892e-05
5.21947e-05
5.05095e-05
5.00181e-05
5.03411e-05
5.04119e-05
5.08363e-05
5.17257e-05
5.97778e-05
6.52324e-05
7.00872e-05
7.33951e-05
7.61203e-05
7.78309e-05
7.68354e-05
7.76604e-05
7.9332e-05
8.62342e-05
0.000102997
0.000138765
0.000157102
0.000160606
0.000151333
0.000145874
0.000137424
0.000127294
0.000121195
0.000117309
0.000114054
0.00011087
0.000108657
0.000110952
0.000113109
0.00011063
0.000108605
0.000108741
0.000105671
0.000105963
0.0001107
0.000127346
0.000151782
0.000171508
0.000193505
0.000219243
0.000211187
0.000215014
0.000207156
0.00018831
0.00016853
0.00017103
0.000179569
0.000175841
0.000167756
0.000166785
0.000180619
0.000164581
0.000180667
0.000174503
0.000188667
0.000174299
0.000187358
0.00017761
0.000210837
0.000237703
0.000209668
0.00022654
0.000232645
0.000259042
0.000277171
0.000292813
0.000285184
0.000318432
0.000273684
0.000266947
0.000271365
0.000225665
0.000219201
0.00026683
0.000278069
0.000270147
0.00025231
0.000255777
0.000269146
0.000260606
0.000238453
0.00023146
0.000397629
0.000210375
0.000177409
0.000154391
0.000127783
9.3125e-05
6.94532e-05
5.87302e-05
5.47997e-05
5.41232e-05
5.28317e-05
4.94278e-05
4.50435e-05
4.25248e-05
4.1741e-05
4.18177e-05
4.20065e-05
4.21053e-05
4.17555e-05
4.10511e-05
4.02557e-05
3.89595e-05
3.69679e-05
3.52322e-05
3.46428e-05
3.49668e-05
3.60334e-05
3.97579e-05
5.03979e-05
5.97536e-05
6.52912e-05
6.72267e-05
6.73108e-05
6.22714e-05
5.29176e-05
4.57704e-05
4.10747e-05
3.78549e-05
3.60022e-05
3.50305e-05
3.48353e-05
3.50987e-05
3.57935e-05
3.66867e-05
3.74876e-05
3.78723e-05
3.79638e-05
3.79075e-05
3.77451e-05
3.78042e-05
3.83113e-05
3.89699e-05
3.96822e-05
4.05107e-05
4.13072e-05
4.19182e-05
4.24308e-05
4.30957e-05
4.38653e-05
4.43974e-05
4.47473e-05
4.52036e-05
4.55988e-05
4.58263e-05
4.61395e-05
4.59636e-05
4.54482e-05
4.51831e-05
4.55112e-05
4.67301e-05
4.80253e-05
4.91925e-05
5.05588e-05
5.22826e-05
5.41441e-05
5.68673e-05
6.07477e-05
6.41955e-05
6.66693e-05
6.9328e-05
7.17284e-05
7.3056e-05
7.37865e-05
7.42458e-05
7.37673e-05
7.17375e-05
6.73047e-05
6.51127e-05
6.16315e-05
6.01404e-05
5.76528e-05
5.61121e-05
5.27031e-05
5.23427e-05
5.19581e-05
5.27287e-05
5.14953e-05
4.97262e-05
4.93089e-05
4.87433e-05
4.90001e-05
4.87572e-05
5.48765e-05
6.1048e-05
6.58642e-05
7.25267e-05
7.75474e-05
8.00942e-05
7.85156e-05
7.79112e-05
7.7643e-05
8.51314e-05
0.000109263
0.000144949
0.000155745
0.000154673
0.000143484
0.000138081
0.000130402
0.000119314
0.000113802
0.000110359
0.000107678
0.000104209
9.89222e-05
0.000100403
0.000105659
0.000105075
0.000105246
0.000110028
0.000107109
0.00010425
0.000103962
0.00011858
0.000134241
0.000150273
0.000166352
0.000174928
0.000174125
0.000202471
0.000190693
0.000174
0.000153011
0.000165218
0.000171974
0.00016477
0.00016839
0.000163547
0.000182157
0.000163865
0.000175083
0.000168772
0.000184204
0.000171375
0.000180916
0.000175481
0.000196208
0.000225255
0.00020945
0.000214056
0.000230231
0.000254139
0.00026692
0.000294705
0.00028206
0.00030042
0.000276238
0.000257531
0.000246395
0.000224122
0.000212695
0.000265445
0.000271363
0.00026256
0.000245015
0.000247068
0.000261196
0.000248737
0.000229254
0.000227833
0.000425896
0.000256465
0.000188011
0.000135081
8.67477e-05
6.28812e-05
5.41206e-05
5.04251e-05
4.90476e-05
4.83581e-05
4.75301e-05
4.64204e-05
4.36607e-05
4.22224e-05
4.22692e-05
4.27111e-05
4.28481e-05
4.26668e-05
4.19717e-05
4.09279e-05
4.00758e-05
3.91167e-05
3.78884e-05
3.71771e-05
3.78219e-05
4.07944e-05
4.69091e-05
5.38725e-05
5.89759e-05
6.19349e-05
6.36428e-05
6.19375e-05
5.4136e-05
4.63235e-05
4.06024e-05
3.6985e-05
3.4868e-05
3.36583e-05
3.31308e-05
3.30786e-05
3.33361e-05
3.39501e-05
3.49189e-05
3.59988e-05
3.6924e-05
3.75602e-05
3.80397e-05
3.83107e-05
3.86226e-05
3.90455e-05
3.94105e-05
3.97768e-05
4.01742e-05
4.07909e-05
4.16123e-05
4.22534e-05
4.26906e-05
4.30852e-05
4.33564e-05
4.36539e-05
4.42467e-05
4.51487e-05
4.5884e-05
4.66918e-05
4.69495e-05
4.66467e-05
4.63168e-05
4.6558e-05
4.78023e-05
4.99632e-05
5.20066e-05
5.35532e-05
5.50171e-05
5.7247e-05
5.98342e-05
6.27458e-05
6.53399e-05
6.68813e-05
6.811e-05
6.97516e-05
7.15499e-05
7.32453e-05
7.51407e-05
7.60023e-05
7.663e-05
7.56603e-05
7.29817e-05
7.01208e-05
6.70234e-05
6.45598e-05
6.11959e-05
5.88016e-05
5.59812e-05
5.42782e-05
5.53996e-05
5.27424e-05
5.06786e-05
4.86351e-05
4.80454e-05
4.78224e-05
4.89281e-05
4.97754e-05
5.19727e-05
5.79367e-05
6.30777e-05
7.12592e-05
7.77851e-05
8.04154e-05
7.76712e-05