/*--------------------------------*- C++ -*----------------------------------*\
| =========                 |                                                 |
| \\      /  F ield         | OpenFOAM: The Open Source CFD Toolbox           |
|  \\    /   O peration     | Version:  dev                                   |
|   \\  /    A nd           | Web:      http://www.openfoam.org               |
|    \\/     M anipulation  |                                                 |
\*---------------------------------------------------------------------------*/
FoamFile
{
    version     2.0;
    format      ascii;
    class       volScalarField;
    object      p_0;
    location    "9.141";
}
// * * * * * * * * * * * * * * * * * * * * * * * * * * * * * * * * * * * * * //

dimensions      [1 -1 -2 0 0 0 0];

internalField   nonuniform List<scalar> 
12225
(
97893.5
97917.7
97943.4
97979.1
98012.4
98078.8
98143.5
98260.3
98370.2
98532.1
98703
98921
99120.9
99361.7
99572.8
99775.1
99718.8
98817.6
97881.1
97908.6
97934.1
97970.5
98002.7
98070.9
98133.6
98253.9
98360.6
98525.2
98692.3
98916.1
99112.4
99355.7
99573.1
99797.5
99885.8
99850.2
97858.1
97887
97912
97948.6
97981.7
98048.5
98109.3
98237.4
98336.4
98507
98667.6
98902.6
99095
99344
99574.8
99817.8
100004
100344
97817.9
97848.3
97872.7
97909.3
97943.5
98008.6
98073.5
98193.5
98300.1
98469.1
98625
98878
99044.3
99314.9
99549
99828.4
100073
100457
97755.1
97787.3
97811
97847.7
97883.2
97946.9
98016
98129.4
98245.4
98406
98570
98811.1
98998.4
99257.3
99493.9
99800.7
100063
100429
97667
97697.3
97720.4
97757.4
97794.5
97857.4
97930.1
98040
98162.2
98321
98492.9
98716.4
98918.4
99174.4
99407.7
99663.5
99986.7
100277
97541.4
97569.4
97594.1
97631
97670.8
97732.9
97809.8
97916.8
98044.7
98201.9
98379.5
98591.9
98810
99059.8
99299.4
99536.9
99864
100113
97394.8
97422.9
97450.5
97486.3
97529.3
97591.4
97672.1
97776.9
97909.1
98065.9
98246.9
98453.2
98680
98915.9
99196.3
99403.1
99744.5
99944.9
97236.6
97265.2
97295.5
97330.4
97376.5
97438.7
97523.3
97627.8
97762.7
97919.4
98104.1
98305.1
98539.6
98763
99060.8
99260.6
99592.2
99758.6
97026.7
97056.8
97089.4
97124.1
97173.6
97237.1
97324.8
97432.3
97569.3
97726.1
97913.4
98110.7
98356.4
98563.9
98860.6
99051.1
99355.4
99555.6
96753.7
96782.1
96816.3
96851.8
96905.3
96971
97062
97173.1
97312.5
97472.2
97659.5
97861.3
98091.9
98311.5
98583.9
98791.7
99074.4
99291.1
96398.6
96421.6
96456.3
96494.2
96551.3
96621.1
96716.6
96832.1
96975.4
97138.1
97326.9
97530.3
97754.7
97982.4
98229.1
98460.6
98707.4
98934.6
95924.9
95950
95984.4
96027
96087.6
96164.7
96264.8
96387.5
96534.3
96702.7
96892.1
97098.6
97319.6
97549.3
97786.1
98020.8
98255.4
98481.4
95323.8
95338.7
95372.8
95421.2
95488.1
95573.6
95681.6
95812
95965.4
96139.6
96332.6
96541.6
96762.8
96992.3
97226
97459.6
97690
97913.8
94536.9
94554.5
94591
94647.9
94723.4
94820.5
94938.7
95079.8
95241.8
95423.9
95622.8
95836
96059.6
96290.2
96524.1
96757.7
96988.1
97212.5
93541
93566.7
93612
93679.8
93768.4
93879.2
94011.5
94165.7
94340
94532.4
94740.1
94960.3
95189.4
95424.2
95661.4
95898.1
96131.8
96360.3
92343.8
92367.5
92421.8
92502.7
92607.4
92735.2
92885.2
93056.3
93246.4
93452.8
93672.9
93903.7
94142
94384.8
94629.3
94873
95113.8
95349.9
91029.9
91064.4
91129.8
91225.1
91347.1
91493.9
91663.6
91853.9
92062
92285.2
92520.5
92764.9
93015.6
93269.8
93525
93779.1
94030.1
94276.6
89849.9
89885.6
89958.1
90065.3
90202.7
90366.8
90554.4
90762.3
90987.4
91226.8
91477
91735.2
91998.7
92264.9
92531.5
92796.5
93058.4
93315.6
88891.7
88920.9
88997.4
89114
89263.8
89441.8
89644
89866.5
90105.9
90358.9
90622
90892.3
91167
91444
91720.9
91995.8
92267.3
92534.1
88120.3
88151.7
88232.2
88356.1
88515.2
88703.9
88917.6
89151.7
89402.5
89666.4
89940
90220.3
90504.6
90790.5
91076
91359.4
91639.2
91914
87522.1
87553.5
87637.1
87766.3
87932.6
88129.4
88351.8
88595
88854.6
89127
89408.9
89697.1
89988.9
90282.1
90574.6
90864.6
91151
91432.4
87069
87099.6
87184.9
87317.8
87489.4
87692.2
87920.9
88170.9
88437.1
88715.9
89004.2
89298.5
89596.1
89894.9
90192.9
90488.2
90779.7
91066.1
86727.6
86761.6
86849
86984.5
87159.7
87367.1
87600.5
87855
88126.2
88409.9
88702.8
89001.7
89303.7
89606.7
89908.8
90208.2
90503.5
90793.6
86485.5
86517.2
86605.9
86743.3
86920.8
87131.2
87368
87625.8
87900.6
88187.8
88484.1
88786.3
89091.6
89397.5
89702.5
90004.9
90303.1
90596
86308.5
86345.4
86435.3
86574
86753.1
86965.5
87204.5
87464.8
87742
88031.7
88330.3
88634.8
88942.3
89250.4
89557.5
89861.9
90162.1
90457
86194.1
86230.7
86321
86460.3
86640.5
86854.1
87094.6
87356.5
87635.2
87926.6
88226.8
88532.8
88841.8
89151.4
89459.9
89765.6
90067.2
90363.5
86123.9
86159.3
86249.3
86388.9
86569.7
86784.1
87025.5
87288.4
87568.1
87860.4
88161.6
88468.6
88778.6
89089.2
89398.5
89705.1
90007.6
90304.9
86086.5
86120.2
86209.5
86349.1
86530.1
86745
86986.9
87250.5
87530.7
87823.6
88125.4
88432.9
88743.4
89054.6
89364.5
89671.6
89974.6
90272.5
86073.5
86104.9
86193.5
86332.9
86513.9
86728.8
86971
87234.8
87515.3
87808.5
88110.5
88418.3
88729.1
89040.5
89350.6
89657.9
89961.2
90259.4
97147.9
97144.4
97137.6
97128.5
97117.2
97103.9
97088.7
97071.6
97052.7
97032
97009.6
96985.4
96959.3
96931.4
96901.7
96870.2
96837.3
96802.7
96766.8
96730
96692.3
96654.2
96616.5
96578.4
96540.8
96503.5
96465.5
96428.8
96390.9
96352
96314.8
96277.1
96238.9
96201.1
96164.3
96129
96094.1
96058.8
96024.4
95991.1
95957.3
95923.1
95888.5
95852.1
95813.8
95774
95731.9
95686.4
95637.4
95584.7
95527
95463.3
95393.8
95317.9
95235.3
95145.6
95048.3
94943
94829.5
94708
94578.3
94440.3
94293.8
94138.5
93973.5
93798.4
93615.7
93425.8
93226.4
93018.8
92803.4
92580.8
92351.6
92117.1
91876.1
91630.1
91379.7
91125.6
90868.6
90609.5
90349
90088
89827.4
89568.3
89311.7
89058.6
88809.8
88566.1
88327.8
88096.3
87872.2
87656.8
87451.7
87258.3
87078.5
86914
86765.5
86631.1
86507.6
86396.5
86297.6
86210.6
86136.1
86074.9
86027.5
85993.1
85970.2
85957.8
85953.7
85958.3
85971.1
85990.8
86017.1
86046.7
86075.9
86102.4
86125.6
86146.1
86162.1
86172.1
86178.4
86175.2
86161
86135.8
86099.5
86049.6
85986.2
85912.4
85830.5
85732.3
85612.7
85471.1
85295.8
85102.5
84903
84692
84465.2
84227.3
83981.3
83718.2
83437.6
83155.2
82867.9
82581.8
82276.7
81915.5
81525.7
81125.2
80713.2
80288.5
79846
79384.4
78904.9
78408.1
77901.1
77390.7
76880.8
76370.6
75890.2
75438
75024.8
74651.1
74320.7
74069.4
73902.5
73820.7
73809.9
73874.7
74021.3
74242
74520
74860.7
75264.6
75728.1
76232
76748.6
77278.1
77804.6
78309.6
78801.2
97211.3
97207.6
97200.8
97191.6
97180.3
97167
97151.7
97134.5
97115.5
97094.8
97072.5
97048.4
97022.5
96994.6
96964.7
96932.9
96899.5
96864.5
96827.9
96790.1
96751.8
96712.8
96673.7
96635.1
96596
96557.1
96519.3
96480.5
96441.6
96403.9
96364.5
96325.3
96287.9
96249.7
96212.4
96177.3
96142.1
96105.6
96069.9
96034
95997.6
95963.2
95927.8
95886.4
95843.2
95801.9
95759.3
95713.1
95662.8
95608
95548.2
95483.2
95412.5
95335.1
95249.8
95157.4
95057.8
94950.5
94834.7
94711
94579.8
94440.1
94291.7
94135
93967.5
93791
93607.6
93420.1
93218.6
93009
92792.2
92568.5
92338.4
92102.4
91860.7
91614.1
91363
91108.3
90850.8
90591.4
90330.7
90069.7
89809.1
89550.3
89294.1
89041.7
88794
88551.7
88314.7
88084
87860.4
87645.7
87441.7
87249.4
87070.8
86908
86761.4
86629.2
86508.4
86399.1
86302
86216.6
86143.6
86083.8
86037.1
86004
85982.4
85972.3
85967.4
85971.7
85983.9
86003.8
86029.8
86059.3
86088.2
86113.2
86134.5
86153.4
86169.8
86180.2
86183.9
86179.7
86165
86139.7
86104.6
86054
85988.4
85913.3
85831.6
85731.3
85613.1
85475
85300.4
85105.4
84908.4
84699.7
84475.7
84237.2
83990.6
83725.8
83448
83165.9
82870.2
82580.6
82283
81926
81534.6
81131.7
80718.9
80295.4
79854.4
79394.5
78917
78420.8
77915.7
77405.7
76896.3
76391
75908.9
75458.8
75047.9
74677
74340.8
74091.6
73924.5
73845.4
73832.8
73894.7
74042
74262.9
74544.2
74878.5
75282.4
75748
76252.1
76769.1
77295.5
77826.1
78327.6
78823.9
97338.1
97334.1
97326.9
97317.4
97305.7
97292
97276.3
97258.6
97239.3
97218.5
97196.1
97171.9
97145.8
97117.5
97086.9
97054.4
97020.6
96984.7
96947
96908.4
96868.6
96828.3
96787.7
96746.2
96705.4
96665.2
96624.4
96585.3
96547
96506.6
96467.8
96429.9
96390.2
96350.8
96312.3
96275
96236.9
96197
96158.7
96120
96080
96041.4
96001.3
95957.3
95912
95866.3
95818.2
95766.9
95712.2
95653.3
95589.5
95520.4
95445.2
95363.2
95274.1
95177.8
95074.3
94963
94843.7
94717
94583
94440.8
94289.3
94128.5
93957.6
93777.1
93598.4
93405.2
93201.1
92989.2
92770.2
92544.3
92312.1
92073.9
91830.2
91581.5
91328.7
91072.8
90814.5
90554.6
90293.9
90032.9
89772.9
89514.7
89259.6
89008.7
88762.7
88522.3
88287.3
88058.6
87837.1
87624.5
87423.3
87234.2
87058.5
86898.6
86754.3
86624.8
86507.9
86402.2
86308.6
86226.4
86156.6
86100
86056
86024.4
86002.4
85989.6
85993.1
85998.9
86011
86030.9
86056
86085
86112.7
86136.6
86155.2
86170.7
86184.1
86193.4
86195.2
86189
86173.5
86147.8
86112.2
86059.8
85993.9
85917
85835
85733.5
85609.8
85484.8
85310.9
85121
84924.6
84716.7
84492.1
84252.5
84006.3
83743.1
83469.8
83186.3
82878.8
82580.4
82286.3
81942.6
81552.4
81145.7
80731.7
80309.6
79870.2
79412.1
78933.8
78439.6
77936.9
77431.1
76925.4
76423
75944.4
75499.3
75093.2
74721.6
74386.2
74141.6
73973.1
73891.2
73876.2
73933.9
74087.3
74305
74574.8
74909.6
75314.8
75782.6
76293.5
76811.9
77337.9
77860.5
78364.9
78866.8
97526
97521.7
97514
97503.9
97491.6
97477
97460.3
97441.7
97421.6
97400.1
97377.4
97352.9
97326
97296.7
97265.2
97231.6
97196.5
97159.4
97120.5
97080.7
97039.5
96997.1
96954.7
96911.1
96867.5
96825
96783.2
96741.8
96700.8
96661.7
96622.4
96581
96541.3
96500.2
96458.8
96420.8
96378.5
96332.9
96290
96245.9
96199.1
96153.4
96107.8
96060.1
96010
95957.6
95902.7
95844.9
95783.7
95718.6
95648.8
95573.6
95492.3
95404.3
95309.8
95208.5
95099.7
94983
94858.7
94727.2
94589.2
94443.2
94287.7
94122.6
93948.2
93765
93574
93383.7
93176.7
92961.1
92738.5
92509.3
92273.9
92032.6
91786
91534.9
91280.4
91023.1
90763.8
90503.4
90242.4
89981.7
89722.5
89465.4
89211.7
88962.4
88718
88479.7
88247.5
88022.2
87804.9
87596.7
87400
87215.6
87044.2
86888
86746
86618.5
86505.3
86405
86316.5
86239.4
86174.7
86122.6
86082.5
86054.3
86037.9
86028.5
86027.8
86041.1
86054
86071.4
86096.5
86124.3
86150.4
86173.5
86188.8
86200.1
86208.5
86212.8
86212.3
86205.2
86188.3
86160.1
86118.8
86070.3
86005.7
85924.9
85843.2
85740.2
85617.4
85494.6
85327.7
85145.4
84948.8
84741.9
84519.9
84279.3
84030.5
83768.6
83497.2
83222
82908.9
82597.6
82297.2
81964
81577.2
81169.4
80754.1
80329.8
79894.4
79438.9
78959.6
78469.3
77968.3
77469.3
76968.7
76478.8
76003
75562.8
75166.2
74794.2
74465.5
74221.6
74067.1
73964.3
73942.7
73999.9
74151.2
74366.4
74626.3
74962.6
75367.9
75843.8
76357.5
76873.7
77395.9
77913.2
78421.3
78926.8
97771.5
97766.7
97758.7
97748.2
97735.2
97719.6
97701.8
97682.1
97660.8
97638.3
97614.5
97588.8
97560.8
97530.3
97497.6
97462.5
97425.5
97386.8
97346.5
97305.2
97262.3
97218.1
97173.8
97128.5
97082.3
97036.6
96991.1
96946.5
96903.5
96861.6
96820
96778.9
96736.7
96691.6
96648.3
96605
96556.9
96506.8
96456.9
96406
96353.5
96300.3
96246.1
96190
96131.7
96071.7
96009.6
95944.9
95876.8
95804.3
95726.7
95643.6
95554.4
95459.3
95358.2
95250.6
95135.5
95012.4
94881.7
94743.7
94599
94447.3
94286.4
94116.2
93936.8
93748.8
93552.4
93351.7
93145.6
92926
92699.2
92466
92226.7
91982
91732.4
91478.7
91222.3
90963.3
90702.6
90441.1
90179.5
89918.7
89659.8
89403.9
89151.9
88904.8
88662.8
88427.4
88198.7
87977.7
87765.4
87562.8
87371.5
87192.7
87026.8
86875.9
86737.7
86612.4
86503.4
86410
86328.7
86258.2
86199.9
86153.2
86117.6
86093.4
86080.4
86077.1
86080.2
86092
86105.8
86121.2
86150
86178.4
86201.8
86223.9
86230.9
86238.3
86242.5
86242.8
86239.5
86230
86210.3
86181.1
86137.8
86089.4
86024.1
85939.1
85858.1
85754.8
85630.3
85513
85353.6
85177.4
84984.5
84778.6
84559.9
84319.3
84064.3
83798
83525.8
83261.2
82956.3
82633.6
82325.8
81994
81608.1
81202.2
80787.4
80360.7
79925.7
79468.3
78991
78503.4
78006.5
77515.2
77023
76542.9
76075.9
75647.8
75259.6
74891.5
74568.4
74325.8
74165.4
74059.3
74039.8
74089.5
74219.2
74452.5
74714.5
75037.9
75445.8
75931
76441.6
76953.2
77471
77988.5
78494.6
79005
98070.4
98065.3
98057.1
98046.3
98032.8
98016.6
97998
97977.3
97954.8
97930.6
97904.8
97877.2
97847.2
97815.1
97780.9
97744
97705
97665
97623.2
97579.5
97534.8
97490
97444.1
97395.4
97346.3
97298.5
97249.7
97199.7
97152.4
97108.1
97063.5
97017
96969.3
96922.2
96873.3
96820.9
96767.9
96713.3
96656.1
96597
96536.5
96475
96412
96347.1
96280
96210.9
96139.7
96066.1
95989.2
95908.4
95822.5
95730.4
95632.9
95529.7
95420.7
95305
95181.9
95051.2
94913
94767.5
94614.9
94455
94287
94110.7
93925.7
93732
93529.6
93318.9
93111.2
92887.1
92655.4
92417.6
92174.2
91925.6
91672.8
91416.3
91156.5
90894.8
90632.1
90369.1
90106.9
89846.2
89588.2
89333.8
89084
88839.6
88600.7
88368.8
88144.4
87927.8
87720.8
87524
87338.8
87166.3
87006.5
86861.6
86730.4
86609.9
86505.4
86418.3
86345.5
86283.8
86232.5
86191.8
86162.1
86142.9
86131.9
86133.5
86138.4
86145.9
86166.1
86186.7
86210.1
86239.7
86257.7
86264.8
86278.9
86284.2
86285.6
86283
86275.6
86261.9
86239.6
86210.3
86163.6
86116.9
86050.3
85963
85881
85778.9
85652.4
85535.4
85387.4
85217.3
85026.9
84825.2
84605.3
84363.1
84107.6
83840
83564.2
83298.3
83005.2
82680.1
82364.8
82030.5
81654.7
81247.5
80829.1
80402.2
79961.8
79500.2
79026.8
78546.9
78056.8
77575
77091.5
76619.2
76171.1
75755.6
75378.1
75015.5
74697.5
74452.8
74294.9
74186.9
74186.1
74219.7
74359.1
74570.7
74826.1
75133.2
75551.8
76044.1
76546
77050.5
77566.7
78086.1
78588.8
79102.1
98416.8
98411.4
98403.1
98392
98378
98361.1
98341.7
98319.9
98295.8
98269.5
98241
98211
98179.4
98145.4
98108.9
98070.4
98030.3
97988.5
97944.9
97900
97854.1
97806.7
97757.1
97705.3
97653.9
97603.4
97551.9
97499.7
97448.7
97397.3
97344.8
97293.5
97242.3
97188.4
97130.3
97070.7
97010.6
96948.1
96882.7
96815
96745.7
96675.1
96603
96529.1
96453.1
96374.5
96293.1
96209
96121.9
96031.1
95935.6
95834
95727.2
95615.1
95496.8
95371.7
95239.6
95100.3
94953.7
94799.5
94638
94469.1
94292.5
94108.5
93916.9
93716.8
93508.6
93292.4
93069.6
92847.1
92610.3
92367.3
92118.9
91865.6
91608.4
91348
91085.1
90820.8
90555.8
90291.3
90028.4
89767.9
89511.2
89258.9
89011.8
88770.5
88535.5
88307.7
88088.1
87876.6
87675
87483.9
87305
87139.3
86985.9
86847.1
86724.3
86612.9
86514
86432.2
86366.3
86313.3
86270.5
86238.2
86216.2
86202.9
86196.6
86200.4
86212.9
86223.9
86245.8
86263.4
86280.7
86302.6
86314.9
86326.6
86335.6
86338.1
86336.7
86331.4
86320.6
86303.8
86278.7
86237.5
86199.4
86153.7
86086.9
85999.5
85914.3
85809.1
85688.9
85568.7
85428.6
85259.7
85069.9
84854.9
84636.3
84417.2
84173.5
83904
83621
83352.4
83061.2
82737.8
82417.9
82074.9
81696.5
81299.4
80878.6
80454.2
80004.3
79552.1
79077.5
78607.2
78123.3
77655
77176.4
76709.9
76285.2
75873.1
75517.5
75161.3
74854.5
74612.8
74455.7
74350.4
74341.8
74381
74518.7
74715.9
74959.8
75256.7
75682
76172.1
76672.7
77168.9
77681.2
78201.3
78705.2
79206.4
98802.8
98797
98788.2
98776.5
98761.6
98743.7
98723.2
98699.7
98673.6
98645.5
98615.8
98584.6
98551.1
98515.3
98477.3
98437.5
98395.9
98352.3
98307.4
98261
98212.5
98161.6
98108.6
98054.3
98000.1
97945.8
97890.1
97833
97775.5
97718.6
97662.9
97606.4
97546.5
97483
97417.5
97350.4
97281.1
97209.3
97135.2
97059
96981.2
96901.6
96820
96735.9
96649
96559.3
96466.9
96372
96273.8
96171.9
96065.4
95953.9
95837.3
95715.1
95587
95452.2
95310.2
95161
95004.5
94840.8
94669.8
94491.4
94305.4
94112.5
93912.5
93705.7
93491
93268.4
93039
92805
92567.6
92319.1
92065.4
91807.2
91545.1
91280.3
91013.7
90746.1
90478
90211.4
89947.5
89687.2
89431.8
89182.1
88938.2
88700.5
88469.8
88246.8
88032.3
87826.7
87630.9
87446.2
87273.3
87114.6
86969.8
86837.3
86721.6
86620.5
86530.3
86454.7
86395.1
86349.8
86316
86292
86277.1
86269.3
86268.3
86276.1
86290.7
86307.2
86329.8
86348.7
86363.8
86383.3
86388.4
86398.4
86403.3
86402.9
86398.5
86390.4
86377.1
86356.8
86330.7
86288
86248.9
86203.2
86136.2
86047.3
85960.2
85854.4
85736.3
85615.8
85480.1
85315.2
85125.8
84925.3
84726.7
84505
84269
83991.9
83696
83421.7
83130.9
82804.4
82480.9
82134
81750.9
81360.1
80940.1
80518.9
80078.6
79619
79140.4
78681.9
78202
77743.4
77276.1
76812.8
76402.6
76001.2
75656
75324.6
75035.5
74801.5
74645.1
74540.3
74506.6
74563.1
74691.9
74886.2
75119.1
75415.7
75834.1
76307.7
76818.8
77311.9
77813.9
78327.5
78848
79355.8
99219.4
99213
99203.2
99190.5
99174.5
99155.3
99132.9
99107.7
99080.7
99052.6
99023.1
98991.3
98956.7
98919.4
98880.1
98839
98796
98750.7
98703.8
98655.4
98604.4
98550.3
98494.4
98437.4
98379.3
98319.6
98258.5
98197
98135.6
98073.9
98010.6
97943.9
97874.2
97802.6
97728.6
97651.9
97573
97492.1
97409.2
97324.2
97237.2
97148.1
97056.5
96962.1
96864.7
96764.4
96661
96554.3
96444.2
96330.5
96212.9
96091
95964.1
95831.3
95691.9
95545.9
95393.2
95233.6
95067.2
94893.7
94712.6
94523.9
94328.2
94125.8
93917.1
93702.1
93480.8
93251.7
93016.3
92775
92528.9
92277.3
92018.1
91754.2
91486.5
91216.3
90944.8
90673.8
90401
90131.6
89866.8
89607.3
89354.2
89107.6
88867.3
88634.2
88408.3
88190.3
87981
87781.5
87591.7
87413.1
87246.9
87094.3
86958.4
86834.9
86725.5
86633.6
86554
86487
86435.4
86398.3
86373
86356
86347.2
86344.5
86348.6
86360
86376.6
86396.8
86419.9
86443.5
86458.3
86459.3
86472.5
86480.2
86481.6
86477.6
86469.7
86457.8
86441.5
86418.3
86384.9
86349.5
86309.1
86264.1
86196.7
86105.1
86018.4
85914.6
85800.2
85679.4
85544.1
85387.5
85194.7
84999.4
84802.4
84592.7
84357.8
84086.8
83789.3
83503
83212.2
82887.1
82553.4
82206.2
81824.5
81431.5
81016.3
80594.8
80157.6
79685.5
79215.3
78742.3
78294
77844.8
77391.9
76938.1
76532.9
76162.8
75797.2
75517.6
75242.3
75014.1
74860
74757.3
74714.5
74761.6
74886.7
75082.7
75304.9
75607.8
76007.5
76474
76985
77477.2
77967.7
78481.8
79010.1
79519.8
99657.1
99649.7
99639.3
99625.7
99608.3
99587.3
99563.3
99537.7
99511
99483.4
99454.2
99422.1
99387
99349
99308.6
99266.4
99221.7
99174.8
99126.1
99075.2
99021.1
98964.3
98905.4
98845.3
98783.8
98720.6
98655.7
98589
98520.1
98448.8
98374.8
98298.4
98220
98139.2
98055.5
97969.5
97881.3
97791
97698.5
97604
97507.3
97408.3
97306.6
97202.1
97094.5
96983.6
96869.2
96751.4
96630.2
96505.3
96376.5
96243.2
96104.7
95960.5
95810.4
95654.1
95491.2
95321.4
95144.4
94960
94768.3
94569.5
94363.8
94151.9
93934.2
93710.8
93481.7
93246.2
93004.4
92755.9
92500.6
92246.2
91979.4
91708.2
91433.6
91156.5
90877.8
90598.7
90325.4
90055.8
89791.5
89533.9
89284.2
89041.7
88806.1
88578.5
88358.2
88145.4
87941.5
87747.2
87563.4
87390.5
87231.2
87084.7
86954.3
86841.5
86740.4
86656.4
86587
86528.9
86484.8
86455.4
86438.6
86430.1
86428.7
86432.7
86441.8
86457.9
86478.8
86502.9
86529.2
86544
86549.2
86560
86570.4
86573.9
86571
86562.8
86550.9
86535.5
86516.2
86493.5
86462.9
86429.8
86381.8
86336
86268.1
86180.1
86092.6
85990.4
85879.1
85763.7
85628
85475
85290.5
85091.3
84890
84679.4
84445.4
84171.2
83891.6
83599.3
83303
82980
82637
82297.1
81921.6
81519.4
81101.6
80682.5
80246.1
79782.1
79314
78850.2
78411.1
77964.2
77525.8
77084.9
76688.6
76352.9
76023.4
75748.6
75481.4
75251
75099.6
75001
74956.3
74992.3
75109.4
75298.9
75514.7
75794.2
76205.4
76671.8
77171.9
77663.6
78150.8
78675.9
79188.4
79705.5
100105
100098
100087
100072
100053
100031
100007
99981.9
99955.8
99928.3
99898.9
99866.4
99830.8
99792.5
99751.7
99708.6
99662.6
99614.3
99564.1
99511.1
99455.2
99396.3
99334.5
99270.8
99205.4
99137.3
99065.8
98991.2
98913.9
98833.7
98751.1
98666.1
98578.3
98487.8
98394.9
98299.8
98202.4
98102.9
98001.2
97897.4
97791.1
97682.3
97570.6
97456
97338.1
97216.9
97092.1
96963.6
96831.4
96695.3
96555.2
96410.6
96261.3
96106.6
95945.8
95778.4
95604.4
95423.6
95236
95041.8
94840.2
94631.3
94414.9
94192.9
93966
93734.3
93497.4
93254.9
93006.1
92750.8
92489.3
92222.7
91951.6
91672.3
91390.1
91106.4
90822.9
90541.5
90264.6
89995.1
89731.1
89475.4
89228.6
88990.3
88760.6
88538.2
88323.6
88116.2
87918
87729.3
87551.9
87385.4
87232.1
87092.8
86966.4
86860.3
86768.4
86691.3
86630.5
86582.1
86545.4
86522.8
86514
86513.1
86518.9
86530.1
86545.5
86568.8
86594.7
86621.4
86646.2
86655.9
86660.7
86673.4
86681.9
86681.9
86675.6
86664
86649
86631.8
86611.3
86591
86562.3
86523.9
86471.7
86421.7
86357.5
86271.2
86185.3
86084.3
85971
85862
85733
85578.2
85399.8
85203
84995.9
84780.2
84547.3
84283.5
84001.1
83707
83405.1
83084.3
82732.2
82401.3
82040.6
81632.8
81204
80788
80353.2
79904.4
79439
78993.5
78556.5
78115.2
77683.9
77254
76870.6
76563.8
76308.6
76015.8
75755.3
75527
75363.4
75266.6
75219.6
75253.4
75356.2
75540.7
75756.4
76041.3
76436.7
76894.1
77379.2
77874.2
78361.9
78885.9
79414.1
79908.2
100552
100545
100534
100518
100498
100477
100453
100429
100403
100376
100346
100314
100278
100240
100199
100155
100109
100060
100008
99953.6
99895.8
99834.5
99769.7
99701.9
99631.1
99556.4
99478.2
99397.1
99313
99225.8
99135.6
99042.6
98946.6
98847.8
98746.5
98642.7
98536.6
98428.1
98317.4
98204.1
98088.3
97969.8
97848.5
97724.3
97597
97466.1
97331.4
97193
97050.6
96904.2
96753.4
96598
96437.2
96270.6
96098.1
95919.7
95734.9
95543.6
95345.7
95140.5
94928
94708.8
94482.7
94251
94015.2
93775.3
93530.8
93280.8
93025
92762.8
92494.1
92219.5
91939.3
91653.4
91364.9
91076.3
90789.3
90506.2
90229.9
89955.5
89690.2
89435.1
89191
88957.1
88732.4
88515.5
88305.8
88104.1
87911.1
87729
87557.4
87399.4
87252.3
87121.8
87001.4
86897.4
86811.7
86740.8
86688.1
86650.1
86622.4
86607.2
86605
86610
86621.6
86638.4
86660.2
86688.9
86718.2
86748
86766.1
86771.1
86789.7
86801.4
86807.3
86805.3
86796.6
86782.3
86763.7
86743.5
86722.5
86704.5
86656
86622.4
86574.9
86527
86465
86382.3
86295.6
86195
86085
85973.8
85851.2
85699.6
85520.7
85326.4
85119.5
84901.5
84664.1
84406.5
84122
83822.4
83518.6
83178
82850
82512.4
82167.7
81771.4
81340.5
80919.3
80486.7
80034.7
79587.3
79155.4
78721.8
78289.4
77870
77450.8
77061.9
76761.5
76550.8
76323.8
76064.4
75843.2
75662.4
75556.5
75503.9
75543.2
75639.6
75824.3
76028.5
76316.3
76702.8
77142
77613.3
78111.3
78599.4
79115.7
79661.2
80129.8
100985
100979
100968
100951
100933
100912
100890
100866
100840
100813
100784
100753
100718
100680
100640
100597
100550
100501
100447
100391
100331
100267
100199
100128
100052
99972.2
99889.1
99802.6
99712.6
99619.3
99522.5
99422.6
99319.8
99214
99105.2
98993.7
98879.6
98762.8
98643.4
98521.2
98396.2
98268.4
98137.8
98003.9
97866.6
97725.9
97581.7
97433.9
97281.8
97125.3
96964.2
96798.1
96626.7
96450
96267.6
96078.8
95883
95680.5
95471.5
95255.7
95033.8
94805.2
94569.6
94329.4
94085.2
93837.1
93584.8
93327.9
93065.5
92796.6
92520.7
92238.4
91951.1
91659.2
91365.7
91073.2
90782.5
90495
90211.5
89937
89673.4
89421.2
89180.8
88951.8
88732
88520.8
88314.7
88117.8
87926
87750.6
87582.7
87432.6
87293.4
87168.3
87058.5
86958.7
86878.2
86813.2
86765.7
86735.3
86715.5
86706.4
86709.7
86721
86738.5
86760.5
86788.3
86817.3
86844.4
86872.8
86894.4
86911
86930.4
86943.9
86947.1
86942.8
86931.9
86914.4
86890.7
86863.6
86835.7
86808.9
86764.8
86736
86697.9
86651.4
86595.5
86516.7
86434.3
86333.7
86223.3
86111.1
85986.7
85837.6
85662.1
85466.2
85257.1
85038.2
84796.7
84538.9
84255.5
83950.6
83651
83339.6
82993.2
82643.6
82286.7
81913.6
81499.2
81077
80645.9
80203.5
79761.1
79321.1
78896
78470
78078.3
77678.9
77302.3
76978.5
76778.6
76689.1
76397.2
76188.6
76000.9
75878.9
75815.9
75854.5
75949.2
76116.1
76332.9
76631.9
77007
77423.1
77878.6
78376.7
78863.7
79372.6
79938.9
80399.4
101389
101385
101375
101362
101346
101327
101306
101282
101258
101232
101203
101172
101138
101101
101062
101020
100974
100924
100870
100812
100751
100685
100615
100541
100462
100379
100292
100201
100106
100008
99906.1
99800.7
99692.1
99580
99464.8
99346.6
99225.5
99101.3
98974.2
98844.1
98710.9
98574.4
98434.1
98290.3
98143.7
97993.6
97839.7
97681.7
97519.6
97353.1
97182.2
97006.4
96825.5
96639.2
96447
96248.9
96044.9
95834.4
95616.2
95390.5
95158.9
94921.6
94678.3
94430.4
94178.3
93922.7
93663.1
93399.4
93130.7
92855.9
92574.2
92286
91992.7
91695.8
91398.2
91102.4
90809.4
90519.8
90235.6
89959.1
89695.9
89445.9
89209
88983.8
88765.5
88561.3
88356
88168.2
87969.7
87803.5
87638.8
87490.6
87363.9
87240.4
87136.3
87042.6
86968.3
86910
86864.9
86838.8
86825.6
86823
86831.9
86849.2
86872.8
86899.3
86929.9
86959
86988.5
87015.6
87035.9
87065.6
87085.9
87100.7
87101.8
87093.9
87079.6
87059.1
87031.7
87000.5
86965.3
86927.2
86905
86878.8
86846
86801.7
86746.8
86675.2
86597.8
86499.5
86384.8
86275.2
86152.2
86000.7
85824.5
85627.8
85414.6
85191.2
84948
84684.9
84402
84107
83804.7
83485.6
83140.8
82799.4
82441.1
82073.8
81675.8
81255.5
80827.6
80401.2
79963.4
79516.5
79090.5
78671
78310
77935.3
77594.8
77282.4
76998.3
76985.3
76760
76561.5
76377
76243.3
76159.9
76191.4
76289.5
76428
76671.4
76980.4
77347.4
77739.2
78174.7
78668
79155.3
79657.9
80243.1
80700.5
101752
101749
101741
101730
101716
101699
101681
101661
101639
101615
101588
101559
101527
101492
101455
101413
101368
101319
101266
101208
101146
101080
101009
100934
100854
100767
100678
100585
100488
100386
100281
100172
100058
99941.5
99821.1
99697.1
99569.6
99438.7
99304.5
99166.9
99025.8
98881
98732.8
98581.3
98425.7
98265.8
98102.4
97935.2
97764.1
97588.7
97408.9
97224.2
97034.1
96838.7
96638.4
96432.6
96220.4
96001.3
95775.7
95544.3
95306.3
95061.5
94811
94555.7
94296.5
94033.6
93767.4
93497.9
93224.1
92944.5
92658.8
92366.7
92069
91768.6
91468.4
91169.7
90875.3
90586.6
90302.9
90028.6
89764.8
89514.8
89279
89055.6
88840.1
88632.7
88434.1
88243
88059.4
87887.7
87731.4
87584.5
87459.3
87343.3
87243.8
87154.1
87082.3
87029.3
86987.9
86964.7
86957.9
86962.9
86977.7
87002
87030.9
87060.3
87089.6
87121.6
87156.4
87188.1
87210.2
87240.6
87261.1
87273.2
87273.2
87261.8
87243.8
87220.7
87192
87164.1
87133.4
87108.5
87080.8
87052.5
87017.7
86978.9
86923
86857.6
86781
86686
86570.7
86460.4
86339.1
86190.4
86010
85813.6
85601.6
85372.3
85121.9
84853.8
84570.8
84286.1
83972.2
83650.5
83308.8
82975.4
82622.9
82252.9
81871.7
81460.7
81034.9
80620.1
80200.4
79771.9
79340.5
78926.5
78574.5
78218.2
77923.1
77664.4
77351
77260.6
77151.7
76963.8
76791.4
76654.5
76556.7
76575.8
76672.6
76792.8
77049.6
77359.2
77709.8
78089.1
78502.6
78990.8
79483.6
79997.1
80575.5
81042.7
102059
102056
102050
102041
102029
102015
102000
101984
101965
101945
101922
101897
101870
101839
101804
101766
101723
101676
101625
101569
101508
101443
101372
101297
101217
101131
101042
100948
100849
100746
100639
100526
100410
100290
100165
100036
99903.6
99767
99626.9
99483.1
99335.4
99183.8
99028.5
98869.4
98706.3
98539.4
98368.9
98194.5
98016
97833.1
97645.6
97452.9
97255.3
97053
96845.3
96631.3
96411.5
96186.4
95955.2
95717.2
95472.7
95222.7
94967.3
94706.7
94441.6
94172.7
93900.8
93625.7
93347.2
93064.6
92776.6
92482.6
92183.9
91882.6
91580.5
91280.9
90986.6
90698.6
90417.6
90143
89880.8
89631.5
89395.8
89171.1
88957.4
88748.7
88551.9
88361.1
88181.9
88011.6
87858.1
87715.2
87588.9
87476.3
87379.9
87299.1
87228.9
87179.1
87142.6
87122.1
87118.4
87127
87144.8
87173.6
87206.6
87240.5
87272.8
87309.4
87347.4
87380.2
87410.6
87435.4
87455.4
87466.1
87465.4
87452.6
87432.3
87408.1
87380.4
87353.1
87324.6
87300.3
87269.6
87240.5
87207.3
87175.9
87127.4
87068.6
86995.3
86902
86788.1
86675.1
86551
86403.6
86222.7
86022.6
85815
85585.8
85326.9
85050.4
84764.3
84478.6
84158.5
83838.5
83506.3
83178.7
82836.5
82470.2
82096.4
81701
81277.3
80860.1
80465.7
80047.4
79628.9
79225
78876.2
78537.4
78254.4
78047.3
77753.5
77572.6
77556
77383.1
77236
77106.6
77000.6
77003.1
77097.9
77204.9
77456.3
77766.5
78081.3
78464.4
78862.5
79346.9
79851.3
80374.6
80969.5
81427.4
102300
102298
102293
102286
102278
102268
102257
102245
102232
102217
102200
102180
102157
102132
102102
102068
102030
101987
101939
101887
101829
101767
101700
101624
101546
101463
101375
101281
101182
101079
100970
100856
100738
100615
100488
100356
100220
100080
99935.9
99787.7
99635.6
99479.6
99319.3
99154.8
98986.7
98814.9
98638.7
98458.2
98273.8
98085
97891.4
97692.7
97489.4
97281.2
97067.7
96848.7
96624.2
96393.6
96156.5
95913.5
95664.8
95410.2
95150.3
94885.1
94614.9
94340.9
94063.6
93783.4
93501.3
93216.8
92928.7
92636.2
92339
92039
91738.5
91439.8
91145.5
90858.3
90577.2
90302.8
90044.6
89795.7
89560.6
89333.4
89118.9
88911.6
88713.2
88523.7
88345.5
88177.9
88023.9
87886.6
87760.7
87649.9
87552.8
87475.6
87409.2
87362.5
87328.9
87308.8
87306.2
87317.9
87338.3
87370.1
87405.8
87444.9
87484.2
87524.8
87563.7
87596.7
87628.4
87651.8
87670.9
87681
87680.6
87669.1
87651.2
87628.7
87603
87575.6
87547.4
87505.5
87489.7
87463
87433.8
87399.1
87362.5
87304.4
87240.3
87151.2
87040.9
86926.1
86798.4
86647.9
86466.6
86263
86055
85821.2
85558.7
85278.5
84982.8
84687.2
84375.8
84053.2
83729.2
83396.4
83074.5
82721.2
82338.6
81965.9
81551.1
81143.6
80736.7
80311.8
79925.1
79548.4
79202.5
78885.1
78598.6
78400.6
78172.5
77966.6
77940
77821.4
77698.4
77581.5
77475
77462.5
77546.2
77664.8
77883.5
78208.1
78520.1
78870.4
79262.2
79735.7
80262.8
80781.6
81401
81873.5
102460
102461
102458
102453
102450
102445
102440
102435
102429
102421
102411
102399
102384
102365
102341
102314
102281
102244
102202
102155
102102
102044
101980
101911
101836
101756
101670
101578
101481
101378
101270
101156
101038
100914
100786
100653
100515
100374
100228
100078
99923.1
99764.5
99602
99435.4
99264.3
99088.5
98908.1
98723.5
98534.5
98341.2
98143.2
97940.7
97733.8
97522.4
97306.1
97084.5
96857.1
96623.5
96383.6
96137.6
95885.8
95628.3
95365.4
95096.8
94822.9
94544.8
94263.8
93979.6
93692.3
93403.3
93112.4
92820.5
92527.9
92233
91937.1
91643.3
91352.3
91066.7
90789
90520.1
90259.5
90010
89772.6
89544.7
89325
89116.8
88916.9
88729.2
88551.9
88388.2
88233.7
88097.2
87972.1
87862.7
87766.3
87688.8
87627.1
87580.7
87550.5
87527.7
87525.2
87538.7
87561.9
87594.4
87631.8
87674.9
87721.7
87767.1
87809.5
87836.2
87866.1
87892.7
87912.1
87921.7
87921.9
87912.1
87900.7
87882.4
87860
87837
87817.4
87792.8
87779.4
87749.2
87714.6
87677.4
87633.6
87580.8
87523.7
87442.3
87333.5
87215.2
87083.6
86930
86745.1
86543.9
86326.5
86079.9
85815.4
85536.8
85240.7
84934.6
84625.3
84301.6
83992.4
83663.7
83342.6
83007.5
82627.5
82248.1
81860.1
81473.9
81067.4
80660.7
80277.3
79909.8
79565.4
79269.6
78990.2
78799.3
78622
78434.4
78367.6
78293.7
78186.6
78085
77986.1
77965.3
78042.2
78157.8