/*--------------------------------*- C++ -*----------------------------------*\
| =========                 |                                                 |
| \\      /  F ield         | OpenFOAM: The Open Source CFD Toolbox           |
|  \\    /   O peration     | Version:  dev                                   |
|   \\  /    A nd           | Web:      http://www.openfoam.org               |
|    \\/     M anipulation  |                                                 |
\*---------------------------------------------------------------------------*/
FoamFile
{
    version     2.0;
    format      ascii;
    class       surfaceScalarField;
    object      phi;
    location    "9.141";
}
// * * * * * * * * * * * * * * * * * * * * * * * * * * * * * * * * * * * * * //

dimensions      [1 0 -1 0 0 0 0];

internalField   nonuniform List<scalar> 
24170
(
1.52266e-06
1.29377e-06
1.77401e-07
5.92361e-07
-6.72466e-07
1.32457e-07
-1.27874e-06
-8.25468e-08
-1.94826e-06
1.6424e-08
-2.34615e-06
-2.25837e-07
-3.07865e-06
1.42899e-07
-3.38875e-06
-2.45087e-07
-4.18397e-06
2.73917e-07
-4.47275e-06
-1.96205e-07
-5.36267e-06
4.52095e-07
-5.47064e-06
-2.8354e-07
-6.61974e-06
8.0462e-07
-6.55335e-06
-3.64778e-07
-7.33585e-06
5.3859e-07
-6.06304e-06
-1.47749e-06
-2.84001e-06
-3.36942e-06
7.25879e-06
-1.00949e-05
3.19052e-06
1.18253e-06
2.08495e-06
9.14149e-07
1.16472e-06
2.92218e-07
3.04675e-07
5.15067e-08
-4.0288e-07
3.04548e-08
-1.16473e-06
-1.18016e-07
-1.90499e-06
2.61928e-07
-2.27013e-06
-4.56274e-07
-3.11601e-06
5.78221e-07
-3.56808e-06
-2.44321e-07
-4.32803e-06
7.66164e-07
-4.95398e-06
-5.3401e-08
-5.49041e-06
1.00155e-06
-6.16783e-06
1.6946e-08
-7.10733e-06
1.24885e-06
-6.36137e-06
-2.40923e-06
-9.61889e-06
-2.159e-07
1.03507e-05
-1.26497e-05
3.95693e-06
7.08023e-07
3.19982e-06
8.02353e-07
2.55794e-06
9.20993e-08
1.78329e-06
2.21562e-08
1.01453e-06
3.16416e-08
3.65196e-07
-1.95932e-07
-3.70765e-07
3.05597e-07
-8.33238e-07
-6.321e-07
-1.70828e-06
8.49553e-07
-1.79915e-06
-7.12688e-07
-3.07087e-06
1.53877e-06
-3.20966e-06
-3.53986e-07
-4.30202e-06
1.71193e-06
-5.46535e-06
8.5409e-07
-5.94724e-06
1.46591e-06
-9.93864e-06
1.38105e-06
-1.35922e-05
3.33828e-06
1.01792e-05
-1.33295e-05
4.16063e-06
4.50001e-07
3.76851e-06
2.41393e-07
3.16097e-06
-2.24256e-07
2.76785e-06
-4.66531e-07
1.98494e-06
-2.6669e-08
1.68561e-06
-6.95062e-07
6.57311e-07
5.76298e-07
4.36664e-07
-1.11795e-06
-3.81363e-07
1.00513e-06
-8.53043e-07
-8.60492e-07
-1.91023e-06
2.04015e-06
-2.23439e-06
-5.05727e-07
-3.36284e-06
2.40755e-06
-3.05524e-06
1.81337e-07
-5.11444e-06
3.22942e-06
-7.53723e-06
3.58495e-06
-1.12718e-05
6.92211e-06
1.38924e-05
-1.49839e-05
4.28659e-06
2.29621e-07
4.56163e-06
-1.07548e-06
3.60904e-06
-2.81921e-07
3.39284e-06
-1.21475e-06
2.46734e-06
-2.10825e-08
2.10405e-06
-1.2052e-06
1.07129e-06
7.81061e-07
6.15274e-07
-1.43715e-06
-3.72254e-08
9.31692e-07
-1.03644e-06
-5.39153e-07
-1.90388e-06
2.29123e-06
-2.77025e-06
-1.66453e-07
-3.55617e-06
2.71568e-06
-3.57084e-06
-2.06246e-07
-6.6964e-06
6.02165e-06
-5.56938e-06
2.21054e-06
-9.8574e-06
1.10104e-05
1.70618e-05
-1.31391e-05
4.47187e-06
5.01117e-07
4.84433e-06
-2.58429e-06
3.68718e-06
-2.25822e-07
3.14592e-06
-1.72341e-06
1.91801e-06
2.04645e-07
1.41098e-06
-1.65091e-06
6.6075e-07
6.27728e-07
3.9596e-07
-2.01825e-06
-5.31173e-07
1.06897e-06
-2.1624e-06
3.52853e-07
-2.88571e-06
2.34335e-06
-3.77233e-06
1.34038e-07
-4.39461e-06
2.80939e-06
-5.97725e-06
9.2331e-07
-7.65171e-06
7.31453e-06
-5.70995e-06
-4.17719e-08
-9.02063e-06
1.40815e-05
1.65485e-05
-8.71325e-06
4.80205e-06
8.5075e-07
5.01115e-06
-4.03154e-06
3.99577e-06
-4.0745e-07
3.51597e-06
-2.38267e-06
2.32357e-06
3.08691e-07
1.54823e-06
-1.90828e-06
7.40003e-07
4.55615e-07
5.23152e-07
-2.71797e-06
-7.8619e-07
1.51847e-06
-1.90343e-06
6.70333e-07
-2.93417e-06
2.64347e-06
-3.11621e-06
-3.26322e-07
-4.15742e-06
3.27411e-06
-5.38325e-06
1.6445e-06
-6.15559e-06
7.65474e-06
-7.80435e-06
1.2477e-06
-6.1013e-06
1.20983e-05
1.35408e-05
-3.34102e-06
3.94578e-06
9.42796e-07
3.6772e-06
-4.71235e-06
3.19157e-06
-8.42573e-07
2.99278e-06
-3.05741e-06
2.16855e-06
2.97878e-07
1.51339e-06
-2.0454e-06
1.08011e-06
1.37401e-07
6.56508e-07
-2.99767e-06
-2.4211e-07
1.75767e-06
-4.76859e-07
2.93792e-07
-9.60633e-07
2.56425e-06
-1.49994e-06
-2.84815e-07
-2.3752e-06
3.7077e-06
-2.53443e-06
1.413e-06
-2.614e-06
7.40955e-06
-5.38588e-06
3.72147e-06
-3.07601e-06
9.55667e-06
1.08932e-05
-6.44253e-07
4.90611e-06
8.6645e-07
4.26643e-06
-5.15663e-06
3.76848e-06
-1.39833e-06
3.20106e-06
-3.48984e-06
2.38836e-06
1.55264e-07
1.89405e-06
-2.45769e-06
1.44652e-06
-2.73893e-07
2.63936e-07
-2.62192e-06
-1.96055e-07
1.46224e-06
-5.0719e-07
-9.28827e-08
-9.52649e-07
2.36065e-06
-1.88922e-06
7.87413e-08
-2.11737e-06
3.42947e-06
-2.89594e-06
1.73557e-06
-2.9436e-06
7.09103e-06
-4.41098e-06
4.8302e-06
-3.65058e-06
8.51745e-06
9.48597e-06
-2.51591e-06
5.85062e-06
4.54782e-07
4.93521e-06
-5.47519e-06
4.1633e-06
-1.82283e-06
3.47284e-06
-3.93774e-06
3.11452e-06
-5.72098e-07
2.41383e-06
-2.78734e-06
1.66613e-06
-5.00834e-07
4.309e-07
-2.30238e-06
1.6052e-07
8.73633e-07
-5.27658e-07
-1.96905e-07
-1.02412e-06
2.1116e-06
-2.18682e-06
5.83545e-07
-2.56327e-06
3.21767e-06
-3.90945e-06
2.54555e-06
-3.45942e-06
6.19996e-06
-4.51113e-06
5.46279e-06
-3.96519e-06
7.62835e-06
9.09652e-06
-3.89033e-06
7.02346e-06
2.2074e-07
5.81089e-06
-5.65509e-06
5.08528e-06
-2.44492e-06
4.13308e-06
-4.26932e-06
3.63014e-06
-1.28968e-06
2.60309e-06
-2.91962e-06
1.82565e-06
-8.19751e-07
7.93857e-07
-2.29959e-06
3.30517e-07
3.70895e-07
-5.14809e-07
-2.45326e-07
-7.81891e-07
1.54284e-06
-1.89637e-06
9.53122e-07
-2.34698e-06
2.99207e-06
-3.49341e-06
3.07716e-06
-2.99723e-06
5.17113e-06
-3.62791e-06
5.60391e-06
-3.28892e-06
6.88056e-06
8.23587e-06
-2.79593e-06
8.35402e-06
-3.44479e-07
6.74786e-06
-5.59924e-06
6.05222e-06
-3.25029e-06
4.65185e-06
-4.29855e-06
4.18382e-06
-2.17817e-06
3.01385e-06
-3.03679e-06
2.4811e-06
-1.50446e-06
1.1248e-06
-2.08547e-06
7.62984e-07
-3.38748e-07
-2.73438e-07
-2.02491e-07
-7.7041e-07
1.11445e-06
-1.88042e-06
1.22745e-06
-2.1828e-06
2.52797e-06
-3.01e-06
3.21643e-06
-2.94237e-06
4.48528e-06
-3.26017e-06
5.36585e-06
-2.98679e-06
6.11819e-06
7.09402e-06
-2.28348e-06
9.59604e-06
-7.17765e-07
7.94274e-06
-5.64919e-06
7.02048e-06
-3.97459e-06
5.68755e-06
-4.53101e-06
4.9881e-06
-2.96126e-06
3.78405e-06
-3.2368e-06
2.96486e-06
-2.01173e-06
1.76517e-06
-2.13157e-06
1.0081e-06
-7.48444e-07
1.12966e-08
-2.90714e-07
-5.13724e-07
6.32321e-07
-1.37303e-06
1.16494e-06
-1.81425e-06
2.12279e-06
-2.2868e-06
2.92305e-06
-2.32633e-06
3.82931e-06
-2.28891e-06
4.70431e-06
-2.09056e-06
5.35734e-06
6.11054e-06
-1.61702e-06
1.11066e-05
-1.24062e-06
9.44458e-06
-5.81444e-06
8.47324e-06
-4.77332e-06
6.83669e-06
-4.57324e-06
5.92383e-06
-3.63446e-06
4.54995e-06
-3.36031e-06
3.69343e-06
-2.5662e-06
2.43386e-06
-2.19705e-06
1.72012e-06
-1.27469e-06
8.70253e-07
-5.9481e-07
3.37095e-07
9.50793e-08
-3.17487e-07
8.3271e-07
-6.96035e-07
1.59399e-06
-9.81032e-07
2.3783e-06
-1.04798e-06
3.13863e-06
-9.2705e-07
3.89428e-06
-7.46436e-07
4.54925e-06
5.12295e-06
-3.32373e-07
1.2803e-05
-1.12847e-06
1.08705e-05
-5.78839e-06
9.54305e-06
-5.29667e-06
8.09071e-06
-4.87047e-06
7.0428e-06
-4.23387e-06
5.86041e-06
-3.72582e-06
4.93978e-06
-3.0985e-06
3.89572e-06
-2.51459e-06
3.02404e-06
-1.67457e-06
2.20845e-06
-9.61494e-07
1.54001e-06
-3.33352e-07
9.79289e-07
3.78642e-07
5.9538e-07
1.04187e-06
4.33228e-07
1.67862e-06
4.10926e-07
2.36841e-06
6.21824e-07
2.95556e-06
1.02584e-06
3.47588e-06
4.04736e-06
1.48426e-06
1.45194e-05
-1.762e-06
1.29325e-05
-6.13022e-06
1.15458e-05
-5.77286e-06
1.01529e-05
-5.22778e-06
8.91358e-06
-4.63351e-06
7.67353e-06
-4.01616e-06
6.53107e-06
-3.38466e-06
5.42193e-06
-2.73819e-06
4.54505e-06
-2.03611e-06
3.85543e-06
-1.41909e-06
3.28789e-06
-8.29177e-07
2.87776e-06
-1.95436e-07
2.62264e-06
3.87975e-07
2.50688e-06
9.54067e-07
2.56144e-06
1.53748e-06
2.78819e-06
2.01114e-06
3.08772e-06
2.51076e-06
2.90675e-06
3.60988e-06
1.74242e-05
-2.10347e-06
1.56709e-05
-6.22086e-06
1.38605e-05
-5.74363e-06
1.21412e-05
-5.16826e-06
1.05794e-05
-4.61054e-06
9.21302e-06
-4.07225e-06
8.06233e-06
-3.54913e-06
7.12687e-06
-3.0159e-06
6.43223e-06
-2.4565e-06
5.9035e-06
-1.91564e-06
5.50303e-06
-1.37319e-06
5.22637e-06
-7.87693e-07
5.0806e-06
-2.66576e-07
5.04467e-06
2.50995e-07
5.14858e-06
7.51082e-07
5.3632e-06
1.16308e-06
5.71267e-06
1.57111e-06
1.94005e-06
6.12769e-06
1.77697e-05
-1.78531e-06
1.62015e-05
-6.10377e-06
1.46214e-05
-5.56853e-06
1.31292e-05
-4.97372e-06
1.17671e-05
-4.43453e-06
1.05719e-05
-3.95589e-06
9.55738e-06
-3.51372e-06
8.73525e-06
-3.07711e-06
8.09139e-06
-2.60812e-06
7.60028e-06
-2.14267e-06
7.24244e-06
-1.66298e-06
7.04359e-06
-1.17361e-06
6.97512e-06
-7.28277e-07
7.04847e-06
-3.05206e-07
7.24741e-06
1.10143e-07
7.56545e-06
4.37429e-07
7.99485e-06
7.63511e-07
1.07318e-06
8.50755e-06
1.61456e-05
-1.60251e-06
1.45769e-05
-5.50897e-06
1.31612e-05
-5.11277e-06
1.19239e-05
-4.61516e-06
1.08267e-05
-4.1232e-06
9.8784e-06
-3.70268e-06
9.07533e-06
-3.32063e-06
8.40339e-06
-2.93624e-06
7.8923e-06
-2.55809e-06
7.56155e-06
-2.20966e-06
7.38991e-06
-1.83432e-06
7.34915e-06
-1.42902e-06
7.42136e-06
-1.05522e-06
7.58198e-06
-6.88053e-07
7.82427e-06
-3.2755e-07
8.12408e-06
-3.52557e-08
8.4799e-06
2.50919e-07
5.04066e-07
8.9049e-06
1.42503e-05
-1.30912e-06
1.30101e-05
-4.94168e-06
1.18695e-05
-4.63947e-06
1.0886e-05
-4.23242e-06
1.00357e-05
-3.79197e-06
9.3272e-06
-3.43251e-06
8.71455e-06
-3.07696e-06
8.18381e-06
-2.70741e-06
7.79362e-06
-2.40544e-06
7.52511e-06
-2.1265e-06
7.37181e-06
-1.82528e-06
7.34909e-06
-1.51199e-06
7.41874e-06
-1.19921e-06
7.58148e-06
-9.01901e-07
7.80735e-06
-5.84702e-07
8.07442e-06
-3.18284e-07
8.4093e-06
-9.15585e-08
1.5136e-07
8.76067e-06
1.27517e-05
-1.16521e-06
1.1643e-05
-4.29743e-06
1.06655e-05
-4.12746e-06
9.84202e-06
-3.82149e-06
9.17496e-06
-3.46619e-06
8.59504e-06
-3.12314e-06
8.08433e-06
-2.78302e-06
7.68748e-06
-2.4641e-06
7.38296e-06
-2.19363e-06
7.14938e-06
-1.94392e-06
7.03191e-06
-1.72427e-06
7.00471e-06
-1.47023e-06
7.05152e-06
-1.20645e-06
7.19358e-06
-9.87211e-07
7.39359e-06
-7.13415e-07
7.64107e-06
-4.8288e-07
7.93291e-06
-2.97956e-07
-7.17368e-08
8.24612e-06
1.10569e-05
-1.15645e-06
1.03002e-05
-3.86729e-06
9.54802e-06
-3.69572e-06
8.90272e-06
-3.46024e-06
8.34845e-06
-3.14303e-06
7.84252e-06
-2.78079e-06
7.43264e-06
-2.4875e-06
7.14773e-06
-2.24081e-06
6.94265e-06
-1.99327e-06
6.8201e-06
-1.78949e-06
6.76968e-06
-1.61326e-06
6.7735e-06
-1.38588e-06
6.86133e-06
-1.18697e-06
6.97745e-06
-9.83391e-07
7.15572e-06
-7.59212e-07
7.37602e-06
-5.6464e-07
7.6147e-06
-3.95698e-07
-2.10591e-07
7.89747e-06
1.01607e-05
-1.08343e-06
9.37117e-06
-3.30911e-06
8.71126e-06
-3.25811e-06
8.15373e-06
-3.09331e-06
7.65191e-06
-2.79846e-06
7.23081e-06
-2.46053e-06
6.89509e-06
-2.19741e-06
6.63584e-06
-1.98179e-06
6.4601e-06
-1.77349e-06
6.35171e-06
-1.60589e-06
6.30058e-06
-1.45916e-06
6.3204e-06
-1.27777e-06
6.38607e-06
-1.11119e-06
6.49527e-06
-9.3581e-07
6.66088e-06
-7.60702e-07
6.84863e-06
-5.85008e-07
7.06343e-06
-4.37035e-07
-2.8107e-07
7.30305e-06
9.04676e-06
-1.00128e-06
8.47224e-06
-2.90947e-06
7.91599e-06
-2.87229e-06
7.39009e-06
-2.69243e-06
6.92389e-06
-2.43128e-06
6.57621e-06
-2.176e-06
6.33502e-06
-1.95826e-06
6.17652e-06
-1.7834e-06
6.07789e-06
-1.6117e-06
6.00404e-06
-1.43265e-06
5.96335e-06
-1.2918e-06
5.98117e-06
-1.15418e-06
6.02509e-06
-9.94913e-07
6.12527e-06
-8.64277e-07
6.25003e-06
-7.10337e-07
6.40251e-06
-5.55836e-07
6.59145e-06
-4.42888e-07
-3.05416e-07
6.79382e-06
7.73569e-06
-8.60367e-07
7.36057e-06
-2.66071e-06
6.9599e-06
-2.60363e-06
6.56055e-06
-2.3879e-06
6.21787e-06
-2.14879e-06
5.94955e-06
-1.93439e-06
5.763e-06
-1.75549e-06
5.63361e-06
-1.60059e-06
5.54348e-06
-1.44342e-06
5.50211e-06
-1.28263e-06
5.50301e-06
-1.15833e-06
5.51684e-06
-1.02162e-06
5.57366e-06
-8.88559e-07
5.66521e-06
-7.829e-07
5.79748e-06
-6.67801e-07
5.96595e-06
-5.42079e-07
6.12869e-06
-4.25483e-07
-3.09901e-07
6.31104e-06
7.21341e-06
-9.12565e-07
6.87459e-06
-2.41373e-06
6.52771e-06
-2.3559e-06
6.17418e-06
-2.10868e-06
5.84553e-06
-1.85913e-06
5.55778e-06
-1.6512e-06
5.31578e-06
-1.4867e-06
5.11792e-06
-1.34357e-06
4.97446e-06
-1.21269e-06
4.88148e-06
-1.07938e-06
4.84151e-06
-9.87188e-07
4.8423e-06
-8.76911e-07
4.88811e-06
-7.77827e-07
4.96561e-06
-6.93971e-07
5.06583e-06
-5.98479e-07
5.18651e-06
-4.90244e-07
5.32284e-06
-3.88131e-07
-2.9027e-07
5.4732e-06
6.38238e-06
-1.0413e-06
6.2081e-06
-2.31367e-06
5.9214e-06
-2.14728e-06
5.59785e-06
-1.83954e-06
5.28166e-06
-1.57024e-06
4.99683e-06
-1.36355e-06
4.74694e-06
-1.2038e-06
4.53936e-06
-1.07504e-06
4.37662e-06
-9.64322e-07
4.25212e-06
-8.48431e-07
4.15622e-06
-7.67574e-07
4.08489e-06
-6.67889e-07
4.04219e-06
-5.87234e-07
4.02315e-06
-5.19913e-07
4.03154e-06
-4.47293e-07
4.07011e-06
-3.67448e-07
4.13313e-06
-2.89815e-07
-2.13607e-07
4.21615e-06
5.86725e-06
-1.29249e-06
5.55929e-06
-2.06364e-06
5.10535e-06
-1.75691e-06
4.64253e-06
-1.41998e-06
4.20464e-06
-1.151e-06
3.80551e-06
-9.56459e-07
3.45549e-06
-8.19511e-07
3.15235e-06
-7.1307e-07
2.90036e-06
-6.31603e-07
2.69702e-06
-5.45622e-07
2.5277e-06
-4.83283e-07
2.40655e-06
-4.19548e-07
2.31329e-06
-3.57596e-07
2.24437e-06
-3.08293e-07
2.2071e-06
-2.6352e-07
2.20078e-06
-2.12975e-07
2.22675e-06
-1.67793e-07
-1.14984e-07
2.27446e-06
4.9946e-06
-1.32501e-06
4.37698e-06
-1.49083e-06
3.6165e-06
-1.04653e-06
2.90106e-06
-7.37377e-07
2.27458e-06
-5.35912e-07
1.74927e-06
-4.19108e-07
1.31613e-06
-3.51113e-07
9.65193e-07
-3.05016e-07
6.87044e-07
-2.76804e-07
4.7906e-07
-2.44299e-07
3.19823e-07
-2.17023e-07
2.08298e-07
-1.90298e-07
1.39228e-07
-1.62908e-07
1.02801e-07
-1.40892e-07
9.49752e-08
-1.21539e-07
1.13799e-07
-9.64468e-08
1.67285e-07
-8.61957e-08
-4.55445e-08
2.3115e-07
3.27042e-06
1.80688e-06
7.80231e-07
7.02838e-08
-4.25101e-07
-7.86774e-07
-1.06306e-06
-1.27645e-06
-1.44686e-06
-1.5725e-06
-1.66126e-06
-1.71625e-06
-1.73923e-06
-1.73769e-06
-1.71614e-06
-1.67038e-06
-1.61649e-06
-1.52579e-06
5.62211e-09
1.42446e-06
7.07661e-08
1.39487e-06
3.03784e-07
1.22739e-06
7.44203e-07
1.02885e-06
1.34871e-06
8.68537e-07
2.07425e-06
7.52269e-07
2.85137e-06
7.01579e-07
3.70465e-06
6.2562e-07
4.66649e-06
5.14755e-07
5.73963e-06
3.99536e-07
6.91611e-06
2.91469e-07
8.21573e-06
1.64206e-07
9.58759e-06
8.56857e-08
1.09069e-05
1.28118e-07
1.21404e-05
2.13751e-07
1.33666e-05
2.31073e-07
1.45056e-05
3.15542e-07
1.54279e-05
5.18419e-07
1.62655e-05
5.85689e-07
1.70233e-05
6.41471e-07
1.76212e-05
7.84617e-07
1.82349e-05
7.66718e-07
1.87132e-05
8.75988e-07
1.90115e-05
1.03221e-06
1.92745e-05
1.07863e-06
1.91581e-05
1.40492e-06
1.88649e-05
1.5435e-06
1.84219e-05
1.66488e-06
1.74786e-05
2.02531e-06
1.67814e-05
1.79495e-06
1.65845e-05
1.43928e-06
1.64624e-05
1.40935e-06
1.65198e-05
1.20283e-06
1.67972e-05
9.5134e-07
1.73428e-05
6.64504e-07
1.80684e-05
4.61405e-07
1.88287e-05
3.80071e-07
1.96036e-05
2.79125e-07
2.02565e-05
3.0779e-07
2.0531e-05
6.85182e-07
2.06787e-05
8.57579e-07
2.109e-05
5.52909e-07
2.15346e-05
3.80335e-07
2.16774e-05
5.75527e-07
2.16218e-05
7.62015e-07
2.15905e-05
7.53224e-07
2.1639e-05
6.82484e-07
2.16505e-05
7.18386e-07
2.16089e-05
7.60518e-07
2.15174e-05
7.88504e-07
2.1344e-05
8.38538e-07
2.11229e-05
8.47349e-07
2.08549e-05
8.51865e-07
2.05772e-05
8.15748e-07
2.02155e-05
8.50642e-07
1.97533e-05
8.99095e-07
1.92031e-05
9.34414e-07
1.85919e-05
9.44237e-07
1.79547e-05
9.19879e-07
1.72235e-05
9.65394e-07
1.64238e-05
9.82135e-07
1.5589e-05
9.57667e-07
1.47039e-05
9.4523e-07
1.38343e-05
8.6828e-07
1.29414e-05
8.30084e-07
1.1972e-05
8.41889e-07
1.10185e-05
7.65162e-07
1.00868e-05
6.86715e-07
9.14561e-06
6.39836e-07
8.18605e-06
6.02918e-07
7.20652e-06
5.70104e-07
6.21522e-06
5.32393e-07
5.21032e-06
4.99257e-07
4.2029e-06
4.58277e-07
3.21816e-06
3.92371e-07
2.27137e-06
3.12801e-07
1.38097e-06
2.1571e-07
5.41603e-07
1.24444e-07
-2.45357e-07
3.1779e-08
-9.95029e-07
-4.5293e-08
-1.72193e-06
-1.06671e-07
-2.43487e-06
-1.57584e-07
-3.12668e-06
-2.13879e-07
-3.76504e-06
-3.0098e-07
-4.3109e-06
-4.25991e-07
-4.73428e-06
-5.79047e-07
-5.07952e-06
-6.85196e-07
-5.34163e-06
-7.94513e-07
-5.70631e-06
-7.17494e-07
-6.17378e-06
-6.4233e-07
-6.70754e-06
-6.03598e-07
-7.1965e-06
-6.7193e-07
-7.54676e-06
-8.22762e-07
-7.87219e-06
-8.46858e-07
-7.94019e-06
-1.08389e-06
-7.70084e-06
-1.36283e-06
-7.01822e-06
-1.77973e-06
-5.90313e-06
-2.21574e-06
-5.18173e-06
-1.86066e-06
-4.59442e-06
-1.71782e-06
-3.96973e-06
-1.74144e-06
-3.53893e-06
-1.53239e-06
-3.49816e-06
-1.12435e-06
-3.74728e-06
-8.208e-07
-4.09084e-06
-6.97369e-07
-4.42535e-06
-6.65599e-07
-4.80441e-06
-6.06085e-07
-5.23851e-06
-5.72924e-07
-5.68402e-06
-5.75982e-07
-6.08187e-06
-5.76076e-07
-6.18575e-06
-7.78966e-07
-5.87588e-06
-1.10091e-06
-5.01741e-06
-1.55745e-06
-3.99355e-06
-1.63906e-06
-2.98408e-06
-1.56283e-06
-1.74724e-06
-1.73125e-06
-4.20761e-07
-1.74995e-06
7.8516e-07
-1.55336e-06
1.38582e-06
-8.6869e-07
9.84221e-07
2.10352e-07
-2.41026e-07
1.12198e-06
-1.66027e-06
1.38803e-06
-2.57399e-06
9.44914e-07
-3.1241e-06
6.63159e-07
-3.32194e-06
3.75041e-07
-3.26404e-06
1.75899e-07
-3.20103e-06
2.39871e-07
-2.45832e-06
-3.74988e-07
-1.35453e-07
-1.87289e-06
3.20983e-06
-2.8455e-06
6.56065e-06
-2.78878e-06
1.10249e-05
-3.80849e-06
1.37497e-05
-2.22572e-06
1.30086e-05
1.09949e-06
1.19281e-05
1.56836e-06
1.16432e-05
9.23213e-07
1.20362e-05
2.18071e-07
1.19731e-05
6.08198e-07
1.1599e-05
9.74987e-07
1.117e-05
1.05749e-06
1.17071e-05
-1.54098e-07
1.1171e-05
7.99618e-07
1.10095e-05
4.76478e-07
1.46812e-05
-3.30913e-06
1.91593e-05
-4.244e-06
2.01914e-05
-1.13957e-06
1.96993e-05
2.29365e-07
1.90263e-05
3.19023e-07
1.8036e-05
5.36093e-07
1.69262e-05
5.4288e-07
1.54294e-05
8.06973e-07
1.40881e-05
5.07565e-07
1.28603e-05
2.56893e-07
1.16061e-05
1.2028e-07
1.03706e-05
-5.1672e-08
9.16724e-06
-1.89644e-07
7.88938e-06
-2.02366e-07
6.68781e-06
-3.79003e-07
5.29824e-06
-2.23038e-07
4.02868e-06
-3.54345e-07
2.87425e-06
-4.65019e-07
1.20035e-06
1.21876e-07
-3.96196e-07
7.51153e-08
-6.98953e-07
-1.22018e-06
-8.83112e-07
-1.19465e-06
-2.01719e-06
-1.28975e-07
-3.92645e-06
7.20224e-07
-6.4795e-06
1.38029e-06
-7.52178e-06
-2.04228e-07
-6.6237e-06
-1.99084e-06
-6.78731e-06
-7.65333e-07
-7.37603e-06
-4.28527e-07
-8.34084e-06
-1.33411e-07
-8.91713e-06
-6.27374e-07
-8.22616e-06
-1.96804e-06
-6.62867e-06
-2.8811e-06
-5.42875e-06
-2.4706e-06
-4.30183e-06
-2.46174e-06
-3.82146e-06
-1.90297e-06
-1.82636e-06
-3.52297e-06
4.01325e-07
2.44365e-06
5.89106e-07
2.66844e-06
8.81199e-07
2.39044e-06
1.34827e-06
2.01829e-06
1.94063e-06
1.7413e-06
2.58677e-06
1.57145e-06
3.28578e-06
1.46084e-06
4.08162e-06
1.27883e-06
5.03617e-06
9.99243e-07
6.168e-06
6.97564e-07
7.42184e-06
4.5812e-07
8.75842e-06
2.48605e-07
1.01534e-05
1.27757e-07
1.16152e-05
8.18904e-08
1.29715e-05
2.37218e-07
1.41945e-05
4.43996e-07
1.53487e-05
6.47608e-07
1.63859e-05
9.66193e-07
1.72614e-05
1.15907e-06
1.80044e-05
1.26115e-06
1.87619e-05
1.43787e-06
1.94572e-05
1.44995e-06
2.0007e-05
1.60418e-06
2.07112e-05
1.78326e-06
2.11392e-05
1.97038e-06
2.13926e-05
2.37509e-06
2.18386e-05
2.6302e-06
2.17272e-05
2.97317e-06
2.16329e-05
3.22863e-06
2.15572e-05
3.36194e-06
2.07427e-05
3.43277e-06
2.00138e-05
3.12432e-06
1.95222e-05
2.81681e-06
1.91831e-05
2.47335e-06
1.94794e-05
1.68791e-06
2.01655e-05
1.25917e-06
2.07912e-05
1.25253e-06
2.14197e-05
9.96498e-07
2.24146e-05
4.1948e-07
2.32737e-05
5.78716e-07
2.36456e-05
1.18555e-06
2.39572e-05
1.42855e-06
2.41948e-05
1.43585e-06
2.36826e-05
1.62746e-06
2.25985e-05
1.87723e-06
2.16422e-05
1.98239e-06
2.09238e-05
2.05398e-06
2.03346e-05
2.11284e-06
1.97351e-05
2.17204e-06
1.90761e-05
2.22485e-06
1.83619e-05
2.292e-06
1.75884e-05
2.33177e-06
1.67755e-05
2.34939e-06
1.58444e-05
2.38172e-06
1.49213e-05
2.32559e-06
1.40258e-05
2.25883e-06
1.31644e-05
2.19204e-06
1.23231e-05
2.12527e-06
1.1444e-05
2.07615e-06
1.05825e-05
2.03729e-06
9.74307e-06
1.96201e-06
8.92126e-06
1.84658e-06
8.14352e-06
1.72241e-06
7.29796e-06
1.64957e-06
6.51472e-06
1.49165e-06
5.76751e-06
1.41013e-06
5.07622e-06
1.22334e-06
4.31863e-06
1.16369e-06
3.54065e-06
1.08339e-06
2.74512e-06
1.01127e-06
1.93907e-06
9.35527e-07
1.10484e-06
8.75627e-07
2.69177e-07
7.97478e-07
-5.60372e-07
7.05149e-07
-1.37057e-06
5.74217e-07
-2.14089e-06
4.08085e-07
-2.87205e-06
2.24486e-07
-3.54945e-06
3.38196e-08
-4.16966e-06
-1.59747e-07
-4.72091e-06
-3.47438e-07
-5.22806e-06
-4.93442e-07
-5.69913e-06
-6.18154e-07
-6.1347e-06
-7.39651e-07
-6.49269e-06
-9.23527e-07
-6.72724e-06
-1.18603e-06
-6.8669e-06
-1.45261e-06
-6.96877e-06
-1.63075e-06
-7.00886e-06
-1.86032e-06
-7.20576e-06
-1.69591e-06
-7.46529e-06
-1.59666e-06
-7.81714e-06
-1.45917e-06
-8.13213e-06
-1.52062e-06
-8.25205e-06
-1.84787e-06
-8.377e-06
-1.80468e-06
-8.28832e-06
-2.12164e-06
-7.88983e-06
-2.62172e-06
-7.08054e-06
-3.42175e-06
-5.89455e-06
-4.35939e-06
-4.871e-06
-3.96585e-06
-4.0401e-06
-3.6038e-06
-3.1182e-06
-3.70806e-06
-2.19239e-06
-3.51699e-06
-1.75227e-06
-2.64905e-06
-1.62609e-06
-2.04083e-06
-1.53662e-06
-1.87211e-06
-1.69556e-06
-1.54829e-06
-2.38208e-06
-9.31494e-07
-3.17838e-06
-7.53291e-07
-3.82201e-06
-9.52986e-07
-4.34261e-06
-1.17555e-06
-4.68196e-06
-1.50631e-06
-4.60343e-06
-2.04499e-06
-3.86401e-06
-3.0302e-06
-2.67576e-06
-3.45189e-06
-1.53493e-06
-3.22435e-06
-4.34887e-07
-3.30675e-06
2.25693e-07
-2.86056e-06
-4.19324e-07
-1.27506e-06
-2.32206e-06
7.66095e-07
-4.57252e-06
2.24816e-06
-6.16302e-06
2.53398e-06
-6.78139e-06
1.91698e-06
-7.06277e-06
1.25386e-06
-7.0187e-06
6.87118e-07
-6.59467e-06
4.99057e-08
-6.2901e-06
7.8638e-08
-5.96889e-06
2.4842e-07
-4.57662e-06
-1.34588e-06
-1.6629e-06
-4.32522e-06
1.46827e-06
-5.58609e-06
4.48164e-06
-5.32688e-06
8.31873e-06
-6.94981e-06
1.23079e-05
-5.60059e-06
1.37513e-05
-5.07393e-09
1.35401e-05
2.09502e-06
1.29696e-05
1.96947e-06
1.20366e-05
1.68467e-06
1.09065e-05
2.17955e-06
1.05585e-05
1.92871e-06
1.13508e-05
9.48611e-07
1.21878e-05
-9.49664e-07
1.11831e-05
1.54634e-06
1.14602e-05
2.19253e-07
1.51367e-05
-6.56737e-06
2.08303e-05
-9.20047e-06
2.36361e-05
-3.87296e-06
2.38219e-05
-4.18065e-07
2.30394e-05
4.4131e-07
2.26417e-05
2.0912e-07
2.25664e-05
-4.64149e-08
2.15427e-05
1.22362e-06
2.00892e-05
1.17371e-06
1.82368e-05
1.12412e-06
1.63469e-05
8.88419e-07
1.46342e-05
3.12635e-07
1.29382e-05
-1.11959e-08
1.15078e-05
-4.57996e-07
1.00721e-05
-7.78932e-07
8.37208e-06
-4.19607e-07
6.67555e-06
-5.95681e-07
5.07827e-06
-8.39136e-07
2.96208e-06
4.23752e-07
1.33756e-06
-1.55521e-07
2.02262e-06
-3.85439e-06
1.43102e-06
-2.42317e-06
-1.74218e-06
1.46864e-06
-5.4651e-06
2.95047e-06
-8.46328e-06
2.82971e-06
-8.51987e-06
-1.78249e-06
-6.69481e-06
-5.05247e-06
-7.2865e-06
-1.33505e-06
-8.55941e-06
-4.46064e-07
-9.82329e-06
-3.75402e-07
-1.00065e-05
-2.1439e-06
-8.26789e-06
-5.436e-06
-6.16989e-06
-6.57046e-06
-4.65492e-06
-5.52522e-06
-4.26252e-06
-4.40438e-06
-4.91067e-06
-2.91077e-06
-2.45002e-06
-6.08285e-06
7.39723e-07
3.10622e-06
1.25285e-06
3.58694e-06
1.68015e-06
3.39181e-06
2.18185e-06
2.95723e-06
2.7028e-06
2.67481e-06
3.19167e-06
2.52493e-06
3.79608e-06
2.27459e-06
4.58297e-06
1.89206e-06
5.58896e-06
1.38422e-06
6.8391e-06
8.39859e-07
8.27301e-06
4.15979e-07
9.68402e-06
2.11237e-07
1.11203e-05
8.88909e-08
1.25638e-05
7.758e-08
1.38888e-05
2.51748e-07
1.5021e-05
6.50685e-07
1.61224e-05
1.06217e-06
1.70808e-05
1.45977e-06
1.78105e-05
1.81456e-06
1.84916e-05
2.01374e-06
1.91682e-05
2.09228e-06
1.97335e-05
2.22445e-06
2.0425e-05
2.32272e-06
2.10786e-05
2.44505e-06
2.15322e-05
2.89916e-06
2.2114e-05
3.2596e-06
2.23072e-05
3.57298e-06
2.23e-05
4.30246e-06
2.25933e-05
4.53121e-06
2.23046e-05
4.62169e-06
2.19976e-05
4.84761e-06
2.20476e-05
4.57296e-06
2.18975e-05
4.22002e-06
2.18204e-05
3.79477e-06
2.15373e-05
3.20385e-06
2.17756e-05
2.26081e-06
2.26408e-05
1.55115e-06
2.29818e-05
1.63403e-06
2.26588e-05
1.78167e-06
2.22034e-05
2.00016e-06
2.14202e-05
2.63577e-06
2.03031e-05
3.16603e-06
1.92602e-05
3.22465e-06
1.84472e-05
3.20707e-06
1.78131e-05
3.28416e-06
1.72669e-05
3.37784e-06
1.67672e-05
3.4572e-06
1.62214e-05
3.55523e-06
1.55392e-05
3.70985e-06
1.47049e-05
3.85583e-06
1.38169e-05
3.90551e-06
1.29672e-05
3.82813e-06
1.22147e-05
3.67566e-06
1.1597e-05
3.50817e-06
1.09604e-05
3.40516e-06
1.02919e-05
3.30638e-06
9.62614e-06
3.17933e-06
8.99969e-06
3.01852e-06
8.35644e-06
2.92726e-06
7.74268e-06
2.79502e-06
7.16946e-06
2.61456e-06
6.65824e-06
2.37876e-06
6.17794e-06
2.17437e-06
5.74522e-06
2.00573e-06
5.31648e-06
1.79151e-06
4.88419e-06
1.65543e-06
4.2829e-06
1.59706e-06
3.70782e-06
1.46224e-06
3.06573e-06
1.39879e-06
2.34933e-06
1.35239e-06
1.53291e-06
1.31865e-06
7.14517e-07
1.21072e-06
-1.47169e-07
1.1281e-06
-1.0324e-06
1.01118e-06
-1.90535e-06
8.2016e-07
-2.74213e-06
5.73156e-07
-3.52569e-06
2.96545e-07
-4.24168e-06
2.07402e-09
-4.86097e-06
-3.24056e-07
-5.38519e-06
-6.42662e-07
-5.83898e-06
-8.93765e-07
-6.21922e-06
-1.12002e-06
-6.49675e-06
-1.35924e-06
-6.69973e-06
-1.6242e-06
-6.86517e-06
-1.93391e-06
-7.03675e-06
-2.22128e-06
-7.18934e-06
-2.46855e-06
-7.35525e-06
-2.75243e-06
-7.50087e-06
-2.66582e-06
-7.53818e-06
-2.68276e-06
-7.59258e-06
-2.4874e-06
-7.62815e-06
-2.47006e-06
-7.68987e-06
-2.72891e-06
-7.68854e-06
-2.67386e-06
-7.61149e-06
-2.96024e-06
-7.30703e-06
-3.71304e-06
-6.97985e-06
-4.68533e-06
-6.44088e-06
-6.04269e-06
-5.47103e-06
-6.07724e-06
-4.50853e-06
-5.67339e-06
-3.57813e-06
-5.77119e-06
-2.56071e-06
-5.64328e-06
-1.88746e-06
-4.39523e-06
-1.47939e-06
-3.47627e-06
-1.01858e-06
-3.31941e-06
-5.2726e-07
-2.97602e-06
-3.90174e-07
-2.00667e-06
-1.07106e-06
-1.03241e-06
-1.90823e-06
-1.03886e-06
-2.53335e-06
-1.47597e-06
-3.08846e-06
-1.82593e-06
-3.42191e-06
-2.4457e-06
-3.30595e-06
-3.78509e-06
-2.69402e-06
-4.60146e-06
-1.9945e-06
-4.3676e-06
-1.85824e-06
-3.85089e-06
-2.87622e-06
-2.22359e-06
-4.85414e-06
4.14253e-07
-6.97687e-06
2.64649e-06
-8.59796e-06
3.62758e-06
-9.25094e-06
2.99641e-06
-9.06953e-06
1.68807e-06
-8.70967e-06
9.51111e-07
-8.08067e-06
1.18935e-07
-7.40855e-06
-4.95903e-07
-6.78745e-06
-2.96841e-07
-5.88459e-06
-2.7067e-07
-4.34373e-06
-2.45365e-06
-2.0148e-06
-6.31346e-06
-4.24534e-07
-6.93085e-06
2.06549e-06
-7.30784e-06
5.31454e-06
-9.52182e-06
9.36238e-06
-8.94156e-06
1.23456e-05
-2.55695e-06
1.34236e-05
1.36753e-06
1.37731e-05
2.30593e-06
1.26767e-05
3.27697e-06
1.13436e-05
3.64673e-06
1.15891e-05
2.1743e-06
1.31151e-05
1.45524e-07
1.61841e-05
-3.26161e-06
1.67124e-05
7.72972e-07
1.53775e-05
8.90513e-07
1.66719e-05
-8.08722e-06
2.10041e-05
-1.28368e-05
2.47471e-05
-6.9904e-06
2.47407e-05
-9.2865e-07
2.30434e-05
9.19065e-07
2.21404e-05
-1.23553e-07
2.2909e-05
-1.6565e-06
2.3029e-05
6.57355e-07
2.26024e-05
1.14661e-06
2.13892e-05
1.5675e-06
1.97093e-05
1.59932e-06
1.78238e-05
9.85268e-07
1.59614e-05
4.26216e-07
1.40446e-05
-1.29085e-07
1.25929e-05
-1.13901e-06
1.11417e-05
-9.87897e-07
9.00087e-06
-5.18695e-07
7.03519e-06
-8.77328e-07
4.66931e-06
9.22376e-07
2.382e-06
6.73806e-08
1.83859e-06
-5.27242e-06
3.533e-07
-2.76266e-06
-3.88037e-06
4.01096e-06
-7.84209e-06
5.28323e-06
-9.50873e-06
2.67413e-06
-9.09497e-06
-3.59656e-06
-6.78807e-06
-8.46733e-06
-6.68362e-06
-3.05393e-06
-8.35828e-06
-2.22306e-07
-9.54001e-06
-9.10848e-07
-9.46673e-06
-4.04772e-06
-7.86616e-06
-8.64631e-06
-6.04404e-06
-9.78778e-06
-5.31485e-06
-7.69677e-06
-5.87716e-06
-5.35521e-06
-7.48765e-06
-3.00014e-06
-2.35921e-06
-9.50573e-06
8.4193e-07
3.6596e-06
1.55116e-06
4.27821e-06
2.20782e-06
4.15664e-06
2.81479e-06
3.80641e-06
3.33114e-06
3.6114e-06
3.90712e-06
3.36594e-06
4.66916e-06
2.90204e-06
5.66908e-06
2.27549e-06
6.84315e-06
1.59568e-06
8.25608e-06
8.24884e-07
9.70136e-06
3.9543e-07
1.12217e-05
1.31454e-07
1.2637e-05
9.06691e-08
1.3998e-05
1.45957e-07
1.5187e-05
4.85693e-07
1.61933e-05
9.70078e-07
1.7085e-05
1.59576e-06
1.78236e-05
2.17483e-06
1.82952e-05
2.66643e-06
1.88109e-05
2.91464e-06
1.9379e-05
2.89626e-06
1.99324e-05
2.98493e-06
2.06246e-05
3.14667e-06
2.12613e-05
3.31319e-06
2.1831e-05
3.75373e-06
2.22753e-05
4.29181e-06
2.25967e-05
4.69749e-06
2.28952e-05
5.26705e-06
2.27623e-05
5.80992e-06
2.28485e-05
6.1649e-06
2.30086e-05
6.17946e-06
2.2483e-05
5.98103e-06
2.23804e-05
5.61831e-06
2.20274e-05
5.20886e-06
2.1307e-05
4.77774e-06
2.1475e-05
3.69808e-06
2.16365e-05
2.85967e-06
2.08135e-05
3.06753e-06
1.93815e-05
3.72244e-06
1.80546e-05
4.12722e-06
1.70812e-05
4.45429e-06
1.63916e-05
4.71938e-06
1.57393e-05
4.82571e-06
1.50784e-05
4.85022e-06
1.44026e-05
4.91564e-06
1.37392e-05
4.93341e-06
1.31611e-05
4.85859e-06
1.27331e-05
4.76314e-06
1.24211e-05
4.77879e-06
1.20791e-05
4.91418e-06
1.16176e-05
5.00752e-06
1.10601e-05
4.94072e-06
1.04812e-05
4.74433e-06
9.9324e-06
4.50064e-06
9.5152e-06
4.22727e-06
9.20916e-06
3.97867e-06
8.90496e-06
3.80604e-06
8.52188e-06
3.66827e-06
8.11919e-06
3.53198e-06
7.72892e-06
3.32915e-06
7.30151e-06
3.13766e-06
6.89575e-06
2.83739e-06
6.52464e-06
2.55438e-06
6.18485e-06
2.30365e-06
5.82341e-06
2.05475e-06
5.41783e-06
1.90345e-06
4.98817e-06
1.80824e-06
4.3966e-06
1.78687e-06
3.76723e-06
1.70248e-06
3.10942e-06
1.62724e-06
2.42447e-06
1.56512e-06
1.61777e-06
1.51795e-06
7.7227e-07
1.4262e-06
-1.18976e-07
1.30899e-06
-1.02316e-06
1.0878e-06
-1.92654e-06
8.02684e-07
-2.77864e-06
4.44179e-07
-3.57089e-06
6.12571e-08
-4.28748e-06
-3.72485e-07
-4.92554e-06
-8.05233e-07
-5.43237e-06
-1.22183e-06
-5.87289e-06
-1.54363e-06
-6.23355e-06
-1.88903e-06
-6.51696e-06
-2.25831e-06
-6.75405e-06
-2.64063e-06
-6.97137e-06
-2.97131e-06
-7.20816e-06
-3.21968e-06
-7.36933e-06
-3.59478e-06
-7.44489e-06
-3.59866e-06
-7.40188e-06
-3.73166e-06
-7.25323e-06
-3.63609e-06
-7.04013e-06
-3.64724e-06
-6.95586e-06
-3.77868e-06
-6.68579e-06
-3.92166e-06
-6.40105e-06
-4.23846e-06
-6.16073e-06
-5.07138e-06
-6.45689e-06
-5.74414e-06
-6.72593e-06
-7.17284e-06
-6.17068e-06
-7.87467e-06
-5.23425e-06
-7.86142e-06
-4.382e-06
-7.92108e-06
-3.56317e-06
-7.70133e-06
-2.75797e-06
-6.30996e-06
-1.97683e-06
-5.29111e-06
-1.47472e-06
-4.81383e-06
-9.06418e-07
-4.52077e-06
-7.1989e-08
-3.71972e-06
3.59046e-07
-2.27968e-06
4.3833e-08
-1.54329e-06
-7.15126e-07
-1.51816e-06
-1.46252e-06
-1.84372e-06
-1.84806e-06