/*--------------------------------*- C++ -*----------------------------------*\
| =========                 |                                                 |
| \\      /  F ield         | OpenFOAM: The Open Source CFD Toolbox           |
|  \\    /   O peration     | Version:  dev                                   |
|   \\  /    A nd           | Web:      http://www.openfoam.org               |
|    \\/     M anipulation  |                                                 |
\*---------------------------------------------------------------------------*/
FoamFile
{
    version     2.0;
    format      ascii;
    class       surfaceScalarField;
    object      phi_0;
    location    "9.141";
}
// * * * * * * * * * * * * * * * * * * * * * * * * * * * * * * * * * * * * * //

dimensions      [1 0 -1 0 0 0 0];

internalField   nonuniform List<scalar> 
24170
(
1.51026e-06
7.32886e-07
1.64502e-07
9.23435e-08
-6.73097e-07
-3.47171e-07
-1.27825e-06
-5.12865e-07
-1.90621e-06
-4.16502e-07
-2.28619e-06
-6.04777e-07
-2.95131e-06
-2.55748e-07
-3.24665e-06
-5.72304e-07
-3.97039e-06
-7.83154e-08
-4.2441e-06
-4.72425e-07
-5.09298e-06
1.61466e-07
-5.1671e-06
-5.59616e-07
-6.39105e-06
6.46776e-07
-6.38313e-06
-5.25199e-07
-7.59282e-06
7.63172e-07
-7.2517e-06
-7.41699e-07
-4.95474e-06
-2.59961e-06
5.68003e-06
-1.07465e-05
3.16354e-06
-3.23663e-09
2.05953e-06
-1.62867e-07
1.15805e-06
-7.40527e-07
3.56437e-07
-9.29954e-07
-3.06488e-07
-8.95669e-07
-1.00523e-06
-9.76113e-07
-1.642e-06
-6.22904e-07
-1.95371e-06
-1.2001e-06
-2.66795e-06
-2.31978e-07
-3.09828e-06
-8.44697e-07
-3.70008e-06
2.74491e-08
-4.33315e-06
-6.02715e-07
-4.78027e-06
4.82238e-07
-5.48796e-06
-3.65064e-07
-6.63912e-06
1.45062e-06
-5.88131e-06
-1.90869e-06
-1.01334e-05
1.34498e-06
9.53278e-06
-1.4137e-05
3.91653e-06
-1.1494e-06
3.1471e-06
-8.9315e-07
2.5218e-06
-1.54271e-06
1.77994e-06
-1.53137e-06
1.07034e-06
-1.44625e-06
5.26509e-07
-1.61426e-06
-1.69485e-07
-1.0344e-06
-5.10956e-07
-1.89933e-06
-1.28135e-06
-4.23834e-07
-1.30229e-06
-1.71146e-06
-2.47558e-06
3.82381e-07
-2.54559e-06
-1.27791e-06
-3.52867e-06
7.74e-07
-4.63594e-06
1.43379e-07
-4.74301e-06
1.03273e-06
-8.66442e-06
1.55135e-06
-1.26048e-05
4.93319e-06
8.67937e-06
-1.19516e-05
4.11373e-06
-2.13806e-06
3.69936e-06
-2.12122e-06
3.11865e-06
-2.52652e-06
2.75011e-06
-2.6331e-06
2.03211e-06
-2.10845e-06
1.80102e-06
-2.67654e-06
8.4625e-07
-1.29192e-06
7.56077e-07
-2.94427e-06
-8.29925e-08
-6.37573e-07
-1.76346e-07
-2.59396e-06
-1.32895e-06
6.37779e-07
-1.47358e-06
-1.96526e-06
-2.60853e-06
1.15206e-06
-2.1692e-06
-9.54453e-07
-3.98201e-06
2.27004e-06
-5.94604e-06
3.00158e-06
-8.92661e-06
7.48725e-06
1.24782e-05
-1.30534e-05
4.24684e-06
-3.20668e-06
4.48483e-06
-4.15063e-06
3.56953e-06
-3.318e-06
3.39798e-06
-4.06573e-06
2.5549e-06
-2.77241e-06
2.26774e-06
-3.80146e-06
1.35073e-06
-1.697e-06
9.75296e-07
-3.80363e-06
4.73766e-07
-1.28448e-06
-4.51547e-07
-2.73506e-06
-1.19462e-06
4.0012e-07
-1.96972e-06
-2.1033e-06
-2.75136e-06
1.10152e-06
-2.59265e-06
-1.84161e-06
-5.63354e-06
4.65491e-06
-3.99758e-06
7.95745e-07
-7.23015e-06
1.02297e-05
1.5235e-05
-1.04243e-05
4.44092e-06
-3.79816e-06
4.80326e-06
-6.45993e-06
3.65954e-06
-4.02654e-06
3.17282e-06
-5.31931e-06
2.03283e-06
-3.26865e-06
1.63478e-06
-4.93606e-06
9.96915e-07
-2.49415e-06
8.16407e-07
-4.95938e-06
-1.5849e-08
-1.69859e-06
-1.46742e-06
-2.44206e-06
-2.02248e-06
-1.1219e-07
-2.83681e-06
-2.27673e-06
-3.30485e-06
6.65004e-07
-4.74726e-06
-1.19778e-06
-6.49253e-06
5.66081e-06
-4.19278e-06
-2.13516e-06
-6.59323e-06
1.20778e-05
1.41178e-05
-5.98695e-06
4.76325e-06
-4.45425e-06
4.99463e-06
-8.80029e-06
3.96626e-06
-5.00021e-06
3.52534e-06
-6.755e-06
2.41349e-06
-3.92202e-06
1.75621e-06
-5.92603e-06
1.07221e-06
-3.35521e-06
9.8329e-07
-6.30479e-06
-1.44137e-07
-1.91422e-06
-1.15695e-06
-2.67603e-06
-2.05334e-06
-3.69444e-07
-2.10123e-06
-3.28964e-06
-2.96337e-06
5.52603e-07
-3.9902e-06
-1.05317e-06
-4.64662e-06
5.49067e-06
-6.22573e-06
-1.25932e-06
-3.93819e-06
9.17041e-06
1.05059e-05
-8.87271e-07
3.88717e-06
-5.05736e-06
3.6579e-06
-1.01772e-05
3.17353e-06
-6.04484e-06
3.0119e-06
-8.02215e-06
2.24333e-06
-4.49913e-06
1.66861e-06
-6.60506e-06
1.32418e-06
-4.18687e-06
1.02873e-06
-7.09979e-06
2.33515e-07
-2.1398e-06
6.16081e-08
-3.4517e-06
-3.29662e-07
-8.5735e-07
-7.33562e-07
-3.69086e-06
-1.51021e-06
5.84704e-07
-1.57948e-06
-1.66019e-06
-1.40031e-06
4.67088e-06
-4.03802e-06
8.24538e-07
-1.76179e-06
6.40445e-06
7.67579e-06
6.32521e-07
4.82447e-06
-5.98065e-06
4.23202e-06
-1.14018e-05
3.76487e-06
-7.31474e-06
3.25362e-06
-9.13284e-06
2.4972e-06
-5.26854e-06
2.08973e-06
-7.62084e-06
1.7597e-06
-5.18828e-06
7.23138e-07
-7.30268e-06
3.67003e-07
-2.94106e-06
1.53454e-07
-4.31199e-06
-1.42899e-07
-1.55773e-06
-9.7448e-07
-3.77276e-06
-1.06882e-06
-1.71518e-07
-1.77346e-06
-1.72964e-06
-1.61677e-06
3.78518e-06
-3.05219e-06
1.62074e-06
-2.3239e-06
5.10347e-06
6.32478e-06
-1.47976e-06
5.77295e-06
-7.30652e-06
4.889e-06
-1.25631e-05
4.16429e-06
-8.54047e-06
3.5481e-06
-1.03413e-05
3.25828e-06
-6.68913e-06
2.66741e-06
-8.62844e-06
2.05538e-06
-6.06686e-06
9.48317e-07
-7.58435e-06
8.26253e-07
-4.11397e-06
2.29826e-07
-4.91571e-06
4.02317e-08
-2.48471e-06
-1.05985e-06
-3.70103e-06
-1.33119e-06
-8.63417e-07
-2.56505e-06
-1.37001e-06
-1.99472e-06
2.38733e-06
-2.95202e-06
1.85383e-06
-2.46513e-06
3.93265e-06
5.68631e-06
-2.43181e-06
6.92905e-06
-8.49218e-06
5.75983e-06
-1.36707e-05
5.07843e-06
-1.00194e-05
4.2268e-06
-1.15142e-05
3.83028e-06
-8.18314e-06
2.94298e-06
-9.50936e-06
2.29604e-06
-7.06624e-06
1.4306e-06
-8.24967e-06
1.12948e-06
-5.23722e-06
4.87384e-07
-5.59556e-06
3.59693e-07
-3.58821e-06
-6.00594e-07
-3.88223e-06
-8.9269e-07
-1.6333e-06
-1.91583e-06
-1.31739e-06
-1.31017e-06
8.64672e-07
-1.86681e-06
1.59112e-06
-1.55965e-06
2.84867e-06
4.42463e-06
-1.00335e-06
8.26303e-06
-1.00014e-05
6.69467e-06
-1.45878e-05
6.06514e-06
-1.17408e-05
4.77695e-06
-1.24278e-05
4.44091e-06
-9.89606e-06
3.42247e-06
-1.04035e-05
3.0599e-06
-8.48229e-06
1.88716e-06
-8.72996e-06
1.73479e-06
-6.61998e-06
8.94288e-07
-6.18254e-06
5.79655e-07
-4.6026e-06
-3.61181e-07
-4.17716e-06
-4.88686e-07
-2.65474e-06
-1.16683e-06
-1.70076e-06
-1.04136e-06
-2.51872e-07
-1.22228e-06
8.59565e-07
-9.61201e-07
1.73558e-06
2.90227e-06
-2.29186e-07
9.48348e-06
-1.14909e-05
7.89286e-06
-1.56369e-05
7.06231e-06
-1.34008e-05
5.86452e-06
-1.35559e-05
5.32645e-06
-1.15148e-05
4.312e-06
-1.1396e-05
3.70279e-06
-9.73666e-06
2.71883e-06
-9.47972e-06
2.19378e-06
-7.7019e-06
1.4243e-06
-6.90738e-06
1.08941e-06
-5.6583e-06
4.38282e-07
-4.82023e-06
1.66633e-07
-3.58847e-06
-1.44808e-07
-2.51114e-06
-6.36735e-08
-1.37962e-06
6.1596e-08
-2.40758e-07
2.73006e-07
6.12347e-07
1.56612e-06
7.55391e-07
1.0993e-05
-1.31592e-05
9.42794e-06
-1.67706e-05
8.58163e-06
-1.50954e-05
7.10608e-06
-1.44424e-05
6.39438e-06
-1.29846e-05
5.23968e-06
-1.22611e-05
4.62337e-06
-1.099e-05
3.6141e-06
-1.02054e-05
3.16191e-06
-8.85472e-06
2.5652e-06
-7.80128e-06
2.26672e-06
-6.7466e-06
1.83078e-06
-5.67629e-06
1.63769e-06
-4.60151e-06
1.51905e-06
-3.51994e-06
1.56875e-06
-2.48504e-06
1.8003e-06
-1.46237e-06
2.04178e-06
-5.59398e-07
2.50042e-07
2.48146e-06
1.27042e-05
-1.39155e-05
1.09125e-05
-1.75662e-05
9.76564e-06
-1.63857e-05
8.50408e-06
-1.54335e-05
7.6985e-06
-1.42489e-05
6.77131e-06
-1.3237e-05
6.13757e-06
-1.21074e-05
5.37945e-06
-1.10611e-05
4.80859e-06
-9.7715e-06
4.27811e-06
-8.64869e-06
3.88187e-06
-7.63053e-06
3.56727e-06
-6.55373e-06
3.39974e-06
-5.54815e-06
3.42275e-06
-4.58765e-06
3.54869e-06
-3.59367e-06
3.87771e-06
-2.71795e-06
4.3638e-06
-1.9217e-06
-1.08595e-06
4.86873e-06
1.4504e-05
-1.50033e-05
1.30787e-05
-1.83838e-05
1.1923e-05
-1.73313e-05
1.07876e-05
-1.62222e-05
9.84826e-06
-1.50618e-05
8.92359e-06
-1.39054e-05
8.11879e-06
-1.27505e-05
7.34985e-06
-1.16104e-05
6.8107e-06
-1.04373e-05
6.44143e-06
-9.385e-06
6.1757e-06
-8.38543e-06
6.04161e-06
-7.36783e-06
6.03221e-06
-6.42412e-06
6.12998e-06
-5.51691e-06
6.36316e-06
-4.61224e-06
6.73375e-06
-3.83338e-06
7.14226e-06
-3.04015e-06
-2.37118e-06
7.74799e-06
1.74402e-05
-1.54603e-05
1.59714e-05
-1.849e-05
1.44794e-05
-1.73063e-05
1.31017e-05
-1.61584e-05
1.19105e-05
-1.50358e-05
1.09279e-05
-1.39492e-05
1.01746e-05
-1.28978e-05
9.63475e-06
-1.18623e-05
9.32759e-06
-1.08302e-05
9.16938e-06
-9.84787e-06
9.11556e-06
-8.89079e-06
9.15476e-06
-7.9172e-06
9.29203e-06
-7.03244e-06
9.50328e-06
-6.16991e-06
9.8195e-06
-5.3462e-06
1.02117e-05
-4.6262e-06
1.07056e-05
-3.92242e-06
-3.27427e-06
1.12298e-05
1.7934e-05
-1.45246e-05
1.67087e-05
-1.77838e-05
1.5481e-05
-1.65653e-05
1.43576e-05
-1.54263e-05
1.33828e-05
-1.43538e-05
1.25881e-05
-1.3355e-05
1.19817e-05
-1.24114e-05
1.1564e-05
-1.14973e-05
1.13142e-05
-1.05757e-05
1.1197e-05
-9.68371e-06
1.11851e-05
-8.80343e-06
1.13033e-05
-7.94037e-06
1.15199e-05
-7.14493e-06
1.18453e-05
-6.39111e-06
1.2265e-05
-5.66593e-06
1.27737e-05
-5.04464e-06
1.33641e-05
-4.43612e-06
-3.85907e-06
1.401e-05
1.64603e-05
-1.30641e-05
1.51733e-05
-1.61829e-05
1.41075e-05
-1.51966e-05
1.32334e-05
-1.4205e-05
1.25049e-05
-1.32254e-05
1.19261e-05
-1.23292e-05
1.1489e-05
-1.14897e-05
1.11792e-05
-1.06695e-05
1.10195e-05
-9.8757e-06
1.10194e-05
-9.13412e-06
1.11547e-05
-8.38716e-06
1.13948e-05
-7.63454e-06
1.17211e-05
-6.93647e-06
1.21079e-05
-6.2623e-06
1.255e-05
-5.6159e-06
1.30257e-05
-5.05345e-06
1.35313e-05
-4.50623e-06
-4.00946e-06
1.40867e-05
1.45175e-05
-1.16413e-05
1.36176e-05
-1.44933e-05
1.28312e-05
-1.36447e-05
1.21982e-05
-1.27938e-05
1.16954e-05
-1.1918e-05
1.13276e-05
-1.11367e-05
1.1046e-05
-1.03717e-05
1.08399e-05
-9.61258e-06
1.07616e-05
-8.94296e-06
1.07874e-05
-8.31474e-06
1.09083e-05
-7.6809e-06
1.11374e-05
-7.05535e-06
1.14362e-05
-6.45112e-06
1.18039e-05
-5.87692e-06
1.22115e-05
-5.30114e-06
1.26401e-05
-4.79354e-06
1.31151e-05
-4.33213e-06
-3.87076e-06
1.35881e-05
1.3058e-05
-1.01445e-05
1.2251e-05
-1.26254e-05
1.16084e-05
-1.19844e-05
1.11148e-05
-1.12921e-05
1.07706e-05
-1.05544e-05
1.05061e-05
-9.84495e-06
1.02986e-05
-9.14743e-06
1.01917e-05
-8.48552e-06
1.01624e-05
-7.89574e-06
1.01876e-05
-7.34403e-06
1.03119e-05
-6.83584e-06
1.05075e-05
-6.30915e-06
1.07579e-05
-5.79094e-06
1.1085e-05
-5.3298e-06
1.14498e-05
-4.82738e-06
1.18449e-05
-4.38637e-06
1.22668e-05
-3.99509e-06
-3.5763e-06
1.26926e-05
1.13605e-05
-8.82936e-06
1.08859e-05
-1.09773e-05
1.04456e-05
-1.04049e-05
1.01071e-05
-9.84038e-06
9.84789e-06
-9.19326e-06
9.63064e-06
-8.51586e-06
9.49846e-06
-7.92135e-06
9.47394e-06
-7.38303e-06
9.51588e-06
-6.86189e-06
9.62493e-06
-6.40124e-06
9.78884e-06
-5.97777e-06
9.98986e-06
-5.51808e-06
1.02581e-05
-5.10169e-06
1.05381e-05
-4.69145e-06
1.0864e-05
-4.27245e-06
1.1217e-05
-3.89682e-06
1.15747e-05
-3.55262e-06
-3.20175e-06
1.19621e-05
1.04472e-05
-7.46024e-06
9.90967e-06
-9.24658e-06
9.5429e-06
-8.86222e-06
9.27405e-06
-8.42259e-06
9.04424e-06
-7.85254e-06
8.88415e-06
-7.24538e-06
8.79773e-06
-6.73149e-06
8.76956e-06
-6.27803e-06
8.81352e-06
-5.83955e-06
8.91301e-06
-5.45753e-06
9.05384e-06
-5.10621e-06
9.25093e-06
-4.72924e-06
9.47861e-06
-4.38121e-06
9.7346e-06
-4.03295e-06
1.00322e-05
-3.69462e-06
1.03379e-05
-3.36679e-06
1.06596e-05
-3.07291e-06
-2.77811e-06
1.09935e-05
9.33012e-06
-6.23277e-06
8.99056e-06
-7.74721e-06
8.69291e-06
-7.43112e-06
8.42527e-06
-7.0272e-06
8.207e-06
-6.54589e-06
8.09499e-06
-6.07375e-06
8.07785e-06
-5.65024e-06
8.12858e-06
-5.28171e-06
8.22388e-06
-4.92167e-06
8.33236e-06
-4.56667e-06
8.46079e-06
-4.26201e-06
8.63424e-06
-3.9654e-06
8.82239e-06
-3.6585e-06
9.05401e-06
-3.38858e-06
9.29663e-06
-3.09969e-06
9.55593e-06
-2.82151e-06
9.84099e-06
-2.58965e-06
-2.33741e-06
1.0128e-05
7.9873e-06
-5.02145e-06
7.83545e-06
-6.48792e-06
7.66744e-06
-6.20012e-06
7.49886e-06
-5.80515e-06
7.38086e-06
-5.3937e-06
7.32596e-06
-5.01427e-06
7.34229e-06
-4.67386e-06
7.40503e-06
-4.36299e-06
7.49223e-06
-4.05813e-06
7.61503e-06
-3.75843e-06
7.76789e-06
-3.50295e-06
7.92026e-06
-3.2423e-06
8.10478e-06
-2.99228e-06
8.31316e-06
-2.77653e-06
8.5511e-06
-2.55582e-06
8.81545e-06
-2.33077e-06
9.06422e-06
-2.1206e-06
-1.91431e-06
9.32431e-06
7.44508e-06
-4.04482e-06
7.30002e-06
-5.30733e-06
7.16505e-06
-5.07401e-06
7.01913e-06
-4.69082e-06
6.89231e-06
-4.31261e-06
6.79646e-06
-3.98203e-06
6.7359e-06
-3.69652e-06
6.71005e-06
-3.43559e-06
6.72681e-06
-3.1934e-06
6.78241e-06
-2.95616e-06
6.8808e-06
-2.76409e-06
7.00793e-06
-2.55994e-06
7.16944e-06
-2.37301e-06
7.3527e-06
-2.20428e-06
7.54777e-06
-2.02879e-06
7.75432e-06
-1.84467e-06
7.96839e-06
-1.67089e-06
-1.50466e-06
8.18804e-06
6.60314e-06
-3.26653e-06
6.60482e-06
-4.36313e-06
6.51054e-06
-4.07163e-06
6.37641e-06
-3.66927e-06
6.24281e-06
-3.31067e-06
6.13114e-06
-3.01799e-06
6.04404e-06
-2.77255e-06
5.98946e-06
-2.56077e-06
5.96884e-06
-2.37048e-06
5.97501e-06
-2.18034e-06
6.00014e-06
-2.02897e-06
6.03942e-06
-1.86189e-06
6.09752e-06
-1.71907e-06
6.17092e-06
-1.59156e-06
6.26293e-06
-1.46134e-06
6.37693e-06
-1.32734e-06
6.50819e-06
-1.19838e-06
-1.07343e-06
6.65276e-06
6.07396e-06
-2.66453e-06
5.92259e-06
-3.35221e-06
5.64712e-06
-2.97401e-06
5.35973e-06
-2.57894e-06
5.08825e-06
-2.25291e-06
4.84454e-06
-2.00322e-06
4.63881e-06
-1.81047e-06
4.47026e-06
-1.65106e-06
4.34316e-06
-1.51872e-06
4.25421e-06
-1.38475e-06
4.18941e-06
-1.27713e-06
4.16369e-06
-1.17018e-06
4.15656e-06
-1.06826e-06
4.16592e-06
-9.80688e-07
4.19987e-06
-8.99357e-07
4.25803e-06
-8.14397e-07
4.34212e-06
-7.36539e-07
-6.52977e-07
4.4424e-06
5.19522e-06
-1.9782e-06
4.72763e-06
-2.10773e-06
4.12297e-06
-1.62698e-06
3.55783e-06
-1.28938e-06
3.07336e-06
-1.05932e-06
2.6811e-06
-9.1548e-07
2.37117e-06
-8.18346e-07
2.13583e-06
-7.4732e-07
1.96516e-06
-6.94545e-07
1.85624e-06
-6.38658e-07
1.78792e-06
-5.89445e-07
1.75969e-06
-5.4184e-07
1.76618e-06
-4.95107e-07
1.79855e-06
-4.54841e-07
1.85338e-06
-4.18041e-07
1.92897e-06
-3.7639e-07
2.03348e-06
-3.50132e-07
-2.93752e-07
2.14231e-06
3.44114e-06
2.09465e-06
1.19277e-06
6.04064e-07
2.25315e-07
-2.61258e-08
-1.95796e-07
-3.0979e-07
-3.87145e-07
-4.25898e-07
-4.33991e-07
-4.14146e-07
-3.68193e-07
-3.03273e-07
-2.23313e-07
-1.23691e-07
-1.97834e-08
1.18366e-07
-3.3649e-08
1.78918e-06
5.00331e-09
1.75825e-06
2.16495e-07
1.58611e-06
6.50583e-07
1.37522e-06
1.25945e-06
1.2068e-06
1.99627e-06
1.08602e-06
2.78793e-06
1.03388e-06
3.66203e-06
9.53255e-07
4.65251e-06
8.35856e-07
5.76051e-06
7.15583e-07
6.97663e-06
6.03834e-07
8.3197e-06
4.7381e-07
9.729e-06
4.02347e-07
1.10732e-05
4.59227e-07
1.23304e-05
5.4841e-07
1.35774e-05
5.70187e-07
1.47158e-05
6.7695e-07
1.56327e-05
8.85253e-07
1.64756e-05
9.42806e-07
1.72316e-05
1.00619e-06
1.7838e-05
1.14185e-06
1.84627e-05
1.12172e-06
1.89257e-05
1.25384e-06
1.92184e-05
1.40552e-06
1.94514e-05
1.47423e-06
1.92763e-05
1.81986e-06
1.89529e-05
1.93616e-06
1.84328e-05
2.09194e-06
1.745e-05
2.41366e-06
1.68255e-05
2.10109e-06
1.66656e-05
1.77781e-06
1.6556e-05
1.74872e-06
1.66499e-05
1.50917e-06
1.69798e-05
1.23954e-06
1.75895e-05
9.38686e-07
1.83583e-05
7.50638e-07
1.91464e-05
6.7361e-07
1.99342e-05
5.75519e-07
2.05562e-05
6.48617e-07
2.07866e-05
1.04206e-06
2.09457e-05
1.13828e-06
2.13802e-05
7.89405e-07
2.1787e-05
6.59689e-07
2.18581e-05
8.88282e-07
2.17544e-05
1.04237e-06
2.16945e-05
9.97368e-07
2.17039e-05
9.18721e-07
2.16599e-05
9.52085e-07
2.1554e-05
9.82816e-07
2.13908e-05
9.97048e-07
2.11371e-05
1.0349e-06
2.08299e-05
1.02944e-06
2.04667e-05
1.02314e-06
2.00887e-05
9.72173e-07
1.96157e-05
9.98814e-07
1.90377e-05
1.03339e-06
1.83713e-05
1.05137e-06
1.76449e-05
1.04343e-06
1.6892e-05
1.00317e-06
1.60421e-05
1.0333e-06
1.51228e-05
1.03204e-06
1.41673e-05
9.91076e-07
1.3163e-05
9.61697e-07
1.21792e-05
8.69111e-07
1.11777e-05
8.15836e-07
1.01051e-05
8.15323e-07
9.05124e-06
7.28494e-07
8.01252e-06
6.46788e-07
6.97252e-06
5.8589e-07
5.92747e-06
5.34879e-07
4.86525e-06
4.99059e-07
3.79848e-06
4.53092e-07
2.72974e-06
4.07351e-07
1.6685e-06
3.53666e-07
6.40166e-07
2.78111e-07
-3.40762e-07
1.89634e-07
-1.25716e-06
8.48676e-08
-2.11298e-06
-1.59545e-08
-2.90699e-06
-1.16945e-07
-3.65435e-06
-2.00633e-07
-4.36918e-06
-2.67024e-07
-5.06046e-06
-3.20921e-07
-5.72148e-06
-3.78399e-07
-6.32127e-06
-4.64409e-07
-6.82233e-06
-5.86004e-07
-7.19282e-06
-7.36292e-07
-7.47886e-06
-8.36601e-07
-7.67208e-06
-9.42036e-07
-7.95459e-06
-8.64692e-07
-8.33182e-06
-7.85067e-07
-8.76785e-06
-7.40519e-07
-9.15339e-06
-7.99753e-07
-9.38931e-06
-9.43998e-07
-9.59046e-06
-9.58392e-07
-9.53117e-06
-1.17731e-06
-9.16995e-06
-1.43048e-06
-8.37906e-06
-1.81673e-06
-7.1556e-06
-2.24136e-06
-6.31635e-06
-1.88529e-06
-5.61738e-06
-1.72355e-06
-4.88365e-06
-1.73232e-06
-4.33685e-06
-1.51772e-06
-4.17276e-06
-1.10804e-06
-4.3052e-06
-7.92958e-07
-4.54146e-06
-6.57984e-07
-4.77888e-06
-6.17894e-07
-5.07103e-06
-5.54632e-07
-5.43416e-06
-5.18136e-07
-5.82189e-06
-5.13131e-07
-6.17441e-06
-5.02116e-07
-6.24353e-06
-6.93683e-07
-5.91273e-06
-1.01637e-06
-5.04649e-06
-1.47372e-06
-4.02803e-06
-1.55602e-06
-3.03574e-06
-1.48243e-06
-1.82186e-06
-1.65682e-06
-5.10608e-07
-1.69754e-06
6.7814e-07
-1.51359e-06
1.24473e-06
-8.25199e-07
8.05342e-07
2.47673e-07
-4.83979e-07
1.17809e-06
-1.98258e-06
1.4513e-06
-2.97687e-06
1.00191e-06
-3.61064e-06
7.20885e-07
-3.90052e-06
4.40941e-07
-3.92804e-06
2.38089e-07
-3.93639e-06
2.96143e-07
-3.25927e-06
-3.11792e-07
-1.00874e-06
-1.79068e-06
2.31104e-06
-2.79365e-06
5.65089e-06
-2.74609e-06
1.00264e-05
-3.68249e-06
1.25594e-05
-1.95979e-06
1.16788e-05
1.3671e-06
1.05844e-05
1.73385e-06
1.03071e-05
1.06337e-06
1.06845e-05
3.84297e-07
1.05705e-05
8.09011e-07
1.01484e-05
1.16383e-06
9.71624e-06
1.22768e-06
1.02339e-05
1.5161e-08
9.64461e-06
9.81791e-07
9.65411e-06
4.62694e-07
1.34665e-05
-3.33875e-06
1.76536e-05
-3.9012e-06
1.83158e-05
-7.04593e-07
1.76416e-05
4.93339e-07
1.68817e-05
4.82561e-07
1.58e-05
6.95525e-07
1.45616e-05
7.38437e-07
1.29413e-05
1.004e-06
1.15015e-05
6.8902e-07
1.01871e-05
4.49393e-07
8.867e-06
3.32855e-07
7.59572e-06
1.71207e-07
6.38199e-06
5.79791e-08
5.14657e-06
6.96797e-08
4.02853e-06
-7.75295e-08
2.79295e-06
8.08809e-08
1.72243e-06
-7.89586e-09
8.0171e-07
-7.00782e-08
-6.19492e-07
5.61963e-07
-1.84175e-06
5.00328e-07
-1.71271e-06
-7.19955e-07
-1.46095e-06
-6.97066e-07
-2.18082e-06
3.39199e-07
-3.6651e-06
1.16887e-06
-5.78604e-06
1.82265e-06
-6.47079e-06
3.1135e-07
-5.27559e-06
-1.4828e-06
-5.12344e-06
-3.67404e-07
-5.40371e-06
-8.45044e-08
-6.1138e-06
2.23277e-07
-6.53567e-06
-1.92542e-07
-5.81791e-06
-1.45539e-06
-4.22156e-06
-2.37195e-06
-3.01377e-06
-2.0038e-06
-1.94204e-06
-1.99306e-06
-1.52339e-06
-1.46473e-06
-1.33669e-06
-1.30759e-06
3.72819e-07
3.15183e-06
5.41776e-07
3.38154e-06
8.24107e-07
3.09131e-06
1.28827e-06
2.70042e-06
1.88178e-06
2.41428e-06
2.5306e-06
2.23974e-06
3.23906e-06
2.12053e-06
4.05556e-06
1.9218e-06
5.04275e-06
1.62308e-06
6.21527e-06
1.30789e-06
7.51159e-06
1.06377e-06
8.89166e-06
8.51906e-07
1.03293e-05
7.38168e-07
1.18231e-05
7.16157e-07
1.31954e-05
8.98415e-07
1.44271e-05
1.12283e-06
1.55868e-05
1.35269e-06
1.66179e-05
1.68473e-06
1.74762e-05
1.87028e-06
1.82248e-05
1.97056e-06
1.90004e-05
2.13347e-06
1.96899e-05
2.15082e-06
2.0264e-05
2.32578e-06
2.09787e-05
2.5101e-06
2.13688e-05
2.73601e-06
2.16481e-05
3.15613e-06
2.20596e-05
3.41542e-06
2.18786e-05
3.77839e-06
2.1813e-05
4.0017e-06
2.1638e-05
4.13722e-06
2.07255e-05
4.16176e-06
2.00394e-05
3.78103e-06
1.95815e-05
3.46663e-06
1.93192e-05
3.05405e-06
1.97144e-05
2.24033e-06
2.0435e-05
1.87537e-06
2.10698e-05
1.86047e-06
2.1752e-05
1.52684e-06
2.27707e-05
9.92136e-07
2.35474e-05
1.28397e-06
2.38466e-05
1.88705e-06
2.41136e-05
2.05157e-06
2.41991e-05
2.04374e-06
2.34888e-05
2.24127e-06
2.23299e-05
2.45351e-06
2.13904e-05
2.50754e-06
2.06763e-05
2.54707e-06
2.00501e-05
2.58347e-06
1.9386e-05
2.62166e-06
1.86491e-05
2.65111e-06
1.78516e-05
2.69241e-06
1.69922e-05
2.70051e-06
1.60955e-05
2.68189e-06
1.50733e-05
2.68009e-06
1.40632e-05
2.59138e-06
1.30832e-05
2.49277e-06
1.21364e-05
2.39369e-06
1.12043e-05
2.29705e-06
1.02286e-05
2.21998e-06
9.26741e-06
2.15166e-06
8.3256e-06
2.0448e-06
7.40041e-06
1.89852e-06
6.51353e-06
1.74593e-06
5.57578e-06
1.64463e-06
4.69717e-06
1.46278e-06
3.85985e-06
1.35571e-06
3.06718e-06
1.16055e-06
2.21149e-06
1.07424e-06
1.34159e-06
9.70627e-07
4.69564e-07
8.68008e-07
-4.17855e-07
7.95816e-07
-1.31452e-06
7.09235e-07
-2.20427e-06
6.08307e-07
-3.08131e-06
4.9368e-07
-3.93022e-06
3.41541e-07
-4.73017e-06
1.55547e-07
-5.48684e-06
-4.10747e-08
-6.17616e-06
-2.54034e-07
-6.80039e-06
-4.61239e-07
-7.34793e-06
-6.59349e-07
-7.84314e-06
-8.1355e-07
-8.29385e-06
-9.43063e-07
-8.70038e-06
-1.06465e-06
-9.02098e-06
-1.24267e-06
-9.20876e-06
-1.49645e-06
-9.29221e-06
-1.7558e-06
-9.3312e-06
-1.92418e-06
-9.29949e-06
-2.15466e-06
-9.4183e-06
-1.9931e-06
-9.59484e-06
-1.88349e-06
-9.85156e-06
-1.72967e-06
-1.00618e-05
-1.76008e-06
-1.00664e-05
-2.07162e-06
-1.00646e-05
-2.00584e-06
-9.84683e-06
-2.27465e-06
-9.32793e-06
-2.71793e-06
-8.40315e-06
-3.4682e-06
-7.10858e-06
-4.40145e-06
-5.97666e-06
-4.0164e-06
-5.03523e-06
-3.61982e-06
-4.01039e-06
-3.69033e-06
-2.97679e-06
-3.48752e-06
-2.41755e-06
-2.62139e-06
-2.17982e-06
-1.99126e-06
-1.98307e-06
-1.79966e-06
-2.03941e-06
-1.45994e-06
-2.63551e-06
-8.295e-07
-3.36491e-06
-6.35964e-07
-3.94613e-06
-8.26444e-07
-4.42224e-06
-1.02635e-06
-4.72676e-06
-1.33672e-06
-4.62335e-06
-1.87671e-06
-3.87567e-06
-2.8606e-06
-2.69305e-06
-3.28422e-06
-1.57004e-06
-3.06264e-06
-4.91158e-07
-3.15763e-06
1.48425e-07
-2.74663e-06
-5.08721e-07
-1.19671e-06
-2.44108e-06
8.58368e-07
-4.75173e-06
2.34889e-06
-6.41893e-06
2.6586e-06
-7.11965e-06
2.04623e-06
-7.48269e-06
1.37427e-06
-7.51869e-06
8.03356e-07
-7.18485e-06
1.76816e-07
-6.97296e-06
2.1121e-07
-6.725e-06
3.72073e-07
-5.40794e-06
-1.19543e-06
-2.57665e-06
-4.14371e-06
5.17543e-07
-5.47837e-06
3.51798e-06
-5.24827e-06
7.26851e-06
-6.7074e-06
1.11219e-05
-5.13918e-06
1.2435e-05
5.17715e-07
1.21471e-05
2.50409e-06
1.15242e-05
2.32817e-06
1.05165e-05
2.09127e-06
9.35832e-06
2.56352e-06
9.00269e-06
2.24865e-06
9.82935e-06
1.23254e-06
1.05989e-05
-5.39971e-07
9.51368e-06
2.00215e-06
9.96734e-06
2.02399e-07
1.38753e-05
-6.70396e-06
1.93703e-05
-8.65115e-06
2.17113e-05
-2.97027e-06
2.16065e-05
2.05939e-07
2.07504e-05
7.70958e-07
2.03305e-05
4.83064e-07
2.01248e-05
3.55041e-07
1.8932e-05
1.63918e-06
1.73457e-05
1.54609e-06
1.53931e-05
1.50177e-06
1.34642e-05
1.26294e-06
1.1732e-05
7.28167e-07
1.00417e-05
4.70107e-07
8.6686e-06
8.12926e-08
7.33155e-06
-1.55731e-07
5.80051e-06
2.2354e-07
4.32592e-06
1.31059e-07
2.97045e-06
1.54924e-08
1.09326e-06
1.37902e-06
-1.27434e-07
7.75489e-07
1.03147e-06
-2.77655e-06
8.73191e-07
-1.31744e-06
-1.90012e-06
2.48808e-06
-5.18598e-06
3.9333e-06
-7.72974e-06
3.8264e-06
-7.42868e-06
-6.2375e-07
-5.29886e-06
-3.97987e-06
-5.56767e-06
-4.85482e-07
-6.50979e-06
2.91318e-07
-7.52441e-06
4.56474e-07
-7.56083e-06
-1.15921e-06
-5.79561e-06
-4.34365e-06
-3.71109e-06
-5.52775e-06
-2.21163e-06
-4.55373e-06
-1.84769e-06
-3.54441e-06
-2.53307e-06
-2.0744e-06
-1.52409e-06
-3.72507e-06
7.17178e-07
4.13437e-06
1.22654e-06
4.6143e-06
1.6522e-06
4.41053e-06
2.15276e-06
3.96155e-06
2.66888e-06
3.67665e-06
3.15567e-06
3.51723e-06
3.77406e-06
3.23856e-06
4.59045e-06
2.82165e-06
5.63904e-06
2.28131e-06
6.94079e-06
1.71495e-06
8.42417e-06
1.28974e-06
9.87459e-06
1.09698e-06
1.13454e-05
9.93162e-07
1.28116e-05
1.00917e-06
1.41428e-05
1.2273e-06
1.52795e-05
1.67007e-06
1.6377e-05
2.10894e-06
1.73044e-05
2.52697e-06
1.80079e-05
2.87739e-06
1.86919e-05
3.0458e-06
1.93718e-05
3.11052e-06
1.99479e-05
3.25579e-06
2.06642e-05
3.35978e-06
2.13097e-05
3.52465e-06
2.17729e-05
4.01772e-06
2.23411e-05
4.37707e-06
2.24769e-05
4.74916e-06
2.25008e-05
5.47909e-06
2.27407e-05
5.65625e-06
2.23835e-05
5.75704e-06
2.215e-05
5.93324e-06
2.21923e-05
5.59732e-06
2.20171e-05
5.2094e-06
2.19261e-05
4.7308e-06
2.16485e-05
4.06979e-06
2.20093e-05
3.07299e-06
2.2878e-05
2.44967e-06
2.30576e-05
2.61379e-06
2.25907e-05
2.77231e-06
2.20257e-05
3.0392e-06
2.1135e-05
3.67617e-06
1.9959e-05
4.11058e-06
1.89103e-05
4.08576e-06
1.81088e-05
4.0404e-06
1.7481e-05
4.09545e-06
1.69195e-05
4.15276e-06
1.63817e-05
4.19386e-06
1.5783e-05
4.25552e-06
1.5041e-05
4.37348e-06
1.41469e-05
4.47531e-06
1.32038e-05
4.47371e-06
1.23004e-05
4.34259e-06
1.14882e-05
4.13991e-06
1.08044e-05
3.92497e-06
1.00969e-05
3.77704e-06
9.35312e-06
3.63497e-06
8.60647e-06
3.46514e-06
7.89322e-06
3.26287e-06
7.1564e-06
3.13208e-06
6.44477e-06
2.95664e-06
5.77434e-06
2.73459e-06
5.16748e-06
2.45847e-06
4.584e-06
2.21815e-06
4.04394e-06
2.01462e-06
3.51001e-06
1.76719e-06
2.97615e-06
1.60029e-06
2.28726e-06
1.49165e-06
1.60619e-06
1.33822e-06
8.58837e-07
1.24726e-06
2.8233e-08
1.17596e-06
-8.23307e-07
1.07318e-06
-1.70645e-06
9.6775e-07
-2.62368e-06
8.51141e-07
-3.5563e-06
7.02439e-07
-4.46899e-06
4.83321e-07
-5.33553e-06
2.10885e-07
-6.13976e-06
-8.17578e-08
-6.86801e-06
-4.00415e-07
-7.49262e-06
-7.42116e-07
-8.0151e-06
-1.0742e-06
-8.45916e-06
-1.337e-06
-8.82132e-06
-1.56961e-06
-9.07039e-06
-1.8074e-06
-9.23213e-06
-2.06454e-06
-9.34326e-06
-2.36537e-06
-9.45081e-06
-2.64705e-06
-9.53364e-06
-2.88824e-06
-9.63317e-06
-3.1733e-06
-9.71282e-06
-3.08596e-06
-9.67841e-06
-3.08246e-06
-9.64181e-06
-2.859e-06
-9.56335e-06
-2.79004e-06
-9.5054e-06
-3.01764e-06
-9.37803e-06
-2.92153e-06
-9.16362e-06
-3.13939e-06
-8.72675e-06
-3.82305e-06
-8.26633e-06
-4.75014e-06
-7.61049e-06
-6.1107e-06
-6.53938e-06
-6.15084e-06
-5.46726e-06
-5.70064e-06
-4.4294e-06
-5.75156e-06
-3.30486e-06
-5.60746e-06
-2.51985e-06
-4.35657e-06
-2.01306e-06
-3.40142e-06
-1.45765e-06
-3.2116e-06
-8.768e-07
-2.84726e-06
-6.58083e-07
-1.86885e-06
-1.25178e-06
-8.69024e-07
-2.03628e-06
-8.47543e-07
-2.62109e-06
-1.25908e-06
-3.14313e-06
-1.59496e-06
-3.44338e-06
-2.21009e-06
-3.31538e-06
-3.53797e-06
-2.70639e-06
-4.35553e-06
-2.01626e-06
-4.1364e-06
-1.88484e-06
-3.64774e-06
-2.90775e-06
-2.06568e-06
-4.91536e-06
5.49072e-07
-7.07706e-06
2.80044e-06
-8.7738e-06
3.81423e-06
-9.51693e-06
3.20902e-06
-9.41523e-06
1.88877e-06
-9.13897e-06
1.14536e-06
-8.59581e-06
3.05642e-07
-8.00463e-06
-3.11334e-07
-7.48365e-06
-7.19232e-08
-6.66199e-06
-5.28384e-08
-5.19088e-06
-2.20659e-06
-2.93874e-06
-6.04753e-06
-1.40075e-06
-6.76996e-06
1.01836e-06
-7.10788e-06
4.21673e-06
-9.19484e-06
8.21223e-06
-8.38098e-06
1.10968e-05
-1.82574e-06
1.21025e-05
2.01012e-06
1.23449e-05
2.91662e-06
1.11487e-05
3.93674e-06
9.83524e-06
4.19799e-06
1.01333e-05
2.58289e-06
1.17416e-05
4.85223e-07
1.47251e-05
-2.6885e-06
1.50148e-05
1.63467e-06
1.36731e-05
1.10105e-06
1.52051e-05
-8.27769e-06
1.95708e-05
-1.22239e-05
2.28807e-05
-5.70664e-06
2.24166e-05
1.6441e-07
2.06347e-05
1.45217e-06
1.98257e-05
2.17625e-07
2.05516e-05
-1.08755e-06
2.05012e-05
1.28972e-06
1.98943e-05
1.71456e-06
1.855e-05
2.12451e-06
1.6799e-05
2.14456e-06
1.48907e-05
1.58186e-06
1.30365e-05
1.13284e-06
1.11542e-05
6.88724e-07
9.83866e-06
-2.30196e-07
8.57684e-06
1.02541e-08
6.64041e-06
6.37604e-07
4.89291e-06
4.64422e-07
2.74781e-06
2.4643e-06
9.40468e-07
1.50714e-06
8.38049e-07
-3.625e-06
-2.13688e-07
-1.07689e-06
-4.02466e-06
5.5234e-06
-7.57378e-06
6.89308e-06
-8.77175e-06
4.22854e-06
-8.00271e-06
-1.86496e-06
-5.43066e-06
-6.82343e-06
-4.9798e-06
-1.6218e-06
-6.29771e-06
9.69535e-07
-7.22467e-06
4.94445e-07
-7.00285e-06
-2.45609e-06
-5.39772e-06
-6.99187e-06
-3.58069e-06
-8.26885e-06
-2.81893e-06
-6.31818e-06
-3.40846e-06
-4.10689e-06
-5.03847e-06
-1.72024e-06
-9.63896e-07
-7.06057e-06
8.13737e-07
4.99618e-06
1.52449e-06
5.59199e-06
2.18852e-06
5.46766e-06
2.79796e-06
5.11666e-06
3.31561e-06
4.91902e-06
3.90989e-06
4.64301e-06
4.70783e-06
4.13131e-06
5.75353e-06
3.46137e-06
6.97768e-06
2.74736e-06
8.44525e-06
1.95397e-06
9.93586e-06
1.5367e-06
1.14822e-05
1.30446e-06
1.29075e-05
1.30181e-06
1.42739e-05
1.39228e-06
1.54487e-05
1.78782e-06
1.64357e-05
2.33758e-06
1.72974e-05
3.00716e-06
1.79852e-05
3.60194e-06
1.84341e-05
4.06779e-06
1.89553e-05
4.26118e-06
1.95198e-05
4.22811e-06
2.00923e-05
4.34263e-06
2.08096e-05
4.51889e-06
2.14477e-05
4.73185e-06
2.20121e-05
5.23155e-06
2.24396e-05
5.78055e-06
2.2755e-05
6.20827e-06
2.30023e-05
6.81175e-06
2.28378e-05
7.34166e-06
2.29484e-05
7.63637e-06
2.29897e-05
7.59753e-06
2.24343e-05
7.33851e-06
2.23654e-05
6.92934e-06
2.19093e-05
6.50335e-06
2.12573e-05
5.95905e-06
2.15009e-05
4.80752e-06
2.14628e-05
4.11558e-06
2.03973e-05
4.46348e-06
1.88827e-05
5.09245e-06
1.75854e-05
5.42732e-06
1.66714e-05
5.69865e-06
1.6018e-05
5.89546e-06
1.53636e-05
5.94466e-06
1.46872e-05
5.93086e-06
1.3993e-05
5.95525e-06
1.33047e-05
5.92261e-06
1.27001e-05
5.79331e-06
1.22444e-05
5.64743e-06
1.18979e-05
5.61635e-06
1.15101e-05
5.69952e-06
1.0995e-05
5.73128e-06
1.03809e-05
5.59884e-06
9.74387e-06
5.33878e-06
9.13417e-06
5.03316e-06
8.65061e-06
4.70277e-06
8.26955e-06
4.40276e-06
7.87918e-06
4.18196e-06
7.40198e-06
3.99438e-06
6.90428e-06
3.80354e-06
6.412e-06
3.54611e-06
5.88638e-06
3.30168e-06
5.38239e-06
2.953e-06
4.90597e-06
2.62352e-06
4.45783e-06
2.32672e-06
3.98988e-06
2.03311e-06
3.48384e-06
1.83924e-06
2.94482e-06
1.69839e-06
2.25372e-06
1.62225e-06
1.52423e-06
1.50926e-06
7.80895e-07
1.39594e-06
-1.67224e-08
1.29434e-06
-8.65958e-07
1.19102e-06
-1.75846e-06
1.07134e-06
-2.69226e-06
9.2101e-07
-3.63046e-06
6.68224e-07
-4.55956e-06
3.56013e-07
-5.42261e-06
-2.53619e-08
-6.22238e-06
-4.2921e-07
-6.9405e-06
-8.80959e-07
-7.57373e-06
-1.33133e-06
-8.06659e-06
-1.76484e-06
-8.4842e-06
-2.09565e-06
-8.81185e-06
-2.44158e-06
-9.05027e-06
-2.80711e-06
-9.23189e-06
-3.18296e-06
-9.38476e-06
-3.50742e-06
-9.55318e-06
-3.74385e-06
-9.64959e-06
-4.10732e-06
-9.65638e-06
-4.10086e-06
-9.53919e-06
-4.20458e-06
-9.30128e-06
-4.07912e-06
-8.97302e-06
-4.03797e-06
-8.77161e-06
-4.12268e-06
-8.38382e-06
-4.21268e-06
-7.96054e-06
-4.46264e-06
-7.57871e-06
-5.22926e-06
-7.73074e-06
-5.87243e-06
-7.86096e-06
-7.29352e-06
-7.19171e-06
-7.96882e-06
-6.15012e-06
-7.89908e-06
-5.18372e-06
-7.90733e-06
-4.24962e-06
-7.65799e-06
-3.34841e-06
-6.23455e-06
-2.4765e-06
-5.16915e-06
-1.88586e-06
-4.65195e-06
-1.23455e-06
-4.33042e-06
-3.29631e-07
-3.51899e-06
1.56153e-07
-2.05804e-06
-9.37098e-08
-1.29884e-06