/*--------------------------------*- C++ -*----------------------------------*\
| =========                 |                                                 |
| \\      /  F ield         | OpenFOAM: The Open Source CFD Toolbox           |
|  \\    /   O peration     | Version:  dev                                   |
|   \\  /    A nd           | Web:      http://www.openfoam.org               |
|    \\/     M anipulation  |                                                 |
\*---------------------------------------------------------------------------*/
FoamFile
{
    version     2.0;
    format      ascii;
    class       volScalarField;
    object      pMean;
    location    "9.141";
}
// * * * * * * * * * * * * * * * * * * * * * * * * * * * * * * * * * * * * * //

dimensions      [1 -1 -2 0 0 0 0];

internalField   nonuniform List<scalar> 
12225
(
98312
98292.2
98278.5
98271.5
98257.2
98247.8
98229.3
98219.7
98198.2
98189.5
98164.8
98157.9
98127
98120.6
98079.9
98040.1
97951
97584.9
98307.5
98291.1
98277.9
98270.9
98256.6
98247.2
98228.6
98219.2
98197.5
98189.1
98164.1
98157.4
98126.6
98118.7
98078.1
98044.2
97951.9
97790.7
98303.7
98289.5
98276.9
98269.6
98255.2
98245.7
98227.1
98217.8
98196.1
98187.6
98163.2
98155.3
98127.1
98115.3
98080.4
98045.1
97977.7
97888.9
98298.7
98286.6
98274.8
98267.1
98252.8
98243
98225
98215.2
98194.4
98184.9
98161.9
98152.3
98126.1
98113.1
98081.4
98053.6
98005
97936.2
98292
98282.2
98271.2
98263.1
98249.2
98238.9
98222
98211
98191.9
98180.6
98160.4
98147.7
98126.2
98109.9
98083.3
98059.1
98019.2
97986.5
98283.8
98276.1
98265.3
98257
98243.6
98233
98216.9
98205.3
98187.5
98175.3
98157.2
98143.6
98125.2
98108.2
98086.8
98061.5
98039.4
98019
98273.5
98267.1
98256.8
98248.3
98235.7
98224.6
98209.8
98197.2
98181.5
98167.9
98152.5
98137.5
98122.9
98105.4
98091.1
98070.1
98059.7
98044.8
98262.8
98257.1
98247.4
98238.7
98227
98215.5
98201.9
98188.7
98174.7
98160.4
98147.3
98131.6
98120.1
98102.8
98094
98076.2
98074.5
98059.5
98251.9
98246.5
98237.7
98228.7
98217.9
98206.1
98193.6
98180.1
98167.5
98152.9
98141.4
98125.9
98116.2
98100.2
98093.9
98079.8
98079.5
98067.6
98238.3
98232.8
98225.1
98216.1
98206.2
98194.4
98182.9
98169.4
98158.1
98143.6
98133.6
98118.7
98110.5
98096.1
98091.1
98079.3
98078.6
98070.3
98221.4
98215.9
98209.4
98200.6
98191.4
98180
98169.2
98156.2
98145.7
98132.1
98122.7
98109.6
98101.6
98090.1
98084.4
98075.9
98073.2
98068
98200.8
98195.1
98189.9
98181.4
98173.1
98162
98152.1
98139.8
98130.2
98117.7
98109
98097.5
98090
98080.7
98075
98068.6
98065
98061.4
98176
98170.7
98166.2
98158.7
98150.7
98140.7
98131.3
98120.5
98111.2
98100.6
98092.1
98082.8
98075.6
98068.4
98062.9
98058.1
98054.5
98051.7
98147.8
98143
98139
98132.4
98125.2
98116.3
98107.7
98098.1
98089.6
98080.6
98072.9
98065.4
98059
98053.2
98048.6
98044.8
98041.8
98039.7
98117.7
98113.9
98110.1
98104.7
98098.2
98090.6
98082.8
98074.7
98067.1
98059.7
98053
98046.8
98041.5
98037
98033.3
98030.4
98028.1
98026.7
98089.9
98087.2
98083.8
98079.3
98073.7
98067.2
98060.4
98053.5
98046.9
98040.8
98035.2
98030.2
98025.9
98022.3
98019.5
98017.3
98015.7
98014.8
98071.3
98069.4
98066.6
98062.7
98057.8
98052.1
98046.1
98040.2
98034.5
98029.3
98024.5
98020.3
98016.8
98013.9
98011.6
98009.9
98008.7
98008.1
98071.6
98069.9
98067.4
98063.6
98058.9
98053.6
98048
98042.4
98037.1
98032.1
98027.7
98023.7
98020.3
98017.5
98015.3
98013.6
98012.4
98011.7
98091.3
98089.5
98086.6
98082.7
98077.7
98072.2
98066.4
98060.6
98055
98049.8
98045
98040.7
98037
98033.8
98031.1
98029
98027.3
98026.1
98122.1
98119.9
98116.5
98112
98106.6
98100.6
98094.2
98087.9
98081.7
98075.9
98070.5
98065.6
98061.2
98057.3
98053.9
98051.1
98048.7
98046.8
98156.9
98154.3
98150.3
98145.1
98139
98132.4
98125.4
98118.4
98111.6
98105
98098.9
98093.2
98088.1
98083.5
98079.4
98075.8
98072.6
98069.9
98190.8
98187.7
98183
98177.1
98170.4
98163.1
98155.6
98148
98140.5
98133.3
98126.5
98120.1
98114.3
98108.9
98104.1
98099.8
98095.9
98092.5
98221
98217.4
98211.9
98205.3
98198.1
98190.4
98182.3
98174.2
98166.2
98158.4
98151
98144
98137.5
98131.6
98126.1
98121.2
98116.7
98112.7
98246.4
98242
98235.7
98228.6
98220.9
98212.8
98204.4
98195.9
98187.4
98179.2
98171.3
98163.9
98156.9
98150.4
98144.4
98138.9
98134
98129.4
98266.6
98261.4
98254.3
98246.6
98238.6
98230.2
98221.6
98212.8
98204
98195.5
98187.2
98179.4
98172
98165.1
98158.8
98152.9
98147.5
98142.6
98282.3
98276
98267.9
98259.7
98251.5
98243.1
98234.3
98225.3
98216.3
98207.5
98199
98190.9
98183.2
98176.1
98169.4
98163.3
98157.6
98152.4
98294.1
98286.2
98277.2
98268.7
98260.4
98251.9
98243
98233.9
98224.8
98215.9
98207.2
98198.9
98191.1
98183.7
98176.9
98170.5
98164.6
98159.2
98302.8
98293
98282.9
98274.2
98266
98257.5
98248.6
98239.5
98230.3
98221.3
98212.5
98204.1
98196.1
98188.6
98181.7
98175.2
98169.2
98163.7
98308.9
98296.8
98285.6
98277
98268.9
98260.6
98251.8
98242.7
98233.5
98224.4
98215.5
98207
98199
98191.5
98184.4
98177.9
98171.8
98166.2
98314.8
98299.3
98287.2
98278.4
98270.2
98261.9
98253.1
98244
98234.8
98225.7
98216.8
98208.3
98200.2
98192.6
98185.6
98179
98172.9
98167.3
98311.9
98311.6
98310.8
98309.6
98308.1
98306.3
98304.1
98301.5
98298.4
98295
98291.1
98286.9
98282.2
98277.3
98272.1
98266.6
98260.9
98255
98248.9
98242.6
98236.2
98229.6
98222.9
98216.1
98209.2
98202.2
98195.2
98188.1
98181.1
98174
98166.9
98159.8
98152.8
98145.8
98138.9
98132.2
98125.5
98119
98112.7
98106.6
98100.7
98095
98089.6
98084.4
98079.6
98075.1
98071
98067.3
98064
98061.1
98058.8
98056.8
98055.5
98054.6
98054.3
98054.7
98055.6
98057.3
98059.5
98062.5
98066.2
98070.5
98075.6
98081.5
98088
98095.3
98103.2
98111.9
98121.2
98131.2
98141.8
98153
98164.7
98177
98189.8
98203
98216.6
98230.6
98244.9
98259.5
98274.4
98289.4
98304.5
98319.7
98335
98350.3
98365.5
98380.5
98395.5
98410.2
98424.6
98438.7
98452.5
98465.9
98478.8
98491.2
98503.1
98514.4
98525.2
98535.3
98544.8
98553.7
98561.9
98569.5
98576.4
98582.7
98588.5
98593.6
98598.2
98602.3
98606
98609.1
98612
98614.5
98616.7
98618.5
98620.2
98621.6
98622.9
98624
98625.1
98626.1
98627.3
98628.6
98630.2
98632.2
98634.9
98638.3
98642.7
98648.3
98655.4
98664.1
98674.8
98687.7
98703
98721.1
98741.9
98765.7
98792.5
98822.3
98855.3
98891.2
98930
98971.5
99015.9
99062.4
99111.4
99162
99214.6
99268.8
99324.3
99380.7
99437.6
99495
99552.2
99608.7
99664.1
99717.8
99768.8
99816.6
99860.1
99898.4
99930.4
99955.4
99972.1
99979.6
99976.9
99963.9
99939.8
99905.1
99859.7
99804.9
99741
99670.2
99593.2
99512.8
99428.2
99343.6
99256.8
99173.7
98305
98304.6
98303.8
98302.7
98301.2
98299.3
98297
98294.4
98291.4
98288
98284.2
98280.1
98275.6
98270.8
98265.7
98260.4
98254.9
98249.2
98243.2
98237.1
98230.9
98224.5
98218
98211.4
98204.6
98197.8
98191
98184
98177.1
98170.2
98163.2
98156.3
98149.4
98142.6
98135.9
98129.3
98122.8
98116.4
98110.2
98104.2
98098.4
98092.9
98087.5
98082.5
98077.7
98073.3
98069.3
98065.6
98062.4
98059.5
98057.2
98055.2
98053.8
98053
98052.7
98053
98053.9
98055.4
98057.6
98060.5
98064.1
98068.4
98073.3
98079
98085.4
98092.5
98100.4
98108.8
98118
98127.8
98138.2
98149.2
98160.7
98172.8
98185.4
98198.4
98211.8
98225.5
98239.6
98254
98268.6
98283.3
98298.2
98313.2
98328.2
98343.2
98358.1
98372.9
98387.5
98401.9
98416.1
98429.9
98443.4
98456.4
98469.1
98481.2
98492.8
98503.9
98514.4
98524.3
98533.6
98542.2
98550.2
98557.6
98564.4
98570.5
98576.1
98581.1
98585.6
98589.6
98593.1
98596.2
98599
98601.4
98603.6
98605.4
98607
98608.3
98609.5
98610.6
98611.5
98612.5
98613.5
98614.7
98616.2
98618
98620.4
98623.6
98627.7
98633
98639.7
98647.9
98658.1
98670.5
98685.2
98702.5
98722.6
98745.6
98771.6
98800.5
98832.6
98867.5
98905.3
98945.7
98988.9
99034.3
99082.1
99131.6
99183
99236
99290.3
99345.5
99401.4
99457.7
99513.9
99569.5
99623.9
99676.8
99727.1
99774.3
99817.3
99855.4
99887.3
99912.4
99929.5
99937.5
99935.7
99923.7
99901
99867.8
99823.9
99770.9
99708.7
99639.8
99564.6
99485.8
99402.9
99319.8
99234
99149.1
98292.3
98291.9
98291.1
98289.9
98288.3
98286.4
98284.1
98281.4
98278.4
98275
98271.3
98267.3
98262.9
98258.3
98253.5
98248.4
98243.2
98237.8
98232.2
98226.5
98220.6
98214.6
98208.5
98202.2
98195.9
98189.4
98182.9
98176.3
98169.6
98163
98156.3
98149.7
98143.1
98136.5
98130.1
98123.7
98117.4
98111.3
98105.3
98099.5
98093.9
98088.5
98083.4
98078.5
98073.9
98069.6
98065.7
98062.1
98058.9
98056.1
98053.7
98051.8
98050.3
98049.4
98049
98049.2
98050
98051.5
98053.5
98056.2
98059.6
98063.7
98068.5
98073.9
98080
98086.9
98094.4
98102.6
98111.4
98120.9
98130.9
98141.6
98152.8
98164.5
98176.6
98189.2
98202.2
98215.5
98229.1
98243
98257.1
98271.4
98285.8
98300.3
98314.8
98329.3
98343.7
98357.9
98372
98385.9
98399.5
98412.7
98425.7
98438.2
98450.2
98461.8
98472.9
98483.4
98493.4
98502.8
98511.7
98519.9
98527.5
98534.5
98540.9
98546.8
98552
98556.8
98561
98564.8
98568.2
98571.1
98573.8
98576
98578
98579.7
98581.2
98582.4
98583.5
98584.4
98585.2
98585.9
98586.7
98587.5
98588.6
98590.1
98592
98594.6
98598
98602.6
98608.5
98615.8
98625
98636.2
98649.7
98665.7
98684.4
98705.8
98730.1
98757.2
98787.3
98820.2
98855.8
98894.1
98935.1
98978.2
99023.6
99070.8
99119.9
99170.5
99222.5
99275.4
99329
99383.1
99437.2
99490.7
99543.3
99594.5
99643.2
99689
99730.9
99768.2
99799.5
99824.6
99842
99850.8
99850.3
99840.2
99819.7
99789.2
99748.5
99698.8
99640.2
99575
99503.4
99428.1
99348.6
99268.7
99185.7
99101.9
98274.8
98274.5
98273.7
98272.5
98270.9
98268.9
98266.6
98263.9
98260.9
98257.6
98254
98250.1
98246
98241.6
98237
98232.3
98227.4
98222.4
98217.2
98212
98206.5
98201
98195.3
98189.6
98183.7
98177.7
98171.6
98165.5
98159.3
98153.2
98147
98140.8
98134.6
98128.4
98122.3
98116.3
98110.4
98104.6
98099
98093.4
98088.1
98082.9
98078
98073.3
98068.8
98064.7
98060.9
98057.4
98054.3
98051.5
98049.2
98047.2
98045.8
98044.8
98044.3
98044.4
98045.1
98046.3
98048.2
98050.7
98053.8
98057.5
98062
98067.1
98072.8
98079.3
98086.4
98094.1
98102.5
98111.5
98121.1
98131.2
98141.9
98153
98164.6
98176.6
98189
98201.7
98214.7
98228
98241.4
98255
98268.7
98282.5
98296.3
98310
98323.7
98337.2
98350.5
98363.6
98376.5
98389
98401.2
98412.9
98424.2
98435
98445.4
98455.2
98464.5
98473.2
98481.4
98489
98496
98502.5
98508.4
98513.8
98518.7
98523.1
98527
98530.5
98533.6
98536.3
98538.7
98540.8
98542.6
98544.1
98545.3
98546.4
98547.2
98547.9
98548.4
98548.8
98549.2
98549.6
98550.2
98551
98552.3
98554.1
98556.6
98560.1
98564.9
98570.9
98578.7
98588.3
98600.1
98614.2
98630.8
98650
98671.9
98696.5
98724
98754.1
98786.9
98822.2
98860.1
98900.1
98942.3
98986.4
99032.2
99079.7
99128.4
99178.2
99228.9
99280.1
99331.2
99382
99431.9
99480.7
99527.3
99571.2
99611.5
99647.5
99678
99702.7
99720.4
99729.9
99730.8
99722.7
99705
99677.8
99640.9
99595.5
99541.6
99481.2
99414.4
99344
99269.2
99193.7
99115
99035
98253.6
98253.4
98252.6
98251.5
98250
98248
98245.8
98243.1
98240.2
98237
98233.5
98229.8
98225.9
98221.8
98217.5
98213.1
98208.6
98203.9
98199.2
98194.4
98189.4
98184.4
98179.2
98174
98168.6
98163.2
98157.7
98152.1
98146.5
98140.9
98135.3
98129.6
98124
98118.4
98112.8
98107.3
98101.8
98096.5
98091.2
98086.1
98081.1
98076.3
98071.6
98067.2
98062.9
98059
98055.3
98052
98049
98046.3
98044
98042
98040.5
98039.5
98038.9
98038.8
98039.3
98040.3
98041.9
98044.1
98046.9
98050.3
98054.3
98059
98064.3
98070.2
98076.8
98084
98091.8
98100.2
98109.1
98118.6
98128.6
98139.1
98150
98161.2
98172.8
98184.8
98197
98209.4
98222
98234.7
98247.5
98260.4
98273.3
98286.1
98298.8
98311.4
98323.8
98336
98347.9
98359.5
98370.7
98381.6
98391.9
98401.9
98411.3
98420.2
98428.6
98436.6
98443.9
98450.8
98457.1
98462.9
98468.3
98473.1
98477.4
98481.3
98484.8
98487.9
98490.6
98493
98495.2
98497
98498.5
98499.8
98500.8
98501.6
98502.1
98502.4
98502.6
98502.6
98502.5
98502.4
98502.3
98502.4
98502.8
98503.6
98505
98507.3
98510.6
98515.1
98521.1
98528.8
98538.5
98550.3
98564.4
98580.9
98600
98621.6
98645.9
98672.7
98701.9
98733.6
98767.9
98804.2
98842.5
98882.8
98924.8
98968.4
99013.5
99059.6
99106.5
99154.1
99201.8
99249.2
99296
99341.8
99385.7
99427.3
99465.5
99499.9
99529.3
99553.3
99571
99581.2
99583.5
99577.5
99562.8
99539.3
99506.9
99466.5
99417.9
99363.3
99302.2
99237.8
99168.8
99098.9
99025.7
98951.1
98230.2
98230
98229.3
98228.3
98226.9
98225.1
98222.9
98220.5
98217.7
98214.7
98211.4
98207.9
98204.2
98200.4
98196.4
98192.3
98188.1
98183.8
98179.5
98175.1
98170.6
98166
98161.3
98156.6
98151.8
98146.9
98142
98137.1
98132.1
98127.1
98122
98117
98111.9
98106.9
98101.9
98097
98092.1
98087.2
98082.5
98077.8
98073.2
98068.8
98064.5
98060.4
98056.4
98052.7
98049.3
98046.1
98043.2
98040.6
98038.3
98036.4
98034.9
98033.8
98033.1
98032.8
98033.1
98033.9
98035.2
98037
98039.4
98042.4
98046
98050.1
98054.9
98060.2
98066.2
98072.7
98079.9
98087.5
98095.8
98104.5
98113.7
98123.3
98133.4
98143.8
98154.5
98165.5
98176.8
98188.2
98199.8
98211.6
98223.4
98235.2
98247
98258.8
98270.4
98282
98293.3
98304.4
98315.2
98325.7
98335.9
98345.6
98355
98363.8
98372.3
98380.2
98387.7
98394.7
98401.2
98407.2
98412.7
98417.8
98422.4
98426.6
98430.3
98433.6
98436.6
98439.3
98441.6
98443.6
98445.4
98446.9
98448
98449
98449.6
98450
98450.2
98450.2
98449.8
98449.4
98448.7
98447.9
98447.1
98446.4
98445.8
98445.5
98445.6
98446.4
98448.1
98450.9
98454.9
98460.4
98467.7
98476.9
98488.2
98501.8
98517.7
98535.9
98556.6
98579.7
98605.1
98632.9
98662.9
98695.2
98729.3
98765.4
98803.2
98842.7
98883.5
98925.5
98968.4
99012
99055.7
99099.5
99142.8
99185.2
99226
99264.8
99300.7
99333.1
99361
99384.2
99401.5
99412.2
99415.7
99412
99400.2
99380.7
99352.8
99317.6
99274.7
99226.3
99171.6
99113.8
99051.3
98988
98921.1
98853.1
98205.7
98205.6
98205.1
98204.1
98202.9
98201.2
98199.3
98197.1
98194.5
98191.7
98188.7
98185.5
98182.1
98178.5
98174.9
98171.1
98167.2
98163.3
98159.4
98155.3
98151.2
98147.1
98142.9
98138.6
98134.3
98130
98125.7
98121.3
98116.9
98112.5
98108
98103.6
98099.1
98094.7
98090.3
98085.9
98081.6
98077.3
98073
98068.8
98064.7
98060.7
98056.8
98053
98049.4
98045.9
98042.7
98039.7
98037
98034.5
98032.3
98030.4
98028.8
98027.6
98026.8
98026.4
98026.5
98027
98028
98029.4
98031.4
98034
98037
98040.6
98044.8
98049.5
98054.8
98060.6
98067
98073.9
98081.3
98089.2
98097.6
98106.3
98115.4
98124.9
98134.6
98144.6
98154.8
98165.2
98175.8
98186.4
98197.1
98207.8
98218.4
98229
98239.5
98249.8
98260
98269.9
98279.5
98288.8
98297.8
98306.4
98314.6
98322.4
98329.7
98336.6
98343.1
98349.1
98354.7
98359.8
98364.5
98368.7
98372.5
98376
98379.1
98381.8
98384.2
98386.4
98388.2
98389.8
98391.1
98392.1
98392.9
98393.5
98393.7
98393.7
98393.5
98392.9
98392.1
98391.1
98389.8
98388.3
98386.6
98384.9
98383.3
98381.7
98380.4
98379.7
98379.7
98380.6
98382.4
98385.6
98390.4
98396.9
98405.2
98415.6
98428.1
98442.8
98459.7
98478.9
98500.4
98524
98549.7
98577.6
98607.4
98639.2
98672.6
98707.6
98744.1
98781.8
98820.3
98859.6
98899.3
98939.2
98978.8
99017.5
99054.9
99090.6
99123.9
99154
99180
99201.9
99218.5
99229.5
99234.1
99232.3
99223.4
99207.6
99184.1
99154.2
99117.1
99075
99027
98976.2
98920.7
98864.5
98804.5
98743.8
98181.6
98181.5
98181.1
98180.3
98179.2
98177.8
98176.1
98174.1
98171.8
98169.3
98166.6
98163.7
98160.6
98157.4
98154.1
98150.6
98147.1
98143.6
98139.9
98136.3
98132.6
98128.8
98125.1
98121.3
98117.5
98113.6
98109.8
98105.9
98102.1
98098.2
98094.3
98090.4
98086.5
98082.6
98078.7
98074.9
98071
98067.2
98063.5
98059.7
98056
98052.4
98048.8
98045.4
98042.1
98038.9
98035.9
98033.1
98030.5
98028.1
98026
98024.1
98022.5
98021.2
98020.3
98019.7
98019.6
98019.8
98020.5
98021.6
98023.2
98025.2
98027.8
98030.8
98034.4
98038.5
98043.1
98048.2
98053.8
98059.9
98066.5
98073.5
98080.9
98088.7
98096.8
98105.3
98114
98123
98132.1
98141.4
98150.8
98160.3
98169.8
98179.3
98188.7
98198.1
98207.3
98216.4
98225.3
98234
98242.3
98250.4
98258.2
98265.6
98272.6
98279.2
98285.4
98291.3
98296.7
98301.7
98306.3
98310.5
98314.3
98317.7
98320.7
98323.4
98325.8
98327.9
98329.7
98331.3
98332.6
98333.6
98334.4
98335
98335.3
98335.4
98335.2
98334.7
98333.9
98332.9
98331.5
98329.8
98327.8
98325.4
98322.9
98320.1
98317.3
98314.5
98311.8
98309.5
98307.7
98306.6
98306.3
98307.1
98309.3
98313
98318.3
98325.5
98334.6
98345.7
98358.9
98374.2
98391.6
98411.1
98432.5
98456
98481.4
98508.8
98537.8
98568.4
98600.5
98633.8
98668
98703
98738.6
98774.5
98810.2
98845.1
98878.9
98911.3
98941.5
98969
98992.8
99013
99028.7
99039.6
99044.9
99044.8
99038.3
99025.8
99006.4
98981.5
98950
98914.1
98872.8
98829.1
98780.6
98731.8
98679.1
98626
98158.7
98158.7
98158.4
98157.8
98156.8
98155.7
98154.2
98152.5
98150.5
98148.3
98145.9
98143.3
98140.6
98137.7
98134.7
98131.7
98128.5
98125.3
98122
98118.8
98115.4
98112.1
98108.8
98105.4
98102
98098.7
98095.3
98091.9
98088.5
98085
98081.6
98078.2
98074.8
98071.4
98068
98064.6
98061.2
98057.8
98054.4
98051.1
98047.7
98044.4
98041.2
98038.1
98035
98032.1
98029.3
98026.6
98024.2
98021.8
98019.7
98017.9
98016.2
98014.9
98013.8
98013.1
98012.7
98012.6
98013
98013.8
98015
98016.6
98018.6
98021.1
98024.1
98027.5
98031.5
98035.9
98040.7
98046
98051.7
98057.8
98064.3
98071.2
98078.4
98085.8
98093.5
98101.4
98109.5
98117.6
98125.9
98134.2
98142.5
98150.8
98159
98167.1
98175.1
98183
98190.6
98198
98205.1
98211.9
98218.4
98224.6
98230.4
98235.9
98241
98245.7
98250
98253.9
98257.5
98260.8
98263.7
98266.3
98268.5
98270.4
98272.1
98273.5
98274.7
98275.6
98276.4
98276.9
98277.1
98277.1
98276.9
98276.4
98275.7
98274.6
98273.3
98271.6
98269.6
98267.2
98264.4
98261.2
98257.7
98253.9
98249.9
98245.8
98241.8
98237.9
98234.3
98231.2
98228.8
98227.3
98226.9
98227.8
98230.3
98234.3
98240
98247.6
98257.1
98268.6
98282.2
98297.6
98314.9
98334.2
98355.3
98378.5
98403.2
98429.5
98457.2
98486.2
98516.1
98547
98578.5
98610.4
98642
98673.1
98703.2
98732
98759
98783.8
98805.1
98823.3
98837.6
98847.8
98853.4
98854.4
98849.8
98840.1
98824.4
98804
98777.6
98747.7
98712.9
98676
98634.5
98593.1
98547.7
98502.4
98138
98138.1
98137.9
98137.4
98136.7
98135.7
98134.5
98133.1
98131.4
98129.5
98127.5
98125.2
98122.8
98120.3
98117.7
98115
98112.2
98109.4
98106.5
98103.6
98100.7
98097.7
98094.8
98091.8
98088.8
98085.9
98082.9
98079.9
98076.8
98073.8
98070.8
98067.8
98064.7
98061.7
98058.7
98055.6
98052.6
98049.6
98046.5
98043.5
98040.4
98037.4
98034.4
98031.5
98028.7
98025.9
98023.2
98020.7
98018.3
98016
98013.9
98012
98010.3
98008.8
98007.7
98006.7
98006.1
98005.8
98005.9
98006.3
98007.1
98008.3
98009.9
98011.9
98014.3
98017.2
98020.5
98024.2
98028.3
98032.8
98037.7
98043
98048.6
98054.6
98060.8
98067.3
98074
98080.8
98087.8
98094.9
98102
98109.2
98116.4
98123.5
98130.5
98137.4
98144.1
98150.7
98157.1
98163.2
98169.1
98174.7
98180
98184.9
98189.6
98193.8
98197.8
98201.3
98204.6
98207.5
98210.1
98212.4
98214.4
98216.1
98217.5
98218.7
98219.6
98220.3
98220.7
98221
98221.1
98221
98220.7
98220.2
98219.3
98218.3
98216.9
98215.2
98213.2
98210.9
98208.1
98204.9
98201.3
98197.3
98192.8
98187.9
98182.8
98177.5
98172.1
98166.7
98161.4
98156.5
98152
98148.3
98145.5
98143.8
98143.4
98144.4
98147
98151.3
98157.3
98165.2
98175
98186.7
98200.2
98215.5
98232.6
98251.8
98272.5
98294.7
98318.3
98343.1
98369
98395.8
98423.2
98451.1
98478.7
98506
98532.3
98557.5
98581.1
98602.8
98621.6
98637.4
98649.8
98658.9
98664.1
98665.6
98662.3
98654.8
98642.2
98625.7
98603.9
98579.5
98550.8
98520.3
98485.6
98451.3
98413.1
98375.7
98120.2
98120.4
98120.2
98119.8
98119.3
98118.5
98117.5
98116.4
98115
98113.4
98111.7
98109.8
98107.8
98105.7
98103.4
98101.1
98098.7
98096.2
98093.7
98091.2
98088.7
98086.1
98083.5
98080.9
98078.3
98075.7
98073
98070.4
98067.7
98065
98062.3
98059.6
98056.8
98054.1
98051.4
98048.6
98045.8
98043
98040.2
98037.4
98034.5
98031.7
98028.9
98026.1
98023.4
98020.7
98018.2
98015.7
98013.3
98011
98008.9
98006.9
98005.1
98003.6
98002.2
98001.1
98000.3
97999.8
97999.6
97999.7
98000.1
98000.9
98002.1
98003.6
98005.5
98007.8
98010.5
98013.6
98017.1
98020.9
98025
98029.5
98034.3
98039.4
98044.8
98050.4
98056.1
98062
98067.9
98074
98080.1
98086.1
98092.2
98098.2
98104
98109.8
98115.3
98120.7
98125.9
98130.8
98135.5
98139.8
98143.9
98147.7
98151.2
98154.3
98157.1
98159.6
98161.8
98163.6
98165.2
98166.6
98167.6
98168.4
98169
98169.4
98169.5
98169.4
98169.2
98168.8
98168.2
98167.4
98166.4
98165.2
98163.8
98162
98160
98157.6
98154.9
98151.8
98148.2
98144.3
98139.8
98134.8
98129.4
98123.6
98117.4
98110.8
98104.2
98097.3
98090.5
98083.9
98077.6
98071.8
98066.8
98062.7
98059.7
98058
98057.6
98058.8
98061.6
98066.3
98072.6
98080.9
98090.9
98102.6
98116.1
98131.6
98148.6
98167.1
98186.7
98207.7
98229.8
98252.6
98276.3
98300.2
98323.9
98347.4
98370
98391.4
98411.6
98430
98445.9
98459
98469.2
98476.6
98480.7
98481.9
98479.3
98473.4
98463.3
98450.1
98432.4
98412.9
98389.6
98365
98336.6
98309.1
98277.7
98247.8
98105.5
98105.7
98105.7
98105.4
98105
98104.4
98103.7
98102.8
98101.7
98100.4
98099
98097.5
98095.8
98094.1
98092.2
98090.3
98088.3
98086.2
98084.1
98082
98079.8
98077.6
98075.4
98073.1
98070.8
98068.5
98066.2
98063.8
98061.4
98058.9
98056.5
98054
98051.5
98049
98046.4
98043.8
98041.2
98038.6
98035.9
98033.2
98030.4
98027.7
98025
98022.3
98019.6
98016.9
98014.4
98011.9
98009.4
98007.1
98004.9
98002.9
98001
97999.3
97997.8
97996.5
97995.5
97994.7
97994.3
97994.1
97994.2
97994.7
97995.5
97996.6
97998.1
97999.9
98002.1
98004.6
98007.4
98010.6
98014.1
98017.9
98022
98026.3
98030.8
98035.6
98040.4
98045.4
98050.4
98055.5
98060.6
98065.7
98070.7
98075.6
98080.4
98085.1
98089.5
98093.8
98097.8
98101.6
98105.1
98108.3
98111.3
98113.9
98116.2
98118.3
98120
98121.4
98122.5
98123.4
98124
98124.3
98124.5
98124.4
98124.1
98123.6
98122.9
98122
98121
98119.8
98118.5
98116.9
98115.2
98113.3
98111.2
98108.7
98105.9
98102.8
98099.3
98095.5
98091.1
98086.3
98081
98075.2
98068.8
98062
98054.8
98047.2
98039.3
98031.2
98022.9
98014.8
98006.8
97999.3
97992.3
97986
97980.6
97976.4
97973.4
97972
97972
97973.7
97977
97982.2
97989.1
97997.7
98008
98020.2
98033.8
98049
98065.1
98082.6
98101
98120.2
98140.2
98160.4
98180.3
98200.2
98218.9
98236.5
98253
98267.9
98280.8
98291
98298.6
98303.8
98306.2
98306.4
98303.8
98298.9
98290.6
98280
98265.8
98250.4
98231.8
98212.6
98189.9
98168.7
98143.8
98121
98094.1
98094.3
98094.4
98094.2
98093.9
98093.5
98093
98092.3
98091.5
98090.5
98089.5
98088.3
98087
98085.6
98084.1
98082.6
98081
98079.4
98077.7
98075.9
98074.1
98072.3
98070.4
98068.5
98066.5
98064.5
98062.4
98060.2
98058
98055.8
98053.5
98051.2
98048.8
98046.4
98044
98041.5
98038.9
98036.3
98033.7
98031
98028.3
98025.6
98022.8
98020.1
98017.4
98014.7
98012.1
98009.5
98007
98004.6
98002.3
98000.1
97998.1
97996.2
97994.6
97993.1
97991.9
97990.9
97990.3
97989.8
97989.7
97989.9
97990.3
97991.1
97992.2
97993.6
97995.3
97997.4
97999.7
98002.3
98005.3
98008.4
98011.9
98015.5
98019.3
98023.3
98027.4
98031.5
98035.8
98040
98044.2
98048.4
98052.4
98056.4
98060.2
98063.8
98067.3
98070.5
98073.4
98076.1
98078.5
98080.7
98082.6
98084.1
98085.4
98086.4
98087
98087.4
98087.5
98087.3
98086.9
98086.4
98085.6
98084.6
98083.4
98082
98080.5
98078.8
98077
98075
98072.8
98070.5
98068
98065.3
98062.3
98059.1
98055.5
98051.6
98047.3
98042.7
98037.5
98031.9
98025.8
98019.1
98011.9
98004.2
97996
97987.4
97978.4
97969.2
97959.8
97950.3
97940.8
97931.7
97923
97914.8
97907.4
97901
97895.9
97892.1
97889.7
97888.8
97889.6
97892.2
97896.3
97902.2
97909.7
97918.9
97929.5
97941.6
97954.7
97969
97984
97999.9
98016.5
98033.1
98049.5
98065.7
98080.6
98094.4
98107.1
98118.4
98127.9
98135.1
98139.8
98142.7
98142.9
98141.5
98138.3
98133.5
98126.3
98117.8
98106.4
98094.4
98079.7
98065.3
98047.7
98032.2
98013.1
97997
98085.7
98085.9
98086
98086
98085.9
98085.6
98085.3
98084.9
98084.4
98083.7
98083
98082.2
98081.3
98080.3
98079.3
98078.2
98077
98075.8
98074.5
98073.1
98071.7
98070.3
98068.7
98067.1
98065.4
98063.6
98061.7
98059.7
98057.7
98055.6
98053.4
98051.2
98048.9
98046.5
98044.1
98041.6
98039
98036.4
98033.7
98031
98028.2
98025.4
98022.6
98019.7
98016.9
98014.1
98011.3
98008.6
98006
98003.5
98001
97998.7
97996.5
97994.5
97992.7
97991.1
97989.7
97988.6
97987.7
97987
97986.7
97986.6
97986.8
97987.3
97988.1
97989.1
97990.5
97992.1
97994
97996.2
97998.7
98001.3
98004.2
98007.2
98010.5
98013.8
98017.2
98020.6
98024.1
98027.6
98031.1
98034.4
98037.6
98040.7
98043.6
98046.3
98048.8
98051.1
98053
98054.7
98056.2
98057.3
98058.2
98058.7
98059
98059
98058.6
98058
98057.1
98056
98054.6
98053.1
98051.3
98049.4
98047.3
98045.1
98042.7
98040.2
98037.5
98034.6
98031.6
98028.5
98025.1
98021.6
98017.8
98013.7
98009.3
98004.6
97999.5
97994
97988
97981.6
97974.6
97967.1
97959.2
97950.7
97941.7
97932.2
97922.3
97912.1
97901.7
97891.1
97880.4
97869.9
97859.7
97849.9
97840.9
97832.8
97825.7
97819.9
97815.5
97812.5
97811.1
97811.4
97813.3
97816.7
97821.7
97828.3
97836.2
97845.5
97855.9
97867.3
97879.5
97892.3
97905.5
97918.8
97931.8
97944.4
97955.6
97965.7
97974.6
97982.2
97988.2
97992.1
97993.8
97994.2
97992
97988.7
97984.2
97979
97972.3
97965
97955.7
97946.4
97935
97924.7
97911.6
97901.2
97887.2
97877.4
98079.7
98080
98080.2
98080.2
98080.2
98080.2
98080.1
98079.9
98079.7
98079.4
98079.1
98078.7
98078.3
98077.8
98077.2
98076.6
98075.9
98075.1
98074.2
98073.3
98072.2
98071.1
98069.9
98068.5
98067.1
98065.5
98063.8
98062
98060.1
98058
98055.9
98053.7
98051.4
98049
98046.5
98043.9
98041.3
98038.5
98035.7
98032.9
98030
98027
98024
98021.1
98018.1
98015.1
98012.2
98009.3
98006.5
98003.8
98001.2
97998.7
97996.4
97994.3
97992.3
97990.5
97989
97987.7
97986.6
97985.8
97985.2
97984.9
97984.9
97985.2
97985.7
97986.5
97987.6
97988.9
97990.5
97992.3
97994.3
97996.6
97999
98001.6
98004.3
98007.1
98009.9
98012.8
98015.6
98018.5
98021.2
98023.8
98026.3
98028.6
98030.7
98032.6
98034.3
98035.6
98036.7
98037.5
98038
98038.3
98038.2
98037.8
98037.1
98036.1
98034.9
98033.3
98031.4
98029.4
98027.1
98024.6
98021.9
98019.1
98016.1
98013
98009.7
98006.3
98002.7
97999
97995.1
97991.1
97986.9
97982.4
97977.8
97972.8
97967.6
97962
97956.1
97949.8
97943
97935.8
97928
97919.8
97911.2
97902
97892.3
97882
97871.4
97860.5
97849.2
97837.6
97826
97814.4
97802.9
97791.9
97781.5
97772.1
97763.5
97756
97749.9
97745.2
97742
97740.3
97740.2
97741.5
97744.3
97748.7
97754.2
97761
97769
97778
97787.5
97797.4
97807.5
97817.5
97827.3
97836.3
97844
97850.6
97855.7
97859.6
97861.8
97862.3
97861
97858.7
97854.1
97848.6
97842.5
97836.3
97829.5
97822.9
97815
97807.8
97799
97792.1
97782.7
97777
97767.6
97763.3
98075.3
98075.6
98075.9
98076
98076.2
98076.4
98076.5
98076.7
98076.9
98077.1
98077.3
98077.5
98077.6
98077.7
98077.6
98077.5
98077.3
98077
98076.5
98076
98075.3
98074.5
98073.5
98072.4
98071.2
98069.7
98068.2
98066.5
98064.6
98062.6
98060.5
98058.2
98055.9
98053.4
98050.8
98048.1
98045.3
98042.4
98039.5
98036.5
98033.4
98030.2
98027.1
98023.9
98020.7
98017.6
98014.5
98011.4
98008.4
98005.6
98002.8
98000.2
97997.7
97995.4
97993.3
97991.4
97989.7
97988.2
97987
97986.1
97985.4
97984.9
97984.7
97984.8
97985.2
97985.8
97986.6
97987.7
97989
97990.6
97992.3
97994.2
97996.3
97998.5
98000.7
98003.1
98005.4
98007.8
98010.1
98012.4
98014.5
98016.5
98018.3
98020
98021.4
98022.5
98023.4
98024
98024.3
98024.3
98024
98023.3
98022.4
98021.2
98019.6
98017.8
98015.6
98013.1
98010.4
98007.4
98004.2
98000.8
97997.3
97993.6
97989.7
97985.7
97981.6
97977.3
97972.8
97968.2
97963.5
97958.5
97953.4
97948
97942.5
97936.7
97930.6
97924.2
97917.5
97910.3
97902.8
97894.8
97886.4
97877.5
97868.3
97858.4
97848.1
97837.3
97826.1
97814.5
97802.6
97790.3
97777.9
97765.5
97753.1
97741.1
97729.8
97719.1
97709.3
97700.6
97693.1
97686.9
97682.2
97678.9
97677
97676.6
97677.6
97680
97683.5
97688.1
97693.8
97700.6
97707.7
97714.9
97722
97728.8
97735.5
97741.2
97745.5
97748.6
97749.9
97750.1
97748.6
97745.7
97741.2
97736
97729
97721.4
97713.4
97706
97698.6
97692.2
97685
97679.3
97672.6
97668.4
97662.1
97660.4
97655.1
97655.7
98071.6
98071.8
98072
98072.1
98072.4
98072.9
98073.5
98074.3
98075.1
98076.1
98076.9
98077.8
98078.6
98079.3
98079.9
98080.3
98080.6
98080.7
98080.7
98080.5
98080.2
98079.6
98078.9
98078
98076.9
98075.6
98074.2
98072.5
98070.7
98068.7
98066.5
98064.2
98061.8
98059.2
98056.5
98053.6
98050.7
98047.7
98044.5
98041.3
98038
98034.7
98031.3
98028
98024.6
98021.2
98017.9
98014.7
98011.5
98008.5
98005.6
98002.8
98000.2
97997.8
97995.5
97993.5
97991.7
97990.2
97988.9
97987.8
97987
97986.4
97986.1
97986.1
97986.3
97986.7
97987.4
97988.3
97989.5
97990.8
97992.3
97994
97995.8
97997.6
97999.5
98001.5
98003.5
98005.4
98007.3
98009
98010.7
98012.1
98013.4
98014.4
98015.2
98015.7
98015.9
98015.8
98015.4
98014.6
98013.6
98012.2
98010.4
98008.4
98006
98003.3
98000.4
97997.1
97993.5
97989.7
97985.7
97981.5
97977
97972.5
97967.8
97962.9
97957.9
97952.8
97947.4
97942
97936.4
97930.5
97924.5
97918.3
97911.8
97905.2
97898.3
97891.1
97883.6
97875.8
97867.5
97858.8
97849.8
97840.4
97830.5
97820.2
97809.4
97798.1
97786.5
97774.4
97761.9
97749.1
97736.1
97723.1
97710.1
97697.5
97685.4
97673.8
97663
97653.2
97644.6
97637.2
97631
97626.4
97623.1
97621.2
97620.7
97621.4
97623
97625.8
97629.6
97634.2
97639.1
97643.7
97648
97651.9
97655.4
97658
97659.2
97658.9
97656.6
97653.1
97648
97641.6
97633.9
97625.7
97616.3
97606.5
97596.6
97587.9
97579.6
97572.9
97566
97561.5
97556.2
97554.2
97550.5
97552.2
97550.4
97555.4
98066.7
98066.7
98066.7
98067.1
98067.8
98069.1
98070.5
98072.3
98074
98075.9
98077.6
98079.3
98080.9
98082.3
98083.4
98084.4
98085.2
98085.8
98086.1
98086.2
98086.1
98085.8
98085.3
98084.6
98083.6
98082.4
98081
98079.4
98077.6
98075.5
98073.3
98071
98068.4
98065.7
98062.9
98059.9
98056.8
98053.6
98050.3
98046.9
98043.4
98039.9
98036.4
98032.8
98029.3
98025.8
98022.3
98018.9
98015.6
98012.4
98009.4
98006.5
98003.8
98001.2
97998.9
97996.8
97994.9
97993.3
97991.9
97990.8
97989.9
97989.2
97988.8
97988.7
97988.8
97989.2
97989.8
97990.6
97991.6
97992.8
97994.1
97995.5
97997.1
97998.7
98000.3
98002
98003.6
98005.1
98006.6
98007.9
98009
98010
98010.8
98011.2
98011.4
98011.4
98011
98010.3
98009.2
98007.8
98006
98003.9
98001.5
97998.7
97995.6
97992.2
97988.4
97984.4
97980.1
97975.5
97970.7
97965.7
97960.5
97955.1
97949.6
97943.9
97938.1
97932.1
97926
97919.7
97913.2
97906.6
97899.7
97892.7
97885.5
97878
97870.3
97862.4
97854.2
97845.7
97836.8
97827.6
97818.1
97808.1
97797.8
97787
97775.8
97764.3
97752.3
97739.8
97726.9
97713.7
97700.3
97686.8
97673.5
97660.5
97647.8
97635.6
97624
97613.4
97603.8
97595.3
97588