/*--------------------------------*- C++ -*----------------------------------*\
| =========                 |                                                 |
| \\      /  F ield         | OpenFOAM: The Open Source CFD Toolbox           |
|  \\    /   O peration     | Version:  dev                                   |
|   \\  /    A nd           | Web:      http://www.openfoam.org               |
|    \\/     M anipulation  |                                                 |
\*---------------------------------------------------------------------------*/
FoamFile
{
    version     2.0;
    format      ascii;
    class       volScalarField;
    object      pPrime2Mean;
    location    "9.141";
}
// * * * * * * * * * * * * * * * * * * * * * * * * * * * * * * * * * * * * * //

dimensions      [2 -2 -4 0 0 0 0];

internalField   nonuniform List<scalar> 
12225
(
5.0377e+07
4.99118e+07
4.89507e+07
4.7599e+07
4.59447e+07
4.40772e+07
4.20556e+07
3.9952e+07
3.78073e+07
3.56695e+07
3.35763e+07
3.15308e+07
2.96068e+07
2.77353e+07
2.59874e+07
2.44266e+07
2.28646e+07
2.12849e+07
5.02692e+07
4.98039e+07
4.88437e+07
4.74937e+07
4.58408e+07
4.39757e+07
4.19569e+07
3.98559e+07
3.77151e+07
3.558e+07
3.34915e+07
3.14497e+07
2.95303e+07
2.76657e+07
2.59353e+07
2.43745e+07
2.28655e+07
2.15314e+07
5.00191e+07
4.95544e+07
4.85947e+07
4.72477e+07
4.55993e+07
4.37389e+07
4.17269e+07
3.96322e+07
3.74995e+07
3.53725e+07
3.32925e+07
3.12624e+07
2.9349e+07
2.75016e+07
2.5791e+07
2.42352e+07
2.27999e+07
2.15869e+07
4.95834e+07
4.91217e+07
4.81642e+07
4.68225e+07
4.51821e+07
4.33302e+07
4.13298e+07
3.92456e+07
3.71277e+07
3.50141e+07
3.295e+07
3.09377e+07
2.90416e+07
2.72135e+07
2.55325e+07
2.40013e+07
2.26147e+07
2.15139e+07
4.89183e+07
4.84568e+07
4.75041e+07
4.61718e+07
4.45433e+07
4.27059e+07
4.07213e+07
3.86564e+07
3.65576e+07
3.44682e+07
3.24243e+07
3.04427e+07
2.85692e+07
2.67772e+07
2.51485e+07
2.36395e+07
2.23582e+07
2.12938e+07
4.79691e+07
4.75051e+07
4.65618e+07
4.5243e+07
4.36324e+07
4.18148e+07
3.98549e+07
3.78156e+07
3.57469e+07
3.36872e+07
3.16775e+07
2.97301e+07
2.78949e+07
2.61494e+07
2.45702e+07
2.31307e+07
2.19038e+07
2.08472e+07
4.66742e+07
4.62088e+07
4.52811e+07
4.39786e+07
4.2394e+07
4.06021e+07
3.86779e+07
3.6672e+07
3.46461e+07
3.26253e+07
3.06641e+07
2.87623e+07
2.69784e+07
2.52908e+07
2.37686e+07
2.23892e+07
2.12206e+07
2.01926e+07
4.52321e+07
4.47683e+07
4.3857e+07
4.25723e+07
4.10165e+07
3.92542e+07
3.73684e+07
3.54016e+07
3.3421e+07
3.14464e+07
2.9535e+07
2.76869e+07
2.59546e+07
2.433e+07
2.28564e+07
2.15402e+07
2.04042e+07
1.94443e+07
4.37173e+07
4.3257e+07
4.23619e+07
4.10969e+07
3.95707e+07
3.78409e+07
3.59946e+07
3.40701e+07
3.21357e+07
3.02107e+07
2.83502e+07
2.65578e+07
2.48792e+07
2.33154e+07
2.18938e+07
2.06337e+07
1.95397e+07
1.8641e+07
4.17771e+07
4.13236e+07
4.04479e+07
3.92105e+07
3.77208e+07
3.60349e+07
3.42374e+07
3.23691e+07
3.0492e+07
2.86318e+07
2.68342e+07
2.51133e+07
2.35009e+07
2.20118e+07
2.06565e+07
1.9464e+07
1.84268e+07
1.7574e+07
3.93285e+07
3.88849e+07
3.80328e+07
3.68322e+07
3.53883e+07
3.37596e+07
3.20241e+07
3.02268e+07
2.84229e+07
2.6643e+07
2.49257e+07
2.32908e+07
2.17621e+07
2.03592e+07
1.90869e+07
1.79713e+07
1.7001e+07
1.61943e+07
3.63051e+07
3.58764e+07
3.50525e+07
3.39009e+07
3.25142e+07
3.09587e+07
2.93006e+07
2.75924e+07
2.5879e+07
2.41981e+07
2.2579e+07
2.10471e+07
1.96193e+07
1.83157e+07
1.714e+07
1.61087e+07
1.5214e+07
1.44606e+07
3.26921e+07
3.22821e+07
3.14945e+07
3.04041e+07
2.90896e+07
2.76231e+07
2.60609e+07
2.44592e+07
2.2856e+07
2.12916e+07
1.97893e+07
1.83765e+07
1.70651e+07
1.58737e+07
1.48046e+07
1.38669e+07
1.30554e+07
1.23671e+07
2.85806e+07
2.81933e+07
2.74525e+07
2.64344e+07
2.52083e+07
2.38453e+07
2.23971e+07
2.09175e+07
1.94425e+07
1.8009e+07
1.66395e+07
1.53574e+07
1.41745e+07
1.31038e+07
1.21482e+07
1.13108e+07
1.05881e+07
9.97393e+06
2.4256e+07
2.38953e+07
2.32105e+07
2.22732e+07
2.11473e+07
1.98985e+07
1.85758e+07
1.72286e+07
1.58912e+07
1.45965e+07
1.3366e+07
1.2219e+07
1.11666e+07
1.02175e+07
9.3744e+06
8.63716e+06
8.00264e+06
7.46414e+06
2.03091e+07
1.9977e+07
1.93518e+07
1.84962e+07
1.74718e+07
1.63361e+07
1.51372e+07
1.39181e+07
1.27125e+07
1.15486e+07
1.04469e+07
9.42318e+06
8.48741e+06
7.64566e+06
6.89981e+06
6.2486e+06
5.68883e+06
5.21431e+06
1.77436e+07
1.7437e+07
1.68621e+07
1.60744e+07
1.51323e+07
1.40876e+07
1.2986e+07
1.18664e+07
1.07605e+07
9.69337e+06
8.68409e+06
7.74618e+06
6.88839e+06
6.11548e+06
5.42882e+06
4.82705e+06
4.30716e+06
3.8638e+06
1.78521e+07
1.75574e+07
1.70046e+07
1.62465e+07
1.53391e+07
1.43315e+07
1.32674e+07
1.21837e+07
1.11106e+07
1.00717e+07
9.08488e+06
8.16276e+06
7.31347e+06
6.54151e+06
5.84829e+06
5.23296e+06
4.69302e+06
4.22412e+06
2.07297e+07
2.04306e+07
1.9868e+07
1.90949e+07
1.8168e+07
1.71365e+07
1.60438e+07
1.49267e+07
1.3815e+07
1.27322e+07
1.16959e+07
1.07188e+07
9.80909e+06
8.97165e+06
8.20837e+06
7.51916e+06
6.90218e+06
6.35405e+06
2.52178e+07
2.49058e+07
2.43152e+07
2.3501e+07
2.25226e+07
2.14308e+07
2.02703e+07
1.90787e+07
1.78865e+07
1.67179e+07
1.55909e+07
1.45188e+07
1.35103e+07
1.25708e+07
1.1703e+07
1.09076e+07
1.01834e+07
9.52803e+06
3.02784e+07
2.99522e+07
2.93284e+07
2.84648e+07
2.74239e+07
2.62589e+07
2.50163e+07
2.37353e+07
2.24475e+07
2.1178e+07
1.99459e+07
1.87649e+07
1.76447e+07
1.65914e+07
1.56084e+07
1.46972e+07
1.38572e+07
1.30869e+07
3.51933e+07
3.48554e+07
3.42006e+07
3.32898e+07
3.21888e+07
3.09526e+07
2.96299e+07
2.82612e+07
2.68798e+07
2.55118e+07
2.41771e+07
2.28905e+07
2.16624e+07
2.04995e+07
1.94062e+07
1.83844e+07
1.74344e+07
1.65551e+07
3.95434e+07
3.91972e+07
3.8517e+07
3.75665e+07
3.64139e+07
3.51159e+07
3.3723e+07
3.22774e+07
3.08136e+07
2.93587e+07
2.79336e+07
2.65539e+07
2.52307e+07
2.39716e+07
2.27814e+07
2.16627e+07
2.06163e+07
1.96419e+07
4.31398e+07
4.27885e+07
4.2089e+07
4.11075e+07
3.99137e+07
3.8566e+07
3.71161e+07
3.56076e+07
3.40761e+07
3.25497e+07
3.10502e+07
2.95938e+07
2.81924e+07
2.6854e+07
2.55842e+07
2.43858e+07
2.32603e+07
2.22076e+07
4.59488e+07
4.55945e+07
4.48811e+07
4.38768e+07
4.26519e+07
4.12661e+07
3.97723e+07
3.82151e+07
3.66311e+07
3.50492e+07
3.34918e+07
3.19758e+07
3.05135e+07
2.91135e+07
2.77817e+07
2.65214e+07
2.53343e+07
2.42207e+07
4.80273e+07
4.76714e+07
4.69485e+07
4.59279e+07
4.46807e+07
4.32672e+07
4.17412e+07
4.01484e+07
3.85258e+07
3.6903e+07
3.5303e+07
3.37431e+07
3.22359e+07
3.07906e+07
2.94131e+07
2.81072e+07
2.68748e+07
2.57163e+07
4.94764e+07
4.91197e+07
4.839e+07
4.73586e+07
4.60961e+07
4.46637e+07
4.31158e+07
4.14984e+07
3.98492e+07
3.81981e+07
3.65686e+07
3.49782e+07
3.344e+07
3.19632e+07
3.0554e+07
2.92166e+07
2.79527e+07
2.67631e+07
5.04116e+07
5.00538e+07
4.932e+07
4.82819e+07
4.70096e+07
4.55651e+07
4.40032e+07
4.23703e+07
4.07041e+07
3.9035e+07
3.73866e+07
3.57766e+07
3.42185e+07
3.27214e+07
3.12919e+07
2.99341e+07
2.86501e+07
2.74405e+07
5.09407e+07
5.05826e+07
4.98473e+07
4.8806e+07
4.75284e+07
4.60774e+07
4.45076e+07
4.28657e+07
4.11897e+07
3.95102e+07
3.78508e+07
3.62297e+07
3.466e+07
3.31513e+07
3.17101e+07
3.03406e+07
2.90452e+07
2.78246e+07
5.11629e+07
5.08063e+07
5.0069e+07
4.9026e+07
4.77458e+07
4.6292e+07
4.47188e+07
4.3073e+07
4.13928e+07
3.97088e+07
3.80448e+07
3.64188e+07
3.48442e+07
3.33305e+07
3.18844e+07
3.05099e+07
2.92099e+07
2.79848e+07
6.04928e+07
6.04337e+07
6.0303e+07
6.00972e+07
5.98144e+07
5.9454e+07
5.90159e+07
5.85009e+07
5.79102e+07
5.72453e+07
5.65079e+07
5.57002e+07
5.48245e+07
5.38833e+07
5.28795e+07
5.18159e+07
5.06959e+07
4.95229e+07
4.83007e+07
4.70329e+07
4.57238e+07
4.43772e+07
4.29975e+07
4.1589e+07
4.01561e+07
3.87035e+07
3.72357e+07
3.5757e+07
3.42719e+07
3.27851e+07
3.13011e+07
2.98244e+07
2.83598e+07
2.69117e+07
2.54849e+07
2.40837e+07
2.2713e+07
2.13773e+07
2.00815e+07
1.88303e+07
1.76286e+07
1.64812e+07
1.53931e+07
1.43694e+07
1.34153e+07
1.2536e+07
1.17368e+07
1.10231e+07
1.04003e+07
9.87389e+06
9.44929e+06
9.13197e+06
8.92731e+06
8.84059e+06
8.87692e+06
9.0411e+06
9.33771e+06
9.77098e+06
1.03448e+07
1.10624e+07
1.19265e+07
1.29393e+07
1.41022e+07
1.5416e+07
1.68806e+07
1.84951e+07
2.0258e+07
2.21667e+07
2.42182e+07
2.64086e+07
2.87333e+07
3.1187e+07
3.37638e+07
3.64573e+07
3.92606e+07
4.21664e+07
4.51673e+07
4.82555e+07
5.14231e+07
5.46622e+07
5.79646e+07
6.13221e+07
6.47265e+07
6.81691e+07
7.16412e+07
7.51341e+07
7.86384e+07
8.21449e+07
8.56433e+07
8.91234e+07
9.25741e+07
9.5984e+07
9.9341e+07
1.02633e+08
1.05846e+08
1.08969e+08
1.11989e+08
1.14894e+08
1.17672e+08
1.20312e+08
1.22806e+08
1.25145e+08
1.27322e+08
1.29331e+08
1.3117e+08
1.32835e+08
1.34327e+08
1.35648e+08
1.36804e+08
1.37802e+08
1.38652e+08
1.39366e+08
1.39957e+08
1.4044e+08
1.40831e+08
1.41148e+08
1.4141e+08
1.41639e+08
1.41858e+08
1.42094e+08
1.42378e+08
1.42741e+08
1.43221e+08
1.43858e+08
1.44694e+08
1.45779e+08
1.47164e+08
1.48906e+08
1.51066e+08
1.53706e+08
1.5689e+08
1.60679e+08
1.65137e+08
1.70318e+08
1.76276e+08
1.83057e+08
1.90697e+08
1.99223e+08
2.08648e+08
2.18976e+08
2.30201e+08
2.423e+08
2.55246e+08
2.68996e+08
2.83508e+08
2.98719e+08
3.1458e+08
3.3102e+08
3.47975e+08
3.65371e+08
3.83133e+08
4.01178e+08
4.19415e+08
4.37751e+08
4.56065e+08
4.74216e+08
4.92042e+08
5.09373e+08
5.25976e+08
5.41616e+08
5.55995e+08
5.68812e+08
5.79729e+08
5.88421e+08
5.94555e+08
5.97833e+08
5.97995e+08
5.9486e+08
5.88303e+08
5.78351e+08
5.65085e+08
5.48771e+08
5.29729e+08
5.08452e+08
4.85413e+08
4.61137e+08
4.35992e+08
4.10412e+08
3.84609e+08
3.58907e+08
5.94177e+07
5.9362e+07
5.92369e+07
5.9037e+07
5.87607e+07
5.84078e+07
5.7979e+07
5.74755e+07
5.68983e+07
5.62489e+07
5.55291e+07
5.47409e+07
5.38863e+07
5.29679e+07
5.19881e+07
5.09497e+07
4.98559e+07
4.87098e+07
4.75152e+07
4.62756e+07
4.49949e+07
4.36772e+07
4.23266e+07
4.09473e+07
3.95437e+07
3.81202e+07
3.66812e+07
3.5231e+07
3.37739e+07
3.23144e+07
3.0857e+07
2.94062e+07
2.79665e+07
2.65425e+07
2.51387e+07
2.37596e+07
2.24097e+07
2.10937e+07
1.98163e+07
1.85822e+07
1.73962e+07
1.62633e+07
1.51882e+07
1.41762e+07
1.32323e+07
1.23618e+07
1.15699e+07
1.08621e+07
1.02437e+07
9.72024e+06
9.29718e+06
8.97995e+06
8.7739e+06
8.6843e+06
8.71625e+06
8.87464e+06
9.16404e+06
9.58867e+06
1.01523e+07
1.08583e+07
1.17094e+07
1.27076e+07
1.38544e+07
1.51505e+07
1.65959e+07
1.81897e+07
1.99303e+07
2.18152e+07
2.38413e+07
2.60048e+07
2.8301e+07
3.07247e+07
3.327e+07
3.59305e+07
3.86994e+07
4.15695e+07
4.45333e+07
4.75832e+07
5.07113e+07
5.39096e+07
5.717e+07
6.04845e+07
6.38447e+07
6.72422e+07
7.06684e+07
7.41144e+07
7.75711e+07
8.10291e+07
8.44786e+07
8.79091e+07
9.13099e+07
9.46696e+07
9.79764e+07
1.01218e+08
1.04382e+08
1.07456e+08
1.10427e+08
1.13284e+08
1.16016e+08
1.18611e+08
1.21063e+08
1.23361e+08
1.255e+08
1.27473e+08
1.29279e+08
1.30914e+08
1.32378e+08
1.33675e+08
1.34809e+08
1.35789e+08
1.36623e+08
1.37324e+08
1.37904e+08
1.38377e+08
1.3876e+08
1.39069e+08
1.39324e+08
1.39545e+08
1.39757e+08
1.39984e+08
1.40256e+08
1.40606e+08
1.41069e+08
1.41684e+08
1.42494e+08
1.43546e+08
1.44892e+08
1.46587e+08
1.48692e+08
1.51268e+08
1.54378e+08
1.58082e+08
1.62443e+08
1.67515e+08
1.73351e+08
1.79996e+08
1.87485e+08
1.95847e+08
2.05094e+08
2.15231e+08
2.26251e+08
2.38132e+08
2.50848e+08
2.6436e+08
2.78622e+08
2.93574e+08
3.09166e+08
3.25335e+08
3.42014e+08
3.5913e+08
3.76611e+08
3.94375e+08
4.12335e+08
4.304e+08
4.48448e+08
4.66344e+08
4.83926e+08
5.0103e+08
5.17429e+08
5.32888e+08
5.47123e+08
5.59834e+08
5.70688e+08
5.79365e+08
5.85538e+08
5.88919e+08
5.89248e+08
5.86351e+08
5.80095e+08
5.70494e+08
5.57622e+08
5.41735e+08
5.2314e+08
5.02318e+08
4.79729e+08
4.55883e+08
4.31147e+08
4.05949e+08
3.80497e+08
3.55033e+08
5.73521e+07
5.7299e+07
5.71795e+07
5.69879e+07
5.67232e+07
5.63858e+07
5.59766e+07
5.54969e+07
5.49474e+07
5.43295e+07
5.36446e+07
5.28945e+07
5.20808e+07
5.12059e+07
5.02719e+07
4.92815e+07
4.82373e+07
4.71425e+07
4.60004e+07
4.48144e+07
4.35883e+07
4.23258e+07
4.10309e+07
3.97078e+07
3.83603e+07
3.69925e+07
3.56085e+07
3.42124e+07
3.28086e+07
3.14013e+07
2.99949e+07
2.85937e+07
2.72022e+07
2.58247e+07
2.44655e+07
2.3129e+07
2.18195e+07
2.05416e+07
1.92999e+07
1.80991e+07
1.69438e+07
1.58388e+07
1.47892e+07
1.37998e+07
1.28757e+07
1.20223e+07
1.12448e+07
1.05485e+07
9.9389e+06
9.42134e+06
9.00131e+06
8.68424e+06
8.47554e+06
8.38043e+06
8.40403e+06
8.55121e+06
8.82653e+06
9.23422e+06
9.77809e+06
1.04614e+07
1.12868e+07
1.22565e+07
1.33717e+07
1.46333e+07
1.6041e+07
1.7594e+07
1.92908e+07
2.11288e+07
2.31049e+07
2.52155e+07
2.74557e+07
2.98204e+07
3.23039e+07
3.48997e+07
3.76012e+07
4.04013e+07
4.32926e+07
4.62676e+07
4.93185e+07
5.24375e+07
5.56164e+07
5.88473e+07
6.2122e+07
6.54321e+07
6.87692e+07
7.21244e+07
7.5489e+07
7.88534e+07
8.22081e+07
8.55429e+07
8.8847e+07
9.21094e+07
9.53186e+07
9.84627e+07
1.01529e+08
1.04507e+08
1.07383e+08
1.10147e+08
1.12788e+08
1.15296e+08
1.17663e+08
1.19882e+08
1.21945e+08
1.23849e+08
1.2559e+08
1.27166e+08
1.28577e+08
1.29826e+08
1.30918e+08
1.31861e+08
1.32665e+08
1.33339e+08
1.33898e+08
1.34352e+08
1.34719e+08
1.35014e+08
1.35254e+08
1.35461e+08
1.35657e+08
1.35866e+08
1.36116e+08
1.36437e+08
1.36864e+08
1.37435e+08
1.38191e+08
1.39178e+08
1.40445e+08
1.42047e+08
1.44041e+08
1.46488e+08
1.49449e+08
1.52985e+08
1.57153e+08
1.62009e+08
1.67602e+08
1.73976e+08
1.81168e+08
1.89205e+08
1.981e+08
2.07857e+08
2.1847e+08
2.29919e+08
2.42182e+08
2.5522e+08
2.68987e+08
2.83427e+08
2.98488e+08
3.14117e+08
3.30247e+08
3.46806e+08
3.63724e+08
3.80928e+08
3.98333e+08
4.15847e+08
4.33354e+08
4.50729e+08
4.67811e+08
4.8444e+08
5.00401e+08
5.15465e+08
5.29367e+08
5.41813e+08
5.52485e+08
5.61078e+08
5.67275e+08
5.70802e+08
5.7141e+08
5.68927e+08
5.63218e+08
5.54272e+08
5.42161e+08
5.27111e+08
5.09408e+08
4.89507e+08
4.67835e+08
4.44869e+08
4.20983e+08
3.96578e+08
3.71878e+08
3.47055e+08
5.4458e+07
5.44087e+07
5.42966e+07
5.41173e+07
5.38704e+07
5.35567e+07
5.31771e+07
5.27322e+07
5.22225e+07
5.16492e+07
5.10132e+07
5.0316e+07
4.95589e+07
4.87437e+07
4.78725e+07
4.69476e+07
4.59716e+07
4.49472e+07
4.38775e+07
4.27658e+07
4.16153e+07
4.04297e+07
3.92125e+07
3.79673e+07
3.66976e+07
3.54071e+07
3.40996e+07
3.27791e+07
3.14496e+07
3.01153e+07
2.87804e+07
2.74488e+07
2.61247e+07
2.48122e+07
2.35152e+07
2.22381e+07
2.0985e+07
1.97605e+07
1.85688e+07
1.74145e+07
1.63022e+07
1.52366e+07
1.42226e+07
1.32651e+07
1.23692e+07
1.154e+07
1.07827e+07
1.01027e+07
9.50542e+06
8.99622e+06
8.58053e+06
8.26379e+06
8.05137e+06
7.94849e+06
7.96021e+06
8.09144e+06
8.34676e+06
8.73035e+06
9.24598e+06
9.89686e+06
1.06857e+07
1.16145e+07
1.26847e+07
1.38969e+07
1.5251e+07
1.6746e+07
1.83803e+07
2.01517e+07
2.20569e+07
2.40923e+07
2.62532e+07
2.85346e+07
3.09308e+07
3.34355e+07
3.60421e+07
3.87437e+07
4.15332e+07
4.44032e+07
4.73461e+07
5.03541e+07
5.34193e+07
5.65338e+07
5.96895e+07
6.28782e+07
6.60915e+07
6.93207e+07
7.25573e+07
7.5792e+07
7.90152e+07
8.22171e+07
8.53871e+07
8.85144e+07
9.15879e+07
9.45961e+07
9.75274e+07
1.0037e+08
1.03114e+08
1.05747e+08
1.08261e+08
1.10646e+08
1.12894e+08
1.15e+08
1.16957e+08
1.1876e+08
1.20408e+08
1.21899e+08
1.23234e+08
1.24415e+08
1.25448e+08
1.26339e+08
1.27098e+08
1.27734e+08
1.2826e+08
1.28687e+08
1.29029e+08
1.29301e+08
1.2952e+08
1.29705e+08
1.29876e+08
1.30058e+08
1.30275e+08
1.30555e+08
1.3093e+08
1.31437e+08
1.32115e+08
1.33009e+08
1.34165e+08
1.35635e+08
1.37473e+08
1.39739e+08
1.4249e+08
1.45786e+08
1.49683e+08
1.54234e+08
1.59485e+08
1.65481e+08
1.72255e+08
1.79836e+08
1.88238e+08
1.97466e+08
2.07511e+08
2.18359e+08
2.29989e+08
2.42368e+08
2.55447e+08
2.69178e+08
2.83504e+08
2.98385e+08
3.13755e+08
3.29548e+08
3.45692e+08
3.62125e+08
3.78763e+08
3.95516e+08
4.12275e+08
4.28923e+08
4.45306e+08
4.61268e+08
4.76611e+08
4.91112e+08
5.04525e+08
5.16571e+08
5.26954e+08
5.35389e+08
5.41572e+08
5.45248e+08
5.46177e+08
5.44193e+08
5.39164e+08
5.31062e+08
5.19947e+08
5.06009e+08
4.89512e+08
4.7087e+08
4.50462e+08
4.28733e+08
4.06044e+08
3.8277e+08
3.59149e+08
3.35331e+08
5.09357e+07
5.08917e+07
5.07898e+07
5.06268e+07
5.04031e+07
5.01192e+07
4.97754e+07
4.9372e+07
4.89097e+07
4.83892e+07
4.7811e+07
4.71761e+07
4.64859e+07
4.57418e+07
4.49456e+07
4.40993e+07
4.32051e+07
4.22655e+07
4.12832e+07
4.0261e+07
3.9202e+07
3.81092e+07
3.69856e+07
3.58342e+07
3.46583e+07
3.34613e+07
3.22467e+07
3.10182e+07
2.97795e+07
2.85346e+07
2.72869e+07
2.60403e+07
2.47985e+07
2.35653e+07
2.23444e+07
2.11399e+07
1.99559e+07
1.87966e+07
1.76661e+07
1.65688e+07
1.55092e+07
1.44919e+07
1.35216e+07
1.26033e+07
1.17418e+07
1.09422e+07
1.02097e+07
9.54972e+06
8.96748e+06
8.46845e+06
8.05801e+06
7.74155e+06
7.52444e+06
7.41189e+06
7.40894e+06
7.52043e+06
7.7509e+06
8.10449e+06
8.58491e+06
9.19541e+06
9.93863e+06
1.08166e+07
1.18306e+07
1.29814e+07
1.42686e+07
1.56914e+07
1.72482e+07
1.89366e+07
2.07538e+07
2.26958e+07
2.47583e+07
2.69363e+07
2.92242e+07
3.1616e+07
3.41052e+07
3.66851e+07
3.93488e+07
4.2089e+07
4.48984e+07
4.77694e+07
5.06943e+07
5.36653e+07
5.66745e+07
5.97139e+07
6.27752e+07
6.58498e+07
6.89295e+07
7.20053e+07
7.50675e+07
7.81067e+07
8.11129e+07
8.40754e+07
8.69837e+07
8.98265e+07
9.25928e+07
9.52721e+07
9.7854e+07
1.00329e+08
1.02687e+08
1.04922e+08
1.07024e+08
1.08991e+08
1.10817e+08
1.12498e+08
1.14031e+08
1.15417e+08
1.16657e+08
1.17754e+08
1.18712e+08
1.19537e+08
1.20238e+08
1.20826e+08
1.21309e+08
1.21699e+08
1.22009e+08
1.22251e+08
1.22442e+08
1.22597e+08
1.22736e+08
1.22882e+08
1.23055e+08
1.23283e+08
1.23594e+08
1.24023e+08
1.24607e+08
1.25386e+08
1.26405e+08
1.27714e+08
1.29363e+08
1.31408e+08
1.33903e+08
1.36908e+08
1.40474e+08
1.44653e+08
1.4949e+08
1.55027e+08
1.61296e+08
1.68326e+08
1.76132e+08
1.84718e+08
1.94081e+08
2.04206e+08
2.15073e+08
2.26657e+08
2.38911e+08
2.5179e+08
2.65241e+08
2.79226e+08
2.93688e+08
3.08567e+08
3.23791e+08
3.39302e+08
3.55022e+08
3.70864e+08
3.86725e+08
4.02494e+08
4.18031e+08
4.33185e+08
4.47772e+08
4.61585e+08
4.74386e+08
4.85923e+08
4.95928e+08
5.04129e+08
5.10249e+08
5.14045e+08
5.15293e+08
5.1384e+08
5.09558e+08
5.02404e+08
4.92423e+08
4.79768e+08
4.6468e+08
4.47519e+08
4.2862e+08
4.08392e+08
3.87161e+08
3.65279e+08
3.42994e+08
3.20466e+08
4.70082e+07
4.69712e+07
4.68817e+07
4.67379e+07
4.65403e+07
4.62891e+07
4.59844e+07
4.56265e+07
4.52158e+07
4.47523e+07
4.42367e+07
4.36697e+07
4.30525e+07
4.23861e+07
4.16721e+07
4.09121e+07
4.01079e+07
3.92617e+07
3.83757e+07
3.74524e+07
3.64943e+07
3.55038e+07
3.44835e+07
3.34361e+07
3.23642e+07
3.12711e+07
3.016e+07
2.90341e+07
2.78969e+07
2.67514e+07
2.56012e+07
2.44495e+07
2.32996e+07
2.21551e+07
2.10196e+07
1.98967e+07
1.87903e+07
1.77042e+07
1.66426e+07
1.56096e+07
1.46095e+07
1.36466e+07
1.27257e+07
1.18514e+07
1.10286e+07
1.02624e+07
9.55785e+06
8.92024e+06
8.3549e+06
7.86719e+06
7.46249e+06
7.14617e+06
6.92357e+06
6.79986e+06
6.78003e+06
6.86887e+06
7.07087e+06
7.39014e+06
7.83033e+06
8.39462e+06
9.0856e+06
9.90527e+06
1.08549e+07
1.19352e+07
1.31459e+07
1.44861e+07
1.59541e+07
1.75477e+07
1.9264e+07
2.10992e+07
2.30492e+07
2.5109e+07
2.72732e+07
2.95359e+07
3.1891e+07
3.43319e+07
3.6852e+07
3.94441e+07
4.21012e+07
4.48159e+07
4.75806e+07
5.0388e+07
5.32302e+07
5.60994e+07
5.89876e+07
6.18865e+07
6.47878e+07
6.76828e+07
7.05623e+07
7.34169e+07
7.62372e+07
7.90132e+07
8.17346e+07
8.43908e+07
8.69714e+07
8.94667e+07
9.18673e+07
9.41641e+07
9.63489e+07
9.84143e+07
1.00354e+08
1.02164e+08
1.03842e+08
1.05383e+08
1.06788e+08
1.08055e+08
1.09187e+08
1.10187e+08
1.11059e+08
1.11808e+08
1.12442e+08
1.12971e+08
1.13403e+08
1.13748e+08
1.14016e+08
1.14221e+08
1.14376e+08
1.14496e+08
1.14596e+08
1.14696e+08
1.14818e+08
1.14985e+08
1.15223e+08
1.15565e+08
1.16043e+08
1.16694e+08
1.17559e+08
1.18687e+08
1.20124e+08
1.21922e+08
1.24132e+08
1.2681e+08
1.30007e+08
1.3377e+08
1.38145e+08
1.43169e+08
1.48877e+08
1.55295e+08
1.6244e+08
1.70316e+08
1.78923e+08
1.8825e+08
1.98275e+08
2.0898e+08
2.20325e+08
2.3227e+08
2.44762e+08
2.57767e+08
2.71235e+08
2.85111e+08
2.99327e+08
3.13827e+08
3.28539e+08
3.43378e+08
3.58248e+08
3.73045e+08
3.87644e+08
4.01895e+08
4.15633e+08
4.28667e+08
4.40768e+08
4.51709e+08
4.61255e+08
4.69152e+08
4.75148e+08
4.79012e+08
4.80543e+08
4.79606e+08
4.76072e+08
4.6989e+08
4.61084e+08
4.49784e+08
4.36199e+08
4.20638e+08
4.03389e+08
3.84823e+08
3.65222e+08
3.44913e+08
3.24145e+08
3.03108e+08
4.29003e+07
4.28708e+07
4.27949e+07
4.26715e+07
4.25009e+07
4.22834e+07
4.2019e+07
4.17077e+07
4.13494e+07
4.09443e+07
4.04928e+07
3.99956e+07
3.94533e+07
3.8867e+07
3.82376e+07
3.75666e+07
3.68555e+07
3.61059e+07
3.53197e+07
3.44988e+07
3.36451e+07
3.27605e+07
3.18473e+07
3.09076e+07
2.99441e+07
2.89593e+07
2.79562e+07
2.69375e+07
2.59061e+07
2.48647e+07
2.38164e+07
2.27641e+07
2.17107e+07
2.06594e+07
1.96136e+07
1.85767e+07
1.75521e+07
1.65434e+07
1.55546e+07
1.45894e+07
1.3652e+07
1.27467e+07
1.18779e+07
1.10502e+07
1.02683e+07
9.53732e+06
8.86223e+06
8.24826e+06
7.70066e+06
7.2248e+06
6.826e+06
6.50958e+06
6.28083e+06
6.14489e+06
6.10673e+06
6.17107e+06
6.34236e+06
6.62463e+06
7.02148e+06
7.53602e+06
8.17077e+06
8.92768e+06
9.80801e+06
1.08123e+07
1.19405e+07
1.31916e+07
1.4564e+07
1.60554e+07
1.76628e+07
1.93829e+07
2.12114e+07
2.31436e+07
2.51742e+07
2.72976e+07
2.95078e+07
3.17986e+07
3.41634e+07
3.65955e+07
3.9088e+07
4.16337e+07
4.42254e+07
4.68559e+07
4.95176e+07
5.22029e+07
5.49041e+07
5.76131e+07
6.03218e+07
6.30218e+07
6.57042e+07
6.836e+07
7.09802e+07
7.35554e+07
7.60758e+07
7.85317e+07
8.09136e+07
8.32124e+07
8.54195e+07
8.7527e+07
8.95272e+07
9.1414e+07
9.31818e+07
9.48271e+07
9.63472e+07
9.77408e+07
9.90076e+07
1.00148e+08
1.01164e+08
1.02059e+08
1.02837e+08
1.03502e+08
1.04063e+08
1.04525e+08
1.04898e+08
1.0519e+08
1.05411e+08
1.05572e+08
1.05684e+08
1.05761e+08
1.05817e+08
1.05867e+08
1.05932e+08
1.06032e+08
1.06192e+08
1.0644e+08
1.06805e+08
1.07321e+08
1.08026e+08
1.08961e+08
1.10174e+08
1.11711e+08
1.13622e+08
1.15957e+08
1.18766e+08
1.22092e+08
1.25981e+08
1.30467e+08
1.35587e+08
1.41365e+08
1.47818e+08
1.54954e+08
1.62773e+08
1.71267e+08
1.8042e+08
1.90214e+08
2.00617e+08
2.11593e+08
2.23095e+08
2.35091e+08
2.47533e+08
2.60373e+08
2.73548e+08
2.87004e+08
3.0067e+08
3.14467e+08
3.28306e+08
3.4209e+08
3.55703e+08
3.69001e+08
3.81831e+08
3.94022e+08
4.05363e+08
4.15645e+08
4.24657e+08
4.32178e+08
4.3798e+08
4.41843e+08
4.43595e+08
4.43114e+08
4.40276e+08
4.35021e+08
4.27358e+08
4.17403e+08
4.05325e+08
3.9139e+08
3.75839e+08
3.59e+08
3.41113e+08
3.22475e+08
3.0333e+08
2.83901e+08
3.88252e+07
3.88032e+07
3.87406e+07
3.86373e+07
3.84935e+07
3.83091e+07
3.8084e+07
3.78178e+07
3.75107e+07
3.71628e+07
3.67742e+07
3.63452e+07
3.58765e+07
3.53686e+07
3.48223e+07
3.42386e+07
3.36187e+07
3.29639e+07
3.22755e+07
3.15549e+07
3.08035e+07
3.0023e+07
2.92152e+07
2.8382e+07
2.75254e+07
2.66479e+07
2.57517e+07
2.48391e+07
2.39125e+07
2.29743e+07
2.20272e+07
2.10735e+07
2.01161e+07
1.91578e+07
1.82015e+07
1.72502e+07
1.63072e+07
1.53758e+07
1.44595e+07
1.35621e+07
1.26874e+07
1.18395e+07
1.10228e+07
1.02416e+07
9.50071e+06
8.80493e+06
8.15926e+06
7.56885e+06
7.0389e+06
6.57471e+06
6.18156e+06
5.86473e+06
5.62943e+06
5.48076e+06
5.42367e+06
5.46281e+06
5.60257e+06
5.84689e+06
6.19932e+06
6.66288e+06
7.24006e+06
7.93267e+06
8.74197e+06
9.66848e+06
1.0712e+07
1.18717e+07
1.31458e+07
1.45321e+07
1.60278e+07
1.76294e+07
1.93329e+07
2.11336e+07
2.30266e+07
2.50064e+07
2.70671e+07
2.92028e+07
3.14071e+07
3.36737e+07
3.59957e+07
3.83665e+07
4.0779e+07
4.32262e+07
4.57009e+07
4.81955e+07
5.07027e+07
5.32147e+07
5.57235e+07
5.82212e+07
6.06993e+07
6.31493e+07
6.55625e+07
6.79299e+07
7.02428e+07
7.24922e+07
7.46694e+07
7.67663e+07
7.8775e+07
8.06886e+07
8.25002e+07
8.42047e+07
8.57973e+07
8.72748e+07
8.86353e+07
8.98784e+07
9.10048e+07
9.20153e+07
9.29118e+07
9.36975e+07
9.43767e+07
9.49539e+07
9.54351e+07
9.58267e+07
9.61351e+07
9.63685e+07
9.65362e+07
9.66476e+07
9.67121e+07
9.67414e+07
9.67474e+07
9.67442e+07
9.67481e+07
9.67791e+07
9.68577e+07
9.70085e+07
9.7259e+07
9.76386e+07
9.81805e+07
9.89244e+07
9.99117e+07
1.01188e+08
1.02799e+08
1.04791e+08
1.07209e+08
1.10098e+08
1.13499e+08
1.17448e+08
1.21979e+08
1.27117e+08
1.3288e+08
1.39278e+08
1.46312e+08
1.53979e+08
1.62266e+08
1.71159e+08
1.80629e+08
1.90645e+08
2.01169e+08
2.12171e+08
2.23603e+08
2.35419e+08
2.47563e+08
2.59984e+08
2.72611e+08
2.85373e+08
2.98183e+08
3.10953e+08
3.23568e+08
3.35894e+08
3.47795e+08
3.59111e+08
3.6965e+08
3.79227e+08
3.87649e+08
3.94724e+08
4.00253e+08
4.04035e+08
4.05924e+08
4.05806e+08
4.03567e+08
3.99143e+08
3.92536e+08
3.83845e+08
3.73207e+08
3.60847e+08
3.46965e+08
3.31841e+08
3.15673e+08
2.98732e+08
2.8125e+08
2.63479e+08
3.49699e+07
3.49547e+07
3.49044e+07
3.48198e+07
3.47009e+07
3.45473e+07
3.43589e+07
3.41352e+07
3.38762e+07
3.35819e+07
3.32522e+07
3.28872e+07
3.24873e+07
3.20529e+07
3.15845e+07
3.10827e+07
3.05484e+07
2.99824e+07
2.93856e+07
2.87591e+07
2.8104e+07
2.74215e+07
2.67131e+07
2.59802e+07
2.52247e+07
2.44483e+07
2.3653e+07
2.28406e+07
2.20131e+07
2.11725e+07
2.0321e+07
1.94609e+07
1.85945e+07
1.77242e+07
1.68527e+07
1.59827e+07
1.51171e+07
1.4259e+07
1.34117e+07
1.25786e+07
1.17634e+07
1.09701e+07
1.02029e+07
9.46599e+06
8.76399e+06
8.10167e+06
7.48392e+06
6.91581e+06
6.40247e+06
5.94912e+06
5.56101e+06
5.24333e+06
5.00128e+06
4.83992e+06
4.7641e+06
4.77844e+06
4.88725e+06
5.09441e+06
5.40334e+06
5.817e+06
6.33775e+06
6.96739e+06
7.70705e+06
8.55719e+06
9.51758e+06
1.05873e+07
1.17647e+07
1.30475e+07
1.44329e+07
1.59175e+07
1.74973e+07
1.9168e+07
2.09246e+07
2.27618e+07
2.46741e+07
2.66556e+07
2.87002e+07
3.08017e+07
3.29537e+07
3.51497e+07
3.7383e+07
3.96467e+07
4.19339e+07
4.42373e+07
4.65499e+07
4.88641e+07
5.11723e+07
5.34669e+07
5.57399e+07
5.79831e+07
6.01887e+07
6.23481e+07
6.44533e+07
6.64962e+07
6.8469e+07
7.03644e+07
7.21752e+07
7.38956e+07
7.55195e+07
7.70429e+07
7.84615e+07
7.97727e+07
8.09756e+07
8.20701e+07
8.30572e+07
8.39381e+07
8.4715e+07
8.5391e+07
8.597e+07
8.64565e+07
8.68558e+07
8.71732e+07
8.74139e+07
8.7585e+07
8.76949e+07
8.7752e+07
8.77644e+07
8.77419e+07
8.76948e+07
8.7635e+07
8.75769e+07
8.75375e+07
8.75347e+07
8.75898e+07
8.77273e+07
8.79741e+07
8.83598e+07
8.892e+07
8.96927e+07
9.07189e+07
9.20411e+07
9.37023e+07
9.57448e+07
9.82117e+07
1.01143e+08
1.04575e+08
1.08538e+08
1.13059e+08
1.18157e+08
1.23845e+08
1.30127e+08
1.37002e+08
1.44459e+08
1.5249e+08
1.6107e+08
1.70172e+08
1.79764e+08
1.89817e+08
2.00287e+08
2.11127e+08
2.22285e+08
2.33711e+08
2.45341e+08
2.57105e+08
2.68921e+08
2.807e+08
2.92334e+08
3.03698e+08
3.1467e+08
3.25101e+08
3.3482e+08
3.43659e+08
3.51446e+08
3.58015e+08
3.63194e+08
3.66807e+08
3.68731e+08
3.68863e+08
3.67099e+08
3.63379e+08
3.57704e+08
3.50149e+08
3.40831e+08
3.2994e+08
3.17636e+08
3.0415e+08
2.89651e+08
2.74374e+08
2.58537e+08
2.42415e+08
3.1486e+07
3.14764e+07
3.14368e+07
3.13687e+07
3.1272e+07
3.11461e+07
3.09907e+07
3.08054e+07
3.05899e+07
3.03439e+07
3.00674e+07
2.97602e+07
2.94224e+07
2.90543e+07
2.8656e+07
2.8228e+07
2.77706e+07
2.72845e+07
2.67701e+07
2.62284e+07
2.566e+07
2.50658e+07
2.4447e+07
2.38047e+07
2.31403e+07
2.24552e+07
2.17509e+07
2.10289e+07
2.02908e+07
1.95384e+07
1.87734e+07
1.79978e+07
1.72135e+07
1.64227e+07
1.56278e+07
1.48312e+07
1.40356e+07
1.32437e+07
1.24587e+07
1.16837e+07
1.09224e+07
1.01786e+07
9.45605e+06
8.75912e+06
8.09224e+06
7.46008e+06
6.86746e+06
6.31935e+06
5.82079e+06
5.37694e+06
4.99297e+06
4.67405e+06
4.4253e+06
4.25176e+06
4.15823e+06
4.14922e+06
4.22895e+06
4.40123e+06
4.66937e+06
5.03619e+06
5.50397e+06
6.07441e+06
6.74855e+06
7.52676e+06
8.40874e+06
9.39348e+06
1.04794e+07
1.16641e+07
1.29448e+07
1.4318e+07
1.578e+07
1.73265e+07
1.89526e+07
2.06533e+07
2.2423e+07
2.42562e+07
2.6147e+07
2.80892e+07
3.00767e+07
3.21033e+07
3.41626e+07
3.6248e+07
3.83527e+07
4.04699e+07
4.25925e+07
4.47136e+07
4.68259e+07
4.8922e+07
5.09946e+07
5.30359e+07
5.50386e+07
5.69949e+07
5.88975e+07
6.0739e+07
6.25124e+07
6.42112e+07
6.58292e+07
6.73612e+07
6.88025e+07
7.01496e+07
7.13991e+07
7.25489e+07
7.35987e+07
7.45487e+07
7.54002e+07
7.61546e+07
7.6814e+07
7.73815e+07
7.78608e+07
7.82562e+07
7.85722e+07
7.8813e+07
7.89837e+07
7.90903e+07
7.91398e+07
7.91394e+07
7.90965e+07
7.90189e+07
7.89162e+07
7.87982e+07
7.86779e+07
7.85694e+07
7.8488e+07
7.84522e+07
7.84836e+07
7.86066e+07
7.8848e+07
7.92392e+07
7.98141e+07
8.06095e+07
8.16642e+07
8.30188e+07
8.47131e+07
8.67876e+07
8.92812e+07
9.22291e+07
9.56624e+07
9.9607e+07
1.04085e+08
1.09111e+08
1.14691e+08
1.20829e+08
1.27517e+08
1.34748e+08
1.42503e+08
1.50758e+08
1.59486e+08
1.68659e+08
1.78237e+08
1.88172e+08
1.98412e+08
2.0891e+08
2.19608e+08
2.30431e+08
2.41304e+08
2.52136e+08
2.62827e+08
2.73258e+08
2.83319e+08
2.9287e+08
3.01765e+08
3.09848e+08
3.16967e+08
3.22976e+08
3.27737e+08
3.31089e+08
3.32939e+08
3.33198e+08
3.31775e+08
3.28619e+08
3.23727e+08
3.17158e+08
3.0901e+08
2.99442e+08
2.88583e+08
2.76618e+08
2.6369e+08
2.49996e+08
2.35742e+08
2.21215e+08
2.84836e+07
2.84781e+07
2.84472e+07
2.8393e+07
2.83152e+07
2.82132e+07
2.80864e+07
2.79343e+07
2.77566e+07
2.75527e+07
2.73224e+07
2.70655e+07
2.67818e+07
2.64712e+07
2.61338e+07
2.57696e+07
2.53789e+07
2.49619e+07
2.45189e+07
2.40503e+07
2.35568e+07
2.30389e+07
2.24973e+07
2.19331e+07
2.13472e+07
2.07408e+07
2.01149e+07
1.94707e+07
1.88096e+07
1.8133e+07
1.74424e+07
1.67394e+07
1.60257e+07
1.53033e+07
1.45742e+07
1.38406e+07
1.3105e+07
1.237e+07
1.16384e+07
1.09134e+07
1.01984e+07
9.49688e+06
8.81274e+06
8.15008e+06
7.51327e+06
6.90688e+06
6.33565e+06
5.80447e+06
5.31831e+06
4.88225e+06
4.50142e+06
4.18094e+06
3.92587e+06
3.74117e+06
3.63155e+06
3.60146e+06
3.65503e+06
3.79596e+06
4.02745e+06
4.3522e+06
4.77235e+06
5.28947e+06
5.90448e+06
6.61764e+06
7.42853e+06
8.33608e+06
9.33856e+06
1.04337e+07
1.16185e+07
1.28896e+07
1.42432e+07
1.5675e+07
1.71804e+07
1.87543e+07
2.03915e+07
2.20863e+07
2.38331e+07
2.56259e+07
2.74587e+07
2.93256e+07
3.12204e+07
3.31367e+07
3.50682e+07
3.70082e+07
3.89501e+07
4.08871e+07
4.28123e+07
4.47189e+07
4.65999e+07
4.84481e+07
5.02567e+07
5.20187e+07
5.37274e+07
5.53762e+07
5.69586e+07
5.84692e+07
5.99026e+07
6.12545e+07
6.25213e+07
6.36996e+07
6.47873e+07
6.57827e+07
6.66859e+07
6.74971e+07
6.82179e+07
6.885e+07
6.93952e+07
6.98567e+07
7.02379e+07