/*--------------------------------*- C++ -*----------------------------------*\
| =========                 |                                                 |
| \\      /  F ield         | OpenFOAM: The Open Source CFD Toolbox           |
|  \\    /   O peration     | Version:  dev                                   |
|   \\  /    A nd           | Web:      http://www.openfoam.org               |
|    \\/     M anipulation  |                                                 |
\*---------------------------------------------------------------------------*/
FoamFile
{
    version     2.0;
    format      ascii;
    class       volScalarField;
    object      rho;
    location    "9.141";
}
// * * * * * * * * * * * * * * * * * * * * * * * * * * * * * * * * * * * * * //

dimensions      [1 -3 0 0 0 0 0];

internalField   nonuniform List<scalar> 
12225
(
1.14566
1.15198
1.15286
1.15253
1.15287
1.15235
1.15245
1.15265
1.15265
1.15355
1.15377
1.15483
1.15536
1.1563
1.15753
1.15713
1.15797
1.14382
1.14979
1.15907
1.1604
1.16168
1.16207
1.16351
1.16245
1.16457
1.16249
1.16466
1.16337
1.16415
1.16408
1.16401
1.1654
1.16358
1.16146
1.1534
1.14945
1.15893
1.16027
1.16212
1.16282
1.16496
1.16459
1.16717
1.1662
1.16746
1.16878
1.1669
1.16961
1.16838
1.16988
1.16973
1.16781
1.16444
1.14897
1.15814
1.16009
1.16102
1.16259
1.1634
1.16492
1.16536
1.16721
1.16619
1.1705
1.16686
1.17162
1.16747
1.17373
1.16923
1.17012
1.17081
1.14865
1.15669
1.15974
1.15973
1.16168
1.16202
1.16417
1.16395
1.16556
1.16596
1.1689
1.16724
1.17023
1.16863
1.17327
1.1704
1.17152
1.17379
1.14777
1.1548
1.15835
1.15823
1.16127
1.16166
1.16337
1.16204
1.16467
1.16562
1.16762
1.16664
1.16832
1.16831
1.17181
1.17149
1.17094
1.17284
1.14708
1.15315
1.15653
1.15609
1.15934
1.15884
1.16075
1.15957
1.16352
1.16435
1.16609
1.16535
1.16498
1.16597
1.16987
1.17076
1.17104
1.17075
1.14545
1.15188
1.1551
1.15373
1.15757
1.15574
1.15857
1.15639
1.16137
1.16142
1.16384
1.16237
1.16236
1.16234
1.16606
1.16835
1.16906
1.16951
1.14393
1.14949
1.15337
1.15139
1.15592
1.15335
1.15662
1.1544
1.1597
1.15974
1.16221
1.1585
1.16036
1.1612
1.16493
1.16489
1.16769
1.16775
1.14207
1.14629
1.15124
1.14861
1.15285
1.15054
1.15333
1.15182
1.157
1.15665
1.15866
1.15565
1.1581
1.1595
1.16313
1.16331
1.16461
1.16465
1.13823
1.14304
1.14732
1.14498
1.1485
1.14717
1.1494
1.14839
1.15247
1.15185
1.15364
1.15241
1.15434
1.15576
1.15834
1.15895
1.15957
1.16063
1.13361
1.13927
1.14231
1.14068
1.14327
1.14258
1.14405
1.14316
1.14587
1.14578
1.14736
1.14804
1.14941
1.15052
1.15185
1.15307
1.15412
1.15533
1.12827
1.13403
1.13563
1.13453
1.13606
1.13582
1.1367
1.13664
1.13831
1.13864
1.13995
1.14111
1.14209
1.14352
1.14466
1.14557
1.14664
1.14801
1.12113
1.12705
1.1274
1.1267
1.1273
1.12718
1.12788
1.12852
1.12926
1.12963
1.13087
1.13223
1.13326
1.13482
1.13586
1.13702
1.1383
1.13969
1.11182
1.11818
1.11778
1.1171
1.11692
1.11671
1.11737
1.11808
1.11823
1.11893
1.12035
1.12146
1.12255
1.12411
1.12512
1.12654
1.12805
1.1295
1.10135
1.10696
1.10611
1.10548
1.10504
1.10491
1.10562
1.10592
1.10586
1.10696
1.10836
1.10923
1.11052
1.112
1.11321
1.115
1.11662
1.11831
1.08838
1.09354
1.09249
1.09184
1.09133
1.09146
1.09194
1.09185
1.09247
1.09382
1.09488
1.09597
1.09753
1.09896
1.10057
1.10259
1.10422
1.1062
1.07453
1.07971
1.07898
1.0785
1.07819
1.07853
1.07877
1.07918
1.08046
1.08148
1.08268
1.08423
1.08592
1.0878
1.08972
1.09175
1.09369
1.0957
1.06167
1.06747
1.06729
1.06697
1.06693
1.06753
1.06843
1.06983
1.07096
1.07221
1.07406
1.07552
1.0775
1.07972
1.08166
1.08392
1.08617
1.08815
1.05234
1.05828
1.05798
1.058
1.0582
1.05966
1.06156
1.06243
1.06374
1.06626
1.06806
1.06975
1.07214
1.0742
1.07639
1.07874
1.08132
1.08324
1.0447
1.05057
1.05063
1.05167
1.05221
1.0547
1.05634
1.05633
1.05892
1.06182
1.06396
1.06614
1.06855
1.07103
1.07296
1.07566
1.07821
1.07997
1.03912
1.04385
1.04546
1.04789
1.04822
1.05019
1.05201
1.05214
1.05514
1.05885
1.06113
1.06362
1.06665
1.06869
1.07092
1.07375
1.07567
1.0783
1.03425
1.03936
1.04171
1.04484
1.04591
1.04645
1.04805
1.05015
1.05366
1.05676
1.05849
1.06196
1.06429
1.06633
1.06987
1.07149
1.07447
1.07747
1.03107
1.0372
1.03759
1.0408
1.04413
1.04366
1.04487
1.05038
1.05263
1.05372
1.05772
1.06006
1.06213
1.06574
1.06832
1.07048
1.07406
1.0763
1.02853
1.03526
1.03613
1.03848
1.04128
1.0428
1.04512
1.04881
1.05091
1.05248
1.05647
1.05909
1.06118
1.06523
1.06728
1.06992
1.0735
1.07509
1.02649
1.03339
1.03544
1.03708
1.03915
1.04208
1.04461
1.04696
1.04988
1.05265
1.0556
1.05872
1.06119
1.06426
1.06728
1.06957
1.07283
1.07531
1.02582
1.0326
1.03404
1.03627
1.03867
1.04096
1.0435
1.04628
1.04919
1.05209
1.05496
1.05786
1.06087
1.06379
1.06676
1.06969
1.07248
1.07525
1.02485
1.03184
1.03354
1.0357
1.0381
1.04066
1.0434
1.04624
1.04913
1.05204
1.05498
1.05793
1.0609
1.06383
1.06675
1.06954
1.0723
1.07492
1.02464
1.03162
1.03323
1.03534
1.03774
1.04031
1.04299
1.04573
1.04848
1.05125
1.05402
1.05677
1.05948
1.06212
1.06476
1.0673
1.06989
1.07225
1.02217
1.02865
1.02986
1.03148
1.03341
1.03548
1.03765
1.0399
1.04224
1.04466
1.04715
1.04968
1.05226
1.05484
1.05744
1.06002
1.06257
1.06503
1.14273
1.16029
1.15677
1.15978
1.15884
1.15953
1.15918
1.15908
1.15861
1.15787
1.15687
1.15589
1.1551
1.15399
1.15277
1.15353
1.15526
1.15635
1.15705
1.15673
1.1557
1.15515
1.15529
1.15344
1.15286
1.15348
1.14907
1.14724
1.13977
1.12492
1.12245
1.12851
1.13501
1.14004
1.14465
1.14912
1.15234
1.15282
1.14839
1.14158
1.13988
1.1411
1.13798
1.12777
1.11737
1.11038
1.10615
1.10389
1.10307
1.10317
1.10368
1.10431
1.10492
1.10551
1.10598
1.10627
1.10641
1.10655
1.107
1.10783
1.1092
1.11064
1.11173
1.11246
1.11313
1.11339
1.11337
1.11312
1.11267
1.11193
1.11101
1.11009
1.10926
1.10849
1.10784
1.10743
1.10754
1.10842
1.11005
1.11221
1.11447
1.1164
1.1178
1.11864
1.11913
1.11953
1.11964
1.11963
1.11883
1.11833
1.11885
1.12046
1.12289
1.12405
1.12335
1.11936
1.11407
1.10939
1.11328
1.11362
1.11353
1.11137
1.10562
1.10255
1.10006
1.09352
1.08681
1.09061
1.11349
1.14326
1.15863
1.15972
1.15504
1.14011
1.12107
1.10727
1.09768
1.09513
1.08112
1.07207
1.06435
1.06145
1.0726
1.07957
1.07894
1.08078
1.08358
1.08675
1.08943
1.09013
1.09727
1.11027
1.11588
1.08625
1.05949
1.05316
1.05387
1.04491
1.03953
1.04715
1.05238
1.03285
1.03271
1.03195
1.04927
1.04981
1.04385
1.04133
1.03953
1.04059
1.04157
1.0455
1.04687
1.0526
1.05036
1.05345
1.05191
1.05667
1.05214
1.0551
1.04979
1.05182
1.08121
1.09006
1.0484
1.01078
1.01705
1.027
1.05866
1.07548
1.03643
1.02202
1.01994
1.02739
1.03944
1.03833
1.02794
1.02126
1.01599
1.0162
1.13963
1.16601
1.16122
1.15932
1.15987
1.15963
1.15748
1.15463
1.15088
1.14666
1.14247
1.1382
1.13697
1.1382
1.13358
1.13117
1.13854
1.14374
1.15072
1.1515
1.14825
1.15695
1.15057
1.14979
1.16496
1.1495
1.15712
1.1747
1.14906
1.15802
1.17105
1.15237
1.146
1.14431
1.14836
1.16525
1.1892
1.20694
1.21455
1.20656
1.1802
1.17348
1.20127
1.20493
1.16178
1.12014
1.10527
1.10506
1.10835
1.11186
1.11497
1.11847
1.12347
1.12984
1.13506
1.13732
1.13782
1.13844
1.13934
1.13974
1.1395
1.13786
1.13472
1.13094
1.12713
1.12358
1.12065
1.11803
1.11598
1.11427
1.11293
1.11164
1.11071
1.11059
1.1118
1.11451
1.11861
1.12369
1.12926
1.13509
1.14101
1.147
1.15236
1.15558
1.15623
1.15516
1.15421
1.15602
1.16484
1.17533
1.18408
1.18218
1.17383
1.1694
1.14559
1.11712
1.08681
1.06805
1.0923
1.10214
1.10717
1.11976
1.12524
1.14045
1.1614
1.16336
1.16173
1.14855
1.13543
1.17612
1.24564
1.26064
1.2456
1.23694
1.2125
1.17164
1.1397
1.12408
1.09473
1.08389
1.09998
1.11869
1.12642
1.11934
1.12759
1.13343
1.12715
1.10862
1.08554
1.09187
1.12524
1.13554
1.15788
1.13551
1.1045
1.08085
1.08276
1.06833
1.06255
1.08979
1.09949
1.02861
1.00463
1.0072
1.05218
1.08415
1.07905
1.07114
1.05959
1.05833
1.06541
1.08736
1.09105
1.11394
1.12083
1.13976
1.14279
1.15747
1.15532
1.16873
1.1606
1.16831
1.23687
1.24669
1.16339
1.10458
1.12614
1.16223
1.21452
1.21598
1.15479
1.1179
1.12191
1.14371
1.16567
1.14588
1.11239
1.08328
1.06088
1.05577
1.12968
1.15933
1.15676
1.15187
1.15253
1.15092
1.14471
1.13673
1.12912
1.12255
1.11924
1.11467
1.10953
1.11289
1.1158
1.10319
1.10978
1.1234
1.11972
1.12753
1.13045
1.12604
1.13349
1.13658
1.13337
1.14696
1.15039
1.132
1.16
1.16653
1.13497
1.1541
1.16226
1.15949
1.16615
1.16995
1.17964
1.17455
1.16939
1.17552
1.16597
1.14472
1.1345
1.13159
1.1264
1.12326
1.12585
1.13117
1.1369
1.14143
1.14399
1.14421
1.14274
1.14116
1.13948
1.13697
1.13372
1.13042
1.12752
1.12451
1.1208
1.11601
1.11128
1.10752
1.1046
1.10169
1.09838
1.09543
1.09342
1.09222
1.09174
1.09143
1.09198
1.09314
1.09498
1.09645
1.09671
1.09595
1.09507
1.09535
1.09674
1.09909
1.10062
1.09967
1.09672
1.09372
1.09428
1.10116
1.11722
1.13239
1.14451
1.1389
1.11858
1.10532
1.06617
1.02867
1.00456
0.998027
1.01752
1.03119
1.03645
1.05295
1.06902
1.07849
1.10771
1.10622
1.12774
1.18703
1.18444
1.18602
1.23304
1.2404
1.21061
1.18515
1.16088
1.14071
1.13533
1.1249
1.10907
1.11596
1.13457
1.14267
1.13377
1.12506
1.13293
1.12688
1.11185
1.0704
1.04536
1.09107
1.12265
1.10111
1.12251
1.12717
1.10138
1.08875
1.11772
1.06605
1.04785
1.07548
1.09974
1.1193
1.01981
1.00876
1.02391
1.09005
1.10126
1.07533
1.03476
1.01882
1.02605
1.06531
1.08603
1.11493
1.13552
1.16035
1.17794
1.20544
1.20836
1.21388
1.20976
1.24123
1.29183
1.22099
1.14725
1.09029
1.14655
1.20518
1.2458
1.17608
1.23055
1.18563
1.20273
1.2299
1.22902
1.18054
1.13647
1.09708
1.07609
1.07991
1.12148
1.14521
1.14738
1.15015
1.15365
1.14795
1.13656
1.12634
1.11903
1.11346
1.11246
1.1144
1.1163
1.1137
1.11881
1.11514
1.10766
1.12014
1.11596
1.11453
1.12497
1.11791
1.12371
1.13909
1.14004
1.14566
1.15274
1.15602
1.14332
1.14363
1.18492
1.16931
1.15846
1.17968
1.14671
1.15348
1.19946
1.19181
1.15247
1.13868
1.13518
1.1276
1.12615
1.1308
1.13712
1.14184
1.14416
1.14551
1.14828
1.15183
1.15263
1.14841
1.14137
1.13517
1.13147
1.12999
1.12948
1.12852
1.12556
1.12115
1.11745
1.11521
1.11459
1.115
1.11607
1.11758
1.11893
1.11949
1.11968
1.11979
1.11979
1.11915
1.11802
1.11627
1.11374
1.10986
1.10408
1.09704
1.08991
1.0845
1.0804
1.07697
1.07381
1.07131
1.06999
1.06945
1.06901
1.0699
1.07297
1.07479
1.07954
1.07842
1.06838
1.06172
1.05105
1.03598
1.04888
1.06246
1.05319
1.06742
1.08876
1.08998
1.09315
1.08228
1.08924
1.07895
1.07509
1.11995
1.14754
1.16357
1.19278
1.22408
1.23208
1.20136
1.16053
1.13677
1.13396
1.12775
1.11715
1.12671
1.14031
1.14259
1.11497
1.0992
1.10483
1.1022
1.11385
1.07743
1.05772
1.11404
1.09468
1.08693
1.11654
1.13837
1.10172
1.10319
1.10602
1.08091
1.04369
1.04
1.04442
1.1249
1.09404
1.08681
1.04142
1.0841
1.11178
1.07969
1.02468
1.00114
0.991577
1.02771
1.05411
1.09829
1.11835
1.15935
1.17791
1.21176
1.25035
1.23378
1.22966
1.28277
1.32035
1.20166
1.15562
1.10097
1.26139
1.22743
1.22787
1.12656
1.26747
1.24339
1.2687
1.28847
1.23953
1.16869
1.13158
1.09932
1.08898
1.10254
1.11806
1.1338
1.14312
1.15065
1.14958
1.14119
1.13061
1.1227
1.118
1.11497
1.11544
1.11464
1.1155
1.1189
1.12121
1.12127
1.11595
1.12099
1.118
1.11117
1.11704
1.11683
1.12682
1.15009
1.1634
1.17313
1.1757
1.17141
1.16952
1.16274
1.13394
1.13417
1.17279
1.15973
1.15575
1.17869
1.16011
1.13744
1.12969
1.13123
1.13577
1.13948
1.14248
1.14354
1.14135
1.13651
1.1317
1.13075
1.13583
1.1434
1.14826
1.14751
1.14145
1.13292
1.12553
1.12244
1.1237
1.12611
1.12664
1.12431
1.12116
1.11919
1.11881
1.1188
1.11855
1.11835
1.1179
1.1165
1.11437
1.11228
1.1111
1.11079
1.11022
1.1087
1.10637
1.10357
1.10076
1.09872
1.09791
1.09801
1.09765
1.0956
1.09151
1.08632
1.08099
1.07743
1.0741
1.06943
1.06817
1.06327
1.06107
1.05942
1.05888
1.05603
1.0549
1.05282
1.08438
1.09551
1.06771
1.06491
1.09665
1.11268
1.10593
1.09691
1.11016
1.12129
1.09088
1.08733
1.12552
1.15858
1.18182
1.20689
1.21162
1.19087
1.1568
1.13148
1.12112
1.113
1.10395
1.11153
1.13384
1.13682
1.09483
1.06814
1.05751
1.07097
1.11396
1.0634
1.04665
1.08958
1.06619
1.08092
1.10564
1.12681
1.12235
1.09047
1.0597
1.11189
1.08521
1.0528
1.05946
1.05328
1.10306
1.07079
1.03213
1.06664
1.10707
1.07822
1.03661
1.02468
1.00375
1.0383
1.04712
1.10221
1.10939
1.1463
1.18935
1.19548
1.25636
1.23022
1.22973
1.30861
1.34534
1.20714
1.17759
1.19837
1.31214
1.28717
1.28682
1.12165
1.21074
1.26488
1.31147
1.31878
1.2296
1.151
1.12527
1.1024
1.10035
1.1164
1.11854
1.13044
1.14287
1.14816
1.14587
1.13943
1.13077
1.12313
1.11916
1.11705
1.11666
1.12089
1.12548
1.1264
1.12439
1.12386
1.12199
1.12204
1.12335
1.1179
1.11369
1.12978
1.16759
1.1843
1.1692
1.17428
1.19729
1.18861
1.15422
1.146
1.16339
1.17318
1.14733
1.13887
1.16784
1.16764
1.14046
1.12611
1.12409
1.12507
1.12658
1.13018
1.13677
1.14541
1.15227
1.15357
1.14898
1.14171
1.13613
1.1337
1.13304
1.13167
1.12862
1.12452
1.12123
1.11945
1.1185
1.11789
1.1178
1.11749
1.11694
1.11687
1.11765
1.1183
1.11796
1.11704
1.11649
1.1158
1.11381
1.11052
1.10721
1.1044
1.1021
1.10017
1.09892
1.09856
1.09853
1.09814
1.09774
1.09751
1.09736
1.09749
1.097
1.09518
1.09092
1.08701
1.08433
1.07648
1.07661
1.07083
1.06703
1.06413
1.06037
1.06082
1.05793
1.05304
1.08143
1.10158
1.06865
1.03206
1.03302
1.06759
1.08574
1.10682
1.15013
1.1675
1.12495
1.09963
1.12061
1.14245
1.16272
1.17958
1.18026
1.17606
1.15336
1.12411
1.11186
1.11305
1.11561
1.1314
1.15887
1.13991
1.0813
1.04248
1.02232
1.06065
1.09774
1.0581
1.06904
1.08891
1.07092
1.06441
1.08288
1.07961
1.12435
1.09546
1.07883
1.15797
1.14565
1.08406
1.09332
1.06374
1.09884
1.07543
1.04698
1.04159
1.06588
1.07441
1.06498
1.0318
1.05502
1.0603
1.07158
1.09233
1.10832
1.10311
1.20044
1.17992
1.21075
1.19296
1.18649
1.31149
1.35808
1.22284
1.19336
1.29213
1.19684
1.31823
1.29618
1.10062
1.12535
1.26155
1.33626
1.32868
1.21633
1.14079
1.12745
1.11146
1.11547
1.13763
1.12049
1.12989
1.14049
1.14431
1.13983
1.13182
1.12477
1.12019
1.11784
1.12061
1.12451
1.12562
1.12681
1.13172
1.13032
1.12442
1.12712
1.12491
1.11647
1.1215
1.14281
1.16412
1.17294
1.16301
1.14642
1.1559
1.18472
1.20197
1.20995
1.20497
1.17036
1.14395
1.15103
1.18157
1.18779
1.16179
1.13945
1.1344
1.13669
1.1372
1.13498
1.13256
1.13234
1.13582
1.14234
1.14791
1.149
1.14486
1.13768
1.12968
1.12211
1.11655
1.11515
1.11734
1.12044
1.12137
1.12055
1.1198
1.11987
1.1207
1.1222
1.12454
1.12693
1.12794
1.12723
1.12548
1.12364
1.12198
1.11994
1.11696
1.11331
1.11069
1.10891
1.10631
1.10276
1.09913
1.09624
1.09379
1.09079
1.08753
1.08529
1.08316
1.07972
1.07731
1.07538
1.07671
1.07574
1.07194
1.07357
1.07497
1.07224
1.07531
1.07198
1.06959
1.08133
1.06827
1.05393
1.08615
1.08927
1.05185
1.02266
1.02577
1.05069
1.08355
1.12585
1.13225
1.12166
1.11448
1.11255
1.119
1.13501
1.15444
1.16384
1.16609
1.14675
1.11595
1.10762
1.11919
1.1247
1.12966
1.13005
1.09577
1.05089
1.02971
1.02438
1.06667
1.08085
1.06751
1.07169
1.06436
1.04263
1.05719
1.09152
1.07924
1.08231
1.16983
1.13314
1.20734
1.17274
1.11265
1.093
1.08799
1.11033
1.07018
1.06358
1.07263
1.0511
1.07026
1.08272
1.0117
1.10129
1.06153
1.0852
1.05095
1.09292
1.05386
1.19527
1.16769
1.14475
1.17857
1.13724
1.28341
1.34348
1.24371
1.20012
1.31932
1.15212
1.28007
1.26554
1.10524
1.08758
1.24831
1.34526
1.33047
1.2051
1.13543
1.13435
1.12854
1.13676
1.15481
1.12278
1.1288
1.13602
1.13318
1.12531
1.12113
1.12043
1.12301
1.12526
1.12918
1.13448
1.13977
1.13911
1.13429
1.12859
1.12307
1.12524
1.12631
1.12828
1.14805
1.1751
1.18523
1.17619
1.16337
1.16641
1.1886
1.21047
1.21536
1.20023
1.17103
1.15411
1.16786
1.18436
1.17759
1.15837
1.14311
1.13716
1.13613
1.13528
1.13526
1.13818
1.14413
1.15262
1.16038
1.16447
1.16276
1.15616
1.14741
1.13819
1.12843
1.11821
1.11008
1.10773
1.11051
1.11527
1.11918
1.12185
1.12375
1.12448
1.12493
1.12575
1.12642
1.12586
1.12421
1.12227
1.12011
1.11737
1.1142
1.11114
1.1081
1.10523
1.10241
1.10021
1.0995
1.09904
1.09796
1.09678
1.09675
1.09582
1.09411
1.09332
1.09166
1.08786
1.0844
1.07801
1.07704
1.06713
1.06391
1.06028
1.0586
1.05946
1.05727
1.05787
1.04098
1.05492
1.06956
1.02668
1.03999
1.08026
1.07726
1.06102
1.04811
1.06188
1.0795
1.09935
1.08801
1.09164
1.11508
1.11781
1.11853
1.1243
1.143
1.16048
1.16025
1.139
1.11218
1.10861
1.12454
1.11922
1.10365
1.08513
1.05973
1.04166
1.03536
1.033
1.05605
1.06513
1.05821
1.0539
1.0504
1.02625
1.04792
1.0629
1.12428
1.05749
1.13946
1.11594
1.15712
1.10982
1.1367
1.11522
1.08018
1.11202
1.0811
1.0354
1.06324
1.05273
1.0762
1.09583
1.00192
1.10938
1.06036
1.09775
1.01976
1.07783
1.02893
1.18515
1.17552
1.1033
1.17373
1.12009
1.27275
1.32415
1.25965
1.20214
1.31409
1.18358
1.2504
1.24895
1.11448
1.08431
1.24344
1.34679
1.32777
1.19613
1.13257
1.14396
1.14241
1.15299
1.16078
1.1251
1.12646
1.12707
1.12304
1.12102
1.1254
1.12986
1.13467
1.13714
1.14
1.14324
1.14231
1.13768
1.13167
1.12587
1.12659
1.1355
1.14451
1.1527
1.1734
1.19152
1.18665
1.16751
1.15715
1.16775
1.18286
1.18807
1.1845
1.17587
1.17264
1.18105
1.18254
1.16853
1.15055
1.13732
1.13043
1.12828
1.12815
1.12916
1.13112
1.13403
1.13835
1.14433
1.15078
1.1559
1.1584
1.15711
1.15184
1.14292
1.13257
1.12299
1.11746
1.11659
1.11884
1.12178
1.12398
1.12498
1.12526
1.12555
1.12634
1.12721
1.1262
1.12283
1.1178
1.11305
1.10828
1.10278
1.09636
1.09107
1.08876
1.08835
1.08712
1.0862
1.08694
1.08811
1.09047
1.0936
1.0969
1.09954
1.10225
1.10402
1.10184
1.10126
1.10384
1.10085
1.10167
1.09886
1.09262
1.08795
1.07215
1.06939
1.05861
1.05013
1.03221
1.01011
1.05281
1.04547
1.0338
1.06914
1.07744
1.05785
1.04069
1.06585
1.10331
1.11864
1.1087
1.10982
1.13715
1.13935
1.13082
1.12286
1.14032
1.15915
1.15757
1.13454
1.11381
1.11646
1.12354
1.10777
1.08337
1.05992
1.04358
1.04623
1.04742
1.02325
1.02297
1.04448
1.04001
1.0522
1.04666
1.02419
1.06139
1.06625
1.13262
1.08432
1.05182
1.05102
1.06991
1.02999
1.1107
1.10922
1.08873
1.07163
1.07776
1.04915
1.06862
1.0687
1.05884
1.10015
1.01949
1.10313
1.06051
1.1103
1.01546
1.06987
1.02771
1.15795
1.17645
1.10254
1.14897
1.11942
1.2668
1.31533
1.2733
1.2023
1.28856
1.21165
1.23749
1.22639
1.12717
1.07515
1.24616
1.34854
1.3231
1.19133
1.13095
1.15229
1.15778
1.16473
1.16284
1.12791
1.12562
1.12413
1.12776
1.13417
1.1413
1.14394
1.14299
1.14397
1.14481
1.14581
1.14606
1.14082
1.13602
1.13706
1.14461
1.15365
1.1635
1.17494
1.18973
1.19407
1.18498
1.16987
1.1599
1.16586
1.17876
1.187
1.19075
1.19067
1.18616
1.17362
1.1533
1.13448
1.1235
1.11823
1.117
1.11712
1.11717
1.11696
1.11662
1.11751
1.1204
1.12372
1.12632
1.12776
1.12791
1.12613
1.12264
1.11759
1.11322
1.11082
1.11067
1.11158
1.11249
1.11322
1.11455
1.11719
1.12044
1.12352
1.12538
1.12574
1.12454
1.12138
1.115
1.10755
1.10021
1.09297
1.08775
1.08624
1.08885
1.09217
1.09657
1.10137
1.10624
1.11197
1.12013
1.12711
1.1276
1.12363
1.11831
1.11232
1.10351
1.09857
1.09794
1.09726
1.09396
1.099
1.10205
1.10239
1.10102
1.09864
1.09148
1.06958
1.07545
1.03693
1.04041
1.05885
1.03287
1.04378
1.06424
1.05487
1.02619
1.02315
1.0592
1.07964
1.10159
1.13513
1.16485
1.15455
1.13574
1.12035
1.13853
1.16077
1.15489
1.13078
1.12302
1.12719
1.12845
1.10787
1.07267
1.04695
1.02434
1.01896
1.01658
0.984908
0.983723
1.01823
1.04119
1.05708
1.06929
1.03945
1.06161
1.09781
1.10306
1.13628
1.09401
1.04599
1.03418
1.01369
1.13448
1.07295
1.07741
1.04252
1.05307
1.02117
1.03412
1.09254
1.06323
1.14603
1.02824
1.10551
1.06689
1.11543
1.02368
1.06123
1.03987
1.13431
1.17382
1.12623
1.12173
1.10795
1.24209
1.30399
1.28851
1.20927
1.25389
1.21468
1.23536
1.22496
1.14481
1.07706
1.25873
1.34818
1.31663
1.18826
1.12874
1.15605
1.16366
1.16381
1.15421
1.1323
1.12938
1.13294
1.14269
1.14885
1.1484
1.1482
1.1455
1.1459
1.14782
1.1474
1.15053
1.1481
1.14362
1.15039
1.15999
1.16675
1.17485
1.18488
1.19427
1.19599
1.19431
1.19208
1.18917
1.19273
1.19976
1.19936
1.19161
1.17832
1.16041
1.14017
1.12324
1.11424
1.11012
1.10836
1.10737
1.10722
1.10773
1.10859
1.11028
1.11317
1.11606
1.11828
1.1202
1.12105
1.12053
1.11928
1.11704
1.11416
1.11148
1.10934
1.10784
1.10773
1.11043
1.11623
1.12141
1.12434
1.12649
1.12727
1.12797
1.12991
1.13039
1.12561
1.11875
1.10803
1.09754
1.09177
1.09032
1.09443
1.10029
1.10532
1.11339
1.12349
1.12908
1.13043
1.12841
1.12055
1.10721
1.09259
1.07969
1.07036
1.06438
1.06229
1.06039
1.05994
1.06638
1.06236
1.078
1.08046
1.0935
1.09447
1.11543
1.09237
1.10282
1.10272
1.04572
1.03898
1.01788
1.01592
1.0519
1.07444
1.06169
1.0384
1.06126
1.07425
1.08712
1.13019
1.15684
1.13708
1.12153
1.11256
1.13624
1.16188
1.15716
1.12987
1.12837
1.13814
1.13305
1.099
1.05812
1.04134
1.00434
0.986227
0.988819
0.978292
0.985832
0.99877
1.02935
1.04608
1.07248
1.03793
1.02446
1.0855
1.10006
1.13526
1.12723
1.09165
1.05036
1.01741
1.10378
1.00878
1.04149
1.02178
1.06595
1.00358
0.965799
1.07951
1.09179
1.20501
1.00865
1.10843
1.06289
1.11253
1.01908
1.0472
1.04302
1.12336
1.17572
1.13897
1.08379
1.04332
1.24038
1.29654
1.30112
1.22656
1.22377
1.20812
1.22688
1.23381
1.16632
1.07824
1.26321
1.34936
1.30709
1.18151
1.12405
1.15506
1.16862
1.16148
1.14718
1.13782
1.13617
1.14534
1.15621
1.15482
1.15193
1.15242
1.15089
1.15058
1.15321
1.15513
1.15973
1.15995
1.15948
1.16714
1.17314
1.18167
1.1941
1.20361
1.208
1.20978
1.21218
1.21197
1.20766
1.20449
1.19891
1.18611
1.1702
1.15288
1.13657
1.12476
1.11893
1.1186
1.11928
1.12087
1.12206
1.12258
1.12209
1.12203
1.12254
1.1232
1.12409
1.12487
1.12461
1.1249
1.12699
1.12965
1.13168
1.13317
1.13379
1.13474
1.13673
1.13925
1.14035
1.13934
1.13739
1.13614
1.13621
1.13821
1.14089
1.14081
1.13684
1.13109
1.1214
1.10855
1.09743
1.09206
1.09375
1.10103
1.11203
1.12128
1.12751
1.13672
1.14025
1.13169
1.11689
1.09992
1.08296
1.07303
1.07178
1.0735
1.07481
1.07355
1.07051
1.06236
1.05982
1.04958
1.04794
1.04245
1.0563
1.05532
1.07629
1.09111
1.07766
1.1227
1.08345
1.05825
1.04921
1.02295
1.04192
1.06571
1.05713
1.02671
1.05912
1.07757
1.08909
1.13994
1.1445
1.12095
1.11169
1.11291
1.13997
1.15867
1.15655
1.12966
1.12571
1.13176
1.11893
1.07484
1.02951
1.01401
0.978611
0.972511
0.981073
0.984974
0.993788
0.996234
0.998305
1.06233
1.03944
1.00481
1.01764
1.06377
1.10542
1.14072
1.09931
1.058
1.02708
1.01458
1.03311
0.990918
1.05361
1.00526
1.06883
1.03105
0.966932
1.05128
1.09381
1.20157
1.0041
1.12756
1.05462
1.09861
1.0056
1.03048
1.03972
1.10505
1.17816
1.17998
1.09138
0.975526
1.18733
1.26516
1.29218
1.25405
1.21768
1.20989
1.21253
1.23989
1.18284
1.08605
1.25164
1.34719
1.30051
1.18103
1.12291
1.15011
1.17202
1.16102
1.1393
1.14375
1.14539
1.15834
1.16239
1.1571
1.16061
1.15896
1.15588
1.15858
1.16194
1.1662
1.16826
1.1692
1.17325
1.18048
1.18819
1.20178
1.21018
1.21212
1.21346
1.21167
1.20876
1.2021
1.19315
1.1838
1.17182
1.15775
1.14544
1.1353
1.12983
1.12826
1.13085
1.13414
1.13702
1.13861
1.13879
1.13825
1.13808
1.13896
1.13998
1.14027
1.13797
1.13532
1.13533
1.13548
1.13313
1.13131
1.13154
1.13255
1.13349
1.13521
1.13716
1.13915
1.141
1.14393
1.14897
1.15292
1.15074
1.14761
1.14305
1.13776
1.13432
1.12654
1.11741
1.10791
1.09854
1.09325
1.09579
1.10532
1.11885
1.13328
1.14115
1.14181
1.13839
1.12404
1.10381
1.08666
1.07796
1.08079
1.0883
1.08974
1.08857
1.08869
1.08164
1.088
1.08279
1.08323
1.08054
1.07516
1.06492
1.07299
1.04483
1.08002
1.05557
1.07399
1.09559
1.087
1.0898
1.04577
1.02833
1.04956
1.0582
1.01674
1.03021
1.05184
1.07492
1.12382
1.13042
1.12694
1.12428
1.1228
1.14639
1.15931
1.14708
1.12787
1.11829
1.11437
1.09264
1.04808
1.01905
1.00612
0.974876
0.980889
0.985979
0.989272
1.00223
0.979538
0.994143
1.09079
1.07373
1.02975
1.03649
1.08109
1.09961
1.11508
1.07212
1.04487
1.01751
1.01343
1.00528
0.994335
1.05824
1.00675
1.05363
1.01631
0.99476
1.04471
1.07213
1.14301
1.00512
1.13323
1.03974
1.08157
1.00505
1.01923
1.05294
1.08231
1.16673
1.24268
1.17202
0.979443
1.02688
1.23791
1.27167
1.26828
1.22249
1.21781
1.20195
1.24253
1.20212
1.09877
1.2219
1.34484
1.29934
1.18211
1.11914
1.14436
1.16464
1.15566
1.11688
1.14946
1.15277
1.16309
1.16537
1.16487
1.16821
1.16369
1.16089
1.16742
1.17133
1.1736
1.17138
1.17336
1.17958
1.18732
1.19207
1.19747
1.1992
1.2002
1.1984
1.19413
1.18809
1.17978
1.17102
1.16148
1.15231
1.14411
1.13906
1.1367
1.13772
1.14121
1.14557
1.14839
1.1495
1.14884
1.14799
1.14841
1.1489
1.1495
1.14924
1.14853
1.14942
1.14978
1.14457
1.13748
1.13497
1.13437
1.13224
1.1299
1.12815
1.12676
1.12622
1.12598
1.1251
1.12437
1.1231
1.12482
1.13065
1.14126
1.14538
1.13797
1.1308
1.12381
1.11404
1.10564
1.0971
1.09275
1.09579
1.10559
1.11999
1.13406
1.14352
1.14318
1.13771
1.11987
1.0962
1.08309
1.08105
1.08284
1.08856
1.0901
1.07378
1.0685
1.05962
1.06395
1.05749
1.06684
1.05491
1.07222
1.0523
1.08169
1.06914
1.07842
1.08497
1.06628
1.0834
1.07049
1.07523
1.05798
1.01803
1.03087
1.06386
1.03558
1.03862
1.05664
1.07297
1.10068
1.13477
1.14629
1.1481
1.13876
1.15119
1.16423
1.13914
1.12564
1.11419
1.10131
1.0717
1.03459
1.02203
1.01313
0.994035
0.999436
0.996569
0.986313
1.01715
0.972814
1.03477
1.06589
1.07187
1.03539
1.0275
1.07042
1.10948
1.10503
1.08186
1.06246
1.01632
1.00879
1.00916
1.01903
1.05149
1.022
1.04912
1.00217
1.00979
1.04276
1.05042
1.08457
1.02087
1.13566
1.02033
1.06533
1.01754
1.03551
1.09741
1.06429
1.15483
1.25702
1.23564
1.0428
0.878586
1.17383
1.24947
1.28278
1.25112
1.2478
1.21252
1.24183
1.22465
1.1149
1.17928
1.33361
1.299
1.18854
1.11918
1.14335
1.16083
1.15702
1.12517
1.15381
1.15485
1.16333
1.17349
1.16993
1.16548
1.16837
1.16745
1.16842
1.16758
1.16834
1.16846
1.16974
1.17413
1.17906
1.17753
1.18098
1.1796
1.17946
1.1761
1.17161
1.16726
1.16104
1.15619
1.15155
1.14836
1.14756
1.14868
1.15277
1.1574
1.16271
1.16569
1.16696
1.1675
1.16796
1.16764
1.16733
1.1664
1.16444
1.16224
1.15986
1.15588
1.15203
1.15157
1.15246
1.14779
1.1385
1.12993
1.12283
1.11748
1.114
1.11262
1.11104
1.1082
1.10528
1.10563
1.10896
1.11198
1.11216
1.11084
1.1155
1.11932
1.11882
1.11303
1.10645
1.09923
1.09295
1.09314
1.10251
1.11613
1.12937
1.14536
1.15303
1.1413
1.12314
1.10664
1.08471
1.07244
1.0788
1.07915
1.07759
1.06545
1.06736
1.06148
1.07915
1.06655
1.07659
1.06858
1.0788
1.07971
1.06269
1.07269
1.04933
1.07671
1.07425
1.10065
1.08819
1.0655
1.07863
1.04073
1.02761
1.05094
1.02957
1.02818
1.04122
1.06727
1.10426
1.15613
1.16105
1.16367
1.15106
1.15314
1.16411
1.13598
1.12227
1.11716
1.10072
1.06583
1.03279
1.02204
1.01809
1.00236
0.994288
0.992642
0.984926
0.978039
0.98172
1.03658
1.06211
1.05227
1.02444
1.02352
1.04926
1.0838
1.10507
1.08738
1.06915
1.02057
1.02002
1.02973
1.03771
1.03264
1.02233
1.04248
1.01453
1.02234
1.04254
1.04182
1.04687
1.03977
1.13053
1.01196
1.05417
1.02727
1.05975
1.14265
1.04678
1.16822
1.20233
1.17436
1.09718
0.871174
1.06013
1.18817
1.267
1.26646
1.27862
1.23269
1.23945
1.24347
1.13663
1.1434
1.31562
1.30052
1.20141
1.12342
1.13776
1.16415
1.16737
1.15347
1.15726
1.1563
1.16421
1.17333
1.16909
1.16917
1.1766
1.1752
1.17372
1.17129
1.16904
1.16562
1.16711
1.17143
1.1685
1.1666
1.16869
1.16681
1.16568
1.16395
1.16101
1.15882
1.15759
1.15555
1.15603
1.15732
1.16015
1.16498
1.16961
1.17401
1.17721
1.17883
1.17933
1.17924
1.17938
1.18001
1.1787
1.17388
1.16851
1.16415
1.15985
1.15437
1.14716
1.13918
1.13153
1.12435
1.11663
1.11078
1.10824
1.10901
1.11135
1.1129
1.11251
1.11358
1.1163
1.11742
1.11415
1.11007
1.11106
1.11191
1.11018
1.10684
1.10373
1.10021
1.0971
1.09287
1.0901
1.09178
1.09766
1.10898
1.12582
1.1438
1.14792
1.14706
1.13963
1.11541
1.09682
1.08573
1.07906
1.07126
1.08262
1.06853
1.07634
1.08214
1.08501
1.09579
1.06706
1.08045
1.06077
1.08585
1.05953
1.09064
1.07344
1.07211
1.05681
1.06385
1.09133
1.0741
1.0908
1.06746
1.03611
1.04726
1.0398
1.02541
1.02951
1.06443
1.12602
1.1747
1.17015
1.16437
1.15205
1.15583
1.15843
1.13239
1.11502
1.11729
1.11265
1.07886
1.04638
1.03593
1.02711
1.00702
1.0057
1.00578
1.00158
0.973974
0.987418
0.997764
1.03702
1.04668
1.05776
1.05252
1.06178
1.08317
1.11137
1.08678
1.0588
1.02071
1.03552
1.03534
1.02666
1.0021
1.02921
1.04894
1.04425
1.03118
1.03009
1.03801
1.03419
1.0514
1.11186
1.0215
1.04326
1.02892
1.05664
1.15059
1.03185
1.16754
1.13991
1.05299
1.0875
0.95628
0.969764
1.12013
1.21837
1.24216
1.28004
1.24786
1.23769
1.25693
1.1615
1.11773
1.28714
1.30093
1.21444
1.12956
1.13301
1.15926
1.1718
1.20124
1.16066
1.15919
1.16476
1.17399
1.17729
1.17591
1.17736
1.17684
1.17612
1.17347
1.16907
1.1635
1.16435
1.16969
1.16536
1.16445
1.16509
1.16403
1.16233
1.1627
1.16236
1.16252
1.16371
1.16531
1.1678
1.17212
1.17514
1.17975
1.1823
1.18452
1.18436
1.18293
1.18084
1.18004
1.17801
1.17332
1.16801
1.16289
1.158
1.15117
1.1433
1.1382
1.135
1.13002
1.12314
1.11948
1.12068
1.12305
1.12712
1.13487
1.14376
1.15061
1.15598
1.15854
1.15908
1.15801
1.15567
1.15492
1.15185
1.14482
1.13882
1.13215
1.12514
1.11883
1.11188
1.10409
1.09768
1.08801
1.07818
1.07782
1.08653
1.10692
1.13138
1.14236
1.14945
1.14774
1.13417
1.1126
1.11313
1.09682
1.09355
1.09774
1.07876
1.10668
1.0713
1.08476
1.06057
1.07654
1.07118
1.10194
1.06662
1.06068
1.06924
1.07493
1.08468
1.0613
1.08666
1.07586
1.08021
1.07579
1.04112
1.03337
1.04656
1.01812
1.02242
1.05135
1.12025
1.17351
1.17436
1.15537
1.14402
1.15594
1.15686
1.13162
1.10986
1.11297
1.11766
1.08659
1.05495
1.04562
1.0355
1.01673
1.0121
1.03577
1.00586
1.00739
0.986038
1.00679
1.03893
1.0549
1.05108
1.03264
1.03585
1.06283
1.09994
1.08641
1.05162
1.01106
1.02584
1.02669
1.02449
1.00413
1.0578
1.08022
1.07017
1.03692
1.01818
1.0377
1.04847
1.06541
1.10127
1.03582
1.03807
1.03941
1.06746
1.14724
1.03401
1.1566
1.116
0.990706
1.05112
1.0324
0.933181
1.06041
1.16662
1.21098
1.27427
1.26807
1.24309
1.26937
1.18927
1.1064
1.25404
1.2974
1.23079
1.14186
1.1334
1.15806
1.12588
1.26738
1.16424
1.16238
1.16616
1.17348
1.18118
1.18236
1.18279
1.18055
1.18015
1.17759
1.17281
1.16958
1.16475
1.16633
1.16633
1.16396
1.16455
1.16724
1.16788
1.16875
1.16935
1.1711
1.17265
1.17513
1.17846
1.18264
1.18577
1.18909
1.19086
1.19135
1.1886
1.18434
1.17906
1.1744
1.17069
1.16476
1.15569
1.14794
1.145
1.14204
1.1364
1.13079
1.12942
1.1314
1.13426
1.1385
1.14453
1.15125
1.15818
1.16411
1.16979
1.17159
1.1693
1.16516
1.15826
1.15246
1.15033
1.14998
1.14823
1.14429
1.14481
1.14503
1.14569
1.1465
1.14699
1.14036
1.12943
1.1232
1.11549
1.10198
1.09383
1.07662
1.07614
1.08973
1.10355
1.11044
1.12657
1.12421
1.11738
1.12305
1.10245
1.11194
1.07966
1.09705
1.07775
1.06557
1.05881
1.08179
1.07147
1.07844
1.07774