/*--------------------------------*- C++ -*----------------------------------*\
| =========                 |                                                 |
| \\      /  F ield         | OpenFOAM: The Open Source CFD Toolbox           |
|  \\    /   O peration     | Version:  dev                                   |
|   \\  /    A nd           | Web:      http://www.openfoam.org               |
|    \\/     M anipulation  |                                                 |
\*---------------------------------------------------------------------------*/
FoamFile
{
    version     2.0;
    format      ascii;
    class       volScalarField;
    object      rho_0;
    location    "9.141";
}
// * * * * * * * * * * * * * * * * * * * * * * * * * * * * * * * * * * * * * //

dimensions      [1 -3 0 0 0 0 0];

internalField   nonuniform List<scalar> 
12225
(
1.12501
1.13228
1.13336
1.13322
1.13393
1.13367
1.13418
1.13477
1.13529
1.13674
1.13781
1.13976
1.14129
1.14334
1.14611
1.14676
1.14985
1.14174
1.13021
1.14001
1.1413
1.14284
1.1435
1.14536
1.14465
1.14733
1.14575
1.14856
1.1482
1.14989
1.15099
1.15191
1.15505
1.15441
1.15489
1.15235
1.12984
1.13982
1.14114
1.14324
1.14423
1.14673
1.14668
1.14986
1.14933
1.15121
1.15345
1.15258
1.15628
1.15629
1.15916
1.16052
1.16141
1.1634
1.12946
1.13914
1.14107
1.14227
1.14412
1.14528
1.14715
1.1481
1.15044
1.14994
1.15514
1.15263
1.15814
1.15529
1.16296
1.16004
1.16262
1.16686
1.12934
1.13789
1.1409
1.14115
1.14338
1.14406
1.14658
1.14684
1.14894
1.14985
1.15355
1.15303
1.15677
1.15646
1.16229
1.1611
1.16329
1.16724
1.1287
1.13624
1.13977
1.13993
1.14322
1.14394
1.146
1.14518
1.1483
1.14972
1.15248
1.15249
1.15492
1.15606
1.16055
1.16161
1.16233
1.16476
1.12838
1.13486
1.13827
1.13813
1.14162
1.14149
1.14372
1.14307
1.14743
1.14879
1.15119
1.15141
1.1518
1.15372
1.15846
1.16063
1.16213
1.1624
1.12715
1.13398
1.13717
1.13616
1.14022
1.13876
1.14191
1.14025
1.14563
1.14623
1.14922
1.14868
1.14946
1.15027
1.15494
1.15794
1.1599
1.16079
1.12601
1.13204
1.13584
1.13421
1.13896
1.13676
1.14037
1.13859
1.14431
1.14492
1.14787
1.14509
1.14771
1.14924
1.15414
1.15438
1.15842
1.1587
1.1247
1.12935
1.13427
1.13194
1.13644
1.13446
1.13761
1.13652
1.14211
1.14233
1.1447
1.14256
1.14567
1.14768
1.15233
1.15294
1.15512
1.15564
1.12161
1.12676
1.13106
1.12899
1.13281
1.13177
1.13437
1.13378
1.13826
1.13815
1.14032
1.13983
1.14232
1.14433
1.14762
1.14875
1.15014
1.1517
1.118
1.12387
1.12696
1.12558
1.12849
1.1281
1.12992
1.12942
1.13253
1.1329
1.13487
1.13615
1.13798
1.13969
1.14153
1.14327
1.14488
1.14652
1.11382
1.11975
1.12143
1.12059
1.12245
1.12251
1.12373
1.12402
1.12607
1.1268
1.1285
1.13013
1.13153
1.13344
1.135
1.13638
1.13786
1.13958
1.10833
1.11423
1.11462
1.1142
1.11513
1.11533
1.11635
1.11732
1.1184
1.11913
1.12073
1.12246
1.12385
1.12577
1.12716
1.12867
1.13027
1.13193
1.10097
1.10715
1.10677
1.10637
1.10651
1.10662
1.1076
1.10862
1.10909
1.1101
1.11183
1.11324
1.11461
1.11645
1.11772
1.11939
1.12113
1.12277
1.09277
1.09804
1.09724
1.09688
1.09675
1.09694
1.09795
1.09854
1.09877
1.10015
1.10181
1.10291
1.10443
1.10611
1.1075
1.10946
1.11121
1.11302
1.08257
1.08709
1.08608
1.08569
1.08548
1.08591
1.08667
1.08687
1.08775
1.08935
1.09062
1.09191
1.09364
1.09521
1.09694
1.09906
1.10076
1.10279
1.0716
1.0758
1.07506
1.07482
1.07479
1.07541
1.07592
1.0766
1.07815
1.07939
1.08079
1.08251
1.08433
1.08632
1.08833
1.09042
1.09239
1.0944
1.06128
1.06572
1.06548
1.06536
1.06559
1.06648
1.06765
1.06932
1.07069
1.07216
1.0742
1.07582
1.07794
1.08025
1.08226
1.08457
1.08682
1.08879
1.05376
1.05813
1.05777
1.05798
1.05846
1.06022
1.06237
1.06352
1.0651
1.06784
1.0698
1.07167
1.07418
1.07633
1.0786
1.08099
1.08357
1.08547
1.04755
1.05168
1.05165
1.05286
1.05369
1.05649
1.05835
1.05865
1.06156
1.06466
1.06697
1.06931
1.07186
1.07442
1.07642
1.07919
1.08172
1.08349
1.04295
1.04588
1.04746
1.05001
1.05057
1.05291
1.05497
1.05537
1.05873
1.06265
1.06511
1.06778
1.07093
1.07305
1.07536
1.07825
1.08017
1.08281
1.03897
1.04207
1.04448
1.04774
1.04892
1.04981
1.05175
1.0541
1.05793
1.06126
1.06318
1.06685
1.06929
1.07146
1.07507
1.07672
1.07977
1.08271
1.03635
1.04037
1.04079
1.04429
1.04771
1.04744
1.04912
1.05493
1.05733
1.05874
1.06297
1.06543
1.0677
1.07143
1.07406
1.0763
1.07991
1.0821
1.03421
1.03885
1.03966
1.04228
1.0453
1.04702
1.04969
1.05371
1.05599
1.05786
1.06213
1.06484
1.06714
1.07132
1.07339
1.07617
1.07973
1.08131
1.03246
1.0373
1.03926
1.04107
1.04342
1.04664
1.04943
1.0521
1.05529
1.0583
1.0615
1.06479
1.0674
1.07063
1.0737
1.07606
1.07938
1.08181
1.03198
1.03667
1.03806
1.04047
1.0431
1.04567
1.04851
1.05159
1.05477
1.05792
1.06102
1.06412
1.06729
1.07033
1.0734
1.07638
1.07921
1.08199
1.03117
1.03604
1.03767
1.04001
1.04266
1.0455
1.04853
1.05166
1.05483
1.05799
1.06117
1.06431
1.06744
1.0705
1.07351
1.07637
1.07916
1.08178
1.03106
1.03594
1.03747
1.03976
1.0424
1.04525
1.04822
1.05125
1.05429
1.05732
1.06032
1.06326
1.06613
1.06889
1.07162
1.07422
1.07684
1.07921
1.02925
1.03395
1.03506
1.03677
1.03888
1.04119
1.04362
1.04615
1.04875
1.0514
1.05409
1.0568
1.0595
1.06218
1.06484
1.06746
1.07001
1.07243
1.16889
1.18685
1.18315
1.18613
1.18508
1.18568
1.18517
1.1849
1.18422
1.18325
1.182
1.1808
1.17974
1.17831
1.17694
1.17769
1.17922
1.17994
1.18023
1.1794
1.17799
1.17725
1.17684
1.17454
1.17394
1.17362
1.16859
1.16615
1.15666
1.14207
1.14135
1.14773
1.15367
1.15815
1.16236
1.16637
1.16879
1.16799
1.16228
1.15536
1.15399
1.15442
1.1494
1.1378
1.12714
1.12016
1.11586
1.11342
1.11229
1.11196
1.11194
1.11196
1.11194
1.11186
1.11165
1.11124
1.11067
1.11015
1.10994
1.11015
1.11087
1.11159
1.11195
1.11199
1.11197
1.11154
1.11089
1.11003
1.10902
1.10774
1.10631
1.10493
1.10367
1.10251
1.10147
1.10071
1.10049
1.10103
1.10234
1.1042
1.10618
1.10786
1.10904
1.10967
1.10998
1.11021
1.1102
1.11009
1.10919
1.10856
1.10897
1.11051
1.11297
1.11429
1.11392
1.11032
1.10537
1.10078
1.10444
1.10497
1.10511
1.10317
1.09765
1.09477
1.09258
1.08641
1.07984
1.08349
1.1063
1.13648
1.15259
1.15437
1.15037
1.13604
1.11743
1.10403
1.09493
1.09289
1.07941
1.07088
1.06378
1.06136
1.07291
1.08044
1.08023
1.08245
1.08572
1.08934
1.09258
1.09363
1.10116
1.11477
1.11938
1.08893
1.06304
1.05764
1.05816
1.04876
1.04368
1.05145
1.05514
1.03484
1.03495
1.03439
1.05079
1.04932
1.04247
1.0394
1.037
1.03742
1.03773
1.04088
1.04154
1.0465
1.04354
1.04621
1.04439
1.04885
1.04436
1.04752
1.04247
1.04506
1.07488
1.08406
1.04323
1.00613
1.01281
1.02286
1.05417
1.07169
1.0333
1.01834
1.01578
1.02265
1.03424
1.03305
1.02264
1.01557
1.00987
1.00965
1.16554
1.19253
1.18745
1.18539
1.18592
1.1855
1.18306
1.17988
1.17579
1.17125
1.16674
1.16232
1.16116
1.16189
1.15662
1.15492
1.16287
1.16784
1.17408
1.17355
1.17086
1.17884
1.17108
1.17259
1.18553
1.16898
1.18044
1.19302
1.16671
1.18034
1.18862
1.1677
1.16307
1.16199
1.16771
1.18646
1.2102
1.22565
1.22995
1.21751
1.19086
1.18995
1.21798
1.21208
1.16343
1.12503
1.11439
1.11558
1.11868
1.1216
1.12411
1.12711
1.13163
1.13726
1.14141
1.14258
1.14222
1.14209
1.14222
1.1418
1.14073
1.13825
1.13433
1.12987
1.12541
1.12125
1.11775
1.1146
1.11201
1.10978
1.10794
1.10619
1.10482
1.10429
1.10509
1.10738
1.11107
1.11577
1.121
1.12652
1.13214
1.13788
1.14308
1.14625
1.14691
1.14581
1.14466
1.14605
1.15433
1.1646
1.17358
1.17227
1.16424
1.1605
1.13802
1.11044
1.08047
1.06065
1.08388
1.09407
1.09929
1.11187
1.11723
1.13243
1.15355
1.15593
1.15458
1.14171
1.12828
1.16823
1.23822
1.25476
1.24069
1.23281
1.2091
1.16854
1.13676
1.12171
1.09305
1.08257
1.09888
1.1182
1.12673
1.11991
1.12833
1.13492
1.12951
1.11163
1.0888
1.0946
1.12853
1.14028
1.16212
1.13804
1.10696
1.08432
1.08658
1.07152
1.06668
1.09436
1.10018
1.02752
1.00509
1.01
1.05665
1.08458
1.07642
1.0674
1.0555
1.05459
1.06198
1.08294
1.08558
1.10785
1.11362
1.13182
1.13415
1.1483
1.14607
1.15954
1.15151
1.16026
1.22899
1.23866
1.15606
1.0984
1.1205
1.15642
1.20828
1.21158
1.1506
1.11297
1.11589
1.13668
1.15832
1.13906
1.10573
1.07641
1.05356
1.04789
1.15513
1.18518
1.18242
1.17758
1.1783
1.1763
1.16949
1.16104
1.15311
1.1464
1.14292
1.13794
1.13304
1.1368
1.13806
1.12545
1.13443
1.14681
1.14205
1.15041
1.15171
1.14737
1.15566
1.15729
1.15497
1.16931
1.16815
1.15256
1.18344
1.18147
1.15242
1.17611
1.18065
1.17778
1.18401
1.18779
1.19621
1.18861
1.18401
1.18886
1.17557
1.15383
1.14497
1.14216
1.13703
1.13467
1.13765
1.14265
1.1477
1.15136
1.15293
1.15209
1.14964
1.14717
1.14463
1.1413
1.13732
1.13331
1.12968
1.12589
1.12143
1.11597
1.11066
1.10634
1.10286
1.09935
1.09554
1.09208
1.08957
1.08789
1.08687
1.08609
1.08619
1.08692
1.08834
1.08945
1.0894
1.08838
1.08723
1.08725
1.08839
1.09057
1.09208
1.09119
1.08828
1.08514
1.08532
1.09164
1.10727
1.1225
1.13518
1.13067
1.11087
1.09841
1.06035
1.02271
0.997375
0.989058
1.00857
1.02267
1.02783
1.0446
1.06106
1.07096
1.10058
1.09953
1.12106
1.18029
1.17801
1.17959
1.227
1.23546
1.20637
1.18163
1.15802
1.13809
1.1329
1.12312
1.10761
1.11447
1.13341
1.1425
1.13431
1.12558
1.13387
1.12867
1.11463
1.07354
1.04777
1.09277
1.12623
1.10576
1.12733
1.13029
1.10405
1.09353
1.12128
1.06737
1.05129
1.08029
1.10461
1.11818
1.01618
1.00775
1.02836
1.09368
1.09814
1.0683
1.02779
1.01415
1.02356
1.06274
1.08174
1.10967
1.12906
1.15292
1.16983
1.1964
1.19853
1.20406
1.20051
1.23304
1.28301
1.21278
1.13982
1.0834
1.14036
1.19795
1.24065
1.17226
1.22432
1.18007
1.19587
1.22232
1.2222
1.1746
1.13021
1.09041
1.06865
1.0715
1.14664
1.17033
1.17276
1.17597
1.17922
1.17274
1.16073
1.15025
1.14282
1.13731
1.13657
1.13859
1.13999
1.13743
1.14223
1.13706
1.13092
1.14348
1.1373
1.13709
1.14668
1.13889
1.14749
1.16241
1.16215
1.16833
1.17467
1.17524
1.16116
1.16768
1.2061
1.1829
1.17761
1.19507
1.16008
1.17622
1.21907
1.20062
1.16061
1.15032
1.14714
1.13972
1.13914
1.14396
1.14974
1.15351
1.15483
1.1555
1.15784
1.16076
1.16054
1.15522
1.14732
1.14047
1.13621
1.13418
1.13309
1.13143
1.12769
1.12257
1.11828
1.11552
1.11436
1.11419
1.11464
1.11552
1.11625
1.11625
1.11587
1.11542
1.11491
1.11373
1.11218
1.11003
1.10714
1.10299
1.09699
1.08976
1.0824
1.07671
1.07237
1.06875
1.06545
1.06279
1.06132
1.06068
1.06016
1.06101
1.06415
1.06611
1.07104
1.07041
1.0605
1.05384
1.04319
1.02712
1.03806
1.05137
1.04348
1.05772
1.07881
1.08063
1.08495
1.07476
1.08211
1.07201
1.0689
1.11422
1.14186
1.15804
1.18753
1.21924
1.22786
1.198
1.15783
1.13435
1.13185
1.12619
1.11561
1.12489
1.13914
1.14306
1.11624
1.10003
1.10586
1.10347
1.1159
1.08029
1.05986
1.11659
1.09906
1.09112
1.12147
1.14176
1.10454
1.10733
1.10842
1.08248
1.04549
1.04276
1.05039
1.12945
1.09348
1.08299
1.04117
1.08804
1.10917
1.07104
1.01635
0.994746
0.988039
1.02542
1.05109
1.09404
1.11264
1.15277
1.17005
1.20389
1.24059
1.22312
1.2205
1.27452
1.31087
1.19313
1.14857
1.09419
1.25576
1.22233
1.22368
1.12196
1.26007
1.23707
1.26143
1.28137
1.23431
1.16379
1.12563
1.09263
1.08128
1.09377
1.14312
1.15875
1.16865
1.17621
1.17446
1.16545
1.15455
1.14657
1.1419
1.13899
1.13945
1.1385
1.13961
1.143
1.14468
1.14373
1.13873
1.14354
1.13895
1.13273
1.13894
1.13982
1.15341
1.17681
1.18762
1.19593
1.19699
1.19117
1.18744
1.17651
1.14793
1.15672
1.19218
1.17306
1.17509
1.19502
1.16941
1.14781
1.14265
1.14501
1.14935
1.15279
1.15534
1.15566
1.15257
1.14694
1.14162
1.1404
1.14509
1.15186
1.15563
1.15377
1.1468
1.13763
1.12985
1.12646
1.12725
1.12895
1.12866
1.12559
1.12184
1.11935
1.1184
1.11774
1.11683
1.11598
1.11487
1.11289
1.11024
1.10763
1.10597
1.10518
1.10419
1.10232
1.09968
1.09662
1.09356
1.09124
1.09014
1.08996
1.08939
1.08722
1.08302
1.07771
1.07225
1.06856
1.06523
1.06059
1.05935
1.05463
1.0525
1.05087
1.05037
1.04752
1.04637
1.04352
1.07427
1.08645
1.05993
1.05777
1.08997
1.10583
1.09925
1.0895
1.10209
1.11336
1.0843
1.08208
1.12071
1.15394
1.17738
1.20299
1.20847
1.18821
1.15458
1.1297
1.11952
1.11177
1.10278
1.10991
1.13283
1.13777
1.09673
1.06981
1.05886
1.07156
1.11575
1.06615
1.04841
1.09258
1.06964
1.0853
1.11088
1.13209
1.12488
1.09172
1.06394
1.1175
1.08656
1.05441
1.06109
1.05725
1.10471
1.06674
1.03141
1.07157
1.10567
1.07039
1.02969
1.01796
0.99917
1.03482
1.04371
1.09785
1.10287
1.14042
1.18158
1.18722
1.24711
1.21936
1.22105
1.30051
1.33544
1.198
1.16994
1.19287
1.30345
1.28157
1.28312
1.1184
1.20539
1.25739
1.30385
1.31241
1.22545
1.14631
1.11914
1.09552
1.09241
1.10746
1.14348
1.15542
1.16815
1.17309
1.17024
1.16335
1.15439
1.14673
1.1429
1.14093
1.141
1.14563
1.14973
1.14977
1.14731
1.14643
1.14451
1.14437
1.14462
1.13883
1.13766
1.15909
1.1964
1.20522
1.18774
1.19725
1.21922
1.20432
1.17047
1.16772
1.18576
1.18849
1.15961
1.15889
1.18797
1.17928
1.15057
1.13897
1.13812
1.1388
1.13974
1.14297
1.14931
1.15759
1.16383
1.16425
1.15876
1.15069
1.14433
1.14103
1.13941
1.13718
1.13356
1.12918
1.12565
1.12342
1.12178
1.12045
1.11969
1.11875
1.11762
1.11701
1.11721
1.1172
1.11618
1.11462
1.11346
1.11217
1.10968
1.10588
1.10211
1.09888
1.09617
1.09389
1.09231
1.09164
1.09133
1.09069
1.09008
1.08967
1.08935
1.08936
1.08881
1.08699
1.08269
1.07859
1.07593
1.06798
1.06798
1.06218
1.05837
1.05542
1.05171
1.05223
1.04921
1.04413
1.07348
1.09417
1.06174
1.02611
1.02813
1.06305
1.08053
1.10029
1.14317
1.16161
1.11915
1.09443
1.11631
1.13853
1.15914
1.17654
1.17769
1.17385
1.15163
1.12273
1.11048
1.11193
1.11468
1.13021
1.15857
1.14159
1.08385
1.04465
1.02333
1.06103
1.09958
1.0601
1.07058
1.09202
1.07449
1.06858
1.08674
1.08497
1.12883
1.09686
1.08523
1.1658
1.14563
1.08421
1.094
1.06484
1.09987
1.07183
1.04273
1.04129
1.06604
1.07096
1.05865
1.0267
1.05074
1.05477
1.06616
1.08604
1.10014
1.09737
1.19403
1.1697
1.20087
1.1821
1.17884
1.30393
1.34769
1.21322
1.18482
1.28647
1.18763
1.31035
1.29344
1.09791
1.12086
1.25293
1.32837
1.3229
1.21255
1.13573
1.1209
1.10429
1.10727
1.12849
1.14516
1.15449
1.16503
1.16828
1.16315
1.15492
1.14803
1.14373
1.1419
1.14524
1.14895
1.14969
1.15104
1.15533
1.15242
1.14652
1.14946
1.14589
1.13812
1.14721
1.1712
1.19036
1.19349
1.17957
1.16593
1.18097
1.2103
1.22547
1.23126
1.21953
1.18075
1.15923
1.17373
1.20295
1.20029
1.17093
1.15139
1.14857
1.15081
1.15046
1.14765
1.14506
1.14489
1.1483
1.15429
1.1588
1.15862
1.15332
1.14516
1.13625
1.12786
1.12179
1.12023
1.12228
1.12496
1.12523
1.12376
1.12243
1.12191
1.12213
1.12302
1.12474
1.12638
1.12662
1.12519
1.12281
1.12038
1.11814
1.11556
1.11216
1.10808
1.10509
1.10293
1.10001
1.09618
1.09229
1.08917
1.08652
1.08336
1.07992
1.07752
1.07532
1.07184
1.06936
1.06734
1.06856
1.06791
1.06399
1.06561
1.06706
1.06424
1.06739
1.06414
1.06222
1.07368
1.06052
1.04821
1.08045
1.08237
1.04457
1.01573
1.02003
1.04492
1.07798
1.12154
1.12973
1.1181
1.11015
1.10886
1.11577
1.13224
1.15208
1.16169
1.16436
1.14558
1.11509
1.10658
1.11842
1.12421
1.1292
1.13038
1.09728
1.05277
1.03103
1.02494
1.06771
1.08277
1.06953
1.07435
1.06744
1.04678
1.06154
1.09598
1.08093
1.08955
1.17482
1.13774
1.21228
1.17013
1.11069
1.09297
1.08994
1.10896
1.06642
1.0632
1.06933
1.04845
1.06889
1.07513
1.00803
1.09818
1.05381
1.07735
1.04325
1.08435
1.04878
1.19054
1.15559
1.13454
1.16832
1.1297
1.27635
1.33284
1.2339
1.19122
1.31273
1.14537
1.27103
1.26131
1.10145
1.08171
1.23871
1.33704
1.32491
1.20141
1.12997
1.12724
1.12103
1.12861
1.14572
1.14702
1.1527
1.15949
1.15598
1.14804
1.14449
1.14444
1.14739
1.14979
1.15397
1.1593
1.16383
1.16187
1.15604
1.14989
1.14499
1.14779
1.1492
1.1534
1.17598
1.20177
1.20699
1.19428
1.18239
1.18971
1.21341
1.23177
1.23147
1.21184
1.18265
1.17202
1.18954
1.20163
1.18826
1.16731
1.154
1.14978
1.14887
1.1476
1.14754
1.15073
1.15696
1.16541
1.17253
1.17542
1.17235
1.16465
1.15512
1.14518
1.13467
1.12388
1.11558
1.11323
1.11578
1.11996
1.12316
1.12513
1.1263
1.1263
1.12608
1.12623
1.12612
1.12472
1.12233
1.11975
1.11699
1.11366
1.10993
1.10639
1.10294
1.09976
1.09659
1.09409
1.0931
1.09239
1.09112
1.08974
1.08951
1.08839
1.08645
1.08542
1.08366
1.07972
1.07608
1.06954
1.06857
1.05875
1.05545
1.05197
1.05082
1.05177
1.05016
1.05138
1.03507
1.04989
1.06355
1.02074
1.03464
1.07408
1.0704
1.05418
1.04209
1.05566
1.07334
1.09484
1.0847
1.0881
1.11121
1.11447
1.11586
1.12222
1.14126
1.15898
1.15929
1.13852
1.11191
1.10823
1.12442
1.11959
1.1042
1.08586
1.06077
1.04289
1.03634
1.03414
1.05821
1.0673
1.06083
1.05657
1.05274
1.02943
1.05117
1.06889
1.1257
1.06044
1.14558
1.12044
1.15938
1.11133
1.13893
1.11226
1.08072
1.11312
1.07433
1.03328
1.06242
1.05032
1.07509
1.08661
0.996995
1.10687
1.05258
1.0881
1.01101
1.06964
1.02415
1.18122
1.16272
1.09272
1.16423
1.11205
1.26546
1.31336
1.24969
1.19296
1.30579
1.17665
1.24169
1.24363
1.11006
1.0775
1.23306
1.33823
1.32217
1.19232
1.12672
1.13639
1.13461
1.14497
1.15213
1.14878
1.14962
1.14978
1.14595
1.14474
1.14984
1.15443
1.15904
1.16126
1.16401
1.16672
1.1649
1.15951
1.15315
1.14786
1.14997
1.15971
1.16908
1.17848
1.19951
1.21423
1.2052
1.18496
1.1764
1.18845
1.20222
1.20492
1.19995
1.19199
1.19114
1.19917
1.19561
1.17748
1.15921
1.14736
1.14165
1.13987
1.13959
1.14038
1.14202
1.14453
1.14843
1.15379
1.15948
1.16378
1.16557
1.16362
1.15771
1.1482
1.13757
1.12808
1.12281
1.1219
1.12367
1.12587
1.12728
1.12757
1.12723
1.12698
1.12719
1.12732
1.12544
1.12124
1.1155
1.11015
1.10478
1.09871
1.09186
1.08631
1.08381
1.08312
1.08161
1.08046
1.08095
1.08187
1.08399
1.08682
1.08978
1.09208
1.0945
1.09618
1.094
1.09322
1.0957
1.09255
1.0934
1.09026
1.08384
1.07927
1.06354
1.06088
1.05051
1.04322
1.02489
1.004
1.047
1.03828
1.02795
1.06426
1.0727
1.05365
1.03706
1.06252
1.09951
1.11584
1.10509
1.10539
1.13343
1.13666
1.129
1.1216
1.13936
1.15851
1.15737
1.13485
1.11431
1.11705
1.1244
1.10908
1.08472
1.06118
1.04469
1.04753
1.04912
1.02577
1.02602
1.04707
1.04245
1.05421
1.04787
1.02647
1.06436
1.06919
1.1366
1.08281
1.05343
1.05478
1.07177
1.03571
1.11778
1.1088
1.08621
1.07237
1.07577
1.04695
1.06809
1.06366
1.05636
1.09376
1.01334
1.099
1.05317
1.10001
1.00521
1.06162
1.02186
1.15307
1.16438
1.09144
1.13926
1.11081
1.25849
1.30447
1.26311
1.19305
1.27873
1.20398
1.22934
1.22045
1.12239
1.0679
1.2348
1.33966
1.31742
1.18728
1.12485
1.14439
1.14994
1.15712
1.15547
1.151
1.14833
1.1471
1.15163
1.15857
1.16542
1.16739
1.16603
1.16697
1.16765
1.16831
1.16829
1.16261
1.15798
1.16024
1.16859
1.17757
1.18749
1.1992
1.21267
1.21428
1.20391
1.18938
1.18066
1.18717
1.19936
1.20624
1.20863
1.20696
1.19968
1.18336
1.16107
1.143
1.13343
1.12909
1.12814
1.12807
1.12775
1.12711
1.12644
1.12714
1.12968
1.13234
1.13414
1.13476
1.13412
1.1317
1.12775
1.1225
1.1182
1.11589
1.11558
1.11605
1.11643
1.11674
1.1177
1.11992
1.12264
1.12502
1.12611
1.1257
1.12374
1.1197
1.11254
1.10445
1.09657
1.08899
1.08366
1.08211
1.08453
1.08752
1.09169
1.09623
1.10078
1.10612
1.1138
1.12032
1.12054
1.11654
1.11137
1.10573
1.0972
1.0923
1.09187
1.09134
1.08784
1.09293
1.09529
1.09551
1.09315
1.09084
1.08284
1.06161
1.06675
1.02731
1.0346
1.05376
1.02873
1.04082
1.06058
1.05052
1.02185
1.02056
1.05719
1.07837
1.09975
1.13205
1.16279
1.15368
1.13534
1.12019
1.13849
1.161
1.15563
1.13183
1.12427
1.12871
1.13026
1.11001
1.07469
1.04883
1.02612
1.02093
1.01888
0.987358
0.986287
1.02144
1.04393
1.05994
1.07043
1.04116
1.0678
1.10054
1.10781
1.13725
1.09088
1.04393
1.03437
1.02184
1.13974
1.07109
1.07606
1.04118
1.05048
1.01869
1.03861
1.08992
1.06173
1.1406
1.02022
1.10076
1.05946
1.10479
1.01245
1.05291
1.03297
1.12835
1.16296
1.1145
1.1114
1.10041
1.23328
1.29326
1.27807
1.19996
1.24335
1.20626
1.22706
1.21869
1.1396
1.06894
1.24627
1.33901
1.31094
1.18415
1.12265
1.14821
1.15616
1.15668
1.14861
1.1547
1.15176
1.15617
1.16641
1.17194
1.17084
1.17043
1.16758
1.168
1.16988
1.16942
1.1726
1.16991
1.1659
1.17366
1.18306
1.18965
1.19802
1.20784
1.2159
1.21661
1.21519
1.2135
1.21081
1.21378
1.21868
1.21525
1.20462
1.18883
1.16918
1.14878
1.13327
1.12599
1.1227
1.12118
1.12002
1.11956
1.11966
1.12019
1.12164
1.12415
1.1264
1.12795
1.12917
1.12936
1.12837
1.1268
1.12426
1.12117
1.11822
1.11574
1.11387
1.1135
1.11599
1.12124
1.12546
1.12743
1.1287
1.12874
1.12891
1.1302
1.12962
1.12379
1.11605
1.1046
1.09386
1.0881
1.08673
1.09076
1.09632
1.10106
1.10885
1.11857
1.12362
1.12436
1.12179
1.11365
1.10041
1.0861
1.07351
1.06428
1.05823
1.05611
1.05439
1.05427
1.06094
1.05759
1.0735
1.07639
1.08887
1.08985
1.10991
1.08558
1.0968
1.09386
1.03952
1.03467
1.01307
1.01243
1.04843
1.07045
1.05759
1.03572
1.05862
1.07231
1.08583
1.1285
1.15696
1.13802
1.1224
1.11339
1.13714
1.16313
1.15908
1.13185
1.13017
1.14014
1.13542
1.10138
1.06024
1.04357
1.00676
0.988558
0.991082
0.980074
0.987619
1.00182
1.03357
1.04867
1.07565
1.0409
1.0306
1.09185
1.10388
1.13825
1.12712
1.08909
1.04774
1.0216
1.1041
1.0066
1.04257
1.02315
1.06242
0.994164
0.969191
1.08409
1.0931
1.19398
0.998139
1.10468
1.05501
1.10137
1.00747
1.03903
1.03601
1.11711
1.16538
1.12654
1.07209
1.03791
1.23263
1.2853
1.29001
1.21706
1.21358
1.19924
1.21809
1.22657
1.16082
1.06951
1.25068
1.33992
1.30142
1.17715
1.11789
1.14739
1.16131
1.15491
1.14245
1.15929
1.15792
1.16788
1.17844
1.17622
1.17347
1.17386
1.17215
1.17195
1.17465
1.17682
1.18121
1.18134
1.18151
1.18936
1.19518
1.20437
1.21676
1.22515
1.22839
1.22948
1.23126
1.22989
1.22441
1.21959
1.21154
1.19671
1.1798
1.16234
1.14696
1.13679
1.13268
1.13321
1.13412
1.13556
1.13634
1.13629
1.13527
1.1348
1.13483
1.13484
1.13489
1.13481
1.13392
1.13385
1.13549
1.13764
1.13926
1.14037
1.14063
1.14132
1.14301
1.14496
1.14513
1.14316
1.14058
1.13889
1.13841
1.13984
1.14162
1.14035
1.1354
1.12874
1.11815
1.10487
1.09375
1.08857
1.09045
1.09772
1.10845
1.11725
1.12307
1.13168
1.13438
1.12509
1.10993
1.09304
1.07639
1.06667
1.06529
1.0667
1.06774
1.06626
1.06339
1.0549
1.0529
1.04257
1.04184
1.0368
1.05182
1.05063
1.07384
1.08645
1.07468
1.11925
1.07723
1.05238
1.04245
1.0183
1.03956
1.06406
1.05567
1.02619
1.05882
1.0776
1.08875
1.13987
1.14619
1.12256
1.11325
1.11455
1.1418
1.16095
1.15939
1.13259
1.1282
1.13404
1.12142
1.07742
1.03201
1.0164
0.981138
0.974606
0.983207
0.98687
0.995506
0.998926
1.00302
1.06362
1.04009
1.00671
1.02097
1.06916
1.11026
1.14274
1.09858
1.05698
1.0265
1.01552
1.03239
0.992476
1.05355
1.00459
1.06795
1.02024
0.963538
1.05573
1.0958
1.18673
0.993775
1.12348
1.04487
1.08669
0.993723
1.0227
1.03241
1.09873
1.16904
1.16823
1.07753
0.968258
1.18214
1.2541
1.28051
1.24408
1.20795
1.20095
1.20343
1.23168
1.17709
1.07632
1.24005
1.33754
1.29459
1.1762
1.1169
1.14275
1.16502
1.15501
1.13517
1.16397
1.16598
1.17921
1.1828
1.17742
1.18124
1.17926
1.17594
1.17898
1.18238
1.18659
1.18806
1.18898
1.19346
1.20069
1.20829
1.22152
1.22862
1.22944
1.22985
1.22703
1.22283
1.21484
1.20495
1.1945
1.18167
1.16758
1.15596
1.14698
1.14295
1.14263
1.14589
1.14904
1.15146
1.1523
1.15178
1.1508
1.15038
1.15093
1.1514
1.15094
1.14799
1.14498
1.14434
1.14336
1.14013
1.13781
1.13751
1.13788
1.1383
1.13953
1.14092
1.14234
1.14374
1.14646
1.15112
1.15422
1.15128
1.14773
1.14253
1.1366
1.13245
1.12383
1.11418
1.10438
1.0949
1.08983
1.09269
1.10232
1.11566
1.1295
1.13653
1.13634
1.13213
1.11713
1.09679
1.08007
1.07188
1.07485
1.08217
1.08335
1.08252
1.08284
1.07619
1.08212
1.07722
1.07678
1.07479
1.0684
1.06009
1.06694
1.04052
1.07629
1.05109
1.0724
1.09189
1.08311
1.08599
1.04222
1.02749
1.04918
1.05712
1.01586
1.03053
1.05255
1.07563
1.12618
1.13248
1.12865
1.1264
1.12529
1.14932
1.1629
1.1508
1.13171
1.12178
1.11745
1.09564
1.05108
1.02207
1.00882
0.977234
0.982849
0.987988
0.99176
1.00344
0.982252
0.997744
1.09534
1.07301
1.02932
1.03982
1.08508
1.10245
1.11615
1.07
1.04203
1.01637
1.01271
1.00378
0.996114
1.05769
1.00338
1.05114
1.00898
0.990609
1.04426
1.07084
1.12906
0.996632
1.12772
1.02901
1.07011
0.992574
1.01181
1.04512
1.07496
1.1596
1.23238
1.1571
0.966546
1.02597
1.22878
1.25985
1.25758
1.21301
1.20901
1.19262
1.23347
1.19542
1.0887
1.21242
1.33489
1.29313
1.17692
1.11326
1.13718
1.15794
1.14998
1.1116
1.16804
1.17144
1.18171
1.1844
1.18388
1.18675
1.18249
1.1796
1.18591
1.18948
1.1914
1.18886
1.19066
1.19674
1.20415
1.20791
1.21227
1.21289
1.21336
1.21073
1.20578
1.19916
1.19043
1.18162
1.17211
1.1634
1.15614
1.1521
1.15087
1.15262
1.15648
1.16045
1.16256
1.16291
1.16167
1.16044
1.16055
1.16054
1.16042
1.15939
1.15813
1.15853
1.15796
1.1518
1.14452
1.14182
1.14028
1.13705
1.13387
1.13147
1.12954
1.12856
1.12775
1.12627
1.12493
1.1233
1.12508
1.13125
1.1414
1.14407
1.13586
1.12846
1.12105
1.11086
1.10221
1.09357
1.08946
1.09284
1.10281
1.11699
1.1304
1.13901
1.13791
1.13144
1.11285
1.08951
1.07707
1.07545
1.07745
1.08317
1.08438
1.06843
1.0636
1.05512
1.05914
1.05333
1.06221
1.05083
1.0674
1.04728
1.07817
1.06388
1.07631
1.08054
1.06316
1.08042
1.06801
1.07446
1.05537
1.01656
1.03064
1.06393
1.03536
1.03914
1.05794
1.07457
1.10312
1.13633
1.14872
1.1513
1.14235
1.15523
1.16901
1.14389
1.1303
1.11888
1.10568
1.07562
1.03828
1.02551
1.01626
0.996565
1.00205
0.998915
0.989473
1.02037
0.975629
1.03812
1.07057
1.07397
1.03648
1.03169
1.07715
1.11312
1.10494
1.07931
1.0573
1.01268
1.00749
1.00787
1.01881
1.04954
1.01822
1.04383
0.995086
1.00645
1.03906
1.04564
1.07421
1.01458
1.12718
1.00856
1.05571
1.00592
1.02892
1.08846
1.05472
1.14848
1.24529
1.21927
1.02615
0.875756
1.16658
1.23837
1.27117
1.24114
1.2388
1.20306
1.23238
1.21691
1.10509
1.17176
1.3231
1.2922
1.18265
1.11305
1.13646
1.15402
1.15081
1.11739
1.17046
1.17136
1.17986
1.1906
1.18678
1.18199
1.18568
1.1848
1.18512
1.18368
1.18395
1.18374
1.18476
1.18883
1.19272
1.19038
1.19333
1.19138
1.19073
1.18707
1.18235
1.17801
1.1721
1.16756
1.16358
1.1611
1.16112
1.16298
1.16751
1.17217
1.17704
1.17926
1.17985
1.1799
1.18001
1.17937
1.17843
1.17652
1.1736
1.17065
1.16744
1.16248
1.15794
1.15725
1.15742
1.15136
1.14104
1.13215
1.12503
1.11983
1.11652
1.11504
1.11299
1.1098
1.10686
1.10727
1.11012
1.11218
1.11139
1.10987
1.11461
1.11779
1.11639
1.11
1.10309
1.09563
1.08948
1.09021
1.09991
1.11331
1.12635
1.14186
1.14795
1.1349
1.11671
1.10003
1.07821
1.06713
1.07406
1.07417
1.07214
1.06027
1.06212
1.05616
1.07372
1.06007
1.0724
1.06324
1.07568
1.07409
1.06023
1.06832
1.04673
1.07501
1.07253
1.09962
1.08568
1.06442
1.07666
1.03844
1.02739
1.05233
1.03073
1.0303
1.04421
1.06957
1.10535
1.15809
1.16484
1.16835
1.15601
1.15829
1.16983
1.14173
1.12756
1.12273
1.10644
1.07099
1.03735
1.02605
1.02165
1.00545
0.997253
0.995233
0.987027
0.982296
0.985326
1.04299
1.06637
1.05401
1.02408
1.02496
1.05413
1.08896
1.1055
1.08528
1.06495
1.01674
1.01838
1.02807
1.03525
1.02923
1.01891
1.03709
1.00662
1.01777
1.03702
1.0347
1.03891
1.03492
1.11928
0.999077
1.04544
1.0172
1.05368
1.13176
1.03575
1.15974
1.18667
1.15765
1.08212
0.858893
1.05397
1.17895
1.25476
1.25463
1.26829
1.22266
1.22975
1.23479
1.1269
1.13655
1.30499
1.29299
1.19483
1.11713
1.1313
1.15771
1.16085
1.14358
1.17184
1.1709
1.17871
1.18793
1.18424
1.18437
1.19171
1.19039
1.18874
1.18608
1.1833
1.17916
1.18029
1.18468
1.18084
1.17871
1.18036
1.17832
1.1768
1.17518
1.17238
1.17036
1.16958
1.16791
1.16884
1.17063
1.17362
1.17855
1.18274
1.18657
1.18884
1.18962
1.18941
1.18885
1.18844
1.18823
1.18579
1.18003
1.17413
1.16912
1.164
1.15798
1.15038
1.14174
1.13337
1.12614
1.11909
1.1141
1.11243
1.11395
1.11659
1.11792
1.11734
1.11832
1.1206
1.12068
1.1163
1.11183
1.11249
1.1125
1.10973
1.10561
1.10194
1.09804
1.09451
1.08997
1.08724
1.08895
1.0948
1.10625
1.1231
1.14011
1.14316
1.14189
1.13343
1.10871
1.09091
1.08027
1.07354
1.06675
1.07774
1.06292
1.0724
1.07645
1.08194
1.09035
1.06369
1.07651
1.05806
1.08189
1.0568
1.08907
1.07012
1.07022
1.05486
1.06463
1.09086
1.07327
1.09095
1.06679
1.03668
1.04959
1.04131
1.02855
1.03294
1.06742
1.12803
1.17853
1.17547
1.17047
1.1582
1.16217
1.16509
1.13904
1.12099
1.12325
1.11903
1.08475
1.05156
1.04052
1.03105
1.01049
1.00889
1.00757
1.00324
0.975378
0.990842
1.00317
1.04236
1.04961
1.05863
1.05407
1.06577
1.08819
1.11229
1.08357
1.0552
1.01862
1.03438
1.0325
1.02207
0.999192
1.0266
1.04344
1.03517
1.02335
1.02332
1.03031
1.02649
1.04593
1.09961
1.00771
1.03373
1.01871
1.04962
1.13827
1.02003
1.1566
1.12359
1.03984
1.0747
0.937054
0.964332
1.11244
1.20653
1.22958
1.26859
1.23713
1.22758
1.24733
1.15176
1.11073
1.27691
1.2927
1.20714
1.12282
1.12673
1.15348
1.16829
1.18891
1.17309
1.1718
1.17703
1.18615
1.19062
1.18938
1.19029
1.18968
1.18903
1.18637
1.18169
1.17594
1.1759
1.18093
1.17682
1.17562
1.17597
1.1752
1.17348
1.1739
1.17372
1.17409
1.17536
1.17719
1.17979
1.18417
1.187
1.1912
1.19315
1.19462
1.19347
1.19112
1.18824
1.18673
1.18379
1.17799
1.1717
1.16612
1.16108
1.15391
1.14584
1.14085
1.13794
1.13333
1.12717
1.12467
1.12694
1.12995
1.13454
1.14241
1.1509
1.15699
1.16145
1.1629
1.16226
1.16027
1.15755
1.15639
1.15232
1.14452
1.13818
1.13108
1.12376
1.11713
1.10973
1.10156
1.09452
1.0842
1.07454
1.07483
1.08427
1.10491
1.12852
1.13849
1.14505
1.14242
1.12777
1.10712
1.10783
1.09084
1.08931
1.09183
1.07547
1.10224
1.06721
1.08269
1.05769
1.07423
1.06892
1.10005
1.06295
1.06118
1.06884
1.07495
1.08324
1.06138
1.08762
1.07602
1.08176
1.07657
1.0422
1.0365
1.04918
1.02235
1.02629
1.05531
1.12488
1.17927
1.18107
1.16265
1.15094
1.16313
1.1644
1.13924
1.1168
1.11958
1.12408
1.09234
1.06031
1.05069
1.03995
1.02046
1.01661
1.03825
1.00842
1.00748
0.988424
1.01035
1.04342
1.05784
1.05208
1.03416
1.03992
1.06801
1.10204
1.08305
1.04677
1.0088
1.02541
1.02418
1.01873
1.00055
1.05517
1.07262
1.05886
1.026
1.01047
1.03094
1.04042
1.05802
1.08848
1.02142
1.02754
1.02868
1.05903
1.13353
1.02134
1.14442
1.1005
0.979625
1.04016
1.01479
0.92456
1.05312
1.15597
1.19918
1.2628
1.25683
1.23239
1.25888
1.17895
1.09847
1.24495
1.28865
1.22271
1.13429
1.12775
1.15278
1.12503
1.25925
1.17422
1.17269
1.17599
1.18256
1.19059
1.19266
1.194
1.19152
1.19094
1.18855
1.18385
1.18072
1.17548
1.17592
1.17611
1.17351
1.17405
1.17668
1.17744
1.17856
1.1794
1.1813
1.18309
1.18549
1.18876
1.19257
1.19547
1.19823
1.19936
1.19908
1.19563
1.19073
1.18495
1.17954
1.17484
1.16801
1.15844
1.15082
1.14806
1.14508
1.13977
1.1346
1.13361
1.1364
1.14037
1.14546
1.1517
1.15847
1.16512
1.17029
1.17468
1.17475
1.17083
1.1655
1.15781
1.1517
1.1495
1.14876
1.14663
1.14268
1.14331
1.14342
1.14405
1.14476
1.14457
1.13706
1.12615
1.12007
1.11186
1.09803
1.08931
1.07223
1.07324
1.08739
1.10054
1.10762
1.12347
1.11988
1.11385
1.11866
1.09865
1.10777
1.07598