/*--------------------------------*- C++ -*----------------------------------*\
| =========                 |                                                 |
| \\      /  F ield         | OpenFOAM: The Open Source CFD Toolbox           |
|  \\    /   O peration     | Version:  dev                                   |
|   \\  /    A nd           | Web:      http://www.openfoam.org               |
|    \\/     M anipulation  |                                                 |
\*---------------------------------------------------------------------------*/
FoamFile
{
    version     2.0;
    format      ascii;
    class       volScalarField;
    object      T;
    location    "9.141";
}
// * * * * * * * * * * * * * * * * * * * * * * * * * * * * * * * * * * * * * //

dimensions      [0 0 0 1 0 0 0];

internalField   nonuniform List<scalar> 
12225
(
304.389
302.746
302.498
302.584
302.472
302.658
302.69
302.795
302.949
302.96
303.121
303.144
303.259
303.269
303.078
303.225
302.111
301.12
303.246
300.854
300.493
300.163
300.04
299.721
300.047
299.66
300.348
300.043
300.588
300.691
300.964
301.242
301.045
301.618
301.577
301.866
303.247
300.8
300.437
299.959
299.753
299.261
299.405
298.908
299.3
299.253
299.12
299.91
299.482
300.075
299.915
300.113
300.365
301.052
303.204
300.846
300.322
300.081
299.655
299.505
299.164
299.222
298.881
299.454
298.522
299.788
298.841
300.213
298.881
300.325
300.172
300.479
303.029
300.971
300.163
300.166
299.647
299.614
299.118
299.34
299.079
299.267
298.732
299.478
299.005
299.728
298.866
300.003
300.008
300.159
302.886
301.1
300.16
300.19
299.394
299.348
298.977
299.48
298.971
299.021
298.757
299.334
299.22
299.57
298.998
299.485
300.116
300.217
302.561
301.019
300.127
300.24
299.398
299.581
299.17
299.632
298.811
298.871
298.718
299.233
299.681
299.819
299.154
299.333
299.829
300.388
302.411
300.765
299.924
300.278
299.288
299.82
299.182
299.902
298.831
299.084
298.792
299.497
299.877
300.284
299.751
299.606
299.991
300.327
302.188
300.762
299.752
300.265
299.106
299.829
299.091
299.826
298.685
298.94
298.682
299.944
299.869
300.074
299.595
300.088
299.904
300.322
301.846
300.767
299.483
300.167
299.09
299.755
299.154
299.717
298.617
298.981
298.882
299.962
299.811
299.846
299.416
299.828
300.04
300.473
301.755
300.52
299.414
300.027
299.15
299.571
299.125
299.576
298.775
299.238
299.182
299.855
299.835
299.916
299.77
300.076
300.463
300.662
301.529
300.066
299.286
299.727
299.101
299.37
299.142
299.583
299.158
299.506
299.511
299.734
299.881
300.063
300.253
300.441
300.707
300.906
301.075
299.561
299.158
299.476
299.142
299.317
299.261
299.518
299.384
299.66
299.743
299.896
300.151
300.295
300.553
300.846
301.12
301.307
300.523
298.954
298.891
299.123
299.055
299.229
299.253
299.355
299.501
299.803
299.934
300.073
300.342
300.494
300.798
301.073
301.316
301.523
299.856
298.177
298.323
298.579
298.75
298.99
299.061
299.188
299.533
299.793
299.914
300.164
300.455
300.644
300.996
301.243
301.461
301.689
298.717
297.24
297.532
297.815
298.102
298.368
298.479
298.769
299.223
299.428
299.603
299.966
300.25
300.507
300.851
301.045
301.282
301.493
297.424
296.062
296.443
296.782
297.145
297.405
297.642
298.103
298.439
298.634
298.962
299.321
299.589
299.913
300.204
300.388
300.674
300.861
295.953
294.611
294.956
295.304
295.679
295.951
296.322
296.718
296.938
297.29
297.641
297.939
298.23
298.488
298.748
298.982
299.241
299.475
294.725
293.255
293.49
293.847
294.204
294.462
294.716
294.901
295.225
295.573
295.801
296.176
296.438
296.655
296.958
297.178
297.401
297.69
293.501
291.96
292.246
292.541
292.877
292.946
292.973
293.355
293.679
293.724
294.016
294.37
294.563
294.861
295.137
295.372
295.541
295.887
292.548
291.038
291.248
291.288
291.564
291.385
291.523
292.191
292.201
292.178
292.411
292.668
292.886
293.104
293.482
293.652
293.861
294.276
291.722
290.533
290.326
290.002
290.361
290.355
290.475
291.134
291.064
290.849
291.069
291.269
291.345
291.707
292.028
292.184
292.588
292.791
291.263
289.979
289.574
289.071
289.246
289.661
289.865
290.003
289.816
289.79
290.187
290.138
290.423
290.806
290.786
291.291
291.422
291.543
290.817
289.236
289.388
288.872
288.437
289.149
289.476
288.693
288.869
289.414
289.202
289.479
289.851
289.816
290.071
290.444
290.426
290.763
290.544
288.801
288.823
288.558
288.281
288.454
288.489
288.219
288.45
288.874
288.678
288.889
289.266
289.123
289.533
289.783
289.776
290.297
290.426
288.636
288.336
288.275
288.206
287.996
287.983
288.092
288.105
288.211
288.308
288.388
288.669
288.802
288.954
289.307
289.392
289.68
290.15
288.392
288.265
288.045
287.891
287.864
287.855
287.85
287.873
287.948
288.071
288.217
288.356
288.535
288.705
288.889
289.106
289.32
290.133
288.315
288.116
287.918
287.765
287.668
287.607
287.591
287.621
287.7
287.807
287.944
288.096
288.274
288.464
288.686
288.914
289.174
290.039
288.213
288.038
287.856
287.706
287.608
287.565
287.58
287.652
287.767
287.923
288.117
288.342
288.6
288.864
289.158
289.433
289.76
290.682
288.98
288.916
288.868
288.844
288.884
288.983
289.127
289.312
289.522
289.753
290.002
290.262
290.532
290.807
291.086
291.369
291.671
286.074
281.741
282.59
281.854
282.08
281.91
281.994
282.021
282.137
282.319
282.568
282.81
283.008
283.283
283.584
283.399
282.975
282.711
282.541
282.623
282.882
283.026
283.005
283.476
283.638
283.509
284.621
285.107
287.007
290.825
291.5
289.97
288.347
287.114
286.004
284.942
284.203
284.142
285.302
287.074
287.573
287.341
288.207
290.898
293.682
295.612
296.819
297.5
297.793
297.832
297.75
297.626
297.498
297.359
297.237
297.144
297.072
296.975
296.775
296.443
295.938
295.386
294.892
294.46
294.013
293.637
293.299
292.987
292.686
292.425
292.177
291.892
291.55
291.158
290.709
290.168
289.465
288.546
287.412
286.131
284.817
283.583
282.481
281.521
280.649
279.803
279.034
278.305
277.78
277.194
276.369
275.296
274.05
273.147
272.731
273.153
273.943
274.624
273.221
272.725
272.364
272.543
273.641
274.116
274.485
275.909
277.427
276.302
270.489
263.331
259.739
259.413
260.392
263.733
268.141
271.403
273.681
274.217
277.654
279.87
281.76
282.361
279.222
277.18
277.071
276.292
275.236
274.065
273.001
272.392
270.125
266.408
264.429
270.941
277.085
278.052
277.16
278.825
279.548
276.775
274.692
279.16
278.431
277.934
272.651
271.651
272.228
271.857
271.249
269.843
268.385
266.091
264.374
261.494
260.537
258.2
256.953
254.166
253.621
251.328
251.103
249.226
241.198
238.257
246.997
255.727
253.963
251.619
244.529
241.427
251.505
256.292
258.29
258.085
256.891
259.022
263.525
267.197
270.507
272.317
287.053
280.556
281.709
282.165
282.028
282.085
282.607
283.305
284.23
285.277
286.329
287.406
287.719
287.41
288.583
289.198
287.325
286.021
284.285
284.095
284.904
282.769
284.346
284.554
280.865
284.661
282.813
278.607
284.85
282.677
279.562
284.125
285.744
286.205
285.238
281.155
275.547
271.551
269.906
271.755
277.886
279.548
273.153
272.386
282.566
293.141
297.161
297.289
296.471
295.595
294.82
293.939
292.661
291.025
289.684
289.086
288.918
288.7
288.384
288.171
288.091
288.331
288.925
289.648
290.354
290.962
291.379
291.68
291.795
291.784
291.644
291.453
291.133
290.567
289.625
288.273
286.549
284.565
282.46
280.3
278.128
275.951
273.941
272.452
271.574
271.103
270.612
269.479
266.748
263.69
261.083
260.863
262.098
262.498
267.381
273.649
280.765
285.212
278.434
275.535
273.904
270.479
268.851
264.992
259.977
259.336
259.526
262.355
265.256
255.971
241.593
238.641
241.456
243.084
247.916
256.486
263.582
267.148
274.199
276.822
272.632
267.911
265.879
267.332
265.122
263.464
264.598
268.662
273.987
271.964
263.417
260.496
254.86
259.212
265.825
270.971
269.816
272.762
273.54
265.988
262.962
280.354
286.242
284.782
271.927
263.092
263.391
264.327
266.147
265.358
262.42
255.892
253.721
247.148
244.215
238.708
236.578
232.093
231.038
226.965
227.205
224.462
210.915
208.398
222.666
234.103
229.445
222.413
213.217
213.601
225.792
234.372
234.88
231.898
229.135
234.775
243.581
251.964
259.122
262.179
289.994
282.573
283.195
284.39
284.222
284.616
286.158
288.164
290.106
291.805
292.67
293.87
295.234
294.344
293.575
296.928
295.164
291.582
292.538
290.512
289.762
290.902
288.996
288.218
289.047
285.639
284.805
289.458
282.501
280.946
288.791
284.04
282.08
282.79
281.215
280.346
278.092
279.343
280.628
279.218
281.558
286.845
289.492
290.292
291.686
292.561
291.947
290.629
289.216
288.114
287.507
287.479
287.863
288.264
288.672
289.277
290.052
290.825
291.472
292.125
292.935
294.001
295.031
295.778
296.268
296.727
297.264
297.666
297.77
297.615
297.251
296.784
296.05
295.117
293.977
292.915
292.155
291.646
291.153
290.337
289.217
287.842
286.678
286.163
286.169
286.192
285.292
282.77
277.985
273.562
269.988
270.658
274.93
277.606
287.192
297.079
303.658
305.131
298.817
294.423
292.532
287.59
282.945
280.18
272.548
272.707
267.328
253.832
254.266
253.825
244.058
242.526
248.427
253.698
258.934
263.435
264.592
266.946
270.646
268.86
264.316
262.285
264.154
265.978
263.874
265.002
268.249
278.259
284.534
272.177
264.038
268.673
262.941
261.203
266.662
269.093
261.462
273.428
277.462
269.618
262.993
257.722
282.054
284.38
279.475
261.747
258.168
263.371
272.611
275.727
272.569
261.277
254.977
247.013
241.145
234.573
229.636
222.962
221.009
218.66
218.128
211.424
202.085
212.948
225.984
237.347
225.521
214.626
208.01
221
212.014
221.1
219.209
215.768
217.452
228.006
238.543
248.911
255.574
256.439
292.732
286.662
286.11
285.413
284.54
285.946
288.803
291.417
293.317
294.779
295.045
294.529
294.026
294.71
293.359
294.319
296.302
292.997
294.089
294.463
291.729
293.569
292.053
288.113
287.88
286.479
284.739
283.95
287.129
287.08
277.11
280.838
283.501
278.434
286.475
284.838
273.957
275.746
285.199
288.692
289.615
291.603
292.023
290.867
289.293
288.137
287.591
287.29
286.628
285.77
285.591
286.648
288.412
289.969
290.88
291.209
291.269
291.425
292.074
293.079
293.874
294.257
294.184
293.805
293.222
292.491
291.769
291.223
290.73
290.222
289.704
289.339
289.043
288.878
288.888
289.224
290.042
291.184
292.349
293.053
293.396
293.553
293.632
293.532
293.111
292.48
291.831
290.828
289.252
288.034
286.058
285.668
287.686
288.856
291.182
294.85
290.697
286.501
288.579
284.326
278.388
277.742
276.635
279.147
277.126
279.561
280.384
269.006
262.416
258.709
252.284
245.749
244.089
250.268
259.008
264.346
264.913
266.272
268.687
266.289
262.982
262.304
268.614
272.24
270.601
270.959
267.795
276.468
281.241
266.594
270.816
272.234
264.428
258.745
266.699
265.697
264.367
269.808
278.703
278.96
277.06
256.592
263.065
264.072
274.87
263.292
255.839
262.425
275.412
280.718
282.172
270.97
262.826
250.886
244.98
234.924
229.801
221.979
213.783
215.337
214.847
204.809
197.964
216.633
224.645
235.313
205.21
210.964
211.266
230.951
206.043
211.016
207.977
206.15
215.805
230.506
239.753
248.576
252.724
251.348
294.443
290.349
287.971
286.076
286.331
288.425
291.112
293.152
294.372
295.165
295.033
295.239
295.005
294.102
293.488
293.464
294.852
293.517
294.294
296.096
294.534
294.581
291.964
286.058
282.786
280.447
279.843
280.881
281.354
283.02
290.235
290.206
280.681
283.865
284.871
279.358
283.857
289.532
291.537
291.159
290.01
289.085
288.348
288.099
288.672
289.919
291.168
291.428
290.137
288.218
286.992
287.163
288.658
290.786
292.635
293.365
292.943
292.198
291.922
292.361
292.987
293.274
293.115
292.83
292.574
292.271
292.001
291.943
292.042
292.09
291.863
291.384
290.931
290.692
290.641
290.687
290.717
290.527
289.995
289.213
288.544
288.313
288.619
289.22
289.869
290.058
290.191
290.704
290.304
290.912
290.807
290.575
290.065
290.221
289.94
289.964
281.024
277.704
284.503
284.864
276.274
271.979
273.359
275.353
271.846
268.955
276.28
277.038
267.521
259.796
254.611
249.234
248.204
252.465
259.84
265.584
267.951
269.801
271.901
269.929
264.488
263.645
273.568
280.181
282.744
278.917
267.821
280.162
284.271
272.644
278.116
273.83
267.155
261.546
261.967
268.973
276.125
262.485
268.224
275.747
273.297
274.238
261.143
268.217
277.515
267.757
257.062
262.944
272.413
274.432
278.911
268.365
264.737
250.151
247.126
237.779
227.786
225.23
212.986
216.232
215.132
201.062
194.591
215.992
220.765
216.505
197.582
201.468
201.863
232.291
216.005
207.682
201.424
201.668
217.808
234.297
241.337
248.113
250.347
248.435
295.321
292.202
289.013
287.671
288.233
289.846
292.049
294.019
295.045
295.588
295.676
294.548
293.334
293.081
293.591
293.717
294.19
294.165
293.809
295.228
296.331
292.1
282.637
278.642
282.234
281.016
275.618
277.633
285.913
287.983
283.697
281.347
287.702
289.856
282.68
282.738
289.487
293.179
293.703
293.441
293.041
292.103
290.403
288.206
286.482
286.153
287.285
289.101
290.504
291.103
291.239
291.543
292.272
293.261
294.034
294.396
294.524
294.538
294.394
294.283
294.206
293.972
293.483
292.997
292.738
292.6
292.33
292.064
292.104
292.451
292.767
292.918
292.912
292.763
292.41
291.796
291.075
290.432
289.778
289.071
288.338
287.527
286.879
286.581
286.931
287.201
287.157
288.506
287.742
288.582
288.915
289.03
289.413
288.681
288.894
289.698
281.605
276.001
284.086
293.769
293.15
283.353
278.345
272.806
262.33
258.251
267.86
273.892
268.651
263.427
258.765
254.994
254.794
255.643
260.617
267.323
270.177
269.788
269.067
265.2
258.791
262.95
277.018
287.112
292.532
281.701
271.862
281.648
278.4
272.914
276.971
278.193
272.924
273.167
261.705
267.96
271.467
252.264
254.302
268.031
265.053
271.765
262.395
267.308
273.801
274.407
267.231
264.1
265.367
272.755
265.55
262.959
258.874
252.609
247.573
247.327
225.921
228.467
221.335
223.381
223.36
200.996
193.143
213.643
218.299
201.193
217.114
197.126
200.787
237.163
232.797
208.551
197.992
200.482
220.505
236.708
241.168
246.383
247.21
244.066
295.986
293.513
290.775
289.789
290.912
292.953
294.767
295.95
296.548
295.791
294.741
294.429
294.1
292.806
293.149
294.666
293.944
294.502
296.709
295.362
289.839
284.52
282.369
284.765
288.874
286.498
279.521
275.507
273.692
274.828
282.956
289.491
287.713
280.276
278.801
285.03
290.604
291.878
291.262
291.098
291.636
292.224
292.248
291.318
289.622
288.179
287.864
288.858
290.631
292.632
294.537
295.924
296.2
295.512
294.573
294.189
294.248
294.269
294.048
293.606
292.965
292.075
291.148
290.545
290.354
290.398
290.437
290.395
290.419
290.653
291.03
291.103
290.93
290.94
291.171
291.405
291.422
291.31
291.33
291.418
291.227
291.004
291.14
291.003
290.745
289.617
289.123
289.405
288.242
287.165
287.215
285.742
286.01
286.058
282.403
285.337
288.74
279.737
278.534
288.074
295.963
294.769
287.518
278.572
267.914
266.229
268.592
270.195
270.56
268.919
265.064
260.542
258.382
257.829
262.116
269.261
271.201
268.306
266.897
265.622
265.414
273.577
285.082
290.725
292.014
280.199
276.224
279.286
277.825
279.31
284.64
280.256
270.95
273.466
272.099
251.159
258.681
242.214
248.735
261.464
265.433
266.002
259.971
268.925
269.821
266.724
271.245
265.393
261.271
278.45
254.631
262.903
255.862
262.82
251.336
259.21
227.195
231.176
234.5
226.485
233.493
205.839
195.701
210.562
217.612
197.544
226.093
203.517
206.202
236.698
241.367
211.163
197.044
200.58
222.942
238.208
240.059
243
242.88
240.758
296.719
295.126
293.237
293.954
295.99
297.068
297.227
296.515
295.892
294.833
293.428
292.042
292.186
293.404
294.861
296.285
295.689
295.384
294.846
289.748
283.057
280.62
282.755
285.849
285.084
279.744
274.676
273.556
276.993
283.886
288.037
284.634
280.651
282.24
286.894
290.687
292.165
292.381
292.545
292.491
291.681
290.103
287.903
285.912
284.841
285.188
286.741
288.847
291.098
293.52
296.095
298.144
298.645
297.753
296.323
295.115
294.218
293.507
293.081
292.704
292.207
291.721
291.526
291.58
291.677
291.799
292.043
292.37
292.636
292.87
293.024
293.135
293.047
292.538
291.931
291.465
291.007
290.233
289.686
289.341
288.75
288.393
288.608
288.747
289.681
289.176
291.104
291.244
291.516
291.276
290.364
290.316
289.535
293.643
289.22
284.755
296.172
291.949
280.682
281.117
285.11
288.349
284.37
279.522
274.293
276.985
275.924
270.01
269.256
269.008
267.571
263.139
259.122
259.115
263.878
270.164
270.957
267.038
268.221
271.913
276.449
282.942
287.669
289.225
289.673
283.132
280.43
281.884
282.67
283.184
289.382
282.942
278.474
262.76
278.763
258.16
263.027
253.113
263.273
256.337
260.517
268.289
259.935
266.564
277.521
269.419
271.144
264.243
258.448
281.499
253.108
263.499
253.22
271.177
255.185
265.864
229.48
229.985
243.723
227.811
237.566
208.064
199.091
208.483
217.874
198.903
220.616
208.929
209.483
235.328
242.662
212.475
197.27
201.406
225.058
239.261
238.469
240.451
239.86
239.92
297.584
297.21
297.032
298.078
298.587
297.395
296.189
294.896
294.223
293.452
292.594
292.808
293.971
295.502
296.992
296.772
294.413
292.065
289.962
284.822
280.466
281.591
286.179
288.709
286.058
282.372
281.104
281.923
283.967
284.721
282.663
282.271
285.609
290.023
293.336
295.057
295.543
295.5
295.151
294.553
293.707
292.499
290.877
289.146
287.763
287.036
287.242
288.435
290.558
293.075
295.428
296.732
296.794
296.017
295.042
294.25
293.755
293.43
293.081
292.579
292.032
291.943
292.441
293.346
294.156
294.945
295.904
297.091
297.955
297.977
297.448
297.109
296.654
295.717
294.636
293.217
291.58
289.896
288.387
286.867
285.604
285.372
284.738
283.302
283.311
282.356
282.351
283.248
283.765
287.265
287.348
289.641
291.375
295.853
301.783
289.051
290.622
293.489
283.424
280.91
285.822
290.274
283.203
273.396
269.482
271.751
271.354
264.733
264.141
266.064
267.896
263.748
259.41
259.706
264.897
269.764
269.057
267.29
271.022
277.044
283.081
287.403
286.503
286.007
292.558
292.436
286.125
286.998
283.32
284.412
290.217
279.612
277.874
261.124
272.183
280.032
279.664
274.137
284.115
262.791
262.376
266.603
270.156
267.823
274.297
268.465
267.465
268.944
257.793
277.025
254.898
263.82
250.69
272.685
257.466
266.575
235.273
230.229
244.349
233.302
238.305
209.632
201.037
206.903
218.541
203.509
216.185
211.745
213.958
233.34
245.393
212.573
197.53
202.601
226.471
240.12
237.238
237.717
237.896
239.966
298.437
299.028
299.401
298.412
296.695
294.805
294.086
294.295
294.01
293.765
293.481
293.388
294.704
295.916
295.61
293.624
291.289
288.787
285.943
282.357
281.297
283.418
287.038
289.465
287.943
284.751
282.732
281.798
281.77
282.787
285.749
290.716
295.462
298.266
299.578
299.806
299.667
299.542
299.484
299.456
299.092
298.193
297.18
296.357
295.836
295.649
295.959
296.714
297.884
298.87
299.325
299.163
298.706
298.236
297.8
297.187
296.21
295.056
293.934
293.108
292.652
292.574
292.979
294.207
295.705
297.164
298.586
299.436
299.241
297.884
296.309
294.423
292.413
290.373
288.102
285.211
282.639
281.704
281.887
282.413
283.126
284.587
285.081
284.474
283.893
284.009
281.982
280.498
279.732
279.423
279.399
280.629
285.799
283.697
293.717
292.263
286.739
293.557
290.137
284.247
286.492
294.254
294.917
284.698
279.151
273.456
265.262
258.407
260.642
264.9
268.488
264.156
259.043
260.321
265.788
267.566
266.517
266.16
271.04
279.865
286.656
292.861
294.293
294.828
304.104
304.296
293.704
286.893
282.248
278.657
286.254
279.883
270.223
268.479
260.115
269.615
281.423
284.039
289.129
257.665
271.745
269.889
278.181
274.591
282.293
277.909
262.098
268.271
247.861
275.096
254.735
262.659
249.937
270.946
260.032
263.938
240.651
231.241
239.754
239.637
241.512
214.497
203.49
205.179
218.049
209.898
216.439
212.853
214.93
230.481
245.721
211.085
198.17
204.155
227.637
241.171
237.014
237.038
238.587
242.278
298.972
299.724
298.758
296.179
294.554
294.634
294.644
295.303
295.167
294.642
294.722
293.887
294.473
295.59
293.812
291.341
289.613
287.577
285.103
282.824
282.375
282.725
283.205
283.846
282.945
281.233
281.265
283.027
286.143
290.478
295.541
299.894
302.202
303.2
303.555
303.694
303.594
303.311
302.926
302.313
301.368
300.426
299.66
298.97
298.561
298.512
298.647
299.039
299.597
300.096
300.438
300.599
300.375
299.374
297.538
295.865
294.776
293.879
293.319
292.759
291.855
291.3
292.081
293.382
295.703
297.978
298.973
298.757
296.999
294.75
292.715
289.875
286.524
284.334
283.201
282.891
284.04
286.615
289.597
292.202
293.902
294.721
294.489
294.222
293.569
291.04
291.403
286.464
285.126
281.07
280.201
274.354
279.591
276.429
275.973
290.564
292.032
297.703
297.935
287.451
281.16
284.313
290.499
284.079
280.499
277.059
266.398
260.179
264.634
268.255
270.373
264.693
258.807
259.784
266.027
266.338
264.007
265.146
273.314
283.825
288.335
298.854
304.23
303.296
306.387
303.864
299.682
290.471
285.515
278.148
287.015
290.418
273.696
269.627
260.788
262.13
270.126
280.153
288.59
265.367
289.598
279.741
284.37
271.791
287.773
298.137
265.828
261.788
236.171
280.952
254.48
264.135
251.078
272.726
264.107
263.741
243.562
231.438
237.705
248.78
257.352
215.576
205.47
204.013
215.811
215.912
218.465
215.165
214.175
227.055
246.32
211.085
198.66
206.276
229.596
242.827
237.823
236.607
239.635
244.333
299.279
299.695
297.268
294.44
294.758
295.459
295.294
295.652
295.697
294.989
294.467
293.264
293.169
293.248
291.283
289.75
287.616
284.578
282.286
281.213
280.75
280.138
280.124
281.058
281.729
282.961
285.929
289.722
293.971
298.072
301.076
302.51
302.453
302.118
301.531
301.05
300.741
300.698
300.534
300.21
299.842
299.407
298.994
298.852
298.555
297.775
296.839
296.062
295.419
294.996
294.479
293.682
292.738
292.15
292.086
292.248
292.212
291.819
290.912
289.812
289.387
289.929
290.906
292.892
295.729
298.14
298.994
297.889
295.254
291.644
288.522
286.183
283.097
281.424
282.73
285.631
289.161
292.811
294.644
294.097
292.77
291.583
291.118
291.159
292.625
292.575
294.687
294.427
295.271
290.737
290.364
284.126
279.717
282.7
270.896
280.278
286.56
288.671
295.763
290.105
283.387
285.48
293.76
284.618
279.614
276.543
264.116
262.993
268.451
270.65
270.31
263.855
259.578
259.983
266.144
267.048
265.589
268.604
279.588
291.874
296.308
306.918
308.733
305.933
304.578
301.714
300.76
299.859
281.496
287.369
296.899
292.797
279.745
268.795
260.024
269.318
279.277
287.089
289.982
284.114
295.44
277.1
289.653
271.635
280.708
298.393
273.567
261.943
237.405
282.846
250.708
266.783
254.842
277.026
269.041
265.274
248.271
231.619
230.081
247.738
276.193
226.268
211.512
206.376
212.006
217.922
219.058
218.647
214.026
224.774
245.498
213.886
199.675
208.021
230.423
243.799
239.525
236.564
240.383
246.638
299.521
299.074
295.706
294.64
295.95
295.017
295.397
296.146
295.42
294.533
293.425
292.871
292.596
291.544
289.716
287.793
284.494
282.469
281.967
281.599
281.952
282.564
284.053
286.101
288.268
291.111
294.536
297.576
300.098
301.407
301.671
300.816
299.774
298.838
298.239
298.001
297.947
297.785
297.344
296.861
296.559
296.927
297.38
297.13
296.833
297.183
297.386
297.04
296.483
295.933
295.169
294.339
293.486
292.661
291.546
289.889
288.499
288.63
288.979
289.671
290.533
290.902
292.373
294.193
296.119
298.023
298.817
297.454
294.197
289.924
285.493
282.758
281.798
281.819
284.562
288.897
292.557
294.011
292.338
289.43
288.204
287.686
286.861
287.958
285.533
286.18
285.352
285.365
286.105
288.221
285.402
292.526
282.447
288.479
283.075
277.071
278.889
277.839
289.237
293.885
287.716
285.172
296.633
292.613
286.475
280.219
267.946
266.313
267.082
267.672
267.987
262.442
259.467
262.224
266.674
268.941
269.871
275.216
286.894
295.045
298.822
308.318
306.351
304.7
303.575
299.509
306.274
301.532
274.567
278.624
290.193
287.979
275.766
270.741
266.558
276.736
283.397
290.43
290.96
292.633
295.1
276.533
289.898
276.223
285.486
290.731
275.928
267.909
250.229
283.277
250.095
271.294
259.544
277.89
272.691
262.592
254.248
234.658
219.232
231.379
276.077
262.88
217.203
210.76
210.673
218.088
218.619
221.535
214.541
222.118
243.697
220.038
200.792
208.994
231.026
245.435
241.491
238.791
242.252
252.269
299.828
298.952
296.271
295.663
295.758
294.874
295.982
296.658
294.963
293.942
293.339
293.856
293.32
291.731
289.786
288.587
287.234
286.765
286.465
286.828
287.777
289.158
291.101
293.173
295.467
297.689
299.685
300.865
301.329
300.89
299.793
298.466
297.542
297.054
297.017
297.02
296.686
296.326
295.931
295.748
295.673
295.178
294.809
295.863
297.41
297.76
297.6
297.833
298.113
298.225
298.232
298.001
297.682
297.516
297.294
297.199
296.298
294.307
291.09
289.54
290.898
292.189
293.426
295.393
297.005
298.66
299.168
297.634
294.273
289.748
285.388
282.234
281.497
282.001
285.615
290.876
293.476
293.107
291.704
289.287
288.017
291.552
292.182
293.847
291.89
292.931
289.64
292.208
286.802
291.584
283.047
285.793
282.806
280.603
285.074
280.152
283.166
281.595
285.893
296.862
292.951
283.687
291.281
290.303
285.248
280.814
273.665
265.378
262.674
262.218
264.337
261.47
258.497
264.2
267.361
270.099
273.249
280.79
290.845
294.405
296.952
302.646
300.981
301.806
304.865
295.528
308.855
290.154
281.48
279.63
289.164
291.089
279.112
268.926
269.589
274.879
279.357
291.465
293.018
292.23
288.67
279.038
286.325
278.131
290.283
287.177
277.181
274.196
264.47
279.701
250.274
277.261
264.258
275.295
269.141
252.656
259.42
237.953
217.659
220.514
260.369
308.569
230.274
215.673
209.44
214.227
214.427
220.624
215.7
219.057
241.305
229.061
203.419
209.927
230.674
246.334
242.566
240.389
242.815
251.188
300.449
300.164
297.951
295.346
296.212
297.31
296.54
296.737
296.459
296.638
296.408
296.341
295.974
294.826
293.547
293.878
292.962
293.242
293.206
293.967
295.003
296.005
297.48
298.604
299.672
300.361
300.414
299.955
298.714
297.336
295.783
294.826
294.295
293.938
293.593
293.433
293.262
293.235
293.46
293.734
294.047
294.756
295.427
295.221
294.66
295.511
297.563
299.448
300.957
302.001
302.537
302.49
302.485
302.811
303.148
302.574
301.171
299.84
299.259
299.062
297.241
295.63
295.145
296.039
297.132
298.393
299.393
298.607
295.317
290.944
286.741
281.929
279.218
281.223
284.878
288.21
293.105
295.521
292.843
291.854
291.401
293.87
292.525
293.358
287.799
290.456
287.029
288.476
285.072
284.186
288.129
284.872
290.675
282.794
282.994
275.809
278.61
284.228
280.489
290.463
293.97
287.278
293.102
293.383
289.614
282.462
272.925
260.627
259.491
258.875
261.691
261.217
258.726
265.138
268.38
269.603
273.628
282.587
291.627
294.715
295.857
300.506
302.942
303.426
305.751
307.858
306.592
290.208
283.049
285.444
292.89
292.878
285.411
275.98
270.254
274.188
278.354
291.037
290.592
287.198
284.285
284.964
287.069
280.718
287.576
284.495
278.053
277.21
274.826
275.498
252.223
280.47
267.99
273.653
263.937
243.576
264.778
236.19
228.644
233.361
248.737
312.563
256.435
228.146
213.338
212.9
210.46
218.218
217.273
216.878
237.907
237.443
207.225
210.65
229.186
246.408
244.726
240.615
241.613
245.849
301.215
301.448
299.38
297.025
298.074
298.022
296.107
296.43
296.773
297.358
297.896
298.737
298.32
297.179
297.876
298.309
297.716
298.128
298.338
298.695
299.352
299.808
300.004
300.399
300.131
299.64
298.745
297.33
295.966
294.66
293.653
293.033
292.68
292.463
292.176
291.757
291.807
292.718
293.762
294.552
295.318
296.381
297.891
299.611
301.257
302.786
304.472
305.655
305.925
305.271
304.178
303.291
302.921
302.144
300.909
300.093
300.443
300.996
300.162
299.342
299.198
299.469
299.656
299.935
300.082
300.517
300.536
299.309
296.924
293.098
287.903
282.552
280.687
280.028
280.961
286.145
290.067
292.103
292.995
294.2
290.228
293.197
290.251
287.909
286.393
282.839
289.729
285.436
290.049
282.706
289.119
280.313
284.277
284.143
287.808
285.505
277.957
282.111
277.524
283.355
291.737
288.474
290.411
294.385
293.129
283.439
267.877
256.736
257.702
258.96
261.722
260.825
260.255
266.258
270.419
269.876
271.009
279.51
288.204
291.144
293.667
299.572
300.002
300.001
301.241
309.742
305.444
302.152
290.558
287.663
284.378
285.541
282.787
276.893
269.481
275.128
281.918
291.892
287.139
286.554
288.279
294.602
286.063
279.892
280.302
282.994
282.4
279.206
279.157
273.435
257.423
278.889
271.843
274.306
265.87
242.958
269.805
237.423
242.328
261.711
252.41
286.182
281.915
243.494
223.296
218.492
211.575
216.888
218.858
215.811
234.116
244.215
212.928
211.641
227.8
246.181
246.829
242.632
241.788
236.97
301.867
302.237
300.77
298.38
297.516
297.837
297.444
297.547
297.705
298.35
299.446
300.848
300.598
299.189
300.256
300.441
300.216
300.42
300.781
300.597
300.582
300.425
299.993
299.442
298.656
297.395
296.459
295.118
294.285
293.528
293.348
293.47
293.742
293.681
293.914
294.803
295.84
296.827
297.748
299.17
300.867
301.841
302.302
303.229
304.669
305.234
304.463
303.369
301.811
299.283
296.481
294.234
292.373
291.226
290.575
290.313
290.357
289.983
290.175
291.354
292.263
293.338
294.493
295.457
296.583
297.928
298.899
300.761
302.684
301.95
298.68
292.318
285.131
281.511
278.889
278.409
280.837
285.369
284.332
287.661
287.647
285.704
289.908
281.81
290.341
285.989
291.77
286.738
287.492
278.834
287.451
288.493
285.649
283.657
280.664
286.453
279.414
281.912
280.515
281.433
290.61
292.634
288.819
296.796
295.471
287.283
269.572
257.303
257.09
261.306
263.919
261.142
260.954
266.802
272.059
271.321
270.209
277.973
286.347
288.938
291.795
297.277
298.723
291.959
300.66
300.167
306.613
300.183
290.786
286.209
287.019
291.903
290.738
283.058
273.145
276.118
284.789
295.679
290.856
289.988
289.91
295.045
279.304
272.746
274.508
282.46
286.773
280.369
276.409
270.919
260.99
276.201
274.376
272.729
264.233
244.808
270.493
240.882
248.744
279.36
262.655
266.62
294.668
258.853
234.776
225.665
213.984
214.827
219.262
215.079
230.061
248.166
219.815
213.377
225.937
244.756
247.949
244.013
252.795
225.755
302.301
302.775
301.776
299.868
297.893
297.57
297.441
297.985
298.067
298.696
299.896
300.705
301.927
301.489
301.451
302.02
301.815
301.057
300.815
300.507
300.247
299.688
299.171
298.403
297.409
296.198
295.241
294.228
293.589
293.251
293.697
294.508
295.562
296.458
297.106
298.306
300.32
302.006
302.425
302.835
303.948
305.049
305.003
304.037
302.827
301.244
299.194
296.975
294.718
292.728
290.812
289.86
289.911
290.415
291.6
292.508
292.476
291.973
291.808
292.181
291.402
290.679
289.827
288.919
288.071
288.998
291.025
291.847
293.047
295.8
297.139
300.998
300.225
295.567
290.948
288.226
283.191
282.878
283.705
281.397
285.784
282.502
290.116
284.719
289.028
291.564
292.675
285.753
287.817
285.315
284.884
293.041
288.754