/*--------------------------------*- C++ -*----------------------------------*\
| =========                 |                                                 |
| \\      /  F ield         | OpenFOAM: The Open Source CFD Toolbox           |
|  \\    /   O peration     | Version:  dev                                   |
|   \\  /    A nd           | Web:      http://www.openfoam.org               |
|    \\/     M anipulation  |                                                 |
\*---------------------------------------------------------------------------*/
FoamFile
{
    version     2.0;
    format      ascii;
    class       volVectorField;
    object      U;
    location    "9.141";
}
// * * * * * * * * * * * * * * * * * * * * * * * * * * * * * * * * * * * * * //

dimensions      [0 1 -1 0 0 0 0];

internalField   nonuniform List<vector> 
12225
(
(6.17012 0.399961 0)
(2.12641 0.114207 0)
(-1.15106 -0.0310743 0)
(-2.42084 -0.0739685 0)
(-5.01691 0.00149029 0)
(-5.34321 -0.0869192 0)
(-8.16423 0.0658013 0)
(-8.30314 -0.0848434 0)
(-11.1172 0.128486 0)
(-11.2874 -0.0849256 0)
(-14.391 0.236735 0)
(-13.9215 -0.153313 0)
(-17.7988 0.377891 0)
(-17.0428 -0.0267122 0)
(-20.1008 0.0870326 0)
(-18.5581 0.195422 0)
(-6.88688 -0.379752 0)
(-29.0264 17.5129 0)
(8.44618 0.917322 0)
(7.38485 0.603661 0)
(3.06079 0.232884 0)
(3.28377 0.00168389 0)
(-2.0549 0.019834 0)
(0.107845 -0.134166 0)
(-6.05571 0.126583 0)
(-2.82542 -0.239161 0)
(-9.11907 0.303713 0)
(-5.82805 -0.107349 0)
(-12.552 0.528065 0)
(-8.10463 -0.177178 0)
(-17.3244 0.977624 0)
(-9.05469 -0.687317 0)
(-21.7513 0.853557 0)
(-11.8454 -2.84949 0)
(-18.5156 -4.40964 0)
(-39.0031 10.4316 0)
(7.97201 0.423592 0)
(10.2257 0.453614 0)
(4.38824 0.150232 0)
(7.82206 0.0457286 0)
(-0.168095 0.0140092 0)
(5.2868 -0.0555234 0)
(-4.06885 0.15594 0)
(2.40397 -0.315996 0)
(-6.1785 0.482434 0)
(-1.14832 -0.281504 0)
(-7.48745 0.784529 0)
(-5.44288 0.139453 0)
(-9.43099 0.946911 0)
(-8.69826 0.909136 0)
(-16.6119 2.32932 0)
(-9.84468 -2.09663 0)
(-34.6581 4.67783 0)
(-32.2027 6.47346 0)
(5.75928 0.244065 0)
(12.3278 0.388369 0)
(3.38107 -0.0875998 0)
(10.1863 -0.0479262 0)
(0.80882 0.0208 0)
(7.96953 -0.234757 0)
(-1.63586 0.28865 0)
(4.96151 -0.800797 0)
(-3.78303 0.799797 0)
(2.3744 -0.91305 0)
(-5.94075 1.49742 0)
(-1.12968 -0.829677 0)
(-8.00366 1.81268 0)
(-5.0423 0.743605 0)
(-8.06605 0.415142 0)
(-11.6539 5.58724 0)
(-19.993 3.05055 0)
(-29.3457 10.6943 0)
(4.58968 0.138306 0)
(12.6463 -0.223251 0)
(4.66548 -0.12838 0)
(9.40112 -0.62818 0)
(2.94179 -0.00778503 0)
(6.91893 -0.784829 0)
(0.515049 0.593312 0)
(4.08893 -0.928401 0)
(-2.1215 0.922337 0)
(2.46606 -0.765022 0)
(-6.60907 2.06082 0)
(-0.215679 -0.486502 0)
(-10.7248 2.82109 0)
(-1.57016 -1.01638 0)
(-12.284 5.69944 0)
(-10.7557 2.46196 0)
(-11.3937 10.3054 0)
(-25.8834 17.595 0)
(6.89761 0.0455656 0)
(9.3415 -0.95033 0)
(7.04484 -0.322968 0)
(6.13173 -0.948052 0)
(4.16149 -0.131169 0)
(2.95844 -0.874599 0)
(1.39053 0.351691 0)
(1.35349 -1.11617 0)
(-0.284024 0.298283 0)
(-1.33572 0.246785 0)
(-6.23129 1.67576 0)
(-2.85412 0.554278 0)
(-10.41 1.9022 0)
(-3.60228 1.18783 0)
(-16.8162 5.48249 0)
(-9.1238 1.27234 0)
(-9.02476 12.0343 0)
(-21.3733 16.4159 0)
(8.20544 0.509397 0)
(7.26432 -2.17598 0)
(7.91037 -0.0815185 0)
(5.02805 -1.36632 0)
(5.50601 0.359687 0)
(2.1957 -1.49728 0)
(2.27545 0.547023 0)
(0.383856 -1.93348 0)
(1.05995 1.39256 0)
(-3.30462 0.160045 0)
(-2.59138 2.0958 0)
(-5.97422 -0.539877 0)
(-3.88678 3.24951 0)
(-8.02619 0.612104 0)
(-8.91372 8.66151 0)
(-10.4852 -1.80533 0)
(-11.1787 15.664 0)
(-8.49671 19.8151 0)
(8.9393 0.319059 0)
(7.11307 -2.57095 0)
(7.21454 -0.471016 0)
(5.92115 -1.71203 0)
(5.80427 -0.0889292 0)
(3.21849 -1.22509 0)
(2.684 0.0591859 0)
(1.85355 -2.18551 0)
(0.729394 0.863936 0)
(-1.67 0.673875 0)
(-0.140735 2.03673 0)
(-3.48554 -0.10828 0)
(-2.36521 2.44834 0)
(-7.07439 1.7838 0)
(-2.47216 7.03369 0)
(-7.96654 4.02059 0)
(-11.232 11.5156 0)
(-1.54566 11.747 0)
(9.48749 0.562433 0)
(7.29044 -3.03653 0)
(7.13507 -0.600382 0)
(6.07638 -2.34848 0)
(4.99572 0.397531 0)
(3.39366 -1.79299 0)
(3.33555 0.0709713 0)
(1.63248 -2.47376 0)
(-0.439385 1.81416 0)
(-0.429286 -0.35252 0)
(-0.99776 2.30373 0)
(-2.42645 -0.547365 0)
(-3.47054 3.9385 0)
(-4.17418 0.785385 0)
(-4.88562 6.96669 0)
(-5.40868 3.91148 0)
(-7.47619 8.06725 0)
(-5.36825 10.7983 0)
(9.19652 0.139362 0)
(7.906 -3.00212 0)
(6.71206 -1.22389 0)
(5.66932 -2.19657 0)
(4.83216 -0.38957 0)
(4.31964 -1.65066 0)
(3.14137 -0.576865 0)
(1.52577 -1.33403 0)
(0.141082 0.396783 0)
(-0.0514066 0.135855 0)
(-1.12529 1.63417 0)
(-2.08997 0.712463 0)
(-3.55921 2.24463 0)
(-4.47932 2.48146 0)
(-5.60302 6.49587 0)
(-4.95008 5.08172 0)
(-6.51467 8.92626 0)
(-5.67343 10.1948 0)
(9.65618 0.275725 0)
(7.82501 -3.51354 0)
(7.22457 -1.16888 0)
(5.55267 -2.9846 0)
(5.24946 -0.530353 0)
(3.78311 -2.30582 0)
(3.0906 -0.294442 0)
(1.39072 -2.16808 0)
(0.910271 0.696798 0)
(-0.311183 -0.498746 0)
(-0.567676 1.46998 0)
(-1.74342 0.373293 0)
(-2.46235 2.99871 0)
(-3.89208 2.44097 0)
(-4.28742 4.96248 0)
(-3.94958 5.72043 0)
(-4.43276 7.2941 0)
(-4.14336 9.49393 0)
(9.71162 -0.305445 0)
(8.05748 -3.30184 0)
(7.10629 -1.94806 0)
(5.68513 -2.59493 0)
(4.8589 -1.31556 0)
(3.85747 -1.91191 0)
(3.0846 -1.05321 0)
(1.94557 -1.32325 0)
(0.902789 -0.336477 0)
(0.420976 -0.0858785 0)
(-0.567423 0.944009 0)
(-1.42412 1.07159 0)
(-2.25368 2.3165 0)
(-2.72972 3.02677 0)
(-3.28635 4.73217 0)
(-3.37638 5.47019 0)
(-3.34356 6.97832 0)
(-2.94346 8.27945 0)
(9.39194 -0.310382 0)
(8.24669 -3.47151 0)
(7.0646 -2.17816 0)
(5.86631 -3.0842 0)
(5.0545 -1.80808 0)
(4.10963 -2.45998 0)
(3.18808 -1.41296 0)
(2.21733 -1.90025 0)
(1.28931 -0.511799 0)
(0.471262 -0.346108 0)
(-0.218489 0.614753 0)
(-0.877218 0.98984 0)
(-1.48827 1.98853 0)
(-1.94534 2.84089 0)
(-2.16689 3.93857 0)
(-2.15306 5.07345 0)
(-2.02765 5.94025 0)
(-1.66499 7.136 0)
(9.17893 -0.823561 0)
(8.41544 -3.50803 0)
(7.27148 -2.9721 0)
(6.16326 -3.00141 0)
(5.13305 -2.3845 0)
(4.21127 -2.31935 0)
(3.32594 -1.76651 0)
(2.46838 -1.58974 0)
(1.62162 -0.959818 0)
(1.02306 -0.448963 0)
(0.45551 0.137067 0)
(-0.0123433 0.784317 0)
(-0.441864 1.58841 0)
(-0.733678 2.4721 0)
(-0.870958 3.438 0)
(-0.843306 4.37341 0)
(-0.725296 5.30844 0)
(-0.442223 6.20203 0)
(9.29784 -0.706154 0)
(8.27589 -3.5755 0)
(7.14488 -3.24526 0)
(6.12872 -3.16486 0)
(5.24481 -2.81846 0)
(4.46989 -2.64972 0)
(3.72988 -2.28523 0)
(3.06515 -2.01114 0)
(2.37 -1.35946 0)
(1.7655 -0.822224 0)
(1.2492 -0.274669 0)
(0.815443 0.391665 0)
(0.475056 1.10205 0)
(0.292895 1.82777 0)
(0.224524 2.65972 0)
(0.289807 3.47017 0)
(0.475836 4.2551 0)
(0.866345 5.05509 0)
(9.08976 -1.00213 0)
(8.30026 -3.73157 0)
(7.37739 -3.67179 0)
(6.50611 -3.46907 0)
(5.68676 -3.19474 0)
(4.92812 -2.88401 0)
(4.20263 -2.51881 0)
(3.53534 -2.08909 0)
(2.8921 -1.55086 0)
(2.44824 -1.05152 0)
(2.08502 -0.560326 0)
(1.78493 0.0110106 0)
(1.57044 0.578655 0)
(1.46789 1.1643 0)
(1.41902 1.84217 0)
(1.53765 2.47502 0)
(1.66716 3.15986 0)
(1.93257 3.85402 0)
(9.43085 -1.18792 0)
(8.62463 -3.75346 0)
(7.64687 -3.64895 0)
(6.70085 -3.45185 0)
(5.80724 -3.20353 0)
(5.05388 -2.91004 0)
(4.3945 -2.58721 0)
(3.86242 -2.23291 0)
(3.41566 -1.83386 0)
(3.13448 -1.43566 0)
(2.89706 -1.00425 0)
(2.73011 -0.497255 0)
(2.59551 0.00378767 0)
(2.55426 0.553966 0)
(2.5446 1.14777 0)
(2.64801 1.6773 0)
(2.76604 2.23745 0)
(3.00268 2.79558 0)
(9.52405 -1.25196 0)
(8.82566 -3.82468 0)
(7.96551 -3.62532 0)
(7.14111 -3.35544 0)
(6.36007 -3.11225 0)
(5.71416 -2.88133 0)
(5.12809 -2.64992 0)
(4.65684 -2.39077 0)
(4.27252 -2.06481 0)
(3.98981 -1.70346 0)
(3.77448 -1.30888 0)
(3.65472 -0.857013 0)
(3.55376 -0.42028 0)
(3.57396 0.0247952 0)
(3.61292 0.487783 0)
(3.74207 0.887488 0)
(3.93043 1.31326 0)
(4.16796 1.74263 0)
(9.74753 -0.920887 0)
(9.05136 -3.4199 0)
(8.1416 -3.28358 0)
(7.3252 -3.06698 0)
(6.6128 -2.84174 0)
(6.01287 -2.63591 0)
(5.48755 -2.44362 0)
(5.06311 -2.23296 0)
(4.69747 -1.98229 0)
(4.45764 -1.72325 0)
(4.31593 -1.41958 0)
(4.2659 -1.07663 0)
(4.25087 -0.741657 0)
(4.33028 -0.388824 0)
(4.4215 -0.0194396 0)
(4.59052 0.292902 0)
(4.78161 0.635913 0)
(5.02074 0.986622 0)
(9.61215 -0.894145 0)
(9.12932 -3.1445 0)
(8.29578 -3.05111 0)
(7.56141 -2.86817 0)
(6.91224 -2.65314 0)
(6.37659 -2.47602 0)
(5.94243 -2.30326 0)
(5.55386 -2.10918 0)
(5.22272 -1.92744 0)
(5.02314 -1.75795 0)
(4.87203 -1.53729 0)
(4.82416 -1.26353 0)
(4.83511 -0.990122 0)
(4.90372 -0.687932 0)
(5.01456 -0.361864 0)
(5.1828 -0.0785117 0)
(5.37913 0.203758 0)
(5.62474 0.517994 0)
(9.73865 -0.79387 0)
(9.23937 -2.70771 0)
(8.43778 -2.67676 0)
(7.74085 -2.57169 0)
(7.14346 -2.41373 0)
(6.66441 -2.27706 0)
(6.22867 -2.10831 0)
(5.8741 -1.91163 0)
(5.60718 -1.766 0)
(5.39833 -1.6156 0)
(5.25355 -1.45049 0)
(5.20538 -1.26558 0)
(5.18859 -1.03946 0)
(5.26553 -0.838106 0)
(5.37997 -0.57626 0)
(5.55162 -0.330395 0)
(5.75255 -0.12389 0)
(5.97931 0.169928 0)
(9.49004 -0.689966 0)
(9.17063 -2.51152 0)
(8.50405 -2.49431 0)
(7.89329 -2.37689 0)
(7.36768 -2.23154 0)
(6.91233 -2.0587 0)
(6.47041 -1.89053 0)
(6.17908 -1.75461 0)
(5.94965 -1.61578 0)
(5.79155 -1.48083 0)
(5.70599 -1.37812 0)
(5.65904 -1.21862 0)
(5.69107 -1.04405 0)
(5.77661 -0.893852 0)
(5.86551 -0.668639 0)
(6.0595 -0.475047 0)
(6.2224 -0.307233 0)
(6.427 -0.0471389 0)
(9.83068 -0.659749 0)
(9.43268 -2.11546 0)
(8.75577 -2.13504 0)
(8.15169 -2.12494 0)
(7.63921 -2.01874 0)
(7.17278 -1.83787 0)
(6.78235 -1.72207 0)
(6.48573 -1.61954 0)
(6.23727 -1.48166 0)
(6.09205 -1.39219 0)
(5.98371 -1.3084 0)
(5.93327 -1.15259 0)
(5.9862 -1.04124 0)
(6.04956 -0.875149 0)
(6.16397 -0.705584 0)
(6.3362 -0.546603 0)
(6.49965 -0.391069 0)
(6.70673 -0.207362 0)
(9.7528 -0.603358 0)
(9.53891 -1.89548 0)
(8.96322 -1.96425 0)
(8.36592 -1.92471 0)
(7.79274 -1.78078 0)
(7.33016 -1.62401 0)
(6.98883 -1.48944 0)
(6.74263 -1.38225 0)
(6.59733 -1.2937 0)
(6.47689 -1.21502 0)
(6.38435 -1.14738 0)
(6.34868 -1.06648 0)
(6.35342 -0.957128 0)
(6.41808 -0.847883 0)
(6.5272 -0.711147 0)
(6.65799 -0.552826 0)
(6.83524 -0.428551 0)
(7.06198 -0.265247 0)
(9.31043 -0.590555 0)
(9.23849 -1.69906 0)
(8.82709 -1.73333 0)
(8.3307 -1.66317 0)
(7.84353 -1.57006 0)
(7.4513 -1.48636 0)
(7.12141 -1.4024 0)
(6.92457 -1.33661 0)
(6.77082 -1.25742 0)
(6.65067 -1.1431 0)
(6.60447 -1.05583 0)
(6.56572 -0.963674 0)
(6.57931 -0.844338 0)
(6.68365 -0.770163 0)
(6.79162 -0.660744 0)
(6.92828 -0.531756 0)
(7.13258 -0.442584 0)
(7.33839 -0.307917 0)
(9.81209 -0.541381 0)
(9.64511 -1.57962 0)
(9.2655 -1.63633 0)
(8.82618 -1.55498 0)
(8.31227 -1.42012 0)
(7.85145 -1.30623 0)
(7.44281 -1.22961 0)
(7.12677 -1.15689 0)
(6.85721 -1.07839 0)
(6.66932 -1.00533 0)
(6.55115 -0.953528 0)
(6.4889 -0.874047 0)
(6.49384 -0.807527 0)
(6.57552 -0.73001 0)
(6.67929 -0.64829 0)
(6.79551 -0.557232 0)
(6.96894 -0.446237 0)
(7.17057 -0.345218 0)
(9.57107 -0.562172 0)
(9.71472 -1.48568 0)
(9.4506 -1.50611 0)
(8.9995 -1.37669 0)
(8.45201 -1.23347 0)
(7.95491 -1.13615 0)
(7.48902 -1.06313 0)
(7.12404 -0.993933 0)
(6.79797 -0.931387 0)
(6.5656 -0.851849 0)
(6.35315 -0.816462 0)
(6.20372 -0.737434 0)
(6.10411 -0.673137 0)
(6.03783 -0.626568 0)
(6.02729 -0.562516 0)
(6.04534 -0.477296 0)
(6.11292 -0.388501 0)
(6.22856 -0.311015 0)
(9.85883 -0.686419 0)
(9.90942 -1.40566 0)
(9.35216 -1.32706 0)
(8.54496 -1.15316 0)
(7.7089 -1.00508 0)
(6.9483 -0.89849 0)
(6.24693 -0.831724 0)
(5.676 -0.777774 0)
(5.15301 -0.721133 0)
(4.76177 -0.649037 0)
(4.42544 -0.598835 0)
(4.17169 -0.523036 0)
(3.97113 -0.46739 0)
(3.82366 -0.417133 0)
(3.73815 -0.362481 0)
(3.68504 -0.301474 0)
(3.70172 -0.247743 0)
(3.75877 -0.201822 0)
(9.50652 -0.937584 0)
(9.15416 -1.34855 0)
(7.89328 -1.14065 0)
(6.39332 -0.90951 0)
(5.03328 -0.714154 0)
(3.8839 -0.562876 0)
(2.92502 -0.469409 0)
(2.17742 -0.413067 0)
(1.56036 -0.375936 0)
(1.10689 -0.330509 0)
(0.741635 -0.293962 0)
(0.49214 -0.262977 0)
(0.31393 -0.231333 0)
(0.213117 -0.202433 0)
(0.180463 -0.179839 0)
(0.185174 -0.14957 0)
(0.260598 -0.128601 0)
(0.356748 -0.108419 0)
(8.18619 -0.477871 0)
(5.27213 -0.534645 0)
(2.70913 -0.278627 0)
(0.843318 -0.151725 0)
(-0.426024 -0.107862 0)
(-1.34164 -0.0993083 0)
(-2.02986 -0.106763 0)
(-2.54558 -0.109927 0)
(-2.95813 -0.110429 0)
(-3.26662 -0.102445 0)
(-3.49292 -0.0952373 0)
(-3.63548 -0.086105 0)
(-3.71247 -0.0743405 0)
(-3.72394 -0.0662934 0)
(-3.68581 -0.058515 0)
(-3.61474 -0.0442499 0)
(-3.46697 -0.0494735 0)
(-3.37854 -0.0047503 0)
(0.0148311 1.21679 0)
(-0.0144953 1.05993 0)
(0.103895 0.967471 0)
(0.358274 0.822456 0)
(0.790854 0.698347 0)
(1.29587 0.613777 0)
(1.87565 0.540965 1.10855e-17)
(2.485 0.473338 -1.10056e-17)
(3.187 0.391506 0)
(3.97165 0.315464 -1.08565e-17)
(4.83394 0.244016 0)
(5.78996 0.17961 0)
(6.83013 0.159783 0)
(7.89269 0.207807 1.05771e-17)
(8.88641 0.215149 0)
(9.82093 0.202551 0)
(10.7485 0.283323 -1.03327e-17)
(11.5236 0.416654 0)
(12.1691 0.50513 0)
(12.8152 0.541576 0)
(13.349 0.613102 1.00294e-17)
(13.8454 0.682984 0)
(14.3061 0.710455 9.88555e-18)
(14.6076 0.855621 0)
(14.8854 0.984708 0)
(14.9499 1.10578 9.68398e-18)
(14.8326 1.36888 0)
(14.6356 1.4996 -9.59665e-18)
(14.0698 1.58517 0)
(13.5372 1.41741 9.65462e-18)
(13.2574 0.740413 0)
(13.0597 0.349889 0)
(12.9999 0.38835 0)
(13.089 0.442378 0)
(13.4017 0.420743 0)
(13.8352 0.412767 -9.05766e-18)
(14.3505 0.442713 0)
(15.0101 0.485174 1.78109e-17)
(15.7207 0.619667 0)
(16.1442 0.870987 -1.77374e-17)
(16.2591 0.959058 0)
(16.4768 0.845226 0)
(16.916 0.608772 1.74298e-17)
(17.3602 0.3055 0)
(17.5751 0.018399 1.75065e-17)
(17.6415 -0.0892208 -1.74903e-17)
(17.7264 0.00366256 0)
(17.8104 0.16778 -1.73449e-17)
(17.8286 0.30183 -1.72364e-17)
(17.7377 0.35995 0)
(17.62 0.395684 0)
(17.524 0.371558 0)
(17.3503 0.339684 0)
(17.1244 0.279628 0)
(16.8805 0.265742 1.6488e-17)
(16.5323 0.279942 0)
(16.1191 0.324621 -1.62501e-17)
(15.6761 0.366069 0)
(15.1293 0.397387 0)
(14.5487 0.44153 1.58803e-17)
(13.9251 0.46266 0)
(13.2735 0.435702 -1.5606e-17)
(12.5428 0.43677 0)
(11.8277 0.412805 0)
(11.052 0.406974 0)
(10.2774 0.441818 1.50952e-17)
(9.54342 0.447116 0)
(8.7771 0.429376 0)
(8.00041 0.408172 1.47432e-17)
(7.21514 0.382629 0)
(6.42639 0.365659 1.45205e-17)
(5.6134 0.351043 0)
(4.78033 0.344779 0)
(3.94063 0.34273 0)
(3.10415 0.324454 -1.40644e-17)
(2.29525 0.299926 0)
(1.51404 0.260596 0)
(0.77949 0.205877 -1.36859e-17)
(0.0892596 0.15353 -1.35436e-17)
(-0.560533 0.108804 0)
(-1.17914 0.0756812 -1.32483e-17)
(-1.79221 0.0431214 0)
(-2.39391 0.008772 -2.59407e-17)
(-2.96113 -0.0253368 0)
(-3.45239 -0.0655948 -2.54414e-17)
(-3.87199 -0.131431 0)
(-4.20115 -0.176305 2.49714e-17)
(-4.46019 -0.225537 0)
(-4.7146 -0.199813 0)
(-5.05403 -0.170576 0)
(-5.49467 -0.180947 -2.40975e-17)
(-5.97731 -0.20236 0)
(-6.30332 -0.218476 2.35839e-17)
(-6.56821 -0.233547 0)
(-6.8027 -0.339346 -2.3163e-17)
(-6.76426 -0.435383 -2.3046e-17)
(-6.40242 -0.579739 -2.29603e-17)
(-5.58891 -0.712134 0)
(-4.77859 -0.558717 0)
(-4.22285 -0.532675 0)
(-3.70508 -0.506181 0)
(-3.19497 -0.380537 0)
(-2.99349 -0.244944 0)
(-3.13813 -0.097942 0)
(-3.3914 -0.142715 0)
(-3.71195 -0.252151 2.17553e-17)
(-4.05789 -0.215467 2.17288e-17)
(-4.41571 -0.194899 0)
(-4.73402 -0.285032 0)
(-4.99228 -0.286531 0)
(-5.16477 -0.218952 1.98299e-17)
(-5.1002 -0.268698 0)
(-4.58178 -0.313435 0)
(-3.72726 -0.245318 0)
(-2.97692 -0.29584 0)
(-2.08871 -0.481911 -2.00331e-17)
(-0.907977 -0.498559 0)
(0.223869 -0.67426 0)
(1.25551 -0.846898 2.00764e-17)
(1.38653 -0.529505 -2.00906e-17)
(0.556813 0.152467 0)
(-0.976734 0.691278 -1.99497e-17)
(-2.05877 0.398229 0)
(-2.53234 0.198741 1.9307e-17)
(-2.92451 0.321237 0)
(-2.8784 0.224865 0)
(-2.84921 0.205484 0)
(-2.72673 0.116601 0)
(-1.37362 -0.245046 0)
(1.37415 -0.663223 -3.64708e-17)
(4.45783 -0.709837 -3.59405e-17)
(7.49998 -1.07698 0)
(11.5187 -0.326756 0)
(12.8415 0.746408 0)
(11.3281 0.565415 3.5903e-17)
(10.7916 0.0655508 0)
(11.1398 -0.134994 0)
(11.7508 0.165473 0)
(11.2289 0.281817 3.52431e-17)
(10.134 0.447208 -3.46747e-17)
(11.195 0.0516418 0)
(11.2678 0.481395 0)
(9.75713 0.703405 -3.42427e-17)
(12.3195 -0.479147 -3.39943e-17)
(16.4816 -0.601198 0)
(19.1726 0.160546 0)
(19.2261 0.394537 3.27046e-17)
(18.6775 0.314063 -3.24618e-17)
(17.851 0.369044 0)
(17.1571 0.287622 0)
(15.4737 0.270195 -3.14856e-17)
(14.204 0.038462 0)
(12.8774 -0.0136047 0)
(11.7796 0.0262815 -3.01838e-17)
(10.5041 0.0182408 0)
(9.3859 0.0410955 -2.94823e-17)
(8.1842 0.0173646 0)
(7.04819 -0.0463314 0)
(5.75609 0.0460881 0)
(4.3644 0.0531695 2.80649e-17)
(3.48983 -0.0120342 0)
(1.97416 0.128994 0)
(0.00587509 0.327401 0)
(-0.855125 0.387539 0)
(-0.345403 0.0906066 0)
(-1.2271 0.291949 0)
(-3.01897 0.393939 2.72202e-17)
(-5.09881 0.819659 2.6806e-17)
(-7.73747 0.35734 0)
(-6.87856 -0.140374 0)
(-6.58208 -0.149128 0)
(-7.22949 -0.163955 -2.66102e-17)
(-8.02046 0.0145959 0)
(-9.13886 0.0571478 5.29214e-17)
(-8.94462 -0.187432 -5.23558e-17)
(-7.53367 -0.452085 -5.24573e-17)
(-6.07353 -0.40967 5.30264e-17)
(-4.89514 -0.50891 -5.34348e-17)
(-4.11112 -0.517263 5.37659e-17)
(-3.69174 -0.530607 0)
(0.252197 3.35784 0)
(0.350344 3.3492 0)
(0.50738 2.84588 -2.28188e-17)
(0.815227 2.33028 0)
(1.24839 1.95259 2.25163e-17)
(1.72195 1.73536 2.23583e-17)
(2.22681 1.56054 1.11303e-17)
(2.79764 1.36626 1.10533e-17)
(3.49554 1.09446 0)
(4.31868 0.817568 1.09678e-17)
(5.26993 0.572534 0)
(6.29644 0.325954 0)
(7.3744 0.093739 -2.16627e-17)
(8.47985 0.133387 -1.07314e-17)
(9.65493 0.375937 2.14204e-17)
(10.6869 0.427899 2.13074e-17)
(11.5528 0.584679 1.04966e-17)
(12.3421 1.03758 0)
(13.0369 1.11519 0)
(13.67 1.26972 0)
(14.2092 1.54902 1.01363e-17)
(14.7889 1.37045 0)
(15.3216 1.63405 -2.989e-17)
(15.7125 1.92822 0)
(16.1933 1.84391 0)
(16.4774 2.63163 -9.75186e-18)
(16.6749 2.75376 0)
(16.7641 2.75756 9.40056e-18)
(16.716 3.7733 1.91062e-17)
(16.7749 3.26795 -9.3873e-18)
(16.2896 2.78637 0)
(15.7705 3.15494 0)
(15.4396 2.65409 0)
(15.0496 1.98393 1.85232e-17)
(15.099 1.29666 1.83281e-17)
(15.2362 0.81029 8.95782e-18)
(15.3969 0.580151 0)
(15.6629 0.215196 -1.7068e-17)
(16.1911 0.062701 0)
(17.1412 0.62495 1.68679e-17)
(18.0438 0.983115 0)
(18.2172 0.521684 0)
(18.0061 0.243233 -1.65573e-17)
(18.13 0.803294 0)
(18.2129 1.47598 -5.08827e-17)
(17.8572 1.69703 1.74475e-17)
(17.3743 1.67494 0)
(16.9034 1.62314 1.74003e-17)
(16.4011 1.60354 1.72261e-17)
(15.883 1.59528 0)
(15.3192 1.64357 0)
(14.6997 1.6985 0)
(13.9234 1.72568 0)
(13.125 1.7203 0)
(12.4235 1.73361 -1.61377e-17)
(11.6623 1.75195 -3.19989e-17)
(10.948 1.74867 1.58766e-17)
(10.2561 1.70256 0)
(9.54401 1.62291 -3.12681e-17)
(8.91089 1.60624 1.55178e-17)
(8.22817 1.55329 0)
(7.59045 1.49477 1.53129e-17)
(6.88221 1.44845 0)
(6.25038 1.35534 0)
(5.68508 1.24219 3.02224e-17)
(5.10227 1.19011 -1.50416e-17)
(4.48642 1.02484 2.99221e-17)
(3.90101 0.933665 -2.97498e-17)
(3.29866 0.852564 -1.47826e-17)
(2.66526 0.797745 0)
(1.99752 0.739237 -1.45783e-17)
(1.31413 0.677052 0)
(0.622627 0.620117 0)
(-0.0849851 0.534259 0)
(-0.781859 0.425596 -1.40901e-17)
(-1.44766 0.299221 0)
(-2.08924 0.156922 -2.75215e-17)
(-2.66954 0.0272808 4.07309e-17)
(-3.20838 -0.0916482 1.33905e-17)
(-3.69049 -0.189102 0)
(-4.11322 -0.266377 1.3011e-17)
(-4.51072 -0.344333 0)
(-4.85838 -0.416119 2.52906e-17)
(-5.15912 -0.525469 0)
(-5.4005 -0.698333 2.47397e-17)
(-5.58544 -0.884443 -4.90477e-17)
(-5.70196 -1.01324 -2.43263e-17)
(-5.73813 -1.12639 0)
(-5.82173 -1.0094 0)
(-5.98412 -0.903582 0)
(-6.16569 -0.851138 2.28489e-17)
(-6.45028 -0.930667 0)
(-6.6795 -1.13439 -2.2629e-17)
(-6.78883 -1.16714 0)
(-7.07498 -1.41322 6.82941e-17)
(-7.00077 -1.75843 2.3144e-17)
(-6.67725 -2.28493 2.3587e-17)
(-5.8559 -2.84045 0)
(-4.75355 -2.37983 0)
(-3.84696 -2.19762 0)
(-3.2075 -2.24065 0)
(-2.22247 -1.99797 0)
(-1.52896 -1.49823 4.33764e-17)
(-1.44394 -1.16419 4.24612e-17)
(-1.24997 -0.927994 0)
(-1.17704 -0.732853 -2.04948e-17)
(-1.61785 -0.623402 -2.03683e-17)
(-2.31197 -0.56506 0)
(-2.97653 -0.515705 -4.1087e-17)
(-3.40339 -0.530465 0)
(-3.53943 -0.780253 1.8474e-17)
(-3.58045 -1.19834 0)
(-3.35171 -1.70865 0)
(-2.53534 -1.939 -3.64202e-17)
(-1.61402 -1.82778 0)
(-0.858702 -1.86511 1.89517e-17)
(0.151518 -1.95235 0)
(0.289125 -1.48985 0)
(-0.984223 -0.321953 1.98283e-17)
(-3.12251 0.904212 1.98776e-17)
(-4.97051 1.34829 0)
(-5.69876 1.1007 -1.89747e-17)
(-6.05932 0.793675 0)
(-6.18705 0.634728 1.86822e-17)
(-5.76892 0.182598 3.68132e-17)
(-5.34993 -0.00275937 0)
(-5.29827 0.0616268 0)
(-4.90073 -0.592684 0)
(-2.83806 -2.20401 0)
(0.177881 -3.11846 3.65694e-17)
(2.47622 -2.83419 1.05569e-16)
(5.41726 -3.62404 0)
(8.39216 -2.44431 0)
(12.4645 0.325266 0)
(12.2474 1.16397 -3.45787e-17)
(12.0664 0.985788 0)
(11.4936 0.477915 0)
(10.6165 0.702298 6.9558e-17)
(9.96746 1.02254 3.46492e-17)
(9.22647 0.661798 3.34739e-17)
(11.5382 -0.257019 0)
(11.3618 0.580074 0)
(10.1444 -0.214317 3.54028e-17)
(13.3695 -3.77825 -3.50072e-17)
(16.616 -4.1715 0)
(21.4414 -1.47736 0)
(22.171 -0.196082 -3.17962e-17)
(22.0771 0.0252849 9.51746e-17)
(21.1698 0.159638 0)
(22.003 0.24153 0)
(20.8305 0.69217 3.08978e-17)
(19.6387 0.596181 0)
(17.7001 0.382963 5.90843e-17)
(15.7951 0.171067 -2.86238e-17)
(13.8551 -0.0302343 0)
(12.29 -0.23648 2.73314e-17)
(10.7693 -0.234076 5.39047e-17)
(9.55135 -0.328332 0)
(8.23287 -0.261673 0)
(6.52853 -0.409853 -2.54122e-17)
(5.3432 -0.456247 0)
(3.63478 0.118133 4.97047e-17)
(1.16494 -0.196833 0)
(1.11165 -1.51945 0)
(2.30168 -1.28883 0)
(0.464578 -0.320715 0)
(-3.80368 0.492238 -2.46485e-17)
(-6.31973 0.694253 -2.3759e-17)
(-8.54042 -0.526689 0)
(-6.14382 -1.63218 0)
(-5.97273 -0.503331 0)
(-7.50367 -0.208195 2.44199e-17)
(-8.65711 -0.0644333 0)
(-9.50769 -0.574211 -4.77749e-17)
(-8.50761 -1.59816 4.69281e-17)
(-6.55238 -2.0778 4.77851e-17)
(-4.90332 -1.84693 4.93091e-17)
(-4.12759 -1.67505 5.06451e-17)
(-4.32632 -1.27355 5.17991e-17)
(-5.42516 -1.07001 0)
(0.360866 4.62822 0)
(0.767506 5.0938 0)
(1.10544 4.67 2.29029e-17)
(1.47697 3.96232 2.28753e-17)
(1.88522 3.43108 -2.26572e-17)
(2.24891 3.151 -2.25255e-17)
(2.6509 2.9102 3.8804e-20)
(3.21734 2.49276 0)
(3.96881 1.88743 0)
(4.89214 1.25206 0)
(5.97147 0.785793 0)
(7.14185 0.49438 0)
(8.32194 0.247554 6.66398e-17)
(9.42818 0.0934894 0)
(10.5357 0.286848 -2.17552e-17)
(11.6818 0.820413 -2.18481e-17)
(12.4553 1.23212 0)
(13.1606 1.66637 0)
(13.9272 2.14765 0)
(14.2883 2.37408 0)
(14.8235 2.44132 -2.0583e-17)
(15.4436 2.61723 0)
(15.6935 2.72441 2.0232e-17)
(16.3693 2.84475 0)
(16.8387 3.45066 0)
(16.8484 3.66551 0)
(17.4886 4.16594 3.88422e-17)
(17.5304 5.20535 0)
(17.2429 4.69366 -1.89143e-17)
(17.4912 5.23115 3.74845e-17)
(17.2635 6.34523 0)
(17.1387 4.95422 0)
(16.9597 4.40108 0)
(16.8831 4.1929 -1.82906e-17)
(16.8294 2.74972 -1.80649e-17)
(16.3565 2.06883 0)
(16.7683 2.23359 0)
(17.7442 1.9527 3.52193e-17)
(17.6381 0.797875 3.5116e-17)
(17.2088 0.553049 -3.46909e-17)
(17.1195 1.70807 0)
(16.4904 2.80458 0)
(15.6305 3.1743 0)
(15.0344 3.19976 0)
(14.6149 3.22611 3.49338e-17)
(14.1697 3.21442 3.48137e-17)
(13.7533 3.23874 -3.44837e-17)
(13.2896 3.28582 0)
(12.7422 3.37734 0)
(12.079 3.45852 0)
(11.3976 3.46108 0)
(10.7039 3.42268 3.2789e-17)
(10.0715 3.37625 0)
(9.54086 3.32683 0)
(9.04595 3.20557 3.22542e-17)
(8.57801 3.07949 3.20873e-17)
(8.09463 2.92337 0)
(7.58951 2.75463 -6.36643e-17)
(7.13309 2.68376 3.16761e-17)
(6.58315 2.63406 -3.1532e-17)
(6.08462 2.52494 0)
(5.73797 2.33887 0)
(5.35926 2.11944 0)
(5.03025 1.97915 0)
(4.67033 1.78269 -3.09185e-17)
(4.2767 1.66821 -6.15158e-17)
(3.85374 1.52164 -3.06054e-17)
(3.44133 1.41928 3.04405e-17)
(2.9141 1.33247 0)
(2.32994 1.24399 -6.00445e-17)
(1.67226 1.1746 -5.95682e-17)
(1.01704 1.08254 -5.90775e-17)
(0.307574 0.971099 5.85361e-17)
(-0.46326 0.850071 0)
(-1.2068 0.673072 8.60417e-17)
(-1.95533 0.469369 0)
(-2.6568 0.248192 -2.81065e-17)
(-3.31411 0.00611442 -2.78969e-17)
(-3.91213 -0.218588 0)
(-4.40392 -0.443663 0)
(-4.81984 -0.612369 -5.41899e-17)
(-5.18115 -0.763437 0)
(-5.45352 -0.906208 -5.29894e-17)
(-5.68894 -1.08775 0)
(-5.85164 -1.34458 5.21828e-17)
(-6.00745 -1.58386 1.03706e-16)
(-6.20057 -1.79168 0)
(-6.25125 -1.97775 0)
(-6.40759 -1.81757 0)
(-6.36328 -1.72123 4.82307e-17)
(-6.33797 -1.52069 0)
(-6.37718 -1.58124 4.70636e-17)
(-6.55377 -1.87486 0)
(-6.62235 -1.78322 0)
(-6.917 -2.08677 -9.7866e-17)
(-7.0258 -2.73726 0)
(-6.81403 -3.69648 -5.10706e-17)
(-6.52659 -4.70439 0)
(-5.71163 -4.23704 -4.95982e-17)
(-4.53475 -3.79415 0)
(-3.83977 -3.83167 0)
(-2.82941 -3.69412 0)
(-1.81875 -2.71168 -1.37085e-16)
(-1.54874 -1.99988 -4.4939e-17)
(-1.03974 -1.88375 0)
(-0.631016 -1.6554 0)
(-0.286957 -0.832848 0)
(-0.420026 -0.521841 0)
(-1.21919 -0.873386 3.93962e-17)
(-1.8925 -1.13482 -7.81346e-17)
(-2.21274 -1.14369 -3.7318e-17)
(-2.56448 -1.47333 7.3671e-17)
(-2.73881 -2.16961 7.49574e-17)
(-2.48608 -2.60145 3.8013e-17)
(-1.84962 -2.51781 0)
(-1.39451 -2.6803 7.7837e-17)
(-1.74688 -2.0109 0)
(-3.19021 -0.2918 -7.77402e-17)
(-5.09621 1.22056 -3.91344e-17)
(-6.99928 2.01821 0)
(-7.98098 1.88023 7.54481e-17)
(-7.7338 1.23325 3.71873e-17)
(-7.72407 0.721497 0)
(-7.23138 0.226608 3.72234e-17)
(-6.47197 -0.152409 -1.1006e-16)
(-5.9858 0.055504 0)
(-5.59504 0.187985 0)
(-4.85399 -1.13676 0)
(-2.59508 -3.66148 0)
(-0.779336 -4.08718 -7.3309e-17)
(0.0783821 -3.89706 -7.06137e-17)
(3.63609 -4.91407 0)
(5.37104 -4.35993 0)
(10.8196 -0.283321 0)
(11.4609 1.18161 0)
(12.7899 1.23873 0)
(11.9843 1.2474 0)
(11.0647 1.67175 -6.9833e-17)
(10.4581 1.16176 2.78225e-20)
(10.6116 0.482052 0)
(13.9216 -0.849258 0)
(15.6467 0.908241 -6.42994e-17)
(14.6507 0.342229 0)
(16.3547 -5.03141 7.00934e-17)
(16.9867 -7.36349 6.83351e-17)
(21.9087 -2.96622 0)
(22.9044 -0.331627 0)
(22.7222 0.438746 -6.33636e-17)
(20.933 -0.00134226 -1.30431e-16)
(22.5051 -0.412201 0)
(22.6478 0.750776 0)
(21.9698 0.742766 0)
(20.6217 0.836453 -5.93929e-17)
(18.9917 0.785408 5.72134e-17)
(16.7697 0.36753 0)
(14.8939 0.246026 1.07527e-16)
(12.873 -0.242045 5.23769e-17)
(11.1074 -0.479607 -1.01116e-16)
(10.218 -0.169189 0)
(8.64812 -0.163415 0)
(6.79933 -0.359095 -9.72359e-17)
(5.08456 0.182174 -4.67969e-17)
(2.2241 0.0837344 0)
(1.74563 -1.99084 0)
(1.41521 -1.08055 0)
(-0.778223 1.70713 0)
(-6.67927 2.3671 -9.70134e-17)
(-7.49179 1.8043 0)
(-8.36044 -0.932852 0)
(-7.38084 -2.62901 0)
(-4.79614 -0.690165 0)
(-6.83924 -0.131635 0)
(-7.99389 -0.278084 0)
(-8.55845 -1.2534 -8.90634e-17)
(-7.48668 -2.90701 0)
(-6.04079 -3.40167 0)
(-4.87624 -2.90502 -1.93222e-16)
(-4.99718 -2.19705 1.002e-16)
(-6.36322 -1.30995 -1.02211e-16)
(-8.64927 -0.996764 1.0202e-16)
(0.373767 5.624 0)
(0.925827 6.43457 -4.67048e-17)
(1.44544 6.09745 0)
(1.96112 5.33663 -2.29018e-17)
(2.34999 4.89395 0)
(2.72659 4.65826 0)
(3.27361 4.14736 2.27833e-17)
(4.01372 3.29314 0)
(4.92608 2.3074 0)
(6.01136 1.29865 0)
(7.15359 0.519393 0)
(8.33612 0.0722237 0)
(9.48685 -0.0812485 -8.8432e-17)
(10.623 0.0933911 -4.40529e-17)
(11.5766 0.391019 4.35402e-17)
(12.5229 0.96634 0)
(13.3427 1.75116 0)
(13.8587 2.4452 0)
(14.4382 3.10598 0)
(14.7748 3.46658 0)
(15.1486 3.46608 -4.15131e-17)
(15.7102 3.55759 -4.14934e-17)
(16.016 3.73448 4.09551e-17)
(16.4196 3.82165 -4.01183e-17)
(16.8862 4.38748 0)
(17.2198 5.00826 0)
(17.3514 5.29369 -3.8734e-17)
(17.5509 6.05226 0)
(18.0606 7.01594 0)
(17.6387 6.80084 -3.81774e-17)
(17.4776 5.86213 -3.66618e-17)
(17.5988 6.50728 -3.69777e-17)
(17.0273 6.36646 0)
(17.1665 5.28384 0)
(17.0083 5.37894 3.6934e-17)
(16.2693 3.65594 0)
(16.1821 1.43825 0)
(16.4192 1.96084 -3.47378e-17)
(15.7225 3.55322 3.58254e-17)
(14.6152 4.29516 -3.59627e-17)
(13.9895 4.6658 0)
(13.4816 4.80071 0)
(12.9346 4.6805 -7.10373e-17)
(12.3269 4.56833 0)
(11.7287 4.61057 -6.93754e-17)
(11.1837 4.66815 -1.02887e-16)
(10.7008 4.72345 1.0199e-16)
(10.2857 4.78656 -6.74797e-17)
(9.99734 4.92085 0)
(9.73042 5.06385 0)
(9.43838 5.08198 -6.56904e-17)
(9.04963 4.89062 -3.27133e-17)
(8.60434 4.58931 0)
(8.20581 4.33301 0)
(7.90748 4.15643 -3.25258e-17)
(7.62546 4.0003 -6.47185e-17)
(7.378 3.82928 0)
(7.14425 3.65314 6.38498e-17)
(6.84581 3.49203 -6.35833e-17)
(6.48306 3.23593 6.33648e-17)
(6.13531 3.01946 0)
(5.86165 2.70926 0)
(5.59307 2.43575 0)
(5.29415 2.17585 0)
(5.02851 1.91858 0)
(4.6901 1.73408 6.07036e-17)
(4.28877 1.64428 0)
(3.89529 1.5413 0)
(3.42311 1.46757 0)
(2.89356 1.41845 1.17238e-16)
(2.31739 1.356 5.81326e-17)
(1.70858 1.29695 5.76715e-17)
(1.05321 1.1694 -1.14428e-16)
(0.323733 1.05059 5.67836e-17)
(-0.442377 0.850476 -5.64334e-17)
(-1.21998 0.603499 0)
(-1.97449 0.281102 5.59004e-17)
(-2.70986 -0.0519677 0)
(-3.39946 -0.424362 0)
(-4.0026 -0.792104 0)
(-4.52016 -1.09496 1.10032e-16)
(-4.9709 -1.338 -5.4652e-17)
(-5.30894 -1.58462 -5.42541e-17)
(-5.62916 -1.84581 -1.07824e-16)
(-5.87363 -2.12903 -1.60458e-16)
(-6.04285 -2.39056 -5.3039e-17)
(-6.37177 -2.58883 0)
(-6.44395 -2.84929 -1.03975e-16)
(-6.66878 -2.74893 0)
(-6.59794 -2.77883 -1.52404e-16)
(-6.55253 -2.57003 0)
(-6.33453 -2.54804 -1.49099e-16)
(-6.27908 -2.69489 0)
(-6.22085 -2.70425 0)
(-6.00324 -3.05619 -4.96156e-17)
(-5.87955 -3.87801 0)
(-5.63098 -4.71614 4.89725e-17)
(-5.94482 -5.91634 9.5842e-17)
(-6.05601 -6.18208 4.79449e-17)
(-5.17177 -5.82405 9.37879e-17)
(-4.21456 -5.71479 -9.12152e-17)
(-3.59602 -5.52375 -9.03756e-17)
(-2.71387 -4.29985 1.78782e-16)
(-2.11298 -3.45365 0)
(-1.41158 -3.1231 0)
(-1.10291 -2.87785 8.84908e-17)
(-0.457142 -2.05197 -8.81241e-17)
(0.316827 -0.909426 0)
(0.322494 -0.574439 0)
(-0.192491 -0.945292 7.96446e-17)
(-0.97835 -1.26349 0)
(-1.38188 -1.70005 -3.91627e-21)
(-1.47144 -2.7189 -2.31671e-21)
(-1.94387 -3.4466 7.49965e-17)
(-1.87517 -3.26944 0)
(-2.50061 -2.53427 -7.80795e-17)
(-4.08714 -0.980333 0)
(-6.08041 0.824205 7.75393e-17)
(-7.71438 2.16735 0)
(-8.62544 2.50601 0)
(-8.3634 1.76878 -7.51232e-17)
(-7.65375 0.838811 -7.44203e-17)
(-8.11493 0.439395 0)
(-7.74535 -0.114744 -7.62446e-17)
(-7.0163 -0.454846 1.50604e-16)
(-5.55851 -0.425191 0)
(-4.37533 -0.501101 0)
(-3.7341 -2.11961 0)
(-1.46144 -4.99676 0)
(-1.10045 -4.75923 7.18142e-17)
(-0.0850605 -5.31762 -1.44896e-16)
(3.11606 -7.15744 0)
(4.71441 -6.76718 0)
(8.10176 -2.82179 0)
(11.0226 0.19368 0)
(12.4019 1.22271 0)
(11.7249 2.30262 0)
(13.9674 2.53387 0)