/*--------------------------------*- C++ -*----------------------------------*\
| =========                 |                                                 |
| \\      /  F ield         | OpenFOAM: The Open Source CFD Toolbox           |
|  \\    /   O peration     | Version:  dev                                   |
|   \\  /    A nd           | Web:      http://www.openfoam.org               |
|    \\/     M anipulation  |                                                 |
\*---------------------------------------------------------------------------*/
FoamFile
{
    version     2.0;
    format      ascii;
    class       volVectorField;
    object      U_0;
    location    "9.141";
}
// * * * * * * * * * * * * * * * * * * * * * * * * * * * * * * * * * * * * * //

dimensions      [0 1 -1 0 0 0 0];

internalField   nonuniform List<vector> 
12225
(
(6.15541 0.256545 0)
(2.15425 -0.0230234 0)
(-1.17449 -0.171104 0)
(-2.48821 -0.207233 0)
(-5.02474 -0.13433 0)
(-5.32319 -0.209611 0)
(-8.01672 -0.0672894 0)
(-8.09874 -0.198361 0)
(-10.7863 0.00480522 0)
(-10.8603 -0.182531 0)
(-13.9232 0.128889 0)
(-13.3263 -0.246993 0)
(-17.3055 0.299042 0)
(-16.7225 -0.0305017 0)
(-20.0214 0.101996 0)
(-21.6678 0.639035 0)
(-13.412 0.108507 0)
(-32.3399 16.4016 0)
(8.44686 0.478 0)
(7.44307 0.155908 0)
(3.12676 -0.218848 0)
(3.37434 -0.440616 0)
(-1.86949 -0.422836 0)
(0.43002 -0.555951 0)
(-5.58467 -0.326879 0)
(-2.17516 -0.638689 0)
(-8.30469 -0.150405 0)
(-4.7495 -0.456464 0)
(-11.4246 0.127482 0)
(-6.51322 -0.544352 0)
(-16.103 0.722141 0)
(-7.15646 -0.977696 0)
(-20.5869 1.19369 0)
(-11.7896 -1.95347 0)
(-17.1432 -3.17168 0)
(-39.7763 8.79387 0)
(8.00171 -0.389659 0)
(10.2469 -0.340609 0)
(4.45202 -0.646987 0)
(7.87405 -0.749411 0)
(-0.0325061 -0.767178 0)
(5.56421 -0.82822 0)
(-3.68465 -0.625046 0)
(2.99735 -1.05524 0)
(-5.41346 -0.313117 0)
(-0.233225 -0.915261 0)
(-6.30083 0.0165999 0)
(-4.19114 -0.476912 0)
(-7.88828 0.264163 0)
(-6.90381 0.37592 0)
(-15.0264 2.39169 0)
(-6.7536 -2.14106 0)
(-31.7563 6.57246 0)
(-29.6984 5.9483 0)
(5.78089 -0.99682 0)
(12.375 -0.783413 0)
(3.39785 -1.27201 0)
(10.2899 -1.21016 0)
(0.898422 -1.13672 0)
(8.27775 -1.38608 0)
(-1.29143 -0.839058 0)
(5.57989 -1.94621 0)
(-3.03008 -0.287226 0)
(3.30536 -2.00318 0)
(-4.85478 0.470799 0)
(0.130139 -1.87414 0)
(-6.61619 0.845466 0)
(-3.53505 -0.0963837 0)
(-6.20816 -0.4092 0)
(-9.5694 5.69798 0)
(-14.8696 4.25408 0)
(-24.2502 8.46378 0)
(4.54086 -1.54344 0)
(12.8345 -1.80365 0)
(4.58109 -1.73431 0)
(9.6258 -2.20716 0)
(3.03184 -1.57673 0)
(7.36936 -2.34689 0)
(0.899146 -0.923232 0)
(4.83851 -2.488 0)
(-1.34751 -0.521888 0)
(3.60935 -2.34776 0)
(-5.49932 0.745794 0)
(1.25682 -1.99177 0)
(-9.39964 1.60388 0)
(0.0538691 -2.36201 0)
(-10.6208 4.66769 0)
(-8.84962 1.25118 0)
(-7.02436 10.2826 0)
(-20.7179 17.1285 0)
(6.75737 -2.11879 0)
(9.62842 -2.97265 0)
(6.99399 -2.39182 0)
(6.35555 -2.98736 0)
(4.2797 -2.16179 0)
(3.4075 -2.87596 0)
(1.84043 -1.61925 0)
(2.12313 -3.08101 0)
(0.516087 -1.60301 0)
(-0.133811 -1.72755 0)
(-5.08041 -0.106776 0)
(-1.27416 -1.29216 0)
(-8.95708 0.213556 0)
(-1.56291 -0.552576 0)
(-14.905 4.09968 0)
(-7.32457 -0.52446 0)
(-5.95102 10.8053 0)
(-16.3224 14.3568 0)
(8.09953 -2.17705 0)
(7.47098 -4.71287 0)
(7.98147 -2.60894 0)
(5.13178 -3.89645 0)
(5.66731 -2.14601 0)
(2.48903 -4.00859 0)
(2.74288 -1.88542 0)
(1.01939 -4.35661 0)
(1.91544 -0.950288 0)
(-2.26905 -2.29029 0)
(-1.38181 -0.149301 0)
(-4.599 -2.85404 0)
(-2.25595 1.10918 0)
(-6.25128 -1.70269 0)
(-6.47856 7.01474 0)
(-8.24258 -4.27781 0)
(-9.11263 13.0182 0)
(-3.92586 17.0439 0)
(8.85576 -2.85086 0)
(7.197 -5.5816 0)
(7.33723 -3.43172 0)
(6.00653 -4.66805 0)
(6.02972 -3.0398 0)
(3.48638 -4.16317 0)
(3.15028 -2.81882 0)
(2.47231 -5.03844 0)
(1.62353 -1.92632 0)
(-0.677835 -2.12723 0)
(1.10301 -0.620388 0)
(-2.21196 -2.84214 0)
(-0.729414 -0.176492 0)
(-5.40545 -0.896621 0)
(-0.410122 4.6694 0)
(-5.67575 1.44001 0)
(-8.74155 8.39693 0)
(0.887163 8.20819 0)
(9.44686 -3.04208 0)
(7.30324 -6.49818 0)
(7.26136 -3.96183 0)
(6.21702 -5.72996 0)
(5.24446 -2.93618 0)
(3.69649 -5.13579 0)
(3.83147 -3.19467 0)
(2.3236 -5.77957 0)
(0.451389 -1.33591 0)
(0.638388 -3.52584 0)
(0.270746 -0.697873 0)
(-1.07595 -3.69986 0)
(-1.8453 1.06255 0)
(-2.38145 -2.25328 0)
(-3.02576 4.13229 0)
(-3.18665 1.0312 0)
(-5.10614 4.75649 0)
(-3.70704 7.58508 0)
(9.18132 -3.96063 0)
(7.93465 -6.93523 0)
(6.79337 -5.06162 0)
(5.84633 -6.02944 0)
(5.07487 -4.16845 0)
(4.67899 -5.43153 0)
(3.66897 -4.29948 0)
(2.24437 -5.03998 0)
(1.0044 -3.19295 0)
(1.10918 -3.43323 0)
(0.14464 -1.87738 0)
(-0.62776 -2.80988 0)
(-1.91278 -1.11848 0)
(-2.64638 -0.963656 0)
(-3.66975 3.08155 0)
(-2.8489 1.62542 0)
(-4.30302 5.29973 0)
(-3.63669 6.72223 0)
(9.60442 -4.36636 0)
(7.88339 -7.97609 0)
(7.29897 -5.52387 0)
(5.71237 -7.34456 0)
(5.51672 -4.81182 0)
(4.19833 -6.59317 0)
(3.64888 -4.50873 0)
(2.1159 -6.34759 0)
(1.8273 -3.37551 0)
(0.845283 -4.53616 0)
(0.743322 -2.56843 0)
(-0.255178 -3.57141 0)
(-0.785817 -0.949423 0)
(-2.05526 -1.42043 0)
(-2.34268 1.03662 0)
(-1.88882 1.90961 0)
(-2.23942 3.30517 0)
(-2.04817 5.61061 0)
(9.70741 -5.50576 0)
(8.09909 -8.34128 0)
(7.21358 -6.85438 0)
(5.84278 -7.51975 0)
(5.15864 -6.14155 0)
(4.27551 -6.73865 0)
(3.67952 -5.77786 0)
(2.69389 -6.04043 0)
(1.8751 -4.92951 0)
(1.59679 -4.65406 0)
(0.791343 -3.58377 0)
(0.113181 -3.38492 0)
(-0.545184 -2.09556 0)
(-0.894418 -1.33917 0)
(-1.31965 0.345037 0)
(-1.32096 1.16896 0)
(-1.20087 2.59452 0)
(-0.853739 3.94352 0)
(9.37808 -6.11346 0)
(8.28757 -9.09227 0)
(7.17111 -7.68667 0)
(6.04742 -8.58454 0)
(5.37288 -7.22334 0)
(4.56744 -7.84211 0)
(3.82736 -6.71573 0)
(3.03455 -7.14339 0)
(2.30342 -5.6684 0)
(1.69643 -5.44416 0)
(1.18503 -4.43454 0)
(0.700203 -3.98123 0)
(0.245317 -2.95614 0)
(-0.0696797 -2.0325 0)
(-0.187795 -0.921013 0)
(-0.0854945 0.262942 0)
(0.129691 1.12934 0)
(0.474906 2.35816 0)
(9.15611 -7.3018 0)
(8.47974 -9.73816 0)
(7.40448 -9.07355 0)
(6.39011 -9.0982 0)
(5.49935 -8.3791 0)
(4.72984 -8.27674 0)
(4.01978 -7.61907 0)
(3.34412 -7.39131 0)
(2.69597 -6.6563 0)
(2.29486 -6.08654 0)
(1.916 -5.42527 0)
(1.62183 -4.71332 0)
(1.3486 -3.85539 0)
(1.19086 -2.90643 0)
(1.16431 -1.90373 0)
(1.28033 -0.904915 0)
(1.46471 0.0641665 0)
(1.74912 0.996607 0)
(9.25968 -7.81537 0)
(8.35969 -10.3696 0)
(7.31464 -9.91082 0)
(6.41414 -9.78515 0)
(5.67103 -9.35325 0)
(5.05916 -9.11282 0)
(4.50015 -8.65338 0)
(4.02527 -8.29606 0)
(3.52688 -7.55737 0)
(3.12045 -6.94363 0)
(2.78991 -6.31603 0)
(2.53031 -5.57588 0)
(2.34499 -4.79779 0)
(2.29665 -4.00269 0)
(2.3411 -3.11124 0)
(2.49485 -2.23919 0)
(2.74896 -1.39516 0)
(3.15061 -0.537573 0)
(9.09993 -8.53314 0)
(8.41153 -10.9645 0)
(7.59458 -10.7747 0)
(6.86245 -10.5088 0)
(6.20428 -10.1484 0)
(5.62368 -9.7535 0)
(5.08765 -9.28834 0)
(4.61777 -8.76717 0)
(4.17356 -8.13285 0)
(3.92236 -7.54397 0)
(3.74049 -6.9646 0)
(3.60949 -6.31312 0)
(3.54749 -5.66845 0)
(3.57758 -5.00751 0)
(3.64415 -4.25901 0)
(3.85488 -3.55299 0)
(4.05646 -2.79437 0)
(4.34567 -2.02783 0)
(9.43467 -8.94743 0)
(8.75626 -11.1924 0)
(7.92764 -10.9674 0)
(7.14826 -10.7003 0)
(6.43522 -10.3643 0)
(5.87307 -9.97239 0)
(5.41281 -9.54432 0)
(5.08355 -9.08877 0)
(4.8365 -8.58735 0)
(4.74998 -8.09042 0)
(4.69579 -7.56693 0)
(4.69703 -6.97376 0)
(4.71426 -6.38874 0)
(4.80616 -5.7571 0)
(4.91183 -5.08513 0)
(5.11174 -4.47617 0)
(5.30869 -3.83606 0)
(5.57974 -3.19794 0)
(9.53931 -8.95626 0)
(9.02943 -11.1559 0)
(8.34285 -10.8229 0)
(7.70309 -10.4833 0)
(7.11496 -10.1564 0)
(6.67134 -9.82768 0)
(6.29265 -9.49367 0)
(6.03056 -9.13016 0)
(5.85047 -8.69728 0)
(5.7651 -8.23636 0)
(5.73388 -7.74604 0)
(5.78173 -7.20239 0)
(5.83255 -6.67904 0)
(5.98707 -6.14792 0)
(6.14247 -5.60367 0)
(6.37355 -5.12332 0)
(6.6465 -4.615 0)
(6.93195 -4.10565 0)
(9.80665 -8.13021 0)
(9.32139 -10.3221 0)
(8.59812 -10.0619 0)
(7.99243 -9.77897 0)
(7.49345 -9.47467 0)
(7.10937 -9.17729 0)
(6.79751 -8.88751 0)
(6.58469 -8.5751 0)
(6.42654 -8.22405 0)
(6.38434 -7.86627 0)
(6.42614 -7.46459 0)
(6.54423 -7.0326 0)
(6.68008 -6.61122 0)
(6.89435 -6.17364 0)
(7.10385 -5.72714 0)
(7.37665 -5.33724 0)
(7.65556 -4.91378 0)
(7.95225 -4.48727 0)
(9.6611 -7.42633 0)
(9.40675 -9.42444 0)
(8.80374 -9.22543 0)
(8.30738 -8.98094 0)
(7.88973 -8.69317 0)
(7.58124 -8.42894 0)
(7.36753 -8.16291 0)
(7.19423 -7.88122 0)
(7.07148 -7.60941 0)
(7.06808 -7.3448 0)
(7.10089 -7.0333 0)
(7.22283 -6.67447 0)
(7.38575 -6.31867 0)
(7.5912 -5.93664 0)
(7.82247 -5.53726 0)
(8.09643 -5.18348 0)
(8.38349 -4.82489 0)
(8.69402 -4.44295 0)
(9.81593 -6.60851 0)
(9.55294 -8.28535 0)
(8.99336 -8.15807 0)
(8.55051 -7.99429 0)
(8.19822 -7.76916 0)
(7.95536 -7.55183 0)
(7.75015 -7.3007 0)
(7.6168 -7.02881 0)
(7.55554 -6.8 0)
(7.53999 -6.56618 0)
(7.57664 -6.32075 0)
(7.69572 -6.05762 0)
(7.83012 -5.75784 0)
(8.04395 -5.48277 0)
(8.28171 -5.15309 0)
(8.55975 -4.84314 0)
(8.85406 -4.56704 0)
(9.1539 -4.212 0)
(9.5823 -5.72961 0)
(9.50758 -7.35325 0)
(9.09502 -7.24312 0)
(8.75004 -7.06821 0)
(8.47958 -6.86479 0)
(8.26848 -6.6249 0)
(8.06325 -6.38635 0)
(7.99892 -6.18382 0)
(7.97663 -5.97078 0)
(8.01112 -5.76174 0)
(8.10599 -5.58962 0)
(8.22493 -5.36214 0)
(8.4058 -5.12177 0)
(8.62713 -4.91051 0)
(8.83936 -4.62421 0)
(9.14042 -4.37484 0)
(9.3982 -4.14843 0)
(9.68185 -3.83052 0)
(9.9202 -4.91946 0)
(9.77444 -6.21943 0)
(9.36313 -6.16094 0)
(9.04004 -6.09999 0)
(8.79567 -5.94029 0)
(8.5825 -5.70483 0)
(8.43127 -5.53262 0)
(8.35903 -5.36901 0)
(8.31621 -5.16517 0)
(8.36602 -5.01542 0)
(8.44031 -4.87368 0)
(8.55492 -4.6566 0)
(8.76011 -4.49167 0)
(8.95994 -4.27298 0)
(9.19414 -4.04944 0)
(9.47707 -3.84534 0)
(9.73309 -3.63899 0)
(10.0192 -3.40493 0)
(9.86666 -4.13744 0)
(9.91398 -5.28895 0)
(9.60553 -5.29585 0)
(9.28866 -5.21318 0)
(8.98674 -5.01945 0)
(8.7848 -4.81878 0)
(8.68699 -4.63759 0)
(8.66168 -4.4734 0)
(8.72525 -4.33459 0)
(8.80042 -4.21215 0)
(8.88308 -4.09395 0)
(9.01229 -3.96436 0)
(9.16902 -3.81154 0)
(9.36712 -3.65461 0)
(9.59795 -3.47316 0)
(9.83866 -3.27593 0)
(10.1102 -3.10793 0)
(10.4185 -2.90502 0)
(9.40971 -3.45064 0)
(9.62266 -4.42759 0)
(9.48582 -4.40782 0)
(9.27065 -4.30556 0)
(9.05778 -4.17626 0)
(8.92745 -4.05564 0)
(8.84436 -3.93026 0)
(8.87705 -3.82047 0)
(8.93842 -3.69992 0)
(9.01752 -3.54746 0)
(9.14799 -3.42005 0)
(9.27272 -3.28987 0)
(9.43847 -3.13612 0)
(9.6743 -3.0253 0)
(9.90423 -2.88026 0)
(10.1512 -2.71895 0)
(10.449 -2.59534 0)
(10.7419 -2.42738 0)
(9.92123 -2.76473 0)
(10.0234 -3.69937 0)
(9.92627 -3.70555 0)
(9.77326 -3.59863 0)
(9.53614 -3.43776 0)
(9.33885 -3.29687 0)
(9.17862 -3.19041 0)
(9.09631 -3.08574 0)
(9.0435 -2.97544 0)
(9.05545 -2.87185 0)
(9.12126 -2.78835 0)
(9.22558 -2.6794 0)
(9.3841 -2.58446 0)
(9.60329 -2.47792 0)
(9.82766 -2.36899 0)
(10.0549 -2.25113 0)
(10.3254 -2.11361 0)
(10.612 -1.98744 0)
(9.69532 -2.19786 0)
(10.1154 -3.04369 0)
(10.1371 -3.02804 0)
(9.98027 -2.87981 0)
(9.71552 -2.71837 0)
(9.48669 -2.60237 0)
(9.27223 -2.50708 0)
(9.14106 -2.41405 0)
(9.03201 -2.32764 0)
(8.99766 -2.2266 0)
(8.96644 -2.16898 0)
(8.98278 -2.06773 0)
(9.03188 -1.98388 0)
(9.10124 -1.91593 0)
(9.21195 -1.83015 0)
(9.33779 -1.7244 0)
(9.50274 -1.61583 0)
(9.70284 -1.51947 0)
(9.99273 -1.77347 0)
(10.3178 -2.45206 0)
(10.0609 -2.35222 0)
(9.56378 -2.16829 0)
(9.02172 -2.00992 0)
(8.53478 -1.89204 0)
(8.08649 -1.81054 0)
(7.7488 -1.7405 0)
(7.44113 -1.66703 0)
(7.24684 -1.579 0)
(7.0885 -1.51323 0)
(6.99572 -1.42179 0)
(6.93913 -1.35215 0)
(6.9213 -1.28725 0)
(6.95161 -1.21794 0)
(7.00252 -1.14311 0)
(7.11225 -1.07579 0)
(7.25115 -1.01608 0)
(9.63866 -1.55008 0)
(9.6161 -1.94516 0)
(8.66271 -1.7271 0)
(7.46722 -1.49081 0)
(6.39275 -1.28842 0)
(5.50923 -1.12946 0)
(4.7958 -1.02598 0)
(4.27504 -0.960834 0)
(3.86778 -0.914005 0)
(3.60636 -0.8588 0)
(3.41567 -0.812919 0)
(3.3248 -0.772679 0)
(3.28891 -0.732371 0)
(3.31651 -0.694957 0)
(3.39887 -0.663889 0)
(3.50671 -0.625518 0)
(3.67395 -0.596168 0)
(3.85125 -0.568113 0)
(8.30473 -0.684083 0)
(5.71607 -0.73441 0)
(3.44562 -0.47167 0)
(1.86091 -0.341593 0)
(0.857209 -0.294205 0)
(0.192307 -0.282516 0)
(-0.261703 -0.285884 0)
(-0.558685 -0.286083 0)
(-0.766408 -0.28335 0)
(-0.885372 -0.272066 0)
(-0.937081 -0.261515 0)
(-0.919425 -0.249085 0)
(-0.850349 -0.234211 0)
(-0.72896 -0.223156 0)
(-0.570187 -0.212441 0)
(-0.389753 -0.195164 0)
(-0.142475 -0.197631 0)
(0.0327672 -0.149535 0)
(-0.0015177 1.48952 0)
(-0.0658994 1.32457 0)
(0.0316541 1.22713 0)
(0.280562 1.07233 0)
(0.703231 0.942552 0)
(1.20216 0.854461 0)
(1.77777 0.779144 1.11736e-17)
(2.38546 0.708176 -1.10928e-17)
(3.09016 0.622643 0)
(3.88072 0.543916 -1.0942e-17)
(4.75175 0.47066 0)
(5.71921 0.406966 0)
(6.76983 0.392438 0)
(7.83368 0.442317 1.06587e-17)
(8.82245 0.446365 0)
(9.75671 0.439053 0)
(10.6748 0.531747 -1.04063e-17)
(11.428 0.667491 0)
(12.0662 0.745155 0)
(12.7067 0.778937 0)
(13.2333 0.854957 1.01003e-17)
(13.7361 0.915979 0)
(14.1889 0.951324 9.9533e-18)
(14.4822 1.10898 0)
(14.7491 1.23044 0)
(14.7796 1.37154 9.74884e-18)
(14.6469 1.63609 0)
(14.4161 1.74145 -9.66138e-18)
(13.8169 1.8086 0)
(13.3188 1.56404 9.72049e-18)
(13.0749 0.859125 0)
(12.8926 0.538162 0)
(12.8579 0.61008 0)
(12.9881 0.646477 0)
(13.3501 0.61028 0)
(13.8208 0.605197 -9.09414e-18)
(14.368 0.638265 0)
(15.0611 0.686825 1.78967e-17)
(15.7687 0.83972 0)
(16.1428 1.08079 -1.78208e-17)
(16.242 1.12162 0)
(16.4979 0.968893 0)
(16.9591 0.706549 1.75193e-17)
(17.3688 0.38392 0)
(17.5321 0.108953 1.75954e-17)
(17.5716 0.0411646 -1.75671e-17)
(17.6365 0.160843 0)
(17.6853 0.325038 -1.74017e-17)
(17.6563 0.442178 -1.72859e-17)
(17.5156 0.481738 0)
(17.3508 0.501538 0)
(17.1997 0.465658 0)
(16.9607 0.426281 0)
(16.6705 0.361559 0)
(16.352 0.345033 1.65136e-17)
(15.9198 0.354604 0)
(15.4261 0.392714 -1.62688e-17)
(14.8993 0.424804 0)
(14.2666 0.447611 0)
(13.5998 0.482122 1.5886e-17)
(12.8888 0.490224 0)
(12.1479 0.453282 -1.56057e-17)
(11.3267 0.446739 0)
(10.5238 0.415596 0)
(9.66073 0.403951 0)
(8.8033 0.432702 1.5085e-17)
(7.98815 0.432231 0)
(7.13602 0.413108 0)
(6.2737 0.384971 1.47263e-17)
(5.40932 0.352725 0)
(4.54555 0.334851 1.44983e-17)
(3.66104 0.316564 0)
(2.7647 0.304574 0)
(1.86838 0.296538 0)
(0.982194 0.273604 -1.40349e-17)
(0.133217 0.244937 0)
(-0.680524 0.202071 0)
(-1.43891 0.143077 -1.36533e-17)
(-2.14326 0.0872285 -1.35105e-17)
(-2.79844 0.0396477 0)
(-3.41402 0.00448644 -1.32143e-17)
(-4.0167 -0.0294768 0)
(-4.60124 -0.0647551 -2.58707e-17)
(-5.14517 -0.0987818 0)
(-5.60707 -0.137311 -2.53701e-17)
(-5.99139 -0.20132 0)
(-6.27982 -0.243326 2.4899e-17)
(-6.49098 -0.290321 0)
(-6.68789 -0.263729 0)
(-6.95863 -0.231659 0)
(-7.32309 -0.239926 -2.40282e-17)
(-7.72606 -0.259188 0)
(-7.9626 -0.271416 2.3515e-17)
(-8.12431 -0.279582 0)
(-8.25366 -0.378169 -2.30862e-17)
(-8.11502 -0.465618 -2.29636e-17)
(-7.66115 -0.599228 -2.28739e-17)
(-6.75851 -0.727545 0)
(-5.83901 -0.572961 0)
(-5.17683 -0.539059 0)
(-4.56213 -0.507585 0)
(-3.95486 -0.379283 0)
(-3.65045 -0.2416 0)
(-3.69224 -0.0878348 0)
(-3.85088 -0.126777 0)
(-4.08666 -0.23489 2.16952e-17)
(-4.35588 -0.19647 2.16762e-17)
(-4.64606 -0.170373 0)
(-4.90647 -0.261554 0)
(-5.11556 -0.264831 0)
(-5.25043 -0.194921 1.97968e-17)
(-5.16158 -0.242016 0)
(-4.62942 -0.285732 0)
(-3.76685 -0.215162 0)
(-3.02156 -0.264449 0)
(-2.1494 -0.454319 -2.00144e-17)
(-0.981524 -0.477519 0)
(0.143282 -0.659077 0)
(1.16083 -0.832203 2.00668e-17)
(1.25747 -0.505182 -2.00828e-17)
(0.369543 0.173758 0)
(-1.23565 0.714852 -1.99435e-17)
(-2.38423 0.418851 0)
(-2.92553 0.214304 1.93046e-17)
(-3.39578 0.342683 0)
(-3.42768 0.247716 0)
(-3.46396 0.220487 0)
(-3.40346 0.132871 0)
(-2.11193 -0.219165 0)
(0.583719 -0.641376 -3.64733e-17)
(3.63402 -0.693779 -3.59468e-17)
(6.65507 -1.02134 0)
(10.5718 -0.227676 0)
(11.643 0.813216 0)
(10.0185 0.591014 3.59478e-17)
(9.50225 0.0938591 0)
(9.85649 -0.0736278 0)
(10.4212 0.239564 0)
(9.79577 0.350964 3.52373e-17)
(8.70791 0.496736 -3.46409e-17)
(9.81765 0.105758 0)
(9.76523 0.560535 0)
(8.31357 0.717572 -3.4198e-17)
(11.1018 -0.471328 -3.39239e-17)
(15.2258 -0.492796 0)
(17.554 0.275462 0)
(17.3309 0.463057 3.26581e-17)
(16.6725 0.363083 -3.23959e-17)
(15.7748 0.417592 0)
(14.9713 0.338572 0)
(13.1577 0.324899 -3.13772e-17)
(11.7987 0.0975259 0)
(10.3799 0.0637058 0)
(9.21891 0.107254 -3.0057e-17)
(7.87728 0.109489 0)
(6.73697 0.136823 -2.93494e-17)
(5.52922 0.112548 0)
(4.45368 0.058972 0)
(3.2586 0.155945 0)
(2.03697 0.168767 2.79241e-17)
(1.34981 0.113375 0)
(0.0405897 0.266322 0)
(-1.57845 0.444789 0)
(-2.03006 0.519063 0)
(-1.13091 0.224364 0)
(-1.60573 0.43785 0)
(-2.98087 0.524768 2.70982e-17)
(-4.61495 0.94734 2.66942e-17)
(-6.89971 0.488918 0)
(-5.75005 -0.0127745 0)
(-5.07693 -0.0343411 0)
(-5.37844 -0.0648092 -2.64943e-17)
(-5.87561 0.119748 0)
(-6.80405 0.171291 5.27168e-17)
(-6.54712 -0.0664086 -5.21585e-17)
(-5.10207 -0.332174 -5.22431e-17)
(-3.58184 -0.300508 5.27895e-17)
(-2.39382 -0.398424 -5.32022e-17)
(-1.65636 -0.416288 5.35307e-17)
(-1.30956 -0.418594 0)
(0.235675 4.15767 0)
(0.315221 4.12538 0)
(0.45522 3.61239 -2.30049e-17)
(0.751591 3.07643 0)
(1.17457 2.68486 2.26992e-17)
(1.63788 2.46041 2.25404e-17)
(2.13457 2.27887 1.12209e-17)
(2.70353 2.07213 1.11458e-17)
(3.40618 1.7862 0)
(4.23951 1.49995 1.10598e-17)
(5.20272 1.24947 0)
(6.23933 0.999456 0)
(7.32603 0.780466 -2.18303e-17)
(8.44213 0.848569 -1.08172e-17)
(9.61523 1.0944 2.15936e-17)
(10.6255 1.14567 2.14584e-17)
(11.4726 1.33803 1.05644e-17)
(12.2478 1.7801 0)
(12.929 1.82723 0)
(13.5473 2.00082 0)
(14.0894 2.23921 1.02019e-17)
(14.6776 2.05498 0)
(15.1984 2.36995 -3.0115e-17)
(15.6003 2.61409 0)
(16.0783 2.5873 0)
(16.3414 3.40041 -9.81962e-18)
(16.5371 3.42454 0)
(16.6019 3.54595 9.47295e-18)
(16.5602 4.489 1.92379e-17)
(16.5735 3.81633 -9.41311e-18)
(16.019 3.46709 0)
(15.5372 3.80138 0)
(15.2246 3.17144 0)
(14.8717 2.47687 1.86063e-17)
(14.9841 1.77608 1.8374e-17)
(15.1388 1.31517 8.96453e-18)
(15.3149 1.07714 0)
(15.6281 0.695933 -1.71114e-17)
(16.2365 0.621807 0)
(17.2262 1.22125 1.70006e-17)
(18.037 1.45873 0)
(18.074 0.931411 0)
(17.8301 0.756441 -1.65806e-17)
(17.9487 1.39531 0)
(17.9669 2.01698 -5.15182e-17)
(17.5465 2.14909 1.75956e-17)
(17.0309 2.07984 0)
(16.5284 2.0076 1.74389e-17)
(15.9892 1.97078 1.72578e-17)
(15.4283 1.9453 0)
(14.8153 1.97492 0)
(14.1386 2.00496 0)
(13.3053 2.00302 0)
(12.4608 1.9706 0)
(11.7077 1.95782 -1.61567e-17)
(10.8919 1.94819 -3.20379e-17)
(10.1233 1.91542 1.58963e-17)
(9.36951 1.8407 0)
(8.59352 1.73794 -3.12938e-17)
(7.88854 1.69984 1.55276e-17)
(7.13016 1.62247 0)
(6.4142 1.54096 1.53231e-17)
(5.62486 1.47107 0)
(4.91149 1.35568 0)
(4.26237 1.22259 3.02227e-17)
(3.59981 1.15073 -1.50394e-17)
(2.90943 0.977116 2.99109e-17)
(2.23597 0.872788 -2.97358e-17)
(1.54096 0.773729 -1.47728e-17)
(0.836623 0.697652 0)
(0.100123 0.64015 -1.45625e-17)
(-0.657067 0.561293 0)
(-1.41098 0.487911 0)
(-2.16921 0.385642 0)
(-2.90741 0.262895 -1.40668e-17)
(-3.60385 0.123308 0)
(-4.2681 -0.0313121 -2.74723e-17)
(-4.86156 -0.171216 4.06549e-17)
(-5.40325 -0.298285 1.33641e-17)
(-5.88186 -0.40167 0)
(-6.29359 -0.482434 1.29828e-17)
(-6.67278 -0.562088 0)
(-6.99581 -0.632507 2.52285e-17)
(-7.26762 -0.736334 0)
(-7.47749 -0.902429 2.46669e-17)
(-7.62661 -1.08413 -4.88999e-17)
(-7.70187 -1.20722 -2.4251e-17)
(-7.686 -1.31873 0)
(-7.69846 -1.20141 0)
(-7.78488 -1.08522 0)
(-7.8821 -1.01965 2.2783e-17)
(-8.0873 -1.08175 0)
(-8.24405 -1.27529 -2.25456e-17)
(-8.25515 -1.29484 0)
(-8.46016 -1.51722 6.79413e-17)
(-8.31301 -1.83325 2.30084e-17)
(-7.92293 -2.32883 2.3448e-17)
(-7.02816 -2.88337 0)
(-5.80193 -2.42849 0)
(-4.78123 -2.22219 0)
(-4.04128 -2.24674 0)
(-2.95385 -1.99589 0)
(-2.15342 -1.4919 4.32486e-17)
(-1.96203 -1.14564 4.23464e-17)
(-1.6697 -0.896974 0)
(-1.50914 -0.693148 -2.04368e-17)
(-1.87292 -0.581478 -2.03146e-17)
(-2.50707 -0.520594 0)
(-3.12462 -0.454042 -4.10351e-17)
(-3.50765 -0.456537 0)
(-3.60658 -0.702923 1.84671e-17)
(-3.61914 -1.12018 0)
(-3.37778 -1.62918 0)
(-2.55558 -1.86357 -3.63656e-17)
(-1.63769 -1.75524 0)
(-0.898407 -1.79122 1.89284e-17)
(0.106989 -1.89287 0)
(0.233775 -1.44713 0)
(-1.07235 -0.280783 1.9823e-17)
(-3.25539 0.955922 1.98724e-17)
(-5.16868 1.40153 0)
(-5.96033 1.15169 -1.89798e-17)
(-6.38058 0.841122 0)
(-6.58261 0.690741 1.86883e-17)
(-6.23398 0.237685 3.68376e-17)
(-5.88063 0.041612 0)
(-5.89645 0.108343 0)
(-5.58203 -0.524066 0)
(-3.61549 -2.1083 0)
(-0.639964 -3.05367 3.66017e-17)
(1.65155 -2.78892 1.05661e-16)
(4.51588 -3.49569 0)
(7.46685 -2.21072 0)
(11.3624 0.558347 0)
(10.9846 1.33146 -3.46597e-17)
(10.7438 1.12715 0)
(10.1017 0.639311 0)
(9.16413 0.883149 6.96374e-17)
(8.46817 1.18393 3.46451e-17)
(7.81219 0.786255 3.34431e-17)
(10.1502 -0.0976658 0)
(9.74715 0.751135 0)
(8.56646 -0.234013 3.54211e-17)
(11.96 -3.79604 -3.49099e-17)
(15.3492 -3.85212 0)
(19.9002 -1.10149 0)
(20.2456 0.0454854 -3.17782e-17)
(19.9971 0.175449 9.51054e-17)
(19.0706 0.302552 0)
(19.8307 0.414376 0)
(18.4817 0.872862 3.07717e-17)
(17.2127 0.760881 0)
(15.1667 0.551153 5.88333e-17)
(13.2548 0.345864 -2.84893e-17)
(11.297 0.165056 0)
(9.76425 -0.0154777 2.72117e-17)
(8.26913 0.0142139 5.36703e-17)
(7.14286 -0.0776401 0)
(5.92333 0.00424659 0)
(4.4046 -0.111268 -2.53032e-17)
(3.39523 -0.11885 0)
(1.88094 0.465475 4.94748e-17)
(-0.227499 0.112192 0)
(0.103785 -1.19368 0)
(1.62744 -0.927084 0)
(0.139311 0.0518345 0)
(-3.76926 0.845895 -2.45593e-17)
(-5.87026 1.0238 -2.36827e-17)
(-7.79268 -0.180836 0)
(-5.11258 -1.31232 0)
(-4.57633 -0.237322 0)
(-5.75406 0.0556128 2.4334e-17)
(-6.6479 0.21428 0)
(-7.36035 -0.268634 -4.7663e-17)
(-6.32377 -1.26891 4.68152e-17)
(-4.29359 -1.75669 4.76396e-17)
(-2.53641 -1.54285 4.9136e-17)
(-1.70557 -1.38554 5.0482e-17)
(-1.91555 -0.987 5.16336e-17)
(-3.03806 -0.755204 0)
(0.340055 5.93725 0)
(0.733875 6.35779 0)
(1.05999 5.92016 2.30998e-17)
(1.42229 5.19194 2.30635e-17)
(1.81736 4.65088 -2.28438e-17)
(2.16791 4.36551 -2.27155e-17)
(2.56526 4.10654 3.59956e-20)
(3.13677 3.65814 0)
(3.89943 3.02357 0)
(4.83937 2.3732 0)
(5.93627 1.90801 0)
(7.11825 1.62262 0)
(8.29788 1.38271 6.71538e-17)
(9.40122 1.25434 0)
(10.5134 1.50308 -2.194e-17)
(11.6324 2.07501 -2.20191e-17)
(12.3661 2.47819 0)
(13.0654 2.9119 0)
(13.7909 3.38086 0)
(14.1277 3.55196 0)
(14.6928 3.60285 -2.07374e-17)
(15.2836 3.78301 0)
(15.5455 3.86808 2.03505e-17)
(16.253 4.03561 0)
(16.6561 4.65713 0)
(16.7068 4.84392 0)
(17.353 5.44413 3.91534e-17)
(17.2984 6.38179 0)
(17.0648 5.79674 -1.89618e-17)
(17.3014 6.52546 3.78348e-17)
(17.049 7.38709 0)
(16.9465 5.79804 0)
(16.7557 5.38424 0)
(16.709 5.03479 -1.83678e-17)
(16.6131 3.54095 -1.81409e-17)
(16.1948 2.9957 0)
(16.7589 3.13046 0)
(17.6538 2.6863 3.54197e-17)
(17.3717 1.56646 3.52772e-17)
(16.9235 1.57134 -3.48774e-17)
(16.7885 2.83653 0)
(16.0705 3.81416 0)
(15.201 4.03573 0)
(14.6226 3.99876 0)
(14.2038 3.99336 3.5081e-17)
(13.7514 3.94041 3.49057e-17)
(13.3182 3.92467 -3.45431e-17)
(12.8266 3.93414 0)
(12.2476 3.98808 0)
(11.5542 4.02491 0)
(10.8463 3.97983 0)
(10.1246 3.89386 3.2853e-17)
(9.46196 3.79964 0)
(8.89123 3.70186 0)
(8.34966 3.53749 3.23184e-17)
(7.83043 3.3726 3.21532e-17)
(7.28829 3.17741 0)
(6.72078 2.97366 -6.37595e-17)
(6.19513 2.86996 3.17229e-17)
(5.56945 2.78208 -3.1575e-17)
(4.99604 2.63486 0)
(4.56735 2.41139 0)
(4.1015 2.15889 0)
(3.68332 1.98647 0)
(3.23365 1.76085 -3.09206e-17)
(2.76609 1.618 -6.14982e-17)
(2.26056 1.44212 -3.05966e-17)
(1.74278 1.31745 3.04265e-17)
(1.11655 1.20592 0)
(0.475308 1.09053 -5.99875e-17)
(-0.250412 0.989588 -5.94989e-17)
(-0.996458 0.887597 -5.89978e-17)
(-1.76506 0.748471 5.84504e-17)
(-2.58566 0.602405 0)
(-3.37046 0.402637 8.59007e-17)
(-4.1534 0.177351 0)
(-4.88385 -0.0634387 -2.80544e-17)
(-5.56394 -0.320207 -2.78395e-17)
(-6.1793 -0.556868 0)
(-6.67992 -0.792042 0)
(-7.09403 -0.968519 -5.40671e-17)
(-7.44455 -1.1225 0)
(-7.69853 -1.26261 -5.28488e-17)
(-7.91006 -1.43619 0)
(-8.042 -1.68494 5.20171e-17)
(-8.15535 -1.91819 1.03367e-16)
(-8.29737 -2.11863 0)
(-8.28232 -2.3051 0)
(-8.35817 -2.14 0)
(-8.23632 -2.02412 4.81022e-17)
(-8.1188 -1.79692 0)
(-8.07484 -1.81942 4.68571e-17)
(-8.1834 -2.09977 0)
(-8.15927 -1.98496 0)
(-8.38873 -2.24058 -9.72524e-17)
(-8.43758 -2.83881 0)
(-8.1455 -3.76251 -5.08605e-17)
(-7.75137 -4.78663 0)
(-6.80843 -4.32504 -4.95029e-17)
(-5.50763 -3.84095 0)
(-4.70416 -3.8401 0)
(-3.57522 -3.68993 0)
(-2.445 -2.70344 -1.36762e-16)
(-2.07401 -1.96358 -4.48162e-17)
(-1.46618 -1.82416 0)
(-0.974276 -1.58425 0)
(-0.554106 -0.754154 0)
(-0.603543 -0.442784 0)
(-1.3475 -0.782686 3.9313e-17)
(-1.99087 -1.02068 -7.80427e-17)
(-2.2783 -1.0233 -3.72582e-17)
(-2.60094 -1.352 7.35508e-17)
(-2.76269 -2.03884 7.48431e-17)
(-2.50216 -2.4664 3.7941e-17)
(-1.8694 -2.38473 0)
(-1.418 -2.56047 7.77598e-17)
(-1.76799 -1.92364 0)
(-3.23037 -0.230129 -7.76932e-17)
(-5.17174 1.28235 -3.91104e-17)
(-7.12484 2.09704 0)
(-8.18218 1.97655 7.54776e-17)
(-7.99482 1.3325 3.71821e-17)
(-8.04909 0.817908 0)
(-7.63723 0.317805 3.72417e-17)
(-6.93818 -0.0821906 -1.10116e-16)
(-6.524 0.125366 0)
(-6.21498 0.296337 0)
(-5.57175 -0.994204 0)
(-3.41753 -3.49314 0)
(-1.60683 -3.98771 -7.34451e-17)
(-0.774224 -3.79426 -7.06492e-17)
(2.67235 -4.70568 0)
(4.40111 -4.00955 0)
(9.76996 0.104656 0)
(10.2653 1.47471 0)
(11.5162 1.50599 0)
(10.6162 1.54507 0)
(9.6426 1.95804 -7.00326e-17)
(8.99566 1.39041 1.67202e-20)
(9.27183 0.694492 0)
(12.6676 -0.537239 0)
(14.224 1.24132 -6.44771e-17)
(13.036 0.37705 0)
(14.7107 -5.15061 7.01645e-17)
(15.555 -6.94354 6.79656e-17)
(20.4397 -2.30822 0)
(21.0107 0.113479 0)
(20.5669 0.696651 -6.35074e-17)
(18.7506 0.195851 -1.30575e-16)
(20.3423 -0.113392 0)
(20.2894 1.08405 0)
(19.5233 1.03457 0)
(18.0928 1.12135 -5.90825e-17)
(16.4424 1.06535 5.69087e-17)
(14.2225 0.657902 0)
(12.3968 0.581585 1.06976e-16)
(10.4161 0.124891 5.21029e-17)
(8.78002 -0.0656447 -1.00634e-16)
(8.02884 0.28915 0)
(6.61472 0.326768 0)
(4.9214 0.214473 -9.68062e-17)
(3.42138 0.734461 -4.65666e-17)
(0.888894 0.63706 0)
(0.729061 -1.39456 0)
(0.724253 -0.39514 0)
(-1.13689 2.35843 0)
(-6.63409 2.95209 -9.6671e-17)
(-7.09531 2.39435 0)
(-7.61824 -0.340691 0)
(-6.3188 -2.04829 0)
(-3.52837 -0.254464 0)
(-5.18453 0.312648 0)
(-6.11057 0.161342 0)
(-6.54909 -0.753171 -8.88393e-17)
(-5.40297 -2.37148 0)
(-3.83509 -2.88645 0)
(-2.5531 -2.41783 -1.92489e-16)
(-2.59484 -1.74474 9.9856e-17)
(-3.95939 -0.843357 -1.01865e-16)
(-6.26829 -0.500969 1.01719e-16)
(0.34763 7.4387 0)
(0.884426 8.16627 -4.71044e-17)
(1.39678 7.80553 0)
(1.90325 7.02873 -2.30872e-17)
(2.28015 6.58403 0)
(2.65559 6.32938 0)
(3.21408 5.77405 2.2977e-17)
(3.97023 4.87206 0)
(4.90059 3.84862 0)
(6.00154 2.82164 0)
(7.15611 2.04916 0)
(8.34045 1.62609 0)
(9.48411 1.51211 -8.91039e-17)
(10.6 1.72703 -4.43671e-17)
(11.5341 2.05901 4.38565e-17)
(12.46 2.69739 0)
(13.2277 3.51737 0)
(13.7056 4.19203 0)
(14.2528 4.82998 0)
(14.5663 5.10886 0)
(14.9591 5.05114 -4.17942e-17)
(15.5045 5.16526 -4.17725e-17)
(15.7986 5.32393 4.1114e-17)
(16.2206 5.43466 -4.02875e-17)
(16.6835 6.05406 0)
(16.9968 6.63203 0)
(17.118 6.93126 -3.89062e-17)
(17.3685 7.75181 0)
(17.8077 8.62026 0)
(17.3144 8.19022 -3.82047e-17)
(17.2291 7.32521 -3.68005e-17)
(17.2869 8.0646 -3.7318e-17)
(16.7326 7.66351 0)
(16.9065 6.58722 0)
(16.6574 6.61604 3.71982e-17)
(15.9585 4.5793 0)
(15.9211 2.57951 0)
(16.0388 3.49579 -3.51139e-17)
(15.1887 5.10722 3.61665e-17)
(14.0775 5.69008 -3.61687e-17)
(13.4982 5.95655 0)
(13.0189 5.99201 0)
(12.485 5.79689 -7.12471e-17)
(11.8761 5.64929 0)
(11.2799 5.65081 -6.95313e-17)
(10.7357 5.65124 -1.03156e-16)
(10.2466 5.6461 1.02283e-16)
(9.82219 5.65246 -6.76629e-17)
(9.51759 5.73021 0)
(9.22819 5.81045 0)
(8.90828 5.76051 -6.58552e-17)
(8.48388 5.50308 -3.28096e-17)
(7.99989 5.14444 0)
(7.55968 4.83603 0)
(7.21438 4.60787 -3.26016e-17)
(6.87737 4.39879 -6.48336e-17)
(6.56826 4.17751 0)
(6.2672 3.9532 6.39443e-17)
(5.89428 3.74209 -6.36581e-17)
(5.45578 3.43577 6.34303e-17)
(5.03001 3.17106 0)
(4.67158 2.81539 0)
(4.31706 2.49966 0)
(3.93156 2.19785 0)
(3.58025 1.90171 0)
(3.15893 1.6806 6.0671e-17)
(2.68797 1.54359 0)
(2.21 1.40522 0)
(1.63913 1.30555 0)
(1.0301 1.22729 1.17111e-16)
(0.404002 1.11318 5.80596e-17)
(-0.275249 1.03074 5.75879e-17)
(-1.01295 0.87418 -1.14245e-16)
(-1.79234 0.725119 5.6685e-17)
(-2.60312 0.497129 -5.63284e-17)
(-3.42113 0.225541 0)
(-4.21023 -0.119137 5.57767e-17)
(-4.97518 -0.471641 0)
(-5.69165 -0.861097 0)
(-6.31306 -1.24584 0)
(-6.83834 -1.56392 1.09763e-16)
(-7.28789 -1.81548 -5.45187e-17)
(-7.61398 -2.06205 -5.41264e-17)
(-7.91021 -2.31714 -1.07548e-16)
(-8.12106 -2.59188 -1.60032e-16)
(-8.24047 -2.84636 -5.2888e-17)
(-8.51779 -3.03498 0)
(-8.5328 -3.29073 -1.03688e-16)
(-8.69503 -3.17936 0)
(-8.56174 -3.18376 -1.51909e-16)
(-8.43478 -2.94278 0)
(-8.12764 -2.87327 -1.48504e-16)
(-7.98103 -2.98926 0)
(-7.83416 -2.95422 0)
(-7.51844 -3.24724 -4.94527e-17)
(-7.30588 -4.01912 0)
(-6.91148 -4.83663 4.89356e-17)
(-7.07829 -6.04158 9.58394e-17)
(-7.08426 -6.29309 4.78721e-17)
(-6.08835 -5.88986 9.37012e-17)
(-5.00898 -5.73854 -9.11603e-17)
(-4.27385 -5.52847 -9.02956e-17)
(-3.28925 -4.28461 1.78438e-16)
(-2.60999 -3.39806 0)
(-1.81952 -3.03788 0)
(-1.43534 -2.77206 8.835e-17)
(-0.725671 -1.92575 -8.79603e-17)
(0.12168 -0.772811 0)
(0.198742 -0.437306 0)
(-0.2753 -0.795413 7.9498e-17)
(-1.04761 -1.09758 0)
(-1.42657 -1.5407 3.91167e-20)
(-1.49428 -2.54651 4.01563e-20)
(-1.95949 -3.27312 7.49155e-17)
(-1.88308 -3.10257 0)
(-2.50099 -2.3904 -7.79891e-17)
(-4.09435 -0.871105 0)
(-6.12159 0.924473 7.74727e-17)
(-7.79835 2.28233 0)
(-8.76138 2.64697 0)
(-8.55976 1.92925 -7.51507e-17)
(-7.88371 0.992094 -7.43934e-17)
(-8.41449 0.58433 0)
(-8.15394 0.0287769 -7.62495e-17)
(-7.51168 -0.318855 1.50646e-16)
(-6.14271 -0.267772 0)
(-5.01171 -0.318889 0)
(-4.44907 -1.91948 0)
(-2.27429 -4.78642 0)
(-1.91935 -4.61379 7.18932e-17)
(-1.01418 -5.13049 -1.44829e-16)
(2.15914 -6.88917 0)
(3.69586 -6.37797 0)
(7.11416 -2.32581 0)
(9.9028 0.665348 0)
(11.1511 1.66574 0)
(10.4696 2.75703 0)
(12.7006 2.92054 0)
(11.736 1.8539 7.09481e-17)
(10.7454 -0.035742 0)
(11.9744 -2.54533 0)
(14.6959 0.311777 6.37554e-17)