/*--------------------------------*- C++ -*----------------------------------*\
| =========                 |                                                 |
| \\      /  F ield         | OpenFOAM: The Open Source CFD Toolbox           |
|  \\    /   O peration     | Version:  dev                                   |
|   \\  /    A nd           | Web:      http://www.openfoam.org               |
|    \\/     M anipulation  |                                                 |
\*---------------------------------------------------------------------------*/
FoamFile
{
    version     2.0;
    format      ascii;
    class       volVectorField;
    object      UMean;
    location    "9.141";
}
// * * * * * * * * * * * * * * * * * * * * * * * * * * * * * * * * * * * * * //

dimensions      [0 1 -1 0 0 0 0];

internalField   nonuniform List<vector> 
12225
(
(7.00368 0.430272 0)
(4.43881 0.192553 0)
(2.55671 0.0311602 0)
(2.51082 -0.0166622 0)
(1.38435 0.0193747 0)
(2.26728 -0.0342871 0)
(0.989433 0.0489938 0)
(2.18249 -0.0591846 0)
(0.797418 0.0716675 0)
(2.29169 -0.0978614 0)
(0.688682 0.0993785 0)
(2.74361 -0.138646 0)
(0.948193 0.102608 0)
(3.39715 -0.172139 0)
(3.53211 -0.168542 0)
(4.69641 0.049984 0)
(14.8477 -2.43438 0)
(7.11973 5.13416 0)
(9.54628 0.981585 0)
(9.54342 0.860884 0)
(6.68671 0.466297 0)
(7.59034 0.214547 0)
(4.09025 0.14033 0)
(6.84306 0.0107801 0)
(2.66476 0.132688 0)
(6.68915 -0.0903641 0)
(1.82234 0.14188 0)
(7.03904 -0.165113 0)
(1.26044 0.123935 0)
(8.1217 -0.414517 0)
(1.38509 0.252419 0)
(9.95563 -1.44262 0)
(3.43566 0.271569 0)
(12.3903 -4.06873 0)
(10.431 -1.92845 0)
(7.77672 0.486145 0)
(9.11846 0.763492 0)
(12.1669 0.951404 0)
(8.32943 0.623991 0)
(11.8321 0.443413 0)
(6.22561 0.31034 0)
(11.4131 0.206431 0)
(4.58218 0.221572 0)
(11.3151 -0.0196095 0)
(3.87378 0.193035 0)
(11.3766 -0.277968 0)
(4.35045 0.187307 0)
(11.2528 -0.723222 0)
(5.72885 0.175879 0)
(11.0904 -1.49182 0)
(7.21542 0.0522455 0)
(12.1188 -3.86702 0)
(6.93242 0.350271 0)
(9.35425 -2.39026 0)
(7.21889 0.524942 0)
(13.9931 0.961047 0)
(7.92948 0.609468 0)
(14.2955 0.55389 0)
(7.47385 0.42092 0)
(14.1167 0.271044 0)
(7.17517 0.396741 0)
(13.7388 -0.145223 0)
(7.2562 0.459675 0)
(13.2701 -0.698932 0)
(7.65895 0.57682 0)
(12.8752 -1.423 0)
(8.26681 0.699279 0)
(12.6521 -2.31355 0)
(9.02395 0.0408841 0)
(11.8881 -3.63692 0)
(8.68573 -1.43342 0)
(8.36367 0.68241 0)
(6.4236 0.569957 0)
(14.0116 0.565979 0)
(8.47315 0.674478 0)
(13.9587 0.284575 0)
(9.16902 0.636723 0)
(13.6441 -0.0025714 0)
(9.51682 0.657904 0)
(13.2145 -0.388773 0)
(9.59169 0.734448 0)
(12.8135 -0.871448 0)
(9.44506 0.876941 0)
(12.5833 -1.5216 0)
(9.14897 1.08986 0)
(12.5716 -2.49027 0)
(8.82629 1.13164 0)
(11.6175 -5.02867 0)
(8.54145 1.26569 0)
(8.72236 0.130073 0)
(7.95603 0.616783 0)
(11.8037 0.152485 0)
(9.5049 0.654683 0)
(11.7399 0.0502939 0)
(10.0882 0.693866 0)
(11.6009 -0.165618 0)
(10.3206 0.725783 0)
(11.4767 -0.457516 0)
(10.3005 0.782959 0)
(11.3899 -0.853616 0)
(10.0327 0.831915 0)
(11.3558 -1.40018 0)
(9.49208 0.801011 0)
(11.4185 -2.13857 0)
(8.8 0.725458 0)
(10.9982 -3.92123 0)
(7.73249 1.33529 0)
(9.48922 -0.217091 0)
(9.34379 0.812622 0)
(10.4392 -0.26595 0)
(10.1406 0.930474 0)
(10.5541 -0.304542 0)
(10.3987 1.01996 0)
(10.5821 -0.502901 0)
(10.5202 1.07549 0)
(10.6256 -0.781198 0)
(10.5636 1.15352 0)
(10.672 -1.15782 0)
(10.5155 1.23532 0)
(10.7003 -1.63585 0)
(10.367 1.26135 0)
(10.6882 -2.32755 0)
(10.0534 1.27142 0)
(10.3757 -3.95487 0)
(8.29868 2.01975 0)
(9.6969 -0.951866 0)
(9.84879 0.70106 0)
(10.1564 -0.325983 0)
(10.4064 0.854972 0)
(10.3901 -0.34988 0)
(10.5802 0.906767 0)
(10.4709 -0.493955 0)
(10.7016 0.892872 0)
(10.5523 -0.686263 0)
(10.8053 0.872669 0)
(10.6442 -0.935285 0)
(10.881 0.823831 0)
(10.7357 -1.23284 0)
(10.9081 0.671397 0)
(10.7542 -1.67282 0)
(10.7234 0.519724 0)
(10.4926 -2.47444 0)
(8.89356 0.980833 0)
(9.96362 -0.484247 0)
(10.0855 0.802179 0)
(10.02 -0.583415 0)
(10.5354 1.02138 0)
(10.3109 -0.604495 0)
(10.6751 1.07494 0)
(10.4402 -0.724975 0)
(10.7776 1.04815 0)
(10.571 -0.890086 0)
(10.8573 1.00366 0)
(10.7116 -1.1179 0)
(10.8989 0.921146 0)
(10.832 -1.39515 0)
(10.8742 0.73484 0)
(10.8223 -1.76123 0)
(10.6024 0.505805 0)
(10.5207 -2.0694 0)
(9.34991 0.586434 0)
(10.0234 -0.391557 0)
(10.139 0.648584 0)
(10.0423 -0.512002 0)
(10.5103 0.87798 0)
(10.3334 -0.456552 0)
(10.6214 0.869193 0)
(10.482 -0.493702 0)
(10.6979 0.778238 0)
(10.629 -0.572224 0)
(10.7343 0.657906 0)
(10.7636 -0.695477 0)
(10.718 0.495561 0)
(10.8403 -0.845167 0)
(10.6183 0.264077 0)
(10.7655 -1.03244 0)
(10.2824 0.0702772 0)
(10.4793 -1.05323 0)
(9.62313 0.124287 0)
(10.2067 -0.0330392 0)
(10.141 0.699933 0)
(10.0707 -0.691948 0)
(10.4525 0.902457 0)
(10.2986 -0.618968 0)
(10.5374 0.847604 0)
(10.4303 -0.645589 0)
(10.6032 0.735251 0)
(10.5607 -0.707474 0)
(10.6273 0.586769 0)
(10.6605 -0.791368 0)
(10.6092 0.383115 0)
(10.6813 -0.869418 0)
(10.5269 0.117012 0)
(10.571 -0.922259 0)
(10.2915 -0.113849 0)
(10.3609 -0.765191 0)
(10.0197 -0.154261 0)
(10.2455 -0.125265 0)
(10.0968 0.467997 0)
(10.1509 -0.49522 0)
(10.3536 0.595756 0)
(10.2934 -0.374739 0)
(10.4203 0.52755 0)
(10.4094 -0.354923 0)
(10.4848 0.418903 0)
(10.5239 -0.374339 0)
(10.5131 0.275751 0)
(10.5994 -0.414826 0)
(10.5157 0.093323 0)
(10.5971 -0.461819 0)
(10.4766 -0.103329 0)
(10.4995 -0.500284 0)
(10.3571 -0.232141 0)
(10.3645 -0.40577 0)
(10.2659 -0.219848 0)
(10.3738 -0.110271 0)
(10.0501 0.410958 0)
(10.1755 -0.487345 0)
(10.2548 0.437175 0)
(10.2379 -0.367589 0)
(10.3088 0.367349 0)
(10.3307 -0.345661 0)
(10.3793 0.250854 0)
(10.4247 -0.355374 0)
(10.4226 0.099465 0)
(10.4823 -0.374966 0)
(10.4463 -0.0797431 0)
(10.4818 -0.403497 0)
(10.433 -0.246741 0)
(10.4261 -0.431335 0)
(10.3773 -0.339269 0)
(10.3686 -0.392703 0)
(10.3571 -0.320587 0)
(10.4223 -0.276556 0)
(10.0153 0.199603 0)
(10.1907 -0.285919 0)
(10.1932 0.167317 0)
(10.2052 -0.179405 0)
(10.2293 0.131656 0)
(10.2792 -0.171471 0)
(10.3062 0.0472298 0)
(10.3626 -0.197883 0)
(10.366 -0.0587297 0)
(10.4142 -0.235837 0)
(10.4055 -0.176061 0)
(10.4267 -0.286532 0)
(10.4124 -0.275061 0)
(10.4112 -0.331744 0)
(10.3995 -0.324196 0)
(10.4066 -0.33726 0)
(10.4109 -0.316073 0)
(10.4698 -0.304882 0)
(9.99662 0.0970953 0)
(10.1445 -0.185943 0)
(10.1463 0.0216371 0)
(10.1501 -0.133728 0)
(10.1622 -0.00865393 0)
(10.2089 -0.146224 0)
(10.241 -0.0769888 0)
(10.2919 -0.186792 0)
(10.311 -0.159438 0)
(10.3486 -0.238029 0)
(10.3575 -0.244847 0)
(10.3791 -0.29838 0)
(10.3805 -0.316348 0)
(10.3939 -0.350142 0)
(10.3959 -0.361082 0)
(10.4185 -0.380251 0)
(10.4239 -0.381104 0)
(10.4789 -0.387296 0)
(9.99368 0.0154614 0)
(10.106 -0.085865 0)
(10.1089 -0.0443595 0)
(10.1138 -0.0933108 0)
(10.1188 -0.0749225 0)
(10.1675 -0.118994 0)
(10.198 -0.120651 0)
(10.2519 -0.163896 0)
(10.2741 -0.18063 0)
(10.3154 -0.219232 0)
(10.3279 -0.244003 0)
(10.3598 -0.277899 0)
(10.3659 -0.301414 0)
(10.394 -0.329081 0)
(10.3996 -0.347065 0)
(10.4329 -0.370873 0)
(10.4356 -0.383856 0)
(10.4884 -0.397078 0)
(9.99178 0.00471695 0)
(10.0636 -0.0251984 0)
(10.0567 -0.0349515 0)
(10.0679 -0.066511 0)
(10.0779 -0.0757497 0)
(10.128 -0.0998079 0)
(10.1573 -0.115989 0)
(10.211 -0.14476 0)
(10.2338 -0.169037 0)
(10.2782 -0.199643 0)
(10.2921 -0.22664 0)
(10.3301 -0.257118 0)
(10.3385 -0.283404 0)
(10.3732 -0.312141 0)
(10.3789 -0.336894 0)
(10.4153 -0.365627 0)
(10.4147 -0.388142 0)
(10.4635 -0.407567 0)
(9.9916 0.0141177 0)
(10.0467 0.0161232 0)
(10.0399 -0.0106152 0)
(10.0576 -0.0377252 0)
(10.0749 -0.0565784 0)
(10.1255 -0.0779048 0)
(10.1555 -0.0989189 0)
(10.2072 -0.123883 0)
(10.2312 -0.149055 0)
(10.2754 -0.176697 0)
(10.2912 -0.203503 0)
(10.3293 -0.232237 0)
(10.3395 -0.259447 0)
(10.3737 -0.288396 0)
(10.3802 -0.315726 0)
(10.4142 -0.345798 0)
(10.4133 -0.371657 0)
(10.4568 -0.393482 0)
(9.99166 0.0328923 0)
(10.0502 0.0496184 0)
(10.0566 0.0099009 0)
(10.0799 -0.0181154 0)
(10.1007 -0.0402812 0)
(10.1506 -0.0615278 0)
(10.1819 -0.0836638 0)
(10.2316 -0.106469 0)
(10.2563 -0.130614 0)
(10.2985 -0.155582 0)
(10.3151 -0.181149 0)
(10.3508 -0.207401 0)
(10.3615 -0.233638 0)
(10.3927 -0.260492 0)
(10.3991 -0.287114 0)
(10.4288 -0.315372 0)
(10.4282 -0.341107 0)
(10.4654 -0.362893 0)
(9.98989 0.0406773 0)
(10.0547 0.0526431 0)
(10.0828 -0.00635637 0)
(10.1167 -0.0406939 0)
(10.1419 -0.0641469 0)
(10.1904 -0.0823049 0)
(10.2224 -0.102142 0)
(10.2691 -0.121062 0)
(10.2936 -0.142807 0)
(10.3321 -0.164056 0)
(10.3484 -0.187471 0)
(10.3802 -0.210158 0)
(10.3905 -0.234465 0)
(10.4175 -0.257985 0)
(10.4229 -0.282853 0)
(10.4474 -0.30789 0)
(10.4462 -0.332523 0)
(10.4769 -0.352925 0)
(9.99051 0.031558 0)
(10.0685 0.0220017 0)
(10.1262 -0.0557637 0)
(10.177 -0.0967848 0)
(10.2126 -0.11982 0)
(10.261 -0.132788 0)
(10.2938 -0.147832 0)
(10.3361 -0.161722 0)
(10.3602 -0.179904 0)
(10.3941 -0.196991 0)
(10.4104 -0.217435 0)
(10.4378 -0.236317 0)
(10.4479 -0.258062 0)
(10.4702 -0.278129 0)
(10.4755 -0.30081 0)
(10.4947 -0.322435 0)
(10.494 -0.345289 0)
(10.5188 -0.363575 0)
(9.99118 0.0098463 0)
(10.092 -0.0297266 0)
(10.187 -0.120859 0)
(10.2595 -0.162799 0)
(10.3093 -0.181163 0)
(10.359 -0.187205 0)
(10.3929 -0.19609 0)
(10.4305 -0.204429 0)
(10.4543 -0.218174 0)
(10.4837 -0.230811 0)
(10.5002 -0.247667 0)
(10.5233 -0.262696 0)
(10.5338 -0.281403 0)
(10.5518 -0.29809 0)
(10.5573 -0.318147 0)
(10.572 -0.336484 0)
(10.5724 -0.357063 0)
(10.5921 -0.373205 0)
(9.99278 -0.0233771 0)
(10.1275 -0.10361 0)
(10.2671 -0.204935 0)
(10.3665 -0.241611 0)
(10.432 -0.250834 0)
(10.4836 -0.248428 0)
(10.5183 -0.250943 0)
(10.5518 -0.253747 0)
(10.5754 -0.263026 0)
(10.6012 -0.271388 0)
(10.6182 -0.284714 0)
(10.6379 -0.296336 0)
(10.6487 -0.312147 0)
(10.6632 -0.325905 0)
(10.6692 -0.343441 0)
(10.6802 -0.358892 0)
(10.6815 -0.377206 0)
(10.6969 -0.391358 0)
(9.99048 -0.0716111 0)
(10.1744 -0.201174 0)
(10.3679 -0.305478 0)
(10.5001 -0.327885 0)
(10.5805 -0.322592 0)
(10.6344 -0.310227 0)
(10.669 -0.305612 0)
(10.6997 -0.302608 0)
(10.7227 -0.306748 0)
(10.7461 -0.31063 0)
(10.7625 -0.319953 0)
(10.7795 -0.328099 0)
(10.7896 -0.340636 0)
(10.8007 -0.351414 0)
(10.8056 -0.366008 0)
(10.8125 -0.378571 0)
(10.8123 -0.394131 0)
(10.8223 -0.406087 0)
(9.99202 -0.13637 0)
(10.2448 -0.323007 0)
(10.5027 -0.419011 0)
(10.6712 -0.417642 0)
(10.7628 -0.39419 0)
(10.8175 -0.371126 0)
(10.8494 -0.358964 0)
(10.8772 -0.35061 0)
(10.8961 -0.350125 0)
(10.9149 -0.350526 0)
(10.9254 -0.356416 0)
(10.9356 -0.361551 0)
(10.9375 -0.370854 0)
(10.9394 -0.378719 0)
(10.934 -0.389918 0)
(10.9292 -0.399504 0)
(10.9165 -0.411429 0)
(10.9116 -0.420582 0)
(9.98975 -0.219927 0)
(10.3369 -0.468138 0)
(10.6737 -0.53975 0)
(10.8758 -0.508237 0)
(10.9697 -0.46487 0)
(11.0135 -0.428081 0)
(11.0286 -0.404832 0)
(11.0352 -0.388407 0)
(11.0291 -0.381445 0)
(11.0195 -0.376997 0)
(10.998 -0.378213 0)
(10.9735 -0.379122 0)
(10.9377 -0.383846 0)
(10.8999 -0.387327 0)
(10.8522 -0.393694 0)
(10.8041 -0.399019 0)
(10.7461 -0.405339 0)
(10.6945 -0.410118 0)
(9.98331 -0.332075 0)
(10.4676 -0.642319 0)
(10.8829 -0.667112 0)
(11.0725 -0.602652 0)
(11.103 -0.537208 0)
(11.0583 -0.483139 0)
(10.9743 -0.445002 0)
(10.8732 -0.416246 0)
(10.7577 -0.398036 0)
(10.635 -0.383299 0)
(10.5035 -0.374921 0)
(10.3665 -0.366364 0)
(10.2241 -0.362484 0)
(10.0773 -0.357034 0)
(9.92853 -0.355887 0)
(9.77694 -0.353295 0)
(9.62574 -0.352998 0)
(9.4758 -0.351164 0)
(10.0025 -0.453673 0)
(10.619 -0.818962 0)
(10.9017 -0.752083 0)
(10.7933 -0.623768 0)
(10.4938 -0.512559 0)
(10.1376 -0.429213 0)
(9.77011 -0.373586 0)
(9.41757 -0.334745 0)
(9.07675 -0.307316 0)
(8.75537 -0.284634 0)
(8.44635 -0.26768 0)
(8.15323 -0.251358 0)
(7.87245 -0.240069 0)
(7.60284 -0.227365 0)
(7.34801 -0.221159 0)
(7.09845 -0.211847 0)
(6.87 -0.210877 0)
(6.64054 -0.204201 0)
(10.0974 -0.750792 0)
(10.0459 -1.0132 0)
(9.42496 -0.801097 0)
(8.51443 -0.572192 0)
(7.65497 -0.378735 0)
(6.9288 -0.24489 0)
(6.32721 -0.16753 0)
(5.83146 -0.126261 0)
(5.40902 -0.104716 0)
(5.0484 -0.0923366 0)
(4.72829 -0.0849772 0)
(4.44754 -0.0793658 0)
(4.19111 -0.0758218 0)
(3.9622 -0.0719023 0)
(3.75048 -0.0721461 0)
(3.5553 -0.0690936 0)
(3.38307 -0.0802792 0)
(3.21816 -0.0828735 0)
(8.51678 -0.436068 0)
(6.11028 -0.380899 0)
(4.29834 -0.138062 0)
(3.12386 -0.0213953 0)
(2.48107 0.0191272 0)
(2.12045 0.0224661 0)
(1.89621 0.0137069 0)
(1.73489 0.00460899 0)
(1.59885 -0.00157484 0)
(1.4781 -0.0047958 0)
(1.366 -0.00640898 0)
(1.26383 -0.00672276 0)
(1.16816 -0.00671007 0)
(1.08143 -0.00639185 0)
(0.999394 -0.00666003 0)
(0.919157 -0.00703666 0)
(0.851653 -0.0186145 0)
(0.731119 -0.00614276 0)
(-0.0520401 0.137963 0)
(-0.157021 0.0714365 0)
(-0.206893 0.016309 0)
(-0.194899 -0.0445412 0)
(-0.117468 -0.0992729 0)
(0.0129023 -0.145302 0)
(0.187127 -0.175829 1.11354e-17)
(0.389034 -0.193764 -1.10604e-17)
(0.607402 -0.198128 0)
(0.829901 -0.192831 -1.09172e-17)
(1.04715 -0.178458 0)
(1.25017 -0.157654 0)
(1.43239 -0.130979 0)
(1.58854 -0.101581 1.06426e-17)
(1.71597 -0.0702932 0)
(1.8119 -0.0381864 0)
(1.87546 -0.00599753 -1.04455e-17)
(1.90738 0.0243024 0)
(1.90933 0.0507927 0)
(1.88337 0.0725251 0)
(1.83322 0.0894827 1.01961e-17)
(1.76147 0.101013 0)
(1.67203 0.108864 1.00741e-17)
(1.56662 0.111738 0)
(1.44988 0.109798 0)
(1.32456 0.108097 9.89549e-18)
(1.19091 0.111345 0)
(1.04817 0.116415 -9.77918e-18)
(0.899543 0.121599 0)
(0.745629 0.126574 9.66431e-18)
(0.587971 0.130535 0)
(0.428831 0.132993 0)
(0.270452 0.134165 0)
(0.113311 0.133959 0)
(-0.0422923 0.131089 0)
(-0.1943 0.126427 -9.32963e-18)
(-0.341067 0.120337 0)
(-0.482178 0.113846 1.84406e-17)
(-0.616194 0.107349 0)
(-0.742683 0.10011 -1.82217e-17)
(-0.860176 0.0930611 0)
(-0.968825 0.0862799 0)
(-1.06908 0.0785327 1.78885e-17)
(-1.16046 0.0701811 0)
(-1.24359 0.0624963 1.76653e-17)
(-1.31855 0.0552797 -1.75532e-17)
(-1.38482 0.0482977 0)
(-1.44325 0.0422569 -1.73283e-17)
(-1.49492 0.0369296 -1.72152e-17)
(-1.53883 0.0332467 0)
(-1.57514 0.0316484 0)
(-1.60574 0.0316217 0)
(-1.63276 0.0317083 0)
(-1.65719 0.0316729 0)
(-1.68044 0.0325246 1.65281e-17)
(-1.70431 0.0340556 0)
(-1.73017 0.0362807 -1.62989e-17)
(-1.75674 0.0383191 0)
(-1.78281 0.038954 0)
(-1.80839 0.0395853 1.59524e-17)
(-1.83418 0.0413799 0)
(-1.86206 0.0426133 -1.57211e-17)
(-1.89193 0.0442699 0)
(-1.9236 0.045763 0)
(-1.95663 0.0466348 0)
(-1.99044 0.0478431 1.52555e-17)
(-2.02469 0.0496714 0)
(-2.05962 0.0518872 0)
(-2.09503 0.0542867 1.49058e-17)
(-2.13121 0.0557554 0)
(-2.16518 0.0560015 1.46711e-17)
(-2.19607 0.05639 0)
(-2.22376 0.0565857 0)
(-2.24723 0.0564269 0)
(-2.26551 0.0558306 -1.4205e-17)
(-2.27788 0.0546062 0)
(-2.28504 0.053886 0)
(-2.28889 0.0538177 -1.38612e-17)
(-2.28986 0.0528569 -1.37478e-17)
(-2.28623 0.0512052 0)
(-2.27621 0.0489423 -1.35225e-17)
(-2.25964 0.0460149 0)
(-2.23614 0.0428477 -2.66021e-17)
(-2.20569 0.0394019 0)
(-2.16883 0.035713 -2.61666e-17)
(-2.1254 0.0326479 0)
(-2.07646 0.0302454 2.57377e-17)
(-2.02287 0.0282835 0)
(-1.96474 0.0268571 0)
(-1.90269 0.0259019 0)
(-1.83827 0.0253181 -2.49006e-17)
(-1.77123 0.0250709 0)
(-1.70319 0.0250341 2.44988e-17)
(-1.63417 0.0256268 0)
(-1.56488 0.0266667 -2.41094e-17)
(-1.49728 0.0291934 -2.39208e-17)
(-1.43051 0.0303362 -2.37365e-17)
(-1.3636 0.0313971 0)
(-1.2985 0.031479 0)
(-1.23404 0.0326779 0)
(-1.16839 0.033459 0)
(-1.1037 0.0330789 0)
(-1.0341 0.0319606 0)
(-0.965542 0.033281 0)
(-0.894855 0.0329135 0)
(-0.828028 0.0352615 2.22128e-17)
(-0.760878 0.0357642 2.20605e-17)
(-0.69876 0.0401434 0)
(-0.638259 0.0414019 0)
(-0.582705 0.0410767 0)
(-0.515271 0.0384599 2.14802e-17)
(-0.45308 0.0426082 0)
(-0.384138 0.040803 0)
(-0.319303 0.0437369 0)
(-0.24855 0.0406785 0)
(-0.175743 0.0431538 -2.08062e-17)
(-0.100804 0.0447128 0)
(-0.0203734 0.0437315 0)
(0.0646572 0.045083 2.04292e-17)
(0.153397 0.0451059 -2.03076e-17)
(0.245189 0.0444165 0)
(0.341638 0.0482959 -2.00748e-17)
(0.433286 0.0513097 0)
(0.525957 0.0545294 1.98483e-17)
(0.608488 0.0592072 0)
(0.680052 0.0621943 0)
(0.755425 0.0624879 0)
(0.824839 0.0632349 0)
(0.904465 0.0603912 0)
(0.978225 0.0609446 -3.83966e-17)
(1.05398 0.0625757 -3.81775e-17)
(1.11421 0.0673765 0)
(1.16492 0.0664064 0)
(1.2099 0.0675838 0)
(1.24721 0.0635375 3.72528e-17)
(1.29574 0.0587243 0)
(1.34585 0.0570356 0)
(1.39132 0.0559185 0)
(1.43987 0.0541048 3.62324e-17)
(1.47699 0.056738 -3.59643e-17)
(1.52035 0.0526192 0)
(1.55969 0.0527318 0)
(1.60133 0.0531689 -3.51495e-17)
(1.6277 0.0582433 -3.48766e-17)
(1.65777 0.0549641 0)
(1.68619 0.0587824 0)
(1.72511 0.0557806 3.40436e-17)
(1.76131 0.066018 -3.37642e-17)
(1.76937 0.0714121 0)
(1.78277 0.0707881 0)
(1.80792 0.0711095 -3.29274e-17)
(1.84107 0.0758625 0)
(1.85453 0.0834119 0)
(1.86593 0.0891658 -3.20833e-17)
(1.8651 0.0932903 0)
(1.8793 0.098142 -3.15232e-17)
(1.88114 0.105122 0)
(1.88684 0.109192 0)
(1.87395 0.120747 0)
(1.8606 0.126602 3.0434e-17)
(1.8456 0.133111 0)
(1.81371 0.142931 0)
(1.7419 0.154542 0)
(1.66527 0.154553 0)
(1.60004 0.156848 0)
(1.5103 0.165716 0)
(1.3824 0.172507 2.88935e-17)
(1.2634 0.173841 2.87395e-17)
(1.07947 0.181784 0)
(0.872832 0.184422 0)
(0.6299 0.18344 0)
(0.413923 0.169763 -2.83221e-17)
(0.192118 0.162682 0)
(0.0404684 0.146484 5.63492e-17)
(-0.159824 0.143895 -5.62396e-17)
(-0.262933 0.123658 -5.60602e-17)
(-0.424333 0.126715 5.59562e-17)
(-0.459471 0.0965728 -5.57538e-17)
(-0.617088 0.129112 5.57337e-17)
(-0.564994 -0.0040271 0)
(0.0101225 0.248803 0)
(0.0145996 0.191882 0)
(0.0497839 0.00744063 -2.27961e-17)
(0.121218 -0.19878 0)
(0.236236 -0.384801 2.23649e-17)
(0.388629 -0.536181 2.22182e-17)
(0.569851 -0.645016 1.10437e-17)
(0.769782 -0.710902 1.09813e-17)
(0.97713 -0.737455 0)
(1.18133 -0.731114 1.08542e-17)
(1.37373 -0.695198 0)
(1.54704 -0.636805 0)
(1.69725 -0.562068 -2.132e-17)
(1.81966 -0.477495 -1.05948e-17)
(1.91419 -0.385424 2.10555e-17)
(1.97907 -0.290742 2.0922e-17)
(2.01563 -0.198302 1.03954e-17)
(2.02399 -0.110175 0)
(2.00658 -0.0271121 0)
(1.96339 0.0476477 0)
(1.89831 0.113117 1.01364e-17)
(1.81139 0.17219 0)
(1.70732 0.225019 -3.00369e-17)
(1.58494 0.267738 0)
(1.44655 0.3026 0)
(1.29269 0.333071 -9.83175e-18)
(1.12685 0.356918 0)
(0.951752 0.374089 9.71542e-18)
(0.771244 0.385021 1.93125e-17)
(0.586211 0.392155 -9.59746e-18)
(0.399422 0.394156 0)
(0.212164 0.390281 0)
(0.0241221 0.382929 0)
(-0.164217 0.375913 1.8731e-17)
(-0.351081 0.367295 1.86165e-17)
(-0.535195 0.355035 9.25126e-18)
(-0.713835 0.340309 0)
(-0.887531 0.323297 -1.82762e-17)
(-1.05236 0.302859 0)
(-1.2106 0.28107 1.80509e-17)
(-1.36063 0.258669 0)
(-1.50409 0.235904 0)
(-1.63939 0.215548 -1.77168e-17)
(-1.76746 0.196476 0)
(-1.89076 0.178518 -5.24873e-17)
(-2.00833 0.15971 1.73859e-17)
(-2.11928 0.140758 0)
(-2.22321 0.123857 1.71657e-17)
(-2.32098 0.106248 1.70554e-17)
(-2.41135 0.086734 0)
(-2.4925 0.0678121 0)
(-2.56654 0.0532716 0)
(-2.63534 0.0437902 0)
(-2.70084 0.0388972 0)
(-2.76248 0.0374602 -1.63737e-17)
(-2.82221 0.0369213 -3.25152e-17)
(-2.88039 0.0369568 1.61414e-17)
(-2.93416 0.0343442 0)
(-2.98562 0.030387 -3.18129e-17)
(-3.03493 0.0290478 1.57874e-17)
(-3.08142 0.0300174 0)
(-3.12889 0.0309338 1.55499e-17)
(-3.17417 0.0336151 0)
(-3.21746 0.0350256 0)
(-3.25911 0.034566 3.03752e-17)
(-3.29977 0.0339109 -1.50673e-17)
(-3.3359 0.0318228 2.98917e-17)
(-3.36948 0.0290247 -2.96504e-17)
(-3.39705 0.0252949 -1.47046e-17)
(-3.42144 0.0204356 0)
(-3.43943 0.0128445 -1.44628e-17)
(-3.45068 0.00264505 0)
(-3.45624 -0.00805997 0)
(-3.45341 -0.0205446 0)
(-3.44139 -0.0347428 -1.39829e-17)
(-3.42115 -0.048734 0)
(-3.39441 -0.0588641 -2.74949e-17)
(-3.36188 -0.06599 4.08939e-17)
(-3.32401 -0.0744784 1.35162e-17)
(-3.27989 -0.0855023 0)
(-3.22788 -0.0981765 1.32877e-17)
(-3.17062 -0.110822 0)
(-3.10774 -0.122849 2.61238e-17)
(-3.03972 -0.133843 0)
(-2.96673 -0.144308 2.56807e-17)
(-2.88864 -0.153646 -5.09213e-17)
(-2.80664 -0.162505 -2.52467e-17)
(-2.72227 -0.170412 0)
(-2.63294 -0.177903 0)
(-2.54143 -0.183478 0)
(-2.44776 -0.18765 2.44062e-17)
(-2.35079 -0.191655 0)
(-2.25263 -0.194336 -2.39999e-17)
(-2.15452 -0.194688 0)
(-2.05583 -0.196263 7.08184e-17)
(-1.95723 -0.195575 2.3416e-17)
(-1.85803 -0.196577 2.323e-17)
(-1.76095 -0.193788 0)
(-1.66624 -0.193184 0)
(-1.571 -0.194058 0)
(-1.47325 -0.194691 0)
(-1.37651 -0.197052 0)
(-1.27418 -0.201284 4.43206e-17)
(-1.17822 -0.199392 4.39846e-17)
(-1.07893 -0.199473 0)
(-0.99198 -0.193794 -2.16747e-17)
(-0.896136 -0.194706 -2.15227e-17)
(-0.809501 -0.188001 0)
(-0.715181 -0.186989 -4.24429e-17)
(-0.63707 -0.18632 0)
(-0.540855 -0.196652 2.09375e-17)
(-0.455122 -0.190876 0)
(-0.34953 -0.199261 0)
(-0.255026 -0.1957 -4.1058e-17)
(-0.141965 -0.204465 0)
(-0.0379592 -0.204587 2.02725e-17)
(0.0872456 -0.212382 0)
(0.213492 -0.219987 0)
(0.349485 -0.224484 1.98873e-17)
(0.490353 -0.229093 1.97709e-17)
(0.636072 -0.234729 0)
(0.785825 -0.235419 -1.95335e-17)
(0.945795 -0.236645 0)
(1.10537 -0.22863 1.92968e-17)
(1.27054 -0.219073 3.83635e-17)
(1.41867 -0.21268 0)
(1.57571 -0.213757 0)
(1.72087 -0.213782 0)
(1.88057 -0.215345 0)
(2.02753 -0.210448 3.72312e-17)
(2.18202 -0.207199 1.11009e-16)
(2.31844 -0.188388 0)
(2.44266 -0.183237 0)
(2.56189 -0.172654 0)
(2.66715 -0.174616 -3.60804e-17)
(2.76984 -0.179335 0)
(2.87108 -0.178781 0)
(2.96631 -0.17702 7.0616e-17)
(3.05979 -0.176294 3.50339e-17)
(3.13379 -0.17047 3.47651e-17)
(3.22125 -0.180028 0)
(3.28524 -0.173872 0)
(3.35361 -0.175314 3.39206e-17)
(3.40009 -0.164331 -3.36148e-17)
(3.44623 -0.178306 0)
(3.47565 -0.174784 0)
(3.50998 -0.190824 -3.2722e-17)
(3.53785 -0.172916 9.71896e-17)
(3.55223 -0.168618 0)
(3.56261 -0.179494 0)
(3.57364 -0.191179 3.14603e-17)
(3.59402 -0.18912 0)
(3.58947 -0.182683 6.1627e-17)
(3.58738 -0.180827 -3.04724e-17)
(3.55984 -0.185237 0)
(3.55578 -0.194224 2.98463e-17)
(3.53127 -0.190629 5.90579e-17)
(3.51972 -0.192205 0)
(3.47286 -0.185366 0)
(3.44876 -0.194283 -2.85757e-17)
(3.40848 -0.18634 0)
(3.35107 -0.169387 5.58911e-17)
(3.25413 -0.15009 0)
(3.16218 -0.155085 0)
(3.04311 -0.146921 0)
(2.91487 -0.121853 0)
(2.72086 -0.102653 -2.66551e-17)
(2.56217 -0.075788 -2.64658e-17)
(2.2783 -0.0264299 0)
(2.00562 -0.00158396 0)
(1.6763 0.0228345 0)
(1.38126 0.018963 2.59606e-17)
(1.04827 0.0231841 0)
(0.841271 0.0140163 -5.16735e-17)
(0.520959 0.0329373 5.16464e-17)
(0.406383 0.00117882 5.14978e-17)
(0.12524 0.0320319 5.14881e-17)
(0.12531 -0.0158486 5.13356e-17)
(-0.171342 0.0790073 5.14988e-17)
(0.0149459 -0.117011 0)
(0.0290256 0.071183 0)
(0.121072 -0.0384781 0)
(0.228111 -0.241931 2.29131e-17)
(0.340214 -0.468895 2.26646e-17)
(0.474643 -0.693472 -2.2513e-17)
(0.618714 -0.875327 -2.24003e-17)
(0.77289 -1.00395 -1.48177e-21)
(0.924156 -1.0742 0)
(1.06927 -1.08496 0)
(1.19606 -1.04574 0)
(1.30483 -0.965799 0)
(1.39079 -0.85638 0)
(1.45634 -0.725746 6.47126e-17)
(1.49694 -0.585419 0)
(1.51546 -0.440466 -2.13051e-17)
(1.51008 -0.293874 -2.11688e-17)
(1.48366 -0.152329 0)
(1.43482 -0.0186974 0)
(1.36817 0.105274 0)
(1.2835 0.217804 0)
(1.18314 0.317132 -2.05026e-17)
(1.06791 0.4001 0)
(0.94287 0.472359 2.02486e-17)
(0.80527 0.537352 0)
(0.657982 0.592091 0)
(0.502375 0.636882 0)
(0.343833 0.672715 3.9525e-17)
(0.181338 0.699788 0)
(0.0174091 0.719061 -1.95223e-17)
(-0.147516 0.729307 3.87999e-17)
(-0.311696 0.732287 0)
(-0.478119 0.733834 0)
(-0.644733 0.730688 0)
(-0.810151 0.72107 -1.89166e-17)
(-0.971958 0.705749 -1.87958e-17)
(-1.13054 0.684265 0)
(-1.28433 0.657011 0)
(-1.43255 0.62556 3.68592e-17)
(-1.57382 0.591607 3.66196e-17)
(-1.71331 0.557371 -3.63815e-17)
(-1.84775 0.524723 0)
(-1.98035 0.491217 0)
(-2.10728 0.459004 0)
(-2.23048 0.429565 0)
(-2.34943 0.401816 3.52008e-17)
(-2.46234 0.372493 3.49671e-17)
(-2.5701 0.342796 -3.47351e-17)
(-2.67226 0.314214 0)
(-2.76834 0.28628 0)
(-2.8591 0.257253 0)
(-2.94453 0.230411 0)
(-3.02998 0.212605 3.35758e-17)
(-3.10951 0.196697 0)
(-3.184 0.18349 0)
(-3.25199 0.175693 3.28781e-17)
(-3.31529 0.170515 3.26464e-17)
(-3.37323 0.163622 0)
(-3.42353 0.154241 -6.43597e-17)
(-3.47189 0.147357 3.19485e-17)
(-3.51629 0.140911 -3.17141e-17)
(-3.55492 0.137141 0)
(-3.59062 0.134448 0)
(-3.6203 0.13028 0)
(-3.64506 0.126057 0)
(-3.66726 0.120831 -3.05526e-17)
(-3.68517 0.113417 -6.06461e-17)
(-3.69682 0.105442 -3.00974e-17)
(-3.70474 0.09695 2.98726e-17)
(-3.70547 0.0853156 0)
(-3.70111 0.0720441 -5.88396e-17)
(-3.68875 0.055953 -5.83911e-17)
(-3.67111 0.0397757 -5.7946e-17)
(-3.64922 0.0219799 5.75041e-17)
(-3.61853 -0.000301702 0)
(-3.58089 -0.0229717 8.49405e-17)
(-3.53741 -0.042433 0)
(-3.48919 -0.0578557 -2.78773e-17)
(-3.4324 -0.0715852 -2.76644e-17)
(-3.36767 -0.0870983 0)
(-3.29679 -0.103797 0)
(-3.22244 -0.120416 -5.40405e-17)
(-3.1459 -0.135189 0)
(-3.06538 -0.149344 -5.31935e-17)
(-2.98233 -0.162935 0)
(-2.89473 -0.177267 5.23548e-17)
(-2.8036 -0.188608 1.03881e-16)
(-2.70876 -0.198329 0)
(-2.61305 -0.207464 0)
(-2.51432 -0.214887 0)
(-2.41689 -0.220947 5.029e-17)
(-2.31778 -0.226773 0)
(-2.21536 -0.231417 4.94678e-17)
(-2.11015 -0.234682 0)
(-2.00449 -0.233914 0)
(-1.89644 -0.234079 -9.65026e-17)
(-1.79115 -0.231677 0)
(-1.6839 -0.231185 -4.74605e-17)
(-1.58081 -0.225195 0)
(-1.47346 -0.22589 -4.6693e-17)
(-1.36696 -0.225063 0)
(-1.25827 -0.224157 0)
(-1.15095 -0.227886 0)
(-1.0408 -0.230113 -1.35689e-16)
(-0.940961 -0.221639 -4.48683e-17)
(-0.832277 -0.218284 0)
(-0.739516 -0.207768 0)
(-0.638144 -0.209198 0)
(-0.552982 -0.197054 0)
(-0.449087 -0.193425 4.32341e-17)
(-0.363432 -0.188351 -8.58333e-17)
(-0.256674 -0.205208 -4.26317e-17)
(-0.169816 -0.197518 8.46558e-17)
(-0.0504241 -0.213648 8.40934e-17)
(0.0511821 -0.209616 4.17608e-17)
(0.181018 -0.224734 0)
(0.293472 -0.225421 8.23963e-17)
(0.432042 -0.241529 0)
(0.563932 -0.250666 -8.12855e-17)
(0.712248 -0.257637 -4.03847e-17)
(0.858648 -0.262407 0)
(1.01379 -0.270865 7.97632e-17)
(1.16329 -0.273921 3.96285e-17)
(1.32592 -0.282038 0)
(1.48509 -0.279959 3.90901e-17)
(1.65922 -0.269535 -1.16509e-16)
(1.81901 -0.257241 0)
(1.98352 -0.256227 0)
(2.13559 -0.255858 0)
(2.29596 -0.25923 0)
(2.45271 -0.254807 -7.51556e-17)
(2.60886 -0.25173 -7.4657e-17)
(2.76034 -0.220972 0)
(2.89858 -0.2147 0)
(3.03002 -0.201658 0)
(3.15173 -0.200022 0)
(3.25879 -0.205098 0)
(3.37829 -0.208158 0)
(3.49154 -0.207187 -7.09521e-17)
(3.60475 -0.204999 -1.65131e-20)
(3.69872 -0.196223 0)
(3.8092 -0.20955 0)
(3.89722 -0.196919 -6.86072e-17)
(3.99046 -0.19772 0)
(4.06889 -0.176922 6.74263e-17)
(4.13888 -0.187692 6.68088e-17)
(4.18027 -0.170079 0)
(4.23482 -0.188456 0)
(4.27285 -0.164375 -6.49005e-17)
(4.32305 -0.155645 -1.28511e-16)
(4.35043 -0.15984 0)
(4.38326 -0.171973 0)
(4.42459 -0.162978 0)
(4.43773 -0.1487 -6.16918e-17)
(4.46608 -0.135547 6.10042e-17)
(4.46518 -0.135181 0)
(4.48462 -0.141375 1.19375e-16)
(4.46808 -0.129389 5.90336e-17)
(4.48495 -0.127946 -1.16774e-16)
(4.4623 -0.109305 0)
(4.46068 -0.116587 0)
(4.43037 -0.0951563 -1.12757e-16)
(4.38919 -0.0675589 -5.57222e-17)
(4.30467 -0.0382509 0)
(4.24114 -0.0362917 0)
(4.109 -0.0184864 0)
(3.99944 0.0242289 0)
(3.78814 0.0520344 -1.056e-16)
(3.61995 0.095676 0)
(3.32233 0.166839 0)
(3.06409 0.191544 0)
(2.71453 0.219512 0)
(2.4007 0.202851 0)
(2.01197 0.186717 0)
(1.77529 0.153549 -1.00647e-16)
(1.37022 0.150873 0)
(1.24149 0.0830806 0)
(0.857263 0.105443 -1.99438e-16)
(0.852314 0.0229464 9.92589e-17)
(0.466644 0.111779 -9.94124e-17)
(0.662087 -0.127928 9.87928e-17)
(0.0206251 -0.0940657 0)
(0.125065 -0.269556 -4.69562e-17)
(0.24781 -0.490363 0)
(0.375691 -0.755868 -2.27968e-17)
(0.502212 -0.999361 0)
(0.618114 -1.188 0)
(0.7225 -1.30549 2.24457e-17)
(0.802906 -1.34871 0)
(0.865587 -1.31881 0)
(0.904644 -1.23302 0)
(0.926557 -1.11025 0)
(0.929172 -0.960906 0)
(0.917297 -0.793618 -8.66165e-17)
(0.888278 -0.61625 -4.30254e-17)
(0.845608 -0.433243 4.27459e-17)
(0.789029 -0.251936 0)
(0.720587 -0.0790403 0)
(0.638961 0.082516 0)
(0.547613 0.231317 0)
(0.446059 0.36467 0)
(0.337071 0.48217 -4.11507e-17)
(0.218835 0.583945 -4.0898e-17)
(0.0926877 0.674554 4.06488e-17)
(-0.0392404 0.750459 -4.04012e-17)
(-0.17528 0.813132 0)
(-0.314059 0.861144 0)
(-0.454361 0.897096 -3.9658e-17)
(-0.595006 0.92171 0)
(-0.736579 0.935724 0)
(-0.878694 0.944191 -3.89247e-17)
(-1.02138 0.94953 -3.86814e-17)
(-1.16196 0.947111 -3.8437e-17)
(-1.29947 0.937897 0)
(-1.43373 0.922535 0)
(-1.56344 0.901011 3.76934e-17)
(-1.68813 0.871337 0)
(-1.80886 0.835855 0)
(-1.92598 0.7965 -3.69488e-17)
(-2.04007 0.758576 3.66973e-17)
(-2.15253 0.720507 -3.64486e-17)
(-2.2585 0.681788 0)
(-2.36279 0.642424 0)
(-2.46302 0.606089 -7.14198e-17)
(-2.5605 0.571832 0)
(-2.65264 0.533684 -7.04538e-17)
(-2.7413 0.495544 -1.04963e-16)
(-2.8263 0.459636 1.04242e-16)
(-2.90602 0.42326 -6.90148e-17)
(-2.98252 0.385937 0)
(-3.05642 0.35025 0)
(-3.12987 0.322026 -6.76024e-17)
(-3.20055 0.297493 -3.35707e-17)
(-3.26487 0.271893 0)
(-3.32502 0.250802 0)
(-3.38059 0.235439 -3.28786e-17)
(-3.43072 0.218569 -6.52974e-17)
(-3.47463 0.199603 0)
(-3.51256 0.181668 6.43795e-17)
(-3.54663 0.167268 -6.39204e-17)
(-3.57531 0.153657 6.34647e-17)
(-3.59822 0.139766 0)
(-3.6149 0.126516 0)
(-3.62716 0.115346 0)
(-3.63407 0.104122 0)
(-3.63732 0.0939254 0)
(-3.63515 0.078024 6.07747e-17)
(-3.62863 0.0607879 0)
(-3.61546 0.0420626 0)
(-3.5965 0.0209874 0)
(-3.57348 -0.001025 1.18047e-16)
(-3.54493 -0.0250674 5.85914e-17)
(-3.51164 -0.049131 5.81577e-17)
(-3.47331 -0.0761645 -1.15457e-16)
(-3.42861 -0.107583 5.73034e-17)
(-3.38049 -0.137636 -5.68839e-17)
(-3.32614 -0.165164 0)
(-3.26692 -0.191158 5.6037e-17)
(-3.1978 -0.217827 0)
(-3.1245 -0.242942 0)
(-3.04562 -0.264762 0)
(-2.96528 -0.28545 1.08718e-16)
(-2.88282 -0.304575 -5.39457e-17)
(-2.79711 -0.323556 -5.35323e-17)
(-2.7102 -0.342361 -1.0627e-16)
(-2.61935 -0.362248 -1.58215e-16)
(-2.52753 -0.378101 -5.23431e-17)
(-2.43095 -0.391068 0)
(-2.33468 -0.402505 -1.0307e-16)
(-2.23687 -0.410491 0)
(-2.13913 -0.416637 -1.52202e-16)
(-2.04069 -0.426541 0)
(-1.94338 -0.432904 -1.49828e-16)
(-1.84 -0.439215 0)
(-1.73616 -0.439893 0)
(-1.62758 -0.441513 -4.87458e-17)
(-1.52044 -0.438338 0)
(-1.40996 -0.438047 4.79716e-17)
(-1.30421 -0.43354 9.51554e-17)
(-1.19057 -0.435186 4.72031e-17)
(-1.08087 -0.436901 9.36483e-17)
(-0.962703 -0.437386 -9.28913e-17)