/*--------------------------------*- C++ -*----------------------------------*\
| =========                 |                                                 |
| \\      /  F ield         | OpenFOAM: The Open Source CFD Toolbox           |
|  \\    /   O peration     | Version:  dev                                   |
|   \\  /    A nd           | Web:      http://www.openfoam.org               |
|    \\/     M anipulation  |                                                 |
\*---------------------------------------------------------------------------*/
FoamFile
{
    version     2.0;
    format      ascii;
    class       volSymmTensorField;
    object      UPrime2Mean;
    location    "9.141";
}
// * * * * * * * * * * * * * * * * * * * * * * * * * * * * * * * * * * * * * //

dimensions      [0 2 -2 0 0 0 0];

internalField   nonuniform List<symmTensor> 
12225
(
(0.329441 0.0192644 0 0.0692598 0 0)
(2.98807 0.0796685 0 0.0781823 0 0)
(7.88539 0.112257 0 0.0768861 0 0)
(14.5436 0.148157 0 0.0755628 0 0)
(22.7172 0.132898 0 0.0765082 0 0)
(32.087 0.200984 0 0.0746662 0 0)
(42.4056 0.0958448 0 0.0766059 0 0)
(53.5556 0.200247 0 0.0738463 0 0)
(65.6561 -0.0285341 0 0.0776062 0 0)
(78.2599 0.125494 0 0.0736161 0 0)
(93.0141 -0.306288 0 0.0813056 0 0)
(107.362 -0.11596 0 0.0769906 0 0)
(127.983 -0.672153 0 0.0863027 0 0)
(145.69 -1.27741 0 0.134733 0 0)
(186.035 -1.41122 0 0.116477 0 0)
(198.607 -0.392117 0 2.39473 0 0)
(272.421 -33.5499 0 5.81067 0 0)
(576.023 -52.9637 0 18.8342 0 0)
(0.377638 0.056784 0 0.688903 0 0)
(3.15813 0.252164 0 0.732193 0 0)
(8.41621 0.361995 0 0.714058 0 0)
(15.4833 0.485232 0 0.706556 0 0)
(24.2125 0.452751 0 0.703419 0 0)
(34.478 0.632607 0 0.683261 0 0)
(45.5518 0.295802 0 0.692043 0 0)
(58.5151 0.608783 0 0.658735 0 0)
(71.5127 -0.135368 0 0.682574 0 0)
(87.1967 0.282385 0 0.645934 0 0)
(102.838 -1.06524 0 0.71123 0 0)
(121.492 -0.766357 0 0.655457 0 0)
(142.924 -2.54278 0 1.06906 0 0)
(166.398 -4.49171 0 1.04699 0 0)
(199.87 -0.925059 0 3.10406 0 0)
(274.516 -9.97643 0 6.61029 0 0)
(281.149 -20.844 0 8.73867 0 0)
(800.217 -185.254 0 64.7244 0 0)
(0.505241 0.0583306 0 2.14037 0 0)
(3.0659 0.424508 0 2.20229 0 0)
(8.47117 0.570332 0 2.15123 0 0)
(14.8619 0.851656 0 2.1427 0 0)
(24.2904 0.864209 0 2.11962 0 0)
(33.1708 1.05278 0 2.08242 0 0)
(45.2968 0.755916 0 2.07817 0 0)
(56.2353 0.885969 0 2.0074 0 0)
(69.7242 0.171909 0 2.05153 0 0)
(83.4958 0.0163964 0 1.95918 0 0)
(98.2397 -1.1236 0 2.1224 0 0)
(115.728 -2.44919 0 2.09438 0 0)
(138.695 -3.59639 0 2.62239 0 0)
(154.96 -7.20013 0 2.83155 0 0)
(211.128 -13.0137 0 6.12509 0 0)
(223.513 -7.88571 0 6.3805 0 0)
(353.217 -62.287 0 31.0922 0 0)
(534.848 -192.62 0 98.2996 0 0)
(1.03023 0.0923098 0 4.67003 0 0)
(3.5517 0.619348 0 4.76659 0 0)
(9.07456 0.815591 0 4.64241 0 0)
(15.0757 1.14962 0 4.60165 0 0)
(24.6515 1.31254 0 4.5574 0 0)
(33.0038 1.34943 0 4.48305 0 0)
(45.0322 1.26095 0 4.44809 0 0)
(55.2011 0.972892 0 4.34955 0 0)
(68.6409 0.475333 0 4.38135 0 0)
(80.7614 -0.283566 0 4.25767 0 0)
(96.0912 -1.33168 0 4.50711 0 0)
(110.579 -3.34359 0 4.37225 0 0)
(131.549 -4.7948 0 5.3023 0 0)
(152.343 -10.9759 0 5.60905 0 0)
(187.967 -11.429 0 9.28841 0 0)
(238.569 -28.8726 0 16.8334 0 0)
(291.658 -58.9568 0 32.6888 0 0)
(415.022 -178.374 0 107.85 0 0)
(1.86385 0.364996 0 8.52196 0 0)
(5.01077 0.720049 0 8.72347 0 0)
(9.44148 1.13975 0 8.47231 0 0)
(16.2503 1.29419 0 8.36919 0 0)
(24.6639 1.70039 0 8.27961 0 0)
(33.9654 1.50185 0 8.14451 0 0)
(44.8473 1.59725 0 8.04387 0 0)
(55.5542 0.992142 0 7.91179 0 0)
(68.4557 0.599491 0 7.85882 0 0)
(80.1673 -0.59512 0 7.76099 0 0)
(95.4272 -1.78056 0 7.96283 0 0)
(108.619 -4.22998 0 7.91013 0 0)
(128.173 -6.88359 0 9.02755 0 0)
(145.304 -12.2916 0 9.26953 0 0)
(174.067 -19.2077 0 14.5926 0 0)
(218.029 -25.9625 0 17.2166 0 0)
(233.8 -55.6013 0 46.2776 0 0)
(326.837 -171.809 0 138.7 0 0)
(2.56284 0.750611 0 14.0387 0 0)
(6.32801 0.806959 0 14.3906 0 0)
(9.3065 1.53958 0 13.9607 0 0)
(17.1065 1.59395 0 13.766 0 0)
(24.1563 2.12001 0 13.5913 0 0)
(34.2869 1.93576 0 13.3593 0 0)
(44.0032 1.99012 0 13.1542 0 0)
(55.2051 1.41399 0 12.9135 0 0)
(67.3693 0.892858 0 12.7769 0 0)
(78.9579 -0.38812 0 12.576 0 0)
(94.482 -1.74099 0 12.7766 0 0)
(105.894 -4.31542 0 12.6852 0 0)
(128.188 -7.27102 0 13.988 0 0)
(138.019 -13.161 0 14.6685 0 0)
(171.07 -21.8456 0 21.2539 0 0)
(191.601 -33.0496 0 24.6069 0 0)
(211.169 -55.9283 0 51.5894 0 0)
(265.832 -145.728 0 130.681 0 0)
(2.24702 0.721954 0 21.5305 0 0)
(5.54925 0.941317 0 22.1467 0 0)
(9.20746 1.76326 0 21.3723 0 0)
(16.3522 2.07702 0 21.1846 0 0)
(23.9903 2.44894 0 20.786 0 0)
(33.3876 2.54186 0 20.5528 0 0)
(43.6418 2.27263 0 20.0846 0 0)
(54.0868 1.92667 0 19.8546 0 0)
(66.5312 0.894452 0 19.4368 0 0)
(77.414 -0.220532 0 19.2839 0 0)
(92.5801 -2.37558 0 19.2242 0 0)
(103.567 -4.82627 0 19.2668 0 0)
(123.723 -8.98684 0 20.477 0 0)
(134.011 -14.2668 0 21.4554 0 0)
(161.639 -24.4126 0 28.521 0 0)
(169.489 -32.4217 0 32.0562 0 0)
(203.505 -59.0339 0 56.8835 0 0)
(190.373 -108.829 0 114.197 0 0)
(1.42666 0.598934 0 29.7518 0 0)
(4.3263 1.13479 0 30.6374 0 0)
(8.59007 1.92353 0 29.49 0 0)
(15.2627 2.47206 0 29.3189 0 0)
(23.2235 2.77619 0 28.6735 0 0)
(32.2879 2.96212 0 28.4126 0 0)
(42.4488 2.5962 0 27.6608 0 0)
(52.8251 2.18905 0 27.3804 0 0)
(64.4716 1.00432 0 26.6565 0 0)
(75.6643 -0.366634 0 26.4915 0 0)
(88.7052 -2.7567 0 26.1081 0 0)
(100.494 -5.74042 0 26.3329 0 0)
(115.623 -10.3286 0 27.0893 0 0)
(128.155 -15.8075 0 28.6047 0 0)
(144.755 -26.503 0 33.9203 0 0)
(152.12 -33.4745 0 37.4852 0 0)
(180.442 -54.9191 0 53.1986 0 0)
(139.673 -71.3351 0 83.7221 0 0)
(1.0086 0.521513 0 38.522 0 0)
(3.78105 1.28767 0 39.7165 0 0)
(8.18581 2.03521 0 38.179 0 0)
(14.7374 2.77877 0 38.0379 0 0)
(22.668 3.00436 0 37.1279 0 0)
(31.6069 3.31385 0 36.8529 0 0)
(41.5317 2.80228 0 35.8018 0 0)
(51.8075 2.47 0 35.4833 0 0)
(62.87 1.03432 0 34.4745 0 0)
(73.8899 -0.286323 0 34.2747 0 0)
(85.7143 -3.05227 0 33.6438 0 0)
(97.0772 -5.91104 0 33.9037 0 0)
(109.412 -10.9576 0 34.4127 0 0)
(121.29 -16.0501 0 36.1326 0 0)
(131.306 -25.5762 0 40.0163 0 0)
(138.227 -33.2216 0 44.7458 0 0)
(150.08 -47.341 0 52.477 0 0)
(123.278 -58.777 0 73.1457 0 0)
(0.612715 0.484548 0 49.7074 0 0)
(3.238 1.44546 0 51.2956 0 0)
(7.74622 2.18565 0 49.1992 0 0)
(14.2067 3.03453 0 49.1118 0 0)
(22.0048 3.27138 0 47.8224 0 0)
(30.8669 3.57646 0 47.5431 0 0)
(40.4962 3.06127 0 46.0818 0 0)
(50.6353 2.63213 0 45.7132 0 0)
(61.1643 1.15607 0 44.2937 0 0)
(71.8369 -0.300109 0 44.0502 0 0)
(82.7235 -3.15074 0 43.006 0 0)
(93.2703 -6.04856 0 43.3251 0 0)
(103.916 -11.1055 0 43.3256 0 0)
(113.783 -15.8584 0 45.1824 0 0)
(121.397 -24.5211 0 47.6865 0 0)
(125.837 -30.5866 0 51.957 0 0)
(129.176 -40.7374 0 56.4801 0 0)
(116.067 -48.4099 0 69.0464 0 0)
(0.434433 0.516025 0 63.9004 0 0)
(2.98056 1.62676 0 65.9555 0 0)
(7.47343 2.38223 0 63.2638 0 0)
(13.8525 3.30844 0 63.1519 0 0)
(21.5021 3.56689 0 61.518 0 0)
(30.2037 3.85562 0 61.1035 0 0)
(39.5663 3.35146 0 59.2955 0 0)
(49.4083 2.81251 0 58.7006 0 0)
(59.4821 1.36192 0 56.9799 0 0)
(69.5887 -0.276556 0 56.4621 0 0)
(79.6879 -2.99288 0 55.1594 0 0)
(89.2259 -6.09423 0 55.2154 0 0)
(98.5467 -10.5677 0 54.8694 0 0)
(106.426 -15.4318 0 56.4171 0 0)
(112.593 -22.1488 0 57.8615 0 0)
(115.128 -28.0656 0 61.5915 0 0)
(116.073 -35.2131 0 64.5577 0 0)
(109.619 -40.8128 0 71.4576 0 0)
(0.356515 0.540308 0 81.392 0 0)
(2.83279 1.7439 0 84.0772 0 0)
(7.26498 2.55315 0 80.6096 0 0)
(13.522 3.4988 0 80.5003 0 0)
(20.9979 3.80536 0 78.4138 0 0)
(29.4794 4.03205 0 77.8607 0 0)
(38.5396 3.55458 0 75.5715 0 0)
(48.012 2.91193 0 74.7468 0 0)
(57.5681 1.47211 0 72.5547 0 0)
(67.0635 -0.233247 0 71.7676 0 0)
(76.2789 -2.88438 0 70.0122 0 0)
(84.867 -5.87064 0 69.7529 0 0)
(92.7754 -9.97638 0 68.9177 0 0)
(99.2061 -14.306 0 69.8712 0 0)
(103.922 -19.754 0 70.5142 0 0)
(105.866 -24.6681 0 73.0185 0 0)
(106.022 -29.8347 0 74.9615 0 0)
(101.775 -33.3201 0 78.618 0 0)
(0.329394 0.568702 0 102.468 0 0)
(2.73726 1.8054 0 105.677 0 0)
(7.07172 2.68079 0 101.652 0 0)
(13.1604 3.58003 0 101.182 0 0)
(20.441 3.92897 0 98.9182 0 0)
(28.6273 4.04897 0 97.8385 0 0)
(37.3627 3.60812 0 95.3238 0 0)
(46.3651 2.82524 0 93.8744 0 0)
(55.3957 1.46448 0 91.4378 0 0)
(64.1784 -0.353363 0 89.9867 0 0)
(72.5591 -2.7722 0 87.9598 0 0)
(80.1506 -5.70411 0 86.9856 0 0)
(86.8735 -9.2152 0 85.7737 0 0)
(92.1356 -13.1051 0 85.7808 0 0)
(95.8384 -17.3241 0 85.7309 0 0)
(97.4235 -21.3916 0 86.8726 0 0)
(97.5262 -25.2367 0 87.8999 0 0)
(94.7214 -27.6922 0 89.5047 0 0)
(0.313785 0.57286 0 126.461 0 0)
(2.64185 1.77241 0 130.39 0 0)
(6.85079 2.66485 0 125.68 0 0)
(12.736 3.45937 0 124.87 0 0)
(19.7743 3.78625 0 122.339 0 0)
(27.6266 3.7994 0 120.762 0 0)
(35.9699 3.32507 0 117.879 0 0)
(44.4813 2.47742 0 115.846 0 0)
(52.9199 1.12186 0 112.985 0 0)
(61.0152 -0.642126 0 110.894 0 0)
(68.5657 -2.91081 0 108.403 0 0)
(75.2906 -5.54344 0 106.676 0 0)
(81.0298 -8.59938 0 104.908 0 0)
(85.48 -11.8235 0 103.903 0 0)
(88.5263 -15.1871 0 103.071 0 0)
(89.9644 -18.3552 0 102.897 0 0)
(90.267 -21.2747 0 102.91 0 0)
(88.3038 -22.9219 0 103.062 0 0)
(0.29938 0.52434 0 151.875 0 0)
(2.53385 1.57994 0 156.376 0 0)
(6.58649 2.37451 0 151.247 0 0)
(12.2379 2.98369 0 149.808 0 0)
(18.9809 3.20633 0 147.249 0 0)
(26.4617 3.06356 0 144.936 0 0)
(34.364 2.52246 0 141.847 0 0)
(42.3551 1.58978 0 139.04 0 0)
(50.1937 0.259881 0 135.841 0 0)
(57.6146 -1.4455 0 132.964 0 0)
(64.4291 -3.50777 0 130.012 0 0)
(70.4093 -5.84589 0 127.439 0 0)
(75.4246 -8.42328 0 125.035 0 0)
(79.3124 -11.0758 0 123.033 0 0)
(82.0114 -13.7143 0 121.318 0 0)
(83.4298 -16.1794 0 119.979 0 0)
(84.0126 -18.3782 0 118.889 0 0)
(82.8055 -19.4246 0 117.777 0 0)
(0.284092 0.39358 0 175.096 0 0)
(2.41539 1.14355 0 180.296 0 0)
(6.28616 1.66734 0 174.687 0 0)
(11.676 1.99859 0 172.805 0 0)
(18.0851 1.99489 0 170.123 0 0)
(25.1673 1.65732 0 167.271 0 0)
(32.6016 0.976052 0 163.884 0 0)
(40.0723 -0.0334542 0 160.488 0 0)
(47.3321 -1.36829 0 156.87 0 0)
(54.1477 -2.98062 0 153.355 0 0)
(60.341 -4.84932 0 149.867 0 0)
(65.7478 -6.88048 0 146.576 0 0)
(70.2631 -9.03504 0 143.478 0 0)
(73.8137 -11.1832 0 140.622 0 0)
(76.3703 -13.2474 0 138.031 0 0)
(77.897 -15.1471 0 135.705 0 0)
(78.7794 -16.7947 0 133.593 0 0)
(78.2309 -17.3926 0 131.393 0 0)
(0.268868 0.15575 0 190.206 0 0)
(2.2945 0.389089 0 195.879 0 0)
(5.96954 0.48587 0 189.984 0 0)
(11.0802 0.40631 0 187.841 0 0)
(17.139 0.0687667 0 185.094 0 0)
(23.8133 -0.540412 0 181.924 0 0)
(30.7857 -1.41029 0 178.344 0 0)
(37.7606 -2.53316 0 174.591 0 0)
(44.5019 -3.88337 0 170.679 0 0)
(50.8034 -5.4238 0 166.759 0 0)
(56.5119 -7.11101 0 162.867 0 0)
(61.5058 -8.87986 0 159.087 0 0)
(65.7097 -10.6759 0 155.45 0 0)
(69.0941 -12.4212 0 151.988 0 0)
(71.6519 -14.0397 0 148.721 0 0)
(73.3721 -15.5099 0 145.677 0 0)
(74.5675 -16.7461 0 142.784 0 0)
(74.6123 -17.0671 0 139.789 0 0)
(0.259222 -0.143102 0 190.178 0 0)
(2.19697 -0.536212 0 195.809 0 0)
(5.69284 -0.940853 0 189.978 0 0)
(10.5472 -1.49716 0 187.826 0 0)
(16.2903 -2.21861 0 185.122 0 0)
(22.6043 -3.12191 0 181.958 0 0)
(29.1811 -4.19621 0 178.404 0 0)
(35.7478 -5.43578 0 174.653 0 0)
(42.0818 -6.81014 0 170.728 0 0)
(48.0053 -8.29069 0 166.775 0 0)
(53.3821 -9.83064 0 162.801 0 0)
(58.1238 -11.3875 0 158.915 0 0)
(62.1694 -12.9084 0 155.102 0 0)
(65.5128 -14.35 0 151.438 0 0)
(68.1526 -15.647 0 147.896 0 0)
(70.0944 -16.8065 0 144.558 0 0)
(71.5716 -17.7532 0 141.309 0 0)
(72.106 -17.9579 0 137.979 0 0)
(0.25605 -0.3969 0 174.362 0 0)
(2.13778 -1.30809 0 179.313 0 0)
(5.50205 -2.13065 0 173.984 0 0)
(10.1665 -3.08013 0 171.991 0 0)
(15.676 -4.10949 0 169.51 0 0)
(21.7259 -5.23947 0 166.62 0 0)
(28.0186 -6.46299 0 163.368 0 0)
(34.2997 -7.77695 0 159.945 0 0)
(40.3589 -9.15289 0 156.339 0 0)
(46.0396 -10.5709 0 152.71 0 0)
(51.2165 -11.9891 0 149.026 0 0)
(55.8214 -13.3809 0 145.42 0 0)
(59.8007 -14.7014 0 141.837 0 0)
(63.1587 -15.9275 0 138.384 0 0)
(65.8933 -17.0077 0 135.001 0 0)
(68.0219 -17.9571 0 131.799 0 0)
(69.7138 -18.7145 0 128.644 0 0)
(70.6115 -18.9021 0 125.444 0 0)
(0.257504 -0.545946 0 148.929 0 0)
(2.10999 -1.74897 0 152.886 0 0)
(5.38761 -2.82537 0 148.35 0 0)
(9.92441 -4.00961 0 146.633 0 0)
(15.2772 -5.21404 0 144.512 0 0)
(21.1501 -6.46368 0 142.058 0 0)
(27.2551 -7.75051 0 139.294 0 0)
(33.3501 -9.07637 0 136.389 0 0)
(39.2353 -10.4139 0 133.317 0 0)
(44.7669 -11.7532 0 130.226 0 0)
(49.8295 -13.0559 0 127.069 0 0)
(54.3638 -14.3089 0 123.975 0 0)
(58.3237 -15.4729 0 120.88 0 0)
(61.7146 -16.5389 0 117.892 0 0)
(64.5357 -17.4634 0 114.943 0 0)
(66.8091 -18.2653 0 112.145 0 0)
(68.66 -18.8941 0 109.372 0 0)
(69.8209 -19.1034 0 106.581 0 0)
(0.260373 -0.601663 0 120.029 0 0)
(2.10107 -1.89093 0 122.998 0 0)
(5.32156 -3.06963 0 119.351 0 0)
(9.77296 -4.34328 0 117.957 0 0)
(15.0209 -5.60214 0 116.251 0 0)
(20.7761 -6.87233 0 114.286 0 0)
(26.7573 -8.14356 0 112.073 0 0)
(32.7316 -9.42119 0 109.747 0 0)
(38.5064 -10.6799 0 107.283 0 0)
(43.9463 -11.9165 0 104.799 0 0)
(48.9438 -13.0972 0 102.257 0 0)
(53.4442 -14.2176 0 99.7586 0 0)
(57.4062 -15.2431 0 97.2539 0 0)
(60.8347 -16.1738 0 94.8286 0 0)
(63.7298 -16.9727 0 92.4304 0 0)
(66.1166 -17.6594 0 90.147 0 0)
(68.0896 -18.1928 0 87.8822 0 0)
(69.4493 -18.4282 0 85.6071 0 0)
(0.263317 -0.590832 0 91.8814 0 0)
(2.10073 -1.83101 0 93.9965 0 0)
(5.28379 -2.99827 0 91.2057 0 0)
(9.67831 -4.24919 0 90.1322 0 0)
(14.8557 -5.46992 0 88.8329 0 0)
(20.5323 -6.68288 0 87.3381 0 0)
(26.4317 -7.87761 0 85.6575 0 0)
(32.3272 -9.05911 0 83.8856 0 0)
(38.0318 -10.2067 0 82.0099 0 0)
(43.4155 -11.319 0 80.1128 0 0)
(48.3764 -12.3692 0 78.172 0 0)
(52.8624 -13.3556 0 76.2575 0 0)
(56.8357 -14.2507 0 74.3395 0 0)
(60.2995 -15.0571 0 72.4761 0 0)
(63.2556 -15.7467 0 70.6349 0 0)
(65.731 -16.3344 0 68.8749 0 0)
(67.7985 -16.791 0 67.1322 0 0)
(69.311 -17.0403 0 65.3793 0 0)
(0.266396 -0.536997 0 66.93 0 0)
(2.10457 -1.65168 0 68.3701 0 0)
(5.26248 -2.73196 0 66.3385 0 0)
(9.61925 -3.88523 0 65.5556 0 0)
(14.7494 -5.00516 0 64.6175 0 0)
(20.3736 -6.10762 0 63.5356 0 0)
(26.2195 -7.18458 0 62.3214 0 0)
(32.0638 -8.23793 0 61.0357 0 0)
(37.7245 -9.25286 0 59.6768 0 0)
(43.0746 -10.2269 0 58.297 0 0)
(48.0165 -11.1408 0 56.8881 0 0)
(52.4993 -11.9922 0 55.4935 0 0)
(56.4877 -12.7616 0 54.0995 0 0)
(59.9835 -13.4507 0 52.7408 0 0)
(62.9897 -14.04 0 51.4007 0 0)
(65.5342 -14.5388 0 50.1149 0 0)
(67.6741 -14.9287 0 48.8452 0 0)
(69.3045 -15.1763 0 47.5642 0 0)
(0.268246 -0.463071 0 46.2871 0 0)
(2.109 -1.41658 0 47.2257 0 0)
(5.25065 -2.36481 0 45.8251 0 0)
(9.58246 -3.37648 0 45.287 0 0)
(14.6809 -4.35785 0 44.6458 0 0)
(20.2705 -5.31836 0 43.902 0 0)
(26.0818 -6.25297 0 43.068 0 0)
(31.8938 -7.15998 0 42.1807 0 0)
(37.5277 -8.03044 0 41.2451 0 0)
(42.8585 -8.85968 0 40.292 0 0)
(47.7912 -9.63545 0 39.322 0 0)
(52.276 -10.3537 0 38.3594 0 0)
(56.2789 -11.0022 0 37.3999 0 0)
(59.8008 -11.5803 0 36.4619 0 0)
(62.8449 -12.0758 0 35.5387 0 0)
(65.4402 -12.4925 0 34.6496 0 0)
(67.6322 -12.8204 0 33.7747 0 0)
(69.3486 -13.0506 0 32.8886 0 0)
(0.269412 -0.383232 0 30.1563 0 0)
(2.11254 -1.16521 0 30.7406 0 0)
(5.24391 -1.95917 0 29.8304 0 0)
(9.55899 -2.80844 0 29.4832 0 0)
(14.6361 -3.63235 0 29.0711 0 0)
(20.2025 -4.4371 0 28.5906 0 0)
(25.9907 -5.21892 0 28.0514 0 0)
(31.7806 -5.97478 0 27.4757 0 0)
(37.3957 -6.69818 0 26.8697 0 0)
(42.7119 -7.38436 0 26.2513 0 0)
(47.6363 -8.02478 0 25.6233 0 0)
(52.1185 -8.6153 0 24.9989 0 0)
(56.1267 -9.14796 0 24.3779 0 0)
(59.6608 -9.62088 0 23.7693 0 0)
(62.7246 -10.0265 0 23.1712 0 0)
(65.3457 -10.3651 0 22.5935 0 0)
(67.5647 -10.6323 0 22.0265 0 0)
(69.334 -10.8298 0 21.4509 0 0)
(0.269736 -0.30473 0 18.2106 0 0)
(2.11431 -0.920225 0 18.5548 0 0)
(5.23854 -1.5548 0 18.0041 0 0)
(9.53958 -2.23794 0 17.7981 0 0)
(14.5977 -2.9023 0 17.555 0 0)
(20.142 -3.55247 0 17.2705 0 0)
(25.9058 -4.18372 0 16.9503 0 0)
(31.6701 -4.79271 0 16.6074 0 0)
(37.2595 -5.37291 0 16.2456 0 0)
(42.5504 -5.92083 0 15.8756 0 0)
(47.4522 -6.42921 0 15.499 0 0)
(51.9134 -6.89568 0 15.1239 0 0)
(55.9058 -7.31343 0 14.7504 0 0)
(59.4271 -7.68217 0 14.3836 0 0)
(62.4857 -7.9961 0 14.0231 0 0)
(65.104 -8.25581 0 13.6742 0 0)
(67.3262 -8.46045 0 13.3322 0 0)
(69.123 -8.6108 0 12.9854 0 0)
(0.269383 -0.228365 0 9.88153 0 0)
(2.11205 -0.691571 0 10.065 0 0)
(5.22132 -1.17915 0 9.76784 0 0)
(9.49609 -1.70904 0 9.66547 0 0)
(14.524 -2.2236 0 9.54107 0 0)
(20.0349 -2.72415 0 9.39188 0 0)
(25.7617 -3.20635 0 9.2212 0 0)
(31.488 -3.66772 0 9.03699 0 0)
(37.0383 -4.10252 0 8.84125 0 0)
(42.2921 -4.50918 0 8.64026 0 0)
(47.1579 -4.88212 0 8.43462 0 0)
(51.5889 -5.22148 0 8.22949 0 0)
(55.556 -5.52148 0 8.02433 0 0)
(59.061 -5.78432 0 7.82309 0 0)
(62.1113 -6.00389 0 7.62482 0 0)
(64.7287 -6.18374 0 7.43352 0 0)
(66.9545 -6.32685 0 7.24676 0 0)
(68.7847 -6.42886 0 7.05856 0 0)
(0.268235 -0.154867 0 4.48573 0 0)
(2.08518 -0.498064 0 4.58132 0 0)
(5.16 -0.852659 0 4.45614 0 0)
(9.39522 -1.22912 0 4.4205 0 0)
(14.3975 -1.58625 0 4.36943 0 0)
(19.8829 -1.92864 0 4.305 0 0)
(25.5831 -2.25367 0 4.22769 0 0)
(31.2835 -2.55906 0 4.1412 0 0)
(36.8107 -2.84324 0 4.04818 0 0)
(42.0437 -3.10737 0 3.95236 0 0)
(46.8928 -3.34856 0 3.85456 0 0)
(51.3145 -3.56765 0 3.75747 0 0)
(55.2758 -3.76091 0 3.66058 0 0)
(58.7868 -3.93039 0 3.56661 0 0)
(61.8437 -4.06998 0 3.47395 0 0)
(64.4799 -4.18501 0 3.38648 0 0)
(66.7028 -4.27548 0 3.30124 0 0)
(68.5612 -4.3455 0 3.21704 0 0)
(0.255332 -0.0882198 0 1.42089 0 0)
(2.0692 -0.313539 0 1.48661 0 0)
(5.20848 -0.526125 0 1.44656 0 0)
(9.5022 -0.734537 0 1.43341 0 0)
(14.5579 -0.924667 0 1.41329 0 0)
(20.0946 -1.10732 0 1.39003 0 0)
(25.8512 -1.28398 0 1.36339 0 0)
(31.6107 -1.45212 0 1.33406 0 0)
(37.1994 -1.61007 0 1.30307 0 0)
(42.4916 -1.75765 0 1.27146 0 0)
(47.4003 -1.89338 0 1.23965 0 0)
(51.8744 -2.01726 0 1.20824 0 0)
(55.8856 -2.12728 0 1.17719 0 0)
(59.4363 -2.22408 0 1.14723 0 0)
(62.5266 -2.30359 0 1.11796 0 0)
(65.1943 -2.36978 0 1.09148 0 0)
(67.4171 -2.42238 0 1.06627 0 0)
(69.2675 -2.46184 0 1.03932 0 0)
(0.246008 -0.0253372 0 0.141834 0 0)
(2.06702 -0.0978493 0 0.153613 0 0)
(5.18735 -0.165598 0 0.150828 0 0)
(9.45021 -0.230852 0 0.149659 0 0)
(14.4872 -0.293758 0 0.147356 0 0)
(20.0112 -0.354096 0 0.144629 0 0)
(25.7611 -0.412921 0 0.14163 0 0)
(31.5183 -0.469421 0 0.138499 0 0)
(37.1141 -0.522764 0 0.135277 0 0)
(42.4242 -0.572766 0 0.132025 0 0)
(47.3632 -0.619124 0 0.128768 0 0)
(51.8781 -0.661806 0 0.125566 0 0)
(55.9427 -0.700241 0 0.122423 0 0)
(59.5521 -0.734286 0 0.119399 0 0)
(62.7126 -0.763204 0 0.116574 0 0)
(65.4572 -0.788447 0 0.114237 0 0)
(67.7701 -0.80666 0 0.112163 0 0)
(69.6982 -0.815941 0 0.111779 0 0)
(0.0244881 0.035766 0 0.717435 0 0)
(0.267331 0.0991139 0 0.678489 0 0)
(0.785656 0.180947 0 0.671314 0 0)
(1.53928 0.295015 0 0.662096 0 0)
(2.48647 0.424029 0 0.6605 0 0)
(3.60902 0.568833 0 0.657233 0 0)
(4.88501 0.715877 -2.38408e-19 0.655269 -6.4862e-20 1.47839e-37)
(6.31157 0.866773 2.42391e-19 0.650956 6.91606e-20 1.48289e-37)
(7.88204 1.01371 0 0.644938 0 0)
(9.59441 1.16113 2.44771e-19 0.637356 6.85713e-20 1.46068e-37)
(11.4435 1.30515 0 0.628768 0 0)
(13.4233 1.44802 0 0.619669 0 0)
(15.5273 1.58513 0 0.611707 0 0)
(17.749 1.71683 -2.77285e-19 0.605232 -5.16745e-20 1.34714e-37)
(20.0823 1.83995 0 0.599013 0 0)
(22.5277 1.95358 0 0.593783 0 0)
(25.0853 2.05352 3.40492e-19 0.589487 3.90192e-20 1.22065e-37)
(27.7537 2.1414 0 0.585039 0 0)
(30.5279 2.21987 0 0.58038 0 0)
(33.4021 2.29119 0 0.575949 0 0)
(36.3606 2.35435 -4.56426e-19 0.572633 -1.9569e-20 1.01767e-37)
(39.3937 2.41011 0 0.568894 0 0)
(42.4877 2.45655 -5.16181e-19 0.566649 -1.0294e-20 9.25123e-38)
(45.6334 2.49351 0 0.567864 0 0)
(48.8148 2.52719 0 0.568637 0 0)
(52.0177 2.5502 -6.04305e-19 0.570819 1.23235e-21 7.97614e-38)
(55.2352 2.55233 0 0.572648 0 0)
(58.4717 2.53485 6.57925e-19 0.571098 -6.96059e-21 7.21547e-38)
(61.7209 2.50379 0 0.563192 0 0)
(64.9888 2.46101 -7.02677e-19 0.552743 1.05115e-20 6.53902e-38)
(68.2736 2.40917 0 0.539183 0 0)
(71.5629 2.35063 0 0.523378 0 0)
(74.8491 2.28523 0 0.509342 0 0)
(78.1335 2.20925 0 0.497964 0 0)
(81.4102 2.12208 0 0.486424 0 0)
(84.6758 2.02663 7.79755e-19 0.475535 -1.40072e-20 4.59922e-38)
(87.929 1.92277 0 0.46393 0 0)
(91.1709 1.81035 -1.56263e-18 0.447911 2.71555e-20 1.61358e-37)
(94.3999 1.69097 0 0.432339 0 0)
(97.6111 1.56347 1.55259e-18 0.417716 -2.61675e-20 1.39943e-37)
(100.798 1.4304 0 0.402571 0 0)
(103.959 1.28813 0 0.390896 0 0)
(107.085 1.13764 -1.51451e-18 0.378327 2.15889e-20 1.11242e-37)
(110.159 0.9849 0 0.365507 0 0)
(113.167 0.83019 -1.47598e-18 0.354686 1.82894e-20 9.43084e-38)
(116.092 0.672321 1.45354e-18 0.345806 -1.65528e-20 8.66184e-38)
(118.919 0.508637 0 0.339663 0 0)
(121.64 0.338718 1.40276e-18 0.334875 -1.25223e-20 7.3411e-38)
(124.239 0.163355 1.37457e-18 0.330976 -1.06531e-20 6.79511e-38)
(126.716 -0.0145212 0 0.327725 0 0)
(129.056 -0.193845 0 0.325602 0 0)
(131.241 -0.377412 0 0.322927 0 0)
(133.25 -0.565998 0 0.32172 0 0)
(135.062 -0.756874 0 0.323764 0 0)
(136.651 -0.946733 -1.17427e-18 0.327976 -4.39727e-21 5.0167e-38)
(137.989 -1.13803 0 0.332081 0 0)
(139.063 -1.33412 1.07962e-18 0.335765 1.14625e-20 4.75196e-38)
(139.877 -1.53684 0 0.340985 0 0)
(140.426 -1.74573 0 0.34778 0 0)
(140.695 -1.95174 -9.11849e-19 0.357105 -2.24637e-20 4.75235e-38)
(140.678 -2.15594 0 0.369089 0 0)
(140.358 -2.36103 7.80423e-19 0.381098 3.12467e-20 4.96933e-38)
(139.743 -2.56493 0 0.39139 0 0)
(138.826 -2.76873 0 0.404181 0 0)
(137.619 -2.97169 0 0.41835 0 0)
(136.133 -3.16743 -4.82076e-19 0.432755 -4.76095e-20 6.03514e-38)
(134.372 -3.35658 0 0.44748 0 0)
(132.348 -3.53937 0 0.460558 0 0)
(130.075 -3.71482 -2.26333e-19 0.474216 -6.12003e-20 7.30522e-38)
(127.572 -3.88804 0 0.489292 0 0)
(124.877 -4.05396 -5.07623e-20 0.504472 -6.98445e-20 8.30359e-38)
(122 -4.20744 0 0.519929 0 0)
(118.958 -4.34873 0 0.535931 0 0)
(115.783 -4.47923 0 0.553073 0 0)
(112.496 -4.60037 -3.0489e-19 0.571215 8.32064e-20 1.04545e-37)
(109.117 -4.70942 0 0.589303 0 0)
(105.662 -4.80318 0 0.607268 0 0)
(102.142 -4.88189 -5.64209e-19 0.625372 9.03352e-20 1.20179e-37)
(98.5714 -4.94995 -6.4602e-19 0.644162 9.18776e-20 1.25292e-37)
(94.9766 -5.00701 0 0.662979 0 0)
(91.3891 -5.0522 -7.99107e-19 0.682714 9.46521e-20 1.34715e-37)
(87.8298 -5.08624 0 0.703914 0 0)
(84.3194 -5.10845 -1.87795e-18 0.725489 1.92623e-19 5.74525e-37)
(80.8724 -5.11772 0 0.748149 0 0)
(77.5065 -5.11246 -2.123e-18 0.770741 1.93755e-19 6.07684e-37)
(74.24 -5.09079 0 0.793698 0 0)
(71.087 -5.05606 2.32576e-18 0.819674 -1.93898e-19 6.36657e-37)
(68.0649 -5.00803 0 0.8447 0 0)
(65.1879 -4.94134 0 0.867012 0 0)
(62.4557 -4.85584 0 0.889714 0 0)
(59.8725 -4.7536 -2.58684e-18 0.914726 1.86292e-19 6.80013e-37)
(57.4441 -4.63706 0 0.93933 0 0)
(55.1796 -4.50446 2.64775e-18 0.96359 -1.80006e-19 6.9473e-37)
(53.0819 -4.3556 0 0.987339 0 0)
(51.1398 -4.18448 -2.65966e-18 1.01091 1.73648e-19 7.03584e-37)
(49.3481 -3.99674 -2.65042e-18 1.0322 1.70404e-19 7.07104e-37)
(47.6948 -3.7963 -2.63132e-18 1.05344 1.66235e-19 7.09792e-37)
(46.1753 -3.58677 0 1.07584 0 0)
(44.7629 -3.3671 0 1.09896 0 0)
(43.468 -3.13843 0 1.11852 0 0)
(42.2719 -2.90077 0 1.13831 0 0)
(41.1696 -2.66123 0 1.15819 0 0)
(40.1429 -2.42134 0 1.17721 0 0)
(39.1889 -2.17859 0 1.19231 0 0)
(38.2617 -1.93513 0 1.20829 0 0)
(37.3591 -1.69839 2.02536e-18 1.22359 -1.31563e-19 7.07641e-37)
(36.4487 -1.47003 1.91119e-18 1.24077 -1.24232e-19 7.07004e-37)
(35.5546 -1.2509 0 1.25242 0 0)
(34.6424 -1.0407 0 1.26543 0 0)
(33.7221 -0.853975 0 1.27944 0 0)
(32.741 -0.677559 1.35351e-18 1.29205 -1.04639e-19 6.91168e-37)
(31.7992 -0.527168 0 1.29931 0 0)
(30.789 -0.384854 0 1.30912 0 0)
(29.8331 -0.281978 0 1.3192 0 0)
(28.9054 -0.198479 0 1.33243 0 0)
(28.0755 -0.148212 -4.3838e-19 1.34085 7.57323e-20 6.66153e-37)
(27.3755 -0.122116 0 1.35019 0 0)
(26.8381 -0.131557 0 1.36363 0 0)
(26.5485 -0.174655 -2.23263e-19 1.37151 -6.55282e-20 6.42552e-37)
(26.5062 -0.243901 4.50317e-19 1.38421 6.11142e-20 6.29972e-37)
(26.7612 -0.353573 0 1.40109 0 0)
(27.3668 -0.510308 9.13003e-19 1.41846 6.00968e-20 6.0521e-37)
(28.3885 -0.707319 0 1.4375 0 0)
(29.8862 -0.959137 -1.35434e-18 1.4551 -6.45638e-20 5.75513e-37)
(31.8801 -1.24529 0 1.47784 0 0)
(34.4457 -1.58104 0 1.50492 0 0)
(37.4804 -1.95909 0 1.53769 0 0)
(41.0954 -2.38799 0 1.57198 0 0)
(45.1445 -2.84277 0 1.61009 0 0)
(49.6317 -3.34451 4.8995e-18 1.65228 2.04731e-19 1.97216e-36)
(54.4965 -3.89022 5.15457e-18 1.69849 2.30611e-19 1.93745e-36)
(59.7572 -4.4717 0 1.74691 0 0)
(65.2182 -5.07366 0 1.80261 0 0)
(70.8332 -5.70045 0 1.85791 0 0)
(76.4555 -6.31373 -5.69441e-18 1.91871 -3.52342e-19 1.91763e-36)
(81.8601 -6.92803 0 1.98981 0 0)
(87.0075 -7.54913 0 2.06203 0 0)
(91.8397 -8.16327 0 2.13854 0 0)
(96.2825 -8.75616 -5.33334e-18 2.21691 -5.33603e-19 2.0722e-36)
(100.316 -9.3227 5.10009e-18 2.30035 5.82383e-19 2.13424e-36)
(103.724 -9.84397 0 2.39111 0 0)
(106.631 -10.3534 0 2.48386 0 0)
(108.999 -10.8065 4.08034e-18 2.57838 7.35474e-19 2.36625e-36)
(110.834 -11.2254 3.651e-18 2.67177 7.84346e-19 2.45151e-36)
(111.985 -11.5692 0 2.772 0 0)
(112.554 -11.8839 0 2.87191 0 0)
(112.431 -12.1256 -2.05315e-18 2.97586 -9.45757e-19 2.71938e-36)
(111.749 -12.3494 1.42372e-18 3.0708 9.89347e-19 2.79811e-36)
(110.551 -12.5027 0 3.16756 0 0)
(108.638 -12.6021 0 3.26813 0 0)
(106.131 -12.6349 -5.20284e-19 3.35898 1.11713e-18 3.06885e-36)
(102.994 -12.614 0 3.4494 0 0)
(99.5099 -12.5552 0 3.53292 0 0)
(95.52 -12.4057 -2.54622e-18 3.60533 1.20598e-18 3.30154e-36)
(91.2218 -12.1844 0 3.67728 0 0)
(86.6021 -11.852 -3.82952e-18 3.73867 1.25695e-18 3.44441e-36)
(81.7184 -11.4342 0 3.79431 0 0)
(76.6131 -10.8986 0 3.8334 0 0)
(71.6729 -10.2648 0 3.85742 0 0)
(66.7952 -9.46694 5.86785e-18 3.87613 -1.27758e-18 3.68224e-36)
(62.1433 -8.54941 0 3.87956 0 0)
(57.9325 -7.47977 0 3.86751 0 0)
(54.4828 -6.29046 0 3.83959 0 0)
(51.6349 -4.91198 0 3.79754 0 0)
(49.5438 -3.45326 0 3.74704 0 0)
(48.8269 -1.89997 0 3.67488 0 0)
(49.6701 -0.277042 6.01878e-18 3.58509 -1.104e-18 3.72715e-36)
(51.739 1.43545 5.60312e-18 3.48681 -1.04965e-18 3.70955e-36)
(55.4492 3.12715 0 3.37531 0 0)
(60.7088 4.75331 0 3.25741 0 0)
(67.5168 6.33235 0 3.12792 0 0)
(75.4563 7.80454 -3.04864e-18 2.99824 7.94745e-19 3.38349e-36)
(84.5817 9.10535 0 2.87012 0 0)
(94.1324 10.2928 2.94201e-18 2.73516 -1.35028e-18 1.2362e-35)
(104.009 11.249 -1.30548e-18 2.60453 1.21745e-18 1.16607e-35)
(113.635 12.0379 3.21408e-19 2.47319 1.10453e-18 1.10171e-35)
(123.278 12.6874 -2.02525e-18 2.34842 -1.01386e-18 1.0332e-35)
(131.384 13.2275 3.67701e-18 2.22946 9.2251e-19 9.75795e-36)
(139.246 13.7031 -5.28172e-18 2.12217 -9.03076e-19 8.99324e-36)
(142.986 14.3949 0 2.06625 0 0)
(0.0183145 0.174256 0 6.0971 0 0)
(0.202755 0.387966 0 6.0352 0 0)
(0.629613 0.609853 1.31773e-19 5.8625 1.75923e-19 6.76488e-37)
(1.32736 0.854278 0 5.74173 0 0)
(2.26979 1.13346 -1.92382e-19 5.68188 -3.53605e-19 9.19272e-37)
(3.44637 1.43813 -1.84011e-19 5.65465 -4.4142e-19 9.72292e-37)
(4.83599 1.76267 -8.07281e-20 5.63917 -2.51388e-19 2.48897e-37)
(6.42432 2.1031 -6.90124e-20 5.62106 -2.70276e-19 2.61142e-37)
(8.20351 2.45216 0 5.59265 0 0)
(10.1715 2.80535 -4.22498e-20 5.55 -2.69071e-19 2.59296e-37)
(12.3297 3.15387 0 5.49807 0 0)
(14.6764 3.49535 0 5.4384 0 0)
(17.203 3.82462 9.50165e-20 5.37007 4.23651e-19 9.50678e-37)
(19.9106 4.14126 6.96977e-20 5.29813 1.86845e-19 2.34025e-37)
(22.7883 4.43555 -1.85898e-19 5.22292 -3.26139e-19 8.93239e-37)
(25.8302 4.7075 -2.52241e-19 5.14471 -2.81109e-19 8.65536e-37)
(29.0248 4.9586 -1.7151e-19 5.06032 -1.18402e-19 2.12656e-37)
(32.3659 5.19031 0 4.96956 0 0)
(35.8417 5.40089 0 4.87388 0 0)
(39.4436 5.59489 0 4.77121 0 0)
(43.1482 5.77156 -3.8711e-19 4.66635 -3.66583e-20 1.80329e-37)
(46.9467 5.92817 0 4.56188 0 0)
(50.8165 6.05638 1.61059e-18 4.45538 -1.64927e-20 1.55134e-36)
(54.7448 6.15979 0 4.35245 0 0)
(58.7148 6.24011 0 4.24728 0 0)
(62.7091 6.29747 7.75408e-19 4.14302 -5.77651e-20 1.56459e-37)
(66.7 6.32856 0 4.03695 0 0)
(70.6687 6.34277 -9.33532e-19 3.93625 8.18429e-20 1.45963e-37)
(74.5816 6.33361 -1.99464e-18 3.83613 1.81627e-19 5.56979e-37)
(78.4288 6.2959 1.07757e-18 3.7332 -9.87738e-20 1.36597e-37)
(82.2063 6.22681 0 3.62529 0 0)
(85.9141 6.12977 0 3.51992 0 0)
(89.5389 6.00728 0 3.41659 0 0)
(93.0845 5.86052 -2.57744e-18 3.30856 2.22838e-19 4.71346e-37)
(96.5424 5.68398 -2.65571e-18 3.20125 2.20374e-19 4.5521e-37)
(99.9263 5.47797 -1.37405e-18 3.10038 1.07622e-19 1.10776e-37)
(103.245 5.24079 0 3.00853 0 0)
(106.49 4.96753 2.83874e-18 2.92044 -2.03032e-19 4.12879e-37)
(109.672 4.65617 0 2.83521 0 0)
(112.783 4.31599 -2.87517e-18 2.75362 1.88326e-19 3.81552e-37)
(115.831 3.94803 0 2.67325 0 0)
(118.812 3.56022 0 2.60106 0 0)
(121.734 3.1566 2.82779e-18 2.53004 -1.53933e-19 3.31637e-37)
(124.58 2.73413 0 2.46463 0 0)
(127.333 2.28611 8.15954e-18 2.40659 -3.9298e-19 2.6836e-36)
(129.991 1.8084 -2.68866e-18 2.36122 1.19061e-19 2.83602e-37)
(132.557 1.30539 0 2.33405 0 0)
(135.046 0.777204 -2.54901e-18 2.31824 9.08356e-20 2.51664e-37)
(137.445 0.216305 -2.4684e-18 2.312 7.66059e-20 2.36099e-37)
(139.75 -0.370864 0 2.31435 0 0)
(141.939 -0.969782 0 2.32779 0 0)
(143.993 -1.5663 0 2.34287 0 0)
(145.897 -2.15099 0 2.35645 0 0)
(147.615 -2.7282 0 2.38005 0 0)
(149.132 -3.30688 1.88338e-18 2.41283 1.45564e-20 1.72004e-37)
(150.429 -3.89454 3.4512e-18 2.45613 7.12168e-20 6.55556e-37)
(151.485 -4.48591 -1.64443e-18 2.50728 -5.59422e-20 1.60028e-37)
(152.311 -5.09563 0 2.56346 0 0)
(152.881 -5.70682 2.68707e-18 2.62662 1.90282e-19 6.01193e-37)
(153.166 -6.29746 -1.17002e-18 2.69475 -1.13275e-19 1.46804e-37)
(153.194 -6.88301 0 2.77152 0 0)
(152.914 -7.46258 -9.78141e-19 2.86142 -1.48653e-19 1.49454e-37)
(152.339 -8.02042 0 2.95469 0 0)
(151.462 -8.56895 0 3.05595 0 0)
(150.28 -9.09912 -1.0473e-18 3.16206 -3.96993e-19 6.25378e-37)
(148.78 -9.60044 4.22499e-19 3.27288 2.15272e-19 1.63708e-37)
(147 -10.094 -4.88884e-19 3.39319 -4.62264e-19 6.68252e-37)
(144.935 -10.5661 2.11831e-19 3.51771 4.89152e-19 6.92041e-37)
(142.61 -11.0137 1.00501e-20 3.64338 2.54481e-19 1.82656e-37)