/*--------------------------------*- C++ -*----------------------------------*\
| =========                 |                                                 |
| \\      /  F ield         | OpenFOAM: The Open Source CFD Toolbox           |
|  \\    /   O peration     | Version:  dev                                   |
|   \\  /    A nd           | Web:      http://www.openfoam.org               |
|    \\/     M anipulation  |                                                 |
\*---------------------------------------------------------------------------*/
FoamFile
{
    version     2.0;
    format      ascii;
    class       volScalarField;
    object      k;
    location    "9.158";
}
// * * * * * * * * * * * * * * * * * * * * * * * * * * * * * * * * * * * * * //

dimensions      [0 2 -2 0 0 0 0];

internalField   nonuniform List<scalar> 
12225
(
8.494
10.7178
7.17497
7.71395
5.09533
7.51319
5.23063
8.25544
6.04577
9.50143
7.4709
11.1793
9.75747
12.9758
13.3745
14.8356
18.8101
28.7069
1.81544
6.08018
5.17887
6.19883
4.54816
5.76201
4.2103
5.75454
4.28823
6.048
4.74936
6.39929
5.68089
6.32586
7.81049
6.58923
15.4588
23.078
0.157654
1.7466
1.95045
2.96407
2.73652
3.13419
2.88271
3.04594
2.98851
2.79102
3.00274
2.5353
3.19711
2.19096
3.65863
1.88214
6.34054
8.80897
0.00997078
0.284108
0.542128
0.739309
1.11023
1.14382
1.44207
1.33336
1.67987
1.39087
1.71219
1.32174
1.65902
1.11664
1.70365
0.908652
2.61162
2.69124
0.00285794
0.0468359
0.133147
0.212006
0.382741
0.431268
0.591553
0.582371
0.703324
0.612175
0.742859
0.582823
0.756058
0.541672
0.785311
0.536078
1.05207
0.973645
0.00273802
0.0143424
0.0394262
0.0604651
0.117469
0.129585
0.193562
0.186176
0.246675
0.21481
0.282565
0.226152
0.309225
0.244761
0.342931
0.274082
0.508613
0.457269
0.000747046
0.00153344
0.0075427
0.00935015
0.026823
0.0284431
0.0517761
0.0485819
0.0747235
0.0675635
0.0958932
0.0822509
0.11539
0.102347
0.136154
0.121614
0.193069
0.187479
0.000162543
0.000438883
0.00202471
0.00249824
0.0075507
0.00824578
0.015786
0.0153085
0.0242019
0.0232253
0.0333397
0.0315842
0.0434057
0.0430392
0.0547356
0.0557614
0.0713788
0.0788377
0.000163971
0.000401949
0.00101201
0.00130024
0.00299665
0.0036313
0.00648611
0.00708833
0.0104837
0.0112538
0.0153457
0.0162761
0.0205787
0.0222041
0.0271465
0.0297702
0.0352816
0.0395722
0.000215891
0.000339014
0.000714106
0.00104306
0.00204931
0.002775
0.00449055
0.00546932
0.00735106
0.00852001
0.0105976
0.011922
0.0141252
0.0157519
0.0178114
0.0202715
0.0226325
0.0248823
8.48465e-05
0.000293979
0.000636158
0.0014744
0.00221336
0.00381445
0.00508796
0.00670576
0.0081605
0.00944146
0.0108306
0.0121058
0.013303
0.0148042
0.0158951
0.0177432
0.0190747
0.0204872
7.89688e-05
0.000431898
0.000884164
0.00226254
0.0032879
0.00596369
0.00745395
0.0104697
0.0122162
0.0139003
0.0143405
0.0153182
0.0157414
0.016606
0.0172199
0.0183696
0.0191101
0.0200078
0.000104561
0.000625828
0.0016047
0.00443489
0.0065846
0.0110102
0.0134032
0.0171838
0.0193506
0.0216913
0.0228279
0.0236681
0.0240233
0.0242094
0.0241494
0.0239902
0.0235068
0.0226017
0.00023792
0.00137917
0.00374649
0.00928743
0.0148665
0.0210986
0.0257666
0.0294318
0.0313311
0.0325146
0.0331331
0.0335564
0.0339687
0.0341015
0.0340485
0.0337494
0.0323185
0.030574
0.000388537
0.00275949
0.00830826
0.0167013
0.0258795
0.0350588
0.0425133
0.0477596
0.0508423
0.0523619
0.0531053
0.0535119
0.0536703
0.0536668
0.0532884
0.0512494
0.0479387
0.0449905
0.00114868
0.00643065
0.0164025
0.0294603
0.0429232
0.0545896
0.06317
0.0686601
0.0715625
0.0728826
0.073347
0.0734214
0.073163
0.0718649
0.0676445
0.062884
0.0578288
0.0534229
0.00122313
0.00773947
0.0202908
0.0357223
0.050951
0.063576
0.0724228
0.0776039
0.0800126
0.0807999
0.080948
0.080832
0.0800936
0.077473
0.0717549
0.0663888
0.0607895
0.0558783
0.00119799
0.00700979
0.0189768
0.0346129
0.0503162
0.0633457
0.0724347
0.0776377
0.0800239
0.0807562
0.0808763
0.0807112
0.07984
0.0767802
0.0708427
0.0653601
0.0596872
0.0547372
0.000767829
0.00493214
0.0147728
0.0290987
0.0435467
0.0557141
0.0643711
0.0695935
0.072129
0.0729925
0.0732392
0.0731946
0.0725823
0.0701295
0.0648116
0.0598988
0.0547523
0.0503129
0.000691228
0.00423154
0.0104639
0.0187814
0.0278466
0.0362783
0.0431027
0.0479287
0.0508155
0.052205
0.0526918
0.0528642
0.0528291
0.0522941
0.050039
0.0465691
0.042911
0.0398425
0.000606575
0.00242936
0.0059115
0.0109857
0.0166934
0.022006
0.0263451
0.0293744
0.0312395
0.032272
0.0326811
0.0328254
0.032828
0.0325519
0.0312216
0.0289215
0.0264014
0.0243591
0.000188568
0.00113158
0.00328359
0.00678597
0.0104106
0.013659
0.0162594
0.0179414
0.0188467
0.0191517
0.0192845
0.0194029
0.0194508
0.0194371
0.0191874
0.0183721
0.0173777
0.0166805
8.35133e-05
0.000694202
0.00202676
0.00371633
0.00552882
0.00700076
0.00810558
0.00891603
0.009717
0.0109384
0.0123464
0.013596
0.0144133
0.0148717
0.0150414
0.0150559
0.0150249
0.0150163
7.37851e-05
0.000411342
0.00122541
0.00189993
0.0032706
0.00441658
0.00525943
0.00618591
0.00731952
0.00942901
0.0117522
0.0141968
0.0160308
0.0171394
0.0179426
0.018442
0.0192287
0.0203706
7.46567e-05
0.000305047
0.000675982
0.00138623
0.00300963
0.00593983
0.0089731
0.0128344
0.0173256
0.0240177
0.0299981
0.0362559
0.0402092
0.0431428
0.0449706
0.0469137
0.0496137
0.053352
4.29168e-05
0.000705022
0.00362695
0.0106509
0.0262654
0.0457242
0.0641498
0.0834913
0.103391
0.125667
0.143498
0.158828
0.166593
0.172374
0.174454
0.178198
0.180818
0.186669
0.00050367
0.0157898
0.0640878
0.160334
0.258301
0.346178
0.418273
0.47602
0.521087
0.555479
0.579424
0.593911
0.59923
0.600184
0.599531
0.599664
0.600357
0.605722
0.0212074
0.274075
0.822374
1.22855
1.49639
1.65561
1.74064
1.77413
1.77572
1.76905
1.7501
1.71619
1.6815
1.64638
1.61431
1.58723
1.55897
1.54078
0.607702
3.10531
4.37009
4.62454
4.56662
4.39296
4.14939
3.9257
3.72326
3.54111
3.38676
3.24794
3.12437
3.0044
2.89786
2.78462
2.68342
2.60236
6.91968
10.658
10.0788
8.50113
7.42508
6.9288
6.76851
6.7449
6.79279
6.88522
6.96937
7.03059
7.0735
7.09049
7.0813
7.03882
6.9777
6.84312
0.0729591
0.0667743
0.0629257
0.065415
0.0730355
0.0861481
0.103709
0.127388
0.157382
0.194382
0.238978
0.290999
0.349402
0.415178
0.486498
0.558884
0.626551
0.696431
0.773599
0.859932
0.957452
1.0465
1.1216
1.19444
1.26905
1.35385
1.45327
1.57092
1.69632
1.83799
2.08678
2.519
3.08194
3.6548
4.18381
4.68603
5.17642
5.64929
6.09345
6.49634
6.84704
7.14571
7.38187
7.55106
7.6595
7.69874
7.70649
7.66099
7.54346
7.40969
7.2509
7.05875
6.86308
6.66002
6.45463
6.2573
6.0425
5.81818
5.59144
5.38963
5.21325
5.03116
4.84405
4.65587
4.46841
4.30993
4.15194
3.99866
3.85455
3.71469
3.59476
3.48954
3.40467
3.3407
3.29004
3.26981
3.27378
3.30782
3.37138
3.41924
3.45078
3.47746
3.53235
3.64473
3.7816
3.85325
3.88796
3.92294
3.94107
3.93308
3.91115
3.87721
3.84338
3.8075
3.71927
3.55594
3.32682
3.06034
2.90673
2.80903
2.71841
2.57646
2.39666
2.29558
2.25156
2.33248
2.3905
2.39196
2.34098
2.28081
2.37523
2.95209
3.8483
4.1434
3.98883
3.3114
3.05684
2.98268
2.96047
2.71533
2.2333
1.66215
1.58684
1.99788
2.31851
1.71557
1.6721
1.83734
2.14305
2.30764
2.45813
2.67968
3.05701
3.71448
4.68308
5.92336
6.98293
7.49741
7.77867
8.01174
8.19663
8.3113
8.43308
8.57233
8.7148
8.83922
9.02439
9.26281
9.65399
10.0934
10.5327
10.6794
10.6648
10.294
9.75614
9.63855
9.38947
8.88685
8.5878
9.16518
9.95649
10.3213
13.9999
19.2368
23.5209
17.3459
9.38892
8.75005
8.97535
8.51028
9.67822
13.963
20.6122
23.3181
17.02
10.489
7.89448
6.47219
7.40088
12.4567
0.260568
0.164191
0.10291
0.0785698
0.0693408
0.0664315
0.0660178
0.0663426
0.0677281
0.0714974
0.0780969
0.0866213
0.0968564
0.108842
0.12248
0.135851
0.147889
0.164193
0.195477
0.237285
0.269728
0.297511
0.34098
0.427773
0.556285
0.764802
1.06068
1.41212
1.70699
1.91904
2.1089
2.35172
2.54868
2.64458
2.69047
2.66156
2.6077
2.53268
2.44142
2.33045
2.20163
2.05715
1.89127
1.72008
1.56568
1.436
1.32957
1.22514
1.15086
1.06871
1.00466
0.953954
0.926556
0.90798
0.894138
0.880982
0.856403
0.835254
0.826007
0.823504
0.825283
0.820644
0.811079
0.801263
0.794402
0.793891
0.788148
0.777176
0.767146
0.747787
0.730676
0.718697
0.715717
0.718466
0.721392
0.733844
0.761965
0.821196
0.923293
0.993052
1.00798
0.999497
1.0095
1.08383
1.24818
1.38
1.41853
1.45257
1.53527
1.57689
1.57781
1.55768
1.57566
1.70688
1.87866
1.9341
1.92333
1.77757
1.53204
1.46074
1.49562
1.50091
1.32755
1.15787
1.11952
1.3166
1.75738
2.13004
2.17477
2.09624
2.2886
2.57138
2.61833
2.18874
1.72918
1.53805
1.51821
1.59002
1.56855
1.35046
1.09449
1.06788
1.25436
1.6803
1.70264
1.2668
1.2442
1.37085
1.43769
1.45255
1.43204
1.45024
1.50708
1.63911
1.94382
2.44686
3.23629
3.84294
4.27991
4.69097
5.14446
5.44697
5.53812
5.48223
5.5092
5.7434
6.25689
6.50822
6.61507
6.76362
7.005
7.21295
7.2215
6.78605
6.58011
6.61614
6.29053
5.99775
6.16831
6.82195
6.70027
7.00906
9.33754
10.6866
10.7354
8.72808
8.46695
7.79331
6.41834
5.81189
5.88878
7.1934
10.8646
19.2038
18.2016
12.9993
7.80782
5.68482
4.37037
6.48563
0.579805
0.315456
0.183405
0.12417
0.0952294
0.0796679
0.069267
0.062521
0.0584593
0.0563143
0.0558175
0.0562544
0.0578048
0.0615359
0.0700459
0.082482
0.101954
0.127584
0.182014
0.263164
0.317444
0.416383
0.658908
0.871208
1.0186
1.13956
1.2566
1.38145
1.48006
1.51567
1.49583
1.40943
1.25094
1.14756
1.03496
0.903194
0.78725
0.691147
0.602878
0.524067
0.44824
0.380047
0.323515
0.275022
0.248719
0.231529
0.218316
0.208618
0.202217
0.197837
0.195243
0.193763
0.194909
0.197735
0.20009
0.202031
0.20244
0.20332
0.206089
0.211085
0.217075
0.220005
0.221151
0.223581
0.224987
0.225931
0.226003
0.222749
0.218349
0.212308
0.204036
0.193983
0.190339
0.189496
0.190268
0.193154
0.200137
0.218206
0.255511
0.284455
0.29105
0.285571
0.280954
0.291591
0.334633
0.40669
0.438515
0.463166
0.508458
0.537052
0.543843
0.535987
0.548109
0.620574
0.730293
0.83498
1.00673
1.06558
1.00289
0.865276
0.80554
0.778774
0.690076
0.64417
0.799311
1.3393
1.82883
1.80528
1.51177
1.52399
1.72745
1.72308
1.37934
0.979935
0.849645
0.825507
0.883153
1.04236
1.07634
1.00997
0.941331
1.02977
1.11979
1.27656
1.27595
1.08253
1.08936
1.18554
1.22391
1.1452
1.08079
1.04041
1.02855
1.03883
1.09888
1.23672
1.56702
1.93734
2.20392
2.44813
2.81963
3.13733
3.31753
3.28663
3.17172
3.23084
3.61075
4.37371
4.69873
4.61922
4.50077
4.42251
4.47878
4.45094
4.58839
4.776
4.597
4.29255
4.33603
4.80273
5.42547
5.68494
7.34748
8.40299
8.01364
7.12405
7.60876
7.88639
6.14031
4.44778
4.04571
4.23825
4.91482
8.15557
12.3863
11.574
8.22971
5.40116
3.43172
3.77517
0.99463
0.503308
0.296714
0.2062
0.155484
0.117676
0.0884708
0.0695842
0.0603518
0.0560016
0.0545025
0.0547053
0.056394
0.0620409
0.0765245
0.110841
0.164558
0.241011
0.397018
0.541608
0.624663
0.755901
0.845442
0.903322
0.965069
1.00773
1.00663
0.94001
0.839733
0.785702
0.703711
0.6186
0.531458
0.440314
0.373471
0.306572
0.262807
0.232637
0.202278
0.18304
0.164939
0.153254
0.145732
0.141511
0.140068
0.141472
0.143637
0.14591
0.147561
0.148989
0.150508
0.152162
0.154526
0.155679
0.155935
0.155692
0.15421
0.15306
0.153017
0.153262
0.153557
0.153924
0.155158
0.157536
0.158839
0.159264
0.159014
0.157359
0.154762
0.152273
0.148733
0.142138
0.136355
0.132324
0.129612
0.127548
0.127608
0.131325
0.143468
0.15938
0.163163
0.160657
0.153777
0.153686
0.164517
0.192588
0.21494
0.227749
0.247845
0.270226
0.279157
0.278024
0.284987
0.322805
0.365463
0.407054
0.494125
0.586484
0.592556
0.573176
0.544529
0.485929
0.445929
0.510134
0.844579
1.53321
1.80316
1.41295
1.08923
1.07732
1.13121
1.11219
0.878551
0.675465
0.620946
0.593645
0.592613
0.68091
0.751735
0.822677
0.975026
1.13749
1.1756
1.14365
1.07184
0.986608
1.10477
1.28496
1.3241
1.15281
1.06472
0.965999
0.911047
0.893669
0.909228
0.964256
1.08898
1.33537
1.51951
1.65689
1.8493
2.04535
2.20506
2.28612
2.27387
2.21717
2.32781
2.7831
3.66182
4.05792
3.85005
3.48263
3.4058
3.50459
3.83946
3.99185
3.75783
3.39171
3.38352
3.65272
4.56508
4.83052
5.78403
6.52677
6.18075
4.85089
5.3389
6.78508
5.2108
3.91763
3.4589
3.43551
3.47059
4.23454
7.15715
8.70227
7.94678
5.5582
3.42078
2.97205
1.50064
0.726994
0.420282
0.283557
0.192518
0.137035
0.104364
0.0811385
0.0664766
0.0607705
0.0599882
0.0618154
0.0681125
0.0871487
0.135543
0.228825
0.347735
0.46847
0.562655
0.606967
0.650726
0.721377
0.758242
0.744644
0.682356
0.617772
0.562642
0.501401
0.434543
0.382662
0.32653
0.278749
0.23851
0.196076
0.171765
0.154888
0.145179
0.138827
0.134089
0.131847
0.130789
0.130675
0.131784
0.133708
0.136368
0.139619
0.143236
0.146406
0.14878
0.150633
0.152366
0.154099
0.155198
0.155641
0.155648
0.154409
0.151992
0.148589
0.14633
0.143935
0.140488
0.13828
0.13787
0.137958
0.138926
0.141064
0.141786
0.141749
0.141269
0.140234
0.139812
0.138749
0.134747
0.1299
0.126168
0.12031
0.114893
0.113499
0.115249
0.122018
0.124874
0.12427
0.121883
0.122829
0.13141
0.148372
0.158845
0.163199
0.171567
0.191962
0.203873
0.204605
0.207496
0.22672
0.244601
0.257379
0.28516
0.337004
0.352265
0.368234
0.365192
0.330705
0.354473
0.508446
1.11204
1.68918
1.67764
1.09133
0.865197
0.837707
0.842034
0.843291
0.747752
0.61053
0.514943
0.477299
0.475903
0.523822
0.575981
0.671789
0.926924
1.1898
1.27967
1.09939
1.00094
0.959662
1.14572
1.26211
1.34058
1.26964
1.14363
1.00191
0.882946
0.844591
0.854889
0.93512
0.998297
1.14381
1.28878
1.38621
1.46371
1.55955
1.62925
1.67002
1.75359
1.81759
1.81986
1.97065
2.49691
3.5006
3.71834
3.37074
3.05052
3.05112
3.40609
3.56081
3.28502
3.06615
3.06799
3.26009
3.5248
4.06618
4.72381
5.39045
5.14149
4.23098
4.27202
4.929
4.40348
3.7737
3.25678
3.07386
2.9653
3.16126
4.45486
6.67496
6.85444
5.66054
3.52045
2.75817
2.09631
1.00093
0.56078
0.327314
0.20386
0.141278
0.109116
0.087896
0.0768357
0.0740907
0.0747375
0.0800898
0.0996557
0.160408
0.29585
0.373022
0.417896
0.4976
0.553439
0.577658
0.596032
0.573179
0.520395
0.478702
0.424647
0.37064
0.3165
0.274282
0.233263
0.207858
0.177209
0.157711
0.143328
0.132219
0.126605
0.123982
0.123549
0.125283
0.127075
0.129104
0.131069
0.133726
0.137979
0.142856
0.147399
0.151296
0.154926
0.157993
0.160275
0.16242
0.164198
0.165943
0.166611
0.167019
0.166783
0.16498
0.162249
0.15771
0.153431
0.1483
0.143154
0.137774
0.134563
0.133172
0.132983
0.133783
0.136202
0.137628
0.137725
0.136874
0.135051
0.13431
0.133282
0.130128
0.127773
0.121702
0.113707
0.107446
0.106163
0.10672
0.108284
0.109065
0.110017
0.11501
0.129877
0.140468
0.142489
0.142026
0.144932
0.159936
0.176682
0.176033
0.171125
0.179253
0.197172
0.204861
0.215945
0.237053
0.257796
0.269432
0.267616
0.284474
0.361051
0.659384
1.45275
1.69867
1.43038
0.944123
0.802995
0.756716
0.73951
0.727357
0.653006
0.520389
0.448734
0.432534
0.438049
0.462745
0.481233
0.528656
0.654087
1.02167
1.33992
1.12598
0.99579
0.967854
1.16596
1.1412
1.20798
1.21975
1.18998
1.05133
0.857999
0.817317
0.814514
0.935731
1.01243
1.13141
1.23134
1.30876
1.35849
1.4151
1.44834
1.47931
1.58493
1.71133
1.637
1.63093
1.84475
2.64726
3.42497
3.37611
3.00278
2.87389
3.08852
3.29451
3.07855
2.93904
2.99964
3.11359
3.05437
3.49925
4.05085
5.07906
4.42133
4.19256
3.50785
4.09052
3.826
3.60212
2.9334
2.80816
2.7095
2.76118
3.3102
5.05676
5.78737
5.38278
3.68209
2.73365
2.79903
1.33732
0.667049
0.345323
0.204506
0.140578
0.110925
0.0949883
0.0862992
0.0834022
0.0832526
0.0964097
0.159189
0.29357
0.363016
0.394504
0.428366
0.476985
0.489158
0.473822
0.43917
0.400657
0.355917
0.312839
0.268168
0.225438
0.191817
0.167653
0.147507
0.137247
0.126971
0.121417
0.11847
0.117142
0.118482
0.120163
0.122319
0.125779
0.129866
0.135512
0.140888
0.145663
0.150352
0.15431
0.156618
0.158259
0.160203
0.161974
0.163048
0.163799
0.164692
0.166148
0.168227
0.170383
0.171389
0.171786
0.170341
0.166658
0.162764
0.157643
0.151053
0.144393
0.139185
0.134734
0.132785
0.132192
0.132877
0.135906
0.136744
0.136373
0.134656
0.130979
0.127107
0.123007
0.121616
0.11928
0.1137
0.105158
0.100755
0.100252
0.100713
0.102804
0.105289
0.111882
0.128449
0.137119
0.136668
0.133073
0.132998
0.137508
0.144489
0.143935
0.145218
0.158896
0.178414
0.186057
0.193398
0.207279
0.221923
0.222514
0.231441
0.284738
0.507341
1.09611
1.53712
1.62274
1.20585
0.878661
0.746772
0.658617
0.623706
0.601862
0.538324
0.451551
0.42169
0.416851
0.416552
0.424619
0.436018
0.440768
0.480587
0.672489
1.30288
1.31266
1.21133
1.01793
1.09957
1.08545
0.915215
0.947318
1.01511
1.01068
0.87046
0.784821
0.754887
0.865759
1.0282
1.10517
1.17116
1.21817
1.28246
1.30586
1.33965
1.37955
1.46796
1.52587
1.46377
1.34999
1.45029
1.93983
2.91097
3.23826
3.02794
2.79875
2.86212
3.06293
2.92808
2.82669
2.90618
3.12059
3.00416
3.40202
3.90787
4.87656
4.07212
4.33184
3.1698
3.10772
3.25727
3.13821
2.60066
2.63464
2.63658
2.57492
2.88842
4.08264
4.98272
4.88703
3.72553
2.76548
3.60719
1.68913
0.709216
0.329182
0.188145
0.139039
0.116971
0.101962
0.0898192
0.0852242
0.0886301
0.117986
0.241483
0.351341
0.377045
0.38999
0.404827
0.406885
0.398337
0.37476
0.330536
0.284093
0.242098
0.207624
0.178783
0.150351
0.1341
0.123735
0.117425
0.114496
0.112764
0.113133
0.114528
0.116036
0.118529
0.121735
0.126635
0.132327
0.138406
0.143061
0.147679
0.152584
0.154972
0.156207
0.156677
0.156469
0.154733
0.15191
0.149226
0.145661
0.143573
0.143038
0.144505
0.149736
0.156466
0.161344
0.162554
0.1618
0.158217
0.153971
0.149209
0.145588
0.142311
0.139172
0.135567
0.133717
0.133027
0.132908
0.134052
0.135458
0.134969
0.132624
0.128422
0.120548
0.112835
0.110929
0.110485
0.105202
0.0987633
0.0971205
0.0976541
0.0996075
0.10168
0.106889
0.12025
0.125983
0.125797
0.125484
0.125569
0.125663
0.125689
0.125263
0.130402
0.147448
0.166291
0.175266
0.188414
0.203611
0.208096
0.206485
0.227124
0.333637
0.926876
1.30678
1.49801
1.44909
1.07059
0.772412
0.625352
0.551859
0.522836
0.50715
0.46092
0.418155
0.400097
0.386249
0.379226
0.382634
0.391241
0.40354
0.427998
0.503088
1.04923
1.56528
1.47065
1.08487
0.893061
0.880648
0.768633
0.722563
0.703532
0.782051
0.78722
0.718842
0.711476
0.768601
0.97481
0.973403
0.980795
0.98017
1.0317
1.05544
1.09091
1.20272
1.24744
1.25687
1.28211
1.26683
1.28886
1.51541
2.30618
2.88027
2.954
2.70952
2.68361
2.84839
2.80846
2.7547
2.81655
3.01743
3.17746
3.5792
4.61883
5.89209
4.04441
4.40928
3.17553
2.85158
2.86694
2.76735
2.42633
2.41302
2.42951
2.40554
2.67121
3.5255
4.43341
4.39648
3.67526
2.76584
4.50312
1.88194
0.676007
0.25951
0.165699
0.137351
0.123291
0.108682
0.097858
0.0955705
0.108202
0.176447
0.299312
0.354424
0.368315
0.368446
0.358849
0.33959
0.319243
0.286526
0.245036
0.206927
0.173943
0.151093
0.135402
0.120906
0.114688
0.111426
0.109875
0.110751
0.11189
0.113126
0.115054
0.117951
0.121574
0.126174
0.131595
0.138039
0.144901
0.151284
0.155004
0.157275
0.158178
0.156691
0.154677
0.149664
0.14211
0.135355
0.128392
0.120747
0.112409
0.108909
0.10802
0.1086
0.1132
0.122352
0.13357
0.139448
0.139047
0.134275
0.130207
0.130033
0.130828
0.13294
0.132444
0.13186
0.131008
0.128301
0.126951
0.128399
0.130878
0.13138
0.129224
0.123915
0.112556
0.104474
0.10275
0.102451
0.0987053
0.094325
0.0934678
0.0937873
0.0959139
0.0986971
0.104237
0.10903
0.112811
0.116954
0.117766
0.116998
0.11604
0.117733
0.125545
0.14249
0.158263
0.173287
0.191265
0.202372
0.198184
0.202754
0.236468
0.503046
1.22678
1.34756
1.35997
1.18766
0.901792
0.62851
0.515359
0.471818
0.454157
0.440908
0.413327
0.394394
0.383693
0.358436
0.350145
0.351292
0.346668
0.362312
0.401663
0.433593
0.680543
1.40026
1.26692
0.991718
0.678424
0.620515
0.612948
0.562124
0.560357
0.603934
0.659824
0.652202
0.652931
0.672244
0.809687
0.816988
0.796705
0.801199
0.813391
0.837057
0.889038
0.975967
1.07452
1.08267
1.17129
1.23183
1.21138
1.33049
1.834
2.4293
2.70832
2.56115
2.50114
2.60553
2.70178
2.73335
2.86372
2.93226
3.27007
3.98484
4.68709
4.86224
4.86108
4.35604
3.03539
2.74124
2.48182
2.31679
2.29273
2.37868
2.36343
2.26764
2.47921
3.11985
3.98742
3.93683
3.60061
2.77971
5.37288
1.90635
0.510107
0.207802
0.159428
0.143391
0.134514
0.126277
0.125618
0.137979
0.176399
0.235969
0.299183
0.329004
0.330865
0.324905
0.317501
0.300557
0.270522
0.229495
0.187912
0.156642
0.134842
0.121419
0.11381
0.108885
0.106918
0.107025
0.108868
0.110959
0.112962
0.115254
0.117873
0.120903
0.125224
0.132563
0.142376
0.15186
0.157976
0.161465
0.16343
0.162604
0.159595
0.15565
0.149056
0.141599
0.134331
0.127289
0.120824
0.114882
0.106583
0.101321
0.0995641
0.0989126
0.0998262
0.103767
0.10959
0.117811
0.125089
0.125387
0.122748
0.116042
0.113127
0.113867
0.11907
0.12162
0.121596
0.119734
0.115536
0.112217
0.112358
0.117237
0.123545
0.122573
0.11454
0.102989
0.0959254
0.0947545
0.0951363
0.0914701
0.0870514
0.0855318
0.0856594
0.0867012
0.0895595
0.0956261
0.10707
0.112141
0.112768
0.111968
0.11151
0.116783
0.126097
0.141958
0.157387
0.177683
0.199172
0.199768
0.193291
0.203959
0.267465
0.759563
1.31903
1.33475
1.14396
0.99474
0.720348
0.509804
0.43441
0.407427
0.396201
0.386032
0.371956
0.360667
0.345632
0.332557
0.333572
0.335666
0.316778
0.320124
0.342344
0.397128
0.49609
0.783657
0.727182
0.614615
0.535873
0.482039
0.514228
0.485271
0.482919
0.520472
0.594607
0.590642
0.564967
0.568492
0.652064
0.698118
0.679675
0.672858
0.683725
0.687119
0.701257
0.758246
0.920006
0.953345
1.00177
1.06208
1.07163
1.20822
1.55265
2.03862
2.43065
2.42515
2.31615
2.32741
2.43636
2.58499
2.95907
3.14126
3.38852
4.13905
4.38069
4.55792
4.58889
3.71152
2.29579
2.35603
2.21495
2.01083
2.12915
2.30247
2.37085
2.25041
2.34179
2.75141
3.54382
3.64632
3.54767
2.74996
6.12031
1.82673
0.415876
0.192842
0.164933
0.159459
0.157277
0.159267
0.168676
0.186192
0.213819
0.241785
0.264324
0.265646
0.264492
0.265554
0.266701
0.260319
0.239506
0.201955
0.1591
0.13015
0.115737
0.108828
0.10601
0.104532
0.105273
0.10701
0.11032
0.115098
0.118066
0.119388
0.120859
0.125049
0.133334
0.144586
0.155134
0.161677
0.164486
0.165566
0.164207
0.159998
0.152377
0.139851
0.123811
0.112547
0.106877
0.10335
0.101219
0.100274
0.0995356
0.0979315
0.0953518
0.0943135
0.0948052
0.0984095
0.104317
0.109489
0.11762
0.124498
0.124204
0.118739
0.110297
0.106318
0.107145
0.113785
0.117375
0.11658
0.111847
0.102316
0.0985849
0.0987747
0.10334
0.110471
0.111569
0.104214
0.0938941
0.0894093
0.0880688
0.0868123
0.082499
0.0797807
0.079051
0.0796997
0.0825361
0.0900796
0.0992645
0.102147
0.101909
0.102934
0.11057
0.12287
0.133711
0.144167
0.163757
0.197624
0.21002
0.199247
0.193212
0.216909
0.361894
0.988711
1.3159
1.25964
0.990656
0.832277
0.559384
0.415919
0.371602
0.3558
0.348523
0.344442
0.338505
0.328437
0.304595
0.290286
0.294915
0.305024
0.304962
0.300798
0.30227
0.339172
0.378895
0.507597
0.49414
0.458544
0.450219
0.41822
0.462565
0.444005
0.434784
0.475671
0.519615
0.515515
0.481396
0.486321
0.541899
0.604074
0.612128
0.582879
0.578318
0.584153
0.595502
0.625058
0.755113
0.85779
0.890081
0.937164
1.00152
1.1622
1.36436
1.70125
2.11305
2.24105
2.17658
2.10297
2.12626
2.20136
2.73621
3.3971
3.55845
4.30465
4.33879
2.94746
3.67165
2.94573
2.20647
2.16252
1.93305
1.80949
2.11988
2.2275
2.36485
2.2986
2.24028
2.47118
3.11784
3.4872
3.4713
2.69854
6.74676
1.76354
0.380442
0.192456
0.17388
0.169702
0.169616
0.176515
0.188414
0.198456
0.214248
0.228233
0.230211
0.229621
0.2288
0.228665
0.225238
0.215547
0.194986
0.165925
0.133407
0.11246
0.104185
0.10135
0.10107
0.102546
0.105332
0.10859
0.115008
0.118653
0.119525
0.120162
0.123217
0.130745
0.140603
0.150969
0.158018
0.161878
0.163375
0.162264
0.156115
0.138838
0.119555
0.105327
0.0981143
0.0948326
0.0937562
0.0940759
0.0941916
0.0945702
0.0970947
0.0980543
0.0967414
0.0939146
0.0937575
0.0975173
0.10404
0.106913
0.109444
0.116988
0.124297
0.124111
0.117304
0.109413
0.10544
0.10536
0.110081
0.115011
0.113088
0.102997
0.0944691
0.091849
0.0924959
0.0963495
0.100432
0.100666
0.0940811
0.0870528
0.0836932
0.0809783
0.0773236
0.075603
0.0751991
0.0756937
0.0775245
0.0827527
0.0877464
0.0891868
0.0907413
0.0962972
0.111352
0.136377
0.149473
0.156851
0.188208
0.221199
0.220738
0.201251
0.201284
0.252874
0.571615
1.11613
1.30212
1.1571
0.846373
0.665384
0.439744
0.349133
0.323636
0.311863
0.307517
0.31046
0.30728
0.297415
0.27728
0.259334
0.257702
0.262054
0.285214
0.281429
0.287799
0.296497
0.321189
0.397082
0.387709
0.37844
0.404203
0.39585
0.422559
0.417887
0.406643
0.449692
0.490525
0.485412
0.439417
0.438604
0.482968
0.520189
0.534937
0.516309
0.499845
0.513223
0.550309
0.580622
0.657327
0.79611
0.814807
0.844201
0.937486
1.08818
1.2199
1.44071
1.84237
2.04019
2.00525
1.89926
1.92293
1.89771
2.13027
2.7043
3.37879
3.97726
3.57427
2.41138
2.78038
2.49886
2.20549
2.04899
1.84685
1.69771
1.96406
2.19052
2.33336
2.37293
2.23889
2.33681
2.77606
3.40085
3.383
2.73052
7.38066
1.77018
0.372324
0.192799
0.176635
0.172729
0.173762
0.183227
0.190457
0.196241
0.199091
0.197538
0.197926
0.199594
0.205294
0.207789
0.205697
0.1955
0.174011
0.146614
0.121023
0.106201
0.10093
0.0997566
0.100209
0.102531
0.10738
0.114131
0.118948
0.120753
0.12054
0.120164
0.123002
0.131138
0.141067
0.150728
0.156503
0.157695
0.155777
0.148108
0.130118
0.114055
0.102336
0.0960105
0.0928793
0.0914737
0.0920346
0.0944043
0.095691
0.096228
0.0981286
0.102557
0.103665
0.100047
0.095663
0.0972483
0.10615
0.113746
0.112359
0.112908
0.118266
0.125572
0.125034
0.115846
0.10671
0.104924
0.106377
0.111147
0.113086
0.107997
0.0970437
0.0920385
0.0905186
0.0914371
0.0936295
0.0938021
0.0925084
0.0862407
0.0811489
0.0774825
0.0743788
0.072722
0.0721562
0.0723547
0.0733605
0.0766029
0.079781
0.0814511
0.0852426
0.093996
0.111974
0.141491
0.158932
0.186637
0.223443
0.245767
0.235812
0.215757
0.226311
0.382779
0.767348
1.15319
1.26774
1.06598
0.710326
0.518615
0.365305
0.310146
0.28925
0.27924
0.277307
0.282643
0.280171
0.280228
0.269246
0.251342
0.243849
0.239857
0.254474
0.256631
0.264127
0.267666
0.298582
0.328179
0.329694
0.33082
0.365179
0.366742
0.396652
0.403063
0.386083
0.417762
0.463962
0.457625
0.424643
0.420703
0.439083
0.460579
0.466006
0.462362
0.453537
0.460581
0.499811
0.521524
0.57964
0.729249
0.743426
0.770632
0.878711
0.99046
1.10847
1.25906
1.62658
1.92469
1.83113
1.72711
1.76263
1.67372
1.71571
1.93032
2.45651
2.87661
2.70786
2.34776
2.26585
2.29446
2.12364
1.83507
1.83173
1.69985
1.85285
2.15428
2.28687
2.39088
2.26634
2.28435
2.56153
3.3031
3.34731
2.72195
8.13466
1.84749
0.383229
0.195123
0.176775
0.172556
0.173008
0.180518
0.183933
0.178649
0.170627
0.17002
0.173744
0.180412
0.187044
0.1926
0.192958
0.188319
0.173247
0.146286
0.121296
0.10655
0.101156
0.100409
0.101457
0.105186
0.112854
0.121893
0.125752
0.125444
0.122168
0.12043
0.12242
0.129595
0.139524
0.147477
0.148877
0.14735
0.142199
0.131933
0.121955
0.113128
0.103323
0.097757
0.0948578
0.093319
0.0942066
0.098679
0.103042
0.103491
0.102905
0.103564
0.104962
0.103951
0.0982993
0.095991
0.100051
0.114218
0.116741
0.114514
0.115899
0.122399
0.125807
0.123655
0.114509
0.103944
0.101935
0.104283
0.110802
0.110005
0.101835
0.0946448
0.0918728
0.0910127
0.0911058
0.0907028
0.0896733
0.0862159
0.080365
0.0760446
0.0732569
0.0714266
0.0706404
0.0703634
0.0711199
0.0737058
0.0758739
0.0778723
0.0836304
0.0936895
0.113703
0.148181
0.183031
0.220639
0.250155
0.257087
0.244117
0.235211
0.284243
0.628314
0.915103
1.14089
1.20176
0.917562
0.577811
0.411308
0.317411
0.280955
0.266091
0.259425
0.255825
0.262996
0.265732
0.272089
0.267443
0.251187
0.242504
0.234672
0.235142
0.235251
0.238277
0.250386
0.284972
0.292132
0.300566
0.30194
0.334099
0.340687
0.365773
0.378448
0.373649
0.415264
0.42857
0.406841
0.391326
0.397083
0.402244
0.416751
0.42631
0.42657
0.422278
0.428712
0.469533
0.495701
0.560917
0.669143
0.684372
0.718282
0.831166
0.916226
1.02846
1.13248
1.43575
1.8017
1.72332
1.60727
1.58934
1.47999
1.57303
1.64792
1.93546
2.25119
2.18479
2.03551
1.91929
2.01139
1.87863
1.65868
1.68437
1.66659
1.8434
2.05935
2.14955
2.35314
2.29881
2.27616
2.43126
3.19278
3.28717
2.6454
8.98499
1.99946
0.416282
0.195745
0.176168
0.169318
0.163715
0.167552
0.168693
0.160062
0.149793
0.14824
0.150581
0.159321
0.172397
0.178241
0.180417
0.180426
0.175155
0.15767
0.129295
0.111242
0.103505
0.101577
0.102212
0.10494
0.111726
0.12209
0.126942
0.127069
0.124352
0.120492
0.119317
0.121961
0.130594
0.139351
0.140912
0.13945
0.133766
0.127193
0.123715
0.120364
0.115041
0.110015
0.106653
0.102944
0.101898
0.102147
0.10291
0.103048
0.102759
0.103116
0.102288
0.0997126
0.0955974
0.0957737
0.100281
0.11406
0.118154
0.116635
0.116821
0.121546
0.127254
0.125934
0.119936
0.107436
0.100416
0.0986718
0.0990091
0.102635
0.100773
0.0946108
0.0925525
0.0912732
0.0904134
0.0895412
0.0877865
0.0853313
0.0805552
0.0757583
0.072729
0.0703287
0.0689378
0.0684792
0.0691774
0.0713227
0.0731009
0.0757477
0.0823387
0.0945523
0.12069
0.171897
0.218644
0.247285
0.265548
0.262337
0.252592
0.2563
0.391769
0.815711
0.994219
1.08554
1.04366
0.711225
0.452407
0.336914
0.280314
0.256015
0.248799
0.241981
0.238476
0.246469
0.255553
0.266984
0.26422
0.250722
0.243246
0.233747
0.226688
0.224449
0.224215
0.230836
0.257214
0.262966
0.279265
0.283557
0.310139
0.327627
0.360984
0.377823
0.372577
0.422312
0.42318
0.388331
0.378562
0.382937
0.381484
0.39003
0.408137
0.4106
0.404121
0.412818
0.457545
0.490364
0.577458
0.635171
0.6507
0.693537
0.78858
0.884475
0.96005
1.04452
1.2787
1.60779
1.62616
1.53534
1.42549
1.35615
1.55893
1.57952
1.80262
2.07202
1.89803
1.87847
1.79331
1.91118
1.76578
1.53426
1.63455
1.62923
1.83354
1.99752
1.96948
2.18563
2.28305
2.28327
2.37546
3.15239
3.21234
2.55911
10.118
2.33611
0.51237
0.200771
0.173667
0.16623
0.14807
0.144445
0.14741
0.144515
0.137372
0.132861
0.133012
0.137456
0.15081
0.167757
0.173339
0.174744
0.174181
0.167979
0.151737
0.124834
0.110921
0.105059
0.103935
0.105454
0.109997
0.11799
0.12478
0.126878
0.125663
0.12157
0.118662
0.118023
0.119176
0.122931
0.124758
0.12555
0.124986
0.123385
0.12347
0.125009
0.124595
0.122981
0.119754
0.111062
0.105702
0.104307
0.100556
0.0940236
0.0918797
0.0934352
0.0993837
0.0998658
0.0971066
0.0985897
0.105868
0.123772
0.129543
0.129318
0.130603
0.132637
0.13289
0.13029
0.122777
0.110879
0.10056
0.0967727
0.0941044
0.0912512
0.0899179
0.0857316
0.0841667
0.0843315
0.0850912
0.0855368
0.0841449