/*--------------------------------*- C++ -*----------------------------------*\
| =========                 |                                                 |
| \\      /  F ield         | OpenFOAM: The Open Source CFD Toolbox           |
|  \\    /   O peration     | Version:  dev                                   |
|   \\  /    A nd           | Web:      http://www.openfoam.org               |
|    \\/     M anipulation  |                                                 |
\*---------------------------------------------------------------------------*/
FoamFile
{
    version     2.0;
    format      ascii;
    class       volScalarField;
    object      p;
    location    "9.158";
}
// * * * * * * * * * * * * * * * * * * * * * * * * * * * * * * * * * * * * * //

dimensions      [1 -1 -2 0 0 0 0];

internalField   nonuniform List<scalar> 
12225
(
92750.1
92774.9
92847.8
92960.2
93097.4
93261
93438.7
93640.2
93840.8
94065
94284.2
94527.5
94742.1
95016.9
95216.2
95476
95613.1
95528.7
92746.1
92775.2
92848.6
92960.9
93098.2
93261.5
93439.7
93639.8
93841.9
94065.9
94283.6
94530.9
94737
95024.8
95210.5
95489
95645.9
95816.9
92743.2
92776.9
92850.8
92962.8
93099.7
93262.8
93441.2
93640.2
93843.5
94066.3
94285.1
94527.9
94742.1
95014.7
95207.8
95487.8
95662.8
95900.7
92743.1
92779.9
92854.4
92965.8
93102.4
93265.1
93443.4
93641.4
93845.7
94066.7
94286.7
94525.1
94745.7
95000
95207.7
95465
95678
95883.6
92746.3
92784.9
92859.4
92970.2
93106.5
93268.7
93446.8
93643.5
93848.5
94067.3
94288
94519.2
94746.9
94986.9
95208.3
95446.7
95671.1
95887.4
92752.3
92792.3
92866.1
92976.4
93112.4
93273.8
93451.6
93646.9
93851.9
94068.8
94289.6
94518.1
94747.3
94980.1
95208.9
95434.8
95665.4
95866
92763.8
92802.3
92875.3
92984.7
93120.6
93280.8
93458.3
93652.1
93857
94071.8
94292.7
94518.2
94747.4
94975.1
95204.6
95423.9
95647.7
95840.9
92778.1
92813.4
92886
92994.2
93130.1
93289.2
93466.3
93658.8
93863.1
94076.2
94296.5
94519.6
94747.1
94971.3
95197.3
95411.7
95626.6
95820.2
92794.6
92825.5
92897.6
93004.9
93140.5
93298.6
93475.1
93666.4
93869.8
94081.5
94300.5
94521.5
94746.6
94968.1
95189.5
95400.5
95608.5
95800.1
92814.3
92840.3
92912.9
93019.5
93154.4
93311.3
93486.9
93676.8
93878.8
94088.8
94305.9
94524.6
94746.3
94964.9
95181.3
95389
95590.6
95779.2
92835.2
92861.2
92933.4
93039.2
93173.1
93328.5
93502.7
93690.8
93890.9
94098.9
94313.4
94529.5
94747.4
94962.6
95174.2
95378.2
95574.5
95760.1
92860.4
92887.7
92960.2
93065.2
93197.8
93351.5
93523.7
93709.7
93907.4
94112.8
94324.2
94537.3
94751.2
94962.6
95169.7
95369.9
95561.9
95744.4
92894.3
92923.2
92995.6
93099.7
93230.4
93382
93551.7
93735.1
93929.9
94132.3
94340
94549.8
94759.7
94967.1
95170.1
95366.8
95555.4
95735.2
92942.1
92970.6
93042.2
93145
93273.3
93422.4
93588.9
93769.2
93960.5
94159.4
94363.4
94569.5
94775.5
94979.2
95178.5
95372
95558
95736.2
93002.1
93033.1
93103.5
93204.2
93329.6
93475.4
93638.1
93814.7
94002
94197.1
94397.1
94599.4
94801.7
95001.9
95198.3
95389.4
95573.8
95751.2
93081.8
93114.1
93182.9
93280.5
93402
93543.6
93702.1
93874.3
94057.3
94248.2
94444.2
94642.9
94841.8
95039.1
95233.2
95422.6
95606.3
95783.8
93171.2
93212.1
93281
93375.3
93492.3
93629
93782.7
93950.2
94128.8
94315.6
94507.8
94703
94899.1
95094.2
95286.7
95475.5
95659.3
95837.8
93284.3
93324.2
93390.2
93480.4
93592.6
93724.5
93873.4
94036.6
94211.2
94394.3
94583.3
94775.9
94970.1
95163.9
95355.9
95544.7
95729.4
95909.6
93395.6
93428.7
93490.9
93577.3
93685.5
93813.3
93958.4
94118.2
94289.7
94470.2
94657
94848.1
95041.1
95234.4
95426.5
95616
95802
95983.9
93480.7
93512.7
93573.6
93657.5
93762.6
93887.4
94029.7
94187
94356.3
94535.1
94720.7
94910.7
95103.3
95296.5
95488.9
95679.2
95866.5
96050
93543.1
93580.1
93640.3
93722.1
93824.7
93947
94087.3
94242.9
94410.8
94588.5
94773.2
94962.7
95155.1
95348.4
95541.2
95732.3
95920.6
96105.5
93607.2
93636.7
93693.6
93772.8
93873.2
93993.8
94132.6
94286.9
94454
94630.9
94815.1
95004.4
95196.7
95390.2
95583.5
95775.2
95964.4
96150.3
93651.7
93680.9
93734.9
93811.7
93910.1
94029.4
94167.2
94320.8
94487.2
94663.7
94847.6
95036.7
95229.1
95422.8
95616.4
95808.7
95998.5
96185.3
93695
93714.8
93765.7
93840.4
93937.1
94055.8
94193
94346.1
94512.1
94688.3
94872.1
95061.2
95253.6
95447.4
95641.3
95834
96024.3
96211.7
93723.6
93742.1
93788.9
93861.9
93958.4
94075.4
94211.9
94364.6
94530.4
94706.3
94889.9
95079
95271.4
95465.4
95659.5
95852.5
96043.3
96231
93740.9
93758.8
93804.4
93876.1
93971.6
94088.5
94225
94377.6
94543.2
94719
94902.5
95091.6
95284.1
95478.2
95672.4
95865.6
96056.7
96244.7
93751.1
93769.9
93814.5
93885.2
93980.4
94097.5
94233.7
94386.1
94551.8
94727.5
94911.1
95100.1
95292.6
95486.8
95681.2
95874.5
96065.7
96254
93761.7
93777.3
93820.5
93890.7
93985.9
94103
94239.3
94391.6
94556.9
94732.9
94916.5
95105.6
95298.2
95492.4
95686.8
95880.2
96071.5
96260
93766.9
93781.2
93823.3
93893.5
93988.8
94106.2
94242.5
94394.9
94560.3
94736.2
94919.8
95108.9
95301.4
95495.6
95690.1
95883.5
96074.9
96263.3
93774
93783.8
93824.9
93894.9
93990.2
94107.5
94243.9
94396.3
94561.8
94737.6
94921.2
95110.3
95302.8
95497
95691.4
95884.9
96076.3
96264.7
99276.3
99273.7
99268.4
99260.4
99249.5
99235.8
99219.1
99199.4
99176.6
99150.5
99121.2
99088.4
99052.3
99012.6
98969.3
98922.3
98871.6
98817.1
98758.8
98696.5
98630.5
98560.7
98487
98409.2
98327.2
98241.3
98151.3
98056.8
97958
97855.2
97748.5
97638.5
97524.9
97406.5
97282.9
97154.6
97022.1
96885.8
96746.4
96604.3
96460
96314.1
96167
96019.4
95871
95722.3
95573.7
95425.5
95277.6
95131.3
94990.8
94846.7
94702.5
94558.7
94415.6
94272.7
94129.7
93986.2
93841.5
93695
93546.1
93393.9
93237.8
93077.3
92912
92740.8
92563
92377.9
92184.6
91984.7
91779
91560.7
91332.2
91094.7
90848.8
90594.6
90332.4
90062.8
89786.2
89504.1
89217.8
88929.4
88640.3
88351.3
88063.5
87778.8
87500
87228.6
86965.8
86713.6
86466.8
86240.8
86029.3
85831.6
85649.2
85484.2
85335.6
85203.6
85090.7
84996.4
84919.6
84858.5
84813.2
84785.1
84772.2
84770.8
84778.1
84792.9
84814.8
84846.6
84884.6
84927.5
84974.9
85026.8
85081.8
85137.2
85192.9
85249.7
85305.6
85361.6
85414.9
85461.4
85501.4
85557.5
85602.2
85651.7
85717.8
85769.1
85821.2
85873
85928.9
85986.5
86042.9
86094.5
86139.5
86177.3
86207.5
86228
86238.3
86236.4
86219.1
86182.7
86120.7
86029.2
85905.7
85750.2
85563.2
85340.4
85077.7
84776.1
84438.7
84068.7
83675.2
83264.8
82862.7
82466.2
82071.8
81673
81269.8
80865.7
80445
79996.5
79540.7
79086.3
78604.5
78166.4
77771.2
77280.4
76741.8
76254.8
75806.8
75364.2
74908.8
74480.8
74087.6
73732.3
73442.1
73194.4
73027.8
72975.4
99262.9
99260.2
99254.9
99246.9
99236.1
99222.5
99205.8
99186.2
99163.5
99137.5
99108.2
99075.7
99039.7
99000.1
98957
98910.2
98859.6
98805.4
98747.3
98685.6
98620
98550.4
98476.9
98399
98317.1
98232.1
98143.6
98050.9
97953.4
97850.9
97743.7
97632.8
97518.5
97399.9
97276.6
97148.8
97016.9
96881.4
96743.1
96601.9
96459.1
96314.4
96168.4
96021.8
95874.9
95727.7
95580.6
95434
95288.3
95144
95000.8
94857.9
94715.4
94573.3
94431.6
94289.8
94147.9
94005.3
93861.6
93716.1
93567.9
93416.6
93261.5
93101.9
92937.3
92766.9
92590.3
92406.1
92213.4
92013.2
91806.7
91588.6
91360.9
91124.2
90878.9
90625.4
90364
90095.1
89819.2
89537.3
89251.2
88963.1
88674.8
88386.7
88099.4
87814.7
87535.9
87264.5
87001.4
86748.6
86506.4
86279.4
86067.4
85869.8
85687.4
85522.3
85374
85239.6
85125.6
85031.6
84955.1
84893.6
84848.2
84820.6
84806.9
84804.9
84811.6
84826.2
84848.7
84879.3
84916.8
84958.7
85005.4
85057.8
85113.6
85168.5
85224
85279.5
85336.4
85393.4
85445.4
85492.4
85535.8
85585.5
85634.8
85685.3
85750.3
85800.4
85850.9
85900.5
85954.1
86009.7
86063.7
86113
86155.6
86191
86217.4
86235.9
86243.7
86240
86221.7
86183.4
86120
86027.1
85902.3
85747
85558.9
85335.5
85072.9
84771.5
84433.5
84065.2
83671.8
83255.7
82852.9
82454.2
82056.3
81656.3
81252.7
80848.9
80428.2
79979.9
79523.9
79068.9
78579.7
78144.3
77769.9
77289.4
76742.5
76253.1
75814.5
75378.8
74935.6
74502.4
74115.9
73770.1
73481
73234.9
73058.4
73013.1
99236.1
99233.3
99228
99220
99209.2
99195.7
99179.2
99159.7
99137.1
99111.4
99082.4
99050.1
99014.3
98975.1
98932.4
98885.8
98835.5
98781.5
98723.8
98662.5
98597.5
98529.1
98457.5
98381.7
98301.6
98217.1
98128.2
98035.4
97938.6
97837.2
97731.1
97620.6
97506
97387.3
97264.5
97137.6
97007
96873
96738.3
96598.9
96457.8
96315.3
96171.7
96027.5
95882.8
95738.1
95593.6
95449.6
95306.4
95163.8
95022.6
94882
94742
94602.4
94463.1
94323.8
94184
94043.5
93901.6
93757.9
93611.6
93461.9
93308.4
93150
92986.1
92817.5
92644.8
92462.3
92269.8
92070
91861.9
91644.6
91418.1
91182.5
90938.3
90685.8
90425.5
90158
89883.5
89602.6
89316.8
89029.2
88742.4
88456.4
88170.3
87885.9
87607.5
87337.1
87074.8
86822.5
86581.4
86354.5
86142.6
85945
85762.5
85596.9
85447.7
85314.5
85199.8
85104.3
85026.8
84964
84918
84891
84877.7
84875.1
84880.2
84893.3
84914.7
84944.1
84979.9
85020.7
85066.4
85117.7
85172.8
85229.7
85286.7
85344.1
85402.2
85458.6
85509.7
85557.9
85604.3
85652.8
85700.3
85753.8
85811.8
85854.1
85912
85957.9
86006
86056.9
86105.3
86149.3
86187.3
86218.4
86240.5
86252.6
86254.8
86245.8
86223.3
86182.7
86119.1
86023.5
85895.2
85737.8
85547.9
85323.8
85061.5
84760.6
84422.8
84053.8
83659
83241.1
82832
82425.8
82020.7
81620.8
81217.3
80813.1
80391.9
79945.8
79488.9
79039.5
78537
78102.9
77752.8
77294
76754.9
76266.6
75824.9
75403.3
74973.2
74546.4
74172.5
73841
73555.5
73309.6
73132.5
73093.3
99196.2
99193.4
99188.1
99180.1
99169.5
99156
99139.6
99120.2
99097.9
99072.4
99043.8
99011.9
98976.5
98937.7
98895.1
98848.8
98799.2
98746.4
98690.1
98630.4
98566.8
98499.3
98428.6
98353.9
98275.1
98192
98104.2
98012.2
97915.8
97815
97709.9
97600.6
97487.2
97369.7
97248.6
97123.7
96995.8
96865.1
96731.7
96595.8
96457.9
96318.5
96178.2
96037.3
95896.1
95754.9
95614
95473.8
95334.6
95195.2
95057
94919.7
94783
94646.8
94510.8
94374.7
94238.2
94100.6
93961.5
93820.3
93676.5
93529.3
93377.8
93221.1
93059.6
92896.3
92725
92542.7
92352
92153.1
91945.8
91729.6
91504.4
91270.1
91027.3
90776.3
90517.5
90251.4
89978.7
89699.7
89415.1
89127.7
88841.5
88557.3
88273.7
87990.2
87712.5
87443.8
87183.8
86932.7
86692.1
86465.2
86253.9
86056.9
85874.3
85708
85559
85426.4
85310.5
85213.9
85134.9
85071.7
85024.8
84996.2
84983.5
84981.4
84985.5
84995.4
85014.6
85041.3
85074.7
85114.4
85160
85212.1
85267.6
85321.9
85377.7
85435.8
85495.7
85552.9
85606.8
85658.7
85705.8
85753.6
85799.1
85850.4
85908.4
85956.4
86008.1
86046.7
86086.2
86128.2
86167.6
86203.5
86234.8
86260
86276.2
86281.9
86276.2
86259
86229.4
86183.3
86114.1
86016
85884.9
85724.2
85532.5
85305.9
85043.7
84744.4
84407.3
84038.3
83641.6
83220.4
82802.1
82386
81969.9
81569.8
81168.2
80760.2
80334.4
79893
79435.5
79001.6
78496.8
78045.6
77713.2
77289.7
76783.1
76294.3
75853.4
75441.1
75025.4
74612
74252
73939
73665.4
73426
73264.4
73218.3
99143.7
99140.9
99135.6
99127.7
99117.1
99103.7
99087.4
99068.2
99046.1
99021
98992.8
98961.2
98926.1
98887.6
98845.8
98800.8
98752.7
98701.2
98646.2
98588
98526.1
98460.4
98391.1
98317.5
98239.7
98157.5
98070.9
97980.2
97885.2
97785.9
97682.6
97575.1
97463.8
97348.7
97229.9
97107.9
96983.3
96855.6
96725.5
96593.4
96459.4
96324.3
96188.3
96051.8
95915.1
95778.6
95642.5
95506.7
95371
95237.1
95103.8
94971.2
94839.2
94707.5
94575.9
94444
94311.5
94177.8
94042.2
93904.3
93763.5
93619.2
93470.8
93317.9
93159.8
93000.6
92830
92649.6
92461.1
92264.2
92058.6
91844
91620.2
91387.4
91146.2
90897
90640.1
90376
90105
89827.9
89545.7
89259.9
88973.7
88689.3
88407.1
88126.2
87850.3
87583.3
87325.2
87075.8
86836.3
86609.1
86396.9
86200.4
86019.3
85853.7
85705
85572.9
85457.5
85360
85279.2
85215.1
85166.9
85136.7
85123.6
85119.8
85119.9
85129.1
85146.9
85171.6
85203.5
85242.8
85288.5
85339.2
85393.6
85442
85497.5
85557.7
85618.9
85679.1
85738.3
85794.9
85846
85887.7
85930.5
85973.6
86038.1
86079.8
86122.9
86163.4
86195
86223.3
86249.3
86275.1
86298.5
86316.7
86324.9
86323
86309.4
86282.9
86243.4
86187.7
86111.1
86008.3
85875.2
85708.1
85512.8
85284.1
85021.3
84723.4
84387.3
84017.7
83617.5
83192.3
82764.2
82335.3
81910.4
81505.7
81104.9
80690.5
80268.2
79833.8
79376
78963.9
78430.3
77980.4
77673.6
77283.9
76807.7
76334.5
75902.4
75499.1
75096.3
74697.5
74354.7
74063.6
73807.2
73579.9
73427.5
73383.9
99078.9
99076.1
99070.8
99063
99052.5
99039.2
99023.1
99004.1
98982.3
98957.7
98930
98899
98864.7
98827.1
98786.3
98742.4
98695.7
98645.8
98592.5
98536
98475.8
98411.8
98343.9
98271.7
98195.3
98114.8
98030
97941.1
97848.1
97750.9
97649.9
97545
97436.4
97324.2
97208.5
97089.8
96969.3
96845.7
96720.2
96592.7
96463.8
96333.9
96203.4
96072.4
95941.5
95810.9
95680.4
95550.5
95420.7
95291.8
95163.8
95037.2
94910.9
94784.6
94658.2
94531.3
94403.8
94274.9
94143.6
94009.2
93871.1
93731.1
93588.2
93440.6
93288
93127.9
92959.3
92782.3
92597
92403.1
92200.1
91987.9
91766.4
91535.4
91295.8
91048.1
90792.8
90530.6
90261.7
89986.8
89707
89423.9
89139.2
88855
88573.2
88294.8
88021.6
87756
87499
87250.8
87012.6
86786.4
86573.6
86375.6
86193.9
86028.7
85881.6
85751.7
85637.5
85539.5
85458.1
85392.2
85342.1
85308.9
85294.4
85284.3
85286
85296.5
85313.7
85337.4
85368.1
85405.2
85447.9
85493.3
85537.9
85590.5
85650.3
85713.3
85776.6
85839
85900.6
85960.4
86014.6
86048
86076.3
86126.7
86192.3
86226.8
86255.3
86294
86322
86340.4
86351
86363.9
86377.7
86387.7
86387.2
86373.8
86349.4
86315.7
86267.2
86199.5
86111.8
86002.4
85864.2
85696.5
85491.8
85259.7
84996.5
84698
84363.1
83991.6
83588.4
83157.6
82720.9
82279.6
81847.5
81433.1
81031.9
80617.1
80190.2
79768.6
79312.5
78926.9
78386.8
77935.9
77653.5
77275.9
76832.2
76387.7
75969.5
75578
75189.8
74808.4
74485.1
74217.2
73979.5
73769.8
73629.8
73590.2
99002.2
98999.4
98994.2
98986.5
98976
98962.8
98946.8
98928.1
98906.8
98882.9
98856.1
98826.1
98793.1
98756.6
98716.9
98674.6
98629.5
98581.3
98529.9
98475.1
98416.6
98354.3
98288.1
98217.7
98143.2
98064.8
97982.2
97895.7
97805.2
97710.9
97612.8
97511.2
97406.1
97297.7
97186.4
97072.3
96955.9
96837.5
96717.6
96595.8
96473
96349.4
96225.2
96100.8
95976.8
95852.5
95729.1
95606.3
95482.4
95359.3
95237.2
95118.7
95000.2
94879.1
94758.7
94637.3
94515.1
94391.3
94265
94136
94003.7
93867.9
93728.4
93584
93433.9
93277.2
93112.7
92939.8
92758.7
92568.4
92368.9
92160.1
91941.8
91713.8
91476.9
91231.5
90977.7
90716.8
90449.7
90177.4
89900.1
89619.4
89336.9
89054.5
88773.5
88496.3
88224.7
87960.6
87705.3
87458.9
87221.8
86996.3
86784.4
86586.7
86403.7
86237.4
86090.2
85961.3
85849.1
85752.5
85671.1
85604.4
85553.1
85517
85495.2
85487.2
85489.1
85499
85514
85535.5
85563.3
85596.7
85635.2
85676.3
85718.3
85775.1
85837.4
85900.9
85964.9
86029.8
86093.4
86155.9
86212.7
86243.7
86279.7
86321.4
86370.9
86407
86420.3
86442.7
86465
86475.2
86475.6
86472.7
86475
86472.7
86461
86432.9
86393.9
86350.9
86292.2
86216.1
86119.8
86005.5
85867.1
85688.7
85476.2
85237.3
84969.4
84670.5
84332
83959.4
83552.7
83117.8
82671.4
82220.8
81780.8
81356.7
80951.7
80542.1
80100
79680.2
79226.7
78887
78347.4
77921.2
77631.8
77280.3
76867.5
76453.8
76054.3
75679.4
75313.2
74947.6
74646.9
74401.2
74183.7
73994.5
73870.3
73838.6
98914.3
98911.6
98906.5
98898.8
98888.4
98875.4
98859.7
98841.5
98820.9
98797.8
98772
98743.5
98711.8
98676.5
98638.6
98598.5
98555.2
98508.7
98459.1
98406.2
98349.6
98289.2
98225
98156.8
98084.9
98009
97929.1
97845.5
97758.2
97667.4
97573.3
97475.7
97375.2
97271.6
97165.3
97056.6
96945.8
96833.2
96719.1
96604.2
96488.4
96371.8
96254.9
96138.3
96021.4
95904.9
95788.7
95672.3
95557.6
95443
95329.2
95216.4
95103.6
94990.2
94876.6
94762.5
94646.8
94529
94408.4
94285
94158.1
94027.2
93892
93751.6
93605.2
93452.1
93291.5
93122.7
92945.6
92759.5
92564.2
92359.3
92144.7
91920.5
91687.3
91445.3
91194.1
90934.8
90669.1
90399
90124.7
89846.6
89565.8
89284.4
89005
88729.6
88460.1
88197.5
87943.6
87699.1
87463.4
87238.2
87026.7
86830.2
86648.5
86482.2
86333.7
86204.6
86093.2
85997.9
85917
85850.6
85798.9
85761.4
85736.6
85725.8
85726.6
85733.3
85744.5
85762.6
85787
85816.7
85852.2
85891.8
85937.1
85993.4
86054.9
86118.7
86184.6
86251.2
86317.1
86382.4
86446.6
86510.2
86529.7
86557.8
86575.9
86604.1
86620.3
86622.4
86634.7
86634.4
86626.4
86603.8
86591.9
86576.2
86549.5
86506.2
86450.4
86394.8
86325.5
86239.2
86132.7
86008.6
85866
85684
85468.5
85219.5
84941
84636.9
84295.2
83919.3
83512.5
83074.5
82620.2
82160.1
81714
81282
80868.8
80463.3
80025.8
79606.5
79175
78838.3
78295.5
77918.5
77623.9
77299
76916.1
76536.2
76161.5
75804.1
75462.5
75125.1
74844.1
74616.1
74417.5
74254.7
74149.4
74129.5
98815.6
98813
98808
98800.3
98790
98777.1
98762
98744.6
98724.9
98702.9
98678.4
98651.3
98620.9
98587.5
98551.9
98513.9
98472.7
98428.4
98381.1
98330.4
98276.1
98218.2
98156.6
98091.1
98021.9
97948.9
97872.4
97792.5
97709.4
97623.2
97533.8
97441.4
97346
97247.9
97147.3
97044.5
96939.9
96833.9
96727
96619.4
96511.2
96402.6
96294.1
96185.7
96077.4
95969.7
95862.2
95754.7
95648
95541.7
95436
95330.5
95225.2
95119.7
95013.7
94906.8
94798.2
94687.1
94573.1
94456
94335
94209.6
94079.5
93944.1
93802.5
93653.8
93497.2
93332.3
93158.7
92976.5
92785.3
92585.1
92375.1
92154.8
91924.8
91686.1
91438.9
91182.5
90918.3
90649.8
90378.7
90104.4
89827
89547.7
89269.4
88995.4
88728.1
88467.5
88214.8
87970.9
87736
87511.4
87300.3
87104.4
86923.9
86759
86611.6
86482.9
86371.8
86277.1
86196.7
86130.8
86079.1
86037
86011.3
85998.8
85996.4
85997.8
86004.6
86019.1
86041
86068.9
86103.7
86150.3
86189.4
86242.4
86302.8
86367.6
86434.7
86501.5
86568.4
86636.2
86702.6
86757.5
86778.1
86802.9
86814.7
86822.7
86839
86826.5
86827
86817.3
86797.5
86761
86728.1
86698.6
86655.7
86596.7
86526.1
86453.8
86373.1
86274.5
86157.6
86018.7
85863.9
85674.2
85460.4
85206.2
84915.4
84602.6
84256.4
83874.6
83466.1
83027.8
82567.7
82100.9
81648.7
81216
80793.5
80386.7
79963.6
79557.6
79131.7
78751.6
78332
77947.6
77657.7
77337.2
76984.5
76634.3
76292.6
75956.2
75634.6
75332.4
75075.6
74860.6
74684.4
74551.7
74467.5
74460.8
98706.7
98704.3
98699.4
98691.8
98681.7
98669.3
98654.9
98638.4
98619.8
98599
98575.8
98549.9
98521.4
98490.6
98457.9
98422.6
98384.1
98342.5
98297.9
98250
98198.4
98143.3
98084.7
98022.6
97956.9
97887.9
97815.7
97740.6
97662.5
97581.4
97497.4
97410.6
97320.8
97228.5
97133.7
97037.4
96939.8
96841.2
96742.2
96643
96543.5
96444
96344.6
96245.4
96146.4
96047.8
95949.2
95850.7
95753.1
95655.7
95558.5
95461.3
95364
95266.5
95168.5
95069.2
94967.9
94864.2
94757.7
94647.6
94533
94413.6
94289.1
94159.1
94023.1
93880
93728.8
93568.8
93399.3
93220.7
93033
92836.1
92630.5
92415.4
92189.5
91954.2
91711.1
91459.1
91197.9
90931.2
90662.4
90391.2
90117.4
89841.8
89566.7
89295.1
89029.9
88770.8
88518.9
88275.4
88041
87817
87606.7
87412
87232.7
87069.9
86924.3
86796.2
86685.4
86590.5
86510.8
86444.2
86390.1
86348
86320.5
86305.7
86297.9
86293.9
86297.5
86309.5
86327.8
86351.4
86381.1
86420.2
86465.8
86522.2
86583.3
86647.7
86712.9
86778
86845.1
86913.3
86976.8
87025.7
87046.9
87065.3
87076.8
87072.8
87083.2
87056.9
87035.1
87014.7
86982.6
86935.9
86884.8
86838.2
86778.4
86705.6
86620.1
86529.7
86436.9
86325.4
86192.5
86038.4
85873.9
85682.5
85458.2
85198.7
84898
84578.1
84229.3
83836.3
83421.6
82979.6
82517.5
82045
81585.8
81153.1
80731.7
80324.4
79905.1
79527.9
79089.1
78698.1
78412.7
77986.5
77705.7
77400.2
77078
76754.5
76446.9
76143.6
75843
75568
75335.8
75137.7
74988.9
74887.7
74832
74836.4
98588.8
98586.6
98581.9
98574.8
98565.3
98553.9
98540.6
98525.3
98508
98488.5
98466.7
98442.8
98416.8
98389
98359.1
98326.5
98291
98252.5
98211.1
98166.4
98118.2
98066.7
98011.8
97953.7
97892.4
97828.1
97761.1
97691.3
97618.7
97543.1
97464.7
97383.4
97299.6
97213.6
97125.9
97037.1
96947.5
96857.5
96767.5
96677.6
96587.5
96497.8
96408.3
96319
96229.9
96141
96052.4
95964.1
95875.4
95787
95698.8
95610.4
95521.5
95432.2
95342.2
95251
95157.4
95061
94961.7
94859
94751.6
94638.4
94519.6
94395
94264.6
94127.6
93982.6
93828.9
93665.3
93491.1
93307.7
93114.4
92911.7
92701.3
92480.2
92248.4
92009
91761.9
91505.3
91241.7
90975.5
90707.5
90436.9
90164.6
89893.1
89625.1
89363
89106.4
88855.7
88612.3
88378.6
88155.6
87946
87752.1
87574.3
87413.9
87270.5
87143.6
87032.9
86937.8
86858.1
86788.8
86733.2
86692.4
86664.2
86645.9
86632.3
86624
86625
86633
86646
86664.8
86689
86718.3
86776.4
86833.7
86893.5
86956.6
87021.4
87084.8
87149.4
87213.6
87273.2
87319.2
87343
87357.8
87361.7
87344.4
87343.5
87310.9
87268.2
87233.4
87183.9
87124.6
87057
86996
86919
86833.4
86733.4
86624.8
86517.4
86395.6
86246.1
86074.4
85896.1
85705.6
85468.6
85198.3
84895.4
84563.7
84205.3
83803
83382.9
82936.4
82470.4
81996.3
81531.6
81096.7
80686.5
80284.5
79862.7
79507.8
79081.4
78715.5
78421.2
78030.1
77761.9
77485.9
77198.1
76906.2
76631.1
76366.1
76091.9
75842.8
75629.1
75455
75334.6
75267.2
75241.6
75252.6
98462.9
98461
98456.9
98450.7
98442.4
98432.3
98420.3
98406.6
98391
98373.5
98354.1
98332.9
98309.9
98285
98257.9
98228.2
98195.8
98160.7
98122.9
98081.9
98037.7
97990.5
97940
97886.6
97830.6
97771.9
97710.5
97646.4
97579.6
97510
97437.6
97362.7
97285.7
97207
97127.1
97046.5
96965.6
96884.9
96804.6
96724.7
96644.9
96565.5
96486.1
96406.8
96327.8
96248.7
96170
96091.4
96013.2
95934.4
95855.7
95776.9
95697.4
95616.7
95534.8
95451.9
95366.8
95278.1
95185.6
95089.8
94989.9
94884
94771.2
94652
94526.6
94395.2
94256.4
94109.2
93952.4
93784.2
93605.7
93417.3
93218.3
93011
92795
92568.1
92332.4
92089.5
91838.2
91578.9
91316.1
91051.4
90784.3
90515.5
90247.5
89982.9
89724.3
89471
89223.3
88981.9
88749.1
88527
88318.3
88124.6
87948.1
87789.8
87648.5
87523.1
87412.4
87316.4
87236.8
87164.2
87109.8
87069.6
87039.9
87017.2
86998.5
86987.3
86985.4
86988.6
86997.5
87015.5
87044
87080.5
87123.6
87173.3
87229.6
87290.8
87357.3
87419.8
87482.2
87538.2
87592
87634.2
87657.2
87667.6
87667.4
87639.8
87619.4
87581.3
87525.6
87482
87412.8
87331.8
87247.6
87170.9
87080.5
86977.9
86865.9
86741.1
86614.3
86478.8
86319.6
86134.7
85941.5
85735.3
85483.3
85207.1
84901.6
84558
84187.9
83775.9
83349.1
82899.1
82429.2
81955.9
81487.9
81049
80643.4
80263
79828.6
79484.5
79101.9
78736.5
78461.3
78101.7
77843.6
77595.5
77341.8
77076.9
76842.9
76616.6
76376.3
76162.2
75959.3
75815.6
75725.5
75690.6
75694.8
75717.6
98329.7
98328.2
98324.9
98319.8
98313.1
98304.7
98294.6
98282.9
98269.6
98254.8
98238.4
98220.6
98201
98179.5
98155.8
98129.8
98101.2
98070
98036.2
97999.4
97959.8
97917.4
97872.1
97824.3
97773.9
97721.1
97665.8
97608
97547.6
97484.4
97418.8
97351
97281.5
97210.7
97139.1
97067.3
96995.8
96924.8
96854.6
96784.9
96715.7
96646.7
96577.7
96508.7
96439.9
96371
96302.3
96233.9
96165.7
96096.8
96027.9
95959
95889.2
95817.9
95744.8
95670.4
95594.1
95514.3
95429.5
95340
95246.8
95148.6
95043.4
94930.6
94810.7
94684.3
94551.2
94409.8
94259.3
94098.2
93925.2
93742.2
93548.4
93344.5
93132.6
92911.4
92680.4
92442.2
92196
91941.5
91682.5
91422
91158.9
90893.7
90629
90368.5
90113.5
89864
89619.8
89381
89149.6
88928.8
88721.4
88529.1
88354.2
88197.6
88058.3
87934.8
87823.8
87724.3
87633.4
87571.7
87519.7
87478.8
87446.7
87419.5
87397.4
87383.8
87376.8
87375.4
87381.7
87398.9
87423
87451.6
87495.8
87543.2
87594
87651.4
87716.5
87777
87835.6
87889.1
87937.7
87972
87991.6
87994.8
87989.9
87959.4
87919.4
87871.9
87800.5
87741.9
87663.9
87568.2
87467.4
87367.6
87263.5
87142.1
87016.4
86877.4
86731.6
86578.2
86409.4
86212.6
86003.9
85784.3
85526.8
85236.5
84914.1
84559.9
84182.8
83760
83325.7
82868.9
82397.5
81925
81458
81018.3
80612.6
80235.9
79823.1
79479.1
79122.9
78777.6
78519.6
78197.1
77954
77730
77511.2
77270.2
77075
76889.7
76696.2
76523.2
76332
76221.5
76163.6
76160.2
76198.8
76259.3
98189.7
98188.9
98186.6
98182.9
98177.9
98171.6
98163.9
98155
98144.8
98133.2
98120.3
98106.1
98090.3
98072.7
98053.1
98031.4
98007.3
97980.9
97952
97920.3
97885.9
97848.9
97809.4
97767.6
97723.6
97677.3
97628.7
97577.8
97524.3
97468.4
97410.3
97350.3
97288.9
97226.4
97163.8
97101.4
97039.5
96978.5
96918.3
96859
96800.3
96741.8
96683.3
96624.7
96566.3
96507.7
96449.3
96391.6
96335
96276
96217
96158.1
96098.1
96036.7
95972.9
95907.1
95839.4
95768.3
95692
95609.8
95522.9
95431.3
95333.5
95228.3
95115.2
94994.4
94866.4
94730.4
94584.9
94430.1
94264
94086.8
93899.1
93700.3
93492.5
93276.4
93050.6
92817.2
92576.5
92327.3
92072.6
91816.9
91559.1
91298.4
91037.5
90781
90530.2
90285
90044.3
89807.4
89577.4
89358.5
89153.2
88963.6
88790.9
88635.9
88498.8
88375.2
88266.5
88165.3
88079.4
88016.4
87965.2
87921.9
87885.8
87855
87830.8
87814.2
87802
87797.2
87802.2
87817.1
87843.4
87873.5
87913
87956.3
87998.9
88050.5
88110.1
88165.2
88214.4
88263.5
88308.5
88336.7
88350.9
88346.3
88327.6
88292.9
88238
88181
88098.1
88016
87928.3
87822.1
87707.3
87587.6
87466.7
87329.7
87187.6
87036.2
86874.2
86702.5
86519.8
86311.1
86082.4
85847.4
85585.6
85279.4
84944.7
84572.3
84188.1
83757.1
83317.6
82853.9
82377.2
81903.6
81446
81005.2
80598.1
80222.2
79819.6
79489.8
79159.8
78845
78594.6
78312.6
78092.5
77889.8
77699.4
77495.6
77336.6
77183.7
77041.5
76921.1
76748.9
76671.4
76647.1
76677.1
76763.5
76864.4
98043.4
98043.2
98042
98040
98037.3
98033.5
98028.9
98023.2
98016.7
98009.2
98000.6
97990.6
97979.2
97966.1
97951.2
97934.4
97915.5
97894.5
97871.2
97845.5
97817.2
97786.6
97753.7
97718.7
97681.6
97642.5
97601.3
97557.9
97512.2
97464.4
97414.4
97362.9
97310.2
97256.9
97203.7
97150.7
97098.4
97047
96996.7
96947.4
96899.1
96851.4
96803.6
96755.5
96707.5
96659.4
96611.3
96563.8
96515.5
96469.4
96421.8
96373.6
96324.1
96272.4
96218.1
96161.4
96102.2
96039.1
95971
95896.9
95817.3
95732
95641
95542.8
95436.6
95322.5
95200
95069.2
94929.2
94779.3
94619.3
94448.4
94267.1
94074.9
93873
93662.3
93442.5
93214
92978.4
92735.5
92486
92234.4
91982.3
91727.6
91472
91220
90973.4
90732.7
90496.1
90262.2
90034.6
89817.5
89614.7
89427.9
89257.2
89103
88963.2
88840.9
88733.8
88636.3
88557.8
88494.8
88442.6
88396.5
88356.1
88322.2
88295.7
88276.4
88261.3
88254.2
88255.6
88268.3
88300.3
88321.4
88354.4
88394.7
88430.5
88477.3
88529.7
88579
88623.1
88665.3
88704.2
88727.9
88733.7
88720
88687.7
88641.4
88573.3
88503.5
88415.2
88314.2
88210.7
88092.7
87963.1
87830.5
87693.7
87541.6
87384.4
87221.4
87042
86852.5
86653.9
86431.4
86183.2
85928.1
85649.2
85312.7
84967.7
84597.4
84208.8
83770.6
83325.4
82858.1
82372.7
81896.6
81449.4
80999.4
80598.4
80227.1
79847.8
79522.5
79212.2
78929.8
78690.9
78449.9
78252.6
78081.4
77908.9
77738.2
77619.9
77499.5
77394.8
77313.2
77196.5
77159.4
77172.3
77239.9
77385.3
77480.9
97890.3
97890.9
97891
97891.1
97891
97890.6
97889.7
97888.1
97885.7
97882.8
97879.1
97874.4
97868.3
97860.9
97851.8
97840.9
97828.1
97813.2
97796.3
97777.1
97755.8
97732.3
97706.7
97679
97649.4
97618
97584.7
97549.6
97512.5
97473.4
97432.6
97390.4
97347.1
97303.2
97259.4
97216
97173.4
97131.8
97091.5
97052.5
97014.5
96977.2
96940.1
96903.1
96866.1
96828.6
96791.3
96754.8
96718.4
96681.7
96644.3
96606.3
96566.8
96524.6
96479.1
96431.1
96380.7
96326
96265.8
96199.5
96127.6
96049.6
95964.8
95872.9
95773
95665.2
95549.2
95424.2
95290
95145.5
94991.4
94827
94651.3
94464.6
94271.2
94068.1
93855.3
93631.7
93402.6
93167.2
92923.2
92674
92427.7
92179.8
91930.4
91683.3
91441.7
91206.2
90974.6
90745.4
90521.7
90307.2
90106.7
89921.4
89752.5
89599.8
89462.4
89344.4
89237.8
89144.8
89066.4
89003
88948.7
88899.8
88856.3
88819.4
88790.1
88769
88753.5
88743.3
88738
88742.2
88753.4
88779.2
88810.8
88850.8
88884.1
88925.6
88972.2
89015.8
89055.4
89094.4
89126.3
89141.7
89135.4
89109.5
89067.1
89012.1
88935.9
88846.8
88744
88632.4
88515.6
88385.7
88241.6
88097.4
87946
87780.7
87612.2
87434.9
87235.7
87028.8
86814.6
86577
86313.9
86036.5
85722.6
85360.1
84999.6
84651.4
84242
83803.4
83351.9
82883.2
82391.3
81909.3
81456.4
81006.5
80617.2
80245.8
79904
79574.3
79281.3
79040.5
78815.3
78621.5
78440.5
78299.5
78155.6
78013.2
77928.7
77839.1
77755.5
77705
77671.7
77681.7
77736.3
77845.7
78049.9
78092.2
97729.8
97731.8
97733.6
97736
97739.2
97742.7
97746.3
97749.8
97752.8
97755.4
97757.3
97758.5
97758.6
97757.5
97755.1
97751.1
97745.4
97737.9
97728.3
97716.7
97703
97687.2
97669.5
97649.8
97628.3
97605.1
97580.2
97553.8
97525.7
97496.1
97464.9
97432.5
97399.1
97365.3
97331.5
97298.1
97265.7
97234.4
97204.5
97175.3
97147
97120.1
97093.6
97067.1
97041.1
97014.6
96988.4
96963.2
96937.6
96910.9
96883.4
96855.5
96826.1
96793.1
96756.2
96716.1
96673.3
96626.4
96574.2
96516
96452.2
96382.1
96304.5
96218.6
96124.8
96023
95913.2
95794.5
95666.6
95528
95378.9
95223.3
95056.7
94881.2
94691.2
94491.6
94284
94067.9
93845.2
93616.9
93381.7
93142.8
92900.9
92657.1
92409.9
92169.5
91933.5
91703.8
91477.9
91254.3
91035.4
90825
90626.9
90443.4
90276.1
90125.9
89993
89876
89771.9
89681.5
89604
89538.7
89482.2
89431.8
89387.1
89349
89318
89295.2
89279
89266.6
89258.9
89258.7
89257.2
89271.1
89300.8
89333.1
89365.9
89406.1
89449.9
89487.8
89524.4
89555.6
89574.4
89577.1
89560.3
89524.2
89470.2
89402.3
89316.7
89214.3
89096.5
88973.8
88845.6
88699.7
88546.4
88388.6
88222.7
88049.8
87869.1
87673.7
87457.7
87238.5
87010.5
86755.8
86481.4
86186.9
85843.9
85477.5
85095.6
84716.4
84300.1
83863
83402.1
82932.1
82437.3
81947.3
81483
81044.4
80649.6
80264.1
79949.5
79643
79365.4
79164.8
78961.2
78813.2
78657.9
78538.6
78430.1
78327.4
78263.2
78208.6
78159.5
78137.6
78177.7
78246.2
78342.3
78496.2
78747.3
78799.6
97561.3
97565.3
97569.3
97575
97582.2
97590.4
97599.4
97608.9
97618.7
97628
97636.7
97644.8
97651.8
97657.7
97662.4
97665.9
97668
97668.6
97667.4
97664.4
97659.4
97652.3
97643.2
97632.2
97619.3
97604.9
97589.1
97571.8
97553.1
97533
97511.7
97489.6
97466.6
97443.2
97420
97397.2
97375.2
97354.3
97334.6
97315.8
97297.8
97280.6
97263.8
97248.1
97233.2
97217.4
97201.2
97186.4
97171.9
97155.6
97137.5
97118.7
97098.1
97074
97046
97014.1
96979
96939.7
96895
96844.6
96788.2
96725.3
96655.1
96576.5
96489.7
96394.3
96290.4
96178.1
96057.9
95928.4
95788.4
95635.7
95473.3
95301.1
95118.9
94926
94725.9
94517.8
94301.4
94080.5
93853.9
93621.2
93387.3
93153.5
92918.7
92679.3
92447.3
92223.3
92003.2
91786.3
91572.6
91367
91172.7
90992.1
90828.5
90681.1
90551.2
90436.8
90335
90246.8
90170.6
90103.5
90044.5
89993.3
89949.1
89911.6
89880.2
89855.6
89837.2
89822.5
89813.6
89812.4
89806.7
89814.5
89833.4
89857.5
89886.5
89924.4
89958.5
89987.5
90019.2
90044.6
90053.2
90040.8
90011.7
89965.7
89904
89825.5
89725
89608.4
89477.7
89341.2
89200.8
89041.6
88883.3