/*--------------------------------*- C++ -*----------------------------------*\
| =========                 |                                                 |
| \\      /  F ield         | OpenFOAM: The Open Source CFD Toolbox           |
|  \\    /   O peration     | Version:  dev                                   |
|   \\  /    A nd           | Web:      http://www.openfoam.org               |
|    \\/     M anipulation  |                                                 |
\*---------------------------------------------------------------------------*/
FoamFile
{
    version     2.0;
    format      ascii;
    class       surfaceScalarField;
    object      phi;
    location    "9.158";
}
// * * * * * * * * * * * * * * * * * * * * * * * * * * * * * * * * * * * * * //

dimensions      [1 0 -1 0 0 0 0];

internalField   nonuniform List<scalar> 
24170
(
1.94855e-06
1.48409e-06
1.06825e-06
8.87859e-07
6.11101e-07
4.48643e-07
3.60348e-07
2.32019e-07
9.93265e-08
2.27684e-07
-1.0146e-07
1.57993e-07
-3.87399e-07
2.31713e-07
-6.37479e-07
1.88445e-07
-9.64111e-07
2.5968e-07
-1.27785e-06
2.50366e-07
-1.66423e-06
3.15712e-07
-1.94911e-06
2.17951e-07
-2.62029e-06
6.16092e-07
-2.67982e-06
4.59825e-09
-4.00665e-06
1.29315e-06
-3.71165e-06
-3.19955e-07
-4.81089e-06
1.10276e-06
1.78503e-06
-6.61933e-06
3.68415e-06
1.46409e-06
3.03114e-06
1.51977e-06
2.52442e-06
9.20637e-07
2.07463e-06
6.38642e-07
1.72408e-06
5.2339e-07
1.40249e-06
4.14075e-07
1.07315e-06
4.86111e-07
7.78281e-07
4.00075e-07
4.07907e-07
5.43682e-07
1.65967e-07
4.07106e-07
-2.36604e-07
6.31442e-07
-5.98071e-07
4.9365e-07
-9.94908e-07
9.44413e-07
-1.39373e-06
3.31556e-07
-2.32141e-06
2.17615e-06
-1.89219e-06
-7.81494e-07
-5.91031e-06
5.12752e-06
3.77737e-06
-7.91534e-06
4.38755e-06
1.10055e-06
4.16463e-06
1.71616e-06
3.92756e-06
1.11784e-06
3.57218e-06
9.4522e-07
3.22918e-06
8.05599e-07
2.87912e-06
6.90664e-07
2.51426e-06
7.67949e-07
2.26534e-06
5.56618e-07
1.7497e-06
9.63393e-07
1.74844e-06
3.12418e-07
9.63109e-07
1.32112e-06
1.22219e-06
1.41286e-07
-1.95859e-08
2.10758e-06
2.59241e-07
-2.42588e-08
-1.42853e-06
3.81209e-06
-1.82769e-06
-4.25112e-07
-3.26374e-06
6.53987e-06
7.20783e-06
-6.63807e-06
4.53588e-06
1.13434e-06
4.94609e-06
1.27725e-06
4.82243e-06
1.19868e-06
4.829e-06
8.85135e-07
4.43365e-06
1.13513e-06
4.38869e-06
6.5465e-07
3.85758e-06
1.20725e-06
3.8479e-06
4.65229e-07
3.13079e-06
1.57406e-06
3.15215e-06
1.83861e-07
2.21861e-06
2.14878e-06
2.26398e-06
-6.11317e-09
1.07058e-06
3.21133e-06
1.11548e-06
-1.54099e-07
-3.26289e-07
5.19603e-06
-5.86854e-07
-2.16141e-07
-1.67285e-06
7.60056e-06
7.15792e-06
-1.59927e-06
4.8599e-06
1.35305e-06
5.54377e-06
5.6297e-07
5.25963e-06
1.43709e-06
5.54836e-06
5.37904e-07
5.05892e-06
1.55307e-06
5.18875e-06
4.35942e-07
4.57816e-06
1.7169e-06
4.65191e-06
2.80575e-07
3.94401e-06
2.16351e-06
3.81457e-06
1.94185e-07
3.0049e-06
2.83992e-06
2.7988e-06
8.79932e-08
2.0986e-06
3.80726e-06
1.36467e-06
4.85574e-07
9.72164e-07
5.50907e-06
-4.31496e-07
1.12263e-06
-6.64923e-07
7.81007e-06
7.047e-06
-5.82586e-07
5.45084e-06
1.57598e-06
5.68405e-06
2.97669e-07
5.33483e-06
1.73712e-06
5.64908e-06
1.60331e-07
5.23514e-06
1.88918e-06
5.2983e-06
2.75878e-07
4.79109e-06
2.11394e-06
4.77195e-06
1.76768e-07
4.24928e-06
2.55559e-06
3.97903e-06
3.32534e-07
3.47056e-06
3.21761e-06
3.03289e-06
4.00608e-07
2.7119e-06
4.01019e-06
1.7352e-06
1.35899e-06
1.81298e-06
5.33516e-06
7.79262e-08
2.7909e-06
7.35552e-07
7.08687e-06
7.28165e-06
4.54017e-07
6.12974e-06
1.68599e-06
6.24896e-06
1.44386e-07
5.92781e-06
2.00648e-06
6.1557e-06
-1.35012e-07
5.82426e-06
2.13488e-06
5.8036e-06
1.92131e-07
5.38174e-06
2.41462e-06
5.17464e-06
2.48017e-07
4.84947e-06
2.73805e-06
4.40829e-06
6.27342e-07
4.21364e-06
3.26652e-06
3.41082e-06
1.0622e-06
3.34776e-06
3.9394e-06
2.26926e-06
2.31707e-06
2.38132e-06
5.11603e-06
9.96927e-07
4.08847e-06
1.44976e-06
6.55018e-06
7.58086e-06
1.0917e-06
4.75442e-06
1.74619e-06
4.91552e-06
-4.23062e-08
4.72694e-06
2.15621e-06
4.80226e-06
-2.60996e-07
4.62723e-06
2.24474e-06
4.55076e-06
1.88143e-07
4.38192e-06
2.48926e-06
4.08696e-06
4.37682e-07
3.99226e-06
2.72133e-06
3.56624e-06
9.38128e-07
3.4899e-06
3.22678e-06
2.83647e-06
1.6026e-06
2.80448e-06
3.8636e-06
2.05423e-06
2.96913e-06
2.08463e-06
4.9983e-06
1.28942e-06
4.80688e-06
1.40447e-06
6.36802e-06
7.46178e-06
1.46795e-06
5.54398e-06
1.8981e-06
5.73184e-06
-2.57907e-07
5.60578e-06
2.23934e-06
5.50713e-06
-2.19174e-07
5.44746e-06
2.23e-06
5.19965e-06
3.43514e-07
5.13444e-06
2.44571e-06
4.73471e-06
7.15394e-07
4.63766e-06
2.68783e-06
4.12305e-06
1.31739e-06
4.0313e-06
3.18078e-06
3.35763e-06
2.14192e-06
3.2808e-06
3.81082e-06
2.59505e-06
3.5362e-06
2.55145e-06
4.93244e-06
1.95974e-06
5.30198e-06
1.9967e-06
6.24285e-06
7.2769e-06
2.10695e-06
6.48573e-06
1.63323e-06
6.57669e-06
-3.78444e-07
6.70769e-06
2.0623e-06
6.49547e-06
-7.00145e-08
6.57478e-06
2.06742e-06
6.23783e-06
5.75338e-07
6.19688e-06
2.36155e-06
5.68606e-06
1.08456e-06
5.54705e-06
2.67487e-06
4.9435e-06
1.76076e-06
4.80724e-06
3.15459e-06
4.13915e-06
2.64941e-06
3.99372e-06
3.80007e-06
3.40016e-06
3.98431e-06
3.24943e-06
4.94665e-06
2.87646e-06
5.55046e-06
2.82259e-06
6.18177e-06
7.04815e-06
2.95011e-06
7.86742e-06
1.62873e-06
7.53965e-06
-7.87118e-08
7.69883e-06
1.85578e-06
7.34757e-06
2.14261e-07
7.45218e-06
1.87071e-06
7.06426e-06
8.44295e-07
7.08638e-06
2.19693e-06
6.60379e-06
1.40344e-06
6.51492e-06
2.58488e-06
5.95989e-06
2.1271e-06
5.81408e-06
3.1089e-06
5.18499e-06
3.08542e-06
4.93548e-06
3.86185e-06
4.44118e-06
4.29937e-06
4.21321e-06
5.00407e-06
3.96074e-06
5.64427e-06
3.86408e-06
6.13017e-06
6.77952e-06
3.99872e-06
9.19611e-06
1.23392e-06
8.96785e-06
1.2643e-07
9.23042e-06
1.54846e-06
8.81799e-06
5.57746e-07
8.90307e-06
1.68574e-06
8.49188e-06
1.12347e-06
8.50983e-06
2.0157e-06
8.00839e-06
1.71552e-06
7.89632e-06
2.48955e-06
7.35677e-06
2.44466e-06
7.10544e-06
3.1321e-06
6.53942e-06
3.42024e-06
6.22919e-06
3.94385e-06
5.82731e-06
4.47843e-06
5.62249e-06
4.99667e-06
5.46944e-06
5.59356e-06
5.37111e-06
6.0377e-06
6.50256e-06
5.47039e-06
1.06086e-05
9.8198e-07
1.0301e-05
4.25582e-07
1.06267e-05
1.18821e-06
1.03468e-05
7.724e-07
1.05148e-05
1.41291e-06
1.02064e-05
1.28627e-06
1.02013e-05
1.83719e-06
9.73209e-06
1.96875e-06
9.47154e-06
2.5075e-06
8.89059e-06
2.7646e-06
8.53549e-06
3.21626e-06
8.03289e-06
3.64417e-06
7.65976e-06
4.03762e-06
7.35189e-06
4.51069e-06
7.11805e-06
4.96413e-06
7.02653e-06
5.42634e-06
7.01397e-06
5.80511e-06
6.15568e-06
7.12548e-06
1.21524e-05
5.20182e-07
1.20759e-05
5.21786e-07
1.24247e-05
8.2591e-07
1.22573e-05
8.85984e-07
1.23443e-05
1.22125e-06
1.20952e-05
1.37889e-06
1.19888e-05
1.73973e-06
1.16623e-05
2.04997e-06
1.14129e-05
2.47714e-06
1.09972e-05
2.87557e-06
1.06069e-05
3.28315e-06
1.01962e-05
3.7201e-06
9.79196e-06
4.10146e-06
9.47272e-06
4.49052e-06
9.23068e-06
4.87243e-06
9.10033e-06
5.22808e-06
9.05217e-06
5.53675e-06
5.80521e-06
9.09636e-06
1.45767e-05
1.38871e-07
1.46383e-05
5.3497e-07
1.47403e-05
7.50895e-07
1.46478e-05
9.52061e-07
1.45708e-05
1.20595e-06
1.43342e-05
1.45678e-06
1.40971e-05
1.75698e-06
1.3786e-05
2.08674e-06
1.34699e-05
2.47298e-06
1.3137e-05
2.8527e-06
1.28062e-05
3.23037e-06
1.24951e-05
3.62953e-06
1.22022e-05
3.97953e-06
1.19624e-05
4.31082e-06
1.17936e-05
4.62229e-06
1.17143e-05
4.89323e-06
1.17036e-05
5.14071e-06
5.314e-06
1.1798e-05
1.64519e-05
6.82441e-08
1.66131e-05
5.48079e-07
1.68926e-05
5.67285e-07
1.71026e-05
7.62957e-07
1.72082e-05
1.03571e-06
1.71669e-05
1.34849e-06
1.70033e-05
1.69198e-06
1.67694e-05
2.0205e-06
1.65144e-05
2.36657e-06
1.62574e-05
2.69768e-06
1.6017e-05
3.01815e-06
1.58265e-05
3.33812e-06
1.56564e-05
3.64681e-06
1.55163e-05
3.93611e-06
1.54196e-05
4.19807e-06
1.53455e-05
4.44715e-06
1.53149e-05
4.65552e-06
4.79553e-06
1.53272e-05
1.91728e-05
-2.07263e-07
1.97405e-05
2.99725e-07
2.01124e-05
4.00018e-07
2.03572e-05
6.19038e-07
2.04983e-05
8.83913e-07
2.05609e-05
1.16518e-06
2.05589e-05
1.47015e-06
2.04982e-05
1.76376e-06
2.03955e-05
2.07032e-06
2.02525e-05
2.37237e-06
2.00783e-05
2.66717e-06
1.98975e-05
2.94983e-06
1.9723e-05
3.21907e-06
1.95664e-05
3.46686e-06
1.94322e-05
3.69249e-06
1.9337e-05
3.89577e-06
1.92885e-05
4.05633e-06
4.17885e-06
1.9262e-05
1.99158e-05
-2.5707e-07
2.06251e-05
2.35407e-08
2.10961e-05
2.32523e-07
2.13633e-05
5.37442e-07
2.15055e-05
8.04721e-07
2.15871e-05
1.02647e-06
2.16436e-05
1.24326e-06
2.16542e-05
1.47745e-06
2.16353e-05
1.72001e-06
2.15725e-05
1.98456e-06
2.14647e-05
2.25591e-06
2.134e-05
2.49944e-06
2.11894e-05
2.75036e-06
2.10347e-05
2.97197e-06
2.08828e-05
3.17198e-06
2.0741e-05
3.35046e-06
2.06259e-05
3.47913e-06
3.58509e-06
2.05262e-05
1.79308e-05
-5.37502e-07
1.85564e-05
-1.28987e-07
1.90527e-05
8.75113e-08
1.9465e-05
3.65073e-07
1.97885e-05
6.04566e-07
2.00153e-05
8.07364e-07
2.01586e-05
9.96605e-07
2.02031e-05
1.22801e-06
2.0175e-05
1.45187e-06
2.0087e-05
1.69455e-06
1.99599e-05
1.93693e-06
1.98254e-05
2.13036e-06
1.96932e-05
2.33266e-06
1.95712e-05
2.50852e-06
1.94645e-05
2.66669e-06
1.93866e-05
2.80069e-06
1.93188e-05
2.90764e-06
2.98151e-06
1.92791e-05
1.6169e-05
-3.65945e-07
1.66086e-05
-7.99451e-08
1.7115e-05
-4.0069e-08
1.75738e-05
1.79657e-07
1.79346e-05
4.05015e-07
1.82035e-05
5.90981e-07
1.83932e-05
7.54278e-07
1.85278e-05
9.44936e-07
1.85981e-05
1.1453e-06
1.86086e-05
1.37086e-06
1.85638e-05
1.6025e-06
1.84546e-05
1.80256e-06
1.83259e-05
1.97907e-06
1.81825e-05
2.13206e-06
1.80409e-05
2.26047e-06
1.78997e-05
2.37377e-06
1.77875e-05
2.43783e-06
2.48197e-06
1.76988e-05
1.44024e-05
-4.53664e-07
1.50347e-05
-2.22401e-07
1.5569e-05
-1.88297e-07
1.60139e-05
2.24498e-08
1.63573e-05
2.45476e-07
1.65881e-05
4.44723e-07
1.67144e-05
6.13198e-07
1.68134e-05
7.4141e-07
1.68687e-05
9.02404e-07
1.69179e-05
1.06e-06
1.69457e-05
1.24974e-06
1.69204e-05
1.44814e-06
1.68784e-05
1.59682e-06
1.68122e-05
1.73714e-06
1.67332e-05
1.85024e-06
1.66611e-05
1.93522e-06
1.65628e-05
2.01194e-06
2.03667e-06
1.64749e-05
1.28367e-05
-2.97232e-07
1.34215e-05
-3.35535e-07
1.39346e-05
-3.24684e-07
1.43517e-05
-1.08865e-07
1.4685e-05
1.0371e-07
1.49601e-05
2.7004e-07
1.51858e-05
3.97831e-07
1.5346e-05
5.08241e-07
1.54655e-05
6.33766e-07
1.55187e-05
7.88116e-07
1.55268e-05
9.63265e-07
1.55139e-05
1.13087e-06
1.54564e-05
1.28097e-06
1.53895e-05
1.39601e-06
1.53075e-05
1.49612e-06
1.52202e-05
1.5661e-06
1.51488e-05
1.61207e-06
1.64638e-06
1.5059e-05
1.17514e-05
-3.70865e-07
1.21652e-05
-3.04087e-07
1.25846e-05
-3.88054e-07
1.30185e-05
-2.68095e-07
1.34009e-05
-8.82689e-08
1.36989e-05
7.72496e-08
1.38983e-05
2.23705e-07
1.40149e-05
3.41126e-07
1.40856e-05
4.42489e-07
1.41165e-05
5.73705e-07
1.41408e-05
6.99748e-07
1.4137e-05
8.46793e-07
1.40988e-05
9.90991e-07
1.40373e-05
1.09596e-06
1.39662e-05
1.17905e-06
1.38839e-05
1.24051e-06
1.37968e-05
1.27711e-06
1.29701e-06
1.37154e-05
1.01824e-05
-3.85334e-07
1.07655e-05
-4.78849e-07
1.12869e-05
-5.78941e-07
1.17616e-05
-4.84846e-07
1.21738e-05
-3.17749e-07
1.25036e-05
-1.46474e-07
1.27438e-05
1.80871e-08
1.28866e-05
1.63704e-07
1.29387e-05
2.92295e-07
1.29496e-05
4.06931e-07
1.29268e-05
5.14583e-07
1.28964e-05
6.25352e-07
1.28675e-05
7.29851e-07
1.28331e-05
8.0975e-07
1.27944e-05
8.72681e-07
1.27462e-05
9.25037e-07
1.26904e-05
9.56307e-07
9.7651e-07
1.26252e-05
9.30408e-06
-3.61389e-07
9.82407e-06
-6.30394e-07
1.02664e-05
-7.20642e-07
1.06045e-05
-5.85962e-07
1.08695e-05
-4.13039e-07
1.11042e-05
-2.77417e-07
1.13207e-05
-1.59987e-07
1.15036e-05
-4.29242e-08
1.16479e-05
6.6242e-08
1.17474e-05
1.72582e-07
1.18053e-05
2.75323e-07
1.18325e-05
3.75911e-07
1.18308e-05
4.75416e-07
1.17938e-05
5.6231e-07
1.17268e-05
6.33063e-07
1.16448e-05
6.83353e-07
1.15459e-05
7.19056e-07
7.33587e-07
1.14446e-05
8.23189e-06
-4.55995e-07
8.72757e-06
-7.91858e-07
9.17472e-06
-8.94165e-07
9.54618e-06
-7.40902e-07
9.86685e-06
-5.77271e-07
1.0126e-05
-4.39813e-07
1.03102e-05
-3.05312e-07
1.04286e-05
-1.78193e-07
1.04904e-05
-6.45073e-08
1.051e-05
3.65036e-08
1.05055e-05
1.2093e-07
1.04876e-05
1.9826e-07
1.04584e-05
2.77878e-07
1.04183e-05
3.50132e-07
1.03717e-05
4.06903e-07
1.0314e-05
4.52474e-07
1.0249e-05
4.84146e-07
4.94421e-07
1.01805e-05
7.32776e-06
-8.11449e-07
8.06026e-06
-1.22403e-06
8.53182e-06
-1.11906e-06
8.83339e-06
-8.46006e-07
9.0222e-06
-6.23148e-07
9.14116e-06
-4.69197e-07
9.21362e-06
-3.40388e-07
9.25346e-06
-2.30305e-07
9.26526e-06
-1.35289e-07
9.2447e-06
-4.44627e-08
9.19868e-06
2.7325e-08
9.13211e-06
9.20167e-08
9.05714e-06
1.51862e-07
8.97768e-06
2.0534e-07
8.89305e-06
2.48683e-07
8.80617e-06
2.82169e-07
8.71737e-06
3.05249e-07
3.18046e-07
8.61894e-06
6.67415e-06
-1.10098e-06
7.20201e-06
-1.48252e-06
7.45032e-06
-1.14672e-06
7.57999e-06
-7.9921e-07
7.61908e-06
-5.3292e-07
7.59387e-06
-3.6219e-07
7.53216e-06
-2.4359e-07
7.44991e-06
-1.57553e-07
7.35601e-06
-9.24226e-08
7.25209e-06
-2.98508e-08
7.13432e-06
2.16014e-08
7.00831e-06
6.46846e-08
6.87712e-06
1.04281e-07
6.74478e-06
1.37821e-07
6.61249e-06
1.64161e-07
6.47789e-06
1.86838e-07
6.3445e-06
1.99098e-07
2.16109e-07
6.20038e-06
5.9205e-06
-1.28278e-06
5.85911e-06
-1.17747e-06
5.63623e-06
-7.25145e-07
5.42878e-06
-4.33164e-07
5.24678e-06
-2.34564e-07
5.07989e-06
-1.21396e-07
4.92949e-06
-6.08087e-08
4.78959e-06
-2.49729e-08
4.65809e-06
-5.58754e-09
4.52979e-06
1.94684e-08
4.40544e-06
3.61475e-08
4.28275e-06
5.06116e-08
4.15988e-06
6.7466e-08
4.03844e-06
8.0633e-08
3.91624e-06
9.25901e-08
3.79289e-06
1.04803e-07
3.67492e-06
1.03263e-07
1.28873e-07
3.54273e-06
3.927e-06
2.98482e-06
2.45458e-06
2.17744e-06
2.05899e-06
2.01424e-06
1.99179e-06
1.96858e-06
1.93039e-06
1.88576e-06
1.82959e-06
1.76323e-06
1.69271e-06
1.61795e-06
1.54116e-06
1.46576e-06
1.38086e-06
1.3162e-06
7.63931e-07
7.10193e-07
1.61863e-06
6.66974e-07
2.49027e-06
6.69077e-07
3.36125e-06
6.74864e-07
4.23393e-06
6.72165e-07
5.11084e-06
6.63835e-07
5.98567e-06
6.58844e-07
6.84841e-06
6.61047e-07
7.69183e-06
6.68227e-07
8.51628e-06
6.72409e-07
9.31769e-06
6.76895e-07
1.00913e-05
6.82885e-07
1.08392e-05
6.82982e-07
1.1558e-05
6.83306e-07
1.22553e-05
6.7659e-07
1.2948e-05
6.57124e-07
1.36472e-05
6.22098e-07
1.43204e-05
6.06629e-07
1.49383e-05
6.12487e-07
1.55111e-05
6.09087e-07
1.60133e-05
6.43615e-07
1.64912e-05
6.3476e-07
1.69801e-05
5.71183e-07
1.74533e-05
5.20182e-07
1.78929e-05
4.88082e-07
1.82869e-05
4.86728e-07
1.85731e-05
5.5198e-07
1.87026e-05
6.36106e-07
1.86557e-05
7.21635e-07
1.83756e-05
8.68002e-07
1.77784e-05
1.13797e-06
1.69204e-05
1.4101e-06
1.59006e-05
1.5676e-06
1.47986e-05
1.59002e-06
1.36867e-05
1.53332e-06
1.25867e-05
1.46246e-06
1.15029e-05
1.38379e-06
1.04482e-05
1.29245e-06
9.42846e-06
1.19817e-06
8.46198e-06
1.08718e-06
7.54753e-06
9.78692e-07
6.69124e-06
8.65342e-07
5.90558e-06
7.41387e-07
5.18171e-06
6.33637e-07
4.53772e-06
5.05946e-07
3.96245e-06
3.92545e-07
3.44431e-06
2.9408e-07
2.99428e-06
1.87919e-07
2.6069e-06
9.05739e-08
2.2877e-06
-9.86825e-09
2.00411e-06
-7.9764e-08
1.77687e-06
-1.62318e-07
1.5929e-06
-2.275e-07
1.44208e-06
-2.79113e-07
1.31491e-06
-3.17947e-07
1.21703e-06
-3.58985e-07
1.15405e-06
-4.03228e-07
1.13204e-06
-4.50849e-07
1.14062e-06
-4.85114e-07
1.16341e-06
-5.00303e-07
1.19854e-06
-5.11212e-07
1.25881e-06
-5.32735e-07
1.34488e-06
-5.53093e-07
1.45641e-06
-5.71949e-07
1.59578e-06
-5.92925e-07
1.73959e-06
-5.90489e-07
1.90913e-06
-6.09646e-07
2.10562e-06
-6.30471e-07
2.30791e-06
-6.31323e-07
2.53113e-06
-6.51403e-07
2.75836e-06
-6.60079e-07
3.00334e-06
-6.80266e-07
3.26327e-06
-6.99233e-07
3.51786e-06
-7.01844e-07
3.78477e-06
-7.26744e-07
4.04467e-06
-7.37111e-07
4.27741e-06
-7.32974e-07
4.45663e-06
-7.0867e-07
4.54278e-06
-6.50716e-07
4.54276e-06
-6.04135e-07
4.52609e-06
-6.30155e-07
4.56315e-06
-7.29869e-07
4.60299e-06
-7.82271e-07
4.55809e-06
-7.51222e-07
4.35999e-06
-6.53561e-07
4.04769e-06
-5.9621e-07
3.73106e-06
-6.50966e-07
3.3939e-06
-6.90602e-07
2.99335e-06
-6.86907e-07
2.56921e-06
-7.22519e-07
2.16509e-06
-7.9253e-07
1.79862e-06
-8.89721e-07
1.45882e-06
-9.71937e-07
1.0251e-06
-9.21304e-07
4.55579e-07
-8.27247e-07
-2.06729e-07
-7.74259e-07
-1.00693e-06
-6.66274e-07
-1.84628e-06
-6.50466e-07
-2.5369e-06
-8.10469e-07
-3.11046e-06
-9.34075e-07
-3.76187e-06
-8.54989e-07
-4.55072e-06
-7.10722e-07
-5.09063e-06
-9.44386e-07
-4.90951e-06
-1.63195e-06
-4.04442e-06
-2.26567e-06
-3.11841e-06
-2.25341e-06
-2.31966e-06
-2.04327e-06
-2.08942e-06
-1.39394e-06
-2.85193e-06
-3.3381e-07
-4.16575e-06
2.68739e-07
-5.39307e-06
2.55454e-07
-6.67003e-06
4.0243e-07
-8.01425e-06
5.31243e-07
-9.17316e-06
3.93049e-07
-9.58569e-06
-2.5274e-07
-9.331e-06
-8.0702e-07
-9.07712e-06
-7.4912e-07
-9.00063e-06
-5.32497e-07
-8.64193e-06
-7.71071e-07
-7.04258e-06
-1.94642e-06
-4.09645e-06
-3.1824e-06
-1.38589e-06
-2.88149e-06
-4.45455e-07
-1.09782e-06
-1.41941e-06
8.44198e-07
-1.83018e-06
2.92728e-07
-4.43252e-07
-1.5095e-06
7.872e-07
-1.33507e-06
1.20648e-06
-5.09874e-07
2.15881e-06
-1.03413e-06
3.04941e-06
-9.97019e-07
4.5173e-06
-1.61477e-06
6.35047e-06
-2.0371e-06
8.55091e-06
-2.45684e-06
1.06968e-05
-2.5062e-06
1.22141e-05
-2.02361e-06
1.28648e-05
-1.27558e-06
1.26473e-05
-4.38933e-07
1.22746e-05
-3.16994e-07
1.18521e-05
-3.5877e-07
1.14554e-05
-5.15095e-07
1.09839e-05
-5.72392e-07
1.03696e-05
-5.65641e-07
9.54099e-06
-4.87295e-07
8.59469e-06
-4.8014e-07
7.64645e-06
-5.61951e-07
6.84101e-06
-7.73639e-07
6.11884e-06
-9.15443e-07
5.62387e-06
-1.17933e-06
5.05911e-06
-1.11922e-06
4.39574e-06
-9.92891e-07
3.53085e-06
-7.22046e-07
2.45313e-06
-4.42561e-07
1.30512e-06
-2.54386e-07
4.0347e-07
-3.59358e-07
-1.66579e-07
-5.57171e-07
-7.19484e-07
-4.17423e-07
-1.09984e-06
-4.19914e-07
-1.26278e-06
-4.30068e-07
-2.15934e-06
5.57283e-07
-3.7036e-06
1.33971e-06
-4.25385e-06
4.14499e-07
-4.95095e-06
7.34222e-07
-6.46602e-06
1.6815e-06
-9.00341e-06
2.56391e-06
-1.26707e-05
3.41065e-06
-1.06875e-05
-1.96712e-06
-5.00534e-06
-5.43073e-06
-4.41203e-06
-6.95461e-07
-3.92113e-06
-6.844e-07
-1.03208e-06
-3.13514e-06
3.43616e-06
-4.77946e-06
6.99797e-06
-4.02974e-06
7.02623e-06
-5.52394e-07
4.67334e-06
1.95583e-06
2.78913e-06
1.50689e-06
2.34335e-06
-1.70331e-07
1.41193e-06
3.06997e-07
9.21942e-07
3.56066e-08
1.33916e-06
-7.34535e-07
1.43655e-06
-2.51225e-07
7.24568e-07
1.44851e-06
1.57113e-06
1.3367e-06
2.4667e-06
1.31622e-06
3.3718e-06
1.32162e-06
4.27808e-06
1.31912e-06
5.18808e-06
1.30564e-06
6.09393e-06
1.30133e-06
6.98207e-06
1.31434e-06
7.84043e-06
1.34206e-06
8.66916e-06
1.36526e-06
9.47619e-06
1.37655e-06
1.02565e-05
1.39066e-06
1.10026e-05
1.40379e-06
1.17336e-05
1.3933e-06
1.24767e-05
1.34375e-06
1.32045e-05
1.31113e-06
1.38784e-05
1.29562e-06
1.44876e-05
1.30043e-06
1.51124e-05
1.23538e-06
1.57881e-05
1.11153e-06
1.64086e-05
1.16765e-06
1.68798e-05
1.27836e-06
1.71248e-05
1.33955e-06
1.70769e-05
1.43836e-06
1.67423e-05
1.60938e-06
1.61812e-05
1.87767e-06
1.5366e-05
2.21034e-06
1.42396e-05
2.5176e-06
1.29606e-05
2.71226e-06
1.1716e-05
2.81423e-06
1.06059e-05
2.90595e-06
9.63838e-06
2.97939e-06
8.76394e-06
2.98815e-06
7.87583e-06
2.95518e-06
6.97269e-06
2.84424e-06
6.09857e-06
2.68224e-06
5.25354e-06
2.51184e-06
4.4488e-06
2.31942e-06
3.68586e-06
2.12387e-06
2.96005e-06
1.91809e-06
2.2968e-06
1.69127e-06
1.71015e-06
1.44873e-06
1.18599e-06
1.21274e-06
7.5145e-07
9.68695e-07
3.69473e-07
7.43408e-07
1.75394e-08
5.57e-07
-2.84907e-07
3.68643e-07
-5.38461e-07
1.76024e-07
-7.38873e-07
-8.95846e-09
-8.79632e-07
-2.0101e-07
-9.63902e-07
-3.56269e-07
-1.00297e-06
-5.08966e-07
-1.01021e-06
-6.27454e-07
-9.95339e-07
-7.19548e-07
-9.40781e-07
-8.13017e-07
-8.56417e-07
-8.95677e-07
-7.34847e-07
-9.85165e-07
-5.90357e-07
-1.06081e-06
-4.31175e-07
-1.11256e-06
-2.71642e-07
-1.12853e-06
-9.61623e-08
-1.15359e-06
1.19851e-07
-1.21171e-06
3.82582e-07
-1.27343e-06
6.5814e-07
-1.29884e-06
9.62348e-07
-1.34164e-06
1.28031e-06
-1.34683e-06
1.59889e-06
-1.36159e-06
1.9411e-06
-1.40042e-06
2.29799e-06
-1.41109e-06
2.6265e-06
-1.40162e-06
2.95211e-06
-1.41099e-06
3.28283e-06
-1.43802e-06
3.58993e-06
-1.43759e-06
3.89162e-06
-1.44247e-06
4.16844e-06
-1.45329e-06
4.45383e-06
-1.48631e-06
4.78658e-06
-1.54677e-06
5.12467e-06
-1.55047e-06
5.40016e-06
-1.46321e-06
5.51461e-06
-1.30437e-06
5.54827e-06
-1.30549e-06
5.6634e-06
-1.53187e-06
5.93149e-06
-1.77182e-06
6.21016e-06
-1.79808e-06
6.29566e-06
-1.57236e-06
6.13793e-06
-1.33988e-06
5.94753e-06
-1.42756e-06
5.73934e-06
-1.51768e-06
5.43695e-06
-1.48971e-06
5.04135e-06
-1.49334e-06
4.62341e-06
-1.5925e-06
4.3032e-06
-1.83886e-06
3.94627e-06
-1.9493e-06
3.32477e-06
-1.69088e-06
2.53257e-06
-1.45805e-06
1.67956e-06
-1.385e-06
7.29942e-07
-1.21957e-06
-2.46343e-07
-1.2098e-06
-8.84546e-07
-1.73202e-06
-1.17324e-06
-2.20129e-06
-1.54225e-06
-2.01447e-06
-2.26233e-06
-1.51882e-06
-2.53762e-06
-2.20887e-06
-2.22735e-06
-3.4613e-06
-1.84334e-06
-4.10784e-06
-1.74232e-06
-3.70343e-06
-2.45125e-06
-2.59271e-06
-3.99367e-06
-1.0611e-06
-5.58801e-06
8.4755e-08
-7.06799e-06
6.6454e-07
-8.84899e-06
1.06354e-06
-1.05195e-05
1.13629e-06
-1.16279e-05
7.45991e-07
-1.19003e-05
-8.33652e-08
-1.14099e-05
-1.35769e-06
-1.07251e-05
-2.07964e-06
-9.94882e-06
-2.12586e-06
-8.92462e-06
-2.10485e-06
-7.62411e-06
-2.49518e-06
-5.85094e-06
-3.9659e-06
-3.9268e-06
-5.2478e-06
-3.31094e-06
-3.70849e-06
-2.72714e-06
-1.92952e-06
-2.88451e-06
8.13166e-07
-2.90171e-06
1.15615e-07
-3.15299e-07
-4.20937e-06
1.27876e-06
-3.04236e-06
1.54975e-06
-9.08352e-07
2.5118e-06
-2.09839e-06
3.76415e-06
-2.41888e-06
5.34569e-06
-3.40607e-06
7.10812e-06
-4.06991e-06
9.18557e-06
-4.78949e-06
1.15496e-05
-5.1003e-06
1.39072e-05
-4.71946e-06
1.59098e-05
-3.83911e-06
1.69944e-05
-2.28528e-06
1.71711e-05
-1.39836e-06
1.68552e-05
-1.04917e-06
1.62676e-05
-9.93115e-07
1.5373e-05
-7.8432e-07
1.43893e-05
-7.58232e-07
1.33925e-05
-8.26193e-07
1.24558e-05
-1.10143e-06
1.13044e-05
-1.11097e-06
9.90109e-06
-1.07907e-06
8.47915e-06
-1.19331e-06
7.39081e-06
-1.83021e-06
6.63765e-06
-2.16625e-06
5.8862e-06
-2.07653e-06
4.95423e-06
-1.60999e-06
3.61698e-06
-8.59769e-07
2.01682e-06
-3.14579e-07
7.82927e-07
-6.41121e-07
-2.61423e-07
-8.88382e-07
-1.58369e-06
-3.06876e-07
-2.48643e-06
-5.67512e-07
-2.32402e-06
-1.39836e-06
-2.45482e-06
2.4063e-07
-4.74557e-06
3.39388e-06
-6.64708e-06
2.12411e-06
-8.45689e-06
2.70879e-06
-1.10024e-05
4.1403e-06
-1.27142e-05
3.5417e-06
-1.3731e-05
4.22374e-06
-8.56364e-06
-6.51039e-06
-2.46587e-06
-1.07296e-05
-2.00131e-06
-1.38279e-06
-1.10765e-06
-1.90136e-06
1.69375e-06
-6.51993e-06
5.81759e-06
-9.44495e-06
1.03632e-05
-8.86446e-06
1.27008e-05
-3.77545e-06
1.15287e-05
2.13104e-06
8.88475e-06
3.59615e-06
6.62276e-06
1.55448e-06
4.85358e-06
1.29144e-06
3.26349e-06
1.1002e-06
4.17619e-06
-2.04902e-06
1.30078e-06
3.74564e-06
6.97537e-07
2.18347e-06
1.52266e-06
1.98056e-06
2.4483e-06
1.88266e-06
3.40612e-06
1.87044e-06
4.34896e-06
1.89009e-06
5.27511e-06
1.89588e-06
6.18369e-06
1.91183e-06
7.07735e-06
1.93791e-06
7.95125e-06
1.97732e-06
8.77483e-06
2.04375e-06
9.57089e-06
2.07685e-06
1.03555e-05
2.08189e-06
1.11033e-05
2.11341e-06
1.18386e-05
2.13043e-06
1.25e-05
2.14434e-06
1.30897e-05
2.09344e-06
1.37178e-05
1.93587e-06
1.43437e-05
1.89722e-06
1.47615e-05
1.99504e-06
1.49041e-05
2.06067e-06
1.47368e-05
2.3616e-06
1.42915e-05
2.72994e-06
1.35806e-05
3.00506e-06
1.26236e-05
3.28631e-06
1.15755e-05
3.53904e-06
1.05886e-05
3.72797e-06
9.69481e-06
3.92224e-06
8.92584e-06
4.05661e-06
8.19884e-06
4.16034e-06
7.44748e-06
4.23604e-06
6.70434e-06
4.25503e-06
6.00568e-06
4.21826e-06
5.36724e-06
4.1065e-06
4.7813e-06
3.95729e-06
4.22234e-06
3.76314e-06
3.67723e-06
3.5338e-06
3.14509e-06
3.29578e-06
2.64232e-06
3.02234e-06
2.14197e-06
2.77078e-06
1.67688e-06
2.47974e-06
1.27386e-06
2.14345e-06
8.83732e-07
1.84101e-06
5.33605e-07
1.51852e-06
2.30972e-07
1.18131e-06
-7.20812e-08
9.11906e-07
-3.33553e-07
6.40873e-07
-5.57981e-07
3.74952e-07
-7.4377e-07
1.06035e-07
-8.77138e-07
-1.66172e-07
-9.62652e-07
-4.37079e-07
-9.87189e-07
-6.81868e-07
-9.82574e-07
-8.88544e-07
-9.49406e-07
-1.05658e-06
-8.77714e-07
-1.20444e-06
-7.67897e-07
-1.3498e-06
-6.25109e-07
-1.47622e-06
-4.63915e-07
-1.59155e-06
-2.87042e-07
-1.68738e-06
-8.91211e-08
-1.76224e-06
1.25828e-07
-1.79479e-06
3.70192e-07
-1.84681e-06
6.54266e-07
-1.94128e-06
9.64484e-07
-2.02517e-06
1.31196e-06
-2.0828e-06
1.65423e-06
-2.11454e-06
2.03572e-06
-2.1539e-06
2.41447e-06
-2.16571e-06
2.77645e-06
-2.18551e-06
3.10557e-06
-2.15734e-06
3.4409e-06
-2.15168e-06
3.74621e-06
-2.13052e-06
4.02306e-06
-2.12854e-06
4.25405e-06
-2.08634e-06
4.47822e-06
-2.09377e-06
4.65556e-06
-2.0699e-06
4.80045e-06
-2.08661e-06
4.95301e-06
-2.17109e-06
5.20059e-06
-2.2845e-06
5.53874e-06
-2.30708e-06
5.81382e-06
-2.13179e-06
5.90452e-06
-2.02729e-06
5.89584e-06
-2.21236e-06
6.02263e-06
-2.58632e-06
6.32062e-06
-2.77326e-06
6.44837e-06
-2.43118e-06
6.30162e-06
-2.02783e-06
6.06082e-06
-2.10278e-06
5.93799e-06
-2.36706e-06
5.99144e-06
-2.57328e-06
5.88751e-06
-2.48351e-06
5.61335e-06
-2.49604e-06
5.5334e-06
-2.97586e-06
5.56269e-06
-3.20976e-06
5.38346e-06
-2.81558e-06
4.93478e-06
-2.38943e-06
4.39327e-06
-2.25626e-06
3.74933e-06
-2.0145e-06
2.71212e-06
-1.65485e-06
1.37901e-06
-1.91251e-06
4.55063e-07
-2.7974e-06
-1.63738e-07
-2.91552e-06
-6.56517e-07
-2.52471e-06
-6.53442e-07
-3.67412e-06
-5.5716e-07
-4.97032e-06
-1.09679e-06
-4.92704e-06
-2.38278e-06
-3.69255e-06
-4.27795e-06
-1.92446e-06
-6.00912e-06
-5.43752e-07
-7.17638e-06
1.03598e-07
-8.40794e-06
8.63859e-07
-1.00194e-05
1.72883e-06
-1.1441e-05
1.66399e-06
-1.22701e-05
7.50564e-07
-1.22443e-05
-7.96303e-07
-1.1949e-05
-2.19825e-06
-1.16713e-05
-2.85304e-06
-1.07879e-05
-3.51693e-06
-9.49761e-06
-3.90693e-06
-7.62713e-06
-4.63898e-06
-5.91221e-06
-5.75725e-06
-5.11603e-06
-6.24355e-06
-4.37352e-06
-4.84146e-06
-3.25189e-06
-3.35976e-06
-3.41097e-06
7.80108e-07
-3.12549e-06
-3.16098e-07
-6.26316e-07
-6.68988e-06
1.45193e-06
-5.16915e-06
2.9056e-06
-2.43344e-06
4.41374e-06
-3.65678e-06
5.57084e-06
-3.77131e-06
6.97081e-06
-5.08558e-06
8.46583e-06
-5.89445e-06
9.70996e-06
-6.32084e-06
1.13126e-05
-6.80469e-06
1.32147e-05
-6.68099e-06
1.54102e-05
-6.25039e-06
1.72151e-05
-4.58457e-06
1.83108e-05
-3.29775e-06
1.86639e-05
-2.42856e-06
1.85319e-05
-2.00328e-06
1.80255e-05
-1.43237e-06
1.71192e-05
-1.04853e-06
1.56521e-05
-6.67781e-07
1.41876e-05
-1.08135e-06
1.33677e-05
-1.90366e-06
1.28311e-05
-2.31341e-06
1.16246e-05
-1.80327e-06
9.81748e-06
-1.72999e-06
8.2485e-06
-2.236e-06
7.04646e-06
-2.57463e-06
5.96488e-06
-2.30883e-06
4.74837e-06
-1.43722e-06
3.0233e-06
-3.20425e-07
8.86018e-07
-1.20198e-07
-1.09958e-06
-3.42303e-07
-3.26352e-06
5.99569e-07
-4.59038e-06
-2.8654e-07
-4.32425e-06
-2.42693e-06
-2.84007e-06
-1.85944e-06
-4.04669e-06
4.3774e-06
-6.87275e-06
4.80174e-06
-8.49969e-06
4.73173e-06
-1.0188e-05
6.42536e-06
-1.09048e-05
3.86143e-06
-1.12619e-05
3.88656e-06
-6.38502e-06
-1.05165e-05
6.53635e-07
-1.73462e-05
3.1763e-06
-3.8197e-06
3.62536e-06
-2.57943e-06
5.61735e-06
-9.2987e-06
9.16827e-06
-1.41268e-05
1.20647e-05
-1.19679e-05
1.44413e-05
-6.63011e-06
1.47239e-05
6.70352e-07
1.28383e-05
4.79857e-06
1.00731e-05
3.98934e-06
8.04165e-06
2.80514e-06
5.76486e-06
2.95298e-06
5.13009e-06
-1.836e-06
2.11874e-08
5.73353e-06
6.74489e-07
2.91002e-06
1.48812e-06
2.59585e-06
2.43964e-06
2.38074e-06
3.45191e-06
2.32516e-06
4.44566e-06
2.37444e-06
5.38994e-06
2.43423e-06
6.2731e-06
2.51616e-06
7.08941e-06
2.61036e-06
7.87435e-06
2.67563e-06
8.64103e-06
2.75671e-06
9.35087e-06
2.84862e-06
1.00397e-05
2.8604e-06
1.06853e-05
2.93163e-06
1.12725e-05
2.991e-06
1.18262e-05
2.91071e-06
1.2243e-05
2.86307e-06
1.24057e-05
2.95739e-06
1.23319e-05
3.13697e-06
1.19725e-05
3.41932e-06
1.13231e-05
3.74896e-06
1.05534e-05
4.14801e-06
9.79672e-06
4.43973e-06
9.10394e-06
4.62244e-06
8.44444e-06
4.84492e-06
7.84243e-06
5.00956e-06
7.25466e-06
5.14604e-06
6.67321e-06
5.28181e-06
6.12851e-06
5.32934e-06
5.61684e-06
5.35052e-06
5.13694e-06
5.34216e-06
4.69478e-06
5.269e-06
4.28091e-06
5.15543e-06
3.88418e-06
4.97968e-06
3.50864e-06
4.76439e-06
3.14538e-06
4.51536e-06
2.79204e-06
4.22901e-06
2.44341e-06
3.93814e-06
2.05666e-06
3.65128e-06
1.70102e-06
3.31696e-06
1.36363e-06
2.95666e-06
1.02636e-06
2.56794e-06
7.23541e-07
2.17861e-06
4.48332e-07
1.77642e-06
1.54433e-07
1.40701e-06
-9.50516e-08
1.04502e-06
-2.95919e-07
6.80337e-07
-4.45148e-07
3.20519e-07
-5.59214e-07
-2.25726e-08
-6.40619e-07
-3.63568e-07
-7.11753e-07
-6.7645e-07
-7.21558e-07
-1.01061e-06
-7.08958e-07
-1.26578e-06
-6.40104e-07
-1.51263e-06
-5.23777e-07
-1.72677e-06
-3.96451e-07
-1.89848e-06
-2.6149e-07
-2.0446e-06
-1.15948e-07
-2.17924e-06
4.92019e-08
-2.29966e-06
2.47033e-07
-2.40969e-06
4.58385e-07
-2.45588e-06
6.99516e-07
-2.53522e-06
9.70965e-07
-2.65634e-06
1.26429e-06
-2.75726e-06
1.57374e-06
-2.82438e-06
1.94205e-06
-2.90915e-06
2.3151e-06
-2.95218e-06
2.68716e-06
-2.95999e-06
3.06399e-06
-2.98015e-06
3.43607e-06
-2.94357e-06
3.79562e-06
-2.92227e-06
4.10231e-06
-2.8479e-06
4.32194e-06
-2.75653e-06
4.48621e-06
-2.65807e-06
4.62669e-06
-2.6443e-06
4.76874e-06
-2.62604e-06
4.94104e-06
-2.6845e-06
5.12983e-06
-2.80454e-06
5.31974e-06
-2.94387e-06
5.60312e-06
-3.07886e-06
6.03094e-06
-3.06926e-06
6.41248e-06
-2.98944e-06
6.64696e-06
-3.14459e-06
6.68514e-06
-3.36476e-06
6.62729e-06
-3.40136e-06
6.49238e-06
-2.95284e-06
6.09424e-06
-2.40044e-06
5.71818e-06
-2.61924e-06
5.6931e-06
-3.26004e-06
5.81255e-06
-3.61449e-06
5.80682e-06
-3.45199e-06
5.515e-06
-3.28364e-06
5.32245e-06
-3.92518e-06
5.49009e-06
-4.49785e-06
5.65955e-06
-4.12174e-06
5.64549e-06
-3.60082e-06
5.50608e-06
-3.4098e-06
5.25652e-06
-3.09989e-06
4.84215e-06
-2.64459e-06
4.43593e-06
-2.95033e-06
3.53006e-06
-3.33459e-06
2.33426e-06
-3.19487e-06
1.87718e-06
-3.51948e-06
1.70483e-06
-4.89066e-06
1.01599e-06
-5.65945e-06
-4.90063e-07
-4.77148e-06
-2.57461e-06
-2.85573e-06
-4.84617e-06
-8.66161e-07
-6.59673e-06
6.83945e-09
-7.73436e-06
1.32582e-07
-8.82715e-06
9.26645e-07
-9.84489e-06
1.78483e-06
-1.07091e-05
1.63987e-06
-1.11699e-05
4.38986e-07
-1.12204e-05
-1.26083e-06
-1.14521e-05
-2.25201e-06
-1.15082e-05
-3.09991e-06
-1.11275e-05
-4.44847e-06
-1.04561e-05
-5.16872e-06
-9.20832e-06
-6.22559e-06
-8.16555e-06
-7.19912e-06
-7.08723e-06
-7.87503e-06
-4.62575e-06
-7.73711e-06
-3.08829e-06
-5.19562e-06
-3.49623e-06