/*--------------------------------*- C++ -*----------------------------------*\
| =========                 |                                                 |
| \\      /  F ield         | OpenFOAM: The Open Source CFD Toolbox           |
|  \\    /   O peration     | Version:  dev                                   |
|   \\  /    A nd           | Web:      http://www.openfoam.org               |
|    \\/     M anipulation  |                                                 |
\*---------------------------------------------------------------------------*/
FoamFile
{
    version     2.0;
    format      ascii;
    class       surfaceScalarField;
    object      phi_0;
    location    "9.158";
}
// * * * * * * * * * * * * * * * * * * * * * * * * * * * * * * * * * * * * * //

dimensions      [1 0 -1 0 0 0 0];

internalField   nonuniform List<scalar> 
24170
(
2.02279e-06
1.4973e-06
1.21322e-06
9.24678e-07
8.2111e-07
4.864e-07
6.33616e-07
2.65665e-07
4.30804e-07
2.60404e-07
2.91345e-07
1.82537e-07
4.882e-08
2.68501e-07
-1.22072e-07
1.85832e-07
-4.19861e-07
3.01459e-07
-6.82366e-07
2.56422e-07
-1.0153e-06
3.25366e-07
-1.3074e-06
2.86432e-07
-1.84066e-06
5.18638e-07
-1.98805e-06
1.43561e-07
-3.18781e-06
1.19856e-06
-3.01867e-06
-1.70648e-07
-4.72573e-06
1.74459e-06
2.07611e-06
-6.77765e-06
3.77994e-06
1.47859e-06
3.19959e-06
1.59965e-06
2.76794e-06
9.95358e-07
2.38863e-06
7.07126e-07
2.1113e-06
5.81957e-07
1.85585e-06
4.65345e-07
1.60025e-06
5.36282e-07
1.36304e-06
4.2181e-07
1.0623e-06
5.91283e-07
8.94856e-07
4.03114e-07
5.21639e-07
6.77096e-07
3.6073e-07
4.24824e-07
-2.04582e-07
1.06117e-06
-2.07174e-07
1.25631e-07
-1.24772e-06
2.23379e-06
-5.93856e-07
-8.32873e-07
-4.56917e-06
5.75772e-06
4.24938e-06
-6.68858e-06
4.48735e-06
1.19642e-06
4.3447e-06
1.844e-06
4.1901e-06
1.23414e-06
3.9141e-06
1.05085e-06
3.64834e-06
8.96382e-07
3.37056e-06
7.72258e-07
3.08349e-06
8.36744e-07
2.89895e-06
6.04347e-07
2.45891e-06
1.01845e-06
2.5177e-06
3.22105e-07
1.80183e-06
1.36821e-06
2.11993e-06
8.02672e-08
9.47582e-07
2.20798e-06
1.34026e-06
-2.89182e-07
-4.03581e-07
3.96975e-06
-3.37373e-07
-9.08129e-07
-1.51999e-06
6.95055e-06
7.00109e-06
-4.19496e-06
4.64289e-06
1.327e-06
5.14593e-06
1.45384e-06
5.11038e-06
1.36358e-06
5.20284e-06
1.03312e-06
4.88849e-06
1.2654e-06
4.92597e-06
7.66635e-07
4.47362e-06
1.30335e-06
4.5382e-06
5.38104e-07
3.90115e-06
1.64024e-06
3.99046e-06
2.08239e-07
3.14354e-06
2.18645e-06
3.23367e-06
-4.13395e-08
2.16149e-06
3.25025e-06
2.21146e-06
-3.65678e-07
9.14179e-07
5.25522e-06
6.88141e-07
-6.95504e-07
1.2164e-07
7.53951e-06
6.82687e-06
3.34149e-07
4.97991e-06
1.61731e-06
5.7585e-06
8.01529e-07
5.57209e-06
1.65472e-06
5.95561e-06
7.32061e-07
5.5539e-06
1.72801e-06
5.77182e-06
5.83774e-07
5.24747e-06
1.84342e-06
5.40236e-06
3.81409e-07
4.77695e-06
2.24766e-06
4.7166e-06
2.41201e-07
3.99535e-06
2.87384e-06
3.85577e-06
6.30181e-08
3.26224e-06
3.80631e-06
2.54021e-06
3.25479e-07
2.33189e-06
5.43481e-06
8.79533e-07
7.39411e-07
8.89457e-07
7.54802e-06
6.45706e-06
1.25359e-06
5.57281e-06
1.97971e-06
5.9143e-06
6.01398e-07
5.68024e-06
2.00499e-06
6.09995e-06
4.03909e-07
5.77966e-06
2.11571e-06
5.9367e-06
4.65941e-07
5.52368e-06
2.27435e-06
5.59016e-06
3.11578e-07
5.15558e-06
2.66238e-06
4.9625e-06
4.03973e-07
4.54604e-06
3.25271e-06
4.17923e-06
3.8858e-07
3.95893e-06
3.98245e-06
3.00843e-06
1.23665e-06
3.24555e-06
5.15871e-06
1.45324e-06
2.51088e-06
2.34641e-06
6.63046e-06
6.78204e-06
2.00874e-06
6.25627e-06
2.21612e-06
6.50235e-06
5.12905e-07
6.30812e-06
2.32906e-06
6.65083e-06
1.63406e-07
6.42414e-06
2.41552e-06
6.50433e-06
4.30525e-07
6.18398e-06
2.61364e-06
6.07384e-06
4.16885e-07
5.84576e-06
2.86966e-06
5.49351e-06
7.21848e-07
5.39057e-06
3.31222e-06
4.6624e-06
1.06783e-06
4.69841e-06
3.89454e-06
3.66851e-06
2.21747e-06
3.87999e-06
4.90397e-06
2.52568e-06
3.83148e-06
3.00476e-06
6.11697e-06
7.0763e-06
2.6954e-06
4.85018e-06
2.32116e-06
5.11273e-06
3.74436e-07
5.02033e-06
2.52366e-06
5.18444e-06
8.00248e-08
5.09368e-06
2.56408e-06
5.09571e-06
4.63463e-07
5.004e-06
2.71971e-06
4.78559e-06
6.31667e-07
4.76484e-06
2.87363e-06
4.40552e-06
1.05301e-06
4.3937e-06
3.28733e-06
3.79992e-06
1.62032e-06
3.83171e-06
3.81911e-06
3.12922e-06
2.87853e-06
3.20509e-06
4.79086e-06
2.44506e-06
4.55821e-06
2.56732e-06
5.96682e-06
6.96696e-06
2.65558e-06
5.64722e-06
2.50373e-06
5.96081e-06
2.07856e-07
5.94423e-06
2.66073e-06
5.94858e-06
1.70718e-07
5.98683e-06
2.59339e-06
5.8319e-06
6.59333e-07
5.85662e-06
2.71173e-06
5.5424e-06
9.41489e-07
5.52776e-06
2.86732e-06
5.0914e-06
1.45504e-06
5.07267e-06
3.26063e-06
4.468e-06
2.17407e-06
4.45457e-06
3.77792e-06
3.82815e-06
3.45323e-06
3.82052e-06
4.74825e-06
3.27384e-06
5.06041e-06
3.31474e-06
5.88414e-06
6.83285e-06
3.4158e-06
6.60916e-06
2.21865e-06
6.84689e-06
1.43131e-07
7.10445e-06
2.54583e-06
7.00869e-06
3.78306e-07
7.20073e-06
2.48152e-06
6.96796e-06
9.40484e-07
7.02824e-06
2.67086e-06
6.61502e-06
1.34865e-06
6.57115e-06
2.88577e-06
6.06003e-06
1.92265e-06
6.00771e-06
3.25767e-06
5.41774e-06
2.70047e-06
5.33835e-06
3.78863e-06
4.80692e-06
3.91795e-06
4.69454e-06
4.79423e-06
4.36238e-06
5.33012e-06
4.30933e-06
5.87787e-06
6.66982e-06
4.42122e-06
7.99397e-06
2.26241e-06
7.83842e-06
5.04207e-07
8.1507e-06
2.40284e-06
7.93657e-06
7.25837e-07
8.17321e-06
2.33981e-06
7.90901e-06
1.26159e-06
8.05044e-06
2.55274e-06
7.68129e-06
1.70968e-06
7.7009e-06
2.83254e-06
7.24853e-06
2.32085e-06
7.19289e-06
3.24567e-06
6.64657e-06
3.16611e-06
6.46808e-06
3.88146e-06
6.03949e-06
4.25934e-06
5.85485e-06
4.89085e-06
5.63412e-06
5.46593e-06
5.54318e-06
5.88698e-06
6.47556e-06
5.6633e-06
9.36685e-06
1.96416e-06
9.32282e-06
7.93117e-07
9.75373e-06
2.17384e-06
9.497e-06
1.14108e-06
9.7344e-06
2.21493e-06
9.46761e-06
1.59638e-06
9.62059e-06
2.4251e-06
9.24769e-06
2.07071e-06
9.25593e-06
2.78315e-06
8.82736e-06
2.68152e-06
8.67569e-06
3.31138e-06
8.20058e-06
3.5399e-06
7.96945e-06
4.00227e-06
7.63556e-06
4.47733e-06
7.47787e-06
4.93318e-06
7.35451e-06
5.47215e-06
7.26586e-06
5.86338e-06
6.2817e-06
7.35282e-06
1.08052e-05
1.82497e-06
1.07115e-05
1.1819e-06
1.12327e-05
1.89492e-06
1.11329e-05
1.43059e-06
1.14716e-05
2.00981e-06
1.13243e-05
1.82313e-06
1.14686e-05
2.31011e-06
1.11414e-05
2.38282e-06
1.10139e-05
2.85621e-06
1.05588e-05
3.05093e-06
1.03191e-05
3.44237e-06
9.91907e-06
3.8098e-06
9.63317e-06
4.14418e-06
9.3956e-06
4.56258e-06
9.21188e-06
4.96251e-06
9.15172e-06
5.37487e-06
9.14942e-06
5.71227e-06
6.02879e-06
9.2495e-06
1.23981e-05
1.44843e-06
1.25599e-05
1.37895e-06
1.31215e-05
1.62361e-06
1.31527e-05
1.62558e-06
1.34293e-05
1.89185e-06
1.33626e-05
1.98325e-06
1.34295e-05
2.27664e-06
1.32684e-05
2.52317e-06
1.31715e-05
2.88454e-06
1.28955e-05
3.21935e-06
1.2632e-05
3.56519e-06
1.23328e-05
3.94243e-06
1.2023e-05
4.26748e-06
1.17811e-05
4.60565e-06
1.15965e-05
4.94122e-06
1.15033e-05
5.25523e-06
1.14746e-05
5.52976e-06
5.77231e-06
1.15203e-05
1.48701e-05
1.19525e-06
1.51848e-05
1.49604e-06
1.55189e-05
1.63722e-06
1.56499e-05
1.76745e-06
1.57882e-05
1.94566e-06
1.57605e-05
2.12425e-06
1.5723e-05
2.35434e-06
1.56016e-05
2.61744e-06
1.54615e-05
2.93752e-06
1.52902e-05
3.25328e-06
1.51042e-05
3.57075e-06
1.49197e-05
3.91276e-06
1.47346e-05
4.20975e-06
1.4584e-05
4.49408e-06
1.4485e-05
4.76471e-06
1.44554e-05
5.00119e-06
1.44773e-05
5.21923e-06
5.37075e-06
1.45895e-05
1.67682e-05
1.09856e-06
1.72256e-05
1.54915e-06
1.77757e-05
1.50317e-06
1.82395e-05
1.63235e-06
1.85871e-05
1.83142e-06
1.87795e-05
2.07088e-06
1.8841e-05
2.34235e-06
1.88227e-05
2.60139e-06
1.87695e-05
2.88129e-06
1.86979e-05
3.14953e-06
1.86242e-05
3.41258e-06
1.8579e-05
3.68076e-06
1.85317e-05
3.9426e-06
1.8493e-05
4.19073e-06
1.84762e-05
4.41827e-06
1.84624e-05
4.63844e-06
1.84752e-05
4.82094e-06
4.9415e-06
1.85165e-05
1.96145e-05
9.07804e-07
2.04489e-05
1.33838e-06
2.10973e-05
1.36377e-06
2.16198e-05
1.51422e-06
2.20368e-05
1.70481e-06
2.23697e-05
1.91334e-06
2.2628e-05
2.14834e-06
2.28129e-05
2.37619e-06
2.2938e-05
2.6215e-06
2.30021e-05
2.86649e-06
2.30137e-05
3.10946e-06
2.29971e-05
3.34551e-06
2.29647e-05
3.57322e-06
2.29292e-05
3.78461e-06
2.28967e-05
3.97915e-06
2.28856e-05
4.15569e-06
2.29034e-05
4.29361e-06
4.39764e-06
2.29287e-05
2.03493e-05
8.94427e-07
2.13092e-05
1.04366e-06
2.20377e-05
1.18161e-06
2.25716e-05
1.41688e-06
2.29853e-05
1.60962e-06
2.33368e-05
1.76035e-06
2.36532e-05
1.91283e-06
2.39086e-05
2.08856e-06
2.41167e-05
2.27725e-06
2.42609e-05
2.49267e-06
2.43402e-05
2.71871e-06
2.43823e-05
2.92154e-06
2.43786e-05
3.13643e-06
2.43527e-05
3.3254e-06
2.43124e-05
3.49698e-06
2.42663e-05
3.65054e-06
2.42324e-05
3.75768e-06
3.84617e-06
2.42e-05
1.82815e-05
4.39879e-07
1.91309e-05
8.13954e-07
1.98561e-05
9.7259e-07
2.05028e-05
1.18881e-06
2.1063e-05
1.36055e-06
2.15229e-05
1.49974e-06
2.18899e-05
1.63294e-06
2.21461e-05
1.81314e-06
2.23157e-05
1.98984e-06
2.2411e-05
2.18891e-06
2.2453e-05
2.39043e-06
2.24726e-05
2.54739e-06
2.24807e-05
2.71639e-06
2.24839e-05
2.86332e-06
2.24873e-05
2.99677e-06
2.25057e-05
3.10861e-06
2.25202e-05
3.19682e-06
3.25533e-06
2.25501e-05
1.64574e-05
5.00902e-07
1.71019e-05
7.71019e-07
1.7807e-05
7.59404e-07
1.84689e-05
9.26822e-07
1.90357e-05
1.09275e-06
1.95102e-05
1.22176e-06
1.98997e-05
1.33574e-06
2.02239e-05
1.48257e-06
2.04711e-05
1.6435e-06
2.06444e-05
1.83295e-06
2.0749e-05
2.02951e-06
2.07766e-05
2.19752e-06
2.07727e-05
2.34424e-06
2.07427e-05
2.47054e-06
2.07039e-05
2.57585e-06
2.06542e-05
2.66893e-06
2.06226e-05
2.71616e-06
2.74631e-06
2.06042e-05
1.4699e-05
4.29605e-07
1.54736e-05
5.54279e-07
1.61695e-05
5.23824e-07
1.67885e-05
6.85137e-07
1.73115e-05
8.55947e-07
1.77224e-05
1.0051e-06
1.80261e-05
1.12882e-06
1.82958e-05
1.21828e-06
1.8512e-05
1.34559e-06
1.8711e-05
1.47308e-06
1.88754e-05
1.63509e-06
1.89748e-05
1.80691e-06
1.90462e-05
1.93017e-06
1.90827e-05
2.04737e-06
1.90968e-05
2.13974e-06
1.91078e-05
2.20679e-06
1.90841e-05
2.26795e-06
2.27989e-06
1.9062e-05
1.30601e-05
4.21339e-07
1.3794e-05
3.3507e-07
1.44521e-05
2.92102e-07
1.50252e-05
4.62913e-07
1.5523e-05
6.27559e-07
1.59624e-05
7.51177e-07
1.63472e-05
8.41445e-07
1.66577e-05
9.20867e-07
1.69174e-05
1.01965e-06
1.71004e-05
1.15013e-06
1.7229e-05
1.30223e-06
1.73274e-05
1.44706e-06
1.73719e-05
1.57574e-06
1.73983e-05
1.67039e-06
1.74011e-05
1.75229e-06
1.73907e-05
1.80607e-06
1.73884e-05
1.83814e-06
1.86184e-06
1.73593e-05
1.19464e-05
3.52081e-07
1.24772e-05
2.7157e-07
1.30331e-05
1.26709e-07
1.36134e-05
2.06661e-07
1.41441e-05
3.47804e-07
1.45843e-05
4.83534e-07
1.49204e-05
5.99973e-07
1.51693e-05
6.90163e-07
1.53655e-05
7.68917e-07
1.55143e-05
8.80363e-07
1.56481e-05
9.87698e-07
1.57443e-05
1.11725e-06
1.57979e-05
1.24374e-06
1.58203e-05
1.33132e-06
1.58259e-05
1.39838e-06
1.58135e-05
1.44554e-06
1.57892e-05
1.46994e-06
1.48049e-06
1.57642e-05
1.03204e-05
1.39392e-07
1.10407e-05
-2.92084e-08
1.16852e-05
-1.6149e-07
1.22901e-05
-1.01374e-07
1.28375e-05
3.14341e-08
1.32918e-05
1.89937e-07
1.36519e-05
3.31015e-07
1.39083e-05
4.54852e-07
1.4069e-05
5.63686e-07
1.41839e-05
6.601e-07
1.42595e-05
7.51137e-07
1.43214e-05
8.47002e-07
1.43775e-05
9.37193e-07
1.44207e-05
1.0032e-06
1.44519e-05
1.05378e-06
1.44658e-05
1.0952e-06
1.44654e-05
1.11669e-06
1.12953e-06
1.44491e-05
9.42222e-06
2.13317e-08
1.00546e-05
-2.8257e-07
1.06106e-05
-3.95594e-07
1.10641e-05
-2.85094e-07
1.14433e-05
-1.36249e-07
1.17976e-05
-1.45688e-08
1.2128e-05
8.60287e-08
1.24174e-05
1.87849e-07
1.26614e-05
2.81999e-07
1.28534e-05
3.74738e-07
1.29964e-05
4.65311e-07
1.31017e-05
5.54985e-07
1.31713e-05
6.43778e-07
1.31993e-05
7.19739e-07
1.31913e-05
7.80583e-07
1.31633e-05
8.21464e-07
1.31133e-05
8.4861e-07
8.56675e-07
1.30562e-05
8.33873e-06
-1.83079e-07
8.93061e-06
-5.33017e-07
9.48197e-06
-6.55249e-07
9.9589e-06
-5.17691e-07
1.03826e-05
-3.68421e-07
1.0744e-05
-2.40188e-07
1.10246e-05
-1.15988e-07
1.12338e-05
7.38919e-10
1.13819e-05
1.0202e-07
1.14834e-05
1.91503e-07
1.15557e-05
2.66357e-07
1.16093e-05
3.3547e-07
1.16462e-05
4.0699e-07
1.16665e-05
4.71145e-07
1.16751e-05
5.20311e-07
1.16672e-05
5.58626e-07
1.16468e-05
5.8372e-07
5.88965e-07
1.16181e-05
7.44319e-06
-5.76041e-07
8.25305e-06
-1.03861e-06
8.80824e-06
-9.48301e-07
9.19635e-06
-6.85202e-07
9.47316e-06
-4.72334e-07
9.68137e-06
-3.25833e-07
9.84167e-06
-2.04986e-07
9.96563e-06
-1.02347e-07
1.00544e-05
-1.40238e-08
1.01062e-05
6.78852e-08
1.01275e-05
1.32916e-07
1.01239e-05
1.91334e-07
1.01076e-05
2.45142e-07
1.00821e-05
2.92644e-07
1.00468e-05
3.3045e-07
1.00045e-05
3.58692e-07
9.95538e-06
3.7718e-07
3.86704e-07
9.89196e-06
6.76693e-06
-1.00635e-06
7.36722e-06
-1.36763e-06
7.69091e-06
-1.03796e-06
7.89857e-06
-6.95348e-07
8.01598e-06
-4.34336e-07
8.06918e-06
-2.68817e-07
8.08439e-06
-1.55601e-07
8.07607e-06
-7.4539e-08
8.05275e-06
-1.43988e-08
8.01357e-06
4.34061e-08
7.95639e-06
9.0329e-08
7.88704e-06
1.29046e-07
7.80854e-06
1.64459e-07
7.72474e-06
1.93957e-07
7.63674e-06
2.1667e-07
7.5423e-06
2.35794e-07
7.44486e-06
2.45148e-07
2.59745e-07
7.33323e-06
6.00146e-06
-1.19448e-06
5.99761e-06
-1.11925e-06
5.84194e-06
-6.72251e-07
5.70522e-06
-3.8178e-07
5.5952e-06
-1.85209e-07
5.49996e-06
-7.4654e-08
5.41953e-06
-1.69931e-08
5.34705e-06
1.58011e-08
5.27973e-06
3.22297e-08
5.21163e-06
5.48794e-08
5.14379e-06
6.89753e-08
5.0738e-06
8.10538e-08
4.99971e-06
9.57574e-08
4.92314e-06
1.06845e-07
4.84188e-06
1.17061e-07
4.75563e-06
1.27437e-07
4.67086e-06
1.24695e-07
1.49168e-07
4.56836e-06
3.99287e-06
3.10892e-06
2.64063e-06
2.43018e-06
2.3807e-06
2.40463e-06
2.44879e-06
2.48881e-06
2.51001e-06
2.52114e-06
2.51678e-06
2.4984e-06
2.47219e-06
2.43804e-06
2.3984e-06
2.3565e-06
2.30196e-06
2.26466e-06
6.90354e-07
6.3647e-07
1.47378e-06
5.88064e-07
2.27216e-06
5.89616e-07
3.06889e-06
5.94951e-07
3.867e-06
5.91548e-07
4.66894e-06
5.82693e-07
5.46782e-06
5.77829e-07
6.25324e-06
5.80609e-07
7.01813e-06
5.8827e-07
7.76309e-06
5.92705e-07
8.48393e-06
5.9775e-07
9.17597e-06
6.04393e-07
9.84198e-06
6.04916e-07
1.04794e-05
6.05107e-07
1.1098e-05
5.96831e-07
1.17143e-05
5.75153e-07
1.23367e-05
5.40332e-07
1.29301e-05
5.28581e-07
1.34694e-05
5.36173e-07
1.39651e-05
5.35624e-07
1.43912e-05
5.72727e-07
1.47974e-05
5.6021e-07
1.52175e-05
4.95418e-07
1.56218e-05
4.50063e-07
1.59909e-05
4.2871e-07
1.63059e-05
4.43633e-07
1.64997e-05
5.25687e-07
1.65328e-05
6.19093e-07
1.63867e-05
7.19037e-07
1.60042e-05
8.85966e-07
1.53099e-05
1.16811e-06
1.43672e-05
1.43174e-06
1.32779e-05
1.57067e-06
1.21257e-05
1.58044e-06
1.09796e-05
1.5207e-06
9.85707e-06
1.45101e-06
8.76159e-06
1.37493e-06
7.70602e-06
1.28737e-06
6.6945e-06
1.19891e-06
5.74549e-06
1.09337e-06
4.85543e-06
9.93075e-07
4.0308e-06
8.8807e-07
3.28432e-06
7.72367e-07
2.60244e-06
6.68617e-07
2.00503e-06
5.50867e-07
1.47936e-06
4.48057e-07
1.01175e-06
3.60966e-07
6.1129e-07
2.66787e-07
2.68759e-07
1.83901e-07
-9.16914e-09
9.64501e-08
-2.29396e-07
1.80673e-08
-3.95467e-07
-5.45388e-08
-5.24845e-07
-1.07369e-07
-6.28385e-07
-1.47008e-07
-7.15814e-07
-1.74824e-07
-7.84339e-07
-2.03529e-07
-8.24658e-07
-2.38959e-07
-8.30316e-07
-2.78715e-07
-8.13712e-07
-3.04367e-07
-7.92101e-07
-3.11112e-07
-7.67983e-07
-3.13722e-07
-7.29666e-07
-3.2647e-07
-6.77739e-07
-3.37319e-07
-6.11632e-07
-3.4774e-07
-5.27197e-07
-3.61636e-07
-4.48329e-07
-3.51124e-07
-3.54136e-07
-3.61024e-07
-2.42638e-07
-3.72892e-07
-1.32855e-07
-3.66124e-07
8.18556e-10
-3.85362e-07
1.46672e-07
-3.93802e-07
3.10495e-07
-4.09133e-07
4.86545e-07
-4.20073e-07
6.56171e-07
-4.1395e-07
8.40618e-07
-4.30969e-07
1.02216e-06
-4.32439e-07
1.18234e-06
-4.18114e-07
1.29792e-06
-3.83517e-07
1.33388e-06
-3.16753e-07
1.30207e-06
-2.64447e-07
1.27427e-06
-2.86185e-07
1.31853e-06
-3.785e-07
1.37736e-06
-4.16447e-07
1.36488e-06
-3.71306e-07
1.21899e-06
-2.65469e-07
9.8471e-07
-2.06265e-07
7.66057e-07
-2.54744e-07
5.45514e-07
-2.87242e-07
2.84717e-07
-2.81261e-07
2.34232e-08
-3.1624e-07
-2.40003e-07
-3.50777e-07
-4.44892e-07
-4.47201e-07
-6.04856e-07
-5.28556e-07
-8.50524e-07
-4.74243e-07
-1.22501e-06
-3.75884e-07
-1.68628e-06
-3.19856e-07
-2.28561e-06
-2.07748e-07
-2.9152e-06
-1.98322e-07
-3.40091e-06
-3.56296e-07
-3.7726e-06
-4.83529e-07
-4.23428e-06
-4.0328e-07
-4.84446e-06
-2.58208e-07
-5.23587e-06
-4.7157e-07
-4.9233e-06
-1.14361e-06
-3.93553e-06
-1.78712e-06
-2.90414e-06
-1.78529e-06
-2.01005e-06
-1.59403e-06
-1.69118e-06
-9.66315e-07
-2.36023e-06
7.90294e-08
-3.61039e-06
6.98898e-07
-4.78744e-06
6.8423e-07
-6.0246e-06
8.25754e-07
-7.33723e-06
9.54749e-07
-8.49848e-06
8.43101e-07
-8.94865e-06
2.1819e-07
-8.72196e-06
-3.59173e-07
-8.46967e-06
-3.28089e-07
-8.4163e-06
-8.5835e-08
-8.11639e-06
-2.87434e-07
-6.58786e-06
-1.44772e-06
-3.67828e-06
-2.72197e-06
-9.58304e-07
-2.4724e-06
-6.30598e-08
-6.31721e-07
-1.01969e-06
1.26861e-06
-1.4377e-06
7.61244e-07
-7.57223e-08
-1.0149e-06
1.15176e-06
-8.63612e-07
1.5359e-06
-1.88187e-08
2.45882e-06
-5.79768e-07
3.33805e-06
-5.74157e-07
4.81156e-06
-1.22652e-06
6.6387e-06
-1.66849e-06
8.80869e-06
-2.10026e-06
1.08819e-05
-2.14665e-06
1.22839e-05
-1.66099e-06
1.2803e-05
-9.29621e-07
1.24587e-05
-1.42732e-07
1.19877e-05
-1.03462e-07
1.14714e-05
-1.95001e-07
1.09693e-05
-3.75755e-07
1.03758e-05
-4.51353e-07
9.61869e-06
-4.55819e-07
8.64218e-06
-3.98744e-07
7.55129e-06
-4.19044e-07
6.47355e-06
-5.40412e-07
5.54734e-06
-7.71414e-07
4.68898e-06
-9.16169e-07
4.03644e-06
-1.18336e-06
3.32185e-06
-1.12099e-06
2.52587e-06
-9.98457e-07
1.54811e-06
-7.4545e-07
3.92553e-07
-4.42789e-07
-7.86649e-07
-2.8346e-07
-1.64032e-06
-4.72e-07
-2.14786e-06
-6.89722e-07
-2.64923e-06
-5.99219e-07
-3.01116e-06
-6.53143e-07
-3.20498e-06
-6.74329e-07
-4.1325e-06
2.81992e-07
-5.77917e-06
1.11063e-06
-6.45672e-06
1.76272e-07
-7.19512e-06
4.46594e-07
-8.66026e-06
1.3869e-06
-1.11985e-05
2.34652e-06
-1.49886e-05
3.2731e-06
-1.31562e-05
-1.96611e-06
-7.59688e-06
-5.25687e-06
-6.95725e-06
-6.1306e-07
-6.39732e-06
-5.50434e-07
-3.31891e-06
-3.00172e-06
1.29947e-06
-4.46679e-06
4.93443e-06
-3.5466e-06
5.09765e-06
-7.29654e-09
2.91457e-06
2.53654e-06
1.24465e-06
2.14613e-06
1.10122e-06
6.03408e-07
4.57493e-07
1.10717e-06
3.66623e-07
8.10006e-07
1.36515e-06
1.36681e-07
2.29289e-06
2.92746e-07
6.48334e-07
1.30406e-06
1.42455e-06
1.1785e-06
2.24873e-06
1.1554e-06
3.08125e-06
1.1597e-06
3.91418e-06
1.15603e-06
4.75021e-06
1.14155e-06
5.58069e-06
1.13765e-06
6.39143e-06
1.15221e-06
7.17041e-06
1.18146e-06
7.91808e-06
1.20559e-06
8.64285e-06
1.21782e-06
9.34018e-06
1.23271e-06
1.00039e-05
1.24531e-06
1.06551e-05
1.23229e-06
1.13187e-05
1.18159e-06
1.19639e-05
1.1498e-06
1.2554e-05
1.13582e-06
1.30853e-05
1.13973e-06
1.36408e-05
1.07006e-06
1.42439e-05
9.59643e-07
1.47744e-05
1.04105e-06
1.5134e-05
1.16602e-06
1.52528e-05
1.24157e-06
1.50816e-05
1.3618e-06
1.46351e-05
1.55873e-06
1.39587e-05
1.84852e-06
1.30218e-05
2.19261e-06
1.17928e-05
2.49917e-06
1.04423e-05
2.68903e-06
9.147e-06
2.79112e-06
8.00077e-06
2.88503e-06
7.00093e-06
2.95549e-06
6.09006e-06
2.95804e-06
5.16835e-06
2.92199e-06
4.2416e-06
2.81208e-06
3.3542e-06
2.65397e-06
2.50559e-06
2.49024e-06
1.70766e-06
2.30563e-06
9.53817e-07
2.1285e-06
2.45486e-07
1.93468e-06
-3.89087e-07
1.72031e-06
-9.38239e-07
1.49169e-06
-1.42011e-06
1.27228e-06
-1.81193e-06
1.04356e-06
-2.1462e-06
8.34963e-07
-2.44726e-06
6.67692e-07
-2.69581e-06
4.99219e-07
-2.89281e-06
3.26647e-07
-3.03196e-06
1.61761e-07
-3.11614e-06
-2.76696e-09
-3.15297e-06
-1.48706e-07
-3.14583e-06
-2.83203e-07
-3.10852e-06
-3.81641e-07
-3.05107e-06
-4.54201e-07
-2.95878e-06
-5.27349e-07
-2.84109e-06
-5.8936e-07
-2.69581e-06
-6.58819e-07
-2.53779e-06
-7.16272e-07
-2.37365e-06
-7.51307e-07
-2.21876e-06
-7.50421e-07
-2.05885e-06
-7.57617e-07
-1.8684e-06
-7.98459e-07
-1.63965e-06
-8.44517e-07
-1.40634e-06
-8.56191e-07
-1.15099e-06
-8.8828e-07
-8.91697e-07
-8.77181e-07
-6.51994e-07
-8.62446e-07
-3.96277e-07
-8.85429e-07
-1.25162e-07
-8.89346e-07
1.10561e-07
-8.69262e-07
3.52512e-07
-8.80619e-07
5.96403e-07
-8.95682e-07
8.15581e-07
-8.81131e-07
1.03129e-06
-8.71907e-07
1.22542e-06
-8.69001e-07
1.43298e-06
-8.87097e-07
1.69396e-06
-9.30766e-07
1.96661e-06
-9.15193e-07
2.18716e-06
-8.08936e-07
2.26638e-06
-6.35117e-07
2.29208e-06
-6.2661e-07
2.41993e-06
-8.40211e-07
2.70868e-06
-1.05487e-06
3.01237e-06
-1.04895e-06
3.14357e-06
-8.04294e-07
3.06184e-06
-5.64955e-07
2.96814e-06
-6.38623e-07
2.86772e-06
-7.04086e-07
2.69365e-06
-6.62453e-07
2.43437e-06
-6.50484e-07
2.18886e-06
-7.3394e-07
2.04257e-06
-9.65841e-07
1.85801e-06
-1.05521e-06
1.4264e-06
-7.91625e-07
8.34315e-07
-5.57268e-07
1.92301e-07
-4.82347e-07
-5.41339e-07
-3.11327e-07
-1.32402e-06
-2.80608e-07
-1.7549e-06
-8.09214e-07
-1.84817e-06
-1.27514e-06
-2.02616e-06
-1.09823e-06
-2.57185e-06
-6.03561e-07
-2.69295e-06
-1.26495e-06
-2.23312e-06
-2.50763e-06
-1.71603e-06
-3.14877e-06
-1.50216e-06
-2.76524e-06
-2.10636e-06
-1.69752e-06
-3.55855e-06
-1.91677e-07
-5.07092e-06
9.4065e-07
-6.46637e-06
1.51809e-06
-8.18732e-06
1.91795e-06
-9.82693e-06
2.00374e-06
-1.09358e-05
1.63311e-06
-1.12359e-05
8.39656e-07
-1.07817e-05
-4.23344e-07
-1.01176e-05
-1.19581e-06
-9.35883e-06
-1.26494e-06
-8.34938e-06
-1.2167e-06
-7.07635e-06
-1.55186e-06
-5.35332e-06
-3.00253e-06
-3.4507e-06
-4.35172e-06
-2.86354e-06
-2.84435e-06
-2.26762e-06
-1.02107e-06
-2.45806e-06
1.72921e-06
-2.50744e-06
1.09916e-06
3.05517e-08
-3.19376e-06
1.64558e-06
-2.11534e-06
1.8637e-06
1.18019e-07
2.78645e-06
-1.16373e-06
4.03535e-06
-1.55054e-06
5.60382e-06
-2.59927e-06
7.34388e-06
-3.30957e-06
9.39448e-06
-4.08285e-06
1.17172e-05
-4.41594e-06
1.39977e-05
-4.03537e-06
1.58705e-05
-3.15396e-06
1.68045e-05
-1.66179e-06
1.68194e-05
-9.01474e-07
1.63653e-05
-6.67865e-07
1.56545e-05
-6.88299e-07
1.46214e-05
-5.29364e-07
1.35e-05
-5.55421e-07
1.23739e-05
-6.80414e-07
1.13015e-05
-9.97561e-07
1.00194e-05
-1.05236e-06
8.4843e-06
-1.06024e-06
6.9398e-06
-1.22447e-06
5.72168e-06
-1.88784e-06
4.83808e-06
-2.21494e-06
3.96128e-06
-2.11483e-06
2.92675e-06
-1.65809e-06
1.53869e-06
-9.29438e-07
-3.82247e-08
-4.28469e-07
-1.266e-06
-8.30881e-07
-2.2361e-06
-1.18605e-06
-3.49714e-06
-7.13677e-07
-4.39392e-06
-1.06072e-06
-4.26482e-06
-1.91077e-06
-4.38888e-06
-3.29494e-07
-6.72387e-06
2.8853e-06
-8.74324e-06
1.6329e-06
-1.05769e-05
2.16953e-06
-1.31114e-05
3.62065e-06
-1.48903e-05
3.0703e-06
-1.60626e-05
3.97284e-06
-1.09227e-05
-6.50387e-06
-4.92046e-06
-1.04819e-05
-4.51053e-06
-1.16827e-06
-3.55959e-06
-1.51295e-06
-6.79049e-07
-6.0425e-06
3.70428e-06
-8.87911e-06
8.36072e-06
-7.98922e-06
1.07854e-05
-2.59138e-06
9.8011e-06
3.3354e-06
7.34714e-06
4.86033e-06
5.36509e-06
3.06608e-06
3.92118e-06
2.93282e-06
2.70025e-06
2.74925e-06
4.25518e-06
-2.56687e-07
3.10625e-06
4.55368e-06
6.18057e-07
1.97319e-06
1.37463e-06
1.74533e-06
2.23305e-06
1.64113e-06
3.12219e-06
1.62728e-06
3.99384e-06
1.6466e-06
4.84682e-06
1.65198e-06
5.68003e-06
1.66895e-06
6.49639e-06
1.69687e-06
7.29063e-06
1.7391e-06
8.03231e-06
1.80783e-06
8.74624e-06
1.84032e-06
9.44842e-06
1.84582e-06
1.01124e-05
1.88032e-06
1.0758e-05
1.89751e-06
1.13254e-05
1.90573e-06
1.18315e-05
1.84567e-06
1.23827e-05
1.69561e-06
1.29141e-05
1.68074e-06
1.32141e-05
1.79705e-06
1.32298e-05
1.89246e-06
1.29331e-05
2.23222e-06
1.23558e-05
2.61878e-06
1.15201e-05
2.90451e-06
1.04598e-05
3.19702e-06
9.33051e-06
3.45658e-06
8.27711e-06
3.65083e-06
7.32585e-06
3.84994e-06
6.5047e-06
3.98547e-06
5.72719e-06
4.09007e-06
4.92857e-06
4.16852e-06
4.14862e-06
4.18991e-06
3.42017e-06
4.15553e-06
2.75442e-06
4.04623e-06
2.14668e-06
3.90187e-06
1.57106e-06
3.71544e-06
1.01475e-06
3.49628e-06
4.76368e-07
3.27275e-06
-3.10241e-08
3.01781e-06
-5.13535e-07
2.77764e-06
-9.57134e-07
2.50795e-06
-1.33438e-06
2.1925e-06
-1.69418e-06
1.91226e-06
-2.00822e-06
1.61289e-06
-2.27034e-06
1.29875e-06
-2.52903e-06
1.05483e-06
-2.74234e-06
8.10831e-07
-2.91573e-06
5.73305e-07
-3.04902e-06
3.34033e-07
-3.13272e-06
9.41139e-08
-3.16133e-06
-1.47903e-07
-3.13819e-06
-3.65317e-07
-3.08738e-06
-5.44371e-07
-3.00934e-06
-6.84287e-07
-2.89786e-06
-8.03317e-07
-2.75317e-06
-9.20552e-07
-2.58139e-06
-1.01826e-06
-2.39914e-06
-1.10469e-06
-2.21057e-06
-1.17316e-06
-2.00987e-06
-1.22301e-06
-1.80129e-06
-1.23131e-06
-1.5739e-06
-1.25715e-06
-1.31676e-06
-1.32618e-06
-1.04129e-06
-1.38846e-06
-7.37249e-07
-1.42616e-06
-4.54383e-07
-1.43391e-06
-1.56495e-07
-1.43377e-06
1.53635e-07
-1.42726e-06
4.5276e-07
-1.43553e-06
7.04651e-07
-1.38723e-06
9.59572e-07
-1.36594e-06
1.17187e-06
-1.33043e-06
1.35513e-06
-1.31247e-06
1.49474e-06
-1.25214e-06
1.63203e-06
-1.24067e-06
1.72678e-06
-1.19656e-06
1.79523e-06
-1.19186e-06
1.87743e-06
-1.25345e-06
2.06053e-06
-1.34284e-06
2.3402e-06
-1.33913e-06
2.57327e-06
-1.13736e-06
2.65441e-06
-1.01103e-06
2.66875e-06
-1.18301e-06
2.82394e-06
-1.53657e-06
3.14261e-06
-1.6897e-06
3.30714e-06
-1.31855e-06
3.23263e-06
-8.89436e-07
3.09505e-06
-9.47291e-07
3.08795e-06
-1.17993e-06
3.25755e-06
-1.33968e-06
3.28594e-06
-1.22729e-06
3.17742e-06
-1.22538e-06
3.27154e-06
-1.68658e-06
3.47139e-06
-1.89356e-06
3.46777e-06
-1.47785e-06
3.2125e-06
-1.04436e-06
2.86478e-06
-9.03608e-07
2.41774e-06
-6.53216e-07
1.59429e-06
-2.83198e-07
4.67147e-07
-5.34148e-07
-2.48887e-07
-1.41634e-06
-6.7565e-07
-1.53425e-06
-9.9471e-07
-1.14249e-06
-8.197e-07
-2.27672e-06
-5.75034e-07
-3.56693e-06
-9.64463e-07
-3.52916e-06
-2.12926e-06
-2.30801e-06
-3.91924e-06
-5.90775e-07
-5.57154e-06
7.85118e-07
-6.66174e-06
1.40766e-06
-7.80902e-06
2.13174e-06
-9.34826e-06
2.99777e-06
-1.07371e-05
2.97768e-06
-1.15783e-05
2.11361e-06
-1.15803e-05
5.93666e-07
-1.12957e-05
-8.39804e-07
-1.10436e-05
-1.54232e-06
-1.02028e-05
-2.22482e-06
-8.93426e-06
-2.60606e-06
-7.08676e-06
-3.28786e-06
-5.38057e-06
-4.40162e-06
-4.60319e-06
-4.90562e-06
-3.91266e-06
-3.46299e-06
-2.8136e-06
-1.96833e-06
-2.98384e-06
2.17707e-06
-2.72153e-06
1.1519e-06
-2.18956e-07
-5.2581e-06
1.80558e-06
-3.75538e-06
3.25266e-06
-9.49888e-07
4.67905e-06
-2.21937e-06
5.80928e-06
-2.43795e-06
7.19163e-06
-3.86645e-06
8.64555e-06
-4.74438e-06
9.84242e-06
-5.26578e-06
1.14098e-05
-5.82008e-06
1.32697e-05
-5.72845e-06
1.53822e-05
-5.2926e-06
1.70526e-05
-3.67341e-06
1.79932e-05
-2.49804e-06
1.81966e-05
-1.77598e-06
1.79152e-05
-1.46057e-06
1.72569e-05
-9.8479e-07
1.6188e-05
-6.98741e-07
1.45431e-05
-4.18185e-07
1.29594e-05
-9.5768e-07
1.20579e-05
-1.87536e-06
1.13883e-05
-2.28263e-06
1.00236e-05
-1.79731e-06
8.07515e-06
-1.79916e-06
6.39352e-06
-2.34727e-06
5.0853e-06
-2.67078e-06
3.91166e-06
-2.39218e-06
2.62913e-06
-1.54731e-06
8.82709e-07
-4.83628e-07
-1.19039e-06
-3.88436e-07
-3.09632e-06
-7.84541e-07
-5.20737e-06
1.54835e-08
-6.50272e-06
-9.84701e-07
-6.25017e-06
-3.12816e-06
-4.81888e-06
-2.63169e-06
-6.02663e-06
3.52016e-06
-8.93859e-06
4.06549e-06
-1.06291e-05
4.0187e-06
-1.22745e-05
5.77927e-06
-1.30828e-05
3.35229e-06
-1.35738e-05
3.59696e-06
-8.60368e-06
-1.04898e-05
-1.5775e-06
-1.70058e-05
8.16519e-07
-3.65171e-06
1.23337e-06
-1.97072e-06
3.42495e-06
-8.54142e-06
7.12074e-06
-1.30806e-05
1.00989e-05
-1.06594e-05
1.25688e-05
-4.95544e-06
1.30356e-05
2.52681e-06
1.13296e-05
6.70023e-06
8.7974e-06
6.18507e-06
7.07748e-06
5.2337e-06
5.19174e-06
5.51724e-06
5.19782e-06
6.94046e-07
2.79882e-06
6.5121e-06
5.93125e-07
2.63763e-06
1.34044e-06
2.28483e-06
2.22831e-06
2.05881e-06
3.17535e-06
2.00123e-06
4.09977e-06
2.05234e-06
4.97065e-06
2.11431e-06
5.77579e-06
2.20022e-06
6.51059e-06
2.2979e-06
7.21257e-06
2.36642e-06
7.89351e-06
2.45192e-06
8.51311e-06
2.54528e-06
9.11021e-06
2.55803e-06
9.66191e-06
2.63179e-06
1.01532e-05
2.68489e-06
1.06139e-05
2.60086e-06
1.09307e-05
2.57218e-06
1.09741e-05
2.69923e-06
1.07669e-05
2.91113e-06
1.02773e-05
3.21902e-06
9.51099e-06
3.57119e-06
8.64542e-06
3.98726e-06
7.81178e-06
4.2848e-06
7.04868e-06
4.47528e-06
6.32256e-06
4.70719e-06
5.65753e-06
4.87646e-06
5.00974e-06
5.01836e-06
4.37404e-06
5.15944e-06
3.77926e-06
5.21154e-06
3.22076e-06
5.23827e-06
2.69891e-06
5.23621e-06
2.2214e-06
5.16946e-06
1.77639e-06
5.06419e-06
1.35185e-06
4.89764e-06
9.53307e-07
4.69293e-06
5.71771e-07
4.45647e-06
2.05863e-07
4.18516e-06
-1.47955e-07
3.91297e-06
-5.2928e-07
3.64589e-06
-8.77336e-07
3.33365e-06
-1.19888e-06
2.99816e-06
-1.51453e-06
2.637e-06
-1.78892e-06
2.27719e-06
-2.02903e-06
1.90551e-06
-2.28421e-06
1.56993e-06
-2.491e-06
1.24321e-06
-2.64463e-06
9.14519e-07
-2.74301e-06
5.91715e-07
-2.80252e-06
2.85232e-07
-2.84257e-06
5.26751e-11
-2.85984e-06
-2.89192e-07
-2.82439e-06
-5.80333e-07
-2.76406e-06
-8.00721e-07
-2.65101e-06
-1.00907e-06
-2.49524e-06
-1.18467e-06
-2.33576e-06
-1.31818e-06
-2.1762e-06
-1.42621e-06
-2.01248e-06
-1.52436e-06
-1.83714e-06
-1.60988e-06
-1.63809e-06
-1.68676e-06
-1.43567e-06
-1.70003e-06
-1.21242e-06
-1.74741e-06
-9.67514e-07
-1.83787e-06
-7.11992e-07
-1.90886e-06
-4.59412e-07
-1.94036e-06
-1.59813e-07
-1.99158e-06
1.50676e-07
-1.99782e-06
4.61984e-07
-1.9872e-06
7.64464e-07
-1.98219e-06
1.05774e-06
-1.91975e-06
1.33183e-06
-1.87408e-06
1.54787e-06
-1.77595e-06
1.67441e-06
-1.66265e-06
1.74792e-06
-1.54358e-06
1.80212e-06
-1.50829e-06
1.86227e-06
-1.46642e-06
1.95844e-06
-1.49827e-06
2.0775e-06
-1.58798e-06
2.2051e-06
-1.69469e-06
2.43331e-06
-1.79782e-06
2.81259e-06
-1.75433e-06
3.17367e-06
-1.63948e-06
3.4276e-06
-1.76106e-06
3.50807e-06
-1.96676e-06
3.48434e-06
-1.98547e-06
3.36633e-06
-1.5058e-06
3.0377e-06
-9.16288e-07
2.77612e-06
-1.10843e-06
2.86524e-06
-1.70882e-06
3.10198e-06
-2.01873e-06
3.21716e-06
-1.81706e-06
3.08101e-06
-1.62811e-06
3.06914e-06
-2.25117e-06
3.40816e-06
-2.79815e-06
3.74595e-06
-2.39597e-06
3.92306e-06
-1.86298e-06
3.97687e-06
-1.64756e-06
3.91716e-06
-1.31304e-06
3.6993e-06
-8.3867e-07
3.49532e-06
-1.13455e-06
2.77984e-06
-1.50328e-06
1.77808e-06
-1.35749e-06
1.50523e-06
-1.68905e-06
1.49241e-06
-3.04426e-06
9.67404e-07
-3.80631e-06
-3.75874e-07
-2.92709e-06
-2.33407e-06
-1.0436e-06
-4.5086e-06
9.16e-07
-6.16669e-06
1.7904e-06
-7.23295e-06
1.89283e-06
-8.25995e-06
2.64669e-06
-9.21068e-06
3.51135e-06
-1.00316e-05
3.42316e-06
-1.04815e-05
2.27671e-06
-1.05356e-05
5.5549e-07
-1.0788e-05
-4.79605e-07
-1.08704e-05
-1.36482e-06
-1.05116e-05
-2.7164e-06
-9.86399e-06
-3.4335e-06
-8.6467e-06
-4.45333e-06
-7.62268e-06
-5.39926e-06
-6.60533e-06
-6.0236e-06
-4.21189e-06
-5.83658e-06
-2.6532e-06
-3.34754e-06