/*--------------------------------*- C++ -*----------------------------------*\
| =========                 |                                                 |
| \\      /  F ield         | OpenFOAM: The Open Source CFD Toolbox           |
|  \\    /   O peration     | Version:  dev                                   |
|   \\  /    A nd           | Web:      http://www.openfoam.org               |
|    \\/     M anipulation  |                                                 |
\*---------------------------------------------------------------------------*/
FoamFile
{
    version     2.0;
    format      ascii;
    class       volScalarField;
    object      rho;
    location    "9.158";
}
// * * * * * * * * * * * * * * * * * * * * * * * * * * * * * * * * * * * * * //

dimensions      [1 -3 0 0 0 0 0];

internalField   nonuniform List<scalar> 
12225
(
1.08587
1.0884
1.08905
1.08968
1.09142
1.09232
1.09458
1.09573
1.09812
1.09949
1.10192
1.10336
1.10601
1.10701
1.11031
1.1093
1.116
1.11211
1.0882
1.09053
1.09082
1.09113
1.09303
1.09379
1.09627
1.09736
1.09981
1.10111
1.10373
1.10431
1.10811
1.10686
1.11249
1.10676
1.11626
1.10907
1.08826
1.09025
1.09112
1.09094
1.09351
1.09369
1.09665
1.09748
1.10032
1.10109
1.10476
1.10436
1.1087
1.10755
1.11268
1.10913
1.11621
1.11537
1.08846
1.08928
1.09155
1.09028
1.09385
1.09339
1.09675
1.09687
1.10081
1.10004
1.10513
1.10384
1.1095
1.10699
1.11443
1.1087
1.11481
1.1221
1.08919
1.08861
1.09186
1.08982
1.09367
1.09315
1.09637
1.09673
1.10028
1.10018
1.10428
1.10435
1.1091
1.10805
1.11495
1.1109
1.12004
1.1211
1.08934
1.08883
1.09213
1.09008
1.09371
1.09348
1.09641
1.0972
1.09985
1.10082
1.104
1.10537
1.10873
1.10941
1.11314
1.11387
1.11967
1.11838
1.08887
1.08972
1.09166
1.09126
1.09344
1.09411
1.09658
1.09764
1.09975
1.10168
1.10396
1.10603
1.10826
1.11023
1.11196
1.11462
1.11666
1.11791
1.0889
1.08991
1.09157
1.09119
1.0935
1.09409
1.09658
1.09762
1.09998
1.10178
1.10412
1.10567
1.10797
1.10966
1.11214
1.11374
1.11622
1.11713
1.0886
1.09046
1.09145
1.09163
1.09335
1.09439
1.09634
1.09794
1.09983
1.10208
1.10394
1.10604
1.10756
1.10986
1.11197
1.11382
1.11576
1.11707
1.089
1.09056
1.09155
1.09169
1.0933
1.09442
1.09634
1.09778
1.09973
1.1019
1.10349
1.10597
1.1072
1.10953
1.11159
1.11353
1.11498
1.11652
1.08881
1.09083
1.09156
1.09192
1.0935
1.0946
1.09644
1.0981
1.09983
1.1016
1.10342
1.10579
1.10694
1.10952
1.11111
1.11325
1.11444
1.11626
1.08915
1.0911
1.0917
1.09216
1.09357
1.09473
1.09664
1.09786
1.0998
1.10157
1.10331
1.10546
1.10706
1.10898
1.11078
1.11299
1.11383
1.11598
1.08926
1.0914
1.09193
1.09253
1.09385
1.09493
1.09661
1.09803
1.09988
1.10129
1.10334
1.10523
1.10696
1.10858
1.1104
1.11232
1.11378
1.11563
1.08964
1.09195
1.09236
1.09297
1.09413
1.09512
1.09655
1.09796
1.09963
1.10121
1.10312
1.10479
1.10672
1.10815
1.1102
1.11181
1.11329
1.11508
1.09003
1.09245
1.0926
1.09336
1.09448
1.09559
1.09693
1.09839
1.09988
1.10146
1.10318
1.10484
1.1067
1.10814
1.1099
1.11145
1.11314
1.11437
1.09077
1.09326
1.09321
1.09391
1.09489
1.09599
1.09726
1.0987
1.10013
1.10172
1.10323
1.10482
1.10645
1.10805
1.10968
1.1112
1.11281
1.11423
1.09142
1.09384
1.09387
1.09461
1.09553
1.09664
1.09781
1.09913
1.10046
1.10197
1.10342
1.10501
1.10661
1.10825
1.10984
1.11146
1.11297
1.11442
1.09234
1.0947
1.09489
1.0955
1.09635
1.09738
1.09859
1.09994
1.10131
1.1028
1.10428
1.10585
1.10734
1.10886
1.11057
1.11205
1.11361
1.11508
1.0933
1.09568
1.09578
1.09638
1.09733
1.0984
1.09962
1.10078
1.1022
1.10358
1.10505
1.10665
1.1082
1.10982
1.11139
1.11295
1.11467
1.11602
1.09395
1.09638
1.09633
1.09716
1.09805
1.09911
1.10027
1.10138
1.1028
1.1041
1.10581
1.10742
1.10916
1.11099
1.11267
1.11447
1.11604
1.11764
1.09469
1.09691
1.09669
1.0977
1.09853
1.09981
1.10113
1.10224
1.10379
1.10503
1.10669
1.10827
1.11007
1.11184
1.11367
1.11546
1.11715
1.11891
1.09491
1.09725
1.09734
1.09815
1.09906
1.10024
1.10162
1.1028
1.10434
1.10577
1.10737
1.1091
1.11081
1.11268
1.11449
1.11628
1.1181
1.11974
1.09515
1.09779
1.09807
1.09866
1.09973
1.10078
1.10193
1.10331
1.10472
1.10631
1.10797
1.10977
1.11152
1.11344
1.11521
1.11706
1.11882
1.12055
1.09574
1.09803
1.09831
1.09889
1.09993
1.10094
1.10216
1.10364
1.10504
1.10678
1.10841
1.11018
1.11204
1.11378
1.11573
1.11747
1.11935
1.1211
1.09588
1.09845
1.09844
1.09902
1.09994
1.10113
1.10252
1.10392
1.10551
1.10707
1.10875
1.11049
1.11225
1.11413
1.11593
1.11784
1.11965
1.12148
1.096
1.09855
1.09868
1.09931
1.10019
1.1013
1.10258
1.10405
1.10561
1.10727
1.109
1.11076
1.11261
1.11444
1.11635
1.11819
1.12005
1.12183
1.09626
1.0986
1.09867
1.09932
1.10024
1.10133
1.10262
1.10407
1.10566
1.10736
1.10915
1.11098
1.11286
1.11475
1.11664
1.11851
1.12034
1.12213
1.09642
1.09878
1.09874
1.0993
1.10023
1.10138
1.10271
1.1042
1.10583
1.10757
1.1094
1.11127
1.11317
1.11505
1.11691
1.11871
1.12044
1.12208
1.09627
1.09893
1.0989
1.09939
1.10024
1.10135
1.10268
1.1042
1.10587
1.10762
1.1094
1.11117
1.11291
1.11461
1.11628
1.11789
1.11948
1.121
1.09521
1.09767
1.09775
1.09829
1.09915
1.10023
1.1015
1.1029
1.1044
1.10597
1.10758
1.10921
1.11086
1.1125
1.11414
1.11577
1.11737
1.11893
1.16439
1.18687
1.19771
1.2021
1.20328
1.20303
1.20205
1.20059
1.19885
1.19707
1.19511
1.1929
1.19053
1.18782
1.18493
1.18254
1.18111
1.17955
1.17712
1.1739
1.17063
1.16875
1.16713
1.16453
1.16083
1.1568
1.15427
1.15164
1.14699
1.14042
1.13229
1.12696
1.1273
1.12846
1.12848
1.12874
1.12886
1.12855
1.12808
1.12752
1.1269
1.1262
1.12536
1.12442
1.12341
1.12238
1.12138
1.12047
1.11961
1.11879
1.11803
1.11724
1.11642
1.1156
1.11475
1.11386
1.11289
1.11187
1.11072
1.10946
1.1081
1.1066
1.1049
1.10308
1.10117
1.09923
1.09721
1.09506
1.09295
1.09073
1.08852
1.08636
1.0845
1.08293
1.08155
1.08046
1.07953
1.07856
1.07737
1.07585
1.07408
1.07213
1.06992
1.06757
1.06509
1.06298
1.0613
1.05981
1.05874
1.05826
1.05798
1.05757
1.05709
1.05739
1.05859
1.05878
1.05996
1.06142
1.06089
1.05928
1.0604
1.06587
1.0721
1.07644
1.07335
1.06357
1.05698
1.05156
1.0436
1.04585
1.05527
1.0565
1.05663
1.06255
1.06952
1.06875
1.06613
1.06719
1.07071
1.07654
1.0773
1.06844
1.06319
1.06165
1.06954
1.08914
1.0867
1.08211
1.09402
1.09662
1.10116
1.10085
1.10053
1.09839
1.09151
1.08006
1.07012
1.06804
1.06966
1.07169
1.07315
1.07585
1.07787
1.08029
1.08292
1.08639
1.09014
1.09326
1.09529
1.09702
1.09604
1.09435
1.09399
1.09559
1.09298
1.08987
1.09856
1.1101
1.10034
1.06992
1.0695
1.06585
1.04105
1.01632
1.03301
1.08842
1.05167
1.02422
1.01525
1.02363
1.00659
0.992569
0.970053
0.965154
0.992532
1.00527
0.992445
1.03681
1.13175
1.02692
1.1643
1.19179
1.20792
1.21568
1.21871
1.21971
1.21998
1.21975
1.21903
1.21842
1.21788
1.21689
1.21584
1.2148
1.21301
1.21068
1.20912
1.20709
1.20476
1.20045
1.19458
1.19291
1.18992
1.1812
1.1667
1.15484
1.15391
1.15061
1.14414
1.14252
1.14308
1.14274
1.14347
1.14418
1.14339
1.14269
1.14176
1.14063
1.13921
1.13756
1.13553
1.13321
1.1311
1.12909
1.12742
1.12634
1.12541
1.1247
1.12415
1.12344
1.12291
1.12239
1.12196
1.12149
1.12099
1.12036
1.11938
1.11827
1.11696
1.11558
1.11396
1.1117
1.10873
1.10557
1.10244
1.09962
1.09626
1.09248
1.08942
1.08606
1.08269
1.07952
1.07719
1.07534
1.07409
1.0737
1.07427
1.07609
1.07891
1.08136
1.08107
1.07809
1.07541
1.07516
1.07558
1.07643
1.07747
1.07756
1.07659
1.0746
1.07473
1.07661
1.07778
1.07267
1.0738
1.0785
1.08017
1.08774
1.09074
1.09132
1.08138
1.07697
1.09204
1.10926
1.12266
1.10567
1.07633
1.06398
1.06833
1.07988
1.07803
1.07554
1.08303
1.08759
1.08173
1.07661
1.08259
1.09512
1.10505
1.10105
1.0826
1.0633
1.07579
1.08316
1.10606
1.1365
1.12377
1.12431
1.14131
1.14897
1.14211
1.13959
1.12645
1.12838
1.13561
1.13837
1.13134
1.12207
1.11128
1.10501
1.10391
1.11053
1.12141
1.12642
1.12187
1.12133
1.13267
1.1494
1.16406
1.17767
1.18661
1.18997
1.19107
1.1957
1.18966
1.19358
1.22037
1.24199
1.2296
1.15804
1.15125
1.12802
1.05801
1.08355
1.16114
1.11727
1.04725
1.12528
1.09154
1.06431
1.02708
1.02147
1.02812
0.979451
0.983265
1.05364
1.05734
1.08977
1.32413
1.25912
1.15853
1.17891
1.19269
1.20168
1.20714
1.21001
1.21234
1.21446
1.21564
1.21608
1.21739
1.21881
1.21781
1.21923
1.22437
1.22682
1.22141
1.21354
1.20798
1.20108
1.19044
1.18142
1.17677
1.16761
1.16055
1.15732
1.15458
1.15308
1.15099
1.14976
1.14905
1.14615
1.14381
1.14064
1.13697
1.13435
1.13134
1.12874
1.12622
1.12343
1.12099
1.11889
1.11697
1.11569
1.11445
1.11318
1.11242
1.11127
1.11026
1.10958
1.10856
1.10755
1.10631
1.10489
1.10375
1.10264
1.10151
1.10045
1.09936
1.09794
1.09676
1.09522
1.09317
1.09077
1.08832
1.0861
1.08349
1.08026
1.07737
1.07467
1.07195
1.06965
1.06837
1.06662
1.06488
1.06326
1.06175
1.06187
1.06451
1.06844
1.06779
1.0589
1.05066
1.05182
1.06133
1.07009
1.07344
1.07374
1.07324
1.07548
1.07698
1.0716
1.07113
1.07618
1.07714
1.07737
1.08253
1.09255
1.09521
1.09442
1.08291
1.08027
1.08907
1.09539
1.10202
1.09055
1.07405
1.07273
1.08077
1.08089
1.07465
1.07382
1.07444
1.07335
1.06263
1.05541
1.05754
1.07419
1.09105
1.07443
1.05648
1.06074
1.09167
1.09294
1.12094
1.10797
1.11114
1.15255
1.13688
1.15746
1.1378
1.12592
1.09186
1.08744
1.10351
1.12507
1.13938
1.14125
1.13371
1.12391
1.11799
1.12282
1.1299
1.13977
1.14749
1.1462
1.13958
1.14213
1.1677
1.2005
1.22712
1.24639
1.25101
1.24796
1.23235
1.23612
1.2486
1.24212
1.233
1.22501
1.19764
1.174
1.06339
1.01435
1.06727
1.02897
0.909843
1.06021
1.11473
1.09822
1.02152
0.964684
1.02636
0.989288
0.963009
1.03013
1.07051
1.13105
1.22717
1.30923
1.15423
1.16912
1.1795
1.18766
1.19443
1.19859
1.20248
1.20625
1.20959
1.21197
1.2145
1.21797
1.219
1.22561
1.22823
1.21542
1.2013
1.19801
1.188
1.17537
1.17082
1.16169
1.15437
1.14939
1.14581
1.14375
1.14158
1.13974
1.13749
1.13578
1.13361
1.131
1.12895
1.12675
1.12509
1.12431
1.12354
1.12344
1.12357
1.12386
1.12539
1.1265
1.12751
1.12812
1.12799
1.12761
1.12624
1.12509
1.12374
1.12233
1.12132
1.11943
1.11732
1.1151
1.11273
1.11103
1.10913
1.1073
1.10561
1.10348
1.10154
1.10031
1.09925
1.09788
1.09679
1.09505
1.09338
1.09196
1.08947
1.08677
1.08362
1.08024
1.07785
1.0751
1.07263
1.07054
1.06811
1.06602
1.0643
1.06647
1.06988
1.06247
1.04511
1.03722
1.04821
1.06501
1.06315
1.05336
1.0498
1.05538
1.05925
1.0479
1.04193
1.05333
1.06526
1.06883
1.0765
1.08714
1.08427
1.08642
1.09119
1.08683
1.08081
1.08928
1.0996
1.08479
1.069
1.07618
1.0831
1.07938
1.08396
1.08694
1.08998
1.08028
1.05022
1.01923
1.0103
1.03177
1.03974
1.03899
1.06328
1.09925
1.12044
1.12565
1.11597
1.08912
1.10648
1.13943
1.10846
1.18521
1.15409
1.11906
1.07593
1.06578
1.07944
1.10733
1.12703
1.13807
1.13332
1.12442
1.11738
1.12778
1.14804
1.14494
1.12925
1.12662
1.13103
1.13274
1.14895
1.18227
1.22557
1.27122
1.28955
1.27649
1.24994
1.23365
1.2124
1.18296
1.19487
1.30489
1.22864
1.22969
1.14441
1.06306
0.954497
0.982048
0.941229
0.975719
1.07738
1.11345
1.05458
0.962579
1.01678
1.00544
0.944319
1.00154
1.05281
1.14644
1.21241
1.32173
1.15112
1.163
1.17304
1.18139
1.18839
1.19261
1.19612
1.19969
1.20199
1.20771
1.21524
1.21925
1.21823
1.21239
1.20489
1.19865
1.18924
1.18042
1.16987
1.15957
1.15308
1.14504
1.14109
1.13776
1.13578
1.13583
1.13292
1.13233
1.13194
1.13114
1.13117
1.13124
1.13222
1.13397
1.13609
1.13777
1.13948
1.13963
1.14048
1.14107
1.14092
1.14107
1.14023
1.13881
1.13697
1.13519
1.13338
1.13167
1.1298
1.12833
1.12666
1.12518
1.12411
1.12288
1.12168
1.12071
1.1195
1.11763
1.11617
1.11486
1.11325
1.11179
1.1102
1.10827
1.10684
1.10519
1.1033
1.10136
1.09905
1.09587
1.09272
1.0882
1.0831
1.07586
1.06789
1.06178
1.05846
1.05854
1.05939
1.06163
1.06346
1.06419
1.05631
1.04818
1.04796
1.05422
1.04737
1.03055
1.02477
1.03029
1.0315
1.0275
1.0248
1.02879
1.03411
1.04153
1.05614
1.0691
1.07644
1.08373
1.09144
1.08071
1.07647
1.09432
1.10148
1.0836
1.07521
1.08801
1.08992
1.09944
1.11736
1.11583
1.10529
1.06228
1.03302
1.02522
1.04367
1.06261
1.052
1.06397
1.07867
1.09031
1.12746
1.12882
1.09375
1.06105
1.09364
1.00958
0.986558
1.1714
1.15131
1.08929
1.03387
1.01983
1.04586
1.08195
1.11524
1.13051
1.14121
1.13689
1.13041
1.12725
1.14803
1.186
1.19123
1.15304
1.12518
1.11277
1.12661
1.15325
1.19309
1.25609
1.30579
1.29467
1.25752
1.22654
1.18214
1.15488
1.19484
1.35698
1.21681
1.24281
1.14964
1.05195
1.12744
1.08053
1.01458
1.03207
1.14948
1.11541
1.02737
0.953318
1.01427
1.02679
0.945382
0.982196
1.03586
1.14187
1.19995
1.30989
1.14926
1.16014
1.17152
1.18153
1.189
1.19453
1.19647
1.19719
1.19781
1.202
1.20923
1.2112
1.20647
1.20297
1.1939
1.18142
1.17353
1.16647
1.15415
1.1452
1.14115
1.13686
1.1352
1.13593
1.13419
1.13382
1.13515
1.13548
1.13725
1.13838
1.13966
1.14121
1.1428
1.14424
1.14505
1.14488
1.14365
1.14184
1.13987
1.13776
1.13552
1.13293
1.13063
1.12813
1.12584
1.12396
1.12162
1.12022
1.11853
1.11701
1.11547
1.11399
1.11281
1.11149
1.11017
1.10895
1.10812
1.10683
1.10598
1.10501
1.1043
1.10333
1.10248
1.10156
1.10112
1.10092
1.10084
1.10028
1.09973
1.0981
1.09588
1.09357
1.09202
1.08936
1.08356
1.07651
1.06992
1.06411
1.06124
1.06178
1.05962
1.05865
1.05813
1.05711
1.05253
1.04167
1.02886
1.02406
1.02642
1.02762
1.02464
1.03047
1.04596
1.05095
1.04353
1.03792
1.03997
1.04649
1.06349
1.07504
1.07923
1.08042
1.08584
1.09992
1.09812
1.08544
1.0903
1.09589
1.09084
1.09769
1.10494
1.09669
1.07266
1.03026
1.03271
1.04964
1.06641
1.06732
1.06068
1.06384
1.05711
1.05672
1.10282
1.12842
1.08567
1.04381
1.09365
1.06089
0.943699
1.00431
1.0674
1.05993
1.04883
1.01565
1.03541
1.04362
1.09406
1.10206
1.11938
1.12861
1.14853
1.15147
1.16672
1.20409
1.23866
1.18433
1.12129
1.0847
1.08896
1.13227
1.15964
1.21176
1.28626
1.30193
1.26769
1.22205
1.16426
1.1338
1.16244
1.33845
1.27261
1.24487
1.17093
1.17993
1.16772
1.24812
0.992176
1.04811
1.13194
1.04492
0.977542
0.946558
1.0217
1.04155
0.949341
0.969119
1.02329
1.12891
1.19961
1.31413
1.14747
1.15661
1.16798
1.17937
1.18826
1.19708
1.2009
1.20049
1.1958
1.19632
1.20141
1.20038
1.20115
1.19486
1.17409
1.16615
1.15985
1.1474
1.13984
1.13685
1.1352
1.13437
1.13445
1.13463
1.13659
1.13773
1.13989
1.14179
1.14353
1.14401
1.14509
1.1443
1.14338
1.14293
1.14108
1.13942
1.13724
1.13519
1.13394
1.13219
1.13083
1.13002
1.12897
1.12843
1.12813
1.12768
1.12737
1.12737
1.12655
1.12619
1.12596
1.12517
1.12425
1.12284
1.12132
1.11902
1.11663
1.11418
1.11207
1.10939
1.1066
1.10421
1.10217
1.1003
1.09873
1.09762
1.09662
1.09554
1.09571
1.09615
1.09461
1.09276
1.0915
1.09115
1.08967
1.0873
1.08498
1.07755
1.06975
1.06601
1.06575
1.0603
1.05499
1.05175
1.04723
1.03831
1.02996
1.02631
1.02477
1.02767
1.03369
1.03903
1.04754
1.05626
1.06438
1.06844
1.06042
1.05035
1.05775
1.06549
1.06755
1.0807
1.08861
1.09105
1.08979
1.09247
1.09986
1.0808
1.06919
1.06958
1.07144
1.07133
1.05169
1.03541
1.05156
1.06652
1.0664
1.06069
1.06493
1.06566
1.06376
1.06442
1.07232
1.14787
1.16966
1.13536
1.04279
1.04779
1.11604
1.02945
1.03803
1.02699
1.05339
1.02743
1.04554
1.04273
1.06808
1.06291
1.05629
1.05544
1.07997
1.09897
1.12588
1.14848
1.18613
1.1602
1.11152
1.0764
1.05103
1.09421
1.13116
1.16445
1.24382
1.28735
1.27712
1.22923
1.15913
1.12303
1.1181
1.22485
1.37959
1.33468
1.34633
1.34313
1.17664
1.14922
0.917624
0.995133
1.09839
1.02026
0.958962
0.948251
1.06313
1.07679
0.962366
0.958026
1.01945
1.12132
1.19441
1.30575
1.14587
1.15434
1.16815
1.18287
1.19233
1.20101
1.20547
1.20248
1.19745
1.19431
1.19312
1.19677
1.20435
1.19238
1.16093
1.15236
1.15717
1.14822
1.14094
1.13904
1.14009
1.1387
1.13947
1.13985
1.1416
1.14378
1.14572
1.14626
1.14721
1.14534
1.14422
1.1427
1.14089
1.14041
1.13892
1.13818
1.13788
1.13733
1.13715
1.13715
1.13708
1.13745
1.13721
1.13745
1.13742
1.13721
1.13706
1.13696
1.13658
1.13633
1.1361
1.13533
1.13516
1.13453
1.13391
1.1327
1.1314
1.12964
1.12767
1.12556
1.12273
1.11953
1.11672
1.11393
1.11087
1.1079
1.10449
1.10019
1.09697
1.09507
1.09422
1.09273
1.09192
1.08895
1.08461
1.08121
1.08219
1.08078
1.07338
1.06432
1.0641
1.06339
1.06291
1.05781
1.04955
1.03993
1.03485
1.02976
1.01972
1.01519
1.02296
1.03388
1.03878
1.04274
1.0562
1.07108
1.06994
1.05981
1.06374
1.06571
1.06883
1.08437
1.08832
1.08134
1.08323
1.10087
1.09307
1.06199
1.05713
1.05671
1.05749
1.06331
1.04742
1.05107
1.0637
1.06808
1.06648
1.06457
1.07032
1.07102
1.06626
1.06894
1.07846
1.13011
1.12117
1.10319
1.09884
0.976162
1.06633
1.0772
1.06793
1.07876
1.07848
1.05458
1.03475
1.05734
1.06198
1.04875
1.02385
1.02122
1.03416
1.04615
1.07933
1.09864
1.12586
1.12671
1.11611
1.10595
1.06578
1.07617
1.11221
1.12801
1.196
1.25906
1.27683
1.247
1.17093
1.13398
1.10605
1.12943
1.35493
1.36521
1.30987
0.963476
1.37202
1.15984
1.00668
1.02192
1.06018
0.977
0.960291
0.945036
1.07096
1.08548
0.968412
0.95496
1.02263
1.12014
1.20505
1.29814
1.14487
1.15466
1.17313
1.19258
1.20219
1.20435
1.20797
1.20623
1.20085
1.19541
1.19562
1.20587
1.20482
1.18415
1.15671
1.14507
1.1424
1.13481
1.13481
1.13527
1.13705
1.13829
1.14226
1.1452
1.14684
1.14798
1.14705
1.1446
1.14366
1.14238
1.14125
1.14107
1.14034
1.14039
1.14098
1.141
1.14065
1.14033
1.1402
1.13995
1.13926
1.13916
1.1382
1.138
1.13722
1.13671
1.13601
1.13525
1.1344
1.13334
1.13251
1.1314
1.13055
1.13013
1.13041
1.13008
1.12901
1.12775
1.12694
1.12643
1.12548
1.12253
1.11976
1.11735
1.11555
1.11458
1.11293
1.11006
1.10541
1.09938
1.09515
1.09058
1.09187
1.09541
1.09142
1.08513
1.08299
1.08762
1.08431
1.0711
1.06134
1.05771
1.06232
1.06811
1.06797
1.05536
1.04397
1.03462
1.02456
1.02075
1.03142
1.04423
1.04834
1.05355
1.06668
1.079
1.07615
1.06708
1.07114
1.06925
1.07286
1.08724
1.08935
1.08381
1.0875
1.10444
1.07764
1.05048
1.05102
1.05211
1.04982
1.05363
1.04266
1.05571
1.06839
1.07561
1.07622
1.0707
1.06243
1.05942
1.05898
1.06305
1.07178
1.07775
1.05477
1.01577
1.08508
1.05012
1.08283
1.09264
1.00072
1.05273
1.07281
1.09329
1.04516
1.0588
1.06892
1.06724
1.02978
1.0055
1.02153
1.02426
1.05561
1.06873
1.10531
1.13757
1.12501
1.10551
1.06436
1.05964
1.09904
1.10431
1.1532
1.21861
1.2577
1.26401
1.19525
1.15616
1.11488
1.08299
1.21866
1.26851
1.11202
0.999387
1.42269
1.15102
1.01459
1.0435
1.03445
0.950697
0.962489
1.00387
1.12574
1.10144
0.979099
0.972251
1.0335
1.13168
1.21865
1.30004
1.14458
1.15697
1.17915
1.19814
1.20404
1.20074
1.19912
1.20017
1.20273
1.20241
1.20029
1.20279
1.18978
1.16931
1.14917
1.14644
1.14645
1.13768
1.13748
1.14024
1.14361
1.14452
1.14531
1.14666
1.14566
1.14526
1.14443
1.14328
1.14336
1.14257
1.14201
1.14237
1.14321
1.1432
1.14303
1.14228
1.14096
1.14019
1.1394
1.13847
1.13752
1.13715
1.13602
1.13605
1.13536
1.13494
1.13453
1.13375
1.13256
1.13115
1.1299
1.12851
1.12699
1.1257
1.12644
1.1282
1.12836
1.1265
1.12474
1.12518
1.12595
1.12307
1.11857
1.1143
1.1101
1.10938
1.10999
1.11299
1.11372
1.11016
1.10532
1.0965
1.08713
1.09029
1.09277
1.0857
1.08082
1.08813
1.09234
1.08281
1.06795
1.06366
1.06471
1.06847
1.06979
1.06352
1.04988
1.03702
1.02649
1.02637
1.04166
1.05527
1.05683
1.0615
1.07447
1.08615
1.08095
1.07489
1.07734
1.07253
1.07582
1.09114
1.09421
1.09498
1.10067
1.1026
1.06571
1.05045
1.05516
1.05055
1.04554
1.05116
1.05179
1.07092
1.07562
1.07842
1.0711
1.0687
1.06123
1.05445
1.05655
1.05895
1.07211
1.05591
1.07277
1.07442
1.09721
1.06021
1.05472
1.11883
1.01721
1.0516
1.05365
1.07105
1.02991
1.04445
1.06601
1.07524
1.06051
1.01118
1.01803
1.0186
1.02925
1.01822
1.04778
1.1207
1.1213
1.09982
1.06854
1.04355
1.08322
1.08715
1.12141
1.18896
1.22723
1.26989
1.22109
1.17979
1.14347
1.08977
1.08447
1.08813
1.07078
1.17427
1.31465
1.09846
0.958702
1.01376
1.02405
0.958779
0.940157
0.999012
1.14051
1.11468
1.00126
1.00499
1.05457
1.15524
1.23135
1.30282
1.14402
1.15817
1.18116
1.19489
1.19634
1.19565
1.19717
1.19834
1.202
1.20543
1.19625
1.18412
1.17115
1.15756
1.14409
1.14006
1.14117
1.13495
1.1384
1.14067
1.14301
1.14776
1.1492
1.15089
1.14926
1.14566
1.14268
1.14024
1.14088
1.14236
1.14398
1.1444
1.14327
1.14163
1.14077
1.14014
1.13904
1.13864
1.13792
1.13741
1.1372
1.13771
1.13746
1.13778
1.13773
1.13772
1.13811
1.139
1.1387
1.13688
1.13608
1.13525
1.13394
1.13068
1.12863
1.13054
1.13293
1.13123
1.12526
1.12281
1.12499
1.12521
1.11913
1.11219
1.10436
1.10079
1.09953
1.1025
1.10947
1.11168
1.10922
1.10918
1.09771
1.08932
1.09352
1.08946
1.07927
1.07993
1.08813
1.08451
1.06875
1.06556
1.06771
1.07267
1.06856
1.05844
1.03974
1.03282
1.03484
1.04543
1.05847
1.0696
1.07237
1.07623
1.08417
1.08817
1.08219
1.07969
1.08089
1.07491
1.07932
1.09823
1.1021
1.10266
1.1024
1.08849
1.05725
1.05367
1.05672
1.04773
1.0467
1.0586
1.0691
1.08759
1.07713
1.06681
1.05894
1.05964
1.06721
1.06277
1.06215
1.05042
1.06445
1.06557
1.07789
1.06897
1.07894
1.07949
1.02499
1.09134
1.02267
1.05474
1.06044
1.04675
1.00901
1.02405
1.06527
1.05774
1.07021
1.02832
1.01367
1.02589
1.04847
1.02806
1.0159
1.0811
1.10649
1.09452
1.08296
1.04275
1.06979
1.0724
1.09053
1.16043
1.19229
1.25229
1.22892
1.19487
1.17951
1.14423
1.08591
0.973226
1.01832
1.09501
1.20435
1.07154
0.984806
1.02714
0.993383
0.947279
0.978674
1.04308
1.15602
1.13172
1.0391
1.04328
1.08232
1.18155
1.23328
1.31525
1.14365
1.15971
1.18441
1.19562
1.19165
1.18779
1.1895
1.19372
1.1963
1.1929
1.18244
1.16706
1.1585
1.14964
1.14299
1.13947
1.14032
1.1349
1.14043
1.14543
1.1458
1.14962
1.14771
1.14417
1.14094
1.13895
1.13952
1.1412
1.14212
1.14172
1.14135
1.14196
1.14219
1.14199
1.14127
1.1405
1.13917
1.13819
1.13758
1.13807
1.13869
1.13978
1.14074
1.14144
1.14053
1.13967
1.13838
1.13867
1.13931
1.13654
1.13484
1.13463
1.13595
1.13487
1.13128
1.13099
1.13611
1.14023
1.13451
1.12589
1.12408
1.12949
1.1294
1.12242
1.11257
1.10391
1.10157
1.09975
1.10562
1.11463
1.10952
1.10972
1.10571
1.09301
1.09091
1.09517
1.0891
1.08499
1.09062
1.08924
1.07647
1.07144
1.07193
1.07458
1.06736
1.0562
1.03578
1.03397
1.0419
1.05903
1.0721
1.08106
1.08437
1.09164
1.09951
1.09611
1.08734
1.08277
1.08412
1.07754
1.08602
1.11005
1.11627
1.10558
1.094
1.07382
1.05492
1.05902
1.04945
1.03612
1.04696
1.06218
1.07027
1.07927
1.06933
1.05978
1.05184
1.04847
1.05449
1.06622
1.06581
1.07044
1.07657
1.06406
1.07218
1.06236
1.07659
1.08298
1.03012
1.09153
1.03726
1.06985
1.09136
1.0602
1.02527
1.01379
1.06255
1.05002
1.06487
1.03933
1.01484
1.01469
1.04726
1.0437
1.01082
1.05533
1.09919
1.09163
1.08834
1.04199
1.05883
1.06241
1.06842
1.13598
1.1611
1.21723
1.22458
1.21207
1.20661
1.17922
1.15507
1.02779
1.01317
1.12795
1.16183
1.08764
0.987424
1.01857
0.993156
0.940465
0.942861
1.03603
1.1529
1.1374
1.08095
1.08125
1.11231
1.20854
1.23664
1.36054
1.14196
1.15622
1.17982
1.19243
1.18812
1.18256
1.18012
1.17967
1.18329
1.18308
1.16796
1.15602
1.15115
1.14886
1.14381
1.14086
1.1399
1.13496
1.1381
1.14181
1.14216
1.14553
1.14599
1.1448
1.14201
1.14033
1.14053
1.14289
1.14651
1.14897
1.1479
1.14616
1.14374
1.14122
1.13982
1.13886
1.13717
1.13606
1.13642
1.13867
1.14143
1.14378
1.14485
1.14652
1.14583
1.1445
1.14142
1.13894
1.13969
1.13697
1.13361
1.1308
1.13131
1.13269
1.13213
1.1288
1.13043
1.13753
1.13952
1.1302
1.1204
1.1194
1.12519
1.125
1.12059
1.10967
1.10365
1.1006
1.0979
1.10695
1.1103
1.10764
1.10971
1.10223
1.09067
1.09149
1.08723
1.08223
1.08683
1.08808
1.07803
1.07228
1.0751
1.0762
1.06698
1.0571
1.03871
1.0407
1.04652
1.05914
1.07075
1.08131
1.0881
1.09773
1.10423
1.09698
1.09063
1.08711
1.08577
1.08294
1.0974
1.12534
1.13124
1.11206
1.08995
1.06912
1.06262
1.06459
1.04702
1.04729
1.06181
1.07081
1.07832
1.08274
1.07921
1.07677
1.06015
1.05651
1.04927
1.04503
1.04567
1.07287
1.08643
1.06829
1.06431
1.05306
1.06259
1.09037
1.05613
1.0951
1.02187
1.03416
1.07585
1.05119
1.04181
1.02228
1.04918
1.04585
1.0571
1.03918
1.02661
1.02552
1.04467
1.05159
1.01304
1.02921
1.08585
1.08425
1.08874
1.04168
1.05106
1.05649
1.0547
1.1268
1.13311
1.17366
1.20841
1.21936
1.20525
1.17232
1.21635
1.09008
1.05086
1.14757
1.16184
1.07734
0.991791
1.01154
0.976687
0.983023
0.963938
1.03083
1.1381
1.13088
1.11551
1.11493
1.14072
1.23466
1.25838
1.37781
1.13986
1.15251
1.17537
1.18908
1.18388
1.17568
1.17354
1.1755
1.16994
1.16328
1.15438
1.1447
1.14125
1.14296
1.14321
1.1431
1.14454
1.14108
1.14411
1.1459
1.14515
1.14637
1.14389
1.14101
1.13884
1.13861
1.13933
1.13955
1.13919
1.13912
1.139
1.13992
1.13983
1.13822
1.13698
1.13633
1.13501
1.13546
1.13773
1.14078
1.14405
1.14758
1.1473
1.14693
1.14522
1.14341
1.14161
1.13828
1.13776
1.1372
1.13744
1.13539
1.13547
1.13569
1.13814
1.13692
1.13476
1.13662
1.14303
1.14105
1.13227
1.12166
1.11975
1.11998
1.11938
1.11684
1.10873
1.10571
1.10301
1.09905
1.10421
1.1012
1.10296
1.10411
1.09709
1.09612
1.09463
1.08558
1.0859
1.09173
1.08442
1.07247
1.07319
1.07687
1.07442
1.06474
1.04366
1.04415
1.04938
1.06612
1.07877
1.0887
1.09748
1.10623
1.1079
1.09835
1.09327
1.09159
1.0876
1.09188
1.10774
1.1353
1.13613
1.11351
1.08571
1.06877
1.064
1.05832
1.05148
1.05547
1.07009
1.07742
1.08505
1.08263
1.07327
1.07576
1.07142
1.07472
1.07493
1.06834
1.06895
1.07091
1.07811
1.079
1.08017
1.07448
1.06443
1.06104
1.03825
1.06711
1.03762
1.05468
1.06641
1.02205
1.02702
1.02721
1.04523
1.04294
1.05057
1.0322
1.02111
1.02421
1.0311
1.05526
1.03186
1.02038
1.07533
1.07407
1.07751
1.03501
1.03966
1.04929
1.04264
1.12332
1.11316
1.14126
1.15795
1.18021
1.17833
1.15161
1.2774
1.11278
1.07439
1.16557
1.12752
1.05786
0.977188
0.996704
0.948685
0.977921
0.961753
1.02437
1.11061
1.1136
1.13801
1.14181
1.1661
1.26253
1.27255
1.31207
1.13826
1.15037
1.17309
1.18871
1.18587
1.17476
1.16457
1.16034
1.1708
1.1631
1.15244
1.14306
1.13897
1.13674
1.13676
1.13581
1.13644
1.13483
1.13933
1.14452
1.1448
1.14642
1.14663
1.14457
1.14192
1.14015
1.14162
1.14557
1.14767
1.14531
1.14154
1.13808
1.13665
1.13687
1.13673
1.13728
1.13697
1.13641
1.13623
1.13868
1.14017
1.14354
1.14623
1.14696
1.14438
1.14048
1.13908
1.1378
1.13601
1.13207
1.13343
1.13528
1.13934
1.13802
1.13617
1.13609
1.13778
1.13812
1.13955
1.13895
1.13601
1.12963
1.12207
1.11947
1.11371
1.11192
1.1103
1.10415
1.105
1.10135
1.1025
1.10217
1.09961
1.09996
1.09766
1.09353
1.09786
1.09053
1.0875
1.09494
1.09277
1.07842
1.07602
1.08152
1.0827
1.07255
1.0504
1.04945
1.05175
1.07661
1.09339
1.10169
1.10475
1.10721
1.10651
1.09832
1.09629
1.09661
1.0912
1.10136
1.11617
1.13159
1.12279
1.10329
1.08132
1.06651
1.06026
1.05213
1.0537
1.06148
1.07295
1.08176
1.07979
1.05792
1.04266
1.04378
1.04933
1.05208
1.04281
1.05313
1.07061
1.08638
1.08874
1.07897
1.06838
1.05342
1.06723
1.07073
1.04574
1.04188
1.0165
1.0637
1.07708
1.03418
1.04456
1.03539
1.04342
1.04458
1.05352
1.03224
1.02577
1.03473
1.02479
1.05466
1.04293
1.017
1.07459
1.07336
1.06773
1.03143
1.02668
1.04563
1.03494
1.11117
1.10928
1.12061
1.0868
1.15208
1.14648
1.11342
1.26261
1.03399
1.06551
1.14483
1.08073
1.03576
0.970713
0.978507
0.947295
0.994327
0.959797
1.02494
1.0863
1.09699
1.14969
1.16089
1.18717
1.28934
1.2632
1.2426
1.1354
1.14306
1.161
1.17851
1.18303
1.17612
1.17075
1.15584
1.15194
1.15715
1.15227
1.14657
1.14433
1.1432
1.142
1.14083
1.13792
1.13339
1.13313
1.1381
1.14144
1.14387
1.14516
1.14414
1.14116
1.13618
1.13363
1.1358
1.1412
1.14567
1.14743
1.14701
1.14595
1.14526
1.14553
1.14367
1.1409
1.13924
1.13579
1.13591
1.137
1.14008
1.14401
1.14803
1.1501
1.14667
1.14359
1.14357
1.14616
1.14278
1.1401
1.13839
1.14549
1.14967
1.14712
1.13908
1.13656
1.13862
1.1383
1.13577
1.1307
1.12926
1.12578
1.12052
1.11792
1.1121
1.11134
1.10959
1.10671
1.10588
1.09991
1.10075
1.09842
1.09792
1.10024
1.09272
1.09704
1.09581
1.08832
1.09034
1.0929
1.08103
1.07582
1.08191
1.08296
1.07325
1.05345
1.05368
1.05714
1.08618
1.10094
1.11193
1.11099
1.10871
1.10424
1.09953
1.10152
1.10116
1.0959
1.10799
1.12559
1.12406
1.10998
1.09554
1.08142
1.07269
1.06612
1.05496
1.05971
1.06635
1.0863
1.09336
1.08635
1.06836
1.0474
1.04584
1.05826
1.06025
1.06354
1.05986
1.06768
1.08513
1.08548
1.07525
1.06303
1.05637
1.05036
1.04333
1.05531
1.06318
1.04198
1.06701
1.05982
1.02459
1.04713
1.03355
1.03518
1.03968
1.04435
1.01743
1.02524
1.04238
1.02637
1.06255
1.05119
1.01952
1.08346
1.07701
1.06174
1.02838
1.01027
1.04308
1.0309
1.09148
1.11347
1.10144
1.04443
1.1511
1.09632
1.06274
1.14821
0.943114
1.04522
1.11148
1.04528
1.02002
0.969468
0.950933
0.946556
1.01695
0.964889
1.03762
1.0845
1.09347
1.15543
1.17791
1.21077
1.31127
1.24227
1.24153
1.13327
1.13922
1.15577
1.17577
1.18334
1.17671
1.17017
1.16742
1.15178
1.14961
1.14621
1.1428
1.14094
1.1419
1.14226
1.1441
1.14396
1.13985
1.13502
1.134
1.13491
1.13821
1.14261
1.14597
1.14768
1.14677
1.14265
1.13828
1.13645
1.13711
1.1374
1.13802
1.13775
1.13723
1.13742
1.13648
1.13228
1.13214
1.13498
1.13672
1.13653
1.13685
1.13676
1.13977
1.14321
1.14408
1.14305
1.14131
1.1453
1.14464
1.14453
1.14008
1.14311
1.14811
1.15092
1.14504
1.13635
1.13393
1.13207
1.13141
1.12962
1.12588
1.12751
1.1258
1.1221
1.11923
1.11435
1.11569
1.11022
1.11181
1.10622
1.10423
1.10256
1.09865
1.10192
1.09548
1.09322
1.10028
1.09256
1.0894
1.09835
1.09232
1.07946
1.07941
1.0848
1.08049
1.06255
1.0562
1.06027
1.08916
1.0999
1.11275
1.11061
1.11047
1.10578
1.10664
1.10877
1.10719
1.10333
1.11318
1.13353
1.12562
1.10779
1.09356
1.08551
1.07806
1.07448
1.06253
1.06291
1.06601
1.09296
1.09649
1.09197
1.08328
1.05632
1.05196
1.06309
1.07483
1.06169
1.07387
1.10597
1.10589
1.08394
1.06167
1.05832
1.06466
1.07487
1.06023
1.05237
1.05385
1.0648
1.08222
1.05692
1.03416
1.05502
1.04286
1.04882
1.04506
1.04055
1.01523
1.04635
1.06123
1.03959
1.07449
1.0519
1.0218
1.08917
1.07327
1.05269
1.02451
0.999629
1.04646
1.03278
1.06694
1.10553
1.08769
1.04532
1.13117
1.0455
1.03584
1.04317
0.910863
1.0547
1.08135
1.02038
1.00525
0.955285
0.937355
0.950145
1.01633
0.947255
1.03397
1.09905
1.10131
1.1627
1.19221
1.24196
1.32383
1.22119
1.26045
1.1318
1.13642
1.14773
1.16341
1.17557
1.18065
1.17091
1.16886
1.16287
1.15469
1.15015
1.14513
1.14155
1.14041
1.14026
1.14257
1.14629
1.14813
1.14628
1.1433
1.13937
1.13594
1.13478
1.13561
1.13806
1.14074
1.1438
1.14598
1.14571
1.14546
1.14572
1.14433
1.14146
1.1406
1.13705
1.13596
1.13431
1.13199
1.13455
1.14264
1.14223
1.13823
1.13406
1.13673
1.14401
1.14576
1.14705
1.14898
1.15223
1.14841
1.14273
1.14116
1.14555
1.14821
1.14815
1.14574
1.13875
1.13441
1.12964
1.12741
1.12359
1.12211
1.11874
1.12122
1.1218
1.12607
1.12262
1.12297
1.11912
1.1152
1.11282
1.1067
1.10689
1.10107
1.10247
1.10501
1.0945
1.10135
1.09747
1.09071
1.10083
1.10191
1.08712