/*--------------------------------*- C++ -*----------------------------------*\
| =========                 |                                                 |
| \\      /  F ield         | OpenFOAM: The Open Source CFD Toolbox           |
|  \\    /   O peration     | Version:  dev                                   |
|   \\  /    A nd           | Web:      http://www.openfoam.org               |
|    \\/     M anipulation  |                                                 |
\*---------------------------------------------------------------------------*/
FoamFile
{
    version     2.0;
    format      ascii;
    class       volScalarField;
    object      rho_0;
    location    "9.158";
}
// * * * * * * * * * * * * * * * * * * * * * * * * * * * * * * * * * * * * * //

dimensions      [1 -3 0 0 0 0 0];

internalField   nonuniform List<scalar> 
12225
(
1.08776
1.08959
1.0899
1.09027
1.09166
1.09228
1.0942
1.0951
1.09724
1.09854
1.10074
1.10218
1.10496
1.10596
1.10976
1.1089
1.11677
1.112
1.08978
1.09113
1.09116
1.09125
1.09286
1.09333
1.09552
1.09633
1.09859
1.09977
1.10226
1.10275
1.10682
1.10543
1.11171
1.1062
1.11702
1.10953
1.08979
1.09081
1.09144
1.09104
1.09334
1.0932
1.0959
1.09644
1.09908
1.09972
1.10328
1.10282
1.10735
1.10617
1.11183
1.10841
1.11601
1.11752
1.09002
1.08984
1.09188
1.09039
1.0937
1.0929
1.09599
1.09584
1.09955
1.09864
1.10364
1.1023
1.10809
1.1056
1.11354
1.10785
1.11478
1.12306
1.09074
1.08919
1.09221
1.08993
1.09354
1.09267
1.09561
1.09571
1.09901
1.09877
1.10276
1.10282
1.10758
1.10664
1.1137
1.1099
1.11999
1.12072
1.09091
1.08942
1.09249
1.0902
1.09358
1.09301
1.09567
1.09616
1.09858
1.0994
1.10247
1.10381
1.10715
1.10798
1.11173
1.11295
1.11867
1.11773
1.09043
1.09033
1.09204
1.09141
1.09331
1.09367
1.09583
1.09659
1.0985
1.10024
1.1024
1.10441
1.10662
1.10869
1.11054
1.11346
1.11546
1.11715
1.09045
1.09053
1.09196
1.09136
1.09339
1.09365
1.09583
1.09658
1.09872
1.10032
1.10251
1.10398
1.10625
1.10803
1.11063
1.11237
1.11498
1.1161
1.09013
1.0911
1.09187
1.09181
1.09324
1.09396
1.0956
1.0969
1.09855
1.1006
1.10228
1.1043
1.10577
1.10814
1.1103
1.11229
1.1143
1.11582
1.09047
1.09122
1.092
1.0919
1.09322
1.09401
1.09561
1.09674
1.09845
1.10038
1.1018
1.10416
1.10533
1.10769
1.10977
1.11179
1.11329
1.11499
1.0904
1.09153
1.09205
1.09217
1.09345
1.09421
1.09573
1.09706
1.09851
1.10005
1.10169
1.1039
1.10498
1.10754
1.10912
1.1113
1.11252
1.11446
1.09075
1.09186
1.09225
1.09246
1.09356
1.09438
1.09593
1.09682
1.09847
1.09998
1.10152
1.10349
1.10498
1.10682
1.10861
1.11077
1.11166
1.11386
1.09096
1.09225
1.09256
1.09291
1.0939
1.09462
1.09594
1.097
1.09852
1.09965
1.10148
1.10316
1.10472
1.10623
1.108
1.10985
1.11132
1.11314
1.09137
1.09292
1.0931
1.09343
1.09424
1.09485
1.09591
1.09694
1.09827
1.09954
1.10117
1.1026
1.10433
1.10562
1.10757
1.10905
1.1105
1.11223
1.09197
1.09359
1.09348
1.09395
1.09471
1.09541
1.09634
1.0974
1.09851
1.09975
1.10115
1.10254
1.10414
1.10539
1.10698
1.1084
1.10998
1.11112
1.09304
1.09463
1.09428
1.09466
1.09524
1.09592
1.09675
1.09776
1.09877
1.09996
1.10111
1.10239
1.10372
1.10508
1.10649
1.10784
1.1093
1.1106
1.09402
1.09549
1.09517
1.09555
1.09606
1.09671
1.09741
1.09826
1.09913
1.10021
1.10125
1.10248
1.10374
1.10508
1.1064
1.10779
1.1091
1.11037
1.09523
1.09663
1.09644
1.09667
1.09708
1.09764
1.09835
1.09919
1.10006
1.10107
1.1021
1.10324
1.10433
1.10552
1.10691
1.1081
1.10943
1.11067
1.09636
1.09785
1.09757
1.09778
1.09828
1.09884
1.09952
1.10015
1.10104
1.1019
1.10289
1.10402
1.10514
1.10636
1.10758
1.10883
1.11025
1.11135
1.09721
1.09879
1.09834
1.09877
1.09917
1.09972
1.10033
1.10088
1.10174
1.10251
1.1037
1.10481
1.10609
1.10748
1.10878
1.11022
1.11147
1.11278
1.09822
1.09951
1.09889
1.09949
1.09983
1.10058
1.10133
1.10187
1.10283
1.1035
1.10462
1.10567
1.10699
1.10831
1.10971
1.11112
1.11247
1.11391
1.09849
1.1
1.09968
1.10008
1.10049
1.10114
1.10193
1.10252
1.10347
1.10431
1.10534
1.10653
1.10773
1.10912
1.1105
1.11189
1.11334
1.11465
1.09887
1.10066
1.10052
1.10068
1.10127
1.10176
1.10234
1.10311
1.10392
1.10491
1.10599
1.10722
1.10845
1.10987
1.11119
1.11262
1.114
1.1154
1.09948
1.10096
1.10083
1.101
1.10154
1.102
1.10265
1.10351
1.1043
1.10543
1.10645
1.10765
1.10897
1.11021
1.11168
1.113
1.1145
1.1159
1.09967
1.10141
1.101
1.10117
1.10161
1.10226
1.10306
1.10384
1.10481
1.10574
1.10682
1.10797
1.10918
1.11055
1.11188
1.11336
1.11477
1.11625
1.09981
1.10156
1.10129
1.10151
1.10189
1.10246
1.10316
1.10401
1.10494
1.10597
1.10708
1.10826
1.10956
1.11087
1.1123
1.11369
1.11515
1.11657
1.10011
1.10162
1.1013
1.10154
1.10198
1.10252
1.10322
1.10405
1.10502
1.10609
1.10726
1.1085
1.10981
1.11117
1.11257
1.114
1.11543
1.11684
1.10031
1.10181
1.10138
1.10155
1.10199
1.10259
1.10334
1.1042
1.1052
1.10631
1.10751
1.10879
1.11012
1.11147
1.11283
1.11417
1.11549
1.11676
1.10019
1.102
1.10156
1.10165
1.10201
1.10257
1.10332
1.10422
1.10525
1.10636
1.10752
1.10868
1.10984
1.111
1.11218
1.11333
1.11452
1.11567
1.09924
1.10101
1.10068
1.10077
1.10112
1.10164
1.1023
1.10307
1.10393
1.10484
1.10582
1.10683
1.1079
1.109
1.11014
1.11131
1.11249
1.11367
1.18725
1.21031
1.22127
1.22556
1.22654
1.22606
1.2248
1.22302
1.22094
1.21877
1.21638
1.2137
1.21081
1.20754
1.20411
1.20124
1.19927
1.197
1.19378
1.18979
1.18592
1.18349
1.18106
1.17749
1.17287
1.16816
1.16502
1.16138
1.15554
1.14787
1.13917
1.13396
1.1342
1.13459
1.1338
1.13336
1.13275
1.13172
1.13057
1.12937
1.12813
1.12684
1.12544
1.124
1.1225
1.12102
1.11962
1.11833
1.11713
1.11601
1.11494
1.11391
1.1129
1.11192
1.11094
1.10996
1.10892
1.10785
1.10669
1.10544
1.10411
1.10266
1.10103
1.09928
1.09746
1.0956
1.09366
1.0916
1.08955
1.08739
1.08518
1.08304
1.08119
1.0796
1.07818
1.077
1.07595
1.07482
1.07343
1.07167
1.06965
1.06742
1.06492
1.06224
1.05942
1.05696
1.05491
1.05305
1.05162
1.05078
1.05019
1.04941
1.04859
1.04865
1.04961
1.04957
1.05058
1.05194
1.05138
1.04976
1.05091
1.05646
1.06285
1.06751
1.0648
1.05556
1.04956
1.0447
1.03725
1.03989
1.04986
1.05179
1.05237
1.05863
1.06631
1.06635
1.06414
1.06549
1.06932
1.07563
1.07716
1.06873
1.06358
1.06228
1.07028
1.08987
1.08753
1.083
1.09489
1.09728
1.10149
1.10071
1.09994
1.09702
1.0891
1.0768
1.06657
1.06417
1.06513
1.06627
1.06686
1.06868
1.06984
1.07156
1.07366
1.07673
1.08013
1.08302
1.08506
1.08702
1.08651
1.08535
1.08574
1.08818
1.08635
1.08404
1.09354
1.10615
1.0978
1.06809
1.06798
1.06539
1.04154
1.01611
1.03116
1.08834
1.05341
1.02426
1.01495
1.02337
1.00635
0.991779
0.969248
0.965194
0.99295
1.00493
0.992151
1.0376
1.13383
1.02953
1.18698
1.21515
1.2315
1.23923
1.24211
1.24291
1.24296
1.24245
1.24142
1.2405
1.23957
1.23815
1.23664
1.23507
1.2327
1.22982
1.22765
1.22487
1.22165
1.21629
1.20987
1.20767
1.20319
1.19253
1.17696
1.16563
1.16476
1.16027
1.15322
1.15142
1.15138
1.15032
1.15033
1.15019
1.14856
1.14711
1.14545
1.14362
1.14153
1.13925
1.13661
1.13373
1.13108
1.12858
1.12645
1.12492
1.12359
1.12251
1.12163
1.12063
1.11982
1.11908
1.11846
1.11784
1.11722
1.11649
1.11545
1.11432
1.113
1.11163
1.11005
1.10785
1.10495
1.10186
1.09881
1.09606
1.09277
1.08906
1.08607
1.08276
1.07941
1.07625
1.07393
1.07206
1.07077
1.07032
1.0708
1.07251
1.07514
1.07729
1.07666
1.07341
1.07054
1.07
1.07001
1.07044
1.07107
1.07074
1.06933
1.06696
1.06678
1.06834
1.06911
1.06365
1.06461
1.06908
1.07052
1.07792
1.08081
1.08149
1.07178
1.06737
1.08237
1.09981
1.11373
1.09752
1.06881
1.05682
1.06145
1.07368
1.07263
1.0704
1.07819
1.08379
1.07888
1.07393
1.07984
1.09276
1.1036
1.10082
1.0831
1.06332
1.07564
1.08343
1.10636
1.1373
1.12456
1.12504
1.1421
1.14929
1.14205
1.13903
1.12587
1.12786
1.13429
1.13553
1.12714
1.11686
1.10535
1.09865
1.09723
1.10336
1.11322
1.11687
1.11147
1.11087
1.12223
1.13871
1.15307
1.16657
1.1757
1.17953
1.18132
1.1868
1.18156
1.18629
1.21383
1.23676
1.22647
1.15606
1.1494
1.12843
1.05718
1.07887
1.15952
1.12083
1.05175
1.12447
1.09082
1.06251
1.0257
1.02147
1.02554
0.976514
0.982651
1.05362
1.05643
1.09042
1.32614
1.26041
1.18073
1.20154
1.2155
1.22455
1.22995
1.23269
1.23489
1.23682
1.2377
1.23788
1.23894
1.23991
1.2385
1.23998
1.24477
1.24579
1.23883
1.23023
1.22392
1.21574
1.20416
1.19477
1.18934
1.1793
1.17205
1.16849
1.16509
1.16292
1.16017
1.15825
1.1567
1.15298
1.14988
1.14594
1.14158
1.13833
1.13468
1.13149
1.12837
1.12503
1.12207
1.11946
1.11705
1.11529
1.1136
1.11188
1.11072
1.1092
1.10785
1.10687
1.10559
1.10436
1.10293
1.10136
1.1001
1.09891
1.09773
1.09664
1.09555
1.09415
1.093
1.09152
1.08952
1.08718
1.0848
1.08264
1.08007
1.07689
1.07408
1.07143
1.06875
1.06649
1.06522
1.06345
1.06166
1.05997
1.05838
1.05843
1.06098
1.06463
1.06348
1.05423
1.04604
1.04732
1.05648
1.06458
1.06741
1.06735
1.06651
1.06835
1.06932
1.06372
1.06319
1.06778
1.06826
1.06831
1.07335
1.08312
1.0856
1.08484
1.07338
1.07091
1.08
1.0867
1.09377
1.08291
1.06676
1.06556
1.07411
1.07505
1.06946
1.06903
1.07013
1.07
1.06024
1.05333
1.05532
1.07196
1.09051
1.07531
1.05659
1.05961
1.09114
1.09324
1.12151
1.10953
1.11229
1.15359
1.13793
1.1576
1.13724
1.1249
1.09099
1.0877
1.10394
1.1244
1.13683
1.13671
1.12773
1.11716
1.1111
1.11558
1.12189
1.13091
1.13761
1.13538
1.12853
1.1317
1.15766
1.19016
1.21643
1.23572
1.24085
1.2386
1.22395
1.22865
1.24227
1.23735
1.22896
1.22303
1.19613
1.17577
1.0667
1.01205
1.06314
1.03417
0.912542
1.06045
1.11423
1.09548
1.01731
0.965093
1.02562
0.985483
0.96172
1.03093
1.07082
1.13236
1.22863
1.31004
1.17594
1.19113
1.20168
1.20994
1.21671
1.22077
1.22457
1.22819
1.23129
1.23346
1.23585
1.23896
1.23978
1.24596
1.24661
1.23186
1.21763
1.21394
1.20246
1.18939
1.18443
1.17437
1.16659
1.16119
1.15712
1.1545
1.15159
1.14907
1.14615
1.14374
1.14088
1.13765
1.13501
1.13226
1.13009
1.12875
1.12741
1.12672
1.12625
1.12597
1.12691
1.12746
1.12791
1.12798
1.12736
1.12653
1.12473
1.12319
1.1215
1.11977
1.1185
1.11638
1.11406
1.11168
1.10917
1.10737
1.1054
1.10354
1.10184
1.09972
1.09782
1.09663
1.09563
1.09433
1.09332
1.09162
1.09
1.08865
1.08622
1.08359
1.08048
1.07716
1.07482
1.0721
1.06965
1.06751
1.06499
1.06277
1.06095
1.06301
1.06597
1.05778
1.04015
1.03269
1.04392
1.05998
1.05731
1.04738
1.04384
1.04909
1.05227
1.04055
1.03478
1.0461
1.05746
1.0606
1.06805
1.07824
1.07514
1.07737
1.08199
1.07782
1.07227
1.0809
1.09147
1.07733
1.06182
1.06917
1.07676
1.07363
1.07881
1.08233
1.08616
1.07816
1.04969
1.01857
1.00788
1.02904
1.03875
1.03768
1.06097
1.09781
1.12003
1.12645
1.11702
1.09112
1.10764
1.14225
1.11308
1.18662
1.15263
1.11762
1.0752
1.06661
1.08073
1.10783
1.12558
1.13446
1.12769
1.11779
1.11087
1.12174
1.14035
1.13465
1.11833
1.11621
1.12065
1.12261
1.13944
1.17298
1.21605
1.26114
1.27933
1.26691
1.24165
1.22663
1.2069
1.17857
1.18946
1.3024
1.2268
1.23015
1.14802
1.06693
0.95514
0.979218
0.934485
0.974708
1.07742
1.11181
1.05051
0.96142
1.01701
1.00096
0.941922
1.0027
1.05432
1.14854
1.21409
1.32313
1.1723
1.18448
1.19475
1.20326
1.21026
1.21437
1.21772
1.22104
1.22318
1.229
1.23631
1.23951
1.23739
1.23045
1.22211
1.21511
1.20495
1.19534
1.18395
1.17323
1.16619
1.15769
1.15344
1.14969
1.14719
1.14662
1.1431
1.14197
1.14103
1.13965
1.13912
1.13863
1.13905
1.14021
1.1417
1.14269
1.1437
1.14314
1.1433
1.14322
1.14242
1.14197
1.14058
1.13866
1.13637
1.13418
1.13201
1.12997
1.1278
1.12606
1.12416
1.12247
1.12122
1.11986
1.11853
1.11748
1.11622
1.11432
1.11284
1.11154
1.10996
1.10855
1.10702
1.10516
1.1038
1.10217
1.10032
1.09846
1.09618
1.09304
1.08992
1.08538
1.08024
1.07294
1.06497
1.05892
1.05563
1.05569
1.05642
1.0585
1.06013
1.06036
1.05183
1.0435
1.04346
1.04942
1.0419
1.02487
1.01914
1.02445
1.02518
1.02063
1.01746
1.02141
1.02677
1.0342
1.04868
1.06129
1.06825
1.07538
1.08285
1.07214
1.0683
1.08634
1.09376
1.07639
1.06826
1.08134
1.08361
1.09318
1.11193
1.1117
1.10308
1.06152
1.03166
1.02226
1.03964
1.06031
1.05059
1.06208
1.07805
1.09087
1.12777
1.12982
1.09504
1.06321
1.09473
1.01062
0.993438
1.17981
1.15111
1.08697
1.03197
1.02091
1.04816
1.08439
1.11515
1.12856
1.13717
1.13093
1.12331
1.12071
1.14266
1.17867
1.17915
1.1395
1.11338
1.10275
1.11768
1.14451
1.18462
1.24727
1.29596
1.285
1.24922
1.21991
1.177
1.15015
1.18859
1.35348
1.21594
1.24233
1.15216
1.0512
1.12977
1.07182
1.01061
1.03071
1.14945
1.1146
1.02638
0.952991
1.01566
1.02235
0.942124
0.983009
1.03828
1.14434
1.20197
1.31189
1.16982
1.18101
1.1927
1.20292
1.21043
1.21588
1.21754
1.21793
1.21827
1.2224
1.22924
1.23016
1.22477
1.22052
1.20996
1.19685
1.18866
1.18059
1.16762
1.15862
1.1543
1.14972
1.14775
1.148
1.14574
1.14485
1.14576
1.14553
1.14674
1.14722
1.14786
1.14869
1.14953
1.1502
1.15021
1.14929
1.14731
1.14485
1.14226
1.13957
1.13681
1.13373
1.13097
1.12806
1.12538
1.12314
1.12047
1.11875
1.11677
1.11499
1.11322
1.11153
1.11018
1.10873
1.10731
1.10604
1.10518
1.10388
1.10305
1.10213
1.1015
1.1006
1.09982
1.09896
1.09859
1.09847
1.09847
1.09798
1.09746
1.09581
1.09361
1.0913
1.08971
1.08688
1.08088
1.0737
1.06702
1.06126
1.05845
1.05888
1.05649
1.05539
1.05458
1.05313
1.04814
1.03692
1.02396
1.01906
1.02116
1.02192
1.0186
1.02435
1.03924
1.04332
1.03547
1.02997
1.03239
1.03932
1.05625
1.06741
1.0715
1.07261
1.07812
1.09253
1.09091
1.07858
1.08381
1.08975
1.08499
1.09182
1.09974
1.09307
1.07105
1.02859
1.02934
1.04587
1.06373
1.06626
1.05963
1.0634
1.05756
1.05705
1.10394
1.1293
1.08587
1.0428
1.09624
1.05852
0.940309
1.01097
1.07215
1.06114
1.04674
1.01471
1.03587
1.04566
1.09539
1.10117
1.11809
1.12654
1.1446
1.14611
1.16196
1.19916
1.22762
1.16877
1.10751
1.07395
1.08114
1.12447
1.15138
1.20392
1.27732
1.29238
1.25941
1.21559
1.15928
1.12923
1.1565
1.33236
1.27348
1.24531
1.17278
1.17825
1.16752
1.2453
0.99989
1.05098
1.13206
1.04446
0.978337
0.947633
1.02292
1.03699
0.945524
0.96952
1.02623
1.13174
1.20225
1.31654
1.16731
1.17673
1.18849
1.20019
1.20921
1.21802
1.22152
1.22048
1.21535
1.21574
1.22023
1.21876
1.21933
1.21128
1.18889
1.18111
1.1746
1.16136
1.15373
1.15067
1.14875
1.14751
1.14716
1.14677
1.14831
1.14894
1.15052
1.15177
1.1528
1.15247
1.15278
1.15118
1.14949
1.14834
1.14579
1.14353
1.1408
1.13823
1.13649
1.13427
1.13244
1.13119
1.1297
1.12874
1.12804
1.1272
1.12652
1.12618
1.12505
1.12441
1.12393
1.12288
1.12175
1.12017
1.11852
1.11613
1.1137
1.11125
1.10915
1.10651
1.10381
1.10151
1.09958
1.0978
1.09636
1.09537
1.09451
1.09359
1.0939
1.09439
1.09285
1.09102
1.08978
1.08942
1.08785
1.08536
1.08275
1.07503
1.06722
1.0636
1.06307
1.05729
1.05177
1.04836
1.04349
1.03417
1.02552
1.02171
1.0202
1.02304
1.0286
1.03355
1.04204
1.05041
1.05768
1.06088
1.05248
1.04292
1.05076
1.05841
1.06058
1.07368
1.08159
1.08439
1.08314
1.0861
1.09414
1.07563
1.0641
1.06448
1.06665
1.0679
1.04955
1.03265
1.04802
1.06391
1.06511
1.05975
1.06391
1.0652
1.06361
1.06433
1.07319
1.14902
1.17064
1.13313
1.0425
1.05428
1.11329
1.02611
1.03873
1.02777
1.05323
1.02612
1.04596
1.04242
1.06799
1.06074
1.05453
1.05466
1.07912
1.09708
1.12262
1.14466
1.17821
1.14725
1.09829
1.06414
1.04243
1.08753
1.12333
1.15701
1.23591
1.27829
1.26873
1.22276
1.15417
1.11884
1.11343
1.21799
1.37713
1.33502
1.348
1.34664
1.17924
1.15264
0.916269
0.99698
1.09984
1.02029
0.958141
0.951175
1.0656
1.07185
0.957587
0.958055
1.02285
1.12427
1.19719
1.30813
1.16493
1.17378
1.1882
1.20333
1.21284
1.22128
1.2253
1.22171
1.21634
1.2128
1.21141
1.21558
1.22213
1.20749
1.17509
1.16708
1.17162
1.16188
1.15465
1.15264
1.15338
1.15154
1.15203
1.15201
1.1532
1.15478
1.15592
1.15559
1.15576
1.15314
1.15132
1.14921
1.14683
1.14579
1.14381
1.14257
1.14177
1.14071
1.14003
1.13954
1.13899
1.13889
1.1382
1.13802
1.13758
1.137
1.13652
1.13612
1.13546
1.13498
1.13452
1.13357
1.13325
1.13248
1.13172
1.13044
1.12908
1.12727
1.12529
1.12316
1.12034
1.11721
1.11449
1.11178
1.10879
1.10589
1.10258
1.09839
1.09536
1.09368
1.09293
1.09152
1.09066
1.08755
1.08323
1.07993
1.08086
1.07899
1.07126
1.06232
1.06224
1.06129
1.06031
1.05464
1.04595
1.03619
1.03096
1.02555
1.01538
1.0111
1.0188
1.02914
1.03367
1.03758
1.05084
1.06497
1.06301
1.05295
1.05714
1.05917
1.06246
1.07801
1.08198
1.07523
1.07705
1.0952
1.0883
1.05765
1.05263
1.05245
1.05336
1.06023
1.04499
1.04812
1.06107
1.06631
1.06524
1.06349
1.06993
1.07138
1.06686
1.06959
1.07911
1.13189
1.12482
1.10849
1.09564
0.97688
1.07238
1.0769
1.07143
1.07976
1.07758
1.05114
1.03496
1.05766
1.06009
1.04462
1.02039
1.01968
1.03255
1.04501
1.07725
1.0952
1.11979
1.11744
1.10567
1.09401
1.05531
1.06888
1.10453
1.1206
1.18896
1.25088
1.26847
1.2403
1.16581
1.12999
1.1024
1.12427
1.34806
1.36344
1.31265
0.96689
1.37704
1.15821
0.996988
1.02015
1.06135
0.978816
0.959448
0.945229
1.07347
1.08119
0.963852
0.955567
1.02636
1.12364
1.208
1.30005
1.16311
1.17346
1.19269
1.21248
1.22176
1.22335
1.22654
1.22445
1.21896
1.21352
1.21396
1.22386
1.22029
1.19772
1.17049
1.15944
1.15621
1.14812
1.14828
1.14858
1.15005
1.15096
1.15446
1.15687
1.15774
1.15809
1.15635
1.15321
1.15169
1.14989
1.14824
1.1476
1.14642
1.14594
1.14602
1.14547
1.14455
1.1437
1.14306
1.14231
1.14116
1.14063
1.13927
1.13869
1.13756
1.13675
1.13578
1.13476
1.13368
1.13243
1.13144
1.13021
1.12927
1.1288
1.129
1.12856
1.12743
1.12617
1.1254
1.12487
1.12386
1.12093
1.11828
1.11599
1.11434
1.11342
1.11175
1.10877
1.10408
1.09815
1.09408
1.08979
1.09142
1.09474
1.09044
1.0842
1.08231
1.08667
1.08268
1.0692
1.05972
1.05626
1.0608
1.0661
1.06514
1.05197
1.04052
1.03106
1.02086
1.01714
1.02766
1.03988
1.0436
1.04873
1.06176
1.07352
1.07014
1.0611
1.0653
1.06345
1.06725
1.08164
1.08377
1.0784
1.08213
1.09977
1.07394
1.04686
1.04714
1.04864
1.0466
1.05106
1.04028
1.05282
1.06614
1.07407
1.0755
1.07051
1.06293
1.06046
1.05999
1.06434
1.07317
1.08026
1.05625
1.01905
1.08791
1.0487
1.08723
1.08956
1.00306
1.05899
1.07682
1.09212
1.04403
1.06053
1.0684
1.06282
1.02331
1.00262
1.01948
1.02248
1.05378
1.0668
1.10304
1.13014
1.11434
1.09389
1.05369
1.05227
1.09157
1.09675
1.14661
1.21143
1.24977
1.25707
1.18985
1.15219
1.11179
1.07909
1.21205
1.26535
1.11267
0.991369
1.41857
1.1501
1.01763
1.04484
1.03498
0.951228
0.966025
1.00541
1.12676
1.09698
0.975411
0.9735
1.03731
1.13586
1.22127
1.3014
1.16193
1.17492
1.19774
1.21664
1.22193
1.21821
1.2164
1.21748
1.22023
1.21995
1.21708
1.21773
1.20289
1.18204
1.16259
1.16044
1.16013
1.15091
1.15083
1.15337
1.15629
1.1569
1.15702
1.15772
1.15592
1.1547
1.15319
1.15153
1.15119
1.14999
1.14907
1.14895
1.14922
1.14857
1.14778
1.14649
1.14466
1.14344
1.14218
1.14085
1.13952
1.13879
1.13731
1.13702
1.13602
1.13532
1.13465
1.13361
1.13218
1.13058
1.12916
1.12763
1.12601
1.12473
1.12551
1.12719
1.12719
1.12531
1.12372
1.12429
1.12498
1.12198
1.11759
1.11349
1.10957
1.1091
1.1099
1.11287
1.11329
1.10954
1.10461
1.09567
1.08682
1.09046
1.09257
1.08527
1.08078
1.08828
1.09183
1.0816
1.0668
1.06267
1.06374
1.06729
1.06825
1.06138
1.04751
1.0344
1.02359
1.02339
1.0386
1.05159
1.05271
1.05745
1.07044
1.08169
1.07604
1.06993
1.07242
1.06765
1.07112
1.08639
1.08949
1.09041
1.09632
1.09899
1.06285
1.04735
1.05215
1.04805
1.04309
1.0489
1.04947
1.06863
1.07431
1.07809
1.07152
1.06932
1.06163
1.0551
1.05739
1.06092
1.07387
1.05795
1.07425
1.07513
1.0992
1.05971
1.06232
1.11924
1.01555
1.05575
1.05678
1.0721
1.03068
1.04841
1.06768
1.07389
1.05382
1.00582
1.01574
1.01531
1.02467
1.01477
1.04899
1.11773
1.1118
1.08896
1.05749
1.03591
1.0762
1.07968
1.11519
1.18252
1.21991
1.26277
1.21512
1.17534
1.14037
1.08716
1.08188
1.08391
1.06864
1.16956
1.31453
1.09964
0.960872
1.01611
1.02637
0.958819
0.940854
1.00204
1.14261
1.11106
0.998579
1.00637
1.05832
1.15942
1.23293
1.30369
1.16038
1.1751
1.19857
1.212
1.21284
1.21194
1.21347
1.21465
1.21816
1.22096
1.21058
1.19682
1.18358
1.17017
1.15725
1.15309
1.15384
1.14743
1.15117
1.15315
1.15493
1.15944
1.16012
1.1609
1.15846
1.1542
1.15087
1.14823
1.14856
1.1496
1.15068
1.15053
1.14881
1.14669
1.14535
1.14427
1.14274
1.14192
1.14081
1.13998
1.13948
1.13966
1.13909
1.1391
1.13875
1.1385
1.13867
1.13932
1.13873
1.13673
1.13582
1.13484
1.13331
1.12996
1.12808
1.13013
1.1323
1.13026
1.12439
1.12238
1.12473
1.12466
1.11842
1.11158
1.10399
1.10082
1.09986
1.10323
1.11019
1.11197
1.10951
1.10914
1.09743
1.08974
1.09412
1.0895
1.07939
1.08058
1.08858
1.08421
1.06829
1.06534
1.0675
1.07215
1.06772
1.05719
1.03849
1.03151
1.03318
1.04324
1.05603
1.06678
1.0691
1.07282
1.08069
1.08458
1.0784
1.07591
1.07701
1.07107
1.07558
1.09448
1.09845
1.09916
1.09913
1.08573
1.05498
1.05123
1.05452
1.04591
1.04474
1.05665
1.0673
1.08673
1.07737
1.0676
1.05997
1.06093
1.0684
1.06343
1.06314
1.05152
1.06622
1.06766
1.0803
1.07219
1.08278
1.07884
1.02984
1.09462
1.02253
1.05885
1.06086
1.04561
1.00944
1.0299
1.06786
1.05805
1.06694
1.02215
1.01126
1.02484
1.04395
1.02077
1.01447
1.08059
1.09962
1.08531
1.07223
1.03423
1.06275
1.06491
1.08462
1.15457
1.18559
1.24506
1.22242
1.19001
1.17588
1.14187
1.08701
0.972278
1.01736
1.0972
1.20603
1.06999
0.982907
1.0285
0.995211
0.94993
0.981845
1.04577
1.15799
1.12923
1.03706
1.04438
1.08576
1.18483
1.23387
1.31667
1.15891
1.17538
1.20046
1.21157
1.20709
1.20285
1.20426
1.20822
1.21051
1.20642
1.19498
1.17914
1.17078
1.16229
1.1559
1.15224
1.15257
1.14693
1.15241
1.15701
1.15679
1.16005
1.15737
1.15312
1.14941
1.14725
1.14773
1.14928
1.14985
1.14899
1.14802
1.14805
1.14772
1.14699
1.14579
1.14457
1.14282
1.14147
1.1406
1.14087
1.14124
1.14205
1.1427
1.14305
1.14181
1.14069
1.13922
1.1394
1.13978
1.1368
1.1351
1.13493
1.13615
1.13479
1.13117
1.13126
1.13655
1.14015
1.13389
1.1256
1.12451
1.13005
1.12945
1.12219
1.11234
1.10409
1.1021
1.10068
1.10711
1.11578
1.11037
1.11073
1.10619
1.09355
1.09217
1.09625
1.08984
1.08604
1.09174
1.08979
1.07673
1.07192
1.07241
1.07482
1.06726
1.05568
1.03522
1.03352
1.04148
1.05842
1.07114
1.07968
1.0826
1.08958
1.09708
1.09346
1.08458
1.08011
1.08142
1.07482
1.08331
1.10745
1.11396
1.10351
1.09204
1.07211
1.05344
1.05768
1.04853
1.03505
1.04554
1.06104
1.06953
1.07933
1.06997
1.06044
1.05289
1.04977
1.05672
1.06894
1.06877
1.07152
1.07773
1.06651
1.07563
1.06654
1.08144
1.08334
1.03256
1.09514
1.03958
1.07732
1.09284
1.05818
1.02327
1.01807
1.06646
1.05072
1.0639
1.03439
1.01109
1.01422
1.04559
1.03651
1.00677
1.05552
1.09448
1.08347
1.07828
1.03311
1.05194
1.05507
1.06283
1.13073
1.15471
1.21029
1.21839
1.20733
1.20259
1.17601
1.15429
1.02626
1.01375
1.12776
1.16241
1.08568
0.987063
1.02139
0.994945
0.939029
0.947401
1.04176
1.15595
1.13654
1.0797
1.08207
1.1153
1.21103
1.23746
1.36177
1.15603
1.17047
1.19431
1.20703
1.20242
1.19644
1.19362
1.19289
1.19582
1.19492
1.17932
1.16744
1.16271
1.16084
1.15592
1.15297
1.15169
1.14662
1.14952
1.15257
1.15247
1.15529
1.15515
1.15347
1.15032
1.14847
1.14843
1.15041
1.15353
1.1554
1.15374
1.15155
1.14869
1.14574
1.14401
1.1427
1.14067
1.13939
1.13967
1.14179
1.14432
1.14635
1.1471
1.14843
1.14738
1.14575
1.14244
1.13996
1.14059
1.13759
1.13412
1.13141
1.13204
1.13333
1.13248
1.12925
1.13143
1.13861
1.1398
1.13002
1.1207
1.12055
1.12647
1.12589
1.12107
1.11008
1.10452
1.10168
1.09954
1.10907
1.11198
1.1094
1.11131
1.10327
1.09202
1.09314
1.08865
1.0839
1.08871
1.08947
1.0791
1.07363
1.07648
1.07721
1.06755
1.05735
1.03898
1.04116
1.04705
1.05961
1.07102
1.08127
1.08767
1.09706
1.1032
1.09567
1.08921
1.08563
1.08433
1.08145
1.09599
1.12396
1.1302
1.11144
1.08938
1.06851
1.06202
1.06429
1.04703
1.04694
1.06148
1.07079
1.07858
1.08358
1.08037
1.07787
1.06119
1.05723
1.05033
1.04718
1.04833
1.07638
1.08926
1.07006
1.06669
1.05594
1.06887
1.09509
1.06003
1.09753
1.02203
1.04208
1.08113
1.05298
1.04247
1.02462
1.05299
1.04759
1.05721
1.03679
1.02443
1.02462
1.04393
1.04548
1.00687
1.02917
1.08321
1.0775
1.07952
1.03302
1.04442
1.04938
1.04952
1.12199
1.12649
1.16741
1.20249
1.21399
1.20037
1.16925
1.2145
1.08639
1.05143
1.14896
1.16247
1.07706
0.993108
1.01472
0.981421
0.982644
0.965891
1.03637
1.14195
1.1316
1.11544
1.1157
1.14327
1.23681
1.25854
1.37503
1.15278
1.16561
1.18871
1.20263
1.19731
1.18859
1.18584
1.18736
1.18199
1.17453
1.16555
1.15574
1.1522
1.15372
1.15404
1.15381
1.155
1.15151
1.15454
1.15602
1.1549
1.15557
1.15254
1.14921
1.14678
1.14629
1.14676
1.14668
1.14581
1.14505
1.14442
1.14489
1.14441
1.14258
1.14113
1.14024
1.13872
1.13908
1.14119
1.14403
1.14706
1.15021
1.14955
1.14891
1.14694
1.14497
1.14298
1.1396
1.13911
1.13852
1.13862
1.13646
1.13656
1.13691
1.1393
1.13781
1.13581
1.13822
1.1445
1.14177
1.13263
1.12246
1.12123
1.12161
1.12102
1.11815
1.11002
1.10734
1.10463
1.10122
1.10653
1.10341
1.10544
1.10627
1.09907
1.09835
1.09655
1.08756
1.08833
1.0939
1.08605
1.07431
1.07534
1.07881
1.07582
1.06572
1.04469
1.04555
1.05099
1.06737
1.07957
1.08936
1.09811
1.1068
1.10817
1.09835
1.09319
1.09142
1.08746
1.09167
1.10751
1.13501
1.13598
1.11391
1.0863
1.06924
1.06444
1.05884
1.05226
1.05608
1.07081
1.07845
1.08649
1.08499
1.07634
1.07908
1.07437
1.07774
1.07829
1.071
1.07085
1.07383
1.08188
1.08239
1.08395
1.07814
1.06794
1.0651
1.04387
1.07342
1.04149
1.05968
1.0681
1.02355
1.03076
1.03095
1.04892
1.04512
1.05092
1.03068
1.02031
1.02364
1.03174
1.0523
1.02524
1.01908
1.07343
1.0679
1.06892
1.02689
1.03348
1.04263
1.03798
1.11855
1.10664
1.13524
1.15137
1.17483
1.17361
1.15019
1.27545
1.11001
1.07539
1.16783
1.12927
1.05858
0.979609
1.00049
0.952996
0.9804
0.965496
1.02981
1.11487
1.11563
1.1393
1.14276
1.16837
1.26441
1.27048
1.30638
1.14997
1.16202
1.18472
1.20063
1.19823
1.18699
1.17643
1.17096
1.18138
1.17413
1.16343
1.15412
1.14998
1.14736
1.14705
1.14578
1.14578
1.14391
1.14814
1.15319
1.15336
1.15479
1.15481
1.15241
1.14935
1.14709
1.14834
1.15217
1.15399
1.15126
1.14719
1.14343
1.14184
1.14187
1.14149
1.14163
1.14086
1.13996
1.13953
1.1418
1.14312
1.1464
1.14884
1.14919
1.14625
1.14227
1.1409
1.1395
1.13748
1.13364
1.13529
1.13724
1.14102
1.13934
1.13763
1.13784
1.13958
1.13994
1.14147
1.14071
1.13752
1.13087
1.12358
1.12122
1.1156
1.11411
1.11228
1.10627
1.10732
1.10369
1.1052
1.10475
1.10232
1.10278
1.10026
1.09642
1.10065
1.09304
1.09046
1.09799
1.09524
1.08084
1.07885
1.08434
1.08515
1.07457
1.05237
1.0517
1.05431
1.07895
1.09531
1.10325
1.10646
1.10907
1.1082
1.09974
1.09765
1.09789
1.09243
1.10253
1.11726
1.13251
1.1237
1.1047
1.08317
1.06839
1.06208
1.05387
1.05544
1.06323
1.07488
1.08401
1.08252
1.0612
1.04639
1.0479
1.05323
1.0563
1.04715
1.05805
1.07568
1.09037
1.09266
1.08322
1.07326
1.05962
1.07431
1.07569
1.04818
1.04504
1.02296
1.07256
1.0797
1.03629
1.04823
1.03879
1.04758
1.04793
1.05456
1.03193
1.02641
1.03398
1.02527
1.05379
1.03712
1.01551
1.07357
1.06749
1.05965
1.02348
1.02102
1.03972
1.03046
1.10626
1.10338
1.1139
1.08085
1.14827
1.14183
1.11226
1.25808
1.03419
1.06838
1.1477
1.0831
1.03743
0.972746
0.983219
0.950876
0.995459
0.963355
1.02968
1.09037
1.10004
1.15218
1.16227
1.18955
1.29067
1.25953
1.2389
1.1459
1.15334
1.17113
1.18901
1.1941
1.18731
1.18202
1.16704
1.16122
1.16665
1.16198
1.15652
1.1543
1.15324
1.15185
1.15063
1.1473
1.14237
1.14147
1.14589
1.14893
1.15116
1.15233
1.1512
1.148
1.14278
1.13994
1.14174
1.14677
1.15097
1.15242
1.1518
1.15051
1.1496
1.14952
1.1471
1.14397
1.14213
1.13877
1.13903
1.14012
1.14319
1.14702
1.15086
1.15243
1.14863
1.1457
1.14598
1.14828
1.14447
1.14189
1.14083
1.1483
1.15177
1.14846
1.14056
1.13879
1.14103
1.14054
1.13784
1.13288
1.13154
1.1278
1.12264
1.12006
1.11441
1.11397
1.11209
1.10941
1.10847
1.10271
1.1038
1.10146
1.10124
1.10333
1.09589
1.10052
1.0989
1.09154
1.09394
1.09618
1.08408
1.07929
1.08556
1.08633
1.0762
1.05634
1.05694
1.06064
1.08973
1.10443
1.11504
1.11406
1.11173
1.1072
1.10229
1.10425
1.10383
1.09848
1.11044
1.12824
1.12677
1.11263
1.09836
1.08457
1.07594
1.06952
1.05815
1.06272
1.06926
1.08949
1.09698
1.09029
1.07206
1.0512
1.04986
1.06227
1.06379
1.06729
1.06361
1.07106
1.08966
1.09102
1.08123
1.06855
1.06074
1.05504
1.05017
1.06211
1.06747
1.04563
1.07339
1.06248
1.02883
1.05237
1.0369
1.03948
1.0436
1.04567
1.01872
1.02784
1.04236
1.02716
1.06282
1.04612
1.01861
1.08334
1.07131
1.05422
1.02039
1.00528
1.0383
1.02643
1.08659
1.10783
1.09421
1.04
1.14762
1.09124
1.06067
1.14275
0.944255
1.04878
1.11386
1.04745
1.02202
0.972201
0.955533
0.950539
1.01983
0.969953
1.04275
1.08824
1.09708
1.15875
1.17993
1.2138
1.31175
1.23824
1.23988
1.14267
1.14855
1.16485
1.18483
1.19287
1.18693
1.17994
1.17798
1.16201
1.15877
1.15519
1.15164
1.14957
1.15039
1.15068
1.1526
1.1526
1.14857
1.14346
1.14183
1.14218
1.14502
1.14903
1.15217
1.1538
1.15282
1.1486
1.14408
1.14193
1.14217
1.14212
1.1424
1.14171
1.14102
1.14077
1.13936
1.13516
1.13552
1.13863
1.14019
1.13965
1.13968
1.13959
1.14283
1.14613
1.14666
1.14544
1.14403
1.14806
1.14707
1.14672
1.14251
1.14623
1.15121
1.1533
1.14671
1.13835
1.13646
1.13478
1.13417
1.13226
1.12877
1.13057
1.12852
1.12479
1.12183
1.11725
1.11862
1.11321
1.11493
1.10921
1.10751
1.1058
1.10213
1.10543
1.09882
1.0971
1.10408
1.09609
1.09342
1.10237
1.09585
1.08318
1.08358
1.08893
1.08425
1.06624
1.06037
1.06463
1.09364
1.10425
1.1172
1.11503
1.1147
1.10994
1.1107
1.11286
1.11129
1.10734
1.11694
1.13761
1.13025
1.11247
1.09806
1.08997
1.0825
1.07912
1.06713
1.0673
1.07032
1.09751
1.10148
1.09713
1.08818
1.06092
1.05659
1.0677
1.07953
1.06745
1.08048
1.11238
1.11149
1.08885
1.06728
1.06526
1.07219
1.08046
1.06342
1.05691
1.06007
1.07102
1.08753
1.05973
1.03901
1.06081
1.04701
1.05299
1.04853
1.04217
1.01835
1.05057
1.06137
1.04049
1.07459
1.04735
1.02184
1.0895
1.06765
1.04607
1.01746
0.995618
1.04264
1.028
1.06198
1.09992
1.08094
1.04129
1.12659
1.0409
1.03319
1.03984
0.910836
1.05718
1.08282
1.02202
1.00798
0.958962
0.941561
0.953712
1.0204
0.953217
1.04067
1.10315
1.10533
1.16663
1.19468
1.24518
1.32316
1.21754
1.2577
1.14017
1.14505
1.15642
1.17194
1.18368
1.18942
1.17946
1.17723
1.1723
1.1639
1.15913
1.15382
1.14987
1.14821
1.14764
1.14957
1.15315
1.15523
1.1536
1.15066
1.14654
1.14274
1.1411
1.14146
1.14349
1.14588
1.14889
1.15093
1.15062
1.15029
1.15038
1.14875
1.14579
1.14478
1.14099
1.13988
1.13806
1.13598
1.13921
1.14697
1.14526
1.14053
1.13675
1.14045
1.14771
1.14894
1.15017
1.15224
1.15498
1.15046
1.14505
1.14428
1.14897
1.15131
1.15097
1.14816
1.1411
1.13693
1.13234
1.1302
1.12647
1.12505
1.12202
1.12479
1.12546
1.12957
1.1259
1.12635
1.12227
1.11854
1.11607
1.11015
1.11044
1.10471
1.10652
1.10876
1.09841
1.1056
1.10144
1.09505
1.10548
1.10616
1.09134
1.08962
1.09861