/*--------------------------------*- C++ -*----------------------------------*\
| =========                 |                                                 |
| \\      /  F ield         | OpenFOAM: The Open Source CFD Toolbox           |
|  \\    /   O peration     | Version:  dev                                   |
|   \\  /    A nd           | Web:      http://www.openfoam.org               |
|    \\/     M anipulation  |                                                 |
\*---------------------------------------------------------------------------*/
FoamFile
{
    version     2.0;
    format      ascii;
    class       volScalarField;
    object      T;
    location    "9.158";
}
// * * * * * * * * * * * * * * * * * * * * * * * * * * * * * * * * * * * * * //

dimensions      [0 0 0 1 0 0 0];

internalField   nonuniform List<scalar> 
12225
(
296.892
296.28
296.336
296.524
296.487
296.764
296.714
297.042
297.031
297.371
297.405
297.785
297.746
298.34
298.077
299.162
297.793
298.571
296.243
295.704
295.859
296.132
296.054
296.367
296.263
296.601
296.578
296.935
296.917
297.54
297.165
298.403
297.475
299.888
297.825
300.292
296.219
295.784
295.784
296.191
295.93
296.399
296.164
296.57
296.448
296.943
296.645
297.516
297.024
298.187
297.417
299.245
297.891
298.856
296.162
296.057
295.68
296.377
295.845
296.487
296.143
296.739
296.323
297.228
296.551
297.648
296.82
298.292
296.949
299.291
298.312
297.012
295.976
296.255
295.611
296.518
295.906
296.562
296.257
296.783
296.472
297.192
296.782
297.491
296.93
297.966
296.811
298.64
296.9
297.289
295.953
296.22
295.558
296.466
295.914
296.49
296.26
296.668
296.6
297.023
296.864
297.214
297.031
297.579
297.296
297.806
296.979
297.944
296.117
296.009
295.715
296.171
296.012
296.341
296.238
296.565
296.642
296.801
296.884
297.037
297.157
297.343
297.598
297.571
297.724
297.993
296.154
295.993
295.775
296.221
296.027
296.375
296.261
296.591
296.6
296.789
296.852
297.139
297.235
297.484
297.527
297.768
297.777
298.136
296.289
295.882
295.843
296.138
296.102
296.322
296.355
296.528
296.662
296.724
296.913
297.045
297.342
297.421
297.548
297.713
297.843
298.09
296.244
295.903
295.865
296.166
296.16
296.356
296.391
296.606
296.716
296.795
297.051
297.073
297.439
297.5
297.624
297.753
297.996
298.171
296.36
295.896
295.927
296.167
296.165
296.361
296.414
296.564
296.728
296.906
297.094
297.136
297.513
297.496
297.73
297.795
298.09
298.182
296.349
295.906
295.974
296.185
296.224
296.398
296.429
296.688
296.79
296.959
297.158
297.25
297.493
297.64
297.804
297.84
298.214
298.208
296.426
295.939
296.025
296.195
296.251
296.441
296.523
296.722
296.839
297.096
297.2
297.35
297.546
297.762
297.909
298.01
298.207
298.271
296.476
295.941
296.057
296.22
296.314
296.519
296.658
296.848
297.001
297.205
297.332
297.531
297.66
297.913
297.987
298.163
298.346
298.423
296.561
296.004
296.187
296.302
296.395
296.558
296.713
296.877
297.065
297.255
297.422
297.612
297.748
297.987
298.131
298.312
298.435
298.66
296.614
296.042
296.273
296.395
296.516
296.667
296.826
296.98
297.174
297.348
297.558
297.754
297.941
298.128
298.3
298.483
298.624
298.799
296.722
296.197
296.407
296.507
296.628
296.761
296.932
297.105
297.311
297.491
297.706
297.892
298.078
298.247
298.424
298.578
298.747
298.917
296.832
296.318
296.478
296.599
296.723
296.863
297.008
297.16
297.342
297.516
297.712
297.896
298.105
298.303
298.444
298.637
298.794
298.962
296.927
296.387
296.555
296.668
296.752
296.868
297
297.191
297.349
297.545
297.736
297.907
298.094
298.266
298.444
298.618
298.738
298.943
297.021
296.463
296.669
296.711
296.805
296.912
297.048
297.245
297.396
297.608
297.731
297.896
298.032
298.146
298.297
298.408
298.571
298.714
297.018
296.533
296.783
296.77
296.87
296.912
296.998
297.189
297.302
297.527
297.66
297.832
297.951
298.078
298.192
298.307
298.443
298.549
297.162
296.621
296.778
296.807
296.88
296.942
297.009
297.177
297.29
297.46
297.608
297.738
297.881
297.986
298.103
298.222
298.326
298.465
297.238
296.616
296.71
296.795
296.816
296.909
297.033
297.147
297.292
297.419
297.55
297.66
297.792
297.884
298.013
298.118
298.241
298.358
297.215
296.656
296.744
296.821
296.849
296.95
297.053
297.139
297.283
297.369
297.508
297.627
297.729
297.869
297.954
298.088
298.178
298.293
297.268
296.63
296.782
296.856
296.911
296.961
297.018
297.121
297.215
297.349
297.474
297.599
297.73
297.833
297.957
298.048
298.159
298.253
297.289
296.655
296.764
296.821
296.887
296.957
297.042
297.126
297.227
297.334
297.447
297.565
297.671
297.788
297.884
297.994
298.092
298.203
297.251
296.679
296.799
296.849
296.901
296.976
297.059
297.149
297.24
297.335
297.432
297.533
297.633
297.734
297.835
297.936
298.043
298.152
297.242
296.653
296.801
296.87
296.92
296.98
297.05
297.129
297.211
297.297
297.383
297.473
297.566
297.67
297.779
297.903
298.035
298.183
297.3
296.626
296.765
296.855
296.926
296.998
297.069
297.14
297.212
297.295
297.392
297.511
297.646
297.799
297.959
298.132
298.301
298.482
297.61
296.974
297.082
297.158
297.227
297.304
297.392
297.495
297.611
297.742
297.886
298.04
298.201
298.367
298.534
298.701
298.869
299.038
296.351
290.731
288.084
287.009
286.698
286.717
286.902
287.195
287.544
287.898
288.284
288.723
289.192
289.735
290.314
290.764
290.966
291.191
291.618
292.235
292.856
293.12
293.306
293.73
294.419
295.188
295.562
295.952
296.853
298.249
300.063
301.145
300.702
300.03
299.644
299.179
298.738
298.401
298.096
297.806
297.526
297.26
297.027
296.819
296.627
296.439
296.241
296.023
295.792
295.552
295.317
295.078
294.844
294.614
294.392
294.181
293.991
293.814
293.663
293.538
293.431
293.352
293.313
293.291
293.277
293.255
293.232
293.218
293.171
293.129
293.068
292.951
292.723
292.384
291.966
291.443
290.85
290.243
289.671
289.17
288.719
288.311
287.965
287.658
287.39
287.03
286.571
286.084
285.508
284.81
284.076
283.443
282.877
282.145
281.225
280.633
279.836
279.018
278.788
278.902
278.355
276.728
274.973
273.772
274.521
277.038
278.789
280.278
282.488
281.985
279.592
279.409
279.531
278.144
276.51
276.888
277.75
277.659
276.929
275.609
275.586
278.024
279.526
280.115
278.195
273.346
274.171
275.5
272.666
272.183
271.238
271.497
271.753
272.446
274.306
277.337
280.011
280.623
280.23
279.694
279.258
278.439
277.716
276.801
275.732
274.352
272.813
271.327
269.991
268.608
267.778
267.017
265.855
264.164
263.517
263.004
259.677
255.727
256.721
262.71
261.444
260.878
265.569
270.479
264.486
249.623
257.04
262.263
262.736
258.931
261.767
263.916
268.41
268.231
259.455
254.94
257.217
245.381
224.285
247.004
296.335
289.492
285.612
283.765
283.029
282.758
282.647
282.645
282.748
282.814
282.856
282.995
283.135
283.265
283.559
283.971
284.191
284.512
284.896
285.74
286.953
287.151
287.659
289.553
292.907
295.66
295.631
296.2
297.579
297.688
297.218
296.968
296.432
295.887
295.717
295.509
295.348
295.227
295.173
295.17
295.26
295.42
295.525
295.599
295.583
295.414
295.202
294.937
294.63
294.368
294.066
293.758
293.43
293.111
292.803
292.529
292.345
292.19
292.086
291.995
291.957
292.077
292.373
292.707
293.019
293.232
293.57
294.001
294.213
294.481
294.734
294.898
294.801
294.543
294.093
293.379
292.378
291.013
289.364
287.803
286.96
286.825
286.606
285.742
284.702
283.559
282.386
281.485
280.891
280.593
279.776
278.554
277.568
278.251
277.366
275.626
274.723
272.38
271.27
270.825
273.07
273.988
270.064
265.783
262.569
266.599
273.886
277.114
276.06
273.206
273.795
274.564
272.815
271.839
273.49
274.968
273.626
270.672
268.42
269.575
274.335
279.469
276.364
274.644
269.111
262.059
265.227
265.256
261.458
259.865
261.59
262.337
265.563
265.263
263.702
263.172
264.888
267.134
269.753
271.272
271.483
269.746
266.933
265.457
266.149
265.795
262.557
258.061
254.025
250.199
247.324
245.551
244.177
242.021
242.074
240.117
233.713
228.524
229.687
242.667
242.829
246.447
261.259
253.64
235.228
243.109
258.121
238.738
244.375
249.029
256.573
256.499
253.34
264.392
262
243.36
241.559
233.585
191.779
201.555
297.731
292.575
289.181
286.993
285.665
284.947
284.353
283.799
283.461
283.284
282.896
282.474
282.606
282.163
280.859
280.165
281.262
282.932
284.069
285.524
287.885
289.882
290.817
292.872
294.414
294.982
295.414
295.519
295.762
295.773
295.636
296.048
296.304
296.767
297.35
297.646
298.037
298.311
298.563
298.874
299.087
299.206
299.273
299.167
299.047
298.939
298.69
298.55
298.373
298.108
297.939
297.771
297.666
297.608
297.477
297.336
297.201
297.043
296.889
296.818
296.673
296.615
296.684
296.833
296.976
297.045
297.205
297.507
297.683
297.785
297.867
297.803
297.422
297.143
296.831
296.455
296.027
295.118
293.488
291.495
290.743
292.24
293.584
292.312
288.758
285.469
283.677
282.722
282.004
280.603
279.432
280.1
279.536
277.585
276.75
276.155
274.36
271.42
270.398
270.289
272.914
273.379
271.021
269.374
267.711
270.517
274.689
275.072
273.093
273.157
274.86
275.203
275.193
275.638
278.598
280.692
280.316
276.156
272.074
276.463
281.329
280.358
272.562
272.399
265.742
269.021
268.434
258.918
262.664
258.132
262.738
265.668
274.108
275.364
271.473
266.367
263.09
262.695
264.448
266.727
268.07
266.792
264.924
262.337
260.184
260.001
260.93
259.666
253.2
245.411
239.13
234.405
232.441
231.845
233.629
231.774
228.329
228.402
228.953
229.299
233.317
236.695
259.822
270.842
255.777
263.832
297.037
253.405
239.33
241.382
258.003
271.685
253.902
261.918
267.716
249.154
238.828
225.29
207.142
194.054
298.72
294.907
292.295
290.265
288.588
287.548
286.569
285.619
284.766
284.132
283.46
282.561
282.22
280.59
279.871
282.687
285.866
286.498
288.746
291.674
292.619
294.717
296.372
297.431
298.121
298.405
298.705
298.906
299.203
299.346
299.597
299.952
300.148
300.372
300.44
300.261
300.072
299.693
299.248
298.749
297.917
297.194
296.495
295.902
295.5
295.163
295.089
294.957
294.88
294.819
294.657
294.728
294.859
295.022
295.225
295.251
295.329
295.386
295.399
295.525
295.592
295.456
295.261
295.135
294.916
294.867
294.772
294.576
294.641
294.735
294.928
295.154
295.083
295.08
294.973
294.734
294.562
294.272
293.856
292.35
290.493
291.579
295.47
296.766
292.716
287.172
286.767
288.546
288.662
286.311
284.475
286.802
287.741
283.977
280.201
278.724
276.256
273.129
273.481
272.631
271.188
272.072
273.438
271.219
268.633
272.296
276.331
274.519
272.826
273.854
272.803
272.18
271.568
274.175
282.205
290.971
293.735
287.82
285.811
286.211
279.847
270.855
265.879
264.795
267.234
273.985
269.869
262.211
269.7
252.348
259.271
267.517
278.368
281.137
277.68
270.766
266.082
263.519
264.607
266.647
268.235
265.62
260.722
261.13
264.356
264.477
262.857
261.764
257.278
249.147
239.388
229.784
225.448
226.607
230.258
232.125
235.001
239.675
236.116
215.122
227.268
225.827
241.265
258.31
285.85
276.234
286.986
275.333
247.718
238.168
250.01
272.416
256.473
257.936
273.307
256.606
243.207
222.617
210.041
192.548
299.367
296.301
293.75
291.65
289.902
288.837
287.943
287.03
286.417
284.987
283.142
282.12
282.255
283.505
285.148
286.502
288.629
290.634
293.092
295.521
296.998
298.883
299.707
300.358
300.646
300.38
300.887
300.765
300.578
300.484
300.157
299.811
299.209
298.394
297.473
296.663
295.836
295.407
294.791
294.236
293.867
293.416
293.219
293.168
293.224
293.266
293.317
293.342
293.411
293.381
293.405
293.38
293.252
293.165
293.072
292.916
292.82
292.894
292.855
292.771
292.752
292.686
292.642
292.67
292.552
292.488
292.454
292.398
292.418
292.641
292.83
293.362
294.024
295.25
296.669
297.56
297.651
296.76
295.634
294.102
292.675
291.54
292.773
294.1
293.228
290.561
291.545
295.401
296.192
293.766
292.613
292.985
293.036
291.234
289.129
286.515
282.062
278.215
275.944
273.776
271.585
274.075
274.997
270.418
268.617
273.038
275.168
271.961
271.541
269.269
265.05
265.534
268.209
279.235
287.329
289.677
284.742
279.863
282.888
279.902
276.278
273.51
264.655
264.464
273.081
281.638
273.451
296.361
303.429
255.669
260.227
275.132
289.968
294.049
286.808
277.299
269.048
265.407
262.877
263.796
265.186
265.758
260.715
252.068
250.572
258.369
264.162
266.394
262.31
255.352
245.848
232.493
222.58
223.35
228.766
233.326
240.841
245.307
235.938
206.686
229.287
223.277
239.988
260.913
241.797
250.848
266.103
260.28
232.255
237.875
256.797
275.274
257.352
252.864
273.377
262.101
247.663
223.977
212.696
194.728
299.657
296.837
293.94
291.426
289.564
288.185
287.671
287.442
287.231
286.158
284.367
283.817
284.829
285.549
287.6
290.509
292.324
293.946
296.923
299.071
299.949
300.886
301.117
300.704
300.932
300.783
300.17
299.81
299.059
298.465
297.823
297.099
296.355
295.642
295.081
294.764
294.715
294.807
294.934
295.09
295.278
295.554
295.755
296.007
296.205
296.296
296.509
296.477
296.522
296.525
296.535
296.533
296.454
296.41
296.367
296.295
296.118
296.057
295.871
295.71
295.464
295.283
295.06
294.842
294.478
294.026
293.514
293.104
292.665
292.488
292.435
292.378
292.088
292.065
292.859
293.979
294.959
295.712
295.631
294.581
294.265
293.604
292.814
292.162
292.503
294.623
297.367
297.859
296.304
295.119
295.17
292.738
287.694
285.675
287.101
288.099
287.038
284.82
279.893
276.568
275.232
274.717
273.187
269.584
269.98
273.102
271.889
270.536
271.844
270.221
268.546
270.684
276.886
288.434
287.899
283.432
279.168
279.136
281.091
280.46
282.447
282.748
271.1
265.052
275.579
286.8
273.936
282.51
317.697
298.659
281.096
283.139
286.17
295.562
289.969
287.722
274.455
272.42
268.127
265.832
261.075
260.203
256.541
248.264
240.947
251.509
265.014
273.21
271.3
260.008
252.866
240.925
225.88
222.011
226.811
234.027
244.353
249.646
242.296
209.356
219.022
222.725
235.435
232.505
233.327
217.042
272.041
256.27
235.928
254.097
270.125
277.529
255.798
249.65
272.715
266.188
251.289
227.133
213.341
194.645
299.891
297.515
294.603
291.733
289.52
287.349
286.389
286.433
287.493
287.299
286.005
286.163
285.884
287.284
292.247
294.111
295.574
298.634
300.46
301.082
301.339
301.371
301.145
300.881
300.135
299.596
298.776
298.015
297.287
296.875
296.298
296.193
296.113
295.901
296.04
296.122
296.336
296.509
296.468
296.551
296.531
296.364
296.256
296.016
295.71
295.446
295.148
294.768
294.601
294.316
293.997
293.839
293.712
293.707
293.73
293.958
294.208
294.467
294.632
294.941
295.267
295.48
295.585
295.633
295.579
295.382
295.13
294.872
294.254
293.532
293.311
293.143
292.785
292.153
291.796
291.646
291.457
292.624
293.89
294.035
293.201
293.788
294.337
294.309
294.647
296.25
297.736
297.899
297.481
295.81
293.288
291.027
287.96
284.932
282.161
280.548
282.187
284.466
282.106
279.744
278.937
275.329
273.164
272.438
272.685
271.99
270.168
274.965
278
277.967
277.575
277.713
283.026
287.615
283.335
279.547
279.781
281.494
280.584
280.603
281.313
281.341
279.453
261.154
256.396
264.27
287.895
286.639
269.153
291.865
289.528
292.676
285.342
292.541
287.483
288.25
281.371
282.645
284.288
284.376
277.729
272.686
265.872
260.294
251.627
256.715
267.294
275.244
281.001
268.964
259.137
250.617
233.488
224.418
225
232.493
245.233
251.805
251.656
228.56
201.81
207.508
204.542
204.149
231.442
235.676
294.06
269.929
243.247
260.465
275.666
277.406
246.233
241.93
269.608
269.938
252.933
229.367
214.971
196.554
300.043
297.834
294.297
290.613
288.277
286.155
285.053
285.709
286.848
287.535
287.746
286.788
284.891
287.647
295.327
297.402
296.035
298.201
299.955
300.294
299.844
300.025
299.627
299.318
298.641
297.841
297.093
296.701
296.19
296.398
296.402
296.5
296.664
296.474
296.538
296.398
296.137
295.938
295.635
295.285
294.947
294.495
294.2
293.781
293.431
293.131
292.813
292.484
292.231
291.944
291.657
291.509
291.205
291.02
290.832
290.792
290.772
290.862
290.998
291.162
291.502
291.93
292.243
292.538
292.885
293.191
293.59
294.204
294.506
294.427
294.037
293.786
293.32
293.404
293.831
293.978
292.903
292.453
293.606
295.226
294.39
293.677
292.892
293.378
294.761
296.569
297.119
297.702
299.769
300.267
297.187
293.291
291.199
289.438
285.153
280.65
280.468
282.724
281.317
280.486
279.404
275.186
274.023
275.672
275.111
270.668
272.603
280.602
281.928
282.1
281.973
280.525
284.9
284.041
280.815
279.848
280.469
281.18
279.884
279.915
281.382
280.887
278.614
266.076
268.26
272.72
273.858
308.374
282.351
279.51
281.975
279.144
279.189
285.443
290.872
284.606
283.277
286.706
293.489
294.056
290.144
286.532
277.38
272.112
265.093
264.332
266.17
267.833
277.019
273.363
263.436
258.588
242.707
229.341
224.912
229.01
242.564
249.145
254.136
247.629
205.293
202.679
210.098
284.418
198.352
233.51
268.018
262.917
252.173
272.291
275.672
278.808
244.916
240.561
268.633
271.587
252.941
230.417
213.877
198.487
300.007
297.455
292.756
287.959
285.629
285.078
284.18
284.541
285.758
286.994
286.874
284.357
284.517
289.386
296.142
299.038
299.613
301.479
301.335
301.057
300.419
299.917
298.687
297.72
297.085
296.57
296.577
296.971
296.963
297.033
297.054
296.818
296.718
296.408
295.947
295.629
295.4
295.162
294.867
294.606
294.453
294.148
294.063
293.784
293.655
293.459
293.309
293.176
293.07
293.018
292.909
292.87
292.767
292.552
292.153
291.911
291.852
291.837
291.695
291.466
291.338
291.715
292.031
292.241
292.27
292.063
292.006
292.245
292.928
293.958
294.488
295.084
294.065
292.417
292.752
293.685
293.472
291.405
291.446
294.17
295.987
296.101
293.909
291.406
290.54
293.107
295.415
297.209
299.271
299.559
295.669
291.293
289.45
287.372
283.248
279.483
279.747
281.705
280.277
280.464
279.26
275.355
274.658
275.926
274.907
270.652
277.376
284.552
284.428
284.182
284.874
283.937
287.039
283.643
280.405
278.695
278.73
280.377
282.78
283.803
284.142
283.275
281.183
279.802
285.966
297.03
278.094
287.379
278.751
276.207
301.582
286.649
281.221
275.835
288.428
284.615
281.781
282.033
292.054
298.857
293.893
292.774
283.694
279.76
270.014
261.779
264.039
267.899
277.307
277.516
266.47
263.997
251.574
236.82
228.189
225.766
237.439
244.166
251.89
258.001
228.071
217.996
247.343
273.897
191.377
235.387
266.045
257.606
258.676
280.183
275.516
262.994
233.53
237.729
266.522
267.631
251.178
228.979
212.398
199.082
299.751
296.535
290.942
286.309
284.876
285.623
285.969
285.671
285.007
285.023
285.46
284.791
287.823
292.771
297.802
298.404
298.285
300.457
300.372
299.5
298.461
298.056
297.673
297.135
297.195
297.088
297.084
297.155
296.896
296.855
296.746
296.388
295.898
295.619
295.374
295.276
295.321
295.219
295.122
295.06
295.003
294.793
294.784
294.472
294.348
294.155
293.958
293.858
293.868
293.935
293.962
294.025
294.12
294.156
293.662
292.897
292.544
292.706
292.836
292.381
291.828
292.207
292.995
293.711
294.396
294.141
293.504
292.214
291.494
291.868
292.558
294.287
296.166
294.62
293.233
294.39
294.937
292.15
290.193
291.893
295.08
295.383
294.197
292.265
291.01
291.838
294.751
297.538
299.737
298.95
293.779
289.251
288.134
286.227
282.194
278.637
279.508
280.672
279.676
280.622
279.506
275.371
274.425
274.099
272.596
272.07
281.463
285.54
284.276
285.564
286.993
285.535
285.465
280.492
279.414
278.869
280.974
281.814
284.012
286.051
285.705
285.281
281.985
286.471
282.038
281.666
275.851
285.465
286.984
270.457
297.401
287.61
286.945
282.129
293.229
288.99
282.952
280.287
283.9
297.44
295.121
294.575
291.078
293.705
284.874
265.744
264.908
269.259
276.164
281.713
270.276
268.041
258.568
242.585
233.712
224.568
232.234
239.09
245.403
256.198
256.104
254.04
256.73
232.947
207.318
246.771
281.728
265.381
261.62
278.257
282.632
264.926
231.142
235.64
261.526
259.87
247.162
225.32
211.235
199.66
299.54
295.875
290.101
286.748
286.371
286.505
286.103
285.777
284.859
283.991
286.106
288.969
292.09
295.437
298.824
299.781
299.381
300.903
299.865
299.134
298.373
296.982
296.446
295.834
296.068
296.805
297.373
297.798
297.41
296.793
296.134
295.78
295.818
295.98
295.937
295.828
295.84
295.671
295.582
295.44
295.219
294.814
294.605
294.25
293.99
293.719
293.349
292.85
292.657
292.856
292.791
292.735
292.801
293.369
293.626
292.849
291.945
292.087
293.331
293.652
292.751
292.345
293.564
295.005
296.689
297.216
297.1
295.815
293.442
292.316
292.388
291.795
294.201
295.796
293.957
294.312
296.32
295.345
292.3
292.429
295.874
295.888
294.41
292.168
292.407
294.323
298.74
299.879
298.451
294.619
290.221
286.476
285.059
283.409
280.763
279.22
280.302
280.541
279.875
281.124
279.719
274.682
273.543
273.275
273.252
276.685
284.815
285.757
284.935
287.406
287.731
284.559
281.842
277.144
280.023
282.918
285.219
285.238
283.424
284.817
285.192
288.59
284.981
284.833
281.654
284.052
281.439
281.241
296.191
278.079
296.607
287.474
285.766
289.307
299.895
295.283
283.607
285.344
281.694
292.803
296.665
292.72
285.919
291.015
293.889
275.552
268.486
270.563
272.479
281.879
273.591
271.621
265.766
248.42
240.423
227.589
230.602
235.909
237.772
243.881
255.629
283.96
269.93
249.865
226.329
253.112
274.459
262.214
270.117
282.192
272.163
254.475
228.789
232.937
252.983
251.389
241.936
221.418
212.059
198.872
299.254
295.106
288.939
286.211
287.14
288.044
287.595
286.539
285.874
286.64
289.118
292.866
294.961
297.157
298.805
299.638
299.313
300.636
299.064
297.633
297.404
296.271
296.611
297.367
298.038
298.38
298.044
297.411
296.967
296.86
296.734
296.35
296.055
295.867
295.811
295.765
295.863
295.871
295.783
295.413
295.009
294.484
293.995
293.573
293.567
293.546
293.639
293.325
292.921
293.394
293.592
293.406
292.821
292.853
293.53
293.35
291.769
290.443
291.626
293.562
293.724
291.992
291.669
293.114
295.315
297.22
297.412
297.439
295.367
292.455
293.243
292.599
293.036
295.782
295.663
293.793
294.678
295.016
292.693
292.236
294.855
295.378
294.378
292.784
293.891
296.124
301.094
300.769
297.656
292.049
287.734
284.633
283.095
280.595
278.028
278.389
280.181
280.961
280.257
281.659
279.204
272.933
271.243
273.741
276.542
281.667
286.65
285.504
288.102
291.82
288.826
284.748
282.686
280.447
283.196
285.91
288.254
289.384
287.951
284.986
285.3
284.248
282.802
286.266
284.172
286.832
283.041
281.283
295.648
278.892
293.297
284.222
278.4
286.316
295.786
298.87
284.861
287.919
283.539
290.091
296.655
296.236
286.495
286.855
295.521
282.378
270.314
271.308
271.151
282.067
276.365
274.088
271.155
253.653
246.759
234.029
231.295
232.424
232.307
236.583
240.222
268.806
271.372
242.632
234.733
249.596
274.019
264.792
270.681
284.868
283.281
257.046
230.265
232.749
244.252
243.722
236.635
217.692
212.758
193.441
299.292
295.597
289.675
286.597
287.616
288.942
289.511
289.587
288.661
288.67
292.358
295.324
296.515
297.041
298.28
298.971
299.135
300.344
299.41
298.326
298.113
297.107
296.852
297.016
297.586
297.864
297.643
296.854
295.734
294.908
294.985
295.228
295.64
296.078
296.223
296.254
296.474
296.548
296.24
295.442
294.517
293.7
293.216
292.581
292.548
292.679
293.261
293.69
293.289
293.779
294.44
294.959
294.612
294.034
293.956
294.593
293.934
291.854
291.086
293.212
295.487
295.445
293.601
293.303
294.084
296.582
297.78
298.159
298.417
295.471
294.038
294.169
293.015
294.358
296.804
295.876
296.298
296.9
294.856
293.706
295.609
296.35
294.722
293.563
295.237
297.14
301.548
300.138
297.658
293.329
289.397
285.86
283.414
280.319
278.119
279.461
280.642
281.158
281.148
281.564
277.565
270.483
268.913
273.423
278.867
284.212
285.879
285.306
290.07
289.991
286.044
283.697
281.799
280.741
281.8
282.592
287.19
288.367
290.574
291.953
291.968
284.74
281.342
286.231
287.364
290.447
287.825
280.395
289.353
278.907
298.65
294.904
283.225
289.552
291.822
297.057
289.096
289.615
286.119
290.589
293.651
293.444
287.503
284.961
295.088
289.712
273.775
273.247
271.093
282.157
278.392
275.571
274.606
255.627
252.757
242.625
234.304
230.947
232.48
237.894
228.103
253.429
261.708
238.608
234.904
252.29
273.199
267.097
275.848
273.218
277.924
259.263
234.236
235.201
237.845
237.625
232.076
214.408
210.474
192.382
299.416
296.127
290.362
287.002
288.248
290.241
290.747
290.237
291.586
293.219
295.441
297.897
298.75
298.248
298.123
298.087
297.637
298.46
297.581
297.021
297.111
296.684
297.205
297.83
298.262
298.182
297.846
297.63
297.563
297.409
297.265
296.842
296.677
296.906
297.038
297.017
297.174
296.87
296.093
295.121
294.098
293.017
292.91
292.827
293.087
293.373
293.659
294.341
294.302
294.268
294.024
294.375
294.172
293.926
293.099
293.212
293.564
292.865
290.99
291.247
293.238
295.727
295.929
295.541
295.348
295.643
297.405
297.79
298.061
298.644
296.725
296.977
295.911
294.977
296.207
295.784
295.47
297.186
296.328
293.952
295.116
297.576
296.543
294.686
294.514
296.354
301.504
300.548
298.254
292.796
288.622
285.292
282.36
279.531
278.566
280.497
281.366
281.406
282.09
280.663
276.375
269.473
269.118
274.452
281.362
285.723
286.923
288.409
290.245
289.132
285.198
283.307
281.397
282.124
284.711
284.192
285.482
284.773
284.908
286.847
286.843
286.476
284.708
284.564
284.302
285.793
288.43
289.238
295.402
287.229
295.114
290.069
286.592
298.67
296.836
296.377
290.865
291.047
288.465
293.087
295.719
294.24
291.658
284.295
289.97
292.434
276.644
275.977
274.017
284.016
281.463
277.452
277.756
256.372
257.224
249.447
244.479
238.569
237.749
242.13
217.192
248.292
256.097
235.124
242.287
257.314
277.774
271.628
284.68
275.445
279.5
261.896
241.114
240.093
234.416
233.4
228.466
211.098
209.672
203.624
299.39
296.239
290.497
286.675
287.352
290.058
292.582
293.634
290.991
292.895
295.578
297.974
299.007
299.555
299.504
299.702
299.478
299.84
298.583
297.151
296.994
296.481
296.327
296.753
297.329
297.672
297.163
296.006
295.328
295.79
296.615
297.36
297.573
297.351
297.226
296.919
296.842
296.829
296.723
295.936
295.401
294.384
293.55
293.218
293.733
294.589
294.804
294.993
295.31
296.195
295.693
295.064
293.863
294.043
294.356
294.205
293.587
293.306
292.73
292.658
293.172
294.565
296.267
296.652
297.853
297.976
298.028
299.278
298.605
299.123
298.306
297.857
297.978
297.274
297.257
297.71
295.84
297.102
297.176
294.385
294.178
297.279
297.129
294.8
293.656
295.619
301.039
300.514
299.075
291.412
286.216
283.376
281.952
280.741
280.382
281.983
282.062
281.593
282.649
279.732
275.777
271.826
273.794
278.487
284.015
287.849
289.46
291.633
291.148
288.991
285.908
283.62
284.239
290.185
294.541
294.359
292.921
292.311
295.083
292.356
287.725
283.682
283.193
285.834
288.684
292.739
288.847
287.75
294.402
295.258
302.328
288.585
284.666
296.077
292.704
294.849
292.127
291.296
288.305
293.7
294.944
291.755
293.909
284.853
287.229
293.68
277.038
276.268
276.601
285.088
285.092
278.467
279.849
259.189
258.11
254.022
260.496
244.376
244.354
250.452
219.813
267.322
258.401
239.642
253.087
263.266
280.201
277.361
285.866
271.748
281.096
262.823
247.641
244.969
233.388
231.026
225.949
208.227
212.935
216.734
299.675
297.67
293.07
288.716
287.612
289.302
290.627
294.369
295.358
294.022
295.254
296.708
297.271
297.542
297.827
298.098
298.822
299.972
299.989
298.618
297.681
296.976
296.565
296.745
297.431
298.638
299.207
298.527
297.002
295.724
295.147
295.127
295.27
295.314
295.113
295.46
296.046
296.352
297.128
296.977
296.576
295.662
294.534
293.391
292.751
293.512
294.189
294.084
293.307
294.064
294.641
294.967
293.02
291.828
292.339
294.254
294.754
294.053
293.952
294.405
295.503
295.639
296.291
297.397
297.779
299.001
298.843
298.922
299.278
299.049
300.184
299.435
299.516
299.061
297.819
299.223
297.371
296.996
298.307
297.005
295.532
297.977
298.622
296.145
295.057
296.929
301.713
300.868
299.121
290.392
285.792
282.297
281.908
281.906
282.516
283.245
282.298
282.019
283.036
279.654
275.04
275.218
278.54
282.054
285.597
287.803
289.481
292.474
291.111
289.266
283.938
282.117
283.972
288.837
294.722
295.297
291.939
291.528
290.778
291.93
289.921
285.385
285.395
288.159
291.451
293.203
294.74
296.544
292.925
290.465
296.033
288.725
290.301
299.843
292.91
296.273
295.299
293.467
291.594
298.704
295.753
290.2
294.003
283.214
285.405
293.325
275.008
275.484
278.265
286.116
289.837
279.258
281.035
263.945
257.195
258.484
271.087
244.606
255.594
262.455
241.885
293.271
263.647
247.177
262.083
267.913
281.234
286.2
286.996
266.642
280.725
260.748
249.208
247.003
233.657
229.228
223.164
206.35
218.382
218.631
299.747
298.188
293.924
288.931
287.091
288.72
290.343
291.039
295
295.564
296.447
297.336
297.818
297.567
297.466
296.976
296.992
298.042
299.281
299.515
299.231
298.315
297.114
296.182
295.677
295.84
296.83
297.891
298.285
298.02
297.848
297.588
297.556
297.588
297.437
297.579
298.585
298.525
297.687
297.141
297.104
296.94
296.882
296.018
295.046
294.742
294.927
295.299
294.195
294.282
294.228
295.291
294.419
293.036
292.21
293.588
295.702
296.191
296.515
296.512
296.785
297.554
296.884
297.069
297.759
298.206
299.169
298.44
299.511
298.649
299.69
299.739
299.668
300.181
298.69
299.812
299.772
297.166
298.558
298.696
295.517
296.388
299.141
298.37
296.096
296.502
300.736
301.787
299.89
291.22
287.685
283.706
283.634
283.094
283.769
283.076
282.117
282.153
282.811
280.025
274.76
276.491
280.764
284.256
286.221
288.075
288.936
292.112
291.954
291.064
283.862
282.948
284.116
286.439
293.846
295.172
292.189
289.128
292.85
289.649
281.357
281.476
287.237
293.271
294.144
292.274
289.324
293.095
295.003
294.252
290.839
285.764
292.182
298.122
291.724
294.599
292.376
292.851
293.516
300.171
290.523
285.733
290.919
280.646
285.765
293.182
273.953
276.823
280.974
287.417
293.123
278.554
280.691
270.174
259.189
261.874
270.944
249.032
268.127
269.334
266.393
303.917
261.555
254.465
268.976
272.512
286.201
291.233
286.916
267.881
287.178
262.911
247.186
246.612
233.709
228.124
219.254
206.099
224.137
217.301
299.618
298.413
295.484
291.52
288.526
287.307
289.723
290.262
291.784
293.88
295.067
296.385
297.336
297.649
297.705
297.112
296.154
295.681
296.156
296.92
297.927
298.807
299.083
298.831
298.149
297.404
296.56
295.943
295.955
295.959
295.829
296.121
296.795
296.948
297.804
298.019
298.386
298.932
298.197
296.03
296.08
297.07
298.111
297.363
295.425
294.925
294.544
294.004
293.131
294.057
295.463
295.812
294.616
293.86
293.793
294.313
296.012
297.025
298.142
298.576
299.416
299.617
300.301
299.393
298.97
297.54
298.135
297.693
298.344
298.99
299.193
300.367
299.805
300.845
299.888
298.593
300.826
298.299
298.666
299.813
296.342
295.317
298.588
298.44
295.272
295.62
301.058
303.904
300.334
290.947
286.549
284.297
284.981
283.455
283.96
282.201
282.284