/*--------------------------------*- C++ -*----------------------------------*\
| =========                 |                                                 |
| \\      /  F ield         | OpenFOAM: The Open Source CFD Toolbox           |
|  \\    /   O peration     | Version:  dev                                   |
|   \\  /    A nd           | Web:      http://www.openfoam.org               |
|    \\/     M anipulation  |                                                 |
\*---------------------------------------------------------------------------*/
FoamFile
{
    version     2.0;
    format      ascii;
    class       volVectorField;
    object      U;
    location    "9.158";
}
// * * * * * * * * * * * * * * * * * * * * * * * * * * * * * * * * * * * * * //

dimensions      [0 1 -1 0 0 0 0];

internalField   nonuniform List<vector> 
12225
(
(6.68164 0.457274 0)
(4.11795 0.216006 0)
(2.09597 0.0644563 0)
(1.72636 0.0217851 0)
(0.176053 0.0664834 0)
(0.545716 0.0456417 0)
(-1.36634 0.0990469 0)
(-0.778976 0.0746809 0)
(-3.12074 0.132714 0)
(-2.29424 0.102216 0)
(-5.19574 0.191313 0)
(-3.87172 0.0934945 0)
(-7.95745 0.310563 0)
(-5.90181 0.182136 0)
(-10.5719 0.399805 0)
(-10.4849 0.839866 0)
(-10.2516 0.275139 0)
(-25.219 6.46059 0)
(9.39448 1.03405 0)
(9.47628 0.893335 0)
(6.44925 0.526099 0)
(7.30921 0.305235 0)
(3.39222 0.25509 0)
(5.91185 0.177576 0)
(1.1374 0.263679 0)
(4.74571 0.211116 0)
(-1.15732 0.313889 0)
(3.80082 0.293563 0)
(-3.61434 0.387296 0)
(3.0378 0.390497 0)
(-6.72016 0.773961 0)
(1.91799 0.107837 0)
(-9.58242 2.16562 0)
(-1.5798 -1.28889 0)
(-9.19922 2.72742 0)
(-24.9481 2.31898 0)
(8.86652 0.766565 0)
(12.0118 1.03701 0)
(7.86305 0.708929 0)
(11.373 0.575407 0)
(5.43783 0.466649 0)
(10.3195 0.434579 0)
(3.12211 0.440872 0)
(9.20825 0.429121 0)
(1.05945 0.538886 0)
(7.80864 0.378216 0)
(-0.221625 0.745575 0)
(5.69876 0.40058 0)
(-1.1635 1.2271 0)
(2.41371 0.354799 0)
(-2.98427 2.55715 0)
(-2.81682 -0.704438 0)
(-6.31354 7.7782 0)
(-10.2547 3.34092 0)
(6.6887 0.585311 0)
(13.7113 1.00929 0)
(7.76144 0.742599 0)
(13.5954 0.694619 0)
(7.09498 0.657491 0)
(12.5494 0.557385 0)
(6.07611 0.739731 0)
(11.0879 0.418976 0)
(5.03903 1.07483 0)
(9.03067 0.116805 0)
(3.83074 1.60052 0)
(6.53615 -0.133257 0)
(2.18347 2.68846 0)
(3.56351 -0.610194 0)
(-0.112685 4.80931 0)
(-0.165298 -0.818588 0)
(-2.82522 6.46199 0)
(-5.01701 10.7023 0)
(7.08238 0.709288 0)
(12.809 0.505106 0)
(8.87587 0.799712 0)
(12.3209 0.472038 0)
(9.16892 0.945323 0)
(11.2255 0.388648 0)
(8.69859 1.10192 0)
(9.76847 0.291222 0)
(7.94673 1.48491 0)
(7.91782 0.165359 0)
(6.48466 2.14305 0)
(5.70313 0.0794924 0)
(4.76306 3.34726 0)
(3.24234 0.178094 0)
(2.39977 5.84507 0)
(0.69088 0.271151 0)
(-1.79602 10.0297 0)
(-1.03886 6.40003 0)
(9.52892 0.879501 0)
(10.0773 0.206888 0)
(9.82648 0.976802 0)
(9.7661 0.192545 0)
(9.96078 1.14685 0)
(9.20144 0.203809 0)
(9.1892 1.4094 0)
(8.28343 0.119977 0)
(8.23078 1.92098 0)
(7.04507 0.156551 0)
(6.72549 2.6878 0)
(5.61981 0.134318 0)
(5.12431 3.66636 0)
(3.81427 0.881121 0)
(3.10148 5.32675 0)
(2.1277 2.30626 0)
(-0.69644 7.66106 0)
(1.85787 8.25503 0)
(10.1856 0.893085 0)
(9.61618 0.127466 0)
(10.188 1.20209 0)
(9.49695 -0.0195763 0)
(10.0676 1.42547 0)
(9.1403 0.153332 0)
(9.28244 1.73157 0)
(8.28522 0.125736 0)
(8.18987 2.19726 0)
(7.33011 0.373962 0)
(6.92644 2.88741 0)
(6.12364 0.639658 0)
(5.33972 3.82705 0)
(4.55275 1.75844 0)
(3.58831 5.32158 0)
(2.94469 3.47828 0)
(1.42456 7.13679 0)
(2.12103 8.7257 0)
(9.85962 1.05249 0)
(9.91847 0.023337 0)
(10.1273 1.32444 0)
(9.8003 -0.161437 0)
(9.93017 1.48868 0)
(9.38108 0.115039 0)
(9.3952 1.82961 0)
(8.59153 0.260869 0)
(8.39623 2.1677 0)
(7.72999 0.67631 0)
(7.2277 2.76288 0)
(6.56779 1.22873 0)
(5.65417 3.56656 0)
(5.1052 2.59093 0)
(4.03581 4.95121 0)
(3.61461 4.70654 0)
(2.53401 6.93335 0)
(2.78029 8.41239 0)
(9.69859 1.08152 0)
(10.0216 -0.0734211 0)
(10.1619 1.43237 0)
(9.86969 -0.186191 0)
(9.88424 1.54321 0)
(9.3167 0.166246 0)
(9.31324 1.81965 0)
(8.58567 0.419171 0)
(8.36123 2.17234 0)
(7.6616 0.914296 0)
(7.12715 2.75226 0)
(6.54017 1.69944 0)
(5.77855 3.5572 0)
(5.17804 3.17428 0)
(4.37947 4.9181 0)
(3.98511 5.38173 0)
(3.42505 6.80831 0)
(3.40104 8.3966 0)
(9.677 0.986175 0)
(9.90518 -0.317313 0)
(10.2014 1.34508 0)
(10.0291 -0.0618141 0)
(10.046 1.49582 0)
(9.68619 0.364178 0)
(9.52996 1.7977 0)
(8.96592 0.733562 0)
(8.50603 2.12987 0)
(7.93964 1.31034 0)
(7.24721 2.6997 0)
(6.78463 2.16572 0)
(6.07276 3.4713 0)
(5.55848 3.67514 0)
(4.89717 4.93871 0)
(4.53965 5.71011 0)
(4.29285 6.74032 0)
(4.23815 8.06587 0)
(10.096 1.02213 0)
(10.0865 -0.078278 0)
(10.0284 1.28218 0)
(9.8021 0.0138943 0)
(9.68971 1.3219 0)
(9.44501 0.474392 0)
(9.22416 1.66471 0)
(8.89904 0.952152 0)
(8.47993 2.12093 0)
(8.11298 1.64643 0)
(7.51745 2.68819 0)
(7.13117 2.6195 0)
(6.50837 3.54273 0)
(5.99675 4.04086 0)
(5.51098 5.01026 0)
(5.19177 5.84477 0)
(5.03316 6.72594 0)
(4.99369 7.78018 0)
(9.90761 0.754939 0)
(10.3659 -0.0439766 0)
(10.2104 1.01139 0)
(10.1562 0.271692 0)
(9.88056 1.19609 0)
(9.72627 0.719822 0)
(9.48453 1.5344 0)
(9.21389 1.20766 0)
(8.81558 1.96482 0)
(8.48293 1.87965 0)
(7.92893 2.62016 0)
(7.55517 2.92782 0)
(7.04273 3.61377 0)
(6.61354 4.26828 0)
(6.27411 5.05343 0)
(6.04681 5.91395 0)
(5.92771 6.68249 0)
(5.98458 7.50254 0)
(9.87961 0.701099 0)
(10.1481 0.223796 0)
(10.0923 0.886853 0)
(10.0537 0.476115 0)
(10.005 1.04158 0)
(9.91751 0.8708 0)
(9.77479 1.39099 0)
(9.53308 1.43374 0)
(9.1521 1.98656 0)
(8.74134 2.19305 0)
(8.24148 2.73069 0)
(7.82927 3.19919 0)
(7.41032 3.7418 0)
(7.07887 4.37927 0)
(6.80524 5.0447 0)
(6.6339 5.75499 0)
(6.57161 6.45525 0)
(6.7064 7.16982 0)
(9.68476 0.390118 0)
(10.0775 0.277216 0)
(10.15 0.528439 0)
(10.1475 0.510436 0)
(10.1182 0.835825 0)
(10.0113 0.933813 0)
(9.87763 1.29385 0)
(9.67387 1.55596 0)
(9.42509 1.97828 0)
(9.14026 2.35996 0)
(8.78356 2.80655 0)
(8.43577 3.29137 0)
(8.09758 3.78571 0)
(7.79169 4.34077 0)
(7.54584 4.94568 0)
(7.38373 5.58042 0)
(7.27932 6.1991 0)
(7.36203 6.80979 0)
(10.0639 0.190748 0)
(10.3725 0.345366 0)
(10.4392 0.490656 0)
(10.3931 0.621155 0)
(10.2864 0.811841 0)
(10.1324 1.00114 0)
(9.97081 1.25203 0)
(9.75884 1.56333 0)
(9.53089 1.95514 0)
(9.28374 2.3757 0)
(9.04756 2.84389 0)
(8.79971 3.34422 0)
(8.57983 3.842 0)
(8.38612 4.3506 0)
(8.22782 4.85849 0)
(8.13025 5.35911 0)
(8.09019 5.85445 0)
(8.15578 6.32164 0)
(9.78651 0.0332518 0)
(10.0148 0.332042 0)
(10.1634 0.442828 0)
(10.2905 0.605879 0)
(10.3517 0.811952 0)
(10.3344 1.04403 0)
(10.251 1.31438 0)
(10.1213 1.61021 0)
(9.96156 1.94811 0)
(9.7983 2.31186 0)
(9.6394 2.69342 0)
(9.49816 3.10766 0)
(9.38388 3.53643 0)
(9.27768 3.97446 0)
(9.19986 4.42841 0)
(9.13268 4.89777 0)
(9.09362 5.35953 0)
(9.12277 5.76603 0)
(9.74193 0.011567 0)
(10.1091 0.285773 0)
(10.3122 0.26308 0)
(10.463 0.370376 0)
(10.5288 0.565381 0)
(10.5634 0.824485 0)
(10.5596 1.13117 0)
(10.5425 1.45289 0)
(10.4874 1.79344 0)
(10.4212 2.1335 0)
(10.3297 2.47874 0)
(10.2303 2.83919 0)
(10.1222 3.21919 0)
(10.0324 3.60243 0)
(9.94397 3.99045 0)
(9.86947 4.38538 0)
(9.81987 4.77184 0)
(9.83474 5.12929 0)
(9.89548 -0.134372 0)
(10.4183 0.0885909 0)
(10.6683 0.227513 0)
(10.8294 0.43193 0)
(10.9068 0.626126 0)
(10.9464 0.814126 0)
(10.965 1.01655 0)
(10.9838 1.23024 0)
(10.9634 1.48705 0)
(10.9511 1.77829 0)
(10.8877 2.10067 0)
(10.8308 2.4331 0)
(10.7452 2.77792 0)
(10.6554 3.11966 0)
(10.5597 3.45451 0)
(10.4807 3.77993 0)
(10.3982 4.09175 0)
(10.3657 4.39382 0)
(10.0489 -0.272584 0)
(10.4861 -0.0826636 0)
(10.767 0.0764351 0)
(11.0072 0.286081 0)
(11.1935 0.47873 0)
(11.3488 0.65221 0)
(11.4424 0.836359 0)
(11.4874 1.05108 0)
(11.4824 1.27836 0)
(11.4519 1.52099 0)
(11.3792 1.78808 0)
(11.3006 2.06968 0)
(11.1877 2.36693 0)
(11.1067 2.67465 0)
(11.0335 2.98166 0)
(10.965 3.27823 0)
(10.9235 3.54394 0)
(10.9067 3.77631 0)
(10.1806 -0.253407 0)
(10.538 -0.0364801 0)
(10.8209 0.0388484 0)
(11.1185 0.201463 0)
(11.362 0.36079 0)
(11.5547 0.502095 0)
(11.6894 0.655277 0)
(11.7847 0.853027 0)
(11.8421 1.06638 0)
(11.87 1.32748 0)
(11.8443 1.56548 0)
(11.7874 1.79902 0)
(11.6974 2.03446 0)
(11.5861 2.23712 0)
(11.4828 2.44756 0)
(11.3829 2.65536 0)
(11.2866 2.86053 0)
(11.2283 3.06225 0)
(10.0732 -0.201435 0)
(10.6593 -0.0792295 0)
(11.0176 -0.0722767 0)
(11.3585 0.052857 0)
(11.6271 0.205395 0)
(11.8242 0.354634 0)
(11.9342 0.476325 0)
(11.9978 0.627113 0)
(12.0506 0.787259 0)
(12.08 0.982758 0)
(12.0964 1.2169 0)
(12.0928 1.45507 0)
(12.0517 1.69762 0)
(11.9999 1.93188 0)
(11.9351 2.14658 0)
(11.8625 2.32972 0)
(11.7801 2.48819 0)
(11.7241 2.63143 0)
(10.0729 -0.292936 0)
(10.6487 -0.175339 0)
(11.0651 -0.1474 0)
(11.4032 -0.00933737 0)
(11.6979 0.14965 0)
(11.9371 0.306908 0)
(12.1144 0.427224 0)
(12.2719 0.537407 0)
(12.364 0.679463 0)
(12.4305 0.816283 0)
(12.4524 0.98962 0)
(12.4242 1.16353 0)
(12.3906 1.33075 0)
(12.3235 1.49731 0)
(12.2488 1.6494 0)
(12.1655 1.794 0)
(12.0757 1.93186 0)
(12.0198 2.04523 0)
(10.3704 -0.113515 0)
(10.8654 -0.197166 0)
(11.1905 -0.222533 0)
(11.5642 -0.0989779 0)
(11.9464 0.0268976 0)
(12.2645 0.109434 0)
(12.4708 0.192397 0)
(12.5883 0.266949 0)
(12.6564 0.368535 0)
(12.6922 0.515604 0)
(12.7112 0.687378 0)
(12.7065 0.880065 0)
(12.6644 1.07039 0)
(12.6138 1.24089 0)
(12.542 1.39226 0)
(12.4523 1.52177 0)
(12.3705 1.6193 0)
(12.2813 1.7085 0)
(9.94776 -0.271565 0)
(10.6946 -0.207599 0)
(11.1967 -0.275113 0)
(11.6866 -0.240821 0)
(12.155 -0.136856 0)
(12.5562 0.00894244 0)
(12.8219 0.150037 0)
(12.9865 0.269084 0)
(13.0589 0.354146 0)
(13.0699 0.462588 0)
(13.0502 0.561122 0)
(13.0107 0.681729 0)
(12.9626 0.80182 0)
(12.9169 0.919462 0)
(12.8742 1.02743 0)
(12.8128 1.12158 0)
(12.7513 1.20517 0)
(12.6795 1.26666 0)
(10.1677 -0.146729 0)
(10.9185 -0.336233 0)
(11.4694 -0.399629 0)
(11.9054 -0.346645 0)
(12.2587 -0.266558 0)
(12.543 -0.17158 0)
(12.7766 -0.0831256 0)
(12.9662 0.0198335 0)
(13.1245 0.126853 0)
(13.2522 0.232091 0)
(13.3316 0.34801 0)
(13.3769 0.457694 0)
(13.3686 0.571089 0)
(13.3328 0.673773 0)
(13.2664 0.756444 0)
(13.1656 0.838753 0)
(13.0442 0.89936 0)
(12.9191 0.956747 0)
(10.0935 -0.278019 0)
(10.818 -0.420761 0)
(11.4404 -0.500294 0)
(12.0025 -0.422114 0)
(12.4766 -0.30842 0)
(12.8385 -0.223421 0)
(13.0838 -0.143093 0)
(13.2328 -0.0715052 0)
(13.3215 -0.00222183 0)
(13.3527 0.0735568 0)
(13.3544 0.149906 0)
(13.326 0.241717 0)
(13.2772 0.341408 0)
(13.2183 0.442388 0)
(13.1523 0.533957 0)
(13.0707 0.614048 0)
(12.9766 0.676951 0)
(12.8848 0.721257 0)
(9.85993 -0.295322 0)
(11.0532 -0.53325 0)
(11.9624 -0.595343 0)
(12.572 -0.531637 0)
(12.9222 -0.452317 0)
(13.0916 -0.380013 0)
(13.1773 -0.290779 0)
(13.2188 -0.19429 0)
(13.24 -0.102364 0)
(13.2168 -0.0160133 0)
(13.1636 0.0547741 0)
(13.0566 0.120501 0)
(12.9501 0.18619 0)
(12.8141 0.249539 0)
(12.6934 0.305657 0)
(12.5476 0.356364 0)
(12.4113 0.399555 0)
(12.2608 0.436132 0)
(10.0211 -0.56129 0)
(11.2057 -0.869198 0)
(11.9088 -0.759457 0)
(12.2476 -0.559047 0)
(12.3512 -0.395409 0)
(12.3006 -0.29103 0)
(12.187 -0.223157 0)
(12.0382 -0.171344 0)
(11.8811 -0.120713 0)
(11.7069 -0.0635356 0)
(11.5215 -0.00816379 0)
(11.3034 0.046624 0)
(11.0942 0.101324 0)
(10.8598 0.153975 0)
(10.6523 0.199946 0)
(10.4092 0.237321 0)
(10.1986 0.269143 0)
(9.94686 0.29727 0)
(10.2794 -0.833298 0)
(10.6662 -0.990152 0)
(10.4949 -0.76363 0)
(10.0932 -0.542064 0)
(9.69663 -0.354889 0)
(9.33935 -0.219476 0)
(9.0366 -0.129044 0)
(8.75397 -0.0643278 0)
(8.50068 -0.0214226 0)
(8.26245 0.0196775 0)
(8.0288 0.0490156 0)
(7.7935 0.073332 0)
(7.57091 0.0983389 0)
(7.34189 0.120156 0)
(7.12655 0.139457 0)
(6.89274 0.16265 0)
(6.67739 0.1737 0)
(6.42083 0.191036 0)
(8.56614 -0.434208 0)
(6.78562 -0.378099 0)
(5.41834 -0.149836 0)
(4.6295 -0.0382864 0)
(4.27532 0.0138095 0)
(4.12299 0.029689 0)
(4.05575 0.0277618 0)
(4.00766 0.0217027 0)
(3.95178 0.0153557 0)
(3.86652 0.0206556 0)
(3.75385 0.0242342 0)
(3.62366 0.0291243 0)
(3.48573 0.0383899 0)
(3.33598 0.0464361 0)
(3.18408 0.0561504 0)
(3.02379 0.066642 0)
(2.87754 0.0627707 0)
(2.66772 0.104045 0)
(0.278258 0.561169 0)
(0.883224 0.520918 0)
(1.51241 0.521144 0)
(2.14168 0.5241 0)
(2.77595 0.520281 0)
(3.41699 0.512448 0)
(4.06465 0.506561 1.12573e-17)
(4.71034 0.50457 -1.11864e-17)
(5.34672 0.504824 0)
(5.97076 0.50258 -1.10501e-17)
(6.58692 0.501439 0)
(7.18908 0.497846 0)
(7.76897 0.484963 0)
(8.33284 0.469554 1.07994e-17)
(8.88517 0.455204 0)
(9.42425 0.442271 0)
(9.96388 0.431751 -1.06111e-17)
(10.5074 0.419536 0)
(11.0244 0.403062 0)
(11.5178 0.393271 0)
(11.9825 0.421916 1.0378e-17)
(12.3755 0.466108 0)
(12.7529 0.514857 1.02467e-17)
(13.1685 0.535081 0)
(13.5821 0.470022 0)
(13.9564 0.300855 1.00967e-17)
(14.2682 0.053627 0)
(14.4837 -0.240148 -9.98019e-18)
(14.5987 -0.404384 0)
(14.5872 -0.305605 9.91871e-18)
(14.4046 0.103222 0)
(13.9139 0.635986 0)
(13.105 0.969219 0)
(12.2155 1.03905 0)
(11.3394 1.00699 0)
(10.461 0.973851 -9.51739e-18)
(9.60082 0.933562 0)
(8.7585 0.884576 1.87167e-17)
(7.94604 0.823054 0)
(7.16264 0.75287 -1.84177e-17)
(6.42034 0.684323 0)
(5.72325 0.620652 0)
(5.05122 0.553382 1.79901e-17)
(4.46026 0.49353 0)
(3.9369 0.424451 1.77198e-17)
(3.44379 0.365722 -1.7588e-17)
(3.0224 0.292081 0)
(2.62672 0.212567 -1.73252e-17)
(2.30088 0.151489 -1.71945e-17)
(1.99524 0.0871235 0)
(1.74981 0.0574566 0)
(1.57777 0.00348215 0)
(1.40927 -0.0332586 0)
(1.27383 -0.0638809 0)
(1.1689 -0.086984 1.64287e-17)
(1.08156 -0.107829 0)
(1.02588 -0.138549 -1.61834e-17)
(0.996602 -0.166891 0)
(0.997704 -0.18888 0)
(1.01116 -0.201786 1.58298e-17)
(1.02507 -0.206182 0)
(1.04998 -0.213891 -1.56033e-17)
(1.11084 -0.213652 0)
(1.21007 -0.217353 0)
(1.3305 -0.228966 0)
(1.44546 -0.230905 1.51747e-17)
(1.57701 -0.235481 0)
(1.73014 -0.241238 0)
(1.8876 -0.24837 1.4861e-17)
(2.04979 -0.254637 0)
(2.2477 -0.250204 1.46543e-17)
(2.47712 -0.26191 0)
(2.69854 -0.269781 0)
(2.92081 -0.263857 0)
(3.1482 -0.265054 -1.42058e-17)
(3.37071 -0.256578 0)
(3.59737 -0.240244 0)
(3.77675 -0.232919 -1.38368e-17)
(3.88873 -0.224151 -1.37162e-17)
(3.91451 -0.22528 0)
(3.8944 -0.236152 -1.34884e-17)
(3.91922 -0.24639 0)
(3.96663 -0.246903 -2.65489e-17)
(3.97653 -0.242078 0)
(3.87182 -0.253927 -2.61423e-17)
(3.63819 -0.276995 0)
(3.37339 -0.303452 2.57232e-17)
(3.09312 -0.31842 0)
(2.77043 -0.330832 0)
(2.43984 -0.362065 0)
(2.06263 -0.391276 -2.48339e-17)
(1.72063 -0.403953 0)
(1.4221 -0.410894 2.44058e-17)
(1.0497 -0.395232 0)
(0.610627 -0.376537 -2.39438e-17)
(0.0960636 -0.372405 -2.37374e-17)
(-0.624376 -0.28585 -2.35159e-17)
(-1.38153 -0.130022 0)
(-2.01014 -0.131624 0)
(-2.52669 -0.261187 0)
(-3.08103 -0.300205 0)
(-3.83423 -0.36683 0)
(-4.54797 -0.482202 0)
(-4.57177 -0.688102 0)
(-3.95848 -1.02322 0)
(-3.14246 -1.07338 2.19149e-17)
(-2.4257 -1.05851 2.18981e-17)
(-1.84311 -1.0732 0)
(-1.94993 -0.509985 0)
(-3.19853 0.131755 0)
(-4.31585 0.0803669 2.13647e-17)
(-5.41542 0.103364 0)
(-6.65533 0.332701 0)
(-7.86622 0.462891 0)
(-8.62594 0.251611 0)
(-8.54084 -0.088648 -2.04344e-17)
(-8.20013 -0.182729 0)
(-8.04437 -0.141334 0)
(-8.04121 -0.357023 2.00369e-17)
(-7.29504 -0.925847 -1.98119e-17)
(-5.28193 -1.41386 0)
(-2.05982 -1.61624 -1.97339e-17)
(-0.610849 -0.779186 0)
(-0.137835 0.0431442 1.96159e-17)
(-2.47144 0.18572 0)
(-0.883925 -0.279741 0)
(0.162804 -0.400858 0)
(1.02601 -0.127876 0)
(1.26142 -0.224462 0)
(2.39984 -0.157306 -3.66537e-17)
(3.18143 -0.376078 -3.62889e-17)
(4.85213 -0.466934 0)
(6.63506 -0.535724 0)
(8.80475 -0.447122 0)
(10.5879 -0.215711 3.5728e-17)
(11.7126 0.0232078 0)
(11.9124 0.124614 0)
(11.5452 -0.0785268 0)
(11.1111 -0.204883 3.55267e-17)
(10.7813 -0.248204 -3.52366e-17)
(10.342 -0.19478 0)
(9.84413 -0.0990644 0)
(9.15902 -0.116385 -3.43418e-17)
(8.34436 -0.312105 -3.40175e-17)
(7.41998 -0.431785 0)
(6.61559 -0.361149 0)
(5.93625 -0.190844 3.29037e-17)
(5.40165 -0.14164 -3.2517e-17)
(4.88389 -0.158318 0)
(4.33655 -0.167345 0)
(3.68119 -0.106481 -3.14773e-17)
(2.79228 -0.089938 0)
(1.62601 -0.0551509 0)
(0.567778 -0.0341334 -3.0473e-17)
(0.0360301 -0.0738657 0)
(-0.613197 0.0129932 -2.99598e-17)
(-1.13946 0.035061 0)
(-1.46734 0.149102 0)
(-1.42504 0.385083 0)
(-2.86759 0.417306 2.91655e-17)
(-4.43568 -0.0196089 0)
(-4.34739 0.0129833 0)
(-5.82258 0.221587 0)
(-7.25184 0.873913 0)
(-12.6219 1.36624 0)
(-13.0852 -0.156063 0)
(-5.57997 -1.20107 2.73619e-17)
(-5.12985 0.0550938 2.77839e-17)
(-5.44499 0.142639 0)
(-3.00988 -0.593684 0)
(1.00114 -0.830687 0)
(6.22873 -0.127098 -2.72887e-17)
(8.52935 0.867009 0)
(6.72838 0.792083 5.4638e-17)
(3.30053 0.0121772 -5.26625e-17)
(2.48194 -0.216063 -5.16297e-17)
(2.54371 0.0972218 5.18796e-17)
(0.206592 0.179082 -4.92442e-17)
(1.56747 0.542803 4.47313e-17)
(1.03232 0.785369 0)
(0.255296 1.73537 0)
(0.841004 1.57244 0)
(1.47083 1.54213 -2.30744e-17)
(2.11922 1.53052 0)
(2.76735 1.50488 2.25431e-17)
(3.41872 1.46999 2.23598e-17)
(4.07432 1.4485 1.10929e-17)
(4.7268 1.44842 1.10175e-17)
(5.36616 1.45858 0)
(5.9882 1.45876 1.08661e-17)
(6.59528 1.45503 0)
(7.17287 1.46191 0)
(7.72473 1.46464 -2.12873e-17)
(8.26998 1.47183 -1.05744e-17)
(8.82693 1.46097 2.10156e-17)
(9.39251 1.40518 2.08957e-17)
(9.93173 1.30241 1.03834e-17)
(10.4197 1.26539 0)
(10.8876 1.29667 0)
(11.4178 1.28187 0)
(11.9792 1.3063 1.01866e-17)
(12.4334 1.19603 0)
(12.742 0.951439 -3.02114e-17)
(12.9298 0.764331 0)
(13.0012 0.731268 0)
(12.7892 0.944412 -1.01295e-17)
(12.2672 1.44599 0)
(11.5426 2.01859 9.99815e-18)
(10.593 2.42563 1.99422e-17)
(9.58871 2.68589 -9.90322e-18)
(8.72934 2.89161 0)
(7.98902 3.00087 0)
(7.2692 3.0188 0)
(6.55 2.96945 1.91409e-17)
(5.83719 2.83401 1.90003e-17)
(5.13582 2.66882 9.43021e-18)
(4.47768 2.49273 0)
(3.83268 2.29412 -1.85898e-17)
(3.23252 2.09675 0)
(2.64767 1.88235 1.83377e-17)
(2.10315 1.66921 0)
(1.61521 1.4523 0)
(1.17924 1.20491 -1.79938e-17)
(0.818227 0.986605 0)
(0.499714 0.76548 -5.32731e-17)
(0.193053 0.556459 1.76272e-17)
(-0.0751769 0.377506 0)
(-0.3036 0.205651 1.73612e-17)
(-0.476186 0.0424105 1.7225e-17)
(-0.606463 -0.10894 0)
(-0.688003 -0.245595 0)
(-0.726895 -0.380379 0)
(-0.742025 -0.479727 0)
(-0.734995 -0.557967 0)
(-0.715289 -0.626533 -1.64232e-17)
(-0.685488 -0.685334 -3.25964e-17)
(-0.601136 -0.759056 1.61702e-17)
(-0.481537 -0.833071 0)
(-0.333951 -0.876687 -3.18727e-17)
(-0.200855 -0.889479 1.58255e-17)
(-0.0755954 -0.897863 0)
(0.0880131 -0.926175 1.55986e-17)
(0.293444 -0.956708 0)
(0.510067 -0.986215 0)
(0.748837 -1.01483 3.06579e-17)
(0.982756 -1.00287 -1.52269e-17)
(1.2632 -1.02112 3.02899e-17)
(1.54487 -1.05389 -3.01237e-17)
(1.8214 -1.05719 -1.49612e-17)
(2.11072 -1.06294 0)
(2.4079 -1.08462 -1.4782e-17)
(2.71471 -1.11542 0)
(2.98535 -1.14163 0)
(3.24361 -1.14961 0)
(3.50385 -1.19273 -1.43624e-17)
(3.72706 -1.20816 0)
(3.98743 -1.20151 -2.81542e-17)
(4.28037 -1.14187 4.17389e-17)
(4.54993 -1.03254 1.37346e-17)
(4.71124 -0.929125 0)
(4.74123 -0.956368 1.34392e-17)
(4.81638 -1.11075 0)
(4.964 -1.21586 2.6487e-17)
(5.23753 -1.15282 0)
(5.43856 -0.955889 2.59578e-17)
(5.37352 -0.829481 -5.1394e-17)
(5.21208 -0.905293 -2.54058e-17)
(5.03858 -0.96081 0)
(4.83613 -0.926477 0)
(4.5501 -0.938496 0)
(4.12541 -1.00306 2.45121e-17)
(3.85467 -1.13875 0)
(3.63384 -1.26469 -2.39989e-17)
(3.15747 -1.16364 0)
(2.5255 -1.01688 7.10129e-17)
(1.85631 -0.913258 2.33549e-17)
(1.02668 -0.79301 2.31239e-17)
(0.0402543 -1.00256 0)
(-0.655801 -1.28383 0)
(-0.917186 -1.28994 0)
(-1.09319 -1.09066 0)
(-1.81474 -0.792373 0)
(-2.34816 -1.04097 4.37063e-17)
(-2.02098 -1.91995 4.27244e-17)
(-1.65777 -2.49127 0)
(-1.40493 -2.45741 -2.11141e-17)
(-1.56483 -2.06807 -2.15352e-17)
(-2.8561 -1.02567 0)
(-4.33128 0.0344613 -4.28445e-17)
(-5.48965 0.32852 0)
(-6.92807 0.405517 2.09634e-17)
(-8.71569 0.54956 0)
(-10.0269 0.451429 0)
(-10.6201 0.0882143 -4.076e-17)
(-10.425 -0.608739 0)
(-9.82267 -1.04718 2.03336e-17)
(-9.20883 -0.899749 0)
(-8.22391 -0.638133 0)
(-7.23683 -0.78089 1.9476e-17)
(-5.87368 -1.83722 1.94042e-17)
(-4.49548 -3.15508 0)
(-2.61244 -2.55844 -1.98821e-17)
(-3.61002 -0.73734 0)
(-1.1509 0.896525 1.92778e-17)
(-3.99697 0.188795 3.75134e-17)
(-0.998455 -1.64411 0)
(0.522628 -1.23552 0)
(1.38895 -0.500023 0)
(1.43348 -1.0399 0)
(2.64497 -1.09266 3.50509e-17)
(3.86934 -1.61747 1.05205e-16)
(5.41251 -2.01202 0)
(7.10677 -2.45264 0)
(9.06561 -2.55731 0)
(11.1135 -2.23608 -3.44277e-17)
(13.1477 -1.60151 0)
(14.5762 -0.718159 0)
(15.2542 -0.331931 6.84274e-17)
(15.343 -0.220057 3.43303e-17)
(15.0046 -0.342407 3.42956e-17)
(14.3052 -0.414827 0)
(13.4289 -0.555975 0)
(12.2791 -0.492872 3.31159e-17)
(11.4564 -0.267005 -3.27379e-17)
(10.587 -0.170044 0)
(9.43069 -0.414359 0)
(8.00508 -0.798778 -3.17788e-17)
(6.79502 -1.09211 9.31046e-17)
(5.98889 -1.01498 0)
(5.38583 -0.881189 0)
(4.65531 -0.674825 2.91978e-17)
(3.77911 -0.361336 0)
(2.36863 -0.238758 5.69306e-17)
(0.99018 -0.372149 -2.80343e-17)
(0.343287 -0.504431 0)
(-0.981872 -0.358268 2.74696e-17)
(-2.12301 -0.366349 5.31204e-17)
(-2.53638 -0.535934 0)
(-1.78832 0.169931 0)
(-2.60032 1.02359 -2.70487e-17)
(-5.81163 0.462028 0)
(-6.80818 0.784407 5.4226e-17)
(-9.83697 1.68289 0)
(-11.2878 1.51033 0)
(-14.1564 1.70506 0)
(-11.8546 -1.692 0)
(-2.55783 -3.97688 -2.75423e-17)
(-2.91219 -0.556323 -2.53787e-17)
(-2.26067 -0.859248 0)
(0.299219 -2.67801 0)
(3.50455 -4.06217 0)
(8.47753 -3.99415 2.66525e-17)
(12.2424 -1.38129 0)
(14.4615 1.16972 -5.4233e-17)
(10.857 1.56756 5.33981e-17)
(7.96867 0.173133 4.93972e-17)
(5.9077 0.351222 4.89293e-17)
(3.03394 0.0222801 4.69972e-17)
(2.43179 -1.14126 3.84488e-17)
(4.52788 0.256732 0)
(0.245555 2.94215 0)
(0.813086 2.62486 0)
(1.4586 2.50366 2.33616e-17)
(2.14746 2.46797 2.30172e-17)
(2.83128 2.44109 -2.27574e-17)
(3.51202 2.39725 -2.25391e-17)
(4.17827 2.36879 -7.45972e-21)
(4.82106 2.36814 0)
(5.46021 2.40828 0)
(6.07508 2.446 0)
(6.64729 2.4467 0)
(7.21639 2.44849 0)
(7.80535 2.45487 6.3768e-17)
(8.33619 2.38036 0)
(8.81014 2.20732 -2.08239e-17)
(9.22902 2.12424 -2.06293e-17)
(9.70289 2.14169 0)
(10.2406 2.15612 0)
(10.7434 1.91853 0)
(10.9789 1.59016 0)
(11.1233 1.73681 -2.04554e-17)
(11.0473 2.17249 0)
(10.6014 2.66562 2.03592e-17)
(10.0196 3.19074 0)
(9.26016 3.65967 0)
(8.47904 4.0515 0)
(7.83822 4.3229 4.01721e-17)
(7.23899 4.48818 0)
(6.66859 4.61776 -1.98331e-17)
(6.07444 4.6847 3.93867e-17)
(5.4975 4.73935 0)
(4.97816 4.76177 0)
(4.465 4.65659 0)
(4.00646 4.49186 -1.92406e-17)
(3.57651 4.27596 -1.91499e-17)
(3.13713 3.99406 0)
(2.72402 3.71187 0)
(2.31524 3.40807 3.76574e-17)
(1.9168 3.09216 3.74383e-17)
(1.55312 2.7767 -3.7227e-17)
(1.2068 2.41624 0)
(0.886894 2.03881 0)
(0.611379 1.68196 0)
(0.363486 1.33633 0)
(0.106981 1.00672 3.60101e-17)
(-0.121289 0.718984 3.57562e-17)
(-0.322518 0.443218 -3.54827e-17)
(-0.500767 0.166302 0)
(-0.608834 -0.0944815 0)
(-0.698658 -0.367874 0)
(-0.734959 -0.614942 0)
(-0.728598 -0.807477 3.41737e-17)
(-0.722973 -0.967246 0)
(-0.674934 -1.09999 0)
(-0.610151 -1.22708 3.34329e-17)
(-0.507845 -1.32068 3.31689e-17)
(-0.386088 -1.42678 0)
(-0.242515 -1.51434 -6.53791e-17)
(-0.071383 -1.56541 3.24265e-17)
(0.108632 -1.56113 -3.21906e-17)
(0.281787 -1.57652 0)
(0.511066 -1.64249 0)
(0.757477 -1.7282 0)
(0.996885 -1.75629 0)
(1.31113 -1.7873 -3.10918e-17)
(1.60423 -1.79978 -6.18056e-17)
(1.91978 -1.80331 -3.06823e-17)
(2.2431 -1.83435 3.04995e-17)
(2.56156 -1.82168 0)
(2.86213 -1.81313 -6.02563e-17)
(3.13399 -1.80856 -5.98568e-17)
(3.41059 -1.82499 -5.94313e-17)
(3.6211 -1.78316 5.89473e-17)
(3.81924 -1.76706 0)
(4.00831 -1.73037 8.7018e-17)
(4.15335 -1.76428 0)
(4.26422 -1.85516 -2.85661e-17)
(4.43237 -1.90646 -2.82344e-17)
(4.66469 -1.80823 0)
(4.94543 -1.58136 0)
(5.14024 -1.53517 -5.45677e-17)
(5.20635 -1.80913 0)
(5.21543 -2.13951 -5.43642e-17)
(5.39004 -2.24444 0)
(5.67003 -1.97861 5.27429e-17)
(5.58837 -1.64509 1.03553e-16)
(5.38458 -1.67358 0)
(5.17686 -1.76487 0)
(5.15778 -1.77336 0)
(5.22494 -1.739 4.95846e-17)
(4.9235 -1.81621 0)
(4.79526 -2.1099 4.88473e-17)
(4.87539 -2.14503 0)
(4.76203 -1.81737 0)
(4.53414 -1.50526 -9.45494e-17)
(4.10923 -1.45731 0)
(3.54239 -1.30314 -4.62547e-17)
(2.83796 -1.04877 0)
(1.75339 -1.55511 -4.49832e-17)
(0.681408 -2.29003 0)
(0.132702 -2.17922 0)
(-0.554614 -1.74228 0)
(-0.75638 -2.44823 -1.3163e-16)
(-0.389419 -3.47775 -4.3279e-17)
(-0.567478 -3.67251 0)
(-1.2978 -3.12396 0)
(-2.89759 -1.87376 0)
(-4.86436 -0.62249 0)
(-5.89309 0.114455 4.23662e-17)
(-6.7225 0.625264 -8.42448e-17)
(-8.10434 1.11335 -4.20508e-17)
(-9.67222 1.06008 8.3715e-17)
(-10.8272 0.543643 8.31608e-17)
(-11.1827 -0.350275 4.13341e-17)
(-10.7906 -1.48753 0)
(-10.8232 -1.99063 8.31336e-17)
(-10.3354 -2.17368 0)
(-9.0305 -2.22385 -8.07037e-17)
(-7.61674 -2.47227 -3.94339e-17)
(-5.77956 -3.46852 0)
(-4.95162 -4.04404 8.05665e-17)
(-4.24068 -2.51761 3.98624e-17)
(-3.77553 -1.77378 0)
(-1.88273 0.347293 3.82761e-17)
(-4.36937 -0.205913 -1.1114e-16)
(-0.908771 -3.71494 0)
(-0.0801102 -2.70305 0)
(2.26377 -0.708882 0)
(3.12411 -1.57269 0)
(4.20905 -1.94433 -6.97028e-17)
(5.45705 -2.66019 -7.04439e-17)
(6.87508 -2.95761 0)
(8.26476 -3.44068 0)
(9.54656 -3.69521 0)
(10.9692 -3.55038 0)
(12.6371 -3.01453 0)
(14.2815 -2.06606 0)
(15.582 -1.36561 -6.73425e-17)
(16.2434 -1.086 1.26639e-20)
(16.6586 -0.892824 0)
(16.3823 -0.558452 0)
(15.8154 -0.347069 -6.66753e-17)
(14.5571 -0.393701 0)
(12.9439 -0.969112 6.47619e-17)
(11.9199 -1.16588 6.3847e-17)
(11.5885 -0.860166 0)
(11.052 -0.594314 0)
(9.48775 -0.847576 -6.25201e-17)
(7.66922 -1.22748 -1.21107e-16)
(6.39377 -1.29113 0)
(5.30796 -1.0122 0)
(4.4894 -0.501695 0)
(3.2173 -0.0887652 -5.4262e-17)
(1.44299 -0.233336 5.37907e-17)
(0.0257034 -0.307054 0)
(-1.98187 0.0454768 1.06124e-16)
(-3.72148 -0.213615 5.19112e-17)
(-4.26702 -0.793696 -1.03249e-16)
(-3.65749 0.0055954 0)
(-1.03608 1.96992 0)
(-5.51648 1.42449 -1.03406e-16)
(-6.9281 1.76374 -5.21238e-17)
(-9.59211 2.73444 0)
(-9.95593 2.42757 0)
(-14.0902 2.27553 0)
(-9.23051 -4.74346 0)
(-1.90953 -7.42541 -1.26836e-16)
(2.73661 -0.869712 0)
(2.73987 -1.00018 0)
(4.15032 -3.5102 0)
(7.18069 -5.39737 0)
(12.116 -5.07394 0)
(12.7093 -2.3871 0)
(17.5879 0.922111 -1.07827e-16)
(15.1064 2.46015 0)
(13.0578 1.49803 0)
(8.06472 0.83378 -1.93156e-16)
(6.76269 0.801112 9.07577e-17)
(3.302 -0.487031 -8.29341e-17)
(5.52074 0.552785 7.74078e-17)
(0.239639 4.15888 0)
(0.794271 3.67243 -4.79232e-17)
(1.45158 3.37866 0)
(2.18403 3.28762 -2.32816e-17)
(2.91555 3.29158 0)
(3.62036 3.28325 0)
(4.28056 3.2987 2.24852e-17)
(4.89063 3.31206 0)
(5.4615 3.32567 0)
(6.0239 3.42175 0)
(6.55568 3.46941 0)
(7.02664 3.41105 0)
(7.52827 3.4422 -8.49124e-17)
(7.92874 3.50697 -4.18991e-17)
(8.28864 3.64574 4.15096e-17)
(8.81003 3.56076 0)
(9.14798 3.13272 0)
(9.20679 3.02683 0)
(9.20054 3.52102 0)
(8.77645 4.0406 0)
(8.2921 4.67564 -4.1544e-17)
(7.83928 5.1529 -4.15453e-17)
(7.27558 5.35162 4.14783e-17)
(6.82842 5.6354 -4.13299e-17)
(6.32848 5.85628 0)
(5.84826 6.04307 0)
(5.44436 6.2306 -4.06581e-17)
(4.99398 6.32193 0)
(4.60862 6.36309 0)
(4.23971 6.34745 -3.99257e-17)
(3.87372 6.26857 -3.96813e-17)
(3.5708 6.12401 -3.94624e-17)
(3.24361 5.91745 0)
(2.95402 5.66957 0)
(2.6738 5.34485 3.87381e-17)
(2.37794 4.97554 0)
(2.12305 4.61392 0)
(1.82634 4.21427 -3.78714e-17)
(1.52747 3.80591 3.75545e-17)
(1.25977 3.37627 -3.72397e-17)
(0.964393 2.89057 0)
(0.725457 2.42896 0)
(0.509451 1.98713 -7.24282e-17)
(0.275208 1.53913 0)
(0.0645194 1.14804 -7.12056e-17)
(-0.107615 0.763786 -1.05949e-16)
(-0.266815 0.398997 1.05195e-16)
(-0.369194 0.0554285 -6.96227e-17)
(-0.432248 -0.298627 0)
(-0.497827 -0.659087 0)
(-0.518823 -0.970146 -6.81222e-17)
(-0.516328 -1.24918 -3.38181e-17)
(-0.492652 -1.47776 0)
(-0.440972 -1.67543 0)
(-0.333286 -1.84836 -3.31704e-17)
(-0.204162 -1.99687 -6.59238e-17)
(-0.0707254 -2.12859 0)
(0.0403383 -2.23779 6.49907e-17)
(0.191929 -2.32194 -6.45853e-17)
(0.369861 -2.35205 6.41607e-17)
(0.561652 -2.4241 0)
(0.764068 -2.53475 0)
(0.979453 -2.61888 0)
(1.22357 -2.64714 0)
(1.5202 -2.67978 0)
(1.80944 -2.70653 6.13172e-17)
(2.14143 -2.69817 0)
(2.48152 -2.68929 0)
(2.79595 -2.64062 0)
(3.11828 -2.61545 1.19262e-16)
(3.41249 -2.56286 5.92257e-17)
(3.66117 -2.51506 5.88612e-17)
(3.81541 -2.45219 -1.16946e-16)
(3.92776 -2.4683 5.81033e-17)
(4.06991 -2.4193 -5.76181e-17)
(4.21483 -2.39464 0)
(4.39338 -2.44524 5.67551e-17)
(4.5656 -2.5744 0)
(4.73882 -2.6639 0)
(5.00121 -2.51567 0)
(5.42238 -2.33703 1.09013e-16)
(5.76065 -2.45401 -5.43994e-17)
(5.96444 -2.78717 -5.48306e-17)
(5.96604 -2.99603 -1.09221e-16)
(5.84773 -2.59921 -1.60387e-16)
(5.56406 -2.11435 -5.20654e-17)
(5.11651 -2.20213 0)
(4.96331 -2.5509 -1.03404e-16)
(5.09271 -2.87314 0)
(5.18239 -2.72944 -1.5176e-16)
(5.00522 -2.64073 0)
(4.7763 -3.15296 -1.50057e-16)
(4.80689 -3.42516 0)
(4.98094 -3.03698 0)
(5.02431 -2.67542 -4.79758e-17)
(4.97985 -2.47756 0)
(4.78264 -2.10943 4.65274e-17)
(4.29616 -1.64806 9.15241e-17)
(4.0461 -1.66266 4.5449e-17)
(3.73674 -2.31165 9.01439e-17)
(2.46996 -2.56464 -8.90757e-17)
(1.54776 -2.30257 -8.87647e-17)
(1.66252 -3.24349 1.77064e-16)
(1.55074 -4.23081 0)
(0.408119 -3.81283 0)
(-1.23327 -2.43717 8.63259e-17)
(-3.35746 -0.937581 -8.69969e-17)
(-5.43551 -0.113945 0)
(-6.29376 0.0576981 0)
(-7.33671 0.635616 8.44029e-17)
(-8.27753 1.36449 0)
(-9.0318 1.27597 1.08044e-19)
(-9.86111 0.437477 1.06991e-19)
(-9.9267 -0.837901 8.23192e-17)
(-10.2186 -1.71139 0)
(-10.9968 -2.16518 -8.60786e-17)
(-10.7675 -3.02966 0)
(-10.1468 -3.51135 8.40812e-17)
(-9.01428 -4.11614 0)
(-7.85507 -4.87007 0)
(-7.16878 -4.84699 -8.01265e-17)
(-5.27861 -4.25953 -7.71143e-17)
(-2.81624 -2.87371 0)
(-2.37476 0.511983 -7.42532e-17)
(-4.0199 -0.379446 1.48979e-16)
(-0.53747 -5.10981 0)
(-1.72363 -3.99534 0)
(1.41261 -2.15098 0)
(3.98249 -2.79782 0)
(6.54079 -2.61813 6.80388e-17)
(7.33056 -3.55644 -1.39193e-16)
(8.33128 -4.27273 0)
(9.48188 -4.56672 0)
(10.4645 -4.84889 0)
(11.54 -4.78756 0)
(12.5246 -4.42975 0)
(13.702 -3.42958 0)
(14.7126 -2.52478 0)
(15.6715 -1.82269 6.74926e-17)
(16.4974 -1.56098 0)
(16.8486 -1.13363 0)
(16.7014 -0.928928 6.64129e-17)
(16.3529 -0.503406 0)
(15.5611 -0.300219 0)
(14.0213 -0.841581 -6.49516e-17)
(12.7104 -1.68519 0)
(12.4321 -1.46312 0)
(11.933 -1.14538 1.26131e-16)