/*--------------------------------*- C++ -*----------------------------------*\
| =========                 |                                                 |
| \\      /  F ield         | OpenFOAM: The Open Source CFD Toolbox           |
|  \\    /   O peration     | Version:  dev                                   |
|   \\  /    A nd           | Web:      http://www.openfoam.org               |
|    \\/     M anipulation  |                                                 |
\*---------------------------------------------------------------------------*/
FoamFile
{
    version     2.0;
    format      ascii;
    class       volVectorField;
    object      U_0;
    location    "9.158";
}
// * * * * * * * * * * * * * * * * * * * * * * * * * * * * * * * * * * * * * //

dimensions      [0 1 -1 0 0 0 0];

internalField   nonuniform List<vector> 
12225
(
(6.76227 0.458608 0)
(4.43368 0.226782 0)
(2.61148 0.0763693 0)
(2.42937 0.0324975 0)
(1.05731 0.0785215 0)
(1.59179 0.055005 0)
(-0.151413 0.114113 0)
(0.571065 0.0755711 0)
(-1.615 0.152038 0)
(-0.660209 0.105921 0)
(-3.42119 0.201174 0)
(-1.98836 0.125903 0)
(-5.90836 0.269549 0)
(-3.78622 0.262746 0)
(-8.32967 0.313349 0)
(-8.66068 1.07119 0)
(-8.47431 0.234345 0)
(-23.6668 4.9739 0)
(9.523 1.03801 0)
(9.81188 0.926593 0)
(6.98193 0.560335 0)
(8.04921 0.337232 0)
(4.30611 0.284881 0)
(7.03329 0.202748 0)
(2.4085 0.294768 0)
(6.22467 0.216344 0)
(0.443161 0.348344 0)
(5.63488 0.290945 0)
(-1.69053 0.407983 0)
(5.19694 0.387339 0)
(-4.44675 0.779217 0)
(4.42748 0.0295159 0)
(-7.04736 2.17408 0)
(1.11879 -1.28933 0)
(-5.71382 3.60223 0)
(-20.2504 3.74845 0)
(8.98136 0.797526 0)
(12.3366 1.10065 0)
(8.38 0.768275 0)
(12.0969 0.631993 0)
(6.33787 0.516691 0)
(11.4197 0.481611 0)
(4.37616 0.484844 0)
(10.6581 0.455022 0)
(2.6409 0.58009 0)
(9.5837 0.378889 0)
(1.69144 0.785661 0)
(7.73635 0.34554 0)
(1.15902 1.3306 0)
(4.68959 0.0960013 0)
(-0.176607 2.65166 0)
(-0.240859 -1.10219 0)
(-3.08946 8.33175 0)
(-4.26894 3.74685 0)
(6.77618 0.670462 0)
(14.0364 1.09995 0)
(8.28417 0.828437 0)
(14.3064 0.776148 0)
(7.99111 0.731618 0)
(13.6219 0.626241 0)
(7.32971 0.799507 0)
(12.4986 0.46666 0)
(6.62899 1.12194 0)
(10.7511 0.131584 0)
(5.75696 1.6404 0)
(8.53353 -0.198371 0)
(4.45688 2.76859 0)
(5.81407 -0.869548 0)
(2.53061 4.98104 0)
(2.41427 -1.3886 0)
(0.125715 6.64212 0)
(-0.669443 10.5824 0)
(7.19763 0.83722 0)
(13.116 0.628655 0)
(9.39486 0.921544 0)
(13.0145 0.584604 0)
(10.0636 1.04893 0)
(12.2724 0.480045 0)
(9.94119 1.18517 0)
(11.1545 0.357719 0)
(9.51648 1.54643 0)
(9.60041 0.1965 0)
(8.36013 2.17773 0)
(7.67751 0.0292145 0)
(6.96413 3.36096 0)
(5.46128 -0.00262237 0)
(4.92709 5.7952 0)
(3.17331 -0.162519 0)
(0.977579 9.91814 0)
(2.43654 5.54684 0)
(9.63552 1.06706 0)
(10.3664 0.370484 0)
(10.3412 1.12987 0)
(10.4674 0.334929 0)
(10.855 1.28254 0)
(10.243 0.323693 0)
(10.4199 1.51539 0)
(9.66269 0.21186 0)
(9.77126 1.99966 0)
(8.71874 0.206286 0)
(8.56343 2.71952 0)
(7.58564 0.118132 0)
(7.23465 3.65724 0)
(6.03506 0.754332 0)
(5.48361 5.18926 0)
(4.57044 1.99933 0)
(2.03255 7.15133 0)
(4.70239 7.76773 0)
(10.2688 1.16894 0)
(9.91412 0.331426 0)
(10.692 1.38568 0)
(10.2036 0.15844 0)
(10.9506 1.59831 0)
(10.1885 0.304865 0)
(10.5001 1.86381 0)
(9.65778 0.243138 0)
(9.72803 2.29284 0)
(9.00571 0.443052 0)
(8.75476 2.91968 0)
(8.07026 0.637729 0)
(7.42201 3.79223 0)
(6.75317 1.65429 0)
(5.9005 5.13256 0)
(5.32718 3.20672 0)
(3.9791 6.71092 0)
(4.58334 8.12633 0)
(9.9367 1.37032 0)
(10.2183 0.258654 0)
(10.6222 1.53966 0)
(10.4995 0.0474038 0)
(10.8022 1.69211 0)
(10.4324 0.298032 0)
(10.6029 1.98764 0)
(9.95731 0.398554 0)
(9.92416 2.28123 0)
(9.39252 0.763606 0)
(9.02851 2.80961 0)
(8.48548 1.24071 0)
(7.70185 3.52741 0)
(7.25481 2.50507 0)
(6.2792 4.74317 0)
(5.91814 4.45941 0)
(4.93444 6.48316 0)
(5.17173 7.84821 0)
(9.76116 1.42218 0)
(10.3167 0.188589 0)
(10.6532 1.6764 0)
(10.5595 0.0531162 0)
(10.7499 1.77481 0)
(10.3587 0.374535 0)
(10.5158 2.00208 0)
(9.94217 0.58084 0)
(9.87063 2.30588 0)
(9.30428 1.01964 0)
(8.90393 2.81794 0)
(8.43774 1.72454 0)
(7.79358 3.52703 0)
(7.28389 3.09378 0)
(6.5755 4.73195 0)
(6.23203 5.13009 0)
(5.74192 6.40235 0)
(5.70205 7.87932 0)
(9.77418 1.32219 0)
(10.1935 -0.020209 0)
(10.6985 1.63178 0)
(10.7171 0.215679 0)
(10.9081 1.75911 0)
(10.719 0.60547 0)
(10.7179 2.01005 0)
(10.3037 0.920558 0)
(9.99375 2.28724 0)
(9.56239 1.43629 0)
(9.00517 2.78077 0)
(8.66017 2.20536 0)
(8.05783 3.45565 0)
(7.62779 3.6094 0)
(7.0436 4.77667 0)
(6.73727 5.47112 0)
(6.52684 6.3869 0)
(6.45844 7.60544 0)
(10.1585 1.37717 0)
(10.3537 0.255584 0)
(10.5078 1.6005 0)
(10.476 0.325721 0)
(10.5396 1.6214 0)
(10.4661 0.75153 0)
(10.4037 1.9101 0)
(10.23 1.1727 0)
(9.95829 2.30584 0)
(9.72339 1.79405 0)
(9.25431 2.79443 0)
(8.97511 2.68167 0)
(8.45104 3.55179 0)
(8.02005 3.9947 0)
(7.60553 4.88316 0)
(7.3305 5.6428 0)
(7.19366 6.43859 0)
(7.14213 7.40509 0)
(9.9983 1.14558 0)
(10.6478 0.333182 0)
(10.6907 1.3806 0)
(10.8207 0.631283 0)
(10.7202 1.53544 0)
(10.7357 1.03481 0)
(10.6527 1.81543 0)
(10.5273 1.45982 0)
(10.2726 2.18036 0)
(10.0629 2.06045 0)
(9.62776 2.76099 0)
(9.35686 3.02348 0)
(8.93563 3.65692 0)
(8.58605 4.25613 0)
(8.30804 4.9745 0)
(8.11851 5.76747 0)
(8.02163 6.46365 0)
(8.06889 7.21706 0)
(9.96157 1.15816 0)
(10.4267 0.65191 0)
(10.5688 1.30264 0)
(10.7137 0.879367 0)
(10.837 1.4223 0)
(10.9105 1.22678 0)
(10.9201 1.71633 0)
(10.8168 1.73029 0)
(10.5696 2.24535 0)
(10.2805 2.41275 0)
(9.89654 2.90968 0)
(9.58591 3.33168 0)
(9.25597 3.82396 0)
(8.9976 4.40968 0)
(8.77745 5.01807 0)
(8.64128 5.67206 0)
(8.60174 6.32052 0)
(8.72517 6.98474 0)
(9.78336 0.901404 0)
(10.3639 0.760508 0)
(10.6239 0.998344 0)
(10.7942 0.967257 0)
(10.9273 1.26669 0)
(10.9761 1.33842 0)
(10.9915 1.66714 0)
(10.928 1.89692 0)
(10.8119 2.28158 0)
(10.646 2.62376 0)
(10.3982 3.02851 0)
(10.1471 3.46996 0)
(9.89129 3.91932 0)
(9.65386 4.43087 0)
(9.4608 4.99183 0)
(9.33358 5.58192 0)
(9.2556 6.15979 0)
(9.33625 6.73725 0)
(10.1655 0.765862 0)
(10.6528 0.892624 0)
(10.8933 1.01902 0)
(11.0114 1.12762 0)
(11.0621 1.28989 0)
(11.0612 1.44975 0)
(11.0464 1.66908 0)
(10.9732 1.94921 0)
(10.8756 2.30541 0)
(10.7483 2.68874 0)
(10.6199 3.11851 0)
(10.4667 3.57801 0)
(10.3284 4.03471 0)
(10.2025 4.50349 0)
(10.0983 4.97302 0)
(10.0404 5.43918 0)
(10.0314 5.90483 0)
(10.1062 6.34827 0)
(9.87396 0.635647 0)
(10.2784 0.923178 0)
(10.6024 1.01422 0)
(10.8914 1.15509 0)
(11.1048 1.33267 0)
(11.2339 1.53441 0)
(11.2919 1.77256 0)
(11.2979 2.03512 0)
(11.2665 2.33858 0)
(11.2219 2.6665 0)
(11.1702 3.01272 0)
(11.1241 3.39243 0)
(11.0902 3.7877 0)
(11.0511 4.19512 0)
(11.027 4.62283 0)
(11 5.06932 0)
(10.9948 5.50877 0)
(11.039 5.89917 0)
(9.85443 0.633213 0)
(10.3877 0.894934 0)
(10.7353 0.852625 0)
(11.0329 0.943034 0)
(11.2449 1.11401 0)
(11.4246 1.34581 0)
(11.5618 1.62232 0)
(11.6791 1.91231 0)
(11.7494 2.22032 0)
(11.7984 2.52781 0)
(11.8103 2.84274 0)
(11.8024 3.17538 0)
(11.7743 3.5296 0)
(11.753 3.88936 0)
(11.7212 4.2576 0)
(11.6938 4.63564 0)
(11.6859 5.00725 0)
(11.726 5.35374 0)
(9.99753 0.515171 0)
(10.6857 0.70635 0)
(11.0655 0.827216 0)
(11.3648 1.01018 0)
(11.5833 1.17623 0)
(11.7656 1.33522 0)
(11.9243 1.50917 0)
(12.0757 1.69632 0)
(12.1799 1.9285 0)
(12.2817 2.19578 0)
(12.3214 2.49475 0)
(12.3575 2.80513 0)
(12.3531 3.12991 0)
(12.3347 3.45349 0)
(12.3008 3.77296 0)
(12.2744 4.08592 0)
(12.2394 4.38861 0)
(12.2416 4.68321 0)
(10.1509 0.332217 0)
(10.7264 0.506101 0)
(11.1422 0.650436 0)
(11.5192 0.840249 0)
(11.8447 1.00711 0)
(12.1392 1.15482 0)
(12.3679 1.31581 0)
(12.5421 1.50853 0)
(12.6591 1.71392 0)
(12.7416 1.93692 0)
(12.7736 2.18577 0)
(12.7896 2.45079 0)
(12.763 2.73368 0)
(12.7607 3.02842 0)
(12.755 3.32394 0)
(12.7462 3.6099 0)
(12.7583 3.86644 0)
(12.7822 4.09451 0)
(10.2611 0.293234 0)
(10.7649 0.502201 0)
(11.1811 0.564384 0)
(11.612 0.711194 0)
(11.9905 0.847977 0)
(12.32 0.967264 0)
(12.5898 1.10204 0)
(12.8155 1.28279 0)
(12.996 1.48056 0)
(13.1374 1.72542 0)
(13.2156 1.94566 0)
(13.2541 2.16452 0)
(13.2501 2.38521 0)
(13.2171 2.57585 0)
(13.1851 2.77861 0)
(13.1475 2.98033 0)
(13.1084 3.18212 0)
(13.0981 3.38143 0)
(10.1739 0.297418 0)
(10.8984 0.40642 0)
(11.3689 0.398025 0)
(11.836 0.509898 0)
(12.236 0.643963 0)
(12.567 0.77345 0)
(12.8103 0.877824 0)
(13.0055 1.01391 0)
(13.1832 1.1612 0)
(13.3297 1.34662 0)
(13.4541 1.57046 0)
(13.5479 1.79796 0)
(13.5953 2.03037 0)
(13.6241 2.2549 0)
(13.6314 2.46012 0)
(13.6228 2.63521 0)
(13.5995 2.78851 0)
(13.5932 2.9288 0)
(10.1501 0.172814 0)
(10.8652 0.260944 0)
(11.4006 0.268709 0)
(11.8645 0.392409 0)
(12.2936 0.534595 0)
(12.67 0.674799 0)
(12.9838 0.778792 0)
(13.2722 0.876886 0)
(13.4869 1.00815 0)
(13.6687 1.13541 0)
(13.7955 1.30028 0)
(13.8654 1.46458 0)
(13.9217 1.62346 0)
(13.9356 1.7824 0)
(13.9354 1.92824 0)
(13.9179 2.06881 0)
(13.8898 2.20275 0)
(13.8861 2.31495 0)
(10.4532 0.294231 0)
(11.0644 0.172017 0)
(11.5089 0.131363 0)
(12.0174 0.241599 0)
(12.538 0.349302 0)
(12.9922 0.418308 0)
(13.3295 0.48998 0)
(13.5746 0.555759 0)
(13.7656 0.651862 0)
(13.9176 0.794401 0)
(14.0453 0.960922 0)
(14.1394 1.1477 0)
(14.188 1.33065 0)
(14.2204 1.4934 0)
(14.2231 1.6379 0)
(14.2018 1.76069 0)
(14.1818 1.85399 0)
(14.1463 1.94119 0)
(10.0096 0.0981454 0)
(10.8775 0.114053 0)
(11.5123 0.0163488 0)
(12.1369 0.0405136 0)
(12.7457 0.138777 0)
(13.2835 0.274055 0)
(13.6784 0.405013 0)
(13.9677 0.513589 0)
(14.1587 0.590472 0)
(14.2837 0.692339 0)
(14.3726 0.785167 0)
(14.4348 0.90114 0)
(14.4811 1.01586 0)
(14.5222 1.12854 0)
(14.5566 1.23146 0)
(14.5643 1.32174 0)
(14.5644 1.4019 0)
(14.5451 1.46205 0)
(10.2213 0.107096 0)
(11.0909 -0.0859759 0)
(11.7709 -0.165119 0)
(12.3416 -0.121534 0)
(12.8307 -0.0476071 0)
(13.2538 0.0382483 0)
(13.6263 0.121263 0)
(13.9478 0.219712 0)
(14.2304 0.321121 0)
(14.4738 0.421367 0)
(14.6605 0.532676 0)
(14.8038 0.63789 0)
(14.885 0.747109 0)
(14.9311 0.844697 0)
(14.9379 0.923693 0)
(14.9032 1.00286 0)
(14.8427 1.06096 0)
(14.7708 1.1183 0)
(10.1529 -0.0850372 0)
(10.9863 -0.23808 0)
(11.7406 -0.323675 0)
(12.4416 -0.250287 0)
(13.0539 -0.143124 0)
(13.5522 -0.0605993 0)
(13.9298 0.0154675 0)
(14.205 0.0816401 0)
(14.4133 0.147686 0)
(14.5584 0.219791 0)
(14.6678 0.293777 0)
(14.7392 0.384171 0)
(14.7829 0.481728 0)
(14.8091 0.580036 0)
(14.8199 0.668524 0)
(14.8071 0.745249 0)
(14.7758 0.80475 0)
(14.738 0.847043 0)
(9.94473 -0.148153 0)
(11.246 -0.400232 0)
(12.2729 -0.468904 0)
(13.0077 -0.408987 0)
(13.4869 -0.33207 0)
(13.7894 -0.258836 0)
(14.0091 -0.170631 0)
(14.1813 -0.077338 0)
(14.3247 0.0112071 0)
(14.4148 0.0950346 0)
(14.4669 0.162695 0)
(14.4585 0.225956 0)
(14.4437 0.28931 0)
(14.392 0.350176 0)
(14.3483 0.404173 0)
(14.2713 0.452874 0)
(14.1976 0.494419 0)
(14.1005 0.530311 0)
(10.0927 -0.468816 0)
(11.3842 -0.777159 0)
(12.2089 -0.669174 0)
(12.6754 -0.470105 0)
(12.909 -0.30898 0)
(12.9903 -0.207353 0)
(13.0082 -0.142069 0)
(12.9873 -0.0921987 0)
(12.9527 -0.0434746 0)
(12.8929 0.0129622 0)
(12.8126 0.0669669 0)
(12.6931 0.120279 0)
(12.5748 0.173406 0)
(12.4247 0.224315 0)
(12.2934 0.268441 0)
(12.1193 0.304033 0)
(11.9709 0.334688 0)
(11.7732 0.36242 0)
(10.3492 -0.77591 0)
(10.833 -0.935478 0)
(10.7816 -0.712275 0)
(10.5096 -0.491316 0)
(10.2468 -0.30389 0)
(10.0246 -0.16914 0)
(9.85481 -0.0797235 0)
(9.70057 -0.0159372 0)
(9.57075 0.0260251 0)
(9.44824 0.065103 0)
(9.32278 0.0926555 0)
(9.18866 0.115523 0)
(9.05928 0.139155 0)
(8.91614 0.159646 0)
(8.77855 0.178113 0)
(8.61532 0.200272 0)
(8.46288 0.210549 0)
(8.26194 0.227791 0)
(8.61684 -0.406752 0)
(6.95992 -0.358417 0)
(5.71686 -0.131308 0)
(5.06406 -0.0203691 0)
(4.85186 0.0316137 0)
(4.84202 0.0467886 0)
(4.91447 0.0440574 0)
(5.00017 0.0372343 0)
(5.07089 0.030289 0)
(5.10363 0.0352325 0)
(5.1008 0.03818 0)
(5.07239 0.0425089 0)
(5.02809 0.0512866 0)
(4.96407 0.0588436 0)
(4.89003 0.0682151 0)
(4.80035 0.0780761 0)
(4.71652 0.0743995 0)
(4.5638 0.114966 0)
(0.244808 0.491067 0)
(0.78679 0.449803 0)
(1.3527 0.450941 0)
(1.91754 0.454344 0)
(2.4868 0.450664 0)
(3.06252 0.443069 0)
(3.64433 0.437743 1.13412e-17)
(4.22331 0.436525 -1.12692e-17)
(4.79218 0.437464 0)
(5.34848 0.435853 -1.11305e-17)
(5.89672 0.435412 0)
(6.43034 0.432209 0)
(6.94162 0.419607 0)
(7.4375 0.404867 1.08744e-17)
(7.92284 0.391359 0)
(8.39735 0.379167 0)
(8.87538 0.369123 -1.06786e-17)
(9.35651 0.357606 0)
(9.81028 0.343225 0)
(10.2422 0.338955 0)
(10.644 0.374276 1.04381e-17)
(10.9774 0.421562 0)
(11.3038 0.468888 1.03016e-17)
(11.6697 0.480154 0)
(12.0291 0.401101 0)
(12.3437 0.221822 1.01461e-17)
(12.5896 -0.027407 0)
(12.7358 -0.303654 -1.00252e-17)
(12.7793 -0.425136 0)
(12.6903 -0.27314 9.96424e-18)
(12.4186 0.171022 0)
(11.8413 0.693624 0)
(10.9758 0.988997 0)
(10.055 1.03324 0)
(9.15662 0.995919 0)
(8.26386 0.9645 -9.53266e-18)
(7.39722 0.926231 0)
(6.55506 0.8798 1.87386e-17)
(5.74901 0.821974 0)
(4.97794 0.755522 -1.84305e-17)
(4.25357 0.692535 0)
(3.57943 0.634376 0)
(2.94093 0.572162 1.79906e-17)
(2.38145 0.514818 0)
(1.88543 0.451935 1.77143e-17)
(1.42741 0.399792 -1.75791e-17)
(1.04434 0.332517 0)
(0.687824 0.259497 -1.73108e-17)
(0.406307 0.206411 -1.71777e-17)
(0.164885 0.149232 0)
(-0.0375699 0.114705 0)
(-0.19037 0.0659276 0)
(-0.325934 0.035922 0)
(-0.426803 0.0115378 0)
(-0.499257 -0.00615347 1.64032e-17)
(-0.560087 -0.0227509 0)
(-0.595583 -0.0486839 -1.61571e-17)
(-0.610425 -0.0722472 0)
(-0.602031 -0.0899528 0)
(-0.589813 -0.0989235 1.58034e-17)
(-0.586386 -0.0994651 0)
(-0.580774 -0.103287 -1.55776e-17)
(-0.546851 -0.0986631 0)
(-0.480979 -0.0984807 0)
(-0.402548 -0.107019 0)
(-0.339461 -0.105511 1.51511e-17)
(-0.268055 -0.10585 0)
(-0.183654 -0.107681 0)
(-0.0946822 -0.111933 1.48387e-17)
(0.00489463 -0.118027 0)
(0.11857 -0.114333 1.46317e-17)
(0.248085 -0.124371 0)
(0.381862 -0.128985 0)
(0.523611 -0.119627 0)
(0.6736 -0.117823 -1.41826e-17)
(0.822076 -0.105854 0)
(0.979911 -0.0857127 0)
(1.0962 -0.0745483 -1.38112e-17)
(1.15391 -0.0624044 -1.36895e-17)
(1.13808 -0.0616312 0)
(1.09236 -0.0712703 -1.3459e-17)
(1.10795 -0.078491 0)
(1.15817 -0.0738914 -2.64834e-17)
(1.18044 -0.0639576 0)
(1.10206 -0.0731941 -2.60694e-17)
(0.917072 -0.0961554 0)
(0.721826 -0.120921 2.56426e-17)
(0.525397 -0.134132 0)
(0.303726 -0.146632 0)
(0.0718564 -0.178862 0)
(-0.171252 -0.193845 -2.47399e-17)
(-0.348687 -0.207782 0)
(-0.499215 -0.212963 2.43071e-17)
(-0.715391 -0.198182 0)
(-0.98338 -0.181086 -2.38408e-17)
(-1.3225 -0.177801 -2.3634e-17)
(-1.8689 -0.0917108 -2.34125e-17)
(-2.44518 0.0568758 0)
(-2.89172 0.0538393 0)
(-3.23231 -0.0728994 0)
(-3.61553 -0.112301 0)
(-4.20569 -0.181441 0)
(-4.7753 -0.297627 0)
(-4.6762 -0.49958 0)
(-3.94599 -0.835415 0)
(-3.01715 -0.891363 2.18346e-17)
(-2.20373 -0.88054 2.18206e-17)
(-1.52595 -0.905177 0)
(-1.54562 -0.343891 0)
(-2.73157 0.300779 0)
(-3.80402 0.249278 2.13088e-17)
(-4.86453 0.262387 0)
(-6.07052 0.485911 0)
(-7.26817 0.625787 0)
(-8.05279 0.426939 0)
(-7.99644 0.0805019 -2.03958e-17)
(-7.65865 -0.0281945 0)
(-7.50241 0.0112235 0)
(-7.53407 -0.188876 2.00164e-17)
(-6.86271 -0.751807 -1.97932e-17)
(-4.90577 -1.25086 0)
(-1.67421 -1.47297 -1.97123e-17)
(-0.179248 -0.632284 0)
(0.284261 0.184699 1.96001e-17)
(-2.11597 0.341829 0)
(-0.50014 -0.119604 0)
(0.529121 -0.24566 0)
(1.33179 0.0205612 0)
(1.53676 -0.0832115 0)
(2.6568 -0.0279709 -3.66289e-17)
(3.43447 -0.253329 -3.62627e-17)
(5.10926 -0.34854 0)
(6.88248 -0.418545 0)
(9.02274 -0.32723 0)
(10.7319 -0.0999721 3.57146e-17)
(11.7471 0.122164 0)
(11.8257 0.190842 0)
(11.3574 -0.0287997 0)
(10.8451 -0.159989 3.546e-17)
(10.4304 -0.20416 -3.51611e-17)
(9.88991 -0.148808 0)
(9.27332 -0.0622571 0)
(8.45491 -0.0960381 -3.42393e-17)
(7.50392 -0.304566 -3.39062e-17)
(6.44946 -0.426331 0)
(5.52509 -0.350968 0)
(4.72263 -0.183187 3.27757e-17)
(4.05104 -0.136899 -3.23917e-17)
(3.38806 -0.156461 0)
(2.70222 -0.166157 0)
(1.90813 -0.109002 -3.13579e-17)
(0.912397 -0.0852946 0)
(-0.30999 -0.0589752 0)
(-1.36572 -0.0590574 -3.03621e-17)
(-1.85653 -0.105148 0)
(-2.47847 -0.0267746 -2.98752e-17)
(-2.98682 -0.0186126 0)
(-3.31675 0.0925589 0)
(-3.28469 0.331643 0)
(-4.81022 0.373088 2.91115e-17)
(-6.52216 -0.0612966 0)
(-6.5174 -0.0412993 0)
(-8.05428 0.15069 0)
(-9.49097 0.800006 0)
(-14.8931 1.34746 0)
(-15.4626 -0.146762 0)
(-8.08947 -1.1614 2.72777e-17)
(-7.71244 0.109878 2.77453e-17)
(-8.09285 0.183754 0)
(-5.47837 -0.553669 0)
(-1.3059 -0.741307 0)
(4.04127 0.0170717 -2.72351e-17)
(6.38559 1.04992 0)
(4.71517 0.933257 5.44353e-17)
(1.52142 0.167062 -5.24459e-17)
(1.01382 -0.0178283 -5.14403e-17)
(1.38064 0.305068 5.17192e-17)
(-0.593567 0.384172 -4.90677e-17)
(1.32234 0.697025 4.45514e-17)
(1.48378 0.979462 0)
(0.220266 1.52851 0)
(0.744003 1.36037 0)
(1.31245 1.33284 -2.32432e-17)
(1.89867 1.32293 0)
(2.48357 1.29811 2.27096e-17)
(3.07121 1.26433 2.25246e-17)
(3.66247 1.24523 1.11718e-17)
(4.2495 1.24817 1.10999e-17)
(4.8223 1.2609 0)
(5.37735 1.2634 1.09452e-17)
(5.9169 1.2628 0)
(6.42635 1.27277 0)
(6.91109 1.27831 -2.14311e-17)
(7.39147 1.28713 -1.06466e-17)
(7.88495 1.27386 2.11529e-17)
(8.38544 1.21366 2.10284e-17)
(8.8583 1.11478 1.04497e-17)
(9.28211 1.09031 0)
(9.69547 1.1258 0)
(10.1734 1.11404 0)
(10.668 1.13813 1.02446e-17)
(11.044 1.01844 0)
(11.2683 0.782775 -3.03927e-17)
(11.3683 0.628901 0)
(11.3382 0.643121 0)
(11.0162 0.91014 -1.01818e-17)
(10.4052 1.44684 0)
(9.59822 2.02081 1.00428e-17)
(8.57973 2.41618 2.00208e-17)
(7.53897 2.67134 -9.93583e-18)
(6.65816 2.87411 0)
(5.89755 2.97498 0)
(5.15721 2.98394 0)
(4.41697 2.93057 1.91849e-17)
(3.68561 2.79643 1.90412e-17)
(2.97246 2.63642 9.44859e-18)
(2.30879 2.46826 0)
(1.66486 2.27883 -1.86178e-17)
(1.06961 2.098 0)
(0.496155 1.89567 1.83568e-17)
(-0.0320943 1.69595 0)
(-0.501813 1.4937 0)
(-0.912856 1.2615 -1.79997e-17)
(-1.24523 1.05521 0)
(-1.53282 0.850363 -5.32712e-17)
(-1.80475 0.657897 1.76224e-17)
(-2.03539 0.496011 0)
(-2.22294 0.341971 1.73503e-17)
(-2.35092 0.197489 1.72115e-17)
(-2.43626 0.0621228 0)
(-2.47806 -0.0702767 0)
(-2.48095 -0.190336 0)
(-2.46115 -0.273452 0)
(-2.4207 -0.334858 0)
(-2.37083 -0.387562 -1.63991e-17)
(-2.31561 -0.431382 -3.25506e-17)
(-2.21088 -0.490243 1.61447e-17)
(-2.07757 -0.551107 0)
(-1.92334 -0.582945 -3.18253e-17)
(-1.7916 -0.584145 1.58041e-17)
(-1.67735 -0.580466 0)
(-1.53382 -0.59658 1.5573e-17)
(-1.35712 -0.615232 0)
(-1.17707 -0.634827 0)
(-0.982514 -0.655699 3.06146e-17)
(-0.800506 -0.632725 -1.52034e-17)
(-0.581777 -0.632535 3.0248e-17)
(-0.373017 -0.654122 -3.00826e-17)
(-0.171062 -0.651596 -1.49392e-17)
(0.0491063 -0.653178 0)
(0.261473 -0.677732 -1.47598e-17)
(0.470984 -0.701884 0)
(0.65471 -0.719204 0)
(0.830674 -0.718307 0)
(1.01318 -0.753654 -1.43441e-17)
(1.16413 -0.760335 0)
(1.35931 -0.74408 -2.81087e-17)
(1.59598 -0.674243 4.16642e-17)
(1.81929 -0.556101 1.3707e-17)
(1.94622 -0.447607 0)
(1.95484 -0.471661 1.34102e-17)
(2.02224 -0.618595 0)
(2.17523 -0.708094 2.64201e-17)
(2.46606 -0.627681 0)
(2.6949 -0.422276 2.58844e-17)
(2.68306 -0.296673 -5.12505e-17)
(2.5986 -0.368416 -2.53264e-17)
(2.51032 -0.414338 0)
(2.40522 -0.377149 0)
(2.22703 -0.385288 0)
(1.93535 -0.431373 2.44214e-17)
(1.81966 -0.567766 0)
(1.74741 -0.692485 -2.39049e-17)
(1.41277 -0.587649 0)
(0.951492 -0.442407 7.07278e-17)
(0.463781 -0.34282 2.32556e-17)
(-0.199812 -0.223324 2.30257e-17)
(-1.00634 -0.44158 0)
(-1.51581 -0.733636 0)
(-1.60089 -0.744961 0)
(-1.61639 -0.546217 0)
(-2.18143 -0.249576 0)
(-2.56909 -0.49731 4.35539e-17)
(-2.10829 -1.37101 4.25799e-17)
(-1.61943 -1.95414 0)
(-1.25419 -1.92617 -2.10342e-17)
(-1.31107 -1.54968 -2.14583e-17)
(-2.51689 -0.522812 0)
(-3.92762 0.530826 -4.27321e-17)
(-5.0206 0.818412 0)
(-6.38732 0.889735 2.09116e-17)
(-8.13268 1.02758 0)
(-9.4398 0.927804 0)
(-10.0485 0.574446 -4.06783e-17)
(-9.87423 -0.120946 0)
(-9.2834 -0.584338 2.03002e-17)
(-8.68777 -0.456294 0)
(-7.71901 -0.188533 0)
(-6.74511 -0.293676 1.94586e-17)
(-5.41499 -1.32533 1.93742e-17)
(-4.06462 -2.67407 0)
(-2.17358 -2.12056 -1.98657e-17)
(-3.2071 -0.2868 0)
(-0.744131 1.34311 1.92705e-17)
(-3.63564 0.65178 3.75045e-17)
(-0.639711 -1.16415 0)
(0.876677 -0.793917 0)
(1.67332 -0.0972878 0)
(1.67797 -0.635282 0)
(2.87305 -0.711277 3.50373e-17)
(4.09247 -1.25887 1.05174e-16)
(5.62318 -1.67467 0)
(7.29839 -2.13064 0)
(9.23337 -2.23858 0)
(11.2454 -1.91954 -3.43767e-17)
(13.2091 -1.29153 0)
(14.5269 -0.455 0)
(15.077 -0.136937 6.8397e-17)
(15.0416 -0.0789142 3.43096e-17)
(14.5858 -0.236165 3.42424e-17)
(13.7703 -0.331103 0)
(12.7705 -0.484289 0)
(11.5118 -0.414152 3.30113e-17)
(10.5848 -0.206641 -3.26561e-17)
(9.58605 -0.15055 0)
(8.29517 -0.425039 0)
(6.75391 -0.824316 -3.1657e-17)
(5.44221 -1.11479 9.27532e-17)
(4.53473 -1.02948 0)
(3.82778 -0.89402 0)
(2.99419 -0.694982 2.91009e-17)
(2.03232 -0.377079 0)
(0.565439 -0.270848 5.67568e-17)
(-0.793985 -0.443002 -2.79561e-17)
(-1.38702 -0.606871 0)
(-2.67146 -0.497224 2.74165e-17)
(-3.76931 -0.535934 5.30487e-17)
(-4.1745 -0.710545 0)
(-3.44501 -0.0173975 0)
(-4.32453 0.853132 -2.69973e-17)
(-7.65365 0.296879 0)
(-8.75287 0.593098 5.40934e-17)
(-11.9326 1.49697 0)
(-13.3974 1.35641 0)
(-16.1931 1.5995 0)
(-14.104 -1.66955 0)
(-4.91991 -3.87726 -2.73887e-17)
(-5.22716 -0.490086 -2.53604e-17)
(-4.70312 -0.737314 0)
(-2.01598 -2.52486 0)
(1.27354 -3.8565 0)
(6.35384 -3.66049 2.65856e-17)
(10.2937 -0.929751 0)
(12.5435 1.62843 -5.42001e-17)
(9.0957 2.05777 5.3243e-17)
(6.58368 0.715329 4.92195e-17)
(4.79264 0.922198 4.88053e-17)
(2.27229 0.570496 4.68436e-17)
(2.22213 -0.727034 3.83208e-17)
(4.93793 0.74577 0)
(0.208562 2.60363 0)
(0.713904 2.26991 0)
(1.29945 2.15095 2.35417e-17)
(1.92832 2.11879 2.31861e-17)
(2.55057 2.09477 -2.29323e-17)
(3.16836 2.05344 -2.27114e-17)
(3.7703 2.02938 -1.53486e-20)
(4.34829 2.03474 0)
(4.92172 2.08041 0)
(5.46867 2.12198 0)
(5.97359 2.12655 0)
(6.47811 2.13261 0)
(6.9997 2.13917 6.41916e-17)
(7.46014 2.06012 0)
(7.8653 1.89336 -2.09515e-17)
(8.22402 1.82547 -2.07684e-17)
(8.64126 1.85018 0)
(9.11369 1.85405 0)
(9.53078 1.60831 0)
(9.67229 1.3253 0)
(9.71931 1.54647 -2.05994e-17)
(9.53363 2.026 0)
(8.99153 2.54167 2.04874e-17)
(8.32292 3.0838 0)
(7.48932 3.56139 0)
(6.65816 3.95521 0)
(5.97563 4.22543 4.035e-17)
(5.33708 4.39044 0)
(4.73011 4.52284 -1.99119e-17)
(4.10243 4.59535 3.95287e-17)
(3.49701 4.65691 0)
(2.95163 4.68282 0)
(2.41538 4.57915 0)
(1.93435 4.41955 -1.92964e-17)
(1.4844 4.21273 -1.91999e-17)
(1.03011 3.94306 0)
(0.605867 3.67747 0)
(0.200942 3.39297 3.77227e-17)
(-0.197434 3.09757 3.74922e-17)
(-0.563342 2.8049 -3.72703e-17)
(-0.897435 2.4666 0)
(-1.20052 2.11227 0)
(-1.45372 1.78009 0)
(-1.67458 1.45837 0)
(-1.9013 1.15354 3.60053e-17)
(-2.09674 0.891793 3.57499e-17)
(-2.26126 0.643533 -3.54709e-17)
(-2.40182 0.394758 0)
(-2.47149 0.16324 0)
(-2.52015 -0.0858697 0)
(-2.51711 -0.309836 0)
(-2.47467 -0.47926 3.41411e-17)
(-2.43477 -0.614084 0)
(-2.35541 -0.720917 0)
(-2.26295 -0.822647 3.33931e-17)
(-2.13738 -0.890697 3.31204e-17)
(-1.99744 -0.972567 0)
(-1.84173 -1.03854 -6.52937e-17)
(-1.66502 -1.07008 3.23761e-17)
(-1.48752 -1.04642 -3.21403e-17)
(-1.32607 -1.04103 0)
(-1.11721 -1.08681 0)
(-0.900264 -1.15579 0)
(-0.699982 -1.16916 0)
(-0.427721 -1.18492 -3.10466e-17)
(-0.174628 -1.17109 -6.17316e-17)
(0.079206 -1.15299 -3.0639e-17)
(0.316167 -1.17261 3.04573e-17)
(0.555469 -1.14867 0)
(0.781059 -1.1304 -6.01892e-17)
(0.969823 -1.12279 -5.97899e-17)
(1.15971 -1.12839 -5.93635e-17)
(1.28558 -1.07424 5.88786e-17)
(1.40034 -1.0454 0)
(1.5098 -0.99587 8.69019e-17)
(1.57974 -1.01629 0)
(1.62042 -1.09214 -2.85337e-17)
(1.72775 -1.12761 -2.81829e-17)
(1.91123 -1.01398 0)
(2.15721 -0.775677 0)
(2.32665 -0.722355 -5.44732e-17)
(2.37269 -0.984684 0)
(2.37811 -1.29168 -5.42478e-17)
(2.57373 -1.37248 0)
(2.89826 -1.0933 5.25956e-17)
(2.88683 -0.764371 1.03243e-16)
(2.77193 -0.788735 0)
(2.64931 -0.862589 0)
(2.72784 -0.851735 0)
(2.91433 -0.810638 4.94174e-17)
(2.74339 -0.883721 0)
(2.75468 -1.1671 4.8672e-17)
(2.98426 -1.19075 0)
(3.02809 -0.861766 0)
(2.96333 -0.554409 -9.41684e-17)
(2.70538 -0.51229 0)
(2.30853 -0.363023 -4.6067e-17)
(1.78738 -0.112658 0)
(0.884826 -0.629578 -4.48063e-17)
(-0.0170855 -1.37416 0)
(-0.407644 -1.26411 0)
(-0.939637 -0.828412 0)
(-0.989001 -1.53758 -1.31124e-16)
(-0.476815 -2.56598 -4.31064e-17)
(-0.518644 -2.77893 0)
(-1.13316 -2.24037 0)
(-2.63407 -1.00943 0)
(-4.53326 0.219719 0)
(-5.50511 0.933064 4.22446e-17)
(-6.26094 1.42554 -8.40203e-17)
(-7.56255 1.91702 -4.19336e-17)
(-9.07599 1.8793 8.35271e-17)
(-10.2259 1.3769 8.29932e-17)
(-10.6079 0.496871 4.12362e-17)
(-10.212 -0.654897 0)
(-10.2383 -1.19812 8.29661e-17)
(-9.79852 -1.39833 0)
(-8.5252 -1.45051 -8.06565e-17)
(-7.13172 -1.67241 -3.93661e-17)
(-5.28994 -2.64954 0)
(-4.45424 -3.26344 8.0462e-17)
(-3.78807 -1.74279 3.98691e-17)
(-3.3894 -1.01411 0)
(-1.49141 1.11134 3.82643e-17)
(-4.00636 0.562642 -1.111e-16)
(-0.560694 -2.90891 0)
(0.268201 -1.9463 0)
(2.55993 0.00320433 0)
(3.3895 -0.864474 0)
(4.41705 -1.29331 -6.97031e-17)
(5.65482 -2.04272 -7.04584e-17)
(7.05389 -2.37256 0)
(8.4033 -2.89178 0)
(9.64217 -3.17275 0)
(11.0328 -3.04852 0)
(12.6643 -2.52665 0)
(14.2361 -1.62721 0)
(15.4295 -1.01546 -6.72544e-17)
(15.9789 -0.812686 2.90886e-20)
(16.2719 -0.668669 0)
(15.8609 -0.38194 0)
(15.157 -0.219034 -6.64989e-17)
(13.7396 -0.320325 0)
(12.0053 -0.92851 6.45443e-17)
(10.9157 -1.13336 6.36518e-17)
(10.4971 -0.839787 0)
(9.80456 -0.610479 0)
(8.08082 -0.897115 -6.22713e-17)
(6.17159 -1.27457 -1.20587e-16)
(4.83682 -1.32352 0)
(3.68849 -1.04246 0)
(2.81206 -0.538496 0)
(1.48221 -0.144585 -5.40959e-17)
(-0.289511 -0.341385 5.36351e-17)
(-1.66428 -0.472784 0)
(-3.62519 -0.180415 1.05917e-16)
(-5.33088 -0.485831 5.18284e-17)
(-5.90329 -1.07577 -1.03058e-16)
(-5.36032 -0.298909 0)
(-2.68181 1.6696 0)
(-7.2473 1.12212 -1.0327e-16)
(-8.77438 1.44798 -5.19297e-17)
(-11.6602 2.40569 0)
(-12.1498 2.20648 0)
(-16.361 2.25414 0)
(-11.5994 -4.71562 0)
(-4.2624 -7.24832 -1.26305e-16)
(0.343782 -0.79768 0)
(0.421836 -0.753648 0)
(1.95002 -3.20836 0)
(5.04176 -4.98383 0)
(9.87822 -4.48447 0)
(10.8001 -1.68704 0)
(15.7605 1.68792 -1.0787e-16)
(13.3583 3.29248 0)
(11.6566 2.37626 0)
(6.91713 1.75433 -1.92484e-16)
(6.03583 1.69647 9.04004e-17)
(3.055 0.377238 -8.26989e-17)
(5.90294 1.37972 7.7285e-17)
(0.201145 3.69588 0)
(0.694231 3.17684 -4.82683e-17)
(1.2928 2.88239 0)
(1.96679 2.7968 -2.34588e-17)
(2.63788 2.80751 0)
(3.27962 2.805 0)
(3.87464 2.82762 2.26307e-17)
(4.41784 2.84843 0)
(4.92181 2.87205 0)
(5.4162 2.97632 0)
(5.87702 3.02527 0)
(6.27867 2.9728 0)
(6.70763 3.01753 -8.54454e-17)
(7.03819 3.09753 -4.21513e-17)
(7.34181 3.23175 4.18046e-17)
(7.79177 3.12122 0)
(8.02948 2.71344 0)
(7.99715 2.68646 0)
(7.88667 3.23816 0)
(7.35733 3.78858 0)
(6.80137 4.44753 -4.18099e-17)
(6.27869 4.92575 -4.18099e-17)
(5.65587 5.13028 4.17244e-17)
(5.15674 5.42998 -4.15566e-17)
(4.60603 5.65828 0)
(4.08149 5.85417 0)
(3.63534 6.05298 -4.08528e-17)
(3.14495 6.15231 0)
(2.7221 6.20193 0)
(2.31901 6.19654 -4.00837e-17)
(1.92145 6.12722 -3.98231e-17)
(1.58984 5.99378 -3.95905e-17)
(1.2371 5.79992 0)
(0.924401 5.56637 0)
(0.625305 5.25887 3.88216e-17)
(0.317717 4.91017 0)
(0.0561772 4.57369 0)
(-0.240616 4.2018 -3.79176e-17)
(-0.536875 3.81759 3.75944e-17)
(-0.796746 3.41937 -3.72714e-17)
(-1.07612 2.96551 0)
(-1.29454 2.53632 0)
(-1.48473 2.12807 -7.24443e-17)
(-1.68995 1.71351 0)
(-1.86991 1.35713 -7.12e-17)
(-2.00849 1.00916 -1.05919e-16)
(-2.13319 0.681141 1.0515e-16)
(-2.19771 0.37481 -6.959e-17)
(-2.22547 0.0568716 0)
(-2.256 -0.265709 0)
(-2.23997 -0.541873 -6.80712e-17)
(-2.2038 -0.786109 -3.378e-17)
(-2.14774 -0.979398 0)
(-2.06769 -1.14225 0)
(-1.93532 -1.28108 -3.31268e-17)
(-1.78448 -1.39644 -6.5855e-17)
(-1.63523 -1.49607 0)
(-1.5155 -1.57501 6.49004e-17)
(-1.36232 -1.63139 -6.45155e-17)
(-1.18931 -1.63451 6.40919e-17)
(-1.01043 -1.67962 0)
(-0.829555 -1.76521 0)
(-0.644998 -1.82684 0)
(-0.43746 -1.83056 0)
(-0.167479 -1.83822 0)
(0.0795152 -1.82999 6.12395e-17)
(0.333361 -1.80759 0)
(0.592342 -1.78499 0)
(0.831853 -1.71741 0)
(1.07634 -1.67623 1.19138e-16)
(1.28759 -1.60869 5.91539e-17)
(1.44966 -1.54596 5.87877e-17)
(1.51756 -1.4683 -1.16814e-16)
(1.54497 -1.46839 5.80435e-17)
(1.60747 -1.40125 -5.75325e-17)
(1.67779 -1.35764 0)
(1.78535 -1.38862 5.66613e-17)
(1.8929 -1.49653 0)
(2.00805 -1.56332 0)
(2.22943 -1.39506 0)
(2.63016 -1.202 1.08809e-16)
(2.95283 -1.30183 -5.43236e-17)
(3.13353 -1.60873 -5.47758e-17)
(3.13476 -1.79204 -1.08991e-16)
(3.05818 -1.3811 -1.59929e-16)
(2.85752 -0.900536 -5.18982e-17)
(2.49254 -0.976364 0)
(2.41244 -1.29222 -1.03116e-16)
(2.63058 -1.579 0)
(2.83838 -1.42578 -1.51209e-16)
(2.79435 -1.33737 0)
(2.6919 -1.83265 -1.49522e-16)
(2.86888 -2.08227 0)
(3.21511 -1.69863 0)
(3.43795 -1.35024 -4.78024e-17)
(3.56922 -1.15621 0)
(3.54597 -0.791134 4.63133e-17)
(3.23789 -0.340698 9.1168e-17)
(3.16391 -0.363267 4.52556e-17)
(3.01656 -1.02533 8.9801e-17)
(1.9126 -1.28898 -8.87551e-17)
(1.15795 -1.02614 -8.84539e-17)
(1.42318 -1.96566 1.76382e-16)
(1.45642 -2.97288 0)
(0.459384 -2.58061 0)
(-1.06971 -1.21153 8.60484e-17)
(-3.11132 0.27951 -8.67454e-17)
(-5.11971 1.08301 0)
(-5.91208 1.21842 0)
(-6.89212 1.75749 8.41678e-17)
(-7.77749 2.47509 0)
(-8.46929 2.41751 1.32813e-19)
(-9.27777 1.60596 1.2947e-19)
(-9.335 0.329406 8.20672e-17)
(-9.58986 -0.556063 0)
(-10.3736 -1.01362 -8.57901e-17)
(-10.1872 -1.87862 0)
(-9.59669 -2.38938 8.40744e-17)
(-8.49171 -2.98519 0)
(-7.33015 -3.74134 0)
(-6.70026 -3.73834 -8.0204e-17)
(-4.89742 -3.15745 -7.71677e-17)
(-2.45009 -1.81493 0)
(-1.99945 1.56109 -7.41975e-17)
(-3.65999 0.694253 1.48886e-16)
(-0.182512 -4.03778 0)
(-1.38153 -2.93972 0)
(1.71922 -1.11904 0)
(4.28591 -1.75933 0)
(6.74537 -1.70729 6.79763e-17)
(7.47145 -2.71313 -1.3939e-16)
(8.45576 -3.45998 0)
(9.56806 -3.79653 0)
(10.5073 -4.12811 0)
(11.5209 -4.10955 0)
(12.47 -3.77438 0)
(13.5858 -2.82033 0)
(14.5284 -1.9937 0)
(15.4043 -1.38379 6.74643e-17)
(16.1238 -1.20143 0)
(16.3421 -0.849962 0)
(16.0691 -0.712675 6.61528e-17)
(15.5899 -0.351397 0)
(14.6125 -0.22708 0)
(12.9087 -0.834376 -6.48057e-17)
(11.5331 -1.69113 0)