/*--------------------------------*- C++ -*----------------------------------*\
| =========                 |                                                 |
| \\      /  F ield         | OpenFOAM: The Open Source CFD Toolbox           |
|  \\    /   O peration     | Version:  dev                                   |
|   \\  /    A nd           | Web:      http://www.openfoam.org               |
|    \\/     M anipulation  |                                                 |
\*---------------------------------------------------------------------------*/
FoamFile
{
    version     2.0;
    format      ascii;
    class       volVectorField;
    object      UMean;
    location    "9.158";
}
// * * * * * * * * * * * * * * * * * * * * * * * * * * * * * * * * * * * * * //

dimensions      [0 1 -1 0 0 0 0];

internalField   nonuniform List<vector> 
12225
(
(7.00357 0.430267 0)
(4.43873 0.192547 0)
(2.55676 0.0311591 0)
(2.51083 -0.0166552 0)
(1.38448 0.0193658 0)
(2.2673 -0.0342767 0)
(0.989574 0.0489832 0)
(2.18254 -0.0591693 0)
(0.79754 0.0716501 0)
(2.29175 -0.0978401 0)
(0.68875 0.099359 0)
(2.74363 -0.138631 0)
(0.947988 0.102598 0)
(3.39732 -0.172138 0)
(3.53068 -0.16846 0)
(4.69646 0.0499819 0)
(14.8432 -2.4337 0)
(7.11896 5.13331 0)
(9.54626 0.981572 0)
(9.54327 0.860847 0)
(6.6868 0.466283 0)
(7.59031 0.214537 0)
(4.09062 0.140327 0)
(6.84302 0.0108085 0)
(2.66522 0.132665 0)
(6.68907 -0.0903241 0)
(1.82279 0.141853 0)
(7.03885 -0.165047 0)
(1.26075 0.123898 0)
(8.12133 -0.414363 0)
(1.3849 0.252329 0)
(9.95512 -1.44215 0)
(3.43407 0.271803 0)
(12.3896 -4.06789 0)
(10.4265 -1.92736 0)
(7.77611 0.484337 0)
(9.1185 0.763553 0)
(12.1667 0.951391 0)
(8.32958 0.623998 0)
(11.8319 0.443376 0)
(6.22616 0.310342 0)
(11.4129 0.206457 0)
(4.58301 0.221553 0)
(11.3148 -0.0195303 0)
(3.87461 0.193002 0)
(11.3762 -0.277811 0)
(4.35095 0.187275 0)
(11.2524 -0.722985 0)
(5.72901 0.175849 0)
(11.0897 -1.49141 0)
(7.21526 0.0523937 0)
(12.1164 -3.86598 0)
(6.93323 0.350831 0)
(9.35307 -2.39139 0)
(7.21914 0.52498 0)
(13.9929 0.960964 0)
(7.92996 0.60951 0)
(14.2952 0.553794 0)
(7.47459 0.420963 0)
(14.1163 0.271016 0)
(7.17605 0.396759 0)
(13.7384 -0.145142 0)
(7.2571 0.459675 0)
(13.2696 -0.698703 0)
(7.65976 0.576835 0)
(12.8746 -1.42266 0)
(8.26738 0.699416 0)
(12.6511 -2.31323 0)
(9.0244 0.0419527 0)
(11.8872 -3.63725 0)
(8.68712 -1.4319 0)
(8.36397 0.681053 0)
(6.4243 0.570097 0)
(14.0106 0.565873 0)
(8.47378 0.674574 0)
(13.9577 0.284483 0)
(9.16964 0.636785 0)
(13.6432 -0.00259315 0)
(9.5174 0.657928 0)
(13.2136 -0.388686 0)
(9.59232 0.734441 0)
(12.8127 -0.871231 0)
(9.44586 0.876935 0)
(12.5823 -1.52126 0)
(9.15008 1.08994 0)
(12.5703 -2.48988 0)
(8.8278 1.13225 0)
(11.6165 -5.02779 0)
(8.54273 1.26677 0)
(8.72217 0.127209 0)
(7.95687 0.61693 0)
(11.8027 0.152371 0)
(9.5054 0.654818 0)
(11.739 0.050195 0)
(10.0885 0.693976 0)
(11.6 -0.165679 0)
(10.3207 0.725886 0)
(11.4759 -0.457525 0)
(10.3007 0.783065 0)
(11.3892 -0.853561 0)
(10.0329 0.832096 0)
(11.3551 -1.40007 0)
(9.49254 0.801353 0)
(11.4181 -2.13842 0)
(8.80091 0.72601 0)
(10.9985 -3.92015 0)
(7.7334 1.33574 0)
(9.48936 -0.217965 0)
(9.34438 0.812768 0)
(10.4386 -0.265962 0)
(10.141 0.930622 0)
(10.5536 -0.304567 0)
(10.399 1.02006 0)
(10.5817 -0.502898 0)
(10.5204 1.07556 0)
(10.6252 -0.781128 0)
(10.5638 1.15353 0)
(10.6716 -1.1576 0)
(10.5158 1.23528 0)
(10.6999 -1.63545 0)
(10.3673 1.26126 0)
(10.6881 -2.32693 0)
(10.0535 1.27116 0)
(10.3761 -3.95359 0)
(8.29944 2.01879 0)
(9.69725 -0.952238 0)
(9.8492 0.70122 0)
(10.156 -0.325962 0)
(10.4067 0.855172 0)
(10.3899 -0.349912 0)
(10.5804 0.906948 0)
(10.4706 -0.493981 0)
(10.7018 0.89304 0)
(10.5521 -0.686241 0)
(10.8055 0.872768 0)
(10.6439 -0.935146 0)
(10.8812 0.823903 0)
(10.7355 -1.23258 0)
(10.9082 0.671406 0)
(10.7539 -1.67236 0)
(10.7233 0.519664 0)
(10.4925 -2.47347 0)
(8.8943 0.980439 0)
(9.96401 -0.483938 0)
(10.0858 0.802325 0)
(10.0197 -0.583382 0)
(10.5356 1.02158 0)
(10.3107 -0.604491 0)
(10.6751 1.07509 0)
(10.44 -0.72493 0)
(10.7776 1.04827 0)
(10.5709 -0.889957 0)
(10.8573 1.0037 0)
(10.7115 -1.11764 0)
(10.8989 0.921155 0)
(10.8318 -1.39478 0)
(10.8742 0.73482 0)
(10.8222 -1.76066 0)
(10.6024 0.505717 0)
(10.5207 -2.06844 0)
(9.35054 0.586132 0)
(10.0235 -0.391599 0)
(10.1391 0.648684 0)
(10.0424 -0.511898 0)
(10.5103 0.878128 0)
(10.3335 -0.456471 0)
(10.6214 0.869278 0)
(10.482 -0.493604 0)
(10.6979 0.778299 0)
(10.6291 -0.572081 0)
(10.7342 0.65793 0)
(10.7636 -0.695273 0)
(10.718 0.495583 0)
(10.8403 -0.844891 0)
(10.6184 0.264111 0)
(10.7655 -1.03201 0)
(10.2825 0.0702308 0)
(10.4795 -1.05263 0)
(9.62371 0.123926 0)
(10.207 -0.0328662 0)
(10.141 0.70006 0)
(10.0707 -0.691834 0)
(10.4525 0.902601 0)
(10.2986 -0.618853 0)
(10.5374 0.84769 0)
(10.4302 -0.645451 0)
(10.6032 0.735317 0)
(10.5607 -0.707292 0)
(10.6273 0.586813 0)
(10.6604 -0.791136 0)
(10.6092 0.383192 0)
(10.6813 -0.869165 0)
(10.527 0.117158 0)
(10.571 -0.921964 0)
(10.2916 -0.113681 0)
(10.361 -0.764937 0)
(10.0201 -0.154067 0)
(10.2456 -0.125303 0)
(10.0969 0.468032 0)
(10.1509 -0.494999 0)
(10.3536 0.595801 0)
(10.2935 -0.374513 0)
(10.4203 0.52756 0)
(10.4094 -0.35468 0)
(10.4848 0.418897 0)
(10.5239 -0.374071 0)
(10.5132 0.275752 0)
(10.5994 -0.41453 0)
(10.5157 0.0933552 0)
(10.5971 -0.46151 0)
(10.4767 -0.103251 0)
(10.4996 -0.499965 0)
(10.3572 -0.23205 0)
(10.3647 -0.405488 0)
(10.2661 -0.219773 0)
(10.3739 -0.1102 0)
(10.0501 0.411046 0)
(10.1754 -0.487117 0)
(10.2548 0.437256 0)
(10.2379 -0.367365 0)
(10.3087 0.367404 0)
(10.3306 -0.345435 0)
(10.3792 0.250899 0)
(10.4246 -0.355152 0)
(10.4226 0.0995393 0)
(10.4823 -0.37475 0)
(10.4462 -0.0796213 0)
(10.4818 -0.403287 0)
(10.433 -0.246573 0)
(10.4261 -0.431131 0)
(10.3773 -0.339086 0)
(10.3686 -0.392532 0)
(10.3572 -0.320433 0)
(10.4223 -0.276431 0)
(10.0153 0.199656 0)
(10.1907 -0.285659 0)
(10.1932 0.167368 0)
(10.2052 -0.179166 0)
(10.2293 0.131711 0)
(10.2792 -0.171233 0)
(10.3062 0.0472995 0)
(10.3626 -0.197655 0)
(10.366 -0.058623 0)
(10.4142 -0.235618 0)
(10.4055 -0.175917 0)
(10.4267 -0.286318 0)
(10.4124 -0.274889 0)
(10.4112 -0.331539 0)
(10.3995 -0.324013 0)
(10.4066 -0.337074 0)
(10.4109 -0.315907 0)
(10.4697 -0.304716 0)
(9.99665 0.0971711 0)
(10.1445 -0.185724 0)
(10.1463 0.0217444 0)
(10.1501 -0.133527 0)
(10.1622 -0.00853342 0)
(10.2089 -0.146023 0)
(10.241 -0.0768543 0)
(10.2919 -0.186604 0)
(10.311 -0.159281 0)
(10.3486 -0.237839 0)
(10.3575 -0.244671 0)
(10.3791 -0.298185 0)
(10.3805 -0.316159 0)
(10.3939 -0.349947 0)
(10.3959 -0.36089 0)
(10.4185 -0.380057 0)
(10.4238 -0.380915 0)
(10.4788 -0.387101 0)
(9.99363 0.0155398 0)
(10.1059 -0.0856997 0)
(10.1088 -0.0442352 0)
(10.1138 -0.0931536 0)
(10.1188 -0.0747985 0)
(10.1674 -0.118843 0)
(10.198 -0.120518 0)
(10.2518 -0.163743 0)
(10.274 -0.18048 0)
(10.3153 -0.219067 0)
(10.3278 -0.243835 0)
(10.3597 -0.277719 0)
(10.3658 -0.301231 0)
(10.3938 -0.328892 0)
(10.3994 -0.346875 0)
(10.4328 -0.370678 0)
(10.4355 -0.383662 0)
(10.4882 -0.396877 0)
(9.99176 0.00478743 0)
(10.0636 -0.0251095 0)
(10.0567 -0.0348604 0)
(10.0678 -0.0664087 0)
(10.0778 -0.0756513 0)
(10.128 -0.0996971 0)
(10.1573 -0.115869 0)
(10.211 -0.144628 0)
(10.2337 -0.168896 0)
(10.2781 -0.199493 0)
(10.292 -0.22648 0)
(10.33 -0.256951 0)
(10.3384 -0.283228 0)
(10.373 -0.311957 0)
(10.3788 -0.336703 0)
(10.4151 -0.36543 0)
(10.4145 -0.38794 0)
(10.4633 -0.407352 0)
(9.99159 0.0141543 0)
(10.0467 0.0161304 0)
(10.0399 -0.0105938 0)
(10.0576 -0.0376933 0)
(10.0749 -0.0565398 0)
(10.1255 -0.0778547 0)
(10.1554 -0.0988574 0)
(10.2071 -0.123808 0)
(10.2311 -0.148969 0)
(10.2754 -0.176599 0)
(10.2911 -0.203393 0)
(10.3292 -0.232115 0)
(10.3394 -0.259316 0)
(10.3736 -0.288254 0)
(10.3801 -0.315573 0)
(10.414 -0.345634 0)
(10.4132 -0.371486 0)
(10.4566 -0.393296 0)
(9.99173 0.0328976 0)
(10.0502 0.0495707 0)
(10.0566 0.00988022 0)
(10.0799 -0.0181198 0)
(10.1007 -0.04027 0)
(10.1507 -0.0615018 0)
(10.1819 -0.0836228 0)
(10.2316 -0.106414 0)
(10.2563 -0.130544 0)
(10.2984 -0.155499 0)
(10.3151 -0.181056 0)
(10.3508 -0.207297 0)
(10.3615 -0.233524 0)
(10.3926 -0.26037 0)
(10.3991 -0.286982 0)
(10.4288 -0.315231 0)
(10.4281 -0.340956 0)
(10.4653 -0.362726 0)
(9.98989 0.0406477 0)
(10.0547 0.0525422 0)
(10.0828 -0.00642365 0)
(10.1167 -0.0407406 0)
(10.1419 -0.0641725 0)
(10.1903 -0.0823115 0)
(10.2223 -0.102127 0)
(10.269 -0.12103 0)
(10.2935 -0.142757 0)
(10.332 -0.163994 0)
(10.3483 -0.187399 0)
(10.3802 -0.210079 0)
(10.3904 -0.234377 0)
(10.4174 -0.257889 0)
(10.4228 -0.282747 0)
(10.4473 -0.307773 0)
(10.4461 -0.332396 0)
(10.4768 -0.352779 0)
(9.9905 0.0315367 0)
(10.0684 0.0219017 0)
(10.1261 -0.0558268 0)
(10.1769 -0.0968273 0)
(10.2125 -0.119839 0)
(10.2609 -0.132789 0)
(10.2937 -0.147807 0)
(10.3361 -0.161678 0)
(10.3601 -0.17984 0)
(10.3941 -0.196917 0)
(10.4103 -0.217349 0)
(10.4377 -0.236225 0)
(10.4478 -0.25796 0)
(10.4702 -0.278019 0)
(10.4754 -0.30069 0)
(10.4946 -0.322307 0)
(10.494 -0.345151 0)
(10.5187 -0.363424 0)
(9.99116 0.0098183 0)
(10.092 -0.0298252 0)
(10.1869 -0.120926 0)
(10.2595 -0.162845 0)
(10.3093 -0.181184 0)
(10.359 -0.187204 0)
(10.3929 -0.196066 0)
(10.4305 -0.204387 0)
(10.4542 -0.218115 0)
(10.4837 -0.230744 0)
(10.5002 -0.247591 0)
(10.5233 -0.262611 0)
(10.5338 -0.281307 0)
(10.5517 -0.297984 0)
(10.5573 -0.318029 0)
(10.5719 -0.336357 0)
(10.5724 -0.356926 0)
(10.5921 -0.373053 0)
(9.99283 -0.0234311 0)
(10.1275 -0.103715 0)
(10.2671 -0.205007 0)
(10.3665 -0.241654 0)
(10.4319 -0.250851 0)
(10.4836 -0.248416 0)
(10.5183 -0.250911 0)
(10.5518 -0.253697 0)
(10.5754 -0.262963 0)
(10.6012 -0.271311 0)
(10.6181 -0.284629 0)
(10.6379 -0.296238 0)
(10.6487 -0.312038 0)
(10.6632 -0.325785 0)
(10.6692 -0.343309 0)
(10.6802 -0.358751 0)
(10.6815 -0.377058 0)
(10.6969 -0.391194 0)
(9.99045 -0.0716192 0)
(10.1743 -0.201238 0)
(10.3678 -0.305515 0)
(10.5 -0.327901 0)
(10.5805 -0.32258 0)
(10.6343 -0.310193 0)
(10.6689 -0.305561 0)
(10.6996 -0.302547 0)
(10.7226 -0.306674 0)
(10.746 -0.310543 0)
(10.7624 -0.319853 0)
(10.7794 -0.327989 0)
(10.7895 -0.340512 0)
(10.8006 -0.351282 0)
(10.8055 -0.365865 0)
(10.8124 -0.378417 0)
(10.8122 -0.393967 0)
(10.8222 -0.405911 0)
(9.99201 -0.136402 0)
(10.2447 -0.323081 0)
(10.5026 -0.419061 0)
(10.6711 -0.417664 0)
(10.7627 -0.39418 0)
(10.8174 -0.371094 0)
(10.8494 -0.358913 0)
(10.8771 -0.350547 0)
(10.896 -0.350046 0)
(10.9149 -0.350432 0)
(10.9253 -0.356305 0)
(10.9355 -0.361431 0)
(10.9375 -0.370721 0)
(10.9394 -0.378579 0)
(10.934 -0.389767 0)
(10.9292 -0.399346 0)
(10.9165 -0.411261 0)
(10.9117 -0.420404 0)
(9.98973 -0.219943 0)
(10.3368 -0.468182 0)
(10.6736 -0.539774 0)
(10.8757 -0.508228 0)
(10.9697 -0.464829 0)
(11.0134 -0.428024 0)
(11.0285 -0.404759 0)
(11.0352 -0.388323 0)
(11.029 -0.381345 0)
(11.0194 -0.376888 0)
(10.998 -0.378089 0)
(10.9736 -0.378991 0)
(10.9378 -0.383708 0)
(10.9001 -0.387183 0)
(10.8524 -0.393545 0)
(10.8044 -0.398867 0)
(10.7464 -0.405185 0)
(10.6948 -0.409957 0)
(9.98331 -0.332101 0)
(10.4676 -0.642365 0)
(10.8828 -0.667134 0)
(11.0724 -0.602636 0)
(11.1029 -0.53717 0)
(11.0583 -0.483088 0)
(10.9743 -0.444939 0)
(10.8732 -0.416172 0)
(10.7579 -0.397951 0)
(10.6352 -0.38321 0)
(10.5037 -0.374822 0)
(10.3669 -0.366263 0)
(10.2245 -0.362378 0)
(10.0778 -0.356926 0)
(9.9291 -0.35578 0)
(9.77759 -0.35319 0)
(9.62648 -0.352892 0)
(9.47662 -0.351056 0)
(10.0025 -0.453667 0)
(10.619 -0.81897 0)
(10.9016 -0.752054 0)
(10.7933 -0.623714 0)
(10.4938 -0.512504 0)
(10.1378 -0.429159 0)
(9.7703 -0.373529 0)
(9.41784 -0.334685 0)
(9.07711 -0.307254 0)
(8.75583 -0.284571 0)
(8.44691 -0.267616 0)
(8.15389 -0.251296 0)
(7.87322 -0.240008 0)
(7.6037 -0.22731 0)
(7.34897 -0.221108 0)
(7.09949 -0.211802 0)
(6.87113 -0.210832 0)
(6.64176 -0.20416 0)
(10.0974 -0.750796 0)
(10.0458 -1.01321 0)
(9.42491 -0.801071 0)
(8.51448 -0.572162 0)
(7.65512 -0.378715 0)
(6.92903 -0.244879 0)
(6.32753 -0.167514 0)
(5.83187 -0.126245 0)
(5.40951 -0.104696 0)
(5.04898 -0.092316 0)
(4.72895 -0.0849573 0)
(4.44827 -0.0793463 0)
(4.19191 -0.0758056 0)
(3.96306 -0.0718905 0)
(3.75139 -0.0721371 0)
(3.55624 -0.0690862 0)
(3.38406 -0.0802703 0)
(3.21917 -0.0828663 0)
(8.51674 -0.436072 0)
(6.11022 -0.380894 0)
(4.29833 -0.13805 0)
(3.12394 -0.0213878 0)
(2.4812 0.019133 0)
(2.12061 0.0224728 0)
(1.89641 0.0137158 0)
(1.73513 0.00461528 0)
(1.59913 -0.00156879 0)
(1.47842 -0.00479157 0)
(1.36635 -0.0064047 0)
(1.26421 -0.00671836 0)
(1.16857 -0.00670725 0)
(1.08186 -0.00638947 0)
(0.99984 -0.00665825 0)
(0.919616 -0.00703393 0)
(0.85212 -0.0186094 0)
(0.731613 -0.00613475 0)
(-0.0520313 0.137961 0)
(-0.157129 0.0715749 0)
(-0.207198 0.0165636 0)
(-0.195443 -0.0442472 0)
(-0.118284 -0.0989568 0)
(0.0117924 -0.144987 0)
(0.185736 -0.175538 1.11357e-17)
(0.387379 -0.193516 -1.10607e-17)
(0.605526 -0.19793 0)
(0.827844 -0.192692 -1.09176e-17)
(1.04496 -0.178375 0)
(1.2479 -0.157635 0)
(1.43009 -0.131022 0)
(1.58629 -0.101683 1.0643e-17)
(1.71384 -0.0704494 0)
(1.80997 -0.038397 0)
(1.87378 -0.00627081 -1.04458e-17)
(1.90599 0.0239711 0)
(1.90826 0.0504293 0)
(1.88268 0.0721626 0)
(1.83293 0.0891382 1.01964e-17)
(1.76159 0.100689 0)
(1.67253 0.108542 1.00744e-17)
(1.56747 0.111427 0)
(1.45104 0.109526 0)
(1.32596 0.107889 9.89574e-18)
(1.19247 0.111211 0)
(1.04982 0.116364 -9.7794e-18)
(0.901194 0.121643 0)
(0.747195 0.126731 9.6645e-18)
(0.589375 0.130778 0)
(0.430009 0.13327 0)
(0.271381 0.134441 0)
(0.113989 0.134212 0)
(-0.0418394 0.131303 0)
(-0.19403 0.12661 -9.32971e-18)
(-0.340932 0.120491 0)
(-0.482133 0.11398 1.84407e-17)
(-0.6162 0.107485 0)
(-0.742717 0.100261 -1.82217e-17)
(-0.860223 0.093239 0)
(-0.968889 0.0864877 0)
(-1.06915 0.0787561 1.78884e-17)
(-1.16055 0.0704116 0)
(-1.24371 0.0627035 1.76652e-17)
(-1.3187 0.055456 -1.75531e-17)
(-1.38503 0.048349 0)
(-1.4434 0.0420675 -1.73282e-17)
(-1.49491 0.0365779 -1.72151e-17)
(-1.53859 0.0328461 0)
(-1.57465 0.0312706 0)
(-1.60498 0.0312985 0)
(-1.63172 0.0314695 0)
(-1.65583 0.031507 0)
(-1.67874 0.0323989 1.65281e-17)
(-1.70233 0.033958 0)
(-1.72797 0.0361991 -1.62989e-17)
(-1.75444 0.0382843 0)
(-1.78048 0.0389186 0)
(-1.8061 0.0395002 1.59525e-17)
(-1.83194 0.0412289 0)
(-1.85971 0.0424127 -1.57211e-17)
(-1.88942 0.0440504 0)
(-1.9208 0.0454971 0)
(-1.95333 0.0462552 0)
(-1.9864 0.0473802 1.52555e-17)
(-2.01998 0.0493385 0)
(-2.05415 0.0516065 0)
(-2.08901 0.0539974 1.49058e-17)
(-2.12484 0.0553281 0)
(-2.15887 0.0555693 1.46712e-17)
(-2.19 0.0562526 0)
(-2.21833 0.056828 0)
(-2.24272 0.0568385 0)
(-2.26188 0.0562569 -1.42052e-17)
(-2.27521 0.0550516 0)
(-2.28329 0.0542873 0)
(-2.28796 0.0541819 -1.38613e-17)
(-2.28964 0.0531738 -1.37479e-17)
(-2.28663 0.0514873 0)
(-2.27712 0.0491851 -1.35227e-17)
(-2.261 0.0462292 0)
(-2.23789 0.0430463 -2.66024e-17)
(-2.20778 0.0395839 0)
(-2.17121 0.0358821 -2.6167e-17)
(-2.12803 0.0327931 0)
(-2.07929 0.0303591 2.57382e-17)
(-2.02584 0.0283733 0)
(-1.96781 0.0269308 0)
(-1.90583 0.0259565 0)
(-1.84145 0.0253664 -2.49011e-17)
(-1.77443 0.0250945 0)
(-1.70639 0.0250501 2.44994e-17)
(-1.63735 0.0256298 0)
(-1.56802 0.0266478 -2.41101e-17)
(-1.50032 0.0291411 -2.39215e-17)
(-1.43345 0.0303027 -2.37372e-17)
(-1.36639 0.0313562 0)
(-1.30111 0.0313642 0)
(-1.23646 0.0325458 0)
(-1.17073 0.0333858 0)
(-1.10593 0.0330141 0)
(-1.03611 0.0318889 0)
(-0.967302 0.0331865 0)
(-0.896389 0.0328306 0)
(-0.829299 0.0352285 2.22135e-17)
(-0.761857 0.035693 2.20612e-17)
(-0.699438 0.0400756 0)
(-0.638822 0.0414073 0)
(-0.582972 0.0410082 0)
(-0.51514 0.0383667 2.14807e-17)
(-0.452507 0.0425643 0)
(-0.383667 0.0408347 0)
(-0.3186 0.0436633 0)
(-0.247664 0.0406789 0)
(-0.17462 0.0430396 -2.08062e-17)
(-0.0992377 0.0445416 0)
(-0.0180032 0.0435157 0)
(0.0674179 0.0450091 2.04291e-17)
(0.156393 0.0449057 -2.03075e-17)
(0.248816 0.0442399 0)
(0.345067 0.0481007 -2.00748e-17)
(0.43755 0.0509618 0)
(0.530325 0.0547259 1.98483e-17)
(0.61171 0.0594286 0)
(0.682942 0.0624285 0)
(0.757922 0.0626653 0)
(0.827318 0.0634096 0)
(0.906827 0.0605329 0)
(0.980461 0.0610602 -3.83961e-17)
(1.05614 0.0625658 -3.81771e-17)
(1.11639 0.0673172 0)
(1.16708 0.0664124 0)
(1.21187 0.0677773 0)
(1.24837 0.0637219 3.72526e-17)
(1.29592 0.0589041 0)
(1.34493 0.0572434 0)
(1.38954 0.0560961 0)
(1.43787 0.0538605 3.62324e-17)
(1.47682 0.0560513 -3.59644e-17)
(1.52113 0.0527557 0)
(1.55967 0.0527911 0)
(1.60092 0.0532324 -3.51494e-17)
(1.62713 0.0582767 -3.48764e-17)
(1.65697 0.0549704 0)
(1.68571 0.0586924 0)
(1.72509 0.0557192 3.40431e-17)
(1.76201 0.0659936 -3.37636e-17)
(1.77026 0.0713934 0)
(1.78403 0.0708036 0)
(1.80907 0.0711837 -3.29269e-17)
(1.84226 0.0759008 0)
(1.85561 0.0834894 0)
(1.86652 0.0891784 -3.20828e-17)
(1.86557 0.0933055 0)
(1.87989 0.0981244 -3.15223e-17)
(1.88227 0.105117 0)
(1.88822 0.109237 0)
(1.87534 0.120801 0)
(1.86179 0.12671 3.04332e-17)
(1.84614 0.133176 0)
(1.81406 0.142978 0)
(1.74169 0.154612 0)
(1.66502 0.154654 0)
(1.59936 0.157109 0)
(1.50889 0.165935 0)
(1.38154 0.172501 2.88922e-17)
(1.26347 0.173761 2.87379e-17)
(1.08053 0.181801 0)
(0.874908 0.184608 0)
(0.63172 0.183803 0)
(0.415336 0.170077 -2.83205e-17)
(0.192568 0.163075 0)
(0.0396211 0.146684 5.63457e-17)
(-0.159796 0.143823 -5.6236e-17)
(-0.261744 0.123767 -5.6057e-17)
(-0.423432 0.126786 5.59526e-17)
(-0.457127 0.0965128 -5.57499e-17)
(-0.614011 0.129482 5.5731e-17)
(-0.563868 -0.00362415 0)
(0.0100981 0.249076 0)
(0.0143411 0.192453 0)
(0.0492568 0.00815625 -2.27966e-17)
(0.120387 -0.197966 0)
(0.235101 -0.383903 2.23656e-17)
(0.387204 -0.535256 2.2219e-17)
(0.5682 -0.644139 1.10442e-17)
(0.767946 -0.710123 1.09818e-17)
(0.975172 -0.736797 0)
(1.17928 -0.73059 1.08547e-17)
(1.37166 -0.69481 0)
(1.54498 -0.636575 0)
(1.69528 -0.562024 -2.1321e-17)
(1.81781 -0.477678 -1.05953e-17)
(1.91253 -0.385846 2.10565e-17)
(1.97762 -0.291351 2.0923e-17)
(2.01445 -0.199031 1.03959e-17)
(2.02311 -0.110978 0)
(2.00606 -0.0280112 0)
(1.96326 0.0466105 0)
(1.89854 0.112008 1.01369e-17)
(1.81195 0.171122 0)
(1.70813 0.22405 -3.00381e-17)
(1.58592 0.266924 0)
(1.44765 0.301955 0)
(1.29386 0.332607 -9.83208e-18)
(1.12805 0.356664 0)
(0.95297 0.374031 9.71568e-18)
(0.772447 0.385144 1.93129e-17)
(0.587399 0.392445 -9.59767e-18)
(0.400611 0.394556 0)
(0.213345 0.390764 0)
(0.0252802 0.383451 0)
(-0.163095 0.376421 1.87312e-17)
(-0.349999 0.367737 1.86167e-17)
(-0.534124 0.355379 9.25135e-18)
(-0.71275 0.340535 0)
(-0.886403 0.3234 -1.82763e-17)
(-1.05112 0.302852 0)
(-1.2092 0.28097 1.80509e-17)
(-1.35903 0.258514 0)
(-1.5022 0.23574 0)
(-1.6372 0.215346 -1.77166e-17)
(-1.76496 0.196276 0)
(-1.88791 0.178353 -5.24865e-17)
(-2.00517 0.159587 1.73857e-17)
(-2.11584 0.140669 0)
(-2.21953 0.123737 1.71655e-17)
(-2.31714 0.106065 1.70552e-17)
(-2.40742 0.0864494 0)
(-2.48846 0.0674534 0)
(-2.56239 0.0528472 0)
(-2.63108 0.043232 0)
(-2.69646 0.0381785 0)
(-2.7579 0.036734 -1.63736e-17)
(-2.81748 0.0363548 -3.25151e-17)
(-2.87545 0.0366105 1.61414e-17)
(-2.92919 0.0342539 0)
(-2.98051 0.0304329 -3.18128e-17)
(-3.0298 0.0292347 1.57874e-17)
(-3.07639 0.0301354 0)
(-3.12377 0.0307708 1.55498e-17)
(-3.1691 0.0332244 0)
(-3.21214 0.0343339 0)
(-3.25341 0.0333952 3.0375e-17)
(-3.29348 0.0324476 -1.50672e-17)
(-3.32918 0.0303614 2.98917e-17)
(-3.36243 0.0275414 -2.96503e-17)
(-3.39039 0.024547 -1.47047e-17)
(-3.41537 0.0207086 0)
(-3.43431 0.0136729 -1.44629e-17)
(-3.44626 0.00383956 0)
(-3.45258 -0.00660191 0)
(-3.45051 -0.018961 0)
(-3.43927 -0.0330959 -1.39831e-17)
(-3.41984 -0.0471083 0)
(-3.39386 -0.0573364 -2.74952e-17)
(-3.36206 -0.0646251 4.08944e-17)
(-3.32485 -0.0733137 1.35163e-17)
(-3.28135 -0.0845257 0)
(-3.22986 -0.0973639 1.32879e-17)
(-3.17306 -0.110136 0)
(-3.11057 -0.122258 2.61244e-17)
(-3.0429 -0.133324 0)
(-2.97018 -0.143876 2.56814e-17)
(-2.89233 -0.153307 -5.09229e-17)
(-2.81051 -0.162254 -2.52475e-17)
(-2.72627 -0.17024 0)
(-2.63703 -0.177776 0)
(-2.54556 -0.1834 0)
(-2.45192 -0.187601 2.44072e-17)
(-2.35495 -0.191639 0)
(-2.25679 -0.19433 -2.4001e-17)
(-2.15863 -0.194713 0)
(-2.05992 -0.19631 7.08223e-17)
(-1.96121 -0.195679 2.34174e-17)
(-1.86185 -0.196738 2.32315e-17)
(-1.76456 -0.194051 0)
(-1.66975 -0.193369 0)
(-1.57435 -0.194093 0)
(-1.4764 -0.194803 0)
(-1.37949 -0.197236 0)
(-1.27686 -0.201587 4.43236e-17)
(-1.18063 -0.199679 4.39875e-17)
(-1.081 -0.199817 0)
(-0.993532 -0.194226 -2.16763e-17)
(-0.897278 -0.195123 -2.15242e-17)
(-0.810241 -0.188314 0)
(-0.715668 -0.187282 -4.24455e-17)
(-0.636903 -0.186912 0)
(-0.540018 -0.197219 2.09386e-17)
(-0.453516 -0.191183 0)
(-0.347828 -0.199267 0)
(-0.253021 -0.196115 -4.1059e-17)
(-0.139543 -0.204699 0)
(-0.0351108 -0.20515 2.02728e-17)
(0.0905369 -0.213137 0)
(0.217681 -0.220858 0)
(0.354029 -0.224831 1.98874e-17)
(0.495088 -0.229606 1.97709e-17)
(0.641212 -0.23496 0)
(0.790785 -0.2356 -1.95335e-17)
(0.950803 -0.237282 0)
(1.11031 -0.227862 1.92968e-17)
(1.27414 -0.21838 3.83632e-17)
(1.42203 -0.212286 0)
(1.57915 -0.21374 0)
(1.72445 -0.213792 0)
(1.88418 -0.215391 0)
(2.03116 -0.210381 3.72302e-17)
(2.18563 -0.207194 1.11006e-16)
(2.32191 -0.188345 0)
(2.44583 -0.183127 0)
(2.56487 -0.172052 0)
(2.66932 -0.173655 -3.60797e-17)
(2.77092 -0.17812 0)
(2.87096 -0.177781 0)
(2.96519 -0.176401 7.06157e-17)
(3.05827 -0.17692 3.50339e-17)
(3.13352 -0.17239 3.47653e-17)
(3.22155 -0.179757 0)
(3.28539 -0.173487 0)
(3.35271 -0.174936 3.39202e-17)
(3.39966 -0.164144 -3.36142e-17)
(3.44485 -0.178319 0)
(3.47484 -0.175277 0)
(3.50909 -0.191465 -3.27212e-17)
(3.53828 -0.173507 9.71864e-17)
(3.55279 -0.168972 0)
(3.56381 -0.179753 0)
(3.57484 -0.191176 3.14591e-17)
(3.59533 -0.189203 0)
(3.59071 -0.18237 6.16248e-17)
(3.58791 -0.180543 -3.04711e-17)
(3.5601 -0.185227 0)
(3.55648 -0.194596 2.98442e-17)
(3.53266 -0.191084 5.90535e-17)
(3.52179 -0.192431 0)
(3.47529 -0.185401 0)
(3.45143 -0.19391 -2.85735e-17)
(3.41019 -0.185922 0)
(3.35244 -0.169037 5.58863e-17)
(3.25437 -0.149741 0)
(3.16211 -0.154909 0)
(3.04219 -0.146557 0)
(2.91335 -0.122013 0)
(2.72019 -0.103442 -2.66524e-17)
(2.56181 -0.0768334 -2.64628e-17)
(2.27898 -0.0275356 0)
(2.00771 -0.00219902 0)
(1.67832 0.0228054 0)
(1.38259 0.0192017 2.59578e-17)
(1.04834 0.0238751 0)
(0.840029 0.0140415 -5.16679e-17)
(0.520694 0.0319814 5.16416e-17)
(0.407169 0.000702293 5.14926e-17)
(0.125816 0.0314318 5.14829e-17)
(0.127273 -0.0168445 5.13306e-17)
(-0.168258 0.0794575 5.14942e-17)
(0.0167083 -0.115735 0)
(0.0290312 0.0717658 0)
(0.120863 -0.0373101 0)
(0.227654 -0.240479 2.29136e-17)
(0.339451 -0.467332 2.26651e-17)
(0.473624 -0.691911 -2.25137e-17)
(0.617535 -0.873923 -2.24011e-17)
(0.771661 -1.00276 -1.48029e-21)
(0.922928 -1.07328 0)
(1.06812 -1.08428 0)
(1.19498 -1.04531 0)
(1.30386 -0.965655 0)
(1.38992 -0.856543 0)
(1.4556 -0.726167 6.4714e-17)
(1.49638 -0.586088 0)
(1.51511 -0.441352 -2.13055e-17)
(1.50996 -0.294949 -2.11692e-17)
(1.48386 -0.153623 0)
(1.43536 -0.0202514 0)
(1.36902 0.103529 0)
(1.28455 0.216072 0)
(1.18427 0.315592 -2.0503e-17)
(1.06908 0.398818 0)
(0.944008 0.471326 2.02489e-17)
(0.806367 0.536537 0)
(0.659046 0.591484 0)
(0.503408 0.636474 0)
(0.34485 0.672483 3.95254e-17)
(0.182368 0.699722 0)
(0.0184506 0.719142 -1.95224e-17)
(-0.146437 0.729486 3.88002e-17)
(-0.310568 0.73258 0)
(-0.476932 0.734213 0)
(-0.64348 0.73107 0)
(-0.808817 0.721434 -1.89166e-17)
(-0.970522 0.70605 -1.87958e-17)
(-1.129 0.68444 0)
(-1.28267 0.657042 0)
(-1.43074 0.625436 3.68592e-17)
(-1.57177 0.591329 3.66195e-17)
(-1.71103 0.556921 -3.63814e-17)
(-1.8452 0.524111 0)
(-1.97748 0.490536 0)
(-2.10409 0.45829 0)
(-2.22697 0.428838 0)
(-2.34552 0.401125 3.52007e-17)
(-2.45811 0.371843 3.4967e-17)
(-2.56554 0.342137 -3.4735e-17)
(-2.66741 0.313542 0)
(-2.76325 0.285622 0)
(-2.85384 0.256557 0)
(-2.93913 0.229706 0)
(-3.02449 0.211931 3.35756e-17)
(-3.10394 0.196108 0)
(-3.17847 0.182917 0)
(-3.24648 0.175112 3.2878e-17)
(-3.30992 0.169969 3.26465e-17)
(-3.36784 0.163187 0)
(-3.41821 0.154028 -6.43597e-17)
(-3.46637 0.147155 3.19484e-17)
(-3.5108 0.140956 -3.1714e-17)
(-3.5492 0.137077 0)
(-3.58481 0.134183 0)
(-3.61448 0.129809 0)
(-3.63919 0.125036 0)
(-3.66129 0.119353 -3.05521e-17)
(-3.67928 0.111567 -6.06455e-17)
(-3.69162 0.104222 -3.00973e-17)
(-3.70048 0.0971021 2.98724e-17)
(-3.70197 0.085964 0)
(-3.698 0.0732035 -5.88394e-17)
(-3.68619 0.0574441 -5.8391e-17)
(-3.66887 0.0415998 -5.7946e-17)
(-3.64749 0.0240729 5.75042e-17)
(-3.61721 0.00196292 0)
(-3.5801 -0.0206168 8.49408e-17)
(-3.53711 -0.0401172 0)
(-3.48943 -0.0556397 -2.78775e-17)
(-3.43316 -0.0695615 -2.76647e-17)
(-3.36896 -0.0852601 0)
(-3.29857 -0.102185 0)
(-3.22471 -0.119008 -5.40413e-17)
(-3.14857 -0.133978 0)
(-3.06843 -0.148281 -5.31945e-17)
(-2.98564 -0.162026 0)
(-2.89825 -0.17649 5.23558e-17)
(-2.80727 -0.187992 1.03884e-16)
(-2.71256 -0.197866 0)
(-2.6169 -0.207149 0)
(-2.5182 -0.21467 0)
(-2.42074 -0.220819 5.02914e-17)
(-2.3216 -0.226706 0)
(-2.2191 -0.231426 4.94695e-17)
(-2.11385 -0.234714 0)
(-2.00809 -0.233999 0)
(-1.90005 -0.234217 -9.65071e-17)
(-1.7947 -0.231933 0)
(-1.68738 -0.231492 -4.74631e-17)
(-1.58431 -0.225506 0)
(-1.47702 -0.226257 -4.66958e-17)
(-1.37036 -0.225409 0)
(-1.26139 -0.224575 0)
(-1.15392 -0.228318 0)
(-1.04344 -0.230729 -1.35698e-16)
(-0.943409 -0.222285 -4.48713e-17)
(-0.834281 -0.219093 0)
(-0.741178 -0.208611 0)
(-0.639426 -0.209991 0)
(-0.553633 -0.197722 0)
(-0.449463 -0.194091 4.32366e-17)
(-0.363204 -0.189585 -8.5838e-17)
(-0.255773 -0.206458 -4.26337e-17)
(-0.168073 -0.198371 8.46588e-17)
(-0.0481127 -0.213738 8.4095e-17)
(0.053785 -0.210385 4.17617e-17)
(0.184195 -0.225285 0)
(0.297238 -0.226338 8.23976e-17)
(0.436045 -0.242671 0)
(0.568404 -0.252001 -8.12863e-17)
(0.716958 -0.25807 -4.03849e-17)
(0.863303 -0.263049 0)
(1.0186 -0.271215 7.97628e-17)
(1.1681 -0.273858 3.96283e-17)
(1.33032 -0.282472 0)
(1.48905 -0.278484 3.909e-17)
(1.66184 -0.268259 -1.16508e-16)
(1.82171 -0.256725 0)
(1.9865 -0.256297 0)
(2.1387 -0.255724 0)
(2.29921 -0.259202 0)
(2.45581 -0.254677 -7.51533e-17)
(2.61208 -0.251687 -7.46547e-17)
(2.76343 -0.220801 0)
(2.90132 -0.214388 0)
(3.03243 -0.200648 0)
(3.1539 -0.198659 0)
(3.26038 -0.203419 0)
(3.37954 -0.206663 0)
(3.49198 -0.205993 -7.09507e-17)
(3.60429 -0.205675 -1.6517e-20)
(3.69906 -0.198328 0)
(3.80831 -0.209159 0)
(3.89824 -0.196462 -6.86056e-17)
(3.98992 -0.197325 0)
(4.06972 -0.176598 6.74237e-17)
(4.13834 -0.187447 6.6806e-17)
(4.18026 -0.170569 0)
(4.23417 -0.189214 0)
(4.27289 -0.16523 -6.48989e-17)
(4.3229 -0.15613 -1.28509e-16)
(4.35069 -0.160271 0)
(4.38351 -0.171931 0)
(4.4253 -0.163081 0)
(4.43813 -0.148198 -6.16885e-17)
(4.46605 -0.135092 6.10011e-17)
(4.46473 -0.13531 0)
(4.48481 -0.142088 1.19367e-16)
(4.46867 -0.130253 5.90298e-17)
(4.48636 -0.128512 -1.16765e-16)
(4.46406 -0.109739 0)
(4.46364 -0.116323 0)
(4.43255 -0.094581 -1.12743e-16)
(4.39131 -0.0670081 -5.57149e-17)
(4.30572 -0.0376442 0)
(4.24205 -0.0358644 0)
(4.10932 -0.0175686 0)
(3.99915 0.0242867 0)
(3.78863 0.0512602 -1.0559e-16)
(3.62018 0.0948578 0)
(3.32327 0.165498 0)
(3.06581 0.19096 0)
(2.71667 0.220098 0)
(2.40171 0.203882 0)
(2.0114 0.188135 0)
(1.7736 0.153774 -1.00637e-16)
(1.36886 0.149711 0)
(1.24057 0.0826993 0)
(0.85562 0.104887 -1.99427e-16)
(0.851808 0.0214965 9.92516e-17)
(0.467384 0.112165 -9.94028e-17)
(0.663597 -0.126218 9.87835e-17)
(0.0206458 -0.0933039 0)
(0.124883 -0.267961 -4.69566e-17)
(0.247422 -0.488402 0)
(0.375118 -0.753828 -2.27973e-17)
(0.501582 -0.997541 0)
(0.617526 -1.18659 0)
(0.722085 -1.30448 2.24465e-17)
(0.802665 -1.34806 0)
(0.865515 -1.31845 0)
(0.904695 -1.23287 0)
(0.926718 -1.11026 0)
(0.929438 -0.961138 0)
(0.91773 -0.794163 -8.66182e-17)
(0.888893 -0.617138 -4.30263e-17)
(0.846471 -0.43448 4.27469e-17)
(0.790161 -0.253565 0)
(0.721943 -0.0810095 0)
(0.640413 0.0805298 0)
(0.549011 0.229542 0)
(0.447318 0.36311 0)
(0.338187 0.480838 -4.11513e-17)
(0.219839 0.58285 -4.08986e-17)
(0.0935985 0.673667 4.06494e-17)
(-0.038395 0.749745 -4.04017e-17)
(-0.174461 0.812574 0)
(-0.313245 0.860737 0)
(-0.453517 0.896833 -3.96584e-17)
(-0.594111 0.921569 0)
(-0.735604 0.935697 0)
(-0.877622 0.94428 -3.89251e-17)
(-1.0202 0.949704 -3.86817e-17)
(-1.16065 0.947319 -3.84372e-17)
(-1.29805 0.938113 0)
(-1.43219 0.922713 0)
(-1.56175 0.901112 3.76935e-17)
(-1.68632 0.871327 0)
(-1.8069 0.835638 0)
(-1.92386 0.796021 -3.69488e-17)
(-2.03776 0.75788 3.66972e-17)
(-2.15003 0.719649 -3.64485e-17)
(-2.25581 0.680813 0)
(-2.3599 0.641366 0)
(-2.45991 0.604914 -7.14199e-17)
(-2.5571 0.570584 0)
(-2.64889 0.532482 -7.04539e-17)
(-2.73722 0.494383 -1.04964e-16)
(-2.82188 0.458539 1.04243e-16)
(-2.90129 0.422268 -6.90149e-17)
(-2.97752 0.385051 0)
(-3.05122 0.349405 0)
(-3.12458 0.321273 -6.76026e-17)
(-3.19527 0.296816 -3.35708e-17)
(-3.25963 0.271237 0)
(-3.31984 0.250123 0)
(-3.37542 0.234811 -3.28788e-17)
(-3.42562 0.218089 -6.52977e-17)
(-3.46952 0.199244 0)
(-3.50751 0.181411 6.43796e-17)
(-3.54144 0.167003 -6.39203e-17)
(-3.57024 0.153456 6.34644e-17)
(-3.59291 0.139376 0)
(-3.6098 0.12621 0)
(-3.62213 0.114887 0)
(-3.62934 0.103311 0)
(-3.63294 0.0928164 0)
(-3.63175 0.0776114 6.07742e-17)
(-3.62624 0.0611098 0)
(-3.61352 0.0427704 0)
(-3.59502 0.0220993 0)
(-3.5722 0.000483735 1.18047e-16)
(-3.54393 -0.0232399 5.85914e-17)
(-3.5108 -0.0469591 5.81578e-17)
(-3.47279 -0.0737332 -1.15457e-16)
(-3.42833 -0.104921 5.73037e-17)
(-3.38059 -0.134863 -5.68843e-17)
(-3.32656 -0.162373 0)
(-3.26778 -0.188457 5.60375e-17)
(-3.19906 -0.215287 0)
(-3.12625 -0.240618 0)
(-3.04778 -0.262696 0)
(-2.96787 -0.283647 1.08719e-16)
(-2.88576 -0.303028 -5.39463e-17)
(-2.80038 -0.322239 -5.35329e-17)
(-2.71367 -0.341272 -1.06271e-16)
(-2.623 -0.36134 -1.58217e-16)
(-2.53124 -0.377395 -5.23437e-17)
(-2.43473 -0.390578 0)
(-2.33845 -0.402205 -1.03071e-16)
(-2.24066 -0.410317 0)
(-2.14286 -0.416559 -1.52205e-16)
(-2.04439 -0.426528 0)
(-1.94695 -0.432992 -1.49832e-16)
(-1.84344 -0.439304 0)
(-1.73944 -0.439988 0)
(-1.63076 -0.44162 -4.87474e-17)
(-1.52356 -0.438558 0)
(-1.41307 -0.438273 4.79734e-17)
(-1.30742 -0.433704 9.51587e-17)
(-1.19377 -0.435568 4.72049e-17)
(-1.08405 -0.437371 9.36522e-17)
(-0.965626 -0.43801 -9.28954e-17)