/*--------------------------------*- C++ -*----------------------------------*\
| =========                 |                                                 |
| \\      /  F ield         | OpenFOAM: The Open Source CFD Toolbox           |
|  \\    /   O peration     | Version:  dev                                   |
|   \\  /    A nd           | Web:      http://www.openfoam.org               |
|    \\/     M anipulation  |                                                 |
\*---------------------------------------------------------------------------*/
FoamFile
{
    version     2.0;
    format      ascii;
    class       volSymmTensorField;
    object      UPrime2Mean;
    location    "9.158";
}
// * * * * * * * * * * * * * * * * * * * * * * * * * * * * * * * * * * * * * //

dimensions      [0 2 -2 0 0 0 0];

internalField   nonuniform List<symmTensor> 
12225
(
(0.329341 0.0192586 0 0.0691932 0 0)
(2.98714 0.0796381 0 0.078106 0 0)
(7.88294 0.112216 0 0.076811 0 0)
(14.5391 0.14808 0 0.0754878 0 0)
(22.7103 0.132836 0 0.0764356 0 0)
(32.0772 0.200871 0 0.074592 0 0)
(42.3928 0.0957546 0 0.0765355 0 0)
(53.5395 0.200129 0 0.073775 0 0)
(65.6363 -0.0286617 0 0.0775395 0 0)
(78.2365 0.125331 0 0.073548 0 0)
(92.9858 -0.306418 0 0.0812437 0 0)
(107.33 -0.11604 0 0.0769245 0 0)
(127.944 -0.672394 0 0.0862525 0 0)
(145.646 -1.27694 0 0.134633 0 0)
(185.975 -1.41136 0 0.116397 0 0)
(198.551 -0.392868 0 2.3934 0 0)
(272.342 -33.5387 0 5.80823 0 0)
(575.88 -52.9442 0 18.8246 0 0)
(0.377517 0.0567645 0 0.688233 0 0)
(3.15717 0.252065 0 0.731478 0 0)
(8.41351 0.361857 0 0.713361 0 0)
(15.4785 0.484994 0 0.705863 0 0)
(24.205 0.452557 0 0.702741 0 0)
(34.4671 0.632249 0 0.682586 0 0)
(45.5378 0.295581 0 0.691395 0 0)
(58.4966 0.608375 0 0.65809 0 0)
(71.4904 -0.135611 0 0.681962 0 0)
(87.1689 0.281979 0 0.645323 0 0)
(102.805 -1.06543 0 0.71065 0 0)
(121.452 -0.766402 0 0.654904 0 0)
(142.88 -2.54312 0 1.06837 0 0)
(166.343 -4.49007 0 1.04629 0 0)
(199.815 -0.928609 0 3.10256 0 0)
(274.41 -9.97435 0 6.60564 0 0)
(281.075 -20.8396 0 8.73729 0 0)
(799.979 -185.192 0 64.7007 0 0)
(0.505035 0.0583424 0 2.13828 0 0)
(3.06491 0.424325 0 2.20013 0 0)
(8.46824 0.570133 0 2.14912 0 0)
(14.8572 0.851244 0 2.14061 0 0)
(24.2826 0.863802 0 2.11755 0 0)
(33.1602 1.05218 0 2.08039 0 0)
(45.2829 0.755411 0 2.07618 0 0)
(56.2172 0.885287 0 2.00547 0 0)
(69.703 0.17139 0 2.04966 0 0)
(83.4693 0.0159484 0 1.95739 0 0)
(98.2099 -1.12415 0 2.12065 0 0)
(115.692 -2.44896 0 2.09272 0 0)
(138.652 -3.59691 0 2.6207 0 0)
(154.911 -7.19991 0 2.82989 0 0)
(211.059 -13.0095 0 6.12106 0 0)
(223.453 -7.89026 0 6.37627 0 0)
(353.097 -62.2666 0 31.082 0 0)
(534.629 -192.527 0 98.2434 0 0)
(1.02952 0.0923493 0 4.66547 0 0)
(3.55029 0.61908 0 4.76193 0 0)
(9.07112 0.815315 0 4.63787 0 0)
(15.0708 1.14913 0 4.59717 0 0)
(24.6433 1.31189 0 4.55296 0 0)
(32.9934 1.34871 0 4.4787 0 0)
(45.0177 1.26005 0 4.44381 0 0)
(55.1836 0.972026 0 4.34539 0 0)
(68.619 0.474384 0 4.37726 0 0)
(80.7358 -0.284237 0 4.25377 0 0)
(96.0613 -1.33256 0 4.50325 0 0)
(110.544 -3.34336 0 4.36849 0 0)
(131.508 -4.79539 0 5.29864 0 0)
(152.295 -10.9742 0 5.60485 0 0)
(187.904 -11.4302 0 9.28573 0 0)
(238.484 -28.8671 0 16.822 0 0)
(291.548 -58.9267 0 32.6785 0 0)
(414.886 -178.329 0 107.836 0 0)
(1.86353 0.364908 0 8.51363 0 0)
(5.01025 0.719927 0 8.71495 0 0)
(9.43841 1.13929 0 8.46404 0 0)
(16.2466 1.29376 0 8.36103 0 0)
(24.6561 1.69948 0 8.27154 0 0)
(33.9565 1.50106 0 8.13659 0 0)
(44.8335 1.59602 0 8.0361 0 0)
(55.5388 0.991061 0 7.9042 0 0)
(68.4347 0.598166 0 7.8514 0 0)
(80.1443 -0.596285 0 7.75379 0 0)
(95.398 -1.78162 0 7.95574 0 0)
(108.587 -4.23074 0 7.90332 0 0)
(128.132 -6.88303 0 9.02072 0 0)
(145.262 -12.2913 0 9.26282 0 0)
(174.007 -19.2045 0 14.5859 0 0)
(217.945 -25.9613 0 17.2076 0 0)
(233.725 -55.5865 0 46.2602 0 0)
(326.71 -171.749 0 138.657 0 0)
(2.5625 0.750309 0 14.025 0 0)
(6.32622 0.806869 0 14.3766 0 0)
(9.30332 1.53907 0 13.9471 0 0)
(17.1015 1.59351 0 13.7526 0 0)
(24.1486 2.11907 0 13.5781 0 0)
(34.2765 1.93491 0 13.3463 0 0)
(43.9896 1.98892 0 13.1415 0 0)
(55.1878 1.4129 0 12.901 0 0)
(67.349 0.89162 0 12.7649 0 0)
(78.933 -0.38933 0 12.5642 0 0)
(94.4546 -1.74186 0 12.7653 0 0)
(105.86 -4.31626 0 12.6741 0 0)
(128.151 -7.27034 0 13.9774 0 0)
(137.975 -13.1606 0 14.6574 0 0)
(171.017 -21.8393 0 21.2414 0 0)
(191.528 -33.046 0 24.5946 0 0)
(211.111 -55.9186 0 51.5615 0 0)
(265.723 -145.661 0 130.621 0 0)
(2.24536 0.721473 0 21.5095 0 0)
(5.54561 0.940897 0 22.1251 0 0)
(9.20359 1.76264 0 21.3515 0 0)
(16.3458 2.07613 0 21.164 0 0)
(23.9819 2.44794 0 20.7658 0 0)
(33.3761 2.54051 0 20.5328 0 0)
(43.6275 2.27137 0 20.0652 0 0)
(54.069 1.925 0 19.8355 0 0)
(66.5097 0.893119 0 19.4185 0 0)
(77.389 -0.22236 0 19.2659 0 0)
(92.55 -2.3764 0 19.207 0 0)
(103.533 -4.82754 0 19.2499 0 0)
(123.682 -8.98618 0 20.4607 0 0)
(133.966 -14.2652 0 21.4392 0 0)
(161.588 -24.4069 0 28.5029 0 0)
(169.428 -32.4139 0 32.0405 0 0)
(203.425 -59.014 0 56.8514 0 0)
(190.305 -108.782 0 114.123 0 0)
(1.42523 0.598585 0 29.7227 0 0)
(4.3237 1.13429 0 30.6074 0 0)
(8.58649 1.92286 0 29.4613 0 0)
(15.2572 2.47095 0 29.2902 0 0)
(23.2155 2.77506 0 28.6457 0 0)
(32.2776 2.96052 0 28.3849 0 0)
(42.4351 2.59474 0 27.6342 0 0)
(52.809 2.18716 0 27.354 0 0)
(64.4512 1.00269 0 26.6313 0 0)
(75.6413 -0.368478 0 26.4665 0 0)
(88.6767 -2.75767 0 26.0843 0 0)
(100.464 -5.74137 0 26.3094 0 0)
(115.584 -10.3281 0 27.0667 0 0)
(128.116 -15.806 0 28.5821 0 0)
(144.707 -26.4974 0 33.8966 0 0)
(152.07 -33.4647 0 37.4624 0 0)
(180.382 -54.9003 0 53.17 0 0)
(139.632 -71.3188 0 83.678 0 0)
(1.00795 0.5212 0 38.4844 0 0)
(3.77966 1.2873 0 39.6777 0 0)
(8.18293 2.03452 0 38.1417 0 0)
(14.7327 2.77777 0 38.0008 0 0)
(22.6608 3.00313 0 37.0919 0 0)
(31.5972 3.31235 0 36.8171 0 0)
(41.5189 2.80075 0 35.7673 0 0)
(51.7918 2.46827 0 35.4491 0 0)
(62.8507 1.03265 0 34.4418 0 0)
(73.8671 -0.287808 0 34.2423 0 0)
(85.6874 -3.05327 0 33.6129 0 0)
(97.0472 -5.91151 0 33.8732 0 0)
(109.376 -10.9571 0 34.3835 0 0)
(121.252 -16.0479 0 36.1037 0 0)
(131.262 -25.571 0 39.9871 0 0)
(138.183 -33.2148 0 44.7177 0 0)
(150.033 -47.329 0 52.4462 0 0)
(123.244 -58.7579 0 73.1021 0 0)
(0.612296 0.484371 0 49.6589 0 0)
(3.23669 1.44511 0 51.2455 0 0)
(7.74367 2.18503 0 49.1513 0 0)
(14.2022 3.03353 0 49.0639 0 0)
(21.9979 3.27022 0 47.776 0 0)
(30.8574 3.57497 0 47.4969 0 0)
(40.4837 3.05983 0 46.0372 0 0)
(50.6199 2.63036 0 45.6691 0 0)
(61.1454 1.15456 0 44.2514 0 0)
(71.8147 -0.301698 0 44.0086 0 0)
(82.6976 -3.15161 0 42.9661 0 0)
(93.2412 -6.0492 0 43.2859 0 0)
(103.883 -11.1047 0 43.2879 0 0)
(113.747 -15.8568 0 45.1452 0 0)
(121.357 -24.5163 0 47.6498 0 0)
(125.796 -30.5806 0 51.9206 0 0)
(129.132 -40.7267 0 56.4429 0 0)
(116.036 -48.3972 0 69.0056 0 0)
(0.434187 0.515928 0 63.8382 0 0)
(2.97955 1.62629 0 65.8911 0 0)
(7.47103 2.38163 0 63.2022 0 0)
(13.8482 3.30734 0 63.0903 0 0)
(21.4954 3.56574 0 61.4583 0 0)
(30.1945 3.85408 0 61.0441 0 0)
(39.5542 3.35002 0 59.2382 0 0)
(49.3933 2.81077 0 58.6441 0 0)
(59.4638 1.36041 0 56.9255 0 0)
(69.5673 -0.278027 0 56.4087 0 0)
(79.6631 -2.99378 0 55.1081 0 0)
(89.198 -6.09474 0 55.1652 0 0)
(98.5155 -10.5671 0 54.821 0 0)
(106.392 -15.4301 0 56.3698 0 0)
(112.557 -22.1451 0 57.8153 0 0)
(115.091 -28.0602 0 61.5456 0 0)
(116.036 -35.206 0 64.513 0 0)
(109.586 -40.8047 0 71.412 0 0)
(0.356379 0.540199 0 81.3129 0 0)
(2.83186 1.74342 0 83.9953 0 0)
(7.26273 2.55255 0 80.5311 0 0)
(13.5178 3.49776 0 80.4219 0 0)
(20.9915 3.80426 0 78.3377 0 0)
(29.4704 4.03065 0 77.7851 0 0)
(38.5279 3.55324 0 75.4984 0 0)
(47.9974 2.91039 0 74.6747 0 0)
(57.5505 1.47078 0 72.4852 0 0)
(67.0429 -0.234515 0 71.6996 0 0)
(76.2553 -2.88516 0 69.9466 0 0)
(84.8405 -5.871 0 69.689 0 0)
(92.7461 -9.97575 0 68.8559 0 0)
(99.1747 -14.3044 0 69.811 0 0)
(103.889 -19.751 0 70.4556 0 0)
(105.833 -24.6639 0 72.9612 0 0)
(105.988 -29.829 0 74.9052 0 0)
(101.743 -33.3135 0 78.5632 0 0)
(0.329299 0.568612 0 102.369 0 0)
(2.73639 1.805 0 105.575 0 0)
(7.06956 2.6803 0 101.553 0 0)
(13.1564 3.57923 0 101.084 0 0)
(20.4347 3.92811 0 98.8222 0 0)
(28.6186 4.04796 0 97.7436 0 0)
(37.3514 3.60712 0 95.2317 0 0)
(46.351 2.82422 0 93.7839 0 0)
(55.3787 1.46358 0 91.3502 0 0)
(64.1587 -0.354052 0 89.9011 0 0)
(72.5366 -2.77256 0 87.8771 0 0)
(80.1257 -5.70396 0 86.9051 0 0)
(86.8462 -9.21435 0 85.6959 0 0)
(92.1064 -13.1034 0 85.7051 0 0)
(95.8079 -17.3214 0 85.6575 0 0)
(97.3926 -21.3879 0 86.801 0 0)
(97.4953 -25.2322 0 87.8304 0 0)
(94.6915 -27.6875 0 89.4373 0 0)
(0.313695 0.572824 0 126.338 0 0)
(2.64103 1.77217 0 130.263 0 0)
(6.8487 2.66461 0 125.558 0 0)
(12.7321 3.45901 0 124.749 0 0)
(19.7683 3.7859 0 122.22 0 0)
(27.6183 3.79905 0 120.645 0 0)
(35.959 3.32481 0 117.765 0 0)
(44.4678 2.47725 0 115.734 0 0)
(52.9037 1.12188 0 112.877 0 0)
(60.9965 -0.641849 0 110.788 0 0)
(68.5445 -2.9102 0 108.3 0 0)
(75.2672 -5.54238 0 106.577 0 0)
(81.0044 -8.59776 0 104.811 0 0)
(85.4531 -11.8213 0 103.81 0 0)
(88.4983 -15.1841 0 102.98 0 0)
(89.9359 -18.3516 0 102.809 0 0)
(90.2384 -21.2705 0 102.824 0 0)
(88.2758 -22.9178 0 102.979 0 0)
(0.299309 0.524362 0 151.728 0 0)
(2.53309 1.58001 0 156.225 0 0)
(6.58451 2.37476 0 151.1 0 0)
(12.2343 2.98408 0 149.663 0 0)
(18.9752 3.20691 0 147.106 0 0)
(26.4537 3.06438 0 144.796 0 0)
(34.3536 2.52351 0 141.71 0 0)
(42.3422 1.59109 0 138.906 0 0)
(50.1783 0.261464 0 135.71 0 0)
(57.5969 -1.4436 0 132.837 0 0)
(64.4091 -3.50551 0 129.888 0 0)
(70.3873 -5.84323 0 127.319 0 0)
(75.4009 -8.42016 0 124.919 0 0)
(79.2874 -11.0722 0 122.92 0 0)
(81.9854 -13.7103 0 121.209 0 0)
(83.4033 -16.1749 0 119.873 0 0)
(83.9858 -18.3734 0 118.786 0 0)
(82.7791 -19.4201 0 117.678 0 0)
(0.284017 0.3938 0 174.927 0 0)
(2.41468 1.14426 0 180.121 0 0)
(6.28428 1.6686 0 174.518 0 0)
(11.6725 2.00035 0 172.637 0 0)
(18.0796 1.99716 0 169.958 0 0)
(25.1597 1.66008 0 167.109 0 0)
(32.5917 0.979273 0 163.726 0 0)
(40.0601 -0.0298021 0 160.333 0 0)
(47.3176 -1.36424 0 156.719 0 0)
(54.131 -2.97617 0 153.208 0 0)
(60.3223 -4.84446 0 149.724 0 0)
(65.7272 -6.87524 0 146.437 0 0)
(70.2409 -9.02942 0 143.343 0 0)
(73.7904 -11.1773 0 140.492 0 0)
(76.346 -13.2411 0 137.904 0 0)
(77.8722 -15.1405 0 135.582 0 0)
(78.7542 -16.788 0 133.473 0 0)
(78.206 -17.3865 0 131.278 0 0)
(0.268791 0.156288 0 190.022 0 0)
(2.29383 0.390788 0 195.689 0 0)
(5.96777 0.488596 0 189.8 0 0)
(11.0769 0.410015 0 187.659 0 0)
(17.1339 0.0733782 0 184.915 0 0)
(23.8061 -0.534965 0 181.747 0 0)
(30.7764 -1.4041 0 178.172 0 0)
(37.7491 -2.52629 0 174.422 0 0)
(44.4883 -3.87591 0 170.514 0 0)
(50.7877 -5.41582 0 166.599 0 0)
(56.4943 -7.10256 0 162.71 0 0)
(61.4865 -8.87101 0 158.935 0 0)
(65.689 -10.6667 0 155.303 0 0)
(69.0722 -12.4117 0 151.845 0 0)
(71.6292 -14.03 0 148.582 0 0)
(73.3487 -15.5 0 145.542 0 0)
(74.5437 -16.7362 0 142.653 0 0)
(74.5886 -17.0579 0 139.662 0 0)
(0.259145 -0.14222 0 189.995 0 0)
(2.19632 -0.533479 0 195.62 0 0)
(5.69113 -0.936543 0 189.794 0 0)
(10.544 -1.49136 0 187.644 0 0)
(16.2854 -2.21146 0 184.943 0 0)
(22.5974 -3.11357 0 181.781 0 0)
(29.1722 -4.18684 0 178.231 0 0)
(35.7368 -5.42551 0 174.484 0 0)
(42.0688 -6.7991 0 170.563 0 0)
(47.9903 -8.279 0 166.614 0 0)
(53.3653 -9.81841 0 162.644 0 0)
(58.1055 -11.3749 0 158.762 0 0)
(62.1497 -12.8954 0 154.954 0 0)
(65.4919 -14.3367 0 151.294 0 0)
(68.1309 -15.6336 0 147.756 0 0)
(70.0721 -16.7931 0 144.421 0 0)
(71.5488 -17.7398 0 141.177 0 0)
(72.0832 -17.9452 0 137.851 0 0)
(0.255971 -0.395796 0 174.194 0 0)
(2.13711 -1.3046 0 179.14 0 0)
(5.50035 -2.12523 0 173.815 0 0)
(10.1633 -3.07284 0 171.824 0 0)
(15.6712 -4.10056 0 169.345 0 0)
(21.7191 -5.2291 0 166.458 0 0)
(28.0099 -6.45139 0 163.21 0 0)
(34.2889 -7.76428 0 159.79 0 0)
(40.3462 -9.13933 0 156.188 0 0)
(46.0251 -10.5566 0 152.562 0 0)
(51.2003 -11.9742 0 148.882 0 0)
(55.8035 -13.3655 0 145.279 0 0)
(59.7816 -14.6857 0 141.7 0 0)
(63.1384 -15.9116 0 138.252 0 0)
(65.8721 -16.9916 0 134.872 0 0)
(68.0001 -17.941 0 131.674 0 0)
(69.6914 -18.6985 0 128.522 0 0)
(70.589 -18.8866 0 125.326 0 0)
(0.257418 -0.544723 0 148.785 0 0)
(2.10929 -1.74519 0 152.738 0 0)
(5.38587 -2.81948 0 148.206 0 0)
(9.92123 -4.0017 0 146.49 0 0)
(15.2724 -5.20436 0 144.371 0 0)
(21.1434 -6.45245 0 141.92 0 0)
(27.2464 -7.73795 0 139.159 0 0)
(33.3394 -9.06268 0 136.257 0 0)
(39.2227 -10.3993 0 133.188 0 0)
(44.7525 -11.7378 0 130.099 0 0)
(49.8134 -13.0399 0 126.946 0 0)
(54.3462 -14.2924 0 123.855 0 0)
(58.3048 -15.4561 0 120.763 0 0)
(61.6946 -16.5219 0 117.778 0 0)
(64.5148 -17.4462 0 114.832 0 0)
(66.7875 -18.2481 0 112.038 0 0)
(68.6379 -18.877 0 109.268 0 0)
(69.7986 -19.0867 0 106.48 0 0)
(0.260272 -0.600485 0 119.913 0 0)
(2.10031 -1.88726 0 122.879 0 0)
(5.31977 -3.06385 0 119.235 0 0)
(9.76973 -4.33548 0 117.842 0 0)
(15.016 -5.59256 0 116.138 0 0)
(20.7693 -6.8612 0 114.175 0 0)
(26.7485 -8.13112 0 111.964 0 0)
(32.7209 -9.40763 0 109.64 0 0)
(38.4938 -10.6654 0 107.179 0 0)
(43.9319 -11.9012 0 104.697 0 0)
(48.9277 -13.0814 0 102.158 0 0)
(53.4267 -14.2013 0 99.6618 0 0)
(57.3874 -15.2265 0 97.1598 0 0)
(60.8148 -16.157 0 94.7369 0 0)
(63.7091 -16.9558 0 92.3413 0 0)
(66.0952 -17.6424 0 90.0603 0 0)
(68.0677 -18.1759 0 87.7979 0 0)
(69.4272 -18.4116 0 85.5252 0 0)
(0.263219 -0.589744 0 91.792 0 0)
(2.09995 -1.82765 0 93.9049 0 0)
(5.28195 -2.99295 0 91.1169 0 0)
(9.67502 -4.24197 0 90.0443 0 0)
(14.8507 -5.46103 0 88.7463 0 0)
(20.5254 -6.67253 0 87.2529 0 0)
(26.4229 -7.86603 0 85.574 0 0)
(32.3164 -9.04646 0 83.8038 0 0)
(38.0192 -10.1931 0 81.9299 0 0)
(43.4011 -11.3048 0 80.0348 0 0)
(48.3603 -12.3544 0 78.0959 0 0)
(52.8448 -13.3403 0 76.1834 0 0)
(56.8169 -14.2352 0 74.2673 0 0)
(60.2797 -15.0414 0 72.4059 0 0)
(63.2349 -15.7308 0 70.5665 0 0)
(65.7096 -16.3185 0 68.8084 0 0)
(67.7765 -16.7752 0 67.0675 0 0)
(69.2888 -17.0247 0 65.3164 0 0)
(0.266293 -0.536028 0 66.8648 0 0)
(2.10377 -1.64876 0 68.3035 0 0)
(5.2606 -2.72729 0 66.2738 0 0)
(9.61591 -3.87886 0 65.4917 0 0)
(14.7443 -4.99729 0 64.5544 0 0)
(20.3667 -6.09844 0 63.4736 0 0)
(26.2106 -7.17429 0 62.2606 0 0)
(32.053 -8.22669 0 60.9762 0 0)
(37.7118 -9.24083 0 59.6186 0 0)
(43.0601 -10.2142 0 58.2401 0 0)
(48.0004 -11.1276 0 56.8326 0 0)
(52.4818 -11.9786 0 55.4394 0 0)
(56.4689 -12.7477 0 54.0469 0 0)
(59.9637 -13.4367 0 52.6895 0 0)
(62.9689 -14.0259 0 51.3508 0 0)
(65.5127 -14.5246 0 50.0663 0 0)
(67.6521 -14.9145 0 48.798 0 0)
(69.2823 -15.1623 0 47.5183 0 0)
(0.268151 -0.462287 0 46.2419 0 0)
(2.10817 -1.41415 0 47.1796 0 0)
(5.24874 -2.36088 0 45.7803 0 0)
(9.57908 -3.37108 0 45.2428 0 0)
(14.6758 -4.35117 0 44.6022 0 0)
(20.2636 -5.31055 0 43.8591 0 0)
(26.0729 -6.24419 0 43.0259 0 0)
(31.8829 -7.15037 0 42.1394 0 0)
(37.5149 -8.02015 0 41.2048 0 0)
(42.844 -8.84883 0 40.2526 0 0)
(47.7751 -9.62415 0 39.2836 0 0)
(52.2584 -10.3421 0 38.322 0 0)
(56.26 -10.9903 0 37.3634 0 0)
(59.7808 -11.5682 0 36.4264 0 0)
(62.8241 -12.0636 0 35.5041 0 0)
(65.4187 -12.4802 0 34.6159 0 0)
(67.6101 -12.8081 0 33.7419 0 0)
(69.3262 -13.0385 0 32.8568 0 0)
(0.269302 -0.382589 0 30.1268 0 0)
(2.1117 -1.16324 0 30.7105 0 0)
(5.24198 -1.95597 0 29.8013 0 0)
(9.55557 -2.80403 0 29.4544 0 0)
(14.631 -3.62687 0 29.0427 0 0)
(20.1955 -4.43068 0 28.5626 0 0)
(25.9817 -5.21168 0 28.0239 0 0)
(31.7697 -5.96685 0 27.4489 0 0)
(37.3828 -6.68967 0 26.8434 0 0)
(42.6973 -7.37538 0 26.2256 0 0)
(47.6201 -8.01542 0 25.5982 0 0)
(52.1008 -8.60564 0 24.9745 0 0)
(56.1078 -9.13808 0 24.3541 0 0)
(59.6408 -9.61084 0 23.7461 0 0)
(62.7037 -10.0164 0 23.1486 0 0)
(65.3241 -10.355 0 22.5715 0 0)
(67.5426 -10.6221 0 22.0051 0 0)
(69.3116 -10.8197 0 21.43 0 0)
(0.269616 -0.304208 0 18.1928 0 0)
(2.11345 -0.918679 0 18.5366 0 0)
(5.23659 -1.55228 0 17.9865 0 0)
(9.53614 -2.23447 0 17.7807 0 0)
(14.5925 -2.89797 0 17.5379 0 0)
(20.1349 -3.54739 0 17.2536 0 0)
(25.8968 -4.17798 0 16.9337 0 0)
(31.6591 -4.78641 0 16.5911 0 0)
(37.2466 -5.36614 0 16.2297 0 0)
(42.5358 -5.91367 0 15.86 0 0)
(47.436 -6.42174 0 15.4838 0 0)
(51.8958 -6.88797 0 15.1091 0 0)
(55.8869 -7.30554 0 14.7359 0 0)
(59.4071 -7.67415 0 14.3696 0 0)
(62.4648 -7.988 0 14.0094 0 0)
(65.0825 -8.24767 0 13.6608 0 0)
(67.304 -8.45232 0 13.3192 0 0)
(69.1005 -8.60273 0 12.9727 0 0)
(0.269255 -0.227981 0 9.87184 0 0)
(2.11117 -0.690431 0 10.0552 0 0)
(5.21936 -1.17728 0 9.75829 0 0)
(9.49266 -1.70644 0 9.65602 0 0)
(14.5188 -2.22034 0 9.53173 0 0)
(20.0278 -2.7203 0 9.38268 0 0)
(25.7527 -3.202 0 9.21217 0 0)
(31.4771 -3.66295 0 9.02813 0 0)
(37.0254 -4.09739 0 8.83258 0 0)
(42.2775 -4.50376 0 8.63179 0 0)
(47.1416 -4.87646 0 8.42635 0 0)
(51.5713 -5.21565 0 8.22143 0 0)
(55.5371 -5.51552 0 8.01647 0 0)
(59.041 -5.77828 0 7.81543 0 0)
(62.0904 -5.9978 0 7.61736 0 0)
(64.707 -6.17765 0 7.42626 0 0)
(66.9322 -6.32076 0 7.23969 0 0)
(68.762 -6.42283 0 7.05169 0 0)
(0.268114 -0.154611 0 4.48131 0 0)
(2.08432 -0.497266 0 4.57684 0 0)
(5.15808 -0.851344 0 4.45178 0 0)
(9.39184 -1.2273 0 4.41618 0 0)
(14.3924 -1.58397 0 4.36516 0 0)
(19.8759 -1.92596 0 4.30079 0 0)
(25.5742 -2.25064 0 4.22355 0 0)
(31.2726 -2.55575 0 4.13715 0 0)
(36.7979 -2.8397 0 4.04421 0 0)
(42.0292 -3.10365 0 3.94849 0 0)
(46.8766 -3.34469 0 3.85078 0 0)
(51.2969 -3.56367 0 3.75379 0 0)
(55.2569 -3.75685 0 3.657 0 0)
(58.7667 -3.92629 0 3.56312 0 0)
(61.8227 -4.06586 0 3.47055 0 0)
(64.4581 -4.18088 0 3.38318 0 0)
(66.6804 -4.27136 0 3.29803 0 0)
(68.5384 -4.34141 0 3.21391 0 0)
(0.255226 -0.0880759 0 1.41949 0 0)
(2.06837 -0.313062 0 1.48516 0 0)
(5.20657 -0.525345 0 1.44515 0 0)
(9.4988 -0.733467 0 1.43201 0 0)
(14.5528 -0.923347 0 1.41192 0 0)
(20.0876 -1.10578 0 1.38867 0 0)
(25.8421 -1.28226 0 1.36206 0 0)
(31.5997 -1.45024 0 1.33276 0 0)
(37.1865 -1.60806 0 1.3018 0 0)
(42.4768 -1.75554 0 1.27022 0 0)
(47.3838 -1.89119 0 1.23844 0 0)
(51.8565 -2.01501 0 1.20706 0 0)
(55.8663 -2.12498 0 1.17604 0 0)
(59.4159 -2.22176 0 1.14611 0 0)
(62.5052 -2.30125 0 1.11687 0 0)
(65.1721 -2.36744 0 1.09042 0 0)
(67.3942 -2.42004 0 1.06523 0 0)
(69.2442 -2.45951 0 1.03831 0 0)
(0.245912 -0.0252937 0 0.141694 0 0)
(2.06619 -0.0976997 0 0.153465 0 0)
(5.18542 -0.165348 0 0.150682 0 0)
(9.44677 -0.230506 0 0.149513 0 0)
(14.482 -0.29333 0 0.147213 0 0)
(20.0041 -0.353596 0 0.144487 0 0)
(25.752 -0.412359 0 0.141491 0 0)
(31.5071 -0.468807 0 0.138363 0 0)
(37.1009 -0.522107 0 0.135144 0 0)
(42.4092 -0.572075 0 0.131895 0 0)
(47.3465 -0.618402 0 0.12864 0 0)
(51.8599 -0.661063 0 0.125441 0 0)
(55.9231 -0.699482 0 0.122301 0 0)
(59.5313 -0.733514 0 0.11928 0 0)
(62.6908 -0.762427 0 0.116458 0 0)
(65.4345 -0.787663 0 0.114124 0 0)
(67.7468 -0.805872 0 0.112053 0 0)
(69.6744 -0.815161 0 0.11167 0 0)
(0.0244739 0.0357373 0 0.716715 0 0)
(0.267152 0.0990266 0 0.677827 0 0)
(0.785107 0.180767 0 0.670676 0 0)
(1.53821 0.294712 0 0.661463 0 0)
(2.48479 0.423587 0 0.65986 0 0)
(3.60666 0.568248 0 0.656583 0 0)
(4.88184 0.715175 -2.38393e-19 0.654607 -6.47106e-20 1.4773e-37)
(6.30746 0.865958 2.42461e-19 0.650289 6.90045e-20 1.48182e-37)
(7.87686 1.01279 0 0.644276 0 0)
(9.58807 1.16008 2.45001e-19 0.636704 6.8429e-20 1.45967e-37)
(11.4359 1.30398 0 0.628128 0 0)
(13.4144 1.44673 0 0.619045 0 0)
(15.517 1.58372 0 0.611103 0 0)
(17.7373 1.71528 -2.77652e-19 0.604649 -5.16034e-20 1.34629e-37)
(20.0692 1.83827 0 0.59845 0 0)
(22.5131 1.95177 0 0.593233 0 0)
(25.0693 2.05159 3.40715e-19 0.58895 3.90068e-20 1.21992e-37)
(27.7363 2.13938 0 0.584514 0 0)
(30.5093 2.21776 0 0.579864 0 0)
(33.3824 2.28894 0 0.575434 0 0)
(36.3397 2.352 -4.56276e-19 0.572109 -1.96036e-20 1.01703e-37)
(39.3719 2.4077 0 0.568357 0 0)
(42.465 2.45416 -5.15859e-19 0.566108 -1.03471e-20 9.24536e-38)
(45.61 2.49119 0 0.567319 0 0)
(48.7907 2.52493 0 0.56809 0 0)
(51.9931 2.548 -6.03812e-19 0.570267 1.16695e-21 7.97124e-38)
(55.2101 2.55018 0 0.572105 0 0)
(58.446 2.5328 6.5739e-19 0.570583 -6.90425e-21 7.21139e-38)
(61.6947 2.50185 0 0.562716 0 0)
(64.9619 2.45919 -7.0212e-19 0.552298 1.04797e-20 6.53494e-38)
(68.2463 2.40739 0 0.538731 0 0)
(71.5351 2.34888 0 0.522932 0 0)
(74.8209 2.28355 0 0.508927 0 0)
(78.105 2.20767 0 0.497562 0 0)
(81.3813 2.12068 0 0.486014 0 0)
(84.6462 2.02548 7.79282e-19 0.475111 -1.40188e-20 4.59466e-38)
(87.8985 1.92188 0 0.463498 0 0)
(91.1391 1.80975 -1.5618e-18 0.447497 2.71719e-20 1.6121e-37)
(94.3664 1.69067 0 0.431947 0 0)
(97.5755 1.5635 1.55189e-18 0.417356 -2.61722e-20 1.39835e-37)
(100.76 1.43074 0 0.402251 0 0)
(103.918 1.28875 0 0.390617 0 0)
(107.041 1.13847 -1.51398e-18 0.378093 2.15754e-20 1.11174e-37)
(110.112 0.98582 0 0.365315 0 0)
(113.116 0.8311 -1.47549e-18 0.354536 1.8284e-20 9.42553e-38)
(116.039 0.673134 1.45304e-18 0.345698 -1.6561e-20 8.65694e-38)
(118.863 0.509135 0 0.339495 0 0)
(121.583 0.338993 1.4023e-18 0.3346 -1.2519e-20 7.33626e-38)
(124.18 0.163696 1.37413e-18 0.330784 -1.06462e-20 6.79012e-38)
(126.656 -0.01406 0 0.327606 0 0)
(128.996 -0.193301 0 0.325451 0 0)
(131.182 -0.376758 0 0.32271 0 0)
(133.19 -0.565193 0 0.321455 0 0)
(135.003 -0.755919 0 0.323484 0 0)
(136.593 -0.945635 -1.17392e-18 0.327695 -4.39141e-21 5.01225e-38)
(137.93 -1.13678 0 0.331805 0 0)
(139.004 -1.33264 1.07933e-18 0.335517 1.14706e-20 4.74745e-38)
(139.818 -1.53513 0 0.34078 0 0)
(140.366 -1.74394 0 0.347588 0 0)
(140.634 -1.95004 -9.11527e-19 0.356859 -2.24358e-20 4.74843e-38)
(140.616 -2.15436 0 0.368787 0 0)
(140.296 -2.35951 7.80301e-19 0.380805 3.12188e-20 4.96528e-38)
(139.682 -2.56353 0 0.391107 0 0)
(138.768 -2.76755 0 0.403901 0 0)
(137.564 -2.97074 0 0.418141 0 0)
(136.083 -3.16682 -4.82497e-19 0.432689 -4.75238e-20 6.03057e-38)
(134.328 -3.35577 0 0.447262 0 0)
(132.311 -3.53828 0 0.460329 0 0)
(130.044 -3.71376 -2.26901e-19 0.474243 -6.11847e-20 7.29841e-38)
(127.546 -3.8875 0 0.490139 0 0)
(124.852 -4.05308 -5.11223e-20 0.505468 -6.98875e-20 8.29606e-38)
(121.974 -4.20544 0 0.520405 0 0)
(118.931 -4.34643 0 0.536607 0 0)
(115.755 -4.47789 0 0.553883 0 0)
(112.471 -4.59963 -3.0485e-19 0.571871 8.31166e-20 1.04492e-37)
(109.096 -4.7093 0 0.589865 0 0)
(105.646 -4.80354 0 0.607641 0 0)
(102.133 -4.88253 -5.64161e-19 0.625583 9.02625e-20 1.20106e-37)
(98.5692 -4.95064 -6.45959e-19 0.644239 9.18081e-20 1.25213e-37)
(94.9814 -5.00761 0 0.662941 0 0)
(91.4002 -5.05261 -7.98988e-19 0.682576 9.45866e-20 1.34632e-37)
(87.8462 -5.08629 0 0.703689 0 0)
(84.3401 -5.10812 -1.87751e-18 0.72522 1.92494e-19 5.74189e-37)
(80.8961 -5.11702 0 0.747852 0 0)
(77.532 -5.11141 -2.12231e-18 0.770412 1.9363e-19 6.07346e-37)
(74.2664 -5.08953 0 0.793348 0 0)
(71.1138 -5.05469 2.32481e-18 0.819283 -1.93783e-19 6.36335e-37)
(68.0915 -5.00662 0 0.844285 0 0)
(65.2141 -4.93997 0 0.86659 0 0)
(62.4811 -4.85449 0 0.889278 0 0)
(59.897 -4.75236 -2.5855e-18 0.914282 1.86203e-19 6.79696e-37)
(57.4674 -4.63598 0 0.938871 0 0)
(55.2017 -4.50355 2.64641e-18 0.963128 -1.79928e-19 6.94435e-37)
(53.1025 -4.3549 0 0.986882 0 0)
(51.1588 -4.18408 -2.6584e-18 1.01046 1.73585e-19 7.03313e-37)
(49.3655 -3.99652 -2.64926e-18 1.03176 1.70357e-19 7.06844e-37)
(47.7105 -3.79629 -2.63026e-18 1.05299 1.66178e-19 7.09521e-37)
(46.1897 -3.58713 0 1.07538 0 0)
(44.7763 -3.36799 0 1.09845 0 0)
(43.4807 -3.13954 0 1.118 0 0)
(42.2835 -2.9021 0 1.1379 0 0)
(41.1813 -2.66304 0 1.15775 0 0)
(40.1548 -2.42333 0 1.17681 0 0)
(39.2008 -2.18101 0 1.19191 0 0)
(38.2731 -1.93735 0 1.20791 0 0)
(37.3695 -1.70072 2.025e-18 1.22327 -1.31507e-19 7.07526e-37)
(36.4566 -1.47229 1.91105e-18 1.2404 -1.24236e-19 7.0692e-37)
(35.5595 -1.25323 0 1.25206 0 0)
(34.6437 -1.04295 0 1.26516 0 0)
(33.7188 -0.856545 0 1.27927 0 0)
(32.7351 -0.680721 1.35391e-18 1.29174 -1.04653e-19 6.91052e-37)
(31.7918 -0.530547 0 1.29891 0 0)
(30.7817 -0.388165 0 1.30878 0 0)
(29.8237 -0.285349 0 1.31892 0 0)
(28.8963 -0.202007 0 1.33212 0 0)
(28.0657 -0.151501 -4.38806e-19 1.34061 7.57889e-20 6.66087e-37)
(27.3653 -0.125415 0 1.34998 0 0)
(26.826 -0.134671 0 1.36348 0 0)
(26.5369 -0.177594 -2.22626e-19 1.37136 -6.55566e-20 6.4268e-37)
(26.4933 -0.246239 4.49596e-19 1.38419 6.12404e-20 6.30041e-37)
(26.7458 -0.356006 0 1.40113 0 0)
(27.3517 -0.512024 9.11986e-19 1.41881 6.01459e-20 6.05197e-37)
(28.3684 -0.709523 0 1.4382 0 0)
(29.867 -0.961238 -1.35321e-18 1.45528 -6.44474e-20 5.75525e-37)
(31.8634 -1.24796 0 1.47808 0 0)
(34.4318 -1.58344 0 1.50512 0 0)
(37.4686 -1.96101 0 1.53781 0 0)
(41.0833 -2.38913 0 1.57209 0 0)
(45.1297 -2.84322 0 1.61031 0 0)
(49.6127 -3.3449 4.89743e-18 1.65255 2.04703e-19 1.97182e-36)
(54.474 -3.89057 5.15264e-18 1.6988 2.30487e-19 1.93723e-36)
(59.7331 -4.47237 0 1.74731 0 0)
(65.1957 -5.07464 0 1.80299 0 0)
(70.8135 -5.70145 0 1.85825 0 0)
(76.4389 -6.31524 -5.69338e-18 1.91903 -3.52278e-19 1.91733e-36)
(81.8489 -6.93021 0 1.99013 0 0)
(87.005 -7.55202 0 2.06246 0 0)
(91.8489 -8.16679 0 2.13882 0 0)
(96.2981 -8.75763 -5.33468e-18 2.21728 -5.33502e-19 2.07227e-36)
(100.317 -9.32353 5.10129e-18 2.30224 5.83284e-19 2.13463e-36)
(103.729 -9.84689 0 2.3917 0 0)
(106.637 -10.3568 0 2.48435 0 0)
(109.012 -10.8113 4.08079e-18 2.57883 7.35499e-19 2.36634e-36)
(110.852 -11.23 3.65108e-18 2.67219 7.84449e-19 2.45157e-36)
(112.008 -11.5741 0 2.77246 0 0)
(112.578 -11.8885 0 2.87239 0 0)
(112.456 -12.1308 -2.0529e-18 2.97647 -9.45941e-19 2.7194e-36)
(111.774 -12.3553 1.42325e-18 3.07148 9.89555e-19 2.79813e-36)
(110.58 -12.5093 0 3.16831 0 0)
(108.672 -12.6092 0 3.26897 0 0)
(106.17 -12.6427 -5.21645e-19 3.35989 1.11737e-18 3.06879e-36)
(103.037 -12.622 0 3.45038 0 0)
(99.5564 -12.5635 0 3.53392 0 0)
(95.5694 -12.4141 -2.5484e-18 3.6064 1.2063e-18 3.30185e-36)
(91.2712 -12.1925 0 3.6784 0 0)
(86.6472 -11.86 -3.83161e-18 3.73992 1.25736e-18 3.44508e-36)
(81.7617 -11.4426 0 3.79585 0 0)
(76.6567 -10.9075 0 3.83519 0 0)
(71.7153 -10.2742 0 3.8593 0 0)
(66.8368 -9.47645 5.87066e-18 3.87805 -1.27817e-18 3.68199e-36)
(62.1819 -8.55914 0 3.88154 0 0)
(57.9655 -7.48953 0 3.86954 0 0)
(54.5105 -6.30039 0 3.84174 0 0)
(51.6555 -4.92225 0 3.79988 0 0)
(49.5613 -3.46434 0 3.7495 0 0)
(48.8494 -1.91171 0 3.67774 0 0)
(49.6849 -0.286868 6.01767e-18 3.58805 -1.1052e-18 3.73046e-36)
(51.7365 1.42693 5.60698e-18 3.49045 -1.05136e-18 3.7126e-36)
(55.4349 3.11815 0 3.37837 0 0)
(60.688 4.74535 0 3.26017 0 0)
(67.4923 6.32628 0 3.13038 0 0)
(75.4219 7.80083 -3.0546e-18 3.0006 7.95529e-19 3.38592e-36)
(84.5412 9.10312 0 2.87259 0 0)
(94.0882 10.2922 2.95234e-18 2.7377 -1.35126e-18 1.23726e-35)
(103.957 11.2501 -1.31049e-18 2.60735 1.21853e-18 1.16705e-35)
(113.587 12.0397 3.20831e-19 2.47547 1.10587e-18 1.10265e-35)
(123.237 12.6904 -2.02408e-18 2.35049 -1.01532e-18 1.03453e-35)
(131.359 13.2318 3.68349e-18 2.23122 9.2304e-19 9.77793e-36)
(139.253 13.7107 -5.2946e-18 2.12371 -9.04791e-19 9.00938e-36)
(143.014 14.4035 0 2.06773 0 0)
(0.0183052 0.174098 0 6.09112 0 0)
(0.202678 0.387559 0 6.02926 0 0)
(0.629337 0.609236 1.31844e-19 5.85677 1.75578e-19 6.75855e-37)
(1.3267 0.853431 0 5.73618 0 0)
(2.26859 1.13234 -1.92897e-19 5.67642 -3.52646e-19 9.18472e-37)
(3.44443 1.43677 -1.84847e-19 5.64918 -4.40224e-19 9.71449e-37)
(4.83303 1.76112 -8.1316e-20 5.63367 -2.50727e-19 2.48687e-37)
(6.42011 2.10134 -6.97249e-20 5.61557 -2.69612e-19 2.60924e-37)
(8.19786 2.45012 0 5.58723 0 0)
(10.1643 2.80299 -4.31165e-20 5.54469 -2.68516e-19 2.59086e-37)
(12.3208 3.15115 0 5.49288 0 0)
(14.6656 3.49228 0 5.43334 0 0)
(17.1904 3.82121 9.66084e-20 5.36517 4.23133e-19 9.49947e-37)
(19.8959 4.13754 7.0385e-20 5.29339 1.8671e-19 2.33847e-37)
(22.7717 4.43152 -1.86983e-19 5.21834 -3.26113e-19 8.92558e-37)
(25.8117 4.70308 -2.52917e-19 5.14033 -2.81287e-19 8.64865e-37)
(29.0046 4.95366 -1.71621e-19 5.05618 -1.18571e-19 2.12491e-37)
(32.3442 5.18483 0 4.96563 0 0)
(35.8185 5.39502 0 4.8701 0 0)
(39.4189 5.58881 0 4.76758 0 0)
(43.1224 5.76531 -3.86419e-19 4.66283 -3.70004e-20 1.80166e-37)
(46.92 5.92166 0 4.55844 0 0)
(50.7892 6.04957 1.60757e-18 4.45203 -1.54914e-20 1.54988e-36)
(54.7175 6.15274 0 4.3492 0 0)
(58.6878 6.23281 0 4.24415 0 0)
(62.6827 6.28999 7.74108e-19 4.14002 -5.75044e-20 1.56295e-37)
(66.6744 6.32099 0 4.03413 0 0)
(70.6442 6.33507 -9.32105e-19 3.93361 8.16454e-20 1.4579e-37)
(74.5585 6.32593 -1.99175e-18 3.83373 1.81264e-19 5.56296e-37)
(78.407 6.28842 1.07608e-18 3.73106 -9.86068e-20 1.36425e-37)
(82.1858 6.21961 0 3.62331 0 0)
(85.8945 6.12302 0 3.518 0 0)
(89.5199 6.00113 0 3.41466 0 0)
(93.0655 5.85501 -2.57433e-18 3.30653 2.2256e-19 4.70693e-37)
(96.5232 5.6792 -2.65259e-18 3.19912 2.20114e-19 4.54569e-37)
(99.9064 5.47398 -1.37248e-18 3.09817 1.07505e-19 1.1062e-37)
(103.224 5.23767 0 3.00631 0 0)
(106.467 4.96536 2.83582e-18 2.91828 -2.02909e-19 4.12332e-37)
(109.647 4.65494 0 2.83319 0 0)
(112.756 4.31575 -2.87269e-18 2.75179 1.88366e-19 3.81135e-37)
(115.802 3.94887 0 2.6716 0 0)
(118.78 3.5621 0 2.59955 0 0)
(121.699 3.15929 2.82604e-18 2.52879 -1.54064e-19 3.31327e-37)
(124.542 2.73761 0 2.46362 0 0)
(127.292 2.29036 8.1559e-18 2.40576 -3.93448e-19 2.68156e-36)
(129.946 1.81324 -2.68754e-18 2.36051 1.19206e-19 2.83391e-37)
(132.508 1.3105 0 2.33334 0 0)
(134.994 0.782023 -2.54798e-18 2.31741 9.09601e-20 2.51475e-37)
(137.389 0.220517 -2.46742e-18 2.31097 7.6716e-20 2.35918e-37)
(139.69 -0.367311 0 2.31319 0 0)
(141.876 -0.966711 0 2.32653 0 0)
(143.928 -1.5636 0 2.34149 0 0)
(145.831 -2.14883 0 2.3549 0 0)
(147.548 -2.72637 0 2.37849 0 0)
(149.066 -3.30472 1.88293e-18 2.41134 1.44782e-20 1.71789e-37)
(150.363 -3.89132 3.45042e-18 2.45464 7.10541e-20 6.54701e-37)
(151.419 -4.48142 -1.64412e-18 2.50571 -5.58736e-20 1.59815e-37)
(152.244 -5.0897 0 2.56179 0 0)
(152.814 -5.69979 2.68687e-18 2.62503 1.90214e-19 6.0035e-37)
(153.097 -6.28996 -1.16987e-18 2.69331 -1.13215e-19 1.46591e-37)
(153.123 -6.87611 0 2.77006 0 0)
(152.843 -7.45722 -9.78106e-19 2.86 -1.48476e-19 1.49242e-37)
(152.268 -8.01652 0 2.95341 0 0)
(151.394 -8.56673 0 3.05463 0 0)
(150.217 -9.09943 -1.0485e-18 3.16196 -3.96229e-19 6.24574e-37)
(148.725 -9.60339 4.23107e-19 3.27412 2.14856e-19 1.63496e-37)
(146.954 -10.098 -4.89876e-19 3.39375 -4.61797e-19 6.67391e-37)
(144.896 -10.571 2.13029e-19 3.51851 4.88871e-19 6.91167e-37)
(142.574 -11.0142 1.03809e-20 3.6429 2.54348e-19 1.82446e-37)