/*--------------------------------*- C++ -*----------------------------------*\
| =========                 |                                                 |
| \\      /  F ield         | OpenFOAM: The Open Source CFD Toolbox           |
|  \\    /   O peration     | Version:  dev                                   |
|   \\  /    A nd           | Web:      http://www.openfoam.org               |
|    \\/     M anipulation  |                                                 |
\*---------------------------------------------------------------------------*/
FoamFile
{
    version     2.0;
    format      ascii;
    class       volScalarField;
    object      k_0;
    location    "9.16";
}
// * * * * * * * * * * * * * * * * * * * * * * * * * * * * * * * * * * * * * //

dimensions      [0 2 -2 0 0 0 0];

internalField   nonuniform List<scalar> 
12225
(
9.2285
10.9748
8.13189
8.6576
7.07353
10.2842
9.13027
14.7394
12.2878
21.7806
16.5341
32.5075
24.5488
45.3673
46.6096
53.3601
83.405
100.501
1.81672
5.40074
4.91433
5.51449
4.39829
5.05903
4.09494
4.9975
4.36287
5.52327
5.05432
6.15092
5.8353
6.27573
7.79666
7.28927
7.45523
11.6738
0.149524
1.59669
1.9417
3.07538
2.81742
3.39014
3.01773
3.42734
3.18428
3.21518
3.265
2.86169
2.84056
2.26871
2.35738
1.92365
2.01612
2.35627
0.0102714
0.289558
0.454878
0.848774
0.966198
1.16817
1.45002
1.49962
1.82731
1.66454
1.86975
1.57231
1.52949
1.18007
1.16511
0.973919
1.089
1.17159
0.00106097
0.0490004
0.0875541
0.173
0.294563
0.364833
0.52035
0.57842
0.718059
0.699224
0.749526
0.658125
0.678252
0.562354
0.574908
0.527163
0.729596
0.612001
0.00212923
0.0178201
0.0259094
0.0471943
0.0789032
0.108164
0.16407
0.188329
0.249653
0.242583
0.273426
0.243098
0.271366
0.235263
0.266079
0.238674
0.383847
0.775781
0.00132998
0.00254852
0.00565014
0.00805576
0.0174513
0.0220422
0.0406397
0.0443877
0.0666887
0.0632278
0.0816505
0.0742251
0.0928932
0.0839881
0.102174
0.094857
0.128227
0.395792
0.000607174
0.00102981
0.00207806
0.00265277
0.00551927
0.00660647
0.0124297
0.0131825
0.0203204
0.0194305
0.0263979
0.0250222
0.0338419
0.0329724
0.0419877
0.0434063
0.0734513
0.112642
0.000671915
0.00103407
0.00156182
0.00192023
0.00313577
0.00356713
0.00559344
0.0059348
0.00841804
0.00841543
0.0109983
0.0112324
0.0145811
0.0157363
0.0194239
0.0230789
0.0287415
0.0529621
0.000931276
0.00121338
0.00174042
0.0020745
0.00291915
0.003126
0.00394695
0.00414902
0.00520497
0.00533388
0.00637995
0.00666956
0.00790054
0.00874511
0.0101165
0.0125961
0.0144179
0.0238393
0.00125536
0.00216032
0.00254997
0.00306541
0.00343827
0.00357991
0.00409447
0.00422013
0.00481636
0.00502042
0.00557028
0.00577818
0.00613851
0.00670566
0.00705
0.00850509
0.00907339
0.0119963
0.00245428
0.00366144
0.00415446
0.00475233
0.00502721
0.00507749
0.00521335
0.00515184
0.00529502
0.00528398
0.00546207
0.00556797
0.00571088
0.00610319
0.00615668
0.00680104
0.00714866
0.00830589
0.00528942
0.00593329
0.00629054
0.0066485
0.00677512
0.00667343
0.00660292
0.006304
0.00592378
0.00546002
0.00537431
0.00524913
0.00521429
0.00538275
0.0054149
0.00561721
0.00589965
0.0065212
0.0099695
0.00993496
0.0096373
0.00957635
0.00955689
0.00928677
0.00898472
0.00815103
0.0071993
0.00624337
0.00556259
0.00513425
0.00494183
0.00496321
0.00495769
0.00500282
0.00516018
0.00551329
0.0157702
0.0156492
0.015021
0.0145689
0.0142406
0.0135681
0.0121401
0.0104182
0.00876612
0.00730157
0.00616187
0.00538966
0.0049808
0.00481674
0.00478322
0.00480282
0.00489148
0.00512323
0.0231753
0.0227276
0.0215987
0.0210771
0.0204078
0.0188333
0.01639
0.0137153
0.0110977
0.00882737
0.00705796
0.00580277
0.00508057
0.00476413
0.00468663
0.00469528
0.00478083
0.00505183
0.0308026
0.029319
0.0265855
0.0254067
0.0235499
0.0210712
0.018159
0.0150031
0.0119249
0.00928537
0.00725036
0.00585015
0.00502415
0.00461698
0.00449001
0.00448305
0.00453795
0.00478093
0.0313777
0.0298967
0.0274011
0.0258521
0.0236573
0.0209494
0.017808
0.0144791
0.0113546
0.00875552
0.00679137
0.00546268
0.00463247
0.0042231
0.0040699
0.00403642
0.00406763
0.00425798
0.0260886
0.0251022
0.023165
0.0222305
0.0206444
0.0182446
0.015392
0.0124485
0.00974645
0.0075004
0.00581215
0.00465715
0.00394239
0.00355101
0.0033872
0.00334915
0.00335847
0.00344742
0.0160755
0.0155972
0.0145064
0.0140474
0.0134063
0.0120172
0.0102869
0.00855698
0.00698546
0.00567409
0.00462355
0.00381097
0.00323267
0.00286985
0.00269211
0.00264109
0.0026415
0.0026974
0.00911211
0.00919145
0.00909456
0.00902579
0.00884087
0.0082541
0.00736741
0.00644012
0.00545599
0.00449179
0.00370035
0.00312213
0.00273346
0.00249193
0.00236408
0.0023217
0.0023179
0.00233786
0.00546011
0.0055988
0.0057051
0.00570658
0.0056208
0.00542947
0.00501874
0.00450551
0.00402235
0.0036145
0.00322693
0.00289288
0.0026503
0.00249914
0.00242432
0.00240702
0.00240984
0.00242811
0.00289341
0.00323656
0.00344112
0.0034645
0.00344495
0.00346702
0.00360656
0.00366189
0.00363648
0.00353628
0.00348972
0.00348749
0.00355012
0.00371887
0.00389218
0.00401236
0.0041147
0.00418087
0.00143636
0.00182668
0.00205669
0.00241974
0.00269861
0.00307535
0.00395224
0.00518799
0.00590413
0.00660441
0.00748099
0.00867511
0.010127
0.0116075
0.0128232
0.0135524
0.0140069
0.0141468
0.000646565
0.000872068
0.00140623
0.00251462
0.00438481
0.0076981
0.0139596
0.0207291
0.0248986
0.029248
0.0336003
0.0388207
0.0444674
0.0497627
0.0536163
0.0557036
0.0564124
0.0563907
0.000228425
0.0016154
0.00593221
0.015595
0.0315138
0.0589044
0.0928303
0.121821
0.138182
0.152058
0.163315
0.176221
0.189126
0.200375
0.206235
0.207913
0.207682
0.20538
0.00111936
0.0208689
0.0807794
0.170408
0.278004
0.397205
0.504612
0.577995
0.613842
0.635606
0.646783
0.660178
0.669603
0.671971
0.670722
0.665112
0.650881
0.641071
0.0253734
0.308199
0.840282
1.27445
1.62373
1.83973
1.96016
1.98658
1.98208
1.94647
1.90052
1.86439
1.82358
1.77288
1.72279
1.67389
1.62222
1.58833
0.610379
3.01851
4.1728
4.42179
4.38498
4.23119
3.98924
3.73362
3.53424
3.38634
3.27574
3.16451
3.06049
2.95426
2.85849
2.75324
2.67675
2.5782
6.72196
9.78594
9.08437
7.427
6.39456
5.9256
5.79407
5.83596
5.94289
6.11838
6.26867
6.38134
6.45067
6.47121
6.45368
6.39
6.27287
6.04077
0.0688963
0.0720736
0.0731199
0.0761409
0.0812372
0.089677
0.100895
0.112978
0.12767
0.146501
0.171386
0.203088
0.240515
0.283654
0.336006
0.389167
0.450364
0.524835
0.602306
0.678498
0.758636
0.84435
0.934059
1.02024
1.12813
1.3051
1.47075
1.53073
1.54379
1.55771
1.62621
1.78989
2.05796
2.27949
2.4667
2.80829
3.58712
4.70184
5.75538
6.63432
7.39594
8.09925
8.72903
9.27707
9.74243
10.1123
10.3926
10.5926
10.7344
10.8066
10.8405
10.811
10.7548
10.6501
10.5033
10.2995
10.0785
9.84308
9.55862
9.2423
8.89755
8.54034
8.1536
7.77825
7.41294
7.04483
6.68332
6.3447
6.02569
5.72744
5.43888
5.18317
4.9598
4.73591
4.53899
4.36885
4.2086
4.06732
3.94053
3.84244
3.77386
3.72924
3.69228
3.64898
3.59099
3.53437
3.51034
3.52477
3.59136
3.68772
3.733
3.73805
3.71091
3.69847
3.69305
3.64945
3.59315
3.57935
3.58944
3.59665
3.58228
3.5151
3.41365
3.29216
3.08482
2.76015
2.48233
2.3638
2.43322
2.64909
2.95862
3.11271
3.10402
2.91784
2.43408
2.00322
1.67277
1.46112
1.42903
1.63196
2.30118
3.29842
3.80734
3.93273
3.92114
4.13691
3.94095
2.6463
2.37154
2.0343
1.98038
2.06949
2.32056
2.72649
3.19143
3.78938
4.45641
5.18386
5.90492
6.59586
7.30039
8.08731
8.92541
9.69822
10.3368
10.7988
11.177
11.6647
12.312
13.087
13.877
14.679
15.479
16.1241
17.3892
18.629
19.3792
19.2476
17.9583
15.9723
13.1732
12.0904
12.1588
12.6872
11.2914
10.0302
9.13861
8.02896
9.46875
7.41461
7.31046
8.02627
7.95323
9.54729
11.3089
13.9049
16.8365
20.0578
22.9622
23.7514
0.244632
0.164089
0.137424
0.13045
0.126474
0.120904
0.112678
0.103976
0.0944672
0.086291
0.0811872
0.0777584
0.0757365
0.0762361
0.0809302
0.086779
0.0936867
0.108733
0.126848
0.14125
0.158652
0.182169
0.213936
0.250707
0.289548
0.353608
0.422328
0.470444
0.560524
0.717858
0.872277
1.29803
2.17094
2.65736
2.87435
3.05896
3.24966
3.31931
3.31336
3.14247
2.89741
2.68454
2.43703
2.20068
1.9718
1.77288
1.6086
1.48282
1.38725
1.30776
1.23407
1.17377
1.12271
1.06502
1.01572
0.977384
0.931706
0.903935
0.863275
0.821905
0.782956
0.753902
0.729622
0.709214
0.687482
0.667554
0.658689
0.65496
0.654093
0.655022
0.65509
0.659013
0.667227
0.672303
0.684941
0.695269
0.700636
0.70516
0.706762
0.713204
0.740729
0.799788
0.860914
0.902246
0.911434
0.889164
0.852571
0.847017
0.878634
0.982917
1.1301
1.2041
1.2238
1.24547
1.30078
1.32328
1.31828
1.30108
1.32116
1.37175
1.44404
1.53444
1.59161
1.60404
1.56435
1.3511
1.00131
0.792538
0.745678
0.78585
0.944318
1.13479
1.53145
1.90696
1.85756
1.5175
1.21206
1.14367
1.23826
1.54458
1.85665
1.98726
1.93111
1.84053
1.80779
1.86272
1.71987
1.53306
1.66427
1.73742
1.58398
1.5683
1.57203
1.63575
1.75734
1.9362
2.17538
2.42245
2.71229
3.01825
3.34697
3.71128
4.07829
4.52411
5.10686
5.58844
5.91848
6.1535
6.36069
6.62523
6.89391
7.08555
7.1609
7.13444
7.64646
8.46284
9.21309
9.1437
8.84294
8.55639
7.86584
8.27362
10.4758
11.247
7.94226
7.23818
6.26336
6.1565
6.80255
5.9161
6.63665
6.36006
5.87041
6.31774
6.94815
7.46346
8.31345
9.09777
10.3536
13.3989
0.560672
0.286842
0.232336
0.225952
0.219749
0.200495
0.17167
0.146926
0.125208
0.104506
0.0866171
0.0726194
0.0630306
0.0583491
0.0573742
0.0575623
0.0601069
0.0678101
0.073392
0.0784211
0.0953895
0.121802
0.139847
0.163722
0.228531
0.343278
0.470874
0.699749
1.34784
1.88252
2.05751
2.11816
2.13501
2.1346
2.02218
1.8034
1.61044
1.33983
1.08327
0.915791
0.763184
0.612927
0.500635
0.413686
0.349299
0.300973
0.274167
0.253384
0.238879
0.227603
0.218818
0.210682
0.204873
0.199388
0.194819
0.192292
0.190292
0.189204
0.188243
0.187838
0.187854
0.18903
0.190971
0.191777
0.191881
0.19183
0.192018
0.193346
0.195842
0.198857
0.201677
0.204859
0.208056
0.210979
0.214435
0.215536
0.215822
0.215092
0.214176
0.213502
0.216608
0.226815
0.246187
0.268327
0.275537
0.271394
0.255716
0.249133
0.253373
0.275158
0.336466
0.397447
0.421208
0.433824
0.464652
0.504786
0.521588
0.521499
0.529524
0.549391
0.585244
0.656087
0.795848
0.948924
1.01672
0.987132
0.8129
0.632994
0.597548
0.637683
0.8054
0.999883
1.28891
1.46544
1.42892
1.10038
0.935886
0.924641
1.04062
1.21996
1.30078
1.34601
1.3741
1.52446
1.57641
1.49445
1.34102
1.08939
1.3434
1.33582
1.4317
1.43055
1.35575
1.29432
1.30436
1.39277
1.54405
1.64452
1.7293
1.81891
1.91734
2.01677
2.09732
2.22813
2.45088
2.67653
2.95908
3.25057
3.44989
3.72888
4.05239
4.18382
4.1691
4.01568
4.06035
4.35163
4.76602
4.83137
4.91813
5.25848
5.96202
7.64143
8.51764
7.47925
5.62452
5.30161
5.37475
5.17091
4.96927
4.84382
6.3447
6.0052
5.37515
5.43759
5.9558
6.04711
6.00205
5.86703
5.74117
6.79963
1.04302
0.480507
0.391439
0.360144
0.285836
0.223503
0.183331
0.153188
0.1292
0.107459
0.0883993
0.0734181
0.0636017
0.0607363
0.0623661
0.0664536
0.0811803
0.111898
0.126967
0.140896
0.188754
0.250512
0.311657
0.419132
0.684104
1.10505
1.43749
1.61841
1.64456
1.63774
1.5986
1.46205
1.26674
1.02237
0.830508
0.670459
0.529602
0.432521
0.332503
0.271685
0.226476
0.195899
0.172498
0.161764
0.154912
0.149301
0.146869
0.144835
0.143585
0.141922
0.13995
0.137893
0.136815
0.13641
0.136307
0.13637
0.136944
0.138236
0.140196
0.142858
0.146426
0.150611
0.154609
0.157913
0.160209
0.161651
0.161917
0.161829
0.161415
0.1612
0.161558
0.1626
0.16386
0.166007
0.167747
0.168013
0.167083
0.164684
0.16326
0.161521
0.160489
0.158083
0.155971
0.157697
0.160355
0.158333
0.151557
0.148444
0.149054
0.157935
0.187764
0.221148
0.233851
0.238667
0.247737
0.272673
0.289039
0.291871
0.298049
0.305841
0.315841
0.345219
0.400054
0.491819
0.642397
0.726009
0.704897
0.614635
0.595871
0.683228
0.912904
1.03046
1.14389
1.23868
1.15692
0.888467
0.82945
0.863276
0.966812
1.09315
1.16694
1.16317
1.22426
1.36051
1.3989
1.39261
1.14378
0.816393
0.887585
0.794742
1.02324
1.13888
1.12364
1.05062
1.0049
1.04941
1.23062
1.41032
1.49864
1.55533
1.58627
1.61546
1.65707
1.67239
1.72786
1.82606
1.97954
2.14669
2.31631
2.55197
2.89845
3.15635
3.19189
3.0667
3.03436
3.2229
3.42826
3.6463
3.87442
4.42519
5.44534
6.41356
6.6634
5.67081
5.28388
4.66163
5.01945
4.99101
4.18186
4.45661
5.71736
5.61094
4.97898
4.71386
5.21698
5.47264
5.22309
5.03199
4.28162
4.27556
1.77522
0.813558
0.663807
0.455721
0.300074
0.218703
0.172811
0.142284
0.117321
0.0967344
0.0838587
0.0738758
0.0728818
0.0809137
0.100287
0.128238
0.189731
0.271945
0.315436
0.391666
0.532364
0.672333
0.839493
1.01995
1.14849
1.24953
1.29335
1.29815
1.23042
1.03922
0.836521
0.678696
0.546737
0.438334
0.330596
0.26089
0.214827
0.184348
0.164401
0.148474
0.141507
0.138392
0.137253
0.136915
0.136889
0.137391
0.138027
0.138196
0.138153
0.13773
0.13642
0.1344
0.132819
0.131609
0.131288
0.1313
0.131594
0.132464
0.134162
0.137124
0.141312
0.146198
0.15044
0.15462
0.157986
0.160135
0.160511
0.160129
0.15853
0.155832
0.153947
0.151839
0.151208
0.151005
0.151262
0.152961
0.153104
0.151087
0.149231
0.149928
0.151451
0.150274
0.144842
0.138742
0.135883
0.132444
0.127212
0.125042
0.125885
0.132963
0.160195
0.18428
0.18829
0.186414
0.187226
0.197624
0.21235
0.215243
0.220867
0.22465
0.227236
0.234437
0.251749
0.284665
0.351429
0.422046
0.471085
0.5072
0.551611
0.711046
1.0035
1.06882
1.09192
1.08659
0.906549
0.796319
0.794528
0.851259
0.957336
1.05856
1.136
1.14598
1.10215
1.03719
0.964033
1.03787
0.865419
0.706956
0.65822
0.606585
0.679212
0.775559
0.937301
0.944701
0.898248
0.82192
0.853499
0.980743
1.12544
1.23569
1.33629
1.40065
1.44772
1.47179
1.50413
1.56164
1.63974
1.73332
1.90663
2.14337
2.38878
2.55005
2.5859
2.5352
2.58749
2.78667
2.91609
3.20473
3.49048
3.98952
5.01598
5.5976
5.87065
5.26305
5.01631
4.65006
4.8063
4.8761
4.01095
4.30396
5.05564
4.92437
4.04857
3.26791
3.66122
3.99886
3.88881
3.88999
3.57936
3.24234
2.85727
1.3228
0.82873
0.464091
0.272407
0.175877
0.140439
0.12075
0.101823
0.0914514
0.0851882
0.0902151
0.110375
0.157546
0.230997
0.301779
0.37623
0.452485
0.531723
0.623017
0.716443
0.799188
0.901018
0.985752
1.01304
1.01139
0.939015
0.764055
0.628773
0.531617
0.413018
0.31546
0.254322
0.209377
0.174008
0.148714
0.136912
0.128476
0.124314
0.122317
0.12198
0.122323
0.124419
0.127891
0.130529
0.132645
0.135057
0.136804
0.137784
0.138635
0.138671
0.137963
0.135906
0.133346
0.13261
0.13252
0.132607
0.133097
0.134727
0.138227
0.143129
0.149365
0.154785
0.158933
0.162658
0.164088
0.164367
0.163689
0.160582
0.156794
0.154033
0.149917
0.148079
0.145768
0.143368
0.142583
0.142794
0.142973
0.139799
0.136719
0.137565
0.141853
0.141676
0.137253
0.130215
0.125284
0.12095
0.118554
0.118794
0.123941
0.14319
0.162414
0.169322
0.166349
0.164001
0.169368
0.182198
0.184338
0.188929
0.195962
0.194155
0.189967
0.194499
0.211595
0.240883
0.270236
0.295819
0.341501
0.4316
0.687016
1.03062
1.07104
1.0054
0.899505
0.74633
0.709878
0.762052
0.839845
0.958178
1.09902
1.17973
1.17842
1.07574
0.988637
0.698694
0.627448
0.683639
0.600877
0.584831
0.528647
0.555898
0.599375
0.741559
0.896397
0.852456
0.722206
0.692135
0.737075
0.84958
0.940088
1.02212
1.1107
1.19643
1.23737
1.31771
1.4524
1.52157
1.59346
1.80969
2.09241
2.22873
2.27344
2.22732
2.22175
2.33996
2.57085
2.69297
2.9977
3.25595
3.61328
4.66544
5.25308
5.16645
4.66563
4.09109
4.44593
4.09544
4.73001
4.01124
4.31576
4.15191
4.09087
3.42321
2.70531
2.59976
2.67315
2.68193
2.8283
2.77354
2.64071
4.36545
1.81751
0.838566
0.363268
0.177993
0.139149
0.125385
0.10715
0.0968648
0.0944147
0.106328
0.143263
0.211118
0.287207
0.348385
0.39596
0.44193
0.506794
0.578979
0.656027
0.725551
0.78066
0.795561
0.790287
0.734986
0.617367
0.518853
0.426393
0.327444
0.269659
0.224784
0.177197
0.14885
0.134681
0.123415
0.112306
0.107497
0.105085
0.103806
0.103449
0.103487
0.104476
0.107061
0.110244
0.113308
0.117764
0.123731
0.129594
0.134961
0.140098
0.144152
0.147084
0.147612
0.147257
0.146449
0.146456
0.146587
0.147598
0.14946
0.153305
0.158597
0.164555
0.169718
0.174835
0.177847
0.178557
0.178163
0.175454
0.168191
0.160548
0.154436
0.150408
0.148321
0.145559
0.143696
0.14006
0.139015
0.139066
0.139283
0.13376
0.128101
0.127575
0.130294
0.132107
0.128793
0.122488
0.117438
0.114319
0.113007
0.113156
0.116777
0.12141
0.127072
0.13444
0.138577
0.152647
0.169324
0.169538
0.169058
0.171073
0.169193
0.164424
0.171313
0.194748
0.207071
0.214994
0.229719
0.266291
0.350277
0.622022
1.02281
1.05721
0.903586
0.742916
0.652853
0.650332
0.692896
0.775613
0.901318
1.07081
1.21746
1.29118
1.10985
0.995333
0.622517
0.480062
0.492879
0.455251
0.496213
0.467028
0.501747
0.533218
0.570603
0.700534
0.748224
0.673307
0.604009
0.634478
0.764305
0.836507
0.883904
0.942785
1.04873
1.15591
1.19595
1.32448
1.45097
1.55892
1.78107
2.04812
2.15023
2.1342
2.03379
2.02536
2.16518
2.3723
2.61816
2.84369
3.10424
3.17181
4.05591
4.84996
4.76453
4.1515
3.7846
3.78061
3.11036
4.05625
4.46885
4.38896
3.2567
3.02589
2.79304
2.53038
2.24651
2.14239
2.11907
2.22529
2.34885
2.34897
6.18457
1.97158
0.682041
0.219999
0.146007
0.133492
0.122032
0.103847
0.097456
0.105802
0.147475
0.229001
0.281935
0.321751
0.377558
0.425297
0.467243
0.524651
0.579483
0.620426
0.628151
0.622312
0.584603
0.509873
0.450369
0.372424
0.297942
0.241651
0.19212
0.160939
0.145186
0.126251
0.111794
0.105918
0.101069
0.0966658
0.0952843
0.0947529
0.0946361
0.0947177
0.0953762
0.097126
0.0994693
0.101669
0.103927
0.107433
0.112263
0.118256
0.126129
0.136066
0.146705
0.156264
0.165552
0.172464
0.174248
0.174181
0.171835
0.171032
0.169057
0.166905
0.166356
0.166718
0.170905
0.176833
0.180283
0.182111
0.182402
0.180534
0.172889
0.162553
0.1514
0.144607
0.141776
0.14117
0.141742
0.140147
0.136749
0.133492
0.134324
0.133688
0.127123
0.121328
0.119142
0.119484
0.121094
0.119452
0.114182
0.106459
0.102468
0.101685
0.102967
0.104444
0.107496
0.114932
0.119793
0.126484
0.141554
0.143946
0.145057
0.149943
0.148577
0.147135
0.159222
0.192318
0.200018
0.202391
0.213014
0.241629
0.310382
0.542599
0.995971
1.04143
0.863685
0.648194
0.568428
0.559803
0.547388
0.563154
0.619058
0.771932
1.01945
1.19272
1.1223
0.978153
0.565724
0.437163
0.41327
0.396409
0.40541
0.411977
0.431295
0.502633
0.497627
0.517069
0.541398
0.569033
0.533203
0.582842
0.760708
0.826452
0.854025
0.879456
0.921396
1.03283
1.11799
1.25243
1.40994
1.50922
1.64389
1.77892
1.8518
1.85843
1.86724
1.88127
1.95207
2.09795
2.52559
2.67085
2.92321
2.80554
3.40148
4.39
4.45413
3.84127
3.68678
3.40696
2.65143
3.25519
4.67964
4.20427
2.56239
2.2695
2.32926
2.23818
2.04
1.89452
1.89841
1.96307
2.13761
2.21354
8.01335
1.99235
0.494295
0.178703
0.141858
0.134542
0.12166
0.105649
0.104266
0.130656
0.206223
0.26812
0.29508
0.327257
0.384386
0.432178
0.468283
0.499718
0.504215
0.49943
0.478074
0.433312
0.391717
0.337102
0.28523
0.234153
0.190508
0.155346
0.136787
0.120722
0.113904
0.107246
0.0996669
0.0956628
0.0934843
0.0921295
0.0918031
0.0917342
0.0917886
0.0920631
0.0930974
0.0951577
0.097363
0.0989979
0.101146
0.10435
0.108504
0.114133
0.121398
0.130576
0.141351
0.154026
0.168489
0.183038
0.194956
0.202575
0.204371
0.202762
0.194561
0.184265
0.172551
0.164516
0.160019
0.158663
0.162372
0.16663
0.16976
0.170174
0.167548
0.158452
0.143687
0.133433
0.127183
0.125855
0.127102
0.131678
0.133897
0.130735
0.12718
0.125446
0.122908
0.118862
0.114478
0.112148
0.111162
0.11001
0.106697
0.101124
0.0978193
0.0965663
0.096632
0.0971001
0.0991291
0.10579
0.11026
0.111817
0.117482
0.128514
0.134828
0.141121
0.140535
0.140648
0.156417
0.195113
0.200356
0.202112
0.213086
0.241282
0.291111
0.455625
0.931225
1.02535
0.86786
0.619487
0.525178
0.496629
0.453829
0.437318
0.437226
0.47707
0.573366
0.716369
0.926515
0.777502
0.450451
0.378554
0.362894
0.360718
0.364543
0.37971
0.390797
0.442693
0.441268
0.451983
0.459768
0.488845
0.47039
0.504201
0.750316
0.851714
0.855691
0.876581
0.878001
0.944872
1.03243
1.11795
1.3304
1.46596
1.48384
1.50215
1.54569
1.58798
1.79403
1.81443
1.85042
1.95197
2.28647
2.5673
2.65223
2.70601
2.90503
3.88354
4.09734
3.78997
3.37125
3.16637
2.58948
2.86992
4.21544
3.13669
2.06568
1.85988
2.03496
2.0097
1.93519
1.7709
1.79518
1.86694
2.04455
2.15549
9.68127
1.98435
0.423225
0.166933
0.14443
0.142239
0.126046
0.117005
0.125239
0.172909
0.234679
0.274183
0.296577
0.325483
0.372172
0.406545
0.419643
0.421118
0.412745
0.386722
0.359537
0.316539
0.275428
0.234663
0.197191
0.166303
0.14206
0.121938
0.1133
0.107358
0.102982
0.100501
0.0965909
0.0928151
0.0899638
0.0890472
0.0889613
0.0891514
0.0897746
0.0911041
0.0932
0.0950876
0.0963674
0.0981829
0.100917
0.104189
0.108434
0.114305
0.121655
0.130587
0.140647
0.152375
0.165292
0.180397
0.196376
0.210674
0.220828
0.223183
0.223058
0.217775
0.204665
0.182362
0.158789
0.143046
0.135046
0.133046
0.13435
0.138112
0.142825
0.143112
0.138361
0.128952
0.123408
0.119973
0.118534
0.117557
0.117621
0.11886
0.118387
0.115202
0.112988
0.111096
0.106977
0.104274
0.103735
0.103212
0.100234
0.0939853
0.0917641
0.0918171
0.0928532
0.0937243
0.0955818
0.0969229
0.0977857
0.0997944
0.10722
0.12435
0.133719
0.137157
0.135682
0.134675
0.148676
0.193883
0.202006
0.204163
0.217771
0.246348
0.281751
0.382827
0.797891
0.983128
0.881495
0.622884
0.510191
0.466977
0.413449
0.384508
0.362106
0.360368
0.388271
0.432188
0.520833
0.465273
0.357407
0.328664
0.317303
0.319429
0.338435
0.351705
0.368525
0.415212
0.412019
0.42078
0.435981
0.445826
0.433649
0.439179
0.619636
0.851591
0.856935
0.878804
0.869089
0.871383
0.954524
1.0242
1.17604
1.39023
1.40212
1.38286
1.41631
1.45693
1.70768
1.77505
1.78611
1.80416
2.00047
2.3791
2.4953
2.62885
2.73566
3.37253
3.55863
3.57452
3.20095
2.8016
2.48597
2.68979
3.24129
2.4978
1.87821
1.67621
1.76836
1.84677
1.83052
1.7221
1.73837
1.78633
1.95194
2.09781
11.1828
1.95885
0.370055
0.164589
0.154376
0.153483
0.142299
0.14151
0.161773
0.199665
0.235505
0.267661
0.288613
0.31022
0.331493
0.336811
0.337818
0.334258
0.321483
0.300502
0.271061
0.237369
0.204318
0.177264
0.152871
0.133932
0.120134
0.109319
0.10492
0.102343
0.099843
0.0978334
0.0948293
0.0904684
0.0877486
0.087446
0.0877113
0.0886135
0.0902969
0.0920441
0.0935923
0.0947691
0.0959689
0.0989258
0.102956
0.107232
0.111846
0.118234
0.125827
0.134863
0.144302
0.154408
0.163589
0.174175
0.184858
0.198589
0.21046
0.219036
0.22205
0.222349
0.219353
0.205468
0.178894
0.14903
0.130039
0.122662
0.120409
0.119626
0.119138
0.119973
0.124417
0.125709
0.125216
0.121178
0.118386
0.116715
0.111239
0.107483
0.104836
0.101785
0.0978653
0.0958901
0.0926241
0.0883313
0.0876001
0.0886341
0.0906612
0.0895847
0.0877334
0.0877373
0.0886831
0.0887169
0.0882882
0.0886249
0.0896766
0.0946246
0.103741
0.120668
0.130078
0.130758
0.125645
0.124685
0.137492
0.187587
0.198756
0.20261
0.222369
0.254566
0.277121
0.335471
0.65295
0.915509
0.872932
0.634502
0.496834
0.445217
0.396953
0.356433
0.327746
0.318567
0.321477
0.328555
0.367729
0.355611
0.309104
0.302939
0.290989
0.299584
0.318608
0.32511
0.34308
0.391474
0.392192
0.395869
0.415234
0.41653
0.412306
0.413725
0.488486
0.755754
0.849755
0.871726
0.86579
0.830188
0.873777
0.93126
1.00627
1.18033
1.25813
1.23791
1.26358
1.29944
1.43954
1.74719
1.70631
1.63297
1.73852
2.11995
2.38256
2.56802
2.70565
2.96535
3.07491
3.22431
2.9473
2.51835
2.4079
2.52034
2.76069
2.07559
1.7244
1.57404
1.60502
1.74797
1.81173
1.71832
1.64441
1.67357
1.78957
1.94328
12.3954
1.95573
0.354358
0.164804
0.159384
0.160331
0.156742
0.161144
0.178716
0.201634
0.228351
0.250344
0.264352
0.274888
0.286197
0.289827
0.288205
0.276418
0.260824
0.241332
0.218283
0.190835
0.163861
0.142979
0.128848
0.118421
0.111213
0.105511
0.102527
0.101063
0.0996881
0.0979271
0.0952317
0.0909109
0.0878257
0.0876799
0.0886823
0.0908183
0.0937223
0.0947277
0.0948359
0.0950733
0.0969008
0.100957
0.106953
0.112926
0.118264
0.126468
0.134733
0.144165
0.152566
0.158375
0.163912
0.168146
0.172376
0.175146
0.181294
0.182841
0.180544
0.177811
0.185092
0.190688
0.185175
0.158184
0.132666
0.120342
0.115621
0.113365
0.111231
0.111124
0.114546
0.118575
0.121421
0.121952
0.11754
0.114193
0.109291
0.10454
0.099918
0.0966799
0.0910232
0.0865853
0.082655
0.0791881
0.078478
0.0789574
0.080202
0.0801296
0.0804232
0.0825578
0.0841623
0.0837775
0.0831325
0.0837652
0.0856331
0.0941366
0.101636
0.113065
0.116689
0.114815
0.113234
0.115214
0.135649
0.17802
0.188622
0.195176
0.223294
0.255887
0.269406
0.298991
0.505074
0.846028
0.851687
0.657517
0.495948
0.427244
0.390904
0.333581
0.311574
0.302942
0.296231
0.291499
0.306277
0.296232
0.285054
0.265498
0.263125
0.275999
0.299681
0.312393
0.329193
0.359277
0.37649
0.383977
0.410314
0.411321
0.410182
0.413439
0.456267
0.602619
0.82421
0.820471
0.849169
0.791279
0.786978
0.822732
0.898383
0.991567
1.06593
1.0636
1.06953
1.1294
1.18038
1.51237
1.55412
1.50091
1.52779
1.95356
2.21626
2.46637
2.70172
2.7619
2.74417
2.96963
2.79338
2.3866
2.40768
2.51831
2.54354
1.9428
1.65584
1.53397
1.56154
1.71113
1.81746
1.74151
1.58396
1.57433
1.64063
1.79804
13.5302
2.05757
0.359389
0.166037
0.160015
0.161667
0.159448
0.165986
0.18218
0.196917
0.210257
0.220809
0.229556
0.236109
0.244955
0.247595
0.243582
0.230639
0.216337
0.198737
0.183985
0.165459
0.146924
0.129737
0.118546
0.113497
0.109682
0.106513
0.103605
0.102134
0.100509
0.0987842
0.0962847
0.0926068
0.08868
0.0882096
0.089316
0.0917044
0.0944956
0.0955688
0.0956042
0.0956937
0.0977496
0.103172
0.111852
0.12073
0.128332
0.137978
0.145571
0.152127
0.155628
0.158326
0.162162
0.162799
0.16122
0.155866
0.155931
0.160992
0.160851
0.144859
0.131446
0.129707
0.147171
0.1526
0.136851
0.121395
0.114798
0.111311
0.106729
0.106019
0.11065
0.115218
0.115652
0.115565
0.113832
0.109864
0.102203
0.0958769
0.091103
0.0892733
0.0860704
0.0822925
0.0782994
0.0755933
0.0750149
0.0752194
0.0763621
0.0754359
0.0753213
0.0770635
0.0777286
0.0777659
0.0776257
0.0788876
0.0824291
0.093807
0.0995792
0.102971
0.102905
0.102114
0.10405
0.113666
0.142225
0.175208
0.183076
0.189684
0.222158
0.253552
0.259424
0.274303
0.398028
0.745933
0.817258
0.693696
0.499492
0.423354
0.37786
0.317925
0.305274
0.293972
0.282891
0.27838
0.274471
0.266273
0.252932
0.242465
0.251796
0.270532
0.282454
0.288515
0.300439
0.33985
0.368186
0.373092
0.404911
0.414044
0.415832
0.41486
0.447738
0.544091
0.736479
0.743899
0.823919
0.769431
0.725568
0.754586
0.827883
0.889276
0.933906
0.946918
0.945508
1.00092
1.03684
1.16644
1.34894
1.37404
1.35167
1.87359
1.96658
2.29024
2.68583
2.54569
2.58859
2.8477
2.6628
2.34704
2.3986
2.57216
2.41496
1.83851
1.61115
1.52451
1.55748
1.71063
1.81306
1.7595
1.55347
1.4986
1.52889
1.70454
14.8169
2.29547
0.398659
0.167936
0.15727
0.159634
0.159412
0.166331
0.180392
0.188456
0.196709
0.205768
0.207179
0.204426
0.208586
0.20986
0.20343
0.195914
0.185866
0.168874
0.156979
0.146671
0.134409
0.124691
0.116337
0.112452
0.109908
0.107446
0.104958
0.103394
0.101677
0.0998794
0.0977993
0.0949548
0.0910094
0.0900973
0.0908976
0.0931662
0.0959198
0.098492
0.0995183
0.10093
0.104508
0.111961
0.123763
0.135607
0.145078
0.151066
0.154161
0.155092
0.15527
0.151282
0.144151
0.141182
0.13982
0.129716
0.124723
0.132099
0.142447
0.140986
0.116166
0.104789
0.104131
0.114133
0.122668
0.12149
0.112556
0.10682
0.100093
0.0972808
0.097242
0.10118
0.104987
0.104154
0.101302
0.0996865
0.0954046
0.0879512
0.0832496
0.0801429
0.0781857
0.0773801
0.0742896
0.0730945
0.0729607
0.0734055
0.0747355
0.0734972
0.0733222
0.0742273
0.0744057
0.0741677
0.0739461
0.0752316
0.080433
0.0908171
0.0941243
0.0956177
0.095718
0.0958283
0.0992864
0.118145
0.152369
0.176403
0.182477
0.188997
0.220538
0.244824
0.24419
0.252093
0.33131
0.649129
0.758985
0.696303
0.51754
0.426594
0.361308
0.308421
0.299834
0.2917
0.276732
0.271957
0.258922
0.250637
0.235712
0.225223
0.239097
0.257449
0.264212
0.272641
0.287585
0.341426
0.360579
0.360786
0.39663
0.443923
0.466548
0.433825
0.450011
0.525554
0.639401
0.671324
0.763314
0.761175
0.700032
0.715993
0.777448
0.80926
0.823457
0.835704
0.857032
0.89541
0.929955
0.964154
1.14181
1.23633
1.23775
1.71588
1.78811
2.0214
2.44338
2.30344
2.5451
2.637
2.38568
2.20679
2.42046
2.56941
2.31048
1.78454
1.6135
1.59385
1.61999
1.77633
1.84439
1.78359
1.5259
1.4393
1.45933
1.68332
16.403
2.6925
0.487939
0.171172
0.151432
0.155314
0.156616
0.164573
0.173232
0.175569
0.186123
0.198161
0.198856
0.189756
0.183148
0.180869
0.17208
0.164689
0.160731
0.148746
0.138379
0.133605
0.127633
0.123504
0.11899
0.114351
0.11161
0.109733
0.107977
0.106923
0.105496
0.103788
0.10216
0.101013
0.0996122
0.0984071
0.0990164
0.100258
0.102663
0.106845
0.112827
0.121898
0.129111
0.139348
0.148705
0.154054
0.158034
0.159107
0.157237
0.153971
0.152796
0.148119
0.13023
0.120645
0.120833
0.122497
0.113566
0.112046
0.117249
0.120576
0.114997
0.0972784
0.0944225
0.0963201
0.101159
0.102669
0.102305
0.0947638
0.090184
0.0890323
0.089673
0.0903733
0.0945438
0.0970457
0.0962486
0.0928437
0.0880121
0.0838313
0.0810021
0.0783164
0.0740411
0.0716878
0.0710526
0.0711355
0.0709231
0.071293
0.0729594
0.071956
0.0711174
0.0714598
0.0715162
0.0708193
0.0706489
0.0722522
0.0786698
0.0858359
0.0889795
0.090037
0.0904654
0.091917
0.0976003
0.119709
0.161193
0.181719
0.186751
0.192636
0.215876
0.225533
0.22513
0.231743
0.291947
0.569049
0.702192
0.684963
0.539885
0.438165
0.355762
0.307572
0.298258
0.291158
0.271139
0.26695
0.25474
0.241457
0.225629
0.213037
0.230016
0.248392
0.254062
0.257761
0.284538
0.343388
0.354403
0.346465
0.386226
0.462259
0.491091
0.449308
0.473739
0.536254
0.595919
0.635739
0.726686
0.748657
0.698841
0.712696
0.754067
0.756441
0.75068
0.758728
0.808111
0.834297
0.844832
0.865243
1.04095
1.10959
1.16738
1.44339
1.6183
1.81913
2.18044
2.14074
2.47347
2.31886
2.09236
2.04178
2.43488
2.56773
2.22466
1.7845
1.68945
1.68501
1.73858
1.8645
1.8799
1.76894
1.48699
1.38906
1.42136
1.67641
18.5052
3.32802
0.663172
0.18487
0.140568
0.145905
0.148692
0.153977
0.15983
0.162424
0.168868
0.184865
0.190638
0.185288
0.174785
0.169943
0.161414
0.150744
0.146005
0.138569
0.131099
0.12821
0.125495
0.123905
0.12196
0.119395
0.117185
0.115663
0.114664
0.11375
0.112501
0.110555
0.108692
0.108513
0.109681
0.11237
0.115891
0.120328
0.123859
0.128006
0.132663
0.138586
0.144476
0.1516
0.156189
0.15803
0.158719
0.158443
0.154767
0.143782
0.130208