/*--------------------------------*- C++ -*----------------------------------*\
| =========                 |                                                 |
| \\      /  F ield         | OpenFOAM: The Open Source CFD Toolbox           |
|  \\    /   O peration     | Version:  dev                                   |
|   \\  /    A nd           | Web:      http://www.openfoam.org               |
|    \\/     M anipulation  |                                                 |
\*---------------------------------------------------------------------------*/
FoamFile
{
    version     2.0;
    format      ascii;
    class       volScalarField;
    object      muSgs;
    location    "9.16";
}
// * * * * * * * * * * * * * * * * * * * * * * * * * * * * * * * * * * * * * //

dimensions      [1 -1 -1 0 0 0 0];

internalField   nonuniform List<scalar> 
12225
(
0.000226862
0.000246604
0.000211886
0.000217172
0.000194642
0.000230558
0.000212789
0.000265197
0.000235924
0.000307417
0.00026079
0.000355974
0.000303163
0.000393563
0.000396304
0.000405533
0.000486259
0.000497865
0.000106625
0.000177577
0.000166007
0.000172013
0.00015124
0.000158811
0.000140749
0.000152638
0.00013956
0.000155274
0.000144757
0.00015881
0.000152801
0.000154877
0.00017638
0.000163678
0.00016528
0.000195097
3.24066e-05
0.000100607
0.00010839
0.000133389
0.000125904
0.000134612
0.000125291
0.000130117
0.000123608
0.000121534
0.00012039
0.000111048
0.000109003
9.5187e-05
9.61337e-05
8.40595e-05
8.46533e-05
8.24099e-05
8.98514e-06
4.53028e-05
5.55129e-05
7.41427e-05
7.76081e-05
8.31664e-05
9.10522e-05
9.07578e-05
9.8246e-05
9.22622e-05
9.59134e-05
8.63524e-05
8.42808e-05
7.18353e-05
7.05096e-05
6.24491e-05
6.40826e-05
5.80539e-05
3.08501e-06
1.97579e-05
2.5734e-05
3.5278e-05
4.49484e-05
4.898e-05
5.72351e-05
5.9179e-05
6.48296e-05
6.28398e-05
6.37338e-05
5.85948e-05
5.84796e-05
5.19776e-05
5.17069e-05
4.7449e-05
5.39201e-05
5.05916e-05
4.52095e-06
1.25337e-05
1.47928e-05
1.94207e-05
2.45324e-05
2.80177e-05
3.38566e-05
3.54879e-05
4.01549e-05
3.88919e-05
4.04226e-05
3.73311e-05
3.86495e-05
3.50643e-05
3.65259e-05
3.29869e-05
3.85276e-05
5.68942e-05
3.81601e-06
5.07959e-06
7.30572e-06
8.49418e-06
1.21351e-05
1.33423e-05
1.77121e-05
1.81268e-05
2.18131e-05
2.08613e-05
2.31153e-05
2.1615e-05
2.35647e-05
2.19278e-05
2.36363e-05
2.20157e-05
2.46421e-05
3.9954e-05
2.19157e-06
2.77492e-06
3.88382e-06
4.26408e-06
6.00536e-06
6.43868e-06
8.64825e-06
8.74238e-06
1.06395e-05
1.02201e-05
1.16012e-05
1.10667e-05
1.25168e-05
1.20967e-05
1.33689e-05
1.31797e-05
1.55283e-05
2.03435e-05
2.46498e-06
2.99563e-06
3.60456e-06
3.88109e-06
4.85641e-06
5.08511e-06
6.24667e-06
6.32192e-06
7.38348e-06
7.25052e-06
8.06113e-06
7.99295e-06
8.84358e-06
8.99778e-06
9.72613e-06
1.04259e-05
1.09396e-05
1.44412e-05
3.1514e-06
3.48093e-06
4.08476e-06
4.34614e-06
5.07211e-06
5.15458e-06
5.66685e-06
5.70501e-06
6.25799e-06
6.22943e-06
6.64311e-06
6.6803e-06
7.06834e-06
7.31928e-06
7.59335e-06
8.39318e-06
8.57296e-06
1.07902e-05
3.87257e-06
4.96859e-06
5.30579e-06
5.70002e-06
5.95377e-06
5.94939e-06
6.24061e-06
6.22865e-06
6.50392e-06
6.53134e-06
6.73657e-06
6.75608e-06
6.78588e-06
6.98867e-06
6.96365e-06
7.47018e-06
7.56116e-06
8.31903e-06
5.907e-06
7.01838e-06
7.33482e-06
7.68709e-06
7.77442e-06
7.66152e-06
7.62139e-06
7.44655e-06
7.39898e-06
7.27011e-06
7.22276e-06
7.1843e-06
7.09867e-06
7.22597e-06
7.10659e-06
7.27589e-06
7.31787e-06
7.63306e-06
9.44585e-06
9.66387e-06
9.74999e-06
9.84174e-06
9.76179e-06
9.50695e-06
9.28238e-06
8.92801e-06
8.5153e-06
8.01278e-06
7.7793e-06
7.54857e-06
7.3576e-06
7.32399e-06
7.20638e-06
7.1731e-06
7.19302e-06
7.36787e-06
1.39166e-05
1.35781e-05
1.30908e-05
1.27727e-05
1.25131e-05
1.21267e-05
1.17289e-05
1.10223e-05
1.01932e-05
9.31235e-06
8.61207e-06
8.09531e-06
7.75176e-06
7.60859e-06
7.45547e-06
7.33261e-06
7.27627e-06
7.34441e-06
1.8992e-05
1.84097e-05
1.76912e-05
1.70552e-05
1.6534e-05
1.58769e-05
1.48009e-05
1.3497e-05
1.21813e-05
1.09242e-05
9.8403e-06
8.99818e-06
8.44568e-06
8.11081e-06
7.90966e-06
7.76182e-06
7.66088e-06
7.64565e-06
2.4901e-05
2.40573e-05
2.2993e-05
2.22335e-05
2.14683e-05
2.03145e-05
1.86478e-05
1.68006e-05
1.48738e-05
1.30456e-05
1.14439e-05
1.01482e-05
9.25704e-06
8.73537e-06
8.46439e-06
8.29581e-06
8.18459e-06
8.18795e-06
3.11125e-05
2.96907e-05
2.76705e-05
2.65059e-05
2.50818e-05
2.33312e-05
2.13165e-05
1.9076e-05
1.67359e-05
1.45174e-05
1.25753e-05
1.10416e-05
9.97231e-06
9.3122e-06
8.95839e-06
8.75833e-06
8.61339e-06
8.59634e-06
3.18354e-05
3.02735e-05
2.83733e-05
2.70119e-05
2.53703e-05
2.34753e-05
2.1305e-05
1.89092e-05
1.64788e-05
1.42143e-05
1.22729e-05
1.07599e-05
9.6588e-06
8.97899e-06
8.59345e-06
8.36519e-06
8.20777e-06
8.16757e-06
2.7503e-05
2.63387e-05
2.47797e-05
2.37844e-05
2.25016e-05
2.07959e-05
1.87737e-05
1.66053e-05
1.44459e-05
1.24418e-05
1.07357e-05
9.38998e-06
8.4242e-06
7.78693e-06
7.41279e-06
7.20019e-06
7.05402e-06
6.97138e-06
2.05002e-05
1.97278e-05
1.86318e-05
1.79475e-05
1.71974e-05
1.59976e-05
1.45258e-05
1.3004e-05
1.15287e-05
1.01939e-05
9.02038e-06
8.0175e-06
7.2143e-06
6.6271e-06
6.25301e-06
6.04296e-06
5.9127e-06
5.82966e-06
1.46956e-05
1.43405e-05
1.3939e-05
1.3595e-05
1.31926e-05
1.25293e-05
1.16057e-05
1.0641e-05
9.615e-06
8.56251e-06
7.61157e-06
6.83491e-06
6.24343e-06
5.8154e-06
5.5268e-06
5.34867e-06
5.22947e-06
5.13591e-06
1.07312e-05
1.05961e-05
1.04609e-05
1.02346e-05
9.94748e-06
9.58234e-06
9.04393e-06
8.40182e-06
7.77455e-06
7.21439e-06
6.67543e-06
6.18378e-06
5.78233e-06
5.48292e-06
5.27187e-06
5.13466e-06
5.03006e-06
4.93924e-06
7.32537e-06
7.66219e-06
7.72028e-06
7.56032e-06
7.36136e-06
7.20226e-06
7.16322e-06
7.07285e-06
6.90905e-06
6.67988e-06
6.48228e-06
6.33116e-06
6.23098e-06
6.22602e-06
6.2407e-06
6.21279e-06
6.16825e-06
6.09261e-06
4.92183e-06
5.46165e-06
5.64799e-06
5.95853e-06
6.12922e-06
6.35137e-06
6.95042e-06
7.79421e-06
8.16004e-06
8.43738e-06
8.76841e-06
9.22565e-06
9.76108e-06
1.02615e-05
1.06121e-05
1.07287e-05
1.07207e-05
1.05715e-05
3.18009e-06
3.55755e-06
4.32475e-06
5.57237e-06
7.09936e-06
9.08369e-06
1.20088e-05
1.45037e-05
1.56615e-05
1.66484e-05
1.74841e-05
1.84103e-05
1.93338e-05
2.01042e-05
2.05316e-05
2.05848e-05
2.03536e-05
1.99594e-05
1.78531e-06
4.36322e-06
7.95829e-06
1.26446e-05
1.76242e-05
2.37201e-05
2.94476e-05
3.33751e-05
3.5008e-05
3.60582e-05
3.66418e-05
3.73022e-05
3.79036e-05
3.83195e-05
3.82067e-05
3.76683e-05
3.69263e-05
3.60377e-05
3.36713e-06
1.42237e-05
2.77363e-05
3.999e-05
5.02368e-05
5.90887e-05
6.56143e-05
6.91832e-05
7.01048e-05
7.00399e-05
6.92939e-05
6.86358e-05
6.78159e-05
6.66456e-05
6.53015e-05
6.38059e-05
6.19107e-05
6.02067e-05
1.5063e-05
5.26564e-05
8.65207e-05
0.000104689
0.000116149
0.000121562
0.000123359
0.000122002
0.000119569
0.000116368
0.000112714
0.000109438
0.000106139
0.000102617
9.91522e-05
9.58002e-05
9.23895e-05
8.9597e-05
7.23735e-05
0.000160093
0.000184823
0.000186845
0.0001826
0.000176095
0.000167693
0.000159039
0.000151577
0.000145326
0.000140045
0.000134905
0.000130028
0.000125194
0.00012068
0.000116041
0.000112088
0.000107948
0.000233831
0.000279002
0.000265817
0.000238234
0.000218424
0.000207301
0.000201694
0.000198798
0.000196849
0.00019582
0.000194235
0.000191955
0.000188968
0.000185248
0.000181047
0.00017634
0.000171017
0.000164513
2.35611e-05
2.45651e-05
2.5061e-05
2.5809e-05
2.68365e-05
2.83284e-05
3.01517e-05
3.1995e-05
3.40854e-05
3.6588e-05
3.96535e-05
4.32484e-05
4.71556e-05
5.13145e-05
5.59364e-05
6.03198e-05
6.50116e-05
7.02537e-05
7.53358e-05
8.00758e-05
8.48165e-05
8.96333e-05
9.44408e-05
9.89001e-05
0.000104156
0.000111967
0.000118565
0.000121037
0.000122089
0.000123073
0.00012586
0.000132386
0.000142502
0.000150305
0.00015606
0.000165921
0.000187994
0.000216896
0.000241594
0.000260408
0.000275783
0.000289378
0.000301144
0.000311155
0.000319551
0.000326236
0.000331431
0.0003354
0.000338406
0.000340343
0.000341613
0.000342036
0.000341979
0.000341134
0.000339548
0.00033702
0.000334231
0.000331072
0.000326977
0.000322255
0.000316945
0.000311246
0.000304822
0.000298419
0.00029198
0.000285246
0.000278446
0.000271916
0.000265586
0.000259496
0.000253422
0.000247957
0.000243065
0.000237987
0.000233513
0.000229615
0.000225869
0.000222583
0.000219648
0.000217497
0.0002162
0.000215574
0.000215078
0.000214372
0.000213218
0.000212038
0.000211933
0.000212893
0.000215589
0.000219199
0.000221422
0.000222692
0.000223019
0.000223859
0.000224895
0.000224868
0.000224503
0.000225405
0.000226951
0.000228477
0.000229296
0.000228585
0.000227173
0.000225425
0.000220773
0.000211306
0.00020256
0.000199283
0.00020297
0.000211994
0.000223514
0.00022925
0.000227764
0.000220138
0.000201264
0.000184438
0.000171324
0.000161279
0.000160315
0.00017234
0.000205493
0.000249099
0.00027312
0.000278041
0.000276823
0.000286887
0.000278775
0.000224921
0.000216855
0.000202522
0.000199617
0.000204037
0.000215971
0.000233235
0.000251255
0.000272319
0.000293753
0.000315776
0.000336409
0.000355082
0.000372871
0.00039171
0.000411392
0.000429461
0.000445109
0.000458033
0.000469565
0.000483582
0.000500671
0.000519934
0.000539907
0.00055975
0.000579274
0.000593744
0.00061406
0.000635106
0.00064254
0.00064524
0.000623602
0.000582692
0.000534533
0.000515723
0.000508893
0.000513495
0.00050087
0.000479308
0.000465132
0.000437763
0.000484018
0.00043355
0.000430347
0.000451604
0.0004574
0.000503988
0.000554815
0.000616208
0.000676709
0.000736107
0.00078988
0.000817331
4.44841e-05
3.71312e-05
3.448e-05
3.39338e-05
3.36796e-05
3.3189e-05
3.22067e-05
3.10838e-05
2.97643e-05
2.85623e-05
2.78095e-05
2.73031e-05
2.702e-05
2.72093e-05
2.81255e-05
2.92223e-05
3.04753e-05
3.28986e-05
3.5625e-05
3.77197e-05
4.01356e-05
4.31348e-05
4.67981e-05
5.08343e-05
5.47303e-05
6.0377e-05
6.57105e-05
6.93695e-05
7.67359e-05
8.72467e-05
9.47423e-05
0.000115059
0.000147945
0.000162523
0.000168861
0.000174215
0.000179581
0.000181826
0.000181797
0.000176867
0.000170041
0.000163876
0.00015623
0.000148657
0.000140952
0.000133966
0.000127965
0.000123233
0.000119505
0.000116247
0.000113082
0.000110528
0.000108231
0.000105534
0.000103316
0.000101486
9.92875e-05
9.79776e-05
9.57777e-05
9.3632e-05
9.16078e-05
9.01159e-05
8.88107e-05
8.77229e-05
8.65039e-05
8.55598e-05
8.53089e-05
8.53465e-05
8.55628e-05
8.58993e-05
8.61329e-05
8.67133e-05
8.75438e-05
8.81356e-05
8.92879e-05
9.02324e-05
9.0893e-05
9.15591e-05
9.20463e-05
9.30094e-05
9.56075e-05
0.000100182
0.000104618
0.000107702
0.000108701
0.000107317
0.000105355
0.000105202
0.000107905
0.000115366
0.000124818
0.000129984
0.000131978
0.000134121
0.000138081
0.000140383
0.000141107
0.000141231
0.000143359
0.000146853
0.00015232
0.000158739
0.000162333
0.000163129
0.000163249
0.00015539
0.00013594
0.000120956
0.000116779
0.000120247
0.000132132
0.000145249
0.000165966
0.000182328
0.000182782
0.00016804
0.000149964
0.000146569
0.00015427
0.000173212
0.000192306
0.00020202
0.000200437
0.000194211
0.000191675
0.000191239
0.000175641
0.000163304
0.000177806
0.000184049
0.000180881
0.000181529
0.000184292
0.000187723
0.000194499
0.000203361
0.00021545
0.000227346
0.000240332
0.000253765
0.00026825
0.000283272
0.000298693
0.000316984
0.000335914
0.00034954
0.000360416
0.000369315
0.00037829
0.000390381
0.000404486
0.000418218
0.000428364
0.000435041
0.000452434
0.00048293
0.000496952
0.000498715
0.000502101
0.000484146
0.000466461
0.000468903
0.000507254
0.000512235
0.000459467
0.000436338
0.000426328
0.000418457
0.000448297
0.000418751
0.000442149
0.000449483
0.000449271
0.00046433
0.000488012
0.000508993
0.000520464
0.000535703
0.000566662
0.000626758
6.70511e-05
4.85513e-05
4.41444e-05
4.38065e-05
4.34474e-05
4.16638e-05
3.87671e-05
3.60882e-05
3.35238e-05
3.08275e-05
2.82461e-05
2.60071e-05
2.43627e-05
2.35994e-05
2.35857e-05
2.37538e-05
2.44215e-05
2.60567e-05
2.72419e-05
2.83571e-05
3.14223e-05
3.55626e-05
3.8158e-05
4.13952e-05
4.91523e-05
6.05385e-05
7.0685e-05
8.61967e-05
0.000118318
0.000136511
0.000141386
0.000142942
0.000143249
0.000143483
0.000139178
0.000131476
0.00012422
0.000112679
0.0001019
9.41223e-05
8.58419e-05
7.70168e-05
6.98584e-05
6.37134e-05
5.87625e-05
5.48458e-05
5.26093e-05
5.0711e-05
4.93914e-05
4.8333e-05
4.74871e-05
4.67045e-05
4.61639e-05
4.56395e-05
4.52455e-05
4.50704e-05
4.4951e-05
4.49105e-05
4.48885e-05
4.49479e-05
4.50535e-05
4.53059e-05
4.562e-05
4.57772e-05
4.58775e-05
4.59759e-05
4.61117e-05
4.63901e-05
4.68025e-05
4.72652e-05
4.77122e-05
4.81989e-05
4.86773e-05
4.91213e-05
4.95803e-05
4.97923e-05
4.99292e-05
4.99923e-05
5.00293e-05
5.01438e-05
5.07946e-05
5.24598e-05
5.51421e-05
5.80062e-05
5.9139e-05
5.8773e-05
5.70607e-05
5.62965e-05
5.66557e-05
5.96923e-05
6.71783e-05
7.40739e-05
7.6669e-05
7.82355e-05
8.19289e-05
8.66163e-05
8.88722e-05
8.8637e-05
8.99357e-05
9.26107e-05
9.60539e-05
0.000102218
0.000114464
0.000126778
0.000131886
0.000131185
0.000119788
0.000105065
0.000101564
0.000105228
0.00011908
0.000133892
0.000152445
0.000163068
0.000162427
0.000142975
0.000134171
0.000135256
0.000142922
0.000155183
0.000163182
0.000167223
0.000166748
0.000174254
0.000175711
0.000168115
0.000152088
0.000139465
0.000153832
0.000151811
0.000161738
0.000162279
0.000160859
0.000156978
0.000158039
0.000163363
0.000173903
0.000182027
0.00018777
0.000191255
0.000195576
0.000201423
0.000208285
0.000219583
0.000234396
0.000247745
0.000261781
0.000274106
0.000283467
0.000297615
0.000312895
0.00032281
0.000328202
0.000325339
0.000334026
0.000356646
0.000375509
0.000381358
0.000400136
0.000406283
0.000418621
0.000447645
0.000459077
0.0004417
0.00040136
0.000378025
0.000398063
0.00036975
0.000383514
0.000392373
0.000408409
0.000430698
0.000429483
0.000436543
0.000458317
0.000463621
0.000467181
0.000443365
0.000428159
0.000454214
9.12025e-05
6.25456e-05
5.6992e-05
5.49906e-05
4.91464e-05
4.37658e-05
3.99178e-05
3.67308e-05
3.3959e-05
3.11503e-05
2.83759e-05
2.59736e-05
2.4335e-05
2.40481e-05
2.46256e-05
2.56001e-05
2.85413e-05
3.36538e-05
3.5984e-05
3.80156e-05
4.39873e-05
5.06371e-05
5.61556e-05
6.52175e-05
8.39331e-05
0.000105907
0.000118959
0.000123893
0.000124227
0.000124147
0.000122613
0.000117153
0.000109017
9.77353e-05
8.85437e-05
7.97712e-05
7.12273e-05
6.44309e-05
5.6539e-05
5.14994e-05
4.72115e-05
4.40497e-05
4.16043e-05
4.04983e-05
3.97196e-05
3.91272e-05
3.89132e-05
3.87207e-05
3.86135e-05
3.84433e-05
3.82368e-05
3.80316e-05
3.79795e-05
3.79966e-05
3.80542e-05
3.81234e-05
3.82897e-05
3.85482e-05
3.88889e-05
3.93403e-05
3.99123e-05
4.05507e-05
4.11488e-05
4.16497e-05
4.20273e-05
4.22793e-05
4.24066e-05
4.24928e-05
4.25465e-05
4.26401e-05
4.28045e-05
4.30783e-05
4.33866e-05
4.37952e-05
4.40788e-05
4.41811e-05
4.41256e-05
4.39016e-05
4.38378e-05
4.37329e-05
4.36767e-05
4.34449e-05
4.33926e-05
4.3909e-05
4.4495e-05
4.44928e-05
4.38188e-05
4.36342e-05
4.36742e-05
4.5088e-05
4.98507e-05
5.48965e-05
5.65125e-05
5.66778e-05
5.80006e-05
6.21415e-05
6.4916e-05
6.47284e-05
6.57099e-05
6.74233e-05
6.83148e-05
7.12804e-05
7.79109e-05
8.81383e-05
0.000103693
0.000112946
0.000111429
0.000104143
0.000103412
0.000110466
0.000127128
0.000136129
0.000144794
0.000151765
0.000147696
0.000129967
0.000126433
0.000129456
0.000137756
0.000146726
0.000150786
0.00015115
0.000155073
0.000161097
0.000161236
0.000160194
0.000144189
0.000125927
0.00013147
0.000122714
0.00013957
0.000146206
0.000145579
0.000139408
0.000135179
0.000137006
0.000148555
0.000161554
0.000171013
0.000176875
0.000177852
0.000176862
0.000177852
0.000181785
0.000190687
0.000201559
0.000213274
0.000223334
0.000232157
0.000245474
0.000264667
0.000279473
0.000282906
0.000271679
0.000275875
0.00029596
0.000320719
0.000337414
0.000358222
0.000377766
0.000394186
0.000412338
0.000427955
0.000407447
0.000411334
0.000379203
0.000392826
0.000378227
0.000356434
0.000386998
0.000404356
0.000410463
0.000404675
0.000362922
0.000403104
0.000415907
0.000418167
0.000416785
0.000376644
0.000370313
0.000118811
8.10753e-05
7.37983e-05
6.13226e-05
5.03336e-05
4.3385e-05
3.8862e-05
3.55259e-05
3.24901e-05
2.96603e-05
2.77109e-05
2.61447e-05
2.62258e-05
2.80042e-05
3.15444e-05
3.58117e-05
4.33134e-05
5.13313e-05
5.50336e-05
6.10423e-05
7.13034e-05
8.06439e-05
9.01855e-05
9.9032e-05
0.000104308
0.000107838
0.000109413
0.00010987
0.000106756
9.7836e-05
8.80766e-05
7.97612e-05
7.17705e-05
6.41593e-05
5.57533e-05
4.98864e-05
4.54898e-05
4.23532e-05
4.01021e-05
3.83298e-05
3.7631e-05
3.73728e-05
3.73237e-05
3.73629e-05
3.74479e-05
3.75977e-05
3.77303e-05
3.781e-05
3.78595e-05
3.78407e-05
3.76882e-05
3.74564e-05
3.73011e-05
3.7204e-05
3.72226e-05
3.72618e-05
3.73519e-05
3.75256e-05
3.7836e-05
3.83131e-05
3.8953e-05
3.96601e-05
4.02813e-05
4.08949e-05
4.14148e-05
4.17422e-05
4.18948e-05
4.1961e-05
4.18577e-05
4.16142e-05
4.14653e-05
4.13425e-05
4.14043e-05
4.15405e-05
4.17545e-05
4.21287e-05
4.22604e-05
4.20517e-05
4.19774e-05
4.22308e-05
4.26008e-05
4.25635e-05
4.19048e-05
4.11848e-05
4.08071e-05
4.02663e-05
3.95806e-05
3.9576e-05
4.01313e-05
4.15721e-05
4.60983e-05
4.9598e-05
5.02076e-05
4.98828e-05
4.97577e-05
5.15167e-05
5.40431e-05
5.40779e-05
5.4825e-05
5.64754e-05
5.69511e-05
5.76081e-05
6.05248e-05
6.4871e-05
7.35211e-05
8.33961e-05
9.02102e-05
9.45707e-05
9.87804e-05
0.00011185
0.000133211
0.0001386
0.000141776
0.00014246
0.000130481
0.000121055
0.000121157
0.000127936
0.000137972
0.000146224
0.000149262
0.000147171
0.000144921
0.000141914
0.000136093
0.000142374
0.000130863
0.000113361
0.000109131
0.000102704
0.000111154
0.000120873
0.000135625
0.000136684
0.000132501
0.000124254
0.000125568
0.000134889
0.000145598
0.000154531
0.000162698
0.0001665
0.000166139
0.000166317
0.00017249
0.00018247
0.000191572
0.000198425
0.000208481
0.000222558
0.000236445
0.000247516
0.000254668
0.00024568
0.000245172
0.000260155
0.000290321
0.000317274
0.000337122
0.00035831
0.000377308
0.000385172
0.000418905
0.000407838
0.000373195
0.000406934
0.000377609
0.000392472
0.00037681
0.000366255
0.000376908
0.000376621
0.000361436
0.000291984
0.000299418
0.000322427
0.000328473
0.000348477
0.000337359
0.000319998
0.000150626
0.000102998
8.17269e-05
6.19175e-05
4.78801e-05
3.8922e-05
3.51477e-05
3.28247e-05
3.03613e-05
2.88819e-05
2.80241e-05
2.92007e-05
3.265e-05
3.9095e-05
4.68679e-05
5.30669e-05
5.83617e-05
6.36765e-05
6.96901e-05
7.58815e-05
8.17141e-05
8.65196e-05
9.13485e-05
9.49135e-05
9.60975e-05
9.61476e-05
9.24314e-05
8.34262e-05
7.62417e-05
7.00763e-05
6.14855e-05
5.39601e-05
4.87058e-05
4.43114e-05
4.04955e-05
3.77719e-05
3.65222e-05
3.55872e-05
3.5213e-05
3.51377e-05
3.52332e-05
3.5414e-05
3.58554e-05
3.64345e-05
3.68571e-05
3.72291e-05
3.76255e-05
3.79176e-05
3.81125e-05
3.82723e-05
3.83255e-05
3.82459e-05
3.79765e-05
3.77081e-05
3.76811e-05
3.7694e-05
3.7737e-05
3.7841e-05
3.81163e-05
3.8661e-05
3.93849e-05
4.02439e-05
4.09812e-05
4.15482e-05
4.20501e-05
4.22634e-05
4.23775e-05
4.23964e-05
4.21222e-05
4.17505e-05
4.14851e-05
4.10602e-05
4.09249e-05
4.06848e-05
4.04745e-05
4.05425e-05
4.06981e-05
4.08642e-05
4.04337e-05
4.02012e-05
4.05218e-05
4.14145e-05
4.159e-05
4.11421e-05
4.02865e-05
3.95166e-05
3.87516e-05
3.84646e-05
3.87978e-05
3.99595e-05
4.32841e-05
4.62181e-05
4.70534e-05
4.69376e-05
4.68585e-05
4.74487e-05
4.93039e-05
4.97406e-05
5.04306e-05
5.21531e-05
5.1915e-05
5.09379e-05
5.27959e-05
5.62459e-05
6.05716e-05
6.50902e-05
6.9286e-05
7.5277e-05
8.63476e-05
0.000109621
0.000134921
0.000138121
0.000135678
0.000129434
0.000116913
0.000112666
0.000117897
0.000125084
0.000134195
0.000146466
0.000151958
0.000151441
0.000144599
0.000134671
0.000110213
0.000107155
0.000114844
0.000104636
0.000104334
9.87329e-05
9.95768e-05
0.000102818
0.000115236
0.000128712
0.000128051
0.00011623
0.000111381
0.000116309
0.000127029
0.000135791
0.000142852
0.000150039
0.000155389
0.00015521
0.000159674
0.000172035
0.000182312
0.000189956
0.000203538
0.000220554
0.000227228
0.00023062
0.000236537
0.000234302
0.000232083
0.000241002
0.000272219
0.000306331
0.000320818
0.000343643
0.000366015
0.000379427
0.00039317
0.000374559
0.000330967
0.000387297
0.000327165
0.000367507
0.000392483
0.000357075
0.000311836
0.000331323
0.000318466
0.000278967
0.000253882
0.000248985
0.000251187
0.000274114
0.000280259
0.000274684
0.000186036
0.000119919
8.24431e-05
5.46828e-05
3.88579e-05
3.49875e-05
3.34914e-05
3.10805e-05
2.96159e-05
2.93135e-05
3.1495e-05
3.67656e-05
4.41565e-05
5.05027e-05
5.52344e-05
5.90775e-05
6.26988e-05
6.76402e-05
7.24679e-05
7.68181e-05
8.05694e-05
8.32073e-05
8.39779e-05
8.40562e-05
8.10697e-05
7.45004e-05
6.86889e-05
6.21576e-05
5.45714e-05
4.98475e-05
4.54283e-05
4.04286e-05
3.74927e-05
3.5966e-05
3.45883e-05
3.32366e-05
3.27577e-05
3.25365e-05
3.24475e-05
3.24542e-05
3.251e-05
3.2734e-05
3.31999e-05
3.37425e-05
3.42791e-05
3.50525e-05
3.59979e-05
3.68755e-05
3.76716e-05
3.84177e-05
3.90009e-05
3.93705e-05
3.94608e-05
3.9444e-05
3.9408e-05
3.94581e-05
3.95177e-05
3.97102e-05
4.00155e-05
4.05843e-05
4.13255e-05
4.21111e-05
4.2807e-05
4.34838e-05
4.38522e-05
4.39707e-05
4.39346e-05
4.35904e-05
4.27511e-05
4.18858e-05
4.12719e-05
4.09083e-05
4.08108e-05
4.05901e-05
4.04592e-05
4.00505e-05
3.99739e-05
4.02271e-05
4.02225e-05
3.94397e-05
3.8624e-05
3.8867e-05
3.96453e-05
4.01846e-05
3.98742e-05
3.90768e-05
3.82536e-05
3.77556e-05
3.77843e-05
3.81347e-05
3.90845e-05
4.02118e-05
4.13251e-05
4.26256e-05
4.36574e-05
4.56276e-05
4.75702e-05
4.7496e-05
4.74584e-05
4.85891e-05
4.89801e-05
4.78206e-05
4.89565e-05
5.31559e-05
5.5795e-05
5.74889e-05
6.01547e-05
6.54473e-05
7.6893e-05
0.000104273
0.00013415
0.000136481
0.000127694
0.000117294
0.000109195
0.000107985
0.000112848
0.000119104
0.000128409
0.000142225
0.000152419
0.000158754
0.00014991
0.000141198
0.000107261
9.44961e-05
9.38296e-05
9.00297e-05
9.29069e-05
9.13922e-05
9.59107e-05
9.98092e-05
0.000101182
0.000112279
0.000118293
0.000114458
0.00010572
0.000107033
0.000117726
0.000125164
0.000131357
0.000137991
0.000147191
0.00015314
0.000154283
0.000162047
0.000174843
0.000187412
0.000198867
0.000210445
0.000213427
0.000216056
0.000224841
0.000228856
0.000225426
0.000225781
0.00026388
0.000298611
0.000309014
0.000320429
0.000349414
0.000362494
0.000376501
0.000344718
0.000326595
0.000347489
0.000282188
0.000320836
0.000415216
0.000347793
0.000270458
0.000273507
0.000275972
0.000260999
0.000240313
0.000227521
0.000228167
0.000239232
0.00025199
0.000252117
0.000221048
0.000124873
7.4163e-05
4.27786e-05
3.54121e-05
3.42106e-05
3.29506e-05
3.0526e-05
2.9587e-05
3.10299e-05
3.68758e-05
4.53797e-05
4.94536e-05
5.25698e-05
5.69342e-05
6.05654e-05
6.37772e-05
6.78099e-05
7.13892e-05
7.37042e-05
7.43721e-05
7.43458e-05
7.21563e-05
6.76428e-05
6.37746e-05
5.78906e-05
5.186e-05
4.67493e-05
4.17524e-05
3.85797e-05
3.68446e-05
3.44279e-05
3.27799e-05
3.2134e-05
3.14687e-05
3.09129e-05
3.0761e-05
3.06936e-05
3.06864e-05
3.07244e-05
3.08905e-05
3.12725e-05
3.17295e-05
3.21898e-05
3.26627e-05
3.33242e-05
3.41923e-05
3.52255e-05
3.65031e-05
3.801e-05
3.95042e-05
4.08138e-05
4.20557e-05
4.28234e-05
4.30253e-05
4.30466e-05
4.28022e-05
4.27652e-05
4.25715e-05
4.23878e-05
4.24109e-05
4.25782e-05
4.32421e-05
4.40299e-05
4.44936e-05
4.47578e-05
4.48188e-05
4.45471e-05
4.35231e-05
4.21362e-05
4.07478e-05
3.99463e-05
3.97059e-05
3.97769e-05
4.00779e-05
3.9991e-05
3.95795e-05
3.93632e-05
3.96313e-05
3.99035e-05
3.87639e-05
3.79578e-05
3.77358e-05
3.80665e-05
3.86621e-05
3.86515e-05
3.78737e-05
3.64521e-05
3.58568e-05
3.59796e-05
3.66388e-05
3.73116e-05
3.8105e-05
3.94974e-05
4.05034e-05
4.16814e-05
4.37596e-05
4.40214e-05
4.39822e-05
4.47981e-05
4.54265e-05
4.59128e-05
4.80721e-05
5.30635e-05
5.44917e-05
5.5241e-05
5.7452e-05
6.15592e-05
7.15439e-05
9.7066e-05
0.000132483
0.000134559
0.000123689
0.000108975
0.000101726
9.98266e-05
9.99743e-05
0.000101516
0.00010795
0.000121774
0.000139759
0.000150683
0.000146973
0.000136157
0.000103592
9.2719e-05
8.84255e-05
8.58923e-05
8.68532e-05
8.53644e-05
8.62829e-05
9.46767e-05
9.49465e-05
9.61824e-05
9.88615e-05
0.000103615
0.000100732
0.000104427
0.000119567
0.000124181
0.000127008
0.000129371
0.000134249
0.00014255
0.000149964
0.000158385
0.000169745
0.000182832
0.000188628
0.000188921
0.000189976
0.000194151
0.000208884
0.000221226
0.000217988
0.000208896
0.000251363
0.000289178
0.000293144
0.00029671
0.000328508
0.000347457
0.000354468
0.000328064
0.000323449
0.000320447
0.000270542
0.000277936
0.000399085
0.000314195
0.000236892
0.000231159
0.000241018
0.000237711
0.000232853
0.000221214
0.000226901
0.000230431
0.000241807
0.000244212
0.000250762
0.000125692
6.3258e-05
3.86247e-05
3.47389e-05
3.42085e-05
3.27134e-05
3.07121e-05
3.06e-05
3.44747e-05
4.30959e-05
4.79243e-05
4.96603e-05
5.26256e-05
5.72075e-05
6.07794e-05
6.37923e-05
6.58923e-05
6.61949e-05
6.60383e-05
6.46589e-05
6.16607e-05
5.87616e-05
5.45445e-05
5.03125e-05
4.56048e-05
4.12658e-05
3.74702e-05
3.53927e-05
3.35673e-05
3.28563e-05
3.19968e-05
3.09784e-05
3.04925e-05
3.02123e-05
3.00443e-05
3.00267e-05
3.0062e-05
3.01333e-05
3.02911e-05
3.06034e-05
3.10917e-05
3.15641e-05
3.19108e-05
3.23402e-05
3.29381e-05
3.36763e-05
3.46581e-05
3.58614e-05
3.72991e-05
3.89003e-05
4.07121e-05
4.26757e-05
4.45242e-05
4.59709e-05
4.67822e-05
4.69884e-05
4.67369e-05
4.5724e-05
4.44916e-05
4.30835e-05
4.21299e-05
4.16626e-05
4.16108e-05
4.21929e-05
4.28649e-05
4.32898e-05
4.3461e-05
4.31376e-05
4.19235e-05
3.99529e-05
3.85934e-05
3.78378e-05
3.76716e-05
3.79532e-05
3.87371e-05
3.91057e-05
3.86832e-05
3.80424e-05
3.82032e-05
3.79596e-05
3.76269e-05
3.69824e-05
3.66252e-05
3.66864e-05
3.6857e-05
3.66196e-05
3.57155e-05
3.51071e-05
3.49782e-05
3.52384e-05
3.57466e-05
3.63319e-05
3.77312e-05
3.84707e-05
3.85804e-05
3.91936e-05
4.10631e-05
4.24437e-05
4.36228e-05
4.39325e-05
4.46138e-05
4.77541e-05
5.36648e-05
5.47495e-05
5.55234e-05
5.77461e-05
6.15994e-05
6.86477e-05
8.88586e-05
0.00012847
0.00013382
0.000123198
0.000106229
9.75667e-05
9.34333e-05
9.00746e-05
8.80832e-05
8.9539e-05
9.41591e-05
0.000105447
0.000119396
0.000132406
0.000120932
9.0758e-05
8.16269e-05
8.21457e-05
8.08123e-05
8.15868e-05
8.31581e-05
8.46013e-05
8.9388e-05
9.04373e-05
9.18476e-05
9.3911e-05
9.63412e-05
9.47148e-05
9.60775e-05
0.000118334
0.000126288
0.000127533
0.000129439
0.000131701
0.000136664
0.000143916
0.000150585
0.000163783
0.000177794
0.000178968
0.000171724
0.000169537
0.00017512
0.00019911
0.000217051
0.000218493
0.000201672
0.000232845
0.000284044
0.000272805
0.000296709
0.000306053
0.00033942
0.000346893
0.000334188
0.000311103
0.00031123
0.000290163
0.000278435
0.00034694
0.00027417
0.000211788
0.000208481
0.000221956
0.000228557
0.000234931
0.000228826
0.000234742
0.000236406
0.000245463
0.000247398
0.000274329
0.00012533
5.84498e-05
3.73132e-05
3.50886e-05
3.52826e-05
3.33621e-05
3.23108e-05
3.35894e-05
3.94061e-05
4.5098e-05
4.77739e-05
4.94184e-05
5.22978e-05
5.6171e-05
5.86624e-05
5.95697e-05
5.96869e-05
5.93085e-05
5.76601e-05
5.58565e-05
5.26161e-05
4.93241e-05
4.56466e-05
4.20503e-05
3.86995e-05
3.58526e-05
3.34399e-05
3.24726e-05
3.18122e-05
3.133e-05
3.10355e-05
3.04676e-05
2.99292e-05
2.95528e-05
2.94842e-05
2.95394e-05
2.96632e-05
2.98686e-05
3.0211e-05
3.06723e-05
3.10354e-05
3.12714e-05
3.15945e-05
3.20672e-05
3.26668e-05
3.34444e-05
3.446e-05
3.56525e-05
3.70201e-05
3.84786e-05
4.01189e-05
4.18717e-05
4.38626e-05
4.58422e-05
4.75734e-05
4.86738e-05
4.89995e-05
4.90159e-05
4.836e-05
4.67809e-05
4.40647e-05
4.1162e-05
3.92019e-05
3.82993e-05
3.81489e-05
3.8386e-05
3.90638e-05
3.96612e-05
3.98124e-05
3.91646e-05
3.79347e-05
3.73673e-05
3.70348e-05
3.69379e-05
3.69063e-05
3.69817e-05
3.73439e-05
3.72037e-05
3.67053e-05
3.62675e-05
3.63205e-05
3.58327e-05
3.54217e-05
3.54096e-05
3.55259e-05
3.52495e-05
3.42426e-05
3.39362e-05
3.41281e-05
3.449e-05
3.50612e-05
3.56067e-05
3.60455e-05
3.61478e-05
3.63716e-05
3.73513e-05
4.01763e-05
4.20683e-05
4.2875e-05
4.30247e-05
4.35319e-05
4.63947e-05
5.33034e-05
5.49156e-05
5.58064e-05
5.8498e-05
6.24682e-05
6.72322e-05
8.09882e-05
0.00011926
0.000131538
0.000123727
0.00010606
9.61769e-05
9.02801e-05
8.54103e-05
8.18355e-05
7.99318e-05
7.95427e-05
8.44063e-05
9.08361e-05
0.000100365
9.68718e-05
8.15852e-05
7.89832e-05
7.69111e-05
7.60303e-05
7.73734e-05
7.79713e-05
8.06025e-05
8.58141e-05
8.64168e-05
8.74166e-05
9.18163e-05
9.16245e-05
9.29393e-05
9.12134e-05
0.000110095
0.000127415
0.000127527
0.000126867
0.000128378
0.000130546
0.000137167
0.000144637
0.000156162
0.000171335
0.000173379
0.00016913
0.000165962
0.000165866
0.000185988
0.000206987
0.000216503
0.000195817
0.000212194
0.000271846
0.000262464
0.000296542
0.00030205
0.00032306
0.000326249
0.000330604
0.000308641
0.000296233
0.000288818
0.00028372
0.000294958
0.00024651
0.000209977
0.000203208
0.000210771
0.00022304
0.000231753
0.000236331
0.000240899
0.000241206
0.000247289
0.000248339
0.000293119
0.000124464
5.47341e-05
3.69685e-05
3.62057e-05
3.66239e-05
3.55302e-05
3.54838e-05
3.77558e-05
4.11384e-05
4.40663e-05
4.67235e-05
4.87178e-05
5.05773e-05
5.23097e-05
5.32138e-05
5.36709e-05
5.34724e-05
5.26735e-05
5.10351e-05
4.86554e-05
4.56565e-05
4.24691e-05
3.96309e-05
3.68877e-05
3.46128e-05
3.28938e-05
3.16237e-05
3.12115e-05
3.10367e-05
3.07547e-05
3.05321e-05
3.00973e-05
2.94476e-05
2.91635e-05
2.92136e-05
2.93744e-05
2.96506e-05
3.00394e-05
3.03843e-05
3.06543e-05
3.08203e-05
3.10187e-05
3.15853e-05
3.23582e-05
3.31831e-05
3.40571e-05
3.51547e-05
3.63584e-05
3.76985e-05
3.902e-05
4.03898e-05
4.16135e-05
4.30126e-05
4.44191e-05
4.61347e-05
4.75732e-05
4.85749e-05
4.90425e-05
4.91857e-05
4.89504e-05
4.73377e-05
4.41445e-05
4.03824e-05
3.79978e-05
3.70779e-05
3.6781e-05
3.6674e-05
3.65114e-05
3.66183e-05
3.72843e-05
3.7426e-05
3.7407e-05
3.68982e-05
3.66103e-05
3.67423e-05
3.59757e-05
3.53542e-05
3.50451e-05
3.47492e-05
3.38822e-05
3.36544e-05
3.32829e-05
3.26454e-05
3.25672e-05
3.30054e-05
3.36306e-05
3.36429e-05
3.32978e-05
3.32915e-05
3.34515e-05
3.38467e-05
3.42092e-05
3.46129e-05
3.48782e-05
3.56117e-05
3.69761e-05
3.97336e-05
4.15747e-05
4.19237e-05
4.17079e-05
4.24223e-05
4.48962e-05
5.27595e-05
5.46889e-05
5.58627e-05
5.93487e-05
6.39848e-05
6.67307e-05
7.53958e-05
0.000107786