/*--------------------------------*- C++ -*----------------------------------*\
| =========                 |                                                 |
| \\      /  F ield         | OpenFOAM: The Open Source CFD Toolbox           |
|  \\    /   O peration     | Version:  dev                                   |
|   \\  /    A nd           | Web:      http://www.openfoam.org               |
|    \\/     M anipulation  |                                                 |
\*---------------------------------------------------------------------------*/
FoamFile
{
    version     2.0;
    format      ascii;
    class       volScalarField;
    object      p;
    location    "9.16";
}
// * * * * * * * * * * * * * * * * * * * * * * * * * * * * * * * * * * * * * //

dimensions      [1 -1 -2 0 0 0 0];

internalField   nonuniform List<scalar> 
12225
(
95781.2
95748.8
95747.9
95771.5
95809.8
95866.4
95936.1
96025.9
96126.5
96250.6
96381.8
96542.8
96700.5
96903.1
97082.8
97295.8
97558.3
97657.9
95778.7
95749.3
95748.9
95772.4
95810.5
95867
95936.6
96026.3
96126.7
96250.8
96381.7
96542.4
96701.1
96897.6
97078.9
97305.5
97547.2
97825.8
95777.9
95752.2
95752.5
95775.5
95813
95869.3
95938.5
96028
96128.1
96251.7
96383.3
96540.3
96703.5
96889.4
97079.7
97302.2
97557.9
97874.8
95780.3
95757.7
95758.8
95781.2
95818.1
95874
95943
96031.8
96132.2
96254.1
96387
96540.4
96704.8
96885.8
97074.1
97297.5
97543
97773.9
95786.7
95766.7
95768.4
95790.1
95826.5
95881.8
95950.6
96038.4
96139.6
96259.4
96392.6
96542.3
96707
96882.9
97077.1
97282.6
97482.9
97737.6
95800.5
95780.5
95781.7
95802.8
95838.8
95893.6
95961.9
96048.7
96149.4
96267.9
96399.5
96546.6
96710.3
96881.3
97075.7
97263.1
97483.6
97714.2
95818.7
95799.3
95799.9
95820.5
95856
95910
95977.8
96063.1
96163.1
96278.3
96410.1
96553.4
96715.3
96881.6
97071.3
97255.5
97487.7
97700.3
95836.9
95820.6
95820.9
95840.8
95875.9
95929.1
95996.3
96080.1
96179.3
96292.1
96422.5
96562.8
96721.9
96885.4
97073.6
97253.8
97466.9
97666.1
95859.7
95843.6
95843.8
95863.1
95897.8
95949.9
96016.6
96099
96197.2
96309.1
96436.1
96574
96729.2
96889.5
97069.5
97246.3
97439.7
97629.3
95892.3
95874.6
95874.6
95892.8
95927.1
95977.9
96043.9
96124.7
96221.3
96330.7
96454.6
96589.2
96739.2
96894.6
97064.6
97234.3
97411.3
97584.7
95939.9
95916.7
95915.6
95932.7
95966.3
96015.7
96080.5
96159.5
96253.5
96360.1
96479.6
96610.6
96752.6
96902
97059.7
97220.3
97381.2
97542
96003.5
95972.4
95969.6
95985.4
96018.3
96065.9
96129.2
96205.5
96296.3
96398.7
96513.1
96638
96772
96912.6
97058.5
97207.5
97354.1
97499.1
96076.9
96044.2
96040.4
96055
96086.7
96132.5
96193.3
96266.6
96353.1
96450.4
96558.3
96675.4
96799.8
96929.9
97063.6
97199
97331.4
97461.3
96167.1
96135.9
96131.8
96145.8
96176.3
96220.1
96277.8
96347
96428
96518.9
96618.9
96726.7
96840.3
96958.6
97078.6
97199.2
97317.3
97432
96276.5
96251.8
96249.7
96263.8
96292.6
96334
96387.7
96451.9
96526.3
96609.2
96699.8
96796.6
96898
97002.5
97108.1
97213.3
97316.3
97415.6
96406.7
96397.6
96399.8
96414.5
96441.6
96480
96528.7
96586.7
96653
96726.5
96806
96890.4
96978
97067.5
97157.5
97246.3
97333
97416.3
96587.2
96582.1
96587.9
96603.2
96628.3
96662.6
96705.4
96755.8
96812.8
96875.3
96942.4
97012.8
97085.3
97158.6
97231.6
97302.9
97371.7
97437.2
96791.2
96791.8
96799.7
96814.5
96836.8
96866.6
96903.1
96945.4
96992.7
97044
97098.3
97154.8
97212.3
97269.7
97326.2
97380.7
97432.5
97481.1
96995
96992.8
96999.4
97012.6
97032
97057.3
97087.8
97122.7
97161.3
97202.8
97246.2
97290.6
97335.4
97379.6
97422.4
97462.9
97500.7
97535.4
97168
97163.7
97168.3
97179.2
97195.8
97217.2
97242.8
97271.7
97303.2
97336.7
97371.3
97406.5
97441.3
97475
97507.2
97537
97564.1
97587.8
97315.2
97304.9
97306.5
97315.1
97329.1
97347.2
97368.7
97392.8
97418.7
97445.9
97473.7
97501.5
97528.6
97554.3
97578.2
97599.7
97618.4
97634
97432.2
97417.8
97416.6
97422.8
97434.3
97449.7
97468
97488.4
97510.1
97532.5
97555.1
97577.2
97598.4
97618
97635.5
97650.6
97662.8
97671.9
97518.8
97504.3
97501.5
97505.8
97515.2
97528.4
97544.3
97562
97580.5
97599.4
97618.1
97636
97652.7
97667.6
97680.3
97690.5
97697.8
97702
97582.9
97569
97565.3
97568
97575.8
97587.4
97601.7
97617.3
97633.5
97649.8
97665.7
97680.4
97693.7
97705.1
97714.3
97720.9
97724.6
97725.1
97631.2
97616.8
97611.8
97613.1
97619.7
97630.4
97643.5
97657.8
97672.4
97686.9
97700.6
97713
97723.9
97732.8
97739.4
97743.4
97744.4
97742.4
97669.7
97651.5
97644.5
97644.6
97650.5
97660.6
97673
97686.4
97700
97713.1
97725.3
97736.3
97745.5
97752.6
97757.3
97759.4
97758.6
97754.7
97695.6
97675
97666.2
97665.4
97671
97680.9
97693
97705.8
97718.6
97730.9
97742.2
97752.1
97760.2
97766.1
97769.5
97770.4
97768.3
97763.2
97711.4
97689.5
97679.3
97678
97683.8
97693.7
97705.6
97718
97730.5
97742.3
97753
97762.2
97769.6
97774.7
97777.4
97777.3
97774.4
97768.5
97720.1
97697.4
97685.5
97684.6
97690.9
97700.9
97712.7
97725.1
97737.3
97748.9
97759.2
97768.1
97775
97779.6
97781.8
97781.3
97777.8
97771.4
97728.8
97701.4
97688.5
97687.6
97693.9
97704
97715.8
97728.1
97740.3
97751.7
97761.9
97770.5
97777.2
97781.7
97783.6
97782.9
97779.2
97772.4
106301
106301
106299
106297
106294
106289
106282
106274
106263
106251
106236
106218
106198
106176
106150
106120
106087
106050
106009
105963
105912
105857
105796
105730
105658
105580
105496
105406
105309
105206
105097
104980
104856
104725
104587
104445
104297
104143
103981
103810
103631
103446
103254
103058
102856
102650
102440
102226
102010
101792
101572
101351
101129
100907
100686
100466
100248
100032
99819.2
99610.3
99405.7
99206.4
99012.8
98825.5
98645.4
98473.1
98309.3
98154.6
98009.9
97876
97753.6
97643.2
97545.7
97462.1
97392.7
97338
97298.6
97275.1
97267.7
97276.7
97302.3
97344.7
97403.9
97479.8
97571.9
97679.5
97801.9
97938.1
98087.5
98249.3
98422.3
98604.9
98795.6
98992.6
99194.3
99399.6
99609
99819.3
100029
100238
100445
100648
100848
101042
101231
101412
101585
101757
101923
102080
102226
102363
102490
102602
102695
102767
102818
102851
102866
102858
102827
102769
102685
102581
102458
102320
102174
102018
101844
101655
101447
101223
100981
100723
100453
100174
99889.4
99599.1
99300.6
98992.7
98676
98348
98007.6
97651.8
97277.4
96882.4
96466.5
96030.8
95577.5
95104.1
94609.8
94093.5
93558.6
93012.5
92475
91956.1
91453.8
90972.5
90551
90241.5
90071.3
90051.9
90157.8
90372.8
90684.4
91138.3
91728
92452.6
93258.7
94127.1
95025.8
95988.9
96899.2
97758.9
98591
99393.5
100168
100909
101607
102269
106255
106254
106253
106251
106248
106243
106236
106228
106218
106206
106191
106174
106155
106132
106107
106078
106045
106008
105967
105922
105872
105818
105758
105692
105621
105544
105461
105371
105275
105172
105064
104951
104831
104701
104563
104417
104268
104113
103950
103780
103602
103418
103228
103032
102831
102626
102418
102205
101990
101773
101554
101335
101114
100892
100672
100453
100236
100021
99809.5
99601.7
99397.9
99199
99006.4
98820.5
98641.3
98469.9
98306.9
98152.8
98008.7
97875.2
97753.4
97643.6
97546.6
97463.3
97394.4
97340
97300.9
97277.7
97270.4
97279.5
97305.1
97347.4
97406.4
97482
97574
97681.5
97803.6
97939.4
98088
98248.8
98421.4
98603.8
98794.2
98990.8
99192
99396.7
99605.4
99815.5
100025
100234
100441
100645
100845
101039
101229
101411
101582
101759
101927
102085
102233
102371
102498
102611
102706
102777
102831
102865
102881
102873
102841
102783
102700
102599
102480
102343
102199
102048
101878
101691
101486
101262
101021
100763
100494
100216
99931.4
99642.4
99344
99035.1
98719.6
98393.3
98055
97701.3
97328.6
96936.1
96523.7
96092.4
95644.1
95176.9
94689.3
94180.5
93653.3
93117.1
92587
92072.7
91572.7
91096.1
90678.2
90373
90211.1
90197.9
90295.9
90497.8
90808.2
91258.2
91853.8
92580.1
93375.7
94247.2
95165.1
96109.3
97013.1
97867.8
98691.1
99485.5
100249
100981
101668
102315
106163
106162
106162
106160
106157
106152
106146
106138
106128
106116
106102
106086
106067
106045
106020
105992
105960
105924
105884
105839
105791
105737
105678
105614
105545
105469
105388
105303
105211
105111
105002
104887
104766
104639
104504
104361
104211
104055
103892
103723
103547
103365
103177
102983
102784
102582
102375
102165
101951
101736
101519
101300
101081
100863
100645
100428
100213
100000
99790.4
99584.3
99382.1
99185.2
98994.5
98810.2
98632.6
98462.6
98301.4
98148.8
98006.1
97874
97753.2
97644.5
97548.5
97466.1
97397.8
97344.2
97305.7
97282.8
97275.9
97285.2
97310.9
97353
97411.8
97487
97578.4
97685.4
97807
97942.2
98089.7
98249
98420.8
98602.4
98792.2
98987.8
99187.4
99392
99599.8
99809.2
100017
100225
100432
100636
100836
101033
101225
101410
101588
101764
101935
102097
102247
102386
102515
102630
102725
102800
102856
102892
102909
102903
102872
102816
102734
102638
102528
102397
102255
102109
101942
101760
101560
101338
101099
100843
100575
100298
100015
99729.4
99431.5
99119.5
98806.6
98483.6
98151.1
97803.6
97436.4
97048.4
96641.7
96218.6
95780
95325.2
94853.1
94360.8
93849.5
93335.1
92826.9
92331.7
91840.6
91374.7
90967.5
90672.5
90522.8
90509.5
90587.4
90769.1
91096.5
91530.9
92136.1
92845.2
93621.3
94501.8
95458.6
96378.9
97266.5
98103.5
98912
99687
100429
101141
101804
102424
106028
106028
106027
106026
106023
106019
106014
106006
105997
105985
105972
105956
105938
105917
105892
105865
105833
105798
105759
105716
105669
105617
105561
105500
105434
105362
105283
105197
105107
105010
104906
104794
104674
104548
104414
104273
104126
103971
103810
103642
103468
103288
103103
102912
102716
102515
102311
102104
101893
101681
101467
101252
101036
100820
100605
100391
100179
99968.7
99761.7
99558
99358.7
99164.8
98976.7
98794.6
98619.4
98451.6
98291.9
98141.9
98001.5
97871.4
97752.5
97645.5
97551
97469.9
97402.8
97350.1
97312.4
97290.1
97283.7
97293.4
97319.3
97361.3
97419.7
97494.3
97584.6
97690.5
97811.2
97945.6
98092.4
98250.4
98420.6
98600.9
98789.8
98984.1
99182.4
99385.9
99590.1
99799.6
100007
100215
100422
100626
100827
101024
101218
101408
101592
101772
101947
102115
102270
102412
102541
102657
102755
102834
102892
102931
102950
102948
102919
102866
102790
102700
102603
102481
102344
102202
102040
101862
101666
101448
101212
100957
100690
100415
100135
99850.1
99553.8
99247
98934.7
98614.4
98288.2
97951
97595.2
97217.3
96819.7
96406.5
95981.8
95545.7
95095.5
94627.6
94138.8
93653
93182.2
92721.2
92253.5
91806.1
91419.2
91135.1
90991.6
90971.6
91038
91203
91554.5
91983.3
92587.7
93259.9
94016.7
94915.3
95889.3
96787.4
97640.3
98443.7
99228.9
99980
100694
101379
102008
102595
105853
105853
105853
105852
105849
105845
105840
105833
105824
105814
105801
105787
105769
105749
105726
105699
105669
105636
105599
105558
105514
105465
105412
105353
105289
105221
105146
105065
104977
104881
104779
104669
104552
104428
104296
104158
104013
103861
103702
103537
103366
103189
103006
102818
102626
102429
102228
102024
101817
101609
101398
101187
100975
100763
100551
100341
100133
99926.5
99723.1
99523.1
99327.5
99137
98952.2
98773.4
98601.5
98437
98280.4
98132.7
97994.9
97867.3
97750.8
97645.9
97553.4
97473.9
97408.3
97357.1
97320.5
97299.1
97293.3
97303.3
97329.3
97371.4
97429.5
97503.6
97593.2
97697.6
97816.6
97949.3
98094.8
98251.9
98420.3
98598.6
98785.3
98978.5
99176.6
99380.1
99577.2
99787.4
99994.8
100201
100408
100613
100816
101016
101212
101405
101594
101780
101962
102135
102297
102443
102575
102692
102793
102875
102937
102980
103003
103006
102983
102934
102866
102787
102701
102591
102462
102325
102169
101996
101805
101591
101361
101108
100842
100567
100290
100004
99709.8
99408.3
99100.8
98786.9
98466.6
98139.3
97798.2
97436.8
97054.7
96655.3
96248.6
95836.5
95413.7
94976.4
94516.9
94062.3
93636.4
93222.6
92794.1
92375.4
92016.5
91742
91600.7
91578
91650
91830.1
92162.5
92614
93198.7
93847.3
94586.1
95512.1
96454.9
97311.5
98108.5
98868.9
99616.2
100333
101016
101674
102268
102820
105639
105640
105640
105639
105637
105633
105628
105622
105615
105606
105594
105581
105565
105546
105525
105501
105474
105444
105411
105373
105331
105286
105236
105181
105121
105055
104982
104903
104817
104724
104623
104516
104402
104281
104153
104017
103875
103726
103570
103408
103240
103066
102887
102703
102515
102322
102125
101925
101723
101518
101312
101105
100898
100691
100484
100278
100075
99873
99674.1
99478.8
99287.7
99101.3
98920.3
98745.6
98577.7
98417.1
98264.1
98119.1
97985.1
97860.5
97746.7
97644.4
97554.3
97477.1
97413.4
97363.8
97328.8
97308.7
97303.6
97314.1
97340.2
97382.2
97440
97513.4
97602.4
97706
97823.4
97954.3
98098
98253.4
98419.5
98595.1
98778.9
98969.8
99166.7
99368
99567.7
99773.7
99980
100186
100393
100598
100803
101006
101206
101402
101596
101787
101974
102154
102323
102476
102612
102732
102836
102924
102992
103040
103069
103078
103064
103026
102970
102900
102821
102723
102605
102475
102325
102158
101972
101761
101539
101290
101029
100755
100478
100192
99898.5
99601.7
99300.7
98996
98686.7
98371.6
98043.9
97699.7
97338.6
96960.8
96576.2
96191.4
95801.7
95400.6
94979.7
94561.8
94182.1
93821.9
93447.8
93068.1
92743.2
92478.9
92345.2
92326.5
92417
92619.4
92924.2
93375.4
93925.5
94573.7
95322.9
96247
97118.7
97915.9
98659.8
99388.6
100081
100747
101396
102016
102577
103093
105390
105392
105392
105391
105389
105386
105383
105378
105372
105364
105355
105343
105329
105314
105296
105275
105252
105226
105196
105162
105124
105082
105035
104983
104925
104861
104790
104713
104630
104539
104442
104338
104227
104109
103984
103851
103712
103566
103414
103255
103091
102921
102746
102566
102382
102193
102001
101806
101608
101409
101208
101006
100805
100603
100402
100202
100004
99807.7
99614.2
99424.3
99238.3
99056.8
98880.6
98710.4
98547
98390.8
98242.4
98102.7
97971.2
97849.7
97738.9
97639.6
97552.5
97478
97416.8
97369.5
97336.2
97317.7
97314
97325.2
97351.5
97393.2
97450.6
97523.4
97611.3
97713.9
97830
97958.9
98100.5
98253.7
98417.2
98589.6
98771.3
98960
99153.6
99354.3
99555.1
99757.9
99962.4
100167
100374
100582
100789
100995
101198
101398
101596
101792
101985
102171
102347
102507
102651
102773
102884
102978
103055
103110
103146
103165
103163
103139
103097
103038
102966
102876
102767
102646
102505
102345
102167
101959
101738
101499
101244
100976
100697
100414
100118
99825.5
99532
99236.5
98938.3
98637.5
98326.8
98002.5
97663.8
97314.2
96956.5
96598.6
96243.7
95885.3
95517.3
95145.3
94808.5
94502.8
94197.7
93874.8
93583.2
93338.5
93217
93214.9
93327.1
93527.6
93832.2
94261.1
94764.1
95427.5
96189
97076.9
97865
98589.1
99290.3
99986.2
100635
101240
101855
102425
102948
103416
105109
105111
105112
105111
105110
105109
105107
105104
105100
105095
105088
105079
105068
105057
105043
105026
105006
104983
104956
104926
104891
104852
104808
104758
104702
104640
104572
104498
104418
104330
104236
104135
104027
103912
103790
103661
103525
103383
103235
103081
102920
102754
102583
102407
102226
102042
101856
101667
101475
101281
101086
100891
100695
100500
100305
100112
99920
99730.1
99542.9
99358.7
99178.1
99002.1
98831.3
98666.2
98507.9
98356.7
98213.1
98078.4
97950.9
97833.2
97726.2
97630.3
97546.4
97475
97416.7
97372
97341
97324.1
97322
97334.8
97362.2
97404
97460.8
97532.6
97619.4
97720.7
97835.5
97962.6
98101.8
98252
98412.3
98581.9
98761.4
98948.6
99138
99337.1
99537.3
99738.5
99942
100146
100352
100561
100772
100981
101187
101391
101594
101795
101992
102184
102367
102535
102685
102817
102934
103036
103120
103186
103232
103261
103272
103261
103234
103188
103126
103047
102948
102836
102706
102552
102381
102181
101966
101733
101483
101221
100947
100670
100369
100080
99793.3
99508.2
99221.3
98932
98639.4
98338.7
98024.3
97706.5
97382.5
97052.3
96730.8
96421.1
96113.9
95800.6
95513.2
95260.9
95024.5
94777.7
94516.5
94313.7
94205.1
94235.8
94351
94543
94851.6
95250.7
95701.9
96417.8
97154.7
97979.6
98678.1
99336.2
99993.3
100662
101276
101828
102404
102914
103391
103793
104801
104803
104804
104805
104805
104805
104805
104804
104802
104799
104795
104789
104783
104775
104765
104752
104735
104716
104693
104666
104634
104597
104555
104508
104455
104396
104331
104260
104182
104098
104007
103909
103804
103693
103574
103450
103319
103181
103037
102887
102731
102569
102401
102230
102054
101876
101694
101509
101323
101135
100946
100757
100568
100380
100193
100006
99821.6
99638.8
99458.3
99280.6
99106.4
98936.4
98771.4
98611.9
98458.9
98312.9
98174
98042.5
97921.4
97808.9
97706.5
97615
97535.1
97467.2
97412.1
97370.2
97342.1
97327.6
97326.8
97340.5
97369.1
97412.1
97469.2
97540.2
97625.6
97725.3
97838.6
97964.2
98101.3
98248.7
98405.6
98572.4
98748.7
98932.8
99122.1
99317.6
99515.5
99714.4
99917
100122
100328
100537
100750
100963
101172
101380
101588
101794
101996
102193
102384
102559
102717
102858
102986
103093
103188
103265
103324
103364
103387
103390
103377
103344
103296
103229
103143
103042
102921
102778
102614
102423
102216
101989
101747
101488
101219
100953
100646
100365
100082
99805.4
99533.6
99257.1
98977
98701.7
98415.6
98125.9
97838.8
97549.4
97269.3
97008.2
96758.6
96512.7
96286.7
96087.1
95915.4
95748.9
95538.4
95374.7
95309.5
95357.9
95469.9
95638.9
95981.2
96356.6
96739.4
97487.2
98232.1
98943.2
99560.1
100165
100781
101431
102002
102522
103042
103489
103903
104217
104469
104471
104473
104474
104476
104478
104480
104481
104481
104481
104480
104478
104475
104470
104464
104454
104442
104426
104406
104382
104353
104319
104280
104236
104186
104130
104068
104000
103925
103844
103756
103662
103561
103453
103339
103219
103093
102960
102820
102674
102522
102364
102201
102034
101863
101691
101513
101334
101153
100971
100788
100606
100424
100244
100064
99885.4
99708.5
99533.3
99360.2
99189.6
99022.3
98858.8
98700
98546.6
98399.5
98259.3
98126.2
98001.1
97883.5
97775.7
97678.1
97591.3
97515.8
97452.3
97401.3
97363
97337.5
97325.8
97327.6
97342.8
97372
97415.7
97473.5
97544.7
97629.4
97727.6
97839.1
97962.7
98097.6
98242.8
98397
98560.2
98733.9
98915.1
99103
99295.9
99491.5
99688.1
99888.9
100093
100300
100510
100725
100940
101152
101364
101577
101789
101994
102197
102394
102577
102744
102895
103032
103153
103258
103346
103416
103469
103506
103524
103526
103510
103476
103425
103346
103258
103147
103013
102858
102678
102478
102259
102024
101775
101510
101242
100956
100676
100395
100119
99859.3
99603.3
99340.4
99082.8
98828.2
98566
98309.2
98066.2
97839.6
97634.1
97443.9
97266.7
97108.2
96960.4
96854
96769.5
96640
96507.7
96517.9
96574.2
96677.8
96825.9
97190.1
97560.4
97941.4
98652.6
99372.6
99957.7
100516
101070
101658
102273
102818
103312
103762
104135
104463
104680
104117
104119
104122
104125
104128
104131
104134
104137
104140
104143
104145
104147
104148
104147
104143
104137
104128
104115
104098
104077
104052
104021
103985
103944
103897
103844
103785
103720
103649
103571
103487
103396
103299
103196
103086
102971
102848
102719
102584
102442
102293
102139
101980
101818
101651
101481
101311
101138
100964
100789
100613
100438
100264
100091
99918.9
99748.4
99579.5
99412.2
99246.9
99083.8
98923.7
98767.3
98615.2
98468.2
98327.3
98193.1
98066
97946.8
97835.1
97732.6
97639.8
97557.9
97487.5
97428.6
97381.7
97347.6
97326
97316.8
97321.3
97339.2
97369.8
97414.1
97472.5
97544.1
97628.5
97726.1
97835.9
97957.6
98090.6
98233.9
98385.4
98544.2
98713.9
98893.8
99080.1
99270.2
99463.6
99658.7
99857.8
100061
100268
100479
100695
100912
101126
101341
101559
101775
101986
102193
102396
102589
102765
102926
103075
103208
103326
103425
103507
103575
103625
103658
103674
103676
103650
103618
103558
103479
103380
103257
103109
102940
102751
102541
102313
102071
101816
101552
101281
101005
100730
100457
100199
99958.5
99719.2
99480
99251.5
99027.2
98801.6
98598.2
98421.4
98278.5
98163.3
98053.9
97964.3
97872.9
97824.3
97832.5
97793.7
97723.6
97795.6
97887.6
98015.8
98149.4
98483.3
98854.6
99287.4
99926.2
100547
101039
101539
102047
102615
103187
103709
104169
104544
104833
105056
105178
103748
103751
103754
103758
103763
103768
103773
103779
103785
103791
103796
103801
103805
103807
103806
103803
103797
103787
103773
103756
103733
103706
103673
103635
103591
103542
103486
103425
103357
103282
103202
103114
103021
102922
102817
102705
102587
102462
102331
102193
102049
101899
101745
101587
101425
101261
101096
100929
100760
100592
100423
100255
100088
99922.8
99758.2
99595.2
99434.2
99275
99117.5
98962
98809.3
98660.2
98515.2
98375.2
98240.7
98112.8
97991.8
97878.2
97772.9
97676.7
97590.1
97514.1
97449.1
97395.7
97353.4
97322.9
97305.2
97299.5
97306.5
97327.1
97360.4
97406.1
97465.2
97537.6
97622.2
97719
97827.1
97946.6
98078.8
98221
98371.3
98520.8
98690.7
98868.2
99051.7
99239.1
99429.6
99623.5
99821.5
100024
100230
100442
100659
100877
101094
101312
101533
101753
101970
102182
102391
102592
102779
102951
103112
103258
103388
103499
103597
103678
103742
103789
103821
103839
103831
103809
103767
103700
103611
103498
103360
103205
103027
102827
102607
102377
102129
101871
101607
101340
101075
100811
100554
100318
100104
99888.4
99682
99501.3
99321.2
99157.6
99023
98932.7
98890.7
98857.7
98839
98814.6
98817.2
98926.5
98974.6
99003.8
99129
99243.3
99416.3
99574.7
99885
100250
100714
101274
101755
102179
102629
103090
103636
104164
104645
105065
105362
105561
105669
105697
103364
103368
103373
103378
103384
103391
103399
103408
103417
103426
103434
103442
103448
103453
103456
103455
103452
103446
103435
103420
103401
103377
103347
103313
103272
103226
103174
103116
103051
102980
102903
102819
102729
102634
102533
102425
102311
102191
102063
101930
101790
101645
101495
101342
101185
101027
100866
100704
100542
100380
100219
100058
99897.9
99739.5
99582.6
99426.9
99273.1
99121.4
98971.7
98823.9
98678.7
98536.9
98399.5
98267.1
98140.1
98018.7
97904.1
97796.8
97697.4
97607.1
97526.8
97457.3
97398.4
97350.7
97313.9
97288.1
97274.2
97272.4
97282.4
97305.3
97341.5
97389.5
97449.9
97523.2
97608.6
97705.2
97812.2
97929.4
98060.2
98201.3
98345.7
98498.1
98663.8
98838.1
99018.7
99203.3
99391.1
99582.8
99779.2
99980.7
100187
100399
100616
100834
101053
101275
101498
101723
101944
102162
102376
102587
102784
102967
103139
103299
103441
103566
103678
103774
103854
103917
103963
103996
104005
103997
103968
103915
103836
103733
103608
103466
103298
103106
102896
102678
102439
102188
101931
101674
101417
101164
100916
100682
100487
100297
100113
99967
99842.4
99726
99638.2
99590.9
99603.5
99641.6
99708.1
99758.6
99819.4
100015
100154
100294
100494
100617
100785
101010
101328
101699
102153
102611
102981
103350
103762
104185
104702
105190
105618
105980
106195
106296
106288
106235
102969
102973
102979
102986
102994
103004
103014
103026
103038
103050
103062
103072
103082
103089
103095
103097
103097
103093
103086
103074
103058
103037
103011
102980
102943
102900
102851
102796
102735
102667
102593
102513
102426
102334
102236
102132
102022
101905
101782
101652
101517
101376
101231
101083
100931
100777
100622
100467
100311
100155
100000
99845.8
99692.7
99541.2
99391.3
99242.6
99095.6
98951.2
98809
98668.7
98530.9
98396.5
98266.6
98141.5
98021.6
97907.6
97800
97699.6
97606.8
97523.2
97449.6
97386.5
97334.1
97291.8
97260.5
97240.1
97230.8
97233.5
97247.7
97273.5
97312.4
97362.9
97425.1
97499.3
97585.5
97682.5
97789.1
97905.1
98033.6
98172.9
98317
98468.2
98630.6
98802.1
98979.9
99161.5
99346.5
99536.1
99730.5
99930.3
100137
100349
100566
100784
101004
101228
101454
101682
101909
102132
102352
102571
102779
102973
103156
103329
103482
103623
103750
103861
103955
104033
104095
104141
104167
104171
104156
104115
104049
103959
103850
103716
103557
103375
103179
102972
102745
102507
102259
102010
101761
101509
101273
101047
100869
100705
100545
100420
100346
100283
100247
100246
100301
100408
100547
100673
100815
101076
101303
101533
101830
102027
102151
102436
102766
103166
103576
103938
104249
104589
104949
105337
105815
106241
106608
106893
107020
107010
106902
106777
102562
102567
102575
102584
102595
102607
102620
102635
102650
102666
102681
102695
102707
102718
102726
102732
102735
102735
102730
102722
102709
102691
102668
102640
102606
102566
102521
102469
102410
102346
102275
102197
102114
102025
101929
101828
101721
101608
101488
101363
101231
101095
100955
100812
100666
100517
100367
100217
100066
99916.6
99768
99620.3
99473.3
99327.8
99184.6
99042.5
98902.1
98764.5
98629.4
98496.4
98365.7
98238.6
98116.2
97999.3
97886.4
97779.5
97678.9
97585.4
97499.8
97423.2
97357
97301
97255.2
97219.4
97193.7
97178.7
97174.2
97181.2
97200
97229.7
97271.6
97325.2
97389.7
97465.3
97551.8
97649.7
97757.2
97872.1
97998.5
98136.5
98279.6
98429.8
98589.4
98758
98933
99111.7
99293.9
99481.3
99673.7
99872.3
100078
100290
100507
100726
100947
101171
101400
101632
101864
102092
102319
102543
102761
102967
103159
103346
103511
103668
103806
103932
104041
104133
104213
104272
104311
104330
104330
104300
104244
104166
104067
103942
103793
103625
103442
103245
103035
102807
102568
102327
102081
101838
101612
101392
101237
101097
100966
100864
100827
100822
100833
100885
100983
101149
101349
101536
101776
102095
102388
102709
103069
103384
103542
103866
104191
104584
104935
105239
105520
105824
106134
106503
106931
107290
107575
107773
107799
107685
107499
107282
102145
102152
102161
102172
102186
102202
102219
102237
102256
102275
102294
102312
102328
102342
102354
102363
102369
102371
102370
102365
102355
102340
102320
102295
102264
102228
102185
102136
102081
102019
101951
101876
101796
101709
101616
101518
101413
101303
101186
101064
100936
100804
100669
100530
100386
100243
100099
99955
99810.7
99666.2
99523.6
99381.7
99240.3
99100.6
98963.4
98827.5
98693.1
98562
98433.7
98307.6
98183.8
98063.4
97947.5
97836.6
97732.6
97633.6
97540.6
97454.3
97376.2
97307.2
97248.3
97199.7
97160.7
97131.1
97111.3
97102.2
97103.4
97115.1
97138.2
97172.3
97217.4
97274.4
97341.5
97419.1
97505.8
97604.6
97714
97827.9
97952.9
98089.8
98232.5
98381.3
98538.1
98704.2
98876.4
99052.6
99232.2
99417.3
99607.9
99805.9
100011
100222
100438
100658
100880
101106
101336
101572
101807
102041
102273
102503
102731
102946
103151
103345
103526
103694
103847
103983
104108
104215
104310
104381
104434
104467
104476
104458
104413
104351
104259
104146
104014
103855
103678
103494
103296
103074
102837
102599
102364
102136
101925
101716
101572
101450
101356
101285
101280
101315
101379
101476
101634
101843
102102
102354
102672
103062
103416
103799
104211
104610
104924
105225
105537
105919
106208
106448
106707
106993
107267
107643
108000
108289
108507
108601
108515
108310
108040
107703
101718
101725
101737
101752
101769
101790
101811
101834
101858
101881
101904
101926
101947
101964
101980
101992
102002
102007
102009
102006
101999
101987
101971
101948
101920
101886
101847
101800
101748
101689
101623
101551
101473
101389
101298
101202
101099
100991
100878
100758
100634
100505
100373
100236
100100
99962.4
99823.1
99683.7
99544.4
99404.7
99266.9
99130.3
98994.2
98859.6
98727.5
98597.5
98469.4
98345.6
98222.8
98102.5
97985.2
97871.9
97763.7
97660.5
97563.1
97471.3
97385.2
97306.2
97235.5
97174.4
97123
97081.6
97049.2
97026.5
97013.3
97009.7
97016.6
97033.4
97061.2
97099.7
97148.2
97208.2
97278.5
97358.5
97447.2
97545
97656.6
97772
97896
98031.7
98173.7
98321.1
98475.6
98639.4
98809.3
98982.9
99160.1
99343.1
99532.2
99729.1
99934
100144
100360
100580
100802
101030
101263
101499
101736
101975
102212
102447
102684
102909
103125
103326
103521
103701
103867
104014
104155
104275
104381
104466
104529
104572
104593
104588
104555
104501
104421
104314
104195
104048
103880
103704
103511
103299
103071
102842
102621
102410
102213
102019
101878
101767
101705
101664
101690
101754
101877
101995
102240
102469
102804
103105
103472
103969
104373
104818
105277
105744
106149
106449
106780
107147
107388
107578
107842
108121
108373
108727
108989
109202
109359
109345
109151
108861
108486
108032
101276
101286
101300
101319
101342
101369
101397
101427
101456
101486
101514
101541
101566
101588
101607
101623
101635
101644
101649
101650
101646
101637
101622
101603
101577
101546
101509
101465
101415
101357
101294
101224
101148
101066
100977
100883
100783
100677
100565
100449
100328
100202
100074
99942.5
99809.4
99675.4
99539.8
99404
99268.7
99133.6
98999.6
98867.1
98735.7
98606.2
98479.3
98354.5
98232
98112.8
97996.2
97881.9
97770.7
97664.3
97562.9
97467.2
97376.8
97292.1
97212.8
97141.2
97078.4
97025.1
96981.4
96946.8
96921
96904.6
96897.8
96900.2
96912.5
96934.9
96967.1
97010.1
97063
97125.4
97199.1
97282.4
97375.7
97470.7
97583.3
97701
97825.6
97960.5
98101.8
98248.1
98400.7
98562.2
98729.7
98901.2
99076.4
99257
99444.2
99639.6
99843.7
100053
100268
100488
100713
100941
101176
101411
101650
101893
102134
102373
102618
102854
103076
103288
103494
103685
103864
104024
104177
104307
104424
104519
104590
104646
104679
104681
104658
104608
104536
104440
104326
104194
104040
103867
103677
103469
103252
103036
102825
102624
102436
102263
102135
102041
101997
101985
102035
102128
102298
102464
102770
103018
103435
103744
104185
104749
105203
105707
106216
106745
107185
107527
107898
108234
108455
108616
108895
109127
109396
109700
109886
110044
110107
109984
109702
109319
108837
108285
100885
100899
100917
100944
100974
101010
101046
101083
101119
101155
101188
101220
101249
101274
101297
101316
101331
101341
101348
101351
101349
101342
101329
101311
101288
101258
101222
101180
101131
101076
101015
100946
100871
100790
100703
100609
100511
100406
100296
100182
100063
99939.8
99814.2
99685.1
99554
99422
99289.2
99156
99023.1
98890.7
98759.7
98630.5
98502.7
98377
98253.7
98132.8
98014.5
97899.5
97787
97677.4
97571.7
97471
97375.7
97285.2
97200.6
97122
97047.8
96982.6
96926.9
96880
96842.3
96813.2
96793.2
96782.2
96780.3
96788.1
96804.7
96832
96868.6
96914.9
96972.4
97038
97113.6
97199.5
97293.5
97393.9
97505.9
97624.2
97749
97883
98023.7
98169.3
98320.6
98480
98645.2
98815.1
98988.4
99166.5
99351.6
99546.1
99748.4
99957
100171
100391
100617
100845
101080
101316
101556
101802
102046
102291
102538
102783
103012
103235
103447
103647
103838
104008
104167
104308
104430
104534
104615
104681
104718
104725
104712
104671
104602
104522
104419
104289
104139
103972
103786
103584
103371
103155
102949
102757
102582
102424
102313
102243
102217
102233
102292
102431
102622
102842
103159
103449
103929
104259
104785
105349
105842
106403
106950
107533
108024
108424
108822
109131
109337
109488
109796
109987
110281
110530
110653
110765