/*--------------------------------*- C++ -*----------------------------------*\
| =========                 |                                                 |
| \\      /  F ield         | OpenFOAM: The Open Source CFD Toolbox           |
|  \\    /   O peration     | Version:  dev                                   |
|   \\  /    A nd           | Web:      http://www.openfoam.org               |
|    \\/     M anipulation  |                                                 |
\*---------------------------------------------------------------------------*/
FoamFile
{
    version     2.0;
    format      ascii;
    class       volScalarField;
    object      p_0;
    location    "9.16";
}
// * * * * * * * * * * * * * * * * * * * * * * * * * * * * * * * * * * * * * //

dimensions      [1 -1 -2 0 0 0 0];

internalField   nonuniform List<scalar> 
12225
(
98088.7
98033.2
97979.6
97928.9
97876.9
97830.2
97786.4
97754.8
97728.8
97722.5
97722.1
97751
97778
97848.8
97895.6
97974.6
98070.9
97969.3
98083.6
98032.1
97979.1
97928.4
97876.3
97829.5
97785.7
97753.9
97727.8
97721.5
97720.8
97749.9
97777.5
97843.4
97891.9
97985.8
98069.3
98182.6
98080.3
98031.3
97979.1
97928.2
97875.7
97828.8
97784.8
97753
97726.6
97720.1
97720.3
97746.1
97781.1
97834.9
97893.9
97982.7
98098.2
98275.6
98078.5
98030.5
97979.4
97928.1
97875.3
97828.4
97784.3
97752.1
97726.3
97718.5
97721.2
97743.3
97779.1
97829.7
97889
97985.4
98095.5
98204.9
98075.7
98029.6
97979.5
97928
97875.2
97828.1
97784.2
97751.5
97726.7
97717.6
97720.9
97740.3
97776.5
97824.8
97894.9
97977.9
98072.2
98180.5
98070.1
98028.8
97979.2
97927.8
97875.2
97828.2
97784.4
97751.3
97726.7
97716.7
97719.5
97737.5
97773.3
97819.4
97891.4
97963
98079.3
98174.5
98066.9
98027.6
97978.4
97927.5
97875.3
97828.3
97784.8
97751
97726.7
97714.7
97718.3
97733.9
97769.6
97813.5
97884.8
97953.8
98077.7
98182.9
98065.6
98026.4
97977.8
97927.4
97875.7
97828.7
97785.5
97751.2
97727
97713.8
97717
97731.3
97765.8
97808.6
97878
97948.9
98059.3
98161.7
98062.7
98025
97977.4
97927.4
97876.3
97829.3
97786.5
97751.8
97727.6
97713.5
97715.7
97729.2
97761.7
97803.1
97868
97937.7
98032.7
98129.7
98062.2
98023.6
97977.2
97927.7
97877.4
97830.3
97788.2
97753
97728.7
97715.2
97714.5
97726.5
97756
97794.9
97853.3
97918.9
98000.2
98084.7
98064.8
98022.7
97977.3
97928.4
97879.2
97832.2
97790.5
97755.2
97730.2
97715.5
97712.8
97723.1
97747.4
97783.5
97833.3
97892.7
97960.6
98035.5
98064.7
98021.7
97977.6
97929.5
97881.5
97834.8
97793.5
97757.8
97731.8
97715.2
97710.3
97717.4
97737
97767.4
97809
97860.1
97916.2
97978.2
98068.2
98021.4
97978.3
97931.5
97884.6
97838.5
97797.2
97761.2
97733.8
97715.1
97707.1
97710
97723.5
97747.3
97780.2
97821.2
97866.1
97915.5
98060.3
98020.5
97979.3
97934.2
97888.5
97843.3
97801.8
97765.1
97735.8
97714.6
97702.7
97700.5
97707.4
97723.7
97747
97776.9
97810.7
97847.5
98056.5
98021.5
97981.8
97938.3
97893.6
97849.1
97807.3
97769.6
97738.1
97713.6
97697.2
97688.9
97688.7
97696
97709.6
97728.9
97750.7
97775
98066
98026.4
97986.3
97943.8
97900.1
97856
97813.6
97774.5
97740.2
97711.8
97690.1
97675.4
97667.2
97664.9
97667.8
97674.4
97685.6
97699.1
98056
98027.9
97991
97950.1
97907.2
97863.1
97819.8
97778.8
97741.3
97708.5
97681.1
97659.1
97642.4
97630.3
97622.4
97617.6
97615.3
97614.8
98048.9
98025.8
97992.7
97954.2
97912.2
97868.3
97824.1
97781
97740.4
97703.2
97670.1
97641.1
97616.3
97595
97577
97561.4
97547.7
97535.1
98040.3
98019.7
97991.1
97955.4
97914.7
97870.9
97825.7
97780.7
97737.4
97696.5
97658.6
97623.8
97592.3
97563.7
97537.6
97513.5
97491.1
97469.9
98030.9
98014.9
97988.9
97955
97915.2
97871.5
97825.6
97779.2
97733.6
97689.7
97648
97608.9
97572.2
97538
97505.8
97475.5
97446.5
97418.5
98023
98009.6
97986.3
97954
97915
97871.4
97825
97777.5
97730
97683.6
97638.9
97596.4
97555.9
97517.4
97480.7
97445.6
97411.7
97378.9
98025.2
98008.8
97985.4
97953.3
97914.5
97870.8
97824
97775.6
97726.7
97678.5
97631.6
97586.5
97543.1
97501.4
97461.3
97422.6
97385.1
97348.4
98028.8
98010.1
97985.4
97952.9
97913.9
97870
97822.9
97773.7
97723.9
97674.5
97626
97578.8
97533.2
97489.2
97446.6
97405.3
97365
97325.6
98031.5
98011.2
97985.4
97952.3
97913.1
97869.1
97821.7
97772.2
97721.8
97671.4
97621.7
97573.1
97525.8
97480
97435.6
97392.4
97350.2
97308.7
98028.7
98011.4
97984.9
97951.3
97912
97868.2
97820.9
97771.3
97720.4
97669.3
97618.7
97569
97520.5
97473.4
97427.6
97383.1
97339.4
97296.4
98030.6
98011.9
97984.3
97950.2
97911
97867.5
97820.3
97770.6
97719.4
97667.8
97616.6
97566.2
97516.9
97468.9
97422.2
97376.6
97331.9
97287.9
98034.2
98012.5
97983.4
97949.1
97910.1
97866.9
97819.8
97770
97718.7
97666.8
97615.2
97564.3
97514.6
97465.9
97418.5
97372.2
97326.8
97282.1
98039.2
98012.7
97982.3
97948
97909.3
97866.4
97819.5
97769.7
97718.3
97666.3
97614.4
97563.3
97513.2
97464.1
97416.3
97369.4
97323.5
97278.4
98045.6
98012.9
97980.6
97946.1
97908.6
97866.1
97819.4
97769.7
97718.3
97666.2
97614.2
97562.8
97512.4
97463.2
97415
97367.9
97321.6
97276.1
98050.9
98013.5
97980.2
97945.9
97908.4
97866.1
97819.5
97769.8
97718.4
97666.2
97614.1
97562.6
97512.1
97462.7
97414.4
97367.1
97320.7
97274.9
104658
104659
104661
104663
104666
104669
104672
104674
104677
104679
104680
104681
104680
104679
104675
104669
104661
104650
104636
104619
104598
104572
104542
104506
104465
104419
104367
104308
104243
104171
104093
104007
103914
103813
103706
103594
103476
103352
103220
103080
102934
102781
102623
102460
102294
102124
101953
101779
101605
101430
101256
101083
100912
100743
100577
100414
100256
100102
99953.5
99810.9
99674.7
99545.3
99423.2
99308.9
99202.7
99105.2
99016.6
98937.6
98868.7
98810.2
98762.7
98726.4
98702
98690.3
98691.5
98706
98734.3
98776.8
98833.9
98905.8
98992.7
99095.1
99212.9
99346.2
99494.5
99657.1
99833.2
100022
100222
100434
100655
100885
101122
101365
101611
101856
102102
102347
102589
102827
103057
103280
103495
103701
103898
104083
104257
104425
104583
104733
104874
105006
105130
105243
105343
105429
105503
105562
105618
105661
105686
105692
105676
105643
105590
105520
105437
105338
105218
105075
104907
104714
104498
104261
104011
103755
103497
103239
102982
102727
102474
102222
101970
101721
101472
101224
100978
100733
100491
100246
99997.3
99740.3
99471.5
99193.4
98929.2
98703.4
98502.4
98321.5
98208.9
98212.5
98338.3
98589.7
98904.8
99264.2
99653.7
100160
100787
101541
102359
103189
104102
105016
105895
106742
107586
108404
109187
109918
110573
111150
104630
104632
104633
104636
104639
104642
104644
104647
104650
104652
104653
104654
104653
104652
104648
104643
104635
104624
104610
104593
104572
104546
104516
104481
104441
104394
104343
104284
104219
104147
104070
103987
103897
103797
103688
103573
103454
103329
103196
103057
102911
102759
102601
102439
102274
102105
101935
101762
101589
101415
101241
101069
100898
100729
100564
100402
100245
100092
99943.9
99802.1
99666.3
99537.1
99415.7
99302.2
99196.6
99099.4
99011.4
98933
98864.5
98806.2
98759.1
98723.2
98699
98687.5
98689.1
98703.8
98732.4
98775.1
98832.3
98904.2
98991.1
99093.3
99211
99344
99492.2
99654.8
99830.7
100019
100219
100429
100649
100878
101116
101358
101603
101845
102091
102337
102578
102814
103044
103267
103482
103688
103885
104071
104247
104416
104576
104727
104868
105001
105125
105240
105341
105426
105500
105564
105620
105662
105687
105694
105679
105648
105600
105532
105451
105358
105241
105100
104935
104743
104528
104292
104044
103788
103531
103273
103016
102761
102509
102259
102010
101763
101516
101271
101028
100787
100549
100310
100068
99819.5
99560.2
99292.7
99035.3
98816.9
98623.5
98444.7
98336.7
98345.1
98479.7
98736.5
99040.1
99380.6
99772.6
100277
100916
101675
102476
103313
104230
105127
106001
106841
107672
108478
109247
109967
110604
111160
104576
104577
104579
104581
104584
104587
104590
104593
104595
104597
104599
104600
104599
104598
104594
104589
104581
104570
104557
104539
104518
104493
104464
104429
104389
104344
104293
104238
104176
104106
104027
103941
103850
103752
103646
103532
103411
103285
103152
103012
102867
102717
102561
102401
102236
102069
101900
101729
101556
101384
101212
101041
100871
100704
100541
100380
100223
100072
99925.2
99784.4
99649.4
99521.4
99401.2
99288.8
99184.1
99087.9
99000.9
98923.4
98856.2
98798.3
98751.5
98716.4
98693.1
98682.2
98684.3
98699.6
98728.6
98771.6
98829.1
98901.2
98988.2
99090.2
99207.5
99340.1
99487.8
99649.8
99825.4
100013
100212
100421
100638
100867
101103
101345
101584
101828
102074
102318
102557
102792
103020
103241
103456
103663
103861
104049
104227
104398
104561
104715
104858
104991
105116
105232
105334
105421
105498
105564
105622
105665
105692
105699
105686
105661
105624
105563
105486
105399
105285
105149
104988
104799
104587
104353
104107
103853
103598
103342
103085
102831
102580
102332
102089
101849
101608
101368
101131
100897
100668
100440
100213
99983.1
99742.9
99495.5
99257.1
99064.2
98891.9
98721.5
98627.9
98650.2
98794.8
99045.9
99326.2
99640.7
100059
100549
101201
101947
102726
103571
104499
105379
106237
107049
107858
108637
109379
110073
110677
111197
104494
104495
104498
104500
104503
104506
104509
104512
104514
104517
104518
104519
104519
104518
104514
104509
104501
104490
104476
104459
104438
104414
104385
104352
104315
104272
104222
104165
104102
104034
103958
103874
103783
103684
103579
103466
103347
103221
103089
102951
102806
102657
102503
102344
102182
102016
101849
101679
101509
101339
101169
101000
100832
100667
100505
100346
100192
100042
99896.8
99757.3
99624
99497.9
99379.3
99268.1
99164.9
99070.2
98984.5
98908
98841
98785.1
98739.8
98705.7
98683.5
98673.6
98676.5
98692.6
98722.2
98765.7
98823.5
98896
98983.2
99085.1
99202.2
99334.1
99480.7
99641.5
99815.8
100003
100201
100408
100624
100851
101086
101325
101562
101804
102048
102289
102526
102758
102986
103206
103420
103626
103824
104015
104197
104371
104539
104697
104844
104979
105104
105219
105323
105413
105492
105562
105622
105669
105699
105710
105703
105686
105662
105612
105542
105460
105352
105221
105065
104879
104671
104441
104197
103946
103693
103439
103183
102931
102683
102438
102202
101970
101741
101512
101285
101060
100842
100632
100425
100221
100008
99787.4
99577.5
99422.5
99290.4
99141.7
99072.2
99109.8
99255.2
99494.8
99766.3
100064
100500
101006
101649
102363
103111
103988
104899
105755
106575
107344
108118
108861
109565
110225
110786
111259
104387
104389
104391
104393
104396
104399
104402
104405
104408
104411
104413
104414
104414
104412
104409
104403
104396
104385
104372
104356
104336
104313
104286
104254
104216
104174
104127
104073
104011
103942
103867
103784
103694
103596
103492
103380
103262
103138
103007
102870
102727
102579
102427
102270
102110
101947
101782
101615
101447
101279
101111
100945
100779
100617
100457
100301
100149
100001
99858.4
99721
99589.9
99465.9
99349.1
99239.8
99138.7
99046
98962
98887
98821.8
98767.1
98723.2
98690.4
98669.4
98660.6
98664.5
98681.6
98712.1
98756.2
98814.5
98887.3
98974.6
99076.6
99193.4
99325
99470.8
99630.1
99802.6
99987.6
100184
100390
100605
100829
101061
101296
101534
101773
102013
102251
102485
102715
102941
103161
103374
103581
103779
103970
104155
104334
104506
104669
104821
104959
105086
105201
105306
105400
105483
105556
105620
105673
105709
105726
105729
105722
105710
105673
105614
105539
105438
105313
105161
104982
104780
104556
104315
104065
103814
103560
103305
103056
102813
102575
102347
102123
101908
101694
101483
101271
101070
100880
100699
100523
100347
100161
99983.6
99870.8
99791.7
99682
99643.4
99695.3
99838.9
100073
100352
100667
101066
101622
102241
102916
103673
104541
105402
106219
106982
107716
108436
109129
109788
110405
110918
111341
104255
104257
104259
104262
104264
104267
104270
104274
104277
104280
104283
104284
104285
104284
104281
104276
104270
104261
104249
104234
104215
104193
104167
104137
104101
104060
104013
103959
103898
103830
103755
103673
103584
103488
103385
103275
103158
103035
102906
102771
102630
102484
102334
102179
102021
101861
101698
101533
101368
101203
101038
100875
100713
100553
100396
100243
100094
99949.1
99809
99674.6
99546.3
99424.5
99309.8
99202.9
99104.1
99013.6
98931.7
98858.8
98795.7
98742.5
98700.1
98668.9
98649.4
98642
98647.2
98665.4
98697
98742.2
98801
98874
98961.2
99063.1
99179.6
99310.5
99455.7
99614.3
99785.3
99968.1
100162
100366
100579
100800
101028
101260
101497
101734
101970
102204
102435
102663
102887
103105
103318
103525
103725
103917
104103
104285
104461
104629
104786
104928
105058
105176
105284
105382
105471
105549
105617
105676
105722
105751
105768
105773
105769
105744
105696
105630
105537
105420
105275
105100
104905
104689
104454
104208
103958
103704
103449
103202
102964
102735
102517
102310
102106
101906
101714
101524
101340
101172
101020
100877
100745
100608
100468
100395
100377
100322
100318
100385
100537
100773
101069
101396
101790
102327
102940
103559
104360
105185
105971
106736
107450
108163
108821
109450
110063
110618
111079
111444
104098
104101
104103
104106
104108
104111
104115
104119
104124
104128
104131
104133
104134
104135
104133
104130
104125
104118
104108
104095
104078
104057
104032
104002
103966
103925
103878
103824
103764
103697
103623
103542
103455
103360
103258
103150
103035
102913
102786
102652
102513
102370
102222
102070
101914
101756
101596
101435
101273
101111
100950
100790
100631
100476
100322
100173
100027
99885.1
99748.3
99617.1
99491.7
99372.7
99260.6
99156.1
99059.8
98971.8
98892.4
98822
98760.9
98709.6
98669
98639.7
98621.9
98616.2
98623.1
98642.8
98675.6
98721.8
98781.8
98855.3
98942.6
99044
99159.8
99289.9
99434
99591.6
99761.4
99942.1
100133
100335
100546
100762
100987
101216
101450
101685
101918
102148
102375
102599
102821
103039
103252
103459
103659
103852
104041
104224
104403
104575
104736
104884
105018
105141
105253
105358
105454
105539
105614
105681
105738
105782
105815
105834
105839
105824
105784
105729
105645
105536
105400
105233
105044
104836
104606
104370
104121
103869
103612
103366
103132
102910
102702
102509
102325
102142
101968
101806
101645
101492
101366
101260
101182
101109
101015
100977
101020
101043
101070
101167
101337
101587
101905
102226
102642
103133
103734
104340
105118
105878
106606
107299
107973
108655
109279
109839
110407
110880
111275
111567
103919
103922
103924
103927
103930
103934
103939
103944
103949
103954
103958
103962
103965
103967
103967
103966
103962
103956
103948
103936
103920
103900
103876
103846
103811
103770
103723
103670
103610
103544
103472
103392
103305
103212
103112
103005
102892
102772
102647
102515
102379
102237
102091
101942
101789
101634
101478
101320
101162
101003
100846
100689
100535
100383
100234
100088
99946.2
99808.4
99675.3
99547.3
99424.9
99308.9
99199.7
99098
99004.4
98919
98842.3
98774.5
98716.1
98667.2
98628.7
98601.3
98585.2
98581.2
98589.8
98611.4
98645.8
98693
98753.7
98828.5
98916.8
99018.2
99133.3
99262.1
99404.8
99561
99729.4
99908.4
100097
100296
100503
100714
100937
101163
101393
101624
101853
102079
102304
102524
102743
102960
103174
103382
103582
103775
103966
104151
104331
104506
104672
104826
104965
105094
105213
105325
105429
105522
105608
105685
105754
105810
105856
105888
105905
105902
105877
105831
105760
105658
105531
105372
105193
104992
104774
104540
104297
104055
103791
103547
103316
103101
102902
102717
102549
102391
102237
102104
101976
101843
101738
101670
101642
101641
101615
101614
101699
101817
101873
102031
102225
102508
102829
103145
103567
104028
104603
105253
105913
106622
107288
107917
108545
109204
109793
110300
110804
111187
111505
111704
103718
103720
103723
103726
103731
103736
103741
103747
103754
103760
103765
103771
103775
103779
103782
103782
103780
103776
103768
103757
103742
103723
103699
103670
103635
103595
103549
103496
103438
103373
103301
103222
103137
103045
102947
102842
102731
102614
102492
102363
102228
102088
101946
101799
101649
101497
101343
101189
101033
100878
100724
100572
100422
100274
100130
99988.7
99851
99717.4
99588.2
99463.9
99344.9
99232
99125.9
99026.8
98935.9
98853.3
98779.1
98713.7
98657.5
98611.3
98575.4
98550.5
98537.2
98535.6
98546.2
98569.4
98605.5
98654.7
98716.3
98791.2
98880.1
98982.5
99097.9
99225.8
99367
99521
99687.2
99864.7
100052
100247
100449
100659
100877
101100
101326
101552
101777
101999
102220
102439
102655
102869
103082
103290
103490
103685
103877
104064
104245
104422
104594
104753
104898
105034
105161
105281
105394
105498
105595
105683
105764
105834
105893
105938
105968
105978
105966
105931
105870
105780
105663
105514
105344
105153
104947
104717
104476
104248
103980
103740
103508
103297
103110
102936
102775
102641
102513
102402
102310
102219
102146
102111
102118
102179
102239
102283
102405
102606
102721
102931
103191
103488
103817
104086
104567
104996
105529
106205
106791
107415
108013
108589
109175
109811
110345
110814
111228
111521
111746
111837
103496
103498
103502
103506
103511
103517
103523
103530
103538
103545
103552
103560
103566
103571
103576
103578
103578
103575
103568
103558
103544
103526
103503
103474
103440
103400
103355
103303
103246
103182
103111
103034
102951
102861
102765
102663
102554
102440
102320
102194
102062
101926
101785
101639
101491
101342
101191
101039
100888
100736
100586
100438
100292
100150
100010
99873.1
99740.2
99611.1
99486.2
99365.8
99250.6
99141
99037.9
98941.9
98853.7
98773.9
98702.2
98639.3
98585.6
98541.4
98508.3
98485.8
98475
98476.2
98489.6
98515.3
98553.2
98604
98667.7
98743.8
98832.6
98935.1
99051
99179.1
99319.2
99471.2
99634.8
99810
99994.9
100188
100385
100592
100807
101026
101248
101470
101690
101907
102124
102340
102554
102766
102978
103185
103384
103579
103773
103962
104144
104323
104498
104663
104816
104958
105095
105225
105348
105463
105571
105672
105765
105849
105922
105983
106024
106051
106048
106024
105971
105893
105785
105649
105489
105308
105108
104895
104652
104443
104171
103933
103702
103488
103308
103152
103005
102880
102781
102692
102625
102580
102557
102567
102607
102709
102849
102949
103116
103384
103597
103827
104188
104502
104852
105073
105566
106016
106512
107154
107696
108218
108761
109285
109849
110430
110922
111344
111651
111848
111964
111952
103255
103258
103262
103266
103272
103279
103286
103295
103303
103312
103321
103330
103338
103345
103351
103354
103355
103354
103349
103340
103327
103309
103286
103259
103226
103187
103143
103092
103036
102973
102904
102829
102747
102659
102566
102466
102361
102249
102131
102006
101876
101741
101601
101459
101315
101169
101022
100874
100726
100578
100432
100288
100147
100009
99873
99741.1
99612.9
99488.2
99367.5
99251
99139.6
99033.6
98933.8
98840.9
98755.6
98678.4
98609.6
98549.7
98499.4
98458.4
98427.1
98407.2
98398.9
98402.3
98417.7
98446
98486.7
98539.1
98604.3
98682.4
98772.5
98875.1
98991
99119.3
99258.8
99409.3
99570.6
99743.1
99926
100116
100311
100513
100724
100939
101157
101374
101590
101804
102017
102229
102440
102651
102860
103065
103263
103458
103652
103842
104026
104207
104385
104557
104717
104867
105014
105154
105288
105414
105534
105649
105753
105851
105935
106010
106064
106102
106117
106103
106063
105994
105894
105770
105624
105454
105258
105057
104828
104613
104368
104119
103892
103681
103495
103348
103223
103109
103026
102975
102928
102912
102937
103009
103105
103241
103437
103609
103823
104138
104455
104746
105136
105539
105922
106180
106587
107064
107562
108109
108572
109025
109503
109982
110529
111041
111488
111847
112051
112147
112146
112043
102996
102999
103003
103009
103015
103023
103032
103041
103051
103062
103073
103083
103093
103101
103108
103113
103115
103114
103110
103102
103090
103074
103053
103026
102994
102957
102914
102865
102809
102748
102681
102607
102527
102442
102350
102253
102150
102040
101924
101802
101675
101542
101406
101266
101125
100981
100837
100692
100548
100405
100263
100123
99985.4
99851.3
99720
99592.1
99468.1
99347.9
99231.2
99118.6
99010.5
98908
98811.7
98722
98639.7
98565.1
98498.7
98440.2
98393
98355.7
98328.3
98311.8
98306.5
98313.1
98331.4
98361.2
98403.8
98458.5
98525
98604.8
98696.9
98800.6
98916.6
99045.1
99184.6
99334.3
99493.3
99660.6
99843.5
100031
100223
100421
100627
100838
101051
101264
101475
101685
101895
102104
102312
102520
102726
102929
103126
103320
103514
103705
103891
104074
104255
104433
104601
104759
104916
105067
105212
105348
105481
105608
105725
105836
105933
106022
106088
106138
106167
106163
106131
106070
105981
105871
105737
105577
105389
105199
104981
104763
104530
104292
104058
103862
103671
103519
103416
103319
103243
103237
103226
103234
103291
103414
103580
103770
103989
104244
104519
104862
105248
105663
106041
106526
106979
107271
107649
108107
108582
109034
109393
109806
110229
110662
111174
111624
112004
112296
112406
112401
112285
112098
102718
102722
102727
102733
102741
102750
102760
102772
102783
102796
102808
102820
102831
102840
102849
102855
102858
102859
102856
102849
102838
102823
102802
102777
102747
102711
102669
102621
102568
102508
102442
102370
102292
102208
102119
102024
101923
101816
101703
101584
101459
101329
101195
101058
100919
100779
100637
100496
100355
100216
100078
99941.8
99808.5
99678.3
99551.1
99426.9
99306.3
99189.8
99077
98967.9
98863.3
98764
98670.9
98584.6
98505.5
98434
98371.1
98317.4
98270.9
98235.2
98210.5
98197.5
98195.6
98204.9
98226.6
98259.5
98304
98360.7
98429.1
98509.9
98604
98709.2
98825.7
98954.3
99094.3
99244.4
99403.6
99563.1
99744.3
99930.2
100120
100315
100516
100723
100931
101139
101346
101552
101757
101963
102169
102373
102576
102775
102971
103165
103358
103549
103738
103923
104106
104290
104466
104634
104798
104961
105114
105262
105408
105547
105679
105801
105912
106011
106090
106152
106189
106196
106172
106119
106042
105944
105818
105666
105491
105306
105100
104884
104657
104429
104191
104009
103823
103667
103575
103497
103435
103438
103486
103528
103615
103769
103987
104249
104494
104806
105169
105536
105979
106489
106925
107451
107890
108220
108635
109097
109503
109835
110144
110532
110911
111304
111768
112162
112472
112684
112704
112594
112372
112115
102424
102428
102434
102442
102451
102461
102473
102486
102500
102514
102528
102541
102554
102565
102574
102581
102586
102588
102586
102580
102571
102557
102538
102514
102485
102451
102410
102364
102312
102254
102189
102119
102043
101961
101874
101781
101682
101577
101466
101349
101227
101100
100969
100835
100699
100561
100423
100286
100148
100012
99878
99745.8
99615.9
99489
99365.2
99244.2
99126.7
99013.4
98903.9
98798.2
98696.7
98600.6
98510.6
98427.3
98351
98282.4
98222.4
98171
98128.1
98095.7
98074.4
98064.4
98066.3
98079.1
98102.9
98138.3
98185.2
98244.3
98315.4
98397.8
98493.1
98599.8
98717.2
98845.7
98985.4
99135.3
99292.9
99453.5
99630.4
99813.8
100001
100192
100389
100592
100796
100999
101201
101403
101604
101806
102008
102210
102410
102605
102799
102991
103183
103375
103566
103754
103940
104129
104313
104489
104660
104834
104995
105156
105313
105463
105606
105740
105864
105972
106062
106132
106179
106195
106180
106138
106074
105980
105861
105717
105558
105377
105181
104974
104754
104531
104300
104105
103933
103780
103699
103638
103589
103601
103681
103774
103884
104074
104321
104660
104934
105280
105736
106140
106619
107176
107695
108305
108677
109056
109509
109983
110288
110541
110863
111245
111560
111909
112312
112634
112868
112990
112920
112702
112399
112077
102112
102117
102124
102134
102145
102157
102171
102186
102202
102218
102234
102249
102263
102276
102287
102295
102301
102304
102304
102299
102291
102278
102261
102239
102211
102178
102139
102095
102044
101987
101924
101856
101781
101701
101615
101524
101427
101324
101215
101101
100981
100857
100729
100598
100465
100330
100196
100061
99927.3
99794.4
99663.6
99534.8
99407.7
99283.5
99162.6
99044.4
98929.4
98818.6
98712.1
98609.4
98510.8
98417.4
98330.3
98250
98176.8
98111.1
98053.4
98004.3
97964.6
97935.1
97917.2
97910.8
97915.7
97932
97959
97997.4
98046.9
98108
98181.7
98266.4
98363
98471.5
98590.3
98719.1
98857.2
99007.2
99164.3
99326.1
99499.4
99680
99864.2
100052
100245
100443
100643
100842
101039
101236
101434
101632
101830
102029
102225
102419
102611
102801
102992
103184
103377
103567
103757
103948
104140
104323
104502
104684
104855
105029
105192
105352
105506
105649
105786
105902
106000
106080
106136
106158
106149
106115
106055
105968
105857
105724
105571
105396
105212
105008
104789
104569
104347
104153
103982
103840
103771
103722
103695
103717
103815
103945
104101
104311
104578
104992
105303
105653
106183
106659
107121
107729
108289
108984
109374
109793
110255
110688
110909
111141
111488
111832
112091
112421
112755
113009
113157
113183
113021
112715
112353
111936
101785
101790
101799
101810
101823
101838
101855
101873
101891
101910
101928
101945
101962
101976
101989
101999
102006
102010
102011
102008
102001
101989
101973
101953
101927
101895
101858
101815
101766
101711
101649
101582
101509
101430
101346
101256
101161
101059
100952
100840
100723
100601
100476
100348
100218
100087
99955.1
99823.9
99693.1
99562.6
99435.2
99309.2
99184.4
99062.5
98943.9
98828.1
98715.1
98606.5
98502.4
98402.1
98305.8
98214.8
98130.1
98052.4
97981.9
97918.1
97864
97817.6
97780.9
97754.9
97740
97737.1
97745.1
97764.4
97794.3
97835.5
97888.1
97951.8
98027.5
98114.6
98212.5
98322.7
98443.4
98574.8
98706.9
98858.7
99016.1
99178.2
99348.8
99527
99708.7
99893.3
100082
100276
100472
100666
100859
101052
101245
101440
101635
101830
102023
102215
102404
102593
102783
102976
103169
103362
103554
103748
103946
104136
104325
104508
104692
104873
105045
105210
105375
105529
105673
105794
105900
105988
106046
106074
106072
106048
105991
105910
105812
105684
105529
105360
105181
104977
104754
104533
104323
104139
103981
103839
103768
103725
103730
103765
103881
104032
104229
104455
104778
105187
105564
105957
106487
107054
107549
108146
108726
109450
109934
110353
110798
111196
111361
111571
111935
112243
112471
112805
113053
113236
113322
113248
112995
112625
112190
111660
101440
101447
101458
101471
101488
101506
101526
101547
101569
101591
101612
101632
101651
101667
101682
101693
101702
101708
101710
101708
101702
101692
101677
101658
101633
101603
101567
101526
101478
101425
101365
101299
101227
101150
101067
100979
100884
100785
100679
100569
100454
100335
100213
100087
99960.2
99832.2
99702.8
99574.7
99447.1
99315.2
99193.1
99069.3
98945.5
98825.5
98709.2
98595.2
98484.6
98378
98275.3
98176.6
98082.5
97993.6
97911.3
97836
97768.4
97708.9
97655.2
97611.1
97577.1
97554.3
97542.9
97543.4
97555
97577.1
97609.8
97653.1
97708
97774.4
97852.2
97941.5
98041.2
98151.5
98273.5
98404.1
98541.7
98691.1
98848.1
99009.8
99177.9
99353.9
99533.5
99715
99900
100090
100282
100472
100660
100849
101039
101230
101422
101613
101804
101992
102179
102368
102558
102749
102941
103136
103330
103526
103730
103927
104122
104309
104502
104688
104869
105040
105214
105373
105520
105650
105759
105849
105912
105946
105950
105926
105876
105795
105701
105579
105427
105258
105073
104870
104654
104439
104242
104067
103916
103782
103702
103661
103687
103736
103865
104018
104268
104511
104870
105273
105721
106154
106672
107314
107864
108417
109019
109739
110268
110696
111146
111498
111650
111861
112246
112501
112730
113030
113179
113292
113320
113159
112838
112412
111893
111267
101076
101084
101097
101115
101136
101160
101185
101211
101238
101263
101288
101312
101333
101352
101368
101381
101392
101399
101402
101402
101397
101389
101375
101357
101334
101305
101270
101230
101183
101131
101073
101008
100938
100862
100780
100693
100600
100502
100398
100290
100177
100060
99940.3
99817.3
99692.6
99566.9
99439.9
99313
99186.6
99060.3
98936.3
98813.7
98692.7
98574.5
98459.2
98346.8
98237.6
98132.4
98031.3
97934
97841.3
97754.6
97674.4
97601.2
97535.4
97477.4
97426.8
97385.4
97354.6
97335
97326.8
97329.5
97343.6
97368
97403.6
97449.5
97506.1
97575.4
97655
97745.5
97848.7
97958.3
98081.7
98213.5
98353.3
98501.9
98658.6
98820.1
98986.5
99160.3
99337.8
99516.7
99698.1
99884.3
100072
100258
100443
100627
100812
101000
101189
101376
101563
101750
101937
102123
102312
102500
102692
102889
103085
103283
103489
103694
103890
104084
104282
104474
104663
104841
105019
105180
105330
105462
105571
105666
105733
105765
105772
105746
105694
105620
105522
105405
105259
105086
104892
104684
104471
104265
104072
103901
103753
103631
103553
103523
103553
103619
103750
103923
104195
104466
104852
105233
105756
106204
106734
107391
107967
108488
109125
109817
110353
110824
111284
111578
111751
111973
112362
112528
112806
113047
113127
113200
113143
112910
112551
112072
111483
110798
100745
100756
100774
100798
100826
100858
100890
100923
100954
100984
101012
101038
101062
101083
101101
101116
101127
101135
101139
101139
101136
101128
101115
101098
101075
101047
101013
100974
100928
100877
100819
100755
100686
100611
100530
100443
100351
100253
100151
100044
99932.4
99816.8
99698.6
99577.2
99453.8
99329.2
99203.7
99077.9
98952.4
98827.3
98703.8
98582.2
98462.4
98345.1
98230.4
98118.8
98010.5
97906
97805.5
97709
97617.8
97532.7
97454.1
97381.3
97316.9
97260
97211.2
97171.8
97144.2
97126.6
97120.6
97125.7
97140.7
97166.9
97203.8
97253.1
97309
97380.8
97462.4
97553.6
97657.8
97769.9
97893.6
98025.9
98166.3
98314.5
98470.7
98631.7
98796.8
98968.4
99143.8
99320.5
99498.8
99681.4
99865.1
100048
100229
100408
100589
100773
100958
101143
101327
101511
101697
101882
102069
102255
102447
102645
102841
103042
103247
103456
103654
103855
104054
104249
104444
104626
104802
104965
105111
105245
105357
105452
105515
105545
105554
105528
105473
105404
105308
105181
105031
104856
104657
104445
104224
104015
103822
103655
103516
103400
103329
103309
103345
103420
103543
103742
104017
104309
104701
105079
105628
106093
106650
107278
107832
108392
109025
109664
110229
110734
111176
111428
111618
111858
112240
112367
112678
112841
112870
112917
112780
112501
112138
111617
110982
110277
100470
100488
100510
100543
100579
100619
100657
100696
100732
100766
100797
100825
100850
100873
100892
100907
100919
100927
100932
100933
100929
100921
100909
100892
100869
100841
100808
100769
100723
100672
100615
100552
100482
100407
100326
100240
100149
100051
99949.1
99842.9
99732
99617.1
99499.5
99379
99256.3
99132.4
99007.4
98882
98756.7
98632.3
98509.2
98387.7