/*--------------------------------*- C++ -*----------------------------------*\
| =========                 |                                                 |
| \\      /  F ield         | OpenFOAM: The Open Source CFD Toolbox           |
|  \\    /   O peration     | Version:  dev                                   |
|   \\  /    A nd           | Web:      http://www.openfoam.org               |
|    \\/     M anipulation  |                                                 |
\*---------------------------------------------------------------------------*/
FoamFile
{
    version     2.0;
    format      ascii;
    class       surfaceScalarField;
    object      phi;
    location    "9.16";
}
// * * * * * * * * * * * * * * * * * * * * * * * * * * * * * * * * * * * * * //

dimensions      [1 0 -1 0 0 0 0];

internalField   nonuniform List<scalar> 
24170
(
2.72825e-06
1.76163e-06
2.44565e-06
1.1928e-06
2.60137e-06
6.94525e-07
2.9483e-06
4.40391e-07
3.32249e-06
3.45569e-07
3.67944e-06
2.99341e-07
3.97626e-06
2.93561e-07
4.3024e-06
2.03046e-07
4.48847e-06
2.81512e-07
4.79907e-06
1.00973e-07
4.87014e-06
2.8436e-07
5.35005e-06
-1.70362e-07
5.09324e-06
5.106e-07
6.32171e-06
-1.00336e-06
5.60719e-06
8.85697e-07
6.528e-06
-7.81815e-07
9.29378e-06
-2.66378e-06
-1.54099e-06
1.07875e-05
4.57219e-06
2.15349e-06
4.60629e-06
2.12087e-06
4.75924e-06
1.45494e-06
4.98514e-06
1.06178e-06
5.29461e-06
8.13197e-07
5.53273e-06
7.66296e-07
5.9211e-06
5.4027e-07
6.07031e-06
6.18859e-07
6.49831e-06
3.54004e-07
6.63355e-06
4.01698e-07
7.09941e-06
1.96381e-07
7.73102e-06
-4.73697e-07
7.8273e-06
6.77024e-07
9.56574e-06
-2.49452e-06
9.29618e-06
1.30346e-06
1.16558e-05
-2.94608e-06
1.01698e-05
-1.06047e-06
-8.27043e-06
1.68591e-05
5.32982e-06
2.14759e-06
5.89858e-06
2.61689e-06
6.42443e-06
1.93996e-06
6.79222e-06
1.63071e-06
7.19961e-06
1.26551e-06
7.41189e-06
1.33327e-06
7.82445e-06
8.30981e-07
7.91511e-06
1.15229e-06
8.29536e-06
5.29095e-07
8.81386e-06
3.63631e-07
8.91328e-06
5.18604e-07
1.00671e-05
-1.27169e-06
9.96338e-06
1.08669e-06
1.09987e-05
-3.27927e-06
1.11303e-05
1.36927e-06
1.26268e-05
-4.26832e-06
1.13998e-05
2.60136e-07
-1.01838e-05
1.33616e-05
5.73375e-06
2.56187e-06
6.80156e-06
2.71991e-06
7.59135e-06
2.26306e-06
8.26333e-06
1.98827e-06
8.80278e-06
1.67327e-06
9.35425e-06
1.63928e-06
9.7191e-06
1.23997e-06
1.03866e-05
1.17291e-06
1.04653e-05
1.0595e-06
1.13771e-05
-1.52864e-08
1.1263e-05
1.09413e-06
1.19517e-05
-1.56406e-06
1.19501e-05
1.42184e-06
1.2323e-05
-3.38065e-06
1.26141e-05
1.32608e-06
1.34326e-05
-4.95057e-06
1.17563e-05
2.03065e-06
-1.23992e-05
1.40356e-05
6.01712e-06
3.01273e-06
7.47879e-06
2.54316e-06
8.25462e-06
2.71221e-06
9.35497e-06
2.01582e-06
9.87752e-06
2.19228e-06
1.08653e-05
1.59309e-06
1.11274e-05
1.82898e-06
1.21353e-05
9.21047e-07
1.2174e-05
1.68971e-06
1.29424e-05
-1.9765e-07
1.29468e-05
1.59712e-06
1.33544e-05
-1.537e-06
1.3517e-05
1.62708e-06
1.34607e-05
-3.01738e-06
1.36588e-05
1.38941e-06
1.47577e-05
-5.86918e-06
1.36291e-05
3.31563e-06
-1.33511e-05
1.46622e-05
6.45774e-06
3.6977e-06
7.92242e-06
2.49148e-06
8.67087e-06
3.30487e-06
9.97289e-06
1.95082e-06
1.05025e-05
2.80592e-06
1.15879e-05
1.54192e-06
1.18686e-05
2.48475e-06
1.28552e-05
7.61974e-07
1.29781e-05
2.30159e-06
1.37229e-05
-2.98848e-07
1.38785e-05
1.99569e-06
1.43889e-05
-1.5695e-06
1.46438e-05
1.77256e-06
1.49118e-05
-2.94207e-06
1.53296e-05
1.23435e-06
1.54701e-05
-5.74577e-06
1.73757e-05
1.59473e-06
-1.07143e-05
1.47544e-05
7.46815e-06
4.10196e-06
8.8888e-06
2.61658e-06
9.55242e-06
4.10524e-06
1.08542e-05
2.0063e-06
1.14331e-05
3.47575e-06
1.26069e-05
1.50134e-06
1.30478e-05
3.06561e-06
1.3994e-05
7.21508e-07
1.43641e-05
2.74005e-06
1.5033e-05
-2.66355e-07
1.55053e-05
2.1334e-06
1.59144e-05
-1.46011e-06
1.65628e-05
1.56753e-06
1.66555e-05
-2.66e-06
1.75768e-05
6.14553e-07
1.66234e-05
-4.5325e-06
1.88466e-05
-4.19778e-07
-5.76819e-06
1.40523e-05
5.71207e-06
4.50608e-06
6.80101e-06
2.72245e-06
7.48757e-06
4.55176e-06
8.44977e-06
2.09483e-06
9.00098e-06
3.88867e-06
9.87345e-06
1.50536e-06
1.03017e-05
3.42463e-06
1.09413e-05
7.85669e-07
1.13302e-05
2.97518e-06
1.17188e-05
-1.10431e-07
1.21932e-05
2.12903e-06
1.22866e-05
-1.15155e-06
1.29122e-05
1.28665e-06
1.27252e-05
-2.18276e-06
1.34984e-05
7.77498e-08
1.26496e-05
-3.49756e-06
1.3473e-05
-1.08179e-06
-4.04008e-06
1.18857e-05
6.74714e-06
4.87794e-06
7.96528e-06
2.88209e-06
8.86483e-06
4.95976e-06
9.83275e-06
2.33906e-06
1.05928e-05
4.24175e-06
1.14026e-05
1.70634e-06
1.20191e-05
3.71724e-06
1.26039e-05
1.01517e-06
1.3206e-05
3.09112e-06
1.35294e-05
1.93984e-07
1.41204e-05
2.08031e-06
1.41661e-05
-7.30587e-07
1.48059e-05
1.04471e-06
1.45411e-05
-1.58573e-06
1.51402e-05
-2.46749e-07
1.43922e-05
-2.52223e-06
1.50176e-05
-1.52059e-06
-2.7669e-06
1.38912e-05
7.9281e-06
5.20424e-06
9.10724e-06
3.28579e-06
1.03731e-05
5.19794e-06
1.13364e-05
2.76967e-06
1.24289e-05
4.43077e-06
1.32134e-05
2.08222e-06
1.41507e-05
3.83049e-06
1.46502e-05
1.45185e-06
1.54975e-05
3.06831e-06
1.57568e-05
6.56783e-07
1.64382e-05
2.02374e-06
1.64152e-05
-1.68349e-07
1.70312e-05
8.83136e-07
1.67761e-05
-9.48918e-07
1.72636e-05
-4.14189e-07
1.66703e-05
-1.66447e-06
1.69134e-05
-1.5463e-06
-2.00338e-06
1.63243e-05
9.32248e-06
5.73799e-06
1.04614e-05
3.95762e-06
1.2003e-05
5.37515e-06
1.30402e-05
3.32878e-06
1.4367e-05
4.57267e-06
1.51388e-05
2.64106e-06
1.62333e-05
3.93978e-06
1.6747e-05
2.0057e-06
1.76836e-05
3.07707e-06
1.80175e-05
1.1473e-06
1.87813e-05
1.97695e-06
1.89354e-05
2.94446e-07
1.94942e-05
8.41502e-07
1.94458e-05
-4.64167e-07
1.97056e-05
-3.05731e-07
1.94109e-05
-1.06362e-06
1.9411e-05
-1.29752e-06
-1.45616e-06
1.9064e-05
1.07676e-05
6.11478e-06
1.21684e-05
4.61459e-06
1.40227e-05
5.47242e-06
1.51365e-05
4.0336e-06
1.66209e-05
4.75397e-06
1.74335e-05
3.33916e-06
1.87255e-05
4.01539e-06
1.93033e-05
2.64287e-06
2.03793e-05
3.07501e-06
2.07068e-05
1.75232e-06
2.14937e-05
2.00488e-06
2.1639e-05
8.486e-07
2.21774e-05
8.94744e-07
2.21339e-05
7.63271e-08
2.23865e-05
-1.41573e-07
2.22122e-05
-5.42121e-07
2.21292e-05
-9.31518e-07
-1.03709e-06
2.19411e-05
1.30188e-05
6.31989e-06
1.44152e-05
5.52909e-06
1.62922e-05
5.79274e-06
1.7526e-05
4.84881e-06
1.91454e-05
5.00846e-06
2.01233e-05
4.07046e-06
2.14835e-05
4.19247e-06
2.22079e-05
3.28514e-06
2.32848e-05
3.20681e-06
2.377e-05
2.31828e-06
2.45654e-05
2.12507e-06
2.48328e-05
1.36378e-06
2.52919e-05
1.10019e-06
2.53765e-05
5.46818e-07
2.54955e-05
2.07354e-07
2.54209e-05
-7.89439e-08
2.52189e-05
-4.15185e-07
-6.01199e-07
2.50397e-05
1.46715e-05
6.52692e-06
1.65752e-05
6.19687e-06
1.86619e-05
6.15748e-06
2.0162e-05
5.62924e-06
2.18758e-05
5.38266e-06
2.31624e-05
4.68526e-06
2.46896e-05
4.36995e-06
2.57504e-05
3.74723e-06
2.69027e-05
3.39211e-06
2.75716e-05
2.81492e-06
2.82989e-05
2.40879e-06
2.86281e-05
1.89806e-06
2.89738e-05
1.48681e-06
2.90584e-05
1.07217e-06
2.90991e-05
6.78194e-07
2.90504e-05
3.91632e-07
2.88619e-05
1.1776e-07
-1.06567e-07
2.8641e-05
1.71918e-05
7.13208e-06
1.92991e-05
6.91134e-06
2.15371e-05
6.60947e-06
2.34945e-05
6.1673e-06
2.54135e-05
5.75151e-06
2.69948e-05
5.17868e-06
2.85085e-05
4.71535e-06
2.97062e-05
4.20612e-06
3.08022e-05
3.7477e-06
3.16245e-05
3.26032e-06
3.23369e-05
2.78503e-06
3.28391e-05
2.32611e-06
3.32264e-05
1.88487e-06
3.34693e-05
1.48293e-06
3.35495e-05
1.14033e-06
3.35638e-05
8.17046e-07
3.3427e-05
6.0884e-07
3.68461e-07
3.32299e-05
1.9956e-05
7.45067e-06
2.25876e-05
7.33477e-06
2.51427e-05
6.94399e-06
2.74493e-05
6.53354e-06
2.9525e-05
6.12118e-06
3.12908e-05
5.6186e-06
3.28587e-05
5.12295e-06
3.42137e-05
4.59736e-06
3.53997e-05
4.0894e-06
3.63825e-05
3.60473e-06
3.71622e-05
3.13819e-06
3.77317e-05
2.72229e-06
3.80947e-05
2.32777e-06
3.82788e-05
1.9643e-06
3.83162e-05
1.6449e-06
3.81938e-05
1.37255e-06
3.7996e-05
1.14417e-06
8.66614e-07
3.7753e-05
2.31523e-05
7.74599e-06
2.59813e-05
7.6842e-06
2.86795e-05
7.24507e-06
3.11738e-05
6.80673e-06
3.35079e-05
6.30164e-06
3.56568e-05
5.73125e-06
3.76314e-05
5.1622e-06
3.93643e-05
4.63014e-06
4.08169e-05
4.17632e-06
4.19773e-05
3.76377e-06
4.28352e-05
3.40067e-06
4.34387e-05
3.05571e-06
4.38032e-05
2.73234e-06
4.3981e-05
2.41022e-06
4.40178e-05
2.09635e-06
4.39534e-05
1.81031e-06
4.38115e-05
1.56032e-06
1.351e-06
4.35143e-05
2.26935e-05
7.78296e-06
2.565e-05
7.48782e-06
2.84842e-05
7.0134e-06
3.10409e-05
6.63592e-06
3.33347e-05
6.16182e-06
3.54127e-05
5.5839e-06
3.72699e-05
5.00258e-06
3.8861e-05
4.51878e-06
4.01738e-05
4.13449e-06
4.12028e-05
3.80488e-06
4.19878e-05
3.50806e-06
4.25744e-05
3.1888e-06
4.30118e-05
2.86764e-06
4.33282e-05
2.53283e-06
4.35161e-05
2.23268e-06
4.36107e-05
1.93711e-06
4.36089e-05
1.69362e-06
1.47781e-06
4.35366e-05
2.04135e-05
7.30664e-06
2.27972e-05
7.15817e-06
2.51264e-05
6.6246e-06
2.73643e-05
6.16734e-06
2.94435e-05
5.67811e-06
3.12784e-05
5.16122e-06
3.28104e-05
4.69919e-06
3.40861e-05
4.29927e-06
3.51201e-05
3.98177e-06
3.59936e-05
3.65808e-06
3.67216e-05
3.36103e-06
3.72952e-05
3.06306e-06
3.77451e-05
2.75143e-06
3.80583e-05
2.44772e-06
3.82706e-05
2.15832e-06
3.83594e-05
1.9036e-06
3.83541e-05
1.68791e-06
1.48863e-06
3.82731e-05
1.84412e-05
6.85604e-06
2.05247e-05
6.59229e-06
2.26161e-05
5.97031e-06
2.45828e-05
5.5133e-06
2.63501e-05
5.08185e-06
2.78461e-05
4.68579e-06
2.90949e-05
4.32692e-06
3.01588e-05
3.96769e-06
3.10634e-05
3.67517e-06
3.18527e-05
3.34282e-06
3.25227e-05
3.04832e-06
3.30613e-05
2.77712e-06
3.34693e-05
2.50285e-06
3.37523e-05
2.24135e-06
3.39126e-05
2.00155e-06
3.39794e-05
1.77789e-06
3.39686e-05
1.58674e-06
1.42782e-06
3.38735e-05
1.6311e-05
5.92347e-06
1.83372e-05
5.68339e-06
2.01328e-05
5.24417e-06
2.18126e-05
4.80598e-06
2.33697e-05
4.38064e-06
2.47604e-05
4.03368e-06
2.59628e-05
3.74477e-06
2.6951e-05
3.48306e-06
2.77733e-05
3.24852e-06
2.84319e-05
2.97835e-06
2.89624e-05
2.71805e-06
2.93849e-05
2.47129e-06
2.9698e-05
2.22913e-06
2.99177e-05
1.996e-06
3.00536e-05
1.78102e-06
3.01115e-05
1.58496e-06
3.01063e-05
1.41705e-06
1.27603e-06
3.00472e-05
1.4684e-05
5.01113e-06
1.63972e-05
4.80394e-06
1.80296e-05
4.41329e-06
1.95151e-05
4.04444e-06
2.08177e-05
3.71292e-06
2.19683e-05
3.42158e-06
2.2991e-05
3.16327e-06
2.38766e-05
2.94428e-06
2.46726e-05
2.7071e-06
2.53241e-05
2.49648e-06
2.58447e-05
2.28984e-06
2.62532e-05
2.08487e-06
2.65513e-05
1.89185e-06
2.67523e-05
1.70239e-06
2.68666e-05
1.52744e-06
2.69046e-05
1.37061e-06
2.68825e-05
1.22898e-06
1.11924e-06
2.68036e-05
1.30479e-05
4.19241e-06
1.46759e-05
3.81539e-06
1.61999e-05
3.50087e-06
1.75122e-05
3.28226e-06
1.86337e-05
3.06724e-06
1.95912e-05
2.85991e-06
2.04192e-05
2.65086e-06
2.11603e-05
2.43842e-06
2.17943e-05
2.23125e-06
2.23407e-05
2.03789e-06
2.2807e-05
1.84613e-06
2.31844e-05
1.6719e-06
2.34921e-05
1.49852e-06
2.37129e-05
1.35098e-06
2.38534e-05
1.22087e-06
2.39152e-05
1.11028e-06
2.3909e-05
1.01198e-06
9.33226e-07
2.38512e-05
1.1383e-05
3.41102e-06
1.28555e-05
2.84188e-06
1.42556e-05
2.57799e-06
1.5524e-05
2.44041e-06
1.66367e-05
2.31743e-06
1.75994e-05
2.19341e-06
1.84325e-05
2.04496e-06
1.91218e-05
1.90772e-06
1.96774e-05
1.77101e-06
2.01311e-05
1.61907e-06
2.04981e-05
1.45975e-06
2.07966e-05
1.3064e-06
2.10208e-05
1.16394e-06
2.11833e-05
1.04246e-06
2.12821e-05
9.44185e-07
2.13248e-05
8.64465e-07
2.13141e-05
7.98423e-07
7.44472e-07
2.12615e-05
1.04524e-05
2.38919e-06
1.1687e-05
2.00198e-06
1.28719e-05
1.77218e-06
1.39321e-05
1.71678e-06
1.4885e-05
1.64893e-06
1.57487e-05
1.55689e-06
1.65107e-05
1.45126e-06
1.71652e-05
1.36385e-06
1.76973e-05
1.29372e-06
1.81367e-05
1.18303e-06
1.84839e-05
1.06908e-06
1.87561e-05
9.49205e-07
1.89586e-05
8.40789e-07
1.91014e-05
7.47951e-07
1.91859e-05
6.82522e-07
1.92249e-05
6.2682e-07
1.92163e-05
5.90977e-07
5.59612e-07
1.91713e-05
9.23018e-06
1.34814e-06
1.05402e-05
1.01423e-06
1.16409e-05
9.81412e-07
1.25416e-05
1.09081e-06
1.33442e-05
1.07544e-06
1.4091e-05
9.89716e-07
1.47653e-05
9.05362e-07
1.53529e-05
8.53714e-07
1.58414e-05
8.34506e-07
1.62285e-05
7.80649e-07
1.65202e-05
7.21904e-07
1.67317e-05
6.46654e-07
1.68753e-05
5.74981e-07
1.69583e-05
5.16533e-07
1.69951e-05
4.75026e-07
1.6992e-05
4.41137e-07
1.6958e-05
4.21697e-07
3.992e-07
1.69036e-05
8.3232e-06
5.77023e-07
9.49187e-06
1.14913e-07
1.04923e-05
2.3959e-07
1.1336e-05
4.74781e-07
1.20543e-05
5.45448e-07
1.26616e-05
5.2801e-07
1.31745e-05
4.93838e-07
1.36084e-05
4.77195e-07
1.39704e-05
4.87839e-07
1.42517e-05
4.75708e-07
1.44551e-05
4.59718e-07
1.45856e-05
4.26069e-07
1.46553e-05
3.88148e-07
1.46708e-05
3.609e-07
1.46583e-05
3.27907e-07
1.46176e-05
3.06479e-07
1.45643e-05
2.86888e-07
2.6618e-07
1.44995e-05
7.48082e-06
-3.00098e-07
8.4731e-06
-6.46083e-07
9.21364e-06
-2.79657e-07
9.8462e-06
3.60511e-08
1.03535e-05
1.96878e-07
1.07311e-05
2.71633e-07
1.10033e-05
3.04187e-07
1.12036e-05
3.20894e-07
1.13651e-05
3.33499e-07
1.1488e-05
3.25638e-07
1.15791e-05
3.10369e-07
1.16341e-05
2.85444e-07
1.1648e-05
2.64674e-07
1.16364e-05
2.42719e-07
1.15907e-05
2.26949e-07
1.1521e-05
2.15624e-07
1.14421e-05
1.94413e-07
1.80956e-07
1.13474e-05
6.56332e-06
-8.68392e-07
6.91479e-06
-7.9747e-07
7.13783e-06
-3.12238e-07
7.34953e-06
-9.53942e-09
7.54229e-06
1.40455e-07
7.7103e-06
2.07026e-07
7.85992e-06
2.23716e-07
7.99467e-06
2.21295e-07
8.1166e-06
2.14153e-07
8.21494e-06
1.99625e-07
8.28649e-06
1.83753e-07
8.32135e-06
1.7128e-07
8.33342e-06
1.52322e-07
8.31427e-06
1.43785e-07
8.27649e-06
1.31887e-07
8.22514e-06
1.22152e-07
8.16095e-06
1.04372e-07
1.02572e-07
8.07797e-06
4.50066e-06
3.89045e-06
3.75063e-06
3.88993e-06
4.15214e-06
4.45128e-06
4.73648e-06
4.9889e-06
5.20518e-06
5.38002e-06
5.51466e-06
5.6153e-06
5.67835e-06
5.71702e-06
5.73064e-06
5.72379e-06
5.69088e-06
5.64984e-06
-2.08085e-07
-5.44116e-07
-3.09446e-07
-6.66174e-07
-3.32984e-07
-7.54241e-07
-2.89782e-07
-8.26695e-07
-2.02112e-07
-8.74639e-07
-1.02855e-07
-8.88251e-07
-1.95901e-08
-8.72837e-07
3.74611e-08
-8.45773e-07
5.65184e-08
-8.05414e-07
3.1918e-08
-7.57872e-07
-2.57874e-08
-7.19453e-07
-1.18283e-07
-6.77666e-07
-2.41929e-07
-6.38071e-07
-3.76131e-07
-6.18012e-07
-5.45961e-07
-5.71435e-07
-7.25192e-07
-5.50264e-07
-9.06545e-07
-5.34838e-07
-1.13056e-06
-4.76813e-07
-1.4249e-06
-3.90797e-07
-1.75084e-06
-3.43843e-07
-2.07412e-06
-3.30955e-07
-2.40429e-06
-3.07242e-07
-2.77779e-06
-2.45612e-07
-3.19709e-06
-1.80122e-07
-3.62221e-06
-1.51988e-07
-4.0615e-06
-1.16416e-07
-4.58636e-06
-1.7986e-08
-5.09977e-06
-2.58963e-08
-5.37178e-06
-2.56742e-07
-5.27551e-06
-5.97646e-07
-4.97326e-06
-7.753e-07
-4.75515e-06
-6.81066e-07
-4.79926e-06
-4.10671e-07
-5.0382e-06
-1.88324e-07
-5.51865e-06
9.45977e-08
-6.42417e-06
5.35776e-07
-7.87813e-06
1.05956e-06
-9.65848e-06
1.36362e-06
-1.14217e-05
1.35943e-06
-1.30533e-05
1.25518e-06
-1.45351e-05
1.12688e-06
-1.58661e-05
9.93135e-07
-1.70568e-05
8.68928e-07
-1.8119e-05
7.56937e-07
-1.90543e-05
6.4706e-07
-1.98674e-05
5.42845e-07
-2.05676e-05
4.48571e-07
-2.11727e-05
3.73352e-07
-2.17039e-05
3.20457e-07
-2.21746e-05
2.82399e-07
-2.25731e-05
2.34604e-07
-2.29178e-05
2.07344e-07
-2.32125e-05
1.86717e-07
-2.3451e-05
1.62023e-07
-2.36421e-05
1.48245e-07
-2.37822e-05
1.32776e-07
-2.38717e-05
1.20493e-07
-2.39196e-05
1.19463e-07
-2.39145e-05
1.09066e-07
-2.38604e-05
1.04875e-07
-2.37512e-05
9.70877e-08
-2.35865e-05
9.14744e-08
-2.33616e-05
8.28772e-08
-2.30865e-05
8.62631e-08
-2.27611e-05
9.11099e-08
-2.23909e-05
1.02466e-07
-2.19863e-05
1.24676e-07
-2.15546e-05
1.55304e-07
-2.11044e-05
1.95859e-07
-2.06418e-05
2.43728e-07
-2.0139e-05
2.64417e-07
-1.96244e-05
3.14102e-07
-1.91087e-05
3.74505e-07
-1.85687e-05
4.11021e-07
-1.80272e-05
4.70776e-07
-1.74801e-05
5.27457e-07
-1.69228e-05
5.78882e-07
-1.63584e-05
6.33891e-07
-1.57705e-05
6.71986e-07
-1.51648e-05
7.14777e-07
-1.45936e-05
8.12754e-07
-1.40716e-05
9.31535e-07
-1.35725e-05
1.02672e-06
-1.31143e-05
1.14151e-06
-1.26405e-05
1.19918e-06
-1.20665e-05
1.16491e-06
-1.14021e-05
1.13609e-06
-1.06718e-05
1.13061e-06
-9.99658e-06
1.24986e-06
-9.45703e-06
1.45605e-06
-9.04402e-06
1.65625e-06
-8.65781e-06
1.76059e-06
-8.22816e-06
1.79139e-06
-7.786e-06
1.85252e-06
-7.36946e-06
1.95067e-06
-6.9679e-06
2.0358e-06
-6.50253e-06
2.04015e-06
-5.95469e-06
2.02386e-06
-5.46469e-06
2.14374e-06
-5.03588e-06
2.26135e-06
-4.6787e-06
2.38879e-06
-4.35698e-06
2.47091e-06
-4.02952e-06
2.50308e-06
-3.83251e-06
2.67043e-06
-3.74631e-06
2.83389e-06
-3.71815e-06
2.95104e-06
-3.43469e-06
2.73621e-06
-2.23861e-06
1.8319e-06
-3.9776e-07
1.18344e-06
1.41399e-06
1.20072e-06
2.65011e-06
1.75384e-06
3.10191e-06
2.52572e-06
2.94149e-06
3.097e-06
2.1974e-06
3.65832e-06
1.01658e-06
4.14765e-06
-1.8368e-07
4.23572e-06
-1.19914e-06
4.09724e-06
-2.19354e-06
4.11899e-06
-3.48793e-06
4.50208e-06
-5.11377e-06
4.91853e-06
-7.19909e-06
5.44002e-06
-9.59418e-06
5.7899e-06
-1.16438e-05
5.6114e-06
-1.28371e-05
4.94573e-06
-1.32484e-05
4.16292e-06
-1.38081e-05
4.34775e-06
-1.26241e-05
2.78793e-06
-9.7495e-06
1.06812e-06
-8.7425e-06
2.94055e-06
-6.81223e-06
2.24391e-06
-5.7276e-06
3.22143e-06
-5.10132e-06
3.73934e-06
-4.86146e-06
4.18468e-06
-4.55729e-06
4.13422e-06
-4.18197e-06
4.07589e-06
-3.58903e-06
3.86861e-06
-3.28488e-06
4.17821e-06
-3.45505e-06
4.68353e-06
-4.02235e-06
5.12749e-06
-4.90644e-06
5.51877e-06
-6.04742e-06
5.87231e-06
-7.47698e-06
6.26311e-06
-9.12599e-06
6.60565e-06
-1.07491e-05
6.73058e-06
-1.24156e-05
6.92471e-06
-1.39719e-05
6.99875e-06
-1.52077e-05
6.92727e-06
-1.6243e-05
7.00982e-06
-1.73041e-05
7.35268e-06
-1.82777e-05
7.61924e-06
-1.92423e-05
8.0076e-06
-2.00382e-05
8.28266e-06
-2.06353e-05
8.53962e-06
-2.0364e-05
8.17528e-06
-2.01395e-05
8.61383e-06
-2.01011e-05
9.33004e-06
-2.01593e-05
9.71596e-06
-1.97669e-05
9.64762e-06
-1.85699e-05
9.5436e-06
-1.70138e-05
9.4298e-06
-1.47696e-05
9.15346e-06
-1.20065e-05
9.24387e-06
-9.93676e-06
1.01572e-05
-1.0795e-05
1.27819e-05
-1.18078e-05
1.34029e-05
-1.26351e-05
1.34367e-05
-1.11828e-05
1.16317e-05
-1.00374e-05
1.21412e-05
-9.77161e-06
1.33781e-05
-4.49757e-06
8.50326e-06
7.28314e-07
8.83568e-06
3.34713e-06
1.15362e-05
5.82939e-06
1.19975e-05
8.70651e-06
1.15661e-05
1.13254e-05
1.19001e-05
1.37402e-05
1.2045e-05
1.59311e-05
1.20283e-05
1.76492e-05
1.23799e-05
1.83515e-05
1.35035e-05
1.38719e-05
1.88984e-05
-2.62308e-07
-1.02437e-06
-4.1233e-07
-1.26948e-06
-4.36597e-07
-1.4886e-06
-3.31029e-07
-1.69173e-06
-1.40301e-07
-1.82617e-06
6.81105e-08
-1.85991e-06
2.47132e-07
-1.81757e-06
3.83817e-07
-1.75016e-06
4.56624e-07
-1.64688e-06
4.63922e-07
-1.53384e-06
4.33493e-07
-1.45621e-06
3.71361e-07
-1.37924e-06
2.79594e-07
-1.30467e-06
1.93011e-07
-1.28379e-06
8.1336e-08
-1.2054e-06
-4.90481e-08
-1.15599e-06
-1.683e-07
-1.14048e-06
-2.95263e-07
-1.06109e-06
-5.07582e-07
-8.76543e-07
-7.85129e-07
-7.5157e-07
-1.04564e-06
-7.40246e-07
-1.32194e-06
-6.82047e-07
-1.72337e-06
-4.7768e-07
-2.20267e-06
-3.15157e-07
-2.61522e-06
-3.28963e-07
-2.8577e-06
-4.39165e-07
-2.94199e-06
-4.80309e-07
-2.93608e-06
-5.7818e-07
-3.18211e-06
-5.43169e-07
-3.92422e-06
-3.21775e-07
-5.17465e-06
6.1468e-08
-7.00191e-06
7.2156e-07
-9.29131e-06
1.4445e-06
-1.17861e-05
1.88453e-06
-1.41268e-05
2.02616e-06
-1.6062e-05
2.07443e-06
-1.75604e-05
2.17348e-06
-1.87363e-05
2.1701e-06
-1.98287e-05
2.09445e-06
-2.08621e-05
1.94775e-06
-2.18167e-05
1.75627e-06
-2.26776e-05
1.54072e-06
-2.34394e-05
1.33189e-06
-2.40959e-05
1.12792e-06
-2.46621e-05
9.41813e-07
-2.5145e-05
7.68943e-07
-2.55558e-05
6.1786e-07
-2.59043e-05
4.98852e-07
-2.61859e-05
3.99997e-07
-2.64187e-05
3.34705e-07
-2.66099e-05
2.68921e-07
-2.67479e-05
2.14023e-07
-2.6833e-05
1.68111e-07
-2.68638e-05
1.20818e-07
-2.68388e-05
8.50331e-08
-2.67947e-05
8.64678e-08
-2.67083e-05
7.03539e-08
-2.65754e-05
6.244e-08
-2.64038e-05
5.38629e-08
-2.61676e-05
2.88239e-08
-2.58714e-05
1.02273e-08
-2.55145e-05
-4.50141e-09
-2.51273e-05
8.61784e-09
-2.46923e-05
1.73092e-08
-2.42142e-05
3.33724e-08
-2.36902e-05
5.45345e-08
-2.31369e-05
1.05457e-07
-2.25626e-05
1.73188e-07
-2.19504e-05
2.34645e-07
-2.13278e-05
3.30476e-07
-2.07033e-05
4.09535e-07
-2.00575e-05
5.01043e-07
-1.9387e-05
5.98392e-07
-1.87426e-05
7.19094e-07
-1.80905e-05
8.29219e-07
-1.74286e-05
9.35281e-07
-1.67714e-05
1.04831e-06
-1.61073e-05
1.15578e-06
-1.54296e-05
1.23791e-06
-1.47197e-05
1.2963e-06
-1.3999e-05
1.42838e-06
-1.32943e-05
1.62596e-06
-1.25902e-05
1.79596e-06
-1.19729e-05
2.08848e-06
-1.14209e-05
2.32376e-06
-1.08105e-05
2.31747e-06
-1.00636e-05
2.21063e-06
-9.15057e-06
2.07586e-06
-8.15357e-06
2.13131e-06
-7.29793e-06
2.52877e-06
-6.70553e-06
3.07426e-06
-6.1752e-06
3.35112e-06
-5.64085e-06
3.47e-06
-5.09295e-06
3.59348e-06
-4.6201e-06
3.84909e-06
-4.15817e-06
4.02923e-06
-3.73995e-06
4.15702e-06
-3.26766e-06
4.13927e-06
-2.88071e-06
4.40976e-06
-2.59419e-06
4.68265e-06
-2.33547e-06
4.88823e-06
-2.12858e-06
5.08737e-06
-1.95143e-06
5.22667e-06
-1.76524e-06
5.42356e-06
-1.74827e-06
5.77268e-06
-1.78153e-06
6.00793e-06
-1.52479e-06
5.55996e-06
-8.25825e-07
4.18842e-06
5.12928e-07
2.8805e-06
2.15969e-06
2.59213e-06
3.558e-06
3.39777e-06
4.00739e-06
5.09685e-06
2.905e-06
7.16812e-06
9.36639e-07
8.63626e-06
-8.21246e-07
9.01254e-06
-2.13417e-06
8.68059e-06
-3.34245e-06
8.49192e-06
-4.94892e-06
8.98117e-06
-6.84698e-06
9.69184e-06
-8.85918e-06
1.02948e-05
-1.0858e-05
1.09621e-05
-1.27159e-05
1.12956e-05
-1.41097e-05
1.07351e-05
-1.46507e-05
9.33822e-06
-1.37186e-05
7.25803e-06
-1.31988e-05
8.02526e-06
-1.1509e-05
5.09365e-06
-9.21495e-06
2.41996e-06
-7.87481e-06
5.22183e-06
-5.3808e-06
3.6274e-06
-4.14964e-06
6.06307e-06
-3.37953e-06
7.12437e-06
-2.93214e-06
8.01238e-06
-2.53316e-06
8.02853e-06
-1.9439e-06
7.82058e-06
-9.20102e-07
7.2193e-06
-1.7598e-07
7.86812e-06
7.06518e-08
8.94222e-06
-3.8664e-07
1.0137e-05
-1.25023e-06
1.09493e-05
-2.34512e-06
1.15879e-05
-3.28975e-06
1.19539e-05
-4.07074e-06
1.23495e-05
-5.10783e-06
1.30516e-05
-6.6256e-06
1.402e-05
-8.56728e-06
1.47364e-05
-1.06184e-05
1.498e-05
-1.24499e-05
1.50732e-05
-1.40827e-05
1.5507e-05
-1.55164e-05
1.59326e-05
-1.68212e-05
1.65995e-05
-1.80686e-05
1.73501e-05
-1.87169e-05
1.76293e-05
-1.8525e-05
1.70913e-05
-1.8233e-05
1.80306e-05
-1.761e-05
1.93172e-05
-1.74811e-05
2.07365e-05
-1.69896e-05
2.0475e-05
-1.62242e-05
2.1359e-05
-1.51333e-05
2.13106e-05
-1.31241e-05
2.02753e-05
-1.20495e-05
2.13041e-05
-1.3569e-05
2.46196e-05
-1.71057e-05
2.91912e-05
-1.69494e-05
2.7176e-05
-1.71667e-05
2.70652e-05
-1.41934e-05
2.31923e-05
-1.1919e-05
2.3985e-05
-1.14485e-05
2.75796e-05
-4.97814e-06
1.69687e-05
1.31653e-06
1.69191e-05
5.74047e-06
2.27499e-05
9.31645e-06
2.48787e-05
1.32833e-05
2.39211e-05
1.67888e-05
2.4771e-05
1.98671e-05
2.50877e-05
2.19956e-05
2.552e-05
2.466e-05
2.49423e-05
2.654e-05
2.64269e-05
2.79547e-05
2.71194e-05
-2.96769e-07
-1.44862e-06
-4.69438e-07
-1.81651e-06
-4.6543e-07
-2.21164e-06
-2.92532e-07
-2.58433e-06
-2.30264e-08
-2.81962e-06
2.58746e-07
-2.86986e-06
4.81947e-07
-2.77137e-06
6.36868e-07
-2.63718e-06
7.09337e-07
-2.45262e-06
6.90523e-07
-2.24734e-06
6.1475e-07
-2.10943e-06
5.05975e-07
-1.99464e-06
3.85411e-07
-1.90429e-06
2.76173e-07
-1.89255e-06
1.67925e-07
-1.81156e-06
3.60755e-08
-1.73036e-06
-4.98233e-08
-1.75046e-06
-8.75778e-08
-1.70824e-06
-2.20034e-07
-1.41894e-06
-5.11162e-07
-1.12302e-06
-8.01083e-07
-1.09561e-06
-1.01743e-06
-1.09189e-06
-1.19787e-06
-9.03664e-07
-1.40241e-06
-7.02003e-07
-1.78319e-06
-5.27382e-07
-2.46244e-06
-3.14857e-07
-3.5139e-06
5.03051e-08
-5.10905e-06
5.33931e-07
-7.25509e-06
1.17953e-06
-9.88838e-06
1.91394e-06
-1.26186e-05
2.36023e-06
-1.48492e-05
2.51804e-06
-1.64878e-05
2.6672e-06
-1.77889e-05
2.78038e-06
-1.89776e-05
2.82423e-06
-2.00907e-05
2.79949e-06
-2.10157e-05
2.72092e-06
-2.17689e-05
2.55643e-06
-2.23959e-05
2.36225e-06
-2.29294e-05
2.13467e-06
-2.34148e-05
1.90277e-06
-2.38693e-05
1.6695e-06
-2.42854e-05
1.43558e-06
-2.46613e-05
1.2025e-06
-2.49969e-05
9.91115e-07
-2.53008e-05
8.03616e-07
-2.55801e-05
6.48806e-07
-2.5819e-05
5.07235e-07
-2.60232e-05
3.92886e-07
-2.6173e-05
2.97436e-07
-2.62863e-05
2.18524e-07
-2.63655e-05
1.56352e-07
-2.64152e-05
1.07546e-07
-2.64421e-05
6.62232e-08
-2.64527e-05
4.94752e-08
-2.64133e-05
3.82255e-08
-2.6322e-05
8.92088e-09
-2.61759e-05
-9.7888e-09
-2.59962e-05
-1.21639e-08
-2.57736e-05
-3.84576e-08
-2.549e-05
-6.63517e-08
-2.51533e-05
-8.1761e-08
-2.47683e-05
-6.5651e-08
-2.43285e-05
-5.88965e-08
-2.38441e-05
-3.25167e-08
-2.33266e-05
1.552e-08
-2.27839e-05
1.05081e-07
-2.22161e-05
2.09009e-07
-2.1604e-05
2.8718e-07
-2.09839e-05
4.33345e-07
-2.03411e-05
5.50565e-07
-1.96707e-05
6.80506e-07
-1.9007e-05
8.52531e-07
-1.83138e-05
1.01068e-06
-1.76051e-05
1.16604e-06
-1.69075e-05
1.33992e-06
-1.62378e-05
1.53439e-06
-1.55766e-05
1.70678e-06
-1.49203e-05
1.85371e-06
-1.43111e-05
2.01403e-06
-1.36691e-05
2.14874e-06
-1.30159e-05
2.37236e-06
-1.22935e-05
2.51932e-06
-1.15493e-05
2.85213e-06
-1.08165e-05
3.20648e-06
-1.01393e-05
3.36885e-06
-9.46645e-06
3.35945e-06
-8.67527e-06
3.18718e-06
-7.71528e-06
3.07993e-06
-6.78707e-06
3.48627e-06
-6.02975e-06
4.25315e-06
-5.52648e-06
4.91561e-06
-5.01318e-06
5.11773e-06
-4.34443e-06
5.11061e-06
-3.48592e-06
5.22132e-06
-2.8162e-06
5.70966e-06
-2.34031e-06
6.1497e-06
-1.79587e-06
6.07163e-06
-1.21941e-06
6.34633e-06
-6.67826e-07
6.7215e-06
-1.07821e-08
6.82184e-06
7.82041e-07
6.8878e-06
1.26482e-06
7.42485e-06
1.47153e-06
8.00083e-06
1.54671e-06
8.5805e-06
1.46479e-06
9.03174e-06
1.25169e-06
8.69324e-06
9.62726e-07
7.40521e-06
1.00188e-06
5.80271e-06
1.44517e-06
5.11413e-06
1.80404e-06
5.99937e-06
1.5046e-06
8.35884e-06
5.3381e-07
1.11681e-05
-7.79137e-07
1.3091e-05
-2.3293e-06
1.36751e-05
-3.89733e-06
1.33086e-05
-5.32189e-06
1.30629e-05
-6.81351e-06
1.37476e-05
-8.67883e-06
1.48939e-05
-1.05878e-05
1.54444e-05
-1.22627e-05
1.58798e-05
-1.37676e-05
1.62877e-05
-1.42857e-05
1.48273e-05
-1.33729e-05
1.20107e-05
-1.10616e-05
8.72074e-06
-9.86517e-06
1.0877e-05
-8.79869e-06
7.98825e-06
-7.26098e-06
4.78982e-06
-5.5475e-06
7.46298e-06
-3.66688e-06
5.55175e-06
-2.2876e-06
8.49587e-06
-1.39013e-06
1.00576e-05
-1.08843e-06
1.15719e-05
-8.99338e-07
1.16724e-05
-5.38177e-07
1.12837e-05
5.53201e-07
1.00034e-05
1.63573e-06
1.07313e-05
2.10953e-06
1.25267e-05
1.58454e-06
1.49003e-05
3.36003e-07
1.6582e-05
-1.22106e-06
1.75305e-05
-2.62479e-06
1.76565e-05
-3.65473e-06
1.76738e-05
-4.32976e-06
1.83104e-05
-4.87199e-06
1.96954e-05
-5.63171e-06
2.12028e-05
-7.04264e-06
2.24953e-05
-8.98155e-06
2.33491e-05
-1.1006e-05
2.40534e-05
-1.27865e-05
2.45135e-05
-1.44554e-05
2.53963e-05
-1.62145e-05
2.6625e-05
-1.77911e-05
2.71711e-05
-1.78591e-05
2.51416e-05
-1.73477e-05
2.60744e-05
-1.67753e-05
2.84718e-05
-1.65855e-05
3.17942e-05
-1.66024e-05
3.21566e-05
-1.59336e-05
3.35863e-05
-1.49414e-05
3.41167e-05
-1.48616e-05
3.34334e-05
-1.61935e-05
3.54367e-05
-1.86706e-05
4.03817e-05
-2.06236e-05
4.52249e-05
-1.93408e-05
4.12797e-05
-1.62474e-05
3.88639e-05
-1.35603e-05
3.5257e-05
-1.10792e-05
3.55254e-05
-8.79863e-06
3.94292e-05
-4.07407e-06
2.78406e-05
1.79028e-06
2.4623e-05
8.22432e-06
3.07578e-05
1.30452e-05
3.51228e-05
1.86991e-05
3.18747e-05
2.25757e-05
3.54391e-05
2.6536e-05
3.5842e-05
2.89358e-05
3.81442e-05
2.9661e-05
3.87623e-05
3.10721e-05
3.92177e-05
3.99654e-05
3.31843e-05
-2.50504e-07
-1.89377e-06
-3.24627e-07
-2.43264e-06
-1.82293e-07
-3.04873e-06
8.41185e-08
-3.55648e-06
3.72606e-07
-3.82873e-06
6.18416e-07
-3.84727e-06
7.74381e-07
-3.66241e-06
8.11057e-07
-3.40893e-06
7.80023e-07
-3.15704e-06
6.77508e-07
-2.87485e-06
5.32909e-07
-2.68374e-06
3.64553e-07
-2.53551e-06
1.71048e-07
-2.41382e-06
3.51835e-08
-2.45546e-06
-6.96888e-08
-2.39853e-06
-2.33017e-07
-2.24759e-06
-3.63512e-07
-2.27837e-06
-4.20919e-07
-2.28687e-06
-4.09168e-07
-2.04691e-06
-5.32179e-07
-1.59926e-06
-9.41574e-07
-1.27423e-06
-1.63778e-06
-9.67223e-07
-2.56218e-06
-5.35601e-07
-3.81916e-06
-3.24297e-09
-5.49217e-06
6.09645e-07
-7.54036e-06
1.27041e-06
-9.82422e-06
1.92341e-06
-1.20747e-05
2.36394e-06
-1.4044e-05
2.70069e-06
-1.55675e-05
2.98704e-06
-1.6857e-05
3.20258e-06
-1.8087e-05
3.30573e-06
-1.91641e-05
3.31713e-06
-2.00505e-05
3.25153e-06
-2.07739e-05
3.14301e-06
-2.13744e-05
3.00643e-06
-2.18787e-05
2.84329e-06
-2.23205e-05
2.63138e-06
-2.27129e-05
2.3978e-06
-2.30828e-05
2.15593e-06
-2.34166e-05
1.9013e-06
-2.37217e-05
1.65411e-06
-2.4009e-05
1.4155e-06
-2.42796e-05
1.18199e-06
-2.45356e-05
9.76212e-07
-2.47819e-05
7.95647e-07
-2.49943e-05
6.24664e-07
-2.51671e-05
4.67994e-07
-2.53077e-05
3.4125e-07
-2.54346e-05
2.51692e-07
-2.55496e-05
1.86722e-07
-2.56343e-05
1.21482e-07
-2.56877e-05
7.05557e-08
-2.57462e-05
6.40477e-08
-2.5752e-05
3.02238e-08
-2.57153e-05
1.02721e-08
-2.56497e-05
-1.22292e-08
-2.55448e-05
-2.43132e-08
-2.53834e-05
-4.30734e-08
-2.51694e-05
-8.18053e-08
-2.49167e-05
-1.03147e-07
-2.46236e-05
-1.14841e-07
-2.42559e-05
-1.27435e-07
-2.38399e-05
-1.17874e-07
-2.33735e-05
-8.9059e-08
-2.28576e-05
-3.58216e-08
-2.23383e-05
1.09901e-07
-2.17853e-05
2.38825e-07
-2.12195e-05
3.64307e-07
-2.06184e-05
5.39931e-07
-1.99891e-05
6.87603e-07
-1.93378e-05
8.53843e-07
-1.86525e-05
1.05975e-06
-1.79434e-05
1.26781e-06
-1.72078e-05
1.46745e-06
-1.64415e-05
1.67618e-06
-1.56964e-05
1.95426e-06
-1.4973e-05
2.20583e-06
-1.42547e-05
2.41596e-06
-1.35538e-05
2.66368e-06
-1.28726e-05
2.88822e-06
-1.22811e-05
3.25259e-06
-1.17741e-05
3.5287e-06
-1.11478e-05
3.78493e-06
-1.03818e-05
4.03884e-06
-9.62542e-06
4.26695e-06
-8.93799e-06
4.41039e-06
-8.2847e-06
4.39746e-06
-7.5516e-06
4.31312e-06
-6.71944e-06
4.63091e-06
-5.89617e-06
5.42544e-06
-5.26563e-06
6.37204e-06
-4.79449e-06
6.84139e-06
-4.23706e-06
6.75933e-06
-3.33367e-06
6.4718e-06
-2.39377e-06
6.96525e-06
-1.72833e-06
7.79792e-06
-1.12042e-06
7.80109e-06
-5.426e-07
8.11422e-06
-1.58453e-07
8.78232e-06
4.26372e-07
8.69948e-06
1.58728e-06
8.17538e-06
2.88726e-06
8.60699e-06
3.89885e-06
9.509e-06
4.46711e-06
1.06557e-05
4.56013e-06
1.16915e-05
4.22217e-06
1.18526e-05
3.58817e-06
1.09686e-05
2.89953e-06
9.46551e-06
2.13519e-06
8.83412e-06
1.24727e-06
9.81667e-06
1.91837e-07
1.2344e-05
-9.12041e-07
1.52714e-05
-2.26769e-06
1.74831e-05
-3.77749e-06
1.8175e-05
-4.85895e-06
1.7332e-05
-5.97447e-06
1.70826e-05
-7.33046e-06
1.81613e-05
-8.93457e-06
1.9866e-05
-1.06568e-05
2.06917e-05
-1.2274e-05
2.07226e-05
-1.30446e-05
2.01398e-05
-1.23721e-05
1.76052e-05