/*--------------------------------*- C++ -*----------------------------------*\
| =========                 |                                                 |
| \\      /  F ield         | OpenFOAM: The Open Source CFD Toolbox           |
|  \\    /   O peration     | Version:  dev                                   |
|   \\  /    A nd           | Web:      http://www.openfoam.org               |
|    \\/     M anipulation  |                                                 |
\*---------------------------------------------------------------------------*/
FoamFile
{
    version     2.0;
    format      ascii;
    class       surfaceScalarField;
    object      phi_0;
    location    "9.16";
}
// * * * * * * * * * * * * * * * * * * * * * * * * * * * * * * * * * * * * * //

dimensions      [1 0 -1 0 0 0 0];

internalField   nonuniform List<scalar> 
24170
(
2.7843e-06
1.81603e-06
2.52583e-06
1.22167e-06
2.71862e-06
7.09834e-07
3.10517e-06
4.52039e-07
3.53136e-06
3.46741e-07
3.93982e-06
2.99913e-07
4.29944e-06
2.84345e-07
4.68439e-06
1.96111e-07
4.94575e-06
2.59188e-07
5.32239e-06
8.58939e-08
5.49258e-06
2.37777e-07
6.03255e-06
-1.81706e-07
5.94179e-06
3.9329e-07
7.24432e-06
-1.02982e-06
6.63974e-06
8.14287e-07
7.86525e-06
-1.03584e-06
1.09452e-05
-2.95487e-06
-2.47402e-06
1.34472e-05
4.64641e-06
2.2499e-06
4.69532e-06
2.21122e-06
4.86352e-06
1.52848e-06
5.11222e-06
1.1212e-06
5.44839e-06
8.58061e-07
5.722e-06
8.00912e-07
6.14707e-06
5.6365e-07
6.34348e-06
6.32908e-07
6.82514e-06
3.4524e-07
7.02266e-06
3.90303e-07
7.59692e-06
1.06064e-07
8.2606e-06
-4.55585e-07
8.55288e-06
4.25291e-07
1.03252e-05
-2.49957e-06
1.0221e-05
1.12256e-06
1.26396e-05
-3.19671e-06
1.25108e-05
-2.69894e-06
-9.37071e-06
1.94641e-05
5.41884e-06
2.34435e-06
6.02097e-06
2.75912e-06
6.5708e-06
2.071e-06
6.96789e-06
1.73894e-06
7.39799e-06
1.36542e-06
7.64872e-06
1.40634e-06
8.09052e-06
9.01616e-07
8.22968e-06
1.19327e-06
8.68363e-06
5.20713e-07
9.24425e-06
3.82732e-07
9.46567e-06
3.76823e-07
1.06687e-05
-1.23499e-06
1.06666e-05
7.98134e-07
1.17893e-05
-3.30988e-06
1.20681e-05
1.10478e-06
1.37055e-05
-4.59941e-06
1.26276e-05
-1.46428e-06
-1.23984e-05
1.57815e-05
5.82953e-06
2.87616e-06
6.94527e-06
2.90734e-06
7.76787e-06
2.45068e-06
8.48009e-06
2.142e-06
9.05247e-06
1.82558e-06
9.64669e-06
1.75394e-06
1.00614e-05
1.34468e-06
1.07697e-05
1.2559e-06
1.09238e-05
1.05744e-06
1.18837e-05
3.53524e-08
1.18321e-05
9.66367e-07
1.25933e-05
-1.52577e-06
1.26508e-05
1.14286e-06
1.31435e-05
-3.46123e-06
1.36371e-05
9.14458e-07
1.43084e-05
-5.08298e-06
1.29484e-05
5.75907e-08
-1.52253e-05
1.59158e-05
6.12123e-06
3.46443e-06
7.62827e-06
2.78755e-06
8.44699e-06
2.95473e-06
9.59381e-06
2.21696e-06
1.01605e-05
2.39401e-06
1.11909e-05
1.75736e-06
1.15144e-05
1.96427e-06
1.25677e-05
1.04913e-06
1.26631e-05
1.72013e-06
1.34917e-05
-1.20334e-07
1.35504e-05
1.49903e-06
1.40466e-05
-1.50633e-06
1.42587e-05
1.37559e-06
1.43181e-05
-3.13963e-06
1.47515e-05
8.06303e-07
1.57002e-05
-5.79864e-06
1.45973e-05
1.35832e-06
-1.63677e-05
1.58775e-05
6.56292e-06
4.22932e-06
8.07954e-06
2.79646e-06
8.87561e-06
3.6062e-06
1.02239e-05
2.20855e-06
1.0798e-05
3.06521e-06
1.19269e-05
1.76354e-06
1.22694e-05
2.65801e-06
1.33067e-05
9.37963e-07
1.34942e-05
2.36507e-06
1.43132e-05
-2.0154e-07
1.45394e-05
1.91849e-06
1.51452e-05
-1.54658e-06
1.5475e-05
1.52977e-06
1.585e-05
-3.09355e-06
1.6383e-05
6.13891e-07
1.68235e-05
-5.90965e-06
1.80175e-05
3.67132e-07
-1.32352e-05
1.49512e-05
7.59455e-06
4.66516e-06
9.05811e-06
3.00113e-06
9.76961e-06
4.47451e-06
1.11227e-05
2.32458e-06
1.17584e-05
3.78858e-06
1.29881e-05
1.77637e-06
1.34863e-05
3.28934e-06
1.4497e-05
9.4028e-07
1.4929e-05
2.84687e-06
1.56926e-05
-1.6191e-07
1.62298e-05
2.08969e-06
1.67545e-05
-1.4583e-06
1.74602e-05
1.35823e-06
1.7678e-05
-2.85269e-06
1.85868e-05
8.5606e-08
1.79657e-05
-4.95244e-06
1.97895e-05
-1.18791e-06
-7.61899e-06
1.43621e-05
5.80483e-06
5.1787e-06
6.93314e-06
3.16121e-06
7.66117e-06
4.96857e-06
8.66021e-06
2.46195e-06
9.25711e-06
4.24022e-06
1.01696e-05
1.82376e-06
1.06369e-05
3.69189e-06
1.13279e-05
1.03479e-06
1.17587e-05
3.12012e-06
1.22208e-05
-1.76274e-09
1.27348e-05
2.12052e-06
1.29158e-05
-1.16507e-06
1.35808e-05
1.10709e-06
1.35014e-05
-2.41909e-06
1.42479e-05
-3.66456e-07
1.35387e-05
-4.00274e-06
1.43444e-05
-1.78146e-06
-5.5042e-06
1.24105e-05
6.86443e-06
5.68436e-06
8.12069e-06
3.38955e-06
9.06471e-06
5.43395e-06
1.00688e-05
2.7677e-06
1.08781e-05
4.64049e-06
1.17318e-05
2.07579e-06
1.23999e-05
4.02719e-06
1.30432e-05
1.29855e-06
1.36992e-05
3.27288e-06
1.40931e-05
3.21691e-07
1.47285e-05
2.1127e-06
1.48638e-05
-7.51918e-07
1.55421e-05
9.03946e-07
1.53679e-05
-1.84038e-06
1.59728e-05
-6.29674e-07
1.53344e-05
-3.07703e-06
1.59445e-05
-2.1525e-06
-3.84537e-06
1.44797e-05
8.05624e-06
6.18933e-06
9.27379e-06
3.87568e-06
1.05971e-05
5.73044e-06
1.16079e-05
3.26181e-06
1.27595e-05
4.87953e-06
1.35961e-05
2.50717e-06
1.45884e-05
4.19197e-06
1.51524e-05
1.77456e-06
1.60568e-05
3.29467e-06
1.63812e-05
8.17244e-07
1.71135e-05
2.10104e-06
1.71779e-05
-1.85848e-07
1.7838e-05
7.84047e-07
1.76666e-05
-1.20578e-06
1.81745e-05
-7.42654e-07
1.76261e-05
-2.19685e-06
1.78767e-05
-2.12624e-06
-2.87211e-06
1.71291e-05
9.44033e-06
6.84969e-06
1.06429e-05
4.61815e-06
1.2254e-05
5.96834e-06
1.33471e-05
3.89008e-06
1.47327e-05
5.08486e-06
1.55594e-05
3.13119e-06
1.67157e-05
4.35753e-06
1.72996e-05
2.37345e-06
1.83062e-05
3.3465e-06
1.87146e-05
1.34235e-06
1.95501e-05
2.08871e-06
1.97771e-05
3.04389e-07
2.03998e-05
7.73289e-07
2.04059e-05
-6.85483e-07
2.07038e-05
-5.89622e-07
2.04197e-05
-1.53275e-06
2.04331e-05
-1.8254e-06
-2.14028e-06
1.99587e-05
1.08876e-05
7.25834e-06
1.23791e-05
5.33265e-06
1.43061e-05
6.13754e-06
1.54778e-05
4.67564e-06
1.70231e-05
5.33917e-06
1.79049e-05
3.89183e-06
1.92662e-05
4.49279e-06
1.99189e-05
3.06114e-06
2.10624e-05
3.39903e-06
2.14624e-05
1.99344e-06
2.23218e-05
2.15959e-06
2.25405e-05
8.94343e-07
2.31494e-05
8.58687e-07
2.31518e-05
-9.444e-08
2.34525e-05
-3.84625e-07
2.32783e-05
-9.31254e-07
2.32059e-05
-1.39878e-06
-1.60011e-06
2.29592e-05
1.31423e-05
7.48721e-06
1.46314e-05
6.31365e-06
1.65885e-05
6.53512e-06
1.78955e-05
5.56739e-06
1.95846e-05
5.66829e-06
2.06381e-05
4.68842e-06
2.20704e-05
4.73371e-06
2.28741e-05
3.75685e-06
2.40263e-05
3.58438e-06
2.45865e-05
2.60958e-06
2.54573e-05
2.32527e-06
2.57889e-05
1.45999e-06
2.63099e-05
1.11016e-06
2.64324e-05
4.39321e-07
2.65927e-05
1.65554e-08
2.65122e-05
-3.78713e-07
2.63066e-05
-8.0418e-07
-1.06389e-06
2.6093e-05
1.48065e-05
7.75986e-06
1.68142e-05
7.04812e-06
1.89818e-05
6.98363e-06
2.05624e-05
6.42252e-06
2.23568e-05
6.11082e-06
2.37334e-05
5.35671e-06
2.53424e-05
4.96785e-06
2.6481e-05
4.27548e-06
2.76989e-05
3.83363e-06
2.84316e-05
3.16884e-06
2.92223e-05
2.66733e-06
2.96034e-05
2.05818e-06
3.00043e-05
1.54989e-06
3.01215e-05
1.0331e-06
3.01925e-05
5.50431e-07
3.01418e-05
1.77402e-07
2.99413e-05
-1.85081e-07
-4.7665e-07
2.96924e-05
1.73614e-05
8.44265e-06
1.95718e-05
7.82122e-06
2.18998e-05
7.50323e-06
2.39445e-05
7.0224e-06
2.59417e-05
6.54434e-06
2.75999e-05
5.90943e-06
2.91822e-05
5.37594e-06
3.04497e-05
4.79117e-06
3.16111e-05
4.24617e-06
3.24996e-05
3.6669e-06
3.32735e-05
3.09605e-06
3.38305e-05
2.54029e-06
3.42644e-05
2.00283e-06
3.45346e-05
1.51114e-06
3.46287e-05
1.08374e-06
3.46331e-05
6.86665e-07
3.44733e-05
3.96028e-07
9.78549e-08
3.42352e-05
2.02286e-05
8.91308e-06
2.29127e-05
8.29727e-06
2.55423e-05
7.88684e-06
2.79214e-05
7.43972e-06
3.00626e-05
6.96775e-06
3.18948e-05
6.39681e-06
3.35305e-05
5.82473e-06
3.4955e-05
5.21763e-06
3.62051e-05
4.62567e-06
3.72442e-05
4.05356e-06
3.80688e-05
3.49948e-06
3.86702e-05
2.99542e-06
3.90512e-05
2.51261e-06
3.92434e-05
2.06335e-06
3.92786e-05
1.66196e-06
3.91477e-05
1.31455e-06
3.89222e-05
1.01005e-06
6.76389e-07
3.86386e-05
2.34563e-05
9.25902e-06
2.63212e-05
8.67274e-06
2.90738e-05
8.20295e-06
3.16351e-05
7.71875e-06
3.40407e-05
7.14875e-06
3.62621e-05
6.50672e-06
3.8302e-05
5.86506e-06
4.00864e-05
5.26312e-06
4.15775e-05
4.73748e-06
4.27632e-05
4.24888e-06
4.36373e-05
3.80585e-06
4.42496e-05
3.37696e-06
4.4615e-05
2.96926e-06
4.47859e-05
2.5638e-06
4.48074e-05
2.17088e-06
4.47188e-05
1.81349e-06
4.45364e-05
1.49666e-06
1.22946e-06
4.41927e-05
2.30132e-05
9.3096e-06
2.59825e-05
8.44986e-06
2.88475e-05
7.93617e-06
3.14413e-05
7.51192e-06
3.37768e-05
6.97149e-06
3.58948e-05
6.32383e-06
3.77821e-05
5.67967e-06
3.93925e-05
5.13821e-06
4.07152e-05
4.69198e-06
4.17494e-05
4.29298e-06
4.25386e-05
3.91783e-06
4.31272e-05
3.51669e-06
4.35622e-05
3.11525e-06
4.38661e-05
2.705e-06
4.40271e-05
2.33759e-06
4.40816e-05
1.98085e-06
4.40267e-05
1.68125e-06
1.41685e-06
4.38904e-05
2.06669e-05
8.73068e-06
2.30567e-05
8.05748e-06
2.54092e-05
7.47411e-06
2.76722e-05
6.96975e-06
2.97689e-05
6.42381e-06
3.16079e-05
5.85127e-06
3.31373e-05
5.33532e-06
3.44108e-05
4.87949e-06
3.54433e-05
4.50229e-06
3.63169e-05
4.11248e-06
3.70408e-05
3.7444e-06
3.76036e-05
3.37446e-06
3.80343e-05
2.99245e-06
3.83179e-05
2.62403e-06
3.84913e-05
2.2764e-06
3.8532e-05
1.96953e-06
3.84705e-05
1.70609e-06
1.46257e-06
3.8328e-05
1.86299e-05
8.20168e-06
2.07313e-05
7.41072e-06
2.28371e-05
6.73446e-06
2.48105e-05
6.23418e-06
2.65734e-05
5.75612e-06
2.80583e-05
5.31269e-06
2.92968e-05
4.90214e-06
3.03528e-05
4.48853e-06
3.12513e-05
4.13986e-06
3.20323e-05
3.74879e-06
3.26869e-05
3.3947e-06
3.32024e-05
3.06333e-06
3.3579e-05
2.72987e-06
3.38229e-05
2.41358e-06
3.39386e-05
2.1227e-06
3.39561e-05
1.85278e-06
3.38919e-05
1.61857e-06
1.42151e-06
3.37385e-05
1.64516e-05
7.1245e-06
1.84914e-05
6.41806e-06
2.0293e-05
5.9221e-06
2.19759e-05
5.43587e-06
2.35297e-05
4.96836e-06
2.49101e-05
4.58223e-06
2.60956e-05
4.25126e-06
2.70633e-05
3.9438e-06
2.78649e-05
3.65974e-06
2.85013e-05
3.33773e-06
2.90083e-05
3.02442e-06
2.94033e-05
2.72569e-06
2.96843e-05
2.43308e-06
2.98675e-05
2.15268e-06
2.99621e-05
1.89387e-06
2.9975e-05
1.65815e-06
2.9921e-05
1.4527e-06
1.27771e-06
2.98103e-05
1.47696e-05
6.0039e-06
1.65095e-05
5.43237e-06
1.81514e-05
4.99597e-06
1.96319e-05
4.58679e-06
2.09228e-05
4.21762e-06
2.20597e-05
3.88978e-06
2.30665e-05
3.59481e-06
2.39344e-05
3.33733e-06
2.47096e-05
3.05996e-06
2.53367e-05
2.80658e-06
2.58295e-05
2.55579e-06
2.62063e-05
2.30745e-06
2.64692e-05
2.07189e-06
2.66316e-05
1.84239e-06
2.67037e-05
1.63084e-06
2.66967e-05
1.43995e-06
2.66266e-05
1.26635e-06
1.12691e-06
2.64978e-05
1.31079e-05
5.00596e-06
1.47621e-05
4.33487e-06
1.62907e-05
3.99194e-06
1.75949e-05
3.74035e-06
1.87024e-05
3.49185e-06
1.96427e-05
3.25225e-06
2.04529e-05
3.01066e-06
2.11738e-05
2.76692e-06
2.17871e-05
2.52566e-06
2.23122e-05
2.29564e-06
2.27541e-05
2.06767e-06
2.31039e-05
1.85847e-06
2.33792e-05
1.65174e-06
2.35629e-05
1.47323e-06
2.36621e-05
1.3141e-06
2.36797e-05
1.17578e-06
2.36272e-05
1.05063e-06
9.46203e-07
2.35218e-05
1.143e-05
4.06404e-06
1.29222e-05
3.26202e-06
1.43305e-05
2.97691e-06
1.55974e-05
2.81174e-06
1.66996e-05
2.66278e-06
1.76451e-05
2.51445e-06
1.8455e-05
2.34228e-06
1.91189e-05
2.18069e-06
1.96491e-05
2.01465e-06
2.00774e-05
1.83102e-06
2.04183e-05
1.64118e-06
2.06891e-05
1.4592e-06
2.08826e-05
1.29083e-06
2.10114e-05
1.14557e-06
2.10738e-05
1.02461e-06
2.10777e-05
9.22862e-07
2.10265e-05
8.34797e-07
7.59204e-07
2.09323e-05
1.04991e-05
2.95644e-06
1.17381e-05
2.34523e-06
1.29295e-05
2.08633e-06
1.39876e-05
2.00805e-06
1.49317e-05
1.9197e-06
1.57807e-05
1.81002e-06
1.65234e-05
1.68797e-06
1.71554e-05
1.58319e-06
1.7663e-05
1.48987e-06
1.80767e-05
1.35344e-06
1.83969e-05
1.21491e-06
1.86412e-05
1.0721e-06
1.88141e-05
9.43777e-07
1.89253e-05
8.33109e-07
1.89767e-05
7.50122e-07
1.89807e-05
6.77432e-07
1.89353e-05
6.24336e-07
5.75283e-07
1.88523e-05
9.26782e-06
1.76957e-06
1.05869e-05
1.28019e-06
1.16876e-05
1.22313e-06
1.25824e-05
1.3122e-06
1.33769e-05
1.27769e-06
1.41122e-05
1.17815e-06
1.47702e-05
1.08419e-06
1.53371e-05
1.02305e-06
1.58012e-05
9.88423e-07
1.61611e-05
9.15885e-07
1.64245e-05
8.38186e-07
1.66075e-05
7.44575e-07
1.67223e-05
6.57425e-07
1.67762e-05
5.85086e-07
1.67836e-05
5.29763e-07
1.67505e-05
4.82807e-07
1.66857e-05
4.49726e-07
4.1324e-07
1.65997e-05
8.34486e-06
8.53303e-07
9.52999e-06
2.99312e-07
1.05338e-05
4.11094e-07
1.13714e-05
6.32951e-07
1.20768e-05
6.90636e-07
1.26673e-05
6.63787e-07
1.31615e-05
6.23635e-07
1.35757e-05
6.01446e-07
1.39157e-05
6.02743e-07
1.41723e-05
5.78562e-07
1.43498e-05
5.48987e-07
1.44541e-05
5.0136e-07
1.44979e-05
4.51433e-07
1.44885e-05
4.12612e-07
1.44516e-05
3.68504e-07
1.43868e-05
3.36633e-07
1.43093e-05
3.06251e-07
2.75652e-07
1.42187e-05
7.50056e-06
-1.59996e-07
8.49864e-06
-5.29691e-07
9.23827e-06
-1.6822e-07
9.86295e-06
1.39349e-07
1.03541e-05
2.95301e-07
1.07103e-05
3.65939e-07
1.09611e-05
3.94084e-07
1.11425e-05
4.05379e-07
1.12866e-05
4.10442e-07
1.13926e-05
3.93651e-07
1.14662e-05
3.69244e-07
1.15024e-05
3.35263e-07
1.1497e-05
3.06482e-07
1.14657e-05
2.76575e-07
1.13993e-05
2.53471e-07
1.13089e-05
2.34467e-07
1.12086e-05
2.05554e-07
1.85372e-07
1.1092e-05
6.56587e-06
-7.52886e-07
6.91313e-06
-7.35459e-07
7.13192e-06
-2.51656e-07
7.33425e-06
4.79304e-08
7.51412e-06
1.9502e-07
7.66882e-06
2.58103e-07
7.80575e-06
2.71112e-07
7.92861e-06
2.64842e-07
8.03851e-06
2.53292e-07
8.12412e-06
2.33896e-07
8.18211e-06
2.13145e-07
8.20258e-06
1.95784e-07
8.20003e-06
1.72169e-07
8.16523e-06
1.59577e-07
8.11111e-06
1.43648e-07
8.04244e-06
1.29575e-07
7.95959e-06
1.07522e-07
9.93953e-08
7.85943e-06
4.4987e-06
3.89504e-06
3.7645e-06
3.91047e-06
4.1755e-06
4.47455e-06
4.75749e-06
5.00613e-06
5.21712e-06
5.38498e-06
5.51098e-06
5.60122e-06
5.65211e-06
5.67722e-06
5.67565e-06
5.65144e-06
5.59885e-06
5.53346e-06
-2.02003e-07
-7.07364e-07
-3.06789e-07
-8.25436e-07
-3.39504e-07
-9.11401e-07
-3.10982e-07
-9.81685e-07
-2.42531e-07
-1.02847e-06
-1.65516e-07
-1.04261e-06
-1.0653e-07
-1.02893e-06
-7.56774e-08
-1.004e-06
-8.44608e-08
-9.66328e-07
-1.38864e-07
-9.21465e-07
-2.29243e-07
-8.84884e-07
-3.5747e-07
-8.44858e-07
-5.20191e-07
-8.0694e-07
-6.9884e-07
-7.86675e-07
-9.16791e-07
-7.41577e-07
-1.14846e-06
-7.21368e-07
-1.38659e-06
-7.06554e-07
-1.67065e-06
-6.49775e-07
-2.02788e-06
-5.65657e-07
-2.42087e-06
-5.19354e-07
-2.81593e-06
-5.06209e-07
-3.22121e-06
-4.83093e-07
-3.67207e-06
-4.22503e-07
-4.17201e-06
-3.56443e-07
-4.68005e-06
-3.27137e-07
-5.2021e-06
-2.91819e-07
-5.81491e-06
-1.89725e-07
-6.43201e-06
-1.85772e-07
-6.82238e-06
-4.04575e-07
-6.84269e-06
-7.43356e-07
-6.63934e-06
-9.32295e-07
-6.50592e-06
-8.5092e-07
-6.62476e-06
-5.9099e-07
-6.93114e-06
-3.6971e-07
-7.44965e-06
-1.01635e-07
-8.38243e-06
3.38366e-07
-9.868e-06
8.62042e-07
-1.17102e-05
1.19112e-06
-1.35531e-05
1.20888e-06
-1.52642e-05
1.11416e-06
-1.68218e-05
9.92505e-07
-1.82245e-05
8.63929e-07
-1.94816e-05
7.43811e-07
-2.06046e-05
6.35772e-07
-2.1594e-05
5.28967e-07
-2.24537e-05
4.2743e-07
-2.31917e-05
3.34953e-07
-2.38255e-05
2.61132e-07
-2.43765e-05
2.10183e-07
-2.48588e-05
1.75067e-07
-2.52604e-05
1.29904e-07
-2.55998e-05
1.05529e-07
-2.58835e-05
8.94415e-08
-2.61024e-05
6.69638e-08
-2.62657e-05
5.65017e-08
-2.63695e-05
4.49053e-08
-2.64146e-05
3.62621e-08
-2.64121e-05
4.065e-08
-2.63503e-05
3.54325e-08
-2.6234e-05
3.68689e-08
-2.60551e-05
3.28131e-08
-2.58143e-05
3.18784e-08
-2.55046e-05
2.6011e-08
-2.51365e-05
3.25344e-08
-2.47123e-05
4.29115e-08
-2.42372e-05
5.90567e-08
-2.37184e-05
8.34453e-08
-2.31634e-05
1.15861e-07
-2.2582e-05
1.59512e-07
-2.19822e-05
2.12317e-07
-2.13358e-05
2.37216e-07
-2.06705e-05
2.90061e-07
-1.99983e-05
3.54813e-07
-1.92961e-05
3.94808e-07
-1.85877e-05
4.58589e-07
-1.7871e-05
5.20305e-07
-1.71412e-05
5.75762e-07
-1.64033e-05
6.35407e-07
-1.56411e-05
6.77043e-07
-1.48576e-05
7.19119e-07
-1.41063e-05
8.15789e-07
-1.34083e-05
9.37759e-07
-1.27383e-05
1.0351e-06
-1.21178e-05
1.15373e-06
-1.14971e-05
1.21989e-06
-1.07877e-05
1.18819e-06
-9.99405e-06
1.15515e-06
-9.13754e-06
1.14055e-06
-8.34045e-06
1.25072e-06
-7.69168e-06
1.45468e-06
-7.19055e-06
1.65928e-06
-6.73963e-06
1.76888e-06
-6.26416e-06
1.79992e-06
-5.79228e-06
1.85848e-06
-5.36128e-06
1.9552e-06
-4.9435e-06
2.03047e-06
-4.48902e-06
2.03589e-06
-3.96112e-06
2.01558e-06
-3.50397e-06
2.13592e-06
-3.11507e-06
2.24998e-06
-2.80697e-06
2.3785e-06
-2.54319e-06
2.46774e-06
-2.28486e-06
2.51231e-06
-2.15775e-06
2.68391e-06
-2.15637e-06
2.86421e-06
-2.21756e-06
2.99328e-06
-1.99138e-06
2.75193e-06
-8.40288e-07
1.84246e-06
9.75146e-07
1.18711e-06
2.74559e-06
1.23098e-06
3.9149e-06
1.82326e-06
4.26609e-06
2.64417e-06
3.95829e-06
3.2762e-06
3.0327e-06
3.89131e-06
1.67327e-06
4.40258e-06
3.39119e-07
4.46551e-06
-8.25054e-07
4.34512e-06
-1.9688e-06
4.39922e-06
-3.43377e-06
4.81095e-06
-5.23937e-06
5.25182e-06
-7.51382e-06
5.80124e-06
-1.0125e-05
6.19249e-06
-1.23931e-05
6.034e-06
-1.37754e-05
5.37503e-06
-1.43092e-05
4.55443e-06
-1.50621e-05
4.82761e-06
-1.40456e-05
3.27815e-06
-1.11807e-05
1.42872e-06
-1.02395e-05
3.37334e-06
-8.36048e-06
2.71621e-06
-7.34082e-06
3.76726e-06
-6.79892e-06
4.35141e-06
-6.6543e-06
4.86286e-06
-6.41848e-06
4.83272e-06
-6.07933e-06
4.78352e-06
-5.47345e-06
4.5636e-06
-5.14524e-06
4.90218e-06
-5.31176e-06
5.47255e-06
-5.8944e-06
5.97721e-06
-6.79986e-06
6.41344e-06
-7.97771e-06
6.82781e-06
-9.4532e-06
7.27677e-06
-1.11657e-05
7.68669e-06
-1.28674e-05
7.88162e-06
-1.46393e-05
8.16647e-06
-1.63276e-05
8.3402e-06
-1.77019e-05
8.36509e-06
-1.88653e-05
8.54007e-06
-2.00623e-05
9.00619e-06
-2.11782e-05
9.41523e-06
-2.2305e-05
9.9921e-06
-2.32738e-05
1.04845e-05
-2.40276e-05
1.09733e-05
-2.37447e-05
1.07375e-05
-2.34116e-05
1.13565e-05
-2.32635e-05
1.23446e-05
-2.32457e-05
1.30322e-05
-2.25686e-05
1.30859e-05
-2.07503e-05
1.31242e-05
-1.84693e-05
1.32221e-05
-1.54136e-05
1.30953e-05
-1.19356e-05
1.34244e-05
-9.34993e-06
1.45289e-05
-1.00274e-05
1.74578e-05
-1.04904e-05
1.7909e-05
-1.07884e-05
1.79459e-05
-8.56777e-06
1.58643e-05
-6.97283e-06
1.64782e-05
-6.48202e-06
1.78011e-05
-7.71216e-08
1.18834e-05
5.46392e-06
1.25846e-05
8.08037e-06
1.54558e-05
1.05718e-05
1.58217e-05
1.36094e-05
1.50471e-05
1.62853e-05
1.52919e-05
1.87183e-05
1.5214e-05
2.08147e-05
1.50101e-05
2.23285e-05
1.52204e-05
2.27766e-05
1.61867e-05
1.64466e-05
2.29313e-05
-2.54258e-07
-1.35011e-06
-4.06727e-07
-1.58618e-06
-4.40251e-07
-1.79939e-06
-3.50515e-07
-1.9966e-06
-1.80799e-07
-2.12796e-06
3.31479e-09
-2.16274e-06
1.56772e-07
-2.12502e-06
2.66575e-07
-2.063e-06
3.11256e-07
-1.96605e-06
2.89081e-07
-1.85963e-06
2.26686e-07
-1.78691e-06
1.29114e-07
-1.71386e-06
-2.71711e-09
-1.64221e-06
-1.32516e-07
-1.62391e-06
-2.92591e-07
-1.54822e-06
-4.75838e-07
-1.50138e-06
-6.52848e-07
-1.48713e-06
-8.41323e-07
-1.41039e-06
-1.11747e-06
-1.2316e-06
-1.46202e-06
-1.11043e-06
-1.79365e-06
-1.09951e-06
-2.14296e-06
-1.0431e-06
-2.61981e-06
-8.41326e-07
-3.18017e-06
-6.76197e-07
-3.67977e-06
-6.83014e-07
-4.01422e-06
-7.87941e-07
-4.19236e-06
-8.23447e-07
-4.28076e-06
-9.15493e-07
-4.59439e-06
-8.98758e-07
-5.36459e-06
-6.935e-07
-6.62401e-06
-3.22324e-07
-8.47183e-06
3.29946e-07
-1.07991e-05
1.05422e-06
-1.33569e-05
1.52044e-06
-1.57939e-05
1.68362e-06
-1.78346e-05
1.74275e-06
-1.94464e-05
1.85312e-06
-2.07219e-05
1.86798e-06
-2.18991e-05
1.8063e-06
-2.30115e-05
1.67062e-06
-2.40415e-05
1.49064e-06
-2.49735e-05
1.28425e-06
-2.58014e-05
1.08321e-06
-2.65177e-05
8.85951e-07
-2.71362e-05
7.05079e-07
-2.7663e-05
5.36136e-07
-2.81078e-05
3.86922e-07
-2.84819e-05
2.71206e-07
-2.87847e-05
1.79014e-07
-2.90268e-05
1.16284e-07
-2.92186e-05
5.61705e-08
-2.93579e-05
1.6918e-08
-2.94311e-05
-2.60802e-08
-2.94407e-05
-6.8962e-08
-2.93858e-05
-9.90606e-08
-2.93068e-05
-8.83071e-08
-2.91798e-05
-9.5166e-08
-2.89977e-05
-9.47219e-08
-2.87721e-05
-9.17832e-08
-2.84763e-05
-1.06035e-07
-2.81139e-05
-1.16676e-07
-2.76806e-05
-1.25253e-07
-2.72099e-05
-1.04858e-07
-2.66861e-05
-8.70562e-08
-2.61109e-05
-6.21421e-08
-2.54805e-05
-3.40469e-08
-2.48138e-05
2.31267e-08
-2.41169e-05
9.41058e-08
-2.33757e-05
1.62955e-07
-2.26156e-05
2.66096e-07
-2.1848e-05
3.55112e-07
-2.10517e-05
4.52262e-07
-2.02239e-05
5.57329e-07
-1.94172e-05
6.86096e-07
-1.85978e-05
8.03868e-07
-1.77649e-05
9.18973e-07
-1.69349e-05
1.04074e-06
-1.60973e-05
1.15764e-06
-1.52461e-05
1.24831e-06
-1.43615e-05
1.309e-06
-1.34637e-05
1.43869e-06
-1.25834e-05
1.63986e-06
-1.17036e-05
1.80928e-06
-1.09152e-05
2.1038e-06
-1.02092e-05
2.35507e-06
-9.46254e-06
2.3592e-06
-8.59109e-06
2.2496e-06
-7.5584e-06
2.10104e-06
-6.43713e-06
2.1353e-06
-5.46055e-06
2.52364e-06
-4.76695e-06
3.07687e-06
-4.16546e-06
3.36905e-06
-3.58489e-06
3.49086e-06
-3.00448e-06
3.60463e-06
-2.49589e-06
3.83703e-06
-2.0238e-06
4.03106e-06
-1.61823e-06
4.16267e-06
-1.16822e-06
4.13116e-06
-8.0772e-07
4.38983e-06
-5.60158e-07
4.6665e-06
-3.3885e-07
4.87015e-06
-1.67988e-07
5.06369e-06
-2.85137e-08
5.20618e-06
9.24944e-08
5.44161e-06
5.15474e-08
5.82535e-06
-5.95909e-08
6.0963e-06
4.21039e-08
5.67793e-06
6.43578e-07
4.25078e-06
1.91657e-06
2.92298e-06
3.50304e-06
2.67451e-06
4.81434e-06
3.5614e-06
5.12407e-06
5.36848e-06
3.83519e-06
7.55939e-06
1.69214e-06
9.10734e-06
-2.05795e-07
9.49845e-06
-1.68972e-06
9.1779e-06
-3.04802e-06
8.98887e-06
-4.79271e-06
9.52968e-06
-6.86292e-06
1.03159e-05
-9.06596e-06
1.09688e-05
-1.12537e-05
1.16794e-05
-1.33133e-05
1.20954e-05
-1.48979e-05
1.15618e-05
-1.56004e-05
1.01609e-05
-1.47399e-05
7.98845e-06
-1.43388e-05
8.95043e-06
-1.27725e-05
6.05686e-06
-1.05219e-05
3.15426e-06
-9.27058e-06
6.06607e-06
-6.82642e-06
4.50023e-06
-5.64482e-06
7.07418e-06
-4.95507e-06
8.2834e-06
-4.59533e-06
9.30808e-06
-4.26729e-06
9.38068e-06
-3.71137e-06
9.1896e-06
-2.65996e-06
8.55969e-06
-1.86426e-06
9.26377e-06
-1.5917e-06
1.04885e-05
-2.05366e-06
1.18217e-05
-2.93248e-06
1.2714e-05
-4.07723e-06
1.34818e-05
-5.06872e-06
1.39478e-05
-5.88423e-06
1.44522e-05
-6.93662e-06
1.52942e-05
-8.45946e-06
1.64528e-05
-1.04263e-05
1.73912e-05
-1.25533e-05
1.78794e-05
-1.45064e-05
1.82104e-05
-1.62869e-05
1.89058e-05
-1.78712e-05
1.96202e-05
-1.93322e-05
2.06557e-05
-2.07761e-05
2.18862e-05
-2.16128e-05
2.26797e-05
-2.14519e-05
2.24234e-05
-2.10368e-05
2.37496e-05
-2.0218e-05
2.56407e-05
-1.99493e-05
2.78606e-05
-1.92133e-05
2.79795e-05
-1.78802e-05
2.93453e-05
-1.61036e-05
2.98197e-05
-1.34683e-05
2.90774e-05
-1.20948e-05
3.04484e-05
-1.35739e-05
3.41384e-05
-1.69969e-05
3.9223e-05
-1.61472e-05
3.68659e-05
-1.56002e-05
3.64374e-05
-1.17103e-05
3.21399e-05
-8.89886e-06
3.27842e-05
-8.01758e-06
3.65389e-05
-4.56061e-07
2.42059e-05
6.07352e-06
2.45999e-05
1.08016e-05
3.08108e-05
1.45486e-05
3.28694e-05
1.87936e-05
3.10974e-05
2.24135e-05
3.18765e-05
2.55089e-05
3.17292e-05
2.75265e-05
3.17901e-05
2.99733e-05
3.08368e-05
3.15689e-05
3.18865e-05
3.32587e-05
3.16894e-05
-2.89018e-07
-1.93098e-06
-4.65433e-07
-2.28218e-06
-4.72996e-07
-2.66528e-06
-3.17786e-07
-3.02835e-06
-6.97564e-08
-3.26009e-06
1.88466e-07
-3.31326e-06
3.87707e-07
-3.22311e-06
5.18829e-07
-3.09903e-06
5.65888e-07
-2.92413e-06
5.19645e-07
-2.72866e-06
4.14271e-07
-2.5987e-06
2.73189e-07
-2.49029e-06
1.16268e-07
-2.40488e-06
-3.70639e-08
-2.39546e-06
-1.95243e-07
-2.31841e-06
-3.79349e-07
-2.24313e-06
-5.21854e-07
-2.26595e-06
-6.21131e-07
-2.22758e-06
-8.19811e-07
-1.94698e-06
-1.17897e-06
-1.65863e-06
-1.5373e-06
-1.63358e-06
-1.82411e-06
-1.63203e-06
-2.07682e-06
-1.44606e-06
-2.35413e-06
-1.24401e-06
-2.80469e-06
-1.07061e-06
-3.53582e-06
-8.69356e-07
-4.6152e-06
-5.13874e-07
-6.24241e-06
-1.40617e-08
-8.3932e-06
5.93521e-07
-1.1059e-05
1.34441e-06
-1.38654e-05
1.81479e-06
-1.62082e-05
1.99377e-06
-1.79735e-05
2.15953e-06
-1.93912e-05
2.2907e-06
-2.06844e-05
2.34827e-06
-2.18994e-05
2.33513e-06
-2.29264e-05
2.27121e-06
-2.37738e-05
2.12273e-06
-2.449e-05
1.94267e-06
-2.51073e-05
1.72723e-06
-2.56685e-05
1.5054e-06
-2.6192e-05
1.28154e-06
-2.66695e-05
1.05628e-06
-2.70988e-05
8.30536e-07
-2.74805e-05
6.25561e-07
-2.78231e-05
4.43785e-07
-2.81354e-05
2.95563e-07
-2.83985e-05
1.59409e-07
-2.86161e-05
5.27534e-08
-2.87755e-05
-3.33289e-08
-2.88905e-05
-1.04e-07
-2.89569e-05
-1.54461e-07
-2.89892e-05
-1.93417e-07
-2.89939e-05
-2.24122e-07
-2.89758e-05
-2.30744e-07
-2.8901e-05
-2.27958e-07
-2.87697e-05
-2.41822e-07
-2.85749e-05
-2.48839e-07
-2.8339e-05
-2.35253e-07
-2.80562e-05
-2.44805e-07
-2.77062e-05
-2.59994e-07
-2.7295e-05
-2.65538e-07
-2.68292e-05
-2.36703e-07
-2.63008e-05
-2.17554e-07
-2.57186e-05
-1.80755e-07
-2.5091e-05
-1.27216e-07
-2.44379e-05
-1.96604e-08
-2.37487e-05
8.75116e-08
-2.30109e-05
1.78561e-07
-2.22544e-05
3.33154e-07
-2.14686e-05
4.63692e-07
-2.06491e-05
6.04027e-07
-1.98294e-05
7.8655e-07
-1.89754e-05
9.57682e-07
-1.8101e-05
1.12482e-06
-1.72305e-05
1.30849e-06
-1.63853e-05
1.51501e-06
-1.5548e-05
1.70077e-06
-1.47143e-05
1.85873e-06
-1.39313e-05
2.02893e-06
-1.31181e-05
2.16671e-06
-1.2297e-05
2.3974e-06
-1.14106e-05
2.54578e-06
-1.05021e-05
2.87454e-06
-9.60838e-06
3.23652e-06
-8.78386e-06
3.40981e-06
-7.98329e-06
3.40386e-06
-7.08228e-06
3.22188e-06
-6.01384e-06
3.09083e-06
-4.9627e-06
3.47981e-06
-4.10201e-06
4.25547e-06
-3.52427e-06
4.94136e-06
-2.971e-06
5.15231e-06
-2.27003e-06
5.12604e-06
-1.3738e-06
5.2113e-06
-6.72034e-07
5.70025e-06
-1.90441e-07
6.13372e-06
3.35667e-07
6.04554e-06
8.80784e-07
6.31958e-06
1.3888e-06
6.6992e-06
2.00348e-06
6.78487e-06
2.77772e-06
6.83168e-06
3.22982e-06
7.39025e-06
3.38579e-06
8.00905e-06
3.3942e-06
8.63821e-06
3.23073e-06
9.14503e-06
2.92758e-06
8.83748e-06
2.51984e-06
7.53289e-06
2.44475e-06
5.92961e-06
2.76948e-06
5.30672e-06
2.98676e-06
6.31127e-06
2.51978e-06
8.81383e-06
1.39811e-06
1.17436e-05
-5.27819e-08
1.37573e-05
-1.77175e-06
1.43954e-05
-3.47949e-06
1.40164e-05
-5.03296e-06
1.37742e-05
-6.6465e-06
1.45179e-05
-8.6567e-06
1.57905e-05
-1.07433e-05
1.64458e-05
-1.26192e-05
1.69304e-05
-1.43131e-05
1.74116e-05
-1.50027e-05
1.60033e-05
-1.42433e-05
1.31824e-05
-1.19771e-05
9.7071e-06
-1.07919e-05
1.20804e-05
-9.82069e-06
9.36357e-06
-8.41648e-06
5.99973e-06
-6.79062e-06
8.77322e-06
-5.00331e-06
6.87909e-06
-3.68413e-06
9.94201e-06
-2.84629e-06
1.16905e-05
-2.62224e-06
1.34053e-05
-2.51556e-06
1.36126e-05
-2.22167e-06
1.32493e-05
-1.12819e-06
1.18933e-05
-1.87187e-08
1.26812e-05
5.37353e-07
1.46459e-05
7.63324e-08
1.72672e-05
-1.22633e-06
1.92033e-05
-2.82561e-06
2.03088e-05
-4.3056e-06
2.05777e-05
-5.46525e-06
2.07392e-05
-6.2506e-06
2.15292e-05
-6.82248e-06
2.31511e-05
-7.53786e-06
2.49847e-05
-8.895e-06
2.6673e-05
-1.08223e-05
2.79264e-05
-1.28937e-05
2.90518e-05
-1.47785e-05
2.99813e-05
-1.65878e-05
3.14077e-05
-1.85214e-05
3.33192e-05
-2.02907e-05
3.46683e-05
-2.05032e-05
3.29449e-05
-2.00093e-05
3.43606e-05
-1.9343e-05
3.758e-05
-1.90068e-05
4.24113e-05
-1.88204e-05
4.36887e-05
-1.76976e-05
4.59152e-05
-1.61293e-05
4.73794e-05
-1.56406e-05
4.68799e-05
-1.69225e-05
4.93173e-05
-1.92688e-05
5.51476e-05
-2.02669e-05
6.03392e-05
-1.82645e-05
5.60639e-05
-1.41115e-05
5.34448e-05
-1.05522e-05
4.8696e-05
-7.53015e-06
4.88308e-05
-4.2861e-06
5.25725e-05
8.12962e-07
3.94654e-05
6.83482e-06
3.59176e-05
1.35826e-05
4.24359e-05
1.8515e-05
4.65035e-05
2.46131e-05
4.12917e-05
2.87826e-05
4.50779e-05
3.27778e-05
4.50949e-05
3.50117e-05
4.71572e-05
3.5296e-05
4.75271e-05
3.63875e-05
4.71868e-05
4.75186e-05
3.82279e-05
-2.43533e-07
-2.52581e-06
-3.2668e-07
-3.03598e-06
-2.01811e-07
-3.63387e-06
4.45722e-08
-4.13326e-06
3.13782e-07
-4.40774e-06
5.41613e-07
-4.43538e-06
6.8033e-07
-4.26398e-06
7.00572e-07
-4.02606e-06
6.51077e-07
-3.7871e-06
5.25642e-07
-3.51474e-06
3.54428e-07
-3.33125e-06
1.54766e-07
-3.189e-06
-7.59773e-08
-3.07272e-06
-2.55227e-07
-3.11813e-06
-4.11275e-07
-3.06366e-06
-6.29221e-07
-2.92046e-06
-8.11849e-07
-2.95947e-06
-9.22006e-07
-2.97415e-06
-9.64872e-07
-2.74306e-06
-1.14107e-06
-2.30367e-06
-1.60083e-06
-1.98615e-06
-2.34408e-06
-1.68786e-06
-3.31048e-06
-1.26565e-06
-4.6037e-06
-7.44798e-07
-6.31308e-06
-1.34504e-07
-8.39488e-06
5.19116e-07
-1.07255e-05
1.18159e-06
-1.30258e-05
1.63881e-06
-1.51031e-05
1.98901e-06
-1.67474e-05
2.29568e-06
-1.81523e-05
2.52675e-06
-1.94918e-05
2.64389e-06
-2.06777e-05
2.67134e-06
-2.16709e-05
2.62419e-06
-2.25012e-05
2.53205e-06
-2.32058e-05
2.40788e-06
-2.38094e-05
2.25857e-06
-2.43441e-05
2.06159e-06
-2.48207e-05
1.84019e-06
-2.52697e-05
1.61097e-06
-2.56773e-05
1.3675e-06
-2.60478e-05
1.12935e-06
-2.6393e-05
9.00287e-07
-2.67152e-05
6.76117e-07
-2.70143e-05
4.7846e-07
-2.7297e-05
3.07284e-07
-2.75386e-05
1.45437e-07
-2.77338e-05
-1.77021e-09
-2.78867e-05
-1.18991e-07
-2.80177e-05
-1.97479e-07
-2.81301e-05
-2.5034e-07
-2.82031e-05
-3.02039e-07
-2.82362e-05
-3.4038e-07
-2.82689e-05
-3.30816e-07
-2.82443e-05
-3.47784e-07
-2.81704e-05
-3.48747e-07
-2.80621e-05
-3.51584e-07
-2.79102e-05
-3.44716e-07
-2.76948e-05
-3.42465e-07
-2.74189e-05
-3.61729e-07
-2.70977e-05
-3.66206e-07
-2.6732e-05
-3.61116e-07
-2.62856e-05
-3.57173e-07
-2.5782e-05
-3.33669e-07
-2.52199e-05
-2.91917e-07
-2.45994e-05
-2.31889e-07
-2.39597e-05
-7.36057e-08
-2.32878e-05
7.17761e-08
-2.25922e-05
2.11024e-07
-2.18578e-05
4.01617e-07
-2.10896e-05
5.67419e-07
-2.02919e-05
7.45556e-07
-1.94547e-05
9.65187e-07
-1.85891e-05
1.19067e-06
-1.76911e-05
1.40528e-06
-1.67543e-05
1.62362e-06
-1.5833e-05
1.91486e-06
-1.49337e-05
2.18531e-06
-1.4039e-05
2.40904e-06
-1.31604e-05
2.66675e-06
-1.22998e-05
2.89418e-06
-1.15311e-05
3.26881e-06
-1.0862e-05
3.56043e-06
-1.00872e-05
3.82404e-06
-9.17255e-06
4.08004e-06
-8.26819e-06
4.31044e-06
-7.44757e-06
4.45762e-06
-6.68339e-06
4.43691e-06
-5.85619e-06
4.33215e-06
-4.92146e-06
4.62823e-06
-3.99719e-06
5.42313e-06
-3.28006e-06
6.38232e-06
-2.75954e-06
6.8576e-06
-2.17635e-06
6.76732e-06
-1.23368e-06
6.46225e-06
-2.61134e-07
6.95524e-06
4.08729e-07
7.75575e-06
9.93405e-07
7.75329e-06
1.55446e-06
8.06811e-06
1.89902e-06
8.74628e-06
2.44709e-06
8.6265e-06
3.59925e-06
8.06859e-06
4.88758e-06
8.54404e-06
5.87146e-06
9.52075e-06
6.39363e-06
1.07354e-05
6.41883e-06
1.18197e-05
5.99841e-06
1.20167e-05
5.25058e-06
1.11635e-05
4.42258e-06
9.69519e-06
3.50233e-06
9.15141e-06
2.44933e-06
1.02785e-05
1.22536e-06
1.29691e-05
-4.32524e-08
1.60253e-05
-1.56693e-06
1.834e-05
-3.22594e-06
1.90739e-05
-4.4267e-06
1.8193e-05
-5.66585e-06
1.79545e-05
-7.11725e-06
1.90726e-05
-8.77948e-06
2.08896e-05