/*--------------------------------*- C++ -*----------------------------------*\
| =========                 |                                                 |
| \\      /  F ield         | OpenFOAM: The Open Source CFD Toolbox           |
|  \\    /   O peration     | Version:  dev                                   |
|   \\  /    A nd           | Web:      http://www.openfoam.org               |
|    \\/     M anipulation  |                                                 |
\*---------------------------------------------------------------------------*/
FoamFile
{
    version     2.0;
    format      ascii;
    class       volScalarField;
    object      pMean;
    location    "9.16";
}
// * * * * * * * * * * * * * * * * * * * * * * * * * * * * * * * * * * * * * //

dimensions      [1 -1 -2 0 0 0 0];

internalField   nonuniform List<scalar> 
12225
(
98310.1
98290.3
98276.5
98269.5
98255.3
98245.9
98227.4
98217.8
98196.3
98187.6
98162.9
98156
98125.1
98118.8
98078
98038.3
97949.2
97583.2
98305.6
98289.2
98276
98269
98254.7
98245.3
98226.7
98217.3
98195.6
98187.2
98162.2
98155.5
98124.7
98116.8
98076.2
98042.4
97950.1
97789
98301.8
98287.6
98275
98267.6
98253.2
98243.8
98225.2
98215.9
98194.2
98185.7
98161.3
98153.5
98125.3
98113.4
98078.5
98043.3
97975.9
97887.1
98296.7
98284.7
98272.9
98265.2
98250.8
98241.1
98223.1
98213.2
98192.5
98183
98160
98150.4
98124.2
98111.2
98079.5
98051.7
98003.2
97934.4
98290.1
98280.3
98269.3
98261.2
98247.3
98237
98220.1
98209.1
98190
98178.7
98158.5
98145.8
98124.3
98108
98081.4
98057.2
98017.3
97984.6
98281.9
98274.2
98263.4
98255.1
98241.7
98231.1
98215
98203.4
98185.6
98173.5
98155.3
98141.7
98123.3
98106.3
98085
98059.7
98037.5
98017.1
98271.6
98265.2
98254.9
98246.4
98233.8
98222.7
98207.9
98195.3
98179.6
98166
98150.7
98135.6
98121
98103.5
98089.2
98068.2
98057.9
98043
98260.9
98255.2
98245.5
98236.8
98225.1
98213.6
98200
98186.8
98172.8
98158.5
98145.4
98129.7
98118.2
98100.9
98092.2
98074.4
98072.6
98057.7
98250
98244.6
98235.8
98226.9
98216
98204.3
98191.7
98178.2
98165.6
98151
98139.6
98124.1
98114.4
98098.4
98092.1
98077.9
98077.6
98065.7
98236.4
98231
98223.3
98214.3
98204.3
98192.6
98181
98167.6
98156.3
98141.7
98131.8
98116.8
98108.6
98094.3
98089.3
98077.5
98076.7
98068.4
98219.5
98214
98207.5
98198.7
98189.6
98178.1
98167.3
98154.4
98143.9
98130.3
98120.9
98107.8
98099.7
98088.2
98082.6
98074.1
98071.4
98066.2
98199
98193.3
98188
98179.6
98171.2
98160.2
98150.3
98138
98128.4
98115.8
98107.2
98095.7
98088.2
98078.9
98073.1
98066.8
98063.1
98059.5
98174.2
98168.9
98164.4
98156.9
98148.9
98138.9
98129.5
98118.7
98109.4
98098.8
98090.3
98081
98073.8
98066.6
98061.1
98056.3
98052.6
98049.9
98146
98141.2
98137.2
98130.7
98123.4
98114.5
98105.9
98096.4
98087.8
98078.9
98071.1
98063.6
98057.2
98051.5
98046.8
98043
98040
98037.9
98115.9
98112.2
98108.4
98103
98096.5
98088.9
98081.1
98073
98065.4
98057.9
98051.2
98045.1
98039.8
98035.2
98031.5
98028.6
98026.4
98024.9
98088.2
98085.5
98082.1
98077.6
98072
98065.5
98058.7
98051.8
98045.2
98039
98033.4
98028.5
98024.2
98020.6
98017.7
98015.6
98014
98013.1
98069.7
98067.7
98065
98061
98056.1
98050.4
98044.5
98038.5
98032.8
98027.6
98022.8
98018.6
98015.1
98012.1
98009.8
98008.2
98007
98006.4
98069.9
98068.2
98065.7
98061.9
98057.2
98051.9
98046.3
98040.7
98035.4
98030.4
98026
98022
98018.6
98015.8
98013.6
98011.9
98010.7
98010
98089.6
98087.8
98084.9
98080.9
98076
98070.5
98064.7
98058.9
98053.3
98048.1
98043.3
98039
98035.3
98032.1
98029.4
98027.2
98025.6
98024.3
98120.3
98118.2
98114.8
98110.3
98104.9
98098.8
98092.5
98086.1
98080
98074.1
98068.7
98063.8
98059.4
98055.5
98052.2
98049.3
98047
98045
98155.1
98152.6
98148.5
98143.3
98137.2
98130.6
98123.6
98116.6
98109.8
98103.3
98097.1
98091.5
98086.3
98081.7
98077.6
98074
98070.8
98068.1
98189
98185.9
98181.1
98175.3
98168.6
98161.3
98153.8
98146.2
98138.7
98131.5
98124.7
98118.3
98112.5
98107.1
98102.3
98098
98094.1
98090.7
98219.2
98215.5
98210
98203.5
98196.2
98188.5
98180.5
98172.4
98164.3
98156.6
98149.2
98142.2
98135.7
98129.7
98124.3
98119.3
98114.8
98110.8
98244.5
98240.1
98233.8
98226.7
98219
98210.9
98202.5
98194
98185.6
98177.3
98169.4
98162
98155
98148.5
98142.6
98137.1
98132.1
98127.6
98264.7
98259.5
98252.4
98244.7
98236.7
98228.3
98219.7
98210.9
98202.1
98193.6
98185.3
98177.5
98170.1
98163.3
98156.9
98151
98145.7
98140.8
98280.3
98274
98265.9
98257.8
98249.6
98241.1
98232.4
98223.4
98214.4
98205.6
98197.1
98189
98181.3
98174.2
98167.5
98161.4
98155.7
98150.5
98292.1
98284.3
98275.2
98266.7
98258.5
98249.9
98241.1
98232
98222.9
98214
98205.3
98197
98189.2
98181.8
98175
98168.6
98162.8
98157.4
98300.8
98291
98280.9
98272.3
98264
98255.6
98246.7
98237.6
98228.4
98219.4
98210.6
98202.2
98194.2
98186.7
98179.8
98173.3
98167.3
98161.8
98306.9
98294.8
98283.7
98275.1
98267
98258.7
98249.9
98240.8
98231.6
98222.5
98213.6
98205.1
98197.1
98189.6
98182.5
98176
98169.9
98164.3
98312.9
98297.3
98285.3
98276.4
98268.2
98259.9
98251.2
98242.1
98232.9
98223.7
98214.9
98206.4
98198.3
98190.7
98183.7
98177.1
98171
98165.4
98309.9
98309.5
98308.7
98307.6
98306.1
98304.3
98302
98299.4
98296.4
98292.9
98289.1
98284.8
98280.2
98275.3
98270.1
98264.6
98258.9
98253
98246.9
98240.6
98234.2
98227.6
98220.9
98214.1
98207.2
98200.3
98193.3
98186.2
98179.1
98172
98164.9
98157.9
98150.9
98143.9
98137
98130.3
98123.6
98117.2
98110.8
98104.7
98098.8
98093.1
98087.7
98082.6
98077.7
98073.3
98069.2
98065.5
98062.2
98059.3
98056.9
98055
98053.6
98052.8
98052.5
98052.9
98053.8
98055.4
98057.7
98060.7
98064.4
98068.7
98073.8
98079.7
98086.2
98093.4
98101.4
98110.1
98119.4
98129.3
98139.9
98151.1
98162.9
98175.1
98187.9
98201.1
98214.8
98228.7
98243
98257.6
98272.4
98287.5
98302.6
98317.8
98333.1
98348.3
98363.5
98378.6
98393.5
98408.2
98422.7
98436.8
98450.6
98463.9
98476.8
98489.3
98501.2
98512.5
98523.3
98533.4
98542.9
98551.8
98560
98567.6
98574.6
98580.9
98586.6
98591.8
98596.4
98600.5
98604.1
98607.3
98610.2
98612.7
98614.9
98616.8
98618.4
98619.9
98621.1
98622.3
98623.3
98624.4
98625.6
98626.9
98628.5
98630.5
98633.2
98636.6
98641
98646.6
98653.7
98662.4
98673.2
98686
98701.4
98719.4
98740.2
98764
98790.8
98820.7
98853.7
98889.6
98928.4
98969.9
99014.3
99060.9
99109.8
99160.5
99213.2
99267.4
99322.9
99379.3
99436.3
99493.7
99550.9
99607.6
99663
99716.8
99767.8
99815.7
99859.2
99897.6
99929.6
99954.7
99971.5
99979
99976.4
99963.5
99939.4
99904.8
99859.4
99804.7
99740.8
99670.1
99593.1
99512.5
99428
99343.3
99256.4
99173.2
98302.9
98302.6
98301.8
98300.6
98299.1
98297.2
98295
98292.4
98289.4
98286
98282.2
98278.1
98273.6
98268.8
98263.7
98258.4
98252.9
98247.2
98241.2
98235.2
98228.9
98222.5
98216
98209.4
98202.7
98195.9
98189
98182.1
98175.2
98168.2
98161.3
98154.4
98147.5
98140.7
98134
98127.4
98120.9
98114.6
98108.4
98102.4
98096.6
98091
98085.7
98080.6
98075.9
98071.5
98067.5
98063.8
98060.6
98057.7
98055.3
98053.4
98052
98051.2
98050.9
98051.2
98052.1
98053.6
98055.8
98058.7
98062.3
98066.6
98071.5
98077.2
98083.6
98090.7
98098.5
98107
98116.2
98126
98136.4
98147.3
98158.9
98171
98183.5
98196.5
98209.9
98223.7
98237.7
98252.1
98266.7
98281.4
98296.3
98311.3
98326.3
98341.2
98356.2
98371
98385.6
98400
98414.1
98428
98441.5
98454.5
98467.1
98479.3
98490.9
98502
98512.5
98522.4
98531.7
98540.3
98548.3
98555.7
98562.5
98568.7
98574.2
98579.2
98583.8
98587.7
98591.3
98594.4
98597.2
98599.6
98601.8
98603.6
98605.2
98606.6
98607.8
98608.8
98609.8
98610.8
98611.8
98613
98614.5
98616.3
98618.7
98621.9
98626
98631.3
98638
98646.2
98656.5
98668.8
98683.5
98700.9
98721
98744
98770
98798.9
98830.9
98865.8
98903.6
98944.1
98987.3
99032.8
99080.5
99130.1
99181.5
99234.6
99288.9
99344.2
99400.1
99456.4
99512.6
99568.3
99622.8
99675.7
99726.1
99773.3
99816.4
99854.6
99886.5
99911.7
99928.8
99936.9
99935.2
99923.3
99900.6
99867.4
99823.7
99770.7
99708.5
99639.6
99564.4
99485.6
99402.6
99319.4
99233.6
99148.6
98290.2
98289.9
98289.1
98287.9
98286.3
98284.4
98282
98279.4
98276.4
98273
98269.3
98265.2
98260.9
98256.3
98251.5
98246.5
98241.2
98235.8
98230.3
98224.5
98218.7
98212.7
98206.5
98200.3
98193.9
98187.5
98180.9
98174.3
98167.7
98161.1
98154.4
98147.8
98141.2
98134.6
98128.2
98121.8
98115.5
98109.4
98103.5
98097.7
98092.1
98086.7
98081.5
98076.6
98072
98067.8
98063.8
98060.3
98057.1
98054.3
98051.9
98050
98048.5
98047.6
98047.2
98047.4
98048.2
98049.7
98051.7
98054.4
98057.8
98061.9
98066.7
98072.1
98078.2
98085.1
98092.6
98100.8
98109.6
98119.1
98129.1
98139.7
98150.9
98162.6
98174.8
98187.3
98200.3
98213.6
98227.2
98241.1
98255.3
98269.5
98283.9
98298.4
98312.9
98327.4
98341.7
98356
98370.1
98383.9
98397.5
98410.8
98423.7
98436.3
98448.3
98459.9
98471
98481.5
98491.5
98500.9
98509.8
98518
98525.6
98532.6
98539.1
98544.9
98550.2
98555
98559.2
98563
98566.4
98569.3
98572
98574.3
98576.3
98578
98579.4
98580.7
98581.7
98582.6
98583.4
98584.2
98585
98585.8
98586.9
98588.4
98590.3
98592.9
98596.4
98600.9
98606.8
98614.2
98623.4
98634.6
98648.1
98664.1
98682.7
98704.1
98728.4
98755.5
98785.7
98818.5
98854.2
98892.5
98933.5
98976.7
99022.1
99069.3
99118.4
99169.1
99221
99274
99327.7
99381.8
99435.9
99489.5
99542.1
99593.3
99642.1
99688
99729.9
99767.3
99798.7
99823.8
99841.3
99850.2
99849.7
99839.7
99819.3
99788.8
99748.1
99698.5
99639.9
99574.7
99503.1
99427.8
99348.3
99268.3
99185.3
99101.4
98272.8
98272.5
98271.7
98270.5
98268.9
98266.9
98264.6
98261.9
98258.9
98255.6
98252
98248.1
98244
98239.6
98235.1
98230.3
98225.5
98220.4
98215.3
98210
98204.6
98199.1
98193.4
98187.6
98181.7
98175.7
98169.7
98163.6
98157.4
98151.2
98145
98138.8
98132.7
98126.5
98120.4
98114.4
98108.5
98102.7
98097.1
98091.6
98086.2
98081.1
98076.1
98071.4
98067
98062.8
98059
98055.5
98052.4
98049.7
98047.4
98045.4
98044
98043
98042.5
98042.6
98043.3
98044.5
98046.4
98048.9
98052
98055.8
98060.2
98065.3
98071
98077.5
98084.6
98092.3
98100.7
98109.7
98119.3
98129.4
98140
98151.2
98162.8
98174.8
98187.1
98199.8
98212.8
98226.1
98239.5
98253.1
98266.8
98280.6
98294.4
98308.1
98321.7
98335.3
98348.6
98361.7
98374.6
98387.1
98399.3
98411
98422.3
98433.1
98443.5
98453.3
98462.6
98471.3
98479.5
98487.1
98494.2
98500.6
98506.6
98512
98516.9
98521.3
98525.2
98528.7
98531.8
98534.5
98536.9
98539
98540.8
98542.3
98543.6
98544.6
98545.5
98546.1
98546.7
98547.1
98547.5
98547.9
98548.5
98549.3
98550.6
98552.4
98554.9
98558.5
98563.2
98569.2
98577
98586.7
98598.4
98612.5
98629.1
98648.3
98670.2
98694.9
98722.4
98752.5
98785.2
98820.6
98858.5
98898.5
98940.7
98984.8
99030.7
99078.2
99127
99176.8
99227.5
99278.7
99329.8
99380.7
99430.7
99479.5
99526.1
99570.1
99610.4
99646.5
99677.1
99701.8
99719.5
99729.2
99730.2
99722.1
99704.4
99677.3
99640.5
99595.1
99541.2
99480.8
99414
99343.6
99268.8
99193.3
99114.5
99034.4
98251.6
98251.4
98250.7
98249.5
98248
98246.1
98243.8
98241.2
98238.3
98235
98231.6
98227.8
98223.9
98219.8
98215.5
98211.1
98206.6
98202
98197.2
98192.4
98187.5
98182.4
98177.3
98172
98166.7
98161.2
98155.8
98150.2
98144.6
98139
98133.4
98127.7
98122.1
98116.5
98110.9
98105.4
98100
98094.6
98089.4
98084.2
98079.3
98074.4
98069.8
98065.3
98061.1
98057.2
98053.5
98050.2
98047.1
98044.5
98042.1
98040.2
98038.7
98037.7
98037.1
98037
98037.5
98038.5
98040.1
98042.3
98045.1
98048.5
98052.5
98057.2
98062.5
98068.4
98075
98082.2
98090
98098.4
98107.3
98116.8
98126.8
98137.2
98148.1
98159.4
98171
98182.9
98195.1
98207.5
98220.1
98232.8
98245.6
98258.5
98271.4
98284.2
98296.9
98309.5
98322
98334.1
98346
98357.6
98368.9
98379.7
98390.1
98400
98409.4
98418.3
98426.8
98434.7
98442.1
98448.9
98455.3
98461.1
98466.4
98471.3
98475.6
98479.5
98483
98486.1
98488.9
98491.3
98493.4
98495.2
98496.8
98498
98499
98499.8
98500.4
98500.7
98500.9
98500.9
98500.8
98500.6
98500.6
98500.7
98501.1
98501.9
98503.3
98505.6
98508.9
98513.4
98519.4
98527.2
98536.8
98548.6
98562.7
98579.3
98598.3
98619.9
98644.2
98671
98700.3
98732
98766.3
98802.6
98841
98881.2
98923.3
98966.9
99012
99058.1
99105.1
99152.7
99200.4
99247.9
99294.7
99340.5
99384.5
99426.1
99464.4
99498.8
99528.2
99552.4
99570
99580.3
99582.7
99576.8
99562.1
99538.7
99506.3
99465.9
99417.4
99362.8
99301.7
99237.3
99168.2
99098.3
99025
98950.4
98228.2
98228
98227.4
98226.3
98224.9
98223.1
98221
98218.5
98215.8
98212.8
98209.5
98206
98202.3
98198.4
98194.4
98190.4
98186.2
98181.9
98177.6
98173.1
98168.6
98164.1
98159.4
98154.7
98149.9
98145
98140.1
98135.1
98130.2
98125.1
98120.1
98115.1
98110
98105
98100
98095.1
98090.2
98085.4
98080.6
98075.9
98071.4
98066.9
98062.6
98058.5
98054.6
98050.9
98047.5
98044.3
98041.4
98038.8
98036.5
98034.6
98033.1
98032
98031.3
98031
98031.3
98032.1
98033.4
98035.2
98037.6
98040.6
98044.2
98048.3
98053.1
98058.4
98064.4
98070.9
98078.1
98085.7
98093.9
98102.7
98111.9
98121.5
98131.5
98141.9
98152.6
98163.6
98174.9
98186.3
98198
98209.7
98221.5
98233.3
98245.1
98256.9
98268.6
98280.1
98291.4
98302.5
98313.3
98323.8
98334
98343.8
98353.1
98362
98370.4
98378.3
98385.8
98392.8
98399.3
98405.4
98410.9
98415.9
98420.6
98424.7
98428.5
98431.8
98434.8
98437.5
98439.8
98441.9
98443.6
98445.1
98446.3
98447.2
98447.9
98448.3
98448.5
98448.4
98448.1
98447.6
98447
98446.2
98445.4
98444.7
98444.1
98443.7
98443.9
98444.7
98446.4
98449.2
98453.2
98458.8
98466
98475.2
98486.6
98500.1
98516
98534.2
98555
98578
98603.5
98631.2
98661.3
98693.6
98727.7
98763.9
98801.7
98841.1
98882
98924
98966.9
99010.5
99054.3
99098.1
99141.4
99183.8
99224.7
99263.6
99299.5
99332
99359.9
99383.1
99400.5
99411.2
99414.8
99411.1
99399.4
99379.9
99352.1
99316.9
99274.1
99225.6
99171
99113.2
99050.7
98987.3
98920.4
98852.3
98203.8
98203.7
98203.1
98202.2
98200.9
98199.3
98197.4
98195.1
98192.6
98189.8
98186.8
98183.6
98180.2
98176.6
98172.9
98169.2
98165.3
98161.4
98157.4
98153.4
98149.3
98145.2
98141
98136.7
98132.4
98128.1
98123.8
98119.4
98115
98110.6
98106.1
98101.7
98097.2
98092.8
98088.4
98084
98079.7
98075.4
98071.1
98066.9
98062.8
98058.8
98054.9
98051.1
98047.5
98044.1
98040.9
98037.9
98035.2
98032.7
98030.5
98028.6
98027
98025.8
98025
98024.6
98024.7
98025.2
98026.2
98027.7
98029.7
98032.2
98035.3
98038.9
98043
98047.7
98053
98058.9
98065.2
98072.1
98079.5
98087.4
98095.7
98104.5
98113.6
98123
98132.8
98142.7
98153
98163.4
98173.9
98184.5
98195.2
98205.9
98216.5
98227.1
98237.6
98248
98258.1
98268
98277.7
98287
98296
98304.6
98312.8
98320.6
98327.9
98334.8
98341.3
98347.3
98352.9
98358
98362.7
98366.9
98370.7
98374.2
98377.3
98380
98382.5
98384.6
98386.5
98388.1
98389.3
98390.4
98391.2
98391.7
98392
98392
98391.7
98391.2
98390.4
98389.3
98388.1
98386.5
98384.9
98383.2
98381.5
98380
98378.7
98378
98378
98378.9
98380.7
98384
98388.7
98395.2
98403.5
98414
98426.5
98441.1
98458.1
98477.3
98498.7
98522.3
98548.1
98576
98605.8
98637.6
98671
98706
98742.5
98780.2
98818.8
98858.1
98897.8
98937.7
98977.4
99016.1
99053.6
99089.3
99122.6
99152.7
99178.8
99200.7
99217.4
99228.4
99233
99231.4
99222.4
99206.7
99183.2
99153.4
99116.4
99074.2
99026.2
98975.4
98919.9
98863.7
98803.7
98742.8
98179.6
98179.6
98179.1
98178.4
98177.3
98175.9
98174.2
98172.2
98169.9
98167.4
98164.7
98161.8
98158.7
98155.5
98152.2
98148.7
98145.2
98141.7
98138
98134.4
98130.7
98126.9
98123.2
98119.4
98115.6
98111.7
98107.9
98104
98100.2
98096.3
98092.4
98088.5
98084.6
98080.7
98076.8
98073
98069.2
98065.4
98061.6
98057.8
98054.2
98050.5
98047
98043.6
98040.3
98037.1
98034.1
98031.3
98028.7
98026.3
98024.2
98022.3
98020.7
98019.4
98018.5
98017.9
98017.8
98018
98018.7
98019.8
98021.4
98023.5
98026
98029.1
98032.6
98036.7
98041.3
98046.4
98052
98058.1
98064.7
98071.7
98079.1
98086.9
98095
98103.5
98112.2
98121.1
98130.2
98139.5
98148.9
98158.4
98167.9
98177.4
98186.9
98196.2
98205.5
98214.6
98223.5
98232.1
98240.5
98248.6
98256.4
98263.8
98270.8
98277.4
98283.6
98289.4
98294.8
98299.9
98304.5
98308.7
98312.5
98315.9
98318.9
98321.6
98324
98326.1
98327.9
98329.5
98330.8
98331.9
98332.7
98333.2
98333.6
98333.6
98333.4
98333
98332.2
98331.1
98329.7
98328.1
98326.1
98323.7
98321.2
98318.4
98315.6
98312.8
98310.1
98307.8
98306
98304.9
98304.6
98305.4
98307.6
98311.3
98316.7
98323.9
98332.9
98344.1
98357.2
98372.5
98390
98409.4
98430.9
98454.4
98479.8
98507.2
98536.2
98566.8
98598.9
98632.2
98666.4
98701.5
98737
98773
98808.7
98843.6
98877.5
98909.9
98940.1
98967.7
98991.5
99011.8
99027.5
99038.3
99043.7
99043.7
99037.2
99024.8
99005.4
98980.5
98949.1
98913.2
98871.9
98828.1
98779.7
98730.8
98678.1
98624.9
98156.8
98156.8
98156.5
98155.9
98155
98153.8
98152.3
98150.6
98148.6
98146.4
98144
98141.4
98138.7
98135.8
98132.9
98129.8
98126.6
98123.4
98120.2
98116.9
98113.6
98110.2
98106.9
98103.5
98100.2
98096.8
98093.4
98090
98086.6
98083.2
98079.7
98076.3
98072.9
98069.5
98066.1
98062.7
98059.3
98055.9
98052.5
98049.2
98045.9
98042.6
98039.4
98036.2
98033.2
98030.3
98027.5
98024.8
98022.3
98020
98017.9
98016.1
98014.4
98013.1
98012
98011.3
98010.9
98010.9
98011.2
98012
98013.2
98014.8
98016.8
98019.4
98022.3
98025.8
98029.7
98034.1
98038.9
98044.2
98049.9
98056
98062.5
98069.4
98076.6
98084
98091.7
98099.6
98107.6
98115.8
98124
98132.3
98140.7
98148.9
98157.2
98165.3
98173.3
98181.1
98188.7
98196.1
98203.2
98210.1
98216.6
98222.8
98228.6
98234.1
98239.2
98243.8
98248.2
98252.1
98255.7
98259
98261.9
98264.5
98266.7
98268.7
98270.3
98271.7
98272.9
98273.9
98274.6
98275.1
98275.4
98275.4
98275.2
98274.7
98273.9
98272.9
98271.6
98269.9
98267.9
98265.5
98262.7
98259.5
98256
98252.2
98248.2
98244.1
98240.1
98236.2
98232.6
98229.5
98227.1
98225.6
98225.2
98226.1
98228.6
98232.6
98238.3
98246
98255.4
98267
98280.5
98296
98313.3
98332.6
98353.7
98376.9
98401.6
98427.9
98455.6
98484.6
98514.5
98545.4
98576.9
98608.8
98640.5
98671.5
98701.7
98730.6
98757.5
98782.3
98803.7
98821.9
98836.2
98846.5
98852.1
98853.2
98848.6
98838.9
98823.3
98802.8
98776.5
98746.6
98711.8
98674.9
98633.5
98592
98546.6
98501.3
98136.2
98136.3
98136
98135.5
98134.8
98133.8
98132.6
98131.2
98129.5
98127.7
98125.6
98123.4
98121
98118.5
98115.8
98113.1
98110.3
98107.5
98104.6
98101.7
98098.8
98095.9
98092.9
98089.9
98087
98084
98081
98078
98075
98071.9
98068.9
98065.9
98062.8
98059.8
98056.8
98053.8
98050.7
98047.7
98044.6
98041.6
98038.6
98035.6
98032.6
98029.7
98026.8
98024.1
98021.4
98018.9
98016.5
98014.2
98012.1
98010.2
98008.5
98007.1
98005.9
98005
98004.3
98004.1
98004.1
98004.6
98005.4
98006.6
98008.2
98010.2
98012.6
98015.4
98018.7
98022.4
98026.5
98031
98035.9
98041.2
98046.8
98052.8
98059
98065.5
98072.2
98079
98086
98093.1
98100.2
98107.4
98114.5
98121.6
98128.6
98135.5
98142.3
98148.9
98155.2
98161.4
98167.3
98172.9
98178.2
98183.1
98187.8
98192
98196
98199.5
98202.8
98205.7
98208.3
98210.6
98212.6
98214.3
98215.7
98216.9
98217.8
98218.5
98219
98219.3
98219.4
98219.3
98219
98218.4
98217.6
98216.5
98215.2
98213.5
98211.5
98209.2
98206.4
98203.2
98199.6
98195.5
98191.1
98186.2
98181.1
98175.7
98170.4
98165
98159.6
98154.7
98150.3
98146.6
98143.8
98142.1
98141.7
98142.7
98145.3
98149.6
98155.6
98163.5
98173.3
98185
98198.5
98213.9
98231
98250.2
98270.8
98293.1
98316.6
98341.4
98367.3
98394.1
98421.6
98449.5
98477.1
98504.4
98530.8
98556
98579.6
98601.3
98620.1
98635.9
98648.4
98657.5
98662.7
98664.2
98661
98653.5
98640.9
98624.4
98602.7
98578.3
98549.6
98519.1
98484.4
98450.1
98411.8
98374.4
98118.4
98118.5
98118.4
98118
98117.4
98116.6
98115.7
98114.5
98113.1
98111.6
98109.8
98108
98105.9
98103.8
98101.5
98099.2
98096.8
98094.4
98091.9
98089.3
98086.8
98084.2
98081.6
98079
98076.4
98073.8
98071.2
98068.5
98065.8
98063.1
98060.4
98057.7
98055
98052.2
98049.5
98046.7
98044
98041.2
98038.3
98035.5
98032.7
98029.9
98027.1
98024.3
98021.6
98018.9
98016.3
98013.9
98011.5
98009.2
98007.1
98005.1
98003.3
98001.8
98000.4
97999.3
97998.5
97998
97997.8
97997.9
97998.4
97999.2
98000.3
98001.9
98003.8
98006.1
98008.8
98011.8
98015.3
98019.1
98023.2
98027.7
98032.5
98037.6
98043
98048.5
98054.3
98060.1
98066.1
98072.1
98078.2
98084.3
98090.3
98096.3
98102.2
98107.9
98113.5
98118.9
98124.1
98129
98133.6
98138
98142.1
98145.9
98149.4
98152.5
98155.3
98157.8
98160
98161.8
98163.4
98164.8
98165.9
98166.7
98167.3
98167.6
98167.7
98167.7
98167.5
98167
98166.4
98165.6
98164.6
98163.5
98162
98160.3
98158.3
98155.9
98153.2
98150.1
98146.5
98142.6
98138.1
98133.1
98127.7
98121.8
98115.6
98109.1
98102.4
98095.6
98088.8
98082.2
98075.9
98070.1
98065.1
98060.9
98058
98056.2
98055.8
98057.1
98059.9
98064.6
98070.9
98079.2
98089.2
98101
98114.4
98129.9
98146.9
98165.4
98185
98206
98228
98250.9
98274.6
98298.5
98322.2
98345.7
98368.3
98389.8
98409.9
98428.4
98444.3
98457.4
98467.6
98475.1
98479.2
98480.4
98477.8
98472
98461.8
98448.6
98431
98411.5
98388.2
98363.6
98335.2
98307.7
98276.3
98246.4
98103.7
98103.9
98103.8
98103.5
98103.1
98102.6
98101.8
98100.9
98099.8
98098.6
98097.2
98095.6
98094
98092.2
98090.4
98088.4
98086.4
98084.3
98082.2
98080.1
98077.9
98075.7
98073.5
98071.2
98069
98066.6
98064.3
98061.9
98059.5
98057.1
98054.6
98052.1
98049.6
98047.1
98044.5
98041.9
98039.3
98036.7
98034
98031.3
98028.6
98025.8
98023.1
98020.4
98017.7
98015.1
98012.5
98010
98007.6
98005.3
98003.1
98001.1
97999.2
97997.5
97996
97994.7
97993.7
97993
97992.5
97992.3
97992.5
97992.9
97993.7
97994.9
97996.3
97998.1
98000.3
98002.8
98005.7
98008.8
98012.3
98016.1
98020.2
98024.5
98029
98033.7
98038.6
98043.6
98048.6
98053.7
98058.8
98063.9
98068.9
98073.8
98078.6
98083.2
98087.7
98092
98096
98099.8
98103.3
98106.5
98109.5
98112.1
98114.4
98116.5
98118.2
98119.6
98120.8
98121.6
98122.2
98122.6
98122.7
98122.6
98122.3
98121.8
98121.1
98120.3
98119.3
98118.1
98116.7
98115.2
98113.5
98111.6
98109.4
98107
98104.2
98101.1
98097.6
98093.7
98089.4
98084.6
98079.3
98073.4
98067.1
98060.3
98053.1
98045.5
98037.6
98029.5
98021.2
98013.1
98005.1
97997.5
97990.6
97984.2
97978.9
97974.7
97971.7
97970.2
97970.3
97971.9
97975.3
97980.5
97987.4
97996
98006.3
98018.4
98032
98047.2
98063.4
98080.9
98099.3
98118.5
98138.5
98158.6
98178.6
98198.5
98217.2
98234.8
98251.3
98266.3
98279.1
98289.4
98296.9
98302.2
98304.6
98304.9
98302.3
98297.4
98289
98278.5
98264.3
98248.9
98230.3
98211.1
98188.4
98167.2
98142.2
98119.4
98092.3
98092.5
98092.5
98092.3
98092.1
98091.7
98091.1
98090.5
98089.7
98088.7
98087.6
98086.4
98085.1
98083.8
98082.3
98080.8
98079.2
98077.5
98075.8
98074.1
98072.3
98070.4
98068.6
98066.6
98064.6
98062.6
98060.5
98058.3
98056.2
98053.9
98051.6
98049.3
98046.9
98044.5
98042.1
98039.6
98037
98034.5
98031.8
98029.1
98026.4
98023.7
98021
98018.3
98015.5
98012.9
98010.2
98007.7
98005.2
98002.8
98000.5
97998.3
97996.3
97994.4
97992.8
97991.3
97990.1
97989.2
97988.5
97988.1
97987.9
97988.1
97988.6
97989.4
97990.4
97991.9
97993.6
97995.6
97997.9
98000.6
98003.5
98006.6
98010.1
98013.7
98017.5
98021.5
98025.6
98029.7
98033.9
98038.2
98042.4
98046.5
98050.6
98054.6
98058.4
98062
98065.4
98068.6
98071.6
98074.3
98076.7
98078.9
98080.8
98082.3
98083.6
98084.6
98085.3
98085.6
98085.7
98085.6
98085.2
98084.6
98083.8
98082.8
98081.6
98080.2
98078.7
98077.1
98075.2
98073.2
98071.1
98068.8
98066.3
98063.6
98060.6
98057.4
98053.8
98049.9
98045.6
98040.9
98035.8
98030.2
98024
98017.3
98010.2
98002.4
97994.3
97985.6
97976.7
97967.5
97958
97948.5
97939.1
97930
97921.2
97913
97905.7
97899.3
97894.1
97890.3
97887.9
97887
97887.8
97890.4
97894.5
97900.4
97907.9
97917.1
97927.7
97939.8
97952.9
97967.2
97982.2
97998.1
98014.7
98031.3
98047.7
98063.9
98078.8
98092.6
98105.4
98116.7
98126.2
98133.4
98138.1
98141
98141.2
98139.9
98136.6
98131.9
98124.7
98116.1
98104.7
98092.7
98078
98063.6
98046
98030.6
98011.4
97995.4
98083.8
98084.1
98084.2
98084.1
98084
98083.8
98083.5
98083.1
98082.5
98081.9
98081.2
98080.3
98079.4
98078.4
98077.4
98076.3
98075.1
98073.9
98072.6
98071.3
98069.8
98068.4
98066.8
98065.2
98063.5
98061.7
98059.8
98057.8
98055.8
98053.7
98051.5
98049.3
98047
98044.6
98042.2
98039.7
98037.1
98034.5
98031.8
98029.1
98026.3
98023.5
98020.7
98017.9
98015.1
98012.3
98009.5
98006.8
98004.2
98001.7
97999.2
97996.9
97994.7
97992.7
97990.9
97989.3
97987.9
97986.8
97985.9
97985.3
97984.9
97984.8
97985
97985.5
97986.3
97987.4
97988.7
97990.4
97992.3
97994.4
97996.9
97999.5
98002.4
98005.5
98008.7
98012
98015.4
98018.8
98022.3
98025.8
98029.2
98032.6
98035.8
98038.9
98041.8
98044.5
98047
98049.3
98051.2
98052.9
98054.4
98055.5
98056.4
98056.9
98057.2
98057.2
98056.8
98056.2
98055.3
98054.2
98052.8
98051.3
98049.6
98047.6
98045.6
98043.3
98041
98038.4
98035.7
98032.9
98029.9
98026.7
98023.4
98019.8
98016
98011.9
98007.5
98002.8
97997.7
97992.2
97986.3
97979.8
97972.9
97965.4
97957.4
97948.9
97939.9
97930.4
97920.5
97910.4
97899.9
97889.3
97878.6
97868.1
97857.9
97848.1
97839.1
97831
97823.9
97818.1
97813.7
97810.7
97809.3
97809.6
97811.4
97814.9
97819.8
97826.4
97834.4
97843.6
97854
97865.5
97877.6
97890.5
97903.7
97917
97930
97942.5
97953.8
97963.9
97972.8
97980.4
97986.4
97990.3
97992.1
97992.5
97990.3
97987
97982.5
97977.2
97970.5
97963.2
97953.9
97944.6
97933.2
97922.9
97909.8
97899.5
97885.5
97875.7
98077.8
98078.1
98078.3
98078.4
98078.4
98078.3
98078.2
98078.1
98077.8
98077.6
98077.2
98076.9
98076.4
98075.9
98075.3
98074.7
98074
98073.2
98072.3
98071.4
98070.4
98069.2
98068
98066.6
98065.2
98063.6
98061.9
98060.1
98058.2
98056.1
98054
98051.8
98049.5
98047.1
98044.6
98042
98039.4
98036.6
98033.8
98031
98028.1
98025.1
98022.2
98019.2
98016.2
98013.3
98010.4
98007.5
98004.7
98002
97999.4
97996.9
97994.6
97992.5
97990.5
97988.7
97987.2
97985.9
97984.8
97984
97983.5
97983.2
97983.2
97983.4
97983.9
97984.7
97985.8
97987.1
97988.7
97990.5
97992.6
97994.8
97997.2
97999.8
98002.5
98005.3
98008.1
98011
98013.8
98016.6
98019.4
98022
98024.5
98026.8
98028.9
98030.8
98032.4
98033.8
98034.9
98035.7
98036.2
98036.4
98036.4
98036
98035.3
98034.3
98033.1
98031.5
98029.6
98027.6
98025.3
98022.8
98020.1
98017.3
98014.4
98011.2
98008
98004.6
98001
97997.3
97993.4
97989.4
97985.1
97980.7
97976
97971.1
97965.8
97960.3
97954.3
97948
97941.3
97934
97926.3
97918.1
97909.4
97900.2
97890.5
97880.3
97869.6
97858.7
97847.4
97835.9
97824.2
97812.6
97801.1
97790.1
97779.8
97770.2
97761.6
97754.2
97748.1
97743.4
97740.1
97738.5
97738.3
97739.7
97742.4
97746.8
97752.4
97759.1
97767.1
97776.1
97785.6
97795.5
97805.6
97815.7
97825.4
97834.4
97842.1
97848.7
97853.8
97857.7
97860
97860.5
97859.2
97856.9
97852.3
97846.8
97840.7
97834.5
97827.6
97821.1
97813.1
97805.9
97797.1
97790.3
97780.9
97775.1
97765.7
97761.5
98073.5
98073.8
98074
98074.2
98074.3
98074.5
98074.7
98074.9
98075.1
98075.3
98075.5
98075.6
98075.7
98075.8
98075.8
98075.6
98075.4
98075.1
98074.6
98074.1
98073.4
98072.6
98071.6
98070.5
98069.3
98067.8
98066.3
98064.6
98062.7
98060.7
98058.6
98056.3
98054
98051.5
98048.9
98046.2
98043.4
98040.6
98037.6
98034.6
98031.5
98028.4
98025.2
98022.1
98018.9
98015.7
98012.6
98009.6
98006.6
98003.7
98001
97998.4
97995.9
97993.6
97991.5
97989.6
97987.9
97986.5
97985.3
97984.3
97983.6
97983.2
97983
97983
97983.4
97984
97984.8
97985.9
97987.2
97988.8
97990.5
97992.4
97994.5
97996.7
97998.9
98001.3
98003.6
98006
98008.3
98010.6
98012.7
98014.7
98016.5
98018.1
98019.5
98020.7
98021.6
98022.2
98022.5
98022.5
98022.2
98021.5
98020.6
98019.4
98017.8
98015.9
98013.8
98011.3
98008.6
98005.6
98002.4
97999
97995.5
97991.8
97988
97984
97979.8
97975.5
97971
97966.4
97961.7
97956.8
97951.6
97946.3
97940.7
97934.9
97928.8
97922.4
97915.7
97908.6
97901.1
97893.1
97884.6
97875.8
97866.5
97856.7
97846.3
97835.5
97824.3
97812.7
97800.8
97788.5
97776.1
97763.7
97751.3
97739.3
97727.9
97717.3
97707.4
97698.7
97691.2
97685.1
97680.3
97677
97675.1
97674.6
97675.7
97678.1
97681.5
97686.2
97691.9
97698.7
97705.8
97712.9
97720.1
97726.9
97733.6
97739.3
97743.6
97746.7
97748
97748.2
97746.7
97743.8
97739.4
97734.2
97727.2
97719.5
97711.5
97704.1
97696.7
97690.3
97683
97677.4
97670.6
97666.5
97660.2
97658.5
97653.1
97653.8
98069.7
98069.9
98070.1
98070.3
98070.5
98071.1
98071.7
98072.5
98073.3
98074.2
98075.1
98075.9
98076.7
98077.4
98078
98078.4
98078.7
98078.8
98078.8
98078.6
98078.2
98077.7
98077
98076.1
98075
98073.7
98072.2
98070.6
98068.8
98066.8
98064.6
98062.3
98059.9
98057.3
98054.6
98051.7
98048.8
98045.8
98042.6
98039.4
98036.1
98032.8
98029.5
98026.1
98022.7
98019.4
98016.1
98012.9
98009.7
98006.7
98003.8
98001
97998.4
97996
97993.7
97991.7
97989.9
97988.4
97987.1
97986
97985.2
97984.6
97984.3
97984.3
97984.5
97984.9
97985.6
97986.6
97987.7
97989
97990.5
97992.2
97994
97995.8
97997.7
97999.7
98001.7
98003.6
98005.4
98007.2
98008.8
98010.3
98011.5
98012.5
98013.3
98013.8
98014
98014
98013.5
98012.8
98011.7
98010.3
98008.6
98006.6
98004.2
98001.5
97998.6
97995.3
97991.7
97987.9
97983.9
97979.7
97975.2
97970.7
97966
97961.2
97956.1
97951
97945.7
97940.2
97934.6
97928.8
97922.7
97916.5
97910.1
97903.4
97896.5
97889.3
97881.8
97874
97865.7
97857.1
97848.1
97838.6
97828.8
97818.4
97807.6
97796.3
97784.7
97772.6
97760.1
97747.3
97734.3
97721.2
97708.3
97695.7
97683.5
97672
97661.1
97651.3
97642.7
97635.3
97629.1
97624.4
97621.1
97619.2
97618.7
97619.4
97621.1
97623.8
97627.6
97632.2
97637.1
97641.7
97646
97649.9
97653.5
97656.1
97657.3
97657
97654.7
97651.1
97646
97639.7
97632
97623.8
97614.4
97604.5
97594.7
97585.9
97577.6
97570.9
97564
97559.5
97554.2
97552.2
97548.4
97550.2
97548.4
97553.4
98064.8
98064.8
98064.9
98065.2
98065.9
98067.2
98068.6
98070.4
98072.2
98074
98075.8
98077.4
98079
98080.4
98081.6
98082.5
98083.3
98083.9
98084.2
98084.3
98084.2
98083.9
98083.4
98082.7
98081.7
98080.5
98079.1
98077.5
98075.7
98073.6
98071.4
98069.1
98066.5
98063.8
98061
98058
98054.9
98051.7
98048.4
98045
98041.6
98038.1
98034.5
98031
98027.4
98023.9
98020.5
98017.1
98013.8
98010.6
98007.6
98004.7
98002
97999.4
97997.1
97995
97993.1
97991.5
97990.1
97989
97988.1
97987.5
97987.1
97986.9
97987.1
97987.4
97988
97988.8
97989.8
97991
97992.3
97993.7
97995.3
97996.9
97998.5
98000.1
98001.8
98003.3
98004.7
98006.1
98007.2
98008.2
98008.9
98009.4
98009.6
98009.5
98009.1
98008.4
98007.4
98006
98004.2
98002.1
97999.7
97996.9
97993.7
97990.3
97986.6
97982.6
97978.3
97973.7
97968.9
97963.9
97958.7
97953.3
97947.8
97942.1
97936.3
97930.3
97924.2
97917.9
97911.5
97904.8
97898
97890.9
97883.7
97876.2
97868.6
97860.6
97852.4
97843.9
97835
97825.8
97816.3
97806.3
97796
97785.2
97774
97762.4
97750.4
97738
97725.1
97711.9
97698.5
97685
97671.6