/*--------------------------------*- C++ -*----------------------------------*\
| =========                 |                                                 |
| \\      /  F ield         | OpenFOAM: The Open Source CFD Toolbox           |
|  \\    /   O peration     | Version:  dev                                   |
|   \\  /    A nd           | Web:      http://www.openfoam.org               |
|    \\/     M anipulation  |                                                 |
\*---------------------------------------------------------------------------*/
FoamFile
{
    version     2.0;
    format      ascii;
    class       volScalarField;
    object      pPrime2Mean;
    location    "9.16";
}
// * * * * * * * * * * * * * * * * * * * * * * * * * * * * * * * * * * * * * //

dimensions      [2 -2 -4 0 0 0 0];

internalField   nonuniform List<scalar> 
12225
(
5.03332e+07
4.98681e+07
4.89074e+07
4.75563e+07
4.59027e+07
4.4036e+07
4.20153e+07
3.99128e+07
3.77692e+07
3.56325e+07
3.35405e+07
3.14963e+07
2.95736e+07
2.77033e+07
2.59568e+07
2.43971e+07
2.28363e+07
2.12575e+07
5.02255e+07
4.97604e+07
4.88005e+07
4.74511e+07
4.57989e+07
4.39346e+07
4.19168e+07
3.98168e+07
3.76771e+07
3.55431e+07
3.34559e+07
3.14153e+07
2.94972e+07
2.76337e+07
2.59047e+07
2.43451e+07
2.28372e+07
2.15042e+07
4.99757e+07
4.95112e+07
4.85518e+07
4.72054e+07
4.55577e+07
4.36981e+07
4.16871e+07
3.95933e+07
3.74618e+07
3.53359e+07
3.32571e+07
3.12282e+07
2.93161e+07
2.74699e+07
2.57606e+07
2.42059e+07
2.27719e+07
2.156e+07
4.95405e+07
4.90789e+07
4.81218e+07
4.67806e+07
4.5141e+07
4.32899e+07
4.12904e+07
3.92072e+07
3.70904e+07
3.4978e+07
3.2915e+07
3.09039e+07
2.90091e+07
2.71822e+07
2.55025e+07
2.39724e+07
2.2587e+07
2.14873e+07
4.88762e+07
4.84149e+07
4.74625e+07
4.61308e+07
4.45029e+07
4.26663e+07
4.06827e+07
3.86188e+07
3.6521e+07
3.44327e+07
3.239e+07
3.04096e+07
2.85373e+07
2.67465e+07
2.5119e+07
2.36112e+07
2.23309e+07
2.12676e+07
4.79281e+07
4.74642e+07
4.65213e+07
4.52031e+07
4.35931e+07
4.17763e+07
3.98173e+07
3.7779e+07
3.57113e+07
3.36527e+07
3.16442e+07
2.96979e+07
2.78638e+07
2.61195e+07
2.45414e+07
2.31031e+07
2.18771e+07
2.08216e+07
4.66347e+07
4.61695e+07
4.52421e+07
4.39401e+07
4.23563e+07
4.05651e+07
3.86417e+07
3.66368e+07
3.4612e+07
3.25922e+07
3.0632e+07
2.87314e+07
2.69486e+07
2.5262e+07
2.37409e+07
2.23626e+07
2.11949e+07
2.01678e+07
4.51943e+07
4.47307e+07
4.38197e+07
4.25355e+07
4.09804e+07
3.92188e+07
3.73339e+07
3.5368e+07
3.33884e+07
3.14148e+07
2.95044e+07
2.76574e+07
2.59261e+07
2.43026e+07
2.28299e+07
2.15147e+07
2.03796e+07
1.94206e+07
4.36812e+07
4.32211e+07
4.23263e+07
4.10619e+07
3.95363e+07
3.78072e+07
3.59617e+07
3.40381e+07
3.21047e+07
3.01806e+07
2.83211e+07
2.65297e+07
2.48521e+07
2.32893e+07
2.18686e+07
2.06095e+07
1.95163e+07
1.86183e+07
4.17433e+07
4.12899e+07
4.04146e+07
3.91778e+07
3.76886e+07
3.60034e+07
3.42067e+07
3.23392e+07
3.0463e+07
2.86038e+07
2.68071e+07
2.50871e+07
2.34756e+07
2.19874e+07
2.0633e+07
1.94414e+07
1.84049e+07
1.75529e+07
3.92975e+07
3.88541e+07
3.80023e+07
3.68022e+07
3.53589e+07
3.37308e+07
3.19961e+07
3.01995e+07
2.83965e+07
2.66174e+07
2.4901e+07
2.32669e+07
2.17391e+07
2.0337e+07
1.90655e+07
1.79506e+07
1.6981e+07
1.6175e+07
3.62776e+07
3.58491e+07
3.50254e+07
3.38743e+07
3.24881e+07
3.09333e+07
2.92759e+07
2.75684e+07
2.58557e+07
2.41755e+07
2.25572e+07
2.10261e+07
1.95991e+07
1.82961e+07
1.71212e+07
1.60905e+07
1.51964e+07
1.44435e+07
3.26688e+07
3.22589e+07
3.14716e+07
3.03815e+07
2.90676e+07
2.76017e+07
2.604e+07
2.4439e+07
2.28364e+07
2.12727e+07
1.9771e+07
1.83589e+07
1.70482e+07
1.58574e+07
1.47888e+07
1.38517e+07
1.30408e+07
1.23529e+07
2.85619e+07
2.81748e+07
2.74342e+07
2.64164e+07
2.51908e+07
2.38283e+07
2.23806e+07
2.09016e+07
1.94271e+07
1.79941e+07
1.66252e+07
1.53437e+07
1.41613e+07
1.30911e+07
1.2136e+07
1.12991e+07
1.05768e+07
9.96292e+06
2.42422e+07
2.38815e+07
2.3197e+07
2.226e+07
2.11344e+07
1.98861e+07
1.85638e+07
1.72171e+07
1.58802e+07
1.45859e+07
1.33559e+07
1.22093e+07
1.11574e+07
1.02087e+07
9.36593e+06
8.62903e+06
7.9948e+06
7.45657e+06
2.02995e+07
1.99675e+07
1.93425e+07
1.84872e+07
1.74631e+07
1.63278e+07
1.51292e+07
1.39106e+07
1.27054e+07
1.15418e+07
1.04405e+07
9.41719e+06
8.48178e+06
7.64035e+06
6.89479e+06
6.24384e+06
5.68431e+06
5.20998e+06
1.77365e+07
1.74301e+07
1.68553e+07
1.60679e+07
1.51261e+07
1.40818e+07
1.29806e+07
1.18614e+07
1.07558e+07
9.6891e+06
8.68019e+06
7.74264e+06
6.88517e+06
6.11256e+06
5.42618e+06
4.82464e+06
4.30496e+06
3.86178e+06
1.78444e+07
1.75498e+07
1.69973e+07
1.62395e+07
1.53325e+07
1.43253e+07
1.32616e+07
1.21784e+07
1.11057e+07
1.00673e+07
9.08095e+06
8.15925e+06
7.31036e+06
6.53876e+06
5.84586e+06
5.23082e+06
4.69114e+06
4.22246e+06
2.07183e+07
2.04193e+07
1.9857e+07
1.90843e+07
1.81579e+07
1.71269e+07
1.60348e+07
1.49183e+07
1.38072e+07
1.2725e+07
1.16893e+07
1.07128e+07
9.8036e+06
8.96665e+06
8.20382e+06
7.51502e+06
6.89841e+06
6.35061e+06
2.52008e+07
2.48889e+07
2.42987e+07
2.3485e+07
2.25072e+07
2.14161e+07
2.02564e+07
1.90655e+07
1.78742e+07
1.67063e+07
1.55801e+07
1.45087e+07
1.35009e+07
1.25621e+07
1.16949e+07
1.09e+07
1.01764e+07
9.52143e+06
3.02551e+07
2.99291e+07
2.93058e+07
2.84427e+07
2.74026e+07
2.62385e+07
2.49968e+07
2.37167e+07
2.24299e+07
2.11614e+07
1.99302e+07
1.87501e+07
1.76307e+07
1.65783e+07
1.5596e+07
1.46855e+07
1.38462e+07
1.30765e+07
3.51639e+07
3.48263e+07
3.4172e+07
3.32619e+07
3.21618e+07
3.09266e+07
2.96049e+07
2.82373e+07
2.6857e+07
2.54901e+07
2.41565e+07
2.2871e+07
2.16439e+07
2.0482e+07
1.93896e+07
1.83686e+07
1.74194e+07
1.65409e+07
3.95087e+07
3.91628e+07
3.84831e+07
3.75334e+07
3.63817e+07
3.50848e+07
3.36931e+07
3.22487e+07
3.07861e+07
2.93325e+07
2.79086e+07
2.65301e+07
2.52081e+07
2.395e+07
2.27609e+07
2.16432e+07
2.05978e+07
1.96242e+07
4.31007e+07
4.27496e+07
4.20507e+07
4.107e+07
3.98773e+07
3.85307e+07
3.70821e+07
3.55749e+07
3.40448e+07
3.25197e+07
3.10216e+07
2.95665e+07
2.81663e+07
2.68292e+07
2.55605e+07
2.43632e+07
2.32387e+07
2.2187e+07
4.59061e+07
4.55521e+07
4.48394e+07
4.38359e+07
4.26121e+07
4.12275e+07
3.9735e+07
3.81793e+07
3.65968e+07
3.50163e+07
3.34603e+07
3.19457e+07
3.04847e+07
2.9086e+07
2.77554e+07
2.64963e+07
2.53103e+07
2.41977e+07
4.79821e+07
4.76265e+07
4.69042e+07
4.58845e+07
4.46384e+07
4.32262e+07
4.17016e+07
4.01102e+07
3.84891e+07
3.68679e+07
3.52693e+07
3.37108e+07
3.22051e+07
3.07611e+07
2.93849e+07
2.80802e+07
2.6849e+07
2.56915e+07
4.94294e+07
4.90729e+07
4.8344e+07
4.73135e+07
4.60521e+07
4.4621e+07
4.30745e+07
4.14586e+07
3.98109e+07
3.81614e+07
3.65334e+07
3.49445e+07
3.34077e+07
3.19323e+07
3.05245e+07
2.91883e+07
2.79257e+07
2.67371e+07
5.03634e+07
5.00059e+07
4.92727e+07
4.82356e+07
4.69645e+07
4.55213e+07
4.39609e+07
4.23294e+07
4.06648e+07
3.89973e+07
3.73504e+07
3.5742e+07
3.41852e+07
3.26896e+07
3.12615e+07
2.99049e+07
2.86222e+07
2.74137e+07
5.08918e+07
5.0534e+07
4.97994e+07
4.87591e+07
4.74826e+07
4.60329e+07
4.44646e+07
4.28242e+07
4.11498e+07
3.94718e+07
3.78141e+07
3.61944e+07
3.46263e+07
3.3119e+07
3.16792e+07
3.0311e+07
2.90168e+07
2.77974e+07
5.11138e+07
5.07575e+07
5.00208e+07
4.89788e+07
4.76998e+07
4.62473e+07
4.46756e+07
4.30313e+07
4.13527e+07
3.96703e+07
3.80078e+07
3.63834e+07
3.48103e+07
3.3298e+07
3.18532e+07
3.04801e+07
2.91813e+07
2.79574e+07
6.04541e+07
6.03951e+07
6.02645e+07
6.00588e+07
5.97763e+07
5.94161e+07
5.89785e+07
5.8464e+07
5.78738e+07
5.72094e+07
5.64727e+07
5.56657e+07
5.47908e+07
5.38505e+07
5.28476e+07
5.1785e+07
5.0666e+07
4.9494e+07
4.82728e+07
4.70062e+07
4.56982e+07
4.43528e+07
4.29742e+07
4.15669e+07
4.01353e+07
3.86839e+07
3.72173e+07
3.57398e+07
3.42559e+07
3.27702e+07
3.12873e+07
2.98118e+07
2.83482e+07
2.69012e+07
2.54753e+07
2.40751e+07
2.27053e+07
2.13704e+07
2.00754e+07
1.88249e+07
1.76238e+07
1.6477e+07
1.53894e+07
1.43662e+07
1.34124e+07
1.25334e+07
1.17345e+07
1.10209e+07
1.03982e+07
9.87184e+06
9.4472e+06
9.12975e+06
8.9249e+06
8.83792e+06
8.87392e+06
9.0377e+06
9.33384e+06
9.76659e+06
1.03398e+07
1.10567e+07
1.19201e+07
1.29322e+07
1.40942e+07
1.54071e+07
1.68707e+07
1.84843e+07
2.02461e+07
2.21537e+07
2.4204e+07
2.63932e+07
2.87166e+07
3.1169e+07
3.37444e+07
3.64365e+07
3.92384e+07
4.21427e+07
4.51421e+07
4.82288e+07
5.13949e+07
5.46324e+07
5.79333e+07
6.12893e+07
6.46921e+07
6.81331e+07
7.16038e+07
7.50952e+07
7.85981e+07
8.21032e+07
8.56004e+07
8.90793e+07
9.25289e+07
9.59379e+07
9.92941e+07
1.02585e+08
1.05798e+08
1.08921e+08
1.11941e+08
1.14845e+08
1.17624e+08
1.20265e+08
1.22759e+08
1.25099e+08
1.27278e+08
1.29288e+08
1.31128e+08
1.32795e+08
1.34289e+08
1.35613e+08
1.36771e+08
1.37772e+08
1.38625e+08
1.39342e+08
1.39937e+08
1.40423e+08
1.40817e+08
1.41137e+08
1.41402e+08
1.41634e+08
1.41856e+08
1.42095e+08
1.42382e+08
1.42748e+08
1.4323e+08
1.43868e+08
1.44707e+08
1.45793e+08
1.47179e+08
1.48923e+08
1.51084e+08
1.53725e+08
1.56909e+08
1.60699e+08
1.65157e+08
1.70338e+08
1.76297e+08
1.83078e+08
1.90718e+08
1.99244e+08
2.0867e+08
2.19e+08
2.30226e+08
2.42328e+08
2.55277e+08
2.6903e+08
2.83547e+08
2.98763e+08
3.14631e+08
3.31078e+08
3.48042e+08
3.65447e+08
3.8322e+08
4.01278e+08
4.19528e+08
4.37879e+08
4.56209e+08
4.74376e+08
4.92218e+08
5.09566e+08
5.26186e+08
5.41845e+08
5.56242e+08
5.69078e+08
5.80012e+08
5.88723e+08
5.94875e+08
5.98172e+08
5.98353e+08
5.95236e+08
5.88697e+08
5.7876e+08
5.65507e+08
5.49202e+08
5.30165e+08
5.08888e+08
4.85846e+08
4.61564e+08
4.36409e+08
4.10816e+08
3.84995e+08
3.59271e+08
5.93802e+07
5.93246e+07
5.91995e+07
5.89998e+07
5.87237e+07
5.83711e+07
5.79428e+07
5.74396e+07
5.6863e+07
5.62142e+07
5.54951e+07
5.47075e+07
5.38537e+07
5.29361e+07
5.19572e+07
5.09197e+07
4.98268e+07
4.86818e+07
4.74882e+07
4.62497e+07
4.49701e+07
4.36535e+07
4.2304e+07
4.09259e+07
3.95235e+07
3.81012e+07
3.66634e+07
3.52143e+07
3.37583e+07
3.23e+07
3.08436e+07
2.93939e+07
2.79553e+07
2.65323e+07
2.51294e+07
2.37513e+07
2.24022e+07
2.10871e+07
1.98104e+07
1.8577e+07
1.73916e+07
1.62592e+07
1.51847e+07
1.4173e+07
1.32295e+07
1.23593e+07
1.15677e+07
1.086e+07
1.02417e+07
9.71826e+06
9.29516e+06
8.9778e+06
8.77157e+06
8.6817e+06
8.71333e+06
8.87133e+06
9.16027e+06
9.58438e+06
1.01474e+07
1.08528e+07
1.17031e+07
1.27006e+07
1.38466e+07
1.51418e+07
1.65862e+07
1.8179e+07
1.99186e+07
2.18024e+07
2.38273e+07
2.59896e+07
2.82846e+07
3.0707e+07
3.3251e+07
3.59101e+07
3.86776e+07
4.15462e+07
4.45086e+07
4.7557e+07
5.06836e+07
5.38804e+07
5.71393e+07
6.04522e+07
6.38109e+07
6.72069e+07
7.06317e+07
7.40763e+07
7.75316e+07
8.09883e+07
8.44366e+07
8.7866e+07
9.12657e+07
9.46245e+07
9.79305e+07
1.01171e+08
1.04335e+08
1.07408e+08
1.10379e+08
1.13237e+08
1.15969e+08
1.18565e+08
1.21017e+08
1.23316e+08
1.25456e+08
1.27431e+08
1.29239e+08
1.30876e+08
1.32342e+08
1.33641e+08
1.34778e+08
1.3576e+08
1.36597e+08
1.37301e+08
1.37884e+08
1.3836e+08
1.38746e+08
1.39058e+08
1.39316e+08
1.39541e+08
1.39755e+08
1.39985e+08
1.4026e+08
1.40612e+08
1.41077e+08
1.41694e+08
1.42506e+08
1.4356e+08
1.44907e+08
1.46604e+08
1.4871e+08
1.51286e+08
1.54397e+08
1.58102e+08
1.62463e+08
1.67535e+08
1.73371e+08
1.80016e+08
1.87506e+08
1.95868e+08
2.05116e+08
2.15254e+08
2.26275e+08
2.38159e+08
2.50878e+08
2.64393e+08
2.7866e+08
2.93617e+08
3.09215e+08
3.25392e+08
3.4208e+08
3.59205e+08
3.76696e+08
3.94473e+08
4.12447e+08
4.30526e+08
4.48589e+08
4.665e+08
4.84098e+08
5.01218e+08
5.17635e+08
5.33111e+08
5.47364e+08
5.60094e+08
5.70965e+08
5.7966e+08
5.85852e+08
5.8925e+08
5.89598e+08
5.86718e+08
5.8048e+08
5.70894e+08
5.58036e+08
5.42158e+08
5.23568e+08
5.02747e+08
4.80154e+08
4.56303e+08
4.31559e+08
4.06348e+08
3.80879e+08
3.55394e+08
5.73169e+07
5.72639e+07
5.71444e+07
5.6953e+07
5.66885e+07
5.63514e+07
5.59426e+07
5.54633e+07
5.49143e+07
5.4297e+07
5.36127e+07
5.28631e+07
5.20502e+07
5.11761e+07
5.02429e+07
4.92533e+07
4.821e+07
4.71162e+07
4.5975e+07
4.479e+07
4.35649e+07
4.23035e+07
4.10097e+07
3.96876e+07
3.83413e+07
3.69746e+07
3.55917e+07
3.41967e+07
3.27939e+07
3.13876e+07
2.99823e+07
2.85822e+07
2.71916e+07
2.58151e+07
2.44568e+07
2.31211e+07
2.18125e+07
2.05353e+07
1.92943e+07
1.80941e+07
1.69394e+07
1.5835e+07
1.47858e+07
1.37968e+07
1.28731e+07
1.202e+07
1.12427e+07
1.05466e+07
9.93704e+06
9.4195e+06
8.99942e+06
8.68223e+06
8.47334e+06
8.37799e+06
8.40126e+06
8.54806e+06
8.82294e+06
9.23013e+06
9.77343e+06
1.04561e+07
1.12808e+07
1.22497e+07
1.33642e+07
1.46249e+07
1.60317e+07
1.75838e+07
1.92795e+07
2.11164e+07
2.30915e+07
2.52008e+07
2.74399e+07
2.98034e+07
3.22856e+07
3.48801e+07
3.75802e+07
4.03789e+07
4.32688e+07
4.62423e+07
4.92918e+07
5.24093e+07
5.55868e+07
5.88163e+07
6.20895e+07
6.53982e+07
6.87338e+07
7.20877e+07
7.5451e+07
7.88142e+07
8.21677e+07
8.55014e+07
8.88046e+07
9.20661e+07
9.52746e+07
9.84181e+07
1.01485e+08
1.04461e+08
1.07338e+08
1.10102e+08
1.12743e+08
1.15252e+08
1.1762e+08
1.19839e+08
1.21904e+08
1.23809e+08
1.25552e+08
1.27129e+08
1.28542e+08
1.29794e+08
1.30888e+08
1.31834e+08
1.32641e+08
1.33318e+08
1.33879e+08
1.34337e+08
1.34706e+08
1.35004e+08
1.35247e+08
1.35457e+08
1.35656e+08
1.35867e+08
1.3612e+08
1.36443e+08
1.36873e+08
1.37446e+08
1.38203e+08
1.39192e+08
1.40461e+08
1.42064e+08
1.44059e+08
1.46507e+08
1.49468e+08
1.53004e+08
1.57173e+08
1.62028e+08
1.67621e+08
1.73996e+08
1.81188e+08
1.89226e+08
1.98121e+08
2.0788e+08
2.18494e+08
2.29946e+08
2.42211e+08
2.55253e+08
2.69024e+08
2.8347e+08
2.98536e+08
3.14172e+08
3.3031e+08
3.46878e+08
3.63806e+08
3.81022e+08
3.98439e+08
4.15967e+08
4.33489e+08
4.50878e+08
4.67974e+08
4.84618e+08
5.00596e+08
5.15676e+08
5.29596e+08
5.4206e+08
5.52748e+08
5.61359e+08
5.67573e+08
5.71118e+08
5.71744e+08
5.69278e+08
5.63585e+08
5.54654e+08
5.42558e+08
5.27518e+08
5.0982e+08
4.8992e+08
4.68246e+08
4.45276e+08
4.21382e+08
3.96966e+08
3.7225e+08
3.47408e+08
5.4426e+07
5.43767e+07
5.42647e+07
5.40855e+07
5.38388e+07
5.35254e+07
5.31462e+07
5.27016e+07
5.21924e+07
5.16195e+07
5.09841e+07
5.02875e+07
4.9531e+07
4.87165e+07
4.7846e+07
4.69219e+07
4.59467e+07
4.49232e+07
4.38544e+07
4.27435e+07
4.15939e+07
4.04093e+07
3.91931e+07
3.79489e+07
3.66802e+07
3.53907e+07
3.40842e+07
3.27646e+07
3.14362e+07
3.01028e+07
2.87688e+07
2.74382e+07
2.6115e+07
2.48033e+07
2.35072e+07
2.22309e+07
2.09785e+07
1.97547e+07
1.85636e+07
1.74099e+07
1.62982e+07
1.52332e+07
1.42196e+07
1.32624e+07
1.23669e+07
1.15379e+07
1.07808e+07
1.0101e+07
9.50375e+06
8.99456e+06
8.57882e+06
8.26196e+06
8.04936e+06
7.94624e+06
7.95766e+06
8.08853e+06
8.34342e+06
8.72653e+06
9.24161e+06
9.89189e+06
1.06801e+07
1.16082e+07
1.26776e+07
1.3889e+07
1.52422e+07
1.67363e+07
1.83697e+07
2.014e+07
2.20442e+07
2.40784e+07
2.62382e+07
2.85184e+07
3.09134e+07
3.34168e+07
3.60221e+07
3.87225e+07
4.15106e+07
4.43793e+07
4.73208e+07
5.03274e+07
5.33912e+07
5.65044e+07
5.96587e+07
6.28461e+07
6.6058e+07
6.9286e+07
7.25214e+07
7.5755e+07
7.89771e+07
8.2178e+07
8.53471e+07
8.84737e+07
9.15466e+07
9.45542e+07
9.74852e+07
1.00328e+08
1.03071e+08
1.05705e+08
1.08219e+08
1.10605e+08
1.12854e+08
1.1496e+08
1.16918e+08
1.18724e+08
1.20373e+08
1.21866e+08
1.23202e+08
1.24386e+08
1.25421e+08
1.26315e+08
1.27076e+08
1.27715e+08
1.28243e+08
1.28673e+08
1.29018e+08
1.29293e+08
1.29514e+08
1.29702e+08
1.29876e+08
1.3006e+08
1.30279e+08
1.30561e+08
1.30939e+08
1.31448e+08
1.32127e+08
1.33022e+08
1.3418e+08
1.35651e+08
1.3749e+08
1.39756e+08
1.42508e+08
1.45804e+08
1.49701e+08
1.54252e+08
1.59504e+08
1.65501e+08
1.72275e+08
1.79857e+08
1.88259e+08
1.97488e+08
2.07534e+08
2.18385e+08
2.30017e+08
2.424e+08
2.55483e+08
2.69218e+08
2.8355e+08
2.98437e+08
3.13815e+08
3.29616e+08
3.45769e+08
3.62212e+08
3.78862e+08
3.95628e+08
4.124e+08
4.29061e+08
4.45457e+08
4.61433e+08
4.76791e+08
4.91307e+08
5.04737e+08
5.16799e+08
5.27198e+08
5.35649e+08
5.41849e+08
5.45542e+08
5.46489e+08
5.44522e+08
5.39508e+08
5.31421e+08
5.2032e+08
5.06394e+08
4.89903e+08
4.71262e+08
4.50854e+08
4.29122e+08
4.06426e+08
3.83141e+08
3.59506e+08
3.35671e+08
5.09075e+07
5.08635e+07
5.07617e+07
5.05988e+07
5.03753e+07
5.00916e+07
4.97481e+07
4.9345e+07
4.88831e+07
4.8363e+07
4.77853e+07
4.71509e+07
4.64612e+07
4.57177e+07
4.49221e+07
4.40765e+07
4.3183e+07
4.22442e+07
4.12626e+07
4.02412e+07
3.9183e+07
3.8091e+07
3.69683e+07
3.58178e+07
3.46428e+07
3.34467e+07
3.22329e+07
3.10053e+07
2.97675e+07
2.85234e+07
2.72766e+07
2.60308e+07
2.47898e+07
2.35574e+07
2.23372e+07
2.11335e+07
1.99502e+07
1.87914e+07
1.76615e+07
1.65647e+07
1.55057e+07
1.44888e+07
1.3519e+07
1.26009e+07
1.17397e+07
1.09404e+07
1.02081e+07
9.5482e+06
8.96603e+06
8.467e+06
8.05651e+06
7.73994e+06
7.52267e+06
7.40989e+06
7.40665e+06
7.5178e+06
7.74786e+06
8.10099e+06
8.58091e+06
9.19084e+06
9.93344e+06
1.08107e+07
1.18241e+07
1.2974e+07
1.42604e+07
1.56824e+07
1.72382e+07
1.89257e+07
2.07419e+07
2.26829e+07
2.47443e+07
2.69212e+07
2.9208e+07
3.15986e+07
3.40866e+07
3.66653e+07
3.93277e+07
4.20667e+07
4.48748e+07
4.77445e+07
5.06681e+07
5.36378e+07
5.66457e+07
5.96839e+07
6.2744e+07
6.58175e+07
6.88961e+07
7.19708e+07
7.50321e+07
7.80704e+07
8.10758e+07
8.40377e+07
8.69454e+07
8.97878e+07
9.25539e+07
9.52331e+07
9.7815e+07
1.0029e+08
1.02649e+08
1.04884e+08
1.06987e+08
1.08955e+08
1.10782e+08
1.12464e+08
1.13999e+08
1.15386e+08
1.16628e+08
1.17727e+08
1.18688e+08
1.19515e+08
1.20219e+08
1.20808e+08
1.21294e+08
1.21687e+08
1.21999e+08
1.22244e+08
1.22437e+08
1.22595e+08
1.22737e+08
1.22884e+08
1.2306e+08
1.23289e+08
1.23603e+08
1.24034e+08
1.24619e+08
1.25399e+08
1.26419e+08
1.27729e+08
1.29379e+08
1.31425e+08
1.33921e+08
1.36925e+08
1.40491e+08
1.4467e+08
1.49508e+08
1.55045e+08
1.61315e+08
1.68346e+08
1.76152e+08
1.8474e+08
1.94104e+08
2.04231e+08
2.151e+08
2.26686e+08
2.38944e+08
2.51828e+08
2.65284e+08
2.79275e+08
2.93744e+08
3.08631e+08
3.23862e+08
3.39382e+08
3.55112e+08
3.70966e+08
3.86838e+08
4.02619e+08
4.18168e+08
4.33335e+08
4.47936e+08
4.61763e+08
4.74577e+08
4.86129e+08
4.96149e+08
5.04366e+08
5.10502e+08
5.14315e+08
5.1558e+08
5.14142e+08
5.09875e+08
5.02736e+08
4.92769e+08
4.80126e+08
4.65045e+08
4.47887e+08
4.2899e+08
4.0876e+08
3.87523e+08
3.65631e+08
3.43333e+08
3.20789e+08
4.69841e+07
4.6947e+07
4.68577e+07
4.6714e+07
4.65165e+07
4.62655e+07
4.5961e+07
4.56034e+07
4.5193e+07
4.47299e+07
4.42146e+07
4.36481e+07
4.30313e+07
4.23654e+07
4.16519e+07
4.08925e+07
4.00889e+07
3.92433e+07
3.83579e+07
3.74353e+07
3.64779e+07
3.54882e+07
3.44686e+07
3.34219e+07
3.23508e+07
3.12584e+07
3.0148e+07
2.9023e+07
2.78864e+07
2.67418e+07
2.55922e+07
2.44412e+07
2.32921e+07
2.21483e+07
2.10134e+07
1.98911e+07
1.87852e+07
1.76998e+07
1.66387e+07
1.56061e+07
1.46064e+07
1.3644e+07
1.27234e+07
1.18494e+07
1.10269e+07
1.02609e+07
9.55646e+06
8.91896e+06
8.35368e+06
7.86597e+06
7.46122e+06
7.1448e+06
6.92204e+06
6.79811e+06
6.77802e+06
6.86654e+06
7.06817e+06
7.38702e+06
7.82673e+06
8.39049e+06
9.08089e+06
9.89993e+06
1.08489e+07
1.19285e+07
1.31384e+07
1.44778e+07
1.5945e+07
1.75377e+07
1.9253e+07
2.10873e+07
2.30363e+07
2.50951e+07
2.72583e+07
2.95199e+07
3.18739e+07
3.43137e+07
3.68325e+07
3.94235e+07
4.20794e+07
4.47929e+07
4.75565e+07
5.03627e+07
5.32037e+07
5.60718e+07
5.89589e+07
6.18568e+07
6.4757e+07
6.76511e+07
7.05298e+07
7.33837e+07
7.62033e+07
7.89787e+07
8.16997e+07
8.43556e+07
8.6936e+07
8.94314e+07
9.18321e+07
9.41293e+07
9.63145e+07
9.83805e+07
1.00321e+08
1.02132e+08
1.03811e+08
1.05354e+08
1.0676e+08
1.08028e+08
1.09162e+08
1.10164e+08
1.11038e+08
1.11789e+08
1.12425e+08
1.12956e+08
1.1339e+08
1.13738e+08
1.14008e+08
1.14215e+08
1.14373e+08
1.14494e+08
1.14597e+08
1.14699e+08
1.14823e+08
1.14991e+08
1.15232e+08
1.15575e+08
1.16055e+08
1.16707e+08
1.17573e+08
1.18702e+08
1.20139e+08
1.21938e+08
1.24148e+08
1.26826e+08
1.30023e+08
1.33787e+08
1.38162e+08
1.43187e+08
1.48895e+08
1.55314e+08
1.62459e+08
1.70336e+08
1.78945e+08
1.88273e+08
1.98301e+08
2.09008e+08
2.20356e+08
2.32305e+08
2.44802e+08
2.57812e+08
2.71286e+08
2.85169e+08
2.99392e+08
3.13899e+08
3.2862e+08
3.43468e+08
3.58348e+08
3.73157e+08
3.87767e+08
4.0203e+08
4.15779e+08
4.28825e+08
4.40939e+08
4.51894e+08
4.61453e+08
4.69365e+08
4.75376e+08
4.79255e+08
4.80802e+08
4.7988e+08
4.76361e+08
4.70193e+08
4.61401e+08
4.50113e+08
4.36536e+08
4.20979e+08
4.03733e+08
3.85166e+08
3.6556e+08
3.45242e+08
3.24463e+08
3.03412e+08
4.28803e+07
4.28508e+07
4.2775e+07
4.26516e+07
4.24812e+07
4.22638e+07
4.19996e+07
4.16885e+07
4.13305e+07
4.09256e+07
4.04744e+07
3.99775e+07
3.94357e+07
3.88497e+07
3.82208e+07
3.75502e+07
3.68395e+07
3.60904e+07
3.53048e+07
3.44844e+07
3.36313e+07
3.27473e+07
3.18347e+07
3.08957e+07
2.99327e+07
2.89486e+07
2.79461e+07
2.69281e+07
2.58972e+07
2.48565e+07
2.38088e+07
2.2757e+07
2.17043e+07
2.06536e+07
1.96083e+07
1.85719e+07
1.75478e+07
1.65396e+07
1.55512e+07
1.45864e+07
1.36494e+07
1.27444e+07
1.18759e+07
1.10485e+07
1.02669e+07
9.53604e+06
8.86109e+06
8.24721e+06
7.69966e+06
7.2238e+06
6.82495e+06
6.50844e+06
6.27954e+06
6.14341e+06
6.10501e+06
6.16906e+06
6.34e+06
6.62188e+06
7.01828e+06
7.53234e+06
8.16656e+06
8.92289e+06
9.8026e+06
1.08063e+07
1.19337e+07
1.31841e+07
1.45557e+07
1.60462e+07
1.76529e+07
1.93721e+07
2.11997e+07
2.31309e+07
2.51606e+07
2.7283e+07
2.94922e+07
3.17819e+07
3.41456e+07
3.65767e+07
3.90681e+07
4.16127e+07
4.42034e+07
4.68328e+07
4.94934e+07
5.21777e+07
5.4878e+07
5.75861e+07
6.02939e+07
6.2993e+07
6.56747e+07
6.83299e+07
7.09496e+07
7.35243e+07
7.60444e+07
7.85001e+07
8.08819e+07
8.31808e+07
8.53881e+07
8.7496e+07
8.94968e+07
9.13842e+07
9.31528e+07
9.47991e+07
9.63202e+07
9.7715e+07
9.89832e+07
1.00125e+08
1.01143e+08
1.02039e+08
1.02819e+08
1.03486e+08
1.04048e+08
1.04513e+08
1.04888e+08
1.05182e+08
1.05405e+08
1.05568e+08
1.05682e+08
1.05761e+08
1.05819e+08
1.05871e+08
1.05937e+08
1.06039e+08
1.06201e+08
1.0645e+08
1.06817e+08
1.07334e+08
1.08039e+08
1.08975e+08
1.10188e+08
1.11726e+08
1.13637e+08
1.15973e+08
1.18781e+08
1.22108e+08
1.25997e+08
1.30484e+08
1.35604e+08
1.41383e+08
1.47837e+08
1.54973e+08
1.62793e+08
1.71289e+08
1.80444e+08
1.90241e+08
2.00646e+08
2.11626e+08
2.23132e+08
2.35132e+08
2.4758e+08
2.60425e+08
2.73606e+08
2.87068e+08
3.00742e+08
3.14546e+08
3.28394e+08
3.42188e+08
3.55811e+08
3.69119e+08
3.8196e+08
3.94163e+08
4.05514e+08
4.15809e+08
4.24834e+08
4.32368e+08
4.38183e+08
4.4206e+08
4.43826e+08
4.43361e+08
4.40536e+08
4.35294e+08
4.27645e+08
4.17702e+08
4.05633e+08
3.91702e+08
3.76155e+08
3.59317e+08
3.41425e+08
3.2278e+08
3.03625e+08
2.84184e+08
3.88091e+07
3.8787e+07
3.87245e+07
3.86213e+07
3.84776e+07
3.82933e+07
3.80682e+07
3.78023e+07
3.74954e+07
3.71476e+07
3.67592e+07
3.63306e+07
3.58621e+07
3.53545e+07
3.48085e+07
3.42252e+07
3.36057e+07
3.29513e+07
3.22633e+07
3.15431e+07
3.07922e+07
3.00122e+07
2.92048e+07
2.83721e+07
2.7516e+07
2.6639e+07
2.57433e+07
2.48312e+07
2.39051e+07
2.29675e+07
2.20208e+07
2.10677e+07
2.01108e+07
1.91529e+07
1.8197e+07
1.72462e+07
1.63036e+07
1.53726e+07
1.44567e+07
1.35596e+07
1.26852e+07
1.18376e+07
1.10211e+07
1.02402e+07
9.49951e+06
8.80388e+06
8.15833e+06
7.568e+06
7.03809e+06
6.5739e+06
6.18071e+06
5.86379e+06
5.62836e+06
5.47953e+06
5.42221e+06
5.46109e+06
5.60053e+06
5.8445e+06
6.19652e+06
6.65964e+06
7.23633e+06
7.92842e+06
8.73715e+06
9.66305e+06
1.07059e+07
1.18649e+07
1.31383e+07
1.45239e+07
1.60188e+07
1.76196e+07
1.93222e+07
2.11222e+07
2.30143e+07
2.49931e+07
2.70529e+07
2.91876e+07
3.1391e+07
3.36566e+07
3.59777e+07
3.83475e+07
4.07591e+07
4.32053e+07
4.5679e+07
4.81727e+07
5.06791e+07
5.31902e+07
5.56983e+07
5.81953e+07
6.06728e+07
6.31222e+07
6.5535e+07
6.79022e+07
7.02148e+07
7.24641e+07
7.46414e+07
7.67384e+07
7.87473e+07
8.06613e+07
8.24735e+07
8.41787e+07
8.5772e+07
8.72505e+07
8.8612e+07
8.98562e+07
9.09839e+07
9.19958e+07
9.28936e+07
9.36809e+07
9.43617e+07
9.49407e+07
9.54236e+07
9.58169e+07
9.61271e+07
9.63624e+07
9.65319e+07
9.66451e+07
9.67114e+07
9.67425e+07
9.67502e+07
9.67486e+07
9.6754e+07
9.67865e+07
9.68664e+07
9.70184e+07
9.72699e+07
9.76505e+07
9.81933e+07
9.89379e+07
9.99259e+07
1.01203e+08
1.02814e+08
1.04806e+08
1.07224e+08
1.10113e+08
1.13514e+08
1.17464e+08
1.21995e+08
1.27134e+08
1.32898e+08
1.39296e+08
1.46331e+08
1.54e+08
1.62289e+08
1.71183e+08
1.80656e+08
1.90676e+08
2.01203e+08
2.12208e+08
2.23645e+08
2.35465e+08
2.47614e+08
2.6004e+08
2.72673e+08
2.85441e+08
2.9826e+08
3.11038e+08
3.23661e+08
3.35997e+08
3.47907e+08
3.59234e+08
3.69783e+08
3.79371e+08
3.87805e+08
3.94892e+08
4.00433e+08
4.04227e+08
4.0613e+08
4.06025e+08
4.038e+08
3.99388e+08
3.92794e+08
3.84114e+08
3.73484e+08
3.61131e+08
3.47252e+08
3.32129e+08
3.15958e+08
2.99012e+08
2.81521e+08
2.63739e+08
3.49571e+07
3.49419e+07
3.48916e+07
3.48071e+07
3.46882e+07
3.45348e+07
3.43464e+07
3.41228e+07
3.3864e+07
3.35698e+07
3.32402e+07
3.28755e+07
3.24758e+07
3.20416e+07
3.15734e+07
3.10719e+07
3.05379e+07
2.99722e+07
2.93757e+07
2.87495e+07
2.80948e+07
2.74127e+07
2.67046e+07
2.59721e+07
2.5217e+07
2.4441e+07
2.36461e+07
2.28341e+07
2.2007e+07
2.11668e+07
2.03157e+07
1.9456e+07
1.859e+07
1.77201e+07
1.68489e+07
1.59793e+07
1.51141e+07
1.42563e+07
1.34093e+07
1.25764e+07
1.17616e+07
1.09686e+07
1.02015e+07
9.46481e+06
8.76297e+06
8.10078e+06
7.48315e+06
6.91511e+06
6.4018e+06
5.94846e+06
5.56031e+06
5.24256e+06
5.0004e+06
4.83888e+06
4.76287e+06
4.77698e+06
4.8855e+06
5.09234e+06
5.40091e+06
5.81415e+06
6.33446e+06
6.96362e+06
7.70276e+06
8.55234e+06
9.51214e+06
1.05812e+07
1.1758e+07
1.30401e+07
1.44248e+07
1.59086e+07
1.74877e+07
1.91576e+07
2.09134e+07
2.27498e+07
2.46612e+07
2.66418e+07
2.86856e+07
3.07863e+07
3.29374e+07
3.51325e+07
3.73649e+07
3.96278e+07
4.19141e+07
4.42168e+07
4.65286e+07
4.88421e+07
5.11496e+07
5.34436e+07
5.57161e+07
5.79589e+07
6.01642e+07
6.23233e+07
6.44284e+07
6.64713e+07
6.84442e+07
7.03398e+07
7.2151e+07
7.38717e+07
7.54963e+07
7.70203e+07
7.84397e+07
7.97518e+07
8.09557e+07
8.20512e+07
8.30395e+07
8.39217e+07
8.46999e+07
8.53772e+07
8.59577e+07
8.64458e+07
8.68467e+07
8.71657e+07
8.7408e+07
8.75807e+07
8.76923e+07
8.7751e+07
8.7765e+07
8.7744e+07
8.76984e+07
8.76399e+07
8.75832e+07
8.75451e+07
8.75435e+07
8.75996e+07
8.77381e+07
8.79857e+07
8.83721e+07
8.89331e+07
8.97062e+07
9.07329e+07
9.20553e+07
9.37166e+07
9.57592e+07
9.82262e+07
1.01157e+08
1.04589e+08
1.08553e+08
1.13075e+08
1.18174e+08
1.23862e+08
1.30145e+08
1.37021e+08
1.4448e+08
1.52513e+08
1.61096e+08
1.702e+08
1.79794e+08
1.8985e+08
2.00324e+08
2.11167e+08
2.22328e+08
2.33759e+08
2.45394e+08
2.57163e+08
2.68986e+08
2.80772e+08
2.92413e+08
3.03786e+08
3.14767e+08
3.25207e+08
3.34936e+08
3.43786e+08
3.51583e+08
3.58162e+08
3.63353e+08
3.66976e+08
3.68912e+08
3.69056e+08
3.67305e+08
3.63597e+08
3.57933e+08
3.50389e+08
3.4108e+08
3.30195e+08
3.17895e+08
3.04411e+08
2.8991e+08
2.74628e+08
2.58784e+08
2.42652e+08
3.14759e+07
3.14663e+07
3.14267e+07
3.13587e+07
3.1262e+07
3.11362e+07
3.09808e+07
3.07956e+07
3.05802e+07
3.03343e+07
3.00578e+07
2.97508e+07
2.94131e+07
2.90452e+07
2.86471e+07
2.82193e+07
2.77621e+07
2.72762e+07
2.67621e+07
2.62206e+07
2.56524e+07
2.50585e+07
2.444e+07
2.3798e+07
2.31339e+07
2.24491e+07
2.17451e+07
2.10234e+07
2.02857e+07
1.95335e+07
1.87689e+07
1.79936e+07
1.72096e+07
1.64192e+07
1.56246e+07
1.48283e+07
1.40329e+07
1.32414e+07
1.24565e+07
1.16819e+07
1.09208e+07
1.01771e+07
9.45482e+06
8.75806e+06
8.09133e+06
7.45929e+06
6.86677e+06
6.31872e+06
5.82021e+06
5.37636e+06
4.99237e+06
4.67339e+06
4.42455e+06
4.25088e+06
4.15717e+06
4.14795e+06
4.22744e+06
4.39942e+06
4.66723e+06
5.03368e+06
5.50106e+06
6.07106e+06
6.74472e+06
7.52242e+06
8.40385e+06
9.38801e+06
1.04733e+07
1.16574e+07
1.29374e+07
1.431e+07
1.57713e+07
1.7317e+07
1.89424e+07
2.06423e+07
2.24113e+07
2.42437e+07
2.61337e+07
2.80752e+07
3.00619e+07
3.20877e+07
3.41462e+07
3.62308e+07
3.83348e+07
4.04512e+07
4.25732e+07
4.46937e+07
4.68054e+07
4.8901e+07
5.09732e+07
5.30142e+07
5.50166e+07
5.69728e+07
5.88753e+07
6.07169e+07
6.24905e+07
6.41895e+07
6.58079e+07
6.73403e+07
6.87822e+07
7.01299e+07
7.13802e+07
7.25309e+07
7.35817e+07
7.45327e+07
7.53853e+07
7.61408e+07
7.68015e+07
7.73702e+07
7.78508e+07
7.82477e+07
7.85651e+07
7.88074e+07
7.89795e+07
7.90876e+07
7.91385e+07
7.91395e+07
7.9098e+07
7.90218e+07
7.89204e+07
7.88037e+07
7.86845e+07
7.85771e+07
7.84968e+07
7.84619e+07
7.84942e+07
7.86179e+07
7.88599e+07
7.92517e+07
7.98271e+07
8.06228e+07
8.16778e+07
8.30325e+07
8.47269e+07
8.68015e+07
8.92951e+07
9.22432e+07
9.56767e+07
9.96218e+07
1.04101e+08
1.09127e+08
1.14708e+08
1.20847e+08
1.27536e+08
1.34769e+08
1.42526e+08
1.50783e+08
1.59513e+08
1.68688e+08
1.78269e+08
1.88206e+08
1.98449e+08
2.08951e+08
2.19652e+08
2.3048e+08
2.41359e+08
2.52197e+08
2.62894e+08
2.73333e+08
2.83402e+08
2.92962e+08
3.01866e+08
3.09958e+08
3.17087e+08
3.23105e+08
3.27876e+08
3.31239e+08
3.33099e+08
3.33368e+08
3.31957e+08
3.28812e+08
3.2393e+08
3.17371e+08
3.09231e+08
2.99669e+08
2.88815e+08
2.76852e+08
2.63923e+08
2.50225e+08
2.35965e+08
2.21429e+08
2.84755e+07
2.847e+07
2.84391e+07
2.83849e+07
2.83071e+07
2.82051e+07
2.80783e+07
2.79263e+07
2.77486e+07
2.75448e+07
2.73146e+07
2.70577e+07
2.67741e+07
2.64636e+07
2.61264e+07
2.57623e+07
2.53718e+07
2.49549e+07
2.45121e+07
2.40437e+07
2.35504e+07
2.30326e+07
2.24913e+07
2.19273e+07
2.13417e+07
2.07355e+07
2.01098e+07
1.94659e+07
1.88051e+07
1.81287e+07
1.74384e+07
1.67356e+07
1.60222e+07
1.53e+07
1.45712e+07
1.38378e+07
1.31025e+07
1.23677e+07
1.16364e+07
1.09116e+07
1.01968e+07
9.49548e+06
8.81152e+06
8.14902e+06
7.51236e+06
6.90608e+06
6.33495e+06
5.80384e+06
5.31773e+06
4.88169e+06
4.50085e+06
4.18033e+06
3.92518e+06
3.74037e+06
3.6306e+06
3.60032e+06
3.65367e+06
3.79435e+06
4.02554e+06
4.34995e+06
4.76973e+06
5.28645e+06
5.90101e+06
6.6137e+06
7.42408e+06
8.33108e+06
9.33299e+06
1.04275e+07
1.16117e+07
1.28822e+07
1.42351e+07
1.56662e+07
1.7171e+07
1.87442e+07
2.03806e+07
2.20748e+07
2.38208e+07
2.56129e+07
2.7445e+07
2.93111e+07
3.12052e+07
3.31209e+07
3.50517e+07
3.69911e+07
3.89324e+07
4.08688e+07
4.27936e+07
4.46997e+07
4.65804e+07
4.84283e+07
5.02368e+07
5.19987e+07
5.37074e+07
5.53563e+07
5.6939e+07
5.84499e+07
5.98837e+07
6.12361e+07
6.25034e+07
6.36824e+07
6.47708e+07
6.57671e+07
6.66711e+07
6.74833e+07
6.82052e+07
6.88383e+07
6.93847e+07
6.98474e+07
7.02299e+07
7.05359e+07