/*--------------------------------*- C++ -*----------------------------------*\
| =========                 |                                                 |
| \\      /  F ield         | OpenFOAM: The Open Source CFD Toolbox           |
|  \\    /   O peration     | Version:  dev                                   |
|   \\  /    A nd           | Web:      http://www.openfoam.org               |
|    \\/     M anipulation  |                                                 |
\*---------------------------------------------------------------------------*/
FoamFile
{
    version     2.0;
    format      ascii;
    class       volScalarField;
    object      rho;
    location    "9.16";
}
// * * * * * * * * * * * * * * * * * * * * * * * * * * * * * * * * * * * * * //

dimensions      [1 -3 0 0 0 0 0];

internalField   nonuniform List<scalar> 
12225
(
1.12377
1.11948
1.11811
1.11762
1.11764
1.11774
1.11851
1.11892
1.12002
1.12079
1.12198
1.12299
1.12538
1.12283
1.13295
1.11796
1.14452
1.12262
1.12219
1.11628
1.116
1.11553
1.11644
1.11599
1.11716
1.11712
1.11823
1.11894
1.11978
1.12096
1.1237
1.12044
1.13218
1.11501
1.14666
1.11646
1.12185
1.11579
1.11653
1.11561
1.11732
1.11648
1.11809
1.11796
1.11891
1.12022
1.1198
1.12313
1.12141
1.1263
1.12429
1.12928
1.13404
1.12816
1.12246
1.11502
1.11714
1.11528
1.11775
1.11672
1.11854
1.11828
1.11977
1.12001
1.1218
1.12191
1.12436
1.1238
1.12562
1.13026
1.12235
1.12799
1.12338
1.114
1.11723
1.1151
1.11708
1.11693
1.11789
1.11877
1.11921
1.12063
1.1213
1.1228
1.12365
1.12527
1.12645
1.12948
1.12432
1.12943
1.12363
1.11398
1.11797
1.11467
1.1176
1.11652
1.11868
1.11867
1.11972
1.12056
1.12197
1.12224
1.12451
1.12413
1.12813
1.12469
1.13603
1.1271
1.12289
1.11534
1.11763
1.11582
1.11781
1.11734
1.11899
1.11913
1.12
1.12162
1.12173
1.12375
1.12351
1.12621
1.1268
1.12821
1.13239
1.13297
1.12247
1.11577
1.11734
1.1166
1.11781
1.11775
1.11895
1.11901
1.12057
1.12122
1.1226
1.12296
1.1243
1.12551
1.12718
1.12799
1.1285
1.13152
1.12229
1.11627
1.11711
1.11688
1.11757
1.118
1.11854
1.11937
1.12042
1.12137
1.12243
1.12324
1.12454
1.12574
1.12686
1.12807
1.12961
1.13108
1.12261
1.11661
1.11732
1.1171
1.11777
1.11817
1.11833
1.11995
1.12011
1.12161
1.12185
1.12352
1.12421
1.12547
1.12623
1.12796
1.12886
1.13067
1.12275
1.11706
1.11759
1.11715
1.11817
1.11834
1.11905
1.12011
1.1203
1.1218
1.12182
1.12381
1.1241
1.12532
1.1259
1.12774
1.12854
1.1301
1.12297
1.11783
1.11787
1.11763
1.11883
1.11829
1.11937
1.12
1.12082
1.12164
1.12192
1.12362
1.12403
1.12543
1.12582
1.12749
1.12817
1.1296
1.12388
1.11874
1.11799
1.11821
1.11876
1.11857
1.11992
1.11993
1.12114
1.12155
1.12243
1.12344
1.12418
1.1252
1.12565
1.12719
1.12782
1.12898
1.12441
1.11947
1.11873
1.11924
1.11929
1.1196
1.12027
1.12056
1.12181
1.12189
1.12308
1.12358
1.12468
1.12521
1.12597
1.12693
1.12776
1.12881
1.12549
1.12017
1.11965
1.11999
1.11997
1.1205
1.12067
1.12129
1.122
1.12248
1.12352
1.12385
1.12501
1.12539
1.12639
1.12695
1.12769
1.12841
1.12646
1.12145
1.12114
1.12124
1.12146
1.12179
1.12184
1.12251
1.12265
1.12342
1.12391
1.12453
1.12538
1.12588
1.12669
1.12724
1.12806
1.12839
1.12781
1.12305
1.12257
1.12275
1.12301
1.12305
1.12337
1.12367
1.12391
1.1246
1.12486
1.12571
1.12604
1.1268
1.12727
1.12779
1.1282
1.12872
1.12947
1.12494
1.12433
1.1247
1.12453
1.12473
1.12505
1.12513
1.12575
1.12602
1.12656
1.12708
1.12732
1.12791
1.12811
1.12876
1.1289
1.12943
1.13104
1.12662
1.1263
1.12631
1.12614
1.12658
1.12659
1.12704
1.12742
1.12754
1.12812
1.12824
1.12871
1.12901
1.12937
1.1297
1.12982
1.1302
1.13241
1.12838
1.12802
1.12792
1.1282
1.12815
1.12829
1.12852
1.12865
1.12905
1.12936
1.12971
1.12999
1.13034
1.13056
1.13077
1.13091
1.13102
1.13347
1.12951
1.12917
1.12947
1.12951
1.1295
1.12964
1.12976
1.12988
1.13025
1.1305
1.13087
1.13119
1.13137
1.1317
1.1317
1.13185
1.13185
1.1348
1.1305
1.13016
1.13022
1.13026
1.13051
1.13059
1.1309
1.13115
1.13139
1.13162
1.13184
1.13197
1.13216
1.13224
1.13232
1.13246
1.13236
1.13532
1.1314
1.13107
1.13104
1.13118
1.13126
1.13148
1.13173
1.132
1.13217
1.13245
1.13252
1.13269
1.13278
1.1328
1.13299
1.13286
1.13308
1.1358
1.13207
1.13157
1.13179
1.13187
1.13195
1.13216
1.1323
1.13244
1.13273
1.13279
1.13305
1.13317
1.13329
1.13346
1.13342
1.13358
1.13346
1.13656
1.13256
1.13211
1.13214
1.13226
1.13244
1.13259
1.13281
1.13302
1.13315
1.13332
1.13339
1.13352
1.13361
1.13368
1.13379
1.1338
1.13384
1.1367
1.13287
1.13238
1.13258
1.13277
1.13298
1.13319
1.13334
1.13346
1.13358
1.13366
1.13375
1.13382
1.13389
1.13393
1.13396
1.13398
1.13395
1.13698
1.13315
1.13264
1.13272
1.13283
1.13299
1.13319
1.13339
1.13358
1.13373
1.13386
1.13398
1.13407
1.13414
1.13418
1.13419
1.13416
1.13409
1.13693
1.13325
1.13285
1.13294
1.13298
1.13306
1.1332
1.13337
1.13354
1.13368
1.1338
1.13389
1.13396
1.134
1.134
1.13397
1.13391
1.13381
1.13724
1.13355
1.13292
1.13286
1.13284
1.13288
1.13297
1.13308
1.13321
1.13332
1.13342
1.13348
1.13353
1.13355
1.13355
1.13354
1.1335
1.13345
1.13787
1.13488
1.13399
1.13355
1.13331
1.13322
1.13323
1.13329
1.13338
1.13347
1.13356
1.13364
1.1337
1.13374
1.13376
1.13376
1.13371
1.13373
1.2234
1.2454
1.25718
1.26404
1.26816
1.27059
1.27189
1.27246
1.2725
1.27204
1.27115
1.26975
1.2681
1.26651
1.26425
1.26245
1.26047
1.25731
1.25392
1.25117
1.24882
1.24644
1.24386
1.24105
1.23713
1.23148
1.22602
1.22417
1.22561
1.2245
1.21802
1.21261
1.21072
1.20906
1.20157
1.18813
1.18085
1.18332
1.18685
1.18752
1.18665
1.1852
1.18353
1.18169
1.17973
1.17769
1.1756
1.17348
1.17136
1.16924
1.16714
1.16506
1.16299
1.16093
1.15888
1.15684
1.15482
1.15282
1.15086
1.14898
1.14717
1.1454
1.14369
1.14204
1.14046
1.13896
1.1376
1.1364
1.13538
1.13451
1.13379
1.13322
1.1328
1.13256
1.13261
1.13282
1.13325
1.13394
1.13485
1.13617
1.13799
1.13999
1.14175
1.14327
1.14427
1.14485
1.14575
1.14716
1.14949
1.15231
1.15538
1.1586
1.16163
1.16494
1.16834
1.17211
1.17559
1.17917
1.18219
1.18544
1.18852
1.19232
1.19837
1.20669
1.21662
1.22618
1.23482
1.24063
1.24211
1.2397
1.23193
1.2259
1.21428
1.2044
1.19983
1.20822
1.2238
1.22574
1.22238
1.21698
1.21094
1.21913
1.23863
1.2362
1.22764
1.23593
1.23621
1.22005
1.23775
1.25256
1.24785
1.24654
1.24144
1.23529
1.22819
1.22125
1.21362
1.20722
1.20165
1.19611
1.18917
1.18158
1.17583
1.17244
1.17087
1.17122
1.17166
1.17162
1.17239
1.17407
1.17692
1.18069
1.18425
1.18786
1.18282
1.18335
1.17648
1.18425
1.18911
1.1789
1.18941
1.1956
1.17673
1.14547
1.17363
1.18916
1.20684
1.22106
1.23789
1.26641
1.26974
1.25645
1.27138
1.272
1.27467
1.26517
1.25222
1.23853
1.22888
1.23625
1.22314
1.2477
1.26005
1.2664
1.27087
1.27485
1.27826
1.28129
1.28396
1.28649
1.28867
1.28996
1.29061
1.29169
1.29207
1.29238
1.29241
1.2902
1.28913
1.28879
1.28864
1.28661
1.28263
1.28182
1.2782
1.27054
1.26196
1.25665
1.26394
1.26273
1.23578
1.21673
1.21213
1.20751
1.2044
1.20104
1.1991
1.19705
1.19471
1.19238
1.18951
1.18693
1.18436
1.18182
1.17944
1.17709
1.17493
1.17281
1.17072
1.16863
1.16656
1.16449
1.16244
1.16043
1.15831
1.1563
1.15422
1.1522
1.15024
1.14846
1.14667
1.1448
1.14289
1.14106
1.13926
1.13758
1.13594
1.13437
1.13298
1.1317
1.13071
1.12968
1.12869
1.12784
1.12743
1.12719
1.12729
1.1279
1.12862
1.13013
1.1334
1.13844
1.14327
1.14833
1.15055
1.14802
1.14518
1.14239
1.14364
1.15049
1.15886
1.16837
1.17347
1.17802
1.18315
1.1893
1.19417
1.19885
1.20259
1.20487
1.21501
1.22597
1.22867
1.22679
1.23968
1.26526
1.27927
1.27657
1.27102
1.27113
1.26924
1.26695
1.24273
1.21739
1.23415
1.25166
1.24443
1.24643
1.2545
1.25713
1.26469
1.27692
1.27976
1.27042
1.26433
1.23768
1.19153
1.17296
1.21942
1.23944
1.26792
1.27187
1.28102
1.2715
1.26509
1.2557
1.2481
1.23909
1.22918
1.22327
1.22224
1.22087
1.2231
1.22776
1.22027
1.21047
1.21049
1.21378
1.21882
1.22892
1.24403
1.26399
1.28391
1.3014
1.2983
1.31118
1.2962
1.30512
1.33856
1.31742
1.32742
1.30136
1.2449
1.21678
1.28541
1.27774
1.34433
1.32337
1.34216
1.36085
1.36181
1.39694
1.44269
1.43282
1.42486
1.42079
1.36251
1.3288
1.31177
1.27662
1.21661
1.23269
1.23812
1.24029
1.24329
1.24723
1.2511
1.25525
1.25906
1.26315
1.26724
1.27038
1.27307
1.27694
1.28213
1.28432
1.28587
1.28485
1.28715
1.29221
1.29249
1.28991
1.28727
1.28428
1.28309
1.28228
1.2724
1.25753
1.24008
1.21857
1.20772
1.20494
1.20041
1.19736
1.19399
1.19121
1.18957
1.18726
1.18587
1.18418
1.18283
1.18174
1.18038
1.17928
1.17816
1.17699
1.17567
1.17409
1.17276
1.17116
1.16961
1.16808
1.1665
1.1651
1.16364
1.16203
1.16044
1.1588
1.15692
1.15559
1.15407
1.15239
1.15069
1.14911
1.14756
1.1461
1.14434
1.14239
1.14059
1.13875
1.13728
1.13562
1.1338
1.13161
1.12928
1.1272
1.12544
1.12441
1.12334
1.12252
1.12242
1.12539
1.12927
1.13559
1.14074
1.14008
1.13694
1.13095
1.12282
1.1258
1.13979
1.15632
1.16022
1.16296
1.17265
1.1865
1.19417
1.18752
1.19089
1.19888
1.20056
1.20417
1.22333
1.23869
1.24189
1.25189
1.25741
1.24811
1.24125
1.24406
1.25053
1.25618
1.24963
1.24413
1.24918
1.24783
1.26669
1.27986
1.26676
1.26369
1.28471
1.28845
1.27176
1.26823
1.25976
1.23316
1.17831
1.18275
1.1738
1.15933
1.19109
1.19095
1.20576
1.19758
1.19698
1.19552
1.20464
1.21511
1.21285
1.19548
1.18225
1.18068
1.19287
1.21473
1.22935
1.23644
1.23686
1.23189
1.23322
1.2435
1.25521
1.27475
1.29666
1.3057
1.32569
1.3579
1.36199
1.37414
1.43063
1.40697
1.36447
1.2834
1.24295
1.26954
1.34614
1.2959
1.36344
1.28529
1.34109
1.40313
1.2826
1.38374
1.44786
1.45884
1.45612
1.45167
1.45284
1.37843
1.33224
1.29414
1.21173
1.22393
1.22843
1.233
1.23953
1.24576
1.25025
1.25435
1.25857
1.26153
1.26265
1.26257
1.2651
1.27246
1.27814
1.2796
1.28087
1.28088
1.28255
1.28225
1.27779
1.27101
1.25819
1.25331
1.25546
1.24506
1.22428
1.20875
1.20159
1.19809
1.19624
1.19569
1.19525
1.19465
1.1943
1.19395
1.19368
1.19316
1.19245
1.19199
1.19154
1.19079
1.18992
1.18898
1.18768
1.18602
1.18451
1.18266
1.1805
1.17861
1.17665
1.17454
1.17245
1.17024
1.16819
1.16573
1.1638
1.16153
1.15908
1.15704
1.15502
1.15319
1.15169
1.15042
1.14918
1.14819
1.14723
1.14619
1.14531
1.14428
1.14317
1.1426
1.14212
1.14116
1.13963
1.13789
1.13621
1.13468
1.13377
1.1331
1.13125
1.1295
1.12925
1.1303
1.1328
1.13691
1.14115
1.14316
1.13724
1.13337
1.14279
1.15683
1.15413
1.14188
1.14251
1.16183
1.17496
1.16219
1.16279
1.17237
1.16523
1.15989
1.17119
1.1906
1.2245
1.2514
1.25196
1.25419
1.26356
1.26236
1.25541
1.25695
1.25935
1.25907
1.25942
1.2641
1.27092
1.27135
1.27206
1.26665
1.25973
1.2634
1.25963
1.23944
1.22288
1.21917
1.20946
1.23358
1.22981
1.20774
1.20398
1.1958
1.19683
1.17939
1.16429
1.15249
1.15134
1.16409
1.18855
1.19985
1.18894
1.16485
1.15125
1.1688
1.20273
1.23128
1.24362
1.24258
1.23931
1.24388
1.25495
1.27146
1.27918
1.25239
1.27585
1.32494
1.3821
1.41008
1.45217
1.42633
1.3421
1.28768
1.31295
1.35915
1.43009
1.39794
1.39697
1.34402
1.37035
1.44717
1.32082
1.35442
1.40357
1.29075
1.36295
1.36277
1.38698
1.39538
1.3514
1.32482
1.2075
1.21674
1.22228
1.23106
1.24267
1.25242
1.25801
1.26254
1.2678
1.26919
1.26613
1.26507
1.26772
1.27277
1.27719
1.27685
1.26603
1.25403
1.24413
1.23402
1.23453
1.23919
1.2351
1.22795
1.21764
1.20569
1.20083
1.20038
1.20083
1.20196
1.20202
1.20178
1.20095
1.19973
1.19827
1.19709
1.19543
1.1943
1.19387
1.19293
1.19234
1.19158
1.19047
1.18894
1.18758
1.18578
1.18353
1.18156
1.1794
1.17715
1.17469
1.17213
1.16967
1.16686
1.16415
1.16103
1.15803
1.15493
1.15218
1.14904
1.14626
1.14385
1.14196
1.14022
1.13905
1.13815
1.13778
1.13776
1.13759
1.13704
1.1361
1.13589
1.13568
1.13606
1.13639
1.13698
1.13689
1.13583
1.13557
1.1353
1.13661
1.13717
1.13728
1.13684
1.13321
1.12905
1.12833
1.13257
1.13951
1.14229
1.14862
1.152
1.15028
1.14348
1.13331
1.13653
1.14635
1.13557
1.13215
1.15197
1.15118
1.14176
1.15085
1.15297
1.16822
1.20381
1.23059
1.24203
1.24662
1.25039
1.24971
1.25239
1.25852
1.25735
1.25326
1.24274
1.24499
1.26938
1.28903
1.29292
1.26786
1.24284
1.24499
1.25243
1.23001
1.23668
1.25252
1.19504
1.18691
1.15717
1.17526
1.19125
1.21969
1.22616
1.2097
1.17701
1.16218
1.15809
1.16039
1.16956
1.17982
1.1763
1.14929
1.13679
1.16577
1.21178
1.2379
1.24061
1.24191
1.24914
1.24736
1.25651
1.27964
1.24393
1.22881
1.25919
1.3654
1.41989
1.44276
1.4222
1.33906
1.29219
1.36911
1.42047
1.32925
1.49742
1.36884
1.41169
1.49186
1.40094
1.30525
1.30917
1.36331
1.22978
1.19151
1.21009
1.24432
1.31376
1.31228
1.31077
1.20386
1.21161
1.22224
1.23693
1.25057
1.26103
1.26601
1.26985
1.27205
1.26906
1.26632
1.26906
1.26955
1.26187
1.25094
1.24081
1.22267
1.21273
1.21977
1.22341
1.22582
1.22451
1.21311
1.20516
1.20196
1.20075
1.20312
1.20396
1.20323
1.20172
1.19886
1.19678
1.1946
1.19387
1.19382
1.19431
1.19583
1.19679
1.19815
1.19892
1.19911
1.1984
1.19752
1.19632
1.19487
1.19342
1.19156
1.1898
1.18773
1.18594
1.18372
1.18124
1.17871
1.17603
1.17311
1.16956
1.1661
1.16235
1.1583
1.15448
1.15091
1.14742
1.14496
1.14221
1.14009
1.13824
1.13708
1.13707
1.13766
1.13741
1.13664
1.13608
1.13505
1.1338
1.13278
1.13291
1.13255
1.13351
1.13198
1.13177
1.1317
1.1369
1.1403
1.14359
1.14533
1.14055
1.13419
1.13186
1.13548
1.13809
1.14
1.13985
1.1356
1.1394
1.14142
1.13404
1.1327
1.13173
1.12885
1.14222
1.1382
1.12458
1.14696
1.16659
1.16863
1.17704
1.19166
1.20183
1.22645
1.24477
1.24611
1.2438
1.24927
1.24927
1.23712
1.22207
1.23343
1.24849
1.25452
1.27916
1.28156
1.2746
1.25866
1.22224
1.17687
1.18766
1.23024
1.19485
1.20598
1.19441
1.16761
1.15365
1.15877
1.18624
1.20343
1.17659
1.144
1.1551
1.16885
1.17976
1.18054
1.18491
1.18201
1.1586
1.14901
1.17978
1.22426
1.24472
1.24906
1.25879
1.25284
1.25124
1.28622
1.26812
1.22113
1.21309
1.33983
1.41942
1.42259
1.42765
1.33742
1.31847
1.37224
1.37802
1.28148
1.44773
1.25699
1.34072
1.56225
1.3638
1.18238
1.24875
1.29945
1.29663
1.19551
1.14068
1.14263
1.21024
1.24214
1.25308
1.20126
1.21128
1.23081
1.25025
1.26025
1.26761
1.27249
1.27361
1.26905
1.26365
1.26457
1.25798
1.24166
1.22294
1.21352
1.21452
1.21528
1.21951
1.2183
1.2093
1.20241
1.19751
1.1948
1.19749
1.2007
1.20233
1.20367
1.20192
1.19938
1.19715
1.19566
1.19622
1.19821
1.20105
1.20438
1.20625
1.20727
1.20745
1.20592
1.20332
1.20041
1.19731
1.19441
1.19221
1.18996
1.18818
1.1862
1.18405
1.1819
1.17975
1.17715
1.17485
1.17225
1.16959
1.16678
1.16399
1.16075
1.15758
1.15404
1.15052
1.14756
1.14444
1.14209
1.13964
1.13748
1.13507
1.13233
1.13002
1.12955
1.1288
1.12942
1.12961
1.13087
1.13156
1.1317
1.13012
1.12722
1.13002
1.12672
1.12543
1.11924
1.12305
1.12894
1.1352
1.13948
1.14112
1.13626
1.13142
1.13361
1.13764
1.14022
1.14429
1.14558
1.14792
1.15528
1.14738
1.13279
1.12589
1.12225
1.13857
1.15015
1.13591
1.13698
1.15466
1.16665
1.17371
1.1835
1.19117
1.21651
1.2421
1.24236
1.23478
1.23882
1.24303
1.23314
1.21743
1.22469
1.22096
1.22349
1.24933
1.26059
1.27827
1.29344
1.27917
1.22013
1.20815
1.17944
1.17542
1.16065
1.17452
1.18482
1.19385
1.15683
1.14953
1.17497
1.19929
1.16219
1.15115
1.15568
1.16557
1.18029
1.18763
1.19152
1.18075
1.1668
1.16336
1.202
1.23861
1.22313
1.20759
1.19893
1.21202
1.28395
1.29791
1.22793
1.17383
1.31837
1.41721
1.40476
1.41899
1.3507
1.30663
1.3705
1.33994
1.33104
1.39624
1.23698
1.23263
1.58837
1.31376
1.14203
1.17842
1.24452
1.25194
1.22438
1.17473
1.18232
1.20506
1.23134
1.23311
1.19991
1.21505
1.2395
1.25473
1.25665
1.26187
1.26788
1.26845
1.2615
1.25649
1.25034
1.2348
1.21737
1.20792
1.20355
1.2028
1.20341
1.20299
1.20125
1.19973
1.20012
1.2025
1.20495
1.20613
1.20642
1.20458
1.20227
1.19894
1.19699
1.19687
1.1992
1.20215
1.20536
1.20729
1.20689
1.20508
1.20199
1.19769
1.19357
1.18985
1.18693
1.18568
1.1846
1.18479
1.1843
1.18305
1.18229
1.18137
1.17988
1.1784
1.17638
1.17451
1.17216
1.16943
1.16662
1.16419
1.16122
1.15877
1.15696
1.15461
1.15261
1.1509
1.14922
1.14713
1.14502
1.14314
1.14033
1.13697
1.13335
1.12864
1.1266
1.12394
1.12279
1.12317
1.12655
1.12798
1.1267
1.12788
1.12825
1.13708
1.12973
1.1266
1.12429
1.12804
1.13514
1.141
1.14001
1.13201
1.12945
1.13268
1.1407
1.14912
1.15207
1.15184
1.15368
1.14939
1.13534
1.1307
1.1228
1.1223
1.13938
1.15405
1.16208
1.16234
1.16341
1.16852
1.1812
1.18404
1.2067
1.23659
1.2413
1.22681
1.23042
1.24112
1.23149
1.20881
1.21118
1.19746
1.20046
1.20784
1.21924
1.23927
1.25981
1.24467
1.22621
1.24725
1.21868
1.20511
1.19852
1.16397
1.14598
1.167
1.16855
1.14747
1.1452
1.17384
1.17315
1.16803
1.18252
1.17204
1.17253
1.16748
1.1659
1.16046
1.17149
1.16409
1.18155
1.22723
1.19589
1.1393
1.12633
1.15506
1.24827
1.30761
1.25351
1.14931
1.27148
1.41478
1.36938
1.40984
1.37563
1.30633
1.33376
1.33283
1.32819
1.36914
1.30179
1.1901
1.47256
1.18921
1.11696
1.14882
1.19609
1.21146
1.24757
1.22381
1.25461
1.25109
1.25464
1.24184
1.19867
1.21705
1.24009
1.24799
1.2475
1.25535
1.26027
1.26195
1.25626
1.2496
1.23957
1.21591
1.19848
1.19986
1.19858
1.1978
1.20322
1.20377
1.20118
1.2009
1.20035
1.19922
1.19861
1.19738
1.19731
1.19545
1.19559
1.19466
1.19656
1.19959
1.20296
1.20526
1.20569
1.20423
1.20161
1.19771
1.19421
1.19142
1.18931
1.18893
1.18927
1.19035
1.19097
1.19031
1.18881
1.18708
1.18501
1.18363
1.18207
1.18035
1.17845
1.17695
1.17579
1.17438
1.17232
1.17021
1.16778
1.16418
1.16057
1.15754
1.15395
1.15085
1.14789
1.14591
1.14382
1.14294
1.14129
1.14124
1.13985
1.13795
1.13529
1.13264
1.12969
1.12473
1.12206
1.12115
1.12201
1.12043
1.11219
1.12041
1.12239
1.12799
1.12459
1.12072
1.12365
1.13105
1.13835
1.13714
1.13223
1.13071
1.13437
1.14434
1.14719
1.14822
1.14242
1.13213
1.11705
1.11944
1.12841
1.12937
1.13545
1.14829
1.16536
1.16665
1.1688
1.17684
1.18877
1.1883
1.19733
1.2297
1.24131
1.22863
1.22389
1.24318
1.23339
1.20465
1.2052
1.19024
1.19627
1.18712
1.19833
1.20568
1.20743
1.20304
1.1963
1.17807
1.20745
1.1889
1.18844
1.1841
1.18175
1.17074
1.18204
1.18107
1.19044
1.18147
1.17809
1.14576
1.17462
1.17875
1.17819
1.17666
1.18253
1.1642
1.16847
1.16626
1.16284
1.20944
1.19897
1.13096
1.09841
1.12001
1.21531
1.31343
1.29685
1.15135
1.21997
1.41685
1.33438
1.44535
1.40319
1.34191
1.34471
1.36777
1.33001
1.3705
1.42186
1.27616
1.30047
1.1543
1.11748
1.15493
1.18442
1.23101
1.29075
1.31647
1.34334
1.32419
1.30794
1.27802
1.19652
1.21523
1.23668
1.24279
1.24655
1.25765
1.25976
1.25734
1.25236
1.24354
1.22706
1.20095
1.19056
1.19687
1.19796
1.19523
1.19278
1.18938
1.19117
1.19329
1.19602
1.19828
1.20023
1.20011
1.20183
1.19995
1.19934
1.19875
1.20069
1.20369
1.20499
1.20447
1.20292
1.20073
1.19767
1.19488
1.19293
1.19178
1.19071
1.19035
1.19029
1.18881
1.18649
1.18339
1.18022
1.17845
1.17704
1.17555
1.1736
1.17133
1.16871
1.16636
1.1645
1.16346
1.1626
1.1616
1.16088
1.16018
1.15781
1.15485
1.15147
1.14796
1.14478
1.14251
1.1402
1.13819
1.13474
1.13357
1.13062
1.13215
1.13224
1.13272
1.13545
1.13582
1.13485
1.133
1.12868
1.1308
1.12533
1.12156
1.11495
1.12265
1.12525
1.12171
1.12029
1.12348
1.12901
1.12994
1.12879
1.13101
1.13285
1.14236
1.14532
1.1451
1.13885
1.13149
1.11892
1.1166
1.12499
1.1257
1.13048
1.14413
1.15891
1.16207
1.16709
1.17656
1.19339
1.19382
1.19224
1.21915
1.24021
1.23032
1.22003
1.23883
1.23519
1.20405
1.20536
1.18916
1.18662
1.17501
1.18685
1.19455
1.19984
1.23596
1.20772
1.22486
1.20779
1.18708
1.16854
1.15205
1.15991
1.1624
1.16822
1.1641
1.19924
1.17846
1.20886
1.16794
1.17062
1.18575
1.17731
1.15244
1.16507
1.16068
1.15752
1.1725
1.16585
1.18486
1.19575
1.16503
1.1223
1.1026
1.15182
1.27057
1.31005
1.15717
1.17864
1.39687
1.32555
1.46583
1.45366
1.36631
1.34316
1.3734
1.35235
1.37539
1.44284
1.347
1.23911
1.16409
1.16477
1.19402
1.2082
1.25741
1.31461
1.38336
1.39807
1.37526
1.34136
1.29588
1.19369
1.21289
1.23417
1.23787
1.24333
1.25729
1.25908
1.25379
1.24168
1.21896
1.19972
1.19035
1.19118
1.18802
1.187
1.19423
1.19832
1.19642
1.19848
1.19816
1.1998
1.19971
1.1981
1.19566
1.1941
1.19202
1.19203
1.19417
1.19718
1.2009
1.20074
1.20047
1.19891
1.19713
1.19578
1.19456
1.19412
1.19367
1.19285
1.19057
1.18716
1.18271
1.17876
1.17742
1.17784
1.17889
1.17936
1.17844
1.17644
1.17362
1.17036
1.16756
1.16486
1.16281
1.16137
1.16038
1.15921
1.15819
1.15903
1.15835
1.15905
1.1576
1.15668
1.15564
1.15465
1.15202
1.14769
1.14401
1.13732
1.13255
1.12995
1.12696
1.12685
1.12651
1.12621
1.13453
1.13311
1.1281
1.12787
1.13068
1.11902
1.11857
1.12202
1.12165
1.11869
1.12326
1.12975
1.13512
1.13156
1.12746
1.1235
1.13277
1.1437
1.15017
1.14879
1.14089
1.12834
1.1206
1.12454
1.1247
1.1351
1.15669
1.16835
1.16849
1.16976
1.18074
1.19731
1.20001
1.19127
1.21089
1.23472
1.23733
1.21616
1.22927
1.24027
1.20525
1.20797
1.18871
1.18204
1.18083
1.18302
1.18666
1.18189
1.20312
1.19176
1.21552
1.21977
1.1956
1.18263
1.17541
1.1647
1.15788
1.17548
1.16482
1.18471
1.16426
1.19393
1.19151
1.16374
1.17985
1.19296
1.15692
1.15709
1.17261
1.15606
1.1634
1.16317
1.16335
1.17162
1.17242
1.14619
1.11405
1.10217
1.18757
1.29071
1.16562
1.1442
1.35124
1.34968
1.4266
1.51261
1.39151
1.32742
1.33196
1.32307
1.39145
1.48015
1.3673
1.2139
1.16435
1.17283
1.22286
1.25091
1.29625
1.36271
1.44003
1.43149
1.41338
1.36377
1.31902
1.19069
1.21035
1.23054
1.23073
1.23467
1.24747
1.24533
1.23842
1.22733
1.20295
1.18344
1.18425
1.19267
1.19223
1.18632
1.1903
1.18858
1.18702
1.19184
1.19252
1.19583
1.19851
1.19898
1.19876
1.19691
1.19607
1.1951
1.19767
1.1989
1.20139
1.20079
1.19922
1.19721
1.19557
1.19462
1.19353
1.19288
1.19123
1.18923
1.18677
1.18316
1.18041
1.17855
1.17783
1.17833
1.17837
1.17658
1.17338
1.16929
1.16523
1.16169
1.15886
1.15653
1.15531
1.15425
1.15289
1.15393
1.15253
1.15338
1.15294
1.15406
1.1554
1.15624
1.15681
1.15728
1.15469
1.15115
1.1471
1.14518
1.14174
1.13957
1.13599
1.13193
1.13215
1.12346
1.12071
1.12878
1.1271
1.12481
1.13138
1.12592
1.11881
1.11912
1.12292
1.11804
1.11622
1.11742
1.13045
1.13463
1.12895
1.12065
1.12785
1.14209
1.14888
1.14609
1.13332
1.12126
1.11896
1.12532
1.128
1.14016
1.16558
1.18016
1.17988
1.17774
1.18369
1.19755
1.20392
1.19432
1.20419
1.23045
1.2456
1.21965
1.21877
1.24044
1.21178
1.21076
1.19321
1.19153
1.18916
1.17908
1.18526
1.16885
1.20935
1.19389
1.19019
1.19175
1.16553
1.16819
1.17277
1.16389
1.16124
1.18445
1.19006
1.20643
1.20931
1.23349
1.24332
1.19467
1.18525
1.19675
1.16274
1.14078
1.1682
1.1566
1.15906
1.16324
1.15739
1.15074
1.16699
1.15929
1.13905
1.09793
1.11418
1.24559
1.17963
1.12333
1.30897
1.36747
1.38603
1.52046
1.4135
1.37328
1.34402
1.32956
1.40711
1.48764
1.37116
1.19585
1.21049
1.2126
1.26305
1.30043
1.31854
1.38026
1.46375
1.4414
1.42565
1.36533
1.33327
1.18659
1.20416
1.22347
1.22325
1.22394
1.23549
1.23039
1.21845
1.20668
1.19436
1.17931
1.17994
1.18512
1.18312
1.18382
1.19208
1.19378
1.19309
1.19707
1.19469
1.19376
1.19423
1.19107
1.19009
1.18771
1.1879
1.18808
1.19043
1.19249
1.19527
1.19601
1.19521
1.1933
1.19192
1.19119
1.19059
1.19035
1.18912
1.18747
1.1848
1.18166
1.17979
1.1783
1.17724
1.17659
1.17486
1.17184
1.1684
1.16402
1.16036
1.15811
1.15725
1.15658
1.1555
1.15643
1.15328
1.15032
1.14732
1.14527
1.1458
1.14562
1.14749
1.14905
1.15104
1.1547
1.15301
1.14918
1.1417
1.13675
1.13238
1.13138
1.13367
1.12869
1.12965
1.13438
1.12486
1.12331
1.12209
1.11821
1.12088
1.12723
1.11925
1.11936
1.12548
1.12418
1.12023
1.11522
1.12545
1.13376
1.1266
1.11801
1.12676
1.14392
1.14779
1.1415
1.12453
1.1152
1.11787
1.12654
1.13959
1.15713
1.1759
1.18121
1.18498
1.18896
1.19294
1.20105
1.20832
1.19899
1.20096
1.22047
1.24795
1.2219
1.2126
1.23806
1.21713
1.21254
1.19402
1.19564
1.19287
1.18716
1.19031
1.16796
1.19121
1.17686
1.21773
1.23268
1.20503
1.17778
1.1665
1.14857
1.16204
1.18211
1.17986
1.18162
1.20065
1.22353
1.23173
1.19803
1.18888
1.19422
1.18682
1.14324
1.16414
1.15944
1.15357
1.15761
1.16296
1.14539
1.15992
1.16299
1.15915
1.12353
1.0854
1.20108
1.19701
1.11941
1.24906
1.35453
1.38216
1.4527
1.4075
1.4826
1.36204
1.35056
1.41625
1.49895
1.38219
1.21218
1.22798
1.2207
1.28758
1.32433
1.34476
1.39379
1.47023
1.44295
1.4317
1.36851
1.35137
1.18206
1.19753
1.21789
1.21854
1.21042
1.21921
1.21769
1.21174
1.19858
1.1838
1.17866
1.18034
1.18681
1.18139
1.18032
1.18522
1.18472
1.18414
1.18905
1.19142
1.19243
1.19464
1.19313
1.19293
1.19158
1.19096
1.19102
1.19154
1.19215
1.19377
1.19381
1.19224
1.19054
1.18899
1.18938
1.19057
1.19199
1.19231
1.19129
1.18874
1.18685
1.18406
1.1811
1.1788
1.17558
1.17276
1.17002
1.16601
1.16172
1.15948
1.15723
1.15411
1.15369
1.15247
1.15488
1.15828
1.15866
1.15706
1.15317
1.1502
1.14786
1.14465
1.14513
1.14583
1.15118
1.15587
1.1561
1.15227
1.14583
1.14205
1.1329
1.12968
1.13071
1.12275
1.12384
1.12376
1.12381
1.1268
1.12376
1.11566
1.12421
1.11361
1.1156
1.12016
1.12286
1.11937
1.11084
1.12069
1.13588
1.12825
1.11993
1.12333
1.14038
1.14411
1.13828
1.12369
1.1184
1.12272
1.12627
1.14239
1.16692
1.18416
1.1827
1.18297
1.18702
1.19384
1.20217
1.21016
1.20135
1.20371
1.21088
1.25057
1.22615
1.21258
1.23485
1.22754
1.20712
1.19502
1.19956
1.1976
1.19652
1.19314
1.17724
1.18826
1.18708
1.20103
1.18707
1.16735
1.16908
1.17911
1.17082
1.17273
1.19222
1.20075
1.21429
1.2427
1.26231
1.26887
1.2287
1.20235
1.1705
1.18061
1.14501
1.16401
1.16472
1.15292
1.14366
1.15994
1.1454
1.14837
1.1581
1.16139
1.14517
1.08381
1.16061
1.20474
1.1318
1.18713
1.3252
1.38494
1.39715
1.40184
1.5605
1.35451
1.36426
1.46186
1.4985
1.33736
1.17246
1.25662
1.24246
1.31042
1.34575
1.36032
1.41087
1.48159
1.4497
1.43069
1.36699
1.37539
1.17677
1.18853
1.20815
1.21514
1.20349
1.20684
1.20369
1.19588
1.19562
1.18415
1.17199
1.17385
1.17978
1.18024
1.17894
1.18628
1.18758
1.18675
1.18954
1.18686
1.18507
1.18713
1.18453
1.18435
1.18423
1.184
1.18502
1.18737
1.18947
1.19135
1.19209
1.19083
1.18867
1.18679
1.18565
1.18534
1.18684
1.18782
1.18897
1.1878
1.18456
1.18122
1.17782
1.174
1.1715
1.16922
1.16603
1.16382
1.1611
1.15758
1.15702
1.15686
1.15536
1.15297
1.15263
1.15464
1.15547
1.15079
1.14741
1.14698
1.15328
1.15249
1.14814
1.14519
1.14302
1.1481
1.14765
1.15044
1.14419
1.14037
1.1408
1.13156
1.13055
1.13053
1.1275
1.1253
1.11829
1.11986
1.12422
1.11577
1.12398
1.11592
1.1182
1.1164
1.1227
1.12139
1.11173
1.1175
1.13231
1.12368
1.11812
1.11917
1.14001
1.14559
1.13855
1.12191
1.11653
1.1217
1.12815
1.14551
1.16769
1.18446
1.19152
1.19402
1.19431
1.19759
1.2056
1.21029
1.20684
1.20292
1.20535
1.24431
1.23588
1.21515
1.22285
1.23728
1.20392
1.20765
1.19693
1.19924
1.19752
1.19775
1.18573
1.18376
1.17626
1.21685
1.22749
1.1967
1.17261
1.16658
1.16909
1.17732
1.18735
1.20061
1.21697
1.22348
1.25488
1.27553
1.25613
1.24121
1.18228
1.18628
1.14597
1.16789
1.17908
1.17059
1.14214
1.1607
1.14926
1.14552
1.15437
1.16185
1.15978
1.10245
1.13857
1.19785
1.15754
1.14825
1.29967
1.38366
1.37484
1.43995
1.54162
1.33521
1.40612
1.50246
1.46252
1.30752
1.20143
1.32324
1.2855
1.34236
1.36994
1.38297
1.42343
1.48701
1.4575
1.43224
1.37397
1.4073
1.17212
1.18153
1.19977
1.21286
1.20027
1.19587
1.19896
1.18996
1.18414
1.18548
1.17785
1.1723
1.17517
1.17757
1.17408
1.17787
1.18124
1.17969
1.18561
1.19015
1.18728
1.19008
1.18919
1.18742
1.1862
1.18437
1.183
1.18206
1.18179
1.18211
1.1827
1.18231
1.18107
1.1802
1.1789
1.17953
1.17939
1.17844
1.17728
1.17442
1.17406
1.17257
1.16968
1.16889
1.16624
1.16412
1.16433
1.16369
1.16108
1.15947
1.15733
1.15719
1.157
1.15386
1.14947
1.14812
1.1528
1.15484
1.15544
1.15029
1.14765
1.14981
1.14911
1.15031
1.14841
1.15314
1.15462
1.15175
1.15329
1.14207
1.13595
1.13267
1.12574
1.124
1.12023
1.12458
1.12287
1.1201
1.12268
1.11575
1.11936
1.11812
1.11656
1.11031
1.11795
1.12028
1.11466
1.11563
1.13185
1.12754
1.12102
1.11793
1.13753
1.14323
1.13658
1.12215
1.11713
1.12289
1.13039
1.15307
1.16732
1.1806
1.19293
1.19886
1.20318
1.20469
1.20895
1.21252
1.21244
1.20309
1.20027
1.2374
1.24745
1.21409
1.22203
1.23534
1.21141
1.21866
1.19733
1.18951
1.20389
1.19426
1.19824
1.18475
1.17884
1.21608
1.20017
1.18105
1.17909
1.18745
1.16788
1.16303
1.18489
1.22391
1.24656
1.24879
1.28684
1.3012
1.26151
1.2269
1.16439
1.17624
1.13935
1.17435
1.19482
1.18061
1.13367
1.15103
1.14838
1.14949
1.14744
1.15851
1.15498
1.12698
1.12331
1.17447
1.18848
1.11381
1.2456
1.35434
1.34449
1.48234
1.488
1.32898
1.43974
1.53026
1.4231
1.2769
1.21209
1.35146
1.30558
1.35977
1.38469
1.41639
1.45317
1.49597
1.46102
1.43241
1.38973
1.43537
1.16845
1.17701
1.19223
1.20651
1.19815
1.18749
1.18839
1.18525
1.17765
1.1748
1.17584
1.1703
1.17068
1.17441
1.17477
1.17632
1.18052
1.1794
1.17598
1.17937
1.17878
1.1795
1.18167
1.18224
1.18377
1.18455
1.18515
1.18522
1.18542
1.18528
1.18531
1.18375
1.18245
1.18176
1.17926
1.17855
1.18
1.17803
1.17513
1.17481
1.17101
1.16752
1.16558
1.16333
1.16203
1.16304
1.16061
1.16141
1.16127
1.16049
1.15717
1.15515
1.15649
1.15696
1.15805
1.15419
1.1467
1.13899
1.13787
1.14334
1.14939
1.15091
1.15002
1.14536
1.14697
1.14454
1.15207
1.15033
1.14775
1.14494
1.13644
1.13373
1.12743
1.1286
1.12318
1.11924
1.11991
1.117
1.12061
1.11759
1.1136
1.12228
1.11874
1.11157
1.11447
1.11948
1.11577
1.10748
1.12221
1.12448
1.11911
1.11407
1.1313
1.14065
1.135
1.12002
1.11415
1.12146
1.13108
1.15857
1.17386
1.1859
1.19837
1.20124
1.20045
1.20742
1.21457
1.2133
1.20961
1.20803
1.19546
1.2285
1.2565
1.21762
1.22848
1.22538
1.22164
1.22516
1.19742
1.18009
1.2012
1.20368
1.20292
1.17725
1.17622
1.22712
1.2105
1.17858
1.16578
1.17709
1.18058
1.17304
1.21252
1.25353
1.2536
1.23332
1.27256
1.31005
1.28075
1.22775
1.16444
1.17215
1.1412
1.16651
1.19188
1.17547
1.13649
1.14708
1.15927
1.15838
1.13961
1.14726
1.14604
1.15314
1.10934
1.15415
1.20433
1.10563
1.20522
1.31555
1.29886
1.50426
1.45756
1.32788
1.45958
1.54499
1.37006
1.24692
1.25915
1.40873
1.3374
1.40681
1.42047
1.44493
1.47822
1.50273
1.46834
1.44022
1.40589
1.44421
1.16601
1.17549
1.18617
1.2005
1.20428
1.19125
1.18293
1.18128
1.17958
1.17408
1.17287
1.17029
1.16702
1.16681
1.16808
1.16964
1.17424
1.18161
1.18321
1.18339
1.18325
1.18075
1.17906
1.17641
1.17499
1.17385
1.17369
1.17374
1.17457
1.17517
1.17682
1.17761
1.17804
1.17723
1.17577
1.175
1.17316
1.17336
1.17269
1.17012
1.16814
1.16684
1.16568
1.16344
1.15798
1.16075
1.15909
1.15717
1.15512
1.1514
1.15276
1.1524
1.15075
1.14531
1.14343
1.14641
1.14959
1.15226
1.15469
1.15301
1.15017
1.14293
1.14389
1.14324
1.14801
1.15177
1.1506
1.14823
1.14042
1.13438
1.12422
1.12397
1.12153
1.12197
1.12473
1.1193
1.12275
1.11836
1.11802
1.12257
1.11249
1.11645
1.11461
1.11289
1.11171
1.11953
1.11833
1.10715
1.12163
1.12833
1.12037
1.11217
1.12729
1.14196
1.13627