/*--------------------------------*- C++ -*----------------------------------*\
| =========                 |                                                 |
| \\      /  F ield         | OpenFOAM: The Open Source CFD Toolbox           |
|  \\    /   O peration     | Version:  dev                                   |
|   \\  /    A nd           | Web:      http://www.openfoam.org               |
|    \\/     M anipulation  |                                                 |
\*---------------------------------------------------------------------------*/
FoamFile
{
    version     2.0;
    format      ascii;
    class       volScalarField;
    object      rho_0;
    location    "9.16";
}
// * * * * * * * * * * * * * * * * * * * * * * * * * * * * * * * * * * * * * //

dimensions      [1 -3 0 0 0 0 0];

internalField   nonuniform List<scalar> 
12225
(
1.144
1.13855
1.13672
1.13561
1.13484
1.13412
1.13394
1.13337
1.13341
1.13313
1.13319
1.1332
1.13421
1.13106
1.13949
1.12379
1.14874
1.12212
1.14156
1.13474
1.13428
1.13323
1.1334
1.13208
1.13232
1.13124
1.13134
1.13092
1.1307
1.1309
1.13214
1.12869
1.13765
1.12232
1.15082
1.11667
1.1412
1.13431
1.13487
1.13335
1.13433
1.1326
1.13332
1.13211
1.13209
1.13219
1.13083
1.13291
1.13025
1.13395
1.13077
1.13528
1.13782
1.13093
1.14183
1.13349
1.13544
1.13295
1.13474
1.1328
1.13373
1.13241
1.13289
1.13204
1.13273
1.13177
1.13308
1.13134
1.13271
1.13456
1.12589
1.131
1.14263
1.13238
1.1355
1.13265
1.13402
1.13294
1.13303
1.13285
1.13227
1.13262
1.13219
1.13261
1.13239
1.13295
1.13326
1.13445
1.12878
1.13239
1.1427
1.1323
1.1361
1.13213
1.13446
1.13246
1.13378
1.13264
1.13272
1.13249
1.13276
1.13201
1.13312
1.13188
1.13447
1.13118
1.1405
1.1281
1.14176
1.13351
1.13558
1.13318
1.1345
1.13317
1.13391
1.13299
1.13296
1.13341
1.13249
1.13336
1.13214
1.13387
1.13332
1.13414
1.13732
1.13663
1.14118
1.13375
1.13512
1.1338
1.1343
1.13342
1.13367
1.13279
1.13336
1.13292
1.13319
1.13249
1.13289
1.13309
1.13368
1.13343
1.13345
1.13594
1.14079
1.13404
1.1347
1.13389
1.13388
1.13348
1.13311
1.13302
1.13303
1.13293
1.13291
1.1327
1.13301
1.13317
1.13334
1.13369
1.13445
1.13511
1.14084
1.13411
1.13465
1.13386
1.13386
1.1334
1.13275
1.13339
1.13251
1.13299
1.13218
1.13287
1.13249
1.13279
1.13268
1.13356
1.13368
1.13473
1.14061
1.13422
1.13456
1.1336
1.13397
1.1333
1.1332
1.13323
1.13247
1.13293
1.13197
1.13296
1.13217
1.13247
1.13224
1.13327
1.13325
1.13408
1.1403
1.13453
1.13439
1.13368
1.13418
1.13284
1.13313
1.13279
1.13265
1.13241
1.13178
1.13249
1.13191
1.13238
1.13195
1.13284
1.13275
1.13353
1.14066
1.13481
1.13392
1.1337
1.13355
1.13266
1.13316
1.13223
1.13253
1.13193
1.1319
1.13193
1.13174
1.13184
1.13152
1.1323
1.13217
1.13271
1.14035
1.13479
1.13395
1.13399
1.13339
1.133
1.13282
1.13228
1.13257
1.13172
1.13201
1.13157
1.13178
1.13143
1.13144
1.13166
1.13182
1.1322
1.14051
1.13454
1.13393
1.13379
1.13317
1.13299
1.13236
1.13217
1.13197
1.1316
1.13171
1.13119
1.13151
1.13106
1.13132
1.13114
1.13125
1.13134
1.14046
1.13469
1.13422
1.13387
1.13351
1.13313
1.13244
1.13229
1.1316
1.13155
1.13118
1.13101
1.13105
1.1308
1.13089
1.13077
1.13093
1.13068
1.14023
1.1348
1.13415
1.13389
1.13357
1.13295
1.13258
1.13209
1.13159
1.13148
1.13097
1.13106
1.13064
1.13071
1.13048
1.13037
1.1302
1.13016
1.14013
1.13495
1.13419
1.13413
1.13341
1.13303
1.13266
1.13205
1.13196
1.13148
1.13132
1.13109
1.13067
1.1306
1.1302
1.13026
1.12985
1.12988
1.13992
1.13494
1.13451
1.1341
1.13347
1.13333
1.13271
1.13252
1.1322
1.13165
1.13156
1.13101
1.13086
1.13056
1.13035
1.13012
1.12976
1.12966
1.13977
1.13528
1.13481
1.13437
1.13418
1.13358
1.13314
1.13275
1.13225
1.13201
1.13168
1.13143
1.13111
1.13089
1.13057
1.13027
1.12994
1.12963
1.13952
1.13519
1.13482
1.13479
1.13437
1.13386
1.13344
1.13297
1.13251
1.13227
1.13192
1.13172
1.13146
1.13111
1.13092
1.13043
1.13015
1.12973
1.1399
1.13523
1.13488
1.13463
1.13426
1.13404
1.13359
1.13334
1.133
1.13265
1.1323
1.13195
1.13154
1.13122
1.13081
1.13046
1.13016
1.12969
1.13972
1.13545
1.13508
1.13477
1.13452
1.13413
1.13384
1.13354
1.13323
1.13284
1.13255
1.13208
1.13173
1.13132
1.13089
1.13065
1.13013
1.12998
1.13969
1.1356
1.13506
1.13501
1.13469
1.13432
1.13403
1.13363
1.13323
1.13295
1.13247
1.13221
1.13181
1.13146
1.13117
1.13073
1.1305
1.13002
1.14003
1.13568
1.13521
1.13498
1.13472
1.13445
1.13411
1.13381
1.13346
1.13304
1.13268
1.13223
1.13187
1.13149
1.13114
1.13083
1.13047
1.13017
1.13985
1.13571
1.13521
1.13516
1.13498
1.13474
1.13445
1.13408
1.13366
1.13323
1.13279
1.13238
1.13195
1.13157
1.13118
1.13081
1.13046
1.1301
1.13996
1.1358
1.13528
1.13511
1.13485
1.13457
1.13429
1.13397
1.13362
1.13324
1.13285
1.13246
1.13207
1.13169
1.1313
1.13091
1.13051
1.13011
1.13981
1.13579
1.13537
1.13521
1.13488
1.13453
1.13419
1.13384
1.13348
1.13309
1.13269
1.13228
1.13186
1.13145
1.13103
1.13061
1.13018
1.12975
1.14011
1.13601
1.13535
1.13504
1.13466
1.13427
1.13388
1.13349
1.13309
1.13267
1.13224
1.13181
1.13138
1.13095
1.13053
1.13013
1.12973
1.12936
1.14094
1.13745
1.13645
1.13574
1.13513
1.13461
1.13414
1.13369
1.13325
1.13282
1.13239
1.13197
1.13155
1.13115
1.13075
1.13036
1.12996
1.12966
1.20993
1.23174
1.24343
1.25027
1.25441
1.25688
1.25824
1.25889
1.25903
1.2587
1.25795
1.25672
1.25525
1.25386
1.25181
1.25023
1.2485
1.24561
1.2425
1.24001
1.23793
1.23584
1.23356
1.23107
1.22752
1.22223
1.217
1.21523
1.21685
1.21619
1.21018
1.20497
1.20323
1.20201
1.19519
1.18207
1.17449
1.17669
1.18045
1.18156
1.18105
1.17991
1.17853
1.17698
1.17532
1.17358
1.1718
1.17
1.16821
1.16644
1.1647
1.16299
1.16133
1.1597
1.15809
1.15652
1.15498
1.15348
1.15204
1.15068
1.14942
1.14822
1.14709
1.14603
1.14505
1.14415
1.14339
1.14279
1.14237
1.14211
1.14199
1.14202
1.1422
1.14252
1.14315
1.14392
1.1449
1.14612
1.14755
1.14937
1.15171
1.15426
1.15658
1.15865
1.1602
1.16122
1.16253
1.16431
1.16704
1.1703
1.17383
1.17752
1.18099
1.18472
1.18853
1.1927
1.19653
1.20046
1.20379
1.20731
1.21066
1.21468
1.22088
1.22935
1.23955
1.24945
1.25826
1.26401
1.26535
1.26273
1.25469
1.24847
1.23643
1.22632
1.22209
1.23092
1.24671
1.24889
1.24602
1.24111
1.23542
1.24377
1.26433
1.26317
1.2545
1.26292
1.2644
1.24794
1.26553
1.28187
1.27805
1.27711
1.2724
1.26631
1.25926
1.25233
1.24479
1.23855
1.23323
1.22811
1.22173
1.21474
1.20973
1.20725
1.2066
1.20808
1.21006
1.21179
1.21454
1.21846
1.22385
1.23052
1.23712
1.24417
1.24184
1.24588
1.24107
1.25152
1.26119
1.25273
1.26571
1.27512
1.25694
1.22349
1.25438
1.27057
1.2903
1.30457
1.32238
1.35063
1.35389
1.34027
1.35612
1.35538
1.35731
1.34619
1.33068
1.31517
1.30498
1.31228
1.20984
1.23428
1.24663
1.25304
1.25756
1.26157
1.26501
1.26807
1.27079
1.27337
1.27562
1.27702
1.2778
1.27902
1.27955
1.28003
1.28028
1.27831
1.27747
1.27736
1.27747
1.27576
1.27208
1.27157
1.26836
1.26111
1.25285
1.24756
1.25507
1.25493
1.22884
1.20966
1.20495
1.20055
1.19767
1.19454
1.19282
1.19104
1.18894
1.1869
1.18431
1.18196
1.17965
1.17736
1.17524
1.17314
1.17125
1.16943
1.16766
1.16591
1.16419
1.1625
1.16083
1.15925
1.15758
1.15603
1.15443
1.1529
1.15143
1.15017
1.14894
1.14766
1.14634
1.1451
1.14389
1.1428
1.14177
1.1408
1.14002
1.13932
1.13893
1.13851
1.13812
1.13782
1.13794
1.13824
1.13884
1.13996
1.14117
1.14307
1.14667
1.15221
1.15763
1.1634
1.1665
1.1646
1.16212
1.15951
1.1608
1.16793
1.17684
1.18711
1.19278
1.19776
1.20339
1.21007
1.21539
1.22029
1.22435
1.22691
1.2373
1.24859
1.25171
1.25
1.26296
1.28893
1.30316
1.30012
1.29433
1.29436
1.29241
1.28981
1.2651
1.24007
1.25751
1.27506
1.2681
1.27054
1.27875
1.28177
1.29035
1.30337
1.30667
1.29804
1.2931
1.26763
1.21997
1.19877
1.24486
1.26654
1.29636
1.30085
1.31082
1.30142
1.29525
1.28611
1.27888
1.27032
1.26069
1.25478
1.25401
1.25337
1.25693
1.26365
1.25808
1.24969
1.25102
1.25573
1.26257
1.27493
1.29267
1.31607
1.34011
1.36194
1.36293
1.38175
1.37072
1.38121
1.42309
1.40475
1.41524
1.38795
1.32984
1.30172
1.37665
1.36509
1.43712
1.41182
1.4329
1.45218
1.44783
1.48974
1.53879
1.52652
1.51778
1.51085
1.44858
1.41147
1.39091
1.35402
1.20369
1.21986
1.22539
1.22762
1.23062
1.23456
1.23845
1.24263
1.24648
1.25064
1.25483
1.25809
1.26089
1.26483
1.2701
1.27246
1.2742
1.27338
1.27585
1.28112
1.28171
1.27945
1.27715
1.27442
1.27344
1.27302
1.26372
1.24946
1.23292
1.21183
1.20054
1.19773
1.19349
1.19063
1.18753
1.18484
1.1834
1.18131
1.18008
1.17863
1.17745
1.1766
1.17549
1.17461
1.17375
1.17287
1.17188
1.17061
1.16958
1.16835
1.16715
1.166
1.1648
1.16379
1.16279
1.16166
1.16056
1.15946
1.15807
1.15722
1.1563
1.15521
1.15409
1.1531
1.15214
1.15132
1.15024
1.14892
1.14774
1.14649
1.14562
1.14461
1.14344
1.14188
1.14011
1.13854
1.13725
1.1367
1.13613
1.13576
1.13592
1.13914
1.14335
1.15012
1.1561
1.1563
1.15384
1.1484
1.14018
1.14286
1.15715
1.17461
1.17905
1.18181
1.19176
1.20641
1.21477
1.20797
1.21149
1.21993
1.22142
1.22495
1.2447
1.26067
1.2645
1.27483
1.27999
1.27064
1.26397
1.26674
1.27308
1.27863
1.27249
1.26778
1.27247
1.27062
1.29001
1.30401
1.29128
1.28743
1.30825
1.31355
1.29744
1.29386
1.28657
1.26185
1.20638
1.21034
1.20165
1.18596
1.21765
1.2176
1.23261
1.22423
1.22351
1.22231
1.23184
1.24308
1.24206
1.22564
1.21237
1.21012
1.22207
1.24564
1.26381
1.27471
1.27777
1.2743
1.27677
1.28879
1.30253
1.32451
1.34948
1.35849
1.38199
1.42138
1.43583
1.45173
1.51609
1.49832
1.45136
1.36662
1.33014
1.36242
1.4445
1.39276
1.45628
1.37312
1.42948
1.49708
1.36308
1.46868
1.53426
1.53525
1.53706
1.53242
1.53435
1.45656
1.40757
1.36808
1.19926
1.21161
1.21612
1.22057
1.22692
1.23303
1.23752
1.24168
1.24594
1.24904
1.2504
1.25053
1.25319
1.26065
1.26646
1.26813
1.26978
1.27018
1.27219
1.2722
1.26795
1.26145
1.2489
1.24401
1.24652
1.23722
1.21725
1.20163
1.19411
1.19057
1.18879
1.18835
1.18816
1.18778
1.18763
1.18748
1.18744
1.18718
1.18668
1.1864
1.18619
1.1857
1.18508
1.18441
1.18345
1.18208
1.18086
1.17938
1.17755
1.17597
1.17438
1.17266
1.17097
1.16916
1.16758
1.16556
1.16407
1.16237
1.1604
1.15884
1.15735
1.15602
1.15503
1.15433
1.15366
1.15325
1.15292
1.15248
1.15222
1.15184
1.15131
1.15131
1.15148
1.15122
1.15034
1.14919
1.14807
1.14703
1.1466
1.14651
1.14523
1.14387
1.14393
1.14526
1.148
1.15248
1.15731
1.16024
1.15505
1.15116
1.16061
1.17522
1.17315
1.16081
1.16095
1.18046
1.19423
1.18144
1.18202
1.19221
1.18499
1.17946
1.19098
1.21062
1.24537
1.27286
1.27377
1.27676
1.28636
1.28487
1.27764
1.2791
1.28193
1.2818
1.28169
1.28588
1.29229
1.29373
1.2966
1.29237
1.28323
1.28559
1.28427
1.26552
1.24832
1.24569
1.2379
1.26067
1.25827
1.23558
1.23162
1.22404
1.22602
1.20924
1.19349
1.18033
1.17854
1.19123
1.21623
1.229
1.21969
1.19605
1.18054
1.19647
1.23249
1.26576
1.28236
1.28401
1.28257
1.28892
1.30096
1.3194
1.3324
1.30346
1.32341
1.37415
1.44716
1.48564
1.53175
1.51392
1.42558
1.36889
1.40809
1.46074
1.51311
1.51199
1.48657
1.44442
1.47639
1.53526
1.40259
1.43183
1.47712
1.35015
1.42206
1.42112
1.44962
1.46622
1.42125
1.39458
1.19558
1.20502
1.21041
1.21891
1.2303
1.23989
1.24549
1.2501
1.25548
1.25711
1.25429
1.25331
1.25612
1.26156
1.26646
1.2666
1.2564
1.24484
1.23507
1.22489
1.22516
1.23
1.22641
1.2198
1.21012
1.19817
1.1929
1.19239
1.19295
1.19434
1.1947
1.19473
1.19418
1.19323
1.19198
1.19103
1.1896
1.18854
1.18829
1.18758
1.18717
1.18667
1.18587
1.1846
1.1835
1.18207
1.18011
1.17842
1.17659
1.1747
1.17262
1.17042
1.16837
1.16599
1.16374
1.16109
1.15856
1.1559
1.15365
1.15104
1.1487
1.14673
1.14533
1.14408
1.14341
1.14302
1.14317
1.14374
1.14423
1.14436
1.14401
1.14435
1.14469
1.14562
1.14653
1.14775
1.14834
1.14786
1.14808
1.14826
1.15006
1.15129
1.152
1.15225
1.14918
1.14515
1.14435
1.14872
1.15637
1.15976
1.1664
1.16998
1.16863
1.16257
1.1525
1.15515
1.16492
1.15455
1.15122
1.17157
1.17077
1.16119
1.171
1.17337
1.18832
1.22375
1.25076
1.26212
1.26743
1.27185
1.27121
1.27354
1.2797
1.27846
1.27364
1.26189
1.26412
1.28935
1.31008
1.31748
1.29422
1.26832
1.26929
1.27713
1.25392
1.26086
1.28059
1.22111
1.21328
1.1836
1.20093
1.21706
1.24621
1.25514
1.24012
1.20618
1.19
1.18627
1.18858
1.19839
1.2099
1.20892
1.18342
1.16836
1.19455
1.24223
1.27377
1.28094
1.28466
1.29456
1.29318
1.30224
1.33363
1.30258
1.27961
1.30137
1.42059
1.49138
1.51635
1.50731
1.42333
1.37418
1.45603
1.51017
1.39215
1.59298
1.43834
1.49524
1.60995
1.47394
1.36635
1.37735
1.42822
1.29831
1.24572
1.26173
1.2981
1.37185
1.37236
1.37261
1.19255
1.20044
1.2106
1.22487
1.23849
1.24898
1.25399
1.25801
1.26058
1.2579
1.25517
1.25815
1.25931
1.25246
1.2421
1.23232
1.21427
1.20369
1.21029
1.21406
1.21676
1.21637
1.2056
1.1974
1.19402
1.19267
1.1951
1.19637
1.19602
1.19488
1.19226
1.19033
1.18826
1.18754
1.1876
1.18811
1.18977
1.19093
1.19246
1.19352
1.19405
1.19365
1.19303
1.19212
1.19093
1.18977
1.18821
1.18676
1.18498
1.18352
1.18172
1.17963
1.17749
1.17525
1.17283
1.16978
1.16678
1.16356
1.16
1.15662
1.15353
1.15045
1.14845
1.14622
1.14458
1.14321
1.14247
1.1429
1.14409
1.14456
1.14442
1.14447
1.14409
1.14342
1.14288
1.14351
1.14361
1.14522
1.14424
1.14445
1.14449
1.1501
1.15422
1.15823
1.16091
1.15694
1.15076
1.1483
1.15212
1.15523
1.15749
1.15781
1.15385
1.15822
1.16122
1.15362
1.15161
1.15091
1.14822
1.16179
1.15806
1.14452
1.16758
1.18772
1.18941
1.19688
1.21085
1.22111
1.24719
1.26615
1.26697
1.26379
1.26898
1.26939
1.25687
1.24104
1.25255
1.26605
1.27092
1.29775
1.30392
1.30112
1.28695
1.2498
1.20135
1.21034
1.25275
1.22017
1.23119
1.22174
1.1947
1.18068
1.18242
1.20957
1.22919
1.20541
1.17158
1.18318
1.1977
1.20904
1.21073
1.21669
1.2173
1.19481
1.18223
1.20893
1.2564
1.28346
1.28749
1.29579
1.29068
1.29079
1.33711
1.33163
1.27881
1.25409
1.38887
1.48793
1.49105
1.50933
1.42239
1.39747
1.4519
1.45059
1.36444
1.51932
1.32417
1.39423
1.66663
1.42486
1.2335
1.309
1.36014
1.36897
1.26235
1.20225
1.20978
1.27441
1.30504
1.31555
1.19059
1.20056
1.21948
1.23874
1.24909
1.25661
1.26148
1.26283
1.25871
1.25344
1.25462
1.24895
1.23355
1.21501
1.20519
1.20583
1.2062
1.21045
1.2101
1.20168
1.19481
1.18985
1.1868
1.18922
1.19268
1.19462
1.19637
1.1951
1.19279
1.19068
1.18919
1.18964
1.19162
1.19449
1.19804
1.20026
1.20157
1.20213
1.20104
1.19877
1.1961
1.19323
1.19046
1.18841
1.18635
1.18478
1.1831
1.18125
1.17939
1.17759
1.17533
1.17336
1.17115
1.16889
1.16648
1.16414
1.16136
1.15867
1.15563
1.15252
1.15001
1.14733
1.14543
1.14349
1.14187
1.14007
1.1379
1.13596
1.13594
1.13566
1.13679
1.13751
1.13931
1.14067
1.14156
1.14074
1.13809
1.14145
1.13889
1.1384
1.13231
1.13593
1.14211
1.14897
1.15406
1.15673
1.1526
1.14775
1.14995
1.15442
1.15763
1.16244
1.16439
1.1669
1.17467
1.16702
1.15189
1.14493
1.14136
1.15759
1.17
1.15664
1.15787
1.17523
1.18697
1.19384
1.20361
1.21111
1.23689
1.26284
1.26256
1.25377
1.25755
1.26276
1.25308
1.23627
1.24299
1.23726
1.2393
1.26414
1.2768
1.29751
1.31683
1.30535
1.24748
1.23636
1.20403
1.20105
1.1856
1.19867
1.20967
1.22113
1.18383
1.17381
1.19849
1.22677
1.19126
1.17964
1.18525
1.19398
1.2092
1.21578
1.22018
1.2119
1.20187
1.19508
1.23139
1.27433
1.25674
1.23253
1.22262
1.23943
1.32392
1.35857
1.2922
1.21518
1.35774
1.48322
1.46621
1.495
1.4406
1.38155
1.44116
1.41515
1.41877
1.46947
1.33054
1.28788
1.65461
1.35432
1.19908
1.23677
1.30176
1.31201
1.29988
1.25581
1.27195
1.28566
1.30544
1.30385
1.18996
1.20496
1.22909
1.24467
1.24698
1.25213
1.25815
1.25889
1.25217
1.24733
1.24186
1.22727
1.21
1.19998
1.19531
1.19451
1.19514
1.19499
1.19344
1.1919
1.19216
1.19453
1.19722
1.19869
1.19936
1.19786
1.19585
1.19269
1.1907
1.19042
1.19266
1.19567
1.19907
1.20142
1.20148
1.20005
1.19735
1.19333
1.18935
1.18573
1.18278
1.18155
1.18052
1.18082
1.18071
1.17972
1.17914
1.17854
1.17738
1.17624
1.17456
1.17304
1.17111
1.16878
1.16631
1.16428
1.16172
1.15958
1.1582
1.15634
1.15476
1.15352
1.15238
1.15086
1.14926
1.14798
1.14584
1.14308
1.14014
1.13588
1.13424
1.13206
1.13123
1.13184
1.13569
1.13796
1.13728
1.13886
1.13927
1.14917
1.14296
1.14016
1.13783
1.14146
1.14897
1.15574
1.15591
1.1484
1.14572
1.14898
1.15743
1.16661
1.1701
1.17013
1.17168
1.16737
1.1532
1.14907
1.14187
1.1411
1.15855
1.17464
1.18326
1.18263
1.18329
1.18881
1.20164
1.20402
1.22618
1.25638
1.261
1.24567
1.24846
1.26074
1.25111
1.22677
1.22885
1.2142
1.21761
1.22224
1.23399
1.25387
1.27457
1.26184
1.24755
1.2692
1.24482
1.23042
1.22496
1.18943
1.1709
1.19096
1.19619
1.17569
1.17322
1.19962
1.20164
1.19476
1.2121
1.20157
1.20094
1.19516
1.19475
1.18883
1.20308
1.19732
1.20977
1.25945
1.23288
1.16959
1.15135
1.17927
1.2777
1.36005
1.32449
1.19735
1.30057
1.4781
1.42353
1.49066
1.46846
1.39314
1.40587
1.41941
1.40596
1.44736
1.42023
1.27727
1.49538
1.23054
1.17951
1.2158
1.25705
1.28249
1.33109
1.32021
1.35508
1.34325
1.33722
1.32001
1.18956
1.20797
1.23098
1.23923
1.23863
1.2462
1.2513
1.25326
1.24775
1.24142
1.23229
1.2094
1.19134
1.19203
1.19082
1.18985
1.19529
1.19637
1.19395
1.19367
1.19332
1.19233
1.19188
1.19073
1.19087
1.18915
1.18938
1.1885
1.19025
1.19331
1.19684
1.19946
1.2003
1.19922
1.19696
1.19331
1.18989
1.18718
1.18504
1.18461
1.18498
1.18617
1.1871
1.18681
1.18562
1.18417
1.18229
1.1811
1.17983
1.17841
1.17679
1.17552
1.17467
1.17368
1.17203
1.17032
1.16839
1.16529
1.16204
1.15944
1.15631
1.15363
1.15106
1.14951
1.14785
1.14745
1.14628
1.14675
1.14603
1.14477
1.14273
1.14067
1.13844
1.134
1.13159
1.13099
1.13236
1.13174
1.12343
1.13149
1.13406
1.14065
1.13818
1.13433
1.13712
1.14481
1.15303
1.15281
1.14829
1.14697
1.15062
1.16112
1.16443
1.16578
1.15975
1.1493
1.13424
1.13706
1.14713
1.14825
1.1541
1.16744
1.18479
1.1858
1.1884
1.19705
1.20908
1.20817
1.21595
1.24832
1.26032
1.24746
1.24132
1.26162
1.25241
1.2224
1.22315
1.20784
1.21364
1.20299
1.21463
1.22188
1.22314
1.22402
1.21715
1.19917
1.23
1.21133
1.21034
1.20729
1.20713
1.1951
1.20719
1.20786
1.22145
1.20797
1.20798
1.17226
1.20046
1.20776
1.20676
1.2027
1.21097
1.19382
1.19663
1.19925
1.19332
1.23686
1.23652
1.17576
1.13777
1.14881
1.23447
1.34884
1.36313
1.20501
1.24601
1.47078
1.39036
1.52643
1.50205
1.43313
1.42255
1.45234
1.4124
1.45227
1.53284
1.38158
1.32705
1.21543
1.19147
1.23318
1.25872
1.31403
1.37916
1.42242
1.44263
1.41715
1.3902
1.3555
1.18832
1.2072
1.22859
1.23485
1.23827
1.24912
1.25153
1.2495
1.24493
1.23694
1.22138
1.19506
1.18348
1.18952
1.19101
1.18845
1.18621
1.18271
1.18428
1.18642
1.18924
1.19166
1.19389
1.1939
1.19586
1.19428
1.19371
1.19311
1.19489
1.19805
1.19968
1.19949
1.19819
1.19627
1.19342
1.19071
1.18881
1.18775
1.18677
1.18645
1.18658
1.18541
1.18338
1.18055
1.17748
1.17574
1.17452
1.17329
1.17166
1.16971
1.16737
1.16524
1.16357
1.16275
1.1622
1.16152
1.16113
1.16093
1.15911
1.15662
1.15368
1.1506
1.14779
1.14593
1.14408
1.14265
1.13966
1.13898
1.13637
1.13823
1.13891
1.13979
1.14311
1.14428
1.14398
1.14297
1.13896
1.14159
1.13701
1.13366
1.12673
1.13447
1.1381
1.13522
1.13385
1.13725
1.14326
1.14503
1.14429
1.14673
1.14849
1.15841
1.16224
1.16261
1.15672
1.14948
1.13704
1.13445
1.1428
1.14354
1.14909
1.16378
1.17811
1.18089
1.18603
1.19613
1.21305
1.21294
1.2103
1.23673
1.25802
1.24883
1.23667
1.25488
1.25353
1.22126
1.22319
1.20645
1.20289
1.19237
1.20355
1.2117
1.21674
1.25651
1.22839
1.24956
1.231
1.20996
1.19081
1.17436
1.18181
1.18493
1.19188
1.18711
1.22374
1.20212
1.23647
1.19885
1.19569
1.21242
1.20593
1.17651
1.18851
1.19058
1.18475
1.20213
1.19748
1.20952
1.22455
1.20929
1.16986
1.14042
1.16647
1.28119
1.35766
1.21111
1.20482
1.43268
1.39091
1.5222
1.55679
1.45415
1.41378
1.43483
1.42338
1.45959
1.53564
1.43464
1.28571
1.23017
1.24058
1.27663
1.29318
1.3429
1.40523
1.48431
1.48592
1.45959
1.41366
1.36882
1.18639
1.20576
1.22699
1.23091
1.23618
1.25004
1.25224
1.24741
1.23599
1.21407
1.19476
1.18433
1.18469
1.18177
1.18051
1.18748
1.19203
1.1903
1.19239
1.19219
1.19392
1.19413
1.19278
1.19047
1.18896
1.18692
1.18676
1.18883
1.19181
1.19582
1.19602
1.19597
1.19463
1.19298
1.19174
1.19059
1.19023
1.18992
1.18935
1.18737
1.18425
1.18
1.176
1.17449
1.17488
1.1761
1.17688
1.17636
1.17474
1.17228
1.16928
1.1667
1.16421
1.16235
1.16112
1.16043
1.15958
1.15877
1.15993
1.15963
1.16077
1.15983
1.15932
1.15875
1.15831
1.15635
1.15257
1.14954
1.14345
1.13895
1.13674
1.13409
1.13427
1.13446
1.13419
1.14308
1.14291
1.13825
1.13831
1.14229
1.13119
1.1303
1.13414
1.13466
1.13188
1.13651
1.14324
1.14981
1.14701
1.14282
1.13851
1.14803
1.1601
1.16731
1.16624
1.15794
1.14536
1.13787
1.14196
1.14254
1.15424
1.17692
1.18798
1.18763
1.18879
1.20004
1.216
1.21812
1.20884
1.22769
1.25155
1.25581
1.23237
1.24349
1.25739
1.22224
1.225
1.20552
1.19936
1.1994
1.19952
1.20368
1.19712
1.21986
1.21021
1.23325
1.23966
1.215
1.2041
1.19911
1.18713
1.18035
1.2004
1.19114
1.2096
1.19212
1.22209
1.22536
1.19173
1.20543
1.22127
1.18433
1.17944
1.20099
1.18375
1.18959
1.19241
1.18987
1.19491
1.20617
1.18942
1.15999
1.1298
1.18905
1.3186
1.21977
1.17341
1.37435
1.4161
1.46537
1.59491
1.47668
1.41515
1.39559
1.38932
1.47717
1.56836
1.43708
1.26319
1.23751
1.24671
1.30629
1.34089
1.38018
1.45138
1.53045
1.50746
1.48694
1.42618
1.38979
1.18431
1.20425
1.22448
1.22484
1.22876
1.24166
1.24004
1.23354
1.22292
1.19863
1.17851
1.17838
1.18675
1.18681
1.18079
1.18469
1.18329
1.1815
1.1863
1.18711
1.19038
1.19328
1.19397
1.19398
1.19226
1.19151
1.19045
1.19299
1.19429
1.19695
1.19669
1.19531
1.19342
1.19183
1.19096
1.18997
1.18946
1.188
1.18615
1.18392
1.18047
1.17777
1.17594
1.17521
1.17577
1.1761
1.1747
1.17186
1.16805
1.16418
1.16078
1.1581
1.15589
1.15483
1.15402
1.15284
1.15422
1.15318
1.15434
1.15421
1.15562
1.15734
1.1586
1.15959
1.16065
1.15868
1.15567
1.15198
1.15052
1.14758
1.14593
1.14298
1.13917
1.14008
1.13206
1.12886
1.13739
1.13661
1.13443
1.14156
1.13752
1.13042
1.1308
1.13547
1.13119
1.12928
1.13009
1.14383
1.1493
1.14383
1.13542
1.14301
1.15811
1.16505
1.16195
1.14847
1.13668
1.13541
1.14235
1.14618
1.15974
1.18537
1.19874
1.19815
1.19649
1.20241
1.21546
1.22117
1.21126
1.22023
1.24601
1.26276
1.23515
1.2322
1.2556
1.22826
1.22638
1.20898
1.20877
1.2064
1.19583
1.20246
1.18458
1.22626
1.21082
1.2097
1.21253
1.18614
1.18801
1.19243
1.18297
1.18311
1.20732
1.21417
1.22898
1.23728
1.26167
1.27248
1.22283
1.21079
1.22071
1.19158
1.16318
1.19222
1.18365
1.1843
1.18968
1.18727
1.17611
1.19568
1.19583
1.18452
1.14101
1.12703
1.26173
1.23252
1.15889
1.32092
1.41748
1.43241
1.55892
1.48393
1.49409
1.41895
1.40761
1.48912
1.56355
1.43317
1.25119
1.28736
1.28511
1.34432
1.38311
1.39633
1.45831
1.53984
1.50649
1.48797
1.42032
1.40129
1.18113
1.19914
1.2184
1.21818
1.21919
1.23092
1.22613
1.21432
1.20269
1.1903
1.17465
1.1748
1.18012
1.17835
1.1787
1.18695
1.18899
1.18826
1.19238
1.19026
1.18929
1.18992
1.18688
1.18596
1.18361
1.18378
1.18397
1.18628
1.18839
1.19129
1.19228
1.1917
1.18992
1.18858
1.18792
1.18741
1.18731
1.18627
1.18481
1.18233
1.1793
1.17746
1.17603
1.17503
1.17451
1.17304
1.17027
1.16708
1.1629
1.15931
1.15709
1.15635
1.15589
1.15497
1.15618
1.15339
1.15069
1.14793
1.14612
1.14693
1.14706
1.14924
1.15115
1.15343
1.15762
1.15666
1.15352
1.14654
1.14188
1.13778
1.13687
1.13979
1.13539
1.13636
1.14208
1.13323
1.13174
1.13117
1.12764
1.13001
1.13761
1.13002
1.13036
1.13702
1.13671
1.13313
1.1278
1.13814
1.14774
1.1408
1.13242
1.14136
1.15921
1.16308
1.1565
1.13928
1.13065
1.13418
1.14311
1.1576
1.17647
1.19447
1.1981
1.20183
1.20625
1.21036
1.21795
1.22445
1.21465
1.21657
1.23432
1.26366
1.23619
1.22625
1.25165
1.23313
1.2255
1.2082
1.21095
1.2085
1.2043
1.2066
1.18473
1.20568
1.19338
1.23719
1.25056
1.22314
1.19628
1.18611
1.16876
1.18349
1.20369
1.20213
1.20429
1.22685
1.25018
1.25808
1.22535
1.21444
1.21246
1.2123
1.16683
1.18748
1.18612
1.17801
1.1788
1.19069
1.17289
1.18484
1.19285
1.19628
1.16985
1.11326
1.2136
1.24319
1.16301
1.25161
1.38522
1.43494
1.47123
1.46599
1.60173
1.42249
1.42661
1.50408
1.56468
1.42288
1.25682
1.29936
1.28695
1.36217
1.39755
1.41811
1.46791
1.53914
1.50326
1.48679
1.41998
1.42053
1.17747
1.19348
1.21377
1.21421
1.2065
1.21551
1.21407
1.20818
1.19487
1.17999
1.17452
1.17594
1.18258
1.17733
1.17607
1.181
1.18068
1.17999
1.18485
1.18738
1.18844
1.19079
1.18941
1.18928
1.18803
1.18743
1.18753
1.1881
1.18874
1.19044
1.19065
1.18921
1.1876
1.18605
1.18642
1.18765
1.1892
1.18972
1.18893
1.18653
1.18476
1.1821
1.17921
1.177
1.1739
1.1712
1.16864
1.16484
1.16063
1.15847
1.1564
1.15337
1.15308
1.15198
1.15449
1.15811
1.15882
1.15763
1.15408
1.15137
1.1493
1.14636
1.1471
1.14801
1.15359
1.15883
1.15972
1.15661
1.15058
1.14732
1.13858
1.13532
1.13699
1.12944
1.13064
1.13118
1.13148
1.13508
1.13305
1.1247
1.13388
1.12378
1.12603
1.13065
1.13432
1.13152
1.12291
1.13273
1.14898
1.14162
1.13369
1.13699
1.15481
1.15878
1.15278
1.13815
1.13345
1.13824
1.14208
1.15937
1.18457
1.20097
1.19899
1.19927
1.20314
1.20995
1.21814
1.22484
1.21621
1.21804
1.2241
1.26435
1.24044
1.22601
1.24586
1.24286
1.21786
1.20997
1.21267
1.21161
1.21144
1.20789
1.19365
1.20263
1.20266
1.21735
1.20298
1.18323
1.18588
1.19677
1.19096
1.19286
1.21187
1.22319
1.23954
1.26646
1.28823
1.2965
1.25794
1.23111
1.18903
1.20126
1.16615
1.18695
1.19232
1.18069
1.16372
1.18398
1.17234
1.17215
1.18345
1.19089
1.18509
1.12129
1.17537
1.23856
1.18177
1.19312
1.3461
1.43028
1.42331
1.47146
1.62876
1.39888
1.44393
1.55217
1.53883
1.36148
1.22147
1.34046
1.3153
1.38377
1.41546
1.4291
1.48022
1.54449
1.50582
1.47938
1.4167
1.44541
1.17296
1.18529
1.20494
1.21147
1.20001
1.20382
1.20059
1.19283
1.19242
1.18068
1.16844
1.17023
1.17625
1.17671
1.17533
1.18267
1.18412
1.18329
1.18615
1.1836
1.18174
1.18386
1.18136
1.18118
1.18111
1.1809
1.18193
1.18431
1.18646
1.18841
1.18926
1.18814
1.18607
1.18426
1.18315
1.18285
1.18439
1.18543
1.18671
1.18574
1.18266
1.17943
1.17613
1.17241
1.16998
1.16785
1.16479
1.16268
1.1601
1.15665
1.15617
1.15614
1.15482
1.1526
1.15248
1.15474
1.15581
1.15136
1.14809
1.14779
1.15439
1.15405
1.15004
1.14738
1.14536
1.15076
1.15074
1.15405
1.14844
1.14473
1.14573
1.13689
1.13597
1.13654
1.13386
1.13231
1.1256
1.12717
1.13241
1.12434
1.1328
1.12569
1.12815
1.12613
1.13315
1.13275
1.12352
1.12901
1.14447
1.13637
1.13115
1.13218
1.15374
1.15952
1.15221
1.13551
1.13054
1.13621
1.14343
1.16198
1.18361
1.19975
1.20735
1.20995
1.21018
1.21314
1.22061
1.22401
1.22096
1.21531
1.21771
1.25597
1.25044
1.22637
1.23332
1.24936
1.21556
1.2227
1.2078
1.2097
1.21076
1.2103
1.20091
1.19651
1.18975
1.2342
1.24364
1.21251
1.18875
1.18338
1.18484
1.19248
1.20363
1.22202
1.23971
1.24283
1.27785
1.29989
1.27997
1.26307
1.19899
1.20412
1.16336
1.18974
1.20654
1.19776
1.16086
1.18035
1.17346
1.17048
1.17613
1.18648
1.18888
1.14418
1.15627
1.21798
1.20882
1.15868
1.3066
1.41072
1.39704
1.51759
1.56425
1.37548
1.48605
1.57811
1.48237
1.33066
1.26383
1.40266
1.35224
1.40971
1.43317
1.45198
1.49041
1.54273
1.50684
1.47628
1.42524
1.47305
1.16897
1.17885
1.19724
1.21001
1.19732
1.19343
1.19638
1.18726
1.18158
1.1827
1.17478
1.16934
1.17227
1.17468
1.17115
1.17494
1.17835
1.17679
1.18269
1.18732
1.18449
1.1873
1.1865
1.18477
1.18361
1.18183
1.18049
1.17958
1.17933
1.17968
1.18032
1.18
1.17884
1.17805
1.1768
1.17748
1.17742
1.17653
1.17543
1.17263
1.17234
1.17096
1.16816
1.16747
1.16496
1.16293
1.16323
1.16269
1.16017
1.15863
1.15662
1.15663
1.15653
1.15349
1.14922
1.14812
1.15308
1.15535
1.15611
1.15114
1.14869
1.15107
1.15063
1.15214
1.15049
1.15544
1.15747
1.15485
1.15696
1.1462
1.14015
1.13737
1.13069
1.12934
1.12578
1.13045
1.12954
1.12695
1.13002
1.1237
1.12707
1.12717
1.1258
1.11956
1.12732
1.13056
1.12565
1.12603
1.14276
1.13949
1.13319
1.13008
1.14996
1.15595
1.14918
1.13483
1.13016
1.13651
1.14486
1.16878
1.18237
1.1953
1.20776
1.21322
1.21705
1.21882
1.22287
1.22509
1.22407
1.2147
1.21116
1.24804
1.26083
1.22395
1.23424
1.2429
1.2242
1.23099
1.20652
1.19698
1.21547
1.20606
1.21141
1.19516
1.1917
1.23056
1.2106
1.19177
1.19208
1.20257
1.18319
1.17698
1.20426
1.24839
1.26838
1.26692
1.30678
1.32317
1.28149
1.24014
1.17701
1.19019
1.15502
1.19106
1.21504
1.19908
1.1511
1.16683
1.17186
1.17372
1.16502
1.17612
1.17485
1.16705
1.13977
1.18772
1.231
1.13236
1.24769
1.36261
1.35004
1.54533
1.50282
1.36859
1.50514
1.58926
1.42944
1.29451
1.27605
1.42279
1.36418
1.42677
1.44659
1.48146
1.51638
1.54416
1.50407
1.47315
1.43821
1.48601
1.1659
1.17478
1.19035
1.2045
1.19542
1.18513
1.18644
1.18303
1.17529
1.17261
1.17348
1.16787
1.16838
1.17214
1.17241
1.17398
1.17817
1.17698
1.17358
1.17701
1.17643
1.17717
1.17937
1.17996
1.18153
1.18234
1.18298
1.18308
1.18333
1.18324
1.1833
1.18179
1.18057
1.17993
1.17747
1.17686
1.17836
1.17641
1.1736
1.17337
1.16959
1.16619
1.16435
1.16219
1.16099
1.16207
1.15971
1.16065
1.16057
1.15984
1.15659
1.15472
1.15622
1.15684
1.15797
1.1541
1.14678
1.13928
1.13834
1.14395
1.1502
1.15194
1.15129
1.14683
1.14873
1.1465
1.15428
1.15293
1.15048
1.14814
1.13986
1.13754
1.13162
1.13322
1.12845
1.12449
1.12572
1.1231
1.127
1.12502
1.12064
1.13001
1.12701
1.12041
1.12312
1.12895
1.12588
1.11709
1.13219
1.13551
1.13022
1.12521
1.14267
1.15274
1.14683
1.13171
1.12605
1.13398
1.14479
1.17316
1.18829
1.19978
1.21197
1.21361
1.21178
1.2198
1.22656
1.2226
1.21848
1.2183
1.20504
1.23844
1.26795
1.22817
1.23988
1.23098
1.23309
1.23486
1.20494
1.1864
1.21318
1.21506
1.21223
1.18697
1.18762
1.23928
1.22011
1.1894
1.18014
1.18931
1.19358
1.18435
1.22655
1.27297
1.27188
1.24765
1.2843
1.32267
1.29654
1.24198
1.18116
1.18909
1.15917
1.18282
1.20548
1.18757
1.15489
1.16188
1.18141
1.17495
1.15551
1.15936
1.16567
1.18614
1.12696
1.17095
1.23038
1.14105
1.22972
1.31432
1.29695
1.54884
1.47164
1.36317
1.51207
1.58479
1.37536
1.27372
1.33529
1.47152
1.39051
1.47207
1.47752
1.50113
1.53084
1.54095
1.50541
1.47692
1.44492
1.47393
1.16393
1.1732
1.18413
1.19869
1.20235
1.18924
1.18137
1.1798
1.17783
1.1722
1.17102
1.16822
1.16502
1.16498
1.1663
1.16791
1.17261
1.17989
1.18131
1.18145
1.18127
1.17875
1.17706
1.17443
1.17305
1.17194
1.17183
1.17191
1.17277
1.17342
1.17511
1.17592
1.17636
1.17556
1.17417
1.17346
1.1717
1.17201
1.17136
1.16882
1.16697
1.16578
1.16465
1.16238
1.15708
1.16002
1.15829
1.15644
1.1544
1.15086
1.15239
1.15202
1.15038
1.14503
1.14343
1.14654
1.14978
1.15244
1.15495
1.15343
1.15076
1.14368
1.14481
1.14436
1.14929
1.15335
1.15232
1.15021
1.14256
1.1368
1.12702
1.127
1.125
1.1255
1.129
1.1238
1.12765
1.12387
1.12342
1.12884
1.1192
1.12296
1.12188
1.12083
1.11946
1.1279
1.12741
1.11649
1.131
1.1384
1.13059
1.12284