/*--------------------------------*- C++ -*----------------------------------*\
| =========                 |                                                 |
| \\      /  F ield         | OpenFOAM: The Open Source CFD Toolbox           |
|  \\    /   O peration     | Version:  dev                                   |
|   \\  /    A nd           | Web:      http://www.openfoam.org               |
|    \\/     M anipulation  |                                                 |
\*---------------------------------------------------------------------------*/
FoamFile
{
    version     2.0;
    format      ascii;
    class       volVectorField;
    object      U;
    location    "9.16";
}
// * * * * * * * * * * * * * * * * * * * * * * * * * * * * * * * * * * * * * //

dimensions      [0 1 -1 0 0 0 0];

internalField   nonuniform List<vector> 
12225
(
(7.68417 0.537745 0)
(6.96619 0.300231 0)
(6.8754 0.124934 0)
(8.08603 0.0815101 0)
(8.54435 0.092304 0)
(10.3654 0.0793206 0)
(10.2779 0.12528 0)
(12.4499 0.0533604 0)
(11.5367 0.157055 0)
(14.2076 -0.00725938 0)
(12.3636 0.247478 0)
(15.7839 -0.0520773 0)
(13.467 0.22894 0)
(16.604 0.0102597 0)
(17.8557 -0.394761 0)
(15.5318 2.31818 0)
(25.0932 -5.4461 0)
(18.7382 3.00476 0)
(10.5606 1.23839 0)
(12.1898 1.13904 0)
(11.4662 0.736564 0)
(13.4281 0.493215 0)
(12.0386 0.371005 0)
(15.4523 0.326154 0)
(12.7875 0.290064 0)
(17.9245 0.231981 0)
(12.9621 0.263972 0)
(20.8977 0.167791 0)
(12.6101 0.171709 0)
(24.5723 -0.235472 0)
(14.1894 0.652246 0)
(27.3865 -2.37851 0)
(20.3107 2.05565 0)
(30.3667 -4.08703 0)
(26.3601 -0.922353 0)
(26.9648 -3.48906 0)
(10.1695 1.24243 0)
(14.355 1.44557 0)
(13.102 1.1034 0)
(17.2709 0.892425 0)
(14.1817 0.722781 0)
(19.7287 0.750617 0)
(14.5299 0.482124 0)
(22.3739 0.720205 0)
(14.0467 0.239973 0)
(25.253 0.462341 0)
(15.095 0.175215 0)
(27.3019 -0.794723 0)
(18.8705 0.680713 0)
(28.4013 -2.83975 0)
(22.5144 0.848597 0)
(30.4556 -3.00964 0)
(25.7918 0.38428 0)
(31.2768 -18.6605 0)
(8.64694 1.2959 0)
(16.0458 1.63158 0)
(12.7091 1.31434 0)
(19.7535 1.23556 0)
(14.963 0.968263 0)
(22.6526 1.13083 0)
(16.5371 0.714173 0)
(25.0625 1.00555 0)
(18.2646 0.631221 0)
(26.715 0.0987423 0)
(20.638 0.789561 0)
(27.7878 -1.45807 0)
(22.2356 1.22759 0)
(28.861 -3.31818 0)
(22.8843 1.45267 0)
(31.3094 -4.8146 0)
(24.3697 -0.532792 0)
(27.1827 -10.7356 0)
(8.10894 1.49655 0)
(15.5453 1.55127 0)
(12.9715 1.50115 0)
(19.1057 1.32143 0)
(16.467 1.28535 0)
(21.9312 1.14853 0)
(19.2653 1.13544 0)
(24.0045 0.793014 0)
(21.9223 1.11429 0)
(25.3832 -0.121633 0)
(23.6546 1.15762 0)
(26.4842 -1.28442 0)
(24.3683 1.43674 0)
(27.6114 -2.83772 0)
(24.2211 1.56305 0)
(28.3951 -6.10552 0)
(26.9392 4.46994 0)
(26.2344 -17.5918 0)
(9.61072 1.97179 0)
(13.1272 1.47021 0)
(14.0328 1.78267 0)
(16.634 1.26577 0)
(17.6205 1.63144 0)
(19.4967 1.09812 0)
(20.241 1.49794 0)
(21.6352 0.635812 0)
(22.4496 1.45996 0)
(23.2198 -0.144623 0)
(23.9189 1.47425 0)
(24.767 -1.30186 0)
(24.8736 1.46474 0)
(25.9915 -2.80278 0)
(26.0617 1.00642 0)
(26.0359 -6.00327 0)
(28.6888 3.54357 0)
(29.0323 -13.0554 0)
(10.948 2.10841 0)
(12.5478 1.45094 0)
(14.9978 2.25832 0)
(15.6312 1.20638 0)
(18.1647 2.1117 0)
(18.4274 1.00191 0)
(20.8001 2.1286 0)
(20.8329 0.441752 0)
(22.7965 2.20469 0)
(22.7862 -0.435829 0)
(24.2982 2.03974 0)
(24.5843 -1.61015 0)
(25.5567 1.88927 0)
(26.048 -2.88867 0)
(26.8893 1.40316 0)
(26.5791 -5.30116 0)
(27.5438 0.044009 0)
(27.898 -8.24237 0)
(10.8653 2.49324 0)
(12.1049 1.59133 0)
(14.9185 2.68123 0)
(15.6922 1.32859 0)
(18.1214 2.44264 0)
(18.6188 1.03594 0)
(20.8413 2.25281 0)
(21.0676 0.591555 0)
(22.7765 2.08989 0)
(23.0344 -0.0442453 0)
(24.1854 1.63798 0)
(24.7574 -0.929616 0)
(25.1333 1.14496 0)
(26.0984 -2.02849 0)
(25.8654 0.0617589 0)
(26.7091 -3.83741 0)
(25.4129 -1.10601 0)
(26.1369 -4.53982 0)
(10.9199 2.56464 0)
(12.2594 1.57286 0)
(14.979 2.9261 0)
(15.8953 1.33758 0)
(18.1113 2.72491 0)
(18.6748 1.00995 0)
(20.6074 2.70156 0)
(20.9587 0.578024 0)
(22.6085 2.56847 0)
(22.8172 -0.125563 0)
(24.1323 1.93943 0)
(24.3359 -0.999446 0)
(24.9615 1.21079 0)
(25.4119 -2.01735 0)
(25.3538 0.0762023 0)
(25.4907 -3.30467 0)
(24.8984 -1.40747 0)
(25.1946 -4.29268 0)
(10.8955 2.90929 0)
(12.3818 1.82354 0)
(14.7127 3.13761 0)
(15.9318 1.67936 0)
(17.8834 2.92824 0)
(18.8454 1.38364 0)
(20.5072 2.66765 0)
(21.2082 1.00442 0)
(22.4743 2.28922 0)
(23.0966 0.489486 0)
(23.8663 1.60681 0)
(24.4131 -0.188176 0)
(24.5458 0.718376 0)
(25.1957 -0.94571 0)
(24.8329 -0.537938 0)
(25.177 -1.86794 0)
(24.5707 -1.85303 0)
(24.3724 -2.45206 0)
(10.9564 3.02799 0)
(12.3698 2.10435 0)
(14.5367 3.25316 0)
(15.7473 1.90057 0)
(17.6637 2.97211 0)
(18.6249 1.56553 0)
(20.1021 2.85721 0)
(20.8568 1.25851 0)
(21.9608 2.51271 0)
(22.6225 0.653342 0)
(23.3613 1.78697 0)
(23.9652 -0.0291175 0)
(24.199 0.834598 0)
(24.7505 -0.720657 0)
(24.6187 -0.366889 0)
(24.7688 -1.39185 0)
(24.4727 -1.62302 0)
(24.1849 -2.06779 0)
(10.6835 3.37796 0)
(12.4613 2.49974 0)
(14.4398 3.28367 0)
(15.8298 2.35199 0)
(17.4375 3.08902 0)
(18.4912 2.10479 0)
(19.7842 2.8086 0)
(20.6755 1.7525 0)
(21.6604 2.32143 0)
(22.3477 1.21867 0)
(22.9684 1.58983 0)
(23.4706 0.554669 0)
(23.6917 0.735598 0)
(24.1269 -0.12933 0)
(24.0925 -0.233053 0)
(24.1427 -0.798823 0)
(24.0161 -1.21865 0)
(23.7516 -1.46838 0)
(11.1044 3.51398 0)
(12.8472 3.03675 0)
(14.4339 3.4133 0)
(15.7635 2.81022 0)
(17.2028 3.16887 0)
(18.3142 2.54541 0)
(19.4818 2.92153 0)
(20.3778 2.25665 0)
(21.2521 2.47499 0)
(21.9522 1.69635 0)
(22.5308 1.75529 0)
(23.0258 1.00065 0)
(23.2948 0.879496 0)
(23.6139 0.303455 0)
(23.6139 -0.0113947 0)
(23.6221 -0.35427 0)
(23.5267 -0.735902 0)
(23.2834 -0.975114 0)
(10.6173 3.55955 0)
(12.596 3.43882 0)
(14.2033 3.60701 0)
(15.5579 3.36027 0)
(16.8315 3.44858 0)
(18.0018 3.10743 0)
(19.1419 3.08022 0)
(20.1667 2.66665 0)
(21.0583 2.53965 0)
(21.7732 2.08833 0)
(22.306 1.88289 0)
(22.7295 1.43175 0)
(22.9738 1.1903 0)
(23.1433 0.784902 0)
(23.1795 0.463766 0)
(23.1665 0.161197 0)
(23.0456 -0.125494 0)
(22.8754 -0.403073 0)
(10.8006 3.78329 0)
(12.5548 3.85217 0)
(14.0765 3.9053 0)
(15.4902 3.7589 0)
(16.7728 3.64263 0)
(17.9528 3.36369 0)
(19.0122 3.18324 0)
(19.9277 2.93884 0)
(20.7164 2.74525 0)
(21.3516 2.47781 0)
(21.8761 2.21688 0)
(22.2709 1.90457 0)
(22.5717 1.57472 0)
(22.7737 1.23475 0)
(22.8872 0.935048 0)
(22.9094 0.645517 0)
(22.8597 0.393841 0)
(22.7551 0.143197 0)
(10.783 4.12598 0)
(12.5144 4.17993 0)
(14.0655 4.11886 0)
(15.4982 4.04845 0)
(16.7353 3.96258 0)
(17.8489 3.77325 0)
(18.8134 3.5868 0)
(19.657 3.3479 0)
(20.4124 3.09327 0)
(21.0373 2.81539 0)
(21.5649 2.50764 0)
(21.9383 2.20311 0)
(22.224 1.88995 0)
(22.3623 1.59939 0)
(22.4171 1.31886 0)
(22.3905 1.08985 0)
(22.3071 0.902531 0)
(22.1632 0.689914 0)
(10.7389 4.22451 0)
(12.3777 4.38838 0)
(13.7824 4.32334 0)
(15.0599 4.21363 0)
(16.2427 4.08286 0)
(17.3684 3.90871 0)
(18.402 3.71293 0)
(19.344 3.47714 0)
(20.1449 3.24504 0)
(20.8057 3.00548 0)
(21.3107 2.77676 0)
(21.6649 2.56689 0)
(21.9077 2.35912 0)
(22.0342 2.14903 0)
(22.0887 1.94367 0)
(22.0593 1.73255 0)
(22.0204 1.52608 0)
(21.9143 1.32689 0)
(10.4487 4.26385 0)
(12.0175 4.44716 0)
(13.4782 4.38702 0)
(14.7977 4.32883 0)
(15.9797 4.17788 0)
(17.0525 3.9331 0)
(18.0329 3.64414 0)
(18.8956 3.39105 0)
(19.6231 3.20856 0)
(20.204 3.0487 0)
(20.6408 2.91464 0)
(20.9877 2.74943 0)
(21.2236 2.57628 0)
(21.4176 2.37388 0)
(21.5467 2.15797 0)
(21.6199 1.94651 0)
(21.6425 1.77055 0)
(21.6254 1.60045 0)
(10.583 4.29303 0)
(12.0539 4.25958 0)
(13.3384 4.13108 0)
(14.608 4.06103 0)
(15.8125 3.92309 0)
(16.9102 3.70046 0)
(17.8502 3.47115 0)
(18.6227 3.29367 0)
(19.2719 3.16414 0)
(19.7943 3.06634 0)
(20.2395 2.9585 0)
(20.6081 2.8075 0)
(20.892 2.62469 0)
(21.1118 2.41123 0)
(21.2489 2.2 0)
(21.3537 1.99982 0)
(21.3761 1.81646 0)
(21.3657 1.65321 0)
(10.7011 4.00858 0)
(12.1693 4.12364 0)
(13.4796 3.90297 0)
(14.7444 3.7381 0)
(15.9121 3.57293 0)
(16.9324 3.40189 0)
(17.7822 3.25949 0)
(18.5063 3.10571 0)
(19.1222 2.97578 0)
(19.6451 2.85451 0)
(20.1161 2.71511 0)
(20.49 2.58168 0)
(20.7948 2.41366 0)
(21.02 2.2472 0)
(21.1563 2.07571 0)
(21.2398 1.91765 0)
(21.2506 1.78052 0)
(21.2348 1.65062 0)
(10.616 3.43898 0)
(12.1815 3.52076 0)
(13.4942 3.38717 0)
(14.6842 3.28616 0)
(15.8245 3.16526 0)
(16.861 3.06004 0)
(17.7794 2.93926 0)
(18.5548 2.81246 0)
(19.1909 2.68528 0)
(19.7123 2.56287 0)
(20.1313 2.44362 0)
(20.4637 2.31854 0)
(20.7237 2.18816 0)
(20.92 2.04518 0)
(21.0469 1.91318 0)
(21.1192 1.77267 0)
(21.1455 1.6471 0)
(21.1307 1.52917 0)
(10.7818 3.13534 0)
(12.2129 3.14896 0)
(13.5387 3.00856 0)
(14.7751 2.82238 0)
(15.8617 2.64366 0)
(16.8187 2.50792 0)
(17.6877 2.43422 0)
(18.4402 2.38327 0)
(19.1071 2.33045 0)
(19.6786 2.26276 0)
(20.1487 2.15935 0)
(20.5157 2.0487 0)
(20.7952 1.92042 0)
(20.9954 1.78792 0)
(21.1347 1.65122 0)
(21.1855 1.52964 0)
(21.2042 1.42092 0)
(21.1653 1.31431 0)
(10.6914 2.54264 0)
(12.2173 2.51171 0)
(13.6281 2.40859 0)
(14.8808 2.34382 0)
(15.9581 2.28524 0)
(16.8905 2.2086 0)
(17.6782 2.094 0)
(18.3647 1.98493 0)
(18.9779 1.88956 0)
(19.4858 1.81027 0)
(19.9457 1.73098 0)
(20.3213 1.64897 0)
(20.6339 1.57769 0)
(20.8724 1.49347 0)
(21.04 1.41222 0)
(21.1307 1.32973 0)
(21.1594 1.2476 0)
(21.1354 1.17797 0)
(10.4326 2.1206 0)
(11.9876 1.96922 0)
(13.3892 1.88488 0)
(14.7331 1.84565 0)
(15.9577 1.78861 0)
(16.9972 1.74948 0)
(17.8946 1.69366 0)
(18.6327 1.6507 0)
(19.2447 1.599 0)
(19.7415 1.51528 0)
(20.1454 1.41388 0)
(20.48 1.30693 0)
(20.748 1.19884 0)
(20.9439 1.11802 0)
(21.0817 1.04928 0)
(21.1486 1.00126 0)
(21.1698 0.959716 0)
(21.1439 0.919143 0)
(10.7864 1.62329 0)
(12.2513 1.37723 0)
(13.5934 1.27723 0)
(14.8956 1.27854 0)
(16.0608 1.29716 0)
(17.0817 1.28957 0)
(17.9782 1.25584 0)
(18.7512 1.22382 0)
(19.4076 1.1865 0)
(19.946 1.13463 0)
(20.3856 1.07447 0)
(20.7321 1.01203 0)
(21.0036 0.948414 0)
(21.2001 0.889829 0)
(21.3332 0.845499 0)
(21.3977 0.806257 0)
(21.4212 0.774267 0)
(21.3987 0.745578 0)
(10.5009 1.08504 0)
(12.294 0.979322 0)
(13.8112 0.904137 0)
(15.1216 0.914142 0)
(16.2117 0.896076 0)
(17.1625 0.870204 0)
(18.0376 0.844019 0)
(18.8136 0.83842 0)
(19.4903 0.846082 0)
(20.0358 0.808827 0)
(20.466 0.757495 0)
(20.7839 0.685476 0)
(21.0049 0.617814 0)
(21.1522 0.563668 0)
(21.2291 0.536771 0)
(21.2505 0.515769 0)
(21.2312 0.521049 0)
(21.1808 0.514268 0)
(10.6028 0.477516 0)
(12.3782 0.280701 0)
(13.9805 0.34696 0)
(15.3623 0.489282 0)
(16.4754 0.542934 0)
(17.3682 0.515854 0)
(18.1296 0.470903 0)
(18.7733 0.453302 0)
(19.3371 0.462976 0)
(19.7889 0.466669 0)
(20.1354 0.474205 0)
(20.3706 0.46015 0)
(20.508 0.439895 0)
(20.5717 0.422251 0)
(20.5725 0.404837 0)
(20.5346 0.390374 0)
(20.4677 0.385517 0)
(20.3901 0.372283 0)
(10.5618 0.126005 0)
(12.4984 -0.121888 0)
(13.9304 -0.00907679 0)
(15.083 0.148272 0)
(15.9733 0.213085 0)
(16.6342 0.233247 0)
(17.1185 0.244035 0)
(17.4661 0.266774 0)
(17.7528 0.291384 0)
(17.9676 0.30215 0)
(18.1471 0.307067 0)
(18.2621 0.293675 0)
(18.3168 0.279263 0)
(18.3204 0.270651 0)
(18.2752 0.25543 0)
(18.1871 0.252161 0)
(18.0801 0.245641 0)
(17.9418 0.243508 0)
(10.6304 -0.427792 0)
(11.8243 -0.631552 0)
(12.4396 -0.36329 0)
(12.8588 -0.11479 0)
(13.1782 0.036691 0)
(13.4658 0.136159 0)
(13.7332 0.196225 0)
(13.982 0.224191 0)
(14.2142 0.237238 0)
(14.4131 0.234607 0)
(14.5671 0.225154 0)
(14.6629 0.215342 0)
(14.7068 0.204484 0)
(14.7078 0.19588 0)
(14.6698 0.187557 0)
(14.5894 0.186217 0)
(14.5034 0.172007 0)
(14.3475 0.161083 0)
(9.02835 -0.362886 0)
(7.96198 -0.249008 0)
(7.41264 -0.0124343 0)
(7.48803 0.100839 0)
(7.92052 0.136332 0)
(8.50347 0.139873 0)
(9.09285 0.12958 0)
(9.62949 0.114689 0)
(10.0998 0.10564 0)
(10.4903 0.0962753 0)
(10.7986 0.0882123 0)
(11.0355 0.0857697 0)
(11.1985 0.0781202 0)
(11.3033 0.0768494 0)
(11.3557 0.0744999 0)
(11.3623 0.0728269 0)
(11.3373 0.061306 0)
(11.2399 0.0727041 0)
(-0.0941633 -0.439229 0)
(-0.194323 -0.512942 0)
(-0.23293 -0.553371 0)
(-0.223897 -0.583595 0)
(-0.172256 -0.599553 0)
(-0.103789 -0.599689 0)
(-0.0371884 -0.583467 1.15125e-17)
(0.0146705 -0.563023 -1.14219e-17)
(0.0416671 -0.532917 0)
(0.03911 -0.499159 -1.12555e-17)
(0.0112838 -0.466916 0)
(-0.0381797 -0.433638 0)
(-0.122564 -0.405345 0)
(-0.208282 -0.382212 1.0965e-17)
(-0.310081 -0.35118 0)
(-0.444793 -0.334311 0)
(-0.578886 -0.311665 -1.07641e-17)
(-0.717556 -0.27367 0)
(-0.89812 -0.237623 0)
(-1.1235 -0.21349 0)
(-1.35964 -0.184352 1.05272e-17)
(-1.58705 -0.158322 0)
(-1.84229 -0.144351 1.04014e-17)
(-2.14486 -0.150712 0)
(-2.46048 -0.188044 0)
(-2.75446 -0.189552 1.02521e-17)
(-3.12872 -0.111428 0)
(-3.58438 0.0386572 -1.01456e-17)
(-3.88218 0.136199 0)
(-3.90882 0.0841411 9.97765e-18)
(-3.74208 -0.144255 0)
(-3.56755 -0.579208 0)
(-3.53039 -1.16845 0)
(-3.662 -1.60232 0)
(-3.90443 -1.5096 0)
(-4.37476 -0.81004 -9.76094e-18)
(-5.32457 0.169106 0)
(-6.62881 0.83689 1.92421e-17)
(-8.00089 0.969024 0)
(-9.31867 0.906239 -1.88183e-17)
(-10.5098 0.821859 0)
(-11.595 0.729697 0)
(-12.5891 0.645797 1.8365e-17)
(-13.4594 0.574682 0)
(-14.2418 0.500433 1.80869e-17)
(-14.9398 0.439334 -1.79518e-17)
(-15.5458 0.382441 0)
(-16.0918 0.333431 -1.76869e-17)
(-16.5795 0.30107 -1.75562e-17)
(-16.9894 0.268958 0)
(-17.3647 0.226593 0)
(-17.7114 0.220075 0)
(-17.9801 0.21813 0)
(-18.2176 0.204099 0)
(-18.4303 0.185796 1.67904e-17)
(-18.5914 0.172601 0)
(-18.727 0.171779 -1.65437e-17)
(-18.8266 0.172925 0)
(-18.8924 0.16642 0)
(-18.9119 0.167075 1.61811e-17)
(-18.887 0.164416 0)
(-18.8168 0.163349 -1.59437e-17)
(-18.6989 0.14363 0)
(-18.5397 0.148178 0)
(-18.3523 0.150349 0)
(-18.1235 0.156801 1.54819e-17)
(-17.8452 0.163526 0)
(-17.5396 0.177247 0)
(-17.2088 0.19546 1.51408e-17)
(-16.8582 0.210073 0)
(-16.4841 0.219078 1.49148e-17)
(-16.1021 0.242324 0)
(-15.71 0.26972 0)
(-15.2819 0.278528 0)
(-14.8481 0.307671 -1.44685e-17)
(-14.4198 0.330877 0)
(-13.9769 0.349559 0)
(-13.5292 0.374644 -1.41365e-17)
(-13.0621 0.393901 -1.40262e-17)
(-12.5776 0.414266 0)
(-12.1018 0.449771 -1.37986e-17)
(-11.6554 0.487574 0)
(-11.2351 0.513227 -2.71506e-17)
(-10.8427 0.540199 0)
(-10.4765 0.550335 -2.67595e-17)
(-10.0756 0.551463 0)
(-9.57519 0.567776 2.64167e-17)
(-9.00214 0.592191 0)
(-8.41391 0.646361 0)
(-7.87788 0.679961 0)
(-7.51488 0.701293 -2.56304e-17)
(-7.18526 0.72672 0)
(-6.84196 0.726924 2.5234e-17)
(-6.499 0.721726 0)
(-6.12908 0.740296 -2.48426e-17)
(-5.741 0.760827 -2.46439e-17)
(-5.41538 0.758403 -2.44536e-17)
(-5.0238 0.745762 0)
(-4.57457 0.767126 0)
(-4.18201 0.732687 0)
(-3.91139 0.799368 0)
(-3.64361 0.958799 0)
(-3.3444 0.990194 0)
(-3.09988 0.934601 0)
(-2.95541 0.871909 0)
(-2.98664 0.953535 2.24719e-17)
(-2.91289 0.929247 2.22105e-17)
(-2.29421 0.66926 0)
(-1.1057 0.50816 0)
(0.354884 0.562663 0)
(1.60096 0.814428 2.18141e-17)
(2.2675 1.07713 0)
(2.47516 0.994926 0)
(2.17051 0.884525 0)
(1.2683 1.19106 0)
(0.218783 1.46748 -2.16535e-17)
(-0.629776 1.39674 0)
(-1.29751 1.18284 0)
(-2.18427 1.18386 2.10183e-17)
(-3.32845 1.27824 -2.09646e-17)
(-4.79017 1.54915 0)
(-6.64282 1.88676 -2.061e-17)
(-8.61653 1.80942 0)
(-9.66032 1.5059 2.00109e-17)
(-10.196 1.40506 0)
(-10.9903 1.54262 0)
(-10.8955 1.13351 0)
(-8.34053 0.351796 0)
(-7.53939 0.956898 0)
(-5.74536 0.816001 -3.77065e-17)
(-4.89639 0.960296 -3.75275e-17)
(-4.00921 1.14868 0)
(-3.92441 1.25521 0)
(-3.64258 1.23038 0)
(-3.51383 1.22589 3.67694e-17)
(-3.07132 1.22283 0)
(-2.65235 1.27865 0)
(-2.57548 1.40888 0)
(-2.92411 1.52203 3.61591e-17)
(-3.55906 1.66235 -3.59697e-17)
(-4.43505 1.78896 0)
(-5.5849 1.88248 0)
(-6.94165 1.92761 -3.54968e-17)
(-8.34977 1.87206 -3.5231e-17)
(-9.81064 1.73816 0)
(-11.2343 1.66357 0)
(-12.4776 1.70285 3.4142e-17)
(-13.5646 1.7778 -3.37632e-17)
(-14.4328 1.82481 0)
(-15.2438 1.9269 0)
(-16.0873 2.07001 -3.24487e-17)
(-16.7576 2.14304 0)
(-17.4703 2.2032 0)
(-17.5607 2.14628 -3.09804e-17)
(-17.6857 2.24061 0)
(-17.5408 2.44242 -3.03276e-17)
(-17.5217 2.51659 0)
(-17.384 2.39649 0)
(-16.3623 2.42611 0)
(-15.7197 2.36283 2.91761e-17)
(-14.092 2.38157 0)
(-11.8334 2.4168 0)
(-8.97493 2.42977 0)
(-9.45641 2.90254 0)
(-10.7605 3.26483 0)
(-10.5655 3.25048 0)
(-11.5916 3.02788 2.78121e-17)
(-7.71718 2.88547 2.75459e-17)
(-9.66189 3.05196 0)
(-6.95501 2.20387 0)
(-0.521303 2.06661 0)
(2.34541 2.62753 -2.70977e-17)
(3.25529 2.73147 0)
(5.89365 2.49296 5.38206e-17)
(8.027 2.56251 -5.37898e-17)
(10.2277 2.50646 -5.42402e-17)
(12.2907 2.57645 5.48367e-17)
(14.2421 2.79333 -5.54525e-17)
(15.4228 2.73842 5.58675e-17)
(15.9522 2.5123 0)
(-0.115782 -1.23974 0)
(-0.250757 -1.49464 0)
(-0.316739 -1.67022 -2.39155e-17)
(-0.280337 -1.82734 0)
(-0.169625 -1.92063 2.33686e-17)
(-0.0218408 -1.93049 2.31258e-17)
(0.117966 -1.88092 1.14407e-17)
(0.227626 -1.80632 1.13449e-17)
(0.307685 -1.70245 0)
(0.330386 -1.5937 1.1134e-17)
(0.319915 -1.51135 0)
(0.282205 -1.41839 0)
(0.223042 -1.32531 -2.16934e-17)
(0.16514 -1.28521 -1.07631e-17)
(0.100774 -1.17944 2.13444e-17)
(0.00738597 -1.12488 2.11775e-17)
(-0.0747876 -1.09001 1.0514e-17)
(-0.14136 -0.971607 0)
(-0.256217 -0.780952 0)
(-0.433215 -0.683344 0)
(-0.628207 -0.673452 1.02095e-17)
(-0.784137 -0.622314 0)
(-1.01939 -0.462575 -3.03106e-17)
(-1.36113 -0.283308 0)
(-1.72184 -0.176062 0)
(-1.98376 -0.0804793 -9.95828e-18)
(-2.07852 0.0835017 0)
(-2.1062 -0.121147 9.90411e-18)
(-2.13376 -0.856278 1.95201e-17)
(-2.39922 -1.68645 -9.69041e-18)
(-3.18615 -1.85973 0)
(-4.30922 -0.940773 0)
(-5.86976 0.415678 0)
(-7.91054 1.35788 1.95561e-17)
(-9.89454 1.83514 1.94381e-17)
(-11.4709 2.12207 9.66634e-18)
(-12.6305 2.32177 0)
(-13.5935 2.32989 -1.90634e-17)
(-14.5268 2.16595 0)
(-15.4038 1.98245 1.88094e-17)
(-16.1998 1.77552 0)
(-16.9349 1.55831 0)
(-17.591 1.35301 -1.84487e-17)
(-18.1748 1.15505 0)
(-18.6933 0.970974 -5.45919e-17)
(-19.134 0.801895 1.80761e-17)
(-19.5117 0.652433 0)
(-19.841 0.544182 1.78179e-17)
(-20.144 0.452 1.76877e-17)
(-20.3896 0.381321 0)
(-20.59 0.316225 0)
(-20.7573 0.27766 0)
(-20.8927 0.225341 0)
(-21.0024 0.175617 0)
(-21.0579 0.152178 -1.69162e-17)
(-21.0549 0.133684 -3.35731e-17)
(-21.0521 0.114154 1.66653e-17)
(-21.0219 0.103627 0)
(-20.9387 0.08848 -3.28312e-17)
(-20.8074 0.079983 1.62893e-17)
(-20.6501 0.0670737 0)
(-20.4621 0.0475858 1.60506e-17)
(-20.2013 0.0495442 0)
(-19.8929 0.0616231 0)
(-19.573 0.0717216 3.13985e-17)
(-19.2094 0.0846621 -1.55853e-17)
(-18.8107 0.11771 3.09423e-17)
(-18.4042 0.167523 -3.07178e-17)
(-17.9662 0.223909 -1.52469e-17)
(-17.5217 0.289236 0)
(-17.0286 0.338306 -1.50231e-17)
(-16.5381 0.394275 0)
(-16.0603 0.471786 0)
(-15.5386 0.533041 0)
(-15.0052 0.612058 -1.45927e-17)
(-14.4948 0.67837 0)
(-13.9645 0.743351 -2.87518e-17)
(-13.4326 0.807917 4.27909e-17)
(-12.8876 0.849195 1.41532e-17)
(-12.3221 0.89453 0)
(-11.7306 1.01142 1.39023e-17)
(-11.1292 1.15877 0)
(-10.5092 1.27549 2.7204e-17)
(-9.93948 1.43645 0)
(-9.47012 1.51913 2.66941e-17)
(-9.02397 1.45536 -5.31891e-17)
(-8.52431 1.37985 -2.65075e-17)
(-7.88868 1.33336 0)
(-7.11272 1.4549 0)
(-6.27567 1.70584 0)
(-5.64693 1.96963 2.5632e-17)
(-5.1824 2.06081 0)
(-4.76369 2.08636 -2.50512e-17)
(-4.31893 2.16847 0)
(-3.84743 2.28327 7.37975e-17)
(-3.46088 2.32497 2.43538e-17)
(-3.19636 2.33873 2.41377e-17)
(-2.77762 2.28253 0)
(-2.45959 2.41444 0)
(-2.19531 2.6177 0)
(-1.96055 2.68239 0)
(-1.75532 2.54352 0)
(-1.58123 2.51968 4.55876e-17)
(-1.44129 2.78318 4.54375e-17)
(-1.27978 3.02222 0)
(-1.37051 3.01921 -2.18257e-17)
(-1.32607 2.58412 -2.14851e-17)
(-0.900295 1.68799 0)
(-0.255926 0.982584 -4.28415e-17)
(0.939031 0.918665 0)
(2.08721 1.35851 2.12311e-17)
(3.02863 2.07097 0)
(3.0331 2.9899 0)
(1.50742 3.97799 -4.35288e-17)
(-0.149364 4.19148 0)
(-1.21288 3.84406 2.09332e-17)
(-2.06702 3.71642 0)
(-3.16653 3.96196 0)
(-4.48518 4.35005 2.05124e-17)
(-6.00996 4.63775 2.03203e-17)
(-7.54973 4.91184 0)
(-8.97979 4.90218 -1.97254e-17)
(-10.4892 4.69073 0)
(-11.1301 4.23729 1.95318e-17)
(-10.7148 3.43327 3.89348e-17)
(-10.8573 3.38803 0)
(-10.6851 2.04791 0)
(-7.47113 0.8136 0)
(-7.8774 2.2962 0)
(-4.36777 1.58898 3.81715e-17)
(-3.903 2.4796 1.11043e-16)
(-2.58785 2.83676 0)
(-2.42857 3.09701 0)
(-1.99878 3.0622 0)
(-1.79768 3.01141 -3.57881e-17)
(-1.09559 2.89242 0)
(-0.319254 3.13715 0)
(0.107353 3.47745 7.10922e-17)
(-0.104326 3.84583 3.55161e-17)
(-0.705378 4.07689 3.53012e-17)
(-1.50436 4.27192 0)
(-2.34791 4.53767 0)
(-3.11996 4.78294 3.42734e-17)
(-3.66232 5.0003 -3.38423e-17)
(-4.61759 5.38465 0)
(-6.14655 5.62875 0)
(-7.87228 5.44087 -3.31889e-17)
(-9.70517 5.29065 9.82798e-17)
(-11.1268 5.45583 0)
(-12.2189 5.54443 0)
(-13.3244 5.59647 3.08645e-17)
(-14.1033 5.65083 0)
(-14.9206 5.65571 5.84791e-17)
(-14.7196 5.37428 -2.85494e-17)
(-14.4543 5.70922 0)
(-13.9213 6.14353 2.75427e-17)
(-13.6439 6.44922 5.51716e-17)
(-14.113 6.23808 0)
(-12.9786 6.29526 0)
(-12.2628 6.4208 -2.62479e-17)
(-11.2667 5.84476 0)
(-9.67592 5.92759 5.25168e-17)
(-9.81575 6.62986 0)
(-13.7767 9.18666 0)
(-14.9541 8.57703 0)
(-13.5476 8.38256 0)
(-13.6443 6.9806 -2.50751e-17)
(-8.29482 6.95932 -2.55149e-17)
(-11.2855 7.4733 0)
(-6.44954 4.36728 0)
(-1.2331 4.51362 0)
(3.65341 6.36908 2.44685e-17)
(4.554 6.36655 0)
(8.44412 5.82028 -4.79818e-17)
(10.5885 6.15081 4.83484e-17)
(13.6572 6.2397 4.85812e-17)
(15.9119 6.43267 5.08484e-17)
(17.9891 6.43652 5.20553e-17)
(20.8115 7.2287 5.28704e-17)
(22.6481 7.74411 0)
(-0.129095 -1.93503 0)
(-0.293271 -2.36445 0)
(-0.363457 -2.77406 2.43248e-17)
(-0.286883 -3.17078 2.40813e-17)
(-0.116962 -3.413 -2.38745e-17)
(0.0876846 -3.43742 -2.36272e-17)
(0.278464 -3.31377 -2.45471e-20)
(0.408955 -3.15049 0)
(0.492387 -2.91198 0)
(0.510509 -2.66257 0)
(0.474969 -2.50689 0)
(0.401506 -2.35932 0)
(0.320219 -2.21762 6.59331e-17)
(0.216787 -2.16719 0)
(0.166608 -2.02082 -2.15124e-17)
(0.0758211 -1.91878 -2.13137e-17)
(-0.0221749 -1.89511 0)
(-0.0489129 -1.79068 0)
(-0.0912225 -1.46032 0)
(-0.226939 -1.19659 0)
(-0.453482 -1.16039 -2.03754e-17)
(-0.628091 -1.0632 0)
(-0.759252 -0.733828 2.01358e-17)
(-0.870761 -0.515879 0)
(-1.0853 -0.682287 0)
(-1.42829 -1.08001 0)
(-2.01254 -1.31086 3.93889e-17)
(-2.91018 -1.13921 0)
(-4.2233 -0.178052 -1.98719e-17)
(-6.27421 1.19015 4.00623e-17)
(-8.58678 2.16988 0)
(-10.3565 2.6843 0)
(-11.7191 2.95537 0)
(-12.878 3.04785 -1.97345e-17)
(-13.9074 3.07048 -1.96261e-17)
(-14.8365 3.10547 0)
(-15.5946 3.11313 0)
(-16.2172 2.9882 3.84768e-17)
(-16.7744 2.79262 3.82013e-17)
(-17.261 2.54398 -3.79325e-17)
(-17.6813 2.26773 0)
(-18.0662 1.97676 0)
(-18.4128 1.70226 0)
(-18.7428 1.4364 0)
(-19.0481 1.19903 3.65224e-17)
(-19.3318 0.978612 3.62121e-17)
(-19.5652 0.79929 -3.59264e-17)
(-19.7956 0.642523 0)
(-20.0035 0.514257 0)
(-20.1673 0.41147 0)
(-20.3048 0.325364 0)
(-20.4338 0.256321 3.45395e-17)
(-20.5423 0.197342 0)
(-20.5895 0.145634 0)
(-20.6179 0.122942 3.37225e-17)
(-20.6438 0.106771 3.34682e-17)
(-20.6352 0.080684 0)
(-20.5877 0.0759936 -6.58725e-17)
(-20.4932 0.0791711 3.26954e-17)
(-20.3599 0.0383246 -3.24336e-17)
(-20.2343 0.00488462 0)
(-20.0402 -0.00964573 0)
(-19.7649 0.0211775 0)
(-19.4652 0.0269284 0)
(-19.1329 0.0476525 -3.12128e-17)
(-18.7759 0.0806043 -6.1947e-17)
(-18.3842 0.154552 -3.07525e-17)
(-17.9992 0.237055 3.05382e-17)
(-17.5518 0.312363 0)
(-17.1203 0.42741 -6.02339e-17)
(-16.6423 0.528553 -5.98105e-17)
(-16.1513 0.629474 -5.94072e-17)
(-15.652 0.754988 5.90222e-17)
(-15.152 0.88996 0)
(-14.6238 1.02529 8.74988e-17)
(-14.0848 1.15916 0)
(-13.5485 1.29631 -2.88302e-17)
(-13.0442 1.4095 -2.86436e-17)
(-12.52 1.48969 0)
(-12.0321 1.54075 0)
(-11.5373 1.63896 -5.62123e-17)
(-11.0159 1.81188 0)
(-10.4268 1.92391 -5.51507e-17)
(-9.78698 2.21701 0)
(-9.12991 2.48725 5.39169e-17)
(-8.53954 2.51019 1.07241e-16)
(-8.03983 2.41071 0)
(-7.51369 2.2404 0)
(-6.86875 2.21408 0)
(-6.01048 2.57318 5.31146e-17)
(-5.20753 3.05059 0)
(-4.66941 3.32966 5.11651e-17)
(-4.26747 3.41393 0)
(-3.87037 3.43716 0)
(-3.19497 3.58292 -9.94131e-17)
(-2.47752 3.75643 0)
(-2.08781 3.85494 -4.83235e-17)
(-1.67252 3.84185 0)
(-1.28851 4.04 -4.80016e-17)
(-0.799431 4.12658 0)
(-0.37597 4.25151 0)
(0.276771 4.54446 0)
(0.789592 4.6697 -1.37533e-16)
(0.959321 4.60658 -4.5051e-17)
(1.14271 4.8577 0)
(0.980708 5.02058 0)
(0.943718 4.59989 0)
(0.949791 3.68739 0)
(0.64032 2.70445 4.38831e-17)
(0.817708 2.34794 -8.71394e-17)
(1.19166 2.88968 -4.31106e-17)
(1.30197 4.24475 8.53891e-17)
(0.913346 5.93913 8.5349e-17)
(-0.0502004 6.95781 4.26059e-17)
(-1.17299 7.09263 0)
(-2.46807 6.9254 8.40633e-17)
(-3.56317 6.64269 0)
(-4.57059 6.76454 -8.09768e-17)
(-5.7339 7.201 -4.06256e-17)
(-7.3918 7.5788 0)
(-8.61945 7.83582 7.90867e-17)
(-9.89888 7.9875 3.91195e-17)
(-11.174 7.38484 0)
(-10.9686 6.24251 3.91918e-17)
(-8.81379 4.77802 -1.17358e-16)
(-8.48571 5.87487 0)
(-7.80427 4.14805 0)
(-6.09912 2.17375 0)
(-6.03179 3.88654 0)
(-3.1477 2.74929 -8.17254e-17)
(-2.71015 4.33564 -7.88279e-17)
(-1.08478 5.10519 0)
(-1.00661 5.54442 0)
(-0.811795 5.52691 0)
(-0.785551 5.3381 0)
(-0.0402606 4.88682 0)
(1.01088 5.18988 0)
(1.68561 5.78863 -7.25749e-17)
(1.65475 6.71062 7.60228e-20)
(0.930748 7.48505 0)
(-0.307538 7.92027 0)
(-1.63688 7.87478 -7.19694e-17)
(-2.8583 7.7759 0)
(-3.36504 7.93649 6.85001e-17)
(-3.63507 8.38362 6.70524e-17)
(-4.06402 8.80057 0)
(-4.82748 9.19021 0)
(-6.38456 9.43819 -6.46628e-17)
(-8.10702 9.51474 -1.28e-16)
(-9.62297 9.48574 0)
(-10.9879 9.80222 0)
(-12.0233 10.0473 0)
(-13.422 9.86686 -5.80195e-17)
(-13.8876 9.16717 5.69613e-17)
(-13.7453 9.36367 0)
(-12.9762 9.9873 1.07246e-16)
(-12.2208 10.6025 5.29943e-17)
(-12.8844 10.4943 -1.03549e-16)
(-12.1647 10.3544 0)
(-11.4331 10.5504 0)
(-11.3807 10.5225 -1.01342e-16)
(-12.4111 11.7914 -5.32571e-17)
(-14.3829 14.7036 0)
(-17.5179 15.6292 0)
(-15.7599 13.1403 0)
(-14.5701 13.5289 0)
(-12.0534 11.6554 -9.95072e-17)
(-8.77255 12.5208 0)
(-9.51579 13.084 0)
(-3.80902 7.40646 0)
(-2.16859 8.03112 0)
(5.05086 10.0383 0)
(6.5031 10.8344 0)
(11.6143 9.4486 -9.49382e-17)
(14.4744 9.9 0)
(17.3912 9.88547 0)
(20.504 10.4537 -1.91159e-16)
(21.9918 10.9011 1.00928e-16)
(23.392 11.3749 -1.04289e-16)
(26.8837 12.4382 1.07556e-16)
(-0.117267 -2.60489 0)
(-0.233594 -3.23061 -4.93931e-17)
(-0.216609 -3.9514 0)
(-0.0425694 -4.60212 -2.42114e-17)
(0.169764 -4.96378 0)
(0.364147 -4.98605 0)
(0.512421 -4.7375 2.33071e-17)
(0.584048 -4.43245 0)
(0.571646 -4.0623 0)
(0.535829 -3.67056 0)
(0.438356 -3.3845 0)
(0.325247 -3.15879 0)
(0.200944 -2.98988 -8.83687e-17)
(0.0467226 -2.95072 -4.35708e-17)
(0.00134081 -2.81196 4.30514e-17)
(-0.0878817 -2.65045 0)
(-0.21261 -2.67266 0)
(-0.297342 -2.6395 0)
(-0.294422 -2.20857 0)
(-0.281104 -1.72583 0)
(-0.463952 -1.6852 -4.11036e-17)
(-0.868613 -1.76608 -4.09951e-17)
(-1.45794 -1.59453 4.10829e-17)
(-2.20273 -1.17684 -4.09109e-17)
(-3.19525 -0.492271 0)
(-4.57823 0.489123 0)
(-6.3493 1.55862 -4.08721e-17)
(-8.1849 2.47042 0)
(-9.77256 3.05282 0)
(-11.0873 3.39728 -4.07657e-17)
(-12.2112 3.59625 -4.04572e-17)
(-13.1824 3.75587 -4.01522e-17)
(-14.0482 3.85945 0)
(-14.7709 3.84421 0)
(-15.3928 3.73361 3.92379e-17)
(-15.9119 3.5664 0)
(-16.3315 3.36965 0)
(-16.6989 3.13118 -3.83461e-17)
(-17.0326 2.86127 3.79757e-17)
(-17.3292 2.55669 -3.76675e-17)
(-17.6005 2.26208 0)
(-17.8544 1.9672 0)
(-18.0952 1.6784 -7.3577e-17)
(-18.3334 1.40383 0)
(-18.5659 1.16138 -7.24078e-17)
(-18.7943 0.94633 -1.07813e-16)
(-18.9922 0.751804 1.06974e-16)
(-19.1904 0.5805 -7.0761e-17)
(-19.3686 0.448304 0)
(-19.5147 0.337556 0)
(-19.6256 0.247489 -6.91916e-17)
(-19.7471 0.177726 -3.43591e-17)
(-19.857 0.139527 0)
(-19.9242 0.0950222 0)
(-19.9796 0.0613525 -3.35987e-17)
(-20.0299 0.0561853 -6.66894e-17)
(-20.0431 0.0247237 0)
(-20.0123 0.00681655 6.57306e-17)
(-19.9619 0.000523942 -6.52438e-17)
(-19.8772 -0.0333915 6.47632e-17)
(-19.7624 -0.0646519 0)
(-19.5799 -0.0645975 0)
(-19.3271 -0.0660886 0)
(-19.051 -0.0632738 0)
(-18.7202 -0.0404252 0)
(-18.3721 0.020082 6.18463e-17)
(-17.9744 0.149084 0)
(-17.59 0.249471 0)
(-17.1555 0.348144 0)
(-16.7317 0.4818 1.1991e-16)
(-16.2743 0.613478 5.95163e-17)
(-15.7781 0.76152 5.90595e-17)
(-15.2756 0.934119 -1.17217e-16)
(-14.744 1.10625 5.81938e-17)
(-14.1822 1.25977 -5.78168e-17)
(-13.6017 1.44585 0)
(-13.0096 1.64813 5.71215e-17)
(-12.4737 1.83377 0)
(-11.8973 2.00456 0)
(-11.33 2.19914 0)
(-10.7901 2.33087 1.1156e-16)
(-10.3182 2.55746 -5.55024e-17)
(-9.89305 2.67821 -5.51662e-17)
(-9.4822 2.88426 -1.09538e-16)
(-8.88843 3.15385 -1.62953e-16)
(-8.19633 3.29952 -5.38003e-17)
(-7.59772 3.27319 0)
(-7.01456 3.12806 -1.05781e-16)
(-6.52055 2.99268 0)
(-5.928 3.29411 -1.58303e-16)
(-5.17328 4.01034 0)
(-4.4924 4.62963 -1.53481e-16)
(-4.05871 4.82164 0)
(-3.80458 4.78636 0)
(-3.26677 4.68548 -5.1037e-17)
(-2.31211 5.0047 0)
(-1.6441 5.39309 4.91489e-17)
(-1.20095 5.32243 9.88895e-17)
(-0.780605 5.41396 4.9196e-17)
(-0.322911 5.74565 9.71027e-17)
(-0.0207717 5.82542 -9.72315e-17)
(0.642516 5.6118 -9.72231e-17)
(1.73924 5.88853 1.91665e-16)
(2.66505 6.37987 0)
(3.2431 6.71743 0)
(3.35191 6.9384 8.83691e-17)
(3.27273 6.81888 -8.78961e-17)
(3.02412 6.06489 0)
(2.48271 4.88276 0)
(1.84023 4.29017 8.58805e-17)
(1.18908 4.91632 0)
(0.451439 6.46636 2.37001e-20)
(-0.298295 8.24102 2.4913e-20)
(-1.09519 9.41907 8.42855e-17)
(-2.39763 9.74693 0)
(-3.42435 9.28273 -8.30242e-17)
(-4.06473 8.95667 0)
(-4.99464 9.50708 8.1548e-17)
(-6.0306 10.4026 0)
(-7.35563 10.6571 0)
(-8.86256 10.5956 -8.06648e-17)
(-10.1995 10.6341 -7.99332e-17)
(-9.92086 9.69927 0)
(-9.66586 7.58781 -8.01501e-17)
(-7.17913 5.30948 1.61334e-16)
(-7.40007 6.85945 0)
(-4.44787 5.3383 0)
(-5.17168 3.46143 0)
(-3.91026 4.55294 0)
(-2.3935 3.65202 7.84827e-17)
(-1.66952 5.35839 -1.56315e-16)
(0.288751 6.54525 0)
(0.874688 7.61177 0)
(1.21041 7.86674 0)
(0.711143 7.53447 0)
(1.02043 6.69856 0)
(2.20053 7.03043 0)
(3.17689 7.98229 0)
(3.34067 9.14437 7.3798e-17)
(2.90852 9.96681 0)
(1.9372 10.787 0)
(0.607887 11.3123 7.29465e-17)
(-1.3682 11.2859 0)
(-3.01055 11.0553 0)
(-3.72836 11.252 -6.86296e-17)
(-4.02316 11.8427 0)
(-4.27048 12.4972 0)
(-5.09273 12.975 1.28824e-16)
(-6.06967 13.4423 1.27459e-16)
(-7.12646 13.6411 1.25923e-16)
(-8.77454 13.6811 0)
(-9.99996 14.0081 1.2049e-16)
(-11.5737 14.3652 0)
(-12.5627 13.5806 -1.19674e-16)