/*--------------------------------*- C++ -*----------------------------------*\
| =========                 |                                                 |
| \\      /  F ield         | OpenFOAM: The Open Source CFD Toolbox           |
|  \\    /   O peration     | Version:  dev                                   |
|   \\  /    A nd           | Web:      http://www.openfoam.org               |
|    \\/     M anipulation  |                                                 |
\*---------------------------------------------------------------------------*/
FoamFile
{
    version     2.0;
    format      ascii;
    class       volVectorField;
    object      U_0;
    location    "9.16";
}
// * * * * * * * * * * * * * * * * * * * * * * * * * * * * * * * * * * * * * //

dimensions      [0 1 -1 0 0 0 0];

internalField   nonuniform List<vector> 
12225
(
(7.73155 0.543448 0)
(7.02143 0.297004 0)
(7.01917 0.120717 0)
(8.3426 0.0793387 0)
(8.90905 0.0850582 0)
(10.8832 0.0726357 0)
(10.9325 0.112263 0)
(13.2997 0.0432905 0)
(12.5424 0.134766 0)
(15.4603 -0.0186895 0)
(13.8005 0.218702 0)
(17.5352 -0.0776711 0)
(15.3876 0.208029 0)
(19.1107 -0.0855977 0)
(20.4089 -0.301095 0)
(18.9361 2.07239 0)
(28.9184 -5.99404 0)
(24.8765 4.43625 0)
(10.6139 1.25579 0)
(12.1933 1.15589 0)
(11.5152 0.749608 0)
(13.5014 0.50559 0)
(12.217 0.379193 0)
(15.6481 0.333184 0)
(13.1698 0.290427 0)
(18.2817 0.232025 0)
(13.6458 0.254091 0)
(21.4808 0.149771 0)
(13.7177 0.126109 0)
(25.5957 -0.23323 0)
(15.6476 0.440931 0)
(29.1812 -2.29023 0)
(22.2821 1.80107 0)
(32.941 -4.43483 0)
(28.3991 -1.12089 0)
(36.4545 -6.09838 0)
(10.2207 1.30136 0)
(14.3716 1.49008 0)
(13.1892 1.14527 0)
(17.3643 0.930883 0)
(14.4092 0.759108 0)
(19.9128 0.776078 0)
(14.9633 0.51081 0)
(22.6772 0.727632 0)
(14.765 0.238276 0)
(25.8672 0.454966 0)
(16.0748 0.0706124 0)
(28.4436 -0.768484 0)
(20.1493 0.430457 0)
(29.9644 -2.87261 0)
(24.398 0.690179 0)
(32.6431 -3.19616 0)
(28.3746 -2.27158 0)
(33.4377 -18.9802 0)
(8.68121 1.41381 0)
(16.0417 1.70116 0)
(12.8343 1.38799 0)
(19.8438 1.29801 0)
(15.2406 1.03698 0)
(22.8628 1.17742 0)
(17.003 0.769202 0)
(25.479 1.0401 0)
(18.9291 0.606231 0)
(27.4535 0.138764 0)
(21.5389 0.657203 0)
(28.8104 -1.4082 0)
(23.4865 0.952928 0)
(30.1433 -3.34329 0)
(24.8277 1.10198 0)
(33.3115 -5.19365 0)
(25.662 -2.33341 0)
(30.835 -14.2902 0)
(8.20115 1.68717 0)
(15.4969 1.65034 0)
(13.1073 1.60668 0)
(19.1867 1.41206 0)
(16.7415 1.38005 0)
(22.1638 1.22747 0)
(19.6933 1.20192 0)
(24.4783 0.862534 0)
(22.5327 1.10689 0)
(26.0987 -0.0567048 0)
(24.5213 1.06095 0)
(27.4565 -1.24151 0)
(25.5829 1.18856 0)
(28.8767 -2.90987 0)
(25.8409 1.01671 0)
(30.5818 -5.90609 0)
(28.2933 1.85843 0)
(28.0979 -20.7655 0)
(9.69118 2.2065 0)
(13.0944 1.60001 0)
(14.147 1.9175 0)
(16.7361 1.3903 0)
(17.8548 1.75844 0)
(19.7326 1.21125 0)
(20.6208 1.58825 0)
(22.0896 0.737293 0)
(23.0204 1.48765 0)
(23.9141 -0.0666352 0)
(24.782 1.39167 0)
(25.7508 -1.26796 0)
(26.0516 1.22762 0)
(27.3859 -2.92147 0)
(27.4431 0.382492 0)
(28.1758 -5.86827 0)
(30.7805 1.85155 0)
(28.9892 -16.6256 0)
(11.0194 2.37618 0)
(12.556 1.63069 0)
(15.0604 2.42591 0)
(15.7594 1.37011 0)
(18.3619 2.26976 0)
(18.7087 1.1646 0)
(21.1725 2.23667 0)
(21.2953 0.591252 0)
(23.378 2.23452 0)
(23.4811 -0.35062 0)
(25.1708 1.95816 0)
(25.5707 -1.57701 0)
(26.7328 1.66756 0)
(27.3912 -3.00942 0)
(28.2776 0.854302 0)
(28.2752 -5.76652 0)
(29.4913 -0.883837 0)
(28.4799 -10.2791 0)
(10.8964 2.79539 0)
(12.1309 1.80322 0)
(14.9854 2.87667 0)
(15.8357 1.52165 0)
(18.316 2.6241 0)
(18.9151 1.21701 0)
(21.1978 2.40019 0)
(21.5222 0.751299 0)
(23.3418 2.1702 0)
(23.7053 0.046863 0)
(25.0288 1.60601 0)
(25.6853 -0.928676 0)
(26.2657 0.960875 0)
(27.3583 -2.23283 0)
(27.2536 -0.368378 0)
(28.1922 -4.27885 0)
(27.0388 -1.79242 0)
(27.5649 -6.46074 0)
(10.962 2.92631 0)
(12.2978 1.82357 0)
(15.0451 3.14786 0)
(16.0319 1.56788 0)
(18.2897 2.93086 0)
(18.9479 1.23832 0)
(20.9431 2.87239 0)
(21.4101 0.774782 0)
(23.153 2.66005 0)
(23.4849 -0.0200586 0)
(24.9264 1.92606 0)
(25.2276 -1.00663 0)
(26.0249 1.05158 0)
(26.5795 -2.23285 0)
(26.6142 -0.321914 0)
(26.8837 -3.84687 0)
(26.4038 -2.12424 0)
(26.4868 -5.5108 0)
(10.9397 3.36124 0)
(12.4006 2.11227 0)
(14.7686 3.39482 0)
(16.0608 1.94576 0)
(18.0649 3.16389 0)
(19.1184 1.62952 0)
(20.8441 2.8694 0)
(21.6436 1.21085 0)
(23.01 2.42566 0)
(23.7266 0.604446 0)
(24.6133 1.64339 0)
(25.2483 -0.204457 0)
(25.5341 0.611809 0)
(26.2743 -1.18959 0)
(26.0072 -0.873845 0)
(26.437 -2.41204 0)
(25.839 -2.46939 0)
(25.6356 -3.55862 0)
(10.9672 3.55752 0)
(12.3651 2.43584 0)
(14.5862 3.54046 0)
(15.8702 2.20124 0)
(17.8382 3.24181 0)
(18.8714 1.86258 0)
(20.4156 3.10113 0)
(21.2628 1.50357 0)
(22.4642 2.67407 0)
(23.2259 0.790849 0)
(24.0827 1.84948 0)
(24.7757 -0.0312645 0)
(25.1335 0.752995 0)
(25.7731 -0.941599 0)
(25.704 -0.660473 0)
(25.9281 -1.89668 0)
(25.6348 -2.2154 0)
(25.3276 -2.88367 0)
(10.7035 3.94941 0)
(12.4516 2.85936 0)
(14.4915 3.61569 0)
(15.9428 2.69955 0)
(17.5959 3.40764 0)
(18.7226 2.4308 0)
(20.0876 3.08891 0)
(21.0647 2.02049 0)
(22.1349 2.52701 0)
(22.9077 1.38212 0)
(23.6271 1.68852 0)
(24.2123 0.577642 0)
(24.5428 0.68428 0)
(25.0588 -0.308495 0)
(25.0771 -0.491426 0)
(25.1912 -1.23369 0)
(25.0693 -1.74831 0)
(24.8018 -2.15488 0)
(11.1298 4.10842 0)
(12.8109 3.42819 0)
(14.4622 3.78728 0)
(15.8561 3.1982 0)
(17.348 3.53455 0)
(18.5271 2.91716 0)
(19.762 3.25456 0)
(20.7346 2.56566 0)
(21.6906 2.72175 0)
(22.4705 1.89464 0)
(23.1357 1.88789 0)
(23.7059 1.05023 0)
(24.0571 0.860378 0)
(24.438 0.168374 0)
(24.483 -0.225531 0)
(24.5364 -0.702287 0)
(24.4444 -1.19112 0)
(24.1917 -1.53483 0)
(10.6367 4.16498 0)
(12.5679 3.86702 0)
(14.2314 4.03455 0)
(15.6393 3.79535 0)
(16.9677 3.86356 0)
(18.206 3.51083 0)
(19.4153 3.44752 0)
(20.5092 3.00528 0)
(21.4651 2.82856 0)
(22.2407 2.32858 0)
(22.839 2.05997 0)
(23.3227 1.53824 0)
(23.6259 1.21898 0)
(23.8476 0.713938 0)
(23.9249 0.305217 0)
(23.939 -0.103384 0)
(23.8259 -0.495783 0)
(23.6483 -0.86894 0)
(10.8228 4.44385 0)
(12.5386 4.31581 0)
(14.1146 4.37616 0)
(15.5782 4.2281 0)
(16.9095 4.09471 0)
(18.1411 3.80204 0)
(19.2508 3.59931 0)
(20.219 3.32713 0)
(21.0618 3.08984 0)
(21.7532 2.76929 0)
(22.3345 2.44389 0)
(22.783 2.05672 0)
(23.1343 1.64635 0)
(23.3769 1.22379 0)
(23.5189 0.838591 0)
(23.5566 0.45738 0)
(23.5107 0.113531 0)
(23.3914 -0.219057 0)
(10.8363 4.84216 0)
(12.5347 4.67131 0)
(14.1162 4.62601 0)
(15.5806 4.55993 0)
(16.8518 4.46118 0)
(18.0033 4.25351 0)
(19.0088 4.04023 0)
(19.9002 3.76549 0)
(20.7034 3.46701 0)
(21.3749 3.13601 0)
(21.9436 2.76896 0)
(22.3531 2.39961 0)
(22.6674 2.01643 0)
(22.8258 1.65113 0)
(22.8974 1.29503 0)
(22.8819 0.989709 0)
(22.8003 0.714861 0)
(22.6455 0.418561 0)
(10.7894 5.00331 0)
(12.4055 4.90889 0)
(13.8255 4.85265 0)
(15.1256 4.74328 0)
(16.3403 4.60129 0)
(17.5023 4.40802 0)
(18.5739 4.18416 0)
(19.5511 3.91543 0)
(20.3821 3.64575 0)
(21.0689 3.36241 0)
(21.5943 3.0854 0)
(21.9677 2.819 0)
(22.2257 2.54678 0)
(22.3643 2.26672 0)
(22.4251 1.98683 0)
(22.4001 1.69844 0)
(22.358 1.413 0)
(22.2368 1.13915 0)
(10.5109 5.07307 0)
(12.0688 4.97523 0)
(13.5353 4.91836 0)
(14.865 4.85643 0)
(16.0641 4.68732 0)
(17.1586 4.4183 0)
(18.1608 4.10635 0)
(19.0414 3.83316 0)
(19.784 3.62405 0)
(20.3768 3.42874 0)
(20.8276 3.24767 0)
(21.1873 3.0261 0)
(21.4351 2.79145 0)
(21.6387 2.52285 0)
(21.7685 2.24152 0)
(21.8364 1.96844 0)
(21.8465 1.72945 0)
(21.8091 1.49677 0)
(10.6529 5.07134 0)
(12.1017 4.76599 0)
(13.3928 4.63812 0)
(14.6742 4.56249 0)
(15.8902 4.40746 0)
(16.9954 4.16572 0)
(17.9384 3.9208 0)
(18.7159 3.72545 0)
(19.3722 3.57129 0)
(19.9036 3.43874 0)
(20.3596 3.28391 0)
(20.7342 3.07971 0)
(21.021 2.8402 0)
(21.237 2.57089 0)
(21.3665 2.30615 0)
(21.4572 2.0527 0)
(21.4594 1.81628 0)
(21.4231 1.60587 0)
(10.7532 4.75475 0)
(12.2161 4.596 0)
(13.5342 4.36319 0)
(14.8042 4.19353 0)
(15.9728 4.0187 0)
(16.9897 3.83702 0)
(17.8373 3.67851 0)
(18.5632 3.50301 0)
(19.1825 3.34727 0)
(19.7115 3.19187 0)
(20.1852 3.01456 0)
(20.5565 2.83837 0)
(20.8556 2.62427 0)
(21.0676 2.41199 0)
(21.188 2.19474 0)
(21.2509 1.99292 0)
(21.2385 1.80995 0)
(21.1956 1.63517 0)
(10.6773 4.12114 0)
(12.2202 3.95333 0)
(13.5379 3.80835 0)
(14.7309 3.69873 0)
(15.8733 3.56778 0)
(16.9082 3.45015 0)
(17.8225 3.31237 0)
(18.5909 3.16614 0)
(19.2206 3.01563 0)
(19.7362 2.86581 0)
(20.1486 2.71489 0)
(20.4733 2.55432 0)
(20.7227 2.38553 0)
(20.9043 2.20352 0)
(21.013 2.03141 0)
(21.0642 1.85073 0)
(21.0654 1.68571 0)
(21.0209 1.52942 0)
(10.8309 3.73341 0)
(12.2341 3.53084 0)
(13.5779 3.37404 0)
(14.815 3.17522 0)
(15.895 2.98871 0)
(16.8466 2.84744 0)
(17.7096 2.76549 0)
(18.4558 2.69959 0)
(19.1167 2.62552 0)
(19.6795 2.53059 0)
(20.1383 2.39724 0)
(20.4914 2.25503 0)
(20.7541 2.09355 0)
(20.9355 1.92756 0)
(21.0506 1.7581 0)
(21.0754 1.60488 0)
(21.0655 1.46212 0)
(20.9931 1.32449 0)
(10.7262 3.03253 0)
(12.2369 2.83532 0)
(13.6617 2.72493 0)
(14.9112 2.6537 0)
(15.9811 2.5855 0)
(16.9036 2.49634 0)
(17.6812 2.3684 0)
(18.3595 2.2464 0)
(18.9625 2.13626 0)
(19.461 2.03892 0)
(19.9108 1.93763 0)
(20.2726 1.83189 0)
(20.5685 1.73411 0)
(20.7852 1.62197 0)
(20.9262 1.51296 0)
(20.9868 1.40159 0)
(20.9821 1.29137 0)
(20.9225 1.19371 0)
(10.4696 2.51881 0)
(12.0042 2.23587 0)
(13.4199 2.1481 0)
(14.7689 2.09983 0)
(15.9891 2.03511 0)
(17.0185 1.98974 0)
(17.9024 1.92639 0)
(18.6234 1.87356 0)
(19.2188 1.80577 0)
(19.6991 1.70206 0)
(20.087 1.58044 0)
(20.405 1.45268 0)
(20.653 1.32552 0)
(20.8259 1.22617 0)
(20.9369 1.13788 0)
(20.9738 1.06934 0)
(20.9626 1.00422 0)
(20.9012 0.93938 0)
(10.841 1.95606 0)
(12.2647 1.59199 0)
(13.6195 1.48907 0)
(14.9253 1.48571 0)
(16.0857 1.49858 0)
(17.098 1.48418 0)
(17.9822 1.4438 0)
(18.7397 1.404 0)
(19.3784 1.35534 0)
(19.8979 1.28952 0)
(20.3177 1.21426 0)
(20.6432 1.136 0)
(20.8918 1.05607 0)
(21.0631 0.981428 0)
(21.1677 0.920506 0)
(21.202 0.863469 0)
(21.1924 0.813064 0)
(21.133 0.764609 0)
(10.5515 1.35797 0)
(12.3131 1.15444 0)
(13.8382 1.067 0)
(15.1445 1.07024 0)
(16.2273 1.04754 0)
(17.172 1.01978 0)
(18.0373 0.991889 0)
(18.7986 0.983288 0)
(19.4556 0.981112 0)
(19.9775 0.930049 0)
(20.3824 0.864963 0)
(20.6736 0.77965 0)
(20.8679 0.700919 0)
(20.9877 0.637025 0)
(21.0356 0.599089 0)
(21.0273 0.566501 0)
(20.9763 0.557913 0)
(20.8921 0.535324 0)
(10.6348 0.667209 0)
(12.3905 0.410288 0)
(14.0086 0.473378 0)
(15.3881 0.609786 0)
(16.4889 0.655957 0)
(17.3658 0.623808 0)
(18.1095 0.577914 0)
(18.735 0.560596 0)
(19.2787 0.567027 0)
(19.7066 0.564594 0)
(20.0266 0.563415 0)
(20.2336 0.538736 0)
(20.343 0.508751 0)
(20.379 0.48115 0)
(20.3528 0.453109 0)
(20.2879 0.428143 0)
(20.1934 0.411292 0)
(20.0857 0.385682 0)
(10.6023 0.247312 0)
(12.5054 -0.0339185 0)
(13.9417 0.0717075 0)
(15.0896 0.22701 0)
(15.9634 0.291424 0)
(16.5992 0.311487 0)
(17.0555 0.322884 0)
(17.3794 0.345358 0)
(17.6457 0.366404 0)
(17.8422 0.371603 0)
(18.0036 0.369494 0)
(18.0974 0.348522 0)
(18.1298 0.327589 0)
(18.1098 0.311665 0)
(18.0387 0.288997 0)
(17.9243 0.278147 0)
(17.7895 0.263048 0)
(17.6209 0.251445 0)
(10.6445 -0.356074 0)
(11.7995 -0.577956 0)
(12.4081 -0.312461 0)
(12.8165 -0.0638559 0)
(13.1192 0.0885466 0)
(13.3887 0.187736 0)
(13.6389 0.245937 0)
(13.8727 0.271516 0)
(14.0905 0.281402 0)
(14.2745 0.274963 0)
(14.4116 0.261688 0)
(14.4887 0.247796 0)
(14.5132 0.232707 0)
(14.4933 0.219692 0)
(14.4317 0.206932 0)
(14.3271 0.200133 0)
(14.2126 0.179622 0)
(14.0278 0.16272 0)
(9.03308 -0.325325 0)
(7.94084 -0.224295 0)
(7.41276 0.00960425 0)
(7.50622 0.120754 0)
(7.95104 0.154895 0)
(8.54016 0.157701 0)
(9.13074 0.146521 0)
(9.66566 0.130943 0)
(10.1315 0.121065 0)
(10.5149 0.110422 0)
(10.8128 0.100921 0)
(11.0358 0.0966111 0)
(11.1813 0.0870356 0)
(11.2651 0.0841082 0)
(11.2931 0.0797231 0)
(11.2719 0.0755414 0)
(11.2125 0.0621312 0)
(11.0813 0.0673043 0)
(-0.0924344 -0.571138 0)
(-0.193248 -0.639668 0)
(-0.236668 -0.677336 0)
(-0.236036 -0.705333 0)
(-0.195845 -0.719719 0)
(-0.141295 -0.719142 0)
(-0.0902728 -0.702796 1.14769e-17)
(-0.0554765 -0.682525 -1.1387e-17)
(-0.0472 -0.65278 0)
(-0.0701524 -0.619385 -1.12221e-17)
(-0.120468 -0.587162 0)
(-0.194818 -0.553942 0)
(-0.306799 -0.525685 0)
(-0.423319 -0.501452 1.09348e-17)
(-0.559408 -0.470371 0)
(-0.731627 -0.453094 0)
(-0.906757 -0.429972 -1.07365e-17)
(-1.08952 -0.391855 0)
(-1.31653 -0.355811 0)
(-1.59131 -0.331203 0)
(-1.88061 -0.300995 1.05028e-17)
(-2.1643 -0.273577 0)
(-2.47768 -0.258059 1.03784e-17)
(-2.84086 -0.262293 0)
(-3.22125 -0.299049 0)
(-3.58171 -0.302892 1.023e-17)
(-4.02235 -0.227949 0)
(-4.55161 -0.07565 -1.01275e-17)
(-4.93476 0.032174 0)
(-5.05248 -0.00188322 9.96004e-18)
(-4.96991 -0.209493 0)
(-4.86567 -0.627295 0)
(-4.88803 -1.21352 0)
(-5.07461 -1.67386 0)
(-5.36783 -1.63143 0)
(-5.88174 -0.978454 -9.74257e-18)
(-6.86811 -0.0034432 0)
(-8.21322 0.704223 1.92285e-17)
(-9.64052 0.876572 0)
(-11.0242 0.829956 -1.88037e-17)
(-12.2813 0.751032 0)
(-13.427 0.66212 0)
(-14.4796 0.57963 1.83511e-17)
(-15.4041 0.510591 0)
(-16.233 0.437964 1.80752e-17)
(-16.9736 0.378139 -1.79413e-17)
(-17.6146 0.32332 0)
(-18.1867 0.274989 -1.76792e-17)
(-18.6958 0.243525 -1.75501e-17)
(-19.1192 0.214737 0)
(-19.4969 0.172407 0)
(-19.8432 0.164809 0)
(-20.1055 0.16424 0)
(-20.3259 0.152662 0)
(-20.5177 0.137063 1.67947e-17)
(-20.6503 0.126195 0)
(-20.7493 0.127108 -1.65518e-17)
(-20.8068 0.131131 0)
(-20.8252 0.127646 0)
(-20.7924 0.13108 1.61958e-17)
(-20.7089 0.130487 0)
(-20.5744 0.132589 -1.59629e-17)
(-20.3861 0.114905 0)
(-20.1487 0.120879 0)
(-19.8774 0.125672 0)
(-19.5616 0.134096 1.55106e-17)
(-19.1892 0.142715 0)
(-18.7814 0.157271 0)
(-18.3418 0.177216 1.51772e-17)
(-17.8773 0.194192 0)
(-17.3842 0.204655 1.49559e-17)
(-16.8774 0.228506 0)
(-16.3574 0.258665 0)
(-15.7971 0.268885 0)
(-15.2255 0.298737 -1.4519e-17)
(-14.6582 0.324218 0)
(-14.0748 0.344176 0)
(-13.4855 0.370504 -1.41934e-17)
(-12.8778 0.390946 -1.40853e-17)
(-12.2517 0.411073 0)
(-11.632 0.446103 -1.38619e-17)
(-11.043 0.484848 0)
(-10.484 0.511178 -2.72821e-17)
(-9.95782 0.538969 0)
(-9.46814 0.550277 -2.6895e-17)
(-8.95734 0.550526 0)
(-8.35642 0.564758 2.65605e-17)
(-7.6877 0.58627 0)
(-7.00827 0.638153 0)
(-6.3859 0.670747 0)
(-5.95033 0.691393 -2.57879e-17)
(-5.56732 0.716924 0)
(-5.18695 0.717155 2.53955e-17)
(-4.82232 0.710697 0)
(-4.44318 0.727673 -2.50079e-17)
(-4.05401 0.743416 -2.48083e-17)
(-3.7357 0.74137 -2.46215e-17)
(-3.36391 0.726962 0)
(-2.94381 0.747927 0)
(-2.58817 0.711698 0)
(-2.36261 0.777504 0)
(-2.14631 0.938016 0)
(-1.90773 0.973562 0)
(-1.72846 0.920483 0)
(-1.65589 0.862959 0)
(-1.766 0.948048 2.2629e-17)
(-1.75276 0.915965 2.2365e-17)
(-1.1854 0.65851 0)
(-0.0494512 0.497865 0)
(1.36377 0.561162 0)
(2.55618 0.822986 2.19661e-17)
(3.15506 1.09089 0)
(3.27879 1.01785 0)
(2.85485 0.930603 0)
(1.82378 1.24958 0)
(0.657483 1.51234 -2.17951e-17)
(-0.294858 1.44609 0)
(-1.0515 1.24387 0)
(-2.0348 1.25304 2.11608e-17)
(-3.29146 1.35094 -2.11061e-17)
(-4.86629 1.62262 0)
(-6.82667 1.96927 -2.07651e-17)
(-8.92577 1.90645 0)
(-10.108 1.60307 2.01549e-17)
(-10.7336 1.48793 0)
(-11.6159 1.64422 0)
(-11.7138 1.25938 0)
(-9.25374 0.44812 0)
(-8.49303 1.05172 0)
(-6.7627 0.928093 -3.80422e-17)
(-5.98465 1.08521 -3.78451e-17)
(-5.16976 1.28425 0)
(-5.16647 1.40486 0)
(-4.9625 1.38513 0)
(-4.89118 1.38339 3.70807e-17)
(-4.48041 1.38067 0)
(-4.06347 1.44116 0)
(-3.98134 1.58281 0)
(-4.33308 1.70486 3.64798e-17)
(-4.97383 1.84899 -3.62938e-17)
(-5.85716 1.98711 0)
(-7.01499 2.09743 0)
(-8.37982 2.16301 -3.58327e-17)
(-9.79926 2.12909 -3.55757e-17)
(-11.2822 2.01491 0)
(-12.7484 1.95045 0)
(-14.0469 1.99379 3.45343e-17)
(-15.1917 2.0823 -3.41694e-17)
(-16.1095 2.15274 0)
(-16.9622 2.27776 0)
(-17.8579 2.45202 -3.28947e-17)
(-18.5736 2.56339 0)
(-19.3477 2.66611 0)
(-19.4321 2.63708 -3.14316e-17)
(-19.4628 2.75988 0)
(-19.1761 3.00008 -3.07893e-17)
(-19.0219 3.12638 0)
(-18.7267 3.01299 0)
(-17.3014 3.04942 0)
(-16.1323 3.01742 2.96953e-17)
(-13.9723 3.04147 0)
(-11.2254 3.10013 0)
(-7.97046 3.11133 0)
(-8.18903 3.66051 0)
(-9.16592 3.97973 0)
(-8.45575 3.94765 0)
(-9.05893 3.67152 2.84099e-17)
(-4.75296 3.53587 2.81568e-17)
(-6.58911 3.68355 0)
(-3.70641 2.69854 0)
(2.9699 2.62658 0)
(5.92181 3.19644 -2.76684e-17)
(6.6221 3.25285 0)
(9.22728 2.96538 5.4921e-17)
(11.2731 3.00817 -5.4901e-17)
(13.4223 2.91876 -5.53825e-17)
(15.3874 2.96162 5.60473e-17)
(17.1595 3.13943 -5.66898e-17)
(18.1238 3.03914 5.70681e-17)
(18.3786 2.79709 0)
(-0.113195 -1.63531 0)
(-0.248488 -1.87283 0)
(-0.318912 -2.03862 -2.38382e-17)
(-0.291208 -2.18756 0)
(-0.192497 -2.27503 2.32912e-17)
(-0.0591114 -2.28233 2.30497e-17)
(0.0647477 -2.23272 1.14064e-17)
(0.157444 -2.15871 1.13059e-17)
(0.219281 -2.05636 0)
(0.222424 -1.94912 1.10974e-17)
(0.190627 -1.86677 0)
(0.129107 -1.77348 0)
(0.0449373 -1.6797 -2.16326e-17)
(-0.0421988 -1.63783 -1.07313e-17)
(-0.141215 -1.53114 2.12884e-17)
(-0.270678 -1.47534 2.11236e-17)
(-0.391968 -1.43881 1.04856e-17)
(-0.501603 -1.3202 0)
(-0.661681 -1.12995 0)
(-0.885796 -1.0307 0)
(-1.1309 -1.01787 1.01893e-17)
(-1.33992 -0.966115 0)
(-1.63071 -0.807 -3.02458e-17)
(-2.02982 -0.623319 0)
(-2.45423 -0.50947 0)
(-2.78746 -0.409062 -9.93593e-18)
(-2.95541 -0.228572 0)
(-3.05584 -0.398569 9.8859e-18)
(-3.13789 -1.11007 1.94884e-17)
(-3.4362 -1.9516 -9.66676e-18)
(-4.26179 -2.18383 0)
(-5.42538 -1.32958 0)
(-7.01688 0.0180702 0)
(-9.10163 0.999499 1.95243e-17)
(-11.1599 1.51554 1.94077e-17)
(-12.834 1.81894 9.65099e-18)
(-14.0928 2.03666 0)
(-15.1385 2.07176 -1.90349e-17)
(-16.1408 1.92454 0)
(-17.085 1.74883 1.87826e-17)
(-17.9444 1.55227 0)
(-18.739 1.34374 0)
(-19.452 1.14614 -1.84254e-17)
(-20.0867 0.955097 0)
(-20.6511 0.776449 -5.45344e-17)
(-21.1316 0.612396 1.8058e-17)
(-21.5408 0.464609 0)
(-21.8915 0.357505 1.78035e-17)
(-22.2115 0.267976 1.76753e-17)
(-22.4697 0.202254 0)
(-22.6716 0.141335 0)
(-22.8368 0.108323 0)
(-22.9641 0.0655692 0)
(-23.0566 0.0219253 0)
(-23.0912 0.00447827 -1.69144e-17)
(-23.057 -0.00550383 -3.35743e-17)
(-23.016 -0.0174368 1.66677e-17)
(-22.946 -0.019851 0)
(-22.8178 -0.0257789 -3.2846e-17)
(-22.6346 -0.0257636 1.62992e-17)
(-22.418 -0.0303874 0)
(-22.1672 -0.0446807 1.60648e-17)
(-21.8382 -0.037742 0)
(-21.452 -0.0178353 0)
(-21.0499 0.000102793 3.14413e-17)
(-20.5999 0.0178813 -1.56099e-17)
(-20.1056 0.0549101 3.09954e-17)
(-19.5981 0.108904 -3.07766e-17)
(-19.0528 0.170637 -1.52797e-17)
(-18.4963 0.242115 0)
(-17.886 0.297753 -1.50614e-17)
(-17.2696 0.357461 0)
(-16.664 0.440093 0)
(-16.0118 0.506213 0)
(-15.3405 0.58962 -1.46398e-17)
(-14.6907 0.661767 0)
(-14.0203 0.731151 -2.8859e-17)
(-13.3469 0.800585 4.29605e-17)
(-12.6618 0.845653 1.4213e-17)
(-11.958 0.888686 0)
(-11.2282 1.00136 1.39703e-17)
(-10.4899 1.14969 0)
(-9.73394 1.26614 2.73475e-17)
(-9.02807 1.42949 0)
(-8.42934 1.52167 2.68316e-17)
(-7.86645 1.46163 -5.34587e-17)
(-7.26497 1.38117 -2.66487e-17)
(-6.53753 1.32312 0)
(-5.67652 1.431 0)
(-4.75811 1.6754 0)
(-4.05578 1.94028 2.58025e-17)
(-3.54061 2.03565 0)
(-3.08831 2.06004 -2.52186e-17)
(-2.62601 2.13658 0)
(-2.14843 2.24133 7.43042e-17)
(-1.75864 2.28223 2.45207e-17)
(-1.49849 2.29541 2.43047e-17)
(-1.10299 2.23356 0)
(-0.817468 2.36005 0)
(-0.586669 2.56002 0)
(-0.399926 2.62341 0)
(-0.244271 2.48678 0)
(-0.12336 2.46798 4.59113e-17)
(-0.0360339 2.74053 4.57544e-17)
(0.0553059 2.9939 0)
(-0.135251 3.00602 -2.19845e-17)
(-0.147491 2.57342 -2.16431e-17)
(0.229703 1.66879 0)
(0.801873 0.964927 -4.31513e-17)
(1.93168 0.923989 0)
(3.0109 1.39492 2.13767e-17)
(3.86169 2.14634 0)
(3.75136 3.11729 0)
(2.11992 4.13601 -4.38081e-17)
(0.357589 4.34378 0)
(-0.811084 3.9924 2.10723e-17)
(-1.75076 3.8704 0)
(-2.93578 4.13217 0)
(-4.34257 4.53892 2.06435e-17)
(-5.97726 4.84407 2.04625e-17)
(-7.62454 5.13604 0)
(-9.15665 5.14923 -1.98554e-17)
(-10.7772 4.94183 0)
(-11.5523 4.50858 1.96655e-17)
(-11.2033 3.69707 3.91942e-17)
(-11.3912 3.73369 0)
(-11.4273 2.42946 0)
(-8.32351 1.10171 0)
(-8.77708 2.60348 0)
(-5.37042 1.92142 3.85736e-17)
(-4.91716 2.83976 1.12178e-16)
(-3.67446 3.24058 0)
(-3.57682 3.53309 0)
(-3.22893 3.51441 0)
(-3.08492 3.47083 -3.6147e-17)
(-2.41637 3.34815 0)
(-1.63276 3.60687 0)
(-1.19423 3.98616 7.1763e-17)
(-1.40684 4.39428 3.58474e-17)
(-2.0102 4.64826 3.56605e-17)
(-2.81568 4.87446 0)
(-3.67454 5.1582 0)
(-4.46057 5.42969 3.46448e-17)
(-4.99197 5.68357 -3.41842e-17)
(-5.91569 6.12437 0)
(-7.40458 6.43813 0)
(-9.09562 6.32023 -3.35473e-17)
(-10.938 6.22132 9.9422e-17)
(-12.4024 6.43903 0)
(-13.531 6.59437 0)
(-14.6688 6.7401 3.13102e-17)
(-15.4673 6.89526 0)
(-16.3444 6.99285 5.93622e-17)
(-16.1714 6.75602 -2.89752e-17)
(-15.8253 7.17607 0)
(-15.1266 7.72861 2.79309e-17)
(-14.6437 8.19836 5.59143e-17)
(-14.9691 8.04732 0)
(-13.5215 8.10138 0)
(-12.321 8.359 -2.66191e-17)
(-10.9321 7.85116 0)
(-9.09544 8.04972 5.35434e-17)
(-9.04119 8.91602 0)
(-12.7975 11.5083 0)
(-13.5192 10.6701 0)
(-11.6466 10.4822 0)
(-11.2304 8.87354 -2.56131e-17)
(-5.57935 8.86862 -2.61241e-17)
(-8.26284 9.35153 0)
(-3.25005 5.85322 0)
(2.00093 6.19333 0)
(6.93305 7.98392 2.49852e-17)
(7.65331 7.85929 0)
(11.5859 7.14285 -4.89674e-17)
(13.6956 7.42744 4.93211e-17)
(16.6853 7.39711 4.96271e-17)
(18.9226 7.53202 5.18851e-17)
(20.8672 7.49011 5.31841e-17)
(23.469 8.19243 5.4019e-17)
(25.065 8.66091 0)
(-0.126643 -2.59182 0)
(-0.291784 -2.99365 0)
(-0.367874 -3.38692 2.4236e-17)
(-0.301742 -3.76969 2.40026e-17)
(-0.144239 -4.0025 -2.37876e-17)
(0.0465258 -4.02319 -2.35423e-17)
(0.222352 -3.90124 -1.50796e-20)
(0.337322 -3.74025 0)
(0.404681 -3.50461 0)
(0.404355 -3.25833 0)
(0.348909 -3.10377 0)
(0.253182 -2.95557 0)
(0.146831 -2.81183 6.57375e-17)
(0.0148643 -2.75819 0)
(-0.0683439 -2.60815 -2.14482e-17)
(-0.195369 -2.50475 -2.12517e-17)
(-0.332017 -2.47772 0)
(-0.400783 -2.37231 0)
(-0.488145 -2.04343 0)
(-0.670164 -1.77756 0)
(-0.945755 -1.73591 -2.03233e-17)
(-1.17125 -1.63489 0)
(-1.35475 -1.29972 2.00852e-17)
(-1.51995 -1.06792 0)
(-1.78783 -1.21664 0)
(-2.17692 -1.60518 0)
(-2.79991 -1.84195 3.93014e-17)
(-3.73803 -1.7014 0)
(-5.07971 -0.787495 -1.98119e-17)
(-7.15801 0.561475 3.99505e-17)
(-9.53192 1.57264 0)
(-11.3998 2.13258 0)
(-12.8698 2.43777 0)
(-14.1273 2.55712 -1.96982e-17)
(-15.2432 2.59589 -1.95906e-17)
(-16.2566 2.64119 0)
(-17.1014 2.66743 0)
(-17.802 2.56428 3.84263e-17)
(-18.4298 2.38663 3.81555e-17)
(-18.9859 2.15472 -3.78892e-17)
(-19.4688 1.89398 0)
(-19.9094 1.61523 0)
(-20.3062 1.35133 0)
(-20.6798 1.09503 0)
(-21.0219 0.866063 3.6491e-17)
(-21.3386 0.651902 3.61873e-17)
(-21.5981 0.477472 -3.59028e-17)
(-21.8468 0.326986 0)
(-22.0683 0.204588 0)
(-22.2399 0.110667 0)
(-22.378 0.0347638 0)
(-22.4972 -0.0247291 3.45304e-17)
(-22.5923 -0.0705919 0)
(-22.6217 -0.109825 0)
(-22.6222 -0.121767 3.37241e-17)
(-22.6163 -0.124644 3.34718e-17)
(-22.5729 -0.138023 0)
(-22.4847 -0.131236 -6.58947e-17)
(-22.3449 -0.109746 3.27113e-17)
(-22.1561 -0.133121 -3.24555e-17)
(-21.971 -0.156388 0)
(-21.7181 -0.164211 0)
(-21.3743 -0.12256 0)
(-20.9985 -0.103652 0)
(-20.585 -0.0738368 -3.12572e-17)
(-20.1391 -0.0352601 -6.2041e-17)
(-19.6509 0.0431778 -3.08044e-17)
(-19.1682 0.137979 3.05948e-17)
(-18.6169 0.221493 0)
(-18.0745 0.345139 -6.03634e-17)
(-17.4815 0.45766 -5.99502e-17)
(-16.8682 0.566429 -5.95537e-17)
(-16.2414 0.698749 5.91752e-17)
(-15.6108 0.841422 0)
(-14.9496 0.98461 8.77555e-17)
(-14.2727 1.12612 0)
(-13.5934 1.27142 -2.89239e-17)
(-12.9464 1.39374 -2.87496e-17)
(-12.2785 1.48251 0)
(-11.6471 1.53715 0)
(-11.0144 1.63141 -5.64594e-17)
(-10.3603 1.80504 0)
(-9.64374 1.91145 -5.54355e-17)
(-8.87991 2.19693 0)
(-8.09748 2.47591 5.42056e-17)
(-7.38166 2.50826 1.07801e-16)
(-6.76973 2.40828 0)
(-6.14639 2.22748 0)
(-5.41438 2.17936 0)
(-4.4826 2.523 5.34469e-17)
(-3.61326 3.00243 0)
(-3.02596 3.29155 5.15051e-17)
(-2.58891 3.37556 0)
(-2.18427 3.38628 0)
(-1.50711 3.51257 -1.00156e-16)
(-0.783602 3.68909 0)
(-0.400188 3.78237 -4.8673e-17)
(0.00415589 3.76084 0)
(0.359975 3.94908 -4.8374e-17)
(0.813851 4.03427 0)
(1.19999 4.15854 0)
(1.8179 4.44528 0)
(2.27946 4.57384 -1.3866e-16)
(2.39865 4.53301 -4.54185e-17)
(2.53174 4.80563 0)
(2.30279 4.99211 0)
(2.2065 4.59597 0)
(2.14621 3.67682 0)
(1.75566 2.70098 4.42021e-17)
(1.84182 2.37946 -8.77401e-17)
(2.10851 2.97592 -4.34232e-17)
(2.09617 4.39066 8.59874e-17)
(1.59256 6.13459 8.59034e-17)
(0.544546 7.17921 4.28641e-17)
(-0.676773 7.33014 0)
(-2.05845 7.17192 8.46196e-17)
(-3.23311 6.88566 0)
(-4.3207 7.03193 -8.14968e-17)
(-5.54915 7.51665 -4.08933e-17)
(-7.29802 7.92219 0)
(-8.64964 8.18444 7.97441e-17)
(-10.0436 8.38586 3.94359e-17)
(-11.3961 7.8236 0)
(-11.3767 6.6807 3.9503e-17)
(-9.28836 5.14932 -1.18292e-16)
(-8.99071 6.36212 0)
(-8.37911 4.76041 0)
(-6.84733 2.68562 0)
(-6.8545 4.41902 0)
(-4.14704 3.325 -8.24554e-17)
(-3.74499 4.93681 -7.96412e-17)
(-2.19858 5.78465 0)
(-2.16183 6.29141 0)
(-2.05001 6.31148 0)
(-2.10063 6.12637 0)
(-1.40805 5.65529 0)
(-0.330405 5.97393 0)
(0.38156 6.61873 -7.34285e-17)
(0.354934 7.60327 5.90219e-20)
(-0.359888 8.44024 0)
(-1.58731 8.94728 0)
(-2.92913 8.95633 -7.28477e-17)
(-4.20762 8.88671 0)
(-4.78496 9.06706 6.94758e-17)
(-5.06728 9.5655 6.79025e-17)
(-5.44636 10.0673 0)
(-6.11804 10.5757 0)
(-7.59085 10.9515 -6.54188e-17)
(-9.25997 11.159 -1.29627e-16)
(-10.7499 11.2457 0)
(-12.1484 11.6886 0)
(-13.1913 12.1192 0)
(-14.6217 12.1509 -5.90706e-17)
(-15.1833 11.5499 5.81826e-17)
(-15.0814 11.8245 0)
(-14.2197 12.593 1.09469e-16)
(-13.2394 13.4818 5.3843e-17)
(-13.7074 13.5208 -1.05336e-16)
(-12.7673 13.4149 0)
(-11.6084 13.7931 0)
(-11.2949 13.9893 -1.03314e-16)
(-12.0742 15.5329 -5.43998e-17)
(-13.8518 18.5115 0)
(-16.4598 19.4331 0)
(-13.7782 16.5811 0)
(-12.4706 16.9163 0)
(-9.21484 14.8602 -1.01669e-16)
(-5.70259 15.7575 0)
(-5.98583 16.1606 0)
(-0.236355 10.0439 0)
(1.70884 10.9513 0)
(8.44184 12.7294 0)
(9.7443 13.3016 0)
(14.7622 11.5983 -9.8094e-17)
(17.7835 11.9972 0)
(20.6353 11.8096 0)
(23.5497 12.2508 -1.96482e-16)
(24.9238 12.6577 1.03556e-16)
(26.0706 12.9478 -1.07008e-16)
(29.4352 13.9564 1.10063e-16)
(-0.114442 -3.51281 0)
(-0.233333 -4.09602 -4.92468e-17)
(-0.226357 -4.79145 0)
(-0.0656338 -5.42415 -2.41282e-17)
(0.135045 -5.77633 0)
(0.318711 -5.79616 0)
(0.456677 -5.55158 2.32599e-17)
(0.516864 -5.25313 0)
(0.493044 -4.88575 0)
(0.442251 -4.49654 0)
(0.326261 -4.21224 0)
(0.191409 -3.98739 0)
(0.0414016 -3.81616 -8.81237e-17)
(-0.141649 -3.76867 -4.34642e-17)
(-0.219434 -3.62333 4.2948e-17)
(-0.347937 -3.4616 0)
(-0.511237 -3.47891 0)
(-0.632396 -3.44083 0)
(-0.666698 -3.00592 0)
(-0.692402 -2.52123 0)
(-0.914978 -2.48072 -4.09985e-17)
(-1.35927 -2.56459 -4.08933e-17)
(-1.99087 -2.40032 4.09862e-17)
(-2.77366 -1.98891 -4.08274e-17)
(-3.79971 -1.31452 0)
(-5.2159 -0.352015 0)
(-7.03002 0.704993 -4.07332e-17)
(-8.92142 1.63139 0)
(-10.5908 2.25336 0)
(-12.0104 2.63749 -4.06842e-17)
(-13.2316 2.86488 -4.03967e-17)
(-14.2904 3.04322 -4.00981e-17)
(-15.2427 3.16853 0)
(-16.0509 3.18118 0)
(-16.7546 3.09695 3.91904e-17)
(-17.3562 2.95101 0)
(-17.8536 2.77354 0)
(-18.2923 2.55417 -3.82961e-17)
(-18.693 2.30371 3.79449e-17)
(-19.0517 2.01539 -3.76404e-17)
(-19.3799 1.73363 0)
(-19.6857 1.45283 0)
(-19.9722 1.17706 -7.35184e-17)
(-20.2503 0.913478 0)
(-20.5166 0.681134 -7.23521e-17)
(-20.7755 0.477507 -1.0773e-16)
(-20.9974 0.294214 1.06898e-16)
(-21.2125 0.133179 -7.07143e-17)
(-21.4037 0.0125861 0)
(-21.5567 -0.0848366 0)
(-21.6655 -0.160801 -6.91618e-17)
(-21.7762 -0.216645 -3.43439e-17)
(-21.8727 -0.23896 0)
(-21.9202 -0.265542 0)
(-21.9474 -0.284902 -3.35933e-17)
(-21.9673 -0.270307 -6.66899e-17)
(-21.9466 -0.279652 0)
(-21.8751 -0.280639 6.57431e-17)
(-21.7795 -0.266566 -6.52662e-17)
(-21.6437 -0.279339 6.47969e-17)
(-21.4719 -0.295292 0)
(-21.2307 -0.279406 0)
(-20.9108 -0.263853 0)
(-20.5616 -0.247131 0)
(-20.1513 -0.213123 0)
(-19.7176 -0.147332 6.19506e-17)
(-19.2225 -0.00877019 0)
(-18.7361 0.109955 0)
(-18.197 0.220401 0)
(-17.6607 0.366237 1.20184e-16)
(-17.0919 0.511168 5.96686e-17)
(-16.4771 0.668573 5.9224e-17)
(-15.8503 0.851591 -1.17552e-16)
(-15.192 1.03693 5.83604e-17)
(-14.4996 1.20012 -5.79969e-17)
(-13.7849 1.39251 0)
(-13.0512 1.60405 5.73175e-17)
(-12.3732 1.80005 0)
(-11.6573 1.97682 0)
(-10.9474 2.17916 0)
(-10.263 2.31396 1.12006e-16)
(-9.64624 2.54564 -5.57333e-17)
(-9.08414 2.67034 -5.54041e-17)
(-8.55275 2.86856 -1.10066e-16)
(-7.85012 3.13469 -1.63811e-16)
(-7.04525 3.28467 -5.41055e-17)
(-6.33985 3.25945 0)
(-5.66351 3.10617 -1.06351e-16)
(-5.08387 2.9507 0)
(-4.42093 3.229 -1.59194e-16)
(-3.60688 3.9402 0)
(-2.87386 4.56935 -1.54471e-16)
(-2.3822 4.76372 0)
(-2.09009 4.71198 0)
(-1.54526 4.59256 -5.14006e-17)
(-0.607601 4.91058 0)
(0.05201 5.2792 4.95459e-17)
(0.50528 5.20205 9.96837e-17)
(0.900115 5.29386 4.96144e-17)
(1.31857 5.62705 9.78894e-17)
(1.60223 5.68274 -9.80326e-17)
(2.24268 5.44613 -9.80391e-17)
(3.30314 5.74639 1.93302e-16)
(4.1775 6.27645 0)
(4.67265 6.64861 0)
(4.70514 6.90116 8.90863e-17)
(4.57698 6.80435 -8.85801e-17)
(4.25735 6.05484 0)
(3.6176 4.89625 0)
(2.87717 4.36368 8.65098e-17)
(2.11967 5.06386 0)
(1.27014 6.68269 -1.31877e-20)
(0.407221 8.49435 -1.22241e-20)
(-0.489471 9.71342 8.48164e-17)
(-1.89864 10.0729 0)
(-2.99569 9.59534 -8.36636e-17)
(-3.72142 9.2758 0)
(-4.7221 9.84331 8.21816e-17)
(-5.79002 10.7897 0)
(-7.10544 11.1185 0)
(-8.66996 11.117 -8.13002e-17)
(-10.1983 11.1689 -8.06679e-17)
(-10.0354 10.2555 0)
(-9.93695 8.19792 -8.07464e-17)
(-7.56262 5.84794 1.62648e-16)
(-7.90623 7.4513 0)
(-4.95132 6.08891 0)
(-5.79095 4.19587 0)
(-4.63987 5.28869 0)
(-3.29837 4.4389 7.918e-17)
(-2.68128 6.1608 -1.57725e-16)
(-0.833764 7.4273 0)
(-0.29047 8.585 0)
(0.0268281 8.91942 0)
(-0.523955 8.62744 0)
(-0.319567 7.75824 0)
(0.819394 8.09132 0)
(1.83932 9.10432 0)
(2.05437 10.3542 7.46186e-17)
(1.6796 11.2738 0)
(0.736172 12.1631 0)
(-0.565963 12.7948 7.36882e-17)
(-2.52783 12.8929 0)
(-4.26589 12.7162 0)
(-5.09903 12.9214 -6.97356e-17)
(-5.47017 13.5598 0)
(-5.70731 14.3388 0)
(-6.44608 14.9795 1.3038e-16)
(-7.32723 15.6231 1.29125e-16)
(-8.2345 16.0308 1.27637e-16)
(-9.81086 16.3025 0)