/*--------------------------------*- C++ -*----------------------------------*\
| =========                 |                                                 |
| \\      /  F ield         | OpenFOAM: The Open Source CFD Toolbox           |
|  \\    /   O peration     | Version:  dev                                   |
|   \\  /    A nd           | Web:      http://www.openfoam.org               |
|    \\/     M anipulation  |                                                 |
\*---------------------------------------------------------------------------*/
FoamFile
{
    version     2.0;
    format      ascii;
    class       volSymmTensorField;
    object      UPrime2Mean;
    location    "9.16";
}
// * * * * * * * * * * * * * * * * * * * * * * * * * * * * * * * * * * * * * //

dimensions      [0 2 -2 0 0 0 0];

internalField   nonuniform List<symmTensor> 
12225
(
(0.329314 0.0192537 0 0.0691795 0 0)
(2.98697 0.0796206 0 0.0780903 0 0)
(7.88252 0.112188 0 0.0767955 0 0)
(14.5384 0.148039 0 0.0754726 0 0)
(22.7092 0.132795 0 0.0764204 0 0)
(32.0757 0.20081 0 0.0745775 0 0)
(42.3908 0.0957057 0 0.0765207 0 0)
(53.5371 0.200059 0 0.0737612 0 0)
(65.6334 -0.0287256 0 0.0775257 0 0)
(78.2332 0.125271 0 0.0735349 0 0)
(92.9817 -0.30649 0 0.0812311 0 0)
(107.325 -0.11607 0 0.0769126 0 0)
(127.938 -0.6725 0 0.0862423 0 0)
(145.64 -1.27695 0 0.13462 0 0)
(185.967 -1.41149 0 0.116389 0 0)
(198.543 -0.393194 0 2.39325 0 0)
(272.334 -33.5378 0 5.808 0 0)
(575.863 -52.9395 0 18.8226 0 0)
(0.377496 0.0567483 0 0.688093 0 0)
(3.157 0.25201 0 0.731328 0 0)
(8.41307 0.361774 0 0.713215 0 0)
(15.4777 0.484877 0 0.705719 0 0)
(24.2038 0.452431 0 0.702599 0 0)
(34.4655 0.632071 0 0.682449 0 0)
(45.5356 0.295437 0 0.691257 0 0)
(58.4938 0.608167 0 0.657962 0 0)
(71.487 -0.135782 0 0.681832 0 0)
(87.1649 0.281802 0 0.645203 0 0)
(102.801 -1.06564 0 0.710527 0 0)
(121.447 -0.766459 0 0.654793 0 0)
(142.873 -2.54341 0 1.06825 0 0)
(166.335 -4.49006 0 1.04614 0 0)
(199.807 -0.929419 0 3.1024 0 0)
(274.394 -9.97494 0 6.60479 0 0)
(281.068 -20.8386 0 8.73644 0 0)
(799.948 -185.184 0 64.696 0 0)
(0.50499 0.0583262 0 2.13784 0 0)
(3.06474 0.424228 0 2.19968 0 0)
(8.46775 0.57 0 2.14868 0 0)
(14.8565 0.851042 0 2.14017 0 0)
(24.2813 0.863572 0 2.11712 0 0)
(33.1586 1.05188 0 2.07997 0 0)
(45.2806 0.755119 0 2.07577 0 0)
(56.2146 0.884925 0 2.00508 0 0)
(69.6997 0.171071 0 2.04926 0 0)
(83.4654 0.0156444 0 1.95704 0 0)
(98.2058 -1.12449 0 2.12029 0 0)
(115.687 -2.44906 0 2.09236 0 0)
(138.647 -3.59727 0 2.62036 0 0)
(154.905 -7.2002 0 2.82951 0 0)
(211.05 -13.009 0 6.12036 0 0)
(223.443 -7.89161 0 6.3757 0 0)
(353.074 -62.2651 0 31.0815 0 0)
(534.6 -192.512 0 98.2345 0 0)
(1.02939 0.0923312 0 4.66451 0 0)
(3.55002 0.618944 0 4.76096 0 0)
(9.07054 0.815126 0 4.63692 0 0)
(15.0701 1.14885 0 4.59623 0 0)
(24.642 1.31154 0 4.55203 0 0)
(32.9919 1.3483 0 4.4778 0 0)
(45.0155 1.2596 0 4.44291 0 0)
(55.1811 0.971547 0 4.34456 0 0)
(68.6159 0.473891 0 4.37642 0 0)
(80.7322 -0.284694 0 4.25299 0 0)
(96.0575 -1.3331 0 4.50247 0 0)
(110.539 -3.3437 0 4.36772 0 0)
(131.503 -4.7959 0 5.29792 0 0)
(152.287 -10.9742 0 5.60401 0 0)
(187.898 -11.4308 0 9.28507 0 0)
(238.471 -28.8665 0 16.8202 0 0)
(291.529 -58.9228 0 32.6763 0 0)
(414.877 -178.327 0 107.833 0 0)
(1.86341 0.364843 0 8.51188 0 0)
(5.00997 0.71977 0 8.71316 0 0)
(9.4378 1.13902 0 8.4623 0 0)
(16.2458 1.29342 0 8.35931 0 0)
(24.6547 1.69902 0 8.26985 0 0)
(33.955 1.50054 0 8.13494 0 0)
(44.8312 1.59543 0 8.03448 0 0)
(55.5363 0.990413 0 7.90265 0 0)
(68.4315 0.597493 0 7.84987 0 0)
(80.1408 -0.597001 0 7.75234 0 0)
(95.3939 -1.78232 0 7.95433 0 0)
(108.583 -4.23143 0 7.90195 0 0)
(128.127 -6.88357 0 9.0194 0 0)
(145.256 -12.2919 0 9.26147 0 0)
(174 -19.2048 0 14.5849 0 0)
(217.934 -25.9605 0 17.2054 0 0)
(233.716 -55.5834 0 46.2592 0 0)
(326.699 -171.746 0 138.653 0 0)
(2.56233 0.750196 0 14.0222 0 0)
(6.32575 0.806694 0 14.3736 0 0)
(9.30267 1.53873 0 13.9443 0 0)
(17.1006 1.59311 0 13.7498 0 0)
(24.1472 2.11851 0 13.5753 0 0)
(34.2748 1.93428 0 13.3436 0 0)
(43.9874 1.9882 0 13.1389 0 0)
(55.1853 1.41211 0 12.8985 0 0)
(67.3457 0.890777 0 12.7624 0 0)
(78.9295 -0.390211 0 12.5618 0 0)
(94.4501 -1.74277 0 12.763 0 0)
(105.855 -4.31719 0 12.6718 0 0)
(128.145 -7.27113 0 13.9752 0 0)
(137.97 -13.1614 0 14.6552 0 0)
(171.008 -21.8398 0 21.2392 0 0)
(191.519 -33.046 0 24.5918 0 0)
(211.108 -55.9184 0 51.5586 0 0)
(265.705 -145.653 0 130.614 0 0)
(2.2451 0.721308 0 21.5051 0 0)
(5.54491 0.94066 0 22.1205 0 0)
(9.20293 1.76223 0 21.3471 0 0)
(16.3447 2.0756 0 21.1596 0 0)
(23.9806 2.44727 0 20.7616 0 0)
(33.3743 2.53972 0 20.5287 0 0)
(43.6252 2.27052 0 20.0612 0 0)
(54.0664 1.92404 0 19.8315 0 0)
(66.5064 0.892139 0 19.4147 0 0)
(77.3855 -0.223415 0 19.2621 0 0)
(92.5455 -2.37745 0 19.2035 0 0)
(103.528 -4.82863 0 19.2464 0 0)
(123.676 -8.98715 0 20.4574 0 0)
(133.96 -14.2662 0 21.4359 0 0)
(161.579 -24.4071 0 28.4994 0 0)
(169.42 -32.4145 0 32.037 0 0)
(203.417 -59.0129 0 56.845 0 0)
(190.292 -108.774 0 114.112 0 0)
(1.425 0.598457 0 29.7166 0 0)
(4.32324 1.13402 0 30.6011 0 0)
(8.5859 1.92241 0 29.4553 0 0)
(15.2562 2.47033 0 29.2842 0 0)
(23.2143 2.77431 0 28.6398 0 0)
(32.276 2.95963 0 28.3791 0 0)
(42.433 2.59378 0 27.6286 0 0)
(52.8065 2.1861 0 27.3485 0 0)
(64.4481 1.0016 0 26.626 0 0)
(75.6378 -0.369612 0 26.4614 0 0)
(88.6726 -2.75879 0 26.0794 0 0)
(100.459 -5.74245 0 26.3045 0 0)
(115.578 -10.329 0 27.0622 0 0)
(128.11 -15.8068 0 28.5777 0 0)
(144.7 -26.4978 0 33.8921 0 0)
(152.063 -33.465 0 37.458 0 0)
(180.371 -54.8982 0 53.1635 0 0)
(139.627 -71.3168 0 83.6711 0 0)
(1.00778 0.521084 0 38.4765 0 0)
(3.77931 1.287 0 39.6695 0 0)
(8.18241 2.03404 0 38.1339 0 0)
(14.7319 2.77708 0 37.993 0 0)
(22.6597 3.00232 0 37.0843 0 0)
(31.5956 3.31134 0 36.8096 0 0)
(41.5169 2.79971 0 35.76 0 0)
(51.7894 2.46707 0 35.442 0 0)
(62.8478 1.03148 0 34.435 0 0)
(73.8638 -0.289083 0 34.2357 0 0)
(85.6837 -3.05445 0 33.6066 0 0)
(97.043 -5.91274 0 33.867 0 0)
(109.372 -10.9581 0 34.3776 0 0)
(121.246 -16.0489 0 36.098 0 0)
(131.256 -25.5714 0 39.9815 0 0)
(138.177 -33.2152 0 44.7123 0 0)
(150.025 -47.3284 0 52.4404 0 0)
(123.24 -58.7573 0 73.0958 0 0)
(0.61222 0.484264 0 49.6487 0 0)
(3.23645 1.44478 0 51.235 0 0)
(7.74323 2.18451 0 49.1412 0 0)
(14.2015 3.03279 0 49.0538 0 0)
(21.9969 3.26933 0 47.7662 0 0)
(30.8559 3.57389 0 47.4872 0 0)
(40.4818 3.05869 0 46.0279 0 0)
(50.6176 2.62909 0 45.6599 0 0)
(61.1427 1.15328 0 44.2426 0 0)
(71.8116 -0.303048 0 44 0 0)
(82.6941 -3.15289 0 42.9579 0 0)
(93.2373 -6.0505 0 43.2779 0 0)
(103.878 -11.1058 0 43.2803 0 0)
(113.742 -15.8579 0 45.1379 0 0)
(121.352 -24.5169 0 47.6427 0 0)
(125.79 -30.5812 0 51.9138 0 0)
(129.127 -40.7267 0 56.4362 0 0)
(116.032 -48.3969 0 68.999 0 0)
(0.434145 0.515814 0 63.8251 0 0)
(2.97936 1.62592 0 65.8776 0 0)
(7.47063 2.38106 0 63.1892 0 0)
(13.8476 3.30653 0 63.0774 0 0)
(21.4944 3.56478 0 61.4457 0 0)
(30.1931 3.85292 0 61.0317 0 0)
(39.5524 3.34879 0 59.2261 0 0)
(49.3911 2.8094 0 58.6323 0 0)
(59.4612 1.35904 0 56.9141 0 0)
(69.5643 -0.279481 0 56.3976 0 0)
(79.6597 -2.99516 0 55.0975 0 0)
(89.1942 -6.09613 0 55.155 0 0)
(98.5113 -10.5683 0 54.8112 0 0)
(106.388 -15.4312 0 56.3603 0 0)
(112.553 -22.1459 0 57.8062 0 0)
(115.086 -28.0609 0 61.5369 0 0)
(116.032 -35.2064 0 64.5047 0 0)
(109.582 -40.8048 0 71.404 0 0)
(0.356355 0.54008 0 81.2961 0 0)
(2.83168 1.74302 0 83.978 0 0)
(7.26235 2.55194 0 80.5146 0 0)
(13.5171 3.4969 0 80.4054 0 0)
(20.9905 3.80323 0 78.3216 0 0)
(29.4691 4.02944 0 77.7692 0 0)
(38.5261 3.55193 0 75.4831 0 0)
(47.9952 2.90897 0 74.6597 0 0)
(57.5479 1.46933 0 72.4707 0 0)
(67.04 -0.236007 0 71.6854 0 0)
(76.252 -2.8866 0 69.9331 0 0)
(84.8369 -5.87243 0 69.6759 0 0)
(92.7422 -9.97704 0 68.8433 0 0)
(99.1704 -14.3056 0 69.7989 0 0)
(103.884 -19.7519 0 70.444 0 0)
(105.828 -24.6647 0 72.9501 0 0)
(105.984 -29.8295 0 74.8946 0 0)
(101.739 -33.314 0 78.5531 0 0)
(0.329277 0.568487 0 102.348 0 0)
(2.73624 1.80459 0 105.553 0 0)
(7.06921 2.67967 0 101.532 0 0)
(13.1558 3.57835 0 101.063 0 0)
(20.4338 3.92705 0 98.802 0 0)
(28.6173 4.04673 0 97.7237 0 0)
(37.3497 3.60579 0 95.2123 0 0)
(46.3489 2.8228 0 93.7649 0 0)
(55.3763 1.46212 0 91.3319 0 0)
(64.1559 -0.355527 0 89.8833 0 0)
(72.5335 -2.774 0 87.86 0 0)
(80.1222 -5.70535 0 86.8886 0 0)
(86.8424 -9.21564 0 85.68 0 0)
(92.1025 -13.1046 0 85.6898 0 0)
(95.8038 -17.3224 0 85.6427 0 0)
(97.3885 -21.3888 0 86.7869 0 0)
(97.4912 -25.2329 0 87.8169 0 0)
(94.6876 -27.6881 0 89.4244 0 0)
(0.313682 0.572695 0 126.312 0 0)
(2.64089 1.77176 0 130.236 0 0)
(6.84837 2.66399 0 125.532 0 0)
(12.7315 3.45816 0 124.723 0 0)
(19.7674 3.78488 0 122.195 0 0)
(27.617 3.79789 0 120.621 0 0)
(35.9574 3.32355 0 117.741 0 0)
(44.4658 2.47592 0 115.711 0 0)
(52.9014 1.12052 0 112.854 0 0)
(60.9938 -0.643212 0 110.766 0 0)
(68.5416 -2.91152 0 108.279 0 0)
(75.2639 -5.54364 0 106.556 0 0)
(81.0009 -8.59892 0 104.792 0 0)
(85.4494 -11.8223 0 103.791 0 0)
(88.4945 -15.185 0 102.962 0 0)
(89.9321 -18.3524 0 102.791 0 0)
(90.2346 -21.2711 0 102.807 0 0)
(88.272 -22.9183 0 102.962 0 0)
(0.299287 0.524251 0 151.697 0 0)
(2.53295 1.57965 0 156.193 0 0)
(6.5842 2.37421 0 151.069 0 0)
(12.2337 2.98334 0 149.632 0 0)
(18.9743 3.20604 0 147.076 0 0)
(26.4525 3.0634 0 144.766 0 0)
(34.3521 2.52245 0 141.681 0 0)
(42.3404 1.59 0 138.878 0 0)
(50.1762 0.260367 0 135.683 0 0)
(57.5944 -1.44468 0 132.81 0 0)
(64.4064 -3.50653 0 129.863 0 0)
(70.3843 -5.84417 0 127.294 0 0)
(75.3977 -8.421 0 124.895 0 0)
(79.284 -11.073 0 122.897 0 0)
(81.9819 -13.7108 0 121.187 0 0)
(83.3997 -16.1754 0 119.851 0 0)
(83.9822 -18.3737 0 118.765 0 0)
(82.7755 -19.4204 0 117.658 0 0)
(0.284005 0.393724 0 174.891 0 0)
(2.41457 1.14401 0 180.084 0 0)
(6.284 1.66821 0 174.482 0 0)
(11.672 1.99984 0 172.602 0 0)
(18.0789 1.99657 0 169.923 0 0)
(25.1586 1.65943 0 167.075 0 0)
(32.5903 0.978604 0 163.693 0 0)
(40.0584 -0.0304656 0 160.3 0 0)
(47.3156 -1.36487 0 156.687 0 0)
(54.1287 -2.97674 0 153.178 0 0)
(60.3197 -4.84496 0 149.695 0 0)
(65.7244 -6.87565 0 146.408 0 0)
(70.2379 -9.02972 0 143.315 0 0)
(73.7872 -11.1775 0 140.465 0 0)
(76.3427 -13.2411 0 137.878 0 0)
(77.8689 -15.1405 0 135.557 0 0)
(78.7508 -16.7878 0 133.449 0 0)
(78.2026 -17.3863 0 131.254 0 0)
(0.268785 0.15626 0 189.983 0 0)
(2.29374 0.390705 0 195.649 0 0)
(5.96752 0.488476 0 189.761 0 0)
(11.0764 0.409874 0 187.62 0 0)
(17.1332 0.0732392 0 184.877 0 0)
(23.8051 -0.53508 0 181.71 0 0)
(30.7751 -1.40417 0 178.135 0 0)
(37.7476 -2.5263 0 174.387 0 0)
(44.4865 -3.87584 0 170.48 0 0)
(50.7856 -5.41565 0 166.565 0 0)
(56.4919 -7.10228 0 162.678 0 0)
(61.484 -8.87062 0 158.903 0 0)
(65.6862 -10.6662 0 155.272 0 0)
(69.0693 -12.4111 0 151.815 0 0)
(71.6262 -14.0293 0 148.554 0 0)
(73.3456 -15.4992 0 145.514 0 0)
(74.5405 -16.7352 0 142.626 0 0)
(74.5854 -17.057 0 139.636 0 0)
(0.259138 -0.142184 0 189.956 0 0)
(2.19623 -0.533359 0 195.579 0 0)
(5.69091 -0.936347 0 189.755 0 0)
(10.5436 -1.49108 0 187.605 0 0)
(16.2847 -2.21108 0 184.905 0 0)
(22.5965 -3.11308 0 181.744 0 0)
(29.171 -4.18623 0 178.194 0 0)
(35.7354 -5.42477 0 174.449 0 0)
(42.0671 -6.79824 0 170.528 0 0)
(47.9884 -8.27799 0 166.581 0 0)
(53.3632 -9.81727 0 162.612 0 0)
(58.1031 -11.3736 0 158.731 0 0)
(62.1472 -12.894 0 154.923 0 0)
(65.4892 -14.3352 0 151.264 0 0)
(68.1281 -15.6319 0 147.728 0 0)
(70.0691 -16.7913 0 144.394 0 0)
(71.5457 -17.7379 0 141.15 0 0)
(72.0801 -17.9433 0 137.825 0 0)
(0.255963 -0.395701 0 174.158 0 0)
(2.13703 -1.30431 0 179.103 0 0)
(5.50015 -2.12476 0 173.779 0 0)
(10.163 -3.07219 0 171.789 0 0)
(15.6706 -4.09973 0 169.31 0 0)
(21.7183 -5.2281 0 166.424 0 0)
(28.0088 -6.45021 0 163.177 0 0)
(34.2876 -7.76293 0 159.757 0 0)
(40.3446 -9.13782 0 156.156 0 0)
(46.0233 -10.555 0 152.532 0 0)
(51.1982 -11.9724 0 148.852 0 0)
(55.8013 -13.3636 0 145.25 0 0)
(59.7792 -14.6836 0 141.672 0 0)
(63.1358 -15.9093 0 138.224 0 0)
(65.8694 -16.9892 0 134.845 0 0)
(67.9973 -17.9385 0 131.648 0 0)
(69.6885 -18.6959 0 128.497 0 0)
(70.5861 -18.884 0 125.302 0 0)
(0.257412 -0.544595 0 148.754 0 0)
(2.10922 -1.7448 0 152.706 0 0)
(5.38568 -2.81886 0 148.176 0 0)
(9.92087 -4.00083 0 146.46 0 0)
(15.2718 -5.20327 0 144.342 0 0)
(21.1426 -6.45114 0 141.891 0 0)
(27.2454 -7.73644 0 139.13 0 0)
(33.3382 -9.06097 0 136.229 0 0)
(39.2212 -10.3974 0 133.161 0 0)
(44.7507 -11.7357 0 130.073 0 0)
(49.8115 -13.0377 0 126.921 0 0)
(54.3441 -14.2901 0 123.83 0 0)
(58.3025 -15.4536 0 120.739 0 0)
(61.6921 -16.5192 0 117.755 0 0)
(64.5122 -17.4434 0 114.81 0 0)
(66.7848 -18.2452 0 112.016 0 0)
(68.6351 -18.874 0 109.247 0 0)
(69.7958 -19.0838 0 106.459 0 0)
(0.260262 -0.600345 0 119.888 0 0)
(2.10024 -1.88684 0 122.853 0 0)
(5.31958 -3.06317 0 119.21 0 0)
(9.76937 -4.33454 0 117.818 0 0)
(15.0154 -5.59138 0 116.114 0 0)
(20.7686 -6.85979 0 114.152 0 0)
(26.7475 -8.12949 0 111.941 0 0)
(32.7197 -9.40579 0 109.618 0 0)
(38.4923 -10.6633 0 107.157 0 0)
(43.9303 -11.899 0 104.676 0 0)
(48.9259 -13.079 0 102.137 0 0)
(53.4246 -14.1987 0 99.6417 0 0)
(57.3852 -15.2239 0 97.1402 0 0)
(60.8124 -16.1542 0 94.718 0 0)
(63.7065 -16.9529 0 92.3229 0 0)
(66.0925 -17.6394 0 90.0425 0 0)
(68.0649 -18.1728 0 87.7806 0 0)
(69.4243 -18.4085 0 85.5085 0 0)
(0.263209 -0.58961 0 91.7731 0 0)
(2.09987 -1.82724 0 93.8856 0 0)
(5.28177 -2.99229 0 91.0981 0 0)
(9.67467 -4.24105 0 90.0258 0 0)
(14.8502 -5.45987 0 88.728 0 0)
(20.5247 -6.67114 0 87.235 0 0)
(26.4219 -7.86443 0 85.5564 0 0)
(32.3152 -9.04466 0 83.7867 0 0)
(38.0177 -10.1912 0 81.9132 0 0)
(43.3994 -11.3026 0 80.0185 0 0)
(48.3585 -12.3521 0 78.0801 0 0)
(52.8428 -13.3379 0 76.168 0 0)
(56.8147 -14.2326 0 74.2523 0 0)
(60.2773 -15.0387 0 72.3913 0 0)
(63.2323 -15.728 0 70.5524 0 0)
(65.7069 -16.3156 0 68.7947 0 0)
(67.7737 -16.7722 0 67.0542 0 0)
(69.286 -17.0217 0 65.3036 0 0)
(0.266282 -0.535905 0 66.851 0 0)
(2.10369 -1.64839 0 68.2894 0 0)
(5.26042 -2.72669 0 66.2602 0 0)
(9.61557 -3.87802 0 65.4782 0 0)
(14.7438 -4.99622 0 64.5412 0 0)
(20.3659 -6.09716 0 63.4606 0 0)
(26.2096 -7.17281 0 62.2478 0 0)
(32.0518 -8.22503 0 60.9637 0 0)
(37.7103 -9.23901 0 59.6064 0 0)
(43.0585 -10.2122 0 58.2283 0 0)
(47.9985 -11.1255 0 56.8211 0 0)
(52.4797 -11.9764 0 55.4282 0 0)
(56.4666 -12.7454 0 54.036 0 0)
(59.9613 -13.4342 0 52.6789 0 0)
(62.9664 -14.0233 0 51.3406 0 0)
(65.51 -14.522 0 50.0564 0 0)
(67.6493 -14.9118 0 48.7883 0 0)
(69.2794 -15.1596 0 47.5089 0 0)
(0.26814 -0.462181 0 46.2324 0 0)
(2.1081 -1.41384 0 47.1699 0 0)
(5.24856 -2.36036 0 45.7709 0 0)
(9.57874 -3.37035 0 45.2335 0 0)
(14.6753 -4.35024 0 44.593 0 0)
(20.2628 -5.30943 0 43.8501 0 0)
(26.0719 -6.2429 0 43.0171 0 0)
(31.8817 -7.14892 0 42.1308 0 0)
(37.5135 -8.01856 0 41.1964 0 0)
(42.8423 -8.8471 0 40.2444 0 0)
(47.7732 -9.62229 0 39.2757 0 0)
(52.2564 -10.3401 0 38.3142 0 0)
(56.2578 -10.9883 0 37.3559 0 0)
(59.7785 -11.5661 0 36.419 0 0)
(62.8216 -12.0614 0 35.497 0 0)
(65.416 -12.478 0 34.609 0 0)
(67.6074 -12.8058 0 33.7352 0 0)
(69.3233 -13.0361 0 32.8503 0 0)
(0.269289 -0.382502 0 30.1206 0 0)
(2.11162 -1.16298 0 30.7042 0 0)
(5.24179 -1.95554 0 29.7952 0 0)
(9.55523 -2.80342 0 29.4484 0 0)
(14.6305 -3.6261 0 29.0367 0 0)
(20.1947 -4.42975 0 28.5567 0 0)
(25.9808 -5.2106 0 28.0182 0 0)
(31.7685 -5.96564 0 27.4432 0 0)
(37.3814 -6.68833 0 26.8379 0 0)
(42.6957 -7.37393 0 26.2203 0 0)
(47.6182 -8.01387 0 25.593 0 0)
(52.0988 -8.604 0 24.9694 0 0)
(56.1055 -9.13636 0 24.3492 0 0)
(59.6384 -9.60904 0 23.7413 0 0)
(62.7012 -10.0145 0 23.1439 0 0)
(65.3215 -10.353 0 22.567 0 0)
(67.5397 -10.6201 0 22.0007 0 0)
(69.3087 -10.8177 0 21.4258 0 0)
(0.269602 -0.30414 0 18.189 0 0)
(2.11337 -0.918476 0 18.5328 0 0)
(5.23641 -1.55194 0 17.9828 0 0)
(9.53581 -2.23398 0 17.777 0 0)
(14.592 -2.89735 0 17.5343 0 0)
(20.1342 -3.54665 0 17.2501 0 0)
(25.8958 -4.17711 0 16.9302 0 0)
(31.6579 -4.78544 0 16.5877 0 0)
(37.2452 -5.36507 0 16.2264 0 0)
(42.5342 -5.91251 0 15.8568 0 0)
(47.4342 -6.42049 0 15.4807 0 0)
(51.8937 -6.88665 0 15.106 0 0)
(55.8847 -7.30415 0 14.733 0 0)
(59.4047 -7.67271 0 14.3667 0 0)
(62.4623 -7.98651 0 14.0066 0 0)
(65.0798 -8.24614 0 13.6581 0 0)
(67.3012 -8.45075 0 13.3166 0 0)
(69.0976 -8.60113 0 12.9702 0 0)
(0.269252 -0.227931 0 9.86981 0 0)
(2.1111 -0.690281 0 10.0531 0 0)
(5.21917 -1.17702 0 9.75628 0 0)
(9.49231 -1.70607 0 9.65403 0 0)
(14.5183 -2.21986 0 9.52977 0 0)
(20.0271 -2.71973 0 9.38075 0 0)
(25.7517 -3.20134 0 9.21028 0 0)
(31.4759 -3.6622 0 9.02628 0 0)
(37.024 -4.09656 0 8.83077 0 0)
(42.2758 -4.50287 0 8.63003 0 0)
(47.1398 -4.87551 0 8.42463 0 0)
(51.5692 -5.21464 0 8.21976 0 0)
(55.5348 -5.51447 0 8.01485 0 0)
(59.0386 -5.77718 0 7.81386 0 0)
(62.0878 -5.99667 0 7.61583 0 0)
(64.7043 -6.17648 0 7.42478 0 0)
(66.9294 -6.31957 0 7.23825 0 0)
(68.7591 -6.42162 0 7.05029 0 0)
(0.268106 -0.154578 0 4.48038 0 0)
(2.08424 -0.497159 0 4.5759 0 0)
(5.15789 -0.851161 0 4.45087 0 0)
(9.39149 -1.22703 0 4.41527 0 0)
(14.3919 -1.58363 0 4.36426 0 0)
(19.8751 -1.92555 0 4.29991 0 0)
(25.5732 -2.25017 0 4.22268 0 0)
(31.2714 -2.55523 0 4.1363 0 0)
(36.7964 -2.83912 0 4.04338 0 0)
(42.0275 -3.10303 0 3.94768 0 0)
(46.8747 -3.34403 0 3.84999 0 0)
(51.2948 -3.56297 0 3.75302 0 0)
(55.2546 -3.75612 0 3.65626 0 0)
(58.7643 -3.92553 0 3.5624 0 0)
(61.8201 -4.06508 0 3.46985 0 0)
(64.4554 -4.18009 0 3.3825 0 0)
(66.6777 -4.27055 0 3.29737 0 0)
(68.5355 -4.34058 0 3.21328 0 0)
(0.255216 -0.0880542 0 1.41919 0 0)
(2.06829 -0.312995 0 1.48485 0 0)
(5.20637 -0.525234 0 1.44485 0 0)
(9.49843 -0.733309 0 1.43172 0 0)
(14.5522 -0.923149 0 1.41162 0 0)
(20.0868 -1.10555 0 1.38838 0 0)
(25.8411 -1.28199 0 1.36178 0 0)
(31.5984 -1.44994 0 1.33248 0 0)
(37.185 -1.60773 0 1.30153 0 0)
(42.4751 -1.75519 0 1.26996 0 0)
(47.3819 -1.89082 0 1.23819 0 0)
(51.8543 -2.01462 0 1.20681 0 0)
(55.864 -2.12457 0 1.17581 0 0)
(59.4134 -2.22133 0 1.14588 0 0)
(62.5026 -2.30081 0 1.11665 0 0)
(65.1693 -2.36699 0 1.0902 0 0)
(67.3914 -2.41958 0 1.06502 0 0)
(69.2412 -2.45905 0 1.0381 0 0)
(0.245902 -0.0252875 0 0.141665 0 0)
(2.06611 -0.0976784 0 0.153433 0 0)
(5.18522 -0.165311 0 0.150651 0 0)
(9.44641 -0.230457 0 0.149483 0 0)
(14.4815 -0.293268 0 0.147182 0 0)
(20.0033 -0.353523 0 0.144457 0 0)
(25.751 -0.412274 0 0.141462 0 0)
(31.5058 -0.468713 0 0.138335 0 0)
(37.0994 -0.522003 0 0.135116 0 0)
(42.4074 -0.571963 0 0.131868 0 0)
(47.3445 -0.618283 0 0.128614 0 0)
(51.8577 -0.660937 0 0.125416 0 0)
(55.9207 -0.69935 0 0.122276 0 0)
(59.5286 -0.733377 0 0.119256 0 0)
(62.688 -0.762286 0 0.116435 0 0)
(65.4315 -0.787517 0 0.114101 0 0)
(67.7437 -0.805723 0 0.11203 0 0)
(69.6712 -0.815011 0 0.111648 0 0)
(0.0244723 0.0357336 0 0.716602 0 0)
(0.267134 0.099015 0 0.67772 0 0)
(0.785051 0.180749 0 0.670566 0 0)
(1.53809 0.294687 0 0.661351 0 0)
(2.48458 0.423555 0 0.659746 0 0)
(3.60633 0.568206 0 0.656469 0 0)
(4.88137 0.71512 -2.38344e-19 0.654493 -6.46974e-20 1.47708e-37)
(6.30684 0.865889 2.42415e-19 0.650176 6.89898e-20 1.4816e-37)
(7.87608 1.0127 0 0.644164 0 0)
(9.58712 1.15998 2.44963e-19 0.636594 6.84137e-20 1.45945e-37)
(11.4348 1.30386 0 0.628019 0 0)
(13.4131 1.44659 0 0.618937 0 0)
(15.5155 1.58356 0 0.610996 0 0)
(17.7357 1.71511 -2.77623e-19 0.604542 -5.15924e-20 1.34609e-37)
(20.0674 1.83808 0 0.598345 0 0)
(22.5111 1.95156 0 0.593129 0 0)
(25.0671 2.05138 3.40681e-19 0.588848 3.90005e-20 1.21975e-37)
(27.7339 2.13916 0 0.584413 0 0)
(30.5067 2.21753 0 0.579766 0 0)
(33.3795 2.28871 0 0.575337 0 0)
(36.3367 2.35175 -4.56218e-19 0.572014 -1.9603e-20 1.0169e-37)
(39.3686 2.40744 0 0.568263 0 0)
(42.4615 2.4539 -5.15787e-19 0.566012 -1.03471e-20 9.24426e-38)
(45.6063 2.49094 0 0.567222 0 0)
(48.7868 2.52469 0 0.567993 0 0)
(51.9889 2.54776 -6.0372e-19 0.57017 1.16962e-21 7.97049e-38)
(55.2057 2.54994 0 0.572008 0 0)
(58.4414 2.53251 6.57284e-19 0.570492 -6.90096e-21 7.21081e-38)
(61.69 2.50149 0 0.562649 0 0)
(64.9572 2.45874 -7.01991e-19 0.552275 1.04578e-20 6.53458e-38)
(68.2414 2.40685 0 0.538762 0 0)
(71.5302 2.34831 0 0.523015 0 0)
(74.8157 2.28301 0 0.509055 0 0)
(78.0996 2.20723 0 0.497698 0 0)
(81.3755 2.12036 0 0.486103 0 0)
(84.6401 2.02526 7.79192e-19 0.475139 -1.40312e-20 4.59531e-38)
(87.8922 1.92166 0 0.463513 0 0)
(91.1328 1.80942 -1.56178e-18 0.447529 2.72243e-20 1.61215e-37)
(94.3605 1.69021 0 0.431985 0 0)
(97.5703 1.56297 1.55194e-18 0.417384 -2.6207e-20 1.39828e-37)
(100.755 1.43016 0 0.402265 0 0)
(103.914 1.28817 0 0.390616 0 0)
(107.038 1.13792 -1.51406e-18 0.37808 2.15895e-20 1.11163e-37)
(110.11 0.985319 0 0.365292 0 0)
(113.115 0.830662 -1.47557e-18 0.354504 1.82908e-20 9.42445e-38)
(116.038 0.672771 1.45312e-18 0.34566 -1.65653e-20 8.6559e-38)
(118.863 0.508852 0 0.339453 0 0)
(121.583 0.338795 1.40236e-18 0.334554 -1.25204e-20 7.33533e-38)
(124.18 0.163585 1.37419e-18 0.330736 -1.06467e-20 6.78925e-38)
(126.657 -0.0140884 0 0.327557 0 0)
(128.996 -0.193252 0 0.325402 0 0)
(131.181 -0.376634 0 0.322661 0 0)
(133.19 -0.565009 0 0.321407 0 0)
(135.002 -0.755678 0 0.323437 0 0)
(136.591 -0.945344 -1.17399e-18 0.327649 -4.39225e-21 5.01163e-38)
(137.928 -1.13646 0 0.33176 0 0)
(139.002 -1.33228 1.07942e-18 0.335472 1.14711e-20 4.7469e-38)
(139.814 -1.53474 0 0.340735 0 0)
(140.362 -1.74353 0 0.347543 0 0)
(140.629 -1.94961 -9.11651e-19 0.356814 -2.24364e-20 4.74798e-38)
(140.611 -2.15392 0 0.368742 0 0)
(140.291 -2.35906 7.80445e-19 0.380758 3.12196e-20 4.9649e-38)
(139.676 -2.56307 0 0.39106 0 0)
(138.761 -2.76708 0 0.403852 0 0)
(137.556 -2.97027 0 0.418092 0 0)
(136.075 -3.16635 -4.82661e-19 0.432638 -4.75264e-20 6.03038e-38)
(134.32 -3.35531 0 0.447209 0 0)
(132.303 -3.53783 0 0.460275 0 0)
(130.036 -3.71332 -2.27052e-19 0.474187 -6.11887e-20 7.29846e-38)
(127.538 -3.88708 0 0.490082 0 0)
(124.843 -4.05267 -5.12471e-20 0.505409 -6.98922e-20 8.29631e-38)
(121.966 -4.20506 0 0.520344 0 0)
(118.923 -4.34607 0 0.536544 0 0)
(115.748 -4.47755 0 0.553816 0 0)
(112.464 -4.59931 -3.04806e-19 0.571801 8.31212e-20 1.04497e-37)
(109.089 -4.709 0 0.589792 0 0)
(105.64 -4.80325 0 0.607565 0 0)
(102.127 -4.88226 -5.64178e-19 0.625504 9.02647e-20 1.20112e-37)
(98.5643 -4.95039 -6.45995e-19 0.644157 9.18096e-20 1.25219e-37)
(94.9772 -5.00738 0 0.662857 0 0)
(91.3966 -5.05239 -7.99062e-19 0.68249 9.45858e-20 1.34636e-37)
(87.8433 -5.08609 0 0.703599 0 0)
(84.3377 -5.10793 -1.87773e-18 0.725127 1.92491e-19 5.74204e-37)
(80.8942 -5.11683 0 0.747755 0 0)
(77.5308 -5.11124 -2.12262e-18 0.770313 1.93627e-19 6.07373e-37)
(74.2658 -5.08937 0 0.793246 0 0)
(71.1136 -5.05454 2.32522e-18 0.819179 -1.93776e-19 6.36377e-37)
(68.0918 -5.00649 0 0.844179 0 0)
(65.2147 -4.93984 0 0.866482 0 0)
(62.4821 -4.8544 0 0.889168 0 0)
(59.8981 -4.7523 -2.58598e-18 0.91417 1.86194e-19 6.79741e-37)
(57.4687 -4.63593 0 0.938756 0 0)
(55.203 -4.50354 2.64688e-18 0.963011 -1.79922e-19 6.94475e-37)
(53.104 -4.35492 0 0.986763 0 0)
(51.1604 -4.18412 -2.65887e-18 1.01033 1.7358e-19 7.03345e-37)
(49.3672 -3.99659 -2.64972e-18 1.03163 1.70353e-19 7.0687e-37)
(47.7122 -3.79638 -2.63072e-18 1.05287 1.66175e-19 7.09544e-37)
(46.1913 -3.58723 0 1.07525 0 0)
(44.7778 -3.36806 0 1.09832 0 0)
(43.482 -3.13963 0 1.11787 0 0)
(42.2845 -2.90218 0 1.13777 0 0)
(41.1819 -2.66314 0 1.15762 0 0)
(40.1551 -2.42347 0 1.17668 0 0)
(39.2008 -2.18119 0 1.19179 0 0)
(38.2729 -1.93762 0 1.20781 0 0)
(37.3693 -1.70108 2.02524e-18 1.22318 -1.31508e-19 7.07461e-37)
(36.4567 -1.47274 1.91135e-18 1.24032 -1.24249e-19 7.06862e-37)
(35.5599 -1.25381 0 1.25199 0 0)
(34.6448 -1.04353 0 1.26506 0 0)
(33.7199 -0.856935 0 1.27914 0 0)
(32.7358 -0.680982 1.35461e-18 1.2916 -1.0465e-19 6.91077e-37)
(31.7917 -0.530711 0 1.29878 0 0)
(30.7804 -0.388276 0 1.30868 0 0)
(29.8215 -0.285527 0 1.31886 0 0)
(28.8939 -0.202232 0 1.33205 0 0)
(28.0635 -0.151744 -4.38817e-19 1.34051 7.57276e-20 6.66092e-37)
(27.3638 -0.125656 0 1.34987 0 0)
(26.8249 -0.134752 0 1.36336 0 0)
(26.5354 -0.177456 -2.22612e-19 1.37126 -6.55616e-20 6.42651e-37)
(26.4909 -0.246003 4.49576e-19 1.38413 6.12533e-20 6.30019e-37)
(26.7427 -0.355823 0 1.40112 0 0)
(27.3484 -0.512101 9.12026e-19 1.41879 6.01509e-20 6.05195e-37)
(28.3666 -0.709878 0 1.43813 0 0)
(29.8667 -0.961626 -1.35312e-18 1.45519 -6.44135e-20 5.75502e-37)
(31.8645 -1.24809 0 1.47797 0 0)
(34.4312 -1.58332 0 1.50501 0 0)
(37.4685 -1.96094 0 1.5377 0 0)
(41.0816 -2.38875 0 1.57199 0 0)
(45.1259 -2.84264 0 1.61022 0 0)
(49.6065 -3.34445 4.89666e-18 1.65245 2.04642e-19 1.97178e-36)
(54.4668 -3.89008 5.15189e-18 1.69869 2.30411e-19 1.93721e-36)
(59.7245 -4.47187 0 1.7472 0 0)
(65.1862 -5.07411 0 1.80288 0 0)
(70.8035 -5.70092 0 1.85814 0 0)
(76.4288 -6.3147 -5.69324e-18 1.91891 -3.52219e-19 1.91725e-36)
(81.839 -6.92963 0 1.99 0 0)
(86.9955 -7.55135 0 2.06234 0 0)
(91.8395 -8.16609 0 2.1387 0 0)
(96.2887 -8.7569 -5.33438e-18 2.21716 -5.33435e-19 2.07215e-36)
(100.307 -9.32282 5.10095e-18 2.30212 5.83211e-19 2.13452e-36)
(103.719 -9.84625 0 2.39158 0 0)
(106.627 -10.3563 0 2.48422 0 0)
(109.003 -10.8109 4.08058e-18 2.5787 7.35424e-19 2.36626e-36)
(110.843 -11.2297 3.65094e-18 2.67206 7.84382e-19 2.45147e-36)
(112 -11.5739 0 2.77234 0 0)
(112.572 -11.8884 0 2.87227 0 0)
(112.451 -12.1308 -2.05294e-18 2.97636 -9.45884e-19 2.71928e-36)
(111.771 -12.3555 1.42331e-18 3.07139 9.89504e-19 2.798e-36)
(110.579 -12.5098 0 3.16824 0 0)
(108.672 -12.6099 0 3.26892 0 0)
(106.173 -12.6437 -5.21683e-19 3.35987 1.11733e-18 3.06861e-36)
(103.043 -12.6234 0 3.4504 0 0)
(99.5644 -12.5652 0 3.53398 0 0)
(95.5799 -12.4161 -2.54865e-18 3.60649 1.20629e-18 3.30165e-36)
(91.2839 -12.1948 0 3.6785 0 0)
(86.6612 -11.8624 -3.83198e-18 3.74002 1.25737e-18 3.4449e-36)
(81.7767 -11.445 0 3.79596 0 0)
(76.6715 -10.91 0 3.83534 0 0)
(71.7286 -10.2764 0 3.85944 0 0)
(66.8479 -9.47847 5.8713e-18 3.87818 -1.2782e-18 3.68181e-36)
(62.19 -8.56093 0 3.88167 0 0)
(57.9704 -7.49109 0 3.86971 0 0)
(54.5143 -6.30193 0 3.84196 0 0)
(51.6619 -4.92451 0 3.8003 0 0)
(49.5778 -3.46766 0 3.75003 0 0)
(48.8702 -1.91351 0 3.678 0 0)
(49.6916 -0.286948 6.01717e-18 3.58863 -1.10554e-18 3.73071e-36)
(51.7357 1.42597 5.6072e-18 3.49073 -1.0515e-18 3.7127e-36)
(55.436 3.11727 0 3.37867 0 0)
(60.6837 4.7448 0 3.26059 0 0)
(67.4855 6.3253 0 3.13077 0 0)
(75.4155 7.79967 -3.05572e-18 3.001 7.95699e-19 3.38595e-36)
(84.5362 9.1021 0 2.87296 0 0)
(94.0855 10.2916 2.95615e-18 2.738 -1.35144e-18 1.23733e-35)
(103.953 11.2497 -1.31429e-18 2.60759 1.21864e-18 1.16713e-35)
(113.582 12.0393 3.17258e-19 2.47568 1.10597e-18 1.10274e-35)
(123.229 12.6902 -2.02087e-18 2.35067 -1.01538e-18 1.03461e-35)
(131.349 13.2317 3.68066e-18 2.2314 9.23026e-19 9.77876e-36)
(139.24 13.7105 -5.29394e-18 2.12383 -9.04881e-19 9.01258e-36)
(143.003 14.4035 0 2.06784 0 0)
(0.018304 0.174084 0 6.09013 0 0)
(0.202659 0.387534 0 6.0283 0 0)
(0.629274 0.6092 1.31818e-19 5.85582 1.75594e-19 6.75775e-37)
(1.32657 0.853385 0 5.73522 0 0)
(2.26835 1.13229 -1.9286e-19 5.67545 -3.52591e-19 9.18319e-37)
(3.44406 1.4367 -1.84819e-19 5.64821 -4.40141e-19 9.71277e-37)
(4.8325 1.76103 -8.13084e-20 5.6327 -2.50676e-19 2.48642e-37)
(6.4194 2.10122 -6.97253e-20 5.6146 -2.69557e-19 2.60876e-37)
(8.19694 2.44997 0 5.58627 0 0)
(10.1632 2.80281 -4.31308e-20 5.54374 -2.68462e-19 2.59037e-37)
(12.3194 3.15093 0 5.49194 0 0)
(14.664 3.49202 0 5.4324 0 0)
(17.1884 3.82092 9.66488e-20 5.36424 4.23051e-19 9.49771e-37)
(19.8937 4.13721 7.04035e-20 5.29247 1.86673e-19 2.33804e-37)
(22.7691 4.43117 -1.87012e-19 5.21743 -3.26047e-19 8.92395e-37)
(25.8088 4.7027 -2.52938e-19 5.13943 -2.81228e-19 8.64708e-37)
(29.0014 4.95326 -1.71626e-19 5.0553 -1.18545e-19 2.12452e-37)
(32.3406 5.18442 0 4.96477 0 0)
(35.8145 5.39458 0 4.86927 0 0)
(39.4146 5.58834 0 4.76677 0 0)
(43.1176 5.76482 -3.86392e-19 4.66204 -3.69866e-20 1.80134e-37)
(46.9149 5.92115 0 4.55767 0 0)
(50.7837 6.04904 1.6074e-18 4.45129 -1.54991e-20 1.54961e-36)
(54.7117 6.15217 0 4.34848 0 0)
(58.6816 6.2322 0 4.24347 0 0)
(62.6761 6.28934 7.73998e-19 4.13939 -5.74851e-20 1.56269e-37)
(66.6675 6.3203 0 4.03354 0 0)
(70.6368 6.33432 -9.31973e-19 3.93305 8.16267e-20 1.4577e-37)
(74.5507 6.3251 -1.99148e-18 3.83326 1.81254e-19 5.56243e-37)
(78.399 6.28754 1.07595e-18 3.73071 -9.86123e-20 1.36417e-37)
(82.1777 6.21867 0 3.62304 0 0)
(85.8866 6.12193 0 3.51778 0 0)
(89.5125 5.99968 0 3.41455 0 0)
(93.0592 5.85309 -2.57434e-18 3.3066 2.22682e-19 4.70648e-37)
(96.5182 5.6768 -2.65266e-18 3.19933 2.20247e-19 4.54522e-37)
(99.903 5.47122 -1.37253e-18 3.09847 1.07572e-19 1.10608e-37)
(103.222 5.23469 0 3.00663 0 0)
(106.467 4.9623 2.83598e-18 2.91855 -2.03023e-19 4.12284e-37)
(109.648 4.65196 0 2.83336 0 0)
(112.758 4.31296 -2.8729e-18 2.75185 1.8845e-19 3.81091e-37)
(115.805 3.94634 0 2.67155 0 0)
(118.784 3.55991 0 2.59941 0 0)
(121.704 3.15746 2.8263e-18 2.52858 -1.54105e-19 3.31289e-37)
(124.547 2.73617 0 2.46336 0 0)
(127.297 2.28931 8.15673e-18 2.40547 -3.93499e-19 2.68125e-36)
(129.951 1.81257 -2.68782e-18 2.36019 1.19213e-19 2.83359e-37)
(132.513 1.3102 0 2.33301 0 0)
(134.999 0.782062 -2.54825e-18 2.31707 9.09522e-20 2.51447e-37)
(137.393 0.220873 -2.46769e-18 2.31064 7.67026e-20 2.35892e-37)
(139.693 -0.366681 0 2.31288 0 0)
(141.879 -0.965842 0 2.32622 0 0)
(143.93 -1.56253 0 2.34119 0 0)
(145.832 -2.1476 0 2.35463 0 0)
(147.547 -2.72501 0 2.37822 0 0)
(149.064 -3.30325 1.88321e-18 2.41109 1.45056e-20 1.71775e-37)
(150.36 -3.88977 3.451e-18 2.4544 7.11089e-20 6.54652e-37)
(151.415 -4.47981 -1.64442e-18 2.50547 -5.59013e-20 1.59804e-37)
(152.239 -5.08806 0 2.56156 0 0)
(152.808 -5.69814 2.6875e-18 2.6248 1.90271e-19 6.00328e-37)
(153.09 -6.2883 -1.17019e-18 2.69308 -1.13246e-19 1.46588e-37)
(153.115 -6.87446 0 2.76983 0 0)
(152.835 -7.45559 -9.78433e-19 2.85976 -1.48511e-19 1.49244e-37)
(152.259 -8.01492 0 2.95317 0 0)
(151.384 -8.56517 0 3.05439 0 0)
(150.206 -9.09794 -1.0491e-18 3.16171 -3.96322e-19 6.24623e-37)
(148.714 -9.60198 4.23382e-19 3.27386 2.14906e-19 1.63512e-37)
(146.942 -10.0967 -4.90366e-19 3.39348 -4.61904e-19 6.67473e-37)
(144.885 -10.5698 2.13448e-19 3.51822 4.88986e-19 6.91268e-37)
(142.563 -11.0131 1.05487e-20 3.64259 2.54409e-19 1.82476e-37)
(139.971 -11.4322 0 3.77412 0 0)