/*--------------------------------*- C++ -*----------------------------------*\
| =========                 |                                                 |
| \\      /  F ield         | OpenFOAM: The Open Source CFD Toolbox           |
|  \\    /   O peration     | Version:  dev                                   |
|   \\  /    A nd           | Web:      http://www.openfoam.org               |
|    \\/     M anipulation  |                                                 |
\*---------------------------------------------------------------------------*/
FoamFile
{
    version     2.0;
    format      ascii;
    class       volScalarField;
    object      k;
    location    "9.166";
}
// * * * * * * * * * * * * * * * * * * * * * * * * * * * * * * * * * * * * * //

dimensions      [0 2 -2 0 0 0 0];

internalField   nonuniform List<scalar> 
12225
(
8.52288
11.0852
7.81223
8.87541
6.08418
9.30343
6.46083
11.2619
7.6615
14.4615
9.7253
18.7015
13.4717
22.7776
21.4147
23.4661
38.2075
30.5787
2.0588
6.13718
5.16268
6.0881
4.50849
5.55309
4.13621
5.3964
4.19995
5.5685
4.66267
5.6261
5.5367
5.49778
7.66917
5.99569
7.6459
12.2279
0.228409
1.91615
2.06045
3.07452
2.89182
3.25246
3.0271
3.06655
3.0793
2.82553
3.01957
2.49512
2.77414
2.06243
2.66119
1.69874
2.37255
2.0978
0.0239396
0.396005
0.66529
0.918321
1.32115
1.35982
1.64541
1.52142
1.801
1.53651
1.72554
1.37964
1.49915
1.10408
1.29536
0.862634
1.16602
1.08587
0.00636735
0.0922218
0.215552
0.309861
0.528194
0.583154
0.760401
0.730691
0.822496
0.720627
0.795433
0.647595
0.721407
0.556397
0.652846
0.493108
0.66847
0.677947
0.00863751
0.0342837
0.0820749
0.109679
0.202059
0.223093
0.315379
0.297017
0.354468
0.31288
0.361101
0.305965
0.347006
0.290642
0.335791
0.286844
0.375975
0.435281
0.0123051
0.0173164
0.0373808
0.0438878
0.0840456
0.0896516
0.133112
0.126909
0.157838
0.147691
0.172054
0.158397
0.178293
0.167161
0.185985
0.181441
0.187454
0.260076
0.0143078
0.0176987
0.0270917
0.0308923
0.049228
0.0527899
0.0734522
0.074377
0.0907221
0.0921471
0.10612
0.107279
0.117476
0.122973
0.129219
0.14692
0.146023
0.166402
0.0212778
0.0237123
0.0277135
0.0311791
0.041287
0.0460703
0.0582648
0.0629815
0.0738425
0.0790312
0.0899277
0.0966728
0.104029
0.113629
0.118229
0.133409
0.135559
0.149026
0.0275187
0.0390776
0.0361513
0.0391195
0.0435318
0.0494755
0.0576811
0.0654172
0.0728759
0.0814547
0.0891015
0.0996589
0.104198
0.115503
0.119809
0.132247
0.135367
0.143623
0.0487153
0.0613827
0.0554065
0.062431
0.0595722
0.0672935
0.0698851
0.0802003
0.084109
0.0953309
0.100155
0.112839
0.116866
0.127741
0.133773
0.143342
0.147912
0.155809
0.102345
0.109032
0.098686
0.107059
0.103894
0.114427
0.115083
0.129194
0.130987
0.143012
0.146685
0.159912
0.164344
0.175202
0.180417
0.187043
0.193552
0.197169
0.224801
0.218065
0.189754
0.196002
0.193418
0.202363
0.205476
0.221083
0.22529
0.236442
0.23973
0.248758
0.252824
0.259804
0.265258
0.270429
0.275943
0.278155
0.438692
0.415918
0.359483
0.344238
0.323722
0.326216
0.32819
0.337288
0.346675
0.360129
0.368923
0.37716
0.383843
0.388784
0.390414
0.39144
0.390797
0.387667
0.777624
0.701204
0.63808
0.614858
0.588253
0.579993
0.577008
0.578327
0.578572
0.579208
0.574689
0.570294
0.559976
0.552674
0.536922
0.527705
0.508817
0.497696
1.2691
1.153
1.01191
0.914904
0.841013
0.793732
0.761402
0.740356
0.721065
0.706624
0.687779
0.673459
0.651859
0.636224
0.611283
0.595316
0.567413
0.551189
1.70499
1.48816
1.21883
1.06072
0.955187
0.887127
0.839715
0.807677
0.779167
0.757638
0.732734
0.713614
0.687668
0.668842
0.640508
0.621693
0.591266
0.573155
1.78698
1.54774
1.25584
1.08709
0.975781
0.904023
0.85376
0.819676
0.789391
0.76635
0.740304
0.720222
0.693477
0.674023
0.645168
0.625746
0.594714
0.576297
1.61236
1.42823
1.18773
1.03918
0.938719
0.874002
0.828206
0.797282
0.768962
0.747031
0.722327
0.703145
0.677779
0.6596
0.631726
0.613502
0.582887
0.565032
1.10299
1.00038
0.888783
0.820987
0.775098
0.74422
0.718399
0.700306
0.680524
0.664758
0.646425
0.632242
0.613044
0.599848
0.577308
0.56362
0.537016
0.521463
0.670641
0.611498
0.537045
0.492434
0.468052
0.458227
0.453383
0.452587
0.450569
0.448012
0.445391
0.443968
0.441987
0.439705
0.434996
0.430213
0.418887
0.408799
0.390337
0.366567
0.324923
0.304827
0.296416
0.29204
0.289319
0.288821
0.288841
0.287429
0.284606
0.281453
0.278628
0.277224
0.276725
0.275603
0.272735
0.269245
0.20976
0.197859
0.179138
0.170373
0.163111
0.159729
0.159597
0.164015
0.172038
0.180099
0.187402
0.194335
0.200332
0.206428
0.211725
0.215121
0.217192
0.218021
0.0978514
0.0967185
0.0876974
0.0847627
0.0856858
0.0939026
0.105925
0.119211
0.133196
0.146977
0.159573
0.171042
0.181125
0.190297
0.198065
0.203645
0.207358
0.211057
0.0419503
0.0432324
0.043899
0.0515244
0.0663653
0.0854994
0.103898
0.121528
0.139191
0.156194
0.171761
0.185849
0.198163
0.209415
0.219024
0.226199
0.231157
0.235411
0.0135833
0.0208954
0.0365961
0.0656964
0.103349
0.142504
0.177949
0.20853
0.235621
0.258791
0.279144
0.296323
0.311501
0.326304
0.338036
0.347834
0.353144
0.355338
0.00490382
0.0352751
0.122916
0.255793
0.382644
0.480881
0.551822
0.603389
0.641429
0.668372
0.689292
0.702391
0.714775
0.72631
0.732702
0.735632
0.732796
0.726571
0.0228896
0.283497
0.886115
1.25986
1.56027
1.73841
1.81358
1.8433
1.84881
1.83862
1.82033
1.79465
1.76393
1.73322
1.68155
1.63979
1.57461
1.53584
0.458254
2.84681
4.26028
4.48871
4.42414
4.14846
3.85315
3.58331
3.3453
3.13939
2.95481
2.78909
2.63945
2.50741
2.38433
2.27291
2.14825
2.06088
7.04897
10.7694
9.86057
7.70713
6.22783
5.42224
4.96272
4.67451
4.47354
4.32024
4.18875
4.07082
3.95249
3.82732
3.69869
3.56222
3.4252
3.27169
0.125929
0.242695
0.281196
0.318707
0.377574
0.441552
0.504135
0.560396
0.603779
0.642304
0.675507
0.713444
0.769589
0.822058
0.868368
0.944182
1.03601
1.1458
1.28515
1.42947
1.58316
1.75944
1.91894
2.08105
2.23698
2.35124
2.42907
2.45307
2.44678
2.35868
2.14247
1.94308
1.84865
1.83005
1.82806
1.81938
1.85606
1.93239
1.97526
1.99261
2.03917
2.06991
2.13564
2.16672
2.17035
2.21117
2.36748
2.63384
2.83813
2.96461
3.27164
4.18268
5.56369
6.69197
7.54487
8.31042
8.96514
9.47878
9.85539
10.0605
10.1525
10.171
9.9721
9.69311
9.29649
8.84499
8.35779
7.86226
7.38269
6.9265
6.45113
5.94661
5.4303
4.94213
4.51443
4.14864
3.78437
3.46557
3.16537
2.92251
2.69059
2.45898
2.32011
2.19019
2.04697
1.96604
1.89382
1.8425
1.81301
1.7952
1.7901
1.79714
1.80969
1.83166
1.85911
1.89198
1.93246
1.98132
2.03154
2.08264
2.13839
2.19755
2.25108
2.28857
2.31741
2.33513
2.34166
2.33413
2.32178
2.30593
2.26803
2.20612
2.12713
2.03223
1.9351
1.82776
1.7447
1.69802
1.68556
1.6933
1.71387
1.75986
1.84966
2.00674
2.24152
2.52958
2.87889
3.2906
3.74237
4.24169
4.64968
4.99047
5.26679
5.499
5.88448
6.41026
7.07968
8.02006
9.31481
10.96
11.8467
12.1645
12.6148
14.6558
15.3938
14.3893
14.4962
14.7732
15.5735
14.5223
12.8669
12.425
12.7702
12.1447
12.0577
12.4146
12.1767
12.7226
12.9968
13.6093
14.2491
14.3806
14.3907
14.5353
14.2505
14.0423
14.0694
12.9161
12.3029
12.3746
12.3486
9.54654
7.27926
6.5344
6.09272
5.5473
6.69245
6.42911
9.49112
8.75035
0.594318
0.272578
0.235284
0.274062
0.367821
0.48776
0.577584
0.619504
0.596834
0.555046
0.509607
0.439936
0.375815
0.346623
0.319097
0.299627
0.289539
0.284251
0.286585
0.294619
0.315277
0.347265
0.400018
0.477726
0.581756
0.710865
0.86163
1.02287
1.21066
1.36977
1.44037
1.42462
1.36314
1.27678
0.978553
0.724782
0.594366
0.518465
0.501611
0.510939
0.580696
0.723222
0.924251
0.992891
1.12953
1.2373
1.69774
2.84528
3.3698
3.52187
3.56056
3.70565
3.82813
3.71585
3.39404
3.13159
2.81878
2.5217
2.25208
1.99933
1.77656
1.58435
1.39831
1.25214
1.14111
1.05046
0.993243
0.943993
0.897334
0.852315
0.790842
0.728512
0.68892
0.664676
0.649304
0.633978
0.614539
0.604435
0.587907
0.576325
0.562162
0.559924
0.572092
0.566244
0.56068
0.583071
0.590133
0.606162
0.63848
0.660297
0.697013
0.733688
0.766873
0.80768
0.848712
0.885818
0.92917
0.981236
1.0305
1.07503
1.11736
1.1759
1.25102
1.31461
1.36069
1.40689
1.44871
1.47055
1.48584
1.5132
1.53169
1.53258
1.514
1.46873
1.42274
1.36037
1.30701
1.26934
1.25555
1.25749
1.26045
1.26983
1.28515
1.30576
1.38366
1.52877
1.70226
1.91957
2.16373
2.49806
2.78521
2.99041
3.11288
3.11604
3.27398
3.8913
4.86836
5.91086
6.58853
6.83066
6.18477
6.01535
6.65843
7.31778
6.57902
6.18195
6.57212
6.70208
5.98186
5.39808
5.35924
6.00652
6.04006
5.84845
6.68969
6.8889
6.87002
7.83219
8.05099
9.35012
9.61668
9.67923
10.0849
9.67139
8.50309
9.23173
10.0766
8.85406
8.06779
9.06841
9.83234
7.43156
5.82308
5.34256
4.33151
4.56198
5.19909
5.221
6.08416
6.12473
1.72202
0.538443
0.308481
0.363388
0.565497
0.777466
0.806336
0.707341
0.608058
0.488414
0.381844
0.314392
0.252262
0.233135
0.226414
0.212632
0.20922
0.203085
0.197543
0.194533
0.190384
0.18788
0.188606
0.192417
0.203638
0.229852
0.260612
0.31511
0.394036
0.494536
0.588501
0.667249
0.77507
0.779042
0.730774
0.691654
0.509813
0.401798
0.38828
0.439661
0.653403
0.972973
1.41043
1.86831
2.35217
2.47568
2.47387
2.55595
2.58558
2.32313
2.09368
1.77857
1.37278
1.11598
0.932148
0.732515
0.574728
0.474908
0.400864
0.339791
0.302908
0.276824
0.261227
0.252064
0.247543
0.24584
0.249272
0.250312
0.249245
0.247078
0.242358
0.239644
0.238956
0.239843
0.241344
0.242189
0.243818
0.245882
0.246683
0.246885
0.246897
0.251925
0.257117
0.256975
0.257383
0.265859
0.269014
0.275882
0.288036
0.299505
0.319124
0.339462
0.355419
0.379503
0.40359
0.421687
0.443167
0.47229
0.504398
0.531912
0.552106
0.575983
0.621203
0.671707
0.706938
0.74369
0.792296
0.825864
0.854128
0.89587
0.937931
0.972687
0.991049
0.991118
0.989334
0.977478
0.951965
0.930955
0.915375
0.893836
0.884417
0.88739
0.889526
0.868945
0.8622
0.8899
0.942714
1.03635
1.14925
1.26681
1.36654
1.44743
1.51754
1.609
1.95493
2.78853
3.67935
4.11514
4.17497
3.61975
2.99396
2.93872
3.45528
3.63743
3.01343
2.91204
3.16462
3.24527
2.83291
2.46621
2.46911
2.87906
2.97204
2.85509
3.27497
3.49003
3.50121
4.04474
4.09005
5.26453
5.61791
5.45374
6.45183
6.5315
5.25929
5.4124
6.25937
6.06131
5.36094
5.96129
7.03137
6.2035
5.21709
4.86799
3.85065
3.8514
3.97838
3.64314
4.07623
4.22332
3.40682
0.992487
0.618629
0.853992
1.15501
1.04369
0.871714
0.669482
0.466493
0.322961
0.244502
0.218932
0.207937
0.197123
0.197654
0.191523
0.188209
0.185946
0.179022
0.17652
0.17312
0.166433
0.162954
0.160404
0.159769
0.161905
0.166225
0.175184
0.199464
0.238251
0.271335
0.327565
0.397863
0.464187
0.529556
0.514623
0.459961
0.414607
0.457037
0.801346
1.48404
2.07138
2.18285
1.96438
1.93805
1.86756
1.66323
1.44416
1.11714
0.945701
0.74873
0.588087
0.457776
0.335603
0.275563
0.230888
0.203848
0.191175
0.183757
0.179548
0.178024
0.17883
0.180413
0.18227
0.185503
0.190795
0.197897
0.205954
0.211766
0.213016
0.212963
0.212649
0.212197
0.212046
0.211849
0.210287
0.209038
0.208803
0.209037
0.209049
0.209162
0.211325
0.212941
0.212609
0.213172
0.214064
0.213505
0.214202
0.214807
0.216039
0.222219
0.231086
0.237528
0.249078
0.263598
0.273178
0.284072
0.298574
0.319374
0.338117
0.350777
0.361966
0.383217
0.418443
0.444719
0.467028
0.502318
0.528272
0.551797
0.588206
0.630245
0.663827
0.693093
0.726844
0.755802
0.765396
0.758949
0.752029
0.746435
0.716401
0.700115
0.703811
0.702606
0.689846
0.681302
0.674949
0.675576
0.69839
0.75064
0.803516
0.859084
0.923291
0.995455
1.19441
1.77976
2.55351
2.93468
2.99222
2.83932
2.33843
2.04681
2.10449
2.47865
2.58212
2.25678
2.22989
2.37055
2.36409
2.0918
1.80349
1.76891
1.9493
2.04385
1.97624
2.15815
2.3286
2.38098
2.70027
2.93366
3.49324
3.93255
3.69796
4.77704
5.15113
4.08647
4.16182
4.75803
4.75924
4.05512
4.47057
5.51968
5.44266
4.9195
4.44473
3.55728
3.49391
3.52422
2.94636
3.18603
3.41073
5.37065
1.64572
1.38629
1.62885
1.33193
1.0235
0.67401
0.394112
0.258721
0.213928
0.199268
0.190121
0.190367
0.181539
0.178459
0.173008
0.163542
0.159996
0.149615
0.147763
0.146022
0.143108
0.143805
0.146347
0.144864
0.144992
0.148243
0.15212
0.157249
0.169369
0.186182
0.210157
0.2401
0.301036
0.379627
0.412647
0.442925
0.472927
0.769918
1.70097
2.12549
1.87133
1.5476
1.38691
1.15999
0.959775
0.79943
0.62539
0.487796
0.363015
0.285793
0.230124
0.197996
0.172412
0.162019
0.156452
0.154006
0.153333
0.154105
0.156131
0.157608
0.159651
0.161314
0.163691
0.166873
0.172113
0.17938
0.189088
0.199437
0.206581
0.208853
0.209627
0.209658
0.209096
0.207317
0.205296
0.200443
0.197832
0.196893
0.196492
0.197329
0.198739
0.199914
0.200394
0.202617
0.203111
0.201816
0.200727
0.198127
0.192988
0.192624
0.19388
0.195102
0.198979
0.206288
0.212739
0.217557
0.224294
0.235894
0.253539
0.261465
0.267245
0.277276
0.299735
0.323076
0.33764
0.360165
0.379046
0.398878
0.425576
0.456101
0.488369
0.512245
0.530311
0.548624
0.573796
0.597497
0.621962
0.622909
0.61056
0.60071
0.60738
0.621753
0.626928
0.623813
0.600935
0.576388
0.565874
0.562585
0.598455
0.662621
0.724988
0.809268
1.06725
1.74199
2.30567
2.51293
2.39139
2.06148
1.70051
1.56506
1.74132
2.0567
2.23131
2.119
2.12704
2.33221
2.22326
1.93925
1.63289
1.62191
1.62269
1.69509
1.68958
1.79526
1.88258
1.94451
2.22098
2.63492
2.81616
3.10824
2.96654
3.77679
4.18066
3.36717
3.86729
4.32664
4.18874
3.55456
3.64191
4.61479
4.90534
4.78455
4.19377
3.41236
3.28518
3.37736
2.71407
2.907
3.07165
7.83681
2.71884
2.42357
1.8039
1.22117
0.673873
0.333864
0.224989
0.191961
0.180445
0.178374
0.172034
0.160825
0.149291
0.139685
0.131332
0.119802
0.117937
0.11487
0.114865
0.117191
0.119449
0.121022
0.127248
0.137249
0.136752
0.137381
0.145427
0.152232
0.155636
0.15945
0.166151
0.181216
0.211439
0.270984
0.368492
0.437742
0.676677
1.51193
1.86389
1.71378
1.24742
0.9576
0.829489
0.635395
0.493619
0.373386
0.285296
0.233888
0.184248
0.163394
0.150027
0.143295
0.138104
0.135917
0.134585
0.134033
0.133848
0.134285
0.13602
0.138533
0.141841
0.145424
0.149576
0.154133
0.158958
0.164311
0.170907
0.177861
0.184718
0.191958
0.197415
0.200495
0.203683
0.203649
0.20168
0.195809
0.193143
0.18692
0.18179
0.176848
0.174868
0.171837
0.172005
0.179111
0.187103
0.190335
0.191221
0.190893
0.18535
0.180448
0.179289
0.17672
0.176745
0.179481
0.185017
0.189569
0.190802
0.193664
0.202689
0.212443
0.216976
0.223831
0.237753
0.261282
0.276641
0.291092
0.301979
0.314004
0.33771
0.361052
0.388466
0.407517
0.412822
0.416156
0.422066
0.435749
0.461827
0.503976
0.512305
0.508896
0.503869
0.507443
0.512956
0.515003
0.499964
0.469574
0.454789
0.454594
0.487458
0.583473
0.647447
0.750056
1.00979
1.69309
2.05827
2.12379
2.04516
1.72548
1.37557
1.27085
1.38335
1.62499
1.76305
1.74801
1.70563
2.02894
2.20471
1.78773
1.40059
1.38519
1.49201
1.55758
1.57728
1.6686
1.72905
1.78275
2.00842
2.3735
2.6051
2.68412
2.66983
3.22948
3.45796
2.97183
3.57236
4.13593
3.85156
3.47399
3.43999
4.12732
4.48179
4.69217
4.0366
3.33085
3.21962
3.35121
2.72155
2.84004
2.95601
10.888
4.09844
2.78588
1.66372
0.782437
0.334151
0.208145
0.177806
0.165954
0.160755
0.151421
0.140809
0.129404
0.123879
0.117268
0.110362
0.106645
0.106594
0.106585
0.10817
0.113226
0.115439
0.117639
0.123429
0.140555
0.137513
0.135533
0.140207
0.148846
0.15467
0.157091
0.158084
0.169945
0.210063
0.273001
0.370842
0.568649
1.24918
1.66944
1.60694
1.10374
0.776147
0.627564
0.465191
0.342659
0.263862
0.204442
0.171211
0.154131
0.140017
0.134233
0.129666
0.127524
0.126451
0.126092
0.126111
0.127153
0.128929
0.131306
0.1346
0.13859
0.142955
0.147718
0.152627
0.157182
0.160972
0.165248
0.169691
0.173456
0.176842
0.181266
0.188119
0.191706
0.197577
0.198684
0.198637
0.196122
0.193119
0.183742
0.178099
0.167598
0.163439
0.157808
0.148588
0.146136
0.148631
0.157599
0.167978
0.175701
0.175606
0.170921
0.166002
0.163388
0.159374
0.15702
0.158378
0.162824
0.168092
0.170697
0.175392
0.184128
0.187307
0.187982
0.193263
0.204148
0.220084
0.232843
0.242238
0.2486
0.260341
0.275658
0.300294
0.334942
0.343253
0.342351
0.33719
0.338664
0.349326
0.375144
0.413586
0.42523
0.414166
0.404931
0.404417
0.411625
0.404023
0.384017
0.370815
0.376362
0.410489
0.537846
0.60423
0.728022
0.98571
1.55547
1.84449
1.856
1.7382
1.47079
1.25122
1.13687
1.151
1.34267
1.44778
1.4691
1.5191
1.54054
1.65432
1.54006
1.18583
1.19298
1.41014
1.48
1.47676
1.59609
1.64339
1.65988
1.93645
2.03679
2.41458
2.47352
2.4103
2.90713
3.0669
2.96044
3.30404
3.84551
3.48376
3.24964
3.37359
3.8943
4.13305
4.49142
3.99829
3.30755
3.08537
3.3347
2.76996
2.89718
3.13368
14.4168
5.37712
2.75081
1.11543
0.404281
0.20819
0.171289
0.162646
0.153604
0.147586
0.142307
0.129178
0.11772
0.115365
0.111696
0.106143
0.104404
0.104745
0.105977
0.108322
0.112582
0.114671
0.118485
0.125368
0.13417
0.135
0.135703
0.143048
0.148613
0.148693
0.149078
0.15426
0.166617
0.202966
0.291116
0.471041
1.03407
1.48433
1.50003
1.09072
0.672034
0.512743
0.385509
0.265371
0.208388
0.170006
0.149518
0.137425
0.131715
0.126746
0.124455
0.123476
0.123148
0.123738
0.125333
0.126999
0.129747
0.134558
0.140724
0.147412
0.153615
0.157581
0.16006
0.161732
0.162653
0.163554
0.164699
0.165684
0.166153
0.16717
0.168049
0.171531
0.177233
0.185289
0.192106
0.194593
0.194488
0.189542
0.179444
0.173687
0.162949
0.157596
0.153402
0.14306
0.132662
0.128373
0.126712
0.129305
0.137833
0.149487
0.152493
0.151385
0.149341
0.145329
0.137924
0.134651
0.135849
0.138996
0.141348
0.143177
0.148154
0.157237
0.161803
0.164718
0.168325
0.179017
0.189982
0.199031
0.20156
0.205855
0.211374
0.222253
0.244288
0.259999
0.26744
0.281642
0.290651
0.28881
0.293838
0.314379
0.342514
0.360079
0.353622
0.338987
0.331161
0.328995
0.328641
0.322747
0.326352
0.354949
0.493047
0.582857
0.719291
0.978545
1.36709
1.60519
1.65838
1.53391
1.29964
1.16155
1.08097
1.08039
1.2237
1.26523
1.29565
1.4496
1.35305
1.31409
1.17634
1.06086
1.08822
1.26331
1.3176
1.27235
1.4761
1.47708
1.48212
1.83567
1.81002
2.19547
2.3378
2.29876
2.55291
2.76206
2.94305
3.10761
3.47943
3.12792
3.09327
3.29722
3.67012
3.82873
4.19812
4.00617
3.30403
2.95429
3.21934
2.73732
3.12804
3.4466
18.2416
5.82667
2.21249
0.687969
0.262528
0.172925
0.163123
0.157371
0.149958
0.146032
0.139185
0.122114
0.113777
0.113476
0.11257
0.109903
0.109242
0.110772
0.113709
0.115268
0.115406
0.118272
0.123196
0.130593
0.132913
0.133595
0.13498
0.137005
0.137182
0.135838
0.137132
0.146211
0.17089
0.232958
0.409414
0.909665
1.31222
1.36331
1.10069
0.629469
0.438654
0.337049
0.230682
0.179583
0.15424
0.138481
0.130704
0.12528
0.122842
0.121519
0.121063
0.121193
0.123201
0.125578
0.129545
0.136945
0.144683
0.152394
0.15782
0.161136
0.162729
0.163319
0.163243
0.161228
0.158065
0.154459
0.149196
0.144217
0.139448
0.137448
0.134988
0.133391
0.134761
0.139561
0.155032
0.170576
0.176002
0.173463
0.163435
0.15282
0.147915
0.143828
0.145319
0.140223
0.129862
0.121723
0.114102
0.110961
0.112238
0.119925
0.124427
0.124938
0.12673
0.129235
0.127337
0.120539
0.118775
0.118306
0.116928
0.115371
0.117934
0.123572
0.132424
0.13632
0.138467
0.143431
0.152576
0.160742
0.164272
0.162801
0.162342
0.166287
0.177281
0.192354
0.198732
0.209994
0.233372
0.246184
0.246806
0.24991
0.260755
0.281244
0.29289
0.284236
0.271449
0.27194
0.278537
0.27555
0.279625
0.306142
0.430501
0.564645
0.701363
0.969762
1.24962
1.39755
1.46429
1.3926
1.18391
1.09092
1.0917
1.07715
1.16211
1.18056
1.19313
1.3051
1.20961
1.10473
0.99601
0.949603
0.973542
1.06976
1.10679
1.11623
1.34366
1.31854
1.31051
1.68412
1.7609
2.00356
2.20542
2.33947
2.297
2.53546
2.9309
2.79643
3.02128
2.81341
2.97028
3.23442
3.47102
3.53417
3.93384
4.02691
3.29753
2.82191
2.85168
2.60386
3.2775
3.47264
21.7184
5.90083
1.56591
0.548161
0.220916
0.166512
0.161773
0.156831
0.150223
0.145914
0.13768
0.121688
0.115103
0.117419
0.123319
0.125862
0.127515
0.130819
0.131251
0.130082
0.129929
0.132564
0.137133
0.140322
0.141179
0.141852
0.141408
0.140238
0.139947
0.141904
0.148949
0.171392
0.239996
0.444725
0.901269
1.15448
1.21105
1.04972
0.619366
0.398645
0.299555
0.217911
0.166943
0.144605
0.133098
0.125994
0.121835
0.119274
0.118704
0.11852
0.119573
0.122533
0.126691
0.132592
0.140061
0.146974
0.152051
0.156464
0.160114
0.16248
0.163953
0.164383
0.164354
0.162363
0.158167
0.15323
0.14635
0.139197
0.132029
0.125713
0.122701
0.11992
0.118054
0.115605
0.117527
0.125749
0.140378
0.149135
0.14687
0.13499
0.125373
0.117864
0.118554
0.124479
0.125741
0.120371
0.112408
0.104821
0.101297
0.103893
0.106838
0.106096
0.105288
0.107128
0.109458
0.107943
0.106593
0.105386
0.102634
0.0984382
0.0987929
0.10099
0.106909
0.110523
0.114533
0.117118
0.122517
0.126461
0.131425
0.132289
0.131362
0.134876
0.140018
0.148829
0.156015
0.160099
0.177155
0.198608
0.204941
0.205139
0.207444
0.216341
0.236213
0.241259
0.2386
0.238364
0.241554
0.242845
0.25316
0.280955
0.366669
0.549183
0.672815
0.950469
1.16316
1.27606
1.32007
1.27851
1.11875
1.03263
1.07622
1.10717
1.12257
1.13413
1.11418
1.15383
1.11438
1.04891
0.946016
0.902128
0.909951
0.935356
0.983762
1.07521
1.25993
1.21738
1.26119
1.47975
1.76134
1.79831
2.09394
2.33142
2.25168
2.40045
2.90149
2.53572
2.58363
2.62415
2.88396
3.10757
3.28587
3.36759
3.7551
4.01931
3.21854
2.67952
2.56298
2.43751
3.2754
3.08658
24.2261
5.61131
1.32782
0.520137
0.214725
0.166704
0.166038
0.16283
0.156939
0.150415
0.140607
0.129237
0.125737
0.129721
0.140048
0.151074
0.159025
0.163593
0.16267
0.157842
0.155978
0.157789
0.162411
0.164338
0.165641
0.165397
0.166284
0.167749
0.174787
0.193515
0.238609
0.350617
0.578596
0.875288
1.00681
1.05496
0.940155
0.602236
0.377152
0.275817
0.207708
0.161505
0.139511
0.12907
0.122886
0.117729
0.115876
0.115337
0.115485
0.116832
0.120302
0.125344
0.130775
0.136801
0.143204
0.148951
0.153737
0.158692
0.163404
0.166875
0.169841
0.170897
0.171303
0.169801
0.165553
0.160331
0.154481
0.145158
0.136004
0.124555
0.11968
0.117235
0.11622
0.112269
0.108235
0.108941
0.113322
0.130412
0.137478
0.131711
0.118576
0.106463
0.103425
0.10508
0.110245
0.115085
0.11304
0.105135
0.09956
0.0982896
0.0986981
0.0959602
0.0949209
0.0957676
0.0958082
0.0956747
0.0963975
0.0967553
0.0944836
0.0907064
0.0898716
0.0900637
0.0923692
0.0950894
0.0982814
0.101419
0.105709
0.106967
0.108926
0.112398
0.114137
0.118672
0.12326
0.127649
0.132692
0.134593
0.144236
0.160263
0.171562
0.176566
0.181587
0.183385
0.193159
0.210096
0.211313
0.213081
0.216289
0.224768
0.23712
0.262067
0.318874
0.515219
0.647546
0.862114
1.09358
1.19822
1.23965
1.20289
1.1073
1.00608
1.00536
1.116
1.11602
1.12659
1.08307
1.0762
0.960047
0.943961
0.917665
0.880782
0.889153
0.867975
0.892412
1.05421
1.18706
1.17005
1.17804
1.3153
1.71965
1.70526
1.98552
2.19887
2.20094
2.33736
2.80354
2.34354
2.23662
2.56446
2.86066
2.95951
3.14861
3.27831
3.57948
3.89078
3.11597
2.61752
2.32567
2.37538
2.84553
2.51114
25.5699
5.28039
1.25732
0.547553
0.225406
0.175991
0.180303
0.176035
0.170518
0.162063
0.152713
0.149387
0.149888
0.158043
0.174802
0.195018
0.208343
0.214791
0.215172
0.211358
0.210835
0.216157
0.225056
0.233115
0.243616
0.253417
0.270808
0.297685
0.349155
0.431196
0.5342
0.660761
0.798228
0.8683
0.903513
0.808165
0.555724
0.356291
0.255508
0.200941
0.1583
0.136355
0.125814
0.119101
0.114516
0.111786
0.111286
0.111378
0.112363
0.115458
0.120008
0.125062
0.130433
0.136617
0.143582
0.150366
0.157432
0.164631
0.169925
0.173451
0.175658
0.176753
0.176212
0.172315
0.166487
0.159655
0.155275
0.147118
0.139125
0.124647
0.112328
0.107624
0.108682
0.109508
0.106915
0.103925
0.104597
0.111735
0.128261
0.130334
0.119628
0.105662
0.0994745
0.098548
0.101811
0.1078
0.112541
0.111442
0.101957
0.0983002
0.0975872
0.0931602
0.0912482
0.091411
0.0900772
0.089867
0.0909058
0.0925232
0.0906181
0.0878935
0.0870109
0.0867346
0.0865627
0.0880526
0.0894224
0.0925703
0.0956418
0.0983832
0.0983259
0.101388
0.10602
0.110696
0.114932
0.11871
0.119163
0.123339
0.13437
0.144491
0.153279
0.162761
0.169419
0.175372
0.176504
0.190011
0.197175
0.201094
0.203259
0.213802
0.225253
0.244618
0.287359
0.428135
0.632613
0.764233
0.981749
1.12322
1.2084
1.15186
1.09026
1.01206
0.960851
1.09009
1.10398
1.08809
1.04503
0.986885
0.908365
0.904708
0.858657
0.839979
0.849392
0.834793
0.820452
1.02705
1.1176
1.16776
1.15586
1.20515
1.57992
1.67794
1.86499
2.02714
2.10429
2.29581
2.64462
2.17975
2.05201
2.57397
2.85136
2.80471
3.01985
3.17239
3.46334
3.66695
3.03548
2.60985
2.15832
2.37512
2.5148
2.27957
26.0214
5.2243
1.25648
0.707599
0.27655
0.193618
0.190535
0.187056
0.184374
0.182257
0.181015
0.185906
0.192326
0.20873
0.226853
0.245589
0.256154
0.265397
0.272817
0.281144
0.295166
0.311923
0.330034
0.347506
0.368524
0.392539
0.424002
0.46171
0.508679
0.567378
0.634974
0.706193
0.746296
0.753361
0.653367
0.488553
0.337981
0.240714
0.189301
0.15774
0.135048
0.123545
0.117959
0.11282
0.109018
0.107893
0.107787
0.108206
0.109659
0.113146
0.118181
0.123695
0.129595
0.136907
0.145057
0.154047
0.162051
0.168804
0.173637
0.175876
0.176802
0.175233
0.170644
0.163897
0.153844
0.138907
0.13117
0.127045
0.125199
0.11787
0.103017
0.096077
0.0952476
0.0981964
0.101362
0.100611
0.0997649
0.10383
0.118238
0.126825
0.123568
0.110314
0.100023
0.0989007
0.0996834
0.105007
0.111077
0.115481
0.112461
0.105351
0.100375
0.0937371
0.0914896
0.0915482
0.0897708
0.0881292
0.0901756
0.0909818
0.0891011
0.0875995
0.0867588
0.0867665
0.0860006
0.0863996
0.0873893
0.0905791
0.0924844
0.0945143
0.0951252
0.0980746
0.104064
0.108827
0.11201
0.115897
0.114987
0.118826
0.129743
0.143919
0.151504
0.159966
0.164223
0.172207
0.174736
0.183683
0.192985
0.199497
0.199826
0.21026
0.221457
0.237525
0.275409
0.359914
0.579628
0.708048
0.85079
1.01779
1.17204
1.12655
1.06586
1.01464
0.946515
1.02526
1.03748
0.950641
0.956722
0.906215
0.879677
0.860182
0.796814
0.7815
0.786964
0.80022
0.776309
0.980176
1.05
1.155
1.18858
1.13778
1.4298
1.59537
1.75118
1.90185
1.97473
2.26518
2.46109
2.06238
2.01921
2.63742
2.81816
2.66181
2.86366
2.98703
3.42384
3.34821
2.98876
2.64669
2.1174
2.37672
2.37411
2.2165
26.1068
5.23049
1.31638
0.932196
0.330185
0.199347
0.191994
0.189496
0.188383
0.195862
0.200628
0.212876
0.228076
0.245543
0.254842
0.264076
0.270592
0.279353
0.288099
0.301001
0.319137
0.335889
0.354535
0.3744
0.399213
0.426756
0.459319
0.496325
0.535986
0.578624
0.609481
0.626395
0.59796
0.506515
0.421441
0.317143
0.235782
0.182837
0.154595
0.135953
0.123533
0.116663
0.113094
0.108623
0.105894
0.105201
0.105285
0.105901
0.107466
0.110838
0.116378
0.122832
0.129981
0.138874
0.148755
0.155907
0.162556
0.167749
0.170363
0.17104
0.169678
0.161431
0.147215
0.137529
0.134184
0.125712
0.112973
0.105519
0.101812
0.101201
0.09823
0.0936645
0.0918815
0.0938248
0.0970241
0.0987814
0.0993441
0.100736
0.111097
0.122545
0.124731
0.12052
0.106019
0.104225
0.10263
0.106492
0.113073
0.118444
0.117251
0.113654
0.111424
0.0986874
0.0932132
0.0940813
0.0909454
0.0883994
0.0911944
0.0915024
0.0890188
0.0881113
0.0879483
0.0870305
0.0867925
0.0866335
0.0874156
0.0908197
0.0926663
0.0935851
0.094961
0.0978112
0.104516
0.109401
0.111932
0.115006
0.115662
0.119886
0.128006
0.142362
0.154241
0.161371
0.16673
0.170788
0.176094
0.183959
0.191782
0.198928
0.201199
0.211762
0.222495
0.235755
0.271422
0.324878
0.464181
0.637933
0.753777
0.899455
1.07432
1.09645
1.04561
1.00576
0.945116
0.979833
0.930033
0.859507
0.851024
0.828974
0.805728
0.762166
0.730334
0.723944
0.737694
0.757704
0.746702
0.918971
0.993546
1.13534
1.2383
1.1008
1.35323
1.52646
1.64931
1.76201
1.84072
2.22315
2.27427
1.97437
2.10818
2.65905
2.63002
2.51765
2.70961
2.77705
3.44579
3.04873
2.98888
2.69381
2.12237
2.38665
2.36134
2.22845
26.0389
5.21981
1.34282
0.972625
0.332546
0.198163
0.190817
0.189365
0.188473
0.198835
0.206822
0.221244
0.240897
0.257837
0.265227
0.270593
0.274783
0.282452
0.290956
0.304581
0.322064
0.337301
0.355791
0.376881
0.402071
0.42769
0.454325
0.481224
0.498405
0.506655
0.498857
0.457899
0.413596
0.358257
0.294251
0.230572
0.182691
0.154509
0.136106
0.126243
0.119312
0.115344
0.111995
0.107678
0.105283
0.10491
0.105064
0.105364
0.106848
0.110083
0.115971
0.123823
0.133718
0.142381
0.149364
0.155743
0.160207
0.160914
0.159612
0.156402
0.152519
0.146492
0.13429
0.119599
0.110466
0.108028
0.104875
0.0994628
0.096213
0.0960143
0.0943749
0.092856
0.0926944
0.0942866
0.0980553
0.0998485
0.101162
0.102967
0.112113
0.123787
0.12394
0.123444
0.114718
0.109556
0.108765
0.109093
0.115404
0.121251
0.122127
0.118188
0.117015
0.105602
0.0967266
0.0977986
0.0954753
0.0898024
0.0926548
0.094615
0.0901794
0.0899862
0.092849
0.0909257
0.08873
0.0884528
0.0885531
0.0920509
0.0956496
0.0952919
0.0960497
0.0992785
0.107759
0.113219
0.115916
0.115931
0.117584
0.128231
0.134831
0.1466
0.159045
0.167143
0.183262
0.183343
0.184125
0.189119
0.196831
0.204816
0.209981
0.2256
0.241599
0.248937
0.272405
0.312239
0.395359
0.561872
0.672236
0.808741
0.934918
1.01361
0.987088
0.981302
0.937001
0.928569
0.88163
0.823111
0.780286
0.760138
0.745851
0.726777
0.687064
0.678449
0.709484
0.743929
0.733453
0.860068
0.945745
1.0878
1.26221
1.09973
1.28717
1.4805
1.57994
1.66532
1.72522
2.12892
2.12132
1.93125
2.26899
2.6068
2.41459
2.41704
2.55128
2.60036
3.45376
2.83904
3.08135
2.69602
2.18744
2.41247
2.40093
2.26279
25.7683
5.11967
1.31977
0.960459
0.312084
0.186691
0.181808
0.184682
0.185848
0.199002
0.208379
0.223134
0.244852
0.260729
0.267384
0.270504
0.272398
0.277091
0.283361
0.292998
0.303862
0.314432
0.330603
0.34831
0.365923
0.379458
0.387708
0.392833
0.394257
0.384581
0.36916
0.343085
0.304824
0.266803
0.225381
0.187474
0.158207
0.143036
0.131644
0.125465
0.120077
0.116523
0.113078
0.108754
0.105903
0.105487
0.105592
0.105998
0.107444
0.110353
0.1163
0.126694
0.135692
0.142407
0.148625
0.153043
0.153838
0.15401
0.151213
0.143832
0.132201
0.126389
0.122721
0.112669
0.100189
0.0961377
0.095108
0.0953703
0.0958346
0.0952753
0.0929648
0.0910637
0.0901439
0.0919796
0.0961147
0.0973097
0.0975073
0.0995906
0.1085
0.122817
0.123867
0.123096
0.117068
0.109655
0.110631
0.110125
0.114132
0.120319
0.12227
0.119424
0.118732
0.110628
0.0990203
0.0995695
0.0985201
0.0922038
0.0940417
0.0972588
0.0948353
0.0949049
0.0986518
0.100689
0.0984498
0.0959785
0.0962392
0.0996359
0.106268
0.105625
0.102629
0.110832
0.120653
0.127168
0.133203
0.128925
0.136971
0.154334
0.165342
0.17571
0.182916
0.193528
0.212256
0.212745
0.217533
0.213456
0.221907