/*--------------------------------*- C++ -*----------------------------------*\
| =========                 |                                                 |
| \\      /  F ield         | OpenFOAM: The Open Source CFD Toolbox           |
|  \\    /   O peration     | Version:  dev                                   |
|   \\  /    A nd           | Web:      http://www.openfoam.org               |
|    \\/     M anipulation  |                                                 |
\*---------------------------------------------------------------------------*/
FoamFile
{
    version     2.0;
    format      ascii;
    class       volScalarField;
    object      k_0;
    location    "9.166";
}
// * * * * * * * * * * * * * * * * * * * * * * * * * * * * * * * * * * * * * //

dimensions      [0 2 -2 0 0 0 0];

internalField   nonuniform List<scalar> 
12225
(
8.53845
11.0589
7.80096
8.9059
6.13098
9.44814
6.62133
11.6213
7.99371
15.1849
10.325
20.0051
14.5811
25.0545
23.8201
26.5986
43.4286
35.3256
2.04896
6.06562
5.10158
6.01307
4.46367
5.4585
4.09734
5.26894
4.15709
5.41144
4.58794
5.46237
5.3641
5.32584
7.30688
5.8143
7.08707
10.6313
0.229473
1.87708
2.04042
3.0719
2.89648
3.24297
3.02953
3.06
3.07892
2.82291
2.99381
2.49629
2.71634
2.06857
2.52903
1.72055
2.21975
1.78778
0.0244549
0.388515
0.658514
0.91095
1.3108
1.35062
1.63136
1.5144
1.7806
1.53098
1.7026
1.38041
1.47337
1.10983
1.25273
0.877034
1.1217
1.03481
0.00678814
0.0917665
0.212546
0.306071
0.521841
0.576139
0.750737
0.721196
0.809564
0.713851
0.782185
0.644968
0.707078
0.556615
0.63482
0.491461
0.666373
0.665971
0.00878882
0.0342909
0.0809171
0.108124
0.200039
0.220238
0.31047
0.292705
0.348264
0.309547
0.354709
0.304105
0.341009
0.289981
0.328782
0.28526
0.371216
0.434909
0.0127439
0.0177116
0.0374845
0.0439905
0.0836515
0.0891172
0.13123
0.125599
0.155513
0.146633
0.169727
0.157827
0.176562
0.167294
0.184543
0.181398
0.187314
0.266514
0.0151594
0.0181465
0.0275217
0.031431
0.0495567
0.0531349
0.0733254
0.0745549
0.0906638
0.0926261
0.106218
0.108028
0.118146
0.12408
0.130303
0.147896
0.146478
0.171087
0.022585
0.0245338
0.0283035
0.0318852
0.0420914
0.0469968
0.0591417
0.064026
0.0748776
0.0804098
0.0913086
0.0981011
0.105797
0.11512
0.120336
0.135447
0.137039
0.152776
0.0298221
0.0404316
0.0373205
0.0404396
0.0447048
0.0507994
0.0589769
0.0668586
0.0744162
0.0831358
0.0910078
0.101282
0.106209
0.117344
0.122094
0.13437
0.137138
0.146733
0.0531788
0.0635509
0.0573902
0.0648143
0.0618268
0.0700086
0.0723807
0.082979
0.0868129
0.0982351
0.103106
0.1158
0.1198
0.130954
0.136954
0.146238
0.150811
0.159067
0.111083
0.113189
0.102661
0.111304
0.108263
0.119096
0.119957
0.134565
0.136083
0.148467
0.151944
0.165305
0.169411
0.180332
0.185031
0.191674
0.19782
0.200988
0.242371
0.224473
0.19722
0.203126
0.200402
0.209471
0.212801
0.228706
0.232744
0.243742
0.24696
0.255888
0.259786
0.266606
0.271799
0.276796
0.281897
0.283533
0.471749
0.425847
0.370743
0.354674
0.334675
0.337238
0.339339
0.348664
0.35815
0.371216
0.379601
0.387325
0.393473
0.39772
0.398573
0.399116
0.397521
0.393844
0.829506
0.714985
0.655106
0.630368
0.603111
0.594349
0.590981
0.591648
0.591134
0.590947
0.584922
0.579818
0.568338
0.560182
0.543421
0.533524
0.513649
0.502188
1.35023
1.16488
1.02414
0.9251
0.850492
0.802981
0.770412
0.748934
0.729059
0.713904
0.694348
0.679288
0.65697
0.640623
0.61507
0.598436
0.56995
0.553624
1.80005
1.48251
1.2183
1.06237
0.958099
0.891013
0.844177
0.812298
0.783687
0.761847
0.736586
0.716987
0.690593
0.671222
0.642422
0.623079
0.59224
0.574081
1.88051
1.53326
1.25009
1.0849
0.975649
0.90538
0.856059
0.82239
0.792197
0.769004
0.742746
0.722301
0.695229
0.675329
0.64609
0.626207
0.594851
0.576408
1.68309
1.40545
1.17652
1.03255
0.934928
0.872199
0.827655
0.797359
0.769282
0.747378
0.722668
0.703315
0.677847
0.659363
0.631252
0.61266
0.581778
0.563895
1.14383
0.974286
0.871802
0.808216
0.765211
0.736646
0.712535
0.695458
0.676307
0.660985
0.643037
0.62906
0.610147
0.596916
0.574475
0.560589
0.533907
0.518251
0.693475
0.593654
0.523753
0.481493
0.458923
0.449962
0.445758
0.445441
0.443733
0.441601
0.439475
0.438484
0.436833
0.434697
0.430182
0.425383
0.413817
0.403326
0.403458
0.355482
0.316565
0.29826
0.29069
0.286659
0.284232
0.284074
0.284411
0.283005
0.280409
0.277469
0.274946
0.273845
0.273557
0.272412
0.269604
0.265989
0.215243
0.190904
0.173896
0.165811
0.158886
0.156018
0.156364
0.161881
0.170243
0.178653
0.186263
0.193441
0.199683
0.205945
0.211252
0.214615
0.216669
0.217526
0.100163
0.0931539
0.0847748
0.0824863
0.0841422
0.0936011
0.105964
0.119594
0.133809
0.147717
0.16037
0.171866
0.181958
0.19112
0.198777
0.204194
0.207889
0.211425
0.0428025
0.0416985
0.0429635
0.0517741
0.0671679
0.0866793
0.105245
0.123168
0.141126
0.158322
0.174007
0.188154
0.200523
0.211802
0.221305
0.2283
0.233173
0.237127
0.0139148
0.0208835
0.0378986
0.0685235
0.107674
0.147771
0.183723
0.214583
0.24184
0.265099
0.285499
0.302707
0.318027
0.332798
0.344312
0.353764
0.358538
0.360247
0.00559729
0.0382737
0.132674
0.269396
0.398233
0.496755
0.567441
0.61859
0.65598
0.682346
0.702696
0.715487
0.727674
0.738529
0.744107
0.746282
0.74201
0.735081
0.0259163
0.304562
0.918369
1.2921
1.59718
1.77253
1.84215
1.86785
1.87041
1.85648
1.83655
1.80908
1.77636
1.7431
1.68919
1.6455
1.57891
1.53916
0.46044
2.90449
4.29425
4.50125
4.42505
4.13266
3.83919
3.56937
3.33244
3.12789
2.94446
2.7797
2.63104
2.50012
2.37804
2.26689
2.14296
2.05507
7.0689
10.7649
9.82052
7.64009
6.16553
5.36755
4.91611
4.63629
4.44386
4.29888
4.17521
4.06382
3.95094
3.83051
3.70587
3.5727
3.43826
3.28386
0.125747
0.241191
0.279778
0.3171
0.375809
0.440108
0.503256
0.560389
0.604893
0.644432
0.678767
0.718215
0.775856
0.828662
0.875874
0.953687
1.04668
1.15777
1.29923
1.44523
1.60194
1.78082
1.9424
2.10854
2.26723
2.38287
2.4622
2.48736
2.48231
2.39314
2.17652
1.97588
1.87987
1.86171
1.86028
1.85147
1.88886
1.96757
2.01317
2.03112
2.07909
2.11025
2.17658
2.2058
2.20925
2.25531
2.42313
2.69807
2.90687
3.03625
3.34943
4.27435
5.66109
6.79685
7.65763
8.42909
9.08937
9.60688
9.98399
10.1848
10.2724
10.2859
10.0776
9.78667
9.37637
8.9084
8.40436
7.89137
7.39478
6.92594
6.44292
5.93276
5.41069
4.91567
4.48096
4.11217
3.74728
3.42809
3.12784
2.88567
2.65767
2.42847
2.29029
2.16473
2.02646
1.94813
1.88029
1.83334
1.80817
1.79453
1.79454
1.80592
1.82294
1.84967
1.88141
1.91859
1.96326
2.01628
2.07044
2.12519
2.18487
2.24782
2.30451
2.34384
2.37365
2.39176
2.39796
2.38926
2.37553
2.35796
2.31759
2.25242
2.16946
2.07022
1.96893
1.85722
1.77001
1.72057
1.70688
1.71396
1.73465
1.78148
1.87246
2.03357
2.27624
2.57426
2.93656
3.36372
3.83263
4.3496
4.77381
5.12964
5.41985
5.6637
6.06703
6.61706
7.31403
8.28139
9.59705
11.2702
12.179
12.4994
12.9117
14.9633
15.7798
14.7405
14.7874
14.9752
15.7782
14.8317
13.1919
12.7116
13.0587
12.476
12.4012
12.7738
12.5786
13.1573
13.4809
14.1371
14.7979
14.9585
14.972
15.0179
14.7442
14.624
14.6509
13.3665
12.7058
12.841
12.843
9.85136
7.48371
6.68965
6.15234
5.71296
6.85549
6.67675
9.78357
9.06423
0.600803
0.273413
0.235017
0.273535
0.367376
0.487746
0.576981
0.619684
0.597267
0.555907
0.510047
0.439879
0.376564
0.347266
0.319276
0.300249
0.290325
0.285322
0.287401
0.294571
0.314901
0.345914
0.398402
0.474724
0.578111
0.706184
0.856189
1.01825
1.20636
1.36605
1.43724
1.42255
1.36208
1.27568
0.976508
0.726897
0.596259
0.519766
0.503711
0.513316
0.585514
0.732025
0.934834
1.00532
1.14184
1.24521
1.71356
2.85828
3.36778
3.52851
3.57601
3.68875
3.78697
3.66916
3.33917
3.06651
2.74985
2.44885
2.17754
1.92575
1.70547
1.51782
1.33787
1.19712
1.093
1.00786
0.954897
0.910451
0.868048
0.828666
0.773344
0.71463
0.676659
0.653642
0.638873
0.62498
0.607176
0.597344
0.582068
0.571319
0.557315
0.554436
0.567044
0.562672
0.556875
0.578293
0.586186
0.601694
0.633856
0.656171
0.692855
0.729962
0.76318
0.804398
0.845941
0.883546
0.92725
0.979908
1.02991
1.07535
1.11885
1.17823
1.25433
1.3189
1.36585
1.4131
1.45617
1.47874
1.4948
1.52262
1.54148
1.54267
1.52421
1.47877
1.43239
1.37
1.31641
1.27866
1.26452
1.26657
1.26954
1.27881
1.29447
1.31617
1.39528
1.54264
1.71957
1.94047
2.18853
2.52301
2.80574
3.00882
3.13033
3.1388
3.30509
3.93826
4.92264
5.9607
6.62672
6.87142
6.20776
6.02085
6.63153
7.32267
6.61661
6.17883
6.53981
6.68754
6.04114
5.44605
5.38318
6.02653
6.09411
5.89898
6.74047
6.96684
6.95432
7.93211
8.14866
9.47909
9.77654
9.82256
10.2614
9.87312
8.65405
9.37826
10.2579
9.0321
8.2132
9.21766
10.0369
7.63341
5.96935
5.49442
4.4106
4.65247
5.3033
5.34711
6.20781
6.23142
1.75866
0.544124
0.310181
0.364372
0.565528
0.776642
0.80807
0.706916
0.608477
0.488389
0.38266
0.31417
0.251827
0.233732
0.226532
0.212914
0.2096
0.20331
0.19796
0.194793
0.1905
0.187944
0.188299
0.191874
0.202815
0.228434
0.258138
0.312106
0.390215
0.489577
0.582413
0.663143
0.770758
0.775921
0.729672
0.693139
0.508557
0.40318
0.390252
0.443948
0.664342
0.989468
1.42512
1.88035
2.36596
2.48672
2.49427
2.54745
2.56016
2.29727
2.06172
1.76336
1.36162
1.09009
0.90933
0.714388
0.55707
0.458219
0.387069
0.328362
0.29312
0.268822
0.255101
0.247318
0.243766
0.242666
0.246656
0.248733
0.248194
0.246631
0.242569
0.239846
0.239189
0.240087
0.241541
0.242407
0.244112
0.246129
0.247112
0.247341
0.247281
0.251847
0.257431
0.257491
0.257633
0.265728
0.268962
0.275424
0.287217
0.298524
0.317755
0.338032
0.353875
0.377795
0.401932
0.420051
0.44139
0.47044
0.502615
0.530198
0.550795
0.574893
0.620207
0.670779
0.706213
0.743139
0.792242
0.826025
0.854725
0.896954
0.939284
0.974445
0.993324
0.994302
0.992945
0.981399
0.955955
0.935176
0.919865
0.898776
0.889757
0.892792
0.894926
0.874482
0.868254
0.896678
0.95075
1.04627
1.1604
1.27757
1.37361
1.45161
1.52056
1.61649
1.97604
2.81569
3.69309
4.10953
4.16445
3.62606
2.98904
2.92143
3.42171
3.63693
3.02769
2.91142
3.15697
3.24009
2.8629
2.49678
2.48243
2.87358
2.98579
2.87532
3.27372
3.50382
3.52565
4.06574
4.11714
5.26731
5.65177
5.47744
6.48126
6.61456
5.33919
5.47264
6.31084
6.14052
5.44054
6.03816
7.11239
6.32386
5.33686
4.99356
3.9294
3.93158
4.0598
3.72961
4.15389
4.28802
3.50643
1.00145
0.623157
0.85349
1.1553
1.04239
0.872987
0.670107
0.467951
0.323563
0.244578
0.219635
0.208308
0.197823
0.198341
0.191728
0.188726
0.186265
0.179328
0.176833
0.173172
0.166499
0.162968
0.160384
0.159739
0.161747
0.165882
0.17456
0.198882
0.236221
0.268657
0.325116
0.394305
0.462536
0.527729
0.51114
0.460307
0.415695
0.461962
0.817896
1.50136
2.0765
2.18326
1.97293
1.92198
1.84778
1.63841
1.42422
1.10009
0.923477
0.728693
0.570227
0.447907
0.327646
0.26719
0.225493
0.199374
0.187995
0.18177
0.178367
0.177187
0.178444
0.180341
0.182366
0.18558
0.190792
0.197852
0.205999
0.212617
0.214401
0.214456
0.21419
0.213702
0.213507
0.213305
0.211816
0.210433
0.210023
0.210282
0.210267
0.21033
0.212332
0.214163
0.213879
0.214387
0.215342
0.214729
0.215323
0.215804
0.216772
0.22262
0.231323
0.237618
0.248929
0.263382
0.272936
0.283632
0.297977
0.318713
0.33748
0.350186
0.36153
0.382733
0.417798
0.444201
0.466536
0.501881
0.527873
0.551667
0.588251
0.630433
0.66412
0.693635
0.728131
0.757829
0.767846
0.761671
0.755007
0.74906
0.718925
0.703334
0.707568
0.706534
0.693589
0.684864
0.678993
0.6803
0.704359
0.757951
0.810364
0.86476
0.928022
1.00042
1.20509
1.80244
2.57056
2.93971
2.98551
2.82461
2.33604
2.03992
2.09227
2.46249
2.58828
2.27668
2.24688
2.40082
2.38955
2.13038
1.8316
1.78908
1.95644
2.05958
1.9994
2.16909
2.34145
2.40509
2.71756
2.96506
3.50577
3.94877
3.72621
4.78223
5.17903
4.14526
4.228
4.81033
4.8153
4.11704
4.52642
5.57868
5.52468
5.02848
4.55051
3.63474
3.5707
3.60981
3.02174
3.25204
3.47612
5.56677
1.65578
1.39036
1.63158
1.32697
1.02518
0.677503
0.397089
0.25968
0.215095
0.200181
0.19105
0.19134
0.182031
0.179318
0.173613
0.164481
0.160631
0.150051
0.148367
0.146384
0.143494
0.144181
0.146565
0.145038
0.145129
0.148405
0.1523
0.157391
0.169145
0.185419
0.208855
0.238509
0.299574
0.377396
0.412571
0.44247
0.476133
0.792538
1.71067
2.1131
1.87524
1.52957
1.36615
1.1504
0.942934
0.782144
0.609685
0.478171
0.353473
0.277569
0.223677
0.194001
0.169814
0.160333
0.155452
0.153367
0.152876
0.153762
0.155968
0.157639
0.159827
0.161609
0.164013
0.167117
0.172181
0.179243
0.188861
0.199364
0.2074
0.210139
0.211123
0.211224
0.21072
0.208961
0.207055
0.202185
0.199233
0.19821
0.197606
0.198354
0.199726
0.200883
0.201347
0.203681
0.204316
0.203099
0.201992
0.199593
0.194148
0.193572
0.194751
0.195814
0.199474
0.206664
0.213187
0.217915
0.224452
0.235814
0.253475
0.261417
0.267163
0.277149
0.299461
0.322905
0.33761
0.360068
0.378902
0.398917
0.425775
0.456378
0.488835
0.512668
0.530519
0.549014
0.574631
0.598812
0.624024
0.625162
0.612387
0.602607
0.609857
0.624748
0.630173
0.626565
0.603471
0.579049
0.56982
0.567933
0.60508
0.668223
0.730354
0.816483
1.08013
1.76167
2.31339
2.50998
2.39243
2.06051
1.69831
1.55758
1.7212
2.03404
2.21678
2.11895
2.12163
2.35605
2.26503
1.98268
1.65337
1.6385
1.63902
1.71281
1.71265
1.81162
1.89998
1.9683
2.2364
2.66455
2.84874
3.12463
3.00486
3.79731
4.17691
3.41007
3.92891
4.38048
4.23455
3.62045
3.69842
4.66881
4.96716
4.88214
4.29227
3.49189
3.3615
3.4674
2.77882
2.97897
3.13385
8.17714
2.72758
2.4261
1.80034
1.22417
0.679575
0.337254
0.226855
0.193387
0.181541
0.179493
0.173025
0.162073
0.15037
0.140813
0.132235
0.120458
0.118552
0.115365
0.115314
0.117724
0.11988
0.121451
0.127895
0.137882
0.137255
0.137715
0.145981
0.152581
0.155913
0.159507
0.165927
0.180941
0.211363
0.271478
0.3687
0.438152
0.695361
1.52532
1.86102
1.69735
1.2377
0.946335
0.815927
0.625015
0.483965
0.364413
0.277548
0.229245
0.180784
0.16104
0.148611
0.142504
0.137806
0.135761
0.134503
0.133981
0.133838
0.134264
0.135969
0.138525
0.141876
0.145524
0.149719
0.15432
0.159159
0.164449
0.170984
0.177956
0.184826
0.192244
0.198076
0.201225
0.204936
0.205071
0.203367
0.197479
0.194812
0.188573
0.183304
0.177986
0.175938
0.172582
0.172319
0.179183
0.187348
0.191016
0.192058
0.191911
0.186556
0.18133
0.180175
0.177504
0.177309
0.179855
0.185367
0.190033
0.191253
0.193946
0.202841
0.21271
0.21724
0.223928
0.237652
0.261094
0.276574
0.290962
0.301645
0.313831
0.337717
0.361179
0.38876
0.407907
0.412868
0.416089
0.422092
0.435922
0.46274
0.505716
0.514071
0.510233
0.504977
0.509012
0.515138
0.517252
0.50158
0.471092
0.456962
0.45832
0.493029
0.589577
0.653101
0.758752
1.02391
1.709
2.06221
2.11896
2.04022
1.72725
1.38042
1.27234
1.36889
1.60759
1.74749
1.73722
1.69519
1.99987
2.21358
1.83679
1.41853
1.39073
1.506
1.57619
1.59853
1.68341
1.74855
1.80652
2.02151
2.40347
2.64073
2.70591
2.71063
3.26537
3.46146
3.022
3.63659
4.17666
3.87645
3.53015
3.51003
4.1855
4.52804
4.7705
4.13618
3.4128
3.29314
3.43857
2.78572
2.91623
3.03438
11.4373
4.09373
2.7872
1.66846
0.791272
0.339028
0.210157
0.178875
0.166805
0.16174
0.152322
0.141725
0.130144
0.124445
0.11767
0.110677
0.106964
0.10689
0.106889
0.108588
0.113638
0.115871
0.118106
0.124171
0.141158
0.137908
0.136142
0.140967
0.14958
0.155211
0.157369
0.158311
0.170352
0.210564
0.273986
0.372038
0.585634
1.27029
1.67043
1.59082
1.09685
0.765542
0.619705
0.456132
0.335473
0.258178
0.200942
0.168519
0.15257
0.139409
0.133982
0.129663
0.127566
0.126548
0.126226
0.126265
0.127292
0.129097
0.131505
0.134807
0.138831
0.143259
0.148063
0.153
0.157554
0.161264
0.16541
0.169802
0.17357
0.176928
0.181217
0.188154
0.191831
0.198109
0.199613
0.199698
0.197426
0.194713
0.18538
0.179762
0.169024
0.164642
0.159138
0.149559
0.146461
0.148463
0.157067
0.16741
0.175791
0.176116
0.171452
0.166565
0.16401
0.159856
0.157121
0.158282
0.162635
0.168006
0.170612
0.175307
0.183995
0.18735
0.187948
0.193071
0.203572
0.219477
0.232363
0.241666
0.247942
0.259525
0.274918
0.299805
0.334642
0.342824
0.341794
0.337033
0.338704
0.349729
0.376111
0.41486
0.426466
0.414812
0.405578
0.405319
0.413035
0.405062
0.38502
0.372099
0.378984
0.414876
0.543873
0.610198
0.737218
1.00117
1.5609
1.84201
1.85408
1.73291
1.46733
1.25671
1.14368
1.15059
1.33602
1.44546
1.46823
1.52577
1.54152
1.63794
1.54394
1.19582
1.19121
1.41474
1.49634
1.49485
1.60481
1.66007
1.67706
1.94577
2.06037
2.44262
2.50157
2.4486
2.93859
3.08495
3.01045
3.36998
3.87519
3.49978
3.29738
3.43712
3.94946
4.16697
4.54054
4.09438
3.39435
3.14626
3.41585
2.82952
2.98643
3.2407
15.2484
5.35802
2.75416
1.13012
0.410994
0.210351
0.17209
0.163156
0.154177
0.148045
0.142699
0.129581
0.118201
0.115698
0.111892
0.106378
0.104629
0.104984
0.106203
0.108579
0.112947
0.115063
0.118873
0.125905
0.13456
0.135517
0.13637
0.143851
0.149158
0.148648
0.148908
0.154185
0.166819
0.203239
0.294394
0.48608
1.0598
1.49079
1.48605
1.08245
0.659801
0.505204
0.378757
0.260284
0.204804
0.16777
0.148542
0.136874
0.131494
0.126892
0.124571
0.12364
0.123375
0.123963
0.125633
0.127486
0.130365
0.135431
0.14183
0.148552
0.154774
0.158694
0.160961
0.162386
0.163125
0.163878
0.164845
0.165679
0.166042
0.166945
0.167715
0.170885
0.176504
0.184612
0.191754
0.194724
0.194833
0.190252
0.180253
0.174609
0.164087
0.15852
0.154498
0.144378
0.133632
0.128932
0.126768
0.128892
0.136982
0.148817
0.152206
0.151118
0.149328
0.145614
0.138203
0.134597
0.135546
0.138534
0.140634
0.142413
0.14732
0.156576
0.16132
0.164309
0.167813
0.17839
0.189326
0.198276
0.200684
0.204819
0.210192
0.221039
0.242909
0.258759
0.266469
0.281238
0.290478
0.288579
0.294132
0.315111
0.343189
0.360777
0.353439
0.338663
0.331533
0.329789
0.329602
0.323327
0.327496
0.357815
0.498996
0.589204
0.728065
0.992816
1.37207
1.60005
1.65297
1.53089
1.29615
1.16296
1.08975
1.08742
1.22358
1.26982
1.29895
1.44963
1.36523
1.31932
1.17465
1.06348
1.08393
1.25736
1.32731
1.28096
1.47946
1.48875
1.49084
1.83841
1.82585
2.21777
2.36373
2.34027
2.57065
2.78238
2.99155
3.16566
3.49439
3.14079
3.14076
3.3553
3.71197
3.85165
4.2301
4.09686
3.39191
3.0077
3.26062
2.79269
3.22777
3.5102
19.4181
5.77002
2.23656
0.693897
0.265032
0.173734
0.163442
0.15772
0.150295
0.146302
0.139425
0.12247
0.114021
0.11365
0.112611
0.10973
0.109025
0.110584
0.113586
0.115304
0.115545
0.118469
0.123418
0.131138
0.133389
0.134124
0.135508
0.137329
0.137277
0.136167
0.137424
0.146567
0.172087
0.238116
0.42674
0.937332
1.32229
1.35152
1.08874
0.615135
0.431828
0.331459
0.226326
0.177331
0.152959
0.137999
0.130581
0.125266
0.122881
0.121611
0.121233
0.121421
0.123488
0.126186
0.130359
0.137936
0.14579
0.15346
0.158829
0.162156
0.163722
0.164274
0.16417
0.162118
0.158796
0.155036
0.149583
0.144465
0.139504
0.137344
0.134978
0.133184
0.134311
0.138695
0.153671
0.169607
0.175601
0.173295
0.163355
0.152328
0.147597
0.143432
0.14536
0.141006
0.130839
0.122567
0.114788
0.111123
0.112055
0.119417
0.12394
0.124317
0.125973
0.128757
0.127225
0.120606
0.118784
0.118159
0.116486
0.114659
0.11716
0.122677
0.131465
0.135327
0.13769
0.142668
0.151746
0.159706
0.163131
0.161608
0.161204
0.165253
0.176331
0.191096
0.197501
0.209237
0.23315
0.246076
0.246594
0.24982
0.26089
0.281274
0.292849
0.283056
0.271248
0.272395
0.279238
0.275961
0.28022
0.308131
0.435684
0.571524
0.709824
0.982698
1.25588
1.39657
1.45872
1.38906
1.18173
1.09044
1.09731
1.08594
1.16553
1.18992
1.19843
1.29663
1.21799
1.11464
1.0032
0.955497
0.973714
1.06281
1.11092
1.12274
1.34601
1.32883
1.32456
1.67788
1.7715
2.02534
2.22739
2.37963
2.32919
2.55881
2.97784
2.83845
3.02049
2.83354
3.01899
3.28349
3.5033
3.5595
3.96504
4.10838
3.37912
2.87173
2.86843
2.64386
3.35474
3.51318
23.2418
5.82265
1.57939
0.549757
0.221677
0.166749
0.16197
0.157047
0.150416
0.146159
0.137973
0.121886
0.11511
0.117186
0.122811
0.125269
0.126877
0.130268
0.130924
0.129881
0.129899
0.132569
0.137293
0.140611
0.141725
0.142525
0.142136
0.140859
0.140666
0.143065
0.150992
0.175529
0.250417
0.473071
0.927562
1.16631
1.1996
1.03388
0.604896
0.391177
0.294567
0.214254
0.165215
0.143892
0.132815
0.125923
0.121888
0.119276
0.118748
0.118658
0.119774
0.122981
0.127319
0.13323
0.14073
0.147693
0.152801
0.157223
0.160955
0.163315
0.164882
0.165343
0.165339
0.163431
0.159151
0.15411
0.147169
0.139858
0.132567
0.126036
0.12291
0.120149
0.118295
0.115623
0.117221
0.125026
0.139482
0.148975
0.146958
0.135081
0.125152
0.117204
0.117675
0.123761
0.126023
0.12102
0.113148
0.1054
0.101547
0.103886
0.106725
0.105942
0.104944
0.106609
0.108845
0.107606
0.106568
0.105405
0.102589
0.0982435
0.0984992
0.100607
0.106289
0.109753
0.113746
0.116452
0.12183
0.125649
0.13044
0.131331
0.130717
0.1344
0.13968
0.148176
0.155017
0.159541
0.177157
0.198608
0.20495
0.205115
0.20758
0.216702
0.236531
0.241126
0.238213
0.238296
0.242079
0.243644
0.253939
0.282128
0.37017
0.555698
0.680982
0.960828
1.16967
1.27931
1.31933
1.2763
1.12141
1.03452
1.07403
1.11437
1.1301
1.14659
1.12412
1.14926
1.10957
1.05425
0.955181
0.910615
0.915405
0.934939
0.984547
1.07968
1.26278
1.22915
1.2776
1.4728
1.76512
1.81906
2.11545
2.36537
2.28761
2.42774
2.94902
2.57183
2.57725
2.66441
2.93593
3.1466
3.31151
3.40423
3.79012
4.07996
3.27894
2.73648
2.58573
2.48101
3.32407
3.06527
26.0276
5.5345
1.33089
0.520106
0.214901
0.16673
0.165845
0.162687
0.156825
0.150421
0.140646
0.128909
0.125236
0.129111
0.13927
0.150152
0.158071
0.162987
0.162361
0.157811
0.156058
0.157997
0.162881
0.165163
0.166941
0.167053
0.168538
0.170834
0.179138
0.200198
0.250508
0.371813
0.603699
0.889379
1.01521
1.04275
0.925451
0.585851
0.367852
0.271441
0.204487
0.159777
0.138963
0.128854
0.122871
0.117679
0.115809
0.115328
0.115521
0.116944
0.120552
0.125636
0.131147
0.137208
0.143656
0.149518
0.154437
0.159497
0.164367
0.167951
0.171048
0.172112
0.172474
0.170863
0.16654
0.161179
0.155278
0.145831
0.136524
0.124781
0.119643
0.117188
0.116206
0.112335
0.108104
0.108603
0.11272
0.129638
0.137425
0.132154
0.118995
0.106518
0.103106
0.10459
0.10972
0.115263
0.113653
0.106009
0.0998881
0.0986106
0.0989748
0.0961885
0.0951186
0.0958698
0.0957355
0.0954369
0.0963304
0.0968585
0.0947062
0.0909556
0.0900877
0.0901803
0.0923183
0.0949126
0.0980642
0.101098
0.105229
0.106595
0.108579
0.112082
0.114169
0.118746
0.123269
0.127555
0.132155
0.134414
0.144674
0.160743
0.172191
0.177265
0.182042
0.184061
0.194278
0.210987
0.211845
0.213619
0.217261
0.226188
0.238036
0.262605
0.320477
0.520091
0.656359
0.863622
1.09677
1.20274
1.24412
1.20233
1.11047
1.01247
1.00485
1.11783
1.1217
1.13721
1.09162
1.0779
0.957671
0.940781
0.921385
0.887954
0.895582
0.872664
0.892305
1.05481
1.1889
1.18366
1.19367
1.31344
1.71248
1.72257
2.00376
2.2159
2.22418
2.36973
2.83712
2.37303
2.23981
2.62149
2.91558
2.99016
3.17057
3.3137
3.61649
3.90581
3.17604
2.68752
2.34953
2.43365
2.86365
2.52678
27.5497
5.17882
1.25727
0.544132
0.224397
0.175339
0.179738
0.175656
0.170134
0.161778
0.152191
0.148429
0.148751
0.156662
0.173319
0.193645
0.207255
0.214254
0.215084
0.211517
0.211339
0.217081
0.226753
0.235899
0.247725
0.259097
0.278333
0.307437
0.361628
0.446856
0.550934
0.673505
0.808405
0.871791
0.890425
0.795659
0.539543
0.346415
0.250507
0.197842
0.156717
0.135709
0.125675
0.119041
0.11446
0.111698
0.111213
0.111326
0.112309
0.115426
0.120067
0.125165
0.130563
0.136829
0.143908
0.15089
0.158174
0.16554
0.170875
0.174396
0.176498
0.177535
0.176906
0.172897
0.16689
0.159847
0.155384
0.147261
0.139214
0.124753
0.112127
0.107294
0.10831
0.109298
0.106762
0.103523
0.103996
0.110844
0.12772
0.130376
0.120192
0.106057
0.0995831
0.0986415
0.101543
0.107751
0.11279
0.112405
0.103056
0.0987189
0.0980019
0.0935588
0.0917211
0.091854
0.0904735
0.0902359
0.0912724
0.0926803
0.0909528
0.0884217
0.0874551
0.0871564
0.0869506
0.0883543
0.0897184
0.0929138
0.0957538
0.0981738
0.098413
0.101682
0.106553
0.111332
0.115331
0.118834
0.119366
0.123776
0.134854
0.145358
0.154572
0.16415
0.170509
0.176013
0.177839
0.191809
0.198699
0.202341
0.204786
0.216033
0.227086
0.246054
0.289043
0.431069
0.639938
0.768396
0.980345
1.12582
1.21364
1.15443
1.09163
1.01816
0.966161
1.09001
1.1058
1.07779
1.04285
0.98531
0.910312
0.900378
0.856701
0.844466
0.852794
0.839713
0.821592
1.02444
1.11903
1.17885
1.17064
1.2093
1.56898
1.68565
1.88043
2.04204
2.11193
2.33415
2.66841
2.20284
2.07507
2.64487
2.90841
2.82933
3.03487
3.1879
3.51335
3.66008
3.10069
2.68595
2.19667
2.44113
2.56253
2.31833
28.0775
5.10734
1.25435
0.696153
0.2735
0.192998
0.190587
0.187084
0.18429
0.181599
0.179896
0.184426
0.190484
0.206698
0.225264
0.244778
0.256132
0.265765
0.273438
0.281832
0.29601
0.313316
0.33217
0.350376
0.372159
0.397048
0.429512
0.468205
0.515415
0.573397
0.639783
0.710598
0.742101
0.740278
0.641701
0.473741
0.328558
0.235822
0.186316
0.155873
0.13439
0.123284
0.117923
0.112847
0.108947
0.107817
0.107712
0.108114
0.109531
0.112985
0.11804
0.1237
0.12973
0.137177
0.14559
0.154661
0.162684
0.169453
0.174326
0.176508
0.177358
0.175541
0.170528
0.163519
0.153208
0.138158
0.130175
0.126081
0.124302
0.11725
0.102714
0.0958938
0.0950444
0.0978993
0.10115
0.100476
0.0995577
0.103258
0.117355
0.126312
0.123655
0.111117
0.100306
0.0992886
0.0998888
0.10518
0.1113
0.11587
0.113494
0.106525
0.101357
0.0941821
0.0920265
0.0921023
0.0902412
0.0886739
0.0908117
0.0914353
0.089453
0.0882599
0.087352
0.087142
0.086493
0.0869913
0.0879262
0.0912668
0.0931206
0.094736
0.095333
0.0986818
0.104858
0.109724
0.112809
0.116142
0.115613
0.11998
0.13065
0.144427
0.152722
0.161583
0.166079
0.173109
0.176035
0.185845
0.195076
0.200879
0.201658
0.213013
0.223856
0.239857
0.277265
0.36214
0.580379
0.711065
0.849467
1.01865
1.1721
1.12965
1.06902
1.01842
0.953817
1.02606
1.02792
0.93395
0.943624
0.900147
0.876574
0.850076
0.793263
0.784041
0.788747
0.804138
0.778181
0.975038
1.05194
1.16119
1.20138
1.14728
1.42709
1.59716
1.76433
1.91019
1.97203
2.3064
2.47517
2.07824
2.05429
2.71152
2.85899
2.68256
2.86953
2.97517
3.48667
3.32466
3.06693
2.72679
2.17056
2.44329
2.43877
2.26525
28.1875
5.1085
1.31207
0.931423
0.331216
0.199621
0.192335
0.189904
0.188595
0.195686
0.200135
0.212059
0.226985
0.244877
0.254763
0.264383
0.271093
0.279991
0.288804
0.301568
0.319833
0.336814
0.355662
0.375676
0.400642
0.428308
0.461009
0.498281
0.53808
0.580532
0.608451
0.617551
0.589758
0.494942
0.409504
0.308793
0.23084
0.18007
0.152738
0.134987
0.123269
0.116657
0.113156
0.108684
0.105902
0.105197
0.105267
0.105835
0.107378
0.110738
0.116345
0.12293
0.130298
0.139475
0.149299
0.156389
0.163013
0.168057
0.170392
0.170889
0.169267
0.160823
0.146391
0.136665
0.133349
0.124928
0.112307
0.104883
0.10119
0.100608
0.0979266
0.0935734
0.0918104
0.0936373
0.0967852
0.0985989
0.0993268
0.100698
0.1108
0.122165
0.124297
0.120687
0.106684
0.104723
0.103253
0.106783
0.113526
0.118791
0.117874
0.114382
0.112372
0.0996628
0.0938397
0.0948305
0.0916154
0.0889822
0.0919445
0.0922013
0.0894291
0.08882
0.0889481
0.0876826
0.0872493
0.0873235
0.0880352
0.0915437
0.0935648
0.0942357
0.0951654
0.0985399
0.105543
0.110481
0.113036
0.115488
0.11625
0.121737
0.129673
0.143275
0.15487
0.162908
0.169729
0.172839
0.177593
0.186062
0.194552
0.20101
0.203409
0.214964
0.225948
0.239074
0.273716
0.327498
0.464292
0.639196
0.753829
0.901014
1.06559
1.09607
1.0458
1.00976
0.95218
0.979808
0.92273
0.852956
0.83796
0.819621
0.799492
0.759168
0.731819
0.726804
0.740277
0.762791
0.750535
0.912636
0.99523
1.13749
1.24296
1.11491
1.35521
1.52707
1.66271
1.76884
1.83216
2.2585
2.28303
1.98572
2.18358
2.72495
2.63736
2.53884
2.70566
2.75455
3.50893
3.04243
3.08578
2.76377
2.18458
2.45534
2.42896
2.27404
28.1273
5.10435
1.34548
0.982075
0.336002
0.19875
0.191285
0.189844
0.188778
0.1989
0.206614
0.220678
0.240053
0.257581
0.265444
0.271102
0.275358
0.283038
0.291504
0.304912
0.322551
0.337941
0.356347
0.377279
0.402435
0.428168
0.454407
0.480234
0.49522
0.499916
0.491188
0.450045
0.403691
0.349886
0.287087
0.225739
0.179557
0.152831
0.135116
0.125875
0.119275
0.115456
0.112106
0.107749
0.105288
0.104893
0.105025
0.105308
0.106789
0.11005
0.116021
0.124249
0.1344
0.142868
0.149748
0.156063
0.160152
0.160642
0.159206
0.155787
0.151715
0.145654
0.133474
0.11881
0.109676
0.107271
0.104293
0.0989475
0.0958608
0.0956204
0.0939951
0.0926711
0.0925593
0.0941132
0.0976412
0.0992399
0.100641
0.102642
0.111786
0.123488
0.123578
0.123118
0.114919
0.109608
0.109066
0.109191
0.115453
0.12133
0.122309
0.118637
0.117409
0.106344
0.0972753
0.0983724
0.0961789
0.090492
0.0933259
0.095408
0.091026
0.0908391
0.0941087
0.0925153
0.0897866
0.0893295
0.0896219
0.0930103
0.0970597
0.0965932
0.0966456
0.100805
0.109412
0.114927
0.117998
0.117169
0.119106
0.131239
0.138275
0.150045
0.160831
0.169337
0.187889
0.188137
0.18783
0.191937
0.201367
0.209413
0.214543
0.231146
0.248737
0.255005
0.275665
0.316373
0.396671
0.562911
0.672697
0.810883
0.930296
1.00472
0.978705
0.98086
0.936812
0.918974
0.876825
0.821495
0.775122
0.75355
0.741135
0.725132
0.690549
0.682745
0.713253
0.750529
0.739538
0.855718
0.94716
1.08332
1.25979
1.11541
1.2901
1.4785
1.59651
1.67256
1.71795
2.15053
2.1273
1.94319
2.33692
2.63433
2.43524
2.44458
2.5322
2.57401
3.48177
2.84765
3.19933
2.76566
2.27003
2.48362
2.47587
2.30089
27.8689
5.02065
1.32664
0.97383
0.318093
0.188084
0.182823
0.185498
0.18634
0.199115
0.2083
0.222682
0.244194
0.26068
0.267668
0.271101
0.273157
0.277822
0.283955
0.293392
0.304043
0.314101
0.329629
0.346738
0.363655
0.376464
0.383666
0.387481
0.388813
0.378784
0.362452
0.336733
0.298522
0.261205
0.221077
0.184731
0.156685
0.142056
0.131101
0.125233
0.120148
0.116733
0.113264
0.108896
0.105904
0.105457
0.105546
0.105975
0.107454
0.110394
0.116556
0.12713
0.136097
0.142739
0.148828
0.152926
0.153596
0.153737
0.150671
0.143105
0.131342
0.125502
0.121816
0.111557
0.0993872
0.0955165
0.0946806
0.0950865
0.0956064
0.0949723
0.0926351
0.0908922
0.0899355
0.0918392
0.0958068
0.0968099
0.0968496
0.0988219
0.10761
0.121818
0.123167
0.122429
0.116754
0.10938
0.1104
0.109964
0.113775
0.119977
0.122027
0.119554
0.118847
0.111084
0.0995459
0.100056
0.099086
0.0928992
0.0947306
0.0979293
0.0958964
0.0959693
0.0997439
0.102396
0.100633
0.0976471
0.0982679
0.102207
0.108592
0.108096
0.105023
0.114189
0.123648
0.130041
0.136032
0.133393
0.142482
0.158058
0.16922
0.181049
0.187813
0.198601
0.216959
0.218125
0.224363
0.22002
0.229549
0.239628
0.250526
0.266415
0.282633
0.287584