/*--------------------------------*- C++ -*----------------------------------*\
| =========                 |                                                 |
| \\      /  F ield         | OpenFOAM: The Open Source CFD Toolbox           |
|  \\    /   O peration     | Version:  dev                                   |
|   \\  /    A nd           | Web:      http://www.openfoam.org               |
|    \\/     M anipulation  |                                                 |
\*---------------------------------------------------------------------------*/
FoamFile
{
    version     2.0;
    format      ascii;
    class       volScalarField;
    object      p;
    location    "9.166";
}
// * * * * * * * * * * * * * * * * * * * * * * * * * * * * * * * * * * * * * //

dimensions      [1 -1 -2 0 0 0 0];

internalField   nonuniform List<scalar> 
12225
(
89813.4
89849.9
89957.9
90123.7
90329.3
90569.9
90833.3
91118.2
91412.1
91719.8
92026.3
92348.8
92657.1
93001.1
93317.1
93697.6
94079.9
94459.2
89818.1
89858.7
89967.2
90132.9
90338.3
90578.6
90841.8
91126.4
91420
91727.5
92033.5
92355.3
92664
93003.4
93320.3
93696.7
94056.4
94458.9
89836.7
89880.3
89989.5
90154.6
90359.3
90599.2
90861.7
91145.8
91438.8
91745.2
92050.8
92368.1
92679.6
93009.8
93329.2
93686.3
94030
94426.6
89873.1
89918.2
90028.1
90192.3
90396.2
90635.2
90896.8
91179.7
91471.9
91776.3
92081.1
92394.8
92705.6
93026.4
93344.3
93680.5
94021.2
94334
89927.6
89977.4
90087.7
90250.6
90453.2
90690.8
90951.2
91232.2
91523.1
91824.2
92128.3
92436
92747
93057.4
93378.2
93697.8
94026.6
94408.7
90009.9
90064
90173.4
90334.9
90535.7
90771.5
91029.6
91308.1
91596.7
91894.5
92196.2
92500.4
92808.4
93112.2
93431.9
93742.1
94066.7
94384.9
90128.6
90184.3
90292.5
90452.1
90650.6
90883.7
91139
91413.9
91699.6
91993.3
92291.4
92591.1
92894.7
93192.4
93502.6
93804.8
94102.9
94394.6
90267.3
90322.4
90429.2
90586.7
90782.6
91012.6
91265
91536.1
91818.4
92107.7
92401.6
92696.1
92993.8
93284.2
93582.2
93865.8
94152.3
94425.2
90416.4
90472.3
90577.8
90732.9
90926.4
91152.9
91402.2
91669.2
91947.6
92232.4
92521.4
92810.6
93100.7
93384.4
93669.7
93945
94214.6
94472.7
90618.2
90672.7
90776.2
90928.4
91118.6
91340.6
91585.5
91847.2
92120.2
92398.9
92681.5
92963.4
93244.3
93519.1
93791.4
94055.1
94308.8
94551.8
90893.9
90940.8
91041.6
91189.8
91375.5
91591.3
91830.3
92084.9
92350.7
92621.9
92895.5
93168.1
93437.9
93701.9
93960.4
94210.1
94448.5
94675.3
91258.9
91298.7
91396.2
91538.6
91718.1
91925.9
92156.8
92402.4
92658.8
92919.6
93182.1
93442.8
93699.4
93950.3
94193.7
94427.8
94650.3
94860.8
91735.8
91773.8
91867.6
92002.9
92173.9
92371.8
92591.9
92825.8
93069.5
93316.9
93565.3
93811.2
94052.4
94287.2
94513.5
94730.3
94936.1
95130.2
92360.8
92402.5
92492.1
92618.7
92778.8
92963.7
93169.4
93387.8
93615
93845.4
94076.1
94303.8
94526.4
94742
94949.2
95146.9
95334
95510.4
93195.5
93232.2
93314.6
93430.5
93576.2
93744.5
93931.1
94129.6
94335.6
94544.5
94753
94958.3
95158.3
95351.4
95536.3
95712.2
95878.5
96035.1
94276.2
94312.8
94387.1
94489.9
94617.3
94764.3
94926.8
95099.7
95278.9
95460.4
95641.2
95818.8
95991.3
96157.3
96315.9
96466.6
96608.8
96742.7
95657.5
95699
95765.1
95851.5
95956.2
96076.1
96208.1
96348.6
96493.9
96641
96787.3
96930.7
97069.7
97203.2
97330.4
97451
97564.7
97671.6
97297.7
97318.7
97368.5
97434.2
97512.2
97600.9
97698
97801.3
97908
98016
98123.2
98228.1
98329.6
98426.6
98519
98606.2
98688.2
98765.1
98872.3
98892.9
98929.7
98975
99027.3
99085.8
99149.5
99217
99286.8
99357.2
99427
99495.1
99560.6
99622.9
99681.9
99737.2
99789
99836.9
100250
100267
100290
100316
100346
100378
100413
100450
100488
100526
100564
100600
100635
100667
100697
100725
100750
100773
101420
101420
101428
101438
101449
101460
101471
101483
101495
101506
101517
101527
101536
101543
101549
101554
101557
101558
102352
102347
102346
102344
102340
102334
102327
102319
102310
102300
102290
102279
102267
102254
102240
102226
102211
102195
103070
103070
103065
103054
103039
103021
102999
102975
102950
102924
102897
102869
102841
102812
102783
102754
102725
102696
103614
103619
103611
103594
103571
103543
103510
103475
103438
103399
103359
103319
103278
103238
103197
103156
103116
103077
104025
104026
104013
103991
103963
103928
103888
103844
103798
103750
103701
103651
103602
103552
103502
103454
103406
103359
104324
104316
104299
104274
104241
104202
104156
104107
104054
104000
103944
103888
103832
103776
103720
103666
103612
103560
104525
104513
104493
104465
104430
104387
104338
104285
104228
104169
104109
104049
103988
103928
103868
103809
103752
103696
104653
104637
104615
104586
104549
104505
104454
104398
104338
104277
104214
104151
104087
104024
103962
103901
103841
103783
104727
104707
104683
104654
104616
104571
104519
104461
104401
104337
104273
104208
104143
104078
104015
103952
103891
103832
104761
104737
104712
104682
104644
104598
104546
104488
104427
104363
104298
104232
104166
104101
104037
103974
103912
103852
114973
114961
114937
114899
114848
114785
114711
114624
114526
114414
114289
114150
113998
113832
113652
113459
113253
113035
112804
112562
112309
112045
111771
111487
111193
110891
110580
110261
109934
109599
109257
108909
108557
108200
107839
107473
107103
106731
106358
105985
105611
105237
104866
104499
104134
103770
103412
103063
102719
102377
102040
101711
101383
101056
100728
100401
100075
99750.9
99428.4
99107.7
98788.2
98470
98152.9
97836.1
97519.4
97202.4
96885
96567
96248
95928
95607
95285.2
94962.8
94640.1
94317.5
93995.8
93675.6
93357.6
93042.7
92731.6
92425.4
92124.4
91829.8
91542.7
91263.6
90993
90731.9
90480.9
90240.8
90012.3
89796
89592.6
89403.2
89228.2
89068.2
88923.7
88795.1
88682.6
88586.7
88507.6
88446
88402.1
88376.2
88368.6
88379.9
88410.6
88461.3
88530.5
88618.3
88724.6
88847.6
88986.2
89139.3
89303
89475.4
89654.3
89837.6
90022.5
90205.5
90383.2
90553.4
90713.8
90861.9
90995.6
91112.5
91211.9
91292.7
91352.7
91390.9
91404.2
91389.6
91347.9
91281.4
91194.1
91086.7
90961.8
90823.8
90664.7
90489.7
90303.4
90109.6
89912.9
89718.5
89528
89342.1
89163.5
88995
88835.6
88682.7
88537.8
88397.9
88257.1
88117
87976.4
87829.7
87674.1
87507.2
87330.8
87138.4
86925
86679.9
86395
86075.6
85720.2
85342.3
84965.3
84571.5
84121
83622.1
83092.6
82507.3
81856.2
81168.3
80472.7
79738.8
79078.1
78514.6
78041.2
77610.7
77363.3
114773
114762
114737
114699
114650
114589
114517
114432
114336
114226
114104
113968
113818
113655
113479
113289
113086
112872
112645
112406
112156
111895
111625
111346
111056
110759
110453
110138
109817
109488
109151
108810
108464
108111
107755
107396
107030
106662
106293
105923
105552
105180
104809
104440
104082
103728
103382
103043
102705
102366
102030
101701
101375
101051
100727
100404
100082
99762.3
99444.2
99127.5
98812.3
98498.1
98184.9
97872
97559.2
97246
96932.2
96617.5
96301.8
95985.1
95667.4
95348.8
95029.6
94710
94390.4
94071.6
93754.2
93438.9
93126.5
92817.9
92514.2
92215.8
91923.4
91638.4
91361.5
91093
90833.9
90584.9
90346.4
90119.6
89905
89703.1
89514.9
89341
89182
89038.5
88910.9
88799.3
88704.3
88626.2
88565.5
88522.6
88497.7
88490.6
88502.4
88533.3
88585.7
88654.6
88742.3
88848.6
88971.1
89108.6
89261.2
89423.3
89594
89771.1
89952.1
90134.9
90315.1
90489.5
90656.3
90812.5
90955.9
91084.6
91197
91292.2
91370.2
91426.6
91461.4
91469.8
91451.2
91405.5
91335.4
91245
91135.1
91006.6
90870.4
90707.8
90530.1
90341
90145.3
89947.1
89750.9
89558.5
89370.8
89189.8
89018.4
88855.9
88701.2
88555.1
88413.3
88269.3
88126.9
87984.3
87835.5
87677.8
87509.5
87332
87137.9
86922.7
86677.3
86392.2
86073.4
85716.1
85338.1
84965.3
84575.3
84124.4
83626.1
83105.4
82529.2
81883.4
81202.8
80509.3
79775.1
79118.6
78554.8
78081.8
77671.8
77423.6
114382
114371
114348
114314
114267
114209
114140
114060
113967
113862
113744
113612
113468
113311
113140
112957
112761
112552
112332
112100
111857
111603
111341
111068
110787
110498
110201
109897
109585
109267
108943
108612
108274
107932
107586
107235
106881
106525
106163
105799
105435
105069
104711
104361
104015
103671
103331
102998
102668
102338
102010
101685
101364
101045
100728
100413
100099
99787.7
99477.5
99168.9
98861.5
98555.2
98249.4
97944
97638.6
97332.7
97026
96718.2
96409.1
96098.8
95787.5
95475.1
95162.1
94848.8
94535
94221.8
93909.9
93600
93292.8
92989
92689.8
92396.3
92108.4
91827.7
91555
91290.7
91035.6
90790.5
90555.7
90332.5
90121.4
89922.7
89737.6
89566.4
89409.6
89268.5
89143.2
89033.7
88940.3
88863.6
88804.7
88764
88742
88736
88749.7
88782.5
88835.2
88905.7
88994.7
89101.2
89223.5
89360.2
89509.9
89670
89837.5
90009.6
90184.9
90361.5
90535
90701.9
90862.4
91008.9
91142
91260.5
91363.9
91450.4
91520.5
91570.5
91599.8
91601.6
91576.2
91522.9
91445.6
91348.4
91233.3
91102.7
90957.2
90790.8
90607.6
90414.5
90216
90016
89817.4
89619.9
89428.3
89243.4
89066.7
88898.8
88737.8
88587
88444
88294.7
88147.4
88001.4
87848.3
87687.6
87514.6
87334.2
87137.1
86915.7
86669.8
86383.8
86067.3
85706.2
85335.1
84969.3
84581
84128.9
83632.5
83129.6
82567.1
81936.2
81264.1
80577.1
79856.3
79213.4
78650.6
78191.2
77801.7
77558.6
113817
113807
113786
113754
113712
113659
113595
113519
113432
113332
113221
113096
112959
112809
112647
112471
112284
112084
111874
111652
111419
111178
110926
110666
110396
110119
109835
109544
109246
108942
108632
108318
107997
107669
107337
107002
106663
106319
105972
105620
105270
104928
104586
104249
103916
103586
103257
102932
102610
102291
101974
101660
101349
101041
100735
100431
100128
99828.1
99529.4
99232.1
98935.8
98640.5
98345.5
98050.8
97755.9
97460.4
97163.9
96866.2
96567.1
96266.6
95964.8
95661.8
95357.9
95053.5
94748.7
94443.9
94140.2
93838.2
93538.8
93242.3
92950
92663.2
92382
92107.5
91840.9
91582.3
91332.9
91093.2
90863.8
90645.6
90439.5
90245.7
90065.2
89898.7
89746.1
89608.5
89487.1
89381.7
89291.9
89217.7
89160.4
89121.8
89104.4
89100.7
89116.5
89151.5
89206.1
89278.9
89369.7
89477
89599.3
89734.8
89882.2
90039.9
90203.7
90369
90534.5
90699.7
90860.5
91014.3
91161.1
91296.7
91416.7
91520.1
91608.7
91682.5
91739.5
91779.4
91800.4
91793.7
91759
91697.4
91611.3
91504.9
91381.5
91244.1
91088.8
90913.8
90722.9
90523.4
90321.7
90120.1
89917
89709.5
89509.9
89322.5
89142.3
88967
88794.9
88634.6
88485.1
88333.6
88178.2
88028.6
87871.1
87703.5
87528.5
87341
87137.4
86907.1
86661
86372.9
86059.1
85690.8
85330.5
84977.1
84591.8
84136.3
83659.4
83169.8
82623.6
82013.5
81356.3
80681.7
79985.3
79364.4
78814.2
78368.4
77993.4
77768.4
113096
113088
113069
113042
113004
112955
112896
112826
112744
112651
112547
112431
112302
112161
112007
111841
111664
111476
111278
111069
110850
110623
110387
110141
109888
109628
109362
109088
108809
108524
108233
107937
107635
107328
107015
106697
106376
106051
105720
105387
105059
104739
104420
104100
103781
103466
103153
102842
102534
102229
101927
101628
101331
101037
100746
100456
100168
99882.4
99598.2
99315.1
99033.1
98751.7
98470.7
98189.7
97908.1
97625.9
97342.6
97057.9
96771.9
96484.2
96194.9
95904.3
95612.5
95319.9
95026.7
94733.4
94440.7
94149.4
93860.2
93573.8
93291
93013.4
92741.2
92475.2
92216.8
91966
91723.9
91491.2
91268.5
91056.4
90856.3
90668.6
90493.7
90332.9
90186.1
90053.8
89936.9
89836.5
89752.6
89684
89630.5
89595.3
89579.5
89580.8
89599.4
89636.8
89693.5
89768.4
89860.7
89968.8
90090.7
90224.7
90368.5
90521.5
90680.3
90839.2
90995.1
91147.7
91291.7
91426
91553.6
91673.2
91778.1
91865.9
91936.5
91991.8
92031.2
92055.5
92060.8
92043.9
91998.3
91925.6
91829.4
91711.9
91578.5
91430.8
91264.1
91078.8
90879.5
90671.4
90464.9
90258.5
90049
89830
89620.8
89428
89244
89061.2
88877.9
88707
88546.8
88386.6
88219.4
88064.3
87901.7
87724.4
87543.5
87351.7
87137.2
86903.2
86652.2
86362
86054.5
85668.3
85322.1
84988.2
84608.9
84144.4
83679
83217.1
82697.7
82113.5
81479.5
80823.7
80159.9
79568.8
79043.6
78610.4
78253.5
78046.5
112237
112230
112216
112191
112157
112112
112058
111994
111919
111834
111738
111631
111510
111378
111234
111081
110916
110741
110557
110363
110161
109951
109731
109505
109273
109036
108792
108539
108281
108018
107751
107479
107199
106912
106618
106325
106026
105720
105409
105104
104806
104507
104208
103909
103610
103314
103020
102728
102440
102153
101870
101589
101310
101033
100759
100487
100217
99948.1
99681.2
99415.4
99150.5
98886.1
98621.9
98357.4
98092.4
97826.5
97559.3
97290.5
97020.3
96748.1
96474
96198.5
95921.6
95643.5
95364.7
95085.4
94806.3
94528.1
94251.6
93977.7
93706.8
93440.6
93179.6
92924.5
92676.7
92436.3
92204
91980.5
91766.2
91562
91368.9
91188.3
91020.4
90866.1
90726.2
90600.6
90489.7
90394.3
90315.6
90254.3
90207.4
90176.8
90164.5
90171.1
90194
90234.7
90293.1
90369
90462.3
90570.9
90691.9
90823.5
90963.2
91107.4
91256
91405.6
91551.6
91693.8
91825.7
91942.1
92047
92144
92229.4
92299.6
92349.8
92381.7
92397
92399.6
92388.3
92356.7
92298.6
92211.2
92101.4
91970.5
91824
91662.7
91483.2
91286.5
91079.8
90862.3
90647.4
90432.8
90214
89985.9
89764.9
89561.6
89369.1
89178.8
88985
88801.5
88630.4
88456
88275.1
88109.5
87939.7
87750.5
87562.9
87365
87141
86904.7
86648.2
86359.6
86043.3
85662.7
85318.8
85007.7
84634.8
84156.4
83704.6
83271.1
82792.5
82236.2
81630.9
81003.3
80379
79823.5
79334
78923.7
78593.4
78393.8
111258
111254
111241
111220
111189
111149
111101
111043
110975
110899
110813
110714
110603
110482
110354
110215
110064
109904
109735
109557
109373
109181
108982
108780
108574
108360
108137
107908
107676
107441
107200
106952
106695
106431
106162
105891
105614
105332
105052
104778
104506
104232
103956
103681
103406
103134
102864
102595
102328
102064
101801
101541
101283
101027
100773
100521
100271
100023
99775.8
99530
99285
99040.5
98796
98551.1
98305.5
98059
97811
97561.2
97309.5
97055.6
96799.6
96541.7
96282
96021.1
95759.1
95496.3
95233.3
94970.6
94709.3
94449.9
94193.2
93940.5
93692.8
93450.4
93215
92987.2
92767
92555
92351.7
92157.5
91973
91800.2
91640.4
91494
91361.9
91244.2
91140.9
91053.1
90980
90924.8
90885
90861
90853.5
90865.2
90893.4
90938.4
90999.4
91075.9
91168.7
91276.7
91395.7
91524.1
91659.3
91794.3
91930
92066.7
92199.8
92327.5
92446.4
92550.6
92636.5
92706.8
92765.2
92811.7
92840.5
92847.7
92836.8
92812
92779.1
92731.1
92659.4
92556.3
92429.5
92282.9
92119
91941.5
91749.2
91537
91325.4
91096.5
90871.6
90646.3
90415.7
90178.7
89946.4
89730.8
89520.7
89313.9
89112.2
88915.9
88730.7
88542.3
88348.6
88171.3
87989.1
87786.8
87592.4
87378
87150.6
86916.9
86647.9
86361
86051.8
85668.5
85335
85024.9
84656.5
84193.6
83756.3
83349
82904.5
82383.2
81812.7
81220.8
80641.9
80128.3
79678.8
79307.6
79010.6
78820.3
110180
110179
110169
110150
110123
110088
110046
109994
109936
109869
109792
109703
109606
109503
109392
109270
109134
108989
108837
108678
108514
108344
108167
107986
107804
107613
107417
107218
107015
106807
106590
106365
106131
105892
105650
105402
105151
104900
104655
104412
104167
103919
103671
103423
103176
102931
102686
102442
102200
101959
101720
101484
101249
101016
100786
100557
100329
100104
99879.2
99655.9
99433.4
99211.4
98989.5
98767.3
98544.2
98319.9
98094
97866
97635.7
97402.8
97167.4
96929.9
96690.1
96448.6
96205.6
95961.5
95716.6
95471.2
95226.7
94983.8
94743.6
94506.7
94274.4
94047.1
93825.7
93611.8
93406
93208
93018.4
92837.3
92664.5
92500.9
92349.7
92212
92088.5
91980
91885.4
91806
91740.8
91692.5
91660.4
91643.9
91641.5
91657.7
91691
91741.1
91806.1
91884.4
91975.5
92080.6
92196.2
92319.5
92449
92576.5
92701.5
92826
92944.3
93052.8
93152.8
93241.7
93311.4
93358.6
93386.8
93401.4
93404.1
93386.6
93350.9
93295.4
93236
93168
93079.4
92961.6
92814.4
92649.8
92466.3
92270.3
92061.8
91833.3
91619.2
91372.6
91137.6
90901.8
90655.9
90407.7
90162.5
89932.5
89705.7
89482.8
89261
89049.4
88844.9
88644.9
88438.1
88246.3
88051
87835.3
87634.6
87405.5
87171.1
86937.1
86658
86372.7
86074.6
85688.6
85372.4
85047.6
84685.4
84254.7
83837.4
83454.7
83040.4
82553.7
82028.8
81479.2
80949.7
80482.4
80076.2
79752.4
79494.6
79325.4
109029
109029
109021
109005
108982
108953
108916
108872
108822
108764
108697
108624
108545
108460
108364
108257
108139
108015
107885
107749
107607
107460
107308
107154
106993
106828
106660
106487
106307
106120
105925
105723
105515
105303
105087
104869
104652
104438
104226
104013
103796
103577
103359
103141
102923
102705
102487
102270
102054
101840
101627
101417
101208
101001
100795
100591
100388
100187
99987.7
99789.3
99591.9
99395.1
99198.4
99001.3
98803.2
98603.6
98402.3
98198.4
97992
97782.6
97570.5
97356
97138.9
96919.8
96698.8
96476.3
96252
96026.6
95800.5
95575.1
95351.9
95132.3
94917
94706.9
94501.7
94303
94112.1
93929.8
93756
93591
93433.9
93284
93143.9
93016.4
92901.8
92802.5
92718.4
92648.3
92592.1
92551.4
92527.9
92519.7
92525.1
92545.8
92583.4
92637.2
92706.3
92787.1
92877.2
92978.1
93089.3
93205.8
93326.8
93446.3
93561.9
93675.5
93781.2
93873
93950.5
94015.8
94065
94092.6
94095.1
94073.6
94043.2
93999.2
93937.9
93852.6
93759.6
93666.8
93559.7
93426.7
93259.1
93071.8
92868.7
92651.1
92423.9
92188
91951
91692.1
91442.9
91199
90935.3
90672.9
90411.4
90160.1
89917.3
89683.8
89442.4
89211.2
88984.5
88760.8
88542.2
88335.4
88127.4
87898.7
87683.9
87449.2
87206.2
86962.6
86683.9
86395.6
86091.3
85734.6
85422.6
85090.1
84736.2
84337.2
83951.7
83583.4
83201.3
82753.9
82281.9
81781.3
81303.7
80886.3
80523.8
80245.6
80040.2
79884.1
107828
107829
107823
107810
107792
107768
107737
107700
107657
107608
107554
107494
107428
107354
107270
107180
107086
106986
106881
106771
106655
106535
106409
106279
106144
106001
105854
105702
105544
105380
105210
105036
104857
104676
104493
104311
104131
103952
103772
103588
103401
103214
103027
102838
102649
102460
102271
102082
101895
101708
101524
101340
101158
100977
100798
100620
100444
100270
100098
99926.1
99755.7
99585.9
99416.2
99246
99074.8
98901.9
98726.9
98549.2
98368.6
98184.9
97998
97808.3
97616
97421.2
97224.7
97026.5
96826.9
96625.5
96422.2
96217.8
96013.8
95812.7
95615.3
95423.5
95236.8
95056.3
94881.3
94714.9
94556.1
94408
94268.4
94136.6
94012.4
93898.9
93796.6
93706.3
93633.1
93573.6
93528.9
93496.7
93481.9
93482.2
93496.7
93524
93566.6
93622.3
93693.2
93775.8
93866.9
93964.9
94070.4
94180.1
94290.8
94400.2
94504.7
94603.9
94694.4
94772
94831.7
94871.4
94893
94897.9
94880.6
94830.7
94763.2
94686.4
94596.3
94481.9
94351.8
94228.9
94100.6
93950.7
93764.4
93551.8
93325.8
93087.1
92840
92588.1
92330.8
92058.7
91791.4
91536.8
91252
90976.2
90698
90418.3
90155.3
89917
89653.5
89400.5
89153.8
88903.4
88663.1
88444.2
88224
87980.3
87750.1
87511.7
87261
87004.9
86731.3
86445.8
86124.8
85793.3
85491
85149.1
84809.6
84442.7
84090.6
83742.2
83388.6
82988.7
82574.4
82127.8
81706.3
81343.7
81023.4
80783.4
80613.3
80469.8
106602
106606
106602
106592
106578
106559
106534
106503
106468
106427
106381
106330
106273
106210
106142
106069
105994
105916
105834
105748
105657
105560
105457
105350
105236
105121
105000
104873
104742
104607
104468
104325
104181
104035
103889
103743
103598
103451
103300
103146
102991
102835
102678
102520
102360
102200
102040
101881
101723
101565
101408
101253
101098
100945
100793
100643
100495
100349
100205
100061
99919.5
99778.1
99636.8
99495
99352.2
99207.6
99060.8
98911.3
98758.4
98602.2
98442.5
98279.8
98114.1
97945.5
97774.4
97601.3
97427.1
97251.8
97074.8
96895.7
96715.2
96535.6
96358.9
96186.7
96019.6
95859.7
95704.7
95557.5
95416
95283.7
95161.1
95047.4
94941.9
94845.4
94760
94683.4
94622
94573
94541.6
94520.9
94515.7
94525.2
94548.8
94584
94632.9
94692.2
94763.6
94844.9
94936.8
95033.4
95133.4
95237.5
95338.3
95435.9
95527.2
95608.4
95678.6
95737.3
95779
95797.8
95792.4
95769.4
95730.4
95659.9
95560.8
95447.5
95324.6
95181.3
95016.3
94856.9
94702.8
94533.5
94329.6
94092.8
93839.2
93577.8
93310.3
93036.3
92760.2
92472.7
92185.9
91914.7
91601.2
91314.7
91024.4
90714.6
90424.5
90183.6
89894.3
89616.8
89353.3
89076
88813.1
88579.1
88342.8
88085
87841
87596.1
87338.8
87073.7
86803.5
86527.9
86196.2
85871.9
85582.1
85234.1
84914.5
84574.8
84255.7
83932.8
83606.8
83261.8
82911.6
82518.9
82157.1
81858.3
81582.2
81372
81223.2
81094.8
105377
105382
105381
105375
105366
105351
105333
105309
105281
105247
105209
105166
105121
105073
105020
104963
104905
104845
104782
104716
104645
104570
104491
104408
104322
104232
104138
104041
103940
103835
103729
103620
103510
103399
103288
103175
103060
102942
102820
102697
102573
102447
102319
102189
102059
101929
101799
101669
101539
101410
101281
101154
101027
100902
100779
100657
100538
100420
100304
100190
100077
99965.3
99853.5
99741.3
99627.9
99512.8
99395.4
99275.3
99151.9
99024.8
98894
98759.9
98623.2
98483.4
98340.4
98194.8
98046.8
97897.8
97747.7
97595.8
97442.3
97287.9
97134.9
96985.5
96839.5
96699.8
96566.5
96440
96321.2
96208.9
96105.2
96010.1
95924.2
95846.6
95777.6
95719
95673.1
95639
95619.7
95613.5
95619.6
95638.9
95671.9
95716.3
95771.7
95837.5
95912.1
95991.8
96081.3
96175.8
96271.2
96369.3
96461.7
96547.2
96623.5
96686.6
96736.4
96771
96789.4
96787.6
96760.8
96708.9
96640.6
96549.1
96424.9
96276.5
96118.3
95946.8
95750.5
95549.9
95364.6
95173.4
94953.4
94694.8
94412.3
94124.1
93833.2
93535.6
93238.4
92932.8
92623.8
92322
91998.5
91688.1
91382.6
91056.3
90743.3
90467.2
90163.4
89862.8
89579.7
89278.9
88994
88740.7
88486.4
88213.5
87957.4
87705
87444.2
87172.7
86900.2
86635.7
86305.6
85984.2
85702.8
85364.6
85051
84744.6
84454.4
84152.6
83866.4
83579.2
83296.5
82956.5
82659.4
82433.3
82206
82032.4
81897
81792.3
104172
104179
104180
104179
104175
104167
104156
104140
104119
104095
104067
104036
104003
103969
103933
103896
103856
103815
103770
103722
103671
103617
103561
103500
103436
103372
103306
103236
103164
103089
103013
102936
102858
102778
102696
102611
102524
102434
102341
102247
102151
102053
101953
101853
101751
101650
101548
101447
101345
101244
101143
101043
100945
100848
100753
100660
100569
100480
100394
100309
100225
100143
100061
99978.5
99895.2
99810
99722.5
99632.3
99539.3
99442.6
99342
99238
99131.1
99021.6
98908.8
98793
98674.1
98552.6
98429.9
98305.7
98180.2
98054
97927.9
97804.2
97684.5
97568.2
97458.1
97352.5
97255.7
97165.6
97084.5
97011.7
96947.1
96891.1
96840.1
96800.8
96773
96756.3
96751.2
96759.9
96780.8
96811.8
96855
96910.1
96972.8
97045.1
97125.6
97207.9
97294.3
97384.4
97475.5
97566.9
97651.8
97726.5
97786.1
97831.8
97866.2
97878.3
97868.6
97841.6
97793.5
97716
97614.9
97497.1
97350.4
97170.9
96975.7
96774.1
96549.4
96309.8
96085.9
95869.3
95633
95356.7
95048
94729.9
94410.7
94088.3
93765.8
93438.6
93107.5
92781
92438.4
92102.7
91778.2
91437.3
91098.7
90788.1
90461
90141.4
89830.6
89514.9
89209.6
88928.4
88654.9
88369.6
88101.8
87841.3
87578.7
87303.6
87027.8
86765.3
86450
86139.2
85860.9
85540.7
85231
84958.5
84695.8
84407.4
84169.7
83942.7
83724.6
83440.1
83213.2
83072.2
82894.8
82778.3
82664.8
82584.2
103006
103014
103018
103021
103022
103020
103017
103010
103001
102988
102973
102957
102939
102920
102902
102882
102860
102835
102807
102777
102746
102713
102677
102640
102601
102560
102517
102472
102426
102378
102330
102280
102228
102175
102118
102060
101998
101934
101868
101800
101731
101660
101587
101514
101440
101367
101293
101218
101144
101070
100996
100923
100852
100783
100716
100651
100588
100528
100470
100414
100360
100307
100255
100202
100149
100094
100037
99976.5
99913.9
99848.1
99778.8
99705.9
99629.9
99550.8
99468.4
99383
99294.6
99203.4
99109.5
99013.5
98916.6
98819.2
98721.8
98625.3
98533.4
98444.4
98361.2
98281.3
98208.8
98141.6
98083.9
98034.2
97993
97962.6
97930.6
97913.5
97906.8
97910.1
97922.4
97946
97983.2
98029.9
98085.5
98150.8
98222.9
98302
98388.4
98477.6
98564.2
98649.8
98737.1
98821.4
98898.1
98963.8
99009
99037.5
99057.5
99052.8
99017.8
98960.6
98885.9
98786.4
98656.6
98506.3
98333.8
98129.2
97897.2
97661.6
97410
97136.7
96869.1
96620.5
96365.7
96074.4
95746.3
95399.1
95047.7
94696.4
94345.8
93994.1
93640.7
93292.6
92931.4
92567.5
92218.4
91855.9
91495.9
91152.1
90795
90452.9
90118.4
89784.6
89456
89147.9
88851.2
88555.1
88277.4
88005.8
87738.3
87467.6
87191.2
86927.9
86628.5
86340.1
86062.6
85759.4
85461
85215.8
84976.8
84712
84518.1
84348.1
84188.5
83984.3
83818.3
83797.2
83651.4
83612.1
83528.9
83471.9
101893
101902
101908
101915
101921
101926
101930
101934
101935
101936
101935
101934
101931
101928
101923
101917
101910
101901
101891
101880
101868
101855
101840
101825
101809
101790
101770
101748
101726
101703
101678
101652
101624
101594
101561
101526
101488
101449
101407
101364
101319
101273
101226
101179
101131
101083
101034
100986
100938
100890
100842
100794
100750
100707
100667
100629
100594
100561
100531
100503
100477
100453
100430
100406
100382
100357
100329
100299
100267
100232
100193
100151
100106
100059
100007
99952
99893.4
99832.7
99769.8
99704.7
99638.2
99570.4
99502.4
99435.7
99373.3
99310.5
99257.9
99203.7
99159.2
99117.1
99085.5
99061
99043.4
99037.1
99035
99040.9
99056.6
99082.1
99115
99157
99210.9
99274.9
99346.4
99422.9
99506.4
99595.2
99687.5
99784.3
99874.8
99959.4
100045
100123
100190
100247
100283
100298
100301
100281
100226
100142
100037
99915
99762.5
99578.6
99373.4
99145.7
98884
98609.7
98330.2
98027
97717.3
97428
97150.3
96844.1
96501.7
96131
95747.5
95364.1
94983.9
94605.6
94227.3
93859.4
93478.3
93089
92709.6
92317.8
91930.8
91555.5
91170.3
90799.8
90440.5
90087.6
89736
89401.7
89081.3
88771.6
88486.1
88200.6
87929
87662.8
87389.7
87128.8
86845.3
86584.1
86308.3
86022.3
85749.6
85521.8
85298.3
85065.1
84910
84803.5
84705.2
84628
84495
84628.9
84495
84527.7
84476.8
84457.9
100845
100854
100863
100873
100885
100897
100909
100922
100934
100946
100958
100969
100980
100991
101000
101008
101016
101024
101031
101038
101044
101049
101053
101057
101062
101064
101066
101066
101066
101064
101061
101056
101049
101040
101029
101016
101000
100983
100964
100943
100921
100898
100874
100850
100826
100802
100777
100753
100729
100705
100682
100660
100640
100622
100607
100594
100585
100578
100574
100573
100575
100578
100582
100586
100590
100592
100593
100593
100590
100585
100576
100565
100550
100534
100513
100489
100461
100430
100398
100364
100328
100291
100254
100218
100185
100155
100128
100106
100088
100075
100070
100072
100081
100100
100127
100160
100201
100252
100308
100373
100446
100528
100617
100709
100805
100907
101009
101111
101209
101298
101383
101458
101515
101563
101593
101601
101588
101546
101476
101374
101242
101095
100922
100710
100470
100215
99931
99619.6
99305.8
98974.8
98629.9
98294.9
97986.4
97664.8
97309.5
96921.4
96511.2
96094.6
95684.8
95280
94872.6
94481
94077.1
93668.1
93255.8
92830.6
92402.6
91991.9
91583.4
91184.4
90798.8
90422.8
90049.9
89691.2
89348.9
89023.6
88729.7
88430.2
88157.1
87892.2
87624.9
87370.8
87104.6
86863.9
86600.2
86335.4
86099.6
85873.4
85666.5
85465.9
85353.7
85337.5
85339.1
85350.8
85269.2
85543
85469.9
85533
85515.7
85550.7
99870.7
99880.5
99890.2
99903.4
99920.4
99939.2
99959.4
99981.6
100004
100027
100050
100074
100097
100121
100144
100167
100190
100212
100235
100257
100279
100302
100324
100348
100369
100390
100410
100430
100449
100466
100482
100497
100509
100520
100529
100535
100540
100542
100543
100542
100541
100539
100536
100533
100530
100528
100525
100523
100521
100519
100519
100520
100522
100527
100535
100546
100560
100578
100598
100622
100648
100676
100706
100736
100765
100795
100823
100850
100876
100899
100920
100937
100952
100965
100974
100980
100983
100983
100981
100977
100972
100967
100961
100956
100954
100954
100958
100966
100978
100995
101019
101049
101087
101132
101187
101249
101318
101395
101478
101569
101666
101768
101876
101988
102100
102217
102331
102441
102546
102645
102734
102806
102859
102899
102924
102929
102902
102837
102753
102641
102491
102318
102123
101890
101618
101333
101023
100683
100333
99974
99601
99223.6
98873.8
98532.2
98165.3
97764.7
97335
96888.7
96450
96018
95580.2
95155.8
94727
94295.2
93851.9
93396.1
92924.2
92477.5
92043.1
91615.6
91200.3
90797.8
90401.8
90020.4
89656.8
89315.5
89010.8
88699.6
88425.8
88161.7
87900.4
87659.6
87410.9
87185.3
86945.1
86702.5
86500.8
86269.5
86082.5
85924.2
85872.1
85964.3
86110.7
86112.3
86181
86519.7
86548
86634.2
86656.3
86762.5
98973.5
98983.1
98993.1
99009.5
99031.4
99057.1
99086
99118
99151.7
99186.6
99221.9
99257.3
99293
99328.7
99364.5
99400.2
99435.9
99472
99508.3
99544.7
99581.6
99619.2
99657.3
99696.2
99733.8
99771.3
99808.5
99845.2
99881.1
99915.9
99949.3
99981
100011
100039
100065
100089
100112
100132
100151
100168
100184
100200
100216
100232
100249
100265
100282
100299
100316
100335
100354
100375
100399
100424
100453
100485
100521
100559
100602
100647
100696
100747
100799
100852
100905
100959
101012
101065
101117
101167
101214
101259
101302
101342
101379
101414
101446
101476
101504
101530
101556
101581
101607
101634
101662
101693
101727
101766
101808
101856
101911
101971
102039
102114
102196
102288
102386
102491
102603
102722
102844
102970
103101
103233
103367
103500
103629
103752
103867
103977
104072
104144
104200
104237
104257
104259
104221
104144
104049
103927
103765
103573
103354
103102
102809
102492
102151
101788
101408
101022
100624
100213
99816.4
99444.4
99062.5
98653.9
98211.1
97742.9
97275.8
96816.2
96349.4
95886.9
95427.5
94961.5
94491.8
94011.7
93502.1
93023.4
92557.6
92099.3
91650.9
91222.7
90801
90395.5
90011
89652.7
89333.7
89014
88737.2
88475.8
88222.6
87998.4
87769
87562.9
87350.3
87128.8
86946.5
86722
86558.1
86451.6
86479.6
86669
86913.1
86901.8
87222.9
87593
87719.2
87829.6
87904.3
88095.4
98280.8
98290.9
98302.2
98322.1
98350.1
98383.3
98420.5
98461
98504.4
98549.3
98595
98640.4
98685.7
98731
98776.4
98821.7
98867
98912.3
98958
99004.3
99051.6
99100.2
99150
99200
99249.7
99299.3
99348.6
99397.5
99445.5
99492.5
99538.2
99582.5
99625.1
99665.9
99705
99742.2
99777.5
99811
99843
99873.6
99903.3
99932.6
99961.9
99991.3
100021
100051
100082
100113
100145
100178
100213
100249
100288
100329
100373
100421
100473
100527
100586
100648
100713
100781
100850
100921
100992
101065
101138
101211
101283
101354
101423
101489
101554
101617
101678
101737
101794
101849
101903
101955
102007
102059
102111
102165
102221
102279
102341
102408
102478
102555
102637
102727
102823
102927
103037
103156
103282
103414
103554
103700
103847
103999
104153
104306
104463
104616
104761
104900
105031
105153
105255
105334
105397
105439
105462
105459
105414
105340
105240
105108
104945