/*--------------------------------*- C++ -*----------------------------------*\
| =========                 |                                                 |
| \\      /  F ield         | OpenFOAM: The Open Source CFD Toolbox           |
|  \\    /   O peration     | Version:  dev                                   |
|   \\  /    A nd           | Web:      http://www.openfoam.org               |
|    \\/     M anipulation  |                                                 |
\*---------------------------------------------------------------------------*/
FoamFile
{
    version     2.0;
    format      ascii;
    class       volScalarField;
    object      p_0;
    location    "9.166";
}
// * * * * * * * * * * * * * * * * * * * * * * * * * * * * * * * * * * * * * //

dimensions      [1 -1 -2 0 0 0 0];

internalField   nonuniform List<scalar> 
12225
(
91261.1
91271.9
91344.7
91471.8
91638.9
91841
92067.4
92316
92575.7
92849.3
93123.2
93410.4
93686.4
93990
94266.6
94592.9
94910.4
95207.7
91267
91279.1
91352.4
91479.4
91646.4
91848.2
92074.5
92322.8
92582.3
92855.6
93129.2
93415.7
93692.1
93991.6
94268.9
94594
94894.3
95247.1
91284.8
91297.5
91371.5
91497.9
91664.4
91865.7
92091.6
92339.3
92598.4
92870.7
93144.2
93428.1
93705.8
93996.8
94277.9
94586.8
94876.5
95245.8
91316.9
91330.4
91404.9
91530.4
91696.2
91896.7
92121.9
92368.5
92627
92897.5
93170.5
93451.3
93728.5
94012.1
94292.5
94584.3
94876.1
95151.1
91365.2
91382
91456.6
91580.9
91745.7
91944.9
92169.2
92414.1
92671.5
92939.2
93211.5
93487.3
93765.2
94039.9
94325
94602
94887.2
95222.4
91439.9
91457.8
91531.2
91654.1
91817.4
92015.3
92237.4
92480.4
92735.4
93000.5
93270.6
93543
93819.4
94090
94374.9
94647.4
94934.9
95220.8
91543.2
91562.8
91634.4
91756.2
91917.2
92113.3
92332.5
92572.8
92824.9
93086.7
93353.3
93622.6
93895.6
94162.5
94440.2
94708.1
94977.2
95242.5
91665
91683.1
91753.2
91873.5
92032.3
92225.9
92442.5
92679.5
92928.4
93186.5
93449.6
93714.7
93983
94244.4
94513.2
94770.4
95025.8
95273.2
91796.3
91813.6
91882.3
92001
92157.6
92348.6
92562.3
92795.7
93041.2
93295.2
93554.1
93814.9
94076.8
94333
94591.4
94840.7
95083.4
95317
91970.4
91987.2
92054.4
92171.2
92325.2
92512.2
92722.1
92950.7
93191.4
93440
93693.4
93947.9
94201.9
94450.8
94698.2
94937.8
95167.7
95388.9
92199.7
92218.5
92284.7
92398.7
92549
92730.7
92935.3
93157.4
93391.6
93633.4
93879
94125.2
94369.6
94609.5
94845.2
95072.9
95290.3
95497.8
92508.5
92527.7
92592.6
92701.9
92847.1
93021.5
93219.1
93432.9
93658.8
93891
94126.5
94362.1
94595
94823.7
95046.1
95260.4
95464.4
95658
92924.9
92940.1
93002
93104.7
93242.9
93408.2
93596.4
93799.2
94013.5
94233.2
94456.1
94678
94897.3
95111.7
95319.1
95518.4
95707.9
95887.2
93473.5
93486.4
93544
93638.4
93766.8
93920.2
94095.1
94283.5
94482.5
94686.4
94892.8
95098.2
95300.5
95497.5
95687.8
95870.1
96043.1
96206.6
94194.5
94205.5
94256.3
94340.2
94455.1
94592.9
94749.9
94919.6
95098.6
95282.2
95467.8
95652.4
95833.8
96010.2
96180.2
96342.9
96497.1
96643
95126.7
95139
95181.2
95251.9
95348.9
95466.3
95600.2
95745.7
95899.2
96056.9
96216.3
96374.8
96530.5
96681.8
96827.6
96967.2
97099.6
97225.1
96315.3
96327.3
96360.6
96415
96489.4
96580.5
96685.1
96799.6
96920.8
97045.9
97172.5
97298.8
97423
97543.9
97660.7
97772.6
97878.9
97980.1
97670.1
97689.7
97715
97751.3
97800.3
97861.4
97932.7
98011.8
98096.4
98184.5
98274.2
98364.2
98453.1
98540.1
98624.4
98705.6
98783.1
98857
98982.4
99002.1
99018.1
99037
99062.4
99095.3
99135
99180.4
99230.2
99283
99337.5
99392.9
99448.2
99502.8
99556.3
99608.2
99658.1
99705.8
100126
100136
100141
100145
100151
100160
100173
100190
100210
100232
100257
100282
100309
100336
100362
100389
100415
100440
101080
101079
101075
101067
101056
101046
101037
101030
101025
101023
101022
101023
101025
101029
101034
101039
101045
101051
101841
101836
101826
101808
101785
101759
101733
101707
101683
101660
101639
101620
101603
101588
101575
101563
101552
101543
102431
102426
102412
102387
102354
102317
102277
102237
102197
102159
102122
102088
102055
102026
101998
101973
101949
101928
102877
102873
102856
102826
102786
102740
102690
102639
102588
102537
102489
102443
102399
102358
102320
102284
102251
102221
103202
103201
103183
103149
103104
103051
102994
102935
102875
102816
102759
102704
102652
102603
102556
102513
102473
102436
103434
103433
103413
103377
103329
103272
103210
103145
103080
103015
102951
102890
102832
102776
102724
102676
102631
102590
103590
103590
103569
103531
103481
103422
103356
103288
103218
103149
103081
103016
102953
102894
102838
102786
102738
102693
103689
103688
103666
103628
103577
103516
103449
103378
103306
103234
103163
103095
103030
102969
102911
102856
102806
102759
103743
103742
103720
103682
103630
103569
103500
103428
103355
103281
103209
103140
103073
103010
102951
102895
102844
102796
103767
103765
103742
103704
103652
103590
103522
103449
103375
103301
103229
103158
103091
103028
102968
102912
102859
102811
114399
114391
114373
114347
114311
114268
114215
114154
114083
114002
113909
113805
113690
113564
113425
113275
113114
112941
112756
112559
112352
112135
111906
111668
111419
111159
110890
110610
110320
110021
109712
109396
109073
108744
108408
108066
107718
107365
107009
106650
106289
105926
105562
105200
104840
104482
104128
103782
103441
103102
102768
102440
102114
101788
101462
101136
100812
100489
100168
99848
99529.7
99212.9
98897.5
98583
98269.2
97956.2
97644
97332.5
97021.8
96712
96403.5
96096.5
95791.6
95489.1
95189.6
94893.8
94602.3
94315.7
94035
93760.6
93493.4
93233.6
92981.9
92739
92504.8
92279.5
92063.6
91857
91660.1
91472.8
91295
91126.5
90967.5
90817.9
90677.6
90546.6
90424.8
90312.3
90209.1
90115.4
90031.3
89956.4
89891
89835.8
89791.7
89759.7
89741.6
89738.4
89749.7
89776.3
89819.6
89880.1
89957.8
90050.5
90158
90278.7
90410.9
90552
90698.1
90845.5
90991.5
91134.3
91272
91401.4
91519
91623.8
91712.5
91784.1
91837.6
91870
91880.3
91870.2
91841.3
91797.3
91740
91668.3
91581.1
91471.8
91343.1
91199.8
91046.3
90889.2
90734.7
90583.4
90433.5
90288
90151
90021.3
89895.2
89773.6
89656.2
89539.4
89424.5
89311.1
89196
89075.7
88945
88801.6
88637.4
88450.7
88230.7
87965.5
87653
87297.2
86906.4
86514.6
86116
85688.2
85242.8
84788.2
84300.5
83768.1
83203.7
82634.3
82037.9
81505.6
81044.6
80655.7
80312.5
80174.8
114192
114185
114168
114143
114108
114065
114014
113954
113885
113805
113715
113614
113502
113378
113243
113097
112939
112769
112588
112396
112193
111979
111755
111520
111275
111020
110755
110480
110197
109903
109601
109291
108974
108648
108318
107981
107638
107289
106937
106582
106224
105863
105500
105141
104786
104437
104093
103757
103421
103084
102751
102424
102101
101778
101455
101134
100814
100495
100178
99862.6
99548.6
99235.9
98924.4
98613.9
98304
97994.8
97686.1
97378
97070.6
96764
96458.6
96154.8
95852.9
95553.4
95256.8
94963.8
94675
94391
94112.7
93840.7
93575.9
93318.5
93068.9
92828.1
92596.2
92373.1
92159.2
91954.7
91759.5
91574.1
91398.1
91231.3
91073.9
90925.8
90787
90657.5
90537.2
90426.1
90324.3
90232.1
90149.5
90076.2
90012.6
89959
89916.5
89886.1
89869.4
89868.5
89880.7
89907.9
89952.1
90013.1
90090.6
90183.3
90290.6
90410.6
90541.9
90682.7
90827.8
90973.6
91116.9
91256.5
91390.6
91516.2
91629.1
91731.5
91816.6
91885.1
91935.2
91962.5
91967.1
91951.3
91917.2
91868.9
91807.9
91732.1
91642.5
91529.2
91396.5
91249.3
91093.1
90933.9
90777.2
90623.3
90470.8
90322.2
90181.5
90048
89920
89796.6
89677
89557.4
89440.7
89325.7
89208.9
89087.1
88955.6
88811.5
88646.7
88460.3
88241.4
87977.1
87665.2
87309.6
86920.6
86532.1
86137.2
85709.9
85264.5
84816.8
84335.3
83806.4
83247.7
82680.9
82086.6
81562
81101.7
80725.6
80390.8
80252.6
113789
113782
113767
113744
113711
113671
113623
113566
113500
113424
113339
113242
113135
113018
112889
112749
112597
112434
112260
112075
111880
111673
111457
111230
110993
110746
110489
110224
109950
109671
109379
109079
108770
108456
108134
107806
107474
107136
106791
106442
106091
105739
105388
105044
104705
104365
104029
103699
103372
103045
102719
102397
102078
101761
101446
101132
100820
100510
100201
99893.8
99587.8
99283
98979.1
98676
98373.7
98071.7
97770.1
97468.8
97167.9
96867.6
96568.4
96270.6
95974.7
95681.3
95390.2
95102.5
94819
94540.3
94266.9
93999.5
93739.1
93486.4
93241.3
93004.6
92776.9
92558
92348.2
92147.8
91956.5
91774.9
91602.8
91439.7
91286
91141.3
91005.7
90879.6
90762.8
90654.8
90555.7
90465.9
90386.3
90316.6
90256.8
90206.6
90168
90141.4
90128.7
90130.1
90146.1
90176.8
90223.2
90285.5
90363.7
90457
90563.7
90681.5
90809.8
90947
91088.2
91229.3
91367.5
91500.3
91625.8
91741.9
91846.9
91940.5
92019
92081.9
92126.3
92147.1
92143
92117.3
92073.2
92015.3
91945
91864.4
91763.8
91642.1
91500.7
91347.3
91186.4
91024.4
90864
90703.4
90545.7
90392
90244.8
90104.5
89969.3
89840.7
89718.9
89594.9
89473.9
89356.1
89236.1
89112.6
88977.7
88832.2
88666.8
88477.7
88261.2
87998.2
87689.2
87334
86953.4
86571.8
86179.4
85753.5
85308.4
84873.9
84402.1
83884.5
83330.5
82772.7
82197
81689.9
81234.2
80872.1
80555.4
80428
113207
113201
113187
113166
113138
113102
113058
113005
112944
112874
112794
112705
112605
112495
112374
112242
112099
111945
111782
111607
111422
111227
111022
110807
110582
110348
110104
109852
109592
109324
109048
108765
108473
108173
107866
107553
107233
106908
106578
106241
105902
105568
105238
104909
104584
104259
103936
103614
103296
102980
102667
102356
102047
101740
101436
101134
100833
100535
100237
99941.4
99646.7
99353
99060.1
98767.8
98476.1
98184.5
97893.1
97601.7
97310.6
97019.9
96730
96441.3
96154.1
95869.2
95586.7
95307
95031.5
94760.3
94494.4
94234.1
93980.4
93734.2
93495.5
93265
93043.3
92830.3
92626.4
92431.8
92246.1
92069.9
91903.3
91745.9
91597.7
91458.8
91328.6
91207.5
91096.1
90993.9
90900.2
90814.7
90738.6
90673.6
90619.1
90574.6
90540.8
90519.5
90512.2
90518.9
90540.2
90575.7
90626
90691
90771.1
90866.5
90974.1
91089.8
91212.3
91341.5
91472.6
91603.1
91732.4
91857.2
91972
92074.6
92166.2
92247.1
92314.4
92367.5
92402.5
92413.5
92399.3
92362.8
92306.5
92235
92148.7
92062.3
91944.7
91809
91655.7
91492.9
91326.6
91161
90994
90820.9
90653.5
90495.6
90342.9
90193.4
90045.4
89908.1
89780.9
89652.4
89523.6
89402.9
89280.3
89151.8
89016.9
88866.8
88698.2
88505.1
88292.7
88030.9
87726
87369.9
87001.5
86632
86244.3
85818.6
85389.1
84960.6
84500.2
84000
83457.5
82914.7
82369
81888.3
81451.5
81097.2
80796.6
80700.2
112468
112463
112452
112434
112410
112377
112337
112290
112234
112171
112098
112016
111925
111823
111711
111588
111456
111314
111162
111000
110829
110650
110459
110259
110051
109834
109609
109374
109132
108882
108624
108360
108087
107806
107518
107222
106920
106614
106299
105980
105664
105354
105045
104733
104423
104114
103806
103500
103196
102895
102596
102300
102006
101714
101425
101137
100851
100567
100284
100003
99722.7
99443.2
99164.4
98885.9
98607.6
98329.3
98050.9
97772.4
97494.1
97215.9
96938.1
96661.4
96385.9
96112.3
95840.9
95572.1
95307.1
95046.2
94790.2
94539.6
94295
94057.7
93827.9
93605.8
93392.4
93187.4
92991.2
92804
92625.5
92456.2
92296.4
92146
92004.7
91872.9
91750.1
91636.1
91531.3
91436.2
91350.7
91273.3
91203.5
91143.9
91096
91058.8
91031.7
91016.8
91015.6
91028.6
91055.8
91097
91152.1
91220.8
91302.8
91398.8
91507.2
91622.7
91741.6
91863.8
91983.3
92098.7
92212.8
92325
92428.2
92518
92593.2
92656
92705.9
92743.8
92765.4
92763.5
92735.7
92684.2
92613.3
92525.8
92424.6
92316.3
92183.4
92032.2
91865.5
91690.3
91516.6
91342.8
91166.3
90978.8
90798.9
90633
90474
90314.6
90153.8
90005.3
89867.8
89730.3
89590.2
89465.7
89339.4
89203.8
89065.1
88914.1
88739.4
88546.6
88335.7
88075.5
87779.2
87416.3
87063.2
86710.7
86330.8
85899.5
85475.4
85067.7
84627.9
84149.9
83628.2
83107.3
82599.1
82153.4
81747.7
81400.5
81135.1
81063.4
111593
111590
111582
111568
111546
111517
111482
111440
111391
111334
111270
111196
111113
111020
110917
110807
110686
110557
110420
110273
110118
109955
109781
109600
109412
109217
109012
108799
108579
108351
108116
107874
107623
107363
107094
106819
106540
106252
105958
105667
105381
105093
104803
104512
104222
103932
103644
103357
103073
102790
102510
102232
101956
101681
101409
101139
100871
100604
100339
100075
99812.2
99549.8
99287.9
99026.1
98764.2
98502.3
98240
97977.3
97714.4
97451.4
97188.4
96926.1
96665
96405.3
96147.7
95892.3
95640.2
95391.9
95148
94909.5
94676.5
94450.3
94231.4
94020.1
93817.3
93622.8
93436.9
93259.3
93090.1
92929.6
92778
92635.9
92503.2
92380.1
92266.2
92161.2
92065.1
91978
91900.4
91833.2
91773.2
91721.4
91681.5
91653.5
91635.2
91628.4
91634
91653
91686.4
91734.2
91794.7
91867.8
91952.8
92046.9
92151.5
92264.2
92380
92498.6
92613
92717.2
92814.2
92907.6
92994.1
93069.1
93126.6
93166.9
93193
93208.9
93213.7
93197.2
93154.8
93083.9
92994
92886.8
92764.3
92634.3
92481.4
92312.6
92132.5
91943.8
91758.4
91572.1
91382.3
91182
90986.5
90806.8
90636.4
90465.9
90292.4
90130.1
89981.1
89830.4
89678
89545.5
89413.7
89269.4
89126.8
88973.3
88793.2
88603.1
88392.2
88138.9
87852.2
87481.2
87145.2
86810.1
86439.4
85998.4
85581.4
85194.3
84788.1
84334.5
83838.7
83349.5
82885.3
82481
82117.9
81794.6
81565.7
81511
110608
110606
110601
110588
110570
110546
110516
110479
110437
110388
110332
110267
110192
110110
110022
109924
109818
109702
109579
109447
109309
109164
109011
108854
108690
108517
108333
108143
107947
107744
107536
107317
107089
106850
106605
106354
106097
105832
105568
105308
105048
104784
104517
104250
103983
103717
103452
103189
102926
102665
102406
102148
101893
101639
101387
101137
100889
100643
100398
100154
99911.1
99668.7
99426.5
99184.3
98941.8
98699.1
98455.8
98211.8
97967.2
97722
97476.6
97231.5
96986.9
96743.7
96502.2
96262.7
96025.9
95792.4
95563.1
95338.6
95119.4
94906.5
94700.6
94502.1
94311.7
94129.8
93956.3
93791
93633.8
93484.4
93343.1
93210.6
93087.8
92974.8
92871.3
92777.2
92691.8
92615.4
92547.2
92490
92440.9
92400.1
92369.4
92351
92343
92346.1
92360.3
92386.2
92425.8
92480
92546.1
92623.8
92712.5
92805.8
92905.8
93013.6
93124.2
93235.7
93344.3
93443.5
93528.4
93600.6
93663.7
93717.7
93756.7
93774.3
93774.5
93762.7
93744.9
93711.7
93653.7
93562.6
93448.9
93318.4
93171.2
93015.4
92841.9
92650.8
92458
92254.2
92054.4
91852.3
91646.3
91432.6
91220.6
91025
90833.1
90643.1
90458.8
90281.4
90117.8
89953.9
89790.1
89647.6
89507
89353.2
89206.3
89041.1
88861.6
88678.6
88461.9
88214.8
87937.8
87581.5
87251.8
86926.8
86566.4
86128.4
85724.9
85353.2
84977.5
84555.2
84089.4
83640
83226.7
82871
82555.4
82274.9
82091.6
82046.1
109535
109537
109533
109522
109507
109488
109463
109433
109398
109357
109310
109255
109192
109125
109053
108972
108879
108778
108670
108555
108436
108310
108179
108043
107900
107749
107590
107428
107260
107084
106898
106702
106495
106281
106060
105833
105600
105366
105136
104906
104671
104434
104194
103954
103714
103474
103234
102994
102756
102518
102282
102048
101815
101585
101356
101129
100904
100680
100457
100236
100015
99795
99575.3
99355.5
99135.4
98914.6
98693
98470.4
98246.8
98022.1
97796.8
97571.4
97346.1
97121.7
96898.5
96677.2
96457.8
96241.1
96028
95819.4
95616.1
95418.8
95228
95044.5
94868.3
94700.7
94541.8
94391.3
94248.7
94113.9
93986.1
93865.4
93753.7
93651.9
93560
93478.2
93405.2
93341.1
93284.6
93238.9
93202.3
93174
93153.7
93145
93147.8
93162.1
93187.3
93222.5
93268.4
93327.5
93398.7
93480.3
93572.1
93667.4
93766.1
93871.2
93976.5
94077.9
94175.5
94267
94342.9
94398.6
94436.5
94461.8
94477
94472.8
94449.4
94407
94361.1
94306.9
94229.9
94119.3
93978.1
93821
93645.8
93460.9
93267.6
93048.7
92843.4
92619.9
92404.4
92185.7
91959.9
91728.9
91498.5
91284.3
91070.8
90859.8
90654.3
90460.1
90276.5
90101.4
89925.6
89770.2
89620.6
89457.2
89306.9
89132.9
88950.8
88772.2
88551.9
88310.2
88042.1
87706.3
87383.8
87066.9
86712.7
86288.2
85907.9
85548.3
85200.1
84811.2
84385.5
83981.8
83624.7
83323.3
83058.6
82832.1
82696.5
82662.6
108404
108407
108404
108397
108385
108371
108351
108327
108299
108266
108228
108186
108140
108089
108031
107963
107887
107804
107715
107622
107522
107416
107305
107190
107070
106944
106813
106675
106528
106372
106206
106032
105849
105661
105466
105267
105067
104868
104670
104467
104261
104051
103841
103629
103416
103203
102989
102775
102562
102350
102139
101931
101723
101518
101314
101111
100910
100710
100512
100315
100119
99923.7
99728.8
99533.8
99338.2
99141.8
98944.3
98745.3
98544.9
98343.2
98140.4
97937.3
97733.9
97531.1
97329.2
97128.7
96929.6
96732.3
96537.6
96346.2
96159.6
95979.4
95805.5
95639
95479.5
95327.8
95184.4
95050.2
94924.3
94806.7
94696.3
94592
94494.7
94406.4
94327.1
94258
94199.8
94150.4
94105.5
94072.9
94050
94035.7
94028.9
94031.4
94045.1
94070.2
94107
94152.6
94206.4
94270.8
94346.8
94431.9
94525.2
94622.4
94722.2
94825.9
94928.3
95022.9
95108.3
95184.7
95247.5
95290.6
95309.3
95303.5
95288.3
95260
95213.2
95140.7
95059.8
94978.5
94880.2
94750.9
94582.5
94393.5
94189.6
93973.4
93750.6
93512.4
93291.8
93041.8
92804.7
92571.1
92323.2
92071
91817.5
91576.8
91343.3
91116.1
90888.9
90674
90466.7
90270.1
90084
89916.1
89757.2
89584.1
89425.2
89251.1
89065.6
88883.1
88668.1
88427.4
88159.3
87848.7
87541.2
87224.7
86878.6
86488.1
86131.5
85779.5
85458.5
85107.4
84730.5
84378.6
84081.4
83839.5
83625.2
83455.2
83371.5
83335.5
107240
107245
107243
107238
107231
107220
107205
107187
107165
107140
107112
107082
107047
107006
106957
106904
106848
106787
106721
106650
106573
106491
106403
106309
106210
106105
105992
105873
105746
105611
105469
105319
105164
105004
104841
104676
104511
104346
104176
104002
103824
103644
103462
103279
103094
102907
102721
102534
102348
102163
101979
101797
101615
101435
101256
101079
100904
100730
100558
100387
100218
100049
99880.3
99711.7
99542.4
99372
99200.3
99026.9
98851.6
98674.7
98496.4
98317.3
98137.7
97958.4
97780
97602.8
97427.3
97253.2
97080.7
96910.4
96743.2
96581.5
96426.1
96278
96137.3
96004.5
95878.6
95761.7
95652.6
95553
95461.6
95377
95298.9
95228.2
95165
95109.9
95066.8
95032
95005.3
94986.2
94977.2
94977.6
94986
95002.6
95028.8
95064.1
95110.9
95166.9
95231.1
95303.1
95383.9
95473
95567.6
95665.7
95765.5
95865.5
95962.8
96052.8
96130.3
96191
96234.8
96262.7
96268.4
96240.3
96192.7
96133.8
96060.5
95959.1
95839.7
95725.3
95602.6
95453.3
95260.1
95037.5
94801
94553.6
94300.7
94044.3
93793.3
93519.6
93256.3
93006.3
92733.6
92459.5
92182.1
91907.2
91649.4
91411.8
91161.6
90923.9
90694.4
90472.9
90267.9
90091
89922.5
89738.4
89570.2
89397.7
89210.5
89021.7
88815.9
88581
88303.4
88013.3
87724
87400.1
87077.6
86718.2
86388.3
86046.9
85754.9
85449
85129.3
84834
84600.4
84425.2
84258.1
84134.7
84087.9
84047.5
106071
106075
106076
106073
106069
106062
106052
106039
106023
106004
105983
105959
105932
105900
105863
105824
105784
105741
105694
105644
105588
105527
105459
105386
105307
105222
105131
105034
104931
104821
104706
104586
104463
104336
104207
104076
103943
103807
103665
103519
103370
103219
103065
102909
102751
102593
102434
102275
102116
101958
101801
101644
101489
101334
101182
101031
100883
100736
100591
100447
100305
100164
100023
99882.2
99740.5
99597.7
99453.3
99307.1
99158.8
99008.5
98856.5
98703.3
98549.7
98395.6
98241.9
98089
97937.7
97788.7
97641.4
97495.6
97352
97212
97077.7
96950.1
96829.6
96717.8
96613.1
96516.9
96427.8
96346.9
96274.6
96210.1
96153.3
96103.2
96060.1
96022.4
95996.7
95979.1
95970.6
95968.6
95975.7
95991.7
96016.2
96048
96088.6
96136.6
96193.7
96258.6
96333.2
96414.5
96501.8
96596.6
96693.5
96792.1
96889.6
96983.9
97072.5
97154
97222.7
97271.9
97298
97306.4
97297.2
97255
97181.4
97089.7
96985.7
96856.2
96700.1
96546.1
96394.1
96222.4
96007.3
95753.1
95479.6
95200
94917.9
94633.3
94351.7
94055.7
93758.9
93492
93187
92890.8
92594
92284.1
91995.5
91748.3
91472.5
91209.4
90961
90715.6
90489.8
90300.1
90119.6
89925.8
89749.5
89575.7
89387.7
89195.7
88997.2
88776.7
88492.5
88209.9
87938.9
87612.7
87304.7
86978.3
86677.2
86360.3
86095.4
85841.4
85590.4
85352.3
85183.5
85086
84967.3
84873.1
84852.1
84810.7
104917
104922
104925
104926
104925
104922
104917
104909
104898
104885
104869
104851
104832
104812
104788
104761
104733
104705
104673
104639
104600
104557
104510
104458
104401
104338
104271
104198
104121
104039
103953
103863
103771
103676
103578
103476
103371
103260
103145
103027
102905
102781
102654
102525
102394
102263
102131
101999
101867
101735
101603
101473
101343
101215
101089
100965
100844
100724
100607
100491
100377
100264
100151
100039
99925.2
99810.7
99694.5
99576.6
99456.6
99334.2
99210
99084.5
98958.5
98832.3
98705.7
98579.5
98453.9
98330.5
98209.4
98089.9
97972.6
97857.8
97747.5
97643.4
97545.5
97455.2
97373.4
97299.3
97233.9
97175.9
97125.7
97082.6
97048.2
97020.6
96999.5
96981
96977
96979.5
96989.7
97007.5
97033.4
97066.4
97108
97156.9
97213
97276.4
97346.9
97422.1
97505.5
97595.9
97691.3
97792.3
97892.8
97992.4
98086.2
98174.5
98255.5
98324.5
98379.2
98416.3
98429.9
98419.2
98388.3
98331.5
98239.2
98117
97979.7
97823.1
97634.9
97436.6
97249.6
97052.3
96818.5
96536.6
96226
95911
95596.6
95279.6
94967.6
94646.6
94325.2
94015.6
93684.6
93362.1
93051.1
92709
92386.2
92124.6
91821.8
91533.2
91262.7
90999.1
90753
90545.2
90351.6
90147.8
89965.2
89787.6
89601.5
89407.8
89210.5
89006.9
88727.9
88450.9
88193.5
87875.8
87572.5
87282.3
87006.3
86721
86489.2
86293.4
86116.5
85938.6
85835.2
85825.3
85759.4
85702.4
85680.7
85661.1
103799
103805
103809
103814
103817
103819
103819
103818
103813
103807
103798
103789
103779
103769
103758
103747
103734
103720
103703
103683
103659
103633
103604
103571
103533
103492
103446
103397
103344
103288
103228
103166
103101
103032
102960
102883
102801
102715
102625
102532
102436
102337
102235
102131
102026
101921
101815
101708
101602
101495
101389
101283
101179
101077
100977
100880
100785
100693
100602
100515
100428
100343
100259
100175
100090
100004
99916.3
99827.1
99736
99642.6
99547.3
99450.5
99353.1
99255.7
99158
99060.4
98963.1
98866.7
98772.9
98680.7
98590.7
98503.8
98420.5
98342.6
98271.4
98206.5
98150.1
98099.3
98057.3
98023.6
97998.5
97979.1
97969.7
97967.8
97966.6
97976
97993.6
98018
98049
98087.9
98135.1
98188.1
98248.6
98316.3
98389.7
98469.5
98555.7
98645.1
98738.6
98836.7
98940.7
99048
99153.2
99254.9
99345.3
99427.4
99504.3
99562.8
99600.4
99621.3
99621.9
99594.6
99540
99463.9
99355.2
99207.6
99036.2
98851.2
98634.3
98394.3
98164.9
97937.8
97685.5
97382.8
97040.1
96687.8
96336.1
95985.5
95639.5
95290.2
94939.4
94596.6
94236.4
93883.6
93545.9
93187.1
92834.4
92535.6
92204.4
91897.1
91603.6
91321.9
91058.5
90829.1
90618.9
90408.8
90218.9
90036
89853.9
89660.2
89462.1
89266.2
89005.2
88744.1
88494.6
88192.5
87894.9
87640.4
87387.4
87130.5
86942.6
86808.7
86700.4
86594.1
86552.6
86648.9
86629.1
86632.2
86622.5
86627
102731
102738
102745
102752
102759
102766
102772
102778
102782
102785
102786
102788
102789
102791
102793
102796
102796
102794
102790
102784
102776
102765
102752
102736
102717
102695
102670
102641
102610
102576
102540
102500
102457
102410
102359
102303
102243
102179
102111
102041
101968
101892
101814
101734
101654
101572
101490
101407
101325
101242
101160
101079
101000
100922
100848
100776
100707
100640
100577
100516
100457
100399
100342
100286
100230
100172
100113
100053
99990.3
99926.3
99860.5
99793.4
99725.5
99657.3
99588.7
99520.3
99452.2
99385
99320.5
99256.4
99194.8
99136.4
99081.8
99032
98988.7
98952.2
98924.1
98900.2
98885.7
98877.1
98879.1
98882.4
98900.1
98924.5
98952.5
98987.7
99030
99078.8
99133.1
99194.3
99264.3
99340.6
99422.7
99509.8
99602
99699.9
99802.9
99909.7
100017
100124
100237
100350
100460
100565
100655
100733
100806
100857
100882
100883
100866
100824
100750
100649
100520
100354
100150
99932.5
99688.8
99414
99137.3
98874.2
98600.6
98282.1
97917.3
97530.1
97139.1
96750.7
96368.1
95987.3
95607.4
95235.3
94849.4
94462.9
94094
93709.7
93335.5
92994.4
92632
92303.8
91988.2
91691
91406.8
91154.7
90925
90709.8
90512.6
90321.4
90140.1
89954.1
89757.4
89565.1
89323
89091
88846.7
88560.1
88280.3
88057.5
87823.2
87594
87456.2
87387.6
87334.6
87347.3
87340.3
87575.4
87585.9
87662.3
87678.8
87705.6
101725
101733
101742
101752
101764
101775
101788
101801
101813
101826
101839
101852
101866
101879
101892
101904
101915
101925
101933
101941
101947
101952
101954
101954
101952
101948
101941
101931
101918
101904
101887
101866
101841
101813
101780
101743
101703
101659
101611
101561
101508
101453
101397
101339
101280
101221
101161
101100
101039
100979
100920
100862
100805
100752
100701
100653
100608
100567
100528
100493
100460
100428
100398
100369
100340
100309
100278
100246
100212
100177
100140
100102
100064
100026
99987.2
99948.2
99909.3
99871.9
99836.6
99802.9
99771.6
99743.1
99718.1
99698.6
99685.4
99677.4
99677.5
99683.1
99696.8
99716.9
99745.3
99780.5
99824.2
99876.1
99934
99997
100067
100143
100223
100310
100404
100505
100611
100719
100832
100951
101072
101196
101319
101440
101563
101684
101797
101905
102000
102078
102145
102190
102206
102191
102154
102098
102009
101883
101727
101543
101315
101062
100790
100486
100165
99858.2
99558.3
99224.4
98845.9
98431.7
98004.2
97576.7
97156.9
96742.4
96331.1
95933
95520.7
95104.5
94700
94282.7
93879.7
93500.3
93112.3
92754.1
92418.4
92103.4
91798.8
91526.5
91276.6
91051
90848.2
90646.1
90464.7
90286.6
90095.1
89908.9
89685.2
89486
89247.7
88980
88735.6
88532.3
88315.5
88116.3
88027.7
88043.3
88051.4
88242.6
88230.2
88600.3
88665.8
88787.6
88827.2
88892.3
100792
100800
100810
100823
100838
100855
100874
100895
100916
100937
100959
100982
101006
101029
101052
101074
101096
101118
101138
101159
101178
101196
101212
101227
101240
101251
101261
101268
101273
101274
101272
101267
101258
101246
101230
101210
101187
101160
101130
101098
101063
101027
100989
100951
100911
100871
100831
100790
100750
100710
100672
100635
100600
100567
100538
100512
100490
100471
100456
100444
100435
100428
100423
100419
100415
100411
100406
100401
100395
100388
100380
100370
100361
100352
100343
100334
100325
100317
100311
100308
100307
100309
100315
100326
100344
100367
100397
100433
100477
100526
100584
100649
100722
100803
100891
100984
101084
101190
101299
101414
101535
101661
101792
101925
102061
102201
102343
102485
102626
102764
102901
103030
103148
103258
103359
103442
103505
103539
103548
103527
103475
103402
103300
103155
102971
102765
102518
102233
101929
101598
101242
100888
100554
100203
99814
99382.6
98925.7
98461.3
98006.9
97559.1
97112.3
96685.3
96244.8
95805.4
95363.7
94910.5
94463.3
94045.6
93636.3
93250.5
92893
92556.8
92234.3
91943.3
91675.5
91437.1
91227
91014.9
90834.8
90660.2
90476.9
90300.2
90095.8
89920.4
89698.4
89458.9
89259.9
89058.8
88866.2
88703.8
88671.5
88805.4
88935.4
89222.7
89291.4
89727.4
89858.8
90007.4
90070.1
90193.1
99936.4
99944.9
99953.5
99968.6
99988.2
100010
100035
100063
100092
100122
100153
100185
100217
100250
100283
100315
100348
100380
100411
100442
100472
100502
100530
100558
100584
100609
100632
100653
100672
100687
100699
100708
100713
100715
100714
100709
100700
100689
100674
100657
100638
100618
100597
100575
100552
100529
100506
100483
100461
100440
100419
100401
100385
100372
100362
100356
100354
100355
100361
100370
100383
100398
100415
100434
100454
100474
100494
100514
100534
100554
100572
100591
100609
100628
100647
100667
100687
100709
100733
100760
100789
100822
100859
100901
100950
101004
101065
101133
101207
101288
101377
101473
101576
101687
101804
101929
102060
102196
102337
102483
102633
102787
102944
103103
103265
103429
103593
103755
103914
104073
104224
104363
104490
104605
104712
104801
104861
104886
104889
104868
104809
104720
104603
104443
104238
104006
103738
103429
103095
102738
102357
101960
101584
101211
100811
100370
99893.4
99398.4
98912.2
98432.8
97950.1
97485.8
97017.1
96550.7
96075.7
95591.5
95098.9
94646
94213.4
93801.6
93418.2
93058.7
92716.4
92407.1
92122.5
91870.5
91651
91432.4
91253.2
91080.6
90905.5
90743.5
90558.9
90400.4
90207.2
89999.6
89839.1
89636.5
89477.1
89369
89418.7
89672.4
90003.7
90184.1
90506.5
90969.7
91161.3
91322.9
91419.4
91618.7
99157.9
99165.8
99174.8
99191.4
99214.5
99242.2
99273.8
99309.2
99346.9
99386.3
99426.6
99467.4
99508.6
99550
99591.5
99632.8
99673.7
99714.7
99755.3
99795.5
99835.4
99875
99913.9
99952.1
99989.2
100025
100059
100092
100122
100149
100173
100194
100212
100226
100237
100245
100249
100250
100249
100245
100239
100232
100225
100216
100208
100200
100192
100184
100177
100171
100166
100164
100164
100167
100174
100186
100201
100220
100244
100271
100303
100337
100374
100413
100454
100496
100538
100582
100626
100670
100713
100757
100801
100846
100892
100939
100988
101038
101091
101147
101206
101269
101337
101411
101490
101575
101667
101766
101871
101984
102104
102232
102367
102509
102657
102813
102975
103142
103316
103494
103674
103856
104042
104227
104418
104608
104794
104978
105159
105338
105506
105657
105796
105922
106035
106128
106187
106212
106215
106191
106129
106031
105898
105726
105509
105253
104962
104633
104278
103899
103498
103070
102648
102242
101825
101380
100893
100378
99862.4
99353.3
98838.1
98333.1
97832.9
97328
96827.8
96321.2
95791.6
95309.9
94849.8
94411.1
93998
93618
93252.9
92922.9
92621.8
92354.5
92122.7
91902.3
91720.2
91550.8
91384.8
91239
91078.1
90941
90782.2
90606.3
90468.4
90279.3
90161.9
90127.5
90283
90643.9
91079.2
91253.1
91817.1
92299
92553.2
92727.9
92877.7
93161.8
98564.1
98571.8
98580.9
98599.7
98628
98662.2
98701
98743.3
98788.8
98836.1
98884.3
98932.5
98980.6
99028.6
99076.6
99124.1
99171.2
99217.9
99264.3
99310.5
99356.7
99403.1
99449.4
99495.1
99539.9
99583.4
99625.4
99665.4
99703.1
99738
99770.2
99799.4
99825.4
99848.3
99867.9
99884.2
99897.3
99907.5
99915.1
99920.2
99923.5
99925.7
99927.1
99928.3
99929.5
99930.9
99932.7
99935.1
99938.5
99943.4
99949.9
99958.9
99970.9
99985.8
100005
100028
100056
100088
100124
100165
100210
100259
100310
100364
100420
100478
100538
100599
100662
100725
100788
100852
100917
100983
101051
101121
101192
101267
101344
101425
101509
101598
101692
101792
101897
102010
102129
102256
102390
102531
102680
102836
103000
103171
103349
103533
103724
103920
104122
104329
104537
104748
104960
105173
105390
105605
105815
106021
106225
106423
106606
106773
106927
107067
107189
107287
107348
107382
107391
107365
107308
107209
107065
106884
106663
106396