/*--------------------------------*- C++ -*----------------------------------*\
| =========                 |                                                 |
| \\      /  F ield         | OpenFOAM: The Open Source CFD Toolbox           |
|  \\    /   O peration     | Version:  dev                                   |
|   \\  /    A nd           | Web:      http://www.openfoam.org               |
|    \\/     M anipulation  |                                                 |
\*---------------------------------------------------------------------------*/
FoamFile
{
    version     2.0;
    format      ascii;
    class       surfaceScalarField;
    object      phi;
    location    "9.166";
}
// * * * * * * * * * * * * * * * * * * * * * * * * * * * * * * * * * * * * * //

dimensions      [1 0 -1 0 0 0 0];

internalField   nonuniform List<scalar> 
24170
(
2.19995e-06
1.53858e-06
1.45911e-06
1.11494e-06
1.15835e-06
6.3533e-07
1.09423e-06
3.77609e-07
1.03162e-06
3.45899e-07
1.03833e-06
2.66771e-07
9.73651e-07
3.13789e-07
1.01493e-06
2.02925e-07
9.31643e-07
3.05881e-07
1.02411e-06
1.27532e-07
8.88412e-07
3.34003e-07
1.16254e-06
-7.80395e-08
7.73652e-07
5.63525e-07
1.59925e-06
-6.56352e-07
6.00089e-07
1.1513e-06
1.74639e-06
-1.01588e-06
2.2973e-06
-4.23976e-07
2.88535e-06
-4.83666e-07
3.84457e-06
1.72225e-06
3.4037e-06
1.88018e-06
3.10372e-06
1.23548e-06
2.89905e-06
8.62333e-07
2.76678e-06
7.39483e-07
2.66736e-06
6.11761e-07
2.63456e-06
5.78186e-07
2.59292e-06
4.63499e-07
2.62649e-06
4.79199e-07
2.73465e-06
2.15728e-07
2.71238e-06
5.39979e-07
3.20977e-06
-4.01765e-07
2.90041e-06
1.03238e-06
3.99395e-06
-1.60039e-06
3.10584e-06
2.17208e-06
5.67696e-06
-3.47546e-06
2.39787e-06
2.95684e-06
8.3406e-07
4.55451e-06
4.62622e-06
1.4473e-06
4.61101e-06
2.24988e-06
4.55985e-06
1.61609e-06
4.44854e-06
1.28098e-06
4.33815e-06
1.13677e-06
4.25929e-06
9.59636e-07
4.16369e-06
9.27781e-07
4.25496e-06
6.1222e-07
4.09114e-06
8.6981e-07
4.54456e-06
-2.2237e-08
4.15077e-06
1.13619e-06
4.9739e-06
-1.03397e-06
4.33182e-06
1.8519e-06
5.31572e-06
-2.42172e-06
4.30677e-06
3.32993e-06
5.8575e-06
-4.90109e-06
5.13938e-06
3.78934e-06
1.09388e-06
4.97715e-06
4.84366e-06
1.51857e-06
5.40484e-06
2.07917e-06
5.48422e-06
1.89885e-06
5.78423e-06
1.31849e-06
5.62172e-06
1.61432e-06
5.90861e-06
9.68204e-07
5.59183e-06
1.52301e-06
6.02688e-06
4.40264e-07
5.61245e-06
1.53284e-06
6.14993e-06
-3.24057e-07
5.67371e-06
1.83472e-06
6.19981e-06
-1.35145e-06
5.69402e-06
2.55103e-06
6.23063e-06
-2.77892e-06
5.76373e-06
3.95729e-06
6.43174e-06
-5.42057e-06
6.45188e-06
3.89014e-06
-1.26397e-06
8.90953e-06
5.14448e-06
1.52043e-06
6.13648e-06
1.51502e-06
6.03775e-06
2.39565e-06
6.63429e-06
1.09205e-06
6.36388e-06
2.23034e-06
6.87846e-06
7.76941e-07
6.46587e-06
2.24066e-06
7.00071e-06
1.92998e-07
6.59088e-06
2.21485e-06
6.96763e-06
-4.433e-07
6.65502e-06
2.39105e-06
6.86151e-06
-1.32954e-06
6.89131e-06
2.73397e-06
6.71496e-06
-2.40537e-06
7.52113e-06
3.3305e-06
6.57709e-06
-4.31625e-06
7.49363e-06
3.10647e-06
-1.91864e-06
8.27006e-06
5.4337e-06
1.96947e-06
6.25679e-06
1.16092e-06
6.18588e-06
2.90225e-06
6.8408e-06
8.41024e-07
6.61739e-06
2.83216e-06
7.10758e-06
6.40384e-07
6.8577e-06
2.82343e-06
7.34841e-06
1.69802e-08
7.17436e-06
2.68605e-06
7.44246e-06
-4.2955e-07
7.42236e-06
2.67708e-06
7.43454e-06
-1.09226e-06
7.93709e-06
2.46465e-06
7.46862e-06
-1.72102e-06
8.66784e-06
2.33042e-06
6.93525e-06
-2.40416e-06
8.63445e-06
1.56593e-06
-8.95809e-07
7.7518e-06
6.34946e-06
2.30912e-06
6.95739e-06
1.06435e-06
6.88884e-06
3.44583e-06
7.45543e-06
7.15091e-07
7.28743e-06
3.41409e-06
7.73609e-06
5.76745e-07
7.6494e-06
3.27285e-06
8.02271e-06
-1.34731e-08
8.06568e-06
2.96859e-06
8.13444e-06
-1.90862e-07
8.47076e-06
2.63055e-06
8.23911e-06
-5.89273e-07
8.89099e-06
2.06806e-06
8.25518e-06
-8.47999e-07
9.18525e-06
1.61948e-06
8.00337e-06
-1.02314e-06
8.80649e-06
9.4429e-07
1.94607e-07
7.88176e-06
4.97373e-06
2.4225e-06
5.39449e-06
1.03908e-06
5.36805e-06
3.83909e-06
5.69598e-06
7.27241e-07
5.69553e-06
3.73385e-06
5.96344e-06
6.05458e-07
6.09217e-06
3.42401e-06
6.16637e-06
1.7676e-07
6.41941e-06
2.96772e-06
6.30966e-06
1.5619e-07
6.65654e-06
2.50667e-06
6.40542e-06
-1.28695e-07
6.85089e-06
1.82042e-06
6.36724e-06
-1.79136e-07
6.93017e-06
1.22829e-06
6.19385e-06
-1.28209e-07
6.63832e-06
6.43873e-07
4.83365e-07
6.48198e-06
6.00105e-06
2.53252e-06
6.36255e-06
1.13326e-06
6.39779e-06
4.22522e-06
6.61957e-06
8.968e-07
6.77131e-06
3.94934e-06
6.8901e-06
8.28318e-07
7.18671e-06
3.44999e-06
7.11312e-06
5.54487e-07
7.44943e-06
2.92124e-06
7.32645e-06
5.51401e-07
7.69096e-06
2.39842e-06
7.46012e-06
3.43836e-07
7.78408e-06
1.72573e-06
7.4314e-06
3.8833e-07
7.76014e-06
1.09928e-06
7.33309e-06
4.8323e-07
7.49742e-06
6.48839e-07
7.40486e-07
7.39608e-06
7.06598e-06
2.60162e-06
7.29155e-06
1.42991e-06
7.51613e-06
4.48353e-06
7.60803e-06
1.25336e-06
7.98478e-06
3.99253e-06
7.97013e-06
1.23332e-06
8.40389e-06
3.38472e-06
8.24708e-06
1.0584e-06
8.67187e-06
2.82727e-06
8.47176e-06
1.06268e-06
8.82877e-06
2.33587e-06
8.57978e-06
8.70997e-07
8.85497e-06
1.71366e-06
8.57744e-06
9.11794e-07
8.79126e-06
1.11523e-06
8.58625e-06
9.00538e-07
8.66612e-06
7.65227e-07
9.47842e-07
8.64028e-06
8.24992e-06
2.62418e-06
8.38032e-06
1.89346e-06
8.8565e-06
4.55599e-06
8.79496e-06
1.82478e-06
9.31911e-06
3.94395e-06
9.22077e-06
1.77481e-06
9.76173e-06
3.26184e-06
9.59697e-06
1.61721e-06
9.99776e-06
2.80118e-06
9.82873e-06
1.5843e-06
1.01755e-05
2.32297e-06
9.97689e-06
1.38485e-06
1.02137e-05
1.77407e-06
1.00903e-05
1.31432e-06
1.01811e-05
1.28647e-06
1.01479e-05
1.17634e-06
1.00971e-05
1.04271e-06
1.09578e-06
1.01607e-05
9.72632e-06
2.58755e-06
9.68033e-06
2.60842e-06
1.03808e-05
4.47263e-06
1.02769e-05
2.50355e-06
1.09403e-05
3.81375e-06
1.08137e-05
2.39913e-06
1.13188e-05
3.22598e-06
1.11539e-05
2.22453e-06
1.15653e-05
2.8087e-06
1.1431e-05
2.11292e-06
1.17487e-05
2.37835e-06
1.16076e-05
1.87832e-06
1.18061e-05
1.90849e-06
1.17525e-05
1.68135e-06
1.17565e-05
1.5767e-06
1.17711e-05
1.43642e-06
1.17231e-05
1.34849e-06
1.30864e-06
1.17512e-05
1.14358e-05
2.41455e-06
1.13908e-05
3.40207e-06
1.20766e-05
4.47611e-06
1.20034e-05
3.21696e-06
1.25509e-05
3.85648e-06
1.24918e-05
3.00903e-06
1.29375e-05
3.29805e-06
1.29055e-05
2.74442e-06
1.33076e-05
2.86673e-06
1.33141e-05
2.53895e-06
1.3598e-05
2.50354e-06
1.35924e-05
2.27079e-06
1.37265e-05
2.13964e-06
1.37344e-05
2.01783e-06
1.37643e-05
1.8716e-06
1.37699e-05
1.73569e-06
1.37473e-05
1.65784e-06
1.5915e-06
1.37346e-05
1.34666e-05
2.31692e-06
1.34131e-05
4.28441e-06
1.41172e-05
4.52922e-06
1.41878e-05
3.84403e-06
1.46808e-05
4.00509e-06
1.47079e-05
3.57869e-06
1.50612e-05
3.50318e-06
1.51363e-05
3.19556e-06
1.54319e-05
3.06479e-06
1.55738e-05
2.86099e-06
1.58005e-05
2.71552e-06
1.59267e-05
2.55817e-06
1.60473e-05
2.4098e-06
1.61488e-05
2.28658e-06
1.61985e-05
2.17042e-06
1.62047e-05
2.05721e-06
1.62145e-05
1.95848e-06
1.85793e-06
1.62418e-05
1.53833e-05
1.87832e-06
1.55957e-05
4.96998e-06
1.62298e-05
4.70987e-06
1.64964e-05
4.32052e-06
1.69827e-05
4.20033e-06
1.7246e-05
3.9439e-06
1.76087e-05
3.72515e-06
1.78537e-05
3.49845e-06
1.81167e-05
3.31252e-06
1.83174e-05
3.13892e-06
1.84966e-05
2.98684e-06
1.86355e-05
2.84333e-06
1.87382e-05
2.7069e-06
1.88251e-05
2.57665e-06
1.88838e-05
2.46888e-06
1.89219e-05
2.35745e-06
1.89411e-05
2.25928e-06
2.12863e-06
1.89738e-05
1.82289e-05
1.62183e-06
1.87067e-05
5.43663e-06
1.92464e-05
5.01632e-06
1.96618e-05
4.66967e-06
2.01276e-05
4.42873e-06
2.05177e-05
4.18497e-06
2.08677e-05
3.95536e-06
2.11381e-05
3.76415e-06
2.13321e-05
3.61437e-06
2.14637e-05
3.4685e-06
2.15465e-05
3.33354e-06
2.16023e-05
3.18969e-06
2.16429e-05
3.04374e-06
2.16786e-05
2.89653e-06
2.17284e-05
2.75516e-06
2.17825e-05
2.62045e-06
2.18566e-05
2.48703e-06
2.34221e-06
2.19314e-05
2.0686e-05
1.33489e-06
2.15882e-05
5.47224e-06
2.2234e-05
5.19933e-06
2.27672e-05
4.872e-06
2.32462e-05
4.60031e-06
2.3634e-05
4.3769e-06
2.39506e-05
4.15995e-06
2.41993e-05
3.98508e-06
2.44147e-05
3.82582e-06
2.46211e-05
3.65148e-06
2.48092e-05
3.50182e-06
2.4991e-05
3.33562e-06
2.51482e-05
3.18863e-06
2.52818e-05
3.04504e-06
2.54097e-05
2.8918e-06
2.55161e-05
2.76349e-06
2.56117e-05
2.62926e-06
2.51575e-06
2.56655e-05
2.06495e-05
1.65502e-06
2.14385e-05
5.38455e-06
2.22925e-05
4.97616e-06
2.30469e-05
4.66314e-06
2.36356e-05
4.47417e-06
2.4066e-05
4.34169e-06
2.43894e-05
4.17275e-06
2.46351e-05
4.02549e-06
2.48635e-05
3.84448e-06
2.50829e-05
3.642e-06
2.52797e-05
3.48683e-06
2.54653e-05
3.30853e-06
2.56165e-05
3.17473e-06
2.57336e-05
3.05191e-06
2.5818e-05
2.91848e-06
2.58719e-05
2.81381e-06
2.59282e-05
2.66864e-06
2.5221e-06
2.60133e-05
1.87381e-05
1.33692e-06
1.95159e-05
5.01983e-06
2.02133e-05
4.64361e-06
2.07481e-05
4.4296e-06
2.11319e-05
4.32044e-06
2.148e-05
4.17062e-06
2.18284e-05
3.95052e-06
2.21795e-05
3.7576e-06
2.25337e-05
3.54528e-06
2.28364e-05
3.35985e-06
2.30958e-05
3.22958e-06
2.32963e-05
3.0924e-06
2.34352e-05
3.00288e-06
2.35443e-05
2.90738e-06
2.36026e-05
2.81301e-06
2.35926e-05
2.77853e-06
2.36375e-05
2.57694e-06
2.42419e-06
2.36902e-05
1.68279e-05
1.04115e-06
1.74622e-05
4.5827e-06
1.80423e-05
4.22998e-06
1.85892e-05
3.99889e-06
1.90908e-05
3.87587e-06
1.95514e-05
3.72906e-06
1.99168e-05
3.55518e-06
2.02167e-05
3.39434e-06
2.04611e-05
3.21643e-06
2.06429e-05
3.06049e-06
2.08148e-05
2.93111e-06
2.09528e-05
2.81075e-06
2.10732e-05
2.72696e-06
2.1174e-05
2.65327e-06
2.12025e-05
2.62246e-06
2.12612e-05
2.56705e-06
2.12991e-05
2.38499e-06
2.25724e-06
2.13205e-05
1.51471e-05
9.56462e-07
1.56734e-05
4.09839e-06
1.63088e-05
3.61969e-06
1.68953e-05
3.39386e-06
1.74073e-05
3.30175e-06
1.78123e-05
3.23262e-06
1.80777e-05
3.15396e-06
1.8291e-05
3.02179e-06
1.84456e-05
2.88122e-06
1.8572e-05
2.72683e-06
1.87044e-05
2.58556e-06
1.88062e-05
2.48009e-06
1.89135e-05
2.38535e-06
1.89921e-05
2.34148e-06
1.90382e-05
2.33932e-06
1.9125e-05
2.25291e-06
1.9176e-05
2.11008e-06
1.9991e-06
1.92212e-05
1.3489e-05
1.15758e-06
1.39476e-05
3.5837e-06
1.44752e-05
3.02231e-06
1.49728e-05
2.79459e-06
1.54333e-05
2.70859e-06
1.58361e-05
2.66438e-06
1.61739e-05
2.61845e-06
1.64572e-05
2.51975e-06
1.66742e-05
2.42267e-06
1.68291e-05
2.31496e-06
1.69318e-05
2.21486e-06
1.69942e-05
2.14007e-06
1.70291e-05
2.07034e-06
1.70261e-05
2.06313e-06
1.70557e-05
2.03216e-06
1.71298e-05
1.90737e-06
1.71632e-05
1.81339e-06
1.7098e-06
1.71989e-05
1.20246e-05
1.04998e-06
1.25687e-05
2.92897e-06
1.30534e-05
2.40922e-06
1.34843e-05
2.21297e-06
1.38984e-05
2.12015e-06
1.42703e-05
2.08644e-06
1.45964e-05
2.06441e-06
1.48435e-05
2.02225e-06
1.50283e-05
1.96597e-06
1.51593e-05
1.90248e-06
1.52429e-05
1.83572e-06
1.53084e-05
1.77467e-06
1.5346e-05
1.7308e-06
1.53781e-05
1.7274e-06
1.54477e-05
1.66615e-06
1.5503e-05
1.55932e-06
1.55384e-05
1.4959e-06
1.41324e-06
1.5562e-05
1.08486e-05
6.72408e-07
1.13631e-05
2.26976e-06
1.18196e-05
1.79698e-06
1.22216e-05
1.63932e-06
1.25613e-05
1.58449e-06
1.28605e-05
1.56579e-06
1.31091e-05
1.57246e-06
1.33052e-05
1.56224e-06
1.34608e-05
1.53169e-06
1.35837e-05
1.48866e-06
1.36872e-05
1.43239e-06
1.37739e-05
1.38315e-06
1.38315e-05
1.36611e-06
1.39263e-05
1.3266e-06
1.40351e-05
1.2562e-06
1.41e-05
1.19933e-06
1.41476e-05
1.16236e-06
1.10623e-06
1.41787e-05
9.34309e-06
4.90693e-07
1.00274e-05
1.42282e-06
1.06287e-05
1.02759e-06
1.11006e-05
9.8614e-07
1.14622e-05
1.0213e-06
1.17371e-05
1.06829e-06
1.19557e-05
1.10967e-06
1.21211e-05
1.13625e-06
1.22411e-05
1.13755e-06
1.23198e-05
1.12473e-06
1.23684e-05
1.09269e-06
1.23881e-05
1.06684e-06
1.24201e-05
1.03733e-06
1.2485e-05
9.65774e-07
1.25372e-05
9.12118e-07
1.25839e-05
8.67063e-07
1.2628e-05
8.40001e-07
7.99917e-07
1.26661e-05
8.55119e-06
2.36776e-08
9.22088e-06
5.85023e-07
9.66145e-06
4.18164e-07
9.98164e-06
4.87278e-07
1.02287e-05
5.7828e-07
1.04438e-05
6.37566e-07
1.06431e-05
6.76222e-07
1.08289e-05
7.00922e-07
1.09962e-05
7.08162e-07
1.1129e-05
7.20967e-07
1.12176e-05
7.27227e-07
1.12606e-05
7.4392e-07
1.13056e-05
7.12234e-07
1.13239e-05
6.68897e-07
1.13241e-05
6.37915e-07
1.13184e-05
6.04144e-07
1.13141e-05
5.83292e-07
5.5547e-07
1.13059e-05
7.68506e-06
-3.42544e-07
8.28583e-06
-1.81278e-07
8.71416e-06
-1.72939e-07
9.02901e-06
2.19772e-09
9.2507e-06
1.71602e-07
9.3987e-06
2.87463e-07
9.50267e-06
3.54078e-07
9.5843e-06
3.87352e-07
9.64395e-06
4.05593e-07
9.68956e-06
4.24245e-07
9.71079e-06
4.4947e-07
9.72164e-06
4.73863e-07
9.71843e-06
4.55948e-07
9.68859e-06
4.41194e-07
9.6461e-06
4.26866e-07
9.59322e-06
4.09106e-07
9.5354e-06
4.00158e-07
3.85155e-07
9.47279e-06
6.99867e-06
-7.17428e-07
7.48618e-06
-8.25166e-07
7.75664e-06
-5.96225e-07
7.89028e-06
-2.90257e-07
7.93556e-06
-4.49455e-08
7.92133e-06
1.15894e-07
7.86916e-06
2.06659e-07
7.79093e-06
2.54033e-07
7.69838e-06
2.7673e-07
7.60451e-06
2.89191e-07
7.51588e-06
3.04064e-07
7.43437e-06
3.18698e-07
7.34074e-06
3.12582e-07
7.23961e-06
3.071e-07
7.13518e-06
2.99623e-07
7.02932e-06
2.88228e-07
6.93169e-06
2.7721e-07
2.80998e-07
6.82227e-06
6.28867e-06
-1.01842e-06
6.20297e-06
-8.8314e-07
5.93708e-06
-4.70152e-07
5.65094e-06
-1.48707e-07
5.40808e-06
4.25794e-08
5.21096e-06
1.44867e-07
5.05267e-06
1.84403e-07
4.91983e-06
1.95369e-07
4.80216e-06
1.93854e-07
4.69074e-06
1.93163e-07
4.59054e-06
1.92105e-07
4.49964e-06
1.94946e-07
4.40961e-06
1.8739e-07
4.32208e-06
1.80685e-07
4.23553e-06
1.75043e-07
4.15102e-06
1.65969e-07
4.07346e-06
1.53528e-07
1.58387e-07
4.00131e-06
4.09703e-06
3.05423e-06
2.43134e-06
2.12973e-06
2.01312e-06
1.98974e-06
1.99645e-06
2.00565e-06
2.00644e-06
2.00149e-06
1.99237e-06
1.98484e-06
1.97026e-06
1.9511e-06
1.92985e-06
1.9043e-06
1.87205e-06
1.85154e-06
-8.55828e-07
1.11601e-06
-1.77305e-06
1.20581e-06
-2.52921e-06
1.0497e-06
-3.03416e-06
7.97994e-07
-3.21803e-06
4.85757e-07
-3.03409e-06
1.25705e-07
-2.48963e-06
-2.25316e-07
-1.65029e-06
-5.09439e-07
-6.41438e-07
-6.67283e-07
4.71569e-07
-7.584e-07
1.58504e-06
-7.46046e-07
2.62614e-06
-6.59448e-07
3.71827e-06
-6.92717e-07
4.7699e-06
-6.3547e-07
5.6331e-06
-4.31864e-07
6.39091e-06
-3.10461e-07
7.09302e-06
-2.35682e-07
7.64544e-06
-6.50124e-08
8.03911e-06
1.11366e-07
8.27272e-06
2.85979e-07
8.34918e-06
4.59576e-07
8.28168e-06
6.2488e-07
8.07953e-06
7.74204e-07
7.69247e-06
9.75394e-07
7.18567e-06
1.11441e-06
6.5171e-06
1.28214e-06
5.70041e-06
1.44694e-06
4.80834e-06
1.53857e-06
3.76489e-06
1.68886e-06
2.65178e-06
1.77182e-06
1.69404e-06
1.6243e-06
9.13937e-07
1.44467e-06
4.47365e-07
1.13875e-06
2.283e-07
8.95069e-07
9.99974e-08
8.04879e-07
2.56367e-07
5.23437e-07
5.98676e-07
3.36134e-07
9.80412e-07
2.89897e-07
1.44038e-06
2.05483e-07
1.90867e-06
1.95982e-07
2.33723e-06
2.39081e-07
2.91004e-06
8.97361e-08
3.51968e-06
4.21606e-08
3.8511e-06
3.21206e-07
4.4346e-06
5.31106e-08
5.10217e-06
-8.63386e-08
5.36274e-06
2.85281e-07
5.33124e-06
5.76456e-07
5.19687e-06
6.86007e-07
4.77666e-06
9.59136e-07
3.68965e-06
1.60572e-06
1.93926e-06
2.26803e-06
-4.50001e-08
2.50664e-06
-1.9024e-06
2.37298e-06
-3.59023e-06
2.19411e-06
-5.10533e-06
2.01298e-06
-6.43756e-06
1.82195e-06
-7.5955e-06
1.63988e-06
-8.59885e-06
1.47768e-06
-9.45971e-06
1.32761e-06
-1.01795e-05
1.17895e-06
-1.07743e-05
1.04634e-06
-1.12475e-05
9.17213e-07
-1.15926e-05
7.81673e-07
-1.18252e-05
6.62184e-07
-1.19657e-05
5.63476e-07
-1.20462e-05
4.97291e-07
-1.20853e-05
4.50607e-07
-1.20899e-05
4.11348e-07
-1.20497e-05
3.62491e-07
-1.19499e-05
3.00095e-07
-1.17813e-05
2.29831e-07
-1.15576e-05
1.75581e-07
-1.13057e-05
1.50764e-07
-1.10564e-05
1.59629e-07
-1.07978e-05
1.59193e-07
-1.05051e-05
1.36643e-07
-1.02265e-05
1.65057e-07
-9.92563e-06
1.59815e-07
-9.62312e-06
1.77538e-07
-9.27052e-06
1.48825e-07
-8.90287e-06
1.58623e-07
-8.61001e-06
2.65172e-07
-8.2608e-06
2.40799e-07
-7.83273e-06
1.91593e-07
-7.50161e-06
3.24002e-07
-7.12798e-06
3.16902e-07
-6.75054e-06
3.48126e-07
-6.41182e-06
4.23567e-07
-6.04645e-06
4.31483e-07
-5.69149e-06
4.75194e-07
-5.34197e-06
5.11224e-07
-5.02863e-06
5.74333e-07
-4.71281e-06
5.93785e-07
-4.4054e-06
6.18473e-07
-4.09253e-06
6.23501e-07
-3.78362e-06
6.31625e-07
-3.48824e-06
6.41829e-07
-3.21437e-06
6.53134e-07
-2.93088e-06
6.26282e-07
-2.60204e-06
5.54797e-07
-2.29667e-06
5.43337e-07
-2.05287e-06
5.61004e-07
-1.85614e-06
5.53811e-07
-1.68548e-06
5.15648e-07
-1.55799e-06
4.86246e-07
-1.45826e-06
4.34029e-07
-1.39832e-06
3.91488e-07
-1.366e-06
3.32825e-07
-1.43897e-06
3.49425e-07
-1.62705e-06
3.76764e-07
-1.91084e-06
3.86663e-07
-2.26162e-06
3.71514e-07
-2.63113e-06
3.14253e-07
-3.0587e-06
3.05665e-07
-3.41619e-06
1.77784e-07
-3.68066e-06
3.7595e-08
-3.81687e-06
-1.27677e-07
-3.90475e-06
-2.02275e-07
-3.98127e-06
-2.30841e-07
-3.98962e-06
-3.03162e-07
-3.88963e-06
-3.99479e-07
-3.6593e-06
-5.11796e-07
-3.23255e-06
-6.88628e-07
-2.79022e-06
-6.82573e-07
-2.38977e-06
-6.08324e-07
-1.93501e-06
-6.22525e-07
-1.52382e-06
-5.32885e-07
-1.19289e-06
-4.00086e-07
-1.2119e-06
8.54809e-09
-1.45048e-06
2.97018e-07
-1.71918e-06
4.0087e-07
-1.90328e-06
3.92755e-07
-1.77845e-06
1.64361e-07
-1.55792e-06
1.59271e-07
-1.40536e-06
3.16033e-07
-1.46356e-06
6.11797e-07
-2.11566e-06
1.29057e-06
-3.26646e-06
1.87131e-06
-4.63444e-06
2.17012e-06
-5.61697e-06
1.83666e-06
-6.22226e-06
1.49648e-06
-7.00953e-06
1.79059e-06
-8.02594e-06
2.14613e-06
-8.39482e-06
1.54435e-06
-8.76255e-06
1.60077e-06
-9.76559e-06
2.35785e-06
-1.08599e-05
2.56235e-06
-1.05341e-05
1.23833e-06
-9.66587e-06
7.26387e-07
-9.00195e-06
9.65525e-07
-9.31025e-06
2.05489e-06
-9.13174e-06
1.66385e-06
-8.45234e-06
1.25109e-06
-8.48782e-06
2.06255e-06
-8.41361e-06
2.05852e-06
-7.65636e-06
1.48715e-06
-7.49097e-06
2.17202e-06
-6.97431e-06
1.93337e-06
-6.8611e-06
2.45279e-06
-6.86718e-06
2.65262e-06
-6.9379e-06
2.8269e-06
-6.83441e-06
2.65946e-06
-7.07697e-06
2.97714e-06
-6.32458e-06
1.95914e-06
-6.01828e-06
2.34821e-06
-6.46076e-06
3.09725e-06
-6.98692e-06
3.34007e-06
-6.43156e-06
2.42753e-06
-6.03161e-06
2.66291e-06
-6.25904e-06
3.35149e-06
-5.99147e-06
3.13449e-06
-4.58685e-06
2.09521e-06
-4.49812e-06
3.36981e-06
-4.19025e-06
3.97142e-06
-2.92857e-06
3.13505e-06
-2.56025e-06
3.81619e-06
3.46505e-06
-1.49687e-06
5.16236e-06
2.79186e-06
3.51933e-06
6.16734e-06
-1.03521e-07
1.44983e-06
-3.60792e-07
1.7257e-06
-7.16619e-07
1.68628e-06
-9.86585e-07
1.35183e-06
-9.51602e-07
7.35433e-07
-5.51976e-07
1.60074e-08
1.38157e-07
-6.16939e-07
1.02015e-06
-1.08265e-06
1.98846e-06
-1.31655e-06
2.96084e-06
-1.39652e-06
3.97562e-06
-1.41419e-06
4.88977e-06
-1.21921e-06
5.75278e-06
-1.17393e-06
6.63931e-06
-1.12276e-06
7.32594e-06
-7.11752e-07
8.03814e-06
-5.98747e-07
8.71163e-06
-4.71756e-07
9.20074e-06
-8.33364e-08
9.6609e-06
1.45659e-07
9.96885e-06
4.65894e-07
1.01542e-05
7.96057e-07
1.02564e-05
1.05899e-06
1.0208e-05
1.36362e-06
1.01211e-05
1.65031e-06
9.86283e-06
1.95832e-06
9.5376e-06
2.21289e-06
9.1699e-06
2.4511e-06
8.65122e-06
2.67614e-06
8.0985e-06
2.90085e-06
7.52872e-06
3.00684e-06
6.7069e-06
3.08184e-06
5.82744e-06
3.01835e-06
4.78485e-06
2.88504e-06
3.50738e-06
2.83671e-06
2.83953e-06
2.16248e-06
2.58193e-06
1.5e-06
2.22923e-06
1.39239e-06
2.39492e-06
8.10484e-07
3.04213e-06
2.43718e-07
3.63611e-06
3.01552e-07
4.18373e-06
4.08179e-07
4.9666e-06
-5.4463e-09
6.08679e-06
-5.03835e-07
6.56279e-06
4.32277e-07
5.83949e-06
1.4312e-06
4.51665e-06
1.77976e-06
2.62819e-06
2.63185e-06
1.57533e-07
3.56696e-06
-2.55825e-06
3.95302e-06
-5.06237e-06
4.0061e-06
-6.98487e-06
4.06555e-06
-8.3352e-06
4.15094e-06
-9.423e-06
4.11872e-06
-1.04816e-05
3.94559e-06
-1.14665e-05
3.68394e-06
-1.23461e-05
3.38928e-06
-1.31114e-05
3.07567e-06
-1.37511e-05
2.75991e-06
-1.42937e-05
2.49252e-06
-1.47159e-05
2.21423e-06
-1.50299e-05
1.94932e-06
-1.52408e-05
1.70549e-06
-1.53269e-05
1.44366e-06
-1.53323e-05
1.21917e-06
-1.52536e-05
1.00778e-06
-1.5123e-05
8.50043e-07
-1.49438e-05
7.29503e-07
-1.47354e-05
6.4942e-07
-1.45017e-05
5.81427e-07
-1.42349e-05
4.95928e-07
-1.39064e-05
3.67707e-07
-1.35291e-05
2.4494e-07
-1.31311e-05
1.68549e-07
-1.27169e-05
1.30216e-07
-1.23254e-05
1.69066e-07
-1.19389e-05
1.83634e-07
-1.15058e-05
1.24587e-07
-1.10875e-05
1.80469e-07
-1.06624e-05
1.84959e-07
-1.0241e-05
2.25679e-07
-9.78907e-06
1.83782e-07
-9.3452e-06
2.18536e-07
-8.94889e-06
4.11311e-07
-8.45013e-06
3.20346e-07
-7.94669e-06
2.8385e-07
-7.51673e-06
5.27651e-07
-7.03555e-06
5.06207e-07
-6.57939e-06
5.8975e-07
-6.12309e-06
7.06992e-07
-5.63322e-06
7.16449e-07
-5.19226e-06
8.4141e-07
-4.79096e-06
9.5178e-07
-4.3476e-06
1.0025e-06
-3.92436e-06
1.06806e-06
-3.5295e-06
1.13977e-06
-3.13102e-06
1.15187e-06
-2.72197e-06
1.15663e-06
-2.31869e-06
1.16987e-06
-1.91331e-06
1.16407e-06
-1.55377e-06
1.16241e-06
-1.18883e-06
1.05749e-06
-8.19937e-07
1.00586e-06
-5.24062e-07
1.05514e-06
-3.50229e-07
1.11989e-06
-2.45377e-07
1.08887e-06
-1.8675e-07
1.03624e-06
-1.92304e-07
9.68039e-07
-2.53722e-07
9.0224e-07
-3.53653e-07
7.94103e-07
-4.72102e-07
7.424e-07
-6.71147e-07
7.62401e-07
-9.30865e-07
7.4815e-07
-1.25205e-06
7.09641e-07
-1.55414e-06
5.58509e-07
-1.85941e-06
4.8599e-07
-2.16187e-06
2.9151e-07
-2.39723e-06
3.78104e-08
-2.47374e-06
-3.19797e-07
-2.45381e-06
-5.13286e-07
-2.35272e-06
-6.34293e-07
-2.18212e-06
-7.79587e-07
-2.10769e-06
-7.67558e-07
-2.0387e-06
-8.43675e-07
-1.73871e-06
-1.22551e-06
-1.25215e-06
-1.3822e-06
-6.57168e-07
-1.37707e-06
5.31571e-08
-1.4674e-06
8.87229e-07
-1.45085e-06
1.85391e-06
-1.3807e-06
2.68737e-06
-7.71065e-07
3.01105e-06
8.33779e-08
2.86412e-06
7.03734e-07
2.48684e-06
9.83186e-07
2.21702e-06
7.14383e-07
1.88909e-06
8.45964e-07
9.75377e-07
1.67563e-06
-8.60031e-07
2.97751e-06
-3.15463e-06
4.21089e-06
-5.39646e-06
4.83751e-06
-7.16632e-06
4.70187e-06
-7.97474e-06
3.36075e-06
-8.55122e-06
2.80745e-06
-9.56103e-06
3.79956e-06
-1.08714e-05
4.63672e-06
-1.096e-05
2.64563e-06
-1.06758e-05
2.32771e-06
-1.08953e-05
3.8114e-06
-1.2008e-05
5.18253e-06
-1.19086e-05
2.8271e-06
-1.01375e-05
4.44336e-07
-8.37001e-06
4.93632e-07
-8.31331e-06
3.5381e-06
-7.95023e-06
3.05629e-06
-6.51056e-06
1.60165e-06
-6.12875e-06
3.56327e-06
-5.74776e-06
3.70938e-06
-4.66924e-06
2.57587e-06
-4.37533e-06
4.16216e-06
-3.7139e-06
3.68143e-06
-4.0678e-06
5.39009e-06
-4.20444e-06
5.48945e-06
-4.23174e-06
5.80215e-06
-4.90497e-06
6.34654e-06
-5.60151e-06
6.55289e-06
-4.43324e-06
3.47135e-06
-3.46366e-06
3.9726e-06
-4.1422e-06
6.4139e-06
-4.63094e-06
6.69716e-06
-3.42905e-06
4.34478e-06
-2.85337e-06
5.3488e-06
-3.98247e-06
7.82167e-06
-4.84567e-06
7.77764e-06
-5.013e-06
6.01902e-06
-6.719e-06
8.70754e-06
-5.8834e-06
8.27714e-06
-4.10206e-06
6.33477e-06
-3.10661e-06
7.72361e-06
4.50732e-06
-4.32245e-06
7.82133e-06
4.44262e-06
6.73635e-06
9.83193e-06
2.27239e-08
1.61161e-06
1.54951e-07
1.8047e-06
2.34297e-07
1.82846e-06
4.94328e-07
1.31758e-06
1.082e-06
3.80042e-07
1.89394e-06
-5.53318e-07
2.79873e-06
-1.26756e-06
3.64352e-06
-1.66011e-06
4.43847e-06
-1.83363e-06
5.11161e-06
-1.78143e-06
5.73881e-06
-1.7271e-06
6.43242e-06
-1.60028e-06
6.92189e-06
-1.32316e-06
7.52159e-06
-1.35242e-06
8.10244e-06
-9.27082e-07
8.62709e-06
-7.31261e-07
9.17653e-06
-6.04526e-07
9.54708e-06
-1.72384e-08
9.90962e-06
2.20633e-07
1.01847e-05
6.63143e-07
1.03045e-05
1.16219e-06
1.03374e-05
1.49841e-06
1.02698e-05
1.96197e-06
1.01461e-05
2.30678e-06
9.97688e-06
2.6682e-06
9.7747e-06
3.00474e-06
9.55387e-06
3.23706e-06
9.28846e-06
3.55112e-06
9.01462e-06
3.78405e-06
8.63123e-06
3.97734e-06
8.26535e-06
4.14581e-06
7.79327e-06
4.15949e-06
7.02237e-06
4.24153e-06
6.47107e-06
4.04829e-06
5.84862e-06
3.46681e-06
4.74656e-06
3.22826e-06
4.30052e-06
2.49444e-06
4.0763e-06
1.74489e-06
3.5767e-06
1.42463e-06
4.12782e-06
3.94857e-07
5.17365e-06
9.53268e-09
4.82058e-06
1.00335e-06
2.99398e-06
1.87583e-06
9.45685e-07
2.98999e-06
-1.56936e-06
4.47354e-06
-4.26714e-06
4.99845e-06
-6.31362e-06
5.216e-06
-7.6691e-06
5.48679e-06
-8.75037e-06
5.58742e-06
-9.8617e-06
5.65914e-06
-1.09028e-05
5.63973e-06
-1.1721e-05
5.49362e-06
-1.23145e-05
5.22675e-06
-1.27964e-05
4.93314e-06
-1.32133e-05
4.59822e-06
-1.35865e-05
4.25214e-06
-1.39123e-05
3.88365e-06
-1.42028e-05
3.52543e-06
-1.44263e-05
3.18424e-06
-1.46098e-05
2.85859e-06
-1.474e-05
2.53406e-06
-1.47986e-05
2.21079e-06
-1.48081e-05
1.89143e-06
-1.47435e-05
1.58311e-06
-1.46213e-05
1.30352e-06
-1.44305e-05
1.06796e-06
-1.42037e-05
9.04135e-07
-1.39409e-05
7.85576e-07
-1.36439e-05
6.84757e-07
-1.33345e-05
5.88949e-07
-1.30133e-05
4.50166e-07
-1.26611e-05
2.93636e-07
-1.22982e-05
2.02637e-07
-1.19199e-05
1.48939e-07
-1.15274e-05
1.81625e-07
-1.11608e-05
2.35491e-07
-1.07427e-05
1.35121e-07
-1.03616e-05
2.3733e-07
-9.94711e-06
2.21747e-07
-9.56195e-06
3.17235e-07
-9.16556e-06
2.87813e-07
-8.78342e-06
3.47367e-07
-8.35223e-06
5.23306e-07
-7.93215e-06
4.76347e-07
-7.50187e-06
4.48912e-07
-7.06446e-06
7.1879e-07
-6.6211e-06
7.25009e-07
-6.18438e-06
8.35986e-07
-5.73928e-06
9.82456e-07
-5.25312e-06
9.83011e-07
-4.77571e-06
1.14215e-06
-4.31491e-06
1.30476e-06
-3.84121e-06
1.36735e-06
-3.36956e-06
1.46144e-06
-2.89211e-06
1.55535e-06
-2.41872e-06
1.58055e-06
-2.00394e-06
1.64954e-06
-1.59882e-06
1.68211e-06
-1.27292e-06
1.7525e-06
-1.0082e-06
1.79333e-06
-6.46766e-07
1.56071e-06
-1.89579e-07
1.37342e-06
3.34295e-07
1.31162e-06
6.38652e-07
1.54805e-06
8.85298e-07
1.5136e-06
1.03629e-06
1.48901e-06
1.08832e-06
1.44462e-06
1.05577e-06
1.38832e-06
9.93352e-07
1.22618e-06
8.65557e-07
1.15608e-06
6.86275e-07
1.1383e-06
4.50665e-07
1.09657e-06
2.24227e-07
9.69798e-07
5.06162e-08
6.95182e-07
-1.18461e-07
5.5838e-07
-3.24551e-07
3.48362e-07
-5.68147e-07
9.13864e-08
-8.14942e-07
-2.90493e-07
-1.00527e-06
-5.5582e-07
-1.02445e-06
-8.54863e-07
-8.48119e-07
-1.19353e-06
-6.78267e-07
-1.16085e-06
-7.04026e-07
-1.01916e-06
-8.49342e-07
-1.26109e-06
-8.16479e-07
-1.57549e-06
-4.74401e-07
-1.84235e-06
1.03788e-07
-2.12708e-06
8.73084e-07
-2.24553e-06
2.02247e-06
-2.47771e-06
3.52764e-06
-2.10947e-06
4.23139e-06
-3.77421e-07
4.47202e-06
7.306e-07
4.15166e-06
1.58018e-06
3.41537e-06
1.75371e-06
2.31224e-06
2.31037e-06
6.02431e-07
3.83541e-06
-1.80794e-06
5.93107e-06
-4.36963e-06
7.42623e-06
-6.75254e-06
7.99909e-06
-8.4271e-06
7.17807e-06
-9.22977e-06
4.84548e-06
-1.0114e-05
4.43216e-06
-1.10872e-05
5.90794e-06
-1.25788e-05
7.24042e-06
-1.32571e-05
4.09709e-06
-1.25278e-05
2.5695e-06
-1.10815e-05
3.58528e-06
-1.14299e-05
7.23597e-06
-1.22643e-05
5.57455e-06
-1.0678e-05
2.38864e-07
-8.79711e-06
-3.04029e-07
-8.19492e-06
4.37531e-06
-8.06889e-06
4.68499e-06
-6.30665e-06
1.4738e-06
-5.53291e-06
4.45584e-06
-5.02334e-06
5.06173e-06
-3.53187e-06
3.01034e-06
-2.60717e-06
5.30589e-06
-1.0315e-06
4.33137e-06
-1.59349e-06
8.34765e-06
-2.17019e-06
8.56977e-06
-1.57993e-06
8.10716e-06
-3.08443e-06
1.10631e-05
-5.20756e-06
1.17239e-05
-4.13258e-06
5.0364e-06
-2.22458e-06
4.58897e-06
-2.78579e-06
9.72658e-06
-3.91636e-06
1.05588e-05
-2.61977e-06
5.69108e-06
-8.03995e-07
6.22894e-06
-2.02648e-06
1.22147e-05
-3.61771e-06
1.33014e-05
-4.61141e-06
1.09747e-05
-6.39948e-06
1.43105e-05
-6.12152e-06
1.27771e-05
-4.35267e-06
9.35654e-06
-2.52178e-06
1.12862e-05
4.16299e-06
-6.5644e-06
7.60045e-06
5.81062e-06
9.37386e-06
1.01481e-05
-2.47328e-07
1.98661e-06
-1.87963e-07
1.89394e-06
1.85513e-07
1.60104e-06
1.03285e-06
6.27458e-07
2.16206e-06
-5.74181e-07
3.26456e-06
-1.46394e-06
4.14981e-06
-1.94722e-06
4.78399e-06
-2.08121e-06
5.22269e-06
-2.04022e-06
5.63844e-06
-1.96282e-06
5.95021e-06
-1.7833e-06
6.3954e-06
-1.76721e-06
6.92385e-06
-1.56929e-06
7.40735e-06
-1.51377e-06
8.0431e-06
-1.2548e-06
8.55574e-06
-8.76217e-07
9.08931e-06
-7.64741e-07
9.45828e-06
-2.66737e-08
9.81312e-06
2.92666e-07
1.00714e-05
8.24582e-07
1.00767e-05
1.58692e-06
1.01175e-05
1.92415e-06
9.98783e-06
2.57888e-06
9.70643e-06
3.09071e-06
9.44626e-06
3.44973e-06
9.12019e-06
3.85888e-06
8.79958e-06
4.08652e-06
8.60107e-06
4.30206e-06
8.33509e-06
4.63828e-06
8.02758e-06
4.86957e-06
7.87024e-06
4.82796e-06
7.712e-06
4.93145e-06
7.53218e-06
5.12533e-06
7.17173e-06
5.01495e-06
6.17657e-06
5.06063e-06
5.54178e-06
4.52413e-06
5.30583e-06
3.39412e-06
4.48201e-06
3.20539e-06
4.11825e-06
2.45299e-06
3.77185e-06
1.4041e-06
2.13843e-06
2.18728e-06
-4.21282e-07
4.05054e-06
-3.44929e-06
5.4114e-06
-5.79955e-06
5.87114e-06
-7.05096e-06
6.29494e-06
-8.14056e-06
6.64643e-06
-9.27833e-06
6.90431e-06
-1.01884e-05
6.94407e-06
-1.09031e-05
6.83999e-06
-1.14585e-05
6.74138e-06
-1.18888e-05
6.58676e-06
-1.22432e-05
6.3552e-06
-1.25768e-05
6.06015e-06
-1.28699e-05
5.71824e-06
-1.31367e-05
5.35085e-06
-1.33799e-05
4.97438e-06
-1.35999e-05
4.57782e-06
-1.38072e-05
4.19985e-06
-1.39705e-05
3.81002e-06
-1.40868e-05
3.43214e-06
-1.41609e-05
3.06073e-06
-1.41838e-05
2.68187e-06
-1.41579e-05
2.30651e-06
-1.40886e-05
1.94633e-06
-1.39722e-05
1.60868e-06
-1.38273e-05
1.33246e-06
-1.36178e-05
1.09477e-06
-1.33377e-05
8.99457e-07
-1.30053e-05
7.42478e-07
-1.2636e-05
6.11246e-07
-1.22578e-05
4.67917e-07
-1.18836e-05
3.17138e-07
-1.15124e-05
2.29353e-07
-1.11346e-05
1.67667e-07
-1.07262e-05
1.73384e-07
-1.03312e-05
2.54197e-07
-9.90647e-06
1.38538e-07
-9.54946e-06
3.22283e-07
-9.14338e-06
2.64268e-07
-8.75717e-06
4.06176e-07
-8.40093e-06
4.38261e-07
-8.03933e-06
5.07955e-07
-7.6065e-06
6.41709e-07
-7.23575e-06
6.88013e-07
-6.86216e-06
6.86415e-07
-6.46366e-06
9.62717e-07
-6.09119e-06
1.02852e-06
-5.70527e-06
1.15274e-06
-5.32192e-06
1.33483e-06
-4.92955e-06
1.35551e-06
-4.45037e-06
1.44592e-06
-3.97915e-06
1.65205e-06
-3.50403e-06
1.73351e-06
-2.98932e-06
1.79538e-06
-2.52852e-06
1.97258e-06
-2.09603e-06
2.04731e-06
-1.6584e-06
2.10581e-06
-1.16321e-06
2.07372e-06
-6.41967e-07
2.12172e-06
-2.37177e-07
2.28035e-06
-5.64978e-08
2.25379e-06
2.42207e-07
1.91059e-06
5.87614e-07
1.753e-06
9.33302e-07
1.9494e-06
1.16789e-06
1.96895e-06
1.39423e-06
1.88451e-06
1.60417e-06
1.7807e-06
1.76315e-06
1.70176e-06
1.85501e-06
1.52771e-06
1.85295e-06
1.47215e-06
1.82485e-06
1.40062e-06
1.74479e-06
1.33305e-06
1.59669e-06
1.19441e-06
1.46358e-06
8.36384e-07
1.45115e-06
5.33381e-07
1.4346e-06
2.91198e-07
1.31553e-06
8.91517e-08
1.03413e-06
-1.70785e-07
5.83909e-07
-2.84101e-07
1.86832e-07
-6.34713e-07
5.63751e-08
-1.2266e-06
1.47297e-07
-1.38967e-06
3.72124e-07
-1.36722e-06
4.06261e-07
-1.40914e-06
2.48895e-07
-1.51729e-06
2.52509e-07
-1.90422e-06
5.42764e-07
-2.42624e-06
1.05322e-06
-2.70645e-06
2.14199e-06