/*--------------------------------*- C++ -*----------------------------------*\
| =========                 |                                                 |
| \\      /  F ield         | OpenFOAM: The Open Source CFD Toolbox           |
|  \\    /   O peration     | Version:  dev                                   |
|   \\  /    A nd           | Web:      http://www.openfoam.org               |
|    \\/     M anipulation  |                                                 |
\*---------------------------------------------------------------------------*/
FoamFile
{
    version     2.0;
    format      ascii;
    class       surfaceScalarField;
    object      phi_0;
    location    "9.166";
}
// * * * * * * * * * * * * * * * * * * * * * * * * * * * * * * * * * * * * * //

dimensions      [1 0 -1 0 0 0 0];

internalField   nonuniform List<scalar> 
24170
(
2.34693e-06
1.97468e-06
1.71168e-06
1.53361e-06
1.52173e-06
1.02263e-06
1.56145e-06
7.41775e-07
1.59385e-06
6.87423e-07
1.68373e-06
5.87586e-07
1.69335e-06
6.11828e-07
1.7997e-06
4.79613e-07
1.77505e-06
5.60723e-07
1.92018e-06
3.62852e-07
1.84108e-06
5.42443e-07
2.1627e-06
1.20385e-07
1.83927e-06
7.25674e-07
2.75064e-06
-5.26871e-07
1.83797e-06
1.26294e-06
3.14492e-06
-9.84773e-07
3.99588e-06
-5.44116e-07
2.27902e-06
1.99097e-06
4.02156e-06
2.65096e-06
3.70764e-06
2.75423e-06
3.5266e-06
2.05912e-06
3.43256e-06
1.63861e-06
3.40036e-06
1.46823e-06
3.39113e-06
1.29448e-06
3.43816e-06
1.21273e-06
3.46779e-06
1.05189e-06
3.56728e-06
1.0195e-06
3.7337e-06
7.15478e-07
3.77878e-06
9.78745e-07
4.32361e-06
2.49047e-08
4.1042e-06
1.35994e-06
5.2655e-06
-1.29749e-06
4.57728e-06
2.30539e-06
7.21894e-06
-3.30096e-06
4.01036e-06
2.96826e-06
-8.91541e-07
7.47616e-06
4.81546e-06
2.93955e-06
4.94813e-06
3.61946e-06
5.03198e-06
2.91729e-06
5.05257e-06
2.50193e-06
5.049e-06
2.29589e-06
5.0749e-06
2.03561e-06
5.06265e-06
1.93825e-06
5.23294e-06
1.54332e-06
5.13881e-06
1.72827e-06
5.64992e-06
7.75386e-07
5.32282e-06
1.83675e-06
6.20339e-06
-3.62345e-07
5.65127e-06
2.37178e-06
6.68278e-06
-1.903e-06
5.8496e-06
3.53557e-06
7.61588e-06
-4.70871e-06
6.62155e-06
4.29891e-06
-5.38361e-07
6.57615e-06
5.04063e-06
3.53819e-06
5.7753e-06
3.98151e-06
6.00197e-06
3.72659e-06
6.45228e-06
3.02162e-06
6.40539e-06
3.24884e-06
6.81042e-06
2.47192e-06
6.58506e-06
2.94681e-06
7.11041e-06
1.74284e-06
6.76815e-06
2.74463e-06
7.37037e-06
7.979e-07
6.95834e-06
2.83101e-06
7.53437e-06
-3.98831e-07
7.11676e-06
3.2923e-06
7.69998e-06
-2.01798e-06
7.366e-06
4.30321e-06
8.16884e-06
-5.10415e-06
8.36156e-06
4.47155e-06
-2.9962e-06
1.11691e-05
5.36991e-06
4.22904e-06
6.52513e-06
4.02615e-06
6.58521e-06
4.80437e-06
7.34182e-06
3.32696e-06
7.20272e-06
4.38194e-06
7.84023e-06
2.75557e-06
7.53568e-06
4.10954e-06
8.16503e-06
1.90718e-06
7.83016e-06
3.81763e-06
8.27599e-06
1.03644e-06
8.03142e-06
3.71364e-06
8.31139e-06
-8.6981e-08
8.40838e-06
3.74754e-06
8.32074e-06
-1.41668e-06
9.18369e-06
3.91973e-06
8.35479e-06
-3.83157e-06
9.66325e-06
3.56953e-06
-3.08013e-06
1.01359e-05
5.67235e-06
5.43864e-06
6.67401e-06
4.33587e-06
6.78399e-06
5.93851e-06
7.6023e-06
3.66815e-06
7.52369e-06
5.54764e-06
8.14602e-06
3.14076e-06
8.01983e-06
5.17299e-06
8.61071e-06
2.18487e-06
8.51986e-06
4.71512e-06
8.86491e-06
1.44067e-06
8.9195e-06
4.35622e-06
9.01659e-06
4.63532e-07
9.57747e-06
3.79096e-06
9.21004e-06
-4.86132e-07
1.0434e-05
3.22283e-06
8.805e-06
-1.71322e-06
1.07091e-05
2.12287e-06
-1.29807e-06
9.35581e-06
6.62449e-06
6.59824e-06
7.42103e-06
4.96846e-06
7.5492e-06
7.16622e-06
8.28776e-06
4.1952e-06
8.28632e-06
6.73586e-06
8.88103e-06
3.64473e-06
8.92934e-06
6.14626e-06
9.40537e-06
2.65626e-06
9.54023e-06
5.46154e-06
9.69e-06
2.1088e-06
1.00991e-05
4.70671e-06
9.95313e-06
1.31517e-06
1.06557e-05
3.7475e-06
1.01133e-05
6.71093e-07
1.10875e-05
2.82383e-06
9.92168e-06
-1.02739e-08
1.0802e-05
1.74652e-06
4.15866e-07
9.56665e-06
5.18863e-06
7.27492e-06
5.75039e-06
5.50966e-06
5.87587e-06
8.08575e-06
6.33929e-06
4.7086e-06
6.47356e-06
7.51652e-06
6.85039e-06
4.1152e-06
7.07649e-06
6.70832e-06
7.2262e-06
3.23764e-06
7.54868e-06
5.81995e-06
7.50296e-06
2.78518e-06
7.90196e-06
4.89232e-06
7.7079e-06
2.05304e-06
8.18266e-06
3.78138e-06
7.7601e-06
1.5693e-06
8.32863e-06
2.69985e-06
7.62685e-06
1.10638e-06
8.10156e-06
1.66036e-06
1.09021e-06
7.78833e-06
6.25374e-06
8.10044e-06
6.77047e-06
6.26014e-06
6.98405e-06
9.07226e-06
7.35842e-06
5.4572e-06
7.66296e-06
8.26389e-06
7.90153e-06
4.8509e-06
8.3102e-06
7.20659e-06
8.32392e-06
4.06388e-06
8.74527e-06
6.18067e-06
8.69294e-06
3.56069e-06
9.11093e-06
5.14568e-06
8.93128e-06
2.85823e-06
9.29019e-06
4.0085e-06
8.98938e-06
2.41776e-06
9.32906e-06
2.87178e-06
8.92278e-06
1.9907e-06
9.09476e-06
1.93603e-06
1.70842e-06
8.89531e-06
7.34177e-06
9.03551e-06
7.74566e-06
7.30454e-06
8.17701e-06
1.00137e-05
8.44444e-06
6.4747e-06
9.00044e-06
8.91045e-06
9.12456e-06
5.84005e-06
9.68824e-06
7.67871e-06
9.6311e-06
5.07991e-06
1.01491e-05
6.55513e-06
1.00206e-05
4.51499e-06
1.04334e-05
5.50109e-06
1.02386e-05
3.7688e-06
1.05563e-05
4.35991e-06
1.03215e-05
3.27651e-06
1.05544e-05
3.22257e-06
1.0352e-05
2.73818e-06
1.04293e-05
2.36978e-06
2.29351e-06
1.03244e-05
8.55211e-06
9.94486e-06
8.89433e-06
8.60733e-06
9.60843e-06
1.0855e-05
9.74987e-06
7.79205e-06
1.04757e-05
9.54579e-06
1.05348e-05
7.044e-06
1.1219e-05
8.16757e-06
1.11653e-05
6.22104e-06
1.16672e-05
7.063e-06
1.15779e-05
5.53906e-06
1.19899e-05
5.95781e-06
1.18447e-05
4.72275e-06
1.21259e-05
4.83262e-06
1.20334e-05
4.07337e-06
1.21349e-05
3.78062e-06
1.20904e-05
3.39852e-06
1.20183e-05
3.02111e-06
2.8404e-06
1.20172e-05
1.00579e-05
1.08231e-05
1.02618e-05
1.02503e-05
1.12312e-05
1.16266e-05
1.13555e-05
9.30612e-06
1.22352e-05
1.01894e-05
1.22852e-05
8.41002e-06
1.29442e-05
8.82147e-06
1.2911e-05
7.47158e-06
1.3434e-05
7.66744e-06
1.33865e-05
6.63021e-06
1.37731e-05
6.53969e-06
1.36818e-05
5.71523e-06
1.39212e-05
5.43348e-06
1.38841e-05
4.8954e-06
1.38939e-05
4.50482e-06
1.38904e-05
4.08911e-06
1.38084e-05
3.74937e-06
3.47764e-06
1.37792e-05
1.18102e-05
1.16734e-05
1.2043e-05
1.20574e-05
1.30109e-05
1.25802e-05
1.31967e-05
1.09299e-05
1.39742e-05
1.10891e-05
1.41219e-05
9.82312e-06
1.47373e-05
9.64926e-06
1.48571e-05
8.6898e-06
1.53753e-05
8.38525e-06
1.54767e-05
7.67143e-06
1.58284e-05
7.24765e-06
1.58713e-05
6.65788e-06
1.60393e-05
6.18284e-06
1.60573e-05
5.73403e-06
1.60823e-05
5.2816e-06
1.60614e-05
4.86091e-06
1.59983e-05
4.51811e-06
4.20967e-06
1.59316e-05
1.38798e-05
1.28265e-05
1.41216e-05
1.40165e-05
1.5126e-05
1.36475e-05
1.5486e-05
1.25156e-05
1.62265e-05
1.21529e-05
1.64828e-05
1.12435e-05
1.70207e-05
1.06595e-05
1.7258e-05
9.88611e-06
1.76755e-05
9.28863e-06
1.79155e-05
8.65116e-06
1.82084e-05
8.085e-06
1.83802e-05
7.53399e-06
1.85254e-05
7.01269e-06
1.86296e-05
6.54029e-06
1.86631e-05
6.09801e-06
1.86365e-05
5.68307e-06
1.86e-05
5.30369e-06
4.94698e-06
1.85686e-05
1.58215e-05
1.34785e-05
1.63583e-05
1.57681e-05
1.72965e-05
1.48612e-05
1.78674e-05
1.39593e-05
1.86186e-05
1.32731e-05
1.91264e-05
1.2468e-05
1.96853e-05
1.16982e-05
2.00948e-05
1.09506e-05
2.04787e-05
1.02583e-05
2.07714e-05
9.60545e-06
2.1011e-05
8.99666e-06
2.11868e-05
8.42284e-06
2.13046e-05
7.88249e-06
2.13876e-05
7.37552e-06
2.14262e-05
6.9177e-06
2.14307e-05
6.48277e-06
2.14048e-05
6.08431e-06
5.6759e-06
2.1387e-05
1.86985e-05
1.42869e-05
1.94853e-05
1.72211e-05
2.03227e-05
1.61159e-05
2.10399e-05
1.51946e-05
2.17734e-05
1.43495e-05
2.24005e-05
1.35065e-05
2.29423e-05
1.26867e-05
2.3367e-05
1.19279e-05
2.36773e-05
1.12305e-05
2.38962e-05
1.05622e-05
2.40385e-05
9.93271e-06
2.41314e-05
9.32297e-06
2.4188e-05
8.74241e-06
2.42223e-05
8.19092e-06
2.4256e-05
7.67489e-06
2.42808e-05
7.19516e-06
2.43158e-05
6.74162e-06
6.30113e-06
2.43434e-05
2.11772e-05
1.49478e-05
2.23253e-05
1.80046e-05
2.32359e-05
1.69878e-05
2.40386e-05
1.60401e-05
2.47617e-05
1.51372e-05
2.5364e-05
1.42829e-05
2.58618e-05
1.34439e-05
2.62586e-05
1.26665e-05
2.65939e-05
1.19246e-05
2.68911e-05
1.11971e-05
2.71422e-05
1.05268e-05
2.73621e-05
9.87198e-06
2.75332e-05
9.27169e-06
2.7663e-05
8.70508e-06
2.77706e-05
8.16128e-06
2.7844e-05
7.67299e-06
2.78988e-05
7.20308e-06
6.77902e-06
2.79051e-05
2.09535e-05
1.53273e-05
2.20064e-05
1.80444e-05
2.30562e-05
1.69076e-05
2.39874e-05
1.59769e-05
2.47376e-05
1.51572e-05
2.5318e-05
1.43852e-05
2.57769e-05
1.35846e-05
2.61381e-05
1.28248e-05
2.64622e-05
1.20535e-05
2.67509e-05
1.12963e-05
2.69932e-05
1.06188e-05
2.72035e-05
9.95161e-06
2.73592e-05
9.36452e-06
2.7468e-05
8.81642e-06
2.75331e-05
8.28994e-06
2.7561e-05
7.82044e-06
2.75867e-05
7.33617e-06
6.87529e-06
2.7637e-05
1.89958e-05
1.46357e-05
1.98753e-05
1.73002e-05
2.06466e-05
1.62045e-05
2.12602e-05
1.53869e-05
2.17319e-05
1.46593e-05
2.21743e-05
1.38848e-05
2.26099e-05
1.30558e-05
2.3033e-05
1.22741e-05
2.34423e-05
1.14985e-05
2.37803e-05
1.07834e-05
2.40608e-05
1.0151e-05
2.42697e-05
9.5443e-06
2.44074e-05
9.01587e-06
2.45092e-05
8.5089e-06
2.4554e-05
8.03382e-06
2.45275e-05
7.64509e-06
2.45531e-05
7.11509e-06
6.65731e-06
2.45842e-05
1.69722e-05
1.35889e-05
1.76243e-05
1.60507e-05
1.82329e-05
1.4999e-05
1.88186e-05
1.42008e-05
1.93634e-05
1.35025e-05
1.98647e-05
1.27836e-05
2.02611e-05
1.20521e-05
2.05862e-05
1.13466e-05
2.08481e-05
1.06483e-05
2.10423e-05
9.99752e-06
2.12234e-05
9.39931e-06
2.1364e-05
8.84157e-06
2.14846e-05
8.34724e-06
2.15802e-05
7.89124e-06
2.16011e-05
7.50422e-06
2.165e-05
7.11866e-06
2.16753e-05
6.63029e-06
6.21705e-06
2.16845e-05
1.51274e-05
1.21608e-05
1.56952e-05
1.43916e-05
1.63363e-05
1.33117e-05
1.69175e-05
1.25907e-05
1.74278e-05
1.19889e-05
1.7832e-05
1.14113e-05
1.80996e-05
1.08297e-05
1.83215e-05
1.02065e-05
1.84813e-05
9.59687e-06
1.86137e-05
8.99544e-06
1.87486e-05
8.43417e-06
1.88481e-05
7.93441e-06
1.89531e-05
7.47052e-06
1.90251e-05
7.0825e-06
1.90652e-05
6.75764e-06
1.91454e-05
6.37354e-06
1.91897e-05
5.95205e-06
5.58301e-06
1.92296e-05
1.34119e-05
1.08307e-05
1.3892e-05
1.25399e-05
1.43919e-05
1.14953e-05
1.48577e-05
1.08441e-05
1.52957e-05
1.03182e-05
1.56819e-05
9.83128e-06
1.60092e-05
9.34521e-06
1.62863e-05
8.82135e-06
1.64949e-05
8.31486e-06
1.66423e-05
7.81822e-06
1.67374e-05
7.35166e-06
1.67922e-05
6.93009e-06
1.68221e-05
6.5373e-06
1.68149e-05
6.22627e-06
1.68417e-05
5.912e-06
1.69144e-05
5.52556e-06
1.69461e-05
5.1865e-06
4.85711e-06
1.69808e-05
1.19817e-05
9.25044e-06
1.24881e-05
1.05308e-05
1.29212e-05
9.61099e-06
1.33069e-05
9.0595e-06
1.36825e-05
8.59749e-06
1.40216e-05
8.19082e-06
1.43205e-05
7.79827e-06
1.45446e-05
7.3958e-06
1.47118e-05
6.9912e-06
1.4829e-05
6.59637e-06
1.49038e-05
6.21541e-06
1.49637e-05
5.8585e-06
1.49984e-05
5.53811e-06
1.50296e-05
5.27566e-06
1.50978e-05
4.9742e-06
1.51531e-05
4.64421e-06
1.51882e-05
4.37276e-06
4.09784e-06
1.52115e-05
1.08148e-05
7.53262e-06
1.12589e-05
8.5518e-06
1.16577e-05
7.73242e-06
1.20083e-05
7.2863e-06
1.23007e-05
6.93249e-06
1.25597e-05
6.60947e-06
1.27754e-05
6.3129e-06
1.29449e-05
6.00454e-06
1.30803e-05
5.68704e-06
1.31878e-05
5.36941e-06
1.328e-05
5.0532e-06
1.3359e-05
4.75952e-06
1.34111e-05
4.51363e-06
1.35027e-05
4.26084e-06
1.36097e-05
3.99185e-06
1.36736e-05
3.75142e-06
1.37205e-05
3.5434e-06
3.32822e-06
1.37512e-05
9.29923e-06
6.04529e-06
9.92935e-06
6.4235e-06
1.04658e-05
5.75267e-06
1.08754e-05
5.48682e-06
1.11828e-05
5.28608e-06
1.14128e-05
5.092e-06
1.15963e-05
4.89128e-06
1.17341e-05
4.68015e-06
1.18326e-05
4.45254e-06
1.18946e-05
4.22053e-06
1.19306e-05
3.98093e-06
1.19415e-05
3.7596e-06
1.19676e-05
3.54779e-06
1.20287e-05
3.30646e-06
1.20791e-05
3.09498e-06
1.21252e-05
2.9041e-06
1.217e-05
2.74117e-06
2.57454e-06
1.22094e-05
8.50304e-06
4.17199e-06
9.11933e-06
4.38913e-06
9.48953e-06
4.01637e-06
9.7477e-06
3.91363e-06
9.94275e-06
3.82466e-06
1.01164e-05
3.70004e-06
1.02826e-05
3.55486e-06
1.04415e-05
3.40002e-06
1.05868e-05
3.23391e-06
1.07012e-05
3.08109e-06
1.0775e-05
2.92936e-06
1.08063e-05
2.79728e-06
1.08429e-05
2.62646e-06
1.08555e-05
2.45361e-06
1.08526e-05
2.30228e-06
1.0846e-05
2.15722e-06
1.08426e-05
2.03307e-06
1.9093e-06
1.0836e-05
7.62488e-06
2.59497e-06
8.18001e-06
2.51963e-06
8.54646e-06
2.38396e-06
8.80272e-06
2.43871e-06
8.97192e-06
2.48193e-06
9.07552e-06
2.468e-06
9.14284e-06
2.40457e-06
9.19492e-06
2.31061e-06
9.23047e-06
2.20634e-06
9.25714e-06
2.10722e-06
9.26359e-06
2.0198e-06
9.26316e-06
1.93809e-06
9.2517e-06
1.82091e-06
9.21634e-06
1.71378e-06
9.17094e-06
1.61334e-06
9.11737e-06
1.5161e-06
9.06063e-06
1.43355e-06
1.35032e-06
9.00021e-06
6.93459e-06
1.14677e-06
7.37548e-06
8.79256e-07
7.58428e-06
1.01895e-06
7.65925e-06
1.25069e-06
7.65326e-06
1.41659e-06
7.5966e-06
1.49522e-06
7.51023e-06
1.50352e-06
7.40537e-06
1.46991e-06
7.29277e-06
1.4146e-06
7.1843e-06
1.35194e-06
7.0849e-06
1.29543e-06
6.99544e-06
1.24319e-06
6.89641e-06
1.17438e-06
6.7925e-06
1.11014e-06
6.68744e-06
1.04795e-06
6.58299e-06
9.85962e-07
6.48857e-06
9.28047e-07
8.88563e-07
6.38369e-06
6.21388e-06
-1.76428e-07
6.08393e-06
-7.3437e-08
5.76393e-06
2.94533e-07
5.42919e-06
5.79976e-07
5.1464e-06
7.31641e-07
4.91703e-06
7.94516e-07
4.73347e-06
7.94575e-07
4.58132e-06
7.66827e-07
4.44935e-06
7.28152e-07
4.3273e-06
6.91978e-07
4.21939e-06
6.57192e-07
4.12334e-06
6.28566e-07
4.0306e-06
5.91217e-07
3.94231e-06
5.56683e-07
3.85651e-06
5.25217e-07
3.77441e-06
4.92041e-07
3.70026e-06
4.57618e-07
4.42013e-07
3.63263e-06
4.04328e-06
2.97729e-06
2.31663e-06
1.97963e-06
1.83091e-06
1.78082e-06
1.76592e-06
1.75791e-06
1.74538e-06
1.73034e-06
1.71369e-06
1.70107e-06
1.68315e-06
1.66213e-06
1.64028e-06
1.61508e-06
1.58423e-06
1.56584e-06
-1.04678e-06
2.24976e-07
-2.17726e-06
3.12752e-07
-3.14946e-06
1.61189e-07
-3.88981e-06
-7.26774e-08
-4.28479e-06
-4.07901e-07
-4.31887e-06
-7.59427e-07
-3.99371e-06
-1.1069e-06
-3.37282e-06
-1.38879e-06
-2.58183e-06
-1.5435e-06
-1.68386e-06
-1.63308e-06
-7.83761e-07
-1.61691e-06
5.01237e-08
-1.52914e-06
9.38017e-07
-1.55885e-06
1.78277e-06
-1.49192e-06
2.4489e-06
-1.28668e-06
3.01657e-06
-1.15953e-06
3.53326e-06
-1.07575e-06
3.90553e-06
-8.9613e-07
4.1261e-06
-7.10846e-07
4.19864e-06
-5.27767e-07
4.12487e-06
-3.43345e-07
3.91584e-06
-1.68143e-07
3.5694e-06
8.34987e-09
3.0581e-06
2.10939e-07
2.43499e-06
3.64696e-07
1.66295e-06
5.51918e-07
7.46619e-07
7.36988e-07
-2.38356e-07
8.49425e-07
-1.36224e-06
1.0297e-06
-2.55496e-06
1.1427e-06
-3.58303e-06
1.02648e-06
-4.42304e-06
8.80939e-07
-4.95487e-06
5.95391e-07
-5.23748e-06
3.67038e-07
-5.42161e-06
3.02287e-07
-5.31371e-06
5.10587e-08
-4.99214e-06
-1.17102e-07
-4.59877e-06
-1.5127e-07
-4.11769e-06
-2.15075e-07
-3.62295e-06
-2.07982e-07
-3.16485e-06
-1.46614e-07
-2.5333e-06
-2.87427e-07
-1.81467e-06
-3.39338e-07
-1.42701e-06
2.59672e-08
-7.77136e-07
-2.0313e-07
2.05544e-08
-3.31815e-07
4.44949e-07
5.17422e-08
5.21253e-07
4.06712e-07
4.58156e-07
5.63405e-07
1.18168e-07
8.59116e-07
-8.74089e-07
1.52774e-06
-2.53842e-06
2.2161e-06
-4.46583e-06
2.49005e-06
-6.27746e-06
2.38601e-06
-7.91706e-06
2.231e-06
-9.38508e-06
2.07585e-06
-1.06727e-05
1.91092e-06
-1.17879e-05
1.75408e-06
-1.27515e-05
1.61815e-06
-1.35769e-05
1.49558e-06
-1.42647e-05
1.37374e-06
-1.48313e-05
1.26866e-06
-1.52806e-05
1.16802e-06
-1.56039e-05
1.05935e-06
-1.58151e-05
9.65821e-07
-1.59333e-05
8.9265e-07
-1.59894e-05
8.52114e-07
-1.60028e-05
8.32597e-07
-1.59805e-05
8.21995e-07
-1.59135e-05
8.04159e-07
-1.57863e-05
7.72799e-07
-1.55856e-05
7.3067e-07
-1.53221e-05
7.02571e-07
-1.50212e-05
7.03421e-07
-1.47153e-05
7.40263e-07
-1.43962e-05
7.72305e-07
-1.40345e-05
7.77646e-07
-1.36785e-05
8.34393e-07
-1.32934e-05
8.58708e-07
-1.29017e-05
9.07354e-07
-1.24543e-05
9.08045e-07
-1.19792e-05
9.39986e-07
-1.15739e-05
1.07772e-06
-1.1114e-05
1.08952e-06
-1.0566e-05
1.06351e-06
-1.01109e-05
1.22611e-06
-9.61259e-06
1.25084e-06
-9.10454e-06
1.30861e-06
-8.63308e-06
1.41446e-06
-8.13356e-06
1.45151e-06
-7.64172e-06
1.52308e-06
-7.15348e-06
1.58689e-06
-6.70089e-06
1.67805e-06
-6.24437e-06
1.72365e-06
-5.7963e-06
1.77459e-06
-5.34304e-06
1.8054e-06
-4.89363e-06
1.83838e-06
-4.45837e-06
1.87274e-06
-4.04602e-06
1.9092e-06
-3.62247e-06
1.9061e-06
-3.1522e-06
1.8589e-06
-2.70543e-06
1.87398e-06
-2.32061e-06
1.91999e-06
-1.98123e-06
1.9383e-06
-1.6657e-06
1.92475e-06
-1.38854e-06
1.91744e-06
-1.14715e-06
1.89777e-06
-9.47205e-07
1.87401e-06
-7.75669e-07
1.83263e-06
-7.16747e-07
1.86617e-06
-7.83602e-07
1.90956e-06
-9.57206e-07
1.92944e-06
-1.21634e-06
1.9261e-06
-1.50736e-06
1.86967e-06
-1.8756e-06
1.86033e-06
-2.18907e-06
1.72686e-06
-2.43058e-06
1.58116e-06
-2.57271e-06
1.40953e-06
-2.69232e-06
1.32457e-06
-2.82012e-06
1.2785e-06
-2.89531e-06
1.18073e-06
-2.87543e-06
1.0451e-06
-2.74638e-06
8.9054e-07
-2.43595e-06
6.65139e-07
-2.11384e-06
6.27373e-07
-1.84398e-06
6.63042e-07
-1.52835e-06
6.11929e-07
-1.26286e-06
6.63435e-07
-1.09327e-06
7.64142e-07
-1.29561e-06
1.15126e-06
-1.70565e-06
1.38904e-06
-2.12145e-06
1.42605e-06
-2.43585e-06
1.3601e-06
-2.42427e-06
1.07768e-06
-2.30736e-06
1.03422e-06
-2.24329e-06
1.15506e-06
-2.4229e-06
1.46542e-06
-3.18229e-06
2.11336e-06
-4.41636e-06
2.6614e-06
-5.85772e-06
2.94478e-06
-6.88269e-06
2.57117e-06
-7.4853e-06
2.17553e-06
-8.24299e-06
2.43931e-06
-9.26414e-06
2.81613e-06
-9.61653e-06
2.15761e-06
-9.9092e-06
2.12312e-06
-1.08467e-05
2.8551e-06
-1.196e-05
3.10672e-06
-1.16372e-05
1.7232e-06
-1.07271e-05
1.11496e-06
-9.99735e-06
1.28606e-06
-1.02821e-05
2.37929e-06
-1.01174e-05
1.9827e-06
-9.42767e-06
1.50052e-06
-9.48328e-06
2.29982e-06
-9.48065e-06
2.30701e-06
-8.74666e-06
1.65609e-06
-8.67426e-06
2.37961e-06
-8.2472e-06
2.10177e-06
-8.27468e-06
2.62899e-06
-8.48255e-06
2.8576e-06
-8.75153e-06
3.03739e-06
-8.79836e-06
2.86653e-06
-9.20024e-06
3.22675e-06
-8.42299e-06
2.07276e-06
-8.13477e-06
2.56516e-06
-8.7669e-06
3.49419e-06
-9.5011e-06
3.76353e-06
-8.98641e-06
2.7581e-06
-8.73869e-06
3.20246e-06
-9.21921e-06
4.07781e-06
-9.14856e-06
3.99625e-06
-7.6741e-06
2.9151e-06
-7.6276e-06
4.39844e-06
-7.07212e-06
5.12186e-06
-5.31843e-06
4.3809e-06
-4.49812e-06
5.18764e-06
2.05107e-06
1.20139e-07
4.46158e-06
4.54589e-06
5.33351e-06
6.18792e-06
-2.94883e-07
-2.88019e-07
-7.87016e-07
-1.12856e-08
-1.37268e-06
-6.4279e-08
-1.84634e-06
-3.99723e-07
-2.03588e-06
-1.00757e-06
-1.85494e-06
-1.71528e-06
-1.38152e-06
-2.33948e-06
-7.12173e-07
-2.80101e-06
4.66286e-08
-3.02998e-06
8.14445e-07
-3.10888e-06
1.62648e-06
-3.12008e-06
2.33767e-06
-2.91604e-06
3.00724e-06
-2.87154e-06
3.69088e-06
-2.7993e-06
4.18194e-06
-2.37971e-06
4.70944e-06
-2.26035e-06
5.19864e-06
-2.1109e-06
5.50701e-06
-1.70994e-06
5.79222e-06
-1.46574e-06
5.94235e-06
-1.12445e-06
5.97262e-06
-7.75934e-07
5.93286e-06
-4.93116e-07
5.76612e-06
-1.56951e-07
5.54241e-06
1.56152e-07
5.17189e-06
4.8891e-07
4.74206e-06
7.75365e-07
4.27042e-06
1.0484e-06
3.66913e-06
1.31377e-06
3.03091e-06
1.581e-06
2.38297e-06
1.74003e-06
1.51348e-06
1.8741e-06
5.76167e-07
1.85638e-06
-5.20915e-07
1.76648e-06
-1.82678e-06
1.77657e-06
-2.5446e-06
1.14566e-06
-2.87768e-06
5.17978e-07
-3.2705e-06
4.62816e-07
-3.10934e-06
-5.99552e-08
-2.45003e-06
-5.98869e-07
-1.83949e-06
-5.20128e-07
-1.288e-06
-3.65004e-07
-4.6346e-07
-7.29745e-07
7.7014e-07
-1.17307e-06
1.42564e-06
-2.16854e-07
7.72357e-07
8.87875e-07
-4.57744e-07
1.35222e-06
-2.1849e-06
2.26221e-06
-4.54107e-06
3.26319e-06
-7.20216e-06
3.71474e-06
-9.6603e-06
3.8201e-06
-1.15367e-05
3.92944e-06
-1.28405e-05
4.06332e-06
-1.38718e-05
4.08021e-06
-1.48713e-05
3.95914e-06
-1.57992e-05
3.74768e-06
-1.66245e-05
3.50531e-06
-1.73377e-05
3.24334e-06
-1.79282e-05
2.97853e-06
-1.84268e-05
2.7652e-06
-1.88087e-05
2.54105e-06
-1.90877e-05
2.33099e-06
-1.92684e-05
2.14258e-06
-1.93271e-05
1.93548e-06
-1.93077e-05
1.7645e-06
-1.9204e-05
1.60386e-06
-1.90479e-05
1.49692e-06
-1.88415e-05
1.42744e-06
-1.8605e-05
1.40249e-06
-1.83437e-05
1.39351e-06
-1.80501e-05
1.37062e-06
-1.76934e-05
1.3033e-06
-1.72824e-05
1.23466e-06
-1.68433e-05
1.20942e-06
-1.63799e-05
1.22275e-06
-1.59324e-05
1.31825e-06
-1.54869e-05
1.39845e-06
-1.49861e-05
1.3941e-06
-1.44915e-05
1.50505e-06
-1.39832e-05
1.56789e-06
-1.34709e-05
1.66787e-06
-1.29228e-05
1.68268e-06
-1.23759e-05
1.76324e-06
-1.18706e-05
2.01942e-06
-1.12576e-05
1.99441e-06
-1.06347e-05
2.00393e-06
-1.00818e-05
2.3091e-06
-9.47468e-06
2.34931e-06
-8.88983e-06
2.48623e-06
-8.29988e-06
2.66531e-06
-7.6744e-06
2.73276e-06
-7.09543e-06
2.91618e-06
-6.55522e-06
3.08738e-06
-5.97066e-06
3.19539e-06
-5.40334e-06
3.31737e-06
-4.86451e-06
3.44541e-06
-4.32393e-06
3.51187e-06
-3.77181e-06
3.57087e-06
-3.22514e-06
3.63521e-06
-2.6782e-06
3.67711e-06
-2.17899e-06
3.72261e-06
-1.67452e-06
3.66484e-06
-1.16515e-06
3.66401e-06
-7.307e-07
3.77569e-06
-4.14298e-07
3.8948e-06
-1.70726e-07
3.92203e-06
2.27313e-08
3.92829e-06
1.72565e-07
3.90642e-06
2.54678e-07
3.89514e-06
2.92674e-07
3.83956e-06
2.99321e-07
3.83665e-06
2.14056e-07
3.89977e-06
5.29719e-08
3.91534e-06
-1.68213e-07
3.88857e-06
-3.89643e-07
3.75361e-06
-6.35235e-07
3.68515e-06
-8.94832e-07
3.46974e-06
-1.10691e-06
3.18002e-06
-1.19755e-06
2.78248e-06
-1.21915e-06
2.54008e-06
-1.17136e-06
2.36003e-06
-1.07071e-06
2.1686e-06
-1.08074e-06
2.11542e-06
-1.11681e-06
1.94472e-06
-9.3886e-07
1.44047e-06
-5.79342e-07
1.18246e-06
-1.13589e-07
1.09157e-06
4.69091e-07
9.21482e-07
1.16438e-06
8.73717e-07
1.96623e-06
8.87679e-07
2.63856e-06
1.4482e-06
2.80287e-06
2.25923e-06
2.5098e-06
2.80119e-06
2.01199e-06
2.97904e-06
1.63082e-06
2.6063e-06
1.18613e-06
2.66896e-06
9.8255e-08
3.48503e-06
-1.81801e-06
4.67725e-06
-4.22413e-06
5.88389e-06
-6.55537e-06
6.44598e-06
-8.39851e-06
6.2581e-06
-9.24379e-06
4.81445e-06
-9.80747e-06
4.14961e-06
-1.07657e-05
5.08993e-06
-1.20955e-05
6.0091e-06
-1.22052e-05
3.90654e-06
-1.1849e-05
3.37249e-06
-1.19305e-05
4.73142e-06
-1.29952e-05
6.22551e-06
-1.29486e-05
3.87e-06
-1.11812e-05
1.26696e-06
-9.32436e-06
1.08846e-06
-9.19104e-06
4.1224e-06
-8.8424e-06
3.70157e-06
-7.38744e-06
2.09336e-06
-6.99801e-06
4.00943e-06
-6.67087e-06
4.19309e-06
-5.60681e-06
2.91268e-06
-5.3879e-06
4.56954e-06
-4.79733e-06
4.00669e-06
-5.29437e-06
5.75221e-06
-5.63763e-06
5.91084e-06
-5.83726e-06
6.22532e-06
-6.68429e-06
6.84627e-06
-7.51204e-06
7.09327e-06
-6.38915e-06
3.80594e-06
-5.4055e-06
4.38923e-06
-6.23704e-06
7.17088e-06
-6.95467e-06
7.55076e-06
-5.77613e-06
5.01244e-06
-5.30895e-06
6.45648e-06
-6.66483e-06
9.33035e-06
-7.74576e-06
9.66132e-06
-7.95971e-06
7.90505e-06
-9.87089e-06
1.09989e-05
-8.75888e-06
1.09384e-05
-6.51445e-06
9.20927e-06
-5.0104e-06
1.08736e-05
3.15666e-06
-1.22902e-06
7.17418e-06
8.1521e-06
1.07527e-05
9.95742e-06
-1.72081e-07
-8.99944e-07
-2.41302e-07
-7.23947e-07
-3.83669e-07
-7.08944e-07
-3.46105e-07
-1.21055e-06
2.33158e-08
-2.13085e-06
6.23295e-07
-3.05368e-06
1.32238e-06
-3.76461e-06
1.96835e-06
-4.15894e-06
2.57144e-06
-4.33349e-06
3.04947e-06
-4.27811e-06
3.49106e-06
-4.22356e-06
3.989e-06
-4.07801e-06
4.28298e-06
-3.7969e-06
4.68881e-06
-3.81109e-06
5.07395e-06
-3.36091e-06
5.41727e-06
-3.16228e-06
5.77259e-06
-3.00592e-06
5.96598e-06
-2.40126e-06
6.16477e-06
-2.14148e-06
6.27371e-06
-1.66577e-06
6.24207e-06
-1.14214e-06
6.14148e-06
-7.68476e-07
5.93999e-06
-2.67502e-07
5.69605e-06
1.17658e-07
5.41984e-06
5.22161e-07
5.10663e-06
9.02364e-07
4.80028e-06
1.1866e-06
4.44179e-06
1.55724e-06
4.07777e-06
1.8601e-06
3.64525e-06
2.10452e-06
3.19254e-06
2.33439e-06
2.64654e-06
2.43277e-06
1.85299e-06
2.60305e-06
1.26111e-06
2.47071e-06
5.87105e-07
1.96287e-06
-5.30497e-07
1.80053e-06
-1.01049e-06
1.13091e-06
-1.28948e-06
4.41028e-07
-1.80878e-06
1.8976e-07
-1.24655e-06
-7.68882e-07
-1.54141e-07
-1.12226e-06
-3.58684e-07
-1.46314e-07
-2.04583e-06
9.31667e-07
-3.97107e-06
2.16839e-06
-6.40575e-06
3.74359e-06
-9.05345e-06
4.38963e-06
-1.10544e-05
4.69264e-06
-1.23566e-05
5.03913e-06
-1.33719e-05
5.21484e-06
-1.44114e-05
5.35809e-06
-1.53803e-05
5.41247e-06
-1.61314e-05
5.34446e-06
-1.66614e-05
5.15449e-06
-1.70811e-05
4.93805e-06
-1.74388e-05
4.67936e-06
-1.77554e-05
4.41057e-06
-1.80273e-05
4.11853e-06
-1.82679e-05
3.83686e-06
-1.84446e-05
3.57425e-06
-1.85854e-05
3.32838e-06
-1.86781e-05
3.0855e-06
-1.87038e-05
2.84393e-06
-1.86855e-05
2.60639e-06
-1.85967e-05
2.3774e-06
-1.84539e-05
2.1746e-06
-1.82432e-05
2.01425e-06
-1.79955e-05
1.92574e-06
-1.77097e-05
1.88747e-06
-1.73859e-05
1.87195e-06
-1.7046e-05
1.86688e-06
-1.6693e-05
1.81994e-06
-1.63065e-05
1.74714e-06
-1.5906e-05
1.7353e-06
-1.54847e-05
1.75995e-06
-1.50388e-05
1.87427e-06
-1.46138e-05
2.02623e-06
-1.41293e-05
2.00838e-06
-1.36753e-05
2.19386e-06
-1.31816e-05
2.26345e-06
-1.27047e-05
2.44482e-06
-1.22115e-05
2.50157e-06
-1.17337e-05
2.63606e-06
-1.11975e-05
2.89953e-06
-1.06615e-05
2.94143e-06
-1.01164e-05
2.98862e-06
-9.56133e-06
3.34601e-06
-8.99355e-06
3.43808e-06
-8.43312e-06
3.62608e-06
-7.85936e-06
3.86054e-06
-7.24254e-06
3.94357e-06
-6.63067e-06
4.18451e-06
-6.03048e-06
4.43709e-06
-5.42006e-06
4.58485e-06
-4.80777e-06
4.76451e-06
-4.18184e-06
4.94724e-06
-3.56455e-06
5.0555e-06
-3.01207e-06
5.21057e-06
-2.46578e-06
5.33005e-06
-1.99831e-06
5.48632e-06
-1.59311e-06
5.60334e-06
-1.09114e-06
5.43465e-06
-4.91527e-07
5.31034e-06
1.72278e-07
5.33704e-06
6.19744e-07
5.66105e-06
1.0147e-06
5.70226e-06
1.31845e-06
5.75521e-06
1.50754e-06
5.7903e-06
1.61371e-06
5.81581e-06
1.68224e-06
5.72996e-06
1.67682e-06
5.73493e-06
1.61127e-06
5.77986e-06
1.482e-06
5.78807e-06
1.34468e-06
5.69427e-06
1.23754e-06
5.449e-06
1.11426e-06
5.3359e-06
9.43284e-07
5.11285e-06
7.16983e-07
4.80098e-06
4.41518e-07
4.3413e-06
1.86221e-07
3.9655e-06
8.45687e-08
3.53277e-06
1.97067e-07
3.07154e-06
2.90433e-07
3.01861e-06
1.67071e-07
3.05048e-06
-9.71097e-08
2.67338e-06
-1.8237e-07
2.20565e-06
2.05117e-08
1.79197e-06
4.73948e-07
1.35898e-06
1.10435e-06
1.12681e-06
2.07749e-06
8.00232e-07
3.42218e-06
1.06145e-06
3.95425e-06
2.77052e-06
4.04639e-06
3.80322e-06
3.60677e-06
4.55226e-06
2.75321e-06
4.61471e-06
1.5368e-06
5.07307e-06
-2.85484e-07
6.54441e-06
-2.82627e-06
8.51802e-06
-5.45848e-06
9.91017e-06
-7.89451e-06
1.03981e-05
-9.62725e-06
9.51476e-06
-1.04627e-05
7.0264e-06
-1.13605e-05
6.45751e-06
-1.22701e-05
7.83791e-06
-1.3772e-05
9.29821e-06
-1.45381e-05
6.04005e-06
-1.38332e-05
4.21404e-06
-1.2261e-05
4.92073e-06
-1.24151e-05
8.63928e-06
-1.32569e-05
7.17047e-06
-1.17253e-05
1.57559e-06
-9.82228e-06
6.22997e-07
-9.11809e-06
5.18722e-06
-8.98946e-06
5.65202e-06
-7.24614e-06
2.23157e-06
-6.45087e-06
5.08402e-06
-5.99525e-06
5.78267e-06
-4.51313e-06
3.49748e-06
-3.65041e-06
5.8883e-06
-2.08546e-06
4.75279e-06
-2.7661e-06
8.86709e-06
-3.56172e-06
9.20532e-06
-3.0778e-06
8.68006e-06
-4.78743e-06
1.19505e-05
-7.08908e-06
1.27093e-05
-6.06965e-06
5.65137e-06
-4.17307e-06
5.23263e-06
-4.90936e-06
1.09097e-05
-6.25086e-06
1.18941e-05
-4.94561e-06
6.65434e-06
-3.18651e-06
7.68836e-06
-4.65134e-06
1.44218e-05
-6.43146e-06
1.61929e-05
-7.48324e-06
1.40064e-05
-9.38731e-06
1.78811e-05
-8.88286e-06
1.6929e-05
-6.73857e-06
1.38075e-05
-4.35021e-06
1.63995e-05
2.77963e-06
-1.95401e-06
6.89419e-06
1.11662e-05
1.5448e-05
1.01877e-05
-4.3721e-07
-1.21961e-06
-5.68179e-07
-1.32632e-06
-3.926e-07
-1.6092e-06
2.50751e-07
-2.56083e-06
1.17859e-06
-3.75574e-06
2.08858e-06
-4.65501e-06
2.79239e-06
-5.15457e-06
3.24422e-06
-5.29901e-06
3.50512e-06
-5.26661e-06
3.73526e-06
-5.18505e-06
3.85493e-06
-4.99784e-06
4.11293e-06
-4.96949e-06
4.43387e-06
-4.75529e-06
4.72973e-06
-4.69584e-06
5.17559e-06
-4.40942e-06
5.50039e-06
-4.0235e-06
5.84948e-06
-3.88588e-06
6.05491e-06
-3.11552e-06
6.24576e-06
-2.77655e-06
6.33792e-06
-2.19846e-06
6.2073e-06
-1.40243e-06
6.10998e-06
-1.02341e-06
5.84383e-06
-3.10215e-07
5.44086e-06
2.50731e-07
5.07304e-06
6.60692e-07
4.65199e-06
1.13767e-06
4.24526e-06
1.43632e-06
3.96584e-06
1.72394e-06
3.62053e-06
2.13854e-06
3.23438e-06
2.45285e-06
3.04003e-06
2.49608e-06
2.81007e-06
2.68713e-06
2.53828e-06
2.96909e-06
2.14152e-06
2.96135e-06
1.12213e-06
3.11183e-06
4.49292e-07
2.65633e-06
1.80315e-07
1.60658e-06
-6.62378e-07
1.51551e-06
-1.06692e-06
8.5324e-07
-1.35998e-06
-1.76563e-07
-2.80026e-06
7.00755e-07
-5.23982e-06
2.71417e-06
-8.19711e-06
4.24123e-06
-1.05486e-05
4.84963e-06
-1.17738e-05
5.37034e-06
-1.2797e-05
5.82496e-06
-1.38641e-05
6.18571e-06
-1.47072e-05
6.32839e-06
-1.53552e-05
6.32658e-06
-1.58447e-05
6.3257e-06
-1.62086e-05
6.26911e-06
-1.64943e-05
6.13721e-06
-1.67604e-05
5.94331e-06
-1.69894e-05
5.70417e-06
-1.7197e-05
5.43879e-06
-1.73849e-05
5.16415e-06
-1.75542e-05
4.86872e-06
-1.77158e-05
4.59174e-06
-1.78377e-05
4.30456e-06
-1.79158e-05
4.02925e-06
-1.79555e-05
3.76318e-06
-1.79474e-05
3.49022e-06
-1.7893e-05
3.21961e-06
-1.77989e-05
2.96379e-06
-1.76618e-05
2.72812e-06
-1.74995e-05
2.55207e-06
-1.72756e-05
2.41525e-06
-1.69806e-05
2.32406e-06
-1.66294e-05
2.27444e-06
-1.62353e-05
2.25622e-06
-1.58243e-05
2.22826e-06
-1.54122e-05
2.1884e-06
-1.50008e-05
2.21005e-06
-1.45813e-05
2.25639e-06
-1.41244e-05
2.36952e-06
-1.36725e-05
2.57575e-06
-1.31801e-05
2.57017e-06
-1.27501e-05
2.86923e-06
-1.22696e-05
2.92601e-06
-1.17942e-05
3.17939e-06
-1.13409e-05
3.32826e-06
-1.0883e-05
3.50692e-06
-1.03483e-05
3.75517e-06
-9.86292e-06
3.91581e-06
-9.37537e-06
4.02005e-06
-8.86072e-06
4.41353e-06
-8.36731e-06
4.59249e-06
-7.86169e-06
4.82039e-06
-7.35422e-06
5.11305e-06
-6.83644e-06
5.24133e-06
-6.23148e-06
5.42969e-06
-5.62472e-06
5.74709e-06
-5.01294e-06
5.93813e-06
-4.36756e-06
6.10168e-06
-3.76447e-06
6.39198e-06
-3.18377e-06
6.58133e-06
-2.60655e-06
6.75079e-06
-1.98018e-06
6.82514e-06
-1.32115e-06
6.98952e-06
-7.68503e-07
7.2724e-06
-4.43994e-07
7.35518e-06
-2.46184e-08
7.10887e-06
4.60903e-07
7.0305e-06
9.51722e-07
7.35e-06
1.32907e-06
7.47799e-06
1.7023e-06
7.48725e-06
2.05144e-06
7.47326e-06
2.34818e-06
7.48781e-06
2.57087e-06
7.40378e-06
2.68954e-06
7.43723e-06
2.77183e-06
7.43995e-06
2.79637e-06
7.43487e-06
2.74308e-06
7.33466e-06
2.66581e-06
6.99039e-06
2.67439e-06
6.7031e-06
2.67018e-06
6.47637e-06
2.55587e-06
6.25475e-06
2.24574e-06
5.9376e-06
1.75046e-06
5.72047e-06
1.29703e-06
5.19861e-06
1.0805e-06
4.42395e-06
1.05979e-06
4.11206e-06
1.16577e-06
4.00865e-06
1.09378e-06
3.84635e-06
8.29242e-07
3.567e-06
7.07176e-07
2.96214e-06
8.72218e-07
2.21611e-06
1.23864e-06
1.75009e-06
2.14705e-06
8.75726e-07
3.46365e-06
8.08798e-07