/*--------------------------------*- C++ -*----------------------------------*\
| =========                 |                                                 |
| \\      /  F ield         | OpenFOAM: The Open Source CFD Toolbox           |
|  \\    /   O peration     | Version:  dev                                   |
|   \\  /    A nd           | Web:      http://www.openfoam.org               |
|    \\/     M anipulation  |                                                 |
\*---------------------------------------------------------------------------*/
FoamFile
{
    version     2.0;
    format      ascii;
    class       volScalarField;
    object      pMean;
    location    "9.166";
}
// * * * * * * * * * * * * * * * * * * * * * * * * * * * * * * * * * * * * * //

dimensions      [1 -1 -2 0 0 0 0];

internalField   nonuniform List<scalar> 
12225
(
98310.4
98290.6
98276.9
98269.9
98255.6
98246.2
98227.8
98218.2
98196.7
98188
98163.3
98156.4
98125.5
98119.2
98078.4
98038.7
97949.6
97583.7
98305.9
98289.6
98276.3
98269.4
98255
98245.7
98227.1
98217.7
98196
98187.6
98162.6
98155.9
98125.1
98117.2
98076.7
98042.8
97950.5
97789.5
98302.2
98288
98275.3
98268
98253.6
98244.2
98225.6
98216.3
98194.6
98186.1
98161.7
98153.9
98125.7
98113.9
98079
98043.7
97976.3
97887.6
98297.1
98285.1
98273.2
98265.5
98251.2
98241.5
98223.5
98213.6
98192.8
98183.4
98160.4
98150.8
98124.6
98111.6
98079.9
98052.1
98003.6
97934.8
98290.5
98280.7
98269.7
98261.5
98247.6
98237.4
98220.5
98209.5
98190.4
98179.1
98158.9
98146.2
98124.8
98108.4
98081.8
98057.6
98017.8
97985.1
98282.2
98274.5
98263.8
98255.5
98242
98231.4
98215.4
98203.7
98186
98173.8
98155.7
98142.1
98123.7
98106.7
98085.4
98060.1
98038
98017.6
98271.9
98265.6
98255.3
98246.8
98234.2
98223.1
98208.3
98195.7
98180
98166.4
98151.1
98136
98121.5
98103.9
98089.6
98068.6
98058.3
98043.4
98261.2
98255.6
98245.9
98237.2
98225.5
98214
98200.4
98187.2
98173.2
98158.9
98145.8
98130.2
98118.6
98101.3
98092.6
98074.8
98073.1
98058.1
98250.4
98245
98236.2
98227.2
98216.4
98204.6
98192.1
98178.6
98166
98151.4
98140
98124.5
98114.8
98098.8
98092.5
98078.3
98078.1
98066.1
98236.8
98231.4
98223.7
98214.6
98204.7
98192.9
98181.4
98167.9
98156.7
98142.1
98132.2
98117.2
98109.1
98094.7
98089.7
98077.9
98077.1
98068.9
98219.9
98214.4
98207.9
98199.1
98190
98178.5
98167.7
98154.8
98144.3
98130.7
98121.3
98108.2
98100.2
98088.7
98083
98074.5
98071.8
98066.6
98199.4
98193.7
98188.4
98180
98171.6
98160.6
98150.7
98138.4
98128.8
98116.3
98107.6
98096.1
98088.6
98079.3
98073.6
98067.2
98063.6
98060
98174.6
98169.3
98164.8
98157.3
98149.3
98139.4
98129.9
98119.1
98109.8
98099.2
98090.7
98081.4
98074.2
98067
98061.5
98056.7
98053.1
98050.3
98146.4
98141.6
98137.6
98131.1
98123.8
98114.9
98106.3
98096.8
98088.3
98079.3
98071.6
98064
98057.6
98051.9
98047.2
98043.4
98040.4
98038.3
98116.3
98112.6
98108.8
98103.4
98096.9
98089.3
98081.5
98073.4
98065.8
98058.4
98051.6
98045.5
98040.2
98035.7
98032
98029
98026.8
98025.3
98088.7
98085.9
98082.5
98078
98072.4
98065.9
98059.1
98052.2
98045.7
98039.5
98033.9
98028.9
98024.6
98021
98018.2
98016
98014.4
98013.5
98070.1
98068.1
98065.4
98061.5
98056.5
98050.8
98044.9
98038.9
98033.3
98028
98023.2
98019.1
98015.5
98012.6
98010.3
98008.6
98007.4
98006.8
98070.3
98068.7
98066.1
98062.4
98057.6
98052.3
98046.7
98041.2
98035.8
98030.9
98026.4
98022.4
98019.1
98016.3
98014
98012.3
98011.1
98010.4
98090
98088.2
98085.3
98081.4
98076.4
98070.9
98065.1
98059.3
98053.7
98048.5
98043.7
98039.4
98035.7
98032.5
98029.8
98027.7
98026
98024.8
98120.8
98118.6
98115.2
98110.7
98105.3
98099.2
98092.9
98086.5
98080.4
98074.6
98069.2
98064.2
98059.8
98056
98052.6
98049.8
98047.4
98045.5
98155.5
98152.9
98148.9
98143.7
98137.6
98131
98124
98117
98110.2
98103.7
98097.5
98091.9
98086.7
98082.1
98078
98074.4
98071.3
98068.6
98189.4
98186.3
98181.5
98175.7
98169
98161.7
98154.2
98146.6
98139.1
98131.9
98125.1
98118.7
98112.9
98107.5
98102.7
98098.4
98094.5
98091.1
98219.6
98215.9
98210.4
98203.9
98196.6
98188.9
98180.9
98172.8
98164.7
98157
98149.6
98142.6
98136.1
98130.1
98124.7
98119.7
98115.3
98111.2
98244.8
98240.5
98234.2
98227.1
98219.4
98211.3
98202.9
98194.4
98186
98177.7
98169.9
98162.4
98155.4
98148.9
98143
98137.5
98132.5
98128
98265.1
98259.9
98252.7
98245.1
98237.1
98228.7
98220.1
98211.3
98202.5
98194
98185.7
98177.9
98170.5
98163.7
98157.3
98151.5
98146.1
98141.2
98280.7
98274.4
98266.3
98258.2
98250
98241.5
98232.7
98223.8
98214.8
98206
98197.5
98189.4
98181.7
98174.6
98167.9
98161.8
98156.1
98151
98292.5
98284.6
98275.6
98267.1
98258.8
98250.3
98241.5
98232.4
98223.3
98214.3
98205.7
98197.4
98189.6
98182.2
98175.4
98169
98163.2
98157.8
98301.2
98291.4
98281.3
98272.7
98264.4
98255.9
98247.1
98237.9
98228.8
98219.7
98211
98202.6
98194.6
98187.1
98180.2
98173.7
98167.7
98162.2
98307.3
98295.2
98284
98275.4
98267.4
98259
98250.3
98241.2
98231.9
98222.8
98214
98205.5
98197.5
98190
98182.9
98176.4
98170.3
98164.7
98313.2
98297.7
98285.6
98276.8
98268.6
98260.3
98251.5
98242.4
98233.2
98224.1
98215.3
98206.8
98198.7
98191.1
98184.1
98177.5
98171.4
98165.8
98310.3
98309.9
98309.1
98308
98306.5
98304.7
98302.4
98299.8
98296.8
98293.3
98289.5
98285.2
98280.6
98275.7
98270.5
98265
98259.3
98253.4
98247.3
98241.1
98234.6
98228.1
98221.4
98214.6
98207.7
98200.7
98193.7
98186.6
98179.6
98172.5
98165.4
98158.3
98151.3
98144.3
98137.5
98130.7
98124.1
98117.6
98111.3
98105.2
98099.2
98093.6
98088.1
98083
98078.2
98073.7
98069.6
98065.9
98062.6
98059.7
98057.4
98055.5
98054.1
98053.2
98052.9
98053.3
98054.2
98055.9
98058.1
98061.1
98064.8
98069.1
98074.2
98080.1
98086.6
98093.8
98101.8
98110.4
98119.8
98129.7
98140.3
98151.5
98163.3
98175.5
98188.3
98201.5
98215.1
98229.1
98243.4
98258
98272.8
98287.8
98302.9
98318.2
98333.4
98348.7
98363.9
98378.9
98393.8
98408.5
98423
98437.1
98450.9
98464.2
98477.1
98489.5
98501.4
98512.8
98523.5
98533.7
98543.2
98552.1
98560.3
98567.9
98574.8
98581.1
98586.9
98592
98596.6
98600.7
98604.4
98607.6
98610.5
98613
98615.2
98617.1
98618.7
98620.2
98621.4
98622.6
98623.7
98624.7
98625.9
98627.2
98628.8
98630.8
98633.5
98636.9
98641.3
98647
98654.1
98662.8
98673.5
98686.3
98701.7
98719.7
98740.5
98764.3
98791.1
98820.9
98853.9
98889.8
98928.7
98970.2
99014.5
99061.1
99110.1
99160.8
99213.4
99267.6
99323.1
99379.5
99436.5
99493.9
99551.2
99607.8
99663.2
99717.1
99768.1
99816
99859.6
99898
99930.1
99955.2
99972.1
99979.7
99977.1
99964.2
99940.2
99905.7
99860.4
99805.6
99741.8
99671.1
99594.1
99513.6
99429
99344.3
99257.4
99174.2
98303.3
98303
98302.2
98301
98299.5
98297.6
98295.4
98292.8
98289.8
98286.4
98282.6
98278.5
98274
98269.2
98264.1
98258.8
98253.3
98247.6
98241.7
98235.6
98229.3
98223
98216.4
98209.8
98203.1
98196.3
98189.4
98182.5
98175.6
98168.7
98161.7
98154.8
98148
98141.2
98134.5
98127.8
98121.3
98115
98108.8
98102.8
98097
98091.4
98086.1
98081.1
98076.3
98071.9
98067.9
98064.2
98061
98058.1
98055.8
98053.8
98052.4
98051.6
98051.3
98051.6
98052.5
98054
98056.2
98059.1
98062.7
98067
98071.9
98077.6
98084
98091.1
98098.9
98107.4
98116.6
98126.4
98136.8
98147.7
98159.3
98171.4
98183.9
98196.9
98210.3
98224
98238.1
98252.5
98267
98281.8
98296.7
98311.6
98326.6
98341.6
98356.5
98371.3
98385.9
98400.3
98414.4
98428.3
98441.8
98454.8
98467.4
98479.6
98491.2
98502.3
98512.8
98522.7
98531.9
98540.6
98548.6
98556
98562.8
98568.9
98574.5
98579.5
98584
98588
98591.6
98594.7
98597.5
98599.9
98602.1
98603.9
98605.5
98606.9
98608.1
98609.1
98610.1
98611.1
98612.2
98613.3
98614.8
98616.6
98619.1
98622.2
98626.3
98631.6
98638.3
98646.6
98656.8
98669.1
98683.8
98701.2
98721.3
98744.3
98770.2
98799.2
98831.2
98866.1
98903.9
98944.3
98987.6
99033
99080.8
99130.3
99181.8
99234.8
99289.1
99344.4
99400.3
99456.6
99512.9
99568.5
99623
99676
99726.4
99773.7
99816.8
99855
99887
99912.2
99929.4
99937.6
99935.9
99924
99901.4
99868.3
99824.6
99771.6
99709.5
99640.6
99565.4
99486.6
99403.7
99320.5
99234.6
99149.6
98290.7
98290.3
98289.5
98288.3
98286.7
98284.8
98282.5
98279.8
98276.8
98273.4
98269.7
98265.7
98261.3
98256.7
98251.9
98246.9
98241.6
98236.2
98230.7
98225
98219.1
98213.1
98207
98200.7
98194.4
98187.9
98181.4
98174.8
98168.1
98161.5
98154.8
98148.2
98141.6
98135.1
98128.6
98122.2
98116
98109.9
98103.9
98098.1
98092.5
98087.1
98082
98077.1
98072.5
98068.2
98064.3
98060.7
98057.5
98054.7
98052.3
98050.4
98048.9
98048
98047.6
98047.8
98048.6
98050.1
98052.1
98054.9
98058.2
98062.3
98067.1
98072.5
98078.6
98085.5
98093
98101.2
98110
98119.5
98129.5
98140.1
98151.3
98163
98175.1
98187.7
98200.7
98214
98227.6
98241.5
98255.6
98269.9
98284.3
98298.8
98313.3
98327.7
98342.1
98356.3
98370.4
98384.3
98397.9
98411.1
98424.1
98436.6
98448.6
98460.2
98471.3
98481.8
98491.8
98501.2
98510
98518.3
98525.9
98532.9
98539.3
98545.2
98550.5
98555.2
98559.5
98563.3
98566.7
98569.6
98572.3
98574.5
98576.5
98578.3
98579.7
98581
98582
98582.9
98583.8
98584.5
98585.3
98586.2
98587.3
98588.7
98590.6
98593.2
98596.7
98601.2
98607.1
98614.5
98623.7
98634.9
98648.4
98664.4
98683
98704.4
98728.7
98755.8
98785.9
98818.8
98854.5
98892.8
98933.7
98976.9
99022.3
99069.5
99118.6
99169.3
99221.3
99274.2
99327.9
99382.1
99436.1
99489.8
99542.4
99593.6
99642.4
99688.3
99730.3
99767.7
99799.2
99824.3
99841.9
99850.8
99850.4
99840.4
99820
99789.6
99749
99699.4
99640.8
99575.7
99504.1
99428.8
99349.3
99269.3
99186.3
99102.3
98273.2
98272.9
98272.1
98270.9
98269.3
98267.4
98265
98262.3
98259.3
98256
98252.4
98248.5
98244.4
98240
98235.5
98230.8
98225.9
98220.9
98215.7
98210.4
98205
98199.5
98193.8
98188
98182.2
98176.2
98170.1
98164
98157.9
98151.7
98145.5
98139.3
98133.1
98127
98120.9
98114.9
98109
98103.2
98097.5
98092
98086.7
98081.5
98076.5
98071.8
98067.4
98063.3
98059.4
98056
98052.9
98050.1
98047.8
98045.8
98044.4
98043.4
98042.9
98043
98043.7
98044.9
98046.8
98049.3
98052.4
98056.2
98060.6
98065.7
98071.4
98077.9
98085
98092.7
98101.1
98110.1
98119.7
98129.8
98140.4
98151.6
98163.2
98175.2
98187.5
98200.2
98213.2
98226.4
98239.9
98253.5
98267.2
98280.9
98294.7
98308.4
98322.1
98335.6
98348.9
98362.1
98374.9
98387.4
98399.6
98411.3
98422.6
98433.4
98443.8
98453.6
98462.9
98471.6
98479.8
98487.4
98494.5
98500.9
98506.9
98512.3
98517.1
98521.5
98525.5
98528.9
98532.1
98534.8
98537.2
98539.3
98541.1
98542.6
98543.9
98544.9
98545.8
98546.5
98547
98547.4
98547.8
98548.2
98548.8
98549.7
98550.9
98552.7
98555.3
98558.8
98563.5
98569.6
98577.4
98587
98598.8
98612.8
98629.4
98648.6
98670.5
98695.2
98722.6
98752.8
98785.5
98820.8
98858.8
98898.8
98941
98985.1
99031
99078.4
99127.2
99177.1
99227.7
99278.9
99330.1
99381
99431
99479.8
99526.4
99570.4
99610.8
99646.9
99677.5
99702.3
99720.1
99729.8
99730.8
99722.8
99705.1
99678
99641.3
99596
99542.1
99481.8
99415
99344.6
99269.8
99194.2
99115.4
99035.3
98252.1
98251.8
98251.1
98249.9
98248.4
98246.5
98244.2
98241.6
98238.7
98235.5
98232
98228.3
98224.3
98220.2
98216
98211.6
98207
98202.4
98197.7
98192.8
98187.9
98182.9
98177.7
98172.5
98167.1
98161.7
98156.2
98150.6
98145.1
98139.4
98133.8
98128.2
98122.5
98116.9
98111.3
98105.8
98100.4
98095
98089.8
98084.7
98079.7
98074.8
98070.2
98065.7
98061.5
98057.6
98053.9
98050.6
98047.6
98044.9
98042.6
98040.6
98039.1
98038.1
98037.5
98037.4
98037.9
98039
98040.6
98042.7
98045.5
98048.9
98052.9
98057.6
98062.9
98068.8
98075.4
98082.6
98090.4
98098.8
98107.7
98117.2
98127.2
98137.6
98148.5
98159.8
98171.4
98183.3
98195.5
98207.9
98220.5
98233.2
98246
98258.9
98271.7
98284.6
98297.3
98309.9
98322.3
98334.5
98346.4
98358
98369.2
98380
98390.4
98400.3
98409.7
98418.6
98427.1
98435
98442.4
98449.2
98455.6
98461.4
98466.7
98471.5
98475.9
98479.8
98483.3
98486.4
98489.2
98491.6
98493.7
98495.5
98497.1
98498.4
98499.4
98500.1
98500.7
98501
98501.2
98501.2
98501.1
98501
98500.9
98501
98501.4
98502.2
98503.7
98505.9
98509.2
98513.8
98519.8
98527.5
98537.1
98548.9
98563
98579.6
98598.6
98620.2
98644.5
98671.3
98700.6
98732.3
98766.5
98802.9
98841.2
98881.5
98923.6
98967.2
99012.3
99058.4
99105.3
99153
99200.7
99248.2
99295
99340.8
99384.8
99426.4
99464.8
99499.2
99528.7
99552.8
99570.6
99580.9
99583.3
99577.4
99562.8
99539.4
99507.1
99466.7
99418.2
99363.6
99302.6
99238.2
99169.2
99099.3
99026
98951.3
98228.7
98228.4
98227.8
98226.8
98225.3
98223.5
98221.4
98219
98216.2
98213.2
98209.9
98206.4
98202.7
98198.8
98194.9
98190.8
98186.6
98182.3
98178
98173.6
98169.1
98164.5
98159.8
98155.1
98150.3
98145.4
98140.5
98135.6
98130.6
98125.6
98120.6
98115.5
98110.5
98105.5
98100.5
98095.5
98090.6
98085.8
98081
98076.4
98071.8
98067.4
98063.1
98059
98055
98051.3
98047.9
98044.7
98041.8
98039.2
98036.9
98035
98033.5
98032.4
98031.7
98031.4
98031.7
98032.5
98033.8
98035.7
98038.1
98041
98044.6
98048.7
98053.5
98058.8
98064.8
98071.3
98078.5
98086.1
98094.3
98103.1
98112.3
98121.9
98131.9
98142.3
98153
98164
98175.3
98186.7
98198.3
98210.1
98221.9
98233.7
98245.5
98257.3
98268.9
98280.4
98291.8
98302.9
98313.7
98324.2
98334.3
98344.1
98353.4
98362.3
98370.7
98378.7
98386.1
98393.2
98399.7
98405.7
98411.2
98416.2
98420.9
98425.1
98428.8
98432.1
98435.1
98437.8
98440.1
98442.2
98443.9
98445.4
98446.6
98447.5
98448.2
98448.6
98448.8
98448.8
98448.5
98448
98447.3
98446.5
98445.8
98445
98444.4
98444.1
98444.2
98445.1
98446.8
98449.5
98453.5
98459.1
98466.3
98475.6
98486.9
98500.5
98516.3
98534.6
98555.3
98578.4
98603.8
98631.5
98661.6
98693.9
98728
98764.2
98802
98841.4
98882.3
98924.3
98967.2
99010.8
99054.6
99098.4
99141.7
99184.1
99225
99263.9
99299.9
99332.3
99360.3
99383.5
99401
99411.7
99415.4
99411.7
99400
99380.6
99352.8
99317.7
99274.9
99226.4
99171.8
99114.1
99051.6
98988.2
98921.3
98853.2
98204.2
98204.1
98203.5
98202.6
98201.3
98199.7
98197.8
98195.6
98193
98190.2
98187.2
98184
98180.6
98177
98173.4
98169.6
98165.8
98161.8
98157.9
98153.8
98149.7
98145.6
98141.4
98137.2
98132.9
98128.6
98124.2
98119.8
98115.4
98111
98106.6
98102.1
98097.7
98093.2
98088.8
98084.5
98080.1
98075.8
98071.6
98067.4
98063.3
98059.2
98055.3
98051.6
98048
98044.5
98041.3
98038.3
98035.6
98033.1
98030.9
98029
98027.4
98026.2
98025.4
98025
98025.1
98025.6
98026.6
98028.1
98030.1
98032.6
98035.7
98039.3
98043.4
98048.2
98053.4
98059.3
98065.7
98072.6
98079.9
98087.8
98096.1
98104.9
98114
98123.4
98133.2
98143.2
98153.4
98163.8
98174.3
98184.9
98195.6
98206.3
98216.9
98227.5
98238
98248.3
98258.5
98268.4
98278
98287.3
98296.3
98304.9
98313.1
98320.9
98328.2
98335.1
98341.6
98347.6
98353.2
98358.3
98363
98367.2
98371.1
98374.5
98377.6
98380.4
98382.8
98384.9
98386.8
98388.4
98389.7
98390.7
98391.5
98392.1
98392.3
98392.3
98392.1
98391.6
98390.7
98389.7
98388.4
98386.9
98385.2
98383.5
98381.9
98380.3
98379.1
98378.3
98378.3
98379.2
98381.1
98384.3
98389
98395.5
98403.9
98414.3
98426.8
98441.5
98458.4
98477.6
98499.1
98522.7
98548.4
98576.3
98606.1
98637.9
98671.3
98706.3
98742.8
98780.6
98819.1
98858.4
98898.1
98938.1
98977.7
99016.4
99053.9
99089.7
99122.9
99153.1
99179.2
99201.1
99217.9
99228.8
99233.5
99231.9
99223
99207.3
99183.9
99154
99117.1
99074.9
99027
98976.2
98920.7
98864.5
98804.5
98743.7
98180.1
98180
98179.6
98178.8
98177.7
98176.3
98174.6
98172.6
98170.4
98167.9
98165.1
98162.2
98159.1
98155.9
98152.6
98149.2
98145.7
98142.1
98138.5
98134.8
98131.1
98127.4
98123.6
98119.8
98116
98112.2
98108.3
98104.5
98100.6
98096.7
98092.8
98088.9
98085
98081.1
98077.3
98073.4
98069.6
98065.8
98062
98058.3
98054.6
98051
98047.4
98044
98040.7
98037.5
98034.5
98031.7
98029.1
98026.7
98024.6
98022.7
98021.1
98019.8
98018.9
98018.4
98018.2
98018.4
98019.1
98020.2
98021.8
98023.9
98026.4
98029.5
98033.1
98037.1
98041.7
98046.8
98052.5
98058.5
98065.1
98072.1
98079.5
98087.3
98095.4
98103.9
98112.6
98121.5
98130.7
98139.9
98149.3
98158.8
98168.3
98177.8
98187.3
98196.6
98205.9
98215
98223.8
98232.5
98240.9
98249
98256.7
98264.1
98271.1
98277.8
98284
98289.8
98295.2
98300.2
98304.8
98309
98312.8
98316.2
98319.3
98322
98324.4
98326.4
98328.3
98329.8
98331.2
98332.2
98333
98333.6
98333.9
98334
98333.8
98333.3
98332.5
98331.5
98330.1
98328.4
98326.4
98324.1
98321.5
98318.8
98316
98313.1
98310.5
98308.1
98306.3
98305.3
98304.9
98305.8
98307.9
98311.6
98317
98324.2
98333.3
98344.4
98357.6
98372.9
98390.3
98409.8
98431.2
98454.7
98480.1
98507.6
98536.6
98567.2
98599.2
98632.6
98666.7
98701.8
98737.4
98773.3
98809
98844
98877.8
98910.2
98940.5
98968.1
98991.9
99012.2
99027.9
99038.8
99044.2
99044.2
99037.7
99025.3
99006
98981.1
98949.7
98913.8
98872.6
98828.9
98780.4
98731.6
98678.9
98625.7
98157.2
98157.3
98157
98156.3
98155.4
98154.2
98152.7
98151
98149.1
98146.9
98144.5
98141.9
98139.1
98136.3
98133.3
98130.2
98127.1
98123.8
98120.6
98117.3
98114
98110.7
98107.3
98104
98100.6
98097.2
98093.8
98090.4
98087
98083.6
98080.2
98076.7
98073.3
98069.9
98066.5
98063.1
98059.7
98056.4
98053
98049.6
98046.3
98043
98039.8
98036.7
98033.6
98030.7
98027.9
98025.2
98022.7
98020.4
98018.3
98016.5
98014.8
98013.5
98012.4
98011.7
98011.3
98011.3
98011.6
98012.4
98013.6
98015.2
98017.3
98019.8
98022.8
98026.2
98030.1
98034.5
98039.4
98044.6
98050.4
98056.5
98063
98069.8
98077
98084.4
98092.1
98100
98108
98116.2
98124.5
98132.8
98141.1
98149.4
98157.6
98165.7
98173.7
98181.5
98189.1
98196.5
98203.6
98210.5
98217
98223.2
98229
98234.4
98239.5
98244.2
98248.5
98252.5
98256.1
98259.4
98262.3
98264.8
98267.1
98269
98270.7
98272.1
98273.3
98274.2
98275
98275.5
98275.7
98275.8
98275.5
98275
98274.3
98273.3
98271.9
98270.3
98268.2
98265.9
98263.1
98259.9
98256.4
98252.5
98248.6
98244.5
98240.4
98236.5
98232.9
98229.9
98227.4
98226
98225.6
98226.5
98228.9
98233
98238.7
98246.3
98255.8
98267.3
98280.9
98296.4
98313.7
98332.9
98354
98377.2
98402
98428.2
98456
98485
98514.9
98545.8
98577.2
98609.2
98640.8
98671.9
98702
98730.9
98757.9
98782.7
98804.1
98822.3
98836.6
98846.9
98852.5
98853.6
98849
98839.4
98823.8
98803.4
98777.1
98747.2
98712.4
98675.6
98634.2
98592.7
98547.3
98502
98136.6
98136.7
98136.5
98136
98135.2
98134.3
98133.1
98131.6
98130
98128.1
98126
98123.8
98121.4
98118.9
98116.3
98113.6
98110.8
98107.9
98105.1
98102.2
98099.2
98096.3
98093.3
98090.4
98087.4
98084.4
98081.4
98078.4
98075.4
98072.4
98069.3
98066.3
98063.3
98060.3
98057.2
98054.2
98051.2
98048.1
98045.1
98042
98039
98036
98033
98030.1
98027.2
98024.5
98021.8
98019.3
98016.9
98014.6
98012.5
98010.6
98008.9
98007.5
98006.3
98005.4
98004.8
98004.5
98004.6
98005
98005.8
98007
98008.6
98010.6
98013
98015.8
98019.1
98022.8
98026.9
98031.5
98036.4
98041.6
98047.3
98053.2
98059.4
98065.9
98072.6
98079.4
98086.4
98093.5
98100.6
98107.8
98114.9
98122
98129
98135.9
98142.7
98149.3
98155.7
98161.8
98167.7
98173.3
98178.6
98183.5
98188.1
98192.4
98196.3
98199.9
98203.2
98206.1
98208.7
98211
98213
98214.7
98216.1
98217.3
98218.2
98218.9
98219.4
98219.7
98219.8
98219.7
98219.3
98218.8
98218
98216.9
98215.6
98213.9
98211.9
98209.5
98206.7
98203.6
98200
98195.9
98191.4
98186.6
98181.4
98176.1
98170.7
98165.3
98160
98155.1
98150.7
98147
98144.1
98142.5
98142.1
98143.1
98145.6
98149.9
98156
98163.9
98173.7
98185.4
98198.9
98214.3
98231.4
98250.5
98271.2
98293.4
98317
98341.8
98367.7
98394.5
98421.9
98449.8
98477.4
98504.7
98531.1
98556.3
98579.9
98601.7
98620.4
98636.3
98648.7
98657.9
98663.1
98664.6
98661.4
98653.9
98641.3
98624.9
98603.2
98578.9
98550.2
98519.7
98485
98450.7
98412.5
98375
98118.8
98118.9
98118.8
98118.4
98117.8
98117.1
98116.1
98114.9
98113.6
98112
98110.3
98108.4
98106.4
98104.2
98102
98099.6
98097.2
98094.8
98092.3
98089.8
98087.2
98084.7
98082.1
98079.5
98076.9
98074.3
98071.6
98068.9
98066.2
98063.5
98060.8
98058.1
98055.4
98052.7
98049.9
98047.2
98044.4
98041.6
98038.8
98035.9
98033.1
98030.3
98027.5
98024.7
98022
98019.3
98016.7
98014.2
98011.9
98009.6
98007.5
98005.5
98003.7
98002.2
98000.8
97999.7
97998.9
97998.4
97998.2
97998.3
97998.8
97999.6
98000.8
98002.3
98004.2
98006.5
98009.2
98012.3
98015.7
98019.5
98023.7
98028.2
98033
98038.1
98043.4
98049
98054.7
98060.6
98066.5
98072.6
98078.7
98084.7
98090.8
98096.7
98102.6
98108.3
98113.9
98119.3
98124.5
98129.4
98134.1
98138.5
98142.6
98146.3
98149.8
98152.9
98155.7
98158.2
98160.4
98162.2
98163.8
98165.2
98166.3
98167.1
98167.6
98168
98168.1
98168.1
98167.9
98167.4
98166.8
98166
98165
98163.8
98162.4
98160.7
98158.6
98156.3
98153.5
98150.5
98146.9
98142.9
98138.5
98133.5
98128.1
98122.2
98116
98109.5
98102.8
98096
98089.1
98082.5
98076.2
98070.5
98065.5
98061.3
98058.4
98056.6
98056.2
98057.5
98060.3
98065
98071.3
98079.6
98089.6
98101.3
98114.8
98130.3
98147.3
98165.8
98185.4
98206.4
98228.4
98251.3
98274.9
98298.8
98322.5
98346.1
98368.6
98390.1
98410.2
98428.7
98444.6
98457.8
98468
98475.4
98479.5
98480.8
98478.2
98472.3
98462.2
98449.1
98431.4
98412
98388.8
98364.2
98335.7
98308.3
98276.9
98247
98104.1
98104.3
98104.3
98104
98103.6
98103
98102.3
98101.4
98100.3
98099
98097.6
98096.1
98094.4
98092.7
98090.8
98088.8
98086.8
98084.8
98082.7
98080.5
98078.4
98076.2
98073.9
98071.7
98069.4
98067.1
98064.7
98062.3
98059.9
98057.5
98055
98052.6
98050.1
98047.5
98045
98042.4
98039.8
98037.1
98034.4
98031.7
98029
98026.3
98023.5
98020.8
98018.1
98015.5
98012.9
98010.4
98008
98005.7
98003.5
98001.5
97999.6
97997.9
97996.4
97995.1
97994.1
97993.4
97992.9
97992.7
97992.9
97993.4
97994.2
97995.3
97996.8
97998.6
98000.7
98003.2
98006.1
98009.3
98012.8
98016.6
98020.6
98024.9
98029.5
98034.2
98039
98044
98049.1
98054.1
98059.2
98064.3
98069.3
98074.2
98079
98083.7
98088.1
98092.4
98096.4
98100.2
98103.7
98106.9
98109.9
98112.5
98114.9
98116.9
98118.6
98120
98121.2
98122
98122.6
98123
98123.1
98123
98122.7
98122.2
98121.5
98120.7
98119.7
98118.5
98117.1
98115.6
98113.9
98112
98109.8
98107.4
98104.6
98101.5
98098
98094.1
98089.8
98085
98079.7
98073.8
98067.5
98060.7
98053.5
98045.8
98038
98029.8
98021.6
98013.5
98005.5
97997.9
97991
97984.6
97979.3
97975.1
97972.1
97970.6
97970.7
97972.4
97975.7
97980.9
97987.8
97996.4
98006.7
98018.8
98032.4
98047.6
98063.8
98081.2
98099.6
98118.8
98138.8
98159
98178.9
98198.8
98217.5
98235.1
98251.6
98266.6
98279.4
98289.7
98297.3
98302.6
98304.9
98305.2
98302.6
98297.7
98289.4
98278.8
98264.7
98249.3
98230.8
98211.6
98188.9
98167.8
98142.8
98120
98092.7
98092.9
98093
98092.8
98092.5
98092.1
98091.6
98090.9
98090.1
98089.1
98088.1
98086.9
98085.6
98084.2
98082.7
98081.2
98079.6
98078
98076.3
98074.5
98072.7
98070.9
98069
98067.1
98065.1
98063
98060.9
98058.8
98056.6
98054.4
98052.1
98049.8
98047.4
98045
98042.5
98040
98037.5
98034.9
98032.2
98029.6
98026.8
98024.1
98021.4
98018.7
98015.9
98013.3
98010.6
98008.1
98005.6
98003.2
98000.8
97998.7
97996.7
97994.8
97993.2
97991.7
97990.5
97989.6
97988.9
97988.5
97988.4
97988.5
97989
97989.8
97990.9
97992.3
97994
97996
97998.4
98001
98003.9
98007.1
98010.5
98014.1
98018
98021.9
98026
98030.2
98034.4
98038.6
98042.8
98047
98051.1
98055
98058.8
98062.4
98065.9
98069.1
98072
98074.7
98077.2
98079.3
98081.2
98082.8
98084
98085
98085.7
98086.1
98086.1
98086
98085.6
98085
98084.2
98083.2
98082
98080.7
98079.1
98077.5
98075.6
98073.6
98071.5
98069.2
98066.7
98064
98061
98057.8
98054.2
98050.3
98046
98041.3
98036.2
98030.6
98024.4
98017.7
98010.6
98002.8
97994.7
97986
97977.1
97967.9
97958.4
97948.9
97939.5
97930.4
97921.6
97913.4
97906.1
97899.7
97894.5
97890.7
97888.3
97887.5
97888.3
97890.8
97894.9
97900.8
97908.3
97917.5
97928.1
97940.2
97953.2
97967.5
97982.6
97998.5
98015
98031.7
98048.1
98064.2
98079.1
98093
98105.7
98117
98126.5
98133.7
98138.4
98141.3
98141.5
98140.2
98136.9
98132.2
98125
98116.5
98105.1
98093.1
98078.4
98064.1
98046.5
98031.1
98011.9
97995.9
98084.3
98084.5
98084.6
98084.6
98084.5
98084.3
98083.9
98083.5
98083
98082.3
98081.6
98080.8
98079.9
98078.9
98077.8
98076.7
98075.6
98074.3
98073.1
98071.7
98070.3
98068.8
98067.3
98065.6
98063.9
98062.1
98060.2
98058.3
98056.3
98054.2
98052
98049.7
98047.4
98045.1
98042.6
98040.1
98037.6
98034.9
98032.2
98029.5
98026.7
98023.9
98021.1
98018.3
98015.5
98012.7
98009.9
98007.2
98004.6
98002
97999.6
97997.3
97995.1
97993.1
97991.3
97989.7
97988.3
97987.2
97986.3
97985.7
97985.3
97985.3
97985.5
97985.9
97986.7
97987.8
97989.2
97990.8
97992.7
97994.9
97997.3
98000
98002.9
98005.9
98009.1
98012.4
98015.8
98019.3
98022.8
98026.3
98029.7
98033
98036.3
98039.3
98042.2
98045
98047.4
98049.7
98051.7
98053.4
98054.8
98056
98056.8
98057.4
98057.6
98057.6
98057.3
98056.6
98055.7
98054.6
98053.3
98051.7
98050
98048.1
98046
98043.8
98041.4
98038.9
98036.1
98033.3
98030.3
98027.2
98023.8
98020.3
98016.5
98012.4
98008
98003.2
97998.2
97992.7
97986.7
97980.2
97973.3
97965.8
97957.8
97949.4
97940.3
97930.8
97921
97910.8
97900.3
97889.7
97879.1
97868.6
97858.3
97848.6
97839.5
97831.4
97824.3
97818.5
97814.1
97811.1
97809.7
97810
97811.9
97815.3
97820.3
97826.8
97834.8
97844
97854.4
97865.9
97878
97890.8
97904.1
97917.4
97930.4
97942.9
97954.1
97964.2
97973.1
97980.7
97986.7
97990.6
97992.4
97992.8
97990.6
97987.3
97982.8
97977.6
97970.8
97963.6
97954.3
97945
97933.6
97923.3
97910.2
97899.9
97885.9
97876.1
98078.3
98078.6
98078.8
98078.8
98078.8
98078.8
98078.7
98078.5
98078.3
98078
98077.7
98077.3
98076.9
98076.4
98075.8
98075.1
98074.4
98073.7
98072.8
98071.8
98070.8
98069.7
98068.4
98067.1
98065.6
98064
98062.3
98060.5
98058.6
98056.6
98054.5
98052.2
98049.9
98047.5
98045
98042.4
98039.8
98037.1
98034.3
98031.4
98028.5
98025.6
98022.6
98019.6
98016.6
98013.7
98010.7
98007.9
98005.1
98002.4
97999.8
97997.3
97995
97992.8
97990.9
97989.1
97987.6
97986.3
97985.2
97984.4
97983.9
97983.6
97983.6
97983.8
97984.4
97985.2
97986.2
97987.6
97989.2
97991
97993
97995.3
97997.7
98000.2
98002.9
98005.7
98008.5
98011.4
98014.3
98017.1
98019.8
98022.5
98024.9
98027.3
98029.4
98031.2
98032.9
98034.3
98035.4
98036.2
98036.7
98036.9
98036.8
98036.4
98035.8
98034.8
98033.5
98031.9
98030.1
98028
98025.7
98023.2
98020.6
98017.8
98014.8
98011.7
98008.4
98005
98001.4
97997.7
97993.8
97989.8
97985.6
97981.1
97976.5
97971.5
97966.3
97960.7
97954.8
97948.5
97941.7
97934.5
97926.7
97918.5
97909.8
97900.7
97890.9
97880.7
97870.1
97859.1
97847.8
97836.3
97824.7
97813
97801.6
97790.5
97780.2
97770.7
97762.1
97754.6
97748.5
97743.8
97740.6
97738.9
97738.7
97740.1
97742.9
97747.2
97752.8
97759.6
97767.5
97776.5
97786
97795.9
97806
97816
97825.8
97834.8
97842.5
97849
97854.1
97858
97860.3
97860.8
97859.5
97857.2
97852.6
97847.1
97841
97834.7
97827.9
97821.4
97813.4
97806.2
97797.5
97790.6
97781.2
97775.5
97766.1
97761.9
98073.9
98074.2
98074.5
98074.6
98074.8
98075
98075.1
98075.3
98075.5
98075.7
98075.9
98076.1
98076.2
98076.2
98076.2
98076.1
98075.9
98075.5
98075.1
98074.5
98073.8
98073
98072.1
98071
98069.7
98068.3
98066.7
98065
98063.1
98061.2
98059
98056.8
98054.4
98051.9
98049.3
98046.6
98043.9
98041
98038
98035
98031.9
98028.8
98025.6
98022.4
98019.3
98016.1
98013
98010
98007
98004.1
98001.4
97998.7
97996.3
97994
97991.9
97990
97988.3
97986.9
97985.7
97984.7
97984
97983.6
97983.4
97983.5
97983.8
97984.4
97985.3
97986.4
97987.7
97989.2
97991
97992.9
97994.9
97997.1
97999.4
98001.7
98004.1
98006.4
98008.8
98011
98013.2
98015.1
98017
98018.6
98020
98021.2
98022
98022.6
98022.9
98022.9
98022.6
98022
98021
98019.8
98018.3
98016.4
98014.2
98011.8
98009
98006.1
98002.9
97999.5
97996
97992.3
97988.4
97984.4
97980.3
97976
97971.5
97966.9
97962.2
97957.2
97952.1
97946.7
97941.2
97935.4
97929.3
97922.9
97916.1
97909
97901.5
97893.5
97885.1
97876.2
97866.9
97857.1
97846.8
97836
97824.8
97813.2
97801.2
97788.9
97776.5
97764.1
97751.7
97739.8
97728.4
97717.7
97707.9
97699.1
97691.6
97685.5
97680.7
97677.4
97675.5
97675.1
97676.1
97678.5
97681.9
97686.6
97692.3
97699.1
97706.2
97713.3
97720.4
97727.3
97733.9
97739.6
97743.9
97747
97748.3
97748.5
97747
97744.1
97739.6
97734.5
97727.5
97719.8
97711.8
97704.3
97696.9
97690.6
97683.3
97677.6
97670.9
97666.8
97660.5
97658.8
97653.5
97654.1
98070.1
98070.3
98070.5
98070.7
98071
98071.5
98072.1
98072.9
98073.7
98074.6
98075.5
98076.4
98077.2
98077.9
98078.4
98078.9
98079.2
98079.3
98079.3
98079.1
98078.7
98078.2
98077.5
98076.6
98075.5
98074.2
98072.7
98071
98069.2
98067.2
98065
98062.7
98060.3
98057.7
98055
98052.2
98049.2
98046.2
98043
98039.8
98036.5
98033.2
98029.9
98026.5
98023.1
98019.8
98016.5
98013.2
98010.1
98007.1
98004.1
98001.4
97998.8
97996.4
97994.1
97992.1
97990.3
97988.8
97987.5
97986.4
97985.6
97985.1
97984.8
97984.7
97984.9
97985.4
97986.1
97987
97988.1
97989.5
97991
97992.6
97994.4
97996.3
97998.2
98000.2
98002.1
98004
98005.9
98007.7
98009.3
98010.7
98012
98013
98013.8
98014.3
98014.5
98014.4
98014
98013.3
98012.2
98010.8
98009.1
98007
98004.7
98002
97999
97995.8
97992.2
97988.4
97984.3
97980.1
97975.7
97971.2
97966.5
97961.6
97956.6
97951.5
97946.1
97940.7
97935.1
97929.2
97923.2
97917
97910.5
97903.9
97897
97889.8
97882.3
97874.4
97866.2
97857.5
97848.5
97839.1
97829.2
97818.8
97808
97796.8
97785.1
97773.1
97760.5
97747.7
97734.7
97721.7
97708.7
97696.1
97684
97672.4
97661.6
97651.8
97643.1
97635.7
97629.5
97624.9
97621.5
97619.6
97619.1
97619.8
97621.5
97624.2
97628
97632.6
97637.5
97642.1
97646.4
97650.3
97653.9
97656.5
97657.6
97657.3
97655
97651.4
97646.3
97640
97632.3
97624.1
97614.6
97604.8
97594.9
97586.1
97577.8
97571.2
97564.3
97559.7
97554.4
97552.4
97548.7
97550.4
97548.7
97553.7
98065.3
98065.3
98065.3
98065.6
98066.4
98067.7
98069.1
98070.8
98072.6
98074.5
98076.2
98077.9
98079.4
98080.8
98082
98083
98083.8
98084.3
98084.6
98084.8
98084.7
98084.4
98083.9
98083.1
98082.1
98081
98079.5
98077.9
98076.1
98074.1
98071.9
98069.5
98067
98064.3
98061.4
98058.5
98055.4
98052.1
98048.8
98045.4
98042
98038.5
98034.9
98031.4
98027.8
98024.3
98020.8
98017.5
98014.2
98011
98007.9
98005.1
98002.3
97999.8
97997.5
97995.4
97993.5
97991.9
97990.5
97989.4
97988.5
97987.9
97987.5
97987.4
97987.5
97987.8
97988.4
97989.2
97990.2
97991.4
97992.7
97994.2
97995.7
97997.3
97999
98000.6
98002.2
98003.7
98005.2
98006.5
98007.7
98008.6
98009.4
98009.9
98010.1
98010
98009.6
98008.9
98007.8
98006.4
98004.7
98002.6
98000.1
97997.3
97994.2
97990.8
97987.1
97983.1
97978.8
97974.2
97969.4
97964.3
97959.1
97953.8
97948.3
97942.6
97936.8
97930.8
97924.7
97918.4
97911.9
97905.3
97898.5
97891.4
97884.2
97876.7
97869
97861.1
97852.9
97844.4
97835.5
97826.3
97816.7
97806.8
97796.5
97785.7
97774.5
97762.9
97750.9
97738.5
97725.5
97712.3
97698.9
97685.5
97672.1
97659.1
97646.4