/*--------------------------------*- C++ -*----------------------------------*\
| =========                 |                                                 |
| \\      /  F ield         | OpenFOAM: The Open Source CFD Toolbox           |
|  \\    /   O peration     | Version:  dev                                   |
|   \\  /    A nd           | Web:      http://www.openfoam.org               |
|    \\/     M anipulation  |                                                 |
\*---------------------------------------------------------------------------*/
FoamFile
{
    version     2.0;
    format      ascii;
    class       volScalarField;
    object      pPrime2Mean;
    location    "9.166";
}
// * * * * * * * * * * * * * * * * * * * * * * * * * * * * * * * * * * * * * //

dimensions      [2 -2 -4 0 0 0 0];

internalField   nonuniform List<scalar> 
12225
(
5.03209e+07
4.98559e+07
4.88954e+07
4.75445e+07
4.58912e+07
4.40248e+07
4.20045e+07
3.99023e+07
3.77591e+07
3.56229e+07
3.35314e+07
3.14875e+07
2.95653e+07
2.76954e+07
2.59493e+07
2.43901e+07
2.28296e+07
2.12513e+07
5.02132e+07
4.97482e+07
4.87885e+07
4.74393e+07
4.57874e+07
4.39234e+07
4.1906e+07
3.98064e+07
3.76671e+07
3.55336e+07
3.34467e+07
3.14066e+07
2.94889e+07
2.76259e+07
2.58972e+07
2.43381e+07
2.28306e+07
2.1498e+07
4.99635e+07
4.94991e+07
4.85398e+07
4.71937e+07
4.55463e+07
4.3687e+07
4.16763e+07
3.9583e+07
3.74518e+07
3.53264e+07
3.3248e+07
3.12195e+07
2.93079e+07
2.74621e+07
2.57533e+07
2.4199e+07
2.27653e+07
2.15538e+07
4.95284e+07
4.9067e+07
4.811e+07
4.67691e+07
4.51297e+07
4.32789e+07
4.12798e+07
3.9197e+07
3.70806e+07
3.49686e+07
3.2906e+07
3.08954e+07
2.90009e+07
2.71745e+07
2.54952e+07
2.39655e+07
2.25804e+07
2.14811e+07
4.88643e+07
4.84031e+07
4.74508e+07
4.61193e+07
4.44918e+07
4.26555e+07
4.06722e+07
3.86087e+07
3.65113e+07
3.44235e+07
3.23811e+07
3.04012e+07
2.85293e+07
2.67389e+07
2.51118e+07
2.36044e+07
2.23244e+07
2.12614e+07
4.79165e+07
4.74526e+07
4.65099e+07
4.51919e+07
4.35822e+07
4.17657e+07
3.98071e+07
3.77692e+07
3.57019e+07
3.36437e+07
3.16355e+07
2.96897e+07
2.7856e+07
2.61121e+07
2.45344e+07
2.30964e+07
2.18707e+07
2.08156e+07
4.66234e+07
4.61583e+07
4.52311e+07
4.39293e+07
4.23457e+07
4.05549e+07
3.86319e+07
3.66273e+07
3.46028e+07
3.25835e+07
3.06237e+07
2.87234e+07
2.69411e+07
2.52549e+07
2.37341e+07
2.23561e+07
2.11887e+07
2.0162e+07
4.51834e+07
4.47199e+07
4.3809e+07
4.25251e+07
4.09702e+07
3.92089e+07
3.73244e+07
3.53588e+07
3.33796e+07
3.14064e+07
2.94964e+07
2.76497e+07
2.59188e+07
2.42957e+07
2.28234e+07
2.15085e+07
2.03737e+07
1.94149e+07
4.36707e+07
4.32107e+07
4.23161e+07
4.10519e+07
3.95266e+07
3.77978e+07
3.59526e+07
3.40293e+07
3.20963e+07
3.01726e+07
2.83135e+07
2.65224e+07
2.48452e+07
2.32827e+07
2.18624e+07
2.06035e+07
1.95106e+07
1.86129e+07
4.17333e+07
4.128e+07
4.04048e+07
3.91682e+07
3.76793e+07
3.59944e+07
3.41981e+07
3.23309e+07
3.0455e+07
2.85962e+07
2.67998e+07
2.50802e+07
2.3469e+07
2.19812e+07
2.0627e+07
1.94357e+07
1.83995e+07
1.75477e+07
3.92882e+07
3.88449e+07
3.79932e+07
3.67933e+07
3.53502e+07
3.37224e+07
3.1988e+07
3.01918e+07
2.83891e+07
2.66104e+07
2.48943e+07
2.32606e+07
2.17331e+07
2.03312e+07
1.906e+07
1.79454e+07
1.6976e+07
1.61702e+07
3.62691e+07
3.58406e+07
3.50171e+07
3.38662e+07
3.24803e+07
3.09257e+07
2.92686e+07
2.75614e+07
2.5849e+07
2.41692e+07
2.25511e+07
2.10204e+07
1.95936e+07
1.8291e+07
1.71162e+07
1.60858e+07
1.5192e+07
1.44392e+07
3.26611e+07
3.22513e+07
3.14642e+07
3.03743e+07
2.90606e+07
2.75949e+07
2.60336e+07
2.44328e+07
2.28306e+07
2.12671e+07
1.97657e+07
1.83539e+07
1.70434e+07
1.58529e+07
1.47846e+07
1.38476e+07
1.30369e+07
1.23492e+07
2.85553e+07
2.81683e+07
2.74278e+07
2.64102e+07
2.51848e+07
2.38226e+07
2.23751e+07
2.08963e+07
1.94221e+07
1.79894e+07
1.66208e+07
1.53395e+07
1.41574e+07
1.30874e+07
1.21325e+07
1.12957e+07
1.05736e+07
9.95987e+06
2.42366e+07
2.3876e+07
2.31916e+07
2.22548e+07
2.11294e+07
1.98813e+07
1.85593e+07
1.72128e+07
1.58762e+07
1.45822e+07
1.33524e+07
1.22061e+07
1.11543e+07
1.02058e+07
9.36321e+06
8.62646e+06
7.99237e+06
7.45425e+06
2.02948e+07
1.99629e+07
1.93381e+07
1.84829e+07
1.7459e+07
1.63239e+07
1.51256e+07
1.39072e+07
1.27022e+07
1.15389e+07
1.04378e+07
9.41468e+06
8.47946e+06
7.6382e+06
6.89281e+06
6.24198e+06
5.68257e+06
5.20834e+06
1.77324e+07
1.7426e+07
1.68513e+07
1.60641e+07
1.51225e+07
1.40784e+07
1.29774e+07
1.18585e+07
1.07532e+07
9.68668e+06
8.67799e+06
7.74065e+06
6.88337e+06
6.11093e+06
5.4247e+06
4.82329e+06
4.30373e+06
3.86064e+06
1.784e+07
1.75455e+07
1.69931e+07
1.62355e+07
1.53287e+07
1.43217e+07
1.32583e+07
1.21754e+07
1.1103e+07
1.00648e+07
9.07872e+06
8.15725e+06
7.30857e+06
6.53717e+06
5.84444e+06
5.22955e+06
4.68999e+06
4.22143e+06
2.07129e+07
2.0414e+07
1.98519e+07
1.90794e+07
1.81532e+07
1.71225e+07
1.60308e+07
1.49146e+07
1.38038e+07
1.27219e+07
1.16865e+07
1.07102e+07
9.80131e+06
8.96459e+06
8.20196e+06
7.51335e+06
6.8969e+06
6.34925e+06
2.5194e+07
2.48822e+07
2.42923e+07
2.34788e+07
2.25013e+07
2.14106e+07
2.02511e+07
1.90607e+07
1.78697e+07
1.67022e+07
1.55763e+07
1.45052e+07
1.34977e+07
1.25592e+07
1.16923e+07
1.08976e+07
1.01742e+07
9.51943e+06
3.02468e+07
2.99209e+07
2.92978e+07
2.84351e+07
2.73953e+07
2.62315e+07
2.49903e+07
2.37106e+07
2.24242e+07
2.11561e+07
1.99253e+07
1.87456e+07
1.76266e+07
1.65744e+07
1.55925e+07
1.46823e+07
1.38432e+07
1.30738e+07
3.51542e+07
3.48167e+07
3.41626e+07
3.32529e+07
3.21531e+07
3.09183e+07
2.95971e+07
2.82299e+07
2.68501e+07
2.54837e+07
2.41506e+07
2.28654e+07
2.16387e+07
2.04772e+07
1.93851e+07
1.83645e+07
1.74156e+07
1.65374e+07
3.94977e+07
3.91519e+07
3.84724e+07
3.75231e+07
3.63718e+07
3.50754e+07
3.36842e+07
3.22403e+07
3.07782e+07
2.9325e+07
2.79017e+07
2.65236e+07
2.5202e+07
2.39444e+07
2.27556e+07
2.16383e+07
2.05932e+07
1.96199e+07
4.30886e+07
4.27377e+07
4.2039e+07
4.10587e+07
3.98664e+07
3.85203e+07
3.70722e+07
3.55655e+07
3.40359e+07
3.25114e+07
3.10138e+07
2.95592e+07
2.81595e+07
2.68228e+07
2.55545e+07
2.43576e+07
2.32335e+07
2.2182e+07
4.58932e+07
4.55393e+07
4.48269e+07
4.38237e+07
4.26004e+07
4.12163e+07
3.97244e+07
3.81692e+07
3.65872e+07
3.50073e+07
3.34519e+07
3.19377e+07
3.04772e+07
2.9079e+07
2.77488e+07
2.64901e+07
2.53045e+07
2.41923e+07
4.79685e+07
4.76131e+07
4.6891e+07
4.58718e+07
4.46261e+07
4.32144e+07
4.16904e+07
4.00996e+07
3.84791e+07
3.68584e+07
3.52604e+07
3.37024e+07
3.21972e+07
3.07536e+07
2.93779e+07
2.80736e+07
2.68428e+07
2.56857e+07
4.94154e+07
4.90591e+07
4.83304e+07
4.73003e+07
4.60394e+07
4.46088e+07
4.30628e+07
4.14475e+07
3.98004e+07
3.81515e+07
3.65241e+07
3.49357e+07
3.33995e+07
3.19245e+07
3.05172e+07
2.91814e+07
2.79192e+07
2.6731e+07
5.03491e+07
4.99918e+07
4.92589e+07
4.82221e+07
4.69515e+07
4.55088e+07
4.3949e+07
4.23181e+07
4.06541e+07
3.89871e+07
3.73408e+07
3.5733e+07
3.41768e+07
3.26817e+07
3.1254e+07
2.98979e+07
2.86156e+07
2.74075e+07
5.08774e+07
5.05198e+07
4.97854e+07
4.87455e+07
4.74694e+07
4.60203e+07
4.44526e+07
4.28128e+07
4.11389e+07
3.94616e+07
3.78044e+07
3.61853e+07
3.46177e+07
3.31109e+07
3.16716e+07
3.03038e+07
2.90101e+07
2.77911e+07
5.10993e+07
5.07431e+07
5.00068e+07
4.89651e+07
4.76866e+07
4.62346e+07
4.46635e+07
4.30198e+07
4.13418e+07
3.966e+07
3.79981e+07
3.63742e+07
3.48016e+07
3.32899e+07
3.18456e+07
3.04729e+07
2.91745e+07
2.7951e+07
6.04417e+07
6.03826e+07
6.02521e+07
6.00465e+07
5.97641e+07
5.94041e+07
5.89665e+07
5.84522e+07
5.78622e+07
5.71981e+07
5.64616e+07
5.56549e+07
5.47803e+07
5.38403e+07
5.28377e+07
5.17754e+07
5.06568e+07
4.94852e+07
4.82643e+07
4.69981e+07
4.56904e+07
4.43454e+07
4.29673e+07
4.15603e+07
4.01291e+07
3.8678e+07
3.72117e+07
3.57346e+07
3.4251e+07
3.27657e+07
3.12831e+07
2.98079e+07
2.83446e+07
2.68978e+07
2.54722e+07
2.40722e+07
2.27025e+07
2.13679e+07
2.0073e+07
1.88227e+07
1.76217e+07
1.64749e+07
1.53874e+07
1.43643e+07
1.34106e+07
1.25316e+07
1.17326e+07
1.1019e+07
1.03962e+07
9.86976e+06
9.44499e+06
9.1274e+06
8.92239e+06
8.83522e+06
8.87099e+06
9.03453e+06
9.33039e+06
9.76283e+06
1.03357e+07
1.10523e+07
1.19153e+07
1.29269e+07
1.40885e+07
1.54009e+07
1.6864e+07
1.84771e+07
2.02383e+07
2.21453e+07
2.4195e+07
2.63835e+07
2.87063e+07
3.11579e+07
3.37326e+07
3.64239e+07
3.9225e+07
4.21286e+07
4.51271e+07
4.8213e+07
5.13782e+07
5.46148e+07
5.79148e+07
6.12698e+07
6.46717e+07
6.81119e+07
7.15816e+07
7.5072e+07
7.8574e+07
8.20782e+07
8.55745e+07
8.90524e+07
9.25012e+07
9.59093e+07
9.92646e+07
1.02555e+08
1.05767e+08
1.08889e+08
1.11909e+08
1.14813e+08
1.1759e+08
1.20231e+08
1.22725e+08
1.25065e+08
1.27243e+08
1.29254e+08
1.31094e+08
1.32761e+08
1.34256e+08
1.3558e+08
1.36739e+08
1.3774e+08
1.38595e+08
1.39312e+08
1.39908e+08
1.40395e+08
1.40791e+08
1.41112e+08
1.41378e+08
1.41611e+08
1.41835e+08
1.42075e+08
1.42363e+08
1.4273e+08
1.43213e+08
1.43852e+08
1.44691e+08
1.45778e+08
1.47164e+08
1.48908e+08
1.51068e+08
1.53709e+08
1.56893e+08
1.60682e+08
1.65138e+08
1.70318e+08
1.76275e+08
1.83055e+08
1.90693e+08
1.99216e+08
2.0864e+08
2.18967e+08
2.30192e+08
2.42291e+08
2.55238e+08
2.68989e+08
2.83504e+08
2.98719e+08
3.14585e+08
3.31032e+08
3.47995e+08
3.65401e+08
3.83176e+08
4.01235e+08
4.19489e+08
4.37844e+08
4.56179e+08
4.74353e+08
4.92204e+08
5.09561e+08
5.26194e+08
5.41866e+08
5.56278e+08
5.69131e+08
5.80083e+08
5.88813e+08
5.94984e+08
5.98298e+08
5.98497e+08
5.95397e+08
5.88873e+08
5.78951e+08
5.65709e+08
5.49414e+08
5.30383e+08
5.0911e+08
4.86069e+08
4.61786e+08
4.36627e+08
4.11031e+08
3.85204e+08
3.59473e+08
5.93681e+07
5.93125e+07
5.91874e+07
5.89878e+07
5.87118e+07
5.83593e+07
5.79311e+07
5.74282e+07
5.68517e+07
5.62032e+07
5.54843e+07
5.4697e+07
5.38434e+07
5.29261e+07
5.19475e+07
5.09104e+07
4.98178e+07
4.86732e+07
4.74799e+07
4.62417e+07
4.49626e+07
4.36463e+07
4.22972e+07
4.09194e+07
3.95173e+07
3.80954e+07
3.66579e+07
3.52092e+07
3.37536e+07
3.22955e+07
3.08395e+07
2.939e+07
2.79517e+07
2.65289e+07
2.51263e+07
2.37484e+07
2.23996e+07
2.10845e+07
1.9808e+07
1.85747e+07
1.73895e+07
1.62572e+07
1.51827e+07
1.41712e+07
1.32277e+07
1.23575e+07
1.15658e+07
1.08581e+07
1.02397e+07
9.71622e+06
9.293e+06
8.9755e+06
8.7691e+06
8.67905e+06
8.71046e+06
8.86822e+06
9.15689e+06
9.5807e+06
1.01434e+07
1.08484e+07
1.16984e+07
1.26954e+07
1.3841e+07
1.51357e+07
1.65797e+07
1.8172e+07
1.99109e+07
2.17941e+07
2.38185e+07
2.59801e+07
2.82744e+07
3.06961e+07
3.32393e+07
3.58977e+07
3.86644e+07
4.15323e+07
4.44938e+07
4.75414e+07
5.06671e+07
5.3863e+07
5.7121e+07
6.04331e+07
6.37908e+07
6.71859e+07
7.06097e+07
7.40534e+07
7.75078e+07
8.09637e+07
8.4411e+07
8.78395e+07
9.12384e+07
9.45963e+07
9.79014e+07
1.01142e+08
1.04304e+08
1.07377e+08
1.10348e+08
1.13204e+08
1.15936e+08
1.18532e+08
1.20983e+08
1.23282e+08
1.25422e+08
1.27398e+08
1.29205e+08
1.30842e+08
1.32309e+08
1.33609e+08
1.34746e+08
1.35729e+08
1.36567e+08
1.37271e+08
1.37856e+08
1.38333e+08
1.3872e+08
1.39034e+08
1.39293e+08
1.39519e+08
1.39734e+08
1.39965e+08
1.40241e+08
1.40595e+08
1.41061e+08
1.41678e+08
1.42491e+08
1.43545e+08
1.44892e+08
1.46589e+08
1.48695e+08
1.51271e+08
1.5438e+08
1.58085e+08
1.62444e+08
1.67515e+08
1.7335e+08
1.79993e+08
1.87481e+08
1.95841e+08
2.05087e+08
2.15223e+08
2.26242e+08
2.38123e+08
2.5084e+08
2.64353e+08
2.78618e+08
2.93574e+08
3.09171e+08
3.25347e+08
3.42035e+08
3.5916e+08
3.76653e+08
3.94432e+08
4.12408e+08
4.30491e+08
4.4856e+08
4.66478e+08
4.84084e+08
5.01214e+08
5.17642e+08
5.33132e+08
5.474e+08
5.60146e+08
5.71034e+08
5.79747e+08
5.85958e+08
5.89375e+08
5.8974e+08
5.86876e+08
5.80653e+08
5.71081e+08
5.58234e+08
5.42366e+08
5.23783e+08
5.02965e+08
4.80374e+08
4.56521e+08
4.31773e+08
4.06559e+08
3.81085e+08
3.55594e+08
5.73054e+07
5.72523e+07
5.71329e+07
5.69416e+07
5.66772e+07
5.63401e+07
5.59315e+07
5.54523e+07
5.49036e+07
5.42864e+07
5.36024e+07
5.28531e+07
5.20404e+07
5.11665e+07
5.02337e+07
4.92443e+07
4.82014e+07
4.71079e+07
4.59671e+07
4.47824e+07
4.35576e+07
4.22966e+07
4.10031e+07
3.96814e+07
3.83354e+07
3.6969e+07
3.55864e+07
3.41918e+07
3.27893e+07
3.13833e+07
2.99783e+07
2.85784e+07
2.71881e+07
2.58118e+07
2.44537e+07
2.31183e+07
2.18098e+07
2.05329e+07
1.9292e+07
1.80919e+07
1.69373e+07
1.58331e+07
1.47839e+07
1.3795e+07
1.28714e+07
1.20182e+07
1.12409e+07
1.05448e+07
9.93515e+06
9.41753e+06
8.99734e+06
8.68002e+06
8.47097e+06
8.37544e+06
8.39851e+06
8.54508e+06
8.8197e+06
9.2266e+06
9.76958e+06
1.04519e+07
1.12763e+07
1.22448e+07
1.33588e+07
1.46191e+07
1.60254e+07
1.7577e+07
1.92721e+07
2.11085e+07
2.30829e+07
2.51917e+07
2.743e+07
2.97928e+07
3.22743e+07
3.48681e+07
3.75675e+07
4.03654e+07
4.32544e+07
4.62272e+07
4.92758e+07
5.23925e+07
5.55691e+07
5.87977e+07
6.207e+07
6.53778e+07
6.87125e+07
7.20656e+07
7.54279e+07
7.87902e+07
8.21429e+07
8.54757e+07
8.8778e+07
9.20387e+07
9.52464e+07
9.83891e+07
1.01455e+08
1.04431e+08
1.07307e+08
1.1007e+08
1.12711e+08
1.1522e+08
1.17587e+08
1.19806e+08
1.21871e+08
1.23776e+08
1.25519e+08
1.27097e+08
1.2851e+08
1.29762e+08
1.30857e+08
1.31804e+08
1.32611e+08
1.33289e+08
1.33851e+08
1.3431e+08
1.34681e+08
1.3498e+08
1.35224e+08
1.35435e+08
1.35635e+08
1.35848e+08
1.36101e+08
1.36426e+08
1.36856e+08
1.3743e+08
1.38188e+08
1.39177e+08
1.40446e+08
1.42049e+08
1.44044e+08
1.46491e+08
1.49452e+08
1.52988e+08
1.57155e+08
1.62009e+08
1.67601e+08
1.73974e+08
1.81165e+08
1.892e+08
1.98094e+08
2.0785e+08
2.18462e+08
2.29912e+08
2.42175e+08
2.55215e+08
2.68985e+08
2.83429e+08
2.98494e+08
3.14129e+08
3.30267e+08
3.46836e+08
3.63765e+08
3.80983e+08
3.98403e+08
4.15934e+08
4.33461e+08
4.50857e+08
4.6796e+08
4.84613e+08
5.00602e+08
5.15696e+08
5.29629e+08
5.42109e+08
5.52814e+08
5.61442e+08
5.67674e+08
5.71236e+08
5.71879e+08
5.69429e+08
5.63751e+08
5.54833e+08
5.42748e+08
5.27718e+08
5.10027e+08
4.90131e+08
4.68457e+08
4.45486e+08
4.2159e+08
3.97171e+08
3.72451e+08
3.47603e+08
5.44152e+07
5.43659e+07
5.4254e+07
5.40749e+07
5.38283e+07
5.3515e+07
5.31359e+07
5.26914e+07
5.21824e+07
5.16097e+07
5.09745e+07
5.0278e+07
4.95218e+07
4.87076e+07
4.78374e+07
4.69135e+07
4.59386e+07
4.49154e+07
4.38469e+07
4.27363e+07
4.15871e+07
4.04028e+07
3.91869e+07
3.7943e+07
3.66746e+07
3.53854e+07
3.40792e+07
3.276e+07
3.14318e+07
3.00987e+07
2.8765e+07
2.74346e+07
2.61117e+07
2.48002e+07
2.35043e+07
2.22282e+07
2.0976e+07
1.97523e+07
1.85614e+07
1.74079e+07
1.62962e+07
1.52313e+07
1.42178e+07
1.32607e+07
1.23651e+07
1.15362e+07
1.07791e+07
1.00992e+07
9.50196e+06
8.99269e+06
8.57686e+06
8.25988e+06
8.04714e+06
7.94384e+06
7.95508e+06
8.08573e+06
8.34038e+06
8.72322e+06
9.238e+06
9.88796e+06
1.06758e+07
1.16035e+07
1.26726e+07
1.38835e+07
1.52362e+07
1.67298e+07
1.83627e+07
2.01324e+07
2.20361e+07
2.40697e+07
2.62289e+07
2.85084e+07
3.09027e+07
3.34054e+07
3.601e+07
3.87096e+07
4.1497e+07
4.43648e+07
4.73055e+07
5.03113e+07
5.33743e+07
5.64865e+07
5.964e+07
6.28265e+07
6.60376e+07
6.92647e+07
7.24992e+07
7.57319e+07
7.89532e+07
8.21533e+07
8.53216e+07
8.84473e+07
9.15194e+07
9.45264e+07
9.74567e+07
1.00299e+08
1.03041e+08
1.05675e+08
1.08188e+08
1.10573e+08
1.12822e+08
1.14928e+08
1.16887e+08
1.18692e+08
1.20342e+08
1.21834e+08
1.23171e+08
1.24355e+08
1.25391e+08
1.26285e+08
1.27047e+08
1.27687e+08
1.28216e+08
1.28647e+08
1.28993e+08
1.29269e+08
1.29492e+08
1.2968e+08
1.29856e+08
1.30041e+08
1.30261e+08
1.30544e+08
1.30922e+08
1.31432e+08
1.32112e+08
1.33007e+08
1.34165e+08
1.35636e+08
1.37475e+08
1.39742e+08
1.42492e+08
1.45788e+08
1.49684e+08
1.54234e+08
1.59485e+08
1.6548e+08
1.72253e+08
1.79833e+08
1.88233e+08
1.9746e+08
2.07505e+08
2.18353e+08
2.29984e+08
2.42365e+08
2.55447e+08
2.6918e+08
2.83512e+08
2.98398e+08
3.13776e+08
3.29578e+08
3.45732e+08
3.62176e+08
3.78829e+08
3.95598e+08
4.12375e+08
4.29042e+08
4.45445e+08
4.61429e+08
4.76797e+08
4.91325e+08
5.04768e+08
5.16845e+08
5.27259e+08
5.35727e+08
5.41943e+08
5.45653e+08
5.46615e+08
5.44664e+08
5.39665e+08
5.3159e+08
5.205e+08
5.06583e+08
4.90099e+08
4.71462e+08
4.51055e+08
4.29323e+08
4.06625e+08
3.83338e+08
3.597e+08
3.35859e+08
5.08977e+07
5.08537e+07
5.07519e+07
5.05891e+07
5.03656e+07
5.0082e+07
4.97386e+07
4.93357e+07
4.8874e+07
4.8354e+07
4.77764e+07
4.71423e+07
4.64528e+07
4.57095e+07
4.49142e+07
4.40688e+07
4.31756e+07
4.2237e+07
4.12557e+07
4.02346e+07
3.91767e+07
3.8085e+07
3.69625e+07
3.58124e+07
3.46376e+07
3.34418e+07
3.22283e+07
3.10009e+07
2.97634e+07
2.85196e+07
2.7273e+07
2.60275e+07
2.47867e+07
2.35544e+07
2.23345e+07
2.11309e+07
1.99478e+07
1.87892e+07
1.76594e+07
1.65628e+07
1.55038e+07
1.4487e+07
1.35173e+07
1.25993e+07
1.17381e+07
1.09388e+07
1.02065e+07
9.54657e+06
8.96436e+06
8.46527e+06
8.05469e+06
7.73802e+06
7.52061e+06
7.40768e+06
7.40427e+06
7.51522e+06
7.74506e+06
8.09794e+06
8.57758e+06
9.18721e+06
9.92949e+06
1.08064e+07
1.18194e+07
1.29689e+07
1.42549e+07
1.56764e+07
1.72317e+07
1.89187e+07
2.07343e+07
2.26747e+07
2.47356e+07
2.69118e+07
2.9198e+07
3.15879e+07
3.40752e+07
3.66531e+07
3.93148e+07
4.2053e+07
4.48603e+07
4.77292e+07
5.0652e+07
5.36209e+07
5.66281e+07
5.96654e+07
6.27246e+07
6.57973e+07
6.88751e+07
7.19489e+07
7.50094e+07
7.8047e+07
8.10516e+07
8.40127e+07
8.69197e+07
8.97614e+07
9.25268e+07
9.52054e+07
9.77867e+07
1.00261e+08
1.0262e+08
1.04854e+08
1.06958e+08
1.08925e+08
1.10752e+08
1.12434e+08
1.13969e+08
1.15357e+08
1.16599e+08
1.17698e+08
1.18659e+08
1.19487e+08
1.20191e+08
1.20782e+08
1.21269e+08
1.21662e+08
1.21975e+08
1.22221e+08
1.22415e+08
1.22574e+08
1.22717e+08
1.22865e+08
1.23042e+08
1.23273e+08
1.23587e+08
1.24018e+08
1.24604e+08
1.25385e+08
1.26405e+08
1.27715e+08
1.29365e+08
1.31411e+08
1.33906e+08
1.3691e+08
1.40475e+08
1.44654e+08
1.4949e+08
1.55026e+08
1.61294e+08
1.68323e+08
1.76128e+08
1.84714e+08
1.94077e+08
2.04203e+08
2.1507e+08
2.26655e+08
2.38912e+08
2.51794e+08
2.65249e+08
2.7924e+08
2.93709e+08
3.08596e+08
3.23829e+08
3.3935e+08
3.55082e+08
3.7094e+08
3.86816e+08
4.02602e+08
4.18158e+08
4.33332e+08
4.47942e+08
4.61779e+08
4.74606e+08
4.86171e+08
4.96205e+08
5.04437e+08
5.10588e+08
5.14416e+08
5.15696e+08
5.14273e+08
5.1002e+08
5.02892e+08
4.92936e+08
4.80301e+08
4.65227e+08
4.48073e+08
4.29177e+08
4.08948e+08
3.87711e+08
3.65818e+08
3.43518e+08
3.2097e+08
4.69753e+07
4.69383e+07
4.68489e+07
4.67053e+07
4.65079e+07
4.62569e+07
4.59525e+07
4.55951e+07
4.51848e+07
4.47218e+07
4.42067e+07
4.36403e+07
4.30237e+07
4.23581e+07
4.16448e+07
4.08855e+07
4.00821e+07
3.92368e+07
3.83517e+07
3.74293e+07
3.64721e+07
3.54826e+07
3.44633e+07
3.34168e+07
3.2346e+07
3.12539e+07
3.01438e+07
2.90189e+07
2.78826e+07
2.67382e+07
2.55889e+07
2.44381e+07
2.32891e+07
2.21455e+07
2.10108e+07
1.98887e+07
1.8783e+07
1.76977e+07
1.66367e+07
1.56043e+07
1.46047e+07
1.36423e+07
1.27218e+07
1.18479e+07
1.10254e+07
1.02594e+07
9.55498e+06
8.91746e+06
8.35214e+06
7.86439e+06
7.45957e+06
7.14305e+06
6.92018e+06
6.79612e+06
6.77587e+06
6.86421e+06
7.06564e+06
7.38426e+06
7.82373e+06
8.38721e+06
9.07731e+06
9.89602e+06
1.08447e+07
1.19238e+07
1.31333e+07
1.44723e+07
1.5939e+07
1.75312e+07
1.92461e+07
2.10798e+07
2.30282e+07
2.50864e+07
2.72489e+07
2.95099e+07
3.18632e+07
3.43023e+07
3.68205e+07
3.94107e+07
4.20659e+07
4.47786e+07
4.75415e+07
5.03469e+07
5.31871e+07
5.60544e+07
5.89408e+07
6.18378e+07
6.47373e+07
6.76306e+07
7.05085e+07
7.33616e+07
7.61805e+07
7.89552e+07
8.16755e+07
8.43307e+07
8.69105e+07
8.94053e+07
9.18055e+07
9.41022e+07
9.6287e+07
9.83527e+07
1.00293e+08
1.02104e+08
1.03783e+08
1.05326e+08
1.06731e+08
1.08e+08
1.09134e+08
1.10137e+08
1.11011e+08
1.11762e+08
1.124e+08
1.12931e+08
1.13366e+08
1.13714e+08
1.13986e+08
1.14194e+08
1.14352e+08
1.14475e+08
1.14578e+08
1.14681e+08
1.14806e+08
1.14975e+08
1.15216e+08
1.1556e+08
1.1604e+08
1.16692e+08
1.1756e+08
1.18688e+08
1.20126e+08
1.21925e+08
1.24134e+08
1.26812e+08
1.30008e+08
1.33771e+08
1.38146e+08
1.43169e+08
1.48876e+08
1.55294e+08
1.62438e+08
1.70314e+08
1.78921e+08
1.88248e+08
1.98275e+08
2.08981e+08
2.20328e+08
2.32275e+08
2.44771e+08
2.57781e+08
2.71256e+08
2.85139e+08
2.99363e+08
3.13872e+08
3.28594e+08
3.43446e+08
3.58329e+08
3.73142e+08
3.87757e+08
4.02027e+08
4.15784e+08
4.2884e+08
4.40964e+08
4.51931e+08
4.61503e+08
4.69428e+08
4.75453e+08
4.79345e+08
4.80906e+08
4.79998e+08
4.76491e+08
4.70334e+08
4.61553e+08
4.50273e+08
4.36702e+08
4.21149e+08
4.03906e+08
3.85341e+08
3.65736e+08
3.45418e+08
3.24637e+08
3.03582e+08
4.28726e+07
4.28431e+07
4.27673e+07
4.2644e+07
4.24736e+07
4.22563e+07
4.19921e+07
4.16811e+07
4.13232e+07
4.09184e+07
4.04674e+07
3.99707e+07
3.94289e+07
3.88431e+07
3.82144e+07
3.7544e+07
3.68335e+07
3.60846e+07
3.52992e+07
3.4479e+07
3.36261e+07
3.27423e+07
3.18299e+07
3.08911e+07
2.99284e+07
2.89445e+07
2.79422e+07
2.69243e+07
2.58937e+07
2.48532e+07
2.38057e+07
2.27541e+07
2.17015e+07
2.0651e+07
1.96059e+07
1.85696e+07
1.75457e+07
1.65377e+07
1.55493e+07
1.45847e+07
1.36478e+07
1.27429e+07
1.18744e+07
1.1047e+07
1.02655e+07
9.53467e+06
8.85973e+06
8.24584e+06
7.69827e+06
7.22237e+06
6.82346e+06
6.50687e+06
6.27788e+06
6.14164e+06
6.1031e+06
6.167e+06
6.33776e+06
6.61944e+06
7.01562e+06
7.52942e+06
8.16338e+06
8.91941e+06
9.79879e+06
1.08021e+07
1.19292e+07
1.31791e+07
1.45503e+07
1.60404e+07
1.76466e+07
1.93652e+07
2.11923e+07
2.3123e+07
2.5152e+07
2.72738e+07
2.94824e+07
3.17715e+07
3.41346e+07
3.65649e+07
3.90556e+07
4.15995e+07
4.41895e+07
4.68181e+07
4.94781e+07
5.21616e+07
5.48611e+07
5.75684e+07
6.02755e+07
6.29739e+07
6.56549e+07
6.83094e+07
7.09284e+07
7.35024e+07
7.60218e+07
7.84769e+07
8.08581e+07
8.31565e+07
8.53633e+07
8.74707e+07
8.94711e+07
9.13582e+07
9.31266e+07
9.47727e+07
9.62937e+07
9.76885e+07
9.89567e+07
1.00099e+08
1.01117e+08
1.02014e+08
1.02794e+08
1.03461e+08
1.04024e+08
1.04489e+08
1.04865e+08
1.0516e+08
1.05383e+08
1.05547e+08
1.05663e+08
1.05742e+08
1.058e+08
1.05854e+08
1.05921e+08
1.06023e+08
1.06186e+08
1.06435e+08
1.06803e+08
1.0732e+08
1.08026e+08
1.08962e+08
1.10175e+08
1.11713e+08
1.13624e+08
1.1596e+08
1.18768e+08
1.22094e+08
1.25982e+08
1.30468e+08
1.35588e+08
1.41365e+08
1.47818e+08
1.54954e+08
1.62773e+08
1.71267e+08
1.80421e+08
1.90217e+08
2.00622e+08
2.116e+08
2.23106e+08
2.35106e+08
2.47554e+08
2.60399e+08
2.73581e+08
2.87045e+08
3.0072e+08
3.14527e+08
3.28377e+08
3.42176e+08
3.55803e+08
3.69117e+08
3.81965e+08
3.94175e+08
4.05536e+08
4.15841e+08
4.24877e+08
4.32423e+08
4.3825e+08
4.4214e+08
4.43918e+08
4.43465e+08
4.40652e+08
4.35421e+08
4.2778e+08
4.17845e+08
4.05783e+08
3.91857e+08
3.76314e+08
3.59478e+08
3.41588e+08
3.22944e+08
3.03788e+08
2.84344e+08
3.88023e+07
3.87803e+07
3.87178e+07
3.86146e+07
3.84709e+07
3.82867e+07
3.80617e+07
3.77958e+07
3.7489e+07
3.71413e+07
3.67531e+07
3.63245e+07
3.58562e+07
3.53487e+07
3.48028e+07
3.42197e+07
3.36003e+07
3.29461e+07
3.22583e+07
3.15382e+07
3.07875e+07
3.00077e+07
2.92005e+07
2.8368e+07
2.75121e+07
2.66353e+07
2.57397e+07
2.48278e+07
2.39019e+07
2.29645e+07
2.2018e+07
2.1065e+07
2.01082e+07
1.91505e+07
1.81948e+07
1.72441e+07
1.63016e+07
1.53707e+07
1.44549e+07
1.35579e+07
1.26837e+07
1.18362e+07
1.10197e+07
1.02389e+07
9.4982e+06
8.8026e+06
8.15708e+06
7.56675e+06
7.03683e+06
6.57262e+06
6.17939e+06
5.86241e+06
5.62691e+06
5.47798e+06
5.42055e+06
5.45929e+06
5.59858e+06
5.84238e+06
6.1942e+06
6.6571e+06
7.23354e+06
7.92536e+06
8.73379e+06
9.65937e+06
1.07019e+07
1.18605e+07
1.31335e+07
1.45187e+07
1.60131e+07
1.76134e+07
1.93156e+07
2.1115e+07
2.30065e+07
2.49848e+07
2.7044e+07
2.91781e+07
3.13809e+07
3.36458e+07
3.59663e+07
3.83354e+07
4.07463e+07
4.31918e+07
4.56648e+07
4.81579e+07
5.06635e+07
5.3174e+07
5.56814e+07
5.81777e+07
6.06545e+07
6.31032e+07
6.55154e+07
6.78819e+07
7.01939e+07
7.24426e+07
7.46193e+07
7.67158e+07
7.87243e+07
8.06379e+07
8.24497e+07
8.41546e+07
8.57477e+07
8.7226e+07
8.85875e+07
8.98317e+07
9.09594e+07
9.19714e+07
9.28694e+07
9.3657e+07
9.43382e+07
9.49175e+07
9.54009e+07
9.57948e+07
9.61056e+07
9.63415e+07
9.65118e+07
9.66256e+07
9.66927e+07
9.67245e+07
9.67329e+07
9.67321e+07
9.67382e+07
9.67713e+07
9.68519e+07
9.70045e+07
9.72565e+07
9.76375e+07
9.81807e+07
9.89256e+07
9.99137e+07
1.0119e+08
1.02801e+08
1.04794e+08
1.07212e+08
1.101e+08
1.13501e+08
1.1745e+08
1.21981e+08
1.27119e+08
1.32882e+08
1.39279e+08
1.46314e+08
1.53982e+08
1.62269e+08
1.71163e+08
1.80635e+08
1.90654e+08
2.01181e+08
2.12186e+08
2.23623e+08
2.35443e+08
2.47593e+08
2.6002e+08
2.72655e+08
2.85425e+08
2.98246e+08
3.11027e+08
3.23654e+08
3.35995e+08
3.47911e+08
3.59245e+08
3.69802e+08
3.79399e+08
3.87842e+08
3.9494e+08
4.00491e+08
4.04297e+08
4.0621e+08
4.06117e+08
4.03901e+08
3.995e+08
3.92914e+08
3.84241e+08
3.73618e+08
3.6127e+08
3.47396e+08
3.32276e+08
3.16108e+08
2.99162e+08
2.81671e+08
2.63887e+08
3.49513e+07
3.49361e+07
3.48858e+07
3.48013e+07
3.46825e+07
3.45291e+07
3.43407e+07
3.41172e+07
3.38585e+07
3.35643e+07
3.32349e+07
3.28702e+07
3.24706e+07
3.20365e+07
3.15684e+07
3.10671e+07
3.05332e+07
2.99676e+07
2.93712e+07
2.87452e+07
2.80906e+07
2.74087e+07
2.67008e+07
2.59684e+07
2.52134e+07
2.44376e+07
2.36428e+07
2.28309e+07
2.2004e+07
2.1164e+07
2.03131e+07
1.94535e+07
1.85876e+07
1.77178e+07
1.68468e+07
1.59773e+07
1.51122e+07
1.42545e+07
1.34076e+07
1.25749e+07
1.17601e+07
1.09672e+07
1.02002e+07
9.46354e+06
8.76175e+06
8.0996e+06
7.48199e+06
6.91397e+06
6.40066e+06
5.94732e+06
5.55914e+06
5.24135e+06
4.99913e+06
4.83754e+06
4.76144e+06
4.77543e+06
4.88383e+06
5.09051e+06
5.39891e+06
5.81196e+06
6.33205e+06
6.96096e+06
7.69984e+06
8.54913e+06
9.5086e+06
1.05773e+07
1.17537e+07
1.30355e+07
1.44197e+07
1.59031e+07
1.74817e+07
1.91511e+07
2.09064e+07
2.27423e+07
2.46532e+07
2.66332e+07
2.86764e+07
3.07764e+07
3.29269e+07
3.51214e+07
3.73532e+07
3.96154e+07
4.19011e+07
4.42032e+07
4.65143e+07
4.88271e+07
5.1134e+07
5.34274e+07
5.56992e+07
5.79415e+07
6.01461e+07
6.23046e+07
6.44091e+07
6.64515e+07
6.8424e+07
7.0319e+07
7.21298e+07
7.38502e+07
7.54744e+07
7.69982e+07
7.84174e+07
7.97292e+07
8.0933e+07
8.20286e+07
8.30169e+07
8.38992e+07
8.46776e+07
8.53551e+07
8.59359e+07
8.64244e+07
8.68257e+07
8.71451e+07
8.7388e+07
8.75613e+07
8.76735e+07
8.77327e+07
8.77474e+07
8.77271e+07
8.76821e+07
8.76243e+07
8.75682e+07
8.75307e+07
8.75297e+07
8.75864e+07
8.77254e+07
8.79734e+07
8.83602e+07
8.89215e+07
8.96949e+07
9.07217e+07
9.20443e+07
9.37055e+07
9.57481e+07
9.82149e+07
1.01146e+08
1.04578e+08
1.08541e+08
1.13062e+08
1.1816e+08
1.23848e+08
1.3013e+08
1.37006e+08
1.44464e+08
1.52496e+08
1.61078e+08
1.70182e+08
1.79776e+08
1.89832e+08
2.00305e+08
2.11149e+08
2.22311e+08
2.33742e+08
2.45379e+08
2.5715e+08
2.68974e+08
2.80763e+08
2.92408e+08
3.03784e+08
3.1477e+08
3.25216e+08
3.34952e+08
3.43809e+08
3.51615e+08
3.58203e+08
3.63403e+08
3.67036e+08
3.68982e+08
3.69135e+08
3.67393e+08
3.63694e+08
3.58038e+08
3.50502e+08
3.41198e+08
3.30319e+08
3.18024e+08
3.04544e+08
2.90046e+08
2.74765e+08
2.58921e+08
2.42789e+08
3.14709e+07
3.14613e+07
3.14217e+07
3.13537e+07
3.1257e+07
3.11312e+07
3.09759e+07
3.07907e+07
3.05754e+07
3.03295e+07
3.00531e+07
2.97461e+07
2.94086e+07
2.90407e+07
2.86427e+07
2.8215e+07
2.77579e+07
2.72721e+07
2.67581e+07
2.62167e+07
2.56487e+07
2.50549e+07
2.44365e+07
2.37946e+07
2.31306e+07
2.2446e+07
2.17421e+07
2.10206e+07
2.02829e+07
1.95309e+07
1.87664e+07
1.79912e+07
1.72074e+07
1.6417e+07
1.56226e+07
1.48264e+07
1.40312e+07
1.32397e+07
1.2455e+07
1.16804e+07
1.09194e+07
1.01758e+07
9.45354e+06
8.75684e+06
8.09017e+06
7.45817e+06
6.86569e+06
6.31767e+06
5.81917e+06
5.37533e+06
4.99133e+06
4.67232e+06
4.42344e+06
4.24971e+06
4.15593e+06
4.14663e+06
4.226e+06
4.39786e+06
4.66552e+06
5.0318e+06
5.49898e+06
6.06877e+06
6.74219e+06
7.51962e+06
8.40075e+06
9.3846e+06
1.04695e+07
1.16533e+07
1.29329e+07
1.43051e+07
1.57659e+07
1.73112e+07
1.89361e+07
2.06355e+07
2.2404e+07
2.42359e+07
2.61253e+07
2.80662e+07
3.00524e+07
3.20776e+07
3.41355e+07
3.62195e+07
3.83229e+07
4.04387e+07
4.25601e+07
4.468e+07
4.67911e+07
4.88862e+07
5.09577e+07
5.29982e+07
5.5e+07
5.69556e+07
5.88576e+07
6.06987e+07
6.24719e+07
6.41705e+07
6.57885e+07
6.73206e+07
6.87622e+07
7.01096e+07
7.13597e+07
7.25103e+07
7.3561e+07
7.45119e+07
7.53646e+07
7.61202e+07
7.6781e+07
7.73499e+07
7.78308e+07
7.82279e+07
7.85457e+07
7.87884e+07
7.8961e+07
7.90696e+07
7.91211e+07
7.91226e+07
7.90816e+07
7.9006e+07
7.89052e+07
7.8789e+07
7.86704e+07
7.85636e+07
7.84838e+07
7.84495e+07
7.84822e+07
7.86064e+07
7.88488e+07
7.9241e+07
7.98167e+07
8.06126e+07
8.16677e+07
8.30226e+07
8.4717e+07
8.67915e+07
8.9285e+07
9.2233e+07
9.56662e+07
9.96109e+07
1.04089e+08
1.09115e+08
1.14696e+08
1.20834e+08
1.27523e+08
1.34755e+08
1.42511e+08
1.50768e+08
1.59498e+08
1.68673e+08
1.78254e+08
1.88191e+08
1.98434e+08
2.08937e+08
2.19639e+08
2.30468e+08
2.41349e+08
2.52189e+08
2.62889e+08
2.73331e+08
2.83404e+08
2.92968e+08
3.01878e+08
3.09978e+08
3.17114e+08
3.2314e+08
3.2792e+08
3.3129e+08
3.33159e+08
3.33437e+08
3.32034e+08
3.28897e+08
3.24022e+08
3.1747e+08
3.09336e+08
2.99779e+08
2.8893e+08
2.76971e+08
2.64045e+08
2.50349e+08
2.3609e+08
2.21554e+08
2.84711e+07
2.84656e+07
2.84347e+07
2.83805e+07
2.83027e+07
2.82007e+07
2.8074e+07
2.7922e+07
2.77443e+07
2.75406e+07
2.73104e+07
2.70536e+07
2.67701e+07
2.64597e+07
2.61224e+07
2.57585e+07
2.5368e+07
2.49512e+07
2.45085e+07
2.40402e+07
2.3547e+07
2.30293e+07
2.24881e+07
2.19242e+07
2.13387e+07
2.07326e+07
2.0107e+07
1.94632e+07
1.88025e+07
1.81262e+07
1.7436e+07
1.67334e+07
1.602e+07
1.5298e+07
1.45692e+07
1.3836e+07
1.31007e+07
1.23661e+07
1.16348e+07
1.09102e+07
1.01954e+07
9.49416e+06
8.81027e+06
8.14784e+06
7.51123e+06
6.905e+06
6.33392e+06
5.80285e+06
5.31676e+06
4.88074e+06
4.4999e+06
4.17937e+06
3.9242e+06
3.73935e+06
3.62953e+06
3.59918e+06
3.65244e+06
3.793e+06
4.02407e+06
4.34833e+06
4.76794e+06
5.28446e+06
5.8988e+06
6.61124e+06
7.42136e+06
8.32807e+06
9.32966e+06
1.04239e+07
1.16077e+07
1.28778e+07
1.42303e+07
1.5661e+07
1.71653e+07
1.87381e+07
2.0374e+07
2.20677e+07
2.38132e+07
2.56048e+07
2.74363e+07
2.93019e+07
3.11954e+07
3.31106e+07
3.50408e+07
3.69797e+07
3.89204e+07
4.08563e+07
4.27805e+07
4.46861e+07
4.65662e+07
4.84137e+07
5.02216e+07
5.1983e+07
5.36912e+07
5.53397e+07
5.6922e+07
5.84325e+07
5.98659e+07
6.1218e+07
6.24851e+07
6.36639e+07
6.47521e+07
6.57483e+07
6.66522e+07
6.74644e+07
6.81863e+07
6.88195e+07
6.93659e+07
6.98288e+07
7.02115e+07
7.05178e+07