/*--------------------------------*- C++ -*----------------------------------*\
| =========                 |                                                 |
| \\      /  F ield         | OpenFOAM: The Open Source CFD Toolbox           |
|  \\    /   O peration     | Version:  dev                                   |
|   \\  /    A nd           | Web:      http://www.openfoam.org               |
|    \\/     M anipulation  |                                                 |
\*---------------------------------------------------------------------------*/
FoamFile
{
    version     2.0;
    format      ascii;
    class       volScalarField;
    object      rho;
    location    "9.166";
}
// * * * * * * * * * * * * * * * * * * * * * * * * * * * * * * * * * * * * * //

dimensions      [1 -3 0 0 0 0 0];

internalField   nonuniform List<scalar> 
12225
(
1.07283
1.07464
1.07552
1.0773
1.07924
1.08176
1.08383
1.087
1.08872
1.09272
1.09357
1.09892
1.0986
1.10535
1.10549
1.10855
1.11431
1.11702
1.07445
1.07579
1.07633
1.07942
1.081
1.08549
1.08658
1.09248
1.09208
1.09995
1.09714
1.10749
1.10306
1.11346
1.11188
1.11673
1.11966
1.12588
1.07411
1.07589
1.07568
1.07985
1.08053
1.0861
1.08665
1.09319
1.09359
1.1001
1.10099
1.10641
1.10806
1.11224
1.11448
1.11907
1.12002
1.12628
1.07367
1.07648
1.07588
1.07969
1.08109
1.08491
1.08777
1.09082
1.09505
1.09695
1.1021
1.1036
1.10842
1.1104
1.1148
1.11718
1.12236
1.12205
1.07467
1.07591
1.0771
1.07893
1.08238
1.08385
1.0885
1.08969
1.09488
1.09608
1.10127
1.1032
1.10746
1.11035
1.11378
1.11791
1.11984
1.12444
1.0763
1.07505
1.07832
1.07814
1.08312
1.0835
1.08899
1.08945
1.09518
1.09581
1.10159
1.10256
1.10784
1.10937
1.11401
1.11666
1.11985
1.12324
1.07836
1.07515
1.07945
1.07807
1.08389
1.08374
1.08931
1.08974
1.09527
1.09656
1.10162
1.10325
1.10758
1.10999
1.11381
1.11675
1.11996
1.12294
1.08001
1.07623
1.08086
1.07923
1.08506
1.08492
1.09011
1.09079
1.09597
1.09776
1.10222
1.10399
1.10794
1.11041
1.11428
1.11678
1.12005
1.12254
1.08127
1.07765
1.08196
1.0804
1.08603
1.08601
1.09111
1.09196
1.09684
1.09877
1.10274
1.10476
1.10837
1.11116
1.11459
1.1173
1.12011
1.12265
1.08304
1.07926
1.08368
1.08196
1.08766
1.08732
1.09239
1.09306
1.09779
1.09962
1.10351
1.10571
1.10927
1.11189
1.11499
1.11757
1.11993
1.12223
1.08525
1.08147
1.08577
1.08415
1.08944
1.08916
1.09386
1.09476
1.09903
1.10096
1.10444
1.10674
1.10984
1.11227
1.11503
1.11745
1.11941
1.12167
1.08808
1.08466
1.08812
1.08705
1.09144
1.09148
1.09545
1.09675
1.10041
1.10243
1.10545
1.10773
1.11038
1.11277
1.11511
1.11724
1.11907
1.12097
1.09139
1.08875
1.09091
1.09086
1.09394
1.09454
1.09748
1.09913
1.10204
1.10408
1.10649
1.1087
1.11092
1.11302
1.11499
1.11688
1.11845
1.12005
1.09585
1.09425
1.09502
1.09551
1.09727
1.09833
1.1002
1.10201
1.10426
1.10614
1.10816
1.11017
1.11195
1.11383
1.11556
1.11705
1.11835
1.11973
1.10226
1.10096
1.10091
1.10138
1.10241
1.10352
1.10468
1.10629
1.10795
1.10951
1.11112
1.11271
1.1142
1.11558
1.11686
1.11815
1.11927
1.1203
1.11085
1.10981
1.10911
1.10925
1.10993
1.11076
1.11155
1.11269
1.11378
1.11498
1.11611
1.11719
1.11826
1.1192
1.12013
1.12095
1.12162
1.1224
1.12226
1.12114
1.12011
1.11997
1.12017
1.12048
1.12098
1.12158
1.12225
1.12305
1.12379
1.12454
1.12513
1.12565
1.12615
1.12655
1.12693
1.1273
1.13579
1.13452
1.13352
1.13328
1.13308
1.13309
1.13339
1.13351
1.13396
1.13436
1.13464
1.13516
1.13535
1.13565
1.13588
1.13596
1.13631
1.13608
1.14924
1.14826
1.14712
1.14703
1.14668
1.14643
1.1468
1.1465
1.14698
1.14728
1.14716
1.14788
1.14758
1.14788
1.14807
1.14771
1.14828
1.14773
1.16098
1.16013
1.15917
1.15964
1.15899
1.15896
1.15954
1.15875
1.15962
1.15968
1.15945
1.16038
1.15963
1.16011
1.16
1.15965
1.16027
1.15941
1.17085
1.17021
1.16984
1.17054
1.16957
1.16995
1.17036
1.16967
1.17074
1.17057
1.17063
1.17139
1.17076
1.17128
1.17103
1.17078
1.17112
1.1706
1.17862
1.17835
1.17849
1.17889
1.17877
1.17925
1.1792
1.1794
1.17977
1.1799
1.18027
1.1804
1.18056
1.18058
1.1806
1.18061
1.18059
1.18075
1.1846
1.18521
1.18568
1.18557
1.18606
1.18649
1.18641
1.18738
1.18728
1.1877
1.18822
1.18797
1.18862
1.18838
1.18848
1.18873
1.18838
1.18898
1.1892
1.19018
1.19062
1.19125
1.1919
1.19223
1.19261
1.19293
1.19327
1.19368
1.19398
1.19429
1.19441
1.19457
1.19448
1.19468
1.1945
1.19477
1.1928
1.19404
1.1946
1.19535
1.19592
1.19639
1.19687
1.19695
1.19755
1.19773
1.19821
1.19864
1.19879
1.19926
1.19916
1.19949
1.19935
1.19947
1.19516
1.19657
1.19731
1.19819
1.19898
1.19951
1.19992
1.20015
1.20045
1.20064
1.20099
1.20124
1.20162
1.2019
1.20217
1.20246
1.20256
1.20279
1.19693
1.19833
1.19913
1.20008
1.20092
1.20152
1.20201
1.20238
1.20274
1.20308
1.20342
1.20375
1.20407
1.20439
1.20469
1.205
1.20528
1.20553
1.19788
1.19955
1.20038
1.2013
1.20212
1.2028
1.20345
1.20405
1.20467
1.20523
1.20578
1.20623
1.20671
1.2071
1.20755
1.2079
1.20825
1.20848
1.19849
1.20038
1.20118
1.20214
1.20306
1.2039
1.20469
1.2054
1.20605
1.20661
1.20709
1.20745
1.20779
1.20793
1.20807
1.20795
1.20794
1.20762
1.19847
1.20001
1.20035
1.20078
1.20117
1.20145
1.2016
1.20161
1.20153
1.20136
1.20112
1.20082
1.20049
1.20008
1.19967
1.1992
1.19875
1.19816
1.3226
1.3369
1.32576
1.32549
1.32216
1.31898
1.31609
1.31334
1.31086
1.30885
1.30688
1.30438
1.30258
1.30161
1.30013
1.29814
1.29592
1.29448
1.29347
1.29197
1.28999
1.28837
1.28755
1.28539
1.28453
1.28298
1.27937
1.2793
1.27578
1.27001
1.26634
1.25709
1.25002
1.24982
1.2507
1.25138
1.24958
1.24384
1.23878
1.23636
1.23736
1.24079
1.23998
1.23994
1.24288
1.23476
1.21656
1.20207
1.19423
1.18874
1.17951
1.169
1.16455
1.1639
1.1626
1.16077
1.15886
1.15689
1.15486
1.1528
1.15071
1.1486
1.14649
1.14437
1.14222
1.14005
1.13784
1.13559
1.13331
1.13103
1.12878
1.12662
1.12453
1.12249
1.12047
1.11845
1.11644
1.11444
1.11247
1.11056
1.10884
1.10744
1.10616
1.10426
1.10274
1.10175
1.10018
1.0991
1.09791
1.09669
1.09564
1.09456
1.09359
1.09264
1.09189
1.0914
1.0911
1.09105
1.09152
1.09236
1.09344
1.09491
1.09659
1.09825
1.10036
1.10287
1.10579
1.10914
1.11297
1.11637
1.12017
1.12428
1.1293
1.13464
1.13976
1.14507
1.14844
1.15096
1.15284
1.1541
1.15505
1.15291
1.14703
1.14194
1.14067
1.14129
1.14391
1.14607
1.14675
1.14614
1.144
1.13929
1.13517
1.1319
1.12552
1.11775
1.1112
1.1059
1.10286
1.09931
1.09186
1.09128
1.09968
1.09859
1.09346
1.09737
1.1021
1.10251
1.10156
1.09667
1.10243
1.10788
1.10954
1.1118
1.11273
1.11641
1.11941
1.11928
1.12583
1.12492
1.12609
1.12968
1.1246
1.12203
1.12607
1.12042
1.12681
1.14002
1.14091
1.1233
1.11699
1.13248
1.11789
1.1053
1.1931
1.15994
1.11769
1.20704
1.15143
1.10102
1.31156
1.3447
1.34265
1.33193
1.32268
1.31477
1.30798
1.30234
1.29715
1.2931
1.29166
1.28742
1.28421
1.28562
1.28328
1.28136
1.27901
1.27599
1.27857
1.27634
1.27267
1.27473
1.27019
1.27034
1.27304
1.27
1.2743
1.27515
1.27233
1.27867
1.27563
1.26804
1.27384
1.27007
1.26189
1.27511
1.29272
1.28926
1.28176
1.28191
1.28782
1.298
1.28287
1.24865
1.25587
1.26226
1.21965
1.18437
1.17943
1.1784
1.17542
1.173
1.17136
1.16962
1.16768
1.16563
1.16348
1.16128
1.15903
1.15676
1.15443
1.15212
1.14977
1.14746
1.14518
1.14292
1.14067
1.1383
1.13576
1.13311
1.13046
1.12801
1.12581
1.12379
1.12174
1.11945
1.1171
1.11501
1.1129
1.11089
1.10891
1.10817
1.10837
1.10537
1.10428
1.10544
1.10344
1.1041
1.10503
1.10426
1.10532
1.1057
1.10577
1.10562
1.10492
1.10432
1.10386
1.10233
1.10153
1.10273
1.10432
1.10747
1.11328
1.11908
1.12459
1.13107
1.13736
1.14286
1.15137
1.16108
1.1703
1.17864
1.18446
1.18946
1.19045
1.19251
1.19341
1.18997
1.18918
1.18978
1.19027
1.18579
1.1681
1.14435
1.13763
1.13774
1.14089
1.15147
1.1604
1.17832
1.20368
1.21536
1.20954
1.19868
1.18218
1.15904
1.13751
1.12193
1.11215
1.09513
1.0855
1.10625
1.12625
1.1067
1.08457
1.11301
1.12432
1.12732
1.10756
1.07318
1.09725
1.13065
1.13373
1.12959
1.14588
1.15686
1.16447
1.16968
1.18631
1.19541
1.20449
1.22565
1.21524
1.19635
1.18644
1.18248
1.20477
1.25742
1.28225
1.25076
1.22541
1.26723
1.24078
1.26092
1.46606
1.30192
1.26337
1.24733
1.3221
1.27352
1.2949
1.32739
1.34088
1.33348
1.3181
1.30539
1.29593
1.2894
1.28544
1.28024
1.27871
1.27843
1.27238
1.27746
1.27533
1.27331
1.27337
1.27362
1.27268
1.26774
1.27087
1.26371
1.25976
1.26276
1.25432
1.25881
1.25776
1.25455
1.2676
1.25621
1.25944
1.28515
1.27334
1.26169
1.27161
1.26612
1.2584
1.27429
1.2885
1.282
1.27066
1.2737
1.27314
1.22734
1.19562
1.19238
1.18724
1.18235
1.18001
1.17777
1.17558
1.17354
1.17135
1.16914
1.16667
1.1642
1.16153
1.15887
1.15606
1.15329
1.15043
1.14753
1.14474
1.14205
1.13973
1.13773
1.13594
1.13425
1.13213
1.12954
1.12651
1.12334
1.1206
1.11831
1.11617
1.11338
1.11016
1.10745
1.10496
1.1029
1.09907
1.09645
1.09586
1.09188
1.09038
1.08981
1.08765
1.08721
1.08919
1.08793
1.09051
1.09261
1.09371
1.097
1.09849
1.09856
1.102
1.10408
1.10203
1.09978
1.09841
1.09907
1.10359
1.10884
1.11277
1.1194
1.1275
1.13807
1.14656
1.16027
1.17065
1.17973
1.19073
1.20517
1.2157
1.21309
1.2009
1.17814
1.15678
1.14516
1.14834
1.15922
1.14926
1.11616
1.09226
1.08328
1.08268
1.08841
1.08606
1.10668
1.15622
1.19959
1.2201
1.21536
1.19552
1.16522
1.13504
1.1209
1.10952
1.08396
1.08443
1.11472
1.11885
1.07938
1.07814
1.12482
1.11626
1.12943
1.06774
1.0268
1.06544
1.1117
1.10312
1.07706
1.11997
1.12689
1.12799
1.15897
1.17199
1.19789
1.2213
1.27746
1.27365
1.21652
1.17259
1.18546
1.23212
1.26556
1.24425
1.24039
1.26876
1.33647
1.30272
1.32107
1.51085
1.33685
1.3622
1.1186
1.27318
1.3022
1.28323
1.30434
1.31085
1.29969
1.28728
1.27979
1.2755
1.2725
1.27018
1.27179
1.26656
1.27249
1.26875
1.27315
1.27433
1.26907
1.28177
1.2704
1.27341
1.27369
1.26758
1.26683
1.26228
1.26205
1.25547
1.25473
1.2527
1.24216
1.24711
1.2589
1.24523
1.23796
1.26472
1.2712
1.26063
1.25847
1.26252
1.26733
1.26507
1.28068
1.27541
1.22325
1.19191
1.19526
1.18905
1.18617
1.18394
1.18272
1.18085
1.17898
1.17671
1.17426
1.17136
1.16835
1.16514
1.162
1.15873
1.15548
1.15235
1.14903
1.14586
1.14244
1.13914
1.13606
1.13329
1.13113
1.12946
1.128
1.12661
1.12522
1.12322
1.12089
1.11866
1.1166
1.11534
1.11373
1.11137
1.10914
1.10651
1.10657
1.10238
1.0998
1.09788
1.09458
1.09219
1.08944
1.08705
1.08421
1.0837
1.08064
1.08112
1.0829
1.08076
1.08345
1.08874
1.0868
1.08589
1.0909
1.09763
1.10085
1.09858
1.09588
1.09819
1.1073
1.1104
1.11387
1.11563
1.12437
1.1305
1.14038
1.15109
1.16432
1.17223
1.17615
1.18894
1.20823
1.215
1.19769
1.16862
1.13655
1.11743
1.11877
1.12288
1.12275
1.11197
1.09283
1.08386
1.07596
1.06099
1.07029
1.11439
1.16122
1.19872
1.207
1.18824
1.15645
1.13152
1.12169
1.10894
1.09266
1.09421
1.10388
1.1143
1.07095
1.06641
1.10522
1.10158
1.1461
1.08874
1.0605
1.07354
1.10764
1.08771
1.04703
1.09747
1.09602
1.0697
1.11306
1.12404
1.17006
1.18713
1.26348
1.30216
1.24286
1.19441
1.21351
1.26105
1.24383
1.17144
1.1449
1.24773
1.36421
1.33858
1.35706
1.50037
1.33409
1.39503
1.13604
1.27374
1.3016
1.27153
1.27971
1.27744
1.27044
1.26684
1.26531
1.26393
1.26683
1.26495
1.26835
1.2678
1.26731
1.27557
1.27081
1.28267
1.27321
1.28128
1.27646
1.27326
1.28204
1.26821
1.27331
1.26691
1.2695
1.26526
1.24856
1.26032
1.25145
1.23248
1.24457
1.24728
1.24893
1.25288
1.2479
1.26505
1.27413
1.26131
1.26011
1.28637
1.26836
1.20777
1.18997
1.19127
1.18993
1.18892
1.18868
1.1865
1.18429
1.18079
1.17679
1.17271
1.16852
1.16488
1.16122
1.15813
1.15482
1.15185
1.14854
1.14557
1.14245
1.13938
1.13652
1.13372
1.13124
1.12884
1.12649
1.124
1.12138
1.11884
1.11652
1.11462
1.11291
1.11112
1.10887
1.10682
1.10462
1.10376
1.10189
1.09945
1.10026
1.09641
1.09526
1.09321
1.09281
1.09011
1.08944
1.0877
1.08509
1.08424
1.08181
1.07902
1.08037
1.07983
1.0757
1.07862
1.08194
1.08143
1.07729
1.07967
1.09014
1.0956
1.09193
1.08799
1.09763
1.1041
1.1086
1.109
1.11429
1.11926
1.12761
1.13424
1.14418
1.15565
1.15172
1.14691
1.15852
1.17564
1.1765
1.17825
1.16867
1.14615
1.12836
1.12697
1.133
1.12868
1.10382
1.08739
1.06877
1.05369
1.0666
1.11436
1.15058
1.18944
1.204
1.17929
1.1533
1.12763
1.1191
1.12018
1.09782
1.10497
1.09436
1.11302
1.08204
1.05026
1.06472
1.05867
1.09952
1.12095
1.08599
1.07391
1.11324
1.10891
1.05752
1.09046
1.10233
1.05504
1.07858
1.05852
1.135
1.15264
1.18577
1.28613
1.27143
1.20509
1.21079
1.27488
1.25871
1.20635
1.10712
1.21053
1.36852
1.36019
1.38002
1.45508
1.31227
1.37544
1.13987
1.29624
1.30833
1.26098
1.2629
1.26091
1.2592
1.25779
1.25688
1.25804
1.25977
1.26347
1.26029
1.26454
1.26728
1.27716
1.27865
1.27828
1.27819
1.27741
1.28203
1.27648
1.2866
1.27624
1.28066
1.28292
1.26924
1.26618
1.25335
1.25754
1.26146
1.24363
1.23374
1.22333
1.22911
1.24691
1.263
1.27179
1.25804
1.25493
1.28019
1.27132
1.21782
1.1895
1.19205
1.19489
1.19369
1.19167
1.18776
1.18258
1.17726
1.17242
1.1684
1.1654
1.16292
1.16151
1.15983
1.15851
1.15628
1.15391
1.15108
1.14796
1.14509
1.1422
1.13999
1.13799
1.13639
1.13471
1.1329
1.13107
1.1288
1.12639
1.12377
1.12135
1.11909
1.11689
1.11424
1.11171
1.10857
1.10768
1.10395
1.10159
1.09938
1.09627
1.09421
1.09149
1.09068
1.08653
1.08701
1.08561
1.08525
1.08418
1.08317
1.08139
1.07774
1.07983
1.07937
1.07811
1.07664
1.07956
1.07963
1.07386
1.07303
1.08266
1.08694
1.08498
1.0894
1.09758
1.1034
1.10396
1.10546
1.1041
1.11046
1.11744
1.12667
1.1402
1.14015
1.12685
1.12372
1.13675
1.13106
1.13769
1.15932
1.15822
1.13349
1.11221
1.10861
1.12017
1.10712
1.09573
1.06392
1.03508
1.04569
1.0972
1.14771
1.1812
1.20454
1.17506
1.14952
1.13313
1.11611
1.11645
1.11013
1.12534
1.10538
1.11553
1.11037
1.06679
1.08394
1.06804
1.04756
1.06965
1.06943
1.05395
1.09347
1.12977
1.06632
1.09367
1.11438
1.05371
1.07962
0.993076
1.07509
1.14071
1.09593
1.21109
1.28839
1.22438
1.1791
1.25567
1.27642
1.25459
1.11527
1.18614
1.36341
1.37653
1.40127
1.42722
1.29668
1.34105
1.18155
1.3238
1.32949
1.25136
1.2511
1.25079
1.25104
1.24927
1.249
1.25407
1.25536
1.25417
1.25534
1.25931
1.27902
1.28293
1.2739
1.26593
1.27114
1.2742
1.27327
1.27573
1.28717
1.27982
1.28115
1.28524
1.25023
1.23254
1.25304
1.26535
1.25272
1.23755
1.22676
1.22214
1.23492
1.24997
1.25833
1.25601
1.25702
1.27446
1.27329
1.22963
1.19291
1.18939
1.19564
1.19283
1.18817
1.18199
1.17624
1.17206
1.16969
1.16872
1.16855
1.1688
1.1684
1.16761
1.16555
1.16242
1.1585
1.15395
1.14987
1.14624
1.14398
1.14264
1.14211
1.14205
1.1416
1.14108
1.13995
1.13862
1.13713
1.13527
1.13301
1.13042
1.12716
1.12377
1.12009
1.11641
1.1133
1.11112
1.10761
1.10645
1.10315
1.10245
1.09821
1.09465
1.09522
1.08788
1.08769
1.0862
1.08531
1.08631
1.08621
1.08618
1.08173
1.07985
1.07681
1.07593
1.07671
1.07667
1.07814
1.08183
1.07532
1.08024
1.08055
1.08083
1.07904
1.08603
1.09149
1.09414
1.10112
1.0985
1.09818
1.10286
1.10694
1.11602
1.12744
1.1261
1.12423
1.13488
1.11823
1.10734
1.12695
1.14612
1.14154
1.11982
1.09684
1.10046
1.09944
1.10149
1.07939
1.03734
1.0412
1.0778
1.14288
1.17364
1.20021
1.17803
1.14343
1.13968
1.1237
1.11623
1.12265
1.11351
1.11956
1.11784
1.1226
1.08476
1.09069
1.08408
1.10167
1.07236
1.07256
1.06094
1.05529
1.10699
1.05081
1.09992
1.10405
1.03308
1.11049
0.968106
1.01358
1.15063
1.04634
1.099
1.27971
1.21878
1.12775
1.22413
1.28665
1.27193
1.12486
1.16813
1.35752
1.38567
1.41547
1.39388
1.26912
1.30547
1.18121
1.34453
1.32805
1.24167
1.2406
1.24226
1.2442
1.24296
1.24579
1.24774
1.24716
1.24434
1.24853
1.27019
1.28619
1.26748
1.2398
1.24688
1.26414
1.2612
1.25623
1.25436
1.25213
1.2461
1.25425
1.27081
1.26781
1.26392
1.26275
1.24828
1.22402
1.21314
1.2176
1.22904
1.24612
1.25864
1.26297
1.26657
1.27546
1.27275
1.23818
1.19894
1.18688
1.19295
1.19252
1.18535
1.17965
1.17552
1.17415
1.17497
1.1765
1.17732
1.17662
1.17437
1.17066
1.16607
1.16113
1.15633
1.15246
1.14967
1.14846
1.14878
1.14998
1.15182
1.15334
1.15479
1.15506
1.15489
1.15433
1.1532
1.15193
1.15065
1.14836
1.14621
1.14314
1.13909
1.13577
1.13092
1.12716
1.12056
1.11573
1.11019
1.10457
1.10223
1.10023
1.09488
1.09767
1.09083
1.08658
1.08548
1.08686
1.08641
1.0882
1.09407
1.0931
1.08796
1.08672
1.08237
1.0792
1.08082
1.07395
1.07895
1.07066
1.07946
1.07964
1.08679
1.07806
1.08167
1.08503
1.08802
1.09582
1.09625
1.09019
1.09463
1.09714
1.0944
1.10883
1.1156
1.11753
1.13444
1.12948
1.10951
1.10748
1.12476
1.13818
1.13238
1.10493
1.08838
1.09603
1.1066
1.10419
1.04929
1.03797
1.06413
1.13412
1.17569
1.18679
1.18348
1.1504
1.13379
1.12971
1.12516
1.13567
1.11128
1.1262
1.13149
1.11924
1.09994
1.08381
1.05226
1.09656
1.10803
1.09798
1.09945
1.05692
1.07589
1.04196
1.10487
1.08355
1.01837
1.13705
0.998131
0.985192
1.16011
1.05611
1.01926
1.25925
1.18598
1.05759
1.17662
1.2833
1.26994
1.12895
1.15374
1.3507
1.39081
1.42811
1.37892
1.26315
1.26862
1.17089
1.30334
1.26382
1.23194
1.2314
1.23526
1.23727
1.23614
1.23848
1.24001
1.23634
1.23819
1.2518
1.26902
1.26625
1.23861
1.23465
1.26767
1.28898
1.26779
1.24547
1.23946
1.23778
1.23188
1.22528
1.22464
1.22035
1.21415
1.21045
1.21198
1.22022
1.23316
1.24553
1.25836
1.26988
1.27462
1.27658
1.27757
1.26824
1.23888
1.20429
1.18679
1.18967
1.19147
1.18457
1.17828
1.17583
1.17595
1.1778
1.17906
1.17781
1.17503
1.17017
1.16529
1.16077
1.15738
1.15536
1.15468
1.15508
1.15659
1.15849
1.16069
1.16203
1.16302
1.16281
1.1618
1.16021
1.15815
1.15615
1.15454
1.15246
1.15123
1.14976
1.14787
1.14742
1.14495
1.14407
1.14184
1.14067
1.13874
1.13653
1.13242
1.12572
1.11591
1.11188
1.1019
1.10028
1.0976
1.09307
1.08473
1.08316
1.08154
1.08352
1.08789
1.09886
1.09884
1.09493
1.09229
1.08188
1.08556
1.08282
1.08806
1.07848
1.07988
1.07659
1.08806
1.08414
1.08412
1.08053
1.07937
1.08739
1.09598
1.09015
1.08889
1.09525
1.08424
1.09661
1.10632
1.10028
1.11503
1.12483
1.1184
1.10508
1.10363
1.11622
1.13132
1.12716
1.0969
1.0948
1.10094
1.11324
1.06412
1.03275
1.05062
1.11191
1.17521
1.18365
1.1734
1.16147
1.14319
1.12746
1.12677
1.14673
1.11305
1.11745
1.13276
1.12457
1.11844
1.07834
1.05181
1.09024
1.11244
1.09466
1.10731
1.08253
1.07874
1.05301
1.10595
1.08131
1.03132
1.13534
1.04978
0.986005
1.14782
1.09099
1.01298
1.24231
1.16269
1.01302
1.12876
1.27149
1.25235
1.12463
1.14442
1.34542
1.39366
1.44028
1.36206
1.25179
1.2401
1.1571
1.19021
1.16286
1.22234
1.22337
1.22716
1.22816
1.22886
1.2324
1.23089
1.22821
1.23049
1.24162
1.25377
1.26169
1.26483
1.27428
1.29212
1.30645
1.29366
1.26781
1.25314
1.24323
1.23603
1.22956
1.22514
1.22594
1.23465
1.24485
1.2535
1.26135
1.26915
1.27743
1.28275
1.28284
1.27896
1.27151
1.25802
1.23325
1.20464
1.18808
1.18604
1.18805
1.18352
1.17714
1.17425
1.17505
1.177
1.17741
1.17517
1.17063
1.16599
1.16138
1.15882
1.15788
1.15846
1.15997
1.1621
1.16416
1.16577
1.16638
1.16625
1.16518
1.16332
1.1613
1.15908
1.15701
1.15534
1.15362
1.15262
1.15195
1.15049
1.14982
1.14662
1.14465
1.14075
1.1373
1.1342
1.13028
1.13168
1.13267
1.13553
1.13774
1.13225
1.12747
1.12089
1.11132
1.1087
1.10702
1.10423
1.09875
1.08962
1.08311
1.08555
1.09323
1.10209
1.10187
1.10805
1.10065
1.0907
1.08594
1.08803
1.08788
1.0853
1.082
1.08781
1.08918
1.09131
1.09062
1.08139
1.08127
1.09189
1.0939
1.08784
1.09673
1.0868
1.09261
1.10609
1.09179
1.09386
1.09514
1.09913
1.09957
1.09598
1.09323
1.10688
1.13503
1.11776
1.10187
1.09656
1.11875
1.09281
1.04638
1.04858
1.09601
1.16607
1.18716
1.16961
1.1571
1.15225
1.13231
1.1261
1.15164
1.11195
1.11121
1.10107
1.08659
1.11495
1.08401
1.04077
1.07344
1.12278
1.1073
1.10944
1.09954
1.10388
1.06958
1.09957
1.09728
1.03863
1.11629
1.09266
0.995946
1.12755
1.09795
1.04124
1.2421
1.1448
1.00202
1.10376
1.26154
1.22381
1.11277
1.14244
1.34865
1.39165
1.44604
1.35355
1.25297
1.22546
1.15435
1.1005
1.10824
1.21272
1.21486
1.21795
1.21895
1.22079
1.22236
1.21873
1.21528
1.21858
1.22952
1.24908
1.26675
1.26797
1.26289
1.26618
1.28019
1.28554
1.27793
1.27457
1.27353
1.273
1.2722
1.27066
1.26864
1.2672
1.26525
1.26591
1.26901
1.27186
1.27255
1.27105
1.26579
1.25424
1.23954
1.22243
1.20203
1.18792
1.18429
1.18483
1.18258
1.17622
1.17263
1.17357
1.1761
1.17638
1.17453
1.17103
1.16686
1.16402
1.16353
1.1647
1.16665
1.16889
1.17065
1.1714
1.1716
1.17069
1.16923
1.16711
1.16497
1.16293
1.16115
1.15988
1.15897
1.15853
1.15903
1.15853
1.15967
1.15986
1.15989
1.15912
1.15812
1.15609
1.15457
1.14979
1.14289
1.13496
1.13108
1.13022
1.13498
1.13625
1.13111
1.12893
1.11863
1.11444
1.10504
1.11019
1.10472
1.11384
1.09976
1.09516
1.09584
1.10321
1.10142
1.10254
1.11146
1.1055
1.10121
1.09415
1.09924
1.09426
1.0886
1.09228
1.09535
1.093
1.09887
1.09292
1.08815
1.08785
1.09394
1.09096
1.09452
1.09246
1.09524
1.10584
1.0949
1.0947
1.08278
1.07719
1.0858
1.09772
1.08966
1.07844
1.11224
1.11728
1.10614
1.09244
1.11446
1.11199
1.0583
1.04231
1.07648
1.15054
1.18723
1.17589
1.15718
1.14876
1.1367
1.11707
1.14911
1.11194
1.10385
1.08035
1.0485
1.09326
1.09102
1.03556
1.03465
1.08461
1.09829
1.11143
1.10425
1.12107
1.08416
1.09109
1.11434
1.03134
1.09649
1.11172
1.01459
1.11988
1.08168
1.06744
1.25576
1.12136
1.00964
1.11174
1.254
1.18929
1.10008
1.14754
1.35379
1.38988
1.4434
1.35659
1.25227
1.21143
1.16828
1.09094
1.11813
1.20305
1.20584
1.20912
1.20869
1.21037
1.21109
1.20695
1.20208
1.2029
1.21389
1.22748
1.23986
1.2462
1.24604
1.2419
1.24568
1.24802
1.23946
1.23783
1.2437
1.24744
1.24638
1.24248
1.23982
1.23915
1.24254
1.24503
1.24532
1.24373
1.24269
1.24092
1.23249
1.21964
1.20776
1.19584
1.18488
1.18132
1.18124
1.17862
1.17394
1.16996
1.17066
1.17374
1.17567
1.17473
1.17172
1.16853
1.16676
1.16706
1.16903
1.17049
1.17208
1.17207
1.17135
1.17017
1.16903
1.16688
1.16472
1.16246
1.16002
1.15781
1.15571
1.15377
1.15301
1.15125
1.15149
1.15086
1.15011
1.15191
1.15293
1.15323
1.1536
1.15116
1.15273
1.15436
1.1535
1.14889
1.14138
1.13651
1.13822
1.14146
1.14261
1.14193
1.13302
1.13478
1.11462
1.11849
1.10248
1.11122
1.11042
1.1105
1.11219
1.11499
1.11755
1.11287
1.116
1.11278
1.11289
1.10221
1.10275
1.10669
1.09828
1.09906
1.10249
1.09835
1.1032
1.10078
1.10737
1.09754
1.09657
1.09945
1.0947
1.09433
1.10052
1.10228
1.09944
1.10887
1.09651
1.07832
1.07885
1.09555
1.10157
1.07319
1.09306
1.11249
1.11191
1.08908
1.10185
1.1212
1.08109
1.04317
1.06413
1.12731
1.18073
1.18118
1.16717
1.14712
1.13757
1.11035
1.13162
1.10489
1.10454
1.08158
1.04175
1.08021
1.08737
1.06961
1.06616
1.07427
1.07783
1.11256
1.11108
1.12769
1.08885
1.08382
1.12688
1.03013
1.08459
1.11057
1.03116
1.12468
1.06671
1.08665
1.26256
1.09502
1.02939
1.14791
1.23492
1.14991
1.09031
1.15878
1.35785
1.39053
1.4418
1.36334
1.25628
1.20972
1.17396
1.12347
1.15604
1.19359
1.1974
1.20129
1.19968
1.20005
1.20095
1.19853
1.19467
1.19185
1.19561
1.20392
1.20895
1.21343
1.21882
1.21105
1.19829
1.19332
1.19454
1.19782
1.2011
1.20275
1.20313
1.20357
1.20575
1.20878
1.21172
1.21273
1.21357
1.21347
1.2128
1.20899
1.20248
1.19567
1.18872
1.1824
1.17877
1.17825
1.17543
1.17182
1.16947
1.16909
1.17177
1.17445
1.17444
1.1725
1.16971
1.16854
1.16928
1.17094
1.1727
1.17297
1.17234
1.17026
1.16872
1.16673
1.16449
1.16239
1.15985
1.15737
1.15506
1.15337
1.15315
1.15165
1.15229
1.15289
1.15334
1.15503
1.15344
1.15543
1.1586
1.16123
1.1633
1.16161
1.15757
1.15896
1.15582
1.15537
1.1488
1.14056
1.13892
1.13685
1.13859
1.14217
1.13228
1.14038
1.13512
1.13356
1.12757
1.11967
1.11578
1.1119
1.1193
1.12062
1.12203
1.1257
1.12684
1.12104
1.12265
1.11999
1.10993
1.11444
1.11123
1.11181
1.10862
1.11008
1.10925
1.10132
1.11682
1.11136
1.1043
1.10897
1.10244
1.09829
1.10799
1.10876
1.10424
1.1146
1.11364
1.09723
1.08565
1.09053
1.10991
1.08813
1.08618
1.10378
1.1237
1.0987
1.09671
1.1197
1.1035
1.05615
1.05147
1.10275
1.16348
1.18472
1.18288
1.15333
1.13994
1.11753
1.12254
1.09646
1.10876
1.09287
1.0657
1.07851
1.08773
1.07154
1.06453
1.0797
1.05764
1.10242
1.1106
1.13838
1.09312
1.08351
1.12634
1.03632
1.08288
1.10637
1.03968
1.12856
1.05155
1.10143
1.25255
1.06855
1.05483
1.19459
1.19832
1.1091
1.08528
1.17196
1.35555
1.38974
1.44598
1.37355
1.26929
1.22295
1.16627
1.14985
1.20181
1.1846
1.18966
1.19401
1.19242
1.19312
1.19842
1.19607
1.18795
1.18016
1.17852
1.18095
1.17873
1.1744
1.17273
1.17237
1.17272
1.17377
1.18115
1.18759
1.18703
1.18525
1.18711
1.18987
1.18963
1.18978
1.18998
1.19047
1.19044
1.19069
1.18948
1.18614
1.18256
1.1795
1.17698
1.17469
1.17324
1.17214
1.16929
1.16677
1.16572
1.16691
1.17056
1.17221
1.17157
1.17083
1.16985
1.17059
1.1719
1.17343
1.17338
1.17201
1.16975
1.1667
1.16436
1.16228
1.16009
1.1583
1.15636
1.15537
1.15614
1.15581
1.15778
1.15867
1.15866
1.16042
1.1607
1.16466
1.16321
1.16194
1.16309
1.16522
1.16785
1.16875
1.16619
1.1629
1.1586
1.15617
1.1567
1.15348
1.15033
1.14995
1.14526
1.14763
1.14286
1.13391
1.13503
1.13084
1.13617
1.13282
1.13469
1.12609
1.12855
1.12997
1.12689
1.13339
1.13874
1.13244
1.12941
1.13176
1.12525
1.12111
1.12087
1.12846
1.11692
1.12094
1.12419
1.10865
1.12127
1.12676
1.121
1.12327
1.11493
1.10506
1.10967
1.12326
1.12153
1.11575
1.11785
1.11782
1.10378
1.09561
1.11312
1.10883
1.09832
1.09569
1.12626
1.11689
1.09536
1.1165
1.11711
1.08473
1.0468
1.08236
1.14078
1.17225
1.19208
1.17158
1.14216
1.12684
1.13004
1.10065
1.10868
1.1093
1.10472
1.08579
1.10036
1.06765
1.03513
1.05897
1.03591
1.07996
1.08963
1.13807
1.09465
1.08835
1.12085
1.04462
1.0903
1.1015
1.0471
1.12814
1.03735
1.10936
1.22122
1.04767
1.08334
1.21973
1.14501
1.07746
1.08957
1.19133
1.36331
1.41901
1.45567
1.39586
1.2873
1.25074
1.15882
1.17592
1.25411
1.17612
1.18209
1.18583
1.18611
1.1877
1.18958
1.18557
1.18347
1.17758
1.17076
1.1696
1.16713
1.1633
1.16145
1.16771
1.17756
1.18124
1.18018
1.17649
1.17329
1.17407
1.176
1.17676
1.17597
1.17715
1.17718
1.17744
1.17771
1.17726
1.17592
1.17492
1.17382
1.17198
1.16997
1.16879
1.16812
1.16596
1.16297
1.1624
1.16353
1.16585
1.16943
1.17096
1.17089
1.17089
1.17068
1.17155
1.17194
1.17199
1.17069
1.16896
1.16544
1.16268
1.1606
1.15853
1.15693
1.15642
1.15718
1.15667
1.15868
1.15896
1.15986
1.16172
1.16097
1.16226
1.16024
1.16184
1.16484
1.16467
1.1642
1.16344
1.16502
1.16525
1.1659
1.16719
1.1607
1.1561
1.14666
1.14689
1.14852
1.15219
1.15143
1.14858
1.15517
1.14919
1.1499
1.14139
1.13956
1.13506
1.1374
1.13374
1.13424
1.1388
1.13208
1.13663
1.14584
1.1429
1.13865
1.14108
1.14314
1.13629
1.1289
1.13794
1.13312
1.12983
1.13987
1.12613
1.12374
1.13644
1.13799
1.13711
1.13025
1.1196
1.11403
1.1364
1.14711
1.12811
1.11721
1.12837
1.12763
1.11717
1.11909
1.12043
1.11888
1.10053
1.12408
1.13691
1.11476
1.10826
1.12586
1.1112
1.06075
1.06672
1.12392
1.15495
1.18519
1.19012
1.15401
1.13918
1.13922
1.11944
1.10667
1.11674
1.13095
1.10841
1.11885
1.06798
1.02574
1.05113
1.04533
1.08
1.07771
1.13591
1.09655
1.09139
1.11169
1.04928
1.10372
1.08868
1.05381
1.12754
1.02884
1.11616
1.18175
1.03671
1.11245
1.19797
1.09138
1.05608
1.10651
1.22154
1.38892
1.48172
1.45977
1.42603
1.30404
1.28163
1.15461
1.20415
1.30677
1.16824
1.17481
1.17708
1.17669
1.17728
1.17869
1.17719
1.17219
1.16454
1.16296
1.1655
1.16574
1.1646
1.16496
1.16854
1.1692
1.16691
1.16618
1.1671
1.16875
1.16976
1.16889
1.16822
1.16757
1.16746
1.16754
1.16745
1.16814
1.16859
1.16857
1.16811
1.16723
1.16677
1.16656
1.16584
1.16359
1.16159
1.1601
1.16021
1.16139
1.16459
1.16825
1.16951
1.17075
1.17085
1.17096
1.17177
1.17106
1.17074
1.16926
1.16638
1.16277
1.16126
1.15897
1.15716
1.1573
1.15666
1.15849
1.15867
1.16136
1.16246
1.16157
1.16321
1.16485
1.16695
1.16751
1.16645
1.16786
1.17046
1.17358
1.17591
1.17369
1.17456
1.16782
1.17361
1.17263
1.17301
1.16805
1.15987
1.15675
1.15349
1.15861
1.15327
1.15364
1.14747
1.14998
1.15263
1.15108
1.1501
1.15032
1.14639
1.14215
1.1479
1.14125
1.13801
1.15223
1.15087
1.14577
1.14925
1.15368
1.15107
1.14209
1.14384
1.14997
1.1459
1.15027
1.14807
1.1358
1.14411
1.16066
1.15271
1.14359
1.14274
1.12459
1.14393
1.16522
1.14237
1.12139
1.1299
1.14178
1.1469
1.13142
1.12322
1.1398
1.12344
1.12893
1.13414
1.14129
1.09943
1.12933
1.12472
1.08993
1.05884
1.10146
1.14339
1.16997
1.19487
1.17412
1.15633
1.15038
1.14501
1.1134
1.11545
1.12878
1.10868
1.13177
1.09318
1.04001
1.05537
1.06256
1.09402
1.07221
1.14066
1.10653
1.09974
1.10731
1.05188
1.11638
1.07499
1.06186
1.13194
1.02176
1.12126
1.14535
1.03374
1.13886
1.14153
1.05352
1.0561
1.13874
1.26629
1.41896
1.50042
1.45795
1.436
1.31254
1.29931
1.16149
1.2401
1.36263
1.16137
1.16879
1.16972
1.16758
1.16662
1.17178
1.17605
1.17352
1.16663
1.16086
1.15693
1.15631
1.15584
1.15749
1.15932
1.16145
1.16238
1.15847
1.15676
1.16024
1.16336
1.16426
1.16455
1.16438
1.16392
1.16309
1.1628
1.1628
1.16167
1.1613
1.16193
1.16176
1.16066
1.15983
1.15958
1.15886
1.15717
1.15647
1.15753
1.15969
1.16302
1.16612
1.16764
1.1689
1.16863
1.16895
1.16863
1.16832
1.16854
1.16615
1.16384
1.16247
1.1605
1.15923
1.15819
1.1589
1.15775
1.16018
1.16131
1.16383
1.16599
1.16666
1.16265
1.16287
1.16586
1.16958
1.17252
1.17071
1.17491
1.17302
1.17879
1.17635
1.17403
1.16888
1.16314
1.16137
1.1605
1.16229
1.16169
1.16553
1.15916
1.16258
1.16117
1.16476
1.16507
1.15579
1.1563
1.15135
1.15193
1.15559
1.15676
1.15155
1.15752
1.15631
1.14431
1.15804
1.15673
1.14949
1.15729
1.16331
1.16125
1.15911
1.15459
1.15612
1.16637
1.16021
1.15844
1.15411
1.15126
1.17579
1.16385
1.15239
1.16582
1.14347
1.15685
1.17129
1.15214
1.1445
1.14247
1.1448
1.17026
1.14987
1.12658
1.14685
1.15037
1.13949
1.12326
1.15242
1.10955
1.13264
1.12975
1.12254
1.07591
1.0753
1.12455
1.15333
1.18507
1.1868
1.17066
1.15602
1.16422
1.13351
1.11917
1.11888
1.08453
1.1211
1.11733
1.06411
1.07062
1.08048
1.11566
1.06743
1.13459
1.10921
1.10402
1.1024
1.05299
1.12217
1.06387
1.07159
1.13752
1.0157
1.12449
1.1163
1.03644
1.15545
1.08484
1.03749
1.07374
1.18725
1.31672
1.42355
1.44043
1.51953
1.43303
1.31044
1.29862
1.17052
1.28321
1.41287
1.15579
1.16382
1.16359
1.16277
1.16445
1.17134
1.16884
1.16514
1.16347
1.15794
1.1517
1.15072
1.15077
1.1514
1.15139
1.15286
1.15632
1.15686
1.15575
1.15486
1.15573
1.15641
1.15504
1.15618
1.15705
1.15815
1.15891
1.16008
1.16079
1.16012
1.15909
1.15772
1.15726
1.1575
1.15523
1.15297
1.15211
1.15181
1.15208
1.15417
1.15775
1.16149
1.16448
1.16607
1.16678
1.16726
1.16654
1.16717
1.16645
1.16475
1.16512
1.16214
1.15937
1.1614
1.159
1.15938
1.16073
1.16351
1.16398
1.1667
1.16359
1.16554
1.16574
1.16738
1.17186
1.17085
1.17805
1.17368
1.17838
1.17575
1.17538
1.17357
1.17054
1.17056
1.16706
1.16643
1.16388
1.16561
1.16068
1.16511
1.16441
1.16399
1.16474
1.16095
1.16491
1.16278
1.16777
1.16612
1.16472
1.16424
1.16452
1.16156
1.16752