/*--------------------------------*- C++ -*----------------------------------*\
| =========                 |                                                 |
| \\      /  F ield         | OpenFOAM: The Open Source CFD Toolbox           |
|  \\    /   O peration     | Version:  dev                                   |
|   \\  /    A nd           | Web:      http://www.openfoam.org               |
|    \\/     M anipulation  |                                                 |
\*---------------------------------------------------------------------------*/
FoamFile
{
    version     2.0;
    format      ascii;
    class       volScalarField;
    object      T;
    location    "9.166";
}
// * * * * * * * * * * * * * * * * * * * * * * * * * * * * * * * * * * * * * //

dimensions      [0 0 0 1 0 0 0];

internalField   nonuniform List<scalar> 
12225
(
290.986
290.615
290.726
290.779
290.918
291.014
291.302
291.363
291.844
291.753
292.501
292.097
293.158
292.448
293.406
293.788
293.461
293.929
290.563
290.332
290.537
290.238
290.474
290.042
290.593
289.929
290.97
289.86
291.572
289.858
291.992
290.327
291.728
291.634
291.987
291.617
290.713
290.373
290.785
290.191
290.668
289.944
290.639
289.803
290.627
289.876
290.607
290.18
290.725
290.663
291.077
290.991
291.81
291.413
290.952
290.338
290.855
290.357
290.636
290.378
290.452
290.542
290.347
290.807
290.409
291.003
290.711
291.199
291.039
291.467
291.176
292.225
290.857
290.683
290.717
290.749
290.473
290.84
290.429
291.01
290.553
291.19
290.776
291.239
291.094
291.308
291.413
291.328
291.848
291.836
290.683
291.196
290.663
291.233
290.539
291.193
290.55
291.314
290.708
291.484
290.908
291.609
291.187
291.737
291.518
291.793
291.969
292.072
290.508
291.556
290.743
291.63
290.7
291.488
290.813
291.575
291.009
291.597
291.2
291.713
291.527
291.826
291.793
291.964
292.053
292.181
290.51
291.711
290.805
291.751
290.81
291.585
291.001
291.683
291.2
291.643
291.388
291.849
291.741
292.003
291.916
292.146
292.184
292.381
290.652
291.809
290.985
291.904
291.011
291.741
291.173
291.795
291.379
291.769
291.63
292.005
291.964
292.119
292.108
292.256
292.361
292.497
290.826
292.019
291.159
292.111
291.189
291.989
291.413
292.067
291.674
292.068
291.929
292.234
292.177
292.347
292.385
292.53
292.7
292.852
291.117
292.284
291.448
292.359
291.534
292.296
291.8
292.369
292.074
292.418
292.357
292.605
292.633
292.818
292.899
293.042
293.269
293.38
291.525
292.572
291.954
292.696
292.09
292.741
292.412
292.845
292.68
292.966
292.992
293.207
293.309
293.464
293.606
293.774
293.987
294.14
292.159
292.988
292.708
293.152
292.872
293.339
293.25
293.55
293.542
293.778
293.92
294.105
294.272
294.45
294.635
294.81
295.038
295.218
292.953
293.515
293.591
293.862
293.898
294.2
294.349
294.555
294.67
294.893
295.078
295.258
295.482
295.656
295.842
296.063
296.301
296.482
293.881
294.345
294.618
294.859
295.043
295.276
295.553
295.744
295.948
296.188
296.41
296.629
296.856
297.09
297.325
297.528
297.746
297.958
294.991
295.383
295.801
296.086
296.302
296.541
296.84
297.076
297.344
297.59
297.852
298.115
298.368
298.633
298.876
299.125
299.387
299.592
296.269
296.694
297.172
297.477
297.748
298.039
298.314
298.591
298.862
299.106
299.361
299.604
299.876
300.15
300.408
300.676
300.923
301.155
297.76
298.158
298.573
298.838
299.129
299.399
299.619
299.903
300.11
300.335
300.59
300.773
301.034
301.251
301.473
301.719
301.878
302.173
299.038
299.353
299.764
299.925
300.176
300.418
300.512
300.797
300.883
301.016
301.26
301.276
301.554
301.664
301.792
302.056
302.061
302.352
300.137
300.409
300.725
300.683
300.94
301.043
301
301.314
301.204
301.303
301.475
301.343
301.641
301.613
301.732
301.907
301.821
302.112
301.08
301.246
301.365
301.214
301.495
301.431
301.359
301.572
301.332
301.409
301.426
301.261
301.448
301.337
301.418
301.497
301.418
301.557
301.843
301.899
301.862
301.752
301.773
301.631
301.624
301.546
301.427
301.364
301.238
301.174
301.097
301.054
301.01
300.964
300.924
300.837
302.427
302.271
302.136
302.135
301.964
301.8
301.757
301.441
301.393
301.211
301
300.983
300.736
300.712
300.602
300.454
300.456
300.22
302.848
302.615
302.477
302.267
302.035
301.871
301.68
301.496
301.302
301.086
300.894
300.698
300.55
300.391
300.297
300.126
300.055
299.874
303.133
302.818
302.641
302.386
302.159
301.939
301.702
301.556
301.27
301.085
300.824
300.572
300.391
300.128
300.009
299.784
299.682
299.516
303.403
303.021
302.787
302.49
302.197
301.947
301.712
301.512
301.284
301.078
300.83
300.604
300.349
300.115
299.886
299.657
299.478
299.27
303.539
303.149
302.888
302.568
302.254
301.979
301.715
301.468
301.213
300.958
300.701
300.443
300.188
299.934
299.686
299.441
299.206
298.984
303.67
303.199
302.925
302.61
302.297
301.998
301.687
301.376
301.048
300.732
300.413
300.118
299.817
299.537
299.248
298.985
298.726
298.502
303.73
303.193
302.922
302.594
302.254
301.914
301.565
301.222
300.883
300.563
300.256
299.979
299.709
299.488
299.271
299.119
298.947
298.856
303.832
303.372
303.213
303.02
302.811
302.608
302.418
302.248
302.091
301.95
301.821
301.705
301.6
301.512
301.428
301.364
301.299
301.273
302.154
298.892
301.339
301.301
301.925
302.488
302.956
303.362
303.675
303.845
303.969
304.181
304.194
303.978
303.844
303.794
303.762
303.512
303.131
302.832
302.614
302.281
301.735
301.475
300.881
300.425
300.429
299.578
299.512
299.957
299.887
301.132
301.856
300.914
299.696
298.517
297.921
298.255
298.427
297.96
296.669
294.803
293.954
292.937
291.221
292.113
295.461
298.012
298.967
299.349
300.7
302.422
302.6
301.79
301.147
300.645
300.162
299.7
299.255
298.823
298.401
297.985
297.573
297.163
296.758
296.357
295.964
295.576
295.192
294.804
294.402
293.975
293.525
293.058
292.585
292.114
291.643
291.174
290.708
290.233
289.724
289.145
288.554
288.147
287.663
287.07
286.655
286.141
285.692
285.286
284.872
284.507
284.158
283.85
283.533
283.201
282.869
282.525
282.097
281.628
281.155
280.638
280.126
279.678
279.177
278.639
278.063
277.44
276.759
276.246
275.692
275.112
274.36
273.57
272.868
272.146
271.901
271.865
271.972
272.212
272.499
273.489
275.34
276.973
277.638
277.789
277.398
277.059
277.01
277.199
277.673
278.692
279.5
280.04
281.295
282.863
284.098
284.96
285.193
285.526
286.858
286.384
283.579
283.26
283.996
282.421
280.676
280.07
279.828
280.616
278.711
276.898
276.045
275.044
274.355
272.967
271.715
271.2
269.029
268.586
267.551
265.825
266.037
265.545
263.427
263.586
260.876
256.481
254.761
257.114
256.747
251.236
252.377
253.064
232.302
236.964
244.168
224.73
234.285
244.231
304.167
296.642
297.03
299.322
301.288
302.937
304.318
305.411
306.374
307.04
307.052
307.697
308.061
307.283
307.364
307.309
307.324
307.468
306.231
306.114
306.313
305.109
305.459
304.66
303.224
303.135
301.277
300.218
300.006
297.624
297.417
298.263
295.96
295.871
296.809
292.753
287.783
287.56
288.243
287.207
284.887
281.657
283.972
290.729
288.067
285.632
294.625
302.406
302.677
301.94
301.714
301.363
300.819
300.3
299.834
299.399
298.993
298.601
298.225
297.86
297.513
297.161
296.821
296.47
296.111
295.744
295.373
295.026
294.719
294.437
294.15
293.808
293.396
292.935
292.481
292.088
291.715
291.28
290.856
290.417
289.984
289.242
288.272
288.157
287.572
286.426
286.127
285.174
284.184
283.667
282.721
281.989
281.379
280.872
280.549
280.249
279.964
280.001
279.905
279.354
278.761
277.832
276.305
274.852
273.541
272.068
270.723
269.63
267.904
265.982
264.249
262.784
261.941
261.314
261.596
261.658
261.99
263.279
263.982
264.358
264.736
266.194
270.653
276.66
278.637
278.902
278.369
275.983
273.962
269.821
264.082
261.414
262.471
264.586
267.955
272.921
277.669
281.023
282.939
286.735
288.653
282.616
276.992
281.281
286.418
278.533
275.203
273.968
278.372
286.815
280.075
271.359
270.184
270.737
266.434
263.433
261.209
259.519
255.311
252.742
250.128
245.002
246.189
249.038
250.011
249.751
244.006
232.543
226.689
230.95
234.093
224.595
227.477
221.932
189.137
211.23
216.124
217.586
204.202
211.315
307.03
299.487
296.415
297.97
301.325
304.104
306.138
307.473
308.167
309.134
309.182
308.896
309.968
308.308
308.358
308.347
307.797
307.167
306.791
307.352
305.93
306.968
307.203
305.725
307.004
305.109
304.541
304.479
300.489
302.334
300.664
293.755
295.557
297.344
294.078
294.389
295.218
290.565
286.384
286.849
288.413
286.727
285.876
295.553
302.389
302.207
302.521
302.792
302.42
302.02
301.613
301.177
300.786
300.407
300.099
299.795
299.545
299.298
299.092
298.881
298.696
298.522
298.322
298.093
297.77
297.359
296.888
296.387
295.993
295.719
295.553
295.42
295.171
294.803
294.391
294.149
294.027
293.773
293.47
293.06
293.134
292.905
292.149
292.321
291.855
291.164
290.925
290.261
288.983
288.604
287.25
286.065
285.19
283.791
282.912
282.445
281.17
280.296
280.522
280.853
281.016
280.721
279.501
278.158
277.218
275.678
273.86
271.533
269.792
266.922
264.92
263.284
261.288
258.618
256.857
257.903
261.028
266.593
272.037
275.304
275.027
272.886
275.652
284.197
290.745
293.43
293.818
292.43
293.158
287.702
275.298
265.191
260.513
261.251
265.251
271.759
278.54
281.538
283.852
289.925
289.163
280.683
279.03
288.595
288.31
275.774
277.34
273.588
288.871
299.879
288.538
276.063
277.747
283.995
272.638
270.47
269.672
261.922
258.428
252.198
246.665
235.043
234.883
244.881
252.954
249.136
238.606
231.06
233.629
232.947
226.199
213.097
216.824
212.006
183.717
205.957
200.688
242.964
212.403
207.02
308.294
303.278
301.715
304.222
307.04
308.692
309.557
310.079
310.407
309.742
310.713
308.928
309.463
307.982
307.254
308.047
304.486
306.665
305.365
304.694
305.526
305.042
305.45
304.787
305.64
305.052
304.757
306.529
304.482
300.793
303.227
304.127
296.81
294.401
295.955
295.537
293.653
291.596
291.163
286.662
286.89
298.151
304.995
303.159
303.771
303.539
303.146
302.503
302.035
301.573
301.22
300.92
300.74
300.597
300.512
300.414
300.357
300.297
300.211
300.181
300.112
300.111
300.081
299.992
299.821
299.485
299.016
298.486
297.932
297.372
296.968
296.645
296.292
295.892
295.275
294.75
294.427
294.073
293.831
292.884
293.076
292.856
292.477
292.489
292.281
292.194
292.038
292.035
291.435
291.558
290.767
289.668
289.659
288.408
286.517
286.59
286.442
284.791
282.758
281.699
282.098
282.671
282.022
279.689
278.96
278.199
277.929
275.996
274.777
272.723
270.556
267.887
266.515
266.092
263.709
259.975
259
263.223
270.249
278.344
283.565
283.646
282.978
283.332
286.354
291.605
294.2
296.491
300.742
298.107
286.202
274.476
265.639
263.511
267.31
274.246
279.81
281.721
284.361
287.962
286.915
283.767
280.478
291.158
291.748
280.914
281.274
269.817
283.482
290.505
286.492
277.197
281.78
292.23
278.301
278.137
284.413
272.747
269.454
258.172
253.739
237.613
229.717
239.648
248.321
243.399
233.163
235.116
248.23
252.498
230.168
208.961
211.255
206.651
185.298
206.776
196.373
239.777
212.833
207.676
309.161
307.161
307.656
309.277
310.051
310.292
310.467
309.565
309.799
308.717
308.563
308.365
306.018
306.775
303.522
305.326
302.921
303.554
303.774
301.128
303.813
301.978
302.855
301.563
301.877
305.193
301.612
302.988
306.863
303.087
301.617
300.396
298.611
298.946
294.034
291.071
293.144
292.527
285.663
288.807
302.35
305.938
304.673
304.079
303.409
302.546
302.184
301.838
301.825
301.951
302.107
302.3
302.36
302.431
302.364
302.36
302.271
302.277
302.198
302.161
302.115
302.016
301.901
301.698
301.472
301.231
301.023
300.842
300.637
300.367
299.975
299.529
299.1
298.788
298.42
298.091
297.403
296.989
296.735
295.61
295.753
295.182
294.868
294.133
294.037
293.417
293.113
293.073
292.589
292.563
292.677
291.707
291.288
291.887
290.624
289.309
289.067
289.855
288.946
285.951
284.357
285.2
286.184
283.674
282.071
281.043
281.12
280.018
279.062
277.327
276.08
274.089
271.803
273.191
274.817
272.54
269.033
269.286
269.313
271.919
277.649
282.395
283.065
281.83
283.125
289.676
294.18
299.382
303.684
299.955
286.955
277.704
268.35
264.765
269.919
275.556
281.316
282.886
281.994
287.077
284.572
286.674
281.213
288.562
296.602
291.943
293.007
281.543
275.594
283.918
286.593
275.968
276.521
289.449
280.188
276.612
288.414
281.502
286.131
266.136
261.304
253.152
232.568
234.202
246.095
243.977
230.679
232.359
241.104
261.263
237.453
208.556
208.214
203.57
191.483
210.757
199.75
239.709
209.836
207.346
309.378
308.889
309.336
309.689
309.942
310.041
309.607
309.003
307.892
308.435
307.135
306.176
303.481
302.766
302.465
302.068
301.805
300.242
301.046
298.155
300.024
298.419
297.296
299.883
299.972
302.386
300.7
299.07
302.635
304.323
306.152
303.944
298.827
294.229
291.391
293.766
293.666
287.04
288.195
299.983
306.255
304.73
303.134
302.567
302.21
302.336
302.797
303.305
303.699
303.895
303.83
303.637
303.173
302.784
302.304
302.07
301.875
301.808
301.82
301.769
301.726
301.507
301.228
300.845
300.478
300.142
299.806
299.583
299.389
299.245
299.042
298.79
298.515
298.357
298.167
298.135
297.498
297.627
297.391
297.124
297.108
296.823
296.731
296.138
296.477
295.577
295.215
294.597
294.2
293.818
293.681
294.093
292.984
292.612
292.503
292.497
291.35
291.023
292.331
292.358
289.609
288.371
288.851
287.702
285.63
284.25
284.29
284.143
284.788
283.495
282.102
280.196
277.297
277.749
281.485
282.733
279.939
281.783
280.545
275.66
276.234
282.561
288.233
289.389
286.558
290.037
293.101
301.873
310.244
306.991
292.395
279.263
271.022
265.393
271.618
277.164
280.624
284.29
283.559
284.492
279.985
284.364
281.094
281.687
292.476
287.196
290.844
295.9
289.157
288.623
292.296
281.178
271.588
287.207
279.485
273.702
288.842
281.273
305.001
280.97
264.025
273.899
246.946
231.104
242.209
250.593
234.279
229.169
231.904
259.522
242.614
209.651
206.124
200.929
195.755
213.973
205.624
232.175
206.36
204.954
309.037
309.088
309.132
309.01
309.363
309.318
307.934
307.457
307.562
307.064
305.857
300.877
299.659
301.453
302.996
301.375
300.241
300.024
298.985
295.846
297.044
296.217
294.735
302.428
306.188
300.584
297.047
299.407
302.425
304.418
304.884
301.03
296.692
293.991
293.79
292.805
288.044
287.537
296.953
305.298
305.406
303.012
302.923
303.305
304.084
304.768
305.051
304.872
304.332
303.59
302.744
302.074
301.509
301.276
301.33
301.594
302.029
302.35
302.56
302.411
302.02
301.416
300.688
300.06
299.45
298.995
298.586
298.215
297.932
297.747
297.643
297.708
297.804
297.971
298.139
298.151
297.913
298.031
297.524
297.597
296.976
297.322
297.503
296.581
297.827
297.152
296.854
296.419
295.497
294.901
294.319
294.975
294.974
295.334
295.151
294.555
294.234
293.549
292.312
293.905
292.439
292.277
292.175
292.699
290.905
289.594
289.086
287.496
288.475
288.899
288.048
287.39
285.473
282.997
283.753
284.649
282.385
286.986
290.181
285.455
280.939
282.281
287.937
294.118
293.241
293.536
292.956
298.872
310.878
309.566
298.821
281.493
273.739
267.254
271.803
279.488
279.822
283.143
284.381
282.046
283.657
281.426
281.143
279.217
288.211
285.957
287.028
281.793
288.841
288.149
290.699
291.636
277.408
291.652
278.053
276.376
294.708
273.496
312.902
298.063
261.749
286.885
272.159
232.686
243.367
262.056
240.377
227.447
228.885
257.552
246.687
210.937
205.221
199.447
201.093
219.454
212.148
233.372
204.257
206.293
308.431
308.695
308.252
307.72
307.951
307.156
306.555
306.555
307.087
305.871
300.445
296.465
300.575
306.997
304.947
300.446
300.771
301.562
301.59
301.685
302.687
300.249
295.853
296.057
296.468
296.218
299.103
304.468
306.616
304.897
301.448
296.688
293.092
291.429
289.934
287.24
287.163
294.479
303.407
305.779
303.507
302.893
303.998
304.738
305.078
304.706
303.769
302.656
301.73
301.197
301.068
301.318
301.806
302.393
302.955
303.281
303.33
302.966
302.203
301.214
300.061
298.995
297.953
297.214
296.588
296.055
295.665
295.303
294.936
294.819
294.658
294.726
295.042
295.165
295.685
295.92
296.902
297.424
298.142
298.893
298.772
298.567
299.288
297.806
298.968
299.453
299.099
298.084
297.602
296.535
294.395
294.135
295.041
294.937
295.727
296.246
295.498
297.132
295.545
297.674
295.145
295.043
293.094
295.52
294.64
293.89
293.29
291.449
291.624
293.581
292.757
292.478
293.62
290.199
288.828
288.717
284.776
286.361
291.826
292.642
288.361
285.105
286.652
293.818
298.295
296.158
293.218
293.682
308.852
311.993
304.032
284.909
274.399
271.351
271.572
278.789
282.234
282.549
283.031
279.657
285.06
280.554
278.489
280.765
284.918
288.419
296.317
283.64
280.009
281.901
280.879
291.524
285.716
294.379
277.002
281.76
299.11
267.191
303.561
306.722
259.639
284.269
293.528
236.522
250.208
279.516
250.169
228.206
229.465
256.943
250.174
212.441
205.002
198.31
204.05
221.467
219.398
236.749
212.002
218.166
307.619
307.753
306.768
306.226
306.444
305.78
305.301
306.083
305.484
302.002
297.723
298.172
304.604
305.341
297.126
291.924
296.483
301.447
302.545
302.573
303.622
304.84
304.569
305.201
306.3
306.761
305.891
303.333
299.643
296.146
292.587
289.38
287.737
286.717
285.909
287.414
293.615
301.432
305.256
303.893
302.802
303.924
304.903
304.893
304.219
303.095
302.131
301.811
301.886
302.504
303.137
303.685
303.949
303.856
303.416
302.696
301.694
300.595
299.428
298.488
297.645
297.111
296.781
296.595
296.529
296.441
296.251
296.168
295.863
295.607
295.451
294.918
294.896
294.455
294.36
293.982
293.797
293.679
294.051
295.104
297.004
297.394
299.407
299.185
299.265
299.873
301.569
301.419
301.312
300.234
298.525
295.07
294.632
295.281
295.629
298.155
296.875
297.402
295.789
298.285
297.822
298.706
295.574
296.71
296.836
297.995
298.539
296.595
294.556
296.453
297.15
295.794
299.186
296.19
293.954
295.927
292.343
290.077
291.987
295.712
296.255
292.999
289.096
290.097
298.003
298.435
296.577
293.034
306.257
315.248
309.531
292.055
275.828
273.31
275.096
277.272
281.014
284.206
283.651
277.927
285.558
283.676
279.032
280.254
280.979
290.616
297.143
285.925
279.465
283.27
279.323
284.997
285.294
291.583
276.973
282.549
295.521
267.726
288.741
306.559
262.499
275.253
295.405
239.876
255.37
291.958
260.933
230.551
233.005
258.329
252.701
213.793
205.215
197.364
207.48
224.598
225.699
241.053
233.747
238.778
306.62
306.365
305.4
305.118
304.893
303.948
304.232
304.792
304.106
301.243
298.174
296.138
295.22
292.828
288.56
285.157
287.722
293.316
296.458
298.513
299.927
301.164
301.893
301.327
298.823
295.975
293.526
291.279
289.055
286.736
285.088
284.594
284.973
286.146
288.711
293.995
300.458
304.123
304.116
303.063
303.678
304.771
304.964
304.201
303.138
302.472
302.489
303.104
303.751
304.398
304.518
304.215
303.514
302.578
301.488
300.425
299.484
298.809
298.328
298.09
298.057
298.067
298.13
298.152
298.066
297.992
297.723
297.358
297.19
296.809
297.069
297.005
297.434
297.742
297.954
298.378
297.394
296.518
295.147
293.95
294.749
295.378
296.502
298.453
298.575
298.46
298.664
299.628
301.631
302.967
301.84
299.3
296.503
296.205
294.231
295.925
298.392
299.508
298.791
298.727
299.39
300.307
298.747
298.458
298.011
298.379
301.153
301.45
298.811
298.573
300.573
298.484
301.564
300.309
296.978
301.183
300.901
300.794
299.894
299.898
300.95
301.721
297.946
290.404
294.681
298.689
299.849
293.546
300.1
313.008
311.927
297.952
279.496
273.908
277.346
279.629
280.058
284.217
284.992
277.85
286.932
286.326
288.064
291.019
282.75
289.924
301.091
291.157
277.545
280.631
279.318
281.039
279.18
287.419
278.885
278.695
293.663
272.489
277.586
303.647
267.362
273.667
287.501
240.08
259.569
295.368
267.075
232.661
238.834
261.578
253.708
213.886
206.242
197.411
209.817
225.654
229.812
243.246
254.611
252.383
305.538
305.011
304.226
303.95
303.452
303.005
303.838
304.613
303.685
300.868
296.029
291.76
291.324
292.324
291.375
287.99
286.588
288.082
288.618
288.619
288.49
288.407
288.476
288.64
288.656
288.783
288.301
287.251
286.25
285.723
285.68
286.477
288.713
291.73
295.398
299.99
303.127
303.623
303.043
303.169
304.35
304.82
304.11
302.986
302.443
302.445
302.875
303.484
303.752
303.408
302.635
301.667
300.628
299.721
299.081
298.585
298.376
298.314
298.426
298.547
298.646
298.681
298.584
298.395
298.079
297.516
297.204
296.463
295.958
295.482
295.201
294.967
294.985
294.866
295.575
296.834
298.374
298.858
298.541
296.74
295.856
296.65
296.68
298.875
299.479
301.521
299.638
300.66
297.755
301.148
302.025
301.478
299.132
299.311
298.74
296.103
297.506
298.508
300.335
298.879
300.224
301.815
300.874
300.141
300.943
299.523
301.38
302.961
303.339
301.955
303.099
302.446
303.336
302.874
300.259
303.516
303.794
307.326
309.058
306.665
303.318
305.491
308.542
298.946
297.288
299.927
303.298
296.858
297
311.546
315.81
305.241
284.977
275.476
277.381
281.081
282.332
284.489
288.63
279.713
288.166
289.424
294.713
302.715
289.398
289.006
303.51
302.965
288.084
283.617
279.441
280.384
275.364
283.988
281.431
274.756
296.043
277.679
273.069
298.304
269.417
278.047
280.676
237.687
265.277
293.431
265.484
234.426
246.249
265.197
253.241
213.774
207.347
198.714
210.503
227.21
234.077
242.096
258.786
252.094
304.453
303.765
302.938
303.028
302.582
302.36
303.344
304.505
304.215
301.365
297.919
294.826
293.2
293.103
293.932
292.882
292.169
294.019
294.23
292.654
291.581
291.619
292.316
292.709
292.626
291.576
290.732
290.392
290.479
290.432
290.546
292.228
294.993
297.577
300.218
302.663
303.237
302.91
303.226
304.07
304.734
304.179
303.002
302.12
301.978
302.367
302.806
302.877
302.413
301.521
300.763
299.975
299.601
299.417
299.35
299.283
299.476
299.682
299.917
300.208
300.442
300.651
300.819
300.68
300.797
300.387
300.196
300.03
299.187
298.539
298.068
297.569
297.786
296.96
296.109
295.89
296.63
298.129
298.948
298.034
296.721
295.953
295.663
297.529
296.622
301.551
300.092
304.052
301.29
301.153
300.809
300.053
299.034
298.107
299.146
298.123
298.843
298.706
301.539
301.374
300.319
302.679
302.568
301.767
303.081
301.954
302.855
301.302
304.283
304.854
304.356
305.987
306.385
304.931
304.685
305.673
303.228
306.756
311.992
311.833
306.992
305.151
312.999
307.02
301.269
300.962
306.765
302.671
296.839
307.206
317.755
310.874
292.772
278.763
277.826
280.302
284.321
285.799
291.875
285.45
291.384
290.527
295.653
305.921
294.048
291.067
294.882
294.936
291.729
289.795
279.864
279.297
274.305
283.28
283.78
272.094
296.784
281.072
273.682
293.843
268.567
282.302
276.065
236.715
272.04
288.243
257.534
238.525
255.282
268.274
251.564
213.947
208.213
199.989
210.742
228.075
236.199
242.881
253.378
245.923
303.36
302.413
301.44
301.841
301.735
301.485
302.062
302.992
303.649
302.624
300.452
299.114
297.915
296.5
298.301
301.368
302.507
302.078
301.122
300.16
299.601
299.352
299.079
298.363
297.431
296.527
296.088
295.685
295.502
295.452
296.163
297.543
299.01
300.524
301.891
302.571
302.448
302.905
303.563
303.893
303.707
302.722
301.737
301.442
301.64
302.057
302.059
301.566
300.837
300.086
299.716
299.582
299.823
299.929
300.156
300.458
300.729
301.119
301.505
301.854
302.044
301.854
301.998
301.583
301.174
300.799
300.096
300.24
299.441
298.333
297.356
296.515
296.627
297.333
296.639
297.096
296.855
298.184
299.964
300.017
300.18
299.335
298.015
300.239
297.739
298.765
298.838
300.101
301.916
302.688
303.49
301.259
300.702
300.152
299.014
298.593
300.05
299.569
300.265
303.012
301.852
302.82
302.798
303.842
303.639
304.092
306.536
302.538
304.295
306.525
305.518
307.615
309.048
306.575
306.55
307.948
305.193
305.494
310.031
313.252
311.699
306.013
311.815
311.998
306.56
300.57
306.792
306.71
299.716
303.361
316.224
316.914
301.434
284.874
278.862
278.361
284.53
286.888
291.64
289.325
295.158
290.858
293.998
300.398
295.784
292.188
295.504
296.437
291.219
296.243
283.229
280.156
272.385
282.771
284.402
272.705
295.498
281.954
275.144
291.874
268.037
286.799
272.817
239.038
279.295
281.871
247.993
246.43
265.431
270.335
249.634
215.242
209.402
200.573
210.576
227.487
235.603
246.706
249.885
238.848
302.241
300.978
299.893
300.3
300.128
298.796
299.373
301.401
303.361
303.747
303.078
303.601
304.666
305.046
305.084
304.935
304.596
302.619
300.898
300.952
301.311
300.743
299.94
299.891
299.741
299.569
299.321
299.199
299.002
299.165
299.866
300.626
301.254
301.742
302.163
302.364
302.465
303.009
303.469
303.539
303.022
301.867
301.228
301.176
301.148
301.179
300.769
300.213
299.601
299.395
299.526
299.889
300.462
300.858
301.194
301.57
301.847
302.173
302.258
301.886
301.81
301.14
300.751
300.594
299.981
299.744
298.553
298.746
298.886
298.392
297.64
296.753
296.299
296.714
297.306
298.152
298.515
298.104
298.652
299.18
298.987
299.915
299
299.955
302.041
301.471
302.331
300.668
301.335
300.633
302.751
301.939
301.433
302.162
300.332
298.867
300.511
301.326
300.737
302.55
303.784
303.992
302.121
305.445
304.574
303.938
308.47
305.273
304.052
305.88
305.532
308.08
311.073
309.987
306.375
306.936
308.589
307.996
307.894
311.631
313.718
308.473
309.259
311.744
311.945
302.845
304.665
309.904
303.252
302.238
310.403
320.825
309.466
292.73
283.899
278.163
281.989
288.181
291.02
289.114
295.717
292.484
291.19
291.251
295.21
290.157
297.875
306.078
298.017
303.503
290.045
286.407
273.214
283.072
283.762
274.617
293.732
280.56
276.865
290.35
268.639
291.271
271.425
245.743
285.53
275.156
243.538
258.685
274.132
270.241
246.593
215.051
206.219
200.538
208.718
226.262
232.47
250.792
246.899
231.348
301.129
299.634
298.708
298.658
298.275
297.819
298.839
299.38
300.882
302.637
302.935
303.57
304.563
305.037
303.39
300.835
299.875
300.117
301.028
301.817
301.582
301.046
300.81
300.966
300.619
300.554
300.428
300.296
300.346
300.62
300.803
301.006
301.396
301.825
302.033
302.099
302.547
303.206
303.231
302.807
302.071
301.011
300.477
300.355
300.212
300.124
299.757
299.515
299.358
299.548
299.85
300.612
301.193
301.606
302.023
302.328
302.354
302.059
302.099
301.493
301.343
301.037
300.486
300.608
300.202
300.651
300.154
299.29
299.236
299.253
299.332
298.803
298.61
298.301
297.818
299.319
300.333
302.622
302.37
301.745
300.582
300.575
301.115
299.197
300.565
300.189
302.268
302.589
303.65
302.897
303.78
303.571
302.3
304.077
302.852
300.437
301.255
302.459
301.914
301.499
303.481
305.663
303.454
304.981
306.125
303.7
307.691
308.643
305.471
305.313
305.809
307.909
311.043
312.777
306.731
303.914
309.04
311.991
308.74
308.68
311.243
310.333
309.488
309.346
313.854
306.575
302.317
307.467
308.396
302.638
305.661
319.252
316.559
299.501
290.425
281.927
279.639
287.235
289.814
288.649
292.574
294.796
290.952
286.098
290.727
286.797
299.199
310.248
301.481
301.921
291.073
290.554
274.589
283.387
283.705
277.557
293.119
277.762
280.732
289.145
269.395
294.359
270.445
254.669
289.371
268.777
248.799
272.372
280.74
267.213
241.608
212.225
198.704
201.508
205.951
225.574
229.156
254.463
243.848
224.648
300.044
298.393
297.844
297.973
297.856
297.536
297.953
299.26
301.264
301.708
301.086
301.057
301.385
301.322
300.427
300.281
300.896
301.106
300.89
300.485
300.244
300.481
300.667
300.845
300.888
300.875
300.903
300.726
300.61
300.609
300.719
300.93
301.028
301.056
301.211
301.751
302.227
302.561
302.476
302.105
301.209
300.197
299.804
299.415
299.319
299.217
298.938
299.047
299.056
299.364
300.036
300.901
301.231
301.775
302.201
302.127
302.266
301.766
301.71
301.006
300.725
300.965
300.554
300.144
299.614
299.479
299.754
299.389
298.716
297.905
297.292
297.819
297.557
299.223
297.686
297.865
297.685
298.859
300.869
301.576
302.322
300.875
302.156
301.952
303.476
302.72
301.945
302.283
302.487
302.39
303.411
304.544
303.047
304.869
305.82
302.145
302.627
304.128
303.376
302.408
303.313
305.946
305.751
304.402
305.773
304.917
305.811
309.427
307.475
303.358
305.709
308.373
308.778
313.907
308.694
303.076
309.099
314.75
312.163
308.608
306.831
310.577
312.309
307.119
310.846
308.551
306.264
303.397
313.956
304.625
304.807
313.469
321.659
308.199
295.817
287.942
280.749
284.477
287.622
287.886
288
294.955
293.153
288.431
292.37
285.099
293.8
307.45
301.629
298.282
288.48
293.129
274.402
281.739
282.397
279.446
293.201
275.328
285.046
287.704
269.07
297.22
270.021
263.611
291.184
263.5
262.165
283.32
281.947
260.873
234.289
209.041
197.696
203.481
206.395
226.534
228.644
255.965
239.691
218.226
298.902
297.034
296.827
297.41
297.705
296.45
295.433
296.135
297.951
299.501
300.588
300.821
301.013
300.655
300.249
299.767
299.596
300.676
301.188
300.351
299.612
299.448
299.439
299.553
299.735
300.012
300.147
300.207
300.556
300.702
300.589
300.674
300.997
301.245
301.335
301.541
301.996
302.185
301.911
301.348
300.481
299.675
299.277
298.946
299.008
298.919
298.992
299.063
299.003
299.609
300.204
300.558
301.078
301.422
301.716
301.565
301.907
301.327
301.094
300.514
300.037
299.948
301.069
301.101
300.418
299.55
298.883
299.426
298.429
298.98
297.577
298.246
298.881
300.235
301.745
302.223
302.456
301.992
302.142
301.135
302.775
301.868
302.216
301.272
301.185
303.603
303.481
304.809
304.691
303.78
303.543
305.007
303.548
304.001
307.355
303.897
304.449
306.602
304.784
303.477
304.305
305.173
306.696
306.622
304.263
306.228
307.041
308.523
309.604
303.436
306.817
310.086
306.671
312.786
309.243
305.447
310.442
312.317
312.615
311.64
304.414
309.29
315.084
308.806
307.04
309.102
312.609
303.674
314.309
306.8
306.438
307.237
319.422
318.499
303.417
294.638
285.488
283.764
286.373
288.702
285.362
291.791
294.198
292.933
300.791
289.564
289.074
302.071
298.825
294.723
284.134
295.662
276.949
282.091
282.271
281.612
293.818
274.741
288.903
285.966
268.592
299.982
270.192
271.471
291.583
260.821
277.15
289.025
278.661
251.555
226.683
209.897
207.791
196.978
209.034
229.487
231.653
257.259
234.727
213.447
297.646
295.622
295.711
295.967
295.607
293.943
294.659
295.69
296.215
297.733
299.453
299.814
299.911
299.854
299.964
299.69
298.901
298.869
299.265
299.606
299.491
299.429
299.897
299.718
299.607
299.435
299.349
299.158
299.082
299.36
299.725
300.174
300.386
300.408
301.074
301.739
302.031
302.171
302.156
301.662
300.779
299.858
299.134
298.775
298.643
298.568
298.802
298.69
298.929
299.42
299.382
300.213
300.999
300.55
301.259
301.256
301.012
300.41
300.414
299.85
300.797
300.444
300.55
300.284
299.294
299.713
298.038
299.304
298.263
299.079
299.312
299.908
300.809
300.923
301.936
302.204
302.963
302.602
303.969
302.894
303.151
303.338
303.218
304.287
303.34
303.987
302.79
303.333
303.824
304.093
304.181
305.14
303.784
303.451