/*--------------------------------*- C++ -*----------------------------------*\
| =========                 |                                                 |
| \\      /  F ield         | OpenFOAM: The Open Source CFD Toolbox           |
|  \\    /   O peration     | Version:  dev                                   |
|   \\  /    A nd           | Web:      http://www.openfoam.org               |
|    \\/     M anipulation  |                                                 |
\*---------------------------------------------------------------------------*/
FoamFile
{
    version     2.0;
    format      ascii;
    class       volVectorField;
    object      U;
    location    "9.166";
}
// * * * * * * * * * * * * * * * * * * * * * * * * * * * * * * * * * * * * * //

dimensions      [0 1 -1 0 0 0 0];

internalField   nonuniform List<vector> 
12225
(
(7.12919 0.453692 0)
(5.06846 0.287472 0)
(3.52816 0.128257 0)
(3.62283 0.0781906 0)
(2.65623 0.107044 0)
(3.56043 0.0847878 0)
(2.31851 0.142674 0)
(3.6271 0.0636713 0)
(1.97101 0.173261 0)
(3.77935 0.0434502 0)
(1.63567 0.207448 0)
(4.06764 0.0257568 0)
(1.61491 0.215866 0)
(4.05551 0.0438219 0)
(3.42056 -0.0375607 0)
(1.69891 1.29614 0)
(8.88091 -2.32627 0)
(-0.898412 2.90179 0)
(9.56933 1.14061 0)
(10.2813 1.08411 0)
(7.84681 0.697932 0)
(9.25485 0.437467 0)
(5.97294 0.373984 0)
(9.07229 0.28673 0)
(4.78351 0.328933 0)
(9.50104 0.233086 0)
(3.79575 0.281271 0)
(10.5022 0.159978 0)
(3.21882 0.312458 0)
(11.7702 -0.186638 0)
(3.90081 0.874853 0)
(12.6896 -1.54496 0)
(6.08376 2.41868 0)
(12.7354 -3.78563 0)
(12.909 1.55173 0)
(2.09056 4.86878 0)
(9.3387 0.953593 0)
(12.9962 1.2851 0)
(9.31217 0.970149 0)
(13.3379 0.766198 0)
(7.93361 0.642444 0)
(13.4649 0.61042 0)
(6.68286 0.517472 0)
(13.8091 0.496479 0)
(6.1088 0.463727 0)
(14.0594 0.162154 0)
(6.93968 0.65928 0)
(13.6662 -0.593621 0)
(8.91976 1.18747 0)
(12.7143 -1.83666 0)
(11.0899 2.26581 0)
(10.907 -4.32707 0)
(13.0011 4.95843 0)
(15.2562 -3.59303 0)
(7.09256 0.758785 0)
(14.7491 1.40749 0)
(9.02461 1.12856 0)
(15.6215 0.953951 0)
(9.53252 0.94914 0)
(15.6594 0.757552 0)
(9.74561 0.926761 0)
(15.2768 0.417483 0)
(10.3685 1.00705 0)
(14.6872 -0.219927 0)
(11.2256 1.35937 0)
(14.0419 -1.22724 0)
(11.8588 2.1715 0)
(13.2887 -2.95289 0)
(12.9176 3.98691 0)
(12.2389 -6.19414 0)
(14.5178 2.65508 0)
(13.6852 4.87562 0)
(6.99112 0.903499 0)
(14.0881 1.12565 0)
(10.2602 1.3471 0)
(14.4091 0.778411 0)
(11.6675 1.34239 0)
(14.2752 0.622376 0)
(12.4809 1.41813 0)
(13.7947 0.239194 0)
(13.2149 1.49209 0)
(13.3587 -0.382388 0)
(13.4485 1.86711 0)
(13.0025 -1.32932 0)
(13.6804 2.74572 0)
(12.7898 -2.72404 0)
(14.5472 4.38399 0)
(12.5761 -5.46636 0)
(13.8598 6.40849 0)
(15.5163 -4.69491 0)
(8.65398 0.914558 0)
(11.1406 0.690542 0)
(11.1596 1.64334 0)
(11.8184 0.576014 0)
(12.4409 1.70502 0)
(12.0735 0.427134 0)
(12.9113 1.81709 0)
(12.3457 -0.0067753 0)
(13.3744 1.94322 0)
(12.7192 -0.402298 0)
(13.4239 2.16768 0)
(12.9946 -0.985576 0)
(13.6805 2.35203 0)
(13.4799 -1.70683 0)
(14.3611 2.37508 0)
(13.7948 -2.48321 0)
(12.6537 1.16459 0)
(15.6758 -1.05162 0)
(10.0218 1.31061 0)
(10.7575 0.668759 0)
(11.6523 2.03294 0)
(11.5159 0.466177 0)
(12.4788 2.20853 0)
(11.9169 0.404653 0)
(12.8765 2.35756 0)
(12.4539 -0.0886547 0)
(13.3215 2.39687 0)
(12.9528 -0.380878 0)
(13.543 2.49953 0)
(13.2975 -0.880713 0)
(13.6262 2.3961 0)
(13.7663 -1.50535 0)
(13.8158 2.31532 0)
(13.7505 -2.21274 0)
(12.9807 1.53295 0)
(13.7477 -0.296292 0)
(10.0161 1.32881 0)
(10.7472 0.547282 0)
(11.5491 2.29502 0)
(11.4245 0.410899 0)
(12.2424 2.44514 0)
(11.942 0.355079 0)
(12.9244 2.42316 0)
(12.574 -0.0153756 0)
(13.3073 2.30275 0)
(12.9785 0.0204688 0)
(13.4794 2.15412 0)
(13.4002 -0.208465 0)
(13.3989 1.57919 0)
(13.6859 -0.310362 0)
(13.336 1.08736 0)
(13.4898 -0.295326 0)
(12.7554 0.585688 0)
(13.1528 0.521158 0)
(10.351 1.36255 0)
(11.0501 0.561624 0)
(11.6356 2.53336 0)
(11.6702 0.478703 0)
(12.3025 2.61179 0)
(12.0914 0.444104 0)
(12.8244 2.52415 0)
(12.5842 0.22506 0)
(13.0921 2.34813 0)
(12.9425 0.230703 0)
(13.3462 2.1287 0)
(13.3657 -0.0337164 0)
(13.2159 1.60649 0)
(13.4302 -0.0557002 0)
(13.1644 1.14855 0)
(13.0761 0.0960781 0)
(12.7541 0.585705 0)
(12.731 0.756812 0)
(10.462 1.46263 0)
(10.9668 0.676576 0)
(11.6495 2.68932 0)
(11.5865 0.656978 0)
(12.1397 2.68591 0)
(12.129 0.681557 0)
(12.6509 2.47459 0)
(12.6368 0.566378 0)
(12.9125 2.2504 0)
(12.9754 0.677201 0)
(13.0878 1.94206 0)
(13.1857 0.589568 0)
(12.8998 1.49816 0)
(13.1683 0.725979 0)
(12.9058 1.04602 0)
(12.8858 0.754086 0)
(12.8032 0.719528 0)
(12.7183 0.979084 0)
(10.2817 1.46605 0)
(10.9752 0.977474 0)
(11.4902 2.88203 0)
(11.6153 0.947967 0)
(11.9377 2.68718 0)
(12.1402 0.971747 0)
(12.4527 2.44283 0)
(12.6429 0.928606 0)
(12.7525 2.25597 0)
(12.8805 1.01366 0)
(12.918 1.91564 0)
(13.0487 0.960963 0)
(12.8816 1.52889 0)
(13.0624 1.06969 0)
(12.9598 1.11801 0)
(12.9323 1.03243 0)
(12.9267 0.921946 0)
(12.8315 1.00567 0)
(10.2981 1.4517 0)
(10.9901 1.28002 0)
(11.362 2.82789 0)
(11.6284 1.32009 0)
(11.9399 2.60211 0)
(12.2105 1.39307 0)
(12.4002 2.37599 0)
(12.5647 1.41786 0)
(12.6361 2.15625 0)
(12.7816 1.47115 0)
(12.8396 1.92744 0)
(12.8998 1.41332 0)
(12.8815 1.62022 0)
(12.9078 1.43929 0)
(12.8711 1.38245 0)
(12.8178 1.37063 0)
(12.8196 1.32538 0)
(12.795 1.35048 0)
(10.2599 1.31493 0)
(11.1361 1.67814 0)
(11.314 2.77435 0)
(11.5996 1.75261 0)
(11.7768 2.57743 0)
(12.017 1.82346 0)
(12.169 2.31678 0)
(12.342 1.82563 0)
(12.4805 2.12624 0)
(12.6613 1.85291 0)
(12.7658 1.958 0)
(12.8605 1.78089 0)
(12.9006 1.76915 0)
(12.9066 1.71556 0)
(12.9343 1.65354 0)
(12.9002 1.63196 0)
(12.8692 1.64396 0)
(12.8562 1.62785 0)
(10.4105 1.21853 0)
(11.1688 2.22122 0)
(11.3069 2.74569 0)
(11.6346 2.25148 0)
(11.8319 2.57488 0)
(12.0337 2.24792 0)
(12.1751 2.35583 0)
(12.3141 2.17244 0)
(12.4504 2.21818 0)
(12.5966 2.14047 0)
(12.7321 2.14241 0)
(12.8398 2.09271 0)
(12.9144 2.04343 0)
(12.9762 2.02146 0)
(13.017 1.98957 0)
(13.0201 1.96186 0)
(13.0006 1.97352 0)
(13.01 1.98037 0)
(10.1524 1.21111 0)
(10.9428 2.69384 0)
(11.1756 2.66606 0)
(11.446 2.51652 0)
(11.6801 2.63396 0)
(11.9242 2.57233 0)
(12.1368 2.54341 0)
(12.3295 2.46032 0)
(12.4849 2.3986 0)
(12.6276 2.33224 0)
(12.7314 2.28055 0)
(12.8232 2.24058 0)
(12.8816 2.21368 0)
(12.9317 2.19195 0)
(12.9643 2.19626 0)
(12.984 2.21573 0)
(12.9805 2.26754 0)
(13.0236 2.29922 0)
(10.3236 0.767235 0)
(11.0376 2.99447 0)
(11.3299 2.91188 0)
(11.552 2.80643 0)
(11.76 2.76407 0)
(12.022 2.70698 0)
(12.2272 2.65589 0)
(12.4183 2.62629 0)
(12.5329 2.62302 0)
(12.6278 2.62429 0)
(12.6638 2.63118 0)
(12.7018 2.62735 0)
(12.7052 2.61232 0)
(12.7263 2.59886 0)
(12.7342 2.59421 0)
(12.7619 2.57342 0)
(12.7701 2.56813 0)
(12.8611 2.57414 0)
(10.0338 0.784951 0)
(10.692 3.17018 0)
(11.0187 3.12397 0)
(11.301 3.04992 0)
(11.5369 3.00174 0)
(11.774 2.9574 0)
(11.9316 2.91089 0)
(12.0893 2.88587 0)
(12.1789 2.88769 0)
(12.2929 2.88146 0)
(12.3728 2.87817 0)
(12.473 2.8631 0)
(12.5411 2.84539 0)
(12.6256 2.81336 0)
(12.6704 2.76788 0)
(12.7452 2.74797 0)
(12.7581 2.73455 0)
(12.8559 2.70434 0)
(9.86197 0.889131 0)
(10.3648 3.20109 0)
(10.7289 3.13319 0)
(11.1312 3.04975 0)
(11.4583 3.00495 0)
(11.724 3.00684 0)
(11.8903 3.00502 0)
(12.0439 3.02409 0)
(12.1395 3.02497 0)
(12.2579 2.99541 0)
(12.3554 2.9897 0)
(12.4541 2.95517 0)
(12.527 2.94384 0)
(12.6126 2.94315 0)
(12.6376 2.92568 0)
(12.7009 2.92104 0)
(12.6899 2.89788 0)
(12.7743 2.87915 0)
(9.9839 0.878069 0)
(10.4809 3.11645 0)
(10.855 2.98135 0)
(11.1859 2.9301 0)
(11.419 2.96581 0)
(11.6229 3.01854 0)
(11.8038 3.01993 0)
(12.0093 3.02717 0)
(12.1961 2.99387 0)
(12.3832 2.94095 0)
(12.539 2.92681 0)
(12.6667 2.88474 0)
(12.7524 2.88255 0)
(12.8346 2.87586 0)
(12.8588 2.84921 0)
(12.9102 2.84576 0)
(12.8801 2.80301 0)
(12.9427 2.77317 0)
(9.99876 0.79303 0)
(10.492 2.86125 0)
(10.8001 2.78719 0)
(11.1378 2.79504 0)
(11.443 2.84652 0)
(11.749 2.82996 0)
(11.9957 2.75555 0)
(12.2025 2.70322 0)
(12.3607 2.63975 0)
(12.4903 2.6174 0)
(12.5942 2.63317 0)
(12.6915 2.64641 0)
(12.7623 2.69788 0)
(12.8483 2.72914 0)
(12.8764 2.75379 0)
(12.93 2.75352 0)
(12.9219 2.73144 0)
(12.9857 2.7215 0)
(10.0905 0.561694 0)
(10.4893 2.63322 0)
(10.8717 2.51395 0)
(11.31 2.43217 0)
(11.6574 2.43365 0)
(11.9884 2.4544 0)
(12.1889 2.48137 0)
(12.3418 2.49991 0)
(12.4655 2.48267 0)
(12.5464 2.45407 0)
(12.6354 2.41776 0)
(12.7176 2.38321 0)
(12.7733 2.37359 0)
(12.86 2.3719 0)
(12.8893 2.37241 0)
(12.9521 2.36797 0)
(12.9746 2.38047 0)
(13.0593 2.37386 0)
(10.0072 0.763718 0)
(10.4302 2.27715 0)
(10.8159 2.02802 0)
(11.2081 2.008 0)
(11.5523 2.04883 0)
(11.8951 2.09484 0)
(12.1521 2.13049 0)
(12.3917 2.10276 0)
(12.5705 2.08549 0)
(12.7098 2.04895 0)
(12.7997 2.02305 0)
(12.8555 2.03769 0)
(12.8853 2.03173 0)
(12.9065 2.07643 0)
(12.9054 2.09025 0)
(12.9405 2.09911 0)
(12.9827 2.13356 0)
(13.0471 2.12033 0)
(9.95467 0.635842 0)
(10.4727 1.92846 0)
(10.9034 1.69892 0)
(11.2883 1.63349 0)
(11.6477 1.6474 0)
(11.9717 1.68841 0)
(12.2554 1.72727 0)
(12.5025 1.74901 0)
(12.6617 1.76131 0)
(12.8044 1.76617 0)
(12.877 1.76571 0)
(12.9349 1.76003 0)
(12.9814 1.76152 0)
(13.0044 1.75536 0)
(13.0418 1.73789 0)
(13.0912 1.74747 0)
(13.1457 1.74316 0)
(13.1788 1.71831 0)
(10.11 0.571169 0)
(10.5555 1.55434 0)
(11.0258 1.32585 0)
(11.4519 1.24927 0)
(11.8049 1.23438 0)
(12.0921 1.26879 0)
(12.3351 1.31397 0)
(12.5373 1.34288 0)
(12.6927 1.35776 0)
(12.8217 1.36769 0)
(12.9154 1.37107 0)
(13.0022 1.37562 0)
(13.0733 1.38237 0)
(13.1399 1.38291 0)
(13.2212 1.40405 0)
(13.3139 1.43025 0)
(13.3802 1.45097 0)
(13.4203 1.44863 0)
(9.73736 0.306537 0)
(10.2561 1.08097 0)
(11.0259 0.891966 0)
(11.6232 0.867911 0)
(12.0433 0.888321 0)
(12.3584 0.932421 0)
(12.6039 0.99237 0)
(12.7969 1.04216 0)
(12.9375 1.07027 0)
(13.0383 1.08036 0)
(13.0916 1.07071 0)
(13.1264 1.06288 0)
(13.1425 1.02555 0)
(13.1818 1.0166 0)
(13.241 1.02645 0)
(13.303 1.03258 0)
(13.3506 1.04202 0)
(13.4074 1.04542 0)
(9.83763 0.239017 0)
(10.5944 0.663331 0)
(11.2934 0.496893 0)
(11.7746 0.505117 0)
(12.081 0.556085 0)
(12.319 0.597581 0)
(12.5469 0.650914 0)
(12.7754 0.696835 0)
(12.98 0.738616 0)
(13.1582 0.77183 0)
(13.2833 0.78799 0)
(13.3599 0.784152 0)
(13.392 0.770804 0)
(13.4252 0.77209 0)
(13.4309 0.771369 0)
(13.4253 0.759766 0)
(13.4131 0.762632 0)
(13.4187 0.76807 0)
(9.85062 -0.047582 0)
(10.6247 0.154388 0)
(11.406 0.101948 0)
(11.9377 0.185074 0)
(12.2571 0.272965 0)
(12.4638 0.334478 0)
(12.607 0.368417 0)
(12.7176 0.382163 0)
(12.8025 0.397247 0)
(12.8711 0.427118 0)
(12.9048 0.45583 0)
(12.9242 0.469609 0)
(12.9179 0.493468 0)
(12.8922 0.504651 0)
(12.8374 0.500798 0)
(12.7637 0.487912 0)
(12.6892 0.494104 0)
(12.6072 0.500834 0)
(9.96199 -0.284139 0)
(10.8254 -0.285034 0)
(11.5009 -0.223215 0)
(11.8091 -0.0907549 0)
(11.8874 0.019741 0)
(11.8688 0.113073 0)
(11.7982 0.178145 0)
(11.6825 0.223511 0)
(11.5424 0.24768 0)
(11.3959 0.27256 0)
(11.2476 0.291732 0)
(11.1181 0.308944 0)
(10.9845 0.323733 0)
(10.8315 0.33422 0)
(10.6733 0.343445 0)
(10.506 0.353487 0)
(10.3467 0.364649 0)
(10.1772 0.374288 0)
(10.2483 -0.579087 0)
(10.4818 -0.667841 0)
(10.2671 -0.505739 0)
(9.7701 -0.27741 0)
(9.25953 -0.0922844 0)
(8.86916 0.0465383 0)
(8.56482 0.13211 0)
(8.31433 0.174959 0)
(8.09917 0.194751 0)
(7.90696 0.208455 0)
(7.72755 0.220981 0)
(7.57233 0.231266 0)
(7.41985 0.235575 0)
(7.26936 0.242902 0)
(7.12963 0.244013 0)
(6.98013 0.24308 0)
(6.84988 0.235324 0)
(6.72023 0.24443 0)
(8.47395 -0.424938 0)
(6.46218 -0.303267 0)
(5.03212 -0.0467665 0)
(4.19362 0.0843388 0)
(3.83131 0.120813 0)
(3.73991 0.125381 0)
(3.73569 0.118032 0)
(3.75461 0.107322 0)
(3.76758 0.0998288 0)
(3.76929 0.0974768 0)
(3.75948 0.0973677 0)
(3.74607 0.100624 0)
(3.72336 0.100544 0)
(3.69264 0.0976386 0)
(3.65819 0.0950292 0)
(3.61683 0.0950325 0)
(3.57137 0.0901935 0)
(3.50185 0.111013 0)
(-0.244605 1.05516 0)
(-0.910029 0.889164 0)
(-1.47985 0.689495 0)
(-1.93102 0.522335 0)
(-2.16073 0.319241 0)
(-2.14006 0.0624495 0)
(-1.88721 -0.166565 1.18832e-17)
(-1.41388 -0.356235 -1.18111e-17)
(-0.779923 -0.465743 0)
(-0.0474262 -0.519084 -1.16568e-17)
(0.706114 -0.490988 0)
(1.4192 -0.463396 0)
(2.15973 -0.480627 0)
(2.92759 -0.405267 1.13243e-17)
(3.58021 -0.252906 0)
(4.12773 -0.143836 0)
(4.62825 -0.0730037 -1.10695e-17)
(5.04732 0.0335242 0)
(5.37901 0.1671 0)
(5.62171 0.287814 0)
(5.77587 0.405357 1.07068e-17)
(5.78491 0.51895 0)
(5.69174 0.651164 1.05197e-17)
(5.50814 0.764223 0)
(5.20906 0.857573 0)
(4.83312 0.966494 1.02486e-17)
(4.30034 1.03823 0)
(3.69998 1.08513 -1.0075e-17)
(3.03288 1.16597 0)
(2.2422 1.1991 9.94899e-18)
(1.49589 0.954138 0)
(0.857844 0.494268 0)
(0.440301 0.278339 0)
(0.225261 0.237172 0)
(0.0784324 0.224441 0)
(0.115789 0.256179 -9.5016e-18)
(0.335557 0.244243 0)
(0.597839 0.170565 1.87235e-17)
(0.920125 0.155249 0)
(1.25658 0.239838 -1.84438e-17)
(1.53233 0.291468 0)
(1.92482 0.224984 0)
(2.38074 0.257664 1.78167e-17)
(2.6522 0.457595 0)
(2.99075 0.469401 1.7408e-17)
(3.52859 0.415389 -1.73446e-17)
(3.9808 0.0429443 0)
(4.09009 -0.823204 -1.74427e-17)
(4.01459 -1.39935 -1.73723e-17)
(3.84406 -1.22792 0)
(3.46682 -0.265632 0)
(2.42321 0.935222 0)
(0.800575 1.50941 0)
(-0.786208 1.45876 0)
(-2.17403 1.32902 1.67352e-17)
(-3.41871 1.22565 0)
(-4.53542 1.11638 -1.64423e-17)
(-5.51655 1.01995 0)
(-6.36319 0.944658 0)
(-7.10614 0.857925 1.60291e-17)
(-7.76017 0.778813 0)
(-8.30152 0.714258 -1.5767e-17)
(-8.72757 0.645426 0)
(-9.07429 0.565734 0)
(-9.33089 0.497872 0)
(-9.51294 0.431075 1.52688e-17)
(-9.62257 0.383934 0)
(-9.6811 0.341602 0)
(-9.72377 0.318806 1.49121e-17)
(-9.73329 0.303719 0)
(-9.7044 0.278378 1.46787e-17)
(-9.62517 0.242673 0)
(-9.48464 0.203029 0)
(-9.31165 0.171408 0)
(-9.13765 0.16546 -1.42129e-17)
(-8.95924 0.168541 0)
(-8.76118 0.157123 0)
(-8.54942 0.158788 -1.38682e-17)
(-8.32912 0.154761 -1.37549e-17)
(-8.10659 0.157774 0)
(-7.85992 0.143237 -1.35275e-17)
(-7.55835 0.134491 0)
(-7.3076 0.182472 -2.65877e-17)
(-7.07711 0.186355 0)
(-6.73179 0.157844 -2.61514e-17)
(-6.45247 0.199498 0)
(-6.16877 0.199855 2.57089e-17)
(-5.84132 0.205579 0)
(-5.56034 0.226931 0)
(-5.26556 0.226518 0)
(-4.96963 0.241384 -2.48622e-17)
(-4.72885 0.25705 0)
(-4.44683 0.281719 2.4464e-17)
(-4.13606 0.282563 0)
(-3.88305 0.28683 -2.40806e-17)
(-3.6141 0.29296 -2.389e-17)
(-3.34336 0.298235 -2.37013e-17)
(-3.08864 0.29597 0)
(-2.83792 0.293528 0)
(-2.59992 0.277473 0)
(-2.33288 0.257807 0)
(-2.05386 0.237697 0)
(-1.81395 0.21394 0)
(-1.62904 0.205977 0)
(-1.46784 0.189581 0)
(-1.33894 0.173663 2.19963e-17)
(-1.24086 0.150893 2.18099e-17)
(-1.18525 0.141031 0)
(-1.15655 0.118154 0)
(-1.20746 0.130926 0)
(-1.31014 0.149667 2.10748e-17)
(-1.44938 0.163127 0)
(-1.70619 0.154883 0)
(-2.06921 0.137606 0)
(-2.39316 0.128846 0)
(-2.67621 0.119666 -2.01468e-17)
(-2.97681 0.0848492 0)
(-3.13057 0.0305348 0)
(-3.18351 0.0138748 1.97427e-17)
(-3.25537 -0.00651717 -1.96295e-17)
(-3.29285 -0.0751311 0)
(-3.27267 -0.104344 -1.94588e-17)
(-3.22783 -0.0924257 0)
(-2.934 -0.0548375 1.94395e-17)
(-2.49969 -0.017722 0)
(-2.1805 -0.0146095 0)
(-1.82105 0.0133846 0)
(-1.46803 0.057635 0)
(-1.10399 0.0819957 0)
(-0.918964 0.162188 -3.7313e-17)
(-1.03979 0.179449 -3.71175e-17)
(-1.2907 0.128223 0)
(-1.53897 0.101116 0)
(-1.5609 0.0787488 0)
(-1.34854 0.075838 3.65874e-17)
(-1.13747 0.0545006 0)
(-1.04446 0.10463 0)
(-1.36106 0.275053 0)
(-2.22265 0.436919 3.60665e-17)
(-3.48675 0.606083 -3.58521e-17)
(-4.71061 0.652384 0)
(-5.31064 0.564721 0)
(-5.55996 0.486432 -3.49038e-17)
(-6.73382 0.578911 -3.46137e-17)
(-7.66247 0.580115 0)
(-7.46263 0.617778 0)
(-8.13818 0.691262 3.36438e-17)
(-9.31014 0.687067 -3.3351e-17)
(-10.0592 0.440978 0)
(-9.37345 0.472545 0)
(-8.34748 0.505112 -3.25853e-17)
(-8.1896 0.640823 0)
(-8.83084 0.527825 0)
(-7.93384 0.495109 -3.15525e-17)
(-7.6728 0.622416 0)
(-8.0737 0.583857 -3.09131e-17)
(-7.24281 0.50011 0)
(-7.13806 0.593126 0)
(-6.68916 0.614253 0)
(-6.25515 0.734239 2.96392e-17)
(-6.62331 0.732989 0)
(-6.48696 0.739499 0)
(-6.16908 0.738824 0)
(-7.10631 0.88184 0)
(-6.72281 0.776221 0)
(-5.60654 0.835929 0)
(-5.90315 0.828703 2.76113e-17)
(-6.72668 0.979082 2.6995e-17)
(-6.57492 0.945437 0)
(-6.07946 0.903596 0)
(-6.04772 0.921461 0)
(-6.65858 0.885143 -2.5869e-17)
(-4.92482 0.504023 0)
(-3.94596 1.10834 5.16219e-17)
(-5.7326 1.65289 -4.71195e-17)
(-1.55405 1.06254 -4.78136e-17)
(-4.28335 1.17238 4.89648e-17)
(-0.966704 0.374091 -4.4829e-17)
(6.51973 1.24593 4.64099e-17)
(4.45718 1.17241 0)
(0.0133752 2.07033 0)
(-0.128133 2.37135 0)
(-0.347741 2.11878 -2.39972e-17)
(-0.620199 1.61382 0)
(-0.710538 0.929101 2.39816e-17)
(-0.547427 0.131341 2.39312e-17)
(-0.165914 -0.593132 1.19009e-17)
(0.388894 -1.1469 1.19153e-17)
(1.02327 -1.49754 0)
(1.70232 -1.69143 1.18071e-17)
(2.38497 -1.66145 0)
(3.06967 -1.44254 0)
(3.67249 -1.50924 -2.31373e-17)
(4.31935 -1.38977 -1.14836e-17)
(4.87434 -0.92964 2.27587e-17)
(5.31908 -0.732763 2.25924e-17)
(5.91074 -0.583326 1.12406e-17)
(6.27647 -0.268613 0)
(6.59756 0.0585747 0)
(6.93534 0.362879 0)
(7.06097 0.681985 1.08395e-17)
(7.20134 0.977588 0)
(7.21522 1.25045 -3.20495e-17)
(7.11558 1.58708 0)
(7.02458 1.85691 0)
(6.81937 2.12011 -1.03829e-17)
(6.58864 2.41874 0)
(6.30036 2.57027 1.01338e-17)
(5.88683 2.82234 2.00697e-17)
(5.50661 2.95527 -9.89946e-18)
(5.0519 2.85325 0)
(4.43725 2.89044 0)
(3.86445 2.41458 0)
(2.83282 1.84742 1.91193e-17)
(2.12837 1.66406 1.9049e-17)
(1.9601 0.971324 9.34092e-18)
(1.57712 0.478471 0)
(1.50393 0.440954 -1.81106e-17)
(1.92696 0.283905 0)
(2.38727 0.197383 1.7833e-17)
(2.67444 0.22556 0)
(3.14439 -0.0951903 0)
(3.86878 -0.254682 -1.72674e-17)
(4.69245 0.142043 0)
(4.63979 -0.552391 -5.1746e-17)
(3.77647 -0.831624 1.69987e-17)
(2.92607 0.56745 0)
(1.33982 2.15477 1.77233e-17)
(-1.01498 3.01148 1.76034e-17)
(-3.22029 3.40757 0)
(-4.77924 3.6889 0)
(-5.81643 3.82775 0)
(-6.75336 3.73595 0)
(-7.70779 3.47782 0)
(-8.53391 3.21927 -1.67292e-17)
(-9.29748 2.93257 -3.31878e-17)
(-9.94656 2.63592 1.64595e-17)
(-10.5051 2.35992 0)
(-10.9838 2.09988 -3.24046e-17)
(-11.3801 1.8523 1.608e-17)
(-11.6948 1.61938 0)
(-11.9245 1.40654 1.58179e-17)
(-12.0643 1.19616 0)
(-12.1311 0.99773 0)
(-12.1262 0.833396 3.09101e-17)
(-12.0711 0.701546 -1.5322e-17)
(-11.9732 0.615861 3.04198e-17)
(-11.855 0.546047 -3.01794e-17)
(-11.7192 0.486099 -1.49599e-17)
(-11.5627 0.403817 0)
(-11.3613 0.2972 -1.47295e-17)
(-11.1156 0.192501 0)
(-10.8253 0.129735 0)
(-10.5217 0.108796 0)
(-10.2299 0.132252 -1.42858e-17)
(-9.9486 0.12897 0)
(-9.62499 0.0953562 -2.8081e-17)
(-9.32281 0.138319 4.17563e-17)
(-8.98676 0.138757 1.37919e-17)
(-8.67124 0.154421 0)
(-8.33264 0.114271 1.35639e-17)
(-7.9402 0.138506 0)
(-7.6417 0.302529 2.65996e-17)
(-7.27449 0.262945 0)
(-6.82861 0.213934 2.61735e-17)
(-6.5142 0.354994 -5.18646e-17)
(-6.09259 0.331762 -2.56855e-17)
(-5.70769 0.377454 0)
(-5.34069 0.467115 0)
(-4.93813 0.467944 0)
(-4.5433 0.52175 2.46908e-17)
(-4.18985 0.584077 0)
(-3.82577 0.635283 -2.42387e-17)
(-3.44573 0.649858 0)
(-3.11832 0.666998 7.16103e-17)
(-2.78455 0.657687 2.36531e-17)
(-2.44817 0.655978 2.34696e-17)
(-2.13401 0.66794 0)
(-1.84577 0.678099 0)
(-1.55211 0.694509 0)
(-1.18556 0.68557 0)
(-0.818665 0.669781 0)
(-0.50071 0.631731 4.45973e-17)
(-0.311685 0.567687 4.40723e-17)
(-0.206127 0.500488 0)
(-0.162885 0.449541 -2.14859e-17)
(-0.137748 0.389767 -2.12418e-17)
(-0.193143 0.332223 0)
(-0.241613 0.26609 -4.15906e-17)
(-0.333912 0.249417 0)
(-0.467547 0.262059 2.02912e-17)
(-0.612397 0.253175 0)
(-0.866742 0.235042 0)
(-1.13674 0.168071 -3.92783e-17)
(-1.38726 0.164435 0)
(-1.61105 0.0144332 1.93727e-17)
(-1.87718 -0.142583 0)
(-2.00313 -0.311118 0)
(-1.98079 -0.396496 1.92326e-17)
(-1.96088 -0.416818 1.90633e-17)
(-1.82782 -0.435546 0)
(-1.70309 -0.499686 -1.90051e-17)
(-1.73506 -0.645319 0)
(-1.66813 -0.908276 1.94827e-17)
(-1.30764 -0.940542 3.89216e-17)
(-0.836951 -0.833566 0)
(-0.237895 -0.827304 0)
(0.348168 -0.694041 0)
(1.15892 -0.580813 0)
(2.02393 -0.310801 3.63761e-17)
(2.37577 0.00389942 1.06168e-16)
(2.4142 0.218219 0)
(2.20371 0.256422 0)
(1.84084 0.0485937 0)
(1.77641 0.0864459 -3.49441e-17)
(1.43409 0.318571 0)
(0.274475 0.763136 0)
(-1.61704 1.39874 7.18312e-17)
(-3.73088 1.95831 3.59387e-17)
(-5.75956 2.09387 3.61382e-17)
(-7.04828 1.49015 0)
(-7.23881 1.09115 0)
(-7.51507 1.46256 3.42459e-17)
(-9.11547 1.88514 -3.45727e-17)
(-10.6237 1.22405 0)
(-9.11813 1.11297 0)
(-9.61713 1.79716 -3.31659e-17)
(-9.45906 1.97636 9.84111e-17)
(-11.6066 1.02002 0)
(-10.5501 0.368607 0)
(-8.41487 0.450853 3.29294e-17)
(-6.84258 1.4147 0)
(-7.87767 1.17603 6.27075e-17)
(-6.4132 0.707447 -3.12274e-17)
(-5.23337 1.40399 0)
(-5.77616 1.32569 2.99862e-17)
(-4.2586 1.0983 5.90951e-17)
(-4.14809 1.4113 0)
(-3.51667 1.17807 0)
(-3.03356 1.57434 -2.80337e-17)
(-3.92098 1.66273 0)
(-3.57911 1.83565 5.36687e-17)
(-3.40202 1.92572 0)
(-5.53763 1.9756 0)
(-5.29641 1.24784 0)
(-2.95029 1.52869 0)
(-3.2188 1.85775 -2.59607e-17)
(-4.64432 1.81023 -2.46022e-17)
(-3.71666 1.37203 0)
(-2.41019 1.40293 0)
(-2.87367 2.34291 0)
(-4.74184 2.06306 2.32134e-17)
(-4.06583 1.68812 0)
(-4.84107 2.12307 -4.54167e-17)
(-6.53565 1.46872 3.84936e-17)
(-2.24365 1.51143 4.27389e-17)
(-4.64928 2.10449 4.35519e-17)
(-1.07106 -1.62254 4.35134e-17)
(7.89668 0.858869 4.07148e-17)
(6.36346 1.54845 0)
(-0.0272436 2.07238 0)
(0.0834027 2.43244 0)
(0.135433 2.47177 2.4032e-17)
(0.171612 2.03873 2.38822e-17)
(0.470743 1.02831 -2.40633e-17)
(0.991661 -0.178925 -2.40983e-17)
(1.59997 -1.22094 -9.70578e-20)
(2.24091 -1.92231 0)
(2.80864 -2.28996 0)
(3.37361 -2.34182 0)
(3.76649 -2.42273 0)
(4.24889 -2.08998 0)
(4.7448 -1.88989 6.99296e-17)
(4.99175 -1.84437 0)
(5.53064 -1.11827 -2.29158e-17)
(5.83476 -0.995967 -2.27493e-17)
(6.28127 -0.785645 0)
(6.61526 -0.12929 0)
(6.80678 0.169499 0)
(7.15131 0.683609 0)
(7.22458 1.18017 -2.17714e-17)
(7.33449 1.58972 0)
(7.34082 2.0724 2.15481e-17)
(7.21752 2.40714 0)
(7.1671 2.85368 0)
(7.00131 3.18025 0)
(6.88352 3.41847 4.13962e-17)
(6.72218 3.83441 0)
(6.47737 4.00849 -2.01814e-17)
(6.27377 4.14662 4.0217e-17)
(5.97797 4.43465 0)
(5.70437 4.09406 0)
(5.27573 4.21687 0)
(4.69879 4.68767 -1.92587e-17)
(4.5256 3.22402 -1.89141e-17)
(3.72285 2.32132 0)
(3.05703 2.67244 0)
(3.08329 1.37923 3.65521e-17)
(2.59438 0.183918 3.57897e-17)
(2.4844 0.333907 -3.56022e-17)
(3.35781 0.538488 0)
(3.89276 -0.177508 0)
(2.87626 -1.11034 0)
(1.68659 0.933077 0)
(-0.104309 3.8009 3.622e-17)
(-2.5493 4.77767 3.59122e-17)
(-4.13328 5.14111 -3.56993e-17)
(-5.20955 5.43715 0)
(-6.22376 5.41619 0)
(-7.23991 5.37656 0)
(-8.06153 5.44357 0)
(-8.75192 5.39273 3.4359e-17)
(-9.25577 5.17441 0)
(-9.7146 4.86518 0)
(-10.0936 4.49622 3.35697e-17)
(-10.4356 4.12599 3.33106e-17)
(-10.7313 3.75092 0)
(-10.992 3.38965 -6.56409e-17)
(-11.2176 3.0362 3.25643e-17)
(-11.4099 2.70395 -3.23197e-17)
(-11.5576 2.37302 0)
(-11.6643 2.06191 0)
(-11.7337 1.75123 0)
(-11.7405 1.45389 0)
(-11.6968 1.20108 -3.11091e-17)
(-11.6018 0.998662 -6.17723e-17)
(-11.4548 0.857773 -3.05908e-17)
(-11.2844 0.765086 3.03285e-17)
(-11.0932 0.679052 0)
(-10.8875 0.579824 -5.97771e-17)
(-10.6739 0.44092 -5.93388e-17)
(-10.453 0.293447 -5.8911e-17)
(-10.2061 0.200458 5.84633e-17)
(-9.89622 0.161623 0)
(-9.61233 0.198048 8.62269e-17)
(-9.36954 0.205496 0)
(-9.03149 0.122885 -2.83947e-17)
(-8.77644 0.185626 -2.80603e-17)
(-8.44276 0.193044 0)
(-8.14006 0.26026 0)
(-7.8694 0.232584 -5.49821e-17)
(-7.52711 0.259885 0)
(-7.26481 0.437805 -5.40538e-17)
(-6.84842 0.389996 0)
(-6.53826 0.387283 5.32676e-17)
(-6.21596 0.549261 1.05416e-16)
(-5.79228 0.518 0)
(-5.45059 0.607344 0)
(-5.09037 0.732372 0)
(-4.68519 0.734315 5.09032e-17)
(-4.25616 0.82975 0)
(-3.84058 0.926763 4.97712e-17)
(-3.45414 0.975336 0)
(-3.02624 1.04833 0)
(-2.64163 1.09429 -9.63068e-17)
(-2.26907 1.09109 0)
(-1.87362 1.08891 -4.729e-17)
(-1.48104 1.08384 0)
(-1.16036 1.07799 -4.65535e-17)
(-0.928184 1.07696 0)
(-0.676766 1.02453 0)
(-0.34081 0.987278 0)
(0.0835643 0.990163 -1.35357e-16)
(0.435421 1.02385 -4.45056e-17)
(0.687146 0.976595 0)
(0.830626 0.911602 0)
(0.941038 0.834563 0)
(0.958795 0.745966 0)
(0.92029 0.620606 4.17809e-17)
(0.841611 0.544678 -8.24276e-17)
(0.710986 0.514761 -4.0497e-17)
(0.542723 0.489911 8.02548e-17)
(0.327296 0.427262 7.91299e-17)
(0.164016 0.278411 3.87719e-17)
(0.0539812 0.178323 0)
(-0.0977769 0.0790864 7.65895e-17)
(-0.273909 -0.0665982 0)
(-0.505552 -0.344011 -7.81267e-17)
(-0.714282 -0.47518 -3.94741e-17)
(-0.899502 -0.575888 0)
(-0.792666 -0.737551 7.89831e-17)
(-0.559053 -0.709123 3.88185e-17)
(-0.520908 -0.662675 0)
(-0.671332 -0.82913 4.00935e-17)
(-0.785966 -0.965937 -1.21848e-16)
(-0.656809 -1.04769 0)
(-0.182639 -1.13204 0)
(0.394201 -1.11291 0)
(1.17774 -1.07821 0)
(2.57422 -0.714679 -7.77175e-17)
(3.46846 -0.12496 -7.37434e-17)
(3.61014 0.301739 0)
(3.61941 0.584381 0)
(3.15256 0.522689 0)
(2.53247 0.643626 0)
(1.46294 1.41545 0)
(-0.394351 2.64814 0)
(-2.58051 3.32353 -7.19562e-17)
(-5.03681 3.48345 7.67364e-20)
(-7.09062 3.31147 0)
(-8.02887 2.31151 0)
(-8.58299 2.00025 -7.0049e-17)
(-8.81864 2.77986 0)
(-10.9003 3.39616 7.09826e-17)
(-12.7485 1.80605 7.0585e-17)
(-11.0739 1.36474 0)
(-11.1343 2.16019 0)
(-8.13139 3.40637 -6.55813e-17)
(-12.3942 2.23945 -1.37663e-16)
(-11.1819 -0.00954738 0)
(-9.64289 0.0195299 0)
(-6.69272 2.19978 0)
(-8.17542 2.11526 -6.45455e-17)
(-7.09949 0.897348 6.55985e-17)
(-4.61723 2.28581 0)
(-5.4027 2.28122 1.23376e-16)
(-3.65647 1.63001 6.1127e-17)
(-2.8061 2.3075 -1.17956e-16)
(-1.73932 2.22894 0)
(-0.38319 3.073 0)
(-2.21541 2.92759 -1.08936e-16)
(-1.7043 2.80853 -5.15854e-17)
(-1.18113 3.38704 0)
(-4.39934 3.78368 0)
(-5.29359 2.35613 0)
(-2.35971 2.49574 0)
(-1.49732 3.46586 -1.01683e-16)
(-3.66003 3.53605 0)
(-3.57807 2.48228 0)
(-1.16261 2.59122 0)
(-0.665783 3.87569 0)
(-2.78725 3.81395 0)
(-2.99718 3.43786 0)
(-4.76283 4.27017 -8.68737e-17)
(-5.81885 3.73833 0)
(-3.21246 2.78526 0)
(-3.87023 3.33041 -1.61658e-16)
(-0.170032 -2.13599 9.73501e-17)
(7.16714 2.09018 -8.44907e-17)
(6.78013 2.98986 8.20999e-17)
(-0.134131 2.52414 0)
(-0.16571 2.56162 -4.92197e-17)
(-0.0663008 2.5187 0)
(0.341222 1.54643 -2.44905e-17)
(1.08189 -0.0300552 0)
(1.92026 -1.4606 0)
(2.63144 -2.44382 2.41072e-17)
(3.19343 -2.86158 0)
(3.54888 -3.03309 0)
(3.79873 -2.832 0)
(4.15844 -2.56714 0)
(4.24571 -2.50898 0)
(4.76121 -1.91205 -9.32068e-17)
(4.97744 -1.99694 -4.5927e-17)
(5.43143 -1.52516 4.54946e-17)
(5.88108 -1.1142 0)
(6.11022 -0.959761 0)
(6.63849 -0.079868 0)
(6.6948 0.270947 0)
(7.05948 0.890064 0)
(7.16409 1.66013 -4.33392e-17)
(7.09523 2.11825 -4.29596e-17)
(7.21591 2.79687 4.27129e-17)
(6.97041 3.28588 -4.23206e-17)
(6.80112 3.72937 0)
(6.63458 4.19938 0)
(6.32787 4.49576 -4.15927e-17)
(6.25036 4.78117 0)
(6.1234 5.08512 0)
(5.7911 5.25631 -4.01671e-17)
(5.72247 5.33576 -4.00812e-17)
(5.66032 5.57591 -3.98928e-17)
(5.32692 5.49663 0)
(5.33461 4.5828 0)
(4.89807 4.72898 3.80166e-17)
(3.93398 5.10064 0)
(3.99964 2.95778 0)
(3.5203 2.48653 -3.677e-17)
(2.89274 3.01957 3.629e-17)
(2.9047 0.550268 -3.54694e-17)
(2.31108 -0.573484 0)
(1.00303 2.4609 0)
(-1.79681 5.39709 -7.40264e-17)
(-3.73014 5.75371 0)
(-4.72458 6.24381 -7.2707e-17)
(-5.81592 6.54999 -1.0828e-16)
(-6.68043 6.8655 1.07416e-16)
(-7.47868 7.05564 -7.09674e-17)
(-8.04948 6.99074 0)
(-8.57418 6.85486 0)
(-8.97399 6.66369 -6.92901e-17)
(-9.29871 6.42857 -3.43928e-17)
(-9.59139 6.11909 0)
(-9.85656 5.7543 0)
(-10.1003 5.34953 -3.36553e-17)
(-10.3178 4.9318 -6.68421e-17)
(-10.5476 4.49001 0)
(-10.7472 4.0805 6.5882e-17)
(-10.9193 3.67761 -6.54455e-17)
(-11.0612 3.30142 6.49927e-17)
(-11.173 2.92646 0)
(-11.2415 2.54923 0)
(-11.2819 2.18457 0)
(-11.2871 1.8325 0)
(-11.2484 1.51377 0)
(-11.1696 1.23757 6.21416e-17)
(-11.0604 1.02753 0)
(-10.8853 0.866752 0)
(-10.6639 0.74064 0)
(-10.3975 0.634148 1.20142e-16)
(-10.1125 0.487107 5.95151e-17)
(-9.82552 0.327751 5.90406e-17)
(-9.56785 0.240872 -1.17268e-16)
(-9.27824 0.165738 5.82278e-17)
(-8.95068 0.179829 -5.7564e-17)
(-8.71526 0.244301 0)
(-8.30694 0.130385 5.66116e-17)
(-8.08881 0.244092 0)
(-7.75785 0.200552 0)
(-7.44453 0.312016 0)
(-7.18625 0.322999 1.09812e-16)
(-6.87505 0.373881 -5.45818e-17)
(-6.6252 0.491408 -5.43256e-17)
(-6.23434 0.509581 -1.07551e-16)
(-5.98005 0.577062 -1.59925e-16)
(-5.69177 0.694609 -5.27992e-17)
(-5.34404 0.706656 0)
(-5.04726 0.799644 -1.04498e-16)
(-4.74525 0.960333 0)
(-4.39306 0.96678 -1.54169e-16)
(-4.04837 1.08396 0)
(-3.58834 1.19939 -1.51092e-16)
(-3.20777 1.23649 0)
(-2.81513 1.32203 0)
(-2.36731 1.42533 -4.90916e-17)
(-1.92916 1.41841 0)
(-1.59582 1.43438 4.80019e-17)
(-1.17727 1.43819 9.52327e-17)
(-0.724597 1.50953 4.67488e-17)
(-0.36456 1.60047 9.29551e-17)
(-0.11944 1.56321 -9.24754e-17)
(0.0752577 1.29359 -9.20526e-17)
(0.364988 1.17391 1.82046e-16)
(0.656273 1.14279 0)
(0.908284 1.10181 0)
(1.15069 1.07292 8.82531e-17)
(1.36748 1.02704 -8.75921e-17)
(1.50482 0.989821 0)
(1.65117 0.848488 0)
(1.63609 0.78088 8.38777e-17)
(1.62936 0.747303 0)
(1.57885 0.672477 3.92544e-19)
(1.46882 0.561103 3.84696e-19)
(1.30636 0.361 8.01021e-17)
(1.24661 0.22481 0)
(1.24898 0.00823404 -7.68765e-17)
(1.20442 -0.190235 0)
(1.09135 -0.419489 7.68477e-17)
(0.802552 -0.595571 0)
(0.353423 -0.782669 0)
(0.16661 -1.04301 -8.11871e-17)
(0.101135 -0.994003 -8.09605e-17)
(0.271589 -0.890085 0)
(0.505984 -1.10961 -7.95444e-17)
(0.35225 -1.37616 1.60002e-16)
(0.210109 -1.59187 0)
(0.324455 -1.81234 0)
(0.689939 -1.84135 0)
(1.35739 -2.18618 0)
(2.63426 -1.82152 8.04023e-17)
(3.93559 -0.564512 -1.537e-16)
(3.91348 0.30391 0)
(3.88985 0.919179 0)
(3.38048 1.14673 0)
(2.13694 1.64853 0)
(0.567732 2.85588 0)
(-1.43752 3.9755 0)
(-3.04317 4.95259 0)
(-4.44596 5.47139 7.24572e-17)
(-6.16538 4.80908 0)
(-6.70451 3.09774 0)
(-8.25914 2.93862 7.07796e-17)
(-8.29627 3.85222 0)
(-10.7004 4.84078 0)
(-12.767 2.54185 -7.14077e-17)
(-12.4373 1.20485 0)
(-12.2451 1.66857 0)
(-9.0965 4.18658 1.29612e-16)
(-9.39673 3.78719 1.351e-16)
(-9.24327 0.0295253 1.3782e-16)
(-9.53681 -0.49298 0)
(-7.21842 2.38853 1.29843e-16)
(-7.90238 3.16884 0)