/*--------------------------------*- C++ -*----------------------------------*\
| =========                 |                                                 |
| \\      /  F ield         | OpenFOAM: The Open Source CFD Toolbox           |
|  \\    /   O peration     | Version:  dev                                   |
|   \\  /    A nd           | Web:      http://www.openfoam.org               |
|    \\/     M anipulation  |                                                 |
\*---------------------------------------------------------------------------*/
FoamFile
{
    version     2.0;
    format      ascii;
    class       volVectorField;
    object      U_0;
    location    "9.166";
}
// * * * * * * * * * * * * * * * * * * * * * * * * * * * * * * * * * * * * * //

dimensions      [0 1 -1 0 0 0 0];

internalField   nonuniform List<vector> 
12225
(
(7.29494 0.579634 0)
(5.56579 0.408946 0)
(4.36734 0.246152 0)
(4.79787 0.194735 0)
(4.1084 0.220093 0)
(5.29291 0.196039 0)
(4.25763 0.249287 0)
(5.79067 0.167183 0)
(4.28476 0.271955 0)
(6.27431 0.138535 0)
(4.26131 0.296415 0)
(6.84201 0.107956 0)
(4.55813 0.298733 0)
(7.16788 0.0887996 0)
(6.87294 0.0339305 0)
(5.52494 1.34475 0)
(13.055 -2.77184 0)
(4.36243 3.63523 0)
(9.73777 1.52542 0)
(10.8024 1.46082 0)
(8.68546 1.06982 0)
(10.4304 0.803791 0)
(7.41509 0.732256 0)
(10.7863 0.636482 0)
(6.70736 0.667183 0)
(11.6299 0.558616 0)
(6.10457 0.593266 0)
(12.9536 0.457763 0)
(5.85151 0.583114 0)
(14.5075 0.0726985 0)
(6.8582 1.0769 0)
(15.7646 -1.31525 0)
(9.5093 2.51686 0)
(16.9004 -3.7374 0)
(16.1098 1.93278 0)
(8.02501 2.75082 0)
(9.48858 1.62865 0)
(13.5018 1.94643 0)
(10.123 1.6262 0)
(14.5012 1.41087 0)
(9.38648 1.27647 0)
(15.1531 1.22486 0)
(8.63551 1.1161 0)
(15.9008 1.06961 0)
(8.43266 1.01178 0)
(16.4761 0.692581 0)
(9.5339 1.13665 0)
(16.3765 -0.123273 0)
(11.8035 1.57376 0)
(15.7656 -1.44501 0)
(14.3635 2.4153 0)
(14.54 -3.91168 0)
(17.2906 4.72761 0)
(18.2685 -6.16112 0)
(7.22828 1.76954 0)
(15.2014 2.38066 0)
(9.86043 2.09751 0)
(16.7269 1.89839 0)
(11.0032 1.88723 0)
(17.2878 1.66026 0)
(11.7055 1.80899 0)
(17.3253 1.26555 0)
(12.6931 1.8133 0)
(17.0614 0.57397 0)
(13.8182 2.07016 0)
(16.6817 -0.4926 0)
(14.6844 2.73577 0)
(16.2575 -2.28989 0)
(16.0393 4.2489 0)
(15.6413 -5.98868 0)
(18.1096 3.79447 0)
(18.5451 2.80325 0)
(7.24879 2.25932 0)
(14.4499 2.43804 0)
(11.1033 2.6614 0)
(15.4182 2.05563 0)
(13.1093 2.6139 0)
(15.826 1.84552 0)
(14.3773 2.61065 0)
(15.7969 1.38721 0)
(15.4558 2.58777 0)
(15.6744 0.697139 0)
(15.9421 2.83442 0)
(15.6027 -0.324774 0)
(16.4248 3.51694 0)
(15.7209 -1.85216 0)
(17.5662 4.72031 0)
(15.6237 -4.93866 0)
(17.7444 6.63005 0)
(19.0351 -5.43233 0)
(8.88496 2.68743 0)
(11.5199 2.4045 0)
(11.9798 3.33878 0)
(12.8516 2.22588 0)
(13.8206 3.33933 0)
(13.6334 2.00641 0)
(14.7489 3.34794 0)
(14.3522 1.47653 0)
(15.5566 3.36869 0)
(15.0241 0.980556 0)
(15.8694 3.4401 0)
(15.5764 0.270066 0)
(16.3736 3.41789 0)
(16.3577 -0.651808 0)
(17.2975 3.12221 0)
(16.7044 -1.91856 0)
(16.1441 1.62723 0)
(18.8647 -1.71229 0)
(10.2118 3.53669 0)
(11.2089 2.8024 0)
(12.425 4.12965 0)
(12.5905 2.52879 0)
(13.8086 4.23778 0)
(13.5164 2.37384 0)
(14.6925 4.24756 0)
(14.4688 1.76073 0)
(15.4784 4.15896 0)
(15.2483 1.34419 0)
(15.9589 4.0724 0)
(15.8284 0.673396 0)
(16.2668 3.74609 0)
(16.5335 -0.159929 0)
(16.6504 3.33218 0)
(16.6137 -1.34221 0)
(16.0013 2.32434 0)
(16.5952 -0.407375 0)
(10.1936 3.94298 0)
(11.2111 3.07037 0)
(12.2931 4.76894 0)
(12.4948 2.84862 0)
(13.5619 4.82765 0)
(13.5433 2.67416 0)
(14.7147 4.65172 0)
(14.5522 2.17015 0)
(15.4165 4.39651 0)
(15.2295 2.04733 0)
(15.8509 4.04024 0)
(15.8646 1.60083 0)
(15.9591 3.24579 0)
(16.3361 1.25337 0)
(16.0327 2.41654 0)
(16.2218 0.821122 0)
(15.5625 1.5313 0)
(15.8945 1.01431 0)
(10.5348 4.35193 0)
(11.4989 3.45406 0)
(12.3743 5.3543 0)
(12.7229 3.26769 0)
(13.6008 5.32775 0)
(13.6592 3.10166 0)
(14.568 5.0777 0)
(14.5222 2.72921 0)
(15.1578 4.74095 0)
(15.1608 2.54913 0)
(15.6664 4.29999 0)
(15.7623 2.0517 0)
(15.6911 3.55504 0)
(15.9857 1.75594 0)
(15.7535 2.76905 0)
(15.6927 1.50722 0)
(15.4029 1.8265 0)
(15.3301 1.63119 0)
(10.6124 4.88821 0)
(11.3905 3.98674 0)
(12.3581 5.90829 0)
(12.6022 3.84655 0)
(13.4036 5.78145 0)
(13.6591 3.71777 0)
(14.3578 5.39357 0)
(14.5332 3.4281 0)
(14.9376 4.99273 0)
(15.1337 3.32792 0)
(15.3343 4.44958 0)
(15.5033 2.99101 0)
(15.2955 3.75946 0)
(15.6302 2.82895 0)
(15.3944 2.9657 0)
(15.4041 2.48216 0)
(15.3163 2.26364 0)
(15.1805 2.27501 0)
(10.4145 5.40552 0)
(11.3833 4.76131 0)
(12.1752 6.54625 0)
(12.6069 4.58446 0)
(13.1765 6.21333 0)
(13.6282 4.44078 0)
(14.1195 5.78275 0)
(14.4814 4.20339 0)
(14.7177 5.39217 0)
(14.9665 4.04432 0)
(15.0956 4.80165 0)
(15.2911 3.71773 0)
(15.1954 4.14598 0)
(15.4202 3.51223 0)
(15.3359 3.40091 0)
(15.3141 3.12434 0)
(15.2841 2.83894 0)
(15.1394 2.73232 0)
(10.4244 5.89157 0)
(11.3766 5.57537 0)
(12.0296 6.99221 0)
(12.5853 5.45949 0)
(13.1376 6.62025 0)
(13.6307 5.34836 0)
(13.9975 6.18991 0)
(14.3213 5.14848 0)
(14.5254 5.7341 0)
(14.782 4.93775 0)
(14.9225 5.23399 0)
(15.0438 4.58327 0)
(15.079 4.63992 0)
(15.1309 4.29244 0)
(15.1053 4.07315 0)
(15.0456 3.8892 0)
(15.0211 3.67753 0)
(14.9508 3.53457 0)
(10.3914 6.29895 0)
(11.5063 6.54224 0)
(11.9487 7.50034 0)
(12.5018 6.44588 0)
(12.9082 7.1427 0)
(13.3592 6.3072 0)
(13.6874 6.65359 0)
(14.0136 6.05502 0)
(14.2792 6.19952 0)
(14.5582 5.79292 0)
(14.7378 5.73716 0)
(14.8863 5.41242 0)
(14.9628 5.24209 0)
(14.9897 5.0256 0)
(15.0191 4.80017 0)
(14.9673 4.61796 0)
(14.9085 4.47095 0)
(14.8589 4.30314 0)
(10.5309 6.84883 0)
(11.51 7.68648 0)
(11.8992 8.06577 0)
(12.4707 7.52644 0)
(12.8861 7.72364 0)
(13.2827 7.29689 0)
(13.5932 7.25484 0)
(13.8733 6.94018 0)
(14.1252 6.82463 0)
(14.3598 6.59672 0)
(14.5612 6.43383 0)
(14.712 6.2225 0)
(14.8143 6.0106 0)
(14.8872 5.8251 0)
(14.9206 5.63164 0)
(14.9028 5.44911 0)
(14.8558 5.3109 0)
(14.8368 5.17617 0)
(10.2763 7.47135 0)
(11.2583 8.75366 0)
(11.7197 8.59653 0)
(12.2026 8.38936 0)
(12.6357 8.38493 0)
(13.0585 8.19743 0)
(13.425 8.01457 0)
(13.7434 7.77879 0)
(13.9977 7.55132 0)
(14.2144 7.32109 0)
(14.3701 7.10058 0)
(14.4958 6.89336 0)
(14.5716 6.6992 0)
(14.6262 6.51352 0)
(14.6501 6.35986 0)
(14.6499 6.22668 0)
(14.6243 6.12909 0)
(14.6498 6.01681 0)
(10.4358 7.60586 0)
(11.3239 9.63165 0)
(11.8015 9.42381 0)
(12.2034 9.23991 0)
(12.5826 9.07457 0)
(12.9959 8.87892 0)
(13.3286 8.67295 0)
(13.6236 8.4816 0)
(13.8187 8.30841 0)
(13.9751 8.13515 0)
(14.0554 7.96484 0)
(14.1232 7.78327 0)
(14.1428 7.59389 0)
(14.1698 7.41169 0)
(14.1728 7.2418 0)
(14.1863 7.06416 0)
(14.1797 6.91124 0)
(14.2624 6.77627 0)
(10.1386 8.14379 0)
(10.9409 10.2597 0)
(11.4 10.084 0)
(11.8213 9.92305 0)
(12.1894 9.7542 0)
(12.543 9.56785 0)
(12.8018 9.36164 0)
(13.044 9.16741 0)
(13.2026 8.98964 0)
(13.3717 8.7984 0)
(13.4919 8.61056 0)
(13.6187 8.41241 0)
(13.7013 8.21736 0)
(13.789 8.01307 0)
(13.8288 7.8047 0)
(13.8895 7.63195 0)
(13.8882 7.46863 0)
(13.9814 7.2964 0)
(9.92025 8.45237 0)
(10.551 10.4806 0)
(11.0292 10.2786 0)
(11.5263 10.1056 0)
(11.9379 9.94636 0)
(12.281 9.80879 0)
(12.5201 9.6466 0)
(12.7375 9.494 0)
(12.8876 9.30978 0)
(13.0489 9.09533 0)
(13.1765 8.90661 0)
(13.2931 8.69032 0)
(13.3754 8.50732 0)
(13.4598 8.3374 0)
(13.4794 8.15811 0)
(13.5307 7.99937 0)
(13.509 7.82641 0)
(13.5942 7.66674 0)
(10.0642 8.29255 0)
(10.6458 10.2558 0)
(11.0691 9.99331 0)
(11.4431 9.85985 0)
(11.7231 9.78599 0)
(11.9796 9.69753 0)
(12.2133 9.53684 0)
(12.4646 9.37554 0)
(12.6882 9.16203 0)
(12.9016 8.93429 0)
(13.0743 8.74716 0)
(13.2104 8.53176 0)
(13.3 8.36721 0)
(13.3796 8.19571 0)
(13.3998 8.01396 0)
(13.4414 7.86169 0)
(13.4038 7.67161 0)
(13.4703 7.50529 0)
(10.0608 7.82817 0)
(10.6017 9.60668 0)
(10.924 9.40431 0)
(11.2867 9.32326 0)
(11.6192 9.26427 0)
(11.9544 9.11159 0)
(12.224 8.89031 0)
(12.4496 8.68867 0)
(12.6223 8.46296 0)
(12.7619 8.2828 0)
(12.8741 8.13773 0)
(12.9756 7.98874 0)
(13.0491 7.8875 0)
(13.1335 7.76309 0)
(13.1582 7.6408 0)
(13.2051 7.49803 0)
(13.1922 7.33947 0)
(13.2606 7.20108 0)
(10.1033 6.99894 0)
(10.5259 8.77981 0)
(10.927 8.52733 0)
(11.3677 8.36626 0)
(11.7152 8.2768 0)
(12.0477 8.18394 0)
(12.2486 8.08475 0)
(12.4084 7.96662 0)
(12.5377 7.79967 0)
(12.6238 7.62325 0)
(12.7177 7.4374 0)
(12.7995 7.25591 0)
(12.8557 7.10652 0)
(12.9385 6.96573 0)
(12.9637 6.8335 0)
(13.0212 6.70241 0)
(13.0413 6.59165 0)
(13.1303 6.46651 0)
(9.98766 6.38798 0)
(10.4378 7.67571 0)
(10.8171 7.33647 0)
(11.1879 7.26019 0)
(11.5154 7.22015 0)
(11.8448 7.16532 0)
(12.0943 7.08652 0)
(12.3307 6.93539 0)
(12.5044 6.79123 0)
(12.6401 6.62611 0)
(12.7243 6.47368 0)
(12.7747 6.36168 0)
(12.8008 6.23191 0)
(12.8169 6.15544 0)
(12.8137 6.04793 0)
(12.8468 5.94437 0)
(12.8894 5.8681 0)
(12.9562 5.74716 0)
(9.96528 5.43261 0)
(10.488 6.55786 0)
(10.8786 6.26093 0)
(11.2262 6.14842 0)
(11.5539 6.0932 0)
(11.8495 6.05054 0)
(12.1113 5.9951 0)
(12.3382 5.91282 0)
(12.482 5.81828 0)
(12.6129 5.71266 0)
(12.6759 5.60022 0)
(12.7292 5.48471 0)
(12.7719 5.37685 0)
(12.7928 5.26333 0)
(12.8301 5.14397 0)
(12.8789 5.05633 0)
(12.9325 4.95756 0)
(12.9674 4.8406 0)
(10.1347 4.59753 0)
(10.5606 5.41987 0)
(10.9771 5.13308 0)
(11.3556 5.01875 0)
(11.6644 4.94991 0)
(11.9125 4.9183 0)
(12.1233 4.88581 0)
(12.2986 4.82937 0)
(12.4341 4.75406 0)
(12.547 4.67121 0)
(12.6291 4.58112 0)
(12.7079 4.49342 0)
(12.7725 4.4086 0)
(12.8356 4.3208 0)
(12.915 4.25861 0)
(13.0062 4.20389 0)
(13.0699 4.14656 0)
(13.1114 4.06721 0)
(9.74167 3.62199 0)
(10.2646 4.2151 0)
(10.9749 3.97422 0)
(11.507 3.92222 0)
(11.8682 3.9014 0)
(12.1339 3.89258 0)
(12.3398 3.89059 0)
(12.5015 3.87192 0)
(12.618 3.82646 0)
(12.6994 3.76116 0)
(12.7377 3.67512 0)
(12.7611 3.59052 0)
(12.7692 3.47846 0)
(12.8042 3.39891 0)
(12.8602 3.34099 0)
(12.9198 3.28147 0)
(12.9664 3.22805 0)
(13.0253 3.17053 0)
(9.86106 2.82394 0)
(10.5949 3.10276 0)
(11.2219 2.89676 0)
(11.6286 2.88502 0)
(11.8702 2.90421 0)
(12.0557 2.90454 0)
(12.2424 2.9098 0)
(12.4379 2.90235 0)
(12.6157 2.88799 0)
(12.7714 2.86317 0)
(12.8776 2.81977 0)
(12.9384 2.75615 0)
(12.9591 2.68594 0)
(12.9837 2.63249 0)
(12.9828 2.57819 0)
(12.9736 2.51552 0)
(12.9604 2.4699 0)
(12.9671 2.42782 0)
(9.8539 1.83565 0)
(10.6079 1.95207 0)
(11.3209 1.87267 0)
(11.7766 1.94217 0)
(12.025 2.0069 0)
(12.1695 2.03801 0)
(12.2607 2.03589 0)
(12.3286 2.0107 0)
(12.3792 1.98545 0)
(12.4196 1.9737 0)
(12.4311 1.95869 0)
(12.4333 1.92897 0)
(12.4137 1.91071 0)
(12.3778 1.88029 0)
(12.3157 1.83623 0)
(12.2383 1.78584 0)
(12.1622 1.75648 0)
(12.0808 1.72847 0)
(9.95926 0.984146 0)
(10.7949 0.927085 0)
(11.3896 0.97331 0)
(11.6099 1.09818 0)
(11.607 1.19448 0)
(11.5189 1.26894 0)
(11.3911 1.31108 0)
(11.2293 1.33045 0)
(11.0539 1.32641 0)
(10.8806 1.32213 0)
(10.7126 1.31112 0)
(10.5681 1.29855 0)
(10.4229 1.28434 0)
(10.2619 1.26719 0)
(10.0991 1.24964 0)
(9.93047 1.23398 0)
(9.77184 1.22004 0)
(9.60598 1.20574 0)
(10.2373 0.141053 0)
(10.4149 0.0210291 0)
(10.1114 0.176116 0)
(9.52368 0.401991 0)
(8.93542 0.578307 0)
(8.48211 0.705415 0)
(8.1276 0.776857 0)
(7.83816 0.80395 0)
(7.59354 0.807316 0)
(7.37911 0.804211 0)
(7.18333 0.799633 0)
(7.01589 0.79296 0)
(6.85533 0.780897 0)
(6.70054 0.772244 0)
(6.55903 0.757457 0)
(6.41026 0.741435 0)
(6.28335 0.719534 0)
(6.15851 0.715235 0)
(8.46698 -0.206381 0)
(6.40677 -0.0797534 0)
(4.89717 0.175323 0)
(3.98165 0.304037 0)
(3.55293 0.336437 0)
(3.4062 0.336648 0)
(3.35655 0.324486 0)
(3.33914 0.308662 0)
(3.32366 0.295948 0)
(3.30351 0.288251 0)
(3.2772 0.28273 0)
(3.25137 0.280746 0)
(3.22004 0.27531 0)
(3.18379 0.267085 0)
(3.14624 0.259451 0)
(3.10398 0.254697 0)
(3.05919 0.245474 0)
(2.99274 0.261547 0)
(-0.310248 0.420288 0)
(-1.11253 0.264452 0)
(-1.83006 0.0618948 0)
(-2.43452 -0.103819 0)
(-2.81738 -0.298714 0)
(-2.94305 -0.548853 0)
(-2.83892 -0.771896 1.19174e-17)
(-2.51393 -0.956646 -1.18453e-17)
(-2.0263 -1.06196 0)
(-1.43865 -1.11051 -1.1691e-17)
(-0.829047 -1.07726 0)
(-0.259191 -1.04509 0)
(0.341348 -1.05418 0)
(0.969656 -0.969475 1.13586e-17)
(1.48349 -0.810957 0)
(1.89585 -0.694149 0)
(2.2623 -0.614232 -1.11037e-17)
(2.55241 -0.498136 0)
(2.75927 -0.35519 0)
(2.88181 -0.225863 0)
(2.92232 -0.0985176 1.07405e-17)
(2.82371 0.0244897 0)
(2.6285 0.167159 1.05527e-17)
(2.34439 0.293679 0)
(1.95519 0.400712 0)
(1.49606 0.524289 1.0281e-17)
(0.88043 0.610496 0)
(0.20967 0.673298 -1.01062e-17)
(-0.529058 0.774023 0)
(-1.39155 0.83205 9.97886e-18)
(-2.20214 0.61663 0)
(-2.91452 0.175559 0)
(-3.40199 -0.0384853 0)
(-3.66469 -0.0762451 0)
(-3.85066 -0.0737968 0)
(-3.85293 -0.0213979 -9.52926e-18)
(-3.66533 -0.0154953 0)
(-3.42621 -0.0783281 1.87735e-17)
(-3.11256 -0.0855621 0)
(-2.76876 0.0105594 -1.84931e-17)
(-2.4728 0.0772369 0)
(-2.04351 0.0170673 0)
(-1.5338 0.0464253 1.78592e-17)
(-1.2037 0.242875 0)
(-0.817533 0.284442 1.74445e-17)
(-0.237324 0.267351 -1.73813e-17)
(0.265283 -0.06716 0)
(0.429046 -0.9001 -1.74795e-17)
(0.394268 -1.46234 -1.7407e-17)
(0.262248 -1.29084 0)
(-0.073124 -0.323924 0)
(-1.0735 0.8881 0)
(-2.65152 1.48959 0)
(-4.19666 1.4631 0)
(-5.54771 1.34727 1.67641e-17)
(-6.75575 1.25669 0)
(-7.83783 1.16102 -1.64692e-17)
(-8.78752 1.07711 0)
(-9.60498 1.01559 0)
(-10.3209 0.943198 1.60534e-17)
(-10.9521 0.87714 0)
(-11.4755 0.826045 -1.57897e-17)
(-11.8853 0.772069 0)
(-12.2188 0.706249 0)
(-12.4645 0.651671 0)
(-12.6357 0.597321 1.52884e-17)
(-12.7339 0.562009 0)
(-12.7782 0.531003 0)
(-12.8056 0.519298 1.49299e-17)
(-12.8004 0.517289 0)
(-12.7564 0.506263 1.46957e-17)
(-12.6607 0.484429 0)
(-12.4984 0.457433 0)
(-12.2953 0.436381 0)
(-12.0837 0.44056 -1.4229e-17)
(-11.8638 0.456346 0)
(-11.6188 0.457114 0)
(-11.3529 0.470164 -1.38845e-17)
(-11.071 0.477416 -1.37716e-17)
(-10.7817 0.492062 0)
(-10.4659 0.489257 -1.35456e-17)
(-10.0846 0.488489 0)
(-9.74308 0.546709 -2.66263e-17)
(-9.42731 0.564502 0)
(-8.99124 0.544515 -2.61939e-17)
(-8.61151 0.595374 0)
(-8.23002 0.606956 2.57545e-17)
(-7.79954 0.621589 0)
(-7.41155 0.652314 0)
(-7.01012 0.660966 0)
(-6.60376 0.68433 -2.49135e-17)
(-6.25129 0.708329 0)
(-5.85788 0.740985 2.45173e-17)
(-5.43264 0.749102 0)
(-5.06448 0.760042 -2.41353e-17)
(-4.68137 0.772887 -2.39449e-17)
(-4.29561 0.784775 -2.37561e-17)
(-3.926 0.788661 0)
(-3.56045 0.792388 0)
(-3.20732 0.782468 0)
(-2.82478 0.768591 0)
(-2.42957 0.754424 0)
(-2.07243 0.736466 0)
(-1.76939 0.732404 0)
(-1.48819 0.720163 0)
(-1.23592 0.707336 2.20258e-17)
(-1.01589 0.691421 2.18343e-17)
(-0.843514 0.683297 0)
(-0.699545 0.661393 0)
(-0.638318 0.674318 0)
(-0.634552 0.693232 2.10813e-17)
(-0.672863 0.704524 0)
(-0.844506 0.694388 0)
(-1.13976 0.671456 0)
(-1.40703 0.656639 0)
(-1.64749 0.639421 -2.01417e-17)
(-1.92174 0.59702 0)
(-2.06993 0.535134 0)
(-2.13802 0.509707 1.97369e-17)
(-2.24334 0.479195 -1.9624e-17)
(-2.32928 0.398614 0)
(-2.36909 0.354633 -1.94544e-17)
(-2.39826 0.351015 0)
(-2.19466 0.371218 1.94403e-17)
(-1.85956 0.391638 0)
(-1.64781 0.380527 0)
(-1.40632 0.396279 0)
(-1.17725 0.426838 0)
(-0.945236 0.437819 0)
(-0.901787 0.499542 -3.73395e-17)
(-1.16739 0.500203 -3.71458e-17)
(-1.5543 0.431642 0)
(-1.9224 0.386853 0)
(-2.05195 0.34799 0)
(-1.9343 0.333288 3.66359e-17)
(-1.80652 0.29842 0)
(-1.81258 0.351428 0)
(-2.23784 0.51131 0)
(-3.18249 0.664812 3.61324e-17)
(-4.51056 0.824465 -3.59199e-17)
(-5.78671 0.859728 0)
(-6.40337 0.761208 0)
(-6.607 0.67101 -3.49875e-17)
(-7.75812 0.758163 -3.46914e-17)
(-8.70897 0.743723 0)
(-8.45291 0.764343 0)
(-9.0364 0.831532 3.37393e-17)
(-10.1633 0.826702 -3.34454e-17)
(-10.9473 0.559144 0)
(-10.2718 0.569799 0)
(-9.18748 0.590417 -3.27021e-17)
(-8.95739 0.724968 0)
(-9.61919 0.604834 0)
(-8.73593 0.553739 -3.16718e-17)
(-8.45121 0.679066 0)
(-8.90998 0.636925 -3.10391e-17)
(-8.12694 0.542374 0)
(-8.06978 0.633248 0)
(-7.71031 0.647656 0)
(-7.37132 0.768951 2.97701e-17)
(-7.90327 0.773578 0)
(-7.95076 0.78183 0)
(-7.77808 0.78261 0)
(-8.8791 0.927514 0)
(-8.58704 0.815847 0)
(-7.46017 0.894032 0)
(-7.82181 0.907447 2.77412e-17)
(-8.80789 1.05866 2.71189e-17)
(-8.7824 1.02584 0)
(-8.42021 1.02174 0)
(-8.56529 1.085 0)
(-9.35293 1.07033 -2.59956e-17)
(-7.71959 0.698321 0)
(-6.74718 1.31172 5.19652e-17)
(-8.30167 1.86033 -4.73685e-17)
(-3.80325 1.3088 -4.80427e-17)
(-6.2405 1.43887 4.92664e-17)
(-2.49333 0.619427 -4.51386e-17)
(5.5187 1.57834 4.66931e-17)
(4.01826 1.52416 0)
(-0.0509315 0.178723 0)
(-0.333038 0.52532 0)
(-0.706024 0.279475 -2.40605e-17)
(-1.12609 -0.226241 0)
(-1.36504 -0.901699 2.40452e-17)
(-1.35624 -1.68705 2.39946e-17)
(-1.12613 -2.39913 1.1931e-17)
(-0.719905 -2.94129 1.19481e-17)
(-0.230189 -3.2821 0)
(0.305498 -3.4657 1.18399e-17)
(0.85097 -3.41362 0)
(1.39315 -3.1837 0)
(1.85472 -3.23529 -2.32003e-17)
(2.37114 -3.07851 -1.1517e-17)
(2.78099 -2.6008 2.28246e-17)
(3.09337 -2.38185 2.26586e-17)
(3.552 -2.20355 1.12756e-17)
(3.78026 -1.8649 0)
(3.98427 -1.50365 0)
(4.19759 -1.17293 0)
(4.20276 -0.827113 1.0871e-17)
(4.24244 -0.497795 0)
(4.14845 -0.194663 -3.21499e-17)
(3.95835 0.180728 0)
(3.78315 0.491719 0)
(3.48814 0.795437 -1.0415e-17)
(3.19538 1.14104 0)
(2.84073 1.34035 1.01662e-17)
(2.35692 1.64298 2.01288e-17)
(1.93511 1.8372 -9.92976e-18)
(1.42425 1.79153 0)
(0.752138 1.87943 0)
(0.155904 1.45964 0)
(-0.915918 0.941057 1.91735e-17)
(-1.67746 0.799345 1.91032e-17)
(-1.85368 0.163617 9.36984e-18)
(-2.21957 -0.28219 0)
(-2.32749 -0.281134 -1.81591e-17)
(-1.92941 -0.40209 0)
(-1.4557 -0.462575 1.78805e-17)
(-1.14781 -0.396721 0)
(-0.639408 -0.681052 0)
(0.0905335 -0.806152 -1.7311e-17)
(0.91128 -0.375151 0)
(0.964767 -0.9874 -5.18582e-17)
(0.193147 -1.20443 1.70397e-17)
(-0.687784 0.227506 0)
(-2.28141 1.86675 1.77579e-17)
(-4.57162 2.78866 1.76394e-17)
(-6.73117 3.23879 0)
(-8.2718 3.56728 0)
(-9.2846 3.74666 0)
(-10.1733 3.69984 0)
(-11.0828 3.48341 0)
(-11.8683 3.26388 -1.67591e-17)
(-12.5918 3.02077 -3.32433e-17)
(-13.2049 2.76593 1.64879e-17)
(-13.7281 2.53045 0)
(-14.1754 2.3113 -3.24559e-17)
(-14.5443 2.10485 1.61037e-17)
(-14.8353 1.91254 0)
(-15.0462 1.74082 1.58427e-17)
(-15.1706 1.57128 0)
(-15.2239 1.41104 0)
(-15.2068 1.28343 3.09533e-17)
(-15.1391 1.18696 -1.53441e-17)
(-15.0276 1.13738 3.046e-17)
(-14.8946 1.10599 -3.02175e-17)
(-14.7441 1.08707 -1.49793e-17)
(-14.5744 1.0483 0)
(-14.3604 0.982789 -1.47479e-17)
(-14.099 0.913039 0)
(-13.7868 0.882055 0)
(-13.453 0.893216 0)
(-13.1235 0.952542 -1.43012e-17)
(-12.8036 0.990048 0)
(-12.4352 0.989387 -2.81143e-17)
(-12.0806 1.06549 4.18092e-17)
(-11.6855 1.10205 1.3811e-17)
(-11.3028 1.15331 0)
(-10.8964 1.14533 1.3585e-17)
(-10.4231 1.19003 0)
(-10.0353 1.38767 2.66451e-17)
(-9.58722 1.39028 0)
(-9.04728 1.36261 2.62253e-17)
(-8.6311 1.53052 -5.19645e-17)
(-8.11409 1.54106 -2.57399e-17)
(-7.62334 1.60972 0)
(-7.14893 1.72666 0)
(-6.63972 1.75506 0)
(-6.1323 1.83191 2.47528e-17)
(-5.66575 1.91914 0)
(-5.18967 1.9947 -2.4301e-17)
(-4.69486 2.03209 0)
(-4.25184 2.07087 7.17899e-17)
(-3.80432 2.08295 2.37146e-17)
(-3.35407 2.10187 2.35297e-17)
(-2.9259 2.13426 0)
(-2.52393 2.16274 0)
(-2.11708 2.19444 0)
(-1.63777 2.20098 0)
(-1.15592 2.20138 0)
(-0.721004 2.17963 4.46973e-17)
(-0.413734 2.12526 4.41639e-17)
(-0.189233 2.06908 0)
(-0.0226049 2.02692 -2.15223e-17)
(0.120143 1.97554 -2.12724e-17)
(0.173117 1.92431 0)
(0.232152 1.8596 -4.16332e-17)
(0.243418 1.84001 0)
(0.207238 1.84757 2.03064e-17)
(0.154506 1.8297 0)
(-0.020602 1.80005 0)
(-0.226714 1.72067 -3.92827e-17)
(-0.418443 1.70565 0)
(-0.599198 1.53486 1.93676e-17)
(-0.837179 1.35353 0)
(-0.956203 1.16285 0)
(-0.953358 1.04901 1.92446e-17)
(-0.971339 0.993341 1.90638e-17)
(-0.888189 0.940131 0)
(-0.821599 0.835513 -1.90189e-17)
(-0.918007 0.657402 0)
(-0.931554 0.361498 1.95017e-17)
(-0.670131 0.28166 3.89509e-17)
(-0.304892 0.338547 0)
(0.177063 0.300194 0)
(0.637688 0.386413 0)
(1.31508 0.457769 0)
(2.04108 0.670409 3.64033e-17)
(2.25934 0.922093 1.0628e-16)
(2.17419 1.0787 0)
(1.85821 1.07143 0)
(1.39578 0.822308 0)
(1.23392 0.834033 -3.4998e-17)
(0.803765 1.06083 0)
(-0.469645 1.49166 0)
(-2.48084 2.10369 7.19844e-17)
(-4.67474 2.62789 3.60213e-17)
(-6.77845 2.75369 3.62166e-17)
(-8.12529 2.11814 0)
(-8.31163 1.65509 0)
(-8.50517 1.98315 3.43375e-17)
(-10.0715 2.42981 -3.46538e-17)
(-11.6782 1.73635 0)
(-10.1152 1.52621 0)
(-10.5132 2.16677 -3.32918e-17)
(-10.1806 2.38683 9.86957e-17)
(-12.3708 1.40856 0)
(-11.4397 0.678218 0)
(-9.26725 0.686745 3.31115e-17)
(-7.54529 1.6376 0)
(-8.56944 1.40538 6.29879e-17)
(-7.15341 0.882034 -3.13835e-17)
(-5.91562 1.55898 0)
(-6.49521 1.48054 3.01381e-17)
(-5.01865 1.21669 5.94034e-17)
(-4.93252 1.52811 0)
(-4.37631 1.27645 0)
(-3.95023 1.66002 -2.81797e-17)
(-4.99638 1.75663 0)
(-4.80047 1.93168 5.3931e-17)
(-4.74169 2.04901 0)
(-7.06565 2.11077 0)
(-6.97384 1.37871 0)
(-4.60801 1.69245 0)
(-4.88008 2.07442 -2.61106e-17)
(-6.43049 2.03191 -2.47448e-17)
(-5.58586 1.57143 0)
(-4.36208 1.69283 0)
(-4.9752 2.7643 0)
(-6.96286 2.56117 2.3326e-17)
(-6.43461 2.22842 0)
(-7.22273 2.73097 -4.5787e-17)
(-8.56761 2.04278 3.87041e-17)
(-4.254 2.20083 4.29189e-17)
(-6.31565 2.88932 4.3788e-17)
(-2.47841 -0.801763 4.38267e-17)
(7.01518 1.7792 4.10432e-17)
(6.00278 2.54126 0)
(-0.0937418 -1.03064 0)
(-0.11257 -0.594177 0)
(-0.19734 -0.514212 2.4094e-17)
(-0.310111 -0.93574 2.39387e-17)
(-0.164379 -1.94347 -2.41231e-17)
(0.204876 -3.14314 -2.41579e-17)
(0.667354 -4.17615 -1.01456e-19)
(1.16759 -4.86841 0)
(1.60054 -5.21795 0)
(2.03004 -5.261 0)
(2.2855 -5.31463 0)
(2.64433 -4.93704 0)
(2.98825 -4.73394 7.0114e-17)
(3.11086 -4.6205 0)
(3.51047 -3.85426 -2.29839e-17)
(3.67416 -3.70899 -2.28152e-17)
(3.99589 -3.438 0)
(4.19129 -2.74117 0)
(4.26464 -2.39685 0)
(4.48029 -1.83618 0)
(4.44395 -1.2858 -2.18379e-17)
(4.43768 -0.831695 0)
(4.3337 -0.297843 2.16122e-17)
(4.12564 0.101426 0)
(3.97047 0.597921 0)
(3.73433 0.996329 0)
(3.54058 1.30459 4.15196e-17)
(3.30418 1.79181 0)
(3.03598 2.06039 -2.02424e-17)
(2.74586 2.26541 4.0343e-17)
(2.40136 2.64495 0)
(2.14337 2.42437 0)
(1.64257 2.62106 0)
(1.0125 3.1621 -1.93135e-17)
(0.832095 1.78666 -1.8966e-17)
(-0.0126317 0.9464 0)
(-0.720338 1.37615 0)
(-0.681179 0.196476 3.66467e-17)
(-1.14793 -0.94042 3.58791e-17)
(-1.29416 -0.754976 -3.56871e-17)
(-0.443994 -0.472317 0)
(0.173051 -1.09471 0)
(-0.732185 -1.96011 0)
(-1.96196 0.0884154 0)
(-3.77286 3.05052 3.6303e-17)
(-6.15848 4.18608 3.60009e-17)
(-7.7338 4.65264 -3.57771e-17)
(-8.79077 5.02415 0)
(-9.74905 5.07614 0)
(-10.7139 5.09649 0)
(-11.4864 5.22566 0)
(-12.1309 5.24688 3.44198e-17)
(-12.5906 5.09865 0)
(-13.0038 4.86047 0)
(-13.3433 4.56019 3.36262e-17)
(-13.6461 4.25806 3.33698e-17)
(-13.9066 3.95124 0)
(-14.1339 3.65847 -6.57442e-17)
(-14.3291 3.37366 3.26185e-17)
(-14.4941 3.11089 -3.23724e-17)
(-14.6188 2.84932 0)
(-14.7054 2.60699 0)
(-14.7596 2.36504 0)
(-14.7551 2.13215 0)
(-14.7014 1.94013 -3.11569e-17)
(-14.5982 1.79633 -6.18588e-17)
(-14.4418 1.7133 -3.06373e-17)
(-14.2592 1.68257 3.03729e-17)
(-14.0548 1.66351 0)
(-13.8337 1.63509 -5.98445e-17)
(-13.6037 1.56633 -5.94015e-17)
(-13.3655 1.4808 -5.89728e-17)
(-13.1007 1.44362 5.85269e-17)
(-12.7669 1.45838 0)
(-12.4458 1.55321 8.63259e-17)
(-12.1683 1.63106 0)
(-11.7875 1.60583 -2.84194e-17)
(-11.4821 1.72277 -2.80965e-17)
(-11.0957 1.78735 0)
(-10.724 1.91245 0)
(-10.3872 1.94378 -5.50471e-17)
(-9.97072 2.01458 0)
(-9.62806 2.246 -5.41325e-17)
(-9.1298 2.26173 0)
(-8.72496 2.2996 5.33587e-17)
(-8.31048 2.50971 1.0562e-16)
(-7.79146 2.53123 0)
(-7.34675 2.66061 0)
(-6.88089 2.82969 0)
(-6.37228 2.87696 5.10269e-17)
(-5.83227 3.00785 0)
(-5.30033 3.14451 4.99038e-17)
(-4.80139 3.23177 0)
(-4.25867 3.3388 0)
(-3.75493 3.42124 -9.65805e-17)
(-3.26471 3.45371 0)
(-2.7549 3.48124 -4.74273e-17)
(-2.2481 3.50809 0)
(-1.81262 3.54159 -4.66742e-17)
(-1.46434 3.5764 0)
(-1.09941 3.55208 0)
(-0.650576 3.53737 0)
(-0.11635 3.5692 -1.35694e-16)
(0.350619 3.62234 -4.46089e-17)
(0.725755 3.59721 0)
(0.993924 3.54919 0)
(1.22408 3.48111 0)
(1.35519 3.39852 0)
(1.42814 3.28047 4.18424e-17)
(1.44825 3.197 -8.25477e-17)
(1.41192 3.15982 -4.0542e-17)
(1.33 3.12173 8.0346e-17)
(1.18943 3.03043 7.92084e-17)
(1.07991 2.84768 3.87947e-17)
(1.01072 2.71444 0)
(0.897437 2.58923 7.6633e-17)
(0.757176 2.42097 0)
(0.547086 2.13507 -7.81709e-17)
(0.329286 1.98267 -3.94827e-17)
(0.108972 1.83151 0)
(0.148739 1.59062 7.90675e-17)
(0.292935 1.52896 3.8837e-17)
(0.257753 1.51273 0)
(0.0408772 1.31053 4.01594e-17)
(-0.16378 1.12028 -1.21951e-16)
(-0.142684 0.962683 0)
(0.211151 0.793058 0)
(0.658313 0.735144 0)
(1.29827 0.713804 0)
(2.53926 0.985989 -7.78338e-17)
(3.28943 1.44618 -7.38042e-17)
(3.30028 1.75421 0)
(3.2106 1.94522 0)
(2.65115 1.81765 0)
(1.9336 1.90219 0)
(0.756764 2.68103 0)
(-1.21979 3.86784 0)
(-3.47853 4.50836 -7.21003e-17)
(-5.96499 4.62438 1.0235e-19)
(-8.08867 4.42387 0)
(-9.05732 3.34666 0)
(-9.62624 2.92877 -7.03377e-17)
(-9.78582 3.65002 0)
(-11.8323 4.34357 7.11525e-17)
(-13.8007 2.68386 7.0965e-17)
(-12.1233 2.05567 0)
(-12.1886 2.7419 0)
(-8.93499 4.04183 -6.57041e-17)
(-13.0786 2.96596 -1.37749e-16)
(-12.0942 0.576278 0)
(-10.5676 0.393338 0)
(-7.48361 2.54631 0)
(-8.89195 2.51754 -6.48137e-17)
(-7.93062 1.21733 6.59462e-17)
(-5.38052 2.5551 0)
(-6.18624 2.55826 1.24118e-16)
(-4.49791 1.86015 6.15326e-17)
(-3.64903 2.50981 -1.18735e-16)
(-2.66248 2.39356 0)
(-1.2918 3.22906 0)
(-3.26648 3.10862 -1.09707e-16)
(-2.87274 2.95738 -5.18783e-17)
(-2.41456 3.60005 0)
(-5.82627 4.03171 0)
(-6.93881 2.60319 0)
(-4.03818 2.77671 0)
(-3.12604 3.81559 -1.02321e-16)
(-5.43459 3.92724 0)
(-5.51635 2.89839 0)
(-3.14871 3.09693 0)
(-2.66243 4.55488 0)
(-4.81954 4.61665 0)
(-5.18157 4.30143 0)
(-6.97762 5.25757 -8.76109e-17)
(-7.68054 4.75191 0)
(-5.14614 4.01964 0)
(-5.35355 4.6657 -1.62438e-16)
(-1.67634 -0.483938 9.8018e-17)
(6.20353 3.69333 -8.52076e-17)
(6.40464 4.68271 8.27877e-17)
(-0.203562 -1.697 0)
(-0.357564 -1.58233 -4.93215e-17)
(-0.387122 -1.57425 0)
(-0.11977 -2.52913 -2.45413e-17)
(0.478781 -4.0968 0)
(1.18143 -5.52197 0)
(1.76334 -6.49851 2.41482e-17)
(2.20296 -6.90762 0)
(2.42781 -7.067 0)
(2.56028 -6.81959 0)
(2.77537 -6.5438 0)
(2.73953 -6.40661 0)
(3.11403 -5.77141 -9.34574e-17)
(3.189 -5.80221 -4.60328e-17)
(3.52488 -5.25232 4.56212e-17)
(3.81983 -4.8206 0)
(3.95097 -4.55907 0)
(4.32933 -3.65165 0)
(4.2741 -3.23302 0)
(4.52882 -2.53442 0)
(4.50279 -1.71695 -4.34592e-17)
(4.33934 -1.17963 -4.3077e-17)
(4.34784 -0.430173 4.28278e-17)
(4.00461 0.135685 -4.24348e-17)
(3.73859 0.652871 0)
(3.4923 1.2158 0)
(3.11237 1.60566 -4.17155e-17)
(2.94736 1.96735 0)
(2.77149 2.39052 0)
(2.41188 2.69095 -4.02822e-17)
(2.26393 2.84654 -4.02035e-17)
(2.13555 3.19621 -3.99998e-17)
(1.8169 3.28424 0)
(1.79791 2.49112 0)
(1.30484 2.74299 3.81172e-17)
(0.3168 3.2235 0)
(0.363929 1.18205 0)
(-0.120036 0.799931 -3.68665e-17)
(-0.777423 1.45997 3.63668e-17)
(-0.727031 -0.874744 -3.55413e-17)
(-1.2407 -1.98715 0)
(-2.57615 1.04895 0)
(-5.37826 4.15866 -7.41933e-17)
(-7.29387 4.73371 0)
(-8.30233 5.32278 -7.28492e-17)
(-9.34677 5.73205 -1.08503e-16)
(-10.165 6.14772 1.07636e-16)
(-10.9149 6.44212 -7.1103e-17)
(-11.4406 6.48231 0)
(-11.9153 6.44597 0)
(-12.274 6.35133 -6.9417e-17)
(-12.5522 6.21256 -3.44614e-17)
(-12.8011 6.00023 0)
(-13.0229 5.73275 0)
(-13.2287 5.42418 -3.37179e-17)
(-13.4095 5.10294 -6.69508e-17)
(-13.6065 4.75483 0)
(-13.7779 4.43772 6.59963e-17)
(-13.9243 4.12841 -6.55431e-17)
(-14.0437 3.8462 6.50864e-17)
(-14.1359 3.56772 0)
(-14.1882 3.28579 0)
(-14.214 3.01523 0)
(-14.2077 2.75473 0)
(-14.1606 2.52345 0)
(-14.0734 2.33091 6.22379e-17)
(-13.9582 2.20271 0)
(-13.7782 2.12587 0)
(-13.5489 2.08641 0)
(-13.2704 2.07184 1.20308e-16)
(-12.9687 2.01938 5.95982e-17)
(-12.6588 1.94658 5.91204e-17)
(-12.3758 1.94224 -1.17413e-16)
(-12.064 1.94684 5.82959e-17)
(-11.6994 2.03596 -5.76466e-17)
(-11.4301 2.19379 0)
(-10.9768 2.16038 5.66882e-17)
(-10.7034 2.35352 0)
(-10.3246 2.39006 0)
(-9.94077 2.57328 0)
(-9.616 2.66816 1.09952e-16)
(-9.23052 2.78918 -5.46514e-17)
(-8.90331 2.97981 -5.43828e-17)
(-8.4326 3.07566 -1.07697e-16)
(-8.08422 3.21063 -1.60176e-16)
(-7.70822 3.40041 -5.28974e-17)
(-7.26732 3.48245 0)
(-6.87407 3.637 -1.04689e-16)
(-6.47354 3.86113 0)
(-6.02145 3.93357 -1.54508e-16)
(-5.57622 4.10139 0)
(-5.00631 4.27101 -1.51477e-16)
(-4.51462 4.36937 0)
(-4.01327 4.50049 0)
(-3.45007 4.64851 -4.92214e-17)
(-2.89196 4.70226 0)
(-2.44208 4.77127 4.81539e-17)
(-1.9124 4.80971 9.55345e-17)
(-1.34966 4.91387 4.69013e-17)
(-0.871036 5.04864 9.32124e-17)
(-0.505043 5.06576 -9.27101e-17)
(-0.186759 4.84139 -9.22876e-17)
(0.209421 4.75361 1.82525e-16)
(0.602473 4.74213 0)
(0.973819 4.73107 0)
(1.33611 4.72736 8.84447e-17)
(1.67519 4.71174 -8.77791e-17)
(1.92295 4.68352 0)
(2.18138 4.55686 0)
(2.26583 4.48972 8.40154e-17)
(2.35236 4.44315 0)
(2.38316 4.3385 4.20822e-19)
(2.35228 4.20189 4.1727e-19)
(2.2513 3.98252 8.02453e-17)
(2.2121 3.79252 0)
(2.21751 3.49081 -7.69552e-17)
(2.17555 3.22203 0)
(2.06989 2.97145 7.68944e-17)
(1.78159 2.78193 0)
(1.32455 2.56661 0)
(1.09504 2.23693 -8.1206e-17)
(0.937743 2.18115 -8.10647e-17)
(1.00706 2.16726 0)
(1.15016 1.83909 -7.95664e-17)
(0.910755 1.4776 1.60122e-16)
(0.671996 1.17818 0)
(0.675018 0.849429 0)
(0.91628 0.726437 0)
(1.43548 0.308998 0)
(2.54039 0.576744 8.04591e-17)
(3.68194 1.66925 -1.53933e-16)
(3.52349 2.37389 0)
(3.39652 2.84412 0)
(2.80272 2.98126 0)
(1.46674 3.44302 0)
(-0.198798 4.63362 0)
(-2.31432 5.68077 0)
(-4.01135 6.56833 0)
(-5.3963 7.03156 7.2649e-17)
(-7.12061 6.3639 0)
(-7.62458 4.55266 0)
(-9.22834 4.26646 7.10476e-17)
(-9.22224 5.07101 0)
(-11.5198 6.18198 0)
(-13.6662 3.84147 -7.17672e-17)
(-13.4078 2.26328 0)
(-13.3257 2.49945 0)
(-10.1896 4.94521 1.30194e-16)
(-10.1566 4.74916 1.35155e-16)
(-10.0184 0.906208 1.38269e-16)
(-10.3773 0.070967 0)
(-8.05712 2.85036 1.30485e-16)
(-8.6299 3.74006 0)
(-8.24789 1.17501 -1.35815e-16)
(-5.78577 3.1994 0)
(-6.83912 3.38612 -1.27554e-16)
(-5.34692 2.32436 6.37732e-20)
(-4.17583 3.38862 1.23841e-16)
(-3.69002 2.50162 -1.21572e-16)
(0.327967 4.50613 1.15763e-16)
(-1.99178 4.89942 2.26205e-16)
(-1.69221 3.98741 0)
(-0.134203 5.53695 0)
(-3.95744 6.22146 0)
(-5.27476 3.12955 0)
(-3.62596 2.54583 0)