/*--------------------------------*- C++ -*----------------------------------*\
| =========                 |                                                 |
| \\      /  F ield         | OpenFOAM: The Open Source CFD Toolbox           |
|  \\    /   O peration     | Version:  dev                                   |
|   \\  /    A nd           | Web:      http://www.openfoam.org               |
|    \\/     M anipulation  |                                                 |
\*---------------------------------------------------------------------------*/
FoamFile
{
    version     2.0;
    format      ascii;
    class       volVectorField;
    object      UMean;
    location    "9.166";
}
// * * * * * * * * * * * * * * * * * * * * * * * * * * * * * * * * * * * * * //

dimensions      [0 1 -1 0 0 0 0];

internalField   nonuniform List<vector> 
12225
(
(7.00354 0.430267 0)
(4.43868 0.192541 0)
(2.55678 0.0311563 0)
(2.51082 -0.016648 0)
(1.38449 0.0193575 0)
(2.2673 -0.0342683 0)
(0.98948 0.0489757 0)
(2.18261 -0.0591658 0)
(0.797322 0.0716512 0)
(2.29182 -0.0978441 0)
(0.688442 0.099374 0)
(2.74363 -0.138634 0)
(0.947643 0.102614 0)
(3.39705 -0.172146 0)
(3.53005 -0.168404 0)
(4.69522 0.0499712 0)
(14.8418 -2.43361 0)
(7.11741 5.1327 0)
(9.54627 0.981583 0)
(9.54319 0.860834 0)
(6.68681 0.466276 0)
(7.5903 0.214543 0)
(4.09072 0.140325 0)
(6.84303 0.0108498 0)
(2.6651 0.13264 0)
(6.68917 -0.0902762 0)
(1.82227 0.141846 0)
(7.0391 -0.165033 0)
(1.26005 0.123917 0)
(8.12158 -0.414374 0)
(1.38452 0.252439 0)
(9.95466 -1.44215 0)
(3.43394 0.272345 0)
(12.3874 -4.06768 0)
(10.4249 -1.9267 0)
(7.77288 0.483438 0)
(9.11856 0.763596 0)
(12.1666 0.951387 0)
(8.32958 0.624001 0)
(11.8319 0.443367 0)
(6.22625 0.310342 0)
(11.4128 0.206533 0)
(4.58291 0.221507 0)
(11.3149 -0.0193681 0)
(3.87391 0.192942 0)
(11.3764 -0.277726 0)
(4.34985 0.187295 0)
(11.2528 -0.723121 0)
(5.7279 0.176103 0)
(11.0898 -1.49163 0)
(7.21433 0.0530852 0)
(12.1154 -3.86554 0)
(6.93384 0.351106 0)
(9.35171 -2.3929 0)
(7.2191 0.525031 0)
(13.9928 0.960932 0)
(7.93003 0.609538 0)
(14.2952 0.553783 0)
(7.47472 0.420982 0)
(14.1162 0.271107 0)
(7.17613 0.396734 0)
(13.7384 -0.144922 0)
(7.25705 0.459638 0)
(13.2695 -0.698529 0)
(7.65948 0.576869 0)
(12.8742 -1.42261 0)
(8.26664 0.699685 0)
(12.6503 -2.31334 0)
(9.02306 0.0430747 0)
(11.8864 -3.63785 0)
(8.68661 -1.43073 0)
(8.36309 0.680613 0)
(6.4246 0.570182 0)
(14.0101 0.565804 0)
(8.4741 0.674617 0)
(13.9572 0.284466 0)
(9.17 0.636824 0)
(13.6426 -0.0025259 0)
(9.51782 0.65795 0)
(13.2129 -0.388533 0)
(9.59281 0.734451 0)
(12.8119 -0.871078 0)
(9.44633 0.876992 0)
(12.5812 -1.52113 0)
(9.1504 1.09018 0)
(12.5687 -2.48971 0)
(8.82787 1.1331 0)
(11.6152 -5.02794 0)
(8.54249 1.26806 0)
(8.72104 0.124128 0)
(7.95755 0.61707 0)
(11.8018 0.152254 0)
(9.50575 0.654946 0)
(11.7381 0.0501159 0)
(10.0887 0.694106 0)
(11.5991 -0.165723 0)
(10.321 0.726043 0)
(11.475 -0.457551 0)
(10.301 0.783288 0)
(11.3884 -0.853608 0)
(10.0334 0.832435 0)
(11.3542 -1.40015 0)
(9.49331 0.801915 0)
(11.4169 -2.13853 0)
(8.80215 0.726983 0)
(10.9976 -3.91987 0)
(7.73393 1.33727 0)
(9.48872 -0.219872 0)
(9.34487 0.812876 0)
(10.4382 -0.265975 0)
(10.1412 0.930763 0)
(10.5533 -0.304586 0)
(10.3991 1.0202 0)
(10.5814 -0.502918 0)
(10.5206 1.07573 0)
(10.6249 -0.781156 0)
(10.564 1.15374 0)
(10.6714 -1.15761 0)
(10.5161 1.23552 0)
(10.6997 -1.63541 0)
(10.3677 1.2616 0)
(10.6879 -2.32677 0)
(10.054 1.27154 0)
(10.3761 -3.95271 0)
(8.29991 2.01871 0)
(9.69709 -0.953105 0)
(9.84936 0.701377 0)
(10.1558 -0.326036 0)
(10.4067 0.855414 0)
(10.3897 -0.350026 0)
(10.5804 0.907212 0)
(10.4705 -0.494121 0)
(10.7018 0.893366 0)
(10.552 -0.686397 0)
(10.8055 0.873129 0)
(10.6438 -0.935255 0)
(10.8811 0.824258 0)
(10.7354 -1.23262 0)
(10.908 0.671816 0)
(10.7539 -1.67229 0)
(10.7229 0.520099 0)
(10.4926 -2.47292 0)
(8.89447 0.980434 0)
(9.96403 -0.483946 0)
(10.0858 0.802443 0)
(10.0196 -0.583418 0)
(10.5355 1.02179 0)
(10.3106 -0.604548 0)
(10.6751 1.07531 0)
(10.44 -0.72499 0)
(10.7775 1.04853 0)
(10.5708 -0.889986 0)
(10.8572 1.00396 0)
(10.7113 -1.11759 0)
(10.8987 0.921374 0)
(10.8317 -1.39463 0)
(10.8738 0.73505 0)
(10.822 -1.76035 0)
(10.6019 0.506001 0)
(10.5205 -2.06774 0)
(9.35052 0.586341 0)
(10.0235 -0.391437 0)
(10.139 0.648862 0)
(10.0423 -0.512021 0)
(10.5102 0.878404 0)
(10.3335 -0.456607 0)
(10.6213 0.869565 0)
(10.482 -0.493747 0)
(10.6978 0.778619 0)
(10.629 -0.572196 0)
(10.7341 0.658257 0)
(10.7635 -0.695333 0)
(10.7179 0.495909 0)
(10.8401 -0.844873 0)
(10.6181 0.264464 0)
(10.7654 -1.03184 0)
(10.2823 0.070601 0)
(10.4794 -1.05218 0)
(9.6238 0.124156 0)
(10.2069 -0.0326525 0)
(10.141 0.700203 0)
(10.0707 -0.691821 0)
(10.4525 0.902812 0)
(10.2985 -0.618837 0)
(10.5374 0.847894 0)
(10.4302 -0.645427 0)
(10.6032 0.735536 0)
(10.5606 -0.707229 0)
(10.6272 0.587043 0)
(10.6603 -0.79102 0)
(10.6091 0.383454 0)
(10.6811 -0.868991 0)
(10.5268 0.117484 0)
(10.5709 -0.92167 0)
(10.2915 -0.113312 0)
(10.3609 -0.764524 0)
(10.02 -0.15375 0)
(10.2455 -0.125018 0)
(10.0968 0.46818 0)
(10.1509 -0.495049 0)
(10.3536 0.596007 0)
(10.2934 -0.374549 0)
(10.4203 0.527772 0)
(10.4094 -0.354694 0)
(10.4848 0.419123 0)
(10.5239 -0.374042 0)
(10.5131 0.27599 0)
(10.5993 -0.414463 0)
(10.5157 0.0936325 0)
(10.597 -0.461396 0)
(10.4766 -0.102922 0)
(10.4995 -0.499737 0)
(10.3571 -0.231703 0)
(10.3646 -0.405172 0)
(10.266 -0.219438 0)
(10.3738 -0.109904 0)
(10.0501 0.411137 0)
(10.1754 -0.487048 0)
(10.2548 0.437384 0)
(10.2379 -0.367261 0)
(10.3087 0.367545 0)
(10.3306 -0.345299 0)
(10.3792 0.25105 0)
(10.4246 -0.354979 0)
(10.4226 0.0997165 0)
(10.4822 -0.374555 0)
(10.4462 -0.0793865 0)
(10.4817 -0.403059 0)
(10.4329 -0.246273 0)
(10.4261 -0.430826 0)
(10.3772 -0.338742 0)
(10.3686 -0.392164 0)
(10.3571 -0.320061 0)
(10.4222 -0.276045 0)
(10.0153 0.199768 0)
(10.1907 -0.285575 0)
(10.1931 0.167482 0)
(10.2051 -0.179062 0)
(10.2293 0.131833 0)
(10.2791 -0.171098 0)
(10.3061 0.0474281 0)
(10.3625 -0.197494 0)
(10.3659 -0.0584626 0)
(10.4141 -0.235429 0)
(10.4054 -0.175704 0)
(10.4266 -0.28609 0)
(10.4123 -0.274619 0)
(10.4111 -0.331251 0)
(10.3994 -0.323697 0)
(10.4065 -0.336732 0)
(10.4108 -0.315549 0)
(10.4696 -0.304336 0)
(9.99665 0.0972269 0)
(10.1445 -0.185612 0)
(10.1464 0.0218205 0)
(10.1502 -0.133394 0)
(10.1622 -0.00842489 0)
(10.2089 -0.145859 0)
(10.241 -0.0767186 0)
(10.2919 -0.186418 0)
(10.311 -0.159104 0)
(10.3486 -0.237621 0)
(10.3575 -0.24444 0)
(10.379 -0.29792 0)
(10.3804 -0.315872 0)
(10.3938 -0.349629 0)
(10.3958 -0.360551 0)
(10.4184 -0.379688 0)
(10.4237 -0.380525 0)
(10.4787 -0.386683 0)
(9.99365 0.0155868 0)
(10.1059 -0.0856118 0)
(10.1088 -0.0441531 0)
(10.1138 -0.0930441 0)
(10.1188 -0.0746858 0)
(10.1674 -0.118703 0)
(10.1979 -0.12037 0)
(10.2517 -0.163569 0)
(10.274 -0.180291 0)
(10.3152 -0.218854 0)
(10.3277 -0.243601 0)
(10.3596 -0.277462 0)
(10.3658 -0.300951 0)
(10.3938 -0.328589 0)
(10.3994 -0.346551 0)
(10.4327 -0.370329 0)
(10.4354 -0.38329 0)
(10.4882 -0.39648 0)
(9.99172 0.0048399 0)
(10.0635 -0.0250339 0)
(10.0567 -0.0347785 0)
(10.0678 -0.0663142 0)
(10.0778 -0.0755497 0)
(10.128 -0.0995803 0)
(10.1572 -0.115737 0)
(10.2109 -0.144475 0)
(10.2336 -0.168722 0)
(10.2781 -0.199298 0)
(10.2919 -0.226263 0)
(10.3299 -0.256711 0)
(10.3383 -0.282965 0)
(10.373 -0.311672 0)
(10.3787 -0.336393 0)
(10.4151 -0.365095 0)
(10.4145 -0.387584 0)
(10.4633 -0.406973 0)
(9.99151 0.0141929 0)
(10.0466 0.0161689 0)
(10.0398 -0.010541 0)
(10.0575 -0.037627 0)
(10.0748 -0.0564577 0)
(10.1254 -0.0777554 0)
(10.1554 -0.0987383 0)
(10.2071 -0.12367 0)
(10.2311 -0.148811 0)
(10.2753 -0.176421 0)
(10.2911 -0.203195 0)
(10.3292 -0.231896 0)
(10.3394 -0.259075 0)
(10.3736 -0.287991 0)
(10.38 -0.315288 0)
(10.414 -0.345326 0)
(10.4132 -0.371157 0)
(10.4566 -0.392947 0)
(9.99171 0.0328941 0)
(10.0502 0.0495566 0)
(10.0566 0.009887 0)
(10.0799 -0.0180957 0)
(10.1007 -0.0402274 0)
(10.1506 -0.061441 0)
(10.1819 -0.0835419 0)
(10.2316 -0.106313 0)
(10.2563 -0.130423 0)
(10.2984 -0.155357 0)
(10.315 -0.180892 0)
(10.3507 -0.207113 0)
(10.3614 -0.233318 0)
(10.3926 -0.260143 0)
(10.3991 -0.286732 0)
(10.4287 -0.314959 0)
(10.4281 -0.340664 0)
(10.4653 -0.362412 0)
(9.98988 0.0406639 0)
(10.0546 0.0525365 0)
(10.0827 -0.00640842 0)
(10.1166 -0.0407097 0)
(10.1419 -0.0641263 0)
(10.1903 -0.0822503 0)
(10.2223 -0.102047 0)
(10.269 -0.120931 0)
(10.2935 -0.142638 0)
(10.332 -0.163853 0)
(10.3483 -0.187235 0)
(10.3801 -0.209895 0)
(10.3904 -0.234171 0)
(10.4174 -0.257664 0)
(10.4228 -0.282501 0)
(10.4473 -0.30751 0)
(10.4461 -0.332116 0)
(10.4768 -0.352483 0)
(9.99055 0.0315426 0)
(10.0684 0.0218809 0)
(10.1261 -0.0558274 0)
(10.1769 -0.0968105 0)
(10.2125 -0.119806 0)
(10.2609 -0.132739 0)
(10.2938 -0.14774 0)
(10.3361 -0.161593 0)
(10.3601 -0.179736 0)
(10.3941 -0.196796 0)
(10.4103 -0.217208 0)
(10.4377 -0.236064 0)
(10.4479 -0.257778 0)
(10.4702 -0.277816 0)
(10.4754 -0.300468 0)
(10.4947 -0.322065 0)
(10.494 -0.344893 0)
(10.5188 -0.363151 0)
(9.99118 0.00980194 0)
(10.0919 -0.0298625 0)
(10.1869 -0.120938 0)
(10.2594 -0.162837 0)
(10.3093 -0.181156 0)
(10.3589 -0.187157 0)
(10.3929 -0.195998 0)
(10.4304 -0.204299 0)
(10.4542 -0.218007 0)
(10.4837 -0.230617 0)
(10.5002 -0.247445 0)
(10.5233 -0.262446 0)
(10.5338 -0.281123 0)
(10.5517 -0.297782 0)
(10.5573 -0.31781 0)
(10.5719 -0.336122 0)
(10.5724 -0.356678 0)
(10.5921 -0.372791 0)
(9.99284 -0.023431 0)
(10.1275 -0.103738 0)
(10.267 -0.205012 0)
(10.3664 -0.241643 0)
(10.4319 -0.250821 0)
(10.4835 -0.248366 0)
(10.5183 -0.250842 0)
(10.5517 -0.25361 0)
(10.5753 -0.262861 0)
(10.6012 -0.271193 0)
(10.6181 -0.284496 0)
(10.6378 -0.296088 0)
(10.6487 -0.311872 0)
(10.6632 -0.325602 0)
(10.6692 -0.343109 0)
(10.6802 -0.358535 0)
(10.6815 -0.376827 0)
(10.6969 -0.39095 0)
(9.99045 -0.0716226 0)
(10.1743 -0.201264 0)
(10.3677 -0.305524 0)
(10.5 -0.327893 0)
(10.5804 -0.322552 0)
(10.6343 -0.310142 0)
(10.6689 -0.305489 0)
(10.6996 -0.302457 0)
(10.7226 -0.306568 0)
(10.746 -0.310421 0)
(10.7624 -0.319715 0)
(10.7794 -0.327835 0)
(10.7895 -0.340342 0)
(10.8006 -0.351096 0)
(10.8055 -0.365663 0)
(10.8124 -0.378202 0)
(10.8122 -0.393739 0)
(10.8222 -0.405671 0)
(9.99201 -0.136419 0)
(10.2447 -0.323111 0)
(10.5026 -0.419074 0)
(10.6711 -0.417658 0)
(10.7626 -0.39415 0)
(10.8174 -0.371043 0)
(10.8493 -0.358845 0)
(10.8771 -0.350464 0)
(10.896 -0.349949 0)
(10.9148 -0.350321 0)
(10.9253 -0.356179 0)
(10.9355 -0.36129 0)
(10.9375 -0.370565 0)
(10.9394 -0.378409 0)
(10.934 -0.389583 0)
(10.9293 -0.399148 0)
(10.9166 -0.41105 0)
(10.9118 -0.420182 0)
(9.98973 -0.21994 0)
(10.3368 -0.468189 0)
(10.6735 -0.539767 0)
(10.8756 -0.508198 0)
(10.9696 -0.464776 0)
(11.0134 -0.427957 0)
(11.0285 -0.404679 0)
(11.0351 -0.388232 0)
(11.029 -0.381241 0)
(11.0194 -0.376772 0)
(10.998 -0.37796 0)
(10.9736 -0.378852 0)
(10.9379 -0.383557 0)
(10.9002 -0.387021 0)
(10.8525 -0.393371 0)
(10.8045 -0.398683 0)
(10.7466 -0.404989 0)
(10.695 -0.409753 0)
(9.98329 -0.33212 0)
(10.4675 -0.642378 0)
(10.8827 -0.667133 0)
(11.0723 -0.602607 0)
(11.1029 -0.537123 0)
(11.0583 -0.483031 0)
(10.9743 -0.444873 0)
(10.8732 -0.416099 0)
(10.7579 -0.397867 0)
(10.6353 -0.383117 0)
(10.5039 -0.374718 0)
(10.3671 -0.366152 0)
(10.2248 -0.362258 0)
(10.0782 -0.356802 0)
(9.92952 -0.355647 0)
(9.77808 -0.353051 0)
(9.62704 -0.352744 0)
(9.47727 -0.350903 0)
(10.0025 -0.453673 0)
(10.6189 -0.818974 0)
(10.9015 -0.752041 0)
(10.7932 -0.623675 0)
(10.4938 -0.512458 0)
(10.1378 -0.429108 0)
(9.77041 -0.373473 0)
(9.41802 -0.334624 0)
(9.07735 -0.30719 0)
(8.75615 -0.284504 0)
(8.44732 -0.267548 0)
(8.15438 -0.251226 0)
(7.87379 -0.239937 0)
(7.60436 -0.227238 0)
(7.34972 -0.221034 0)
(7.10034 -0.211726 0)
(6.87208 -0.210752 0)
(6.6428 -0.204078 0)
(10.0975 -0.750791 0)
(10.0458 -1.0132 0)
(9.42488 -0.80105 0)
(8.51452 -0.57213 0)
(7.65521 -0.378693 0)
(6.9292 -0.244861 0)
(6.32777 -0.167495 0)
(5.83218 -0.126224 0)
(5.40989 -0.104675 0)
(5.04944 -0.0922927 0)
(4.72947 -0.0849334 0)
(4.44886 -0.0793222 0)
(4.19257 -0.0757805 0)
(3.96378 -0.0718645 0)
(3.75217 -0.0721107 0)
(3.55709 -0.0690578 0)
(3.38496 -0.0802375 0)
(3.22012 -0.0828335 0)
(8.51671 -0.436078 0)
(6.11017 -0.380888 0)
(4.29831 -0.138042 0)
(3.12399 -0.0213793 0)
(2.48129 0.019138 0)
(2.12072 0.0224784 0)
(1.89654 0.013722 0)
(1.73528 0.00462129 0)
(1.59931 -0.00156294 0)
(1.47863 -0.0047859 0)
(1.36658 -0.00639952 0)
(1.26447 -0.00671323 0)
(1.16885 -0.00670222 0)
(1.08217 -0.00638401 0)
(1.00017 -0.00665188 0)
(0.919975 -0.00702667 0)
(0.8525 -0.0186002 0)
(0.732032 -0.00612352 0)
(-0.0520316 0.137965 0)
(-0.15714 0.0716079 0)
(-0.207234 0.0165928 0)
(-0.19549 -0.0442485 0)
(-0.118281 -0.0990215 0)
(0.0119142 -0.145118 0)
(0.186031 -0.175717 1.11359e-17)
(0.387877 -0.193725 -1.10609e-17)
(0.606238 -0.198146 0)
(0.828768 -0.192898 -1.09177e-17)
(1.04608 -0.178562 0)
(1.24919 -0.157796 0)
(1.43154 -0.131157 0)
(1.58786 -0.101789 1.06431e-17)
(1.71551 -0.0705271 0)
(1.81172 -0.0384484 0)
(1.87558 -0.00629741 -1.04459e-17)
(1.90781 0.0239705 0)
(1.91009 0.0504554 0)
(1.88448 0.0722156 0)
(1.83468 0.0892172 1.01965e-17)
(1.76325 0.100797 0)
(1.67409 0.108675 1.00745e-17)
(1.56891 0.111582 0)
(1.45234 0.109701 0)
(1.32711 0.108066 9.89582e-18)
(1.19349 0.111363 0)
(1.05073 0.116463 -9.77949e-18)
(0.902031 0.121663 0)
(0.748008 0.126658 9.6646e-18)
(0.590219 0.130608 0)
(0.430941 0.133024 0)
(0.272436 0.134161 0)
(0.115161 0.133931 0)
(-0.0405881 0.131054 0)
(-0.192744 0.126416 -9.32978e-18)
(-0.339684 0.120367 0)
(-0.481001 0.113935 1.84408e-17)
(-0.615246 0.107519 0)
(-0.741989 0.100343 -1.82218e-17)
(-0.859722 0.0932899 0)
(-0.96859 0.0864649 0)
(-1.06904 0.0786583 1.78885e-17)
(-1.16064 0.0703024 0)
(-1.24406 0.0626604 1.76653e-17)
(-1.31938 0.0555237 -1.75532e-17)
(-1.38612 0.0485007 0)
(-1.44496 0.0422556 -1.73283e-17)
(-1.49693 0.0368019 -1.72153e-17)
(-1.54107 0.033123 0)
(-1.57757 0.0316043 0)
(-1.60835 0.03166 0)
(-1.63549 0.031814 0)
(-1.65992 0.0318068 0)
(-1.68309 0.0326473 1.65282e-17)
(-1.70687 0.0341584 0)
(-1.73264 0.0363545 -1.6299e-17)
(-1.75917 0.0383991 0)
(-1.78523 0.0389965 0)
(-1.81082 0.0395456 1.59526e-17)
(-1.83659 0.0412436 0)
(-1.86424 0.0424012 -1.57213e-17)
(-1.8938 0.0440168 0)
(-1.92499 0.0454411 0)
(-1.95731 0.0461809 0)
(-1.99015 0.0472895 1.52556e-17)
(-2.02347 0.0492341 0)
(-2.05735 0.0514876 0)
(-2.09192 0.053868 1.4906e-17)
(-2.12744 0.0551906 0)
(-2.16116 0.0554274 1.46714e-17)
(-2.19196 0.0561023 0)
(-2.21997 0.0566758 0)
(-2.24403 0.0566823 0)
(-2.26286 0.0560987 -1.42054e-17)
(-2.27587 0.0548933 0)
(-2.28363 0.0541302 0)
(-2.28798 0.0540262 -1.38616e-17)
(-2.28935 0.0530197 -1.37482e-17)
(-2.28603 0.0513404 0)
(-2.27623 0.0490458 -1.3523e-17)
(-2.25987 0.046103 0)
(-2.23652 0.0429234 -2.6603e-17)
(-2.2062 0.039479 0)
(-2.16946 0.0357864 -2.61676e-17)
(-2.12613 0.0327152 0)
(-2.07726 0.0302913 2.57388e-17)
(-2.02371 0.0283185 0)
(-1.9656 0.0268914 0)
(-1.90357 0.0259221 0)
(-1.83917 0.0253387 -2.49018e-17)
(-1.77214 0.0250751 0)
(-1.70412 0.0250325 2.45001e-17)
(-1.63512 0.0256135 0)
(-1.56584 0.0266335 -2.41107e-17)
(-1.49819 0.0291222 -2.39222e-17)
(-1.4314 0.0302794 -2.37378e-17)
(-1.36444 0.0313289 0)
(-1.29926 0.0313464 0)
(-1.23472 0.0325272 0)
(-1.16912 0.0333815 0)
(-1.10445 0.033019 0)
(-1.0348 0.0318808 0)
(-0.966159 0.0331553 0)
(-0.895348 0.0327608 0)
(-0.8283 0.035147 2.22138e-17)
(-0.760835 0.0356093 2.20615e-17)
(-0.698307 0.0399622 0)
(-0.637531 0.0412965 0)
(-0.581575 0.040949 0)
(-0.513699 0.0383308 2.14809e-17)
(-0.451047 0.042547 0)
(-0.382294 0.040876 0)
(-0.317441 0.0437457 0)
(-0.246711 0.0407665 0)
(-0.173821 0.0431137 -2.08064e-17)
(-0.0985554 0.044593 0)
(-0.0173436 0.0435146 0)
(0.0680595 0.0449462 2.04292e-17)
(0.157027 0.0448095 -2.03077e-17)
(0.249304 0.0441512 0)
(0.345235 0.0481606 -2.0075e-17)
(0.437019 0.0511823 0)
(0.52921 0.0549469 1.98485e-17)
(0.610077 0.0595663 0)
(0.681232 0.0624849 0)
(0.75612 0.0626573 0)
(0.825644 0.0633615 0)
(0.905228 0.0604352 0)
(0.979352 0.0609401 -3.83961e-17)
(1.0551 0.0624651 -3.8177e-17)
(1.1159 0.0671808 0)
(1.16663 0.0663833 0)
(1.2115 0.067721 0)
(1.24822 0.0636694 3.72527e-17)
(1.29587 0.0588952 0)
(1.34502 0.057249 0)
(1.38981 0.0561212 0)
(1.43811 0.053927 3.62327e-17)
(1.47726 0.0560562 -3.59648e-17)
(1.52164 0.0528176 0)
(1.56013 0.0528269 0)
(1.6018 0.053204 -3.515e-17)
(1.62798 0.0583605 -3.48769e-17)
(1.65749 0.0549816 0)
(1.68626 0.0586824 0)
(1.72561 0.0557018 3.40436e-17)
(1.76239 0.0659853 -3.37641e-17)
(1.77047 0.0713422 0)
(1.78428 0.0707347 0)
(1.80939 0.0711229 -3.29273e-17)
(1.84259 0.075835 0)
(1.85597 0.0834161 0)
(1.86696 0.0890956 -3.2083e-17)
(1.86611 0.0932285 0)
(1.88053 0.0980417 -3.15224e-17)
(1.88306 0.105049 0)
(1.88911 0.109176 0)
(1.87646 0.120798 0)
(1.86278 0.126738 3.04333e-17)
(1.84688 0.133151 0)
(1.81489 0.142909 0)
(1.74238 0.154631 0)
(1.66485 0.154799 0)
(1.5982 0.157267 0)
(1.50732 0.165982 0)
(1.3804 0.172322 2.88921e-17)
(1.26254 0.173951 2.87378e-17)
(1.07767 0.18218 0)
(0.872185 0.184548 0)
(0.629608 0.183715 0)
(0.413966 0.170031 -2.832e-17)
(0.191704 0.163028 0)
(0.0396465 0.146799 5.63439e-17)
(-0.159268 0.143825 -5.62333e-17)
(-0.25899 0.123584 -5.60546e-17)
(-0.4201 0.126924 5.59508e-17)
(-0.45373 0.0965478 -5.57479e-17)
(-0.610039 0.129738 5.57289e-17)
(-0.560972 -0.00330233 0)
(0.0100942 0.24908 0)
(0.0143106 0.192485 0)
(0.0492 0.00818883 -2.27971e-17)
(0.12037 -0.19804 0)
(0.23522 -0.384179 2.23663e-17)
(0.387528 -0.535722 2.22197e-17)
(0.568766 -0.644732 1.10445e-17)
(0.76876 -0.710777 1.09821e-17)
(0.976227 -0.737451 0)
(1.18056 -0.731202 1.08549e-17)
(1.37313 -0.695357 0)
(1.54663 -0.637049 0)
(1.69709 -0.562424 -2.13213e-17)
(1.81977 -0.478001 -1.05954e-17)
(1.9146 -0.386093 2.10568e-17)
(1.97981 -0.291534 2.09232e-17)
(2.01672 -0.199149 1.0396e-17)
(2.02546 -0.111035 0)
(2.00846 -0.0280007 0)
(1.9657 0.046688 0)
(1.90099 0.112156 1.01369e-17)
(1.8144 0.171335 0)
(1.71056 0.224313 -3.00381e-17)
(1.5883 0.267218 0)
(1.44998 0.302257 0)
(1.29611 0.332887 -9.83207e-18)
(1.13021 0.356901 0)
(0.955023 0.374218 9.71567e-18)
(0.77438 0.385266 1.93129e-17)
(0.589194 0.392481 -9.59768e-18)
(0.402249 0.3945 0)
(0.214802 0.390644 0)
(0.0265233 0.383321 0)
(-0.162127 0.376354 1.87312e-17)
(-0.349341 0.367788 1.86167e-17)
(-0.533812 0.355565 9.25133e-18)
(-0.712789 0.340875 0)
(-0.886793 0.323875 -1.82763e-17)
(-1.05185 0.303394 0)
(-1.2103 0.281537 1.80509e-17)
(-1.36051 0.259086 0)
(-1.5041 0.236327 0)
(-1.63959 0.216004 -1.77168e-17)
(-1.7679 0.197051 0)
(-1.89147 0.179231 -5.24874e-17)
(-2.0093 0.16058 1.7386e-17)
(-2.12051 0.141754 0)
(-2.22469 0.124848 1.71658e-17)
(-2.32273 0.107136 1.70556e-17)
(-2.41336 0.0874404 0)
(-2.49465 0.0683415 0)
(-2.56877 0.0536098 0)
(-2.63758 0.0438563 0)
(-2.70301 0.0386604 0)
(-2.76445 0.0370761 -1.63739e-17)
(-2.82398 0.0365671 -3.25157e-17)
(-2.88186 0.0367022 1.61417e-17)
(-2.93547 0.034239 0)
(-2.98661 0.0303224 -3.18135e-17)
(-3.03569 0.0290378 1.57877e-17)
(-3.08203 0.02986 0)
(-3.12912 0.0304273 1.55502e-17)
(-3.17414 0.0328197 0)
(-3.21684 0.0338755 0)
(-3.25776 0.0328915 3.03758e-17)
(-3.29746 0.0319076 -1.50676e-17)
(-3.33276 0.0297909 2.98925e-17)
(-3.36562 0.0269475 -2.96512e-17)
(-3.39317 0.0239382 -1.47051e-17)
(-3.41774 0.0200885 0)
(-3.43627 0.0130502 -1.44634e-17)
(-3.44782 0.0032148 0)
(-3.45373 -0.00721983 0)
(-3.45126 -0.0195714 0)
(-3.43963 -0.0336946 -1.39836e-17)
(-3.41982 -0.0476926 0)
(-3.39347 -0.0579113 -2.74963e-17)
(-3.36131 -0.0651869 4.0896e-17)
(-3.32373 -0.0738619 1.35169e-17)
(-3.27988 -0.0850339 0)
(-3.22805 -0.0978208 1.32884e-17)
(-3.17094 -0.110529 0)
(-3.10815 -0.122625 2.61254e-17)
(-3.04024 -0.133626 0)
(-2.96726 -0.144145 2.56824e-17)
(-2.88919 -0.153519 -5.09249e-17)
(-2.80717 -0.162428 -2.52485e-17)
(-2.72275 -0.170377 0)
(-2.63339 -0.177854 0)
(-2.54179 -0.18344 0)
(-2.44807 -0.187595 2.44083e-17)
(-2.35104 -0.191595 0)
(-2.25285 -0.194257 -2.40021e-17)
(-2.15467 -0.194612 0)
(-2.05598 -0.196174 7.08253e-17)
(-1.95731 -0.19552 2.34184e-17)
(-1.85804 -0.196542 2.32324e-17)
(-1.76086 -0.193827 0)
(-1.66621 -0.193124 0)
(-1.57099 -0.193846 0)
(-1.47323 -0.194547 0)
(-1.37652 -0.196962 0)
(-1.27412 -0.201282 4.43248e-17)
(-1.17812 -0.199391 4.39886e-17)
(-1.07869 -0.199613 0)
(-0.991398 -0.194137 -2.16765e-17)
(-0.895223 -0.195161 -2.15244e-17)
(-0.80823 -0.188458 0)
(-0.713725 -0.18741 -4.24457e-17)
(-0.635016 -0.186992 0)
(-0.538228 -0.197252 2.09386e-17)
(-0.451865 -0.191105 0)
(-0.346367 -0.199072 0)
(-0.251731 -0.195873 -4.10592e-17)
(-0.138442 -0.204503 0)
(-0.0341359 -0.205024 2.02729e-17)
(0.0914138 -0.213086 0)
(0.218501 -0.220817 0)
(0.354673 -0.224749 1.98876e-17)
(0.495504 -0.229401 1.97712e-17)
(0.641119 -0.234541 0)
(0.790003 -0.234955 -1.95338e-17)
(0.949281 -0.236555 0)
(1.10851 -0.22727 1.92971e-17)
(1.27184 -0.2181 3.83637e-17)
(1.41987 -0.212225 0)
(1.57684 -0.213746 0)
(1.72232 -0.213939 0)
(1.88203 -0.21569 0)
(2.02956 -0.210738 3.72309e-17)
(2.18405 -0.207465 1.11008e-16)
(2.32071 -0.188693 0)
(2.44462 -0.183142 0)
(2.5636 -0.172204 0)
(2.66824 -0.173833 -3.60804e-17)
(2.7699 -0.178246 0)
(2.87016 -0.177979 0)
(2.96475 -0.176576 7.06177e-17)
(3.05802 -0.176991 3.50349e-17)
(3.13382 -0.172651 3.47664e-17)
(3.22212 -0.1798 0)
(3.28629 -0.173678 0)
(3.35424 -0.175281 3.39214e-17)
(3.40149 -0.163895 -3.36151e-17)
(3.44633 -0.17818 0)
(3.47657 -0.175225 0)
(3.51092 -0.191366 -3.27222e-17)
(3.5401 -0.173279 9.71891e-17)
(3.55425 -0.168851 0)
(3.56517 -0.179748 0)
(3.57622 -0.191167 3.14598e-17)
(3.5966 -0.18917 0)
(3.59186 -0.182363 6.16254e-17)
(3.589 -0.180579 -3.04712e-17)
(3.56116 -0.18525 0)
(3.55746 -0.194679 2.9844e-17)
(3.53367 -0.191157 5.90528e-17)
(3.52268 -0.192565 0)
(3.47642 -0.185447 0)
(3.45254 -0.193734 -2.85731e-17)
(3.41075 -0.185828 0)
(3.35279 -0.168905 5.5886e-17)
(3.25386 -0.149281 0)
(3.16015 -0.154106 0)
(3.03933 -0.146059 0)
(2.91005 -0.121839 0)
(2.71667 -0.103711 -2.66524e-17)
(2.55857 -0.0762541 -2.64629e-17)
(2.27455 -0.0269091 0)
(2.00422 -0.00265748 0)
(1.67476 0.022172 0)
(1.38078 0.0185261 2.59574e-17)
(1.04644 0.0232002 0)
(0.839812 0.013142 -5.16665e-17)
(0.522174 0.0307511 5.16389e-17)
(0.411208 -0.000683472 5.14909e-17)
(0.1311 0.0311095 5.14808e-17)
(0.13319 -0.0173782 5.13287e-17)
(-0.161296 0.0795238 5.14913e-17)
(0.0229533 -0.115282 0)
(0.0290275 0.0718213 0)
(0.120829 -0.0371851 0)
(0.22764 -0.240486 2.29142e-17)
(0.339629 -0.46769 2.26659e-17)
(0.47409 -0.692665 -2.25144e-17)
(0.618327 -0.874969 -2.24018e-17)
(0.77276 -1.00396 -1.47989e-21)
(0.924298 -1.07451 0)
(1.06972 -1.08545 0)
(1.19677 -1.04639 0)
(1.30583 -0.966608 0)
(1.39204 -0.857375 0)
(1.45788 -0.726893 6.47145e-17)
(1.4988 -0.586709 0)
(1.51765 -0.44188 -2.13056e-17)
(1.51263 -0.2954 -2.11693e-17)
(1.48665 -0.153982 0)
(1.43825 -0.0205146 0)
(1.37201 0.103368 0)
(1.28762 0.216002 0)
(1.18738 0.315611 -2.05029e-17)
(1.07219 0.39893 0)
(0.94707 0.471535 2.02488e-17)
(0.809345 0.536842 0)
(0.661896 0.591878 0)
(0.506081 0.636938 0)
(0.347312 0.672974 3.95251e-17)
(0.184579 0.700201 0)
(0.0203891 0.719592 -1.95222e-17)
(-0.144793 0.729901 3.87997e-17)
(-0.309253 0.732964 0)
(-0.47599 0.734619 0)
(-0.642967 0.73159 0)
(-0.808777 0.722104 -1.89166e-17)
(-0.970955 0.706843 -1.87958e-17)
(-1.12992 0.685362 0)
(-1.28404 0.65806 0)
(-1.43256 0.62651 3.68594e-17)
(-1.57407 0.592499 3.66197e-17)
(-1.7138 0.558205 -3.63816e-17)
(-1.84844 0.525441 0)
(-1.98124 0.49188 0)
(-2.10843 0.459757 0)
(-2.23187 0.430503 0)
(-2.35095 0.402896 3.52013e-17)
(-2.46393 0.373591 3.49676e-17)
(-2.57167 0.343791 -3.47356e-17)
(-2.67375 0.315058 0)
(-2.76974 0.286971 0)
(-2.86043 0.257726 0)
(-2.94575 0.230687 0)
(-3.0311 0.212712 3.35762e-17)
(-3.11047 0.196687 0)
(-3.1849 0.183298 0)
(-3.25277 0.175299 3.28786e-17)
(-3.31605 0.169974 3.26471e-17)
(-3.37378 0.163025 0)
(-3.42394 0.153718 -6.43608e-17)
(-3.47186 0.146712 3.1949e-17)
(-3.51602 0.140394 -3.17146e-17)
(-3.55413 0.136406 0)
(-3.58942 0.133415 0)
(-3.61876 0.128957 0)
(-3.64314 0.124112 0)
(-3.66488 0.118369 -3.05527e-17)
(-3.6825 0.110535 -6.06468e-17)
(-3.69446 0.103151 -3.00979e-17)
(-3.70294 0.0960018 2.9873e-17)
(-3.70404 0.084848 0)
(-3.69968 0.0720801 -5.88408e-17)
(-3.68748 0.0563274 -5.83924e-17)
(-3.66978 0.0404925 -5.79475e-17)
(-3.64802 0.0229841 5.75057e-17)
(-3.61738 0.000897958 0)
(-3.57991 -0.0216503 8.49431e-17)
(-3.53657 -0.0411139 0)
(-3.48855 -0.0566161 -2.78783e-17)
(-3.43197 -0.0705175 -2.76655e-17)
(-3.36744 -0.0862097 0)
(-3.29677 -0.103084 0)
(-3.2226 -0.119856 -5.4043e-17)
(-3.14618 -0.13473 0)
(-3.06573 -0.148992 -5.31962e-17)
(-2.98271 -0.162644 0)
(-2.89507 -0.177065 5.23575e-17)
(-2.80387 -0.188483 1.03887e-16)
(-2.70895 -0.198298 0)
(-2.61312 -0.207511 0)
(-2.51427 -0.214948 0)
(-2.41667 -0.221041 5.0293e-17)
(-2.31744 -0.226845 0)
(-2.21485 -0.231513 4.94711e-17)
(-2.10953 -0.234751 0)
(-2.00372 -0.233992 0)
(-1.89564 -0.234156 -9.651e-17)
(-1.79026 -0.231826 0)
(-1.68293 -0.231321 -4.74645e-17)
(-1.57987 -0.225277 0)
(-1.47263 -0.225946 -4.6697e-17)
(-1.36605 -0.225063 0)
(-1.2572 -0.224195 0)
(-1.14987 -0.227905 0)
(-1.03958 -0.230288 -1.357e-16)
(-0.939704 -0.221901 -4.48718e-17)
(-0.830748 -0.2188 0)
(-0.737826 -0.208449 0)
(-0.636271 -0.209935 0)
(-0.550746 -0.197724 0)
(-0.446847 -0.194068 4.32365e-17)
(-0.360798 -0.189504 -8.58376e-17)
(-0.253673 -0.206311 -4.26335e-17)
(-0.166264 -0.198112 8.46583e-17)
(-0.0465347 -0.213402 8.40947e-17)
(0.0552104 -0.210041 4.17617e-17)
(0.185357 -0.224945 0)
(0.298129 -0.226043 8.23982e-17)
(0.436697 -0.242464 0)
(0.568833 -0.251794 -8.12871e-17)
(0.717115 -0.257811 -4.03853e-17)
(0.863045 -0.262565 0)
(1.01786 -0.270387 7.97636e-17)
(1.16677 -0.272739 3.96287e-17)
(1.32852 -0.281456 0)
(1.48698 -0.277661 3.90906e-17)
(1.65941 -0.267898 -1.1651e-16)
(1.81939 -0.256647 0)
(1.98421 -0.256279 0)
(2.13666 -0.255915 0)
(2.29729 -0.259608 0)
(2.45421 -0.255231 -7.51554e-17)
(2.61056 -0.252031 -7.46564e-17)
(2.76198 -0.221229 0)
(2.90002 -0.214321 0)
(3.03092 -0.20077 0)
(3.15262 -0.198894 0)
(3.25917 -0.20357 0)
(3.37857 -0.207014 0)
(3.49138 -0.206385 -7.09542e-17)
(3.6039 -0.205939 -1.65151e-20)
(3.69929 -0.198896 0)
(3.80885 -0.209445 0)
(3.8992 -0.196932 -6.86091e-17)
(3.99134 -0.198012 0)
(4.07164 -0.176289 6.74263e-17)
(4.13992 -0.187357 6.68091e-17)
(4.18218 -0.170705 0)
(4.2363 -0.189304 0)
(4.27548 -0.164927 -6.4901e-17)
(4.32515 -0.155876 -1.28513e-16)
(4.35284 -0.160237 0)
(4.38567 -0.171907 0)
(4.42733 -0.162964 0)
(4.43993 -0.148133 -6.1689e-17)
(4.46772 -0.135111 6.10012e-17)
(4.46626 -0.135288 0)
(4.48606 -0.142129 1.19365e-16)
(4.46971 -0.130285 5.90285e-17)
(4.48707 -0.128652 -1.16762e-16)
(4.46466 -0.109841 0)
(4.46437 -0.116004 0)
(4.43248 -0.0942283 -1.12741e-16)
(4.3907 -0.0665195 -5.57146e-17)
(4.30398 -0.0364565 0)
(4.23904 -0.0345547 0)
(4.10579 -0.0169026 0)
(3.99513 0.0247831 0)
(3.78401 0.0508037 -1.05589e-16)
(3.6156 0.095341 0)
(3.31834 0.166211 0)
(3.06232 0.190206 0)
(2.71291 0.219131 0)
(2.39969 0.202918 0)
(2.00975 0.187244 0)
(1.77343 0.152275 -1.00637e-16)
(1.371 0.147732 0)
(1.24487 0.0805284 0)
(0.861432 0.104221 -1.99424e-16)
(0.858697 0.0205066 9.92512e-17)
(0.475457 0.112308 -9.94004e-17)
(0.671344 -0.125598 9.87799e-17)
(0.0206393 -0.0932342 0)
(0.124874 -0.267906 -4.69577e-17)
(0.247584 -0.488814 0)
(0.37564 -0.754878 -2.27981e-17)
(0.502499 -0.999093 0)
(0.6188 -1.18838 0)
(0.723637 -1.3063 2.24469e-17)
(0.804434 -1.34978 0)
(0.867444 -1.32 0)
(0.906757 -1.23423 0)
(0.928902 -1.11146 0)
(0.931746 -0.9622 0)
(0.920179 -0.795113 -8.66187e-17)
(0.89149 -0.617998 -4.30264e-17)
(0.849223 -0.435231 4.2747e-17)
(0.79306 -0.254209 0)
(0.725 -0.081543 0)
(0.64358 0.0800871 0)
(0.552256 0.22923 0)
(0.450579 0.362971 0)
(0.341401 0.480914 -4.11511e-17)
(0.222948 0.583141 -4.08984e-17)
(0.0965486 0.674147 4.06492e-17)
(-0.0356465 0.750388 -4.04015e-17)
(-0.171948 0.813362 0)
(-0.310996 0.861645 0)
(-0.451573 0.897838 -3.96581e-17)
(-0.592507 0.922619 0)
(-0.734368 0.936739 0)
(-0.876755 0.945282 -3.89248e-17)
(-1.01973 0.950751 -3.86816e-17)
(-1.16064 0.948504 -3.84372e-17)
(-1.29851 0.93944 0)
(-1.43313 0.92415 0)
(-1.56319 0.90267 3.76937e-17)
(-1.68825 0.873001 0)
(-1.80932 0.837404 0)
(-1.92679 0.797923 -3.6949e-17)
(-2.04119 0.759848 3.66975e-17)
(-2.15394 0.7216 -3.64488e-17)
(-2.26021 0.682864 0)
(-2.36484 0.643632 0)
(-2.46536 0.607273 -7.1421e-17)
(-2.5629 0.572886 0)
(-2.65494 0.534675 -7.04551e-17)
(-2.74347 0.496416 -1.04965e-16)
(-2.82824 0.460379 1.04244e-16)
(-2.90772 0.423892 -6.90161e-17)
(-2.98396 0.38644 0)
(-3.05765 0.35055 0)
(-3.13094 0.322166 -6.76038e-17)
(-3.20154 0.297458 -3.35714e-17)
(-3.26577 0.271637 0)
(-3.32583 0.250288 0)
(-3.38125 0.234749 -3.28794e-17)
(-3.43127 0.217819 -6.52989e-17)
(-3.47496 0.198784 0)
(-3.51272 0.180781 6.43807e-17)
(-3.54641 0.166215 -6.39214e-17)
(-3.57494 0.15253 6.34656e-17)
(-3.59733 0.138322 0)
(-3.61393 0.125045 0)
(-3.62594 0.113621 0)
(-3.63282 0.10196 0)
(-3.63608 0.091395 0)
(-3.63455 0.0761359 6.07753e-17)
(-3.62867 0.0595948 0)
(-3.61559 0.0412294 0)
(-3.59672 0.0205445 0)
(-3.57354 -0.00107427 1.18049e-16)
(-3.5449 -0.0247856 5.85925e-17)
(-3.51141 -0.0484835 5.8159e-17)
(-3.47304 -0.0752281 -1.15459e-16)
(-3.42824 -0.10638 5.73048e-17)
(-3.38014 -0.136287 -5.68855e-17)
(-3.32578 -0.163746 0)
(-3.26666 -0.189786 5.60388e-17)
(-3.19763 -0.216561 0)
(-3.12451 -0.24187 0)
(-3.04576 -0.263868 0)
(-2.96557 -0.284768 1.08722e-16)
(-2.88319 -0.304048 -5.39477e-17)
(-2.79756 -0.323178 -5.35344e-17)
(-2.71059 -0.342098 -1.06274e-16)
(-2.61969 -0.362113 -1.58221e-16)
(-2.52773 -0.378058 -5.23452e-17)
(-2.43103 -0.391158 0)
(-2.33461 -0.402668 -1.03074e-16)
(-2.2367 -0.410681 0)
(-2.13878 -0.416854 -1.5221e-16)
(-2.04023 -0.426713 0)
(-1.94269 -0.433099 -1.49836e-16)
(-1.83913 -0.439344 0)
(-1.73506 -0.439974 0)
(-1.62634 -0.441546 -4.87488e-17)
(-1.51909 -0.438423 0)
(-1.40856 -0.438067 4.79747e-17)
(-1.30287 -0.433423 9.51613e-17)
(-1.18922 -0.435191 4.72061e-17)
(-1.07948 -0.436916 9.36545e-17)
(-0.961089 -0.437501 -9.28975e-17)