/*--------------------------------*- C++ -*----------------------------------*\
| =========                 |                                                 |
| \\      /  F ield         | OpenFOAM: The Open Source CFD Toolbox           |
|  \\    /   O peration     | Version:  dev                                   |
|   \\  /    A nd           | Web:      http://www.openfoam.org               |
|    \\/     M anipulation  |                                                 |
\*---------------------------------------------------------------------------*/
FoamFile
{
    version     2.0;
    format      ascii;
    class       volScalarField;
    object      k;
    location    "9.153";
}
// * * * * * * * * * * * * * * * * * * * * * * * * * * * * * * * * * * * * * //

dimensions      [0 2 -2 0 0 0 0];

internalField   nonuniform List<scalar> 
12225
(
7.63984
7.72559
5.2039
5.46085
6.22878
7.4632
10.4622
11.2647
15.8665
15.5987
22.4583
18.9735
28.4763
19.7312
27.8285
20.2242
24.0339
34.5691
1.77608
6.00565
5.55333
6.80118
5.23747
6.70395
5.66465
7.09739
6.7322
8.00285
8.10279
8.84762
9.81115
8.70866
12.5552
14.1544
34.4675
29.9775
0.150054
1.71663
2.05608
3.29381
2.87689
3.71036
3.16929
3.6448
3.3385
3.64336
3.63822
3.301
4.06264
3.04428
5.53645
8.90465
27.9382
30.9488
0.0119386
0.295107
0.460782
0.834367
1.15375
1.25528
1.66133
1.41467
1.92567
1.45003
2.00205
1.35019
2.01223
1.39221
2.92089
5.60332
25.1901
32.7026
0.00208508
0.0529676
0.105781
0.199366
0.387583
0.453051
0.675596
0.601353
0.82193
0.648955
0.884435
0.608979
0.978645
0.738406
1.5771
2.98735
16.9749
32.0322
0.00444735
0.0222847
0.0380399
0.0535781
0.112508
0.131977
0.216789
0.198655
0.28541
0.234883
0.341056
0.237218
0.420983
0.334119
0.804113
1.39171
7.2224
18.0421
0.00475921
0.0123275
0.0175492
0.020722
0.0379323
0.0400585
0.0684285
0.0636301
0.102309
0.0869892
0.130259
0.101232
0.168221
0.140937
0.314935
0.504479
2.28199
4.5052
0.00630054
0.012013
0.0153783
0.0170339
0.0224387
0.0237589
0.0311377
0.0302263
0.0436925
0.0390585
0.0549275
0.0482249
0.0718465
0.0679528
0.130212
0.198805
0.651565
0.925839
0.0118275
0.0180946
0.0179953
0.0193077
0.021616
0.0228359
0.0245836
0.0245344
0.0272424
0.0266908
0.030799
0.0308814
0.0376093
0.0411322
0.0628481
0.0878312
0.205088
0.248843
0.0210727
0.0316419
0.0286936
0.0294066
0.0273051
0.0275862
0.0253068
0.0246104
0.0239697
0.0244753
0.0246242
0.026986
0.0280126
0.033943
0.0432724
0.0591793
0.094265
0.108586
0.041706
0.0536465
0.0490989
0.0495356
0.0453033
0.0427497
0.0328825
0.0286227
0.0252043
0.0249816
0.0243521
0.0254895
0.0268463
0.0300559
0.0391585
0.0503723
0.0645071
0.0750098
0.077901
0.0930812
0.0847801
0.0816575
0.0725768
0.0665241
0.0511626
0.0411206
0.0323689
0.0297498
0.0279193
0.0282546
0.0290923
0.0318734
0.0406568
0.0515028
0.0617794
0.0710341
0.136377
0.155648
0.139589
0.130405
0.114343
0.0989339
0.0760215
0.0612741
0.049192
0.043055
0.0402022
0.039717
0.0402959
0.0437277
0.0558355
0.0690114
0.0788874
0.0855667
0.243431
0.269924
0.241629
0.217906
0.185829
0.154803
0.121487
0.0963422
0.0779207
0.0681475
0.0645549
0.0637011
0.0641326
0.0696202
0.088515
0.108572
0.121979
0.132002
0.388409
0.431089
0.394312
0.352685
0.303129
0.251159
0.201824
0.162176
0.13357
0.116476
0.108782
0.106586
0.106256
0.110048
0.126925
0.151706
0.168057
0.180394
0.597585
0.646399
0.569973
0.486372
0.404367
0.324708
0.255108
0.200729
0.163259
0.140974
0.130249
0.126771
0.126312
0.128762
0.142401
0.168327
0.186138
0.20037
0.689336
0.730132
0.631171
0.530345
0.436545
0.347795
0.27163
0.212638
0.172509
0.14838
0.136411
0.132282
0.131602
0.133369
0.145496
0.171161
0.189374
0.204069
0.684071
0.724328
0.627804
0.529846
0.437727
0.349435
0.272944
0.213446
0.172923
0.148454
0.136051
0.131527
0.130626
0.131989
0.143008
0.167913
0.186152
0.200853
0.580611
0.621479
0.549789
0.47445
0.399111
0.32322
0.255379
0.201271
0.163772
0.140641
0.128656
0.124222
0.123389
0.124608
0.134811
0.158371
0.176031
0.190439
0.375458
0.404852
0.364924
0.329618
0.290299
0.244755
0.199904
0.161822
0.134451
0.116907
0.107599
0.104035
0.10343
0.104604
0.113385
0.134227
0.150433
0.163713
0.229202
0.248876
0.225929
0.199779
0.174204
0.146872
0.120999
0.100992
0.0859483
0.0748456
0.0679185
0.0647102
0.0638393
0.0640906
0.0678466
0.0808491
0.0937306
0.104072
0.128881
0.140312
0.128804
0.118229
0.108214
0.0941551
0.0804797
0.0672222
0.0571572
0.0516036
0.0487093
0.0475384
0.0473157
0.0481086
0.0512329
0.0585781
0.064231
0.0697825
0.0668201
0.0762266
0.0733155
0.0681772
0.0606347
0.055109
0.0514438
0.0486851
0.0466434
0.0451545
0.0444299
0.0444699
0.0448333
0.0465655
0.0501634
0.0555721
0.0591001
0.0632166
0.0307439
0.0370065
0.0358118
0.0369988
0.041155
0.0443836
0.0459376
0.0472872
0.0482806
0.0503893
0.0528193
0.0557147
0.0578174
0.0611981
0.0638975
0.06749
0.0693697
0.0720489
0.0114327
0.0157042
0.0218453
0.0305866
0.0429562
0.0556578
0.0660759
0.074802
0.0827867
0.0935306
0.10434
0.113433
0.11887
0.121747
0.122364
0.122263
0.121765
0.121694
0.00309996
0.0108321
0.0287956
0.0669463
0.112168
0.153203
0.187091
0.214029
0.238223
0.264458
0.287869
0.302349
0.306746
0.304933
0.300484
0.294689
0.290597
0.288205
0.00332614
0.0480836
0.167854
0.336183
0.481256
0.584386
0.658273
0.707511
0.742339
0.777
0.798007
0.799518
0.789
0.7747
0.756817
0.741706
0.733482
0.729996
0.0439806
0.472909
1.16243
1.57237
1.81942
1.95096
2.03044
2.05648
2.05252
2.02951
1.99714
1.93748
1.8745
1.81223
1.76605
1.72138
1.69063
1.65028
0.791693
3.61196
4.93686
5.14426
4.99143
4.74688
4.50271
4.30987
4.15033
3.99701
3.86136
3.72201
3.5934
3.46514
3.35011
3.22068
3.10052
2.89892
6.6306
9.15746
7.75351
6.20983
5.47718
5.36406
5.50543
5.77602
6.09576
6.39846
6.67237
6.87159
7.00542
7.08494
7.10526
7.06799
6.92815
6.4621
0.0764081
0.0861981
0.0934396
0.0991745
0.108116
0.12028
0.133826
0.148327
0.166084
0.187749
0.213878
0.245502
0.282468
0.323569
0.369354
0.424072
0.491285
0.57153
0.6636
0.766192
0.88188
1.00943
1.14845
1.30137
1.46704
1.63959
1.81176
1.97985
2.14158
2.29876
2.44858
2.59049
2.73092
2.87251
3.01578
3.15907
3.30475
3.45268
3.6062
3.7267
3.81296
3.88111
3.92411
3.98369
4.07314
4.20658
4.37103
4.57188
4.77862
4.9841
5.26381
5.54191
5.79537
5.97406
6.19232
6.42193
6.68487
6.96406
7.20339
7.37593
7.50577
7.60376
7.69841
7.7738
7.82074
7.8487
7.86185
7.82156
7.71038
7.50344
7.20617
6.80741
6.37705
6.04799
5.83716
5.77207
5.84042
6.06401
6.11494
6.03753
5.75576
5.10332
4.54696
4.21718
4.17277
4.19199
4.13411
4.02986
4.04525
4.04485
4.10202
4.50721
5.4074
6.28707
7.01607
7.6488
8.22444
8.59078
8.74826
8.53359
8.02865
7.67586
7.23948
6.11885
4.29421
3.60888
3.96261
5.10127
4.94559
3.20852
2.28341
1.56687
1.42058
1.3584
1.34691
1.4801
1.68375
1.95251
2.15444
2.306
2.52396
2.88006
3.2974
3.68847
3.90119
4.06265
4.16516
4.36737
4.45886
4.60243
4.7243
4.95257
5.20537
5.54693
5.90462
6.32025
6.91958
7.37852
7.9834
8.7299
9.50576
10.0294
11.0224
11.7682
12.702
12.8414
13.1899
13.3389
13.3838
14.3988
15.602
18.3067
20.5437
20.78
20.7648
19.4473
17.905
17.1478
16.3825
15.6564
14.4933
12.9545
11.3179
10.1177
9.10666
8.01096
7.04808
5.92564
4.6607
4.31371
4.55186
4.83674
5.57486
5.747
6.44101
6.86983
7.84497
8.96978
10.0777
12.0827
0.288622
0.124362
0.0932256
0.0890326
0.0903559
0.0935773
0.09784
0.102826
0.108877
0.117073
0.127887
0.140753
0.156231
0.174978
0.197373
0.226506
0.26426
0.310524
0.362621
0.419335
0.485319
0.56204
0.651364
0.749382
0.847126
0.921741
0.971557
1.00638
1.01916
1.01572
1.01084
1.0067
1.00283
1.00296
1.00438
1.00138
0.993749
0.978831
0.945614
0.885512
0.803137
0.6919
0.607411
0.565883
0.549122
0.547308
0.552749
0.569026
0.574536
0.583999
0.632872
0.691389
0.702747
0.691175
0.655958
0.649385
0.657855
0.721608
0.882755
0.994696
1.06479
1.10469
1.1273
1.17893
1.21229
1.25932
1.34748
1.44162
1.5338
1.57273
1.56935
1.49034
1.22591
0.995815
0.888475
0.856343
0.856187
0.910901
1.1201
1.75999
2.32141
2.41272
2.15363
1.5246
1.36741
1.39444
1.53385
1.90295
3.07868
3.97653
4.23664
4.30477
4.21902
3.81424
3.4125
2.98739
2.70235
2.35558
2.01
1.67948
1.49287
1.3871
1.21837
1.05776
1.02932
1.0971
1.40118
1.45939
1.29145
1.27436
1.27853
1.25068
0.906922
0.79277
0.800151
0.948482
1.06331
1.12773
1.1474
1.15715
1.17443
1.23507
1.39912
1.57651
1.72444
1.85787
1.9693
2.0654
2.24258
2.44159
2.5443
2.70087
2.88061
3.06181
3.25246
3.40475
3.57921
3.89825
4.04814
4.30432
4.48394
4.79299
4.88765
5.11294
5.565
6.05125
5.99176
5.70343
5.41935
5.46906
5.83634
6.23673
7.48654
8.18166
8.23232
7.77484
6.7618
6.40651
6.4206
6.64493
6.69232
6.52767
6.0476
5.73949
5.55245
5.15664
4.76306
4.48025
3.97036
3.68122
3.59051
3.68693
3.95391
4.2713
4.89552
5.4003
6.47221
6.61269
7.62278
7.51947
0.743241
0.20839
0.0985125
0.0799313
0.0769875
0.0778548
0.0812066
0.0861777
0.0893497
0.093907
0.103111
0.112295
0.120591
0.132696
0.148602
0.168199
0.193537
0.229192
0.277977
0.33785
0.411594
0.493834
0.552621
0.583172
0.567413
0.519707
0.485486
0.450904
0.41148
0.38544
0.362262
0.342199
0.328536
0.31755
0.308111
0.299885
0.29007
0.279393
0.265439
0.247911
0.228005
0.213898
0.206078
0.203459
0.204487
0.209015
0.212162
0.213221
0.212838
0.212625
0.217626
0.233716
0.241107
0.241023
0.235963
0.233927
0.237476
0.252296
0.296326
0.328926
0.341996
0.34491
0.346423
0.353592
0.383185
0.427279
0.484693
0.548748
0.611746
0.651046
0.663252
0.660572
0.614205
0.489127
0.430643
0.39546
0.371848
0.370366
0.393865
0.486943
0.795213
1.10341
1.11788
1.05706
1.09865
1.35046
2.16765
2.8117
3.14842
3.19832
2.86592
2.33485
1.81017
1.5029
1.20123
1.03515
0.93289
0.803982
0.711119
0.683366
0.67769
0.678579
0.67562
0.678685
0.714941
0.869714
0.964474
0.942493
0.850123
0.826871
0.934903
1.1996
0.819569
0.680875
0.702645
0.769599
0.840186
0.878922
0.833617
0.759322
0.723246
0.729023
0.764441
0.854964
0.942151
1.01729
1.08823
1.133
1.18916
1.32875
1.46246
1.51498
1.61675
1.77381
1.89351
2.00545
2.07336
2.23832
2.39137
2.57144
2.64938
2.83949
2.89381
3.03679
3.57498
4.50539
4.41569
3.82432
3.59238
3.83997
4.66758
4.93194
4.8617
5.1483
5.44825
5.41761
4.86853
4.34085
4.22278
4.27795
4.5005
4.56701
4.38349
4.17773
4.18823
4.12362
3.92487
3.77184
3.50699
3.36709
3.4569
3.58221
3.7329
3.9055
4.22404
4.90223
5.79336
5.30802
5.82216
6.55142
1.50134
0.360338
0.113605
0.0802866
0.0740651
0.074701
0.0792194
0.0860841
0.0898045
0.095779
0.105895
0.112758
0.119912
0.131665
0.149145
0.172241
0.203838
0.248267
0.328101
0.398295
0.439512
0.471717
0.436328
0.383262
0.347607
0.294769
0.267933
0.245461
0.224415
0.213018
0.201857
0.194265
0.189179
0.183317
0.177863
0.173696
0.171393
0.169837
0.168783
0.168414
0.16811
0.168169
0.168777
0.169659
0.171378
0.172757
0.173194
0.172899
0.171912
0.170155
0.168268
0.166332
0.163043
0.158421
0.156958
0.158783
0.17302
0.215353
0.243139
0.251479
0.250203
0.243768
0.244182
0.249236
0.269001
0.309153
0.347753
0.374502
0.394018
0.401022
0.399937
0.395848
0.386012
0.349249
0.325729
0.306165
0.293775
0.295032
0.310787
0.349201
0.425066
0.589446
0.717532
0.942679
1.5064
2.02549
2.3908
2.50912
2.2301
1.83217
1.39031
1.03168
0.820543
0.667535
0.593233
0.57038
0.56245
0.550796
0.542995
0.545948
0.573637
0.620321
0.637232
0.644382
0.696503
0.883016
0.93369
0.809481
0.771035
0.725268
0.770614
1.03243
1.02886
0.761771
0.74341
0.677384
0.687138
0.741158
0.705252
0.644376
0.626752
0.633325
0.64692
0.682238
0.717172
0.760662
0.78873
0.822614
0.850281
0.901605
1.01263
1.06528
1.10671
1.19656
1.27776
1.36506
1.41788
1.49061
1.58213
1.80005
1.86636
1.94361
2.00728
2.17543
2.74075
3.77742
3.71315
3.11732
2.99877
3.30388
4.10996
4.56061
4.20761
3.92108
4.07436
4.34389
4.1695
3.5072
3.33732
3.43128
3.58672
3.72594
3.62841
3.47481
3.55787
3.72916
3.67507
3.4379
3.27861
3.30502
3.65084
3.86701
4.03286
3.9941
4.14592
4.77485
5.23138
5.16574
4.74965
4.66665
2.46748
0.570271
0.144121
0.0825892
0.0746052
0.0766681
0.0833969
0.0918278
0.0971377
0.100093
0.107796
0.115831
0.124812
0.141512
0.16847
0.216903
0.285002
0.346896
0.385179
0.405016
0.406385
0.343317
0.286774
0.253122
0.22561
0.202474
0.190032
0.182303
0.175934
0.172898
0.171605
0.170631
0.169497
0.167558
0.165011
0.163593
0.163682
0.164476
0.166314
0.168906
0.172302
0.174984
0.177165
0.178484
0.178536
0.177151
0.174138
0.171464
0.168601
0.166502
0.164571
0.160755
0.1533
0.146442
0.142608
0.141173
0.140721
0.147555
0.155847
0.159754
0.165589
0.185539
0.210603
0.244184
0.292333
0.331917
0.353423
0.356128
0.354344
0.349158
0.331926
0.324271
0.3189
0.300053
0.283261
0.274776
0.274425
0.279162
0.301303
0.375497
0.441344
0.511799
0.679031
1.29904
1.82307
2.02755
2.10114
1.84785
1.41111
1.00944
0.709194
0.56196
0.482668
0.451653
0.446687
0.465319
0.500124
0.5066
0.50604
0.511254
0.556503
0.616153
0.629518
0.636396
0.719638
1.00269
1.18227
1.06422
0.929457
0.688967
0.614721
0.780862
1.15907
1.0718
0.825708
0.612316
0.574815
0.615787
0.601685
0.586678
0.62097
0.645023
0.632768
0.63037
0.635672
0.66206
0.68191
0.691524
0.708553
0.744429
0.777923
0.862323
0.915724
0.95021
1.00705
1.08691
1.12139
1.15694
1.23418
1.3929
1.46423
1.51385
1.60332
1.82208
2.46521
3.16739
3.17289
2.82584
2.79881
3.21515
3.24475
3.38475
3.60602
3.34808
3.29303
3.69879
3.68744
3.09965
2.80845
3.03571
3.29052
3.34848
3.22751
3.12507
3.22706
3.58809
3.65541
3.33782
3.19779
3.59393
4.64647
5.14846
5.79287
4.85203
4.60155
4.63819
4.85677
4.87655
4.31091
4.05698
3.69495
0.885865
0.209779
0.0902074
0.0787849
0.0883475
0.101366
0.106352
0.105672
0.106584
0.11446
0.133828
0.156495
0.189649
0.237555
0.306436
0.344653
0.363512
0.371127
0.346867
0.283274
0.233905
0.206288
0.184842
0.173285
0.166217
0.163277
0.163541
0.168098
0.172074
0.174582
0.175743
0.177347
0.179816
0.181684
0.183051
0.184811
0.186893
0.189299
0.19213
0.195936
0.199848
0.204944
0.208739
0.209745
0.203919
0.191393
0.179903
0.171841
0.165997
0.163674
0.163664
0.162243
0.156758
0.150238
0.142059
0.134805
0.131451
0.130553
0.130302
0.131567
0.13729
0.150834
0.179461
0.228018
0.263733
0.27584
0.275974
0.272778
0.273709
0.278596
0.291049
0.301819
0.300168
0.3014
0.306038
0.313915
0.323587
0.344607
0.410878
0.462024
0.538515
0.844068
1.54218
1.82041
1.7992
1.53361
1.19212
0.882354
0.590746
0.466591
0.418741
0.402761
0.400417
0.411772
0.43859
0.443516
0.429044
0.40123
0.392743
0.404383
0.434201
0.448743
0.504923
0.664695
0.984168
1.31332
1.43857
1.15672
0.629341
0.521753
0.52428
0.952395
1.13224
0.854215
0.604501
0.523507
0.562171
0.584692
0.565943
0.632419
0.67306
0.639095
0.600797
0.60073
0.601219
0.614781
0.629598
0.638567
0.659187
0.693195
0.722369
0.803519
0.856141
0.896234
0.929911
0.984361
1.02738
1.0885
1.20545
1.28648
1.32214
1.39185
1.61853
2.41429
2.85102
2.85663
2.69495
2.692
3.06918
2.96459
3.00373
3.17524
3.10627
2.93923
3.14043
3.39669
3.07068
2.62934
2.70018
3.23123
3.22505
3.00915
2.91554
3.01744
3.45356
3.65896
3.37936
3.32417
4.57747
5.78912
6.45274
7.83352
7.16644
5.82643
4.50452
4.72099
4.62823
3.9141
3.89334
4.98235
1.20849
0.283135
0.11596
0.098051
0.11205
0.119163
0.119195
0.121833
0.131165
0.141732
0.166673
0.206625
0.254659
0.290749
0.322431
0.340177
0.338667
0.296467
0.235983
0.202509
0.179849
0.162328
0.15397
0.151161
0.15138
0.155331
0.161632
0.167485
0.172673
0.176158
0.180116
0.185446
0.191997
0.194914
0.195957
0.196035
0.195481
0.195489
0.196021
0.197437
0.201042
0.210386
0.217985
0.224017
0.226486
0.223665
0.209546
0.187557
0.166456
0.152515
0.145674
0.145014
0.148419
0.150277
0.148127
0.138827
0.131599
0.127993
0.125773
0.124086
0.123366
0.124074
0.127717
0.141604
0.178255
0.204818
0.218489
0.222967
0.227097
0.236017
0.254174
0.298673
0.352067
0.390386
0.394021
0.391125
0.393917
0.415189
0.533892
0.60624
0.675069
1.08409
1.6188
1.64692
1.35952
1.02612
0.77972
0.564253
0.421059
0.378796
0.371451
0.373364
0.384893
0.392362
0.387936
0.362687
0.307965
0.276451
0.268253
0.266329
0.267447
0.268499
0.291528
0.394222
0.66606
0.96903
1.02607
0.720399
0.443741
0.501711
0.436667
0.52258
0.601138
0.690428
0.603957
0.490975
0.516306
0.599216
0.570115
0.575046
0.616031
0.600448
0.550671
0.543375
0.548
0.572798
0.594984
0.610823
0.616242
0.64856
0.683544
0.719017
0.76597
0.805695
0.828854
0.875995
0.931408
1.01439
1.07124
1.1645
1.21196
1.30759
1.44948
2.14358
2.64359
2.63973
2.50738
2.46269
2.69612
2.80558
2.99614
3.08126
3.07136
2.85966
2.88095
3.18036
3.11075
2.68183
2.53772
2.75568
3.05181
2.88145
2.69054
2.76966
3.32757
3.51272
3.4623
3.96155
5.17381
5.80138
6.16113
6.50455
8.63865
6.50682
4.65794
4.73124
4.54222
3.84152
3.64199
6.29772
1.33811
0.279918
0.120346
0.114246
0.117967
0.118628
0.117699
0.126995
0.149541
0.17159
0.194582
0.231627
0.271513
0.296944
0.308913
0.302176
0.259701
0.209966
0.180874
0.164135
0.148283
0.141486
0.139643
0.140652
0.144211
0.148652
0.152694
0.156666
0.162128
0.169673
0.178893
0.189214
0.195228
0.197572
0.197796
0.194803
0.187507
0.182372
0.18014
0.180271
0.184188
0.197353
0.213062
0.224676
0.232185
0.234774
0.232965
0.224624
0.191725
0.155337
0.135594
0.126769
0.12387
0.12734
0.134487
0.13804
0.135826
0.130623
0.127755
0.12349
0.119575
0.118215
0.118716
0.121933
0.146975
0.185831
0.208813
0.217837
0.223578
0.235593
0.267561
0.34717
0.400788
0.415337
0.413528
0.414751
0.440891
0.567732
0.685042
0.709457
0.811535
1.28536
1.5209
1.34186
0.921616
0.689565
0.533217
0.409411
0.356363
0.346467
0.350344
0.357226
0.356665
0.346045
0.319385
0.277772
0.244782
0.232035
0.229785
0.230079
0.230228
0.221956
0.212984
0.222823
0.285544
0.349209
0.361368
0.366613
0.359515
0.405545
0.392387
0.424029
0.430743
0.432192
0.485938
0.438542
0.450026
0.605288
0.624648
0.55688
0.520335
0.524293
0.520247
0.499207
0.507808
0.520734
0.552245
0.559463
0.561497
0.589563
0.649949
0.688109
0.720562
0.74014
0.802371
0.852067
0.872167
0.980029
1.06734
1.1267
1.1492
1.30771
1.47939
1.73773
2.22596
2.29775
2.20707
2.09868
2.16884
2.50701
3.07325
3.18334
3.05296
3.09316
3.03992
2.96333
2.83292
2.60633
2.44311
2.32418
2.6098
2.66575
2.54967
2.57337
3.16254
3.46196
3.57759
4.67299
4.93603
4.2209
3.84182
3.55568
5.22922
6.86567
4.96124
4.37937
4.25273
3.72153
3.40797
7.82133
1.4225
0.260027
0.11711
0.112997
0.114511
0.114882
0.119994
0.137474
0.163519
0.189964
0.217223
0.245245
0.267495
0.276972
0.269478
0.242465
0.202978
0.170621
0.154774
0.14243
0.134049
0.131598
0.131751
0.134507
0.13876
0.143289
0.146152
0.1482
0.153158
0.162175
0.174841
0.18838
0.195515
0.198552
0.199052
0.19615
0.185676
0.177241
0.175042
0.17562
0.179788
0.192253
0.204213
0.21294
0.225399
0.235821
0.239061
0.237473
0.226921
0.188132
0.152018
0.131045
0.120586
0.116065
0.115011
0.118443
0.125957
0.129245
0.129286
0.126401
0.120279
0.116534
0.116638
0.117604
0.134771
0.181027
0.21141
0.227845
0.236452
0.24786
0.274291
0.336763
0.381923
0.396388
0.408596
0.444311
0.549819
0.650761
0.668755
0.692702
0.904418
1.28186
1.28627
0.957757
0.629481
0.480099
0.394114
0.347038
0.334478
0.336224
0.336655
0.326328
0.302069
0.283733
0.26233
0.235655
0.219177
0.213804
0.213616
0.216583
0.219589
0.21328
0.194909
0.189088
0.203193
0.220358
0.2541
0.280615
0.28648
0.282634
0.308899
0.369601
0.402118
0.388097
0.388986
0.409766
0.404572
0.475722
0.644755
0.555482
0.480746
0.491733
0.498714
0.480785
0.49518
0.496598
0.52202
0.518685
0.528694
0.556164
0.58433
0.651381
0.699404
0.720142
0.805495
0.876746
0.874474
0.97662
1.09346
1.21758
1.17023
1.32165
1.58363
1.66069
1.9071
1.98264
1.90386
1.8233
1.85036
2.03212
2.78229
3.11698
2.92968
3.1468
3.32681
3.02859
2.56696
2.29543
2.21556
2.05128
2.12478
2.36644
2.30146
2.30317
2.79677
3.43745
3.6311
4.722
4.46109
3.77311
3.39864
3.1629
3.45012
6.12144
4.92542
4.0083
3.74944
3.37749
3.28493
9.51906
1.60818
0.263575
0.112448
0.107527
0.105616
0.108307
0.121481
0.140401
0.164783
0.191311
0.223804
0.249218
0.259627
0.257737
0.237542
0.200816
0.167184
0.1486
0.139005
0.128724
0.124445
0.123994
0.125608
0.130066
0.135652
0.140423
0.143106
0.144009
0.147024
0.155164
0.166951
0.17956
0.186446
0.189337
0.190282
0.188831
0.182235
0.174872
0.173742
0.175666
0.184485
0.201748
0.209057
0.210437
0.215271
0.230129
0.240228
0.241066
0.236042
0.209125
0.165477
0.140644
0.127181
0.117487
0.113082
0.111617
0.112439
0.118036
0.121211
0.121994
0.118798
0.114067
0.113904
0.115146
0.119942
0.161964
0.202862
0.2271
0.237834
0.247405
0.268421
0.330242
0.382196
0.408494
0.440104
0.507475
0.58166
0.606568
0.630463
0.722879
1.00926
1.1579
1.04551
0.659027
0.453462
0.36538
0.326781
0.313669
0.314315
0.321668
0.313645
0.276775
0.252342
0.241545
0.230144
0.21793
0.209809
0.206285
0.206281
0.211985
0.217862
0.215663
0.194772
0.182264
0.177793
0.186142
0.205956
0.200179
0.217629
0.250443
0.299389
0.317211
0.354249
0.386298
0.373667
0.397084
0.397795
0.419502
0.549222
0.49202
0.430768
0.45911
0.500927
0.477997
0.473574
0.475586
0.497695
0.494056
0.511898
0.515557
0.534574
0.616912
0.642079
0.669182
0.790535
0.855766
0.847628
0.903746
1.05796
1.20365
1.14756
1.26703
1.61271
1.72039
1.82511
1.87017
1.72962
1.64288
1.70885
1.73995
2.04027
2.57404
2.63748
2.7587
3.30344
3.06822
2.47003
2.198
2.13812
1.95184
1.89332
2.01572
1.97815
1.993
2.39679
3.28282
3.69057
4.54551
3.74303
3.13795
3.30414
3.25224
3.04291
3.72473
3.9915
3.53731
3.41224
3.13022
3.06751
11.3393
1.9441
0.292944
0.111686
0.100605
0.103258
0.107101
0.120915
0.139491
0.1623
0.187255
0.221849
0.242494
0.246225
0.237955
0.211335
0.173654
0.151454
0.140597
0.133665
0.125476
0.119982
0.118671
0.119385
0.122658
0.128771
0.134881
0.139106
0.142105
0.146283
0.157015
0.171207
0.181434
0.186264
0.186226
0.183585
0.182599
0.185749
0.188529
0.187778
0.187447
0.194368
0.210026
0.213984
0.211389
0.210711
0.220773
0.238736
0.242318
0.239665
0.226019
0.186009
0.151013
0.130557
0.121562
0.114762
0.110991
0.109259
0.106427
0.104975
0.106103
0.10763
0.107029
0.106256
0.107598
0.110427
0.129423
0.183581
0.211819
0.22671
0.245059
0.295231
0.375063
0.427297
0.462506
0.489049
0.529758
0.557525
0.58433
0.640418
0.802401
0.984101
0.984587
0.786108
0.484523
0.356154
0.307448
0.292565
0.291254
0.306049
0.313443
0.296849
0.242831
0.220277
0.210445
0.203029
0.197777
0.194904
0.194102
0.196362
0.208212
0.217299
0.219791
0.212282
0.191936
0.175173
0.173459
0.168501
0.170926
0.191351
0.20459
0.277659
0.317027
0.342282
0.378457
0.376672
0.39209
0.420003
0.432079
0.478604
0.461994
0.414313
0.431765
0.505088
0.481548
0.440469
0.456102
0.481801
0.484011
0.496321
0.492662
0.520268
0.577172
0.58048
0.606416
0.718734
0.742387
0.755735
0.785607
0.95369
1.04029
1.08968
1.19899
1.50394
1.79438
1.86869
1.85751
1.63563
1.54782
1.63059
1.68738
1.81296
2.21232
2.30578
2.39873
2.76965
2.74463
2.3066
2.12876
2.08528
1.89845
1.75791
1.74813
1.74257
1.74948
2.05886
3.08258
3.7792
4.2728
3.29189
2.98116
3.33108
3.55696
2.84413
3.17783
3.17638
3.14015
3.04516
2.80991
2.88737
13.0351
2.49872
0.40349
0.118323
0.100509
0.104331
0.107658
0.119314
0.13689
0.157413
0.181105
0.212765
0.2248
0.22513
0.215715
0.18991
0.160992
0.144305
0.137267
0.132974
0.126539
0.120281
0.118057
0.117802
0.119252
0.122332
0.126069
0.130026
0.135402
0.144925
0.158413
0.17187
0.177665
0.174099
0.165027
0.161053
0.16825
0.194577
0.220942
0.235742
0.239564
0.23133
0.22114
0.216851
0.210201
0.203687
0.203671
0.215657
0.226363
0.229564
0.224082
0.194229
0.162285
0.141719
0.126276
0.115575
0.111285
0.109548
0.105227
0.0979753
0.0920455
0.0901572
0.0914564
0.0918441
0.0934886
0.0996036
0.109306
0.155837
0.196119
0.217894
0.244018
0.318304
0.42565
0.476104
0.495515
0.510087
0.527966
0.549232
0.594062
0.696733
0.826223
0.862691
0.797195
0.561926
0.372987
0.295795
0.270442
0.265632
0.272212
0.296897
0.305531
0.289211
0.229873
0.203278
0.193344
0.187707
0.183172
0.178475
0.176806
0.178795
0.189348
0.196333
0.205222
0.215457
0.207685
0.178828
0.166834
0.15853
0.160374
0.177253
0.192745
0.254179
0.320997
0.350162
0.379074
0.387548
0.396409
0.436307
0.439684
0.435448
0.442561
0.415243
0.437099
0.519151
0.484298
0.431751
0.458706
0.479941
0.475024
0.46929
0.478512
0.516528
0.540046
0.545376
0.571519
0.639246
0.650888
0.694808
0.756939
0.906761
0.980305
1.11612
1.20648
1.38567
1.7538
1.8845
1.85187
1.58166
1.50233
1.56165
1.65605
1.67991
2.03436
2.17249
2.19696
2.10577
2.11319
2.05246
2.05979
2.07363
1.88257
1.65127
1.56456
1.59762
1.59683
1.73977
2.63802
3.77413
3.98349
3.10839
3.11665
3.6344
3.64929
2.68339
3.06375
3.1324
3.09324
2.83699
2.69244
2.86325
14.4497
2.87498
0.614542
0.151814
0.103319
0.102841
0.103606
0.109841
0.12571
0.146939
0.171554
0.20279
0.214968
0.214626
0.206058
0.185662
0.159551
0.143007
0.136084
0.132734
0.129277
0.123456
0.119359
0.118815
0.119919
0.122169
0.125091
0.128479
0.133317
0.141446
0.150012
0.153256
0.149613
0.142396
0.139093
0.139285
0.145613
0.168403
0.203501
0.23927
0.261924
0.259781
0.234997
0.222362
0.215232
0.203235
0.199353
0.200833
0.200915
0.196293
0.187841
0.174662
0.159574
0.14422
0.130725
0.119393
0.111877
0.109068
0.104862
0.0968862
0.0895076
0.0834144
0.080938
0.0807633
0.0806349
0.0854089
0.0955441
0.119288
0.176229
0.209477
0.240826
0.320143
0.449086
0.509894
0.530161
0.531914
0.534897
0.555484
0.630036
0.717656
0.757477
0.730474
0.597352
0.426862
0.311063
0.262867
0.247895
0.245905
0.25311
0.276335
0.283319
0.268648
0.219915
0.192955
0.182887
0.178418
0.176195
0.173377
0.171176
0.171012
0.173561
0.174905
0.18381
0.203348
0.206423
0.179253
0.164069
0.155515
0.151515
0.159014
0.184568
0.260207
0.326552
0.358878
0.39061
0.393575
0.398183
0.43629
0.424368
0.411775
0.422782
0.423519
0.453701
0.508575
0.481695
0.43921
0.470389
0.47818
0.468683
0.448155
0.456134
0.496331
0.513787
0.513396
0.561484
0.598457
0.614138
0.684
0.77957
0.890232
0.962293
1.18534
1.30093
1.34415
1.53585
1.72924
1.72084
1.51024
1.46465
1.47084
1.55299
1.54023
1.83182
2.0407
1.96987
1.91323
1.91996
1.99379
2.05764
2.07253
1.87964
1.6009
1.45025
1.49329
1.51193
1.62574
2.17335
3.59678
3.76652
3.01578
3.3115
3.86862
3.59981
2.52734
3.06253
3.44479
3.29002
2.76473
2.6652
2.86143
15.7439
3.2551
0.812194
0.209306
0.110408
0.102418
0.098621
0.100843
0.108244
0.121595
0.14248
0.175628
0.200337
0.206477
0.202606
0.188262
0.166718
0.147066
0.137553
0.133886
0.133092
0.13128
0.128976
0.128768
0.131345
0.135762
0.138155
0.140231
0.144158
0.14644
0.149688
0.148185
0.142227
0.137706
0.136287
0.136708
0.138941
0.144292
0.155698
0.170742
0.201748
0.221713
0.219104
0.214096
0.210285
0.199537
0.197473
0.198873
0.197025
0.17942
0.164078
0.154457
0.150026
0.141735
0.130353
0.120142
0.112915
0.109629
0.106095
0.09672
0.0893168
0.0821059
0.0772762
0.0774789
0.077285
0.0789906
0.0874328
0.0987354
0.14615
0.197265
0.234904
0.318783
0.45588
0.536418
0.557845
0.55687
0.556796
0.576907
0.644565
0.688965
0.676161
0.592191
0.451344
0.348429
0.276486
0.246596
0.237572
0.236434
0.240576
0.255016
0.25905
0.246839
0.20915
0.18637
0.178183
0.174864
0.173744
0.173357
0.171022
0.16863
0.168214
0.168771
0.165516
0.174865
0.183271
0.178024
0.167686
0.152326
0.147957
0.156115
0.175073
0.253825
0.327361
0.366671
0.390044
0.392838
0.38988
0.409478
0.408531
0.404209
0.416789
0.452267
0.463027
0.453839
0.454793
0.463969
0.470259
0.459063
0.459442
0.443286
0.441478
0.47605
0.492652
0.500248
0.572706
0.584554
0.597749
0.701508
0.812666
0.885781
0.945567
1.13576
1.35181
1.35837
1.35853
1.5088
1.48467
1.3692
1.41117
1.44474
1.48448
1.45783
1.7
1.90529
1.86298
1.8689
1.88683
2.02358
2.10344
2.08278
1.83405
1.55132
1.40643
1.45958
1.48123
1.60197
2.13109
3.46052
3.52148
2.95404
3.4559
3.84944
3.18981
2.38836
3.05645
3.88321
3.39599
2.68466
2.68196
2.88354
16.9858
3.51986
0.928342
0.259987
0.119486
0.103407
0.096637
0.0933186
0.0963531
0.103828
0.116655
0.135974
0.162593
0.18266
0.193734
0.188658
0.177604
0.163907
0.149948
0.140084
0.13535
0.132981
0.13095
0.131443
0.134056
0.140542
0.146851
0.151105
0.155354
0.163757
0.167784
0.166179
0.158342
0.146595
0.141334
0.140839
0.142644
0.148032
0.151852
0.153395
0.156303
0.174562
0.189507
0.186112
0.176497
0.175921
0.191353
0.201988
0.198522
0.173781
0.160172
0.153676
0.149583
0.144022
0.132366
0.119415
0.111677
0.10866
0.106849
0.100722
0.0903093
0.0816671
0.076326
0.0756221
0.0771017
0.0778091
0.0849723
0.0946511
0.109604
0.163315
0.211955
0.305817
0.44992
0.544363
0.579903
0.58123
0.576237
0.588059
0.627457
0.624273
0.581667
0.464328
0.366369
0.302188
0.253042
0.232763
0.228018
0.228466
0.234953
0.247405
0.250548
0.240193
0.207807
0.185901
0.177317
0.173793
0.17245
0.173213
0.172631
0.168676
0.165175
0.165215
0.161592
0.166607
0.175202
0.174102
0.167633
0.149102
0.143737
0.153211
0.174473
0.250549
0.324869
0.372385
0.392815
0.393146
0.387038
0.393495
0.401777
0.399745
0.416421
0.462505
0.454802
0.432779
0.442319
0.482722
0.453487
0.43797
0.463825
0.447446
0.438728
0.476449
0.487406
0.505909
0.587348
0.574079
0.593879
0.7267
0.808875
0.84999
0.877881
1.00034
1.23386
1.26682
1.2603
1.33418
1.28737
1.25497
1.39338
1.45348
1.43698
1.39729
1.62584
1.82476
1.83106
1.86916
1.92125
2.06145
2.11256
2.04126
1.79551
1.51194
1.41076
1.487
1.49605
1.59924
2.11601
3.38506
3.34443
2.95651
3.54841
3.66428
2.81997
2.29872
2.88685
3.85359
3.05572
2.48581
2.7714
2.89019
18.0678
3.84709
1.14509
0.32011
0.136232
0.10658
0.0961
0.0897536
0.0897054
0.0927645
0.100301
0.111937
0.130178
0.147511
0.163167
0.173107
0.174627
0.168119
0.160741
0.152422
0.142443
0.135908
0.132209
0.130255
0.130626
0.133721
0.141481
0.14914
0.153971
0.162463
0.170969
0.176779
0.177421
0.173666
0.161801
0.156667
0.152962
0.150706
0.150461
0.149914
0.148228
0.150312
0.167231
0.169014
0.163842
0.164397
0.18585
0.19799
0.194097
0.169832
0.156294
0.153732
0.150913
0.146662
0.136607
0.122295
0.110922
0.10544
0.103412
0.10052
0.0908594
0.0823782
0.0765401
0.0755571
0.0759358
0.0779922
0.0845254
0.0947915
0.102067
0.12236
0.177859
0.250406
0.412551
0.535875
0.5887
0.597067
0.584307
0.585495
0.586981
0.564511
0.476386
0.368615
0.304305
0.26634
0.238649
0.226764
0.223688
0.224012
0.229424
0.245423
0.251567
0.243433
0.214373
0.190617
0.179618
0.176359
0.174118
0.173541
0.17361
0.170386
0.165181
0.163483
0.159579
0.161643
0.170636
0.172403
0.166658
0.148375
0.143911
0.150715
0.171362
0.249905
0.330255
0.379613
0.401872
0.396676
0.387326
0.393434
0.406013
0.407433
0.424624
0.453748
0.429728