/*--------------------------------*- C++ -*----------------------------------*\
| =========                 |                                                 |
| \\      /  F ield         | OpenFOAM: The Open Source CFD Toolbox           |
|  \\    /   O peration     | Version:  dev                                   |
|   \\  /    A nd           | Web:      http://www.openfoam.org               |
|    \\/     M anipulation  |                                                 |
\*---------------------------------------------------------------------------*/
FoamFile
{
    version     2.0;
    format      ascii;
    class       volScalarField;
    object      k_0;
    location    "9.153";
}
// * * * * * * * * * * * * * * * * * * * * * * * * * * * * * * * * * * * * * //

dimensions      [0 2 -2 0 0 0 0];

internalField   nonuniform List<scalar> 
12225
(
7.67082
7.96609
5.49616
5.82452
6.64326
7.99816
11.1649
12.1053
17.1172
16.9337
24.6424
20.954
32.0028
22.4755
32.1796
21.6394
25.1915
38.7863
1.72279
6.03579
5.64268
6.90209
5.30499
6.78807
5.69379
7.19413
6.71103
8.11999
8.0568
9.00652
9.85898
9.19834
13.1299
15.2997
36.1318
33.5829
0.130757
1.657
1.9624
3.18233
2.83652
3.6383
3.13457
3.57969
3.29805
3.59063
3.59748
3.30958
4.06414
3.14769
5.62877
8.99563
29.6541
34.8338
0.0105763
0.273292
0.435718
0.794405
1.12158
1.21317
1.62288
1.3827
1.88216
1.43129
1.9592
1.3534
1.98175
1.40984
2.85673
5.33513
24.9655
35.4706
0.00191434
0.0496241
0.0993108
0.187746
0.370314
0.434048
0.648706
0.581122
0.790701
0.630321
0.852142
0.600881
0.949577
0.728205
1.49341
2.63861
14.5904
31.3056
0.00427842
0.021725
0.0357988
0.0503014
0.105572
0.124661
0.204504
0.189218
0.270161
0.225623
0.323493
0.232705
0.400661
0.329799
0.751613
1.197
5.74277
14.2594
0.00470452
0.0122907
0.016897
0.0199744
0.0356621
0.0380325
0.0642277
0.0602539
0.0960929
0.0828766
0.122427
0.0976193
0.157769
0.137119
0.289363
0.440911
1.76749
3.25162
0.00659094
0.0120835
0.015227
0.0169257
0.0219195
0.0233334
0.0297603
0.0291289
0.0412035
0.0374106
0.0515135
0.0462085
0.0671121
0.0651278
0.118549
0.175257
0.504496
0.667265
0.0125711
0.0186845
0.0182343
0.0195407
0.0215077
0.0226547
0.0241726
0.0241853
0.0264228
0.0261116
0.0295069
0.0299326
0.0356896
0.0395379
0.0585206
0.0802055
0.168484
0.199064
0.0224893
0.0324468
0.0294645
0.0300923
0.0279396
0.0278624
0.0251865
0.0243502
0.0237415
0.0241513
0.024306
0.0263473
0.0275226
0.0327503
0.0420803
0.0565983
0.0861111
0.0994064
0.0445019
0.0550639
0.0503565
0.0505604
0.0464241
0.0433529
0.0333762
0.0287073
0.0252178
0.0248062
0.0242476
0.0251745
0.0266768
0.0295463
0.0387667
0.0496124
0.0627521
0.0734005
0.0826184
0.0954174
0.0866433
0.0831068
0.0740049
0.0672363
0.0517742
0.04145
0.032916
0.0299704
0.0282727
0.0283283
0.0292711
0.0318892
0.0407145
0.0515264
0.0615865
0.0710028
0.144691
0.159846
0.142312
0.13271
0.116397
0.100063
0.0770875
0.0620133
0.0500666
0.0438274
0.0411608
0.0406378
0.0413098
0.0448665
0.0574656
0.0711346
0.0815223
0.0882018
0.256384
0.276371
0.24561
0.221693
0.188999
0.157019
0.123468
0.0979609
0.0795499
0.0696931
0.0661604
0.0653022
0.0657806
0.071358
0.0905213
0.111085
0.124967
0.135561
0.406837
0.439985
0.398629
0.356419
0.30586
0.253025
0.203405
0.163564
0.134991
0.117909
0.110253
0.108103
0.107823
0.111616
0.128473
0.153578
0.170283
0.182958
0.619075
0.654002
0.569263
0.486396
0.403707
0.323738
0.254297
0.200248
0.163186
0.14119
0.13063
0.12727
0.126897
0.129361
0.143007
0.169064
0.187074
0.201545
0.706556
0.732159
0.624476
0.526293
0.432927
0.344726
0.269314
0.21108
0.171577
0.14789
0.136179
0.132182
0.13158
0.133385
0.145568
0.1713
0.18963
0.204468
0.699811
0.723916
0.619306
0.524411
0.432943
0.345385
0.269849
0.2113
0.171557
0.147595
0.135472
0.131081
0.130246
0.13163
0.142632
0.167497
0.185791
0.200591
0.588615
0.614008
0.537591
0.465796
0.39184
0.317339
0.250913
0.198063
0.161528
0.139025
0.127417
0.123176
0.122434
0.12371
0.133962
0.157442
0.17507
0.189554
0.376928
0.396717
0.353945
0.320766
0.282307
0.237886
0.194358
0.157592
0.131284
0.114426
0.105516
0.102148
0.101611
0.102819
0.111538
0.132174
0.148257
0.161537
0.228868
0.243315
0.218767
0.193734
0.168683
0.142032
0.117069
0.097884
0.0834481
0.0727956
0.066149
0.0630512
0.0622176
0.0624608
0.0660378
0.0786536
0.0912474
0.10145
0.129076
0.136692
0.124506
0.114717
0.104934
0.0912045
0.0780227
0.0652526
0.055642
0.0504339
0.0477542
0.0466998
0.0465326
0.0473841
0.0505098
0.0576766
0.0631115
0.0685334
0.0667547
0.0742621
0.0710183
0.0660594
0.0587292
0.0535572
0.0502014
0.0477376
0.0459121
0.0445393
0.0438906
0.0439725
0.0443629
0.04614
0.0497369
0.0550843
0.0585502
0.062633
0.0305742
0.0359987
0.0346699
0.0361996
0.040611
0.0438301
0.045395
0.0467672
0.0478839
0.0502322
0.0528556
0.0559173
0.0581285
0.0616217
0.0642571
0.0677327
0.0695119
0.0721104
0.0113869
0.0154847
0.0217659
0.0306142
0.0430815
0.0560358
0.0667165
0.0757332
0.084008
0.0950886
0.10618
0.115445
0.120985
0.123802
0.124383
0.124195
0.123686
0.123547
0.0032844
0.0112101
0.0300492
0.0694226
0.115351
0.156785
0.191034
0.21843
0.24323
0.269915
0.293544
0.307962
0.312243
0.310362
0.30592
0.300158
0.296136
0.293825
0.00381941
0.0521605
0.175713
0.345884
0.4916
0.595015
0.669147
0.718723
0.753921
0.788584
0.809216
0.810136
0.799388
0.785229
0.767262
0.752246
0.744098
0.741093
0.0509809
0.495063
1.18018
1.5871
1.83459
1.96671
2.04588
2.07046
2.06516
2.04088
2.00796
1.94875
1.88614
1.82389
1.77816
1.73361
1.70288
1.66633
0.858926
3.66352
4.97371
5.16152
4.99871
4.75695
4.51345
4.32388
4.16803
4.01816
3.88517
3.7492
3.62192
3.49489
3.38139
3.25291
3.1365
2.95463
6.59861
9.22025
7.89992
6.42174
5.70229
5.59841
5.74354
6.01102
6.31948
6.60206
6.84723
7.00924
7.10123
7.13995
7.11258
7.03205
6.86549
6.428
0.0765867
0.0865805
0.0939057
0.0996927
0.108733
0.121023
0.134696
0.149353
0.167319
0.18925
0.21571
0.247725
0.285138
0.326786
0.373316
0.42908
0.497628
0.579449
0.673303
0.777964
0.896102
1.02655
1.16896
1.32584
1.4958
1.67278
1.84935
2.02179
2.18785
2.34941
2.50353
2.64964
2.79445
2.94055
3.08855
3.23678
3.38803
3.54183
3.70227
3.82848
3.92012
3.99392
4.04068
4.10299
4.19526
4.3323
4.50064
4.70527
4.91575
5.12538
5.40868
5.68768
5.93972
6.1202
6.34144
6.56968
6.82939
7.10328
7.33369
7.50008
7.62518
7.71794
7.80431
7.86658
7.899
7.91132
7.90566
7.83935
7.70323
7.47159
7.15249
6.73714
6.30353
5.97695
5.76514
5.69142
5.74359
5.94278
5.95544
5.84503
5.51689
4.86139
4.34357
4.04321
3.98945
3.98264
3.90625
3.82345
3.86155
3.88249
3.99595
4.52165
5.49597
6.42844
7.19115
7.84594
8.43369
8.79713
8.94748
8.71537
8.18509
7.80703
7.37259
6.27598
4.40677
3.63995
3.90472
5.04341
4.94971
3.2466
2.3031
1.58153
1.43217
1.36875
1.35636
1.48913
1.6946
1.96379
2.1613
2.30989
2.52875
2.88348
3.29168
3.66321
3.85496
3.99893
4.09186
4.27957
4.35767
4.4864
4.59755
4.8154
5.05503
5.38241
5.72322
6.12812
6.69243
7.13383
7.71271
8.43265
9.13977
9.67148
10.5992
11.3103
12.1251
12.3452
12.7476
12.873
12.9409
13.8482
14.9076
17.2807
19.0087
19.0745
18.941
17.5873
16.2095
15.4398
14.7073
14.041
12.9988
11.6847
10.3438
9.35969
8.47634
7.49839
6.64851
5.66082
4.55394
4.28493
4.4703
4.64941
5.28087
5.44438
6.11687
6.59631
7.34933
8.09949
9.11289
11.2544
0.290497
0.124088
0.093475
0.0893899
0.09077
0.094044
0.0983552
0.103392
0.109525
0.11784
0.128777
0.141805
0.157502
0.17649
0.199192
0.228723
0.266922
0.313631
0.36617
0.423426
0.490109
0.567603
0.657841
0.756676
0.854963
0.929452
0.978824
1.01339
1.02626
1.02275
1.01804
1.01428
1.01082
1.01158
1.01373
1.0115
1.00475
0.990613
0.958006
0.897881
0.814611
0.701022
0.614953
0.572884
0.555959
0.5539
0.559619
0.576094
0.581582
0.591831
0.644923
0.701646
0.710529
0.695541
0.659672
0.654159
0.665261
0.742384
0.906249
1.01458
1.08211
1.12072
1.14485
1.19843
1.23199
1.28304
1.37436
1.46827
1.55573
1.58714
1.5782
1.47487
1.19745
0.979911
0.884382
0.859617
0.864455
0.935615
1.19186
1.87721
2.38678
2.43713
2.09469
1.49017
1.36814
1.40746
1.57069
1.99278
3.22921
4.03672
4.25358
4.31166
4.19327
3.77627
3.37989
2.95976
2.68368
2.3475
2.01439
1.69281
1.50263
1.39775
1.23504
1.06391
1.03262
1.08991
1.38071
1.45175
1.28937
1.27627
1.2771
1.24552
0.910949
0.79664
0.802078
0.947219
1.06145
1.12895
1.15387
1.16713
1.18723
1.25333
1.42524
1.60304
1.75095
1.88423
1.99509
2.09558
2.27988
2.47678
2.58007
2.74344
2.92732
3.11208
3.30779
3.46476
3.65424
3.97982
4.12886
4.39687
4.58888
4.89895
4.98894
5.24512
5.7043
6.1547
6.06103
5.75749
5.48728
5.53968
5.91445
6.35674
7.79532
8.38205
8.37725
7.76262
6.76266
6.46621
6.51622
6.76341
6.77477
6.547
6.04706
5.74973
5.54872
5.1321
4.73719
4.44038
3.91644
3.63521
3.54178
3.62703
3.88715
4.19406
4.83591
5.30823
6.45157
6.56781
7.57053
7.45896
0.752214
0.206364
0.0984261
0.0801145
0.07724
0.0781505
0.0815572
0.0865149
0.0897039
0.0943912
0.103744
0.11298
0.121345
0.133592
0.149643
0.169417
0.195019
0.231056
0.280267
0.340553
0.414717
0.496978
0.554858
0.584962
0.569013
0.520905
0.486535
0.452147
0.412747
0.386736
0.363721
0.343703
0.330126
0.319301
0.310022
0.301976
0.292313
0.281748
0.267788
0.250047
0.229576
0.214982
0.206859
0.204091
0.205001
0.209594
0.212758
0.213754
0.213476
0.213588
0.219639
0.236262
0.243136
0.242869
0.23746
0.235834
0.239168
0.256228
0.301983
0.33301
0.344742
0.3475
0.349938
0.359737
0.39313
0.4385
0.497518
0.562087
0.623033
0.658136
0.666854
0.66101
0.598704
0.476276
0.423789
0.391152
0.370981
0.372074
0.404373
0.518365
0.856184
1.13325
1.12702
1.05763
1.11458
1.41586
2.26102
2.85305
3.1637
3.18185
2.81282
2.28226
1.77737
1.47979
1.18588
1.02613
0.929059
0.80664
0.714187
0.685189
0.679076
0.679611
0.676107
0.677812
0.710705
0.859021
0.960943
0.945608
0.849753
0.82838
0.931017
1.18018
0.817336
0.679803
0.699804
0.769757
0.839382
0.876233
0.831522
0.760292
0.726895
0.733705
0.772738
0.867135
0.955243
1.0316
1.1032
1.14749
1.20766
1.35695
1.48609
1.53863
1.65034
1.81
1.92992
2.04256
2.11284
2.29095
2.44865
2.62329
2.70225
2.90259
2.95462
3.11452
3.72162
4.60395
4.44007
3.82972
3.62563
3.94246
4.71451
4.86203
4.89232
5.29502
5.56279
5.46921
4.82214
4.34713
4.25499
4.32296
4.56077
4.59314
4.36768
4.17433
4.18404
4.09095
3.88839
3.73678
3.46177
3.3193
3.39157
3.50308
3.63235
3.8012
4.13132
4.79622
5.80803
5.24612
5.73092
6.51063
1.53015
0.355571
0.112868
0.0802846
0.0742273
0.0749397
0.0795912
0.0864849
0.0902348
0.0963156
0.106502
0.113364
0.120584
0.132473
0.150106
0.173369
0.205202
0.249908
0.330044
0.3997
0.439895
0.473079
0.437313
0.383975
0.348733
0.296038
0.268928
0.246643
0.225539
0.214088
0.20287
0.195163
0.190046
0.184137
0.178577
0.174248
0.171768
0.170019
0.168723
0.16807
0.167583
0.16747
0.167923
0.168697
0.170345
0.171653
0.172047
0.171835
0.170968
0.169252
0.167434
0.165653
0.162494
0.158376
0.157466
0.15993
0.177316
0.219891
0.245799
0.252942
0.250913
0.244647
0.24506
0.250397
0.272464
0.312606
0.350291
0.376259
0.394884
0.401167
0.400259
0.395904
0.384058
0.34381
0.322657
0.303839
0.293368
0.296002
0.317097
0.359209
0.446477
0.6164
0.748025
0.994259
1.57451
2.06868
2.41225
2.50687
2.18543
1.79646
1.35751
1.00849
0.806859
0.658994
0.588497
0.567259
0.560505
0.550396
0.542425
0.545031
0.571106
0.617671
0.634469
0.641733
0.68778
0.868793
0.924604
0.811461
0.766751
0.727765
0.769396
1.02108
1.0088
0.748205
0.735541
0.678867
0.690225
0.741778
0.70434
0.644094
0.625934
0.63273
0.648593
0.685861
0.722659
0.76641
0.795682
0.831807
0.86053
0.915439
1.03177
1.07966
1.12226
1.21964
1.30048
1.38778
1.44326
1.51855
1.61865
1.84329
1.90103
1.97691
2.04442
2.23308
2.87104
3.86784
3.72334
3.09628
3.0109
3.37751
4.19205
4.51324
4.14436
3.93412
4.17275
4.40055
4.13151
3.4925
3.35347
3.44953
3.6011
3.73386
3.60604
3.45176
3.54423
3.68617
3.60864
3.38994
3.23204
3.23549
3.53033
3.71197
3.82742
3.83855
4.00818
4.66534
5.2064
5.14102
4.73647
4.6694
2.5303
0.562204
0.142684
0.0826
0.0748178
0.076905
0.0836944
0.0922311
0.0975664
0.100555
0.108353
0.116407
0.12546
0.142308
0.169398
0.218096
0.286236
0.347821
0.385368
0.40603
0.408038
0.344497
0.288121
0.254215
0.226712
0.203529
0.190893
0.18314
0.17666
0.173446
0.172117
0.171112
0.169956
0.16796
0.165315
0.163645
0.163586
0.164163
0.165707
0.168015
0.171019
0.173334
0.175252
0.176395
0.176471
0.175128
0.172392
0.169941
0.167228
0.16526
0.16331
0.159214
0.151559
0.14503
0.14163
0.140653
0.140929
0.149256
0.157599
0.161911
0.168823
0.190345
0.215124
0.249521
0.29736
0.334541
0.353304
0.355201
0.35342
0.347201
0.330312
0.323544
0.316263
0.29585
0.281212
0.274033
0.274268
0.281335
0.310413
0.388409
0.451867
0.52952
0.721506
1.3873
1.86055
2.04014
2.09497
1.80793
1.37788
0.983062
0.692929
0.553682
0.478126
0.449112
0.444756
0.462772
0.49792
0.504853
0.504973
0.510181
0.553383
0.614147
0.628253
0.63403
0.709418
0.979529
1.15601
1.04539
0.912997
0.697815
0.621393
0.787294
1.13813
1.04381
0.812997
0.609111
0.576624
0.61684
0.60023
0.587106
0.617995
0.638919
0.629461
0.630032
0.636928
0.666482
0.685324
0.695569
0.716102
0.751015
0.786746
0.878932
0.926531
0.958041
1.02162
1.1026
1.13329
1.16926
1.25748
1.41893
1.48233
1.53384
1.63582
1.88559
2.55347
3.22889
3.19335
2.80422
2.81043
3.27191
3.28367
3.47873
3.6042
3.30083
3.3155
3.77894
3.68531
3.00341
2.80497
3.0595
3.244
3.31854
3.19227
3.09602
3.20153
3.55296
3.59075
3.2611
3.13303
3.46459
4.39886
4.79705
5.20159
4.50268
4.35486
4.56723
4.79571
4.83288
4.3517
4.0185
3.81582
0.87415
0.207586
0.0899772
0.0788678
0.0885614
0.101645
0.106684
0.106036
0.106972
0.115011
0.134457
0.157237
0.190559
0.238319
0.30678
0.344938
0.364059
0.372382
0.347933
0.284581
0.235283
0.207346
0.185654
0.173902
0.166829
0.16362
0.163799
0.168292
0.172302
0.174862
0.175947
0.177457
0.179732
0.18144
0.18264
0.184247
0.186302
0.188721
0.191578
0.19538
0.199095
0.203427
0.206514
0.20673
0.20048
0.187905
0.177073
0.16971
0.164658
0.163147
0.162878
0.161288
0.155338
0.148642
0.140418
0.133791
0.130975
0.130389
0.130434
0.132322
0.139494
0.155415
0.187177
0.236827
0.269486
0.279133
0.278381
0.275333
0.27646
0.281836
0.29326
0.300689
0.298021
0.299247
0.30418
0.313477
0.325647
0.350555
0.421301
0.471532
0.556007
0.92411
1.59822
1.83312
1.78527
1.4958
1.16058
0.858088
0.575488
0.460101
0.415601
0.400874
0.39888
0.409874
0.436663
0.442161
0.4294
0.403243
0.395622
0.408164
0.440597
0.455974
0.507528
0.657319
0.967981
1.29778
1.41577
1.16685
0.643236
0.523592
0.532534
0.961039
1.12654
0.842343
0.598323
0.525075
0.564284
0.581425
0.563789
0.630078
0.664741
0.632493
0.600102
0.600557
0.601595
0.617655
0.631377
0.641049
0.664606
0.696843
0.727082
0.81819
0.864865
0.898255
0.941332
0.996713
1.03435
1.09806
1.22829
1.29767
1.3287
1.41378
1.68998
2.49419
2.88451
2.86867
2.68375
2.70407
3.13866
2.97485
2.98343
3.14272
3.01539
2.9115
3.2094
3.42337
2.97225
2.56413
2.70626
3.19233
3.15408
2.95437
2.89045
3.00218
3.41625
3.59502
3.28973
3.22095
4.37972
5.60575
6.18757
7.45735
6.38839
5.52077
4.41068
4.62158
4.53648
3.86683
3.87742
5.1754
1.19344
0.280154
0.115404
0.0980918
0.112518
0.119636
0.119606
0.122206
0.131604
0.142251
0.16701
0.206527
0.254781
0.291161
0.32238
0.3411
0.340021
0.297893
0.237525
0.203537
0.1808
0.163086
0.154424
0.151397
0.151565
0.155361
0.161601
0.167467
0.172741
0.176274
0.180139
0.185194
0.191792
0.194799
0.195898
0.196105
0.19569
0.195747
0.196393
0.197867
0.20134
0.210173
0.217173
0.222502
0.223933
0.220318
0.204974
0.182978
0.163402
0.150905
0.145934
0.145966
0.149185
0.150098
0.147019
0.137172
0.130463
0.127265
0.125134
0.123723
0.123434
0.124562
0.129295
0.147302
0.184541
0.208352
0.219746
0.22362
0.228108
0.237635
0.257813
0.303162
0.354249
0.38891
0.390962
0.389585
0.393733
0.420715
0.551881
0.613858
0.689471
1.16059
1.6467
1.64128
1.31623
0.99628
0.757954
0.549326
0.414151
0.376103
0.369809
0.371864
0.383199
0.390612
0.386679
0.362855
0.309779
0.277701
0.269503
0.26777
0.269618
0.271947
0.29612
0.402043
0.676101
0.998497
1.06644
0.765462
0.455837
0.496586
0.438334
0.529907
0.628974
0.707047
0.598138
0.492684
0.521264
0.592987
0.563626
0.573323
0.615541
0.598149
0.548829
0.543485
0.54777
0.575002
0.596597
0.612457
0.61995
0.65287
0.684075
0.725722
0.773502
0.808319
0.827038
0.8867
0.943576
1.0126
1.07109
1.17849
1.22371
1.30011
1.45981
2.25548
2.68244
2.63748
2.49379
2.47634
2.7787
2.84502
2.97895
3.00916
2.96831
2.76166
2.83609
3.22971
3.0632
2.62135
2.50922
2.7871
2.9953
2.80507
2.6553
2.76193
3.30451
3.449
3.36549
3.77903
5.05359
5.7819
6.29368
6.90914
8.09428
6.22195
4.51
4.64802
4.46372
3.78909
3.64489
6.57523
1.32084
0.278047
0.120404
0.114523
0.118332
0.119128
0.118101
0.127179
0.149599
0.171789
0.194785
0.231577
0.271329
0.296882
0.309832
0.303202
0.261225
0.211497
0.181933
0.165122
0.149105
0.141953
0.139967
0.140932
0.144404
0.148846
0.152931
0.156907
0.162303
0.169753
0.178825
0.189065
0.1952
0.197556
0.197784
0.194984
0.187911
0.183053
0.180854
0.181074
0.184913
0.198029
0.213381
0.224341
0.231004
0.232743
0.230182
0.220034
0.18502
0.151357
0.133391
0.125833
0.123972
0.128905
0.135609
0.137875
0.134748
0.1296
0.126631
0.122324
0.118864
0.117941
0.118728
0.123511
0.153732
0.190152
0.210494
0.218113
0.224074
0.236907
0.273592
0.353975
0.402846
0.414202
0.412102
0.414743
0.448247
0.589347
0.692252
0.712246
0.841912
1.33728
1.52798
1.30328
0.888177
0.669326
0.519842
0.401926
0.353451
0.345001
0.349032
0.355629
0.354773
0.344527
0.318816
0.27796
0.244962
0.231695
0.22926
0.229381
0.229365
0.221511
0.213971
0.225177
0.29108
0.36351
0.375664
0.375993
0.364003
0.415092
0.397292
0.424665
0.432153
0.43857
0.491403
0.438376
0.456628
0.604137
0.608684
0.546415
0.52097
0.525926
0.519442
0.498883
0.506192
0.519727
0.550608
0.559757
0.562881
0.589777
0.656226
0.69235
0.717406
0.742448
0.804094
0.84318
0.873803
0.987821
1.06474
1.1052
1.14573
1.31614
1.47142
1.79955
2.27732
2.30814
2.18985
2.11361
2.23922
2.6186
3.13551
3.14509
2.98637
2.93735
2.87788
2.91308
2.80554
2.58011
2.43251
2.35183
2.62637
2.62272
2.51662
2.56663
3.17495
3.38696
3.48248
4.58045
4.89359
4.29832
3.96247
3.75091
5.89387
6.52524
4.83607
4.36037
4.23035
3.69487
3.40811
8.21784
1.40473
0.259438
0.11736
0.113346
0.114888
0.11514
0.120154
0.137422
0.163346
0.189745
0.217159
0.245364
0.267573
0.277537
0.270275
0.243761
0.204459
0.171847
0.155731
0.143342
0.134678
0.132024
0.132164
0.134835
0.139056
0.143653
0.146626
0.148644
0.153455
0.162294
0.174825
0.188407
0.195666
0.198651
0.199081
0.196316
0.186107
0.177898
0.175783
0.17629
0.180306
0.192472
0.204222
0.213276
0.225582
0.234953
0.237305
0.235134
0.222495
0.181526
0.147662
0.128477
0.119166
0.115495
0.115047
0.119909
0.126741
0.129046
0.128753
0.125013
0.119079
0.116008
0.116142
0.118153
0.141549
0.187142
0.214803
0.228935
0.236893
0.248711
0.279911
0.343705
0.385149
0.397842
0.41135
0.453398
0.565493
0.658577
0.671542
0.698577
0.948882
1.30177
1.27926
0.914102
0.606566
0.46781
0.387107
0.343815
0.333009
0.33504
0.33523
0.324448
0.300309
0.28245
0.261658
0.23528
0.218554
0.212921
0.212546
0.215037
0.217534
0.211191
0.193657
0.188627
0.204104
0.223128
0.257138
0.283833
0.291393
0.28558
0.307828
0.371717
0.399864
0.385483
0.388695
0.405415
0.40458
0.489954
0.629264
0.542843
0.481791
0.490757
0.493184
0.478439
0.492738
0.493734
0.518901
0.518818
0.52681
0.549228
0.593354
0.656451
0.690512
0.727377
0.811991
0.863592
0.865041
0.995515
1.10158
1.17791
1.15473
1.35215
1.56346
1.65416
1.92784
1.97246
1.89092
1.8251
1.86105
2.17038
2.9827
3.1493
2.91193
3.0827
3.1239
2.88746
2.49972
2.25395
2.18749
2.04142
2.15957
2.35028
2.28816
2.32052
2.85731
3.36917
3.53467
4.66102
4.47748
3.79365
3.37982
3.08134
3.44059
6.19543
4.90525
4.03299
3.77067
3.39423
3.291
10.0683
1.58326
0.262937
0.112658
0.10781
0.10596
0.108547
0.121509
0.140272
0.164566
0.190954
0.223367
0.249024
0.260217
0.258692
0.239094
0.202473
0.168569
0.149593
0.139879
0.129522
0.124847
0.124366
0.125916
0.130306
0.135903
0.140748
0.143594
0.144519
0.147458
0.1555
0.167207
0.179901
0.186866
0.189783
0.190787
0.189284
0.182274
0.174907
0.174036
0.176153
0.185
0.201838
0.208934
0.210511
0.216128
0.230838
0.239542
0.239711
0.233387
0.202217
0.160409
0.137354
0.124826
0.115942
0.112239
0.111188
0.113065
0.119293
0.121827
0.122082
0.117954
0.113847
0.11377
0.115111
0.123407
0.171687
0.208522
0.229366
0.238823
0.248885
0.272406
0.337908
0.386547
0.41114
0.445434
0.516301
0.589245
0.611169
0.635629
0.746161
1.03674
1.16228
1.01951
0.628339
0.43967
0.358583
0.323344
0.311954
0.313191
0.320555
0.311745
0.274492
0.250765
0.240297
0.229142
0.216946
0.208661
0.205015
0.204938
0.210067
0.215258
0.212618
0.191702
0.180085
0.176267
0.184661
0.206578
0.203439
0.220598
0.25227
0.2949
0.3137
0.353817
0.379841
0.369018
0.392798
0.392868
0.416482
0.543978
0.483359
0.431509
0.46005
0.489085
0.47181
0.472062
0.473213
0.494524
0.492594
0.505693
0.510305
0.540192
0.616671
0.633045
0.682658
0.801491
0.847805
0.840624
0.930721
1.07152
1.16976
1.13975
1.31334
1.61664
1.68314
1.79351
1.82018
1.69844
1.62822
1.66684
1.74098
2.2218
2.70313
2.68617
2.80782
3.15355
2.92524
2.37451
2.14694
2.101
1.90205
1.88072
2.01993
1.97856
2.01964
2.48767
3.25542
3.59354
4.50141
3.75935
3.11873
3.14176
3.07749
3.03722
4.054
4.17929
3.57422
3.40448
3.15079
3.10155
12.0728
1.91295
0.292281
0.112038
0.100948
0.103533
0.107316
0.120913
0.139412
0.162115
0.186862
0.221438
0.242688
0.246549
0.238689
0.212634
0.17506
0.152565
0.141559
0.134621
0.126456
0.120643
0.119141
0.119737
0.122867
0.128954
0.135169
0.139531
0.142637
0.146787
0.157475
0.171725
0.182034
0.186998
0.187198
0.184759
0.183574
0.185327
0.186169
0.185174
0.185891
0.193637
0.209877
0.213813
0.211689
0.211844
0.223562
0.240028
0.24266
0.239216
0.222862
0.179929
0.146405
0.127847
0.119713
0.113469
0.109986
0.108379
0.106064
0.105802
0.107533
0.108483
0.107549
0.107022
0.108283
0.111717
0.138615
0.191505
0.216251
0.229805
0.24889
0.301738
0.380026
0.430153
0.464477
0.49237
0.534653
0.561811
0.589319
0.650834
0.82347
0.993643
0.980472
0.754576
0.465029
0.347547
0.303499
0.290513
0.289874
0.305666
0.312105
0.294282
0.240197
0.218686
0.209127
0.201802
0.196656
0.194079
0.193402
0.195449
0.206507
0.214844
0.216621
0.207577
0.186223
0.172296
0.171265
0.168338
0.17077
0.191321
0.204651
0.277308
0.311842
0.339024
0.371837
0.369866
0.387782
0.408429
0.422153
0.473256
0.452174
0.409771
0.427459
0.488948
0.469293
0.437571
0.449447
0.476564
0.481228
0.488816
0.488463
0.523726
0.571677
0.571892
0.618512
0.727251
0.747987
0.757726
0.800183
0.967219
1.03756
1.08474
1.20942
1.55
1.7648
1.80758
1.78148
1.58763
1.52569
1.58644
1.63891
1.88622
2.29521
2.34381
2.43001
2.81633
2.72548
2.23042
2.08052
2.03139
1.82101
1.73581
1.74633
1.73887
1.75685
2.13604
3.10568
3.69999
4.23076
3.24797
2.86501
3.12681
3.3018
2.8406
3.1308
3.18321
3.09803
3.03753
2.80487
2.85525
13.955
2.45782
0.403955
0.118719
0.100837
0.104576
0.107706
0.119225
0.136736
0.157204
0.1807
0.212568
0.225125
0.225584
0.21662
0.19123
0.162378
0.145278
0.138073
0.133773
0.127407
0.12099
0.118614
0.118306
0.119662
0.122692
0.12645
0.130452
0.135899
0.145488
0.159086
0.172693
0.178967
0.176015
0.167278
0.163273
0.170062
0.195799
0.221418
0.234045
0.235093
0.226822
0.219282
0.216249
0.209714
0.204255
0.205178
0.219858
0.230086
0.2319
0.224657
0.191191
0.159356
0.138705
0.123807
0.114191
0.110504
0.108695
0.103822
0.0968206
0.0919273
0.0910185
0.0926059
0.0933274
0.0952727
0.101458
0.113878
0.166712
0.202121
0.222138
0.249745
0.331781
0.432568
0.477815
0.495877
0.511216
0.530361
0.553074
0.601102
0.708897
0.835481
0.863144
0.78141
0.538519
0.360443
0.290173
0.267765
0.263948
0.271672
0.296604
0.304075
0.28617
0.226558
0.201499
0.191958
0.186434
0.182035
0.177557
0.176
0.178095
0.189014
0.196543
0.204121
0.21151
0.203087
0.175106
0.164382
0.156463
0.158939
0.177072
0.191351
0.250763
0.315211
0.343735
0.37136
0.379252
0.39109
0.426853
0.429774
0.432348
0.435878
0.407754
0.428101
0.501096
0.470089
0.423895
0.447251
0.472876
0.469114
0.462996
0.473171
0.515624
0.533087
0.537066
0.573604
0.640385
0.653974
0.692
0.747825
0.913493
0.987276
1.08492
1.19487
1.42901
1.75711
1.83208
1.77035
1.53056
1.47358
1.53463
1.60218
1.7072
2.11705
2.18279
2.17991
2.14603
2.15797
2.01769
2.01601
1.99352
1.77619
1.60543
1.54827
1.58171
1.58576
1.78047
2.76325
3.71814
3.93217
3.01988
2.93977
3.30434
3.48459
2.70053
2.95892
2.99377
2.97316
2.78327
2.65368
2.81289
15.5347
2.82758
0.615748
0.152887
0.103766
0.103235
0.103827
0.109796
0.125358
0.146446
0.170984
0.202448
0.215306
0.21521
0.207078
0.187143
0.161004
0.144104
0.136984
0.133566
0.130234
0.124468
0.12011
0.119466
0.120487
0.122672
0.125592
0.128991
0.133873
0.142138
0.150832
0.154351
0.150879
0.143504
0.140059
0.140288
0.147306
0.171947
0.208323
0.243095
0.262876
0.259491
0.233955
0.222567
0.215122
0.203528
0.200214
0.202208
0.202748
0.199701
0.191673
0.176434
0.158633
0.142471
0.128893
0.117764
0.11098
0.108285
0.103681
0.0955354
0.0881945
0.0829259
0.0810795
0.0810378
0.0815819
0.0877485
0.0985385
0.129441
0.185017
0.215128
0.2479
0.33591
0.459974
0.512664
0.5293
0.530569
0.534799
0.559154
0.63885
0.72405
0.759341
0.723861
0.579107
0.412636
0.302698
0.258809
0.245694
0.244286
0.252627
0.27576
0.281729
0.265317
0.216249
0.190774
0.181214
0.17677
0.174513
0.171538
0.169373
0.169423
0.172248
0.17389
0.184816
0.202794
0.20383
0.175772
0.160543
0.152619
0.149545
0.157279
0.183829
0.255835
0.321902
0.351997
0.383684
0.386876
0.393116
0.428479
0.415906
0.406309
0.417235
0.41274
0.439443
0.497361
0.469469
0.426127
0.45651
0.470691
0.461057
0.44002
0.452406
0.495506
0.505663
0.5087
0.556056
0.589103
0.613944
0.676822
0.749875
0.891427
0.966905
1.1659
1.2419
1.33614
1.57709
1.71794
1.68455
1.47483
1.43285
1.44518
1.50765
1.53554
1.92162
2.0422
1.92813
1.89553
1.88734
1.94112
1.98056
1.96953
1.76619
1.53146
1.42196
1.47799
1.4889
1.595
2.20455
3.58949
3.71291
2.91925
3.09647
3.59026
3.49569
2.55537
2.94875
3.12843
3.09382
2.71403
2.61096
2.80942
16.9882
3.20049
0.813284
0.210223
0.110953
0.102872
0.0988987
0.100951
0.108128
0.121201
0.141684
0.174623
0.20012
0.206851
0.203263
0.189357
0.168274
0.148378
0.138485
0.134718
0.133893
0.132092
0.129827
0.129628
0.132206
0.13659
0.138851
0.140794
0.144607
0.146709
0.150114
0.148676
0.142594
0.138191
0.136836
0.137279
0.139559
0.144996
0.157455
0.175435
0.209308
0.22552
0.220953
0.216225
0.212504
0.201222
0.198814
0.199285
0.196754
0.178764
0.163431
0.153791
0.149134
0.140153
0.128766
0.118918
0.112166
0.109009
0.104969
0.0950893
0.0879485
0.0811075
0.0770692
0.0772657
0.0771613
0.0801689
0.0893331
0.102771
0.158904
0.205633
0.243799
0.335146
0.470057
0.541027
0.557271
0.554748
0.555273
0.58038
0.650376
0.691539
0.673567
0.57938
0.438811
0.339127
0.270573
0.243446
0.235609
0.234765
0.239451
0.253891
0.257095
0.243158
0.205173
0.183701
0.176099
0.172947
0.17189
0.171172
0.168662
0.166468
0.166372
0.166736
0.164078
0.174882
0.182885
0.175296
0.163671
0.149825
0.146121
0.153665
0.173093
0.252108
0.322993
0.359874
0.383233
0.386422
0.385277
0.405945
0.400552
0.396853
0.410533
0.434812
0.445968
0.450556
0.449481
0.443588
0.455332
0.455109
0.448266
0.431329
0.438221
0.469476
0.480824
0.493697
0.557498
0.569694
0.59425
0.686473
0.773632
0.881085
0.951784
1.14966
1.30578
1.34013
1.38308
1.51323
1.47973
1.35842
1.37984
1.39488
1.4286
1.44493
1.75867
1.87054
1.80397
1.83738
1.8365
1.95017
1.99299
1.95919
1.72077
1.49537
1.36385
1.39844
1.41807
1.55445
2.09739
3.43273
3.47457
2.84633
3.24244
3.6168
3.24154
2.39631
2.95274
3.57831
3.29701
2.66814
2.61481
2.8271
18.3928
3.46897
0.931321
0.261303
0.120183
0.103877
0.0969853
0.0934922
0.0964315
0.103738
0.116369
0.135338
0.161775
0.18208
0.193981
0.189505
0.178529
0.165159
0.151303
0.141264
0.136273
0.133835
0.131752
0.132284
0.135017
0.141625
0.147921
0.152128
0.156377
0.16473
0.168285
0.166035
0.157513
0.145514
0.140838
0.140572
0.142825
0.148607
0.152714
0.154753
0.1587
0.180617
0.192511
0.188249
0.179522
0.179392
0.194923
0.203324
0.198104
0.171877
0.159181
0.152509
0.148345
0.141903
0.129925
0.117754
0.111095
0.108437
0.10624
0.0992222
0.0888611
0.0803524
0.0758891
0.0755299
0.0767329
0.0781452
0.0865461
0.0963226
0.116643
0.175249
0.224456
0.324923
0.466794
0.552524
0.580131
0.579041
0.574446
0.590066
0.629652
0.623572
0.57378
0.453011
0.357333
0.29522
0.2483
0.230128
0.226317
0.226949
0.234043
0.245745
0.248085
0.23594
0.203258
0.182765
0.174891
0.17151
0.17025
0.170863
0.169689
0.16578
0.162665
0.163038
0.159289
0.165098
0.173545
0.17166
0.164546
0.146526
0.141195
0.15109
0.17212
0.248042
0.319493
0.364644
0.384618
0.385992
0.379383
0.385178
0.390788
0.390336
0.407603
0.445695
0.439058
0.42931
0.43361
0.459725
0.441964
0.43202
0.446414
0.431843
0.434278
0.466587
0.474975
0.498664
0.56774
0.56006
0.587825
0.709122
0.779238
0.849748
0.886724
1.01487
1.23294
1.2726
1.26671
1.32951
1.28739
1.25428
1.35745
1.39355
1.38351
1.38941
1.65193
1.76772
1.76996
1.84307
1.85292
1.9736
2.00523
1.92577
1.69835
1.451
1.33838
1.3947
1.41435
1.55694
2.10346
3.37508
3.30089
2.82655
3.30597
3.49056
2.89014
2.32738
2.85083
3.69689
3.15829
2.52532
2.67949
2.83649
19.6246
3.81113
1.15748
0.323258
0.137625
0.107343
0.0965825
0.0901237
0.0900242
0.0930088
0.100419
0.111872
0.129889
0.14719
0.16271
0.172856
0.175242
0.168858
0.161585
0.153252
0.143281
0.13669
0.133022
0.131086
0.131515
0.134899
0.142878
0.150576
0.155402
0.164137
0.172528
0.177871
0.177989
0.173515
0.16142
0.156803
0.153224
0.151388
0.151435
0.150961
0.149694
0.153455
0.170556
0.1708
0.165253
0.166992
0.191508
0.201973
0.195955
0.168959
0.156342
0.153458
0.150522
0.145714
0.134795
0.120583
0.110006
0.105297
0.103368
0.0995524
0.0895621
0.0812837
0.0759827
0.0756759
0.0762584
0.0781062
0.0860889
0.0958289
0.103619
0.132578
0.190704
0.271594
0.436175
0.548144
0.591892
0.595532
0.581025
0.585507
0.587192
0.559915
0.465844
0.359966
0.298065
0.261354
0.234752
0.224174
0.22184
0.222341
0.228536
0.243992
0.248764
0.238619
0.208545
0.186207
0.17633
0.173224
0.171153
0.170857
0.170368
0.166773
0.162132
0.161
0.157222
0.159901
0.169046
0.1704
0.164331
0.145896
0.141085
0.148221
0.168755
0.247526
0.3252
0.371905
0.393118
0.388351
0.37899
0.384086
0.393122
0.394478
0.41081
0.438262
0.41715
0.412407
0.434144