/*--------------------------------*- C++ -*----------------------------------*\
| =========                 |                                                 |
| \\      /  F ield         | OpenFOAM: The Open Source CFD Toolbox           |
|  \\    /   O peration     | Version:  dev                                   |
|   \\  /    A nd           | Web:      http://www.openfoam.org               |
|    \\/     M anipulation  |                                                 |
\*---------------------------------------------------------------------------*/
FoamFile
{
    version     2.0;
    format      ascii;
    class       volScalarField;
    object      muSgs;
    location    "9.153";
}
// * * * * * * * * * * * * * * * * * * * * * * * * * * * * * * * * * * * * * //

dimensions      [1 -1 -1 0 0 0 0];

internalField   nonuniform List<scalar> 
12225
(
0.000216617
0.000213497
0.000171653
0.000172147
0.000179929
0.000192639
0.000223088
0.000226304
0.000262609
0.000254447
0.000298441
0.000267927
0.000320744
0.000260665
0.000302632
0.000251631
0.000269247
0.000314817
0.000109603
0.000198189
0.000186877
0.000202631
0.000173972
0.000192621
0.000173005
0.000189372
0.000180153
0.000191961
0.000188655
0.000192602
0.000198055
0.000182201
0.000214008
0.000221463
0.000339812
0.000308419
3.34319e-05
0.00011132
0.000119444
0.00014821
0.000135548
0.000150691
0.000136163
0.000142711
0.000133525
0.000136164
0.000133007
0.000123634
0.000134087
0.00011334
0.000149462
0.000185473
0.000320491
0.000329357
9.90303e-06
4.8461e-05
5.93874e-05
7.82767e-05
9.02019e-05
9.19781e-05
0.000103653
9.33408e-05
0.000106629
9.02437e-05
0.000103713
8.30203e-05
9.91823e-05
8.03952e-05
0.000113802
0.000153809
0.000319355
0.000356482
4.34657e-06
2.15422e-05
2.98896e-05
4.01494e-05
5.49031e-05
5.8e-05
6.93933e-05
6.38952e-05
7.31269e-05
6.34372e-05
7.2378e-05
5.85658e-05
7.26123e-05
6.15121e-05
8.77132e-05
0.00011758
0.00027483
0.000370212
6.66902e-06
1.466e-05
1.88113e-05
2.18453e-05
3.10449e-05
3.28557e-05
4.12499e-05
3.85391e-05
4.52427e-05
4.00538e-05
4.71942e-05
3.83522e-05
5.00145e-05
4.34478e-05
6.59538e-05
8.45003e-05
0.000188378
0.000290988
7.23932e-06
1.14445e-05
1.34035e-05
1.42604e-05
1.89077e-05
1.89947e-05
2.4304e-05
2.29032e-05
2.84171e-05
2.55831e-05
3.06066e-05
2.63168e-05
3.31819e-05
2.96376e-05
4.33449e-05
5.35135e-05
0.000111266
0.000152605
7.35553e-06
9.97982e-06
1.10859e-05
1.1423e-05
1.28406e-05
1.2917e-05
1.44752e-05
1.39414e-05
1.6397e-05
1.51348e-05
1.75512e-05
1.60426e-05
1.91489e-05
1.81756e-05
2.46023e-05
2.96636e-05
5.25041e-05
6.11171e-05
1.08746e-05
1.32133e-05
1.29397e-05
1.31234e-05
1.35992e-05
1.36662e-05
1.38785e-05
1.35548e-05
1.39697e-05
1.3503e-05
1.41773e-05
1.38577e-05
1.49507e-05
1.52652e-05
1.84389e-05
2.12829e-05
3.17867e-05
3.42089e-05
1.56607e-05
1.88536e-05
1.76257e-05
1.747e-05
1.64901e-05
1.62013e-05
1.51875e-05
1.46397e-05
1.41277e-05
1.39467e-05
1.36725e-05
1.39782e-05
1.39167e-05
1.49586e-05
1.65026e-05
1.88535e-05
2.32579e-05
2.43927e-05
2.37543e-05
2.64799e-05
2.4866e-05
2.44424e-05
2.28888e-05
2.17423e-05
1.86672e-05
1.70273e-05
1.5616e-05
1.51902e-05
1.466e-05
1.46527e-05
1.46918e-05
1.5185e-05
1.69319e-05
1.87638e-05
2.07521e-05
2.18767e-05
3.49936e-05
3.75952e-05
3.52064e-05
3.38229e-05
3.1225e-05
2.92351e-05
2.50776e-05
2.19862e-05
1.90719e-05
1.78632e-05
1.6912e-05
1.6621e-05
1.64806e-05
1.68581e-05
1.85995e-05
2.04536e-05
2.18999e-05
2.29668e-05
4.98818e-05
5.23813e-05
4.8642e-05
4.60262e-05
4.21942e-05
3.83905e-05
3.29139e-05
2.88887e-05
2.53068e-05
2.31412e-05
2.18522e-05
2.1225e-05
2.08873e-05
2.12635e-05
2.34788e-05
2.55186e-05
2.66814e-05
2.7176e-05
7.17549e-05
7.42645e-05
6.88787e-05
6.40433e-05
5.78742e-05
5.16673e-05
4.47734e-05
3.89777e-05
3.42666e-05
3.13239e-05
2.9791e-05
2.89238e-05
2.83568e-05
2.88801e-05
3.18331e-05
3.44712e-05
3.5727e-05
3.6344e-05
9.746e-05
0.000100934
9.46113e-05
8.75915e-05
7.94568e-05
7.07495e-05
6.20109e-05
5.43506e-05
4.8221e-05
4.4009e-05
4.15742e-05
4.02202e-05
3.92576e-05
3.90545e-05
4.10048e-05
4.38376e-05
4.51264e-05
4.57409e-05
0.00012989
0.000132797
0.000122186
0.000110466
9.85401e-05
8.63701e-05
7.48612e-05
6.49227e-05
5.72396e-05
5.19984e-05
4.88627e-05
4.71263e-05
4.59908e-05
4.5404e-05
4.66917e-05
4.96499e-05
5.10726e-05
5.18406e-05
0.000149662
0.00015144
0.000137955
0.000123766
0.00010986
9.59028e-05
8.28784e-05
7.16954e-05
6.31396e-05
5.72559e-05
5.36733e-05
5.16794e-05
5.04072e-05
4.96278e-05
5.0706e-05
5.37997e-05
5.53707e-05
5.62445e-05
0.0001489
0.000150671
0.000137428
0.00012358
0.000109887
9.60175e-05
8.29997e-05
7.17653e-05
6.31747e-05
5.72398e-05
5.35781e-05
5.15195e-05
5.02173e-05
4.93857e-05
5.02993e-05
5.33347e-05
5.49615e-05
5.58745e-05
0.000128685
0.000130953
0.000120657
0.000109752
9.8482e-05
8.6684e-05
7.53803e-05
6.54365e-05
5.77464e-05
5.23325e-05
4.89503e-05
4.70445e-05
4.58675e-05
4.51097e-05
4.59209e-05
4.87203e-05
5.02805e-05
5.1195e-05
9.71629e-05
9.9256e-05
9.23172e-05
8.59536e-05
7.89252e-05
7.08976e-05
6.2692e-05
5.51619e-05
4.9202e-05
4.48626e-05
4.2106e-05
4.04975e-05
3.95132e-05
3.89001e-05
3.96444e-05
4.22373e-05
4.3773e-05
4.47137e-05
7.13489e-05
7.31712e-05
6.832e-05
6.29467e-05
5.7511e-05
5.16734e-05
4.58974e-05
4.10159e-05
3.70308e-05
3.37889e-05
3.15002e-05
3.00794e-05
2.92416e-05
2.86856e-05
2.88888e-05
3.08867e-05
3.25557e-05
3.36011e-05
5.03295e-05
5.17061e-05
4.85581e-05
4.55746e-05
4.26779e-05
3.89699e-05
3.52557e-05
3.15208e-05
2.8447e-05
2.64366e-05
2.51393e-05
2.4301e-05
2.37259e-05
2.34249e-05
2.36601e-05
2.47831e-05
2.54091e-05
2.59469e-05
3.41204e-05
3.58901e-05
3.45056e-05
3.25904e-05
3.00951e-05
2.80915e-05
2.65593e-05
2.5281e-05
2.42174e-05
2.33124e-05
2.26324e-05
2.21571e-05
2.17752e-05
2.17277e-05
2.20791e-05
2.27651e-05
2.29913e-05
2.32981e-05
2.17984e-05
2.35624e-05
2.27299e-05
2.26298e-05
2.33717e-05
2.37632e-05
2.36623e-05
2.34961e-05
2.32315e-05
2.32238e-05
2.32704e-05
2.33899e-05
2.33277e-05
2.34946e-05
2.35093e-05
2.36607e-05
2.34959e-05
2.34594e-05
1.25296e-05
1.44707e-05
1.67372e-05
1.94013e-05
2.25176e-05
2.50931e-05
2.67633e-05
2.78708e-05
2.86935e-05
2.98482e-05
3.08515e-05
3.14844e-05
3.15476e-05
3.1256e-05
3.06838e-05
3.00372e-05
2.93648e-05
2.87591e-05
6.15155e-06
1.13337e-05
1.81236e-05
2.70723e-05
3.43201e-05
3.92711e-05
4.24828e-05
4.44711e-05
4.59174e-05
4.73455e-05
4.83443e-05
4.8494e-05
4.78137e-05
4.66767e-05
4.53722e-05
4.40108e-05
4.28122e-05
4.17738e-05
6.01139e-06
2.2525e-05
4.12759e-05
5.72283e-05
6.70657e-05
7.23618e-05
7.51829e-05
7.62883e-05
7.64768e-05
7.65711e-05
7.59497e-05
7.44137e-05
7.2373e-05
7.0222e-05
6.79771e-05
6.59195e-05
6.42237e-05
6.2783e-05
2.06266e-05
6.66684e-05
0.000102503
0.000116789
0.000123047
0.000124756
0.000124583
0.000122704
0.00011997
0.000116754
0.000113377
0.000109332
0.000105318
0.000101429
9.81005e-05
9.49032e-05
9.2182e-05
8.92774e-05
8.25536e-05
0.000173808
0.000199296
0.000199292
0.000192252
0.000183548
0.000174974
0.000167543
0.000160934
0.000154617
0.000148813
0.000143091
0.000137731
0.000132505
0.00012767
0.000122664
0.000117962
0.000111784
0.000225344
0.000260546
0.000234986
0.000205976
0.000189421
0.000183519
0.000181998
0.00018248
0.000183513
0.000184067
0.000184038
0.000182882
0.000180836
0.000178115
0.000174718
0.000170704
0.000165577
0.00015669
2.14599e-05
2.32866e-05
2.4337e-05
2.51332e-05
2.6311e-05
2.782e-05
2.942e-05
3.10526e-05
3.29495e-05
3.5134e-05
3.76042e-05
4.04025e-05
4.34601e-05
4.66564e-05
5.00072e-05
5.37479e-05
5.80097e-05
6.27292e-05
6.77748e-05
7.30421e-05
7.86074e-05
8.43688e-05
9.02734e-05
9.63933e-05
0.000102675
0.000108968
0.000115069
0.000120833
0.000126193
0.000131277
0.000136075
0.000140563
0.000144903
0.000149187
0.000153432
0.000157588
0.000161706
0.000165785
0.000169958
0.000173398
0.000176199
0.000178816
0.000181055
0.000183719
0.000186972
0.000191076
0.000195727
0.000201026
0.000206501
0.000212067
0.000219022
0.000225767
0.000232067
0.00023717
0.000243206
0.000249233
0.000255753
0.000262455
0.000268504
0.000273452
0.000277781
0.000281724
0.000285717
0.000289391
0.000292377
0.000294719
0.00029664
0.000297585
0.000297275
0.000295198
0.000291288
0.000285112
0.00027785
0.00027201
0.000268222
0.000268406
0.000271971
0.000277046
0.000276905
0.000275667
0.000271337
0.00025754
0.000244651
0.000236839
0.000236805
0.000238605
0.000237945
0.000234971
0.000234033
0.000231904
0.00023246
0.000244963
0.000270677
0.000294
0.000312318
0.000327256
0.00034021
0.000348782
0.0003529
0.000349036
0.000338532
0.000330671
0.000320614
0.000294249
0.000246748
0.000227949
0.000241361
0.000272738
0.000264969
0.00021278
0.000181057
0.000153701
0.000146431
0.000143445
0.000142965
0.000149855
0.000160359
0.00017305
0.000182099
0.000188783
0.000197934
0.000211776
0.000226811
0.000240116
0.000247215
0.000252622
0.000255995
0.000262389
0.00026521
0.000269874
0.000273929
0.000281347
0.000289228
0.000299519
0.000309977
0.000321749
0.000337737
0.000349489
0.000364898
0.000382245
0.000400745
0.000412123
0.000434304
0.00044886
0.000470027
0.000473487
0.000481491
0.00048843
0.000495051
0.000515847
0.000538631
0.000584906
0.000617642
0.000624879
0.000627502
0.000616294
0.000601675
0.000593149
0.000579217
0.000565611
0.000548482
0.000520571
0.000490195
0.000468024
0.000450884
0.000427893
0.000400458
0.000360787
0.000317796
0.00030994
0.000329237
0.000343591
0.000367769
0.000377778
0.000390125
0.000399987
0.000422832
0.000463292
0.000491583
0.000528937
4.17746e-05
2.8153e-05
2.44233e-05
2.39006e-05
2.41508e-05
2.46508e-05
2.52756e-05
2.60093e-05
2.68692e-05
2.79774e-05
2.93444e-05
3.08732e-05
3.26043e-05
3.46244e-05
3.69782e-05
3.98764e-05
4.32985e-05
4.7105e-05
5.09978e-05
5.49187e-05
5.91564e-05
6.37631e-05
6.88642e-05
7.42993e-05
7.96202e-05
8.35458e-05
8.60718e-05
8.78612e-05
8.87309e-05
8.88815e-05
8.89939e-05
8.91453e-05
8.93213e-05
8.96713e-05
9.00769e-05
9.02817e-05
9.0267e-05
8.99252e-05
8.87416e-05
8.62328e-05
8.24856e-05
7.69336e-05
7.24758e-05
7.03637e-05
6.97454e-05
7.00723e-05
7.08591e-05
7.22313e-05
7.281e-05
7.37776e-05
7.73877e-05
8.13005e-05
8.19629e-05
8.16043e-05
8.02769e-05
8.0571e-05
8.16665e-05
8.58676e-05
9.53538e-05
0.000101779
0.000105947
0.000108774
0.000110842
0.000114525
0.000117328
0.000120458
0.000125214
0.000130067
0.00013475
0.000137209
0.000137996
0.000135479
0.000123752
0.000112312
0.000106564
0.000104723
0.000105035
0.000108978
0.000121569
0.000152763
0.000174864
0.000177873
0.000168769
0.000142746
0.000136189
0.000139125
0.000147353
0.00016398
0.000207633
0.000236114
0.000244742
0.000247869
0.000246333
0.000234777
0.000222325
0.000208443
0.000198616
0.000185465
0.000170781
0.000155516
0.000146065
0.000140022
0.000129843
0.000119735
0.000118203
0.000124398
0.000145081
0.000146298
0.000128341
0.000128668
0.000132413
0.000136211
0.000118656
0.000110398
0.000109972
0.000118191
0.000126182
0.000131709
0.000133663
0.000134444
0.000135817
0.000140403
0.000150633
0.000160391
0.000167585
0.000174276
0.000180271
0.00018651
0.000196142
0.000205431
0.000209124
0.000215087
0.000222866
0.000231784
0.000240568
0.0002477
0.000255992
0.000269047
0.000276634
0.000285935
0.000293741
0.000303562
0.000309433
0.000313968
0.000330692
0.000349588
0.000333092
0.000334854
0.000325314
0.000328677
0.000347602
0.000367007
0.000402516
0.000423168
0.000424877
0.000428
0.000410053
0.000405944
0.000410086
0.000413619
0.000417282
0.000417299
0.000406791
0.000398411
0.000400757
0.000395531
0.000378519
0.000355717
0.000331389
0.000328758
0.00034329
0.00035251
0.00035931
0.00037049
0.000368695
0.000404779
0.000428499
0.000432105
0.000462628
0.000465205
6.67786e-05
3.6307e-05
2.50754e-05
2.26584e-05
2.23133e-05
2.25292e-05
2.30894e-05
2.39108e-05
2.44993e-05
2.52793e-05
2.66933e-05
2.80939e-05
2.92964e-05
3.08527e-05
3.25726e-05
3.44924e-05
3.69579e-05
4.02562e-05
4.45646e-05
4.93865e-05
5.48088e-05
6.03746e-05
6.42092e-05
6.61235e-05
6.53269e-05
6.26742e-05
6.06557e-05
5.86102e-05
5.61852e-05
5.45053e-05
5.29604e-05
5.16873e-05
5.08514e-05
5.01931e-05
4.9636e-05
4.91768e-05
4.85294e-05
4.77774e-05
4.67128e-05
4.52815e-05
4.35825e-05
4.2397e-05
4.18352e-05
4.18182e-05
4.21833e-05
4.2897e-05
4.34725e-05
4.38368e-05
4.40476e-05
4.42661e-05
4.50962e-05
4.71808e-05
4.83284e-05
4.86322e-05
4.84822e-05
4.85018e-05
4.91373e-05
5.11487e-05
5.58375e-05
5.9139e-05
6.05015e-05
6.09482e-05
6.13848e-05
6.24082e-05
6.54628e-05
6.97943e-05
7.51176e-05
8.0691e-05
8.57326e-05
8.88313e-05
9.00681e-05
9.03221e-05
8.74605e-05
7.84376e-05
7.41585e-05
7.12687e-05
6.90722e-05
6.91654e-05
7.17407e-05
8.02651e-05
0.000103238
0.000121819
0.000122472
0.000119199
0.000122154
0.000136252
0.000173371
0.000197966
0.000210001
0.000212621
0.000202048
0.00018289
0.00016121
0.000146719
0.000130801
0.000121132
0.000114722
0.000105959
9.90841e-05
9.69722e-05
9.69236e-05
9.73291e-05
9.67623e-05
9.64873e-05
9.92542e-05
0.000110118
0.000117191
0.000116333
0.000105218
0.00010575
0.000114556
0.000128641
0.000111326
0.000100656
0.000100749
0.000102831
0.000107204
0.0001121
0.0001119
0.000107623
0.000104375
0.000104121
0.000107308
0.000116013
0.000123681
0.000127811
0.000131066
0.00013386
0.000138938
0.000149203
0.000158461
0.000162388
0.00016815
0.000176087
0.000182149
0.000188767
0.000194443
0.000204163
0.000212571
0.000224763
0.000232284
0.000241152
0.000246221
0.000248775
0.000275259
0.000312788
0.000263847
0.000263615
0.000236195
0.000249919
0.000287879
0.000306559
0.000326314
0.000345683
0.000358987
0.000372571
0.00034353
0.000329406
0.000339571
0.000351422
0.000362716
0.000367523
0.00036438
0.000355573
0.000360205
0.00036703
0.000360241
0.000348843
0.000340645
0.000345413
0.00035493
0.000358188
0.000355663
0.000341542
0.000321799
0.000391634
0.000418516
0.000389592
0.000402307
0.000441992
9.46901e-05
4.76405e-05
2.68954e-05
2.27256e-05
2.1936e-05
2.21332e-05
2.28968e-05
2.40386e-05
2.47719e-05
2.57288e-05
2.70102e-05
2.78081e-05
2.87246e-05
3.01016e-05
3.21021e-05
3.46148e-05
3.7872e-05
4.19792e-05
4.84131e-05
5.38245e-05
5.69862e-05
5.923e-05
5.69232e-05
5.33351e-05
5.08153e-05
4.6837e-05
4.4696e-05
4.28539e-05
4.10866e-05
4.01418e-05
3.91632e-05
3.85622e-05
3.8179e-05
3.77102e-05
3.72787e-05
3.69492e-05
3.68419e-05
3.67779e-05
3.67992e-05
3.68813e-05
3.69723e-05
3.71338e-05
3.73674e-05
3.76516e-05
3.80532e-05
3.84447e-05
3.87579e-05
3.90014e-05
3.91664e-05
3.92112e-05
3.92228e-05
3.92597e-05
3.91484e-05
3.89134e-05
3.91812e-05
3.97894e-05
4.17661e-05
4.70062e-05
5.03097e-05
5.14156e-05
5.16077e-05
5.13599e-05
5.17946e-05
5.27279e-05
5.51396e-05
5.94161e-05
6.33527e-05
6.60426e-05
6.81397e-05
6.9251e-05
6.95471e-05
6.9634e-05
6.90971e-05
6.60941e-05
6.4393e-05
6.24446e-05
6.13647e-05
6.21178e-05
6.37508e-05
6.76111e-05
7.56536e-05
8.94591e-05
9.81847e-05
0.000113288
0.00014435
0.000168254
0.000183809
0.000188837
0.000177894
0.00016108
0.000140322
0.000121143
0.000108071
9.73462e-05
9.16306e-05
8.97562e-05
8.87344e-05
8.70237e-05
8.57653e-05
8.61534e-05
8.9024e-05
9.3109e-05
9.47088e-05
9.5845e-05
0.000100434
0.000113073
0.000114951
0.00010675
0.000105027
0.000101168
0.000104451
0.00011885
0.000125134
0.000105955
0.000103411
9.73285e-05
9.70898e-05
0.000100525
0.000100525
9.84948e-05
9.80125e-05
9.86706e-05
9.89579e-05
0.000100534
0.000104375
0.000109762
0.000113281
0.000114637
0.00011657
0.000122109
0.00013012
0.00013344
0.000138504
0.00014396
0.000149199
0.000155262
0.000157591
0.000165215
0.000171877
0.000183198
0.000189988
0.000200755
0.000204328
0.000212902
0.000245641
0.00029332
0.000233739
0.00022077
0.000200792
0.000212605
0.000239265
0.000255887
0.000290178
0.000297029
0.000315399
0.000341427
0.000300213
0.000273543
0.000283173
0.000307809
0.000330675
0.00033956
0.000330494
0.000320324
0.000327358
0.000349473
0.000354945
0.000345667
0.000346649
0.000359833
0.000375542
0.000381841
0.000383471
0.000346013
0.000305628
0.000380628
0.00040422
0.000420467
0.000385597
0.000384975
0.00012118
5.97703e-05
3.02465e-05
2.30227e-05
2.20397e-05
2.24777e-05
2.35663e-05
2.49375e-05
2.58589e-05
2.61051e-05
2.69148e-05
2.79426e-05
2.90776e-05
3.11236e-05
3.41389e-05
3.90056e-05
4.50442e-05
5.01632e-05
5.31854e-05
5.46937e-05
5.4794e-05
5.01396e-05
4.56502e-05
4.28715e-05
4.04503e-05
3.83748e-05
3.72031e-05
3.6536e-05
3.60213e-05
3.58254e-05
3.58247e-05
3.58593e-05
3.59298e-05
3.58404e-05
3.57256e-05
3.56931e-05
3.58595e-05
3.61061e-05
3.64305e-05
3.68872e-05
3.74236e-05
3.7876e-05
3.83042e-05
3.86237e-05
3.88025e-05
3.88124e-05
3.8647e-05
3.85451e-05
3.84452e-05
3.84275e-05
3.84844e-05
3.82761e-05
3.75495e-05
3.69225e-05
3.67544e-05
3.6917e-05
3.7099e-05
3.83699e-05
3.98876e-05
4.08172e-05
4.19446e-05
4.47122e-05
4.78947e-05
5.18905e-05
5.71233e-05
6.11603e-05
6.35276e-05
6.43172e-05
6.47717e-05
6.47522e-05
6.3418e-05
6.33639e-05
6.34238e-05
6.15101e-05
6.0084e-05
5.93744e-05
5.93204e-05
6.01885e-05
6.27966e-05
7.0407e-05
7.71245e-05
8.30974e-05
9.55268e-05
0.000133428
0.000159526
0.000168896
0.000172598
0.000161836
0.000140969
0.000118793
9.94128e-05
8.85827e-05
8.21139e-05
7.93144e-05
7.86556e-05
8.00773e-05
8.26329e-05
8.27498e-05
8.2797e-05
8.37478e-05
8.74838e-05
9.18951e-05
9.32177e-05
9.41392e-05
0.000100362
0.000119666
0.000131371
0.000124182
0.000115014
9.67072e-05
9.19151e-05
0.000104314
0.000131852
0.000124043
0.00010811
9.29122e-05
9.05734e-05
9.34369e-05
9.24518e-05
9.25795e-05
9.57507e-05
9.67921e-05
9.63108e-05
9.71579e-05
9.88222e-05
0.000100765
0.000104147
0.000104854
0.000103601
0.000107457
0.000113362
0.000117466
0.000122924
0.000126381
0.000131006
0.000138698
0.000137733
0.000141041
0.000151691
0.000162948
0.000161859
0.000170628
0.000182735
0.000194455
0.000234777
0.000269105
0.000230947
0.000216957
0.000209933
0.000211489
0.000202681
0.000208778
0.0002586
0.000266816
0.000282237
0.000319822
0.000281811
0.000251357
0.000246109
0.000266492
0.00030058
0.000323769
0.000314341
0.00030061
0.000302566
0.000337521
0.000359831
0.000350463
0.000353281
0.000383581
0.000417397
0.00042497
0.000455657
0.000419773
0.000342618
0.000360736
0.000381333
0.000401741
0.00037942
0.000371192
0.000148199
7.42914e-05
3.64724e-05
2.41045e-05
2.26669e-05
2.42084e-05
2.6196e-05
2.67202e-05
2.64882e-05
2.67114e-05
2.77187e-05
3.02344e-05
3.28619e-05
3.6317e-05
4.10242e-05
4.69226e-05
5.00819e-05
5.14806e-05
5.2008e-05
5.00328e-05
4.4896e-05
4.07126e-05
3.8205e-05
3.62426e-05
3.51983e-05
3.45941e-05
3.43971e-05
3.45547e-05
3.52089e-05
3.57741e-05
3.62229e-05
3.65329e-05
3.68936e-05
3.73261e-05
3.7721e-05
3.80425e-05
3.83931e-05
3.88181e-05
3.92096e-05
3.96282e-05
4.01808e-05
4.0741e-05
4.14283e-05
4.20448e-05
4.23553e-05
4.19626e-05
4.08425e-05
3.9758e-05
3.89998e-05
3.84035e-05
3.83154e-05
3.84422e-05
3.84522e-05
3.7947e-05
3.73147e-05
3.65749e-05
3.58379e-05
3.57292e-05
3.60759e-05
3.65386e-05
3.71626e-05
3.81897e-05
4.02086e-05
4.41568e-05
4.99672e-05
5.38202e-05
5.55135e-05
5.62631e-05
5.6765e-05
5.75771e-05
5.86303e-05
6.04679e-05
6.19995e-05
6.21533e-05
6.26351e-05
6.29927e-05
6.41252e-05
6.56926e-05
6.76064e-05
7.40861e-05
7.95393e-05
8.55365e-05
0.000106911
0.000146251
0.000160302
0.000159634
0.000147392
0.000129979
0.000111391
9.06505e-05
8.03732e-05
7.6246e-05
7.47736e-05
7.42486e-05
7.5211e-05
7.77402e-05
7.80925e-05
7.66411e-05
7.41404e-05
7.3175e-05
7.38288e-05
7.66354e-05
7.85117e-05
8.33742e-05
9.58646e-05
0.000117414
0.000136992
0.000145447
0.000128827
9.21371e-05
8.54383e-05
8.52832e-05
0.000115006
0.000126108
0.000110787
9.34095e-05
8.65136e-05
9.08945e-05
9.28324e-05
8.94905e-05
9.41293e-05
9.88703e-05
9.66341e-05
9.20672e-05
9.37561e-05
9.47466e-05
9.70133e-05
0.000101376
0.000100649
9.94276e-05
0.000106581
0.000108424
0.0001127
0.00011649
0.000120456
0.00012629
0.000128848
0.000129911
0.000135954
0.000149989
0.000151624
0.000153877
0.000162909
0.000179172
0.000234636
0.000259402
0.000235789
0.000227927
0.000235796
0.000230619
0.000211947
0.000212482
0.000242606
0.000247982
0.000269556
0.000298159
0.000279243
0.000265575
0.000249095
0.000243752
0.00027072
0.000303746
0.000305289
0.000293104
0.000288176
0.000321907
0.000356296
0.000358674
0.000372442
0.000431442
0.000429595
0.000429514
0.000447723
0.0004941
0.000441603
0.000334525
0.000359649
0.000366905
0.00035315
0.000364499
0.000172363
8.69041e-05
4.26546e-05
2.75333e-05
2.53821e-05
2.73331e-05
2.81843e-05
2.7932e-05
2.83022e-05
2.97365e-05
3.1129e-05
3.40143e-05
3.83302e-05
4.26299e-05
4.56257e-05
4.83013e-05
4.96882e-05
4.92693e-05
4.58206e-05
4.07027e-05
3.76616e-05
3.56753e-05
3.40354e-05
3.3319e-05
3.31522e-05
3.32815e-05
3.38297e-05
3.46056e-05
3.54068e-05
3.60888e-05
3.66681e-05
3.72342e-05
3.79117e-05
3.87206e-05
3.9187e-05
3.94722e-05
3.95746e-05
3.97035e-05
3.98552e-05
4.00918e-05
4.04505e-05
4.10625e-05
4.22508e-05
4.32473e-05
4.40801e-05
4.45288e-05
4.44697e-05
4.32305e-05
4.11216e-05
3.88728e-05
3.73897e-05
3.66532e-05
3.67814e-05
3.744e-05
3.77208e-05
3.75119e-05
3.64586e-05
3.57182e-05
3.55073e-05
3.55953e-05
3.57927e-05
3.58108e-05
3.59719e-05
3.67457e-05
3.88383e-05
4.35857e-05
4.72339e-05
4.98084e-05
5.14976e-05
5.28803e-05
5.44402e-05
5.68366e-05
6.19737e-05
6.75085e-05
7.10797e-05
7.13838e-05
7.15849e-05
7.19726e-05
7.37014e-05
8.48642e-05
9.15946e-05
9.55963e-05
0.000121442
0.000150481
0.000152426
0.00013845
0.000120147
0.00010472
8.86326e-05
7.60761e-05
7.20852e-05
7.15594e-05
7.15824e-05
7.24123e-05
7.3294e-05
7.31905e-05
7.07846e-05
6.52135e-05
6.19864e-05
6.11926e-05
6.11114e-05
6.15332e-05
6.17662e-05
6.41607e-05
7.44788e-05
9.55222e-05
0.000114704
0.000119942
9.99957e-05
7.78361e-05
8.32271e-05
7.81847e-05
8.41729e-05
9.1023e-05
9.89958e-05
9.39395e-05
8.40914e-05
8.61904e-05
9.49708e-05
9.18043e-05
8.91105e-05
9.341e-05
9.48582e-05
8.8534e-05
8.72502e-05
8.94969e-05
9.11062e-05
9.55571e-05
9.89435e-05
9.73726e-05
0.000101042
0.00010666
0.000109737
0.000107409
0.000110292
0.000118075
0.000120316
0.000121248
0.00012887
0.000138416
0.000140977
0.000146831
0.000155582
0.000161933
0.000208943
0.000244708
0.000234638
0.000226044
0.000238053
0.00023171
0.000234121
0.000230985
0.000246387
0.000236044
0.000271689
0.000293915
0.000280271
0.000280475
0.000268059
0.000249907
0.000242722
0.000277908
0.000291578
0.000281299
0.000270446
0.00030874
0.000342553
0.00036576
0.000403087
0.0004017
0.000369534
0.000372947
0.000391589
0.00043515
0.000474682
0.00036151
0.000341247
0.000341612
0.000345075
0.00035397
0.000194401
9.18701e-05
4.27024e-05
2.80919e-05
2.74097e-05
2.79616e-05
2.77887e-05
2.76653e-05
2.92357e-05
3.208e-05
3.45908e-05
3.69485e-05
4.053e-05
4.41969e-05
4.61883e-05
4.68988e-05
4.62819e-05
4.26431e-05
3.82573e-05
3.56462e-05
3.40844e-05
3.25694e-05
3.19665e-05
3.17899e-05
3.19524e-05
3.239e-05
3.29426e-05
3.34939e-05
3.41315e-05
3.48776e-05
3.58048e-05
3.68708e-05
3.80498e-05
3.87858e-05
3.92044e-05
3.94446e-05
3.93225e-05
3.87832e-05
3.84603e-05
3.8459e-05
3.87279e-05
3.941e-05
4.10263e-05
4.2859e-05
4.42602e-05
4.52089e-05
4.5657e-05
4.56525e-05
4.498e-05
4.17294e-05
3.77157e-05
3.53529e-05
3.43533e-05
3.41269e-05
3.48546e-05
3.59933e-05
3.66711e-05
3.65387e-05
3.60386e-05
3.59254e-05
3.56685e-05
3.52078e-05
3.51096e-05
3.54831e-05
3.61112e-05
3.95423e-05
4.48733e-05
4.87368e-05
5.09329e-05
5.23278e-05
5.41549e-05
5.7836e-05
6.59948e-05
7.12078e-05
7.27102e-05
7.28116e-05
7.33598e-05
7.60929e-05
8.72185e-05
9.70049e-05
9.84268e-05
0.000104525
0.000133167
0.000146467
0.000137287
0.000113355
9.80559e-05
8.62297e-05
7.51035e-05
6.96999e-05
6.87002e-05
6.9077e-05
6.94709e-05
6.93507e-05
6.87989e-05
6.65645e-05
6.23049e-05
5.87729e-05
5.75486e-05
5.74648e-05
5.76429e-05
5.7792e-05
5.69331e-05
5.59112e-05
5.70113e-05
6.34699e-05
6.98878e-05
7.06464e-05
7.02531e-05
7.14021e-05
7.48828e-05
7.34266e-05
7.77254e-05
7.82686e-05
7.81996e-05
8.29746e-05
7.984e-05
8.04416e-05
9.33359e-05
9.74985e-05
9.16907e-05
8.87688e-05
9.10643e-05
8.82415e-05
8.45438e-05
8.5048e-05
8.67973e-05
8.92752e-05
9.33741e-05
9.26569e-05
9.40759e-05
0.000102261
0.000109382
0.000106884
0.0001043
0.000115552
0.000122116
0.00011764
0.00012398
0.000140677
0.000142963
0.000142258
0.000153609
0.000169193
0.000188722
0.000216599
0.00021716
0.000207717
0.000222959
0.00021451
0.000243747
0.000251103
0.000253183
0.000234508
0.000272637
0.00029942
0.000281938
0.000277546
0.000270681
0.000259872
0.000230322
0.000246726
0.000269495
0.000271518
0.000254453
0.00029169
0.000340416
0.00037634
0.00043001
0.000369916
0.000325952
0.000334169
0.000334785
0.000306713
0.000438046
0.000406123
0.000351275
0.000344544
0.00034222
0.000342241
0.000217419
9.51855e-05
4.12496e-05
2.77339e-05
2.73177e-05
2.74709e-05
2.74527e-05
2.82089e-05
3.06878e-05
3.36705e-05
3.65719e-05
3.94371e-05
4.17884e-05
4.36651e-05
4.44672e-05
4.36979e-05
4.13469e-05
3.76628e-05
3.45609e-05
3.31245e-05
3.19484e-05
3.1073e-05
3.08282e-05
3.08784e-05
3.12078e-05
3.17012e-05
3.23171e-05
3.28336e-05
3.3295e-05
3.41305e-05
3.5422e-05
3.69605e-05
3.85063e-05
3.93764e-05
3.98168e-05
4.00238e-05
3.99093e-05
3.89918e-05
3.82953e-05
3.8282e-05
3.85713e-05
3.92261e-05
4.07742e-05
4.22196e-05
4.33706e-05
4.48424e-05
4.60712e-05
4.66506e-05
4.66013e-05
4.57379e-05
4.17184e-05
3.75349e-05
3.50266e-05
3.36311e-05
3.31622e-05
3.3162e-05
3.38294e-05
3.50142e-05
3.57281e-05
3.60265e-05
3.59266e-05
3.5338e-05
3.5096e-05
3.54155e-05
3.57377e-05
3.81097e-05
4.42519e-05
4.88116e-05
5.19083e-05
5.35793e-05
5.49896e-05
5.78594e-05
6.43103e-05
6.92634e-05
7.12466e-05
7.28297e-05
7.63481e-05
8.55747e-05
9.39157e-05
9.52288e-05
9.61771e-05
0.000110386
0.000133603
0.000134514
0.0001153
9.31929e-05
8.16178e-05
7.39997e-05
6.89402e-05
6.74452e-05
6.78166e-05
6.77954e-05
6.6408e-05
6.42006e-05
6.30472e-05
6.11542e-05
5.82068e-05
5.62318e-05
5.54377e-05
5.51924e-05
5.53223e-05
5.57161e-05
5.51538e-05
5.31995e-05
5.25191e-05
5.42282e-05
5.69737e-05
6.06909e-05
6.36938e-05
6.32583e-05
6.35373e-05
6.49681e-05
7.08857e-05
7.58236e-05
7.57386e-05
7.55607e-05
7.81575e-05
7.89264e-05
8.40421e-05
9.82316e-05
9.19976e-05
8.43104e-05
8.65985e-05
8.67899e-05
8.63957e-05
8.4775e-05
8.75512e-05
8.70424e-05
9.01129e-05
8.89095e-05
8.89586e-05
9.63831e-05
0.000102452
0.000105319
0.000107679
0.000113853
0.000121386
0.000121942
0.000121141
0.000141669
0.000142147
0.000147321
0.000142416
0.000170308
0.000193389
0.000206379
0.000203811
0.000191052
0.000204225
0.000195269
0.000226046
0.000250621
0.000248001
0.00024028
0.000256755
0.000289093
0.000286655
0.000272757
0.000258649
0.000254147
0.000223846
0.000218073
0.000241347
0.000247647
0.000235741
0.000261613
0.000331474
0.000378692
0.000433072
0.000360837
0.000343098
0.000363865
0.000344352
0.000283679
0.000376513
0.000405245
0.000361686
0.000348521
0.000336492
0.000337626
0.000240486
0.00010144
4.15178e-05
2.71119e-05
2.66659e-05
2.62645e-05
2.67285e-05
2.86412e-05
3.11222e-05
3.40692e-05
3.68629e-05
4.00076e-05
4.2101e-05
4.30057e-05
4.2731e-05
4.06757e-05
3.73058e-05
3.41265e-05
3.24041e-05
3.15676e-05
3.04872e-05
3.00559e-05
3.00331e-05
3.02723e-05
3.08454e-05
3.16011e-05
3.22329e-05
3.26756e-05
3.30072e-05
3.35283e-05
3.4645e-05
3.61056e-05
3.75534e-05
3.84011e-05
3.88868e-05
3.91876e-05
3.92433e-05
3.86913e-05
3.80226e-05
3.80724e-05
3.85015e-05
3.96474e-05
4.16557e-05
4.25914e-05
4.29915e-05
4.37261e-05
4.54394e-05
4.67149e-05
4.70235e-05
4.68466e-05
4.42881e-05
3.9446e-05
3.64965e-05
3.48445e-05
3.35693e-05
3.30179e-05
3.30199e-05
3.32981e-05
3.41983e-05
3.47596e-05
3.50087e-05
3.48312e-05
3.44525e-05
3.46262e-05
3.52303e-05
3.61445e-05
4.18444e-05
4.73563e-05
5.12408e-05
5.32256e-05
5.46041e-05
5.72438e-05
6.40816e-05
6.97609e-05
7.26458e-05
7.57842e-05
8.18581e-05
8.80136e-05
9.00681e-05
9.16478e-05
9.8247e-05
0.000117386
0.000127081
0.000120563
9.4967e-05
7.87248e-05
7.08805e-05
6.69816e-05
6.53584e-05
6.5568e-05
6.6545e-05
6.54937e-05
6.13028e-05
5.8974e-05
5.83107e-05
5.72191e-05
5.59108e-05
5.49028e-05
5.42871e-05
5.41986e-05
5.48751e-05
5.57557e-05
5.53318e-05
5.27246e-05
5.10246e-05
5.00239e-05
5.13186e-05
5.39204e-05
5.3368e-05
5.57586e-05
5.87236e-05
6.44467e-05
6.65107e-05
7.13011e-05
7.48692e-05
7.55416e-05
7.74713e-05
7.91121e-05
8.13849e-05
9.15448e-05
8.86686e-05
8.20663e-05
8.42876e-05
8.66112e-05
8.6721e-05
8.32997e-05
8.56885e-05
8.61777e-05
8.84332e-05
8.74366e-05
8.74231e-05
9.45674e-05
9.71543e-05
9.91466e-05
0.000107055
0.000111973
0.000113968
0.000120483
0.000117542
0.000136132
0.000126789
0.000149528
0.000138018
0.000153933
0.00018676
0.000204443
0.000201691
0.000184659
0.000191569
0.000178223
0.000202987
0.000215695
0.000224292
0.000232518
0.000233119
0.000256524
0.000275583
0.000268794
0.000253973
0.000252906
0.000223036
0.00020774
0.000214857
0.00022183
0.000212787
0.000234372
0.000317679
0.000378357
0.000421295
0.000343128
0.000329303
0.0003525
0.000340776
0.000275482
0.00029288
0.000360452
0.00033447
0.000326798
0.000314012
0.000317337
0.000263119
0.00011163
4.38756e-05
2.70435e-05
2.58925e-05
2.60765e-05
2.64451e-05
2.86181e-05
3.12156e-05
3.39492e-05
3.66155e-05
3.9927e-05
4.16644e-05
4.18733e-05
4.1005e-05
3.85168e-05
3.49182e-05
3.27097e-05
3.17224e-05
3.10528e-05
3.01533e-05
2.95226e-05
2.93924e-05
2.96298e-05
3.00913e-05
3.09401e-05
3.17808e-05
3.2367e-05
3.28967e-05
3.35171e-05
3.48855e-05
3.65896e-05
3.78409e-05
3.85719e-05
3.8847e-05
3.87981e-05
3.8857e-05
3.92683e-05
3.95789e-05
3.9547e-05
3.96716e-05
4.06589e-05
4.26247e-05
4.33463e-05
4.32987e-05
4.34358e-05
4.46861e-05
4.65996e-05
4.71799e-05
4.70764e-05
4.59131e-05
4.18835e-05
3.78203e-05
3.53322e-05
3.4179e-05
3.32662e-05
3.28511e-05
3.28905e-05
3.26818e-05
3.26291e-05
3.29099e-05
3.32428e-05
3.3242e-05
3.30533e-05
3.36289e-05
3.46701e-05
3.74651e-05
4.45738e-05
4.88043e-05
5.15795e-05
5.43289e-05
6.02005e-05
6.85407e-05
7.37768e-05
7.71852e-05
7.96321e-05
8.34159e-05
8.57536e-05
8.77588e-05
9.21493e-05
0.000104142
0.000116831
0.00011742
0.000104232
8.11727e-05
6.95379e-05
6.47413e-05
6.30391e-05
6.27316e-05
6.4616e-05
6.58019e-05
6.3919e-05
5.76609e-05
5.52447e-05
5.43286e-05
5.35758e-05
5.29888e-05
5.23853e-05
5.19876e-05
5.21755e-05
5.37154e-05
5.49285e-05
5.47391e-05
5.38612e-05
5.15983e-05
4.9472e-05
4.98036e-05
4.96055e-05
4.99216e-05
5.28025e-05
5.32955e-05
6.13645e-05