/*--------------------------------*- C++ -*----------------------------------*\
| =========                 |                                                 |
| \\      /  F ield         | OpenFOAM: The Open Source CFD Toolbox           |
|  \\    /   O peration     | Version:  dev                                   |
|   \\  /    A nd           | Web:      http://www.openfoam.org               |
|    \\/     M anipulation  |                                                 |
\*---------------------------------------------------------------------------*/
FoamFile
{
    version     2.0;
    format      ascii;
    class       volScalarField;
    object      p;
    location    "9.153";
}
// * * * * * * * * * * * * * * * * * * * * * * * * * * * * * * * * * * * * * //

dimensions      [1 -1 -2 0 0 0 0];

internalField   nonuniform List<scalar> 
12225
(
104566
104497
104381
104224
104022
103786
103510
103210
102874
102524
102134
101744
101316
100894
100421
99931
99379.1
98493.3
104554
104489
104374
104217
104015
103780
103503
103205
102868
102520
102128
101740
101311
100888
100417
99920.2
99407.3
98570
104535
104471
104357
104201
103999
103764
103487
103191
102852
102509
102115
101730
101303
100878
100416
99929
99390.8
98632.1
104503
104442
104328
104172
103971
103736
103461
103163
102826
102490
102093
101711
101289
100867
100415
99941.2
99406.7
98735.1
104457
104396
104283
104127
103927
103693
103420
103122
102790
102453
102059
101681
101266
100849
100406
99949
99463.8
98941.3
104391
104331
104219
104063
103864
103630
103360
103063
102736
102399
102010
101634
101230
100822
100395
99964.7
99519.8
99088.4
104298
104240
104128
103973
103775
103543
103276
102981
102659
102320
101948
101570
101180
100779
100376
99978.9
99559.8
99163.2
104196
104137
104026
103871
103675
103444
103180
102888
102571
102231
101876
101498
101121
100728
100341
99956.5
99571
99199.4
104085
104025
103914
103761
103567
103338
103076
102787
102475
102136
101795
101420
101053
100670
100297
99924.5
99562
99213.7
103937
103876
103767
103615
103423
103196
102938
102653
102348
102012
101682
101317
100959
100588
100230
99872.7
99531.9
99205.1
103738
103679
103572
103422
103233
103009
102755
102476
102178
101849
101529
101176
100829
100475
100132
99793.1
99471.8
99166.5
103476
103419
103315
103168
102983
102763
102514
102242
101951
101634
101323
100986
100651
100316
99990
99672.7
99371.6
99087.7
103129
103078
102978
102834
102654
102440
102198
101934
101652
101351
101047
100729
100412
100097
99791.6
99496.8
99217.4
98955.7
102682
102634
102539
102401
102226
102020
101787
101533
101263
100978
100687
100388
100092
99800.2
99517.6
99246.9
98991.3
98752.9
102101
102064
101976
101845
101678
101480
101259
101017
100760
100492
100219
99942.9
99669.9
99403.1
99146
98901.6
98671.9
98458.5
101379
101347
101266
101144
100986
100800
100591
100364
100124
99875.3
99623
99371.2
99123.7
98884
98654.9
98438.6
98236.7
98050.3
100501
100474
100400
100286
100139
99965.3
99770.6
99560.3
99339.4
99112.1
98883.3
98657
98436.5
98225.4
98025.6
97838.6
97665.8
97508
99554.3
99527.3
99456.5
99348.9
99211
99048.9
98868.3
98674.4
98472.2
98266
98060.1
97858.8
97664
97479.6
97307.3
97148.2
97003.1
96872.5
98696.1
98666.1
98595.5
98491.8
98360.5
98207.4
98037.9
97857.2
97670.1
97481.1
97294.1
97112.8
96940
96777.4
96627.3
96490.5
96367.8
96259.4
97989.7
97954.3
97884.5
97783.8
97657.4
97510.7
97349.2
97178
97002
96825.7
96652.8
96486.8
96330.4
96185.3
96052.7
95933.3
95827.4
95735.5
97407.1
97381.8
97315.2
97216.8
97093.5
96951.2
96795.1
96630.7
96462.7
96295.6
96133
95978.2
95833.6
95701.3
95582
95476.2
95384.2
95305.6
96963.4
96937.1
96871.6
96774.6
96652.9
96513.1
96360.6
96200.7
96038.3
95877.7
95722.5
95575.8
95439.9
95316.6
95207.3
95111.4
95029.5
94961.2
96630.3
96599.4
96534
96437.4
96316.7
96178.1
96027.8
95871
95712.4
95556.4
95406.4
95265.6
95135.9
95019.3
94916.6
94827.8
94753.3
94692.2
96374.3
96348.1
96282.9
96186.4
96066
95928.1
95779.1
95624.1
95468
95315.1
95168.7
95032
94906.9
94795.1
94697.5
94613
94543.8
94487.9
96197.5
96167.1
96100.7
96003.9
95883.6
95746.2
95597.9
95444
95289.5
95138.6
94994.8
94860.9
94738.9
94630.3
94535.9
94455.6
94390
94337.6
96070.8
96040.3
95972.7
95875.2
95755.1
95617.9
95470
95316.9
95163.3
95013.8
94871.7
94739.6
94619.7
94513.4
94421.4
94343.9
94280.5
94230.6
95985.8
95954.7
95886.1
95787.8
95668.2
95531
95383.4
95230.8
95077.9
94929.2
94788.2
94657.3
94538.7
94433.9
94343.6
94267.7
94206
94157.8
95931
95900.2
95831.3
95734
95613.5
95475.9
95328.5
95176.1
95023.7
94875.6
94735.3
94604.8
94487.3
94383.4
94294
94219.1
94158.5
94111.5
95902
95869.6
95799.7
95701.7
95580.6
95444.6
95297.6
95145.4
94993.1
94845.2
94705.1
94575.2
94458.1
94354.8
94265.9
94191.6
94131.6
94085.3
95892.9
95857
95786.6
95688.3
95566.9
95431
95284.1
95132.1
94980
94832.2
94692.2
94562.6
94445.6
94342.5
94253.8
94179.8
94120.2
94074.4
87250.7
87250.7
87250.8
87251.1
87251.8
87252.8
87254.2
87256.3
87259
87262.7
87267.5
87273.6
87281.2
87290.6
87302
87315.8
87332.1
87351.4
87373.9
87400
87430
87464.3
87503.2
87547.2
87596.5
87651.8
87713.4
87781.8
87857.4
87940.7
88032.1
88132.2
88241.4
88360.2
88489.1
88628
88777.8
88938.4
89110.1
89293.2
89487.9
89694.3
89912.7
90143.1
90385.6
90640.1
90906.3
91183.8
91472.2
91771.5
92081.1
92400.6
92729.3
93066.4
93411.5
93763.8
94122.1
94484.7
94850.1
95217.3
95585
95951.7
96315.9
96675.5
97028.8
97373.5
97707.1
98027.4
98332.5
98620.3
98889.6
99139
99367
99572.5
99754.8
99911.1
100040
100142
100215
100259
100273
100256
100211
100141
100044
99918.7
99764.3
99584
99379.4
99153.3
98910.6
98650.1
98370.8
98073
97760.3
97437.7
97092.5
96758.1
96420.6
96084.5
95749.6
95421
95101.5
94792.7
94492.2
94197.7
93912.2
93642.8
93398.2
93169
92930.7
92689.3
92453.1
92231.3
92017.9
91818.3
91621.8
91421.5
91220.6
91022.4
90829
90639.3
90450.5
90260.9
90069.6
89876.8
89682.4
89487
89290.9
89095.5
88902.9
88715.6
88536.3
88365.8
88206.4
88058.5
87923.1
87798.6
87685.6
87582.3
87491.5
87412.6
87349.4
87306.6
87288.9
87305.4
87364.1
87440.7
87542.5
87654.9
87755.2
87843.8
87890.5
87924.3
87958.2
87988.7
88025
88049.4
88049.6
88021.3
87961.6
87861.2
87716.1
87529.6
87293.3
87005.6
86698.6
86420.6
86210.1
86092.7
86081.5
86177.6
86361.9
86611.2
86873.3
87146.8
87504.9
87945.7
88492.3
89098.9
87307
87306.8
87306.8
87307
87307.4
87308.3
87309.5
87311.4
87313.9
87317.4
87321.9
87327.7
87335.1
87344.2
87355.5
87369.1
87385.2
87404.3
87426.6
87452.4
87482.1
87516
87554.5
87598.2
87647.4
87702.5
87763.7
87831.6
87906.6
87989.1
88079.7
88179.3
88287.6
88405.5
88534.8
88673.2
88821.6
88981
89151.8
89334.2
89528.3
89733.9
89951.2
90180.6
90421.9
90675.2
90940.2
91216.6
91504
91801.9
92110.2
92428.7
92756.4
93092.1
93435.5
93786.2
94143.1
94504.8
94869.3
95235.2
95601.6
95966.9
96329.5
96687.9
97040.2
97384
97716.8
98036.3
98340.5
98627.2
98895.1
99143.7
99370.3
99574.1
99755.9
99912
100040
100142
100215
100257
100269
100255
100211
100140
100044
99919.4
99764
99584.3
99383.9
99161.3
98915.9
98652.3
98370.1
98070.5
97757.9
97434.2
97099.5
96763.5
96426.5
96090
95758.2
95431.3
95112.8
94805.1
94506.2
94213.6
93928
93654.6
93407.9
93180.7
92946.1
92713
92476.8
92256.8
92042.9
91844.7
91651.7
91453.4
91253.5
91056.5
90865
90678
90491.7
90304.7
90115.7
89925.3
89733.7
89541.8
89349.5
89157.4
88967.9
88784.4
88609
88443.2
88288.6
88145
88014.5
87894.5
87785.6
87686
87599.2
87522.7
87461.1
87420.5
87402.9
87421.3
87489.3
87566.5
87674.5
87791
87897.2
87992.3
88030
88059.9
88090.4
88118.3
88161
88187.6
88185.9
88157.5
88098.4
87996.8
87850.9
87665.4
87431
87138.4
86820.8
86532.5
86314.7
86195.6
86188.3
86286.7
86474
86723.1
86974.7
87233.7
87582.7
88013
88549.4
89153.1
87418.8
87418.6
87418.4
87418.3
87418.5
87419
87419.9
87421.4
87423.6
87426.8
87431.1
87436.7
87443.8
87452.7
87463.5
87476.6
87492.2
87510.6
87532.2
87557.3
87586.5
87620.1
87658.4
87701.8
87750.2
87804.2
87864.3
87931
88004.7
88086.1
88175.4
88273.4
88380.4
88497
88623.5
88760
88907
89064.9
89233.8
89414.7
89608.3
89811.8
90027
90254.3
90493.6
90744.7
91007.5
91281.6
91566.6
91862.1
92167.9
92483.6
92808.7
93142.2
93483.3
93831.3
94184.8
94543.3
94905.7
95269.9
95634.4
95997.5
96357.7
96713.4
97062.9
97404.1
97734.5
98051.9
98354.5
98639.5
98905.4
99152.1
99376.8
99578.1
99758.6
99913.7
100039
100140
100213
100257
100272
100256
100212
100141
100044
99919.3
99767.8
99589
99386.6
99163
98918.8
98656.1
98366.2
98069.8
97759.1
97437.8
97107.9
96774.2
96440.8
96108.7
95779.6
95454.8
95137.7
94830.5
94531.9
94241.3
93959.1
93682.2
93428.9
93204.6
92979.2
92754.9
92524.7
92309.4
92093.4
91896.3
91707
91513.8
91317.9
91124.1
90936.2
90753.9
90573.1
90392.1
90208.2
90022.4
89836.1
89650.9
89467.1
89283.5
89101.4
88925.9
88758.6
88601.6
88457.1
88322.6
88202.7
88092.7
87993.4
87903.2
87825.2
87754.5
87697.9
87659.5
87641.9
87662.5
87736
87816.9
87926.7
88050.7
88173.8
88287.1
88318.2
88346.3
88369.8
88393.7
88444.5
88476.2
88477.2
88450.5
88393.3
88288.8
88141.3
87957.4
87727.7
87427.8
87090.8
86779.5
86546.9
86429
86430.6
86530.7
86718.1
86956.1
87179
87421.5
87748.4
88147.1
88659.1
89259.2
87586.2
87585.7
87585.3
87584.8
87584.5
87584.6
87585.2
87586.4
87588.3
87591.1
87595.2
87600.3
87606.7
87614.7
87624.5
87636.5
87651.1
87668.7
87689.7
87714.4
87743.1
87775.9
87813.1
87854.9
87901.8
87954.1
88012.4
88077.1
88148.9
88228.1
88315.3
88411.1
88516
88629.7
88753.7
88887.9
89032.6
89188
89354.5
89532.4
89722.5
89925
90137.5
90362
90598.4
90846.5
91106.2
91377.2
91659.1
91951.5
92253.9
92566
92887.1
93216.3
93553.3
93897.4
94247.3
94601.7
94960.1
95320.6
95681.2
96040.6
96397.5
96750
97096.3
97434.1
97760.9
98074.4
98373
98655
98918.6
99163
99386.4
99585.8
99763.1
99916
100040
100138
100211
100254
100268
100253
100213
100145
100048
99921.6
99769.2
99591.8
99389.9
99165.1
98920.9
98655.1
98371.4
98075.9
97767.6
97449.4
97123.7
96794.5
96465.3
96137.1
95811.5
95491
95177.7
94872.5
94575.5
94288.2
94010.7
93737.2
93476.8
93254.8
93036.5
92818
92603.1
92390
92172.1
91974.6
91787.2
91599.9
91411.4
91225
91044.2
90868
90692.5
90519.6
90345.5
90169.1
89990.5
89813.5
89641.1
89470.8
89300.3
89138.1
88984.3
88840.9
88710.4
88588.3
88484.8
88391.9
88305.6
88227.8
88168.9
88111.6
88061.7
88027.2
88011.9
88025
88088
88171.2
88270.3
88406.6
88547.1
88678.8
88736.7
88781.9
88801.6
88815.8
88861.2
88892
88904.4
88898.5
88855.7
88744
88587.8
88402.3
88181.5
87874.9
87511.2
87169.8
86919.8
86806.6
86816.2
86912.6
87095.5
87301.5
87471
87706.4
88002.4
88357.2
88830.4
89415.3
87807.2
87806.7
87806
87805.3
87804.7
87804.3
87804.4
87805.3
87806.7
87808.7
87811.4
87815.2
87820.3
87827.1
87835.9
87847.2
87861.1
87878
87898.3
87922.1
87949.6
87980.7
88015.6
88055
88099.3
88149.1
88204.9
88267.1
88336.3
88412.9
88497.5
88590.3
88691.8
88803.2
88924.1
89055.1
89196.6
89348.6
89511.7
89686
89872.7
90071.8
90281.1
90502.2
90735.1
90979.6
91235.5
91502.5
91780.4
92068.5
92366.6
92674.4
92990.8
93315.1
93646.9
93985.6
94329.8
94678.6
95031.2
95386.2
95742.1
96097.1
96449.5
96797.4
97138.9
97471.7
97792.9
98100.9
98394.7
98673
98933.9
99176.3
99397.7
99595
99769.1
99919.1
100042
100137
100208
100251
100265
100249
100212
100145
100047
99921.4
99769.9
99592.7
99391.3
99166.9
98924.6
98660.1
98379.7
98087.5
97782.9
97468.9
97147.9
96823.7
96498.4
96173.6
95852.4
95537.5
95229.4
94928.3
94636.5
94355.6
94085.5
93821.6
93561.7
93335.3
93119.3
92907.8
92707
92494.7
92282.5
92083.4
91897.9
91715.6
91534.8
91359.1
91188.8
91021.4
90853.5
90689.8
90526.8
90363.4
90198.3
90031.4
89871.2
89719.1
89564.2
89416.7
89282.4
89159.4
89049.1
88943
88855.5
88786.8
88724.3
88657.7
88617.3
88585.4
88553.8
88527.2
88513.4
88519.6
88559.3
88639.1
88722
88863
89006.1
89149.7
89271.9
89360.8
89382.9
89389.8
89409.4
89423.2
89441.2
89466.6
89469.3
89365.4
89189.8
88991.6
88779.6
88477.2
88086.8
87708.3
87437.3
87334.3
87345
87429.6
87614.3
87794.5
87859.6
88083.6
88348.5
88671
89089.9
89632.6
88080.4
88080
88079.2
88078.4
88077.8
88077.2
88076.9
88076.8
88076.8
88076.9
88077.9
88080.1
88084
88089.9
88097.9
88108.4
88121.6
88137.6
88156.4
88178
88202.6
88230.5
88262.3
88298.7
88340.2
88387.2
88440.3
88499.8
88566.2
88640
88721.9
88812.1
88910.2
89017.6
89134.7
89261.8
89399.1
89547.1
89705.8
89875.5
90056.6
90253.4
90457.8
90674.3
90902.8
91142.9
91394.3
91656.6
91929.4
92212.5
92505.3
92807.3
93118.1
93436.7
93762.6
94094.8
94432.2
94774
95119.8
95468.4
95818.2
96167.3
96513.3
96854.6
97189.2
97515.1
97829.7
98131.3
98419.7
98694
98952.3
99192.3
99411
99605.9
99776.8
99922.6
100042
100136
100204
100246
100262
100250
100211
100143
100046
99920
99768.8
99592.6
99392.6
99170.8
98931
98672.6
98392.3
98104.8
97805.3
97495.9
97179
96858.7
96537.6
96218
95903
95593.9
95290.7
94994.9
94710.9
94439.5
94180
93926
93677
93441.8
93228.3
93022.9
92829.7
92624.2
92420
92224.3
92042
91866.9
91693.6
91526.7
91368.1
91212.1
91053.3
90902
90754.1
90605.4
90458.6
90308.7
90159.8
90026.1
89895.7
89763.9
89648.1
89551.9
89468.2
89384.3
89315.1
89270.3
89239.1
89195.4
89172.7
89161.7
89160.8
89156.6
89155.3
89158.7
89184.9
89264.3
89339.5
89471
89591.2
89746.9
89940.5
90082.4
90117.6
90124.7
90111.4
90097.4
90104.9
90139.2
90190.8
90134.9
89955.6
89734.4
89521.6
89226
88815
88396.6
88103.7
88015.6
87988.2
88029
88189.3
88449.6
88374.4
88531
88770.7
89063.3
89424.9
89912.1
88406.1
88404.9
88403.4
88402.2
88401.1
88400.1
88399
88397.3
88395.4
88394
88393.6
88394.8
88397.7
88402.4
88409.4
88418.6
88430
88443.6
88459.2
88477.2
88498.1
88522.7
88551.5
88585.2
88624
88668.2
88718.3
88774.5
88837.5
88908
88986.4
89073.1
89167
89270.1
89383
89505.7
89638.5
89781.6
89935.2
90099.8
90276
90464.9
90665.3
90877.2
91100.7
91335.8
91581.9
91838.5
92105.4
92382.2
92668.6
92964
93268
93580.1
93899.3
94224.5
94554.5
94888.6
95226.6
95567.6
95909.8
96250.9
96588.7
96921.6
97247.6
97565.3
97872.5
98167.5
98450.7
98720.9
98975.9
99212.7
99427.7
99618.5
99785.3
99927
100042
100132
100197
100237
100252
100241
100204
100137
100041
99916.9
99767.2
99593.2
99396.2
99178.1
98941.6
98688
98412.6
98129.3
97835.5
97531
97218.6
96903.4
96588.2
96274.9
95965.8
95662.1
95364.8
95076.3
94801.3
94538.8
94287
94041.7
93802.5
93570.9
93363.9
93162.3
92971.6
92775.8
92583.6
92397.3
92219.5
92053
91892.3
91732.1
91581.9
91439.9
91294.6
91156.3
91024.9
90895.4
90767.4
90643.2
90512.5
90396.4
90294.9
90186.2
90087.4
90014.5
89960.8
89907.3
89861.4
89841.4
89843.5
89827.1
89833.5
89844.6
89877.4
89891.5
89917.1
89946.8
89978.4
90071.8
90150
90276.6
90363.9
90528.9
90770.5
90939.8
91031.2
91046.6
90988.9
90942.8
90938.5
90951.1
91016.1
91022.4
90873.8
90634.5
90409.9
90119.5
89682.6
89228.4
88908.4
88796.5
88672.9
88632.5
88766
89102.7
89016.2
89050.4
89248.6
89498.1
89821.4
90255
88781.3
88779.1
88777.2
88775.5
88773.4
88771.1
88768.4
88765.1
88761.9
88759.6
88758.2
88758.1
88759.8
88762.8
88767.5
88774
88782.2
88791.9
88803.6
88817.8
88835.3
88856.9
88882.9
88913.5
88949
88989.5
89035.5
89087.3
89145.7
89211.2
89284.4
89365.1
89455.7
89555.6
89664.4
89782.7
89910.6
90048.7
90197.1
90356.3
90526.7
90709.2
90903.3
91109.3
91327.4
91556.7
91796.8
92047.1
92307.3
92577.1
92856.2
93144
93440.3
93744.4
94055.5
94372.8
94695.1
95021.4
95350.6
95682.4
96015.5
96347.2
96675.5
96999.4
97316.6
97625.7
97925
98213.2
98490.3
98755.5
99005.6
99236.6
99446.1
99632.1
99793.1
99928.7
100040
100126
100189
100228
100243
100234
100197
100130
100035
99913.6
99766.8
99596.1
99403.2
99189.7
98957.4
98708.9
98438.5
98160.8
97872.4
97574.6
97267.1
96958.6
96650.9
96345.5
96044.7
95749.9
95461.7
95180.9
94912.2
94656.2
94410.3
94172.6
93941.6
93722
93521.5
93327.4
93142.8
92955.1
92772.7
92598.5
92430.1
92271.7
92128.2
91983.2
91841
91711.9
91583.9
91460.1
91341.6
91234.3
91124.5
91027.9
90923.9
90832.6
90759
90678.3
90612.1
90557
90523.4
90514.5
90504.1
90500
90541.1
90560.3
90613.2
90631.8
90713.9
90751.2
90777.4
90845.6
90914.9
91032.4
91131.9
91278.6
91351.5
91501.3
91766.8
91929.8
92104.9
92174.6
92056.7
91963.6
91950.1
91946.5
91989.3
92026.7
91923.5
91684.6
91432.7
91153
90694.2
90201.2
89835.2
89633.2
89417.3
89307.9
89432.7
89715.4
89754.8
89678.3
89800
89996.8
90285.8
90664.6
89201.2
89198.8
89196.5
89194
89190.8
89187.3
89183
89178.4
89174.2
89170.6
89167.7
89165.8
89165.3
89165.8
89167.6
89170.5
89174.6
89180.1
89187.7
89198.2
89212.4
89230.7
89253.1
89279.8
89311.2
89347.4
89388.9
89436
89489.4
89549.7
89617.7
89695.1
89782.1
89877.4
89981.6
90095
90218
90350.7
90493.3
90646.3
90810.2
90985.2
91171.7
91370.3
91581.6
91804.2
92037.3
92280.5
92533.2
92795.2
93066.4
93345.9
93633.5
93928.9
94231.1
94539.2
94852.4
95169.4
95489.3
95811.4
96134.4
96455.7
96774.2
97088.9
97396.8
97696.7
97987.6
98268.2
98538.2
98796.2
99038.7
99262.5
99465.1
99644.9
99799.7
99930.2
100038
100123
100184
100222
100237
100228
100191
100125
100031
99912.2
99768.8
99601.9
99413.6
99205.4
98978.1
98734.5
98472.8
98198.8
97914.3
97618.9
97322.6
97023.8
96725.3
96430.3
96139.8
95855.6
95578.5
95307.6
95046.7
94798.9
94561.1
94330.9
94108
93898.5
93705
93518.7
93344.5
93166.1
92993.4
92829.8
92675.2
92527.8
92399.2
92276
92146.3
92031.2
91923.1
91819.4
91714.3
91627.1
91539.6
91464.4
91390.8
91328.8
91280.4
91231.1
91210.2
91187
91168.6
91201.9
91243.6
91254.6
91324.1
91393
91507.9
91521.5
91632.9
91748
91798.6
91872.3
91977.9
92117.8
92256.2
92452.3
92542.3
92664.8
92908.8
93073.5
93287
93436.7
93305
93165
93132.8
93122.1
93135.4
93152
93080.1
92854.4
92582
92304.3
91838.5
91311
90893.6
90593.1
90343.4
90244.2
90319.5
90447.2
90521.6
90401.8
90471.8
90600.7
90834.5
91133.7
89663.2
89660.4
89657.5
89653.9
89649.7
89645.1
89639.8
89633.9
89628.1
89622.6
89617.7
89613.5
89610
89607.2
89605.2
89604
89604
89605.4
89609.2
89616.2
89626.8
89641.1
89659.5
89682
89709.2
89741.2
89778.6
89821.8
89871.3
89927.7
89991.7
90064.7
90145.6
90235.2
90333.9
90441.6
90558.7
90685.3
90821.6
90967.9
91124.4
91291.3
91469.1
91658.9
91861.6
92076.4
92301.9
92537.2
92781.7
93035.1
93297.5
93567.9
93846.2
94132
94424.4
94722.5
95025.5
95332.3
95642
95953.4
96265.3
96576
96884.2
97188.5
97486.2
97776.2
98058.3
98330.3
98591.4
98840.3
99073.9
99289.5
99485.2
99659.3
99809.7
99936.7
100042
100124
100185
100222
100235
100224
100186
100121
100030
99913.4
99773.5
99611
99428.1
99225.7
99004.5
98766.9
98516.8
98245.5
97968.3
97682
97393.7
97104.5
96816.8
96532.8
96253.3
95979.7
95714.6
95456.2
95204.9
94965.2
94736.2
94514.5
94300.1
94099
93917
93741.2
93571.8
93405.1
93249
93097.3
92956.3
92827.8
92713.5
92607.6
92495
92395.4
92308
92228.4
92142.9
92074.7
92018.1
91959.6
91917.2
91886.4
91863.7
91850
91869
91888.8
91904.8
91963.4
92048.9
92104.4
92189.9
92300.1
92449.7
92516
92614
92796.1
92950.5
93058.4
93187.3
93331.7
93496.2
93738.9
93879.2
93994.3
94179.7
94364.1
94564.7
94753.1
94662.9
94529.9
94477.1
94464.9
94448.3
94406.9
94331.4
94111.1
93831.3
93566.2
93098.2
92540.2
92090.5
91716.6
91453.9
91365.2
91363.2
91368.9
91318.1
91184.5
91228.8
91289.3
91437.9
91650.7
90163.5
90160
90155.9
90151.3
90146
90140
90133.6
90126.5
90118.8
90111
90103.4
90096.2
90089.2
90082.6
90076.6
90071.1
90066.7
90064.1
90063.8
90066.7
90073.1
90083.3
90097.7
90116.4
90139.7
90167.9
90201.3
90240.6
90286.4
90339.2
90399.3
90465.5
90539.3
90622.6
90714.9
90816.1
90926.7
91046.7
91176.3
91315.4
91464.1
91622.6
91791.4
91972.1
92165.7
92371.9
92588.8
92815.5
93051
93295.2
93547.8
93808.5
94076.7
94352.1
94634.1
94921.4
95213.3
95508.9
95807.3
96107.2
96407.5
96706.9
97003.9
97296.9
97584.1
97863.7
98135.8
98398.2
98649.1
98887.7
99112.5
99320.4
99509.1
99677
99822.7
99946.7
100050
100131
100189
100225
100236
100223
100184
100120
100030
99917.4
99781.6
99624.2
99446.9
99251
99036.3
98805
98560.6
98298.7
98033.5
97753.4
97477.3
97198.8
96923
96650.8
96383.4
96121
95868.5
95624.1
95384.2
95153.1
94934.3
94722.7
94517.8
94327.6
94154.6
93991.5
93833.2
93679.5
93536.9
93400.4
93274.5
93167.7
93070.6
92980.2
92890.9
92810.5
92744.4
92686.6
92620.9
92573
92549
92513
92501.8
92503.6
92518.2
92542.6
92589.4
92652.7
92721.1
92800.1
92914
93031.3
93151.8
93281.6
93431.6
93605
93712.6
93899
94150.4
94347.3
94517.5
94664.2
94843.9
95101.2
95299.7
95436.1
95571.9
95764.4
95955.2
96103.4
96077
96008.2
95959.4
95957.7
95904.9
95804
95687
95469.8
95156.6
94911.6
94469.7
93887.7
93414.6
92985.9
92706.3
92603.4
92513.7
92362.8
92202.1
92042.7
91997.7
92011.4
92057.7
92202.7
90696.9
90692.5
90687.4
90681.4
90675.2
90667.9
90659.9
90651.2
90641.4
90630.8
90619.8
90608.9
90597.9
90587.2
90576.9
90567.4
90558.9
90552.2
90547.9
90546.3
90548.2
90553.9
90563.8
90578.3
90597.3
90621.5
90650.7
90685.6
90726.9
90775.4
90831.3
90889.9
90957.3
91034
91119.6
91214.3
91318
91431.3
91554.1
91686.4
91828
91978.7
92139
92310.1
92493.7
92689.8
92897
93113.7
93339.5
93573.7
93815.9
94066.2
94323.6
94587.8
94858.5
95134.3
95414.3
95698.1
95984.3
96272.1
96560.1
96847.1
97132
97413.3
97689.5
97958.6
98219.3
98471.2
98711.9
98940
99154.9
99354.8
99536.9
99698.9
99839.9
99960
100060
100138
100194
100227
100237
100223
100184
100121
100034
99924.5
99793.3
99641.7
99470.8
99281.3
99073.5
98849.3
98609.6
98361.6
98105.7
97841.4
97577.5
97307.4
97044.4
96783.6
96528.9
96278.4
96037.9
95807.1
95581.8
95362.8
95157.1
94960.6
94765.8
94586.5
94424.9
94272.6
94127.3
93989.6
93858.5
93740.9
93634
93545
93465.9
93395.1
93329.8
93274
93232
93192.5
93151.1
93124.6
93125.9
93119.2
93138.6
93170.7
93225
93294.8
93371.4
93473.3
93601.1
93714.3
93855.8
94025.3
94204.8
94354
94495.7
94768.1
94948.3
95123
95410.2
95682.6
95906.4
96077.5
96284
96533.3
96776.6
96944.6
97064.1
97268.6
97452.7
97522.5
97550.1
97568.6
97567.5
97568.7
97472.8
97321.7
97140.6
96926.2
96582
96304.3
95902.3
95341.7
94848
94381
94091.8
93968.1
93761
93441
93191.5
92982.9
92828.9
92769
92717.7
92793.8
91259.7
91254.2
91247.8
91240.2
91232.4
91223.7
91214
91203
91190.5
91176.7
91161.8
91146.6
91131.3
91116.3
91101.6
91087.7
91074.9
91063.8
91055
91048.8
91045.8
91046.4
91051.2
91060.7
91075.2
91094.8
91119.6
91149.6
91185.2
91226.5
91271.4
91327.8
91391.4
91462.7
91542.1
91630.2
91727.2
91833.5
91949.8
92075.6
92210.7
92354.6
92506.9
92668.9
92842.2
93027.7
93224.3
93430.3
93645.3
93868.7
94100.1
94339
94585.2
94837.5
95095.8
95359.3
95626.9
95898.1
96171.7
96446.6
96721.9
96996
97268.4
97537.2
97801.1
98058.9
98308.1
98548.5
98779
98996.6
99201
99392.1
99567.4
99723.7
99859.8
99976
100072
100147
100201
100231
100240
100225
100187
100125
100040
99934.5
99808.6
99663.1
99499.3
99317.8
99118.9
98904.2
98676.6
98438.9
98193.6
97942
97689.4
97435.9
97184.2
96933.2
96693.9
96456.3
96229.5
96013
95803.2
95593.5
95401.9
95221.4
95036.1
94866.5
94723.4
94583
94451
94327.4
94213.9
94114.5
94028.4
93958.3
93899.6
93850.6
93808.7
93779
93761.8
93738.1
93729.5
93732.4
93748.6
93776.1
93826.8
93888.1
93973.1
94090.2
94210
94346.2
94529.8
94692.4
94869.2
95080.7
95315.9
95507.1
95662.2
95987.7
96250.9
96453.5
96737.2
97063.1
97326.7
97540.6
97795.4
98032.1
98303.1
98495.2
98632.4
98861.5
99020
99050.5
99127.7
99231.6
99290.4
99271.9
99129.4
98921.4
98682.8
98462.4
98107.6
97761.4
97375.8
96858.7
96353
95861.3
95549.3
95374.8
95038.7
94570.9
94276.5
94039.5
93753.1
93576.8
93436.8
93433.9
91847.9
91841.4
91833.7
91824.2
91813.7
91802.2
91789.6
91775.7
91760.1
91742.8
91723.8
91704
91684
91664.3
91645.1
91626.7
91609.7
91594.2
91580.1
91569.1
91561.1
91555.1
91555
91559.6
91569.3
91584.1
91603.8
91629
91659.6
91695.5
91737.1
91786.9
91843.5
91907.5
91979.5
92060.2
92149.9
92249
92357.8
92476.2
92604.4
92742.1
92887.6
93041.1
93204.7
93380.1
93566.3
93761.4
93965.2
94177.4
94397.7
94625
94859.2
95099.4
95344.9
95595.4
95849.7
96107.4
96367.8
96629.5
96891.1
97151.9
97410.9
97667.2
97917.9
98162.9
98401.2
98629.6
98849
99057
99251.3
99432.7
99599.9
99750.1
99880.9
99992.6
100085
100156
100207
100236
100243
100228
100190
100130
100048
99946.4
99826.2
99688.4
99532.9
99360.3
99171.9
98968.6
98752.8
98527
98294.3
98056.4
97816.7
97577.3
97339.7
97103.7
96876.5
96657.7
96445.3
96242.6
96044.5
95850.6
95671.1
95501.3
95333.7
95180.2
95043.9
94919.4
94804.3
94696.1
94600.3
94516.8
94450.4
94397.5
94359
94329.8
94317.9
94317.2
94326.1
94325
94347.7
94390.5
94417.7
94479.2
94565.4
94656
94771.7
94927.9
95093.1
95273.7
95499.3
95707.7
95932.9
96190.4
96456.1
96697.4
96913.2
97251.2
97568
97821
98122
98482.7
98775.6
99035.9
99350.8
99595.2
99875.1
100076
100269
100514
100636
100687
100836
101011
101087
101037
100841
100586
100307
100075
99680.2
99290.1
98906.2
98415.8
97909.8
97397
97049.8
96755.8
96313.5
95736.2
95441.6
95154.7
94682
94394.4
94192.5
94108
92456.7
92449.3
92440
92428.4
92414.6
92399
92381.7
92363.4
92343.6
92322.1
92299
92274.5
92249.5
92224.5
92200.1
92176.9
92155.1
92135.1
92117
92101.6
92089
92079.7
92074.5
92074
92078.5
92088
92102.5
92122.2
92147.5
92178.7
92215.9
92259.5
92309.6
92366.7
92431.6
92505.2
92587.4
92678.3
92779.1
92889.1
93008.8
93140
93279.3
93423.9
93577
93742
93918.4
94103.2
94296
94497.2
94705.9
94921.6
95143.2
95370.5
95602.8
95839.9
96080.7
96324.6
96571
96818.6
97066.4
97313.4
97558.5
97801.1
98039
98270.4
98496.4
98713.7
98921
99118.6
99303.5
99475.2
99633.8
99777.1
99902.8
100009
100097
100165
100213
100240
100246
100230
100193
100136
100058
99961.4
99847.6
99717.5
99571
99408.7
99231.6
99040.9
98838.4
98626.1
98407.1
98184.3
97959.6
97734.7
97513.7
97294.7
97079
96873.9
96678.3
96490.5
96307.2
96128.9
95962
95806.1
95657.2
95516.9
95392
95282.6
95181.3
95089.2
95010.3
94946.1
94896.2
94858.6
94839.1
94830.5
94848.9
94876.8
94909.1
94940.3
94996.2
95074
95124
95218.9
95341.1
95459.8
95612.6
95804.3
96007.1
96242.2
96498.5
96744.9
97025.4
97331
97609.5
97897.3
98197
98550.8
98891.4
99198.9
99546.7
99928.9
100248
100553
100921
101199
101474
101689
101957
102201
102307
102422
102650
102855
102903
102818
102578
102292
101984
101739
101306
100877
100490
100027
99517.9
98974.5
98577.9
98115.7
97569.2
96932.2
96529.4
96187.9
95562.5
95205.5
94958.5
94802.9
93081.4
93071.5
93060.3
93045.9
93028.5
93008
92985.5
92961.7
92936.4
92909.4
92881.2
92851.5
92821.1
92790.5
92760.6
92732.1
92705.2
92680.4
92658.1
92638.4
92621.7
92608.3
92598.7
92593.5
92592.9
92597.4
92607
92622
92642.6
92668.9
92701.7
92740.6
92785.6
92837
92895.3
92962
93037.5
93121.3
93214.6
93316.8
93426.9
93549.2
93681.6
93818.2
93961
94114.9
94280.2
94454.2
94635.4
94824.8
95021.5
95225.1
95434.4
95648.4
95867.3
96090.5
96317.3
96547.2
96779.4
97012.6
97245.9
97478.8
97710.3
97938.6
98163
98381.4
98593.8
98799.8
98995.3
99181.1
99356.3
99518.4
99668.1
99803.8
99923.4
100025
100109
100173
100218
100242
100247
100231
100196
100142
100069
99978.4
99871.7
99750.3
99613.9
99462.7
99297.8
99120.7
98932.8
98736.1
98532
98324.6
98117.4
97908.6
97703.7
97503.4
97303.1
97110.3
96928.2
96755.8
96589.3
96426.9
96274.2
96131.9
95996
95869.1
95757.9
95663
95576.4
95499.6
95438.5
95391.7
95356.2
95337.8
95338.7
95356.2
95399
95449.1
95501.9
95565
95657.4
95755.8
95846.7
95978.3
96128.5
96280.7
96471.4
96699.9
96937.3
97219.3
97505
97794.1
98125.1
98470.5
98764.5
99108.8
99486.7
99863.1
100219
100585
100988
101388
101737
102085
102489
102807
103079
103329
103665
103898
104023
104220
104489
104676
104698
104587
104327
104013
103708
103454
103017
102513
102127
101701
101147
100568
100125
99462.2
98786.8
98105.5
97530.6
97161.5
96442
96031.5
95740.7
95515.1
93715.5
93702.9
93689.4
93671
93648.4
93622.5
93593.8
93563.5
93531.8
93498.3
93463.7
93428.1
93391.9
93355.8
93320.4
93286.3
93254.2
93224.4
93197.2
93173
93151.9
93134.2
93120.3
93110.6
93105.6
93105.4
93110.6
93121.4
93137.7
93159.8
93188.7
93223.7
93264.8
93312
93365.6
93426.7
93496.3
93572.9
93658.5
93752.7
93853.4
93964.7
94087.7
94216.4
94350.8
94495
94649
94811.3
94981
95158.5
95342.9
95533.2
95729.5
95930.1
96135.5
96344.9
96557.6
96773.4
96991.1
97209.8
97428.6
97646.9
97864.1
98078.5
98288.9
98494.5
98694
98887.1
99071.5
99244.8
99408.9
99561.8
99702
99829.6
99942.5
100039
100118
100178
100220
100243
100246
100231
100198
100148
100081
99996.8
99897.8
99785.4
99660.1
99521.7
99370.3
99207.4
99034.4
98854.5
98668
98476.3
98286.1
98095.4
97906.3
97724.8
97544.7
97367.7
97198.8
97040.6
96888.2
96740.3
96600.7
96470.8
96350.6
96238.1
96140.4
96059.3
95987.4
95926
95882.1
95849.9
95829.4
95830.1
95851.4
95893.8
95954.8
96021
96095.8
96189.6
96312.6
96427.4
96564.6
96733.8
96905.9
97101
97327.9
97586.2
97864.4
98180.5
98495.5
98835.5
99210.9
99589.4
99913.9
100325
100769
101167
101547
101967
102416
102839
103227
103610
104036
104389
104668
104972
105354
105579
105749
106013
106268
106427
106448
106324
106062
105743
105475
105201
104750
104159
103755
103360
102753
102135
101646
100767
99974.5
99255.7
98573.9
98131.6
97347.7
96870.1
96552.1
96247.6
94353.7
94341.1
94323.7
94300.3
94270.7
94237.2
94200.5
94161.7
94121.8
94080.7
94038.7
93996.2
93953.5
93911.4
93870.3
93830.8
93793.5
93758.8
93726.9
93698.2
93673
93651.5
93633.9
93620.6
93611.9
93608.3
93609.8
93617
93629.6
93648.2
93672.9
93703.9
93740.9
93784.4
93834.1
93889.9
93953.1
94023.2
94101.6
94188
94280
94382.4
94496.5
94616.1
94741.4
94875.8
95018.6
95168.5
95326.8
95493.1
95665.8
95843.3
96026.2
96213.6
96405.1
96600.8
96799.2
97000.4
97203.3
97407.5
97612
97816.1
98018.8
98218.7
98415.1
98607.4
98794.5
98974.6
99146.7
99309
99461.1
99603.9
99735.3
99854
99959.4
100050
100124
100181
100220
100240
100243
100229
100199
100153
100091
100015
99925.2
99822.2
99707.5
99582.6
99446.5
99299.4
99142.2
98978.6
98811
98637.8
98464.9
98292.3
98119.3
97954.4
97794.2
97636
97482.9
97338.3
97198
97063.2
96935.2
96820
96713.9
96613.5
96528.8
96460.2
96399.9
96354
96326.6
96308.6
96305.6
96325.9
96367.2
96429.9
96504.6
96583.1
96676.7
96797
96940.8
97079.7
97255.5
97457.9
97657.9
97896.8
98159.1
98442
98765
99109.4
99452.9
99844.8
100263
100670
101046
101522
102011
102434
102851
103318
103798
104250
104681
105088
105528
105909
106215
106577
106982
107208
107437
107727
107949
108101
108128
107995
107751
107459
107220
106878
106404
105763
105299
104941
104295
103642
103053
102001
101116
100341
99614.8
98997.3
98244.2
97689.9
97354
96962.5
94893.6
94879.6
94858.2
94828.9
94792.9
94751.4
94705.6
94657.5
94608.6
94559.2
94509.7
94460.5
94411.7
94364.2
94318.4