/*--------------------------------*- C++ -*----------------------------------*\
| =========                 |                                                 |
| \\      /  F ield         | OpenFOAM: The Open Source CFD Toolbox           |
|  \\    /   O peration     | Version:  dev                                   |
|   \\  /    A nd           | Web:      http://www.openfoam.org               |
|    \\/     M anipulation  |                                                 |
\*---------------------------------------------------------------------------*/
FoamFile
{
    version     2.0;
    format      ascii;
    class       volScalarField;
    object      p_0;
    location    "9.153";
}
// * * * * * * * * * * * * * * * * * * * * * * * * * * * * * * * * * * * * * //

dimensions      [1 -1 -2 0 0 0 0];

internalField   nonuniform List<scalar> 
12225
(
104538
104492
104410
104292
104130
103935
103700
103443
103149
102837
102494
102143
101755
101364
100918
100429
99977
98849.9
104525
104482
104401
104285
104121
103927
103693
103436
103142
102830
102487
102137
101750
101359
100920
100454
99959.5
99022.2
104499
104459
104380
104263
104100
103907
103672
103417
103122
102813
102471
102122
101739
101349
100923
100472
99946.2
99158.3
104458
104421
104342
104225
104063
103870
103637
103382
103088
102782
102443
102096
101718
101333
100922
100491
99991.1
99357.3
104396
104362
104284
104167
104006
103813
103582
103328
103037
102733
102398
102054
101685
101307
100908
100498
100063
99617.7
104314
104280
104200
104083
103923
103731
103501
103249
102962
102661
102331
101992
101633
101267
100885
100507
100115
99760.1
104197
104162
104083
103966
103808
103616
103390
103139
102859
102559
102238
101905
101558
101204
100848
100503
100138
99810.5
104060
104028
103950
103833
103677
103486
103263
103012
102742
102444
102131
101805
101471
101127
100788
100451
100123
99811
103917
103883
103807
103689
103535
103345
103126
102875
102617
102320
102014
101695
101372
101041
100715
100394
100086
99790.8
103723
103692
103615
103500
103347
103159
102943
102695
102448
102155
101857
101548
101237
100919
100611
100306
100018
99742.1
103474
103441
103365
103250
103100
102914
102700
102458
102221
101936
101648
101351
101052
100752
100461
100176
99907.8
99653.4
103143
103112
103038
102923
102775
102593
102383
102149
101917
101646
101369
101086
100803
100523
100250
99987.8
99740.4
99508.8
102717
102686
102611
102498
102351
102174
101970
101745
101514
101262
100999
100734
100470
100210
99960.1
99721.2
99497.2
99289.6
102169
102136
102060
101948
101805
101633
101437
101223
100996
100757
100516
100270
100027
99791.5
99565.7
99352.3
99153.4
98970.8
101462
101436
101362
101251
101111
100944
100757
100553
100337
100113
99891.3
99667.3
99448.8
99238.4
99039
98852.8
98681.1
98524.9
100595
100567
100493
100384
100247
100086
99907.2
99714.5
99512.5
99304.9
99098.3
98900.6
98707.6
98524.3
98352.9
98195
98051.6
97923.4
99544
99518.9
99445.4
99337.9
99203.6
99048
98876.5
98694.7
98507.1
98317.8
98132.2
97954.1
97786.6
97630.2
97486.7
97357.5
97243
97143.5
98429.2
98395.4
98320.3
98213.4
98080.8
97928.6
97762.9
97589.5
97413.7
97239.9
97071
96912.9
96766.3
96632.9
96514.4
96411.1
96322.9
96249.5
97423.7
97385.2
97309.8
97202.9
97070.5
96919.4
96756.4
96587.8
96419.3
96255.4
96099.7
95955.6
95825.2
95709.5
95608.4
95523.1
95455.2
95402.3
96589.6
96563.2
96489.8
96382.1
96248.6
96097
95934.5
95767.9
95603.3
95445.4
95297.7
95163.4
95044.6
94942
94856
94785.3
94728.2
94688.5
95948.2
95920.9
95845.4
95734.6
95598.3
95445
95281.7
95115.6
94952.7
94798.1
94655.3
94527.3
94415.6
94321.4
94244.8
94185.5
94142.8
94113.9
95460.7
95428.4
95349.5
95235.3
95095.7
94939.5
94774.7
94608.2
94445.8
94292.7
94152.8
94028.7
93922
93833.4
93762.8
93710.5
93675.6
93656.9
95087.6
95056.8
94975.2
94857.8
94715.2
94556.3
94389.6
94222.2
94059.8
93907.5
93769
93647.1
93543.6
93459.4
93393
93345.4
93315.4
93302
94814.1
94782.3
94698.4
94578.4
94433.3
94272.1
94103.5
93934.8
93772
93620
93482.3
93362
93260.5
93178.5
93115.6
93071.6
93045.4
93035.9
94619.6
94584.3
94498
94376
94229
94066.3
93896.2
93726.4
93563
93410.9
93273.9
93154.5
93054.2
92973.8
92913
92871.7
92848.4
92840.7
94484
94445.9
94357.3
94233.7
94085.5
93921.6
93750.5
93579.8
93415.9
93263.6
93126.8
93008.1
92908.8
92829.5
92770.6
92730.4
92708.2
92702.5
94393.9
94352.9
94262.4
94137.8
93988.7
93823.9
93652.1
93480.9
93316.7
93164.2
93027.5
92909.2
92810.6
92732.2
92673.8
92634.5
92613.3
92608.6
94340.3
94294.5
94202.4
94077.1
93927.5
93762.2
93589.9
93418.4
93254
93101.3
92964.7
92846.6
92748.4
92670.4
92612.4
92573.7
92553.2
92549.2
94311.2
94262
94168.5
94042.7
93892.9
93727.4
93554.9
93383.2
93218.6
93065.9
92929.3
92811.2
92713.2
92635.5
92577.8
92539.5
92519.3
92515.9
94301
94248.8
94154.5
94028.3
93878.1
93712.5
93539.8
93368.1
93203.5
93050.8
92914.2
92796.2
92698.3
92620.7
92563.2
92525
92505.1
92502.2
87395.5
87394.7
87393.4
87391.6
87389.3
87386.7
87383.8
87380.8
87377.8
87374.9
87372.5
87370.6
87369.6
87369.7
87371
87374.1
87379
87386.2
87396
87408.7
87424.7
87444.5
87468.3
87496.6
87529.8
87568.4
87613
87664
87721.8
87787.1
87860.3
87941.9
88032.5
88132.6
88242.7
88363.1
88494.2
88636.2
88789.5
88954.3
89131.3
89320.2
89521.3
89734.9
89961
90199.5
90450.3
90713.1
90987.5
91273.4
91570.6
91878.6
92197
92524.9
92861.9
93207.3
93560
93918.5
94281
94646.7
95014.2
95381.9
95748.1
96110.7
96467.4
96815.9
97153.3
97477.3
97785.3
98075.1
98344.9
98593
98817.1
99016
99188.6
99331.7
99443.9
99525.2
99574.2
99590.5
99573.4
99521.4
99438.5
99327.9
99188.2
99017.3
98816.4
98588.9
98337.3
98065.3
97777.7
97474.3
97154.7
96819.7
96472.7
96118.4
95762.7
95408.6
95058.4
94715.6
94381.8
94060.2
93753.7
93463.6
93187.5
92923
92673.1
92443.8
92242.3
92059.7
91872.6
91686.1
91507.1
91340.7
91181.7
91032.7
90884.6
90730.3
90572.5
90413.2
90253.9
90093.3
89928.8
89758.9
89582.3
89399.3
89209.1
89011.8
88807.2
88596.2
88380.2
88161.4
87942.5
87724.8
87510.4
87301.7
87100.9
86908.5
86726.1
86553.7
86393.3
86244.8
86110.5
85994.2
85898.9
85831.8
85798.1
85782.7
85788.6
85803.7
85808.8
85800.5
85757
85695
85621.4
85521.4
85391.6
85224.3
85016.1
84768.7
84481.4
84152.6
83793.4
83419
83034.5
82647.8
82289.9
81998.1
81798.3
81699.8
81708.8
81830.2
82046.8
82340.5
82668.5
83028.2
83473.7
84003.9
84641.6
85341.5
87452.3
87451.4
87449.9
87448
87445.6
87442.8
87439.8
87436.6
87433.4
87430.5
87427.9
87425.9
87424.8
87424.7
87426.1
87429.1
87434
87441.1
87450.8
87463.4
87479.3
87498.9
87522.5
87550.7
87583.8
87622.4
87666.8
87717.4
87774.9
87839.7
87912.4
87993.5
88083.6
88183.2
88292.7
88412.6
88543.2
88684.8
88837.8
89002.4
89178.3
89366.3
89566.4
89778.9
90003.8
90241.2
90490.8
90752.5
91025.7
91310.3
91606.1
91913
92229.9
92556.2
92891.4
93234.9
93585.9
93943.2
94304.4
94668.3
95034
95399.7
95763.8
96124.5
96479.6
96826.5
97162.3
97484.7
97791
98078.8
98346.5
98593
98815.1
99011.7
99183.2
99325.4
99436
99516.9
99565.5
99578.9
99559.9
99510.7
99428
99316.1
99176.6
99006
98803.8
98576.9
98328.9
98059
97768.2
97461.3
97139.4
96803.9
96457.9
96105.5
95751.1
95398.2
95048.7
94707.1
94375.5
94055.1
93749.2
93459.9
93185.2
92922.4
92672.2
92439.2
92235.3
92054
91870.3
91690.5
91511.9
91346.7
91187.2
91038.7
90894.4
90741.3
90584
90425.5
90267.4
90108.6
89945.8
89777.7
89602.7
89421.3
89233.1
89038.4
88836.8
88628.1
88414.5
88198.6
87982.8
87768.5
87557.9
87352.6
87155.8
86966.8
86787.8
86618.9
86461.5
86314.9
86181.8
86067.4
85972.6
85906.2
85880.1
85865.9
85875.9
85894.5
85904.1
85900.6
85851.4
85786
85710.3
85609.6
85483.8
85318.4
85109.6
84862.2
84574.5
84244.6
83883.6
83509.4
83125.8
82735.5
82370.3
82071.5
81867
81767.9
81778.1
81902.9
82123.8
82419.1
82739.7
83089
83530.3
84054.5
84686.2
85386.9
87565.9
87564.9
87563.2
87561
87558.3
87555.3
87552.1
87548.7
87545.3
87542.2
87539.6
87537.7
87536.5
87536.3
87537.5
87540.3
87544.9
87551.8
87561.2
87573.5
87589.2
87608.7
87632.3
87660.4
87693.2
87731.2
87774.9
87824.7
87881.4
87945.3
88017
88097
88185.9
88284.3
88393
88511.7
88641.1
88781.5
88933
89095.9
89270.4
89456.8
89655.2
89865.8
90088.8
90324.1
90571.5
90830.8
91101.6
91383.6
91676.6
91980.5
92294.6
92618.3
92950.6
93290.7
93637.7
93991.1
94349.4
94710.7
95073.4
95435.8
95796.2
96153
96503.9
96846.7
97178.7
97497.4
97800.6
98085.1
98349.2
98592.3
98811
99003.8
99172.9
99312.7
99419.7
99498.3
99546.3
99560.3
99542.3
99490.9
99407.3
99295.3
99153.5
98982.4
98782.9
98555.7
98304.9
98033.4
97741.8
97433.7
97111.1
96776
96431.7
96081.8
95729.3
95377.7
95032.8
94695.1
94366.1
94047.7
93742.8
93453.9
93179.2
92918.1
92670.5
92433.4
92223.4
92044.5
91868.8
91696.2
91522.2
91360.6
91199.3
91049.6
90912.6
90761.2
90606.3
90449.8
90294.2
90138.7
89979.6
89815.4
89643.8
89465.4
89281
89091.2
88895.8
88693.6
88485.6
88275.7
88065.8
87857.9
87655.3
87457.8
87269.3
87088.4
86917.3
86755.7
86605.4
86463.6
86334.6
86221.3
86126.7
86061.3
86040.5
86030.5
86043
86068.5
86091.4
86101.7
86047.7
85979.9
85898.6
85794.1
85675.6
85516.4
85310.5
85063.4
84775.6
84442.3
84078.3
83703.9
83323.3
82928.2
82549.7
82234.8
82018.2
81916.1
81936.9
82067.1
82292.8
82583.8
82884.5
83221.6
83650.9
84155.5
84771
85473.8
87735.6
87734.5
87732.6
87730.1
87727.2
87723.9
87720.4
87716.8
87713.3
87710.3
87707.7
87705.6
87704.1
87703.5
87704.1
87706.2
87710.3
87716.7
87726
87738.3
87754
87773.3
87796.4
87823.6
87855.4
87892.3
87934.7
87983.2
88038.5
88100.9
88171.1
88249.7
88337
88433.8
88540.3
88657
88784.8
88923.2
89072.1
89232.8
89405.1
89589.2
89785.2
89993.4
90213.8
90446.1
90690.3
90946.4
91213.9
91492.4
91781.8
92081.6
92391.2
92710
93037.5
93373.1
93715.4
94063.4
94416.5
94772.8
95130.2
95487.4
95842.8
96194.4
96540
96877.2
97203.4
97515.8
97812.8
98092.1
98351.6
98590.3
98805.4
98994.1
99158
99293.8
99397.5
99472.3
99518
99530.6
99510.2
99458.3
99377.5
99266.2
99122.6
98948.5
98747.6
98520.8
98269.1
97994.1
97702.6
97395.2
97073.9
96740.9
96399.1
96052
95702.5
95355.1
95013.8
94679.3
94353.1
94038.1
93736.4
93448.8
93175.1
92916.8
92673.5
92438.4
92221.4
92043.7
91873.8
91706.4
91545
91384.7
91221.6
91073.2
90933.5
90788.4
90638.9
90487.5
90336.7
90185.3
90029.7
89871
89706.2
89534.2
89355
89171
88983.7
88791.3
88592.2
88392.4
88192.7
87994.9
87803.5
87616.3
87440.8
87273.2
87112.9
86962.5
86826.8
86694.7
86571.2
86463.3
86371
86299.3
86272.5
86264.4
86272
86308.7
86345.8
86372.8
86336.2
86279.9
86192.9
86079.8
85958.1
85801.3
85605.5
85371.6
85090.8
84749.4
84378.3
84003
83628.8
83228.8
82831.5
82494.7
82264
82166
82193.3
82326.6
82555.2
82828
83092.6
83425.6
83836.8
84312
84902.2
85600.1
87960.8
87959.5
87957.3
87954.6
87951.5
87948
87944.3
87940.7
87937.1
87933.4
87929.9
87926.8
87924.5
87923.2
87923.4
87925.4
87929.4
87935.8
87944.9
87957
87972.1
87990.3
88011.9
88037.5
88067.5
88102.7
88143.4
88190.2
88243.7
88304.4
88372.7
88449.3
88534.6
88629.1
88733.1
88847
88972.7
89107.7
89254.2
89411.9
89581.1
89762.1
89955
90159.9
90376.9
90605.6
90845.9
91097.9
91361.1
91635.1
91919.6
92214.5
92518.7
92831.6
93152.9
93482
93817.4
94158.4
94504.2
94853.3
95204
95554.6
95903.3
96247.9
96586.2
96915.8
97233.6
97537.7
97826.9
98099.5
98353.4
98587
98797.2
98980.7
99138.7
99269.2
99368.9
99439
99480.5
99491.1
99469.2
99416.5
99335.8
99222.8
99076.9
98901.9
98699.9
98472.3
98222.1
97942.1
97653.7
97348.6
97029.7
96699.7
96361.4
96017.8
95672.5
95329.1
94990.8
94658.6
94335.8
94025.4
93727.9
93443.3
93173.5
92920.3
92683.5
92457
92239.8
92056.8
91887.9
91726.5
91576.6
91420
91253.6
91106.9
90968
90827.3
90683.5
90539.5
90396
90250.8
90100.3
89947.6
89790.2
89627.2
89457.2
89280.4
89102.5
88923.5
88735.9
88547.7
88363
88180.6
88004.8
87830.3
87668.5
87520.7
87378.6
87237.3
87117.8
87005.6
86895.1
86791.9
86702.7
86628.8
86583.9
86575.1
86574.2
86616.2
86659
86697.8
86706
86678.6
86591.7
86469.1
86330.7
86164.1
85973.5
85762.7
85512.7
85172.5
84785.2
84401.7
84035.2
83638
83220.5
82856.1
82609.4
82519.7
82549.7
82682.8
82921.3
83175.3
83368.6
83702.1
84094.9
84551.1
85103.5
85776.5
88240.4
88238.8
88236.4
88233.5
88230.3
88226.8
88223
88219.1
88214.6
88209.5
88204.8
88200.8
88197.8
88196.3
88196.3
88198.2
88202.1
88208.3
88216.7
88227.4
88240.5
88256.4
88275.8
88299.3
88327.5
88360.8
88399.8
88444.8
88496.3
88554.9
88621.1
88695.5
88778.5
88870.5
88972
89083.3
89204.5
89337.6
89479.9
89633.5
89798.6
89975.4
90164
90364.7
90577.3
90801.5
91037.2
91284.2
91542
91810.3
92088.9
92377.3
92674.9
92981
93295
93616.2
93943.1
94275.4
94612.5
94953
95295.5
95637.6
95977.2
96312.3
96640.7
96960.2
97268.1
97562.5
97843
98108.2
98355.7
98583.1
98786.8
98964.4
99115.4
99238.6
99332.6
99397.7
99434.1
99441.6
99419
99366.5
99284.1
99167.9
99020.1
98843.2
98640.4
98412.3
98161.5
97886.6
97599.1
97296.4
96980.4
96654.1
96319.9
95979.9
95637.8
95297.7
94962.3
94634.1
94316.3
94010.6
93716.6
93435.9
93172.4
92926.7
92698.6
92481.1
92272.8
92081.3
91913.1
91756.2
91611.1
91457.9
91302.7
91155.8
91018.2
90883.1
90745.1
90607.9
90472.7
90335.7
90191.3
90046.8
89899.6
89746.8
89589.8
89424.6
89255.3
89090.7
88920.8
88744.9
88575.3
88413.5
88258.8
88102.4
87955.7
87827.4
87710.6
87588.2
87481.7
87387.3
87301.6
87215.3
87133.9
87058.9
87000.9
86992.6
86990.9
87027.1
87057.9
87108.1
87169.7
87180
87096
86971.7
86810.3
86624.8
86426.1
86223.2
86012
85703.5
85309
84908.9
84543.7
84151.7
83718.4
83322.9
83060.7
82979
82992.6
83107.1
83340.4
83650.6
83732.6
84036.7
84416.7
84860.1
85367.3
86004.9
88573.7
88571.8
88569.2
88566.2
88562.9
88559.1
88555
88549.8
88543.8
88537.8
88532.3
88527.9
88524.5
88522.5
88522.2
88523.6
88526.6
88531.2
88537.4
88545.4
88555.9
88569.6
88587.1
88609
88635.6
88667.3
88704.3
88747.1
88796.2
88852.3
88915.9
88987.6
89067.8
89156.8
89255.2
89363.3
89481.5
89608.5
89746.6
89895.4
90055.5
90227.3
90411.1
90606.9
90814.4
91033.4
91263.4
91504.3
91755.6
92017
92288.3
92568.9
92858.6
93156.9
93462.5
93774.8
94092.4
94414.8
94741.8
95072.4
95404.5
95735.6
96063.8
96387.3
96703.6
97011.4
97308.4
97592.5
97863.7
98120.6
98360.4
98580.2
98775.9
98945.2
99088.3
99203.7
99289.8
99348
99378.7
99381.3
99355.5
99299.1
99214.1
99099.3
98951.3
98774.4
98572.3
98344.9
98095.6
97825.8
97539.8
97240.6
96928.3
96606.6
96277.3
95940.7
95601.6
95265.4
94934.4
94611.1
94297.7
93995.8
93706.1
93431.3
93175.5
92937.1
92714.5
92503.7
92303.2
92114.5
91950.7
91795.9
91651.9
91505.8
91361
91220.6
91085.9
90957.1
90828.3
90696.2
90567.7
90440.7
90305.6
90170.5
90035.2
89895.4
89752
89604.9
89448.4
89297.2
89149.5
88991.7
88835.3
88693.1
88563.7
88431.1
88303.1
88196.5
88106.9
88006.4
87922.1
87846.7
87785.3
87717.1
87672
87599.4
87542.7
87548
87547.1
87578.6
87588.4
87649.4
87750
87785.4
87733.6
87599
87408.1
87207.1
86997.5
86778.9
86583.8
86323.7
85947.6
85531.5
85160.6
84771.1
84318.3
83892.4
83609.1
83517.3
83473.9
83534.3
83758.9
84159.7
84184.6
84427.7
84787.4
85203.2
85679.9
86285.5
88960
88957.6
88954.8
88951.7
88947.8
88943.3
88937.9
88931.6
88924.7
88918.3
88912.4
88907.4
88903.6
88900.8
88899
88898.7
88899.5
88901.4
88904.7
88910.1
88918.3
88930.2
88946.1
88966.2
88990.8
89020.1
89054.5
89094.3
89140.2
89192.9
89253.1
89321.3
89397.9
89483.3
89577.5
89681.3
89792.8
89917.6
90051
90194.9
90349.8
90516.3
90694.5
90884.6
91086.3
91299.2
91522.8
91756.7
92000.5
92253.9
92516.8
92788.7
93069.1
93357.8
93653.6
93956.1
94263.7
94575.7
94891.1
95209.4
95529.3
95847.8
96163
96473.8
96777.5
97072.7
97357.7
97630.7
97891.4
98138.6
98368.8
98578.1
98763.9
98924
99057
99162.5
99240.8
99292.6
99317.2
99314
99283.6
99227.9
99141.8
99024.1
98875.6
98699.7
98498.8
98273.5
98027.2
97762.5
97477.8
97182.8
96875.1
96558.3
96234.5
95900.2
95565.9
95234.7
94909.2
94591.6
94284.5
93989.3
93706.7
93437.8
93186.8
92953.7
92735.8
92530.6
92336.2
92156.9
91998.1
91848.1
91707.9
91567.6
91431
91300.2
91172.1
91049.7
90934.2
90812.4
90689.8
90572.2
90449
90324.6
90199.9
90076.3
89946.5
89820.2
89682.7
89549.1
89423.6
89288.3
89155.2
89028.1
88919.4
88822.1
88719.9
88630.4
88573.8
88500.1
88448.1
88385.3
88361.9
88302.9
88244.5
88226.5
88207
88224.8
88237.3
88279.9
88277.3
88332.6
88457.5
88494.7
88506.7
88395.2
88151.6
87919.6
87703.2
87469.9
87262.2
87033.6
86691.1
86270.9
85883.1
85500.2
85027.4
84571
84255.5
84104.4
83994.1
84001.1
84233.1
84614.8
84745.6
84908.1
85217.7
85596.3
86046.2
86619.4
89397.1
89394.2
89391.1
89387.4
89382.7
89377.3
89370.7
89363.5
89356.3
89349.2
89342.5
89336.4
89331.3
89326.9
89323.3
89320.4
89318.3
89317.1
89317.5
89320.5
89326.6
89336.5
89350.1
89367.7
89389.6
89415.9
89447
89483.6
89526.1
89575.4
89632.1
89696.8
89769.8
89851.1
89941
90040.2
90149.6
90268.2
90396.3
90534.5
90683.2
90842.9
91014
91196.6
91391.3
91597.2
91813.2
92039.1
92274.4
92518.9
92772.6
93034.5
93304.6
93582.6
93867.5
94158.5
94454.4
94754.4
95057.4
95362.8
95669.1
95973.6
96275.3
96572.8
96863
97144.7
97416.7
97677.5
97926.4
98161.5
98379.3
98576.5
98750.8
98900.2
99022.4
99118.3
99189.2
99234.6
99254
99247
99214.5
99155.1
99065.7
98945.6
98796.8
98622.3
98423.3
98200.6
97957.8
97698.2
97416.3
97124.5
96821
96507.7
96183.8
95858.6
95531.3
95207
94888.3
94578.7
94279.7
93992.9
93718.7
93457.1
93211.6
92984.7
92772.8
92573.4
92385.3
92213.6
92059.1
91915.6
91782.7
91648.5
91519.4
91397.2
91279.5
91164.9
91061.8
90956.4
90842.2
90735.1
90626.9
90517.2
90402.8
90295.2
90181.4
90072.5
89958
89846.2
89741.9
89631.7
89533
89431.2
89337.4
89276.1
89215.4
89139.2
89110.6
89077.5
89072.2
89005.9
89012.9
89007.9
88954.8
88949.5
88957.9
89002.4
89046.1
89124.5
89128.2
89164.1
89285
89324.1
89372.5
89325.4
89051.8
88777.4
88545.9
88303.7
88073.3
87840.7
87527.6
87116.6
86713
86330.9
85845.3
85356.9
85001
84786.6
84647.2
84658.4
84876.8
85160.8
85348.8
85463.1
85744.9
86075.8
86497.3
86994.1
89881.7
89878.2
89874.4
89869.8
89864.3
89858.2
89851.2
89843.2
89835
89826.8
89818.9
89811.5
89804.3
89797.6
89791.3
89785.5
89780.4
89776.4
89774.4
89775.1
89779
89786.4
89797.3
89812
89830.8
89854.1
89882.3
89915.9
89955.5
90001.7
90055.1
90116.2
90185.1
90262.1
90347.9
90442.6
90546.2
90658.9
90780.9
90912.5
91054
91205.7
91368
91541.5
91727.3
91924.8
92132.4
92349.5
92575.3
92809.9
93053.1
93304.3
93563.2
93829.4
94102.1
94380.3
94663.4
94950.2
95239.6
95530.8
95822.3
96112.5
96399.7
96682.6
96958.3
97225.4
97483.7
97731.1
97966.2
98187.4
98391.4
98575.5
98738
98876.7
98989.5
99077.2
99140.7
99179.8
99194
99182.9
99145.8
99081.6
98988.6
98866.7
98718.1
98544.9
98348.1
98128.9
97890.1
97634
97360.5
97071.2
96773.1
96463.6
96147
95826.8
95506.4
95189.5
94879.3
94578.4
94288.1
94009.5
93744.5
93492.3
93253.7
93032.3
92826.4
92632.8
92450.9
92285.7
92139.7
92003.5
91874.7
91748.3
91631.8
91518.3
91411.2
91310.3
91218.5
91127.5
91025.4
90930.6
90839.1
90748
90648
90556
90465.3
90370
90280.1
90193.3
90110
90027.8
89963.5
89897.6
89829.6
89792.3
89772.6
89730.3
89718.5
89721.7
89752.6
89716.8
89721.1
89780.7
89807.4
89798.6
89830.6
89886
89956.8
90078.6
90113.1
90138.6
90225.3
90279.5
90326.6
90322.1
90077.5
89781.8
89528.3
89279.8
89025.1
88756.9
88452.1
88047.4
87641.1
87265.3
86767.2
86247.2
85862.2
85593.3
85458.4
85489.2
85672.2
85877.8
85977.9
86080
86348
86647
87008.6
87429.1
90409.9
90405.9
90401.1
90395.6
90389.4
90382.3
90374.8
90366.3
90357
90347.3
90337.6
90328.1
90318.6
90309.3
90300.1
90291.2
90283
90276.3
90271.6
90269.6
90270.8
90275.4
90283.8
90295.9
90312
90332.6
90357.9
90388.4
90424.8
90467.1
90516.7
90573.6
90638.1
90710.7
90791.6
90879.4
90976.5
91082.7
91198
91322.5
91456.1
91599.1
91752
91916
92092.1
92280
92478.1
92685.3
92900.9
93124.7
93356.4
93595.9
93842.5
94096
94355.6
94620.2
94889.3
95161.7
95436.4
95712.3
95988.2
96262.9
96534.6
96801.7
97062.4
97314.4
97557.7
97790.5
98010.6
98216.7
98406.8
98578.2
98728.5
98855.9
98959.1
99039
99096
99129
99137.3
99120.6
99078.1
99009.2
98912.8
98789.6
98641.6
98470
98275.9
98060.9
97827.1
97575.7
97308.4
97025.8
96727.5
96425.3
96117
95804.2
95492
95184
94883.3
94591.7
94310.7
94040.9
93785.7
93544.2
93313.8
93098
92898.7
92711.5
92536.5
92379.1
92239.7
92112.9
91991
91875
91769.7
91666.4
91571
91487.5
91408.3
91329.8
91245.7
91165.6
91091.6
91018.9
90934.4
90859.4
90795.6
90718
90652.9
90593.9
90540.6
90488.8
90450.8
90423.4
90396.3
90378.5
90388.7
90397.5
90412
90434.3
90480.1
90516.8
90525.3
90605.3
90718.4
90778.4
90827.5
90884.3
90970.4
91116.3
91193.8
91230.6
91279.5
91342.9
91382.5
91369.2
91169
90904.1
90643
90397.4
90115.7
89802.9
89478.4
89076.7
88651.7
88297.3
87802.9
87251.3
86843.6
86536.2
86400.5
86435
86586.5
86692.2
86678
86767
86991.1
87253.3
87543.9
87907.3
90978
90973.3
90967.4
90961
90954.2
90946.4
90937.8
90928.4
90917.8
90906.3
90894.2
90882
90869.6
90857.3
90845.1
90833.5
90822.6
90813.2
90805.8
90800.9
90799.1
90800.6
90805.8
90815
90828.2
90845.9
90868
90895.1
90927.7
90966.3
91011.3
91063
91121.9
91188.7
91263.6
91345.8
91436.5
91535.9
91644.2
91761.5
91887.4
92022
92165.6
92319.3
92484.6
92661.6
92848.8
93044.8
93249
93461.1
93680.5
93907.3
94140.8
94380.5
94626
94876.1
95129.9
95387
95646.1
95906.2
96165.9
96423.9
96679.1
96929.8
97174.7
97411.4
97638.4
97855.7
98060.6
98251.2
98426.6
98585.1
98723.6
98840
98933.6
99004.9
99054.3
99080.7
99082.9
99060.5
99013
98940
98841.1
98717.2
98569.9
98400.3
98209.3
97999
97770.6
97524.4
97261.6
96984.4
96696.3
96397.9
96098.3
95793.8
95491.8
95194.2
94903.1
94620.6
94349.2
94088.6
93842.4
93611
93391
93184.3
92993.8
92816.8
92649.1
92499.5
92367.1
92248.9
92137.5
92032.4
91935.2
91846.4
91765.5
91696.6
91631.2
91568.1
91504.5
91443.8
91389.5
91333.3
91267.8
91210.8
91170.7
91116.9
91077.4
91045.4
91026.9
91012.2
91000.2
91009.2
91031.9
91042.5
91080.5
91137
91198.3
91237.6
91287.1
91411.2
91463.7
91534.8
91686.6
91815.4
91908.4
91981.4
92086
92236.6
92353.3
92413.7
92445.3
92518
92552.4
92489.5
92329.6
92125
91889.4
91645.4
91332.9
90981.4
90615.2
90217
89765.8
89402.8
88929.4
88373.8
87948.4
87615.4
87482.5
87527.7
87608.3
87586.3
87496.6
87546.1
87684.3
87901.4
88115.9
88425.3
91582.4
91576.6
91569.8
91562
91554
91545.4
91535.8
91525
91512.7
91499
91484.1
91468.7
91453.2
91437.9
91422.7
91407.9
91394
91381.5
91371.1
91363.1
91357.9
91355.8
91357.2
91362.8
91372.6
91386.7
91405.7
91429.5
91458.2
91492.2
91531.8
91577.6
91630.3
91690.1
91757.3
91834.2
91918.7
92011.6
92113.4
92223.8
92342.6
92469.4
92603.9
92747.4
92901.4
93066.6
93241.9
93425.5
93617.3
93816.7
94023.1
94236.3
94455.8
94680.8
94911
95145.8
95383.8
95624.8
95867.5
96110.8
96353.7
96594.7
96833
97066.6
97294.2
97514.9
97725.7
97926.4
98116.1
98291.4
98451.7
98596.5
98723.4
98829.2
98913.3
98976.1
99017.4
99036.7
99032.5
99004.4
98952.3
98876
98775.1
98651
98504.9
98338.4
98150.3
97944.9
97722.4
97483.3
97228.1
96958.9
96678.3
96391
96100
95801.3
95510.7
95224.1
94942.2
94668.5
94408.8
94159.3
93921.9
93700.6
93491.3
93294.4
93114
92947.4
92784.5
92643.2
92522.6
92413.4
92311.9
92218.1
92133
92059.2
91994.5
91940.9
91892.2
91847.7
91803.7
91764.9
91731.4
91689.6
91651.6
91618
91594.1
91569.8
91557.8
91552.5
91563.3
91589.9
91615.3
91657
91730.1
91783.8
91854.1
91950.2
92063.5
92137.7
92195.7
92380.2
92500.3
92585.2
92742.4
92919.7
93055.4
93161.2
93299.7
93444.8
93593.4
93676.1
93714.6
93806.1
93826.1
93725.2
93603.7
93466.7
93273.3
93018
92671.5
92276.1
91866
91466.4
91004
90594.7
90134.2
89597.8
89161
88813.4
88678.5
88720.5
88710.7
88544.2
88435.5
88442.7
88473.6
88608.5
88747.9
88993.5
92219.5
92212.6
92204.6
92195.3
92185.2
92174.4
92162.7
92149.9
92135.4
92119.3
92101.5
92082.8
92063.9
92045.2
92026.9
92009.2
91992.6
91976
91961.9
91950.3
91941.4
91935.2
91932.6
91934.3
91940.4
91950.8
91965.7
91985.4
92009.9
92039.2
92073.8
92114
92160.3
92213.2
92273.7
92342.6
92419.5
92504.9
92599.1
92701.7
92812.8
92932.4
93058.9
93192.8
93335.8
93489.3
93652.4
93823.5
94002.1
94188.1
94381.1
94580.1
94785
94994.9
95209.4
95427.8
95649.3
95873.2
96098.9
96325
96550.2
96773.5
96994.1
97210.8
97420.7
97623.9
97818.9
98002.8
98176.6
98337.6
98483.2
98613.9
98728.3
98823.5
98897.8
98952
98985.4
98997.3
98987.1
98953.9
98897.6
98818.2
98716
98592.3
98447.2
98281.8
98100.4
97901.5
97685.9
97454.1
97207.6
96947.8
96677.2
96399.6
96117.1
95832.7
95551.9
95276.4
95006
94740.7
94494
94257.9
94027.9
93820
93620.5
93431.2
93260.9
93106.7
92945.9
92817.6
92707.1
92608.1
92519
92436.8
92365.7
92304.6
92256.7
92218
92187.1
92160.6
92142.1
92128.2
92117.9
92094.7
92084.8
92084.9
92072.1
92079.2
92099.6
92121.9
92161.6
92225.7
92294.4
92375.3
92490.7
92588.9
92702.5
92840.6
92990.9
93110.5
93211.3
93420.8
93594.9
93716.7
93889.4
94104.5
94272.1
94416.6
94603.4
94751.9
94917.4
95015.1
95089.3
95199.1
95195
95097.2
95030.9
94955
94782.8
94507.7
94120.5
93684.8
93239
92832.9
92340.9
91893.7
91434.9
90912.6
90474.7
90119.3
89972.1
89960.1
89859.7
89579.3
89493.8
89448.1
89324.9
89346.8
89426.5
89608.1
92883.7
92875.3
92866.2
92855.3
92842.5
92828.2
92812.7
92796.4
92778.7
92759.6
92739
92716.9
92694.3
92671.6
92649.5
92628.3
92608.2
92589.4
92572.5
92557.7
92545.4
92535.9
92529.7
92527.5
92529.4
92535.5
92545.8
92560.6
92580.3
92604.7
92634.2
92668.9
92709
92755.2
92808.5
92870.2
92937.4
93013.2
93098.3
93192.2
93295
93407.7
93527.2
93651.1
93782.1
93923.7
94075.3
94234.2
94399.7
94572.2
94751.2
94935.9
95125.5
95319.6
95517.8
95719.5
95924
96130.6
96338.7
96546.8
96754.1
96959.7
97162
97360.6
97553.4
97738.4
97916.9
98085.1
98242
98388.3
98520.2
98637.1
98738.8
98823.2
98888.4
98933.6
98959.3
98964.2
98947.8
98909.6
98849.9
98768.8
98666.9
98543.8
98401
98240
98063
97870.6
97662.6
97439.4
97202.5
96953.4
96694.1
96428.1
96157.2
95886
95617.1
95352.6
95095.6
94844.4
94604.6
94378.8
94165.4
93966.5
93778.1
93597.3
93436.1
93289.6
93149.8
93027.5
92924.8
92837.2
92758.9
92689.2
92631.4
92586.4
92553.2
92528.3
92515.3
92507.5
92517
92529.8
92542.3
92547.7
92567.1
92601.1
92607.4
92645.5
92701.6
92751.1
92825.6
92926
93033.1
93164.1
93314
93450.9
93616.3
93801.2
93973.2
94136.9
94306.5
94535.9
94744.4
94913.2
95124.3
95368.2
95562.7
95748.8
95983.5
96156.8
96327.6
96439.5
96572
96689.3
96671.2
96615.2
96618.6
96577.2
96394.4
96094.8
95668.2
95201.6
94724.6
94311.2
93780.6
93304.8
92841.9
92336
91900.1
91533
91358.5
91249.1
91046.4
90698.1
90562.6
90452.5
90165.2
90111.2
90138
90265.6
93567.6
93557.7
93546.6
93533.6
93517.8
93499.6
93479.8
93459
93437.2
93413.9
93389.5
93363.8
93337.2
93310.4
93284.1
93258.9
93235.2
93213.2
93193.2
93175.4
93160
93147.3
93137.6
93131.5
93129.3
93131.1
93137.2
93147.6
93162.7
93182.7
93207.5
93237.3
93272.1
93312
93357.2
93408.5
93470.8
93539.7
93616.7
93701.5
93793.8
93896.8
94008.4
94122.4
94241.2
94369.9
94508.8
94654.8
94806.5
94965.1
95129.6
95299.7
95474.1
95652.1
95833.7
96018.4
96205.6
96394.7
96584.9
96775
96963.9
97151.4
97336.1
97516.3
97691.4
97859.3
98019.9
98172.7
98313.6
98443.8
98562.1
98665.8
98755.1
98828.5
98884.3
98921.4
98939.3
98937.6
98915.5
98872.9
98810.1
98727.6
98625.9
98505.3
98366.3
98210.3
98039.3
97854.3
97655
97441.5
97215.3
96978.1
96731.7
96478.8
96220.8
95963
95708.7
95457.2
95213.3
94977.5
94748
94530.8
94329.2
94141.4
93964.5
93796.9
93645
93507.8
93380.2
93266.8
93173.5
93097.2
93029.9
92972.5
92929.6
92900.5
92880.7
92873.4
92880.1
92896.6
92931.3
92968
93002
93038.2
93091.9
93150.2
93192
93264.9
93352.1
93432.9
93545.2
93684.5
93827.1
94006.6
94191.1
94369.7
94586
94814.7
95007.3
95222.4
95464.5
95720.4
95952.2
96176
96439.4
96707.8
96930.9
97157.9
97433.2
97643.2
97818.6
97958.1
98152.4
98269.4
98262
98276
98330.8
98289.4
98087.7
97766.4
97314
96815.8
96326
95910.3
95363.9
94837.3
94374.2
93892.4
93431.2
93046.6
92846.2
92594.2
92258.9
91866.9
91586.5
91429.2
91036.1
90920.3
90892.4
90952.7
94262.4
94252.2
94239.4
94222.5
94202.3
94179.5
94154.7
94128.8
94101.9
94073.7
94044.5
94014.5
93983.9
93952.7
93922.5
93893.4
93865.8
93840.1
93816.6
93795.3
93776.5
93760.5
93747.3
93737.4
93731.2
93729
93731
93737.5
93748.6
93764.4
93785.4
93811.3
93841.9
93877.5
93918.5
93966.3
94020.3
94080.3
94148.4
94223.7
94304.4
94394.8
94495.1
94599
94707.5
94824.8
94950.4
95082.5
95220.5
95364.8
95514.4
95668.6
95827.4
95989.1
96154.4
96322.3
96492.2
96663.8
96836.1
97008.1
97179
97348.1
97514.8
97677.3
97834.5
97985.8
98129.5
98265.8
98391.8
98505.6
98609.4
98700.7
98777.6
98840.2
98886.5
98915.6
98926.4
98918.3
98891.2
98844.8
98779.7
98696.6
98596.2
98478.6
98344.5
98194.5
98030.4
97853.5
97664.3
97462.3
97248.1
97023.6
96790.7
96552.7
96310.1
96065.9
95826.3
95589.5
95358.6
95138.7
94924.6
94719
94527.1
94350.4
94184.2
94027.5
93885.3
93757
93641.6
93539.5
93456
93390.6
93335.6
93290.8
93263.3
93247.9
93242.1
93253.6
93281.4
93323.8
93380
93437
93495.2
93563
93649.8
93728.1
93814.9
93926.2
94038.8
94160.2
94310.5
94485.6
94669.3
94888.8
95108.9
95337.9
95601.9
95870.4
96094.4
96374.2
96684.1
96966.9
97224.8
97506.3
97820.5
98116.9
98377.1
98640.8
98947.3
99194.4
99380.2
99564.4
99812.7
99929.8
99957.8
100044
100111
100052
99848
99516.4
99050.1
98532.5
98061.5
97647.5
97085
96480.9
96016.3
95555.3
95051.2
94642.5
94422.3
93985.9
93519.1
93076.9
92664.3
92447.4
91970.9
91779.7
91712.5
91688
94963.1
94952.2
94936.6
94915.3
94889.3
94860.3
94829
94796.1
94762.7
94728.5
94693.7
94658.5
94623.2
94588
94553.7
94520.6
94489.3
94460
94432.9
94408.2
94386.3
94367.2
94351
94338.1
94328.8
94323.5
94322.2
94325.3
94332.8
94344.5
94361.4
94383.3
94409.6
94441.1
94477.4
94518.2
94565.4
94618.1
94677.9
94744
94814.3
94894.1
94983.9
95077.3
95175
95280.6
95392.8
95510.5
95634.9
95765.7
95901.1
96040
96182.8
96328.6
96477.3
96628.6
96781.3
96935.3
97089.7
97244.1
97397.3
97548.6
97697.4
97842.1
97981.9
98116.4
98244.4
98364
98474.7
98574.4
98662.8
98741.4
98807.3
98858.9
98895.8
98916.7
98920.9
98907.4
98876
98826.7
98760.2
98677.2
98578.6
98464.9
98336.4
98193.8
98037.7
97869.6
97690.5
97501.4
97301.4
97091.4
96872.8
96649.7
96424.3
96196.3
95971.7
95750.2
95532.5
95326.8
95129.5
94938.8
94759
94592.7
94435.5
94288.8
94155.1
94038.1
93934.5
93841.7
93768.4
93713.9
93668.8
93637.6
93625.7
93624.2
93635.5
93667
93717.3
93784
93858.6
93933.2
94014.9
94114
94228.8
94333.6
94462.6
94612.2
94754.6
94921.2
95110.6
95316.4
95547.8
95803.4
96058.4
96343.1
96655.8
96961.5
97234.9
97584.7
97951.1
98263.5
98560
98895.3
99250.3
99580.4
99885.2
100177
100507
100790
101000