/*--------------------------------*- C++ -*----------------------------------*\
| =========                 |                                                 |
| \\      /  F ield         | OpenFOAM: The Open Source CFD Toolbox           |
|  \\    /   O peration     | Version:  dev                                   |
|   \\  /    A nd           | Web:      http://www.openfoam.org               |
|    \\/     M anipulation  |                                                 |
\*---------------------------------------------------------------------------*/
FoamFile
{
    version     2.0;
    format      ascii;
    class       surfaceScalarField;
    object      phi;
    location    "9.153";
}
// * * * * * * * * * * * * * * * * * * * * * * * * * * * * * * * * * * * * * //

dimensions      [1 0 -1 0 0 0 0];

internalField   nonuniform List<scalar> 
24170
(
1.75419e-06
2.21096e-06
5.14806e-07
1.44688e-06
-1.71131e-07
9.0815e-07
-5.4319e-07
5.99801e-07
-9.0681e-07
5.96344e-07
-1.03365e-06
3.61169e-07
-1.36265e-06
5.63638e-07
-1.35043e-06
2.23679e-07
-1.62783e-06
5.09989e-07
-1.48628e-06
8.91208e-08
-1.72066e-06
4.6335e-07
-1.35096e-06
-1.42681e-07
-1.48428e-06
3.55172e-07
-4.29453e-07
-8.37226e-07
5.29353e-07
-7.50236e-07
4.60822e-06
-3.87614e-06
5.48348e-06
-6.28841e-07
5.56892e-06
8.57072e-08
3.43149e-06
3.14338e-06
2.36304e-06
2.8146e-06
1.49474e-06
2.07446e-06
6.76746e-07
1.7204e-06
9.18588e-08
1.48486e-06
-3.95485e-07
1.15516e-06
-9.35854e-07
1.41113e-06
-1.22626e-06
8.19786e-07
-1.59842e-06
1.18531e-06
-1.80196e-06
5.8792e-07
-1.96717e-06
9.21492e-07
-1.83464e-06
9.4566e-09
-1.7332e-06
5.32156e-07
-8.29473e-07
-1.47709e-06
-5.35054e-07
-7.8846e-07
5.8469e-07
-4.76727e-06
-1.34428e-07
3.39811e-07
7.60643e-06
-1.98412e-06
4.30263e-06
3.57305e-06
3.6585e-06
3.78469e-06
3.08477e-06
2.97106e-06
2.37032e-06
2.76224e-06
1.8045e-06
2.38051e-06
1.07795e-06
2.21444e-06
6.43992e-07
2.18009e-06
1.91702e-07
1.60395e-06
-1.48697e-07
1.85769e-06
-3.00393e-07
1.05993e-06
-5.92591e-07
1.53544e-06
-4.15986e-07
1.43237e-07
-9.81696e-07
1.40339e-06
-6.3472e-07
-1.53062e-06
-1.06103e-06
-7.92187e-08
-1.09234e-06
-4.45982e-06
-1.25173e-06
7.60233e-07
9.27362e-06
-2.68143e-06
4.60201e-06
4.33111e-06
4.32364e-06
4.41349e-06
3.91785e-06
3.72652e-06
3.52973e-06
3.50287e-06
2.94604e-06
3.32239e-06
2.5173e-06
3.00146e-06
2.00161e-06
3.05824e-06
1.65654e-06
2.30844e-06
1.26196e-06
2.61222e-06
9.86555e-07
1.68054e-06
3.81704e-07
2.49053e-06
3.15441e-07
5.46411e-07
-2.72543e-07
2.32482e-06
-6.1298e-07
-8.69062e-07
-1.78496e-06
1.40453e-06
-1.76738e-06
-4.15963e-06
-3.00941e-06
2.28622e-06
9.49037e-06
-2.93866e-06
4.68352e-06
5.15513e-06
4.80813e-06
4.66128e-06
4.17121e-06
4.73775e-06
4.07371e-06
3.97818e-06
3.37257e-06
4.40738e-06
3.25843e-06
3.50068e-06
2.61785e-06
4.0862e-06
2.35099e-06
2.96218e-06
1.71626e-06
3.63201e-06
1.37829e-06
2.39176e-06
6.79647e-07
3.5671e-06
5.5312e-07
1.03805e-06
-1.45249e-07
3.38365e-06
-7.55231e-07
9.08395e-08
-1.86694e-06
2.86245e-06
-2.66406e-06
-3.03055e-06
-5.26618e-06
5.19558e-06
8.86441e-06
-4.35358e-06
5.32674e-06
6.59457e-06
5.33247e-06
5.04997e-06
4.47327e-06
5.99021e-06
4.16979e-06
4.68187e-06
3.34083e-06
5.64014e-06
3.21051e-06
4.03906e-06
2.68818e-06
5.01745e-06
2.51318e-06
3.54996e-06
1.83501e-06
4.71958e-06
1.52475e-06
3.10018e-06
9.06889e-07
4.58935e-06
8.06286e-07
1.53126e-06
2.22106e-07
4.35532e-06
-2.08293e-07
8.97885e-07
-9.59119e-07
3.99015e-06
-3.01145e-06
-6.19151e-07
-4.21814e-06
6.75911e-06
6.75056e-06
-1.77143e-06
5.94049e-06
7.75027e-06
5.77883e-06
5.61892e-06
5.01913e-06
7.15823e-06
4.5843e-06
5.53272e-06
3.78295e-06
6.85989e-06
3.57947e-06
4.66692e-06
3.0981e-06
5.92614e-06
2.82377e-06
4.25676e-06
2.16501e-06
5.80645e-06
1.93916e-06
3.74818e-06
1.54397e-06
5.40544e-06
9.69177e-07
2.52314e-06
7.1261e-07
5.02032e-06
1.36186e-07
1.87742e-06
-4.68498e-07
4.98998e-06
-2.40761e-06
1.71092e-06
-2.01394e-06
6.75073e-06
5.84043e-06
-7.20992e-07
4.62179e-06
8.69673e-06
4.21649e-06
6.31652e-06
3.71187e-06
7.95867e-06
3.39315e-06
6.15091e-06
3.03106e-06
7.52586e-06
2.77043e-06
5.23683e-06
2.43225e-06
6.57785e-06
2.09739e-06
4.90686e-06
1.81679e-06
6.40376e-06
1.48629e-06
4.39277e-06
1.31156e-06
5.88805e-06
7.50986e-07
3.39364e-06
6.8011e-07
5.3943e-06
2.09779e-08
2.83783e-06
-1.106e-07
5.41469e-06
-1.21863e-06
3.10951e-06
-5.37227e-07
6.35531e-06
6.12339e-06
-5.32493e-07
5.40386e-06
9.81938e-06
4.84012e-06
7.18857e-06
4.37192e-06
8.73921e-06
3.9471e-06
6.89322e-06
3.58201e-06
8.21763e-06
3.08841e-06
6.06282e-06
2.7137e-06
7.29065e-06
2.28903e-06
5.66965e-06
2.08118e-06
6.95843e-06
1.65479e-06
5.16519e-06
1.45766e-06
6.41945e-06
7.75977e-07
4.41688e-06
6.74557e-07
5.8299e-06
-1.10546e-07
3.95699e-06
-1.02141e-07
5.73244e-06
-9.64415e-07
4.29786e-06
-5.09729e-07
6.22192e-06
6.31004e-06
-3.75887e-07
6.43885e-06
1.07926e-05
5.63921e-06
8.30134e-06
5.0744e-06
9.61869e-06
4.4669e-06
7.82396e-06
4.15285e-06
8.86419e-06
3.53136e-06
7.02688e-06
3.18639e-06
7.98714e-06
2.61406e-06
6.59376e-06
2.37214e-06
7.56971e-06
1.79612e-06
6.11026e-06
1.58794e-06
6.98444e-06
8.19034e-07
5.55097e-06
7.24048e-07
6.28448e-06
-1.40922e-07
5.18348e-06
-7.39895e-08
6.02217e-06
-8.26858e-07
5.4081e-06
-3.94969e-07
6.14401e-06
6.37363e-06
-1.06326e-07
7.50309e-06
1.17499e-05
6.59449e-06
9.50311e-06
6.02434e-06
1.04826e-05
5.19837e-06
8.95507e-06
4.79461e-06
9.58708e-06
4.02666e-06
8.13039e-06
3.60608e-06
8.74977e-06
2.93432e-06
7.61326e-06
2.67059e-06
8.20941e-06
2.0166e-06
7.14158e-06
1.7823e-06
7.5835e-06
1.07296e-06
6.63471e-06
8.88027e-07
6.84329e-06
1.52224e-07
6.2987e-06
8.44819e-08
6.4679e-06
-4.03909e-07
6.27557e-06
-3.01868e-07
6.4205e-06
6.53369e-06
-8.26104e-08
8.70666e-06
1.29193e-05
7.60643e-06
1.0835e-05
7.01921e-06
1.1303e-05
6.09228e-06
1.01344e-05
5.58448e-06
1.03663e-05
4.69308e-06
9.31175e-06
4.1794e-06
9.5636e-06
3.36172e-06
8.74232e-06
2.98589e-06
8.93234e-06
2.24782e-06
8.23614e-06
1.88261e-06
8.29567e-06
1.18171e-06
7.69482e-06
8.74986e-07
7.51537e-06
3.04689e-07
7.24276e-06
8.91341e-08
7.0625e-06
-1.93906e-07
6.94371e-06
-2.71968e-07
6.88886e-06
6.79041e-06
-1.35045e-07
1.03243e-05
1.4132e-05
9.09983e-06
1.21701e-05
8.29562e-06
1.22204e-05
7.14869e-06
1.14197e-05
6.37672e-06
1.13e-05
5.34248e-06
1.05337e-05
4.69746e-06
1.04177e-05
3.81593e-06
9.85084e-06
3.22671e-06
9.78025e-06
2.49238e-06
9.25333e-06
2.02139e-06
9.05414e-06
1.38936e-06
8.63309e-06
9.20017e-07
8.30412e-06
4.60595e-07
8.03615e-06
9.23134e-08
7.77937e-06
-1.39543e-07
7.53795e-06
-2.36008e-07
7.35831e-06
7.12425e-06
-1.88913e-07
1.16463e-05
1.55244e-05
1.02129e-05
1.34968e-05
9.24493e-06
1.30898e-05
8.17964e-06
1.24158e-05
7.37097e-06
1.20712e-05
6.35702e-06
1.15475e-05
5.57271e-06
1.12337e-05
4.66038e-06
1.08288e-05
3.95026e-06
1.05891e-05
3.13406e-06
1.01952e-05
2.49015e-06
9.85629e-06
1.80896e-06
9.50011e-06
1.1938e-06
9.13286e-06
6.99286e-07
8.77004e-06
3.15537e-07
8.42776e-06
1.94581e-08
8.12127e-06
-1.25774e-07
7.81093e-06
7.44783e-06
-1.22879e-07
1.3458e-05
1.65284e-05
1.20271e-05
1.44701e-05
1.07698e-05
1.38993e-05
9.44321e-06
1.333e-05
8.30903e-06
1.28388e-05
7.16349e-06
1.23754e-05
6.15243e-06
1.19736e-05
5.21445e-06
1.15467e-05
4.36017e-06
1.12686e-05
3.49133e-06
1.09323e-05
2.74685e-06
1.05219e-05
2.02114e-06
1.01922e-05
1.35441e-06
9.81173e-06
8.24139e-07
9.3546e-06
3.75085e-07
8.97192e-06
7.49649e-08
8.55487e-06
-1.43625e-07
8.19936e-06
7.82298e-06
-3.14904e-07
1.55157e-05
1.721e-05
1.41284e-05
1.48545e-05
1.28079e-05
1.42327e-05
1.14603e-05
1.37383e-05
1.0127e-05
1.32951e-05
8.80444e-06
1.28863e-05
7.54653e-06
1.24878e-05
6.33353e-06
1.20842e-05
5.2773e-06
1.17168e-05
4.30806e-06
1.13586e-05
3.38529e-06
1.09663e-05
2.63526e-06
1.05416e-05
1.95724e-06
1.01584e-05
1.3424e-06
9.70554e-06
8.32914e-07
9.28226e-06
3.99014e-07
8.85034e-06
8.77483e-08
8.42972e-06
8.02419e-06
-1.41342e-07
1.86173e-05
1.70403e-05
1.67404e-05
1.49314e-05
1.49023e-05
1.43011e-05
1.31774e-05
1.37611e-05
1.15585e-05
1.32919e-05
1.0042e-05
1.28652e-05
8.62471e-06
1.24581e-05
7.30313e-06
1.20509e-05
6.1128e-06
1.16485e-05
5.03242e-06
1.12736e-05
4.02295e-06
1.09056e-05
3.08254e-06
1.05117e-05
2.26132e-06
1.01122e-05
1.50774e-06
9.69035e-06
8.65839e-07
9.25102e-06
3.2744e-07
8.80709e-06
-1.37413e-07
8.40053e-06
7.98384e-06
-5.08766e-07
1.89984e-05
1.63023e-05
1.72412e-05
1.42269e-05
1.55252e-05
1.35957e-05
1.38498e-05
1.30958e-05
1.21944e-05
1.26932e-05
1.05904e-05
1.23096e-05
9.07857e-06
1.19095e-05
7.66192e-06
1.15083e-05
6.39591e-06
1.10637e-05
5.25462e-06
1.06727e-05
4.22649e-06
1.03015e-05
3.27089e-06
9.9518e-06
2.39288e-06
9.5935e-06
1.57584e-06
9.22855e-06
8.19046e-07
8.8441e-06
1.26459e-07
8.44888e-06
-4.74192e-07
8.05809e-06
7.66574e-06
-9.96315e-07
1.68883e-05
1.5314e-05
1.53445e-05
1.30898e-05
1.39049e-05
1.24056e-05
1.2493e-05
1.19613e-05
1.11533e-05
1.1567e-05
9.84792e-06
1.1237e-05
8.59059e-06
1.0877e-05
7.35696e-06
1.05452e-05
6.15434e-06
1.01695e-05
5.0243e-06
9.80715e-06
3.97571e-06
9.46467e-06
3.01489e-06
9.13951e-06
2.15144e-06
8.8003e-06
1.3858e-06
8.45467e-06
6.73327e-07
8.12944e-06
3.04522e-09
7.80338e-06
-5.82822e-07
7.43837e-06
7.08824e-06
-1.10406e-06
1.48031e-05
1.33757e-05
1.36108e-05
1.15621e-05
1.24452e-05
1.09179e-05
1.13112e-05
1.05185e-05
1.01241e-05
1.02463e-05
8.99557e-06
9.93492e-06
7.88248e-06
9.63521e-06
6.79614e-06
9.35949e-06
5.6952e-06
9.08621e-06
4.6242e-06
8.7867e-06
3.62818e-06
8.47184e-06
2.70891e-06
8.17575e-06
1.87249e-06
7.86485e-06
1.1276e-06
7.53879e-06
4.72058e-07
7.23442e-06
-8.01686e-08
6.91362e-06
-6.28022e-07
6.64451e-06
6.34981e-06
-1.12884e-06
1.28862e-05
1.13478e-05
1.19279e-05
9.90578e-06
1.10184e-05
9.26807e-06
1.01232e-05
8.91325e-06
9.14931e-06
8.77968e-06
8.08416e-06
8.62608e-06
7.03837e-06
8.37059e-06
6.00874e-06
8.15021e-06
5.01054e-06
7.92101e-06
4.04171e-06
7.67736e-06
3.12815e-06
7.39911e-06
2.3088e-06
7.1059e-06
1.57841e-06
6.80616e-06
9.16985e-07
6.51301e-06
3.20178e-07
6.24652e-06
-2.18235e-07
5.97099e-06
-6.93163e-07
5.74013e-06
5.50805e-06
-1.1337e-06
1.1575e-05
9.49564e-06
1.0943e-05
8.08926e-06
1.01466e-05
7.65702e-06
9.2822e-06
7.41827e-06
8.4456e-06
7.30907e-06
7.58157e-06
7.23548e-06
6.67086e-06
7.07878e-06
5.77906e-06
6.90143e-06
4.91105e-06
6.71384e-06
4.06638e-06
6.52297e-06
3.26908e-06
6.27822e-06
2.50963e-06
6.03365e-06
1.79859e-06
5.77654e-06
1.13271e-06
5.53132e-06
5.21317e-07
5.30505e-06
-4.1181e-08
5.07574e-06
-5.40878e-07
4.87736e-06
4.6782e-06
-9.80459e-07
1.02172e-05
7.8811e-06
9.62692e-06
6.41909e-06
8.97015e-06
6.08801e-06
8.26001e-06
5.94443e-06
7.55459e-06
5.87317e-06
6.85875e-06
5.83043e-06
6.102e-06
5.77934e-06
5.33652e-06
5.66399e-06
4.58184e-06
5.52219e-06
3.8433e-06
5.38143e-06
3.11453e-06
5.19784e-06
2.41205e-06
5.00454e-06
1.72286e-06
4.81655e-06
1.06405e-06
4.62563e-06
4.81616e-07
4.40959e-06
-4.99179e-08
4.2149e-06
-5.05593e-07
4.02747e-06
3.83418e-06
-8.82806e-07
9.43946e-06
6.03885e-06
8.85638e-06
4.94387e-06
8.1894e-06
4.72242e-06
7.49372e-06
4.64231e-06
6.79017e-06
4.61323e-06
6.10777e-06
4.58283e-06
5.4504e-06
4.54511e-06
4.76347e-06
4.50329e-06
4.09963e-06
4.38821e-06
3.47194e-06
4.26923e-06
2.86823e-06
4.12445e-06
2.28518e-06
3.97989e-06
1.73413e-06
3.83298e-06
1.20751e-06
3.69361e-06
6.89318e-07
3.54663e-06
2.15169e-07
3.38683e-06
-2.17994e-07
3.23696e-06
3.09778e-06
-6.28975e-07
8.43844e-06
4.69865e-06
7.95601e-06
3.56301e-06
7.4853e-06
3.35061e-06
6.93949e-06
3.37532e-06
6.33825e-06
3.42966e-06
5.7153e-06
3.44966e-06
5.09882e-06
3.43802e-06
4.50158e-06
3.4142e-06
3.90191e-06
3.34561e-06
3.33724e-06
3.24173e-06
2.80235e-06
3.12316e-06
2.29229e-06
3.01532e-06
1.7942e-06
2.92153e-06
1.31291e-06
2.834e-06
8.57327e-07
2.73118e-06
4.10498e-07
2.63448e-06
-2.00233e-08
2.53917e-06
2.4221e-06
-4.0378e-07
7.81711e-06
3.39931e-06
7.40906e-06
2.29484e-06
6.94295e-06
2.15614e-06
6.41664e-06
2.2662e-06
5.87645e-06
2.3582e-06
5.31508e-06
2.42419e-06
4.7418e-06
2.45198e-06
4.17159e-06
2.45761e-06
3.59966e-06
2.42912e-06
3.04083e-06
2.35607e-06
2.48e-06
2.28948e-06
1.939e-06
2.21664e-06
1.4325e-06
2.14707e-06
9.61225e-07
2.08566e-06
5.15393e-07
2.02079e-06
1.04126e-07
1.95323e-06
-2.61388e-07
1.87534e-06
1.79151e-06
-5.98036e-07
6.97415e-06
2.01751e-06
6.7549e-06
1.01032e-06
6.34728e-06
1.0731e-06
5.83992e-06
1.30527e-06
5.2871e-06
1.46278e-06
4.7049e-06
1.57939e-06
4.12984e-06
1.62385e-06
3.56767e-06
1.64504e-06
3.0035e-06
1.65227e-06
2.45514e-06
1.60233e-06
1.90496e-06
1.58199e-06
1.38461e-06
1.52852e-06
8.61735e-07
1.51359e-06
3.77071e-07
1.46893e-06
-6.49701e-08
1.41779e-06
-4.63478e-07
1.36346e-06
-8.1656e-07
1.29673e-06
1.23478e-06
-1.13596e-06
6.29331e-06
7.0202e-07
6.02059e-06
-6.1218e-08
5.51914e-06
2.39572e-07
4.9186e-06
5.89465e-07
4.26102e-06
8.22467e-07
3.58212e-06
9.7927e-07
2.93622e-06
1.01161e-06
2.31337e-06
1.03504e-06
1.72215e-06
1.0408e-06
1.09051e-06
1.06578e-06
5.19981e-07
1.02363e-06
-6.77264e-08
1.03108e-06
-5.88048e-07
9.94837e-07
-1.06504e-06
9.55262e-07
-1.50131e-06
9.13108e-07
-1.90461e-06
8.75962e-07
-2.26968e-06
8.20964e-07
7.7394e-07
-2.60044e-06
5.49584e-06
-3.51305e-07
4.67648e-06
-4.39422e-07
3.7378e-06
-1.19681e-08
2.87833e-06
2.74666e-07
2.08249e-06
4.60388e-07
1.36747e-06
5.51977e-07
6.74288e-07
5.81129e-07
3.38465e-08
5.74384e-07
-5.61395e-07
5.61442e-07
-1.09402e-06
5.53937e-07
-1.60036e-06
5.1985e-07
-2.04508e-06
5.03653e-07
-2.46673e-06
4.85031e-07
-2.86977e-06
4.69569e-07
-3.24685e-06
4.45574e-07
-3.59404e-06
4.23152e-07
-3.92258e-06
3.94272e-07
3.63065e-07
-4.22318e-06
3.44714e-06
1.93376e-06
8.62185e-07
9.36884e-08
-4.73384e-07
-9.34128e-07
-1.34855e-06
-1.74923e-06
-2.13895e-06
-2.50898e-06
-2.88217e-06
-3.23743e-06
-3.57474e-06
-3.88914e-06
-4.1881e-06
-4.46954e-06
-4.7403e-06
-5.00474e-06
2.02146e-07
-2.62905e-07
3.42053e-07
-2.10413e-07
4.77506e-07
-2.11075e-07
6.27878e-07
-2.28532e-07
7.89187e-07
-2.42391e-07
9.5735e-07
-2.52867e-07
1.12883e-06
-2.60267e-07
1.30113e-06
-2.65898e-07
1.46758e-06
-2.65344e-07
1.61919e-06
-2.56564e-07
1.74931e-06
-2.41741e-07
1.85704e-06
-2.26463e-07
1.94785e-06
-2.17029e-07
2.02872e-06
-2.15171e-07
2.10395e-06
-2.18844e-07
2.15156e-06
-2.01652e-07
2.15794e-06
-1.71195e-07
2.12336e-06
-1.40845e-07
2.05553e-06
-1.18076e-07
1.96948e-06
-1.1086e-07
1.87092e-06
-1.10123e-07
1.7788e-06
-1.29158e-07
1.69643e-06
-1.5227e-07
1.61837e-06
-1.70604e-07
1.5244e-06
-1.68776e-07
1.39848e-06
-1.50307e-07
1.23867e-06
-1.30293e-07
1.05214e-06
-1.18554e-07
8.54051e-07
-1.22489e-07
6.45985e-07
-1.27783e-07
4.3915e-07
-1.44314e-07
2.41268e-07
-1.68802e-07
5.69855e-08
-1.97933e-07
-1.15295e-07
-2.25197e-07
-2.69217e-07
-2.58648e-07
-4.04014e-07
-2.92197e-07
-5.03672e-07
-3.41785e-07
-5.70047e-07
-3.89208e-07
-5.78541e-07
-4.61393e-07
-5.24127e-07
-5.38645e-07
-3.73852e-07
-6.47995e-07
-1.05565e-07
-7.78546e-07
2.78359e-07
-9.05147e-07
7.34865e-07
-9.87645e-07
1.22393e-06
-1.03018e-06
1.71432e-06
-1.04153e-06
2.19573e-06
-1.04216e-06
2.65612e-06
-1.02813e-06
3.13389e-06
-1.04824e-06
3.63299e-06
-1.07272e-06
4.06313e-06
-1.00908e-06
4.4419e-06
-9.58281e-07
4.80984e-06
-9.38991e-07
5.24918e-06
-1.00117e-06
5.78101e-06
-1.09155e-06
6.3181e-06
-1.09641e-06
6.82207e-06
-1.05869e-06
7.25443e-06
-9.75362e-07
7.62579e-06
-8.97098e-07
7.96014e-06
-8.41088e-07
8.28072e-06
-8.05971e-07
8.61802e-06
-8.0121e-07
8.99028e-06
-8.16013e-07
9.36616e-06
-8.03095e-07
9.76114e-06
-8.10925e-07
1.01662e-05
-8.08599e-07
1.05382e-05
-7.56424e-07
1.08603e-05
-6.82167e-07
1.10926e-05
-5.66297e-07
1.12311e-05
-4.48276e-07
1.13311e-05
-3.904e-07
1.14691e-05
-4.14931e-07
1.17366e-05
-5.44977e-07
1.22553e-05
-8.11609e-07
1.29474e-05
-9.8007e-07
1.36935e-05
-1.00911e-06
1.44307e-05
-1.04757e-06
1.49427e-05
-9.28574e-07
1.50585e-05
-5.43344e-07
1.48867e-05
-1.81265e-07
1.45344e-05
2.23604e-08
1.41589e-05
-7.91402e-10
1.42897e-05
-5.68505e-07
1.51264e-05
-1.32952e-06
1.62276e-05
-1.6444e-06
1.70635e-05
-1.44423e-06
1.76422e-05
-1.29054e-06
1.80664e-05
-1.28406e-06
1.80553e-05
-9.92473e-07
1.73225e-05
-3.17286e-07
1.57343e-05
6.10612e-07
1.34231e-05
1.38226e-06
1.07209e-05
1.71167e-06
8.03453e-06
1.59492e-06
5.54997e-06
1.29872e-06
3.27945e-06
1.00314e-06
1.26522e-06
7.05096e-07
-5.69684e-07
4.71046e-07
-2.21446e-06
2.36493e-07
-3.57461e-06
-8.03202e-08
-4.71908e-06
-3.14468e-07
-5.65056e-06
-5.35765e-07
-6.15889e-06
-9.55847e-07
-5.79594e-06
-1.82128e-06
-4.85994e-06
-2.41099e-06
-4.73444e-06
-1.6348e-06
-6.66615e-06
4.67534e-07
-8.4573e-06
4.52466e-07
-7.17866e-06
-2.4962e-06
-3.46146e-06
-4.94009e-06
-8.20457e-07
-3.91463e-06
-3.71618e-07
-1.7126e-06
-1.42923e-06
-1.52089e-07
-1.3665e-06
-1.21633e-06
-8.22173e-07
-1.63225e-06
9.19469e-07
-2.75548e-06
2.85592e-06
-2.90744e-06
4.17097e-06
-2.25727e-06
4.92891e-06
-1.65977e-06
5.44228e-06
-1.37419e-06
6.02599e-06
-1.41368e-06
6.72063e-06
-1.50848e-06
7.36954e-06
-1.45185e-06
7.91305e-06
-1.33461e-06
8.33099e-06
-1.20084e-06
8.70143e-06
-1.16009e-06
8.98752e-06
-1.09609e-06
9.27498e-06
-1.13454e-06
9.51681e-06
-1.1334e-06
9.78561e-06
-1.20827e-06
1.00532e-05
-1.26175e-06
1.03661e-05
-1.3784e-06
1.08045e-05
-1.60012e-06
1.11379e-05
-1.60401e-06
1.16221e-05
-1.88215e-06
1.21315e-05
-2.04037e-06
1.2716e-05
-2.26708e-06
1.32479e-05
-2.35858e-06
1.38604e-05
-2.59534e-06
1.42947e-05
-2.54825e-06
1.49573e-05
-2.93561e-06
1.54614e-05
-2.91085e-06
1.60922e-05
-3.2063e-06
1.65725e-05
-3.16498e-06
1.69364e-05
-3.19634e-06
1.64351e-05
-2.54172e-06
1.66262e-05
-3.28501e-06
1.66851e-05
-3.31433e-06
1.75597e-05
-4.33664e-06
1.93143e-05
-5.4874e-06
2.06219e-05
-5.28417e-06
2.25273e-05
-6.18912e-06
2.31248e-05
-4.9432e-06
2.36301e-05
-4.91102e-06
2.41924e-05
-5.0266e-06
2.44676e-05
-4.88481e-06
2.47257e-05
-5.33062e-06
2.4746e-05
-5.72586e-06
2.41528e-05
-5.61885e-06
2.31223e-05
-5.45008e-06
2.19914e-05
-5.75961e-06
2.01935e-05
-5.59699e-06
1.81302e-05
-5.79867e-06
1.65492e-05
-6.74161e-06
1.53797e-05
-7.68446e-06
1.38741e-05
-7.89902e-06
1.16018e-05
-7.44822e-06
8.17444e-06
-6.15944e-06
3.30287e-06
-4.48549e-06
-2.35496e-06
-3.80484e-06
-7.26134e-06
-4.96971e-06
-1.02724e-05
-6.99503e-06
-1.21304e-05
-8.08449e-06
-1.1703e-05
-1.02521e-05
-1.11102e-05
-9.70327e-06
-1.2689e-05
-7.43571e-06
-1.50607e-05
-6.38477e-06
-1.71512e-05
-6.50405e-06
-1.75261e-05
-7.62566e-06
-7.45929e-06
-1.78007e-05
1.79402e-07
-4.98927e-07
2.89735e-07
-3.91365e-07
4.13769e-07
-4.13313e-07
5.55685e-07
-4.51211e-07
7.02979e-07
-4.72975e-07
8.5143e-07
-4.88553e-07
1.01219e-06
-5.12339e-07
1.18663e-06
-5.36335e-07
1.36359e-06
-5.44236e-07
1.5308e-06
-5.32674e-07
1.70273e-06
-5.31403e-07
1.85799e-06
-5.09093e-07
1.95245e-06
-4.46641e-07
1.99471e-06
-3.97766e-07
1.99002e-06
-3.58839e-07
1.95194e-06
-3.16318e-07
1.87947e-06
-2.63955e-07
1.77725e-06
-2.17533e-07
1.66345e-06
-1.96725e-07
1.54002e-06
-1.92288e-07
1.41595e-06
-2.03261e-07
1.26072e-06
-2.0308e-07
1.04655e-06
-1.78521e-07
7.38559e-07
-1.15056e-07
3.7734e-07
-7.47913e-08
-1.1745e-08
-4.47797e-08
-3.99624e-07
-4.11358e-08
-7.5778e-07
-7.39066e-08
-1.0703e-06
-1.38305e-07
-1.32951e-06
-2.1181e-07
-1.53902e-06
-2.92992e-07
-1.70882e-06
-3.72836e-07
-1.84076e-06
-4.55009e-07
-1.92711e-06
-5.42641e-07
-1.97777e-06
-6.27804e-07
-1.98558e-06
-7.18704e-07
-1.94305e-06
-8.32022e-07
-1.83608e-06
-9.57083e-07
-1.66047e-06
-1.11074e-06
-1.38882e-06
-1.29627e-06
-1.02257e-06
-1.51296e-06
-5.79319e-07
-1.73246e-06
-7.80598e-08
-1.92798e-06
4.72968e-07
-2.07029e-06
1.05292e-06
-2.15095e-06
1.67254e-06
-2.21e-06
2.29091e-06
-2.21859e-06
2.92267e-06
-2.22928e-06
3.55204e-06
-2.25348e-06
4.20361e-06
-2.29613e-06
4.83391e-06
-2.21395e-06
5.4153e-06
-2.13857e-06
5.9283e-06
-2.05918e-06
6.4914e-06
-2.1418e-06
7.12383e-06
-2.28168e-06
7.7475e-06
-2.27745e-06
8.33872e-06
-2.21606e-06
8.74447e-06
-1.95375e-06
8.9615e-06
-1.66796e-06
9.12511e-06
-1.53334e-06
9.36315e-06
-1.54307e-06
9.74229e-06
-1.64594e-06
1.0231e-05
-1.73681e-06
1.07604e-05
-1.73316e-06
1.12814e-05
-1.72581e-06
1.18142e-05
-1.74634e-06
1.23014e-05
-1.64998e-06
1.27464e-05
-1.51954e-06
1.31164e-05
-1.30019e-06
1.34245e-05
-1.08396e-06
1.37105e-05
-9.73208e-07
1.39808e-05
-9.64947e-07
1.42221e-05
-1.05874e-06
1.46732e-05
-1.5485e-06
1.52956e-05
-1.93486e-06
1.57294e-05
-1.78989e-06
1.62534e-05
-1.88397e-06
1.73598e-05
-2.33425e-06
1.86842e-05
-2.2129e-06
1.94942e-05
-1.44693e-06
1.94329e-05
-4.50366e-07
1.87186e-05
2.185e-07
1.8013e-05
-3.29928e-07
1.8157e-05
-1.96213e-06
1.90464e-05
-3.01571e-06
1.99562e-05
-2.8608e-06
1.9824e-05
-1.84363e-06
1.80599e-05
-4.10009e-07
1.50882e-05
1.04464e-06
1.1665e-05
2.18558e-06
8.5137e-06
2.81086e-06
5.88606e-06
2.99011e-06
3.64241e-06
2.85163e-06
1.58596e-06
2.46435e-06
-2.76587e-07
1.89813e-06
-1.96903e-06
1.36667e-06
-3.53081e-06
8.88422e-07
-4.75041e-06
2.78874e-07
-5.5648e-06
-3.83245e-07
-6.1733e-06
-9.25997e-07
-6.71394e-06
-1.24271e-06
-7.25087e-06
-1.45504e-06
-7.24125e-06
-2.39976e-06
-6.37075e-06
-4.15488e-06
-5.25887e-06
-5.06874e-06
-5.5472e-06
-2.97533e-06
-7.81508e-06
1.16749e-06
-9.21877e-06
7.69817e-07
-7.55634e-06
-5.20553e-06
-4.27725e-06
-9.63281e-06
-1.87447e-06
-7.72692e-06
-7.74809e-08
-4.75554e-06
-7.8882e-07
-7.04383e-07
-7.05215e-07
-2.48457e-06
-3.40922e-08
-3.3985e-06
1.88783e-06
-5.63022e-06
4.3284e-06
-6.19221e-06
6.10684e-06
-4.90615e-06
7.04265e-06
-3.5197e-06
7.5803e-06
-2.82477e-06
8.30077e-06
-2.97711e-06
9.33478e-06
-3.31556e-06
1.042e-05
-3.31781e-06
1.13783e-05
-3.1474e-06
1.20298e-05
-2.73817e-06
1.25281e-05
-2.50787e-06
1.30614e-05
-2.42788e-06
1.3674e-05
-2.53695e-06
1.41852e-05
-2.53211e-06
1.45322e-05
-2.60437e-06
1.47567e-05
-2.66549e-06
1.50418e-05
-2.89543e-06
1.53581e-05
-3.17406e-06
1.57102e-05
-3.29116e-06
1.59504e-05
-3.60375e-06
1.63217e-05
-4.03224e-06
1.67816e-05
-4.51359e-06
1.70401e-05
-4.56706e-06
1.75764e-05
-5.28958e-06
1.81038e-05
-5.45662e-06
1.84619e-05
-5.91517e-06
1.86151e-05
-5.81616e-06
1.92463e-05
-6.86903e-06
1.96042e-05
-6.65679e-06
1.93347e-05
-6.06796e-06
1.745e-05
-4.43021e-06
1.67588e-05
-5.90616e-06
1.65789e-05
-6.50878e-06
1.74899e-05
-8.58402e-06
2.00855e-05
-1.13361e-05
2.27803e-05
-1.14722e-05
2.6736e-05
-1.41825e-05
2.75432e-05
-1.05726e-05
2.75401e-05
-1.002e-05
2.71629e-05
-9.58104e-06
2.63383e-05
-9.07159e-06
2.64982e-05
-1.09799e-05
2.67134e-05
-1.21566e-05
2.65314e-05
-1.26928e-05
2.55763e-05
-1.2393e-05
2.4088e-05
-1.24435e-05
2.21557e-05
-1.23184e-05
2.00392e-05
-1.30691e-05
1.84741e-05
-1.50729e-05
1.7265e-05
-1.68669e-05
1.54413e-05
-1.73229e-05
1.22735e-05
-1.60896e-05
7.61505e-06
-1.30232e-05
1.76774e-06
-9.78536e-06
-4.14287e-06
-9.39297e-06
-8.75052e-06
-1.25166e-05
-1.12499e-05
-1.66159e-05
-1.22964e-05
-1.8735e-05
-1.12541e-05
-2.19007e-05
-1.03573e-05
-2.00867e-05
-1.22145e-05
-1.62468e-05
-1.65801e-05
-1.17605e-05
-1.97769e-05
-1.26287e-05
-1.78751e-05
-1.85495e-05
-1.93253e-05
-1.53626e-05
2.09458e-07
-7.57615e-07
3.27366e-07
-5.74865e-07
4.3675e-07
-5.96774e-07
5.92342e-07
-6.84304e-07
7.80337e-07
-7.41629e-07
9.64353e-07
-7.57002e-07
1.15071e-06
-7.87203e-07
1.37016e-06
-8.48399e-07
1.58607e-06
-8.58694e-07
1.73251e-06
-7.82241e-07
1.7875e-06
-6.91647e-07
1.79166e-06
-6.24714e-07
1.76743e-06
-5.45546e-07
1.68585e-06
-4.54313e-07
1.57632e-06
-4.0298e-07
1.4704e-06
-3.7184e-07
1.37114e-06
-3.31513e-07
1.25679e-06
-2.76571e-07
1.11573e-06
-2.3722e-07
8.942e-07
-1.65367e-07
5.13884e-07
-3.08647e-08
-1.88705e-09
9.08004e-08
-6.37724e-07
2.21807e-07
-1.28505e-06
2.84129e-07
-1.8689e-06
2.48031e-07
-2.33933e-06
1.52653e-07
-2.70986e-06
4.29687e-08
-2.98902e-06
-9.69922e-08
-3.19378e-06
-2.4833e-07
-3.35309e-06
-3.78836e-07
-3.48169e-06
-5.07193e-07
-3.57698e-06
-6.37049e-07
-3.63737e-06
-7.67418e-07
-3.66558e-06
-9.0034e-07
-3.65354e-06
-1.03896e-06
-3.5883e-06
-1.19387e-06
-3.46338e-06
-1.37659e-06
-3.2575e-06
-1.59228e-06
-2.98955e-06
-1.8181e-06
-2.65863e-06
-2.07715e-06
-2.27472e-06
-2.35843e-06
-1.83475e-06
-2.64347e-06
-1.34993e-06
-2.89198e-06
-8.15389e-07
-3.09102e-06
-1.86977e-07
-3.27194e-06
5.04762e-07
-3.40131e-06
1.25739e-06
-3.47887e-06
2.01184e-06
-3.50107e-06
2.72622e-06
-3.49585e-06
3.39159e-06
-3.493e-06
4.08607e-06
-3.43297e-06
4.86257e-06
-3.43739e-06
5.72206e-06
-3.45335e-06
6.65499e-06
-3.61369e-06
7.49938e-06
-3.67274e-06
8.23641e-06
-3.5676e-06
9.00868e-06
-3.51071e-06
9.68401e-06
-3.13928e-06
1.02279e-05
-2.7351e-06
1.07263e-05
-2.5612e-06
1.12331e-05
-2.57778e-06
1.1724e-05
-2.64249e-06
1.216e-05
-2.64296e-06
1.25871e-05
-2.59426e-06
1.31078e-05
-2.63683e-06
1.3786e-05
-2.77151e-06
1.46177e-05
-2.80492e-06
1.54604e-05
-2.69205e-06
1.62214e-05
-2.41234e-06
1.68297e-05
-2.04395e-06
1.74396e-05
-1.91645e-06
1.79948e-05
-1.84513e-06
1.83305e-05
-1.70896e-06
1.86654e-05
-2.16022e-06
1.88883e-05
-2.45637e-06
1.88802e-05
-2.15836e-06
1.91057e-05
-2.4911e-06
1.93959e-05
-2.96725e-06
1.94795e-05
-2.62291e-06
2.03132e-05
-2.62169e-06
2.14243e-05
-1.99008e-06
2.14291e-05
-3.25127e-07
2.10687e-05
-5.5933e-07
2.10952e-05
-2.56837e-06
2.0449e-05
-2.95299e-06
1.83563e-05
-1.40632e-06
1.51973e-05
5.89486e-07
1.18904e-05
2.08804e-06
9.02963e-06
3.03607e-06
6.65266e-06
3.62294e-06
4.65066e-06
3.78274e-06
3.00373e-06
3.52118e-06
1.70306e-06
2.97023e-06
4.95333e-07
2.41968e-06
-7.25411e-07
1.80971e-06
-2.01507e-06
1.2971e-06
-3.29052e-06
7.66113e-07
-4.24775e-06
-1.84811e-07
-4.70751e-06
-1.3664e-06
-4.9448e-06
-2.17691e-06
-5.30586e-06
-2.41773e-06
-5.76967e-06
-2.53569e-06
-5.85546e-06
-3.85703e-06
-5.53746e-06
-6.08097e-06
-5.26879e-06
-7.00719e-06
-5.67683e-06
-4.18308e-06
-6.86026e-06
7.58736e-07
-8.14037e-06
7.35814e-07
-7.54364e-06
-7.27098e-06
-5.791e-06
-1.31191e-05
-4.39498e-06
-1.0581e-05
-1.04187e-06
-9.3271e-06
-3.72846e-07
-2.70394e-06
4.34914e-08
-4.11466e-06
8.63464e-07
-5.3579e-06
2.51235e-06
-8.34159e-06
4.79887e-06
-9.35408e-06
6.92419e-06
-7.75183e-06
8.17763e-06
-5.58064e-06
8.63146e-06
-4.2415e-06
9.08689e-06
-4.4462e-06
1.00141e-05
-5.17394e-06
1.11833e-05
-5.22347e-06
1.24563e-05
-5.04474e-06
1.34238e-05
-4.5275e-06
1.3948e-05
-4.07675e-06
1.42661e-05
-3.79432e-06
1.48329e-05
-4.00093e-06
1.5753e-05
-4.26534e-06
1.64482e-05
-4.19715e-06
1.68881e-05
-4.15409e-06
1.74802e-05
-4.70024e-06
1.77792e-05
-4.8912e-06
1.7937e-05
-4.98188e-06
1.83728e-05
-5.63227e-06
1.86338e-05
-5.92283e-06
1.92214e-05
-6.80581e-06
1.96546e-05
-6.97477e-06
2.00175e-05
-7.70828e-06
2.03774e-05
-7.90698e-06
2.09402e-05
-8.95256e-06
2.10436e-05
-8.785e-06
2.1303e-05
-1.03253e-05
2.1891e-05
-1.05378e-05
2.15922e-05
-9.05717e-06
1.79525e-05
-5.98031e-06
1.56643e-05
-7.41187e-06
1.45413e-05
-8.60351e-06
1.4624e-05
-1.1765e-05
1.62074e-05
-1.50522e-05
1.91864e-05
-1.64501e-05
2.58958e-05
-2.20796e-05
2.89999e-05
-1.69098e-05
2.94422e-05
-1.51416e-05
2.87446e-05
-1.39169e-05
2.66023e-05
-1.29107e-05
2.54554e-05
-1.55281e-05
2.58381e-05
-1.75052e-05
2.65487e-05
-1.91635e-05
2.6724e-05
-2.00781e-05
2.57902e-05
-2.03103e-05
2.36728e-05
-1.94854e-05
2.1462e-05
-2.06104e-05
2.00259e-05
-2.37969e-05
1.89295e-05
-2.61477e-05
1.68527e-05
-2.64951e-05
1.30947e-05
-2.44097e-05
7.5298e-06
-1.96886e-05
1.25044e-06
-1.58479e-05
-4.53832e-06
-1.64219e-05
-8.3073e-06
-2.15045e-05
-1.07268e-05
-2.65493e-05
-1.10428e-05
-3.01427e-05
-1.01026e-05
-3.23535e-05
-1.01227e-05
-2.85211e-05
-1.3166e-05
-2.40336e-05
-1.88234e-05
-1.59188e-05
-2.38323e-05
-1.72678e-05
-2.1973e-05
-3.02052e-05
-3.60094e-05
-1.55067e-05
2.04552e-07
-1.00407e-06
3.21477e-07
-7.51578e-07
5.17607e-07
-8.6146e-07
7.60587e-07
-9.9834e-07
9.71916e-07
-1.02824e-06
1.16217e-06
-1.02691e-06
1.32065e-06
-1.02861e-06
1.44695e-06
-1.0607e-06
1.50495e-06
-1.00923e-06
1.45362e-06
-8.31018e-07
1.36481e-06
-7.10575e-07
1.30127e-06
-6.71873e-07
1.2448e-06
-6.04643e-07
1.18397e-06
-5.18649e-07
1.08937e-06
-4.41987e-07
9.3888e-07
-3.64471e-07
6.96528e-07
-2.42646e-07
3.26902e-07
-7.23464e-08
-2.1696e-07
1.2985e-07
-9.24788e-07
3.52674e-07
-1.69544e-06
5.3755e-07
-2.43735e-06
6.23069e-07
-3.04671e-06
6.12969e-07
-3.51968e-06
5.26923e-07
-3.87403e-06
3.59913e-07
-4.12136e-06
1.46371e-07
-4.29113e-06
-5.31945e-08
-4.39021e-06
-2.78607e-07
-4.46177e-06
-4.71439e-07
-4.48476e-06
-6.61468e-07
-4.48401e-06
-8.2839e-07
-4.47589e-06
-9.80282e-07
-4.44816e-06
-1.14307e-06
-4.41902e-06
-1.28968e-06
-4.35927e-06
-1.47033e-06
-4.2512e-06
-1.685e-06
-4.06493e-06
-1.95652e-06
-3.82192e-06
-2.24013e-06
-3.52149e-06
-2.5349e-06
-3.14895e-06
-2.8772e-06
-2.7287e-06
-3.21879e-06
-2.24947e-06
-3.57453e-06
-1.73963e-06
-3.86274e-06
-1.17023e-06
-4.12796e-06
-5.69645e-07
-4.34467e-06
7.42404e-08
-4.52042e-06
7.68784e-07
-4.65058e-06
1.49079e-06
-4.70321e-06
2.2002e-06
-4.69057e-06
2.88463e-06
-4.66833e-06
3.55876e-06
-4.60209e-06
4.20514e-06
-4.57239e-06
4.89476e-06
-4.61906e-06
5.53502e-06
-4.71288e-06
6.08e-06
-4.67062e-06
6.63851e-06
-4.60157e-06
7.29615e-06
-4.64091e-06
8.15825e-06
-4.46341e-06
9.18443e-06
-4.24099e-06
1.01883e-05
-4.04988e-06
1.10837e-05
-3.93763e-06
1.18006e-05
-3.80614e-06
1.2397e-05
-3.67268e-06
1.29891e-05
-3.60793e-06
1.37226e-05
-3.78768e-06
1.47367e-05
-4.18611e-06
1.59602e-05
-4.4117e-06
1.72833e-05
-4.38005e-06
1.85884e-05
-4.0503e-06
1.96851e-05
-3.46402e-06
2.0596e-05
-3.14552e-06
2.12722e-05
-2.84513e-06
2.17105e-05
-2.47736e-06
2.21425e-05
-2.86923e-06
2.23602e-05
-3.00658e-06
2.22149e-05
-2.41377e-06
2.22922e-05
-2.87006e-06
2.23552e-05
-3.3855e-06
2.23993e-05
-3.14823e-06
2.26774e-05
-3.24924e-06
2.24628e-05
-2.11834e-06
2.16591e-05
-1.13624e-07
2.10721e-05
-5.82232e-07
1.98534e-05
-1.88276e-06
1.73259e-05
-1.03886e-06
1.41571e-05
1.06773e-06
1.11145e-05
2.86098e-06
8.42066e-06
3.91126e-06
6.1846e-06
4.31408e-06
4.45622e-06
4.3125e-06
3.26687e-06
3.86171e-06
2.36527e-06
3.24693e-06
1.476e-06
2.62003e-06
6.10185e-07
1.98666e-06
-3.5738e-07
1.42514e-06
-1.53583e-06
1.07519e-06
-2.72885e-06
5.28069e-07
-3.67823e-06
-6.82621e-07
-4.29331e-06
-2.2419e-06
-4.74231e-06
-3.29347e-06
-5.24514e-06
-3.52128e-06
-5.46171e-06
-3.93029e-06
-5.47679e-06
-5.47703e-06
-5.801e-06
-7.44098e-06
-6.42028e-06
-8.0617e-06
-6.14959e-06
-6.05648e-06
-4.78542e-06
-2.17144e-06
-4.92531e-06
-7.02832e-07
-5.95047e-06
-7.92022e-06
-5.77202e-06
-1.47436e-05
-5.4333e-06
-1.22355e-05
-2.43968e-06
-1.37522e-05
-2.56974e-07
-6.31081e-06
1.01523e-06
-6.65033e-06
2.22654e-06
-7.79637e-06
3.46789e-06