/*--------------------------------*- C++ -*----------------------------------*\
| =========                 |                                                 |
| \\      /  F ield         | OpenFOAM: The Open Source CFD Toolbox           |
|  \\    /   O peration     | Version:  dev                                   |
|   \\  /    A nd           | Web:      http://www.openfoam.org               |
|    \\/     M anipulation  |                                                 |
\*---------------------------------------------------------------------------*/
FoamFile
{
    version     2.0;
    format      ascii;
    class       surfaceScalarField;
    object      phi_0;
    location    "9.153";
}
// * * * * * * * * * * * * * * * * * * * * * * * * * * * * * * * * * * * * * //

dimensions      [1 0 -1 0 0 0 0];

internalField   nonuniform List<scalar> 
24170
(
1.61891e-06
1.81582e-06
2.88901e-07
1.08368e-06
-5.06087e-07
5.76926e-07
-9.87015e-07
2.84379e-07
-1.46478e-06
3.03456e-07
-1.70455e-06
8.17282e-08
-2.14732e-06
3.03022e-07
-2.24685e-06
-2.15435e-08
-2.63921e-06
2.90688e-07
-2.61706e-06
-1.03119e-07
-2.97138e-06
2.91419e-07
-2.70518e-06
-3.07892e-07
-3.01498e-06
2.83906e-07
-2.06802e-06
-9.54364e-07
-1.35097e-06
-7.10911e-07
2.54751e-06
-3.86201e-06
2.92678e-06
-3.44806e-07
5.93991e-06
-3.02831e-06
3.29779e-06
2.40401e-06
2.13258e-06
2.05121e-06
1.16209e-06
1.36127e-06
2.36632e-07
1.04428e-06
-4.65068e-07
8.60573e-07
-1.05863e-06
5.50819e-07
-1.7116e-06
8.51251e-07
-2.12613e-06
3.08435e-07
-2.58832e-06
6.8963e-07
-2.94652e-06
2.11503e-07
-3.22644e-06
5.47779e-07
-3.23225e-06
-3.0858e-07
-3.31509e-06
3.78823e-07
-2.57201e-06
-1.6773e-06
-2.63381e-06
-6.09723e-07
-1.94227e-06
-4.52406e-06
-2.00832e-06
-2.39674e-07
7.97224e-06
-4.02982e-06
4.15794e-06
2.44378e-06
3.39461e-06
2.59304e-06
2.70788e-06
1.83777e-06
1.8773e-06
1.68743e-06
1.20401e-06
1.36959e-06
3.50415e-07
1.26152e-06
-2.41302e-07
1.32343e-06
-7.80443e-07
7.49453e-07
-1.2296e-06
1.06646e-06
-1.52578e-06
4.55587e-07
-1.9527e-06
9.4668e-07
-1.88627e-06
-3.85009e-07
-2.60923e-06
1.11234e-06
-2.44392e-06
-1.81676e-06
-3.10545e-06
9.23926e-08
-3.26143e-06
-4.31229e-06
-3.71995e-06
2.6579e-07
9.2554e-06
-4.94029e-06
4.42307e-06
2.78985e-06
4.02255e-06
2.74285e-06
3.48513e-06
2.1401e-06
2.96981e-06
1.99217e-06
2.2544e-06
1.90123e-06
1.69783e-06
1.65619e-06
1.06001e-06
1.82551e-06
5.81546e-07
1.11567e-06
-4.33843e-08
1.60803e-06
-3.29841e-07
6.812e-07
-1.07728e-06
1.66053e-06
-1.27938e-06
-1.96722e-07
-1.99863e-06
1.84239e-06
-2.48001e-06
-1.30504e-06
-3.87718e-06
1.53677e-06
-3.99736e-06
-4.11642e-06
-6.11884e-06
2.43855e-06
9.59401e-06
-6.36681e-06
4.49275e-06
3.1152e-06
4.47653e-06
2.47633e-06
3.68628e-06
2.66566e-06
3.45008e-06
1.99139e-06
2.59782e-06
2.54554e-06
2.35379e-06
1.71814e-06
1.57231e-06
2.45012e-06
1.15598e-06
1.40522e-06
4.02439e-07
2.2639e-06
-6.17717e-08
1.07442e-06
-9.19882e-07
2.47707e-06
-1.16012e-06
2.5752e-08
-1.98465e-06
2.67498e-06
-2.70816e-06
-5.4925e-07
-3.96329e-06
2.8523e-06
-4.79047e-06
-3.22003e-06
-7.92483e-06
5.63585e-06
9.20836e-06
-7.47615e-06
5.10516e-06
3.99564e-06
4.9668e-06
2.29159e-06
3.93957e-06
3.39208e-06
3.48127e-06
2.18095e-06
2.49381e-06
3.29462e-06
2.21546e-06
1.78846e-06
1.53846e-06
2.94573e-06
1.20848e-06
1.58997e-06
3.84346e-07
2.9735e-06
-5.9943e-09
1.37933e-06
-8.45131e-07
3.26159e-06
-1.05094e-06
2.0644e-07
-1.77022e-06
3.3984e-06
-2.33717e-06
4.62191e-08
-3.08741e-06
3.6635e-06
-5.19266e-06
-1.04343e-06
-6.43235e-06
6.97477e-06
7.31335e-06
-4.43027e-06
5.71187e-06
4.61539e-06
5.37801e-06
2.25713e-06
4.43492e-06
3.99196e-06
3.82667e-06
2.48118e-06
2.85918e-06
3.98671e-06
2.49001e-06
1.91736e-06
1.83642e-06
3.38944e-06
1.40625e-06
1.85147e-06
5.78909e-07
3.66229e-06
1.93711e-07
1.66161e-06
-3.39127e-07
3.72672e-06
-1.06224e-06
8.94509e-07
-1.42622e-06
3.75835e-06
-2.11189e-06
7.57596e-07
-2.68722e-06
4.29131e-06
-4.774e-06
1.12171e-06
-4.23858e-06
6.54571e-06
6.20849e-06
-3.00182e-06
4.43136e-06
5.12863e-06
3.89935e-06
2.49079e-06
3.26079e-06
4.35148e-06
2.80948e-06
2.67996e-06
2.31699e-06
4.25354e-06
1.92193e-06
2.11525e-06
1.45554e-06
3.6852e-06
9.99306e-07
2.16586e-06
5.93563e-07
3.94922e-06
1.34991e-07
2.03112e-06
-1.09889e-07
3.90976e-06
-8.09284e-07
1.5594e-06
-9.33878e-07
3.87343e-06
-1.68752e-06
1.52597e-06
-1.81234e-06
4.45052e-06
-2.99182e-06
2.36015e-06
-2.26272e-06
5.89131e-06
6.16534e-06
-2.12354e-06
5.178e-06
5.74212e-06
4.47375e-06
2.83313e-06
3.85185e-06
4.63379e-06
3.27069e-06
2.95271e-06
2.75216e-06
4.49628e-06
2.10532e-06
2.51997e-06
1.58715e-06
3.99432e-06
1.01607e-06
2.55967e-06
6.73865e-07
4.13812e-06
7.46297e-08
2.51551e-06
-1.80792e-07
4.08211e-06
-9.93775e-07
2.32281e-06
-1.15376e-06
4.01157e-06
-2.02631e-06
2.40788e-06
-2.02565e-06
4.48378e-06
-2.93779e-06
3.3348e-06
-2.47751e-06
5.51359e-06
5.98407e-06
-2.19177e-06
6.18119e-06
6.12662e-06
5.20692e-06
3.36536e-06
4.47136e-06
4.95456e-06
3.68285e-06
3.36131e-06
3.19725e-06
4.64033e-06
2.39897e-06
3.01661e-06
1.89226e-06
4.24014e-06
1.15783e-06
3.07085e-06
7.61695e-07
4.33545e-06
9.00209e-09
3.11684e-06
-2.93921e-07
4.273e-06
-1.17724e-06
3.13408e-06
-1.33415e-06
4.13046e-06
-2.27967e-06
3.35229e-06
-2.2246e-06
4.45804e-06
-3.00675e-06
4.17788e-06
-2.54701e-06
5.14042e-06
5.695e-06
-2.14713e-06
7.21042e-06
6.48915e-06
6.09588e-06
3.93306e-06
5.32652e-06
5.2062e-06
4.29377e-06
3.91891e-06
3.69488e-06
4.81139e-06
2.7247e-06
3.60827e-06
2.12832e-06
4.50686e-06
1.27953e-06
3.63329e-06
8.39245e-07
4.51795e-06
3.58394e-09
3.74975e-06
-3.44161e-07
4.46569e-06
-1.16021e-06
3.8421e-06
-1.42245e-06
4.32763e-06
-2.21263e-06
4.12164e-06
-2.30496e-06
4.56721e-06
-2.77553e-06
4.70132e-06
-2.65172e-06
5.10051e-06
5.49525e-06
-2.33903e-06
8.36466e-06
6.94747e-06
7.03507e-06
4.57841e-06
6.21674e-06
5.37306e-06
5.0542e-06
4.48355e-06
4.32126e-06
5.0023e-06
3.20552e-06
4.23833e-06
2.49379e-06
4.78956e-06
1.49033e-06
4.26314e-06
9.17384e-07
4.75366e-06
-2.36333e-08
4.41549e-06
-5.03253e-07
4.7279e-06
-1.29811e-06
4.47616e-06
-1.68637e-06
4.60717e-06
-2.29455e-06
4.67276e-06
-2.52901e-06
4.7919e-06
-2.77864e-06
4.98447e-06
-2.80956e-06
5.20353e-06
5.37061e-06
-2.57849e-06
9.93669e-06
7.57555e-06
8.44225e-06
5.2101e-06
7.36753e-06
5.62064e-06
5.95561e-06
5.13204e-06
4.93211e-06
5.32749e-06
3.65485e-06
4.88484e-06
2.79322e-06
5.08929e-06
1.70687e-06
4.85304e-06
9.24208e-07
5.09452e-06
1.71834e-08
4.94702e-06
-5.98895e-07
5.03748e-06
-1.33069e-06
4.96904e-06
-1.87208e-06
4.97313e-06
-2.35855e-06
5.04458e-06
-2.72747e-06
5.10344e-06
-2.91444e-06
5.16622e-06
-2.93836e-06
5.26931e-06
5.2983e-06
-2.78295e-06
1.11941e-05
8.24739e-06
9.46484e-06
5.83688e-06
8.19124e-06
5.83587e-06
6.82873e-06
5.50946e-06
5.73773e-06
5.51065e-06
4.45944e-06
5.33621e-06
3.43549e-06
5.36467e-06
2.31063e-06
5.30775e-06
1.39653e-06
5.41444e-06
4.38759e-07
5.39191e-06
-3.58334e-07
5.39776e-06
-1.1349e-06
5.38945e-06
-1.80847e-06
5.36848e-06
-2.31458e-06
5.34565e-06
-2.67505e-06
5.32761e-06
-2.90999e-06
5.3277e-06
-2.96082e-06
5.30354e-06
5.20398e-06
-2.83245e-06
1.30088e-05
8.7038e-06
1.11954e-05
6.2378e-06
9.57737e-06
6.08862e-06
7.91491e-06
5.89038e-06
6.47223e-06
5.76407e-06
5.0445e-06
5.66819e-06
3.77587e-06
5.62953e-06
2.6108e-06
5.56358e-06
1.55822e-06
5.65278e-06
5.53398e-07
5.68181e-06
-3.20185e-07
5.64921e-06
-1.1206e-06
5.6633e-06
-1.82108e-06
5.63531e-06
-2.33811e-06
5.51717e-06
-2.73758e-06
5.46381e-06
-2.95083e-06
5.3538e-06
-3.05202e-06
5.28733e-06
5.18025e-06
-3.08194e-06
1.50063e-05
9.0285e-06
1.31994e-05
6.24589e-06
1.1468e-05
6.06029e-06
9.74631e-06
5.94461e-06
8.07356e-06
5.87368e-06
6.44944e-06
5.83644e-06
4.92533e-06
5.80727e-06
3.48083e-06
5.77262e-06
2.23787e-06
5.77505e-06
1.13269e-06
5.78804e-06
1.4332e-07
5.75796e-06
-6.58151e-07
5.69223e-06
-1.33598e-06
5.64965e-06
-1.9095e-06
5.53231e-06
-2.33579e-06
5.43163e-06
-2.65227e-06
5.30441e-06
-2.81423e-06
5.16868e-06
5.03161e-06
-2.86906e-06
1.80433e-05
8.88859e-06
1.56768e-05
6.31493e-06
1.33852e-05
6.08765e-06
1.12555e-05
5.91041e-06
9.27623e-06
5.8034e-06
7.4463e-06
5.73734e-06
5.76181e-06
5.68929e-06
4.22268e-06
5.63994e-06
2.8647e-06
5.59406e-06
1.67951e-06
5.57476e-06
6.23593e-07
5.55438e-06
-3.11224e-07
5.5034e-06
-1.09026e-06
5.43461e-06
-1.7572e-06
5.33094e-06
-2.27219e-06
5.19841e-06
-2.64981e-06
5.0464e-06
-2.92794e-06
4.91576e-06
4.7582e-06
-3.08979e-06
1.83765e-05
8.50423e-06
1.61662e-05
5.97785e-06
1.40252e-05
5.72771e-06
1.19679e-05
5.56652e-06
9.98083e-06
5.49728e-06
8.09801e-06
5.44426e-06
6.36028e-06
5.37448e-06
4.77227e-06
5.30367e-06
3.38905e-06
5.18744e-06
2.1879e-06
5.12235e-06
1.15731e-06
5.0741e-06
2.50241e-07
5.03748e-06
-5.40349e-07
4.98716e-06
-1.22903e-06
4.9128e-06
-1.82535e-06
4.81195e-06
-2.33024e-06
4.68612e-06
-2.71974e-06
4.55086e-06
4.40017e-06
-3.01433e-06
1.62967e-05
8.05722e-06
1.43781e-05
5.457e-06
1.25832e-05
5.14526e-06
1.08526e-05
5.01078e-06
9.24099e-06
4.91301e-06
7.71163e-06
4.87699e-06
6.28252e-06
4.80986e-06
4.92969e-06
4.77219e-06
3.65874e-06
4.68964e-06
2.51328e-06
4.61719e-06
1.49719e-06
4.56304e-06
6.10074e-07
4.51989e-06
-1.42234e-07
4.45527e-06
-7.73107e-07
4.37691e-06
-1.31907e-06
4.30544e-06
-1.79118e-06
4.21543e-06
-2.17043e-06
4.0874e-06
3.95421e-06
-2.47322e-06
1.42935e-05
6.77374e-06
1.27567e-05
4.72873e-06
1.12785e-05
4.41884e-06
9.87122e-06
4.29023e-06
8.45149e-06
4.27859e-06
7.13814e-06
4.2197e-06
5.89066e-06
4.17246e-06
4.72125e-06
4.15003e-06
3.58581e-06
4.13124e-06
2.52689e-06
4.08405e-06
1.58752e-06
4.01838e-06
7.61262e-07
3.96902e-06
4.58705e-08
3.89897e-06
-5.53617e-07
3.80696e-06
-1.05035e-06
3.73136e-06
-1.43398e-06
3.62566e-06
-1.77845e-06
3.55425e-06
3.4551e-06
-2.06884e-06
1.2484e-05
5.69465e-06
1.11815e-05
3.96883e-06
9.9861e-06
3.5982e-06
8.84839e-06
3.47319e-06
7.67511e-06
3.56038e-06
6.45447e-06
3.61973e-06
5.30336e-06
3.57474e-06
4.21598e-06
3.56764e-06
3.20664e-06
3.55364e-06
2.26688e-06
3.52561e-06
1.41977e-06
3.46068e-06
6.99248e-07
3.37825e-06
9.35724e-08
3.28583e-06
-4.2167e-07
3.19343e-06
-8.57612e-07
3.12558e-06
-1.22439e-06
3.03539e-06
-1.52955e-06
2.98257e-06
2.9156e-06
-1.7873e-06
1.12035e-05
4.68438e-06
1.02746e-05
3.03515e-06
9.21751e-06
2.82533e-06
8.13804e-06
2.77474e-06
7.13111e-06
2.84538e-06
6.13822e-06
2.94889e-06
5.14192e-06
2.96735e-06
4.20798e-06
2.96604e-06
3.34111e-06
2.95632e-06
2.53484e-06
2.94506e-06
1.8081e-06
2.88009e-06
1.14899e-06
2.81296e-06
5.61904e-07
2.73059e-06
3.39514e-08
2.65825e-06
-4.21585e-07
2.59588e-06
-8.20112e-07
2.52316e-06
-1.15261e-06
2.47604e-06
2.42039e-06
-1.4288e-06
9.86125e-06
3.78921e-06
9.02501e-06
2.19995e-06
8.13831e-06
2.06092e-06
7.23745e-06
2.06968e-06
6.38091e-06
2.14445e-06
5.57541e-06
2.24522e-06
4.74793e-06
2.33776e-06
3.95086e-06
2.36481e-06
3.2032e-06
2.36751e-06
2.50611e-06
2.37287e-06
1.84892e-06
2.33703e-06
1.24261e-06
2.29009e-06
6.7194e-07
2.24732e-06
1.48196e-07
2.19749e-06
-2.90763e-07
2.11986e-06
-6.6994e-07
2.05279e-06
-9.72493e-07
1.99277e-06
1.91843e-06
-1.19594e-06
9.13904e-06
2.81831e-06
8.30905e-06
1.53355e-06
7.43545e-06
1.45079e-06
6.57178e-06
1.48801e-06
5.73714e-06
1.57545e-06
4.96163e-06
1.65944e-06
4.24787e-06
1.73626e-06
3.5384e-06
1.80911e-06
2.88587e-06
1.80916e-06
2.29944e-06
1.80738e-06
1.76459e-06
1.78086e-06
1.27235e-06
1.75416e-06
8.31601e-07
1.72329e-06
4.28758e-07
1.6979e-06
4.96455e-08
1.65951e-06
-2.90594e-07
1.61192e-06
-5.86363e-07
1.56454e-06
1.52003e-06
-8.55978e-07
8.14379e-06
2.11795e-06
7.46258e-06
8.71852e-07
6.80947e-06
7.73066e-07
6.11167e-06
8.89066e-07
5.39229e-06
1.03413e-06
4.68765e-06
1.14073e-06
4.02368e-06
1.21732e-06
3.41091e-06
1.28276e-06
2.82487e-06
1.30419e-06
2.30053e-06
1.29226e-06
1.8295e-06
1.26627e-06
1.40312e-06
1.25048e-06
1.00439e-06
1.24812e-06
6.34745e-07
1.24985e-06
2.97017e-07
1.23456e-06
-2.33043e-08
1.22216e-06
-3.2247e-07
1.20421e-06
1.16447e-06
-5.76706e-07
7.5502e-06
1.43952e-06
6.95813e-06
2.61885e-07
6.32945e-06
2.10438e-07
5.67077e-06
3.86611e-07
5.02661e-06
5.49184e-07
4.39399e-06
6.77286e-07
3.77965e-06
7.70804e-07
3.19761e-06
8.42749e-07
2.64072e-06
8.81568e-07
2.12147e-06
8.7765e-07
1.62047e-06
8.81159e-07
1.15726e-06
8.76454e-07
7.4289e-07
8.75721e-07
3.74384e-07
8.81236e-07
3.86889e-08
8.81331e-07
-2.58095e-07
8.7701e-07
-5.10059e-07
8.59836e-07
8.34326e-07
-7.31881e-07
6.74441e-06
6.12368e-07
6.35182e-06
-4.21907e-07
5.79461e-06
-2.97226e-07
5.17145e-06
-2.78088e-08
4.52603e-06
1.85508e-07
3.88357e-06
3.39718e-07
3.27479e-06
4.30561e-07
2.70442e-06
4.9843e-07
2.15591e-06
5.53183e-07
1.64564e-06
5.51654e-07
1.15102e-06
5.81779e-07
7.02453e-07
5.73805e-07
2.65256e-07
6.07679e-07
-1.26245e-07
6.10909e-07
-4.68963e-07
6.05032e-07
-7.65285e-07
5.96139e-07
-1.01533e-06
5.73316e-07
5.52365e-07
-1.23079e-06
6.0903e-06
-1.75111e-07
5.66299e-06
-9.55911e-07
5.03456e-06
-6.19888e-07
4.32901e-06
-2.48623e-07
3.59345e-06
2.01772e-08
2.86538e-06
1.92696e-07
2.19296e-06
2.55274e-07
1.56596e-06
3.08401e-07
9.9213e-07
3.43978e-07
3.97048e-07
3.99436e-07
-1.16482e-07
3.8572e-07
-6.4294e-07
4.28568e-07
-1.08747e-06
4.20031e-07
-1.48067e-06
4.1052e-07
-1.82861e-06
3.97281e-07
-2.14041e-06
3.89245e-07
-2.413e-06
3.63041e-07
3.43092e-07
-2.65203e-06
5.31699e-06
-7.71932e-07
4.36811e-06
-8.618e-07
3.32608e-06
-4.23499e-07
2.38205e-06
-1.29083e-07
1.52584e-06
7.41095e-08
7.66919e-07
1.72386e-07
5.03446e-08
2.16974e-07
-5.93806e-07
2.24995e-07
-1.17396e-06
2.26369e-07
-1.67405e-06
2.33432e-07
-2.13508e-06
2.13565e-07
-2.51997e-06
2.1373e-07
-2.87425e-06
2.09013e-07
-3.20349e-06
2.08623e-07
-3.50256e-06
1.99026e-07
-3.76904e-06
1.91353e-07
-4.01611e-06
1.77955e-07
1.62389e-07
-4.23701e-06
3.30779e-06
1.6867e-06
5.18737e-07
-3.3495e-07
-9.65318e-07
-1.47628e-06
-1.92051e-06
-2.33215e-06
-2.71571e-06
-3.06374e-06
-3.40219e-06
-3.71057e-06
-3.99314e-06
-4.24575e-06
-4.47811e-06
-4.68903e-06
-4.88536e-06
-5.07203e-06
1.96549e-07
-9.82872e-10
3.36525e-07
5.34717e-08
4.73063e-07
5.41082e-08
6.25589e-07
3.79567e-08
7.9062e-07
2.54766e-08
9.6441e-07
1.6336e-08
1.14381e-06
1.01947e-08
1.32697e-06
5.63587e-09
1.50743e-06
7.44594e-09
1.67634e-06
1.77278e-08
1.82722e-06
3.40833e-08
1.95937e-06
5.09319e-08
2.07875e-06
6.16382e-08
2.19265e-06
6.49003e-08
2.30521e-06
6.33018e-08
2.39424e-06
8.30864e-08
2.44654e-06
1.15625e-07
2.46313e-06
1.47235e-07
2.45188e-06
1.71046e-07
2.42827e-06
1.78946e-07
2.39789e-06
1.80492e-07
2.37969e-06
1.62267e-07
2.37668e-06
1.40413e-07
2.38305e-06
1.24084e-07
2.3795e-06
1.27468e-07
2.35063e-06
1.4685e-07
2.29412e-06
1.6745e-07
2.21629e-06
1.79775e-07
2.13332e-06
1.74969e-07
2.04715e-06
1.68378e-07
1.96915e-06
1.50018e-07
1.90538e-06
1.24491e-07
1.86119e-06
9.27779e-08
1.83423e-06
6.30373e-08
1.82483e-06
3.23839e-08
1.84326e-06
-9.29925e-09
1.89463e-06
-5.67635e-08
1.98121e-06
-1.0682e-07
2.12861e-06
-1.82395e-07
2.34214e-06
-2.6253e-07
2.65099e-06
-3.71283e-07
3.08103e-06
-5.04963e-07
3.62658e-06
-6.33637e-07
4.24037e-06
-7.17791e-07
4.88017e-06
-7.63175e-07
5.51328e-06
-7.77998e-07
6.12898e-06
-7.83102e-07
6.71721e-06
-7.74792e-07
7.3186e-06
-8.0168e-07
7.92958e-06
-8.29142e-07
8.45685e-06
-7.69182e-07
8.92403e-06
-7.26886e-07
9.37902e-06
-7.21802e-07
9.90268e-06
-7.98716e-07
1.05005e-05
-8.9485e-07
1.10781e-05
-9.02241e-07
1.15977e-05
-8.67287e-07
1.20244e-05
-7.89696e-07
1.23759e-05
-7.24e-07
1.2676e-05
-6.81499e-07
1.29465e-05
-6.59265e-07
1.32167e-05
-6.68188e-07
1.34989e-05
-6.93343e-07
1.37592e-05
-6.90844e-07
1.40105e-05
-7.08473e-07
1.42389e-05
-7.09592e-07
1.44051e-05
-6.61147e-07
1.44962e-05
-5.92452e-07
1.44765e-05
-4.85e-07
1.43511e-05
-3.84227e-07
1.41828e-05
-3.50061e-07
1.4049e-05
-3.98484e-07
1.40457e-05
-5.56953e-07
1.42832e-05
-8.36298e-07
1.46656e-05
-9.89065e-07
1.50862e-05
-1.01666e-06
1.5478e-05
-1.0594e-06
1.56065e-05
-9.10082e-07
1.5335e-05
-5.07824e-07
1.47954e-05
-1.61353e-07
1.40948e-05
1.39657e-08
1.34397e-05
-7.84436e-08
1.3344e-05
-6.91434e-07
1.39397e-05
-1.42594e-06
1.47428e-05
-1.67107e-06
1.52661e-05
-1.44248e-06
1.5565e-05
-1.30102e-06
1.57396e-05
-1.29153e-06
1.54942e-05
-9.69654e-07
1.45472e-05
-2.7314e-07
1.27525e-05
6.61575e-07
1.0289e-05
1.38024e-06
7.50465e-06
1.65961e-06
4.79518e-06
1.51932e-06
2.32707e-06
1.22755e-06
1.23291e-07
9.30271e-07
-1.88242e-06
7.094e-07
-3.66751e-06
4.72657e-07
-5.2364e-06
2.51786e-07
-6.52578e-06
-2.3242e-08
-7.56403e-06
-2.5986e-07
-8.38122e-06
-4.60223e-07
-8.79284e-06
-8.38134e-07
-8.35454e-06
-1.66402e-06
-7.31621e-06
-2.27194e-06
-6.98524e-06
-1.59369e-06
-8.68422e-06
5.0275e-07
-1.03541e-05
6.30065e-07
-9.07541e-06
-2.20087e-06
-5.37521e-06
-4.63236e-06
-2.63577e-06
-3.74053e-06
-2.09667e-06
-1.51774e-06
-3.03516e-06
3.80972e-08
-2.89725e-06
-9.77542e-07
-2.27436e-06
-1.39024e-06
-4.96647e-07
-2.46658e-06
1.43375e-06
-2.5699e-06
2.75156e-06
-1.91464e-06
3.53204e-06
-1.3243e-06
4.07967e-06
-1.03821e-06
4.6921e-06
-1.05764e-06
5.39588e-06
-1.11485e-06
6.03895e-06
-1.02267e-06
6.5678e-06
-8.74087e-07
6.97223e-06
-7.16445e-07
7.33019e-06
-6.45611e-07
7.60537e-06
-5.45046e-07
7.88452e-06
-5.38938e-07
8.12306e-06
-4.88973e-07
8.40333e-06
-5.19911e-07
8.70096e-06
-5.30186e-07
9.059e-06
-5.95214e-07
9.55116e-06
-7.53898e-07
9.94769e-06
-6.91219e-07
1.05052e-05
-9.02231e-07
1.1094e-05
-9.90206e-07
1.17524e-05
-1.13483e-06
1.23618e-05
-1.15535e-06
1.30456e-05
-1.31014e-06
1.35593e-05
-1.20336e-06
1.43074e-05
-1.52205e-06
1.49099e-05
-1.44364e-06
1.56644e-05
-1.68482e-06
1.62737e-05
-1.58854e-06
1.67937e-05
-1.57893e-06
1.65139e-05
-9.17792e-07
1.68222e-05
-1.53285e-06
1.70466e-05
-1.5425e-06
1.80299e-05
-2.47073e-06
1.97303e-05
-3.43127e-06
2.09189e-05
-3.11957e-06
2.25186e-05
-3.78664e-06
2.29519e-05
-2.68224e-06
2.33915e-05
-2.77116e-06
2.38526e-05
-2.8992e-06
2.40524e-05
-2.79576e-06
2.41192e-05
-3.11671e-06
2.3866e-05
-3.3996e-06
2.30198e-05
-3.25484e-06
2.17594e-05
-3.08739e-06
2.03827e-05
-3.35471e-06
1.83812e-05
-3.18338e-06
1.62088e-05
-3.39758e-06
1.45226e-05
-4.25459e-06
1.3243e-05
-5.05638e-06
1.17782e-05
-5.27537e-06
9.78045e-06
-4.97401e-06
6.83822e-06
-3.92318e-06
2.6359e-06
-2.479e-06
-2.26227e-06
-1.85355e-06
-6.47759e-06
-2.82972e-06
-8.98655e-06
-4.64209e-06
-1.05692e-05
-5.55555e-06
-1.01026e-05
-7.57423e-06
-9.41647e-06
-7.31182e-06
-1.05579e-05
-5.47737e-06
-1.24773e-05
-4.65328e-06
-1.41555e-05
-4.87919e-06
-1.43567e-05
-5.99147e-06
-5.81619e-06
-1.46358e-05
1.72329e-07
2.41441e-08
2.82049e-07
1.35813e-07
4.06636e-07
1.16564e-07
5.50148e-07
8.15163e-08
7.00782e-07
6.25694e-08
8.54707e-07
4.98946e-08
1.02334e-06
2.88346e-08
1.20866e-06
7.75081e-09
1.39972e-06
3.33166e-09
1.58429e-06
1.89748e-08
1.77663e-06
2.50975e-08
1.95567e-06
5.23766e-08
2.07774e-06
1.18778e-07
2.15198e-06
1.71133e-07
2.18337e-06
2.13308e-07
2.18569e-06
2.58764e-07
2.15869e-06
3.13507e-07
2.10698e-06
3.61873e-07
2.04953e-06
3.84661e-07
1.98766e-06
3.91496e-07
1.92954e-06
3.8402e-07
1.84513e-06
3.87832e-07
1.70801e-06
4.16187e-07
1.48138e-06
4.86267e-07
1.20946e-06
5.27583e-07
9.16089e-07
5.57194e-07
6.30155e-07
5.59399e-07
3.81905e-07
5.24725e-07
1.86182e-07
4.58264e-07
4.9054e-08
3.82889e-07
-3.36323e-08
2.99541e-07
-6.95211e-08
2.16269e-07
-6.37685e-08
1.31506e-07
-9.5065e-09
4.13131e-08
9.5671e-08
-5.2781e-08
2.41292e-07
-1.48052e-07
4.42153e-07
-2.64318e-07
7.08191e-07
-3.93337e-07
1.04344e-06
-5.52285e-07
1.4746e-06
-7.42557e-07
1.99904e-06
-9.58532e-07
2.60054e-06
-1.18294e-06
3.26029e-06
-1.38429e-06
3.96715e-06
-1.53021e-06
4.69877e-06
-1.61565e-06
5.46416e-06
-1.68075e-06
6.21795e-06
-1.69684e-06
6.97354e-06
-1.71957e-06
7.72124e-06
-1.75747e-06
8.48947e-06
-1.80727e-06
9.22416e-06
-1.73425e-06
9.88393e-06
-1.67651e-06
1.04658e-05
-1.62146e-06
1.11068e-05
-1.72571e-06
1.18056e-05
-1.87333e-06
1.24669e-05
-1.87651e-06
1.30594e-05
-1.82031e-06
1.34377e-05
-1.56777e-06
1.36208e-05
-1.31122e-06
1.375e-05
-1.2152e-06
1.39485e-05
-1.2592e-06
1.42716e-05
-1.38659e-06
1.46767e-05
-1.48942e-06
1.5093e-05
-1.5005e-06
1.54697e-05
-1.51681e-06
1.58239e-05
-1.55238e-06
1.61023e-05
-1.46641e-06
1.6314e-05
-1.34693e-06
1.64302e-05
-1.14215e-06
1.64757e-05
-9.59995e-07
1.64893e-05
-8.90342e-07
1.64703e-05
-9.16922e-07
1.64268e-05
-1.07048e-06
1.65942e-05
-1.60159e-06
1.68917e-05
-1.95267e-06
1.69928e-05
-1.8052e-06
1.72369e-05
-1.9613e-06
1.8064e-05
-2.39467e-06
1.9026e-05
-2.1877e-06
1.93958e-05
-1.36178e-06
1.89094e-05
-3.88969e-07
1.78389e-05
1.54487e-07
1.68959e-05
-5.57007e-07
1.68395e-05
-2.19172e-06
1.74821e-05
-3.12124e-06
1.80644e-05
-2.85759e-06
1.7559e-05
-1.78842e-06
1.54595e-05
-3.39776e-07
1.22682e-05
1.06797e-06
8.72044e-06
2.15175e-06
5.51049e-06
2.73797e-06
2.82016e-06
2.89636e-06
5.56753e-07
2.69903e-06
-1.53521e-06
2.341e-06
-3.41538e-06
1.79914e-06
-5.11812e-06
1.29527e-06
-6.6296e-06
8.68052e-07
-7.80569e-06
3.02482e-07
-8.56586e-06
-3.15933e-07
-9.08723e-06
-8.15983e-07
-9.52835e-06
-1.11553e-06
-9.9624e-06
-1.27512e-06
-9.86948e-06
-2.12705e-06
-8.91951e-06
-3.82971e-06
-7.67034e-06
-4.83578e-06
-7.74006e-06
-2.94224e-06
-9.803e-06
1.24157e-06
-1.11169e-05
1.21137e-06
-9.42106e-06
-4.59355e-06
-6.10141e-06
-9.08475e-06
-3.61009e-06
-7.40066e-06
-1.77466e-06
-4.35031e-06
-2.39335e-06
-3.02796e-07
-2.23782e-06
-1.98566e-06
-1.4834e-06
-2.90105e-06
4.88018e-07
-5.06368e-06
2.92598e-06
-5.54488e-06
4.68901e-06
-4.22321e-06
5.63611e-06
-2.83968e-06
6.21199e-06
-2.15012e-06
6.97233e-06
-2.27393e-06
8.02253e-06
-2.54137e-06
9.09968e-06
-2.46393e-06
1.00326e-05
-2.20946e-06
1.06602e-05
-1.73946e-06
1.11479e-05
-1.46299e-06
1.16797e-05
-1.32705e-06
1.22834e-05
-1.34469e-06
1.278e-05
-1.22458e-06
1.31263e-05
-1.18945e-06
1.3375e-05
-1.15205e-06
1.37002e-05
-1.27211e-06
1.40679e-05
-1.42949e-06
1.4478e-05
-1.41348e-06
1.47772e-05
-1.58139e-06
1.52215e-05
-1.87199e-06
1.57372e-05
-2.16417e-06
1.60607e-05
-2.06794e-06
1.66667e-05
-2.63002e-06
1.72487e-05
-2.62458e-06
1.76554e-05
-2.90718e-06
1.79059e-05
-2.72844e-06
1.86539e-05
-3.64917e-06
1.90882e-05
-3.2833e-06
1.89213e-05
-2.60829e-06
1.73217e-05
-1.03809e-06
1.6771e-05
-2.47844e-06
1.68375e-05
-2.99784e-06
1.79067e-05
-5.01373e-06
2.05346e-05
-7.41692e-06
2.31381e-05
-7.23051e-06
2.65559e-05
-9.2402e-06
2.7002e-05
-5.73156e-06
2.68403e-05
-5.40955e-06
2.63515e-05
-5.04595e-06
2.55664e-05
-4.69259e-06
2.56284e-05
-6.432e-06
2.55753e-05
-7.32451e-06
2.51049e-05
-7.6545e-06
2.38911e-05
-7.24147e-06
2.21588e-05
-7.20959e-06
2.00647e-05
-7.12426e-06
1.78755e-05
-7.86949e-06
1.62186e-05
-9.67901e-06
1.48774e-05
-1.11655e-05
1.3089e-05
-1.1585e-05
1.02578e-05
-1.06561e-05
6.21031e-06
-8.13683e-06
1.15072e-06
-5.33737e-06
-3.9363e-06
-4.92727e-06
-7.86442e-06
-7.59891e-06
-9.87494e-06
-1.13332e-05
-1.0701e-05
-1.31716e-05
-9.66192e-06
-1.63291e-05
-8.66029e-06
-1.52621e-05
-9.96385e-06
-1.20543e-05
-1.37612e-05
-8.18496e-06
-1.64998e-05
-9.27165e-06
-1.45309e-05
-1.49553e-05
-1.56507e-05
-1.20803e-05
2.0343e-07
2.0091e-08
3.17874e-07
2.12454e-07
4.26464e-07
1.94371e-07
5.83903e-07
1.10978e-07
7.75799e-07
5.81973e-08
9.6537e-07
4.82027e-08
1.15988e-06
2.25813e-08
1.39101e-06
-3.33989e-08
1.62168e-06
-3.61916e-08
1.78323e-06
5.02001e-08
1.85615e-06
1.46568e-07
1.88188e-06
2.18697e-07
1.88403e-06
3.02476e-07
1.83292e-06
3.97018e-07
1.75838e-06
4.50317e-07
1.69223e-06
4.83659e-07
1.63791e-06
5.27817e-07
1.57248e-06
5.88015e-07
1.48419e-06
6.33547e-07
1.32063e-06
7.1293e-07
1.00321e-06
8.56134e-07
5.56556e-07
9.83146e-07
-4.72083e-09
1.1171e-06
-5.67074e-07
1.17879e-06
-1.06002e-06
1.14114e-06
-1.43261e-06
1.04237e-06
-1.69947e-06
9.29934e-07
-1.86749e-06
7.86551e-07
-1.9542e-06
6.31075e-07
-1.99012e-06
4.97116e-07
-1.98902e-06
3.6528e-07
-1.9487e-06
2.31813e-07
-1.86785e-06
9.68252e-08
-1.75226e-06
-3.82573e-08
-1.59342e-06
-1.86872e-07
-1.3779e-06
-3.49355e-07
-1.10143e-06
-5.37552e-07
-7.42468e-07
-7.60637e-07
-3.23184e-07
-9.9219e-07
1.62983e-07
-1.26141e-06
7.14007e-07
-1.5537e-06
1.31347e-06
-1.83781e-06
1.95728e-06
-2.09374e-06
2.64924e-06
-2.29911e-06
3.43096e-06
-2.48805e-06
4.27013e-06
-2.62654e-06
5.16153e-06
-2.71264e-06
6.04264e-06
-2.74592e-06
6.87221e-06
-2.7554e-06
7.64864e-06
-2.76626e-06
8.4568e-06
-2.72519e-06
9.33951e-06
-2.75432e-06
1.02878e-05
-2.80205e-06
1.12927e-05
-2.98923e-06
1.21866e-05
-3.05981e-06
1.29568e-05
-2.97194e-06
1.37475e-05
-2.91896e-06
1.44127e-05
-2.55465e-06
1.49246e-05
-2.19858e-06
1.53772e-05
-2.08866e-06
1.58188e-05
-2.15459e-06
1.6223e-05
-2.24795e-06
1.65552e-05
-2.26805e-06
1.68687e-05
-2.25162e-06
1.72679e-05
-2.33678e-06
1.77997e-05
-2.49226e-06
1.8441e-05
-2.53121e-06
1.90489e-05
-2.42995e-06
1.95423e-05
-2.17167e-06
1.98773e-05
-1.85934e-06
2.02063e-05
-1.79047e-06
2.04511e-05
-1.75005e-06
2.0469e-05
-1.68534e-06
2.04827e-05
-2.19445e-06
2.03547e-05
-2.4542e-06
2.00236e-05
-2.19701e-06
1.99469e-05
-2.61139e-06
1.99059e-05
-3.04369e-06
1.97137e-05
-2.67688e-06
2.02946e-05
-2.65054e-06
2.10122e-05
-1.90616e-06
2.06016e-05
-3.31567e-07
1.99435e-05
-8.26028e-07
1.9665e-05
-2.8182e-06
1.8638e-05
-2.99564e-06
1.61854e-05
-1.34906e-06
1.27741e-05
6.11995e-07
9.3197e-06
2.0478e-06
6.34659e-06
2.93754e-06
3.87387e-06
3.47684e-06
1.79234e-06
3.61666e-06
1.10821e-07
3.32844e-06
-1.3026e-06
2.82421e-06
-2.56976e-06
2.2929e-06
-3.81984e-06
1.71594e-06
-5.11365e-06
1.24141e-06
-6.36368e-06
7.6988e-07
-7.27891e-06
-1.13731e-07
-7.69647e-06
-1.22568e-06
-7.86165e-06
-2.00482e-06
-8.12443e-06
-2.23202e-06
-8.48443e-06
-2.26512e-06
-8.47178e-06
-3.44754e-06
-8.03785e-06
-5.61694e-06
-7.61102e-06
-6.67811e-06
-7.86595e-06
-4.04919e-06
-8.908e-06
9.5321e-07
-1.00593e-05
1.38105e-06
-9.35881e-06
-6.39303e-06
-7.51495e-06
-1.2381e-05
-6.03554e-06
-1.00491e-05
-2.69373e-06
-8.6319e-06
-1.97701e-06
-2.04975e-06
-1.49893e-06
-3.32961e-06
-6.05883e-07
-4.57053e-06
1.1178e-06
-7.4841e-06
3.44051e-06
-8.42655e-06
5.55471e-06
-6.75314e-06
6.80111e-06
-4.56191e-06
7.27661e-06
-3.2081e-06
7.77224e-06
-3.37021e-06
8.73152e-06
-4.00669e-06
9.91543e-06
-3.96152e-06
1.11652e-05
-3.66251e-06
1.20911e-05
-3.02616e-06
1.25833e-05
-2.47252e-06
1.29069e-05
-2.11643e-06
1.35039e-05
-2.2347e-06
1.44223e-05
-2.32302e-06
1.50986e-05
-2.06308e-06
1.55731e-05
-1.89584e-06
1.61944e-05
-2.25195e-06
1.65239e-05
-2.22359e-06
1.67462e-05
-2.14116e-06
1.72468e-05
-2.57514e-06
1.75966e-05
-2.67498e-06
1.82424e-05
-3.28974e-06
1.87129e-05
-3.17882e-06
1.91311e-05
-3.677e-06
1.95774e-05
-3.67842e-06
2.01571e-05
-4.38268e-06
2.03157e-05
-4.00877e-06
2.06882e-05
-5.37995e-06
2.13436e-05
-5.31161e-06
2.10688e-05
-3.63806e-06
1.76772e-05
-7.01089e-07
1.55871e-05
-2.51416e-06
1.47582e-05
-3.65756e-06
1.5055e-05
-6.8775e-06
1.68391e-05
-9.75011e-06
1.99733e-05
-1.0792e-05
2.61395e-05
-1.5303e-05
2.86548e-05
-9.64658e-06
2.8665e-05
-7.94947e-06
2.7761e-05
-6.87521e-06
2.57385e-05
-6.21058e-06
2.45973e-05
-8.8664e-06
2.48424e-05
-1.05995e-05
2.52852e-05
-1.18541e-05
2.50961e-05
-1.22333e-05
2.38004e-05
-1.20487e-05
2.15119e-05
-1.13418e-05
1.9265e-05
-1.2584e-05
1.77477e-05
-1.55042e-05
1.64358e-05
-1.7375e-05
1.43405e-05
-1.76499e-05
1.09273e-05
-1.59747e-05
6.04588e-06
-1.20144e-05
6.56107e-07
-8.70559e-06
-4.31022e-06
-9.07449e-06
-7.4616e-06
-1.36035e-05
-9.42128e-06
-1.82941e-05
-9.55571e-06
-2.15269e-05
-8.63072e-06
-2.40858e-05
-8.44847e-06
-2.15928e-05
-1.09208e-05
-1.76414e-05
-1.59945e-05
-1.04608e-05
-2.05794e-05
-1.19712e-05
-1.86747e-05
-2.44801e-05
-3.02458e-05
-1.22206e-05
1.97692e-07
2.33582e-08
3.09729e-07
2.9067e-07
5.03547e-07
1.85961e-07
7.46267e-07
5.52784e-08
9.6334e-07
2.90994e-08
1.15919e-06
4.07616e-08
1.32505e-06
4.6832e-08
1.46148e-06
2.39042e-08
1.53217e-06
8.69469e-08
1.49587e-06
2.71314e-07
1.42265e-06
3.9369e-07
1.37927e-06
4.34356e-07
1.34679e-06
5.05838e-07
1.31353e-06
5.97538e-07
1.25067e-06
6.81449e-07
1.13744e-06
7.6756e-07
9.37859e-07
8.98785e-07
6.15992e-07
1.08024e-06
1.24417e-07
1.29232e-06
-5.23919e-07
1.5231e-06
-1.22777e-06
1.71323e-06
-1.89873e-06
1.79904e-06
-2.43132e-06
1.78559e-06
-2.82032e-06
1.69573e-06
-3.08417e-06
1.52494e-06
-3.2347e-06
1.30656e-06
-3.3015e-06
1.10297e-06
-3.28944e-06
8.71839e-07
-3.24541e-06
6.76029e-07
-3.14661e-06
4.81163e-07
-3.0166e-06
3.08788e-07
-2.87197e-06
1.50668e-07
-2.71225e-06
-8.09048e-09
-2.5362e-06
-1.69386e-07
-2.33039e-06
-3.57178e-07
-2.07411e-06
-5.80565e-07
-1.7366e-06
-8.61007e-07
-1.34435e-06
-1.15073e-06
-8.8773e-07
-1.45802e-06
-3.60294e-07
-1.81101e-06
2.11849e-07
-2.16142e-06
8.51142e-07
-2.5254e-06
1.5171e-06
-2.82075e-06
2.23971e-06
-3.09394e-06
2.98887e-06
-3.31933e-06
3.7768e-06
-3.50604e-06
4.6096e-06
-3.64715e-06
5.46032e-06
-3.71199e-06
6.28738e-06
-3.71709e-06
7.07947e-06
-3.71506e-06
7.85362e-06
-3.6738e-06
8.59314e-06
-3.67624e-06
9.36267e-06
-3.75718e-06
1.00724e-05
-3.8785e-06
1.06794e-05
-3.86151e-06
1.12875e-05
-3.83283e-06
1.19948e-05
-3.90118e-06
1.28926e-05
-3.74126e-06
1.39121e-05
-3.56193e-06
1.48703e-05
-3.4227e-06
1.56935e-05
-3.35299e-06
1.6318e-05
-3.25871e-06
1.6809e-05
-3.16673e-06
1.72929e-05
-3.16766e-06
1.79137e-05
-3.42369e-06
1.87925e-05
-3.85542e-06
1.98391e-05
-4.0789e-06
2.09433e-05
-4.04579e-06
2.19844e-05
-3.71724e-06
2.27813e-05
-3.18231e-06
2.33765e-05
-2.93694e-06
2.37176e-05
-2.67434e-06
2.38302e-05
-2.40318e-06
2.39316e-05
-2.86907e-06
2.37723e-05
-2.9569e-06
2.32875e-05
-2.44272e-06
2.30642e-05
-3.02422e-06
2.28033e-05
-3.5018e-06
2.25443e-05
-3.24876e-06
2.24964e-05
-3.29231e-06
2.18923e-05
-2.01851e-06
2.0771e-05
-1.64417e-07
1.98761e-05
-8.66475e-07
1.82784e-05
-2.08277e-06
1.54085e-05
-1.06311e-06
1.20079e-05
1.05213e-06
8.79541e-06
2.77218e-06
5.96522e-06
3.75781e-06
3.60132e-06
4.12276e-06
1.76987e-06
4.08749e-06
4.77516e-07
3.64683e-06
-5.43294e-07
3.0504e-06
-1.50792e-06
2.45982e-06
-2.43234e-06
1.86612e-06
-3.43119e-06
1.34522e-06
-4.60978e-06
1.04258e-06
-5.7703e-06
5.69048e-07
-6.67516e-06
-5.47544e-07
-7.23168e-06
-2.03291e-06
-7.59638e-06
-3.06897e-06
-8.00872e-06
-3.26692e-06
-8.13537e-06
-3.55635e-06
-8.03091e-06
-4.96498e-06
-8.19249e-06
-6.8992e-06
-8.69155e-06
-7.59006e-06
-8.39066e-06
-5.64875e-06
-6.9507e-06
-1.72853e-06
-6.91936e-06
7.94193e-08
-7.80477e-06
-6.84628e-06
-7.51973e-06
-1.38136e-05
-7.09402e-06
-1.14506e-05
-4.05367e-06
-1.2784e-05
-1.85934e-06
-5.35118e-06
-5.27392e-07
-5.55772e-06
7.36789e-07
-6.68536e-06
2.08048e-06
-9.7064e-06
3.88805e-06