/*--------------------------------*- C++ -*----------------------------------*\
| =========                 |                                                 |
| \\      /  F ield         | OpenFOAM: The Open Source CFD Toolbox           |
|  \\    /   O peration     | Version:  dev                                   |
|   \\  /    A nd           | Web:      http://www.openfoam.org               |
|    \\/     M anipulation  |                                                 |
\*---------------------------------------------------------------------------*/
FoamFile
{
    version     2.0;
    format      ascii;
    class       volScalarField;
    object      pPrime2Mean;
    location    "9.153";
}
// * * * * * * * * * * * * * * * * * * * * * * * * * * * * * * * * * * * * * //

dimensions      [2 -2 -4 0 0 0 0];

internalField   nonuniform List<scalar> 
12225
(
5.03587e+07
4.98935e+07
4.89325e+07
4.75809e+07
4.59268e+07
4.40594e+07
4.2038e+07
3.99347e+07
3.77903e+07
3.56528e+07
3.356e+07
3.15149e+07
2.95913e+07
2.77202e+07
2.59728e+07
2.44124e+07
2.28507e+07
2.12709e+07
5.0251e+07
4.97857e+07
4.88255e+07
4.74757e+07
4.58229e+07
4.39579e+07
4.19394e+07
3.98387e+07
3.76982e+07
3.55634e+07
3.34753e+07
3.14338e+07
2.95149e+07
2.76506e+07
2.59207e+07
2.43604e+07
2.28517e+07
2.15178e+07
5.0001e+07
4.95363e+07
4.85766e+07
4.72298e+07
4.55815e+07
4.37213e+07
4.17095e+07
3.96151e+07
3.74827e+07
3.5356e+07
3.32763e+07
3.12466e+07
2.93337e+07
2.74867e+07
2.57765e+07
2.42211e+07
2.27862e+07
2.15736e+07
4.95655e+07
4.91038e+07
4.81464e+07
4.68048e+07
4.51646e+07
4.33128e+07
4.13126e+07
3.92287e+07
3.71111e+07
3.49978e+07
3.2934e+07
3.09221e+07
2.90264e+07
2.71987e+07
2.55182e+07
2.39874e+07
2.26012e+07
2.15008e+07
4.89008e+07
4.84393e+07
4.74866e+07
4.61544e+07
4.4526e+07
4.26888e+07
4.07045e+07
3.86399e+07
3.65413e+07
3.44522e+07
3.24086e+07
3.04274e+07
2.85543e+07
2.67627e+07
2.51345e+07
2.36259e+07
2.23449e+07
2.1281e+07
4.79521e+07
4.7488e+07
4.65448e+07
4.52261e+07
4.36156e+07
4.17982e+07
3.98386e+07
3.77995e+07
3.57311e+07
3.36716e+07
3.16623e+07
2.97152e+07
2.78804e+07
2.61353e+07
2.45565e+07
2.31174e+07
2.18908e+07
2.08347e+07
4.66577e+07
4.61924e+07
4.52648e+07
4.39623e+07
4.23779e+07
4.05862e+07
3.86621e+07
3.66565e+07
3.46309e+07
3.26104e+07
3.06495e+07
2.8748e+07
2.69645e+07
2.52772e+07
2.37554e+07
2.23764e+07
2.12081e+07
2.01805e+07
4.52164e+07
4.47527e+07
4.38413e+07
4.25568e+07
4.10011e+07
3.9239e+07
3.73534e+07
3.53868e+07
3.34065e+07
3.14322e+07
2.9521e+07
2.76733e+07
2.59413e+07
2.43171e+07
2.28438e+07
2.15279e+07
2.03923e+07
1.94327e+07
4.37023e+07
4.32421e+07
4.2347e+07
4.10822e+07
3.95561e+07
3.78264e+07
3.59803e+07
3.4056e+07
3.21219e+07
3.01971e+07
2.83369e+07
2.65448e+07
2.48666e+07
2.33031e+07
2.18818e+07
2.0622e+07
1.95283e+07
1.86299e+07
4.17631e+07
4.13096e+07
4.0434e+07
3.91967e+07
3.77071e+07
3.60214e+07
3.42241e+07
3.23559e+07
3.04791e+07
2.86192e+07
2.68218e+07
2.51012e+07
2.34891e+07
2.20003e+07
2.06453e+07
1.94531e+07
1.84162e+07
1.75636e+07
3.93157e+07
3.88721e+07
3.80201e+07
3.68196e+07
3.53758e+07
3.37472e+07
3.2012e+07
3.02148e+07
2.84111e+07
2.66315e+07
2.49144e+07
2.32798e+07
2.17514e+07
2.03487e+07
1.90767e+07
1.79613e+07
1.69912e+07
1.61848e+07
3.62937e+07
3.58651e+07
3.50412e+07
3.38897e+07
3.25031e+07
3.09478e+07
2.92899e+07
2.75818e+07
2.58686e+07
2.41879e+07
2.2569e+07
2.10374e+07
1.96098e+07
1.83064e+07
1.7131e+07
1.60999e+07
1.52054e+07
1.44522e+07
3.26824e+07
3.22725e+07
3.14849e+07
3.03946e+07
2.90803e+07
2.76139e+07
2.60518e+07
2.44503e+07
2.28473e+07
2.1283e+07
1.97809e+07
1.83683e+07
1.70571e+07
1.58659e+07
1.4797e+07
1.38595e+07
1.30482e+07
1.23601e+07
2.85728e+07
2.81856e+07
2.74449e+07
2.64268e+07
2.52008e+07
2.3838e+07
2.23898e+07
2.09104e+07
1.94355e+07
1.80022e+07
1.66329e+07
1.53509e+07
1.41683e+07
1.30977e+07
1.21423e+07
1.1305e+07
1.05825e+07
9.96841e+06
2.42502e+07
2.38894e+07
2.32047e+07
2.22675e+07
2.11417e+07
1.9893e+07
1.85705e+07
1.72234e+07
1.58862e+07
1.45916e+07
1.33612e+07
1.22144e+07
1.11621e+07
1.02132e+07
9.37021e+06
8.63309e+06
7.99868e+06
7.46028e+06
2.03048e+07
1.99727e+07
1.93477e+07
1.84921e+07
1.74678e+07
1.63323e+07
1.51335e+07
1.39146e+07
1.27091e+07
1.15453e+07
1.04438e+07
9.42023e+06
8.48461e+06
7.64298e+06
6.89725e+06
6.24614e+06
5.68648e+06
5.21203e+06
1.77401e+07
1.74336e+07
1.68587e+07
1.60711e+07
1.51292e+07
1.40847e+07
1.29833e+07
1.18639e+07
1.07581e+07
9.69119e+06
8.68209e+06
7.74435e+06
6.88672e+06
6.11396e+06
5.42744e+06
4.82578e+06
4.306e+06
3.86273e+06
1.7848e+07
1.75533e+07
1.70007e+07
1.62428e+07
1.53356e+07
1.43282e+07
1.32643e+07
1.21809e+07
1.11081e+07
1.00695e+07
9.08289e+06
8.16101e+06
7.31195e+06
6.54019e+06
5.84715e+06
5.23199e+06
4.69218e+06
4.22341e+06
2.07237e+07
2.04246e+07
1.98622e+07
1.90894e+07
1.81627e+07
1.71316e+07
1.60392e+07
1.49225e+07
1.38111e+07
1.27287e+07
1.16928e+07
1.0716e+07
9.80662e+06
8.96946e+06
8.20644e+06
7.51746e+06
6.90068e+06
6.35274e+06
2.52091e+07
2.48971e+07
2.43068e+07
2.34929e+07
2.25149e+07
2.14235e+07
2.02635e+07
1.90723e+07
1.78806e+07
1.67125e+07
1.5586e+07
1.45143e+07
1.35061e+07
1.25671e+07
1.16996e+07
1.09045e+07
1.01806e+07
9.52546e+06
3.02667e+07
2.99406e+07
2.93171e+07
2.84538e+07
2.74134e+07
2.6249e+07
2.5007e+07
2.37265e+07
2.24393e+07
2.11704e+07
1.99388e+07
1.87583e+07
1.76386e+07
1.65858e+07
1.56032e+07
1.46923e+07
1.38528e+07
1.30828e+07
3.51787e+07
3.4841e+07
3.41865e+07
3.32762e+07
3.21757e+07
3.09401e+07
2.9618e+07
2.825e+07
2.68692e+07
2.55019e+07
2.41679e+07
2.28818e+07
2.16543e+07
2.0492e+07
1.93991e+07
1.83778e+07
1.74282e+07
1.65493e+07
3.95264e+07
3.91803e+07
3.85004e+07
3.75504e+07
3.63984e+07
3.51011e+07
3.37089e+07
3.2264e+07
3.08009e+07
2.93467e+07
2.79224e+07
2.65433e+07
2.52208e+07
2.39622e+07
2.27726e+07
2.16544e+07
2.06086e+07
1.96345e+07
4.31207e+07
4.27696e+07
4.20704e+07
4.10894e+07
3.98963e+07
3.85492e+07
3.71001e+07
3.55924e+07
3.40617e+07
3.25361e+07
3.10373e+07
2.95817e+07
2.81809e+07
2.68432e+07
2.5574e+07
2.43762e+07
2.32512e+07
2.2199e+07
4.5928e+07
4.55739e+07
4.4861e+07
4.38571e+07
4.26329e+07
4.12478e+07
3.97548e+07
3.81985e+07
3.66153e+07
3.50342e+07
3.34776e+07
3.19624e+07
3.05008e+07
2.91015e+07
2.77703e+07
2.65107e+07
2.53241e+07
2.4211e+07
4.80053e+07
4.76496e+07
4.69271e+07
4.59071e+07
4.46606e+07
4.32478e+07
4.17226e+07
4.01307e+07
3.85089e+07
3.6887e+07
3.52878e+07
3.37287e+07
3.22223e+07
3.07777e+07
2.94008e+07
2.80956e+07
2.68638e+07
2.57058e+07
4.94536e+07
4.90971e+07
4.83678e+07
4.7337e+07
4.60752e+07
4.46435e+07
4.30964e+07
4.14799e+07
3.98316e+07
3.81814e+07
3.65527e+07
3.49631e+07
3.34257e+07
3.19496e+07
3.05412e+07
2.92044e+07
2.79411e+07
2.6752e+07
5.03882e+07
5.00306e+07
4.92972e+07
4.82597e+07
4.69881e+07
4.55444e+07
4.39834e+07
4.23513e+07
4.0686e+07
3.90178e+07
3.73702e+07
3.57611e+07
3.42038e+07
3.27075e+07
3.12787e+07
2.99215e+07
2.86382e+07
2.74291e+07
5.09171e+07
5.05591e+07
4.98242e+07
4.87835e+07
4.75066e+07
4.60564e+07
4.44875e+07
4.28464e+07
4.11713e+07
3.94927e+07
3.78342e+07
3.62139e+07
3.46451e+07
3.31371e+07
3.16966e+07
3.03278e+07
2.9033e+07
2.7813e+07
5.11391e+07
5.07827e+07
5.00458e+07
4.90034e+07
4.77239e+07
4.62708e+07
4.46986e+07
4.30537e+07
4.13744e+07
3.96913e+07
3.80281e+07
3.6403e+07
3.48292e+07
3.33163e+07
3.18708e+07
3.04971e+07
2.91976e+07
2.79731e+07
6.04705e+07
6.04114e+07
6.02808e+07
6.00751e+07
5.97925e+07
5.94323e+07
5.89945e+07
5.84799e+07
5.78895e+07
5.7225e+07
5.64881e+07
5.56809e+07
5.48058e+07
5.38652e+07
5.2862e+07
5.17991e+07
5.06798e+07
4.95075e+07
4.8286e+07
4.7019e+07
4.57105e+07
4.43647e+07
4.29858e+07
4.1578e+07
4.01459e+07
3.86941e+07
3.72269e+07
3.57489e+07
3.42645e+07
3.27784e+07
3.1295e+07
2.9819e+07
2.83549e+07
2.69074e+07
2.5481e+07
2.40804e+07
2.27101e+07
2.13748e+07
2.00794e+07
1.88285e+07
1.76271e+07
1.64799e+07
1.5392e+07
1.43685e+07
1.34145e+07
1.25353e+07
1.17362e+07
1.10225e+07
1.03998e+07
9.87332e+06
9.44867e+06
9.13125e+06
8.92647e+06
8.8396e+06
8.87574e+06
9.03971e+06
9.33606e+06
9.76906e+06
1.03425e+07
1.10598e+07
1.19236e+07
1.2936e+07
1.40985e+07
1.54118e+07
1.68759e+07
1.84899e+07
2.02522e+07
2.21604e+07
2.42113e+07
2.64011e+07
2.87252e+07
3.11783e+07
3.37544e+07
3.64472e+07
3.92498e+07
4.2155e+07
4.51552e+07
4.82427e+07
5.14097e+07
5.4648e+07
5.79498e+07
6.13067e+07
6.47103e+07
6.81523e+07
7.16238e+07
7.5116e+07
7.86198e+07
8.21257e+07
8.56237e+07
8.91033e+07
9.25536e+07
9.59632e+07
9.93199e+07
1.02611e+08
1.05825e+08
1.08948e+08
1.11968e+08
1.14873e+08
1.17651e+08
1.20293e+08
1.22787e+08
1.25127e+08
1.27305e+08
1.29316e+08
1.31156e+08
1.32822e+08
1.34316e+08
1.35639e+08
1.36797e+08
1.37798e+08
1.38651e+08
1.39367e+08
1.39961e+08
1.40447e+08
1.40841e+08
1.4116e+08
1.41425e+08
1.41656e+08
1.41878e+08
1.42117e+08
1.42403e+08
1.42769e+08
1.43251e+08
1.43889e+08
1.44727e+08
1.45813e+08
1.472e+08
1.48944e+08
1.51105e+08
1.53746e+08
1.56932e+08
1.60722e+08
1.65181e+08
1.70363e+08
1.76323e+08
1.83105e+08
1.90747e+08
1.99274e+08
2.08702e+08
2.19032e+08
2.3026e+08
2.42363e+08
2.55313e+08
2.69067e+08
2.83585e+08
2.98801e+08
3.14668e+08
3.31114e+08
3.48077e+08
3.6548e+08
3.83251e+08
4.01304e+08
4.1955e+08
4.37896e+08
4.56219e+08
4.74379e+08
4.92214e+08
5.09553e+08
5.26165e+08
5.41813e+08
5.562e+08
5.69026e+08
5.7995e+08
5.8865e+08
5.9479e+08
5.98074e+08
5.98242e+08
5.95112e+08
5.88559e+08
5.7861e+08
5.65345e+08
5.49032e+08
5.29987e+08
5.08706e+08
4.85661e+08
4.61379e+08
4.36227e+08
4.10638e+08
3.84823e+08
3.59107e+08
5.9396e+07
5.93404e+07
5.92153e+07
5.90155e+07
5.87394e+07
5.83867e+07
5.79583e+07
5.7455e+07
5.68782e+07
5.62293e+07
5.551e+07
5.47222e+07
5.38682e+07
5.29503e+07
5.19711e+07
5.09334e+07
4.98402e+07
4.86949e+07
4.75009e+07
4.6262e+07
4.49821e+07
4.36651e+07
4.23152e+07
4.09366e+07
3.95338e+07
3.8111e+07
3.66727e+07
3.52232e+07
3.37667e+07
3.23079e+07
3.08511e+07
2.94008e+07
2.79617e+07
2.65383e+07
2.5135e+07
2.37563e+07
2.24069e+07
2.10913e+07
1.98142e+07
1.85804e+07
1.73947e+07
1.6262e+07
1.51872e+07
1.41753e+07
1.32315e+07
1.23611e+07
1.15693e+07
1.08615e+07
1.02432e+07
9.7197e+06
9.29658e+06
8.97926e+06
8.77309e+06
8.68334e+06
8.71511e+06
8.87329e+06
9.16244e+06
9.58679e+06
1.01501e+07
1.08558e+07
1.17065e+07
1.27043e+07
1.38507e+07
1.51464e+07
1.65912e+07
1.81846e+07
1.99246e+07
2.1809e+07
2.38345e+07
2.59974e+07
2.8293e+07
3.07161e+07
3.32608e+07
3.59206e+07
3.86888e+07
4.15582e+07
4.45214e+07
4.75706e+07
5.06981e+07
5.38957e+07
5.71555e+07
6.04693e+07
6.38288e+07
6.72257e+07
7.06513e+07
7.40967e+07
7.75529e+07
8.10104e+07
8.44593e+07
8.78894e+07
9.12899e+07
9.46492e+07
9.79558e+07
1.01197e+08
1.04361e+08
1.07435e+08
1.10406e+08
1.13264e+08
1.15996e+08
1.18592e+08
1.21044e+08
1.23343e+08
1.25483e+08
1.27458e+08
1.29265e+08
1.30902e+08
1.32368e+08
1.33667e+08
1.34803e+08
1.35785e+08
1.36622e+08
1.37325e+08
1.37908e+08
1.38383e+08
1.38769e+08
1.39081e+08
1.39339e+08
1.39563e+08
1.39777e+08
1.40006e+08
1.40281e+08
1.40633e+08
1.41097e+08
1.41714e+08
1.42526e+08
1.4358e+08
1.44927e+08
1.46624e+08
1.48731e+08
1.51307e+08
1.54418e+08
1.58124e+08
1.62486e+08
1.67559e+08
1.73397e+08
1.80043e+08
1.87534e+08
1.95897e+08
2.05147e+08
2.15286e+08
2.26309e+08
2.38194e+08
2.50914e+08
2.6443e+08
2.78697e+08
2.93654e+08
3.09252e+08
3.25428e+08
3.42114e+08
3.59238e+08
3.76727e+08
3.945e+08
4.12469e+08
4.30543e+08
4.486e+08
4.66504e+08
4.84095e+08
5.01207e+08
5.17614e+08
5.33081e+08
5.47324e+08
5.60044e+08
5.70905e+08
5.79589e+08
5.85769e+08
5.89156e+08
5.89491e+08
5.86597e+08
5.80346e+08
5.70748e+08
5.57878e+08
5.41991e+08
5.23394e+08
5.02568e+08
4.79973e+08
4.56121e+08
4.31379e+08
4.06171e+08
3.80709e+08
3.55232e+08
5.73317e+07
5.72787e+07
5.71592e+07
5.69678e+07
5.67032e+07
5.6366e+07
5.59571e+07
5.54776e+07
5.49286e+07
5.4311e+07
5.36266e+07
5.28769e+07
5.20638e+07
5.11894e+07
5.0256e+07
4.92661e+07
4.82226e+07
4.71285e+07
4.5987e+07
4.48017e+07
4.35762e+07
4.23144e+07
4.10202e+07
3.96978e+07
3.8351e+07
3.69839e+07
3.56005e+07
3.42051e+07
3.28018e+07
3.13951e+07
2.99893e+07
2.85887e+07
2.71978e+07
2.58207e+07
2.4462e+07
2.31259e+07
2.18169e+07
2.05393e+07
1.92979e+07
1.80974e+07
1.69423e+07
1.58376e+07
1.47882e+07
1.37989e+07
1.2875e+07
1.20217e+07
1.12443e+07
1.0548e+07
9.93842e+06
9.42084e+06
9.00076e+06
8.6836e+06
8.47478e+06
8.37953e+06
8.40295e+06
8.54993e+06
8.82501e+06
9.23244e+06
9.77601e+06
1.0459e+07
1.1284e+07
1.22533e+07
1.33682e+07
1.46293e+07
1.60365e+07
1.75891e+07
1.92853e+07
2.11228e+07
2.30984e+07
2.52083e+07
2.7448e+07
2.98121e+07
3.2295e+07
3.48902e+07
3.7591e+07
4.03905e+07
4.32811e+07
4.62554e+07
4.93057e+07
5.2424e+07
5.56023e+07
5.88326e+07
6.21067e+07
6.54162e+07
6.87526e+07
7.21073e+07
7.54714e+07
7.88353e+07
8.21896e+07
8.55239e+07
8.88277e+07
9.20898e+07
9.52988e+07
9.84428e+07
1.0151e+08
1.04487e+08
1.07363e+08
1.10128e+08
1.12769e+08
1.15278e+08
1.17646e+08
1.19865e+08
1.2193e+08
1.23835e+08
1.25577e+08
1.27154e+08
1.28567e+08
1.29818e+08
1.30912e+08
1.31858e+08
1.32664e+08
1.33341e+08
1.33901e+08
1.34359e+08
1.34728e+08
1.35025e+08
1.35268e+08
1.35477e+08
1.35676e+08
1.35887e+08
1.36139e+08
1.36463e+08
1.36892e+08
1.37464e+08
1.38222e+08
1.3921e+08
1.40479e+08
1.42083e+08
1.44078e+08
1.46527e+08
1.49489e+08
1.53026e+08
1.57195e+08
1.62051e+08
1.67646e+08
1.74022e+08
1.81215e+08
1.89254e+08
1.98151e+08
2.0791e+08
2.18526e+08
2.29979e+08
2.42246e+08
2.55288e+08
2.6906e+08
2.83506e+08
2.98572e+08
3.14207e+08
3.30344e+08
3.4691e+08
3.63836e+08
3.81048e+08
3.98462e+08
4.15985e+08
4.33501e+08
4.50884e+08
4.67973e+08
4.84609e+08
5.00579e+08
5.1565e+08
5.2956e+08
5.42014e+08
5.52692e+08
5.61293e+08
5.67496e+08
5.71029e+08
5.71643e+08
5.69164e+08
5.63459e+08
5.54515e+08
5.42406e+08
5.27357e+08
5.09653e+08
4.89747e+08
4.6807e+08
4.45099e+08
4.21207e+08
3.96794e+08
3.72084e+08
3.47248e+08
5.44393e+07
5.43901e+07
5.4278e+07
5.40988e+07
5.38521e+07
5.35386e+07
5.31593e+07
5.27146e+07
5.22053e+07
5.16323e+07
5.09967e+07
5.02999e+07
4.95433e+07
4.87286e+07
4.78579e+07
4.69335e+07
4.59581e+07
4.49343e+07
4.38652e+07
4.27541e+07
4.16042e+07
4.04192e+07
3.92027e+07
3.79581e+07
3.66891e+07
3.53992e+07
3.40923e+07
3.27723e+07
3.14434e+07
3.01097e+07
2.87753e+07
2.74442e+07
2.61206e+07
2.48085e+07
2.3512e+07
2.22353e+07
2.09826e+07
1.97583e+07
1.85669e+07
1.74129e+07
1.63009e+07
1.52355e+07
1.42217e+07
1.32643e+07
1.23686e+07
1.15395e+07
1.07822e+07
1.01023e+07
9.505e+06
8.99577e+06
8.58004e+06
8.26322e+06
8.05069e+06
7.94767e+06
7.95923e+06
8.09026e+06
8.34535e+06
8.72869e+06
9.24403e+06
9.8946e+06
1.06831e+07
1.16116e+07
1.26814e+07
1.38931e+07
1.52468e+07
1.67413e+07
1.83752e+07
2.0146e+07
2.20507e+07
2.40855e+07
2.62459e+07
2.85267e+07
3.09223e+07
3.34264e+07
3.60324e+07
3.87334e+07
4.15223e+07
4.43916e+07
4.73339e+07
5.03413e+07
5.34059e+07
5.65198e+07
5.96749e+07
6.2863e+07
6.60758e+07
6.93045e+07
7.25406e+07
7.57748e+07
7.89977e+07
8.21992e+07
8.53689e+07
8.84959e+07
9.15693e+07
9.45773e+07
9.75087e+07
1.00351e+08
1.03095e+08
1.05729e+08
1.08243e+08
1.10629e+08
1.12878e+08
1.14984e+08
1.16942e+08
1.18747e+08
1.20396e+08
1.21889e+08
1.23225e+08
1.24408e+08
1.25443e+08
1.26336e+08
1.27097e+08
1.27736e+08
1.28264e+08
1.28693e+08
1.29038e+08
1.29312e+08
1.29533e+08
1.2972e+08
1.29894e+08
1.30078e+08
1.30297e+08
1.30579e+08
1.30956e+08
1.31465e+08
1.32145e+08
1.33039e+08
1.34197e+08
1.35668e+08
1.37508e+08
1.39775e+08
1.42526e+08
1.45824e+08
1.49722e+08
1.54274e+08
1.59527e+08
1.65524e+08
1.723e+08
1.79883e+08
1.88287e+08
1.97517e+08
2.07565e+08
2.18416e+08
2.3005e+08
2.42433e+08
2.55517e+08
2.69253e+08
2.83585e+08
2.98471e+08
3.13848e+08
3.29648e+08
3.45799e+08
3.62239e+08
3.78885e+08
3.95647e+08
4.12414e+08
4.29069e+08
4.45459e+08
4.61428e+08
4.76779e+08
4.91286e+08
5.04706e+08
5.1676e+08
5.27149e+08
5.3559e+08
5.4178e+08
5.45461e+08
5.46396e+08
5.44416e+08
5.39391e+08
5.31291e+08
5.20178e+08
5.06242e+08
4.89744e+08
4.71097e+08
4.50686e+08
4.28953e+08
4.06257e+08
3.82976e+08
3.59345e+08
3.35516e+08
5.09191e+07
5.08752e+07
5.07733e+07
5.06104e+07
5.03868e+07
5.01031e+07
4.97595e+07
4.93564e+07
4.88944e+07
4.83742e+07
4.77963e+07
4.71618e+07
4.6472e+07
4.57284e+07
4.49326e+07
4.40868e+07
4.31931e+07
4.22541e+07
4.12723e+07
4.02506e+07
3.91921e+07
3.80998e+07
3.69768e+07
3.5826e+07
3.46507e+07
3.34542e+07
3.22401e+07
3.10121e+07
2.9774e+07
2.85295e+07
2.72823e+07
2.60362e+07
2.47948e+07
2.3562e+07
2.23415e+07
2.11374e+07
1.99537e+07
1.87946e+07
1.76644e+07
1.65674e+07
1.5508e+07
1.44909e+07
1.35208e+07
1.26026e+07
1.17412e+07
1.09417e+07
1.02093e+07
9.54934e+06
8.96711e+06
8.46806e+06
8.05758e+06
7.74105e+06
7.52384e+06
7.41116e+06
7.40806e+06
7.51937e+06
7.74962e+06
8.10297e+06
8.58313e+06
9.19333e+06
9.93623e+06
1.08139e+07
1.18275e+07
1.29778e+07
1.42646e+07
1.5687e+07
1.72433e+07
1.89313e+07
2.07479e+07
2.26894e+07
2.47514e+07
2.69289e+07
2.92163e+07
3.16074e+07
3.40961e+07
3.66754e+07
3.93385e+07
4.20781e+07
4.4887e+07
4.77573e+07
5.06816e+07
5.36521e+07
5.66608e+07
5.96996e+07
6.27604e+07
6.58346e+07
6.89139e+07
7.19892e+07
7.50511e+07
7.809e+07
8.10959e+07
8.40582e+07
8.69664e+07
8.98091e+07
9.25754e+07
9.52548e+07
9.78369e+07
1.00312e+08
1.02671e+08
1.04906e+08
1.07009e+08
1.08977e+08
1.10804e+08
1.12486e+08
1.1402e+08
1.15407e+08
1.16649e+08
1.17747e+08
1.18707e+08
1.19535e+08
1.20238e+08
1.20827e+08
1.21313e+08
1.21705e+08
1.22017e+08
1.22261e+08
1.22454e+08
1.22612e+08
1.22753e+08
1.229e+08
1.23075e+08
1.23305e+08
1.23618e+08
1.24049e+08
1.24634e+08
1.25414e+08
1.26435e+08
1.27745e+08
1.29395e+08
1.31442e+08
1.33937e+08
1.36943e+08
1.4051e+08
1.4469e+08
1.49529e+08
1.55067e+08
1.61337e+08
1.6837e+08
1.76177e+08
1.84766e+08
1.94132e+08
2.0426e+08
2.15131e+08
2.26718e+08
2.38977e+08
2.51861e+08
2.65317e+08
2.79308e+08
2.93776e+08
3.08662e+08
3.23892e+08
3.39409e+08
3.55136e+08
3.70987e+08
3.86854e+08
4.0263e+08
4.18174e+08
4.33334e+08
4.47928e+08
4.61747e+08
4.74554e+08
4.86097e+08
4.96108e+08
5.04316e+08
5.10441e+08
5.14243e+08
5.15497e+08
5.14047e+08
5.09768e+08
5.02618e+08
4.92638e+08
4.79984e+08
4.64895e+08
4.47731e+08
4.28831e+08
4.08599e+08
3.87362e+08
3.65473e+08
3.43179e+08
3.20641e+08
4.69939e+07
4.69568e+07
4.68675e+07
4.67238e+07
4.65262e+07
4.62752e+07
4.59707e+07
4.5613e+07
4.52025e+07
4.47393e+07
4.4224e+07
4.36574e+07
4.30405e+07
4.23745e+07
4.16609e+07
4.09012e+07
4.00975e+07
3.92517e+07
3.83662e+07
3.74433e+07
3.64857e+07
3.54957e+07
3.44759e+07
3.34289e+07
3.23576e+07
3.12649e+07
3.01542e+07
2.90288e+07
2.7892e+07
2.6747e+07
2.55972e+07
2.44458e+07
2.32964e+07
2.21522e+07
2.1017e+07
1.98944e+07
1.87883e+07
1.77025e+07
1.66412e+07
1.56084e+07
1.46084e+07
1.36457e+07
1.2725e+07
1.18508e+07
1.10281e+07
1.0262e+07
9.55749e+06
8.91991e+06
8.35459e+06
7.86687e+06
7.46213e+06
7.14575e+06
6.92306e+06
6.79923e+06
6.77926e+06
6.86793e+06
7.06974e+06
7.38879e+06
7.82873e+06
8.39274e+06
9.08342e+06
9.90275e+06
1.08521e+07
1.1932e+07
1.31422e+07
1.4482e+07
1.59496e+07
1.75428e+07
1.92586e+07
2.10933e+07
2.30428e+07
2.51021e+07
2.72658e+07
2.9528e+07
3.18825e+07
3.43229e+07
3.68424e+07
3.94339e+07
4.20905e+07
4.48046e+07
4.75689e+07
5.03757e+07
5.32174e+07
5.60861e+07
5.89739e+07
6.18724e+07
6.47732e+07
6.76679e+07
7.05471e+07
7.34014e+07
7.62215e+07
7.89973e+07
8.17186e+07
8.43748e+07
8.69555e+07
8.9451e+07
9.18518e+07
9.4149e+07
9.63342e+07
9.84002e+07
1.00341e+08
1.02152e+08
1.0383e+08
1.05373e+08
1.06778e+08
1.08047e+08
1.0918e+08
1.10182e+08
1.11055e+08
1.11806e+08
1.12442e+08
1.12973e+08
1.13406e+08
1.13753e+08
1.14024e+08
1.14231e+08
1.14387e+08
1.14509e+08
1.14611e+08
1.14713e+08
1.14836e+08
1.15005e+08
1.15245e+08
1.15588e+08
1.16068e+08
1.1672e+08
1.17587e+08
1.18715e+08
1.20153e+08
1.21952e+08
1.24163e+08
1.26842e+08
1.30039e+08
1.33804e+08
1.3818e+08
1.43206e+08
1.48915e+08
1.55335e+08
1.62482e+08
1.70361e+08
1.7897e+08
1.883e+08
1.98329e+08
2.09038e+08
2.20387e+08
2.32336e+08
2.44833e+08
2.57843e+08
2.71317e+08
2.85198e+08
2.99421e+08
3.13926e+08
3.28645e+08
3.4349e+08
3.58367e+08
3.73171e+08
3.87775e+08
4.02032e+08
4.15776e+08
4.28815e+08
4.40921e+08
4.51869e+08
4.61419e+08
4.69322e+08
4.75324e+08
4.79193e+08
4.80729e+08
4.79796e+08
4.76265e+08
4.70086e+08
4.61282e+08
4.49983e+08
4.36398e+08
4.20834e+08
4.03584e+08
3.85014e+08
3.65409e+08
3.45093e+08
3.24317e+08
3.03271e+08
4.28883e+07
4.28588e+07
4.27829e+07
4.26596e+07
4.24891e+07
4.22717e+07
4.20075e+07
4.16964e+07
4.13382e+07
4.09333e+07
4.04821e+07
3.99852e+07
3.94432e+07
3.88571e+07
3.82281e+07
3.75575e+07
3.68467e+07
3.60974e+07
3.53116e+07
3.44911e+07
3.36378e+07
3.27536e+07
3.18408e+07
3.09015e+07
2.99384e+07
2.8954e+07
2.79513e+07
2.6933e+07
2.59019e+07
2.48609e+07
2.38129e+07
2.27609e+07
2.17079e+07
2.06569e+07
1.96114e+07
1.85747e+07
1.75503e+07
1.65419e+07
1.55533e+07
1.45883e+07
1.36511e+07
1.27459e+07
1.18772e+07
1.10496e+07
1.02679e+07
9.53695e+06
8.86192e+06
8.24797e+06
7.70039e+06
7.22453e+06
6.8257e+06
6.50923e+06
6.2804e+06
6.14436e+06
6.10607e+06
6.17026e+06
6.34137e+06
6.62344e+06
7.02005e+06
7.53433e+06
8.16881e+06
8.92541e+06
9.80541e+06
1.08094e+07
1.19372e+07
1.31879e+07
1.45598e+07
1.60508e+07
1.76579e+07
1.93775e+07
2.12055e+07
2.31372e+07
2.51673e+07
2.72903e+07
2.95e+07
3.17902e+07
3.41545e+07
3.65861e+07
3.90781e+07
4.16233e+07
4.42145e+07
4.68445e+07
4.95058e+07
5.21906e+07
5.48914e+07
5.76001e+07
6.03084e+07
6.30081e+07
6.56902e+07
6.83458e+07
7.09659e+07
7.35409e+07
7.60613e+07
7.85172e+07
8.08992e+07
8.31982e+07
8.54055e+07
8.75134e+07
8.95141e+07
9.14015e+07
9.31699e+07
9.48161e+07
9.6337e+07
9.77316e+07
9.89994e+07
1.00141e+08
1.01158e+08
1.02055e+08
1.02834e+08
1.03501e+08
1.04063e+08
1.04527e+08
1.04901e+08
1.05195e+08
1.05418e+08
1.05581e+08
1.05695e+08
1.05773e+08
1.0583e+08
1.05883e+08
1.05948e+08
1.0605e+08
1.06212e+08
1.06461e+08
1.06828e+08
1.07345e+08
1.0805e+08
1.08987e+08
1.102e+08
1.11738e+08
1.1365e+08
1.15986e+08
1.18795e+08
1.22123e+08
1.26012e+08
1.30501e+08
1.35622e+08
1.41402e+08
1.47857e+08
1.54995e+08
1.62816e+08
1.71313e+08
1.8047e+08
1.90268e+08
2.00674e+08
2.11654e+08
2.23161e+08
2.35161e+08
2.47609e+08
2.60454e+08
2.73634e+08
2.87095e+08
3.00767e+08
3.14569e+08
3.28414e+08
3.42204e+08
3.55822e+08
3.69125e+08
3.81961e+08
3.94157e+08
4.05502e+08
4.15789e+08
4.24806e+08
4.32333e+08
4.38139e+08
4.42007e+08
4.43763e+08
4.43287e+08
4.40451e+08
4.35199e+08
4.27537e+08
4.17583e+08
4.05506e+08
3.91569e+08
3.76017e+08
3.59176e+08
3.41284e+08
3.22641e+08
3.03489e+08
2.84051e+08
3.88153e+07
3.87933e+07
3.87307e+07
3.86275e+07
3.84838e+07
3.82995e+07
3.80745e+07
3.78085e+07
3.75015e+07
3.71537e+07
3.67653e+07
3.63366e+07
3.58681e+07
3.53604e+07
3.48144e+07
3.4231e+07
3.36114e+07
3.29569e+07
3.22688e+07
3.15485e+07
3.07974e+07
3.00173e+07
2.92098e+07
2.83769e+07
2.75206e+07
2.66434e+07
2.57475e+07
2.48352e+07
2.39089e+07
2.29711e+07
2.20242e+07
2.10709e+07
2.01137e+07
1.91556e+07
1.81995e+07
1.72485e+07
1.63056e+07
1.53744e+07
1.44583e+07
1.35611e+07
1.26865e+07
1.18388e+07
1.10222e+07
1.02411e+07
9.5003e+06
8.80458e+06
8.15897e+06
7.5686e+06
7.03867e+06
6.57448e+06
6.18131e+06
5.86443e+06
5.62907e+06
5.48032e+06
5.42311e+06
5.46212e+06
5.60171e+06
5.84585e+06
6.19807e+06
6.6614e+06
7.2383e+06
7.93064e+06
8.73963e+06
9.66581e+06
1.0709e+07
1.18683e+07
1.3142e+07
1.4528e+07
1.60232e+07
1.76244e+07
1.93274e+07
2.11278e+07
2.30203e+07
2.49996e+07
2.70599e+07
2.9195e+07
3.1399e+07
3.3665e+07
3.59866e+07
3.83569e+07
4.0769e+07
4.32158e+07
4.569e+07
4.81842e+07
5.0691e+07
5.32027e+07
5.57112e+07
5.82087e+07
6.06865e+07
6.31363e+07
6.55494e+07
6.79168e+07
7.02296e+07
7.24791e+07
7.46565e+07
7.67536e+07
7.87625e+07
8.06765e+07
8.24886e+07
8.41937e+07
8.57869e+07
8.72652e+07
8.86265e+07
8.98705e+07
9.09978e+07
9.20094e+07
9.2907e+07
9.3694e+07
9.43745e+07
9.49531e+07
9.54356e+07
9.58286e+07
9.61385e+07
9.63734e+07
9.65427e+07
9.66556e+07
9.67216e+07
9.67524e+07
9.67599e+07
9.67581e+07
9.67632e+07
9.67955e+07
9.68753e+07
9.70273e+07
9.72789e+07
9.76594e+07
9.82024e+07
9.89472e+07
9.99354e+07
1.01212e+08
1.02824e+08
1.04817e+08
1.07236e+08
1.10125e+08
1.13527e+08
1.17478e+08
1.22011e+08
1.27151e+08
1.32915e+08
1.39315e+08
1.46352e+08
1.54022e+08
1.62312e+08
1.71207e+08
1.80681e+08
1.90702e+08
2.0123e+08
2.12236e+08
2.23672e+08
2.35492e+08
2.47641e+08
2.60066e+08
2.72698e+08
2.85465e+08
2.98281e+08
3.11056e+08
3.23675e+08
3.36006e+08
3.47912e+08
3.59233e+08
3.69776e+08
3.79357e+08
3.87783e+08
3.94863e+08
4.00396e+08
4.04183e+08
4.06076e+08
4.05961e+08
4.03725e+08
3.99303e+08
3.92698e+08
3.84008e+08
3.7337e+08
3.61009e+08
3.47126e+08
3.32e+08
3.15828e+08
2.98883e+08
2.81394e+08
2.63615e+08
3.49619e+07
3.49467e+07
3.48964e+07
3.48118e+07
3.4693e+07
3.45395e+07
3.43512e+07
3.41276e+07
3.38688e+07
3.35745e+07
3.3245e+07
3.28802e+07
3.24805e+07
3.20462e+07
3.1578e+07
3.10765e+07
3.05424e+07
2.99766e+07
2.938e+07
2.87538e+07
2.80989e+07
2.74167e+07
2.67086e+07
2.5976e+07
2.52207e+07
2.44445e+07
2.36495e+07
2.28373e+07
2.201e+07
2.11697e+07
2.03185e+07
1.94586e+07
1.85923e+07
1.77223e+07
1.6851e+07
1.59811e+07
1.51157e+07
1.42578e+07
1.34106e+07
1.25776e+07
1.17626e+07
1.09695e+07
1.02023e+07
9.46549e+06
8.76357e+06
8.10132e+06
7.48363e+06
6.91556e+06
6.40224e+06
5.94891e+06
5.56078e+06
5.24308e+06
5.00097e+06
4.83954e+06
4.76363e+06
4.77785e+06
4.88651e+06
5.0935e+06
5.40225e+06
5.81568e+06
6.33619e+06
6.96557e+06
7.70495e+06
8.55478e+06
9.51483e+06
1.05842e+07
1.17612e+07
1.30437e+07
1.44287e+07
1.59129e+07
1.74923e+07
1.91626e+07
2.09187e+07
2.27556e+07
2.46674e+07
2.66484e+07
2.86926e+07
3.07937e+07
3.29453e+07
3.51408e+07
3.73737e+07
3.9637e+07
4.19239e+07
4.4227e+07
4.65392e+07
4.88531e+07
5.1161e+07
5.34554e+07
5.57282e+07
5.79713e+07
6.01768e+07
6.23362e+07
6.44414e+07
6.64844e+07
6.84574e+07
7.0353e+07
7.21642e+07
7.38849e+07
7.55093e+07
7.70332e+07
7.84525e+07
7.97643e+07
8.0968e+07
8.20633e+07
8.30513e+07
8.39332e+07
8.47111e+07
8.53882e+07
8.59684e+07
8.64561e+07
8.68567e+07
8.71753e+07
8.74173e+07
8.75898e+07
8.77011e+07
8.77595e+07
8.77732e+07
8.7752e+07
8.77061e+07
8.76475e+07
8.75905e+07
8.75523e+07
8.75506e+07
8.76066e+07
8.77452e+07
8.79928e+07
8.83794e+07
8.89405e+07
8.97139e+07
9.07409e+07
9.20638e+07
9.37255e+07
9.57688e+07
9.82364e+07
1.01168e+08
1.04601e+08
1.08566e+08
1.13089e+08
1.18189e+08
1.23879e+08
1.30163e+08
1.37041e+08
1.44501e+08
1.52535e+08
1.61118e+08
1.70224e+08
1.79819e+08
1.89875e+08
2.00349e+08
2.11192e+08
2.22354e+08
2.33784e+08
2.45419e+08
2.57187e+08
2.69007e+08
2.80791e+08
2.92429e+08
3.03797e+08
3.14774e+08
3.25209e+08
3.34932e+08
3.43776e+08
3.51566e+08
3.58139e+08
3.63322e+08
3.66939e+08
3.68866e+08
3.69001e+08
3.67239e+08
3.63522e+08
3.57848e+08
3.50295e+08
3.40977e+08
3.30086e+08
3.17781e+08
3.04294e+08
2.89791e+08
2.74509e+08
2.58667e+08
2.42538e+08
3.14796e+07
3.147e+07
3.14304e+07
3.13624e+07
3.12657e+07
3.11398e+07
3.09845e+07
3.07993e+07
3.05839e+07
3.0338e+07
3.00615e+07
2.97544e+07
2.94168e+07
2.90488e+07
2.86507e+07
2.82229e+07
2.77657e+07
2.72797e+07
2.67655e+07
2.62239e+07
2.56557e+07
2.50618e+07
2.44432e+07
2.38011e+07
2.31368e+07
2.24519e+07
2.17478e+07
2.1026e+07
2.02882e+07
1.95359e+07
1.87711e+07
1.79956e+07
1.72115e+07
1.64209e+07
1.56262e+07
1.48298e+07
1.40343e+07
1.32426e+07
1.24576e+07
1.16828e+07
1.09216e+07
1.01778e+07
9.45543e+06
8.75859e+06
8.09179e+06
7.4597e+06
6.86714e+06
6.31907e+06
5.82054e+06
5.37671e+06
4.99274e+06
4.6738e+06
4.42502e+06
4.25143e+06
4.15781e+06
4.1487e+06
4.22831e+06
4.40043e+06
4.66839e+06
5.03501e+06
5.50257e+06
6.07277e+06
6.74664e+06
7.52456e+06
8.40623e+06
9.39064e+06
1.04762e+07
1.16606e+07
1.29409e+07
1.43138e+07
1.57754e+07
1.73214e+07
1.89472e+07
2.06474e+07
2.24168e+07
2.42496e+07
2.614e+07
2.80818e+07
3.00689e+07
3.20951e+07
3.4154e+07
3.6239e+07
3.83434e+07
4.04602e+07
4.25826e+07
4.47034e+07
4.68155e+07
4.89114e+07
5.09839e+07
5.30251e+07
5.50277e+07
5.6984e+07
5.88866e+07
6.07283e+07
6.25019e+07
6.4201e+07
6.58193e+07
6.73517e+07
6.87935e+07
7.01411e+07
7.13912e+07
7.25417e+07
7.35922e+07
7.4543e+07
7.53953e+07
7.61506e+07
7.68109e+07
7.73794e+07
7.78597e+07
7.82562e+07
7.85733e+07
7.88153e+07
7.89871e+07
7.90949e+07
7.91456e+07
7.91463e+07
7.91046e+07
7.90281e+07
7.89265e+07
7.88095e+07
7.86902e+07
7.85827e+07
7.85023e+07
7.84674e+07
7.84997e+07
7.86234e+07
7.88655e+07
7.92575e+07
7.98331e+07
8.06291e+07
8.16844e+07
8.30397e+07
8.47346e+07
8.68098e+07
8.93042e+07
9.22532e+07
9.56877e+07
9.96338e+07
1.04114e+08
1.09141e+08
1.14724e+08
1.20864e+08
1.27554e+08
1.34788e+08
1.42546e+08
1.50805e+08
1.59536e+08
1.68711e+08
1.78292e+08
1.8823e+08
1.98473e+08
2.08975e+08
2.19675e+08
2.30502e+08
2.4138e+08
2.52216e+08
2.6291e+08
2.73346e+08
2.83411e+08
2.92966e+08
3.01865e+08
3.09952e+08
3.17074e+08
3.23086e+08
3.27851e+08
3.31207e+08
3.33059e+08
3.33321e+08
3.319e+08
3.28746e+08
3.23855e+08
3.17287e+08
3.0914e+08
2.99572e+08
2.88712e+08
2.76746e+08
2.63815e+08
2.50117e+08
2.35859e+08
2.21325e+08
2.84784e+07
2.84729e+07
2.8442e+07
2.83878e+07
2.831e+07
2.8208e+07
2.80812e+07
2.79292e+07
2.77515e+07
2.75478e+07
2.73175e+07
2.70607e+07
2.67771e+07
2.64666e+07
2.61293e+07
2.57653e+07
2.53747e+07
2.49578e+07
2.45149e+07
2.40465e+07
2.35531e+07
2.30353e+07
2.24939e+07
2.19299e+07
2.13442e+07
2.07379e+07
2.01121e+07
1.94681e+07
1.88072e+07
1.81307e+07
1.74402e+07
1.67374e+07
1.60238e+07
1.53015e+07
1.45725e+07
1.38391e+07
1.31036e+07
1.23687e+07
1.16373e+07
1.09124e+07
1.01975e+07
9.49608e+06
8.81203e+06
8.14947e+06
7.51274e+06
6.90642e+06
6.33526e+06
5.80413e+06
5.31802e+06
4.88199e+06
4.50117e+06
4.18068e+06
3.92558e+06
3.74084e+06
3.63116e+06
3.60098e+06
3.65444e+06
3.79523e+06
4.02657e+06
4.35113e+06
4.77108e+06
5.28796e+06
5.90272e+06
6.61561e+06
7.4262e+06
8.33343e+06
9.33558e+06
1.04304e+07
1.16148e+07
1.28856e+07
1.42388e+07
1.56702e+07
1.71753e+07
1.87488e+07
2.03856e+07
2.208e+07
2.38264e+07
2.56189e+07
2.74514e+07
2.93178e+07
3.12123e+07
3.31283e+07
3.50595e+07
3.69992e+07
3.89408e+07
4.08776e+07
4.28026e+07
4.4709e+07
4.65899e+07
4.8438e+07
5.02467e+07
5.20087e+07
5.37174e+07
5.53664e+07
5.69491e+07
5.84599e+07
5.98937e+07
6.1246e+07
6.25132e+07
6.36921e+07
6.47803e+07
6.57764e+07
6.66802e+07
6.74921e+07
6.82138e+07
6.88466e+07
6.93927e+07
6.98551e+07