/*--------------------------------*- C++ -*----------------------------------*\
| =========                 |                                                 |
| \\      /  F ield         | OpenFOAM: The Open Source CFD Toolbox           |
|  \\    /   O peration     | Version:  dev                                   |
|   \\  /    A nd           | Web:      http://www.openfoam.org               |
|    \\/     M anipulation  |                                                 |
\*---------------------------------------------------------------------------*/
FoamFile
{
    version     2.0;
    format      ascii;
    class       volScalarField;
    object      rho;
    location    "9.153";
}
// * * * * * * * * * * * * * * * * * * * * * * * * * * * * * * * * * * * * * //

dimensions      [1 -3 0 0 0 0 0];

internalField   nonuniform List<scalar> 
12225
(
1.18376
1.18411
1.18388
1.18288
1.18148
1.17941
1.17734
1.17468
1.17222
1.16909
1.16633
1.16264
1.15951
1.15536
1.15275
1.14749
1.14951
1.14378
1.18285
1.18711
1.18803
1.188
1.18624
1.18481
1.1815
1.17919
1.17553
1.17251
1.16877
1.16541
1.16148
1.15748
1.15561
1.14949
1.15354
1.14577
1.18196
1.18756
1.18828
1.18893
1.18744
1.18636
1.18376
1.18076
1.17811
1.17371
1.17094
1.1662
1.16358
1.1596
1.15728
1.1557
1.15065
1.14664
1.18191
1.18727
1.18836
1.18798
1.18814
1.18544
1.18514
1.18036
1.17953
1.1741
1.172
1.16593
1.16449
1.15817
1.15515
1.15044
1.14978
1.14962
1.18197
1.1862
1.18862
1.18696
1.18809
1.1848
1.18472
1.18005
1.17899
1.17474
1.17175
1.16615
1.16403
1.1586
1.15375
1.14689
1.14774
1.14867
1.18239
1.18504
1.18783
1.18624
1.1873
1.18408
1.18379
1.17917
1.17867
1.17395
1.17156
1.16508
1.16401
1.15842
1.15687
1.14985
1.14841
1.1455
1.18143
1.18437
1.18652
1.18564
1.18584
1.18312
1.18211
1.17901
1.17741
1.17323
1.17064
1.16531
1.16327
1.15853
1.1568
1.15166
1.14906
1.14473
1.18046
1.1838
1.18618
1.18526
1.18475
1.18207
1.18095
1.1782
1.1763
1.17201
1.16971
1.16455
1.16229
1.15774
1.1554
1.15066
1.14816
1.14429
1.17936
1.18241
1.18504
1.18419
1.18364
1.1811
1.17983
1.17723
1.1751
1.17115
1.16826
1.1639
1.16128
1.15715
1.15404
1.14999
1.14714
1.14385
1.1781
1.18127
1.18357
1.18267
1.18235
1.17952
1.17821
1.17538
1.17301
1.16957
1.16664
1.1628
1.15968
1.1557
1.15247
1.14907
1.14627
1.14319
1.17605
1.17973
1.18185
1.1804
1.17966
1.17731
1.17626
1.17368
1.1707
1.1674
1.16463
1.16122
1.15787
1.15434
1.15088
1.14766
1.14473
1.14215
1.17369
1.17731
1.17901
1.1779
1.17721
1.17495
1.17292
1.17066
1.16814
1.16476
1.16176
1.15835
1.15522
1.1522
1.14874
1.14551
1.14292
1.14082
1.17074
1.17448
1.17538
1.17438
1.17341
1.17141
1.16929
1.16669
1.16415
1.16131
1.15823
1.15515
1.15182
1.1488
1.14567
1.14312
1.14091
1.13877
1.16709
1.17072
1.17127
1.17042
1.16892
1.1669
1.16498
1.16232
1.15962
1.15684
1.15371
1.15084
1.14763
1.14491
1.14226
1.13984
1.13751
1.13527
1.16191
1.16573
1.16606
1.16499
1.16339
1.16148
1.15904
1.15659
1.154
1.15107
1.14835
1.14545
1.14284
1.14017
1.13764
1.13539
1.13333
1.13162
1.1559
1.15968
1.1597
1.15838
1.1566
1.1546
1.15229
1.14977
1.14718
1.14459
1.14202
1.13943
1.13694
1.1346
1.13235
1.1303
1.12843
1.12671
1.14813
1.1521
1.15204
1.15074
1.14905
1.14693
1.14465
1.1422
1.13979
1.1374
1.13493
1.13255
1.13033
1.12822
1.12638
1.12455
1.12299
1.12151
1.14017
1.1443
1.14418
1.14304
1.14126
1.1391
1.13707
1.13468
1.13259
1.13035
1.12797
1.12585
1.12385
1.12216
1.12062
1.11918
1.11792
1.11664
1.13317
1.13754
1.1373
1.13655
1.13484
1.13284
1.13109
1.1288
1.12706
1.12489
1.12277
1.12076
1.11898
1.11765
1.11638
1.1153
1.11424
1.11321
1.12724
1.13177
1.13158
1.1314
1.12981
1.12806
1.12647
1.12433
1.12286
1.12058
1.11886
1.11693
1.11548
1.11448
1.11341
1.1127
1.11171
1.11099
1.12243
1.12742
1.12759
1.12757
1.12595
1.12448
1.12306
1.12116
1.11984
1.11753
1.11619
1.11444
1.11323
1.11237
1.11122
1.11077
1.10976
1.10939
1.11865
1.12413
1.12453
1.12432
1.12317
1.12213
1.12067
1.11888
1.11763
1.11562
1.11443
1.11291
1.11156
1.1108
1.10959
1.10934
1.10853
1.1084
1.11587
1.12158
1.12216
1.12172
1.121
1.12018
1.11873
1.11719
1.11588
1.11423
1.11297
1.11154
1.11035
1.10952
1.10865
1.10842
1.10786
1.10783
1.11349
1.11963
1.12055
1.12018
1.11953
1.11867
1.11747
1.1162
1.11471
1.11324
1.11195
1.11065
1.10976
1.10876
1.10813
1.10753
1.10715
1.10703
1.11196
1.1183
1.11928
1.11906
1.11854
1.1176
1.11652
1.11531
1.11393
1.11263
1.11126
1.11005
1.10893
1.10797
1.10729
1.10674
1.1065
1.10632
1.11075
1.11733
1.1184
1.11824
1.11774
1.11691
1.11589
1.11463
1.11334
1.11198
1.1107
1.10953
1.10846
1.10766
1.10699
1.10661
1.10635
1.10632
1.1102
1.11665
1.11773
1.11759
1.11718
1.11642
1.11541
1.11421
1.1129
1.11157
1.11035
1.10925
1.10836
1.10765
1.10718
1.10688
1.10677
1.10686
1.10989
1.11652
1.1175
1.11729
1.11687
1.11606
1.11498
1.11367
1.11235
1.11107
1.11005
1.10919
1.10864
1.10825
1.10817
1.10824
1.10858
1.10907
1.10924
1.11589
1.11699
1.11676
1.1162
1.11528
1.11411
1.11286
1.11175
1.11082
1.11014
1.10965
1.10941
1.10928
1.10939
1.10948
1.10983
1.11006
1.10847
1.11303
1.11341
1.11299
1.1123
1.11137
1.11032
1.10926
1.10825
1.10733
1.10652
1.10583
1.10527
1.10481
1.10447
1.10422
1.10409
1.10414
1.06739
1.08651
1.08666
1.08532
1.08422
1.08294
1.08177
1.08061
1.07966
1.07885
1.07794
1.07708
1.07621
1.07558
1.0751
1.0745
1.07356
1.07243
1.07143
1.07073
1.0702
1.06975
1.06924
1.06869
1.06827
1.06858
1.06959
1.07057
1.07116
1.07168
1.07247
1.07321
1.07367
1.07397
1.07412
1.07405
1.0737
1.0731
1.07261
1.07264
1.07373
1.07623
1.07987
1.08366
1.0868
1.08902
1.09046
1.09123
1.09255
1.09474
1.09631
1.09746
1.09925
1.10259
1.10663
1.10968
1.11216
1.11427
1.11691
1.12017
1.12407
1.12868
1.13364
1.13864
1.14293
1.14602
1.1485
1.1511
1.15413
1.15773
1.16167
1.16581
1.16975
1.17184
1.17213
1.17545
1.17999
1.17557
1.16604
1.16422
1.16961
1.17492
1.17837
1.18045
1.18249
1.18467
1.18557
1.18176
1.1708
1.15625
1.14701
1.14918
1.15537
1.15988
1.16243
1.16262
1.16165
1.16132
1.16049
1.15822
1.15426
1.14921
1.14351
1.13772
1.13505
1.14
1.14811
1.13963
1.12073
1.11365
1.11958
1.14355
1.1404
1.13866
1.13593
1.13211
1.13211
1.1308
1.12909
1.12772
1.1265
1.12463
1.12202
1.11946
1.11707
1.11497
1.11227
1.10976
1.10656
1.10476
1.10326
1.10318
1.10267
1.10266
1.10255
1.10264
1.10267
1.1015
1.10215
1.10061
1.10231
1.10016
1.10246
1.09928
1.10455
1.10319
1.10349
1.10969
1.11938
1.12108
1.1211
1.12046
1.11348
1.1167
1.11839
1.13157
1.14784
1.15281
1.14826
1.14356
1.14912
1.15016
1.15527
1.16315
1.17763
1.18805
1.18191
1.15791
1.14668
1.15907
1.19511
1.20643
1.19934
1.2099
1.17683
1.16498
1.14917
1.1742
1.17211
1.14855
1.06909
1.0936
1.09177
1.08929
1.08863
1.0879
1.08694
1.08707
1.0874
1.08793
1.08782
1.08698
1.08563
1.08544
1.08753
1.09079
1.09257
1.09254
1.09062
1.08822
1.08567
1.08349
1.08306
1.08552
1.09016
1.09268
1.09254
1.09185
1.09179
1.09156
1.09165
1.09183
1.09217
1.09246
1.0927
1.09291
1.093
1.09321
1.09369
1.09433
1.09523
1.09666
1.0987
1.10121
1.10413
1.1072
1.11016
1.1114
1.11097
1.11263
1.11714
1.1189
1.11491
1.11534
1.1223
1.12811
1.13207
1.13252
1.13307
1.13534
1.13827
1.14331
1.14927
1.15711
1.16493
1.16936
1.171
1.1719
1.17296
1.17538
1.17928
1.18394
1.18828
1.19241
1.19363
1.19069
1.19022
1.19311
1.19611
1.19493
1.18689
1.18017
1.18115
1.18329
1.18798
1.19766
1.20535
1.20015
1.19067
1.18732
1.18827
1.18983
1.19037
1.18917
1.18651
1.18492
1.18311
1.1793
1.17163
1.16325
1.15494
1.14475
1.12886
1.11348
1.1106
1.12835
1.16057
1.14291
1.06228
1.06855
1.09422
1.13432
1.15654
1.14713
1.13367
1.1154
1.12099
1.13247
1.13565
1.13375
1.13316
1.13858
1.14397
1.14378
1.13898
1.13744
1.13911
1.14708
1.15397
1.1546
1.1477
1.14204
1.14218
1.14852
1.15291
1.15656
1.16209
1.16661
1.17339
1.17249
1.17643
1.17223
1.17957
1.16655
1.17406
1.18654
1.13263
1.16344
1.15597
1.15902
1.18293
1.20451
1.20207
1.20519
1.20266
1.24286
1.27297
1.29078
1.29861
1.28364
1.28655
1.29885
1.31153
1.31463
1.34048
1.3688
1.35897
1.31294
1.29552
1.33087
1.40306
1.41767
1.39136
1.37635
1.27572
1.32971
1.28214
1.2755
1.26831
1.2805
1.06497
1.08951
1.09043
1.08989
1.08963
1.09005
1.08988
1.09163
1.09448
1.09759
1.10203
1.10738
1.11031
1.11065
1.10402
1.0949
1.08972
1.08681
1.08851
1.09024
1.09225
1.09447
1.09637
1.09512
1.0929
1.09165
1.08916
1.08813
1.08801
1.08664
1.08519
1.0858
1.08633
1.08675
1.08712
1.08784
1.08763
1.08715
1.08662
1.08604
1.08608
1.08695
1.08882
1.09147
1.09432
1.09682
1.09934
1.10188
1.10425
1.10636
1.11014
1.11681
1.12233
1.1256
1.1301
1.13147
1.13369
1.14089
1.14519
1.14719
1.14694
1.14649
1.14815
1.15136
1.15609
1.16318
1.17131
1.17839
1.18167
1.18272
1.18398
1.1856
1.18645
1.18823
1.19312
1.19241
1.18767
1.18754
1.19034
1.19362
1.19725
1.19519
1.1897
1.18667
1.18876
1.19188
1.19296
1.19197
1.19083
1.19218
1.19273
1.19207
1.18931
1.18389
1.17656
1.16978
1.16308
1.15326
1.14283
1.13712
1.13747
1.13765
1.12971
1.12019
1.11897
1.12182
1.12994
1.1309
1.0734
1.09027
1.10705
1.09384
1.14146
1.12857
1.10832
1.07735
1.07142
1.0918
1.11541
1.12037
1.10969
1.09901
1.10251
1.12342
1.13723
1.12731
1.11411
1.11156
1.12253
1.13673
1.14707
1.15125
1.15029
1.14636
1.14408
1.14843
1.15975
1.16829
1.17312
1.19243
1.21026
1.20987
1.21983
1.19936
1.21928
1.23036
1.04509
1.11854
1.03085
1.05175
1.09549
1.13141
1.20928
1.2411
1.24908
1.29607
1.25682
1.27245
1.32593
1.35924
1.36371
1.3676
1.37988
1.37521
1.38726
1.42038
1.42477
1.40328
1.41695
1.46206
1.4784
1.46141
1.41742
1.3269
1.19869
1.3503
1.3236
1.28358
1.26202
1.30339
1.0625
1.08718
1.08912
1.0907
1.09214
1.09326
1.09426
1.09807
1.10385
1.10613
1.10036
1.09387
1.09172
1.08785
1.08609
1.08582
1.08809
1.08891
1.08845
1.09435
1.09899
1.0986
1.09384
1.08961
1.08615
1.08324
1.08035
1.07832
1.07736
1.0765
1.07503
1.07516
1.07482
1.0746
1.07462
1.07397
1.07417
1.07336
1.07349
1.07322
1.07301
1.07368
1.07465
1.07616
1.07833
1.08122
1.08479
1.08867
1.09253
1.09552
1.09808
1.10158
1.10557
1.11092
1.11981
1.12665
1.12894
1.13487
1.1391
1.14066
1.14381
1.14921
1.1539
1.15866
1.16222
1.16412
1.16626
1.16747
1.17025
1.1748
1.17732
1.18075
1.18237
1.1849
1.19122
1.1874
1.1871
1.19497
1.19078
1.1873
1.20001
1.20086
1.19048
1.19428
1.19968
1.20179
1.20431
1.20361
1.1986
1.19332
1.18929
1.18786
1.18419
1.17862
1.17286
1.1677
1.15859
1.14434
1.13204
1.13027
1.13557
1.13829
1.13855
1.14197
1.14716
1.14322
1.12646
1.11976
1.12507
1.1137
1.11179
1.08933
1.14513
1.12314
1.10598
1.08689
1.07297
1.06617
1.08941
1.11304
1.1194
1.1174
1.10522
1.08983
1.09999
1.11958
1.13107
1.11718
1.11379
1.12938
1.13195
1.12816
1.14518
1.1411
1.14079
1.14492
1.13663
1.15852
1.16617
1.16165
1.17939
1.21739
1.21544
1.21272
1.2427
1.26006
1.00963
1.03755
0.95916
0.964586
0.970299
0.98209
1.15593
1.22196
1.26903
1.32642
1.18685
1.17556
1.24378
1.32935
1.39264
1.39891
1.37564
1.35842
1.36789
1.42217
1.45075
1.45647
1.4913
1.53734
1.52214
1.49945
1.47031
1.32928
1.14914
1.32974
1.34531
1.40425
1.33923
1.34511
1.06064
1.08424
1.08744
1.08944
1.09332
1.09594
1.09769
1.10293
1.10794
1.09785
1.08676
1.08448
1.08323
1.08494
1.08674
1.09033
1.09448
1.10079
1.10359
1.10275
1.09894
1.09012
1.08204
1.07773
1.0732
1.07087
1.06777
1.06677
1.06677
1.0664
1.06655
1.06679
1.06862
1.06827
1.0692
1.06901
1.06987
1.07079
1.07059
1.07183
1.07281
1.0736
1.07519
1.07631
1.0773
1.07794
1.07875
1.08042
1.08289
1.08534
1.08944
1.09245
1.0936
1.09635
1.10203
1.1086
1.11193
1.11913
1.12804
1.13613
1.14274
1.14676
1.14894
1.15199
1.15498
1.15648
1.16006
1.16593
1.17303
1.17724
1.17843
1.18711
1.19404
1.18969
1.19192
1.19176
1.18732
1.19031
1.19128
1.19232
1.20057
1.19709
1.19063
1.19824
1.20517
1.20576
1.20629
1.20199
1.19404
1.18563
1.17971
1.17689
1.17316
1.16745
1.16024
1.15341
1.14418
1.13461
1.13207
1.13538
1.13298
1.12724
1.12747
1.12866
1.12776
1.13538
1.14405
1.13606
1.12215
1.09227
1.09542
1.09938
1.13682
1.1085
1.0971
1.09131
1.09439
1.08721
1.08472
1.09644
1.09864
1.08615
1.08761
1.0957
1.10622
1.10169
1.11836
1.11449
1.08436
1.09377
1.12515
1.10381
1.11734
1.12413
1.12831
1.1462
1.11704
1.1226
1.16529
1.17458
1.13439
1.1724
1.21624
1.21028
1.25235
1.26247
1.07916
1.07092
1.03803
0.972673
0.925055
0.930111
1.11276
1.18789
1.26316
1.34648
1.18469
1.14903
1.17838
1.2236
1.32165
1.40703
1.38728
1.34426
1.32752
1.40027
1.47467
1.49865
1.53892
1.57155
1.49962
1.44629
1.45772
1.46314
1.22278
1.27868
1.31717
1.38092
1.38321
1.39099
1.06
1.08127
1.08687
1.09141
1.0942
1.09955
1.10675
1.09811
1.08811
1.08861
1.08615
1.09168
1.09328
1.09358
1.09976
1.10351
1.10658
1.10358
1.0994
1.09006
1.07848
1.07238
1.06771
1.06616
1.06557
1.06546
1.06505
1.06523
1.06674
1.06742
1.06918
1.07091
1.07272
1.07396
1.07587
1.07712
1.078
1.07997
1.08005
1.07964
1.08015
1.08058
1.08121
1.08341
1.08493
1.08625
1.08743
1.08797
1.08811
1.08631
1.08762
1.0874
1.08858
1.08906
1.09005
1.0949
1.09745
1.1041
1.11471
1.12613
1.13585
1.13865
1.13975
1.14349
1.14393
1.14168
1.14745
1.15862
1.17169
1.1823
1.18918
1.19576
1.1998
1.2019
1.20456
1.19807
1.20005
1.20669
1.19923
1.19939
1.21013
1.20127
1.19518
1.20542
1.21191
1.2098
1.20575
1.20192
1.19318
1.18268
1.17587
1.1735
1.16947
1.16071
1.1555
1.15336
1.14825
1.14189
1.13843
1.13187
1.12165
1.11983
1.12473
1.12221
1.12086
1.12445
1.13191
1.14445
1.12669
1.08884
1.10523
1.09692
1.09387
1.09647
1.10534
1.10422
1.09536
1.10692
1.1049
1.07909
1.07022
1.08611
1.08585
1.06354
1.0796
1.08704
1.09715
1.12927
1.10969
1.07548
1.12062
1.11317
1.09359
1.09159
1.09972
1.12832
1.11534
1.09727
1.11209
1.16219
1.1337
1.13137
1.16374
1.18321
1.26473
1.28269
1.16118
1.15207
1.18882
1.08558
1.01202
1.00486
1.1125
1.14621
1.27695
1.36231
1.2231
1.21974
1.23263
1.18669
1.20122
1.34503
1.39536
1.35697
1.30756
1.36125
1.45948
1.52431
1.59125
1.56626
1.38276
1.30569
1.23172
1.41709
1.40061
1.20324
1.26001
1.29457
1.35112
1.39433
1.06167
1.08292
1.09412
1.09955
1.09832
1.10237
1.09824
1.08431
1.08277
1.09245
1.09617
1.10051
1.10979
1.10777
1.10558
1.1074
1.10508
1.09423
1.08373
1.07513
1.07
1.07165
1.07227
1.07394
1.07456
1.0741
1.07394
1.07307
1.07469
1.07494
1.07746
1.07813
1.07799
1.07817
1.07909
1.08017
1.07889
1.08007
1.08031
1.08138
1.08326
1.08587
1.08832
1.09051
1.09255
1.09374
1.09526
1.09613
1.09818
1.09807
1.09949
1.09895
1.1014
1.10428
1.10177
1.09971
1.10017
1.10314
1.10806
1.11663
1.12647
1.12637
1.12425
1.12798
1.12829
1.12462
1.13301
1.15276
1.17571
1.1921
1.19967
1.20272
1.2056
1.20541
1.20111
1.19652
1.20016
1.19823
1.19105
1.20525
1.21656
1.1991
1.19794
1.21058
1.21154
1.20707
1.20159
1.19735
1.18723
1.17564
1.17047
1.16938
1.1628
1.1546
1.15357
1.15458
1.15094
1.14684
1.14666
1.14529
1.14403
1.14567
1.14391
1.13654
1.13075
1.11199
1.10335
1.11748
1.10817
1.09544
1.09792
1.10189
1.08082
1.08614
1.09863
1.11098
1.0994
1.09526
1.11657
1.10294
1.0625
1.07257
1.09966
1.06826
1.05638
1.07551
1.06744
1.09498
1.11539
1.08934
1.09834
1.12573
1.12568
1.06409
1.06199
1.11739
1.10403
1.07557
1.09198
1.13773
1.10792
1.12756
1.14665
1.13001
1.19524
1.25661
1.20205
1.18452
1.25483
1.16374
1.14914
1.09375
1.14694
1.09721
1.30483
1.40209
1.26867
1.27985
1.31342
1.255
1.16622
1.26506
1.3619
1.35568
1.28083
1.33006
1.43209
1.53569
1.57757
1.37168
1.18818
1.16025
1.18224
1.13671
1.42464
1.27871
1.19424
1.21668
1.33264
1.39999
1.06506
1.08795
1.10162
1.10122
1.09878
1.09907
1.08527
1.08076
1.09552
1.10377
1.10703
1.1064
1.10834
1.11227
1.10748
1.09852
1.09213
1.08151
1.0752
1.07548
1.07563
1.07746
1.07872
1.07593
1.07367
1.07099
1.06902
1.06857
1.07116
1.07212
1.07201
1.07125
1.07109
1.07101
1.07228
1.07438
1.0754
1.07723
1.07934
1.0821
1.08539
1.08881
1.09111
1.09313
1.0954
1.09674
1.09758
1.09782
1.09765
1.09833
1.09896
1.09866
1.10023
1.1018
1.10594
1.10741
1.10973
1.11078
1.11326
1.11821
1.12527
1.12481
1.12417
1.12976
1.13053
1.12363
1.13004
1.15379
1.17644
1.18889
1.19445
1.19286
1.19079
1.19168
1.19118
1.19132
1.19438
1.19744
1.20535
1.21623
1.20847
1.19579
1.20637
1.21562
1.2089
1.20032
1.19627
1.19224
1.18102
1.1708
1.16639
1.16232
1.15371
1.14871
1.15301
1.15727
1.1576
1.15931
1.162
1.16206
1.161
1.15973
1.15969
1.15873
1.15129
1.12846
1.11986
1.10911
1.09138
1.11641
1.09874
1.09166
1.10795
1.10332
1.09688
1.094
1.10446
1.0949
1.09183
1.11905
1.11095
1.10906
1.12975
1.09542
1.06794
1.06173
1.06658
1.06184
1.09986
1.08594
1.07256
1.10685
1.14696
1.09175
1.04783
1.11141
1.13617
1.07842
1.0688
1.15842
1.14222
1.12188
1.13206
1.16868
1.19903
1.21212
1.19242
1.16017
1.27312
1.20119
1.26563
1.17399
1.15952
1.09335
1.25899
1.39051
1.32213
1.32714
1.34534
1.33007
1.205
1.21451
1.3087
1.3442
1.2502
1.28898
1.43355
1.55444
1.54954
1.29321
1.22869
1.31654
1.36706
1.02979
1.27987
1.39191
1.27777
1.26821
1.34275
1.39931
1.06886
1.09326
1.10409
1.10211
1.10113
1.09596
1.08949
1.09141
1.10524
1.10787
1.11239
1.11768
1.11057
1.10711
1.10398
1.09588
1.08921
1.08046
1.0775
1.08038
1.08232
1.08116
1.07869
1.07592
1.07234
1.06861
1.06816
1.07069
1.07434
1.07944
1.08479
1.08623
1.08633
1.08652
1.08634
1.08672
1.0877
1.08836
1.09015
1.09269
1.09522
1.09691
1.0987
1.09991
1.10257
1.1041
1.10507
1.10743
1.10602
1.10655
1.10456
1.10166
1.10334
1.10048
1.10217
1.1033
1.10519
1.10535
1.10953
1.1147
1.12028
1.12567
1.13181
1.13761
1.13924
1.13089
1.12908
1.14845
1.17234
1.18372
1.18247
1.17861
1.17818
1.18742
1.19478
1.19878
1.20097
1.2059
1.21228
1.20841
1.19504
1.19624
1.21198
1.21396
1.20176
1.19405
1.19334
1.19009
1.1775
1.1694
1.1688
1.16372
1.15387
1.15552
1.16689
1.17314
1.17413
1.17219
1.16613
1.15758
1.14845
1.14483
1.14607
1.15252
1.1513
1.14294
1.14925
1.13626
1.13098
1.10801
1.11673
1.08864
1.0823
1.10624
1.12109
1.1135
1.11851
1.13301
1.10894
1.10974
1.11607
1.09587
1.10935
1.10041
1.11204
1.07173
1.10168
1.06483
1.10238
1.07386
1.04423
1.10025
1.10417
1.09191
1.09669
1.09294
1.11337
1.11639
1.04615
1.15257
1.0925
1.15132
1.04402
1.137
1.25686
1.24775
1.20478
1.14892
1.25112
1.18382
1.30367
1.23149
1.14781
1.14359
1.17551
1.28335
1.32968
1.37014
1.36984
1.36593
1.24659
1.18969
1.24392
1.29045
1.22432
1.22934
1.40086
1.55259
1.55245
1.32692
1.36793
1.52413
1.49088
1.17258
1.16504
1.39394
1.37519
1.36623
1.38589
1.40605
1.07166
1.09578
1.10376
1.0995
1.10185
1.09106
1.09247
1.10133
1.10914
1.11668
1.11728
1.11706
1.10992
1.10679
1.09975
1.0865
1.07986
1.07873
1.08253
1.08644
1.08641
1.08538
1.08261
1.08029
1.07782
1.07737
1.07619
1.07682
1.08044
1.08229
1.0847
1.08589
1.08516
1.08507
1.08648
1.08826
1.09008
1.09012
1.0897
1.09076
1.0931
1.09449
1.09572
1.09666
1.09941
1.10165
1.10331
1.10625
1.10769
1.11126
1.11219
1.10967
1.10972
1.11023
1.10893
1.10784
1.11123
1.11257
1.11131
1.11075
1.1112
1.11642
1.12301
1.12552
1.13499
1.13694
1.12874
1.13744
1.15916
1.17248
1.17526
1.17875
1.18553
1.19552
1.20005
1.20193
1.20485
1.20585
1.20423
1.19777
1.19501
1.20421
1.21294
1.20686
1.19327
1.18842
1.18795
1.18301
1.1742
1.17275
1.17254
1.16472
1.15659
1.16133
1.16968
1.1719
1.17278
1.16976
1.16255
1.15677
1.15146
1.15018
1.1434
1.14263
1.13929
1.12713
1.12631
1.1213
1.12198
1.12053
1.09645
1.09692
1.09616
1.10832
1.11079
1.13581
1.12625
1.14531
1.14358
1.12054
1.14296
1.12688
1.11745
1.09572
1.11948
1.07683
1.1018
1.07971
1.10847
1.07326
1.06585
1.12864
1.07592
1.07283
1.1311
1.08502
1.05806
1.12036
1.05519
1.12595
0.980078
1.18006
1.03335
1.01837
1.19253
1.26351
1.22758
1.16507
1.23635
1.12433
1.26516
1.23768
1.14233
1.16634
1.1399
1.14279
1.27004
1.37647
1.37456
1.38366
1.27333
1.2006
1.19987
1.24681
1.188
1.18968
1.37382
1.53867
1.53927
1.37752
1.43968
1.4975
1.45499
1.2125
1.1618
1.37729
1.35373
1.34288
1.34342
1.36759
1.0743
1.09673
1.10643
1.10046
1.10609
1.09555
1.08695
1.10302
1.11609
1.12122
1.12174
1.1197
1.11354
1.10658
1.09832
1.09076
1.08693
1.08631
1.0895
1.08986
1.08834
1.08576
1.08301
1.08457
1.08276
1.08265
1.08268
1.08188
1.08401
1.08466
1.08577
1.08668
1.0878
1.09043
1.09439
1.09691
1.09761
1.09586
1.09244
1.08985
1.09035
1.0935
1.09889
1.10317
1.10477
1.10611
1.10778
1.10697
1.1085
1.10824
1.10907
1.11131
1.10979
1.11112
1.10998
1.10797
1.10867
1.11483
1.11845
1.1204
1.12008
1.11942
1.11861
1.11239
1.12075
1.13658
1.13054
1.12542
1.14317
1.16376
1.17492
1.18201
1.18985
1.19576
1.19828
1.19809
1.20167
1.20004
1.19547
1.19492
1.20231
1.21375
1.21539
1.20328
1.18952
1.18449
1.18288
1.17668
1.16957
1.17123
1.17456
1.16843
1.16143
1.16439
1.16756
1.16826
1.16675
1.15801
1.14772
1.14137
1.13729
1.13458
1.12048
1.11809
1.12269
1.123
1.13231
1.14048
1.13579
1.13164
1.10098
1.08456
1.10627
1.13537
1.11666
1.13916
1.1432
1.13946
1.14582
1.136
1.1476
1.14881
1.14528
1.11169
1.13645
1.09459
1.0865
1.09244
1.11219
1.06975
1.07567
1.13992
1.07398
1.06915
1.13343
1.0937
1.05458
1.11468
1.08466
1.12344
0.9642
1.17196
1.11768
1.02491
1.10825
1.20943
1.19771
1.16688
1.24084
1.08307
1.20061
1.20391
1.14856
1.16728
1.13841
1.05717
1.20318
1.34203
1.37071
1.37844
1.26947
1.22343
1.19101
1.2433
1.17482
1.13803
1.34604
1.54285
1.51999
1.42106
1.52378
1.55398
1.44246
1.1859
1.21616
1.39182
1.32046
1.28261
1.29483
1.32598
1.07752
1.09681
1.11057
1.10689
1.10561
1.10254
1.09533
1.10082
1.11403
1.12088
1.12227
1.11571
1.10919
1.10526
1.09815
1.08927
1.08809
1.08553
1.09125
1.09604
1.09686
1.09574
1.09
1.08894
1.08727
1.08599
1.08756
1.08923
1.09147
1.09272
1.09347
1.09505
1.09883
1.102
1.10571
1.10818
1.10944
1.10967
1.10905
1.10835
1.10685
1.10719
1.10801
1.10915
1.10964
1.10883
1.11096
1.11172
1.11694
1.11724
1.118
1.11683
1.11663
1.11721
1.11787
1.11503
1.10977
1.10906
1.11185
1.11587
1.12163
1.12539
1.13064
1.12737
1.12121
1.13144
1.13374
1.12637
1.13626
1.15535
1.16658
1.17626
1.1892
1.19865
1.1988
1.19714
1.19754
1.19717
1.19629
1.20019
1.20769
1.21287
1.20932
1.19857
1.18874
1.18407
1.17852
1.17109
1.1691
1.17421
1.17689
1.17344
1.17363
1.17738
1.17596
1.17242
1.16693
1.15454
1.14532
1.14076
1.13818
1.14052
1.12819
1.12544
1.12316
1.1204
1.13059
1.1277
1.1396
1.1235
1.11456
1.10463
1.09647
1.11865
1.14727
1.15633
1.17592
1.16541
1.16113
1.15214
1.1535
1.15514
1.15441
1.1194
1.1599
1.12941
1.08781
1.10757
1.11318
1.07291
1.06352
1.12548
1.08728
1.06888
1.11612
1.11177
1.08122
1.10898
1.08843
1.1481
1.00331
1.1285
1.15207
1.09315
1.08246
1.1523
1.14002
1.15139
1.23707
1.0662
1.14858
1.15509
1.14944
1.17299
1.12768
1.0526
1.18725
1.31674
1.37804
1.3536
1.26341
1.23116
1.19054
1.22919
1.19952
1.09935
1.28581
1.5334
1.49339
1.45879
1.5599
1.52664
1.39743
1.19149
1.25589
1.42791
1.35498
1.2785
1.28401
1.30425
1.08239
1.10146
1.11808
1.12095
1.11083
1.1018
1.09661
1.10289
1.11486
1.12058
1.12402
1.11827
1.11186
1.1039
1.10065
1.09271
1.09215
1.08939
1.09166
1.09669
1.09551
1.0935
1.09012
1.08871
1.08717
1.08528
1.08614
1.09075
1.09542
1.09549
1.09467
1.09456
1.09537
1.09541
1.09561
1.09503
1.09618
1.09922
1.10239
1.10602
1.10828
1.10983
1.10969
1.11003
1.11051
1.1111
1.11048
1.11113
1.11266
1.11541
1.11838
1.11873
1.11977
1.11768
1.1187
1.11967
1.12139
1.11994
1.11842
1.11556
1.11622
1.11734
1.12373
1.13366
1.12528
1.12516
1.13535
1.1281
1.1265
1.1442
1.16244
1.17585
1.18811
1.19766
1.19803
1.19835
1.19422
1.19702
1.20242
1.20728
1.21016
1.20953
1.20255
1.19312
1.18552
1.18032
1.17446
1.16874
1.16723
1.17276
1.1777
1.17844
1.18067
1.18204
1.1788
1.17266
1.16225
1.14774
1.14131
1.13717
1.13031
1.14012
1.14304
1.14824
1.13826
1.11741
1.1133
1.11043
1.12291
1.13119
1.09556
1.09005
1.11722
1.13083
1.15658
1.14825
1.16623
1.1674
1.16499
1.15137
1.16476
1.15914
1.15496
1.12977
1.1608
1.15897
1.11419
1.13165
1.12794
1.09906
1.07468
1.11463
1.09544
1.08582
1.09965
1.11019
1.09793
1.11781
1.07131
1.15106
1.06835
1.08968
1.11961
1.11458
1.0876
1.12218
1.09771
1.13624
1.22322
1.07358
1.12406
1.12276
1.16234
1.16531
1.10389
1.0862
1.22229
1.33875
1.37484
1.32642
1.25597
1.2281
1.20969
1.23664
1.21706
1.10964
1.25472
1.50074
1.45779
1.48764
1.57811
1.4693
1.33537
1.19669
1.29613
1.47923
1.38824
1.28416
1.2812
1.29494
1.08733
1.10753
1.12754
1.13841
1.12385
1.11074
1.09701
1.09591
1.10931
1.11645
1.12614
1.12202
1.1178
1.11015
1.10498
1.09924
1.09715
1.09702
1.09818
1.1025
1.10339
1.10338
1.10172
1.10107
1.10082
1.09812
1.0938
1.09054
1.09181
1.09316
1.09246
1.09232
1.09425
1.09555
1.09506
1.09435
1.09451
1.09517
1.09715
1.10014
1.10411
1.10907
1.1124
1.11541
1.1161
1.11616
1.11586
1.1182
1.11767
1.12097
1.12236
1.12351
1.12591
1.12645
1.12474
1.12079
1.11753
1.1206
1.12351
1.12035
1.12103
1.12533
1.11892
1.1231
1.13125
1.12599
1.13504
1.13555
1.12698
1.13646
1.15493
1.17136
1.18663
1.19777
1.19901
1.19931
1.19932
1.20001
1.20687
1.21193
1.21035
1.20568
1.19969
1.19384
1.18772
1.1797
1.17135
1.16664
1.16874
1.17162
1.17145
1.17275
1.17552
1.17726
1.17236
1.16416
1.15345
1.14412
1.14406
1.14494
1.12788
1.12537
1.12481
1.1357
1.12946
1.12197
1.12033
1.11879
1.1517
1.14041
1.12298
1.10478
1.11093
1.14909
1.16858
1.16761
1.17005
1.16502
1.14457
1.13048
1.15207
1.15839
1.149
1.15077
1.1774
1.16865
1.14796
1.15761
1.14221
1.12777
1.10478
1.11927
1.10598
1.11365
1.09332
1.10346
1.1089
1.12523
1.05465
1.12724
1.11523
1.08259
1.08282
1.10641
1.1049
1.10737
1.08075
1.12894
1.19507
1.09064
1.1117
1.11419
1.18724
1.15022
1.10411
1.13747
1.27694
1.3578
1.35466
1.2987
1.24424
1.24238
1.24189
1.2422
1.22529
1.13536
1.25044
1.47254
1.44871
1.52066
1.58834
1.39579
1.28915
1.22873
1.28366
1.44465
1.34392
1.26273
1.27541
1.29151
1.09169
1.11087
1.13345
1.14716
1.13476
1.12123
1.10771
1.09801
1.10622
1.1086
1.11939
1.12318
1.11888
1.1147
1.10728
1.10175
1.09725
1.09548
1.09517
1.0977
1.09988
1.10179
1.10134
1.10141
1.10231
1.10275
1.10327
1.10306
1.10321
1.10238
1.10018
1.09771
1.09578
1.09648
1.09714
1.09804
1.09801
1.09722
1.09798
1.09901
1.10053
1.10497
1.11126
1.11585
1.11721
1.11642
1.11714
1.11839
1.12041
1.12206
1.12269
1.12524
1.12384
1.12591
1.12712
1.12843
1.12514
1.1211
1.12513
1.12274
1.11432
1.12245
1.12967
1.11863
1.12506
1.12695
1.12856
1.13918
1.13103
1.12911
1.14515
1.1649
1.18331
1.19403
1.20184
1.19946
1.20283
1.20615
1.20934
1.20966
1.20523
1.19919
1.19446
1.1923
1.18893
1.18185
1.1726
1.16734
1.16934
1.17134
1.17
1.16944
1.17338
1.17543
1.17216
1.16634
1.16039
1.15113
1.14233
1.14806
1.13542
1.12304
1.10925
1.12929
1.14228
1.14275
1.12392
1.11574
1.12902
1.12392
1.11114
1.10652
1.11603
1.1433
1.16378
1.1633
1.16808
1.17444
1.16308
1.15961
1.15739
1.14939
1.1272
1.13492
1.17878
1.14764
1.16699
1.17817
1.14825
1.15158
1.12795
1.13109
1.12502
1.12629
1.09082
1.1118
1.11826
1.11823
1.05425
1.12003
1.13065
1.09271
1.07537
1.11184
1.12092
1.10295
1.08757
1.14045
1.17516
1.10041
1.10872
1.13328
1.20413
1.14075
1.13144
1.19604
1.30961
1.34286
1.3231
1.27363
1.25269
1.25655
1.27564
1.2573
1.27924
1.17875
1.27542
1.50293
1.46851
1.55909
1.60055
1.36506
1.26657
1.24871
1.19952
1.32652
1.30951
1.26121
1.28236
1.29032
1.09572
1.11183
1.13864
1.14803
1.13558
1.12723
1.11792
1.10647
1.11123
1.11227
1.1159
1.12259
1.12152
1.12129
1.11685
1.11091
1.10697
1.10371
1.10099
1.09994
1.09942
1.09951
1.09855
1.09801
1.0976
1.09689
1.09728
1.09725
1.09718
1.09875
1.10119
1.10292
1.10403
1.10325
1.1013
1.09969
1.10142
1.10761
1.1127
1.11331
1.10806
1.10499
1.1079
1.11218
1.11511
1.11789
1.12207
1.12314
1.12396
1.12583
1.1254
1.12779
1.12857
1.12739
1.12853
1.12638
1.12734
1.12416
1.123
1.12701
1.12672
1.1206
1.12875
1.12623
1.11944
1.13042
1.1286
1.13706
1.1404
1.12718
1.13668
1.15501
1.17534
1.19196
1.19898
1.20248
1.20463
1.2087
1.21264
1.20982
1.20117
1.19314
1.18836
1.1877
1.18684
1.18102
1.17164
1.16883
1.17258
1.17682
1.1737
1.17013
1.17289
1.17735
1.17747
1.16724
1.15934
1.1589
1.14426
1.15088
1.15719
1.15777
1.13354
1.13101
1.13595
1.14212
1.12165
1.11234
1.1354
1.14612
1.12898
1.10048
1.12133
1.16259
1.17466
1.1611
1.16971
1.17744
1.16739
1.16996
1.16594
1.14926
1.13445
1.13917
1.17084
1.12977
1.17065
1.18435
1.14773
1.17402
1.14706
1.13757
1.14532
1.12573
1.09066
1.12783
1.12158
1.10497
1.0683
1.13969
1.14325
1.10166
1.09444
1.13605
1.13278
1.10827
1.11028
1.16491
1.1715
1.1088
1.11711
1.1662
1.20957
1.14679
1.17356
1.23908
1.30074
1.30467
1.30238
1.27003
1.26876
1.28923
1.34085
1.30182
1.34689
1.2341
1.32096
1.5451
1.4886
1.58843
1.60678
1.33976
1.2574
1.25743
1.19374
1.2777
1.35277
1.29923
1.30471
1.28905
1.09937
1.11072
1.13807
1.1513
1.13846
1.12988
1.12202
1.10883
1.10955
1.11356
1.11626
1.12147
1.12295
1.12391
1.12425
1.12007
1.11786
1.11576
1.11278
1.11117
1.10995
1.10828
1.10673
1.10557
1.1041
1.10381
1.10369
1.10328
1.10303
1.10111
1.10058
1.10196
1.10332
1.10588
1.10975
1.10834
1.10439
1.10337
1.10705
1.11333
1.11008
1.10776
1.10814
1.11029
1.11674
1.12154
1.12763
1.12967
1.13063
1.13001
1.12829
1.12706
1.12933
1.12718
1.12967
1.12991
1.13167
1.13177
1.12877
1.12254
1.12232
1.12675
1.12832
1.13089
1.12226
1.12729
1.13613
1.13066
1.13956
1.1364
1.12722
1.14445
1.16524
1.1851
1.19695
1.20059
1.20348
1.20731
1.21069
1.20817
1.19998
1.19036
1.18447
1.1837
1.18391
1.17991
1.17248
1.16677
1.16934
1.17725
1.17976
1.17698
1.17367
1.17325
1.17755
1.17368
1.15897
1.1632
1.14778
1.14234
1.15772
1.16435
1.14271
1.13254
1.14292
1.15077
1.12274
1.11305
1.13337
1.13455
1.13379
1.11948
1.12839
1.16615
1.17363
1.17106
1.19337
1.21256
1.20287
1.19043
1.17045
1.14299
1.13052
1.13845
1.15099
1.12849
1.16945
1.17355
1.15294
1.19316
1.16403
1.14028
1.16227
1.12872
1.09695
1.14261
1.1289
1.10384
1.09605
1.16366
1.15537
1.11601
1.12981
1.16604
1.14551
1.12498
1.13983
1.18931
1.17468
1.11512
1.13618
1.2043
1.20821
1.16139
1.21802
1.25333
1.27245
1.28762
1.30359
1.27747
1.29556
1.35177
1.41073
1.33106
1.38219
1.28147
1.32809
1.5329
1.51328
1.61646
1.58011
1.32395
1.2699
1.26838
1.26727
1.26927
1.40723
1.33901
1.31693
1.27885
1.10354
1.11018
1.1317
1.15042
1.14226
1.13746
1.13142
1.1166
1.10947
1.11033
1.1134
1.11815
1.12161
1.12296
1.12447
1.12254
1.1205
1.1191
1.11651
1.11468
1.11327
1.11204
1.11127
1.11079
1.11005
1.10935
1.10932
1.11037
1.11094
1.11008
1.10765
1.10556
1.1064
1.10524
1.10667
1.11224
1.11255
1.11304
1.11099
1.11219
1.11255
1.10926
1.1107
1.11224
1.12019
1.12311
1.12791
1.12976
1.13098
1.13288
1.13305
1.13177
1.13171
1.13299
1.13223
1.12974
1.12537
1.12793
1.12569
1.13021
1.1329
1.12722
1.12295
1.12383
1.1301
1.12942
1.13667
1.13555
1.12925
1.13843
1.13404
1.12957
1.15093
1.1748
1.1917
1.19806
1.20066
1.20387
1.20553
1.20406
1.19856
1.19009
1.18334
1.17993
1.17846
1.1759
1.1723
1.16553
1.16326
1.16795
1.17507