/*--------------------------------*- C++ -*----------------------------------*\
| =========                 |                                                 |
| \\      /  F ield         | OpenFOAM: The Open Source CFD Toolbox           |
|  \\    /   O peration     | Version:  dev                                   |
|   \\  /    A nd           | Web:      http://www.openfoam.org               |
|    \\/     M anipulation  |                                                 |
\*---------------------------------------------------------------------------*/
FoamFile
{
    version     2.0;
    format      ascii;
    class       volScalarField;
    object      rho_0;
    location    "9.153";
}
// * * * * * * * * * * * * * * * * * * * * * * * * * * * * * * * * * * * * * //

dimensions      [1 -3 0 0 0 0 0];

internalField   nonuniform List<scalar> 
12225
(
1.18139
1.18378
1.18399
1.1833
1.18224
1.18043
1.17865
1.17632
1.17414
1.17135
1.16893
1.16563
1.1628
1.15899
1.1566
1.15179
1.15523
1.14719
1.18173
1.18811
1.18917
1.18945
1.18798
1.18689
1.18392
1.18193
1.17861
1.17585
1.1725
1.1694
1.16582
1.16188
1.16037
1.15379
1.15877
1.14959
1.18086
1.18849
1.18933
1.19028
1.18909
1.18833
1.1861
1.18339
1.18114
1.17694
1.17463
1.17011
1.16786
1.16408
1.16197
1.16073
1.15565
1.15164
1.18071
1.1881
1.18933
1.18922
1.18972
1.18729
1.18738
1.18289
1.18246
1.17721
1.17561
1.16975
1.16871
1.16264
1.15988
1.15585
1.15463
1.1552
1.18078
1.18689
1.18948
1.18808
1.18954
1.18655
1.1868
1.18247
1.18176
1.17774
1.17523
1.16988
1.16813
1.16301
1.15861
1.1519
1.15258
1.15338
1.18088
1.18556
1.18851
1.18721
1.18855
1.18565
1.18566
1.18143
1.18125
1.17678
1.17487
1.16866
1.16797
1.16266
1.16162
1.15471
1.15377
1.15085
1.17978
1.18467
1.18698
1.18638
1.18683
1.18445
1.18374
1.18103
1.17973
1.17585
1.17366
1.1687
1.16698
1.1626
1.16121
1.15648
1.15429
1.15041
1.17852
1.18383
1.18638
1.1857
1.18547
1.18312
1.18233
1.17992
1.17835
1.1744
1.1724
1.16768
1.16573
1.16159
1.15953
1.15522
1.15306
1.14971
1.17714
1.18215
1.18494
1.18432
1.18408
1.18185
1.18092
1.17861
1.17687
1.17328
1.17063
1.16675
1.16443
1.16074
1.15793
1.15433
1.15183
1.14899
1.17554
1.18065
1.18307
1.18241
1.18237
1.17986
1.17889
1.17635
1.17441
1.17132
1.16863
1.16527
1.16247
1.15893
1.15605
1.15308
1.15066
1.14797
1.1731
1.17864
1.18084
1.17962
1.17917
1.17716
1.1764
1.17412
1.17161
1.16866
1.16612
1.16316
1.16018
1.1571
1.15401
1.15121
1.14867
1.1465
1.17015
1.1756
1.17736
1.1765
1.17608
1.17412
1.17237
1.17042
1.16837
1.16535
1.16259
1.15962
1.15689
1.15431
1.15126
1.14846
1.1463
1.14461
1.16656
1.17201
1.17294
1.17216
1.17144
1.16972
1.1679
1.1656
1.16344
1.16101
1.15824
1.15559
1.15266
1.15006
1.14739
1.14528
1.14351
1.14177
1.16212
1.16728
1.16785
1.16717
1.16589
1.16415
1.1625
1.16016
1.1578
1.15537
1.15264
1.15018
1.14741
1.14512
1.14292
1.14096
1.13906
1.13726
1.15596
1.16113
1.16143
1.16048
1.15907
1.1574
1.15522
1.15308
1.1508
1.14822
1.14592
1.14343
1.14126
1.13904
1.13696
1.13517
1.13357
1.13233
1.14879
1.15371
1.15363
1.15238
1.15076
1.14895
1.14688
1.14463
1.14234
1.14008
1.13787
1.13572
1.13366
1.13178
1.12999
1.12841
1.12701
1.12576
1.13962
1.14456
1.14435
1.14307
1.14147
1.13948
1.13739
1.13517
1.13302
1.13094
1.1288
1.12681
1.12502
1.12336
1.12197
1.12062
1.11954
1.11853
1.13035
1.13517
1.13485
1.13368
1.13193
1.12985
1.12794
1.12571
1.12384
1.12185
1.11977
1.118
1.11639
1.11512
1.11402
1.11303
1.11224
1.11144
1.1222
1.12704
1.1266
1.12581
1.12406
1.12208
1.12038
1.11818
1.11659
1.11461
1.11274
1.11103
1.1096
1.10866
1.10779
1.10713
1.10652
1.10595
1.11529
1.12025
1.11989
1.11962
1.11793
1.11614
1.11453
1.11242
1.11103
1.10889
1.10737
1.1057
1.10456
1.10391
1.10321
1.10291
1.10232
1.10204
1.11005
1.11525
1.1152
1.11502
1.11326
1.11169
1.11019
1.10827
1.10697
1.10475
1.10358
1.10204
1.10109
1.10053
1.09973
1.09966
1.09906
1.09911
1.10595
1.11151
1.11163
1.11122
1.1099
1.10871
1.1071
1.10525
1.10397
1.10202
1.10094
1.09959
1.09847
1.09798
1.0971
1.0972
1.09678
1.09707
1.10286
1.10863
1.10889
1.10824
1.1073
1.10627
1.10466
1.10301
1.10163
1.1
1.09882
1.09753
1.09656
1.09598
1.09541
1.0955
1.09532
1.09569
1.10035
1.10648
1.10704
1.10642
1.10552
1.10443
1.10303
1.10162
1.10004
1.09856
1.09732
1.09614
1.09543
1.09467
1.09432
1.09404
1.09403
1.09428
1.0987
1.105
1.10559
1.1051
1.10431
1.10312
1.10183
1.10044
1.09896
1.09762
1.09628
1.09518
1.09422
1.09349
1.09308
1.09285
1.09297
1.09316
1.09744
1.10393
1.1046
1.10415
1.10337
1.10228
1.10101
1.09956
1.09816
1.09674
1.09549
1.09441
1.0935
1.09292
1.09252
1.09244
1.09253
1.09286
1.09686
1.10317
1.10384
1.10341
1.10272
1.10167
1.10042
1.09901
1.09758
1.09619
1.09498
1.09397
1.09323
1.09273
1.09252
1.09252
1.09275
1.0932
1.09659
1.10301
1.10355
1.10305
1.10234
1.10125
1.09991
1.0984
1.09695
1.0956
1.09458
1.0938
1.09339
1.0932
1.09336
1.09372
1.09438
1.09522
1.09592
1.10239
1.10305
1.10251
1.10166
1.10044
1.09902
1.09757
1.09632
1.09531
1.09463
1.09419
1.09409
1.09414
1.09448
1.09486
1.09552
1.09609
1.09497
1.09948
1.09954
1.09884
1.09787
1.09666
1.09537
1.09412
1.09298
1.092
1.09119
1.09057
1.09015
1.08989
1.0898
1.08984
1.09003
1.09038
1.06848
1.0875
1.08758
1.0862
1.08507
1.08376
1.08254
1.08133
1.08033
1.07946
1.07848
1.07754
1.07659
1.07588
1.07532
1.07461
1.07355
1.07232
1.07121
1.07041
1.06976
1.06917
1.06853
1.06783
1.06728
1.06746
1.06834
1.06916
1.06958
1.06995
1.07058
1.07116
1.07146
1.07159
1.07157
1.07134
1.07082
1.07006
1.0694
1.06928
1.07023
1.0726
1.07611
1.07978
1.08276
1.08483
1.08611
1.08675
1.08801
1.09011
1.09153
1.09262
1.09445
1.09783
1.10179
1.10472
1.10714
1.10926
1.11199
1.11533
1.11934
1.12405
1.12908
1.13409
1.13832
1.14138
1.14393
1.14664
1.14981
1.15353
1.15754
1.1617
1.16552
1.16736
1.16767
1.17118
1.17516
1.16972
1.16018
1.15911
1.16472
1.16962
1.17257
1.17423
1.1759
1.17761
1.17771
1.17277
1.16079
1.14607
1.13758
1.14025
1.14606
1.14992
1.1519
1.15165
1.15049
1.14993
1.14895
1.14663
1.14273
1.13779
1.13228
1.12668
1.12398
1.12873
1.13733
1.13002
1.11212
1.10504
1.11056
1.13468
1.13207
1.13081
1.12863
1.12541
1.12579
1.12476
1.12341
1.12241
1.12148
1.11981
1.11737
1.11499
1.11276
1.11073
1.10803
1.10543
1.1021
1.10017
1.09851
1.09817
1.09727
1.0968
1.09611
1.0956
1.09492
1.09308
1.09301
1.09088
1.09185
1.0891
1.09062
1.087
1.09161
1.08922
1.08937
1.09483
1.10345
1.10369
1.10246
1.10022
1.09299
1.09591
1.09725
1.10968
1.12345
1.12506
1.11798
1.11202
1.11558
1.11419
1.11717
1.12299
1.13513
1.14316
1.13578
1.11269
1.10284
1.11498
1.14936
1.1603
1.15369
1.16495
1.13532
1.12401
1.10934
1.13514
1.13574
1.11337
1.07023
1.09458
1.09264
1.09013
1.08945
1.08868
1.08768
1.08777
1.08804
1.0885
1.0883
1.08736
1.08594
1.08571
1.08778
1.09095
1.09258
1.0924
1.09033
1.0878
1.08513
1.08284
1.08232
1.08467
1.08916
1.0915
1.09119
1.09035
1.09013
1.08975
1.08968
1.0897
1.08988
1.09001
1.09008
1.09013
1.09007
1.09013
1.09047
1.09097
1.09173
1.09301
1.09493
1.09731
1.10011
1.10306
1.10586
1.10689
1.10635
1.10805
1.11246
1.11377
1.10963
1.11044
1.11757
1.12322
1.12691
1.12715
1.12782
1.13026
1.1334
1.13869
1.14488
1.15289
1.16057
1.16468
1.16614
1.16706
1.1683
1.17099
1.17508
1.17979
1.18409
1.18797
1.18865
1.18556
1.18543
1.18841
1.19094
1.18873
1.18008
1.17383
1.17511
1.17713
1.18195
1.19145
1.19766
1.1909
1.18123
1.17814
1.17897
1.18012
1.18013
1.17844
1.17536
1.17343
1.17141
1.16757
1.15995
1.15161
1.14337
1.13349
1.11797
1.10247
1.09894
1.11601
1.14887
1.13547
1.05523
1.05846
1.08404
1.12547
1.14779
1.1391
1.12638
1.10917
1.11554
1.1269
1.1298
1.12808
1.12807
1.13404
1.13947
1.13889
1.134
1.13284
1.13497
1.14314
1.14955
1.14934
1.14183
1.13606
1.13627
1.14235
1.14605
1.14908
1.15384
1.15762
1.16336
1.16137
1.16414
1.1594
1.16533
1.15191
1.15965
1.16861
1.11704
1.148
1.14054
1.14427
1.16702
1.18551
1.17908
1.18086
1.17946
1.21936
1.24666
1.26055
1.26306
1.24505
1.24682
1.25681
1.26599
1.26681
1.29056
1.31501
1.3028
1.25855
1.24334
1.27734
1.34668
1.3617
1.33756
1.32773
1.23239
1.28111
1.23778
1.23306
1.22727
1.23792
1.06619
1.09052
1.09132
1.09075
1.09047
1.09086
1.09065
1.09238
1.09518
1.09826
1.10269
1.10797
1.11076
1.1109
1.10406
1.09486
1.08965
1.08669
1.08834
1.08995
1.09185
1.09392
1.09566
1.09427
1.0919
1.09052
1.08788
1.08668
1.08644
1.08495
1.08332
1.08377
1.08415
1.08444
1.08467
1.08527
1.08495
1.08436
1.0837
1.08301
1.08292
1.08368
1.08546
1.08802
1.09078
1.09316
1.09556
1.09794
1.10014
1.10218
1.10603
1.11266
1.11793
1.12106
1.12536
1.12655
1.12908
1.13629
1.14025
1.14201
1.14163
1.14132
1.14326
1.14674
1.15181
1.15922
1.16741
1.17421
1.1771
1.17804
1.17937
1.18097
1.18186
1.18393
1.18849
1.18698
1.18223
1.18249
1.18543
1.18855
1.19136
1.18838
1.18255
1.17971
1.18185
1.18457
1.18501
1.18344
1.18193
1.18282
1.18278
1.1816
1.17848
1.1727
1.16512
1.15813
1.15133
1.14155
1.13113
1.12519
1.1253
1.12563
1.11792
1.10803
1.10638
1.10974
1.11815
1.12162
1.06312
1.07767
1.09664
1.08532
1.1322
1.12039
1.10079
1.07043
1.06579
1.08729
1.11037
1.11436
1.10346
1.09344
1.09835
1.12008
1.13263
1.12139
1.10835
1.10694
1.1186
1.13244
1.14201
1.14535
1.14334
1.13891
1.13651
1.14089
1.15192
1.15908
1.16372
1.18303
1.19875
1.19641
1.20463
1.18389
1.20405
1.20393
1.02619
1.10341
1.01604
1.04295
1.08748
1.12753
1.1947
1.21893
1.22531
1.26726
1.22907
1.24861
1.29793
1.32238
1.32067
1.32242
1.33248
1.32597
1.33725
1.36648
1.36729
1.34557
1.35922
1.40242
1.41918
1.40427
1.36344
1.28346
1.16019
1.30087
1.27898
1.23985
1.21739
1.25673
1.0638
1.08824
1.09005
1.09162
1.09303
1.09411
1.09509
1.0989
1.10462
1.10677
1.10085
1.09432
1.09212
1.08815
1.08633
1.08601
1.08821
1.08893
1.08835
1.09412
1.09861
1.09812
1.09324
1.08887
1.08527
1.08224
1.07923
1.07704
1.07594
1.07498
1.07336
1.07333
1.07287
1.07252
1.07242
1.07164
1.07173
1.07079
1.07079
1.07039
1.07004
1.07057
1.07143
1.07286
1.07496
1.0778
1.08132
1.08512
1.08886
1.09172
1.09418
1.09771
1.10178
1.10728
1.11613
1.12256
1.12477
1.13071
1.13457
1.13597
1.13927
1.14473
1.1494
1.15412
1.15755
1.15949
1.16165
1.16294
1.16594
1.17045
1.17289
1.17617
1.17767
1.18064
1.18628
1.18182
1.18249
1.18973
1.18444
1.18228
1.19494
1.19355
1.18321
1.18775
1.19248
1.194
1.19598
1.19458
1.18899
1.18321
1.17874
1.17694
1.17294
1.16708
1.16109
1.15576
1.14666
1.13251
1.12
1.11772
1.12284
1.12572
1.12598
1.12915
1.13457
1.13143
1.11511
1.10833
1.11305
1.10337
1.10269
1.07933
1.13521
1.11466
1.09784
1.07853
1.06461
1.05964
1.08439
1.10769
1.11348
1.11126
1.09873
1.08431
1.09584
1.11551
1.12511
1.11054
1.10895
1.12456
1.12546
1.12245
1.13877
1.13305
1.13254
1.13533
1.12809
1.15007
1.1546
1.15012
1.17078
1.2057
1.19976
1.19798
1.2271
1.22805
0.982988
1.01909
0.938915
0.951038
0.960854
0.985379
1.15228
1.20574
1.24781
1.28992
1.15192
1.15301
1.22388
1.3044
1.3551
1.3506
1.32569
1.31008
1.32151
1.37084
1.39266
1.3965
1.42996
1.47422
1.46237
1.44324
1.41518
1.27606
1.10433
1.28182
1.29737
1.35607
1.29155
1.2972
1.06201
1.08535
1.08842
1.09041
1.09427
1.09685
1.09854
1.10383
1.10876
1.09846
1.08731
1.08503
1.08374
1.0854
1.08714
1.09066
1.09468
1.10086
1.10356
1.10259
1.09869
1.08985
1.0816
1.07715
1.07251
1.07006
1.06683
1.06565
1.06552
1.06503
1.06504
1.0651
1.0668
1.06633
1.06711
1.06677
1.06747
1.06823
1.06789
1.06897
1.0698
1.07043
1.0719
1.07286
1.07372
1.07426
1.07501
1.07668
1.07915
1.08167
1.08572
1.08864
1.08977
1.09275
1.09868
1.10511
1.10844
1.11581
1.12455
1.13227
1.13851
1.14234
1.14453
1.14766
1.15065
1.15237
1.15622
1.16213
1.16885
1.17248
1.17406
1.18314
1.18874
1.18395
1.18656
1.1857
1.18143
1.18476
1.18539
1.18677
1.19439
1.18951
1.18359
1.19162
1.1976
1.19739
1.19724
1.19226
1.18384
1.17498
1.16875
1.16561
1.16157
1.15558
1.14815
1.14116
1.13187
1.12212
1.11912
1.12232
1.12032
1.11465
1.1147
1.11625
1.11553
1.12277
1.13166
1.12414
1.11102
1.08292
1.08503
1.08828
1.128
1.09982
1.08803
1.08223
1.08541
1.0779
1.07719
1.09038
1.09253
1.07976
1.08188
1.09074
1.10048
1.09631
1.11277
1.1057
1.07655
1.08965
1.11809
1.09563
1.11088
1.11654
1.12057
1.13522
1.10511
1.11497
1.15677
1.15868
1.12119
1.16412
1.20339
1.19563
1.23544
1.23159
1.0484
1.04718
1.00557
0.943745
0.902764
0.919227
1.10808
1.1753
1.24411
1.30762
1.14151
1.11585
1.14926
1.20126
1.29936
1.36502
1.33333
1.29132
1.28152
1.35295
1.41754
1.43596
1.47332
1.50721
1.44755
1.40127
1.42201
1.40448
1.16012
1.23874
1.27271
1.33805
1.33774
1.34614
1.06146
1.08243
1.0879
1.0924
1.09519
1.10053
1.10771
1.099
1.08896
1.0894
1.08688
1.09239
1.09394
1.09415
1.10024
1.1039
1.10692
1.10377
1.09951
1.09021
1.07846
1.07223
1.06744
1.06572
1.06501
1.06481
1.06427
1.06427
1.06564
1.06618
1.06777
1.06936
1.07106
1.07217
1.07394
1.07506
1.07581
1.07767
1.07763
1.07707
1.0774
1.07759
1.07803
1.08005
1.08139
1.08255
1.08356
1.08397
1.08393
1.08212
1.08344
1.08321
1.08426
1.08466
1.08602
1.09111
1.09379
1.1009
1.11176
1.123
1.1321
1.13453
1.13578
1.13943
1.13965
1.13803
1.14456
1.15574
1.16826
1.17811
1.18459
1.19102
1.19465
1.19648
1.1984
1.19186
1.19471
1.2003
1.19223
1.19352
1.20324
1.19287
1.18785
1.19837
1.20362
1.20055
1.19596
1.19162
1.18237
1.1715
1.16447
1.16178
1.15743
1.14839
1.14292
1.14052
1.13527
1.12867
1.125
1.11857
1.10817
1.10567
1.11055
1.10854
1.10727
1.11167
1.11951
1.1323
1.11554
1.07733
1.09378
1.08598
1.08558
1.08751
1.09579
1.09397
1.08639
1.09828
1.09502
1.07021
1.06396
1.07962
1.07712
1.05683
1.07464
1.08104
1.09271
1.12228
1.09815
1.06799
1.11436
1.10176
1.08252
1.08325
1.09278
1.11783
1.10138
1.08565
1.10425
1.14902
1.11704
1.11806
1.15162
1.17315
1.25154
1.254
1.13001
1.12826
1.15194
1.04434
0.972627
0.972992
1.09384
1.13611
1.25802
1.32105
1.17748
1.17917
1.18648
1.14577
1.17952
1.31648
1.34515
1.29954
1.25891
1.31524
1.40577
1.4607
1.52386
1.51377
1.3476
1.27702
1.20546
1.39809
1.33234
1.15899
1.22079
1.25844
1.30911
1.35094
1.06322
1.08417
1.09528
1.10066
1.09939
1.10345
1.09933
1.08532
1.08367
1.09331
1.097
1.10124
1.11052
1.10857
1.10619
1.10781
1.10557
1.09476
1.08411
1.07544
1.07008
1.07157
1.07215
1.0737
1.07427
1.0737
1.07345
1.0724
1.07388
1.07397
1.07637
1.07703
1.07681
1.07687
1.07766
1.07868
1.07729
1.07831
1.0784
1.07925
1.08092
1.0833
1.08556
1.08762
1.08949
1.09054
1.09193
1.09269
1.09461
1.09427
1.09558
1.09498
1.09742
1.09994
1.09701
1.09512
1.09578
1.09911
1.1045
1.1134
1.12268
1.12195
1.12009
1.12383
1.12373
1.12086
1.13073
1.15087
1.17317
1.18832
1.19491
1.19775
1.20038
1.19948
1.19471
1.1905
1.19407
1.191
1.18485
1.20013
1.20856
1.18997
1.19051
1.20274
1.20221
1.19697
1.1911
1.18635
1.1757
1.16389
1.15854
1.15705
1.15013
1.1417
1.14034
1.14103
1.13718
1.1327
1.1321
1.13038
1.12865
1.13005
1.12855
1.1212
1.116
1.09878
1.08997
1.10516
1.09718
1.08161
1.0861
1.09066
1.06886
1.07499
1.08887
1.10142
1.08893
1.08691
1.10803
1.09119
1.05143
1.06424
1.08919
1.05707
1.04882
1.0683
1.0606
1.09016
1.10571
1.07859
1.0916
1.11652
1.10914
1.04909
1.05509
1.10678
1.08647
1.06128
1.08241
1.12143
1.08932
1.11218
1.12862
1.11341
1.18388
1.23455
1.1731
1.16353
1.22232
1.12467
1.1016
1.05059
1.11662
1.08376
1.29246
1.35864
1.21902
1.23835
1.2634
1.19537
1.12631
1.23894
1.31976
1.29774
1.23174
1.285
1.37765
1.47014
1.51197
1.33001
1.14914
1.10984
1.11725
1.14003
1.38226
1.21689
1.14926
1.17352
1.28696
1.35572
1.06672
1.0893
1.1029
1.10245
1.09998
1.10036
1.08652
1.08176
1.09643
1.10472
1.10804
1.10741
1.1091
1.11307
1.10849
1.09938
1.09291
1.08226
1.07566
1.07586
1.07598
1.07766
1.07895
1.07614
1.07377
1.07099
1.06885
1.06816
1.07061
1.07156
1.07139
1.0705
1.07017
1.06991
1.07101
1.07302
1.07387
1.07559
1.07753
1.08011
1.08324
1.08655
1.08872
1.09063
1.09271
1.09387
1.09457
1.09457
1.09443
1.09498
1.09559
1.09531
1.09686
1.09864
1.10249
1.10366
1.10583
1.1069
1.10953
1.11473
1.12143
1.12025
1.11969
1.12519
1.12507
1.11878
1.12749
1.15203
1.17363
1.18494
1.1897
1.18766
1.18567
1.18611
1.185
1.18506
1.18819
1.19127
1.19927
1.20873
1.19898
1.18729
1.19876
1.20648
1.1984
1.18948
1.18525
1.18066
1.16894
1.15856
1.15388
1.14937
1.14048
1.13521
1.13906
1.14284
1.14277
1.14401
1.14643
1.14646
1.14551
1.14433
1.1442
1.14284
1.13582
1.11296
1.10349
1.09449
1.07641
1.1021
1.08468
1.08011
1.09583
1.09014
1.08399
1.08284
1.09249
1.0821
1.08252
1.10914
1.09822
1.09901
1.11881
1.08168
1.05471
1.05209
1.05534
1.05436
1.09057
1.07385
1.06455
1.09976
1.13317
1.07157
1.0341
1.10281
1.11713
1.05631
1.05977
1.14331
1.12103
1.09993
1.12091
1.15004
1.17432
1.18564
1.163
1.14168
1.2474
1.17057
1.22171
1.1237
1.12656
1.06561
1.25398
1.36151
1.27316
1.28103
1.29647
1.26601
1.14751
1.18138
1.27326
1.29092
1.19966
1.24921
1.38019
1.48617
1.48203
1.23973
1.16004
1.22166
1.27506
0.98725
1.2564
1.32897
1.2152
1.20826
1.29047
1.35397
1.07071
1.09478
1.10552
1.10349
1.10253
1.09735
1.09081
1.09253
1.10636
1.10905
1.11346
1.11894
1.11185
1.10816
1.10504
1.09688
1.09016
1.08143
1.07826
1.08099
1.08299
1.08185
1.0793
1.0765
1.07286
1.06896
1.06824
1.07056
1.07403
1.07899
1.08435
1.0858
1.0858
1.08585
1.08551
1.08573
1.08655
1.08711
1.08883
1.09127
1.0937
1.09532
1.09701
1.09815
1.10065
1.10199
1.10278
1.10478
1.10309
1.10329
1.10102
1.09822
1.09981
1.09687
1.09886
1.09995
1.10161
1.10179
1.1063
1.11163
1.1173
1.12239
1.1282
1.13364
1.13384
1.12503
1.12566
1.14701
1.16996
1.17941
1.17708
1.17294
1.17295
1.18219
1.18873
1.19208
1.19413
1.1991
1.20459
1.19915
1.18576
1.18826
1.20343
1.20346
1.19041
1.18275
1.18178
1.1778
1.1648
1.15665
1.15566
1.15007
1.13995
1.14123
1.152
1.1578
1.15841
1.15626
1.15026
1.14182
1.13276
1.12897
1.13036
1.1369
1.13597
1.1273
1.13338
1.1207
1.11464
1.09341
1.10294
1.07481
1.07014
1.09335
1.10757
1.09829
1.10539
1.11776
1.09397
1.09844
1.10229
1.08356
1.09888
1.08933
1.0971
1.05956
1.08815
1.05259
1.09012
1.0585
1.03341
1.08919
1.09112
1.0771
1.07669
1.07863
1.10083
1.0911
1.03102
1.13677
1.08305
1.1216
1.02881
1.13783
1.23648
1.21254
1.16749
1.12414
1.22587
1.1643
1.27304
1.18133
1.11418
1.10524
1.16242
1.27727
1.29644
1.32324
1.31894
1.30265
1.18119
1.14436
1.20913
1.24348
1.17441
1.19111
1.35193
1.48512
1.47999
1.25832
1.28516
1.43519
1.41914
1.09127
1.13457
1.3417
1.3159
1.30876
1.33857
1.36491
1.07373
1.09752
1.1054
1.10107
1.10351
1.09264
1.09387
1.10271
1.1105
1.11812
1.11877
1.11858
1.11145
1.10825
1.10134
1.08803
1.08107
1.07975
1.08348
1.08741
1.08742
1.08638
1.08358
1.08121
1.07862
1.07808
1.07679
1.07722
1.08074
1.08253
1.08491
1.08606
1.08524
1.08499
1.08618
1.0878
1.08951
1.08948
1.08909
1.09022
1.0925
1.09373
1.09472
1.09543
1.09811
1.1002
1.1017
1.10467
1.10581
1.10924
1.10963
1.10665
1.10683
1.1069
1.10552
1.10467
1.10804
1.10868
1.10722
1.10678
1.10769
1.11337
1.11991
1.12293
1.13177
1.13146
1.12404
1.13564
1.15741
1.16867
1.17009
1.17325
1.17991
1.18958
1.1934
1.195
1.19746
1.19792
1.19554
1.18857
1.18629
1.19565
1.20298
1.19536
1.18145
1.17664
1.17568
1.17005
1.16101
1.15938
1.15861
1.15026
1.14188
1.14624
1.15403
1.15586
1.15647
1.15343
1.14632
1.14049
1.13498
1.13369
1.1278
1.12756
1.12425
1.1119
1.11096
1.10477
1.10569
1.10322
1.08294
1.08288
1.07996
1.09184
1.09768
1.12031
1.11127
1.13191
1.12742
1.10624
1.12815
1.10975
1.10155
1.0827
1.10432
1.06222
1.08953
1.06533
1.09358
1.057
1.05283
1.11151
1.05781
1.06093
1.11152
1.06221
1.04499
1.09938
1.03233
1.10066
0.97385
1.15708
0.995163
1.01332
1.19015
1.23545
1.18979
1.13383
1.20155
1.10727
1.24745
1.19599
1.10455
1.12863
1.10884
1.14238
1.25593
1.33789
1.32392
1.32219
1.20852
1.14233
1.15719
1.19541
1.13736
1.15334
1.32547
1.46928
1.46551
1.30209
1.35493
1.42397
1.40068
1.15845
1.10681
1.32342
1.30896
1.30572
1.30986
1.33417
1.07662
1.09872
1.10838
1.10231
1.10799
1.09754
1.08864
1.10449
1.11768
1.12292
1.12351
1.12146
1.11533
1.10837
1.10008
1.09248
1.0886
1.08774
1.09091
1.09137
1.08988
1.08727
1.08433
1.08583
1.08398
1.08376
1.08373
1.08282
1.08486
1.08542
1.08644
1.08726
1.0882
1.09063
1.09441
1.09676
1.09733
1.0954
1.09183
1.08917
1.08972
1.09283
1.0981
1.10213
1.1036
1.10494
1.10634
1.10547
1.10659
1.10634
1.10708
1.10897
1.10725
1.10839
1.10681
1.10487
1.10627
1.11246
1.11542
1.11673
1.11584
1.11502
1.11374
1.10836
1.11859
1.13262
1.12469
1.12196
1.14156
1.16093
1.1705
1.17681
1.18395
1.18919
1.19115
1.19078
1.19389
1.19137
1.18643
1.18601
1.19351
1.20411
1.20411
1.19098
1.17718
1.17211
1.16992
1.16312
1.15585
1.15727
1.15993
1.15321
1.14586
1.14841
1.15107
1.15142
1.14968
1.14104
1.13081
1.1244
1.12018
1.11738
1.1038
1.1015
1.10614
1.10595
1.11443
1.12259
1.11727
1.11471
1.08324
1.06828
1.09116
1.11898
1.09863
1.12253
1.12399
1.12331
1.12974
1.11928
1.13283
1.13219
1.12699
1.09579
1.11841
1.07469
1.07274
1.07701
1.09478
1.05221
1.06375
1.12182
1.05163
1.05513
1.11556
1.06668
1.03406
1.09502
1.05954
1.08943
0.944629
1.15973
1.07078
0.993155
1.10045
1.19015
1.16938
1.138
1.19934
1.05833
1.18626
1.17309
1.10933
1.12864
1.09641
1.04097
1.19188
1.31103
1.31937
1.31961
1.20824
1.16135
1.14044
1.18726
1.11254
1.10393
1.30433
1.47124
1.4456
1.3417
1.43575
1.47749
1.39004
1.14111
1.14778
1.32965
1.26988
1.24567
1.25937
1.29221
1.08015
1.09912
1.11291
1.10922
1.10782
1.10476
1.09747
1.10271
1.11588
1.12283
1.12444
1.1179
1.11128
1.10729
1.10034
1.0913
1.09008
1.08733
1.09291
1.09785
1.09875
1.09772
1.09192
1.09073
1.08902
1.08763
1.08913
1.09072
1.09289
1.09405
1.09471
1.09622
1.09992
1.10306
1.10679
1.10928
1.11046
1.11045
1.10948
1.1084
1.10666
1.10691
1.10777
1.1089
1.10923
1.10834
1.11049
1.11108
1.11608
1.11581
1.11619
1.11488
1.11441
1.11502
1.11511
1.11159
1.10624
1.10621
1.10932
1.11352
1.11896
1.12235
1.12648
1.12159
1.11708
1.12814
1.12818
1.12148
1.13378
1.15253
1.16237
1.17149
1.18376
1.19181
1.191
1.18898
1.18924
1.18823
1.18702
1.19085
1.19788
1.20195
1.19718
1.18584
1.17591
1.17092
1.16478
1.15705
1.15497
1.15963
1.16152
1.15753
1.15731
1.16043
1.15849
1.15461
1.14896
1.13668
1.12729
1.12255
1.12
1.12154
1.10812
1.1047
1.10343
1.1024
1.11373
1.11196
1.12261
1.10579
1.09794
1.08721
1.07888
1.10282
1.12715
1.13934
1.15721
1.14656
1.14303
1.1346
1.13618
1.13833
1.13623
1.10276
1.14206
1.10507
1.06892
1.08941
1.09269
1.05106
1.0491
1.10853
1.06301
1.04977
1.09932
1.0857
1.05501
1.08532
1.06745
1.11298
0.967377
1.11759
1.11916
1.05121
1.0592
1.13075
1.11738
1.12666
1.19486
1.03121
1.12905
1.12894
1.11097
1.13292
1.08677
1.01685
1.16248
1.28071
1.32474
1.29607
1.20336
1.1713
1.13268
1.17195
1.12795
1.05406
1.24878
1.46634
1.42075
1.3769
1.47578
1.46873
1.35675
1.13902
1.18477
1.35604
1.29214
1.23184
1.24208
1.26664
1.08539
1.10421
1.12089
1.12388
1.11362
1.10446
1.09907
1.10515
1.11713
1.12289
1.12658
1.12097
1.11463
1.10652
1.1033
1.09537
1.09471
1.09196
1.09402
1.09909
1.09798
1.09599
1.0926
1.09112
1.08953
1.08754
1.0883
1.09287
1.09754
1.09757
1.09672
1.09656
1.09735
1.09737
1.09762
1.09711
1.09826
1.10126
1.1043
1.10771
1.10961
1.11075
1.1103
1.11039
1.1107
1.111
1.11035
1.11079
1.11259
1.11495
1.11754
1.11743
1.11794
1.11564
1.11675
1.11757
1.11877
1.11667
1.11486
1.1123
1.11319
1.11445
1.12167
1.12976
1.11991
1.12162
1.13047
1.12195
1.12283
1.14179
1.1588
1.17101
1.1824
1.19063
1.18998
1.1896
1.1852
1.188
1.19289
1.19714
1.19928
1.19767
1.18986
1.18
1.17215
1.16652
1.16018
1.15417
1.15251
1.15764
1.16184
1.16195
1.16363
1.16438
1.16067
1.1542
1.14369
1.12911
1.12228
1.11773
1.11164
1.12163
1.12359
1.12758
1.11801
1.09796
1.09506
1.0923
1.10272
1.11044
1.07631
1.07237
1.09798
1.10996
1.13629
1.12943
1.14919
1.14977
1.14901
1.13664
1.14767
1.14104
1.13672
1.1097
1.14253
1.13512
1.09005
1.1099
1.10482
1.07282
1.05299
1.09521
1.0709
1.06048
1.08009
1.08654
1.07123
1.0892
1.05194
1.1236
1.02433
1.0697
1.09764
1.07978
1.05468
1.09451
1.07328
1.11235
1.18409
1.03014
1.09735
1.09458
1.12038
1.12501
1.06404
1.03995
1.18274
1.29147
1.3204
1.26995
1.19795
1.16719
1.14415
1.17518
1.14641
1.04947
1.21015
1.43673
1.38485
1.40322
1.49539
1.42642
1.30031
1.13563
1.23077
1.41303
1.33578
1.23988
1.23836
1.25459
1.09076
1.11075
1.13084
1.14185
1.12717
1.11404
1.10014
1.09868
1.11201
1.11908
1.12898
1.1251
1.12094
1.11337
1.10808
1.10236
1.10015
1.10004
1.10115
1.10543
1.10639
1.10645
1.1048
1.10412
1.10384
1.10109
1.09667
1.09335
1.09459
1.09588
1.09511
1.09495
1.09687
1.09806
1.09746
1.09663
1.09675
1.09749
1.09953
1.10259
1.10656
1.11125
1.11404
1.11657
1.11692
1.11684
1.11633
1.1184
1.11767
1.1209
1.12208
1.12289
1.12514
1.12488
1.12263
1.11832
1.11556
1.11883
1.1207
1.1172
1.11856
1.12162
1.11502
1.1209
1.12716
1.12169
1.13112
1.12914
1.12148
1.13334
1.15169
1.16698
1.18102
1.19071
1.19053
1.19044
1.1898
1.19035
1.19692
1.20111
1.19861
1.19323
1.1867
1.18039
1.17369
1.1651
1.15645
1.15165
1.15346
1.15568
1.15493
1.1558
1.15802
1.15904
1.15352
1.14491
1.13387
1.12439
1.12432
1.12411
1.1074
1.10662
1.1075
1.11687
1.10848
1.09928
1.09917
1.0985
1.13081
1.12106
1.10144
1.08368
1.09242
1.12882
1.14851
1.14673
1.1508
1.14495
1.12565
1.11167
1.13504
1.14055
1.133
1.13246
1.15684
1.14823
1.12226
1.13283
1.11806
1.10004
1.07814
1.09569
1.0802
1.08538
1.06973
1.07901
1.08202
1.09489
1.03183
1.10476
1.07522
1.05185
1.05948
1.07592
1.06795
1.07465
1.05068
1.1006
1.15882
1.04505
1.07978
1.08029
1.14237
1.10861
1.05865
1.08555
1.22964
1.30764
1.30197
1.2443
1.18593
1.17959
1.1704
1.17715
1.14771
1.0649
1.19377
1.40057
1.37006
1.43183
1.50565
1.35429
1.24967
1.16063
1.25043
1.41368
1.30719
1.22126
1.23108
1.24979
1.09557
1.11452
1.13723
1.15091
1.13842
1.12497
1.11154
1.10159
1.10969
1.11193
1.12264
1.12672
1.1225
1.11849
1.11106
1.1055
1.10096
1.09914
1.0988
1.10129
1.10347
1.10538
1.10493
1.10505
1.10598
1.10642
1.10691
1.10666
1.10676
1.10582
1.10346
1.10087
1.09891
1.09962
1.10021
1.10101
1.10075
1.09964
1.10017
1.10118
1.10311
1.108
1.11417
1.11832
1.11916
1.11798
1.11828
1.11945
1.12115
1.12258
1.1231
1.12516
1.12358
1.1256
1.12625
1.12683
1.12269
1.11926
1.12319
1.11921
1.11142
1.12075
1.12541
1.11456
1.12224
1.12251
1.12498
1.13389
1.12413
1.1248
1.14205
1.16109
1.17799
1.18716
1.19345
1.19022
1.19329
1.19601
1.19858
1.19812
1.19293
1.18637
1.18128
1.17862
1.17451
1.16669
1.15708
1.15178
1.15346
1.15471
1.15278
1.15194
1.15539
1.15659
1.1525
1.14632
1.13985
1.12985
1.1219
1.12676
1.11199
1.09926
1.08802
1.10924
1.1205
1.11905
1.10239
1.09562
1.10977
1.10229
1.0899
1.08721
1.09511
1.12173
1.14276
1.14391
1.14825
1.15292
1.14046
1.13503
1.13592
1.12979
1.10897
1.11848
1.15882
1.13043
1.14429
1.15251
1.12421
1.12318
1.09973
1.10563
1.09672
1.0984
1.06566
1.08463
1.09017
1.08901
1.02666
1.09398
1.0947
1.05708
1.04484
1.0782
1.08264
1.06673
1.05161
1.10477
1.13652
1.0563
1.07352
1.09198
1.15899
1.09648
1.07975
1.14182
1.26427
1.29821
1.27219
1.21945
1.1908
1.19049
1.19493
1.18385
1.18689
1.09687
1.20634
1.41922
1.38488
1.46825
1.5178
1.31739
1.22055
1.18665
1.17423
1.30813
1.25841
1.2081
1.232
1.24834
1.10007
1.11592
1.1429
1.15224
1.13967
1.13141
1.12222
1.11065
1.11532
1.11642
1.11992
1.1267
1.12579
1.1257
1.12142
1.11551
1.11164
1.10837
1.1056
1.1045
1.10393
1.10395
1.10296
1.10241
1.10197
1.10127
1.10167
1.1016
1.10156
1.10319
1.10559
1.10717
1.10804
1.10696
1.10474
1.10324
1.10539
1.11163
1.11612
1.11576
1.11039
1.10798
1.11144
1.11564
1.11798
1.12026
1.12372
1.1243
1.12499
1.12669
1.12617
1.12858
1.12855
1.12738
1.12799
1.12554
1.12574
1.1219
1.12137
1.12521
1.12337
1.11779
1.12598
1.12131
1.11611
1.12669
1.12395
1.13311
1.13352
1.12071
1.13314
1.15143
1.17074
1.18537
1.19083
1.19327
1.1949
1.19845
1.20148
1.1976
1.18825
1.17992
1.17495
1.17389
1.1722
1.16546
1.15576
1.15305
1.15647
1.15967
1.15562
1.15182
1.15449
1.15832
1.15713
1.1462
1.13872
1.13699
1.12284
1.13037
1.13381
1.13152
1.10811
1.10904
1.11404
1.11876
1.09958
1.0914
1.11355
1.12288
1.10408
1.07779
1.09911
1.13846
1.15173
1.1389
1.14551
1.15134
1.14121
1.14492
1.14313
1.12891
1.11358
1.11949
1.15166
1.11113
1.15049
1.16046
1.12382
1.14544
1.11727
1.11209
1.1153
1.09725
1.06488
1.09887
1.09144
1.07593
1.03682
1.10888
1.10622
1.06466
1.057
1.09733
1.09304
1.0692
1.07023
1.12402
1.12912
1.06607
1.07872
1.11926
1.16552
1.10004
1.11788
1.18878
1.26213
1.26286
1.24996
1.21318
1.2045
1.21359
1.24876
1.22234
1.25387
1.14657
1.25195
1.46479
1.40307
1.49826
1.53205
1.2908
1.20271
1.1992
1.13019
1.2417
1.27959
1.23436
1.25139
1.24924
1.10421
1.11527
1.14271
1.15607
1.1432
1.13472
1.12696
1.11366
1.11415
1.1182
1.12095
1.12619
1.12783
1.12887
1.12935
1.12526
1.12314
1.12107
1.1181
1.11652
1.11526
1.11354
1.11199
1.1108
1.10932
1.10905
1.10887
1.10839
1.10798
1.10597
1.10559
1.10706
1.10842
1.11107
1.1145
1.11224
1.10823
1.10779
1.11208
1.11766
1.11341
1.11123
1.11182
1.11431
1.12041
1.12493
1.1305
1.13186
1.13233
1.13122
1.12911
1.12813
1.13
1.12736
1.12982
1.12968
1.13137
1.13031
1.1266
1.12016
1.12016
1.12434
1.12604
1.12712
1.11765
1.12418
1.13121
1.12593
1.13486
1.1289
1.12162
1.14127
1.1612
1.17932
1.18906
1.19148
1.19374
1.19698
1.19946
1.19577
1.18669
1.17669
1.17074
1.16974
1.16923
1.16428
1.1562
1.15059
1.15335
1.16057
1.1617
1.1579
1.15427
1.15405
1.15769
1.15186
1.13746
1.14102
1.12414
1.12163
1.13682
1.14113
1.11746
1.11002
1.12102
1.12743
1.09964
1.08949
1.1114
1.11156
1.11027
1.09806
1.10742
1.14391
1.15267
1.14809
1.16709
1.18302
1.1726
1.1631
1.14519
1.11872
1.10733
1.11743
1.13253
1.10748
1.14952
1.15207
1.12857
1.1651
1.13295
1.11305
1.13194
1.09791
1.06899
1.11303
1.09646
1.07219
1.06063
1.13066
1.1176
1.07794
1.08929
1.12497
1.10376
1.08338
1.09882
1.14594
1.12957
1.07383
1.09466
1.15394
1.16477
1.11347
1.1626
1.20948
1.23437
1.2403
1.24759
1.21818
1.22713
1.26524
1.31697
1.26018
1.30263
1.1926
1.26639
1.4626
1.4277
1.52478
1.52298
1.27632
1.21125
1.21223
1.18748
1.22908
1.33116
1.27554
1.27664
1.24778
1.1089
1.11524
1.13669
1.15575
1.1478
1.14307
1.13721
1.12243
1.11503
1.11572
1.11877
1.12354
1.12714
1.12858
1.13018
1.12838
1.1264
1.12505
1.12249
1.1207
1.1193
1.1181
1.11736
1.11686
1.1161
1.11538
1.1154
1.11644
1.11682
1.11565
1.11306
1.11114
1.11202
1.11084
1.11289
1.11815
1.11769
1.11789
1.11575
1.11705
1.11641
1.11288
1.11457
1.11663
1.12468
1.12717
1.13167
1.13286
1.13375
1.13506
1.13488
1.13303
1.13326
1.13394
1.13268
1.12915
1.12496
1.12758
1.12453
1.1294
1.1308
1.12412
1.1199
1.12136
1.12672
1.12581
1.13283
1.12973
1.12439
1.13288
1.1262
1.1245
1.14791
1.17018
1.18465
1.18916
1.19082
1.19343
1.1943
1.19183
1.18534
1.17622
1.16921
1.16561
1.16371
1.16046
1.15601
1.14878
1.14672
1.15169
1.15821