/*--------------------------------*- C++ -*----------------------------------*\
| =========                 |                                                 |
| \\      /  F ield         | OpenFOAM: The Open Source CFD Toolbox           |
|  \\    /   O peration     | Version:  dev                                   |
|   \\  /    A nd           | Web:      http://www.openfoam.org               |
|    \\/     M anipulation  |                                                 |
\*---------------------------------------------------------------------------*/
FoamFile
{
    version     2.0;
    format      ascii;
    class       volScalarField;
    object      T;
    location    "9.153";
}
// * * * * * * * * * * * * * * * * * * * * * * * * * * * * * * * * * * * * * //

dimensions      [0 0 0 1 0 0 0];

internalField   nonuniform List<scalar> 
12225
(
307.037
306.742
306.461
306.258
306.027
305.87
305.592
305.394
305.041
304.817
304.377
304.176
303.712
303.534
302.796
302.7
300.5
299.313
307.237
305.942
305.37
304.92
304.779
304.458
304.495
304.214
304.165
303.915
303.724
303.44
303.183
302.96
302.035
302.142
299.534
299.025
307.409
305.776
305.257
304.631
304.423
304.013
303.866
303.765
303.452
303.572
303.121
303.204
302.613
302.378
301.597
300.542
300.236
298.987
307.33
305.762
305.151
304.79
304.161
304.167
303.437
303.788
303.007
303.416
302.78
303.22
302.334
302.718
302.149
301.956
300.513
298.522
307.18
305.905
304.953
304.922
304.047
304.203
303.424
303.745
303.041
303.141
302.745
303.071
302.384
302.55
302.491
302.914
301.22
299.395
306.878
306.016
304.965
304.917
304.063
304.205
303.487
303.799
302.964
303.185
302.651
303.21
302.283
302.519
301.641
302.181
301.212
300.67
306.854
305.92
305.039
304.811
304.18
304.195
303.671
303.599
303.061
303.137
302.702
302.958
302.325
302.361
301.602
301.748
301.163
301.098
306.804
305.766
304.825
304.609
304.165
304.174
303.687
303.533
303.087
303.189
302.73
302.942
302.404
302.412
301.863
301.944
301.434
301.324
306.763
305.795
304.793
304.561
304.132
304.111
303.667
303.485
303.114
303.129
302.863
302.881
302.465
302.392
302.084
302.023
301.675
301.483
306.653
305.654
304.739
304.523
304.04
304.102
303.679
303.567
303.275
303.17
302.949
302.856
302.601
302.527
302.293
302.109
301.811
301.632
306.599
305.471
304.61
304.541
304.175
304.12
303.643
303.481
303.369
303.248
303.014
302.849
302.681
302.541
302.415
302.236
302.035
301.79
306.443
305.332
304.585
304.436
304.068
304.003
303.792
303.568
303.359
303.293
303.147
303.028
302.841
302.624
302.548
302.44
302.208
301.901
306.185
305.057
304.527
304.363
304.078
303.964
303.796
303.686
303.509
303.349
303.242
303.094
303.014
302.859
302.757
302.537
302.271
302.041
305.812
304.719
304.293
304.105
303.976
303.886
303.694
303.63
303.525
303.397
303.344
303.201
303.149
302.986
302.829
302.645
302.485
302.353
305.435
304.323
303.973
303.863
303.782
303.692
303.666
303.582
303.491
303.455
303.345
303.274
303.138
303.033
302.922
302.775
302.621
302.423
304.853
303.764
303.516
303.494
303.487
303.454
303.431
303.409
303.367
303.299
303.214
303.132
303.04
302.93
302.83
302.715
302.593
302.481
304.256
303.126
302.919
302.917
302.92
302.953
302.965
302.973
302.942
302.883
302.843
302.784
302.701
302.615
302.494
302.406
302.292
302.203
303.495
302.317
302.134
302.11
302.16
302.239
302.226
302.269
302.205
302.171
302.172
302.121
302.056
301.938
301.819
301.715
301.604
301.542
302.738
301.482
301.332
301.211
301.263
301.326
301.27
301.327
301.215
301.211
301.202
301.18
301.121
300.973
300.849
300.715
300.619
300.558
302.152
300.833
300.67
300.408
300.443
300.457
300.381
300.424
300.272
300.336
300.262
300.263
300.167
299.983
299.859
299.676
299.612
299.518
301.642
300.23
299.979
299.682
299.731
299.685
299.58
299.576
299.408
299.509
299.36
299.349
299.222
299.041
298.976
298.768
298.75
298.605
301.282
299.733
299.423
299.179
299.11
298.953
298.87
298.851
298.68
298.717
298.553
298.502
298.44
298.26
298.241
298.009
297.971
297.791
300.995
299.369
299.012
298.828
298.647
298.436
298.354
298.278
298.135
298.089
297.957
297.901
297.813
297.671
297.582
297.368
297.284
297.099
300.842
299.11
298.661
298.461
298.261
298.061
297.918
297.774
297.685
297.602
297.488
297.41
297.257
297.172
297.035
296.932
296.816
296.674
300.702
298.901
298.435
298.193
297.959
297.78
297.606
297.451
297.336
297.213
297.13
297.034
296.953
296.868
296.753
296.651
296.507
296.391
300.632
298.767
298.27
298.011
297.771
297.564
297.377
297.236
297.1
296.997
296.893
296.794
296.703
296.583
296.474
296.333
296.203
296.056
300.515
298.683
298.182
297.913
297.649
297.426
297.234
297.08
296.951
296.842
296.727
296.611
296.476
296.337
296.18
296.021
295.856
295.681
300.427
298.547
298.073
297.825
297.562
297.349
297.177
297.053
296.928
296.806
296.641
296.463
296.241
296.018
295.76
295.507
295.226
294.946
300.512
298.621
298.11
297.867
297.639
297.46
297.314
297.172
296.993
296.78
296.521
296.247
295.942
295.654
295.348
295.089
294.81
294.604
300.693
299.351
299.027
298.832
298.64
298.465
298.286
298.095
297.889
297.673
297.451
297.23
297.013
296.812
296.623
296.457
296.304
296.147
284.124
279.122
279.085
279.431
279.717
280.051
280.358
280.666
280.921
281.144
281.396
281.642
281.895
282.09
282.251
282.454
282.755
283.114
283.453
283.721
283.959
284.19
284.452
284.743
285.014
285.111
285.042
285.003
285.093
285.223
285.31
285.437
285.668
285.973
286.352
286.818
287.397
288.077
288.767
289.351
289.687
289.682
289.409
289.134
289.075
289.297
289.763
290.443
291.01
291.378
291.944
292.649
293.212
293.387
293.399
293.696
294.16
294.736
295.175
295.456
295.569
295.489
295.313
295.114
295.082
295.332
295.703
296.002
296.143
296.088
295.89
295.582
295.263
295.348
295.813
295.44
294.685
296.092
298.732
299.33
297.991
296.595
295.592
294.865
294.074
293.163
292.488
292.902
295.037
298.068
299.735
298.382
295.942
293.898
292.318
291.306
290.518
289.599
288.796
288.353
288.332
288.605
289.074
289.601
289.362
287.208
284.316
285.609
289.668
290.792
288.513
281.733
281.789
281.543
281.566
281.905
281.3
281.012
280.818
280.548
280.256
280.135
280.202
280.254
280.258
280.184
280.258
280.279
280.475
280.316
280.091
279.522
279.085
278.549
278.076
277.586
277.151
277.055
276.534
276.596
275.881
276.172
275.396
276.058
274.684
275.076
275.186
273.889
271.834
271.769
272.075
272.507
274.359
273.675
273.367
270.275
266.553
265.479
266.531
267.541
266.065
265.521
263.911
261.565
257.652
254.551
254.969
259.421
261.322
258.178
250.359
248.287
250.29
248.82
256.586
260.012
264.673
260.335
262.422
269.639
283.855
277.491
277.957
278.59
278.76
278.95
279.2
279.173
279.097
278.972
279.015
279.25
279.621
279.699
279.197
278.406
278.004
278.071
278.632
279.329
280.081
280.753
280.987
280.491
279.455
278.983
279.215
279.608
279.862
280.183
280.448
280.72
280.977
281.278
281.628
282.014
282.463
282.915
283.333
283.746
284.128
284.411
284.569
284.646
284.652
284.659
284.73
285.276
286.285
286.789
286.59
287.13
289.177
290.112
289.377
288.966
289.052
290.049
291.025
291.564
291.932
291.754
291.338
290.441
289.543
289.467
290.05
290.776
291.415
291.661
291.486
291.069
290.669
290.257
290.489
291.663
292.152
291.74
291.221
291.63
293.643
295.272
294.897
294.155
292.714
289.985
287.689
288.413
290.126
290.293
289.343
288.192
287.239
286.653
286.38
285.814
285.269
285.198
286.066
287.122
288.189
289.762
292.86
295.944
295.776
290.222
281.311
284.826
305.635
303.103
295.248
284.097
277.928
279.543
282.205
286.209
284.183
280.695
279.298
279.162
278.718
276.821
274.95
274.427
275.009
274.799
273.812
271.327
269.129
268.403
269.442
270.22
269.653
267.662
266.177
264.905
263.254
261.876
260.042
259.945
258.819
259.519
257.722
260.479
258.76
256.092
268.49
261.61
263.626
263.281
258.273
253.92
254.544
253.972
254.593
246.438
240.725
237.474
236.039
238.714
238.013
235.488
232.826
231.786
226.707
221.275
222.063
229.085
231.581
225.118
213.517
211.558
216.027
219.011
236.973
228.028
237.435
239.844
242.673
242.002
285.318
278.891
278.655
278.793
278.859
278.753
278.8
278.357
277.639
276.865
275.762
274.447
273.744
273.688
275.366
277.701
279.071
279.878
279.509
279.145
278.724
278.267
277.907
278.361
279.079
279.571
280.401
280.882
281.147
281.762
282.426
282.579
282.785
283.048
283.355
283.605
284.129
284.759
285.439
286.17
286.778
287.201
287.395
287.421
287.43
287.573
287.743
287.945
288.224
288.604
288.577
287.837
287.428
287.623
287.527
288.248
288.766
288.036
288.054
288.656
289.823
291.038
291.708
291.97
291.826
291.067
290.025
289.221
289.307
289.887
290.36
290.688
291.136
291.289
290.621
291.246
292.775
293.101
292.629
291.949
291.11
291.566
292.781
293.323
292.522
291.393
290.687
290.407
290.093
289.115
288.27
287.664
287.483
287.928
288.804
289.524
290.205
291.671
293.319
293.776
292.68
291.641
292.717
294.25
293.645
291.997
289.032
287.935
302.539
297.143
291.931
294.744
281.745
284.301
288.818
296.486
297.512
291.344
284.565
282.706
284.837
287.027
285.548
279.672
275.715
277.567
280.276
280.339
277.031
273.007
269.996
268.485
268.204
268.648
268.743
267.318
264.351
262.091
260.716
256.232
252.234
252.111
249.891
254.044
249.844
247.652
291.799
272.89
296.473
290.991
279.764
271.231
253.853
247.424
245.909
237.058
244.601
241.683
231.938
226.185
225.298
224.392
222.024
222.314
219.806
213.947
212.466
214.949
212.304
205.473
203.206
205.807
212.654
227.783
252.793
225.034
230.432
238.697
244.184
238.034
286.527
280.023
279.523
279.117
278.747
278.461
278.208
277.248
275.801
275.242
276.699
278.357
278.924
279.943
280.427
280.535
279.996
279.842
280.029
278.597
277.512
277.713
279.04
280.258
281.3
282.224
283.165
283.908
284.393
284.876
285.546
285.823
286.251
286.676
287.074
287.682
288.096
288.817
289.321
289.969
290.642
291.118
291.542
291.856
292.032
292.049
291.919
291.746
291.612
291.742
292.02
292.076
292.032
291.656
290.387
289.684
290.175
289.744
289.761
290.464
290.759
290.481
290.374
290.24
290.387
290.919
291.361
291.991
292.186
291.887
292.041
291.912
292.169
292.13
291.097
292.483
292.918
291.275
292.513
293.497
290.428
290.18
292.594
291.464
289.871
288.995
287.951
287.606
288.223
288.845
289.109
288.679
288.74
289.235
289.741
290.075
291.377
294.006
296.189
295.644
293.267
291.59
290.565
288.767
286.561
286.675
290.083
290.971
288.792
291.048
290.865
296.165
281.081
285.926
289.677
294.133
297.342
298.627
291.656
284.881
282.702
282.659
285.224
288.7
285.482
279.94
276.548
279.434
279.748
275.36
274.212
274.633
270.084
270.615
270.291
268.945
270.589
265.199
263.202
263.993
259.847
251.573
251.834
252.301
246.172
242.815
303.261
295.379
319.878
318.57
317.198
313.855
266.828
252.539
243.226
232.739
260.242
262.833
248.451
232.443
221.772
220.501
223.837
226.2
224.072
214.771
209.668
208.03
202.588
196.266
198.247
201.471
205.897
228.28
264.578
229.258
227.371
218.705
230.552
231.055
287.755
281.491
280.66
280.141
279.146
278.476
278.034
276.716
275.468
278.006
280.853
281.456
281.797
281.373
280.936
280.046
279.03
277.483
276.842
277.128
278.178
280.528
282.733
283.992
285.333
286.117
287.129
287.6
287.826
288.175
288.409
288.648
288.485
288.94
289.083
289.559
289.786
290.031
290.614
290.843
291.182
291.615
291.858
292.27
292.753
293.367
293.97
294.374
294.596
294.854
294.696
294.861
295.559
295.846
295.366
294.678
294.871
294.058
292.82
291.822
291.217
291.273
291.787
292.063
292.335
292.956
293.014
292.456
291.558
291.335
291.812
290.388
289.346
290.98
290.944
291.421
292.868
292.412
292.382
292.252
290.283
291.082
292.552
290.501
288.547
288.043
287.482
287.998
289.328
290.724
291.467
291.385
291.481
292.035
292.939
293.728
295.121
296.616
296.285
294.425
294.065
294.59
293.58
292.344
291.678
288.861
285.849
287.055
289.807
297.014
295.476
293.743
283.454
290.029
292.371
293.288
291.874
293.218
293.311
289.62
288.5
291.284
290.354
287.692
284.444
285.097
280.336
280.787
288.077
285.115
276.686
281.569
277.741
275.684
274.324
269.721
276.489
274.907
264.649
262.358
271.53
262.631
253.074
254.244
245.665
243.714
285.239
287.693
297.086
317.552
334.437
333.155
278.853
261.477
245.957
230.754
262.325
270.507
263.824
254.145
235.299
220.764
223.466
230.106
232.453
219.625
207.624
203.423
197.489
193.161
202.45
210.118
208.912
208.566
249.749
239.438
233.141
223.19
223.874
223.976
288.824
283.142
281.681
280.507
279.789
278.427
276.613
278.789
281.351
281.223
281.864
280.443
280.045
279.987
278.438
277.525
276.797
277.6
278.714
281.171
284.27
285.977
287.33
287.867
288.164
288.345
288.63
288.776
288.583
288.639
288.431
288.258
288.088
288.102
287.97
288.046
288.255
288.204
288.695
289.349
289.795
290.313
290.803
290.906
291.231
291.646
292.132
292.825
293.66
295.052
295.631
296.656
297.326
298.214
298.982
298.713
299.086
298.361
296.599
294.668
293.218
293.561
294.333
294.408
295.31
296.885
296.344
294.394
291.965
290.151
289.228
288.334
287.996
288.056
287.913
289.897
289.764
288.438
290.43
290.515
287.98
290.071
291.436
288.766
286.938
287.078
287.606
288.014
289.54
291.46
292.438
292.263
292.438
293.785
294.207
293.821
294.17
294.832
294.747
295.476
297.192
296.715
294.486
294.229
293.704
291.929
289.206
285.265
288.994
298.291
293.196
294.765
294.972
293.623
290.624
290.303
292.071
288.473
288.453
294.815
296.744
291.903
291.465
297.086
292.189
289.714
286.579
277.966
282.405
290.955
278.831
280.285
284.936
285.151
282.78
275.353
278.342
282.784
278.917
266.762
273.399
273.928
266.304
261.91
245.024
241.603
266.964
269.315
261.209
286.471
307.706
310.438
281.007
273.173
245.3
229.948
256.082
256.748
254.084
264.02
260.976
232.928
224.079
229.853
237.972
227.832
211.52
201.569
192.45
195.325
221.177
234.34
248.865
216.951
219.315
255.744
244.882
239.13
230.052
224.138
289.436
283.753
280.845
279.454
279.764
278.733
279.775
283.365
283.761
281.243
280.289
279.186
276.862
277.381
277.952
277.524
278.143
280.943
283.716
286.044
287.482
287.12
287.046
286.711
286.669
286.936
287.14
287.554
287.325
287.486
287.066
287.168
287.51
287.793
287.911
288.018
288.787
288.933
289.363
289.606
289.668
289.576
289.565
289.659
289.83
290.26
290.639
291.223
291.523
292.429
292.956
294.034
294.339
294.554
296.232
297.816
298.734
298.982
298.715
297.482
295.94
297.02
298.623
298.663
299.583
301.544
300.252
296
291.057
287.845
286.767
286.724
286.659
287.255
288.767
290.285
289.736
290.464
292.405
289.076
286.432
290.57
290.744
287.518
287.012
287.719
288.598
289.115
291.003
293.227
293.819
293.339
294.177
295.412
294.791
293.617
293.601
293.697
292.785
292.187
291.567
290.23
289.773
290.769
291.413
295.509
297.029
292.511
294.217
296.903
295.577
293.874
298.991
296.899
292.918
289.076
291.559
292.135
286.058
289.09
299.6
296.326
288.567
296.6
299.503
293.756
295.562
287.734
282.061
288.436
285.752
278.463
278.171
294.032
294.438
279.675
282.915
290.335
285.979
274.43
281.833
276.957
272.446
276.502
261.485
248.798
260.183
264.307
249.713
269.638
273.327
287.695
275.084
288.088
242.492
225.709
249.288
246.984
240.661
251.898
271.268
250.09
231.928
232.379
245.35
235.51
217.67
201.957
195.892
225.012
259.4
265.523
260.978
272.46
217.182
242.062
259.759
255.681
234.276
224.082
289.741
283.638
280.113
280.208
280.824
280.742
284.304
285.479
281.623
279.511
278.684
278.842
278.359
277.385
278.6
280.891
282.562
285.367
287.081
287.051
287.067
286.648
286.398
287.239
287.96
288.811
289.495
289.784
289.273
289.227
289.492
289.959
290.298
290.644
290.652
290.465
290.604
290.556
290.466
290.237
289.902
289.575
289.582
289.702
289.794
290.168
290.705
291.434
292.304
292.975
293.692
294.681
295.196
295.736
295.605
296.211
296.601
297.341
297.707
297.419
296.583
297.728
298.915
298.43
299.203
301.998
301.204
295.871
290.995
288.723
288.106
289.164
290.279
290.605
291.195
291.558
291.133
290.64
288.913
286.44
288.323
291.353
288.69
286.306
287.623
289.327
289.88
290.362
292.553
294.473
294.894
295.183
296.573
297.022
295.045
293.065
292.058
290.701
289.108
288.18
287.541
286.975
286.12
285.515
286.549
291.558
293.034
295.13
299.188
291.796
295.855
297.154
292.206
292.841
293.984
294.204
290.887
292.925
293.29
285.707
287.344
287.431
281.771
290.211
297.293
298.68
296.963
297.972
287.344
290.735
294.123
284.758
274.6
288.311
300.284
283.078
276.876
291.69
294.449
271.727
275.741
280.8
278.526
269.91
263.154
260.506
265.013
272.731
248.807
264.129
250.882
270.908
275.085
292.253
254.285
230.409
242.016
240.858
237.564
240.282
265.345
263.374
244.145
237.079
254.205
245.803
219.901
201.696
201.514
240.913
252.952
235.786
227.39
302.818
243.754
223.944
244.278
246.66
233.714
225.209
290.074
283.594
280.805
281.302
281.542
282.86
284.525
284.01
280.442
279.766
278.621
277.295
279.069
279.943
280.742
282.826
284.572
286.895
287.706
286.973
286.504
286.87
287.6
288.425
289.492
290.62
290.876
290.342
289.529
288.354
287.15
287.017
287.268
287.524
287.906
288.168
288.301
288.55
288.529
288.347
288.201
288.31
288.432
288.742
288.711
289.012
289.491
289.639
290.801
291.484
292.862
294.517
294.973
296.674
297.171
297.837
298.315
299.268
299.141
298.759
298.271
297.837
297.2
296.646
297.16
300.277
301.653
297.416
292.155
290.103
291.123
292.736
293.44
291.684
290.338
289.746
289.53
288.59
287.247
288.277
291.546
291.227
287.338
286.68
289.321
290.843
290.598
290.904
293.458
294.872
294.348
294.905
296.633
295.387
291.661
289.231
288.11
287.701
288.307
289.551
290.971
291.029
289.874
287.436
286.952
288.297
285.996
288.56
289.223
294.563
291.66
298.59
299.779
292.73
288.32
289.772
287.996
283.856
289.615
289.02
286.977
291.903
288.017
290.028
286.667
297.167
288.812
298.56
288.159
295.612
303.839
288.213
287.124
290.272
288.949
290.047
284.856
284.12
303.427
275.617
291.138
276.304
305.072
280.477
253.87
255.927
265.361
278.685
256.306
271.452
246.737
261.545
281.35
282.89
275.84
253.065
243.904
236.347
236.316
236.965
259.689
272.157
260.092
250.105
262.84
260.982
227.872
204.422
203.506
237.307
229.56
205.806
210.571
268.111
270.067
225.422
228.671
230.499
227.815
225.289
290.816
284.407
282.339
283.423
282.805
285.587
285.202
282.888
280.878
278.965
278.799
278.843
280.625
281.41
283.206
286.655
288.416
288.724
287.723
286.71
286.751
287.07
287.863
288.553
289.302
289.527
289.963
289.935
289.123
288.81
288.372
288.29
288.743
289.054
288.996
288.867
288.758
289.151
289.697
289.88
289.759
289.921
290.159
290.511
290.426
290.514
290.785
290.752
291.142
291
291.576
293.087
293.944
294.704
295.967
297.191
297.232
297.834
299.14
300.265
301.119
300.68
299.869
300.139
298.547
298.921
301.962
300.484
295.636
293.014
293.013
292.78
291.681
289.749
289.091
289.005
288.61
288.609
289.171
290.837
291.549
289.287
287.097
288.358
291.374
292.223
291.93
292.672
294.325
294.09
293.486
294.749
296.067
294.047
291.124
289.725
288.652
288.539
289.468
290.062
290.554
290.051
290.965
290.375
290.461
292.854
292.361
292.979
292.138
291.892
297.726
297.041
296.709
292.932
291.791
284.899
286.883
281.718
281.798
287.263
281.287
284.992
287.126
292.568
286.093
297.203
290.289
296.04
288.227
297.584
299.577
282.868
296.79
297.71
282.423
294.604
302.39
285.749
303.677
284.933
327.874
272.506
311.522
316.727
270.922
256
263.857
278.444
262.854
289.794
257.921
263.969
286.567
281.219
288.353
288.195
259.074
238.707
238.904
237.302
257.819
273.317
273.265
262.364
274.533
273.368
235.545
209.048
207.95
231.425
220.799
212.068
218.259
261.925
273.204
230.12
234.24
236.289
236.579
232.938
291.721
285.743
283.224
284.748
283.28
285.987
288.229
284.009
280.657
279.349
279.197
279.682
281.209
282.955
285.066
287.023
288.022
288.176
287.334
287.247
287.669
288.384
289.162
288.805
289.365
289.486
289.584
289.925
289.501
289.496
289.392
289.362
289.3
288.868
288.115
287.774
287.941
288.783
290.098
291.233
291.573
291.236
290.342
289.783
289.974
290.27
290.514
291.438
291.774
292.609
293.181
293.406
294.648
295.156
296.342
297.781
298.509
297.782
297.743
298.155
299.172
300.279
301.421
304.02
302.643
299.284
301.719
303.901
299.946
295.351
293.212
292.064
290.692
289.743
289.556
289.96
289.395
290.023
291.302
291.539
289.779
287.01
286.514
289.21
292.296
293.204
293.206
294.285
295.546
294.547
293.076
293.926
294.965
293.435
291.849
290.841
290.394
291.749
293.531
294.335
294.572
294.471
297.395
297.27
295.309
294.514
291.419
288.688
289.253
289.728
297.251
301.228
294.82
286.794
291.155
284.988
283.598
284.202
282.33
284.495
281.348
280.808
281.472
289.798
283.283
293.963
296.077
294.352
289.09
300.565
298.956
282.181
299.658
301.219
284.344
294.926
306.24
290.094
298.51
288.608
336.812
277.619
291.435
318.448
295.289
271.15
274.296
281.983
265.677
305.203
275.899
275.536
289.227
285.16
292.975
315.976
277.555
248.661
243.335
241.966
262.591
272.186
279.254
266.901
281.532
289.886
243.948
211.518
213.617
227.439
211.47
207.13
222.928
270.714
263.518
229.862
242.166
249.349
247.119
241.696
292.569
287.41
283.832
284.758
285.068
285.839
287.695
286.233
282.807
281.046
280.664
282.281
283.906
284.882
286.693
288.998
289.285
289.946
288.414
287.149
286.94
287.251
288.795
289.122
289.627
290.047
289.72
289.389
288.925
288.749
288.73
288.498
287.72
287.133
286.439
286.098
286.099
286.393
286.938
287.534
288.37
288.752
289.043
289.281
289.728
290.555
290.645
291.126
290.467
291.118
291.672
292.757
293.612
294.28
294.95
296.559
298.843
299.922
300.065
299.881
299.234
299.12
298.606
300.341
302.847
300.934
301.124
303.87
301.963
297.658
295.434
293.594
290.932
289.106
289.48
290.23
290.422
290.741
291.117
290.267
288.492
287.221
287.952
290.35
292.497
293.329
294.325
295.74
295.736
293.89
292.606
292.802
292.044
290.382
289.976
290.069
290.647
292.952
294.514
294.897
294.786
293.418
295.885
295.895
295.798
295.847
292.547
292.692
289.043
292.629
294.472
296.641
298.387
292.044
284.361
281.779
276.768
279
279.791
281.76
281.231
280.664
280.715
289.372
279.143
286.6
297.564
292.232
290.821
301.84
304.684
288.125
298.492
303.964
291.495
292.99
301.724
294.702
300.838
285.655
327.37
291.893
286.464
302.458
306.369
288.621
292.413
290.042
270.533
314.701
292.868
291.721
293.518
288.23
300.379
322.035
285.592
257.555
246.095
250.542
268.164
274.762
283.609
274.083
279.865
304.487
259.247
216.117
220.757
224.882
209.661
213.946
233.213
272.589
257.919
226.341
238.129
252.21
250.988
247.297
293.06
287.969
283.668
282.919
285.472
287.785
289.115
287.434
284.309
282.814
281.904
283.306
284.891
286.897
287.7
289.746
289.854
290.551
289.92
288.571
288.872
289.406
290.317
290.723
291.18
291.752
291.601
290.463
289.338
289.451
289.811
290.018
290.004
290.222
290.421
290.852
290.856
290.388
289.918
289.362
289.197
289.244
289.757
290.176
290.591
291.018
291.797
292.269
292.539
292.515
292.458
293.107
293.6
294.935
295.466
296.028
296.403
297.63
298.885
300.506
301.186
301.737
300.865
299.054
302.095
302.924
300.969
303.643
304.785
300.733
296.623
293.806
291.286
289.419
289.725
289.983
291.265
290.802
289.651
288.574
287.911
288.02
289.579
291.689
293.31
294.292
295.387
296.399
296.294
294.361
292.54
291.722
290.5
289.465
289.536
290.307
292.153
295.079
295.975
296.283
297.346
294.064
292.623
290.642
292.55
297.355
297.856
298.06
294.173
291.5
300.527
301.597
293.853
289.936
283.141
284.892
280.243
279.754
280.158
283.323
279.942
281.211
282.176
288.395
280.661
281.111
292.46
288.033
289.137
296.928
303.938
293.41
298.929
302.015
298.798
296.469
300.34
295.656
309.251
288.402
311.234
306.18
298.813
300.792
309.161
300.644
308.181
298.385
277.891
317.39
303.975
304.922
294.948
294.882
311.789
316.964
281.891
257.64
251.024
260.14
274.338
279.975
283.55
276.75
280.189
306.23
269.751
224.334
229.738
223.979
210.452
225.624
247.378
274.686
252.822
220.971
234.737
253.285
253.49
250.793
293.608
288.232
283.095
280.361
283.962
287.277
290.832
291.082
287.517
285.624
283.108
284.086
285.096
286.998
288.28
289.728
290.228
290.211
289.86
288.69
288.431
288.416
288.849
289.035
289.131
289.888
291.098
292.047
291.803
291.559
291.878
292.073
291.738
291.596
291.954
292.4
292.641
292.781
292.596
292.175
291.529
290.656
290.241
289.937
290.266
290.796
291.454
291.45
292.222
292.021
292.342
292.746
292.845
293.446
294.65
296.466
298.121
298.105
298.137
299.789
300.42
300.077
302.599
302.269
300.86
303.023
301.335
301.9
304.871
302.965
298.705
295.052
291.745
289.469
289.548
289.799
290.063
290.105
288.602
287.48
287.875
288.946
290.28
291.526
292.791
294.482
296.224
297.01
296.011
294.772
294.257
293.327
291.998
290.9
291.427
292.77
294.764
296.44
295.734
294.792
298.549
298.539
298.032
294.554
295.571
296.943
296.821
296.702
287.718
290.099
294.181
298.635
296.622
286.443
281.381
281.367
280.582
281.635
286.552
290.032
284.561
283.008
285.348
284.905
278.528
280.739
285.883
283.685
287.772
291.736
298.169
294.794
298.858
297.362
303.608
301.476
300.702
297.133
317.895
298.167
302.051
312.241
313.193
307.31
308.677
309.121
317.676
304.918
288.961
317.408
312.271
312.199
293.553
303.745
316.815
307.677
274.478
258.579
259.372
270.415
281.704
281.413
280.745
280.023
282.768
303.972
274.93
232.306
234.913
222.626
212.379
240.946
259.683
270.82
258.434
228.944
244.881
259.834
256.701
253.274
294.373
289.269
283.477
280.054
283.072
286.44
289.882
292.386
290.152
289.463
286.6
285.558
286.578
287.573
289.424
290.804
291.929
292.336
292.362
291.639
291.02
290.486
290.59
290.568
290.346
290.26
290.169
290.286
290.326
290.644
291.343
292.135
292.808
292.804
292.833
292.827
293.094
293.592
293.708
293.781
293.753
292.985
291.762
291.014
291.135
291.855
292.215
292.465
292.535
292.728
293.211
293.211
294.263
294.424
294.822
295.212
296.819
298.643
298.335
299.738
302.775
301.346
300.175
303.891
302.889
303.095
303.358
301.194
304
305.127
301.414
296.816
292.664
290.454
288.929
289.811
289.254
288.654
288.03
288.03
289.106
290.516
291.56
291.921
292.52
293.988
295.971
296.916
295.973
294.987
294.799
294.372
292.784
291.646
291.81
292.602
293.431
295.111
296.713
294.569
297.187
299.827
302.943
296.989
293.053
292.39
296.774
298.463
294.496
295.398
298.405
299.307
296.44
289.088
283.767
283.692
282.382
280.742
283.425
284.249
284.849
286.914
292.663
290.767
280.114
287.951
283.326
280.916
288.607
288.131
294.635
294.408
296.623
297.015
307.487
302.457
301.581
302.539
321.819
303.81
301.878
313.486
319.64
310.118
308.682
314.918
320.39
306.464
298.499
319.654
318.122
311.887
294.31
311.403
314.295
297.653
272.446
266.231
270.33
280.599
284.624
282.958
277.885
281.26
275.262
297.462
273.862
231.334
235.552
220.655
214.078
249.832
267.76
269.816
279.713
252.039
253.652
262.383
257.387
255.379
295.273
290.964
284.08
281.712
284.746
286.794
289.111
292.03
290.7
290.344
289.311
287.494
287.673
287.638
288.689
290.142
291.091
291.873
292.525
292.74
292.826
292.76
292.985
293.114
293.222
293.426
293.351
293.408
293.489
293.154
292.608
292.271
292.119
292.487
293.19
293.829
293.607
292.23
291.183
291.343
293.069
294.268
293.911
293.207
292.881
292.632
292.053
292.314
292.662
292.758
293.48
293.485
293.926
294.892
295.27
296.522
296.968
298.519
299.546
299.2
299.997
302.357
300.887
302.266
304.795
302.506
303.648
302.018
301.729
305.843
303.82
299.488
294.749
291.037
289.68
289.131
288.855
288.066
287.26
287.998
290.087
291.995
293.065
293.07
293.069
294.245
296.285
296.637
295.284
293.774
294.065
294.437
293.188
291.496
290.864
292.795
294.169
293.653
296.788
294.476
292.269
291.543
297.217
297.352
295.549
293.46
298.342
300.393
293.877
290.743
294.816
302.15
296.263
285.52
282.406
285.564
283.357
281.442
283.866
283.295
284.401
288.678
292.608
291.588
283.976
294.602
284.585
281.679
291.121
285.052
292.33
295.466
294.188
300.178
310.741
301.39
304.096
309.753
321.344
302.264
302.471
315.077
318.288
307.75
309.874
317.982
318.501
304.6
304.085
322.277
320.726
307.972
297.892
314.907
308.094
292.358
279.218
278.875
279.424
286.235
285.811
280.425
268.841
276.22
265.85
288.729
268.727
228.786
236.177
220.065
216.594
258.043
273.079
271.189
283.982
264.318
247.802
256.914
255.061
257.552
296.298
293.23
286.142
282.8
285.921
288.012
289.94
293.294
293.004
291.845
291.032
289.569
289.074
288.715
288.519
289.489
289.962
290.415
291.11
291.453
291.71
292.093
292.459
292.735
293.107
293.184
293.233
293.375
293.495
294.076
294.308
294.049
293.818
293.286
292.432
292.994
294.26
294.774
294.063
292.7
293.872
294.836
295.12
294.952
293.668
292.856
291.75
291.722
291.997
292.702
293.717
294.623
294.636
295.818
295.798
296.379
296.57
297.207
298.667
301.002
301.739
301.226
301.475
301.45
304.42
303.696
301.943
303.996
302.185
303.554
306.534
302.383
297.405
292.796
290.225
289.626
289.158
288.414
287.728
288.392
290.371
292.676
294.035
294.078
293.827
294.576
296.149
297.264
296.24
293.84
292.769
292.979
293.294
292.865
291.246
291.637
294.769
293.125
296.493
297.352
292.86
290.664
295.656
297.826
294.656
292.201
299.062
301.261
295.491
294.84
294.736
298.252
295.677
285.92
283.966
284.495
279.116
274.7
276.974
279.993
284.955
292.003
295.453
293.68
290.852
297.004
287.011
286.508
292.15
282.87
290.626
297.466
292.67
302.343
312.097
300.66
305.467
313.593
316.852
299.672
303.157
315.088
312.41
303.955
310.763
317.743
314.784
302.808
307.839
325.381
320.204
302.97
303.089
315.982
301.776
294.004
290.284
287.293
283.829
289.296
284.552
271.9
259.877
274.716
263.419
282.521
271.545
234.368
236.014
219.62
223.596
264.55
273.641
272
270.368
268.73
240.449
251.46
254.835
261.596
297.189
295.372
289.702
284.917
286.862
287.97
289.395
293.115
294.875
294.516
293.574
292.195
291.161
290.681
290.163
290.539
290.954
291.208
291.784
292.174
292.465
292.722
292.869
292.955
293.122
293.297
293.31
293.054
292.943
293.228
293.949
294.603
294.494
294.941
294.716
293.414
293.529
293.62
294.408
294.358
294.552
295.745
295.719
295.684
293.974
293.626
292.815
292.799
292.969
292.989
293.474
294.351
294.926
295.169
295.956
297.211
298.976
298.917
300.141
299.568
299.483
301.622
303.397
303.777
302.695
303.469
302.107
302.957
305.176
303.21
304.849
306.495
301.206
295.436
291.554
290.267
289.855
289.246
288.958
289.37
290.708
292.735
294.316
295.03
295.218
295.637
296.278
297.689
297.929
296.36
294.163
292.552
292.18
293.407
293.29
291.278
293.811
292.82
292.519
297.331