/*--------------------------------*- C++ -*----------------------------------*\
| =========                 |                                                 |
| \\      /  F ield         | OpenFOAM: The Open Source CFD Toolbox           |
|  \\    /   O peration     | Version:  dev                                   |
|   \\  /    A nd           | Web:      http://www.openfoam.org               |
|    \\/     M anipulation  |                                                 |
\*---------------------------------------------------------------------------*/
FoamFile
{
    version     2.0;
    format      ascii;
    class       volVectorField;
    object      U_0;
    location    "9.153";
}
// * * * * * * * * * * * * * * * * * * * * * * * * * * * * * * * * * * * * * //

dimensions      [0 1 -1 0 0 0 0];

internalField   nonuniform List<vector> 
12225
(
(6.32308 0.536551 0)
(2.22959 0.236889 0)
(-0.614993 0.0774201 0)
(-1.8584 0.00792802 0)
(-3.70973 0.0575292 0)
(-3.89603 -0.0187392 0)
(-5.70108 0.0694816 0)
(-5.49208 -0.0536538 0)
(-7.20999 0.0937016 0)
(-6.50959 -0.13101 0)
(-8.50171 0.142948 0)
(-6.615 -0.231603 0)
(-9.27487 0.196238 0)
(-5.69895 -0.371645 0)
(-6.73465 -0.426349 0)
(1.42386 -1.56452 0)
(14.8079 -0.0512839 0)
(-3.85728 9.70546 0)
(8.92382 1.27369 0)
(7.01861 0.999997 0)
(3.4279 0.6421 0)
(2.50587 0.402548 0)
(-1.41314 0.359942 0)
(-0.583308 0.17822 0)
(-4.97478 0.386436 0)
(-2.88128 0.0823813 0)
(-7.88719 0.393523 0)
(-4.33517 0.0227258 0)
(-10.9585 0.371598 0)
(-3.80668 -0.225895 0)
(-13.2572 0.230778 0)
(-1.76417 -1.50727 0)
(-11.644 -0.886864 0)
(1.04348 -5.71127 0)
(-5.98585 -0.965616 0)
(-12.5719 8.00939 0)
(8.96174 1.31651 0)
(9.54716 1.33658 0)
(5.54335 0.979643 0)
(6.79877 0.855478 0)
(1.23548 0.708612 0)
(4.06338 0.607801 0)
(-2.61899 0.728498 0)
(1.9586 0.407447 0)
(-5.7081 0.573002 0)
(0.794712 0.366959 0)
(-8.21372 0.49209 0)
(0.494165 -0.217294 0)
(-9.64401 0.53479 0)
(-1.02509 -1.45228 0)
(-10.2683 -0.160981 0)
(-1.48137 -3.75578 0)
(-12.0408 0.0869612 0)
(-12.0843 6.25623 0)
(7.50298 1.29432 0)
(10.9741 1.51968 0)
(5.33883 1.14632 0)
(8.97477 1.1944 0)
(2.6504 1.02384 0)
(6.68622 1.02268 0)
(-0.0134647 1.05832 0)
(4.41842 0.678053 0)
(-2.25585 1.00604 0)
(2.58415 0.376599 0)
(-4.38068 1.06219 0)
(0.72983 -0.377003 0)
(-6.45514 1.31368 0)
(-0.650594 -1.72075 0)
(-9.69043 0.35252 0)
(-4.33631 -3.95973 0)
(-13.0507 0.80666 0)
(-15.0903 14.4526 0)
(6.87338 1.56086 0)
(10.3181 1.49731 0)
(5.97603 1.31638 0)
(7.81183 1.17543 0)
(4.42172 1.37716 0)
(5.40248 1.11526 0)
(2.74875 1.45743 0)
(3.08184 0.926219 0)
(1.0004 1.42262 0)
(0.855451 0.673795 0)
(-1.33264 1.68102 0)
(-1.28188 -0.0840067 0)
(-3.61745 2.1235 0)
(-2.94224 -0.879375 0)
(-7.8224 2.27769 0)
(-6.34849 -5.32824 0)
(-12.7735 4.88429 0)
(-17.0934 8.55613 0)
(8.69137 1.94486 0)
(8.78014 1.27448 0)
(7.37837 1.7296 0)
(6.05756 1.19115 0)
(5.09688 1.76331 0)
(3.48907 1.09808 0)
(3.46293 1.80912 0)
(1.78356 1.04644 0)
(2.05249 1.88139 0)
(-0.369042 0.978834 0)
(-0.0901782 2.25486 0)
(-2.03164 0.0482274 0)
(-2.03246 2.48936 0)
(-3.51745 0.0417954 0)
(-4.45759 3.53319 0)
(-5.73356 -0.811174 0)
(-11.788 7.47305 0)
(-11.9573 8.53117 0)
(9.45902 2.19779 0)
(8.00187 1.14567 0)
(7.82383 2.13344 0)
(5.85584 1.37505 0)
(5.37744 2.38584 0)
(3.46672 1.13512 0)
(3.70404 2.21757 0)
(1.84198 1.08076 0)
(2.19652 2.62266 0)
(-0.156029 1.00705 0)
(0.519323 3.10355 0)
(-1.55109 0.19948 0)
(-1.39456 3.57456 0)
(-3.38291 -0.0355311 0)
(-2.96599 4.19363 0)
(-5.43266 -0.483793 0)
(-8.62125 7.53546 0)
(-5.88139 5.79122 0)
(9.61385 2.65924 0)
(7.61441 1.27758 0)
(7.2029 2.39323 0)
(5.59504 1.48532 0)
(5.21892 2.55365 0)
(3.8235 1.25448 0)
(3.53694 2.35481 0)
(2.08362 1.41013 0)
(1.77357 2.79325 0)
(0.376793 1.51622 0)
(0.326422 2.97191 0)
(-0.998428 1.27592 0)
(-1.58222 3.20178 0)
(-2.70105 1.31898 0)
(-3.34155 4.07027 0)
(-4.47104 2.13082 0)
(-6.28623 5.80432 0)
(-3.76674 6.92803 0)
(9.5554 2.83274 0)
(7.65892 1.37667 0)
(7.19577 2.59296 0)
(5.67456 1.64404 0)
(5.27294 2.75686 0)
(3.78043 1.44646 0)
(3.30308 2.62696 0)
(1.8866 1.5846 0)
(1.5558 3.03285 0)
(0.385217 1.62227 0)
(0.121695 3.28591 0)
(-1.00885 1.46596 0)
(-1.72623 3.58125 0)
(-2.77369 1.584 0)
(-3.46613 4.36788 0)
(-4.06938 2.80721 0)
(-5.12208 6.00174 0)
(-3.96334 6.65113 0)
(9.69561 3.23051 0)
(7.91278 1.69099 0)
(7.05038 2.73556 0)
(5.63071 1.81007 0)
(5.01273 2.81751 0)
(3.84284 1.76884 0)
(3.14745 2.79172 0)
(2.05982 2.00683 0)
(1.3617 3.08819 0)
(0.446017 2.25483 0)
(-0.155977 3.3189 0)
(-0.939859 2.47426 0)
(-1.87412 3.49938 0)
(-2.55209 2.85594 0)
(-3.3573 4.23906 0)
(-3.70626 3.9043 0)
(-4.29326 5.39617 0)
(-3.64207 6.30043 0)
(9.60027 3.34777 0)
(8.05334 1.95593 0)
(7.05581 2.95647 0)
(5.78174 2.17641 0)
(4.90855 2.97026 0)
(3.83837 2.1118 0)
(2.98772 2.95711 0)
(2.05313 2.32589 0)
(1.21373 3.26149 0)
(0.476051 2.60789 0)
(-0.224482 3.50557 0)
(-0.828037 2.90484 0)
(-1.65615 3.69636 0)
(-2.23335 3.4846 0)
(-2.83222 4.28161 0)
(-3.22798 4.50882 0)
(-3.4636 5.3152 0)
(-3.24379 6.02601 0)
(9.58368 3.5887 0)
(8.00458 2.31179 0)
(7.00546 2.97656 0)
(5.85877 2.43301 0)
(4.9277 2.97488 0)
(3.89059 2.51678 0)
(3.00491 3.1224 0)
(2.07201 2.82736 0)
(1.17617 3.42756 0)
(0.451518 3.21085 0)
(-0.259276 3.66738 0)
(-0.934556 3.58425 0)
(-1.63148 3.92859 0)
(-2.14046 4.11148 0)
(-2.60618 4.52167 0)
(-2.91956 4.88985 0)
(-3.07627 5.40115 0)
(-2.91353 5.915 0)
(9.60796 3.97629 0)
(8.291 2.70327 0)
(7.19684 3.12987 0)
(5.9934 2.89593 0)
(4.89374 3.2267 0)
(3.82529 2.96653 0)
(2.89925 3.34314 0)
(2.02114 3.25303 0)
(1.11643 3.63296 0)
(0.392654 3.67484 0)
(-0.276947 3.92899 0)
(-0.919115 3.98763 0)
(-1.52277 4.2554 0)
(-1.98956 4.47877 0)
(-2.37713 4.80528 0)
(-2.65398 5.17201 0)
(-2.76107 5.55335 0)
(-2.61052 5.86171 0)
(9.36002 4.22261 0)
(8.01164 2.99673 0)
(6.87683 3.24014 0)
(5.8401 3.17087 0)
(4.85869 3.33716 0)
(3.92086 3.31961 0)
(3.05945 3.57058 0)
(2.23409 3.68603 0)
(1.40102 3.92531 0)
(0.667183 4.08641 0)
(-0.0218072 4.26202 0)
(-0.64327 4.40523 0)
(-1.21526 4.60845 0)
(-1.69354 4.82558 0)
(-2.02241 5.03993 0)
(-2.25729 5.32692 0)
(-2.41787 5.58859 0)
(-2.29277 5.80014 0)
(9.43058 4.70648 0)
(8.07709 3.38342 0)
(6.96307 3.42894 0)
(5.85255 3.40856 0)
(4.77229 3.49782 0)
(3.7863 3.58963 0)
(2.91709 3.7471 0)
(2.10712 3.90137 0)
(1.35768 4.12454 0)
(0.663723 4.34432 0)
(0.0219217 4.56797 0)
(-0.529627 4.74545 0)
(-1.05794 4.92616 0)
(-1.4747 5.09015 0)
(-1.79948 5.24892 0)
(-1.97726 5.4145 0)
(-2.13345 5.61181 0)
(-2.08163 5.75662 0)
(9.33318 4.74811 0)
(8.11813 3.46046 0)
(7.09662 3.52407 0)
(6.09417 3.60783 0)
(5.09159 3.7034 0)
(4.12742 3.8094 0)
(3.21475 3.94521 0)
(2.38163 4.11336 0)
(1.60824 4.31379 0)
(0.95507 4.53324 0)
(0.337095 4.76239 0)
(-0.202054 4.93741 0)
(-0.64669 5.10319 0)
(-1.00391 5.23725 0)
(-1.303 5.36536 0)
(-1.46565 5.46066 0)
(-1.64121 5.5743 0)
(-1.65779 5.64928 0)
(9.70109 5.00431 0)
(8.35885 3.53344 0)
(7.18587 3.53948 0)
(6.05991 3.61557 0)
(5.02406 3.73608 0)
(4.09124 3.89156 0)
(3.21954 4.06676 0)
(2.45148 4.23673 0)
(1.72539 4.42122 0)
(1.09083 4.58467 0)
(0.523724 4.74895 0)
(0.0317409 4.91222 0)
(-0.405954 5.05361 0)
(-0.768775 5.166 0)
(-1.08108 5.26419 0)
(-1.28758 5.34312 0)
(-1.48258 5.42205 0)
(-1.51105 5.4747 0)
(9.71295 4.8378 0)
(8.51989 3.64345 0)
(7.44466 3.65462 0)
(6.38775 3.66895 0)
(5.36523 3.7317 0)
(4.41568 3.81597 0)
(3.5213 3.91725 0)
(2.72004 4.03686 0)
(1.97932 4.18021 0)
(1.358 4.35404 0)
(0.800603 4.53262 0)
(0.315596 4.70396 0)
(-0.119505 4.85194 0)
(-0.48981 4.96152 0)
(-0.808301 5.0467 0)
(-1.05651 5.11148 0)
(-1.31078 5.17161 0)
(-1.42806 5.21217 0)
(9.65684 4.70882 0)
(8.55941 3.29871 0)
(7.52596 3.22647 0)
(6.52087 3.30621 0)
(5.56618 3.49626 0)
(4.70009 3.67022 0)
(3.87318 3.78369 0)
(3.10742 3.87342 0)
(2.38681 3.92859 0)
(1.71159 4.03044 0)
(1.08865 4.13454 0)
(0.574204 4.26421 0)
(0.101838 4.39781 0)
(-0.290071 4.51198 0)
(-0.622417 4.61037 0)
(-0.884835 4.69326 0)
(-1.15037 4.77592 0)
(-1.30162 4.83395 0)
(9.5863 4.26164 0)
(8.5573 2.93614 0)
(7.58219 2.87416 0)
(6.65589 2.91491 0)
(5.74903 3.01996 0)
(4.89934 3.14719 0)
(4.10796 3.25103 0)
(3.33927 3.38348 0)
(2.61955 3.50158 0)
(1.93999 3.63822 0)
(1.28009 3.76354 0)
(0.733122 3.89123 0)
(0.243154 3.98906 0)
(-0.16495 4.06952 0)
(-0.522516 4.14703 0)
(-0.786697 4.19272 0)
(-1.0425 4.23899 0)
(-1.20568 4.28615 0)
(9.53537 3.53785 0)
(8.41827 2.50935 0)
(7.52848 2.44142 0)
(6.70497 2.4542 0)
(5.88348 2.56153 0)
(5.04047 2.7396 0)
(4.21319 2.90073 0)
(3.41759 3.01929 0)
(2.65845 3.12783 0)
(1.95284 3.21178 0)
(1.31243 3.28729 0)
(0.76185 3.36456 0)
(0.277162 3.41612 0)
(-0.106454 3.46032 0)
(-0.450572 3.51186 0)
(-0.759634 3.56213 0)
(-1.01206 3.62546 0)
(-1.15559 3.67421 0)
(9.53722 3.04285 0)
(8.65347 2.08042 0)
(7.84255 2.01524 0)
(6.97295 2.02487 0)
(6.13788 2.11007 0)
(5.35774 2.21719 0)
(4.57437 2.37268 0)
(3.80722 2.51911 0)
(3.08017 2.62669 0)
(2.38946 2.72906 0)
(1.76723 2.7921 0)
(1.19953 2.84087 0)
(0.687503 2.88376 0)
(0.243085 2.91206 0)
(-0.154254 2.944 0)
(-0.484686 2.98776 0)
(-0.786185 3.0575 0)
(-1.01351 3.10774 0)
(9.39488 2.44428 0)
(8.56072 1.57767 0)
(7.7868 1.55617 0)
(6.97248 1.62196 0)
(6.18919 1.72629 0)
(5.46142 1.8286 0)
(4.72951 1.93844 0)
(3.99769 2.09714 0)
(3.29678 2.1969 0)
(2.63583 2.28457 0)
(2.01381 2.31656 0)
(1.42426 2.35754 0)
(0.866529 2.39019 0)
(0.369352 2.42877 0)
(-0.0626676 2.46539 0)
(-0.425633 2.49341 0)
(-0.730944 2.53381 0)
(-0.964623 2.56615 0)
(9.71867 1.95861 0)
(8.88517 1.15908 0)
(8.04385 1.13223 0)
(7.16352 1.17806 0)
(6.31659 1.26319 0)
(5.50095 1.36389 0)
(4.75637 1.4426 0)
(4.0246 1.55005 0)
(3.33052 1.66797 0)
(2.69216 1.76794 0)
(2.12065 1.83508 0)
(1.58709 1.89184 0)
(1.09852 1.93061 0)
(0.637384 1.96663 0)
(0.215267 1.97975 0)
(-0.155712 1.98849 0)
(-0.484556 1.99789 0)
(-0.750508 2.00346 0)
(9.70789 1.36854 0)
(8.86908 0.751286 0)
(8.21297 0.754199 0)
(7.46315 0.836143 0)
(6.67022 0.945311 0)
(5.84392 1.04248 0)
(5.0606 1.12986 0)
(4.31846 1.19674 0)
(3.63877 1.25588 0)
(2.99407 1.31172 0)
(2.43012 1.35451 0)
(1.90849 1.38819 0)
(1.43966 1.42224 0)
(0.986267 1.45124 0)
(0.569018 1.4959 0)
(0.17405 1.54231 0)
(-0.187008 1.58047 0)
(-0.4917 1.60356 0)
(9.9946 1.13318 0)
(9.25802 0.398296 0)
(8.58595 0.313842 0)
(7.80062 0.40731 0)
(6.97682 0.540051 0)
(6.1447 0.650208 0)
(5.34061 0.73324 0)
(4.55965 0.809414 0)
(3.83023 0.841601 0)
(3.13841 0.867194 0)
(2.47408 0.905555 0)
(1.84528 0.951982 0)
(1.26598 1.00872 0)
(0.74002 1.06108 0)
(0.27688 1.10999 0)
(-0.146162 1.14463 0)
(-0.507461 1.16691 0)
(-0.791033 1.17483 0)
(9.83525 0.575068 0)
(9.39724 -0.0200149 0)
(8.84903 0.00679135 0)
(8.04695 0.127836 0)
(7.1129 0.244297 0)
(6.1566 0.346736 0)
(5.2434 0.43147 0)
(4.38804 0.510995 0)
(3.58175 0.584058 0)
(2.81435 0.60361 0)
(2.07278 0.62826 0)
(1.35545 0.644273 0)
(0.698735 0.696544 0)
(0.10718 0.733257 0)
(-0.414627 0.757436 0)
(-0.884866 0.773452 0)
(-1.26468 0.785288 0)
(-1.60766 0.786992 0)
(9.88788 0.133792 0)
(9.50043 -0.435333 0)
(8.78818 -0.298299 0)
(7.73698 -0.107994 0)
(6.51978 0.0508521 0)
(5.30602 0.171062 0)
(4.14614 0.223851 0)
(3.09127 0.267836 0)
(2.07139 0.316914 0)
(1.11609 0.355755 0)
(0.197332 0.387612 0)
(-0.644209 0.422883 0)
(-1.40234 0.470227 0)
(-2.08022 0.492095 0)
(-2.67156 0.505717 0)
(-3.22057 0.51915 0)
(-3.67843 0.511884 0)
(-4.12109 0.510557 0)
(10.04 -0.329183 0)
(8.79555 -0.732398 0)
(7.075 -0.511763 0)
(5.25513 -0.277074 0)
(3.57671 -0.0646251 0)
(2.05879 0.0854381 0)
(0.694359 0.165548 0)
(-0.504645 0.215153 0)
(-1.6119 0.250705 0)
(-2.59261 0.288576 0)
(-3.48658 0.285714 0)
(-4.28084 0.308145 0)
(-5.00791 0.312953 0)
(-5.64226 0.321338 0)
(-6.21598 0.321656 0)
(-6.73486 0.324417 0)
(-7.17214 0.315535 0)
(-7.5773 0.3026 0)
(8.12798 -0.337387 0)
(4.84084 -0.289249 0)
(2.10161 -0.0419244 0)
(0.0580264 0.0726146 0)
(-1.39033 0.115028 0)
(-2.53294 0.122109 0)
(-3.50123 0.119459 0)
(-4.36294 0.110185 0)
(-5.18082 0.104884 0)
(-5.93931 0.102324 0)
(-6.65161 0.0959256 0)
(-7.32013 0.102077 0)
(-7.93617 0.105049 0)
(-8.48748 0.108913 0)
(-8.98943 0.108162 0)
(-9.45011 0.108747 0)
(-9.84863 0.103885 0)
(-10.2482 0.109552 0)
(0.101615 -0.0389282 0)
(0.21781 -0.00194473 0)
(0.321169 0.0199141 0)
(0.438492 0.0173256 0)
(0.568044 0.0131811 0)
(0.70634 0.0104041 0)
(0.851028 0.00627094 1.10984e-17)
(0.99946 0.000352378 -1.10293e-17)
(1.15237 -0.00333318 0)
(1.30073 -0.00748708 -1.08868e-17)
(1.43502 -0.00314636 0)
(1.54846 0.0126983 0)
(1.65001 0.0447732 0)
(1.74939 0.0807968 1.06058e-17)
(1.85332 0.111639 0)
(1.94325 0.130056 0)
(2.00333 0.132845 -1.03977e-17)
(2.03069 0.125438 0)
(2.03706 0.11245 0)
(2.02315 0.105324 0)
(2.00931 0.111419 1.01356e-17)
(1.98511 0.128204 0)
(1.97219 0.150249 1.00031e-17)
(1.98185 0.14507 0)
(1.99037 0.11425 0)
(1.98379 0.0690526 9.80472e-18)
(1.94359 0.0374746 0)
(1.88806 0.0354855 -9.65695e-18)
(1.82531 0.060448 0)
(1.75875 0.0908544 9.52346e-18)
(1.68943 0.104957 0)
(1.63289 0.106408 0)
(1.59345 0.10605 0)
(1.56461 0.0973328 0)
(1.5522 0.0847565 0)
(1.56053 0.0729648 -9.16699e-18)
(1.59535 0.0563762 0)
(1.6594 0.0292728 1.81492e-17)
(1.76226 -0.0160924 0)
(1.91443 -0.0768358 -1.79677e-17)
(2.12955 -0.164077 0)
(2.43807 -0.274693 0)
(2.84362 -0.391291 1.7588e-17)
(3.33338 -0.468926 0)
(3.86086 -0.510132 1.73169e-17)
(4.38036 -0.525841 -1.7206e-17)
(4.88882 -0.539538 0)
(5.38891 -0.539084 -1.70264e-17)
(5.8823 -0.558965 -1.69354e-17)
(6.39655 -0.556911 0)
(6.88134 -0.53217 0)
(7.28727 -0.532315 0)
(7.6224 -0.524371 0)
(7.98263 -0.521385 0)
(8.46762 -0.532281 1.63441e-17)
(8.94849 -0.501446 0)
(9.38586 -0.456324 -1.61535e-17)
(9.74239 -0.374152 0)
(10.0689 -0.281769 0)
(10.3166 -0.251283 1.58742e-17)
(10.5059 -0.265606 0)
(10.6953 -0.32725 -1.56483e-17)
(10.8644 -0.392234 0)
(11.0416 -0.407986 0)
(11.2426 -0.40831 0)
(11.4134 -0.366842 1.52066e-17)
(11.57 -0.301965 0)
(11.6519 -0.239322 0)
(11.6362 -0.172416 1.49293e-17)
(11.5488 -0.122067 0)
(11.3959 -0.129063 1.47111e-17)
(11.2034 -0.160292 0)
(11.1165 -0.190988 0)
(11.265 -0.232817 0)
(11.5061 -0.33324 -1.43178e-17)
(11.7613 -0.432522 0)
(12.1431 -0.355883 0)
(12.4788 0.167536 -1.40511e-17)
(12.4938 0.558668 -1.40762e-17)
(12.1145 0.187851 0)
(11.4699 -0.412502 -1.38285e-17)
(10.8125 -0.548726 0)
(10.5314 -0.543628 -2.70883e-17)
(10.779 -0.605761 0)
(11.37 -0.425523 -2.65918e-17)
(11.9125 -0.088957 0)
(12.2491 -0.0191391 2.61045e-17)
(12.4671 -0.486311 0)
(12.6173 -1.08415 0)
(12.395 -1.10688 0)
(11.4371 -0.421021 -2.60306e-17)
(9.56363 0.330648 0)
(7.23608 0.738797 2.53056e-17)
(4.85652 0.752364 0)
(2.76673 0.635251 -2.46576e-17)
(0.836077 0.520555 -2.44052e-17)
(-0.875193 0.444102 -2.41741e-17)
(-2.41065 0.345324 0)
(-3.82852 0.29755 0)
(-5.02582 0.19924 0)
(-5.965 0.0838303 0)
(-6.81613 -0.00594763 0)
(-7.42689 -0.0702358 0)
(-7.47411 -0.328237 0)
(-6.77802 -0.638018 0)
(-5.82752 -0.55865 2.25785e-17)
(-6.19446 0.0776199 2.2192e-17)
(-8.69828 0.368183 0)
(-9.05259 -0.500749 0)
(-6.08043 -1.45553 0)
(-3.32867 -1.16258 2.19521e-17)
(-1.53299 -0.316557 0)
(-2.23344 0.0617076 0)
(-2.71716 -0.283542 0)
(-2.38284 -0.395572 0)
(-1.24348 -0.708657 -2.07666e-17)
(0.487157 -0.711055 0)
(1.92012 -0.513102 0)
(2.77354 -0.331021 2.02735e-17)
(3.32513 -0.238712 -2.01187e-17)
(3.82767 -0.21937 0)
(4.44909 -0.21799 -1.98211e-17)
(5.0659 -0.211899 0)
(5.6189 -0.193859 1.95634e-17)
(6.02113 -0.12804 0)
(6.39366 -0.0691222 0)
(6.64564 -0.0232145 0)
(6.9358 -0.0168467 0)
(7.15624 -0.0160226 0)
(7.47341 -0.108047 -3.76341e-17)
(7.65848 -0.136741 -3.73587e-17)
(8.00573 -0.128748 0)
(8.38859 -0.224271 0)
(8.78045 -0.173307 0)
(9.29373 -0.243843 3.61368e-17)
(9.74996 -0.26815 0)
(10.4202 -0.31029 0)
(10.8996 -0.292809 0)
(11.5685 -0.36982 3.5015e-17)
(12.1066 -0.437558 -3.47894e-17)
(12.785 -0.435448 0)
(13.2722 -0.328017 0)
(14.1213 -0.532852 -3.39656e-17)
(14.5255 -0.515895 -3.38159e-17)
(15.4302 -0.506718 0)
(15.1682 -0.3218 0)
(15.2941 -0.314415 3.30443e-17)
(15.5242 -0.396599 -3.26752e-17)
(15.6039 -0.466296 0)
(17.3779 -0.581538 0)
(18.5262 -0.539994 -3.18764e-17)
(20.2657 -0.798112 0)
(21.0718 -0.655941 0)
(21.3266 -0.752692 -3.1417e-17)
(21.8929 -0.888478 0)
(21.7644 -0.764508 -3.06091e-17)
(21.8986 -0.643962 0)
(21.9831 -0.640208 0)
(21.445 -0.571007 0)
(20.579 -0.704417 2.96817e-17)
(19.411 -0.782097 0)
(17.8398 -0.623221 0)
(15.787 -0.70692 0)
(13.9821 -0.901436 0)
(12.5819 -1.01078 0)
(11.2619 -1.06658 0)
(9.97506 -1.02914 2.72675e-17)
(8.16266 -0.95751 2.75858e-17)
(4.85189 -0.610362 0)
(0.091455 -0.188586 0)
(-4.36597 -0.131828 0)
(-7.1035 -0.511873 -2.57999e-17)
(-9.37516 -0.778783 0)
(-9.38616 -1.29686 5.10767e-17)
(-9.07926 -1.22081 -5.22536e-17)
(-8.99958 -0.884214 -5.26784e-17)
(-10.8034 -1.17249 5.33246e-17)
(-13.2314 -0.966685 -5.21082e-17)
(-13.0083 -0.790727 5.2099e-17)
(-13.7615 -0.960875 0)
(0.0974992 0.0327285 0)
(0.176848 0.185459 0)
(0.270658 0.166838 -2.26747e-17)
(0.380259 0.114621 0)
(0.506222 0.0751115 2.24129e-17)
(0.620139 0.0466746 2.22653e-17)
(0.752877 0.0305368 1.10723e-17)
(0.892965 0.0220382 1.09696e-17)
(1.05157 0.0334844 0)
(1.201 0.0751523 1.08031e-17)
(1.35501 0.126251 0)
(1.51336 0.159217 0)
(1.64565 0.155757 -2.12083e-17)
(1.72769 0.127266 -1.05191e-17)
(1.76928 0.0861788 2.08653e-17)
(1.77436 0.119246 2.06538e-17)
(1.76034 0.225386 1.02272e-17)
(1.72851 0.34157 0)
(1.68954 0.425763 0)
(1.64763 0.461965 0)
(1.606 0.455866 1.00243e-17)
(1.54946 0.373255 0)
(1.47057 0.270573 -2.96891e-17)
(1.33307 0.227517 0)
(1.10825 0.28149 0)
(0.867316 0.394909 -9.60609e-18)
(0.630203 0.487764 0)
(0.407594 0.507432 9.48967e-18)
(0.223986 0.461973 1.88778e-17)
(0.0908231 0.405177 -9.37386e-18)
(0.00426535 0.331645 0)
(-0.0325468 0.254097 0)
(-0.0452922 0.170519 0)
(-0.0169168 0.093857 1.8306e-17)
(0.053691 0.0194889 1.81979e-17)
(0.158088 -0.0754944 9.03881e-18)
(0.288167 -0.179465 0)
(0.476268 -0.282917 -1.78785e-17)
(0.73374 -0.418706 0)
(1.05457 -0.577189 1.76786e-17)
(1.4546 -0.765024 0)
(1.93972 -0.974652 0)
(2.46546 -1.17946 -1.73601e-17)
(3.03031 -1.30234 0)
(3.61208 -1.35783 -5.13841e-17)
(4.19579 -1.36733 1.69982e-17)
(4.82393 -1.34539 0)
(5.4705 -1.31346 1.67951e-17)
(6.07325 -1.34681 1.67346e-17)
(6.65484 -1.40192 0)
(7.28582 -1.28221 0)
(7.86996 -1.17003 0)
(8.43811 -1.15865 0)
(8.78734 -1.3186 0)
(9.36396 -1.49196 -1.61989e-17)
(9.86665 -1.52256 -3.21401e-17)
(10.4484 -1.47489 1.59575e-17)
(10.7732 -1.354 0)
(11.0035 -1.28632 -3.16851e-17)
(11.1041 -1.24066 1.57598e-17)
(11.196 -1.16994 0)
(11.3551 -1.1088 1.55288e-17)
(11.6261 -1.06984 0)
(11.8682 -1.0106 0)
(12.1281 -1.02976 3.01709e-17)
(12.3818 -1.05117 -1.4978e-17)
(12.6389 -1.00529 2.98148e-17)
(12.8377 -0.919539 -2.9678e-17)
(12.9481 -0.780551 -1.47629e-17)
(12.9857 -0.643639 0)
(12.9904 -0.56695 -1.45548e-17)
(12.9198 -0.633879 0)
(12.8036 -0.908409 0)
(12.9253 -1.37979 0)
(13.1267 -1.53936 -1.41236e-17)
(13.2272 -1.44352 0)
(13.3635 -1.54773 -2.80061e-17)
(13.7006 -1.81789 4.16439e-17)
(14.4131 -1.5075 1.37622e-17)
(15.2366 -0.572922 0)
(15.3267 0.359429 1.36948e-17)
(14.4857 0.358773 0)
(13.5574 -0.686688 2.70973e-17)
(13.2414 -1.91526 0)
(13.4714 -2.42713 2.65198e-17)
(13.8838 -2.41401 -5.21582e-17)
(14.1454 -2.29796 -2.57259e-17)
(13.3256 -1.61731 0)
(11.0819 -0.341583 0)
(8.22004 0.784731 0)
(5.51114 1.55174 2.51499e-17)
(3.18247 1.89345 0)
(1.224 1.81175 -2.46403e-17)
(-0.563406 1.55573 0)
(-2.16642 1.2165 7.27542e-17)
(-3.60228 0.875091 2.40508e-17)
(-4.8721 0.635694 2.38481e-17)
(-6.03316 0.358541 0)
(-6.86476 0.0650629 0)
(-7.39602 -0.277064 0)
(-7.7529 -0.526773 0)
(-8.29545 -0.731286 0)
(-8.66005 -1.25753 4.70418e-17)
(-8.33595 -2.26858 4.72507e-17)
(-7.19692 -2.88591 0)
(-6.28894 -1.77933 -2.2907e-17)
(-6.95779 0.700334 -2.20342e-17)
(-9.86266 0.597494 0)
(-9.82935 -2.7946 -4.70626e-17)
(-6.62406 -5.54832 0)
(-4.58319 -4.53762 2.25366e-17)
(-1.77721 -1.83356 0)
(-1.58866 -0.00447227 0)
(-2.14827 -1.06779 -4.18035e-17)
(-1.84883 -1.55018 0)
(-0.480642 -2.69841 2.10963e-17)
(1.46621 -2.78602 0)
(3.43318 -2.07778 0)
(4.56336 -1.46397 2.02026e-17)
(5.14589 -1.18825 2.0057e-17)
(5.69147 -1.2341 0)
(6.49794 -1.2987 -1.9624e-17)
(7.41492 -1.14342 0)
(8.38779 -0.934118 1.92149e-17)
(9.04537 -0.81521 3.82557e-17)
(9.57976 -0.79579 0)
(9.88356 -0.702948 0)
(10.4682 -0.673085 0)
(10.7658 -0.587535 0)
(11.1717 -0.541544 3.61217e-17)
(11.4502 -0.531771 1.08173e-16)
(11.8014 -0.616164 0)
(12.0769 -0.702688 0)
(12.3744 -0.674934 0)
(12.6699 -0.83378 -3.46615e-17)
(12.9047 -0.91979 0)
(13.4685 -1.02992 0)
(13.5597 -1.08306 6.69706e-17)
(14.0752 -1.17199 3.30873e-17)
(14.4452 -0.970269 3.28039e-17)
(15.1897 -1.33994 0)
(14.8885 -1.36153 0)
(15.9339 -1.41556 3.19384e-17)
(16.1109 -1.28588 -3.21506e-17)
(16.8638 -1.2771 0)
(15.3402 -0.733161 0)
(14.8807 -1.36955 -3.23856e-17)
(14.8469 -1.23236 9.40277e-17)
(14.7332 -2.11564 0)
(17.1092 -2.97936 0)
(18.4705 -2.6682 3.02405e-17)
(21.7788 -3.10363 0)
(23.2374 -2.10762 5.92662e-17)
(23.1278 -2.096 -2.94395e-17)
(22.957 -2.04716 0)
(21.3759 -1.91002 2.80053e-17)
(20.6547 -2.31632 5.45218e-17)
(20.9003 -2.57562 0)
(20.6782 -2.51289 0)
(20.1736 -2.22466 -2.66662e-17)
(19.011 -2.40137 0)
(17.2221 -2.3429 5.19772e-17)
(15.3503 -2.42843 0)
(13.7681 -3.00011 0)
(12.3932 -3.50629 0)
(11.019 -3.58842 0)
(9.52669 -3.42206 -2.38692e-17)
(7.04737 -2.59521 -2.44805e-17)
(3.31704 -1.51875 0)
(-1.42892 -1.34315 0)
(-5.0882 -2.24036 0)
(-6.83467 -3.30609 2.20546e-17)
(-8.74222 -3.77658 0)
(-7.74188 -4.7241 -4.49168e-17)
(-8.20224 -4.86115 4.82611e-17)
(-6.78294 -3.59414 4.63922e-17)
(-9.72267 -2.57301 4.80421e-17)
(-14.2463 -3.03885 4.81302e-17)
(-14.1764 -3.90888 4.84868e-17)
(-10.9439 -3.62386 0)
(0.119847 0.0250158 0)
(0.206754 0.254228 0)
(0.295289 0.207354 2.26994e-17)
(0.389598 0.138818 2.25873e-17)
(0.547375 0.116921 -2.23936e-17)
(0.696162 0.104132 -2.2223e-17)
(0.850821 0.0541462 3.53792e-20)
(1.0186 -0.00231012 0)
(1.21076 -0.0263879 0)
(1.3765 -0.0257881 0)
(1.4702 -0.0668962 0)
(1.48454 -0.0209961 0)
(1.50611 0.189041 6.22785e-17)
(1.49117 0.377 0)
(1.43758 0.549801 -2.05638e-17)
(1.38345 0.662635 -2.05867e-17)
(1.34708 0.722008 0)
(1.31311 0.740398 0)
(1.24518 0.708615 0)
(1.15991 0.683426 0)
(0.98392 0.685372 -1.99108e-17)
(0.6717 0.825091 0)
(0.239516 1.0281 1.95643e-17)
(-0.241111 1.21389 0)
(-0.696886 1.28937 0)
(-1.06044 1.24218 0)
(-1.30921 1.13254 3.84285e-17)
(-1.49113 0.982149 0)
(-1.59667 0.80875 -1.89654e-17)
(-1.63764 0.643145 3.77996e-17)
(-1.65343 0.483497 0)
(-1.63455 0.321608 0)
(-1.57102 0.172509 0)
(-1.47908 0.020546 -1.84258e-17)
(-1.38121 -0.148626 -1.83145e-17)
(-1.22925 -0.322246 0)
(-1.00889 -0.523647 0)
(-0.741311 -0.750539 3.60757e-17)
(-0.40576 -1.02607 3.59038e-17)
(-0.0129635 -1.33882 -3.57391e-17)
(0.401507 -1.68184 0)
(0.863686 -2.01336 0)
(1.39394 -2.29037 0)
(1.93799 -2.48726 0)
(2.53677 -2.60557 3.45892e-17)
(3.23277 -2.71677 3.4398e-17)
(3.95395 -2.74565 -3.41722e-17)
(4.6661 -2.77698 0)
(5.39194 -2.80433 0)
(6.02446 -2.82097 0)
(6.67788 -2.71482 0)
(7.26396 -2.63973 3.2972e-17)
(8.09616 -2.5194 0)
(8.73281 -2.59076 0)
(9.59249 -2.68558 3.22506e-17)
(10.1671 -2.64196 3.20828e-17)
(10.8508 -2.54878 0)
(11.334 -2.09658 -6.3221e-17)
(11.783 -1.57576 3.13767e-17)
(12.1456 -1.36718 -3.12268e-17)
(12.5422 -1.49019 0)
(12.885 -1.77889 0)
(13.1787 -2.02784 0)
(13.38 -2.08314 0)
(13.5712 -2.06916 -3.04437e-17)
(13.8633 -2.04671 -6.02927e-17)
(14.2822 -1.90672 -2.98151e-17)
(14.7654 -1.73126 2.95306e-17)
(15.1525 -1.4554 0)
(15.4521 -1.23283 -5.84063e-17)
(15.7272 -1.18437 -5.80861e-17)
(15.9605 -1.17813 -5.77474e-17)
(15.9556 -1.1672 5.74365e-17)
(16.1376 -1.62664 0)
(16.0411 -2.01701 8.48215e-17)
(15.604 -1.91262 0)
(15.6961 -2.07708 -2.81044e-17)
(15.8037 -2.51419 -2.79342e-17)
(15.3617 -2.2578 0)
(15.4968 -1.68469 0)
(16.3008 -0.964899 -5.42969e-17)
(16.4297 -0.163462 0)
(15.9358 -0.343114 -5.38942e-17)
(15.6866 -1.96084 0)
(15.3835 -2.93805 5.30516e-17)
(14.0278 -2.22987 1.04953e-16)
(11.4071 -0.473407 0)
(8.58645 1.0076 0)
(6.10403 1.96693 0)
(3.88604 2.5067 5.06343e-17)
(2.05761 2.74746 0)
(0.592389 2.63957 4.97473e-17)
(-0.611268 2.33213 0)
(-1.69754 1.98408 0)
(-2.71073 1.4852 -9.8008e-17)
(-3.71345 1.0809 0)
(-4.85923 0.650136 -4.85881e-17)
(-5.8854 0.0748477 0)
(-6.48158 -0.58868 -4.84594e-17)
(-6.68937 -1.04128 0)
(-6.78041 -1.18486 0)
(-7.12363 -1.26164 0)
(-7.4498 -2.10988 -1.413e-16)
(-7.23322 -3.78517 -4.70678e-17)
(-6.7295 -4.77573 0)
(-6.67392 -2.87853 0)
(-6.84362 1.04525 0)
(-8.74728 0.960877 0)
(-9.40955 -4.71546 4.67948e-17)
(-6.81038 -8.73855 -9.15863e-17)
(-6.46151 -6.75662 -4.45785e-17)
(-3.92267 -4.6587 8.92626e-17)
(-1.22387 -0.507621 8.48751e-17)
(-1.78276 -1.7314 4.25131e-17)
(-1.12818 -2.56976 0)
(0.222942 -4.64794 8.75073e-17)
(1.86156 -5.0559 0)
(4.10222 -3.86564 -8.46783e-17)
(5.61568 -2.44866 -4.1113e-17)
(6.27203 -1.79542 0)
(6.63629 -1.91954 8.14483e-17)
(7.36509 -2.18115 4.07338e-17)
(8.30995 -2.20231 0)
(9.36221 -2.02994 3.91154e-17)
(10.2236 -1.51244 -1.15029e-16)
(11.0122 -1.17822 0)
(11.3385 -1.08133 0)
(11.7846 -1.10893 0)
(12.3205 -0.970898 0)
(13.1193 -0.921553 -7.34681e-17)
(13.1378 -0.887097 -7.21584e-17)
(13.7692 -0.945656 0)
(14.3082 -1.05801 0)
(14.4139 -1.08478 0)
(14.8856 -1.09542 0)
(14.9892 -1.31867 0)
(15.5865 -1.52861 0)
(15.7805 -1.32886 -6.69556e-17)
(16.2932 -1.82335 1.23773e-19)
(15.9291 -1.97793 0)
(16.8484 -1.89417 0)
(16.5877 -1.64592 -6.29799e-17)
(17.189 -2.55571 0)
(17.4638 -2.37372 6.25681e-17)
(18.3207 -1.62033 6.11775e-17)
(16.2253 -0.508348 0)
(15.6617 -1.5948 0)
(13.5529 -2.08273 -6.53284e-17)
(14.2685 -3.60866 -1.41386e-16)
(15.5213 -5.13822 0)
(16.328 -4.79988 0)
(21.1614 -6.09713 0)
(23.9213 -3.59297 -5.84275e-17)
(24.3549 -3.23477 5.69829e-17)
(23.5525 -2.89916 0)
(21.4685 -2.50418 1.08517e-16)
(20.5439 -3.6264 5.56942e-17)
(20.2948 -3.97953 -1.08386e-16)
(19.8675 -4.12087 0)
(19.7944 -4.10011 0)
(19.1592 -3.90015 -1.00268e-16)
(17.531 -3.79646 -4.94544e-17)
(15.6678 -4.25091 0)
(14.3515 -5.11764 0)
(13.373 -5.6906 0)
(11.6827 -5.66241 0)
(9.84782 -5.06093 -9.13776e-17)
(6.83339 -4.01043 0)
(2.45979 -2.88353 0)
(-1.54209 -2.52387 0)
(-4.75879 -3.44149 0)
(-6.34703 -4.97512 0)
(-8.05994 -6.01801 0)
(-6.70777 -7.82652 -9.32099e-17)
(-8.46151 -7.81742 0)
(-6.47153 -5.60792 0)
(-11.2059 -3.67991 -1.8594e-16)
(-16.1994 -3.89072 9.60242e-17)
(-19.9718 -7.80336 -9.7845e-17)
(-11.8449 -8.11685 9.51281e-17)
(0.125569 0.0393822 0)
(0.187424 0.470558 -4.59711e-17)
(0.309878 0.453425 0)
(0.499632 0.23932 -2.25685e-17)
(0.696909 0.0836869 0)
(0.854467 0.0577023 0)
(1.00612 0.0254054 2.21094e-17)
(1.11758 -0.0975343 0)
(1.19512 -0.0888164 0)
(1.23159 0.145092 0)
(1.17273 0.483186 0)
(1.11091 0.658026 0)
(1.0948 0.705982 -8.45935e-17)
(1.0775 0.812321 -4.21904e-17)
(1.05066 0.833108 4.19544e-17)
(0.979616 0.852159 0)
(0.855293 0.903918 0)
(0.671919 1.04541 0)
(0.344927 1.26113 0)
(-0.139512 1.52176 0)
(-0.706385 1.83612 -3.97259e-17)
(-1.29827 2.04531 -3.94675e-17)
(-1.8133 2.16125 3.93741e-17)
(-2.20095 2.13107 -3.92676e-17)
(-2.47075 1.9342 0)
(-2.66852 1.70464 0)
(-2.74797 1.45507 -3.87593e-17)
(-2.76811 1.1863 0)
(-2.73815 0.925553 0)
(-2.68644 0.684631 -3.81699e-17)
(-2.58187 0.462315 -3.8065e-17)
(-2.45926 0.255269 -3.78304e-17)
(-2.32822 0.0605578 0)
(-2.20476 -0.161643 0)
(-2.04203 -0.41885 3.71856e-17)
(-1.8336 -0.674885 0)
(-1.59475 -0.966702 0)
(-1.28495 -1.28128 -3.6546e-17)
(-0.913704 -1.61606 3.64797e-17)
(-0.483266 -1.98505 -3.62985e-17)
(-0.0106874 -2.36102 0)
(0.489202 -2.72996 0)
(1.0282 -3.05288 -7.1307e-17)
(1.62704 -3.35708 0)
(2.22434 -3.59082 -7.03988e-17)
(2.86708 -3.81292 -1.04785e-16)
(3.56205 -3.92495 1.03981e-16)
(4.2479 -3.89487 -6.88151e-17)
(4.93689 -3.83016 0)
(5.62033 -3.77547 0)
(6.2658 -3.7096 -6.74173e-17)
(6.86619 -3.76883 -3.34276e-17)
(7.46837 -3.92362 0)
(8.07326 -4.19194 0)
(8.47752 -4.15339 -3.25171e-17)
(8.98415 -3.93571 -6.45097e-17)
(9.40981 -3.83422 0)
(10.068 -3.42194 6.35388e-17)
(10.8328 -3.1224 -6.31656e-17)
(11.6174 -3.04268 6.28786e-17)
(12.2939 -3.04781 0)
(12.8295 -2.92322 0)
(13.2335 -2.69176 0)
(13.566 -2.5411 0)
(13.9726 -2.65125 0)
(14.5423 -2.94259 6.03084e-17)
(15.304 -3.07445 0)
(16.1786 -2.99085 0)
(17.0153 -2.73311 0)
(17.7126 -2.31737 1.17615e-16)
(18.2264 -2.21039 5.84298e-17)
(18.592 -2.09981 5.80067e-17)
(18.6025 -1.9934 -1.1532e-16)
(18.738 -2.39033 5.72185e-17)
(18.8413 -2.47614 -5.66672e-17)
(18.3143 -2.08355 0)
(18.1545 -2.67272 5.62043e-17)
(18.0881 -2.97842 0)
(17.6488 -2.60744 0)
(17.6556 -3.15084 0)
(17.5251 -2.53574 1.08291e-16)
(16.6902 -0.556624 -5.3824e-17)
(16.0576 -1.01656 -5.38512e-17)
(15.1882 -2.64493 -1.06418e-16)
(13.2866 -1.95441 -1.57667e-16)
(10.705 -0.0554217 -5.20488e-17)
(8.05668 1.4234 0)
(5.60255 2.30863 -1.02173e-16)
(3.56952 2.86654 0)
(1.95284 3.06397 -1.51996e-16)
(0.698558 2.92785 0)
(-0.140747 2.53697 -1.49985e-16)
(-0.906324 2.08807 0)
(-1.72474 1.63882 0)
(-2.47985 1.20035 -4.9177e-17)
(-3.34666 0.881636 0)
(-4.44042 0.553786 4.88199e-17)
(-5.41902 -0.174237 9.78202e-17)
(-6.01503 -1.2376 4.89672e-17)
(-6.36828 -2.05859 9.71281e-17)
(-6.72308 -2.16672 -9.57097e-17)
(-6.99869 -2.16842 -9.45033e-17)
(-6.94365 -3.07948 1.87108e-16)
(-6.77416 -4.73399 0)
(-7.16271 -5.36403 0)
(-7.68707 -3.25165 9.04129e-17)
(-6.59557 0.403766 -9.08719e-17)
(-5.54344 1.0505 0)
(-7.21061 -5.29528 0)
(-5.58196 -10.0268 8.93976e-17)
(-7.13803 -8.16022 0)
(-5.57549 -8.41341 1.48457e-20)
(-1.66368 -2.29368 2.5141e-20)
(-1.24332 -2.99571 8.55128e-17)
(-0.00331725 -3.9702 0)
(1.38289 -6.35058 -8.69016e-17)
(2.47796 -7.14221 0)
(4.39131 -5.9543 8.69624e-17)
(5.84956 -3.94248 0)
(6.79305 -2.72811 0)
(7.47795 -2.8 -8.07239e-17)
(8.40662 -3.3713 -8.02772e-17)
(9.15258 -3.28059 0)
(10.1047 -2.96079 -8.08499e-17)
(10.9234 -2.47685 1.58652e-16)
(11.8952 -2.11806 0)
(12.5727 -1.75495 0)
(13.0463 -1.88272 0)
(12.9675 -2.13095 0)
(14.0481 -1.71242 7.40351e-17)
(14.4447 -1.49376 -1.46936e-16)
(14.4097 -1.90077 0)
(15.2324 -1.65134 0)
(15.5688 -1.55798 0)
(16.1131 -2.0513 0)
(16.4587 -1.92291 0)
(16.7676 -2.36902 0)
(16.8396 -2.41258 0)
(18.3088 -2.44097 6.72244e-17)
(17.6773 -2.16287 0)
(17.8718 -2.91537 0)
(17.9297 -2.72792 6.25067e-17)
(18.924 -3.1699 0)