/*--------------------------------*- C++ -*----------------------------------*\
| =========                 |                                                 |
| \\      /  F ield         | OpenFOAM: The Open Source CFD Toolbox           |
|  \\    /   O peration     | Version:  dev                                   |
|   \\  /    A nd           | Web:      http://www.openfoam.org               |
|    \\/     M anipulation  |                                                 |
\*---------------------------------------------------------------------------*/
FoamFile
{
    version     2.0;
    format      ascii;
    class       volVectorField;
    object      UMean;
    location    "9.153";
}
// * * * * * * * * * * * * * * * * * * * * * * * * * * * * * * * * * * * * * //

dimensions      [0 1 -1 0 0 0 0];

internalField   nonuniform List<vector> 
12225
(
(7.0036 0.43027 0)
(4.43875 0.192547 0)
(2.55674 0.031161 0)
(2.51076 -0.016657 0)
(1.38446 0.0193681 0)
(2.26719 -0.0342783 0)
(0.989582 0.0489828 0)
(2.18239 -0.0591672 0)
(0.797587 0.0716445 0)
(2.29154 -0.0978322 0)
(0.688848 0.0993479 0)
(2.74336 -0.138625 0)
(0.948145 0.102595 0)
(3.39697 -0.172144 0)
(3.53106 -0.168499 0)
(4.69638 0.0499548 0)
(14.8445 -2.43392 0)
(7.11957 5.13363 0)
(9.54624 0.981582 0)
(9.5433 0.860849 0)
(6.6868 0.466297 0)
(7.59022 0.214528 0)
(4.09064 0.140332 0)
(6.84283 0.0107958 0)
(2.66535 0.132666 0)
(6.68875 -0.0903267 0)
(1.82308 0.141855 0)
(7.03833 -0.165065 0)
(1.26122 0.123915 0)
(8.12056 -0.414363 0)
(1.38528 0.252308 0)
(9.95439 -1.44213 0)
(3.43426 0.271529 0)
(12.3893 -4.06805 0)
(10.4276 -1.92792 0)
(7.77627 0.485028 0)
(9.1185 0.763527 0)
(12.1667 0.951363 0)
(8.32969 0.624013 0)
(11.8319 0.443354 0)
(6.2263 0.310359 0)
(11.4127 0.206409 0)
(4.58332 0.221579 0)
(11.3144 -0.0195746 0)
(3.87509 0.193037 0)
(11.3756 -0.277833 0)
(4.35147 0.187296 0)
(11.2517 -0.722902 0)
(5.72949 0.175781 0)
(11.089 -1.49127 0)
(7.21571 0.052142 0)
(12.1163 -3.86629 0)
(6.93301 0.35047 0)
(9.35277 -2.39086 0)
(7.21921 0.524989 0)
(13.9927 0.960922 0)
(7.93006 0.609536 0)
(14.2951 0.553747 0)
(7.47464 0.420992 0)
(14.1161 0.270938 0)
(7.17607 0.396789 0)
(13.7382 -0.145205 0)
(7.25711 0.459691 0)
(13.2695 -0.69873 0)
(7.65987 0.576835 0)
(12.8746 -1.42263 0)
(8.2678 0.699314 0)
(12.6511 -2.31309 0)
(9.02525 0.0413539 0)
(11.8872 -3.6368 0)
(8.68748 -1.43281 0)
(8.3638 0.681369 0)
(6.4242 0.570071 0)
(14.0108 0.565847 0)
(8.47357 0.674571 0)
(13.9579 0.28444 0)
(9.16932 0.636784 0)
(13.6434 -0.00265471 0)
(9.51701 0.657932 0)
(13.2138 -0.388744 0)
(9.59189 0.734443 0)
(12.813 -0.871293 0)
(9.44544 0.876923 0)
(12.5828 -1.52133 0)
(9.14978 1.08984 0)
(12.571 -2.48996 0)
(8.82768 1.13182 0)
(11.6172 -5.02767 0)
(8.54283 1.26583 0)
(8.72208 0.128919 0)
(7.95649 0.616882 0)
(11.8031 0.152377 0)
(9.5051 0.654796 0)
(11.7394 0.0501758 0)
(10.0881 0.693951 0)
(11.6004 -0.165706 0)
(10.3204 0.725852 0)
(11.4762 -0.45754 0)
(10.3003 0.783 0)
(11.3896 -0.853549 0)
(10.0325 0.831964 0)
(11.3555 -1.4 0)
(9.49191 0.801113 0)
(11.4185 -2.13836 0)
(8.79997 0.725553 0)
(10.9988 -3.92039 0)
(7.73295 1.33511 0)
(9.48937 -0.217121 0)
(9.344 0.812721 0)
(10.439 -0.265977 0)
(10.1407 0.930574 0)
(10.5539 -0.304581 0)
(10.3987 1.02001 0)
(10.5819 -0.502911 0)
(10.5202 1.0755 0)
(10.6253 -0.781127 0)
(10.5635 1.15345 0)
(10.6717 -1.15758 0)
(10.5154 1.23515 0)
(10.6999 -1.63542 0)
(10.3669 1.26105 0)
(10.6881 -2.32699 0)
(10.0528 1.27094 0)
(10.3759 -3.95412 0)
(8.2988 2.01901 0)
(9.69718 -0.951745 0)
(9.84898 0.701163 0)
(10.1561 -0.326014 0)
(10.4065 0.855102 0)
(10.3899 -0.349934 0)
(10.5803 0.906874 0)
(10.4706 -0.493998 0)
(10.7016 0.892969 0)
(10.552 -0.686252 0)
(10.8054 0.872696 0)
(10.6438 -0.935152 0)
(10.8811 0.823797 0)
(10.7353 -1.23258 0)
(10.9082 0.671265 0)
(10.7537 -1.67246 0)
(10.7234 0.519533 0)
(10.4922 -2.47392 0)
(8.89387 0.980703 0)
(9.96377 -0.484028 0)
(10.0856 0.802279 0)
(10.0199 -0.583423 0)
(10.5354 1.02149 0)
(10.3108 -0.6045 0)
(10.675 1.07501 0)
(10.4401 -0.724947 0)
(10.7775 1.04821 0)
(10.5709 -0.889989 0)
(10.8572 1.00365 0)
(10.7114 -1.11769 0)
(10.8988 0.921104 0)
(10.8318 -1.39486 0)
(10.8741 0.734766 0)
(10.8222 -1.76086 0)
(10.6025 0.505661 0)
(10.5206 -2.06888 0)
(9.35019 0.586185 0)
(10.0235 -0.391681 0)
(10.139 0.648655 0)
(10.0424 -0.511951 0)
(10.5102 0.87804 0)
(10.3335 -0.456507 0)
(10.6213 0.869206 0)
(10.482 -0.493642 0)
(10.6978 0.778238 0)
(10.629 -0.572124 0)
(10.7341 0.657876 0)
(10.7635 -0.695322 0)
(10.7179 0.495525 0)
(10.8402 -0.844981 0)
(10.6183 0.264038 0)
(10.7655 -1.03221 0)
(10.2824 0.0701681 0)
(10.4794 -1.05297 0)
(9.62332 0.123967 0)
(10.2069 -0.0329813 0)
(10.1409 0.700023 0)
(10.0707 -0.691898 0)
(10.4524 0.902523 0)
(10.2986 -0.61892 0)
(10.5374 0.847631 0)
(10.4302 -0.645517 0)
(10.6032 0.735271 0)
(10.5606 -0.707366 0)
(10.6272 0.586776 0)
(10.6604 -0.791226 0)
(10.6091 0.383153 0)
(10.6812 -0.869299 0)
(10.5269 0.117102 0)
(10.571 -0.922179 0)
(10.2915 -0.113747 0)
(10.3609 -0.765185 0)
(10.0198 -0.154111 0)
(10.2455 -0.125389 0)
(10.0968 0.468008 0)
(10.1509 -0.49508 0)
(10.3536 0.595737 0)
(10.2934 -0.374595 0)
(10.4203 0.527507 0)
(10.4093 -0.354753 0)
(10.4848 0.418852 0)
(10.5239 -0.374144 0)
(10.5131 0.275704 0)
(10.5993 -0.414622 0)
(10.5157 0.0932977 0)
(10.597 -0.461642 0)
(10.4767 -0.103327 0)
(10.4995 -0.500141 0)
(10.3571 -0.232147 0)
(10.3646 -0.405664 0)
(10.2659 -0.219884 0)
(10.3739 -0.110306 0)
(10.05 0.411014 0)
(10.1754 -0.487231 0)
(10.2548 0.437199 0)
(10.2379 -0.367475 0)
(10.3087 0.367353 0)
(10.3306 -0.345543 0)
(10.3792 0.250849 0)
(10.4245 -0.355259 0)
(10.4226 0.0994814 0)
(10.4822 -0.37487 0)
(10.4462 -0.079692 0)
(10.4817 -0.403434 0)
(10.4329 -0.246668 0)
(10.4261 -0.431297 0)
(10.3772 -0.339211 0)
(10.3686 -0.392695 0)
(10.3571 -0.32058 0)
(10.4223 -0.27658 0)
(10.0154 0.199631 0)
(10.1908 -0.285758 0)
(10.1932 0.167317 0)
(10.2052 -0.17926 0)
(10.2293 0.131656 0)
(10.2792 -0.171325 0)
(10.3062 0.0472381 0)
(10.3626 -0.197748 0)
(10.366 -0.0586973 0)
(10.4142 -0.235723 0)
(10.4055 -0.176009 0)
(10.4267 -0.286443 0)
(10.4123 -0.275005 0)
(10.4112 -0.331679 0)
(10.3995 -0.324152 0)
(10.4066 -0.337223 0)
(10.4109 -0.316061 0)
(10.4697 -0.304875 0)
(9.99661 0.0971304 0)
(10.1444 -0.185841 0)
(10.1463 0.0216714 0)
(10.1501 -0.133636 0)
(10.1622 -0.00861158 0)
(10.2089 -0.146132 0)
(10.241 -0.076939 0)
(10.2919 -0.186713 0)
(10.311 -0.159378 0)
(10.3486 -0.237956 0)
(10.3575 -0.244786 0)
(10.379 -0.298316 0)
(10.3805 -0.316294 0)
(10.3938 -0.350093 0)
(10.3958 -0.361043 0)
(10.4184 -0.380221 0)
(10.4238 -0.381087 0)
(10.4788 -0.387279 0)
(9.99365 0.0154955 0)
(10.106 -0.0857857 0)
(10.1088 -0.0443078 0)
(10.1138 -0.0932381 0)
(10.1188 -0.0748761 0)
(10.1674 -0.118929 0)
(10.1979 -0.1206 0)
(10.2518 -0.163833 0)
(10.274 -0.180571 0)
(10.3153 -0.219166 0)
(10.3278 -0.243942 0)
(10.3596 -0.277836 0)
(10.3658 -0.301356 0)
(10.3938 -0.329028 0)
(10.3994 -0.347021 0)
(10.4327 -0.370835 0)
(10.4354 -0.383828 0)
(10.4882 -0.397049 0)
(9.99176 0.00476472 0)
(10.0636 -0.0251525 0)
(10.0567 -0.0349047 0)
(10.0678 -0.0664609 0)
(10.0778 -0.0757052 0)
(10.128 -0.0997579 0)
(10.1573 -0.115935 0)
(10.2109 -0.144701 0)
(10.2337 -0.168975 0)
(10.2781 -0.199579 0)
(10.2919 -0.226574 0)
(10.3299 -0.257053 0)
(10.3383 -0.283339 0)
(10.373 -0.312079 0)
(10.3787 -0.336834 0)
(10.4151 -0.365571 0)
(10.4145 -0.388091 0)
(10.4633 -0.407509 0)
(9.99158 0.0141429 0)
(10.0467 0.016116 0)
(10.0398 -0.010617 0)
(10.0576 -0.0377223 0)
(10.0748 -0.056572 0)
(10.1255 -0.0778913 0)
(10.1554 -0.0988988 0)
(10.2071 -0.123855 0)
(10.2311 -0.149022 0)
(10.2753 -0.176659 0)
(10.2911 -0.203461 0)
(10.3292 -0.232192 0)
(10.3394 -0.259401 0)
(10.3736 -0.288348 0)
(10.38 -0.315676 0)
(10.414 -0.345747 0)
(10.4131 -0.371608 0)
(10.4566 -0.393424 0)
(9.99171 0.0329082 0)
(10.0502 0.0495904 0)
(10.0566 0.00988981 0)
(10.0799 -0.0181162 0)
(10.1007 -0.0402722 0)
(10.1506 -0.0615127 0)
(10.1819 -0.0836422 0)
(10.2316 -0.106442 0)
(10.2562 -0.130581 0)
(10.2984 -0.155543 0)
(10.315 -0.181107 0)
(10.3507 -0.207356 0)
(10.3614 -0.233591 0)
(10.3926 -0.260443 0)
(10.399 -0.287062 0)
(10.4287 -0.315318 0)
(10.428 -0.341051 0)
(10.4652 -0.362825 0)
(9.98992 0.0406721 0)
(10.0547 0.052585 0)
(10.0828 -0.00639234 0)
(10.1167 -0.0407167 0)
(10.1419 -0.064155 0)
(10.1903 -0.0823036 0)
(10.2223 -0.102128 0)
(10.269 -0.12104 0)
(10.2935 -0.142776 0)
(10.332 -0.16402 0)
(10.3483 -0.18743 0)
(10.3801 -0.210116 0)
(10.3904 -0.234421 0)
(10.4173 -0.257939 0)
(10.4228 -0.282804 0)
(10.4473 -0.307837 0)
(10.4461 -0.332466 0)
(10.4767 -0.352854 0)
(9.99049 0.0315501 0)
(10.0684 0.0219409 0)
(10.1261 -0.0558017 0)
(10.1769 -0.0968084 0)
(10.2125 -0.119827 0)
(10.2609 -0.132786 0)
(10.2937 -0.147816 0)
(10.336 -0.161696 0)
(10.3601 -0.179868 0)
(10.394 -0.196953 0)
(10.4103 -0.217392 0)
(10.4376 -0.236272 0)
(10.4478 -0.258012 0)
(10.4701 -0.278075 0)
(10.4753 -0.30075 0)
(10.4945 -0.322371 0)
(10.4939 -0.345219 0)
(10.5186 -0.363494 0)
(9.99118 0.00983756 0)
(10.092 -0.0297796 0)
(10.1869 -0.120895 0)
(10.2595 -0.162821 0)
(10.3093 -0.181168 0)
(10.359 -0.187196 0)
(10.3929 -0.196067 0)
(10.4304 -0.204397 0)
(10.4542 -0.218133 0)
(10.4837 -0.230768 0)
(10.5001 -0.247623 0)
(10.5232 -0.262647 0)
(10.5337 -0.281348 0)
(10.5517 -0.298029 0)
(10.5572 -0.318078 0)
(10.5718 -0.33641 0)
(10.5723 -0.356983 0)
(10.592 -0.373113 0)
(9.99282 -0.0234148 0)
(10.1275 -0.103677 0)
(10.2671 -0.204982 0)
(10.3665 -0.241636 0)
(10.4319 -0.250842 0)
(10.4835 -0.248416 0)
(10.5183 -0.250921 0)
(10.5517 -0.253715 0)
(10.5753 -0.26299 0)
(10.6011 -0.271345 0)
(10.6181 -0.284671 0)
(10.6378 -0.296285 0)
(10.6486 -0.31209 0)
(10.6631 -0.32584 0)
(10.6691 -0.343367 0)
(10.6801 -0.35881 0)
(10.6813 -0.37712 0)
(10.6968 -0.391259 0)
(9.99043 -0.0716064 0)
(10.1743 -0.20121 0)
(10.3678 -0.305497 0)
(10.5 -0.32789 0)
(10.5804 -0.32258 0)
(10.6343 -0.310202 0)
(10.6689 -0.305576 0)
(10.6996 -0.302565 0)
(10.7226 -0.306697 0)
(10.7459 -0.310572 0)
(10.7624 -0.319887 0)
(10.7793 -0.32803 0)
(10.7894 -0.340558 0)
(10.8005 -0.351331 0)
(10.8054 -0.365918 0)
(10.8123 -0.378472 0)
(10.8121 -0.394026 0)
(10.8221 -0.405972 0)
(9.99199 -0.136387 0)
(10.2447 -0.323053 0)
(10.5026 -0.419044 0)
(10.6711 -0.417657 0)
(10.7627 -0.394187 0)
(10.8174 -0.371111 0)
(10.8493 -0.358937 0)
(10.8771 -0.350576 0)
(10.896 -0.350081 0)
(10.9148 -0.350472 0)
(10.9253 -0.356351 0)
(10.9355 -0.361481 0)
(10.9374 -0.370775 0)
(10.9393 -0.378635 0)
(10.9339 -0.389826 0)
(10.9291 -0.399406 0)
(10.9164 -0.411324 0)
(10.9115 -0.420469 0)
(9.98973 -0.219936 0)
(10.3368 -0.468167 0)
(10.6736 -0.539767 0)
(10.8757 -0.508234 0)
(10.9696 -0.464848 0)
(11.0134 -0.428048 0)
(11.0285 -0.404787 0)
(11.0351 -0.388354 0)
(11.029 -0.381381 0)
(11.0194 -0.376928 0)
(10.9979 -0.378133 0)
(10.9735 -0.379038 0)
(10.9377 -0.383757 0)
(10.8999 -0.387233 0)
(10.8522 -0.393597 0)
(10.8042 -0.39892 0)
(10.7462 -0.405238 0)
(10.6945 -0.410011 0)
(9.9833 -0.332091 0)
(10.4676 -0.642347 0)
(10.8828 -0.667127 0)
(11.0724 -0.602645 0)
(11.1029 -0.537188 0)
(11.0583 -0.483109 0)
(10.9743 -0.444964 0)
(10.8731 -0.4162 0)
(10.7577 -0.397984 0)
(10.635 -0.383245 0)
(10.5035 -0.37486 0)
(10.3666 -0.366301 0)
(10.2242 -0.362418 0)
(10.0775 -0.356966 0)
(9.92876 -0.355821 0)
(9.77721 -0.353229 0)
(9.62607 -0.352932 0)
(9.47618 -0.351095 0)
(10.0025 -0.453665 0)
(10.619 -0.818965 0)
(10.9016 -0.752068 0)
(10.7932 -0.623741 0)
(10.4938 -0.512531 0)
(10.1376 -0.429182 0)
(9.77015 -0.373551 0)
(9.41765 -0.334707 0)
(9.07687 -0.307277 0)
(8.75554 -0.284593 0)
(8.44658 -0.267637 0)
(8.15351 -0.251316 0)
(7.87279 -0.240027 0)
(7.60324 -0.227328 0)
(7.34846 -0.221124 0)
(7.09895 -0.211815 0)
(6.87055 -0.210845 0)
(6.64115 -0.20417 0)
(10.0974 -0.750794 0)
(10.0458 -1.01321 0)
(9.42491 -0.801087 0)
(8.51443 -0.572179 0)
(7.65501 -0.378727 0)
(6.92887 -0.244885 0)
(6.32733 -0.16752 0)
(5.83163 -0.126251 0)
(5.40923 -0.104703 0)
(5.04866 -0.0923223 0)
(4.72859 -0.0849633 0)
(4.44787 -0.0793523 0)
(4.19149 -0.0758104 0)
(3.96261 -0.0718946 0)
(3.75092 -0.0721399 0)
(3.55576 -0.0690876 0)
(3.38355 -0.0802713 0)
(3.21865 -0.0828671 0)
(8.51675 -0.436077 0)
(6.11023 -0.3809 0)
(4.29831 -0.138057 0)
(3.12387 -0.0213905 0)
(2.4811 0.0191311 0)
(2.12049 0.0224705 0)
(1.89627 0.0137126 0)
(1.73497 0.00461292 0)
(1.59895 -0.00157075 0)
(1.47822 -0.00479232 0)
(1.36614 -0.00640564 0)
(1.26399 -0.00671916 0)
(1.16834 -0.00670757 0)
(1.08162 -0.00638956 0)
(0.999591 -0.00665832 0)
(0.919362 -0.00703353 0)
(0.851863 -0.0186099 0)
(0.731347 -0.00613724 0)
(-0.0520742 0.138082 0)
(-0.157253 0.0716582 0)
(-0.207367 0.0166077 0)
(-0.195624 -0.0442386 0)
(-0.118445 -0.0989776 0)
(0.0116778 -0.145033 0)
(0.185691 -0.175602 1.11356e-17)
(0.387421 -0.193593 -1.10606e-17)
(0.605666 -0.198012 0)
(0.82809 -0.192773 -1.09174e-17)
(1.04532 -0.178451 0)
(1.24836 -0.157704 0)
(1.43066 -0.131083 0)
(1.58695 -0.101737 1.06429e-17)
(1.71458 -0.0704942 0)
(1.81076 -0.0384248 0)
(1.87461 -0.00627191 -1.04457e-17)
(1.90685 0.0240029 0)
(1.90915 0.0504806 0)
(1.88357 0.0722149 0)
(1.83379 0.0891857 1.01963e-17)
(1.76239 0.100745 0)
(1.6733 0.108628 1.00743e-17)
(1.56822 0.111542 0)
(1.45178 0.109654 0)
(1.32672 0.108007 9.8956e-18)
(1.19329 0.111304 0)
(1.05073 0.116423 -9.77926e-18)
(0.902239 0.12166 0)
(0.748403 0.126693 9.66437e-18)
(0.590774 0.130677 0)
(0.431626 0.133118 0)
(0.273226 0.134262 0)
(0.116055 0.134031 0)
(-0.0395724 0.131132 0)
(-0.191585 0.126455 -9.32963e-18)
(-0.338337 0.120353 0)
(-0.479417 0.113863 1.84405e-17)
(-0.613389 0.10739 0)
(-0.73984 0.100188 -1.82216e-17)
(-0.857308 0.0931873 0)
(-0.965962 0.0864568 0)
(-1.06624 0.078743 1.78884e-17)
(-1.15767 0.070415 0)
(-1.24089 0.0627206 1.76651e-17)
(-1.31596 0.0554866 -1.75531e-17)
(-1.38238 0.0483907 0)
(-1.44087 0.0421206 -1.73282e-17)
(-1.4925 0.0366402 -1.72151e-17)
(-1.53633 0.0329178 0)
(-1.57253 0.0313517 0)
(-1.60302 0.0313873 0)
(-1.62993 0.0315635 0)
(-1.65423 0.0316054 0)
(-1.67733 0.0324974 1.65281e-17)
(-1.70111 0.0340538 0)
(-1.72693 0.0362907 -1.62989e-17)
(-1.75356 0.0383695 0)
(-1.77977 0.0389976 0)
(-1.80554 0.039577 1.59524e-17)
(-1.83154 0.0413053 0)
(-1.85945 0.0424901 -1.57211e-17)
(-1.88932 0.0441307 0)
(-1.92083 0.0455769 0)
(-1.9535 0.0463321 0)
(-1.98671 0.0474549 1.52555e-17)
(-2.02042 0.0494111 0)
(-2.05473 0.0516789 0)
(-2.08974 0.0540713 1.49058e-17)
(-2.12573 0.0554014 0)
(-2.15992 0.0556463 1.46711e-17)
(-2.19122 0.0563327 0)
(-2.21973 0.0569081 0)
(-2.2443 0.0569045 0)
(-2.26362 0.0563103 -1.42051e-17)
(-2.27708 0.0551002 0)
(-2.28527 0.0543311 0)
(-2.29002 0.0541978 -1.38613e-17)
(-2.29176 0.053145 -1.37478e-17)
(-2.28875 0.0514263 0)
(-2.27922 0.0491308 -1.35226e-17)
(-2.26306 0.0462002 0)
(-2.23989 0.0430424 -2.66022e-17)
(-2.20973 0.0396011 0)
(-2.17313 0.0359127 -2.61667e-17)
(-2.12995 0.032831 0)
(-2.08123 0.0303875 2.57379e-17)
(-2.02783 0.0283985 0)
(-1.96986 0.0269632 0)
(-1.90796 0.0260081 0)
(-1.84365 0.0254362 -2.49009e-17)
(-1.77667 0.0251657 0)
(-1.70862 0.0251014 2.44991e-17)
(-1.63952 0.0256522 0)
(-1.57004 0.026651 -2.41097e-17)
(-1.50215 0.0291121 -2.39212e-17)
(-1.43501 0.0302169 -2.37368e-17)
(-1.36765 0.0312425 0)
(-1.30207 0.0313204 0)
(-1.23713 0.0325087 0)
(-1.17095 0.0332534 0)
(-1.1057 0.0328788 0)
(-1.03551 0.0317514 0)
(-0.966379 0.0331036 0)
(-0.895186 0.0327363 0)
(-0.827785 0.0350674 2.22131e-17)
(-0.760074 0.0355854 2.20608e-17)
(-0.697451 0.0400044 0)
(-0.636728 0.0413336 0)
(-0.580852 0.040933 0)
(-0.512994 0.0382932 2.14803e-17)
(-0.450449 0.0424935 0)
(-0.381382 0.040749 0)
(-0.316402 0.0436641 0)
(-0.245454 0.0406233 0)
(-0.17245 0.0430838 -2.0806e-17)
(-0.0972891 0.0446286 0)
(-0.0166341 0.0436681 0)
(0.0685447 0.0450675 2.04288e-17)
(0.15727 0.0451041 -2.03072e-17)
(0.248945 0.0444226 0)
(0.345113 0.0483436 -2.00746e-17)
(0.436402 0.0513658 0)
(0.528719 0.0546106 1.98481e-17)
(0.610769 0.0593604 0)
(0.681775 0.0624066 0)
(0.75676 0.0626831 0)
(0.826052 0.063387 0)
(0.90557 0.0605355 0)
(0.979087 0.0610434 -3.8396e-17)
(1.05465 0.062571 -3.8177e-17)
(1.11482 0.0673012 0)
(1.16545 0.0663844 0)
(1.21028 0.0677204 0)
(1.24688 0.0636631 3.72525e-17)
(1.29466 0.0588389 0)
(1.34388 0.0571955 0)
(1.38875 0.0560639 0)
(1.43725 0.0538513 3.62323e-17)
(1.4764 0.0560445 -3.59643e-17)
(1.52086 0.0527625 0)
(1.55958 0.0527978 0)
(1.60091 0.0532545 -3.51494e-17)
(1.62725 0.0583122 -3.48764e-17)
(1.65712 0.0550103 0)
(1.68591 0.0587223 0)
(1.72534 0.0557366 3.40431e-17)
(1.7622 0.0660172 -3.37637e-17)
(1.77051 0.0714066 0)
(1.78417 0.0707887 0)
(1.80941 0.0711349 -3.29269e-17)
(1.84262 0.0758966 0)
(1.85586 0.0834628 0)
(1.86714 0.0891877 -3.20827e-17)
(1.86623 0.0933197 0)
(1.88051 0.0981181 -3.15224e-17)
(1.88273 0.105149 0)
(1.88833 0.109263 0)
(1.87519 0.120779 0)
(1.86173 0.126671 3.04333e-17)
(1.84637 0.133165 0)
(1.8143 0.142963 0)
(1.74223 0.154559 0)
(1.66558 0.154613 0)
(1.60023 0.156963 0)
(1.51043 0.165867 0)
(1.38247 0.172671 2.88922e-17)
(1.26313 0.174032 2.87381e-17)
(1.07912 0.18193 0)
(0.872776 0.184621 0)
(0.629658 0.183638 0)
(0.413656 0.16985 -2.83207e-17)
(0.191938 0.162779 0)
(0.0397787 0.146563 5.63469e-17)
(-0.159847 0.143908 -5.62371e-17)
(-0.262459 0.123712 -5.60582e-17)
(-0.423914 0.12664 5.59543e-17)
(-0.458375 0.0965064 -5.5752e-17)
(-0.616088 0.129235 5.57326e-17)
(-0.56466 -0.0038779 0)
(0.0100975 0.249299 0)
(0.0143229 0.192636 0)
(0.0492386 0.00823042 -2.27964e-17)
(0.120385 -0.197994 0)
(0.235131 -0.384021 2.23654e-17)
(0.387289 -0.53545 2.22188e-17)
(0.568354 -0.644396 1.10441e-17)
(0.768184 -0.710424 1.09817e-17)
(0.9755 -0.737126 0)
(1.17971 -0.73094 1.08546e-17)
(1.37217 -0.69517 0)
(1.54558 -0.636929 0)
(1.69597 -0.562353 -2.13209e-17)
(1.81858 -0.477954 -1.05952e-17)
(1.91337 -0.386044 2.10564e-17)
(1.97854 -0.291492 2.09229e-17)
(2.01543 -0.19916 1.03958e-17)
(2.02415 -0.111112 0)
(2.00712 -0.0280999 0)
(1.96432 0.0466323 0)
(1.89963 0.112111 1.01368e-17)
(1.81311 0.171216 0)
(1.70942 0.224078 -3.00377e-17)
(1.5874 0.266857 0)
(1.44937 0.301788 0)
(1.29584 0.332344 -9.83196e-18)
(1.1303 0.356299 0)
(0.955494 0.373574 9.71558e-18)
(0.775242 0.38462 1.93127e-17)
(0.590441 0.391883 -9.59757e-18)
(0.40387 0.393982 0)
(0.216792 0.390199 0)
(0.02889 0.382917 0)
(-0.159349 0.375935 1.87311e-17)
(-0.346141 0.367311 1.86166e-17)
(-0.530181 0.355018 9.25127e-18)
(-0.708749 0.340244 0)
(-0.882373 0.323179 -1.82762e-17)
(-1.04709 0.302701 0)
(-1.2052 0.280885 1.80507e-17)
(-1.35507 0.258493 0)
(-1.49832 0.235779 0)
(-1.63343 0.21544 -1.77165e-17)
(-1.76131 0.196421 0)
(-1.88442 0.178544 -5.24862e-17)
(-2.00185 0.159818 1.73856e-17)
(-2.1127 0.140935 0)
(-2.21659 0.124036 1.71654e-17)
(-2.31442 0.106392 1.70552e-17)
(-2.40494 0.086796 0)
(-2.48622 0.0678146 0)
(-2.5604 0.0532292 0)
(-2.62935 0.0436306 0)
(-2.69499 0.0385966 0)
(-2.75671 0.03715 -1.63736e-17)
(-2.81655 0.0367622 -3.2515e-17)
(-2.8748 0.0369946 1.61413e-17)
(-2.92878 0.0346092 0)
(-2.98034 0.0307708 -3.18128e-17)
(-3.02983 0.0295608 1.57874e-17)
(-3.07663 0.0304479 0)
(-3.12421 0.031068 1.55498e-17)
(-3.16976 0.0335053 0)
(-3.21299 0.0345945 0)
(-3.25446 0.0336408 3.0375e-17)
(-3.29471 0.0326998 -1.50672e-17)
(-3.33058 0.0306245 2.98916e-17)
(-3.36402 0.0278172 -2.96502e-17)
(-3.39217 0.0248328 -1.47046e-17)
(-3.41737 0.021002 0)
(-3.43653 0.0139781 -1.44628e-17)
(-3.44872 0.00415499 0)
(-3.45526 -0.00628209 0)
(-3.45339 -0.0186659 0)
(-3.44234 -0.0328371 -1.39829e-17)
(-3.42306 -0.0469042 0)
(-3.39721 -0.0571885 -2.74949e-17)
(-3.36551 -0.0645198 4.0894e-17)
(-3.32839 -0.0732419 1.35162e-17)
(-3.28497 -0.0844966 0)
(-3.23355 -0.0973914 1.32878e-17)
(-3.17679 -0.110228 0)
(-3.11429 -0.122394 2.61241e-17)
(-3.04658 -0.133457 0)
(-2.97381 -0.143966 2.5681e-17)
(-2.89592 -0.153337 -5.09222e-17)
(-2.81408 -0.162229 -2.52471e-17)
(-2.72985 -0.170165 0)
(-2.6406 -0.177689 0)
(-2.54907 -0.183339 0)
(-2.45528 -0.187599 2.44069e-17)
(-2.35812 -0.191719 0)
(-2.25969 -0.194513 -2.40007e-17)
(-2.16122 -0.194999 0)
(-2.06213 -0.196682 7.08213e-17)
(-1.96302 -0.196137 2.3417e-17)
(-1.86326 -0.197233 2.32311e-17)
(-1.76555 -0.194526 0)
(-1.67019 -0.193936 0)
(-1.57423 -0.194797 0)
(-1.47579 -0.195508 0)
(-1.37836 -0.197891 0)
(-1.2753 -0.202146 4.43224e-17)
(-1.17862 -0.200177 4.39864e-17)
(-1.0786 -0.200282 0)
(-0.990877 -0.194624 -2.16756e-17)
(-0.894292 -0.195461 -2.15236e-17)
(-0.806975 -0.18855 0)
(-0.712379 -0.18734 -4.24443e-17)
(-0.633796 -0.186832 0)
(-0.537052 -0.197173 2.0938e-17)
(-0.45085 -0.191187 0)
(-0.345129 -0.199388 0)
(-0.250469 -0.195956 -4.10579e-17)
(-0.137209 -0.204732 0)
(-0.0329385 -0.20489 2.02722e-17)
(0.0925113 -0.212694 0)
(0.218977 -0.220243 0)
(0.355012 -0.224576 1.98868e-17)
(0.495689 -0.229006 1.97704e-17)
(0.641026 -0.234434 0)
(0.790305 -0.234988 -1.9533e-17)
(0.94967 -0.236182 0)
(1.10854 -0.228102 1.92964e-17)
(1.27295 -0.218507 3.83626e-17)
(1.42052 -0.212231 0)
(1.57737 -0.213609 0)
(1.72252 -0.213794 0)
(1.88214 -0.215291 0)
(2.02893 -0.210276 3.723e-17)
(2.18309 -0.207043 1.11006e-16)
(2.3192 -0.188258 0)
(2.4429 -0.183091 0)
(2.5619 -0.172142 0)
(2.66628 -0.173829 -3.60795e-17)
(2.76805 -0.178372 0)
(2.86823 -0.178051 0)
(2.96281 -0.176681 7.06154e-17)
(3.05612 -0.177163 3.50338e-17)
(3.13176 -0.172634 3.47652e-17)
(3.22004 -0.179969 0)
(3.2843 -0.173681 0)
(3.35184 -0.175101 3.39204e-17)
(3.39914 -0.164303 -3.36143e-17)
(3.44455 -0.178422 0)
(3.47478 -0.175368 0)
(3.50936 -0.191483 -3.27215e-17)
(3.53861 -0.173515 9.71877e-17)
(3.55337 -0.168958 0)
(3.56433 -0.179763 0)
(3.57561 -0.191313 3.14595e-17)
(3.59632 -0.189138 0)
(3.59154 -0.182518 6.1625e-17)
(3.58932 -0.180807 -3.04712e-17)
(3.56168 -0.185275 0)
(3.55796 -0.194525 2.98446e-17)
(3.53393 -0.190844 5.90542e-17)
(3.5226 -0.192144 0)
(3.47547 -0.185291 0)
(3.45136 -0.194074 -2.8574e-17)
(3.41051 -0.186101 0)
(3.35287 -0.1692 5.58875e-17)
(3.2553 -0.149955 0)
(3.16303 -0.155067 0)
(3.04353 -0.146957 0)
(2.91512 -0.121948 0)
(2.72075 -0.102673 -2.66526e-17)
(2.56147 -0.0757709 -2.64633e-17)
(2.27748 -0.0267384 0)
(2.00544 -0.00188413 0)
(1.67618 0.0227386 0)
(1.38087 0.018774 2.59581e-17)
(1.04775 0.0232304 0)
(0.840179 0.0138454 -5.16687e-17)
(0.521009 0.0323101 5.16422e-17)
(0.40704 0.00091942 5.14938e-17)
(0.125563 0.0317251 5.1485e-17)
(0.125894 -0.0160357 5.13329e-17)
(-0.170879 0.0793332 5.14968e-17)
(0.0149398 -0.116458 0)
(0.0290436 0.0719432 0)
(0.120899 -0.0371699 0)
(0.227715 -0.240452 2.29134e-17)
(0.339537 -0.467412 2.26649e-17)
(0.473735 -0.692101 -2.25135e-17)
(0.617676 -0.874213 -2.2401e-17)
(0.771841 -1.00313 -1.48072e-21)
(0.923153 -1.07371 0)
(1.06839 -1.08473 0)
(1.1953 -1.04578 0)
(1.30423 -0.966093 0)
(1.39036 -0.856932 0)
(1.45613 -0.726529 6.47144e-17)
(1.49699 -0.58643 0)
(1.5158 -0.441682 -2.13056e-17)
(1.51074 -0.29526 -2.11693e-17)
(1.48468 -0.153856 0)
(1.43619 -0.0203339 0)
(1.36991 0.10357 0)
(1.2856 0.216074 0)
(1.18558 0.315426 -2.05029e-17)
(1.07068 0.398461 0)
(0.945944 0.47082 2.02489e-17)
(0.808626 0.535913 0)
(0.661618 0.590768 0)
(0.506271 0.635692 0)
(0.347976 0.671657 3.95252e-17)
(0.185731 0.698874 0)
(0.0220212 0.718294 -1.95223e-17)
(-0.142685 0.728655 3.87999e-17)
(-0.30666 0.731786 0)
(-0.472897 0.733475 0)
(-0.639342 0.730406 0)
(-0.8046 0.720859 -1.89164e-17)
(-0.966248 0.705573 -1.87956e-17)
(-1.1247 0.684068 0)
(-1.27835 0.656778 0)
(-1.42643 0.625281 3.68587e-17)
(-1.5675 0.591283 3.66191e-17)
(-1.70681 0.55698 -3.63809e-17)
(-1.84107 0.524272 0)
(-1.97345 0.490791 0)
(-2.1002 0.458634 0)
(-2.22323 0.429262 0)
(-2.34196 0.401625 3.52002e-17)
(-2.45474 0.372407 3.49666e-17)
(-2.56238 0.342758 -3.47346e-17)
(-2.66447 0.314214 0)
(-2.76054 0.286337 0)
(-2.85138 0.257306 0)
(-2.93693 0.230481 0)
(-3.02256 0.212737 3.35753e-17)
(-3.10229 0.196931 0)
(-3.17709 0.183759 0)
(-3.2454 0.175949 3.28778e-17)
(-3.30912 0.170796 3.26463e-17)
(-3.36734 0.163977 0)
(-3.41802 0.154742 -6.43594e-17)
(-3.46647 0.147806 3.19483e-17)
(-3.51118 0.14156 -3.17139e-17)
(-3.54985 0.137667 0)
(-3.58572 0.134768 0)
(-3.61564 0.130392 0)
(-3.64058 0.125596 0)
(-3.66288 0.119869 -3.0552e-17)
(-3.68105 0.11206 -6.06453e-17)
(-3.69356 0.104716 -3.00971e-17)
(-3.70262 0.0976144 2.98722e-17)
(-3.70433 0.0865062 0)
(-3.7006 0.073775 -5.88388e-17)
(-3.68903 0.0580353 -5.83903e-17)
(-3.67197 0.0422091 -5.79453e-17)
(-3.65082 0.0246501 5.75035e-17)
(-3.62073 0.00246786 0)
(-3.58379 -0.020187 8.49399e-17)
(-3.54093 -0.0397687 0)
(-3.49338 -0.0553717 -2.78773e-17)
(-3.43723 -0.0693596 -2.76645e-17)
(-3.37314 -0.0851235 0)
(-3.30281 -0.102115 0)
(-3.229 -0.118987 -5.4041e-17)
(-3.1529 -0.134007 0)
(-3.07277 -0.148378 -5.31942e-17)
(-2.98998 -0.162156 0)
(-2.90258 -0.176599 5.23556e-17)
(-2.81158 -0.18804 1.03883e-16)
(-2.7168 -0.197873 0)
(-2.62103 -0.207166 0)
(-2.52216 -0.214746 0)
(-2.42448 -0.220984 5.02913e-17)
(-2.32508 -0.226969 0)
(-2.22229 -0.231798 4.94694e-17)
(-2.1167 -0.235227 0)
(-2.01056 -0.234641 0)
(-1.90207 -0.234967 -9.65067e-17)
(-1.79625 -0.232773 0)
(-1.68846 -0.23243 -4.74627e-17)
(-1.58479 -0.226559 0)
(-1.47682 -0.227359 -4.66953e-17)
(-1.36965 -0.226492 0)
(-1.26019 -0.22565 0)
(-1.15226 -0.229354 0)
(-1.0414 -0.231646 -1.35696e-16)
(-0.940939 -0.223093 -4.48707e-17)
(-0.831491 -0.219781 0)
(-0.738033 -0.209291 0)
(-0.635947 -0.210606 0)
(-0.549958 -0.198058 0)
(-0.445829 -0.194073 4.32358e-17)
(-0.359764 -0.189379 -8.58363e-17)
(-0.252408 -0.206274 -4.26329e-17)
(-0.165046 -0.19817 8.46571e-17)
(-0.0454483 -0.213909 8.40938e-17)
(0.0563271 -0.210038 4.17608e-17)
(0.186302 -0.225174 0)
(0.299032 -0.225958 8.23958e-17)
(0.437747 -0.242012 0)
(0.569677 -0.250938 -8.12844e-17)
(0.717801 -0.257538 -4.0384e-17)
(0.86385 -0.261994 0)
(1.01848 -0.270204 7.97617e-17)
(1.16745 -0.273062 3.96278e-17)
(1.32934 -0.280998 0)
(1.48773 -0.278779 3.90896e-17)
(1.66113 -0.268398 -1.16508e-16)
(1.82054 -0.256469 0)
(1.98484 -0.255879 0)
(2.13676 -0.255639 0)
(2.29701 -0.258952 0)
(2.45345 -0.25439 -7.51531e-17)
(2.60931 -0.251314 -7.46544e-17)
(2.7605 -0.220564 0)
(2.8981 -0.214211 0)
(3.02914 -0.200668 0)
(3.15043 -0.198789 0)
(3.25695 -0.203708 0)
(3.37607 -0.207 0)
(3.48873 -0.206407 -7.09508e-17)
(3.60113 -0.206086 -1.65179e-20)
(3.69626 -0.198774 0)
(3.80574 -0.209565 0)
(3.89609 -0.19688 -6.86062e-17)
(3.98809 -0.197668 0)
(4.0683 -0.176913 6.74246e-17)
(4.13726 -0.187701 6.6807e-17)
(4.1795 -0.170863 0)
(4.23397 -0.189459 0)
(4.27316 -0.165415 -6.49001e-17)
(4.32369 -0.156263 -1.2851e-16)
(4.35182 -0.160378 0)
(4.38498 -0.172309 0)
(4.42693 -0.16309 0)
(4.43986 -0.148473 -6.16894e-17)
(4.46814 -0.135445 6.10015e-17)
(4.46695 -0.135267 0)
(4.48697 -0.141916 1.19368e-16)
(4.47073 -0.129818 5.903e-17)
(4.48818 -0.127926 -1.16766e-16)
(4.46524 -0.10932 0)
(4.464 -0.116396 0)
(4.43316 -0.0948146 -1.12747e-16)
(4.39191 -0.0672699 -5.57171e-17)
(4.30675 -0.0379308 0)
(4.24292 -0.0360236 0)
(4.11014 -0.0182155 0)
(4.00018 0.0245243 0)
(3.78829 0.0525056 -1.0559e-16)
(3.61944 0.0960904 0)
(3.32162 0.166543 0)
(3.06376 0.191293 0)
(2.71481 0.219695 0)
(2.40032 0.202979 0)
(2.01121 0.186932 0)
(1.77406 0.153235 -1.00637e-16)
(1.36963 0.150012 0)
(1.24099 0.0829708 0)
(0.855781 0.105342 -1.99432e-16)
(0.850773 0.0226767 9.92543e-17)
(0.465592 0.112032 -9.94069e-17)
(0.661668 -0.127315 9.87868e-17)
(0.0206562 -0.0931803 0)
(0.124921 -0.267879 -4.69563e-17)
(0.247476 -0.488427 0)
(0.375176 -0.753953 -2.27971e-17)
(0.501643 -0.997764 0)
(0.617593 -1.18691 0)
(0.722159 -1.30489 2.24464e-17)
(0.802748 -1.34854 0)
(0.865624 -1.31895 0)
(0.904845 -1.23341 0)
(0.926934 -1.11085 0)
(0.92972 -0.96177 0)
(0.918082 -0.794797 -8.66188e-17)
(0.889326 -0.61775 -4.30266e-17)
(0.846965 -0.435032 4.27471e-17)
(0.790696 -0.253958 0)
(0.722564 -0.0812286 0)
(0.641233 0.0802299 0)
(0.55016 0.229002 0)
(0.448852 0.362384 0)
(0.340088 0.479965 -4.11512e-17)
(0.222064 0.581846 -4.08984e-17)
(0.0961243 0.672571 4.06492e-17)
(-0.0356024 0.748589 -4.04014e-17)
(-0.171427 0.811381 0)
(-0.309998 0.859529 0)
(-0.450083 0.895629 -3.9658e-17)
(-0.590513 0.920387 0)
(-0.731865 0.934556 0)
(-0.873763 0.943198 -3.89245e-17)
(-1.01624 0.9487 -3.86812e-17)
(-1.15661 0.946407 -3.84366e-17)
(-1.29393 0.937309 0)
(-1.42801 0.922028 0)
(-1.55754 0.900556 3.76929e-17)
(-1.68209 0.870906 0)
(-1.80267 0.835358 0)
(-1.91965 0.795882 -3.69483e-17)
(-2.03359 0.757885 3.66967e-17)
(-2.14593 0.719796 -3.64481e-17)
(-2.25179 0.681097 0)
(-2.356 0.641778 0)
(-2.45615 0.605447 -7.1419e-17)
(-2.55349 0.571229 0)
(-2.64545 0.533225 -7.0453e-17)
(-2.73397 0.495213 -1.04962e-16)
(-2.81883 0.459443 1.04241e-16)
(-2.89846 0.423238 -6.9014e-17)
(-2.97492 0.386078 0)
(-3.04887 0.350483 0)
(-3.12247 0.322397 -6.76017e-17)
(-3.19341 0.297981 -3.35704e-17)
(-3.25801 0.27243 0)
(-3.31848 0.251334 0)
(-3.37431 0.236028 -3.28784e-17)
(-3.42478 0.219303 -6.52969e-17)
(-3.46894 0.200443 0)
(-3.50721 0.182555 6.43789e-17)
(-3.54144 0.168097 -6.39197e-17)
(-3.57052 0.154504 6.34639e-17)
(-3.59347 0.140379 0)
(-3.61061 0.127166 0)
(-3.62317 0.115781 0)
(-3.63061 0.104121 0)
(-3.63444 0.0935312 0)
(-3.63349 0.0782724 6.07738e-17)
(-3.62822 0.0617903 0)
(-3.61576 0.0435103 0)
(-3.59754 0.0229267 0)
(-3.57501 0.00137109 1.18046e-16)
(-3.54701 -0.0223315 5.85906e-17)
(-3.51411 -0.0460739 5.81571e-17)
(-3.47631 -0.0729348 -1.15456e-16)
(-3.43201 -0.104224 5.73032e-17)
(-3.38444 -0.13427 -5.68839e-17)
(-3.33057 -0.161875 0)
(-3.27195 -0.188054 5.60372e-17)
(-3.20336 -0.214957 0)
(-3.13068 -0.240388 0)
(-3.0523 -0.262566 0)
(-2.97248 -0.283585 1.08719e-16)
(-2.89041 -0.303045 -5.3946e-17)
(-2.80505 -0.322365 -5.35327e-17)
(-2.71831 -0.341442 -1.06271e-16)
(-2.6276 -0.361512 -1.58216e-16)
(-2.53574 -0.377563 -5.23436e-17)
(-2.43907 -0.390771 0)
(-2.34256 -0.402455 -1.03071e-16)
(-2.2445 -0.410667 0)
(-2.1464 -0.417048 -1.52205e-16)
(-2.04759 -0.427145 0)
(-1.94981 -0.433738 -1.49832e-16)
(-1.84597 -0.440234 0)
(-1.7416 -0.441111 0)
(-1.6325 -0.442883 -4.87473e-17)
(-1.52484 -0.439934 0)
(-1.41381 -0.43981 4.79732e-17)
(-1.30754 -0.435385 9.51583e-17)
(-1.1933 -0.437249 4.72047e-17)
(-1.08306 -0.438994 9.36517e-17)