/*--------------------------------*- C++ -*----------------------------------*\
| =========                 |                                                 |
| \\      /  F ield         | OpenFOAM: The Open Source CFD Toolbox           |
|  \\    /   O peration     | Version:  dev                                   |
|   \\  /    A nd           | Web:      http://www.openfoam.org               |
|    \\/     M anipulation  |                                                 |
\*---------------------------------------------------------------------------*/
FoamFile
{
    version     2.0;
    format      ascii;
    class       volScalarField;
    object      k;
    location    "9.145";
}
// * * * * * * * * * * * * * * * * * * * * * * * * * * * * * * * * * * * * * //

dimensions      [0 2 -2 0 0 0 0];

internalField   nonuniform List<scalar> 
12225
(
8.41216
8.45979
4.84063
4.0996
3.28576
3.9661
4.1992
4.90973
6.12224
6.34486
8.11265
7.56821
8.69303
9.36019
11.1846
13.9896
39.7522
49.4629
1.5491
5.7884
5.25998
5.96278
4.41464
5.65633
4.13017
5.9497
4.73198
6.5808
5.83766
6.08035
6.74133
6.04405
7.24766
6.1785
10.7883
17.6871
0.127429
1.81121
2.2065
3.51639
2.91682
3.6977
3.0526
3.68031
3.4665
3.30925
3.90352
2.35466
3.79817
2.48447
3.86378
2.97725
8.75015
14.9124
0.0168421
0.47417
0.647324
1.10922
1.29634
1.36095
1.63
1.51267
2.16199
1.59387
2.52743
1.2697
1.93424
1.14605
1.92335
1.75817
7.54018
19.662
0.0014719
0.0590111
0.153715
0.269313
0.589354
0.590771
0.759303
0.716315
0.888262
0.767787
1.179
0.712984
1.02876
0.652086
1.05327
1.01996
6.00624
20.5053
0.00233313
0.0864208
0.112213
0.202312
0.27861
0.296193
0.377184
0.34623
0.429326
0.348983
0.541866
0.384611
0.630426
0.41978
0.609177
0.645279
3.55555
18.1604
0.00201621
0.0145264
0.0622841
0.065748
0.120575
0.1254
0.176646
0.164552
0.219634
0.181792
0.25876
0.220149
0.361788
0.291933
0.34814
0.450475
1.69972
6.46073
0.000723305
0.00456537
0.0220301
0.0270669
0.0603676
0.0678261
0.111075
0.107233
0.13337
0.129562
0.168659
0.169185
0.231849
0.215312
0.242702
0.26635
0.69861
1.55716
0.000649436
0.00478076
0.0130943
0.0204338
0.0395001
0.0530106
0.0883558
0.091871
0.115093
0.117649
0.151372
0.154395
0.195792
0.184788
0.193287
0.21839
0.409767
0.539778
0.00114618
0.00824132
0.013883
0.0288084
0.0389463
0.0574425
0.0808027
0.085345
0.104058
0.109587
0.130026
0.142458
0.172733
0.171889
0.175993
0.19251
0.257394
0.299792
0.0013685
0.00675192
0.0134566
0.0374171
0.0465339
0.0723448
0.0809076
0.0975566
0.101878
0.115638
0.126481
0.145167
0.163236
0.170729
0.175032
0.183997
0.213258
0.229899
0.00191169
0.00854388
0.0165776
0.0459466
0.062833
0.106127
0.11287
0.139038
0.138809
0.154098
0.156339
0.169897
0.177099
0.191727
0.194324
0.19671
0.208306
0.216344
0.00368194
0.0166016
0.0303073
0.0754977
0.0991892
0.15564
0.173892
0.21977
0.229097
0.251517
0.248402
0.254598
0.251233
0.259278
0.261397
0.258661
0.254535
0.250919
0.00900022
0.042003
0.073031
0.148981
0.187491
0.264326
0.292254
0.338312
0.348906
0.367227
0.368419
0.372805
0.379387
0.389244
0.393666
0.392016
0.385437
0.378062
0.0366807
0.0943856
0.14398
0.241447
0.331469
0.435262
0.502248
0.550781
0.569062
0.576279
0.575209
0.572302
0.566538
0.559054
0.544469
0.531364
0.510938
0.497099
0.100126
0.171427
0.266442
0.381225
0.488054
0.580883
0.642789
0.676824
0.68912
0.689834
0.687429
0.681146
0.665585
0.647175
0.619984
0.601255
0.573482
0.555487
0.131086
0.207043
0.314808
0.434111
0.545498
0.63408
0.692225
0.72149
0.731331
0.731183
0.728481
0.721512
0.702379
0.679332
0.648213
0.627225
0.596912
0.577221
0.130733
0.20136
0.312361
0.434265
0.546503
0.634038
0.691554
0.720768
0.730881
0.731012
0.728722
0.72212
0.703176
0.679616
0.648245
0.627098
0.596534
0.576671
0.0946268
0.160392
0.266203
0.381693
0.489577
0.576599
0.637862
0.672635
0.687117
0.689891
0.688762
0.684074
0.668739
0.646797
0.617404
0.597769
0.567794
0.548842
0.0683031
0.108517
0.172874
0.253556
0.341314
0.424018
0.492657
0.539203
0.564124
0.574073
0.577142
0.576609
0.570988
0.557371
0.536079
0.521922
0.496533
0.481004
0.0383272
0.0623136
0.0987828
0.14756
0.204539
0.259357
0.304092
0.332192
0.348255
0.358419
0.367432
0.373011
0.375727
0.375554
0.373123
0.369045
0.359258
0.351268
0.0228362
0.0321356
0.0492
0.0785818
0.116668
0.156096
0.184443
0.202922
0.215552
0.226865
0.234432
0.238183
0.239408
0.239293
0.238383
0.237124
0.234621
0.231225
0.0101089
0.0158455
0.0263685
0.0428683
0.0605513
0.0767821
0.0895448
0.10155
0.113623
0.126552
0.137618
0.147141
0.154564
0.161602
0.166955
0.172323
0.175695
0.179005
0.00555174
0.00741072
0.0115364
0.0193546
0.0292445
0.0413994
0.0541573
0.0682424
0.0829715
0.0983587
0.111591
0.123316
0.132894
0.142798
0.149987
0.157962
0.163077
0.169124
0.00192302
0.00328753
0.0065275
0.0129699
0.0230171
0.0373042
0.0539358
0.0718989
0.0912513
0.110333
0.125241
0.138445
0.150072
0.162772
0.171987
0.182755
0.190132
0.198259
0.000390363
0.0032155
0.0131387
0.0332578
0.0656923
0.104577
0.145208
0.179311
0.211962
0.237133
0.252736
0.264586
0.280451
0.297646
0.309916
0.326083
0.337038
0.348039
0.00175183
0.0317011
0.121277
0.245924
0.37768
0.49375
0.593956
0.655869
0.699008
0.719341
0.726255
0.730255
0.745646
0.76413
0.776746
0.793944
0.803236
0.802679
0.0380802
0.396602
1.04826
1.46588
1.77349
1.92365
2.00592
2.00872
1.97558
1.93921
1.89601
1.86375
1.84763
1.82767
1.80221
1.77378
1.72814
1.67199
0.782394
3.43418
4.71263
4.81772
4.63012
4.34802
4.06981
3.82066
3.65071
3.51276
3.37768
3.26298
3.14779
3.02898
2.91179
2.78517
2.66699
2.45958
6.82159
9.04376
7.45387
5.45173
4.33992
3.86318
3.71293
3.71467
3.82492
3.96013
4.10036
4.22497
4.32687
4.41561
4.48681
4.51869
4.49801
4.19903
0.0681358
0.0795768
0.0930849
0.103804
0.117232
0.135744
0.161108
0.194618
0.232527
0.27441
0.318655
0.363848
0.416649
0.48713
0.576713
0.679699
0.782552
0.870478
0.99649
1.1888
1.39789
1.6011
1.84369
2.1193
2.40204
2.69324
2.94223
3.13999
3.27828
3.29001
3.24992
3.10881
2.94658
2.90914
2.89839
2.81932
2.65139
2.59562
2.62065
2.724
2.8012
2.84695
2.88234
2.92061
2.96732
3.03882
3.14581
3.28199
3.43532
3.6717
4.03176
4.4772
4.93817
5.4436
5.95166
6.33975
6.58208
6.79056
7.02485
7.19032
7.21952
7.17087
7.05604
6.9523
6.86766
6.79355
6.55753
6.0143
5.85553
5.71351
5.74395
6.19953
8.00982
9.13038
9.21714
9.13968
9.02317
8.8357
8.63884
8.33885
8.00244
7.58966
7.15927
6.70472
6.25013
5.81515
5.39023
4.97422
4.60823
4.27934
3.94261
3.65067
3.43877
3.21211
3.05344
2.92044
2.80825
2.74954
2.67911
2.62057
2.60681
2.59806
2.6164
2.65951
2.68145
2.67168
2.64886
2.67677
2.76963
2.95879
3.13022
3.16186
3.01349
2.87699
2.87308
2.76708
2.6918
2.74679
2.73158
2.45457
2.24661
2.2157
2.16881
2.21882
2.51585
3.14738
3.91348
4.77932
5.18215
5.26703
5.66653
6.59869
7.65495
8.68932
9.81453
11.9628
13.9252
13.7882
12.794
15.0002
19.1065
19.3163
17.3583
18.4242
19.4711
22.2299
23.9004
23.5685
22.1133
20.6904
19.2879
17.9508
17.1396
16.7651
15.3036
14.2964
12.6033
11.0024
9.39316
8.15908
6.84686
6.18574
5.78948
6.00042
6.70753
7.28095
7.51292
7.33664
7.14087
7.56991
8.49111
9.06316
10.5767
13.2629
15.7312
17.1878
18.8733
20.374
22.5098
24.4179
0.264831
0.160516
0.120797
0.118113
0.130249
0.163871
0.212592
0.27064
0.304519
0.310976
0.30942
0.306983
0.302174
0.287518
0.269829
0.266639
0.269761
0.270299
0.271457
0.272177
0.272531
0.277477
0.289702
0.316283
0.354165
0.398279
0.496187
0.622238
0.781497
0.942649
1.0956
1.24541
1.30914
1.37674
1.49426
1.53691
1.50006
1.3943
1.32926
1.24446
1.11998
1.00797
0.909533
0.795066
0.681196
0.597545
0.541228
0.501454
0.475724
0.477438
0.486002
0.493668
0.509006
0.547978
0.646499
0.884119
1.0867
1.23755
1.35478
1.414
1.4264
1.43651
1.46345
1.54623
1.72733
1.8877
2.2585
3.03835
5.29862
7.27827
7.42089
7.37833
7.33045
5.73341
4.47974
3.66191
2.93843
2.53942
2.11574
1.84376
1.62067
1.43619
1.29787
1.19713
1.11467
1.05134
0.998709
0.953739
0.924574
0.894558
0.861476
0.838955
0.830281
0.824471
0.820584
0.821381
0.830403
0.843164
0.845215
0.845751
0.86226
0.874098
0.898278
0.96791
1.00855
1.00671
0.970528
0.918322
0.925467
0.986215
1.14076
1.30985
1.35572
1.35358
1.38255
1.38886
1.37313
1.43307
1.53145
1.50592
1.35232
1.23631
1.22797
1.25533
1.38116
1.69121
1.8891
2.02264
2.25659
2.66655
3.38247
3.99521
4.45422
4.94727
5.68931
7.17087
7.57751
6.40787
4.92258
4.64608
4.85928
6.42507
6.36345
5.5379
5.27629
5.54745
6.02733
6.64361
6.74433
6.58483
6.19213
5.8868
5.87236
5.95202
6.0365
6.18789
5.95751
5.66057
5.46421
5.4203
5.17635
5.14043
4.9985
5.12284
5.85524
6.79037
7.33078
7.23983
6.72402
6.33907
6.43014
6.15725
5.64612
5.60762
5.82782
6.15527
7.11461
7.79575
7.98993
8.05002
0.579907
0.31767
0.189334
0.161992
0.193952
0.296268
0.372159
0.374569
0.353668
0.323091
0.281237
0.24385
0.228577
0.215156
0.190885
0.177692
0.175429
0.172958
0.170587
0.164084
0.157487
0.157952
0.158983
0.160805
0.16577
0.174216
0.191519
0.20597
0.236223
0.289553
0.328199
0.4132
0.497123
0.553424
0.666648
0.730301
0.811351
0.909296
0.929646
0.911586
0.835843
0.698779
0.598582
0.495433
0.401841
0.336698
0.309657
0.30922
0.314206
0.329876
0.349546
0.348574
0.340464
0.337968
0.340782
0.354606
0.403735
0.530641
0.624295
0.681989
0.761993
0.904578
1.1333
1.44096
1.89636
2.91706
5.3432
6.6016
6.37205
5.49041
3.96674
3.0028
2.14355
1.33378
0.990364
0.778357
0.62729
0.55064
0.480934
0.447869
0.423204
0.413535
0.406995
0.405363
0.405677
0.408246
0.412438
0.417667
0.423051
0.429445
0.435273
0.435732
0.44095
0.449118
0.450925
0.452685
0.459078
0.471154
0.477026
0.484587
0.498723
0.501632
0.513758
0.558857
0.608238
0.623559
0.611322
0.575597
0.573494
0.595257
0.66226
0.743497
0.79919
0.823707
0.854756
0.886837
0.908362
0.992816
1.17843
1.2699
1.24468
1.09948
1.07384
1.12522
1.33906
1.68433
1.71456
1.69834
1.8107
2.38494
3.0974
3.39648
3.42353
3.50249
3.75837
4.61631
4.74992
4.22978
3.84434
3.38266
4.01993
4.67387
4.16975
3.36251
3.0709
3.46051
3.47358
3.77267
3.98337
4.06809
3.95554
3.82568
4.03104
4.22261
4.26505
4.67387
4.71906
4.61399
4.55375
4.56157
4.45481
4.37354
4.26115
4.11962
4.20044
4.96317
5.73246
6.16267
5.96299
5.42226
5.55237
5.49291
4.73786
3.98233
3.86874
4.08633
4.6146
4.79143
4.57349
4.39737
0.939647
0.40909
0.251167
0.2718
0.408897
0.48429
0.457792
0.400405
0.306257
0.225379
0.189701
0.173744
0.164088
0.160624
0.156954
0.14826
0.14379
0.137776
0.126978
0.119711
0.117336
0.117214
0.115478
0.115668
0.118702
0.122453
0.128572
0.132451
0.1386
0.152412
0.162731
0.187634
0.220719
0.24794
0.307781
0.340081
0.4012
0.451822
0.524522
0.634894
0.669141
0.658702
0.618308
0.502157
0.401846
0.331851
0.30812
0.311994
0.325166
0.380149
0.44732
0.481019
0.540252
0.586024
0.625202
0.698408
0.82326
0.947194
1.08306
1.24963
1.3656
1.50314
1.81249
2.77396
4.44562
5.32603
5.37945
4.9019
3.3574
2.0182
1.23619
0.803289
0.551982
0.410204
0.344748
0.304603
0.285549
0.275939
0.274537
0.278763
0.286779
0.296314
0.30159
0.307878
0.31368
0.318843
0.325069
0.331305
0.332663
0.33466
0.341546
0.33831
0.342981
0.344439
0.351857
0.348877
0.342452
0.346685
0.352776
0.364234
0.369073
0.368182
0.373597
0.397339
0.443853
0.480473
0.489897
0.481938
0.48604
0.505431
0.547681
0.599478
0.625626
0.637642
0.654235
0.697213
0.735911
0.813933
1.02614
1.11838
1.09211
1.03058
1.00574
1.11285
1.56409
1.71779
1.61209
1.57165
1.74899
2.39621
2.88643
2.81173
2.72969
2.71923
2.89491
3.79511
4.04895
3.87132
3.59241
2.9731
3.83219
3.81962
3.24291
2.78225
2.51639
2.80028
2.96113
3.03142
3.17293
3.50703
3.43228
3.25822
3.42392
3.61354
3.52022
3.88115
4.15103
4.16769
4.18423
4.1605
3.95479
3.97257
3.97972
3.84525
3.61885
4.07845
5.00701
5.23796
4.91113
4.39512
4.64491
5.08938
4.61436
3.70759
3.45815
3.60303
3.74718
3.75257
3.51782
3.3744
1.41695
0.603445
0.389671
0.519486
0.59627
0.545622
0.428613
0.273522
0.197174
0.172177
0.165764
0.163295
0.160215
0.156261
0.152098
0.141773
0.129558
0.121549
0.11254
0.10826
0.105585
0.101352
0.100091
0.101038
0.102141
0.104521
0.109904
0.113278
0.117296
0.118925
0.121081
0.12911
0.13922
0.146269
0.165597
0.177412
0.201807
0.22037
0.257166
0.296914
0.355117
0.463217
0.519349
0.513364
0.475573
0.405511
0.387082
0.403052
0.455835
0.611156
0.706458
0.739008
0.796166
0.867631
0.920764
0.985971
1.06714
1.16454
1.27378
1.45167
1.81349
2.45365
3.32153
4.09499
4.42112
4.38485
3.34358
1.92363
1.18435
0.730748
0.450719
0.332589
0.27527
0.240256
0.222269
0.216796
0.216394
0.220598
0.232074
0.247474
0.261046
0.269236
0.274602
0.282203
0.288595
0.292558
0.296536
0.30224
0.302689
0.299555
0.300401
0.29555
0.300014
0.295517
0.305982
0.30469
0.296172
0.295546
0.292753
0.299029
0.297234
0.289459
0.289237
0.305033
0.336303
0.360678
0.402555
0.422676
0.44426
0.465663
0.495721
0.55188
0.565246
0.558069
0.567681
0.612999
0.65501
0.647468
0.734239
0.925634
0.931564
0.923563
0.954516
1.26944
1.68264
1.67906
1.48797
1.52868
1.86062
2.36148
2.36747
2.34305
2.48463
2.33826
2.44561
3.1849
3.85304
4.06548
3.5622
2.69071
2.82555
2.85185
2.71404
2.49336
2.32203
2.44355
2.82841
2.898
3.00897
3.46825
3.36107
3.15267
3.24903
3.15369
3.00322
3.22486
3.67162
3.7396
3.80106
3.83006
3.53652
3.5452
3.71906
3.67861
3.38596
3.13835
3.99812
4.77042
4.3075
3.74515
3.86922
4.47329
4.45508
3.7106
3.37663
3.37531
3.28816
3.22102
3.10918
3.00457
1.94562
0.932433
0.716058
0.743335
0.655531
0.442452
0.262412
0.190859
0.170514
0.167599
0.167955
0.166313
0.163643
0.156096
0.141902
0.128998
0.119714
0.113955
0.108494
0.103734
0.0989914
0.0956064
0.0951723
0.0954744
0.0963177
0.100004
0.106918
0.108557
0.108211
0.108896
0.111026
0.115332
0.126872
0.137691
0.144568
0.148448
0.153966
0.160434
0.168257
0.187197
0.20469
0.241221
0.317474
0.389185
0.449629
0.484797
0.516796
0.591912
0.743815
0.797909
0.797369
0.792194
0.791752
0.794075
0.811287
0.883832
1.02224
1.20943
1.48208
1.87115
2.39038
2.96695
3.44841
3.61887
3.35207
2.24303
1.28498
0.767354
0.497347
0.366284
0.299006
0.263588
0.239164
0.213342
0.201566
0.19914
0.200312
0.204438
0.215959
0.233892
0.245004
0.247494
0.249083
0.255659
0.261567
0.267335
0.270619
0.274497
0.279184
0.279654
0.265357
0.267209
0.266238
0.26437
0.265481
0.272014
0.27522
0.27405
0.26284
0.26173
0.264981
0.261317
0.250772
0.25314
0.270626
0.281192
0.297131
0.327378
0.373887
0.40678
0.423331
0.496792
0.528624
0.509888
0.523014
0.560174
0.570105
0.566196
0.596107
0.800779
0.812322
0.809487
0.894747
1.3917
1.67829
1.5423
1.4346
1.53
1.90721
2.12583
2.18395
2.26719
2.4635
2.2513
2.22611
2.27058
2.94254
4.02179
2.99581
2.34874
2.39652
2.75817
2.62084
2.27915
2.25029
2.23745
2.72236
2.93093
3.01607
3.35084
3.2972
3.24728
3.25748
2.88805
2.54037
2.65574
3.0874
3.2689
3.1896
3.2426
3.06471
2.92178
3.20924
3.38092
3.23194
2.89405
3.03657
4.03126
3.81471
3.44712
3.60155
4.00685
4.14762
3.76928
3.34989
3.22599
2.95064
2.86923
2.85814
2.83714
2.49352
1.26847
0.984674
0.794186
0.482001
0.289905
0.20277
0.174517
0.17261
0.171057
0.167072
0.164596
0.160768
0.145773
0.13004
0.121161
0.115365
0.110787
0.106413
0.101108
0.0958552
0.0935661
0.0936781
0.0945889
0.095938
0.0975743
0.100115
0.102384
0.103578
0.105339
0.109241
0.116497
0.122884
0.133447
0.1452
0.152399
0.16034
0.167317
0.169697
0.1768
0.185138
0.202644
0.237735
0.348563
0.476376
0.535815
0.606788
0.77606
0.852153
0.807645
0.704211
0.664276
0.65123
0.662786
0.72578
0.86784
1.08277
1.35329
1.67391
2.05532
2.50858
2.79898
2.86291
2.44346
1.62847
0.98156
0.587757
0.411819
0.332193
0.299054
0.284008
0.270055
0.255725
0.237104
0.216413
0.205462
0.201178
0.200419
0.202854
0.208322
0.208499
0.201765
0.192673
0.191276
0.195998
0.207125
0.221219
0.228378
0.236878
0.249979
0.247236
0.246732
0.233535
0.234383
0.229443
0.235152
0.252414
0.25299
0.247278
0.241127
0.246867
0.250553
0.241473
0.23278
0.237727
0.247546
0.260931
0.2807
0.317942
0.344161
0.346917
0.379084
0.458997
0.467395
0.506527
0.532845
0.52551
0.529164
0.544352
0.737032
0.776589
0.756025
0.842906
1.40716
1.60822
1.43434
1.4212
1.51071
1.82898
2.05545
2.20562
2.39586
2.50723
2.25646
1.9778
1.93408
2.12538
2.51359
2.14939
2.12975
2.27858
2.79338
2.54165
2.16252
2.24106
2.14891
2.39501
3.05357
3.12533
3.07323
3.09359
3.20428
3.19054
2.70388
2.40008
2.39699
2.49646
2.75733
2.87928
2.93924
2.81761
2.55891
2.72751
2.94956
2.91696
2.76022
2.76323
3.23714
3.34073
3.24411
3.40267
3.76329
3.94423
3.73213
3.328
3.09117
2.66892
2.64847
2.61628
2.72198
3.07023
1.63109
1.05882
0.623125
0.371031
0.254951
0.193002
0.174852
0.172858
0.168473
0.164749
0.165841
0.16165
0.143303
0.125817
0.11706
0.111411
0.105421
0.101633
0.0978398
0.0947017
0.0936338
0.0944378
0.0954652
0.0955336
0.0957393
0.0987034
0.106023
0.11288
0.117187
0.1214
0.123616
0.12455
0.128568
0.135076
0.14094
0.14815
0.150724
0.151704
0.153313
0.157507
0.171551
0.217091
0.37563
0.487904
0.590388
0.715361
0.798709
0.78984
0.679285
0.566508
0.542511
0.554451
0.6157
0.735753
0.900098
1.12525
1.40464
1.72341
2.04765
2.20909
2.20752
1.83342
1.34253
0.807295
0.51949
0.379002
0.321517
0.300667
0.295409
0.29737
0.311527
0.327666
0.332887
0.311259
0.264505
0.22829
0.208168
0.199771
0.197176
0.195449
0.189406
0.174008
0.165485
0.162871
0.164467
0.171552
0.19155
0.211533
0.227267
0.244651
0.243214
0.229237
0.222471
0.219927
0.219817
0.225248
0.225357
0.228821
0.229477
0.229882
0.242323
0.239032
0.225524
0.225526
0.230435
0.246882
0.25756
0.284668
0.313961
0.309704
0.317331
0.380625
0.45119
0.496207
0.511985
0.499954
0.508615
0.5188
0.692083
0.765979
0.742434
0.828457
1.39512
1.48576
1.38541
1.43058
1.45392
1.67773
1.98351
2.27005
2.46355
2.09838
1.91622
1.68277
1.86461
2.08042
2.28679
2.09304
2.05772
2.20086
2.58148
2.18659
2.09904
2.26126
2.14767
2.26855
3.09459
3.13476
2.94634
2.79973
2.73251
2.77746
2.53007
2.4123
2.3896
2.37288
2.624
2.93004
2.92275
2.70648
2.44894
2.47589
2.57032
2.56489
2.61725
2.61482
2.89488
3.10013
3.09391
3.18713
3.56131
3.8316
3.67587
3.25744
2.91856
2.51218
2.47161
2.41966
2.51615
3.64323
1.84415
0.980478
0.535994
0.351532
0.262605
0.208011
0.186935
0.18171
0.176703
0.175051
0.176359
0.170802
0.146097
0.125026
0.114748
0.107795
0.10085
0.0974045
0.0962195
0.0960948
0.0975346
0.0991729
0.100361
0.100835
0.102249
0.108083
0.123318
0.145542
0.165347
0.176351
0.17722
0.172974
0.161072
0.151652
0.144356
0.140089
0.138593
0.138599
0.14114
0.149294
0.171145
0.24062
0.405718
0.55124
0.67194
0.741693
0.73112
0.642181
0.515936
0.469271
0.459408
0.480061
0.559315
0.710458
0.900938
1.13423
1.39646
1.62645
1.71108
1.70674
1.53568
1.18669
0.766573
0.506344
0.389328
0.333461
0.307089
0.298162
0.298985
0.311817
0.33237
0.356763
0.385072
0.403326
0.399637
0.338467
0.261309
0.217353
0.201602
0.197921
0.196327
0.181898
0.166507
0.160364
0.158326
0.157634
0.16083
0.176991
0.202568
0.235383
0.239325
0.236048
0.221501
0.220533
0.216333
0.215959
0.2204
0.21764
0.222963
0.222216
0.224651
0.227682
0.220014
0.21851
0.221368
0.241796
0.252777
0.252362
0.277618
0.289469
0.301515
0.339124
0.46574
0.492117
0.486235
0.472276
0.492386
0.503611
0.628515
0.760639
0.739616
0.823345
1.34205
1.39528
1.35875
1.45021
1.43822
1.59509
1.85709
1.99744
1.86026
1.33573
1.30986
1.63377
1.8709
2.09915
2.3112
2.04605
1.91792
1.979
2.0801
2.05253
2.10126
2.32647
2.23318
2.20223
2.68298
2.76554
2.67618
2.24346
2.25817
2.5326
2.46255
2.5134
2.4695
2.35618
2.68537
3.25061
3.02585
2.60848
2.3959
2.27698
2.26624
2.36981
2.48602
2.52228
2.70526
2.87823
2.98075
3.00194
3.26851
3.69282
3.58059
3.15925
2.76104
2.42422
2.36172
2.31827
2.29049
4.20353
1.9327
0.911928
0.529988
0.411378
0.357974
0.289235
0.240223
0.211744
0.202325
0.200707
0.205386
0.197587
0.165235
0.136689
0.120901
0.10887
0.100787
0.0978155
0.0975171
0.0999113
0.103032
0.10546
0.108243
0.114165
0.123838
0.139285
0.157172
0.174921
0.193691
0.205224
0.209386
0.209087
0.201175
0.181401
0.15985
0.149264
0.146576
0.147639
0.151119
0.162789
0.199355
0.335469
0.495043
0.611282
0.682069
0.671341
0.574732
0.456941
0.408544
0.395296
0.404187
0.449925
0.531744
0.642463
0.802714
0.994542
1.18967
1.32594
1.37174
1.35814
1.15222
0.828795
0.54085
0.419727
0.365157
0.338399
0.318147
0.31229
0.315919
0.324656
0.335662
0.350948
0.379858
0.409874
0.426124
0.422449
0.384973
0.301057
0.24611
0.22871
0.230281
0.225871
0.19728
0.175693
0.163364
0.156818
0.154086
0.153061
0.161722
0.200063
0.222707
0.235343
0.224455
0.22327
0.215691
0.208613
0.218913
0.214192
0.217277
0.220309
0.213828
0.214923
0.215576
0.215467
0.214816
0.2245
0.250289
0.246215
0.254432
0.283724
0.297292
0.324027
0.438846
0.498141
0.486504
0.45169
0.471909
0.485546
0.533861
0.729386
0.743451
0.823568
1.26427
1.31735
1.335
1.45576
1.43892
1.47611
1.59425
1.32655
1.2248
1.146
1.21115
1.69765
1.82974
1.99217
2.22828
1.86099
1.70653
1.81016
1.97595
2.05443
2.22334
2.40956
2.27622
2.07443
1.95562
2.47892
2.23079
1.85654
2.03926
2.26335
2.40512
2.56514
2.47488
2.46474
3.13627
3.4129
2.98012
2.46154
2.34165
2.14685
2.07293
2.22505
2.3783
2.42049
2.54199
2.72576
2.92096
2.87819
2.98646
3.50537
3.42076
3.04463
2.60412
2.35275
2.24334
2.21645
2.19577
4.73626
1.98501
0.922648
0.65988
0.609554
0.575303
0.478352
0.313508
0.25119
0.233872
0.224381
0.222634
0.206193
0.173344
0.150901
0.131343
0.115468
0.106058
0.102555
0.101854
0.102815
0.106206
0.113404
0.124085
0.134317
0.143297
0.152946
0.163925
0.171843
0.177276
0.184452
0.188094
0.18843
0.184031
0.170782
0.160593
0.157043
0.156683
0.159682
0.169596
0.208704
0.325328
0.443988
0.523626
0.588351
0.593758
0.530766
0.406248
0.343921
0.322432
0.32063
0.338135
0.391074
0.475363
0.588161
0.72269
0.875322
1.03354
1.11935
1.14669
1.13182
0.973989
0.705937
0.504766
0.417396
0.375024
0.355764
0.348902
0.345922
0.344266
0.341804
0.337933
0.338049
0.345436
0.361674
0.392458
0.412197
0.403799
0.364518
0.312492
0.278717
0.264754
0.258798
0.245082
0.221724
0.196327
0.172672
0.158425
0.152521
0.1521
0.161754
0.195261
0.222709
0.220463
0.216988
0.216381
0.204881
0.210018
0.211072
0.203454
0.215181
0.210876
0.20525
0.208703
0.215772
0.214405
0.215804
0.233306
0.240953
0.251157
0.292081
0.298993
0.32305
0.349762
0.445363
0.469277
0.447289
0.426562
0.441682
0.468683
0.667747
0.730717
0.821
1.20437
1.2567
1.27482
1.42735
1.45817
1.427
1.35599
1.17498
1.13401
1.03881
1.12186
1.67797
1.64048
1.70397
1.88725
1.59467
1.63889
1.75582
1.90036
2.01679
2.26512
2.37094
2.14559
1.84709
1.78789
2.36988
1.72389
1.68091
1.95663
1.79452
2.17914
2.48719
2.41989
2.68389
3.37533
3.16224
2.44774
2.20914
2.22641
2.05293
1.94256
2.08935
2.2293
2.30842
2.4178
2.6524
2.854
2.77703
2.78762
3.38278
3.26506
2.89677
2.43049
2.28016
2.13096
2.08658
2.13047
5.29777
2.17803
1.13207
0.962282
0.815446
0.750148
0.536729
0.315308
0.256118
0.239887
0.22944
0.225578
0.204516
0.173668
0.155614
0.136422
0.124392
0.114107
0.110686
0.109986
0.111419
0.117165
0.124153
0.130336
0.137477
0.144
0.149275
0.153792
0.158418
0.164179
0.172296
0.177153
0.177568
0.173026
0.163203
0.159952
0.159904
0.167876
0.193082
0.245375
0.324285
0.393917
0.444421
0.492253
0.504623
0.475993
0.380791
0.308635
0.277725
0.268176
0.268569
0.283761
0.323526
0.386973
0.473026
0.578733
0.706514
0.848048
0.957759
1.00103
1.00571
0.935688
0.745573
0.541693
0.447705
0.402115
0.382216
0.37464
0.369669
0.359893
0.347705
0.336997
0.327451
0.322534
0.311267
0.304583
0.319024
0.338642
0.346485
0.319882
0.292027
0.274065
0.263955
0.253279
0.242836
0.230212
0.211875
0.18308
0.163548
0.150835
0.148861
0.16044
0.193086
0.208096
0.198454
0.203889
0.202703
0.194493
0.203005
0.198135
0.197017
0.205156
0.202609
0.204297
0.210239
0.211413
0.213093
0.228961
0.238081
0.24931
0.311955
0.323528
0.328195
0.333948
0.353082
0.411304
0.428129
0.408923
0.426931
0.436784
0.567882
0.687962
0.809373
1.1456
1.20404
1.17421
1.30507
1.43044
1.39543
1.25373
1.14159
1.09077
0.981342
0.979967
1.21453
1.19345
1.57872
1.53173
1.38208
1.42461
1.52067
1.5962
1.76712
2.09414
2.11815
1.82492
1.59767
1.66447
2.08148
1.63111
1.71195
1.97396
1.72611
2.00671
2.36034
2.31292
2.67101
3.04475
2.45595
1.91272
2.03734
2.06804
1.90211
1.81242
1.95577
2.1036
2.23041
2.32961
2.56803
2.76847
2.7027
2.65723
3.2966
3.1075
2.73199
2.31395
2.22468
2.0329
1.92909
2.02863
5.87918
2.52414
1.53004
1.16563
0.977897
0.92231
0.526684
0.287275
0.239775
0.224509
0.217341
0.210358
0.194043
0.174215
0.162089
0.151091
0.144038
0.132751
0.126556
0.124399
0.123985
0.124561
0.127755
0.132325
0.137808
0.143502
0.148308
0.153582
0.161215
0.170178
0.177525
0.187111
0.196003
0.200123
0.201698
0.202697
0.209891
0.230349
0.263814
0.305088
0.34774
0.382891
0.411385
0.425005
0.418997
0.365611
0.289403
0.249337
0.233706
0.229921
0.232443
0.246675
0.278729
0.327891
0.391847
0.466421
0.5593
0.661809
0.756664
0.822264
0.846156
0.838642
0.774345
0.635487
0.521311
0.455054
0.422548
0.402347
0.383988
0.36685
0.348147
0.334835
0.32056
0.312159
0.295264
0.273393
0.256722
0.249391
0.251948
0.274122
0.282516
0.273954
0.261481
0.249745
0.240976
0.230273
0.219244
0.198759
0.174011
0.149807
0.13602
0.13663
0.145065
0.173889
0.174138
0.170566
0.183957
0.181277
0.181752
0.1887
0.188592
0.195784
0.198044
0.200604
0.207963
0.206401
0.205789
0.224552
0.238055
0.247402
0.296524
0.336269
0.324212
0.322835
0.315491
0.329714
0.382111
0.387384
0.412865
0.426995
0.488248
0.621904
0.781748
1.09358
1.15742
1.11042
1.09967
1.31783
1.31699
1.19954
1.13697
1.07342
0.935747
0.837481
0.862175
0.920193
1.30731
1.17705
1.22247
1.19641
1.26549
1.36967
1.61663
1.89309
1.91232
1.58053
1.60319
1.64727
1.75821
1.63867
1.92095
1.99262
1.82958
2.12612
2.33338
2.09037
2.34351
2.13578
1.85519
1.87223
2.05338
1.99862
1.73817
1.71551
1.81615
2.06878
2.20281
2.27753
2.50573
2.6537
2.60876
2.61706
3.25878
2.95323
2.52519
2.24549
2.18114
1.92202
1.79125
1.93051
6.47231
2.97146
1.94047
1.29582
1.09833
1.09114
0.607428
0.304549
0.246375
0.220141
0.206496
0.20358
0.199227
0.194338
0.180597
0.164853
0.15797
0.150734
0.143818
0.14026
0.139107
0.138777
0.139019
0.142359
0.147725
0.152397
0.15627
0.161884
0.169539
0.178289
0.189541
0.200905
0.210073
0.215471
0.221083
0.227271
0.235027
0.247765
0.271468
0.305363
0.332885
0.355657
0.36696
0.361897
0.328257
0.276041
0.231876
0.208443
0.200893
0.199721
0.202667
0.212885
0.234443
0.273496
0.327441
0.385242
0.449416
0.528098
0.615022
0.684521
0.720158
0.727866
0.721157
0.673299
0.586492
0.515995
0.467231
0.428454
0.397748
0.372706
0.349473
0.333353
0.314297
0.298818
0.281927
0.256693
0.235432
0.224434
0.220967
0.214268
0.225129
0.246915
0.244089
0.227555
0.221189
0.215184
0.209113
0.195524
0.17417
0.1439
0.123354
0.121053
0.129839
0.144441
0.150958
0.15182
0.154669
0.164183
0.164095
0.168009
0.171512
0.185134
0.191181
0.190552
0.198605
0.202617
0.200788
0.212824
0.23646
0.243145
0.241999
0.301905
0.301844
0.293929
0.295807
0.298416
0.324923
0.349443
0.391431
0.412954
0.464682
0.580638
0.756424
1.03551
1.11266
1.09661
1.02874
1.12038
1.14667
1.12683
1.13904
1.04885
0.877833
0.786761
0.816535
0.85971
1.17971
1.14132
1.19143
1.19396
1.26705
1.39107
1.58243
1.80633
1.59606
1.4942
1.61628
1.61446
1.52336
1.6042
2.19253
1.99014
1.96944
2.55764
2.43524
1.99487
1.86586
1.87877
1.86822
1.95861
2.20246
1.99694
1.6707
1.66849
1.70192
2.03314
2.17029
2.20893
2.46978
2.50104
2.4984
2.60611
3.24831
2.78013
2.36895
2.18235
2.12748
1.79721
1.68805
1.82648
7.22088
4.19958
2.44603
1.43981
1.12547
1.15658
0.910324
0.535246
0.446145
0.348672
0.269301
0.256433
0.259737
0.260279
0.235548
0.201656
0.184
0.168771
0.161303
0.157994
0.156552
0.156257
0.156931
0.160099
0.165108
0.166422
0.166779
0.167631
0.171995
0.18253
0.199486
0.213913
0.217081
0.218917
0.222239
0.229594
0.238593
0.248849
0.268593
0.296421
0.314878
0.320406
0.313591
0.281528
0.249242
0.22981
0.203448
0.182998
0.175668
0.17424
0.175225
0.179345
0.188691
0.209582
0.245848
0.284967
0.32695
0.37938
0.445249
0.509117
0.556075
0.588246
0.595646
0.590624
0.569347
0.519712
0.474581
0.432876
0.39995
0.372014
0.348674
0.326283
0.308018
0.279778
0.255693
0.23789
0.220255
0.209939
0.2095
0.200719
0.181932
0.178131
0.187423
0.190433
0.185114
0.182079
0.181123
0.179625
0.168612
0.134525
0.119386
0.117304
0.124325
0.139133
0.145549
0.146309
0.147944
0.155779
0.157909
0.161039
0.161431
0.162725
0.177527
0.179933
0.181118
0.194427
0.19499
0.196105
0.228207
0.223198
0.229146
0.239608
0.261011
0.265756
0.28052
0.293771
0.308312
0.32973
0.369599
0.398252
0.447742
0.557855
0.748521
0.987509
1.06549
1.08533
1.02899
0.943935
0.962104
1.03
1.12172
1.00258
0.783014
0.751841
0.782232
0.815428
0.994525
1.08999
1.15581
1.19536
1.29613
1.39533
1.49558
1.5792
1.33356
1.47609
1.59015
1.54504
1.55288
1.67633
2.27166
2.16028
2.20103
2.67605
2.4453
2.02134
1.91403
2.00831
2.0173
2.18891
2.26535
1.90674
1.61477
1.62725
1.64085
1.99316
2.13952
2.14364
2.45862
2.31928
2.36701
2.62989
3.24912
2.63216
2.23869
2.11007
2.0658
1.68992
1.5953
1.67499
8.4533
5.24545
2.57477
1.36843
0.964244
0.941844
0.867379
0.614542
0.578937
0.461884
0.340066
0.336246
0.330594
0.328904
0.321387
0.278389
0.240077
0.212435
0.194582
0.183469
0.175652
0.172989
0.172051
0.172666
0.173314
0.176097
0.177434
0.178508
0.180405
0.187674
0.204357
0.228499
0.237309
0.235578
0.229923
0.23182
0.242088
0.2532
0.265256
0.271841
0.27324
0.270443
0.257594
0.227206
0.202594
0.191083
0.179595
0.16377
0.155772
0.152883
0.152197
0.152377
0.155394
0.165378
0.186483
0.208643
0.231751
0.262314
0.307182
0.355238
0.392123
0.424706
0.446326
0.460216
0.460384
0.45664
0.441461
0.40772
0.379683
0.350583
0.329823
0.305053
0.283408
0.246938
0.227568
0.213835
0.202954
0.198012
0.195619
0.189915
0.166771
0.151844
0.146926
0.146672
0.157269
0.164008
0.163766
0.158285
0.148752
0.125818
0.114689
0.11388
0.119617
0.133648
0.142287
0.142293
0.143036
0.15144
0.15458
0.157041
0.158721
0.159557
0.162266
0.164221
0.168686
0.186297
0.187411
0.191285
0.205763
0.212178
0.219346
0.229848
0.243243
0.254534
0.273625
0.288339
0.300387
0.322952
0.360569
0.391765
0.426507
0.520691
0.736169
0.953131
1.02834
1.07078
1.04377
0.904425
0.848487
0.965884
1.06949
0.931728
0.725146
0.709561
0.772441
0.770525
0.856197
1.04548
1.14974
1.1955
1.34109
1.40309
1.33869
1.24541
1.37345
1.43822
1.53051
1.52618
1.66123
1.92896
2.45783
2.62477
2.58185
2.52637
2.35843
2.13423
2.06864
2.11007
2.1671
2.27711
2.1442
1.75493
1.53885
1.58358
1.58353
1.91331