/*--------------------------------*- C++ -*----------------------------------*\
| =========                 |                                                 |
| \\      /  F ield         | OpenFOAM: The Open Source CFD Toolbox           |
|  \\    /   O peration     | Version:  dev                                   |
|   \\  /    A nd           | Web:      http://www.openfoam.org               |
|    \\/     M anipulation  |                                                 |
\*---------------------------------------------------------------------------*/
FoamFile
{
    version     2.0;
    format      ascii;
    class       volScalarField;
    object      k_0;
    location    "9.145";
}
// * * * * * * * * * * * * * * * * * * * * * * * * * * * * * * * * * * * * * //

dimensions      [0 2 -2 0 0 0 0];

internalField   nonuniform List<scalar> 
12225
(
8.32168
8.37057
4.79089
4.07136
3.35175
3.98725
4.40764
4.9514
6.57932
6.23519
8.87337
7.22034
9.18256
8.91967
10.9745
13.5037
34.6169
36.9158
1.61874
5.8778
5.29487
6.01259
4.44118
5.75136
4.18229
6.1092
4.84668
6.79645
6.03369
6.3359
7.09929
6.31545
7.80087
6.58489
13.4392
18.0539
0.140954
1.86782
2.26268
3.57181
2.93348
3.75942
3.05784
3.75096
3.48669
3.37352
4.01164
2.31121
4.06147
2.48091
4.29665
3.21867
11.5191
16.6108
0.0179617
0.498339
0.671841
1.15277
1.32046
1.39067
1.65811
1.5373
2.22886
1.60104
2.64566
1.20616
2.06839
1.113
2.12419
1.88491
10.512
22.0129
0.00154928
0.0621879
0.159615
0.277236
0.604272
0.599268
0.78206
0.727705
0.921464
0.78498
1.24721
0.702581
1.09162
0.63746
1.15179
1.11581
8.67692
23.2084
0.00271938
0.0874136
0.115318
0.203573
0.285384
0.302798
0.389332
0.35305
0.448882
0.356072
0.57275
0.389581
0.674878
0.411223
0.665594
0.689673
4.90493
21.0364
0.00241739
0.0165384
0.0655856
0.0683292
0.127046
0.1298
0.183329
0.169061
0.229883
0.183974
0.273323
0.224262
0.38656
0.294307
0.376938
0.514747
2.10078
8.17046
0.000744521
0.00470682
0.0236667
0.0279396
0.0641818
0.0697035
0.115541
0.108185
0.135507
0.130323
0.173842
0.171368
0.240037
0.220098
0.255413
0.285722
0.86481
1.94731
0.000658787
0.00459918
0.0134654
0.0202781
0.0406824
0.0535788
0.0892962
0.0922571
0.116563
0.119603
0.153764
0.157322
0.199725
0.185955
0.19792
0.22953
0.467512
0.610186
0.00133144
0.0085447
0.0142849
0.0287859
0.0392116
0.0576794
0.0801118
0.0850461
0.103693
0.109968
0.131263
0.144233
0.173473
0.171503
0.176352
0.200584
0.273474
0.318534
0.00136965
0.00700541
0.0138001
0.0380061
0.0463064
0.071644
0.0803138
0.0956844
0.100826
0.114737
0.126486
0.145738
0.163044
0.169928
0.174945
0.185347
0.217963
0.232705
0.001709
0.00863937
0.0166558
0.046462
0.0625231
0.105046
0.110005
0.136037
0.134032
0.150318
0.151575
0.167262
0.174507
0.188742
0.19094
0.194276
0.208209
0.214852
0.00321545
0.0162839
0.0297756
0.0748983
0.097511
0.153389
0.170111
0.215618
0.223339
0.245353
0.240888
0.247801
0.24339
0.252743
0.253874
0.250305
0.24696
0.243639
0.00787748
0.0417487
0.0725393
0.148094
0.184294
0.259723
0.285242
0.330566
0.33992
0.358401
0.358607
0.363755
0.370067
0.379993
0.384145
0.381927
0.375105
0.367411
0.0335739
0.0939176
0.142463
0.24024
0.328544
0.431431
0.495969
0.543477
0.560514
0.567769
0.566333
0.56353
0.558293
0.551297
0.537512
0.524442
0.504509
0.490488
0.0953257
0.172814
0.268287
0.383641
0.490146
0.582645
0.643571
0.676842
0.688485
0.689026
0.686352
0.679776
0.663799
0.645342
0.618299
0.599577
0.571802
0.553444
0.129291
0.213082
0.322507
0.442492
0.553738
0.641594
0.698591
0.726775
0.735955
0.735668
0.732774
0.725403
0.705032
0.681634
0.650357
0.629224
0.598685
0.578562
0.129384
0.208561
0.321674
0.444553
0.556851
0.643664
0.700031
0.728127
0.737532
0.737531
0.735065
0.728048
0.70776
0.683746
0.652115
0.630738
0.59986
0.579521
0.0948884
0.168503
0.277525
0.394958
0.503618
0.590308
0.650452
0.683897
0.697404
0.699775
0.698489
0.693372
0.676569
0.653964
0.624109
0.604061
0.573623
0.554127
0.0687439
0.114369
0.182037
0.265736
0.355693
0.43956
0.508388
0.554482
0.578789
0.588257
0.590996
0.590159
0.583354
0.568596
0.546424
0.53153
0.505229
0.488993
0.038817
0.0661596
0.104792
0.155835
0.214692
0.270703
0.316129
0.344465
0.360685
0.370971
0.380045
0.385502
0.388015
0.387479
0.384304
0.379748
0.368872
0.36023
0.0230678
0.034099
0.0525373
0.0835457
0.123159
0.16353
0.192474
0.21137
0.224313
0.235728
0.243268
0.246886
0.247942
0.247633
0.24649
0.244981
0.242
0.238021
0.0102347
0.0168535
0.0281561
0.0456137
0.0642313
0.081233
0.094326
0.106376
0.118383
0.131232
0.142112
0.151421
0.15869
0.165502
0.170699
0.175844
0.179061
0.181984
0.00551019
0.00787245
0.0123815
0.0205725
0.0306597
0.0428089
0.0554087
0.0694994
0.0843442
0.0997872
0.113028
0.124761
0.13439
0.144314
0.151537
0.159511
0.164594
0.170455
0.00195146
0.00342065
0.00668322
0.013073
0.0229767
0.0371098
0.0535582
0.0714389
0.0907124
0.10966
0.124517
0.137807
0.149503
0.162154
0.17136
0.182053
0.189299
0.197127
0.000373859
0.00297009
0.0119476
0.0305723
0.0615028
0.0991919
0.138696
0.172346
0.204834
0.229842
0.245479
0.257782
0.274024
0.291212
0.303579
0.319753
0.330583
0.341399
0.00146236
0.0279567
0.110452
0.230066
0.35902
0.474425
0.574304
0.636647
0.680688
0.701428
0.709061
0.713935
0.730922
0.749593
0.76287
0.780604
0.790065
0.79036
0.0335251
0.372536
1.01104
1.4115
1.71462
1.87378
1.96362
1.97343
1.94781
1.91994
1.87967
1.84934
1.83506
1.81629
1.79221
1.76496
1.71971
1.66467
0.739405
3.3962
4.70708
4.84636
4.67227
4.39416
4.11642
3.86677
3.69131
3.54717
3.40963
3.29389
3.17687
3.05571
2.93623
2.80685
2.68487
2.4727
6.82056
9.10714
7.53089
5.55759
4.45683
3.99373
3.85884
3.87558
4.00526
4.15896
4.31663
4.4566
4.57151
4.67203
4.75322
4.79193
4.77419
4.45475
0.0684219
0.0795804
0.0929754
0.10361
0.116884
0.135187
0.160336
0.193724
0.231763
0.27406
0.319064
0.365097
0.418963
0.491198
0.583114
0.688522
0.793394
0.883489
1.01409
1.21214
1.42525
1.63294
1.88152
2.16248
2.44931
2.74668
3.00062
3.20268
3.34362
3.35531
3.31615
3.17378
3.00795
2.97111
2.96124
2.88151
2.7051
2.63971
2.66054
2.76436
2.8446
2.8927
2.93078
2.97137
3.02187
3.09969
3.21607
3.36415
3.53039
3.78307
4.16412
4.63069
5.11166
5.63601
6.15453
6.54315
6.78607
6.99835
7.23461
7.39722
7.4234
7.37192
7.25444
7.14895
7.06113
6.97739
6.72589
6.17618
5.98633
5.82815
5.87689
6.39342
8.28724
9.38728
9.46296
9.37696
9.25775
9.07045
8.87628
8.57488
8.23508
7.81549
7.37544
6.9082
6.43932
5.98922
5.5484
5.11602
4.73314
4.38763
4.03277
3.72342
3.49444
3.24906
3.07463
2.92537
2.79485
2.72083
2.63197
2.55357
2.52247
2.49426
2.49076
2.51256
2.51386
2.48705
2.45409
2.46838
2.54661
2.71484
2.85495
2.87015
2.72694
2.61606
2.61172
2.5135
2.46282
2.51569
2.4865
2.21918
2.06612
2.06639
2.04731
2.11837
2.43257
3.06896
3.844
4.73396
5.15073
5.2361
5.60277
6.50058
7.53825
8.56069
9.64742
11.7591
13.8414
13.626
12.5659
14.8121
19.7166
19.8313
17.7476
18.9448
20.0762
22.9469
24.4845
24.0391
22.496
21.008
19.5183
18.1082
17.2141
16.7013
15.1421
14.0547
12.3076
10.7035
9.11119
7.85897
6.59079
5.94217
5.56589
5.77176
6.43473
6.91766
7.06475
6.84985
6.72003
7.23467
8.10225
8.78838
10.4903
13.3441
15.9263
17.4302
19.1431
20.6283
22.7218
24.5226
0.267668
0.161535
0.121151
0.118258
0.130132
0.163401
0.211736
0.269733
0.304396
0.311328
0.310112
0.307929
0.30324
0.288526
0.271252
0.268362
0.271385
0.271878
0.272966
0.273569
0.273974
0.279422
0.291965
0.319438
0.35759
0.400412
0.496783
0.619616
0.776003
0.933961
1.08597
1.23574
1.29969
1.37031
1.48913
1.53261
1.50156
1.39971
1.33648
1.25313
1.12987
1.01933
0.920903
0.805621
0.69071
0.605506
0.54722
0.505609
0.477849
0.478371
0.485361
0.493152
0.509873
0.550803
0.657599
0.904088
1.1067
1.25542
1.36949
1.42553
1.43732
1.44781
1.47533
1.56525
1.74963
1.91411
2.2933
3.09252
5.41219
7.33664
7.45968
7.44461
7.45845
5.83622
4.56606
3.75066
3.02045
2.61365
2.18076
1.89841
1.66807
1.47629
1.33134
1.22568
1.13941
1.07276
1.0173
0.969734
0.93837
0.906205
0.870693
0.846843
0.837118
0.830109
0.826805
0.827099
0.836508
0.848222
0.848898
0.849671
0.86703
0.878761
0.905072
0.975848
1.0113
1.00765
0.965542
0.916373
0.927768
1.00176
1.164
1.33341
1.36688
1.35286
1.38186
1.38716
1.36523
1.42235
1.50263
1.45436
1.28839
1.18728
1.18031
1.20454
1.31987
1.61506
1.81492
1.96835
2.22362
2.6122
3.29731
3.92003
4.40577
4.9153
5.67269
7.22491
7.73076
6.5493
4.81106
4.52317
4.75321
6.42578
6.3675
5.54323
5.29569
5.51049
6.11607
6.7435
6.82342
6.62986
6.20777
5.88665
5.82939
5.90143
5.9853
6.07319
5.82227
5.53782
5.34045
5.27951
5.03734
4.98903
4.859
5.01353
5.77083
6.65816
7.13592
7.01631
6.5124
6.17641
6.26735
5.97572
5.55014
5.59222
5.82282
6.13813
7.1015
7.84901
8.08312
8.14693
0.588894
0.320172
0.1904
0.162355
0.193487
0.294787
0.371896
0.374946
0.35504
0.324692
0.283133
0.245856
0.230622
0.216539
0.191777
0.178672
0.176333
0.173924
0.171626
0.165051
0.15858
0.159049
0.160047
0.16197
0.167101
0.175823
0.192908
0.206951
0.237593
0.289279
0.32695
0.412768
0.494173
0.550563
0.66344
0.725973
0.809869
0.908392
0.92952
0.914628
0.840456
0.703923
0.603281
0.49982
0.405215
0.338819
0.310179
0.30882
0.313084
0.327665
0.345914
0.345212
0.337627
0.335618
0.338811
0.353687
0.407638
0.537236
0.628175
0.68646
0.772686
0.921602
1.1541
1.46169
1.91339
2.95021
5.33701
6.59431
6.43629
5.56059
4.03145
3.03822
2.17251
1.36842
1.01578
0.800349
0.643618
0.563906
0.490901
0.455797
0.428705
0.41754
0.409777
0.407311
0.407019
0.408969
0.412468
0.417152
0.422517
0.428758
0.433687
0.43435
0.439641
0.447393
0.44916
0.451391
0.45931
0.47125
0.475959
0.483446
0.497579
0.500841
0.514699
0.562778
0.607741
0.618598
0.60271
0.567131
0.565878
0.589418
0.659945
0.746039
0.800695
0.81699
0.84754
0.881027
0.896614
0.971204
1.14185
1.23567
1.20673
1.05271
1.02736
1.07309
1.27463
1.61007
1.6536
1.65247
1.76304
2.30495
3.01985
3.36259
3.41211
3.48494
3.72383
4.59343
4.74851
4.17763
3.70695
3.34503
3.90912
4.59895
4.14202
3.32284
3.05739
3.3609
3.4331
3.82923
4.03777
4.07407
3.92804
3.79585
3.96913
4.13868
4.23823
4.61491
4.62131
4.50522
4.4435
4.44781
4.35002
4.25491
4.13193
4.00355
4.13106
4.89576
5.63049
6.04919
5.84028
5.33768
5.45072
5.32981
4.54083
3.8894
3.79668
3.99086
4.57785
4.79628
4.60583
4.4006
0.958677
0.412434
0.251967
0.271752
0.407855
0.484213
0.459221
0.402671
0.308908
0.227637
0.190913
0.174286
0.164313
0.160815
0.156953
0.148331
0.144059
0.137903
0.127144
0.119968
0.117704
0.117575
0.115906
0.116152
0.119309
0.123115
0.129162
0.132951
0.139246
0.152805
0.162922
0.188072
0.220062
0.247542
0.306498
0.338121
0.399676
0.449585
0.524641
0.635013
0.668479
0.660695
0.621361
0.505314
0.403753
0.332721
0.307632
0.310282
0.322159
0.375442
0.440609
0.474357
0.533189
0.578439
0.618194
0.694346
0.822805
0.949765
1.08754
1.25224
1.36537
1.50366
1.81234
2.76936
4.40545
5.32827
5.42407
4.94815
3.43072
2.09095
1.27766
0.825522
0.568115
0.420248
0.351295
0.30904
0.288845
0.277842
0.275248
0.278266
0.285212
0.294493
0.299516
0.305294
0.310631
0.315515
0.321513
0.327152
0.328444
0.330844
0.33756
0.334858
0.33931
0.341662
0.347989
0.344984
0.339772
0.345097
0.351475
0.362782
0.368385
0.368662
0.374649
0.401564
0.447547
0.480094
0.485017
0.47543
0.480315
0.500117
0.542624
0.591693
0.616443
0.625483
0.642884
0.690763
0.726441
0.802134
1.00203
1.08786
1.07036
1.00168
0.97419
1.06628
1.48994
1.65626
1.56714
1.53037
1.6859
2.32441
2.86453
2.82709
2.70373
2.69824
2.85132
3.71488
3.92983
3.74838
3.45763
2.96036
3.75739
3.82381
3.25353
2.72943
2.48277
2.74873
2.85787
2.99226
3.14659
3.39212
3.31551
3.17193
3.33164
3.5312
3.48877
3.86887
4.08616
4.09659
4.09065
4.05706
3.88262
3.88966
3.87887
3.74975
3.55536
4.11044
4.88098
5.11418
4.84184
4.38616
4.67096
4.99883
4.43763
3.57076
3.35662
3.51581
3.72256
3.74119
3.46704
3.32324
1.4509
0.608
0.390489
0.519497
0.596323
0.547901
0.432072
0.276571
0.198592
0.172588
0.16582
0.163205
0.160001
0.156086
0.152001
0.141616
0.129585
0.121506
0.112514
0.108373
0.105639
0.101491
0.100309
0.101243
0.102368
0.104778
0.110174
0.113554
0.117456
0.119058
0.121223
0.129417
0.139078
0.146128
0.165228
0.176714
0.200945
0.21932
0.256634
0.295669
0.356301
0.465654
0.519723
0.515771
0.476764
0.405022
0.385417
0.398711
0.447765
0.60355
0.701994
0.737809
0.798925
0.870664
0.923411
0.988383
1.06832
1.16369
1.27168
1.44798
1.8041
2.43372
3.2938
4.06359
4.45304
4.42617
3.40463
1.99498
1.22127
0.761613
0.465925
0.339625
0.279043
0.242735
0.223243
0.217218
0.216596
0.2201
0.230674
0.245437
0.258877
0.267242
0.272533
0.279677
0.285716
0.289362
0.293147
0.2983
0.298386
0.295334
0.296655
0.291963
0.296075
0.29228
0.302181
0.299982
0.291295
0.29079
0.289495
0.2965
0.294101
0.287476
0.28988
0.308309
0.340749
0.36839
0.408544
0.423388
0.442886
0.464369
0.496437
0.545439
0.555144
0.549172
0.55917
0.604982
0.647519
0.643453
0.751545
0.912138
0.923692
0.913169
0.939309
1.22433
1.64074
1.64247
1.45966
1.48833
1.78812
2.33675
2.39246
2.30689
2.38899
2.28777
2.43345
3.20285
3.78149
3.89449
3.48407
2.69882
2.87951
2.83243
2.66841
2.44606
2.28826
2.43359
2.7442
2.81378
2.92865
3.32574
3.22314
3.0386
3.12343
3.10224
3.00097
3.23656
3.66808
3.73528
3.77943
3.77734
3.50262
3.53509
3.67199
3.61891
3.3276
3.13408
4.10536
4.66459
4.23723
3.71951
3.84063
4.46115
4.36145
3.56755
3.28177
3.31346
3.27329
3.19541
3.05008
2.95202
1.99796
0.939189
0.718257
0.744207
0.658526
0.446781
0.265214
0.191869
0.170576
0.167478
0.167756
0.166122
0.163401
0.155976
0.141999
0.129039
0.119757
0.113971
0.108474
0.103778
0.0990878
0.0956946
0.0952061
0.0954776
0.0963233
0.100132
0.106932
0.108563
0.108297
0.108966
0.111085
0.115396
0.126964
0.137624
0.144218
0.148151
0.153833
0.160149
0.168304
0.187414
0.204788
0.24212
0.319244
0.39132
0.450592
0.483793
0.51335
0.583173
0.73584
0.798058
0.800033
0.795827
0.796973
0.800445
0.81622
0.883735
1.01844
1.20185
1.46838
1.8499
2.36316
2.93688
3.43843
3.64169
3.40048
2.32582
1.33733
0.797558
0.512251
0.374624
0.302837
0.264626
0.239769
0.213757
0.200757
0.198269
0.199367
0.203282
0.214516
0.232104
0.244345
0.247994
0.249946
0.256328
0.26214
0.267308
0.26999
0.273488
0.277225
0.276311
0.26381
0.265213
0.265576
0.262127
0.264923
0.269786
0.27096
0.269091
0.258497
0.258525
0.261116
0.255902
0.24704
0.251533
0.272399
0.283054
0.302365
0.334709
0.379062
0.411152
0.431433
0.503154
0.523933
0.506413
0.518493
0.550168
0.563572
0.556415
0.600558
0.795974
0.800247
0.808852
0.896198
1.37795
1.6544
1.53036
1.40944
1.49897
1.86712
2.09789
2.13255
2.19011
2.35429
2.18525
2.23342
2.37132
3.11656
4.01164
3.17813
2.39669
2.38921
2.6737
2.56723
2.25773
2.20853
2.24649
2.69323
2.82908
2.92338
3.26204
3.19357
3.13002
3.12659
2.8238
2.5645
2.70888
3.15707
3.33046
3.25294
3.27342
3.05561
2.97605
3.23576
3.38857
3.2066
2.87371
3.07553
4.06816
3.79648
3.4187
3.55376
3.98549
4.1076
3.66349
3.27126
3.18511
2.95603
2.84159
2.8257
2.7946
2.56633
1.27734
0.987865
0.797463
0.486958
0.292169
0.203591
0.17457
0.17242
0.170949
0.166975
0.164265
0.160435
0.145815
0.130266
0.121303
0.115422
0.110879
0.106491
0.10121
0.095948
0.093545
0.093605
0.0944384
0.0957556
0.097451
0.100128
0.10243
0.103638
0.105389
0.109255
0.116459
0.122728
0.133176
0.144766
0.152074
0.159962
0.166712
0.169459
0.176341
0.184817
0.202325
0.237328
0.349227
0.47452
0.532391
0.601989
0.770174
0.850605
0.813914
0.713009
0.671474
0.655912
0.664572
0.721123
0.857326
1.06738
1.33468
1.65245
2.02892
2.48037
2.80363
2.88354
2.50407
1.69116
1.02898
0.611901
0.423376
0.336481
0.300048
0.283674
0.269097
0.253969
0.234831
0.214015
0.203493
0.199682
0.199133
0.201646
0.208494
0.20942
0.203279
0.195418
0.195469
0.200666
0.211924
0.224675
0.229875
0.237092
0.248087
0.242941
0.242345
0.230673
0.233423
0.228551
0.23603
0.251596
0.251825
0.243576
0.238403
0.244242
0.245893
0.235613
0.229657
0.237145
0.248185
0.261991
0.284792
0.321462
0.347632
0.353971
0.398875
0.462888
0.468595
0.506266
0.527435
0.519339
0.520968
0.544584
0.73974
0.759432
0.745517
0.845707
1.4127
1.60847
1.42984
1.39722
1.49479
1.81952
2.02352
2.13792
2.30075
2.45752
2.21869
2.02802
1.97161
2.14452
2.65232
2.18136
2.13652
2.26302
2.72919
2.52643
2.15517
2.19305
2.13432
2.43739
2.94659
3.02698
3.04349
3.0671
3.15359
3.11936
2.65562
2.35563
2.35571
2.52702
2.81748
2.85319
2.8975
2.78846
2.56395
2.77337
3.0021
2.95615
2.75274
2.78917
3.32834
3.36799
3.22452
3.37114
3.72254
3.91135
3.65926
3.26644
3.0762
2.67693
2.63175
2.61612
2.70309
3.16256
1.64389
1.06409
0.628768
0.373116
0.255461
0.193096
0.174643
0.17265
0.168292
0.164215
0.165131
0.161157
0.143291
0.125947
0.117276
0.111685
0.105778
0.101953
0.0980065
0.0946718
0.0934843
0.0941666
0.0951463
0.0952596
0.095514
0.0984947
0.105727
0.112448
0.116729
0.121093
0.123584
0.124594
0.128546
0.135041
0.140944
0.148065
0.150577
0.151541
0.153195
0.157267
0.171043
0.215665
0.373658
0.48317
0.58567
0.710787
0.799055
0.794915
0.691307
0.573203
0.545134
0.554374
0.610348
0.725318
0.885346
1.10598
1.3819
1.69992
2.02756
2.21477
2.22857
1.87974
1.3915
0.84817
0.543174
0.389348
0.325429
0.3014
0.294275
0.294972
0.306685
0.321885
0.326096
0.303706
0.256926
0.224089
0.205698
0.198272
0.195916
0.194124
0.187976
0.172659
0.164156
0.161982
0.164382
0.173296
0.194069
0.212233
0.226882
0.240442
0.238766
0.224234
0.218958
0.216416
0.217541
0.223951
0.223688
0.227994
0.227192
0.229027
0.240002
0.234213
0.222433
0.224071
0.230711
0.245678
0.258959
0.291599
0.31527
0.312826
0.3216
0.391334
0.444255
0.497558
0.514002
0.49767
0.503934
0.518476
0.705261
0.751176
0.731046
0.830933
1.41193
1.49783
1.37884
1.40937
1.44371
1.68184
1.97074
2.23803
2.45898
2.24494
2.04826
1.6919
1.85039
2.06029
2.25306
2.08567
2.065
2.20991
2.61874
2.2491
2.08387
2.21047
2.11789
2.28555
3.07975
3.11609
2.945
2.8617
2.8158
2.81262
2.48807
2.34906
2.33137
2.34404
2.59895
2.83287
2.85421
2.67217
2.44005
2.51549
2.63517
2.61294
2.63301
2.6323
2.95464
3.13043
3.08906
3.18202
3.55672
3.81672
3.6297
3.2174
2.92526
2.51267
2.46817
2.422
2.5301
3.75198
1.86077
0.987546
0.538021
0.351626
0.261582
0.206825
0.185896
0.180922
0.175743
0.173793
0.175036
0.169721
0.145893
0.125028
0.114773
0.107944
0.101019
0.0974047
0.0961023
0.0957764
0.0970362
0.0985776
0.0997311
0.10014
0.101439
0.106914
0.121544
0.143485
0.163235
0.174766
0.175877
0.172211
0.160856
0.151855
0.144648
0.140352
0.138826
0.138818
0.141171
0.149074
0.170104
0.238084
0.400649
0.54604
0.666846
0.742032
0.735261
0.651854
0.52363
0.472317
0.460068
0.477052
0.549716
0.695304
0.881493
1.11184
1.37369
1.6153
1.71319
1.72073
1.56525
1.22962
0.803768
0.526194
0.399614
0.339394
0.309984
0.298164
0.297886
0.309191
0.329102
0.353413
0.380596
0.399047
0.393136
0.327741
0.252202
0.213047
0.198866
0.195568
0.193243
0.178024
0.163616
0.158105
0.156569
0.156592
0.161973
0.181695
0.206449
0.234977
0.236727
0.230847
0.217489
0.216607
0.213407
0.214624
0.217954
0.216013
0.221653
0.220488
0.225812
0.226551
0.218055
0.217834
0.222281
0.242342
0.251078
0.25378
0.285633
0.290353
0.301455
0.350901
0.462747
0.485121
0.484007
0.475023
0.491664
0.502536
0.657767
0.754066
0.729513
0.827137
1.37113
1.40853
1.35603
1.43488
1.42824
1.60517
1.8844
2.10025
2.07084
1.49153
1.37705
1.61431
1.85252
2.07821
2.27841
2.0573
1.96703
2.04937
2.14317
2.055
2.07808
2.27328
2.18922
2.22931
2.86207
2.86282
2.75134
2.38096
2.35456
2.58978
2.44576
2.4356
2.40433
2.31703
2.61857
3.08251
2.932
2.58937
2.38544
2.31653
2.33217
2.41032
2.50609
2.5405
2.76024
2.91667
2.98154
3.00791
3.32498
3.70775
3.56707
3.1356
2.7792
2.42546
2.37068
2.32108
2.2956
4.32741
1.95183
0.916138
0.529142
0.406867
0.351979
0.283312
0.236725
0.209689
0.200356
0.198687
0.203487
0.196783
0.165061
0.136404
0.120809
0.109046
0.100815
0.0975556
0.0971158
0.099308
0.102313
0.104609
0.107078
0.112365
0.121547
0.136811
0.15512
0.173237
0.192083
0.203964
0.208309
0.208023
0.200642
0.18139
0.160091
0.149362
0.146544
0.147403
0.150744
0.161968
0.196
0.330465
0.488252
0.60445
0.682762
0.675775
0.584098
0.464337
0.411467
0.395512
0.402401
0.444504
0.523413
0.630293
0.786021
0.975718
1.17259
1.31564
1.37376
1.37154
1.18344
0.865664
0.563192
0.430066
0.370816
0.342429
0.320356
0.312045
0.314817
0.323066
0.334174
0.34955
0.378522
0.408383
0.424535
0.420033
0.378588
0.28994
0.237846
0.223057
0.224688
0.218489
0.189372
0.17014
0.159526
0.154681
0.152818
0.152716
0.1658
0.206378
0.224607
0.233086
0.221613
0.220757
0.212778
0.20804
0.217746
0.212845
0.21791
0.2192
0.213459
0.216505
0.21542
0.214428
0.214169
0.22931
0.250871
0.246025
0.25758
0.283237
0.296902
0.325533
0.459489
0.497065
0.480703
0.450962
0.478249
0.486632
0.567601
0.738925
0.738858
0.829619
1.29691
1.33144
1.33886
1.45376
1.43152
1.49661
1.66792
1.47239
1.30519
1.20013
1.24027
1.67358
1.83723
2.02747
2.26751
1.93201
1.7533
1.83854
2.00073
2.04868
2.18048
2.39055
2.28537
2.12777
2.09138
2.52746
2.39451
1.97549
2.10749
2.39578
2.42222
2.54628
2.44962
2.38988
2.97805
3.35754
2.96869
2.47867
2.34515
2.17469
2.12491
2.27483
2.41269
2.44928
2.60147
2.75101
2.93138
2.8863
3.06436
3.53922
3.4335
3.03982
2.63517
2.36281
2.26872
2.23187
2.19242
4.87347
2.00374
0.922572
0.650579
0.600731
0.566889
0.473694
0.314166
0.25081
0.232924
0.223077
0.221697
0.206531
0.174089
0.151184
0.131602
0.115603
0.105845
0.102055
0.101264
0.102147
0.105189
0.111809
0.122259
0.132745
0.141921
0.151632
0.162917
0.171307
0.177
0.184098
0.188056
0.188451
0.184331
0.171198
0.160512
0.156634
0.156191
0.158941
0.167906
0.204145
0.31969
0.437587
0.517777
0.588921
0.596852
0.539119
0.41534
0.34836
0.323462
0.320609
0.33545
0.384862
0.466045
0.576316
0.7087
0.859819
1.02064
1.11455
1.14789
1.14096
0.998944
0.733694
0.520271
0.425193
0.379678
0.357908
0.349759
0.345943
0.343937
0.341614
0.338065
0.338819
0.347343
0.36589
0.397171
0.415155
0.405157
0.364061
0.308528
0.273651
0.261713
0.256436
0.240106
0.212964
0.187198
0.166351
0.155182
0.151005
0.152022
0.16672
0.201585
0.225107
0.219915
0.217619
0.215343
0.203895
0.211685
0.210896
0.204733
0.217126
0.210666
0.205746
0.2103
0.216398
0.214235
0.216674
0.237259
0.242284
0.253384
0.288626
0.297122
0.322369
0.368744
0.46663
0.475877
0.445913
0.432101
0.445741
0.493874
0.697636
0.736538
0.829151
1.23605
1.27081
1.29115
1.44295
1.46235
1.44365
1.41748
1.20574
1.16537
1.07465
1.14723
1.73131
1.73004
1.76253
2.00435
1.68702
1.68023
1.79639
1.94908
2.04668
2.26822
2.40129
2.22811
1.9627
1.86967
2.42848
1.89223
1.71683
1.96518
1.9517
2.28302
2.51822
2.43739
2.65634
3.36133
3.25822
2.62303
2.28512
2.26292
2.08172
1.98954
2.14966
2.28914
2.34705
2.47477
2.67211
2.88004
2.78717
2.86253
3.4177
3.2904
2.91055
2.46563
2.29716
2.16465
2.11918
2.13745
5.44298
2.19104
1.12033
0.952102
0.809151
0.745466
0.542791
0.318737
0.256815
0.239739
0.22878
0.225329
0.205623
0.174561
0.156198
0.13672
0.124383
0.11368
0.10993
0.109088
0.11029
0.115834
0.123002
0.129268
0.136469
0.143153
0.148668
0.153199
0.157723
0.163326
0.171367
0.176968
0.177661
0.173699
0.163731
0.15989
0.15961
0.166483
0.190115
0.240928
0.319419
0.389458
0.440686
0.49153
0.506731
0.482683
0.389261
0.314063
0.28014
0.268725
0.268596
0.281789
0.319075
0.3802
0.464079
0.567497
0.693101
0.834378
0.948846
0.998644
1.00729
0.948359
0.767371
0.557082
0.455068
0.405521
0.383702
0.375399
0.370243
0.360638
0.348733
0.338089
0.329038
0.324581
0.314065
0.310052
0.32893
0.349169
0.353325
0.321428
0.291779
0.273454
0.264019
0.25337
0.242236
0.227837
0.205572
0.176212
0.159536
0.150539
0.151633
0.168204
0.202132
0.211868
0.202234
0.208061
0.203442
0.197587
0.206126
0.199481
0.200602
0.207003
0.203483
0.205748
0.21185
0.212928
0.215049
0.232049
0.239332
0.252027
0.316124
0.318047
0.327678
0.337477
0.379506
0.434667
0.437292
0.413376
0.427592
0.442075
0.610345
0.706733
0.822292
1.17607
1.21855
1.19991
1.3523
1.4524
1.41956
1.28732
1.15509
1.10668
1.00352
1.02976
1.40069
1.34936
1.64556
1.70937
1.47947
1.52929
1.63306
1.73244
1.85753
2.17015
2.22116
1.95404
1.64888
1.69811
2.15039
1.64114
1.68977
1.96834
1.72624
2.03883
2.41546
2.38274
2.74575
3.24458
2.73247
2.02681
2.08045
2.1237
1.94918
1.8589
2.02719
2.14762
2.25482
2.37898
2.59216
2.81192
2.71719
2.70037
3.32706
3.14233
2.76644
2.34123
2.24271
2.07402
1.97346
2.05278
6.01524
2.53249
1.51697
1.16326
0.972926
0.91952
0.537128
0.29016
0.24024
0.224715
0.217495
0.210929
0.194608
0.174479
0.162058
0.150806
0.143678
0.132413
0.125814
0.12346
0.123005
0.123588
0.126775
0.131302
0.136763
0.14254
0.147402
0.152502
0.159772
0.168829
0.176231
0.185755
0.194844
0.199459
0.201058
0.201919
0.208259
0.227671
0.260164
0.301164
0.344466
0.380902
0.410094
0.426571
0.422632
0.372301
0.29595
0.252581
0.234945
0.230315
0.232243
0.244982
0.275289
0.32295
0.385773
0.458857
0.550191
0.652396
0.748096
0.816626
0.844465
0.839459
0.7825
0.644952
0.527116
0.457772
0.423941
0.403258
0.385022
0.368006
0.349642
0.336543
0.322501
0.314407
0.297512
0.276567
0.261043
0.255085
0.261037
0.283665
0.286559
0.274493
0.262601
0.251649
0.242422
0.231286
0.219342
0.197296
0.172202
0.14958
0.139564
0.143144
0.155126
0.18422
0.180408
0.17804
0.191182
0.18491
0.187668
0.192767
0.192274
0.199455
0.200217
0.203581
0.210355
0.20769
0.208085
0.229835
0.240021
0.24859
0.312977
0.340985
0.327102
0.325481
0.322046
0.355222
0.401841
0.397534
0.416899
0.430146
0.513193
0.644997
0.801389
1.12241
1.17289
1.11883
1.15711
1.36988
1.36203
1.22443
1.14216
1.08428
0.956027
0.882945
0.932096
0.983116
1.39033
1.2415
1.26589
1.24291
1.30898
1.39407
1.64598
1.95516
2.02247
1.68243
1.61872
1.67633
1.90049
1.63492
1.84183
1.98689
1.77479
2.05543
2.34946
2.18443
2.56631
2.47301
1.9635
1.88294
2.05975
2.01614
1.77892
1.75447
1.89583
2.10568
2.21838
2.32781
2.52832
2.71392
2.63147
2.64461
3.27292
2.9969
2.571
2.27052
2.2023
1.97303
1.83148
1.96269
6.58244
2.96254
1.9262
1.2926
1.09661
1.09117
0.609326
0.302833
0.243471
0.218049
0.204914
0.202131
0.197408
0.192201
0.179502
0.164057
0.157245
0.150185
0.143241
0.139284
0.138029
0.137654
0.137787
0.140861
0.146126
0.151061
0.155001
0.160464
0.168098
0.176557
0.187492
0.199002
0.208789
0.214647
0.220276
0.226322
0.233783
0.245808
0.268538
0.302581
0.331119
0.354525
0.368465
0.364813
0.333021
0.281175
0.236119
0.210271
0.201509
0.200053
0.202552
0.211848
0.231952
0.269441
0.322624
0.380049
0.443275
0.520866
0.60801
0.678739
0.71782
0.726404
0.720744
0.676578
0.589351
0.517772
0.468367
0.42958
0.399044
0.3743
0.351179
0.33531
0.316197
0.301682
0.2849
0.259303
0.238293
0.227622
0.223708
0.21826
0.234904
0.254113
0.248093
0.231788
0.226426
0.219887
0.212627
0.196395
0.173182
0.144136
0.124378
0.122872
0.133202
0.148173
0.154472
0.15464
0.159637
0.168534
0.167856
0.172914
0.177249
0.191856
0.194725
0.193568
0.203945
0.205206
0.20196
0.220631
0.24016
0.243917
0.254121
0.323718
0.310298
0.300806
0.300275
0.30459
0.340318
0.362892
0.397642
0.417719
0.478872
0.598274
0.773206
1.06427
1.12973
1.10093
1.04497
1.19105
1.20891
1.15329
1.14058
1.06066
0.902821
0.810352
0.845575
0.88623
1.24962
1.17383
1.2198
1.20502
1.27767
1.40154
1.61652
1.88699
1.78408
1.5303
1.63057
1.65437
1.57652
1.59878
2.11787
1.96574
1.89992
2.43225
2.41597
2.01565
1.97761
1.90075
1.85171
1.92845
2.16746
1.99939
1.69565
1.69967
1.76868
2.07902
2.179
2.26669
2.48879
2.57364
2.52832
2.62591
3.25102
2.82859
2.41438
2.21183
2.15346
1.84961
1.72081
1.87139
7.2552
4.14689
2.4323
1.44168
1.12652
1.1547
0.909983
0.527962
0.435275
0.34238
0.263809
0.250945
0.254649
0.256178
0.233026
0.200033
0.182777
0.1679
0.160076
0.156712
0.155267
0.154959
0.155504
0.158353
0.163866
0.165574
0.166027
0.166727
0.170601
0.180264
0.196117
0.21179
0.215956
0.218132
0.221367
0.228423
0.237394
0.247353
0.266512
0.294519
0.314507
0.321848
0.316554
0.285477
0.252079
0.232303
0.206374
0.184718
0.17624
0.174543
0.175369
0.179127
0.187721
0.207409
0.242998
0.28204
0.323569
0.375156
0.440718
0.505358
0.553072
0.587263
0.595559
0.591217
0.571295
0.521415
0.476
0.434441
0.401577
0.374099
0.350652
0.328696
0.310459
0.283172
0.259466
0.241045
0.222929
0.212526
0.21149
0.202119
0.186295
0.187284
0.197964
0.198812
0.190722
0.187458
0.186385
0.183918
0.169501
0.134632
0.120212
0.118636
0.127402
0.141861
0.147284
0.148216
0.150622
0.15861
0.160148
0.163587
0.163651
0.167455
0.184254
0.184592
0.185838
0.198799
0.196485
0.200469
0.235871
0.228085
0.230186
0.2499
0.272978
0.271281
0.283834
0.294176
0.315569
0.33699
0.374194
0.401041
0.458499
0.574323
0.763968
1.01359
1.08291
1.09138
1.034
0.990907
1.01897
1.05696
1.12805
1.0173
0.814786
0.768667
0.793307
0.836873
1.07143
1.12406
1.1831
1.20631
1.29626
1.40851
1.55652
1.71784
1.38887
1.49401
1.62407
1.59374
1.55178
1.64074
2.22841
2.0612
2.09906
2.70991
2.4664
2.01058
1.89865
1.97838
1.96938
2.12479
2.28684
1.94323
1.64215
1.66064
1.69405
2.04739
2.14249
2.20812
2.47419
2.39331
2.40235
2.6344
3.23879
2.68312
2.28558
2.14267
2.09586
1.73626
1.62641
1.73208
8.2488
5.30717
2.60138
1.39026
0.976785
0.956618
0.873386
0.614982
0.577796
0.464674
0.338591
0.332289
0.325952
0.32457
0.318031
0.276529
0.238005
0.210136
0.192293
0.181699
0.173948
0.171332
0.170519
0.171409
0.172245
0.175131
0.176646
0.17772
0.179233
0.185662
0.201109
0.225321
0.235368
0.234527
0.228817
0.230522
0.240392
0.251779
0.264496
0.272414
0.274401
0.271934
0.260134
0.230402
0.204592
0.192276
0.18095
0.165064
0.156378
0.15323
0.152495
0.152631
0.155318
0.164615
0.185332
0.207563
0.230477
0.260406
0.304849
0.353308
0.390944
0.424281
0.446715
0.461757
0.462722
0.459688
0.444329
0.410662
0.382542
0.354006
0.33316
0.308639
0.287396
0.250562
0.231419
0.217154
0.205517
0.200614
0.198766
0.192234
0.168459
0.155051
0.151215
0.151657
0.16286
0.16803
0.167453
0.162163
0.152633
0.126733
0.116092
0.115586
0.122954
0.137201
0.144597
0.144327
0.145402
0.154355
0.156725
0.159241
0.160532
0.161113
0.165443
0.167947
0.172432
0.192202
0.190447
0.192115
0.212685
0.215687
0.220525
0.234635
0.248687
0.258286
0.276654
0.28877
0.305405
0.32841
0.365741
0.393994
0.435606
0.538808
0.753935
0.976958
1.04607
1.07915
1.04374
0.91792
0.890105
0.988346
1.08608
0.951826
0.736628
0.721995
0.774855
0.792968
0.889592
1.05932
1.16843
1.20705
1.33807
1.43285
1.43001
1.35718
1.37461
1.46184
1.58138
1.53806
1.62314
1.83716
2.36379
2.4584
2.44651
2.61939
2.382
2.0968
2.04381
2.08134
2.13052
2.28184
2.20503
1.78055
1.56571
1.62039
1.63311
1.98736