/*--------------------------------*- C++ -*----------------------------------*\
| =========                 |                                                 |
| \\      /  F ield         | OpenFOAM: The Open Source CFD Toolbox           |
|  \\    /   O peration     | Version:  dev                                   |
|   \\  /    A nd           | Web:      http://www.openfoam.org               |
|    \\/     M anipulation  |                                                 |
\*---------------------------------------------------------------------------*/
FoamFile
{
    version     2.0;
    format      ascii;
    class       volScalarField;
    object      p;
    location    "9.145";
}
// * * * * * * * * * * * * * * * * * * * * * * * * * * * * * * * * * * * * * //

dimensions      [1 -1 -2 0 0 0 0];

internalField   nonuniform List<scalar> 
12225
(
102685
102626
102523
102379
102190
101970
101714
101446
101142
100840
100503
100174
99810.9
99440.3
99044.7
98636.1
98098.3
97404.6
102680
102625
102522
102378
102188
101969
101714
101444
101141
100839
100502
100173
99810.9
99439.2
99039.1
98621.3
98096.4
97511.1
102677
102622
102519
102375
102185
101966
101711
101441
101139
100837
100501
100169
99810.4
99437.1
99040.8
98616.4
98114.3
97604.1
102669
102615
102513
102369
102179
101960
101706
101436
101135
100833
100499
100165
99809.6
99436.5
99048.9
98628.7
98150.5
97695.9
102656
102604
102504
102360
102169
101951
101698
101429
101130
100827
100497
100161
99810.1
99440
99058.6
98646.5
98198.6
97778
102636
102587
102488
102345
102155
101938
101686
101417
101121
100818
100493
100158
99810.6
99446.7
99073.9
98677.4
98266.7
97883.3
102611
102563
102465
102322
102136
101918
101669
101401
101108
100805
100487
100155
99812.9
99457.3
99098.4
98725.5
98357.5
98014.4
102583
102535
102440
102296
102112
101895
101649
101381
101094
100791
100478
100150
99816
99470.6
99122.8
98768.8
98431.4
98107
102552
102505
102412
102269
102087
101870
101627
101361
101078
100777
100469
100146
99817.7
99481.5
99145.4
98808
98487.2
98183.6
102510
102465
102374
102232
102053
101838
101598
101334
101055
100759
100455
100139
99818.4
99492.2
99168.2
98848.1
98541.8
98251.7
102450
102413
102325
102185
102009
101796
101559
101299
101024
100733
100434
100126
99815.7
99501
99189.6
98885.1
98592.7
98315.1
102379
102345
102260
102123
101949
101739
101507
101250
100981
100697
100406
100107
99807.2
99505.3
99207.9
98917.8
98638.9
98373.4
102293
102257
102174
102040
101869
101664
101436
101187
100923
100648
100366
100079
99789.8
99502.1
99218.7
98943.6
98678.1
98424.9
102170
102142
102060
101931
101764
101566
101343
101101
100846
100581
100309
100035
99759
99486.1
99217.6
98957.2
98705.8
98465.3
102016
101992
101913
101789
101627
101436
101221
100989
100744
100491
100231
99970.5
99709.8
99452.1
99199.3
98953.8
98716.8
98489.4
101829
101800
101724
101606
101452
101269
101065
100844
100611
100371
100126
99880.4
99635.5
99393.9
99157.2
98927.2
98705
98491.2
101585
101561
101490
101379
101233
101061
100868
100660
100442
100217
99988.2
99758.9
99530.9
99306
99085.9
98871.7
98664.5
98464.8
101325
101297
101230
101125
100989
100827
100647
100453
100249
100040
99827.1
99614.1
99402.4
99193.6
98989
98789.8
98596.7
98410
101080
101053
100989
100890
100761
100609
100440
100258
100067
99871.1
99672.2
99472.9
99274.7
99079.1
98887.3
98700.3
98518.7
98342.8
100884
100854
100790
100694
100571
100427
100266
100094
99913.3
99727.8
99539.8
99351.1
99163.3
98977.9
98795.9
98618.2
98445.4
98277.8
100725
100695
100631
100537
100418
100279
100125
99960.1
99787.7
99610.5
99430.9
99250.5
99070.8
98893.1
98718.5
98547.9
98381.6
98220.2
100605
100572
100506
100413
100296
100162
100013
99854.4
99688.2
99517.5
99344.2
99170
98996.5
98824.8
98655.9
98490.5
98329.1
98172.1
100521
100480
100412
100318
100204
100072
99927.4
99773
99611.6
99445.7
99277.1
99107.6
98938.7
98771.5
98606.8
98445.4
98287.6
98134
100458
100412
100341
100247
100134
100005
99863
99711.9
99554.1
99391.7
99226.7
99060.7
98895.1
98731.1
98569.5
98410.9
98255.9
98104.9
100409
100362
100290
100196
100083
99955.4
99816
99667.4
99512.1
99352.3
99189.9
99026.4
98863.3
98701.6
98542.2
98385.6
98232.6
98083.4
100373
100327
100254
100159
100047
99920.8
99782.9
99635.9
99482.4
99324.5
99163.9
99002.3
98840.9
98680.8
98522.9
98367.8
98216.1
98068.2
100352
100305
100230
100135
100023
99897.6
99760.6
99614.8
99462.5
99305.7
99146.4
98986.1
98825.9
98666.9
98510
98355.9
98205.1
98057.9
100343
100292
100215
100120
100008
99883
99746.6
99601.4
99449.9
99294
99135.4
98975.8
98816.4
98658.2
98501.9
98348.4
98198.1
98051.5
100339
100285
100207
100111
99999.6
99874.8
99738.7
99594
99442.9
99287.4
99129.3
98970.1
98811.2
98653.3
98497.4
98344.3
98194.3
98048
100344
100284
100204
100108
99996.1
99871.4
99735.4
99590.9
99440
99284.7
99126.8
98967.8
98809
98651.4
98495.7
98342.7
98192.9
98046.8
92568.3
92568.6
92569.1
92570
92571.4
92573.4
92575.9
92579.3
92583.7
92589
92595.5
92603
92611.9
92622.3
92634.6
92648.9
92665.4
92684.6
92707.1
92733.2
92763.4
92798.2
92838.1
92883.5
92934.8
92992.6
93057.2
93128.9
93207.8
93294.1
93388
93489.8
93599.7
93718.3
93845.4
93981.1
94125.2
94278.3
94440.8
94612.8
94794.4
94985.8
95187.3
95398.5
95619.3
95849.5
96088
96334.7
96587.7
96847.1
97111
97379.1
97651.2
97927.2
98206.7
98489.2
98774.6
99063
99354.5
99648.7
99945.5
100244
100545
100846
101146
101443
101738
102035
102330
102619
102907
103197
103488
103777
104059
104332
104606
104877
105146
105412
105675
105935
106191
106443
106689
106930
107163
107389
107606
107813
108012
108200
108378
108547
108706
108856
108999
109134
109265
109390
109510
109629
109745
109861
109975
110091
110209
110329
110452
110577
110704
110833
110969
111115
111269
111430
111603
111796
112004
112231
112486
112776
113104
113476
113892
114346
114832
115356
115941
116597
117328
118149
119041
120001
121025
122103
123250
124490
125914
127362
128611
129921
131375
132808
134268
135715
137124
138557
140000
141436
142809
144114
145351
146475
147439
148300
148956
149432
149741
149872
149792
149564
149159
148584
147896
147155
146344
145435
144399
143229
141924
140403
138687
136690
134629
132471
130280
128173
126193
124347
92578.8
92578.9
92579.4
92580.2
92581.4
92583.1
92585.8
92589.3
92593.6
92598.7
92604.8
92612.2
92620.7
92630.6
92642.3
92656.1
92672.2
92690.9
92712.9
92738.4
92768
92802.1
92841.3
92885.9
92936.5
92993.4
93056.9
93127.5
93205.4
93290.8
93384
93485.3
93594.9
93713.5
93840.7
93975.2
94117.5
94269.5
94430.7
94600.9
94781.6
94972.3
95172.3
95381.5
95600.7
95829.1
96065.1
96313.5
96563.9
96820.1
97081.7
97348
97618
97891.9
98170.1
98452.3
98737.1
99024.2
99314.4
99608.2
99904.6
100202
100501
100802
101104
101403
101695
101989
102291
102589
102867
103147
103436
103725
104006
104282
104555
104825
105093
105359
105622
105882
106137
106389
106635
106875
107108
107333
107550
107757
107955
108143
108321
108489
108648
108799
108941
109077
109207
109332
109452
109570
109686
109801
109916
110031
110146
110264
110385
110508
110634
110761
110893
111034
111183
111338
111504
111690
111891
112110
112359
112644
112967
113329
113732
114172
114645
115160
115736
116381
117097
117892
118767
119713
120723
121788
122915
124130
125500
126889
128175
129495
130924
132329
133762
135189
136585
138008
139432
140845
142193
143475
144694
145803
146760
147614
148280
148753
149069
149214
149147
148930
148545
147976
147296
146575
145791
144913
143917
142783
141516
140061
138400
136462
134422
132286
130125
128051
126099
124257
92599.9
92600.1
92600.6
92601.4
92602.8
92604.2
92606.4
92609.1
92613.6
92618
92623.3
92629.8
92637.5
92646.5
92657.3
92670.1
92685.1
92702.8
92723.6
92747.8
92776.2
92809.2
92846.9
92890.1
92939.4
92994.9
93057.3
93126.2
93202.4
93286.2
93377.9
93477.6
93585.5
93702
93826.9
93960.1
94101.7
94252.8
94413.5
94582.4
94759.3
94946
95143.4
95349.5
95567.3
95793.3
96025.9
96267.3
96514.9
96766.6
97023
97284.9
97551.4
97822.3
98098.7
98379.6
98661.9
98945.1
99232
99524.6
99821.1
100118
100415
100712
101013
101317
101622
101908
102197
102487
102776
103060
103343
103625
103903
104178
104450
104720
104987
105252
105515
105774
106029
106279
106524
106763
106996
107221
107437
107644
107841
108029
108206
108374
108533
108683
108825
108961
109090
109214
109334
109451
109566
109681
109794
109907
110020
110134
110251
110369
110490
110614
110739
110868
111007
111152
111304
111472
111657
111862
112099
112372
112682
113025
113401
113813
114261
114759
115317
115936
116621
117375
118214
119121
120100
121151
122252
123420
124700
126021
127309
128638
130021
131375
132763
134147
135512
136908
138288
139648
140944
142183
143362
144437
145381
146215
146891
147360
147681
147859
147830
147634
147295
146761
146105
145411
144661
143829
142905
141836
140635
139308
137768
135951
133960
131883
129799
127792
125888
124063
92631.8
92632
92632.3
92632.9
92633.5
92634.9
92637.1
92639.4
92642.4
92646.1
92650.6
92656.1
92662.7
92670.7
92680.2
92691.4
92705
92721
92740
92762.4
92789.2
92820.2
92856
92897.6
92944.9
92998.2
93058.1
93125.3
93199.9
93281.6
93371
93468.5
93573.9
93687.5
93809.7
93940.2
94079.6
94228.2
94385.1
94550.9
94726.7
94912.5
95105.2
95306.6
95518.7
95739.3
95966.7
96202
96444
96690
96940.1
97195.6
97455.9
97722.1
97995
98273
98553
98834.5
99118.6
99405.2
99694.5
99988.1
100285
100583
100885
101182
101477
101771
102062
102348
102633
102917
103198
103477
103753
104026
104297
104565
104831
105095
105356
105614
105868
106117
106361
106599
106831
107055
107270
107476
107673
107860
108037
108204
108363
108512
108654
108789
108917
109041
109159
109275
109388
109501
109611
109721
109831
109940
110051
110161
110274
110392
110507
110618
110739
110872
111009
111153
111315
111496
111714
111972
112260
112573
112913
113291
113708
114174
114699
115278
115913
116609
117393
118249
119183
120201
121270
122405
123589
124830
126071
127373
128704
130009
131348
132674
133982
135323
136643
137936
139164
140358
141492
142510
143434
144249
144916
145389
145702
145908
145933
145766
145488
145032
144447
143802
143081
142283
141440
140464
139337
138143
136786
135138
133254
131277
129303
127387
125544
123755
92674.4
92674.4
92674.6
92674.8
92675.5
92676.5
92677.7
92679.4
92681.7
92684.5
92688.2
92692.5
92697.7
92704
92711.7
92721
92732.4
92746.5
92763.4
92783.7
92808.2
92837
92870.6
92909.6
92954.2
93004.7
93062.1
93126.3
93197.7
93276.9
93363.9
93458.4
93561
93671.8
93790.5
93917.3
94053
94197.1
94350.1
94512.7
94683.6
94863.3
95051.4
95247.8
95455.4
95670.6
95892.4
96121.2
96355.9
96594.3
96837.1
97086.5
97341.2
97600.9
97866.3
98138.9
98414
98690.2
98971.6
99254.8
99540.3
99828.9
100120
100414
100710
101006
101299
101589
101877
102162
102446
102728
103007
103284
103558
103828
104097
104363
104627
104889
105149
105405
105657
105905
106147
106384
106614
106836
107051
107256
107452
107639
107815
107982
108139
108288
108429
108563
108690
108812
108929
109043
109153
109262
109370
109474
109578
109681
109784
109886
109986
110093
110199
110293
110392
110504
110621
110743
110877
111032
111224
111456
111715
111992
112291
112625
113001
113421
113896
114423
114991
115621
116341
117137
118013
118973
119988
121096
122185
123354
124560
125795
127066
128317
129586
130837
132081
133333
134580
135796
136934
138069
139165
140129
141032
141844
142477
142959
143294
143512
143574
143441
143202
142832
142352
141799
141139
140382
139617
138753
137712
136637
135477
134053
132326
130486
128637
126822
125058
123339
92728.7
92728.8
92728.7
92729
92729.1
92729.3
92729.8
92730.6
92731.9
92733.6
92735.8
92738.6
92742.1
92746.5
92751.9
92759
92768
92779.6
92794.3
92812.4
92834.5
92861
92892.1
92928.3
92969.6
93016.7
93069.9
93129.6
93197.1
93273.6
93356.4
93447.2
93546
93652.6
93767.1
93889.9
94021.1
94160.5
94308.6
94466.2
94632.8
94808.5
94992.7
95185.2
95385
95592.2
95806.1
96026.5
96252.2
96482.1
96716.8
96957.9
97205.8
97460.5
97721.1
97986.9
98255.1
98525.2
98798.1
99074
99353.4
99636.7
99923.9
100213
100504
100793
101080
101366
101651
101933
102215
102495
102772
103048
103319
103587
103852
104115
104376
104636
104894
105148
105397
105642
105882
106117
106345
106565
106778
106983
107178
107364
107540
107706
107862
108010
108150
108284
108410
108529
108645
108756
108863
108967
109070
109168
109265
109359
109452
109544
109631
109720
109812
109896
109973
110062
110154
110250
110354
110480
110640
110839
111062
111297
111549
111830
112157
112519
112930
113381
113885
114451
115096
115813
116625
117522
118471
119521
120543
121653
122811
123989
125186
126367
127540
128696
129874
131031
132188
133319
134355
135410
136447
137358
138244
139062
139665
140133
140507
140759
140856
140782
140566
140247
139856
139398
138836
138182
137510
136762
135826
134871
133902
132725
131195
129512
127795
126091
124430
122812
92794.4
92794.2
92794.3
92794.1
92793.7
92793.2
92792.8
92792.7
92792.8
92793.1
92793.8
92794.9
92796.5
92798.7
92801.8
92806.5
92813.1
92822
92834
92849.5
92869.1
92893.1
92921.5
92954.4
92992.1
93035.1
93083.6
93138.8
93201.8
93272.3
93351.2
93437.7
93531.6
93632.8
93742
93859.2
93984.3
94117.8
94259.7
94410.8
94571.7
94742
94921.1
95108.7
95303.9
95501.2
95705.4
95916.1
96131.8
96351.3
96578.1
96812.5
97053.5
97300.8
97554.3
97812.6
98073.4
98336.1
98601.8
98871.2
99145
99421.9
99701.5
99982.8
100264
100545
100826
101107
101386
101666
101944
102222
102498
102772
103041
103306
103567
103825
104081
104337
104591
104842
105087
105328
105565
105797
106024
106239
106451
106655
106849
107034
107209
107374
107530
107677
107817
107948
108073
108191
108304
108412
108516
108615
108712
108804
108892
108977
109057
109138
109212
109279
109349
109416
109476
109541
109608
109674
109747
109842
109967
110126
110306
110496
110695
110918
111191
111485
111823
112192
112615
113107
113670
114319
115073
115910
116798
117802
118772
119817
120888
121995
123096
124196
125285
126346
127432
128491
129545
130575
131524
132513
133448
134289
135153
135932
136539
137005
137376
137652
137816
137833
137673
137399
137068
136675
136210
135704
135168
134536
133728
132912
132125
131188
129872
128353
126776
125199
123664
122161
92872.7
92872.4
92872.2
92871.4
92870.1
92868.7
92867.4
92866
92864.8
92863.6
92862.7
92861.9
92861.4
92861.4
92862.3
92864.4
92868.3
92874.5
92883.5
92896
92912.6
92933.6
92958.7
92988
93021.8
93060.4
93104.6
93155.3
93213.4
93279.1
93351.9
93432
93520.5
93613.7
93715.8
93826
93944.2
94070.4
94204.7
94348.7
94502.5
94665.7
94837.7
95016.7
95201
95391.7
95587.6
95789
95994.9
96206.4
96425.4
96651.9
96885.3
97124.8
97369.9
97619
97871.1
98126.2
98385.4
98648.8
98915.9
99184.8
99454.3
99724.8
99996.3
100269
100542
100816
101089
101364
101639
101913
102188
102460
102729
102991
103248
103499
103749
103998
104247
104493
104733
104968
105201
105429
105652
105866
106074
106275
106468
106650
106824
106988
107144
107290
107428
107557
107679
107796
107906
108011
108111
108204
108294
108380
108460
108535
108601
108664
108725
108773
108817
108859
108898
108938
108979
109016
109056
109115
109202
109319
109455
109598
109743
109904
110108
110348
110608
110878
111208
111630
112145
112727
113408
114181
115014
115945
116873
117863
118856
119872
120880
121869
122862
123833
124808
125754
126705
127620
128492
129407
130211
130978
131840
132530
133123
133629
133988
134265
134504
134621
134555
134362
134090
133763
133374
132998
132624
132118
131465
130805
130190
129472
128368
127016
125591
124151
122760
121387
92964.3
92963.9
92963.1
92961.6
92959.6
92957.2
92954.4
92951.5
92948.5
92945.7
92942.9
92940.3
92937.9
92935.8
92934.3
92933.9
92935.1
92938.4
92944.4
92953.6
92966.4
92983.3
93004.2
93029.2
93058.6
93092.9
93132.6
93178.2
93230.3
93288.9
93354.1
93426.2
93507.2
93592.7
93689.2
93792.2
93902.2
94019.9
94146
94282.2
94426.6
94582.5
94746.3
94915.7
95091.1
95271.4
95456.9
95647.7
95844.6
96048
96258.4
96476.1
96701.1
96933.1
97170.5
97411
97654.1
97901.1
98152.8
98408.2
98666.4
98925.9
99185.4
99444.9
99705.5
99968
100233
100499
100767
101036
101305
101576
101847
102117
102384
102646
102900
103146
103388
103628
103869
104108
104343
104572
104798
105021
105240
105451
105655
105852
106042
106222
106392
106553
106705
106849
106985
107113
107232
107346
107453
107552
107648
107737
107818
107895
107964
108030
108083
108128
108172
108203
108221
108236
108248
108260
108275
108286
108292
108309
108351
108424
108518
108615
108708
108806
108939
109111
109306
109499
109767
110134
110578
111077
111667
112365
113105
113958
114854
115790
116717
117644
118549
119415
120282
121147
122015
122847
123713
124531
125317
126123
126839
127537
128348
128990
129561
130079
130435
130733
131038
131234
131265
131182
130986
130742
130432
130152
129929
129560
129075
128586
128127
127600
126706
125516
124253
122954
121716
120493
93070.2
93069.5
93068.2
93066.1
93063.2
93059.6
93055.4
93050.9
93046.2
93041.6
93037
93032.3
93027.7
93023.3
93019.3
93016.3
93014.7
93014.9
93017.4
93022.6
93031.1
93043.1
93059
93079.2
93103.7
93132.9
93167.1
93206.8
93252.3
93303.6
93360.9
93424.6
93495.1
93572.5
93657.2
93751.6
93855.2
93965.2
94084.4
94212.2
94349
94495.3
94648.2
94807
94970.4
95140.9
95316.2
95497.5
95685.3
95880.4
96080.7
96288.3
96503.4
96725.8
96954.5
97187.3
97421.2
97660.9
97905.1
98152.7
98401
98649.6
98898.6
99148.1
99398.8
99651.9
99907.5
100166
100427
100689
100953
101218
101484
101750
102013
102272
102525
102770
103006
103234
103466
103697
103924
104144
104362
104578
104790
104995
105195
105388
105574
105752
105918
106074
106222
106362
106493
106617
106734
106842
106946
107041
107129
107212
107287
107355
107412
107464
107505
107532
107556
107568
107567
107556
107540
107518
107501
107484
107460
107435
107431
107456
107506
107558
107600
107638
107706
107796
107938
108096
108325
108629
108978
109384
109875
110493
111149
111888
112723
113584
114437
115265
116054
116822
117564
118322
119090
119802
120562
121339
122050
122736
123473
124141
124823
125454
126004
126499
126852
127172
127521
127769
127882
127912
127805
127653
127430
127243
127141
126911
126593
126280
125965
125598
124905
123863
122769
121615
120527
119461
93191.4
93190.3
93188.3
93185.4
93181.6
93176.8
93171.1
93164.9
93158.7
93152
93145.1
93138
93130.7
93123.4
93116.4
93110.2
93105.2
93101.7
93100.2
93101.3
93105.2
93112.2
93122.9
93137.8
93156.9
93180.3
93208.4
93241.5
93279.6
93323
93372.4
93427.8
93489.5
93557.7
93633.2
93717
93809.6
93912.8
94024.2
94143.7
94271.3
94406.2
94547.9
94695.2
94847.4
95005.5
95170.5
95341.7
95519.1
95702.7
95895.5
96093.3
96299
96511.7
96730.7
96955.9
97183.3
97411.1
97644.9
97883.6
98124
98363.4
98602.2
98841.5
99082.5
99326.1
99573
99823.2
100076
100332
100590
100849
101108
101367
101623
101877
102127
102370
102603
102826
103046
103266
103483
103693
103899
104104
104307
104505
104699
104886
105068
105241
105402
105554
105696
105830
105957
106075
106188
106292
106389
106480
106561
106636
106701
106759
106806
106843
106872
106882
106883
106875
106855
106821
106778
106725
106673
106622
106566
106504
106457
106433
106436
106441
106435
106421
106422
106441
106529
106661
106847
107083
107354
107683
108096
108573
109183
109754
110456
111247
112008
112735
113424
114107
114748
115435
116107
116695
117345
118101
118774
119409
120146
120806
121368
122011
122535
123018
123391
123683
124014
124290
124485
124612
124598
124547
124414
124323
124316
124213
124057
123906
123721
123490
122966
122080
121147
120146
119195
118272
93329.3
93327.8
93325
93321.1
93316
93309.6
93302.2
93294.3
93286.3
93277.5
93267.9
93257.8
93247
93236.1
93225.3
93215.2
93206.1
93198.3
93192.4
93188.7
93187.8
93189.8
93195.3
93204.5
93217.5
93234.6
93256.2
93282.5
93313.9
93350.5
93392.5
93439.8
93493.4
93553.5
93620.7
93695.9
93779.7
93871.8
93972.4
94081.1
94197
94319.9
94449.3
94584.2
94724.6
94871.4
95025
95185.5
95352.4
95525.5
95704.9
95893.4
96088.7
96291
96499.8
96713.9
96933.6
97155.3
97379.9
97608
97838.7
98069.9
98300.4
98530.9
98762.6
98997.4
99236
99477.9
99722.9
99970.8
100221
100473
100724
100975
101223
101468
101710
101948
102178
102398
102611
102820
103026
103226
103421
103613
103803
103990
104176
104355
104529
104697
104852
104998
105133
105260
105381
105493
105600
105698
105788
105872
105945
106010
106067
106114
106148
106170
106185
106180
106161
106132
106091
106035
105966
105885
105800
105716
105624
105529
105440
105369
105323
105281
105230
105168
105109
105074
105110
105199
105339
105517
105730
105989
106329
106650
107234
107619
108139
108889
109516
110125
110742
111336
111934
112579
113181
113697
114323
114938
115540
116181
116798
117434
117978
118633
119185
119670
120065
120309
120570
120859
121140
121344
121420
121473
121442
121441
121504
121515
121498
121477
121411
121288
120908
120187
119404
118552
117730
116926
93486.3
93484.3
93480.9
93476
93469.7
93461.8
93452.3
93441.6
93430.1
93417.5
93404.3
93390.3
93375.9
93361.5
93347.2
93333.2
93319.7
93307.3
93296.3
93287.4
93281.1
93277.7
93277.4
93280.6
93287.5
93298.2
93313.3
93332.7
93356.8
93385.8
93419.9
93459.7
93505.7
93558.1
93617.3
93683.6
93757.5
93839
93927.5
94023.9
94127.6
94238.1
94354.7
94477.3
94605.9
94741.2
94883.5
95032.8
95188.7
95351.1
95520.2
95696.7
95880.4
96071.1
96268.2
96471.4
96680.6
96894.4
97111
97330.3
97552.1
97775.3
97998.7
98221.7
98444.6
98673.2
98903
99136.2
99372.3
99611.1
99851.8
100094
100336
100577
100816
101052
101284
101512
101734
101950
102158
102359
102556
102747
102931
103110
103287
103461
103634
103804
103966
104122
104271
104409
104539
104659
104773
104879
104977
105068
105148
105222
105288
105342
105386
105422
105445
105451
105449
105432
105392
105343
105281
105204
105110
105002
104887
104772
104645
104516
104389
104276
104181
104093
104001
103895
103786
103706
103694
103741
103832
103956
104120
104314
104557
104832
105264
105569
105945
106538
107058
107554
108091
108642
109241
109783
110318
110803
111383
111838
112380
112995
113487
114066
114667
115273
115882
116395
116795
117040
117254
117553
117903
118161
118313
118474
118573
118639
118746
118859
118951
119015
119049
119012
118760
118195
117554
116847
116158
115456
93663.1
93660.4
93656.2
93650.6
93643.4
93633.7
93620
93604.1
93588.5
93572.5
93555.4
93537.9
93520.2
93502.1
93483.7
93465.1
93446.8
93429.2
93413
93398.6
93386.4
93376.9
93370.5
93367.2
93367.5
93371.4
93379.3
93391.4
93407.7
93428.6
93454.6
93486.3
93523.9
93567.7
93618
93674.9
93738.4
93808.5
93886.3
93971.2
94062.7
94160.8
94265.1
94375.7
94493.1
94617.4
94748.2
94885.8
95030.3
95181.6
95339.6
95505
95677.5
95856.9
96042.7
96235.2
96433.8
96637.9
96844.3
97053.7
97266.7
97481.7
97698.3
97915.9
98135.6
98352.7
98574
98798.2
99024.8
99253.9
99484.3
99715.9
99947.3
100177
100406
100632
100853
101069
101281
101489
101690
101884
102072
102254
102429
102597
102760
102921
103079
103234
103383
103526
103663
103792
103914
104027
104133
104232
104321
104404
104477
104540
104595
104639
104671
104691
104701
104694
104675
104641
104586
104517
104436
104337
104219
104085
103942
103793
103641
103482
103320
103166
103023
102891
102762
102620
102471
102349
102292
102300
102345
102428
102537
102676
102839
103044
103357
103617
103859
104279
104686
105089
105570
106097
106651
107018
107494
107960
108410
108774
109331
109828
110284
110849
111478
111980
112562
113123
113564
113884
114119
114426
114798
115091
115318
115584
115842
115949
116078
116271
116439
116544
116656
116687
116539
116121
115618
115053
114493
113889
93860.1
93856.6
93850.6
93842.6
93832.8
93820.2
93804.5
93785.9
93766.7
93746.9
93725.4
93702.9
93679.9
93656.4
93632.6
93608.7
93585
93561.9
93540
93519.8
93501.5
93485.6
93472.6
93462.7
93455.9
93452.8
93453.4
93458
93466.7
93479.8
93497.7
93520.9
93549.7
93584.3
93625
93672.1
93725.6
93785.6
93852.3
93925.5
94005.1
94091.5
94184.2
94283.1
94388.7
94501.4
94620.8
94747
94879.9
95019.7
95166.3
95319.9
95480.6
95648.6
95823.4
96004.2
96190.7
96382.1
96579.8
96782.1
96986.7
97193.4
97401.8
97611.5
97822.1
98033.7
98247.1
98462.7
98680.1
98899.4
99119.7
99340.2
99560.9
99779.6
99996.8
100211
100420
100625
100826
101022
101213
101398
101577
101748
101912
102070
102223
102371
102514
102653
102787
102917
103042
103160
103270
103374
103469
103559
103640
103712
103776
103830
103873
103905
103924
103932
103926
103906
103870
103819
103751
103664
103561
103442
103304
103147
102978
102801
102623
102434
102240
102046
101860
101689
101526
101353
101178
101025
100927
100895
100902
100946
101007
101089
101189
101316
101534
101712
101852
102120
102412
102747
103197
103666
104082
104340
104749
105207
105467
105764
106235
106677
107170
107819
108392
108796
109302
109902
110440
110865
111163
111481
111840
112157
112468
112823
113234
113386
113522
113766
113979
114089
114255
114333
114263
113991
113615
113189
112745
112245
94079.7
94074.4
94065.3
94053.1
94038.8
94022.9
94005.4
93986.1
93965.1
93941.1
93914.3
93885.5
93855.4
93824.6
93793.8
93763.3
93733.3
93704.1
93676.1
93649.7
93625.1
93602.8
93583.2
93566.4
93552.7
93542.4
93535.7
93532.8
93534
93539.4
93549.6
93564.6
93584.8
93610.3
93641.4
93678.5
93721.7
93771.2
93826.9
93888.8
93957
94031.5
94112.7
94200.5
94294.6
94395.4
94503.1
94617.9
94739.3
94867.6
95002.8
95145.1
95294.5
95450.8
95613.8
95783.2
95958.9
96140.3
96327.2
96519
96714.5
96912.9
97113.6
97313.3
97516.7
97721
97926.4
98133.2
98341.3
98550.4
98760
98969.2
99178.6
99385.6
99590
99791.6
99988.9
100182
100372
100557
100736
100908
101074
101233
101385
101530
101671
101807
101937
102059
102180
102298
102410
102518
102616
102708
102794
102871
102941
103003
103055
103097
103128
103150
103157
103150
103129
103094
103042
102975
102892
102790
102666
102529
102372
102198
102005
101803
101597
101381
101157
100927
100702
100496
100303
100107
99914.9
99747.6
99617.5
99542.3
99513.6
99519.3
99539.2
99572
99616.9
99674.4
99801.7
99893.6
99932.4
100085
100295
100561
100955
101349
101599
101803
102158
102520
102646
102798
103121
103614
104161
104811
105337
105707
106193
106823
107475
107986
108354
108681
109034
109381
109776
110205
110702
110929
111078
111344
111577
111676
111867
111973
111965
111818
111561
111269
110936
110542
94327.2
94319.3
94307.3
94292
94273.1
94253.1
94231.6
94208.9
94182.4
94151.6
94118.4
94083
94046
94008.1
93969.6
93931.2
93893.2
93856.4
93821.1
93787.6
93756.3
93727.5
93701.3
93677.9
93657.4
93640.1
93626.1
93615.7
93609.3
93607.1
93609.3
93616
93627.7
93644.7
93666.7
93693.9
93726.9
93765.8
93810.6
93861.5
93918.4
93981.6
94051.3
94127.8
94210.9
94300.5
94396.9
94500.7
94610.2
94727.2
94851.4
94982.6
95121
95266.2
95418.1
95576.6
95741.3
95912
96088.2
96269.3
96454.5
96643.2
96834.3
97026.6
97221.2
97417.2
97613.8
97811.5
98009.8
98208.5
98407.5
98605.3
98802.3
98997.3
99189.1
99378.4
99563.5
99744.8
99922.4
100095
100260
100418
100570
100714
100853
100985
101115
101234
101350
101457
101563
101668
101768
101863
101951
102033
102106
102173
102232
102281
102321
102350
102369
102376
102372
102352
102317
102267
102200
102116
102018
101901
101759
101605
101431
101242
101028
100805
100572
100333
100083
99820.5
99562.2
99323.9
99103.8
98889.6
98689.7
98515.9
98364.3
98250.8
98187.1
98157
98136.5
98123.5
98123.9
98118.2
98151.9
98184.7
98151.7
98204.9
98349.5
98526.6
98815
99130.7
99291.3
99443.2
99722.4
99968
99992.7
99989.7
100238
100786
101322
101833
102342
102749
103271
103894
104600
105204
105653
106009
106389
106779
107244
107733
108241
108557
108731
108997
109238
109329
109510
109626
109666
109623
109475
109309
109082
108791
94609
94599.7
94583.9
94564.1
94541.7
94516.2
94487.5
94455.4
94420.3
94382
94341.1
94298.1
94253.1
94206.4
94158.7
94110.7
94063.6
94017.8
93973.9
93932.3
93893.3
93857.4
93824.5
93794.6
93767.8
93744.1
93723.5
93706
93692.1
93681.9
93675.8
93674.3
93677.7
93685.8
93698.7
93716.7
93740
93768.8
93803.1
93843.1
93889.1
93941.4
94000.1
94065.3
94137.3
94216
94301.3
94393
94493
94599.8
94713.4
94833.8
94961.3
95095.9
95237.5
95385.8
95540.4
95701
95867
96038
96213.1
96391.8
96572.9
96756.3
96941.1
97127.4
97314.5
97502.3
97690.5
97878.1
98065.8
98252
98436.3
98618.9
98798.2
98974.7
99147.3
99315.7
99478.7
99636.5
99787
99930.7
100069
100198
100324
100443
100558
100663
100760
100857
100946
101037
101122
101204
101280
101350
101412
101467
101513
101551
101579
101596
101604
101598
101581
101548
101498
101433
101353
101253
101139
101008
100853
100683
100493
100288
100059
99818.4
99565.4
99303.1
99028.5
98738.2
98449.8
98184.1
97939.9
97712.2
97508.7
97328.2
97165.9
97024.4
96929.8
96867.2
96807.8
96753.9
96711.7
96653.2
96613
96612.6
96532.4
96494.9
96562.5
96650
96812.9
97047.6
97178.4
97259.6
97431.8
97591.6
97546.3
97484.8
97779
98275.7
98739.9
99127.7
99577.5
100010
100539
101122
101811
102515
103069
103497
103925
104366
104877
105405
105890
106281
106479
106730
106973
107063
107203
107312
107384
107422
107385
107322
107192
106997
94866.1
94855.9
94838.3
94815.7
94789.2
94757.6
94721.5
94681.2
94637.6
94591.4
94542.4
94491.5
94438.2
94382.7
94325.4
94267.9
94211.7
94157.4
94105.5
94056.5
94011.2
93969.7
93931.7
93897.1
93865.5
93836.7
93810.7
93787.7
93767.9
93751.4
93738.6
93730
93725.7
93726.1
93731.4
93741.6
93756.9
93777.5
93803.5
93834.9
93872.1
93915.2
93964.8
94020.9
94083.7
94153.4
94229.9
94313.3
94403.9
94501.6
94606.2
94717.6
94835.9
94961.6
95094.4
95234
95380.1
95532.2
95689.8
95852.2
96018.9
96189.3
96362.2
96537.4
96713.8
96891.4
97069.5
97247.4
97425.8
97603
97779.6
97955
98127.7
98297.5
98464.8
98629.6
98789.9
98945
99094.6
99237.6
99376
99506.1
99630.8
99747.4
99859.9
99967.7
100065
100159
100241
100326
100404
100481
100555
100624
100689
100747
100796
100838
100871
100895
100913
100917
100914
100895
100864
100819
100757
100678
100586
100474
100345
100201
100035
99848.8
99647.9
99427.9
99186.5
98928
98658.6
98377.5
98084.4
97770.6
97456.5
97166.8
96902.7
96663.2
96455.9
96269.1
96099.1
95941
95818.6
95727.7
95640.6
95550.7
95473.4
95383.8
95289.9
95240
95154.4
95042
95026.2
95041.8
95091.4
95228.8
95324.8
95351.2
95436.9
95533
95485
95437.7
95784.5
96209.8
96553.7
96872.1
97215.7
97628.7
98148.1
98698.6
99310.8
100040
100712
101239
101710
102196
102731
103268
103721
104139
104372
104593
104829
104908
104983
105069
105157
105255
105306
105321
105273
105161
95077.8
95066.9
95046.6
95020.6