/*--------------------------------*- C++ -*----------------------------------*\
| =========                 |                                                 |
| \\      /  F ield         | OpenFOAM: The Open Source CFD Toolbox           |
|  \\    /   O peration     | Version:  dev                                   |
|   \\  /    A nd           | Web:      http://www.openfoam.org               |
|    \\/     M anipulation  |                                                 |
\*---------------------------------------------------------------------------*/
FoamFile
{
    version     2.0;
    format      ascii;
    class       surfaceScalarField;
    object      phi;
    location    "9.145";
}
// * * * * * * * * * * * * * * * * * * * * * * * * * * * * * * * * * * * * * //

dimensions      [1 0 -1 0 0 0 0];

internalField   nonuniform List<scalar> 
24170
(
2.15595e-06
7.74254e-07
1.20498e-06
2.90847e-07
8.01073e-07
-2.06319e-07
6.91883e-07
-4.55021e-07
6.96952e-07
-5.24315e-07
7.88766e-07
-5.67151e-07
8.90429e-07
-5.37488e-07
1.06596e-06
-5.71273e-07
1.28721e-06
-5.94369e-07
1.63031e-06
-6.72508e-07
1.77622e-06
-4.62098e-07
2.42701e-06
-9.29397e-07
2.61551e-06
-4.4805e-07
3.74516e-06
-1.37272e-06
3.87476e-06
-3.56291e-07
7.1107e-06
-3.44675e-06
1.21683e-05
-5.2931e-06
-1.33794e-06
1.32987e-05
3.95005e-06
3.00835e-07
3.14341e-06
4.16906e-07
2.53644e-06
-2.38292e-07
2.15461e-06
-6.6577e-07
1.92978e-06
-8.47269e-07
1.77e-06
-9.0801e-07
1.82737e-06
-1.05284e-06
1.70539e-06
-8.67409e-07
2.0359e-06
-1.31118e-06
2.24316e-06
-1.23169e-06
2.54306e-06
-1.08702e-06
3.64369e-06
-2.32347e-06
3.56914e-06
-6.49868e-07
4.75755e-06
-2.81863e-06
5.16394e-06
-1.00268e-06
8.31417e-06
-6.81667e-06
1.04005e-05
-7.62236e-06
-3.03673e-06
1.18501e-05
4.70568e-06
-7.57971e-07
4.41034e-06
-3.29769e-08
4.1656e-06
-6.95496e-07
3.8553e-06
-1.00582e-06
3.63487e-06
-1.22695e-06
3.46068e-06
-1.28274e-06
3.44548e-06
-1.53871e-06
3.33778e-06
-1.21836e-06
3.56601e-06
-1.95947e-06
4.04013e-06
-2.09034e-06
3.91494e-06
-1.32397e-06
5.23323e-06
-3.95344e-06
5.12737e-06
-8.4001e-07
6.65646e-06
-4.62881e-06
7.3558e-06
-1.97142e-06
8.65569e-06
-8.35484e-06
8.31713e-06
-7.52391e-06
-3.47055e-06
8.50827e-06
4.9644e-06
-1.57275e-06
5.05639e-06
-9.41175e-07
5.11186e-06
-1.51911e-06
5.15405e-06
-1.7604e-06
4.91194e-06
-1.64133e-06
5.19057e-06
-2.16044e-06
4.98634e-06
-1.88205e-06
5.45759e-06
-2.19009e-06
5.30475e-06
-2.26408e-06
5.90881e-06
-3.10892e-06
5.41588e-06
-1.22762e-06
6.21515e-06
-5.09567e-06
6.37692e-06
-1.31472e-06
7.23596e-06
-5.79714e-06
7.86145e-06
-2.89326e-06
8.59761e-06
-9.35068e-06
7.84962e-06
-7.03367e-06
-3.17632e-06
7.29104e-06
5.33569e-06
-2.26966e-06
6.19156e-06
-2.68857e-06
5.90986e-06
-2.07256e-06
6.35699e-06
-2.98356e-06
5.92577e-06
-1.92726e-06
6.39223e-06
-3.28001e-06
5.83361e-06
-1.91901e-06
6.54235e-06
-3.44408e-06
6.25726e-06
-2.47527e-06
6.78689e-06
-4.0892e-06
6.69429e-06
-1.56193e-06
6.90984e-06
-5.68976e-06
6.99327e-06
-1.73663e-06
7.22203e-06
-6.35896e-06
7.30731e-06
-3.30399e-06
7.89279e-06
-1.02272e-05
8.1509e-06
-7.56375e-06
-4.54513e-06
9.23834e-06
5.51142e-06
-2.77966e-06
6.57378e-06
-4.71846e-06
5.88119e-06
-2.28839e-06
6.7311e-06
-4.67681e-06
6.53368e-06
-2.50762e-06
6.68269e-06
-4.13896e-06
6.38191e-06
-2.26622e-06
7.16636e-06
-4.82119e-06
6.46386e-06
-2.3092e-06
7.04033e-06
-5.15188e-06
7.53437e-06
-2.51416e-06
7.6362e-06
-6.209e-06
7.54227e-06
-2.00873e-06
7.85988e-06
-7.0243e-06
8.25391e-06
-4.03983e-06
8.49257e-06
-1.07864e-05
7.0627e-06
-6.42773e-06
-4.88969e-06
7.12394e-06
6.00794e-06
-3.41884e-06
6.37273e-06
-6.12535e-06
5.88298e-06
-2.78231e-06
6.82397e-06
-6.52702e-06
6.62187e-06
-3.14479e-06
7.2371e-06
-5.52405e-06
7.03815e-06
-2.75889e-06
7.18593e-06
-5.60356e-06
7.15955e-06
-2.86784e-06
8.0171e-06
-6.53883e-06
8.22389e-06
-3.19411e-06
8.34478e-06
-6.77788e-06
8.90748e-06
-2.97625e-06
8.94508e-06
-7.43499e-06
9.4493e-06
-4.8967e-06
8.24641e-06
-9.90865e-06
5.98116e-06
-4.47664e-06
-5.34087e-06
6.13542e-06
5.02098e-06
-4.24388e-06
5.19686e-06
-7.09727e-06
5.08008e-06
-3.41345e-06
5.3464e-06
-7.48545e-06
5.137e-06
-3.57243e-06
5.68706e-06
-6.66098e-06
5.32811e-06
-2.92903e-06
5.62351e-06
-6.3766e-06
5.97549e-06
-3.65983e-06
6.17884e-06
-7.14685e-06
6.47772e-06
-3.84932e-06
6.54471e-06
-7.17706e-06
7.15247e-06
-3.89599e-06
6.79604e-06
-7.3633e-06
7.14197e-06
-5.50792e-06
6.18571e-06
-9.1952e-06
6.48107e-06
-5.00139e-06
-6.12599e-06
7.04293e-06
5.71361e-06
-4.82122e-06
6.08827e-06
-8.37932e-06
5.98741e-06
-4.16432e-06
6.16058e-06
-8.44396e-06
5.90118e-06
-4.03585e-06
6.17682e-06
-7.60047e-06
6.39523e-06
-3.75339e-06
6.70871e-06
-7.23139e-06
7.02186e-06
-4.46602e-06
6.80878e-06
-7.38505e-06
7.35775e-06
-4.80261e-06
7.30826e-06
-7.49348e-06
7.72096e-06
-4.66382e-06
7.59129e-06
-7.56151e-06
8.09272e-06
-6.30248e-06
7.44423e-06
-8.81721e-06
8.11408e-06
-5.92624e-06
-6.40244e-06
8.1391e-06
6.80268e-06
-5.47681e-06
6.84256e-06
-9.43634e-06
6.88881e-06
-5.16843e-06
6.61279e-06
-9.05354e-06
6.82711e-06
-5.06159e-06
6.79075e-06
-8.30883e-06
7.34356e-06
-4.98643e-06
7.38668e-06
-7.88553e-06
7.77641e-06
-5.40458e-06
7.65766e-06
-7.76195e-06
7.93085e-06
-5.52539e-06
7.79822e-06
-7.76283e-06
8.45882e-06
-5.70658e-06
8.60083e-06
-8.06538e-06
8.92687e-06
-6.95475e-06
8.28404e-06
-8.46457e-06
8.78956e-06
-6.70457e-06
-6.89722e-06
9.0159e-06
8.24891e-06
-6.7518e-06
7.89217e-06
-1.02061e-05
8.22189e-06
-6.55425e-06
7.72991e-06
-9.54418e-06
8.02661e-06
-6.24992e-06
7.83664e-06
-8.93756e-06
8.20164e-06
-6.0961e-06
8.22058e-06
-8.57483e-06
8.5886e-06
-6.3682e-06
8.53551e-06
-8.24786e-06
8.97103e-06
-6.44301e-06
8.88348e-06
-8.1088e-06
9.54914e-06
-6.7753e-06
9.6315e-06
-8.52386e-06
9.82432e-06
-7.48882e-06
9.40589e-06
-8.3518e-06
9.89438e-06
-7.47592e-06
-7.50105e-06
1.02254e-05
9.8034e-06
-8.20653e-06
9.34292e-06
-1.0968e-05
9.59939e-06
-7.9503e-06
9.11484e-06
-1.01263e-05
9.47324e-06
-7.57124e-06
9.11086e-06
-9.45508e-06
9.68773e-06
-7.46601e-06
9.42752e-06
-9.03192e-06
1.00088e-05
-7.57863e-06
9.85931e-06
-8.66399e-06
1.05266e-05
-7.61474e-06
1.0503e-05
-8.53897e-06
1.1046e-05
-7.72942e-06
1.08751e-05
-8.73191e-06
1.12055e-05
-8.1615e-06
1.10362e-05
-8.49168e-06
1.13779e-05
-8.10198e-06
-8.06291e-06
1.16698e-05
1.13147e-05
-9.68664e-06
1.0856e-05
-1.17964e-05
1.12065e-05
-9.49788e-06
1.07028e-05
-1.07422e-05
1.11436e-05
-9.02146e-06
1.0771e-05
-1.00013e-05
1.11687e-05
-8.6816e-06
1.0933e-05
-9.53087e-06
1.13299e-05
-8.61731e-06
1.12723e-05
-9.17676e-06
1.17792e-05
-8.62438e-06
1.17648e-05
-8.97438e-06
1.22995e-05
-8.66482e-06
1.21861e-05
-8.98052e-06
1.24829e-05
-8.78116e-06
1.25329e-05
-8.83197e-06
1.28702e-05
-8.70639e-06
-8.58685e-06
1.31438e-05
1.31467e-05
-1.09988e-05
1.24715e-05
-1.24168e-05
1.2721e-05
-1.09567e-05
1.21746e-05
-1.13211e-05
1.24584e-05
-1.03169e-05
1.21484e-05
-1.06011e-05
1.26258e-05
-9.96072e-06
1.25167e-05
-1.01287e-05
1.29906e-05
-9.70318e-06
1.29835e-05
-9.70294e-06
1.3349e-05
-9.4516e-06
1.34302e-05
-9.45969e-06
1.37676e-05
-9.35483e-06
1.38304e-05
-9.3529e-06
1.40762e-05
-9.29915e-06
1.42025e-05
-9.19779e-06
1.43546e-05
-9.07339e-06
-8.9732e-06
1.45434e-05
1.55159e-05
-1.22599e-05
1.47176e-05
-1.28389e-05
1.45649e-05
-1.19425e-05
1.39716e-05
-1.1777e-05
1.39866e-05
-1.12692e-05
1.37816e-05
-1.12242e-05
1.40469e-05
-1.09418e-05
1.4145e-05
-1.08383e-05
1.44997e-05
-1.05709e-05
1.47098e-05
-1.03418e-05
1.50158e-05
-1.01129e-05
1.52149e-05
-9.95305e-06
1.54375e-05
-9.82047e-06
1.55851e-05
-9.69954e-06
1.57024e-05
-9.57945e-06
1.58049e-05
-9.43448e-06
1.59085e-05
-9.28991e-06
-9.12648e-06
1.5966e-05
1.68735e-05
-1.30251e-05
1.65606e-05
-1.35584e-05
1.64608e-05
-1.27848e-05
1.62352e-05
-1.23999e-05
1.62274e-05
-1.20007e-05
1.61117e-05
-1.17369e-05
1.61436e-05
-1.1491e-05
1.61584e-05
-1.12637e-05
1.63013e-05
-1.10254e-05
1.64977e-05
-1.07638e-05
1.67382e-05
-1.05059e-05
1.69703e-05
-1.0276e-05
1.7171e-05
-1.00631e-05
1.73247e-05
-9.85555e-06
1.74128e-05
-9.63895e-06
1.74813e-05
-9.45091e-06
1.75347e-05
-9.27447e-06
-9.08468e-06
1.75734e-05
1.97037e-05
-1.3214e-05
1.91208e-05
-1.36201e-05
1.88709e-05
-1.30902e-05
1.86639e-05
-1.26621e-05
1.85215e-05
-1.22264e-05
1.84047e-05
-1.18838e-05
1.83575e-05
-1.16017e-05
1.83793e-05
-1.13401e-05
1.84561e-05
-1.10635e-05
1.85835e-05
-1.07725e-05
1.87272e-05
-1.0464e-05
1.88732e-05
-1.01804e-05
1.90232e-05
-9.93064e-06
1.91689e-05
-9.68948e-06
1.92992e-05
-9.4347e-06
1.94075e-05
-9.21025e-06
1.94956e-05
-9.00893e-06
-8.78284e-06
1.9548e-05
2.01568e-05
-1.30064e-05
1.96693e-05
-1.31861e-05
1.91921e-05
-1.25933e-05
1.87777e-05
-1.21642e-05
1.84969e-05
-1.17846e-05
1.83187e-05
-1.14651e-05
1.82367e-05
-1.11984e-05
1.8233e-05
-1.09344e-05
1.82783e-05
-1.06359e-05
1.83594e-05
-1.03228e-05
1.84392e-05
-9.96512e-06
1.85428e-05
-9.66416e-06
1.86917e-05
-9.43511e-06
1.88424e-05
-9.18628e-06
1.89919e-05
-8.92398e-06
1.9133e-05
-8.68853e-06
1.92663e-05
-8.48837e-06
-8.25937e-06
1.93827e-05
1.80929e-05
-1.21815e-05
1.77008e-05
-1.23584e-05
1.72975e-05
-1.17087e-05
1.69675e-05
-1.13203e-05
1.67192e-05
-1.09737e-05
1.65196e-05
-1.0649e-05
1.63182e-05
-1.03251e-05
1.61448e-05
-1.00349e-05
1.60451e-05
-9.76651e-06
1.5992e-05
-9.46902e-06
1.59839e-05
-9.12988e-06
1.60184e-05
-8.84514e-06
1.60807e-05
-8.63315e-06
1.61914e-05
-8.44222e-06
1.63066e-05
-8.19333e-06
1.64227e-05
-7.96366e-06
1.6536e-05
-7.77958e-06
-7.56275e-06
1.66375e-05
1.56305e-05
-1.09325e-05
1.52192e-05
-1.12156e-05
1.49276e-05
-1.06566e-05
1.47217e-05
-1.03397e-05
1.4556e-05
-1.00071e-05
1.4406e-05
-9.66382e-06
1.42855e-05
-9.32936e-06
1.42219e-05
-9.0568e-06
1.42245e-05
-8.82897e-06
1.43011e-05
-8.58967e-06
1.44292e-05
-8.28962e-06
1.45568e-05
-7.9939e-06
1.46928e-05
-7.7863e-06
1.48107e-05
-7.59319e-06
1.49023e-05
-7.34064e-06
1.49779e-05
-7.10656e-06
1.50303e-05
-6.91943e-06
-6.70739e-06
1.50567e-05
1.43934e-05
-9.73406e-06
1.38989e-05
-9.83161e-06
1.35919e-05
-9.44063e-06
1.33415e-05
-9.17351e-06
1.30924e-05
-8.8306e-06
1.28475e-05
-8.47408e-06
1.26812e-05
-8.18868e-06
1.25899e-05
-7.95961e-06
1.25704e-05
-7.79131e-06
1.25928e-05
-7.59006e-06
1.26959e-05
-7.36014e-06
1.28446e-05
-7.11132e-06
1.29691e-05
-6.88984e-06
1.30778e-05
-6.69242e-06
1.31908e-05
-6.46907e-06
1.32911e-05
-6.24515e-06
1.33558e-05
-6.04012e-06
-5.85162e-06
1.34108e-05
1.24053e-05
-8.41634e-06
1.21962e-05
-8.6705e-06
1.20815e-05
-8.367e-06
1.19205e-05
-8.04722e-06
1.17423e-05
-7.67523e-06
1.15854e-05
-7.33234e-06
1.14854e-05
-7.08783e-06
1.14438e-05
-6.89311e-06
1.14205e-05
-6.73371e-06
1.13912e-05
-6.52788e-06
1.14132e-05
-6.34147e-06
1.14953e-05
-6.15918e-06
1.15767e-05
-5.95983e-06
1.16414e-05
-5.75597e-06
1.17246e-05
-5.56989e-06
1.18223e-05
-5.39267e-06
1.19234e-05
-5.21102e-06
-5.02689e-06
1.19971e-05
1.14809e-05
-6.87308e-06
1.10611e-05
-7.30194e-06
1.07926e-05
-7.14507e-06
1.06267e-05
-6.92912e-06
1.05336e-05
-6.61673e-06
1.04843e-05
-6.30717e-06
1.04523e-05
-6.07279e-06
1.04262e-05
-5.8721e-06
1.03853e-05
-5.68819e-06
1.03841e-05
-5.52097e-06
1.03789e-05
-5.33109e-06
1.0372e-05
-5.15568e-06
1.03909e-05
-5.0008e-06
1.04429e-05
-4.84287e-06
1.05097e-05
-4.68581e-06
1.05874e-05
-4.55023e-06
1.06902e-05
-4.42276e-06
-4.26887e-06
1.07922e-05
9.87292e-06
-5.67869e-06
9.62276e-06
-6.14158e-06
9.48332e-06
-6.09051e-06
9.374e-06
-5.9075e-06
9.29508e-06
-5.61714e-06
9.25591e-06
-5.33506e-06
9.2403e-06
-5.11747e-06
9.23288e-06
-4.9207e-06
9.23553e-06
-4.73915e-06
9.2598e-06
-4.59225e-06
9.29939e-06
-4.42692e-06
9.34229e-06
-4.26617e-06
9.38718e-06
-4.12455e-06
9.45975e-06
-4.00731e-06
9.55152e-06
-3.88426e-06
9.64323e-06
-3.77155e-06
9.73352e-06
-3.67185e-06
-3.5551e-06
9.83073e-06
8.94656e-06
-4.63926e-06
8.7962e-06
-5.13859e-06
8.688e-06
-5.12662e-06
8.55899e-06
-4.92462e-06
8.48564e-06
-4.68372e-06
8.46347e-06
-4.44339e-06
8.44874e-06
-4.2263e-06
8.43853e-06
-4.03176e-06
8.44315e-06
-3.86035e-06
8.44878e-06
-3.71078e-06
8.45781e-06
-3.55741e-06
8.49091e-06
-3.43418e-06
8.55635e-06
-3.33625e-06
8.62896e-06
-3.24314e-06
8.7145e-06
-3.15118e-06
8.8129e-06
-3.06924e-06
8.89406e-06
-2.97681e-06
-2.87108e-06
8.9614e-06
7.84548e-06
-3.62902e-06
7.84797e-06
-4.35495e-06
7.80238e-06
-4.2944e-06
7.70368e-06
-4.04059e-06
7.62804e-06
-3.81703e-06
7.59579e-06
-3.61257e-06
7.59146e-06
-3.4166e-06
7.58521e-06
-3.21722e-06
7.58108e-06
-3.04893e-06
7.57902e-06
-2.90207e-06
7.59248e-06
-2.76732e-06
7.61531e-06
-2.66346e-06
7.66233e-06
-2.60242e-06
7.72439e-06
-2.53942e-06
7.77815e-06
-2.45801e-06
7.83305e-06
-2.39646e-06
7.88347e-06
-2.32101e-06
-2.22888e-06
7.92422e-06
7.30957e-06
-2.95454e-06
7.3336e-06
-3.66498e-06
7.23821e-06
-3.48293e-06
7.07166e-06
-3.15916e-06
6.89426e-06
-2.91968e-06
6.74083e-06
-2.73299e-06
6.62726e-06
-2.57181e-06
6.53787e-06
-2.39348e-06
6.46665e-06
-2.24312e-06
6.40564e-06
-2.10965e-06
6.36915e-06
-2.00505e-06
6.34824e-06
-1.92472e-06
6.33131e-06
-1.87867e-06
6.31825e-06
-1.83313e-06
6.30367e-06
-1.76634e-06
6.28262e-06
-1.71648e-06
6.2645e-06
-1.6636e-06
-1.58607e-06
6.24004e-06
6.53792e-06
-2.35436e-06
6.57021e-06
-3.05321e-06
6.38789e-06
-2.65468e-06
6.10927e-06
-2.23551e-06
5.77195e-06
-1.93263e-06
5.43695e-06
-1.74261e-06
5.13047e-06
-1.60528e-06
4.87462e-06
-1.47507e-06
4.6629e-06
-1.36867e-06
4.50265e-06
-1.28917e-06
4.37469e-06
-1.22195e-06
4.27659e-06
-1.17908e-06
4.17834e-06
-1.14276e-06
4.08483e-06
-1.11411e-06
4.00846e-06
-1.07864e-06
3.93104e-06
-1.04384e-06
3.86742e-06
-1.02215e-06
-9.64572e-07
3.80523e-06
5.77049e-06
-1.96442e-06
5.23637e-06
-1.94421e-06
4.56164e-06
-1.40152e-06
3.93723e-06
-1.03283e-06
3.39265e-06
-8.05406e-07
2.92844e-06
-6.90476e-07
2.54472e-06
-6.292e-07
2.24918e-06
-5.8466e-07
2.04425e-06
-5.68513e-07
1.88816e-06
-5.39943e-07
1.77408e-06
-5.19188e-07
1.68097e-06
-5.04221e-07
1.60457e-06
-4.93573e-07
1.53442e-06
-4.82317e-07
1.47348e-06
-4.68919e-07
1.42475e-06
-4.61082e-07
1.38919e-06
-4.68029e-07
-4.52188e-07
1.37856e-06
3.75119e-06
2.29953e-06
1.39519e-06
8.6314e-07
5.64341e-07
3.86247e-07
2.74125e-07
2.09371e-07
1.61487e-07
1.40681e-07
1.36964e-07
1.42404e-07
1.50756e-07
1.60773e-07
1.73006e-07
1.80398e-07
1.67257e-07
1.55517e-07
-3.35509e-07
1.20067e-07
-7.62255e-07
1.99739e-07
-1.18308e-06
1.94782e-07
-1.54168e-06
1.3216e-07
-1.82544e-06
5.63674e-08
-2.01144e-06
-4.1414e-08
-2.07939e-06
-1.58159e-07
-1.99724e-06
-3.0654e-07
-1.78359e-06
-4.36212e-07
-1.45416e-06
-5.50481e-07
-1.03681e-06
-6.37274e-07
-5.76935e-07
-6.79106e-07
-1.1995e-07
-6.75681e-07
3.70194e-07
-7.07651e-07
9.48524e-07
-7.92831e-07
1.54836e-06
-8.11674e-07
2.05491e-06
-7.18276e-07
2.44778e-06
-6.05407e-07
2.81542e-06
-5.79079e-07
3.18966e-06
-5.83857e-07
3.47768e-06
-4.96346e-07
3.66757e-06
-3.96686e-07
3.75635e-06
-2.93798e-07
3.7312e-06
-1.78723e-07
3.55085e-06
-2.35509e-08
3.23815e-06
1.10107e-07
2.76043e-06
2.75924e-07
2.12704e-06
4.33874e-07
1.3605e-06
5.71458e-07
4.74097e-07
6.96598e-07
-4.61302e-07
7.53457e-07
-1.40578e-06
7.70569e-07
-2.28353e-06
7.02935e-07
-3.00923e-06
5.4234e-07
-3.71521e-06
5.3234e-07
-4.50951e-06
6.38281e-07
-5.24586e-06
5.78787e-07
-5.72292e-06
3.08389e-07
-6.04399e-06
1.49495e-07
-6.3969e-06
1.83416e-07
-6.73778e-06
1.75614e-07
-6.93537e-06
3.75436e-08
-6.9778e-06
-1.1201e-07
-6.90295e-06
-2.23189e-07
-6.66684e-06
-3.78191e-07
-6.24907e-06
-5.50195e-07
-5.66886e-06
-7.06346e-07
-4.94418e-06
-8.46315e-07
-4.04603e-06
-1.01427e-06
-2.96844e-06
-1.18905e-06
-1.84757e-06
-1.22843e-06
-8.40861e-07
-1.11084e-06
5.23241e-08
-9.95947e-07
7.86551e-07
-8.39959e-07
1.26043e-06
-5.83792e-07
1.51105e-06
-3.60545e-07
1.66595e-06
-2.62937e-07
1.7577e-06
-2.00042e-07
1.74059e-06
-9.5954e-08
1.64695e-06
-2.90596e-08
1.58444e-06
-7.50967e-08
1.60668e-06
-1.81468e-07
1.65442e-06
-2.34952e-07
1.70001e-06
-2.59244e-07
1.72994e-06
-2.66691e-07
1.66517e-06
-1.94918e-07
1.74101e-06
-3.64691e-07
2.86571e-06
-1.46772e-06
4.29729e-06
-1.81587e-06
4.91939e-06
-1.06062e-06
4.90808e-06
-5.13853e-07
3.78756e-06
5.23889e-07
1.29638e-06
1.88352e-06
-1.07478e-06
1.69943e-06
-2.69903e-06
8.44946e-07
-3.85435e-06
2.82559e-07
-4.61629e-06
-2.06245e-07
-5.11892e-06
-5.56696e-07
-5.38965e-06
-8.90434e-07
-5.46395e-06
-1.18482e-06
-5.37874e-06
-1.44407e-06
-5.13829e-06
-1.7039e-06
-4.76616e-06
-1.93576e-06
-4.28721e-06
-2.14671e-06
-3.7035e-06
-2.35302e-06
-3.02987e-06
-2.54345e-06
-2.27388e-06
-2.72608e-06
-1.40219e-06
-2.94098e-06
-4.71206e-07
-3.09903e-06
5.06091e-07
-3.24475e-06
1.54818e-06
-3.41127e-06
2.66825e-06
-3.5941e-06
3.74162e-06
-3.65839e-06
4.89204e-06
-3.84866e-06
5.99245e-06
-3.93016e-06
7.12561e-06
-4.09061e-06
8.22184e-06
-4.2025e-06
9.15994e-06
-4.19945e-06
1.0213e-05
-4.47607e-06
1.1271e-05
-4.66763e-06
1.22245e-05
-4.76001e-06
1.31842e-05
-4.97515e-06
1.41283e-05
-5.19971e-06
1.48495e-05
-5.26089e-06
1.53202e-05
-5.30688e-06
1.57088e-05
-5.51565e-06
1.61349e-05
-5.8142e-06
1.68481e-05
-6.33153e-06
1.7621e-05
-6.67847e-06
1.79945e-05
-6.69402e-06
1.78602e-05
-6.62204e-06
1.72617e-05
-6.48904e-06
1.64771e-05
-6.6463e-06
1.60536e-05
-7.41316e-06
1.56118e-05
-7.77078e-06
1.49069e-05
-7.9867e-06
1.43828e-05
-8.67819e-06
1.44906e-05
-9.59731e-06
1.45474e-05
-9.96027e-06
1.37902e-05
-9.97414e-06
1.22207e-05
-9.94403e-06
1.02163e-05
-9.66719e-06
8.08821e-06
-9.51806e-06
6.43501e-06
-1.04052e-05
5.3429e-06
-1.14758e-05
4.62348e-06
-1.18097e-05
3.80366e-06
-1.13228e-05
1.90712e-06
-9.88262e-06
-8.16231e-07
-8.83463e-06
-3.48376e-06
-8.73239e-06
-5.28258e-06
-9.45816e-06
-6.50734e-06
-9.97103e-06
-7.49014e-06
-1.0223e-05
-8.50002e-06
-1.00905e-05
-9.4152e-06
-9.90427e-06
-1.13044e-05
-8.63298e-06
-1.4355e-05
-7.50934e-06
-1.75934e-05
-7.86735e-06
-1.43853e-05
-1.42743e-05
-2.64224e-06
-2.1794e-05
1.10591e-06
-1.44825e-05
-2.35799e-06
-7.0187e-06
-2.05355e-06
-1.10301e-05
-1.77332e-07
-1.26933e-05
2.77666e-06
-1.38054e-05
5.93811e-06
-1.41393e-05
6.43293e-06
-1.16709e-05
6.18684e-06
-1.12473e-05
5.95764e-06
-1.17194e-05
6.56277e-06
-1.30001e-05
7.23519e-06
-1.34704e-05
7.91886e-06
-1.39003e-05
9.42725e-06
-1.52145e-05
1.08893e-05
-1.56092e-05
1.06754e-05
-1.42844e-05
1.17926e-05
-1.60239e-05
1.1234e-05
-1.45884e-05
1.02172e-05
-1.43744e-05
9.21389e-06
-1.45518e-05
8.57657e-06
-1.49831e-05
6.98989e-06
-1.40417e-05
6.4188e-06
-1.51646e-05
6.09521e-06
-1.54712e-05
6.82367e-06
-1.64359e-05
8.60952e-06
-1.73239e-05
1.09778e-05
-1.8091e-05
1.32634e-05
-1.83033e-05
1.44088e-05
-1.77017e-05
1.38362e-05
-1.66267e-05
1.32795e-05
-1.76648e-05
1.4059e-05
-1.98211e-05
1.21312e-05
-1.7803e-05
8.3252e-06
-1.66808e-05
4.45326e-06
-1.67017e-05
1.00197e-06
-1.76331e-05
-5.43272e-07
-1.95967e-05
-2.39386e-06
-1.83759e-05
-4.89397e-06
-1.67112e-05
-8.07526e-06
-1.53266e-05
-1.44917e-05
-1.1609e-05
-2.07139e-07
1.03081e-07
-4.67666e-07
2.18333e-07
-7.75293e-07
2.57173e-07
-1.09394e-06
2.07091e-07
-1.3497e-06
7.22176e-08
-1.44794e-06
-1.75992e-07
-1.37249e-06
-4.58629e-07
-1.14147e-06
-7.56738e-07
-7.91972e-07
-1.00194e-06
-3.71978e-07
-1.18578e-06
8.16908e-08
-1.30535e-06
6.00162e-07
-1.41088e-06
1.13361e-06
-1.42423e-06
1.61511e-06
-1.40779e-06
2.09205e-06
-1.48546e-06
2.62577e-06
-1.55258e-06
3.14575e-06
-1.44416e-06
3.59756e-06
-1.26786e-06
4.05373e-06
-1.24408e-06
4.51107e-06
-1.24704e-06
4.86669e-06
-1.05704e-06
5.1277e-06
-8.64095e-07
5.42108e-06
-7.95455e-07
5.62786e-06
-5.8377e-07
5.74707e-06
-3.38977e-07
5.77305e-06
-1.15698e-07
5.65327e-06
1.96929e-07
5.42985e-06
4.5369e-07
5.07947e-06
7.19852e-07
4.5664e-06
1.01079e-06
3.92327e-06
1.18751e-06
3.17687e-06
1.30946e-06
2.24247e-06
1.44329e-06
1.12309e-06
1.46646e-06
-1.72961e-08
1.48722e-06
-1.06543e-06
1.51871e-06
-1.93341e-06
1.29022e-06
-2.71461e-06
9.28452e-07
-3.47804e-06
7.25458e-07
-4.03334e-06
5.37595e-07
-4.31906e-06
2.75609e-07
-4.46885e-06
1.78583e-08
-4.63593e-06
-1.10794e-07
-4.76283e-06
-2.58814e-07
-4.64687e-06
-6.45776e-07
-4.18631e-06
-1.14745e-06
-3.47196e-06
-1.54337e-06
-2.64156e-06
-1.79327e-06
-1.64384e-06
-2.1164e-06
-4.3107e-07
-2.49645e-06
8.45165e-07
-2.60099e-06
1.92781e-06
-2.29528e-06
2.8512e-06
-2.01909e-06
3.75969e-06
-1.83947e-06
4.56805e-06
-1.48078e-06
5.11857e-06
-1.01305e-06
5.37441e-06
-6.35961e-07
5.55613e-06
-4.92092e-07
5.82542e-06
-4.62261e-07
6.15555e-06
-4.63631e-07
6.44035e-06
-4.81552e-07
6.60324e-06
-4.58061e-07
6.61444e-06
-3.92391e-07
6.32103e-06
-2.24266e-07
5.98284e-06
-2.84827e-07
5.89766e-06
-4.75605e-07
5.46426e-06
-1.73391e-07
3.63347e-06
9.35906e-08
4.10749e-07
1.00174e-06
-3.88502e-06
2.80839e-06
-7.47211e-06
2.58004e-06
-9.6952e-06
2.16412e-06
-1.04486e-05
2.0139e-06
-1.06168e-05
1.16322e-06
-1.08919e-05
3.37887e-07
-1.10159e-05
-4.49488e-07
-1.10475e-05
-1.12887e-06
-1.08925e-05
-1.74179e-06
-1.06124e-05
-2.30088e-06
-1.01844e-05
-2.82777e-06
-9.63728e-06
-3.3066e-06
-8.96815e-06
-3.78141e-06
-8.20732e-06
-4.20043e-06
-7.37576e-06
-4.58559e-06
-6.46334e-06
-4.96323e-06
-5.49071e-06
-5.31081e-06
-4.43747e-06
-5.66754e-06
-3.34004e-06
-6.01843e-06
-2.17967e-06
-6.33231e-06
-9.37721e-07
-6.65223e-06
3.16021e-07
-6.92953e-06
1.59286e-06
-7.23077e-06
2.89536e-06
-7.42927e-06
4.2689e-06
-7.77132e-06
5.45754e-06
-7.83119e-06
6.66417e-06
-8.11181e-06
7.84929e-06
-8.35063e-06
8.98194e-06
-8.4812e-06
1.02748e-05
-9.05132e-06
1.14535e-05
-9.30879e-06
1.25037e-05
-9.47847e-06
1.3535e-05
-9.88002e-06
1.45989e-05
-1.03176e-05
1.5589e-05
-1.0586e-05
1.63344e-05
-1.07584e-05
1.67974e-05
-1.10503e-05
1.70062e-05
-1.14426e-05
1.74515e-05
-1.23698e-05
1.81913e-05
-1.30991e-05
1.89576e-05
-1.3448e-05
1.94839e-05
-1.36645e-05
1.92635e-05
-1.32352e-05
1.84863e-05
-1.32342e-05
1.84239e-05
-1.50612e-05
1.84697e-05
-1.59402e-05
1.75403e-05
-1.57593e-05
1.65047e-05
-1.68132e-05
1.67322e-05
-1.87969e-05
1.70791e-05
-1.94056e-05
1.63091e-05
-1.9574e-05
1.43576e-05
-1.9894e-05
1.22665e-05
-2.0034e-05
1.07895e-05
-2.05679e-05
9.91705e-06
-2.24582e-05
8.70948e-06
-2.35425e-05
7.28458e-06
-2.31825e-05
5.90053e-06
-2.23236e-05
3.83175e-06
-2.00017e-05
1.14102e-06
-1.81048e-05
-1.8071e-06
-1.74973e-05
-4.63599e-06
-1.81232e-05
-7.21769e-06
-1.89586e-05
-9.2365e-06
-1.98327e-05
-1.03696e-05
-2.00624e-05
-1.10173e-05
-1.98507e-05
-1.25516e-05
-1.75205e-05
-1.44021e-05
-1.62836e-05
-1.49762e-05
-1.85691e-05
-1.02549e-05
-2.92694e-05
-3.13821e-06
-3.83635e-05
-8.83392e-07
-2.79058e-05
-3.314e-06
-1.52135e-05
-1.36491e-06
-2.34853e-05
1.67197e-06
-2.61853e-05
5.36233e-06
-2.77257e-05
1.09498e-05
-2.97323e-05
1.29143e-05
-2.43473e-05
1.26905e-05
-2.22074e-05
1.18858e-05
-2.27243e-05
1.23125e-05
-2.57638e-05
1.27535e-05
-2.66086e-05
1.3534e-05
-2.76579e-05
1.59172e-05
-3.10459e-05
1.77739e-05
-3.15539e-05
1.72102e-05
-2.85177e-05
1.85933e-05
-3.23498e-05
1.78605e-05
-2.95679e-05
1.65646e-05
-2.90733e-05
1.53917e-05
-2.99115e-05
1.45035e-05
-3.05449e-05
1.25359e-05
-2.82547e-05
1.21152e-05
-3.09022e-05
1.15056e-05
-3.12579e-05
1.18321e-05
-3.2545e-05
1.4024e-05
-3.41946e-05
1.70986e-05
-3.60364e-05
1.95898e-05
-3.65788e-05
2.00601e-05
-3.52263e-05
1.84055e-05
-3.34396e-05
1.68976e-05
-3.61805e-05
1.69592e-05
-4.11247e-05
1.44241e-05
-3.82302e-05
9.96153e-06
-3.66505e-05
4.94069e-06
-3.59378e-05
1.56344e-06
-3.90698e-05
6.7897e-07
-4.27631e-05
-1.29496e-06
-3.86633e-05
-4.67868e-06
-3.41813e-05
-8.22105e-06
-3.24525e-05
-3.18469e-05
-1.14286e-05
-1.82687e-07
4.80347e-08
-3.67985e-07
1.47178e-07
-6.03874e-07
2.2876e-07
-8.48287e-07
1.89313e-07
-9.42868e-07
-8.14727e-08
-8.07587e-07
-5.44517e-07
-5.00156e-07
-9.93122e-07
-1.1341e-07
-1.37035e-06
2.91889e-07
-1.63724e-06
7.09031e-07
-1.83718e-06
1.09571e-06
-1.93051e-06
1.48106e-06
-2.03413e-06
1.91505e-06
-2.09592e-06
2.35346e-06
-2.08776e-06
2.70981e-06
-2.08481e-06
3.07511e-06
-2.15688e-06
3.44826e-06
-2.05263e-06
3.80709e-06
-1.8638e-06
4.26577e-06
-1.93677e-06
4.64051e-06
-1.8506e-06
4.84314e-06
-1.49746e-06
5.15209e-06
-1.40266e-06
5.47242e-06
-1.33974e-06
5.68787e-06
-1.0364e-06
5.89473e-06
-7.71454e-07
6.03428e-06
-4.8132e-07
6.07986e-06
-8.32586e-08
6.15071e-06
1.67612e-07
6.07837e-06
5.91796e-07
5.85375e-06
1.02376e-06
5.56431e-06
1.26797e-06
5.11094e-06
1.57132e-06
4.53327e-06
1.81374e-06
3.94469e-06
1.84521e-06
3.30923e-06
1.92315e-06
2.6579e-06
1.96733e-06
1.86339e-06
1.9001e-06
7.83104e-07
1.83416e-06
-2.95739e-07
1.63168e-06
-1.28426e-06
1.36566e-06
-2.1388e-06
9.73404e-07
-2.61815e-06
3.34365e-07
-2.80922e-06
-8.41388e-08
-2.91346e-06
-3.11197e-07
-2.82259e-06
-8.77479e-07
-2.51033e-06
-1.58397e-06
-1.9894e-06
-2.17706e-06
-1.16814e-06
-2.71864e-06
-1.13366e-07
-3.26454e-06
1.09427e-06
-3.77889e-06
2.26991e-06
-3.84176e-06
3.23297e-06
-3.32417e-06
3.86832e-06
-2.72335e-06
4.30971e-06
-2.35323e-06
4.75898e-06
-2.0275e-06
5.22009e-06
-1.60897e-06
5.77962e-06
-1.31102e-06
6.39213e-06
-1.13287e-06
6.96563e-06
-1.03916e-06
7.19384e-06
-8.04494e-07
6.86795e-06
-3.8739e-07
6.10117e-06
5.35163e-08
5.20261e-06
3.53555e-07
4.24513e-06
6.55843e-07
2.80204e-06
9.6653e-07
3.43436e-07
1.69846e-06
-3.49713e-06
3.38889e-06
-7.98185e-06
4.27377e-06
-1.13906e-05
4.01645e-06
-1.27313e-05
3.7309e-06
-1.3317e-05
2.70195e-06
-1.3522e-05
1.82572e-06
-1.29433e-05
8.49899e-07
-1.22939e-05
-1.57194e-07
-1.17369e-05
-9.4607e-07
-1.12071e-05
-1.78958e-06
-1.07663e-05
-2.46144e-06
-1.031e-05
-3.15466e-06
-9.82319e-06
-3.83883e-06
-9.24125e-06
-4.52785e-06
-8.57791e-06
-5.18481e-06
-7.83268e-06
-5.82033e-06
-7.01369e-06
-6.40516e-06
-6.13737e-06
-6.93624e-06
-5.21066e-06
-7.44721e-06
-4.22002e-06
-7.94422e-06
-3.17532e-06
-8.43713e-06
-2.02236e-06
-8.97776e-06
-7.91001e-07
-9.45019e-06
3.91541e-07
-9.79415e-06
1.70419e-06
-1.03019e-05
2.94276e-06
-1.06183e-05
4.11614e-06
-1.08448e-05
5.46195e-06
-1.13868e-05
6.66922e-06
-1.14589e-05
7.79085e-06
-1.17636e-05
9.0138e-06
-1.21511e-05
1.00948e-05
-1.23475e-05
1.12296e-05
-1.31019e-05
1.22828e-05
-1.34312e-05
1.33168e-05
-1.37715e-05
1.42522e-05
-1.4307e-05
1.51883e-05
-1.49229e-05
1.6287e-05
-1.55048e-05
1.72716e-05
-1.58696e-05
1.80584e-05
-1.62446e-05
1.83417e-05
-1.66196e-05
1.81522e-05
-1.76062e-05
1.80676e-05
-1.8671e-05
1.83121e-05
-1.94157e-05
1.88278e-05
-2.00708e-05
1.86945e-05
-1.9561e-05
1.76736e-05
-1.93657e-05
1.75854e-05
-2.17429e-05
1.83626e-05
-2.3308e-05
1.77354e-05
-2.29942e-05
1.62036e-05
-2.41506e-05
1.67026e-05
-2.71934e-05
1.85445e-05
-2.77493e-05
1.84861e-05
-2.68112e-05
1.58434e-05
-2.67672e-05
1.31776e-05
-2.82953e-05
1.1852e-05
-3.07303e-05
1.04428e-05
-3.27654e-05
8.22944e-06
-3.24804e-05
6.35455e-06
-3.18881e-05
4.81726e-06
-3.15199e-05
2.46175e-06
-2.8935e-05
-6.79288e-07
-2.6393e-05
-3.76985e-06
-2.55113e-05
-6.56676e-06
-2.62767e-05
-9.59086e-06
-2.68859e-05
-1.1282e-05
-2.83133e-05
-1.09387e-05
-2.99091e-05
-9.80716e-06
-3.07473e-05
-9.47505e-06
-2.79752e-05
-9.79809e-06
-2.611e-05
-9.67655e-06
-2.87786e-05
-5.19418e-06
-4.21752e-05
-4.65867e-06
-4.79218e-05
-4.18724e-06
-3.73502e-05
-2.31212e-06
-2.74941e-05
3.27631e-07
-3.53427e-05
1.84073e-06
-3.65139e-05
3.22301e-06
-3.79648e-05
9.01729e-06
-4.35285e-05
1.23907e-05
-3.70154e-05
1.27748e-05
-3.28131e-05
1.1671e-05
-3.21318e-05
1.24242e-05
-3.69964e-05
1.29797e-05
-3.78874e-05
1.3651e-05
-3.90406e-05
1.71095e-05
-4.48555e-05
1.99762e-05
-4.52913e-05
1.96522e-05
-4.06852e-05
2.20417e-05
-4.6379e-05
2.17819e-05
-4.23635e-05
2.01572e-05
-4.04084e-05
1.938e-05
-4.25789e-05
1.87425e-05
-4.44572e-05
1.64949e-05
-4.0739e-05
1.62265e-05
-4.4722e-05
1.49086e-05
-4.50166e-05
1.33261e-05
-4.55284e-05
1.46204e-05
-4.76955e-05
1.94464e-05
-5.12604e-05
2.46985e-05
-5.25462e-05
2.69085e-05
-4.98648e-05
2.4913e-05
-4.65944e-05
2.21713e-05
-5.04305e-05
2.18651e-05
-5.77636e-05
1.96572e-05
-5.63199e-05
1.44678e-05
-5.54579e-05
7.83552e-06
-5.441e-05
3.60382e-06
-5.91004e-05
1.42361e-06
-6.20447e-05
-1.83513e-06
-5.59215e-05
-6.16855e-06
-5.06583e-05
-8.51244e-06
-5.15402e-05
-5.01902e-05
-1.01715e-05
-2.43828e-07
3.18061e-08
-5.41752e-07
1.67041e-07
-7.64831e-07
1.70355e-07
-7.76491e-07
-7.16027e-08
-5.33205e-07
-5.85563e-07
-1.31495e-07
-1.20388e-06
3.26139e-07
-1.71272e-06
7.27157e-07
-2.04084e-06
1.03014e-06
-2.21508e-06
1.25457e-06
-2.3382e-06
1.49165e-06
-2.4462e-06
1.70444e-06
-2.52463e-06
1.91279e-06
-2.57945e-06
2.19928e-06
-2.6463e-06
2.49078e-06
-2.64283e-06
2.76105e-06
-2.68764e-06
3.12658e-06
-2.68649e-06
3.48686e-06
-2.48959e-06
3.78666e-06
-2.48743e-06
3.98999e-06
-2.31218e-06
4.20625e-06
-1.98253e-06
4.55211e-06
-2.00614e-06
4.77523e-06
-1.8157e-06
4.9523e-06
-1.49009e-06
5.24748e-06
-1.34447e-06
5.45385e-06
-9.66158e-07
5.6822e-06
-5.74242e-07
5.86142e-06
-2.62744e-07
5.85854e-06
3.07284e-07
5.84111e-06
7.87989e-07
5.81873e-06
1.07836e-06
5.59877e-06
1.55054e-06
5.3551e-06
1.82813e-06
5.04896e-06
1.94442e-06
4.55718e-06
2.18463e-06
4.11168e-06
2.19753e-06
3.63206e-06
2.17015e-06
3.00666e-06
2.23093e-06
2.46709e-06
1.96939e-06
1.69267e-06
1.95581e-06
5.97017e-07
1.88238e-06
-4.15607e-07
1.17421e-06
-1.31351e-06
6.5459e-07
-1.85798e-06
7.70008e-08
-1.9167e-06
-9.63825e-07
-1.763e-06
-1.87247e-06
-1.38249e-06
-2.68933e-06
-6.79202e-07
-3.54097e-06
1.71653e-07
-4.22116e-06
9.41189e-07
-4.62636e-06
1.5101e-06
-4.47286e-06
1.90695e-06
-3.78668e-06
2.17966e-06
-3.04409e-06
2.35724e-06
-2.57065e-06
2.4552e-06
-2.20267e-06
2.54758e-06
-1.8191e-06
2.58389e-06
-1.46981e-06
2.45739e-06
-1.11568e-06
2.04792e-06
-7.3145e-07
1.46355e-06
-3.17438e-07
8.40211e-07
1.34613e-07
5.59349e-08
7.17078e-07
-1.265e-06
1.53487e-06
-3.45273e-06
2.694e-06
-6.71834e-06
4.05842e-06
-1.05146e-05
5.25846e-06
-1.34162e-05
6.01661e-06
-1.49711e-05
5.53591e-06
-1.55696e-05
4.27781e-06
-1.51749e-05
2.96183e-06
-1.44653e-05
1.56136e-06
-1.36205e-05
4.87075e-07
-1.2686e-05
-6.32237e-07
-1.19502e-05
-1.51711e-06
-1.12879e-05
-2.28307e-06
-1.08038e-05
-3.0352e-06
-1.03888e-05
-3.69074e-06
-9.98975e-06
-4.44807e-06
-9.55901e-06
-5.23647e-06
-9.03103e-06
-6.09785e-06
-8.3884e-06
-6.96224e-06
-7.65701e-06
-7.76959e-06
-6.84953e-06
-8.52467e-06
-5.95909e-06
-9.22079e-06
-5.0144e-06
-9.86693e-06
-3.99092e-06
-1.05183e-05
-2.89586e-06
-1.11635e-05
-1.69149e-06
-1.1892e-05
-4.85026e-07
-1.24413e-05
7.78175e-07
-1.28873e-05
2.12381e-06
-1.3566e-05
3.44043e-06
-1.39375e-05
4.77867e-06
-1.42548e-05
6.0007e-06
-1.47622e-05
7.31201e-06
-1.49206e-05
8.41503e-06
-1.52412e-05
9.52445e-06
-1.56508e-05
1.06753e-05
-1.59762e-05
1.18475e-05
-1.68641e-05
1.29805e-05