/*--------------------------------*- C++ -*----------------------------------*\
| =========                 |                                                 |
| \\      /  F ield         | OpenFOAM: The Open Source CFD Toolbox           |
|  \\    /   O peration     | Version:  dev                                   |
|   \\  /    A nd           | Web:      http://www.openfoam.org               |
|    \\/     M anipulation  |                                                 |
\*---------------------------------------------------------------------------*/
FoamFile
{
    version     2.0;
    format      ascii;
    class       surfaceScalarField;
    object      phi_0;
    location    "9.145";
}
// * * * * * * * * * * * * * * * * * * * * * * * * * * * * * * * * * * * * * //

dimensions      [1 0 -1 0 0 0 0];

internalField   nonuniform List<scalar> 
24170
(
2.04873e-06
7.2013e-07
1.00886e-06
2.68554e-07
5.16167e-07
-2.25846e-07
3.12696e-07
-4.63343e-07
2.27977e-07
-5.30159e-07
2.44184e-07
-5.83095e-07
2.36249e-07
-5.10713e-07
3.73404e-07
-6.14909e-07
4.7547e-07
-5.34976e-07
7.89152e-07
-7.1314e-07
8.06012e-07
-3.80439e-07
1.40505e-06
-9.39365e-07
1.50495e-06
-4.17155e-07
2.55569e-06
-1.33505e-06
2.80118e-06
-5.047e-07
6.30606e-06
-3.74512e-06
1.07967e-05
-4.74029e-06
5.50032e-07
1.00556e-05
3.80652e-06
2.39049e-07
2.89761e-06
3.64405e-07
2.18925e-06
-2.83306e-07
1.70836e-06
-6.95436e-07
1.39212e-06
-8.73637e-07
1.12983e-06
-9.27616e-07
1.11324e-06
-1.04943e-06
8.82825e-07
-8.9462e-07
1.14193e-06
-1.25887e-06
1.22646e-06
-1.22303e-06
1.45921e-06
-1.00364e-06
2.41876e-06
-2.26023e-06
2.24325e-06
-5.84436e-07
3.28853e-06
-2.6858e-06
3.61832e-06
-1.1137e-06
6.57281e-06
-6.95694e-06
8.22353e-06
-6.65887e-06
-6.65386e-07
9.2026e-06
4.55537e-06
-9.21472e-07
4.13814e-06
-1.10668e-07
3.7741e-06
-7.61855e-07
3.34984e-06
-1.05473e-06
3.02826e-06
-1.27654e-06
2.7439e-06
-1.30918e-06
2.63633e-06
-1.5514e-06
2.41078e-06
-1.22822e-06
2.56393e-06
-1.92117e-06
2.89789e-06
-2.02373e-06
2.73657e-06
-1.27656e-06
3.91003e-06
-3.82025e-06
3.70301e-06
-7.45855e-07
5.10625e-06
-4.42546e-06
5.5957e-06
-1.91397e-06
6.51898e-06
-8.15282e-06
5.96055e-06
-6.36873e-06
-1.04916e-06
6.10184e-06
4.79916e-06
-1.86948e-06
4.75543e-06
-1.04511e-06
4.68641e-06
-1.61767e-06
4.58824e-06
-1.81599e-06
4.23938e-06
-1.72115e-06
4.39478e-06
-2.19243e-06
4.092e-06
-1.91581e-06
4.43594e-06
-2.18273e-06
4.19872e-06
-2.24044e-06
4.66519e-06
-2.99733e-06
4.09882e-06
-1.1871e-06
4.79232e-06
-4.93654e-06
4.8414e-06
-1.18865e-06
5.57858e-06
-5.53409e-06
6.05676e-06
-2.73439e-06
6.42823e-06
-8.82066e-06
5.40367e-06
-5.63441e-06
-6.44834e-07
4.73834e-06
5.16749e-06
-2.68269e-06
5.85648e-06
-2.80466e-06
5.45085e-06
-2.21994e-06
5.74421e-06
-3.04792e-06
5.19257e-06
-2.03807e-06
5.52618e-06
-3.32082e-06
4.86091e-06
-1.97798e-06
5.44922e-06
-3.4372e-06
5.07272e-06
-2.47076e-06
5.47734e-06
-3.9553e-06
5.2601e-06
-1.4876e-06
5.34219e-06
-5.48384e-06
5.29637e-06
-1.5624e-06
5.37728e-06
-6.01821e-06
5.27521e-06
-3.00988e-06
5.6582e-06
-9.53486e-06
5.63923e-06
-5.93428e-06
-1.53733e-06
6.26062e-06
5.33948e-06
-3.25616e-06
6.23052e-06
-4.8618e-06
5.40467e-06
-2.49319e-06
6.10857e-06
-4.77442e-06
5.74844e-06
-2.62311e-06
5.75086e-06
-4.18942e-06
5.34135e-06
-2.36156e-06
5.98463e-06
-4.80685e-06
5.15943e-06
-2.30446e-06
5.63372e-06
-5.02907e-06
5.98697e-06
-2.40141e-06
5.9201e-06
-5.92935e-06
5.67107e-06
-1.77197e-06
5.84852e-06
-6.6227e-06
6.00133e-06
-3.56632e-06
6.06044e-06
-9.96148e-06
4.47475e-06
-4.69093e-06
-1.88795e-06
4.53178e-06
5.79362e-06
-4.03269e-06
5.9899e-06
-6.32047e-06
5.3502e-06
-3.04821e-06
6.13458e-06
-6.6655e-06
5.77612e-06
-3.28935e-06
6.22823e-06
-5.58287e-06
5.88184e-06
-2.86755e-06
5.8953e-06
-5.60415e-06
5.73582e-06
-2.86443e-06
6.4686e-06
-6.41387e-06
6.5251e-06
-3.04744e-06
6.51173e-06
-6.47154e-06
6.89093e-06
-2.65531e-06
6.79758e-06
-6.98785e-06
7.10042e-06
-4.29302e-06
5.76048e-06
-9.00022e-06
3.63894e-06
-2.90659e-06
-3.35057e-06
4.77158e-06
4.85566e-06
-4.98433e-06
4.88597e-06
-7.31853e-06
4.64038e-06
-3.71563e-06
4.78495e-06
-7.65688e-06
4.47781e-06
-3.7649e-06
4.90497e-06
-6.73115e-06
4.4243e-06
-3.04102e-06
4.62478e-06
-6.39785e-06
4.87196e-06
-3.65772e-06
4.98435e-06
-7.02741e-06
5.1694e-06
-3.67984e-06
5.15335e-06
-6.87275e-06
5.63678e-06
-3.52298e-06
5.18349e-06
-6.88422e-06
5.41766e-06
-4.84772e-06
4.40943e-06
-8.27785e-06
4.85636e-06
-3.61029e-06
-4.51829e-06
5.76723e-06
5.53537e-06
-5.68392e-06
5.75534e-06
-8.64623e-06
5.49959e-06
-4.50469e-06
5.53223e-06
-8.65607e-06
5.1255e-06
-4.25147e-06
5.28994e-06
-7.71665e-06
5.35744e-06
-3.85982e-06
5.555e-06
-7.27014e-06
5.73811e-06
-4.45864e-06
5.43468e-06
-7.28955e-06
5.87383e-06
-4.62944e-06
5.72228e-06
-7.18639e-06
6.01954e-06
-4.26087e-06
5.79665e-06
-7.06295e-06
6.20258e-06
-5.61205e-06
5.5355e-06
-7.93744e-06
6.28288e-06
-4.6666e-06
-5.05508e-06
6.52291e-06
6.5907e-06
-6.50735e-06
6.47244e-06
-9.77942e-06
6.31127e-06
-5.52883e-06
5.89057e-06
-9.33361e-06
5.92575e-06
-5.29751e-06
5.76047e-06
-8.47996e-06
6.16519e-06
-5.11423e-06
6.07632e-06
-7.94771e-06
6.32598e-06
-5.40249e-06
6.07671e-06
-7.67006e-06
6.2285e-06
-5.35476e-06
6.00302e-06
-7.47724e-06
6.54863e-06
-5.2914e-06
6.58659e-06
-7.55023e-06
6.83323e-06
-6.26131e-06
6.16843e-06
-7.63254e-06
6.75541e-06
-5.59226e-06
-5.73328e-06
7.10891e-06
8.01434e-06
-7.83105e-06
7.45924e-06
-1.06269e-05
7.55341e-06
-6.94612e-06
6.87411e-06
-9.88649e-06
6.98777e-06
-6.53568e-06
6.63851e-06
-9.16405e-06
6.84342e-06
-6.26127e-06
6.71939e-06
-8.67554e-06
6.92641e-06
-6.37439e-06
6.7406e-06
-8.17876e-06
7.02086e-06
-6.26125e-06
6.82307e-06
-7.84574e-06
7.38586e-06
-6.37687e-06
7.37417e-06
-8.01995e-06
7.48951e-06
-6.81165e-06
7.04071e-06
-7.57401e-06
7.59106e-06
-6.50357e-06
-6.47457e-06
7.99135e-06
9.55718e-06
-9.3012e-06
8.8415e-06
-1.14575e-05
8.84602e-06
-8.40396e-06
8.13988e-06
-1.05392e-05
8.28136e-06
-7.91035e-06
7.73696e-06
-9.7487e-06
8.12328e-06
-7.66936e-06
7.70182e-06
-9.18103e-06
8.11577e-06
-7.61255e-06
7.82084e-06
-8.62953e-06
8.34193e-06
-7.45322e-06
8.1849e-06
-8.29493e-06
8.61513e-06
-7.35762e-06
8.3634e-06
-8.27238e-06
8.6289e-06
-7.53213e-06
8.42103e-06
-7.77638e-06
8.7946e-06
-7.2527e-06
-7.16408e-06
9.13381e-06
1.10314e-05
-1.10432e-05
1.03031e-05
-1.23995e-05
1.03619e-05
-1.00264e-05
9.6052e-06
-1.12424e-05
9.80326e-06
-9.43096e-06
9.21003e-06
-1.0362e-05
9.40098e-06
-8.94189e-06
8.97367e-06
-9.73078e-06
9.19625e-06
-8.70083e-06
8.97626e-06
-9.1865e-06
9.34043e-06
-8.5109e-06
9.1948e-06
-8.77415e-06
9.61573e-06
-8.33976e-06
9.40445e-06
-8.56893e-06
9.65456e-06
-8.23742e-06
9.67285e-06
-8.20444e-06
1.00206e-05
-7.97462e-06
-7.80223e-06
1.03132e-05
1.28294e-05
-1.25658e-05
1.18369e-05
-1.31586e-05
1.17775e-05
-1.16007e-05
1.09439e-05
-1.19256e-05
1.09639e-05
-1.08217e-05
1.04095e-05
-1.10465e-05
1.06585e-05
-1.02938e-05
1.03324e-05
-1.03887e-05
1.06109e-05
-9.84608e-06
1.04214e-05
-9.76534e-06
1.06327e-05
-9.4007e-06
1.05751e-05
-9.32007e-06
1.08042e-05
-9.10469e-06
1.07721e-05
-9.01404e-06
1.09654e-05
-8.85546e-06
1.10585e-05
-8.67552e-06
1.12156e-05
-8.47198e-06
-8.31682e-06
1.14199e-05
1.52061e-05
-1.39564e-05
1.40131e-05
-1.37062e-05
1.35079e-05
-1.2714e-05
1.25832e-05
-1.24923e-05
1.2306e-05
-1.18872e-05
1.18266e-05
-1.17655e-05
1.1854e-05
-1.13754e-05
1.17223e-05
-1.1179e-05
1.18767e-05
-1.07991e-05
1.18936e-05
-1.04746e-05
1.20359e-05
-1.01416e-05
1.2087e-05
-9.88981e-06
1.21945e-05
-9.66184e-06
1.22466e-05
-9.4549e-06
1.23041e-05
-9.25007e-06
1.23679e-05
-9.03228e-06
1.24608e-05
-8.8224e-06
-8.60637e-06
1.2523e-05
1.65479e-05
-1.49483e-05
1.58311e-05
-1.455e-05
1.53295e-05
-1.36712e-05
1.47216e-05
-1.32154e-05
1.43761e-05
-1.27243e-05
1.39512e-05
-1.2374e-05
1.37152e-05
-1.20263e-05
1.3486e-05
-1.16993e-05
1.34167e-05
-1.13535e-05
1.34187e-05
-1.09907e-05
1.34918e-05
-1.06338e-05
1.3575e-05
-1.03108e-05
1.36527e-05
-1.00096e-05
1.37054e-05
-9.72054e-06
1.37202e-05
-9.43022e-06
1.3739e-05
-9.17776e-06
1.37653e-05
-8.94429e-06
-8.70634e-06
1.37943e-05
1.93675e-05
-1.51775e-05
1.83273e-05
-1.46924e-05
1.76435e-05
-1.40791e-05
1.70278e-05
-1.35727e-05
1.65184e-05
-1.30461e-05
1.60686e-05
-1.26104e-05
1.57275e-05
-1.22287e-05
1.54847e-05
-1.18653e-05
1.53282e-05
-1.14858e-05
1.52486e-05
-1.10958e-05
1.52131e-05
-1.06942e-05
1.52045e-05
-1.03224e-05
1.52238e-05
-9.98994e-06
1.52617e-05
-9.67249e-06
1.53065e-05
-9.35031e-06
1.53503e-05
-9.06774e-06
1.53929e-05
-8.81441e-06
-8.54343e-06
1.54161e-05
1.98355e-05
-1.49937e-05
1.89254e-05
-1.42813e-05
1.80335e-05
-1.36218e-05
1.72371e-05
-1.31223e-05
1.66144e-05
-1.26574e-05
1.61303e-05
-1.22458e-05
1.57777e-05
-1.18837e-05
1.55326e-05
-1.15215e-05
1.53626e-05
-1.11247e-05
1.5253e-05
-1.07176e-05
1.51661e-05
-1.02728e-05
1.51254e-05
-9.8915e-06
1.51502e-05
-9.58636e-06
1.51962e-05
-9.26608e-06
1.52602e-05
-8.94215e-06
1.53327e-05
-8.6545e-06
1.54125e-05
-8.40664e-06
-8.13483e-06
1.54884e-05
1.78445e-05
-1.40665e-05
1.71166e-05
-1.341e-05
1.63633e-05
-1.27079e-05
1.57109e-05
-1.22628e-05
1.51739e-05
-1.18395e-05
1.47174e-05
-1.14296e-05
1.42877e-05
-1.10175e-05
1.39117e-05
-1.0638e-05
1.36313e-05
-1.02791e-05
1.34167e-05
-9.89331e-06
1.32653e-05
-9.47331e-06
1.31747e-05
-9.11794e-06
1.31288e-05
-8.83888e-06
1.31482e-05
-8.58324e-06
1.31868e-05
-8.27763e-06
1.3239e-05
-8.00197e-06
1.33005e-05
-7.77565e-06
-7.51931e-06
1.33612e-05
1.54001e-05
-1.26718e-05
1.47181e-05
-1.22004e-05
1.41459e-05
-1.15956e-05
1.36772e-05
-1.12305e-05
1.32743e-05
-1.08293e-05
1.29133e-05
-1.04095e-05
1.26035e-05
-9.99455e-06
1.237e-05
-9.64245e-06
1.22203e-05
-9.33334e-06
1.21607e-05
-9.013e-06
1.21645e-05
-8.63712e-06
1.21795e-05
-8.27765e-06
1.22182e-05
-8.01384e-06
1.22527e-05
-7.76374e-06
1.2272e-05
-7.459e-06
1.22843e-05
-7.184e-06
1.22828e-05
-6.96075e-06
-6.71385e-06
1.22647e-05
1.41991e-05
-1.12353e-05
1.34555e-05
-1.07024e-05
1.29128e-05
-1.02898e-05
1.24447e-05
-9.98549e-06
1.19986e-05
-9.58328e-06
1.15778e-05
-9.15968e-06
1.12542e-05
-8.80398e-06
1.10195e-05
-8.50503e-06
1.08726e-05
-8.26675e-06
1.07838e-05
-7.99486e-06
1.0786e-05
-7.69747e-06
1.08397e-05
-7.38901e-06
1.08795e-05
-7.11701e-06
1.09155e-05
-6.87203e-06
1.09644e-05
-6.60258e-06
1.10063e-05
-6.3401e-06
1.10178e-05
-6.10318e-06
-5.88486e-06
1.10272e-05
1.22198e-05
-9.69141e-06
1.18156e-05
-9.43203e-06
1.15059e-05
-9.11295e-06
1.11609e-05
-8.76076e-06
1.08148e-05
-8.33862e-06
1.05059e-05
-7.93851e-06
1.02693e-05
-7.63467e-06
1.01028e-05
-7.37997e-06
9.96653e-06
-7.16076e-06
9.83715e-06
-6.89539e-06
9.77161e-06
-6.65465e-06
9.77428e-06
-6.42007e-06
9.78322e-06
-6.1735e-06
9.78263e-06
-5.92893e-06
9.80821e-06
-5.70498e-06
9.8551e-06
-5.49375e-06
9.90877e-06
-5.28307e-06
-5.07243e-06
9.93997e-06
1.12723e-05
-7.96365e-06
1.07092e-05
-7.96307e-06
1.02875e-05
-7.79032e-06
9.97522e-06
-7.54422e-06
9.74506e-06
-7.18658e-06
9.56806e-06
-6.82717e-06
9.41798e-06
-6.5422e-06
9.28294e-06
-6.29032e-06
9.14264e-06
-6.0567e-06
9.05109e-06
-5.84027e-06
8.96272e-06
-5.60391e-06
8.88339e-06
-5.38625e-06
8.83871e-06
-5.19264e-06
8.83173e-06
-4.99941e-06
8.84513e-06
-4.81153e-06
8.87655e-06
-4.64879e-06
8.93744e-06
-4.4956e-06
-4.31822e-06
9.00187e-06
9.68793e-06
-6.59138e-06
9.30969e-06
-6.69186e-06
9.03721e-06
-6.62807e-06
8.80274e-06
-6.42016e-06
8.60813e-06
-6.09143e-06
8.46106e-06
-5.76742e-06
8.34478e-06
-5.50802e-06
8.24429e-06
-5.26888e-06
8.1604e-06
-5.04617e-06
8.10562e-06
-4.85999e-06
8.07326e-06
-4.65594e-06
8.05091e-06
-4.45975e-06
8.03686e-06
-4.28708e-06
8.05708e-06
-4.14239e-06
8.10093e-06
-3.99384e-06
8.14895e-06
-3.85906e-06
8.20105e-06
-3.73901e-06
-3.60237e-06
8.26422e-06
8.77725e-06
-5.39261e-06
8.51453e-06
-5.57889e-06
8.29133e-06
-5.55717e-06
8.05566e-06
-5.3368e-06
7.88408e-06
-5.06556e-06
7.76921e-06
-4.79041e-06
7.66659e-06
-4.53879e-06
7.57519e-06
-4.31101e-06
7.50469e-06
-4.10686e-06
7.44039e-06
-3.92584e-06
7.38657e-06
-3.74254e-06
7.36435e-06
-3.59248e-06
7.37884e-06
-3.46931e-06
7.40472e-06
-3.35379e-06
7.44903e-06
-3.24232e-06
7.50923e-06
-3.1425e-06
7.55567e-06
-3.03376e-06
-2.91292e-06
7.59263e-06
7.69574e-06
-4.20533e-06
7.59784e-06
-4.69022e-06
7.4518e-06
-4.62166e-06
7.26107e-06
-4.35656e-06
7.10184e-06
-4.11185e-06
6.99173e-06
-3.88085e-06
6.91329e-06
-3.65741e-06
6.83631e-06
-3.43157e-06
6.76674e-06
-3.23844e-06
6.70473e-06
-3.06764e-06
6.66319e-06
-2.91e-06
6.63633e-06
-2.7864e-06
6.63967e-06
-2.70745e-06
6.66123e-06
-2.62645e-06
6.67782e-06
-2.52982e-06
6.69964e-06
-2.4553e-06
6.71974e-06
-2.36705e-06
-2.26377e-06
6.73369e-06
7.18295e-06
-3.27425e-06
7.1099e-06
-3.89375e-06
6.92698e-06
-3.71371e-06
6.68118e-06
-3.38603e-06
6.43237e-06
-3.13457e-06
6.2131e-06
-2.92996e-06
6.03808e-06
-2.74927e-06
5.88977e-06
-2.5505e-06
5.7626e-06
-2.38134e-06
5.64951e-06
-2.23016e-06
5.56569e-06
-2.10927e-06
5.50105e-06
-2.01449e-06
5.44411e-06
-1.95585e-06
5.39483e-06
-1.89745e-06
5.3468e-06
-1.81932e-06
5.29542e-06
-1.76046e-06
5.24971e-06
-1.69819e-06
-1.61273e-06
5.20036e-06
6.42485e-06
-2.5922e-06
6.38498e-06
-3.19937e-06
6.1315e-06
-2.80259e-06
5.78444e-06
-2.38154e-06
5.38204e-06
-2.07163e-06
4.98581e-06
-1.87076e-06
4.62179e-06
-1.72129e-06
4.31132e-06
-1.57696e-06
4.0482e-06
-1.45789e-06
3.84011e-06
-1.3666e-06
3.66788e-06
-1.28855e-06
3.52901e-06
-1.23633e-06
3.39269e-06
-1.19168e-06
3.26432e-06
-1.15466e-06
3.15609e-06
-1.11188e-06
3.0501e-06
-1.07203e-06
2.95996e-06
-1.04374e-06
-9.80641e-07
2.87309e-06
5.6821e-06
-2.01515e-06
5.0796e-06
-2.0111e-06
4.34092e-06
-1.47274e-06
3.65268e-06
-1.10189e-06
3.04534e-06
-8.70185e-07
2.5204e-06
-7.49519e-07
2.07933e-06
-6.82932e-07
1.72981e-06
-6.30828e-07
1.47537e-06
-6.09133e-07
1.27337e-06
-5.74569e-07
1.11731e-06
-5.48628e-07
9.85804e-07
-5.29284e-07
8.73626e-07
-5.14575e-07
7.71327e-07
-4.99654e-07
6.81362e-07
-4.83053e-07
6.04799e-07
-4.71675e-07
5.45138e-07
-4.76569e-07
-4.58482e-07
5.13013e-07
3.65106e-06
2.135e-06
1.1658e-06
5.72278e-07
2.15302e-07
-1.76427e-08
-1.82269e-07
-2.94735e-07
-3.87151e-07
-4.48402e-07
-4.88872e-07
-5.17043e-07
-5.39478e-07
-5.57483e-07
-5.70804e-07
-5.8575e-07
-6.19724e-07
-6.50456e-07
-3.20665e-07
1.40789e-07
-7.31037e-07
2.20279e-07
-1.13493e-06
2.15656e-07
-1.47616e-06
1.53772e-07
-1.74197e-06
7.88105e-08
-1.91444e-06
-1.30139e-08
-1.96303e-06
-1.3406e-07
-1.8609e-06
-2.81229e-07
-1.62633e-06
-4.09826e-07
-1.27389e-06
-5.23745e-07
-8.30393e-07
-6.11176e-07
-3.41292e-07
-6.52914e-07
1.48852e-07
-6.50803e-07
6.78835e-07
-6.86548e-07
1.30206e-06
-7.73565e-07
1.94854e-06
-7.90715e-07
2.50499e-06
-6.97305e-07
2.9553e-06
-5.88889e-07
3.38867e-06
-5.67709e-07
3.83311e-06
-5.73881e-07
4.19469e-06
-4.86754e-07
4.46425e-06
-3.90357e-07
4.63731e-06
-2.89565e-07
4.70057e-06
-1.76709e-07
4.61408e-06
-2.56172e-08
4.3998e-06
1.04327e-07
4.02365e-06
2.66617e-07
3.49731e-06
4.18262e-07
2.84151e-06
5.4948e-07
2.069e-06
6.6864e-07
1.25296e-06
7.20334e-07
4.27607e-07
7.3387e-07
-3.29395e-07
6.63213e-07
-9.28389e-07
5.01586e-07
-1.51418e-06
4.90448e-07
-2.19806e-06
5.91173e-07
-2.82003e-06
5.22723e-07
-3.1766e-06
2.4526e-07
-3.382e-06
8.56533e-08
-3.6174e-06
1.09609e-07
-3.83938e-06
9.10874e-08
-3.92233e-06
-5.38268e-08
-3.85551e-06
-2.1038e-07
-3.6762e-06
-3.303e-07
-3.34168e-06
-4.94262e-07
-2.83775e-06
-6.75691e-07
-2.17578e-06
-8.4497e-07
-1.39207e-06
-9.78632e-07
-4.38802e-07
-1.16083e-06
6.87081e-07
-1.34909e-06
1.84095e-06
-1.39686e-06
2.8709e-06
-1.29245e-06
3.78111e-06
-1.19307e-06
4.51803e-06
-1.04486e-06
4.98141e-06
-7.93821e-07
5.22018e-06
-5.81166e-07
5.36794e-06
-4.98145e-07
5.45117e-06
-4.46548e-07
5.41843e-06
-3.51389e-07
5.30705e-06
-2.9933e-07
5.2236e-06
-3.59666e-07
5.21623e-06
-4.76531e-07
5.21804e-06
-5.31329e-07
5.20125e-06
-5.47402e-07
5.15074e-06
-5.38627e-07
5.01135e-06
-4.74821e-07
5.06652e-06
-6.92174e-07
6.18002e-06
-1.81657e-06
7.53743e-06
-2.11071e-06
8.07245e-06
-1.35083e-06
7.94782e-06
-8.00973e-07
6.65909e-06
2.82852e-07
4.07566e-06
1.6058e-06
1.69418e-06
1.36413e-06
5.22073e-08
4.92349e-07
-1.16299e-06
-4.30049e-08
-1.97471e-06
-5.38946e-07
-2.52849e-06
-8.88633e-07
-2.85062e-06
-1.21841e-06
-2.97868e-06
-1.50822e-06
-2.95135e-06
-1.76142e-06
-2.77275e-06
-2.01434e-06
-2.46728e-06
-2.23975e-06
-2.0606e-06
-2.44404e-06
-1.55631e-06
-2.64305e-06
-9.69892e-07
-2.82562e-06
-3.09202e-07
-2.99959e-06
4.59058e-07
-3.2057e-06
1.27835e-06
-3.35398e-06
2.13814e-06
-3.49009e-06
3.05648e-06
-3.64544e-06
4.04739e-06
-3.81588e-06
4.99135e-06
-3.87096e-06
6.00584e-06
-4.04385e-06
6.97573e-06
-4.11679e-06
7.98078e-06
-4.26333e-06
8.94883e-06
-4.35636e-06
9.77078e-06
-4.34281e-06
1.0706e-05
-4.59377e-06
1.16462e-05
-4.75918e-06
1.24932e-05
-4.83344e-06
1.33523e-05
-5.02422e-06
1.41892e-05
-5.21247e-06
1.48021e-05
-5.23885e-06
1.51868e-05
-5.26805e-06
1.55182e-05
-5.46378e-06
1.59187e-05
-5.75089e-06
1.65967e-05
-6.22346e-06
1.72969e-05
-6.50752e-06
1.75866e-05
-6.48001e-06
1.73918e-05
-6.38296e-06
1.68077e-05
-6.27935e-06
1.61178e-05
-6.48221e-06
1.57566e-05
-7.18153e-06
1.53602e-05
-7.48622e-06
1.47901e-05
-7.75432e-06
1.44462e-05
-8.44665e-06
1.46562e-05
-9.25882e-06
1.48136e-05
-9.59598e-06
1.42729e-05
-9.67027e-06
1.30392e-05
-9.68619e-06
1.14546e-05
-9.45454e-06
9.81771e-06
-9.36792e-06
8.64689e-06
-1.02676e-05
7.96534e-06
-1.13657e-05
7.58749e-06
-1.1797e-05
7.12088e-06
-1.14771e-05
5.72162e-06
-1.03237e-05
3.60445e-06
-9.5518e-06
1.54497e-06
-9.65016e-06
2.74863e-07
-1.0511e-05
-3.67502e-07
-1.12682e-05
-8.48893e-07
-1.16812e-05
-1.45606e-06
-1.17408e-05
-2.0432e-06
-1.17744e-05
-3.48546e-06
-1.08527e-05
-5.88017e-06
-1.00832e-05
-8.33835e-06
-1.05799e-05
-5.37198e-06
-1.68565e-05
5.57962e-06
-2.41653e-05
8.94438e-06
-1.73703e-05
5.93821e-06
-1.09115e-05
6.3417e-06
-1.48659e-05
8.05253e-06
-1.66793e-05
1.07345e-05
-1.80254e-05
1.33296e-05
-1.84019e-05
1.36278e-05
-1.65631e-05
1.33153e-05
-1.65781e-05
1.29439e-05
-1.73583e-05
1.31321e-05
-1.87314e-05
1.33272e-05
-1.94967e-05
1.35115e-05
-2.02462e-05
1.42453e-05
-2.1595e-05
1.48103e-05
-2.21037e-05
1.39559e-05
-2.12245e-05
1.40977e-05
-2.27804e-05
1.26797e-05
-2.15112e-05
1.09403e-05
-2.14945e-05
9.16836e-06
-2.15885e-05
7.68182e-06
-2.18587e-05
5.50134e-06
-2.10637e-05
4.20521e-06
-2.19408e-05
3.16514e-06
-2.20721e-05
3.34803e-06
-2.29985e-05
4.70726e-06
-2.3751e-05
6.49116e-06
-2.41659e-05
8.08624e-06
-2.39658e-05
8.54189e-06
-2.3021e-05
7.40021e-06
-2.15718e-05
6.26275e-06
-2.19469e-05
6.19216e-06
-2.30823e-05
3.67813e-06
-2.02803e-05
-3.60782e-07
-1.85137e-05
-4.49896e-06
-1.77705e-05
-7.9965e-06
-1.81436e-05
-9.36789e-06
-1.95238e-05
-1.05686e-05
-1.81742e-05
-1.21988e-05
-1.63418e-05
-1.45073e-05
-1.46926e-05
-1.39602e-05
-1.68744e-05
-1.94168e-07
1.47459e-07
-4.39597e-07
2.61972e-07
-7.31188e-07
3.01675e-07
-1.0334e-06
2.53091e-07
-1.27364e-06
1.20818e-07
-1.3517e-06
-1.25403e-07
-1.26103e-06
-4.06474e-07
-1.01263e-06
-7.04159e-07
-6.45362e-07
-9.47107e-07
-2.02285e-07
-1.13223e-06
2.78115e-07
-1.25404e-06
8.28168e-07
-1.36154e-06
1.39524e-06
-1.3757e-06
1.91348e-06
-1.36381e-06
2.43477e-06
-1.44762e-06
3.01795e-06
-1.51403e-06
3.59036e-06
-1.40519e-06
4.10061e-06
-1.23654e-06
4.62253e-06
-1.22181e-06
5.14827e-06
-1.22518e-06
5.57642e-06
-1.03637e-06
5.91991e-06
-8.54175e-07
6.30079e-06
-7.89517e-07
6.59672e-06
-5.77247e-07
6.80937e-06
-3.38854e-07
6.92852e-06
-1.17665e-07
6.90858e-06
1.8668e-07
6.79094e-06
4.30811e-07
6.54775e-06
6.90283e-07
6.14635e-06
9.69772e-07
5.61884e-06
1.13085e-06
4.99018e-06
1.24399e-06
4.17819e-06
1.36721e-06
3.18001e-06
1.37575e-06
2.15432e-06
1.38967e-06
1.22482e-06
1.40963e-06
4.71052e-07
1.16888e-06
-1.98307e-07
8.03204e-07
-8.3093e-07
5.9734e-07
-1.25257e-06
3.98013e-07
-1.41954e-06
1.21523e-07
-1.46134e-06
-1.51206e-07
-1.52539e-06
-2.93361e-07
-1.54428e-06
-4.66957e-07
-1.33363e-06
-8.66472e-07
-7.93926e-07
-1.38104e-06
-1.96537e-08
-1.79168e-06
8.88768e-07
-2.07293e-06
1.94746e-06
-2.41196e-06
3.21388e-06
-2.81051e-06
4.52387e-06
-2.92867e-06
5.6215e-06
-2.64868e-06
6.56615e-06
-2.41017e-06
7.50004e-06
-2.24929e-06
8.30977e-06
-1.89199e-06
8.83111e-06
-1.43809e-06
9.05863e-06
-1.10023e-06
9.23799e-06
-9.99442e-07
9.51252e-06
-9.92945e-07
9.82583e-06
-1.00603e-06
1.0071e-05
-1.03073e-06
1.01948e-05
-1.0169e-06
1.01636e-05
-9.77595e-07
9.80454e-06
-8.40235e-07
9.38604e-06
-9.11208e-07
9.21018e-06
-1.06936e-06
8.70514e-06
-7.46619e-07
6.78754e-06
-5.18831e-07
3.48301e-06
4.03478e-07
-8.70178e-07
2.21748e-06
-4.49287e-06
1.95276e-06
-6.7013e-06
1.53031e-06
-7.50018e-06
1.40156e-06
-7.74391e-06
5.18636e-07
-8.09697e-06
-3.27877e-07
-8.27327e-06
-1.11474e-06
-8.36154e-06
-1.7943e-06
-8.26371e-06
-2.40485e-06
-8.04161e-06
-2.95601e-06
-7.67488e-06
-3.47366e-06
-7.19112e-06
-3.94059e-06
-6.58981e-06
-4.40347e-06
-5.90051e-06
-4.80972e-06
-5.14505e-06
-5.1822e-06
-4.31549e-06
-5.54713e-06
-3.43332e-06
-5.87917e-06
-2.47921e-06
-6.2191e-06
-1.49145e-06
-6.55053e-06
-4.50208e-07
-6.8454e-06
6.71635e-07
-7.15054e-06
1.79685e-06
-7.4048e-06
2.94254e-06
-7.68474e-06
4.11482e-06
-7.86844e-06
5.35314e-06
-8.17888e-06
6.40875e-06
-8.22323e-06
7.4868e-06
-8.47924e-06
8.54046e-06
-8.6844e-06
9.5543e-06
-8.79719e-06
1.07271e-05
-9.31745e-06
1.17844e-05
-9.52585e-06
1.27243e-05
-9.66263e-06
1.36586e-05
-1.00223e-05
1.4624e-05
-1.03962e-05
1.54974e-05
-1.05926e-05
1.6126e-05
-1.07177e-05
1.6491e-05
-1.09777e-05
1.66592e-05
-1.13612e-05
1.71095e-05
-1.22308e-05
1.78382e-05
-1.28562e-05
1.85539e-05
-1.31222e-05
1.89854e-05
-1.32484e-05
1.87206e-05
-1.28447e-05
1.80366e-05
-1.2976e-05
1.80377e-05
-1.47071e-05
1.80508e-05
-1.54353e-05
1.72122e-05
-1.53545e-05
1.64089e-05
-1.6466e-05
1.67445e-05
-1.82478e-05
1.70885e-05
-1.88284e-05
1.6489e-05
-1.91992e-05
1.49331e-05
-1.9643e-05
1.33148e-05
-1.97935e-05
1.22861e-05
-2.032e-05
1.18391e-05
-2.22189e-05
1.10503e-05
-2.34971e-05
1.00266e-05
-2.3446e-05
9.05747e-06
-2.29068e-05
7.51457e-06
-2.10723e-05
5.44005e-06
-1.96865e-05
3.13167e-06
-1.95116e-05
9.59029e-07
-2.04886e-05
-9.49213e-07
-2.17603e-05
-2.42345e-06
-2.29716e-05
-3.23018e-06
-2.35648e-05
-3.671e-06
-2.37469e-05
-4.90172e-06
-2.19591e-05
-6.25245e-06
-2.12695e-05
-6.3405e-06
-2.38399e-05
-2.19308e-06
-3.44878e-05
5.03489e-06
-4.39348e-05
7.30806e-06
-3.43323e-05
4.87931e-06
-2.28545e-05
6.80913e-06
-3.1177e-05
9.73341e-06
-3.43973e-05
1.33355e-05
-3.64274e-05
1.82584e-05
-3.82033e-05
1.97268e-05
-3.3973e-05
1.92877e-05
-3.29083e-05
1.83457e-05
-3.43273e-05
1.83541e-05
-3.76474e-05
1.83444e-05
-3.91148e-05
1.8678e-05
-4.08123e-05
2.01871e-05
-4.42401e-05
2.106e-05
-4.50956e-05
1.97896e-05
-4.30025e-05
2.02036e-05
-4.6546e-05
1.85365e-05
-4.41626e-05
1.66035e-05
-4.4247e-05
1.46865e-05
-4.49608e-05
1.29622e-05
-4.50294e-05
1.04363e-05
-4.29162e-05
9.33705e-06
-4.50959e-05
8.01908e-06
-4.50157e-05
7.92171e-06
-4.60469e-05
9.81481e-06
-4.73505e-05
1.21747e-05
-4.86203e-05
1.37763e-05
-4.85649e-05
1.35101e-05
-4.68193e-05
1.13657e-05
-4.44617e-05
9.40512e-06
-4.59601e-05
8.80551e-06
-4.89343e-05
5.66507e-06
-4.41942e-05
9.78141e-07
-4.1019e-05
-4.11362e-06
-3.87029e-05
-7.50327e-06
-4.05729e-05
-8.11492e-06
-4.30016e-05
-9.31058e-06
-3.84785e-05
-1.17382e-05
-3.35694e-05
-1.45055e-05
-3.11992e-05
-3.07504e-05
-1.6717e-05
-1.69981e-07
1.18575e-07
-3.41477e-07
2.16976e-07
-5.61246e-07
2.98764e-07
-7.89166e-07
2.61383e-07
-8.7565e-07
1.25876e-09
-7.25911e-07
-4.66044e-07
-4.05624e-07
-9.10373e-07
-4.68182e-09
-1.28653e-06
4.24087e-07
-1.55752e-06
8.67531e-07
-1.75912e-06
1.28219e-06
-1.85376e-06
1.69994e-06
-1.96081e-06
2.17018e-06
-2.02459e-06
2.64456e-06
-2.01843e-06
3.04142e-06
-2.02316e-06
3.45522e-06
-2.09851e-06
3.88049e-06
-1.99419e-06
4.29947e-06
-1.81898e-06
4.82355e-06
-1.90198e-06
5.26332e-06
-1.81157e-06
5.54012e-06
-1.46752e-06
5.936e-06
-1.39169e-06
6.3429e-06
-1.32893e-06
6.64692e-06
-1.02704e-06
6.94763e-06
-7.70247e-07
7.18621e-06
-4.88095e-07
7.3277e-06
-9.63112e-08
7.49848e-06
1.42565e-07
7.52833e-06
5.60196e-07
7.41244e-06
9.72863e-07
7.23372e-06
1.20144e-06
6.89353e-06
1.49654e-06
6.43759e-06
1.7142e-06
5.97257e-06
1.72412e-06
5.45871e-06
1.79007e-06
4.923e-06
1.81264e-06
4.24158e-06
1.73122e-06
3.2796e-06
1.64975e-06
2.31521e-06
1.42575e-06
1.42927e-06
1.14605e-06
6.81095e-07
7.34834e-07
3.38284e-07
5.29414e-08
2.56677e-07
-3.54472e-07
2.47449e-07
-6.05263e-07
4.34418e-07
-1.20454e-06
8.42447e-07
-1.93786e-06
1.46036e-06
-2.55478e-06
2.34702e-06
-3.12427e-06
3.44893e-06
-3.69685e-06
4.71258e-06
-4.23531e-06
5.93656e-06
-4.31516e-06
6.91613e-06
-3.82797e-06
7.56733e-06
-3.28176e-06
8.04129e-06
-2.95713e-06
8.50776e-06
-2.65619e-06
8.95089e-06
-2.25723e-06
9.49866e-06
-1.99268e-06
1.01266e-05
-1.84567e-06
1.07024e-05
-1.78271e-06
1.08755e-05
-1.58312e-06
1.04549e-05
-1.19459e-06
9.59902e-06
-7.79046e-07
8.67252e-06
-4.99058e-07
7.71309e-06
-2.08267e-07
6.18867e-06
7.7973e-08
3.6515e-06
7.88412e-07
-2.20877e-07
2.49071e-06
-4.7595e-06
3.35875e-06
-8.19991e-06
3.08448e-06
-9.59906e-06
2.8286e-06
-1.02743e-05
1.78855e-06
-1.05663e-05
9.03964e-07
-1.00373e-05
-9.36922e-08
-9.44905e-06
-1.11915e-06
-8.96537e-06
-1.91643e-06
-8.49878e-06
-2.76559e-06
-8.11651e-06
-3.44101e-06
-7.7199e-06
-4.13012e-06
-7.29087e-06
-4.80474e-06
-6.77095e-06
-5.47991e-06
-6.17067e-06
-6.11993e-06
-5.49379e-06
-6.73839e-06
-4.74611e-06
-7.30629e-06
-3.94537e-06
-7.82017e-06
-3.10182e-06
-8.31239e-06
-2.20085e-06
-8.78864e-06
-1.25421e-06
-9.25892e-06
-2.09231e-07
-9.77055e-06
9.0692e-07
-1.02171e-05
1.97082e-06
-1.05417e-05
3.15312e-06
-1.1015e-05
4.26219e-06
-1.13077e-05
5.30152e-06
-1.15122e-05
6.52001e-06
-1.20156e-05
7.58806e-06
-1.20635e-05
8.588e-06
-1.23436e-05
9.69276e-06
-1.26911e-05
1.06513e-05
-1.28615e-05
1.16676e-05
-1.3552e-05
1.26028e-05
-1.38178e-05
1.3525e-05
-1.41148e-05
1.43652e-05
-1.46052e-05
1.52277e-05
-1.51479e-05
1.62367e-05
-1.56285e-05
1.71145e-05
-1.59135e-05
1.77652e-05
-1.62189e-05
1.79161e-05
-1.65762e-05
1.76884e-05
-1.75364e-05
1.76502e-05
-1.85045e-05
1.79477e-05
-1.91462e-05
1.84379e-05
-1.96712e-05
1.8242e-05
-1.9139e-05
1.73088e-05
-1.91133e-05
1.73734e-05
-2.1446e-05
1.81127e-05
-2.28595e-05
1.74766e-05
-2.26691e-05
1.62051e-05
-2.39415e-05
1.69479e-05
-2.66544e-05
1.86983e-05
-2.70605e-05
1.85562e-05
-2.65457e-05
1.61904e-05
-2.68981e-05
1.40378e-05
-2.84664e-05
1.32116e-05
-3.07702e-05
1.23005e-05
-3.28762e-05
1.05852e-05
-3.29944e-05
9.13229e-06
-3.27177e-05
8.06475e-06
-3.27061e-05
6.25816e-06
-3.07799e-05
3.70505e-06
-2.89782e-05
1.24263e-06
-2.87909e-05
-8.81807e-07
-3.01205e-05
-3.24454e-06
-3.13845e-05
-4.63983e-06
-3.31424e-05
-4.10869e-06
-3.51573e-05
-2.78007e-06
-3.65732e-05
-2.49717e-06
-3.43993e-05
-2.67711e-06
-3.3355e-05
-2.37436e-06
-3.65673e-05
1.96445e-06
-5.00439e-05
3.18982e-06
-5.68077e-05
4.08419e-06
-4.7366e-05
5.3944e-06
-3.87188e-05
7.94682e-06
-4.68652e-05
9.46067e-06
-4.87701e-05
1.10644e-05
-5.10553e-05
1.66962e-05
-5.59601e-05
1.95305e-05
-5.08834e-05
1.94782e-05
-4.8393e-05
1.81472e-05
-4.91522e-05
1.83331e-05
-5.42652e-05
1.83374e-05
-5.59787e-05
1.86409e-05
-5.79184e-05
2.12739e-05
-6.35279e-05
2.31369e-05
-6.47784e-05
2.2006e-05
-6.1744e-05
2.34769e-05
-6.69661e-05
2.21405e-05
-6.36645e-05
1.99702e-05
-6.25595e-05
1.84798e-05
-6.49593e-05
1.68747e-05
-6.61186e-05
1.40032e-05
-6.2468e-05
1.31197e-05
-6.58232e-05
1.10749e-05
-6.54722e-05
9.42038e-06
-6.53577e-05
1.09353e-05
-6.65349e-05
1.52086e-05
-6.88045e-05
1.91895e-05
-6.94385e-05
2.0228e-05
-6.68897e-05
1.75423e-05
-6.33883e-05
1.44485e-05
-6.5647e-05
1.3619e-05
-7.05634e-05
1.066e-05
-6.68592e-05
5.02617e-06
-6.32007e-05
-1.3325e-06
-5.97642e-05
-5.3839e-06
-6.22427e-05
-6.95935e-06
-6.34043e-05
-9.30382e-06
-5.64073e-05
-1.28817e-05
-5.01334e-05
-1.47916e-05
-4.99179e-05
-4.89196e-05
-1.55801e-05
-2.31747e-07
1.32766e-07
-5.1639e-07
2.66821e-07
-7.26608e-07
2.71315e-07
-7.33024e-07
3.8295e-08
-4.74099e-07
-4.75247e-07
-6.36381e-08
-1.08898e-06
4.10821e-07
-1.59935e-06
8.32459e-07
-1.9273e-06
1.15811e-06
-2.10486e-06
1.41038e-06
-2.23236e-06
1.6773e-06
-2.34142e-06
1.91926e-06
-2.42042e-06
2.16109e-06
-2.47921e-06
2.48404e-06
-2.54857e-06
2.81285e-06
-2.55004e-06
3.12906e-06
-2.60365e-06
3.54587e-06
-2.60597e-06
3.95928e-06
-2.41963e-06
4.32232e-06
-2.43132e-06
4.59537e-06
-2.25668e-06
4.88891e-06
-1.94152e-06
5.31872e-06
-1.98312e-06
5.62754e-06
-1.79236e-06
5.89637e-06
-1.47711e-06
6.28869e-06
-1.34326e-06
6.58832e-06
-9.69596e-07
6.92309e-06
-5.9478e-07
7.20239e-06
-2.90888e-07
7.2892e-06
2.70128e-07
7.37825e-06
7.22448e-07
7.46402e-06
1.00146e-06
7.34818e-06
1.45741e-06
7.22013e-06
1.70495e-06
7.02677e-06
1.80725e-06
6.64862e-06
2.0261e-06
6.33097e-06
2.00779e-06
5.96933e-06
1.96491e-06
5.45684e-06
1.99617e-06
5.03799e-06
1.70985e-06
4.37537e-06
1.68333e-06
3.38887e-06
1.56199e-06
2.46455e-06
8.14575e-07
1.6642e-06
2.93307e-07
1.23408e-06
-3.2623e-07
1.28119e-06
-1.41238e-06
1.51947e-06
-2.34169e-06
1.98912e-06
-3.18113e-06
2.76494e-06
-4.05988e-06
3.66474e-06
-4.78107e-06
4.50253e-06
-5.23441e-06
5.14149e-06
-5.11802e-06
5.58017e-06
-4.46139e-06
5.90043e-06
-3.75905e-06
6.12616e-06
-3.33705e-06
6.23204e-06
-3.02206e-06
6.29737e-06
-2.67342e-06
6.30065e-06
-2.35462e-06
6.14816e-06
-2.03702e-06
5.70445e-06
-1.68552e-06
5.09453e-06
-1.3112e-06
4.4594e-06
-8.96508e-07
3.63383e-06
-3.61009e-07
2.23785e-06
4.1178e-07
-1.29909e-08
1.54126e-06
-3.30834e-06
2.86331e-06
-7.13525e-06
4.051e-06
-1.00798e-05
4.83019e-06
-1.17279e-05
4.36711e-06
-1.24357e-05
3.10294e-06
-1.21102e-05
1.77304e-06
-1.14672e-05
3.58451e-07
-1.06843e-05
-7.30209e-07
-9.81538e-06
-1.86849e-06
-9.14364e-06
-2.77367e-06
-8.54046e-06
-3.55331e-06
-8.10863e-06
-4.31761e-06
-7.74333e-06
-4.9801e-06
-7.39379e-06
-5.73347e-06
-7.01498e-06
-6.50881e-06
-6.54461e-06
-7.34955e-06
-5.96339e-06
-8.18963e-06
-5.29771e-06
-8.97519e-06
-4.5596e-06
-9.71067e-06
-3.74484e-06
-1.03853e-05
-2.88268e-06
-1.10079e-05
-1.94652e-06
-1.16349e-05
-9.4574e-07
-1.2254e-05
1.53616e-07
-1.29443e-05
1.24419e-06
-1.3459e-05
2.39833e-06
-1.38888e-05
3.61694e-06
-1.45172e-05
4.81111e-06
-1.48765e-05
6.01216e-06
-1.51595e-05
7.1162e-06
-1.56325e-05
8.28163e-06
-1.57427e-05
9.23993e-06
-1.60459e-05
1.02377e-05
-1.64213e-05
1.12737e-05
-1.67158e-05
1.23318e-05
-1.75333e-05
1.33403e-05
-1.78693e-05
1.42227e-05
-1.82139e-05