/*--------------------------------*- C++ -*----------------------------------*\
| =========                 |                                                 |
| \\      /  F ield         | OpenFOAM: The Open Source CFD Toolbox           |
|  \\    /   O peration     | Version:  dev                                   |
|   \\  /    A nd           | Web:      http://www.openfoam.org               |
|    \\/     M anipulation  |                                                 |
\*---------------------------------------------------------------------------*/
FoamFile
{
    version     2.0;
    format      ascii;
    class       volScalarField;
    object      pMean;
    location    "9.145";
}
// * * * * * * * * * * * * * * * * * * * * * * * * * * * * * * * * * * * * * //

dimensions      [1 -1 -2 0 0 0 0];

internalField   nonuniform List<scalar> 
12225
(
98311.5
98291.7
98277.9
98270.9
98256.7
98247.2
98228.8
98219.2
98197.7
98188.9
98164.3
98157.4
98126.4
98120.1
98079.3
98039.6
97950.4
97584.2
98307
98290.6
98277.4
98270.4
98256.1
98246.7
98228.1
98218.7
98197
98188.5
98163.5
98156.9
98126
98118.2
98077.6
98043.6
97951.3
97790.1
98303.2
98289
98276.4
98269
98254.6
98245.2
98226.6
98217.3
98195.6
98187.1
98162.7
98154.8
98126.6
98114.8
98079.8
98044.6
97977.1
97888.3
98298.1
98286.1
98274.3
98266.6
98252.2
98242.5
98224.5
98214.6
98193.8
98184.4
98161.3
98151.7
98125.5
98112.6
98080.8
98053
98004.5
97935.6
98291.5
98281.7
98270.7
98262.6
98248.7
98238.4
98221.5
98210.5
98191.4
98180.1
98159.8
98147.2
98125.7
98109.3
98082.7
98058.5
98018.6
97985.9
98283.2
98275.6
98264.8
98256.5
98243
98232.4
98216.4
98204.7
98187
98174.8
98156.6
98143
98124.6
98107.7
98086.3
98061
98038.8
98018.4
98273
98266.6
98256.3
98247.8
98235.2
98224
98209.3
98196.7
98180.9
98167.4
98152
98136.9
98122.4
98104.8
98090.5
98069.5
98059.1
98044.2
98262.3
98256.6
98246.9
98238.2
98226.5
98215
98201.4
98188.2
98174.2
98159.8
98146.7
98131.1
98119.5
98102.2
98093.5
98075.6
98073.9
98059
98251.4
98246
98237.1
98228.2
98217.4
98205.6
98193.1
98179.6
98167
98152.3
98140.9
98125.4
98115.7
98099.7
98093.4
98079.2
98078.9
98067
98237.8
98232.3
98224.6
98215.6
98205.7
98193.9
98182.4
98168.9
98157.6
98143
98133.1
98118.1
98110
98095.5
98090.6
98078.8
98078
98069.7
98220.9
98215.4
98208.8
98200
98190.9
98179.4
98168.7
98155.7
98145.2
98131.6
98122.2
98109.1
98101
98089.5
98083.9
98075.3
98072.7
98067.5
98200.3
98194.6
98189.3
98180.9
98172.5
98161.5
98151.6
98139.3
98129.7
98117.1
98108.5
98097
98089.4
98080.1
98074.4
98068
98064.4
98060.8
98175.5
98170.2
98165.7
98158.2
98150.2
98140.2
98130.8
98119.9
98110.7
98100
98091.6
98082.3
98075
98067.8
98062.4
98057.5
98053.9
98051.2
98147.3
98142.5
98138.5
98131.9
98124.7
98115.8
98107.1
98097.6
98089.1
98080.1
98072.4
98064.8
98058.4
98052.7
98048
98044.2
98041.2
98039.1
98117.2
98113.4
98109.6
98104.2
98097.7
98090.1
98082.3
98074.2
98066.6
98059.2
98052.4
98046.3
98041
98036.5
98032.7
98029.8
98027.6
98026.1
98089.4
98086.7
98083.3
98078.8
98073.2
98066.7
98059.9
98053
98046.4
98040.2
98034.6
98029.7
98025.4
98021.8
98018.9
98016.8
98015.2
98014.3
98070.8
98068.9
98066.1
98062.2
98057.3
98051.6
98045.6
98039.7
98034
98028.8
98024
98019.8
98016.3
98013.3
98011
98009.4
98008.2
98007.6
98071.1
98069.4
98066.9
98063.1
98058.4
98053.1
98047.5
98041.9
98036.6
98031.6
98027.2
98023.2
98019.8
98017
98014.8
98013.1
98011.9
98011.2
98090.8
98089
98086.1
98082.2
98077.2
98071.7
98065.9
98060.1
98054.5
98049.3
98044.5
98040.2
98036.5
98033.3
98030.6
98028.5
98026.8
98025.5
98121.6
98119.4
98116
98111.5
98106.1
98100.1
98093.7
98087.4
98081.2
98075.4
98070
98065.1
98060.7
98056.8
98053.4
98050.6
98048.2
98046.3
98156.4
98153.8
98149.8
98144.6
98138.5
98131.9
98124.9
98117.9
98111.1
98104.5
98098.4
98092.7
98087.6
98083
98078.8
98075.2
98072.1
98069.4
98190.3
98187.2
98182.4
98176.6
98169.9
98162.6
98155.1
98147.5
98140
98132.8
98126
98119.6
98113.8
98108.4
98103.6
98099.2
98095.4
98092
98220.5
98216.9
98211.4
98204.8
98197.6
98189.8
98181.8
98173.7
98165.7
98157.9
98150.5
98143.5
98137
98131.1
98125.6
98120.6
98116.2
98112.1
98245.9
98241.5
98235.2
98228.1
98220.4
98212.3
98203.9
98195.4
98186.9
98178.7
98170.8
98163.3
98156.4
98149.9
98143.9
98138.4
98133.5
98128.9
98266.1
98260.9
98253.8
98246.1
98238.1
98229.7
98221.1
98212.3
98203.5
98195
98186.7
98178.9
98171.5
98164.6
98158.3
98152.4
98147
98142.1
98281.8
98275.4
98267.4
98259.2
98251
98242.6
98233.8
98224.8
98215.8
98207
98198.5
98190.4
98182.7
98175.6
98168.9
98162.8
98157.1
98151.9
98293.6
98285.7
98276.6
98268.1
98259.9
98251.4
98242.5
98233.4
98224.3
98215.4
98206.7
98198.4
98190.5
98183.2
98176.3
98170
98164.1
98158.7
98302.3
98292.5
98282.4
98273.7
98265.5
98257
98248.1
98239
98229.8
98220.8
98212
98203.6
98195.6
98188.1
98181.2
98174.7
98168.7
98163.2
98308.4
98296.3
98285.1
98276.5
98268.4
98260.1
98251.3
98242.2
98233
98223.9
98215
98206.5
98198.5
98190.9
98183.9
98177.3
98171.3
98165.7
98314.3
98298.8
98286.7
98277.9
98269.7
98261.3
98252.6
98243.5
98234.3
98225.1
98216.3
98207.8
98199.7
98192.1
98185
98178.5
98172.4
98166.8
98311.3
98310.9
98310.2
98309
98307.5
98305.7
98303.5
98300.8
98297.8
98294.3
98290.5
98286.2
98281.6
98276.7
98271.5
98266
98260.3
98254.4
98248.3
98242
98235.6
98229
98222.3
98215.5
98208.6
98201.6
98194.6
98187.5
98180.5
98173.4
98166.3
98159.2
98152.2
98145.2
98138.4
98131.6
98124.9
98118.5
98112.1
98106
98100.1
98094.4
98089
98083.8
98079
98074.5
98070.4
98066.7
98063.4
98060.6
98058.2
98056.3
98054.9
98054
98053.8
98054.1
98055.1
98056.7
98059
98061.9
98065.6
98070
98075.1
98080.9
98087.4
98094.7
98102.6
98111.3
98120.6
98130.6
98141.2
98152.4
98164.1
98176.4
98189.2
98202.4
98216.1
98230.1
98244.4
98259
98273.8
98288.8
98303.9
98319.2
98334.5
98349.7
98364.9
98380
98394.9
98409.6
98424.1
98438.2
98452
98465.3
98478.2
98490.7
98502.6
98513.9
98524.7
98534.8
98544.3
98553.2
98561.4
98569
98575.9
98582.2
98587.9
98593.1
98597.7
98601.8
98605.4
98608.6
98611.5
98613.9
98616.1
98618
98619.7
98621.1
98622.3
98623.5
98624.5
98625.6
98626.7
98628
98629.6
98631.7
98634.3
98637.7
98642.2
98647.8
98654.9
98663.6
98674.3
98687.2
98702.5
98720.6
98741.4
98765.2
98792
98821.8
98854.9
98890.8
98929.6
98971.1
99015.5
99062
99111
99161.7
99214.3
99268.5
99324
99380.4
99437.4
99494.7
99551.9
99608.5
99663.8
99717.6
99768.5
99816.3
99859.8
99898.1
99930.1
99955.1
99971.8
99979.3
99976.6
99963.5
99939.4
99904.7
99859.3
99804.5
99740.5
99669.8
99592.8
99512.3
99427.7
99343.1
99256.3
99173.2
98304.3
98304
98303.2
98302
98300.5
98298.7
98296.4
98293.8
98290.8
98287.4
98283.6
98279.5
98275
98270.2
98265.1
98259.8
98254.3
98248.5
98242.6
98236.5
98230.3
98223.9
98217.4
98210.7
98204
98197.2
98190.3
98183.4
98176.5
98169.6
98162.6
98155.7
98148.8
98142
98135.3
98128.7
98122.2
98115.8
98109.7
98103.6
98097.8
98092.3
98086.9
98081.9
98077.2
98072.8
98068.7
98065.1
98061.8
98059
98056.6
98054.7
98053.3
98052.4
98052.1
98052.4
98053.3
98054.8
98057.1
98059.9
98063.5
98067.8
98072.8
98078.5
98084.9
98092
98099.8
98108.3
98117.4
98127.2
98137.6
98148.6
98160.2
98172.3
98184.8
98197.8
98211.2
98225
98239.1
98253.4
98268
98282.8
98297.7
98312.6
98327.6
98342.6
98357.5
98372.3
98387
98401.4
98415.5
98429.4
98442.9
98455.9
98468.5
98480.7
98492.3
98503.4
98513.9
98523.8
98533
98541.7
98549.7
98557.1
98563.8
98570
98575.6
98580.6
98585.1
98589
98592.6
98595.7
98598.5
98600.9
98603
98604.8
98606.4
98607.8
98609
98610
98611
98612
98613
98614.2
98615.6
98617.5
98619.9
98623
98627.1
98632.4
98639.1
98647.4
98657.6
98669.9
98684.7
98702
98722.2
98745.2
98771.1
98800.1
98832.1
98867
98904.8
98945.3
98988.5
99033.9
99081.7
99131.3
99182.7
99235.7
99290
99345.3
99401.1
99457.4
99513.6
99569.2
99623.6
99676.6
99726.8
99774
99817
99855.1
99887
99912.1
99929.2
99937.2
99935.4
99923.4
99900.6
99867.4
99823.6
99770.5
99708.3
99639.4
99564.2
99485.3
99402.4
99319.3
99233.5
99148.5
98291.7
98291.3
98290.5
98289.3
98287.7
98285.8
98283.5
98280.8
98277.8
98274.4
98270.7
98266.6
98262.3
98257.7
98252.9
98247.8
98242.6
98237.2
98231.6
98225.9
98220
98214
98207.9
98201.6
98195.3
98188.8
98182.3
98175.7
98169
98162.4
98155.7
98149.1
98142.5
98135.9
98129.5
98123.1
98116.8
98110.7
98104.7
98099
98093.4
98088
98082.8
98077.9
98073.3
98069
98065.1
98061.5
98058.3
98055.5
98053.1
98051.2
98049.8
98048.8
98048.4
98048.6
98049.5
98050.9
98053
98055.7
98059.1
98063.1
98067.9
98073.3
98079.5
98086.3
98093.8
98102
98110.9
98120.3
98130.4
98141
98152.2
98163.9
98176
98188.6
98201.6
98214.9
98228.6
98242.5
98256.6
98270.9
98285.3
98299.8
98314.3
98328.7
98343.1
98357.4
98371.5
98385.3
98398.9
98412.2
98425.1
98437.6
98449.7
98461.3
98472.4
98482.9
98492.9
98502.3
98511.1
98519.3
98527
98534
98540.4
98546.2
98551.5
98556.3
98560.5
98564.3
98567.7
98570.6
98573.2
98575.5
98577.5
98579.2
98580.6
98581.9
98582.9
98583.8
98584.6
98585.3
98586.1
98587
98588.1
98589.5
98591.5
98594
98597.5
98602.1
98607.9
98615.3
98624.5
98635.7
98649.2
98665.2
98683.9
98705.3
98729.6
98756.7
98786.8
98819.7
98855.4
98893.7
98934.7
98977.8
99023.3
99070.5
99119.6
99170.2
99222.2
99275.1
99328.7
99382.9
99436.9
99490.5
99543
99594.2
99642.9
99688.7
99730.6
99767.9
99799.2
99824.3
99841.7
99850.5
99850
99839.8
99819.4
99788.8
99748.1
99698.4
99639.8
99574.6
99502.9
99427.6
99348.1
99268.2
99185.2
99101.4
98274.2
98273.9
98273.1
98271.9
98270.3
98268.3
98266
98263.3
98260.3
98257
98253.4
98249.5
98245.3
98241
98236.4
98231.7
98226.8
98221.8
98216.6
98211.4
98205.9
98200.4
98194.7
98188.9
98183.1
98177.1
98171
98164.9
98158.7
98152.6
98146.4
98140.2
98134
98127.8
98121.7
98115.7
98109.8
98104
98098.4
98092.8
98087.5
98082.3
98077.4
98072.7
98068.2
98064.1
98060.3
98056.8
98053.7
98050.9
98048.6
98046.7
98045.2
98044.2
98043.7
98043.8
98044.5
98045.7
98047.6
98050.1
98053.2
98057
98061.4
98066.5
98072.3
98078.7
98085.8
98093.6
98101.9
98110.9
98120.5
98130.7
98141.3
98152.5
98164.1
98176.1
98188.4
98201.1
98214.1
98227.4
98240.8
98254.4
98268.2
98281.9
98295.7
98309.5
98323.1
98336.6
98350
98363.1
98375.9
98388.5
98400.6
98412.4
98423.7
98434.5
98444.8
98454.6
98463.9
98472.7
98480.8
98488.5
98495.5
98502
98507.9
98513.3
98518.2
98522.5
98526.5
98529.9
98533
98535.7
98538.1
98540.2
98542
98543.5
98544.8
98545.8
98546.7
98547.3
98547.9
98548.3
98548.7
98549.1
98549.6
98550.5
98551.7
98553.5
98556.1
98559.6
98564.3
98570.4
98578.2
98587.8
98599.6
98613.7
98630.3
98649.5
98671.4
98696.1
98723.5
98753.7
98786.4
98821.8
98859.7
98899.7
98941.9
98986
99031.9
99079.3
99128.1
99177.9
99228.6
99279.8
99330.9
99381.7
99431.6
99480.4
99527
99570.9
99611.2
99647.2
99677.7
99702.4
99720
99729.6
99730.5
99722.4
99704.6
99677.4
99640.5
99595.1
99541.1
99480.8
99413.9
99343.5
99268.7
99193.2
99114.5
99034.4
98253
98252.7
98252
98250.9
98249.3
98247.4
98245.1
98242.5
98239.6
98236.4
98232.9
98229.2
98225.3
98221.1
98216.9
98212.5
98207.9
98203.3
98198.6
98193.7
98188.8
98183.8
98178.6
98173.3
98168
98162.6
98157.1
98151.5
98145.9
98140.3
98134.7
98129
98123.4
98117.8
98112.2
98106.7
98101.3
98095.9
98090.7
98085.5
98080.5
98075.7
98071
98066.6
98062.4
98058.4
98054.8
98051.4
98048.4
98045.7
98043.4
98041.5
98040
98038.9
98038.3
98038.3
98038.7
98039.8
98041.4
98043.6
98046.3
98049.7
98053.7
98058.4
98063.7
98069.6
98076.2
98083.4
98091.2
98099.6
98108.6
98118.1
98128.1
98138.5
98149.4
98160.7
98172.3
98184.2
98196.4
98208.8
98221.4
98234.1
98247
98259.9
98272.7
98285.6
98298.3
98310.9
98323.3
98335.5
98347.4
98359
98370.2
98381
98391.4
98401.3
98410.8
98419.7
98428.1
98436
98443.4
98450.3
98456.6
98462.4
98467.7
98472.5
98476.9
98480.8
98484.3
98487.4
98490.1
98492.5
98494.6
98496.5
98498
98499.2
98500.3
98501
98501.6
98501.9
98502
98502
98501.9
98501.8
98501.8
98501.9
98502.2
98503
98504.5
98506.7
98510
98514.6
98520.6
98528.3
98538
98549.8
98563.9
98580.4
98599.5
98621.1
98645.4
98672.2
98701.5
98733.2
98767.5
98803.8
98842.2
98882.4
98924.5
98968.1
99013.1
99059.2
99106.2
99153.8
99201.4
99248.9
99295.7
99341.5
99385.4
99427
99465.2
99499.6
99528.9
99553
99570.6
99580.9
99583.1
99577.2
99562.4
99539
99506.5
99466.1
99417.5
99362.8
99301.7
99237.3
99168.3
99098.4
99025.1
98950.5
98229.6
98229.4
98228.7
98227.7
98226.3
98224.5
98222.3
98219.9
98217.1
98214.1
98210.8
98207.3
98203.6
98199.8
98195.8
98191.7
98187.5
98183.2
98178.9
98174.5
98170
98165.4
98160.7
98156
98151.2
98146.3
98141.4
98136.5
98131.5
98126.5
98121.4
98116.4
98111.3
98106.3
98101.3
98096.4
98091.5
98086.6
98081.9
98077.2
98072.7
98068.2
98063.9
98059.8
98055.9
98052.2
98048.7
98045.5
98042.6
98040
98037.8
98035.9
98034.3
98033.2
98032.5
98032.3
98032.5
98033.3
98034.6
98036.5
98038.9
98041.8
98045.4
98049.5
98054.3
98059.6
98065.6
98072.2
98079.3
98087
98095.2
98103.9
98113.1
98122.8
98132.8
98143.2
98153.9
98164.9
98176.2
98187.7
98199.3
98211
98222.8
98234.6
98246.5
98258.2
98269.9
98281.4
98292.8
98303.9
98314.7
98325.2
98335.3
98345.1
98354.4
98363.3
98371.7
98379.7
98387.2
98394.2
98400.7
98406.7
98412.2
98417.2
98421.8
98426
98429.8
98433.1
98436.1
98438.7
98441.1
98443.1
98444.8
98446.3
98447.5
98448.4
98449.1
98449.5
98449.7
98449.6
98449.3
98448.8
98448.1
98447.4
98446.6
98445.8
98445.2
98444.9
98445
98445.9
98447.6
98450.3
98454.4
98459.9
98467.2
98476.4
98487.7
98501.3
98517.2
98535.4
98556.2
98579.2
98604.7
98632.4
98662.5
98694.8
98728.9
98765.1
98802.9
98842.3
98883.2
98925.2
98968
99011.6
99055.4
99099.2
99142.5
99184.8
99225.7
99264.5
99300.4
99332.8
99360.7
99383.8
99401.1
99411.8
99415.4
99411.6
99399.8
99380.3
99352.4
99317.2
99274.3
99225.8
99171.1
99113.3
99050.8
98987.5
98920.6
98852.6
98205.1
98205
98204.4
98203.5
98202.2
98200.6
98198.7
98196.5
98193.9
98191.1
98188.1
98184.9
98181.5
98177.9
98174.2
98170.5
98166.6
98162.7
98158.7
98154.7
98150.6
98146.5
98142.3
98138
98133.7
98129.4
98125.1
98120.7
98116.3
98111.9
98107.4
98103
98098.5
98094.1
98089.7
98085.3
98081
98076.7
98072.4
98068.2
98064.1
98060.1
98056.2
98052.4
98048.8
98045.4
98042.2
98039.2
98036.4
98033.9
98031.7
98029.8
98028.2
98027
98026.2
98025.8
98025.9
98026.4
98027.4
98028.9
98030.9
98033.4
98036.5
98040.1
98044.2
98048.9
98054.2
98060.1
98066.5
98073.4
98080.8
98088.7
98097
98105.7
98114.8
98124.3
98134
98144
98154.3
98164.7
98175.2
98185.8
98196.5
98207.2
98217.9
98228.5
98239
98249.3
98259.4
98269.4
98279
98288.3
98297.3
98305.9
98314.1
98321.9
98329.2
98336.1
98342.6
98348.6
98354.2
98359.3
98364
98368.2
98372
98375.5
98378.6
98381.3
98383.7
98385.8
98387.7
98389.3
98390.6
98391.6
98392.4
98392.9
98393.2
98393.2
98392.9
98392.4
98391.6
98390.5
98389.2
98387.7
98386.1
98384.3
98382.7
98381.1
98379.9
98379.1
98379.1
98380
98381.9
98385.1
98389.8
98396.3
98404.7
98415.1
98427.6
98442.3
98459.3
98478.5
98499.9
98523.5
98549.3
98577.2
98607
98638.8
98672.2
98707.2
98743.7
98781.4
98820
98859.3
98899
98938.9
98978.5
99017.2
99054.6
99090.3
99123.5
99153.6
99179.6
99201.5
99218.2
99229.1
99233.7
99232
99223
99207.2
99183.7
99153.8
99116.7
99074.5
99026.5
98975.7
98920.1
98863.9
98804
98743.2
98180.9
98180.9
98180.5
98179.7
98178.6
98177.2
98175.5
98173.5
98171.2
98168.7
98166
98163.1
98160
98156.8
98153.5
98150
98146.5
98142.9
98139.3
98135.7
98132
98128.2
98124.5
98120.7
98116.9
98113
98109.2
98105.3
98101.5
98097.6
98093.7
98089.8
98085.9
98082
98078.1
98074.3
98070.5
98066.7
98062.9
98059.1
98055.4
98051.8
98048.3
98044.8
98041.5
98038.4
98035.4
98032.6
98030
98027.6
98025.4
98023.5
98021.9
98020.7
98019.7
98019.2
98019
98019.3
98019.9
98021
98022.6
98024.7
98027.2
98030.3
98033.8
98037.9
98042.5
98047.6
98053.3
98059.3
98065.9
98072.9
98080.3
98088.1
98096.3
98104.7
98113.4
98122.4
98131.5
98140.8
98150.2
98159.7
98169.2
98178.7
98188.2
98197.5
98206.8
98215.9
98224.8
98233.4
98241.8
98249.9
98257.7
98265.1
98272.1
98278.7
98284.9
98290.7
98296.1
98301.2
98305.8
98310
98313.7
98317.1
98320.2
98322.9
98325.3
98327.3
98329.2
98330.7
98332
98333.1
98333.9
98334.4
98334.7
98334.8
98334.6
98334.1
98333.4
98332.3
98330.9
98329.2
98327.2
98324.9
98322.3
98319.6
98316.8
98313.9
98311.3
98308.9
98307.1
98306
98305.7
98306.6
98308.7
98312.4
98317.8
98325
98334.1
98345.2
98358.4
98373.7
98391.2
98410.6
98432.1
98455.6
98481
98508.4
98537.5
98568
98600.1
98633.4
98667.6
98702.7
98738.2
98774.2
98809.8
98844.8
98878.6
98910.9
98941.1
98968.7
98992.4
99012.6
99028.4
99039.2
99044.5
99044.4
99037.9
99025.4
99006
98981
98949.5
98913.6
98872.3
98828.6
98780.1
98731.2
98678.5
98625.4
98158.1
98158.1
98157.8
98157.2
98156.2
98155
98153.6
98151.9
98149.9
98147.7
98145.3
98142.7
98140
98137.1
98134.1
98131
98127.9
98124.7
98121.4
98118.1
98114.8
98111.5
98108.2
98104.8
98101.4
98098.1
98094.7
98091.3
98087.9
98084.4
98081
98077.6
98074.2
98070.8
98067.4
98064
98060.6
98057.2
98053.8
98050.5
98047.2
98043.9
98040.7
98037.5
98034.5
98031.5
98028.7
98026.1
98023.6
98021.3
98019.2
98017.3
98015.7
98014.3
98013.2
98012.5
98012.1
98012.1
98012.4
98013.2
98014.4
98016
98018
98020.6
98023.5
98027
98030.9
98035.3
98040.1
98045.4
98051.2
98057.3
98063.8
98070.6
98077.8
98085.3
98093
98100.8
98108.9
98117.1
98125.3
98133.6
98142
98150.2
98158.5
98166.6
98174.6
98182.4
98190
98197.4
98204.6
98211.4
98217.9
98224.1
98229.9
98235.4
98240.5
98245.1
98249.5
98253.4
98257
98260.3
98263.2
98265.7
98268
98269.9
98271.6
98273
98274.1
98275.1
98275.8
98276.3
98276.6
98276.6
98276.4
98275.9
98275.1
98274.1
98272.7
98271.1
98269
98266.7
98263.8
98260.7
98257.1
98253.3
98249.3
98245.2
98241.2
98237.3
98233.7
98230.7
98228.2
98226.7
98226.3
98227.3
98229.7
98233.8
98239.5
98247.1
98256.6
98268.2
98281.7
98297.2
98314.5
98333.8
98354.9
98378.1
98402.8
98429.1
98456.8
98485.8
98515.7
98546.6
98578.1
98610
98641.7
98672.7
98702.8
98731.7
98758.6
98783.4
98804.7
98822.9
98837.2
98847.4
98853
98854
98849.4
98839.7
98824
98803.5
98777.1
98747.2
98712.4
98675.5
98634
98592.5
98547.1
98501.9
98137.4
98137.5
98137.3
98136.8
98136.1
98135.1
98133.9
98132.5
98130.8
98128.9
98126.9
98124.6
98122.2
98119.7
98117.1
98114.4
98111.6
98108.8
98105.9
98103
98100.1
98097.1
98094.2
98091.2
98088.2
98085.3
98082.3
98079.3
98076.2
98073.2
98070.2
98067.2
98064.1
98061.1
98058.1
98055.1
98052
98049
98045.9
98042.9
98039.9
98036.8
98033.9
98030.9
98028.1
98025.3
98022.7
98020.1
98017.7
98015.4
98013.3
98011.4
98009.7
98008.3
98007.1
98006.2
98005.6
98005.3
98005.4
98005.8
98006.6
98007.8
98009.3
98011.3
98013.8
98016.6
98019.9
98023.6
98027.7
98032.3
98037.2
98042.4
98048.1
98054
98060.3
98066.7
98073.4
98080.3
98087.3
98094.3
98101.5
98108.6
98115.8
98122.9
98129.9
98136.8
98143.6
98150.2
98156.5
98162.7
98168.6
98174.2
98179.5
98184.4
98189.1
98193.3
98197.3
98200.8
98204.1
98207
98209.6
98211.9
98213.9
98215.6
98217
98218.1
98219
98219.7
98220.2
98220.5
98220.6
98220.5
98220.2
98219.6
98218.8
98217.7
98216.4
98214.7
98212.7
98210.3
98207.5
98204.4
98200.8
98196.7
98192.2
98187.3
98182.2
98176.9
98171.5
98166.1
98160.8
98155.9
98151.4
98147.7
98144.9
98143.2
98142.9
98143.9
98146.4
98150.8
98156.8
98164.7
98174.5
98186.2
98199.7
98215.1
98232.2
98251.4
98272.1
98294.3
98317.8
98342.7
98368.5
98395.4
98422.8
98450.7
98478.3
98505.6
98532
98557.1
98580.7
98602.4
98621.2
98637
98649.4
98658.5
98663.7
98665.2
98661.8
98654.3
98641.7
98625.2
98603.4
98579
98550.3
98519.8
98485.1
98450.7
98412.5
98375.1
98119.6
98119.8
98119.6
98119.2
98118.7
98117.9
98116.9
98115.8
98114.4
98112.8
98111.1
98109.2
98107.2
98105.1
98102.8
98100.5
98098.1
98095.6
98093.1
98090.6
98088.1
98085.5
98082.9
98080.3
98077.7
98075.1
98072.4
98069.8
98067.1
98064.4
98061.7
98059
98056.3
98053.5
98050.8
98048
98045.3
98042.5
98039.6
98036.8
98034
98031.2
98028.3
98025.6
98022.8
98020.2
98017.6
98015.1
98012.7
98010.4
98008.3
98006.3
98004.6
98003
98001.7
98000.6
97999.7
97999.2
97999
97999.1
97999.6
98000.4
98001.5
98003.1
98005
98007.3
98010
98013
98016.5
98020.3
98024.5
98029
98033.8
98038.9
98044.2
98049.8
98055.5
98061.4
98067.4
98073.4
98079.5
98085.6
98091.6
98097.6
98103.5
98109.2
98114.8
98120.2
98125.3
98130.3
98134.9
98139.3
98143.4
98147.2
98150.7
98153.8
98156.6
98159.1
98161.3
98163.1
98164.7
98166.1
98167.1
98167.9
98168.5
98168.8
98169
98168.9
98168.7
98168.2
98167.6
98166.8
98165.8
98164.6
98163.2
98161.5
98159.4
98157.1
98154.3
98151.2
98147.7
98143.7
98139.2
98134.3
98128.8
98123
98116.8
98110.3
98103.6
98096.8
98089.9
98083.3
98077
98071.3
98066.3
98062.1
98059.1
98057.4
98057
98058.3
98061.1
98065.8
98072.1
98080.4
98090.4
98102.2
98115.7
98131.2
98148.1
98166.7
98186.3
98207.3
98229.3
98252.2
98275.8
98299.8
98323.5
98347
98369.6
98391
98411.1
98429.6
98445.4
98458.6
98468.7
98476.1
98480.2
98481.4
98478.8
98472.9
98462.8
98449.6
98431.9
98412.4
98389.1
98364.5
98336
98308.5
98277.1
98247.2
98104.9
98105.1
98105.1
98104.8
98104.4
98103.8
98103.1
98102.2
98101.1
98099.8
98098.4
98096.9
98095.2
98093.5
98091.6
98089.7
98087.7
98085.6
98083.5
98081.4
98079.2
98077
98074.8
98072.5
98070.2
98067.9
98065.6
98063.2
98060.8
98058.4
98055.9
98053.4
98050.9
98048.4
98045.8
98043.3
98040.6
98038
98035.3
98032.6
98029.9
98027.1
98024.4
98021.7
98019
98016.4
98013.8
98011.3
98008.9
98006.6
98004.4
98002.3
98000.4
97998.7
97997.2
97996
97994.9
97994.2
97993.7
97993.5
97993.7
97994.1
97994.9
97996.1
97997.5
97999.4
98001.5
98004
98006.9
98010.1
98013.5
98017.3
98021.4
98025.7
98030.3
98035
98039.9
98044.8
98049.9
98055
98060.1
98065.1
98070.2
98075.1
98079.9
98084.5
98089
98093.2
98097.3
98101.1
98104.6
98107.8
98110.8
98113.4
98115.7
98117.8
98119.5
98120.9
98122
98122.9
98123.4
98123.8
98124
98123.9
98123.6
98123
98122.4
98121.5
98120.5
98119.3
98117.9
98116.4
98114.7
98112.8
98110.6
98108.2
98105.4
98102.3
98098.8
98094.9
98090.6
98085.8
98080.4
98074.6
98068.3
98061.4
98054.2
98046.6
98038.7
98030.6
98022.4
98014.2
98006.3
97998.7
97991.7
97985.4
97980.1
97975.9
97972.9
97971.4
97971.5
97973.2
97976.5
97981.7
97988.6
97997.2
98007.6
98019.7
98033.3
98048.5
98064.6
98082.2
98100.6
98119.8
98139.8
98159.9
98179.9
98199.8
98218.5
98236.1
98252.6
98267.5
98280.3
98290.6
98298.1
98303.3
98305.7
98306
98303.3
98298.4
98290.1
98279.5
98265.3
98249.9
98231.3
98212.1
98189.3
98168.2
98143.2
98120.4
98093.5
98093.7
98093.8
98093.6
98093.3
98092.9
98092.4
98091.7
98090.9
98090
98088.9
98087.7
98086.4
98085
98083.6
98082
98080.4
98078.8
98077.1
98075.3
98073.5
98071.7
98069.8
98067.9
98065.9
98063.9
98061.8
98059.6
98057.5
98055.2
98053
98050.6
98048.3
98045.9
98043.4
98040.9
98038.4
98035.8
98033.1
98030.4
98027.7
98025
98022.3
98019.5
98016.8
98014.1
98011.5
98008.9
98006.4
98004
98001.7
97999.5
97997.5
97995.7
97994
97992.6
97991.4
97990.4
97989.7
97989.3
97989.2
97989.3
97989.8
97990.6
97991.6
97993.1
97994.8
97996.8
97999.1
98001.8
98004.7
98007.9
98011.3
98014.9
98018.8
98022.7
98026.8
98031
98035.2
98039.4
98043.7
98047.8
98051.9
98055.8
98059.7
98063.3
98066.7
98069.9
98072.9
98075.6
98078
98080.2
98082.1
98083.6
98084.9
98085.9
98086.5
98086.9
98087
98086.8
98086.4
98085.8
98085
98084
98082.8
98081.5
98080
98078.3
98076.4
98074.4
98072.3
98069.9
98067.5
98064.7
98061.8
98058.5
98055
98051.1
98046.8
98042.1
98036.9
98031.3
98025.2
98018.5
98011.3
98003.6
97995.4
97986.8
97977.8
97968.6
97959.2
97949.7
97940.3
97931.1
97922.4
97914.2
97906.8
97900.5
97895.3
97891.5
97889.1
97888.3
97889.1
97891.6
97895.8
97901.7
97909.1
97918.3
97929
97941.1
97954.2
97968.5
97983.5
97999.5
98016
98032.6
98049
98065.2
98080.1
98094
98106.7
98118
98127.5
98134.6
98139.3
98142.2
98142.4
98141
98137.7
98133
98125.8
98117.2
98105.9
98093.8
98079.1
98064.7
98047.1
98031.6
98012.5
97996.4
98085.1
98085.3
98085.4
98085.4
98085.3
98085.1
98084.7
98084.3
98083.8
98083.1
98082.4
98081.6
98080.7
98079.7
98078.7
98077.6
98076.4
98075.2
98073.9
98072.5
98071.1
98069.7
98068.1
98066.5
98064.8
98063
98061.1
98059.1
98057.1
98055
98052.9
98050.6
98048.3
98045.9
98043.5
98041
98038.4
98035.8
98033.1
98030.4
98027.6
98024.8
98022
98019.2
98016.3
98013.5
98010.8
98008.1
98005.5
98002.9
98000.5
97998.1
97996
97994
97992.2
97990.6
97989.2
97988
97987.1
97986.5
97986.1
97986
97986.2
97986.7
97987.5
97988.6
97989.9
97991.6
97993.5
97995.7
97998.1
98000.8
98003.6
98006.7
98009.9
98013.2
98016.6
98020.1
98023.6
98027.1
98030.5
98033.9
98037.1
98040.2
98043.1
98045.8
98048.3
98050.5
98052.5
98054.2
98055.7
98056.8
98057.7
98058.2
98058.5
98058.4
98058.1
98057.5
98056.6
98055.5
98054.1
98052.6
98050.8
98048.9
98046.8
98044.6
98042.2
98039.6
98036.9
98034.1
98031.1
98027.9
98024.6
98021
98017.2
98013.1
98008.7
98004
97998.9
97993.4
97987.4
97981
97974
97966.6
97958.6
97950.1
97941.1
97931.6
97921.7
97911.5
97901.1
97890.5
97879.8
97869.3
97859.1
97849.3
97840.3
97832.2
97825.1
97819.3
97814.9
97811.9
97810.6
97810.9
97812.7
97816.2
97821.1
97827.7
97835.7
97845
97855.3
97866.8
97879
97891.8
97905.1
97918.3
97931.3
97943.9
97955.1
97965.3
97974.2
97981.8
97987.7
97991.6
97993.3
97993.7
97991.5
97988.2
97983.7
97978.5
97971.7
97964.5
97955.2
97945.9
97934.4
97924.1
97911
97900.6
97886.7
97876.8
98079.1
98079.4
98079.6
98079.6
98079.6
98079.6
98079.5
98079.3
98079.1
98078.8
98078.5
98078.1
98077.7
98077.2
98076.6
98076
98075.3
98074.5
98073.6
98072.7
98071.7
98070.5
98069.3
98067.9
98066.5
98064.9
98063.2
98061.4
98059.5
98057.5
98055.3
98053.1
98050.8
98048.4
98045.9
98043.3
98040.7
98038
98035.2
98032.3
98029.4
98026.4
98023.5
98020.5
98017.5
98014.6
98011.6
98008.8
98006
98003.3
98000.7
97998.2
97995.9
97993.7
97991.7
97990
97988.4
97987.1
97986
97985.2
97984.7
97984.4
97984.4
97984.6
97985.2
97986
97987
97988.4
97989.9
97991.8
97993.8
97996
97998.5
98001
98003.7
98006.5
98009.4
98012.2
98015.1
98017.9
98020.7
98023.3
98025.8
98028.1
98030.2
98032.1
98033.7
98035.1
98036.2
98037
98037.5
98037.7
98037.7
98037.3
98036.6
98035.6
98034.4
98032.8
98030.9
98028.9
98026.6
98024.1
98021.4
98018.6
98015.6
98012.5
98009.2
98005.8
98002.2
97998.5
97994.6
97990.6
97986.3
97981.9
97977.2
97972.3
97967
97961.4
97955.5
97949.2
97942.5
97935.2
97927.5
97919.2
97910.6
97901.4
97891.7
97881.4
97870.8
97859.9
97848.6
97837
97825.4
97813.8
97802.3
97791.3
97781
97771.5
97762.9
97755.4
97749.3
97744.6
97741.4
97739.8
97739.6
97741
97743.8
97748.1
97753.7
97760.5
97768.4
97777.5
97786.9
97796.9
97807
97817
97826.8
97835.8
97843.5
97850.1
97855.1
97859.1
97861.3
97861.8
97860.5
97858.2
97853.6
97848.1
97842
97835.8
97828.9
97822.4
97814.4
97807.2
97798.4
97791.5
97782.1
97776.4
97767
97762.7
98074.7
98075
98075.3
98075.4
98075.6
98075.8
98075.9
98076.1
98076.3
98076.5
98076.7
98076.9
98077
98077.1
98077
98076.9
98076.7
98076.4
98075.9
98075.4
98074.7
98073.9
98072.9
98071.8
98070.6
98069.2
98067.6
98065.9
98064
98062
98059.9
98057.7
98055.3
98052.8
98050.2
98047.5
98044.8
98041.9
98038.9
98035.9
98032.8
98029.7
98026.5
98023.3
98020.2
98017
98013.9
98010.8
98007.9
98005
98002.2
97999.6
97997.1
97994.8
97992.7
97990.8
97989.1
97987.7
97986.5
97985.5
97984.8
97984.4
97984.2
97984.3
97984.6
97985.2
97986.1
97987.1
97988.5
97990
97991.7
97993.7
97995.7
97997.9
98000.2
98002.5
98004.9
98007.2
98009.6
98011.8
98014
98016
98017.8
98019.4
98020.8
98022
98022.9
98023.5
98023.8
98023.8
98023.5
98022.8
98021.9
98020.7
98019.1
98017.2
98015.1
98012.6
98009.9
98006.9
98003.7
98000.3
97996.8
97993.1
97989.2
97985.2
97981
97976.7
97972.3
97967.7
97962.9
97958
97952.8
97947.5
97941.9
97936.1
97930
97923.6
97916.9
97909.8
97902.2
97894.2
97885.8
97877
97867.7
97857.8
97847.5
97836.7
97825.5
97813.9
97802
97789.7
97777.3
97764.9
97752.5
97740.5
97729.2
97718.5
97708.7
97700
97692.5
97686.3
97681.6
97678.3
97676.4
97676
97677
97679.4
97682.9
97687.5
97693.3
97700.1
97707.2
97714.3
97721.4
97728.3
97734.9
97740.7
97745
97748.1
97749.4
97749.6
97748.1
97745.2
97740.7
97735.5
97728.5
97720.8
97712.8
97705.4
97698
97691.6
97684.4
97678.7
97672
97667.9
97661.5
97659.8
97654.5
97655.1
98071
98071.2
98071.4
98071.5
98071.8
98072.3
98072.9
98073.7
98074.6
98075.5
98076.3
98077.2
98078
98078.7
98079.3
98079.7
98080
98080.1
98080.1
98079.9
98079.6
98079
98078.3
98077.4
98076.3
98075.1
98073.6
98071.9
98070.1
98068.1
98065.9
98063.6
98061.2
98058.6
98055.9
98053.1
98050.1
98047.1
98044
98040.7
98037.5
98034.1
98030.8
98027.4
98024
98020.7
98017.4
98014.1
98011
98007.9
98005
98002.3
97999.6
97997.2
97995
97993
97991.2
97989.6
97988.3
97987.2
97986.4
97985.9
97985.6
97985.5
97985.7
97986.2
97986.9
97987.8
97988.9
97990.3
97991.8
97993.4
97995.2
97997.1
97999
98001
98002.9
98004.9
98006.7
98008.5
98010.1
98011.6
98012.8
98013.8
98014.6
98015.1
98015.3
98015.3
98014.8
98014.1
98013.1
98011.7
98009.9
98007.9
98005.5
98002.8
97999.9
97996.6
97993
97989.2
97985.2
97980.9
97976.5
97972
97967.3
97962.4
97957.4
97952.2
97946.9
97941.4
97935.8
97930
97924
97917.7
97911.3
97904.6
97897.7
97890.5
97883
97875.2
97866.9
97858.3
97849.2
97839.8
97829.9
97819.6
97808.8
97797.5
97785.9
97773.8
97761.3
97748.5
97735.5
97722.4
97709.5
97696.9
97684.8
97673.2
97662.4
97652.6
97644
97636.6
97630.4
97625.8
97622.5
97620.6
97620.1
97620.8
97622.4
97625.2
97629
97633.6
97638.5
97643.1
97647.4
97651.4
97654.9
97657.5
97658.7
97658.4
97656.1
97652.5
97647.4
97641.1
97633.4
97625.2
97615.7
97605.9
97596.1
97587.3
97579
97572.3
97565.5
97560.9
97555.6
97553.7
97549.9
97551.6
97549.8
97554.8
98066.1
98066.1
98066.1
98066.5
98067.2
98068.5
98069.9
98071.7
98073.4
98075.3
98077
98078.7
98080.3
98081.7
98082.9
98083.8
98084.6
98085.2
98085.5
98085.6
98085.6
98085.3
98084.7
98084
98083
98081.8
98080.4
98078.8
98077
98075
98072.8
98070.4
98067.9
98065.2
98062.3
98059.4
98056.3
98053.1
98049.7
98046.3
98042.9
98039.4
98035.8
98032.3
98028.7
98025.2
98021.7
98018.3
98015
98011.9
98008.8
98005.9
98003.2
98000.7
97998.4
97996.2
97994.4
97992.7
97991.4
97990.2
97989.3
97988.7
97988.3
97988.2
97988.3
97988.6
97989.2
97990
97991
97992.2
97993.5
97995
97996.5
97998.1
97999.8
98001.4
98003
98004.6
98006
98007.3
98008.5
98009.5
98010.2
98010.7
98010.9
98010.8
98010.5
98009.7
98008.7
98007.3
98005.5
98003.4
98001
97998.2
97995.1
97991.6
97987.9
97983.9
97979.6
97975
97970.2
97965.2
97960
97954.6
97949.1
97943.4
97937.6
97931.6
97925.5
97919.2
97912.7
97906
97899.2
97892.1
97884.9
97877.5
97869.8
97861.9
97853.6
97845.1
97836.2
97827
97817.5
97807.5
97797.2
97786.4
97775.2
97763.6
97751.6
97739.2
97726.3
97713.1