/*--------------------------------*- C++ -*----------------------------------*\
| =========                 |                                                 |
| \\      /  F ield         | OpenFOAM: The Open Source CFD Toolbox           |
|  \\    /   O peration     | Version:  dev                                   |
|   \\  /    A nd           | Web:      http://www.openfoam.org               |
|    \\/     M anipulation  |                                                 |
\*---------------------------------------------------------------------------*/
FoamFile
{
    version     2.0;
    format      ascii;
    class       volScalarField;
    object      pPrime2Mean;
    location    "9.145";
}
// * * * * * * * * * * * * * * * * * * * * * * * * * * * * * * * * * * * * * //

dimensions      [2 -2 -4 0 0 0 0];

internalField   nonuniform List<scalar> 
12225
(
5.0376e+07
4.99107e+07
4.89496e+07
4.75978e+07
4.59433e+07
4.40756e+07
4.20539e+07
3.99501e+07
3.78052e+07
3.56672e+07
3.35739e+07
3.15283e+07
2.96042e+07
2.77325e+07
2.59846e+07
2.44237e+07
2.28616e+07
2.12814e+07
5.02682e+07
4.98029e+07
4.88425e+07
4.74924e+07
4.58394e+07
4.39741e+07
4.19552e+07
3.9854e+07
3.77131e+07
3.55778e+07
3.34891e+07
3.14472e+07
2.95277e+07
2.76629e+07
2.59324e+07
2.43717e+07
2.28625e+07
2.15282e+07
5.00181e+07
4.95534e+07
4.85935e+07
4.72465e+07
4.55979e+07
4.37374e+07
4.17252e+07
3.96303e+07
3.74975e+07
3.53703e+07
3.32901e+07
3.12599e+07
2.93464e+07
2.74989e+07
2.57882e+07
2.42323e+07
2.2797e+07
2.15839e+07
4.95824e+07
4.91207e+07
4.81631e+07
4.68213e+07
4.51808e+07
4.33287e+07
4.13281e+07
3.92438e+07
3.71257e+07
3.5012e+07
3.29477e+07
3.09352e+07
2.9039e+07
2.72108e+07
2.55298e+07
2.39985e+07
2.26118e+07
2.1511e+07
4.89174e+07
4.84559e+07
4.75031e+07
4.61707e+07
4.4542e+07
4.27044e+07
4.07197e+07
3.86547e+07
3.65556e+07
3.4466e+07
3.2422e+07
3.04403e+07
2.85667e+07
2.67745e+07
2.51458e+07
2.36368e+07
2.23554e+07
2.12911e+07
4.79683e+07
4.75042e+07
4.65609e+07
4.52419e+07
4.36312e+07
4.18134e+07
3.98534e+07
3.78139e+07
3.5745e+07
3.36851e+07
3.16753e+07
2.97278e+07
2.78924e+07
2.61468e+07
2.45676e+07
2.31281e+07
2.19011e+07
2.08446e+07
4.66734e+07
4.6208e+07
4.52803e+07
4.39776e+07
4.23929e+07
4.06008e+07
3.86765e+07
3.66704e+07
3.46444e+07
3.26234e+07
3.0662e+07
2.87601e+07
2.69761e+07
2.52883e+07
2.37661e+07
2.23866e+07
2.1218e+07
2.01899e+07
4.52315e+07
4.47677e+07
4.38562e+07
4.25714e+07
4.10155e+07
3.9253e+07
3.73671e+07
3.54001e+07
3.34194e+07
3.14447e+07
2.95331e+07
2.76849e+07
2.59524e+07
2.43277e+07
2.2854e+07
2.15377e+07
2.04017e+07
1.94418e+07
4.37168e+07
4.32565e+07
4.23613e+07
4.10962e+07
3.95699e+07
3.78399e+07
3.59934e+07
3.40687e+07
3.21343e+07
3.02091e+07
2.83484e+07
2.65558e+07
2.48772e+07
2.33133e+07
2.18915e+07
2.06314e+07
1.95373e+07
1.86386e+07
4.17768e+07
4.13232e+07
4.04474e+07
3.921e+07
3.77201e+07
3.60341e+07
3.42364e+07
3.23679e+07
3.04907e+07
2.86304e+07
2.68326e+07
2.51116e+07
2.3499e+07
2.20098e+07
2.06544e+07
1.94619e+07
1.84246e+07
1.75718e+07
3.93283e+07
3.88847e+07
3.80325e+07
3.68319e+07
3.53878e+07
3.37589e+07
3.20233e+07
3.02258e+07
2.84218e+07
2.66418e+07
2.49243e+07
2.32893e+07
2.17605e+07
2.03574e+07
1.90851e+07
1.79693e+07
1.6999e+07
1.61923e+07
3.63052e+07
3.58765e+07
3.50524e+07
3.39008e+07
3.25139e+07
3.09583e+07
2.93001e+07
2.75917e+07
2.58782e+07
2.41971e+07
2.25778e+07
2.10459e+07
1.96179e+07
1.83142e+07
1.71384e+07
1.6107e+07
1.52123e+07
1.44588e+07
3.26924e+07
3.22824e+07
3.14948e+07
3.04042e+07
2.90897e+07
2.76231e+07
2.60607e+07
2.44588e+07
2.28555e+07
2.12909e+07
1.97884e+07
1.83755e+07
1.7064e+07
1.58725e+07
1.48033e+07
1.38655e+07
1.3054e+07
1.23657e+07
2.85812e+07
2.8194e+07
2.74531e+07
2.64348e+07
2.52087e+07
2.38456e+07
2.23971e+07
2.09175e+07
1.94423e+07
1.80086e+07
1.6639e+07
1.53568e+07
1.41738e+07
1.31029e+07
1.21473e+07
1.13098e+07
1.05871e+07
9.97283e+06
2.4257e+07
2.38961e+07
2.32113e+07
2.2274e+07
2.11479e+07
1.9899e+07
1.85762e+07
1.72289e+07
1.58914e+07
1.45965e+07
1.33659e+07
1.22188e+07
1.11663e+07
1.02171e+07
9.37387e+06
8.63656e+06
8.00198e+06
7.46343e+06
2.03102e+07
1.99781e+07
1.93529e+07
1.84972e+07
1.74727e+07
1.6337e+07
1.51379e+07
1.39187e+07
1.2713e+07
1.15489e+07
1.04471e+07
9.4233e+06
8.48744e+06
7.64559e+06
6.89967e+06
6.24838e+06
5.68855e+06
5.21397e+06
1.77449e+07
1.74383e+07
1.68633e+07
1.60755e+07
1.51333e+07
1.40886e+07
1.29869e+07
1.18672e+07
1.07612e+07
9.69397e+06
8.68458e+06
7.74659e+06
6.88871e+06
6.11572e+06
5.42899e+06
4.82715e+06
4.30721e+06
3.8638e+06
1.78533e+07
1.75586e+07
1.70058e+07
1.62476e+07
1.53401e+07
1.43325e+07
1.32683e+07
1.21845e+07
1.11113e+07
1.00724e+07
9.08548e+06
8.16329e+06
7.31393e+06
6.54191e+06
5.84862e+06
5.23324e+06
4.69324e+06
4.22429e+06
2.07307e+07
2.04315e+07
1.98689e+07
1.90958e+07
1.81688e+07
1.71373e+07
1.60445e+07
1.49274e+07
1.38156e+07
1.27328e+07
1.16964e+07
1.07192e+07
9.8095e+06
8.97201e+06
8.20868e+06
7.51942e+06
6.90239e+06
6.35422e+06
2.52184e+07
2.49063e+07
2.43158e+07
2.35016e+07
2.25231e+07
2.14313e+07
2.02707e+07
1.90791e+07
1.78869e+07
1.67182e+07
1.55912e+07
1.4519e+07
1.35105e+07
1.2571e+07
1.17032e+07
1.09077e+07
1.01835e+07
9.52806e+06
3.02785e+07
2.99523e+07
2.93286e+07
2.84649e+07
2.7424e+07
2.6259e+07
2.50164e+07
2.37354e+07
2.24476e+07
2.11781e+07
1.99459e+07
1.87649e+07
1.76447e+07
1.65913e+07
1.56083e+07
1.4697e+07
1.38571e+07
1.30867e+07
3.5193e+07
3.48551e+07
3.42003e+07
3.32896e+07
3.21885e+07
3.09523e+07
2.96296e+07
2.82609e+07
2.68795e+07
2.55115e+07
2.41768e+07
2.28902e+07
2.1662e+07
2.04992e+07
1.94058e+07
1.8384e+07
1.74339e+07
1.65547e+07
3.95427e+07
3.91965e+07
3.85163e+07
3.75659e+07
3.64132e+07
3.51153e+07
3.37224e+07
3.22768e+07
3.0813e+07
2.93581e+07
2.7933e+07
2.65533e+07
2.52301e+07
2.39709e+07
2.27807e+07
2.1662e+07
2.06156e+07
1.96411e+07
4.31388e+07
4.27875e+07
4.2088e+07
4.11065e+07
3.99128e+07
3.85651e+07
3.71152e+07
3.56067e+07
3.40752e+07
3.25488e+07
3.10494e+07
2.9593e+07
2.81915e+07
2.68532e+07
2.55833e+07
2.43849e+07
2.32594e+07
2.22067e+07
4.59475e+07
4.55932e+07
4.48799e+07
4.38755e+07
4.26507e+07
4.12649e+07
3.97711e+07
3.8214e+07
3.66301e+07
3.50482e+07
3.34908e+07
3.19747e+07
3.05124e+07
2.91125e+07
2.77806e+07
2.65203e+07
2.53332e+07
2.42196e+07
4.80258e+07
4.76699e+07
4.6947e+07
4.59265e+07
4.46793e+07
4.32658e+07
4.17399e+07
4.01471e+07
3.85246e+07
3.69018e+07
3.53018e+07
3.37418e+07
3.22347e+07
3.07893e+07
2.94118e+07
2.81059e+07
2.68735e+07
2.5715e+07
4.94748e+07
4.91181e+07
4.83885e+07
4.73571e+07
4.60946e+07
4.46622e+07
4.31143e+07
4.1497e+07
3.98478e+07
3.81968e+07
3.65673e+07
3.49769e+07
3.34386e+07
3.19618e+07
3.05527e+07
2.92152e+07
2.79514e+07
2.67617e+07
5.04099e+07
5.00521e+07
4.93183e+07
4.82802e+07
4.7008e+07
4.55636e+07
4.40017e+07
4.23688e+07
4.07026e+07
3.90336e+07
3.73851e+07
3.57752e+07
3.4217e+07
3.272e+07
3.12905e+07
2.99327e+07
2.86487e+07
2.74391e+07
5.0939e+07
5.05809e+07
4.98455e+07
4.88043e+07
4.75267e+07
4.60758e+07
4.45061e+07
4.28641e+07
4.11882e+07
3.95087e+07
3.78494e+07
3.62282e+07
3.46585e+07
3.31499e+07
3.17086e+07
3.03392e+07
2.90437e+07
2.78232e+07
5.11611e+07
5.08045e+07
5.00673e+07
4.90243e+07
4.77442e+07
4.62903e+07
4.47173e+07
4.30715e+07
4.13913e+07
3.97073e+07
3.80433e+07
3.64173e+07
3.48427e+07
3.33291e+07
3.18829e+07
3.05085e+07
2.92084e+07
2.79833e+07
6.04939e+07
6.04348e+07
6.03041e+07
6.00983e+07
5.98156e+07
5.94551e+07
5.90171e+07
5.85022e+07
5.79116e+07
5.72467e+07
5.65094e+07
5.57018e+07
5.48262e+07
5.38852e+07
5.28815e+07
5.1818e+07
5.06981e+07
4.95253e+07
4.83031e+07
4.70354e+07
4.57264e+07
4.43799e+07
4.30002e+07
4.15918e+07
4.0159e+07
3.87064e+07
3.72386e+07
3.57599e+07
3.42748e+07
3.2788e+07
3.13039e+07
2.98272e+07
2.83625e+07
2.69144e+07
2.54874e+07
2.40861e+07
2.27152e+07
2.13794e+07
2.00835e+07
1.88321e+07
1.76302e+07
1.64826e+07
1.53943e+07
1.43704e+07
1.34161e+07
1.25366e+07
1.17372e+07
1.10234e+07
1.04004e+07
9.87381e+06
9.44905e+06
9.13158e+06
8.92678e+06
8.83993e+06
8.87613e+06
9.04021e+06
9.33671e+06
9.7699e+06
1.03436e+07
1.10611e+07
1.19252e+07
1.2938e+07
1.41009e+07
1.54146e+07
1.68792e+07
1.84937e+07
2.02566e+07
2.21653e+07
2.42169e+07
2.64073e+07
2.8732e+07
3.11858e+07
3.37627e+07
3.64562e+07
3.92596e+07
4.21655e+07
4.51665e+07
4.82547e+07
5.14224e+07
5.46616e+07
5.79641e+07
6.13217e+07
6.47261e+07
6.81688e+07
7.1641e+07
7.51339e+07
7.86383e+07
8.21448e+07
8.56433e+07
8.91234e+07
9.25741e+07
9.59841e+07
9.93412e+07
1.02633e+08
1.05847e+08
1.0897e+08
1.1199e+08
1.14895e+08
1.17673e+08
1.20314e+08
1.22808e+08
1.25147e+08
1.27325e+08
1.29335e+08
1.31174e+08
1.32839e+08
1.34332e+08
1.35654e+08
1.36811e+08
1.3781e+08
1.38662e+08
1.39376e+08
1.39969e+08
1.40452e+08
1.40845e+08
1.41162e+08
1.41425e+08
1.41654e+08
1.41874e+08
1.42111e+08
1.42395e+08
1.42758e+08
1.43239e+08
1.43875e+08
1.44711e+08
1.45796e+08
1.47181e+08
1.48923e+08
1.51083e+08
1.53724e+08
1.56908e+08
1.60698e+08
1.65157e+08
1.70339e+08
1.76299e+08
1.83081e+08
1.90723e+08
1.9925e+08
2.08678e+08
2.19008e+08
2.30236e+08
2.42338e+08
2.55287e+08
2.6904e+08
2.83556e+08
2.9877e+08
3.14635e+08
3.31078e+08
3.48036e+08
3.65434e+08
3.83199e+08
4.01246e+08
4.19484e+08
4.37821e+08
4.56135e+08
4.74286e+08
4.92111e+08
5.09441e+08
5.26042e+08
5.41681e+08
5.56057e+08
5.68873e+08
5.79788e+08
5.88479e+08
5.94611e+08
5.97888e+08
5.98049e+08
5.94914e+08
5.88356e+08
5.78403e+08
5.65135e+08
5.48818e+08
5.29773e+08
5.08491e+08
4.85447e+08
4.61166e+08
4.36017e+08
4.10433e+08
3.84627e+08
3.58921e+08
5.94189e+07
5.93632e+07
5.92381e+07
5.90382e+07
5.87619e+07
5.84091e+07
5.79804e+07
5.74769e+07
5.68998e+07
5.62505e+07
5.55308e+07
5.47427e+07
5.38882e+07
5.29698e+07
5.19902e+07
5.09519e+07
4.98582e+07
4.87122e+07
4.75177e+07
4.62782e+07
4.49976e+07
4.368e+07
4.23294e+07
4.09502e+07
3.95466e+07
3.81232e+07
3.66842e+07
3.5234e+07
3.37769e+07
3.23173e+07
3.08599e+07
2.9409e+07
2.79692e+07
2.65452e+07
2.51412e+07
2.3762e+07
2.2412e+07
2.10959e+07
1.98183e+07
1.8584e+07
1.73978e+07
1.62647e+07
1.51894e+07
1.41772e+07
1.32331e+07
1.23624e+07
1.15704e+07
1.08623e+07
1.02438e+07
9.72018e+06
9.29697e+06
8.97958e+06
8.7734e+06
8.68366e+06
8.71549e+06
8.87377e+06
9.16308e+06
9.58762e+06
1.01512e+07
1.08571e+07
1.17081e+07
1.27063e+07
1.38531e+07
1.51491e+07
1.65945e+07
1.81883e+07
1.99289e+07
2.18138e+07
2.384e+07
2.60035e+07
2.82998e+07
3.07235e+07
3.32689e+07
3.59295e+07
3.86984e+07
4.15686e+07
4.45325e+07
4.75825e+07
5.07106e+07
5.3909e+07
5.71695e+07
6.04841e+07
6.38443e+07
6.72419e+07
7.06682e+07
7.41143e+07
7.7571e+07
8.10291e+07
8.44786e+07
8.79092e+07
9.13101e+07
9.46698e+07
9.79766e+07
1.01218e+08
1.04382e+08
1.07456e+08
1.10428e+08
1.13285e+08
1.16017e+08
1.18613e+08
1.21064e+08
1.23363e+08
1.25502e+08
1.27477e+08
1.29283e+08
1.30919e+08
1.32384e+08
1.33681e+08
1.34816e+08
1.35797e+08
1.36633e+08
1.37334e+08
1.37915e+08
1.38389e+08
1.38773e+08
1.39083e+08
1.39339e+08
1.39561e+08
1.39773e+08
1.40001e+08
1.40273e+08
1.40623e+08
1.41086e+08
1.41701e+08
1.42511e+08
1.43563e+08
1.44909e+08
1.46604e+08
1.48709e+08
1.51285e+08
1.54396e+08
1.58101e+08
1.62463e+08
1.67536e+08
1.73373e+08
1.80019e+08
1.8751e+08
1.95874e+08
2.05124e+08
2.15263e+08
2.26285e+08
2.38169e+08
2.50889e+08
2.64403e+08
2.78668e+08
2.93624e+08
3.09219e+08
3.25392e+08
3.42074e+08
3.59193e+08
3.76676e+08
3.94442e+08
4.12404e+08
4.30469e+08
4.48518e+08
4.66413e+08
4.83994e+08
5.01097e+08
5.17495e+08
5.32952e+08
5.47185e+08
5.59894e+08
5.70746e+08
5.79422e+08
5.85594e+08
5.88974e+08
5.89303e+08
5.86404e+08
5.80148e+08
5.70545e+08
5.57671e+08
5.41782e+08
5.23183e+08
5.02357e+08
4.79762e+08
4.55912e+08
4.31172e+08
4.0597e+08
3.80515e+08
3.55048e+08
5.73536e+07
5.73005e+07
5.71809e+07
5.69894e+07
5.67247e+07
5.63873e+07
5.59782e+07
5.54985e+07
5.49492e+07
5.43313e+07
5.36465e+07
5.28964e+07
5.20829e+07
5.12081e+07
5.02742e+07
4.92838e+07
4.82398e+07
4.71451e+07
4.60031e+07
4.48172e+07
4.35911e+07
4.23286e+07
4.10339e+07
3.97108e+07
3.83633e+07
3.69956e+07
3.56116e+07
3.42155e+07
3.28116e+07
3.14042e+07
2.99978e+07
2.85966e+07
2.7205e+07
2.58274e+07
2.44681e+07
2.31314e+07
2.18218e+07
2.05438e+07
1.93019e+07
1.81009e+07
1.69454e+07
1.58403e+07
1.47904e+07
1.38008e+07
1.28766e+07
1.2023e+07
1.12453e+07
1.05489e+07
9.93905e+06
9.42134e+06
9.00115e+06
8.68393e+06
8.47508e+06
8.37985e+06
8.40333e+06
8.5504e+06
8.82563e+06
9.23323e+06
9.77702e+06
1.04603e+07
1.12856e+07
1.22552e+07
1.33705e+07
1.4632e+07
1.60397e+07
1.75928e+07
1.92895e+07
2.11275e+07
2.31037e+07
2.52143e+07
2.74545e+07
2.98193e+07
3.23029e+07
3.48988e+07
3.76003e+07
4.04005e+07
4.32919e+07
4.62669e+07
4.9318e+07
5.2437e+07
5.5616e+07
5.8847e+07
6.21218e+07
6.54319e+07
6.87691e+07
7.21244e+07
7.5489e+07
7.88535e+07
8.22083e+07
8.55431e+07
8.88472e+07
9.21097e+07
9.53189e+07
9.84631e+07
1.0153e+08
1.04507e+08
1.07384e+08
1.10148e+08
1.1279e+08
1.15298e+08
1.17665e+08
1.19884e+08
1.21948e+08
1.23852e+08
1.25594e+08
1.2717e+08
1.28582e+08
1.29832e+08
1.30925e+08
1.31869e+08
1.32674e+08
1.33349e+08
1.33908e+08
1.34364e+08
1.34732e+08
1.35027e+08
1.35268e+08
1.35476e+08
1.35672e+08
1.35882e+08
1.36132e+08
1.36453e+08
1.36881e+08
1.37451e+08
1.38207e+08
1.39194e+08
1.40462e+08
1.42064e+08
1.44058e+08
1.46506e+08
1.49467e+08
1.53003e+08
1.57172e+08
1.62029e+08
1.67623e+08
1.73999e+08
1.81193e+08
1.89231e+08
1.98128e+08
2.07888e+08
2.18503e+08
2.29956e+08
2.42221e+08
2.55263e+08
2.69033e+08
2.83476e+08
2.9854e+08
3.14172e+08
3.30305e+08
3.46867e+08
3.63787e+08
3.80993e+08
3.984e+08
4.15914e+08
4.33422e+08
4.50797e+08
4.67877e+08
4.84505e+08
5.00465e+08
5.15527e+08
5.29427e+08
5.41872e+08
5.52542e+08
5.61134e+08
5.67329e+08
5.70855e+08
5.71463e+08
5.68979e+08
5.63269e+08
5.54321e+08
5.42208e+08
5.27156e+08
5.0945e+08
4.89544e+08
4.67867e+08
4.44896e+08
4.21007e+08
3.96598e+08
3.71895e+08
3.47069e+08
5.44598e+07
5.44105e+07
5.42984e+07
5.41191e+07
5.38722e+07
5.35586e+07
5.31791e+07
5.27342e+07
5.22246e+07
5.16513e+07
5.10154e+07
5.03182e+07
4.95613e+07
4.87462e+07
4.7875e+07
4.69502e+07
4.59743e+07
4.495e+07
4.38804e+07
4.27687e+07
4.16183e+07
4.04327e+07
3.92156e+07
3.79704e+07
3.67008e+07
3.54103e+07
3.41028e+07
3.27822e+07
3.14527e+07
3.01184e+07
2.87834e+07
2.74517e+07
2.61275e+07
2.48149e+07
2.35178e+07
2.22406e+07
2.09874e+07
1.97626e+07
1.85708e+07
1.74163e+07
1.63038e+07
1.52381e+07
1.42239e+07
1.32662e+07
1.23701e+07
1.15407e+07
1.07833e+07
1.01031e+07
9.50564e+06
8.99628e+06
8.58043e+06
8.26355e+06
8.05099e+06
7.94798e+06
7.95959e+06
8.09072e+06
8.34594e+06
8.72945e+06
9.245e+06
9.89582e+06
1.06846e+07
1.16134e+07
1.26836e+07
1.38957e+07
1.52498e+07
1.67448e+07
1.83792e+07
2.01505e+07
2.20558e+07
2.40912e+07
2.62522e+07
2.85336e+07
3.09298e+07
3.34346e+07
3.60413e+07
3.8743e+07
4.15326e+07
4.44027e+07
4.73457e+07
5.03537e+07
5.3419e+07
5.65336e+07
5.96894e+07
6.28782e+07
6.60915e+07
6.93208e+07
7.25574e+07
7.57922e+07
7.90155e+07
8.22174e+07
8.53875e+07
8.85149e+07
9.15885e+07
9.45967e+07
9.75281e+07
1.00371e+08
1.03115e+08
1.05748e+08
1.08262e+08
1.10647e+08
1.12896e+08
1.15002e+08
1.16959e+08
1.18764e+08
1.20412e+08
1.21904e+08
1.23239e+08
1.24421e+08
1.25455e+08
1.26347e+08
1.27107e+08
1.27744e+08
1.2827e+08
1.28698e+08
1.29041e+08
1.29314e+08
1.29534e+08
1.29719e+08
1.29891e+08
1.30073e+08
1.3029e+08
1.3057e+08
1.30946e+08
1.31453e+08
1.32131e+08
1.33024e+08
1.3418e+08
1.3565e+08
1.37489e+08
1.39755e+08
1.42506e+08
1.45803e+08
1.49701e+08
1.54253e+08
1.59506e+08
1.65503e+08
1.72279e+08
1.79862e+08
1.88266e+08
1.97495e+08
2.07543e+08
2.18394e+08
2.30027e+08
2.42409e+08
2.55492e+08
2.69225e+08
2.83555e+08
2.98439e+08
3.13812e+08
3.29607e+08
3.45753e+08
3.62188e+08
3.78827e+08
3.95581e+08
4.1234e+08
4.28988e+08
4.4537e+08
4.61331e+08
4.76673e+08
4.91172e+08
5.04583e+08
5.16628e+08
5.27009e+08
5.35443e+08
5.41624e+08
5.45299e+08
5.46228e+08
5.44243e+08
5.39213e+08
5.31109e+08
5.19992e+08
5.06053e+08
4.89552e+08
4.70905e+08
4.50493e+08
4.2876e+08
4.06066e+08
3.82789e+08
3.59164e+08
3.35344e+08
5.09379e+07
5.08939e+07
5.0792e+07
5.0629e+07
5.04053e+07
5.01214e+07
4.97776e+07
4.93743e+07
4.89121e+07
4.83917e+07
4.78135e+07
4.71787e+07
4.64886e+07
4.57445e+07
4.49484e+07
4.41022e+07
4.32081e+07
4.22686e+07
4.12863e+07
4.02641e+07
3.92052e+07
3.81124e+07
3.69888e+07
3.58375e+07
3.46616e+07
3.34646e+07
3.22499e+07
3.10214e+07
2.97827e+07
2.85377e+07
2.729e+07
2.60433e+07
2.48014e+07
2.3568e+07
2.2347e+07
2.11424e+07
1.99583e+07
1.87988e+07
1.76681e+07
1.65706e+07
1.55109e+07
1.44934e+07
1.3523e+07
1.26044e+07
1.17427e+07
1.0943e+07
1.02104e+07
9.55016e+06
8.96777e+06
8.46858e+06
8.05799e+06
7.74139e+06
7.52415e+06
7.41148e+06
7.40842e+06
7.5198e+06
7.75018e+06
8.10369e+06
8.58405e+06
9.19448e+06
9.93766e+06
1.08156e+07
1.18296e+07
1.29803e+07
1.42675e+07
1.56903e+07
1.72471e+07
1.89356e+07
2.07528e+07
2.26948e+07
2.47574e+07
2.69355e+07
2.92235e+07
3.16153e+07
3.41046e+07
3.66846e+07
3.93483e+07
4.20886e+07
4.48981e+07
4.77692e+07
5.06941e+07
5.36652e+07
5.66745e+07
5.97139e+07
6.27753e+07
6.58501e+07
6.89298e+07
7.20056e+07
7.5068e+07
7.81072e+07
8.11135e+07
8.40761e+07
8.69844e+07
8.98273e+07
9.25937e+07
9.52731e+07
9.78551e+07
1.0033e+08
1.02689e+08
1.04923e+08
1.07026e+08
1.08993e+08
1.1082e+08
1.12501e+08
1.14035e+08
1.15421e+08
1.16662e+08
1.17759e+08
1.18718e+08
1.19544e+08
1.20246e+08
1.20835e+08
1.21319e+08
1.2171e+08
1.2202e+08
1.22263e+08
1.22454e+08
1.2261e+08
1.2275e+08
1.22895e+08
1.23069e+08
1.23297e+08
1.23609e+08
1.24038e+08
1.24622e+08
1.254e+08
1.26419e+08
1.27729e+08
1.29378e+08
1.31424e+08
1.33919e+08
1.36924e+08
1.40491e+08
1.44671e+08
1.4951e+08
1.55048e+08
1.61318e+08
1.6835e+08
1.76158e+08
1.84747e+08
1.94112e+08
2.0424e+08
2.1511e+08
2.26696e+08
2.38953e+08
2.51836e+08
2.65289e+08
2.79277e+08
2.93742e+08
3.08624e+08
3.23849e+08
3.39362e+08
3.55083e+08
3.70927e+08
3.86787e+08
4.02556e+08
4.18092e+08
4.33245e+08
4.47832e+08
4.61643e+08
4.74442e+08
4.85977e+08
4.95981e+08
5.04181e+08
5.10299e+08
5.14095e+08
5.15342e+08
5.13887e+08
5.09604e+08
5.02449e+08
4.92466e+08
4.79809e+08
4.64717e+08
4.47552e+08
4.28649e+08
4.08417e+08
3.87182e+08
3.65297e+08
3.43008e+08
3.20478e+08
4.70107e+07
4.69737e+07
4.68843e+07
4.67405e+07
4.65429e+07
4.62917e+07
4.5987e+07
4.56292e+07
4.52185e+07
4.47551e+07
4.42395e+07
4.36727e+07
4.30555e+07
4.23892e+07
4.16752e+07
4.09152e+07
4.01111e+07
3.92649e+07
3.8379e+07
3.74557e+07
3.64976e+07
3.55072e+07
3.44869e+07
3.34394e+07
3.23676e+07
3.12745e+07
3.01633e+07
2.90374e+07
2.79001e+07
2.67546e+07
2.56043e+07
2.44525e+07
2.33025e+07
2.21579e+07
2.10222e+07
1.98992e+07
1.87926e+07
1.77064e+07
1.66447e+07
1.56115e+07
1.46112e+07
1.36481e+07
1.2727e+07
1.18526e+07
1.10296e+07
1.02632e+07
9.55852e+06
8.92075e+06
8.35525e+06
7.8674e+06
7.46256e+06
7.1461e+06
6.92337e+06
6.79955e+06
6.77961e+06
6.86835e+06
7.07027e+06
7.38947e+06
7.82959e+06
8.39382e+06
9.08476e+06
9.90439e+06
1.0854e+07
1.19343e+07
1.31449e+07
1.44851e+07
1.59532e+07
1.75468e+07
1.92631e+07
2.10984e+07
2.30485e+07
2.51083e+07
2.72726e+07
2.95353e+07
3.18905e+07
3.43315e+07
3.68516e+07
3.94438e+07
4.2101e+07
4.48158e+07
4.75806e+07
5.03881e+07
5.32303e+07
5.60996e+07
5.89879e+07
6.18869e+07
6.47882e+07
6.76833e+07
7.05629e+07
7.34176e+07
7.62379e+07
7.90139e+07
8.17354e+07
8.43917e+07
8.69724e+07
8.94679e+07
9.18686e+07
9.41656e+07
9.63506e+07
9.84162e+07
1.00356e+08
1.02167e+08
1.03845e+08
1.05387e+08
1.06792e+08
1.08059e+08
1.09192e+08
1.10193e+08
1.11065e+08
1.11815e+08
1.1245e+08
1.12979e+08
1.13412e+08
1.13757e+08
1.14027e+08
1.14232e+08
1.14387e+08
1.14508e+08
1.14608e+08
1.14709e+08
1.14831e+08
1.14998e+08
1.15237e+08
1.15578e+08
1.16056e+08
1.16707e+08
1.17573e+08
1.187e+08
1.20138e+08
1.21936e+08
1.24146e+08
1.26825e+08
1.30022e+08
1.33787e+08
1.38163e+08
1.43188e+08
1.48898e+08
1.55318e+08
1.62464e+08
1.70343e+08
1.78952e+08
1.88281e+08
1.9831e+08
2.09017e+08
2.20365e+08
2.32312e+08
2.44807e+08
2.57815e+08
2.71286e+08
2.85164e+08
2.99383e+08
3.13884e+08
3.28597e+08
3.43436e+08
3.58306e+08
3.73104e+08
3.87702e+08
4.01952e+08
4.15689e+08
4.28722e+08
4.40821e+08
4.51761e+08
4.61304e+08
4.692e+08
4.75196e+08
4.79058e+08
4.80589e+08
4.7965e+08
4.76115e+08
4.69932e+08
4.61124e+08
4.49822e+08
4.36234e+08
4.20668e+08
4.03416e+08
3.84846e+08
3.65241e+08
3.44929e+08
3.24158e+08
3.03118e+08
4.29033e+07
4.28737e+07
4.27978e+07
4.26744e+07
4.25039e+07
4.22864e+07
4.2022e+07
4.17108e+07
4.13525e+07
4.09474e+07
4.0496e+07
3.99988e+07
3.94566e+07
3.88703e+07
3.8241e+07
3.757e+07
3.68589e+07
3.61093e+07
3.53232e+07
3.45023e+07
3.36486e+07
3.2764e+07
3.18508e+07
3.09111e+07
2.99476e+07
2.89628e+07
2.79596e+07
2.69408e+07
2.59093e+07
2.48679e+07
2.38195e+07
2.2767e+07
2.17136e+07
2.06622e+07
1.96162e+07
1.85792e+07
1.75544e+07
1.65456e+07
1.55566e+07
1.45913e+07
1.36537e+07
1.27482e+07
1.18792e+07
1.10514e+07
1.02694e+07
9.53819e+06
8.86295e+06
8.24882e+06
7.70108e+06
7.22508e+06
6.82614e+06
6.5096e+06
6.28073e+06
6.14468e+06
6.10642e+06
6.17067e+06
6.34188e+06
6.62407e+06
7.02086e+06
7.53534e+06
8.17005e+06
8.92693e+06
9.80723e+06
1.08115e+07
1.19397e+07
1.31908e+07
1.45632e+07
1.60546e+07
1.76621e+07
1.93822e+07
2.12108e+07
2.3143e+07
2.51737e+07
2.72972e+07
2.95074e+07
3.17983e+07
3.41632e+07
3.65954e+07
3.90879e+07
4.16337e+07
4.42255e+07
4.68561e+07
4.95178e+07
5.22032e+07
5.49045e+07
5.76136e+07
6.03224e+07
6.30224e+07
6.57049e+07
6.83608e+07
7.09811e+07
7.35563e+07
7.60768e+07
7.85328e+07
8.09148e+07
8.32137e+07
8.54209e+07
8.75286e+07
8.95291e+07
9.14161e+07
9.31841e+07
9.48298e+07
9.63502e+07
9.77441e+07
9.90113e+07
1.00152e+08
1.01169e+08
1.02064e+08
1.02843e+08
1.03509e+08
1.0407e+08
1.04533e+08
1.04906e+08
1.05199e+08
1.0542e+08
1.05582e+08
1.05695e+08
1.05772e+08
1.05828e+08
1.05879e+08
1.05943e+08
1.06044e+08
1.06204e+08
1.06452e+08
1.06818e+08
1.07333e+08
1.08038e+08
1.08974e+08
1.10186e+08
1.11724e+08
1.13635e+08
1.15971e+08
1.1878e+08
1.22108e+08
1.25997e+08
1.30485e+08
1.35606e+08
1.41386e+08
1.47841e+08
1.54979e+08
1.628e+08
1.71296e+08
1.80452e+08
1.90249e+08
2.00654e+08
2.11633e+08
2.23138e+08
2.35136e+08
2.47581e+08
2.60423e+08
2.736e+08
2.87057e+08
3.00724e+08
3.14521e+08
3.2836e+08
3.42145e+08
3.55757e+08
3.69054e+08
3.81883e+08
3.94074e+08
4.05412e+08
4.15693e+08
4.24704e+08
4.32224e+08
4.38024e+08
4.41887e+08
4.43637e+08
4.43156e+08
4.40316e+08
4.3506e+08
4.27395e+08
4.17438e+08
4.05358e+08
3.91418e+08
3.75864e+08
3.59021e+08
3.4113e+08
3.22489e+08
3.03341e+08
2.8391e+08
3.88284e+07
3.88064e+07
3.87438e+07
3.86405e+07
3.84968e+07
3.83124e+07
3.80872e+07
3.78212e+07
3.75141e+07
3.71661e+07
3.67776e+07
3.63487e+07
3.588e+07
3.5372e+07
3.48258e+07
3.42421e+07
3.36223e+07
3.29675e+07
3.22791e+07
3.15584e+07
3.08071e+07
3.00266e+07
2.92188e+07
2.83855e+07
2.75289e+07
2.66513e+07
2.57551e+07
2.48424e+07
2.39157e+07
2.29775e+07
2.20302e+07
2.10765e+07
2.0119e+07
1.91605e+07
1.82041e+07
1.72526e+07
1.63095e+07
1.53779e+07
1.44615e+07
1.35639e+07
1.26891e+07
1.1841e+07
1.10241e+07
1.02428e+07
9.50176e+06
8.80582e+06
8.16001e+06
7.56946e+06
7.03937e+06
6.57505e+06
6.18178e+06
5.86483e+06
5.62942e+06
5.48065e+06
5.42346e+06
5.46252e+06
5.60219e+06
5.84645e+06
6.19881e+06
6.66233e+06
7.23946e+06
7.93204e+06
8.74132e+06
9.66781e+06
1.07113e+07
1.1871e+07
1.31451e+07
1.45315e+07
1.60272e+07
1.76288e+07
1.93324e+07
2.11332e+07
2.30262e+07
2.5006e+07
2.70668e+07
2.92026e+07
3.1407e+07
3.36736e+07
3.59958e+07
3.83666e+07
4.07792e+07
4.32265e+07
4.57012e+07
4.81959e+07
5.07032e+07
5.32153e+07
5.57242e+07
5.82219e+07
6.07001e+07
6.31502e+07
6.55635e+07
6.7931e+07
7.02439e+07
7.24934e+07
7.46708e+07
7.67677e+07
7.87766e+07
8.06903e+07
8.25021e+07
8.42068e+07
8.57996e+07
8.72775e+07
8.86383e+07
8.98817e+07
9.10084e+07
9.20193e+07
9.29162e+07
9.37024e+07
9.43821e+07
9.49598e+07
9.54415e+07
9.58336e+07
9.61425e+07
9.63764e+07
9.65446e+07
9.66565e+07
9.67214e+07
9.67511e+07
9.67574e+07
9.67545e+07
9.67585e+07
9.67898e+07
9.68685e+07
9.70194e+07
9.72699e+07
9.76495e+07
9.81916e+07
9.89356e+07
9.99232e+07
1.012e+08
1.02811e+08
1.04804e+08
1.07222e+08
1.10112e+08
1.13514e+08
1.17465e+08
1.21997e+08
1.27137e+08
1.32901e+08
1.393e+08
1.46337e+08
1.54007e+08
1.62296e+08
1.71191e+08
1.80663e+08
1.90683e+08
2.01209e+08
2.12213e+08
2.23647e+08
2.35465e+08
2.47611e+08
2.60033e+08
2.72661e+08
2.85423e+08
2.98234e+08
3.11004e+08
3.23618e+08
3.35944e+08
3.47844e+08
3.59159e+08
3.69697e+08
3.79271e+08
3.87692e+08
3.94766e+08
4.00294e+08
4.04076e+08
4.05964e+08
4.05845e+08
4.03604e+08
3.99179e+08
3.9257e+08
3.83877e+08
3.73236e+08
3.60873e+08
3.46987e+08
3.31859e+08
3.15688e+08
2.98745e+08
2.8126e+08
2.63486e+08
3.49733e+07
3.49581e+07
3.49078e+07
3.48232e+07
3.47043e+07
3.45508e+07
3.43623e+07
3.41387e+07
3.38797e+07
3.35854e+07
3.32557e+07
3.28908e+07
3.24909e+07
3.20565e+07
3.15881e+07
3.10864e+07
3.05521e+07
2.9986e+07
2.93892e+07
2.87627e+07
2.81076e+07
2.74251e+07
2.67166e+07
2.59837e+07
2.52281e+07
2.44517e+07
2.36563e+07
2.28438e+07
2.20162e+07
2.11756e+07
2.0324e+07
1.94638e+07
1.85972e+07
1.77268e+07
1.68552e+07
1.59851e+07
1.51193e+07
1.42611e+07
1.34136e+07
1.25803e+07
1.17651e+07
1.09716e+07
1.02042e+07
9.46718e+06
8.76503e+06
8.10257e+06
7.48469e+06
6.91645e+06
6.40298e+06
5.94951e+06
5.56128e+06
5.2435e+06
5.00134e+06
4.83989e+06
4.76398e+06
4.77824e+06
4.88697e+06
5.09406e+06
5.40295e+06
5.81655e+06
6.33726e+06
6.96687e+06
7.70651e+06
8.55663e+06
9.51701e+06
1.05867e+07
1.17641e+07
1.3047e+07
1.44324e+07
1.5917e+07
1.74969e+07
1.91676e+07
2.09243e+07
2.27616e+07
2.46739e+07
2.66555e+07
2.87002e+07
3.08018e+07
3.29538e+07
3.51499e+07
3.73832e+07
3.9647e+07
4.19343e+07
4.42379e+07
4.65505e+07
4.88647e+07
5.1173e+07
5.34677e+07
5.57408e+07
5.79841e+07
6.01897e+07
6.23492e+07
6.44545e+07
6.64975e+07
6.84705e+07
7.03659e+07
7.21769e+07
7.38974e+07
7.55215e+07
7.70451e+07
7.84639e+07
7.97753e+07
8.09785e+07
8.20733e+07
8.30607e+07
8.3942e+07
8.47192e+07
8.53955e+07
8.5975e+07
8.64619e+07
8.68617e+07
8.71795e+07
8.74206e+07
8.75922e+07
8.77025e+07
8.776e+07
8.77728e+07
8.77506e+07
8.77037e+07
8.76441e+07
8.75862e+07
8.7547e+07
8.75444e+07
8.75995e+07
8.77371e+07
8.79839e+07
8.83697e+07
8.89302e+07
8.97031e+07
9.07296e+07
9.20522e+07
9.37137e+07
9.57569e+07
9.82245e+07
1.01156e+08
1.04589e+08
1.08554e+08
1.13077e+08
1.18176e+08
1.23866e+08
1.3015e+08
1.37027e+08
1.44486e+08
1.5252e+08
1.61102e+08
1.70207e+08
1.798e+08
1.89855e+08
2.00328e+08
2.11169e+08
2.22328e+08
2.33755e+08
2.45386e+08
2.57151e+08
2.68967e+08
2.80746e+08
2.92379e+08
3.03743e+08
3.14715e+08
3.25145e+08
3.34863e+08
3.43701e+08
3.51486e+08
3.58054e+08
3.63232e+08
3.66844e+08
3.68767e+08
3.68898e+08
3.67133e+08
3.63412e+08
3.57735e+08
3.50179e+08
3.40857e+08
3.29963e+08
3.17656e+08
3.04167e+08
2.89665e+08
2.74385e+08
2.58545e+08
2.42422e+08
3.14895e+07
3.14799e+07
3.14403e+07
3.13723e+07
3.12755e+07
3.11497e+07
3.09943e+07
3.0809e+07
3.05935e+07
3.03475e+07
3.00709e+07
2.97637e+07
2.9426e+07
2.90579e+07
2.86596e+07
2.82316e+07
2.77742e+07
2.72881e+07
2.67737e+07
2.62319e+07
2.56635e+07
2.50693e+07
2.44505e+07
2.38081e+07
2.31436e+07
2.24585e+07
2.17541e+07
2.1032e+07
2.02939e+07
1.95413e+07
1.87762e+07
1.80005e+07
1.72161e+07
1.64252e+07
1.56302e+07
1.48335e+07
1.40377e+07
1.32457e+07
1.24605e+07
1.16854e+07
1.0924e+07
1.018e+07
9.45734e+06
8.76027e+06
8.09326e+06
7.46096e+06
6.86822e+06
6.31999e+06
5.82131e+06
5.37735e+06
4.99328e+06
4.67426e+06
4.42542e+06
4.25179e+06
4.15817e+06
4.14909e+06
4.22875e+06
4.40097e+06
4.66905e+06
5.03582e+06
5.50356e+06
6.07398e+06
6.74809e+06
7.52629e+06
8.40826e+06
9.393e+06
1.04789e+07
1.16636e+07
1.29443e+07
1.43176e+07
1.57797e+07
1.73262e+07
1.89524e+07
2.06531e+07
2.24229e+07
2.42562e+07
2.6147e+07
2.80893e+07
3.00769e+07
3.21036e+07
3.41629e+07
3.62484e+07
3.83532e+07
4.04704e+07
4.25931e+07
4.47143e+07
4.68266e+07
4.89229e+07
5.09955e+07
5.30369e+07
5.50397e+07
5.69961e+07
5.88987e+07
6.07403e+07
6.25139e+07
6.42128e+07
6.58309e+07
6.73631e+07
6.88046e+07
7.01518e+07
7.14015e+07
7.25515e+07
7.36016e+07
7.45518e+07
7.54036e+07
7.61582e+07
7.68179e+07
7.73858e+07
7.78654e+07
7.82611e+07
7.85775e+07
7.88187e+07
7.89898e+07
7.90967e+07
7.91466e+07
7.91465e+07
7.91039e+07
7.90266e+07
7.89241e+07
7.88063e+07
7.86861e+07
7.85778e+07
7.84966e+07
7.84609e+07
7.84924e+07
7.86155e+07
7.8857e+07
7.92483e+07
7.98235e+07
8.06191e+07
8.16742e+07
8.30292e+07
8.4724e+07
8.67992e+07
8.92936e+07
9.22426e+07
9.56769e+07
9.96229e+07
1.04103e+08
1.0913e+08
1.14712e+08
1.20852e+08
1.27541e+08
1.34775e+08
1.42532e+08
1.5079e+08
1.5952e+08
1.68694e+08
1.78274e+08
1.8821e+08
1.98451e+08
2.0895e+08
2.19648e+08
2.30472e+08
2.41346e+08
2.52178e+08
2.62868e+08
2.73299e+08
2.8336e+08
2.9291e+08
3.01804e+08
3.09886e+08
3.17004e+08
3.23011e+08
3.27772e+08
3.31123e+08
3.32972e+08
3.3323e+08
3.31806e+08
3.28649e+08
3.23755e+08
3.17184e+08
3.09034e+08
2.99462e+08
2.88601e+08
2.76633e+08
2.63703e+08
2.50006e+08
2.3575e+08
2.21221e+08
2.84871e+07
2.84816e+07
2.84507e+07
2.83965e+07
2.83187e+07
2.82166e+07
2.80898e+07
2.79378e+07
2.77601e+07
2.75562e+07
2.73259e+07
2.7069e+07
2.67853e+07
2.64747e+07
2.61373e+07
2.57731e+07
2.53824e+07
2.49653e+07
2.45223e+07
2.40537e+07
2.35601e+07
2.30422e+07
2.25006e+07
2.19363e+07
2.13504e+07
2.07439e+07
2.01179e+07
1.94737e+07
1.88125e+07
1.81358e+07
1.74451e+07
1.6742e+07
1.60282e+07
1.53056e+07
1.45764e+07
1.38427e+07
1.3107e+07
1.23718e+07
1.16401e+07
1.0915e+07
1.01998e+07
9.4982e+06
8.81394e+06
8.15116e+06
7.51423e+06
6.90772e+06
6.33638e+06
5.80509e+06
5.31882e+06
4.88266e+06
4.50174e+06
4.18116e+06
3.92601e+06
3.74123e+06
3.63153e+06
3.60137e+06
3.65488e+06
3.79575e+06
4.02719e+06
4.3519e+06
4.77201e+06
5.2891e+06
5.90408e+06
6.61723e+06
7.42811e+06
8.33565e+06
9.33813e+06
1.04333e+07
1.16181e+07
1.28892e+07
1.42428e+07
1.56747e+07
1.71802e+07
1.87541e+07
2.03914e+07
2.20863e+07
2.38331e+07
2.5626e+07
2.74589e+07
2.93258e+07
3.12207e+07
3.31371e+07
3.50687e+07
3.70088e+07
3.89507e+07
4.08878e+07
4.28131e+07
4.47197e+07
4.66008e+07
4.84491e+07
5.02578e+07
5.20199e+07
5.37286e+07
5.53775e+07
5.69601e+07
5.84708e+07
5.99043e+07
6.12564e+07
6.25233e+07
6.37018e+07
6.47896e+07
6.57853e+07
6.66886e+07
6.75e+07
6.82211e+07
6.88534e+07