/*--------------------------------*- C++ -*----------------------------------*\
| =========                 |                                                 |
| \\      /  F ield         | OpenFOAM: The Open Source CFD Toolbox           |
|  \\    /   O peration     | Version:  dev                                   |
|   \\  /    A nd           | Web:      http://www.openfoam.org               |
|    \\/     M anipulation  |                                                 |
\*---------------------------------------------------------------------------*/
FoamFile
{
    version     2.0;
    format      ascii;
    class       volScalarField;
    object      rho;
    location    "9.145";
}
// * * * * * * * * * * * * * * * * * * * * * * * * * * * * * * * * * * * * * //

dimensions      [1 -3 0 0 0 0 0];

internalField   nonuniform List<scalar> 
12225
(
1.17125
1.1699
1.16944
1.16833
1.16714
1.16531
1.16342
1.16138
1.15869
1.1572
1.15304
1.1539
1.1471
1.1476
1.14128
1.14083
1.13969
1.12855
1.1698
1.17004
1.17102
1.17027
1.17012
1.16868
1.16736
1.16601
1.16265
1.16358
1.1558
1.16295
1.15122
1.15529
1.14696
1.14807
1.14636
1.13711
1.16972
1.17019
1.17175
1.17042
1.17095
1.16954
1.1686
1.1681
1.16435
1.16671
1.15869
1.16066
1.15543
1.15657
1.14965
1.14767
1.14528
1.13962
1.17066
1.16933
1.17242
1.16985
1.1711
1.1687
1.16888
1.16682
1.16511
1.16414
1.16159
1.15607
1.15705
1.1559
1.14969
1.14663
1.14488
1.14168
1.17186
1.16757
1.17202
1.16917
1.17071
1.16723
1.1685
1.16542
1.16432
1.16294
1.16127
1.15592
1.15756
1.15626
1.15039
1.14582
1.1454
1.14375
1.17176
1.16719
1.17226
1.16862
1.17018
1.16719
1.16789
1.16446
1.1646
1.16237
1.16108
1.1557
1.15674
1.15534
1.15135
1.14697
1.14617
1.14498
1.17163
1.16708
1.17282
1.16775
1.17029
1.16661
1.16666
1.16602
1.16494
1.16039
1.15945
1.15806
1.15664
1.15396
1.15114
1.14808
1.14744
1.14599
1.17235
1.16609
1.17263
1.16696
1.17031
1.16677
1.16642
1.16543
1.16331
1.1608
1.15827
1.15957
1.15678
1.15377
1.15052
1.14692
1.14636
1.14548
1.1725
1.16627
1.172
1.16635
1.17054
1.16655
1.16717
1.16353
1.163
1.16113
1.15923
1.16038
1.15777
1.15325
1.14924
1.14739
1.14663
1.14608
1.17182
1.16604
1.17263
1.16634
1.17142
1.1666
1.1683
1.16292
1.16368
1.16117
1.16103
1.15948
1.15848
1.15367
1.14896
1.14749
1.14779
1.14772
1.17078
1.1662
1.17239
1.16644
1.17092
1.16651
1.16811
1.16261
1.16384
1.1608
1.16045
1.15838
1.15696
1.15215
1.14882
1.14759
1.14761
1.14706
1.1695
1.16629
1.17087
1.16648
1.16904
1.16563
1.16662
1.16205
1.16225
1.15967
1.15891
1.15625
1.15406
1.15053
1.14798
1.14656
1.1456
1.1444
1.1677
1.16589
1.16876
1.16615
1.16708
1.16471
1.16421
1.16114
1.16021
1.15796
1.15636
1.15375
1.15112
1.14843
1.14597
1.14453
1.14294
1.14132
1.16607
1.16531
1.16664
1.16514
1.16473
1.16304
1.16172
1.15955
1.15787
1.15569
1.15355
1.15107
1.14842
1.14606
1.14359
1.14179
1.13981
1.13811
1.16464
1.16417
1.1648
1.16383
1.16283
1.16131
1.15951
1.15744
1.15526
1.15307
1.15072
1.1483
1.14578
1.14337
1.14103
1.13899
1.13672
1.13473
1.1631
1.16257
1.16279
1.16186
1.16073
1.15926
1.15728
1.15501
1.15259
1.15033
1.14787
1.14548
1.14306
1.14062
1.13826
1.13591
1.13365
1.13167
1.16108
1.16015
1.16044
1.15959
1.15853
1.15704
1.15496
1.15268
1.15035
1.14806
1.14553
1.14301
1.14055
1.13811
1.13562
1.13338
1.13127
1.12919
1.15929
1.15797
1.15809
1.15724
1.1563
1.1549
1.15295
1.15075
1.14863
1.14643
1.14385
1.1413
1.13928
1.13716
1.13476
1.13264
1.13082
1.12893
1.1574
1.15576
1.15604
1.15532
1.15441
1.15321
1.15158
1.14971
1.14815
1.14616
1.1435
1.14117
1.13987
1.13813
1.13566
1.13358
1.13221
1.13026
1.15599
1.15403
1.1546
1.15425
1.15354
1.15234
1.15061
1.14915
1.14828
1.1465
1.14409
1.14217
1.14123
1.13995
1.13757
1.13553
1.1344
1.13289
1.15476
1.15265
1.15331
1.1533
1.15298
1.1517
1.14999
1.1492
1.14894
1.14681
1.14473
1.14413
1.14305
1.14125
1.1398
1.13788
1.13672
1.13621
1.15389
1.1517
1.15211
1.152
1.15214
1.15146
1.15005
1.14935
1.14906
1.14712
1.14597
1.14641
1.14472
1.1424
1.14205
1.14061
1.13948
1.13944
1.15349
1.15109
1.15177
1.15136
1.1512
1.15105
1.1504
1.14947
1.1486
1.14762
1.14737
1.14702
1.14532
1.14383
1.14394
1.1437
1.14281
1.14231
1.15288
1.15052
1.15117
1.15111
1.15092
1.15091
1.15089
1.14999
1.14903
1.14885
1.14849
1.14703
1.14569
1.14515
1.14507
1.14506
1.1447
1.14385
1.15252
1.15017
1.15087
1.15087
1.15079
1.15069
1.15054
1.14982
1.14895
1.14893
1.14887
1.14777
1.14705
1.1466
1.14558
1.14511
1.1447
1.14388
1.15208
1.14995
1.15066
1.15067
1.15068
1.1506
1.15047
1.15022
1.14964
1.14884
1.14846
1.14811
1.14756
1.14711
1.1465
1.1459
1.14545
1.14485
1.15214
1.14981
1.15064
1.1507
1.15073
1.15066
1.15052
1.15021
1.14993
1.14954
1.1491
1.14865
1.14833
1.14801
1.14775
1.14744
1.14715
1.14682
1.15198
1.14974
1.15052
1.15053
1.15056
1.15056
1.15063
1.15059
1.15057
1.15041
1.15031
1.15009
1.14998
1.14979
1.14968
1.14943
1.14925
1.14895
1.152
1.14954
1.15032
1.1504
1.15048
1.15062
1.15077
1.15083
1.15079
1.1506
1.15038
1.14996
1.14957
1.14903
1.14849
1.14781
1.14725
1.14647
1.15377
1.15045
1.15038
1.14987
1.1494
1.1489
1.14827
1.14754
1.14669
1.14577
1.14481
1.14377
1.14275
1.14166
1.14059
1.13952
1.13846
1.13754
1.12271
1.15442
1.1589
1.15998
1.16016
1.15999
1.1587
1.1568
1.1545
1.15209
1.15
1.14843
1.14675
1.14446
1.14237
1.14178
1.14211
1.14189
1.14126
1.14082
1.1404
1.1404
1.14037
1.14061
1.1403
1.1398
1.13884
1.13651
1.13435
1.12919
1.12564
1.12445
1.11998
1.12153
1.12707
1.12502
1.12102
1.12154
1.12497
1.12927
1.13381
1.13818
1.14237
1.14644
1.15021
1.15364
1.15656
1.15912
1.16148
1.16351
1.16427
1.1633
1.16157
1.15883
1.15518
1.1526
1.15258
1.15461
1.15737
1.16018
1.1629
1.16445
1.164
1.1624
1.16201
1.16288
1.16381
1.17407
1.17594
1.18026
1.18198
1.17226
1.1637
1.1867
1.20419
1.20827
1.21576
1.21993
1.22332
1.22828
1.23119
1.23493
1.23839
1.24143
1.24474
1.24779
1.25084
1.25388
1.2568
1.25974
1.26274
1.2656
1.26841
1.2711
1.27411
1.27642
1.27928
1.2812
1.28324
1.28555
1.28722
1.28982
1.29316
1.29545
1.29554
1.29328
1.28975
1.28895
1.29389
1.30088
1.30251
1.30172
1.30728
1.31645
1.32667
1.34198
1.34984
1.3532
1.37903
1.41304
1.4177
1.39035
1.3804
1.41034
1.43116
1.41572
1.3837
1.36145
1.35263
1.35082
1.35135
1.35608
1.36599
1.37521
1.3786
1.37083
1.36993
1.39401
1.45505
1.41057
1.42887
1.4256
1.46301
1.48543
1.50178
1.51638
1.52718
1.55087
1.57834
1.6029
1.62708
1.64959
1.6702
1.68335
1.69394
1.70633
1.70918
1.7194
1.72035
1.7261
1.72903
1.73799
1.74112
1.74009
1.72954
1.72528
1.71699
1.715
1.71054
1.71182
1.68691
1.6596
1.6413
1.6044
1.59448
1.57447
1.52318
1.47687
1.44673
1.44241
1.11583
1.1565
1.17427
1.17909
1.17828
1.17257
1.16408
1.15463
1.14652
1.13923
1.13356
1.13051
1.12871
1.12473
1.11917
1.11768
1.1198
1.12077
1.12036
1.12141
1.12321
1.12546
1.12628
1.12871
1.13393
1.13697
1.1412
1.14495
1.14733
1.15191
1.15421
1.15154
1.15198
1.15068
1.13974
1.13184
1.12673
1.11958
1.12278
1.13648
1.14798
1.1541
1.15954
1.16649
1.17322
1.17857
1.18351
1.18685
1.18733
1.19009
1.19488
1.19496
1.19211
1.19349
1.19918
1.2014
1.19714
1.19299
1.19576
1.20212
1.20554
1.20907
1.22025
1.21576
1.19783
1.16895
1.16018
1.19846
1.18314
1.19452
1.20698
1.20741
1.22348
1.22737
1.23723
1.23665
1.24286
1.24402
1.24734
1.24969
1.2513
1.25467
1.25514
1.25864
1.26043
1.26241
1.26477
1.26672
1.26905
1.27149
1.2742
1.27682
1.28098
1.28296
1.29134
1.29183
1.2981
1.30047
1.2999
1.30348
1.3057
1.3078
1.31128
1.31938
1.32128
1.3153
1.30355
1.29148
1.29434
1.31251
1.32624
1.32869
1.34291
1.35904
1.36525
1.38566
1.40351
1.40274
1.44014
1.51346
1.55268
1.52197
1.50797
1.55053
1.59117
1.54721
1.47716
1.43391
1.41895
1.41214
1.40554
1.41078
1.43879
1.44773
1.42189
1.38961
1.39989
1.46045
1.53062
1.4074
1.49791
1.46647
1.5087
1.53217
1.53465
1.54793
1.5729
1.61259
1.66908
1.71188
1.74565
1.77608
1.80624
1.82777
1.84942
1.85865
1.86812
1.8799
1.88334
1.87139
1.86712
1.87593
1.88341
1.86705
1.84319
1.86897
1.88534
1.9129
1.93071
1.96023
1.94089
1.92302
1.913
1.84347
1.85337
1.81893
1.71341
1.61863
1.58079
1.61973
1.10578
1.1358
1.15694
1.16794
1.16302
1.14594
1.1305
1.1185
1.11144
1.10672
1.10267
1.10074
1.10096
1.09986
1.09666
1.09584
1.09817
1.09843
1.09693
1.1019
1.10491
1.10345
1.11078
1.11316
1.11341
1.11848
1.11658
1.11711
1.12161
1.12685
1.12956
1.13613
1.14599
1.14845
1.15458
1.15486
1.15029
1.15378
1.15144
1.14197
1.13634
1.13668
1.14194
1.14928
1.15464
1.15636
1.16067
1.16759
1.1645
1.16307
1.17293
1.17721
1.17497
1.17962
1.18619
1.17979
1.16763
1.17348
1.19837
1.21085
1.19991
1.17946
1.16308
1.18919
1.21986
1.19547
1.18917
1.19893
1.19858
1.21332
1.20925
1.21549
1.21683
1.21572
1.22047
1.21614
1.22319
1.21992
1.22439
1.22378
1.22557
1.22762
1.22795
1.23065
1.23176
1.23357
1.23516
1.23647
1.2383
1.24001
1.24346
1.24504
1.24903
1.24559
1.26102
1.25621
1.26363
1.27096
1.26763
1.27338
1.27711
1.28008
1.27885
1.28607
1.29253
1.29384
1.29928
1.29413
1.2894
1.29768
1.30964
1.32805
1.35043
1.33382
1.34973
1.39598
1.38483
1.323
1.34501
1.45062
1.51935
1.51968
1.53407
1.56855
1.5437
1.4539
1.42617
1.44109
1.44365
1.43378
1.42473
1.44608
1.464
1.43647
1.42145
1.41363
1.40331
1.45474
1.45239
1.39024
1.53131
1.52444
1.49149
1.50061
1.48549
1.47533
1.55018
1.60667
1.66091
1.68748
1.70088
1.70554
1.72954
1.76562
1.80678
1.78907
1.84958
1.8591
1.89596
1.87517
1.84964
1.84734
1.86275
1.79354
1.70914
1.73487
1.79445
1.86348
1.92943
1.96654
1.96021
2.03186
2.0662
1.99074
1.97016
1.85602
1.73754
1.66736
1.68541
1.72142
1.10226
1.12734
1.14193
1.13947
1.12411
1.10893
1.1018
1.10032
1.10199
1.10489
1.10747
1.10808
1.10789
1.10636
1.10527
1.10844
1.10925
1.10593
1.11262
1.12239
1.1235
1.12812
1.14126
1.14511
1.14484
1.14639
1.14127
1.1454
1.1397
1.12468
1.1292
1.1295
1.12261
1.13087
1.13466
1.13705
1.14878
1.14731
1.14618
1.15554
1.15688
1.14846
1.145
1.14937
1.15202
1.14924
1.15028
1.16136
1.16242
1.15867
1.16542
1.16135
1.16054
1.17893
1.18902
1.17998
1.17214
1.17472
1.17962
1.18391
1.20084
1.22019
1.21483
1.20324
1.1933
1.18933
1.20059
1.20228
1.20357
1.20574
1.20174
1.20654
1.20352
1.20789
1.20769
1.20932
1.21207
1.21046
1.21331
1.21144
1.21325
1.21424
1.21594
1.21767
1.21856
1.21961
1.22097
1.22198
1.22295
1.22231
1.2283
1.23128
1.23275
1.22598
1.23941
1.23771
1.23503
1.2445
1.24378
1.25126
1.25412
1.25984
1.26306
1.26386
1.26987
1.26971
1.28786
1.30767
1.3133
1.30509
1.30031
1.33801
1.35854
1.27986
1.27271
1.35813
1.37686
1.28833
1.24357
1.32561
1.44182
1.49886
1.52612
1.5306
1.46994
1.41899
1.41867
1.44534
1.45772
1.43826
1.43178
1.43596
1.40362
1.38145
1.39912
1.4271
1.43408
1.45677
1.41049
1.37199
1.40304
1.54148
1.45397
1.43936
1.44762
1.41615
1.51888
1.59937
1.6229
1.61823
1.63517
1.63632
1.62803
1.66485
1.74427
1.69035
1.77744
1.74214
1.76187
1.81707
1.83314
1.8026
1.86073
1.79861
1.65896
1.6005
1.64077
1.73265
1.84998
1.90083
1.85116
1.98095
2.09309
2.07261
1.98246
1.80345
1.72229
1.71842
1.74142
1.70154
1.09794
1.11558
1.12141
1.11323
1.10345
1.09983
1.10297
1.10878
1.11268
1.11236
1.11054
1.10696
1.10408
1.10065
1.09834
1.09634
1.09971
1.10585
1.11304
1.11985
1.12949
1.14661
1.15396
1.16305
1.16969
1.17367
1.1794
1.16692
1.16602
1.16635
1.14906
1.14365
1.13965
1.13094
1.12403
1.12347
1.12564
1.12763
1.13263
1.13421
1.13528
1.14282
1.15087
1.15458
1.15466
1.15199
1.15171
1.1576
1.15594
1.14489
1.14825
1.1494
1.14581
1.15608
1.17279
1.18714
1.20043
1.21284
1.22345
1.22504
1.21284
1.19754
1.18788
1.1886
1.19266
1.19559
1.19795
1.19328
1.19217
1.19034
1.19196
1.19457
1.19489
1.19747
1.19639
1.19801
1.19718
1.1977
1.19827
1.19807
1.19988
1.202
1.20505
1.20739
1.20837
1.20834
1.21004
1.2114
1.21244
1.20803
1.21338
1.21527
1.21332
1.21568
1.21256
1.22313
1.22113
1.22307
1.2202
1.2241
1.23096
1.23246
1.23807
1.23957
1.24917
1.2492
1.2647
1.28088
1.29291
1.29645
1.28346
1.31806
1.34551
1.26991
1.20799
1.26563
1.30964
1.25489
1.19214
1.24468
1.36217
1.44176
1.48963
1.47887
1.41815
1.38602
1.42078
1.46503
1.48017
1.43986
1.40522
1.38212
1.36107
1.38087
1.38989
1.39772
1.41208
1.47498
1.38838
1.35815
1.33615
1.42373
1.3732
1.38834
1.44746
1.41951
1.48532
1.56387
1.58844
1.56802
1.61856
1.67849
1.65452
1.6221
1.67921
1.59472
1.73444
1.73748
1.65552
1.67903
1.77791
1.72014
1.80747
1.826
1.7244
1.62644
1.5741
1.60593
1.75659
1.85375
1.74608
1.85437
2.02681
2.08853
1.96635
1.79015
1.74408
1.74683
1.70484
1.70345
1.09447
1.1056
1.10712
1.10191
1.09983
1.10273
1.10768
1.10964
1.10744
1.10231
1.09686
1.09287
1.09317
1.09221
1.09582
1.10189
1.10594
1.11424
1.12326
1.13434
1.14311
1.15276
1.16206
1.16721
1.17587
1.17821
1.17231
1.18013
1.18359
1.16744
1.16509
1.16155
1.15391
1.15695
1.15443
1.15361
1.14919
1.14666
1.1517
1.15148
1.14968
1.14768
1.14261
1.14506
1.14795
1.14939
1.15571
1.1543
1.14953
1.14506
1.13981
1.14703
1.16779
1.1886
1.20197
1.20881
1.21283
1.21209
1.20339
1.19254
1.18609
1.1867
1.18806
1.18857
1.19035
1.18874
1.18529
1.18294
1.18367
1.18538
1.19051
1.19382
1.19601
1.1961
1.19423
1.19252
1.19192
1.19515
1.20018
1.20638
1.21269
1.21743
1.22129
1.22499
1.22736
1.22672
1.22912
1.23001
1.23126
1.22679
1.23048
1.22108
1.21982
1.21931
1.21458
1.21029
1.21658
1.22023
1.21926
1.21032
1.21479
1.21753
1.21864
1.21147
1.22574
1.23155
1.23786
1.25259
1.25585
1.26899
1.27055
1.27827
1.31226
1.31382
1.26689
1.24502
1.25838
1.24174
1.19641
1.21195
1.30207
1.39874
1.46837
1.44879
1.38362
1.36486
1.43279
1.46746
1.44891
1.41712
1.4009
1.38987
1.36205
1.38771
1.36694
1.35874
1.36902
1.38789
1.29496
1.32543
1.36941
1.40219
1.3636
1.38654
1.42208
1.421
1.46733
1.51198
1.53995
1.50776
1.53144
1.58441
1.60312
1.60224
1.67828
1.58432
1.63429
1.71172
1.67336
1.63848
1.7326
1.65145
1.69728
1.76782
1.74568
1.71382
1.62704
1.5529
1.68168
1.8134
1.67118
1.72657
1.91136
2.05753
1.951
1.78445
1.74877
1.7208
1.66089
1.75239
1.09248
1.09901
1.09896
1.09871
1.10096
1.10499
1.10606
1.10394
1.1013
1.09961
1.09808
1.09556
1.09713
1.1013
1.10709
1.11898
1.12985
1.13667
1.14213
1.14735
1.1541
1.15897
1.16551
1.16793
1.16761
1.167
1.1707
1.18114
1.1755
1.16678
1.16624
1.16107
1.16075
1.16113
1.15824
1.15175
1.14698
1.14992
1.14563
1.14752
1.15376
1.14779
1.151
1.15658
1.15102
1.14821
1.15398
1.14934
1.13368
1.13574
1.15374
1.1723
1.18874
1.20442
1.21373
1.20928
1.19456
1.17986
1.17333
1.17539
1.17867
1.18306
1.18767
1.1847
1.18012
1.17712
1.17557
1.17719
1.17961
1.18296
1.18776
1.19101
1.19371
1.19304
1.18942
1.18623
1.18756
1.19592
1.20931
1.22401
1.23572
1.24023
1.24033
1.24288
1.24796
1.2478
1.25174
1.25274
1.25312
1.25338
1.25701
1.24579
1.24994
1.22931
1.23638
1.2182
1.21896
1.21704
1.21961
1.21901
1.21356
1.2168
1.22878
1.21816
1.21361
1.22356
1.22234
1.23216
1.22746
1.23645
1.26207
1.24425
1.25005
1.29084
1.29549
1.26297
1.26891
1.2555
1.21589
1.22345
1.29204
1.38198
1.44757
1.42514
1.35944
1.33891
1.41884
1.46298
1.40598
1.41903
1.42243
1.39336
1.27345
1.31168
1.33881
1.35653
1.34965
1.24023
1.27465
1.28708
1.35773
1.36022
1.34428
1.37732
1.37722
1.39075
1.4529
1.48015
1.51231
1.50536
1.48975
1.51886
1.56368
1.54407
1.60458
1.66765
1.64087
1.64877
1.67675
1.66732
1.73227
1.67727
1.64251
1.69212
1.71302
1.71776
1.67384
1.55425
1.64822
1.78694
1.60954
1.612
1.79661
2.00492
1.92004
1.76838
1.73296
1.67273
1.6379
1.73778
1.09181
1.09651
1.09818
1.10137
1.10424
1.1055
1.10587
1.10698
1.10218
1.09668
1.09219
1.08904
1.09318
1.10301
1.1153
1.12801
1.14437
1.15501
1.16149
1.16264
1.1626
1.16375
1.16384
1.16413
1.16419
1.16251
1.16333
1.16595
1.16608
1.16352
1.15717
1.15055
1.13732
1.13711
1.14812
1.14615
1.14628
1.14388
1.14645
1.15827
1.1526
1.15102
1.15589
1.14812
1.14645
1.14962
1.14697
1.13402
1.12543
1.13884
1.15849
1.17175
1.18268
1.19159
1.19436
1.1889
1.17905
1.171
1.16815
1.17254
1.17709
1.17512
1.17572
1.17686
1.17259
1.16875
1.16891
1.17003
1.17155
1.17545
1.18093
1.18673
1.19211
1.19305
1.18874
1.1831
1.18207
1.19094
1.20758
1.22509
1.23621
1.23651
1.22784
1.22348
1.22772
1.22823
1.22973
1.23233
1.23268
1.23881
1.24153
1.24733
1.24922
1.24659
1.23858
1.23312
1.2299
1.22383
1.21067
1.21369
1.21168
1.2049
1.21662
1.2178
1.21078
1.22381
1.22622
1.23573
1.22025
1.21423
1.25899
1.24833
1.22907
1.26072
1.28393
1.26643
1.26819
1.25804
1.20924
1.21034
1.28126
1.37125
1.42976
1.40485
1.33452
1.31288
1.38818
1.46844
1.37928
1.36129
1.3172
1.26272
1.15827
1.20023
1.30591
1.35687
1.37043
1.28613
1.31061
1.30023
1.3082
1.26438
1.31744
1.37201
1.38706
1.39384
1.4622
1.47094
1.49893
1.49518
1.43842
1.52169
1.60095
1.58416
1.5997
1.67856
1.671
1.64183
1.65526
1.65751
1.72089
1.72319
1.6399
1.64302
1.67506
1.67379
1.63957
1.54877
1.63002
1.76416
1.56997
1.52194
1.70539
1.95757
1.88868
1.74826
1.70605
1.62727
1.61184
1.69119
1.09206
1.09656
1.0999
1.10415
1.10602
1.1068
1.10776
1.10506
1.09481
1.09066
1.0889
1.09043
1.09528
1.10564
1.1267
1.14655
1.16297
1.17552
1.17927
1.17754
1.17224
1.1674
1.16329
1.15902
1.15752
1.15778
1.15592
1.15162
1.14935
1.14916
1.15424
1.16168
1.16346
1.16909
1.16703
1.16204
1.14949
1.1365
1.14267
1.13673
1.1348
1.14878
1.14728
1.1444
1.14807
1.14294
1.13415
1.1287
1.13568
1.15352
1.16822
1.18041
1.19027
1.19185
1.18172
1.16479
1.15552
1.16212
1.17232
1.1767
1.17995
1.17781
1.1709
1.16687
1.16413
1.16236
1.16307
1.16413
1.16516
1.16872
1.17473
1.18238
1.1911
1.19685
1.19743
1.19258
1.18548
1.18617
1.19871
1.21569
1.22493
1.22292
1.21183
1.20808
1.21455
1.2218
1.21927
1.21786
1.21356
1.21563
1.22103
1.22466
1.2228
1.23941
1.2245
1.23189
1.22597
1.23103
1.22712
1.21757
1.21897
1.20791
1.20948
1.21849
1.2011
1.20564
1.20121
1.22198
1.22763
1.19883
1.23195
1.23489
1.18586
1.18026
1.23225
1.25023
1.26371
1.27899
1.23309
1.19416
1.24884
1.34248
1.40794
1.38709
1.31818
1.30194
1.35766
1.46198
1.37044
1.24887
1.17172
1.16633
1.16471
1.22703
1.29621
1.28686
1.33395
1.23702
1.26699
1.30691
1.32221
1.31033
1.37149
1.3788
1.3953
1.43512
1.46076
1.41946
1.47438
1.49049
1.47306
1.58053
1.5595
1.54934
1.61424
1.63197
1.63876
1.63355
1.62606
1.60205
1.67679
1.72111
1.64529
1.61998
1.63508
1.64126
1.59245
1.52008
1.6143
1.73265
1.5436
1.46448
1.6278
1.90522
1.85808
1.72272
1.67427
1.59156
1.57713
1.66555
1.09274
1.09777
1.10307
1.1077
1.10841
1.10718
1.1074
1.1081
1.10259
1.0987
1.09369
1.09122
1.0935
1.10443
1.12422
1.14625
1.15691
1.15791
1.15268
1.14562
1.1417
1.14158
1.14278
1.14142
1.13756
1.1371
1.13974
1.14056
1.13798
1.13297
1.13026
1.13033
1.13201
1.13311
1.13359
1.13843
1.13579
1.1359
1.13416
1.13474
1.14791
1.14726
1.14221
1.14525
1.14108
1.13251
1.13138
1.1357
1.1451
1.15478
1.16212
1.17197
1.1825
1.1888
1.18696
1.17401
1.15864
1.1582
1.16708
1.16701
1.16409
1.1669
1.16647
1.16166
1.15795
1.15774
1.1612
1.16393
1.16418
1.16465
1.16647
1.17122
1.17876
1.18622
1.19274
1.19585
1.18935
1.17612
1.17103
1.18613
1.2033
1.20614
1.19415
1.1989
1.21583
1.2382
1.23919
1.23519
1.22931
1.21982
1.22695
1.22163
1.2219
1.22966
1.21875
1.221
1.21615
1.19952
1.20846
1.20353
1.20465
1.21218
1.20024
1.21835
1.21724
1.2216
1.2077
1.2013
1.21533
1.19802
1.22442
1.23419
1.20367
1.16588
1.18272
1.1955
1.22378
1.26054
1.23985
1.18841
1.21185
1.30005
1.37949
1.36781
1.30673
1.28853
1.32547
1.41364
1.36586
1.21251
1.15588
1.17075
1.15757
1.24137
1.28507
1.24932
1.30267
1.22096
1.37197
1.3973
1.37762
1.40618
1.46153
1.41584
1.44145
1.48125
1.52267
1.51487
1.59706
1.4783
1.49389
1.54852
1.46898
1.48833
1.5662
1.58512
1.60193
1.56973
1.54145
1.53296
1.63098
1.69452
1.63952
1.61255
1.60505
1.61474
1.5572
1.48325
1.5976
1.69523
1.51335
1.43088
1.57384
1.85736
1.82527
1.69359
1.64262
1.55545
1.53829
1.67339
1.09386
1.10001
1.106
1.10703
1.10638
1.10621
1.10945
1.11224
1.10479
1.09985
1.09869
1.09876
1.10164
1.11094
1.12451
1.13898
1.14458
1.13881
1.12711
1.11506
1.11116
1.11628
1.12283
1.12577
1.124
1.12096
1.11796
1.1139
1.11095
1.11467
1.12072
1.12212
1.1221
1.12368
1.12761
1.13256
1.13659
1.14125
1.14186
1.14513
1.14162
1.13804
1.14161
1.14024
1.13143
1.1278
1.13145
1.1373
1.14423
1.14884
1.15442
1.16169
1.16622
1.16765
1.16865
1.16406
1.15464
1.15526
1.17043
1.17972
1.17323
1.1649
1.16207
1.16015
1.15833
1.15947
1.16257
1.16459
1.16438
1.16315
1.16377
1.16774
1.17426
1.17927
1.18451
1.19513
1.20448
1.2013
1.17987
1.16871
1.18183
1.19813
1.18345
1.18015
1.19749
1.23054
1.23901
1.23369
1.23035
1.23052
1.22776
1.22833
1.218
1.22772
1.21851
1.21607
1.2342
1.21266
1.20854
1.2143
1.19022
1.20008
1.19537
1.18257
1.18499
1.19146
1.20242
1.1986
1.20197
1.18222
1.198
1.211
1.20613
1.16742
1.17894
1.183
1.20223
1.2389
1.23161
1.18878
1.18156
1.25819
1.35055
1.34892
1.29671
1.27216
1.28775
1.33962
1.32315
1.20474
1.17337
1.16165
1.14046
1.18841
1.20579
1.24436
1.25745
1.29089
1.46202
1.4946
1.45401
1.4887
1.49971
1.44628
1.46575
1.49522
1.51238
1.49181
1.55068
1.41428
1.42962
1.43086
1.43388
1.45542
1.48966
1.51364
1.5506
1.48747
1.44461
1.47777
1.60759
1.66418
1.62391
1.60667
1.57455
1.58996
1.50991
1.44029
1.57466
1.6478
1.48598
1.41291
1.54224
1.82188
1.79075
1.65925
1.60995
1.51772
1.50147
1.67073
1.09499
1.10114
1.1048
1.10485
1.10723
1.10982
1.11204
1.11262
1.11359
1.12001
1.12097
1.1163
1.11427
1.12114
1.13299
1.14245
1.14659
1.14338
1.13336
1.12164
1.11443
1.11549
1.11928
1.1212
1.12175
1.12344
1.12793
1.13378
1.1383
1.1382
1.13141
1.12587
1.12392
1.12261
1.12417
1.12962
1.13503
1.1365
1.13422
1.13185
1.12975
1.13585
1.13626
1.12837
1.12093
1.12396
1.13018
1.13484
1.13878
1.14228
1.14969
1.15862
1.16544
1.16918
1.17176
1.16876
1.1593
1.14953
1.15021
1.15938
1.16399
1.16219
1.15877
1.1576
1.15836
1.15865
1.15897
1.16005
1.16053
1.16138
1.16343
1.1694
1.17602
1.17853
1.17859
1.18546
1.19853
1.2106
1.20658
1.18396
1.16601
1.17696
1.17086
1.15712
1.15692
1.17924
1.19406
1.19696
1.20066
1.20938
1.22672
1.22162
1.21553
1.20476
1.20849
1.1873
1.1985
1.2026
1.18756
1.2074
1.20289
1.19136
1.20876
1.20404
1.2076
1.2051
1.19207
1.18965
1.2082
1.18702
1.17156
1.20128
1.22862
1.19174
1.1845
1.16863
1.17923
1.22716
1.2272
1.19011
1.16198
1.22254
1.3217
1.32971
1.28486
1.25573
1.25152
1.27815
1.27577
1.20502
1.17563
1.16163
1.12941
1.17831
1.1609
1.24098
1.22898
1.24025
1.47352
1.45528
1.48517
1.5411
1.5199
1.44607
1.41951
1.46898
1.41227
1.36526
1.35896
1.44837
1.4776
1.41784
1.55355
1.48097
1.45585
1.50365
1.54384
1.46328
1.39856
1.44212
1.59886
1.61925
1.58946
1.59131
1.5396
1.56179
1.45855
1.38828
1.54293
1.59026
1.45701
1.40765
1.52157
1.79017
1.75822
1.62981
1.58279
1.48552
1.47384
1.62771
1.096
1.10124
1.10343
1.1064
1.10935
1.11286
1.11755
1.12227
1.12413
1.11842
1.1107
1.10598
1.1078
1.11576
1.12761
1.14096
1.15168
1.15831
1.16058
1.15758
1.14989
1.14513
1.14523
1.1477
1.14962
1.14871
1.1458
1.14179
1.13757
1.13683
1.13773
1.1374
1.13402
1.12847
1.12329
1.12048
1.12208
1.12597
1.13067
1.13551
1.13898
1.13738
1.12911
1.11931
1.113
1.11706
1.12396
1.12946
1.1311
1.13336
1.13919
1.14652
1.15292
1.15736
1.16324
1.16837
1.17028
1.16772
1.16411
1.16406
1.1656
1.16452
1.16128
1.15827
1.15578
1.15494
1.15592
1.15795
1.16012
1.16272
1.16697
1.1739
1.17651
1.17609
1.17561
1.18067
1.19288
1.20295
1.2033
1.18789
1.16492
1.16854
1.17448
1.16593
1.156
1.15908
1.16753
1.16891
1.19809
1.20326
1.23139
1.22262
1.2312
1.20621
1.20481
1.20854
1.18519
1.19338
1.18277
1.17707
1.18429
1.17827
1.18653
1.1783
1.16535
1.19563
1.20091
1.17132
1.19608
1.21075
1.15551
1.16234
1.20852
1.19978
1.19028
1.17165
1.17773
1.2094
1.20309
1.17386
1.14426
1.19276
1.29445
1.31325
1.27412
1.24197
1.21871
1.22989
1.24369
1.21723
1.16772
1.14807
1.11109
1.15226
1.1276
1.21572
1.17517
1.20436
1.47315
1.44582
1.45472
1.49791
1.48521
1.38964
1.33838
1.45631
1.44662
1.40651
1.35215
1.51086
1.49249
1.39064
1.60113
1.52017
1.44888
1.57171
1.52358
1.43707
1.40316
1.43456
1.55433
1.53966
1.55072
1.56715
1.50187
1.52978
1.40586
1.33344
1.50261
1.53438
1.42164
1.40573
1.51541
1.76308
1.72977
1.60605
1.55402
1.45071
1.44722
1.55896
1.09727
1.10205
1.10505
1.10932
1.11147
1.11536
1.12004
1.11505
1.10861
1.11177
1.11355
1.10833
1.10735
1.10892
1.11715
1.12813
1.13733
1.1433
1.1471
1.15115
1.15237
1.15193
1.15093
1.14966
1.14631
1.14139
1.13664
1.13314
1.13166
1.1323
1.13455
1.13656
1.13749
1.13843
1.13834
1.13469
1.13084
1.13115
1.13398
1.13603
1.13627
1.12684
1.11571
1.11378
1.11687
1.11979
1.12268
1.1273
1.1281
1.13003
1.1339
1.13811
1.14112
1.14312
1.14538
1.14894
1.15277
1.15412
1.15556
1.15877
1.16284
1.16684
1.16875
1.16764
1.16637
1.16554
1.16602
1.1655
1.16705
1.16992
1.17317
1.17772
1.1744
1.17066
1.17609
1.18479
1.19004
1.18978
1.19411
1.18281
1.15697
1.15206
1.17107
1.17903
1.17295
1.15793
1.16267
1.16388
1.18699
1.20935
1.21556
1.2223
1.21042
1.21965
1.19031
1.20205
1.19173
1.18328
1.18371
1.18272
1.17811
1.17002
1.17852
1.20671
1.18054
1.17478
1.20824
1.16682
1.16616
1.22286
1.18107
1.14577
1.17465
1.19309
1.18323
1.16688
1.16052
1.18589
1.18749
1.16466
1.13793
1.17215
1.26637
1.29506
1.26596
1.23167
1.18963
1.17671
1.19589
1.21155
1.14854
1.12695
1.10506
1.13935
1.11317
1.20364
1.18266
1.1356
1.30007
1.41198
1.42433
1.44118
1.42478
1.33507
1.31704
1.55316
1.46609
1.38628
1.42595
1.49815
1.41158
1.4317
1.5856
1.54768
1.42331
1.62556
1.55192
1.5129
1.48724
1.46451
1.50083
1.47084
1.52624
1.54493
1.46577
1.49701
1.35674
1.28523
1.45764
1.47938
1.38905
1.39877
1.50956
1.74389
1.70816
1.59
1.52812
1.41697
1.41879
1.49283
1.099
1.10443
1.10846
1.11173
1.11261
1.11239
1.1117
1.11155
1.11181
1.12137
1.12665
1.11364
1.10388
1.09711
1.09948
1.10697
1.11801
1.12854
1.13545
1.14023
1.14307
1.14444
1.14427
1.14253
1.13898
1.13515
1.12965
1.12436
1.12228
1.12475
1.13085
1.13626
1.13802
1.13927
1.14373
1.1479
1.14692
1.1432
1.13872
1.13031
1.12439
1.12007
1.11018
1.10633
1.11398
1.12026
1.12326
1.12499
1.12552
1.12787
1.13014
1.13438
1.13944
1.14548
1.14947
1.15219
1.15414
1.1551
1.15563
1.15458
1.15463
1.15529
1.15627
1.15827
1.16018
1.16234
1.16279
1.1664
1.16922
1.17023
1.17436
1.17152
1.16644
1.1696
1.17746
1.18674
1.18642
1.16592
1.1612
1.16751
1.16061
1.14856
1.15922
1.16802
1.17909
1.16922
1.1476
1.1562
1.17798
1.20529
1.19224
1.20305
1.1875
1.18785
1.18815
1.18718
1.18376
1.18323
1.18096
1.1708
1.17895
1.17934
1.1543
1.16028
1.17008
1.152
1.19326
1.18011
1.14873
1.19484
1.18993
1.15414
1.1638
1.18743
1.16915
1.16779
1.1446
1.17107
1.17549
1.15735
1.13351
1.16393
1.24409
1.27843
1.2637
1.22659
1.16964
1.12552
1.13931
1.18183
1.1218
1.10715
1.07659
1.1105
1.10509
1.17745
1.17334
1.14985
1.29633
1.42645
1.40598
1.39861
1.36796
1.29881
1.39646
1.59317
1.44663
1.40367
1.48621
1.52258
1.48636
1.568
1.55717
1.47184
1.42921
1.64242
1.63407
1.60054
1.51298
1.448
1.44057
1.42477
1.50487
1.51307
1.4199
1.45764
1.3288
1.24447
1.4122
1.43407
1.36122
1.38764
1.50366
1.72122
1.68124
1.57228
1.50256
1.38742
1.39307
1.4438
1.10135
1.10914
1.11362
1.11575
1.11655
1.1165
1.11563
1.11381
1.10669
1.11382
1.12953
1.13257
1.12986
1.11911
1.11073
1.10566
1.10621
1.10995
1.11618
1.12296
1.12798
1.13296
1.13761
1.13945
1.13825
1.13531
1.12925
1.12123
1.11476
1.11395
1.12051
1.13097
1.13741
1.13615
1.1331
1.1356
1.14009
1.13686
1.1311
1.12262
1.11204
1.11134
1.1128
1.10904
1.1099
1.11459
1.12141
1.12511
1.1268
1.12951
1.13213
1.13581
1.13858
1.14218
1.14588
1.14961
1.153
1.15576
1.15996
1.16402
1.16515
1.16516
1.16497
1.16587
1.16673
1.167
1.16797
1.16744
1.16769
1.16757
1.1674
1.16581
1.16737
1.17107
1.17515
1.18052
1.17095
1.14763
1.14008
1.14877
1.15766
1.14658
1.15349
1.17154
1.16902
1.15894
1.15056
1.16333
1.17134
1.20521
1.19957
1.1904
1.18588
1.17438
1.16497
1.16826
1.1683
1.15677
1.16977
1.1688
1.16773
1.17002
1.17072
1.16842
1.17741
1.15089
1.17084
1.18323
1.15566
1.18095
1.18099
1.15293
1.16277
1.18773
1.1569
1.15689
1.13519
1.16823
1.16797
1.14619
1.12169
1.14663
1.21922
1.25974
1.26131
1.22402
1.15607
1.09788
1.09438
1.15123
1.09673
1.09014
1.06098
1.09383
1.08619
1.13912
1.16305
1.16464
1.25619
1.3786
1.3373
1.32166
1.34084
1.31018
1.47793
1.50553
1.41941
1.42932
1.49748
1.5624
1.56038
1.49983
1.56365
1.52766
1.55439
1.6368
1.57406
1.55911
1.49737
1.44419
1.41018
1.40957
1.48902
1.47339
1.3706
1.41214
1.34192
1.22339
1.36741
1.40434
1.34195
1.361
1.50186
1.70443
1.65315
1.55181
1.47747
1.36344
1.36971
1.40888
1.10557
1.11668
1.12005
1.12031
1.11947
1.11674
1.11456
1.11411
1.12015
1.13429
1.13961
1.1334
1.12754
1.12393
1.12158
1.11624
1.11186
1.10958
1.10909
1.10918
1.11165
1.11599
1.12014
1.12553
1.13129
1.13537
1.13732
1.13534
1.12866
1.11861
1.11079
1.11224
1.12286
1.13027
1.12636
1.11906
1.11916
1.12169
1.11963
1.11663
1.11033
1.10536
1.11083
1.11517
1.11525
1.11387
1.11474
1.11753
1.12176
1.12522
1.12727
1.12915
1.1277
1.12723
1.12866
1.12985
1.13158
1.13407
1.13704
1.14039
1.14539
1.14964
1.15478
1.15739
1.15978
1.15938
1.16114
1.15956
1.16251
1.16306
1.15754
1.15681
1.16432
1.16439
1.16038
1.16257
1.15004
1.13168
1.13769
1.14869
1.15946
1.15629
1.14732
1.15645
1.15994
1.14727
1.13134
1.16667
1.18536
1.18984
1.20257
1.19682
1.19832
1.18188
1.17741
1.16864
1.17445
1.16215
1.1592
1.15128
1.15432
1.16057
1.15032
1.15294
1.16463
1.1556
1.15653
1.17548
1.14612
1.16538
1.19005
1.1559
1.14887
1.17307
1.16151
1.15438
1.13297
1.15071
1.16045
1.13843
1.12128
1.13461
1.19621
1.24296
1.25804
1.21862
1.14395
1.08687
1.07152
1.11569
1.07266
1.07388
1.04739
1.08329
1.0677
1.09654
1.17598
1.15617
1.21081
1.33303
1.28087
1.26811
1.38521
1.35372
1.46607
1.45489
1.41095
1.4321
1.46532
1.51413
1.47124
1.45644
1.52792
1.66072
1.61459
1.62708
1.53279
1.57395
1.54082
1.49723
1.43873
1.41949
1.46968
1.43226
1.32548
1.35873
1.37812
1.22554
1.32901
1.39042
1.3313
1.32694
1.49119
1.6817
1.62449
1.53041
1.45382
1.34606
1.34553
1.38157
1.11238
1.12325
1.12108
1.12263
1.12235
1.12303
1.12436
1.12787
1.13412
1.1374
1.13306
1.128
1.12853
1.12958
1.12854
1.12566
1.12458
1.12177
1.12
1.11784
1.115
1.11329
1.11156
1.11148
1.11257
1.11594
1.12153
1.12841
1.13485
1.13778
1.13365
1.12318
1.11474
1.11685
1.12336
1.12229
1.11527
1.11157
1.11051
1.10776
1.10828
1.10776
1.10796
1.11237
1.11767
1.1204
1.11906
1.11759
1.12066
1.12205
1.11973
1.11917
1.118
1.11705
1.11762
1.11684
1.11656
1.11496
1.11419
1.1148
1.1155
1.11929
1.12199
1.12536
1.13032
1.13486
1.14028
1.14223
1.14165
1.14119
1.14632
1.14618
1.15489
1.15415
1.14339
1.14409
1.1353
1.12604
1.14167
1.15498
1.15146
1.14281
1.14345
1.15543
1.14784
1.13616
1.15087
1.1654
1.18931
1.17693
1.19363
1.17733
1.18239
1.17711
1.16556
1.16169
1.16589