/*--------------------------------*- C++ -*----------------------------------*\
| =========                 |                                                 |
| \\      /  F ield         | OpenFOAM: The Open Source CFD Toolbox           |
|  \\    /   O peration     | Version:  dev                                   |
|   \\  /    A nd           | Web:      http://www.openfoam.org               |
|    \\/     M anipulation  |                                                 |
\*---------------------------------------------------------------------------*/
FoamFile
{
    version     2.0;
    format      ascii;
    class       volScalarField;
    object      rho_0;
    location    "9.145";
}
// * * * * * * * * * * * * * * * * * * * * * * * * * * * * * * * * * * * * * //

dimensions      [1 -3 0 0 0 0 0];

internalField   nonuniform List<scalar> 
12225
(
1.15565
1.15551
1.15553
1.15489
1.15424
1.15296
1.15162
1.15015
1.14781
1.14702
1.14306
1.14454
1.13805
1.13887
1.13288
1.13271
1.13057
1.12054
1.15482
1.15645
1.15771
1.15737
1.15769
1.15679
1.15602
1.1552
1.15229
1.15371
1.14635
1.15397
1.14242
1.14683
1.13883
1.14029
1.1377
1.12832
1.15487
1.15668
1.15848
1.15757
1.15859
1.15771
1.15734
1.15734
1.1541
1.15692
1.14915
1.15198
1.14686
1.14819
1.14141
1.1401
1.13749
1.13166
1.15582
1.15591
1.15924
1.15708
1.15883
1.15699
1.15771
1.15617
1.15497
1.15453
1.1521
1.14743
1.14879
1.14753
1.14147
1.13916
1.13729
1.13383
1.15712
1.15426
1.15901
1.15655
1.15855
1.15565
1.15747
1.15488
1.15433
1.15346
1.15196
1.14729
1.14947
1.14806
1.14219
1.13824
1.13804
1.1362
1.15725
1.15407
1.15942
1.15617
1.15819
1.15576
1.157
1.15407
1.15478
1.15308
1.15199
1.14707
1.14879
1.14753
1.14347
1.13937
1.13896
1.1379
1.15743
1.15424
1.16018
1.15555
1.15853
1.15535
1.15608
1.15589
1.15522
1.15121
1.15086
1.14962
1.14868
1.14636
1.14371
1.14101
1.14054
1.13913
1.15842
1.15351
1.1603
1.15504
1.15886
1.15576
1.15604
1.15564
1.15391
1.1518
1.14996
1.1515
1.14895
1.14633
1.14335
1.14014
1.1398
1.13883
1.1589
1.15395
1.15993
1.15472
1.15937
1.15584
1.15697
1.154
1.15393
1.15248
1.15112
1.15271
1.15011
1.14592
1.1424
1.14085
1.14025
1.13961
1.15864
1.15415
1.16094
1.15506
1.16062
1.15626
1.15844
1.15367
1.15498
1.15296
1.15326
1.15222
1.15133
1.14667
1.14241
1.1414
1.14186
1.14172
1.15825
1.15485
1.16126
1.15565
1.16068
1.1567
1.15879
1.15384
1.15568
1.15309
1.15323
1.15161
1.15041
1.14583
1.14284
1.14201
1.14225
1.14174
1.15768
1.15564
1.16049
1.15636
1.15948
1.15651
1.15803
1.15394
1.15478
1.15265
1.15235
1.15008
1.14824
1.14495
1.14274
1.14163
1.14089
1.13979
1.1568
1.15615
1.15929
1.15693
1.15839
1.15645
1.15651
1.1539
1.15356
1.15177
1.15064
1.1484
1.14613
1.14373
1.14159
1.14043
1.13902
1.13752
1.15644
1.15674
1.1583
1.15706
1.15713
1.15588
1.15511
1.15343
1.15228
1.15056
1.14887
1.14677
1.14446
1.14241
1.14022
1.13869
1.1369
1.13535
1.15648
1.15705
1.15788
1.15718
1.1566
1.15553
1.15425
1.15268
1.15102
1.14929
1.14737
1.14533
1.14314
1.14104
1.13896
1.13715
1.13507
1.13323
1.15658
1.1572
1.15763
1.15698
1.15624
1.15521
1.15371
1.15192
1.15
1.14819
1.14615
1.14414
1.14204
1.13989
1.13778
1.13565
1.13356
1.13172
1.15668
1.15691
1.15742
1.15684
1.15614
1.15507
1.15344
1.15163
1.14976
1.1479
1.14576
1.14361
1.14145
1.13927
1.13703
1.13498
1.13303
1.13107
1.15717
1.157
1.15736
1.15677
1.15619
1.15517
1.15364
1.15188
1.1502
1.14839
1.14618
1.14399
1.14226
1.14036
1.13817
1.13625
1.13456
1.13277
1.15739
1.15689
1.15739
1.1569
1.15632
1.15551
1.15428
1.15284
1.15167
1.15004
1.14773
1.14576
1.14474
1.14319
1.1409
1.13903
1.13778
1.13592
1.15771
1.15683
1.15763
1.1575
1.1571
1.15627
1.15495
1.15393
1.15343
1.15199
1.14991
1.14832
1.14769
1.14658
1.14434
1.14251
1.14152
1.14007
1.15782
1.15675
1.15767
1.1579
1.15787
1.15693
1.15564
1.1553
1.15539
1.15358
1.15187
1.15156
1.15073
1.14918
1.14786
1.14609
1.14512
1.14465
1.15805
1.1568
1.15746
1.15763
1.1581
1.15774
1.15671
1.15647
1.15655
1.15492
1.15416
1.15489
1.15337
1.15132
1.15117
1.1498
1.14886
1.14888
1.15827
1.15691
1.15786
1.15772
1.15793
1.15813
1.15784
1.15731
1.15686
1.15623
1.15633
1.15628
1.15478
1.15356
1.15392
1.15375
1.15295
1.15251
1.15822
1.15688
1.15782
1.15803
1.15819
1.15859
1.15894
1.15842
1.15787
1.15807
1.158
1.15681
1.15575
1.15547
1.15565
1.15579
1.1555
1.1547
1.15827
1.15692
1.15791
1.1582
1.15848
1.15878
1.15902
1.15867
1.15821
1.15861
1.15885
1.15799
1.15756
1.15732
1.1565
1.15624
1.15592
1.15519
1.15817
1.15697
1.15797
1.15828
1.15865
1.15897
1.15925
1.15939
1.15917
1.15875
1.15873
1.15866
1.15837
1.15815
1.15771
1.15727
1.15694
1.15642
1.15836
1.15699
1.15815
1.1585
1.15891
1.15923
1.1595
1.15958
1.15968
1.15965
1.15953
1.15939
1.15934
1.15924
1.15917
1.15901
1.15883
1.15859
1.15831
1.15704
1.15814
1.15845
1.15886
1.15926
1.15974
1.16009
1.16046
1.16066
1.16089
1.16097
1.16113
1.16118
1.16126
1.16118
1.16112
1.16091
1.15835
1.15686
1.15799
1.15839
1.15884
1.15939
1.15996
1.16041
1.16076
1.16094
1.16106
1.16095
1.16083
1.16052
1.16017
1.15964
1.15922
1.15853
1.15999
1.15744
1.15773
1.15759
1.15753
1.15744
1.15724
1.15691
1.15645
1.1559
1.15527
1.15454
1.15378
1.15293
1.15205
1.15114
1.15021
1.14938
1.1193
1.15084
1.15536
1.15647
1.15667
1.15654
1.1553
1.15346
1.15123
1.14889
1.14685
1.14534
1.14371
1.14147
1.13947
1.13896
1.13933
1.13914
1.13857
1.13819
1.13782
1.13789
1.13792
1.1382
1.13792
1.13746
1.13652
1.13424
1.13214
1.12705
1.12362
1.12253
1.11807
1.11955
1.12518
1.12329
1.11926
1.11966
1.12304
1.12733
1.13189
1.13628
1.14049
1.14457
1.14835
1.15181
1.15472
1.15726
1.1596
1.16159
1.16229
1.16126
1.15944
1.15658
1.1528
1.15019
1.15016
1.15214
1.15479
1.15742
1.15993
1.16116
1.16036
1.15847
1.15786
1.15852
1.1592
1.16889
1.17034
1.17412
1.17492
1.16452
1.15611
1.17863
1.19504
1.19824
1.20491
1.2083
1.21083
1.21498
1.21709
1.21998
1.22265
1.22487
1.22738
1.22966
1.23196
1.23426
1.23646
1.23868
1.24096
1.2431
1.24515
1.24707
1.24919
1.25066
1.25254
1.25345
1.25445
1.25554
1.25595
1.25721
1.25899
1.25941
1.25759
1.25349
1.24839
1.24626
1.24942
1.25372
1.25258
1.24984
1.25336
1.26005
1.26805
1.28042
1.28517
1.28703
1.31047
1.33928
1.33913
1.31131
1.30212
1.3297
1.34728
1.33218
1.30288
1.28321
1.27594
1.27514
1.27653
1.28164
1.29133
1.30095
1.30584
1.29979
1.2987
1.31969
1.37938
1.34082
1.35505
1.35338
1.389
1.41031
1.42607
1.43959
1.44909
1.4707
1.49513
1.51678
1.53838
1.55826
1.57597
1.5867
1.5955
1.60587
1.60789
1.61722
1.61793
1.62405
1.62769
1.63683
1.64054
1.64089
1.63224
1.62793
1.61928
1.6158
1.60961
1.60755
1.58063
1.55245
1.53291
1.4977
1.48734
1.46921
1.42424
1.38423
1.35854
1.35739
1.11229
1.15269
1.17045
1.17533
1.17461
1.16904
1.16071
1.15139
1.14336
1.13612
1.13051
1.12752
1.12572
1.12173
1.11626
1.11494
1.11712
1.11805
1.11771
1.11885
1.12069
1.12296
1.12379
1.12641
1.13169
1.1347
1.13897
1.14267
1.1451
1.14973
1.15186
1.14922
1.14984
1.14844
1.13758
1.12992
1.12492
1.11774
1.12073
1.13429
1.14589
1.15213
1.15756
1.16451
1.17129
1.17674
1.18176
1.18506
1.18561
1.18843
1.19308
1.19295
1.19006
1.19153
1.19715
1.19906
1.19453
1.19046
1.19336
1.19956
1.20274
1.20639
1.21708
1.21111
1.19201
1.16326
1.15622
1.19407
1.17724
1.1886
1.20036
1.19995
1.21568
1.21881
1.22796
1.22674
1.2321
1.23264
1.23511
1.23678
1.23758
1.2402
1.23992
1.2426
1.24369
1.24493
1.24658
1.24786
1.2495
1.25128
1.25328
1.25525
1.25865
1.26013
1.26732
1.26719
1.27244
1.27352
1.27214
1.27453
1.27539
1.27618
1.27855
1.28475
1.28411
1.2757
1.26174
1.24885
1.25146
1.26764
1.27782
1.27744
1.28926
1.30324
1.30685
1.32374
1.33889
1.3399
1.37658
1.4415
1.47084
1.4371
1.42336
1.46373
1.50203
1.46115
1.39404
1.35246
1.33919
1.33398
1.32878
1.33357
1.36091
1.37266
1.34976
1.31879
1.32825
1.38472
1.45879
1.34133
1.42068
1.39257
1.43561
1.45863
1.46235
1.47663
1.49708
1.53369
1.58581
1.62495
1.65635
1.68494
1.71198
1.72974
1.74757
1.7562
1.76162
1.77225
1.77324
1.76306
1.76134
1.77101
1.77824
1.76667
1.74979
1.7746
1.78678
1.80878
1.82084
1.84426
1.82093
1.79724
1.78316
1.71724
1.72652
1.69852
1.60418
1.51782
1.48174
1.52199
1.10204
1.13179
1.15284
1.16391
1.15924
1.14243
1.12712
1.11516
1.10809
1.10334
1.09927
1.09739
1.09765
1.09653
1.09335
1.09264
1.09507
1.09534
1.09394
1.09903
1.10193
1.10064
1.10809
1.1103
1.11075
1.11583
1.11383
1.11468
1.11942
1.12452
1.12729
1.13413
1.14376
1.14617
1.15241
1.15258
1.14823
1.15183
1.14939
1.14001
1.13445
1.13475
1.14
1.14739
1.15284
1.1547
1.15912
1.166
1.1629
1.16173
1.17164
1.17573
1.17338
1.17794
1.18403
1.17703
1.1652
1.17224
1.19726
1.20813
1.19564
1.17497
1.16007
1.18718
1.21618
1.19062
1.18463
1.19415
1.19291
1.20743
1.20291
1.20842
1.20938
1.2075
1.21178
1.20674
1.21309
1.2093
1.21298
1.21183
1.21284
1.21426
1.21386
1.21586
1.21633
1.21749
1.21845
1.21915
1.22041
1.22161
1.22431
1.22526
1.22861
1.22512
1.23941
1.2339
1.24111
1.24689
1.24274
1.24747
1.24991
1.25129
1.24897
1.25527
1.25962
1.25903
1.26103
1.25231
1.24639
1.25457
1.26549
1.28005
1.29799
1.28458
1.30162
1.33904
1.32162
1.26751
1.29926
1.39901
1.45276
1.4443
1.45566
1.48889
1.46771
1.38201
1.35381
1.36527
1.36689
1.35905
1.35104
1.37225
1.39471
1.37142
1.35465
1.34425
1.33404
1.38575
1.39294
1.32789
1.46808
1.45052
1.42584
1.43738
1.42216
1.41753
1.48351
1.5338
1.58599
1.61237
1.62444
1.62979
1.6557
1.68769
1.71932
1.70703
1.75925
1.77027
1.80362
1.77725
1.7524
1.75439
1.76525
1.70149
1.63204
1.66742
1.7242
1.78388
1.8366
1.86618
1.86121
1.91695
1.93631
1.85899
1.84504
1.74754
1.63596
1.56569
1.58138
1.62535
1.0982
1.12302
1.13758
1.1353
1.12016
1.10507
1.09791
1.09636
1.09799
1.1009
1.10349
1.10416
1.10405
1.10261
1.10165
1.10497
1.10569
1.10246
1.10944
1.11913
1.12012
1.12498
1.13821
1.14172
1.14147
1.14303
1.13817
1.14246
1.13621
1.12174
1.12687
1.12673
1.12006
1.12866
1.13212
1.13476
1.14651
1.1447
1.14397
1.1535
1.15464
1.14632
1.14304
1.14745
1.15014
1.14742
1.14855
1.1597
1.16073
1.1573
1.16414
1.1599
1.15942
1.17787
1.18717
1.17744
1.16957
1.17233
1.17728
1.18166
1.19858
1.21748
1.21166
1.19996
1.18986
1.18531
1.1962
1.19766
1.19852
1.20034
1.19582
1.20003
1.19653
1.20021
1.19958
1.20044
1.20276
1.20047
1.20273
1.20025
1.2013
1.20162
1.20255
1.20363
1.20389
1.20437
1.20511
1.20553
1.20596
1.20505
1.21038
1.21273
1.21373
1.20645
1.22001
1.21655
1.21399
1.22288
1.22142
1.2281
1.22968
1.23438
1.23582
1.23577
1.24002
1.23912
1.25574
1.27158
1.27287
1.26291
1.26022
1.29491
1.30722
1.23257
1.23706
1.31722
1.32252
1.23435
1.20398
1.2901
1.39365
1.43699
1.45757
1.46232
1.40568
1.35419
1.35001
1.37351
1.38493
1.36935
1.36602
1.37486
1.34812
1.32298
1.33798
1.36462
1.37023
1.39083
1.3542
1.31496
1.35967
1.48372
1.40116
1.38679
1.38753
1.36115
1.46179
1.53448
1.55619
1.55459
1.56613
1.56065
1.55734
1.60116
1.67089
1.62578
1.6993
1.66337
1.69589
1.74528
1.74715
1.72472
1.77359
1.70383
1.57362
1.53303
1.58669
1.67885
1.77831
1.81444
1.77712
1.89733
1.98434
1.94817
1.8698
1.7072
1.62555
1.6175
1.6477
1.61601
1.09347
1.11091
1.11675
1.1087
1.09899
1.09535
1.09845
1.10426
1.10821
1.10801
1.10639
1.10295
1.10013
1.09676
1.09443
1.0925
1.09602
1.1021
1.10935
1.11626
1.12612
1.14323
1.15052
1.15971
1.16624
1.17035
1.17582
1.16323
1.16291
1.16297
1.1456
1.14078
1.13679
1.12802
1.12142
1.12118
1.12331
1.12544
1.13055
1.132
1.1332
1.14099
1.14894
1.15259
1.15269
1.15005
1.14977
1.15591
1.15428
1.14332
1.1471
1.14796
1.14396
1.15408
1.17066
1.18479
1.19796
1.21043
1.22117
1.22294
1.21086
1.19545
1.18534
1.18548
1.1893
1.19204
1.19425
1.1894
1.18777
1.18539
1.18638
1.18855
1.18833
1.19044
1.18887
1.18994
1.1886
1.18837
1.18827
1.18715
1.18804
1.18929
1.19156
1.19317
1.19347
1.19287
1.19388
1.19465
1.19509
1.19042
1.19532
1.19733
1.19504
1.19652
1.19412
1.2042
1.20086
1.20237
1.19901
1.20355
1.20921
1.20991
1.21466
1.21589
1.22334
1.2221
1.23757
1.25193
1.26162
1.26072
1.24775
1.28374
1.30175
1.2172
1.16567
1.23308
1.26968
1.20627
1.15012
1.21269
1.32607
1.39365
1.43151
1.4201
1.36219
1.32987
1.3571
1.39904
1.41697
1.38062
1.34928
1.32906
1.30847
1.32304
1.33646
1.34807
1.36151
1.42243
1.34716
1.30883
1.28748
1.38022
1.32794
1.33988
1.39304
1.36268
1.43434
1.51175
1.53225
1.51687
1.56574
1.61386
1.58374
1.55836
1.60984
1.53826
1.67666
1.65812
1.58724
1.6249
1.70833
1.6592
1.74595
1.74424
1.63307
1.53799
1.50645
1.56156
1.70262
1.7772
1.68427
1.79894
1.94874
1.98205
1.86515
1.69857
1.65085
1.65771
1.62879
1.61612
1.08952
1.10048
1.10204
1.09688
1.0948
1.09767
1.10267
1.10475
1.1027
1.09766
1.09229
1.08838
1.08867
1.08762
1.09117
1.09699
1.10099
1.10946
1.11867
1.12991
1.13881
1.14875
1.15809
1.16341
1.17222
1.17448
1.16874
1.17669
1.17986
1.1637
1.16181
1.1583
1.15095
1.15432
1.15188
1.15104
1.14659
1.14442
1.14949
1.14916
1.14743
1.14529
1.14037
1.14306
1.146
1.14752
1.15381
1.15259
1.1482
1.14358
1.13807
1.14462
1.1648
1.18568
1.19944
1.20671
1.21115
1.2109
1.20246
1.19134
1.18427
1.18447
1.18587
1.18609
1.18757
1.18594
1.18219
1.17939
1.17956
1.18066
1.18525
1.18823
1.19003
1.18979
1.18749
1.18526
1.18385
1.18607
1.18994
1.19485
1.20001
1.20392
1.20717
1.21016
1.21167
1.21037
1.21194
1.2122
1.21288
1.20766
1.21076
1.20184
1.1998
1.20037
1.19439
1.19199
1.1977
1.2008
1.19834
1.18945
1.19453
1.19608
1.19538
1.18915
1.20395
1.20739
1.21436
1.2279
1.23107
1.24187
1.23872
1.25135
1.28387
1.26912
1.2154
1.20522
1.22012
1.19647
1.15054
1.17561
1.26917
1.35855
1.41873
1.39718
1.33523
1.31756
1.37781
1.41144
1.40162
1.36646
1.34753
1.33804
1.32385
1.34581
1.32418
1.31559
1.32822
1.37008
1.26566
1.28883
1.31845
1.36031
1.31935
1.3403
1.38154
1.37461
1.42132
1.46978
1.49361
1.46122
1.49348
1.54663
1.5542
1.55337
1.61974
1.50922
1.58598
1.65345
1.5999
1.5764
1.66882
1.5896
1.65342
1.71299
1.67324
1.62679
1.54209
1.5012
1.63533
1.74664
1.61732
1.6896
1.86057
1.97308
1.86255
1.70221
1.66758
1.65054
1.59294
1.66893
1.08697
1.09336
1.09332
1.09305
1.09527
1.09936
1.10052
1.09846
1.09594
1.09434
1.09287
1.09041
1.09194
1.09588
1.10147
1.11324
1.12389
1.13077
1.13644
1.14203
1.14909
1.15422
1.161
1.16358
1.16348
1.16303
1.16679
1.17733
1.17167
1.16304
1.16263
1.15757
1.15738
1.15783
1.15507
1.14864
1.14409
1.14715
1.14291
1.14515
1.15136
1.14542
1.14898
1.15443
1.14886
1.14622
1.15223
1.14801
1.1325
1.13378
1.151
1.16944
1.18602
1.20205
1.21224
1.20889
1.19473
1.17968
1.17221
1.17361
1.17665
1.18068
1.1856
1.18319
1.17826
1.17476
1.17272
1.17386
1.17589
1.17877
1.18318
1.18608
1.18843
1.18752
1.18353
1.17974
1.18014
1.18735
1.19951
1.2131
1.22412
1.22842
1.22862
1.23097
1.2354
1.23468
1.23812
1.23853
1.23849
1.23753
1.2406
1.22793
1.23113
1.21064
1.21745
1.19912
1.20064
1.1992
1.20231
1.19984
1.1947
1.1988
1.20819
1.19558
1.1932
1.20145
1.19972
1.20879
1.20512
1.21592
1.2342
1.21699
1.22937
1.26417
1.2565
1.22441
1.23145
1.21458
1.1763
1.18899
1.26003
1.34658
1.40678
1.38219
1.31969
1.30176
1.37779
1.41612
1.36931
1.3802
1.38827
1.36846
1.26667
1.29951
1.30637
1.31556
1.30973
1.21706
1.23355
1.25246
1.32551
1.33877
1.3108
1.3381
1.34118
1.35359
1.41049
1.44155
1.47195
1.46032
1.45866
1.48242
1.5119
1.49669
1.56482
1.59161
1.57884
1.60197
1.61973
1.60731
1.67367
1.60547
1.59554
1.65221
1.66172
1.65856
1.6037
1.49933
1.60448
1.72851
1.56184
1.58715
1.76355
1.93954
1.84648
1.69865
1.6666
1.61769
1.57675
1.6736
1.08569
1.09023
1.09187
1.09502
1.0979
1.09923
1.09963
1.10084
1.09632
1.09099
1.08659
1.08334
1.08732
1.09693
1.10877
1.12125
1.13753
1.14819
1.15495
1.1565
1.15691
1.15841
1.15884
1.15937
1.1596
1.15802
1.15898
1.16185
1.16207
1.1596
1.15333
1.14684
1.13371
1.13358
1.14476
1.14297
1.14323
1.14088
1.14365
1.15555
1.14985
1.14859
1.15354
1.14584
1.14435
1.14767
1.14547
1.13283
1.12366
1.13622
1.15583
1.1694
1.18055
1.18995
1.1936
1.18891
1.17917
1.17066
1.16704
1.17092
1.1759
1.17402
1.17391
1.17522
1.17127
1.16697
1.16659
1.16738
1.16847
1.17186
1.17691
1.18228
1.18732
1.18802
1.18333
1.17711
1.17542
1.18358
1.19951
1.2165
1.22756
1.22812
1.21979
1.21531
1.21903
1.21872
1.22037
1.22286
1.22337
1.22902
1.23131
1.23551
1.23741
1.23104
1.2247
1.2168
1.2139
1.20648
1.19414
1.19791
1.19452
1.1895
1.20165
1.19951
1.19416
1.20725
1.20892
1.21527
1.19776
1.19828
1.23981
1.22347
1.21298
1.2497
1.26242
1.23755
1.23814
1.22186
1.17504
1.18638
1.25921
1.34512
1.3982
1.37076
1.30326
1.28317
1.35942
1.43117
1.34979
1.34962
1.32037
1.26606
1.14939
1.18536
1.28108
1.33346
1.33826
1.25453
1.27928
1.26498
1.28203
1.24226
1.28279
1.33881
1.35088
1.35347
1.4264
1.44641
1.46937
1.45743
1.40603
1.47682
1.55674
1.53777
1.55791
1.6341
1.61942
1.59636
1.61409
1.62024
1.68032
1.66037
1.58902
1.60781
1.63766
1.63314
1.59736
1.50556
1.59207
1.71657
1.52629
1.50244
1.68475
1.90857
1.82863
1.69151
1.65397
1.58276
1.56225
1.64113
1.08529
1.08961
1.09288
1.09709
1.09902
1.09987
1.1009
1.09836
1.08824
1.08408
1.08235
1.08386
1.08869
1.09878
1.1194
1.13895
1.15567
1.16881
1.17329
1.1721
1.16706
1.16233
1.15829
1.15413
1.15276
1.15312
1.15146
1.14729
1.14506
1.14487
1.14997
1.1576
1.15956
1.16536
1.16337
1.15853
1.14615
1.13331
1.13962
1.13375
1.13198
1.14611
1.14478
1.14209
1.14596
1.14122
1.13269
1.12695
1.13321
1.15076
1.16569
1.17813
1.18856
1.1913
1.18238
1.16561
1.15493
1.16019
1.17055
1.17533
1.17886
1.17755
1.17069
1.16603
1.163
1.16092
1.16128
1.1621
1.16273
1.16579
1.1714
1.17871
1.18716
1.19266
1.19276
1.18729
1.17981
1.18062
1.19352
1.21033
1.21917
1.21697
1.20587
1.20104
1.20615
1.21142
1.20861
1.2074
1.20341
1.20673
1.21144
1.2158
1.21412
1.22906
1.21429
1.22084
1.21512
1.22093
1.21401
1.20545
1.20587
1.19336
1.19794
1.20333
1.18511
1.19084
1.1887
1.21064
1.20978
1.18393
1.21913
1.21507
1.16829
1.17557
1.22759
1.23848
1.24711
1.2525
1.2013
1.17514
1.23852
1.32959
1.38737
1.36233
1.29422
1.27909
1.33884
1.44031
1.34909
1.24927
1.1759
1.16036
1.14374
1.19668
1.275
1.27965
1.31838
1.22527
1.23302
1.26611
1.28623
1.26394
1.3223
1.34598
1.36013
1.39272
1.42361
1.38696
1.43367
1.4618
1.43369
1.54226
1.54846
1.5319
1.58573
1.61024
1.61073
1.60615
1.60522
1.58803
1.6565
1.68119
1.60105
1.58707
1.60781
1.6093
1.56306
1.49294
1.58481
1.69753
1.50727
1.44589
1.61529
1.87145
1.81155
1.67922
1.63485
1.55683
1.54005
1.62044
1.08531
1.09012
1.09534
1.10003
1.10083
1.09966
1.09987
1.10054
1.09507
1.0913
1.08636
1.08392
1.08607
1.09665
1.1163
1.13861
1.15018
1.15232
1.14795
1.14125
1.13708
1.13657
1.13762
1.1364
1.13264
1.13214
1.1349
1.13603
1.1338
1.12884
1.12603
1.12611
1.12787
1.12908
1.12962
1.1346
1.13215
1.13252
1.13093
1.13155
1.14489
1.14458
1.13968
1.14291
1.13919
1.13075
1.12942
1.13348
1.14275
1.15257
1.15998
1.16976
1.18057
1.18768
1.18712
1.17518
1.15913
1.15708
1.16598
1.16687
1.16356
1.16597
1.1661
1.16149
1.15737
1.15661
1.15973
1.1624
1.16252
1.16271
1.16421
1.16862
1.1759
1.18318
1.18932
1.19162
1.18416
1.17066
1.16675
1.18307
1.19981
1.20135
1.18945
1.19387
1.20959
1.22933
1.22898
1.22502
1.21876
1.20951
1.21731
1.21213
1.21347
1.22128
1.20977
1.21285
1.20488
1.19183
1.20076
1.19408
1.19842
1.2026
1.1923
1.2128
1.20834
1.21156
1.19531
1.19302
1.20602
1.18818
1.21711
1.22214
1.18457
1.1543
1.17763
1.19176
1.21908
1.24946
1.21975
1.17225
1.20877
1.29832
1.36964
1.35242
1.29037
1.27472
1.31677
1.41012
1.35636
1.20703
1.14334
1.15746
1.1456
1.22946
1.28283
1.2416
1.29788
1.1943
1.31545
1.34054
1.33469
1.35389
1.4166
1.38445
1.40822
1.44882
1.49019
1.47777
1.55713
1.47094
1.48002
1.55169
1.47535
1.48585
1.56484
1.58236
1.59088
1.56746
1.54728
1.53424
1.62285
1.6733
1.60821
1.58465
1.58597
1.5913
1.53789
1.46942
1.57819
1.67255
1.4864
1.41323
1.56466
1.83475
1.79205
1.66328
1.61479
1.53182
1.51154
1.63313
1.08579
1.09171
1.09771
1.09887
1.09821
1.09796
1.1012
1.10408
1.09661
1.09148
1.09017
1.09027
1.09308
1.1022
1.11579
1.13085
1.13742
1.13266
1.12163
1.1096
1.10512
1.10976
1.11642
1.11982
1.11842
1.11556
1.11272
1.10871
1.10545
1.10889
1.11533
1.11727
1.11749
1.11914
1.12315
1.12826
1.13246
1.1374
1.13825
1.14185
1.13861
1.13505
1.13883
1.13803
1.12952
1.12569
1.12918
1.13501
1.14211
1.14692
1.1525
1.15996
1.16497
1.16675
1.16824
1.16446
1.15484
1.15386
1.16838
1.17927
1.17409
1.16538
1.16202
1.16005
1.15806
1.15883
1.16172
1.16372
1.16344
1.16194
1.16217
1.1657
1.17198
1.17698
1.18222
1.19236
1.20048
1.19562
1.1738
1.16472
1.17997
1.19528
1.18
1.17833
1.1973
1.23002
1.23667
1.23057
1.22645
1.22464
1.22089
1.22123
1.21209
1.2236
1.21254
1.21383
1.22879
1.20469
1.20434
1.20604
1.18346
1.19594
1.18685
1.17725
1.1797
1.18748
1.19753
1.19271
1.19474
1.17639
1.19817
1.20664
1.19203
1.1546
1.17128
1.17952
1.20182
1.23471
1.22096
1.17683
1.18204
1.26382
1.34985
1.34218
1.28829
1.26668
1.28828
1.3477
1.32632
1.19875
1.16146
1.15429
1.1359
1.18967
1.21813
1.23651
1.26075
1.27308
1.42507
1.46381
1.41784
1.44675
1.47439
1.42753
1.45497
1.484
1.52016
1.50775
1.5787
1.41091
1.42316
1.44473
1.40813
1.44679
1.49869
1.51822
1.54529
1.48992
1.45905
1.48699
1.605
1.65755
1.60843
1.58796
1.56503
1.57548
1.50291
1.43963
1.5666
1.6382
1.46781
1.39662
1.53577
1.80831
1.76955
1.64035
1.59203
1.50342
1.48204
1.64393
1.08632
1.09228
1.09601
1.09604
1.09834
1.10084
1.10307
1.10367
1.10439
1.11083
1.11218
1.10781
1.10559
1.11208
1.12386
1.13364
1.13824
1.1355
1.12575
1.11393
1.10637
1.10725
1.11132
1.11361
1.11429
1.11592
1.12038
1.12645
1.13155
1.13238
1.12624
1.12074
1.11887
1.11774
1.11927
1.12476
1.13052
1.13255
1.13067
1.1285
1.12625
1.1325
1.13367
1.12629
1.11862
1.12129
1.12762
1.13258
1.13676
1.14026
1.14756
1.15669
1.16397
1.16811
1.17125
1.16915
1.16031
1.15007
1.14954
1.15837
1.16377
1.16259
1.15911
1.15772
1.15837
1.15859
1.1588
1.15978
1.1601
1.16068
1.16236
1.16795
1.17455
1.17715
1.17731
1.18429
1.19699
1.2079
1.20201
1.1793
1.16408
1.17583
1.16775
1.1547
1.15749
1.18265
1.19719
1.19933
1.19994
1.20848
1.22189
1.21743
1.20911
1.20306
1.20513
1.18423
1.20095
1.20036
1.18746
1.20873
1.19922
1.19105
1.20695
1.20163
1.20686
1.20066
1.18893
1.1908
1.20532
1.17923
1.17567
1.20665
1.22335
1.1813
1.17858
1.16696
1.1818
1.22943
1.2258
1.18619
1.16573
1.23322
1.32866
1.33049
1.28381
1.25695
1.25889
1.29112
1.28434
1.20085
1.17282
1.16041
1.13119
1.18186
1.17351
1.24258
1.24193
1.25116
1.46003
1.45659
1.4754
1.52939
1.51773
1.45273
1.44002
1.4756
1.42657
1.38371
1.39844
1.42636
1.4588
1.42552
1.5055
1.46138
1.46002
1.48994
1.54074
1.46382
1.40344
1.45258
1.60703
1.63005
1.5896
1.58455
1.53985
1.55672
1.46099
1.39966
1.54636
1.59143
1.44931
1.39402
1.51753
1.78534
1.74736
1.61957
1.57382
1.47956
1.46118
1.61889
1.08679
1.09186
1.09405
1.09691
1.09985
1.10327
1.10784
1.11273
1.1151
1.10989
1.10229
1.0974
1.0988
1.10654
1.11825
1.13157
1.14246
1.14928
1.15176
1.14903
1.14143
1.13649
1.13649
1.13912
1.14155
1.14135
1.13912
1.13568
1.13164
1.13081
1.1317
1.13171
1.12887
1.1237
1.11869
1.11583
1.11728
1.12121
1.12613
1.13134
1.13544
1.13456
1.12686
1.11724
1.11057
1.11419
1.12117
1.12718
1.1292
1.13145
1.1372
1.14468
1.15143
1.15609
1.16211
1.16764
1.1702
1.16818
1.16456
1.16429
1.16593
1.16517
1.16207
1.15897
1.15632
1.15531
1.15614
1.15807
1.16009
1.16247
1.16651
1.1733
1.17619
1.17595
1.17508
1.18004
1.19266
1.20315
1.20232
1.18566
1.16371
1.16899
1.17239
1.16169
1.15285
1.15987
1.16908
1.17128
1.19839
1.20217
1.23076
1.22024
1.22875
1.20173
1.20546
1.20432
1.18467
1.19464
1.18189
1.17985
1.18703
1.18107
1.18993
1.17717
1.17042
1.20132
1.19854
1.17564
1.20374
1.20505
1.15475
1.17419
1.21815
1.19924
1.19042
1.17298
1.18358
1.21802
1.20943
1.17769
1.15089
1.20696
1.30811
1.32079
1.2791
1.24846
1.23116
1.24809
1.25823
1.21855
1.17377
1.1558
1.11699
1.16136
1.13985
1.22486
1.18825
1.22628
1.50448
1.45847
1.46791
1.51852
1.50843
1.41758
1.36735
1.44926
1.44449
1.40989
1.35248
1.50166
1.50623
1.39781
1.58746
1.50098
1.45741
1.54587
1.52067
1.4254
1.38573
1.43515
1.5747
1.56496
1.56047
1.57006
1.5099
1.53285
1.41509
1.35213
1.5161
1.54343
1.42326
1.39847
1.5146
1.76529
1.72738
1.6028
1.55357
1.45302
1.44284
1.56334
1.08757
1.09215
1.09506
1.09932
1.1015
1.10541
1.11036
1.10588
1.09937
1.10193
1.10374
1.09895
1.09816
1.09987
1.10798
1.11907
1.12853
1.13472
1.13856
1.14265
1.14398
1.14366
1.14291
1.14211
1.1394
1.13492
1.1304
1.12696
1.12538
1.1259
1.12813
1.13029
1.13144
1.1326
1.13298
1.12983
1.12612
1.12638
1.1294
1.13183
1.13293
1.12434
1.11309
1.1107
1.11388
1.11708
1.12008
1.12501
1.12619
1.12821
1.13217
1.13664
1.13999
1.14225
1.14463
1.14828
1.1524
1.15404
1.15558
1.15886
1.16307
1.16732
1.16953
1.16855
1.16727
1.16641
1.16682
1.16618
1.16765
1.17047
1.17364
1.17843
1.17532
1.17148
1.17657
1.18496
1.19084
1.19255
1.19684
1.18321
1.15648
1.1541
1.17299
1.17847
1.16979
1.15673
1.165
1.16623
1.19081
1.21028
1.22085
1.22446
1.21594
1.22111
1.19242
1.20537
1.1922
1.18572
1.18574
1.18557
1.18074
1.17316
1.18781
1.21203
1.1826
1.18575
1.21269
1.169
1.18008
1.22993
1.17827
1.1532
1.18875
1.20076
1.19068
1.17248
1.17239
1.19909
1.19766
1.17243
1.14659
1.18729
1.28476
1.30858
1.27561
1.24217
1.20511
1.20026
1.21911
1.22397
1.16245
1.14067
1.11697
1.1535
1.12417
1.21698
1.19179
1.15599
1.34174
1.42504
1.4437
1.4716
1.4604
1.36699
1.32287
1.53718
1.47791
1.3995
1.40921
1.50685
1.4269
1.40565
1.60222
1.55917
1.43989
1.61414
1.53108
1.47798
1.46207
1.46574
1.52849
1.5002
1.54217
1.5557
1.48138
1.50744
1.36754
1.30716
1.47822
1.49382
1.39664
1.39929
1.51425
1.75325
1.71417
1.59361
1.53488
1.42545
1.42185
1.50316
1.08889
1.09404
1.09799
1.10132
1.10225
1.10215
1.1016
1.10147
1.10163
1.11098
1.11647
1.10382
1.09415
1.08746
1.0898
1.09738
1.10851
1.11935
1.12658
1.13163
1.1347
1.13624
1.13626
1.13486
1.13162
1.12812
1.12302
1.11791
1.11569
1.11784
1.1238
1.12945
1.13159
1.13297
1.13755
1.14225
1.14196
1.13877
1.13488
1.12684
1.12094
1.1171
1.10753
1.10296
1.11028
1.11709
1.12064
1.12275
1.12352
1.12605
1.12848
1.13282
1.13804
1.14439
1.14878
1.15184
1.15408
1.15531
1.15611
1.15523
1.15535
1.15609
1.15717
1.15931
1.16135
1.16361
1.16413
1.16783
1.17069
1.17184
1.17607
1.17334
1.16821
1.1713
1.17938
1.1887
1.18872
1.16983
1.16664
1.17135
1.16135
1.15065
1.16298
1.17088
1.18085
1.16927
1.15005
1.15971
1.18403
1.20846
1.19683
1.20939
1.19305
1.19648
1.19447
1.19464
1.19016
1.19034
1.18621
1.17708
1.18562
1.18347
1.1607
1.1721
1.1768
1.16382
1.20646
1.18361
1.15984
1.2106
1.19632
1.16133
1.17671
1.19833
1.18185
1.17817
1.15874
1.18553
1.18889
1.16971
1.14687
1.18187
1.26604
1.29701
1.27761
1.24032
1.18656
1.14925
1.16655
1.20237
1.14063
1.12411
1.09423
1.12912
1.11939
1.19918
1.18927
1.1556
1.31826
1.44634
1.43841
1.43938
1.40548
1.32411
1.37919
1.61565
1.47467
1.41267
1.48264
1.52766
1.4712
1.55715
1.57699
1.49185
1.42424
1.65558
1.63214
1.58907
1.51245
1.46104
1.47053
1.45186
1.52595
1.53164
1.44324
1.47586
1.33262
1.26493
1.43752
1.45038
1.37228
1.3977
1.51294
1.73714
1.69568
1.58331
1.51571
1.40012
1.40164
1.45644
1.09091
1.09831
1.10275
1.10497
1.10584
1.1059
1.10511
1.10335
1.09618
1.10297
1.11855
1.12172
1.11946
1.10907
1.10085
1.09592
1.09662
1.10052
1.10687
1.11398
1.11927
1.12431
1.12918
1.13136
1.13037
1.12772
1.12202
1.11421
1.10767
1.10656
1.11293
1.12371
1.13091
1.13036
1.12746
1.12984
1.13487
1.13243
1.1272
1.11926
1.1085
1.10735
1.10929
1.10589
1.10653
1.11113
1.11828
1.12254
1.12459
1.12754
1.1304
1.13434
1.13738
1.14122
1.14519
1.14921
1.15291
1.15592
1.16035
1.16476
1.16621
1.16642
1.16635
1.16741
1.16841
1.16884
1.16991
1.16959
1.16996
1.16999
1.1703
1.16881
1.17004
1.17411
1.17903
1.18459
1.17514
1.15198
1.14484
1.15374
1.16051
1.14887
1.15881
1.17648
1.17353
1.16358
1.15595
1.16694
1.17681
1.21229
1.20207
1.19526
1.18879
1.17966
1.17158
1.17658
1.17502
1.16606
1.17987
1.17834
1.17827
1.18023
1.17946
1.17876
1.18642
1.16043
1.1873
1.19357
1.1673
1.19751
1.19161
1.16413
1.17891
1.20241
1.17016
1.17139
1.15086
1.1861
1.18387
1.16199
1.13787
1.16801
1.24446
1.28243
1.27954
1.24112
1.17453
1.11875
1.11995
1.17571
1.11808
1.1094
1.07915
1.1122
1.10537
1.16716
1.17701
1.17428
1.28473
1.41271
1.38213
1.36821
1.36324
1.32219
1.47782
1.55532
1.45209
1.44543
1.51887
1.58314
1.57431
1.54004
1.58825
1.50728
1.53212
1.65994
1.608
1.57571
1.50338
1.44864
1.42832
1.43006
1.51336
1.49685
1.39838
1.43853
1.33651
1.23639
1.39495
1.42045
1.35399
1.38089
1.51662
1.72619
1.67444
1.56935
1.49588
1.37896
1.38334
1.42377
1.09478
1.10555
1.1091
1.10937
1.10866
1.106
1.10378
1.1031
1.10854
1.12264
1.12893
1.12337
1.11754
1.11362
1.11129
1.10615
1.10183
1.09968
1.09944
1.09978
1.10238
1.10698
1.11145
1.117
1.12295
1.12725
1.12939
1.12768
1.12132
1.11153
1.10359
1.10465
1.11547
1.12399
1.1211
1.11384
1.11369
1.11656
1.11503
1.11251
1.10658
1.10119
1.1064
1.11135
1.11204
1.1109
1.11182
1.11474
1.11925
1.12311
1.12552
1.12783
1.12678
1.12651
1.12817
1.12965
1.13163
1.13441
1.13769
1.14132
1.14665
1.15124
1.15674
1.1597
1.16235
1.1622
1.16413
1.16282
1.16614
1.16678
1.16129
1.16111
1.16853
1.16876
1.16592
1.1683
1.15524
1.13681
1.14238
1.15346
1.16472
1.16063
1.15311
1.16338
1.16652
1.15333
1.13774
1.1746
1.19056
1.2001
1.20958
1.20459
1.20418
1.18733
1.1839
1.17694
1.18217
1.16947
1.16803
1.15997
1.16634
1.17184
1.16284
1.16671
1.17878
1.16701
1.17355
1.18859
1.15948
1.18572
1.20425
1.1683
1.16744
1.19223
1.17611
1.17078
1.14933
1.17287
1.17896
1.15641
1.13853
1.15709
1.22333
1.26844
1.27992
1.23848
1.16378
1.10598
1.09379
1.14174
1.09545
1.09478
1.06665
1.10401
1.08844
1.12424
1.19818
1.18207
1.2505
1.37623
1.32543
1.31165
1.40662
1.37269
1.50285
1.50132
1.43723
1.44987
1.49943
1.56896
1.55154
1.50101
1.579
1.65144
1.62317
1.65612
1.5609
1.58702
1.53893
1.49171
1.44597
1.43829
1.49845
1.45895
1.35376
1.39115
1.37535
1.23072
1.35764
1.40642
1.34527
1.35332
1.51214
1.70874
1.65018
1.55263
1.47573
1.36365
1.36286
1.3985
1.10152
1.11223
1.11022
1.11169
1.11138
1.11186
1.11304
1.11637
1.12275
1.12684
1.12326
1.11825
1.11856
1.11957
1.11869
1.11582
1.1147
1.11197
1.11023
1.10824
1.10556
1.10402
1.10248
1.10257
1.10389
1.10743
1.11331
1.12044
1.1271
1.13021
1.12637
1.11613
1.10757
1.10955
1.11671
1.1167
1.11013
1.10641
1.10553
1.10296
1.10365
1.10341
1.10363
1.10808
1.11378
1.11713
1.11628
1.11492
1.11818
1.12008
1.11814
1.11785
1.11701
1.11632
1.11719
1.11676
1.11681
1.11553
1.11501
1.11589
1.11687
1.121
1.1241
1.12794
1.13344
1.13847
1.14432
1.14634
1.14619
1.1462
1.15128
1.1518
1.16088
1.15955
1.14934
1.15077
1.1413
1.13151
1.14795
1.16128
1.15781
1.14977
1.14991
1.16377
1.15607
1.14419
1.15637
1.17462
1.19846