/*--------------------------------*- C++ -*----------------------------------*\
| =========                 |                                                 |
| \\      /  F ield         | OpenFOAM: The Open Source CFD Toolbox           |
|  \\    /   O peration     | Version:  dev                                   |
|   \\  /    A nd           | Web:      http://www.openfoam.org               |
|    \\/     M anipulation  |                                                 |
\*---------------------------------------------------------------------------*/
FoamFile
{
    version     2.0;
    format      ascii;
    class       volScalarField;
    object      T;
    location    "9.145";
}
// * * * * * * * * * * * * * * * * * * * * * * * * * * * * * * * * * * * * * //

dimensions      [0 0 0 1 0 0 0];

internalField   nonuniform List<scalar> 
12225
(
304.731
304.909
304.724
304.584
304.329
304.153
303.884
303.614
303.408
302.89
302.967
301.749
302.44
301.185
301.647
300.522
299.182
299.998
305.096
304.87
304.309
304.076
303.55
303.273
302.858
302.402
302.37
301.225
302.24
299.399
301.358
299.178
300.136
298.581
297.435
298.067
305.106
304.821
304.11
304.028
303.325
303.041
302.526
301.853
301.923
300.411
301.483
299.98
300.256
298.84
299.439
298.671
297.771
297.693
304.839
305.025
303.919
304.158
303.269
303.242
302.44
302.17
301.717
301.065
300.726
301.157
299.833
299.012
299.454
298.98
297.984
297.437
304.487
305.453
303.994
304.307
303.342
303.596
302.514
302.512
301.904
301.359
300.802
301.183
299.704
298.928
299.301
299.245
297.996
297.146
304.455
305.502
303.885
304.406
303.439
303.567
302.635
302.724
301.806
301.479
300.839
301.233
299.918
299.187
299.098
299.037
298.001
297.147
304.415
305.459
303.675
304.565
303.352
303.661
302.903
302.27
301.679
301.954
301.245
300.609
299.952
299.575
299.227
298.895
297.947
297.284
304.144
305.635
303.646
304.695
303.276
303.549
302.906
302.366
302.058
301.806
301.525
300.203
299.923
299.666
299.462
299.328
298.453
297.696
304.013
305.497
303.727
304.772
303.14
303.533
302.646
302.799
302.091
301.677
301.249
299.981
299.671
299.833
299.864
299.325
298.551
297.773
304.065
305.439
303.454
304.666
302.813
303.423
302.268
302.877
301.845
301.612
300.739
300.192
299.491
299.758
300.004
299.421
298.415
297.555
304.155
305.24
303.369
304.499
302.812
303.319
302.203
302.853
301.712
301.63
300.828
300.439
299.876
300.177
300.108
299.507
298.616
297.918
304.279
305.015
303.569
304.303
303.121
303.382
302.432
302.853
301.997
301.817
301.142
300.938
300.603
300.615
300.381
299.874
299.279
298.785
304.492
304.859
303.861
304.141
303.393
303.398
302.846
302.901
302.355
302.117
301.685
301.501
301.319
301.154
300.942
300.483
300.095
299.75
304.552
304.665
304.075
304.081
303.691
303.538
303.216
303.06
302.734
302.508
302.251
302.07
301.936
301.729
301.565
301.247
301.004
300.717
304.464
304.515
304.116
303.999
303.778
303.603
303.429
303.275
303.109
302.921
302.757
302.605
302.48
302.335
302.186
301.978
301.854
301.688
304.311
304.363
304.077
303.968
303.802
303.639
303.544
303.476
303.409
303.281
303.191
303.077
302.975
302.886
302.793
302.714
302.637
302.51
304.106
304.28
303.99
303.881
303.724
303.596
303.561
303.535
303.49
303.414
303.392
303.363
303.323
303.287
303.276
303.221
303.148
303.093
303.8
304.062
303.827
303.737
303.573
303.455
303.425
303.419
303.362
303.309
303.347
303.377
303.268
303.196
303.212
303.167
303.062
302.994
303.56
303.907
303.643
303.533
303.387
303.242
303.162
303.103
302.939
302.87
302.97
302.981
302.724
302.587
302.659
302.641
302.449
302.429
303.34
303.763
303.423
303.227
303.042
302.922
302.892
302.754
302.438
302.346
302.412
302.346
302.022
301.796
301.871
301.869
301.642
301.529
303.184
303.649
303.283
303.002
302.726
302.642
302.628
302.338
301.884
301.907
301.911
301.522
301.26
301.193
301.045
301.03
300.83
300.472
303.051
303.528
303.223
302.969
302.58
302.352
302.275
301.978
301.551
301.544
301.322
300.677
300.595
300.684
300.26
300.135
299.941
299.473
302.905
303.412
303.027
302.851
302.546
302.191
301.924
301.702
301.441
301.195
300.752
300.329
300.262
300.146
299.615
299.188
298.942
298.605
302.874
303.355
302.972
302.703
302.412
302.022
301.6
301.379
301.154
300.71
300.304
300.184
300.034
299.678
299.206
298.729
298.353
298.114
302.822
303.297
302.896
302.61
302.29
301.932
301.55
301.29
301.049
300.569
300.093
299.888
299.581
299.207
298.991
298.637
298.282
298.042
302.828
303.25
302.842
302.554
302.213
301.852
301.47
301.09
300.778
300.509
300.122
299.726
299.381
299.013
298.693
298.38
298.035
297.742
302.748
303.22
302.774
302.471
302.125
301.766
301.387
301.029
300.642
300.269
299.903
299.535
299.133
298.735
298.329
297.941
297.561
297.199
302.763
303.198
302.762
302.469
302.126
301.747
301.317
300.89
300.435
300.006
299.554
299.129
298.677
298.246
297.804
297.403
296.996
296.63
302.747
303.231
302.789
302.477
302.122
301.706
301.256
300.805
300.359
299.938
299.518
299.145
298.766
298.428
298.099
297.812
297.502
297.26
302.297
302.986
302.765
302.608
302.393
302.149
301.901
301.657
301.423
301.193
300.968
300.757
300.544
300.349
300.157
299.972
299.794
299.59
286.586
278.715
277.641
277.384
277.345
277.391
277.709
278.175
278.742
279.34
279.869
280.273
280.71
281.304
281.855
282.045
282.014
282.127
282.35
282.54
282.737
282.841
282.97
283.049
283.282
283.583
284.021
284.82
285.605
287.175
288.372
288.992
290.485
290.452
289.418
290.363
291.847
292.185
291.796
291.215
290.605
290.074
289.622
289.236
288.954
288.789
288.777
288.879
289.049
289.319
289.918
290.962
292.21
293.726
295.497
297.009
297.875
298.221
298.384
298.544
298.731
299.228
300.239
301.553
302.551
303.214
303.853
302.076
302.468
302.214
302.619
305.987
309.107
303.963
300.364
300.132
299.068
298.817
298.754
298.3
298.337
298.165
298.051
298.026
297.923
297.865
297.785
297.691
297.598
297.477
297.316
297.161
296.991
296.824
296.557
296.429
296.154
296.078
295.96
295.767
295.709
295.431
294.98
294.769
295.057
295.885
297.01
297.52
296.714
295.452
295.422
295.947
295.049
293.379
291.523
288.613
287.38
287.161
282.307
276.07
275.788
281.938
284.795
279.667
276.609
280.74
288.458
294.51
297.933
300.023
301.783
302.833
302.906
303.302
305.139
309.601
312.717
310.406
300.787
313.837
312.857
316.769
312.123
310.764
310.762
311.085
312.094
310.537
308.311
306.701
305.075
303.663
302.49
302.447
302.535
302.091
302.923
302.084
302.541
301.796
301.126
299.117
297.77
296.798
297.226
296.469
296.257
294.758
293.422
290.826
292.432
294.058
293.703
296.132
293.481
292.449
297.295
301.659
303.185
299.645
288.385
278.246
274.035
272.918
273.11
274.445
276.455
278.726
280.712
282.524
283.954
284.744
285.225
286.263
287.722
288.149
287.653
287.463
287.637
287.446
287.078
286.609
286.521
286.042
284.878
284.292
283.432
282.717
282.368
281.502
281.223
282.18
282.403
283.08
286.185
288.595
290.344
292.67
292.333
289.331
286.979
286.031
285.29
284.214
283.233
282.619
282.133
282.068
282.687
282.779
282.407
283.161
284.627
285.094
284.548
284.838
286.681
288.513
288.689
288.011
288.048
288.062
286.275
288.193
293.385
301.519
304.675
295.795
300.513
298.515
296.235
296.936
293.856
293.742
292.193
293.106
292.405
292.887
292.855
293.043
293.395
293.327
293.926
293.802
294.064
294.263
294.355
294.518
294.572
294.573
294.487
294.396
293.922
293.924
292.446
292.737
291.706
291.538
292.012
291.544
291.369
291.213
290.749
289.267
289.153
290.77
293.699
296.762
296.429
292.652
289.951
289.752
287.025
283.979
283.068
279.284
276.144
276.758
270.055
257.475
251.529
257.254
260.387
254.052
248.444
256.49
269.766
279.15
283.505
286.461
289.577
290.46
286.921
287.419
295.11
304.628
305.192
295.428
284.993
313.377
297.425
306.932
301.634
300.199
302.96
303.564
301.831
297.469
290.366
285.976
283.127
280.786
278.442
277.273
275.825
276.052
275.891
275.039
275.119
277.145
277.654
275.948
274.141
275.485
277.767
272.596
268.785
263.317
259.094
253.18
253.433
253.16
251.468
257.298
252.098
252.789
263.974
274.978
277.268
266.649
291.073
283.38
278.204
275.586
276.755
280.885
284.729
287.793
289.634
290.884
291.969
292.502
292.468
292.788
293.676
293.938
293.361
293.346
293.813
292.565
291.858
292.348
290.537
290.051
290.14
288.997
289.681
289.76
288.832
287.747
287.34
285.984
283.85
283.596
282.465
282.796
284.348
283.943
285.007
287.883
289.851
290.336
289.599
288.371
287.689
287.94
287.568
286.582
288.081
289.187
287.518
287.245
288.581
288.243
287.456
289.843
293.701
293.075
287.821
285.694
289.159
295.047
300.088
294.368
287.825
294.581
297.032
295.444
296.371
293.6
295.418
294.714
295.197
296.273
295.913
297.751
296.81
298.373
298.042
298.944
299.251
299.484
300.126
300.175
300.595
300.828
301.096
301.41
301.57
301.733
301.45
301.591
301.121
302.42
299.158
300.718
299.343
297.988
299.124
298.113
297.57
297.198
297.796
296.434
295.257
295.26
294.329
295.805
297.204
295.624
293.246
289.506
285.029
288.914
285.868
276.757
279.368
292.864
288.552
268.033
256.451
257.021
255.313
250.46
255.338
272.093
278.478
276.796
277.648
281.06
284.513
282.128
280.665
288.239
293.68
297.889
302.806
294.891
298.433
315.076
288.973
293.305
303.009
304.302
310.648
316.048
303.849
296.187
289.4
287.646
288.028
289.767
288.114
284.344
279.683
284.069
276.047
275.511
270.743
274.074
277.802
277.779
274.85
284.42
297.131
291.333
280.209
268.277
257.442
250.695
249.374
238.311
231.759
237.371
236.339
246.982
259.654
266.402
259.621
250.504
292.104
285.605
281.958
282.568
286.431
290.356
292.243
292.643
292.209
291.455
290.789
290.645
290.718
291.143
291.461
290.661
290.492
291.416
289.723
287.269
287.068
285.987
282.804
281.981
282.189
281.969
283.417
282.599
284.239
288.289
287.411
287.634
289.726
287.96
287.37
287.166
284.655
285.47
286.227
284.409
284.608
287.255
288.71
288.221
288.196
289.562
289.987
287.924
288.386
290.056
289.123
290.901
291.884
288.115
286.467
289.482
292.249
292.44
292.062
291.845
288.566
284.827
286.934
290.558
293.86
295.707
293.79
294.227
294.749
295.044
296.851
296.488
298.045
297.769
298.613
298.995
299.093
300.261
300.317
301.537
301.837
302.329
302.632
302.914
303.388
303.806
304.126
304.51
304.881
305.626
304.693
304.485
304.62
306.777
303.898
304.734
305.793
303.844
304.379
302.902
302.541
301.485
301.03
301.148
300.026
300.362
296.426
292.226
291.266
293.394
294.772
286.773
282.734
300.416
302.436
283.754
280.239
299.885
311.133
292.35
269.313
259.662
255.681
255.644
266.998
277.51
278.593
274.573
273.494
278.593
281.397
282.261
290.707
297.525
296.088
292.761
293.927
292.059
304.56
316.248
312.325
287.211
307.68
313.953
315.377
325.639
306.61
294.092
292.655
296.277
295.819
298.148
302.087
297.531
285.823
296.617
283.39
290.073
287.443
279.107
276.708
281.073
271.771
280.278
302.646
312.298
303.107
285.432
265.746
256.851
261.628
242.391
227.151
226.633
233.633
253.015
260.954
257.665
250.583
252.803
293.388
288.749
287.249
289.36
291.928
292.89
292.06
290.535
289.523
289.618
290.102
291.055
291.829
292.759
293.399
293.964
293.098
291.515
289.687
287.986
285.605
281.427
279.737
277.667
276.223
275.435
274.266
277.391
277.818
277.975
282.422
284.044
285.354
287.892
290.03
290.566
290.426
290.357
289.546
289.639
289.891
288.525
287.073
286.742
287.348
288.662
289.402
288.616
289.738
293.258
293.133
293.594
295.288
293.445
290.05
287.343
284.959
282.834
281.18
281.62
285.271
289.752
292.962
293.645
293.507
293.646
293.919
295.916
297.029
298.318
298.739
298.907
299.641
299.799
300.863
301.242
302.232
302.872
303.493
304.306
304.6
304.804
304.758
304.88
305.331
306.018
306.249
306.543
306.896
308.606
307.808
307.863
308.864
308.74
309.984
307.732
308.635
308.525
309.615
308.973
307.583
307.528
306.446
306.38
304.326
304.606
301.16
297.636
295.143
294.611
297.863
290.327
284.676
301.882
317.638
303.482
293.595
306.74
323.277
310.065
283.81
268.703
260.672
263.221
275.223
282.44
276.45
269.096
267.458
276.219
284.435
290.773
297.108
294.85
295.126
295.86
295.352
285.368
305.892
315.693
324.03
307.111
321.629
321.257
311.181
320.372
309.087
296.346
294.489
301.022
294.067
285.915
292.36
300.269
291.928
309.164
285.526
285.991
300.852
297.092
280.69
289.85
275.386
271.886
286.936
303.037
311.655
303.84
276.267
260.167
274.138
256.113
232.334
223.099
233.908
253.357
256.368
252.35
254.97
251.67
294.489
291.525
291.125
292.502
293.056
292.286
290.982
290.472
291.053
292.413
293.871
294.953
294.883
295.157
294.2
292.604
291.56
289.424
287.146
284.395
282.282
279.999
277.851
276.732
274.815
274.409
275.95
274.295
273.692
277.705
278.513
279.633
281.783
281.362
282.321
282.891
284.376
285.426
284.626
285.156
286.104
287.136
288.971
288.938
288.815
289.079
288.141
289.158
291.04
292.873
294.938
293.813
289.326
285.005
282.59
281.755
281.589
282.537
285.367
288.768
291.157
291.836
292.342
293.063
293.472
294.716
296.418
297.847
298.499
298.897
298.43
298.417
298.677
299.455
300.715
301.928
302.852
302.796
302.286
301.479
300.65
300.205
299.965
299.754
299.855
300.676
300.735
301.139
301.435
303.115
302.757
305.617
306.433
307.035
308.678
310.197
308.994
308.448
309.051
311.68
310.862
310.479
310.501
312.638
309.289
308.109
306.81
303.464
302.932
300.05
299.917
298.347
290.865
290.742
301.722
307.27
304.265
308.611
320.604
316.854
295.351
275.434
262.899
267.017
280.227
284.794
272.086
266.514
270.911
278.097
282.567
286.223
293.716
290.083
296.554
300.64
300.79
299.331
323.553
319.026
311.72
307.352
319.103
316.785
311.733
314.797
307.649
301.223
298.365
307.34
304.939
297.059
295.843
297.98
286.314
305.09
297.043
284.555
291.857
298.605
282.578
296.308
287.864
275.751
278.469
282.718
296.596
309.293
284.219
262.14
282.501
271.516
243.503
224.217
233.735
252.27
254.006
254.692
260.403
243.596
295.235
293.48
293.494
293.562
292.961
291.889
291.606
292.165
292.866
293.317
293.729
294.408
293.992
292.885
291.363
288.283
285.528
283.844
282.521
281.284
279.698
278.593
277.116
276.64
276.827
277.1
276.369
274.089
275.59
277.86
278.224
279.72
280.079
280.291
281.317
283.256
284.814
284.489
285.986
285.97
284.909
286.907
286.648
285.829
287.799
289.101
288.27
290.072
294.738
294.877
290.958
287.049
283.782
280.803
279.375
281.145
285.367
289.698
292.096
292.38
292.374
292.102
291.788
293.345
295.313
296.896
298.117
298.535
298.747
298.72
298.329
298.325
298.454
299.418
301.119
302.705
303.128
301.76
299.156
296.289
294.195
293.828
294.491
294.561
294.022
294.705
294.409
294.771
295.268
295.773
295.455
298.634
298.129
303.6
302.301
307.233
307.438
308.298
308.005
308.492
310.201
309.685
306.961
309.917
311.355
309.089
309.647
307.419
308.823
306.803
300.78
305.274
304.053
294.624
293.73
301.469
300.243
303.634
313.732
312.064
295.833
276.981
264.864
269.495
283.027
287.948
272.393
264.873
276.447
274.809
275.186
282.154
310.259
302.936
298.754
296.996
300.799
330.15
323.879
323.577
309.479
311.74
318.285
313.425
316.195
315.773
304.861
301.737
297.742
301.496
306.869
303.251
296.637
302.297
292.771
283.319
289.229
288.827
284.776
286.963
276.532
285.634
291.341
282.238
278.121
276.559
282.851
303.482
285.048
261.691
288.789
286.589
255.618
227.435
235.107
252.285
254.278
260.157
262.433
244.342
295.665
294.398
293.95
293.095
292.329
291.993
291.891
291.593
292.859
294.324
295.531
296.383
295.261
292.63
289.408
286.151
282.072
279.494
277.96
277.724
277.782
277.571
277.625
277.643
277.73
278.246
278.183
277.709
277.851
278.657
280.405
282.262
285.815
286.153
283.718
284.539
284.865
285.847
285.614
283.13
284.988
285.872
285.185
287.656
288.633
288.415
289.676
293.601
296.476
293.632
289.309
286.707
284.743
283.312
283.369
285.398
288.526
291.265
292.747
292.433
292.091
293.376
294.022
294.538
296.414
298.197
298.971
299.497
299.921
299.736
299.153
298.498
297.951
298.51
300.376
302.581
303.598
302.071
298.627
295.065
293.111
293.73
296.485
298.209
297.839
298.36
298.625
298.603
299.103
298.187
298.073
297.195
297.229
298.314
300.679
302.423
303.605
305.478
309.148
308.713
309.54
311.584
308.871
308.836
310.884
307.818
307.442
305.287
309.346
311.062
300.17
302.868
307.737
300.129
294.807
298.99
298.69
301.202
313.471
313.357
296.248
277.102
266.095
271.165
285.835
290.97
275.697
261.198
278.736
283.11
293.457
307.281
336.535
326.456
301.851
292.493
291.711
313.347
309.956
315.08
315.795
329.537
318.921
308.742
307.88
308.806
296.687
297.158
293.814
296.677
310.492
295.593
282.704
287.384
286.465
274.436
276.909
282.902
281.358
281.557
271.672
271.544
285.196
284.247
278.244
277.776
282.749
298.483
282.807
260.307
291.058
298.738
265.346
229.889
236.244
252.53
255.875
265.187
264.726
249.483
295.891
294.674
293.777
292.642
292.14
291.926
291.665
292.37
295.097
296.211
296.682
296.255
294.937
292.165
286.7
281.737
277.762
274.807
273.951
274.379
275.659
276.851
277.892
278.99
279.44
279.482
280.048
281.234
281.946
282.169
281.124
279.54
279.354
278.262
279.043
280.547
283.943
287.549
286.38
288.292
289.225
286.177
287.047
288.285
287.895
289.735
292.549
294.548
293.341
289.417
286.403
284.084
282.387
282.69
285.813
290.684
293.748
292.818
291.017
290.688
290.648
291.943
294.435
296.225
297.7
298.937
299.547
300.07
300.603
300.487
299.748
298.603
297.209
296.565
297.197
299.168
301.703
302.25
299.789
296.288
294.737
295.902
299.282
300.871
299.916
298.768
300.015
300.964
302.615
302.662
301.865
301.482
302.424
298.823
302.893
301.483
303.32
302.435
303.737
306.445
306.398
309.49
309.363
307.329
312.014
311.061
312.409
307.283
306.023
313.504
305.198
304.558
317.204
318.755
305.338
300.979
297.811
294.285
305.256
315.254
301.572
280.723
267.902
272.173
286.647
290.485
278.902
259.409
277.233
304.756
325.62
328.216
329.998
314.653
299.442
303.5
294.716
320.206
315.088
307.954
306.828
312.069
300.445
301.035
299.636
293.419
290.331
300.816
291.653
290.407
295.698
277.365
282.702
286.12
276.363
274.728
274.801
276.782
278.817
283.642
271.632
265.033
277.311
281.465
278.449
276.883
284.695
297.61
279.758
259.909
290.648
305.19
273.59
232.79
237.025
253.246
257.953
268.522
268.25
251.457
296.043
294.684
293.264
292.031
291.836
292.149
292.076
291.879
293.323
294.346
295.679
296.336
295.703
292.762
287.596
282.059
279.455
279.215
280.489
282.233
283.229
283.294
283.047
283.444
284.482
284.686
284.13
284.048
284.829
286.246
287.109
287.288
287.077
287.037
287.175
286.242
287.224
287.532
288.341
288.583
285.687
286.291
288.022
287.741
289.289
292.002
292.833
292.275
290.444
288.597
287.374
285.575
283.662
282.81
283.919
287.739
292.258
293.089
291.586
292.34
293.815
293.847
294.699
296.665
298.368
299.182
299.055
299.127
299.84
300.503
300.821
300.387
299.25
298.145
297.284
297.263
299.628
303.721
305.744
302.519
298.872
298.836
302.495
301.934
298.353
293.57
293.929
295.46
297.437
300.3
299.083
300.89
301.296
299.837
302.942
302.782
304.365
308.943
306.993
308.567
308.578
306.933
310.243
305.866
306.36
305.461
309.141
310.937
307.466
311.987
305.328
302.944
310.622
320.659
316.045
312.604
305.331
296.378
301.259
314.224
308.137
287.298
270.879
273.323
286.212
290.357
282.444
265.05
274.681
309.874
325.745
322.509
327.229
306.278
297.188
307.414
296.574
318.526
285.581
282.545
288.734
284.916
276.002
286.794
283.488
277.65
271.85
274.884
262.392
285.298
283.975
275.496
292.156
289.918
277.019
275.095
273.403
280.105
286.041
288.353
271.765
262.084
271.115
275.714
276.771
274.782
284.439
298.183
276.619
260.215
290.758
306.755
278.196
235.044
237.857
254.212
259.784
271.766
272.338
248.137
296.125
294.465
292.865
292.584
292.744
292.774
291.9
291.15
293.093
294.388
294.678
294.635
293.842
291.361
287.822
284.146
282.742
284.162
287.108
290.214
291.244
289.93
288.274
287.566
288.078
288.932
289.795
290.954
291.844
291.007
289.589
289.4
289.597
289.401
288.623
287.619
286.883
286.026
286.212
285.757
287.025
288.341
287.869
288.665
291.379
292.804
292.366
291.386
290.16
289.551
288.732
287.518
287.015
287.294
287.701
289.507
292.555
293.082
289.977
288.397
290.705
293.498
294.927
296.132
297.322
297.76
297.703
297.933
298.742
299.823
300.433
300.184
299.284
298.776
298.205
296.294
294.714
296.198
302.265
305.815
303.066
299.582
303.934
305.403
301.579
294.058
292.617
294.437
295.782
296.272
297.453
297.805
300.789
298.84
301.502
302.491
298.404
304.043
305.405
304.254
310.694
308.404
309.856
313.428
312.981
311.449
308.743
309.837
309.051
314.242
310.108
306.756
307.938
318.046
314.812
313.576
308.411
299.137
300.749
311.405
313.171
294.031
273.931
274.274
285.301
290.766
287.251
276.176
279.847
307.733
316.511
320.411
327.188
314.951
311.601
303.275
301.803
295.524
262.602
258.717
267.759
263.216
262.879
274.233
272.111
268.344
266.845
271.894
263.028
290.255
288.776
290.068
291.245
288.509
283.189
280.182
274.677
287.464
296.889
290.914
268.138
259.595
266.451
269.584
275.054
272.274
286.405
300.028
274.412
262.014
290.18
304.817
278.839
235.599
238.678
255.737
261.556
275.156
275.932
246.057
296.259
294.598
293.614
293.588
292.94
292.237
291.629
291.454
291.173
289.477
289.2
290.38
290.875
289.059
286.001
283.603
282.55
283.32
285.808
288.782
290.649
290.379
289.411
288.946
288.844
288.462
287.381
285.979
284.938
285.075
286.914
288.472
289.14
289.663
289.468
288.302
287.186
287.095
287.982
288.917
289.813
288.632
288.922
291.36
293.727
293.389
292.249
291.54
291.039
290.674
289.345
287.68
286.579
286.264
286.253
287.625
290.63
293.769
294.275
292.632
292.162
293.305
294.864
295.852
296.354
296.984
297.617
298.064
298.677
299.2
299.419
298.639
297.699
297.807
298.523
297.513
294.969
292.711
294.347
300.619
305.88
303.652
305.846
310.078
310.718
305.402
302.165
301.978
301.584
299.925
296.18
297.892
299.829
302.93
302.385
308.152
305.622
304.904
309.079
304.283
305.682
308.886
304.652
306.032
305.294
306.062
309.508
310.203
305.481
310.919
314.963
307.089
300.138
309.265
310.951
314.933
311.851
299.433
299.164
308.209
315.403
299.579
276.983
275.205
284.673
291.104
291.92
285.742
286.374
303.446
311.445
315.73
325.393
312.653
318.359
298.716
303.284
301.607
255.086
260.075
256.309
248.379
253.254
267.613
274.084
266.382
278.559
289.464
292.406
275.831
271.79
284.818
261.32
275.619
281.675
274.232
268.337
284.261
298.398
289.971
262.113
259.434
264.911
265.048
274.121
270.345
289.408
304.053
273.718
265.598
289.847
299.957
277.348
235.496
239.025
256.319
262.213
277.391
277.651
249.688
296.483
295.066
294.469
293.662
292.861
291.915
290.659
289.402
288.89
290.326
292.301
293.506
292.978
290.842
287.741
284.333
281.644
279.996
279.416
280.113
281.967
283.129
283.104
282.504
282.054
282.309
283.071
284.124
285.253
285.527
285.406
285.609
286.603
288.173
289.683
290.616
290.433
289.681
288.747
287.811
287.251
287.994
290.462
293.386
295.451
294.798
293.429
292.457
292.513
292.427
291.446
290.118
289.063
288.527
287.656
286.998
287.151
288.417
289.958
290.624
290.903
291.84
293.321
294.754
296.059
296.962
297.403
297.581
297.731
297.779
297.412
296.374
296.431
297.248
298.077
297.494
295.125
293.311
293.871
298.313
304.816
304.47
303.513
306.31
309.493
309.207
307.495
307.651
300.659
299.858
293.465
296.015
294.371
300.868
301.593
301.008
307.273
305.47
308.5
310.261
308.606
310.401
308.435
310.745
314.331
306.474
305.195
312.925
306.438
302.676
317.028
315.017
302.8
304.783
306.941
311.503
309.555
301.116
302.331
309.478
317.096
303.873
279.745
275.509
283.72
290.767
296.005
293.088
289.801
296.237
309.069
314.733
325.722
314.667
322.302
299.725
311.345
304.679
249.973
256.125
255.801
249.575
252.967
271.743
283.706
262.026
265.067
273.824
286.322
257.292
261.722
282.428
246.366
260.812
275.087
254.928
264.371
281.525
289.319
283.58
262.208
265.382
264.272
262.075
273.818
269.189
293.161
309.253
274.684
269.252
290.831
294.282
273.059
234.628
238.641
255.799
262.932
279.963
278.981
257.42
296.699
295.403
294.589
293.436
292.848
291.795
290.535
291.784
293.43
292.546
292.024
293.346
293.549
293.077
290.86
287.974
285.588
284.043
283.054
282.012
281.678
281.756
281.981
282.285
283.11
284.341
285.554
286.474
286.899
286.801
286.311
285.902
285.782
285.681
285.856
286.951
288.123
288.26
287.778
287.519
287.737
290.449
293.67
294.523
294.075
293.695
293.344
292.566
292.804
292.768
292.254
291.679
291.434
291.47
291.458
291.138
290.769
291.043
291.303
291.122
290.74
290.384
290.553
291.477
292.45
293.305
293.844
294.644
294.927
294.885
294.752
294.297
295.812
297.442
296.744
295.227
294.571
295.266
294.812
298.24
305.505
307.394
302.96
301.451
303.532
307.974
307.206
307.368
301.845
296.71
295.62
294.399
297.682
295.796
303.443
300.806
303.718
306.178
306.33
306.828
308.246
310.564
308.486
301.407
308.181
309.753
301.202
311.872
311.993
297.432
307.794
317.069
309.032
303.966
306.153
310.042
311.315
304.22
303.362
308.833
315.592
305.924
282.769
276.154
282.145
289.6
299.399
302.325
297.312
293.489
309.729
315.919
322.521
313.238
321.114
297.569
303.767
317.15
277.676
256.702
255.469
253.454
257.546
276.225
281.467
239.498
254.852
270.691
264.256
252.365
269.215
266.64
241.757
248.951
272.238
239.441
252.107
259.897
265.413
270.291
264.294
270.408
261.439
258.937
273.46
268.37
296.777
313.581
276.798
273.182
291.368
289.604
268.608
232.576
237.14
253.848
262.983
282.226
280.492
265.175
296.856
295.385
294.293
293.402
293.138
293.158
293.291
293.272
293.144
290.582
289.154
292.461
294.975
296.722
296.007
293.928
290.953
288.168
286.345
285.083
284.319
283.931
283.935
284.335
285.202
286.154
287.55
288.917
289.478
288.884
287.379
286.084
285.729
285.52
284.532
283.641
284.045
285.151
286.476
288.832
290.6
291.99
294.88
296.217
294.512
293.211
292.797
292.738
293.011
292.829
292.692
292.07
291.263
290.238
289.759
289.618
289.692
290.028
290.487
291.361
291.965
292.42
292.8
292.923
293.071
293.158
293.684
293.418
293.357
293.755
293.373
294.739
296.679
296.528
295.189
293.509
294.202
299.983
301.804
300.758
303.12
306.859
304.572
302.787
300.429
303.435
309.61
307.755
302.487
296.031
299.667
297.347
301.607
301.864
302.109
302.661
303.815
304.215
305.038
307.9
305.961
306.017
312.783
311.267
308.718
313.587
302.726
306.039
314.294
302.015
303.062
312.197
309.3
302.797
307.12
307.011
312.717
305.123
303.45
307.64
313.514
304.74
284.586
276.476
279.251
287.21
300.671
311.986
307.913
296.738
312.643
316.916
326.107
316.409
318.271
299.087
300.78
307.462
273.097
248.837
253.182
255.348
262.213
277.428
259.064
227.641
251.682
260.521
246.659
241.446
248.431
236.476
239.221
254.622
263.61
230.245
232.497
238.673
253.721
266.126
268.219
271.967
258.32
257.65
275.317
269.034
296.196
316.693
279.413
275.742
291.043
285.776
264.113
230.885
236.231
252
262.824
283.569
281.311
270.223
296.914
294.813
293.598
293.001
292.746
292.708
292.882
293.302
295.122
293.157
288.998
288.134
288.732
291.409
293.513
294.763
294.521
293.437
291.712
289.87
288.504
287.168
285.935
285.422
285.681
286.388
287.905
289.955
291.641
291.87
290.195
287.555
285.989
286.385
287.252
286.733
285.735
286.698
288.33
290.699
293.677
294.094
293.962
295.235
295.301
294.373
292.917
292.308
292.244
291.938
291.676
291.166
290.916
290.473
290.03
289.601
289.278
289.133
288.646
288.213
288.516
289.105
289.753
290.125
290.517
291.057
291.426
292.175
292.731
293.384
294.05
295.075
295.304
294.985
294.567
293.82
296.808
303.423
306.012
304.259
302.459
305.904
304.568
300.351
301.447
304.507
307.149
304.183
302.49
294.341
296.075
298.699
300.166
303.426
306.171
305.582
305.824
309.108
305.878
306.314
306.75
306.275
306.186
306.854
304.532
311.529
306.157
302.85
309.919
303.084
302.83
309.89
306.896
300.048
307.57
307.054
312.328
302.896
302.349
307.439
313.462
305.945
287.089
277.287
276.411
284.273
300.405
315.799
316.394
300.542
315.389
317.312
326.097
316.408
318.777
304.142
298.264
298.132
276.512
252.342
260.682
264.468
261.705
268.876
238.945
235.035
250.166
249.312
238.255
228.693
229.71
240.125
231.54
238.474
235.55
224.475
234.498
238.149
249.482
259.897
267.074
267.996
254.52
258.039
278.393
271.258
286.741
315.166
282.351
275.585
289.001
285.207
258.902
228.347
235.413
250.457
262.454
283.662
281.516
272.719
296.559
293.583
292.663
292.55
292.708
293.362
293.869
293.917
292.251
288.513
287.064
288.53
289.914
290.728
291.217
292.491
293.524
294.013
294.033
293.903
293.151
291.923
290.761
289.294
287.759
286.673
286.139
286.605
288.282
290.864
292.918
292.559
289.827
287.981
289.048
291.017
291.093
290.559
291.232
292.173
294.009
295.53
294.292
293.385
293.622
294.266
294.338
293.925
293.157
292.617
292.467
292.385
293.188
293.756
293.851
294.03
294.087
293.963
293.735
293.423
292.705
292.193
291.469
291.389
291.37
292.058
292.204
293.195
293.044
293.501
295.496
296.278
294.955
295.521
297.116
297.12
300.919
306.357
305.282
302.882
300.56
301.861
304.68
302.708
302.214
305.951
310.658
301.607
297.188
296.386
293.554
295.268
295.187
299.575
300.973
303.473
302.19
305.587
306.541
308.799
308.105
306.535
309.321
308.642
305.529
307.856
307.505
302.402
309.944
304.569
297.97
306.42
307.865
301.06
303.533
304.841
309.945
304.495
301.24
306.338
310.246
305.799
289.299
277.752
273.816
282.062
299.865
315.059
319.079
306.094
318.165
317.708
325.674
314.839
319.438
311.02
290.107
295.178
281.761
256.068
266.887
270.058
247.953
254.53
235.405
237.579
245.664
242.633
237.19
229.538
236.814
240.531
230.497
213.133
220.319
219.498
234.183
229.435
235.962
244.234
255.25
259.579
251.614
259.134
281.228
275.598
273.003
307.888
284.371
272.478
285.207
286.383
255.26
226.581
234.646
248.975
261.736
282.264
281.786
273.703
295.625
292.735
293.253
292.785
292.79
292.533
292.1
291.092
289.38
288.429
289.407
290.572
290.297
289.884
290.006
290.598
290.731
291.318
291.642
292.078
292.699
293.036
293.39
293.318
292.946
291.987
290.468
288.645
286.963
286.191
287.217
289.89
292.096
291.568
289.918
290.25
292.149
293.214
293.599
294.455
294.46
294.761
294.893
293.929
292.759
292.289
292.904
293.576
293.079
293.047
294.007
294.53
295.234
295.903
296.194
296.861
297.417
298.345
299.07
299.438
299.795
299.335
299.177
298.847
298.103
297.481
296.638
296.703
297.428
298.118
297.354
297.953
296.262
297.003
300.342
300.694
303.55
306.568
302.867
299.851
301.223
303.94
304.188
301.424
303.798
307.283
303.702
300.23
294.479
297.862