/*--------------------------------*- C++ -*----------------------------------*\
| =========                 |                                                 |
| \\      /  F ield         | OpenFOAM: The Open Source CFD Toolbox           |
|  \\    /   O peration     | Version:  dev                                   |
|   \\  /    A nd           | Web:      http://www.openfoam.org               |
|    \\/     M anipulation  |                                                 |
\*---------------------------------------------------------------------------*/
FoamFile
{
    version     2.0;
    format      ascii;
    class       volVectorField;
    object      U;
    location    "9.145";
}
// * * * * * * * * * * * * * * * * * * * * * * * * * * * * * * * * * * * * * //

dimensions      [0 1 -1 0 0 0 0];

internalField   nonuniform List<vector> 
12225
(
(7.05726 0.18617 0)
(4.25507 -0.00527736 0)
(2.38099 -0.175787 0)
(2.17755 -0.208663 0)
(1.51661 -0.198471 0)
(2.43425 -0.241378 0)
(1.68888 -0.195102 0)
(3.49697 -0.274901 0)
(2.19566 -0.21264 0)
(5.29132 -0.355822 0)
(3.36471 -0.102875 0)
(6.67214 -0.367046 0)
(6.12688 -0.266033 0)
(8.9983 -0.603662 0)
(11.667 -0.188427 0)
(11.329 -1.64992 0)
(28.6985 -4.68523 0)
(38.5864 0.185363 0)
(9.88432 0.507569 0)
(9.18333 0.390708 0)
(6.50728 -0.056243 0)
(6.4541 -0.337056 0)
(3.98464 -0.456021 0)
(5.8232 -0.537785 0)
(2.80046 -0.534918 0)
(6.48425 -0.58615 0)
(1.6548 -0.662278 0)
(8.895 -0.81653 0)
(1.77571 -0.588668 0)
(11.5049 -1.31288 0)
(6.03401 -0.528384 0)
(12.0183 -2.03872 0)
(11.6644 -0.8836 0)
(15.6362 -6.86483 0)
(25.44 -7.39039 0)
(26.4994 -2.13164 0)
(9.36122 -0.121827 0)
(11.4654 0.112314 0)
(8.57969 -0.197291 0)
(10.5556 -0.486937 0)
(6.45856 -0.612057 0)
(10.2328 -0.698059 0)
(4.97171 -0.917424 0)
(11.0047 -0.666038 0)
(3.44829 -1.34305 0)
(13.4065 -1.23046 0)
(4.02018 -1.1032 0)
(14.4163 -2.97622 0)
(8.79679 -0.603047 0)
(15.0796 -3.61905 0)
(15.0932 -1.18033 0)
(18.8644 -7.36215 0)
(20.7466 -7.97019 0)
(16.9789 -4.69455 0)
(7.64617 -0.709785 0)
(13.0709 -0.174231 0)
(7.9223 -0.653419 0)
(13.2732 -0.735645 0)
(7.39287 -1.01961 0)
(13.0749 -1.00707 0)
(7.61941 -1.26078 0)
(13.3432 -1.09979 0)
(8.16219 -1.59482 0)
(14.4948 -2.05447 0)
(8.75647 -1.00092 0)
(14.3526 -4.03263 0)
(10.9345 -1.05971 0)
(15.7273 -4.94947 0)
(14.4839 -2.37638 0)
(18.1937 -8.5454 0)
(17.605 -7.87832 0)
(16.6211 -2.38262 0)
(5.86613 -1.07076 0)
(14.7855 -0.942421 0)
(8.68796 -1.04934 0)
(13.491 -1.42371 0)
(9.73277 -1.01434 0)
(12.7122 -1.93224 0)
(10.3879 -1.31523 0)
(11.9238 -2.06049 0)
(11.4743 -1.6967 0)
(12.7082 -2.90438 0)
(11.5895 -1.04352 0)
(14.0613 -4.59801 0)
(11.7503 -1.15401 0)
(14.4145 -5.62056 0)
(12.9646 -3.20039 0)
(14.4296 -10.4732 0)
(14.4034 -7.5797 0)
(18.715 -4.76472 0)
(6.72202 -1.42411 0)
(12.5626 -2.12868 0)
(9.97896 -1.40974 0)
(10.1352 -2.15492 0)
(12.0248 -1.50733 0)
(10.5177 -2.36194 0)
(11.3003 -1.36219 0)
(10.8541 -2.99361 0)
(12.4005 -2.14278 0)
(10.1948 -3.51619 0)
(12.731 -1.55652 0)
(13.3829 -4.94464 0)
(12.3257 -2.12938 0)
(13.2845 -6.26727 0)
(13.5964 -3.43793 0)
(14.1754 -10.7681 0)
(14.1877 -8.34838 0)
(12.6313 -4.65984 0)
(8.36361 -1.51466 0)
(10.2382 -3.28653 0)
(9.54476 -1.37367 0)
(8.5372 -3.713 0)
(12.0021 -1.72482 0)
(8.70052 -3.24907 0)
(12.831 -1.73949 0)
(9.28731 -4.04363 0)
(11.9671 -1.28142 0)
(10.5202 -4.78924 0)
(13.5482 -2.4637 0)
(11.9649 -5.71104 0)
(13.5824 -1.45225 0)
(13.6993 -6.8802 0)
(14.067 -4.13627 0)
(14.1586 -10.2609 0)
(11.6903 -4.28229 0)
(7.34042 -5.81634 0)
(8.70389 -2.14929 0)
(11.2079 -3.57772 0)
(9.52506 -1.81298 0)
(10.1595 -4.23333 0)
(10.7976 -2.17577 0)
(9.46282 -4.03974 0)
(12.5225 -2.10145 0)
(8.71839 -4.08664 0)
(12.9507 -2.71825 0)
(10.7325 -5.37003 0)
(13.5452 -2.87049 0)
(11.6233 -5.79243 0)
(14.338 -3.36922 0)
(13.4233 -6.63436 0)
(13.5293 -5.13617 0)
(13.9195 -9.61181 0)
(11.3431 -5.01991 0)
(12.2494 -6.5654 0)
(8.28381 -2.37803 0)
(11.3531 -4.52888 0)
(9.59726 -2.19782 0)
(10.2372 -5.03047 0)
(10.6553 -2.40431 0)
(9.02322 -4.98867 0)
(11.6702 -1.99515 0)
(9.68757 -5.30502 0)
(12.8401 -2.83666 0)
(10.4883 -5.84937 0)
(12.627 -3.37708 0)
(11.6866 -6.44822 0)
(13.1465 -3.7787 0)
(12.561 -7.08272 0)
(13.24 -5.63996 0)
(13.5165 -9.40853 0)
(12.1427 -5.88489 0)
(14.0754 -6.94009 0)
(9.45883 -2.8635 0)
(10.0846 -4.94591 0)
(10.0581 -2.7338 0)
(9.37653 -5.37242 0)
(9.85451 -2.85238 0)
(9.45301 -5.12237 0)
(10.2343 -3.23461 0)
(10.6143 -5.05815 0)
(10.8716 -3.97944 0)
(11.1682 -5.59969 0)
(11.2371 -4.50891 0)
(11.1828 -6.26388 0)
(11.5441 -4.58625 0)
(12.4864 -7.05306 0)
(12.6373 -6.7648 0)
(12.7554 -8.35885 0)
(11.5835 -6.58679 0)
(13.1137 -7.08927 0)
(10.0253 -3.16775 0)
(9.93697 -5.7611 0)
(9.87884 -3.36936 0)
(10.0392 -5.76514 0)
(9.32275 -3.58554 0)
(10.0011 -5.89612 0)
(9.62635 -3.66318 0)
(10.2317 -6.30571 0)
(10.3162 -4.18564 0)
(10.537 -6.62482 0)
(10.8216 -4.66504 0)
(10.9741 -7.02416 0)
(11.2271 -5.62344 0)
(12.0754 -7.88908 0)
(12.0347 -6.93455 0)
(12.1341 -8.61794 0)
(11.5568 -7.72583 0)
(12.54 -8.01319 0)
(10.1926 -4.17143 0)
(10.1579 -5.82413 0)
(9.99535 -4.23653 0)
(9.82923 -5.95832 0)
(9.77514 -4.38766 0)
(9.74347 -6.02031 0)
(9.87221 -4.8544 0)
(10.1407 -6.125 0)
(10.1733 -5.42574 0)
(10.5832 -6.36981 0)
(10.6422 -5.85855 0)
(11.248 -6.93003 0)
(11.3995 -6.44545 0)
(11.6893 -8.0241 0)
(11.697 -7.62791 0)
(12.0084 -8.42569 0)
(11.7716 -8.13129 0)
(12.2524 -8.67479 0)
(10.2487 -4.80647 0)
(9.94612 -6.53665 0)
(10.0669 -5.16743 0)
(9.8646 -6.45967 0)
(9.84799 -5.37245 0)
(9.91066 -6.57969 0)
(9.91185 -5.60446 0)
(10.0067 -6.8674 0)
(10.0814 -6.1246 0)
(10.2336 -7.15478 0)
(10.4619 -6.7505 0)
(10.7211 -7.57539 0)
(10.9429 -7.46305 0)
(11.2305 -8.27408 0)
(11.2505 -8.29942 0)
(11.4548 -8.87843 0)
(11.5957 -8.97842 0)
(11.8918 -9.29452 0)
(10.2289 -5.71402 0)
(9.91651 -6.8559 0)
(9.80252 -6.0975 0)
(9.62964 -6.77172 0)
(9.54095 -6.23613 0)
(9.52053 -6.79669 0)
(9.59107 -6.52849 0)
(9.79201 -7.00972 0)
(9.90481 -6.95139 0)
(10.1359 -7.37196 0)
(10.2648 -7.45693 0)
(10.4561 -7.89854 0)
(10.6402 -8.09377 0)
(10.8228 -8.59276 0)
(10.9519 -8.84849 0)
(11.107 -9.17786 0)
(11.2359 -9.45 0)
(11.3657 -9.75365 0)
(10.4279 -6.1989 0)
(10.0657 -7.11276 0)
(9.76279 -6.83015 0)
(9.49918 -7.09237 0)
(9.28189 -6.98726 0)
(9.22515 -7.30396 0)
(9.25218 -7.35553 0)
(9.40062 -7.671 0)
(9.55929 -7.74212 0)
(9.768 -7.93229 0)
(9.96266 -8.09568 0)
(10.1427 -8.34111 0)
(10.2858 -8.62799 0)
(10.4368 -8.95542 0)
(10.5484 -9.25875 0)
(10.6508 -9.55995 0)
(10.713 -9.85195 0)
(10.7734 -10.1235 0)
(9.77852 -6.96053 0)
(9.5541 -7.47189 0)
(9.45969 -7.2587 0)
(9.33873 -7.39197 0)
(9.24466 -7.46867 0)
(9.22239 -7.66013 0)
(9.19648 -7.84606 0)
(9.22185 -8.05281 0)
(9.27916 -8.22848 0)
(9.40528 -8.38911 0)
(9.53693 -8.56625 0)
(9.69888 -8.76341 0)
(9.85263 -8.97621 0)
(9.97694 -9.20145 0)
(10.0604 -9.42323 0)
(10.1304 -9.66197 0)
(10.1795 -9.9019 0)
(10.1986 -10.1331 0)
(9.96384 -7.0977 0)
(9.4539 -7.6844 0)
(9.28355 -7.67247 0)
(9.14623 -7.74864 0)
(9.05254 -7.79853 0)
(9.01386 -7.90834 0)
(8.97802 -8.04419 0)
(8.99075 -8.20336 0)
(9.03076 -8.36624 0)
(9.1086 -8.50751 0)
(9.19236 -8.65421 0)
(9.286 -8.811 0)
(9.38105 -8.98578 0)
(9.47977 -9.1765 0)
(9.5665 -9.35296 0)
(9.65427 -9.56282 0)
(9.72554 -9.78505 0)
(9.73947 -9.98895 0)
(10.0264 -7.10289 0)
(9.62926 -7.64446 0)
(9.39871 -7.67313 0)
(9.14284 -7.71668 0)
(8.96102 -7.75781 0)
(8.87599 -7.85919 0)
(8.82886 -8.00861 0)
(8.83026 -8.16607 0)
(8.85132 -8.30502 0)
(8.91369 -8.40683 0)
(8.96435 -8.48803 0)
(9.03246 -8.60094 0)
(9.1095 -8.7386 0)
(9.21513 -8.87603 0)
(9.31167 -8.99682 0)
(9.3968 -9.14588 0)
(9.48503 -9.32071 0)
(9.54402 -9.46199 0)
(10.1246 -6.89659 0)
(9.72812 -7.21281 0)
(9.49775 -7.09232 0)
(9.27173 -7.1467 0)
(9.10865 -7.24992 0)
(9.01277 -7.39732 0)
(8.9155 -7.5329 0)
(8.82577 -7.66584 0)
(8.75371 -7.75629 0)
(8.73801 -7.82427 0)
(8.73909 -7.87367 0)
(8.769 -7.98687 0)
(8.80457 -8.14083 0)
(8.88392 -8.27467 0)
(8.97137 -8.39404 0)
(9.05383 -8.53432 0)
(9.12808 -8.7007 0)
(9.18814 -8.83527 0)
(9.93127 -6.30046 0)
(9.38515 -6.76799 0)
(9.18395 -6.68544 0)
(9.02653 -6.72424 0)
(8.89453 -6.77499 0)
(8.81396 -6.82901 0)
(8.73653 -6.86276 0)
(8.68815 -6.93513 0)
(8.67714 -7.01669 0)
(8.72049 -7.08326 0)
(8.80654 -7.12284 0)
(8.90829 -7.19892 0)
(8.99975 -7.33896 0)
(9.09985 -7.48486 0)
(9.18689 -7.56004 0)
(9.2582 -7.64779 0)
(9.31685 -7.78912 0)
(9.33074 -7.88286 0)
(10.2313 -5.59754 0)
(9.66984 -5.88793 0)
(9.43269 -5.88426 0)
(9.23395 -6.00576 0)
(9.026 -6.07096 0)
(8.8615 -6.11164 0)
(8.71812 -6.16477 0)
(8.6413 -6.24569 0)
(8.60979 -6.36497 0)
(8.62404 -6.46677 0)
(8.68376 -6.49857 0)
(8.78966 -6.50096 0)
(8.91027 -6.58687 0)
(9.00339 -6.69855 0)
(9.08374 -6.74937 0)
(9.19388 -6.80932 0)
(9.265 -6.89032 0)
(9.29722 -6.94106 0)
(9.83353 -5.00333 0)
(9.47186 -5.31202 0)
(9.38276 -5.32627 0)
(9.25731 -5.34235 0)
(9.08519 -5.31262 0)
(8.94663 -5.2764 0)
(8.84918 -5.31052 0)
(8.79935 -5.37273 0)
(8.79179 -5.48177 0)
(8.78114 -5.57283 0)
(8.76803 -5.65219 0)
(8.83237 -5.69288 0)
(8.92375 -5.72272 0)
(8.98365 -5.78144 0)
(9.05416 -5.84613 0)
(9.14404 -5.90158 0)
(9.22862 -5.9366 0)
(9.31137 -5.98775 0)
(10.244 -4.11469 0)
(9.72927 -4.53878 0)
(9.44161 -4.566 0)
(9.25214 -4.58202 0)
(9.13836 -4.57256 0)
(9.06449 -4.56409 0)
(9.02007 -4.60447 0)
(9.00601 -4.66235 0)
(8.97766 -4.72866 0)
(8.96236 -4.77039 0)
(8.97211 -4.82268 0)
(8.98212 -4.89087 0)
(8.98316 -4.92728 0)
(9.04099 -4.95404 0)
(9.10979 -5.00071 0)
(9.1518 -5.03288 0)
(9.26055 -5.08945 0)
(9.36739 -5.1299 0)
(9.84654 -3.44094 0)
(9.44159 -3.79761 0)
(9.28029 -3.91343 0)
(9.1672 -3.97888 0)
(9.07292 -3.95122 0)
(8.99564 -3.91056 0)
(8.94611 -3.88982 0)
(8.93299 -3.89587 0)
(8.93162 -3.91133 0)
(8.95296 -3.97745 0)
(8.99263 -3.9988 0)
(9.04749 -4.00612 0)
(9.10208 -4.04203 0)
(9.16606 -4.09072 0)
(9.25413 -4.11477 0)
(9.349 -4.17521 0)
(9.44633 -4.23682 0)
(9.55685 -4.26025 0)
(9.94961 -2.82659 0)
(9.63963 -3.20483 0)
(9.54467 -3.30558 0)
(9.43715 -3.31443 0)
(9.3197 -3.29702 0)
(9.24523 -3.26885 0)
(9.1911 -3.25257 0)
(9.17018 -3.26114 0)
(9.16207 -3.27631 0)
(9.18976 -3.27687 0)
(9.19486 -3.28681 0)
(9.20483 -3.32833 0)
(9.28947 -3.35161 0)
(9.37565 -3.38253 0)
(9.4596 -3.44028 0)
(9.58674 -3.47823 0)
(9.69923 -3.51885 0)
(9.78217 -3.55023 0)
(9.69058 -2.23591 0)
(9.55158 -2.69261 0)
(9.62181 -2.80434 0)
(9.56078 -2.79305 0)
(9.43523 -2.75632 0)
(9.32414 -2.71485 0)
(9.26501 -2.67163 0)
(9.25538 -2.63581 0)
(9.24484 -2.62153 0)
(9.24909 -2.61194 0)
(9.26086 -2.59843 0)
(9.289 -2.58995 0)
(9.33002 -2.64576 0)
(9.41351 -2.68913 0)
(9.50019 -2.71481 0)
(9.57339 -2.76331 0)
(9.64826 -2.79178 0)
(9.70683 -2.80646 0)
(10.0291 -1.76952 0)
(9.98759 -2.25418 0)
(10.0886 -2.28922 0)
(9.93972 -2.21804 0)
(9.66013 -2.1781 0)
(9.3775 -2.14801 0)
(9.14792 -2.12179 0)
(9.00718 -2.07267 0)
(8.8941 -2.03052 0)
(8.81425 -1.99917 0)
(8.74983 -1.99457 0)
(8.71711 -1.99955 0)
(8.69563 -2.03868 0)
(8.6883 -2.07458 0)
(8.67846 -2.0892 0)
(8.65642 -2.11829 0)
(8.6316 -2.13672 0)
(8.60991 -2.13511 0)
(9.92491 -1.45937 0)
(10.0921 -1.9274 0)
(10.1146 -1.84418 0)
(9.78545 -1.68183 0)
(9.2361 -1.59176 0)
(8.64722 -1.54445 0)
(8.11116 -1.50778 0)
(7.67526 -1.452 0)
(7.30883 -1.40615 0)
(7.03716 -1.36851 0)
(6.82295 -1.35204 0)
(6.65213 -1.34742 0)
(6.51206 -1.36217 0)
(6.37857 -1.37849 0)
(6.25164 -1.38382 0)
(6.11511 -1.40159 0)
(6.01469 -1.41421 0)
(5.92089 -1.40066 0)
(10.1023 -1.24714 0)
(9.54131 -1.61984 0)
(8.57373 -1.40065 0)
(7.43671 -1.13683 0)
(6.34907 -0.9603 0)
(5.44 -0.837632 0)
(4.68553 -0.767041 0)
(4.1183 -0.72574 0)
(3.70051 -0.709851 0)
(3.38277 -0.702004 0)
(3.15688 -0.700297 0)
(2.98159 -0.708279 0)
(2.83583 -0.720981 0)
(2.70617 -0.733414 0)
(2.5981 -0.743921 0)
(2.51112 -0.752869 0)
(2.42854 -0.774738 0)
(2.38467 -0.772141 0)
(8.48929 -0.650506 0)
(5.55191 -0.573253 0)
(3.43448 -0.318051 0)
(2.09489 -0.197656 0)
(1.32714 -0.159974 0)
(0.890266 -0.152986 0)
(0.610555 -0.165894 0)
(0.444634 -0.181252 0)
(0.339906 -0.196623 0)
(0.274376 -0.195815 0)
(0.252131 -0.198019 0)
(0.250506 -0.202555 0)
(0.266628 -0.206978 0)
(0.285035 -0.211829 0)
(0.308738 -0.215059 0)
(0.333022 -0.222254 0)
(0.337559 -0.241244 0)
(0.327985 -0.244629 0)
(-0.107611 0.139887 0)
(-0.412707 0.169999 0)
(-0.751984 0.181668 0)
(-1.05464 0.154818 0)
(-1.30153 0.109236 0)
(-1.48546 0.0377075 0)
(-1.58308 -0.0543384 1.09916e-17)
(-1.58153 -0.157733 -1.09284e-17)
(-1.46034 -0.258646 0)
(-1.25075 -0.353949 -1.08122e-17)
(-0.961738 -0.414292 0)
(-0.626301 -0.429268 0)
(-0.264333 -0.439909 0)
(0.102717 -0.494635 1.05693e-17)
(0.507987 -0.547745 0)
(0.968777 -0.504281 0)
(1.42525 -0.397468 -1.03607e-17)
(1.77819 -0.334836 0)
(2.05871 -0.331663 0)
(2.34877 -0.300414 0)
(2.62422 -0.220255 1.00802e-17)
(2.82377 -0.130956 0)
(2.93612 -0.0454385 9.93768e-18)
(2.97103 0.0649801 0)
(2.90446 0.176247 0)
(2.71982 0.282366 9.73694e-18)
(2.41954 0.409006 0)
(1.98525 0.503769 -9.6355e-18)
(1.43397 0.576804 0)
(0.772405 0.634761 9.57513e-18)
(0.0292477 0.620778 0)
(-0.720386 0.544537 0)
(-1.47915 0.311929 0)
(-2.12752 0.0384323 0)
(-2.64406 0.0995175 0)
(-3.27407 0.408279 -9.27873e-18)
(-3.9346 0.487045 0)
(-4.40649 0.286037 1.84149e-17)
(-4.71431 0.0408525 0)
(-4.96646 -0.106695 -1.80921e-17)
(-5.2228 -0.144982 0)
(-5.41971 -0.115663 0)
(-5.48779 -0.0723139 1.76086e-17)
(-5.45348 -0.0621236 0)
(-5.32881 -0.105754 1.73168e-17)
(-5.06108 -0.192966 -1.71816e-17)
(-4.64598 -0.277134 0)
(-4.11767 -0.365754 -1.6939e-17)
(-3.4874 -0.451142 -1.68255e-17)
(-2.72062 -0.504943 0)
(-1.84528 -0.483284 0)
(-1.00566 -0.391188 0)
(-0.261875 -0.251161 0)
(0.390773 -0.0954341 0)
(0.869237 -0.0159052 1.6449e-17)
(1.136 -0.0497476 0)
(1.2881 -0.129456 -1.63419e-17)
(1.38732 -0.198944 0)
(1.42219 -0.22423 0)
(1.3819 -0.189226 1.60313e-17)
(1.31641 -0.0817011 0)
(1.30372 0.0853159 -1.58456e-17)
(1.34612 0.186049 0)
(1.3771 0.126793 0)
(1.42213 -0.0824819 0)
(1.39177 -0.244122 1.56223e-17)
(1.32482 -0.232384 0)
(1.72962 -0.38929 0)
(2.68938 -1.04443 1.52717e-17)
(3.62405 -2.41481 0)
(3.93549 -2.95576 1.50722e-17)
(4.01885 -1.40725 0)
(2.38422 0.900975 0)
(-0.242118 1.48658 0)
(-1.59012 0.804387 -1.45413e-17)
(-2.58229 0.477115 0)
(-3.33075 0.177633 0)
(-3.72354 -0.0224661 -1.41856e-17)
(-4.0339 -0.156597 -1.40911e-17)
(-4.14244 -0.299464 0)
(-4.13465 -0.39938 -1.38911e-17)
(-4.00683 -0.51316 0)
(-3.76279 -0.600482 -2.74031e-17)
(-3.42787 -0.692167 0)
(-3.01231 -0.775335 -2.70446e-17)
(-2.53872 -0.853027 0)
(-1.98441 -0.92328 2.66895e-17)
(-1.37721 -1.00705 0)
(-0.709154 -1.05522 0)
(0.010063 -1.10425 0)
(0.746656 -1.16594 -2.59758e-17)
(1.55225 -1.22974 0)
(2.35536 -1.25323 2.56178e-17)
(3.22842 -1.31117 0)
(4.0753 -1.33789 -2.52561e-17)
(4.83352 -1.37441 -2.50845e-17)
(5.67194 -1.42125 -2.49026e-17)
(6.39409 -1.40389 0)
(7.10314 -1.46803 0)
(7.9209 -1.54548 0)
(8.63586 -1.55422 0)
(9.33955 -1.60323 0)
(10.0442 -1.67274 0)
(10.6855 -1.67385 0)
(11.1267 -1.6776 0)
(11.486 -1.74779 2.35268e-17)
(11.7774 -1.8423 2.34735e-17)
(12.2288 -1.96404 0)
(12.8383 -1.9896 0)
(13.2292 -1.93856 0)
(13.3528 -1.88126 2.27871e-17)
(13.088 -1.90128 0)
(12.439 -1.98322 0)
(11.9819 -2.18216 0)
(11.6461 -2.34314 0)
(11.0349 -2.402 -2.16114e-17)
(10.563 -2.52739 0)
(10.4711 -2.71805 0)
(10.3615 -2.79688 2.0759e-17)
(9.84178 -2.6849 -2.01914e-17)
(9.11879 -2.5462 0)
(8.10005 -2.43489 -2.03952e-17)
(6.52559 -2.44023 0)
(5.03225 -2.62218 1.99692e-17)
(4.15676 -2.84141 0)
(3.64821 -3.0003 0)
(3.20193 -2.98106 0)
(2.38831 -2.52514 0)
(0.713944 -2.13757 0)
(-1.49248 -2.23316 -4.10097e-17)
(-3.24062 -2.57221 -4.09437e-17)
(-4.3259 -2.71814 0)
(-4.92792 -2.72438 0)
(-5.54791 -2.61557 0)
(-6.25433 -2.51127 4.01364e-17)
(-7.00517 -2.23435 0)
(-9.04198 -1.75326 0)
(-12.2969 -1.35656 0)
(-11.717 -3.03567 3.8417e-17)
(-6.93653 -5.8397 -3.97209e-17)
(1.47828 -3.42515 0)
(0.379575 -1.65968 0)
(-2.09336 -2.17886 -3.87122e-17)
(-0.162992 -2.38079 -3.82653e-17)
(1.09142 -2.64087 0)
(3.54579 -2.62387 0)
(4.70936 -2.27442 3.76071e-17)
(4.53489 -2.31115 -3.71832e-17)
(4.27201 -2.42439 0)
(4.32061 -2.57196 0)
(4.69395 -2.55534 -3.58861e-17)
(5.01748 -2.56188 0)
(5.62312 -2.69134 0)
(6.75959 -2.66098 -3.49584e-17)
(6.80324 -2.42417 0)
(7.19101 -2.69033 -3.45314e-17)
(7.19269 -2.49882 0)
(6.72907 -2.43145 0)
(5.97905 -2.37017 0)
(5.57946 -2.36121 3.37771e-17)
(4.64399 -2.21543 0)
(4.03236 -2.37106 0)
(3.57567 -2.40536 0)
(3.63751 -2.52587 0)
(4.49548 -2.68303 0)
(5.9313 -2.79703 0)
(7.46285 -2.80884 3.1866e-17)
(8.58551 -2.66097 3.15519e-17)
(8.59253 -2.463 0)
(7.97481 -2.58026 0)
(8.74899 -2.93436 0)
(8.38018 -2.66965 -3.0946e-17)
(6.49126 -2.50718 0)
(4.06501 -2.56101 6.17263e-17)
(1.12535 -2.59827 -6.08574e-17)
(-0.15524 -2.88023 -6.03337e-17)
(-1.14646 -2.85359 6.09683e-17)
(-2.70925 -2.72849 -6.14774e-17)
(-5.07564 -2.53583 6.1394e-17)
(-7.38222 -2.45497 0)
(-0.0792361 0.246342 0)
(-0.249865 0.455976 0)
(-0.461929 0.422607 -2.23441e-17)
(-0.702948 0.24001 0)
(-0.941618 0.0479395 2.1946e-17)
(-1.09512 -0.176663 2.18893e-17)
(-1.09504 -0.460961 1.0944e-17)
(-0.982932 -0.789605 1.09481e-17)
(-0.757654 -1.0884 0)
(-0.464282 -1.34516 1.09355e-17)
(-0.101085 -1.54423 0)
(0.267395 -1.64401 0)
(0.674785 -1.60515 -2.16085e-17)
(1.11167 -1.64196 -1.07643e-17)
(1.48795 -1.84312 2.14855e-17)
(1.84206 -1.92585 2.13614e-17)
(2.31683 -1.72694 1.05841e-17)
(2.70284 -1.45179 0)
(3.01406 -1.36103 0)
(3.41972 -1.36902 0)
(3.76229 -1.21772 1.0263e-17)
(3.96801 -0.981079 0)
(4.18617 -0.797455 -3.02839e-17)
(4.41167 -0.557209 0)
(4.53344 -0.241636 0)
(4.57774 0.0118586 -9.79825e-18)
(4.5325 0.310258 0)
(4.39101 0.656993 9.60082e-18)
(4.14885 0.937949 1.90352e-17)
(3.80584 1.18529 -9.41852e-18)
(3.35673 1.3437 0)
(2.80489 1.46669 0)
(2.18423 1.49558 0)
(1.43671 1.41255 1.83951e-17)
(0.442639 1.36559 1.84609e-17)
(-0.545144 1.31561 9.24206e-18)
(-1.20167 0.993664 0)
(-1.79589 0.473558 -1.84821e-17)
(-2.50582 0.321297 0)
(-3.01692 0.527647 1.80212e-17)
(-3.27352 0.549818 0)
(-3.41531 0.223569 0)
(-3.54109 -0.19388 -1.73974e-17)
(-3.6355 -0.513343 0)
(-3.62091 -0.830179 -5.10869e-17)
(-3.38488 -1.16363 1.68755e-17)
(-2.94078 -1.39828 0)
(-2.31839 -1.5801 1.66043e-17)
(-1.59472 -1.86832 1.65221e-17)
(-0.782579 -2.17599 0)
(0.186111 -2.2179 0)
(1.11666 -2.03171 0)
(1.84543 -1.93369 0)
(2.53557 -1.7711 0)
(3.24049 -1.28981 -1.59267e-17)
(3.77414 -0.74372 -3.16333e-17)
(4.04423 -0.401126 1.58117e-17)
(4.17172 -0.193151 0)
(4.35179 0.0551155 -3.13684e-17)
(4.60867 0.181825 1.55269e-17)
(4.83675 -0.027594 0)
(4.97036 -0.450988 1.5332e-17)
(5.04411 -0.69997 0)
(5.03679 -0.64353 0)
(4.80011 -0.399607 3.05628e-17)
(4.52426 -0.141273 -1.56035e-17)
(4.53382 -0.676137 3.12796e-17)
(4.10272 -2.4454 -3.01414e-17)
(2.21934 -1.95374 -1.52039e-17)
(-1.36295 0.935967 0)
(-4.92502 2.19315 -1.47777e-17)
(-6.66882 2.2579 0)
(-7.58187 2.21853 0)
(-8.0323 1.39977 0)
(-8.14178 0.621416 -1.41876e-17)
(-8.29834 0.0185894 0)
(-8.32711 -0.544426 -2.80636e-17)
(-8.24309 -0.922061 4.19054e-17)
(-8.0937 -1.3329 1.38853e-17)
(-7.80659 -1.65806 0)
(-7.44886 -1.96508 1.37323e-17)
(-6.97246 -2.2456 0)
(-6.45502 -2.48789 2.71587e-17)
(-5.83692 -2.70768 0)
(-5.19074 -2.91876 2.68181e-17)
(-4.48564 -3.11704 -5.328e-17)
(-3.72293 -3.29793 -2.64941e-17)
(-2.90216 -3.48562 0)
(-2.02876 -3.63283 0)
(-1.14109 -3.78291 0)
(-0.239101 -3.91459 2.58172e-17)
(0.714058 -4.05097 0)
(1.62652 -4.11048 -2.54315e-17)
(2.63114 -4.26535 0)
(3.53778 -4.25089 7.4887e-17)
(4.39805 -4.36915 2.48373e-17)
(5.36874 -4.42218 2.459e-17)
(6.11367 -4.44322 0)
(7.0043 -4.7105 0)
(7.92096 -4.81954 0)
(8.6608 -4.85994 0)
(9.45549 -5.03721 0)
(10.1836 -5.17245 4.71443e-17)
(10.924 -5.19967 4.66119e-17)
(11.5429 -5.22108 0)
(12.0645 -5.42776 -2.31701e-17)
(12.405 -5.74049 -2.32684e-17)
(12.7246 -6.25284 0)
(13.2264 -6.52077 -4.6337e-17)
(13.605 -6.43466 0)
(14.0411 -6.27847 2.23644e-17)
(14.2722 -6.04382 0)
(13.5681 -6.02127 0)
(13.0958 -6.60351 -4.30617e-17)
(13.2596 -6.7893 0)
(12.729 -6.75696 2.09531e-17)
(11.8049 -7.23842 0)
(11.5708 -7.89685 0)
(11.6024 -7.95212 1.97989e-17)
(10.8613 -7.69088 1.88375e-17)
(9.77339 -7.65007 0)
(8.65199 -7.62184 -1.85799e-17)
(7.42385 -7.4616 0)
(6.62359 -7.87765 1.81082e-17)
(6.12941 -8.43148 3.52368e-17)
(5.30024 -8.69779 0)
(4.48855 -8.52169 0)
(3.64747 -7.6822 0)
(2.06123 -6.98371 0)
(0.0398637 -6.71782 3.93128e-17)
(-2.12836 -7.072 1.18102e-16)
(-4.1031 -7.41381 0)
(-5.58592 -7.46513 0)
(-6.66867 -7.15671 0)
(-7.23499 -6.96822 -3.9004e-17)
(-8.01832 -6.19872 0)
(-9.51803 -5.57431 0)
(-11.0166 -6.20136 7.62787e-17)
(-7.92922 -10.0725 3.62567e-17)
(-5.03082 -15.7282 3.99922e-17)
(-0.377339 -10.0602 0)
(-0.588136 -4.73702 0)
(-2.51379 -7.50425 3.77296e-17)
(1.21386 -8.44585 -3.68902e-17)
(2.17005 -8.90455 0)
(5.8838 -8.99311 0)
(8.64877 -7.20743 -3.67468e-17)
(8.68936 -6.62435 1.07525e-16)
(7.87254 -6.62848 0)
(7.59655 -7.19073 0)
(7.71881 -7.25772 3.3626e-17)
(7.78167 -7.31956 0)
(8.5893 -7.92168 6.48869e-17)
(10.1845 -8.06836 -3.18886e-17)
(9.78269 -7.3238 0)
(10.5182 -8.01939 3.18204e-17)
(10.2208 -7.15671 6.28184e-17)
(9.89659 -6.97873 0)
(8.82437 -7.04455 0)
(8.73746 -7.22747 -3.1239e-17)
(7.32392 -6.72013 0)
(7.0256 -7.14511 6.10784e-17)
(6.38046 -7.20492 0)
(6.41256 -7.6098 0)
(7.17152 -7.97032 0)
(8.80283 -8.15771 0)
(10.336 -8.14015 -2.90423e-17)
(11.0536 -7.7384 -2.83168e-17)
(10.3885 -7.24138 0)
(9.08327 -7.58867 0)
(9.53956 -8.47195 0)
(8.5679 -7.62129 2.67976e-17)
(6.76378 -7.22034 0)
(3.95106 -7.33601 -5.40413e-17)
(1.07411 -7.76039 5.26895e-17)
(0.468735 -8.75338 5.25456e-17)
(-0.187647 -8.4298 5.43411e-17)
(-1.88035 -7.84304 5.64782e-17)
(-4.83433 -7.27404 5.64985e-17)
(-6.68606 -6.79744 0)
(-0.0756682 0.0786402 0)
(-0.217988 0.242119 0)
(-0.353701 0.376021 2.26722e-17)
(-0.56013 0.395646 2.23056e-17)
(-0.727702 0.171335 -2.22266e-17)
(-0.723635 -0.373276 -2.23864e-17)
(-0.509554 -0.978332 6.2313e-21)
(-0.264105 -1.58069 0)
(0.0945359 -2.06202 0)
(0.405346 -2.40277 0)
(0.759264 -2.59931 0)
(1.05184 -2.80819 0)
(1.3557 -2.85077 6.64931e-17)
(1.75056 -2.75033 0)
(2.11209 -2.79074 -2.19364e-17)
(2.31715 -2.89392 -2.17986e-17)
(2.66891 -2.71254 0)
(2.95292 -2.43727 0)
(3.20431 -2.41789 0)
(3.69089 -2.41682 0)
(3.88072 -1.95992 -2.08788e-17)
(3.96587 -1.59238 0)
(4.29321 -1.58751 2.04858e-17)
(4.53759 -1.20117 0)
(4.67344 -0.791656 0)
(4.80981 -0.399732 0)
(4.89047 0.195396 3.96874e-17)
(4.94604 0.539603 0)
(4.95867 0.928778 -1.94973e-17)
(4.79475 1.44874 3.85648e-17)
(4.58753 1.75452 0)
(4.25934 1.91439 0)
(3.8147 2.17273 0)
(3.36492 2.23061 -1.84568e-17)
(2.81766 2.24212 -1.82483e-17)
(2.31602 2.3811 0)
(1.86377 2.17046 0)
(1.14452 1.85637 3.58846e-17)
(0.166069 1.56457 3.57587e-17)
(-0.709927 0.894287 -3.58606e-17)
(-1.37499 0.140309 0)
(-1.89429 -0.237695 0)
(-2.18499 -0.149275 0)
(-2.25278 -0.121546 0)
(-2.20943 -0.65521 3.46235e-17)
(-2.06799 -1.45776 3.43944e-17)
(-1.75952 -2.08091 -3.41064e-17)
(-1.19698 -2.43174 0)
(-0.462132 -2.83084 0)
(0.318416 -3.37666 0)
(1.30243 -3.51542 0)
(2.25504 -2.97569 3.28567e-17)
(2.79165 -2.45029 0)
(3.15923 -2.19676 0)
(3.56254 -1.84172 3.21845e-17)
(3.89992 -1.36299 3.22496e-17)
(4.21861 -0.988914 0)
(4.6644 -0.981114 -6.42119e-17)
(5.1743 -1.20394 3.13319e-17)
(5.54175 -1.26384 -3.08827e-17)
(5.50507 -0.940883 0)
(5.13753 -0.400719 0)
(4.41848 0.0109873 0)
(3.60276 0.206477 0)
(2.96257 -0.18023 -3.00061e-17)
(1.76257 -0.610725 -6.08836e-17)
(-0.773223 0.702151 -3.04864e-17)
(-4.74583 2.84723 3.01028e-17)
(-7.72494 3.77153 0)
(-9.2782 3.7067 -5.89886e-17)
(-10.2037 2.72157 -5.89899e-17)
(-10.2253 2.05825 -5.84937e-17)
(-10.0481 1.49821 5.82241e-17)
(-9.56717 0.652684 0)
(-9.16552 -0.0580439 8.65032e-17)
(-8.75142 -0.851823 0)
(-8.39737 -1.45239 -2.85045e-17)
(-8.05484 -2.02076 -2.85367e-17)
(-7.72024 -2.55139 0)
(-7.29439 -3.04441 0)
(-6.83741 -3.49141 -5.60505e-17)
(-6.2855 -3.91687 0)
(-5.69086 -4.29532 -5.54714e-17)
(-5.04143 -4.63795 0)
(-4.34995 -4.95088 5.48221e-17)
(-3.60524 -5.25528 1.0907e-16)
(-2.82159 -5.55192 0)
(-1.98493 -5.85023 0)
(-1.07627 -6.10951 0)
(-0.154412 -6.31088 5.32219e-17)
(0.807604 -6.54598 0)
(1.76125 -6.74951 5.24965e-17)
(2.65111 -6.82423 0)
(3.65108 -7.13174 0)
(4.53937 -7.0397 -1.02162e-16)
(5.35868 -7.24883 0)
(6.31692 -7.32465 -5.04077e-17)
(7.00296 -7.37212 0)
(8.03443 -7.83013 -4.97287e-17)
(8.74365 -7.93275 0)
(9.59741 -8.01557 0)
(10.2667 -8.27995 0)
(10.9513 -8.57472 -1.44863e-16)
(11.61 -8.71934 -4.77982e-17)
(12.4089 -8.75248 0)
(13.1065 -8.8327 0)
(13.5113 -9.03218 0)
(13.5621 -9.75945 0)
(13.4549 -10.3306 4.65309e-17)
(13.4088 -10.5146 -9.18124e-17)
(13.6604 -10.6126 -4.53072e-17)
(13.8174 -10.003 8.87922e-17)
(13.0751 -9.63758 8.69455e-17)
(12.6319 -11.0597 4.38257e-17)
(12.9694 -11.6154 0)
(12.8356 -10.9473 8.27703e-17)
(11.935 -11.4805 0)
(11.9052 -13.2416 -8.65251e-17)
(12.9273 -13.1388 -4.23059e-17)
(12.8248 -12.1267 0)
(11.2399 -11.7747 7.42569e-17)
(9.21643 -12.0542 3.71746e-17)
(7.92374 -12.6089 0)
(7.36418 -13.3711 3.55432e-17)
(6.28695 -13.529 -1.08348e-16)
(4.9324 -13.7578 0)
(3.91161 -13.7579 0)
(2.76606 -12.2858 0)
(0.964563 -11.0108 0)
(-1.41477 -10.6547 -7.67629e-17)
(-3.45615 -10.946 -7.75162e-17)
(-5.34817 -11.0713 0)
(-7.24043 -11.25 0)
(-7.83255 -11.707 0)
(-7.08775 -11.9123 0)
(-6.31795 -10.6445 0)
(-6.70924 -10.0196 0)
(-7.02124 -10.9591 -7.64932e-17)
(-5.29931 -16.5833 -5.8577e-19)
(-1.18425 -20.5014 0)
(-5.31278 -13.8372 0)
(-0.492307 -8.47045 -7.33919e-17)
(-1.24255 -12.7381 0)
(2.16595 -13.7567 7.57244e-17)
(1.41122 -14.5308 7.61384e-17)
(4.21442 -15.8193 0)
(8.03093 -12.5109 0)
(8.9168 -10.7659 -7.1867e-17)
(7.79893 -10.3958 -1.38143e-16)
(7.55732 -11.5694 0)
(8.18297 -11.711 0)
(8.19023 -11.976 0)
(9.11528 -13.2297 -6.77259e-17)
(11.7944 -13.0493 6.64158e-17)
(11.2262 -11.4674 0)
(12.6081 -13.1417 1.29622e-16)
(12.5358 -11.6988 6.19311e-17)
(12.1578 -11.2973 -1.24336e-16)
(10.6913 -11.4891 0)
(11.218 -11.7306 0)
(9.59518 -10.7632 -1.23371e-16)
(9.48247 -11.7342 -6.19503e-17)
(8.80123 -11.6252 0)
(8.14392 -12.2106 0)
(8.02326 -13.1689 0)
(10.1088 -13.5673 0)
(13.1542 -13.3083 -1.19806e-16)
(14.9411 -12.2102 0)
(14.2957 -11.1812 0)
(12.0977 -11.8546 0)
(12.0781 -13.4456 0)
(10.7702 -12.2253 0)
(8.98437 -11.6055 0)
(5.37859 -11.7169 -9.92996e-17)
(2.53796 -12.8026 0)
(1.34107 -14.3803 0)
(-0.13997 -13.6392 -2.14146e-16)
(-2.76667 -12.4461 1.09243e-16)
(-5.4197 -12.0374 -1.06175e-16)
(-5.95855 -11.4835 1.01455e-16)
(-0.0736119 0.0655314 0)
(-0.319802 0.217991 -4.68666e-17)
(-0.528944 0.338127 0)
(-0.660422 0.204048 -2.28528e-17)
(-0.540168 -0.434881 0)
(-0.300067 -1.41055 0)
(0.115103 -2.25437 2.31306e-17)
(0.424119 -2.89254 0)
(0.77426 -3.27937 0)
(0.92322 -3.56048 0)
(1.12479 -3.64582 0)
(1.2934 -3.70022 0)
(1.48842 -3.80067 -8.81636e-17)
(1.63839 -3.82275 -4.38349e-17)
(1.92727 -3.74611 4.3566e-17)
(2.11409 -3.80676 0)
(2.3528 -3.56924 0)
(2.67676 -3.29067 0)
(2.89168 -3.48832 0)
(3.17605 -3.15274 0)
(3.23857 -2.51916 -4.10937e-17)
(3.38487 -2.54644 -4.06431e-17)
(3.76008 -2.36829 3.99007e-17)
(3.78743 -1.80563 -3.95011e-17)
(3.95404 -1.47323 0)
(4.23519 -0.986787 0)
(4.34478 -0.51088 -3.88461e-17)
(4.59496 -0.115945 0)
(4.68365 0.67229 0)
(4.66919 1.22075 -3.86649e-17)
(4.71103 1.48645 -3.82617e-17)
(4.58582 2.07326 -3.80161e-17)
(4.36484 2.40538 0)
(4.2112 2.39492 0)
(3.83622 2.59044 3.71583e-17)
(3.39619 2.57092 0)
(3.14905 2.55365 0)
(2.60734 2.62426 -3.61221e-17)
(2.08913 2.2837 3.59289e-17)
(1.72238 2.26737 -3.54374e-17)
(1.02869 2.16344 0)
(0.0833181 1.09737 0)
(-0.821432 0.0577165 -7.04345e-17)
(-1.30233 -0.625658 0)
(-1.40828 -1.45618 -6.93345e-17)
(-1.44009 -2.27756 -1.03782e-16)
(-1.2909 -3.02492 1.03206e-16)
(-0.762108 -3.8069 -6.78075e-17)
(-0.13018 -4.56198 0)
(0.371287 -5.13509 0)
(0.984273 -5.12106 -6.66033e-17)
(1.50725 -4.52894 -3.32976e-17)
(1.61125 -3.7309 0)
(1.74594 -3.07678 0)
(1.94721 -2.61326 -3.20947e-17)
(2.01662 -2.23539 -6.43214e-17)
(1.97619 -1.85978 0)
(1.97302 -1.36669 6.41262e-17)
(1.83832 -0.843138 -6.34987e-17)
(1.40332 -0.412587 6.29967e-17)
(0.901021 -0.0777388 0)
(0.489078 0.258406 0)
(-0.206197 0.557774 0)
(-1.5349 1.02209 0)
(-3.71382 2.09306 0)
(-6.69086 3.86071 6.11461e-17)
(-9.30955 5.20367 0)
(-11.2146 5.1397 0)
(-11.8983 4.17617 0)
(-11.845 3.22146 1.18857e-16)
(-11.3965 2.06926 5.94814e-17)
(-10.7277 1.12517 5.90402e-17)
(-10.1028 0.0871944 -1.17846e-16)
(-9.39827 -0.745521 5.84429e-17)
(-8.89579 -1.44734 -5.83176e-17)
(-8.45411 -2.14648 0)
(-8.14568 -2.72664 5.76394e-17)
(-7.8498 -3.32858 0)
(-7.56022 -3.90992 0)
(-7.18705 -4.52974 0)
(-6.74625 -5.11803 1.1317e-16)
(-6.20656 -5.66345 -5.62494e-17)
(-5.61864 -6.17384 -5.58331e-17)
(-4.9574 -6.61805 -1.11219e-16)
(-4.23975 -7.03655 -1.66071e-16)
(-3.46703 -7.44774 -5.5128e-17)
(-2.65259 -7.85121 0)
(-1.7944 -8.28397 -1.08847e-16)
(-0.779131 -8.62768 0)
(0.0648954 -8.90237 -1.61779e-16)
(1.13436 -9.20322 0)
(2.16242 -9.42321 -1.59041e-16)
(3.09489 -9.51267 0)
(4.14363 -9.91854 0)
(5.0779 -9.75879 -5.17299e-17)
(6.07001 -9.97343 0)
(6.94961 -10.2018 5.1568e-17)
(7.60091 -10.2724 1.01616e-16)
(8.615 -10.7789 5.06589e-17)
(9.35803 -10.9212 9.99823e-17)
(10.2234 -11.0981 -9.92292e-17)
(10.8305 -11.3097 -9.82476e-17)
(11.4557 -11.702 1.95165e-16)
(12.1013 -12.1312 0)
(12.7449 -12.3676 0)
(13.4173 -12.5775 9.54197e-17)
(13.9721 -12.4634 -9.35612e-17)
(14.2601 -12.7574 0)
(13.9831 -13.3932 0)
(13.6241 -14.0446 9.12351e-17)
(13.4709 -14.4699 0)
(13.1838 -13.6537 -2.07242e-19)
(12.5609 -13.2756 -2.10961e-19)
(12.49 -15.4221 9.09646e-17)
(12.6501 -16.2247 0)
(12.2492 -14.9026 -8.47168e-17)
(11.3519 -15.643 0)
(10.9944 -18.9753 8.88205e-17)
(12.3819 -19.6728 0)
(13.5933 -17.1504 0)
(12.7139 -15.3466 -7.79085e-17)
(10.6968 -15.9073 -7.45619e-17)
(8.99314 -17.1973 0)
(7.42002 -17.883 -7.28705e-17)
(5.58383 -18.1287 1.50751e-16)
(4.11139 -18.6735 0)
(3.14642 -18.3649 0)
(1.56943 -16.4404 0)
(-0.194641 -14.8331 0)
(-2.6959 -14.3546 7.63687e-17)
(-5.25234 -14.6355 -1.52054e-16)
(-7.4402 -14.6056 0)
(-8.40027 -15.6523 0)
(-7.15442 -17.1967 0)
(-6.38374 -17.6841 0)
(-5.26709 -15.8475 0)
(-2.2716 -14.4974 0)
(-2.73972 -15.5338 0)
(-1.22911 -22.5655 7.67684e-17)
(0.422899 -24.5356 0)