/*--------------------------------*- C++ -*----------------------------------*\
| =========                 |                                                 |
| \\      /  F ield         | OpenFOAM: The Open Source CFD Toolbox           |
|  \\    /   O peration     | Version:  dev                                   |
|   \\  /    A nd           | Web:      http://www.openfoam.org               |
|    \\/     M anipulation  |                                                 |
\*---------------------------------------------------------------------------*/
FoamFile
{
    version     2.0;
    format      ascii;
    class       volVectorField;
    object      U_0;
    location    "9.145";
}
// * * * * * * * * * * * * * * * * * * * * * * * * * * * * * * * * * * * * * //

dimensions      [0 1 -1 0 0 0 0];

internalField   nonuniform List<vector> 
12225
(
(6.95481 0.172394 0)
(3.89604 -0.00786002 0)
(1.75205 -0.180427 0)
(1.28175 -0.211797 0)
(0.381197 -0.200695 0)
(1.04607 -0.248647 0)
(0.0980419 -0.18764 0)
(1.64544 -0.292933 0)
(0.189865 -0.193083 0)
(3.01921 -0.377975 0)
(0.937046 -0.0744228 0)
(3.97618 -0.380954 0)
(3.20839 -0.258691 0)
(5.88123 -0.589801 0)
(8.2976 -0.295559 0)
(8.3676 -1.95394 0)
(27.637 -4.34323 0)
(32.8189 0.545038 0)
(9.75558 0.479049 0)
(8.8024 0.374306 0)
(5.85784 -0.0758658 0)
(5.52376 -0.351631 0)
(2.82429 -0.470083 0)
(4.39183 -0.553888 0)
(1.17059 -0.527148 0)
(4.56789 -0.6162 0)
(-0.4221 -0.618415 0)
(6.51183 -0.841842 0)
(-0.794103 -0.521358 0)
(8.68413 -1.29993 0)
(2.86169 -0.487881 0)
(8.59239 -1.97448 0)
(7.85139 -1.10747 0)
(11.4526 -7.08238 0)
(21.3529 -6.37202 0)
(20.166 0.581636 0)
(9.27544 -0.17338 0)
(11.0969 0.0773026 0)
(7.96189 -0.232843 0)
(9.62634 -0.519064 0)
(5.31109 -0.641443 0)
(8.81179 -0.724534 0)
(3.33016 -0.926579 0)
(9.11916 -0.687991 0)
(1.33188 -1.31677 0)
(11.077 -1.21571 0)
(1.39432 -1.05828 0)
(11.6887 -2.90026 0)
(5.69799 -0.538916 0)
(11.8038 -3.4658 0)
(11.4448 -1.21585 0)
(14.4089 -7.48114 0)
(15.9945 -7.02844 0)
(11.5686 -1.98956 0)
(7.55604 -0.844213 0)
(12.7062 -0.230559 0)
(7.31078 -0.708905 0)
(12.3834 -0.779809 0)
(6.21313 -1.07294 0)
(11.7081 -1.03418 0)
(5.95162 -1.29075 0)
(11.5257 -1.11267 0)
(6.01977 -1.59115 0)
(12.2439 -1.99456 0)
(6.12471 -0.975459 0)
(11.67 -3.93657 0)
(7.92198 -0.976876 0)
(12.5612 -4.76099 0)
(10.888 -2.26207 0)
(14.346 -8.15397 0)
(13.0437 -6.56584 0)
(11.2467 0.354105 0)
(5.73755 -1.27853 0)
(14.5148 -1.01933 0)
(8.00683 -1.13355 0)
(12.7075 -1.47577 0)
(8.52367 -1.08937 0)
(11.4166 -1.97944 0)
(8.71677 -1.3569 0)
(10.1692 -2.07035 0)
(9.39507 -1.69945 0)
(10.5443 -2.83373 0)
(9.0895 -1.00753 0)
(11.3676 -4.47991 0)
(8.72262 -1.01583 0)
(11.2736 -5.40637 0)
(9.25133 -3.00425 0)
(10.6151 -9.84203 0)
(10.2754 -5.97242 0)
(13.2022 -1.49056 0)
(6.52325 -1.68833 0)
(12.3804 -2.21864 0)
(9.28773 -1.52567 0)
(9.43269 -2.22332 0)
(10.9029 -1.59934 0)
(9.21649 -2.41452 0)
(9.69321 -1.433 0)
(9.14599 -3.0171 0)
(10.3417 -2.16031 0)
(8.01371 -3.42866 0)
(10.3395 -1.49412 0)
(10.7273 -4.79183 0)
(9.3084 -1.97447 0)
(10.1201 -5.9243 0)
(10.0129 -3.10045 0)
(10.2603 -10.1458 0)
(10.1966 -6.59922 0)
(7.49975 -1.12938 0)
(8.18638 -1.83221 0)
(9.94762 -3.42486 0)
(8.90525 -1.53137 0)
(7.73761 -3.82085 0)
(10.9285 -1.81781 0)
(7.39942 -3.32247 0)
(11.2653 -1.83352 0)
(7.51802 -4.06585 0)
(9.97432 -1.28268 0)
(8.33896 -4.74798 0)
(11.1329 -2.37153 0)
(9.35346 -5.46833 0)
(10.7083 -1.20802 0)
(10.5636 -6.56858 0)
(10.6931 -3.61756 0)
(10.469 -9.42503 0)
(7.94117 -2.51985 0)
(3.82842 -3.21464 0)
(8.60996 -2.54013 0)
(10.8551 -3.73462 0)
(8.8981 -2.00329 0)
(9.2807 -4.3749 0)
(9.70091 -2.30627 0)
(8.18065 -4.11334 0)
(10.9597 -2.19408 0)
(6.93196 -4.12814 0)
(10.9982 -2.74708 0)
(8.55411 -5.29764 0)
(11.176 -2.76238 0)
(9.04036 -5.58093 0)
(11.5922 -3.06446 0)
(10.3888 -6.23907 0)
(10.3292 -4.55386 0)
(10.5116 -8.72405 0)
(7.86271 -3.48564 0)
(9.62194 -4.77689 0)
(8.1292 -2.85022 0)
(11.1033 -4.7112 0)
(8.96249 -2.41033 0)
(9.45491 -5.19377 0)
(9.54621 -2.56299 0)
(7.72873 -5.09058 0)
(10.1823 -2.09608 0)
(7.88122 -5.37366 0)
(10.939 -2.84972 0)
(8.27296 -5.82993 0)
(10.3513 -3.25431 0)
(9.14694 -6.23527 0)
(10.4875 -3.46046 0)
(9.65505 -6.6672 0)
(10.1993 -5.01324 0)
(10.3331 -8.56764 0)
(8.97785 -4.52439 0)
(11.2456 -5.31849 0)
(9.27633 -3.41245 0)
(9.84003 -5.16858 0)
(9.45171 -2.97266 0)
(8.53908 -5.58129 0)
(8.804 -3.02147 0)
(8.10948 -5.27846 0)
(8.78278 -3.33414 0)
(8.86149 -5.14165 0)
(9.00571 -4.00722 0)
(9.02904 -5.56281 0)
(8.955 -4.40094 0)
(8.70694 -6.04087 0)
(8.96074 -4.24752 0)
(9.70009 -6.63239 0)
(9.71456 -6.11794 0)
(9.73625 -7.51848 0)
(8.57433 -5.36359 0)
(10.3475 -5.7585 0)
(9.91452 -3.77879 0)
(9.63046 -6.04217 0)
(9.31498 -3.62129 0)
(9.17502 -6.01693 0)
(8.25559 -3.7874 0)
(8.70035 -6.07245 0)
(8.13228 -3.80235 0)
(8.54958 -6.40275 0)
(8.43121 -4.21945 0)
(8.47328 -6.60152 0)
(8.57414 -4.55342 0)
(8.53746 -6.83933 0)
(8.67351 -5.29076 0)
(9.39687 -7.43735 0)
(9.2253 -6.3091 0)
(9.24817 -7.83878 0)
(8.66159 -6.65435 0)
(9.78887 -6.82652 0)
(10.1054 -4.80904 0)
(9.86505 -6.14076 0)
(9.42389 -4.52469 0)
(9.01219 -6.24498 0)
(8.70684 -4.62278 0)
(8.47179 -6.25294 0)
(8.39271 -5.01153 0)
(8.47063 -6.27213 0)
(8.32401 -5.46893 0)
(8.55959 -6.37608 0)
(8.46326 -5.74433 0)
(8.91432 -6.75278 0)
(8.91899 -6.13811 0)
(9.10676 -7.62541 0)
(9.02778 -7.0129 0)
(9.27689 -7.70055 0)
(9.00724 -7.20986 0)
(9.57196 -7.65699 0)
(10.1649 -5.5212 0)
(9.65989 -6.90022 0)
(9.52252 -5.49769 0)
(9.06461 -6.79308 0)
(8.82405 -5.65328 0)
(8.66747 -6.84374 0)
(8.47071 -5.80906 0)
(8.37817 -7.03489 0)
(8.2768 -6.20936 0)
(8.27466 -7.1801 0)
(8.35206 -6.67132 0)
(8.48737 -7.41624 0)
(8.58526 -7.17693 0)
(8.77019 -7.89751 0)
(8.7102 -7.7604 0)
(8.88333 -8.22308 0)
(8.99521 -8.16381 0)
(9.32305 -8.38873 0)
(10.14 -6.56193 0)
(9.62382 -7.29394 0)
(9.26903 -6.48701 0)
(8.85436 -7.16302 0)
(8.54817 -6.56909 0)
(8.32552 -7.11293 0)
(8.20677 -6.76953 0)
(8.22774 -7.21963 0)
(8.17327 -7.07138 0)
(8.25002 -7.44028 0)
(8.24003 -7.4235 0)
(8.3114 -7.78709 0)
(8.39027 -7.86721 0)
(8.48837 -8.26895 0)
(8.54865 -8.39174 0)
(8.66697 -8.61607 0)
(8.77499 -8.76824 0)
(8.92041 -8.97704 0)
(10.3677 -7.14679 0)
(9.79239 -7.62121 0)
(9.23973 -7.294 0)
(8.74167 -7.54288 0)
(8.31216 -7.38885 0)
(8.06048 -7.67122 0)
(7.91095 -7.65908 0)
(7.89871 -7.91852 0)
(7.90571 -7.91087 0)
(7.97809 -8.03255 0)
(8.0452 -8.11027 0)
(8.1138 -8.27475 0)
(8.16136 -8.46586 0)
(8.23511 -8.70071 0)
(8.28723 -8.90034 0)
(8.35071 -9.10412 0)
(8.38774 -9.29871 0)
(8.44993 -9.48331 0)
(9.71323 -7.97668 0)
(9.30553 -8.03011 0)
(8.97478 -7.78267 0)
(8.62487 -7.8974 0)
(8.32101 -7.93294 0)
(8.10883 -8.08542 0)
(7.91159 -8.21395 0)
(7.78477 -8.36189 0)
(7.7048 -8.46353 0)
(7.70808 -8.55023 0)
(7.72875 -8.64709 0)
(7.7936 -8.76265 0)
(7.86191 -8.89045 0)
(7.91474 -9.02991 0)
(7.94118 -9.16542 0)
(7.96991 -9.32073 0)
(7.98837 -9.47915 0)
(7.99911 -9.63472 0)
(9.89153 -8.1955 0)
(9.20832 -8.29533 0)
(8.81863 -8.24788 0)
(8.46961 -8.29862 0)
(8.18226 -8.31108 0)
(7.96733 -8.37893 0)
(7.77173 -8.46231 0)
(7.64147 -8.56246 0)
(7.55285 -8.65841 0)
(7.51624 -8.72926 0)
(7.49799 -8.80321 0)
(7.50288 -8.88508 0)
(7.52139 -8.98357 0)
(7.55461 -9.09779 0)
(7.58704 -9.19982 0)
(7.63269 -9.33898 0)
(7.66892 -9.49195 0)
(7.66448 -9.63119 0)
(9.95574 -8.19825 0)
(9.38272 -8.2737 0)
(8.94789 -8.28174 0)
(8.49461 -8.30047 0)
(8.13483 -8.30586 0)
(7.88869 -8.36546 0)
(7.69644 -8.46512 0)
(7.56815 -8.56573 0)
(7.473 -8.64251 0)
(7.43084 -8.67886 0)
(7.38774 -8.69479 0)
(7.3737 -8.74148 0)
(7.38034 -8.81128 0)
(7.4249 -8.88132 0)
(7.46854 -8.93754 0)
(7.51102 -9.0267 0)
(7.56369 -9.14265 0)
(7.5985 -9.22789 0)
(10.0545 -7.9551 0)
(9.49821 -7.81333 0)
(9.07819 -7.68559 0)
(8.66499 -7.72701 0)
(8.3335 -7.80151 0)
(8.08553 -7.91124 0)
(7.85141 -8.0023 0)
(7.63967 -8.08398 0)
(7.45902 -8.11767 0)
(7.34555 -8.12656 0)
(7.25704 -8.11825 0)
(7.20763 -8.17552 0)
(7.17551 -8.27062 0)
(7.19659 -8.34477 0)
(7.23232 -8.40903 0)
(7.27112 -8.49871 0)
(7.30896 -8.61497 0)
(7.34179 -8.7008 0)
(9.84617 -7.28441 0)
(9.14415 -7.33628 0)
(8.77383 -7.24314 0)
(8.44558 -7.27108 0)
(8.15873 -7.29719 0)
(7.93823 -7.31801 0)
(7.73419 -7.31239 0)
(7.57174 -7.34105 0)
(7.45863 -7.37222 0)
(7.40983 -7.38507 0)
(7.41063 -7.37266 0)
(7.4342 -7.40234 0)
(7.45714 -7.49526 0)
(7.49864 -7.58962 0)
(7.53286 -7.6162 0)
(7.55769 -7.66296 0)
(7.57608 -7.76386 0)
(7.55841 -7.81675 0)
(10.1516 -6.47159 0)
(9.41818 -6.39628 0)
(9.01757 -6.3961 0)
(8.65932 -6.5124 0)
(8.30732 -6.55618 0)
(8.01257 -6.56803 0)
(7.75106 -6.58573 0)
(7.56811 -6.62798 0)
(7.4406 -6.70412 0)
(7.36849 -6.75815 0)
(7.3514 -6.74043 0)
(7.3869 -6.70015 0)
(7.44126 -6.74835 0)
(7.4755 -6.81805 0)
(7.5058 -6.82617 0)
(7.56964 -6.84991 0)
(7.59763 -6.89739 0)
(7.59542 -6.91427 0)
(9.73913 -5.74099 0)
(9.2164 -5.7523 0)
(8.97688 -5.7743 0)
(8.7009 -5.78771 0)
(8.39085 -5.74132 0)
(8.12746 -5.68179 0)
(7.91537 -5.68754 0)
(7.76192 -5.71732 0)
(7.6602 -5.79117 0)
(7.56225 -5.84461 0)
(7.47354 -5.88363 0)
(7.47342 -5.88295 0)
(7.50208 -5.87705 0)
(7.50284 -5.90264 0)
(7.52397 -5.93256 0)
(7.56954 -5.95523 0)
(7.61227 -5.96082 0)
(7.65952 -5.98401 0)
(10.1146 -4.74731 0)
(9.44383 -4.92445 0)
(9.02582 -4.95498 0)
(8.70455 -4.96742 0)
(8.46573 -4.94363 0)
(8.27474 -4.9145 0)
(8.12132 -4.93093 0)
(8.00534 -4.96107 0)
(7.88353 -4.99711 0)
(7.78325 -5.00672 0)
(7.71524 -5.02917 0)
(7.65531 -5.06587 0)
(7.59452 -5.06946 0)
(7.59643 -5.06668 0)
(7.61345 -5.08577 0)
(7.61099 -5.09118 0)
(7.68019 -5.12243 0)
(7.75063 -5.13842 0)
(9.73062 -3.97039 0)
(9.15121 -4.12212 0)
(8.86216 -4.24315 0)
(8.62092 -4.30399 0)
(8.40804 -4.26189 0)
(8.21973 -4.20324 0)
(8.06671 -4.16224 0)
(7.95628 -4.14563 0)
(7.86411 -4.13792 0)
(7.80232 -4.17841 0)
(7.76661 -4.17168 0)
(7.75146 -4.1538 0)
(7.74104 -4.16638 0)
(7.74862 -4.19024 0)
(7.78636 -4.19134 0)
(7.83379 -4.23149 0)
(7.88987 -4.27133 0)
(7.96456 -4.27432 0)
(9.82923 -3.26959 0)
(9.34067 -3.46733 0)
(9.12028 -3.57161 0)
(8.88884 -3.57887 0)
(8.65866 -3.55074 0)
(8.47817 -3.50727 0)
(8.32272 -3.47424 0)
(8.20615 -3.46451 0)
(8.10975 -3.45909 0)
(8.05593 -3.43951 0)
(7.98549 -3.42963 0)
(7.92887 -3.45017 0)
(7.9536 -3.4524 0)
(7.98247 -3.46577 0)
(8.01566 -3.50548 0)
(8.09767 -3.52581 0)
(8.16673 -3.55062 0)
(8.21277 -3.56478 0)
(9.56114 -2.58319 0)
(9.25483 -2.89782 0)
(9.19687 -3.01205 0)
(9.01401 -2.99929 0)
(8.77986 -2.95407 0)
(8.56863 -2.90015 0)
(8.41451 -2.84313 0)
(8.31302 -2.79366 0)
(8.21581 -2.76499 0)
(8.14051 -2.73919 0)
(8.07924 -2.70891 0)
(8.04026 -2.68649 0)
(8.0223 -2.72779 0)
(8.05224 -2.75513 0)
(8.0881 -2.76765 0)
(8.11641 -2.8032 0)
(8.15062 -2.81831 0)
(8.17226 -2.82108 0)
(9.90791 -2.00449 0)
(9.68784 -2.4006 0)
(9.65968 -2.43991 0)
(9.39174 -2.37097 0)
(9.00866 -2.32694 0)
(8.6314 -2.28798 0)
(8.31396 -2.25093 0)
(8.08884 -2.1901 0)
(7.89483 -2.13674 0)
(7.73895 -2.09429 0)
(7.60445 -2.07824 0)
(7.50728 -2.07213 0)
(7.42667 -2.10098 0)
(7.3661 -2.12529 0)
(7.30686 -2.12932 0)
(7.24026 -2.14949 0)
(7.17526 -2.15804 0)
(7.11729 -2.14708 0)
(9.80093 -1.59708 0)
(9.80217 -2.01847 0)
(9.71276 -1.94156 0)
(9.27315 -1.78363 0)
(8.6212 -1.69421 0)
(7.93649 -1.64287 0)
(7.3112 -1.59949 0)
(6.78996 -1.53504 0)
(6.34268 -1.48085 0)
(5.99573 -1.43475 0)
(5.71062 -1.41023 0)
(5.47454 -1.39795 0)
(5.27415 -1.40545 0)
(5.08532 -1.41388 0)
(4.90701 -1.4119 0)
(4.72416 -1.42408 0)
(4.58287 -1.42934 0)
(4.44983 -1.40905 0)
(10.0069 -1.32061 0)
(9.26983 -1.67161 0)
(8.19572 -1.45581 0)
(6.95171 -1.19431 0)
(5.75869 -1.01852 0)
(4.74768 -0.893232 0)
(3.89571 -0.819369 0)
(3.23625 -0.772905 0)
(2.732 -0.752053 0)
(2.33341 -0.739023 0)
(2.0328 -0.732296 0)
(1.78854 -0.735742 0)
(1.57919 -0.744008 0)
(1.39127 -0.751927 0)
(1.2293 -0.758316 0)
(1.09356 -0.763604 0)
(0.968356 -0.781539 0)
(0.883594 -0.775201 0)
(8.37273 -0.665516 0)
(5.2669 -0.592821 0)
(3.03233 -0.33878 0)
(1.57686 -0.217275 0)
(0.697053 -0.178141 0)
(0.152172 -0.169334 0)
(-0.230235 -0.181169 0)
(-0.491926 -0.194891 0)
(-0.685416 -0.208992 0)
(-0.833438 -0.206455 0)
(-0.931315 -0.20702 0)
(-1.00246 -0.210142 0)
(-1.04998 -0.213098 0)
(-1.08995 -0.216587 0)
(-1.11982 -0.218538 0)
(-1.14359 -0.224035 0)
(-1.18193 -0.242251 0)
(-1.23094 -0.244403 0)
(-0.102165 0.15766 0)
(-0.396166 0.187203 0)
(-0.723545 0.198943 0)
(-1.01399 0.172042 0)
(-1.24803 0.126441 0)
(-1.42033 0.0547419 0)
(-1.50547 -0.035826 1.09723e-17)
(-1.48878 -0.138198 -1.0909e-17)
(-1.35127 -0.238613 0)
(-1.12372 -0.334054 -1.07926e-17)
(-0.814486 -0.395165 0)
(-0.456466 -0.410673 0)
(-0.0682913 -0.422954 0)
(0.328604 -0.479854 1.05502e-17)
(0.767384 -0.532904 0)
(1.26565 -0.48822 0)
(1.76085 -0.383288 -1.03419e-17)
(2.15589 -0.325279 0)
(2.48546 -0.324891 0)
(2.83006 -0.293453 0)
(3.16288 -0.214026 1.00626e-17)
(3.42263 -0.126909 0)
(3.5996 -0.043158 9.92062e-18)
(3.70242 0.0654546 0)
(3.70774 0.173856 0)
(3.59879 0.277882 9.72133e-18)
(3.37773 0.400999 0)
(3.02712 0.491105 -9.62092e-18)
(2.56331 0.56067 0)
(1.99567 0.614914 9.56109e-18)
(1.34914 0.597479 0)
(0.697416 0.519212 0)
(0.041889 0.284557 0)
(-0.511778 0.0109062 0)
(-0.939099 0.0736214 0)
(-1.47211 0.380308 -9.26555e-18)
(-2.03372 0.454678 0)
(-2.41424 0.249762 1.83937e-17)
(-2.63543 -0.00322271 0)
(-2.80091 -0.15919 -1.80742e-17)
(-2.97001 -0.200691 0)
(-3.08219 -0.173382 0)
(-3.06925 -0.132925 1.75934e-17)
(-2.95652 -0.12695 0)
(-2.75449 -0.173452 1.73034e-17)
(-2.42017 -0.266373 -1.71698e-17)
(-1.94737 -0.356931 0)
(-1.36683 -0.441415 -1.69288e-17)
(-0.692047 -0.533483 -1.68162e-17)
(0.112634 -0.594093 0)
(1.01825 -0.577286 0)
(1.88552 -0.489581 0)
(2.65366 -0.353941 0)
(3.32509 -0.206855 0)
(3.81167 -0.140242 1.64487e-17)
(4.07794 -0.183208 0)
(4.22588 -0.267528 -1.63398e-17)
(4.31698 -0.340876 0)
(4.33796 -0.3673 0)
(4.28024 -0.327984 1.60277e-17)
(4.19633 -0.214679 0)
(4.16396 -0.048245 -1.58432e-17)
(4.18099 0.0434044 0)
(4.17591 -0.0243576 0)
(4.1683 -0.23248 0)
(4.07522 -0.386452 1.56145e-17)
(3.97395 -0.378431 0)
(4.34475 -0.547064 0)
(5.28027 -1.2384 1.52581e-17)
(6.15286 -2.62407 0)
(6.40941 -3.09407 1.50608e-17)
(6.39884 -1.4533 0)
(4.62409 0.832261 0)
(1.91545 1.34045 0)
(0.511801 0.636491 -1.45109e-17)
(-0.528876 0.327755 0)
(-1.31617 0.0277337 0)
(-1.75756 -0.171271 -1.41504e-17)
(-2.11549 -0.302732 -1.40537e-17)
(-2.27362 -0.443339 0)
(-2.31285 -0.540348 -1.38482e-17)
(-2.23496 -0.651216 0)
(-2.04141 -0.735644 -2.73071e-17)
(-1.7586 -0.824913 0)
(-1.39834 -0.905285 -2.69396e-17)
(-0.983762 -0.980129 0)
(-0.492019 -1.04738 2.65758e-17)
(0.047477 -1.12815 0)
(0.642993 -1.17275 0)
(1.2864 -1.21835 0)
(1.94406 -1.27659 -2.58454e-17)
(2.66805 -1.33604 0)
(3.38959 -1.35644 2.54795e-17)
(4.18126 -1.40932 0)
(4.94493 -1.43258 -2.51104e-17)
(5.62478 -1.46472 -2.49336e-17)
(6.38631 -1.50553 -2.47479e-17)
(7.03557 -1.48437 0)
(7.67976 -1.54312 0)
(8.4335 -1.61336 0)
(9.08796 -1.61584 0)
(9.74085 -1.65953 0)
(10.3981 -1.72 0)
(10.9865 -1.71177 0)
(11.3808 -1.71313 0)
(11.7102 -1.78122 2.3319e-17)
(11.9938 -1.87321 2.3252e-17)
(12.4572 -1.98298 0)
(13.0601 -1.99281 0)
(13.4246 -1.93601 0)
(13.5188 -1.88205 2.25312e-17)
(13.2352 -1.91466 0)
(12.63 -2.00819 0)
(12.2444 -2.20282 0)
(11.9391 -2.36241 0)
(11.3852 -2.43069 -2.13113e-17)
(11.046 -2.56052 0)
(11.0715 -2.73847 0)
(11.0237 -2.81244 2.0437e-17)
(10.6068 -2.71436 -1.98941e-17)
(10.0761 -2.59528 0)
(9.30169 -2.5098 -2.01259e-17)
(7.99187 -2.54632 0)
(6.75882 -2.74215 1.96701e-17)
(6.14255 -2.97151 0)
(5.90611 -3.15854 0)
(5.7344 -3.18471 0)
(5.22322 -2.78351 0)
(3.90296 -2.4539 0)
(2.07368 -2.60521 -4.0461e-17)
(0.735374 -2.98402 -4.0418e-17)
(0.0316498 -3.19269 0)
(-0.264937 -3.23876 0)
(-0.630668 -3.17723 0)
(-1.13329 -3.12319 3.97104e-17)
(-1.62376 -2.91932 0)
(-3.36027 -2.51283 0)
(-6.21023 -2.12562 0)
(-5.64075 -3.79288 3.81558e-17)
(-0.898082 -6.5677 -3.93868e-17)
(7.33701 -4.24859 0)
(6.33384 -2.6584 0)
(3.93706 -3.16992 -3.84712e-17)
(5.75648 -3.39521 -3.80545e-17)
(6.92235 -3.69958 0)
(9.10757 -3.70499 0)
(10.0056 -3.45404 3.74393e-17)
(9.69105 -3.53486 -3.7027e-17)
(9.30408 -3.67755 0)
(9.11709 -3.83307 0)
(9.15561 -3.85032 -3.5804e-17)
(9.15235 -3.89553 0)
(9.37415 -4.02561 0)
(9.98418 -3.99776 -3.49202e-17)
(9.57822 -3.8095 0)
(9.44469 -4.0537 -3.44997e-17)
(8.85495 -3.87229 0)
(7.85596 -3.81219 0)
(6.61647 -3.72859 0)
(5.64222 -3.67666 3.37056e-17)
(4.21198 -3.52756 0)
(3.13281 -3.63987 0)
(2.19991 -3.6312 0)
(1.8705 -3.73243 0)
(2.45532 -3.87035 0)
(3.62939 -3.93066 0)
(4.81606 -3.87672 3.17455e-17)
(5.53469 -3.65988 3.14247e-17)
(5.12131 -3.39158 0)
(4.13963 -3.41488 0)
(4.35547 -3.64563 0)
(3.33594 -3.25426 -3.06902e-17)
(0.829009 -2.98283 0)
(-2.04746 -2.91262 6.09884e-17)
(-5.13333 -2.8716 -6.00721e-17)
(-6.55587 -3.06944 -5.9488e-17)
(-7.53731 -2.99651 6.00092e-17)
(-8.80842 -2.81888 -6.04408e-17)
(-10.7434 -2.57437 6.03698e-17)
(-12.426 -2.49196 0)
(-0.0744461 0.301393 0)
(-0.235049 0.509158 0)
(-0.436036 0.475868 -2.23054e-17)
(-0.66542 0.293845 0)
(-0.892367 0.102277 2.19056e-17)
(-1.03255 -0.122196 2.18472e-17)
(-1.01863 -0.404318 1.09196e-17)
(-0.893027 -0.731628 1.09281e-17)
(-0.652162 -1.02823 0)
(-0.340825 -1.28637 1.09151e-17)
(0.0435334 -1.48803 0)
(0.435763 -1.58866 0)
(0.869903 -1.55258 -2.1565e-17)
(1.33665 -1.5983 -1.07458e-17)
(1.74537 -1.80537 2.14438e-17)
(2.13935 -1.88435 2.1318e-17)
(2.65633 -1.68342 1.05647e-17)
(3.08496 -1.41743 0)
(3.44762 -1.33941 0)
(3.9081 -1.35125 0)
(4.30493 -1.20048 1.02416e-17)
(4.57118 -0.96955 0)
(4.85886 -0.791199 -3.02315e-17)
(5.15303 -0.553543 0)
(5.34292 -0.244598 0)
(5.4589 0.000681978 -9.78227e-18)
(5.48648 0.296125 0)
(5.42248 0.63419 9.58653e-18)
(5.26121 0.902281 1.90048e-17)
(4.9993 1.13845 -9.40489e-18)
(4.63624 1.28666 0)
(4.17861 1.40002 0)
(3.65216 1.41895 0)
(2.99869 1.32841 1.83736e-17)
(2.10931 1.27562 1.84403e-17)
(1.22948 1.21502 9.23124e-18)
(0.681077 0.87832 0)
(0.190688 0.350324 -1.84613e-17)
(-0.432165 0.196342 0)
(-0.865667 0.395721 1.80062e-17)
(-1.04353 0.404632 0)
(-1.10886 0.0641387 0)
(-1.16263 -0.366997 -1.73837e-17)
(-1.18628 -0.702521 0)
(-1.10392 -1.02785 -5.105e-17)
(-0.809923 -1.37222 1.68635e-17)
(-0.296458 -1.6197 0)
(0.375763 -1.8159 1.65933e-17)
(1.1278 -2.12058 1.65111e-17)
(1.97749 -2.44222 0)
(2.97253 -2.49479 0)
(3.92347 -2.33291 0)
(4.67492 -2.25906 0)
(5.38674 -2.09642 0)
(6.09465 -1.60654 -1.59201e-17)
(6.61361 -1.07137 -3.16304e-17)
(6.87163 -0.756252 1.5812e-17)
(7.00049 -0.569457 0)
(7.18142 -0.335328 -3.13582e-17)
(7.42361 -0.232008 1.55233e-17)
(7.62385 -0.470558 0)
(7.72132 -0.90388 1.53196e-17)
(7.74862 -1.14031 0)
(7.71875 -1.07094 0)
(7.4658 -0.815572 3.06063e-17)
(7.19792 -0.578081 -1.56169e-17)
(7.17017 -1.17682 3.12414e-17)
(6.59985 -2.92673 -3.00997e-17)
(4.6621 -2.32361 -1.51942e-17)
(0.923968 0.57338 0)
(-2.67035 1.77586 -1.47585e-17)
(-4.4027 1.83751 0)
(-5.39266 1.79534 0)
(-5.89744 0.964892 0)
(-6.07951 0.180243 -1.41652e-17)
(-6.28645 -0.412623 0)
(-6.36943 -0.977903 -2.80012e-17)
(-6.33075 -1.35326 4.17952e-17)
(-6.23026 -1.75906 1.38434e-17)
(-5.99086 -2.07872 0)
(-5.67993 -2.37917 1.36839e-17)
(-5.25366 -2.65222 0)
(-4.78426 -2.88803 2.70491e-17)
(-4.21932 -3.10038 0)
(-3.62672 -3.30436 2.66976e-17)
(-2.97988 -3.49482 -5.30531e-17)
(-2.27967 -3.66681 -2.63633e-17)
(-1.52543 -3.84539 0)
(-0.724099 -3.98268 0)
(0.0878608 -4.1242 0)
(0.910427 -4.24461 2.56666e-17)
(1.78197 -4.36926 0)
(2.61315 -4.41972 -2.5271e-17)
(3.5367 -4.55834 0)
(4.35756 -4.53477 7.44164e-17)
(5.14406 -4.64032 2.46598e-17)
(6.0353 -4.67692 2.44086e-17)
(6.71039 -4.69134 0)
(7.53552 -4.93783 0)
(8.38946 -5.02547 0)
(9.06489 -5.05358 0)
(9.81209 -5.21358 0)
(10.4947 -5.32024 4.67406e-17)
(11.1895 -5.32199 4.62028e-17)
(11.7554 -5.33823 0)
(12.2303 -5.5486 -2.29499e-17)
(12.5433 -5.86735 -2.30493e-17)
(12.8764 -6.35565 0)
(13.4012 -6.57309 -4.58269e-17)
(13.7874 -6.45327 0)
(14.2193 -6.27951 2.21464e-17)
(14.4062 -6.07681 0)
(13.7161 -6.11615 0)
(13.3406 -6.66865 -4.25086e-17)
(13.5271 -6.82173 0)
(12.9877 -6.858 2.0637e-17)
(12.1866 -7.38119 0)
(12.0855 -7.97772 0)
(12.1124 -8.02539 1.94794e-17)
(11.4017 -7.83328 1.84716e-17)
(10.5077 -7.85477 0)
(9.67631 -7.86594 -1.84183e-17)
(8.7129 -7.74017 0)
(8.12069 -8.18928 1.7919e-17)
(7.83944 -8.81067 3.47652e-17)
(7.28891 -9.18012 0)
(6.80263 -9.13178 0)
(6.31256 -8.47491 0)
(5.08639 -7.94831 0)
(3.44567 -7.83193 3.8765e-17)
(1.66027 -8.32742 1.16725e-16)
(0.0625413 -8.84469 0)
(-1.12553 -8.99494 0)
(-1.98789 -8.79826 0)
(-2.32564 -8.77893 -3.85103e-17)
(-2.84573 -8.22958 0)
(-4.15394 -7.76167 0)
(-5.52228 -8.4083 7.57574e-17)
(-2.47793 -12.252 3.60118e-17)
(0.59583 -18.2323 3.95218e-17)
(5.5613 -12.596 0)
(5.16911 -7.66737 0)
(3.20002 -10.4186 3.7399e-17)
(6.8079 -11.4253 -3.67836e-17)
(7.87265 -12.0051 0)
(11.4621 -12.049 0)
(13.801 -10.5365 -3.64465e-17)
(13.509 -10.1314 1.06904e-16)
(12.4885 -10.2191 0)
(11.955 -10.7833 0)
(11.7115 -10.9304 3.34013e-17)
(11.4868 -11.0771 0)
(11.9544 -11.6627 6.46392e-17)
(12.9528 -11.8447 -3.19048e-17)
(12.1463 -11.2298 0)
(12.3844 -11.8374 3.16315e-17)
(11.5259 -10.9955 6.27603e-17)
(10.7241 -10.8649 0)
(9.25764 -10.8882 0)
(8.61206 -10.9828 -3.11182e-17)
(6.76442 -10.4619 0)
(6.04254 -10.75 6.08983e-17)
(4.95595 -10.6832 0)
(4.65908 -11.0286 0)
(5.24159 -11.3131 0)
(6.652 -11.3136 0)
(7.78853 -11.1245 -2.87712e-17)
(8.10268 -10.5537 -2.80889e-17)
(7.09758 -9.86387 0)
(5.58737 -9.92558 0)
(5.6276 -10.4733 0)
(4.15232 -9.26844 2.66212e-17)
(1.84457 -8.55743 0)
(-1.39467 -8.36842 -5.35359e-17)
(-4.351 -8.54097 5.21094e-17)
(-5.05336 -9.28898 5.17905e-17)
(-5.75837 -8.84866 5.36746e-17)
(-7.25007 -8.1423 5.55128e-17)
(-9.8753 -7.42734 5.5904e-17)
(-11.1664 -6.94223 0)
(-0.0706855 0.175735 0)
(-0.203516 0.336014 0)
(-0.328344 0.46831 2.26398e-17)
(-0.522829 0.488363 2.22636e-17)
(-0.680885 0.266503 -2.21894e-17)
(-0.667615 -0.272739 -2.23453e-17)
(-0.44139 -0.873514 -2.03997e-21)
(-0.177613 -1.4756 0)
(0.197575 -1.95937 0)
(0.524062 -2.30299 0)
(0.901191 -2.50508 0)
(1.21841 -2.71918 0)
(1.55095 -2.76197 6.63676e-17)
(1.97906 -2.66769 0)
(2.37023 -2.72252 -2.19029e-17)
(2.61218 -2.82846 -2.17644e-17)
(3.00762 -2.64748 0)
(3.33339 -2.38717 0)
(3.64172 -2.38168 0)
(4.18161 -2.37978 0)
(4.41922 -1.92426 -2.08487e-17)
(4.57484 -1.58107 0)
(4.97194 -1.58591 2.04535e-17)
(5.28297 -1.19421 0)
(5.49218 -0.794818 0)
(5.70299 -0.406541 0)
(5.86369 0.174108 3.96302e-17)
(5.99895 0.497425 0)
(6.08569 0.886248 -1.94663e-17)
(6.00019 1.39152 3.85035e-17)
(5.87891 1.66806 0)
(5.62873 1.81774 0)
(5.26642 2.06205 0)
(4.90973 2.09387 -1.84346e-17)
(4.4486 2.0953 -1.8226e-17)
(4.04444 2.21537 0)
(3.68773 1.98281 0)
(3.04683 1.66183 3.5839e-17)
(2.16374 1.35127 3.57212e-17)
(1.39311 0.659853 -3.58244e-17)
(0.827704 -0.1055 0)
(0.40433 -0.492222 0)
(0.196911 -0.419465 0)
(0.209185 -0.420579 0)
(0.32772 -0.981433 3.45958e-17)
(0.528958 -1.80611 3.43641e-17)
(0.896382 -2.44602 -3.40747e-17)
(1.50871 -2.82254 0)
(2.29293 -3.24482 0)
(3.11932 -3.81189 0)
(4.12993 -3.95375 0)
(5.09826 -3.43577 3.28341e-17)
(5.6505 -2.96681 0)
(6.03235 -2.74812 0)
(6.4462 -2.39546 3.21816e-17)
(6.79982 -1.93217 3.22613e-17)
(7.13849 -1.60443 0)
(7.57404 -1.64505 -6.4135e-17)
(8.0388 -1.87965 3.12804e-17)
(8.36559 -1.92807 -3.08741e-17)
(8.30177 -1.60317 0)
(7.90898 -1.08659 0)
(7.17455 -0.711143 0)
(6.29207 -0.54092 0)
(5.57455 -0.927883 -2.99819e-17)
(4.36571 -1.32564 -6.09008e-17)
(1.7021 0.0462187 -3.04642e-17)
(-2.31953 2.15216 3.0073e-17)
(-5.27265 3.03068 0)
(-6.9312 2.99193 -5.89367e-17)
(-7.90102 2.0337 -5.89273e-17)
(-8.00577 1.37961 -5.84293e-17)
(-7.88514 0.80475 5.8141e-17)
(-7.44339 -0.0620133 0)
(-7.09847 -0.781412 8.63327e-17)
(-6.72918 -1.58028 0)
(-6.43174 -2.18034 -2.84551e-17)
(-6.12741 -2.74683 -2.84513e-17)
(-5.84317 -3.27001 0)
(-5.45941 -3.75495 0)
(-5.04911 -4.19129 -5.58704e-17)
(-4.54573 -4.60558 0)
(-3.99852 -4.97357 -5.52665e-17)
(-3.40158 -5.30475 0)
(-2.76352 -5.60647 5.45943e-17)
(-2.07677 -5.89754 1.08553e-16)
(-1.35541 -6.17994 0)
(-0.584766 -6.46179 0)
(0.248869 -6.70457 0)
(1.09934 -6.89277 5.29393e-17)
(1.9778 -7.10944 0)
(2.84705 -7.29658 5.22036e-17)
(3.65264 -7.35815 0)
(4.57331 -7.64029 0)
(5.3672 -7.53186 -1.01448e-16)
(6.10861 -7.72655 0)
(6.98963 -7.77054 -5.00358e-17)
(7.60758 -7.80809 0)
(8.56974 -8.23629 -4.93624e-17)
(9.21312 -8.30184 0)
(10.0026 -8.36445 0)
(10.6192 -8.61144 0)
(11.2637 -8.8666 -1.43562e-16)
(11.8886 -8.9564 -4.7266e-17)
(12.6522 -8.95684 0)
(13.2947 -9.02678 0)
(13.6312 -9.25843 0)
(13.6399 -9.99947 0)
(13.5564 -10.5176 4.6039e-17)
(13.5607 -10.6413 -9.08734e-17)
(13.8525 -10.6733 -4.46592e-17)
(13.99 -10.078 8.78309e-17)
(13.2437 -9.84146 8.60668e-17)
(12.8935 -11.2521 4.30644e-17)
(13.2878 -11.6992 0)
(13.1356 -11.1269 8.16952e-17)
(12.3415 -11.7892 0)
(12.5472 -13.422 -8.51483e-17)
(13.5606 -13.2128 -4.10534e-17)
(13.305 -12.3881 0)
(11.7966 -12.2332 7.29351e-17)
(10.0624 -12.5746 3.6516e-17)
(9.07388 -13.1262 0)
(8.77448 -13.9326 3.52107e-17)
(7.99388 -14.2415 -1.06458e-16)
(6.9938 -14.6901 0)
(6.26694 -14.8896 0)
(5.42326 -13.6523 0)
(3.93212 -12.6396 0)
(1.92632 -12.5307 -7.59965e-17)
(0.278942 -13.0678 -7.64344e-17)
(-1.28741 -13.4524 0)
(-2.95897 -13.7615 0)
(-3.37714 -14.415 0)
(-2.39095 -14.8622 0)
(-1.46071 -13.9126 0)
(-1.89042 -13.5901 0)
(-2.10117 -14.5476 -7.56239e-17)
(-0.172754 -20.2667 -2.4362e-19)
(4.16738 -24.9452 0)
(0.32395 -18.0024 0)
(4.88592 -12.9874 -7.32845e-17)
(4.18141 -17.5431 0)
(7.52859 -18.8195 7.47171e-17)
(6.93271 -19.898 7.55238e-17)
(10.0822 -20.9612 0)
(13.4517 -17.8865 0)
(13.8302 -16.4755 -7.11632e-17)
(12.4109 -16.3283 -1.37331e-16)
(11.8863 -17.5329 0)
(12.0865 -17.8691 0)
(11.8311 -18.3337 0)
(12.4917 -19.4667 -6.65772e-17)
(14.5165 -19.3193 6.53641e-17)
(13.5268 -17.9648 0)
(14.4274 -19.5581 1.28297e-16)
(13.7074 -18.0483 6.18251e-17)
(12.8583 -17.7685 -1.23185e-16)
(11.0667 -17.8096 0)
(11.0096 -17.9325 0)
(8.91737 -17.0104 -1.22956e-16)
(8.39988 -17.7913 -6.12822e-17)
(7.23475 -17.4681 0)
(6.2283 -18.0855 0)
(6.11443 -18.9768 0)
(8.23185 -18.9095 0)
(10.8202 -18.2703 -1.17554e-16)
(12.0049 -16.9177 0)
(10.9512 -15.6067 0)
(8.587 -15.8573 0)
(8.2512 -16.8888 0)
(6.64988 -15.0147 0)
(4.46846 -13.833 0)
(0.457349 -13.5182 -9.88046e-17)
(-2.50493 -14.1592 0)
(-3.81878 -15.3698 0)
(-5.27473 -14.432 -2.10282e-16)
(-7.6724 -13.0155 1.07912e-16)
(-10.0914 -12.3142 -1.04833e-16)
(-10.1889 -11.7213 1.0007e-16)
(-0.0685417 0.209019 0)
(-0.306059 0.357885 -4.67718e-17)
(-0.505533 0.476472 0)
(-0.630167 0.345434 -2.28154e-17)
(-0.500859 -0.286432 0)
(-0.247053 -1.25641 0)
(0.179942 -2.09902 2.30683e-17)
(0.502315 -2.73984 0)
(0.871285 -3.13618 0)
(1.04073 -3.42466 0)
(1.26645 -3.51298 0)
(1.46007 -3.57424 0)
(1.67886 -3.68281 -8.80089e-17)
(1.85973 -3.70679 -4.37475e-17)
(2.17908 -3.64123 4.3477e-17)
(2.39622 -3.71066 0)
(2.67815 -3.47229 0)
(3.04367 -3.22058 0)
(3.30411 -3.43394 0)
(3.64073 -3.08815 0)
(3.75548 -2.47956 -4.10194e-17)
(3.97088 -2.53327 -4.05636e-17)
(4.40606 -2.34999 3.98218e-17)
(4.49525 -1.79482 -3.94389e-17)
(4.7446 -1.47734 0)
(5.09641 -1.0025 0)
(5.28786 -0.547503 -3.87995e-17)
(5.62063 -0.152746 0)
(5.78398 0.62657 0)
(5.86559 1.13537 -3.86255e-17)
(5.98744 1.39077 -3.81937e-17)
(5.94148 1.9673 -3.79687e-17)
(5.82247 2.2538 0)
(5.74786 2.22275 0)
(5.45218 2.4034 3.71136e-17)
(5.1128 2.35301 0)
(4.94245 2.32437 0)
(4.48879 2.36425 -3.60972e-17)
(4.07277 1.99433 3.58836e-17)
(3.77982 1.97275 -3.53902e-17)
(3.1676 1.82244 0)
(2.31146 0.704759 0)
(1.4878 -0.351972 -7.03743e-17)
(1.09423 -1.05465 0)
(1.07019 -1.91285 -6.92814e-17)
(1.11236 -2.76229 -1.03708e-16)
(1.32931 -3.53775 1.03126e-16)
(1.89996 -4.34578 -6.77545e-17)
(2.57352 -5.1307 0)
(3.12984 -5.73468 0)
(3.79498 -5.74478 -6.65461e-17)
(4.37384 -5.18523 -3.32741e-17)
(4.50851 -4.43052 0)
(4.64152 -3.81461 0)
(4.84623 -3.38732 -3.20809e-17)
(4.93028 -3.04243 -6.43491e-17)
(4.88827 -2.68946 0)
(4.85995 -2.21146 6.41211e-17)
(4.6893 -1.70982 -6.34957e-17)
(4.2204 -1.31812 6.2977e-17)
(3.66921 -1.00997 0)
(3.19899 -0.68645 0)
(2.47213 -0.400283 0)
(1.12076 0.0594273 0)
(-1.08026 1.10729 0)
(-4.08241 2.82713 6.11107e-17)
(-6.77487 4.17884 0)
(-8.74298 4.17293 0)
(-9.51161 3.22313 0)
(-9.53617 2.25737 1.18723e-16)
(-9.12911 1.09134 5.93953e-17)
(-8.51612 0.145117 5.89463e-17)
(-7.93375 -0.899033 -1.17661e-16)
(-7.28412 -1.74485 5.83602e-17)
(-6.82526 -2.45714 -5.81837e-17)
(-6.42799 -3.1628 0)
(-6.16176 -3.74438 5.74772e-17)
(-5.90025 -4.34497 0)
(-5.65356 -4.91509 0)
(-5.3168 -5.52342 0)
(-4.92193 -6.09576 1.12785e-16)
(-4.42851 -6.62569 -5.60684e-17)
(-3.8893 -7.12206 -5.5695e-17)
(-3.27858 -7.55174 -1.10825e-16)
(-2.61452 -7.95445 -1.654e-16)
(-1.89862 -8.34908 -5.48555e-17)
(-1.14514 -8.73507 0)
(-0.349316 -9.14458 -1.08381e-16)
(0.591037 -9.46734 0)
(1.36803 -9.72685 -1.60926e-16)
(2.35435 -9.99462 0)
(3.30258 -10.1989 -1.58158e-16)
(4.15147 -10.2679 0)
(5.12194 -10.6515 0)
(5.97078 -10.4538 -5.14739e-17)
(6.86608 -10.6685 0)
(7.66656 -10.8645 5.11475e-17)
(8.24133 -10.9118 1.0091e-16)
(9.19525 -11.3821 5.01997e-17)
(9.85755 -11.4801 9.92263e-17)
(10.6587 -11.6326 -9.84773e-17)
(11.2004 -11.8224 -9.74675e-17)
(11.7919 -12.1886 1.93421e-16)
(12.3903 -12.5558 0)
(13.0026 -12.748 0)
(13.6518 -12.9011 9.45284e-17)
(14.1614 -12.7717 -9.26346e-17)
(14.3647 -13.1112 0)
(14.0308 -13.7619 0)
(13.6921 -14.3816 9.02448e-17)
(13.5962 -14.7098 0)
(13.3137 -13.8656 1.40097e-19)
(12.6633 -13.6445 1.44428e-19)
(12.6758 -15.8251 9.00473e-17)
(12.9252 -16.451 0)
(12.4934 -15.2509 -8.26632e-17)
(11.6305 -16.2448 0)
(11.573 -19.4745 8.74333e-17)
(13.2234 -19.8167 0)
(14.3024 -17.4612 0)
(13.3114 -16.0366 -7.56698e-17)
(11.4062 -16.8032 -7.33672e-17)
(9.98224 -18.1207 0)
(8.74779 -18.8905 -7.13788e-17)
(7.29063 -19.3641 1.47934e-16)
(6.14646 -20.1195 0)
(5.43573 -20.0487 0)
(4.16463 -18.4246 0)
(2.70766 -17.1597 0)
(0.503329 -17.0685 7.52582e-17)
(-1.69007 -17.672 -1.50615e-16)
(-3.59078 -17.8948 0)
(-4.39912 -19.0979 0)
(-3.07252 -20.996 0)
(-1.86467 -21.8411 0)
(-0.324217 -20.0892 0)
(2.56471 -19.1655 0)
(1.93636 -20.5963 0)
(3.57814 -28.0337 7.65841e-17)
(5.78418 -30.766 0)
(0.246496 -25.0045 0)