/*--------------------------------*- C++ -*----------------------------------*\
| =========                 |                                                 |
| \\      /  F ield         | OpenFOAM: The Open Source CFD Toolbox           |
|  \\    /   O peration     | Version:  dev                                   |
|   \\  /    A nd           | Web:      http://www.openfoam.org               |
|    \\/     M anipulation  |                                                 |
\*---------------------------------------------------------------------------*/
FoamFile
{
    version     2.0;
    format      ascii;
    class       volVectorField;
    object      UMean;
    location    "9.145";
}
// * * * * * * * * * * * * * * * * * * * * * * * * * * * * * * * * * * * * * //

dimensions      [0 1 -1 0 0 0 0];

internalField   nonuniform List<vector> 
12225
(
(7.00368 0.430273 0)
(4.4388 0.192555 0)
(2.55667 0.0311624 0)
(2.51076 -0.0166621 0)
(1.38434 0.0193783 0)
(2.26717 -0.034286 0)
(0.989452 0.0489946 0)
(2.18233 -0.0591809 0)
(0.797478 0.0716616 0)
(2.29148 -0.0978553 0)
(0.688772 0.0993662 0)
(2.74341 -0.13864 0)
(0.948328 0.102596 0)
(3.39705 -0.172125 0)
(3.53254 -0.168609 0)
(4.69677 0.049968 0)
(14.8496 -2.43474 0)
(7.12116 5.13443 0)
(9.54626 0.981589 0)
(9.54341 0.860893 0)
(6.68667 0.466309 0)
(7.59025 0.214541 0)
(4.09026 0.140339 0)
(6.84286 0.0107772 0)
(2.6649 0.1327 0)
(6.68877 -0.0903663 0)
(1.82264 0.14189 0)
(7.03844 -0.165111 0)
(1.26081 0.123927 0)
(8.121 -0.414509 0)
(1.38536 0.25236 0)
(9.95529 -1.44267 0)
(3.4358 0.271304 0)
(12.391 -4.06909 0)
(10.432 -1.92906 0)
(7.77753 0.486973 0)
(9.11845 0.763488 0)
(12.1669 0.951404 0)
(8.32943 0.624013 0)
(11.832 0.443396 0)
(6.22571 0.310364 0)
(11.4129 0.206402 0)
(4.58249 0.221614 0)
(11.3147 -0.0196416 0)
(3.87436 0.193076 0)
(11.376 -0.277958 0)
(4.35115 0.18731 0)
(11.2521 -0.723138 0)
(5.72967 0.175723 0)
(11.0897 -1.49169 0)
(7.21619 0.0517664 0)
(12.119 -3.86732 0)
(6.93209 0.349943 0)
(9.35457 -2.39002 0)
(7.21892 0.524942 0)
(13.9932 0.961059 0)
(7.92938 0.609494 0)
(14.2956 0.553855 0)
(7.47373 0.42095 0)
(14.1168 0.270984 0)
(7.17512 0.396782 0)
(13.739 -0.145285 0)
(7.2563 0.459703 0)
(13.2703 -0.698961 0)
(7.65932 0.576813 0)
(12.8755 -1.423 0)
(8.26757 0.699144 0)
(12.6523 -2.31343 0)
(9.02535 0.0401817 0)
(11.8882 -3.63661 0)
(8.68673 -1.43448 0)
(8.36346 0.683041 0)
(6.42311 0.569966 0)
(14.0123 0.566007 0)
(8.47261 0.674525 0)
(13.9593 0.284547 0)
(9.16842 0.636766 0)
(13.6448 -0.0026299 0)
(9.51618 0.657952 0)
(13.2152 -0.388835 0)
(9.59105 0.734482 0)
(12.8144 -0.87151 0)
(9.44449 0.876948 0)
(12.5843 -1.5217 0)
(9.14857 1.08977 0)
(12.5727 -2.49048 0)
(8.82625 1.13119 0)
(11.6182 -5.02876 0)
(8.54177 1.2649 0)
(8.72191 0.131841 0)
(7.95532 0.616728 0)
(11.8045 0.152529 0)
(9.50436 0.654646 0)
(11.7406 0.0503198 0)
(10.0877 0.693828 0)
(11.6015 -0.165587 0)
(10.32 0.725724 0)
(11.4771 -0.457464 0)
(10.2998 0.782841 0)
(11.3903 -0.853528 0)
(10.0318 0.831748 0)
(11.3562 -1.40012 0)
(9.49066 0.80078 0)
(11.4191 -2.13863 0)
(8.79811 0.725058 0)
(10.9989 -3.92146 0)
(7.73118 1.33496 0)
(9.48883 -0.215756 0)
(9.34338 0.812668 0)
(10.4395 -0.265967 0)
(10.1402 0.93048 0)
(10.5543 -0.304545 0)
(10.3984 1.01999 0)
(10.5822 -0.502878 0)
(10.5199 1.07549 0)
(10.6255 -0.781141 0)
(10.5632 1.15347 0)
(10.6718 -1.15772 0)
(10.515 1.23521 0)
(10.6999 -1.63573 0)
(10.3662 1.26118 0)
(10.6879 -2.32759 0)
(10.0521 1.27117 0)
(10.3755 -3.95573 0)
(8.29737 2.02007 0)
(9.6966 -0.951416 0)
(9.84874 0.701055 0)
(10.1563 -0.325947 0)
(10.4063 0.85492 0)
(10.39 -0.34983 0)
(10.5801 0.906741 0)
(10.4707 -0.493878 0)
(10.7015 0.892844 0)
(10.552 -0.686171 0)
(10.8053 0.872581 0)
(10.6437 -0.935164 0)
(10.881 0.823741 0)
(10.7352 -1.23272 0)
(10.9082 0.671245 0)
(10.7535 -1.67282 0)
(10.7234 0.519605 0)
(10.4918 -2.47496 0)
(8.89279 0.981405 0)
(9.96326 -0.483997 0)
(10.0855 0.80224 0)
(10.02 -0.583412 0)
(10.5353 1.02141 0)
(10.3109 -0.604495 0)
(10.6749 1.075 0)
(10.4401 -0.724965 0)
(10.7774 1.04824 0)
(10.5709 -0.890095 0)
(10.8572 1.00374 0)
(10.7114 -1.11791 0)
(10.8988 0.921257 0)
(10.8318 -1.39523 0)
(10.8742 0.734957 0)
(10.8222 -1.76148 0)
(10.6025 0.505897 0)
(10.5204 -2.06989 0)
(9.34935 0.586719 0)
(10.023 -0.391754 0)
(10.139 0.648569 0)
(10.0424 -0.511903 0)
(10.5102 0.877924 0)
(10.3335 -0.456463 0)
(10.6213 0.869164 0)
(10.482 -0.493607 0)
(10.6978 0.778217 0)
(10.629 -0.572133 0)
(10.7341 0.657876 0)
(10.7636 -0.695393 0)
(10.7178 0.495546 0)
(10.8402 -0.845137 0)
(10.6182 0.264055 0)
(10.7654 -1.03253 0)
(10.2821 0.0702411 0)
(10.4792 -1.05343 0)
(9.6226 0.124266 0)
(10.2066 -0.0328539 0)
(10.141 0.700002 0)
(10.0707 -0.691958 0)
(10.4525 0.902527 0)
(10.2985 -0.619 0)
(10.5374 0.847701 0)
(10.4302 -0.645628 0)
(10.6032 0.735371 0)
(10.5606 -0.707541 0)
(10.6272 0.5869 0)
(10.6604 -0.791468 0)
(10.6091 0.383273 0)
(10.6812 -0.869592 0)
(10.5268 0.117165 0)
(10.5709 -0.922523 0)
(10.2913 -0.113685 0)
(10.3607 -0.765479 0)
(10.0194 -0.15398 0)
(10.2453 -0.125282 0)
(10.0968 0.467987 0)
(10.1508 -0.495127 0)
(10.3536 0.595751 0)
(10.2934 -0.374659 0)
(10.4203 0.527558 0)
(10.4093 -0.354843 0)
(10.4848 0.41892 0)
(10.5239 -0.374262 0)
(10.5131 0.275771 0)
(10.5993 -0.414759 0)
(10.5156 0.0933414 0)
(10.597 -0.461783 0)
(10.4766 -0.103329 0)
(10.4994 -0.500291 0)
(10.3569 -0.232143 0)
(10.3644 -0.405739 0)
(10.2657 -0.219824 0)
(10.3736 -0.110177 0)
(10.0501 0.411025 0)
(10.1755 -0.487351 0)
(10.2549 0.437263 0)
(10.2379 -0.367612 0)
(10.3088 0.367442 0)
(10.3306 -0.345688 0)
(10.3792 0.25095 0)
(10.4246 -0.355417 0)
(10.4226 0.0995622 0)
(10.4823 -0.375019 0)
(10.4462 -0.0796524 0)
(10.4817 -0.403559 0)
(10.4329 -0.246677 0)
(10.426 -0.431395 0)
(10.3771 -0.339228 0)
(10.3684 -0.392725 0)
(10.357 -0.320547 0)
(10.4221 -0.276511 0)
(10.0154 0.19963 0)
(10.1907 -0.285863 0)
(10.1932 0.167358 0)
(10.2052 -0.179354 0)
(10.2293 0.131704 0)
(10.2791 -0.171419 0)
(10.3062 0.0472789 0)
(10.3626 -0.197836 0)
(10.3659 -0.058678 0)
(10.4142 -0.235796 0)
(10.4054 -0.176016 0)
(10.4266 -0.286499 0)
(10.4123 -0.275028 0)
(10.4111 -0.331715 0)
(10.3993 -0.32416 0)
(10.4064 -0.337217 0)
(10.4107 -0.316024 0)
(10.4696 -0.304817 0)
(9.99663 0.0971411 0)
(10.1444 -0.18592 0)
(10.1463 0.0216956 0)
(10.1501 -0.133698 0)
(10.1621 -0.00859386 0)
(10.2089 -0.146192 0)
(10.2409 -0.0769321 0)
(10.2919 -0.186764 0)
(10.3109 -0.159384 0)
(10.3485 -0.237996 0)
(10.3574 -0.244804 0)
(10.379 -0.298348 0)
(10.3804 -0.316313 0)
(10.3938 -0.350111 0)
(10.3958 -0.361046 0)
(10.4184 -0.380212 0)
(10.4237 -0.381058 0)
(10.4787 -0.38724 0)
(9.99367 0.015504 0)
(10.106 -0.0858109 0)
(10.1089 -0.0443025 0)
(10.1138 -0.0932573 0)
(10.1188 -0.0748713 0)
(10.1674 -0.118945 0)
(10.198 -0.120601 0)
(10.2518 -0.163848 0)
(10.274 -0.180577 0)
(10.3153 -0.219178 0)
(10.3278 -0.243948 0)
(10.3597 -0.277843 0)
(10.3658 -0.301357 0)
(10.3938 -0.329024 0)
(10.3994 -0.347007 0)
(10.4327 -0.370812 0)
(10.4355 -0.383793 0)
(10.4882 -0.397006 0)
(9.99175 0.00475997 0)
(10.0636 -0.0251522 0)
(10.0567 -0.0348992 0)
(10.0678 -0.0664594 0)
(10.0778 -0.0756954 0)
(10.128 -0.0997543 0)
(10.1573 -0.115931 0)
(10.2109 -0.144702 0)
(10.2337 -0.168975 0)
(10.2781 -0.199581 0)
(10.2919 -0.226575 0)
(10.3299 -0.257055 0)
(10.3383 -0.283339 0)
(10.373 -0.312076 0)
(10.3787 -0.336826 0)
(10.4151 -0.365558 0)
(10.4145 -0.388072 0)
(10.4633 -0.407487 0)
(9.99163 0.0141585 0)
(10.0467 0.016162 0)
(10.0399 -0.0105705 0)
(10.0576 -0.0376746 0)
(10.0749 -0.0565225 0)
(10.1255 -0.0778452 0)
(10.1554 -0.0988557 0)
(10.2071 -0.123816 0)
(10.2311 -0.148986 0)
(10.2754 -0.176626 0)
(10.2911 -0.203429 0)
(10.3292 -0.232161 0)
(10.3394 -0.25937 0)
(10.3736 -0.288317 0)
(10.3801 -0.315644 0)
(10.414 -0.345715 0)
(10.4132 -0.371573 0)
(10.4567 -0.393389 0)
(9.99169 0.0329411 0)
(10.0502 0.0496638 0)
(10.0566 0.00995177 0)
(10.0799 -0.0180604 0)
(10.1006 -0.0402214 0)
(10.1506 -0.0614653 0)
(10.1818 -0.0835975 0)
(10.2315 -0.1064 0)
(10.2562 -0.130541 0)
(10.2984 -0.155508 0)
(10.315 -0.181074 0)
(10.3507 -0.207327 0)
(10.3614 -0.233562 0)
(10.3926 -0.260416 0)
(10.399 -0.287035 0)
(10.4287 -0.315292 0)
(10.428 -0.341023 0)
(10.4653 -0.3628 0)
(9.98991 0.0407199 0)
(10.0547 0.052682 0)
(10.0828 -0.00630836 0)
(10.1167 -0.0406387 0)
(10.1419 -0.0640829 0)
(10.1904 -0.0822362 0)
(10.2223 -0.102068 0)
(10.269 -0.120986 0)
(10.2935 -0.142727 0)
(10.332 -0.163977 0)
(10.3483 -0.187391 0)
(10.3802 -0.21008 0)
(10.3904 -0.234387 0)
(10.4174 -0.257906 0)
(10.4228 -0.282771 0)
(10.4473 -0.307806 0)
(10.4461 -0.332436 0)
(10.4768 -0.352828 0)
(9.99052 0.0315801 0)
(10.0685 0.0220225 0)
(10.1261 -0.0557337 0)
(10.1769 -0.0967474 0)
(10.2125 -0.119772 0)
(10.2609 -0.132735 0)
(10.2937 -0.147772 0)
(10.3361 -0.161658 0)
(10.3601 -0.179835 0)
(10.3941 -0.196921 0)
(10.4103 -0.217362 0)
(10.4377 -0.236243 0)
(10.4478 -0.257985 0)
(10.4701 -0.27805 0)
(10.4754 -0.300727 0)
(10.4946 -0.322348 0)
(10.4939 -0.345198 0)
(10.5187 -0.363477 0)
(9.99116 0.00988004 0)
(10.092 -0.0296918 0)
(10.1869 -0.120817 0)
(10.2595 -0.162749 0)
(10.3093 -0.181104 0)
(10.3589 -0.187141 0)
(10.3929 -0.196022 0)
(10.4304 -0.204358 0)
(10.4542 -0.2181 0)
(10.4837 -0.230735 0)
(10.5001 -0.247593 0)
(10.5232 -0.262619 0)
(10.5337 -0.281324 0)
(10.5517 -0.298007 0)
(10.5572 -0.31806 0)
(10.5719 -0.336394 0)
(10.5723 -0.356969 0)
(10.592 -0.373103 0)
(9.99281 -0.0233716 0)
(10.1275 -0.103599 0)
(10.2671 -0.204916 0)
(10.3665 -0.241582 0)
(10.4319 -0.250799 0)
(10.4835 -0.248384 0)
(10.5183 -0.250895 0)
(10.5517 -0.253693 0)
(10.5753 -0.26297 0)
(10.6012 -0.271328 0)
(10.6181 -0.284656 0)
(10.6378 -0.296273 0)
(10.6487 -0.312082 0)
(10.6632 -0.325834 0)
(10.6692 -0.343364 0)
(10.6801 -0.358809 0)
(10.6814 -0.377121 0)
(10.6968 -0.391263 0)
(9.99045 -0.0715828 0)
(10.1744 -0.201148 0)
(10.3678 -0.305446 0)
(10.5001 -0.327846 0)
(10.5805 -0.322548 0)
(10.6343 -0.310178 0)
(10.6689 -0.305558 0)
(10.6997 -0.302549 0)
(10.7226 -0.306686 0)
(10.746 -0.310565 0)
(10.7624 -0.319885 0)
(10.7794 -0.32803 0)
(10.7895 -0.340562 0)
(10.8006 -0.351338 0)
(10.8055 -0.365926 0)
(10.8124 -0.378483 0)
(10.8122 -0.394038 0)
(10.8222 -0.405986 0)
(9.99201 -0.136365 0)
(10.2447 -0.323003 0)
(10.5027 -0.419001 0)
(10.6712 -0.417626 0)
(10.7627 -0.39417 0)
(10.8175 -0.371102 0)
(10.8494 -0.358934 0)
(10.8772 -0.350576 0)
(10.896 -0.350085 0)
(10.9149 -0.35048 0)
(10.9253 -0.356364 0)
(10.9355 -0.361497 0)
(10.9375 -0.370794 0)
(10.9394 -0.378654 0)
(10.934 -0.389847 0)
(10.9291 -0.399428 0)
(10.9164 -0.411345 0)
(10.9116 -0.42049 0)
(9.98975 -0.219913 0)
(10.3369 -0.468125 0)
(10.6737 -0.539732 0)
(10.8757 -0.508217 0)
(10.9697 -0.464845 0)
(11.0134 -0.428053 0)
(11.0285 -0.404797 0)
(11.0352 -0.388369 0)
(11.029 -0.381401 0)
(11.0194 -0.37695 0)
(10.9979 -0.378159 0)
(10.9735 -0.379066 0)
(10.9377 -0.383785 0)
(10.8999 -0.387261 0)
(10.8522 -0.393624 0)
(10.8041 -0.398945 0)
(10.7461 -0.40526 0)
(10.6945 -0.410031 0)
(9.98329 -0.332076 0)
(10.4676 -0.642317 0)
(10.8829 -0.667104 0)
(11.0724 -0.60264 0)
(11.1029 -0.537194 0)
(11.0583 -0.48312 0)
(10.9742 -0.444979 0)
(10.8731 -0.416218 0)
(10.7577 -0.398007 0)
(10.6349 -0.383266 0)
(10.5034 -0.374883 0)
(10.3665 -0.366322 0)
(10.2241 -0.362438 0)
(10.0774 -0.356985 0)
(9.92857 -0.355836 0)
(9.777 -0.35324 0)
(9.62583 -0.352938 0)
(9.47591 -0.351098 0)
(10.0025 -0.453664 0)
(10.619 -0.818956 0)
(10.9016 -0.752072 0)
(10.7932 -0.623757 0)
(10.4937 -0.512547 0)
(10.1376 -0.429198 0)
(9.77006 -0.373569 0)
(9.41753 -0.334725 0)
(9.07671 -0.307296 0)
(8.75535 -0.28461 0)
(8.44636 -0.267654 0)
(8.15326 -0.251329 0)
(7.8725 -0.240038 0)
(7.60291 -0.227334 0)
(7.34811 -0.221127 0)
(7.09857 -0.211814 0)
(6.87015 -0.21084 0)
(6.64073 -0.204161 0)
(10.0974 -0.750786 0)
(10.0458 -1.0132 0)
(9.42493 -0.801092 0)
(8.51439 -0.572188 0)
(7.65493 -0.37873 0)
(6.92875 -0.244883 0)
(6.32716 -0.167522 0)
(5.83143 -0.126253 0)
(5.40899 -0.104707 0)
(5.04838 -0.0923262 0)
(4.72829 -0.0849659 0)
(4.44755 -0.0793532 0)
(4.19115 -0.0758091 0)
(3.96225 -0.0718911 0)
(3.75055 -0.0721343 0)
(3.55539 -0.0690811 0)
(3.38318 -0.0802662 0)
(3.21829 -0.0828602 0)
(8.51675 -0.436072 0)
(6.11024 -0.380898 0)
(4.2983 -0.138059 0)
(3.12382 -0.0213938 0)
(2.48103 0.0191283 0)
(2.1204 0.0224676 0)
(1.89617 0.013708 0)
(1.73485 0.00461045 0)
(1.59881 -0.00157318 0)
(1.47807 -0.00479373 0)
(1.36597 -0.0064065 0)
(1.26382 -0.00671996 0)
(1.16815 -0.00670744 0)
(1.08143 -0.00638962 0)
(0.999399 -0.00665816 0)
(0.919168 -0.00703407 0)
(0.851673 -0.0186134 0)
(0.731142 -0.00614053 0)
(-0.0520382 0.13798 0)
(-0.157057 0.0714708 0)
(-0.206975 0.0163717 0)
(-0.195023 -0.0444812 0)
(-0.117629 -0.0992154 0)
(0.012701 -0.145247 0)
(0.186891 -0.175782 1.11354e-17)
(0.388767 -0.19373 -1.10604e-17)
(0.607124 -0.198111 0)
(0.82963 -0.192836 -1.09172e-17)
(1.04691 -0.178487 0)
(1.24999 -0.157711 0)
(1.4323 -0.131064 0)
(1.58857 -0.101688 1.06426e-17)
(1.71614 -0.0704158 0)
(1.81223 -0.0383166 0)
(1.87595 -0.00613399 -1.04455e-17)
(1.90803 0.02417 0)
(1.91014 0.0506701 0)
(1.88434 0.0724179 0)
(1.83433 0.0893958 1.01961e-17)
(1.76268 0.100953 0)
(1.67334 0.108832 1.00742e-17)
(1.56799 0.111737 0)
(1.45128 0.109833 0)
(1.32596 0.108167 9.89548e-18)
(1.19228 0.111449 0)
(1.04947 0.116551 -9.77916e-18)
(0.900748 0.121768 0)
(0.746698 0.126775 9.6643e-18)
(0.588876 0.130734 0)
(0.429564 0.133147 0)
(0.271028 0.134268 0)
(0.113747 0.134022 0)
(-0.0419655 0.131106 0)
(-0.194035 0.126394 -9.32961e-18)
(-0.340806 0.120265 0)
(-0.48188 0.113757 1.84405e-17)
(-0.615823 0.107267 0)
(-0.742214 0.100048 -1.82216e-17)
(-0.859589 0.0930226 0)
(-0.96811 0.0862647 0)
(-1.06823 0.0785299 1.78884e-17)
(-1.15947 0.0701849 0)
(-1.24246 0.0625004 1.76651e-17)
(-1.31731 0.0552792 -1.75531e-17)
(-1.38348 0.0482916 0)
(-1.44183 0.0422439 -1.73282e-17)
(-1.49345 0.0369157 -1.72152e-17)
(-1.53732 0.0332326 0)
(-1.5736 0.0316309 0)
(-1.60418 0.0315947 0)
(-1.63118 0.0316675 0)
(-1.65559 0.0316138 0)
(-1.67882 0.0324494 1.65281e-17)
(-1.70267 0.0339683 0)
(-1.72851 0.036191 -1.62989e-17)
(-1.75507 0.0382403 0)
(-1.78118 0.0388912 0)
(-1.8068 0.0395456 1.59524e-17)
(-1.83265 0.0413626 0)
(-1.8606 0.042611 -1.57211e-17)
(-1.89055 0.0442799 0)
(-1.92232 0.0457754 0)
(-1.95545 0.0466516 0)
(-1.98937 0.0478673 1.52556e-17)
(-2.02372 0.0496875 0)
(-2.05873 0.0518717 0)
(-2.09422 0.0542119 1.49058e-17)
(-2.13053 0.0556249 0)
(-2.1647 0.0558976 1.46711e-17)
(-2.19588 0.0564272 0)
(-2.22401 0.0568017 0)
(-2.248 0.0567329 0)
(-2.26677 0.0561328 -1.4205e-17)
(-2.27959 0.0548973 0)
(-2.28714 0.0541528 0)
(-2.29133 0.0540553 -1.38611e-17)
(-2.29258 0.0530642 -1.37477e-17)
(-2.28918 0.0513799 0)
(-2.27931 0.0490857 -1.35225e-17)
(-2.26285 0.0461201 0)
(-2.23939 0.0429189 -2.6602e-17)
(-2.20893 0.0394392 0)
(-2.172 0.0357187 -2.61665e-17)
(-2.12846 0.0326247 0)
(-2.07936 0.0301974 2.57377e-17)
(-2.02559 0.0282201 0)
(-1.96725 0.0267842 0)
(-1.905 0.0258173 0)
(-1.84037 0.0252326 -2.49006e-17)
(-1.7731 0.0249781 0)
(-1.70483 0.0249405 2.44989e-17)
(-1.63559 0.0255258 0)
(-1.56606 0.0265652 -2.41095e-17)
(-1.4982 0.0290745 -2.39209e-17)
(-1.43116 0.0302165 -2.37366e-17)
(-1.36396 0.0312693 0)
(-1.29861 0.0313835 0)
(-1.23393 0.0325812 0)
(-1.16806 0.0333584 0)
(-1.10313 0.0329774 0)
(-1.03328 0.0318813 0)
(-0.964551 0.0332324 0)
(-0.893725 0.0328788 0)
(-0.826761 0.0352395 2.22128e-17)
(-0.759524 0.0357635 2.20606e-17)
(-0.697371 0.0401637 0)
(-0.636915 0.0414378 0)
(-0.581462 0.041103 0)
(-0.514151 0.0384725 2.14801e-17)
(-0.452085 0.0426038 0)
(-0.383236 0.0407875 0)
(-0.318434 0.0437229 0)
(-0.247698 0.0406775 0)
(-0.174896 0.0431384 -2.08059e-17)
(-0.0998773 0.0446709 0)
(-0.0193235 0.0436944 0)
(0.0658052 0.0450813 2.04288e-17)
(0.154505 0.0451179 -2.03073e-17)
(0.24616 0.0444255 0)
(0.342325 0.0483254 -2.00748e-17)
(0.433639 0.0513353 0)
(0.526021 0.0545602 1.98483e-17)
(0.608157 0.0592997 0)
(0.679262 0.0623348 0)
(0.754368 0.0626033 0)
(0.823812 0.0632777 0)
(0.903585 0.0603813 0)
(0.977465 0.0609006 -3.83964e-17)
(1.05337 0.0624941 -3.81773e-17)
(1.11376 0.0672825 0)
(1.16456 0.066385 0)
(1.20955 0.0677094 0)
(1.24637 0.063636 3.72527e-17)
(1.29457 0.0587626 0)
(1.3445 0.0570111 0)
(1.38977 0.0559837 0)
(1.4378 0.0540528 3.62324e-17)
(1.47623 0.0562646 -3.59644e-17)
(1.52006 0.0526507 0)
(1.55923 0.0526551 0)
(1.60095 0.0531875 -3.51496e-17)
(1.62744 0.058253 -3.48766e-17)
(1.65755 0.0549769 0)
(1.68638 0.0586937 0)
(1.72548 0.0557378 3.40434e-17)
(1.76203 0.0659884 -3.3764e-17)
(1.77026 0.071399 0)
(1.78383 0.0707828 0)
(1.80907 0.0711215 -3.29272e-17)
(1.84225 0.0758723 0)
(1.85568 0.083418 0)
(1.86703 0.0891744 -3.20832e-17)
(1.86612 0.0932898 0)
(1.8802 0.0981255 -3.15231e-17)
(1.8819 0.105101 0)
(1.88751 0.109158 0)
(1.87451 0.120714 0)
(1.86112 0.126548 3.04338e-17)
(1.84608 0.133058 0)
(1.81425 0.142873 0)
(1.74243 0.154505 0)
(1.66578 0.154536 0)
(1.60053 0.156855 0)
(1.51073 0.165738 0)
(1.38265 0.172513 2.88933e-17)
(1.26356 0.173852 2.87393e-17)
(1.07929 0.181795 0)
(0.87284 0.184418 0)
(0.62995 0.183457 0)
(0.413675 0.169735 -2.8322e-17)
(0.191801 0.162658 0)
(0.0397854 0.146497 5.63492e-17)
(-0.160423 0.143856 -5.62393e-17)
(-0.26322 0.123583 -5.60602e-17)
(-0.424502 0.126644 5.59564e-17)
(-0.459783 0.0965309 -5.57542e-17)
(-0.617753 0.129105 5.5734e-17)
(-0.565865 -0.00403195 0)
(0.0101401 0.248864 0)
(0.0145937 0.192032 0)
(0.0497313 0.00757695 -2.27961e-17)
(0.121109 -0.198665 0)
(0.23608 -0.384693 2.23649e-17)
(0.388444 -0.536074 2.22182e-17)
(0.569659 -0.644922 1.10437e-17)
(0.769601 -0.710842 1.09813e-17)
(0.976989 -0.737452 0)
(1.18126 -0.731181 1.08543e-17)
(1.37376 -0.695344 0)
(1.54719 -0.63703 0)
(1.69756 -0.562374 -2.13202e-17)
(1.82013 -0.477876 -1.05949e-17)
(1.91486 -0.385857 2.10557e-17)
(1.97994 -0.291202 2.09222e-17)
(2.01671 -0.198776 1.03955e-17)
(2.02527 -0.110642 0)
(2.00806 -0.027554 0)
(1.96505 0.0472431 0)
(1.90013 0.112768 1.01365e-17)
(1.81335 0.171904 0)
(1.70941 0.224794 -3.00371e-17)
(1.58712 0.267591 0)
(1.44881 0.302526 0)
(1.295 0.333069 -9.83179e-18)
(1.12917 0.357003 0)
(0.954074 0.374243 9.71544e-18)
(0.773535 0.38525 1.93125e-17)
(0.588448 0.392464 -9.59747e-18)
(0.401595 0.394506 0)
(0.214241 0.390655 0)
(0.0260825 0.383304 0)
(-0.162399 0.376249 1.8731e-17)
(-0.349405 0.367553 1.86165e-17)
(-0.533638 0.355179 9.25125e-18)
(-0.712372 0.340336 0)
(-0.886134 0.323218 -1.82761e-17)
(-1.05097 0.302675 0)
(-1.20917 0.280788 1.80507e-17)
(-1.3591 0.258322 0)
(-1.50241 0.235518 0)
(-1.63756 0.215126 -1.77165e-17)
(-1.76546 0.196046 0)
(-1.88859 0.178123 -5.24864e-17)
(-2.00601 0.159381 1.73856e-17)
(-2.11684 0.140507 0)
(-2.22068 0.123671 1.71655e-17)
(-2.31839 0.106119 1.70552e-17)
(-2.40873 0.0866496 0)
(-2.48989 0.0677628 0)
(-2.56397 0.0532413 0)
(-2.63284 0.0437732 0)
(-2.69844 0.038891 0)
(-2.76021 0.0374653 -1.63737e-17)
(-2.82011 0.0369542 -3.25151e-17)
(-2.87847 0.0370305 1.61414e-17)
(-2.93244 0.0344654 0)
(-2.98411 0.0305435 -3.18129e-17)
(-3.03362 0.0292264 1.57874e-17)
(-3.08031 0.0302085 0)
(-3.12799 0.0311394 1.55499e-17)
(-3.17347 0.0338372 0)
(-3.21695 0.0352591 0)
(-3.2588 0.0348076 3.03752e-17)
(-3.29968 0.0341435 -1.50673e-17)
(-3.33607 0.0320203 2.98916e-17)
(-3.36998 0.0292213 -2.96502e-17)
(-3.39801 0.0256288 -1.47045e-17)
(-3.42297 0.0209959 0)
(-3.44153 0.0135616 -1.44628e-17)
(-3.45323 0.00344732 0)
(-3.45918 -0.00722572 0)
(-3.45669 -0.0197486 0)
(-3.44497 -0.0340216 -1.39828e-17)
(-3.42497 -0.048097 0)
(-3.39845 -0.0583267 -2.74947e-17)
(-3.36607 -0.0655525 4.08937e-17)
(-3.32831 -0.0741437 1.35161e-17)
(-3.28425 -0.0852675 0)
(-3.23224 -0.0980412 1.32876e-17)
(-3.17493 -0.110785 0)
(-3.11196 -0.122903 2.61238e-17)
(-3.0438 -0.133984 0)
(-2.97061 -0.144524 2.56807e-17)
(-2.89229 -0.153925 -5.09214e-17)
(-2.81003 -0.162832 -2.52468e-17)
(-2.72539 -0.170771 0)
(-2.63578 -0.178275 0)
(-2.54397 -0.183867 0)
(-2.45002 -0.188035 2.44064e-17)
(-2.35277 -0.19205 0)
(-2.25434 -0.194726 -2.40002e-17)
(-2.15594 -0.195089 0)
(-2.057 -0.196663 7.08195e-17)
(-1.95811 -0.196007 2.34164e-17)
(-1.85864 -0.197008 2.32304e-17)
(-1.76124 -0.194227 0)
(-1.66628 -0.193546 0)
(-1.5707 -0.194401 0)
(-1.47274 -0.195034 0)
(-1.37572 -0.197442 0)
(-1.27313 -0.201618 4.43211e-17)
(-1.17694 -0.199657 4.39851e-17)
(-1.07745 -0.199728 0)
(-0.990276 -0.194011 -2.1675e-17)
(-0.894266 -0.194856 -2.15229e-17)
(-0.807506 -0.18806 0)
(-0.713142 -0.186949 -4.2443e-17)
(-0.635071 -0.186205 0)
(-0.538958 -0.196495 2.09374e-17)
(-0.453379 -0.190737 0)
(-0.347956 -0.199177 0)
(-0.253562 -0.195695 -4.10571e-17)
(-0.140586 -0.204498 0)
(-0.0366412 -0.204689 2.02719e-17)
(0.0885941 -0.212581 0)
(0.214894 -0.220187 0)
(0.350842 -0.224565 1.98867e-17)
(0.49147 -0.229005 1.97704e-17)
(0.636788 -0.234458 0)
(0.786076 -0.235031 -1.95332e-17)
(0.94548 -0.23625 0)
(1.10439 -0.228204 1.92966e-17)
(1.26886 -0.2186 3.83632e-17)
(1.4165 -0.212345 0)
(1.57349 -0.213748 0)
(1.71878 -0.214006 0)
(1.87863 -0.21561 0)
(2.02572 -0.210657 3.72311e-17)
(2.18029 -0.207418 1.11008e-16)
(2.31684 -0.188549 0)
(2.44099 -0.183386 0)
(2.56045 -0.172455 0)
(2.6654 -0.174305 -3.60801e-17)
(2.76781 -0.179059 0)
(2.86889 -0.178647 0)
(2.9638 -0.176735 7.06163e-17)
(3.05682 -0.176559 3.5034e-17)
(3.13226 -0.171822 3.47655e-17)
(3.21983 -0.179949 0)
(3.28448 -0.174043 0)
(3.3525 -0.175434 3.3921e-17)
(3.39968 -0.164571 -3.3615e-17)
(3.44559 -0.178619 0)
(3.47595 -0.175302 0)
(3.51015 -0.191153 -3.27218e-17)
(3.53869 -0.173347 9.71889e-17)
(3.55327 -0.168889 0)
(3.56399 -0.179775 0)
(3.57528 -0.191359 3.14602e-17)
(3.59591 -0.189256 0)
(3.59148 -0.182771 6.1627e-17)
(3.58948 -0.180874 -3.04724e-17)
(3.56193 -0.185238 0)
(3.55782 -0.194211 2.98463e-17)
(3.53317 -0.190605 5.90579e-17)
(3.52155 -0.192212 0)
(3.47451 -0.185367 0)
(3.45035 -0.194343 -2.85755e-17)
(3.40989 -0.186403 0)
(3.35253 -0.169502 5.58905e-17)
(3.25544 -0.150147 0)
(3.16343 -0.155171 0)
(3.04428 -0.146995 0)
(2.916 -0.121868 0)
(2.72158 -0.102628 -2.66545e-17)
(2.56251 -0.0756913 -2.64653e-17)
(2.27796 -0.0264519 0)
(2.00558 -0.00180733 0)
(1.67635 0.0228926 0)
(1.38071 0.0190677 2.59603e-17)
(1.04742 0.0233042 0)
(0.839899 0.0140735 -5.1673e-17)
(0.52001 0.0327034 5.16456e-17)
(0.405706 0.000960091 5.14979e-17)
(0.124486 0.0319857 5.14888e-17)
(0.123888 -0.0156655 5.13367e-17)
(-0.173555 0.0792332 5.14996e-17)
(0.0123795 -0.116957 0)
(0.0290429 0.0711731 0)
(0.121121 -0.0383012 0)
(0.228159 -0.241648 2.29132e-17)
(0.340222 -0.468613 2.26646e-17)
(0.474627 -0.69325 -2.25131e-17)
(0.618714 -0.875191 -2.24004e-17)
(0.772944 -1.00389 -1.48143e-21)
(0.924302 -1.07426 0)
(1.06955 -1.08514 0)
(1.19649 -1.04606 0)
(1.30545 -0.966263 0)
(1.39162 -0.856975 0)
(1.4574 -0.726457 6.47132e-17)
(1.49824 -0.586227 0)
(1.517 -0.441343 -2.13053e-17)
(1.51186 -0.294786 -2.1169e-17)
(1.48569 -0.153241 0)
(1.43707 -0.0195834 0)
(1.37064 0.104444 0)
(1.28616 0.217057 0)
(1.18596 0.316484 -2.05027e-17)
(1.07089 0.399558 0)
(0.945963 0.471938 2.02487e-17)
(0.808458 0.537052 0)
(0.661247 0.591911 0)
(0.505687 0.636834 0)
(0.347166 0.672783 3.95251e-17)
(0.184678 0.699978 0)
(0.0207148 0.719374 -1.95223e-17)
(-0.144259 0.729699 3.87999e-17)
(-0.308507 0.732767 0)
(-0.475025 0.734376 0)
(-0.641737 0.731226 0)
(-0.807274 0.721582 -1.89165e-17)
(-0.969193 0.706196 -1.87957e-17)
(-1.1279 0.68458 0)
(-1.2818 0.657171 0)
(-1.43011 0.625573 3.68589e-17)
(-1.5714 0.591464 3.66193e-17)
(-1.7109 0.557065 -3.63811e-17)
(-1.84531 0.5243 0)
(-1.9779 0.490738 0)
(-2.10481 0.458504 0)
(-2.22799 0.429075 0)
(-2.3469 0.401362 3.52005e-17)
(-2.45981 0.37211 3.49668e-17)
(-2.56757 0.342496 -3.47349e-17)
(-2.66977 0.313997 0)
(-2.76591 0.286146 0)
(-2.85677 0.257215 0)
(-2.94235 0.230469 0)
(-3.02799 0.212739 3.35755e-17)
(-3.10774 0.196901 0)
(-3.18248 0.183768 0)
(-3.25073 0.176031 3.2878e-17)
(-3.3143 0.170898 3.26464e-17)
(-3.37248 0.164038 0)
(-3.42302 0.15469 -6.43597e-17)
(-3.47161 0.147831 3.19485e-17)
(-3.51622 0.141398 -3.17141e-17)
(-3.55507 0.137632 0)
(-3.59097 0.134938 0)
(-3.62086 0.130767 0)
(-3.64586 0.126556 0)
(-3.66832 0.121364 -3.05523e-17)
(-3.68657 0.114042 -6.06457e-17)
(-3.69866 0.106218 -3.00973e-17)
(-3.70705 0.0978814 2.98724e-17)
(-3.7082 0.0863538 0)
(-3.70422 0.0731523 -5.88392e-17)
(-3.6922 0.0570878 -5.83908e-17)
(-3.67482 0.0409193 -5.79457e-17)
(-3.65315 0.0230907 5.75039e-17)
(-3.62262 0.00072821 0)
(-3.58511 -0.0220481 8.49403e-17)
(-3.54173 -0.0416354 0)
(-3.49358 -0.0571966 -2.78773e-17)
(-3.43683 -0.0710691 -2.76644e-17)
(-3.3721 -0.0867298 0)
(-3.3012 -0.103576 0)
(-3.2268 -0.120344 -5.40406e-17)
(-3.15014 -0.135262 0)
(-3.06948 -0.149558 -5.31937e-17)
(-2.98624 -0.163278 0)
(-2.89841 -0.177724 5.2355e-17)
(-2.80702 -0.189159 1.03882e-16)
(-2.71189 -0.198953 0)
(-2.61587 -0.208137 0)
(-2.51682 -0.215577 0)
(-2.41907 -0.22165 5.02903e-17)
(-2.31963 -0.22746 0)
(-2.2169 -0.232109 4.94682e-17)
(-2.11141 -0.235349 0)
(-2.00546 -0.234583 0)
(-1.89718 -0.234739 -9.65038e-17)
(-1.79163 -0.232386 0)
(-1.68417 -0.231896 -4.74611e-17)
(-1.58084 -0.225918 0)
(-1.47331 -0.226571 -4.66936e-17)
(-1.36653 -0.225701 0)
(-1.25763 -0.224748 0)
(-1.15007 -0.228521 0)
(-1.03973 -0.230679 -1.35691e-16)
(-0.939699 -0.222113 -4.48689e-17)
(-0.830793 -0.218737 0)
(-0.737859 -0.208165 0)
(-0.636342 -0.209499 0)
(-0.551043 -0.19722 0)
(-0.44707 -0.193433 4.32341e-17)
(-0.361371 -0.188263 -8.5833e-17)
(-0.254643 -0.205031 -4.26313e-17)
(-0.167862 -0.197311 8.46544e-17)
(-0.0485951 -0.21349 8.40915e-17)
(0.0529051 -0.209543 4.17597e-17)
(0.182633 -0.224681 0)
(0.295011 -0.225486 8.23939e-17)
(0.433512 -0.241714 0)
(0.565254 -0.250777 -8.12832e-17)
(0.713292 -0.257473 -4.03835e-17)
(0.859232 -0.261988 0)
(1.01383 -0.270274 7.97611e-17)
(1.16282 -0.273188 3.96275e-17)
(1.32478 -0.281169 0)
(1.4832 -0.278986 3.90896e-17)
(1.65668 -0.268634 -1.16508e-16)
(1.81621 -0.25677 0)
(1.98067 -0.256232 0)
(2.13274 -0.256076 0)
(2.2932 -0.259533 0)
(2.44993 -0.255051 -7.51551e-17)
(2.60616 -0.252024 -7.46564e-17)
(2.75779 -0.22121 0)
(2.89596 -0.214889 0)
(3.0275 -0.201412 0)
(3.14935 -0.199636 0)
(3.25644 -0.204784 0)
(3.37619 -0.208037 0)
(3.48908 -0.20669 -7.09521e-17)
(3.60183 -0.205518 -1.65154e-20)
(3.69719 -0.198018 0)
(3.80706 -0.209733 0)
(3.89712 -0.197575 -6.86078e-17)
(3.98966 -0.197959 0)
(4.06932 -0.177273 6.7427e-17)
(4.13881 -0.188106 6.6809e-17)
(4.18104 -0.170829 0)
(4.23539 -0.18889 0)
(4.27391 -0.165024 -6.49005e-17)
(4.32428 -0.156068 -1.28511e-16)
(4.35193 -0.160298 0)
(4.38501 -0.172317 0)
(4.42663 -0.163264 0)
(4.43995 -0.148904 -6.16922e-17)
(4.46848 -0.135672 6.10045e-17)
(4.46766 -0.135239 0)
(4.48714 -0.141412 1.19375e-16)
(4.4705 -0.129403 5.90337e-17)
(4.48737 -0.127984 -1.16774e-16)
(4.46453 -0.109317 0)
(4.46295 -0.116668 0)
(4.43243 -0.0952381 -1.12756e-16)
(4.39136 -0.0677227 -5.57217e-17)
(4.30662 -0.0383104 0)
(4.24309 -0.0363767 0)
(4.11074 -0.0185392 0)
(4.00111 0.0243162 0)
(3.78929 0.0522724 -1.05597e-16)
(3.62062 0.0960379 0)
(3.32227 0.1669 0)
(3.06392 0.191271 0)
(2.7147 0.219648 0)
(2.40004 0.203115 0)
(2.0109 0.186913 0)
(1.77371 0.153515 -1.00645e-16)
(1.36914 0.150443 0)
(1.24021 0.0828699 0)
(0.855474 0.105607 -1.99442e-16)
(0.849534 0.0234516 9.92612e-17)
(0.463258 0.112167 -9.94134e-17)
(0.658684 -0.12791 9.8793e-17)
(0.0206247 -0.094133 0)
(0.125069 -0.269461 -4.69564e-17)
(0.247826 -0.490106 0)
(0.375731 -0.755596 -2.27969e-17)
(0.502327 -0.999216 0)
(0.618344 -1.18803 0)
(0.722897 -1.30569 2.24458e-17)
(0.803496 -1.34909 0)
(0.866406 -1.31937 0)
(0.905699 -1.23377 0)
(0.927871 -1.11118 0)
(0.930749 -0.961993 0)
(0.919145 -0.794837 -8.66173e-17)
(0.890393 -0.617563 -4.30259e-17)
(0.847987 -0.434615 4.27463e-17)
(0.791654 -0.253326 0)
(0.723447 -0.0804065 0)
(0.642031 0.0812105 0)
(0.550875 0.23011 0)
(0.449486 0.36359 0)
(0.340641 0.481229 -4.11509e-17)
(0.222533 0.583152 -4.08982e-17)
(0.0964891 0.673924 4.0649e-17)
(-0.0353538 0.749991 -4.04013e-17)
(-0.171322 0.812825 0)
(-0.310055 0.861009 0)
(-0.450328 0.897128 -3.9658e-17)
(-0.590972 0.921901 0)
(-0.732559 0.936069 0)
(-0.87471 0.944684 -3.89247e-17)
(-1.01746 0.95013 -3.86814e-17)
(-1.15811 0.947773 -3.84368e-17)
(-1.29572 0.938606 0)
(-1.43011 0.923232 0)
(-1.55994 0.901648 3.76931e-17)
(-1.68477 0.871884 0)
(-1.80565 0.836212 0)
(-1.92291 0.796606 -3.69484e-17)
(-2.03713 0.758478 3.66969e-17)
(-2.14974 0.720273 -3.64482e-17)
(-2.25587 0.681457 0)
(-2.36032 0.642026 0)
(-2.4607 0.605632 -7.14193e-17)
(-2.55828 0.571348 0)
(-2.6505 0.53325 -7.04533e-17)
(-2.73925 0.495215 -1.04963e-16)
(-2.82436 0.459431 1.04242e-16)
(-2.90421 0.423193 -6.90144e-17)
(-2.98089 0.386022 0)
(-3.05501 0.350496 0)
(-3.12872 0.322424 -6.76021e-17)
(-3.1997 0.29802 -3.35706e-17)
(-3.26433 0.272515 0)
(-3.32476 0.251476 0)
(-3.38058 0.236132 -3.28787e-17)
(-3.43093 0.219279 -6.52974e-17)
(-3.47504 0.200329 0)
(-3.51315 0.182405 6.43794e-17)
(-3.5474 0.167999 -6.39201e-17)
(-3.57624 0.154374 6.34643e-17)
(-3.59933 0.140481 0)
(-3.6162 0.127252 0)
(-3.62868 0.116135 0)
(-3.63587 0.104994 0)
(-3.63943 0.0949116 0)
(-3.63761 0.0791476 6.07744e-17)
(-3.63143 0.0620462 0)
(-3.61858 0.043412 0)
(-3.5999 0.0223847 0)
(-3.57709 0.000376515 1.18047e-16)
(-3.54872 -0.0236974 5.85912e-17)
(-3.51556 -0.047819 5.81576e-17)
(-3.47735 -0.0749433 -1.15457e-16)
(-3.43272 -0.106476 5.73034e-17)
(-3.38467 -0.136663 -5.6884e-17)
(-3.33037 -0.16434 0)
(-3.27118 -0.190495 5.60371e-17)
(-3.20208 -0.217331 0)
(-3.12878 -0.242624 0)
(-3.04987 -0.264625 0)
(-2.96946 -0.2855 1.08718e-16)
(-2.8869 -0.30481 -5.39459e-17)
(-2.80105 -0.323977 -5.35326e-17)
(-2.71394 -0.342952 -1.0627e-16)
(-2.62286 -0.362993 -1.58216e-16)
(-2.53077 -0.378971 -5.23434e-17)
(-2.43388 -0.392034 0)
(-2.33728 -0.403539 -1.0307e-16)
(-2.23914 -0.411546 0)
(-2.14106 -0.417708 -1.52204e-16)
(-2.04228 -0.427575 0)
(-1.94463 -0.433938 -1.49829e-16)
(-1.84093 -0.440186 0)
(-1.73678 -0.440855 0)
(-1.62791 -0.442407 -4.87462e-17)
(-1.52053 -0.439268 0)
(-1.40984 -0.438943 4.7972e-17)
(-1.30388 -0.434406 9.51558e-17)
(-1.19006 -0.436065 4.72033e-17)
(-1.08021 -0.437777 9.36489e-17)