/*--------------------------------*- C++ -*----------------------------------*\
| =========                 |                                                 |
| \\      /  F ield         | OpenFOAM: The Open Source CFD Toolbox           |
|  \\    /   O peration     | Version:  dev                                   |
|   \\  /    A nd           | Web:      http://www.openfoam.org               |
|    \\/     M anipulation  |                                                 |
\*---------------------------------------------------------------------------*/
FoamFile
{
    version     2.0;
    format      ascii;
    class       volSymmTensorField;
    object      UPrime2Mean;
    location    "9.145";
}
// * * * * * * * * * * * * * * * * * * * * * * * * * * * * * * * * * * * * * //

dimensions      [0 2 -2 0 0 0 0];

internalField   nonuniform List<symmTensor> 
12225
(
(0.329474 0.0192636 0 0.0692545 0 0)
(2.98837 0.0796721 0 0.0781764 0 0)
(7.88617 0.112262 0 0.0768804 0 0)
(14.5451 0.14816 0 0.0755565 0 0)
(22.7195 0.132897 0 0.0765035 0 0)
(32.0904 0.200978 0 0.0746605 0 0)
(42.4102 0.0958316 0 0.0766015 0 0)
(53.5616 0.200223 0 0.0738413 0 0)
(65.6638 -0.0285727 0 0.0776028 0 0)
(78.2693 0.125431 0 0.0736122 0 0)
(93.0256 -0.306373 0 0.0813047 0 0)
(107.376 -0.116096 0 0.0769869 0 0)
(128 -0.672286 0 0.0863062 0 0)
(145.708 -1.27749 0 0.13473 0 0)
(186.058 -1.41143 0 0.116468 0 0)
(198.635 -0.390634 0 2.39524 0 0)
(272.442 -33.5547 0 5.81144 0 0)
(576.082 -52.9734 0 18.8391 0 0)
(0.377674 0.056783 0 0.688855 0 0)
(3.15844 0.252174 0 0.732138 0 0)
(8.41701 0.36201 0 0.714005 0 0)
(15.4849 0.485242 0 0.706502 0 0)
(24.215 0.452754 0 0.703372 0 0)
(34.4817 0.632597 0 0.683205 0 0)
(45.5568 0.295759 0 0.692004 0 0)
(58.5219 0.608708 0 0.658683 0 0)
(71.5213 -0.135468 0 0.682539 0 0)
(87.2077 0.282166 0 0.645895 0 0)
(102.851 -1.06552 0 0.711204 0 0)
(121.508 -0.766803 0 0.655446 0 0)
(142.944 -2.5434 0 1.0691 0 0)
(166.419 -4.49205 0 1.0469 0 0)
(199.899 -0.924946 0 3.10453 0 0)
(274.554 -9.97586 0 6.61098 0 0)
(281.174 -20.8469 0 8.73916 0 0)
(800.322 -185.286 0 64.7363 0 0)
(0.505253 0.0583367 0 2.14022 0 0)
(3.06615 0.424523 0 2.20212 0 0)
(8.47181 0.570349 0 2.15106 0 0)
(14.8633 0.851675 0 2.14255 0 0)
(24.2925 0.864205 0 2.11947 0 0)
(33.1742 1.05277 0 2.08226 0 0)
(45.3013 0.755848 0 2.07804 0 0)
(56.2417 0.885875 0 2.00725 0 0)
(69.7324 0.171763 0 2.05143 0 0)
(83.5066 0.0161463 0 1.95906 0 0)
(98.2531 -1.12412 0 2.12231 0 0)
(115.746 -2.45013 0 2.0944 0 0)
(138.716 -3.59789 0 2.6225 0 0)
(154.982 -7.20192 0 2.83206 0 0)
(211.165 -13.0178 0 6.12612 0 0)
(223.546 -7.88437 0 6.38015 0 0)
(353.301 -62.303 0 31.0948 0 0)
(534.93 -192.662 0 98.3169 0 0)
(1.03009 0.092293 0 4.6697 0 0)
(3.55177 0.619361 0 4.76623 0 0)
(9.07501 0.815583 0 4.64207 0 0)
(15.077 1.14964 0 4.60131 0 0)
(24.6534 1.31248 0 4.55706 0 0)
(33.0072 1.3494 0 4.48272 0 0)
(45.0363 1.26077 0 4.44778 0 0)
(55.2072 0.972718 0 4.34926 0 0)
(68.6477 0.474946 0 4.38109 0 0)
(80.7711 -0.283918 0 4.25741 0 0)
(96.102 -1.33258 0 4.50693 0 0)
(110.594 -3.34436 0 4.37211 0 0)
(131.565 -4.79664 0 5.30241 0 0)
(152.369 -10.9792 0 5.60961 0 0)
(187.991 -11.4325 0 9.28956 0 0)
(238.611 -28.8815 0 16.8376 0 0)
(291.715 -58.9759 0 32.6923 0 0)
(415.067 -178.391 0 107.855 0 0)
(1.86387 0.36496 0 8.52134 0 0)
(5.01128 0.720066 0 8.72281 0 0)
(9.44251 1.13972 0 8.47168 0 0)
(16.2522 1.29415 0 8.36857 0 0)
(24.6667 1.70029 0 8.27898 0 0)
(33.9697 1.50173 0 8.14392 0 0)
(44.8527 1.59695 0 8.04328 0 0)
(55.5616 0.991806 0 7.91125 0 0)
(68.4642 0.598863 0 7.85827 0 0)
(80.1782 -0.595828 0 7.76053 0 0)
(95.4393 -1.78178 0 7.96242 0 0)
(108.634 -4.23138 0 7.90993 0 0)
(128.188 -6.88552 0 9.02759 0 0)
(145.326 -12.2949 0 9.27 0 0)
(174.084 -19.2119 0 14.5939 0 0)
(218.063 -25.9714 0 17.22 0 0)
(233.821 -55.6186 0 46.2801 0 0)
(326.876 -171.832 0 138.711 0 0)
(2.56361 0.750698 0 14.0377 0 0)
(6.32933 0.806937 0 14.3896 0 0)
(9.30765 1.5397 0 13.9597 0 0)
(17.1089 1.59387 0 13.765 0 0)
(24.1592 2.12008 0 13.5903 0 0)
(34.2912 1.93558 0 13.3583 0 0)
(44.0089 1.99002 0 13.1532 0 0)
(55.2116 1.41362 0 12.9126 0 0)
(67.3788 0.892542 0 12.7761 0 0)
(78.9676 -0.38895 0 12.5753 0 0)
(94.4977 -1.74178 0 12.7761 0 0)
(105.906 -4.31682 0 12.6849 0 0)
(128.212 -7.27259 0 13.9883 0 0)
(138.035 -13.1642 0 14.669 0 0)
(171.101 -21.8479 0 21.2559 0 0)
(191.631 -33.0583 0 24.6118 0 0)
(211.183 -55.9391 0 51.5961 0 0)
(265.894 -145.755 0 130.698 0 0)
(2.24726 0.722032 0 21.529 0 0)
(5.54952 0.941155 0 22.1451 0 0)
(9.2083 1.76341 0 21.3708 0 0)
(16.3537 2.07688 0 21.1831 0 0)
(23.9927 2.44907 0 20.7845 0 0)
(33.391 2.54158 0 20.5513 0 0)
(43.6467 2.2726 0 20.0831 0 0)
(54.0928 1.9261 0 19.8532 0 0)
(66.5395 0.894046 0 19.4355 0 0)
(77.4231 -0.221747 0 19.2828 0 0)
(92.5927 -2.37633 0 19.2233 0 0)
(103.579 -4.82827 0 19.2661 0 0)
(123.743 -8.9885 0 20.477 0 0)
(134.026 -14.2698 0 21.4557 0 0)
(161.674 -24.4165 0 28.5246 0 0)
(169.515 -32.4257 0 32.0593 0 0)
(203.525 -59.0405 0 56.8957 0 0)
(190.428 -108.864 0 114.214 0 0)
(1.42649 0.598979 0 29.7497 0 0)
(4.32629 1.13471 0 30.6352 0 0)
(8.59069 1.92363 0 29.4879 0 0)
(15.2641 2.47197 0 29.3167 0 0)
(23.2257 2.77624 0 28.6715 0 0)
(32.2916 2.96185 0 28.4105 0 0)
(42.4532 2.59605 0 27.6589 0 0)
(52.8318 2.18838 0 27.3784 0 0)
(64.4792 1.00362 0 26.6548 0 0)
(75.6743 -0.368023 0 26.4898 0 0)
(88.7162 -2.75798 0 26.1067 0 0)
(100.508 -5.74291 0 26.3316 0 0)
(115.638 -10.3312 0 27.0888 0 0)
(128.175 -15.8118 0 28.6044 0 0)
(144.779 -26.5086 0 33.9227 0 0)
(152.144 -33.4782 0 37.4868 0 0)
(180.483 -54.9307 0 53.2113 0 0)
(139.694 -71.3566 0 83.7343 0 0)
(1.0087 0.521488 0 38.5192 0 0)
(3.78154 1.2877 0 39.7136 0 0)
(8.1867 2.03525 0 38.1762 0 0)
(14.739 2.77883 0 38.0351 0 0)
(22.6705 3.00429 0 37.1253 0 0)
(31.6106 3.31375 0 36.8502 0 0)
(41.5364 2.80196 0 35.7993 0 0)
(51.8138 2.46957 0 35.4808 0 0)
(62.8774 1.03339 0 34.4722 0 0)
(73.8991 -0.287361 0 34.2724 0 0)
(85.7247 -3.05401 0 33.6419 0 0)
(97.0901 -5.91314 0 33.9018 0 0)
(109.426 -10.9611 0 34.4118 0 0)
(121.307 -16.054 0 36.1317 0 0)
(131.323 -25.5819 0 40.0179 0 0)
(138.248 -33.229 0 44.7476 0 0)
(150.108 -47.3514 0 52.4819 0 0)
(123.289 -58.7845 0 73.1493 0 0)
(0.61276 0.48454 0 49.7038 0 0)
(3.23827 1.44557 0 51.2919 0 0)
(7.74702 2.18574 0 49.1956 0 0)
(14.2082 3.03466 0 49.1083 0 0)
(22.0071 3.27138 0 47.819 0 0)
(30.8702 3.57642 0 47.5397 0 0)
(40.5005 3.06103 0 46.0785 0 0)
(50.6411 2.63161 0 45.71 0 0)
(61.1712 1.15524 0 44.2906 0 0)
(71.8454 -0.301378 0 44.0473 0 0)
(82.7333 -3.15251 0 43.0033 0 0)
(93.282 -6.05101 0 43.3227 0 0)
(103.929 -11.109 0 43.3239 0 0)
(113.798 -15.8627 0 45.1811 0 0)
(121.412 -24.5269 0 47.6867 0 0)
(125.853 -30.5932 0 51.9573 0 0)
(129.19 -40.745 0 56.4813 0 0)
(116.082 -48.4194 0 69.0504 0 0)
(0.43443 0.516081 0 63.8959 0 0)
(2.9808 1.62679 0 65.9507 0 0)
(7.47412 2.38233 0 63.2592 0 0)
(13.8539 3.30848 0 63.1473 0 0)
(21.5043 3.5669 0 61.5136 0 0)
(30.2069 3.85551 0 61.099 0 0)
(39.5706 3.35119 0 59.2912 0 0)
(49.4139 2.81195 0 58.6964 0 0)
(59.4888 1.36102 0 56.976 0 0)
(69.5968 -0.27788 0 56.4583 0 0)
(79.6973 -2.99474 0 55.1561 0 0)
(89.2367 -6.09679 0 55.2122 0 0)
(98.5588 -10.5712 0 54.867 0 0)
(106.439 -15.4361 0 56.4152 0 0)
(112.607 -22.1544 0 57.8606 0 0)
(115.142 -28.0719 0 61.5911 0 0)
(116.088 -35.2214 0 64.5582 0 0)
(109.632 -40.8229 0 71.4599 0 0)
(0.356545 0.540332 0 81.3863 0 0)
(2.83305 1.74396 0 84.0712 0 0)
(7.26569 2.55322 0 80.6038 0 0)
(13.5233 3.49886 0 80.4945 0 0)
(21.0001 3.80535 0 78.4082 0 0)
(29.4825 4.03194 0 77.8551 0 0)
(38.5437 3.5543 0 75.566 0 0)
(48.0173 2.91134 0 74.7415 0 0)
(57.5745 1.47119 0 72.5496 0 0)
(67.0712 -0.234631 0 71.7628 0 0)
(76.2878 -2.88632 0 70.0076 0 0)
(84.877 -5.87322 0 69.7489 0 0)
(92.7864 -9.9798 0 68.914 0 0)
(99.218 -14.3101 0 69.8683 0 0)
(103.934 -19.7593 0 70.5118 0 0)
(105.879 -24.6742 0 73.0171 0 0)
(106.034 -29.8417 0 74.9601 0 0)
(101.786 -33.3276 0 78.6183 0 0)
(0.32943 0.568719 0 102.461 0 0)
(2.73752 1.80548 0 105.67 0 0)
(7.0724 2.68086 0 101.645 0 0)
(13.1617 3.58012 0 101.175 0 0)
(20.443 3.92898 0 98.9111 0 0)
(28.6302 4.0489 0 97.8315 0 0)
(37.3666 3.60782 0 95.317 0 0)
(46.3701 2.82471 0 93.8676 0 0)
(55.4017 1.46353 0 91.4314 0 0)
(64.1856 -0.354712 0 89.9804 0 0)
(72.5673 -2.77414 0 87.954 0 0)
(80.1599 -5.70665 0 86.9801 0 0)
(86.8836 -9.2185 0 85.7687 0 0)
(92.1463 -13.1091 0 85.7765 0 0)
(95.8495 -17.329 0 85.7271 0 0)
(97.4347 -21.3972 0 86.8696 0 0)
(97.5373 -25.2431 0 87.8974 0 0)
(94.7321 -27.6993 0 89.5033 0 0)
(0.31381 0.572878 0 126.452 0 0)
(2.64209 1.77248 0 130.381 0 0)
(6.85143 2.66495 0 125.671 0 0)
(12.7372 3.45947 0 124.861 0 0)
(19.7763 3.78629 0 122.33 0 0)
(27.6294 3.79933 0 120.754 0 0)
(35.9736 3.32481 0 117.871 0 0)
(44.486 2.4769 0 115.838 0 0)
(52.9255 1.12098 0 112.977 0 0)
(61.0218 -0.643406 0 110.886 0 0)
(68.5733 -2.91264 0 108.395 0 0)
(75.299 -5.54581 0 106.669 0 0)
(81.0389 -8.60243 0 104.901 0 0)
(85.4896 -11.8272 0 103.897 0 0)
(88.5362 -15.1915 0 103.066 0 0)
(89.9744 -18.3602 0 102.892 0 0)
(90.2769 -21.2804 0 102.905 0 0)
(88.3133 -22.9281 0 103.058 0 0)
(0.299409 0.52436 0 151.864 0 0)
(2.53408 1.58002 0 156.366 0 0)
(6.58711 2.37463 0 151.236 0 0)
(12.2391 2.98382 0 149.798 0 0)
(18.9827 3.20642 0 147.238 0 0)
(26.4643 3.06357 0 144.926 0 0)
(34.3675 2.52229 0 141.837 0 0)
(42.3595 1.58937 0 139.03 0 0)
(50.1989 0.259144 0 135.831 0 0)
(57.6207 -1.44664 0 132.954 0 0)
(64.436 -3.50938 0 130.002 0 0)
(70.4168 -5.84801 0 127.43 0 0)
(75.4327 -8.42597 0 125.027 0 0)
(79.3209 -11.0791 0 123.025 0 0)
(82.0201 -13.7181 0 121.311 0 0)
(83.4386 -16.1838 0 119.972 0 0)
(84.0213 -18.3831 0 118.883 0 0)
(82.814 -19.43 0 117.772 0 0)
(0.284116 0.393605 0 175.084 0 0)
(2.41562 1.14369 0 180.283 0 0)
(6.28673 1.66755 0 174.675 0 0)
(11.677 1.99883 0 172.793 0 0)
(18.0868 1.99512 0 170.111 0 0)
(25.1697 1.65748 0 167.259 0 0)
(32.6047 0.976062 0 163.873 0 0)
(40.0762 -0.0336648 0 160.476 0 0)
(47.3368 -1.36881 0 156.858 0 0)
(54.1532 -2.98149 0 153.344 0 0)
(60.3471 -4.8506 0 149.857 0 0)
(65.7544 -6.8822 0 146.565 0 0)
(70.2702 -9.03724 0 143.468 0 0)
(73.8212 -11.1859 0 140.613 0 0)
(76.378 -13.2505 0 138.022 0 0)
(77.9048 -15.1507 0 135.696 0 0)
(78.7871 -16.7988 0 133.584 0 0)
(78.2385 -17.3971 0 131.386 0 0)
(0.268888 0.155822 0 190.193 0 0)
(2.2947 0.389341 0 195.865 0 0)
(5.97006 0.486223 0 189.971 0 0)
(11.0811 0.406729 0 187.828 0 0)
(17.1405 0.0691916 0 185.081 0 0)
(23.8155 -0.540041 0 181.911 0 0)
(30.7886 -1.41004 0 178.331 0 0)
(37.7642 -2.53309 0 174.578 0 0)
(44.5062 -3.88355 0 170.666 0 0)
(50.8082 -5.42429 0 166.747 0 0)
(56.5173 -7.11184 0 162.855 0 0)
(61.5117 -8.88107 0 159.075 0 0)
(65.7159 -10.6775 0 155.439 0 0)
(69.1007 -12.4232 0 151.977 0 0)
(71.6587 -14.0421 0 148.711 0 0)
(73.3789 -15.5127 0 145.667 0 0)
(74.5743 -16.7492 0 142.774 0 0)
(74.6191 -17.0707 0 139.78 0 0)
(0.259238 -0.143002 0 190.166 0 0)
(2.19714 -0.535884 0 195.796 0 0)
(5.6933 -0.940377 0 189.965 0 0)
(10.5481 -1.49659 0 187.813 0 0)
(16.2917 -2.21799 0 185.109 0 0)
(22.6062 -3.12131 0 181.945 0 0)
(29.1836 -4.1957 0 178.391 0 0)
(35.751 -5.43542 0 174.641 0 0)
(42.0855 -6.80999 0 170.716 0 0)
(48.0095 -8.29079 0 166.763 0 0)
(53.3868 -9.83104 0 162.789 0 0)
(58.129 -11.3882 0 158.903 0 0)
(62.1749 -12.9095 0 155.09 0 0)
(65.5185 -14.3514 0 151.427 0 0)
(68.1586 -15.6487 0 147.885 0 0)
(70.1005 -16.8085 0 144.547 0 0)
(71.5777 -17.7555 0 141.299 0 0)
(72.1121 -17.9606 0 137.969 0 0)
(0.25607 -0.396797 0 174.35 0 0)
(2.13794 -1.30772 0 179.301 0 0)
(5.50246 -2.13013 0 173.972 0 0)
(10.1673 -3.07948 0 171.979 0 0)
(15.6773 -4.10879 0 169.498 0 0)
(21.7276 -5.23878 0 166.608 0 0)
(28.0209 -6.46236 0 163.357 0 0)
(34.3025 -7.77643 0 159.933 0 0)
(40.3622 -9.15255 0 156.327 0 0)
(46.0434 -10.5708 0 152.699 0 0)
(51.2208 -11.9892 0 149.015 0 0)
(55.826 -13.3813 0 145.409 0 0)
(59.8057 -14.7021 0 141.826 0 0)
(63.1639 -15.9284 0 138.374 0 0)
(65.8986 -17.0088 0 134.99 0 0)
(68.0274 -17.9585 0 131.789 0 0)
(69.7193 -18.7162 0 128.634 0 0)
(70.6171 -18.904 0 125.435 0 0)
(0.257514 -0.545841 0 148.919 0 0)
(2.11012 -1.74859 0 152.875 0 0)
(5.38796 -2.82483 0 148.34 0 0)
(9.92509 -4.00895 0 146.623 0 0)
(15.2783 -5.21333 0 144.501 0 0)
(21.1517 -6.46296 0 142.048 0 0)
(27.2571 -7.74984 0 139.284 0 0)
(33.3526 -9.07579 0 136.379 0 0)
(39.2383 -10.4135 0 133.307 0 0)
(44.7703 -11.7529 0 130.216 0 0)
(49.8333 -13.0558 0 127.06 0 0)
(54.368 -14.3091 0 123.965 0 0)
(58.3282 -15.4733 0 120.871 0 0)
(61.7193 -16.5396 0 117.882 0 0)
(64.5406 -17.4642 0 114.934 0 0)
(66.8141 -18.2663 0 112.136 0 0)
(68.6651 -18.8953 0 109.364 0 0)
(69.826 -19.1049 0 106.573 0 0)
(0.260375 -0.601566 0 120.021 0 0)
(2.10116 -1.8906 0 122.99 0 0)
(5.32186 -3.06915 0 119.342 0 0)
(9.77356 -4.34269 0 117.948 0 0)
(15.0219 -5.60148 0 116.242 0 0)
(20.7775 -6.87166 0 114.278 0 0)
(26.7591 -8.14293 0 112.065 0 0)
(32.7339 -9.42064 0 109.739 0 0)
(38.5091 -10.6794 0 107.275 0 0)
(43.9495 -11.9162 0 104.791 0 0)
(48.9473 -13.0971 0 102.249 0 0)
(53.448 -14.2176 0 99.7508 0 0)
(57.4104 -15.2434 0 97.2463 0 0)
(60.8391 -16.1743 0 94.821 0 0)
(63.7345 -16.9734 0 92.423 0 0)
(66.1213 -17.6602 0 90.1397 0 0)
(68.0944 -18.1938 0 87.875 0 0)
(69.4542 -18.4294 0 85.6 0 0)
(0.263325 -0.590751 0 91.875 0 0)
(2.10081 -1.83071 0 93.9898 0 0)
(5.28407 -2.99784 0 91.1992 0 0)
(9.67886 -4.24866 0 90.1257 0 0)
(14.8566 -5.46933 0 88.8264 0 0)
(20.5336 -6.68227 0 87.3317 0 0)
(26.4334 -7.87704 0 85.6511 0 0)
(32.3293 -9.0586 0 83.8793 0 0)
(38.0344 -10.2063 0 82.0036 0 0)
(43.4184 -11.3187 0 80.1067 0 0)
(48.3797 -12.369 0 78.1659 0 0)
(52.866 -13.3556 0 76.2515 0 0)
(56.8396 -14.2509 0 74.3336 0 0)
(60.3037 -15.0574 0 72.4703 0 0)
(63.26 -15.7472 0 70.6291 0 0)
(65.7355 -16.335 0 68.8692 0 0)
(67.8031 -16.7918 0 67.1266 0 0)
(69.3157 -17.0413 0 65.3737 0 0)
(0.266392 -0.536916 0 66.9253 0 0)
(2.10464 -1.65143 0 68.3653 0 0)
(5.26273 -2.7316 0 66.3338 0 0)
(9.61977 -3.88477 0 65.5509 0 0)
(14.7502 -5.00465 0 64.6128 0 0)
(20.3748 -6.1071 0 63.5309 0 0)
(26.2211 -7.18409 0 62.3168 0 0)
(32.0658 -8.23749 0 61.0311 0 0)
(37.7269 -9.2525 0 59.6723 0 0)
(43.0774 -10.2266 0 58.2925 0 0)
(48.0196 -11.1407 0 56.8836 0 0)
(52.5028 -11.9922 0 55.4891 0 0)
(56.4914 -12.7617 0 54.0952 0 0)
(59.9876 -13.451 0 52.7365 0 0)
(62.9939 -14.0404 0 51.3965 0 0)
(65.5385 -14.5393 0 50.1107 0 0)
(67.6786 -14.9293 0 48.8411 0 0)
(69.3091 -15.1771 0 47.5601 0 0)
(0.268244 -0.463016 0 46.2838 0 0)
(2.10906 -1.41639 0 47.2223 0 0)
(5.25088 -2.36452 0 45.8218 0 0)
(9.58294 -3.37611 0 45.2837 0 0)
(14.6817 -4.35744 0 44.6425 0 0)
(20.2717 -5.31794 0 43.8988 0 0)
(26.0833 -6.25257 0 43.0647 0 0)
(31.8957 -7.15963 0 42.1775 0 0)
(37.53 -8.03016 0 41.242 0 0)
(42.8612 -8.85948 0 40.2889 0 0)
(47.7942 -9.63533 0 39.3189 0 0)
(52.2794 -10.3537 0 38.3564 0 0)
(56.2825 -11.0023 0 37.3969 0 0)
(59.8047 -11.5805 0 36.4589 0 0)
(62.849 -12.0761 0 35.5357 0 0)
(65.4444 -12.4929 0 34.6467 0 0)
(67.6365 -12.8208 0 33.7718 0 0)
(69.353 -13.0512 0 32.8858 0 0)
(0.269412 -0.383191 0 30.1542 0 0)
(2.1126 -1.16506 0 30.7384 0 0)
(5.24413 -1.95895 0 29.8283 0 0)
(9.55945 -2.80815 0 29.4811 0 0)
(14.6369 -3.63202 0 29.069 0 0)
(20.2036 -4.43676 0 28.5884 0 0)
(25.9922 -5.21859 0 28.0493 0 0)
(31.7824 -5.97449 0 27.4736 0 0)
(37.3979 -6.69794 0 26.8676 0 0)
(42.7145 -7.38418 0 26.2492 0 0)
(47.6392 -8.02468 0 25.6213 0 0)
(52.1217 -8.61528 0 24.9969 0 0)
(56.1302 -9.14802 0 24.3759 0 0)
(59.6645 -9.62102 0 23.7673 0 0)
(62.7285 -10.0267 0 23.1692 0 0)
(65.3498 -10.3654 0 22.5915 0 0)
(67.5689 -10.6326 0 22.0246 0 0)
(69.3384 -10.8302 0 21.449 0 0)
(0.26974 -0.304689 0 18.2093 0 0)
(2.11437 -0.92011 0 18.5534 0 0)
(5.23875 -1.55462 0 18.0028 0 0)
(9.54003 -2.23771 0 17.7968 0 0)
(14.5984 -2.90204 0 17.5537 0 0)
(20.1431 -3.5522 0 17.2692 0 0)
(25.9072 -4.18346 0 16.949 0 0)
(31.6719 -4.79247 0 16.6061 0 0)
(37.2616 -5.37271 0 16.2443 0 0)
(42.553 -5.92068 0 15.8743 0 0)
(47.4551 -6.42911 0 15.4977 0 0)
(51.9166 -6.89565 0 15.1226 0 0)
(55.9093 -7.31346 0 14.7492 0 0)
(59.4308 -7.68226 0 14.3824 0 0)
(62.4896 -7.99625 0 14.022 0 0)
(65.1081 -8.25601 0 13.673 0 0)
(67.3303 -8.46071 0 13.331 0 0)
(69.1273 -8.61111 0 12.9842 0 0)
(0.269383 -0.228337 0 9.88081 0 0)
(2.1121 -0.691491 0 10.0643 0 0)
(5.22152 -1.17902 0 9.76713 0 0)
(9.49653 -1.70887 0 9.66476 0 0)
(14.5247 -2.22341 0 9.54036 0 0)
(20.0359 -2.72395 0 9.39117 0 0)
(25.7631 -3.20615 0 9.22051 0 0)
(31.4898 -3.66754 0 9.03629 0 0)
(37.0404 -4.10236 0 8.84056 0 0)
(42.2945 -4.50906 0 8.63957 0 0)
(47.1606 -4.88204 0 8.43394 0 0)
(51.592 -5.22144 0 8.22882 0 0)
(55.5594 -5.52149 0 8.02367 0 0)
(59.0646 -5.78437 0 7.82243 0 0)
(62.1151 -6.00399 0 7.62417 0 0)
(64.7326 -6.18388 0 7.43288 0 0)
(66.9585 -6.32703 0 7.24613 0 0)
(68.7888 -6.42909 0 7.05794 0 0)
(0.268236 -0.154848 0 4.48539 0 0)
(2.08523 -0.498004 0 4.58099 0 0)
(5.16021 -0.852568 0 4.45581 0 0)
(9.39566 -1.22901 0 4.42018 0 0)
(14.3982 -1.58612 0 4.36911 0 0)
(19.8839 -1.9285 0 4.30468 0 0)
(25.5845 -2.25353 0 4.22737 0 0)
(31.2852 -2.55893 0 4.14088 0 0)
(36.8127 -2.84313 0 4.04786 0 0)
(42.0461 -3.10729 0 3.95205 0 0)
(46.8955 -3.3485 0 3.85425 0 0)
(51.3175 -3.56763 0 3.75716 0 0)
(55.279 -3.76091 0 3.66028 0 0)
(58.7902 -3.93042 0 3.56631 0 0)
(61.8472 -4.07005 0 3.47365 0 0)
(64.4835 -4.1851 0 3.38619 0 0)
(66.7066 -4.27559 0 3.30095 0 0)
(68.565 -4.34564 0 3.21676 0 0)
(0.255334 -0.0882115 0 1.42078 0 0)
(2.06926 -0.313505 0 1.48651 0 0)
(5.20871 -0.526073 0 1.44646 0 0)
(9.50266 -0.734471 0 1.4333 0 0)
(14.5587 -0.92459 0 1.41319 0 0)
(20.0957 -1.10724 0 1.38992 0 0)
(25.8526 -1.28391 0 1.36329 0 0)
(31.6124 -1.45205 0 1.33396 0 0)
(37.2015 -1.61001 0 1.30297 0 0)
(42.494 -1.7576 0 1.27136 0 0)
(47.403 -1.89335 0 1.23955 0 0)
(51.8774 -2.01725 0 1.20814 0 0)
(55.8888 -2.12728 0 1.1771 0 0)
(59.4398 -2.2241 0 1.14713 0 0)
(62.5303 -2.30362 0 1.11787 0 0)
(65.1981 -2.36984 0 1.09139 0 0)
(67.421 -2.42245 0 1.06618 0 0)
(69.2715 -2.46193 0 1.03922 0 0)
(0.246011 -0.0253334 0 0.141822 0 0)
(2.06708 -0.0978395 0 0.153603 0 0)
(5.18758 -0.165581 0 0.150818 0 0)
(9.45066 -0.230829 0 0.149648 0 0)
(14.488 -0.293732 0 0.147346 0 0)
(20.0123 -0.354068 0 0.144618 0 0)
(25.7625 -0.412894 0 0.141619 0 0)
(31.52 -0.469394 0 0.138489 0 0)
(37.1162 -0.522742 0 0.135266 0 0)
(42.4266 -0.572748 0 0.132014 0 0)
(47.3659 -0.61911 0 0.128757 0 0)
(51.8812 -0.661796 0 0.125555 0 0)
(55.9461 -0.700237 0 0.122412 0 0)
(59.5557 -0.734288 0 0.119388 0 0)
(62.7164 -0.763214 0 0.116564 0 0)
(65.4611 -0.78846 0 0.114227 0 0)
(67.7742 -0.806677 0 0.112153 0 0)
(69.7024 -0.815963 0 0.111769 0 0)
(0.0244844 0.0357647 0 0.717318 0 0)
(0.267279 0.0991164 0 0.678379 0 0)
(0.785494 0.180946 0 0.671208 0 0)
(1.53895 0.295004 0 0.661991 0 0)
(2.48594 0.424003 0 0.660394 0 0)
(3.60827 0.568781 0 0.657127 0 0)
(4.88404 0.7158 -2.38361e-19 0.655161 -6.48414e-20 1.478e-37)
(6.31036 0.866672 2.42351e-19 0.650848 6.91378e-20 1.4825e-37)
(7.88057 1.0136 0 0.644831 0 0)
(9.59266 1.161 2.44751e-19 0.637251 6.8549e-20 1.4603e-37)
(11.4414 1.30501 0 0.628666 0 0)
(13.4209 1.44787 0 0.619573 0 0)
(15.5245 1.58496 0 0.611621 0 0)
(17.7459 1.71662 -2.77268e-19 0.605155 -5.16682e-20 1.34682e-37)
(20.079 1.8397 0 0.598944 0 0)
(22.5243 1.95328 0 0.593716 0 0)
(25.0819 2.05316 3.40432e-19 0.589423 3.90199e-20 1.22038e-37)
(27.7504 2.14099 0 0.584971 0 0)
(30.5249 2.21944 0 0.580305 0 0)
(33.3994 2.29075 0 0.575866 0 0)
(36.3582 2.35395 -4.56333e-19 0.572539 -1.95693e-20 1.01744e-37)
(39.3917 2.40977 0 0.56879 0 0)
(42.486 2.45629 -5.16095e-19 0.566536 -1.02945e-20 9.24911e-38)
(45.6319 2.49336 0 0.567745 0 0)
(48.8133 2.52716 0 0.568518 0 0)
(52.0162 2.55029 -6.04243e-19 0.570705 1.22791e-21 7.97437e-38)
(55.2335 2.55253 0 0.572546 0 0)
(58.4695 2.53513 6.5787e-19 0.571017 -6.95114e-21 7.21393e-38)
(61.7183 2.50412 0 0.563143 0 0)
(64.9857 2.46134 -7.02608e-19 0.552726 1.05014e-20 6.53776e-38)
(68.2702 2.4094 0 0.539149 0 0)
(71.5593 2.35077 0 0.523315 0 0)
(74.8454 2.28534 0 0.509276 0 0)
(78.13 2.20934 0 0.497897 0 0)
(81.407 2.12218 0 0.486346 0 0)
(84.6729 2.02673 7.7966e-19 0.475438 -1.40069e-20 4.59822e-38)
(87.9267 1.92287 0 0.463819 0 0)
(91.1692 1.81045 -1.56251e-18 0.447801 2.71648e-20 1.61345e-37)
(94.399 1.69108 0 0.43223 0 0)
(97.6111 1.56364 1.55258e-18 0.417608 -2.61815e-20 1.39959e-37)
(100.799 1.43063 0 0.402467 0 0)
(103.961 1.28842 0 0.390795 0 0)
(107.088 1.13796 -1.51467e-18 0.37823 2.15919e-20 1.11277e-37)
(110.163 0.985237 0 0.365414 0 0)
(113.172 0.830516 -1.4762e-18 0.354597 1.82934e-20 9.43388e-38)
(116.098 0.672614 1.45375e-18 0.345723 -1.65574e-20 8.66415e-38)
(118.926 0.508885 0 0.339584 0 0)
(121.648 0.338927 1.40289e-18 0.334793 -1.2528e-20 7.34175e-38)
(124.248 0.163559 1.37465e-18 0.33089 -1.0659e-20 6.79511e-38)
(126.726 -0.0143152 0 0.327634 0 0)
(129.067 -0.193644 0 0.325506 0 0)
(131.253 -0.377235 0 0.32283 0 0)
(133.263 -0.565863 0 0.321626 0 0)
(135.075 -0.756803 0 0.323676 0 0)
(136.665 -0.946717 -1.17421e-18 0.327895 -4.40037e-21 5.01535e-38)
(138.003 -1.13807 0 0.332012 0 0)
(139.078 -1.33415 1.07957e-18 0.335707 1.14661e-20 4.75065e-38)
(139.892 -1.53683 0 0.34093 0 0)
(140.441 -1.74567 0 0.347723 0 0)
(140.71 -1.95161 -9.11786e-19 0.357043 -2.24675e-20 4.75125e-38)
(140.692 -2.15578 0 0.369021 0 0)
(140.373 -2.36086 7.80347e-19 0.381025 3.12474e-20 4.96833e-38)
(139.756 -2.56477 0 0.391311 0 0)
(138.84 -2.76861 0 0.404096 0 0)
(137.632 -2.97158 0 0.418261 0 0)
(136.145 -3.16731 -4.82026e-19 0.432664 -4.76066e-20 6.03408e-38)
(134.383 -3.35651 0 0.447384 0 0)
(132.359 -3.53947 0 0.460472 0 0)
(130.086 -3.7153 -2.26331e-19 0.47421 -6.12032e-20 7.30388e-38)
(127.582 -3.88885 0 0.489439 0 0)
(124.886 -4.0545 -5.07461e-20 0.504587 -6.9869e-20 8.30235e-38)
(122.007 -4.20727 0 0.519911 0 0)
(118.964 -4.34838 0 0.536116 0 0)
(115.789 -4.47957 0 0.553413 0 0)
(112.504 -4.60125 -3.04813e-19 0.571469 8.31984e-20 1.04533e-37)
(109.128 -4.71061 0 0.589489 0 0)
(105.676 -4.80454 0 0.607392 0 0)
(102.159 -4.88326 -5.6426e-19 0.625445 9.03434e-20 1.20166e-37)
(98.5915 -4.95126 -6.46103e-19 0.644194 9.18865e-20 1.25279e-37)
(94.9993 -5.00817 0 0.662978 0 0)
(91.4137 -5.05317 -7.99215e-19 0.682688 9.46592e-20 1.34701e-37)
(87.8554 -5.08694 0 0.703864 0 0)
(84.3452 -5.1089 -1.87811e-18 0.725425 1.92629e-19 5.74469e-37)
(80.8975 -5.11789 0 0.748075 0 0)
(77.5302 -5.11239 -2.12303e-18 0.770662 1.93757e-19 6.07622e-37)
(74.2616 -5.09052 0 0.793619 0 0)
(71.1062 -5.05565 2.32564e-18 0.819597 -1.93902e-19 6.36591e-37)
(68.0815 -5.00755 0 0.844626 0 0)
(65.2018 -4.94084 0 0.86694 0 0)
(62.467 -4.85533 0 0.889646 0 0)
(59.8814 -4.75314 -2.58655e-18 0.914658 1.86313e-19 6.79947e-37)
(57.4509 -4.63665 0 0.939264 0 0)
(55.1845 -4.50413 2.6475e-18 0.963526 -1.80033e-19 6.94669e-37)
(53.0852 -4.35534 0 0.987279 0 0)
(51.1417 -4.18434 -2.65951e-18 1.01085 1.73681e-19 7.03528e-37)
(49.3489 -3.99668 -2.65036e-18 1.03216 1.70444e-19 7.07051e-37)
(47.6947 -3.79638 -2.63138e-18 1.0534 1.66277e-19 7.09742e-37)
(46.1747 -3.587 0 1.0758 0 0)
(44.7622 -3.36747 0 1.09891 0 0)
(43.4675 -3.13892 0 1.11847 0 0)
(42.2718 -2.90139 0 1.13828 0 0)
(41.1702 -2.66199 0 1.15816 0 0)
(40.1444 -2.42217 0 1.17717 0 0)
(39.191 -2.17943 0 1.19227 0 0)
(38.2643 -1.936 0 1.20827 0 0)
(37.3622 -1.6993 2.02625e-18 1.22359 -1.31601e-19 7.07583e-37)
(36.4519 -1.47095 1.91217e-18 1.24077 -1.2427e-19 7.0695e-37)
(35.5575 -1.2518 0 1.25244 0 0)
(34.6445 -1.0416 0 1.26546 0 0)
(33.7231 -0.854908 0 1.27948 0 0)
(32.7407 -0.678542 1.35418e-18 1.29209 -1.04638e-19 6.91164e-37)
(31.7976 -0.528194 0 1.29936 0 0)
(30.7862 -0.385898 0 1.30918 0 0)
(29.8294 -0.282985 0 1.31926 0 0)
(28.9009 -0.199395 0 1.3325 0 0)
(28.0704 -0.149078 -4.38451e-19 1.34094 7.5754e-20 6.66293e-37)
(27.3702 -0.122983 0 1.3503 0 0)
(26.833 -0.1323 0 1.36374 0 0)
(26.5434 -0.175175 -2.23529e-19 1.37165 -6.55467e-20 6.4286e-37)
(26.5002 -0.244328 4.50464e-19 1.38437 6.11599e-20 6.30163e-37)
(26.7544 -0.353958 0 1.40126 0 0)
(27.3592 -0.510684 9.12931e-19 1.41868 6.00614e-20 6.05265e-37)
(28.381 -0.707802 0 1.43775 0 0)
(29.8803 -0.959854 -1.35462e-18 1.45541 -6.44839e-20 5.75585e-37)
(31.8777 -1.2464 0 1.47821 0 0)
(34.448 -1.5824 0 1.50528 0 0)
(37.4872 -1.96027 0 1.53794 0 0)
(41.1043 -2.3886 0 1.57218 0 0)
(45.1526 -2.84296 0 1.61034 0 0)
(49.6379 -3.34477 4.89978e-18 1.65258 2.04728e-19 1.97225e-36)
(54.5009 -3.89065 5.15495e-18 1.69884 2.30555e-19 1.93765e-36)
(59.7616 -4.47263 0 1.74734 0 0)
(65.2251 -5.075 0 1.803 0 0)
(70.8436 -5.7019 0 1.85823 0 0)
(76.4688 -6.31554 -5.69501e-18 1.91899 -3.5237e-19 1.91764e-36)
(81.8769 -6.93004 0 1.99001 0 0)
(87.027 -7.55107 0 2.06229 0 0)
(91.8653 -8.16622 0 2.13884 0 0)
(96.3176 -8.75833 -5.33515e-18 2.21713 -5.33571e-19 2.07249e-36)
(100.338 -9.32377 5.10142e-18 2.30183 5.83081e-19 2.1348e-36)
(103.748 -9.84622 0 2.39148 0 0)
(106.652 -10.3553 0 2.48414 0 0)
(109.022 -10.8092 4.08134e-18 2.57867 7.35593e-19 2.36671e-36)
(110.857 -11.2278 3.65175e-18 2.67202 7.84498e-19 2.45199e-36)
(112.008 -11.5715 0 2.77229 0 0)
(112.572 -11.8856 0 2.87218 0 0)
(112.447 -12.1274 -2.05338e-18 2.9761 -9.4592e-19 2.71977e-36)
(111.761 -12.3509 1.42397e-18 3.07104 9.89531e-19 2.79852e-36)
(110.56 -12.5041 0 3.1678 0 0)
(108.644 -12.6032 0 3.26838 0 0)
(106.135 -12.6358 -5.20286e-19 3.35924 1.11729e-18 3.06923e-36)
(102.994 -12.6146 0 3.44966 0 0)
(99.5072 -12.5555 0 3.53319 0 0)
(95.5149 -12.4059 -2.5465e-18 3.60561 1.20616e-18 3.30186e-36)
(91.2144 -12.1843 0 3.67755 0 0)
(86.5928 -11.8518 -3.82993e-18 3.73895 1.2571e-18 3.44468e-36)
(81.7078 -11.4339 0 3.79459 0 0)
(76.6016 -10.8981 0 3.83369 0 0)
(71.6611 -10.2643 0 3.85771 0 0)
(66.7836 -9.4664 5.86834e-18 3.87644 -1.27772e-18 3.6824e-36)
(62.1325 -8.54891 0 3.87988 0 0)
(57.9228 -7.47938 0 3.86785 0 0)
(54.4742 -6.29007 0 3.83992 0 0)
(51.6272 -4.9117 0 3.79788 0 0)
(49.5372 -3.45303 0 3.74736 0 0)
(48.8214 -1.89974 0 3.67521 0 0)
(49.6649 -0.276775 6.02031e-18 3.58539 -1.10413e-18 3.72709e-36)
(51.7342 1.43587 5.60462e-18 3.48712 -1.04971e-18 3.70942e-36)
(55.4456 3.12764 0 3.37557 0 0)
(60.7072 4.75383 0 3.25767 0 0)
(67.5202 6.33337 0 3.12811 0 0)
(75.463 7.80611 -3.05013e-18 2.99841 7.94821e-19 3.38351e-36)
(84.5926 9.10729 0 2.87025 0 0)
(94.1489 10.2952 2.94368e-18 2.73537 -1.35034e-18 1.23612e-35)
(104.028 11.252 -1.30754e-18 2.60489 1.2176e-18 1.16604e-35)
(113.654 12.0411 3.19823e-19 2.47357 1.10464e-18 1.10175e-35)
(123.296 12.6903 -2.02456e-18 2.34872 -1.01391e-18 1.03326e-35)
(131.4 13.23 3.67773e-18 2.22974 9.22507e-19 9.75855e-36)
(139.263 13.7055 -5.28359e-18 2.12243 -9.03089e-19 8.99324e-36)
(143.006 14.3972 0 2.06651 0 0)
(0.0183129 0.174236 0 6.09618 0 0)
(0.202718 0.38794 0 6.03424 0 0)
(0.629497 0.609838 1.31763e-19 5.86155 1.75887e-19 6.76303e-37)
(1.3271 0.854275 0 5.7408 0 0)
(2.26933 1.13345 -1.92388e-19 5.68096 -3.5349e-19 9.18985e-37)
(3.44565 1.43811 -1.84042e-19 5.65374 -4.41259e-19 9.71983e-37)
(4.83498 1.76262 -8.07601e-20 5.63827 -2.51288e-19 2.48817e-37)
(6.42298 2.10303 -6.90659e-20 5.62017 -2.70167e-19 2.61061e-37)
(8.20182 2.45207 0 5.59177 0 0)
(10.1695 2.80524 -4.23345e-20 5.54914 -2.6898e-19 2.59226e-37)
(12.3272 3.15373 0 5.49725 0 0)
(14.6735 3.49514 0 5.43764 0 0)
(17.1998 3.8243 9.50735e-20 5.36942 4.23666e-19 9.50485e-37)
(19.9071 4.14076 6.96785e-20 5.29762 1.8689e-19 2.33981e-37)
(22.7848 4.43483 -1.85743e-19 5.22251 -3.26286e-19 8.9308e-37)
(25.8268 4.70654 -2.5196e-19 5.14436 -2.81292e-19 8.65386e-37)
(29.0217 4.95741 -1.71305e-19 5.06001 -1.18506e-19 2.1262e-37)
(32.3634 5.18893 0 4.96924 0 0)
(35.8398 5.3994 0 4.87353 0 0)
(39.4423 5.59337 0 4.7708 0 0)
(43.1476 5.77013 -3.8673e-19 4.66585 -3.67381e-20 1.80292e-37)
(46.9469 5.92692 0 4.5613 0 0)
(50.8172 6.05536 1.60938e-18 4.45474 -1.63169e-20 1.55098e-36)
(54.746 6.15914 0 4.35176 0 0)
(58.7163 6.23984 0 4.24656 0 0)
(62.7106 6.2976 7.7504e-19 4.1423 -5.77258e-20 1.56416e-37)
(66.7013 6.32917 0 4.03627 0 0)
(70.6696 6.34376 -9.33215e-19 3.9356 8.18031e-20 1.45921e-37)
(74.582 6.33499 -1.99405e-18 3.83557 1.81531e-19 5.56815e-37)
(78.4284 6.29763 1.07728e-18 3.73276 -9.87218e-20 1.36556e-37)
(82.2051 6.2287 0 3.6249 0 0)
(85.912 6.13172 0 3.51954 0 0)
(89.5358 6.00915 0 3.41619 0 0)
(93.0804 5.86217 -2.57683e-18 3.30807 2.22719e-19 4.71195e-37)
(96.5376 5.6853 -2.65507e-18 3.20067 2.20261e-19 4.5506e-37)
(99.921 5.47892 -1.37373e-18 3.09976 1.07572e-19 1.1074e-37)
(103.239 5.2414 0 3.00792 0 0)
(106.484 4.96782 2.83831e-18 2.9199 -2.03023e-19 4.12783e-37)
(109.666 4.65615 0 2.83479 0 0)
(112.778 4.31568 -2.87514e-18 2.7533 1.8848e-19 3.81558e-37)
(115.827 3.94751 0 2.67297 0 0)
(118.81 3.55952 0 2.60079 0 0)
(121.733 3.15566 2.82827e-18 2.52983 -1.54171e-19 3.31704e-37)
(124.582 2.73307 0 2.46447 0 0)
(127.337 2.28515 8.16208e-18 2.40643 -3.93699e-19 2.68457e-36)
(129.996 1.80767 -2.68953e-18 2.36104 1.19266e-19 2.83702e-37)
(132.564 1.30493 0 2.33384 0 0)
(135.055 0.776936 -2.54977e-18 2.31799 9.09733e-20 2.51738e-37)
(137.455 0.216217 -2.46907e-18 2.31171 7.67166e-20 2.3616e-37)
(139.762 -0.370788 0 2.31398 0 0)
(141.952 -0.969535 0 2.32734 0 0)
(144.007 -1.56596 0 2.34236 0 0)
(145.911 -2.1506 0 2.35592 0 0)
(147.629 -2.72782 0 2.37953 0 0)
(149.146 -3.30654 1.88376e-18 2.41234 1.4522e-20 1.71982e-37)
(150.443 -3.89423 3.45188e-18 2.45569 7.11424e-20 6.55431e-37)
(151.498 -4.48558 -1.64472e-18 2.50686 -5.58994e-20 1.59991e-37)
(152.325 -5.09528 0 2.56304 0 0)
(152.894 -5.70647 2.68738e-18 2.6262 1.90157e-19 6.01029e-37)
(153.179 -6.29717 -1.1701e-18 2.6943 -1.13206e-19 1.46764e-37)
(153.206 -6.88273 0 2.77104 0 0)
(152.926 -7.4622 -9.78149e-19 2.86092 -1.48592e-19 1.49411e-37)
(152.35 -8.01986 0 2.95418 0 0)
(151.472 -8.56821 0 3.05542 0 0)
(150.289 -9.09831 -1.04721e-18 3.16152 -3.96908e-19 6.25216e-37)
(148.787 -9.59982 4.22478e-19 3.27231 2.15243e-19 1.63674e-37)
(147.006 -10.0938 -4.89115e-19 3.39261 -4.62254e-19 6.6813e-37)
(144.938 -10.5663 2.12159e-19 3.51725 4.8916e-19 6.91936e-37)
(142.612 -11.0138 1.00234e-20 3.64314 2.54478e-19 1.82634e-37)