/*--------------------------------*- C++ -*----------------------------------*\
| =========                 |                                                 |
| \\      /  F ield         | OpenFOAM: The Open Source CFD Toolbox           |
|  \\    /   O peration     | Version:  dev                                   |
|   \\  /    A nd           | Web:      http://www.openfoam.org               |
|    \\/     M anipulation  |                                                 |
\*---------------------------------------------------------------------------*/
FoamFile
{
    version     2.0;
    format      ascii;
    class       volScalarField;
    object      k_0;
    location    "9.152";
}
// * * * * * * * * * * * * * * * * * * * * * * * * * * * * * * * * * * * * * //

dimensions      [0 2 -2 0 0 0 0];

internalField   nonuniform List<scalar> 
12225
(
9.0815
12.0699
9.59601
10.9706
9.28754
12.74
11.2429
15.8803
13.7644
19.4511
16.049
23.9462
18.1036
30.2401
21.8765
35.7752
29.1743
29.8932
1.96914
5.69314
5.14938
5.80361
4.85739
5.46709
4.68781
5.47873
4.88897
5.8386
5.35163
6.35496
6.11173
6.5686
7.94053
7.69602
9.8699
11.4374
0.182293
1.57902
1.83907
2.72917
2.72922
2.9951
2.86037
2.94229
2.84969
2.79568
2.80298
2.5945
2.79795
2.34085
3.05738
2.06672
3.23128
2.44637
0.0151907
0.264848
0.508952
0.683793
0.991173
1.07573
1.29097
1.26338
1.39026
1.28167
1.42778
1.24724
1.36479
1.10331
1.31839
0.899591
1.36561
1.17245
0.002501
0.0381693
0.111014
0.161856
0.289986
0.34181
0.467674
0.48519
0.560617
0.528846
0.589229
0.527182
0.585401
0.477973
0.565614
0.434116
0.599523
0.571133
0.00237441
0.00949369
0.0271742
0.0384989
0.0763302
0.094709
0.148505
0.161582
0.203828
0.193154
0.22401
0.206843
0.237162
0.2058
0.245295
0.215781
0.286927
0.321404
0.00314744
0.00351775
0.00784108
0.0101543
0.0205781
0.0249258
0.0448459
0.0509248
0.0710949
0.0697299
0.0844276
0.0831516
0.0968237
0.0924438
0.1057
0.101879
0.111739
0.148278
0.00277835
0.00267688
0.00367002
0.00448488
0.00788064
0.0097315
0.0177654
0.0212847
0.0313757
0.0333548
0.0409456
0.0431504
0.0512333
0.0535484
0.0576847
0.0637581
0.0647815
0.0736343
0.00337724
0.00299603
0.00317693
0.00360349
0.00507376
0.00691397
0.0120598
0.0153899
0.0227914
0.0260484
0.0312853
0.0345931
0.0396528
0.0447753
0.0463349
0.0525847
0.0536815
0.0578546
0.00540852
0.0040312
0.00351664
0.00382588
0.00491288
0.0071567
0.0117658
0.0165374
0.0230087
0.0270494
0.0312589
0.0350737
0.0392782
0.0437054
0.0456661
0.0501834
0.0518408
0.0550673
0.00857142
0.00631252
0.00499687
0.00531589
0.00628069
0.0102618
0.0142472
0.0226876
0.0285791
0.0350571
0.0380026
0.0421761
0.0452844
0.0488646
0.051137
0.0542223
0.0557943
0.0577345
0.0153699
0.0112183
0.00856298
0.0090587
0.0107756
0.0188337
0.024711
0.0397784
0.0477975
0.057399
0.0619456
0.066108
0.0683704
0.070903
0.0723185
0.0732958
0.0736867
0.0727966
0.0304395
0.0219074
0.0168836
0.0174734
0.0214892
0.0378049
0.0534629
0.0711015
0.0814988
0.0919715
0.0990246
0.10412
0.107896
0.11065
0.112389
0.113097
0.112579
0.109313
0.0619036
0.0456792
0.0365719
0.0366345
0.0421014
0.0651237
0.0905868
0.11172
0.126484
0.137406
0.145421
0.150266
0.154088
0.1587
0.161759
0.163804
0.163597
0.159868
0.113906
0.0853041
0.0702913
0.0699334
0.077065
0.108735
0.155883
0.193374
0.219631
0.236123
0.245796
0.250908
0.253418
0.254571
0.253948
0.248199
0.23558
0.22601
0.187638
0.143977
0.117349
0.115726
0.124027
0.163516
0.21778
0.257788
0.283894
0.298396
0.305093
0.307725
0.308344
0.307618
0.300419
0.286565
0.268861
0.256165
0.244036
0.180472
0.141971
0.138398
0.146477
0.188092
0.245121
0.285569
0.310777
0.323603
0.328452
0.329764
0.329681
0.327688
0.316388
0.299944
0.280618
0.266742
0.248824
0.182971
0.144603
0.141246
0.149555
0.191823
0.249195
0.289658
0.314603
0.326846
0.331242
0.332309
0.332023
0.32951
0.316881
0.300194
0.280865
0.266887
0.211437
0.159453
0.129709
0.128072
0.137727
0.181273
0.236268
0.275681
0.300486
0.312821
0.317149
0.318041
0.317639
0.315024
0.303441
0.287958
0.269541
0.256341
0.137616
0.105425
0.0862981
0.0860438
0.0955319
0.133175
0.182653
0.220852
0.246927
0.261449
0.266964
0.267971
0.267733
0.266056
0.259466
0.24839
0.233152
0.222498
0.0878862
0.0690689
0.0589183
0.0590336
0.0648152
0.0870225
0.115834
0.138979
0.155177
0.163866
0.166825
0.167152
0.166572
0.164889
0.16091
0.156551
0.148248
0.142846
0.0492082
0.038797
0.0340065
0.0339984
0.0359526
0.0427671
0.060866
0.0811412
0.0949992
0.101161
0.102356
0.102047
0.100411
0.0982472
0.0956532
0.0940202
0.0919339
0.0908826
0.0240194
0.0210711
0.0188806
0.0186794
0.0195537
0.0234143
0.0333667
0.0435099
0.0504559
0.0565016
0.0609275
0.0655396
0.0686776
0.0714012
0.0724316
0.0740043
0.0747519
0.0762214
0.0118456
0.010674
0.00993788
0.0103011
0.0121889
0.0180485
0.0242251
0.0306475
0.0358284
0.0432735
0.0502739
0.0583805
0.0643992
0.0695837
0.0719402
0.0747877
0.0763462
0.0793365
0.00507667
0.00535552
0.00628929
0.00881462
0.0139477
0.0233701
0.0303204
0.0369064
0.0432344
0.0550775
0.0672564
0.0811131
0.091443
0.0998799
0.103832
0.108577
0.111471
0.116795
0.00108339
0.004355
0.0109614
0.0251561
0.0571664
0.0862963
0.10337
0.115635
0.130288
0.156838
0.184218
0.21208
0.231649
0.244462
0.249836
0.256035
0.260537
0.268837
0.00150464
0.0223395
0.0835845
0.207191
0.344659
0.434193
0.47603
0.502501
0.534092
0.579759
0.623036
0.661088
0.682377
0.690809
0.694169
0.697473
0.701944
0.716736
0.017704
0.249741
0.809798
1.24416
1.59913
1.76164
1.80304
1.81842
1.8319
1.83938
1.8303
1.80622
1.77126
1.72941
1.69325
1.66584
1.64441
1.62917
0.42641
2.88121
4.27495
4.47525
4.41146
4.14425
3.8766
3.66289
3.50313
3.3599
3.23132
3.09672
2.97305
2.85183
2.74724
2.63642
2.5419
2.45788
7.52948
11.8225
11.5374
9.87104
8.73171
8.33041
8.40124
8.6189
8.92148
9.17237
9.37482
9.50292
9.56673
9.56346
9.49852
9.38279
9.21417
8.94741
0.0936887
0.111844
0.118426
0.123637
0.133303
0.147678
0.163376
0.1782
0.194771
0.214379
0.237584
0.265532
0.298045
0.33406
0.373186
0.418171
0.471321
0.533348
0.604047
0.682033
0.767846
0.865479
0.976785
1.10138
1.23675
1.38134
1.53334
1.68772
1.83528
1.96464
2.08304
2.18855
2.27005
2.3296
2.37297
2.39847
2.41777
2.4356
2.46358
2.50587
2.56468
2.63595
2.74277
2.89774
2.96903
2.98246
2.94757
2.9292
2.96335
3.03184
3.11326
3.21316
3.28384
3.3256
3.35231
3.46256
3.63132
3.85253
3.98924
4.11348
4.18756
4.2683
4.35947
4.43605
4.4951
4.53693
4.55481
4.53027
4.44963
4.34638
4.20206
4.10467
4.20612
4.55789
5.3347
5.74289
5.90137
5.27063
4.54455
4.35637
4.20887
4.10544
4.09807
4.11171
4.22448
4.39464
4.56692
4.9995
5.84082
6.82693
7.61669
8.18401
8.60402
8.8586
8.96435
8.85013
8.28715
7.52712
6.77913
6.05916
5.30446
4.54547
3.93555
3.43035
2.76623
2.53017
2.13162
1.66827
1.54489
1.42837
1.31417
1.26611
1.25784
1.2745
1.35246
1.43881
1.55893
1.76961
1.93543
2.05509
2.13833
2.29911
2.50337
2.72342
2.85207
2.93856
3.08648
3.27805
3.52364
3.76605
4.04546
4.39171
4.8092
5.21426
5.70009
6.22455
6.78857
7.26344
7.69781
8.11731
8.53603
9.0758
9.63595
10.1698
10.3984
10.8141
10.0623
10.9104
12.0105
13.0981
13.6777
14.1083
14.2882
13.9173
13.9966
12.3534
11.7557
11.8873
11.8119
11.2653
10.8205
10.5396
10.2739
9.01763
7.08906
5.72848
5.09379
5.0443
4.4216
4.17033
4.48243
4.3918
4.52121
4.80743
5.50778
6.18524
6.30949
9.61763
12.9132
11.9934
0.297367
0.128783
0.105303
0.100786
0.10078
0.1036
0.107449
0.110942
0.115847
0.122404
0.131156
0.142205
0.153245
0.164562
0.177272
0.192665
0.211228
0.232492
0.257503
0.284455
0.313626
0.346838
0.385079
0.426111
0.468288
0.507994
0.542195
0.561492
0.565767
0.564323
0.556668
0.542263
0.525036
0.507022
0.490565
0.478121
0.473491
0.472321
0.475523
0.489894
0.514528
0.549708
0.608987
0.642813
0.641294
0.621341
0.596056
0.594142
0.60293
0.622355
0.682757
0.730459
0.734115
0.705032
0.701209
0.745561
0.849003
0.938183
0.979703
1.07095
1.13565
1.15927
1.16589
1.12587
1.03782
0.968173
0.884009
0.788988
0.689711
0.62877
0.589849
0.609618
0.697116
0.802756
1.12993
1.94353
3.12502
3.3271
3.0234
2.24372
1.52329
1.39468
1.43169
1.6808
2.49769
3.65452
4.01397
4.1489
4.21545
4.09845
3.75678
3.46738
3.29391
3.04752
2.72212
2.33074
1.95866
1.71436
1.53615
1.3812
1.21593
1.05679
0.981635
0.921511
0.859205
0.890739
0.786482
0.753868
0.767391
0.738438
0.773059
0.784116
0.787981
0.798592
0.850488
0.894189
0.933804
1.03126
1.17396
1.27831
1.33188
1.40161
1.50907
1.67839
1.83957
1.97906
2.08577
2.20153
2.36651
2.57865
2.78383
2.96675
3.28073
3.53258
3.79225
4.06883
4.33269
4.59463
4.99367
5.12475
5.25351
5.76874
6.1022
6.0682
5.62856
5.46825
5.19876
6.57154
7.21534
8.33774
8.36153
8.39202
8.17838
7.64407
6.7506
6.3762
6.99796
7.47588
7.42673
7.11946
6.98992
7.57584
7.95851
7.20051
5.75212
4.89051
4.55183
4.2165
3.79304
3.73194
3.95295
3.97731
4.13116
4.4083
5.24042
5.85397
6.44434
7.20998
8.65972
8.09385
0.736197
0.174852
0.0979385
0.0851743
0.082521
0.0835423
0.0886639
0.0951654
0.0998459
0.105334
0.113797
0.124388
0.131206
0.137622
0.145838
0.156427
0.169439
0.184054
0.203506
0.228258
0.257742
0.289163
0.320898
0.357087
0.390072
0.399945
0.400433
0.39266
0.373262
0.35098
0.336519
0.323658
0.31209
0.302611
0.295279
0.28919
0.285565
0.28258
0.280224
0.27954
0.281002
0.290388
0.307173
0.313676
0.313901
0.310552
0.309174
0.312527
0.316629
0.318658
0.331951
0.362441
0.371935
0.36789
0.362375
0.374658
0.413256
0.438448
0.45196
0.503364
0.582777
0.611185
0.613112
0.582752
0.505115
0.44799
0.405133
0.365943
0.341848
0.33351
0.33748
0.391903
0.489245
0.549953
0.600019
0.690383
0.995663
1.48329
1.72715
1.53602
1.3682
1.50096
1.88348
2.30433
2.58551
2.81902
2.66605
2.36755
2.02262
1.61791
1.34608
1.1898
1.07192
0.929924
0.765572
0.637195
0.577445
0.555091
0.550484
0.559333
0.547007
0.524303
0.516893
0.529564
0.546564
0.573366
0.66889
0.687492
0.572888
0.535765
0.617452
0.606582
0.555654
0.569102
0.606335
0.617277
0.598289
0.614066
0.698564
0.768462
0.798938
0.813062
0.839958
0.910141
1.0125
1.12685
1.20136
1.25432
1.3229
1.4751
1.61493
1.66884
1.78488
2.00547
2.18415
2.25236
2.37244
2.443
2.64812
2.85309
3.18919
3.53611
3.77024
3.7338
3.47526
3.4963
3.47981
3.76662
3.97249
4.66071
4.82654
4.9939
5.17571
5.17907
4.55895
4.38467
4.64202
5.02641
5.00083
4.84787
4.71748
4.9769
5.67569
5.81273
5.27435
4.70503
4.47598
4.11243
3.8544
3.82222
3.99992
3.98189
4.02745
4.45823
5.30463
6.57514
6.96061
8.72207
8.15715
6.23485
1.47957
0.286521
0.104962
0.0837867
0.0793676
0.080349
0.0881875
0.100321
0.107018
0.11388
0.120546
0.12895
0.133892
0.1379
0.146259
0.158174
0.176666
0.198726
0.224389
0.256268
0.28427
0.310353
0.333134
0.340005
0.339089
0.325387
0.302316
0.286889
0.275956
0.265133
0.260487
0.257226
0.253724
0.250897
0.249303
0.248488
0.247661
0.245867
0.242311
0.235799
0.227512
0.219211
0.215248
0.214418
0.215103
0.215552
0.217641
0.220115
0.221019
0.222109
0.230971
0.255591
0.26761
0.267119
0.267326
0.288648
0.315231
0.319306
0.316872
0.322348
0.349916
0.389202
0.419693
0.432332
0.431259
0.413742
0.378855
0.334187
0.302669
0.294348
0.303455
0.354789
0.453173
0.501521
0.52142
0.554686
0.600475
0.776376
1.11128
1.24392
1.677
1.98178
2.03232
2.12115
2.09807
1.7144
1.51234
1.20834
0.876674
0.68847
0.59156
0.54002
0.50214
0.458115
0.408433
0.385604
0.379184
0.388871
0.409369
0.437817
0.449346
0.455546
0.473983
0.498083
0.49388
0.499976
0.655017
0.704403
0.564767
0.506667
0.576447
0.562142
0.48944
0.492655
0.533324
0.541998
0.507494
0.503675
0.542305
0.58125
0.591126
0.605346
0.616485
0.64293
0.687669
0.763315
0.814708
0.851961
0.885647
0.9692
1.07758
1.12567
1.15623
1.26399
1.4412
1.48207
1.55699
1.61258
1.68873
1.91457
2.59325
3.0517
3.00398
2.84885
2.67309
2.68463
2.71235
2.90954
3.08046
3.20774
3.32539
3.4477
3.70958
4.07708
3.83771
3.75696
3.99992
4.10796
4.02707
3.86179
3.75602
3.83821
4.37515
4.83488
4.91116
4.69901
4.38202
4.07995
4.36442
4.36735
4.08465
4.02552
4.05818
4.30249
5.16041
6.66134
6.74355
9.23034
7.95952
5.83468
2.41683
0.521781
0.132508
0.0863318
0.0803531
0.0847086
0.101337
0.120008
0.123421
0.121334
0.121573
0.12955
0.136849
0.145106
0.161415
0.178608
0.199375
0.223712
0.247511
0.269928
0.284116
0.29049
0.289672
0.276967
0.25924
0.251552
0.245106
0.24082
0.238891
0.23774
0.236805
0.23572
0.235341
0.235304
0.236066
0.237441
0.239272
0.239925
0.23909
0.233501
0.223177
0.206829
0.189965
0.181274
0.178554
0.178242
0.179887
0.183133
0.185756
0.185807
0.183162
0.179321
0.179132
0.185688
0.211676
0.254932
0.267332
0.269246
0.270636
0.28389
0.31059
0.335738
0.347419
0.35346
0.352878
0.343603
0.328694
0.297662
0.284668
0.28651
0.315538
0.40127
0.477303
0.517648
0.537256
0.516324
0.508713
0.597532
0.852874
1.3292
1.84887
1.94746
1.83904
1.52332
1.29477
1.05395
0.854952
0.61904
0.456453
0.39052
0.362995
0.350317
0.343235
0.337176
0.331453
0.336346
0.351335
0.369929
0.38443
0.39149
0.396949
0.421078
0.489524
0.516512
0.470162
0.463781
0.517376
0.540564
0.547767
0.516435
0.553601
0.536482
0.474919
0.476626
0.502133
0.502186
0.473074
0.46216
0.480461
0.510569
0.519449
0.515851
0.518246
0.52843
0.558166
0.609141
0.640884
0.669041
0.697922
0.761434
0.812048
0.879016
0.896823
0.937395
1.06348
1.15866
1.18364
1.20979
1.33904
1.54058
1.99153
2.67212
2.82501
2.63137
2.4333
2.3509
2.41661
2.58411
2.8244
2.70398
2.7654
2.85391
3.03797
3.28553
3.32662
3.13076
3.70184
3.72914
3.5979
3.38397
3.32121
3.34311
3.58799
4.2126
4.50993
4.60501
4.33942
4.18647
5.23764
5.3636
4.71306
4.10156
4.22145
4.31027
5.24638
5.84719
5.39773
5.80801
6.98961
5.90116
3.40569
0.878321
0.188679
0.098533
0.0884061
0.100523
0.124496
0.129561
0.126895
0.122622
0.124152
0.132703
0.140732
0.1516
0.169509
0.18582
0.202998
0.222522
0.23987
0.24631
0.24712
0.241918
0.231878
0.226739
0.224491
0.224902
0.227512
0.228222
0.227942
0.225972
0.220864
0.212024
0.207113
0.205932
0.20592
0.208451
0.216536
0.227662
0.232717
0.233813
0.228094
0.213201
0.192998
0.174789
0.168161
0.165922
0.16549
0.168873
0.173629
0.174729
0.173587
0.16535
0.159038
0.158226
0.165015
0.182001
0.200623
0.217919
0.229727
0.254611
0.283958
0.303853
0.324074
0.345174
0.348831
0.338673
0.308559
0.282324
0.280926
0.303551
0.385257
0.520946
0.556262
0.566633
0.556583
0.537959
0.556802
0.619488
0.862493
1.48124
1.76412
1.75292
1.31972
0.973884
0.804271
0.653656
0.510103
0.373217
0.315961
0.296768
0.291361
0.290107
0.29451
0.299482
0.309829
0.329114
0.352528
0.366918
0.372475
0.373821
0.374537
0.401695
0.445966
0.459311
0.485542
0.533384
0.483355
0.475968
0.502061
0.557007
0.521348
0.506619
0.486379
0.486
0.4852
0.467111
0.45389
0.453796
0.464842
0.468178
0.473328
0.476506
0.470952
0.473531
0.490149
0.52815
0.564759
0.575266
0.590035
0.642648
0.682905
0.707172
0.774109
0.802616
0.829816
0.949871
1.03924
1.06497
1.21922
1.353
1.64025
2.16464
2.46459
2.30183
2.01741
2.1961
2.38018
2.56995
2.76208
2.58825
2.52297
2.64812
2.74942
2.81105
3.05069
2.49577
3.04322
3.3263
3.20592
3.07916
3.1236
3.15603
3.19492
3.69467
4.15615
4.48991
4.19073
4.4027
5.36983
5.97608
5.38893
4.67694
4.45936
4.3885
5.43239
5.5301
4.93352
5.13314
6.03393
5.71501
4.30953
1.07114
0.216431
0.113509
0.107329
0.120424
0.12955
0.127878
0.119083
0.118133
0.122311
0.131074
0.139031
0.151024
0.166808
0.181993
0.197638
0.205764
0.208697
0.209679
0.210469
0.209542
0.206912
0.206244
0.211488
0.217334
0.218081
0.217021
0.21219
0.201541
0.187406
0.180416
0.178087
0.17701
0.176943
0.178786
0.184929
0.195417
0.209625
0.225558
0.232794
0.234672
0.225451
0.198964
0.175004
0.164848
0.160571
0.159614
0.162603
0.170692
0.173008
0.172173
0.162309
0.150906
0.146587
0.145249
0.148201
0.155904
0.167596
0.190955
0.228345
0.267732
0.299902
0.313799
0.315687
0.300357
0.274173
0.269243
0.286478
0.346971
0.509154
0.588274
0.600634
0.611653
0.623179
0.60643
0.602937
0.648491
0.971208
1.45408
1.56539
1.31047
0.852769
0.650662
0.507328
0.424277
0.342192
0.289768
0.272636
0.267633
0.266288
0.268159
0.273957
0.283821
0.303011
0.32718
0.349345
0.356669
0.355433
0.349765
0.35309
0.397453
0.414619
0.410964
0.490103
0.588478
0.470481
0.461613
0.48884
0.553811
0.487641
0.487656
0.480857
0.490938
0.477625
0.442528
0.447697
0.444186
0.443614
0.441305
0.4446
0.464104
0.464894
0.4559
0.468322
0.502276
0.520878
0.527169
0.533296
0.552433
0.605313
0.674231
0.685685
0.70523
0.782108
0.948802
0.929997
1.05733
1.31416
1.3624
1.47508
1.70811
2.03014
1.98635
1.88283
2.24109
2.11457
2.38832
2.6555
2.63034
2.39193
2.40772
2.39977
2.55683
2.7889
2.4639
2.32885
2.73335
2.7645
2.74175
2.84344
2.90935
3.03053
3.217
3.88449
4.40604
4.0541
4.43426
4.74346
5.73191
5.8378
5.34265
4.50778
4.34356
5.31697
5.54688
4.43854
4.27883
5.17117
5.44591
5.1091
1.2051
0.219404
0.115761
0.112804
0.120284
0.119592
0.112829
0.109602
0.11111
0.115461
0.121221
0.129619
0.140936
0.153994
0.167141
0.184893
0.19277
0.194475
0.194401
0.193056
0.191032
0.190994
0.198601
0.2058
0.206694
0.205467
0.200239
0.188568
0.178533
0.176436
0.176451
0.176665
0.175185
0.174637
0.174954
0.178614
0.186678
0.199056
0.214902
0.234654
0.248109
0.25201
0.250655
0.230514
0.192522
0.165823
0.155022
0.152137
0.152936
0.165
0.16834
0.167218
0.153801
0.141077
0.136695
0.136995
0.138275
0.1395
0.144499
0.161497
0.196442
0.250568
0.269313
0.26991
0.252268
0.246308
0.256189
0.303398
0.422362
0.570247
0.621654
0.642296
0.647813
0.619874
0.595976
0.598972
0.719926
1.16973
1.36696
1.28185
0.851819
0.571632
0.440067
0.356947
0.313003
0.276048
0.25923
0.2549
0.253997
0.254785
0.260555
0.268494
0.2792
0.295336
0.314575
0.321795
0.308465
0.290316
0.286028
0.315189
0.377239
0.387533
0.383387
0.41129
0.45389
0.415834
0.442998
0.525262
0.51927
0.399198
0.475289
0.444299
0.404261
0.420965
0.398282
0.417664
0.427249
0.425951
0.39596
0.416929
0.440602
0.446648
0.43196
0.450518
0.493358
0.502209
0.504207
0.502786
0.505479
0.576623
0.665641
0.642172
0.665085
0.872054
0.997024
0.934364
1.06733
1.54385
1.50804
1.50634
1.5197
1.70425
1.8243
1.87903
2.21302
2.05877
2.26141
2.43614
2.76059
2.44679
2.24796
2.09203
2.29198
2.37876
2.48409
2.33434
2.25864
2.41244
2.54828
2.63597
2.67489
2.75923
2.85347
3.65983
4.1534
3.80354
4.38305
4.36966
4.93309
5.75264
5.42977
4.51673
4.22148
4.80299
5.23923
4.20714
4.05594
4.60545
4.95108
5.81385
1.54699
0.270259
0.120335
0.111797
0.118722
0.117973
0.109863
0.107497
0.109259
0.1124
0.115484
0.125549
0.136957
0.149712
0.159445
0.165205
0.170481
0.175877
0.177727
0.17736
0.177419
0.183362
0.194135
0.197658
0.197687
0.195748
0.18828
0.174675
0.170686
0.172312
0.178672
0.186172
0.187205
0.182821
0.181139
0.181598
0.187839
0.199226
0.212612
0.226103
0.238449
0.253257
0.25759
0.256293
0.238273
0.213475
0.170149
0.151011
0.143545
0.141921
0.146894
0.155173
0.155502
0.144885
0.133995
0.131035
0.129339
0.128355
0.128533
0.134517
0.154163
0.199502
0.242877
0.251035
0.248095
0.244467
0.262268
0.338737
0.477146
0.60151
0.644849
0.659183
0.655263
0.606211
0.59171
0.623858
0.881989
1.14393
1.19331
0.915153
0.570446
0.415709
0.325185
0.283489
0.263513
0.252374
0.247673
0.245291
0.244356
0.251273
0.259826
0.266015
0.271662
0.278784
0.280876
0.260727
0.235436
0.227184
0.228079
0.251172
0.291894
0.326944
0.353098
0.343167
0.33378
0.334116
0.426529
0.678471
0.529227
0.407393
0.481187
0.432713
0.374908
0.390112
0.377404
0.364917
0.368155
0.377303
0.352876
0.365992
0.399533
0.407178
0.376349
0.39646
0.450585
0.469476
0.474022
0.465176
0.495403
0.586534
0.644958
0.620509
0.657151
0.938441
0.98188
0.948195
1.07083
1.50255
1.53171
1.51983
1.50288
1.51877
1.56209
1.80021
1.99313
2.11741
2.35933
2.44936
2.89138
2.67839
2.21232
1.992
2.05556
2.07148
2.24352
2.30145
2.14724
2.26009
2.43867
2.38208
2.46406
2.58194
2.58367
3.27735
3.59899
3.33174
4.26669
3.73574
4.18838
4.75091
5.25635
4.55568
3.99686
4.18279
4.59351
4.17209
4.33279
4.24354
4.41201
6.50607
2.14574
0.436721
0.147473
0.119927
0.124121
0.120503
0.109289
0.105058
0.102955
0.102807
0.103639
0.110634
0.122519
0.13844
0.151068
0.157213
0.163348
0.16545
0.166764
0.167009
0.168273
0.176368
0.188616
0.193911
0.19461
0.19337
0.186846
0.171307
0.16203
0.162645
0.173069
0.194537
0.209263
0.212725
0.205531
0.20526
0.207227
0.212842
0.219851
0.225257
0.22779
0.228768
0.232338
0.240339
0.243488
0.234241
0.208438
0.175853
0.145294
0.135112
0.132715
0.134786
0.142562
0.14352
0.138905
0.129916
0.12447
0.121853
0.120692
0.122672
0.135754
0.170157
0.233404
0.262294
0.26553
0.256269
0.270649
0.349814
0.487218
0.612879
0.654629
0.666641
0.657387
0.618367
0.614609
0.725565
0.950467
1.05061
0.942712
0.604649
0.415049
0.311722
0.262059
0.244569
0.239736
0.238934
0.238977
0.23856
0.241888
0.251469
0.256665
0.257556
0.249347
0.243108
0.234273
0.21488
0.197493
0.19351
0.196031
0.214099
0.229843
0.250304
0.263327
0.263603
0.307368
0.310124
0.364829
0.617205
0.509964
0.358603
0.444846
0.415228
0.37052
0.383951
0.372438
0.358476
0.363635
0.357635
0.338485
0.342527
0.35975
0.366627
0.350601
0.358131
0.39515
0.415989
0.423231
0.420836
0.497851
0.584311
0.612851
0.601707
0.676453
0.945812
0.882883
0.923167
1.07716
1.31939
1.33196
1.48607
1.60415
1.46867
1.43401
1.54623
1.83498
2.02724
2.39948
2.57473
2.72676
2.85764
2.18282
1.98775
1.90647
1.97935
2.15076
2.04758
1.92901
2.15
2.23224
2.09347
2.18342
2.20425
2.30448
2.75665
3.04766
2.98719
3.96022
3.42131
3.63343
3.68259
4.57232
4.48606
3.68207
3.7285
4.056
4.08853
4.44745
4.18006
4.10671
7.05338
2.39027
0.537007
0.16277
0.12672
0.129294
0.119712
0.105431
0.101188
0.0994059
0.0990024
0.10002
0.103825
0.110131
0.117541
0.127939
0.137431
0.14948
0.158021
0.160537
0.160388
0.160888
0.167974
0.180218
0.191014
0.194567
0.195039
0.191643
0.177356
0.157104
0.15322
0.156916
0.17651
0.214627
0.238828
0.250972
0.253472
0.248975
0.239435
0.228409
0.225763
0.226171
0.225292
0.2226
0.221716
0.221563
0.219696
0.214596
0.18848
0.153569
0.132741
0.127059
0.126754
0.130913
0.138443
0.139102
0.135172
0.125899
0.120035
0.117753
0.118452
0.125437
0.153322
0.224141
0.284746
0.296184
0.290677
0.281825
0.334361
0.474816
0.638885
0.689304
0.700592
0.694427
0.681579
0.700517
0.817145
0.911408
0.88478
0.639571
0.423238
0.318147
0.251331
0.226327
0.220237
0.220192
0.223732
0.226029
0.231198
0.243453
0.250769
0.250785
0.228223
0.212735
0.206343
0.200758
0.189518
0.180603
0.178377
0.179506
0.188468
0.194933
0.202648
0.199067
0.210536
0.255973
0.286547
0.314977
0.391827
0.37187
0.310223
0.35883
0.366107
0.339512
0.368314
0.371407
0.355572
0.36544
0.351684
0.335229
0.344397
0.350887
0.345676
0.349499
0.354719
0.374846
0.385832
0.381114
0.386069
0.481616
0.562634
0.556584
0.560366
0.684356
0.862143
0.806778
0.862528
1.07179
1.15096
1.28104
1.38703
1.62326
1.47195
1.43491
1.46478
1.61541
1.75624
2.35768
2.52956
2.3104
2.80783
2.15692
1.9489
1.838
1.96451
2.14818
1.91091
1.79537
2.01389
1.94008
1.92967
1.8647
1.89199
2.10791
2.4383
2.62956
2.86961
3.50623
3.3417
3.53926
3.42256
3.80236
4.1946
3.27455
3.3032
3.58106
3.77392
4.36287
4.2158
3.86921
7.48699
2.49494
0.562757
0.161829
0.125214
0.129227
0.114493
0.0999941
0.0973892
0.0970616
0.0974249
0.0984556
0.100811
0.104808
0.107689
0.113135
0.122003
0.132971
0.139772
0.142826
0.142929
0.14473
0.152712
0.165738
0.18197
0.196535
0.203375
0.203817
0.193507
0.163054
0.152475
0.152162
0.161526
0.187718
0.230123
0.257818
0.267692
0.265517
0.252171
0.229393
0.220905
0.223128
0.226826
0.225593
0.222514
0.21891
0.214305
0.200417
0.186068
0.154342
0.124548
0.114256
0.112563
0.115851
0.125856
0.132107
0.131627
0.127676
0.121638
0.117878
0.116213
0.11869
0.134171
0.192194
0.287336
0.311303
0.312524
0.302512
0.332821
0.461113
0.651666
0.718167
0.734682
0.733959
0.729634
0.743765
0.79528
0.799916
0.634135
0.440005
0.328482
0.265969
0.222863
0.210595
0.208988
0.210035
0.210957
0.212452
0.222748
0.242741
0.248567
0.238996
0.204189
0.189202
0.183228
0.179278
0.174631
0.172802
0.173373
0.174097
0.176561
0.176334
0.177778
0.174772
0.187089
0.218448
0.247528
0.291465
0.314293
0.315801
0.291325
0.318517
0.350848
0.335674
0.356399
0.361415
0.343537
0.358121
0.352869
0.335081
0.345035
0.350437
0.339411
0.345786
0.345908
0.350851
0.37551
0.371671
0.370688
0.425095
0.503633
0.49749
0.506132
0.650572
0.720088
0.768557
0.812348
1.04142
1.06471
1.25561
1.2676
1.48837
1.46374
1.43207
1.44168
1.47239
1.5772
2.23744
2.43878
2.08939
2.44238
2.13549
1.85953
1.84494
1.95897
2.09494
1.79969
1.77498
1.81468
1.75084
1.82829
1.71758
1.88915
1.93622
2.34315
2.357
2.81966
3.18197
3.32298
3.4892
3.28087
3.2576
3.55061
2.95317
2.86691
3.0833
3.5111
4.26744
4.17645
3.73344
7.86676
2.73224
0.613246
0.163215
0.118553
0.122031
0.109415
0.0981141
0.0964353
0.0965347
0.0970759
0.0992369
0.102885
0.107022
0.110428
0.113741
0.119166
0.126435
0.13032
0.133988
0.134176
0.133419
0.135177
0.143477
0.16254
0.191474
0.208962
0.212941
0.207446
0.178742
0.158464
0.154119
0.157695
0.174031
0.191229
0.201724
0.217451
0.228604
0.239217
0.229194
0.21876
0.225878
0.246142
0.250459
0.245384
0.230842
0.220587
0.19815
0.168471
0.146261
0.115893
0.101881
0.0972033
0.0957539
0.0997531
0.113425
0.118317
0.118771
0.117501
0.116621
0.116114
0.116186
0.121948
0.14911
0.246758
0.314823
0.322866
0.326552
0.344596
0.450044
0.646796
0.731755
0.755145
0.75572
0.740916
0.734593
0.720875
0.609714
0.456782
0.341482
0.282025
0.241913
0.214438
0.207148
0.20641
0.206834
0.205669
0.206023
0.215496
0.23566
0.240333
0.232863
0.199519
0.180821
0.174188
0.169389
0.167489
0.167539
0.169893
0.171997
0.17312
0.172132
0.16733
0.163636
0.168216
0.191754
0.233166
0.25012
0.262229
0.290723
0.28439
0.296801
0.341338
0.336151
0.352307
0.352947
0.34012
0.346127
0.347403
0.330826
0.336324
0.34407
0.333002
0.333756
0.331395
0.32598
0.350743
0.36781
0.348103
0.377775
0.455424
0.46026
0.497826
0.605237
0.621577
0.728273
0.809351
0.981059
0.973937
1.17305
1.14643
1.19113
1.34399
1.4336
1.4238
1.37398
1.45104
2.1895
2.31163
1.98566
2.1477
2.05589
1.82216
1.8487
1.92429
1.92876
1.64162
1.70521
1.66097
1.73788
1.70954
1.60332
1.75569
1.91996
2.23691
2.23118
2.77864
2.92946
3.26438
3.51305
3.12877
2.89453
3.06928
2.7876
2.4812
2.70568
3.27077
4.09929
4.07001
3.63747
8.35292
3.23023
0.804136
0.194033
0.120238
0.119961
0.108477
0.0972204
0.0956069
0.0962605
0.0966818
0.097518
0.100139
0.105659
0.111998
0.117666
0.122479
0.127522
0.128808
0.128853
0.127773
0.125891
0.124978
0.127456
0.139782
0.174274
0.205859
0.215778
0.214034
0.188955
0.163449
0.156357
0.156833
0.167401
0.180603
0.187294
0.19133
0.203524
0.224417
0.227731
0.221125
0.232975
0.26063
0.267279
0.264914
0.25585
0.240159
0.20374
0.160022
0.131395
0.114549
0.100293
0.094475
0.0885207
0.0855601
0.0872473
0.0925017
0.098755
0.104392
0.107363
0.111498
0.11511
0.120378
0.129931
0.168856
0.289113
0.324296
0.332498
0.352519
0.43035
0.604866
0.730432
0.759206
0.759702
0.73567
0.687513
0.592598
0.457951
0.349056
0.288035
0.253365
0.225874
0.206214
0.202863
0.203156
0.201777
0.198633
0.198342
0.208134
0.229409
0.23444
0.228891
0.199896
0.17929
0.173007
0.16688
0.162841
0.161888
0.163104
0.168899
0.170811
0.170783
0.167237
0.160716
0.158718
0.169706
0.204622
0.22921
0.237105
0.26472
0.276355
0.290572
0.342305
0.336664
0.341537
0.34157
0.337343
0.334083
0.333051
0.321687
0.330311
0.327792
0.314023
0.31622
0.315721
0.308516
0.318909
0.347701
0.335434
0.362085
0.425564
0.450634
0.530015
0.574038
0.582056
0.727456
0.805071
0.873314
0.880059
1.07348
1.08876
1.05607
1.16846
1.46418
1.39494
1.28628
1.36345
2.06775
2.09038
1.89676
1.98002
1.92787
1.81029
1.83177
1.89092
1.73464
1.62647
1.68094
1.64019
1.70782
1.55479
1.49769
1.67277
2.10516
2.13907
2.2066
2.8902
2.73438
3.22814
3.65468
2.94114
2.65091
2.76748
2.66827
2.35658
2.49174
2.92383
3.74325
3.91603
3.48636
8.99623
3.50498
1.20479
0.304823
0.135506
0.117611
0.108797
0.0993001
0.0974314
0.0970867
0.0964504
0.0964031
0.0976949
0.10235
0.110271
0.116904
0.120707
0.122054
0.121026
0.116066
0.113409
0.112088
0.111913
0.113569
0.122343
0.153238
0.198361
0.214776
0.212808
0.187949
0.162958
0.156332
0.154706
0.154882
0.165003
0.181188
0.192843
0.212165
0.239517
0.242775
0.227327
0.228731
0.252677
0.263883
0.271796
0.271231
0.256737
0.214199
0.157225
0.123108
0.105835
0.100252
0.0963336
0.0912008
0.0822241
0.0764068
0.0741148
0.073296
0.0789271
0.0880316
0.0946037
0.105179
0.115916
0.125633
0.136835
0.187438
0.309046
0.334296
0.3522
0.40426
0.5391
0.699544
0.739515
0.745514
0.707659
0.606428
0.491614
0.371166
0.290101
0.250641
0.228686
0.21029
0.198271
0.194075
0.192374
0.187696
0.184663
0.185285
0.194081
0.218748
0.228533
0.227757
0.201898
0.179499
0.17307
0.166673
0.162452
0.161023
0.16013
0.163144
0.167387
0.171129
0.168292
0.156927
0.152989
0.161084
0.185847
0.210774
0.222787
0.258587
0.273698
0.289476
0.338943
0.336129
0.338696
0.340359
0.337168
0.328322
0.324103
0.319262
0.322751
0.312436
0.301925
0.303687
0.304367
0.307316
0.309793
0.318884
0.333829
0.358267
0.408446
0.447534
0.55241
0.553352
0.573805
0.738548
0.766484
0.795402
0.82398
1.01886
1.05007
1.0132
1.07734
1.46113
1.29559
1.21568
1.28759
1.80668
1.90924
1.82609
1.927
1.81288
1.79466
1.79514
1.85815
1.64592
1.62235
1.67174
1.64623
1.6056
1.49309
1.47278
1.69881
2.03337
2.08295
2.30077
2.99846
2.7051
3.32685
3.75956
2.64679
2.39379
2.63265
2.64059
2.36384
2.27925
2.59293
3.32984
3.71201
3.35504
9.89068
3.63347
1.53789
0.548215
0.201631
0.132643
0.115888
0.106415
0.105146
0.104438
0.102286
0.0999067
0.10082
0.105686
0.115964
0.124886
0.128896
0.127757
0.12212
0.110883
0.104298
0.102397
0.102513
0.104278
0.111452
0.137657
0.183823
0.20318
0.202527
0.187853
0.166803
0.159864
0.156819
0.154338
0.154501
0.159015
0.173689
0.211033
0.241499
0.238116
0.223586
0.227829
0.243858
0.254867
0.27119
0.277262
0.265507
0.217758
0.156886
0.121783
0.104422
0.0969659
0.0957026
0.0924835
0.0842964
0.0734867
0.0693442
0.0669115
0.0645975
0.0659283
0.0718363
0.0855839
0.098358
0.110647
0.119332
0.133506
0.199914
0.322232
0.35138
0.380237
0.457428
0.623327
0.705233
0.713508
0.686665
0.587319
0.461454
0.350427
0.274151
0.232589
0.211222
0.198447
0.192339
0.189883
0.186929
0.18069
0.175611
0.175198
0.181827
0.203626
0.224523
0.227374
0.211108
0.183399
0.1746
0.167583
0.163009
0.16179
0.159619
0.159688
0.162853
0.16919
0.17159
0.156822
0.150757
0.155469
0.176634
0.205363
0.218854
0.248039
0.270283
0.293226
0.33806
0.340909
0.345331
0.347055
0.343448