/*--------------------------------*- C++ -*----------------------------------*\
| =========                 |                                                 |
| \\      /  F ield         | OpenFOAM: The Open Source CFD Toolbox           |
|  \\    /   O peration     | Version:  dev                                   |
|   \\  /    A nd           | Web:      http://www.openfoam.org               |
|    \\/     M anipulation  |                                                 |
\*---------------------------------------------------------------------------*/
FoamFile
{
    version     2.0;
    format      ascii;
    class       volScalarField;
    object      muSgs;
    location    "9.152";
}
// * * * * * * * * * * * * * * * * * * * * * * * * * * * * * * * * * * * * * //

dimensions      [1 -1 -1 0 0 0 0];

internalField   nonuniform List<scalar> 
12225
(
0.000206709
0.000234683
0.000204812
0.000214113
0.000192702
0.000220526
0.000202364
0.000235223
0.00021389
0.000249032
0.000220699
0.000264584
0.00022422
0.000284238
0.000236927
0.000292429
0.000261324
0.000257729
0.000102164
0.000170844
0.00015919
0.000166212
0.000149144
0.000156546
0.000141932
0.000152303
0.000140442
0.000152651
0.000142234
0.000154274
0.000147325
0.000151462
0.000163423
0.000157086
0.000183325
0.000195173
3.24347e-05
9.43667e-05
9.92635e-05
0.000118467
0.000116132
0.000120159
0.000115022
0.000115394
0.000111248
0.000108966
0.000107235
0.00010161
0.000104711
9.31302e-05
0.000108029
8.45308e-05
0.00011152
0.00010087
9.77647e-06
4.06874e-05
5.49326e-05
6.25441e-05
7.37356e-05
7.55897e-05
8.14841e-05
7.92717e-05
8.20699e-05
7.71827e-05
8.07675e-05
7.37007e-05
7.6913e-05
6.69802e-05
7.44324e-05
5.84882e-05
7.54424e-05
6.89525e-05
4.10504e-06
1.61547e-05
2.71315e-05
3.20271e-05
4.19156e-05
4.47841e-05
5.16139e-05
5.16294e-05
5.4896e-05
5.22057e-05
5.4547e-05
5.04222e-05
5.29498e-05
4.64206e-05
5.09394e-05
4.32318e-05
5.11647e-05
4.91071e-05
4.208e-06
8.44001e-06
1.40668e-05
1.64029e-05
2.26136e-05
2.47453e-05
3.05041e-05
3.12681e-05
3.47917e-05
3.31438e-05
3.53189e-05
3.31986e-05
3.53692e-05
3.21252e-05
3.50815e-05
3.21884e-05
3.73435e-05
3.78055e-05
5.15391e-06
5.41765e-06
7.89333e-06
8.81477e-06
1.23483e-05
1.32876e-05
1.75599e-05
1.83834e-05
2.15708e-05
2.09261e-05
2.2751e-05
2.20984e-05
2.36669e-05
2.26377e-05
2.40274e-05
2.30758e-05
2.4178e-05
2.69353e-05
4.24379e-06
4.1616e-06
4.75915e-06
5.15063e-06
6.71951e-06
7.29136e-06
9.69464e-06
1.04262e-05
1.25533e-05
1.26993e-05
1.39008e-05
1.39801e-05
1.50709e-05
1.51139e-05
1.55232e-05
1.60481e-05
1.60271e-05
1.66783e-05
5.01238e-06
4.75186e-06
4.78108e-06
4.97375e-06
5.75373e-06
6.55609e-06
8.51769e-06
9.46323e-06
1.1388e-05
1.20071e-05
1.29879e-05
1.34402e-05
1.41491e-05
1.48444e-05
1.48785e-05
1.55541e-05
1.55445e-05
1.57555e-05
6.87476e-06
6.00574e-06
5.43532e-06
5.52352e-06
6.08644e-06
7.14626e-06
9.03773e-06
1.05338e-05
1.23129e-05
1.31995e-05
1.39748e-05
1.45906e-05
1.5171e-05
1.58058e-05
1.58744e-05
1.63689e-05
1.63945e-05
1.65835e-05
9.32532e-06
8.11903e-06
6.98573e-06
7.0063e-06
7.40758e-06
9.17275e-06
1.06625e-05
1.32615e-05
1.47247e-05
1.61578e-05
1.65755e-05
1.72155e-05
1.75544e-05
1.79763e-05
1.80754e-05
1.83279e-05
1.83018e-05
1.83146e-05
1.34718e-05
1.16829e-05
9.87285e-06
9.8782e-06
1.04437e-05
1.34013e-05
1.512e-05
1.89596e-05
2.05799e-05
2.23202e-05
2.28582e-05
2.32779e-05
2.32796e-05
2.33228e-05
2.31721e-05
2.29443e-05
2.26179e-05
2.21151e-05
2.0515e-05
1.76387e-05
1.49787e-05
1.48347e-05
1.59151e-05
2.05406e-05
2.42176e-05
2.7704e-05
2.92683e-05
3.06615e-05
3.13511e-05
3.16491e-05
3.16979e-05
3.15776e-05
3.12959e-05
3.08497e-05
3.02667e-05
2.93654e-05
3.17335e-05
2.75687e-05
2.3897e-05
2.3351e-05
2.42667e-05
2.93245e-05
3.43127e-05
3.76636e-05
3.95192e-05
4.05887e-05
4.11142e-05
4.11349e-05
4.09483e-05
4.08461e-05
4.05561e-05
4.01374e-05
3.94609e-05
3.83866e-05
4.6798e-05
4.08535e-05
3.5983e-05
3.50567e-05
3.58023e-05
4.11779e-05
4.8851e-05
5.37997e-05
5.65812e-05
5.78233e-05
5.80975e-05
5.77599e-05
5.70737e-05
5.62497e-05
5.52499e-05
5.38417e-05
5.15901e-05
4.96025e-05
6.50793e-05
5.77251e-05
5.06593e-05
4.91342e-05
4.95801e-05
5.52015e-05
6.30092e-05
6.77011e-05
7.00726e-05
7.07828e-05
7.04464e-05
6.95882e-05
6.84722e-05
6.72356e-05
6.55006e-05
6.29416e-05
5.99023e-05
5.73864e-05
8.08972e-05
7.05716e-05
6.07984e-05
5.85685e-05
5.87746e-05
6.45677e-05
7.28316e-05
7.7592e-05
7.97968e-05
8.01957e-05
7.94956e-05
7.83192e-05
7.69644e-05
7.54534e-05
7.31075e-05
6.99764e-05
6.64803e-05
6.36056e-05
8.28324e-05
7.2081e-05
6.22219e-05
6.00073e-05
6.02119e-05
6.60895e-05
7.44222e-05
7.91868e-05
8.13434e-05
8.16476e-05
8.08561e-05
7.96282e-05
7.82299e-05
7.66351e-05
7.41063e-05
7.08734e-05
6.73368e-05
6.4415e-05
7.2783e-05
6.40986e-05
5.61162e-05
5.44334e-05
5.49665e-05
6.11246e-05
6.89661e-05
7.35105e-05
7.56316e-05
7.59976e-05
7.52657e-05
7.41226e-05
7.28137e-05
7.13092e-05
6.89928e-05
6.60387e-05
6.27629e-05
6.0065e-05
5.57639e-05
4.95828e-05
4.35994e-05
4.25072e-05
4.35344e-05
4.97965e-05
5.76759e-05
6.25926e-05
6.52301e-05
6.61266e-05
6.57413e-05
6.48025e-05
6.36681e-05
6.24039e-05
6.06779e-05
5.8367e-05
5.55684e-05
5.32805e-05
4.23073e-05
3.80261e-05
3.4146e-05
3.34129e-05
3.40797e-05
3.83382e-05
4.37141e-05
4.72136e-05
4.91675e-05
4.98051e-05
4.94674e-05
4.87247e-05
4.78319e-05
4.6814e-05
4.54939e-05
4.41214e-05
4.22017e-05
4.06674e-05
3.01093e-05
2.70778e-05
2.46294e-05
2.40938e-05
2.41997e-05
2.56686e-05
2.98509e-05
3.40645e-05
3.64327e-05
3.71184e-05
3.67668e-05
3.61172e-05
3.52507e-05
3.42756e-05
3.32179e-05
3.23383e-05
3.13911e-05
3.0628e-05
1.98391e-05
1.88449e-05
1.74049e-05
1.69293e-05
1.69143e-05
1.79288e-05
2.09374e-05
2.36626e-05
2.5142e-05
2.61796e-05
2.67124e-05
2.72221e-05
2.7388e-05
2.74647e-05
2.71858e-05
2.69959e-05
2.66498e-05
2.64094e-05
1.32076e-05
1.27042e-05
1.19647e-05
1.18702e-05
1.25088e-05
1.47839e-05
1.69117e-05
1.87459e-05
1.99102e-05
2.14846e-05
2.27566e-05
2.41294e-05
2.49539e-05
2.55517e-05
2.55613e-05
2.56153e-05
2.54157e-05
2.54096e-05
8.20056e-06
8.49943e-06
8.9172e-06
1.01979e-05
1.2421e-05
1.58573e-05
1.78354e-05
1.93734e-05
2.05262e-05
2.27122e-05
2.46698e-05
2.66868e-05
2.79312e-05
2.87704e-05
2.88671e-05
2.90137e-05
2.88683e-05
2.89596e-05
3.45048e-06
6.97683e-06
1.07659e-05
1.58332e-05
2.3584e-05
2.88044e-05
3.11331e-05
3.23691e-05
3.36274e-05
3.61927e-05
3.85813e-05
4.07892e-05
4.20261e-05
4.25378e-05
4.23021e-05
4.20751e-05
4.16763e-05
4.1503e-05
3.73475e-06
1.45739e-05
2.78259e-05
4.34346e-05
5.54923e-05
6.1549e-05
6.34657e-05
6.40392e-05
6.47636e-05
6.62693e-05
6.75606e-05
6.85029e-05
6.85386e-05
6.78557e-05
6.68654e-05
6.58546e-05
6.48859e-05
6.435e-05
1.24866e-05
4.68954e-05
8.34363e-05
0.000101924
0.000113706
0.000117597
0.000117071
0.000115557
0.000114023
0.000112378
0.000110332
0.000107836
0.000105042
0.000102045
9.92241e-05
9.66811e-05
9.43603e-05
9.22894e-05
6.19117e-05
0.000153681
0.000184415
0.000185497
0.000180861
0.000172509
0.000163881
0.000156595
0.000150595
0.000145049
0.000139899
0.000134665
0.000129714
0.00012484
0.000120393
0.000115853
0.000111711
0.000107904
0.000239596
0.000296509
0.000287908
0.000262991
0.000243216
0.000233372
0.00023002
0.000228615
0.000228257
0.000227077
0.000225201
0.000222391
0.000218835
0.000214563
0.000209738
0.000204404
0.000198673
0.000191989
2.69033e-05
3.0111e-05
3.10148e-05
3.17512e-05
3.30473e-05
3.48571e-05
3.67547e-05
3.84833e-05
4.03465e-05
4.24597e-05
4.48319e-05
4.75395e-05
5.05132e-05
5.36495e-05
5.68889e-05
6.0415e-05
6.43327e-05
6.86268e-05
7.32283e-05
7.80146e-05
8.29964e-05
8.83431e-05
9.40821e-05
0.000100144
0.000106375
0.000112683
0.000119017
0.000125232
0.000131048
0.000136085
0.000140567
0.000144458
0.000147498
0.000149814
0.000151586
0.000152748
0.000153674
0.000154516
0.000155648
0.000157142
0.00015902
0.000161146
0.000164172
0.000168451
0.000170502
0.000171443
0.000171332
0.000171258
0.000172134
0.00017425
0.000176657
0.00017935
0.000181535
0.00018296
0.0001838
0.000186797
0.000191519
0.00019756
0.000201331
0.000204805
0.000207242
0.000209802
0.000212498
0.000214601
0.000215988
0.000217004
0.000217495
0.00021702
0.000215224
0.000212725
0.00020903
0.000206559
0.000208664
0.000217023
0.000235021
0.000241953
0.000243116
0.000231299
0.000217042
0.000213406
0.000210537
0.000208816
0.000209237
0.00020988
0.000212314
0.000214526
0.000216889
0.00022838
0.000250596
0.00027405
0.000291738
0.000304693
0.000314692
0.000321437
0.000325196
0.000324848
0.000316081
0.00030328
0.000289834
0.000275588
0.000259076
0.000241057
0.000225862
0.000212059
0.00019152
0.000183606
0.000168009
0.000149289
0.000144341
0.000138741
0.000132997
0.000130587
0.00013047
0.000131435
0.000135667
0.000140374
0.000146704
0.000156986
0.000164776
0.000170528
0.000174839
0.00018211
0.000190656
0.000199467
0.000204957
0.000208646
0.000214486
0.00022182
0.00023082
0.00023946
0.000248999
0.000260237
0.00027289
0.000285207
0.000298484
0.000312492
0.000326657
0.000339113
0.000349885
0.0003601
0.000369931
0.000382626
0.000396153
0.000409691
0.000417986
0.000427329
0.000414681
0.000424778
0.000446017
0.000463376
0.000476501
0.000483196
0.000488513
0.00048544
0.000492652
0.000465307
0.000447396
0.000449777
0.000449303
0.000443004
0.000434676
0.000423814
0.000419171
0.000398336
0.000356026
0.00031934
0.000303519
0.000309618
0.000298611
0.000285044
0.000297604
0.000295019
0.000295011
0.00030435
0.000325053
0.000342591
0.000341822
0.000429357
0.000487097
0.000470516
4.81086e-05
3.24708e-05
2.93315e-05
2.87493e-05
2.88545e-05
2.93573e-05
2.99795e-05
3.05804e-05
3.13758e-05
3.24063e-05
3.36845e-05
3.52099e-05
3.67064e-05
3.82299e-05
3.98984e-05
4.18275e-05
4.40278e-05
4.63989e-05
4.90164e-05
5.17065e-05
5.44937e-05
5.75159e-05
6.08342e-05
6.42334e-05
6.75936e-05
7.07264e-05
7.3479e-05
7.52528e-05
7.59912e-05
7.62254e-05
7.59442e-05
7.51724e-05
7.41777e-05
7.30355e-05
7.19658e-05
7.11724e-05
7.09367e-05
7.09789e-05
7.13808e-05
7.25892e-05
7.44786e-05
7.7051e-05
8.11461e-05
8.33672e-05
8.31989e-05
8.17734e-05
8.02113e-05
8.04571e-05
8.10389e-05
8.22615e-05
8.65942e-05
8.90583e-05
8.86385e-05
8.74414e-05
8.77004e-05
9.04641e-05
9.6393e-05
0.000101477
0.000103942
0.000108826
0.000112526
0.000114381
0.000115174
0.000113453
0.000108865
0.000105198
0.000100663
9.51977e-05
8.90249e-05
8.44914e-05
8.10285e-05
8.15242e-05
8.72313e-05
9.4324e-05
0.000112888
0.000147803
0.000185181
0.000189354
0.000180355
0.000155909
0.000128876
0.000124077
0.000127171
0.000138557
0.000168404
0.000203017
0.000213642
0.000219142
0.000222506
0.000220882
0.000212941
0.00020597
0.000201342
0.000193673
0.000182923
0.0001694
0.000155842
0.000146521
0.000139056
0.00013177
0.000123265
0.000114989
0.000111333
0.000108337
0.00010551
0.000107882
9.96013e-05
9.92028e-05
0.000101328
9.90471e-05
0.000102019
0.000103171
0.000104037
0.000104662
0.000108375
0.000111217
0.00011406
0.000121207
0.000130749
0.00013597
0.00013814
0.000142516
0.00015025
0.000160618
0.000169121
0.00017593
0.000180188
0.000184569
0.000192111
0.000203107
0.000213517
0.00022239
0.00023504
0.00024573
0.000257235
0.000268901
0.000278371
0.000287441
0.000299504
0.000304224
0.00030771
0.000323376
0.000336661
0.000342238
0.000335754
0.00033044
0.000319567
0.000360994
0.000378974
0.00039819
0.000402629
0.000402516
0.000400867
0.000392097
0.000379599
0.000373635
0.000387001
0.000400299
0.000396164
0.000389174
0.000391619
0.000404453
0.000406087
0.000391252
0.000356215
0.000329799
0.000325165
0.000325562
0.000319424
0.000318007
0.000319147
0.00032127
0.000324074
0.000335922
0.000344807
0.000381032
0.000395401
0.000427283
0.00043993
0.00044784
7.54909e-05
3.75743e-05
2.81737e-05
2.63785e-05
2.60572e-05
2.63339e-05
2.71887e-05
2.83128e-05
2.92033e-05
3.02179e-05
3.16121e-05
3.32652e-05
3.43607e-05
3.53283e-05
3.63744e-05
3.75457e-05
3.90406e-05
4.07364e-05
4.29387e-05
4.56876e-05
4.87876e-05
5.20152e-05
5.51309e-05
5.85371e-05
6.15713e-05
6.27254e-05
6.30338e-05
6.24348e-05
6.08476e-05
5.90598e-05
5.78676e-05
5.66881e-05
5.56606e-05
5.48762e-05
5.4302e-05
5.38307e-05
5.35936e-05
5.34104e-05
5.33026e-05
5.33885e-05
5.37366e-05
5.48583e-05
5.6578e-05
5.71942e-05
5.72165e-05
5.70169e-05
5.7129e-05
5.76488e-05
5.79999e-05
5.80478e-05
5.95151e-05
6.26097e-05
6.33363e-05
6.27219e-05
6.23571e-05
6.38825e-05
6.73062e-05
6.88384e-05
6.96847e-05
7.38172e-05
7.96609e-05
8.20015e-05
8.24169e-05
8.06994e-05
7.51813e-05
7.0491e-05
6.67772e-05
6.34389e-05
6.12837e-05
6.03623e-05
6.05552e-05
6.50865e-05
7.23304e-05
7.67378e-05
8.11198e-05
8.81759e-05
0.000105907
0.000128534
0.000137937
0.000128612
0.000121404
0.000128486
0.000144979
0.000161047
0.000171832
0.00018075
0.000176403
0.000166639
0.000154356
0.000138656
0.000127323
0.000120211
0.000114065
0.000105669
9.52654e-05
8.6747e-05
8.27122e-05
8.14227e-05
8.13975e-05
8.2111e-05
8.12543e-05
7.9764e-05
7.94167e-05
8.03121e-05
8.18308e-05
8.58474e-05
9.11988e-05
9.22826e-05
8.49755e-05
8.25375e-05
8.93257e-05
8.92879e-05
8.57998e-05
8.68205e-05
9.05986e-05
9.12984e-05
8.89007e-05
8.99277e-05
9.83637e-05
0.000105266
0.000106819
0.000105349
0.000106285
0.000113558
0.000123379
0.00013147
0.000136083
0.000139467
0.000142876
0.000150905
0.000159131
0.000163446
0.000172076
0.000185286
0.000195203
0.00020066
0.000209796
0.000216562
0.000226994
0.00023272
0.000245209
0.000262112
0.00027381
0.000276194
0.000263734
0.00025397
0.000234261
0.000276205
0.000290463
0.000311373
0.000317866
0.0003222
0.000330681
0.000332219
0.000315123
0.000302884
0.000328633
0.000343604
0.000341678
0.000331627
0.000323413
0.000338683
0.000361028
0.000366597
0.000357065
0.000342708
0.000339852
0.000333874
0.000330401
0.000342297
0.000334487
0.000317777
0.000310521
0.00032338
0.00031017
0.000383692
0.000376387
0.000412428
0.000429442
0.000409907
0.000107003
4.76996e-05
2.89908e-05
2.60789e-05
2.55216e-05
2.58031e-05
2.71228e-05
2.90994e-05
3.03367e-05
3.14934e-05
3.2276e-05
3.32249e-05
3.38989e-05
3.43826e-05
3.54419e-05
3.70892e-05
3.9344e-05
4.21304e-05
4.5168e-05
4.86452e-05
5.16671e-05
5.41382e-05
5.63403e-05
5.71826e-05
5.74009e-05
5.61197e-05
5.40978e-05
5.26982e-05
5.15934e-05
5.04687e-05
4.9978e-05
4.97183e-05
4.94034e-05
4.92047e-05
4.91039e-05
4.91384e-05
4.91738e-05
4.91113e-05
4.88678e-05
4.8316e-05
4.75669e-05
4.6832e-05
4.65983e-05
4.66494e-05
4.68183e-05
4.6923e-05
4.72386e-05
4.76894e-05
4.80112e-05
4.82514e-05
4.92285e-05
5.19144e-05
5.33332e-05
5.35153e-05
5.36699e-05
5.56677e-05
5.81274e-05
5.84362e-05
5.83963e-05
5.93817e-05
6.17773e-05
6.49185e-05
6.73393e-05
6.83059e-05
6.83255e-05
6.70261e-05
6.41136e-05
6.02653e-05
5.74177e-05
5.66284e-05
5.72257e-05
6.16324e-05
6.97502e-05
7.33422e-05
7.51476e-05
7.84308e-05
8.22967e-05
9.36099e-05
0.000111047
0.000116484
0.000136218
0.000149923
0.000152623
0.00015688
0.00015717
0.000142807
0.000134463
0.000119485
0.000101715
9.04203e-05
8.40962e-05
8.05284e-05
7.75082e-05
7.36034e-05
6.92026e-05
6.72846e-05
6.68791e-05
6.78965e-05
6.98312e-05
7.23243e-05
7.36337e-05
7.4652e-05
7.63417e-05
7.76728e-05
7.70036e-05
7.96211e-05
8.92312e-05
9.14337e-05
8.56948e-05
7.99165e-05
8.47625e-05
8.59784e-05
8.02328e-05
7.97644e-05
8.42975e-05
8.64014e-05
8.34297e-05
8.16145e-05
8.46735e-05
8.86128e-05
9.13345e-05
9.43347e-05
9.43821e-05
9.43643e-05
9.89482e-05
0.00010694
0.000110592
0.000112827
0.000116194
0.000123283
0.000130346
0.000131949
0.000136379
0.000145214
0.000155431
0.000159808
0.000165886
0.000169147
0.000182211
0.000195742
0.000220098
0.000238772
0.000241695
0.000235481
0.00021706
0.000201058
0.000179721
0.000231678
0.000247494
0.000260794
0.000267976
0.000273232
0.000284983
0.000296385
0.000278656
0.000248035
0.000293721
0.000313031
0.000305276
0.000296163
0.000280716
0.000287022
0.000317739
0.000341415
0.000351478
0.000353296
0.000343305
0.00033319
0.000352335
0.00034932
0.000339509
0.000332756
0.000311728
0.000291667
0.000277513
0.000343539
0.000327412
0.000356928
0.000414606
0.000392208
0.000136459
6.38179e-05
3.23546e-05
2.6329e-05
2.5543e-05
2.63399e-05
2.8896e-05
3.16886e-05
3.24286e-05
3.22333e-05
3.2019e-05
3.30321e-05
3.41506e-05
3.53627e-05
3.75655e-05
3.98672e-05
4.25017e-05
4.52621e-05
4.79081e-05
5.01756e-05
5.17472e-05
5.26153e-05
5.27093e-05
5.14272e-05
4.95566e-05
4.86857e-05
4.78302e-05
4.73714e-05
4.70748e-05
4.70091e-05
4.69636e-05
4.69868e-05
4.70409e-05
4.70873e-05
4.72974e-05
4.74748e-05
4.77678e-05
4.79359e-05
4.79852e-05
4.75429e-05
4.65807e-05
4.49415e-05
4.31612e-05
4.22604e-05
4.20547e-05
4.21641e-05
4.2538e-05
4.30902e-05
4.35298e-05
4.37414e-05
4.35411e-05
4.33108e-05
4.35542e-05
4.46357e-05
4.77993e-05
5.22573e-05
5.34995e-05
5.36483e-05
5.37694e-05
5.51472e-05
5.76639e-05
6.00273e-05
6.12509e-05
6.18481e-05
6.18453e-05
6.10509e-05
5.94968e-05
5.64352e-05
5.50671e-05
5.5297e-05
5.79314e-05
6.4995e-05
7.11736e-05
7.484e-05
7.69196e-05
7.55114e-05
7.50781e-05
8.2027e-05
9.75489e-05
0.000119892
0.000143884
0.000149488
0.000146469
0.000134826
0.000124541
0.000111965
0.00010028
8.4676e-05
7.26569e-05
6.72521e-05
6.49644e-05
6.3751e-05
6.29026e-05
6.21538e-05
6.17149e-05
6.23819e-05
6.39883e-05
6.57622e-05
6.70375e-05
6.78558e-05
6.89303e-05
7.16044e-05
7.65821e-05
7.75223e-05
7.43606e-05
7.57417e-05
7.8028e-05
7.78959e-05
8.4413e-05
8.01132e-05
8.12446e-05
8.33539e-05
7.89482e-05
7.75027e-05
8.02417e-05
8.22475e-05
7.98696e-05
7.77913e-05
8.03335e-05
8.44674e-05
8.42998e-05
8.26215e-05
8.394e-05
8.5448e-05
8.73803e-05
9.2878e-05
9.73822e-05
9.90753e-05
0.000100094
0.000106815
0.000114121
0.000115979
0.000116309
0.000123972
0.000133713
0.000139658
0.000142533
0.000141209
0.000156232
0.000176202
0.000196466
0.000220923
0.00022667
0.000220029
0.000204413
0.000186073
0.000164462
0.000203801
0.000218713
0.000236818
0.000246204
0.000255725
0.000266985
0.000270076
0.000258946
0.000202873
0.000247603
0.000292914
0.000286907
0.00027823
0.000265671
0.000260597
0.000279576
0.000319855
0.00033872
0.000354998
0.000346665
0.000337592
0.000384111
0.000388717
0.000351316
0.000325304
0.000336169
0.00030266
0.000279594
0.000299561
0.000309219
0.000319237
0.000393745
0.000391064
0.000162107
8.27899e-05
3.88698e-05
2.81221e-05
2.66135e-05
2.84388e-05
3.22521e-05
3.31199e-05
3.22852e-05
3.16124e-05
3.20935e-05
3.3307e-05
3.47357e-05
3.64176e-05
3.87383e-05
4.0933e-05
4.30188e-05
4.5231e-05
4.71509e-05
4.8008e-05
4.81751e-05
4.75112e-05
4.62494e-05
4.54856e-05
4.49612e-05
4.49575e-05
4.52427e-05
4.54673e-05
4.55843e-05
4.56114e-05
4.53014e-05
4.45125e-05
4.42062e-05
4.41591e-05
4.42397e-05
4.46285e-05
4.55275e-05
4.67273e-05
4.72882e-05
4.74553e-05
4.69221e-05
4.54356e-05
4.33337e-05
4.13554e-05
4.06032e-05
4.03447e-05
4.0341e-05
4.08392e-05
4.14912e-05
4.17891e-05
4.17926e-05
4.09096e-05
4.02221e-05
4.04182e-05
4.17225e-05
4.4041e-05
4.62334e-05
4.83694e-05
4.97736e-05
5.23939e-05
5.53727e-05
5.7344e-05
5.92026e-05
6.10002e-05
6.14115e-05
6.07863e-05
5.82927e-05
5.55593e-05
5.514e-05
5.70772e-05
6.39786e-05
7.46117e-05
7.7385e-05
7.88129e-05
7.87268e-05
7.72853e-05
7.88249e-05
8.34955e-05
9.73061e-05
0.00012742
0.000142298
0.000143154
0.00012502
0.00010747
9.7777e-05
8.75779e-05
7.6806e-05
6.53784e-05
6.01287e-05
5.8421e-05
5.79369e-05
5.77505e-05
5.81572e-05
5.87461e-05
6.00552e-05
6.21668e-05
6.43949e-05
6.54945e-05
6.58177e-05
6.61202e-05
6.68319e-05
6.96325e-05
7.303e-05
7.36667e-05
7.66203e-05
8.17149e-05
7.70755e-05
7.56827e-05
8.08181e-05
8.3337e-05
7.88697e-05
8.06818e-05
8.04013e-05
7.90406e-05
7.8065e-05
7.8655e-05
7.9319e-05
7.79198e-05
7.74266e-05
7.97113e-05
8.26483e-05
8.1751e-05
7.97864e-05
8.05256e-05
8.21597e-05
8.48786e-05
8.9317e-05
9.10747e-05
9.06842e-05
9.41616e-05
0.000103121
0.000105349
0.000105671
0.000109971
0.000116042
0.000123867
0.000131057
0.000130941
0.000142152
0.000156083
0.000175479
0.000200405
0.000211031
0.000200377
0.000189126
0.000202059
0.000170574
0.000190267
0.000195262
0.000226436
0.000232368
0.000242822
0.000250362
0.000257447
0.000261658
0.000186335
0.000201604
0.000255049
0.000263617
0.000265366
0.000261001
0.00024975
0.000258653
0.000295922
0.000325465
0.000354758
0.000336528
0.000335789
0.000339348
0.000376767
0.000400617
0.000345099
0.000343845
0.000328434
0.000309583
0.000286403
0.000313903
0.000340164
0.000367772
0.000383072
0.000182591
9.18353e-05
4.20722e-05
3.0275e-05
2.9297e-05
3.13246e-05
3.27328e-05
3.22237e-05
3.10129e-05
3.09763e-05
3.17978e-05
3.31738e-05
3.45722e-05
3.63946e-05
3.84739e-05
4.04693e-05
4.21175e-05
4.31811e-05
4.35828e-05
4.35479e-05
4.35799e-05
4.32086e-05
4.27915e-05
4.26281e-05
4.32499e-05
4.41063e-05
4.44434e-05
4.46857e-05
4.44125e-05
4.34808e-05
4.2111e-05
4.13939e-05
4.11906e-05
4.11244e-05
4.11189e-05
4.13956e-05
4.22081e-05
4.35466e-05
4.52339e-05
4.70723e-05
4.79138e-05
4.81824e-05
4.72133e-05
4.43171e-05
4.16424e-05
4.04083e-05
3.9861e-05
3.97261e-05
4.00791e-05
4.09681e-05
4.12285e-05
4.11772e-05
3.99377e-05
3.86866e-05
3.84734e-05
3.85015e-05
3.91366e-05
4.06559e-05
4.23663e-05
4.54035e-05
4.96562e-05
5.36976e-05
5.69257e-05
5.85846e-05
5.91822e-05
5.81505e-05
5.55569e-05
5.47766e-05
5.60921e-05
6.13062e-05
7.4096e-05
7.97397e-05
8.0826e-05
8.19796e-05
8.34278e-05
8.27128e-05
8.24333e-05
8.46101e-05
0.000102407
0.000128352
0.000135319
0.000124716
0.000100573
8.73754e-05
7.71721e-05
7.0356e-05
6.28356e-05
5.76031e-05
5.57384e-05
5.50631e-05
5.4724e-05
5.48159e-05
5.56337e-05
5.7176e-05
5.96596e-05
6.22689e-05
6.41364e-05
6.43784e-05
6.40106e-05
6.38795e-05
6.48379e-05
6.88171e-05
7.08038e-05
7.10143e-05
7.65558e-05
8.53943e-05
7.57317e-05
7.55257e-05
8.02499e-05
8.30675e-05
7.55411e-05
7.97312e-05
7.80329e-05
7.74031e-05
7.86388e-05
7.50538e-05
7.66815e-05
7.70365e-05
7.68977e-05
7.66692e-05
7.86423e-05
8.0922e-05
8.01001e-05
7.93879e-05
8.17101e-05
8.41582e-05
8.49834e-05
8.6284e-05
8.64765e-05
8.52006e-05
9.30609e-05
0.000103642
0.00010075
9.88625e-05
0.000109829
0.000127897
0.000122419
0.000126327
0.000150975
0.00016205
0.000168487
0.000177112
0.000190466
0.000186895
0.000190937
0.000218312
0.000166452
0.00017723
0.00017594
0.00022149
0.00022575
0.000225273
0.000215701
0.000244411
0.000261111
0.000211899
0.000182303
0.000212606
0.000231157
0.000242154
0.000246638
0.000236265
0.000248968
0.000270319
0.000315289
0.000355863
0.000326979
0.000331662
0.000299758
0.000331172
0.000399435
0.000384845
0.000337561
0.000343785
0.00034519
0.000306793
0.000306986
0.000300344
0.000327007
0.000371399
0.000199158
9.68418e-05
4.2019e-05
3.01768e-05
2.9987e-05
3.11281e-05
3.10864e-05
3.01188e-05
2.95091e-05
3.00404e-05
3.10534e-05
3.19505e-05
3.34625e-05
3.52156e-05
3.68588e-05
3.87148e-05
4.06725e-05
4.13217e-05
4.13209e-05
4.11713e-05
4.10752e-05
4.07924e-05
4.08162e-05
4.17419e-05
4.27298e-05
4.31736e-05
4.32576e-05
4.2867e-05
4.17409e-05
4.06903e-05
4.0476e-05
4.05003e-05
4.05298e-05
4.03806e-05
4.03057e-05
4.04107e-05
4.09729e-05
4.20571e-05
4.35803e-05
4.53808e-05
4.75761e-05
4.90316e-05
4.96402e-05
4.96254e-05
4.74444e-05
4.332e-05
4.03945e-05
3.9167e-05
3.89909e-05
3.92017e-05
4.06469e-05
4.09026e-05
4.0751e-05
3.90179e-05
3.74398e-05
3.71135e-05
3.73542e-05
3.77798e-05
3.80987e-05
3.89283e-05
4.11688e-05
4.55808e-05
5.1855e-05
5.41573e-05
5.48138e-05
5.34274e-05
5.27701e-05
5.35601e-05
5.78605e-05
6.78229e-05
7.85506e-05
8.22309e-05
8.44185e-05
8.525e-05
8.37276e-05
8.21502e-05
8.1943e-05
8.86456e-05
0.00011417
0.000126121
0.000123203
0.00010067
8.18319e-05
7.16527e-05
6.43603e-05
6.02111e-05
5.62741e-05
5.43771e-05
5.373e-05
5.34235e-05
5.34401e-05
5.42958e-05
5.55558e-05
5.71233e-05
5.92244e-05
6.1358e-05
6.20808e-05
6.04657e-05
5.85197e-05
5.84105e-05
6.18238e-05
6.69619e-05
6.84732e-05
6.87178e-05
6.9997e-05
7.25709e-05
7.01883e-05
7.4698e-05
8.48017e-05
7.9869e-05
6.75298e-05
7.95253e-05
7.53827e-05
6.6854e-05
7.32339e-05
7.17009e-05
7.22345e-05
7.34746e-05
7.49781e-05
7.09338e-05
7.33323e-05
7.85393e-05
7.90821e-05
7.61102e-05
7.97706e-05
8.46356e-05
8.3498e-05
8.42493e-05
8.36644e-05
8.21441e-05
8.91152e-05
0.000100596
9.90022e-05
9.52686e-05
0.000113827
0.000127136
0.000128628
0.000129235
0.000154707
0.000164911
0.000175409
0.000175194
0.000175512
0.000173993
0.000190119
0.000225394
0.000181661
0.000178781
0.000164262
0.000207626
0.000227685
0.000219236
0.000191924
0.000222452
0.000235315
0.000226515
0.000195481
0.000193103
0.000209628
0.000222763
0.000230341
0.000221768
0.000229807
0.000249668
0.000306272
0.00034559
0.000320404
0.000336341
0.00032099
0.000344112
0.000355667
0.000394883
0.000330121
0.000336445
0.000352256
0.000327446
0.000313121
0.000296195
0.000300278
0.000349708
0.00021288
0.000108147
4.58044e-05
3.05392e-05
2.97334e-05
3.08277e-05
3.04116e-05
2.92245e-05
2.92395e-05
2.95801e-05
3.02815e-05
3.11115e-05
3.27523e-05
3.42664e-05
3.58279e-05
3.70276e-05
3.7707e-05
3.83046e-05
3.88697e-05
3.89689e-05
3.90194e-05
3.90672e-05
3.98389e-05
4.11827e-05
4.17417e-05
4.20044e-05
4.19077e-05
4.1188e-05
3.98539e-05
3.94635e-05
3.97363e-05
4.05327e-05
4.13942e-05
4.15354e-05
4.11719e-05
4.11477e-05
4.14832e-05
4.24827e-05
4.39058e-05
4.53223e-05
4.66849e-05
4.79347e-05
4.93116e-05
4.98018e-05
4.9786e-05
4.80513e-05
4.54257e-05
4.06276e-05
3.85429e-05
3.76522e-05
3.76275e-05
3.8294e-05
3.93679e-05
3.93815e-05
3.79969e-05
3.68262e-05
3.66132e-05
3.65535e-05
3.64171e-05
3.63171e-05
3.706e-05
3.99251e-05
4.60035e-05
5.08646e-05
5.23622e-05
5.26065e-05
5.24409e-05
5.42178e-05
6.12816e-05
7.22068e-05
8.08307e-05
8.39567e-05
8.55982e-05
8.58247e-05
8.28348e-05
8.15552e-05
8.31249e-05
9.86654e-05
0.000114544
0.000118632
0.000104628
8.21502e-05
6.93824e-05
6.11387e-05
5.70614e-05
5.50483e-05
5.36562e-05
5.28512e-05
5.23706e-05
5.22939e-05
5.3263e-05
5.45274e-05
5.54671e-05
5.62983e-05
5.72984e-05
5.79322e-05
5.60011e-05
5.32743e-05
5.24185e-05
5.28322e-05
5.59283e-05
6.0392e-05
6.35005e-05
6.52556e-05
6.54026e-05
6.36995e-05
6.35407e-05
7.36019e-05
9.45222e-05
8.25085e-05
7.17525e-05
7.81778e-05
7.63185e-05
6.79477e-05
7.0548e-05
7.03869e-05
6.67021e-05
6.68932e-05
7.12936e-05
6.73863e-05
6.67102e-05
7.33624e-05
7.5256e-05
6.92119e-05
7.23983e-05
7.99325e-05
8.05827e-05
8.194e-05
8.03025e-05
8.2785e-05
9.10926e-05
9.38399e-05
9.44694e-05
9.57764e-05
0.000120129
0.000111336
0.000119713
0.000136875
0.000147188
0.00014201
0.00015236
0.000169192
0.000169823
0.000154163
0.000166161
0.000205482
0.000193347
0.000195907
0.00017481
0.000192133
0.000224007
0.000221118
0.000189184
0.000202571
0.00021669
0.000211855
0.000196073
0.000192576
0.000200341
0.000209046
0.000208123
0.000207977
0.000222611
0.000238003
0.00029251
0.00032217
0.00030888
0.000345144
0.000315258
0.000330483
0.00029926
0.000378604
0.000334481
0.000318599
0.000334568
0.000326795
0.000324276
0.000318112
0.000290921
0.000326613
0.000224691
0.000126729
5.82901e-05
3.40728e-05
3.04693e-05
3.11986e-05
3.0846e-05
2.89632e-05
2.85858e-05
2.84078e-05
2.86824e-05
2.90813e-05
3.03947e-05
3.22768e-05
3.4353e-05
3.57597e-05
3.64231e-05
3.70462e-05
3.72879e-05
3.74959e-05
3.7625e-05
3.79462e-05
3.89164e-05
4.04086e-05
4.11116e-05
4.13685e-05
4.14666e-05
4.0868e-05
3.92527e-05
3.82988e-05
3.85241e-05
3.99024e-05
4.23799e-05
4.40041e-05
4.43229e-05
4.36645e-05
4.38135e-05
4.43952e-05
4.53296e-05
4.63071e-05
4.69674e-05
4.72605e-05
4.73731e-05
4.77133e-05
4.8567e-05
4.88615e-05
4.79986e-05
4.51834e-05
4.15084e-05
3.78913e-05
3.66536e-05
3.64173e-05
3.66654e-05
3.76768e-05
3.76055e-05
3.70178e-05
3.61276e-05
3.57016e-05
3.5537e-05
3.53964e-05
3.56682e-05
3.75177e-05
4.21352e-05
4.92832e-05
5.2714e-05
5.40083e-05
5.33637e-05
5.47107e-05
6.18898e-05
7.29667e-05
8.19769e-05
8.52013e-05
8.63436e-05
8.57647e-05
8.29926e-05
8.25889e-05
8.92544e-05
0.000103561
0.000110731
0.000106153
8.51507e-05
6.95958e-05
5.98775e-05
5.47473e-05
5.28644e-05
5.2378e-05
5.21392e-05
5.1895e-05
5.177e-05
5.23751e-05
5.38784e-05
5.47344e-05
5.49214e-05
5.42247e-05
5.38915e-05
5.33484e-05
5.11841e-05
4.92481e-05
4.86822e-05
4.90707e-05
5.16931e-05
5.42529e-05
5.67722e-05
5.74102e-05
5.74063e-05
6.18305e-05
6.26576e-05
6.81932e-05
8.59995e-05
7.89947e-05
6.73378e-05
7.39963e-05
7.3685e-05
6.8807e-05
7.01992e-05
7.09942e-05
6.88552e-05
6.77269e-05
6.88064e-05
6.69466e-05
6.52063e-05
6.91747e-05
7.17764e-05
6.82662e-05
6.88876e-05
7.4457e-05
7.61358e-05
7.67192e-05
7.62277e-05
8.38458e-05
9.21249e-05
8.88839e-05
9.05024e-05
9.87341e-05
0.000119364
0.000103388
0.00011089
0.000134028
0.000139835
0.00013257
0.00013976
0.000160335
0.0001672
0.000150269
0.000144204
0.000182316
0.000183968
0.000200747
0.000189941
0.000179318
0.000210045
0.000219063
0.000193285
0.000188602
0.000210923
0.000201939
0.00018332
0.000180513
0.00019262
0.000190947
0.000187087
0.000192902
0.000198784
0.000221262
0.000259917
0.000290388
0.000298933
0.000339088
0.000307009
0.000305427
0.000266108
0.000334967
0.000335811
0.000300418
0.000309494
0.000311658
0.000330858
0.000324691
0.000295521
0.00031877
0.000233284
0.00013412
6.55936e-05
3.66553e-05
3.15228e-05
3.16487e-05
3.05715e-05
2.83773e-05
2.79629e-05
2.78152e-05
2.78887e-05
2.83484e-05
2.89861e-05
3.01179e-05
3.13263e-05
3.27768e-05
3.39995e-05
3.54487e-05
3.64799e-05
3.67624e-05
3.67429e-05
3.6946e-05
3.77715e-05
3.92752e-05
4.05953e-05
4.11344e-05
4.1427e-05
4.1131e-05
3.96015e-05
3.74172e-05
3.70988e-05
3.77685e-05
4.03163e-05
4.44162e-05
4.69183e-05
4.81188e-05
4.83595e-05
4.80345e-05
4.73544e-05
4.65468e-05
4.65634e-05
4.68295e-05
4.6907e-05
4.66901e-05
4.67093e-05
4.67297e-05
4.66665e-05
4.60066e-05
4.31942e-05
3.88984e-05
3.62758e-05
3.55342e-05
3.57115e-05
3.63068e-05
3.72307e-05
3.70206e-05
3.6419e-05
3.52966e-05
3.47385e-05
3.46123e-05
3.50196e-05
3.60276e-05
3.98548e-05
4.82342e-05
5.45796e-05
5.68087e-05
5.65635e-05
5.55591e-05
6.0742e-05
7.25516e-05
8.39331e-05
8.74347e-05
8.83889e-05
8.79115e-05
8.67145e-05
8.78713e-05
9.57272e-05
0.000102348
0.000102511
8.79578e-05
7.07979e-05
6.05608e-05
5.3503e-05
5.06516e-05
5.00897e-05
5.00766e-05
5.03844e-05
5.05678e-05
5.11958e-05
5.28762e-05
5.4e-05
5.41389e-05
5.19258e-05
5.03476e-05
4.99756e-05
4.95457e-05
4.82342e-05
4.74012e-05
4.71906e-05
4.72338e-05
4.84967e-05
4.97855e-05
5.07151e-05
5.06706e-05
5.15547e-05
5.56912e-05
5.87911e-05
6.21677e-05
6.98161e-05
6.7095e-05
6.08347e-05