/*--------------------------------*- C++ -*----------------------------------*\
| =========                 |                                                 |
| \\      /  F ield         | OpenFOAM: The Open Source CFD Toolbox           |
|  \\    /   O peration     | Version:  dev                                   |
|   \\  /    A nd           | Web:      http://www.openfoam.org               |
|    \\/     M anipulation  |                                                 |
\*---------------------------------------------------------------------------*/
FoamFile
{
    version     2.0;
    format      ascii;
    class       volScalarField;
    object      p;
    location    "9.152";
}
// * * * * * * * * * * * * * * * * * * * * * * * * * * * * * * * * * * * * * //

dimensions      [1 -1 -2 0 0 0 0];

internalField   nonuniform List<scalar> 
12225
(
86981.9
87050.7
87216.3
87459.3
87758.2
88102.3
88477.7
88878.7
89291.3
89716.2
90138.8
90570.4
90986.8
91428.9
91835.8
92306.3
92774.4
93136.8
86983.9
87055.6
87221.6
87464.5
87763.3
88107.3
88482.7
88883.5
89296
89720.7
90143.2
90574.1
90990.8
91430.8
91836.9
92301.1
92737.7
93154.1
86992.7
87068
87234.6
87477.1
87775.5
88119.2
88494.3
88894.9
89307.1
89731.3
90153.5
90582.9
90999.7
91432.3
91840.9
92285.7
92703.7
93111.4
87010.9
87089.6
87257
87498.9
87796.9
88140.2
88515
88914.8
89326.6
89749.9
90171.5
90598.6
91014.6
91439.9
91844.9
92268.5
92679.1
93058.8
87043.5
87123.6
87291.4
87532.6
87830
88172.6
88547.2
88945.7
89357.2
89778.5
90199.7
90622
91038.5
91452
91857.5
92264.7
92657.5
93052.8
87094.4
87173.5
87340.7
87581.3
87878.1
88219.9
88593.6
88990.7
89401.4
89820.3
90240.3
90658.6
91073.6
91479.6
91884.9
92275.1
92661.5
93016.1
87165.1
87242.4
87409
87649.1
87945.1
88285.7
88658.3
89053.8
89463.2
89879.2
90297.4
90711.9
91123.5
91524.3
91922.2
92302.4
92668.2
93003.7
87242.5
87320.9
87487.5
87727
88022
88361.4
88732.7
89126.6
89534.5
89947.7
90363.7
90774.5
91182
91576.9
91966.3
92334.5
92685.3
93011.3
87325.8
87406.1
87572.9
87811.5
88105.7
88443.9
88813.6
89205.9
89612
90022.7
90436
90843.4
91245.8
91635.5
92015.9
92374.8
92714.3
93030.8
87436.8
87519.9
87686.9
87924.7
88217.7
88554
88921.9
89311.9
89715.5
90123.1
90532.8
90936.1
91332.3
91716.1
92086.5
92436.5
92765.7
93071.7
87590.9
87672.6
87839.5
88075.9
88367.3
88701.2
89066.6
89453.7
89853.8
90257.8
90662.7
91061.2
91450.7
91827.2
92188
92529
92847.8
93143.8
87794.4
87876.8
88043.3
88277.9
88566.9
88897.9
89259.9
89643
90038.7
90438.3
90837.7
91230.3
91612.4
91980.9
92332.3
92664
92973.4
93260.6
88068.8
88150
88314.9
88547
88832.8
89159.7
89517.4
89895.5
90285.8
90680
91072.8
91458.5
91832.8
92192.6
92534.9
92857.4
93158.3
93437.4
88427.9
88512.3
88675.3
88904
89185.5
89507.3
89859.3
90231.2
90614.8
91002.3
91387.5
91765.2
92131.2
92482.1
92815.5
93129.4
93422.2
93693.7
88908.9
88991.1
89150.8
89374.9
89650.4
89965.7
90310.3
90674.5
91049.9
91429
91805.6
92174.5
92531.7
92873.6
93198.1
93503.8
93789
94053.6
89536.5
89615.7
89771.1
89988.8
90256.6
90563.3
90898.7
91253.3
91618.9
91988.1
92354.8
92714
93061.6
93394.4
93710.2
94007.8
94285.8
94544.1
90332
90414.9
90565.5
90775
91032.8
91328.8
91652.8
91995.8
92349.5
92707.1
93062.6
93410.9
93748.1
94071.5
94378.7
94668.2
94939
95190.9
91268.6
91342.1
91483.1
91682.1
91928.7
92212.8
92524.3
92854.5
93195.6
93540.9
93884.4
94221.4
94548.3
94862.2
95160.6
95442.4
95706.4
95952.2
92175.7
92236.7
92368.3
92557.8
92794.2
93067.2
93367.1
93685.6
94015
94348.8
94681.5
95008.4
95326
95631.4
95922.2
96197.2
96455.1
96695.4
92941.8
93002.1
93129.6
93312.9
93541.5
93805.6
94096
94404.8
94724.3
95048.5
95372.1
95690.6
96000.5
96298.8
96583.3
96852.5
97105.2
97341
93574
93637
93761.9
93940.7
94163.3
94420.2
94703
95003.6
95315.1
95631.4
95947.5
96259.1
96562.6
96855
97134.3
97398.8
97647.4
97879.4
94092.3
94148.7
94270.9
94446.1
94663.9
94915.1
95191.6
95485.7
95790.6
96100.8
96410.9
96716.9
97015.2
97303
97578.1
97838.9
98084.1
98313.1
94484.1
94547.2
94668.9
94841.3
95055.3
95302
95573.5
95862.4
96162.3
96467.5
96772.9
97074.4
97368.6
97652.9
97924.9
98182.8
98425.4
98651.9
94786.5
94850.9
94971.7
95141.7
95352.5
95595.7
95863.5
96148.5
96444.4
96745.7
97047.5
97345.7
97637
97918.6
98188.1
98443.7
98684.3
98909.1
95017.5
95076.1
95195.1
95363
95571.4
95812.1
96077
96359.1
96652.1
96950.5
97249.7
97545.5
97834.6
98114.1
98381.7
98635.7
98874.9
99098.5
95179.2
95236.2
95354
95520.1
95726.8
95965.6
96228.6
96508.7
96799.7
97096.1
97393.4
97687.5
97975
98252.9
98519.1
98772
99010.2
99233.1
95283.2
95344.5
95461.5
95626.2
95831.9
96069.6
96331.4
96610.1
96899.8
97194.9
97490.9
97783.8
98070.1
98347
98612.4
98864.5
99102.1
99324.5
95354.4
95413.2
95529.4
95693.1
95898.4
96135.5
96396.5
96674.5
96963.3
97257.6
97552.8
97844.9
98130.5
98406.8
98671.7
98923.3
99160.4
99382.4
95394.5
95451
95564.1
95730
95935.6
96172.5
96433.2
96710.8
96999.2
97293
97587.8
97879.4
98164.6
98440.5
98705
98956.3
99193.2
99414.9
95413.9
95467.5
95580.3
95746.1
95951.4
96188.2
96448.7
96726.1
97014.3
97308
97602.5
97894
98179
98454.7
98719
98970.2
99206.9
99428.4
105127
105127
105128
105129
105130
105131
105133
105135
105136
105138
105138
105138
105138
105136
105132
105126
105119
105108
105095
105078
105057
105031
105000
104963
104919
104869
104811
104745
104671
104587
104494
104391
104278
104154
104020
103873
103715
103545
103363
103167
102959
102738
102503
102256
101996
101722
101434
101133
100819
100492
100153
99802.5
99440.5
99067.5
98683.8
98290.8
97888.7
97478.3
97060.3
96635.3
96203.7
95766
95323.3
94877.6
94430.6
93984
93539
93097
92659.9
92229.5
91808
91396.6
90995.9
90607
90230.5
89871.2
89524.3
89190.8
88873.8
88571.6
88288.4
88024.7
87778.4
87552.4
87347.6
87162.4
86998.1
86853.6
86726.2
86614.9
86519.5
86439.9
86376.2
86328.1
86294.5
86274.5
86266.7
86270
86282.6
86302.8
86328.9
86358.5
86388.8
86419.8
86448
86471
86490.5
86501.8
86503.8
86498.6
86482.3
86455.3
86418.1
86373.1
86317.8
86254.8
86186.4
86115
86041.3
85968.2
85899.1
85836.9
85783.7
85740.6
85708.8
85689.7
85683.7
85690.5
85709.6
85739.8
85779.6
85828.8
85885.3
85948.3
86014.5
86080.8
86139.4
86187.9
86219.8
86222.6
86180.7
86098.1
85964.3
85763.2
85512.5
85205.1
84859.6
84416.3
83951.8
83415.2
82850.5
82250.5
81626.9
80991.4
80352.6
79746
79167.3
78618.8
78104.1
77634.1
77220
76865.2
76564.9
76301.3
76062.8
75836.1
75616.5
75402.4
75193.3
74994.9
74816.5
74661
74533.7
74434.5
74368.4
74317.4
74285.4
74303.9
74334.3
74424.3
105038
105039
105039
105040
105042
105043
105045
105047
105049
105050
105051
105052
105051
105049
105045
105040
105033
105023
105010
104993
104972
104947
104916
104879
104837
104787
104730
104664
104590
104507
104415
104314
104202
104080
103946
103802
103645
103477
103296
103103
102897
102678
102446
102201
101942
101670
101385
101087
100775
100451
100114
99766.1
99407.4
99037.8
98656.7
98265.6
97865.8
97458
97043
96621.3
96193.1
95758.3
95317.9
94874
94429.2
93985.1
93542.9
93103.6
92669
92241.1
91821.9
91413.4
91016
90628.7
90252.5
89896
89545.7
89211.5
88905.7
88604.4
88323.4
88062.9
87815
87588.6
87387.4
87202.8
87037
86890.3
86761.8
86650.5
86555.7
86476.8
86413.7
86366.1
86333.2
86313.8
86306.6
86310.1
86322.8
86343.1
86369.2
86398.8
86428.8
86459.6
86488.4
86510.7
86530.2
86542.5
86544.1
86539.2
86522.1
86494.9
86457
86413.1
86357.6
86293.4
86225.1
86154.2
86080.6
86006.9
85937.4
85874.9
85821.6
85778.1
85745.7
85725.6
85718.9
85725.3
85743.5
85772.8
85811.3
85858.9
85914.1
85975.8
86040.5
86105
86163.8
86210.1
86239.5
86238.8
86197.8
86112.8
85974.5
85766.7
85512.9
85202.8
84869.3
84414.3
83959.9
83413.2
82850.4
82248.6
81621.9
80983.9
80340.7
79736.3
79162.4
78612.5
78098.3
77629.3
77218.3
76868.3
76571.8
76311.8
76077.5
75855.7
75639.8
75427.1
75221.4
75027.4
74850.2
74696
74570
74472.4
74410.1
74362
74328.8
74346.8
74377
74465
104862
104863
104864
104865
104867
104868
104870
104873
104874
104876
104877
104877
104877
104875
104872
104868
104861
104852
104840
104824
104804
104779
104750
104712
104670
104621
104565
104501
104429
104348
104258
104159
104050
103930
103800
103659
103506
103341
103165
102975
102773
102559
102331
102090
101836
101569
101289
100995
100688
100370
100039
99696.3
99341.7
98976.5
98601.2
98215.8
97820.8
97418.2
97009.3
96593.4
96170.3
95741.1
95306.9
94869.2
94429.5
93990.3
93553.3
93119.3
92689.6
92266.2
91851.8
91448.5
91056.7
90673.1
90300.9
89942.2
89595.9
89268.6
88962.2
88669.7
88394
88136.8
87891.1
87665.2
87461.4
87277.2
87111.8
86964.8
86836
86724.7
86630.6
86553
86491.1
86444.4
86412
86393.2
86386.8
86390.9
86403.8
86423.9
86449.6
86479
86508.8
86539.1
86568.4
86590.3
86609.1
86623.6
86621.8
86612.1
86599.4
86572.7
86533.3
86487.6
86435.4
86370.4
86301.3
86231.1
86158.3
86084.6
86013.8
85950.8
85897.4
85854.1
85821
85799.5
85790.9
85795.6
85812.5
85840
85875.9
85921.2
85973.5
86031.5
86093.2
86154.7
86209.6
86252.7
86276.6
86272.8
86228
86137.1
85993.4
85771.7
85512.3
85199.4
84866.9
84418
83956.5
83406.7
82846.7
82241.6
81609.2
80962.2
80309.5
79711.7
79146.5
78597.7
78084.4
77618.3
77213.2
76871.7
76584.2
76332.7
76105.9
75890.7
75680.9
75476
75279.7
75095.4
74922.5
74772.4
74648.5
74550.3
74493.5
74455.5
74420.6
74442.2
74456.9
74553.1
104603
104604
104605
104606
104608
104610
104612
104614
104616
104618
104619
104620
104620
104620
104618
104615
104609
104601
104589
104574
104554
104529
104500
104464
104423
104375
104321
104259
104190
104112
104026
103931
103826
103711
103586
103450
103302
103143
102971
102788
102592
102383
102161
101927
101679
101419
101146
100860
100561
100249
99925.9
99591.4
99245.5
98887.8
98519.1
98141.2
97755.1
97361
96959.9
96551.2
96135.8
95715.4
95290.4
94861.8
94431
94000.2
93570.8
93144.7
92722.9
92306.8
91898.6
91500.5
91116.7
90736.4
90367.8
90012.5
89671.6
89350
89050
88771.8
88499.9
88241.6
87998.7
87774.7
87570.5
87385.9
87221
87075.1
86947.7
86838
86745.4
86669.3
86608.9
86563.3
86531.7
86513.4
86507.1
86511.4
86524.4
86544.3
86569.4
86598.6
86628.6
86658.4
86688.1
86707.6
86725.2
86737.7
86734.5
86726
86714.2
86688.8
86646.9
86603.7
86549.1
86485.2
86414.5
86344.7
86273.6
86200.1
86128.9
86064.8
86009.8
85965.9
85932.9
85910.3
85899.5
85901.9
85915.8
85940.4
85973.5
86015.1
86063.5
86116.9
86174.3
86230.5
86280.2
86318.5
86335
86321.6
86272
86173.9
86024.6
85775.5
85510.8
85192.3
84851.5
84453
83957.7
83396.6
82842.2
82229.5
81590.5
80935
80277.3
79674.1
79123.5
78580
78071.3
77608.5
77213.8
76884.3
76606.2
76365.8
76150.4
75947.4
75746.4
75552.5
75372.1
75206.4
75041.7
74892.6
74770.5
74682.4
74644.6
74602.6
74583.9
74561.7
74586.8
74693.4
104266
104267
104268
104270
104272
104274
104276
104278
104280
104281
104284
104286
104288
104289
104289
104286
104280
104271
104260
104244
104225
104201
104172
104138
104099
104055
104004
103946
103881
103808
103727
103637
103538
103429
103309
103179
103038
102886
102722
102545
102357
102155
101941
101715
101476
101224
100960
100683
100393
100092
99778.5
99453.7
99117.7
98770.5
98412.5
98045.4
97670
97286.5
96895.5
96497.7
96093.8
95684.5
95270.1
94851.8
94431
94012.9
93593.7
93177.7
92766.4
92360.6
91961.8
91573.1
91191.4
90817.8
90454.5
90105.1
89771.5
89458.7
89169.1
88893.3
88628.4
88374.6
88135
87913.8
87711.8
87529.1
87365.7
87221.8
87096.5
86989.2
86899.1
86825
86766.4
86722.1
86691.5
86673.8
86667.8
86671.8
86684.4
86704
86728.5
86757.2
86787.1
86815.1
86840.2
86858.8
86876.1
86885.4
86884.4
86878.3
86864.3
86838.7
86797.9
86756.5
86704.3
86639.3
86566.8
86494.5
86424.4
86352.5
86280.6
86216.8
86161.4
86114.5
86080
86056.9
86043.7
86042.8
86054
86074.9
86102.2
86139.4
86183.3
86231.2
86281.3
86331.7
86373.4
86403.6
86414
86390.2
86326.7
86217.1
86050.5
85803.1
85520.5
85188.1
84835.8
84459.6
83983.1
83398.8
82833.2
82213.4
81563
80906.2
80230
79623.3
79099.1
78563.1
78060.9
77600.6
77214.3
76900.9
76639.5
76409.8
76208.9
76019.3
75830.7
75653.7
75493.7
75351.9
75200
75052.6
74930.9
74839.7
74797.2
74763.1
74704.2
74699.4
74779.2
74883.2
103857
103858
103860
103862
103863
103866
103868
103870
103872
103876
103880
103882
103885
103886
103885
103883
103877
103869
103857
103843
103825
103802
103776
103745
103710
103669
103623
103570
103510
103443
103368
103284
103191
103088
102976
102853
102719
102575
102419
102251
102072
101879
101675
101458
101228
100986
100733
100467
100189
99899.2
99597.7
99284.8
98961.2
98627.4
98283.1
97929.1
97566.9
97196.5
96818.1
96433.2
96042.7
95646.9
95246.2
94841.8
94435.5
94028.1
93621
93217
92818.5
92425.3
92037.6
91656.7
91283
90917.1
90561.8
90221
89896.7
89591.5
89306.9
89037.2
88778.3
88530.6
88297.3
88081.2
87883.7
87704.9
87545.1
87404.2
87282
87177.7
87090.2
87018.6
86961.7
86918.9
86889.4
86872.5
86867.1
86871.2
86883.3
86902.1
86926
86953.2
86981.8
87008.4
87027.4
87052.5
87068.2
87075
87076.5
87070.5
87054.7
87028.9
86990.2
86949.4
86898.5
86830.9
86759.2
86685.6
86614.4
86543.1
86471.8
86405.6
86349.1
86300.4
86262.5
86237.6
86223
86218.3
86225.3
86243.9
86267
86294.6
86332.3
86375.8
86416.8
86457.5
86489.9
86509.4
86507.7
86473
86395.9
86268.2
86088
85837.6
85539.8
85173.9
84825.7
84450.4
83990.9
83410.2
82828.4
82203
81547.2
80884.9
80187
79576.2
79061.6
78556.9
78055.9
77596.5
77216
76918.7
76679.6
76464.3
76281.3
76108.5
75937.2
75785.1
75662.4
75537.1
75394.3
75252.5
75137.6
75028.4
74973.9
74949.9
74849.4
74902
75067.1
75116.8
103382
103384
103386
103388
103390
103393
103395
103398
103402
103407
103411
103415
103418
103419
103418
103416
103411
103403
103393
103380
103364
103345
103322
103295
103263
103227
103185
103136
103082
103020
102951
102873
102787
102692
102587
102472
102348
102212
102066
101908
101738
101557
101363
101157
100940
100710
100469
100216
99951.3
99674.9
99387
99088
98778.7
98459.6
98130.7
97792.5
97445.9
97090.2
96726.6
96356.9
95982
95602.8
95219.1
94830.8
94438.9
94044.9
93651.2
93261.5
92877.6
92498.4
92122.8
91752.7
91389
91033.2
90688.1
90356.7
90042
89746
89468.4
89203.9
88950.9
88710.5
88485.2
88276.7
88085.9
87912.8
87758
87621.7
87503.8
87403
87318.2
87248.8
87194.2
87153.3
87125.1
87108.6
87103.2
87107.5
87119.4
87137.6
87161
87187.2
87214.5
87242.2
87271.8
87295
87307.1
87312.3
87311.3
87305.2
87286.9
87258.5
87221.2
87179.2
87120.1
87059.6
86992.8
86919.3
86844.6
86774.3
86704.6
86634
86573.5
86524.6
86483.2
86453.4
86436.9
86428.9
86429.7
86443.6
86463.8
86483.6
86509
86547.3
86581.1
86607.2
86628.7
86638.9
86623
86566.6
86471.6
86334.7
86142.3
85885.8
85572.4
85193.8
84829.4
84440.5
83978.9
83433.2
82823.1
82196.2
81546.8
80881.2
80169.8
79527.8
79025.4
78553.8
78055.3
77605.8
77233.2
76948.3
76728.4
76531.8
76367.4
76211.5
76060.4
75923.5
75812.7
75738.9
75637.7
75476.5
75392.1
75275.5
75192.6
75173.2
75112.7
75174.3
75346.8
75388.2
102852
102854
102857
102859
102862
102864
102868
102872
102877
102882
102887
102891
102894
102896
102896
102895
102892
102886
102879
102868
102855
102838
102818
102794
102766
102732
102694
102651
102601
102546
102484
102414
102335
102248
102152
102046
101931
101805
101668
101521
101362
101192
101011
100818
100614
100398
100171
99932.7
99682.6
99421.1
99148.4
98865.2
98572
98268.9
97956.8
97635.7
97305.7
96966.9
96620.4
96267.9
95911.4
95551.3
95186.4
94815.8
94440.6
94062.5
93684.7
93310.8
92941.9
92577.1
92216.4
91860.1
91508.4
91164.3
90831.6
90512.6
90209.2
89923
89652.5
89394.3
89148.3
88916.3
88700
88500.1
88317.1
88151.3
88003
87872.6
87759.5
87662.6
87581.1
87514.4
87462.6
87424.3
87397.6
87381.4
87375.6
87379.5
87391.2
87409.1
87432.2
87458.7
87486.4
87515.2
87546.7
87572
87583.8
87591.5
87590.7
87578.7
87557.5
87530.9
87486.5
87441.2
87384.4
87326
87262.4
87193
87114.6
87043
86976.5
86905.6
86840.8
86790.4
86747.5
86710.7
86687.9
86675.3
86669.7
86674.8
86690.4
86709.1
86721.8
86744.8
86772.7
86792.4
86793.9
86786.5
86764.7
86696.8
86580.6
86420.2
86212.2
85951.3
85632.3
85241.9
84830
84436.7
83960.4
83514
82843.5
82186.2
81545.9
80890.2
80178.7
79509.7
79008.8
78525.6
78057.4
77626.2
77263.8
76990.2
76792.3
76608.1
76464.8
76327.8
76197.2
76066.8
75911.5
75850.5
75935.9
75742.7
75686.6
75584.4
75496.5
75458.8
75442.9
75510
75670.8
75708.5
102276
102279
102283
102286
102289
102293
102297
102301
102306
102311
102316
102321
102325
102329
102331
102331
102331
102328
102323
102316
102305
102291
102273
102251
102225
102196
102163
102125
102082
102034
101979
101917
101846
101768
101680
101582
101476
101360
101234
101098
100952
100795
100627
100448
100259
100058
99845.2
99621.6
99386.9
99141.3
98885.2
98618.9
98342.8
98057.3
97762.9
97460.1
97148.6
96828.7
96501.1
96167.9
95831.1
95490.6
95145.5
94795.1
94439.6
94080.3
93721
93364.6
93012.3
92663.7
92318.6
91977
91639.7
91310
90991.5
90686.3
90395.4
90119.6
89857.8
89607.8
89370.6
89148.2
88941.5
88751.1
88577
88419.2
88278.6
88154.7
88046.6
87954
87876.5
87813.8
87765.2
87729.3
87704.2
87689.1
87683.9
87687.9
87700
87718.1
87740.4
87766.4
87795.2
87822.6
87846.9
87870.6
87893.8
87908.8
87915.1
87892.8
87873.9
87851.7
87793.7
87746.8
87695.8
87632.5
87566.5
87499
87422.6
87348.8
87282.5
87213.9
87146.8
87093
87050.9
87010.4
86979.9
86960.5
86947.5
86940.9
86949.4
86965.2
86969.2
86973.3
86989.8
87009.7
86994.2
86955.7
86919.7
86856.6
86734.7
86541.5
86303.9
86032.8
85744.3
85330.4
84852.8
84422.3
83936.4
83554.6
82910.9
82191.4
81532.2
80908.2
80200.5
79552
79022.2
78516.4
78060.8
77657
77307
77046.3
76863.7
76694.8
76582.1
76460.4
76350.7
76261.8
76118.9
76109.9
76229.1
76067
76011.7
75939.6
75872.9
75832.4
75819.6
75885.2
76035.8
76075.4
101665
101669
101673
101678
101681
101685
101690
101695
101701
101707
101713
101719
101725
101731
101735
101739
101740
101740
101738
101732
101724
101711
101695
101676
101655
101630
101602
101569
101533
101491
101443
101388
101325
101255
101175
101087
100989
100883
100768
100644
100510
100367
100213
100050
99875.6
99690.6
99494.3
99286.9
99068.7
98840
98601.2
98352.6
98094.7
97827.5
97552
97268.4
96977
96677.7
96371.1
96058.7
95741.8
95421
95096.9
94769.1
94436.4
94098.2
93758.1
93420.8
93087.8
92757.8
92429.6
92103.6
91781.8
91467.8
91164.7
90874.2
90596.7
90332.6
90081.2
89841.8
89615.6
89404.2
89208.1
89027.8
88863.3
88714.7
88582
88464.9
88362.7
88275.3
88202.7
88144.3
88099.2
88065.8
88043
88030.8
88027.9
88033.3
88046.8
88065.9
88088.6
88114.2
88142.7
88171.6
88197.6
88217.5
88243.6
88266
88285.5
88262.3
88241.2
88213.4
88155.2
88105.7
88053.1
87986.7
87912.2
87840.3
87771.7
87694.3
87623.9
87560.7
87493.5
87435
87390.3
87348.4
87311.5
87286.5
87265.7
87251.7
87247.9
87250.3
87244.1
87235.5
87234.3
87229.6
87209.7
87158.9
87084.5
86995.7
86871
86684.7
86422.4
86117.1
85826.6
85431.2
85003.9
84502.8
83927.8
83531.5
82975.1
82245.8
81554.5
80942.1
80204.9
79604.7
79065.7
78552.6
78091.8
77704.4
77359.4
77115.9
76949.3
76802.2
76724.1
76617.5
76529.8
76514.2
76412.1
76409.3
76482.5
76435.6
76369.7
76331.7
76302.6
76275
76257
76311.4
76410.6
76481.3
101027
101032
101036
101041
101046
101052
101058
101065
101073
101081
101088
101096
101104
101111
101118
101124
101128
101131
101130
101127
101120
101111
101098
101083
101065
101044
101021
100994
100962
100926
100884
100836
100782
100719
100650
100571
100484
100388
100284
100171
100049
99918
99777.8
99628.1
99469.4
99301.4
99122.4
98932.3
98731.4
98520.4
98299.9
98070.2
97831.6
97584.1
97328.3
97064.4
96793.3
96515.2
96230.7
95940.3
95645.2
95346
95044
94738.9
94429.6
94115
93796.4
93479.3
93166.1
92855.9
92547.1
92239.7
91935.8
91638.8
91351.6
91076.2
90813
90561.9
90322.5
90095.5
89881.6
89681.9
89497.2
89327.9
89173.8
89034.8
88910.4
88800.6
88705.4
88624.6
88557.8
88503.7
88462.3
88432.9
88413.9
88405.5
88405.7
88413.9
88429.7
88450.8
88475.4
88502.5
88531
88560.1
88589.6
88620.3
88638.9
88654.6
88661.7
88667.2
88643.5
88605.9
88555.1
88506.6
88452.6
88386.7
88312.7
88239.1
88169.7
88090.8
88015.7
87952.6
87886.1
87822.6
87772.6
87728.7
87685.2
87653.2
87625.1
87604.8
87586.1
87563.8
87546.3
87531.5
87507.3
87457
87430.1
87380.1
87280.2
87141.8
86992.3
86821.9
86560.2
86225.2
85884.1
85511.9
85071.2
84567
83983.8
83510.7
83040.7
82317.9
81609.4
80986.7
80246.8
79662.6
79081.5
78595.1
78142.2
77772.3
77412.6
77198.1
77050.2
76923.4
76878.2
76795.4
76735.3
76803.8
76703.6
76722.5
76753.6
76831.5
76769.1
76755.3
76769.5
76766.9
76756.2
76810.7
76844.5
76944.2
100374
100379
100384
100389
100396
100404
100413
100421
100431
100440
100450
100460
100470
100480
100489
100497
100504
100509
100511
100511
100507
100501
100491
100480
100466
100449
100430
100407
100380
100349
100313
100272
100224
100171
100110
100043
99967
99882.8
99789.8
99688.1
99577.8
99458.9
99331.2
99195.1
99050.8
98898.4
98736.2
98563.3
98380.1
98187.3
97985.4
97774.9
97556.5
97329.4
97094.4
96851.5
96601.5
96344.9
96082.4
95814.7
95542.7
95266.7
94987.3
94704.9
94419.3
94129.5
93835.3
93540.2
93248.1
92958.7
92670.8
92384
92100
91821.8
91552.1
91292.3
91043.7
90806.6
90580.8
90367.1
90166.3
89979
89806.3
89648.5
89505.4
89376.3
89260.9
89159.5
89072.5
88999.2
88938.8
88890.3
88853.6
88828.7
88814.9
88811.1
88815.9
88828.2
88847.4
88871.3
88898.6
88928.7
88958.2
88987.3
89014.4
89040.6
89070.9
89081.6
89078.6
89070.7
89057.5
89041.7
88997.6
88947.9
88891.8
88827.7
88756.7
88684.5
88612.7
88536
88459.7
88392.5
88325.9
88259.6
88204.9
88156.5
88106.2
88062.3
88027
87998.1
87960.1
87918.7
87887.5
87861.3
87814.3
87742.4
87682.5
87620.5
87503.3
87345.3
87165.7
86968.1
86709.9
86363.1
86000.5
85608
85151.6
84643.7
84083.4
83541.5
83073.9
82396.4
81698.2
81038.3
80333.6
79734.3
79147.6
78655.3
78219.5
77843.4
77485.3
77296.7
77145.1
77065.6
77031.2
77002.6
76973.5
77101.2
77020.6
77098.3
77166.3
77243.7
77208.4
77216.5
77264.8
77293.9
77302.9
77364.9
77401.4
77476.1
99716.3
99721.4
99727.3
99734.1
99742.9
99752.9
99763.7
99774.9
99786.3
99798.2
99810.3
99822.3
99834.3
99845.9
99857.5
99868.7
99878.4
99886.4
99891.8
99894.6
99894.4
99891.4
99885.5
99877
99866.1
99852.9
99837.1
99818.4
99796.1
99769.6
99738.1
99701.5
99660.4
99614.6
99563.4
99506
99441.4
99369.1
99288.1
99198.3
99099.9
98993.2
98878.6
98756.6
98627.1
98489.7
98343.4
98187.5
98021.8
97847.2
97663.9
97472.8
97273.8
97067.2
96853.3
96632.2
96404.3
96170.1
95929.9
95684.8
95435.9
95183.4
94927.6
94668.6
94406.9
94142
93873.5
93602.3
93332.4
93065
92799
92534
92271.4
92013.4
91762.4
91519.8
91286.9
91064.6
90853.3
90653.9
90467
90292.9
90132.7
89986.8
89854.8
89736.4
89631.1
89539.3
89461.7
89396.9
89343.6
89301.5
89270.5
89250.7
89242.4
89244.1
89254.4
89271.8
89295.5
89323.7
89355
89388.6
89422.1
89453.8
89481.5
89505.7
89522.4
89548.4
89563.4
89556.6
89534.1
89526.2
89483.5
89428.6
89376.3
89314.8
89245.8
89173.8
89101.3
89027.1
88950.4
88879.5
88811.9
88742.1
88682.1
88628.2
88572.1
88517
88471.5
88429.1
88372.3
88319.6
88271.2
88222.7
88155
88071.7
87986.6
87888.8
87753.4
87578.1
87375.6
87143.6
86872.1
86523
86151.2
85735.9
85262.7
84745.1
84190.6
83631.4
83130.6
82490.7
81807.1
81120.3
80448.3
79823.1
79244.6
78751.3
78327.1
77925.1
77595.5
77405.4
77275.7
77217.8
77217
77235.6
77268.6
77414.1
77379.2
77510.1
77604.6
77675
77687.7
77718.5
77788.3
77849.1
77886.2
77964.5
78011.4
78072.2
99064.6
99070.2
99077.2
99086.1
99096.5
99108.1
99120.8
99134.4
99148.3
99162.7
99177.3
99191.8
99206.3
99220.6
99234.5
99248
99260.7
99272.1
99281.3
99287.8
99291.3
99291.9
99289.4
99284.2
99276.6
99266.7
99254.1
99238.5
99219.3
99196
99168.4
99136.8
99101.6
99062.9
99019.9
98971.4
98916.7
98855.3
98785.8
98707.5
98620.4
98525.9
98424.9
98317.4
98203
98080.8
97950.4
97810.9
97662.5
97505.7
97341.2
97169.4
96990.3
96804
96610.8
96410.9
96204.6
95992.7
95775.7
95553.9
95327.8
95098.5
94866.1
94631
94393.5
94153.4
93910.4
93664.7
93418.2
93173.2
92929.8
92687.6
92447
92210.1
91978.7
91754.5
91538.7
91332.5
91137.1
90953
90780.8
90620.8
90473.7
90340.2
90219.9
90112.6
90018.4
89937
89869.4
89814.2
89769.1
89734.1
89709.8
89696.2
89693.6
89700.9
89716.9
89739.8
89768.7
89802.5
89840.3
89879.1
89919
89955.6
89987.4
90017.9
90047.1
90066.3
90075.7
90081.1
90065.6
90051.9
90015.5
89965.7
89914.6
89854.2
89785.6
89714.1
89641
89565.9
89488.3
89414
89344.7
89271.6
89204.2
89143.1
89080.5
89017.9
88958.6
88897.3
88828.9
88766
88695.7
88622.5
88535.3
88436.5
88327.6
88196.2
88032.3
87838.4
87616.8
87357
87057.7
86704.1
86324.7
85892.8
85405.7
84877.9
84323
83762.6
83223.8
82610.9
81935.1
81232.8
80602.5
79927.8
79367
78880.5
78447.2
78038.5
77746.4
77541.3
77444.2
77383.2
77430.8
77493.5
77625.1
77723.9
77785.1
77943.1
78065.8
78154
78206.2
78265.6
78352
78439.5
78508.3
78610.1
78671.1
78730.3
98426.9
98433.3
98441.4
98452.4
98465
98478.9
98493.7
98509.2
98525.5
98542.3
98559.7
98577.1
98594.5
98612.3
98629.6
98646.1
98661.5
98675.7
98688.1
98698.3
98705.8
98710.6
98712.3
98710.8
98706.4
98699.3
98689.3
98676
98659.3
98639.1
98615.6
98589
98559.2
98526.5
98490.5
98450.2
98404.3
98352.3
98293.4
98225.9
98149.3
98065.4
97977
97884.3
97785
97678.1
97563.2
97439.8
97308.3
97169.1
97022.8
96869.6
96709.9
96543.6
96371.1
96192.3
96007.6
95817.8
95623.1
95424
95221.6
95015.8
94806.4
94594.7
94380.7
94165.3
93947.6
93727.4
93505.8
93283.9
93062.8
92843.5
92625.8
92410.5
92199.3
91993.8
91796
91607.2
91428.5
91260.7
91104
90959.2
90826.3
90705.7
90597.9
90502.2
90419.2
90348.9
90291.4
90246.2
90211.1
90184.7
90168.3
90162.6
90166.3
90179
90200.7
90229.8
90265.3
90305.7
90350.8
90397.1
90445.4
90489.4
90527.4
90563.8
90597
90622.4
90638.2
90644.3
90631.8
90613.7
90590.6
90548.8
90499.8
90441.7
90375.9
90306.5
90233.5
90155.8
90078.9
90001.8
89928
89851.1
89776.9
89707
89635.1
89564.9
89491.1
89410.4
89334.1
89256.3
89162.4
89067.4
88957.2
88832.2
88701.5
88541.3
88345.9
88130.2
87889
87604.9
87279.4
86914.1
86522.9
86082.8
85583.7
85044
84481.5
83925.1
83360
82753.8
82077
81388.8
80771.1
80069.6
79526.1
79041
78588
78204.4
77924.6
77704.8
77631.9
77608.5
77678.4
77779.9
77984
78043.7
78233.1
78409.1
78550.3
78674.7
78757.8
78864.6
78970.3
79068
79168.5
79301
79382.1
79444.8
97808.3
97815.5
97824.6
97837.4
97852.5
97869.1
97887.5
97906.8
97926.3
97946.4
97966.9
97987.9
98008.9
98030.1
98051.1
98071.4
98090.2
98107.3
98122.5
98135.8
98147.1
98155.9
98161.7
98164.3
98163.5
98159.3
98151.8
98140.8
98126.8
98110.1
98090.2
98067.6
98042.4
98014.3
97984
97951.3
97913.7
97870.4
97820.5
97762.3
97695.9
97623
97545.7
97464.9
97380.3
97289.1
97189.3
97081.3
96965.6
96843.1
96714.4
96579.5
96438.5
96291.7
96139.1
95980.9
95817.2
95648.9
95477.1
95300.9
95120.4
94937.1
94751.1
94562.6
94371.9
94178.3
93986.9
93791.6
93594.5
93397
93199.1
93002.1
92806.5
92613.2
92423
92237
92057.6
91886.8
91725.5
91574.6
91434.2
91304.8
91186.9
91080.2
90985.2
90901.7
90830
90771.2
90724.1
90689.2
90664.9
90648.9
90641.5
90644
90655.1
90674.2
90702.6
90738.7
90781.8
90831.1
90884.5
90939.6
90996.8
91049.8
91097.4
91142.7
91183
91214.6
91237.3
91248.4
91246
91233.4
91211.6
91177.1
91132.3
91079.2
91019
90953
90880.9
90802
90725.9
90646.5
90566.2
90484.7
90403
90323.4
90241
90160
90071.5
89974.6
89889
89789.8
89672.7
89557.4
89422.9
89267.6
89109.5
88925
88700.8
88459
88194.9
87890.7
87543
87160.6
86753.9
86309.3
85799.5
85246.9
84675.8
84118.4
83543.5
82923.7
82254.8
81578.2
80953.7
80260.7
79725.1
79231.7
78777.4
78400.3
78114.8
77905.2
77851.2
77899
77963.9
78101
78330
78419.5
78722.3
78912.6
79055
79211.1
79347.4
79523.4
79639.2
79731.3
79861.1
80029.2
80145.5
80214.9
97213.7
97221.6
97231.8
97246
97263.9
97284.1
97306.5
97330.7
97355.4
97380.3
97405.4
97430.8
97456.2
97481.1
97505.6
97529.7
97552.7
97574.2
97593.6
97610.6
97625.4
97637.7
97647
97653.1
97655.6
97654.3
97649.4
97641
97630.2
97616.7
97599.6
97580.5
97560.3
97537.4
97512.9
97486.9
97456.2
97419.3
97376.4
97326.9
97270.3
97208.4
97142.8
97074.3
97001
96921.4
96834.5
96740.7
96640.4
96533.9
96421.6
96304.1
96181.2
96053.2
95919.9
95781.3
95638.6
95492
95340.7
95185.3
95027.1
94866.5
94703
94536.7
94368.5
94198.8
94028.4
93859
93686.6
93512.7
93338.5
93164.2
92990.4
92818.4
92649.3
92483.7
92323.3
92170.4
92026.7
91893
91769.4
91655.6
91552.4
91460.2
91378.4
91307.6
91247.8
91200.4
91164.6
91140.4
91127
91122.3
91124.7
91135.4
91154.7
91182.2
91219.5
91264.1
91315.9
91375.2
91438.1
91503.9
91573.5
91636.6
91693.1
91749.2
91800.1
91839.8
91872
91891.6
91899.5
91894.3
91879
91853.6
91816.2
91771.4
91719.2
91657.4
91587.4
91510.6
91432.3
91349.5
91261.7
91174.4
91083.7
90992.8
90900.3
90805.3
90702.1
90592.4
90490.3
90367
90229
90089.7
89930.3
89745
89554.8
89346
89097.9
88827.5
88538.5
88216.2
87847.7
87441.5
87019.6
86574.3
86057.1
85490.1
84913
84352.1
83771.5
83135.9
82475.7
81801.9
81169.1
80498.2
79961.4
79460
79011.4
78632.3
78338.7
78147.8
78109.3
78187.7
78282.7
78459.1
78707.9
78878.1
79249.4
79435.2
79584.8
79756.3
79989.2
80220.7
80327.2
80422.7
80588
80807.1
80970.2
81046.9
96647
96656.3
96667.8
96683.9
96705.1
96729.8
96757.1
96786.7
96817.3
96848.4
96879.8
96911
96941.6
96971.3
97000.2
97028.4
97055.7
97081.6
97105.7
97127.4
97146.5
97162.6
97175.4
97184.7
97190.2
97191.9
97190
97184.5
97176.6
97166.2
97152.5
97137.5
97121.7
97103.3
97083.5
97062.1
97035.2
97002.9
96966.7
96925.2
96877.4
96826
96772.3
96714.5
96650.8
96580.9
96505.3
96424.3
96338.2
96247
96150.7
96049.3
95943.5
95833
95718
95598.8
95475.5
95348.3
95217.7
95084.2
94947
94807.3
94665.7
94520.6
94373.9
94226.8
94079.1
93931.5
93782.8
93632.5
93481
93329.3
93178.3
93027.8
92879.5
92734.4
92593.3
92458.4
92331.7
92214.7
92107.4
92009.6
91921.2
91842.9
91774.8
91716.9
91669.3
91633.1
91609.2
91595.9
91593.9
91600.6
91614.5
91635.5
91663.1
91701.3
91748.2
91803.4
91862.9
91931.8
92008.6
92087.6
92169.4
92242.8
92310.5
92379.8
92442.4
92493.6
92539.3
92569.7
92588.3
92593.4
92589.3
92575.5
92550.1
92517.8
92475.6
92419.4
92354.8
92282.2
92200.4
92113.5
92018.4
91922.8
91822.7
91718.9
91615
91504.8
91387.1
91265.1
91139
90991.9
90836.2
90667.2
90479.9
90267.8
90045.3
89804.7
89535.5
89237.1
88923.8
88582.4
88194
87761.5
87325
86880.6
86361.2
85782.4
85198.4
84633.4
84049.6
83404
82741
82070.1
81430.5
80786.2
80242.8
79741.9
79295.7
78916.2
78619.5
78436.5
78402.1
78503.7
78642.4
78861
79141.9
79408.1
79811.5
79970
80161.5
80356.2
80659
80906.5
81002.2
81129.9
81359
81657.2
81864
81945.3
96198.1
96208.5
96220.5
96239.2
96263.9
96293.2
96326.1
96361.5