/*--------------------------------*- C++ -*----------------------------------*\
| =========                 |                                                 |
| \\      /  F ield         | OpenFOAM: The Open Source CFD Toolbox           |
|  \\    /   O peration     | Version:  dev                                   |
|   \\  /    A nd           | Web:      http://www.openfoam.org               |
|    \\/     M anipulation  |                                                 |
\*---------------------------------------------------------------------------*/
FoamFile
{
    version     2.0;
    format      ascii;
    class       volScalarField;
    object      p_0;
    location    "9.152";
}
// * * * * * * * * * * * * * * * * * * * * * * * * * * * * * * * * * * * * * //

dimensions      [1 -1 -2 0 0 0 0];

internalField   nonuniform List<scalar> 
12225
(
88236.6
88274
88395.6
88587.7
88832.6
89121.8
89442.7
89790.3
90151.2
90525.8
90899.8
91282.5
91652.1
92041.7
92404
92814.2
93222.5
93624
88237.3
88277.9
88400.1
88592.1
88836.9
89125.8
89446.6
89794
90154.9
90529.1
90903
91285.3
91655
92043.2
92403.9
92811
93194.1
93609.5
88245.6
88288.6
88411.4
88603
88847.3
89135.8
89456.3
89803.3
90163.8
90537.6
90911.3
91292.1
91662.2
92044.9
92406.9
92798.1
93161.1
93535.8
88263.8
88307.7
88431.5
88622.3
88866
89153.8
89474
89820
90180
90552.8
90926
91304.7
91674.2
92051
92409.6
92782
93138.5
93446.8
88288.7
88337.7
88462.3
88652.3
88895.2
89182
89501.6
89846.2
90205.7
90576.6
90949.2
91323.7
91693.8
92058.2
92420.1
92778.7
93126.2
93520.7
88331.2
88382.2
88506.6
88695.9
88937.7
89223.4
89541.8
89884.7
90243.1
90611.5
90982.8
91353.7
91722.6
92083.1
92443
92788.3
93133.4
93453.9
88389.9
88443.8
88567.9
88756.5
88997.1
89281.2
89597.8
89938.8
90295.5
90660.9
91030.3
91397.7
91763.3
92119.2
92473.6
92811.5
93138.3
93440.1
88461.9
88514.8
88638.6
88826.5
89065.5
89348
89662.5
90001.5
90356.3
90718.7
91085.7
91449.5
91811.3
92162.2
92509.4
92837.3
93149.9
93442
88539.1
88592
88715.6
88902.4
89140
89420.7
89733.1
90069.9
90422.5
90782
91146.3
91506.6
91863.7
92210.2
92549.2
92868.8
93171.1
93453.8
88645.7
88695.2
88818.4
89003.8
89239.7
89517.8
89827.6
90161.5
90510.9
90866.8
91227.3
91583.4
91934.7
92275.8
92605.6
92917.3
93210.2
93482.7
88785.3
88833.2
88955.8
89139.4
89372.9
89647.7
89954.1
90284
90629.2
90980.8
91336.1
91687.2
92031.9
92366.2
92687
92990.5
93273.8
93536.9
88970.7
89017.2
89139.3
89320.3
89550.7
89821.1
90123.1
90447.8
90787.4
91133.7
91482.7
91827.7
92165
92491.4
92803.3
93098
93372.8
93627.9
89214.9
89262.8
89383.3
89561
89787.1
90052.1
90348.1
90666.2
90999
91338.7
91680
92017.4
92346.6
92664.3
92967.4
93253.4
93520.3
93768.1
89540.4
89589.1
89706.6
89879.7
90100.1
90358.3
90646.8
90956.8
91280.9
91612.1
91944.4
92272.9
92593
92901.5
93195.6
93473.3
93732.6
93973.4
89977.8
90019.5
90131.8
90298.9
90511.8
90761.6
91040.6
91340.4
91654
91974.5
92296.2
92614.3
92924.4
93223.1
93507.9
93777.3
94029.3
94263.8
90525.1
90575
90683.3
90843.5
91047.2
91286.4
91553.6
91841
92141.8
92449.6
92758.9
93064.9
93363.6
93651.8
93927
94187.8
94432.5
94660.9
91239.5
91283.5
91385.8
91537.4
91730.2
91956.9
92209.9
92482.4
92767.9
93060.6
93355.3
93647.4
93933.2
94209.8
94474.7
94726.3
94963.1
95185
92055
92095.1
92191
92333.6
92515
92728.1
92965.9
93222.4
93491.5
93768
94047.1
94324.5
94596.8
94861.1
95115.2
95357.3
95586.1
95801.2
92841.8
92873.6
92963.4
93098.2
93269.6
93470.3
93694.3
93936
94190.1
94451.7
94716.5
94980.5
95240.6
95493.9
95737.9
95971.3
96192.5
96401.1
93498.7
93537.1
93625.5
93755.4
93918.8
94109.6
94322.2
94551.8
94793.4
95042.7
95295.6
95548.6
95798.4
96042.3
96277.9
96503.8
96718.4
96921.2
94044.2
94086.2
94174.4
94300.5
94457.7
94640.3
94843.7
95063.5
95295
95534.4
95777.8
96021.7
96263
96499
96727.6
96947.3
97156.5
97354.4
94483.6
94527.8
94615.7
94738.5
94890.3
95066.4
95262.6
95474.6
95698.3
95930
96165.8
96402.3
96636.7
96866.5
97089.5
97304.2
97509
97702.9
94828.4
94874.2
94960.8
95080.4
95227.7
95398.6
95589.1
95795.2
96012.9
96238.5
96468.3
96699.1
96928.2
97153.2
97372
97582.8
97784
97974.8
95094.7
95138.4
95223.4
95339.8
95483.3
95650.1
95836.4
96038
96251.1
96472.1
96697.5
96924.1
97149.3
97370.7
97586.2
97793.9
97992.4
98180.8
95288.2
95333.9
95416.9
95530.4
95670.9
95834.8
96018
96216.4
96426.2
96643.8
96865.9
97089.5
97311.9
97530.6
97743.4
97948.9
98145.5
98332.3
95430.3
95474.2
95554.5
95665.5
95803.8
95965.6
96146.6
96342.8
96550.3
96765.6
96985.4
97206.9
97427.1
97643.8
97855
98058.9
98254.2
98439.9
95532.2
95570.4
95647.5
95756.4
95893.3
96053.9
96233.6
96428.4
96634.3
96848.1
97066.4
97286.4
97505.2
97720.6
97930.6
98133.5
98327.9
98512.9
95597.7
95631.2
95705.6
95813.4
95949.7
96109.7
96288.6
96482.5
96687.6
96900.4
97117.8
97336.8
97554.7
97769.3
97978.6
98180.8
98374.6
98559.1
95636.1
95664.9
95737.3
95844.9
95981.2
96140.9
96319.5
96513
96717.6
96929.9
97146.7
97365.2
97582.6
97796.7
98005.5
98207.3
98400.8
98584.8
95652.1
95679.2
95750.8
95858.3
95994.5
96154.1
96332.5
96525.8
96730.2
96942.3
97158.9
97377.1
97594.2
97808.1
98016.7
98218.3
98411.6
98595.3
107318
107316
107312
107305
107297
107286
107273
107257
107238
107216
107192
107163
107132
107097
107058
107014
106967
106915
106858
106796
106728
106655
106576
106490
106398
106298
106192
106078
105957
105829
105692
105548
105396
105235
105067
104890
104706
104513
104313
104104
103886
103661
103428
103186
102937
102679
102412
102137
101853
101562
101262
100953
100637
100313
99980.7
99640.9
99293.7
98938.7
98576.3
98206.5
97829.1
97444.1
97051.9
96653.8
96250.9
95844.3
95435
95024
94613.1
94203.9
93798.3
93397
92999.2
92606.2
92220
91842.8
91474.9
91115.4
90765.2
90427.3
90104.3
89797
89505.2
89231.1
88975.7
88739.5
88523.8
88327.7
88149
87987
87841.8
87713.8
87603.4
87510.3
87434
87373.5
87327.9
87296.2
87276.9
87268.8
87270.7
87280.4
87295
87314.5
87335.1
87354.6
87373.5
87386.5
87395.9
87397.9
87390.9
87373.7
87346.1
87308.5
87260.6
87202.7
87135.4
87060.1
86978
86891
86802.1
86714
86629
86548.9
86475.9
86411.8
86357.7
86313.9
86280.1
86255.9
86239.5
86230
86224.4
86220.9
86218.8
86216
86205.6
86180.8
86143.7
86086.2
86004.3
85877
85701.7
85465.2
85184.1
84858.2
84501.3
84085.3
83642.5
83158.3
82652.4
82125.6
81587.9
81048.5
80516.1
80023.2
79560.8
79134.6
78738.2
78379.8
78071.6
77818.6
77620.6
77466.2
77344.8
77235
77121.6
76991.4
76838.2
76664.6
76474.1
76267.5
76063
75873
75722.4
75585.5
75466.5
75393.5
75345.4
75354.4
107195
107193
107189
107183
107175
107165
107152
107136
107118
107097
107072
107044
107013
106978
106939
106897
106850
106798
106742
106680
106614
106541
106463
106378
106286
106188
106083
105970
105850
105722
105587
105444
105293
105135
104968
104794
104611
104421
104222
104015
103800
103577
103346
103107
102859
102603
102339
102067
101786
101497
101200
100894
100581
100261
99931.2
99593.6
99248.2
98895.7
98536.5
98169.9
97796
97414.1
97024.6
96628.8
96228.4
95824.7
95418.3
95010.4
94602.2
94195.6
93792.4
93394.2
92999.8
92610.2
92226.8
91850.3
91482.1
91125.4
90781
90447.2
90127.7
89823
89532.1
89259
89006.4
88772
88555.8
88358.5
88179.5
88018.3
87874.7
87748.4
87639.5
87547.9
87473.1
87414.3
87370.2
87339.6
87321.3
87314.1
87316.7
87327.1
87342.1
87362
87383.5
87403
87422.2
87435.5
87446.2
87447.7
87441.2
87423.9
87396
87358.8
87310.9
87252.7
87185.4
87110.5
87028.3
86940.7
86851.3
86763
86677.9
86597.3
86523.3
86458
86403
86358.5
86323.9
86298.7
86281.1
86270.2
86263.5
86259
86255.6
86250.8
86239.9
86215.8
86177.3
86118.5
86032
85904.1
85727.1
85484.5
85201.7
84873.8
84524
84103.9
83662.5
83174.7
82667.3
82138
81597
81055.1
80517.4
80025.4
79563.9
79134.9
78736.2
78376
78068.2
77818.5
77623.8
77473
77356.7
77253.5
77144.9
77015.5
76865.8
76697.5
76510.6
76308
76106.8
75921.4
75777
75642.3
75522.8
75449.3
75397
75402.9
106953
106951
106948
106942
106934
106924
106912
106897
106879
106857
106833
106806
106775
106741
106704
106662
106617
106567
106512
106452
106387
106315
106238
106154
106064
105968
105864
105753
105635
105510
105377
105237
105090
104935
104772
104601
104422
104236
104041
103839
103628
103409
103183
102948
102706
102456
102196
101928
101652
101368
101076
100776
100468
100152
99828.5
99496.7
99156.7
98809.6
98456.4
98096
97727.6
97351.8
96969.1
96580.2
96185.9
95787.9
95387.5
94985.6
94583
94181.6
93783.6
93389.7
93001.2
92617.9
92239.8
91867
91502.7
91152
90814.9
90488.5
90175.5
89874.7
89587.2
89316.1
89064.6
88832
88617.4
88421.3
88243.7
88084.5
87943.5
87820.3
87714.5
87625.7
87553.3
87496.9
87455.3
87427.1
87410.7
87405
87408.7
87420.3
87436.2
87456.5
87479.6
87499.7
87520.3
87541.9
87545.3
87545.3
87540.8
87523.4
87495.3
87459.1
87411.6
87351.9
87284
87209.9
87128.7
87040.6
86949.5
86860
86775
86694.9
86620
86552.8
86495.6
86449.2
86413.1
86385.9
86365.9
86353.1
86344.2
86336.8
86330.8
86323.3
86309.4
86284.5
86242.4
86180.8
86089.8
85957.1
85778.7
85521.5
85236.5
84904.8
84562.7
84141
83697.3
83204.3
82694.7
82161
81614.1
81064
80517.1
80021.3
79564.1
79133.9
78730.5
78367.8
78060.4
77814.9
77628.3
77486.8
77379.6
77284.6
77183.9
77062.6
76922.2
76765.6
76588.2
76395.4
76200.2
76020
75887.9
75759.5
75640
75563.4
75498.8
75510.5
106598
106597
106594
106589
106581
106572
106559
106544
106526
106505
106482
106456
106427
106395
106360
106321
106278
106229
106175
106117
106052
105982
105906
105824
105736
105641
105540
105433
105319
105198
105070
104935
104793
104643
104485
104320
104147
103966
103778
103581
103377
103165
102944
102716
102480
102236
101984
101724
101457
101179
100894
100602
100302
99993.7
99676.8
99352.7
99021.6
98683.4
98338.5
97986.1
97626.2
97259.7
96886.9
96508
96123.6
95734.8
95343.3
94950.5
94557.1
94164.3
93774.1
93388.2
93006.8
92629.4
92257.2
91891.5
91534.9
91192.1
90864.9
90550.1
90245.1
89948.9
89665.6
89398.5
89149.1
88918.4
88706.8
88514.3
88340.9
88186
88049.4
87930.5
87828.9
87744
87675.2
87621.8
87582.9
87557.4
87543.7
87540.2
87545.4
87558.7
87576.8
87597.9
87621.3
87642.1
87663.2
87682.7
87687.5
87689.6
87688.5
87670.4
87642.2
87608.5
87561.7
87500.7
87430.9
87356.7
87276.6
87189
87097.3
87006.5
86919.1
86837.9
86763.2
86694.6
86634.6
86585.7
86546.9
86516.5
86493
86477
86465.2
86454.1
86444.2
86432.3
86414.6
86387.7
86341.5
86271.6
86175.8
86037.5
85850.9
85579.9
85286.9
84957.6
84611.3
84220.7
83754.9
83249.8
82736.7
82194.6
81640.5
81082.4
80539.2
80042.3
79574.3
79138.8
78730
78363.2
78060
77820.7
77640.2
77510
77416.3
77335.1
77244.9
77135.4
77011.4
76875.4
76714
76532.2
76343
76180
76057.9
75933.5
75822.8
75719.4
75660.3
75680.8
106141
106140
106138
106133
106125
106116
106104
106089
106071
106051
106031
106008
105982
105951
105918
105880
105838
105790
105737
105679
105616
105548
105474
105395
105310
105220
105124
105022
104913
104799
104677
104548
104412
104268
104117
103959
103793
103620
103439
103251
103054
102850
102637
102417
102189
101953
101710
101459
101199
100933
100658
100375
100085
99786.6
99480.4
99167
98846.8
98519.4
98184.9
97843.5
97495.6
97141.2
96780.2
96413.3
96041.1
95664.4
95284.9
94904.1
94523.2
94142.5
93763.1
93386.9
93014.4
92645.1
92280.4
91923.3
91577.1
91244.6
90927.5
90623.5
90328
90039.6
89762.3
89501
89257.3
89031.8
88825.3
88638.3
88470.6
88321.8
88191.2
88078.1
87981.9
87901.9
87837.6
87788.3
87753.1
87730.5
87719.6
87718.8
87726.5
87742
87762.4
87784.3
87807.2
87827.8
87848.9
87865.6
87875.2
87880.5
87876.6
87863.6
87837.2
87806.3
87759.6
87699
87627.9
87552.4
87472.7
87385.1
87291.9
87201
87113
87028.1
86950.9
86881.6
86818.9
86766.1
86724.6
86691.2
86661.5
86640.4
86625.2
86610.1
86593.4
86576.4
86552.7
86520.7
86471.9
86394.3
86286.5
86140
85946.1
85660.8
85357.7
85011.4
84668.7
84300.4
83845.8
83323.5
82796.8
82240.1
81672.1
81108.4
80549.6
80063.6
79613.3
79154.2
78737.6
78363.7
78061.4
77832.2
77663.9
77543.1
77465.8
77399.3
77323.1
77231.7
77128.2
77018.7
76880.3
76715
76535.3
76373.7
76250.3
76135.9
75990.9
75880.3
75892.3
75910.2
105592
105592
105590
105585
105578
105569
105557
105543
105527
105510
105491
105470
105445
105417
105384
105347
105305
105258
105207
105152
105091
105026
104957
104882
104803
104719
104629
104533
104431
104322
104207
104085
103956
103820
103677
103526
103369
103205
103033
102853
102666
102471
102268
102057
101839
101613
101380
101140
100891
100636
100373
100101
99822.8
99537.2
99244.1
98943.4
98636.1
98321.7
98000
97671.8
97337.4
96997
96650.4
96298.3
95941.2
95579.2
95213.6
94846.6
94479.9
94113.6
93747.6
93383.2
93021.5
92662.9
92309
91962.9
91628.2
91306.9
91001.2
90707.3
90420.8
90142
89874.7
89622.7
89387.8
89170.8
88972.3
88792.8
88632.5
88490.9
88367.3
88261
88171
88096.8
88037.9
87993.5
87963
87944.6
87937.1
87939.5
87950.1
87967.5
87989.7
88013.8
88039.4
88062.8
88083.2
88098.5
88112.8
88120.7
88117.5
88106.3
88083.2
88052.5
88004.1
87945.3
87875.1
87798.3
87718
87631.4
87537.1
87442.5
87352.8
87265.7
87183.9
87112
87047.5
86990.2
86943.6
86908.2
86875
86843.9
86822.2
86804.3
86780.2
86755
86723.8
86683.9
86627.4
86542.6
86423.8
86261.4
86051.1
85776.5
85456.5
85084.3
84750.3
84383
83935
83415.5
82873.7
82306
81726.6
81148.6
80563.1
80075.2
79627.2
79185.3
78755.2
78373
78068
77848.3
77696.5
77588.1
77529.8
77480.7
77422
77357.3
77293.1
77198.6
77085.2
76941.6
76782.1
76611.7
76483.6
76379.2
76198.7
76129.3
76204.9
76193.3
104964
104964
104962
104958
104952
104943
104932
104920
104907
104892
104875
104854
104831
104803
104772
104736
104696
104652
104604
104552
104496
104435
104371
104302
104228
104149
104064
103974
103877
103775
103667
103552
103432
103304
103169
103028
102880
102725
102563
102394
102217
102032
101841
101642
101435
101222
101001
100774
100539
100297
100046
99787.7
99522.6
99250.6
98971.7
98686
98393.3
98093.1
97785.7
97472.4
97153.5
96829.7
96500.7
96165.6
95824.4
95477.8
95127.9
94777.2
94427.1
94076.8
93726.1
93376.2
93027.9
92682.3
92341.6
92008.9
91687.6
91380
91086.1
90801.7
90525
90257.8
90003.2
89763.8
89540.7
89334.6
89146.2
88976.4
88825.4
88692.5
88576.7
88477.7
88395.1
88328
88275.3
88236.4
88210.6
88197.2
88194.2
88200.4
88214.8
88235
88259.5
88288
88318.8
88348.4
88371.2
88388.2
88401.6
88411.9
88410.9
88398.5
88376.2
88346.5
88296.2
88238.9
88172.9
88095.9
88012.6
87927
87835
87735.4
87640.7
87552.4
87466.1
87387.6
87319.9
87258.7
87204.9
87163.8
87128.8
87090.4
87055.8
87032.9
87004.5
86968
86926.4
86879.5
86814.7
86713.8
86580.3
86409.6
86189.2
85912.5
85578.9
85181.9
84857.4
84477.8
84026.6
83520.4
82963.5
82386.1
81804.9
81213.8
80598.4
80024.6
79618.5
79214.8
78783
78402.4
78096.7
77882.8
77742.3
77649.6
77610.4
77576.8
77538.2
77492.6
77445.1
77390.8
77344.9
77196.2
77083.7
76916.9
76770
76672.3
76525.3
76509
76558.7
76527
104271
104272
104271
104268
104262
104255
104245
104235
104223
104210
104193
104174
104152
104126
104097
104064
104027
103987
103943
103896
103844
103788
103728
103663
103593
103518
103439
103354
103264
103170
103070
102964
102851
102733
102608
102477
102339
102194
102042
101883
101717
101545
101365
101179
100985
100785
100579
100365
100143
99915.7
99679.9
99436.9
99187.2
98930.6
98667.5
98397.6
98120.6
97836.4
97545.4
97248.7
96947.5
96642.4
96331.9
96014.8
95691.2
95362.2
95030
94697.2
94364.7
94032
93699.2
93366.4
93033.7
92703.4
92379
92062.6
91756.8
91463.7
91181.9
90908.3
90643.3
90389.5
90149.3
89924.1
89714.6
89521.4
89345.3
89187.1
89046.7
88923.6
88816.9
88726.4
88652.3
88593.5
88548.1
88515.1
88494.6
88486.3
88488.4
88499.4
88518.5
88543.4
88572.4
88605.7
88639.8
88673.6
88702.3
88727.4
88743.1
88750.7
88750.8
88742.6
88712
88680.8
88635.3
88579.1
88515.2
88441.6
88356
88268.9
88180.1
88080.2
87980.2
87889.6
87801.1
87714.3
87639
87572.3
87510.9
87459.8
87420.5
87381.3
87333.5
87296.3
87264.6
87225
87165.8
87103.1
87035.9
86929.5
86779.7
86587.6
86353.8
86075.2
85740.2
85331.6
84898
84511.5
84107.6
83665.6
83076.9
82469.2
81889.7
81299.6
80677.6
80083.7
79628.8
79222.1
78819.7
78450.1
78146.2
77938.5
77809.5
77725.4
77707.3
77688.3
77670.2
77633.7
77548.6
77556.4
77659.9
77496.6
77432.3
77291.3
77147.8
77039.7
76938.3
76956
76958.6
76918.8
103531
103533
103533
103531
103527
103520
103513
103503
103491
103478
103463
103446
103426
103403
103377
103348
103315
103280
103240
103197
103149
103097
103040
102979
102913
102843
102770
102692
102610
102524
102433
102336
102233
102123
102007
101885
101756
101622
101481
101333
101180
101020
100853
100681
100501
100315
100122
99922.5
99715.6
99501.7
99281.5
99054.6
98821
98580.7
98334.2
98081.2
97821.9
97555.7
97282.9
97004.8
96722.7
96436.4
96144.9
95847.5
95544.1
95235.1
94922.9
94609.5
94296
93982.5
93668.6
93353.8
93038.8
92726.5
92420.3
92122.2
91833.5
91555.6
91287.3
91027
90776.3
90537.8
90313.2
90103.4
89908.9
89730
89567.7
89422.4
89293.5
89181.1
89085
89004.8
88940.3
88890.1
88852.7
88827.3
88813.8
88811.7
88820.3
88837.3
88861.4
88891.4
88926.9
88963.8
89002.4
89040.9
89075
89107.9
89134.4
89139
89135.1
89137.9
89098.7
89065.6
89026
88968.5
88902.3
88830.6
88747.1
88657.5
88568.3
88471.1
88367.6
88272.1
88183.9
88092.5
88008.1
87933.8
87864.3
87800.9
87753.3
87710.8
87654.4
87599.5
87558.1
87518.2
87446.8
87357.6
87279
87178.1
87027.7
86809.3
86547.6
86260.3
85952.9
85532.2
85050.9
84616.8
84189.3
83796.6
83225.1
82570.1
81968.1
81397.8
80785.9
80204.9
79704.4
79270.2
78869.4
78516.7
78220.1
78012.6
77900.3
77819.8
77829.3
77819.3
77824.6
77826.4
77754.8
77812.9
77974.5
77864.2
77819.1
77721.4
77609.3
77504.2
77411.5
77360.2
77401.5
77368.2
102758
102761
102762
102762
102758
102753
102746
102738
102729
102718
102705
102690
102673
102653
102631
102605
102577
102545
102509
102469
102425
102376
102322
102265
102205
102141
102074
102003
101928
101849
101766
101677
101583
101482
101375
101262
101143
101018
100888
100752
100612
100465
100312
100154
99989
99817.8
99639.8
99454.9
99263
99064.4
98859.8
98648.9
98431.9
98208.5
97979
97743.6
97502.3
97255
97002
96744
96481.4
96214.2
95942.8
95667.1
95386.1
95099
94807.1
94514.4
94222.3
93929.9
93636
93340.2
93044.2
92751.3
92464.4
92185.4
91914.8
91653.2
91400.4
91156.1
90922.3
90700.9
90493.1
90299.9
90121.5
89958.2
89810.6
89679
89563
89462.8
89378.4
89309.4
89255.2
89214.6
89186.3
89170.8
89166.7
89172.9
89189.5
89214
89244.8
89280.8
89322.5
89365.8
89410.4
89454.3
89494.6
89533.7
89565.2
89576.1
89580.4
89580.5
89543
89511.2
89470.9
89413.3
89343.1
89269.5
89189.6
89096.4
89002.6
88909.8
88805.6
88703.9
88612.5
88518.6
88426.3
88345
88266.9
88194.9
88133.9
88077.5
88011.6
87945.6
87887
87824.9
87751
87654.3
87540.8
87419
87268.6
87059.5
86775.5
86456.7
86151.5
85746.6
85283.9
84802
84275
83887.2
83380.7
82701.4
82087.2
81514
80901.8
80336.9
79852.7
79373.3
78956.8
78608.3
78316.9
78112.5
78017.4
77942.3
77991
77975.9
78012.2
78086.2
78049.8
78126.1
78306.1
78290.7
78245.9
78196.6
78133.6
78047.9
77953.4
77908.5
77902.6
77871.1
101967
101970
101972
101972
101970
101966
101962
101957
101950
101942
101932
101920
101905
101888
101869
101848
101823
101795
101763
101726
101685
101640
101591
101539
101484
101426
101363
101299
101231
101159
101083
101002
100915
100823
100727
100625
100516
100401
100282
100157
100027
99892.4
99752.2
99606.7
99456.2
99300.3
99137.7
98968.3
98792.2
98609.9
98420.8
98226.3
98026.4
97820.5
97608.9
97391.5
97168.6
96940.2
96707
96469.1
96227.1
95981.1
95731.2
95477.2
95218.4
94954.4
94685
94413.8
94143.4
93873
93601
93326.7
93052.1
92780
92513
92253.1
92001.3
91757.6
91521.9
91295.6
91080.1
90876.7
90686.9
90511.2
90349.9
90203.1
90071
89953.8
89852
89765.8
89694.5
89637.3
89594.3
89565
89548.1
89543.8
89550.3
89566.8
89593.1
89626.9
89666.3
89710.6
89758.4
89809.3
89859.9
89907.9
89955.1
89998.1
90032.6
90051.2
90058.4
90064.4
90034.6
90004.9
89965.3
89909.8
89841.6
89766.8
89687.5
89593.2
89495.4
89402
89298.3
89191.3
89093.9
88996.3
88896.3
88806
88719.6
88640.8
88562.9
88482.3
88406.3
88335.2
88254.3
88151.8
88075.4
87980.2
87840.7
87674.7
87506.5
87313.8
87032
86684.2
86340.2
85957.1
85502.3
85020.5
84440.5
83972.1
83527.9
82868.1
82242.7
81657.7
81041
80480.4
79969
79497.1
79074.7
78731
78428.2
78240.9
78158.4
78092.4
78158.1
78171.1
78231.1
78375.2
78390.2
78497.9
78659.9
78751.3
78719.1
78710.1
78700.6
78648.3
78562.4
78529
78484.8
78440.5
101172
101175
101177
101177
101178
101178
101177
101174
101170
101165
101157
101147
101136
101122
101107
101088
101067
101043
101014
100982
100945
100905
100861
100813
100763
100710
100654
100595
100533
100467
100398
100324
100246
100163
100076
99984.2
99886.4
99782.8
99673.6
99559.2
99439.9
99315.6
99186.5
99053.4
98915.7
98773.9
98626
98471.4
98310.1
98142.5
97970.8
97793.4
97610.6
97422.5
97229.1
97030.5
96826.5
96617.5
96404
96186.4
95964.9
95740.1
95511.9
95279.9
95043.3
94802.6
94557.7
94309.7
94061.5
93813.5
93564.5
93313.6
93061.9
92812.2
92566.5
92326.3
92093.5
91868.5
91651.6
91444.4
91248.1
91063.5
90892.2
90734.6
90591.1
90461.4
90345.6
90244.2
90158.1
90087
90029.8
89986.2
89955.8
89938.8
89934.9
89942.8
89961.6
89990
90027.5
90071.8
90121.4
90176.5
90232.6
90290.1
90346.8
90402.2
90457
90505.6
90546.7
90572.6
90575
90598.6
90575.4
90545
90507.4
90454.6
90390.4
90318.1
90238.3
90146.1
90047.5
89949.9
89845.8
89735.4
89632.5
89530
89421.9
89319
89224.2
89136.2
89037.1
88936.9
88849.1
88768
88665.1
88541
88440.4
88334.8
88178.5
87992.8
87797.3
87584.1
87309.5
86949.4
86583.9
86186.1
85726.9
85230.5
84666
84153.7
83676.2
83065.4
82432.5
81828
81210.4
80647.2
80123
79645.3
79227
78877.4
78569.6
78396.4
78299.5
78283.2
78340.9
78400.6
78487.6
78703.5
78749
78923.5
79103.4
79235
79241.1
79266.7
79300.7
79288.1
79224.6
79202
79143.2
79084.2
100388
100392
100395
100397
100400
100403
100404
100404
100402
100399
100394
100387
100378
100367
100354
100340
100323
100303
100279
100251
100219
100183
100143
100101
100055
100007
99956.1
99902
99844.7
99783.8
99718.9
99650.2
99578.6
99504.2
99426.2
99343.9
99257.1
99165.1
99067.5
98964.1
98855.3
98741.8
98624.2
98502.9
98377.8
98248.9
98114.9
97974.5
97827.9
97675.4
97519.3
97358.2
97192
97021.1
96845.7
96665.7
96480.9
96291.6
96097.8
95900.4
95699.6
95495.4
95288.3
95078.4
94864.8
94647.1
94426.3
94202.6
93977.7
93752.6
93526.9
93299.8
93072.1
92845.5
92622.1
92403
92190
91984.6
91787.6
91600.3
91424.1
91259.1
91106.8
90967.9
90842.4
90730.3
90631.8
90547.5
90478.4
90423.6
90381.6
90352.4
90335.9
90332.2
90342
90363.6
90395.6
90436.8
90486.8
90543.4
90605.1
90671.4
90739.7
90807.8
90872.7
90937.2
91001.6
91060.1
91109.2
91145.6
91152.9
91173
91162.4
91135.5
91102.5
91053.7
90992.4
90921.2
90841.4
90752.1
90654.1
90552.5
90447.2
90333.4
90223.7
90115.7
90000.9
89886.1
89780.7
89678.2
89559.3
89448.5
89344.7
89242.5
89120.7
88987.5
88861.5
88724.7
88554.1
88353.9
88135.9
87889.9
87605.8
87246.8
86870
86450.9
85977.1
85466.6
84916
84381
83868
83279.7
82648.2
82028
81414.4
80843.2
80314.6
79832.7
79416
79049.7
78755.8
78581
78492.1
78493.1
78571.3
78672.2
78821.7
79062.1
79155.2
79395.4
79601.4
79751
79813.3
79869.2
79934.4
79959.3
79928.1
79922.9
79866.5
79802
99629.4
99633.8
99638.4
99643.3
99647.7
99651.3
99654
99656
99656.5
99655.7
99653.5
99649.3
99643.5
99635.9
99626.5
99615.4
99602
99586
99566.7
99543.5
99516.4
99485.5
99450.8
99412.8
99371.9
99328.1
99281.2
99231.1
99177.6
99120.5
99060.1
98996.9
98931.4
98864.2
98794
98720.3
98642.7
98560.9
98473.8
98380.6
98281.7
98178.5
98071.9
97962.6
97850.3
97734
97613.1
97486.4
97354.1
97216.8
97075.4
96929.7
96780
96625.5
96467
96304.5
96137.8
95967.4
95793.5
95616
95435.4
95252
95065.7
94876.9
94686
94491.6
94293.9
94094.3
93893
93690.7
93488.4
93285.4
93081.5
92878.4
92677.6
92480.7
92288.8
92104
91927.8
91761.4
91605.6
91460.9
91328.1
91208.4
91101.5
91007.6
90927.3
90860.7
90809.1
90771.5
90745.8
90731.8
90730.3
90741.3
90765.3
90801
90846.8
90901.5
90964.8
91035.1
91111.7
91191.1
91273.9
91354.7
91431.7
91508.1
91583.1
91651.7
91709.3
91756.3
91771.3
91794.8
91795.4
91777
91749.6
91706.1
91648.3
91580
91501.2
91412.2
91313.9
91209.1
91101.7
90984.9
90867.3
90752.1
90631
90507.6
90388.2
90266.8
90136.8
90016.4
89891.8
89765.3
89627.2
89482.7
89332.2
89162.6
88968.2
88753.9
88517
88241.6
87931.3
87573
87189.7
86751.5
86261.9
85737.9
85193.7
84640.4
84107.1
83521.1
82888.4
82258.7
81658.8
81070
80538.6
80060.7
79637.6
79267.9
78989.8
78805.8
78742.9
78732
78845
78988.6
79245.7
79430.5
79619.3
79904
80143.7
80321.4
80433.9
80522.5
80613.4
80669.4
80675.3
80693.7
80650.5
80592.6
98901.9
98906.9
98912.4
98919.2
98925.7
98931.5
98936.5
98940.5
98943.4
98945.2
98945.9
98944.9
98942.6
98939.1
98933.8
98926.3
98916.4
98903.9
98888.6
98869.9
98847.8
98822.1
98792.7
98759.5
98722.9
98682.9
98639.5
98592.6
98542.4
98489.3
98433.6
98375.8
98316.2
98255.7
98191.2
98124.9
98055.3
97981.9
97903.9
97820.1
97731.4
97635.2
97538.5
97440.9
97341.3
97237.7
97129.1
97015.1
96896
96772.6
96645.4
96514.4
96380
96241.7
96099.8
95953.6
95804.3
95651.8
95496.2
95338.2
95177.7
95014.7
94848.9
94680.4
94510.4
94338.8
94164
93987.1
93809.7
93630.6
93450.5
93270.9
93091.1
92911.4
92733.2
92558.2
92388.3
92225.1
92070.4
91925.2
91790.1
91666.2
91553.7
91453.3
91365.6
91290.3
91228.3
91180
91145.9
91125.9
91118.1
91121.1
91135.8
91163.1
91201.7
91251.1
91311.2
91380.3
91458
91543.3
91635.6
91730.9
91829.7
91925.9
92016.6
92107.3
92196.6
92275.7
92343.1
92398.4
92433.3
92461.5
92472.6
92464.8
92444.7
92408.4
92356.4
92293.2
92217.1
92127.2
92030.2
91923.9
91812.4
91692
91567.7
91443.8
91314.4
91183.1
91048.5
90908.8
90773.4
90638.1
90491.2
90344.6
90185.6
90019.5
89849
89650.2
89427
89194.4
88938.2
88638.7
88301.2
87934.8
87541.1
87092.1
86587.5
86048
85490.3
84947
84388.7
83796.4
83158.8
82524.1
81931.9
81332.1
80802.3
80331.6
79900.2
79538.7
79270
79072.7
79031.5
79053.5
79175
79362.8
79695.3
79813.3
80135.9
80461
80725.8
80944.1
81095.7
81238.3
81352.7
81423.1
81467.5
81516.8
81494.9
81449
98212.1
98217.6
98223.8
98232
98240.7
98249.1
98257.8
98265.6
98272
98277.2
98281.3
98284.3
98285.9
98286.2
98285
98281.7
98275.8
98267
98255.2
98240.5
98222.9
98202
98177.4
98149
98116.7
98080.3
98040.2
97996.5
97949.9
97900.8
97849
97795
97738.9
97680.3
97624.3
97566.4
97504.7
97438.6
97367.5
97290.1
97205.7
97121.9
97036.3
96950
96861.5
96769.1
96671.7
96569.4
96461.9
96351
96237
96119.7
95999.3
95876
95749.4
95619.6
95486.5
95350.8
95213.7
95074.1
94931.3
94787.4
94641.5
94493.5
94343.3
94192
94039.8
93885.1
93729.3
93573.7
93416.7
93258.8
93101.5
92945.1
92789.8
92636.6
92488.4
92347.1
92214
92090.2
91976.4
91873.1
91781.2
91700.5
91631.9
91575.5
91531.7
91502
91485.3
91482.9
91493.8
91515.4
91547.3
91590.9
91645
91709.1
91783.8
91867.8
91961
92063.9
92173.3
92286.3
92402.5
92514.7
92621.5
92729.7
92835.8
92927.5
93008.4
93076.6
93129.1
93168.2
93191.2
93196.7
93186.8
93160.5
93118.4
93062.3
92989.8
92900.9
92806
92699.2
92582.1
92457.6
92326.7
92193.1
92054.1
91913.3
91764.5
91609.5
91467.8
91312.8
91144.1
90980.5
90798.9
90604.8
90410.5
90189.2
89938.2
89680.9
89402
89083.5
88723.9
88339.3
87929.1
87475.9
86958
86401.6
85829.2
85291.2
84712.1
84108.5
83465
82829.9
82232.4
81639.7
81115.9
80646.1
80216.3
79856.6
79580.8
79390.7
79368
79465.8
79562
79788.8
80136.8
80286.7
80721.3
81073.2
81342
81598.6
81806.7
82028.3
82151.7
82220.2
82300.1
82385
82401.2
82366.4
97565.5
97571.5
97578.3
97587.4
97598.5
97610.1
97622.4
97634.9
97646.3
97656.3
97665.1
97672.8
97679.1
97683.4
97686
97686.9
97685.6
97681.7
97674.8
97664.5
97651.1
97634.2
97613.8
97589.4
97560.8
97528.1
97491.3
97450.9
97408.3
97362.9
97314.2
97264.4
97213.9
97161.3
97109.8
97057.5
97001.3
96940.2
96874.8
96804.5
96729.8
96653.3
96576.1
96498.3
96418
96334
96246.4
96153
96057.1
95958.1
95856.2
95751.8
95644.5
95534.9
95422.7
95307.6
95190.8
95072
94950.2
94827.2
94702.8
94576.5
94448.6
94318.8
94188.6
94056.3
93924
93791.8
93657.7
93522.5
93387.8
93252.3
93116.2
92981.2
92848.4
92717.7
92590.9
92470.5
92358.6
92255.9
92163
92080
92008
91947.4
91897.9
91860.3
91834.9
91823.3
91824.9
91839.9
91868.9
91909.7
91959.8
92018.7
92088.8
92170.6
92260.8
92361.8
92469.5
92589.4
92720.2
92852.3
92989
93119.1
93240.8
93367.9
93496.4
93600.2
93699.4
93784.7
93854.9
93908.7
93947.6
93969.8
93974.5
93962.4
93934
93886.8
93819.9
93736.9
93642.3
93534.3
93411.7
93282.2
93143.6
92999.7
92851.4
92698.5
92537.2
92370.9
92215.6
92039.9
91852.6
91668.4
91465.3
91241.7
91018.2
90777.4
90503.4
90216.3
89912.9
89577.2
89196.3
88783.5
88357
87905.6
87377.1
86801.1
86219
85677.5
85087.2
84467.7
83814.8
83178.9
82575.9
81994.5
81477.7
81009.4
80587.3
80226.8
79942.4
79765.7
79759.9
79887.2
79991.9
80278.3
80617.5
80886.8
81374.8
81722.1
81995.7
82278.5
82584.6
82869.1
82980.7
83055.5
83172.9
83308.4
83377.6
83350.6
96964.8
96971.7
96979.4
96989.8
97003.6
97019.2
97035.9
97053.2
97070
97085.9
97100.6
97113.8
97125.3
97134.8
97142.3
97147.7
97151.1
97151.9
97150.1
97145
97136.4
97123.9
97107.3
97086.7
97061.8
97032.7
96999.6
96962.8
96923.6
96882
96837.6
96792.4
96746.8
96699.5
96651.1
96601.7
96547.9
96490.2
96430
96366
96298.1
96229.4
96160.7
96090.2
96016.4
95938.5
95856.4
95773.3
95687.5
95599.2
95508.5
95415.6
95320.9
95224
95125.1
95024.3
94921.5
94817.2
94711.6
94604.9
94496.8
94386.9
94275.5
94163
94049.5
93936.1
93822.6
93709.1
93597.8
93482
93366.3
93251.6
93137.5
93023.6
92911.6
92802.7
92697.4
92597.4
92505.2
92422.5
92349.4
92286.5
92233.7
92192
92161.6
92142.7
92135.6
92141
92161.1
92193.8
92240.3
92299.1
92369.7
92445.1
92527.6
92630.7
92739.3
92858.6
92980.1
93115.3
93272.3
93423.5
93581.2
93731
93865.6
94017.6
94163.6
94292.2
94410.4
94515
94604.7
94677.4
94736.2
94778.9
94803
94810.5
94798.9
94762.4
94706.2
94632.6
94538
94429.1
94302.3
94166.3
94020.1
93864.8
93706.9
93541.6
93368.8
93194
93016.6
92821.5
92620.8
92408.6
92183.2
91934.1
91679.3
91412.7
91119.5
90803
90474.9
90120.6
89717.9
89273.3
88831.3
88383.6
87850.7
87257.6
86665.7
86111.9
85521.5
84882.4
84221.2
83582.8
82977.9
82403.7
81895.3
81435.4
81021.2
80664.5
80377.8
80206.6
80200.6
80347.1
80487
80840.1
81172.1
81597.2
82083.7
82400.2
82706.4
83017.9
83399.4
83704
83809.2
83916.2
84096.9
84313
84430.8
84407.1
96500.2
96508.1
96516
96528.7
96545.5
96565.2
96586.8
96609.2
96631.5
96652.9
96673.1
96692
96709.2
96724.1
96736.3
96745.8
96752.7
96756.8
96758.1
96756.3
96751.1
96742
96728.7
96711.2