/*--------------------------------*- C++ -*----------------------------------*\
| =========                 |                                                 |
| \\      /  F ield         | OpenFOAM: The Open Source CFD Toolbox           |
|  \\    /   O peration     | Version:  dev                                   |
|   \\  /    A nd           | Web:      http://www.openfoam.org               |
|    \\/     M anipulation  |                                                 |
\*---------------------------------------------------------------------------*/
FoamFile
{
    version     2.0;
    format      ascii;
    class       surfaceScalarField;
    object      phi;
    location    "9.152";
}
// * * * * * * * * * * * * * * * * * * * * * * * * * * * * * * * * * * * * * //

dimensions      [1 0 -1 0 0 0 0];

internalField   nonuniform List<scalar> 
24170
(
2.17956e-06
1.40868e-06
1.50737e-06
1.02656e-06
1.23932e-06
5.82378e-07
1.18774e-06
3.40482e-07
1.11836e-06
3.27914e-07
1.11075e-06
2.48801e-07
1.00724e-06
3.20353e-07
1.00821e-06
2.02373e-07
8.44568e-07
3.45816e-07
8.48295e-07
1.67096e-07
6.18724e-07
3.80007e-07
6.49999e-07
1.0995e-07
2.40322e-07
5.30021e-07
4.89542e-07
-1.38358e-07
-4.38011e-07
1.0245e-06
-3.12489e-07
-5.42126e-08
-1.53043e-06
1.28855e-06
1.91831e-06
-3.37527e-06
3.86643e-06
1.53812e-06
3.46205e-06
1.73495e-06
3.21618e-06
1.10442e-06
3.07421e-06
7.34944e-07
2.97888e-06
6.53157e-07
2.91897e-06
5.18516e-07
2.8473e-06
5.83716e-07
2.84151e-06
3.83849e-07
2.76774e-06
5.79738e-07
2.70101e-06
3.81244e-07
2.65415e-06
5.58808e-07
2.58028e-06
3.05768e-07
2.46007e-06
7.54387e-07
2.57681e-06
-1.59397e-07
1.77971e-06
1.90125e-06
3.60503e-06
-1.81607e-06
3.15375e-07
4.63877e-06
2.83934e-06
-5.47577e-07
4.61305e-06
1.34396e-06
4.62125e-06
2.05849e-06
4.62945e-06
1.39941e-06
4.64352e-06
9.98006e-07
4.57239e-06
9.76647e-07
4.49365e-06
8.26931e-07
4.43881e-06
8.48709e-07
4.408e-06
6.07253e-07
4.2782e-06
8.85161e-07
4.41841e-06
4.03121e-07
4.10197e-06
1.0206e-06
4.46682e-06
7.41731e-08
3.82762e-06
1.51136e-06
4.49661e-06
-7.26025e-07
3.22719e-06
3.25996e-06
4.16873e-06
-2.68662e-06
3.21457e-06
5.65026e-06
3.94647e-06
2.15618e-06
4.82969e-06
1.23739e-06
5.44261e-06
1.81111e-06
5.57493e-06
1.60171e-06
5.85893e-06
1.01962e-06
5.85389e-06
1.25867e-06
5.98174e-06
9.51392e-07
5.88883e-06
1.1713e-06
5.9896e-06
7.18273e-07
5.76362e-06
1.30238e-06
6.03317e-06
3.10321e-07
5.60967e-06
1.60399e-06
5.96251e-06
-1.32903e-07
5.19416e-06
2.40807e-06
5.83546e-06
-1.25521e-06
4.7697e-06
4.424e-06
5.22682e-06
-3.06233e-06
5.36594e-06
5.57843e-06
3.26783e-06
6.06996e-06
5.15775e-06
1.32176e-06
6.04763e-06
1.32312e-06
6.07663e-06
1.94162e-06
6.49578e-06
9.37402e-07
6.48692e-06
1.57132e-06
6.8942e-06
8.20043e-07
6.77609e-06
1.54127e-06
7.04574e-06
6.81158e-07
6.73232e-06
1.82487e-06
7.07014e-06
1.62734e-07
6.72935e-06
2.11983e-06
6.89725e-06
-1.39884e-07
6.50745e-06
2.93664e-06
6.40715e-06
-1.03154e-06
6.56966e-06
4.3661e-06
5.62542e-06
-2.02913e-06
5.99001e-06
5.29115e-06
2.6408e-06
6.70118e-06
5.64354e-06
1.54037e-06
6.5208e-06
8.88414e-07
6.57658e-06
2.29239e-06
6.84982e-06
1.03394e-06
6.83723e-06
1.91661e-06
7.34296e-06
6.17369e-07
7.28922e-06
1.87306e-06
7.48592e-06
7.37288e-07
7.354e-06
2.18337e-06
7.55395e-06
1.71277e-07
7.48381e-06
2.38509e-06
7.4603e-06
5.89892e-08
7.55726e-06
2.99071e-06
6.96834e-06
-3.0614e-07
7.8543e-06
3.59897e-06
6.04738e-06
-1.20364e-07
7.64881e-06
3.77327e-06
2.94946e-06
7.40769e-06
6.43311e-06
1.50786e-06
7.0767e-06
7.31239e-07
7.16142e-06
2.65495e-06
7.49079e-06
1.10933e-06
7.52169e-06
2.25063e-06
7.89303e-06
5.78932e-07
7.9534e-06
2.11708e-06
8.14665e-06
8.17369e-07
8.23533e-06
2.3429e-06
8.21292e-06
4.23625e-07
8.39992e-06
2.41065e-06
8.20107e-06
4.46806e-07
8.59338e-06
2.76287e-06
7.84627e-06
5.88144e-07
8.51549e-06
3.06191e-06
7.32464e-06
1.18316e-06
8.15693e-06
3.03364e-06
3.60868e-06
7.57818e-06
5.11563e-06
1.49711e-06
5.48192e-06
7.4407e-07
5.62041e-06
2.8646e-06
5.88913e-06
1.15447e-06
6.03139e-06
2.39242e-06
6.1445e-06
7.25081e-07
6.26371e-06
2.23258e-06
6.37252e-06
9.19464e-07
6.5666e-06
2.34149e-06
6.44634e-06
7.20656e-07
6.63404e-06
2.38469e-06
6.38473e-06
8.41242e-07
6.73935e-06
2.53652e-06
6.23652e-06
1.20424e-06
6.6446e-06
2.75565e-06
5.9941e-06
1.92088e-06
6.26919e-06
2.83141e-06
3.55899e-06
6.37923e-06
5.87961e-06
1.47892e-06
6.26206e-06
8.02803e-07
6.6401e-06
2.89021e-06
6.89147e-06
1.26851e-06
7.13567e-06
2.47797e-06
7.16285e-06
9.97689e-07
7.38344e-06
2.28236e-06
7.42934e-06
1.11634e-06
7.67228e-06
2.31949e-06
7.52042e-06
1.07581e-06
7.74737e-06
2.34409e-06
7.44858e-06
1.30614e-06
7.72748e-06
2.40504e-06
7.33012e-06
1.73249e-06
7.67154e-06
2.52957e-06
7.23177e-06
2.4592e-06
7.36207e-06
2.78557e-06
3.48646e-06
7.50604e-06
7.03745e-06
1.35286e-06
7.24758e-06
1.10339e-06
7.7207e-06
2.88675e-06
7.92509e-06
1.48975e-06
8.3052e-06
2.47928e-06
8.34919e-06
1.29813e-06
8.63555e-06
2.30678e-06
8.65171e-06
1.38013e-06
8.92988e-06
2.29611e-06
8.77489e-06
1.46309e-06
9.01955e-06
2.30887e-06
8.76035e-06
1.75321e-06
8.98253e-06
2.35034e-06
8.72978e-06
2.13298e-06
8.89343e-06
2.49553e-06
8.73794e-06
2.72685e-06
8.73356e-06
2.88937e-06
3.3591e-06
8.94602e-06
8.18491e-06
1.22309e-06
8.42935e-06
1.45577e-06
9.10983e-06
2.74929e-06
9.3336e-06
1.75393e-06
9.83032e-06
2.42576e-06
9.8748e-06
1.65178e-06
1.01925e-05
2.34191e-06
1.01678e-05
1.72212e-06
1.04136e-05
2.3415e-06
1.02723e-05
1.8687e-06
1.04938e-05
2.32295e-06
1.03009e-05
2.15775e-06
1.04518e-05
2.38718e-06
1.03468e-05
2.4011e-06
1.03834e-05
2.60303e-06
1.03932e-05
2.84431e-06
1.04351e-05
2.95933e-06
3.2549e-06
1.0632e-05
9.5639e-06
1.10563e-06
9.79069e-06
1.91677e-06
1.05078e-05
2.6587e-06
1.07515e-05
2.07835e-06
1.12794e-05
2.40417e-06
1.14126e-05
1.97157e-06
1.18012e-05
2.35886e-06
1.18531e-05
2.0323e-06
1.21119e-05
2.40658e-06
1.20516e-05
2.2233e-06
1.22526e-05
2.38635e-06
1.22332e-05
2.40799e-06
1.23476e-05
2.4756e-06
1.2351e-05
2.57714e-06
1.2423e-05
2.69218e-06
1.25342e-05
2.87317e-06
1.25832e-05
3.02744e-06
3.2097e-06
1.27256e-05
1.0905e-05
9.9055e-07
1.13028e-05
2.31444e-06
1.21066e-05
2.57791e-06
1.24798e-05
2.35841e-06
1.30195e-05
2.44636e-06
1.32795e-05
2.22543e-06
1.36698e-05
2.42569e-06
1.38246e-05
2.28623e-06
1.41227e-05
2.47107e-06
1.4207e-05
2.46089e-06
1.4385e-05
2.4911e-06
1.44909e-05
2.55143e-06
1.45844e-05
2.60383e-06
1.46562e-05
2.70088e-06
1.47042e-05
2.81209e-06
1.47823e-05
2.93859e-06
1.48569e-05
3.08039e-06
3.20658e-06
1.49699e-05
1.27796e-05
8.25731e-07
1.34211e-05
2.59019e-06
1.42281e-05
2.60205e-06
1.47643e-05
2.5691e-06
1.5276e-05
2.59502e-06
1.56296e-05
2.45605e-06
1.60712e-05
2.49753e-06
1.63721e-05
2.43521e-06
1.67391e-05
2.50017e-06
1.69863e-05
2.55899e-06
1.7176e-05
2.60198e-06
1.73487e-05
2.64336e-06
1.74409e-05
2.74011e-06
1.75291e-05
2.81128e-06
1.76217e-05
2.89167e-06
1.77402e-05
2.96747e-06
1.78633e-05
3.08024e-06
3.15655e-06
1.80145e-05
1.45902e-05
3.50074e-07
1.56262e-05
2.6105e-06
1.64892e-05
2.69189e-06
1.71878e-05
2.72127e-06
1.78016e-05
2.72924e-06
1.82834e-05
2.62745e-06
1.87859e-05
2.56209e-06
1.91986e-05
2.51284e-06
1.95937e-05
2.52667e-06
1.99385e-05
2.57694e-06
2.02158e-05
2.63601e-06
2.04228e-05
2.70007e-06
2.0606e-05
2.78261e-06
2.07518e-05
2.85786e-06
2.08846e-05
2.91831e-06
2.1029e-05
2.95563e-06
2.11941e-05
3.02504e-06
3.06416e-06
2.13769e-05
1.72828e-05
5.02672e-07
1.83545e-05
2.74118e-06
1.94297e-05
2.69848e-06
2.04254e-05
2.68617e-06
2.13143e-05
2.67883e-06
2.2034e-05
2.63003e-06
2.26303e-05
2.58126e-06
2.31096e-05
2.55506e-06
2.35028e-05
2.57251e-06
2.38153e-05
2.62978e-06
2.4049e-05
2.70424e-06
2.42238e-05
2.77261e-06
2.43578e-05
2.8495e-06
2.44886e-05
2.88859e-06
2.46007e-05
2.93404e-06
2.47088e-05
2.94502e-06
2.48488e-05
2.95608e-06
2.9353e-06
2.50293e-05
2.02353e-05
3.86264e-07
2.16251e-05
2.71626e-06
2.29245e-05
2.61499e-06
2.41034e-05
2.58133e-06
2.51404e-05
2.56834e-06
2.60168e-05
2.53874e-06
2.67569e-05
2.4985e-06
2.73746e-05
2.47815e-06
2.78825e-05
2.5007e-06
2.82959e-05
2.56123e-06
2.86229e-05
2.64498e-06
2.88813e-05
2.7174e-06
2.9104e-05
2.77378e-06
2.92782e-05
2.81399e-06
2.94457e-05
2.82707e-06
2.95986e-05
2.81865e-06
2.97452e-05
2.81007e-06
2.7652e-06
2.98964e-05
2.03805e-05
4.26583e-07
2.19147e-05
2.49689e-06
2.34071e-05
2.29445e-06
2.47552e-05
2.26402e-06
2.58944e-05
2.30782e-06
2.68099e-05
2.35852e-06
2.75389e-05
2.37176e-06
2.81093e-05
2.38202e-06
2.85599e-05
2.4103e-06
2.89241e-05
2.45835e-06
2.92335e-05
2.51527e-06
2.95164e-05
2.5472e-06
2.97749e-05
2.566e-06
3.0025e-05
2.5661e-06
3.02657e-05
2.54751e-06
3.04829e-05
2.53087e-06
3.06858e-05
2.51572e-06
2.476e-06
3.08669e-05
1.85751e-05
1.5863e-07
1.98843e-05
2.30212e-06
2.10979e-05
2.07453e-06
2.2254e-05
1.98021e-06
2.3296e-05
2.00127e-06
2.41917e-05
2.0697e-06
2.49335e-05
2.11585e-06
2.55289e-05
2.15007e-06
2.60084e-05
2.18634e-06
2.64026e-05
2.22479e-06
2.6745e-05
2.25814e-06
2.70504e-05
2.26743e-06
2.73194e-05
2.26325e-06
2.75517e-05
2.25575e-06
2.77467e-05
2.2348e-06
2.79143e-05
2.21764e-06
2.80339e-05
2.2333e-06
2.21975e-06
2.81156e-05
1.65853e-05
7.73504e-09
1.78668e-05
1.96341e-06
1.90292e-05
1.7603e-06
2.00555e-05
1.69973e-06
2.09762e-05
1.70267e-06
2.18096e-05
1.74408e-06
2.25344e-05
1.78905e-06
2.31322e-05
1.83188e-06
2.36124e-05
1.88542e-06
2.39955e-05
1.93172e-06
2.43146e-05
1.96112e-06
2.45814e-05
1.96844e-06
2.47915e-05
1.96568e-06
2.49683e-05
1.94954e-06
2.5095e-05
1.94047e-06
2.51962e-05
1.92573e-06
2.52701e-05
1.95288e-06
1.95023e-06
2.53255e-05
1.45845e-05
1.14062e-07
1.56527e-05
1.70719e-06
1.67301e-05
1.41547e-06
1.77343e-05
1.33804e-06
1.86424e-05
1.32521e-06
1.94722e-05
1.34444e-06
2.0191e-05
1.39751e-06
2.07674e-05
1.47148e-06
2.12282e-05
1.55321e-06
2.15862e-05
1.62227e-06
2.1857e-05
1.6756e-06
2.20867e-05
1.6706e-06
2.22794e-05
1.65364e-06
2.24431e-05
1.62762e-06
2.25772e-05
1.61271e-06
2.26694e-05
1.61988e-06
2.27701e-05
1.62251e-06
1.62761e-06
2.28569e-05
1.33778e-05
-1.82683e-07
1.43777e-05
1.40953e-06
1.5306e-05
1.12383e-06
1.62139e-05
9.88549e-07
1.70427e-05
9.55811e-07
1.77732e-05
9.79111e-07
1.83733e-05
1.06646e-06
1.88361e-05
1.18302e-06
1.92091e-05
1.27575e-06
1.9514e-05
1.33791e-06
1.97871e-05
1.36265e-06
2.00171e-05
1.34877e-06
2.02053e-05
1.32978e-06
2.03635e-05
1.29955e-06
2.04862e-05
1.28934e-06
2.05765e-05
1.31005e-06
2.06484e-05
1.31413e-06
1.33101e-06
2.07023e-05
1.20074e-05
-7.79507e-08
1.3008e-05
1.02839e-06
1.39038e-05
7.85912e-07
1.4679e-05
7.01855e-07
1.53501e-05
6.86459e-07
1.59232e-05
7.18282e-07
1.64368e-05
7.79916e-07
1.68941e-05
8.71514e-07
1.72948e-05
9.44585e-07
1.76373e-05
9.95261e-07
1.79164e-05
1.02796e-06
1.8129e-05
1.03292e-06
1.82833e-05
1.03478e-06
1.8359e-05
1.05248e-06
1.84172e-05
1.03369e-06
1.84625e-05
1.04993e-06
1.84953e-05
1.05084e-06
1.04612e-06
1.8542e-05
1.06115e-05
-2.21476e-07
1.15549e-05
6.3421e-07
1.24205e-05
4.14199e-07
1.31837e-05
3.67952e-07
1.3837e-05
3.85138e-07
1.43849e-05
4.42045e-07
1.48484e-05
5.0834e-07
1.52381e-05
5.99429e-07
1.55573e-05
6.75933e-07
1.58269e-05
7.16771e-07
1.60454e-05
7.49879e-07
1.62133e-05
7.60924e-07
1.63357e-05
7.72636e-07
1.64111e-05
8.08308e-07
1.64592e-05
7.94531e-07
1.64996e-05
8.01838e-07
1.65299e-05
8.00561e-07
7.76784e-07
1.65723e-05
9.43376e-06
-3.60679e-07
1.04683e-05
8.7641e-08
1.13879e-05
-6.73399e-08
1.21626e-05
-2.91632e-08
1.27905e-05
6.47161e-08
1.32806e-05
1.8749e-07
1.36501e-05
3.03963e-07
1.39332e-05
4.15083e-07
1.41723e-05
4.75174e-07
1.43882e-05
4.85748e-07
1.45835e-05
4.92397e-07
1.47575e-05
4.85247e-07
1.48919e-05
5.03943e-07
1.50046e-05
5.34575e-07
1.50676e-05
5.50659e-07
1.51104e-05
5.63042e-07
1.51368e-05
5.67971e-07
5.37607e-07
1.51629e-05
8.59275e-06
-5.21363e-07
9.44853e-06
-3.3268e-07
1.01799e-05
-4.09805e-07
1.07966e-05
-3.11462e-07
1.13294e-05
-1.96978e-07
1.17732e-05
-5.01674e-08
1.21248e-05
9.60198e-08
1.2417e-05
2.07079e-07
1.26645e-05
2.57755e-07
1.28806e-05
2.51129e-07
1.30665e-05
2.45844e-07
1.32043e-05
2.51247e-07
1.33193e-05
2.63292e-07
1.34102e-05
2.94541e-07
1.34686e-05
3.24671e-07
1.35078e-05
3.42576e-07
1.35385e-05
3.46345e-07
3.24876e-07
1.35543e-05
7.61394e-06
-5.24445e-07
8.43765e-06
-7.65018e-07
9.14469e-06
-7.70561e-07
9.71065e-06
-5.80908e-07
1.01659e-05
-4.1259e-07
1.05368e-05
-2.39686e-07
1.08345e-05
-7.69962e-08
1.10823e-05
3.06091e-08
1.12811e-05
8.1921e-08
1.14256e-05
8.68221e-08
1.15154e-05
9.93869e-08
1.15592e-05
1.19472e-07
1.15669e-05
1.41382e-07
1.15562e-05
1.69627e-07
1.15338e-05
1.94785e-07
1.15013e-05
2.10236e-07
1.14636e-05
2.10631e-07
1.99716e-07
1.14102e-05
6.99174e-06
-7.9663e-07
7.75711e-06
-1.1811e-06
8.24175e-06
-9.47435e-07
8.55162e-06
-6.27061e-07
8.74345e-06
-3.9159e-07
8.882e-06
-2.17415e-07
8.9967e-06
-8.14654e-08
9.09e-06
1.58083e-10
9.1483e-06
4.34428e-08
9.15673e-06
6.0137e-08
9.12739e-06
7.72968e-08
9.06771e-06
9.92534e-08
8.99032e-06
1.14942e-07
8.90691e-06
1.29762e-07
8.82042e-06
1.42901e-07
8.72703e-06
1.54041e-07
8.62495e-06
1.55404e-07
1.60326e-07
8.50204e-06
6.22353e-06
-9.99696e-07
6.38662e-06
-1.03103e-06
6.35568e-06
-6.40525e-07
6.30763e-06
-3.44512e-07
6.25467e-06
-1.49346e-07
6.22156e-06
-4.11561e-08
6.21308e-06
2.52179e-08
6.21792e-06
5.12573e-08
6.20922e-06
6.92212e-08
6.17851e-06
7.32027e-08
6.1299e-06
7.76996e-08
6.07298e-06
8.19733e-08
6.0072e-06
8.4899e-08
5.93132e-06
9.25198e-08
5.8504e-06
9.72722e-08
5.76271e-06
1.05404e-07
5.6769e-06
9.78756e-08
1.20677e-07
5.56871e-06
4.10033e-06
3.3588e-06
2.97134e-06
2.83941e-06
2.86007e-06
2.94572e-06
3.05568e-06
3.15209e-06
3.23027e-06
3.28024e-06
3.30676e-06
3.31396e-06
3.30466e-06
3.28752e-06
3.2632e-06
3.23828e-06
3.19961e-06
3.18032e-06
2.69507e-07
1.10823e-06
5.14776e-07
1.17013e-06
7.67568e-07
1.15932e-06
1.05825e-06
1.1262e-06
1.37442e-06
1.10516e-06
1.70647e-06
1.09187e-06
2.05226e-06
1.0793e-06
2.41387e-06
1.06409e-06
2.78293e-06
1.05675e-06
3.13833e-06
1.06923e-06
3.46743e-06
1.09238e-06
3.76245e-06
1.12182e-06
4.0265e-06
1.1469e-06
4.26602e-06
1.1655e-06
4.48209e-06
1.18189e-06
4.65443e-06
1.21675e-06
4.76211e-06
1.26997e-06
4.79909e-06
1.32709e-06
4.76943e-06
1.37873e-06
4.67769e-06
1.42501e-06
4.53965e-06
1.45475e-06
4.35001e-06
1.48812e-06
4.10619e-06
1.5231e-06
3.81975e-06
1.54578e-06
3.50082e-06
1.55736e-06
3.15945e-06
1.55779e-06
2.80554e-06
1.55018e-06
2.44373e-06
1.53921e-06
2.08503e-06
1.51649e-06
1.74127e-06
1.48018e-06
1.41696e-06
1.43848e-06
1.1205e-06
1.38823e-06
8.5393e-07
1.33744e-06
6.38984e-07
1.26579e-06
4.66139e-07
1.20483e-06
3.23097e-07
1.1576e-06
1.95547e-07
1.1265e-06
7.06119e-08
1.11032e-06
-6.36567e-08
1.10859e-06
-2.29539e-07
1.1313e-06
-4.29956e-07
1.15913e-06
-6.69557e-07
1.19439e-06
-9.80322e-07
1.26411e-06
-1.33693e-06
1.309e-06
-1.61476e-06
1.22958e-06
-1.7754e-06
1.11662e-06
-1.81202e-06
1.00973e-06
-1.83509e-06
1.02005e-06
-1.90774e-06
1.08594e-06
-1.96234e-06
1.08741e-06
-2.09905e-06
1.19722e-06
-2.33539e-06
1.31749e-06
-2.5296e-06
1.29783e-06
-2.53282e-06
1.14331e-06
-2.39382e-06
1.03821e-06
-2.33547e-06
1.15122e-06
-2.36223e-06
1.2696e-06
-2.51511e-06
1.43345e-06
-2.6477e-06
1.45193e-06
-2.84508e-06
1.55456e-06
-3.0971e-06
1.65166e-06
-3.35144e-06
1.69754e-06
-3.6124e-06
1.74572e-06
-3.86112e-06
1.77207e-06
-4.07518e-06
1.76516e-06
-4.26179e-06
1.76029e-06
-4.34747e-06
1.6798e-06
-4.27972e-06
1.54379e-06
-3.95889e-06
1.30656e-06
-3.23303e-06
9.13575e-07
-2.02425e-06
4.36267e-07
-4.91889e-07
1.13406e-07
8.92806e-07
2.53548e-07
1.91567e-06
6.08999e-07
2.21974e-06
1.31672e-06
1.30268e-06
2.50138e-06
-2.64503e-07
3.12146e-06
-1.4769e-06
2.73546e-06
-1.98809e-06
2.00242e-06
-1.90686e-06
1.382e-06
-1.09546e-06
6.18157e-07
-1.50122e-08
3.12638e-07
7.6237e-07
5.78401e-07
1.21559e-06
8.57234e-07
1.42286e-06
1.04227e-06
1.23708e-06
1.3664e-06
4.22788e-07
1.95055e-06
-1.05432e-06
2.58723e-06
-2.90942e-06
2.92775e-06
-4.8245e-06
2.948e-06
-6.61989e-06
2.78855e-06
-8.19446e-06
2.52614e-06
-9.60544e-06
2.32464e-06
-1.0876e-05
2.1498e-06
-1.19631e-05
1.93208e-06
-1.27935e-05
1.64051e-06
-1.33555e-05
1.33939e-06
-1.3714e-05
1.10991e-06
-1.38936e-05
9.1374e-07
-1.39062e-05
7.35041e-07
-1.37356e-05
5.38073e-07
-1.33625e-05
3.14844e-07
-1.29121e-05
2.17403e-07
-1.23932e-05
1.48359e-07
-1.14604e-05
-2.3939e-07
-1.10105e-05
2.70351e-07
-9.69409e-06
-6.24332e-07
-7.91721e-06
-1.09626e-06
-7.32525e-06
1.36631e-07
-6.1454e-06
-4.38083e-07
-4.73325e-06
-6.63556e-07
-3.55251e-06
-4.13525e-07
-2.65287e-06
-1.15914e-07
-1.40529e-06
-4.54066e-07
-2.30594e-07
-3.70828e-07
8.12796e-07
-2.29325e-07
1.83995e-06
-2.0982e-07
2.858e-06
-2.0875e-07
3.65368e-06
-1.09761e-09
4.30718e-06
1.27782e-07
4.91877e-06
1.49256e-07
5.48031e-06
1.63613e-07
5.95339e-06
2.04087e-07
6.22714e-06
3.57976e-07
6.38173e-06
4.32873e-07
6.45157e-06
4.70642e-07
6.40898e-06
5.37871e-07
6.32291e-06
5.32132e-07
6.17886e-06
5.37737e-07
6.00832e-06
5.11582e-07
5.76994e-06
5.26869e-07
5.58279e-06
4.14429e-07
5.3056e-06
4.44249e-07
5.0229e-06
3.82187e-07
4.65065e-06
4.00914e-07
4.34307e-06
2.69348e-07
4.01752e-06
2.24768e-07
3.55945e-06
2.87517e-07
3.18173e-06
1.43503e-07
2.80584e-06
9.75443e-08
2.37128e-06
1.29038e-07
1.67496e-06
3.73723e-07
8.37751e-07
4.87143e-07
-1.53529e-07
6.04454e-07
-5.99417e-07
-3.13927e-10
-7.9847e-07
-2.85717e-07
6.02827e-07
-1.94807e-06
-4.50529e-07
5.85586e-07
-1.04942e-06
1.52174e-07
-2.30444e-06
9.04795e-07
-3.25368e-06
6.91731e-07
-4.31152e-06
9.07858e-07
-5.32229e-06
9.8368e-07
-6.09457e-06
8.67982e-07
-6.74205e-06
9.24856e-07
-6.13858e-06
-9.54696e-08
-6.43572e-06
1.03609e-06
-7.27355e-06
1.77891e-06
-7.93052e-06
1.76612e-06
-8.26932e-06
1.65813e-06
-8.18678e-06
1.49386e-06
-8.31885e-06
1.8598e-06
-8.2981e-06
1.79538e-06
-7.84697e-06
1.58866e-06
-6.83895e-06
1.33183e-06
-6.04949e-06
1.77474e-06
-5.92999e-06
2.61736e-06
-6.37599e-06
3.39876e-06
-6.12984e-06
3.00194e-06
-5.09263e-06
2.1487e-06
-3.94131e-06
1.94357e-06
-2.1519e-06
1.16317e-06
-5.1209e-07
1.05392e-06
1.33462e-06
5.77544e-07
3.72636e-06
-2.05622e-07
4.82478e-06
8.44534e-07
5.82226e-06
7.60928e-07
8.42592e-06
-1.1529e-06
8.02541e-06
1.80815e-06
1.81682e-06
7.52175e-06
2.03363e-07
2.25663e-06
4.07707e-07
2.35662e-06
6.4441e-07
2.30738e-06
9.3336e-07
2.23001e-06
1.24156e-06
2.19631e-06
1.55005e-06
2.18792e-06
1.87468e-06
2.16173e-06
2.2351e-06
2.11715e-06
2.62345e-06
2.08807e-06
2.99271e-06
2.12435e-06
3.32658e-06
2.18263e-06
3.63361e-06
2.23703e-06
3.8818e-06
2.31919e-06
4.0643e-06
2.40077e-06
4.17989e-06
2.47491e-06
4.23359e-06
2.55404e-06
4.24561e-06
2.62986e-06
4.21111e-06
2.71401e-06
4.12285e-06
2.8012e-06
3.98862e-06
2.87909e-06
3.77858e-06
2.9695e-06
3.50213e-06
3.05482e-06
3.16167e-06
3.13822e-06
2.75535e-06
3.21008e-06
2.30488e-06
3.24855e-06
1.8039e-06
3.28283e-06
1.27255e-06
3.28608e-06
7.37423e-07
3.25341e-06
2.19103e-07
3.18613e-06
-2.66984e-07
3.09181e-06
-6.87703e-07
2.96035e-06
-1.03254e-06
2.80917e-06
-1.29114e-06
2.64984e-06
-1.4575e-06
2.46625e-06
-1.54885e-06
2.31221e-06
-1.56912e-06
2.17706e-06
-1.5356e-06
2.07688e-06
-1.4752e-06
2.02056e-06
-1.39413e-06
1.98795e-06
-1.28531e-06
1.97599e-06
-1.16035e-06
1.98388e-06
-1.02166e-06
2.0048e-06
-8.55916e-07
2.04997e-06
-6.47304e-07
2.05601e-06
-3.99442e-07
1.94042e-06
-1.59495e-07
1.84006e-06
8.67003e-10
1.8253e-06
4.76857e-08
1.97017e-06
-2.49942e-08
2.17165e-06
-7.554e-08
2.16681e-06
-1.54822e-07
2.33888e-06
-3.55178e-07
2.61245e-06
-7.02721e-07
2.75688e-06
-9.48618e-07
2.52732e-06
-1.13345e-06
2.40407e-06
-1.42589e-06
2.66856e-06
-1.85344e-06
2.95553e-06
-2.19185e-06
3.0523e-06
-2.29601e-06
2.86939e-06
-2.25238e-06
2.86e-06
-2.32299e-06
3.10986e-06
-2.55462e-06
3.36693e-06
-2.85548e-06
3.53159e-06
-3.12475e-06
3.57847e-06
-3.31536e-06
3.52579e-06
-3.42392e-06
3.44864e-06
-3.37586e-06
3.22266e-06
-3.14776e-06
2.92218e-06
-2.67701e-06
2.45577e-06
-1.98202e-06
1.84931e-06
-9.13098e-07
1.00353e-06
4.94425e-07
3.36393e-07
1.84532e-06
5.26389e-07
2.88928e-06
1.1864e-06
3.9225e-06
1.90365e-06
4.76331e-06
3.26394e-06
4.68107e-06
4.77348e-06
3.63255e-06
5.31326e-06
2.15557e-06
4.9659e-06
1.16795e-06
3.80836e-06
1.42334e-06
1.77485e-06
2.26932e-06
8.53401e-07
2.5009e-06
1.70213e-06
1.61306e-06
3.04282e-06
-4.51835e-07
4.35554e-06
-3.07103e-06
5.20628e-06
-5.57889e-06
5.64254e-06
-7.68037e-06
5.82457e-06
-9.43827e-06
5.76196e-06
-1.09335e-05
5.46397e-06
-1.22472e-05
5.07916e-06
-1.34636e-05
4.689e-06
-1.45423e-05
4.32636e-06
-1.53786e-05
3.87507e-06
-1.59395e-05
3.32886e-06
-1.62282e-05
2.70277e-06
-1.63335e-05
2.16669e-06
-1.62779e-05
1.75282e-06
-1.60758e-05
1.4152e-06
-1.56406e-05
1.01797e-06
-1.50112e-05
6.21067e-07
-1.43865e-05
3.65636e-07
-1.38408e-05
3.05884e-07
-1.31199e-05
5.44336e-08
-1.18614e-05
-8.50151e-07
-1.09261e-05
1.0201e-07
-9.40765e-06
-1.40952e-06
-7.79693e-06
-2.08274e-06
-7.11121e-06
1.48243e-07
-5.74187e-06
-1.05998e-06
-3.86308e-06
-1.79423e-06
-2.65921e-06
-8.61754e-07
-1.74724e-06
-2.52384e-07
-2.8658e-07
-1.12391e-06
1.03425e-06
-9.00425e-07
2.11444e-06
-5.12578e-07
3.29212e-06
-5.67528e-07
4.71392e-06
-7.80781e-07
5.82065e-06
-3.11211e-07
6.55265e-06
1.12472e-07
7.19102e-06
2.23699e-07
7.92907e-06
1.90005e-07
8.79158e-06
1.22056e-07
9.54659e-06
3.02061e-07
9.9726e-06
6.03227e-07
1.00997e-05
8.45968e-07
1.01612e-05
8.92814e-07
1.01968e-05
8.85707e-07
1.02668e-05
8.78087e-07
1.02785e-05
8.97301e-07
1.00758e-05
1.05399e-06
9.85038e-06
8.73563e-07
9.48869e-06
9.64186e-07
9.1619e-06
8.24276e-07
8.63589e-06
9.84659e-07
8.02426e-06
8.38997e-07
7.53614e-06
5.73049e-07
7.07856e-06
5.16067e-07
5.99146e-06
9.37466e-07
5.31736e-06
4.30728e-07
4.91782e-06
1.48668e-07
4.10772e-06
8.07943e-07
2.60214e-06
1.61857e-06
7.87204e-07
1.99783e-06
-2.05958e-07
4.76877e-07
2.69314e-08
-1.04984e-06
2.1207e-06
-4.40903e-06
2.36248e-06
-1.80533e-07
1.99202e-06
-5.57149e-08
2.67009e-07
2.18631e-06
-1.28475e-06
1.8931e-06
-2.9066e-06
2.27435e-06
-4.61509e-06
2.54318e-06
-6.3725e-06
2.53946e-06
-6.86117e-06
1.50974e-06
-5.38946e-06
-1.14769e-06
-5.07542e-06
1.40552e-06
-5.98372e-06
3.67905e-06
-6.66475e-06
3.62222e-06
-6.91597e-06
3.17529e-06
-6.29045e-06
2.38613e-06
-5.84851e-06
3.27508e-06
-6.38504e-06
4.27102e-06
-7.02958e-06
4.29379e-06
-7.14551e-06
3.85893e-06
-7.42587e-06
4.78858e-06
-7.96313e-06
6.12461e-06
-8.0953e-06
6.80569e-06
-6.9601e-06
5.41604e-06
-5.51054e-06
4.48557e-06
-4.33034e-06
4.26065e-06
-2.37805e-06
2.37148e-06
-3.87596e-07
1.95252e-06
1.51231e-06
1.24641e-06
4.5064e-06
-8.92071e-07
5.92166e-06
1.62281e-06
8.21801e-06
4.43197e-07
1.2999e-05
-4.25104e-06
1.14602e-05
4.62693e-06
3.73518e-06
1.12049e-05
2.14898e-07
3.33441e-06
3.90051e-07
3.5136e-06
6.28933e-07
3.39853e-06
9.51041e-07
3.2546e-06
1.31445e-06
3.18934e-06
1.66317e-06
3.20325e-06
2.00246e-06
3.19301e-06
2.38733e-06
3.11559e-06
2.78654e-06
3.08744e-06
3.08058e-06
3.23321e-06
3.23105e-06
3.41823e-06
3.30963e-06
3.52526e-06
3.38408e-06
3.59883e-06
3.40843e-06
3.70449e-06
3.37974e-06
3.80088e-06
3.31251e-06
3.90402e-06
3.22042e-06
3.99766e-06
3.07364e-06
4.13993e-06
2.85062e-06
4.3041e-06
2.54756e-06
4.45851e-06
2.1527e-06
4.63297e-06
1.6467e-06
4.80992e-06
1.04389e-06
4.9721e-06
3.70645e-07
5.09401e-06
-3.7515e-07
5.1817e-06
-1.13353e-06
5.19585e-06
-1.8534e-06
5.1337e-06
-2.4918e-06
4.99178e-06
-3.04492e-06
4.8079e-06
-3.47981e-06
4.56492e-06
-3.79741e-06
4.29416e-06
-3.98373e-06
3.99218e-06
-4.08179e-06
3.71929e-06
-4.12494e-06
3.46007e-06
-4.08763e-06
3.20812e-06
-3.97018e-06
2.97908e-06
-3.82475e-06
2.83839e-06
-3.65941e-06
2.75041e-06
-3.4813e-06
2.69398e-06
-3.30333e-06
2.67286e-06
-3.11713e-06
2.6666e-06
-2.89632e-06
2.65254e-06
-2.61821e-06
2.64581e-06
-2.30598e-06
2.62442e-06
-2.02308e-06
2.54352e-06
-1.74253e-06
2.45333e-06
-1.45199e-06
2.44264e-06
-1.07082e-06
2.51878e-06
-6.29707e-07
2.68734e-06
-2.79862e-07
2.79337e-06
1.88735e-08
3.03466e-06
4.19919e-07
3.24965e-06
8.79959e-07
3.3803e-06
1.27772e-06
3.23642e-06
1.44652e-06
3.37774e-06
1.27068e-06
4.02873e-06
8.58568e-07
4.58644e-06
4.85555e-07
4.66807e-06
2.1215e-07
4.42323e-06
-1.05403e-07
4.50665e-06
-3.64862e-07
4.72208e-06
-4.60991e-07
4.84054e-06
-4.54819e-07
4.93309e-06
-3.94805e-07
4.96268e-06
-3.59984e-07
4.98243e-06
-2.72922e-07
4.88545e-06
-1.68551e-07
4.66124e-06
-1.21407e-08
4.33026e-06
2.52069e-07
3.77568e-06
6.71472e-07
3.02562e-06
1.18384e-06
2.08973e-06
1.78929e-06
1.32568e-06
2.59401e-06
1.30355e-06
3.56584e-06
1.80713e-06
4.71241e-06
2.36214e-06
5.56216e-06
3.98071e-06
5.73153e-06
6.14562e-06
5.31548e-06
7.269e-06
4.1343e-06
7.61242e-06
3.34553e-06
6.01704e-06
2.93872e-06
3.61249e-06
1.5221e-06
3.6592e-06
-7.68613e-07
5.3295e-06
-3.36729e-06
6.93427e-06
-5.65645e-06
7.90764e-06
-7.60603e-06
8.39806e-06
-9.27915e-06
8.5039e-06
-1.06685e-05
8.32462e-06
-1.17724e-05
7.90211e-06
-1.26843e-05
7.34162e-06
-1.35028e-05
6.8138e-06
-1.42778e-05
6.36113e-06
-1.49268e-05
5.87214e-06
-1.54066e-05
5.24764e-06
-1.56661e-05
4.44797e-06
-1.58038e-05
3.6363e-06
-1.58424e-05
2.93088e-06
-1.57661e-05
2.3533e-06
-1.54361e-05
1.74445e-06
-1.47518e-05
9.99074e-07
-1.38652e-05
4.10782e-07
-1.31787e-05
3.69459e-07
-1.27414e-05
5.78454e-07
-1.20632e-05
7.45359e-08
-1.07624e-05
-1.55567e-06
-1.00121e-05
3.48345e-08
-8.16352e-06
-2.44837e-06
-6.15284e-06
-3.34448e-06
-6.16053e-06
8.5561e-07
-5.18794e-06
-1.29494e-06
-2.87675e-06
-3.33057e-06
-1.60218e-06
-1.37782e-06
-8.506e-07
-2.21596e-07
7.11351e-07
-1.86891e-06
2.27713e-06
-1.65281e-06
3.13907e-06
-5.97235e-07
3.91071e-06
-5.78931e-07
5.2882e-06
-1.31326e-06
6.76423e-06
-8.65186e-07
7.75085e-06
-6.31341e-08
8.2398e-06
3.42558e-07
8.65001e-06
3.17986e-07
9.35847e-06
1.14629e-07
1.03746e-05
1.46443e-07
1.12866e-05
4.44879e-07
1.16969e-05
9.85445e-07
1.17965e-05
1.24894e-06
1.19961e-05
1.07161e-06
1.21674e-05
1.01975e-06
1.20595e-05
1.30096e-06
1.18737e-05
1.52722e-06
1.1981e-05
1.06806e-06
1.21304e-05
1.09755e-06
1.16222e-05
1.48627e-06
1.11302e-05
1.52638e-06
1.06514e-05
1.35462e-06
1.00502e-05
1.1774e-06
9.68397e-06
7.65193e-07
8.82111e-06
1.50384e-06
7.37574e-06
1.48814e-06
6.27216e-06
9.1731e-07
5.11566e-06
1.63581e-06
3.21772e-06
3.14358e-06
5.83473e-07
4.15201e-06
-1.07329e-06
1.60643e-06
-8.57884e-07
-1.61281e-06
1.65801e-06
-6.63108e-06
3.20238e-06
-2.06388e-06
3.65157e-06
-1.01253e-06
2.25049e-06
3.16873e-06
6.81104e-07
3.12178e-06
-1.29797e-06
4.02121e-06
-3.62473e-06
4.75635e-06
-6.09764e-06
4.97336e-06
-6.60351e-06
2.1887e-06
-4.64469e-06
-2.60466e-06
-3.87451e-06
1.09675e-06
-4.67352e-06
5.36444e-06
-5.26684e-06
5.34546e-06
-5.71964e-06
4.9179e-06
-4.92759e-06
2.88055e-06
-3.88822e-06
3.76196e-06
-4.11807e-06
6.38188e-06
-5.36809e-06
7.63549e-06
-6.61421e-06
7.4909e-06
-7.64423e-06
8.64881e-06
-8.72908e-06
1.02674e-05
-8.60707e-06
9.81508e-06
-6.86614e-06
6.8947e-06
-4.61381e-06
5.81374e-06
-3.24488e-06
6.48622e-06
-1.64902e-06
3.856e-06
1.02064e-07
2.81808e-06
1.3512e-06
2.20374e-06
3.20057e-06
-7.1577e-07
3.21653e-06
3.38988e-06
5.20963e-06
-9.34801e-08
1.23298e-05
-8.52593e-06
1.30203e-05
6.15522e-06
4.79694e-06
1.4159e-05
2.13329e-07
4.33712e-06
3.66582e-07
4.62314e-06
6.41783e-07
4.38457e-06
1.00282e-06
4.16896e-06
1.3558e-06
4.12451e-06
1.67928e-06
4.17756e-06
1.96963e-06
4.21447e-06
2.1923e-06
4.21338e-06
2.32075e-06
4.28118e-06
2.34874e-06
4.49968e-06
2.28621e-06
4.72181e-06
2.25448e-06
4.77951e-06
2.26928e-06
4.80636e-06
2.27459e-06
4.91589e-06
2.25787e-06
5.04847e-06
2.16759e-06
5.24907e-06
1.9216e-06
5.51085e-06
1.55486e-06
5.77463e-06
1.06847e-06
6.05283e-06
4.49055e-07
6.31828e-06
-2.60702e-07
6.56898e-06
-1.04649e-06
6.7902e-06
-1.86892e-06
6.95584e-06
-2.70149e-06
7.04881e-06
-3.48995e-06
7.05351e-06
-4.17195e-06
6.92432e-06
-4.7228e-06
6.69165e-06
-5.1116e-06
6.37008e-06
-5.36442e-06
6.02988e-06
-5.49309e-06
5.64477e-06
-5.5283e-06
5.25312e-06
-5.47382e-06
4.84677e-06
-5.38487e-06
4.5232e-06
-5.24576e-06
4.19458e-06
-5.0677e-06
3.88657e-06
-4.90806e-06
3.65649e-06
-4.7275e-06
3.48259e-06
-4.50422e-06
3.3412e-06
-4.26677e-06
3.26337e-06
-4.08136e-06
3.28854e-06
-3.92671e-06
3.30679e-06
-3.78922e-06
3.30418e-06
-3.64837e-06
3.29208e-06
-3.45343e-06
3.22072e-06
-3.19388e-06
3.08653e-06
-2.92472e-06
2.99791e-06
-2.6696e-06
3.00927e-06
-2.40222e-06
3.08783e-06
-2.05159e-06
3.20389e-06
-1.78454e-06
3.43114e-06
-1.48486e-06
3.66053e-06
-1.12066e-06
3.82756e-06
-6.04721e-07
3.84851e-06
-1.31862e-07
3.8022e-06
1.31288e-07
4.19313e-06
5.00106e-07
4.76063e-06
1.1062e-06
5.11396e-06
1.69405e-06
5.26748e-06
2.01483e-06
5.34198e-06
2.04434e-06
5.75767e-06
2.06896e-06
5.99728e-06
2.24408e-06
5.98907e-06
2.52977e-06
6.00672e-06
2.72271e-06
6.15775e-06
2.74623e-06
6.38463e-06
2.82712e-06
6.26844e-06
3.01426e-06
5.95753e-06
3.26271e-06
5.5806e-06
3.48226e-06
5.07137e-06
3.65881e-06
4.37661e-06
3.78117e-06
3.50221e-06
4.03706e-06
2.61701e-06
4.69859e-06
2.18885e-06
5.54264e-06
2.5155e-06
5.7324e-06
3.74118e-06
5.27286e-06
5.98968e-06
5.0294e-06
7.91452e-06
4.49217e-06
9.31436e-06
3.55031e-06
1.00081e-05
2.54827e-06
8.45207e-06
6.53683e-07
6.92816e-06
-2.1167e-06
7.80649e-06
-4.72073e-06
9.28258e-06
-6.8184e-06
1.03492e-05
-8.54787e-06
1.08962e-05
-9.91063e-06
1.09647e-05
-1.09953e-05
1.07473e-05
-1.18717e-05
1.02977e-05
-1.25649e-05
9.60537e-06
-1.31673e-05
8.87953e-06
-1.37103e-05
8.24738e-06
-1.41849e-05
7.70034e-06
-1.45423e-05
7.0863e-06
-1.47914e-05
6.34706e-06
-1.4989e-05
5.47673e-06
-1.5148e-05
4.59819e-06
-1.52532e-05
3.81042e-06
-1.52691e-05
3.12096e-06
-1.50274e-05
2.22583e-06
-1.44065e-05
1.0605e-06
-1.34916e-05
1.54764e-07
-1.27597e-05
3.3102e-07
-1.21186e-05
7.01046e-07
-1.07745e-05
-4.75834e-07
-9.71864e-06
-1.94958e-06
-9.56304e-06
6.24853e-07
-7.40529e-06
-3.70726e-06
-4.73356e-06
-5.26106e-06
-4.97353e-06
1.81553e-06
-4.33305e-06
-1.08985e-06
-1.93643e-06
-4.87518e-06
-6.4635e-07
-1.88331e-06
3.04469e-08
-8.06571e-08
1.59658e-06
-2.58015e-06
3.44148e-06
-2.59206e-06
4.55449e-06
-8.39577e-07
5.10384e-06
-3.44385e-07
6.04552e-06
-1.48578e-06
7.20626e-06
-1.20082e-06
8.41575e-06
-3.90074e-07
9.52592e-06
1.77817e-07
1.01719e-05
4.69167e-07
1.04587e-05
3.61661e-07
1.08926e-05
2.93522e-07
1.16527e-05
4.66629e-07
1.23266e-05
9.69591e-07
1.25019e-05
1.50587e-06
1.26108e-05
1.39946e-06
1.30975e-05
1.03995e-06
1.35236e-05
1.27812e-06
1.29954e-05
2.23972e-06
1.26206e-05
1.65415e-06
1.30034e-05
1.06799e-06
1.30429e-05
1.61557e-06
1.23221e-05
2.28716e-06