/*--------------------------------*- C++ -*----------------------------------*\
| =========                 |                                                 |
| \\      /  F ield         | OpenFOAM: The Open Source CFD Toolbox           |
|  \\    /   O peration     | Version:  dev                                   |
|   \\  /    A nd           | Web:      http://www.openfoam.org               |
|    \\/     M anipulation  |                                                 |
\*---------------------------------------------------------------------------*/
FoamFile
{
    version     2.0;
    format      ascii;
    class       surfaceScalarField;
    object      phi_0;
    location    "9.152";
}
// * * * * * * * * * * * * * * * * * * * * * * * * * * * * * * * * * * * * * //

dimensions      [1 0 -1 0 0 0 0];

internalField   nonuniform List<scalar> 
24170
(
2.39041e-06
1.68827e-06
1.87533e-06
1.26941e-06
1.76493e-06
8.01718e-07
1.8578e-06
5.47108e-07
1.91576e-06
5.24228e-07
2.01945e-06
4.33302e-07
2.01038e-06
4.94052e-07
2.09056e-06
3.64937e-07
1.98957e-06
5.0035e-07
2.04902e-06
3.06479e-07
1.86206e-06
5.12738e-07
1.93571e-06
2.26362e-07
1.56614e-06
6.33216e-07
1.8705e-06
-5.97126e-08
1.00419e-06
1.08231e-06
1.25649e-06
-6.35411e-08
5.60051e-07
8.81558e-07
1.97733e-06
-1.25651e-06
4.10704e-06
2.05429e-06
3.87992e-06
2.24469e-06
3.80439e-06
1.57437e-06
3.81582e-06
1.18059e-06
3.85794e-06
1.07373e-06
3.91812e-06
9.13694e-07
3.95075e-06
9.53039e-07
4.03258e-06
7.29148e-07
4.03261e-06
9.03534e-07
4.0286e-06
6.75747e-07
4.03838e-06
8.31127e-07
4.02135e-06
5.42395e-07
3.96478e-06
9.53512e-07
4.11498e-06
3.55725e-08
3.47954e-06
1.92873e-06
5.38827e-06
-1.77866e-06
1.93872e-06
4.51532e-06
1.46673e-06
2.61493e-06
4.87023e-06
2.17467e-06
5.08618e-06
2.85256e-06
5.28471e-06
2.14465e-06
5.47213e-06
1.70425e-06
5.54642e-06
1.65141e-06
5.59904e-06
1.45612e-06
5.65629e-06
1.43741e-06
5.71752e-06
1.15926e-06
5.66997e-06
1.39556e-06
5.87083e-06
8.78198e-07
5.61947e-06
1.44479e-06
6.02738e-06
4.64001e-07
5.46055e-06
1.81572e-06
6.18109e-06
-4.20224e-07
5.04543e-06
3.3041e-06
6.16839e-06
-2.6899e-06
5.01116e-06
5.86576e-06
2.52857e-06
4.1334e-06
5.12096e-06
2.45672e-06
5.95891e-06
2.92257e-06
6.29708e-06
2.65391e-06
6.77622e-06
2.0081e-06
6.9307e-06
2.21369e-06
7.2067e-06
1.83402e-06
7.23392e-06
2.00418e-06
7.43237e-06
1.50091e-06
7.30039e-06
2.01354e-06
7.63512e-06
9.84886e-07
7.27854e-06
2.19931e-06
7.66568e-06
4.37731e-07
6.98831e-06
2.81618e-06
7.65312e-06
-7.93341e-07
6.69371e-06
4.52605e-06
7.25189e-06
-3.0141e-06
7.4476e-06
5.88094e-06
1.78643e-06
8.34873e-06
5.47466e-06
2.99839e-06
6.60595e-06
2.79008e-06
6.85811e-06
3.33495e-06
7.48863e-06
2.23865e-06
7.66606e-06
2.8231e-06
8.23531e-06
1.98133e-06
8.24629e-06
2.64535e-06
8.61921e-06
1.72119e-06
8.41015e-06
2.7547e-06
8.82323e-06
1.05188e-06
8.54372e-06
2.91555e-06
8.75074e-06
6.27913e-07
8.4268e-06
3.49212e-06
8.38776e-06
-4.34109e-07
8.57079e-06
4.62706e-06
7.67219e-06
-1.86151e-06
8.30281e-06
5.47921e-06
1.61843e-06
8.66899e-06
5.98572e-06
3.59328e-06
7.13531e-06
2.73903e-06
7.42628e-06
4.07008e-06
7.92625e-06
2.68284e-06
8.1322e-06
3.47911e-06
8.81136e-06
2.08862e-06
8.89419e-06
3.27968e-06
9.20657e-06
2.05643e-06
9.18689e-06
3.35451e-06
9.46534e-06
1.30041e-06
9.46026e-06
3.40324e-06
9.49352e-06
1.02802e-06
9.62453e-06
3.74442e-06
9.10341e-06
4.34879e-07
9.98429e-06
4.06096e-06
8.23559e-06
1.66949e-07
9.97803e-06
3.98683e-06
2.57417e-06
9.25341e-06
6.81063e-06
3.95011e-06
7.74325e-06
3.01198e-06
8.10136e-06
4.83749e-06
8.68445e-06
3.1327e-06
8.94558e-06
4.16158e-06
9.50348e-06
2.39275e-06
9.72355e-06
3.84385e-06
1.00512e-05
2.43302e-06
1.02445e-05
3.79671e-06
1.03082e-05
1.81543e-06
1.05698e-05
3.66736e-06
1.04365e-05
1.63078e-06
1.08447e-05
3.7538e-06
1.01532e-05
1.50457e-06
1.08254e-05
3.73437e-06
9.62329e-06
1.67969e-06
1.04233e-05
3.46219e-06
3.62489e-06
9.62701e-06
5.40264e-06
4.25367e-06
5.99831e-06
3.35222e-06
6.36235e-06
5.34615e-06
6.82568e-06
3.46938e-06
7.13605e-06
4.58309e-06
7.39176e-06
2.80572e-06
7.64181e-06
4.19917e-06
7.85867e-06
2.76028e-06
8.12694e-06
4.02065e-06
8.07217e-06
2.31569e-06
8.30829e-06
3.83413e-06
8.10885e-06
2.19167e-06
8.47506e-06
3.71106e-06
8.0029e-06
2.26752e-06
8.39521e-06
3.60701e-06
7.71604e-06
2.5964e-06
7.98962e-06
3.4007e-06
3.82137e-06
7.9847e-06
6.21822e-06
4.65002e-06
6.86937e-06
3.78518e-06
7.50558e-06
5.71854e-06
7.97221e-06
3.92957e-06
8.41151e-06
4.99047e-06
8.60942e-06
3.3796e-06
8.9832e-06
4.52273e-06
9.1492e-06
3.22118e-06
9.47765e-06
4.25815e-06
9.40089e-06
2.90556e-06
9.6783e-06
4.02058e-06
9.42771e-06
2.85677e-06
9.72287e-06
3.78724e-06
9.35205e-06
2.9724e-06
9.66858e-06
3.59125e-06
9.18922e-06
3.34482e-06
9.29392e-06
3.53905e-06
4.0208e-06
9.31489e-06
7.44059e-06
5.05327e-06
7.947e-06
4.52737e-06
8.71894e-06
6.11319e-06
9.17993e-06
4.53901e-06
9.79091e-06
5.35416e-06
1.00316e-05
4.02547e-06
1.04881e-05
4.86718e-06
1.06406e-05
3.78956e-06
1.10175e-05
4.53184e-06
1.09475e-05
3.56258e-06
1.12484e-05
4.24569e-06
1.10359e-05
3.54058e-06
1.1275e-05
3.97069e-06
1.10313e-05
3.59402e-06
1.11675e-05
3.79433e-06
1.09643e-05
3.85305e-06
1.09066e-05
3.87545e-06
4.16866e-06
1.10109e-05
8.64566e-06
5.41495e-06
9.24496e-06
5.36843e-06
1.0271e-05
6.4259e-06
1.07896e-05
5.24488e-06
1.15492e-05
5.71575e-06
1.18169e-05
4.77404e-06
1.23254e-05
5.26985e-06
1.24564e-05
4.47846e-06
1.2819e-05
4.91152e-06
1.27739e-05
4.2745e-06
1.30578e-05
4.55618e-06
1.29094e-05
4.22163e-06
1.30779e-05
4.27691e-06
1.29678e-05
4.12533e-06
1.29751e-05
4.1661e-06
1.29274e-05
4.24348e-06
1.28968e-05
4.21607e-06
4.35777e-06
1.29832e-05
1.00928e-05
5.89441e-06
1.07257e-05
6.3777e-06
1.18329e-05
6.84529e-06
1.24212e-05
6.05979e-06
1.3253e-05
6.15689e-06
1.36491e-05
5.52929e-06
1.42581e-05
5.69781e-06
1.44892e-05
5.17755e-06
1.48819e-05
5.3504e-06
1.49293e-05
4.9742e-06
1.52041e-05
4.94814e-06
1.52276e-05
4.78571e-06
1.53533e-05
4.67231e-06
1.53392e-05
4.6056e-06
1.53676e-05
4.55836e-06
1.54037e-05
4.58254e-06
1.53577e-05
4.59336e-06
4.63556e-06
1.53754e-05
1.1515e-05
6.38753e-06
1.23873e-05
7.36823e-06
1.36368e-05
7.32662e-06
1.44083e-05
6.87454e-06
1.52935e-05
6.70939e-06
1.58548e-05
6.26159e-06
1.64942e-05
6.21996e-06
1.68552e-05
5.85783e-06
1.7312e-05
5.81991e-06
1.75144e-05
5.59423e-06
1.77676e-05
5.41957e-06
1.791e-05
5.28469e-06
1.80033e-05
5.14985e-06
1.80424e-05
5.07283e-06
1.80286e-05
5.01792e-06
1.80181e-05
4.98734e-06
1.79847e-05
4.98389e-06
4.97135e-06
1.79681e-05
1.34996e-05
6.98965e-06
1.46708e-05
8.28334e-06
1.59799e-05
7.95351e-06
1.69677e-05
7.65629e-06
1.78725e-05
7.40209e-06
1.85746e-05
6.99718e-06
1.93064e-05
6.77146e-06
1.98438e-05
6.45843e-06
2.03898e-05
6.28132e-06
2.07609e-05
6.10808e-06
2.10261e-05
5.93061e-06
2.12322e-05
5.76237e-06
2.13165e-05
5.66251e-06
2.13645e-05
5.54917e-06
2.13872e-05
5.45636e-06
2.14082e-05
5.37127e-06
2.14119e-05
5.33363e-06
5.26759e-06
2.14255e-05
1.53999e-05
7.12585e-06
1.7044e-05
8.93371e-06
1.84762e-05
8.64852e-06
1.96897e-05
8.3804e-06
2.07574e-05
8.07875e-06
2.16364e-05
7.67602e-06
2.24681e-05
7.31945e-06
2.31445e-05
6.99623e-06
2.37381e-05
6.74859e-06
2.42202e-05
6.54987e-06
2.45785e-05
6.37369e-06
2.48159e-05
6.21491e-06
2.49868e-05
6.08827e-06
2.50837e-05
5.96739e-06
2.51341e-05
5.8458e-06
2.51688e-05
5.71477e-06
2.52009e-05
5.62743e-06
5.51804e-06
2.52319e-05
1.81935e-05
7.90578e-06
1.99576e-05
9.63688e-06
2.16811e-05
9.1966e-06
2.32642e-05
8.85735e-06
2.46679e-05
8.51882e-06
2.58279e-05
8.14654e-06
2.67881e-05
7.78601e-06
2.75581e-05
7.46496e-06
2.81695e-05
7.20371e-06
2.86317e-05
6.9965e-06
2.89548e-05
6.81954e-06
2.91646e-05
6.65088e-06
2.92863e-05
6.50577e-06
2.93638e-05
6.33687e-06
2.93865e-05
6.19122e-06
2.93753e-05
6.02446e-06
2.93735e-05
5.86874e-06
5.69062e-06
2.93945e-05
2.12887e-05
8.30723e-06
2.34144e-05
1.00282e-05
2.5431e-05
9.49265e-06
2.72639e-05
9.11245e-06
2.88761e-05
8.7543e-06
3.02447e-05
8.38697e-06
3.13943e-05
8.02146e-06
3.23396e-05
7.69325e-06
3.30959e-05
7.42494e-06
3.36836e-05
7.2101e-06
3.41174e-05
7.03219e-06
3.44226e-05
6.85765e-06
3.46384e-05
6.68308e-06
3.47592e-05
6.50711e-06
3.48348e-05
6.32006e-06
3.48604e-05
6.12879e-06
3.48511e-05
5.94927e-06
5.73958e-06
3.48266e-05
2.13417e-05
8.42767e-06
2.36152e-05
9.85169e-06
2.58131e-05
9.21758e-06
2.77958e-05
8.85009e-06
2.94866e-05
8.55717e-06
3.08729e-05
8.27298e-06
3.19952e-05
7.96049e-06
3.28825e-05
7.66131e-06
3.35777e-05
7.39632e-06
3.41195e-05
7.16657e-06
3.45456e-05
6.95893e-06
3.48893e-05
6.74212e-06
3.51553e-05
6.53041e-06
3.53652e-05
6.31645e-06
3.5523e-05
6.10087e-06
3.56225e-05
5.90304e-06
3.56807e-05
5.71752e-06
5.5146e-06
3.56934e-05
1.93216e-05
7.70912e-06
2.12935e-05
9.33403e-06
2.31178e-05
8.72549e-06
2.4821e-05
8.32182e-06
2.63397e-05
8.0274e-06
2.76425e-05
7.77848e-06
2.87253e-05
7.51336e-06
2.95965e-05
7.25023e-06
3.02913e-05
7.00356e-06
3.08449e-05
6.77334e-06
3.12945e-05
6.55169e-06
3.16572e-05
6.32292e-06
3.19346e-05
6.10024e-06
3.21323e-05
5.89081e-06
3.2255e-05
5.68302e-06
3.23206e-05
5.49297e-06
3.23142e-05
5.34521e-06
5.17302e-06
3.22517e-05
1.72258e-05
6.96893e-06
1.9068e-05
8.47801e-06
2.07457e-05
7.93401e-06
2.22378e-05
7.58969e-06
2.35689e-05
7.30054e-06
2.47559e-05
7.04892e-06
2.57765e-05
6.80828e-06
2.66111e-05
6.57808e-06
2.72765e-05
6.36968e-06
2.77976e-05
6.16572e-06
2.82104e-05
5.95879e-06
2.85274e-05
5.74647e-06
2.87463e-05
5.54213e-06
2.88969e-05
5.33953e-06
2.89664e-05
5.15714e-06
2.89865e-05
4.98158e-06
2.89583e-05
4.85666e-06
4.70463e-06
2.88961e-05
1.51604e-05
6.48844e-06
1.66977e-05
7.57542e-06
1.82183e-05
6.97105e-06
1.96226e-05
6.63851e-06
2.0883e-05
6.36205e-06
2.20171e-05
6.11922e-06
2.29866e-05
5.92031e-06
2.37636e-05
5.75199e-06
2.43837e-05
5.59801e-06
2.48614e-05
5.44046e-06
2.52161e-05
5.2791e-06
2.54936e-05
5.07533e-06
2.57003e-05
4.87644e-06
2.58483e-05
4.68247e-06
2.59397e-05
4.51201e-06
2.59678e-05
4.37451e-06
2.59851e-05
4.24042e-06
4.11103e-06
2.59725e-05
1.38801e-05
5.25568e-06
1.52992e-05
6.53872e-06
1.66087e-05
5.98369e-06
1.78585e-05
5.6247e-06
1.89857e-05
5.36336e-06
1.99716e-05
5.16063e-06
2.07836e-05
5.02978e-06
2.14231e-05
4.93261e-06
2.19412e-05
4.81535e-06
2.23569e-05
4.67667e-06
2.27084e-05
4.51279e-06
2.29828e-05
4.32613e-06
2.31853e-05
4.14937e-06
2.33304e-05
3.97337e-06
2.34153e-05
3.82859e-06
2.34481e-05
3.7234e-06
2.34452e-05
3.60804e-06
3.50654e-06
2.34108e-05
1.24611e-05
4.60617e-06
1.38146e-05
5.40072e-06
1.50327e-05
4.92624e-06
1.60985e-05
4.64854e-06
1.70267e-05
4.43635e-06
1.78249e-05
4.27474e-06
1.85324e-05
4.14882e-06
1.91524e-05
4.05778e-06
1.96824e-05
3.95291e-06
2.01203e-05
3.83484e-06
2.04632e-05
3.70992e-06
2.07104e-05
3.56912e-06
2.08747e-05
3.43693e-06
2.09379e-05
3.32973e-06
2.09652e-05
3.19492e-06
2.09637e-05
3.10265e-06
2.09356e-05
3.0005e-06
2.89474e-06
2.09087e-05
1.10203e-05
3.73061e-06
1.22663e-05
4.25646e-06
1.34152e-05
3.83386e-06
1.44348e-05
3.62417e-06
1.53136e-05
3.47878e-06
1.6057e-05
3.37741e-06
1.66865e-05
3.28996e-06
1.72141e-05
3.23086e-06
1.76436e-05
3.16012e-06
1.7997e-05
3.06145e-06
1.82742e-05
2.96431e-06
1.84766e-05
2.85475e-06
1.86116e-05
2.75601e-06
1.86792e-05
2.68831e-06
1.87032e-05
2.57723e-06
1.87048e-05
2.49384e-06
1.86836e-05
2.40639e-06
2.2986e-06
1.86628e-05
9.79101e-06
2.7644e-06
1.11074e-05
2.97117e-06
1.22736e-05
2.65866e-06
1.32682e-05
2.56644e-06
1.40875e-05
2.53373e-06
1.47425e-05
2.53271e-06
1.52537e-05
2.52624e-06
1.56585e-05
2.51414e-06
1.59996e-05
2.45233e-06
1.62957e-05
2.34985e-06
1.6548e-05
2.25317e-06
1.67559e-05
2.15174e-06
1.6902e-05
2.08507e-06
1.70075e-05
2.03436e-06
1.70477e-05
1.97247e-06
1.70543e-05
1.91161e-06
1.70334e-05
1.84672e-06
1.74911e-06
1.70009e-05
8.90061e-06
1.78416e-06
1.00021e-05
1.85842e-06
1.09477e-05
1.66621e-06
1.17599e-05
1.66174e-06
1.24642e-05
1.68312e-06
1.30568e-05
1.73882e-06
1.35374e-05
1.79076e-06
1.39398e-05
1.80536e-06
1.42771e-05
1.76112e-06
1.45615e-05
1.66848e-06
1.47943e-05
1.58606e-06
1.49593e-05
1.52134e-06
1.50839e-05
1.46945e-06
1.51687e-05
1.4391e-06
1.52069e-05
1.40943e-06
1.52142e-05
1.37059e-06
1.52023e-05
1.32038e-06
1.24827e-06
1.51648e-05
7.88934e-06
1.18105e-06
8.93085e-06
7.8303e-07
9.8259e-06
7.05635e-07
1.05617e-05
8.20684e-07
1.11655e-05
9.27802e-07
1.16672e-05
1.03772e-06
1.20785e-05
1.13287e-06
1.24213e-05
1.17084e-06
1.26946e-05
1.15482e-06
1.2894e-05
1.0995e-06
1.30206e-05
1.0583e-06
1.30859e-05
1.02839e-06
1.31018e-05
1.0038e-06
1.30867e-05
9.87069e-07
1.30478e-05
9.6885e-07
1.29878e-05
9.43177e-07
1.29124e-05
9.05075e-07
8.59105e-07
1.28111e-05
7.24306e-06
2.59374e-07
8.19158e-06
-2.11303e-07
8.82852e-06
-3.61563e-09
9.28233e-06
2.60629e-07
9.60249e-06
4.61099e-07
9.85742e-06
5.94486e-07
1.00738e-05
6.86859e-07
1.02516e-05
7.24289e-07
1.03758e-05
7.25818e-07
1.04339e-05
7.04525e-07
1.04403e-05
6.86919e-07
1.04037e-05
6.75937e-07
1.03373e-05
6.61025e-07
1.02529e-05
6.46789e-07
1.01537e-05
6.32275e-07
1.0037e-05
6.17138e-07
9.90208e-06
5.94327e-07
5.76185e-07
9.73944e-06
6.4343e-06
-4.98315e-07
6.74552e-06
-5.70814e-07
6.85935e-06
-1.89326e-07
6.93721e-06
8.13022e-08
7.00227e-06
2.59684e-07
7.07682e-06
3.47008e-07
7.16259e-06
3.9178e-07
7.24642e-06
3.96261e-07
7.30127e-06
3.94178e-07
7.32027e-06
3.79278e-07
7.30846e-06
3.6639e-07
7.27589e-06
3.5415e-07
7.2226e-06
3.42001e-07
7.1479e-06
3.35543e-07
7.05765e-06
3.26891e-07
6.95127e-06
3.22188e-07
6.83828e-06
3.03254e-07
3.13891e-07
6.6969e-06
4.29657e-06
3.69085e-06
3.44178e-06
3.43397e-06
3.57156e-06
3.76216e-06
3.96342e-06
4.1365e-06
4.27727e-06
4.37611e-06
4.4386e-06
4.46929e-06
4.47213e-06
4.45666e-06
4.42424e-06
4.38221e-06
4.319e-06
4.26775e-06
2.57895e-07
6.6761e-07
4.85897e-07
7.24916e-07
7.23767e-07
7.09779e-07
1.00049e-06
6.72272e-07
1.30183e-06
6.47758e-07
1.61744e-06
6.31423e-07
1.94506e-06
6.15726e-07
2.286e-06
5.97525e-07
2.63067e-06
5.87985e-07
2.9577e-06
5.9822e-07
3.25459e-06
6.18929e-07
3.51338e-06
6.45999e-07
3.73685e-06
6.6878e-07
3.93099e-06
6.85045e-07
4.09613e-06
6.99406e-07
4.21113e-06
7.32952e-07
4.255e-06
7.85148e-07
4.222e-06
8.41331e-07
4.11654e-06
8.9194e-07
3.94263e-06
9.37739e-07
3.71409e-06
9.6708e-07
3.42825e-06
9.99652e-07
3.08252e-06
1.0341e-06
2.69014e-06
1.05482e-06
2.2604e-06
1.06583e-06
1.80359e-06
1.06751e-06
1.33017e-06
1.05904e-06
8.46388e-07
1.04461e-06
3.61432e-07
1.02113e-06
-1.119e-07
9.84855e-07
-5.69564e-07
9.45266e-07
-9.99852e-07
8.9523e-07
-1.4022e-06
8.46393e-07
-1.75377e-06
7.76628e-07
-2.06379e-06
7.18709e-07
-2.34419e-06
6.75454e-07
-2.60915e-06
6.49322e-07
-2.87159e-06
6.39251e-07
-3.14296e-06
6.44659e-07
-3.44444e-06
6.75713e-07
-3.77828e-06
7.13223e-07
-4.14718e-06
7.58238e-07
-4.58303e-06
8.38497e-07
-5.06875e-06
8.98005e-07
-5.48454e-06
8.32076e-07
-5.78905e-06
7.28861e-07
-5.96247e-06
6.29895e-07
-6.10303e-06
6.49718e-07
-6.2851e-06
7.3085e-07
-6.44586e-06
7.45787e-07
-6.67771e-06
8.67898e-07
-7.00825e-06
1.00858e-06
-7.30892e-06
1.01903e-06
-7.41692e-06
8.8619e-07
-7.35755e-06
7.85439e-07
-7.36278e-06
9.08141e-07
-7.44732e-06
1.04513e-06
-7.65651e-06
1.23328e-06
-7.83778e-06
1.27131e-06
-8.07757e-06
1.39427e-06
-8.37125e-06
1.51984e-06
-8.66124e-06
1.59457e-06
-8.94427e-06
1.66678e-06
-9.19505e-06
1.71409e-06
-9.39102e-06
1.72544e-06
-9.54895e-06
1.74377e-06
-9.59621e-06
1.6873e-06
-9.4798e-06
1.5756e-06
-9.09686e-06
1.36177e-06
-8.28406e-06
9.83509e-07
-6.94925e-06
5.07225e-07
-5.24279e-06
1.7855e-07
-3.65987e-06
3.3115e-07
-2.43536e-06
7.05531e-07
-1.89676e-06
1.43198e-06
-2.59003e-06
2.68357e-06
-3.99793e-06
3.3622e-06
-5.08688e-06
3.00632e-06
-5.4934e-06
2.3324e-06
-5.25994e-06
1.70364e-06
-4.23977e-06
9.12151e-07
-2.92299e-06
6.06911e-07
-1.88793e-06
8.77844e-07
-1.18679e-06
1.19232e-06
-7.60672e-07
1.43346e-06
-7.33977e-07
1.77783e-06
-1.35397e-06
2.3716e-06
-2.6546e-06
3.01576e-06
-4.34043e-06
3.36836e-06
-6.08909e-06
3.402e-06
-7.72395e-06
3.25369e-06
-9.14148e-06
2.995e-06
-1.04011e-05
2.79625e-06
-1.15314e-05
2.62691e-06
-1.24948e-05
2.41768e-06
-1.32175e-05
2.13249e-06
-1.36812e-05
1.82986e-06
-1.39495e-05
1.59657e-06
-1.4051e-05
1.39949e-06
-1.40028e-05
1.2247e-06
-1.37892e-05
1.0314e-06
-1.33848e-05
8.05962e-07
-1.29143e-05
7.06433e-07
-1.24067e-05
6.57326e-07
-1.1473e-05
2.48447e-07
-1.10514e-05
7.83622e-07
-9.8042e-06
-7.88363e-08
-8.03012e-06
-6.13805e-07
-7.47326e-06
6.45876e-07
-6.37019e-06
1.09739e-07
-5.01443e-06
-1.35076e-07
-3.88322e-06
1.13569e-07
-3.03576e-06
4.2342e-07
-1.8502e-06
1.07227e-07
-7.19037e-07
1.84869e-07
2.93544e-07
3.2651e-07
1.30202e-06
3.52005e-07
2.30821e-06
3.68878e-07
3.10528e-06
5.84529e-07
3.7813e-06
7.07898e-07
4.43428e-06
7.25753e-07
5.05071e-06
7.43812e-07
5.58501e-06
7.95037e-07
5.92531e-06
9.54889e-07
6.15453e-06
1.02579e-06
6.30293e-06
1.0578e-06
6.33582e-06
1.1201e-06
6.32138e-06
1.10542e-06
6.23708e-06
1.10777e-06
6.11718e-06
1.07353e-06
5.92371e-06
1.0741e-06
5.77122e-06
9.47737e-07
5.5147e-06
9.65635e-07
5.23356e-06
8.82965e-07
4.83677e-06
8.85228e-07
4.47245e-06
7.29858e-07
4.06929e-06
6.47466e-07
3.50069e-06
7.02621e-07
2.95125e-06
5.4319e-07
2.32913e-06
4.76742e-07
1.64892e-06
4.87062e-07
6.3004e-07
7.20757e-07
-5.47411e-07
7.8728e-07
-1.81704e-06
8.16995e-07
-2.50768e-06
1.71388e-07
-2.97641e-06
-8.61776e-08
-1.89543e-06
-1.66164e-06
-3.15726e-06
7.63455e-07
-4.02829e-06
4.16547e-07
-5.43242e-06
1.04103e-06
-6.52134e-06
8.38066e-07
-7.66629e-06
1.02558e-06
-8.69926e-06
1.05029e-06
-9.38676e-06
8.47081e-07
-9.89227e-06
8.67804e-07
-9.12574e-06
-1.18226e-07
-9.2196e-06
1.02614e-06
-9.85549e-06
1.78286e-06
-1.02861e-05
1.77164e-06
-1.0354e-05
1.66824e-06
-9.95936e-06
1.53748e-06
-9.80999e-06
1.97341e-06
-9.59055e-06
1.98495e-06
-9.00776e-06
1.83898e-06
-7.90983e-06
1.63297e-06
-7.05356e-06
2.11997e-06
-6.91501e-06
3.06407e-06
-7.40556e-06
3.99698e-06
-7.17381e-06
3.70417e-06
-6.08388e-06
2.90251e-06
-4.87183e-06
2.77434e-06
-2.9546e-06
2.03318e-06
-1.15097e-06
1.96165e-06
8.9949e-07
1.52636e-06
3.43503e-06
8.42811e-07
4.67072e-06
2.00346e-06
5.89359e-06
1.83991e-06
8.64016e-06
6.58584e-08
8.41342e-06
2.93787e-06
2.90603e-06
8.12893e-06
1.89094e-07
1.38796e-06
3.76936e-07
1.47541e-06
5.99992e-07
1.41724e-06
8.75528e-07
1.33075e-06
1.16924e-06
1.28991e-06
1.4611e-06
1.27504e-06
1.76812e-06
1.24143e-06
2.10828e-06
1.18926e-06
2.47053e-06
1.15546e-06
2.80944e-06
1.18549e-06
3.11007e-06
1.23677e-06
3.37973e-06
1.28535e-06
3.58495e-06
1.36313e-06
3.71832e-06
1.44087e-06
3.77941e-06
1.51191e-06
3.77441e-06
1.58951e-06
3.72296e-06
1.66409e-06
3.6191e-06
1.74777e-06
3.45404e-06
1.83471e-06
3.23562e-06
1.91147e-06
2.93499e-06
2.00038e-06
2.56042e-06
2.08449e-06
2.11367e-06
2.16787e-06
1.60282e-06
2.22945e-06
1.04127e-06
2.26758e-06
4.25872e-07
2.29906e-06
-2.24467e-07
2.2992e-06
-8.8537e-07
2.26543e-06
-1.52946e-06
2.19605e-06
-2.14149e-06
2.10172e-06
-2.68789e-06
1.97196e-06
-3.16123e-06
1.82407e-06
-3.55114e-06
1.6702e-06
-3.85084e-06
1.49198e-06
-4.0774e-06
1.34491e-06
-4.23285e-06
1.21687e-06
-4.33447e-06
1.12553e-06
-4.40994e-06
1.08051e-06
-4.46549e-06
1.06195e-06
-4.49197e-06
1.0653e-06
-4.50098e-06
1.09029e-06
-4.4963e-06
1.12985e-06
-4.46158e-06
1.19384e-06
-4.38057e-06
1.22531e-06
-4.25737e-06
1.13622e-06
-4.13723e-06
1.0526e-06
-4.10258e-06
1.05684e-06
-4.16926e-06
1.22207e-06
-4.34391e-06
1.45808e-06
-4.50487e-06
1.48307e-06
-4.68132e-06
1.68413e-06
-4.94886e-06
1.99766e-06
-5.38473e-06
2.18662e-06
-5.73776e-06
1.98768e-06
-6.00035e-06
1.88783e-06
-6.34579e-06
2.18598e-06
-6.83293e-06
2.5157e-06
-7.24246e-06
2.66362e-06
-7.4101e-06
2.52026e-06
-7.41496e-06
2.54091e-06
-7.52338e-06
2.82897e-06
-7.77925e-06
3.13701e-06
-8.09281e-06
3.35897e-06
-8.35804e-06
3.46276e-06
-8.52641e-06
3.45713e-06
-8.60601e-06
3.42445e-06
-8.52071e-06
3.24294e-06
-8.24368e-06
2.98817e-06
-7.7066e-06
2.56182e-06
-6.92416e-06
1.98857e-06
-5.73421e-06
1.15622e-06
-4.16934e-06
4.91149e-07
-2.6425e-06
6.97897e-07
-1.42558e-06
1.4025e-06
-2.20668e-07
2.17563e-06
8.76157e-07
3.57756e-06
1.02823e-06
5.20729e-06
1.35968e-07
5.8662e-06
-1.16568e-06
5.57338e-06
-2.01694e-06
4.45915e-06
-1.59487e-06
2.3925e-06
-5.50165e-07
1.46545e-06
-1.30497e-07
2.35985e-06
-8.31712e-07
3.77735e-06
-2.68358e-06
5.14651e-06
-5.11812e-06
6.04933e-06
-7.44998e-06
6.5074e-06
-9.37407e-06
6.70355e-06
-1.09526e-05
6.65668e-06
-1.22654e-05
6.3709e-06
-1.33946e-05
5.99526e-06
-1.44333e-05
5.61431e-06
-1.53511e-05
5.26757e-06
-1.60475e-05
4.83599e-06
-1.64834e-05
4.30208e-06
-1.66552e-05
3.67633e-06
-1.66522e-05
3.13182e-06
-1.65032e-05
2.71398e-06
-1.62278e-05
2.38145e-06
-1.57332e-05
1.99018e-06
-1.50462e-05
1.58787e-06
-1.43707e-05
1.32489e-06
-1.38069e-05
1.28035e-06
-1.31112e-05
1.0756e-06
-1.18669e-05
1.2425e-07
-1.09506e-05
1.11228e-06
-9.48953e-06
-3.37468e-07
-7.88401e-06
-1.12326e-06
-7.23165e-06
1.15122e-06
-5.95473e-06
4.03019e-08
-4.12098e-06
-7.57972e-07
-2.96362e-06
1.83743e-07
-2.09512e-06
8.12204e-07
-7.03631e-07
7.23476e-10
5.70168e-07
2.1272e-07
1.62507e-06
5.89645e-07
2.7907e-06
5.34699e-07
4.2016e-06
3.53587e-07
5.30502e-06
8.61603e-07
6.05524e-06
1.28853e-06
6.73723e-06
1.3804e-06
7.53682e-06
1.33123e-06
8.46511e-06
1.27935e-06
9.28301e-06
1.4959e-06
9.7737e-06
1.81373e-06
9.97409e-06
2.04457e-06
1.01148e-05
2.07269e-06
1.02222e-05
2.05297e-06
1.03534e-05
2.03514e-06
1.04095e-05
2.04188e-06
1.0241e-05
2.17189e-06
1.00455e-05
1.96071e-06
9.70102e-06
2.03335e-06
9.36978e-06
1.8652e-06
8.8154e-06
1.99015e-06
8.14978e-06
1.79112e-06
7.56996e-06
1.46942e-06
6.99777e-06
1.38189e-06
5.73337e-06
1.76826e-06
4.84468e-06
1.18927e-06
4.18682e-06
8.69719e-07
3.07332e-06
1.4916e-06
1.1966e-06
2.24465e-06
-8.95599e-07
2.41242e-06
-2.12377e-06
8.00275e-07
-2.05157e-06
-7.51462e-07
-9.2604e-08
-4.05217e-06
-3.5054e-07
4.29174e-07
-8.99901e-07
4.21856e-07
-2.76584e-06
2.47369e-06
-4.45368e-06
2.18561e-06
-6.13106e-06
2.48305e-06
-7.862e-06
2.67222e-06
-9.61339e-06
2.5509e-06
-9.94879e-06
1.36575e-06
-8.30876e-06
-1.19277e-06
-7.77552e-06
1.39568e-06
-8.4662e-06
3.71761e-06
-8.90576e-06
3.68361e-06
-8.88261e-06
3.23904e-06
-7.93888e-06
2.5064e-06
-7.15833e-06
3.51823e-06
-7.45938e-06
4.6941e-06
-7.9984e-06
4.88187e-06
-8.07149e-06
4.56716e-06
-8.35271e-06
5.61427e-06
-8.93601e-06
7.16479e-06
-9.10849e-06
8.10632e-06
-7.96869e-06
6.91282e-06
-6.44865e-06
6.1794e-06
-5.2073e-06
6.11105e-06
-3.14789e-06
4.26142e-06
-9.98945e-07
3.89076e-06
1.11601e-06
3.25773e-06
4.21682e-06
1.2136e-06
5.76519e-06
4.06532e-06
8.34635e-06
2.62238e-06
1.32494e-05
-1.78072e-06
1.17784e-05
7.15675e-06
6.17512e-06
1.17565e-05
1.99754e-07
2.06024e-06
3.59604e-07
2.21837e-06
5.87542e-07
2.08738e-06
8.97584e-07
1.92818e-06
1.24701e-06
1.85155e-06
1.5788e-06
1.85591e-06
1.89896e-06
1.8343e-06
2.26169e-06
1.74412e-06
2.63018e-06
1.70913e-06
2.88788e-06
1.84625e-06
2.99953e-06
2.02528e-06
3.03964e-06
2.12508e-06
3.07086e-06
2.19372e-06
3.04807e-06
2.2969e-06
2.9691e-06
2.39181e-06
2.84475e-06
2.49432e-06
2.68865e-06
2.5866e-06
2.46858e-06
2.7263e-06
2.16312e-06
2.88782e-06
1.7707e-06
3.0368e-06
1.28113e-06
3.20553e-06
6.78797e-07
3.37618e-06
-1.97961e-08
3.53017e-06
-8.10132e-07
3.65449e-06
-1.67062e-06
3.73414e-06
-2.54184e-06
3.74232e-06
-3.37412e-06
3.67733e-06
-4.12387e-06
3.53564e-06
-4.79176e-06
3.3528e-06
-5.34488e-06
3.11253e-06
-5.7832e-06
2.84666e-06
-6.09188e-06
2.55008e-06
-6.31577e-06
2.28495e-06
-6.49056e-06
2.0351e-06
-6.58703e-06
1.7934e-06
-6.60094e-06
1.57208e-06
-6.58824e-06
1.4452e-06
-6.55725e-06
1.37449e-06
-6.51136e-06
1.33506e-06
-6.46652e-06
1.33503e-06
-6.41551e-06
1.35364e-06
-6.32964e-06
1.36667e-06
-6.18372e-06
1.38828e-06
-5.99636e-06
1.39865e-06
-5.83505e-06
1.349e-06
-5.68437e-06
1.28659e-06
-5.525e-06
1.30746e-06
-5.26373e-06
1.41867e-06
-4.92488e-06
1.63246e-06
-4.67295e-06
1.77457e-06
-4.48151e-06
2.0538e-06
-4.17719e-06
2.3221e-06
-3.79225e-06
2.51751e-06
-3.46321e-06
2.41919e-06
-3.35764e-06
2.58393e-06
-3.58653e-06
3.28301e-06
-4.03557e-06
3.92337e-06
-4.44045e-06
4.09136e-06
-4.7596e-06
3.9063e-06
-5.12638e-06
4.03705e-06
-5.43082e-06
4.30696e-06
-5.55645e-06
4.49018e-06
-5.55921e-06
4.65457e-06
-5.49076e-06
4.76285e-06
-5.42685e-06
4.8673e-06
-5.29425e-06
4.84534e-06
-5.14132e-06
4.68486e-06
-4.93232e-06
4.41852e-06
-4.60148e-06
3.92677e-06
-4.09399e-06
3.2275e-06
-3.47688e-06
2.32361e-06
-2.73613e-06
1.57238e-06
-1.78458e-06
1.59105e-06
-6.59071e-07
2.13846e-06
6.533e-07
2.76496e-06
1.67577e-06
4.48878e-06
2.05676e-06
6.78044e-06
1.86387e-06
8.0315e-06
8.51591e-07
8.51494e-06
2.08896e-07
6.99501e-06
-6.75461e-08
4.57699e-06
-1.33336e-06
4.6347e-06
-3.46915e-06
6.37751e-06
-5.89373e-06
8.06086e-06
-7.99203e-06
9.09338e-06
-9.72868e-06
9.63186e-06
-1.11892e-05
9.77265e-06
-1.23702e-05
9.61587e-06
-1.32695e-05
9.21099e-06
-1.39819e-05
8.66345e-06
-1.46065e-05
8.14627e-06
-1.52006e-05
7.71229e-06
-1.56857e-05
7.25231e-06
-1.60204e-05
6.66138e-06
-1.61498e-05
5.88218e-06
-1.61703e-05
5.07396e-06
-1.61065e-05
4.36115e-06
-1.59507e-05
3.78637e-06
-1.55675e-05
3.19189e-06
-1.48389e-05
2.44762e-06
-1.38876e-05
1.82442e-06
-1.31274e-05
1.7578e-06
-1.26666e-05
2.02043e-06
-1.20207e-05
1.60605e-06
-1.07358e-05
-1.06715e-07
-1.00216e-05
1.5367e-06
-8.22826e-06
-8.80638e-07
-6.22949e-06
-1.95218e-06
-6.25894e-06
2.33494e-06
-5.35743e-06
3.1417e-07
-3.11985e-06
-1.78683e-06
-1.88795e-06
1.73958e-07
-1.18664e-06
1.36222e-06
3.35759e-07
-2.37015e-07
1.83728e-06
2.1503e-08
2.666e-06
1.06606e-06
3.4284e-06
1.07048e-06
4.80101e-06
3.53078e-07
6.27407e-06
8.49099e-07
7.26295e-06
1.6836e-06
7.7864e-06
2.0847e-06
8.2604e-06
2.04388e-06
9.04719e-06
1.83012e-06
1.01332e-05
1.8865e-06
1.11038e-05
2.22776e-06
1.15726e-05
2.781e-06
1.17443e-05
3.01025e-06
1.2021e-05
2.80338e-06
1.22502e-05
2.75149e-06
1.21782e-05
3.0291e-06
1.20396e-05
3.18922e-06
1.21827e-05
2.67551e-06
1.23364e-05
2.7041e-06
1.18094e-05
3.06323e-06
1.12985e-05
3.02234e-06
1.07625e-05
2.79037e-06
1.00724e-05
2.53205e-06
9.57538e-06
2.06429e-06
8.53955e-06
2.76747e-06
6.8546e-06
2.67502e-06
5.47952e-06
1.99706e-06
4.01455e-06
2.6416e-06
1.73211e-06
4.09314e-06
-1.15265e-06
4.77569e-06
-3.04214e-06
2.12608e-06
-2.9009e-06
-1.20512e-06
-5.39446e-07
-6.2669e-06
5.30097e-07
-1.23389e-06
7.13859e-07
-3.07053e-07
-8.51205e-07
3.63146e-06
-2.55378e-06
3.59156e-06
-4.58435e-06
4.3486e-06
-6.90929e-06
4.9673e-06
-9.3972e-06
5.11032e-06
-9.68244e-06
2.01052e-06
-7.53755e-06
-2.71531e-06
-6.55964e-06
1.05005e-06
-7.1377e-06
5.47338e-06
-7.4869e-06
5.52576e-06
-7.6548e-06
5.12559e-06
-6.53973e-06
3.11635e-06
-5.15777e-06
4.1235e-06
-5.10806e-06
7.02047e-06
-6.22382e-06
8.57422e-06
-7.44831e-06
8.64853e-06
-8.5047e-06
1.00129e-05
-9.65868e-06
1.19573e-05
-9.57284e-06
1.17974e-05
-7.8211e-06
9.11947e-06
-5.48428e-06
8.31602e-06
-4.01983e-06
9.31274e-06
-2.34136e-06
6.79414e-06
-4.86053e-07
5.74379e-06
9.35698e-07
5.08147e-06
2.8692e-06
2.1317e-06
2.90523e-06
6.82302e-06
5.37732e-06
2.61787e-06
1.26824e-05
-5.32795e-06
1.3431e-05
1.00121e-05
8.58016e-06
1.47668e-05
1.98246e-07
2.68564e-06
3.37359e-07
2.94071e-06
5.98706e-07
2.68289e-06
9.45718e-07
2.44674e-06
1.28269e-06
2.38586e-06
1.58655e-06
2.42625e-06
1.85041e-06
2.45039e-06
2.04189e-06
2.43524e-06
2.13702e-06
2.49176e-06
2.12881e-06
2.70332e-06
2.03888e-06
2.92072e-06
1.97822e-06
2.97323e-06
1.95593e-06
2.99684e-06
1.91795e-06
3.10314e-06
1.84733e-06
3.23167e-06
1.68978e-06
3.42664e-06
1.36919e-06
3.67812e-06
9.2086e-07
3.93477e-06
3.4789e-07
4.20406e-06
-3.62079e-07
4.46142e-06
-1.16798e-06
4.70525e-06
-2.04975e-06
4.91873e-06
-2.97041e-06
5.07621e-06
-3.89409e-06
5.16495e-06
-4.77685e-06
5.16799e-06
-5.55528e-06
5.03854e-06
-6.20487e-06
4.80512e-06
-6.69978e-06
4.48847e-06
-7.06037e-06
4.15052e-06
-7.30054e-06
3.7699e-06
-7.4516e-06
3.38377e-06
-7.51795e-06
2.98276e-06
-7.55419e-06
2.67038e-06
-7.54208e-06
2.35414e-06
-7.48766e-06
2.0545e-06
-7.45799e-06
1.83974e-06
-7.41079e-06
1.68488e-06
-7.31823e-06
1.56168e-06
-7.21078e-06
1.50428e-06
-7.15525e-06
1.55653e-06
-7.13051e-06
1.60736e-06
-7.12381e-06
1.64015e-06
-7.11465e-06
1.6656e-06
-7.05014e-06
1.63482e-06
-6.91622e-06
1.53862e-06
-6.76893e-06
1.48599e-06
-6.63516e-06
1.53626e-06
-6.49015e-06
1.6565e-06
-6.2593e-06
1.82717e-06
-6.09402e-06
2.09875e-06
-5.89535e-06
2.38788e-06
-5.63898e-06
2.62214e-06
-5.22412e-06
2.70707e-06
-4.83677e-06
2.71119e-06
-4.64842e-06
3.1537e-06
-4.34445e-06
3.79576e-06
-3.77805e-06
4.23168e-06
-3.21197e-06
4.47038e-06
-2.92133e-06
4.62135e-06
-2.91634e-06
5.11809e-06
-2.90248e-06
5.45016e-06
-2.73187e-06
5.52691e-06
-2.43615e-06
5.62677e-06
-2.2193e-06
5.86646e-06
-2.16395e-06
6.19554e-06
-2.04518e-06
6.18827e-06
-1.80392e-06
5.96212e-06
-1.49341e-06
5.67072e-06
-1.20763e-06
5.25236e-06
-9.47518e-07
4.63782e-06
-7.27739e-07
3.8218e-06
-3.85626e-07
2.9827e-06
4.229e-07
2.57503e-06
1.4151e-06
2.97581e-06
1.73558e-06
4.30622e-06
1.40254e-06
6.69805e-06
1.33672e-06
8.75237e-06
9.74908e-07
1.03327e-05
1.96159e-07
1.11947e-05
-6.02373e-07
9.67138e-06
-2.36244e-06
8.22145e-06
-5.00375e-06
9.1595e-06
-7.43972e-06
1.06988e-05
-9.33713e-06
1.18339e-05
-1.08518e-05
1.24399e-05
-1.19908e-05
1.25585e-05
-1.28544e-05
1.23909e-05
-1.35219e-05
1.1981e-05
-1.40159e-05
1.13125e-05
-1.44269e-05
1.06021e-05
-1.4787e-05
9.98664e-06
-1.50902e-05
9.46555e-06
-1.52893e-05
8.88714e-06
-1.53913e-05
8.18693e-06
-1.54508e-05
7.34265e-06
-1.5483e-05
6.47513e-06
-1.54812e-05
5.69242e-06
-1.54187e-05
5.02244e-06
-1.51321e-05
4.16038e-06
-1.44821e-05
2.99752e-06
-1.35152e-05
2.02315e-06
-1.27221e-05
2.15267e-06
-1.20782e-05
2.6167e-06
-1.07228e-05
1.50812e-06
-9.65415e-06
-5.16644e-08
-9.5461e-06
2.62506e-06
-7.47674e-06
-1.62349e-06
-4.79451e-06
-3.47257e-06
-5.02808e-06
3.75882e-06
-4.46136e-06
1.03625e-06
-2.15487e-06
-2.82898e-06
-9.22507e-07
1.92858e-07
-2.82744e-07
2.02023e-06
1.23673e-06
-4.40214e-07
3.03958e-06
-4.04299e-07
4.10293e-06
1.39697e-06
4.64461e-06
1.86961e-06
5.58141e-06
7.42864e-07
6.73633e-06
1.0844e-06
7.9649e-06
1.92344e-06
9.11138e-06
2.4767e-06
9.7884e-06
2.77455e-06
1.01311e-05
2.6748e-06
1.06459e-05
2.60125e-06
1.14743e-05
2.79736e-06
1.22023e-05
3.33276e-06
1.24395e-05
3.84962e-06
1.26254e-05
3.68705e-06
1.3184e-05
3.30794e-06
1.36359e-05
3.58848e-06
1.31235e-05
4.50196e-06
1.27932e-05
3.77804e-06
1.3195e-05
3.16896e-06
1.32102e-05
3.72485e-06
1.24484e-05