/*--------------------------------*- C++ -*----------------------------------*\
| =========                 |                                                 |
| \\      /  F ield         | OpenFOAM: The Open Source CFD Toolbox           |
|  \\    /   O peration     | Version:  dev                                   |
|   \\  /    A nd           | Web:      http://www.openfoam.org               |
|    \\/     M anipulation  |                                                 |
\*---------------------------------------------------------------------------*/
FoamFile
{
    version     2.0;
    format      ascii;
    class       volScalarField;
    object      pMean;
    location    "9.152";
}
// * * * * * * * * * * * * * * * * * * * * * * * * * * * * * * * * * * * * * //

dimensions      [1 -1 -2 0 0 0 0];

internalField   nonuniform List<scalar> 
12225
(
98311.1
98291.3
98277.5
98270.5
98256.3
98246.8
98228.4
98218.8
98197.3
98188.5
98163.9
98157
98126
98119.7
98078.9
98039.2
97950.1
97584.1
98306.6
98290.2
98277
98270
98255.6
98246.3
98227.7
98218.3
98196.6
98188.1
98163.1
98156.5
98125.7
98117.8
98077.2
98043.3
97951
97789.9
98302.8
98288.6
98276
98268.6
98254.2
98244.8
98226.2
98216.9
98195.2
98186.7
98162.3
98154.4
98126.2
98114.4
98079.5
98044.2
97976.8
97888
98297.7
98285.7
98273.8
98266.2
98251.8
98242.1
98224.1
98214.2
98193.4
98184
98160.9
98151.3
98125.1
98112.2
98080.4
98052.6
98004.1
97935.3
98291.1
98281.3
98270.3
98262.1
98248.2
98238
98221.1
98210.1
98191
98179.7
98159.5
98146.8
98125.3
98109
98082.4
98058.1
98018.3
97985.6
98282.8
98275.2
98264.4
98256.1
98242.6
98232
98216
98204.3
98186.6
98174.4
98156.2
98142.6
98124.2
98107.3
98085.9
98060.6
98038.5
98018.1
98272.6
98266.2
98255.9
98247.4
98234.8
98223.6
98208.9
98196.3
98180.5
98167
98151.6
98136.6
98122
98104.4
98090.1
98069.2
98058.8
98043.9
98261.8
98256.2
98246.5
98237.8
98226.1
98214.6
98201
98187.8
98173.8
98159.5
98146.3
98130.7
98119.2
98101.9
98093.1
98075.3
98073.6
98058.6
98251
98245.6
98236.7
98227.8
98217
98205.2
98192.7
98179.2
98166.6
98152
98140.5
98125
98115.3
98099.3
98093
98078.9
98078.6
98066.6
98237.4
98231.9
98224.2
98215.2
98205.3
98193.5
98182
98168.5
98157.2
98142.6
98132.7
98117.8
98109.6
98095.2
98090.2
98078.4
98077.7
98069.4
98220.5
98215
98208.4
98199.7
98190.5
98179
98168.3
98155.3
98144.8
98131.2
98121.8
98108.7
98100.7
98089.2
98083.5
98075
98072.3
98067.1
98199.9
98194.2
98189
98180.5
98172.2
98161.1
98151.2
98138.9
98129.3
98116.8
98108.1
98096.6
98089.1
98079.8
98074.1
98067.7
98064.1
98060.4
98175.1
98169.9
98165.3
98157.8
98149.8
98139.9
98130.4
98119.6
98110.3
98099.7
98091.2
98081.9
98074.7
98067.5
98062
98057.2
98053.6
98050.8
98146.9
98142.1
98138.1
98131.6
98124.3
98115.4
98106.8
98097.3
98088.7
98079.8
98072
98064.5
98058.1
98052.4
98047.7
98043.9
98040.9
98038.8
98116.8
98113.1
98109.3
98103.9
98097.4
98089.8
98082
98073.9
98066.2
98058.8
98052.1
98046
98040.7
98036.1
98032.4
98029.5
98027.3
98025.8
98089.1
98086.3
98083
98078.4
98072.8
98066.3
98059.5
98052.6
98046.1
98039.9
98034.3
98029.3
98025
98021.5
98018.6
98016.4
98014.9
98013.9
98070.5
98068.6
98065.8
98061.9
98056.9
98051.2
98045.3
98039.4
98033.7
98028.4
98023.7
98019.5
98015.9
98013
98010.7
98009
98007.9
98007.2
98070.7
98069.1
98066.5
98062.8
98058.1
98052.7
98047.1
98041.6
98036.2
98031.3
98026.8
98022.9
98019.5
98016.7
98014.5
98012.8
98011.6
98010.8
98090.5
98088.6
98085.8
98081.8
98076.9
98071.3
98065.5
98059.7
98054.2
98048.9
98044.1
98039.9
98036.1
98032.9
98030.3
98028.1
98026.4
98025.2
98121.2
98119.1
98115.7
98111.2
98105.7
98099.7
98093.4
98087
98080.9
98075
98069.6
98064.7
98060.3
98056.4
98053.1
98050.2
98047.8
98045.9
98156
98153.5
98149.4
98144.2
98138.1
98131.5
98124.5
98117.5
98110.7
98104.2
98098
98092.4
98087.2
98082.6
98078.5
98074.9
98071.7
98069
98189.9
98186.8
98182.1
98176.2
98169.5
98162.2
98154.7
98147.1
98139.6
98132.4
98125.6
98119.2
98113.4
98108
98103.2
98098.9
98095
98091.6
98220.1
98216.5
98210.9
98204.4
98197.2
98189.4
98181.4
98173.3
98165.3
98157.5
98150.1
98143.1
98136.6
98130.7
98125.2
98120.3
98115.8
98111.8
98245.4
98241.1
98234.8
98227.7
98220
98211.9
98203.5
98195
98186.5
98178.3
98170.4
98162.9
98156
98149.5
98143.5
98138
98133.1
98128.5
98265.7
98260.5
98253.3
98245.7
98237.7
98229.3
98220.7
98211.9
98203.1
98194.5
98186.3
98178.5
98171.1
98164.2
98157.9
98152
98146.6
98141.7
98281.3
98275
98266.9
98258.8
98250.6
98242.1
98233.3
98224.4
98215.4
98206.6
98198.1
98190
98182.3
98175.2
98168.5
98162.4
98156.7
98151.5
98293.1
98285.3
98276.2
98267.7
98259.4
98250.9
98242.1
98233
98223.9
98214.9
98206.3
98198
98190.1
98182.8
98175.9
98169.6
98163.7
98158.3
98301.8
98292
98281.9
98273.3
98265
98256.5
98247.7
98238.6
98229.4
98220.3
98211.6
98203.2
98195.2
98187.7
98180.8
98174.3
98168.3
98162.8
98307.9
98295.8
98284.7
98276.1
98268
98259.7
98250.9
98241.8
98232.6
98223.4
98214.6
98206.1
98198.1
98190.5
98183.5
98176.9
98170.9
98165.3
98313.9
98298.4
98286.3
98277.4
98269.2
98260.9
98252.2
98243.1
98233.8
98224.7
98215.9
98207.3
98199.3
98191.7
98184.6
98178.1
98172
98166.4
98310.9
98310.6
98309.8
98308.6
98307.2
98305.3
98303.1
98300.5
98297.4
98294
98290.1
98285.9
98281.3
98276.3
98271.1
98265.7
98259.9
98254
98247.9
98241.7
98235.2
98228.7
98222
98215.2
98208.3
98201.3
98194.3
98187.2
98180.1
98173
98165.9
98158.9
98151.9
98144.9
98138
98131.3
98124.6
98118.1
98111.8
98105.7
98099.8
98094.1
98088.7
98083.5
98078.7
98074.2
98070.1
98066.4
98063.1
98060.3
98057.9
98056
98054.6
98053.7
98053.5
98053.8
98054.8
98056.4
98058.7
98061.6
98065.3
98069.7
98074.7
98080.6
98087.1
98094.4
98102.3
98111
98120.3
98130.3
98140.8
98152
98163.8
98176.1
98188.8
98202.1
98215.7
98229.7
98244
98258.6
98273.4
98288.4
98303.5
98318.8
98334
98349.3
98364.5
98379.6
98394.5
98409.2
98423.7
98437.8
98451.6
98464.9
98477.8
98490.3
98502.2
98513.5
98524.3
98534.4
98543.9
98552.8
98561
98568.6
98575.6
98581.9
98587.6
98592.8
98597.4
98601.5
98605.1
98608.3
98611.2
98613.7
98615.9
98617.8
98619.4
98620.9
98622.1
98623.2
98624.3
98625.4
98626.5
98627.8
98629.4
98631.5
98634.1
98637.5
98642
98647.6
98654.7
98663.4
98674.1
98687
98702.3
98720.4
98741.2
98765
98791.8
98821.6
98854.6
98890.5
98929.4
98970.9
99015.3
99061.8
99110.8
99161.5
99214.1
99268.3
99323.8
99380.2
99437.2
99494.6
99551.8
99608.4
99663.8
99717.6
99768.5
99816.4
99859.9
99898.2
99930.2
99955.3
99972
99979.5
99976.8
99963.8
99939.7
99905.1
99859.7
99804.9
99740.9
99670.2
99593.2
99512.7
99428.1
99343.4
99256.6
99173.4
98304
98303.6
98302.8
98301.7
98300.2
98298.3
98296.1
98293.4
98290.4
98287
98283.3
98279.1
98274.6
98269.8
98264.8
98259.5
98253.9
98248.2
98242.3
98236.2
98229.9
98223.6
98217
98210.4
98203.7
98196.9
98190
98183.1
98176.2
98169.2
98162.3
98155.4
98148.5
98141.7
98135
98128.4
98121.9
98115.5
98109.3
98103.3
98097.5
98092
98086.6
98081.6
98076.9
98072.5
98068.4
98064.8
98061.5
98058.7
98056.3
98054.4
98053
98052.1
98051.8
98052.1
98053
98054.5
98056.7
98059.6
98063.2
98067.5
98072.5
98078.1
98084.5
98091.6
98099.5
98107.9
98117.1
98126.9
98137.3
98148.3
98159.8
98171.9
98184.4
98197.4
98210.8
98224.6
98238.7
98253
98267.6
98282.4
98297.3
98312.2
98327.2
98342.2
98357.1
98371.9
98386.6
98401
98415.1
98429
98442.4
98455.5
98468.1
98480.3
98491.9
98503
98513.5
98523.4
98532.7
98541.3
98549.3
98556.7
98563.5
98569.7
98575.2
98580.2
98584.8
98588.7
98592.3
98595.4
98598.2
98600.6
98602.8
98604.6
98606.2
98607.6
98608.7
98609.8
98610.8
98611.7
98612.8
98614
98615.4
98617.3
98619.7
98622.8
98626.9
98632.2
98638.9
98647.2
98657.4
98669.7
98684.5
98701.8
98721.9
98744.9
98770.9
98799.9
98831.9
98866.8
98904.6
98945.1
98988.3
99033.7
99081.5
99131.1
99182.5
99235.5
99289.9
99345.1
99401
99457.3
99513.5
99569.1
99623.6
99676.6
99726.8
99774.1
99817.1
99855.2
99887.1
99912.3
99929.4
99937.4
99935.6
99923.7
99900.9
99867.7
99823.9
99770.9
99708.7
99639.8
99564.5
99485.7
99402.8
99319.6
99233.8
99148.8
98291.3
98291
98290.2
98289
98287.4
98285.4
98283.1
98280.4
98277.4
98274
98270.3
98266.3
98262
98257.4
98252.5
98247.5
98242.3
98236.9
98231.3
98225.6
98219.7
98213.7
98207.6
98201.3
98194.9
98188.5
98181.9
98175.3
98168.7
98162.1
98155.4
98148.8
98142.2
98135.6
98129.1
98122.8
98116.5
98110.4
98104.4
98098.6
98093
98087.7
98082.5
98077.6
98073
98068.7
98064.8
98061.2
98058
98055.2
98052.8
98050.9
98049.5
98048.5
98048.1
98048.3
98049.2
98050.6
98052.6
98055.4
98058.8
98062.8
98067.6
98073
98079.1
98086
98093.5
98101.7
98110.5
98120
98130
98140.7
98151.8
98163.5
98175.7
98188.3
98201.2
98214.5
98228.2
98242.1
98256.2
98270.5
98284.9
98299.4
98313.9
98328.3
98342.7
98357
98371.1
98384.9
98398.5
98411.8
98424.7
98437.2
98449.3
98460.9
98472
98482.5
98492.5
98501.9
98510.8
98519
98526.6
98533.6
98540.1
98545.9
98551.2
98556
98560.2
98564
98567.4
98570.3
98572.9
98575.2
98577.2
98578.9
98580.4
98581.6
98582.7
98583.6
98584.4
98585.1
98585.9
98586.8
98587.9
98589.3
98591.3
98593.8
98597.3
98601.9
98607.7
98615.1
98624.3
98635.5
98649
98665
98683.6
98705.1
98729.4
98756.5
98786.6
98819.5
98855.2
98893.5
98934.5
98977.6
99023.1
99070.3
99119.4
99170
99222
99274.9
99328.6
99382.7
99436.8
99490.4
99543
99594.2
99642.9
99688.7
99730.7
99768
99799.3
99824.4
99841.9
99850.7
99850.2
99840.1
99819.6
99789.1
99748.4
99698.7
99640.1
99574.9
99503.3
99428
99348.5
99268.5
99185.5
99101.6
98273.8
98273.5
98272.8
98271.6
98269.9
98268
98265.6
98263
98260
98256.6
98253
98249.1
98245
98240.6
98236.1
98231.4
98226.5
98221.5
98216.3
98211
98205.6
98200.1
98194.4
98188.6
98182.7
98176.7
98170.7
98164.6
98158.4
98152.2
98146
98139.8
98133.7
98127.5
98121.4
98115.4
98109.5
98103.7
98098.1
98092.5
98087.2
98082
98077.1
98072.4
98067.9
98063.8
98060
98056.5
98053.4
98050.6
98048.3
98046.4
98044.9
98043.9
98043.4
98043.5
98044.2
98045.4
98047.3
98049.8
98052.9
98056.7
98061.1
98066.2
98071.9
98078.4
98085.5
98093.2
98101.6
98110.6
98120.2
98130.3
98141
98152.1
98163.7
98175.7
98188.1
98200.8
98213.8
98227
98240.4
98254
98267.8
98281.5
98295.3
98309
98322.7
98336.2
98349.6
98362.7
98375.5
98388.1
98400.2
98412
98423.3
98434.1
98444.5
98454.3
98463.6
98472.3
98480.5
98488.1
98495.2
98501.6
98507.6
98513
98517.8
98522.2
98526.2
98529.6
98532.7
98535.4
98537.9
98540
98541.8
98543.3
98544.5
98545.6
98546.4
98547.1
98547.6
98548
98548.4
98548.8
98549.4
98550.3
98551.5
98553.3
98555.9
98559.4
98564.1
98570.2
98578
98587.6
98599.4
98613.5
98630
98649.3
98671.2
98695.8
98723.3
98753.4
98786.2
98821.5
98859.5
98899.5
98941.7
98985.8
99031.7
99079.1
99127.9
99177.8
99228.4
99279.6
99330.8
99381.6
99431.6
99480.3
99527
99570.9
99611.2
99647.2
99677.8
99702.5
99720.2
99729.8
99730.7
99722.6
99704.8
99677.6
99640.8
99595.4
99541.4
99481.1
99414.2
99343.8
99269
99193.5
99114.7
99034.7
98252.7
98252.4
98251.7
98250.5
98249
98247.1
98244.8
98242.2
98239.3
98236.1
98232.6
98228.9
98224.9
98220.8
98216.5
98212.1
98207.6
98203
98198.2
98193.4
98188.5
98183.4
98178.3
98173
98167.7
98162.2
98156.7
98151.2
98145.6
98140
98134.4
98128.7
98123.1
98117.5
98111.9
98106.4
98100.9
98095.6
98090.3
98085.2
98080.2
98075.4
98070.7
98066.3
98062.1
98058.1
98054.5
98051.1
98048.1
98045.4
98043.1
98041.2
98039.7
98038.6
98038
98037.9
98038.4
98039.5
98041.1
98043.2
98046
98049.4
98053.4
98058.1
98063.4
98069.3
98075.9
98083.1
98090.9
98099.3
98108.2
98117.7
98127.7
98138.1
98149
98160.3
98171.9
98183.8
98196
98208.4
98221
98233.7
98246.6
98259.4
98272.3
98285.1
98297.9
98310.5
98322.9
98335.1
98347
98358.6
98369.8
98380.6
98391
98400.9
98410.4
98419.3
98427.8
98435.7
98443.1
98449.9
98456.3
98462.1
98467.4
98472.2
98476.6
98480.5
98484
98487.1
98489.8
98492.2
98494.4
98496.2
98497.7
98499
98500
98500.8
98501.3
98501.6
98501.8
98501.8
98501.7
98501.6
98501.5
98501.6
98502
98502.8
98504.3
98506.5
98509.8
98514.3
98520.4
98528.1
98537.7
98549.5
98563.6
98580.2
98599.3
98620.9
98645.2
98672
98701.3
98733
98767.2
98803.6
98841.9
98882.2
98924.3
98967.9
99012.9
99059
99106
99153.7
99201.3
99248.8
99295.6
99341.4
99385.3
99426.9
99465.2
99499.6
99529
99553.1
99570.7
99581
99583.3
99577.3
99562.6
99539.1
99506.7
99466.3
99417.7
99363.1
99302
99237.5
99168.5
99098.6
99025.3
98950.7
98229.2
98229
98228.4
98227.3
98225.9
98224.1
98222
98219.6
98216.8
98213.8
98210.5
98207
98203.3
98199.4
98195.4
98191.3
98187.2
98182.9
98178.5
98174.1
98169.6
98165
98160.4
98155.7
98150.8
98146
98141.1
98136.1
98131.1
98126.1
98121.1
98116.1
98111
98106
98101
98096.1
98091.2
98086.3
98081.6
98076.9
98072.4
98067.9
98063.6
98059.5
98055.6
98051.9
98048.4
98045.2
98042.3
98039.7
98037.5
98035.6
98034
98032.9
98032.2
98032
98032.2
98033
98034.3
98036.2
98038.6
98041.5
98045.1
98049.2
98054
98059.3
98065.3
98071.8
98078.9
98086.6
98094.8
98103.6
98112.8
98122.4
98132.4
98142.8
98153.6
98164.6
98175.8
98187.3
98198.9
98210.6
98222.4
98234.2
98246.1
98257.8
98269.5
98281
98292.4
98303.5
98314.3
98324.8
98334.9
98344.7
98354.1
98362.9
98371.4
98379.3
98386.8
98393.8
98400.3
98406.3
98411.9
98416.9
98421.5
98425.7
98429.4
98432.8
98435.8
98438.4
98440.8
98442.8
98444.6
98446
98447.2
98448.2
98448.8
98449.2
98449.4
98449.4
98449
98448.6
98447.9
98447.1
98446.3
98445.6
98445
98444.7
98444.8
98445.6
98447.3
98450.1
98454.1
98459.7
98466.9
98476.2
98487.5
98501.1
98516.9
98535.2
98555.9
98579
98604.5
98632.2
98662.3
98694.5
98728.7
98764.8
98802.6
98842.1
98883
98925
98967.8
99011.5
99055.2
99099
99142.4
99184.7
99225.6
99264.4
99300.3
99332.8
99360.7
99383.8
99401.2
99411.9
99415.4
99411.7
99399.9
99380.4
99352.5
99317.3
99274.5
99226
99171.3
99113.5
99051
98987.7
98920.7
98852.7
98204.8
98204.7
98204.1
98203.2
98201.9
98200.3
98198.4
98196.1
98193.6
98190.8
98187.8
98184.5
98181.1
98177.6
98173.9
98170.2
98166.3
98162.4
98158.4
98154.4
98150.3
98146.1
98141.9
98137.7
98133.4
98129.1
98124.7
98120.4
98116
98111.5
98107.1
98102.7
98098.2
98093.8
98089.4
98085
98080.7
98076.4
98072.1
98067.9
98063.8
98059.8
98055.9
98052.1
98048.5
98045.1
98041.9
98038.9
98036.1
98033.6
98031.4
98029.5
98027.9
98026.7
98025.9
98025.5
98025.6
98026.1
98027.1
98028.6
98030.6
98033.1
98036.1
98039.8
98043.9
98048.6
98053.9
98059.8
98066.1
98073
98080.4
98088.3
98096.6
98105.4
98114.5
98123.9
98133.6
98143.7
98153.9
98164.3
98174.8
98185.4
98196.1
98206.8
98217.5
98228.1
98238.6
98248.9
98259
98268.9
98278.6
98287.9
98296.9
98305.5
98313.7
98321.5
98328.8
98335.8
98342.2
98348.3
98353.8
98359
98363.6
98367.9
98371.7
98375.2
98378.3
98381
98383.4
98385.6
98387.4
98389
98390.3
98391.3
98392.1
98392.7
98392.9
98392.9
98392.7
98392.1
98391.3
98390.3
98389
98387.5
98385.8
98384.1
98382.4
98380.9
98379.6
98378.9
98378.9
98379.8
98381.6
98384.9
98389.6
98396.1
98404.5
98414.9
98427.4
98442.1
98459
98478.2
98499.7
98523.3
98549.1
98576.9
98606.8
98638.5
98672
98707
98743.5
98781.2
98819.7
98859.1
98898.8
98938.7
98978.3
99017
99054.4
99090.2
99123.4
99153.5
99179.6
99201.5
99218.2
99229.1
99233.7
99232
99223
99207.3
99183.7
99153.8
99116.8
99074.6
99026.6
98975.8
98920.3
98864.1
98804.1
98743.3
98180.6
98180.5
98180.1
98179.3
98178.3
98176.9
98175.2
98173.2
98170.9
98168.4
98165.7
98162.8
98159.7
98156.5
98153.1
98149.7
98146.2
98142.6
98139
98135.3
98131.6
98127.9
98124.1
98120.3
98116.5
98112.7
98108.9
98105
98101.1
98097.3
98093.4
98089.4
98085.6
98081.7
98077.8
98074
98070.1
98066.3
98062.6
98058.8
98055.1
98051.5
98048
98044.5
98041.2
98038.1
98035.1
98032.3
98029.7
98027.3
98025.1
98023.2
98021.6
98020.4
98019.4
98018.9
98018.7
98018.9
98019.6
98020.7
98022.3
98024.4
98026.9
98030
98033.5
98037.6
98042.2
98047.3
98052.9
98059
98065.6
98072.5
98080
98087.7
98095.9
98104.3
98113.1
98122
98131.1
98140.4
98149.8
98159.3
98168.8
98178.3
98187.8
98197.1
98206.4
98215.5
98224.4
98233
98241.4
98249.5
98257.3
98264.7
98271.7
98278.3
98284.6
98290.4
98295.8
98300.8
98305.4
98309.6
98313.4
98316.8
98319.9
98322.6
98325
98327.1
98328.9
98330.4
98331.8
98332.8
98333.6
98334.2
98334.5
98334.6
98334.4
98333.9
98333.1
98332.1
98330.7
98329
98327
98324.6
98322.1
98319.3
98316.5
98313.7
98311
98308.7
98306.8
98305.8
98305.5
98306.3
98308.5
98312.2
98317.6
98324.8
98333.9
98345
98358.1
98373.4
98390.9
98410.4
98431.8
98455.3
98480.7
98508.2
98537.2
98567.8
98599.8
98633.2
98667.3
98702.4
98738
98774
98809.6
98844.6
98878.4
98910.7
98941
98968.5
98992.3
99012.6
99028.3
99039.1
99044.5
99044.4
99037.8
99025.4
99006
98981.1
98949.6
98913.7
98872.3
98828.6
98780.1
98731.3
98678.6
98625.4
98157.8
98157.8
98157.5
98156.8
98155.9
98154.7
98153.3
98151.5
98149.6
98147.4
98145
98142.4
98139.7
98136.8
98133.8
98130.7
98127.6
98124.4
98121.1
98117.8
98114.5
98111.2
98107.8
98104.5
98101.1
98097.7
98094.4
98091
98087.6
98084.1
98080.7
98077.3
98073.9
98070.4
98067
98063.7
98060.3
98056.9
98053.5
98050.2
98046.9
98043.6
98040.4
98037.2
98034.2
98031.2
98028.4
98025.8
98023.3
98021
98018.9
98017
98015.3
98014
98012.9
98012.2
98011.8
98011.8
98012.1
98012.9
98014.1
98015.7
98017.7
98020.2
98023.2
98026.7
98030.6
98035
98039.8
98045.1
98050.8
98056.9
98063.4
98070.3
98077.4
98084.9
98092.6
98100.5
98108.5
98116.7
98124.9
98133.2
98141.5
98149.8
98158.1
98166.2
98174.2
98182
98189.6
98197
98204.2
98211
98217.5
98223.7
98229.5
98235
98240.1
98244.8
98249.1
98253.1
98256.7
98259.9
98262.9
98265.4
98267.7
98269.6
98271.3
98272.7
98273.8
98274.8
98275.5
98276
98276.3
98276.3
98276.1
98275.6
98274.9
98273.8
98272.5
98270.8
98268.8
98266.4
98263.6
98260.4
98256.9
98253
98249.1
98245
98240.9
98237
98233.4
98230.4
98228
98226.5
98226.1
98227
98229.5
98233.5
98239.2
98246.9
98256.3
98267.9
98281.4
98296.9
98314.2
98333.5
98354.6
98377.8
98402.6
98428.8
98456.6
98485.6
98515.5
98546.4
98577.9
98609.8
98641.4
98672.5
98702.6
98731.5
98758.4
98783.2
98804.5
98822.7
98837
98847.3
98852.9
98853.9
98849.3
98839.6
98823.9
98803.5
98777.1
98747.1
98712.3
98675.5
98634
98592.5
98547.1
98501.8
98137.1
98137.2
98137
98136.5
98135.8
98134.8
98133.6
98132.2
98130.5
98128.6
98126.6
98124.3
98121.9
98119.4
98116.8
98114.1
98111.3
98108.5
98105.6
98102.7
98099.7
98096.8
98093.9
98090.9
98087.9
98084.9
98082
98078.9
98075.9
98072.9
98069.9
98066.8
98063.8
98060.8
98057.8
98054.7
98051.7
98048.7
98045.6
98042.6
98039.5
98036.5
98033.6
98030.6
98027.8
98025
98022.4
98019.8
98017.4
98015.1
98013
98011.1
98009.4
98008
98006.8
98005.9
98005.3
98005
98005
98005.5
98006.3
98007.5
98009
98011
98013.5
98016.3
98019.6
98023.3
98027.4
98031.9
98036.8
98042.1
98047.7
98053.6
98059.9
98066.3
98073
98079.9
98086.9
98093.9
98101.1
98108.2
98115.4
98122.5
98129.5
98136.4
98143.2
98149.8
98156.1
98162.3
98168.2
98173.8
98179.1
98184
98188.7
98193
98196.9
98200.5
98203.7
98206.6
98209.2
98211.5
98213.5
98215.2
98216.7
98217.9
98218.8
98219.5
98219.9
98220.2
98220.3
98220.2
98219.9
98219.3
98218.5
98217.5
98216.1
98214.4
98212.4
98210.1
98207.3
98204.1
98200.5
98196.4
98192
98187.1
98182
98176.6
98171.2
98165.8
98160.5
98155.6
98151.2
98147.5
98144.6
98143
98142.6
98143.6
98146.2
98150.5
98156.5
98164.4
98174.2
98185.9
98199.4
98214.8
98231.9
98251.1
98271.8
98294
98317.5
98342.4
98368.2
98395.1
98422.5
98450.4
98478
98505.3
98531.7
98556.9
98580.5
98602.2
98620.9
98636.8
98649.2
98658.3
98663.5
98665
98661.7
98654.2
98641.6
98625.1
98603.3
98578.9
98550.2
98519.7
98485
98450.7
98412.4
98375
98119.3
98119.4
98119.3
98118.9
98118.4
98117.6
98116.6
98115.4
98114.1
98112.5
98110.8
98108.9
98106.9
98104.7
98102.5
98100.2
98097.8
98095.3
98092.8
98090.3
98087.7
98085.2
98082.6
98080
98077.4
98074.8
98072.1
98069.4
98066.8
98064.1
98061.4
98058.7
98055.9
98053.2
98050.5
98047.7
98044.9
98042.1
98039.3
98036.5
98033.7
98030.8
98028
98025.3
98022.5
98019.9
98017.3
98014.8
98012.4
98010.1
98008
98006
98004.3
98002.7
98001.3
98000.3
97999.4
97998.9
97998.7
97998.8
97999.3
98000.1
98001.2
98002.8
98004.7
98007
98009.6
98012.7
98016.2
98020
98024.1
98028.6
98033.4
98038.5
98043.8
98049.4
98055.1
98061
98067
98073
98079.1
98085.2
98091.2
98097.2
98103.1
98108.8
98114.4
98119.8
98124.9
98129.9
98134.5
98138.9
98143
98146.8
98150.3
98153.4
98156.2
98158.7
98160.9
98162.8
98164.4
98165.7
98166.8
98167.6
98168.2
98168.5
98168.7
98168.6
98168.4
98168
98167.4
98166.6
98165.6
98164.4
98162.9
98161.2
98159.2
98156.8
98154.1
98151
98147.4
98143.4
98139
98134
98128.6
98122.7
98116.5
98110
98103.3
98096.5
98089.6
98083
98076.7
98071
98066
98061.8
98058.8
98057.1
98056.7
98058
98060.8
98065.4
98071.8
98080.1
98090.1
98101.9
98115.4
98130.8
98147.8
98166.3
98186
98207
98229
98251.9
98275.5
98299.4
98323.1
98346.7
98369.3
98390.7
98410.9
98429.3
98445.2
98458.3
98468.5
98475.9
98480
98481.2
98478.6
98472.7
98462.6
98449.4
98431.7
98412.2
98388.9
98364.3
98335.9
98308.4
98277
98247
98104.6
98104.8
98104.7
98104.5
98104.1
98103.5
98102.8
98101.9
98100.8
98099.5
98098.1
98096.6
98094.9
98093.2
98091.3
98089.3
98087.3
98085.3
98083.2
98081
98078.9
98076.7
98074.4
98072.2
98069.9
98067.6
98065.2
98062.9
98060.5
98058
98055.6
98053.1
98050.6
98048.1
98045.5
98042.9
98040.3
98037.7
98035
98032.3
98029.6
98026.8
98024.1
98021.4
98018.7
98016.1
98013.5
98011
98008.6
98006.3
98004.1
98002
98000.1
97998.4
97996.9
97995.6
97994.6
97993.9
97993.4
97993.2
97993.4
97993.8
97994.6
97995.7
97997.2
97999
98001.2
98003.7
98006.5
98009.7
98013.2
98017
98021
98025.4
98029.9
98034.6
98039.5
98044.4
98049.5
98054.6
98059.7
98064.7
98069.8
98074.7
98079.5
98084.1
98088.6
98092.8
98096.9
98100.6
98104.2
98107.4
98110.4
98113
98115.4
98117.4
98119.1
98120.5
98121.7
98122.5
98123.1
98123.5
98123.6
98123.6
98123.3
98122.7
98122.1
98121.2
98120.2
98119
98117.7
98116.1
98114.4
98112.5
98110.3
98107.9
98105.1
98102
98098.5
98094.6
98090.3
98085.5
98080.2
98074.3
98068
98061.2
98053.9
98046.3
98038.4
98030.3
98022.1
98013.9
98006
97998.4
97991.4
97985.1
97979.8
97975.6
97972.6
97971.1
97971.1
97972.8
97976.2
97981.4
97988.2
97996.9
98007.2
98019.3
98032.9
98048.1
98064.3
98081.8
98100.2
98119.4
98139.4
98159.6
98179.5
98199.4
98218.1
98235.8
98252.3
98267.2
98280
98290.3
98297.8
98303.1
98305.4
98305.7
98303.1
98298.2
98289.8
98279.3
98265
98249.7
98231.1
98211.9
98189.1
98168
98143
98120.2
98093.2
98093.4
98093.4
98093.3
98093
98092.6
98092.1
98091.4
98090.6
98089.6
98088.6
98087.4
98086.1
98084.7
98083.2
98081.7
98080.1
98078.4
98076.7
98075
98073.2
98071.4
98069.5
98067.6
98065.6
98063.5
98061.5
98059.3
98057.1
98054.9
98052.6
98050.3
98047.9
98045.5
98043.1
98040.6
98038
98035.4
98032.8
98030.1
98027.4
98024.7
98022
98019.2
98016.5
98013.8
98011.2
98008.6
98006.1
98003.7
98001.4
97999.2
97997.2
97995.3
97993.7
97992.3
97991
97990.1
97989.4
97989
97988.8
97989
97989.5
97990.2
97991.3
97992.7
97994.4
97996.5
97998.8
98001.4
98004.3
98007.5
98010.9
98014.6
98018.4
98022.3
98026.4
98030.6
98034.8
98039
98043.3
98047.4
98051.5
98055.4
98059.2
98062.9
98066.3
98069.5
98072.5
98075.2
98077.6
98079.8
98081.7
98083.2
98084.5
98085.5
98086.2
98086.6
98086.7
98086.5
98086.1
98085.5
98084.7
98083.7
98082.5
98081.2
98079.7
98078
98076.2
98074.2
98072
98069.7
98067.2
98064.5
98061.5
98058.3
98054.7
98050.8
98046.5
98041.8
98036.7
98031.1
98024.9
98018.2
98011
98003.3
97995.1
97986.5
97977.6
97968.3
97958.9
97949.4
97940
97930.8
97922.1
97913.9
97906.5
97900.2
97895
97891.2
97888.8
97887.9
97888.7
97891.3
97895.4
97901.3
97908.8
97918
97928.6
97940.7
97953.8
97968.1
97983.1
97999
98015.6
98032.2
98048.6
98064.8
98079.7
98093.6
98106.3
98117.6
98127.1
98134.3
98139
98141.9
98142.1
98140.7
98137.4
98132.7
98125.5
98116.9
98105.6
98093.5
98078.9
98064.4
98046.8
98031.4
98012.2
97996.2
98084.8
98085
98085.1
98085.1
98084.9
98084.7
98084.4
98084
98083.5
98082.8
98082.1
98081.3
98080.4
98079.4
98078.3
98077.2
98076.1
98074.8
98073.5
98072.2
98070.8
98069.3
98067.8
98066.1
98064.4
98062.6
98060.8
98058.8
98056.8
98054.7
98052.5
98050.3
98048
98045.6
98043.2
98040.7
98038.1
98035.5
98032.8
98030.1
98027.3
98024.5
98021.7
98018.9
98016
98013.2
98010.5
98007.8
98005.1
98002.6
98000.2
97997.8
97995.7
97993.7
97991.8
97990.2
97988.8
97987.7
97986.8
97986.2
97985.8
97985.7
97985.9
97986.4
97987.2
97988.2
97989.6
97991.2
97993.1
97995.3
97997.7
98000.4
98003.3
98006.3
98009.5
98012.8
98016.2
98019.7
98023.2
98026.7
98030.1
98033.4
98036.7
98039.8
98042.7
98045.4
98047.9
98050.1
98052.1
98053.8
98055.3
98056.4
98057.3
98057.8
98058.1
98058.1
98057.8
98057.1
98056.2
98055.1
98053.8
98052.2
98050.5
98048.6
98046.5
98044.3
98041.9
98039.4
98036.6
98033.8
98030.8
98027.7
98024.3
98020.8
98016.9
98012.9
98008.4
98003.7
97998.6
97993.1
97987.2
97980.7
97973.8
97966.3
97958.3
97949.8
97940.8
97931.3
97921.4
97911.2
97900.8
97890.2
97879.5
97869
97858.8
97849
97840
97831.8
97824.8
97819
97814.5
97811.6
97810.2
97810.5
97812.3
97815.8
97820.7
97827.3
97835.3
97844.5
97854.9
97866.4
97878.5
97891.4
97904.6
97917.9
97930.9
97943.4
97954.7
97964.8
97973.7
97981.3
97987.3
97991.2
97992.9
97993.3
97991.1
97987.8
97983.3
97978.1
97971.4
97964.1
97954.8
97945.5
97934.1
97923.8
97910.7
97900.3
97886.4
97876.5
98078.8
98079
98079.2
98079.3
98079.3
98079.3
98079.2
98079
98078.8
98078.5
98078.2
98077.8
98077.3
98076.8
98076.3
98075.6
98074.9
98074.1
98073.3
98072.3
98071.3
98070.2
98068.9
98067.6
98066.1
98064.5
98062.8
98061
98059.1
98057.1
98055
98052.8
98050.5
98048.1
98045.6
98043
98040.4
98037.6
98034.8
98032
98029.1
98026.1
98023.2
98020.2
98017.2
98014.2
98011.3
98008.4
98005.7
98002.9
98000.3
97997.9
97995.5
97993.4
97991.4
97989.7
97988.1
97986.8
97985.7
97984.9
97984.3
97984.1
97984
97984.3
97984.8
97985.6
97986.7
97988
97989.6
97991.4
97993.4
97995.7
97998.1
98000.7
98003.3
98006.1
98008.9
98011.8
98014.7
98017.5
98020.2
98022.9
98025.4
98027.7
98029.8
98031.7
98033.3
98034.7
98035.8
98036.6
98037.1
98037.3
98037.3
98036.9
98036.2
98035.2
98034
98032.4
98030.6
98028.5
98026.2
98023.8
98021.1
98018.3
98015.3
98012.2
98008.9
98005.5
98001.9
97998.2
97994.3
97990.3
97986.1
97981.6
97976.9
97972
97966.7
97961.2
97955.2
97948.9
97942.2
97934.9
97927.2
97919
97910.3
97901.1
97891.4
97881.2
97870.5
97859.6
97848.3
97836.7
97825.1
97813.5
97802
97791
97780.6
97771.1
97762.5
97755.1
97748.9
97744.2
97741
97739.4
97739.2
97740.5
97743.3
97747.7
97753.2
97760
97767.9
97777
97786.5
97796.4
97806.5
97816.5
97826.3
97835.3
97843
97849.6
97854.7
97858.6
97860.9
97861.4
97860.1
97857.8
97853.2
97847.7
97841.6
97835.4
97828.6
97822
97814
97806.8
97798.1
97791.2
97781.8
97776.1
97766.6
97762.4
98074.4
98074.7
98074.9
98075.1
98075.3
98075.4
98075.6
98075.8
98076
98076.2
98076.4
98076.6
98076.7
98076.7
98076.7
98076.6
98076.3
98076
98075.6
98075
98074.3
98073.5
98072.6
98071.5
98070.2
98068.8
98067.2
98065.5
98063.7
98061.7
98059.6
98057.3
98055
98052.5
98049.9
98047.2
98044.4
98041.6
98038.6
98035.6
98032.5
98029.4
98026.2
98023
98019.9
98016.7
98013.6
98010.5
98007.6
98004.7
98001.9
97999.3
97996.8
97994.5
97992.4
97990.5
97988.8
97987.4
97986.1
97985.2
97984.5
97984
97983.8
97983.9
97984.3
97984.8
97985.7
97986.8
97988.1
97989.6
97991.4
97993.3
97995.3
97997.5
97999.8
98002.1
98004.5
98006.8
98009.2
98011.4
98013.6
98015.6
98017.4
98019
98020.4
98021.6
98022.5
98023.1
98023.4
98023.4
98023.1
98022.4
98021.5
98020.3
98018.7
98016.9
98014.7
98012.3
98009.5
98006.6
98003.4
98000
97996.4
97992.8
97988.9
97984.9
97980.8
97976.4
97972
97967.4
97962.6
97957.7
97952.6
97947.2
97941.6
97935.8
97929.7
97923.3
97916.6
97909.5
97902
97894
97885.5
97876.7
97867.4
97857.5
97847.2
97836.4
97825.2
97813.6
97801.6
97789.4
97777
97764.5
97752.2
97740.2
97728.8
97718.2
97708.3
97699.6
97692.1
97685.9
97681.1
97677.8
97675.9
97675.5
97676.5
97678.9
97682.4
97687.1
97692.8
97699.6
97706.7
97713.8
97720.9
97727.8
97734.4
97740.1
97744.5
97747.6
97748.9
97749.1
97747.6
97744.7
97740.3
97735.1
97728.1
97720.4
97712.4
97705
97697.6
97691.2
97684
97678.3
97671.6
97667.4
97661.1
97659.4
97654.1
97654.7
98070.6
98070.8
98071
98071.2
98071.5
98072
98072.6
98073.4
98074.2
98075.1
98076
98076.9
98077.7
98078.4
98078.9
98079.4
98079.6
98079.8
98079.8
98079.6
98079.2
98078.7
98078
98077.1
98076
98074.7
98073.2
98071.6
98069.7
98067.7
98065.6
98063.3
98060.9
98058.3
98055.6
98052.7
98049.8
98046.8
98043.6
98040.4
98037.1
98033.8
98030.4
98027.1
98023.7
98020.4
98017.1
98013.8
98010.7
98007.6
98004.7
98001.9
97999.3
97996.9
97994.7
97992.6
97990.8
97989.3
97988
97986.9
97986.1
97985.5
97985.2
97985.2
97985.4
97985.8
97986.5
97987.4
97988.6
97989.9
97991.4
97993
97994.8
97996.7
97998.6
98000.6
98002.5
98004.4
98006.3
98008.1
98009.7
98011.1
98012.4
98013.4
98014.2
98014.7
98014.9
98014.8
98014.4
98013.7
98012.6
98011.2
98009.5
98007.5
98005.1
98002.5
97999.5
97996.2
97992.7
97988.9
97984.8
97980.6
97976.2
97971.7
97967
97962.1
97957.1
97951.9
97946.6
97941.1
97935.5
97929.7
97923.7
97917.4
97911
97904.4
97897.4
97890.3
97882.7
97874.9
97866.6
97858
97849
97839.5
97829.6
97819.3
97808.5
97797.2
97785.6
97773.5
97761
97748.2
97735.2
97722.1
97709.2
97696.5
97684.4
97672.8
97662
97652.2
97643.6
97636.2
97630
97625.3
97622
97620.1
97619.6
97620.3
97621.9
97624.7
97628.5
97633.1
97638
97642.6
97646.9
97650.8
97654.4
97657
97658.1
97657.9
97655.6
97652
97646.9
97640.6
97632.9
97624.7
97615.3
97605.4
97595.6
97586.8
97578.6
97571.9
97565
97560.5
97555.2
97553.2
97549.5
97551.2
97549.4
97554.4
98065.7
98065.8
98065.8
98066.1
98066.9
98068.2
98069.6
98071.3
98073.1
98074.9
98076.7
98078.4
98079.9
98081.3
98082.5
98083.5
98084.3
98084.8
98085.1
98085.3
98085.2
98084.9
98084.4
98083.6
98082.7
98081.5
98080.1
98078.5
98076.6
98074.6
98072.4
98070.1
98067.5
98064.8
98062
98059
98055.9
98052.7
98049.4
98046
98042.6
98039
98035.5
98031.9
98028.4
98024.9
98021.4
98018
98014.7
98011.5
98008.5
98005.6
98002.9
98000.3
97998
97995.9
97994
97992.4
97991
97989.9
97989
97988.3
97987.9
97987.8
97987.9
97988.3
97988.9
97989.7
97990.6
97991.8
97993.1
97994.6
97996.1
97997.7
97999.4
98001
98002.6
98004.2
98005.6
98006.9
98008.1
98009
98009.8
98010.3
98010.5
98010.4
98010
98009.3
98008.2
98006.8
98005.1
98003
98000.6
97997.8
97994.7
97991.3
97987.5
97983.5
97979.2
97974.6
97969.8
97964.8
97959.6
97954.3
97948.7
97943.1
97937.3
97931.3
97925.2
97918.9
97912.4
97905.8
97898.9
97891.9
97884.6
97877.2
97869.5
97861.6
97853.4
97844.8
97835.9
97826.7
97817.2
97807.2
97796.9
97786.1
97774.9
97763.3
97751.3
97738.9
97726
97712.8
97699.3
97685.9
97672.5