/*--------------------------------*- C++ -*----------------------------------*\
| =========                 |                                                 |
| \\      /  F ield         | OpenFOAM: The Open Source CFD Toolbox           |
|  \\    /   O peration     | Version:  dev                                   |
|   \\  /    A nd           | Web:      http://www.openfoam.org               |
|    \\/     M anipulation  |                                                 |
\*---------------------------------------------------------------------------*/
FoamFile
{
    version     2.0;
    format      ascii;
    class       volScalarField;
    object      pPrime2Mean;
    location    "9.152";
}
// * * * * * * * * * * * * * * * * * * * * * * * * * * * * * * * * * * * * * //

dimensions      [2 -2 -4 0 0 0 0];

internalField   nonuniform List<scalar> 
12225
(
5.03601e+07
4.98949e+07
4.89339e+07
4.75824e+07
4.59282e+07
4.40609e+07
4.20396e+07
3.99362e+07
3.77918e+07
3.56543e+07
3.35615e+07
3.15164e+07
2.95928e+07
2.77217e+07
2.59742e+07
2.44138e+07
2.2852e+07
2.12722e+07
5.02523e+07
4.97871e+07
4.88269e+07
4.74771e+07
4.58244e+07
4.39594e+07
4.19409e+07
3.98402e+07
3.76997e+07
3.55649e+07
3.34768e+07
3.14353e+07
2.95163e+07
2.76521e+07
2.59221e+07
2.43617e+07
2.2853e+07
2.1519e+07
5.00024e+07
4.95377e+07
4.8578e+07
4.72312e+07
4.5583e+07
4.37228e+07
4.1711e+07
3.96166e+07
3.74842e+07
3.53575e+07
3.32778e+07
3.12481e+07
2.93351e+07
2.74881e+07
2.57779e+07
2.42225e+07
2.27875e+07
2.15748e+07
4.95669e+07
4.91052e+07
4.81478e+07
4.68062e+07
4.5166e+07
4.33142e+07
4.13141e+07
3.92302e+07
3.71126e+07
3.49993e+07
3.29355e+07
3.09236e+07
2.90279e+07
2.72002e+07
2.55196e+07
2.39887e+07
2.26025e+07
2.1502e+07
4.89021e+07
4.84406e+07
4.7488e+07
4.61558e+07
4.45274e+07
4.26902e+07
4.07059e+07
3.86413e+07
3.65427e+07
3.44536e+07
3.24101e+07
3.04289e+07
2.85557e+07
2.67641e+07
2.51358e+07
2.36272e+07
2.23462e+07
2.12822e+07
4.79533e+07
4.74893e+07
4.65461e+07
4.52274e+07
4.3617e+07
4.17996e+07
3.98399e+07
3.78009e+07
3.57325e+07
3.3673e+07
3.16637e+07
2.97166e+07
2.78818e+07
2.61366e+07
2.45578e+07
2.31187e+07
2.18921e+07
2.08359e+07
4.66589e+07
4.61936e+07
4.5266e+07
4.39636e+07
4.23792e+07
4.05875e+07
3.86635e+07
3.66578e+07
3.46322e+07
3.26118e+07
3.06508e+07
2.87494e+07
2.69658e+07
2.52785e+07
2.37567e+07
2.23776e+07
2.12093e+07
2.01816e+07
4.52175e+07
4.47538e+07
4.38425e+07
4.25579e+07
4.10023e+07
3.92402e+07
3.73547e+07
3.5388e+07
3.34078e+07
3.14335e+07
2.95223e+07
2.76746e+07
2.59425e+07
2.43183e+07
2.2845e+07
2.15291e+07
2.03934e+07
1.94338e+07
4.37034e+07
4.32431e+07
4.23481e+07
4.10833e+07
3.95572e+07
3.78276e+07
3.59815e+07
3.40572e+07
3.21231e+07
3.01984e+07
2.83382e+07
2.6546e+07
2.48678e+07
2.33043e+07
2.1883e+07
2.06232e+07
1.95294e+07
1.86309e+07
4.17641e+07
4.13105e+07
4.04349e+07
3.91977e+07
3.77081e+07
3.60224e+07
3.42251e+07
3.2357e+07
3.04802e+07
2.86203e+07
2.6823e+07
2.51023e+07
2.34902e+07
2.20014e+07
2.06463e+07
1.94542e+07
1.84172e+07
1.75646e+07
3.93165e+07
3.8873e+07
3.80209e+07
3.68205e+07
3.53767e+07
3.37481e+07
3.20129e+07
3.02158e+07
2.84121e+07
2.66325e+07
2.49154e+07
2.32808e+07
2.17524e+07
2.03497e+07
1.90777e+07
1.79622e+07
1.69922e+07
1.61858e+07
3.62944e+07
3.58658e+07
3.50419e+07
3.38905e+07
3.25039e+07
3.09486e+07
2.92907e+07
2.75827e+07
2.58695e+07
2.41888e+07
2.25699e+07
2.10383e+07
1.96107e+07
1.83073e+07
1.71318e+07
1.61007e+07
1.52063e+07
1.4453e+07
3.2683e+07
3.2273e+07
3.14855e+07
3.03951e+07
2.90809e+07
2.76145e+07
2.60525e+07
2.4451e+07
2.2848e+07
2.12837e+07
1.97816e+07
1.8369e+07
1.70578e+07
1.58666e+07
1.47977e+07
1.38602e+07
1.30489e+07
1.23607e+07
2.85731e+07
2.81859e+07
2.74452e+07
2.64272e+07
2.52012e+07
2.38384e+07
2.23903e+07
2.09109e+07
1.9436e+07
1.80027e+07
1.66334e+07
1.53515e+07
1.41688e+07
1.30982e+07
1.21428e+07
1.13056e+07
1.0583e+07
9.96893e+06
2.42503e+07
2.38896e+07
2.32049e+07
2.22677e+07
2.11419e+07
1.98932e+07
1.85707e+07
1.72237e+07
1.58865e+07
1.45919e+07
1.33616e+07
1.22147e+07
1.11625e+07
1.02135e+07
9.37056e+06
8.63344e+06
7.99903e+06
7.46062e+06
2.03048e+07
1.99727e+07
1.93477e+07
1.84922e+07
1.74679e+07
1.63324e+07
1.51336e+07
1.39147e+07
1.27093e+07
1.15455e+07
1.04439e+07
9.42038e+06
8.48476e+06
7.64314e+06
6.89742e+06
6.24631e+06
5.68665e+06
5.2122e+06
1.774e+07
1.74335e+07
1.68587e+07
1.60711e+07
1.51291e+07
1.40847e+07
1.29833e+07
1.18639e+07
1.07581e+07
9.6912e+06
8.6821e+06
7.74437e+06
6.88674e+06
6.11398e+06
5.42746e+06
4.82581e+06
4.30602e+06
3.86275e+06
1.7848e+07
1.75534e+07
1.70008e+07
1.62428e+07
1.53356e+07
1.43282e+07
1.32644e+07
1.21809e+07
1.11081e+07
1.00695e+07
9.08289e+06
8.161e+06
7.31193e+06
6.54017e+06
5.84712e+06
5.23195e+06
4.69214e+06
4.22335e+06
2.0724e+07
2.04249e+07
1.98625e+07
1.90896e+07
1.8163e+07
1.71318e+07
1.60394e+07
1.49227e+07
1.38113e+07
1.27288e+07
1.16929e+07
1.07161e+07
9.80667e+06
8.9695e+06
8.20645e+06
7.51745e+06
6.90066e+06
6.3527e+06
2.52097e+07
2.48978e+07
2.43075e+07
2.34935e+07
2.25154e+07
2.1424e+07
2.02639e+07
1.90727e+07
1.7881e+07
1.67128e+07
1.55863e+07
1.45145e+07
1.35063e+07
1.25672e+07
1.16997e+07
1.09046e+07
1.01807e+07
9.5255e+06
3.02677e+07
2.99416e+07
2.93181e+07
2.84548e+07
2.74143e+07
2.62498e+07
2.50077e+07
2.37272e+07
2.24399e+07
2.1171e+07
1.99393e+07
1.87588e+07
1.7639e+07
1.65861e+07
1.56035e+07
1.46926e+07
1.3853e+07
1.30829e+07
3.51801e+07
3.48424e+07
3.41878e+07
3.32775e+07
3.21769e+07
3.09412e+07
2.9619e+07
2.82509e+07
2.68701e+07
2.55027e+07
2.41686e+07
2.28825e+07
2.16548e+07
2.04925e+07
1.93996e+07
1.83782e+07
1.74285e+07
1.65496e+07
3.9528e+07
3.9182e+07
3.8502e+07
3.7552e+07
3.63998e+07
3.51025e+07
3.37102e+07
3.22652e+07
3.0802e+07
2.93477e+07
2.79233e+07
2.65441e+07
2.52215e+07
2.39629e+07
2.27732e+07
2.1655e+07
2.06091e+07
1.96349e+07
4.31226e+07
4.27714e+07
4.20722e+07
4.10912e+07
3.9898e+07
3.85508e+07
3.71016e+07
3.55937e+07
3.40629e+07
3.25372e+07
3.10384e+07
2.95826e+07
2.81818e+07
2.6844e+07
2.55747e+07
2.43769e+07
2.32518e+07
2.21995e+07
4.59301e+07
4.5576e+07
4.4863e+07
4.3859e+07
4.26348e+07
4.12496e+07
3.97564e+07
3.82e+07
3.66168e+07
3.50356e+07
3.34789e+07
3.19635e+07
3.05018e+07
2.91024e+07
2.77711e+07
2.65114e+07
2.53248e+07
2.42116e+07
4.80075e+07
4.76518e+07
4.69292e+07
4.59092e+07
4.46625e+07
4.32497e+07
4.17244e+07
4.01323e+07
3.85105e+07
3.68885e+07
3.52891e+07
3.37299e+07
3.22234e+07
3.07787e+07
2.94017e+07
2.80964e+07
2.68645e+07
2.57065e+07
4.94559e+07
4.90994e+07
4.83701e+07
4.73391e+07
4.60772e+07
4.46455e+07
4.30983e+07
4.14816e+07
3.98332e+07
3.81829e+07
3.65541e+07
3.49644e+07
3.34269e+07
3.19507e+07
3.05422e+07
2.92052e+07
2.79419e+07
2.67528e+07
5.03906e+07
5.0033e+07
4.92995e+07
4.82619e+07
4.69902e+07
4.55464e+07
4.39853e+07
4.23531e+07
4.06877e+07
3.90193e+07
3.73716e+07
3.57625e+07
3.4205e+07
3.27086e+07
3.12797e+07
2.99224e+07
2.8639e+07
2.74299e+07
5.09195e+07
5.05615e+07
4.98265e+07
4.87858e+07
4.75087e+07
4.60584e+07
4.44894e+07
4.28482e+07
4.1173e+07
3.94943e+07
3.78357e+07
3.62153e+07
3.46463e+07
3.31382e+07
3.16977e+07
3.03287e+07
2.90339e+07
2.78138e+07
5.11415e+07
5.07851e+07
5.00482e+07
4.90057e+07
4.77261e+07
4.62729e+07
4.47005e+07
4.30555e+07
4.13761e+07
3.96928e+07
3.80296e+07
3.64043e+07
3.48304e+07
3.33174e+07
3.18718e+07
3.0498e+07
2.91985e+07
2.79739e+07
6.04724e+07
6.04134e+07
6.02827e+07
6.00771e+07
5.97944e+07
5.94341e+07
5.89963e+07
5.84817e+07
5.78913e+07
5.72267e+07
5.64898e+07
5.56825e+07
5.48073e+07
5.38667e+07
5.28634e+07
5.18004e+07
5.0681e+07
4.95087e+07
4.8287e+07
4.702e+07
4.57114e+07
4.43656e+07
4.29865e+07
4.15786e+07
4.01465e+07
3.86945e+07
3.72273e+07
3.57492e+07
3.42648e+07
3.27785e+07
3.1295e+07
2.9819e+07
2.83548e+07
2.69072e+07
2.54808e+07
2.40801e+07
2.27098e+07
2.13745e+07
2.0079e+07
1.88281e+07
1.76266e+07
1.64794e+07
1.53915e+07
1.4368e+07
1.3414e+07
1.25348e+07
1.17357e+07
1.10221e+07
1.03993e+07
9.87288e+06
9.44825e+06
9.13086e+06
8.92611e+06
8.83928e+06
8.87545e+06
9.03946e+06
9.33585e+06
9.76888e+06
1.03424e+07
1.10597e+07
1.19235e+07
1.29359e+07
1.40985e+07
1.54118e+07
1.6876e+07
1.849e+07
2.02524e+07
2.21606e+07
2.42116e+07
2.64014e+07
2.87255e+07
3.11786e+07
3.37549e+07
3.64477e+07
3.92504e+07
4.21556e+07
4.51559e+07
4.82435e+07
5.14105e+07
5.4649e+07
5.79508e+07
6.13078e+07
6.47116e+07
6.81537e+07
7.16253e+07
7.51176e+07
7.86215e+07
8.21275e+07
8.56256e+07
8.91052e+07
9.25556e+07
9.59653e+07
9.93221e+07
1.02614e+08
1.05827e+08
1.0895e+08
1.11971e+08
1.14875e+08
1.17654e+08
1.20295e+08
1.2279e+08
1.25129e+08
1.27307e+08
1.29318e+08
1.31158e+08
1.32824e+08
1.34318e+08
1.35641e+08
1.36799e+08
1.37799e+08
1.38652e+08
1.39369e+08
1.39963e+08
1.40448e+08
1.40842e+08
1.41161e+08
1.41426e+08
1.41657e+08
1.41879e+08
1.42118e+08
1.42404e+08
1.4277e+08
1.43252e+08
1.4389e+08
1.44728e+08
1.45814e+08
1.47201e+08
1.48945e+08
1.51106e+08
1.53747e+08
1.56933e+08
1.60723e+08
1.65182e+08
1.70364e+08
1.76324e+08
1.83106e+08
1.90748e+08
1.99275e+08
2.08703e+08
2.19034e+08
2.30262e+08
2.42364e+08
2.55314e+08
2.69068e+08
2.83585e+08
2.98802e+08
3.14669e+08
3.31115e+08
3.48078e+08
3.65481e+08
3.83251e+08
4.01304e+08
4.1955e+08
4.37894e+08
4.56217e+08
4.74376e+08
4.9221e+08
5.09548e+08
5.26158e+08
5.41806e+08
5.56192e+08
5.69016e+08
5.79939e+08
5.88637e+08
5.94776e+08
5.98058e+08
5.98224e+08
5.95093e+08
5.8854e+08
5.7859e+08
5.65325e+08
5.49011e+08
5.29967e+08
5.08686e+08
4.85641e+08
4.61359e+08
4.36206e+08
4.10616e+08
3.84802e+08
3.59086e+08
5.93979e+07
5.93423e+07
5.92172e+07
5.90174e+07
5.87412e+07
5.83885e+07
5.796e+07
5.74568e+07
5.68799e+07
5.62309e+07
5.55115e+07
5.47237e+07
5.38697e+07
5.29517e+07
5.19725e+07
5.09347e+07
4.98414e+07
4.8696e+07
4.7502e+07
4.6263e+07
4.4983e+07
4.36659e+07
4.23159e+07
4.09373e+07
3.95343e+07
3.81115e+07
3.66731e+07
3.52235e+07
3.3767e+07
3.2308e+07
3.08511e+07
2.94008e+07
2.79617e+07
2.65381e+07
2.51348e+07
2.37561e+07
2.24066e+07
2.10909e+07
1.98138e+07
1.858e+07
1.73943e+07
1.62615e+07
1.51867e+07
1.41748e+07
1.32311e+07
1.23606e+07
1.15688e+07
1.08611e+07
1.02427e+07
9.71926e+06
9.29617e+06
8.97887e+06
8.77274e+06
8.68302e+06
8.71482e+06
8.87303e+06
9.16223e+06
9.58662e+06
1.015e+07
1.08557e+07
1.17064e+07
1.27043e+07
1.38507e+07
1.51464e+07
1.65913e+07
1.81847e+07
1.99248e+07
2.18092e+07
2.38347e+07
2.59977e+07
2.82933e+07
3.07164e+07
3.32612e+07
3.59211e+07
3.86894e+07
4.15588e+07
4.45221e+07
4.75714e+07
5.06989e+07
5.38966e+07
5.71565e+07
6.04704e+07
6.383e+07
6.7227e+07
7.06527e+07
7.40982e+07
7.75545e+07
8.10121e+07
8.44611e+07
8.78913e+07
9.12918e+07
9.46513e+07
9.79578e+07
1.01199e+08
1.04363e+08
1.07437e+08
1.10408e+08
1.13266e+08
1.15998e+08
1.18594e+08
1.21046e+08
1.23346e+08
1.25485e+08
1.2746e+08
1.29267e+08
1.30904e+08
1.3237e+08
1.33669e+08
1.34805e+08
1.35787e+08
1.36624e+08
1.37326e+08
1.37909e+08
1.38385e+08
1.3877e+08
1.39082e+08
1.3934e+08
1.39564e+08
1.39778e+08
1.40007e+08
1.40282e+08
1.40634e+08
1.41098e+08
1.41715e+08
1.42527e+08
1.43581e+08
1.44928e+08
1.46625e+08
1.48731e+08
1.51308e+08
1.54419e+08
1.58125e+08
1.62487e+08
1.6756e+08
1.73398e+08
1.80044e+08
1.87535e+08
1.95898e+08
2.05148e+08
2.15287e+08
2.2631e+08
2.38195e+08
2.50915e+08
2.64431e+08
2.78698e+08
2.93655e+08
3.09253e+08
3.25429e+08
3.42115e+08
3.59239e+08
3.76727e+08
3.945e+08
4.12468e+08
4.30541e+08
4.48598e+08
4.66501e+08
4.84091e+08
5.01202e+08
5.17609e+08
5.33074e+08
5.47316e+08
5.60034e+08
5.70894e+08
5.79577e+08
5.85755e+08
5.8914e+08
5.89473e+08
5.86579e+08
5.80327e+08
5.70728e+08
5.57858e+08
5.41971e+08
5.23374e+08
5.02548e+08
4.79953e+08
4.56101e+08
4.31358e+08
4.0615e+08
3.80688e+08
3.55211e+08
5.73335e+07
5.72804e+07
5.71609e+07
5.69695e+07
5.67049e+07
5.63676e+07
5.59587e+07
5.54793e+07
5.49301e+07
5.43126e+07
5.36281e+07
5.28783e+07
5.20652e+07
5.11907e+07
5.02572e+07
4.92673e+07
4.82237e+07
4.71295e+07
4.5988e+07
4.48026e+07
4.3577e+07
4.23151e+07
4.10209e+07
3.96983e+07
3.83515e+07
3.69843e+07
3.56008e+07
3.42053e+07
3.2802e+07
3.13952e+07
2.99894e+07
2.85887e+07
2.71977e+07
2.58206e+07
2.44618e+07
2.31256e+07
2.18166e+07
2.0539e+07
1.92976e+07
1.8097e+07
1.69419e+07
1.58372e+07
1.47877e+07
1.37985e+07
1.28746e+07
1.20212e+07
1.12438e+07
1.05476e+07
9.93798e+06
9.42042e+06
9.00036e+06
8.68323e+06
8.47444e+06
8.37922e+06
8.40267e+06
8.54968e+06
8.8248e+06
9.23226e+06
9.77587e+06
1.04589e+07
1.1284e+07
1.22533e+07
1.33682e+07
1.46293e+07
1.60366e+07
1.75892e+07
1.92854e+07
2.1123e+07
2.30986e+07
2.52086e+07
2.74482e+07
2.98124e+07
3.22953e+07
3.48906e+07
3.75915e+07
4.0391e+07
4.32817e+07
4.62561e+07
4.93065e+07
5.24249e+07
5.56033e+07
5.88337e+07
6.21078e+07
6.54174e+07
6.8754e+07
7.21088e+07
7.54729e+07
7.88369e+07
8.21912e+07
8.55257e+07
8.88295e+07
9.20917e+07
9.53007e+07
9.84447e+07
1.01512e+08
1.04489e+08
1.07365e+08
1.1013e+08
1.12771e+08
1.1528e+08
1.17648e+08
1.19867e+08
1.21932e+08
1.23836e+08
1.25579e+08
1.27156e+08
1.28569e+08
1.2982e+08
1.30914e+08
1.3186e+08
1.32666e+08
1.33342e+08
1.33903e+08
1.3436e+08
1.34729e+08
1.35026e+08
1.35269e+08
1.35479e+08
1.35677e+08
1.35888e+08
1.3614e+08
1.36463e+08
1.36893e+08
1.37465e+08
1.38223e+08
1.39211e+08
1.4048e+08
1.42084e+08
1.44079e+08
1.46528e+08
1.4949e+08
1.53027e+08
1.57196e+08
1.62053e+08
1.67647e+08
1.74023e+08
1.81216e+08
1.89255e+08
1.98152e+08
2.07912e+08
2.18528e+08
2.29981e+08
2.42247e+08
2.55289e+08
2.69061e+08
2.83507e+08
2.98573e+08
3.14208e+08
3.30345e+08
3.46911e+08
3.63837e+08
3.81049e+08
3.98461e+08
4.15983e+08
4.33499e+08
4.50881e+08
4.67969e+08
4.84605e+08
5.00573e+08
5.15644e+08
5.29552e+08
5.42005e+08
5.52682e+08
5.61281e+08
5.67483e+08
5.71014e+08
5.71626e+08
5.69146e+08
5.6344e+08
5.54496e+08
5.42387e+08
5.27338e+08
5.09633e+08
4.89728e+08
4.6805e+08
4.45079e+08
4.21187e+08
3.96774e+08
3.72063e+08
3.47228e+08
5.44409e+07
5.43916e+07
5.42796e+07
5.41004e+07
5.38536e+07
5.35401e+07
5.31608e+07
5.2716e+07
5.22067e+07
5.16337e+07
5.09981e+07
5.03012e+07
4.95445e+07
4.87298e+07
4.7859e+07
4.69346e+07
4.59591e+07
4.49353e+07
4.38661e+07
4.27549e+07
4.1605e+07
4.04199e+07
3.92033e+07
3.79587e+07
3.66895e+07
3.53995e+07
3.40926e+07
3.27725e+07
3.14436e+07
3.01098e+07
2.87753e+07
2.74442e+07
2.61205e+07
2.48084e+07
2.35118e+07
2.2235e+07
2.09823e+07
1.9758e+07
1.85666e+07
1.74125e+07
1.63005e+07
1.52351e+07
1.42213e+07
1.32639e+07
1.23681e+07
1.1539e+07
1.07818e+07
1.01019e+07
9.50458e+06
8.99537e+06
8.57966e+06
8.26286e+06
8.05036e+06
7.94736e+06
7.95895e+06
8.09002e+06
8.34514e+06
8.72851e+06
9.24388e+06
9.89449e+06
1.0683e+07
1.16115e+07
1.26813e+07
1.38931e+07
1.52468e+07
1.67414e+07
1.83752e+07
2.01461e+07
2.20509e+07
2.40857e+07
2.62461e+07
2.85269e+07
3.09226e+07
3.34267e+07
3.60328e+07
3.87338e+07
4.15228e+07
4.43922e+07
4.73346e+07
5.0342e+07
5.34067e+07
5.65207e+07
5.96759e+07
6.28641e+07
6.60769e+07
6.93057e+07
7.25419e+07
7.57763e+07
7.89991e+07
8.22007e+07
8.53705e+07
8.84976e+07
9.1571e+07
9.45791e+07
9.75104e+07
1.00353e+08
1.03097e+08
1.05731e+08
1.08245e+08
1.1063e+08
1.12879e+08
1.14986e+08
1.16944e+08
1.18749e+08
1.20398e+08
1.2189e+08
1.23227e+08
1.2441e+08
1.25445e+08
1.26338e+08
1.27099e+08
1.27737e+08
1.28265e+08
1.28694e+08
1.29039e+08
1.29313e+08
1.29535e+08
1.29721e+08
1.29895e+08
1.30079e+08
1.30298e+08
1.3058e+08
1.30957e+08
1.31466e+08
1.32145e+08
1.3304e+08
1.34198e+08
1.35669e+08
1.37509e+08
1.39776e+08
1.42527e+08
1.45825e+08
1.49723e+08
1.54275e+08
1.59528e+08
1.65525e+08
1.72301e+08
1.79884e+08
1.88288e+08
1.97518e+08
2.07566e+08
2.18418e+08
2.30051e+08
2.42435e+08
2.55519e+08
2.69254e+08
2.83586e+08
2.98472e+08
3.13849e+08
3.29649e+08
3.458e+08
3.6224e+08
3.78885e+08
3.95646e+08
4.12412e+08
4.29066e+08
4.45456e+08
4.61424e+08
4.76774e+08
4.91281e+08
5.04699e+08
5.16752e+08
5.2714e+08
5.3558e+08
5.41767e+08
5.45447e+08
5.4638e+08
5.444e+08
5.39373e+08
5.31273e+08
5.2016e+08
5.06223e+08
4.89725e+08
4.71078e+08
4.50667e+08
4.28933e+08
4.06238e+08
3.82956e+08
3.59325e+08
3.35497e+08
5.09205e+07
5.08765e+07
5.07746e+07
5.06117e+07
5.03881e+07
5.01044e+07
4.97608e+07
4.93576e+07
4.88956e+07
4.83754e+07
4.77975e+07
4.7163e+07
4.64731e+07
4.57294e+07
4.49336e+07
4.40877e+07
4.3194e+07
4.22549e+07
4.1273e+07
4.02513e+07
3.91928e+07
3.81004e+07
3.69773e+07
3.58265e+07
3.4651e+07
3.34545e+07
3.22403e+07
3.10123e+07
2.97741e+07
2.85296e+07
2.72823e+07
2.60361e+07
2.47947e+07
2.35618e+07
2.23413e+07
2.11371e+07
1.99534e+07
1.87943e+07
1.76641e+07
1.6567e+07
1.55076e+07
1.44905e+07
1.35204e+07
1.26022e+07
1.17408e+07
1.09413e+07
1.02089e+07
9.54893e+06
8.96672e+06
8.46769e+06
8.05722e+06
7.74071e+06
7.52353e+06
7.41088e+06
7.4078e+06
7.51913e+06
7.74942e+06
8.10279e+06
8.58298e+06
9.19321e+06
9.93613e+06
1.08138e+07
1.18275e+07
1.29778e+07
1.42646e+07
1.5687e+07
1.72434e+07
1.89314e+07
2.0748e+07
2.26895e+07
2.47516e+07
2.69291e+07
2.92165e+07
3.16077e+07
3.40964e+07
3.66758e+07
3.93389e+07
4.20786e+07
4.48875e+07
4.7758e+07
5.06823e+07
5.36529e+07
5.66616e+07
5.97005e+07
6.27614e+07
6.58357e+07
6.8915e+07
7.19904e+07
7.50523e+07
7.80913e+07
8.10972e+07
8.40596e+07
8.69678e+07
8.98106e+07
9.2577e+07
9.52564e+07
9.78385e+07
1.00314e+08
1.02673e+08
1.04907e+08
1.07011e+08
1.08978e+08
1.10805e+08
1.12487e+08
1.14022e+08
1.15409e+08
1.1665e+08
1.17749e+08
1.18709e+08
1.19536e+08
1.20239e+08
1.20828e+08
1.21314e+08
1.21706e+08
1.22018e+08
1.22262e+08
1.22455e+08
1.22613e+08
1.22754e+08
1.22901e+08
1.23076e+08
1.23306e+08
1.23619e+08
1.2405e+08
1.24635e+08
1.25415e+08
1.26435e+08
1.27746e+08
1.29396e+08
1.31443e+08
1.33938e+08
1.36944e+08
1.40511e+08
1.44691e+08
1.4953e+08
1.55068e+08
1.61339e+08
1.68371e+08
1.76179e+08
1.84768e+08
1.94134e+08
2.04262e+08
2.15132e+08
2.2672e+08
2.38978e+08
2.51862e+08
2.65318e+08
2.79309e+08
2.93777e+08
3.08663e+08
3.23893e+08
3.3941e+08
3.55136e+08
3.70986e+08
3.86853e+08
4.02628e+08
4.1817e+08
4.3333e+08
4.47923e+08
4.61742e+08
4.74547e+08
4.8609e+08
4.961e+08
5.04306e+08
5.1043e+08
5.14231e+08
5.15482e+08
5.14032e+08
5.09752e+08
5.02601e+08
4.92622e+08
4.79967e+08
4.64878e+08
4.47713e+08
4.28812e+08
4.0858e+08
3.87343e+08
3.65454e+08
3.4316e+08
3.20622e+08
4.6995e+07
4.6958e+07
4.68686e+07
4.67249e+07
4.65273e+07
4.62762e+07
4.59717e+07
4.5614e+07
4.52035e+07
4.47403e+07
4.42249e+07
4.36583e+07
4.30414e+07
4.23753e+07
4.16617e+07
4.0902e+07
4.00982e+07
3.92524e+07
3.83668e+07
3.74439e+07
3.64862e+07
3.54962e+07
3.44763e+07
3.34293e+07
3.23579e+07
3.12651e+07
3.01544e+07
2.9029e+07
2.78921e+07
2.6747e+07
2.55971e+07
2.44458e+07
2.32963e+07
2.21521e+07
2.10168e+07
1.98942e+07
1.8788e+07
1.77022e+07
1.66408e+07
1.5608e+07
1.46081e+07
1.36454e+07
1.27246e+07
1.18504e+07
1.10278e+07
1.02616e+07
9.55711e+06
8.91954e+06
8.35423e+06
7.86652e+06
7.4618e+06
7.14544e+06
6.92276e+06
6.79896e+06
6.77902e+06
6.86771e+06
7.06954e+06
7.38861e+06
7.82858e+06
8.39261e+06
9.08331e+06
9.90267e+06
1.0852e+07
1.19319e+07
1.31422e+07
1.4482e+07
1.59496e+07
1.75428e+07
1.92586e+07
2.10934e+07
2.30429e+07
2.51022e+07
2.72659e+07
2.95281e+07
3.18827e+07
3.43232e+07
3.68427e+07
3.94343e+07
4.20909e+07
4.48051e+07
4.75694e+07
5.03763e+07
5.32181e+07
5.60868e+07
5.89747e+07
6.18732e+07
6.47741e+07
6.76688e+07
7.05481e+07
7.34025e+07
7.62226e+07
7.89985e+07
8.17198e+07
8.4376e+07
8.69567e+07
8.94522e+07
9.1853e+07
9.41502e+07
9.63355e+07
9.84014e+07
1.00342e+08
1.02153e+08
1.03831e+08
1.05374e+08
1.06779e+08
1.08048e+08
1.09181e+08
1.10183e+08
1.11056e+08
1.11807e+08
1.12443e+08
1.12974e+08
1.13407e+08
1.13754e+08
1.14025e+08
1.14231e+08
1.14388e+08
1.1451e+08
1.14611e+08
1.14714e+08
1.14837e+08
1.15005e+08
1.15246e+08
1.15589e+08
1.16068e+08
1.1672e+08
1.17587e+08
1.18716e+08
1.20154e+08
1.21953e+08
1.24164e+08
1.26843e+08
1.3004e+08
1.33805e+08
1.38181e+08
1.43207e+08
1.48916e+08
1.55337e+08
1.62483e+08
1.70362e+08
1.78972e+08
1.88302e+08
1.98331e+08
2.09039e+08
2.20388e+08
2.32337e+08
2.44834e+08
2.57844e+08
2.71318e+08
2.85199e+08
2.99422e+08
3.13927e+08
3.28645e+08
3.4349e+08
3.58366e+08
3.73169e+08
3.87772e+08
4.02029e+08
4.15772e+08
4.2881e+08
4.40916e+08
4.51862e+08
4.61412e+08
4.69313e+08
4.75314e+08
4.79181e+08
4.80716e+08
4.79781e+08
4.7625e+08
4.7007e+08
4.61266e+08
4.49967e+08
4.36381e+08
4.20817e+08
4.03567e+08
3.84997e+08
3.65391e+08
3.45075e+08
3.24299e+08
3.03253e+08
4.28892e+07
4.28597e+07
4.27838e+07
4.26605e+07
4.249e+07
4.22726e+07
4.20083e+07
4.16972e+07
4.13391e+07
4.09341e+07
4.04829e+07
3.99859e+07
3.94439e+07
3.88578e+07
3.82288e+07
3.75581e+07
3.68472e+07
3.6098e+07
3.53121e+07
3.44916e+07
3.36382e+07
3.2754e+07
3.18411e+07
3.09018e+07
2.99386e+07
2.89542e+07
2.79514e+07
2.69331e+07
2.59019e+07
2.48609e+07
2.38129e+07
2.27608e+07
2.17077e+07
2.06568e+07
1.96112e+07
1.85745e+07
1.75501e+07
1.65417e+07
1.5553e+07
1.4588e+07
1.36508e+07
1.27456e+07
1.18769e+07
1.10493e+07
1.02675e+07
9.5366e+06
8.86157e+06
8.24764e+06
7.70007e+06
7.22421e+06
6.8254e+06
6.50894e+06
6.28013e+06
6.14411e+06
6.10584e+06
6.17005e+06
6.34118e+06
6.62327e+06
7.0199e+06
7.5342e+06
8.16869e+06
8.92531e+06
9.80533e+06
1.08093e+07
1.19371e+07
1.31878e+07
1.45598e+07
1.60508e+07
1.76579e+07
1.93775e+07
2.12055e+07
2.31373e+07
2.51674e+07
2.72904e+07
2.95001e+07
3.17904e+07
3.41547e+07
3.65864e+07
3.90784e+07
4.16236e+07
4.42149e+07
4.6845e+07
4.95063e+07
5.21912e+07
5.4892e+07
5.76007e+07
6.03091e+07
6.30088e+07
6.5691e+07
6.83466e+07
7.09667e+07
7.35418e+07
7.60622e+07
7.85182e+07
8.09001e+07
8.31991e+07
8.54065e+07
8.75144e+07
8.95151e+07
9.14024e+07
9.31709e+07
9.48169e+07
9.63379e+07
9.77324e+07
9.90003e+07
1.00142e+08
1.01159e+08
1.02055e+08
1.02835e+08
1.03502e+08
1.04063e+08
1.04528e+08
1.04902e+08
1.05196e+08
1.05419e+08
1.05581e+08
1.05695e+08
1.05774e+08
1.05831e+08
1.05883e+08
1.05949e+08
1.06051e+08
1.06212e+08
1.06461e+08
1.06828e+08
1.07345e+08
1.08051e+08
1.08987e+08
1.10201e+08
1.11739e+08
1.1365e+08
1.15987e+08
1.18796e+08
1.22124e+08
1.26014e+08
1.30502e+08
1.35623e+08
1.41403e+08
1.47859e+08
1.54997e+08
1.62818e+08
1.71315e+08
1.80471e+08
1.90269e+08
2.00676e+08
2.11656e+08
2.23162e+08
2.35163e+08
2.4761e+08
2.60455e+08
2.73635e+08
2.87096e+08
3.00767e+08
3.14569e+08
3.28413e+08
3.42203e+08
3.5582e+08
3.69122e+08
3.81957e+08
3.94153e+08
4.05497e+08
4.15783e+08
4.24799e+08
4.32324e+08
4.38129e+08
4.41996e+08
4.43751e+08
4.43273e+08
4.40437e+08
4.35184e+08
4.27523e+08
4.17569e+08
4.05491e+08
3.91554e+08
3.76001e+08
3.5916e+08
3.41267e+08
3.22624e+08
3.03472e+08
2.84034e+08
3.8816e+07
3.87939e+07
3.87314e+07
3.86282e+07
3.84844e+07
3.83001e+07
3.80751e+07
3.78091e+07
3.75021e+07
3.71543e+07
3.67659e+07
3.63372e+07
3.58687e+07
3.53609e+07
3.48149e+07
3.42315e+07
3.36119e+07
3.29573e+07
3.22692e+07
3.15488e+07
3.07977e+07
3.00176e+07
2.921e+07
2.83771e+07
2.75208e+07
2.66435e+07
2.57476e+07
2.48353e+07
2.3909e+07
2.29711e+07
2.20242e+07
2.10708e+07
2.01136e+07
1.91555e+07
1.81993e+07
1.72483e+07
1.63054e+07
1.53742e+07
1.44581e+07
1.35608e+07
1.26862e+07
1.18385e+07
1.10219e+07
1.02408e+07
9.49999e+06
8.80428e+06
8.15867e+06
7.5683e+06
7.03838e+06
6.5742e+06
6.18104e+06
5.86418e+06
5.62883e+06
5.48009e+06
5.4229e+06
5.46193e+06
5.60154e+06
5.84569e+06
6.19792e+06
6.66126e+06
7.23819e+06
7.93053e+06
8.73954e+06
9.66573e+06
1.07089e+07
1.18682e+07
1.3142e+07
1.45279e+07
1.60232e+07
1.76244e+07
1.93274e+07
2.11278e+07
2.30203e+07
2.49996e+07
2.70599e+07
2.91951e+07
3.13991e+07
3.36652e+07
3.59868e+07
3.83572e+07
4.07693e+07
4.32161e+07
4.56903e+07
4.81846e+07
5.06915e+07
5.32032e+07
5.57117e+07
5.82092e+07
6.06871e+07
6.31369e+07
6.55501e+07
6.79175e+07
7.02303e+07
7.24798e+07
7.46572e+07
7.67542e+07
7.87632e+07
8.06772e+07
8.24893e+07
8.41943e+07
8.57875e+07
8.72658e+07
8.86271e+07
8.9871e+07
9.09984e+07
9.201e+07
9.29076e+07
9.36945e+07
9.4375e+07
9.49536e+07
9.54361e+07
9.58291e+07
9.6139e+07
9.63739e+07
9.65432e+07
9.6656e+07
9.67221e+07
9.67528e+07
9.67603e+07
9.67585e+07
9.67636e+07
9.67959e+07
9.68757e+07
9.70277e+07
9.72793e+07
9.76599e+07
9.82029e+07
9.89478e+07
9.99361e+07
1.01213e+08
1.02825e+08
1.04818e+08
1.07237e+08
1.10126e+08
1.13528e+08
1.17479e+08
1.22012e+08
1.27152e+08
1.32917e+08
1.39316e+08
1.46353e+08
1.54024e+08
1.62313e+08
1.71209e+08
1.80683e+08
1.90704e+08
2.01231e+08
2.12237e+08
2.23673e+08
2.35493e+08
2.47642e+08
2.60067e+08
2.72699e+08
2.85465e+08
2.98281e+08
3.11055e+08
3.23673e+08
3.36004e+08
3.47908e+08
3.59229e+08
3.69771e+08
3.79351e+08
3.87776e+08
3.94855e+08
4.00387e+08
4.04173e+08
4.06065e+08
4.05949e+08
4.03712e+08
3.9929e+08
3.92685e+08
3.83994e+08
3.73356e+08
3.60995e+08
3.47111e+08
3.31985e+08
3.15813e+08
2.98867e+08
2.81378e+08
2.63599e+08
3.49624e+07
3.49471e+07
3.48969e+07
3.48123e+07
3.46935e+07
3.454e+07
3.43516e+07
3.41281e+07
3.38692e+07
3.3575e+07
3.32454e+07
3.28806e+07
3.24809e+07
3.20466e+07
3.15784e+07
3.10768e+07
3.05427e+07
2.99769e+07
2.93803e+07
2.8754e+07
2.80992e+07
2.74169e+07
2.67087e+07
2.59761e+07
2.52208e+07
2.44446e+07
2.36495e+07
2.28373e+07
2.201e+07
2.11697e+07
2.03184e+07
1.94585e+07
1.85922e+07
1.77221e+07
1.68508e+07
1.5981e+07
1.51155e+07
1.42576e+07
1.34104e+07
1.25774e+07
1.17624e+07
1.09692e+07
1.02021e+07
9.46523e+06
8.76331e+06
8.10106e+06
7.48337e+06
6.91531e+06
6.40199e+06
5.94867e+06
5.56055e+06
5.24286e+06
5.00076e+06
4.83934e+06
4.76344e+06
4.77768e+06
4.88635e+06
5.09335e+06
5.40211e+06
5.81555e+06
6.33607e+06
6.96546e+06
7.70485e+06
8.55469e+06
9.51475e+06
1.05841e+07
1.17612e+07
1.30436e+07
1.44287e+07
1.59128e+07
1.74923e+07
1.91625e+07
2.09187e+07
2.27555e+07
2.46674e+07
2.66485e+07
2.86927e+07
3.07938e+07
3.29454e+07
3.5141e+07
3.73739e+07
3.96372e+07
4.19241e+07
4.42272e+07
4.65395e+07
4.88534e+07
5.11614e+07
5.34558e+07
5.57286e+07
5.79717e+07
6.01772e+07
6.23366e+07
6.44418e+07
6.64849e+07
6.84579e+07
7.03534e+07
7.21646e+07
7.38853e+07
7.55098e+07
7.70336e+07
7.84529e+07
7.97647e+07
8.09684e+07
8.20637e+07
8.30517e+07
8.39336e+07
8.47115e+07
8.53885e+07
8.59687e+07
8.64564e+07
8.6857e+07
8.71756e+07
8.74176e+07
8.75901e+07
8.77013e+07
8.77597e+07
8.77735e+07
8.77522e+07
8.77064e+07
8.76477e+07
8.75908e+07
8.75526e+07
8.75508e+07
8.76069e+07
8.77455e+07
8.79931e+07
8.83798e+07
8.89409e+07
8.97144e+07
9.07415e+07
9.20644e+07
9.37262e+07
9.57696e+07
9.82373e+07
1.01169e+08
1.04603e+08
1.08567e+08
1.1309e+08
1.1819e+08
1.2388e+08
1.30164e+08
1.37042e+08
1.44502e+08
1.52537e+08
1.6112e+08
1.70226e+08
1.7982e+08
1.89877e+08
2.00351e+08
2.11194e+08
2.22355e+08
2.33785e+08
2.45419e+08
2.57187e+08
2.69007e+08
2.8079e+08
2.92428e+08
3.03795e+08
3.14771e+08
3.25206e+08
3.34928e+08
3.4377e+08
3.5156e+08
3.58131e+08
3.63314e+08
3.6693e+08
3.68856e+08
3.6899e+08
3.67228e+08
3.6351e+08
3.57836e+08
3.50283e+08
3.40964e+08
3.30073e+08
3.17767e+08
3.0428e+08
2.89777e+08
2.74495e+08
2.58652e+08
2.42524e+08
3.14799e+07
3.14703e+07
3.14307e+07
3.13627e+07
3.1266e+07
3.11401e+07
3.09848e+07
3.07996e+07
3.05841e+07
3.03383e+07
3.00618e+07
2.97547e+07
2.94171e+07
2.90491e+07
2.86509e+07
2.82231e+07
2.77659e+07
2.72799e+07
2.67657e+07
2.62241e+07
2.56559e+07
2.50619e+07
2.44433e+07
2.38012e+07
2.31369e+07
2.2452e+07
2.17479e+07
2.1026e+07
2.02881e+07
1.95359e+07
1.8771e+07
1.79956e+07
1.72114e+07
1.64208e+07
1.56261e+07
1.48296e+07
1.40341e+07
1.32424e+07
1.24574e+07
1.16826e+07
1.09214e+07
1.01776e+07
9.45522e+06
8.75838e+06
8.09158e+06
7.45948e+06
6.86693e+06
6.31886e+06
5.82034e+06
5.37651e+06
4.99255e+06
4.67362e+06
4.42484e+06
4.25125e+06
4.15765e+06
4.14855e+06
4.22816e+06
4.4003e+06
4.66827e+06
5.03489e+06
5.50246e+06
6.07267e+06
6.74654e+06
7.52447e+06
8.40614e+06
9.39057e+06
1.04761e+07
1.16605e+07
1.29408e+07
1.43137e+07
1.57753e+07
1.73214e+07
1.89471e+07
2.06474e+07
2.24168e+07
2.42496e+07
2.614e+07
2.80818e+07
3.0069e+07
3.20952e+07
3.41541e+07
3.62391e+07
3.83435e+07
4.04604e+07
4.25828e+07
4.47036e+07
4.68157e+07
4.89117e+07
5.09841e+07
5.30254e+07
5.5028e+07
5.69843e+07
5.88869e+07
6.07286e+07
6.25022e+07
6.42013e+07
6.58196e+07
6.7352e+07
6.87938e+07
7.01413e+07
7.13914e+07
7.25419e+07
7.35924e+07
7.45432e+07
7.53955e+07
7.61507e+07
7.68111e+07
7.73795e+07
7.78598e+07
7.82563e+07
7.85735e+07
7.88154e+07
7.89873e+07
7.90951e+07
7.91457e+07
7.91464e+07
7.91047e+07
7.90282e+07
7.89266e+07
7.88096e+07
7.86903e+07
7.85828e+07
7.85024e+07
7.84675e+07
7.84999e+07
7.86237e+07
7.88658e+07
7.92578e+07
7.98335e+07
8.06296e+07
8.1685e+07
8.30403e+07
8.47353e+07
8.68106e+07
8.93051e+07
9.22542e+07
9.56887e+07
9.9635e+07
1.04115e+08
1.09143e+08
1.14725e+08
1.20865e+08
1.27556e+08
1.3479e+08
1.42548e+08
1.50806e+08
1.59537e+08
1.68713e+08
1.78294e+08
1.88232e+08
1.98474e+08
2.08976e+08
2.19676e+08
2.30503e+08
2.4138e+08
2.52216e+08
2.62909e+08
2.73344e+08
2.83408e+08
2.92963e+08
3.01861e+08
3.09947e+08
3.17068e+08
3.23079e+08
3.27843e+08
3.31198e+08
3.3305e+08
3.33311e+08
3.3189e+08
3.28735e+08
3.23844e+08
3.17276e+08
3.09129e+08
2.9956e+08
2.887e+08
2.76733e+08
2.63802e+08
2.50104e+08
2.35845e+08
2.21312e+08
2.84785e+07
2.84731e+07
2.84422e+07
2.8388e+07
2.83102e+07
2.82082e+07
2.80814e+07
2.79294e+07
2.77517e+07
2.75479e+07
2.73177e+07
2.70609e+07
2.67772e+07
2.64668e+07
2.61294e+07
2.57654e+07
2.53748e+07
2.49579e+07
2.4515e+07
2.40466e+07
2.35532e+07
2.30354e+07
2.2494e+07
2.19299e+07
2.13442e+07
2.07379e+07
2.01121e+07
1.94681e+07
1.88072e+07
1.81307e+07
1.74402e+07
1.67373e+07
1.60238e+07
1.53014e+07
1.45725e+07
1.3839e+07
1.31035e+07
1.23686e+07
1.16372e+07
1.09123e+07
1.01973e+07
9.49593e+06
8.81188e+06
8.14931e+06
7.51258e+06
6.90626e+06
6.3351e+06
5.80397e+06
5.31786e+06
4.88183e+06
4.50101e+06
4.18053e+06
3.92544e+06
3.7407e+06
3.63102e+06
3.60085e+06
3.65432e+06
3.79512e+06
4.02646e+06
4.35103e+06
4.77098e+06
5.28787e+06
5.90264e+06
6.61553e+06
7.42613e+06
8.33336e+06
9.33551e+06
1.04303e+07
1.16148e+07
1.28855e+07
1.42387e+07
1.56702e+07
1.71752e+07
1.87488e+07
2.03855e+07
2.208e+07
2.38264e+07
2.56189e+07
2.74514e+07
2.93179e+07
3.12123e+07
3.31284e+07
3.50596e+07
3.69993e+07
3.89409e+07
4.08777e+07
4.28027e+07
4.47092e+07
4.659e+07
4.84382e+07
5.02468e+07
5.20089e+07
5.37176e+07
5.53665e+07
5.69492e+07
5.84601e+07
5.98938e+07
6.12461e+07
6.25133e+07
6.36922e+07
6.47804e+07
6.57765e+07
6.66803e+07
6.74922e+07
6.82138e+07
6.88467e+07
6.93927e+07
6.98551e+07
7.02373e+07
7.0543e+07
7.07761e+07