/*--------------------------------*- C++ -*----------------------------------*\
| =========                 |                                                 |
| \\      /  F ield         | OpenFOAM: The Open Source CFD Toolbox           |
|  \\    /   O peration     | Version:  dev                                   |
|   \\  /    A nd           | Web:      http://www.openfoam.org               |
|    \\/     M anipulation  |                                                 |
\*---------------------------------------------------------------------------*/
FoamFile
{
    version     2.0;
    format      ascii;
    class       volScalarField;
    object      rho;
    location    "9.152";
}
// * * * * * * * * * * * * * * * * * * * * * * * * * * * * * * * * * * * * * //

dimensions      [1 -3 0 0 0 0 0];

internalField   nonuniform List<scalar> 
12225
(
1.03795
1.03979
1.04036
1.04228
1.04459
1.0478
1.05077
1.05478
1.05778
1.06242
1.06502
1.07023
1.07239
1.0774
1.08155
1.08156
1.09323
1.09288
1.04015
1.04117
1.04093
1.04365
1.04524
1.04993
1.05186
1.05802
1.05938
1.06681
1.06697
1.07538
1.07508
1.08192
1.08591
1.08577
1.09565
1.09693
1.03972
1.04129
1.04042
1.04417
1.0448
1.05043
1.05143
1.05846
1.05962
1.06709
1.06891
1.07522
1.07849
1.083
1.08656
1.09179
1.09491
1.1021
1.03925
1.04167
1.04045
1.04448
1.04529
1.04991
1.05223
1.0568
1.06097
1.06412
1.0702
1.0724
1.07954
1.08049
1.08754
1.08876
1.09517
1.09831
1.03955
1.04157
1.04108
1.04434
1.04627
1.04939
1.05276
1.05624
1.06118
1.06375
1.06879
1.07264
1.07811
1.08096
1.08652
1.08931
1.09456
1.09848
1.04039
1.04136
1.04204
1.04424
1.04694
1.04915
1.05335
1.05663
1.06116
1.0638
1.06892
1.07329
1.07808
1.08085
1.08627
1.08968
1.09445
1.09724
1.04146
1.04141
1.04303
1.04449
1.04742
1.04952
1.05394
1.05712
1.06106
1.06452
1.06952
1.07397
1.07813
1.08143
1.08585
1.09032
1.0938
1.09732
1.04225
1.04173
1.04388
1.04502
1.04783
1.05024
1.05467
1.05757
1.06169
1.06524
1.07004
1.07413
1.07858
1.08205
1.08609
1.0902
1.09364
1.09691
1.04283
1.04254
1.04441
1.04581
1.04857
1.05101
1.05529
1.05825
1.06218
1.06573
1.07055
1.07479
1.07897
1.0828
1.08671
1.09034
1.09355
1.09686
1.04397
1.04345
1.04489
1.0467
1.04958
1.05193
1.05579
1.05901
1.06302
1.06694
1.07133
1.07523
1.07946
1.08308
1.08689
1.09025
1.09354
1.09718
1.04506
1.04474
1.04682
1.04764
1.05038
1.05347
1.05696
1.05974
1.06364
1.06792
1.07228
1.076
1.08032
1.08377
1.08714
1.09058
1.09385
1.09732
1.04669
1.04667
1.04758
1.04944
1.05201
1.05442
1.05801
1.06135
1.06502
1.06859
1.07318
1.07699
1.0805
1.08391
1.08722
1.09097
1.09395
1.09668
1.04862
1.04887
1.04958
1.0513
1.05389
1.05657
1.05942
1.06302
1.06674
1.0705
1.07421
1.07772
1.08122
1.08482
1.08819
1.09105
1.09395
1.09715
1.05165
1.05193
1.0522
1.05409
1.05614
1.05889
1.06203
1.06531
1.06876
1.07248
1.07578
1.07929
1.08273
1.08581
1.0891
1.09206
1.09498
1.09737
1.05575
1.0556
1.05585
1.0576
1.05965
1.06232
1.06521
1.06846
1.07173
1.07509
1.07851
1.08183
1.08487
1.08818
1.09109
1.09389
1.09649
1.09911
1.06064
1.06064
1.06085
1.06237
1.06439
1.06695
1.06969
1.07267
1.07585
1.0791
1.08227
1.08546
1.08845
1.09142
1.09425
1.09698
1.0994
1.10169
1.06737
1.06728
1.06735
1.06871
1.0707
1.07296
1.07558
1.07849
1.0815
1.08453
1.08755
1.09059
1.09357
1.09636
1.09905
1.10152
1.10379
1.10596
1.07511
1.07489
1.07482
1.07615
1.07796
1.08002
1.08275
1.08564
1.08851
1.09146
1.09432
1.09742
1.10039
1.10305
1.10574
1.10797
1.11033
1.11248
1.0829
1.08254
1.08234
1.08369
1.08539
1.08729
1.09011
1.09304
1.09579
1.09877
1.1014
1.10471
1.10775
1.11049
1.11328
1.1154
1.11784
1.11991
1.08933
1.08893
1.08869
1.09011
1.09192
1.09367
1.09681
1.09976
1.10238
1.1054
1.10787
1.11141
1.11448
1.11744
1.12018
1.12235
1.1249
1.12695
1.09453
1.09441
1.09424
1.09575
1.09746
1.09911
1.10252
1.10519
1.10781
1.11105
1.11377
1.11749
1.12057
1.12374
1.12648
1.12882
1.13143
1.13346
1.09912
1.09902
1.09878
1.10028
1.10203
1.10388
1.1069
1.10951
1.1125
1.11581
1.11872
1.1223
1.1253
1.1287
1.13158
1.13428
1.13699
1.1391
1.1022
1.10251
1.10236
1.10362
1.1056
1.10761
1.1103
1.11326
1.11654
1.11962
1.12264
1.12596
1.12903
1.13249
1.13553
1.13858
1.14147
1.14389
1.10482
1.10511
1.10515
1.10643
1.10833
1.11059
1.11329
1.11604
1.11921
1.12238
1.12577
1.12915
1.1324
1.13572
1.13878
1.14189
1.14471
1.14746
1.10674
1.10702
1.10723
1.10847
1.11018
1.11239
1.115
1.11791
1.12105
1.12433
1.12771
1.13102
1.13437
1.13755
1.14064
1.14363
1.14646
1.14923
1.10803
1.10834
1.10851
1.10973
1.11155
1.11373
1.11639
1.11939
1.12258
1.12594
1.12929
1.13267
1.136
1.13923
1.14237
1.14533
1.14818
1.15082
1.10899
1.10945
1.10967
1.11087
1.11267
1.11489
1.11754
1.12043
1.12356
1.12686
1.1303
1.13382
1.13735
1.14077
1.14406
1.14719
1.15015
1.15298
1.10957
1.10982
1.11002
1.11132
1.11322
1.11556
1.11835
1.1214
1.12478
1.12831
1.13206
1.13579
1.13954
1.14309
1.14654
1.14976
1.15288
1.15579
1.11006
1.11045
1.1105
1.11175
1.11372
1.11624
1.11924
1.12258
1.12616
1.12983
1.13356
1.13713
1.14066
1.14393
1.14717
1.1501
1.15309
1.15563
1.10951
1.11039
1.1107
1.11198
1.11388
1.11622
1.11884
1.12164
1.12454
1.12746
1.13038
1.13323
1.13602
1.13869
1.14128
1.14372
1.14607
1.14806
1.22055
1.24085
1.23707
1.2353
1.23419
1.23266
1.23132
1.22989
1.2288
1.22802
1.22711
1.22635
1.22546
1.22496
1.22468
1.22459
1.2243
1.22372
1.22296
1.2222
1.22154
1.22087
1.22004
1.21917
1.2182
1.21705
1.21601
1.21546
1.21552
1.21569
1.21521
1.21405
1.21281
1.21166
1.21037
1.20874
1.20679
1.2045
1.20196
1.19877
1.19472
1.18979
1.18373
1.1775
1.17385
1.17381
1.17605
1.17479
1.16957
1.16629
1.16265
1.15779
1.15522
1.15309
1.14968
1.14532
1.14231
1.13995
1.13799
1.13641
1.13596
1.13494
1.13326
1.13044
1.12617
1.12224
1.11883
1.11588
1.11333
1.11045
1.10712
1.10339
1.09835
1.0947
1.09339
1.08007
1.06626
1.07108
1.07744
1.07838
1.0789
1.07932
1.07885
1.07659
1.07066
1.05641
1.04262
1.04264
1.05132
1.05766
1.06072
1.06327
1.06552
1.06719
1.06841
1.06963
1.07125
1.0731
1.07484
1.07595
1.07647
1.07714
1.07902
1.08204
1.08399
1.08237
1.07969
1.08501
1.08684
1.08425
1.08554
1.08581
1.08607
1.08518
1.0852
1.08548
1.08623
1.08641
1.08482
1.08373
1.08411
1.08428
1.08298
1.08077
1.07953
1.07859
1.07871
1.07965
1.08074
1.08187
1.0836
1.08519
1.08605
1.08792
1.08758
1.08802
1.08739
1.08887
1.08943
1.09
1.0893
1.09004
1.0929
1.0976
1.10384
1.1037
1.10734
1.08505
1.08311
1.07451
1.07749
1.07159
1.0721
1.07338
1.08056
1.08526
1.06618
1.06169
1.05934
1.06498
1.06334
1.0489
1.04797
1.0595
1.06489
1.05751
1.05932
1.07923
1.10852
1.08924
1.09739
1.10043
1.08483
1.08349
1.07747
1.06285
1.04919
1.05844
1.02704
1.02897
1.22143
1.24496
1.23779
1.23495
1.23445
1.23404
1.23258
1.23289
1.23344
1.23476
1.23539
1.23541
1.23521
1.23594
1.23751
1.23922
1.24044
1.24052
1.23966
1.23859
1.23778
1.23693
1.23602
1.23497
1.23395
1.23353
1.23424
1.23571
1.23659
1.236
1.23433
1.23266
1.23122
1.22941
1.22748
1.22548
1.22347
1.22163
1.21995
1.21772
1.21486
1.21179
1.20871
1.20518
1.20106
1.19682
1.19528
1.19599
1.18945
1.18379
1.18445
1.17274
1.15998
1.16538
1.16872
1.1614
1.15437
1.15207
1.15169
1.15004
1.15208
1.15471
1.15448
1.15178
1.14355
1.13678
1.13262
1.12891
1.12613
1.12369
1.11982
1.11379
1.1087
1.10656
1.10576
1.10221
1.0919
1.08079
1.07758
1.07981
1.08252
1.08794
1.0948
1.09499
1.08578
1.07826
1.07924
1.08323
1.08607
1.08784
1.08913
1.0898
1.08831
1.0854
1.08227
1.0809
1.08165
1.08373
1.08504
1.08427
1.08166
1.07976
1.08088
1.08445
1.08742
1.09078
1.07053
1.08166
1.09274
1.08517
1.08849
1.09016
1.09315
1.08903
1.08903
1.08654
1.08737
1.09704
1.10532
1.09699
1.08818
1.09131
1.10603
1.11756
1.11978
1.11858
1.11186
1.10538
1.1066
1.11737
1.12662
1.13368
1.13563
1.14038
1.14888
1.15581
1.15617
1.15602
1.15146
1.15097
1.14675
1.14702
1.15567
1.17373
1.19349
1.18916
1.17709
1.17758
1.17624
1.14412
1.15233
1.1461
1.15334
1.16497
1.19655
1.20859
1.18802
1.18633
1.17543
1.17672
1.1911
1.17706
1.15277
1.16771
1.18803
1.18687
1.20872
1.25387
1.29239
1.29271
1.25746
1.25867
1.24212
1.24324
1.16816
1.21886
1.20179
1.22329
1.14344
1.19581
1.21468
1.23672
1.23188
1.23301
1.23306
1.2342
1.23379
1.23619
1.24048
1.24523
1.24848
1.25153
1.25359
1.2535
1.24899
1.24003
1.23401
1.23064
1.2287
1.22951
1.23033
1.23282
1.23479
1.23662
1.23811
1.23943
1.23884
1.23459
1.23016
1.22714
1.22432
1.21989
1.21659
1.21485
1.21367
1.21223
1.21063
1.20881
1.20707
1.20569
1.205
1.20449
1.20303
1.19969
1.1959
1.19479
1.19627
1.19636
1.191
1.18349
1.18304
1.18679
1.18167
1.17373
1.1709
1.17227
1.16927
1.15673
1.14945
1.14768
1.14741
1.15085
1.15152
1.15335
1.15029
1.14074
1.13286
1.12941
1.12703
1.12307
1.11918
1.11462
1.10506
1.10167
1.10832
1.10943
1.0982
1.09164
1.08607
1.07504
1.07962
1.08802
1.08907
1.08909
1.08888
1.08855
1.08811
1.08634
1.08305
1.08083
1.08078
1.08026
1.07763
1.07223
1.0656
1.06082
1.05933
1.06086
1.06322
1.06513
1.06568
1.06541
1.06296
1.05838
1.05705
1.07568
1.05641
1.05441
1.06223
1.05895
1.06422
1.07176
1.07321
1.06953
1.07714
1.07245
1.05737
1.05313
1.07822
1.09492
1.08514
1.05735
1.04701
1.07271
1.10143
1.10797
1.10574
1.10532
1.10016
1.09761
1.10067
1.10865
1.12656
1.14019
1.14596
1.15599
1.17403
1.19094
1.19503
1.17719
1.17178
1.18506
1.19224
1.20272
1.18908
1.14086
1.0535
1.1881
1.21335
1.19283
1.19291
1.18415
1.19079
1.19561
1.20867
1.1806
1.23857
1.24011
1.23405
1.2137
1.19689
1.21442
1.20893
1.21236
1.23948
1.25599
1.27343
1.30291
1.32789
1.37681
1.31073
1.2445
1.20545
1.19015
1.04487
1.15744
1.09794
1.06499
1.14691
1.2408
1.20796
1.23166
1.22608
1.22972
1.23264
1.23451
1.2359
1.24023
1.24754
1.24981
1.23884
1.22784
1.22478
1.21914
1.21603
1.21958
1.2206
1.22833
1.23398
1.23749
1.24102
1.23844
1.23845
1.23622
1.23453
1.22839
1.22441
1.22073
1.21643
1.21125
1.2072
1.20557
1.20299
1.20136
1.19894
1.19791
1.19691
1.19588
1.19473
1.19322
1.19127
1.18946
1.18826
1.18696
1.18525
1.18264
1.18067
1.18123
1.18243
1.18066
1.17533
1.17278
1.17448
1.17648
1.17596
1.17001
1.16503
1.15906
1.15785
1.1605
1.15359
1.14674
1.1422
1.13799
1.13711
1.13569
1.13187
1.12917
1.12767
1.12553
1.11806
1.11278
1.11064
1.10544
1.10496
1.10882
1.10766
1.10033
1.08774
1.08393
1.09521
1.09989
1.10013
1.09993
1.09885
1.09937
1.09558
1.08614
1.07894
1.07636
1.07611
1.07606
1.07408
1.07014
1.06634
1.0639
1.06272
1.06189
1.06073
1.06117
1.06466
1.06852
1.06626
1.05707
1.04924
1.06687
1.04141
1.03172
1.07887
1.05436
1.04402
1.07131
1.06961
1.05562
1.06802
1.08259
1.07661
1.05487
1.05305
1.05893
1.07881
1.09776
1.08504
1.05961
1.07173
1.09536
1.0915
1.08501
1.09325
1.107
1.10425
1.08902
1.10768
1.12719
1.12342
1.13459
1.14554
1.14452
1.20138
1.21094
1.16687
1.15985
1.17839
1.17493
1.1159
1.03029
0.914342
1.13376
1.17387
1.20463
1.2118
1.20871
1.21002
1.19757
1.16268
1.04447
1.19419
1.24933
1.22866
1.2138
1.1642
1.17304
1.21035
1.23514
1.26059
1.29446
1.30067
1.30262
1.33511
1.31969
1.31783
1.2965
1.20518
1.09212
0.94694
1.02726
0.970196
0.89633
1.11437
1.22715
1.19964
1.2243
1.22125
1.22327
1.22657
1.23038
1.23504
1.23656
1.23882
1.23598
1.2227
1.21755
1.22009
1.22332
1.22829
1.2344
1.23899
1.23904
1.24154
1.23961
1.24041
1.2375
1.23282
1.2268
1.21887
1.21301
1.20638
1.20304
1.19762
1.19585
1.19327
1.19229
1.19044
1.18765
1.18705
1.18409
1.18302
1.18179
1.18135
1.18077
1.17947
1.17779
1.1752
1.17189
1.1701
1.1698
1.17025
1.1705
1.17065
1.17225
1.17095
1.17055
1.17212
1.1745
1.17269
1.16731
1.16374
1.15946
1.15532
1.15404
1.1502
1.14756
1.147
1.14463
1.14141
1.13724
1.12884
1.12122
1.11617
1.11429
1.11346
1.109
1.10646
1.11021
1.11263
1.10817
1.10549
1.10735
1.09607
1.08495
1.09463
1.103
1.10539
1.10515
1.10165
1.09566
1.08466
1.07477
1.06877
1.06638
1.06682
1.06438
1.06015
1.05721
1.0564
1.05735
1.05797
1.05674
1.05416
1.05456
1.05964
1.06093
1.05005
1.03597
1.03974
1.05964
1.02847
1.00337
1.07662
1.04559
1.02137
1.06279
1.06858
1.0431
1.04796
1.07026
1.06724
1.04929
1.06093
1.07726
1.06161
1.0406
1.05224
1.05798
1.05075
1.06495
1.0841
1.07556
1.06155
1.08177
1.11443
1.08302
1.07245
1.11618
1.12734
1.12089
1.12862
1.1033
1.16003
1.21534
1.18781
1.14631
1.13868
1.14187
1.09927
1.01802
0.885381
1.05716
1.08175
1.19265
1.22159
1.24538
1.25547
1.21332
1.15752
0.93537
1.04497
1.22807
1.22126
1.21731
1.17061
1.142
1.17614
1.23784
1.26545
1.31129
1.31756
1.30116
1.32317
1.3251
1.27302
1.25603
1.27537
1.13195
0.945301
0.954354
1.02212
1.01295
1.12808
1.21577
1.19364
1.2197
1.22351
1.2259
1.22326
1.22483
1.23861
1.23761
1.21326
1.20434
1.21116
1.21128
1.22163
1.22934
1.23179
1.23823
1.23987
1.23931
1.23726
1.23341
1.22902
1.2225
1.21175
1.20243
1.19336
1.1902
1.18826
1.18938
1.18929
1.19094
1.19199
1.19088
1.19131
1.1889
1.18649
1.1849
1.18181
1.1803
1.17888
1.17731
1.17566
1.17444
1.17279
1.16964
1.16541
1.16112
1.15774
1.15554
1.15395
1.15478
1.15486
1.15426
1.15169
1.15493
1.16082
1.15939
1.15612
1.15792
1.15706
1.1543
1.15241
1.15122
1.14873
1.14468
1.14305
1.14361
1.14153
1.13447
1.12534
1.12153
1.121
1.11664
1.11364
1.11724
1.12081
1.11624
1.11417
1.10976
1.09043
1.0883
1.10363
1.10815
1.10469
1.09952
1.09272
1.08465
1.0769
1.07146
1.06897
1.06923
1.06784
1.06395
1.06091
1.06004
1.06193
1.06336
1.06246
1.05808
1.05247
1.05196
1.05742
1.05685
1.04971
1.04227
1.04745
1.06714
1.05341
1.03757
1.0736
1.04776
1.02506
1.05841
1.07312
1.05108
1.03747
1.06137
1.08262
1.06142
1.0384
1.06119
1.09085
1.07187
1.04863
1.05265
1.05396
1.04571
1.05961
1.06594
1.0452
1.03862
1.09773
1.09825
1.04982
1.06923
1.10537
1.10401
1.10735
1.09193
1.10909
1.14993
1.16807
1.15365
1.13418
1.10942
1.11511
1.14183
0.925137
0.990827
0.976064
1.16649
1.20662
1.22714
1.23877
1.25201
1.21939
0.959608
0.93656
1.13026
1.18783
1.21674
1.18459
1.12599
1.1544
1.22083
1.26507
1.32696
1.29759
1.26081
1.14522
1.20326
1.35666
1.25106
1.26854
1.21557
1.02578
0.938126
1.08447
1.15198
1.14326
1.21661
1.18976
1.22025
1.22989
1.22584
1.22001
1.22565
1.22671
1.20907
1.19864
1.19959
1.20682
1.21156
1.22124
1.22937
1.23057
1.23394
1.22717
1.22597
1.22154
1.21379
1.20775
1.19682
1.19073
1.18627
1.18585
1.1905
1.19349
1.19869
1.2004
1.20162
1.20252
1.19974
1.19719
1.19388
1.1892
1.18613
1.18429
1.18392
1.18379
1.18527
1.18594
1.18615
1.18502
1.18181
1.17498
1.16813
1.16257
1.15688
1.15108
1.14496
1.14122
1.13969
1.13443
1.13226
1.13638
1.13717
1.13912
1.14809
1.14881
1.14788
1.14538
1.1434
1.14524
1.14817
1.15184
1.1543
1.15236
1.14401
1.13541
1.13114
1.12515
1.11844
1.11747
1.11755
1.12004
1.11944
1.11362
1.1014
1.0918
1.10317
1.1118
1.10918
1.10155
1.09213
1.08553
1.08177
1.07906
1.07527
1.07084
1.06534
1.05833
1.05345
1.05409
1.05944
1.06458
1.06604
1.06248
1.05489
1.04785
1.049
1.053
1.05082
1.05789
1.05837
1.03545
1.05635
1.04888
1.05151
1.0808
1.04925
1.01845
1.06571
1.04843
1.02062
1.05277
1.0415
1.05157
1.05893
1.05549
1.05174
1.07106
1.07605
1.05974
1.05669
1.07234
1.06295
1.04932
1.05501
1.04796
1.01236
1.05529
1.10877
1.06184
1.02585
1.08508
1.14012
1.09311
1.0634
1.13429
1.18892
1.18486
1.14878
1.12771
1.11655
1.1702
1.2213
0.954106
0.957196
0.89936
1.13325
1.20496
1.19282
1.14099
1.24724
1.26842
1.09893
0.967207
1.036
1.1202
1.17688
1.17326
1.10839
1.14012
1.19409
1.2665
1.34157
1.27902
1.23845
1.07218
1.0737
1.28766
1.3006
1.23728
1.27873
1.15637
1.00039
1.1145
1.11772
1.10687
1.21226
1.1845
1.21532
1.22084
1.21012
1.21454
1.21586
1.2094
1.19958
1.19165
1.20036
1.21157
1.20999
1.22169
1.22777
1.2244
1.22839
1.22105
1.21053
1.2017
1.1937
1.19107
1.18591
1.18468
1.1859
1.18968
1.19491
1.19665
1.19697
1.19649
1.19386
1.19126
1.1881
1.18357
1.17915
1.17401
1.17156
1.17118
1.17148
1.17129
1.16962
1.17028
1.17079
1.17325
1.1743
1.17127
1.16624
1.16187
1.1582
1.15851
1.15482
1.14928
1.1427
1.14009
1.13411
1.12984
1.1323
1.13218
1.13468
1.13492
1.13268
1.12554
1.12584
1.13611
1.14532
1.15495
1.16073
1.15696
1.14754
1.14007
1.13197
1.12291
1.12023
1.12608
1.12664
1.12354
1.11852
1.11096
1.10078
1.1039
1.11505
1.11495
1.10656
1.09639
1.08804
1.0841
1.08301
1.08091
1.07628
1.06932
1.06193
1.05807
1.0598
1.06367
1.0669
1.06972
1.07086
1.06989
1.06297
1.05545
1.05503
1.05371
1.04971
1.05915
1.06286
1.04072
1.03157
1.03357
1.05739
1.10436
1.04491
1.00149
1.07435
1.05503
0.976322
1.04503
1.04826
1.02734
1.02878
1.04916
1.02495
1.03187
1.07171
1.0669
1.03974
1.06871
1.07818
1.04895
1.0527
1.0433
1.01905
1.03925
1.08351
1.07665
1.0197
1.06789
1.10467
1.14396
1.08253
1.06997
1.14893
1.21786
1.20582
1.13652
1.08598
1.16834
1.26711
1.054
0.991123
0.875186
1.03573
1.20358
1.20128
1.08697
1.19806
1.23892
1.16774
1.03891
1.03876
1.08756
1.12371
1.13826
1.08452
1.10259
1.17109
1.26437
1.33451
1.28674
1.26406
1.19739
1.20913
1.15506
1.32064
1.20726
1.26882
1.24174
1.09821
1.16707
1.1256
1.07506
1.19482
1.1784
1.20863
1.21597
1.20328
1.20946
1.21199
1.19469
1.18397
1.19315
1.19194
1.19689
1.20666
1.21482
1.21262
1.20816
1.20467
1.19857
1.19403
1.18878
1.18215
1.18158
1.18012
1.18148
1.18454
1.18611
1.1893
1.18848
1.18722
1.18745
1.18452
1.18286
1.18145
1.1798
1.17766
1.17532
1.17489
1.17757
1.18034
1.17953
1.17429
1.16857
1.1639
1.15986
1.15805
1.15764
1.15676
1.15477
1.15087
1.14951
1.14641
1.14542
1.1406
1.13779
1.13794
1.13416
1.1364
1.13627
1.13684
1.13276
1.12398
1.11453
1.1145
1.12491
1.1337
1.14681
1.15566
1.15538
1.15068
1.14056
1.12868
1.122
1.12116
1.12559
1.12668
1.12435
1.11706
1.10885
1.1058
1.11378
1.11947
1.11423
1.10424
1.09214
1.08368
1.08328
1.08397
1.07977
1.07155
1.06384
1.06063
1.06224
1.06553
1.06637
1.0656
1.06609
1.07134
1.07463
1.07113
1.06774
1.06916
1.07158
1.07044
1.0629
1.0538
1.0704
1.05332
1.04198
1.04875
1.07344
1.0671
1.052
1.04592
1.0797
1.0316
1.04489
1.05681
1.01512
1.00911
1.06039
1.03162
1.00134
1.05101
1.06261
1.01042
1.0339
1.06613
1.0465
1.05484
1.03959
1.04292
1.05084
1.0259
1.04498
1.03359
1.08359
0.97314
1.05847
1.14431
1.03194
0.979602
1.05198
1.17079
1.16395
1.03954
1.04352
1.21699
1.10759
1.06148
0.928052
0.934369
1.13071
1.22074
1.10123
1.15467
1.22575
1.15131
1.04813
1.06313
1.07581
1.07777
1.08062
1.05788
1.10113
1.17239
1.27074
1.3302
1.32298
1.31478
1.27663
1.26578
1.07521
1.28468
1.2163
1.23233
1.26328
1.17248
1.21707
1.16773
1.07723
1.18072
1.17157
1.19763
1.21708
1.21612
1.20151
1.20348
1.1997
1.17663
1.17904
1.17758
1.18383
1.19135
1.19696
1.20227
1.19926
1.19332
1.18726
1.18088
1.17786
1.17639
1.17606
1.1783
1.17704
1.17859
1.17996
1.18145
1.18389
1.18288
1.18195
1.17968
1.17902
1.1792
1.18001
1.1788
1.17731
1.17624
1.17637
1.17952
1.18103
1.18036
1.1775
1.17428
1.16943
1.16475
1.16184
1.15891
1.15727
1.15244
1.14981
1.14639
1.14405
1.14175
1.13551
1.13059
1.12511
1.12428
1.1289
1.13434
1.13623
1.13286
1.12651
1.11815
1.11469
1.11616
1.13305
1.15235
1.15359
1.1416
1.1284
1.12382
1.1266
1.12958
1.12996
1.12603
1.12072
1.11653
1.11183
1.11265
1.11891
1.11922
1.11192
1.10055
1.08921
1.08418
1.08276
1.08201
1.07724
1.06956
1.0656
1.06845
1.07404
1.07527
1.07213
1.0695
1.07309
1.0804
1.08295
1.08191
1.07626
1.07293
1.07684
1.08766
1.08739
1.07467
1.06591
1.0627
1.06809
1.05286
1.02913
1.0387
1.0569
1.0351
1.06098
1.05064
1.04801
1.07065
1.05885
1.03031
1.04935
1.04769
1.01282
1.04454
1.06873
1.03515
1.03338
1.06123
1.0507
1.04491
1.03793
1.05758
1.06119
0.995165
1.01718
1.05427
1.06905
0.946807
0.996392
1.11752
1.04087
0.977754
0.978832
1.07367
1.16397
1.05758
0.977355
1.1251
1.07886
1.07746
0.98236
0.900003
1.02262
1.21605
1.12547
1.11797
1.22484
1.12034
1.03889
1.05009
1.06063
1.0276
1.03548
1.04001
1.06165
1.15406
1.23011
1.30071
1.35856
1.33484
1.30247
1.25683
1.08174
1.21279
1.23092
1.20662
1.23407
1.19134
1.25621
1.17863
1.10089
1.19385
1.16713
1.19351
1.21887
1.23104
1.20453
1.19343
1.19019
1.17069
1.17478
1.17511
1.17634
1.18526
1.1831
1.18646
1.18602
1.18189
1.18105
1.17937
1.17814
1.17437
1.17048
1.17136
1.16923
1.1705
1.1738
1.17515
1.17838
1.17714
1.17382
1.17021
1.17045
1.17169
1.17365
1.17407
1.17262
1.17078
1.1669
1.1637
1.16281
1.16304
1.16529
1.16681
1.1678
1.16592
1.16459
1.15958
1.15834
1.15263
1.14959
1.143
1.14121
1.13738
1.13938
1.13493
1.13021
1.12021
1.11656
1.11698
1.12109
1.12316
1.12719
1.11934
1.11012
1.10784
1.12132
1.14512
1.15054
1.13908
1.12908
1.12626
1.12786
1.13069
1.13109
1.12792
1.12168
1.11725
1.11533
1.11859
1.12159
1.11788
1.10855
1.09711
1.08796
1.08362
1.08367
1.08018
1.07432
1.06958
1.06896
1.07473
1.07846
1.07717
1.07498
1.07518
1.08007
1.08377
1.08637
1.09042
1.08838
1.08188
1.07991
1.08619
1.08517
1.08949
1.07127
1.04643
1.04199
1.04332
1.05503
1.0394
1.02556
1.03401
1.04627
1.04025
1.04342
1.04091
1.04809
1.0402
1.04861
1.06341
1.03727
1.04676
1.06297
1.05222
1.04321
1.06121
1.06279
1.04137
1.0382
1.05364
1.06345
1.00168
1.01748
1.05452
1.05
1.00147
0.994193
1.06701
1.04075
1.03616
0.988802
1.00066
1.12133
1.08749
0.984595
1.07225
1.05567
1.06987
1.00759
0.905782
0.942707
1.17643
1.12998
1.09752
1.2115
1.07872
1.04432
1.04654
1.04474
0.984355
1.02135
1.01115
1.01731
1.1621
1.20603
1.28769
1.40609
1.33306
1.32408
1.27352
1.13045
1.13868
1.22267
1.20642
1.18247
1.17257
1.27449
1.17855
1.12308
1.20933
1.16217
1.19266
1.21737
1.22273
1.19715
1.18855
1.17795
1.1634
1.16681
1.16686
1.16671
1.17888
1.18064
1.1819
1.18167
1.17442
1.1745
1.16995
1.16786
1.16943
1.16535
1.16386
1.16218
1.16171
1.16603
1.17018
1.17236
1.16974
1.16665
1.16423
1.16669
1.16977
1.17095
1.17183
1.17346
1.17442
1.17464
1.17153
1.16522
1.15908
1.1576
1.15799
1.1601
1.15862
1.16105
1.16082
1.15998
1.15594
1.15281
1.14397
1.13887
1.13175
1.13012
1.12823
1.13304
1.12933
1.12446
1.11694
1.11522
1.11047
1.11222
1.11979
1.11948
1.11146
1.10939
1.12994
1.14753
1.13871
1.12984
1.1276
1.12992
1.13248
1.13305
1.13028
1.12443
1.12417
1.1228
1.12306
1.12104
1.11366
1.10329
1.09352
1.08727
1.08363
1.08149
1.07899
1.07506
1.07213
1.07476
1.07986
1.08384
1.08509
1.08278
1.08172
1.08268
1.08196
1.08635
1.09337
1.09475
1.09172
1.09205
1.09974
1.09399
1.08698
1.08421
1.0918
1.0764
1.06122
1.05789
1.06046
1.06272
1.06837
1.05704
1.04931
1.05838
1.05624
1.05304
1.04338
1.04832
1.04964
1.04658
1.04529
1.05695
1.05564
1.04264
1.04901
1.06822
1.05476
1.03139
1.04124
1.06477
1.01238
1.02512
1.03647
1.03888
1.04356
1.01067
1.02798
1.02846
1.06851
1.00246
0.973782
1.06241
1.08483
0.99065
1.05315
1.05087
1.06826
1.02196
0.931696
0.921739
1.13157
1.11796
1.08886
1.19904
1.03941
1.04247
1.04698
1.01557
0.96773
1.02372
0.995078
1.05318
1.13688
1.21849
1.30284
1.48017
1.31474
1.33973
1.26223
1.14836
1.0828
1.19388
1.22088
1.14226
1.13296
1.27104
1.17678
1.13661
1.21941
1.15488
1.18488
1.21054
1.20118
1.18299
1.18548
1.17742
1.15682
1.15848
1.16303
1.16148
1.16618
1.16769
1.16926
1.17647
1.17362
1.17273
1.17016
1.16468
1.16233
1.15954
1.15826
1.15772
1.15818
1.16008
1.1633
1.16549
1.16346
1.16137
1.16191
1.16204
1.16099
1.16112
1.16121
1.16255
1.16622
1.16888
1.17031
1.1693
1.16371
1.16098
1.15876
1.16008
1.15781
1.15379
1.15351
1.15119
1.1516
1.14706
1.14628
1.13888
1.13718
1.13317
1.12501
1.12313
1.12263
1.12095
1.11743
1.11616
1.11586
1.10711
1.10347
1.11133
1.11557
1.10589
1.11019
1.13755
1.14057
1.13026
1.12794
1.12996
1.13384
1.13402
1.13306
1.12875
1.12533
1.1262
1.125
1.12
1.11063
1.10093
1.09349
1.08722
1.08337
1.0791
1.07536
1.07397
1.07375
1.07764
1.0844
1.0903
1.0912
1.08856
1.09007
1.09161
1.08384
1.08204
1.0839
1.08359
1.08347
1.08083
1.08394
1.09847
1.10349
1.09444
1.08594
1.08189
1.07929
1.06247
1.05701
1.05341
1.06123
1.06753
1.07404
1.07817
1.07121
1.06481
1.06033
1.06189
1.04477
1.058
1.04745
1.04984
1.06035
1.03685
1.03163
1.05663
1.0644
1.01824
1.02516
1.07379
1.0179
1.03548
1.02903
1.02965
1.05086
1.02776
1.01382
1.01746
1.07776
1.00231
0.983583
1.03877
1.08051
0.986873
1.05193
1.05281
1.07653
1.01597
0.947756
0.931106
1.09276
1.10214
1.08731
1.1535
1.00666
1.04017
1.03557
0.989315
0.979297
1.03445
1.00478
1.06474
1.11687
1.21878
1.32559
1.49847
1.27251
1.34512
1.24463
1.14417
1.06024
1.15987
1.23316
1.12465
1.09713
1.26422
1.17254
1.1438
1.22613
1.14674
1.1697
1.20115
1.18827
1.17223
1.17296
1.16998
1.15964
1.15587
1.15883
1.15966
1.16311
1.16475
1.15905
1.16103
1.16436
1.16744
1.16625
1.16251
1.16006
1.15649
1.15349
1.14925
1.14802
1.15007
1.15488
1.15831
1.15954
1.15816
1.15728
1.15509
1.15335
1.15367
1.15573
1.15906
1.16347
1.16877
1.17146
1.17069
1.16794
1.16527
1.16131
1.15824
1.15975
1.15989
1.15905
1.15331
1.15061
1.14466
1.14202
1.13231
1.12732
1.12398
1.12285
1.12148
1.12389
1.12123
1.11869
1.11177
1.10945
1.11355
1.10862
1.09898
1.10566
1.11045
1.1007
1.11491
1.13799
1.13233
1.12726
1.13068
1.13218
1.13454
1.13452
1.1334
1.1286
1.12525
1.12003
1.11199
1.10323
1.09684
1.09427
1.09249
1.08811
1.08308
1.07865
1.07678
1.07586
1.07742
1.08317
1.0923
1.09506
1.09152
1.09438
1.09802
1.08802
1.08195
1.07906
1.08063
1.08668
1.08664
1.08571
1.09323
1.09303
1.10858
1.11041
1.08492
1.06686
1.06292
1.06131
1.06154
1.06672
1.07216
1.07503
1.07501
1.07734
1.07433
1.07488
1.07638
1.05204
1.07201
1.05735
1.04456
1.06754
1.04061
1.0288
1.05316
1.05891
1.01104
1.02524
1.07947
1.01983
1.04715
1.02807
1.03683
1.05655
1.01781
1.01452
1.03201
1.07928
0.988526
0.997779
1.05046
1.07657
0.974854
1.05733
1.06636
1.08451
1.00372
0.95578
0.94843
1.06406
1.08902
1.0837
1.08801
1.0001
1.0561
1.02842
0.985785
0.999387
1.03334
1.01487
1.06452
1.19037
1.23152
1.35196
1.42727
1.27346
1.34639
1.2306
1.13619
1.05111
1.13503
1.2425
1.12497
1.07257
1.25548
1.16937
1.1436
1.22601
1.13974
1.15641
1.18954
1.18773
1.17319
1.17315
1.16036
1.15006
1.14943
1.15393
1.15529
1.15339
1.15447
1.15322
1.15178
1.15065
1.15465
1.15999
1.16119
1.16008
1.15589
1.15193
1.14545
1.14231
1.14219
1.14819
1.15368
1.15565
1.1536
1.15142
1.15001
1.14911
1.14925
1.1492
1.14974
1.15505
1.16151
1.16748
1.16694
1.16355
1.1572
1.15383
1.15133
1.1487
1.14981
1.14981
1.14987
1.1466
1.14237
1.1396
1.13705
1.13568
1.12892
1.11867
1.1135
1.11484
1.11589
1.11539
1.1199
1.11344
1.10196
1.10476
1.10587
1.09661
1.10262
1.10313
1.09804
1.12007
1.13622
1.12693
1.12742
1.13458
1.13411
1.13196
1.13334
1.1313
1.12522
1.11705
1.10686
1.09771
1.09324
1.09162
1.09084
1.08905
1.08498
1.08195
1.0797
1.07812
1.07812
1.082
1.09121
1.09325
1.08964
1.09296
1.09344
1.08735
1.08736
1.08078
1.07931
1.08572
1.0815
1.08803
1.08929
1.09256
1.10056
1.10511
1.09901
1.08492
1.07098
1.0663
1.07228
1.07445
1.08157
1.08575
1.084
1.09001
1.08316
1.08032
1.08474
1.06505
1.08196
1.07155
1.051
1.07706
1.04798
1.03423
1.06249
1.0465
1.01319
1.04362
1.06895
1.02341
1.0656
1.02385
1.05149
1.06716
1.00047
1.021
1.06557
1.07129
0.979273
1.01595
1.07515
1.06466
0.96056
1.06089
1.08421
1.08771
1.00625
0.960917
0.965334
1.05189
1.08637
1.07001
1.03536
1.0156
1.06306
1.00988
0.995471
1.01815
1.03254
1.04608
1.10477
1.19621
1.25815
1.36305
1.32635
1.33331
1.35726
1.21936
1.12453
1.0231
1.1276
1.24104
1.12672
1.04711
1.23833
1.16632
1.13899
1.22143
1.13301
1.14435
1.17434
1.18902
1.17578
1.174
1.16732
1.15116
1.14406
1.14547
1.14776
1.14471
1.13942
1.14001
1.14289
1.14299
1.14378
1.14498
1.1464
1.1506
1.15115
1.15012
1.14523
1.14107
1.13966
1.14481
1.1488
1.14908
1.14663
1.14466
1.14543
1.14839
1.14926
1.14565
1.14098
1.14339
1.14974
1.15758
1.1602
1.15894
1.15443
1.15024
1.15236
1.15187
1.1521
1.14992
1.14457
1.14076
1.13722
1.13217
1.12504
1.12044
1.12717
1.12449
1.12212
1.11583
1.11255
1.10892
1.10435
1.107
1.11446
1.10646
1.10311
1.10059
1.09439
1.10142
1.09824
1.09646
1.12125
1.13396
1.1266
1.12778
1.13584
1.13451
1.12976
1.12821
1.12468
1.11584
1.10563
1.09685
1.09404
1.09373
1.0919
1.08923
1.08605
1.08446
1.08319
1.07993
1.07692
1.08469
1.0953
1.09576
1.09216
1.09377
1.09
1.08438
1.09014
1.08647
1.08082
1.09125
1.08828
1.09284
1.08589
1.08685
1.11437
1.11895
1.09496
1.08307
1.07552
1.07336
1.08131
1.08101
1.09485
1.09611
1.09847
1.10906
1.10516
1.10494
1.10624
1.09191
1.09519
1.08468
1.06593
1.08571
1.05762
1.04062
1.07174
1.04124
1.0248
1.06711
1.05291
1.029
1.08441
1.01821
1.05564
1.07742
0.99341
1.02045
1.09914
1.06272
0.976895
1.0301
1.09206
1.04253
0.949935
1.05716
1.09431
1.08821
1.01782
0.964482
0.979285
1.05612
1.0881
1.05491
1.01255
1.03432
1.06485
1.0072
1.01059
1.03624
1.05636
1.08996
1.12229
1.12289
1.27357
1.36017
1.25973
1.41923
1.35068
1.18182
1.11597
0.997508
1.11253
1.19409
1.10198
1.03738
1.24233
1.16679
1.13141
1.22119
1.12673
1.13254
1.15572
1.18237
1.17963
1.16994
1.17006
1.16206
1.15118
1.14724
1.14539
1.14375
1.13842
1.1368
1.13935
1.14133
1.14314
1.14218
1.13847
1.1375
1.13957
1.14129
1.13952
1.13862
1.13863
1.1405
1.14283
1.14242
1.1407
1.14097
1.14234
1.14661
1.15184
1.14978
1.14187
1.14037
1.14736
1.15358
1.15818
1.15751
1.15641
1.15265
1.14844
1.14718
1.14204
1.14407
1.14317
1.14197
1.13645
1.13502
1.13604
1.12541
1.11495
1.11432
1.11333
1.11661
1.11158
1.10115
1.11427
1.11147
1.09141
1.09956
1.10605
1.10567
1.10024
1.09283
1.09922
1.09582
1.09668
1.11936
1.13294
1.12854
1.12934
1.135
1.13328
1.12733
1.12151
1.11451
1.10495
1.09731
1.0953
1.0969
1.09703
1.09245
1.08776
1.08583
1.08714
1.08487
1.07834
1.08221
1.09615
1.10179
1.09615
1.09901
1.09774
1.08888
1.091
1.09023
1.08026
1.0874
1.08789
1.10451
1.09939
1.09581
1.10734
1.11404
1.10684
1.09477
1.08306
1.08208
1.08718
1.08885
1.10748
1.10797
1.11783
1.12735
1.11697
1.12102
1.12069
1.11455
1.10985
1.09749
1.08349
1.09452
1.0719
1.05412
1.07987
1.04711
1.04452
1.08069
1.04667
1.04398
1.08962
1.01702
1.05477
1.08552
1.00069
1.01845
1.11422
1.05853
0.983041
1.03853
1.09998
1.03655
0.953829
1.04339
1.09828
1.09834
1.03641
0.9724
0.98875
1.06897
1.09606
1.04544
1.01419
1.05704
1.0699
1.01249
1.02983
1.06024
1.0981
1.13367
1.13647
1.07915
1.28708
1.35428
1.24524
1.45518
1.31237
1.14336
1.12905
1.01668
1.07104
1.11551
1.07302
1.03858
1.27151
1.1746
1.12328
1.22448
1.12207
1.12536
1.13877
1.16557
1.17428
1.16568
1.16467
1.16452
1.15632
1.15093
1.14651
1.1429
1.13786
1.13391
1.1339
1.13595
1.13889
1.14059
1.1414
1.1394
1.13877
1.13822
1.13723
1.13576
1.13511
1.13668
1.13834
1.1378
1.13875
1.13887
1.13499
1.13547
1.14299
1.14339
1.13897
1.13852
1.14554
1.14813
1.14854
1.149
1.14623
1.14562
1.14045
1.14313
1.14366
1.14224
1.13684
1.13577
1.13279
1.12613
1.12147
1.12656
1.12264
1.11773
1.11837
1.10414
1.11209
1.11508
1.09413
1.10709
1.10701
1.08995
1.1033
1.10476
1.09923
1.09368
1.09125
1.09685
1.09518
1.09801
1.11716
1.13202
1.13145
1.13071
1.13517
1.13281
1.12437
1.11648
1.10625
1.09939
1.09486
1.09555