/*--------------------------------*- C++ -*----------------------------------*\
| =========                 |                                                 |
| \\      /  F ield         | OpenFOAM: The Open Source CFD Toolbox           |
|  \\    /   O peration     | Version:  dev                                   |
|   \\  /    A nd           | Web:      http://www.openfoam.org               |
|    \\/     M anipulation  |                                                 |
\*---------------------------------------------------------------------------*/
FoamFile
{
    version     2.0;
    format      ascii;
    class       volScalarField;
    object      rho_0;
    location    "9.152";
}
// * * * * * * * * * * * * * * * * * * * * * * * * * * * * * * * * * * * * * //

dimensions      [1 -3 0 0 0 0 0];

internalField   nonuniform List<scalar> 
12225
(
1.05111
1.05095
1.0509
1.05243
1.05416
1.05703
1.05944
1.06313
1.06558
1.06992
1.07194
1.07689
1.07842
1.0832
1.08686
1.08612
1.09787
1.09734
1.05209
1.05075
1.05016
1.05252
1.0537
1.05798
1.05949
1.06527
1.06621
1.07329
1.07302
1.08114
1.08031
1.08696
1.09037
1.08986
1.09967
1.10075
1.05158
1.05082
1.04964
1.05303
1.05324
1.05845
1.05904
1.06569
1.06644
1.07356
1.07496
1.08096
1.08381
1.08791
1.09114
1.09586
1.09863
1.1056
1.05102
1.05119
1.04967
1.05333
1.0537
1.05791
1.05979
1.064
1.06772
1.07054
1.07623
1.07809
1.08481
1.08538
1.09209
1.09288
1.09895
1.10093
1.05128
1.05106
1.05028
1.05316
1.05463
1.05732
1.06029
1.06341
1.06788
1.07006
1.07478
1.07833
1.0833
1.08583
1.09096
1.09339
1.09836
1.10227
1.05205
1.05082
1.05121
1.05301
1.05525
1.05704
1.06086
1.06371
1.06777
1.07007
1.07494
1.07891
1.08321
1.0857
1.09077
1.0938
1.09819
1.10067
1.05299
1.05082
1.05216
1.05318
1.05566
1.05736
1.06139
1.06408
1.06762
1.07078
1.07547
1.07948
1.0832
1.08619
1.09034
1.09444
1.09753
1.10083
1.05375
1.05109
1.05294
1.05364
1.05602
1.05804
1.06203
1.06445
1.0682
1.0714
1.07585
1.07956
1.08361
1.08673
1.0905
1.09425
1.09733
1.10028
1.05424
1.05184
1.05339
1.05438
1.0567
1.05872
1.06254
1.06504
1.06859
1.0718
1.07629
1.08012
1.08392
1.08741
1.091
1.09427
1.09718
1.10021
1.05537
1.05264
1.0538
1.0552
1.05761
1.05952
1.06293
1.06571
1.06933
1.07289
1.07689
1.08041
1.08429
1.08755
1.09103
1.09408
1.09714
1.1005
1.0563
1.05386
1.05559
1.05596
1.0583
1.06093
1.06392
1.06626
1.06981
1.07371
1.07765
1.08101
1.08496
1.08802
1.0911
1.09428
1.09729
1.10043
1.05776
1.05561
1.05618
1.05765
1.05973
1.06167
1.06481
1.06769
1.07093
1.07414
1.07834
1.08171
1.08484
1.08794
1.09099
1.09443
1.09707
1.09952
1.05936
1.05759
1.05797
1.05928
1.0614
1.06357
1.06594
1.06911
1.07238
1.07572
1.07899
1.08211
1.08529
1.08856
1.09159
1.09414
1.09685
1.09981
1.06208
1.06037
1.0603
1.06177
1.06332
1.06558
1.06823
1.07102
1.07401
1.07728
1.08015
1.08329
1.08635
1.08911
1.0921
1.09477
1.09741
1.09954
1.06568
1.06367
1.06357
1.06488
1.06643
1.06859
1.07095
1.07371
1.07648
1.07938
1.08237
1.08527
1.08796
1.09094
1.09352
1.09603
1.09838
1.10078
1.06991
1.0682
1.06805
1.06913
1.07064
1.07266
1.07485
1.0773
1.07997
1.08274
1.08545
1.08821
1.09083
1.09345
1.09596
1.09839
1.10054
1.10262
1.07587
1.07416
1.07385
1.07478
1.07624
1.07794
1.08001
1.08236
1.08482
1.08733
1.08987
1.09248
1.09505
1.09747
1.09982
1.10198
1.10399
1.10594
1.08252
1.08089
1.08048
1.08139
1.08266
1.08417
1.08633
1.08862
1.09091
1.09331
1.09567
1.09832
1.10084
1.10311
1.10544
1.10735
1.10947
1.11139
1.08923
1.08768
1.08716
1.08811
1.08927
1.09061
1.09286
1.09515
1.09729
1.09969
1.10181
1.10466
1.10721
1.10955
1.11193
1.11373
1.11591
1.11775
1.0947
1.0933
1.09278
1.09382
1.09508
1.09627
1.09883
1.10109
1.10309
1.1055
1.10745
1.11052
1.11308
1.11561
1.11791
1.11976
1.12203
1.12387
1.09914
1.09816
1.09773
1.09885
1.1
1.10111
1.10391
1.10586
1.10788
1.11051
1.11269
1.1159
1.11846
1.12117
1.12346
1.12546
1.12777
1.12958
1.10305
1.10225
1.10176
1.10288
1.10408
1.10537
1.10775
1.10969
1.11206
1.11473
1.11707
1.1201
1.12259
1.12554
1.12796
1.13032
1.13268
1.13455
1.10574
1.10537
1.10494
1.10583
1.10727
1.10868
1.11075
1.11306
1.11568
1.1181
1.12053
1.12329
1.12587
1.12887
1.13147
1.13416
1.13668
1.13883
1.10803
1.10769
1.10745
1.10834
1.1097
1.11136
1.11341
1.1155
1.11802
1.12055
1.12334
1.12615
1.12887
1.13171
1.13434
1.13707
1.13954
1.142
1.10962
1.10939
1.10932
1.11014
1.11131
1.11292
1.11489
1.11714
1.11961
1.12226
1.12502
1.12775
1.13057
1.13325
1.13591
1.13851
1.14101
1.14347
1.11074
1.11056
1.11044
1.11125
1.11252
1.1141
1.11612
1.11845
1.12098
1.12369
1.12642
1.12922
1.13201
1.13475
1.13744
1.14
1.14251
1.14484
1.1117
1.1116
1.11149
1.11227
1.11353
1.11514
1.11714
1.11936
1.12184
1.12449
1.12733
1.13026
1.13326
1.13618
1.13902
1.14175
1.14436
1.14688
1.11221
1.1119
1.11178
1.11265
1.11402
1.11575
1.11789
1.12028
1.12299
1.12589
1.12902
1.13217
1.13536
1.1384
1.14139
1.14421
1.14697
1.14958
1.11271
1.11251
1.11222
1.11305
1.11447
1.11639
1.11874
1.12142
1.12433
1.12735
1.13044
1.13341
1.13637
1.13913
1.14191
1.14444
1.14707
1.14929
1.1122
1.1126
1.11253
1.11333
1.11465
1.11635
1.1183
1.1204
1.12259
1.12484
1.1271
1.12933
1.13155
1.13371
1.13583
1.13786
1.13985
1.14154
1.23933
1.26002
1.25603
1.25417
1.25297
1.25132
1.24982
1.24823
1.24697
1.246
1.24487
1.24387
1.24272
1.24196
1.24141
1.24102
1.24041
1.23948
1.23834
1.23721
1.23617
1.2351
1.23388
1.2326
1.23123
1.22966
1.22824
1.22732
1.22702
1.22681
1.22596
1.22444
1.22286
1.22139
1.21981
1.21792
1.21574
1.21326
1.21057
1.20726
1.20314
1.19818
1.19212
1.18588
1.18218
1.18213
1.18459
1.1837
1.17872
1.17568
1.1724
1.16781
1.16551
1.16383
1.16089
1.15693
1.15431
1.1524
1.1509
1.14975
1.1498
1.14931
1.14815
1.14582
1.14192
1.13828
1.13512
1.1324
1.13008
1.1274
1.12419
1.12055
1.11551
1.1118
1.11052
1.09702
1.0828
1.08719
1.09333
1.0941
1.09435
1.09448
1.0937
1.09106
1.08464
1.06976
1.05546
1.05514
1.06343
1.06941
1.0721
1.07424
1.0761
1.07741
1.07826
1.0791
1.08036
1.08192
1.08342
1.08435
1.08467
1.08509
1.08671
1.08965
1.09173
1.09027
1.08728
1.09248
1.09462
1.09208
1.09338
1.09377
1.09414
1.0933
1.0934
1.09375
1.09452
1.09467
1.093
1.09181
1.09205
1.09198
1.09035
1.08782
1.08624
1.08493
1.08468
1.0852
1.08585
1.08654
1.08783
1.0889
1.08925
1.09055
1.0896
1.08944
1.08822
1.08914
1.0891
1.08917
1.08817
1.08861
1.09117
1.09559
1.10146
1.10112
1.10451
1.08275
1.081
1.07298
1.07657
1.07137
1.07264
1.07467
1.08295
1.08912
1.07144
1.06807
1.06667
1.07354
1.07345
1.05989
1.05936
1.07204
1.07901
1.0728
1.07554
1.09672
1.12783
1.10841
1.11623
1.11878
1.10201
1.09947
1.09229
1.07659
1.06195
1.0697
1.03789
1.03933
1.23988
1.26383
1.25641
1.25353
1.25296
1.25246
1.25087
1.25109
1.25155
1.25275
1.2532
1.25301
1.25261
1.25312
1.25439
1.2557
1.2565
1.25615
1.25489
1.25346
1.25229
1.25109
1.24982
1.24841
1.24702
1.24624
1.24656
1.24759
1.24802
1.24701
1.24495
1.24289
1.24109
1.23898
1.23677
1.23451
1.23227
1.23023
1.2284
1.22608
1.22316
1.22007
1.21702
1.21356
1.2095
1.20531
1.20388
1.20489
1.19862
1.19312
1.19423
1.18308
1.17039
1.17595
1.17992
1.17324
1.16658
1.16451
1.16452
1.16329
1.16573
1.16896
1.16934
1.16733
1.15956
1.15293
1.14891
1.14541
1.1428
1.14055
1.13684
1.13084
1.1257
1.12354
1.12279
1.11924
1.10871
1.09718
1.09352
1.09527
1.09775
1.10296
1.10959
1.10937
1.09975
1.09193
1.09252
1.09605
1.09833
1.09956
1.10041
1.10076
1.09901
1.09574
1.09206
1.09006
1.09027
1.09206
1.09332
1.0926
1.08987
1.08758
1.08827
1.09168
1.09472
1.09902
1.07842
1.08863
1.10022
1.093
1.09629
1.098
1.10113
1.0971
1.09711
1.09465
1.09561
1.10551
1.1135
1.10464
1.09578
1.09922
1.11404
1.12507
1.12661
1.12472
1.11735
1.11061
1.11189
1.12247
1.13112
1.13749
1.13886
1.14322
1.15121
1.15732
1.1569
1.15605
1.15088
1.14984
1.1452
1.14532
1.15382
1.1715
1.19069
1.18634
1.17524
1.17489
1.17351
1.14216
1.15092
1.14532
1.15321
1.1652
1.1979
1.21201
1.19311
1.1932
1.18338
1.18516
1.20104
1.18901
1.1651
1.18058
1.20275
1.20331
1.22648
1.27343
1.31364
1.31565
1.27897
1.27848
1.26064
1.26032
1.18347
1.23419
1.21587
1.23578
1.15413
1.20875
1.23236
1.25483
1.24981
1.25102
1.25105
1.25213
1.25165
1.25405
1.25838
1.26301
1.26587
1.2685
1.27022
1.26962
1.26454
1.25522
1.24894
1.24544
1.24333
1.24392
1.24447
1.24654
1.24812
1.24954
1.25059
1.25138
1.25036
1.24569
1.24077
1.23727
1.2341
1.22937
1.22566
1.22359
1.22214
1.22048
1.21869
1.21669
1.21479
1.21326
1.21249
1.21196
1.21058
1.20734
1.2036
1.20254
1.20419
1.2046
1.19964
1.19234
1.19202
1.19631
1.19184
1.1842
1.1817
1.18357
1.18113
1.16896
1.16204
1.16076
1.16075
1.16449
1.16555
1.16784
1.16545
1.15636
1.14867
1.14545
1.14333
1.13957
1.13576
1.13128
1.12165
1.11828
1.12507
1.12602
1.11466
1.10809
1.10187
1.09036
1.09497
1.10305
1.10368
1.10332
1.10286
1.10235
1.10141
1.09891
1.09489
1.09198
1.09141
1.09067
1.08797
1.08248
1.0755
1.07009
1.06791
1.06893
1.07104
1.07291
1.07349
1.07327
1.0709
1.06614
1.06386
1.08315
1.06478
1.06219
1.06971
1.06661
1.07209
1.07957
1.08117
1.07769
1.08533
1.08044
1.0652
1.06148
1.08712
1.10309
1.09197
1.06374
1.05446
1.08116
1.10915
1.11432
1.1114
1.11043
1.10472
1.10199
1.10486
1.11279
1.13051
1.1432
1.14813
1.15794
1.1756
1.19155
1.19445
1.17585
1.17046
1.1836
1.19034
1.20019
1.18627
1.13933
1.05525
1.1859
1.21082
1.19103
1.19166
1.18361
1.19099
1.19629
1.21074
1.18435
1.24221
1.24646
1.24191
1.22255
1.20563
1.2245
1.22103
1.22554
1.25414
1.27308
1.29177
1.32164
1.34722
1.39832
1.3327
1.26389
1.22228
1.20461
1.05773
1.16941
1.10823
1.082
1.16213
1.2563
1.22464
1.2489
1.24314
1.24685
1.24979
1.25164
1.25307
1.25736
1.26452
1.26625
1.25444
1.24305
1.23984
1.23395
1.23086
1.23453
1.23551
1.24307
1.24846
1.25153
1.25473
1.25161
1.25106
1.24822
1.24594
1.23925
1.23467
1.23066
1.22603
1.22055
1.21605
1.21414
1.21129
1.20937
1.20668
1.20536
1.20417
1.20297
1.20172
1.20012
1.19808
1.1962
1.19497
1.19372
1.19216
1.1897
1.18781
1.18851
1.19007
1.18881
1.18377
1.18138
1.1835
1.18613
1.18618
1.18057
1.176
1.17061
1.16991
1.17311
1.16656
1.16
1.15586
1.15196
1.1515
1.15056
1.14701
1.14451
1.14322
1.14132
1.13401
1.12886
1.1268
1.1217
1.12135
1.12508
1.12383
1.11648
1.10337
1.09924
1.1104
1.11478
1.11482
1.11435
1.11273
1.11273
1.10853
1.0985
1.09046
1.08714
1.08643
1.08609
1.08397
1.0799
1.07589
1.07315
1.07166
1.07056
1.06907
1.06907
1.0723
1.07636
1.07457
1.06552
1.05657
1.07481
1.05042
1.03946
1.08655
1.06286
1.05239
1.07932
1.07787
1.06403
1.07679
1.09124
1.08468
1.06277
1.06133
1.06765
1.08795
1.10585
1.09137
1.0662
1.07957
1.10233
1.09696
1.09042
1.09903
1.11206
1.10786
1.09256
1.11197
1.13026
1.12554
1.13653
1.14641
1.14587
1.20295
1.20974
1.16477
1.15801
1.176
1.17219
1.1139
1.03003
0.915846
1.13218
1.17248
1.20316
1.21082
1.20886
1.21134
1.19975
1.16776
1.0496
1.19596
1.25461
1.23566
1.22261
1.173
1.18151
1.22035
1.24789
1.27482
1.31157
1.31947
1.32059
1.35446
1.33893
1.33731
1.31631
1.22361
1.10644
0.95846
1.03629
0.980247
0.907339
1.13275
1.24422
1.21517
1.24049
1.2375
1.23948
1.2426
1.24637
1.25129
1.25255
1.2538
1.25032
1.23717
1.23213
1.23492
1.2383
1.24319
1.24916
1.25352
1.253
1.25497
1.25242
1.25259
1.24923
1.24381
1.23721
1.22861
1.22248
1.21551
1.21198
1.20629
1.20429
1.20148
1.20018
1.19815
1.195
1.19415
1.19095
1.1896
1.18817
1.18756
1.18689
1.18556
1.18388
1.18132
1.178
1.17619
1.17594
1.17653
1.17696
1.17727
1.17921
1.17833
1.17824
1.18008
1.18296
1.18182
1.17696
1.17384
1.17019
1.16649
1.16555
1.16229
1.16027
1.16026
1.15834
1.1555
1.15166
1.14355
1.13609
1.13113
1.1295
1.12895
1.12453
1.12216
1.12622
1.12874
1.124
1.12127
1.12308
1.11099
1.09963
1.10927
1.11736
1.11933
1.11864
1.11468
1.10823
1.09685
1.08655
1.08005
1.07711
1.07719
1.07458
1.07005
1.06674
1.06561
1.06635
1.06688
1.06557
1.06265
1.06247
1.06744
1.06944
1.05914
1.04425
1.0467
1.06796
1.03787
1.01005
1.08395
1.0546
1.02975
1.07109
1.07713
1.05155
1.05709
1.07933
1.07563
1.05782
1.07034
1.08589
1.06879
1.04804
1.06037
1.06531
1.05792
1.07255
1.09054
1.08024
1.0667
1.0884
1.11897
1.08527
1.0766
1.1209
1.12971
1.12237
1.12893
1.10455
1.16296
1.2153
1.18568
1.14442
1.13672
1.13909
1.09763
1.01714
0.883391
1.05655
1.08229
1.192
1.22102
1.24571
1.25709
1.21727
1.16741
0.94133
1.04679
1.23065
1.22742
1.22575
1.18015
1.1508
1.18502
1.24936
1.27917
1.32828
1.33528
1.31827
1.3379
1.34357
1.2933
1.27404
1.29476
1.14965
0.958493
0.963932
1.03546
1.0151
1.14386
1.23221
1.20803
1.23498
1.23908
1.24118
1.23814
1.23981
1.25349
1.25152
1.22637
1.21744
1.22481
1.22501
1.23546
1.24319
1.24524
1.25137
1.2523
1.25141
1.24877
1.24432
1.23931
1.23219
1.22108
1.21144
1.20215
1.19886
1.1968
1.19783
1.19759
1.19892
1.1998
1.1983
1.19843
1.19577
1.19297
1.19114
1.18781
1.18608
1.18451
1.18287
1.18117
1.17996
1.17837
1.17532
1.1711
1.16679
1.16343
1.1613
1.15979
1.16072
1.16105
1.16078
1.15834
1.16171
1.16822
1.1675
1.16474
1.16731
1.16713
1.16486
1.16348
1.16279
1.16083
1.15738
1.15645
1.15771
1.15612
1.14919
1.14017
1.13657
1.136
1.1316
1.12881
1.13256
1.13616
1.13166
1.12942
1.12412
1.10453
1.10317
1.11821
1.12218
1.11805
1.11207
1.10484
1.09662
1.08894
1.08326
1.08023
1.07994
1.07812
1.07393
1.07066
1.0696
1.07135
1.07275
1.07189
1.06745
1.06135
1.06009
1.0655
1.06547
1.05871
1.05054
1.0548
1.07516
1.06235
1.04449
1.08199
1.05707
1.03377
1.06709
1.0821
1.06009
1.04657
1.0714
1.09188
1.0694
1.04736
1.07178
1.10026
1.07918
1.0561
1.06068
1.06131
1.05289
1.06664
1.07121
1.04947
1.04535
1.10463
1.10082
1.05208
1.07395
1.10916
1.1066
1.10812
1.09294
1.11152
1.15192
1.16834
1.15275
1.13271
1.10788
1.11556
1.14111
0.92119
0.991385
0.978228
1.16683
1.20672
1.22679
1.23752
1.25556
1.23164
0.966507
0.939791
1.13144
1.1923
1.22381
1.19364
1.13475
1.16357
1.23091
1.27849
1.34473
1.31404
1.27975
1.15697
1.21587
1.37693
1.2708
1.28588
1.23536
1.04302
0.951996
1.10125
1.1609
1.15744
1.2321
1.20286
1.2343
1.2439
1.23916
1.23353
1.23917
1.23934
1.22106
1.21098
1.21247
1.21977
1.22423
1.23382
1.24177
1.24247
1.24563
1.23814
1.23608
1.23104
1.22269
1.2165
1.20524
1.19913
1.1947
1.19427
1.19887
1.20161
1.20644
1.20788
1.2086
1.20914
1.20606
1.20307
1.19948
1.19447
1.19108
1.18902
1.18848
1.18819
1.18955
1.19024
1.1905
1.18953
1.18653
1.17985
1.17305
1.16759
1.16205
1.15651
1.15054
1.14691
1.14559
1.14066
1.13853
1.14274
1.14404
1.14637
1.15585
1.15721
1.15681
1.15463
1.15312
1.15581
1.15969
1.1643
1.16746
1.16584
1.15764
1.14936
1.14511
1.13894
1.13242
1.13192
1.13209
1.13443
1.13375
1.12762
1.11485
1.1062
1.11804
1.1258
1.12244
1.11426
1.10425
1.09732
1.09359
1.09096
1.08701
1.0821
1.07602
1.06861
1.06338
1.06356
1.06862
1.07383
1.07562
1.07247
1.06485
1.05705
1.05742
1.0615
1.05906
1.06611
1.06806
1.04417
1.06449
1.05795
1.05926
1.09023
1.05923
1.02816
1.07501
1.05772
1.03132
1.06271
1.051
1.06142
1.06872
1.06486
1.06144
1.08079
1.08473
1.06784
1.06543
1.08084
1.06986
1.05578
1.06134
1.05205
1.01801
1.06418
1.11364
1.0627
1.02991
1.09284
1.14321
1.09285
1.06632
1.13946
1.19168
1.18549
1.14914
1.12728
1.1171
1.17318
1.22105
0.949455
0.957593
0.901546
1.13421
1.20616
1.19408
1.13945
1.24822
1.27476
1.10638
0.971186
1.03952
1.12457
1.18237
1.18065
1.11645
1.14868
1.20329
1.27969
1.35855
1.29701
1.26201
1.09465
1.08514
1.30198
1.32217
1.25407
1.29791
1.17571
1.01869
1.13266
1.13217
1.12248
1.22861
1.19613
1.22768
1.23298
1.22172
1.22663
1.22778
1.22033
1.21055
1.20328
1.21176
1.2228
1.22125
1.23276
1.2382
1.23424
1.23765
1.23013
1.21912
1.20988
1.20146
1.19877
1.19379
1.19251
1.19369
1.19712
1.20199
1.20332
1.20306
1.20227
1.19921
1.19623
1.19286
1.1881
1.18348
1.17813
1.17541
1.17487
1.17505
1.17475
1.17283
1.17325
1.17361
1.17603
1.1773
1.17457
1.16976
1.16557
1.16204
1.16267
1.15937
1.15422
1.14784
1.14562
1.1401
1.13592
1.13883
1.13906
1.14176
1.14231
1.14035
1.13336
1.13392
1.1449
1.15492
1.16551
1.17214
1.16889
1.15995
1.15265
1.1444
1.13549
1.13324
1.13949
1.14026
1.13709
1.13174
1.12398
1.11412
1.11803
1.12878
1.128
1.11912
1.10832
1.09949
1.09548
1.09444
1.09215
1.08717
1.07988
1.0723
1.06831
1.06991
1.07353
1.07632
1.07886
1.08027
1.07994
1.07341
1.0654
1.06443
1.06322
1.05852
1.06745
1.07273
1.05083
1.04075
1.04194
1.06509
1.11404
1.05574
1.01003
1.08416
1.0648
0.98584
1.05628
1.05819
1.03697
1.03954
1.0592
1.03392
1.04281
1.08258
1.07474
1.04809
1.0787
1.08544
1.05525
1.05953
1.0482
1.02538
1.04776
1.08863
1.07816
1.02362
1.07523
1.10727
1.14566
1.08345
1.07148
1.15035
1.21789
1.20565
1.13544
1.08548
1.17143
1.26671
1.05002
0.990824
0.875171
1.03704
1.20416
1.20524
1.08912
1.19897
1.24212
1.17454
1.04344
1.04474
1.09335
1.12884
1.14381
1.0919
1.11108
1.18145
1.27803
1.34974
1.30785
1.28839
1.22519
1.22901
1.17345
1.34022
1.22472
1.28651
1.2598
1.11816
1.18612
1.1362
1.08989
1.21225
1.18856
1.21927
1.22719
1.21473
1.22002
1.22249
1.20504
1.19349
1.20313
1.20123
1.2058
1.21589
1.2236
1.22119
1.21648
1.21214
1.20576
1.20111
1.19591
1.18931
1.18852
1.18719
1.18814
1.1909
1.192
1.19471
1.19368
1.19203
1.19196
1.18875
1.18684
1.18524
1.18349
1.18119
1.17869
1.17796
1.18037
1.18306
1.18229
1.17706
1.17116
1.16633
1.16209
1.16013
1.15979
1.15909
1.15735
1.1536
1.1524
1.14954
1.14891
1.14452
1.14191
1.14246
1.139
1.1415
1.14195
1.14314
1.13968
1.13137
1.12225
1.12203
1.13228
1.1413
1.1552
1.16522
1.16573
1.16133
1.15124
1.1397
1.1337
1.13329
1.13773
1.13876
1.13646
1.12933
1.12119
1.1186
1.12659
1.13168
1.12617
1.11598
1.1035
1.09464
1.09387
1.09457
1.09038
1.08191
1.074
1.07091
1.07269
1.07586
1.07635
1.07514
1.0752
1.08051
1.08439
1.08141
1.07766
1.07856
1.08115
1.08068
1.07337
1.06293
1.07991
1.06379
1.05147
1.05787
1.08281
1.07769
1.06123
1.05681
1.09041
1.04054
1.05612
1.06724
1.02455
1.02108
1.07203
1.04025
1.01215
1.06349
1.07067
1.01835
1.04516
1.07518
1.0541
1.06202
1.04617
1.05083
1.05658
1.02903
1.04962
1.04067
1.08544
0.972358
1.06668
1.1475
1.02818
0.978777
1.05339
1.17247
1.16321
1.0374
1.04612
1.21662
1.1071
1.06244
0.927316
0.93665
1.1301
1.22519
1.10573
1.15695
1.231
1.15644
1.05383
1.06977
1.08245
1.08293
1.08542
1.06514
1.10933
1.18275
1.28155
1.34272
1.34637
1.33841
1.30067
1.2866
1.09385
1.30188
1.23556
1.24997
1.27965
1.19208
1.23699
1.17761
1.09056
1.19988
1.18045
1.20698
1.22742
1.22745
1.21096
1.21224
1.20897
1.18515
1.18731
1.18578
1.19172
1.19907
1.20389
1.20931
1.20627
1.20001
1.19401
1.18751
1.18444
1.18286
1.18198
1.18408
1.18227
1.18339
1.18458
1.18567
1.18802
1.1867
1.18531
1.18271
1.18183
1.18181
1.18247
1.18109
1.17939
1.17804
1.17777
1.18063
1.18203
1.18142
1.17866
1.17553
1.17077
1.16608
1.1632
1.1603
1.15884
1.15417
1.15172
1.14847
1.14638
1.14442
1.13866
1.13395
1.12878
1.12782
1.13264
1.13845
1.14116
1.13875
1.13349
1.1252
1.12126
1.12242
1.1395
1.16012
1.16257
1.15078
1.13773
1.13366
1.13701
1.14049
1.14106
1.13719
1.13169
1.12773
1.12343
1.12452
1.13036
1.13018
1.12276
1.11124
1.09978
1.0946
1.09294
1.09182
1.08705
1.0795
1.07551
1.07849
1.08423
1.0855
1.08229
1.07928
1.08251
1.08973
1.09268
1.09239
1.08688
1.08278
1.08584
1.09709
1.09812
1.08572
1.0766
1.07308
1.07888
1.06443
1.03967
1.04923
1.06834
1.0465
1.07242
1.06188
1.06002
1.08262
1.06947
1.04147
1.06125
1.0581
1.02389
1.0578
1.07893
1.04424
1.0445
1.07139
1.05906
1.05221
1.04646
1.0664
1.06539
0.998796
1.02553
1.06259
1.06834
0.949236
1.00641
1.12132
1.0397
0.9805
0.983111
1.07849
1.16514
1.05643
0.980759
1.12633
1.07967
1.07952
0.983652
0.903049
1.02376
1.21957
1.13043
1.12153
1.23106
1.12477
1.04536
1.05704
1.06759
1.03295
1.04183
1.04704
1.06774
1.16475
1.23872
1.31222
1.38375
1.35405
1.32375
1.27628
1.09969
1.22976
1.25104
1.22516
1.24886
1.21045
1.27663
1.18966
1.1153
1.21394
1.17483
1.20207
1.22792
1.24009
1.21251
1.2009
1.19711
1.17786
1.18209
1.18235
1.18311
1.19221
1.18958
1.19251
1.19195
1.18746
1.1868
1.18495
1.1835
1.17963
1.17521
1.17555
1.1731
1.17401
1.17723
1.17845
1.18132
1.17964
1.17593
1.17206
1.17216
1.17323
1.17493
1.17516
1.17355
1.17152
1.16741
1.16391
1.16277
1.16284
1.16508
1.16661
1.16771
1.16588
1.1647
1.15981
1.15872
1.1532
1.15037
1.14391
1.14234
1.13865
1.14109
1.13706
1.13309
1.12337
1.11972
1.11992
1.12424
1.12662
1.13148
1.12491
1.11626
1.11367
1.12631
1.15066
1.15789
1.14722
1.13763
1.13506
1.13684
1.13996
1.14074
1.13806
1.13197
1.12787
1.1261
1.12922
1.13168
1.12758
1.11811
1.10672
1.09772
1.09308
1.09293
1.08944
1.08365
1.07903
1.07849
1.08421
1.08813
1.08713
1.0849
1.08482
1.08939
1.09273
1.09545
1.10021
1.09907
1.09262
1.08996
1.09627
1.09543
1.10065
1.08357
1.05789
1.05274
1.0539
1.06607
1.05074
1.0369
1.04533
1.05829
1.05246
1.0557
1.05323
1.06053
1.05261
1.06172
1.0752
1.04875
1.05954
1.07426
1.06262
1.05428
1.07199
1.07187
1.04936
1.04719
1.06266
1.06874
1.00695
1.02687
1.0618
1.05218
1.00696
1.00168
1.07065
1.04354
1.04147
0.991846
1.0066
1.12469
1.08788
0.987913
1.07574
1.0587
1.07331
1.01021
0.908426
0.946666
1.17943
1.1348
1.10256
1.21774
1.08343
1.0519
1.05438
1.05174
0.990819
1.02983
1.01815
1.02703
1.17253
1.21863
1.30383
1.43579
1.34822
1.34538
1.29212
1.14816
1.15656
1.2427
1.22629
1.19687
1.1922
1.29524
1.19035
1.13975
1.22968
1.16855
1.19985
1.22466
1.22835
1.20287
1.19514
1.18407
1.16934
1.17266
1.17281
1.17247
1.18431
1.18599
1.18691
1.18688
1.17946
1.17934
1.17441
1.17185
1.17321
1.16886
1.16699
1.16515
1.16448
1.16854
1.17247
1.17415
1.1711
1.1678
1.16535
1.16758
1.17028
1.17114
1.17178
1.17329
1.1742
1.17431
1.17094
1.16437
1.15812
1.15663
1.15697
1.15903
1.15754
1.16
1.15989
1.15911
1.15528
1.15229
1.14377
1.13883
1.13207
1.13059
1.1289
1.13412
1.13111
1.12672
1.11942
1.11784
1.11337
1.11484
1.12297
1.12398
1.11675
1.1136
1.13321
1.1527
1.14557
1.13693
1.13484
1.1374
1.14035
1.14132
1.13916
1.1336
1.13343
1.13245
1.1324
1.12986
1.12217
1.1118
1.10228
1.09609
1.09234
1.08968
1.08716
1.08367
1.0809
1.08363
1.08879
1.09319
1.09497
1.09275
1.09167
1.09252
1.09096
1.09484
1.10212
1.10431
1.10183
1.10193
1.11011
1.10541
1.09847
1.09532
1.10336
1.08846
1.07308
1.07001
1.07272
1.07504
1.08096
1.06984
1.06224
1.07175
1.06955
1.06608
1.0566
1.06185
1.06219
1.05952
1.05821
1.06925
1.06693
1.05335
1.06035
1.07886
1.0633
1.03933
1.0512
1.07236
1.01858
1.03416
1.04329
1.04483
1.05004
1.01612
1.03229
1.03465
1.07465
1.00422
0.9804
1.0685
1.08707
0.9942
1.05947
1.05619
1.07336
1.02521
0.935044
0.92761
1.13496
1.12297
1.09535
1.20389
1.04505
1.05093
1.0554
1.02246
0.976116
1.03383
1.00408
1.06609
1.14521
1.23303
1.32264
1.50712
1.32578
1.36035
1.27917
1.16576
1.10158
1.21389
1.24212
1.15727
1.15352
1.29317
1.18976
1.15477
1.24078
1.16001
1.19021
1.21617
1.20526
1.18752
1.1906
1.1826
1.16216
1.16361
1.1682
1.16657
1.17061
1.17189
1.17291
1.18001
1.17749
1.17659
1.1739
1.16803
1.16517
1.16218
1.16057
1.15963
1.15986
1.16145
1.16445
1.16627
1.16403
1.16181
1.16218
1.1618
1.16031
1.1602
1.16013
1.16136
1.16495
1.16749
1.16879
1.1676
1.16195
1.15923
1.15695
1.15811
1.15575
1.15175
1.15157
1.14929
1.14983
1.14537
1.14489
1.13757
1.13625
1.13238
1.12454
1.12279
1.12286
1.1216
1.11868
1.11754
1.11773
1.10947
1.10556
1.11324
1.11867
1.1098
1.11238
1.13974
1.14558
1.136
1.13361
1.13588
1.14002
1.14072
1.14036
1.13682
1.133
1.13369
1.13221
1.12688
1.11753
1.10821
1.10149
1.09565
1.09172
1.08719
1.08316
1.08187
1.08171
1.08528
1.09209
1.09884
1.10036
1.09767
1.09943
1.10177
1.09368
1.09103
1.09258
1.09271
1.09344
1.09103
1.0937
1.10888
1.11515
1.10686
1.09835
1.0945
1.0923
1.07556
1.07017
1.06675
1.07501
1.0816
1.08837
1.09252
1.08536
1.07902
1.07486
1.07591
1.05861
1.07249
1.06069
1.06318
1.07279
1.04734
1.04375
1.06919
1.07304
1.02574
1.03758
1.08357
1.02477
1.04507
1.03616
1.03815
1.05845
1.0328
1.01943
1.027
1.08425
1.00407
0.991477
1.04848
1.08433
0.991146
1.06075
1.06033
1.08304
1.01939
0.952502
0.937785
1.097
1.10812
1.0949
1.15536
1.01386
1.05004
1.04438
0.997351
0.989626
1.04513
1.01582
1.07604
1.1331
1.23375
1.34659
1.50924
1.28636
1.36516
1.26131
1.16157
1.07941
1.18062
1.25551
1.14046
1.11905
1.28818
1.18666
1.16307
1.24787
1.15094
1.17372
1.20558
1.19253
1.17666
1.1773
1.17373
1.16386
1.16005
1.16299
1.16389
1.16679
1.16799
1.1619
1.16339
1.16667
1.16973
1.1686
1.16502
1.1624
1.15842
1.15491
1.15005
1.14863
1.15059
1.15541
1.15858
1.15952
1.15776
1.15644
1.15391
1.152
1.15219
1.15411
1.15728
1.16158
1.1667
1.16911
1.16805
1.1652
1.16235
1.1583
1.15522
1.1568
1.15698
1.15601
1.15034
1.14772
1.14193
1.13936
1.12994
1.12532
1.12221
1.12128
1.1201
1.12285
1.12054
1.11844
1.11217
1.10996
1.11426
1.11001
1.10038
1.10659
1.11266
1.103
1.11519
1.13982
1.13673
1.13145
1.13492
1.13697
1.13961
1.13979
1.13954
1.13523
1.13138
1.12566
1.11721
1.10844
1.10251
1.10052
1.0995
1.09555
1.09065
1.08632
1.08436
1.08329
1.08436
1.08974
1.09949
1.10298
1.09954
1.10254
1.10681
1.09755
1.0917
1.08834
1.08983
1.09664
1.0972
1.09651
1.10425
1.10427
1.1205
1.12368
1.09862
1.08035
1.07644
1.07508
1.07549
1.08115
1.08704
1.09017
1.09039
1.09286
1.08988
1.09067
1.0912
1.06734
1.08781
1.07107
1.05915
1.08171
1.05194
1.04217
1.06722
1.06721
1.02032
1.04033
1.08888
1.0281
1.05814
1.03596
1.04801
1.0645
1.02276
1.0232
1.04491
1.08425
0.991517
1.00824
1.06279
1.07991
0.980196
1.06836
1.07605
1.09139
1.00816
0.961874
0.956166
1.07032
1.09667
1.09151
1.08983
1.00974
1.06739
1.03752
0.995809
1.01114
1.044
1.02835
1.07875
1.20902
1.24932
1.37157
1.4253
1.29962
1.36673
1.24734
1.15366
1.07003
1.15783
1.26478
1.1409
1.09473
1.28019
1.18469
1.1634
1.24788
1.14324
1.15975
1.1929
1.19207
1.17756
1.17731
1.16395
1.15334
1.15272
1.15706
1.1582
1.1557
1.15619
1.1551
1.1535
1.15219
1.15616
1.16131
1.16227
1.16107
1.15673
1.15249
1.14575
1.14256
1.14252
1.14861
1.15357
1.15475
1.15215
1.14972
1.14827
1.14738
1.14729
1.14684
1.14719
1.15252
1.15886
1.16442
1.16335
1.15964
1.15319
1.14988
1.14743
1.14485
1.14606
1.14604
1.14606
1.14271
1.13865
1.136
1.13372
1.13246
1.12608
1.11609
1.11136
1.11268
1.11393
1.11368
1.11854
1.11248
1.10161
1.10472
1.10648
1.09702
1.10264
1.10457
1.09856
1.11886
1.13758
1.13025
1.13004
1.1374
1.1379
1.1359
1.13711
1.13577
1.13009
1.12183
1.11156
1.10236
1.0982
1.0969
1.09625
1.09483
1.09112
1.08851
1.08649
1.0848
1.08432
1.0884
1.09812
1.10058
1.09717
1.10062
1.1011
1.09564
1.09692
1.09071
1.08875
1.09593
1.09203
1.09905
1.1006
1.10424
1.113
1.11833
1.11286
1.09901
1.08521
1.08075
1.08715
1.08985
1.09744
1.10186
1.10051
1.10674
1.09971
1.09741
1.10123
1.08201
1.09899
1.08643
1.06713
1.09247
1.0604
1.04904
1.0772
1.05539
1.02573
1.06003
1.07699
1.03447
1.07796
1.03233
1.06425
1.07502
1.00623
1.03308
1.08032
1.07458
0.984841
1.02919
1.08787
1.06657
0.967388
1.07345
1.09516
1.09491
1.0127
0.96825
0.974434
1.06107
1.09594
1.07777
1.04063
1.02743
1.07483
1.01991
1.00731
1.03116
1.04569
1.06319
1.12175
1.20108
1.27639
1.38067
1.32697
1.36977
1.37651
1.23491
1.14244
1.04192
1.15156
1.2595
1.14179
1.0699
1.26613
1.18317
1.15912
1.24456
1.13593
1.14706
1.17679
1.19256
1.17957
1.17725
1.17091
1.15468
1.14724
1.14828
1.1501
1.14666
1.1409
1.14161
1.14455
1.14457
1.14504
1.14564
1.14672
1.15066
1.15106
1.14977
1.14473
1.14073
1.13973
1.14469
1.14782
1.14726
1.14447
1.1426
1.14356
1.14646
1.14679
1.14248
1.13773
1.1404
1.1468
1.15424
1.15628
1.15454
1.14988
1.14594
1.14814
1.14749
1.14753
1.14511
1.13974
1.13614
1.13262
1.12762
1.12076
1.11643
1.12323
1.12085
1.11878
1.11281
1.10957
1.10569
1.10191
1.10522
1.11233
1.10476
1.10215
1.10055
1.09398
1.10074
1.09867
1.09531
1.11886
1.13441
1.12867
1.12901
1.1374
1.13734
1.13263
1.13085
1.12767
1.11932
1.10935
1.10077
1.09821
1.09844
1.097
1.09422
1.09111
1.08977
1.08916
1.08615
1.08243
1.09007
1.10167
1.10324
1.09974
1.1017
1.09838
1.09264
1.09888
1.0963
1.09016
1.10114
1.09901
1.10451
1.09789
1.09857
1.12689
1.13288
1.10936
1.09754
1.09023
1.08846
1.09699
1.09729
1.11175
1.11328
1.11639
1.12734
1.12326
1.12358
1.12434
1.11009
1.11296
1.10092
1.08351
1.10202
1.0715
1.05688
1.08699
1.05242
1.04061
1.08322
1.06163
1.04339
1.097
1.02743
1.06944
1.08602
1.00071
1.03499
1.11417
1.06605
0.985073
1.04522
1.10397
1.04528
0.958723
1.0702
1.10592
1.09718
1.02633
0.973037
0.989752
1.06804
1.09941
1.06362
1.02197
1.04802
1.07753
1.01913
1.02417
1.05093
1.07357
1.10986
1.1395
1.12419
1.29063
1.37806
1.27055
1.45197
1.36601
1.1966
1.1362
1.01801
1.13401
1.20704
1.11826
1.06368
1.27629
1.18513
1.15208
1.24638
1.12929
1.13491
1.15766
1.18473
1.18248
1.17229
1.17268
1.16517
1.15416
1.14996
1.14763
1.14567
1.14018
1.13842
1.14077
1.14265
1.14425
1.14281
1.13881
1.13756
1.13951
1.14076
1.13883
1.13799
1.13801
1.13954
1.14127
1.14026
1.13856
1.13891
1.14008
1.1443
1.14902
1.14579
1.13775
1.13708
1.14435
1.15001
1.15392
1.15276
1.15138
1.14736
1.14312
1.14177
1.13679
1.13906
1.13794
1.13661
1.13115
1.13003
1.13088
1.12031
1.11003
1.10976
1.10915
1.11216
1.10755
1.09807
1.11072
1.10812
1.08812
1.09638
1.10401
1.10401
1.09887
1.09098
1.0977
1.09517
1.09424
1.11596
1.13198
1.12929
1.12955
1.13549
1.13517
1.12956
1.12349
1.11685
1.1075
1.10016
1.098
1.09987
1.10063
1.09651
1.09192
1.08993
1.09161
1.09027
1.08366
1.08597
1.10027
1.10788
1.10292
1.10637
1.10645
1.09803
1.09961
1.0998
1.08969
1.09679
1.098
1.11613
1.11139
1.108
1.12021
1.12784
1.12139
1.10967
1.09827
1.09782
1.10356
1.10598
1.1254
1.12629
1.13706
1.14652
1.13602
1.14084
1.14011
1.13392
1.12871
1.11566
1.10286
1.11238
1.08793
1.0721
1.09592
1.06116
1.06247
1.09566
1.05833
1.06085
1.10093
1.0281
1.07036
1.09535
1.00986
1.03496
1.12858
1.06412
0.993767
1.05478
1.11165
1.04341
0.964606
1.05544
1.10992
1.10946
1.04648
0.981924
1.00031
1.08314
1.10838
1.05593
1.02702
1.07268
1.08404
1.02621
1.04538
1.07711
1.11866
1.15717
1.15947
1.08681
1.30342
1.37265
1.26423
1.47368
1.32395
1.16104
1.15279
1.03982
1.08996
1.12932
1.09546
1.07103
1.31243
1.19355
1.14451
1.25175
1.12447
1.12774
1.14053
1.16707
1.17596
1.16758
1.1668
1.16688
1.15843
1.15279
1.1482
1.14436
1.13922
1.13509
1.13481
1.13658
1.13931
1.14081
1.14157
1.13942
1.13871
1.13788
1.13664
1.13502
1.13435
1.13566
1.13674
1.13581
1.13675
1.13615
1.13166
1.13277
1.1401
1.13921
1.13464
1.13508
1.1421
1.14385
1.14375
1.14372
1.1407
1.13985
1.13491
1.13789
1.1381
1.13625
1.13093
1.12991
1.12676
1.12007
1.11589
1.12085
1.11717
1.11224
1.1128
1.09931
1.10697
1.11015
1.08964
1.10253
1.10385
1.08661
1.09979
1.10158
1.09587
1.09094
1.0885
1.09465
1.09349
1.09427
1.11241
1.12932
1.13063
1.13003
1.13485
1.13366
1.12617
1.11818
1.10807
1.10105
1.09624
1.09675
1.09782
1.09689
1.09327
1.08993
1.08983
1.09167