/*--------------------------------*- C++ -*----------------------------------*\
| =========                 |                                                 |
| \\      /  F ield         | OpenFOAM: The Open Source CFD Toolbox           |
|  \\    /   O peration     | Version:  dev                                   |
|   \\  /    A nd           | Web:      http://www.openfoam.org               |
|    \\/     M anipulation  |                                                 |
\*---------------------------------------------------------------------------*/
FoamFile
{
    version     2.0;
    format      ascii;
    class       volScalarField;
    object      T;
    location    "9.152";
}
// * * * * * * * * * * * * * * * * * * * * * * * * * * * * * * * * * * * * * //

dimensions      [0 0 0 1 0 0 0];

internalField   nonuniform List<scalar> 
12225
(
291.283
290.997
291.392
291.663
292.012
292.261
292.675
292.886
293.409
293.519
294.181
294.152
294.908
294.964
295.138
296.648
294.97
296.217
290.672
290.628
291.249
291.299
291.848
291.685
292.39
292.003
292.983
292.325
293.658
292.754
294.182
293.737
293.956
295.481
294.201
295.178
290.821
290.635
291.434
291.194
292.011
291.586
292.549
291.919
292.951
292.284
293.158
292.826
293.282
293.449
293.794
293.804
294.292
293.659
291.016
290.601
291.5
291.18
291.947
291.797
292.395
292.444
292.642
293.159
292.864
293.647
293.045
294.155
293.544
294.567
294.144
294.507
291.04
290.743
291.44
291.333
291.783
292.051
292.351
292.7
292.685
293.354
293.342
293.658
293.511
294.066
293.858
294.405
294.241
294.442
290.975
290.969
291.335
291.522
291.755
292.275
292.341
292.742
292.835
293.479
293.437
293.599
293.633
294.183
294.012
294.339
294.282
294.658
290.913
291.183
291.286
291.679
291.845
292.39
292.391
292.813
293.067
293.471
293.458
293.584
293.777
294.17
294.248
294.252
294.478
294.597
290.95
291.355
291.312
291.789
291.987
292.439
292.433
292.927
293.125
293.497
293.533
293.743
293.845
294.17
294.323
294.387
294.576
294.732
291.066
291.414
291.447
291.85
292.056
292.499
292.53
292.999
293.243
293.607
293.627
293.785
293.944
294.156
294.314
294.478
294.692
294.807
291.116
291.539
291.693
291.977
292.146
292.605
292.748
293.136
293.35
293.6
293.726
293.965
294.089
294.337
294.491
294.698
294.859
294.85
291.325
291.687
291.662
292.218
292.42
292.665
292.898
293.399
293.633
293.769
293.888
294.16
294.235
294.508
294.747
294.903
295.036
295.04
291.548
291.826
292.125
292.385
292.627
293.048
293.243
293.576
293.855
294.172
294.207
294.433
294.708
294.962
295.187
295.23
295.408
295.582
291.919
292.122
292.467
292.758
292.98
293.313
293.699
293.94
294.187
294.432
294.685
294.972
295.221
295.393
295.572
295.825
295.995
296.016
292.267
292.467
292.931
293.161
293.518
293.812
294.094
294.403
294.701
294.934
295.274
295.531
295.767
296.05
296.22
296.417
296.555
296.77
292.716
293.027
293.483
293.734
294.07
294.362
294.69
294.976
295.293
295.597
295.875
296.152
296.465
296.657
296.897
297.11
297.31
297.437
293.422
293.681
294.133
294.424
294.741
295.032
295.366
295.696
296.003
296.299
296.61
296.889
297.182
297.434
297.668
297.87
298.094
298.288
294.164
294.457
294.93
295.234
295.523
295.86
296.185
296.491
296.803
297.12
297.433
297.713
297.974
298.241
298.482
298.727
298.965
299.17
295.072
295.372
295.846
296.122
296.422
296.771
297.022
297.289
297.593
297.889
298.203
298.427
298.655
298.924
299.133
299.416
299.606
299.795
295.863
296.156
296.633
296.872
297.163
297.518
297.705
297.919
298.216
298.462
298.8
298.933
299.11
299.326
299.486
299.772
299.921
300.113
296.56
296.862
297.334
297.53
297.765
298.129
298.197
298.373
298.669
298.874
299.222
299.266
299.408
299.543
299.693
299.945
300.047
300.229
297.159
297.393
297.835
297.99
298.232
298.597
298.566
298.789
299.059
299.176
299.432
299.405
299.523
299.582
299.716
299.91
299.98
300.154
297.556
297.763
298.215
298.36
298.573
298.864
298.917
299.135
299.285
299.364
299.549
299.541
299.664
299.646
299.73
299.814
299.849
299.993
297.96
298.076
298.501
298.703
298.84
299.074
299.198
299.305
299.358
299.482
299.623
299.671
299.762
299.717
299.747
299.731
299.712
299.766
298.207
298.33
298.699
298.887
299.037
299.189
299.3
299.449
299.519
299.609
299.638
299.658
299.694
299.678
299.695
299.657
299.649
299.613
298.414
298.521
298.838
299.032
299.223
299.382
299.506
299.603
299.674
299.721
299.745
299.777
299.778
299.794
299.797
299.785
299.769
299.723
298.574
298.67
298.992
299.183
299.34
299.499
299.605
299.672
299.721
299.742
299.769
299.776
299.778
299.775
299.761
299.754
299.731
299.717
298.642
298.71
299.017
299.209
299.367
299.512
299.618
299.709
299.769
299.802
299.799
299.768
299.712
299.656
299.601
299.547
299.495
299.431
298.709
298.824
299.134
299.298
299.427
299.537
299.602
299.647
299.642
299.611
299.525
299.434
299.32
299.232
299.134
299.057
298.962
298.875
298.703
298.773
299.115
299.296
299.41
299.47
299.479
299.447
299.385
299.315
299.236
299.187
299.131
299.114
299.071
299.068
299.005
299.017
298.911
298.841
299.111
299.285
299.416
299.525
299.632
299.744
299.863
299.99
300.122
300.261
300.396
300.532
300.656
300.779
300.879
301.028
299.378
294.48
295.384
295.809
296.078
296.448
296.776
297.127
297.393
297.586
297.811
297.995
298.209
298.325
298.382
298.39
298.438
298.549
298.698
298.836
298.936
299.028
299.14
299.249
299.362
299.503
299.593
299.54
299.311
299.032
298.882
298.873
298.856
298.785
298.716
298.698
298.726
298.801
298.905
299.134
299.543
300.138
300.986
301.848
302.017
301.217
299.792
299.221
299.623
299.492
299.417
299.622
299.199
298.626
298.354
298.296
297.859
297.223
296.459
295.572
294.368
293.291
292.368
291.728
291.454
291.091
290.596
289.988
289.288
288.69
288.235
287.913
287.965
287.691
286.841
289.22
291.836
289.441
286.709
285.486
284.435
283.474
282.804
282.67
283.569
286.785
290.032
289.543
286.733
284.649
283.515
282.573
281.769
281.172
280.742
280.356
279.907
279.434
279.023
278.8
278.75
278.671
278.285
277.607
277.198
277.688
278.44
277.11
276.651
277.295
276.913
276.756
276.571
276.656
276.472
276.198
275.791
275.517
275.683
275.725
275.408
275.165
275.324
275.748
275.964
276.142
276.092
275.875
275.657
275.467
275.154
274.907
274.872
274.6
274.898
275
275.347
275.127
275.087
274.952
274.994
274.544
273.399
271.592
269.269
268.335
266.368
270.419
269.412
269.833
267.266
266.792
264.642
262.27
258.472
255.41
258.094
257.389
256.271
253.379
252.417
254.716
253.947
250.317
248.272
249.259
248.114
242.847
235.775
239.314
236.972
235.826
238.809
238.787
239.907
243.042
246.1
244.01
251.572
251.406
298.909
293.261
294.961
295.643
295.767
295.87
296.225
296.157
296.029
295.717
295.569
295.566
295.611
295.431
295.047
294.625
294.314
294.267
294.434
294.642
294.776
294.908
295.038
295.185
295.309
295.269
294.938
294.402
293.985
293.894
294.033
294.144
294.173
294.26
294.344
294.415
294.454
294.42
294.31
294.297
294.401
294.518
294.601
294.756
295.018
295.274
294.826
293.782
294.488
294.944
293.794
295.693
297.872
295.39
293.411
294.089
294.678
294.036
292.88
292.025
290.218
288.246
286.979
286.313
287.021
287.372
287.069
286.66
286.028
285.324
285.009
285.277
285.34
284.677
283.701
283.49
285.05
286.906
286.775
285.213
283.597
281.351
278.802
278.034
279.749
281.103
280.316
278.813
277.672
276.863
276.234
275.814
275.988
276.576
277.269
277.559
277.345
276.823
276.529
276.789
277.542
278.127
277.934
277.119
276.453
275.672
280.95
278.1
275.285
277.188
276.288
275.778
274.904
275.806
275.628
276.054
275.625
272.97
270.694
272.517
274.501
273.514
269.706
266.788
266.159
266.383
267.971
269.563
269.321
266.817
264.746
263.242
262.959
262.052
260.309
258.943
259.038
259.21
260.326
260.435
261.269
260.951
258.58
253.988
249.042
249.043
250.613
249.165
248.107
253.41
249.908
249.441
245.987
241.627
233.381
229.319
231.609
230.328
230.944
229.305
225.338
226.991
230.881
227.153
222.583
222.15
217.514
209.091
202.306
201.734
206.899
206.275
208.671
208.21
221.407
212.059
214.975
211.249
226.093
216.446
300.067
294.722
295.881
295.613
295.605
295.338
295.442
294.876
293.86
292.744
291.985
291.274
290.793
290.81
291.851
293.949
295.365
296.147
296.58
296.34
296.085
295.419
294.865
294.319
293.849
293.4
293.38
294.21
295.065
295.563
295.989
296.78
297.275
297.359
297.275
297.223
297.178
297.151
297.07
296.866
296.451
295.958
295.658
295.785
295.985
295.483
294.301
293.425
293.851
294.781
293.922
291.99
292.21
293.105
292.701
291.215
290.789
292.733
293.35
292.542
291.328
289.161
287.683
285.908
285.339
286.389
287.042
286.583
285.862
285.559
285.266
285.175
286.408
286.08
283.196
281.79
283.576
284.238
284.714
286.691
284.586
281.568
280.512
279.786
279.187
278.685
278.27
278.252
278.684
278.898
278.61
278.494
278.973
280.226
281.864
283.074
283.45
283.056
282.469
282.029
281.967
282.135
282.882
284.204
284.659
279.8
284.966
285.554
283.445
284.291
282.844
280.767
280.26
281.076
278.921
279.928
283.696
284.605
277.748
273.276
275.515
282.547
285.161
278.189
270.831
269.165
269.681
269.797
271.117
271.834
271.192
269.381
265.26
262.266
261.132
259.052
255.233
251.735
250.943
254.735
255.779
252.645
250.705
247.879
249.965
259.576
280.004
246.97
240.507
243.044
241.396
241.404
238.213
235.371
230.951
234.682
222.111
220.298
219.934
222.287
224.233
220.019
220.191
218.847
213.423
210.021
206.572
201.353
197.051
189.584
198.683
208.836
215.244
217.725
247.809
223.593
235.6
242.961
225.651
208.845
300.992
295.201
296.549
295.674
294.978
294.538
294.211
293.191
291.479
290.954
293.532
296.165
296.906
298.279
299.036
298.156
297.891
295.992
294.606
293.725
292.834
293.376
293.29
293.72
294.006
295.341
296.145
296.864
297.715
298.764
299.52
299.65
299.991
300.064
300.306
300.169
299.99
299.787
299.576
299.421
299.34
299.184
298.837
298.479
298.183
298.076
297.769
296.788
295.608
295.134
295.515
295.165
293.716
292.16
291.198
291.557
291.652
291.971
291.074
289.183
289.663
290.12
289.981
289.745
288.651
287.692
287.346
286.722
285.802
285.061
285.697
285.809
285.159
285.303
284.269
282.165
281.39
282.248
284.557
284.666
280.87
278.86
278.031
277.375
277.001
276.286
276.719
278.656
280.105
280.422
280.188
279.956
280.276
281.161
282.059
282.645
282.941
283.175
283.526
283.475
282.626
281.7
282.396
284.949
287.175
282.491
289.458
292.218
279.438
285.906
288.697
281.261
281.573
285.16
281.674
277.677
278.99
284.51
284.767
282.945
277.501
272.508
275.527
281.996
278.699
272.615
273.545
275.189
273.158
269.844
270.618
274.536
270.064
265.553
266.622
264.17
261.796
262.144
249.786
247.775
256.985
258.247
253.744
253.754
266.353
287.41
322.561
258.913
248.6
240.632
237.618
236.466
234.374
234.908
239.989
265.145
230.3
218.623
220.862
222.241
230.531
227.816
219.995
214.904
209.971
203.932
202.422
201.601
196.225
198.082
197.926
200.783
215.645
237.688
273.992
252.427
267.206
289.141
232.644
211.566
302.102
296.02
296.763
296.278
295.486
294.576
293.471
293.117
292.584
293.263
296.455
297.716
297.101
296.32
295.119
293.652
292.546
292.51
291.887
292.299
292.057
292.676
293.706
295.053
296.86
298.167
299.658
300.324
301.494
301.729
302.146
302.131
302.31
302.703
302.505
302.88
302.739
302.605
302.236
301.865
301.64
301.476
301.507
301.687
301.44
300.769
299.869
298.982
298.086
296.785
296.183
295.32
293.927
292.306
291.694
291.945
291.72
291.648
291.517
290.641
290.392
289.82
288.705
288.032
287.564
287.341
288.188
288.858
288.884
288.104
287.074
287.01
286.469
284.334
282.579
282.62
282.257
280.801
282.773
284.787
281.427
278.491
277.137
276.502
276.742
277.676
279.968
282.079
283.256
283.539
283.129
283.536
284.475
285.12
285.24
284.924
284.738
285.083
285.821
285.778
284.488
284.237
287.28
291.279
290.306
284.916
293.61
300.986
280.506
288.81
295.612
284.005
282.334
289.094
287.579
281.377
281.936
286.518
283.147
278.623
282.495
287.984
284.615
282.918
284.749
280.878
275.874
278.061
281.768
276.568
268.549
276.455
279.324
268.53
266.026
267.711
266.007
272.206
258.927
247.074
252.616
261.429
262.672
261.184
270.412
290.859
333.051
277.697
269.853
243.058
235.69
229.457
225.812
231.776
240.919
295.881
263.105
222.361
222.171
221.577
229.269
234.059
226.494
214.558
209.325
201.505
200.049
202.098
198.315
197.654
205.326
207.696
204.214
229.809
275.028
272.295
254.041
256.324
230.41
214.088
302.429
295.971
295.054
294.483
295.125
294.751
291.479
291.721
297.583
299.797
298.119
298.096
295.579
293.73
293.142
291.611
291.209
291.316
291.769
292.638
293.632
295.133
297.675
299.894
302.07
302.756
303.115
302.673
302.523
301.907
301.422
301.458
301.076
301.388
301.67
301.714
302.111
302.071
301.976
301.883
301.775
301.52
301.339
301.504
301.913
302.307
302.428
302.203
301.782
300.694
299.766
298.978
298.669
296.827
294.289
293.592
293.333
291.766
290.845
290.383
289.68
288.784
288.199
287.99
287.166
285.785
285.067
285.604
286.689
286.444
285.378
285.307
284.91
282.853
280.85
280.939
280.447
280.607
284.673
284.371
279.605
277.687
277.822
278.447
279.55
281.059
282.564
283.543
283.805
283.398
283.48
284.283
284.913
285.006
284.4
283.964
284.186
285.376
286.938
287.139
285.734
285.98
288.019
290.164
288.792
283.545
287.291
291.7
281.915
288.848
295.191
285.806
281.763
287.536
291.137
284.36
278.548
283.871
289.925
283.465
275.53
280.194
286.218
284.964
284.485
286.646
282.838
281.144
286.745
288.624
273.156
273.113
285.837
280.791
271.738
272.203
271.483
275.379
271.112
261.378
257.09
259.918
263.83
268.933
266.631
259.279
318.7
296.254
299.099
248.542
238.6
232.838
228.813
224.553
228.571
288.237
293.421
241.584
228.409
221.67
226.569
237.442
230.878
217.703
209.586
199.359
203.413
208.927
229.643
218.203
193.165
209.076
205.88
214.54
254.049
277.697
239.901
226.001
228.227
214.608
302.029
294.487
292.185
293.155
294.561
293.213
292.967
297.252
299.849
299.625
297.843
296.687
294.343
292.402
292.115
291.309
292.902
293.168
294.203
296.044
297.478
300.139
301.607
302.662
302.676
301.387
300.509
299.065
298.48
297.999
297.577
298.041
298.426
298.977
299.845
300.286
300.388
300.083
299.686
298.849
298.183
297.599
297.313
297.517
298.601
299.669
300.382
301.1
301.817
302.59
302.706
302.2
302.655
302.254
300.152
298.911
297.342
293.942
292.657
291.775
291.274
290.624
288.994
287.081
284.984
283.19
282.479
283.356
284.327
284.237
284.588
285.147
284.261
283.136
281.434
280.558
281.04
283.226
284.832
281.062
278.089
277.994
279.207
280.954
282.049
282.473
282.685
283.239
284.029
285.167
286.778
287.877
287.523
285.936
284.462
284.019
284.954
287.019
288.988
288.729
287.711
288.392
286.556
286.517
292.959
287.239
289.326
288.617
280.794
289.216
297.899
284.598
289.163
296.899
287.637
290.549
287.546
285.306
285.989
286.775
281.379
279.844
283.952
284.613
280.324
282.703
286.32
284.75
286.667
296.796
284.79
271.114
283.182
293.245
277.347
264.037
275.461
283.191
265.443
253.081
253.669
261.223
265.511
267.364
254.177
242.463
309.037
306.628
324.562
255.902
238.913
239.518
248.42
225.403
219.689
251.543
283.993
263.552
242.196
229.204
228.809
241.305
233.919
222.774
209.588
197.456
206.701
213.089
245.773
245.187
204.172
201.71
211.796
204.614
226.017
261.188
234.258
233.776
236.608
216.157
301.813
294.166
292.844
295.443
294.378
294.063
295.644
298.077
300.077
297.912
295.17
295.567
292.745
291.302
292.105
291.152
292.893
295.424
297.572
299.535
300.158
301.415
301.669
301.289
300.248
298.837
298.29
298.085
298.06
298.557
299.027
299.617
300.535
301.405
302.437
302.757
302.512
302.06
301.706
301.697
301.056
300.421
299.254
298.415
298.58
299.226
299.672
299.905
299.075
299.245
299.861
300.726
300.522
301.176
301.355
299.714
298.733
297.037
295.915
295.417
296.189
294.999
291.217
287.749
284.22
281.674
281.456
282.635
283.361
284.27
285.445
285.023
282.458
281.255
281.002
281.271
282.236
283.943
282.29
278.661
277.92
279.299
281.202
282.723
283.163
282.916
282.988
283.785
285.264
286.933
287.712
287.023
285.809
284.819
283.983
283.626
283.866
285.726
287.8
287.975
288.41
289.597
287.107
286.199
292.393
295.072
294.54
287.931
275.682
291.326
303.883
283.19
288.228
311.304
290.647
289.558
295.238
294.592
288.61
295.185
292.981
281.86
282.919
290.142
282.136
279.539
287.252
286.189
288.747
295.637
289.943
278.159
279.972
295.686
282.435
273.092
263.718
278.659
281.86
262.284
247.106
249.111
263.666
275.101
254.759
233.829
279.749
296.118
333.453
280.268
239.247
237.803
260.762
234.682
224.946
236.666
264.337
262.76
249.472
240.113
235.938
246.75
242.083
227.376
210.208
198.803
205.831
209.165
220.359
218.045
228.509
199.351
217.911
207.059
211.329
238.828
224.689
233.176
244.657
220.244
301.679
294.141
292.375
295.469
293.968
293.364
297.625
300.331
298.036
298.351
297.132
294.742
292.773
293.314
294.403
295.259
296.758
297.88
299.183
300.838
300.95
301.28
300.881
300.039
299.567
298.678
298.785
298.994
298.81
299.406
299.665
299.842
300.052
300.367
300.703
300.527
299.526
298.482
298.317
299.244
300.275
301.011
301.557
301.493
301.029
300.655
300.532
300.876
300.522
300.591
300.074
300.529
300.429
299.518
299.613
298.097
297.179
296.05
296.112
297.394
298.865
297.811
293.99
290.634
286.237
282.963
281.95
282.027
283.454
285.365
285.995
285.15
282.985
281.696
281.294
282.18
283.357
283.272
280.425
278.225
278.793
280.614
283.066
284.666
284.213
283.523
284.174
285.952
287.673
288.24
287.549
286.455
286.071
286.161
285.949
284.497
283.609
284.549
285.493
285.172
284.6
284.987
287.105
289.673
285.261
289.965
293.197
291.353
284.673
286.292
290.338
291.954
282.631
295.653
291.722
288.223
299.835
301.388
286.564
294.305
302.975
288.43
285.063
299.6
292.656
283.675
288.894
286.548
290.707
289.758
287.6
294.648
289.279
292.483
279.039
310.78
285.674
264.13
292.769
308.187
286.581
256.925
257.726
287.663
285.606
243.713
266.287
276.444
314.369
310.823
254.873
234.027
257.344
243.554
227.425
240.172
262.057
256.706
252.209
250.447
248.66
253.149
242.629
227.381
209.475
199.793
200.595
201.612
207.247
209
246.427
205.808
217.221
214.192
208.761
224.807
216.535
225.879
245.342
223.953
301.621
295.07
290.367
290.61
294.154
293.685
294.625
300.415
299.819
300.207
298.641
296.775
295.399
294.11
294.862
296.339
297.858
299.466
300.227
300.586
300.644
300.038
300.31
299.859
299.448
298.996
298.299
298.458
298.584
299.035
299.06
298.853
298.466
298.564
298.707
298.716
298.394
297.284
296.567
296.368
296.696
297.083
297.859
298.57
298.795
298.997
298.83
299.457
299.483
299.682
299.57
299.418
300.272
300.759
301.371
300.718
298.589
296.241
294.81
294.729
295.412
296.622
296.532
295.122
289.701
283.829
282.5
284.439
286.742
286.889
285.17
283.413
282.328
282.344
282.743
282.899
283.227
282.194
279.835
279.013
280.138
282.365
284.678
285.42
285.266
284.987
285.821
287.493
288.229
287.176
285.445
284.931
285.618
286.211
285.181
283.212
282.535
282.824
284.354
285.297
284.335
281.588
281.748
285.177
287.606
288.54
287.168
291.398
298.18
295.357
290.201
296.22
288.802
291.482
292.039
285.647
288.587
296.339
290.734
290.938
300.711
291.37
284.558
293.592
293.944
286.092
288.837
290.356
292.239
286.762
285.774
304.742
298.126
287.61
283.63
320.231
304.226
271.093
290.808
309.264
308.481
280.629
258.074
283.033
305.233
263.929
273.863
272.604
296.959
322.602
282.029
235.085
251.868
251.655
227.606
246.972
264.534
260.014
255.92
262.836
259.676
257.731
251.934
231.316
216.794
204.743
195.801
199.238
203.918
211.315
245.754
219.064
215.651
219.886
214.913
222.54
210.998
225.047
241.252
222.673
300.873
294.235
288.126
285.291
291.584
294.312
295.132
300.07
299.048
298.987
298.696
296.471
297.034
296.215
296.346
297.397
297.622
298.054
298.363
299.312
300.286
300.032
300.54
300.168
299.273
298.868
297.979
298.214
298.964
299.777
299.594
299.133
298.473
298.18
298.343
298.579
299.312
299.848
299.768
299.37
298.428
297.65
296.978
297.013
296.878
297.656
297.439
298.338
298.52
299.601
299.396
299.703
298.451
298.862
299.325
301.178
301.317
300.339
298.356
296.908
294.936
296.074
297.587
297.243
292.712
285.672
283.364
285.247
286.81
286.57
285.213
283.553
282.52
282.398
283.08
283.345
283.012
281.407
279.913
280.136
281.823
284.129
285.929
286.531
286.024
286.5
287.66
288.579
288.435
286.626
285.42
285.588
286.035
285.886
284.53
283.533
282.855
281.829
282.408
284.174
284.77
283.212
283.569
282.537
287.439
294.363
295.681
295.355
292.101
296.512
300.432
297.851
294.191
295.733
294.655
295.144
292.877
294.853
292.259
287.932
294.937
292.053
287.382
290.108
292.448
287.345
286.775
292.566
293.366
289
286.272
303.849
299.072
288.517
289.679
303.542
305.669
284.645
291.495
292.321
305.797
301.58
268.315
275.595
303.191
277.199
280.103
274.746
289.718
320.464
306.179
243.214
251.032
256.486
230.232
256.689
263.211
261.037
259.98
274.622
263.45
265.369
263.259
230.079
221.568
207.294
189.689
200.259
201.355
209.401
235.998
234.53
218.242
221.143
225.663
227.561
209.334
226.534
237.827
221.152
300.201
292.542
286.616
285.376
291.495
293.626
296.293
300.025
299.176
299.193
299.261
296.199
295.787
295.501
295.586
297.436
297.435
298.605
299.145
298.745
299.779
300.143
300.549
300.636
299.481
298.369
297.756
298.357
299.068
299.597
298.859
297.948
297.505
297.123
296.533
296.089
295.811
296.346
297.673
298.944
298.997
298.539
297.614
297.583
296.53
296.131
295.861
296.376
296.627
298.334
299.052
300.289
300.049
299.852
297.859
298.09
298.608
299.819
299.464
299.906
298.584
295.709
294.924
296.17
295.827
289.555
284.226
285.527
286.869
286.547
285.074
283.55
282.536
282.371
283.008
282.269
281.844
281.044
280.851
282.045
284.063
286.006
287.097
287.556
287.666
287.915
288.595
289.056
288.066
286.472
285.225
284.74
285.23
285.431
285.132
285.31
284.172
282.387
282.092
282.952
282.952
281.069
282.64
284.555
285.37
283.469
287.623
291.772
292.679
291.947
291.282
289.69
292.65
294.642
291.932
292.312
292.967
295.437
293.809
293.185
293.789
293.926
290.465
290.608
294.05
292.104
286.686
290.2
296.657
293.755
287.139
301.855
297.997
294.646
293.807
292.25
301.554
296.267
295.732
284.135
302.23
310.427
283.687
276.711
301.746
282.543
281.647
275.41
285.98
311.666
313.269
253.098
254.008
258.689
232.876
266.637
263.898
261.127
267.711
279.595
263.088
270.001
254.605
235.616
219.739
205.435
180.755
203.837
199.825
212.309
233.566
247.956
224.784
219.836
235.114
237.132
211.396
228.512
236.7
220.84
300.116
292.532
286.35
288.6
293.063
292.477
294.512
299.789
299.393
298.259
298.692
297.525
297.175
296.81
295.027
295.777
296.029
296.703
298.115
298.727
299.444
299.767
299.888
299.744
299.22
298.353
297.746
298.21
298.679
298.461
298.334
298.493
298.337
298.177
297.68
296.572
295.705
295.129
295.144
296.293
296.694
296.942
296.263
296.476
297.119
296.776
296.935
296.358
297.028
296.7
298.069
297.93
298.374
299.901
299.74
299.191
298.931
299.144
298.736
298.054
299.628
299.822
296.899
294.965
296.723
294.744
286.836
285.251
287.021
286.789
285.457
283.669
282.818
282.266
282.572
282.681
281.743
281.357
281.959
283.712
285.623
287.011
288.155
288.711
289.428
290.053
290.086
289.848
288.554
286.546
284.825
284.456
285.046
284.59
284.162
286.205
286.714
286.276
286.436
286.557
287.357
286.64
282.956
281.768
284.187
286.487
287.614
288.391
293.006
294.497
295.429
293.224
291.355
289.413
288.137
289.807
291.325
292.318
291.654
296.186
292.228
294.936
294.042
290.899
297.29
298.613
291.362
289.058
302.004
299.823
286.06
301.587
296.304
297.998
297.589
291.309
297.567
301.325
299.782
282.446
303.005
307.954
290.686
278.333
303.432
283.294
281.495
273.62
288.035
306.714
310.33
262.387
257.997
259.321
242.416
275.618
264.806
264.326
275.194
276.582
260.729
267.77
252.266
240.312
220.216
202.521
179.233
211.455
199.951
216.46
235.754
254.646
232.812
219.062
240.412
246.635
214.141
231.117
237.065
221.32
300.273
294.396
286.708
289.841
293.838
293.688
294.475
297.141
298.153
297.434
297.265
296.427
296.052
297.552
297.083
296.276
295.533
295.867
296.847
297.494
298.423
299.2
300.297
300.602
300.044
298.763
297.841
297.48
297.775
297.933
298.413
298.77
298.58
297.931
296.946
295.677
294.174
293.313
293.3
293.758
294.173
294.891
295.37
294.665
294.285
294.133
295.203
295.474
296.559
296.769
298.807
299.602
299.936
299.663
299.429
298.169
298.239
298.256
299.434
299.367
297.557
298.162
300.042
297.49
295.465
297.323
292.776
286.087
286.76
287.294
285.677
284.555
283.226
282.506
282.076
282.586
282.759
283.436
284.875
286.558
287.681
287.85
287.851
288.582
289.536
290.379
290.58
290.566
289.927
288.211
285.658
284.827
285.673
284.883
283.931
286.565
288.221
289.068
288.741
287.243
287.374
287.745
285.891
286.06
282.148
281.778
288.492
293.438
294.555
295.022
294.907
293.429
291.822
290.882
290.722
289.9
290.489
290.109
289.47
295.917
290.155
293.932
297.3
290.664
297.959
301.174
294.001
292.199
305.829
301.387
286.025
302.538
294.413
299.628
296.805
290.94
301.642
302.17
296.497
282.885
308.078
304.316
288.065
279.935
307.792
282.364
278.383
272.034
292.009
304.617
305.003
269.855
261.513
260.546
257.499
277.788
261.214
266.601
276.603
271.416
261.517
265.573
252.869
225.957
218.541
199.234
189.042
212.145
200.811
220.151
238.82
258.442
239.495
218.945
242.085
254.197
217.354
233.661
239.112
223.208
300.171
295.863
287.648
288.119
291.725
291.777
295.037
297.727
297.938
296.828
296.531
297.071
296.847
297.221
297.646
297.987
297
295.677
295.408
295.721
296.817
297.852
299.542
300.359
300.378
298.786
297.334
296.788
297.265
297.766
298.06
298.213
298.087
298.001
297.752
296.263
294.477
292.818
292.778
293.429
294.809
295.416
295.792
296.187
295.601
295.279
294.916
295.383
296.078
296.372
296.59
296.478
297.762
299.972
300.827
299.908
299.052
298.594
296.788
297.887
300.353
298.943
297.985
299.83
297.521
296.705
297.392
290.858
286.047
287.72
286.913
284.432
283.882
283.76
282.766
282.646
283.562
285.049
287.112
288.973
289.657
289.626
289.408
289.501
290.239
290.746
291.085
291.283
291.099
289.91
287.352
286.731
287.628
286.736
286.622
288.269
288.335
290.185
290.694
289.107
290.38
288.785
288.605
287.881
285.908
284.847
286.533
290.336
294.165
295.476
293.787
293.137
291.133
289.876
290.188
288.403
290.015
290.554
289.138
294.228
289.383
291.944
297.408
289.964
297.763
301.488
293.235
297.48
307.009
297.789
290.484
303.145
290.837
302.375
294.061
289.337
308.168
301.427
288.182
285.943
311.955
299.721
282.164
283.754
313.089
282.039
274.371
271.765
291.821
303.576
300.152
273.45
262.606
264.385
271.159
274.034
260.025
272.046
274.403
266.98
262.32
258.192
244.246
225.508
214.6
198.343
204.365
203.455
200.35
223.509
242.794
267.288
242.773
220.881
243.618
262.463
222.217
236.332
242.251
226.079
300.056
297.105
289.544
286.007
289.273
289.759
291.474
295.622
297.517
297.211
296.682
297.534
298.981
298.891
298.202
298.236
298.088
297.827
297.506
296.46
296.35
296.645
297.928
299.021
299.389
298.028
296.973
296.867
297.458
297.919
297.659
296.821
296.521
297.372
298.495
297.768
296.01
293.874
293.061
293.205
294.15
295.001
294.226
294.107
293.793
294.074
295.146
295.803
296.37
297.316
298.804
299.61
297.386
297.642
297.798
298.983
299.355
299.806
300.505
299.233
296.667
298.238
298.556
298.644
299.731
297.206
297.462
297.325
290.14
286.282
287.543
286.635
284.002
283.743
284.352
284.169
284.505
286.227
288.365
290.194
290.493
290.165
290.274
290.647
291.194
291.352
291.466
292.155
292.82
290.611
287.719
287.548
288.471
288.055
289.086
290.646
289.199
290.293
291.95
289.314
290.275
289.239
291.275
291.186
284.143
283.12
289.452
292.731
294.859
295.488
293.307
293.35
289.573
289.13
288.367
285.447
286.265
286.115
285.551
289.049
287.941
290.477
295.323
289.682
297.109
301.696
292.669
300.97
305.5
293.07
296.739
303.301
287.428
305.72
294.437
287.986
311.786
302.896
280.502
289.324
313.803
296.569
278.634
290.598
317.436
283.777
272.525
272.288
289.168
303.151
296.527
272.915
262.757
268.794
277.895
269.718
260.236
273.429
270.949
262.977
257.028
248.439
241.112
241.133
212.78
199.583
216.129
192.058
202.585
232.09
246.227
276.014
247.903
231.484
251.198
267.148
223.439
238.405
246.217
228.315
299.894
298.381
292.426
285.878
286.593
289.027
289.065
291.127
293.952
295.037
295.59
296.092
297.555
298.055
297.464
297.02
296.621
296.936
297.961
298.268
297.771
297.361
297.85
298.106
298.108
297.617
296.995
297.075
297.491
297.379
296.971
295.808
294.402
294.862
296.828
297.14
295.237
293.535
292.241
292.26
292.368
293.135
294.011
294.125
295.227
294.461
294.43
294.452
295.578
295.623
295.014
297.437
299.843
299.615
299.465
298.154
299.056
301.427
297.407
297.67
302.636
299.886
297.611
297.191
298.126
299.609
297.327
297.712
296.933
290.377
286.361
286.942
286.203
284.25
284.162
285.152
286.134
287.455
289.489
291.081
291.224
290.438
290.075
290.998
291.993
292.284
291.741
292.2
293.854
292.726
288.961
287.466
288.952
288.235
288.631
291.066
290.62
290.965
293.82
292.078
292.147
287.958
289.52
290.667
287.816
286.26
288.284
291.587
294.845
295.172
293.813
293.347
288.364
288.156
285.499
282.949
285.418
284.193
284.06
285.387
286.349
289.313
292.769
289.542
295.358
300.038
292.588
301.426
301.829
291.374
300.507
300.869
287.827
307.898
296.352
287.365
311.064
304.928
277.945
291.68
313.056
295.25
277.591
293.216
317.108
288.405
272.354
270.546
284.777
301.517
294.49
270.323
261.549
271.973
278.183
264.701
259.775
272.784
266.678
257.786
247.969
239.602
238.895
251.837
211.409
201.37
219.698
188.408
209.895
241.486
245.007
272.674
259.588
249.962
260.205
269.154
220.299
239.123
250.553
230.063
299.385
298.537
295.057
288.322
286.246
288.432
288.762
288.888
291.03
292.485
293.71
294.732
296.129
297.254
297.343
296.894
296.211
295.849
295.711
296.296
296.518
296.711
297.008
297.422
297.609
297.203
296.763
296.889
296.616
296.552
297.526
297.352
295.349
295.189
296.275
296.325
294.43
293.667
293.453
293.21
293.773
293.774
294.941
294.074
293.744
293.896
295.061
295.091
295.603
297.071
298.007
296.346
297.056
298.016
297.488
300.948
298.41
297.214
302.488
298.53
298.119
302.339
298.236
297.386
298.418
299.465
299.66
297.662
297.644
296.402
290.85
286.566
286.246
285.971
284.393
284.541
286.24
287.845
290.107
291.548
292.413
291.918
291.385
291.655
292.53
293.269
293.118
292.723
294.391
295.913
292.775
289.664
290.237
289.24
288.367
289.736