/*--------------------------------*- C++ -*----------------------------------*\
| =========                 |                                                 |
| \\      /  F ield         | OpenFOAM: The Open Source CFD Toolbox           |
|  \\    /   O peration     | Version:  dev                                   |
|   \\  /    A nd           | Web:      http://www.openfoam.org               |
|    \\/     M anipulation  |                                                 |
\*---------------------------------------------------------------------------*/
FoamFile
{
    version     2.0;
    format      ascii;
    class       volVectorField;
    object      U;
    location    "9.152";
}
// * * * * * * * * * * * * * * * * * * * * * * * * * * * * * * * * * * * * * //

dimensions      [0 1 -1 0 0 0 0];

internalField   nonuniform List<vector> 
12225
(
(7.12892 0.446852 0)
(5.32274 0.287249 0)
(3.93861 0.127819 0)
(3.90251 0.0773203 0)
(3.2094 0.111035 0)
(3.70353 0.0908247 0)
(2.84144 0.145263 0)
(3.42331 0.087749 0)
(2.31954 0.185651 0)
(3.06485 0.0591192 0)
(1.4753 0.228249 0)
(2.75874 0.0384582 0)
(0.124055 0.324896 0)
(2.35176 0.0875476 0)
(-1.13265 0.00859085 0)
(-0.27988 1.41812 0)
(-0.908242 -0.397005 0)
(-10.118 1.10033 0)
(9.91432 1.03245 0)
(10.5676 1.01146 0)
(8.60066 0.644178 0)
(9.61256 0.390667 0)
(7.24375 0.344062 0)
(9.33285 0.255393 0)
(6.44691 0.335058 0)
(9.38157 0.204783 0)
(5.70131 0.381442 0)
(9.66175 0.20473 0)
(4.41804 0.416697 0)
(10.5846 0.172222 0)
(2.12635 0.690862 0)
(12.4807 -0.360558 0)
(-0.770507 2.13232 0)
(12.506 -1.73211 0)
(3.80181 2.72273 0)
(-1.52499 4.70114 0)
(9.76291 0.937457 0)
(12.8869 1.29715 0)
(10.3179 0.898546 0)
(13.3481 0.658384 0)
(9.69388 0.59518 0)
(13.403 0.51852 0)
(8.76401 0.537232 0)
(13.5285 0.431128 0)
(7.88027 0.541328 0)
(13.6963 0.438613 0)
(7.31642 0.592709 0)
(13.4362 0.349318 0)
(7.27077 0.800497 0)
(12.6304 0.0155657 0)
(7.41617 2.09453 0)
(10.0519 -2.6762 0)
(7.22894 7.71652 0)
(10.1871 0.984423 0)
(7.93569 0.692178 0)
(14.3354 1.22924 0)
(10.5221 0.991028 0)
(15.248 0.741341 0)
(11.1514 0.84086 0)
(15.6962 0.71451 0)
(11.0368 0.823437 0)
(15.8035 0.531547 0)
(10.7287 0.960723 0)
(15.4653 0.281506 0)
(10.7571 1.2797 0)
(14.7854 -0.170239 0)
(10.6049 2.07779 0)
(13.4372 -1.42368 0)
(10.9254 4.26431 0)
(11.2433 -3.47749 0)
(10.8763 4.19835 0)
(10.8996 7.29852 0)
(8.01152 0.741059 0)
(13.636 1.07997 0)
(11.2546 1.16055 0)
(14.242 0.669825 0)
(12.2145 0.945523 0)
(14.8183 0.710751 0)
(13.0808 1.00594 0)
(14.9263 0.589228 0)
(13.3747 1.28627 0)
(14.3308 0.197342 0)
(13.7719 1.67109 0)
(13.7182 -0.187671 0)
(13.5851 2.72939 0)
(12.2491 -1.3622 0)
(13.6356 5.1241 0)
(11.4194 -3.37778 0)
(11.1953 8.34666 0)
(13.0995 1.29553 0)
(9.25386 0.947311 0)
(11.819 0.588287 0)
(12.3286 1.34373 0)
(12.6957 0.589232 0)
(12.5597 1.26806 0)
(13.2772 0.471564 0)
(13.6397 1.33419 0)
(13.6086 0.486892 0)
(13.812 1.69736 0)
(13.4837 0.0402628 0)
(14.0248 2.06245 0)
(13.3548 -0.0165592 0)
(13.9095 2.85261 0)
(12.8001 -0.585491 0)
(13.4963 3.86084 0)
(12.8436 -0.479351 0)
(10.9627 4.42865 0)
(14.4041 3.63369 0)
(9.9938 0.906173 0)
(11.4984 0.499789 0)
(12.2205 1.5978 0)
(12.3983 0.76573 0)
(12.7784 1.45287 0)
(12.855 0.409393 0)
(13.5248 1.52127 0)
(13.3012 0.675991 0)
(13.8776 1.93882 0)
(13.5252 0.197433 0)
(13.8674 2.2409 0)
(13.4692 0.216043 0)
(14.0197 2.92641 0)
(13.3243 0.117882 0)
(13.3389 3.51442 0)
(13.0113 0.401309 0)
(12.1739 3.34146 0)
(12.8818 3.81912 0)
(10.2865 0.924861 0)
(11.602 0.433555 0)
(12.0278 1.85061 0)
(12.5403 0.719773 0)
(13.0904 1.64324 0)
(13.0723 0.454399 0)
(13.4566 1.65452 0)
(13.3925 0.668445 0)
(13.8769 1.89869 0)
(13.7887 0.491411 0)
(13.8378 2.10795 0)
(13.6817 0.620821 0)
(13.7778 2.44083 0)
(13.7039 0.990666 0)
(13.2474 2.87248 0)
(13.3131 1.66612 0)
(12.5131 3.15106 0)
(12.8033 4.11894 0)
(10.2173 0.854176 0)
(11.2549 0.421187 0)
(12.088 1.81724 0)
(12.5818 0.769556 0)
(13.2107 1.67982 0)
(13.0831 0.611607 0)
(13.4939 1.7291 0)
(13.467 0.821138 0)
(13.8456 1.91425 0)
(13.8136 0.745211 0)
(13.839 2.06601 0)
(13.6887 0.977366 0)
(13.666 2.3089 0)
(13.5399 1.4845 0)
(13.2903 2.58987 0)
(13.3108 2.42999 0)
(12.9285 3.04335 0)
(12.9153 3.92015 0)
(10.4743 0.934425 0)
(11.4243 0.597059 0)
(11.9776 1.90412 0)
(12.4161 0.954224 0)
(13.0116 1.77416 0)
(13.0912 0.824765 0)
(13.47 1.73708 0)
(13.52 0.946435 0)
(13.7347 1.85222 0)
(13.84 1.07957 0)
(13.7738 2.03145 0)
(13.7377 1.45045 0)
(13.6957 2.21233 0)
(13.5949 1.96398 0)
(13.4006 2.52193 0)
(13.4264 2.81598 0)
(13.2839 3.10223 0)
(13.2509 3.9317 0)
(10.3776 0.644424 0)
(11.4046 0.714503 0)
(12.0025 1.7749 0)
(12.5534 1.03763 0)
(13.1123 1.70682 0)
(13.3028 1.0508 0)
(13.6006 1.74591 0)
(13.6786 1.2173 0)
(13.7377 1.87425 0)
(13.8556 1.40887 0)
(13.7824 1.98558 0)
(13.7526 1.80367 0)
(13.7115 2.20128 0)
(13.6352 2.25509 0)
(13.5212 2.61504 0)
(13.5112 2.95115 0)
(13.546 3.26097 0)
(13.6553 3.82755 0)
(10.3958 0.722462 0)
(11.3821 1.08881 0)
(11.9104 1.73518 0)
(12.3492 1.29042 0)
(12.8801 1.68463 0)
(13.1307 1.30684 0)
(13.4494 1.73204 0)
(13.6339 1.44938 0)
(13.7239 1.89211 0)
(13.8711 1.7673 0)
(13.8311 2.07074 0)
(13.8746 2.13881 0)
(13.9272 2.32187 0)
(13.903 2.45986 0)
(13.9044 2.71053 0)
(13.9227 3.01777 0)
(13.9877 3.33723 0)
(14.1352 3.67491 0)
(10.1246 0.566002 0)
(11.1885 1.28524 0)
(11.767 1.62258 0)
(12.2348 1.46092 0)
(12.7289 1.63194 0)
(13.0639 1.49498 0)
(13.3664 1.77175 0)
(13.5873 1.68092 0)
(13.7097 1.96501 0)
(13.8667 1.98003 0)
(13.9618 2.11006 0)
(14.0199 2.2349 0)
(14.1066 2.38255 0)
(14.1139 2.56122 0)
(14.1292 2.80603 0)
(14.1353 3.07021 0)
(14.1572 3.35136 0)
(14.2684 3.66178 0)
(10.2514 0.414489 0)
(11.267 1.55253 0)
(11.8903 1.66231 0)
(12.3944 1.61748 0)
(12.812 1.71032 0)
(13.1407 1.65768 0)
(13.4207 1.80596 0)
(13.7068 1.82824 0)
(13.9145 1.98788 0)
(14.1161 2.11934 0)
(14.2686 2.25295 0)
(14.3406 2.40853 0)
(14.4247 2.55469 0)
(14.463 2.73249 0)
(14.4953 2.93798 0)
(14.5292 3.18234 0)
(14.5618 3.41484 0)
(14.7173 3.64017 0)
(9.99376 0.434264 0)
(11.1024 1.63768 0)
(11.7685 1.71238 0)
(12.3205 1.75164 0)
(12.734 1.82539 0)
(13.0881 1.81633 0)
(13.3999 1.8596 0)
(13.6947 1.89945 0)
(13.9399 1.99658 0)
(14.1496 2.11971 0)
(14.3234 2.25523 0)
(14.4521 2.4268 0)
(14.5292 2.59344 0)
(14.6062 2.77639 0)
(14.6792 2.96453 0)
(14.7356 3.16154 0)
(14.7859 3.37945 0)
(14.9503 3.57795 0)
(10.1029 0.143464 0)
(11.1403 1.65094 0)
(11.7766 1.74025 0)
(12.3979 1.79454 0)
(12.9332 1.86325 0)
(13.3929 1.88696 0)
(13.7508 1.90768 0)
(14.0503 1.9489 0)
(14.2831 2.03693 0)
(14.4707 2.16764 0)
(14.5845 2.31977 0)
(14.6713 2.47023 0)
(14.7129 2.64529 0)
(14.7552 2.80869 0)
(14.7949 2.96442 0)
(14.8356 3.12951 0)
(14.8405 3.27688 0)
(14.9757 3.41312 0)
(10.1518 0.219438 0)
(11.1257 1.66402 0)
(11.7634 1.67802 0)
(12.4138 1.7229 0)
(12.9643 1.77983 0)
(13.4387 1.82973 0)
(13.8206 1.88556 0)
(14.1577 1.96095 0)
(14.4095 2.07376 0)
(14.6288 2.21854 0)
(14.7781 2.38917 0)
(14.9 2.56289 0)
(14.9919 2.73104 0)
(15.0637 2.88594 0)
(15.1001 3.01159 0)
(15.1676 3.11875 0)
(15.1965 3.2319 0)
(15.3099 3.31427 0)
(10.0592 0.196656 0)
(11.0343 1.57502 0)
(11.7293 1.57136 0)
(12.4609 1.64011 0)
(13.092 1.72018 0)
(13.5987 1.78519 0)
(13.9836 1.83054 0)
(14.2958 1.88522 0)
(14.5182 1.97221 0)
(14.7004 2.09538 0)
(14.8318 2.24288 0)
(14.9515 2.38636 0)
(15.0564 2.52852 0)
(15.1589 2.6504 0)
(15.2523 2.75778 0)
(15.351 2.85332 0)
(15.4022 2.9428 0)
(15.5361 3.01257 0)
(10.254 0.272849 0)
(11.1822 1.53766 0)
(11.8307 1.39257 0)
(12.4952 1.37696 0)
(13.1087 1.46472 0)
(13.6609 1.59193 0)
(14.1015 1.70317 0)
(14.4598 1.81032 0)
(14.7316 1.92242 0)
(14.953 2.04174 0)
(15.1261 2.1641 0)
(15.2812 2.25481 0)
(15.4086 2.33036 0)
(15.5242 2.39828 0)
(15.6196 2.45168 0)
(15.7006 2.51061 0)
(15.7341 2.57398 0)
(15.8109 2.62886 0)
(10.132 0.0216639 0)
(11.2054 1.26625 0)
(11.9199 1.25639 0)
(12.5831 1.28168 0)
(13.1767 1.34897 0)
(13.7362 1.44785 0)
(14.2075 1.53186 0)
(14.6135 1.60791 0)
(14.9201 1.68801 0)
(15.1722 1.76796 0)
(15.3583 1.84289 0)
(15.5173 1.90045 0)
(15.6323 1.95299 0)
(15.7244 2.02601 0)
(15.7936 2.10145 0)
(15.8453 2.18717 0)
(15.8589 2.27497 0)
(15.9126 2.35418 0)
(10.0559 0.110695 0)
(10.934 1.12146 0)
(11.6814 1.00974 0)
(12.3997 1.00313 0)
(13.0613 1.03448 0)
(13.6724 1.10029 0)
(14.2088 1.17865 0)
(14.6549 1.28085 0)
(14.9866 1.40228 0)
(15.2554 1.50917 0)
(15.4374 1.58909 0)
(15.5858 1.64503 0)
(15.6966 1.68746 0)
(15.7893 1.7376 0)
(15.8683 1.79561 0)
(15.9259 1.85385 0)
(15.9633 1.92458 0)
(16.0343 1.98323 0)
(10.2912 -0.0225106 0)
(11.2475 0.898032 0)
(11.961 0.783839 0)
(12.6818 0.767731 0)
(13.3643 0.791839 0)
(13.977 0.828194 0)
(14.4964 0.879414 0)
(14.8911 0.992502 0)
(15.1852 1.11138 0)
(15.4288 1.20873 0)
(15.6177 1.27097 0)
(15.789 1.30355 0)
(15.9209 1.34316 0)
(16.0259 1.38692 0)
(16.1096 1.43426 0)
(16.1613 1.48621 0)
(16.2019 1.53918 0)
(16.2534 1.60198 0)
(10.3333 -0.0318667 0)
(11.328 0.808961 0)
(12.1655 0.67183 0)
(12.8896 0.585959 0)
(13.5159 0.573217 0)
(14.0614 0.616072 0)
(14.5142 0.696586 0)
(14.9188 0.811909 0)
(15.2745 0.909553 0)
(15.5771 0.984435 0)
(15.8252 1.03404 0)
(16.0152 1.06132 0)
(16.1384 1.09065 0)
(16.2134 1.12306 0)
(16.2377 1.15936 0)
(16.2476 1.20796 0)
(16.2553 1.26178 0)
(16.2904 1.32012 0)
(10.2453 -0.0844948 0)
(11.2168 0.492196 0)
(12.1131 0.394785 0)
(12.9367 0.394649 0)
(13.6424 0.416844 0)
(14.2274 0.453739 0)
(14.7012 0.491293 0)
(15.0911 0.547735 0)
(15.4159 0.611459 0)
(15.6806 0.672373 0)
(15.8887 0.743865 0)
(16.0486 0.800292 0)
(16.1613 0.853119 0)
(16.2232 0.894647 0)
(16.2566 0.931135 0)
(16.2643 0.97599 0)
(16.2795 1.01047 0)
(16.3091 1.03353 0)
(10.0908 -0.112532 0)
(11.2973 0.306571 0)
(12.3751 0.206526 0)
(13.3578 0.185968 0)
(14.1541 0.209113 0)
(14.7614 0.263379 0)
(15.1987 0.333033 0)
(15.5159 0.424691 0)
(15.7615 0.496415 0)
(15.9846 0.543562 0)
(16.1877 0.576216 0)
(16.3613 0.598656 0)
(16.5104 0.623137 0)
(16.6025 0.658517 0)
(16.6784 0.696621 0)
(16.7044 0.728213 0)
(16.7259 0.75997 0)
(16.7434 0.768928 0)
(10.2898 -0.267732 0)
(11.4537 -0.0983599 0)
(12.4588 -0.182164 0)
(13.3528 -0.145721 0)
(14.0928 -0.0633964 0)
(14.6822 0.060488 0)
(15.1198 0.174898 0)
(15.4754 0.268686 0)
(15.7796 0.31919 0)
(16.0349 0.323148 0)
(16.2638 0.325859 0)
(16.4272 0.326991 0)
(16.5572 0.347089 0)
(16.6455 0.401377 0)
(16.71 0.45265 0)
(16.7398 0.491303 0)
(16.7669 0.51869 0)
(16.7768 0.517161 0)
(10.1766 -0.290145 0)
(11.3697 -0.292448 0)
(12.5474 -0.338317 0)
(13.5233 -0.268438 0)
(14.2368 -0.198098 0)
(14.76 -0.102295 0)
(15.1668 -2.66286e-05 0)
(15.5042 0.0839132 0)
(15.7984 0.129878 0)
(16.001 0.131337 0)
(16.1438 0.138279 0)
(16.1876 0.140007 0)
(16.1885 0.16765 0)
(16.1478 0.208064 0)
(16.0903 0.246813 0)
(16.0175 0.274258 0)
(15.9463 0.286367 0)
(15.8598 0.285953 0)
(10.2646 -0.293363 0)
(11.8145 -0.571921 0)
(12.9005 -0.543968 0)
(13.5705 -0.411508 0)
(13.9047 -0.301379 0)
(14.0833 -0.194232 0)
(14.2309 -0.0854164 0)
(14.3515 -0.0128331 0)
(14.4617 0.0286185 0)
(14.4706 0.0440562 0)
(14.4273 0.0606266 0)
(14.3075 0.0888196 0)
(14.1738 0.115921 0)
(14.0149 0.146471 0)
(13.8584 0.172381 0)
(13.6796 0.19104 0)
(13.5133 0.19988 0)
(13.3038 0.20239 0)
(10.5045 -0.662754 0)
(11.3354 -0.862086 0)
(11.5404 -0.658469 0)
(11.4571 -0.431737 0)
(11.297 -0.256273 0)
(11.1611 -0.123167 0)
(11.0937 -0.0166516 0)
(11.0704 0.0385231 0)
(11.056 0.0714463 0)
(10.9918 0.0843577 0)
(10.906 0.0963663 0)
(10.786 0.106051 0)
(10.6518 0.111389 0)
(10.5038 0.126474 0)
(10.3402 0.135944 0)
(10.1722 0.149999 0)
(9.99972 0.149325 0)
(9.80141 0.156826 0)
(8.62514 -0.448256 0)
(7.29277 -0.36817 0)
(6.26473 -0.137131 0)
(5.78389 -0.00894752 0)
(5.71136 0.0409464 0)
(5.83176 0.0537001 0)
(6.03382 0.0591959 0)
(6.23473 0.0520593 0)
(6.4006 0.0507703 0)
(6.51018 0.0481525 0)
(6.57352 0.0494293 0)
(6.59541 0.0496805 0)
(6.58187 0.0531561 0)
(6.54677 0.0584816 0)
(6.49511 0.0617911 0)
(6.43568 0.0703916 0)
(6.38079 0.0622503 0)
(6.26602 0.103084 0)
(0.115952 0.81392 0)
(0.276189 0.844926 0)
(0.444742 0.859138 0)
(0.638058 0.835776 0)
(0.854153 0.816626 0)
(1.08646 0.803265 0)
(1.32729 0.78913 1.16295e-17)
(1.58271 0.773654 -1.15583e-17)
(1.84875 0.761086 0)
(2.10827 0.753916 -1.14079e-17)
(2.35751 0.760088 0)
(2.57933 0.774919 0)
(2.78153 0.796581 0)
(2.96125 0.820705 1.11063e-17)
(3.12973 0.843817 0)
(3.27135 0.867975 0)
(3.3788 0.891714 -1.08696e-17)
(3.43526 0.911378 0)
(3.44172 0.934424 0)
(3.41401 0.952894 0)
(3.34743 0.960052 1.05742e-17)
(3.21492 0.967261 0)
(3.04444 0.985205 1.04281e-17)
(2.85695 1.00242 0)
(2.64321 1.00563 0)
(2.41425 0.997427 1.02149e-17)
(2.15966 0.983595 0)
(1.8843 0.970716 -1.00686e-17)
(1.62005 0.946479 0)
(1.38009 0.909243 9.90768e-18)
(1.14304 0.878514 0)
(0.905084 0.852107 0)
(0.690631 0.824705 0)
(0.520717 0.801736 0)
(0.384274 0.775837 0)
(0.275752 0.757002 -9.48485e-18)
(0.186585 0.748581 0)
(0.108921 0.749461 1.87117e-17)
(0.0171672 0.764697 0)
(-0.0942451 0.797895 -1.84707e-17)
(-0.231917 0.836989 0)
(-0.386543 0.892584 0)
(-0.579338 0.973044 1.81941e-17)
(-0.849613 0.992808 0)
(-1.11986 0.857057 1.79982e-17)
(-1.30789 0.621882 -1.78248e-17)
(-1.35881 0.373955 0)
(-1.3275 0.284822 -1.7461e-17)
(-1.40572 0.282251 -1.73617e-17)
(-1.44568 0.286562 0)
(-1.4924 0.336851 0)
(-1.68032 0.397496 0)
(-1.90772 0.5153 0)
(-1.99593 0.575886 0)
(-1.93796 0.64673 1.65691e-17)
(-1.82778 0.798942 0)
(-1.7791 0.901844 -1.63071e-17)
(-1.89325 0.92652 0)
(-1.96874 0.809558 0)
(-2.1101 0.715281 1.58396e-17)
(-2.31319 0.733441 0)
(-2.55086 0.807889 -1.54977e-17)
(-2.80801 0.899366 0)
(-2.99549 0.96679 0)
(-3.16558 0.987285 0)
(-3.34907 1.01164 1.4959e-17)
(-3.48997 0.963139 0)
(-3.54168 0.871417 0)
(-3.41432 0.73606 1.45646e-17)
(-2.97843 0.52522 0)
(-2.1228 0.312942 1.43173e-17)
(-0.909751 0.243671 0)
(0.319225 0.427235 0)
(1.26218 0.568246 0)
(2.09423 1.06183 -1.38557e-17)
(1.98885 1.97559 0)
(0.412007 1.7597 0)
(-0.990853 0.604767 -1.36987e-17)
(-1.61493 0.183965 -1.34868e-17)
(-1.75119 0.28134 0)
(-1.2028 0.260541 -1.3208e-17)
(-0.360487 0.463115 0)
(0.423115 0.880091 -2.59185e-17)
(0.951762 0.796243 0)
(1.21741 0.168337 -2.56419e-17)
(1.30366 -0.217556 0)
(0.988694 0.145217 2.58685e-17)
(-0.0683801 0.887335 0)
(-1.71167 1.30741 0)
(-3.4455 1.40121 0)
(-5.1024 1.39534 -2.45838e-17)
(-6.61298 1.24667 0)
(-7.89324 1.116 2.41002e-17)
(-9.0599 1.06413 0)
(-10.1111 1.0278 -2.36923e-17)
(-10.9719 0.938306 -2.3505e-17)
(-11.5746 0.782988 -2.3318e-17)
(-11.9323 0.634703 0)
(-12.1589 0.513081 0)
(-12.2718 0.446913 0)
(-12.2048 0.388298 0)
(-11.9067 0.293896 0)
(-11.589 0.2333 0)
(-11.2258 0.192578 0)
(-10.284 0.0105061 0)
(-9.95065 0.238777 2.18513e-17)
(-9.38287 -0.0863383 2.17733e-17)
(-7.47162 -0.376591 0)
(-6.77207 0.161129 0)
(-6.07171 -0.0601714 0)
(-4.72931 -0.140237 2.10982e-17)
(-3.59273 -0.0710164 0)
(-2.83146 0.0421346 0)
(-1.83444 -0.06828 0)
(-0.695543 -0.0389143 0)
(0.275988 0.0195614 -2.03552e-17)
(1.14687 0.0449777 0)
(2.12691 0.0432056 0)
(2.93711 0.0773001 1.99136e-17)
(3.60231 0.121591 -1.97854e-17)
(4.1665 0.180267 0)
(4.72404 0.229804 -1.94882e-17)
(5.20823 0.219822 0)
(5.54695 0.204656 1.92745e-17)
(5.78797 0.219475 0)
(5.86997 0.230624 0)
(5.89025 0.23115 0)
(5.84155 0.230991 0)
(5.77067 0.251685 0)
(5.67114 0.250283 -3.70317e-17)
(5.44495 0.215049 -3.67474e-17)
(5.25049 0.189913 0)
(4.94265 0.15923 0)
(4.77234 0.138096 0)
(4.50679 0.138962 3.57565e-17)
(4.21514 0.0904372 0)
(3.80877 0.0703255 0)
(3.47197 0.11725 0)
(3.15992 0.152342 3.48476e-17)
(2.72393 0.126291 -3.46004e-17)
(2.42491 0.0853778 0)
(2.01145 0.138574 0)
(1.24308 0.188612 -3.37302e-17)
(0.253173 0.254324 -3.32905e-17)
(-0.371709 0.102879 0)
(-1.24725 0.149462 0)
(0.197428 -0.181087 3.20605e-17)
(0.176638 0.359292 -3.23247e-17)
(-0.753536 0.124011 0)
(-1.9105 0.267857 0)
(-2.84808 0.258419 -3.1316e-17)
(-3.84309 0.272727 0)
(-4.83575 0.32766 0)
(-5.58774 0.304482 -3.01501e-17)
(-7.19689 0.488882 0)
(-6.5802 0.326678 -2.90058e-17)
(-5.9866 0.529108 0)
(-6.83816 0.675907 0)
(-7.68954 0.648179 0)
(-8.26761 0.668691 2.80631e-17)
(-8.31245 0.684331 0)
(-8.2939 0.707217 0)
(-8.44546 0.559255 0)
(-8.31745 0.572419 0)
(-7.23071 0.489584 0)
(-6.29036 0.672891 0)
(-5.38294 1.1334 2.63888e-17)
(-6.10485 1.49359 2.56763e-17)
(-6.21505 1.22858 0)
(-5.24063 1.00472 0)
(-4.7787 1.02313 0)
(-3.04618 0.89088 -2.43903e-17)
(-1.18104 0.772566 0)
(0.186007 0.573735 4.88588e-17)
(2.55218 0.424862 -4.8805e-17)
(4.75173 0.730322 -4.91597e-17)
(4.2908 0.606434 4.94971e-17)
(7.99257 0.00291601 -4.87424e-17)
(9.35613 0.701317 4.98909e-17)
(8.16505 0.681414 0)
(0.0975781 2.59954 0)
(0.207154 2.67021 0)
(0.363356 2.60772 -2.38043e-17)
(0.545546 2.51042 0)
(0.77143 2.44126 2.35253e-17)
(0.979021 2.39211 2.33627e-17)
(1.20845 2.35048 1.1596e-17)
(1.44578 2.30496 1.15379e-17)
(1.72189 2.27848 0)
(1.98845 2.30087 1.13539e-17)
(2.24108 2.34006 0)
(2.47005 2.3766 0)
(2.66895 2.39287 -2.2182e-17)
(2.82103 2.38975 -1.10178e-17)
(2.92238 2.37842 2.18217e-17)
(2.97778 2.41568 2.16348e-17)
(2.9992 2.50516 1.07419e-17)
(3.00241 2.6116 0)
(2.97608 2.70969 0)
(2.88731 2.7734 0)
(2.75936 2.82537 1.04275e-17)
(2.58446 2.88731 0)
(2.37468 2.93501 -3.09112e-17)
(2.11467 2.95325 0)
(1.79911 2.95005 0)
(1.45451 2.9478 -1.00995e-17)
(1.0825 2.92508 0)
(0.691824 2.88253 9.92779e-18)
(0.297122 2.81839 1.96659e-17)
(-0.0545828 2.74268 -9.77249e-18)
(-0.389497 2.64475 0)
(-0.673074 2.52571 0)
(-0.889179 2.38533 0)
(-1.03866 2.24324 1.90082e-17)
(-1.12665 2.10557 1.88812e-17)
(-1.16487 1.98683 9.38675e-18)
(-1.15479 1.89745 0)
(-1.09316 1.84662 -1.85114e-17)
(-1.06206 1.8072 0)
(-0.992189 1.79786 1.8244e-17)
(-0.877336 1.8213 0)
(-0.782005 1.84933 0)
(-0.685534 1.90607 -1.78762e-17)
(-0.526342 1.95799 0)
(-0.346909 1.88593 -5.29212e-17)
(-0.18839 1.84293 1.7541e-17)
(-0.0477207 1.85015 0)
(0.0753785 1.93745 1.72081e-17)
(0.0902225 2.09001 1.71283e-17)
(-0.0223033 2.08606 0)
(-0.0109415 2.28567 0)
(-0.0682126 2.49546 0)
(-0.384318 2.37142 0)
(-0.658998 1.92509 0)
(-0.684411 1.64787 -1.63538e-17)
(-0.904863 1.67208 -3.25389e-17)
(-1.22381 1.78942 1.6191e-17)
(-1.69904 2.05294 0)
(-1.74036 2.21095 -3.17214e-17)
(-1.78725 2.48738 1.56992e-17)
(-1.71123 2.71413 0)
(-1.8313 2.7505 1.52848e-17)
(-2.09232 2.72897 0)
(-2.37163 2.6523 0)
(-2.54483 2.57857 2.98138e-17)
(-2.68804 2.51668 -1.48235e-17)
(-2.73491 2.38353 2.94167e-17)
(-2.65131 2.18872 -2.91771e-17)
(-2.40027 1.80683 -1.44563e-17)
(-1.91017 1.24652 0)
(-1.11512 0.532845 -1.42105e-17)
(-0.0539799 -0.033506 0)
(1.11655 0.114704 0)
(2.03117 0.638738 0)
(2.90367 1.45875 -1.37631e-17)
(3.7967 2.84757 0)
(4.08607 4.17027 -2.7243e-17)
(3.80063 4.56796 4.08411e-17)
(2.51657 3.68013 1.35147e-17)
(1.1223 2.26157 0)
(1.1311 0.862667 1.31997e-17)
(1.62143 0.0808194 0)
(2.06383 0.14511 2.561e-17)
(2.15977 0.71144 0)
(0.862963 1.7916 2.53405e-17)
(-1.56592 2.87441 -5.05913e-17)
(-3.85668 3.57478 -2.50361e-17)
(-5.71864 3.89198 0)
(-7.4103 3.96196 0)
(-8.82257 3.7798 0)
(-9.99314 3.42803 2.403e-17)
(-11.101 3.10808 0)
(-12.109 2.86911 -2.36943e-17)
(-13.0114 2.57699 0)
(-13.653 2.22455 7.05212e-17)
(-14.0346 1.78922 2.33711e-17)
(-14.1742 1.42461 2.32039e-17)
(-14.1948 1.16313 0)
(-14.1175 0.956056 0)
(-13.8515 0.728566 0)
(-13.4012 0.468178 0)
(-12.8089 0.221078 0)
(-12.3845 0.123457 4.47417e-17)
(-12.0727 0.00746624 4.43155e-17)
(-10.6626 -0.39131 0)
(-10.2062 0.160273 -2.17286e-17)
(-9.28871 -0.853621 -2.19996e-17)
(-7.14823 -1.3105 0)
(-6.62014 0.0517774 -4.2579e-17)
(-5.82585 -0.575608 0)
(-4.15755 -0.832926 2.10967e-17)
(-2.73684 -0.532619 0)
(-2.10697 -0.241315 0)
(-0.904858 -0.604828 -4.12605e-17)
(0.388599 -0.517329 0)
(1.44076 -0.400665 2.03634e-17)
(2.29843 -0.39559 0)
(3.57752 -0.392639 0)
(4.69084 -0.13924 1.96023e-17)
(5.5882 0.0489843 1.95815e-17)
(6.16525 0.0513561 0)
(6.79228 -0.0206798 -1.94199e-17)
(7.44832 -0.0104356 0)
(8.17841 0.178005 1.86979e-17)
(8.72301 0.244513 3.70466e-17)
(8.91151 0.266615 0)
(9.0209 0.344638 0)
(9.08937 0.362066 0)
(9.18852 0.319242 0)
(9.1836 0.289351 3.59285e-17)
(9.00081 0.3378 1.06303e-16)
(8.81566 0.20482 0)
(8.44792 0.281801 0)
(8.23711 0.255456 0)
(7.74693 0.291431 -3.39404e-17)
(7.27724 0.210732 0)
(6.72611 0.325995 0)
(6.46916 0.322135 6.63355e-17)
(5.63963 0.088475 3.3104e-17)
(4.77206 -0.0316614 3.28837e-17)
(4.5083 0.113448 0)
(4.13451 0.314002 0)
(3.03294 0.331947 3.20168e-17)
(1.20067 0.385225 -3.12582e-17)
(0.315781 -0.126046 0)
(-1.10605 -0.466403 0)
(1.25956 -1.73924 -3.02755e-17)
(2.14429 0.127621 8.97326e-17)
(2.19559 0.0565908 0)
(0.762079 0.723578 0)
(-0.731993 0.536476 2.9423e-17)
(-2.19088 0.689986 0)
(-3.78033 0.7614 5.71965e-17)
(-5.03568 0.755821 -2.79157e-17)
(-7.03064 0.584518 0)
(-5.48004 -0.375051 2.61804e-17)
(-4.3708 0.507941 5.25274e-17)
(-4.87009 1.06472 0)
(-5.71297 1.18678 0)
(-6.33467 1.00786 -2.55193e-17)
(-6.05829 0.680703 0)
(-5.02011 1.06661 4.98827e-17)
(-5.52166 1.31731 0)
(-6.36648 1.09725 0)
(-6.30553 0.931029 0)
(-6.45477 1.28965 0)
(-6.43777 1.67019 -2.31943e-17)
(-7.25161 1.82765 -2.2167e-17)
(-6.51065 1.39721 0)
(-4.73994 1.03832 0)
(-4.55224 0.705553 0)
(-2.90587 -0.018578 2.13848e-17)
(-1.07142 0.0231196 0)
(0.444443 -0.0939804 -4.27075e-17)
(2.37076 -0.618259 4.51369e-17)
(5.55786 0.00937154 4.29943e-17)
(4.15491 0.143357 4.3418e-17)
(10.9009 -1.00479 4.23409e-17)
(12.0268 1.24456 4.51286e-17)
(10.1061 1.02538 0)
(0.124222 4.31941 0)
(0.198984 4.3914 0)
(0.352549 4.26524 2.39256e-17)
(0.538659 4.08494 2.3684e-17)
(0.803616 4.00203 -2.35605e-17)
(1.05243 3.97461 -2.33684e-17)
(1.29242 3.89648 -4.78354e-20)
(1.53945 3.77126 0)
(1.83213 3.68454 0)
(2.07843 3.68672 0)
(2.23227 3.72131 0)
(2.29033 3.7696 0)
(2.34009 3.91708 6.55238e-17)
(2.37789 4.08247 0)
(2.39151 4.25198 -2.164e-17)
(2.38271 4.40503 -2.16379e-17)
(2.3237 4.49702 0)
(2.25094 4.58827 0)
(2.12618 4.68674 0)
(1.9319 4.77371 0)
(1.69361 4.89058 -2.10158e-17)
(1.35423 4.98613 0)
(0.966744 5.1041 2.06308e-17)
(0.512091 5.20619 0)
(-0.0265981 5.27377 0)
(-0.590217 5.29192 0)
(-1.13287 5.25442 3.98297e-17)
(-1.63119 5.17056 0)
(-2.07767 5.02468 -1.97897e-17)
(-2.45281 4.81394 3.92962e-17)
(-2.72952 4.53342 0)
(-2.90938 4.23769 0)
(-3.01658 3.93251 0)
(-3.07158 3.63361 -1.92563e-17)
(-3.06787 3.35041 -1.91159e-17)
(-2.99965 3.11932 0)
(-2.89046 2.95227 0)
(-2.78943 2.827 3.73553e-17)
(-2.65808 2.74815 3.70842e-17)
(-2.49373 2.70891 -3.67995e-17)
(-2.36625 2.68238 0)
(-2.24278 2.66845 0)
(-2.06467 2.67491 0)
(-1.82258 2.6345 0)
(-1.57443 2.47204 3.5465e-17)
(-1.38713 2.25107 3.51108e-17)
(-1.19426 2.19656 -3.47257e-17)
(-0.948506 2.3905 0)
(-0.594128 2.64471 0)
(-0.350272 2.63234 0)
(-0.0496007 2.7649 0)
(0.193578 3.08146 3.32563e-17)
(0.568787 3.45606 0)
(0.791268 3.41029 0)
(1.2206 3.37697 3.26391e-17)
(1.0583 3.86777 3.22657e-17)
(0.927872 4.43531 0)
(0.432047 4.42354 -6.39269e-17)
(0.438175 3.81734 3.18173e-17)
(0.043717 3.52497 -3.15017e-17)
(-0.148542 3.6923 0)
(-0.358497 4.0451 0)
(-0.334546 4.31606 0)
(-0.315478 4.46445 0)
(-0.24171 4.45937 -2.96724e-17)
(-0.198418 4.34489 -5.91599e-17)
(-0.137565 4.03394 -2.94409e-17)
(-0.0281507 3.59797 2.91919e-17)
(0.154231 2.98767 0)
(0.40552 2.25765 -5.74026e-17)
(0.818376 1.3905 -5.69536e-17)
(1.42 0.677404 -5.65448e-17)
(1.90165 0.907622 5.63967e-17)
(2.48887 1.68818 0)
(3.53937 2.17704 8.2466e-17)
(4.44864 3.34603 0)
(4.79235 5.02285 -2.71698e-17)
(5.06995 5.74984 -2.69977e-17)
(4.23032 5.92928 0)
(2.95864 5.13506 0)
(2.88655 2.56597 -5.30354e-17)
(2.18277 1.6388 0)
(0.355821 3.21084 -5.15755e-17)
(-1.818 5.01401 0)
(-3.82728 6.01354 5.06294e-17)
(-5.65785 6.38331 1.00337e-16)
(-7.28692 6.47008 0)
(-8.59499 6.47137 0)
(-9.7193 6.20731 0)
(-10.6051 5.75582 4.8967e-17)
(-11.341 5.31134 0)
(-12.0354 4.88964 4.82662e-17)
(-12.7234 4.49079 0)
(-13.2933 3.98848 0)
(-13.7339 3.39661 -9.57336e-17)
(-13.9944 2.74968 0)
(-14.066 2.19173 -4.75446e-17)
(-14.0537 1.75191 0)
(-13.9088 1.3818 -4.67533e-17)
(-13.4623 0.974033 0)
(-12.7242 0.564338 0)
(-11.8701 0.397876 0)
(-11.4981 0.398243 -1.36662e-16)
(-11.6798 0.055458 -4.54257e-17)
(-9.77679 -0.94618 0)
(-9.66013 0.124901 0)
(-8.57983 -1.33239 0)
(-5.58046 -1.85651 0)
(-5.67477 0.299045 4.38109e-17)
(-5.55742 -1.04203 -8.73909e-17)
(-3.54209 -1.87711 -4.313e-17)
(-1.70141 -0.784692 8.5165e-17)
(-1.35704 -0.194452 8.44499e-17)
(-0.0592052 -1.06066 4.2019e-17)
(1.36997 -0.847511 0)
(2.5351 -0.408594 8.27012e-17)
(3.08151 -0.510033 0)
(4.18411 -0.821997 -8.29659e-17)
(5.39614 -0.449928 -4.01657e-17)
(6.64891 -0.0180139 0)
(7.28259 0.295467 7.87986e-17)
(7.83218 0.366544 4.01038e-17)
(8.39081 0.206588 0)
(9.04389 0.0826101 3.90246e-17)
(9.85504 0.356866 -1.13098e-16)
(10.3923 0.620863 0)
(10.5696 0.572222 0)
(10.6028 0.519261 0)
(10.8308 0.558036 0)
(10.9778 0.620419 -7.33311e-17)
(10.7857 0.744817 -7.26087e-17)
(10.6381 0.66461 0)
(10.7005 0.638969 0)
(10.6043 0.47784 0)
(9.6947 0.639363 0)
(9.4857 0.600548 0)
(8.76312 0.357092 0)
(8.27663 0.304037 -6.44442e-17)
(8.01294 0.733734 3.53443e-20)
(6.91394 0.439495 0)
(5.79795 -0.077099 0)
(4.95382 0.369789 -6.30473e-17)
(3.83176 1.19752 0)
(1.40436 1.58399 6.10828e-17)
(-0.149107 0.604301 6.12305e-17)
(-1.89129 -0.619167 0)
(0.258635 -3.10877 0)
(2.42819 -0.472549 -5.93257e-17)
(2.91498 -0.248124 -1.14892e-16)
(2.7783 1.23069 0)
(1.23079 1.14199 0)
(-0.288916 1.44976 0)
(-2.2839 1.61756 -5.54682e-17)
(-4.10805 1.57742 5.44735e-17)
(-6.88971 0.905268 0)
(-5.24931 -0.834431 1.07221e-16)
(-3.25001 0.582032 5.0427e-17)
(-3.74058 1.99722 -9.93885e-17)
(-4.52179 1.82039 0)
(-4.77357 1.65568 0)
(-5.21752 1.21381 -9.93364e-17)
(-3.47482 1.53266 -4.84229e-17)
(-3.13952 2.22287 0)
(-4.24907 2.55546 0)
(-5.08979 2.27028 0)
(-6.06511 3.09571 0)
(-6.51967 3.81084 -8.81767e-17)
(-7.76063 3.57576 0)
(-6.39206 2.44276 0)
(-4.15375 1.95646 0)
(-3.20662 2.24312 0)
(-2.30388 1.67824 0)
(-0.782795 1.42235 0)
(0.915403 0.820501 -8.94216e-17)
(1.74391 -0.298095 0)
(4.60451 1.16539 0)
(1.09957 0.404139 -1.90045e-16)
(9.3891 -2.3831 9.71846e-17)
(13.6233 2.01491 -8.98055e-17)
(11.3649 1.59887 8.28945e-17)
(0.142515 6.01232 0)
(0.184896 6.20754 -4.79304e-17)
(0.337518 5.9478 0)
(0.573423 5.59798 -2.37573e-17)
(0.84501 5.39294 0)
(1.07042 5.37079 0)
(1.30529 5.34035 2.29965e-17)
(1.47761 5.15224 0)
(1.58603 5.08029 0)
(1.64752 5.337 0)
(1.66014 5.77088 0)
(1.61663 5.96609 0)
(1.60323 5.9402 -8.92855e-17)
(1.62808 6.02301 -4.44627e-17)
(1.6328 6.09193 4.42491e-17)
(1.60414 6.19706 0)
(1.49771 6.37142 0)
(1.24516 6.5054 0)
(0.94166 6.72355 0)
(0.533933 6.94432 0)
(0.0390068 7.17726 -4.14843e-17)
(-0.505368 7.44804 -4.12667e-17)
(-1.09643 7.63514 4.09645e-17)
(-1.70826 7.75325 -4.07382e-17)
(-2.31486 7.7763 0)
(-2.86119 7.71684 0)
(-3.32781 7.5284 -4.03363e-17)
(-3.69695 7.20937 0)
(-3.93883 6.80474 0)
(-4.08445 6.36557 -3.98409e-17)
(-4.1543 5.93645 -3.956e-17)
(-4.1533 5.48199 -3.92989e-17)
(-4.09704 5.04217 0)
(-4.00942 4.63409 0)
(-3.88085 4.29989 3.85638e-17)
(-3.7551 3.99003 0)
(-3.62795 3.74949 0)
(-3.47245 3.57376 -3.77787e-17)
(-3.2855 3.50395 3.73247e-17)
(-3.11901 3.47572 -3.70471e-17)
(-2.99661 3.45863 0)
(-2.89861 3.39453 0)
(-2.77838 3.3378 -7.25666e-17)
(-2.65476 3.27751 0)
(-2.49681 3.20427 -7.1397e-17)
(-2.31737 3.17564 -1.06367e-16)
(-2.12269 3.16695 1.05509e-16)
(-1.89597 3.15213 -6.95775e-17)
(-1.61181 3.22862 0)
(-1.4383 3.4356 0)
(-1.26258 3.80365 -6.78283e-17)
(-1.00063 3.92562 -3.36758e-17)
(-0.584296 3.82052 0)
(-0.239173 3.50178 0)
(0.0546559 3.75904 -3.25178e-17)
(0.2082 4.60685 -6.46e-17)
(0.751098 5.10919 0)
(1.09046 5.20857 6.38237e-17)
(1.58281 5.22338 -6.3135e-17)
(1.64093 5.62638 6.22904e-17)
(1.63495 5.95056 0)
(1.70832 5.90322 0)
(1.94351 5.71576 0)
(2.17303 5.64252 0)
(2.23594 5.59108 0)
(2.30518 5.40003 5.94317e-17)
(2.43251 5.20192 0)
(2.62653 4.95541 0)
(2.79874 4.43496 0)
(2.93264 3.68037 1.14613e-16)
(3.06622 2.74269 5.70233e-17)
(3.27914 1.93373 5.66442e-17)
(3.60763 1.62875 -1.12282e-16)
(4.24593 1.76556 5.58024e-17)
(4.95248 2.21348 -5.51691e-17)
(4.65815 4.10714 0)
(4.21328 6.55924 5.38728e-17)
(4.36945 7.89486 0)
(3.48621 8.41667 0)
(2.6943 6.62825 0)
(1.7291 4.47389 1.0462e-16)
(-0.700911 5.17648 -5.16209e-17)
(-3.00648 6.70803 -5.11943e-17)
(-4.91544 7.79426 -1.01328e-16)
(-6.55403 8.49552 -1.50727e-16)
(-7.83134 8.77337 -4.97455e-17)
(-8.89825 8.59306 0)
(-9.84269 8.198 -9.92178e-17)
(-10.6059 7.7109 0)
(-11.1751 7.16099 -1.47824e-16)
(-11.6697 6.64198 0)
(-12.1371 6.1985 -1.45652e-16)
(-12.5585 5.71838 0)
(-12.8801 5.12042 0)
(-13.1256 4.35916 -4.80483e-17)
(-13.308 3.59534 0)
(-13.4676 2.90212 4.74075e-17)
(-13.5672 2.30535 9.44099e-17)
(-13.539 1.62065 4.68701e-17)
(-13.2055 0.802437 9.3248e-17)
(-12.4465 0.156426 -9.23464e-17)
(-11.5246 0.219741 -9.14147e-17)
(-10.984 0.61412 1.81861e-16)
(-10.9183 0.172853 0)
(-8.30495 -1.45946 0)
(-9.34065 0.0216325 8.92127e-17)
(-8.3289 -2.48976 -9.07462e-17)
(-4.82509 -3.37797 0)
(-4.04318 0.892297 0)
(-5.0263 -1.01188 8.77541e-17)
(-2.7515 -3.1942 0)
(-0.766709 -1.30233 1.30826e-19)
(-0.564406 -0.265434 1.29447e-19)
(0.747161 -1.78285 8.53703e-17)
(2.16735 -1.59434 0)
(3.73902 -0.629078 -8.19204e-17)
(4.25912 -0.52089 0)
(5.17738 -1.20766 8.2867e-17)
(5.92157 -0.908031 0)
(7.22485 -0.206559 0)
(8.15588 0.210375 -7.9218e-17)
(8.95581 0.0349606 -7.74371e-17)
(9.4282 -0.124095 0)
(9.88058 -0.0675707 -7.90114e-17)
(10.3318 0.0229905 1.55193e-16)
(10.9428 0.399335 0)
(11.402 0.768568 0)
(11.4483 0.578775 0)
(11.5277 0.40412 0)
(11.9676 0.6402 7.27297e-17)
(12.0349 0.897266 -1.45188e-16)
(11.5411 0.41956 0)
(11.2684 0.397109 0)
(12.0298 0.955001 0)
(11.1939 0.971512 0)
(10.5765 0.760403 0)
(10.1529 1.10955 0)
(9.32723 0.699711 0)
(9.04016 0.700349 6.36437e-17)
(8.79232 0.784865 0)
(6.96936 0.967582 0)
(4.15838 1.43299 6.44492e-17)
(2.22367 1.88348 0)
(0.341164 2.33296 0)
(-0.558403 0.859715 -6.52782e-17)
(-2.49899 -1.21263 0)
(-0.825766 -5.30253 0)
(1.78953 -1.47044 1.24378e-16)
(2.28483 -0.887551 1.18751e-16)
(3.69633 1.39921 1.14263e-16)
(2.32699 1.55664 0)
(1.21226 2.12325 1.10882e-16)
(-0.349443 2.72002 0)
(-2.48911 3.14758 -1.08752e-16)
(-6.22118 1.67438 0)
(-5.55349 -1.90705 -1.21184e-16)
(-2.91225 0.236799 -3.13536e-20)