/*--------------------------------*- C++ -*----------------------------------*\
| =========                 |                                                 |
| \\      /  F ield         | OpenFOAM: The Open Source CFD Toolbox           |
|  \\    /   O peration     | Version:  dev                                   |
|   \\  /    A nd           | Web:      http://www.openfoam.org               |
|    \\/     M anipulation  |                                                 |
\*---------------------------------------------------------------------------*/
FoamFile
{
    version     2.0;
    format      ascii;
    class       volVectorField;
    object      UMean;
    location    "9.152";
}
// * * * * * * * * * * * * * * * * * * * * * * * * * * * * * * * * * * * * * //

dimensions      [0 1 -1 0 0 0 0];

internalField   nonuniform List<vector> 
12225
(
(7.00361 0.43027 0)
(4.43878 0.192548 0)
(2.55676 0.0311617 0)
(2.51083 -0.0166565 0)
(1.38451 0.0193698 0)
(2.26728 -0.0342787 0)
(0.989646 0.0489848 0)
(2.1825 -0.059168 0)
(0.797669 0.0716467 0)
(2.29166 -0.097832 0)
(0.688967 0.0993476 0)
(2.74348 -0.138621 0)
(0.94834 0.10259 0)
(3.39706 -0.17214 0)
(3.53138 -0.168505 0)
(4.69646 0.0499349 0)
(14.8451 -2.43399 0)
(7.11992 5.13362 0)
(9.54624 0.981586 0)
(9.54334 0.860854 0)
(6.68681 0.4663 0)
(7.59031 0.214531 0)
(4.09065 0.140336 0)
(6.84296 0.0107956 0)
(2.66538 0.132669 0)
(6.6889 -0.0903259 0)
(1.82312 0.141858 0)
(7.03851 -0.16507 0)
(1.26136 0.123918 0)
(8.1207 -0.41438 0)
(1.38562 0.252315 0)
(9.95444 -1.44216 0)
(3.43476 0.271489 0)
(12.3893 -4.06809 0)
(10.4283 -1.928 0)
(7.77649 0.485076 0)
(9.11848 0.763532 0)
(12.1668 0.951367 0)
(8.32966 0.624017 0)
(11.832 0.443358 0)
(6.22627 0.310364 0)
(11.4128 0.206409 0)
(4.5833 0.221583 0)
(11.3146 -0.0195753 0)
(3.87513 0.193045 0)
(11.3758 -0.277862 0)
(4.35165 0.187314 0)
(11.2518 -0.722947 0)
(5.72982 0.175791 0)
(11.0891 -1.4913 0)
(7.21616 0.0521149 0)
(12.1165 -3.86634 0)
(6.93338 0.350371 0)
(9.35301 -2.39084 0)
(7.21914 0.524991 0)
(13.9929 0.960936 0)
(7.92998 0.609538 0)
(14.2952 0.553755 0)
(7.47459 0.421001 0)
(14.1163 0.270935 0)
(7.17608 0.396799 0)
(13.7384 -0.145218 0)
(7.25718 0.459707 0)
(13.2697 -0.698779 0)
(7.66001 0.576853 0)
(12.8748 -1.42269 0)
(8.26804 0.699313 0)
(12.6513 -2.31311 0)
(9.02565 0.0412491 0)
(11.8874 -3.6367 0)
(8.68782 -1.43294 0)
(8.36405 0.681271 0)
(6.42407 0.570081 0)
(14.011 0.565853 0)
(8.4735 0.674589 0)
(13.9581 0.284434 0)
(9.1693 0.636809 0)
(13.6436 -0.0026715 0)
(9.51701 0.657958 0)
(13.2141 -0.388771 0)
(9.59189 0.73447 0)
(12.8133 -0.871342 0)
(9.44544 0.876948 0)
(12.5831 -1.52138 0)
(9.1498 1.08984 0)
(12.5714 -2.49 0)
(8.82776 1.13169 0)
(11.6176 -5.0276 0)
(8.54305 1.26556 0)
(8.7223 0.129157 0)
(7.95634 0.616885 0)
(11.8033 0.152383 0)
(9.50504 0.654807 0)
(11.7395 0.0501802 0)
(10.0881 0.693966 0)
(11.6006 -0.165708 0)
(10.3204 0.725869 0)
(11.4764 -0.457552 0)
(10.3003 0.783009 0)
(11.3898 -0.853569 0)
(10.0325 0.831959 0)
(11.3557 -1.40003 0)
(9.49186 0.801074 0)
(11.4188 -2.13838 0)
(8.79985 0.725453 0)
(10.999 -3.9205 0)
(7.73304 1.33497 0)
(9.48954 -0.217049 0)
(9.34393 0.812756 0)
(10.439 -0.265996 0)
(10.1407 0.930602 0)
(10.5539 -0.304602 0)
(10.3987 1.02005 0)
(10.582 -0.502931 0)
(10.5202 1.07554 0)
(10.6255 -0.781157 0)
(10.5635 1.15348 0)
(10.6719 -1.15761 0)
(10.5155 1.23516 0)
(10.7 -1.63545 0)
(10.3669 1.26104 0)
(10.6882 -2.32703 0)
(10.0528 1.27091 0)
(10.3761 -3.95425 0)
(8.29884 2.01908 0)
(9.69734 -0.951749 0)
(9.84897 0.701188 0)
(10.1561 -0.326013 0)
(10.4065 0.855121 0)
(10.3899 -0.349941 0)
(10.5803 0.906897 0)
(10.4707 -0.494007 0)
(10.7017 0.892994 0)
(10.5521 -0.686271 0)
(10.8054 0.87271 0)
(10.6439 -0.935172 0)
(10.8812 0.823803 0)
(10.7354 -1.23261 0)
(10.9083 0.671263 0)
(10.7538 -1.67251 0)
(10.7235 0.519511 0)
(10.4924 -2.47406 0)
(8.89394 0.980731 0)
(9.96392 -0.484106 0)
(10.0856 0.802321 0)
(10.0199 -0.583441 0)
(10.5355 1.02153 0)
(10.3108 -0.604528 0)
(10.6751 1.07506 0)
(10.4402 -0.724976 0)
(10.7775 1.04825 0)
(10.571 -0.890027 0)
(10.8573 1.00369 0)
(10.7116 -1.11773 0)
(10.8989 0.921135 0)
(10.832 -1.39491 0)
(10.8743 0.734787 0)
(10.8224 -1.76093 0)
(10.6026 0.505661 0)
(10.5208 -2.06902 0)
(9.35028 0.586197 0)
(10.0236 -0.391755 0)
(10.139 0.64869 0)
(10.0424 -0.511952 0)
(10.5103 0.878078 0)
(10.3335 -0.456517 0)
(10.6214 0.869243 0)
(10.4821 -0.493652 0)
(10.6979 0.778268 0)
(10.6291 -0.572139 0)
(10.7342 0.657897 0)
(10.7637 -0.695342 0)
(10.718 0.495541 0)
(10.8403 -0.845012 0)
(10.6184 0.264045 0)
(10.7656 -1.03227 0)
(10.2825 0.0701625 0)
(10.4796 -1.05306 0)
(9.62342 0.123963 0)
(10.207 -0.0330402 0)
(10.141 0.700076 0)
(10.0707 -0.691917 0)
(10.4525 0.902583 0)
(10.2986 -0.618944 0)
(10.5374 0.847687 0)
(10.4303 -0.645544 0)
(10.6032 0.735317 0)
(10.5607 -0.707401 0)
(10.6273 0.586811 0)
(10.6605 -0.79127 0)
(10.6093 0.38318 0)
(10.6814 -0.869352 0)
(10.527 0.117112 0)
(10.5711 -0.922246 0)
(10.2916 -0.113755 0)
(10.3611 -0.765261 0)
(10.02 -0.154141 0)
(10.2457 -0.125446 0)
(10.0968 0.468056 0)
(10.1509 -0.495081 0)
(10.3536 0.595791 0)
(10.2935 -0.374598 0)
(10.4203 0.527549 0)
(10.4094 -0.354759 0)
(10.4848 0.418882 0)
(10.524 -0.374154 0)
(10.5132 0.275725 0)
(10.5994 -0.414641 0)
(10.5158 0.0933118 0)
(10.5972 -0.46167 0)
(10.4768 -0.103329 0)
(10.4997 -0.500181 0)
(10.3573 -0.232164 0)
(10.3647 -0.40571 0)
(10.2661 -0.219921 0)
(10.374 -0.11035 0)
(10.05 0.411066 0)
(10.1755 -0.487241 0)
(10.2548 0.437255 0)
(10.2379 -0.367483 0)
(10.3088 0.367397 0)
(10.3307 -0.345549 0)
(10.3793 0.25088 0)
(10.4246 -0.355272 0)
(10.4227 0.0995001 0)
(10.4823 -0.374889 0)
(10.4463 -0.0796846 0)
(10.4819 -0.403457 0)
(10.4331 -0.246678 0)
(10.4262 -0.431327 0)
(10.3773 -0.339236 0)
(10.3687 -0.392732 0)
(10.3572 -0.32062 0)
(10.4224 -0.276627 0)
(10.0154 0.199682 0)
(10.1908 -0.285746 0)
(10.1932 0.16736 0)
(10.2052 -0.179246 0)
(10.2294 0.131689 0)
(10.2792 -0.171317 0)
(10.3063 0.047259 0)
(10.3627 -0.197747 0)
(10.3661 -0.0586851 0)
(10.4143 -0.235727 0)
(10.4056 -0.176006 0)
(10.4268 -0.286452 0)
(10.4125 -0.275014 0)
(10.4113 -0.331696 0)
(10.3996 -0.324171 0)
(10.4067 -0.337251 0)
(10.411 -0.316095 0)
(10.4698 -0.304916 0)
(9.99663 0.0971749 0)
(10.1445 -0.185817 0)
(10.1464 0.0217116 0)
(10.1501 -0.133611 0)
(10.1622 -0.00858075 0)
(10.209 -0.146116 0)
(10.2411 -0.0769196 0)
(10.292 -0.186704 0)
(10.3111 -0.159368 0)
(10.3487 -0.237954 0)
(10.3576 -0.244784 0)
(10.3792 -0.298319 0)
(10.3806 -0.316299 0)
(10.3939 -0.350103 0)
(10.396 -0.361056 0)
(10.4186 -0.38024 0)
(10.4239 -0.381112 0)
(10.4789 -0.387311 0)
(9.99365 0.0155413 0)
(10.106 -0.085746 0)
(10.1089 -0.0442683 0)
(10.1138 -0.0932041 0)
(10.1188 -0.0748437 0)
(10.1675 -0.118904 0)
(10.198 -0.120578 0)
(10.2518 -0.163816 0)
(10.274 -0.180556 0)
(10.3154 -0.219156 0)
(10.3278 -0.243934 0)
(10.3597 -0.277832 0)
(10.3659 -0.301356 0)
(10.3939 -0.329032 0)
(10.3995 -0.347027 0)
(10.4328 -0.370846 0)
(10.4355 -0.383844 0)
(10.4883 -0.39707 0)
(9.99177 0.00481328 0)
(10.0636 -0.0251025 0)
(10.0567 -0.0348582 0)
(10.0679 -0.066419 0)
(10.0778 -0.0756667 0)
(10.128 -0.0997247 0)
(10.1573 -0.115905 0)
(10.211 -0.144675 0)
(10.2337 -0.168953 0)
(10.2782 -0.19956 0)
(10.292 -0.226559 0)
(10.33 -0.257044 0)
(10.3384 -0.283335 0)
(10.3731 -0.31208 0)
(10.3788 -0.33684 0)
(10.4152 -0.365582 0)
(10.4146 -0.388108 0)
(10.4634 -0.407531 0)
(9.99158 0.0141813 0)
(10.0467 0.0161635 0)
(10.0399 -0.0105679 0)
(10.0576 -0.0376736 0)
(10.0749 -0.0565255 0)
(10.1255 -0.0778486 0)
(10.1554 -0.0988606 0)
(10.2072 -0.123822 0)
(10.2312 -0.148994 0)
(10.2754 -0.176635 0)
(10.2912 -0.203441 0)
(10.3293 -0.232176 0)
(10.3395 -0.259389 0)
(10.3737 -0.288341 0)
(10.3801 -0.315674 0)
(10.4141 -0.345749 0)
(10.4132 -0.371614 0)
(10.4567 -0.393434 0)
(9.99171 0.0329493 0)
(10.0502 0.0496384 0)
(10.0566 0.0099367 0)
(10.0799 -0.0180698 0)
(10.1007 -0.0402267 0)
(10.1507 -0.0614687 0)
(10.1819 -0.0836006 0)
(10.2316 -0.106404 0)
(10.2563 -0.130546 0)
(10.2985 -0.155515 0)
(10.3151 -0.181084 0)
(10.3508 -0.20734 0)
(10.3615 -0.233579 0)
(10.3926 -0.260436 0)
(10.3991 -0.287058 0)
(10.4288 -0.315318 0)
(10.4281 -0.341054 0)
(10.4653 -0.362832 0)
(9.98992 0.0407167 0)
(10.0547 0.052638 0)
(10.0828 -0.00634119 0)
(10.1167 -0.0406671 0)
(10.142 -0.0641082 0)
(10.1904 -0.0822606 0)
(10.2224 -0.10209 0)
(10.2691 -0.121006 0)
(10.2936 -0.142746 0)
(10.3321 -0.163995 0)
(10.3484 -0.187409 0)
(10.3802 -0.210099 0)
(10.3905 -0.234406 0)
(10.4174 -0.257927 0)
(10.4229 -0.282793 0)
(10.4473 -0.307829 0)
(10.4462 -0.332461 0)
(10.4768 -0.352853 0)
(9.9905 0.0315898 0)
(10.0685 0.0219841 0)
(10.1261 -0.0557599 0)
(10.177 -0.0967679 0)
(10.2126 -0.119789 0)
(10.261 -0.132749 0)
(10.2938 -0.147781 0)
(10.3361 -0.161664 0)
(10.3602 -0.179839 0)
(10.3941 -0.196927 0)
(10.4104 -0.21737 0)
(10.4377 -0.236254 0)
(10.4479 -0.257997 0)
(10.4702 -0.278063 0)
(10.4754 -0.300741 0)
(10.4946 -0.322364 0)
(10.494 -0.345215 0)
(10.5187 -0.363492 0)
(9.99118 0.00987646 0)
(10.092 -0.0297372 0)
(10.187 -0.120855 0)
(10.2595 -0.162784 0)
(10.3093 -0.181133 0)
(10.359 -0.187162 0)
(10.3929 -0.196035 0)
(10.4305 -0.204366 0)
(10.4542 -0.218105 0)
(10.4837 -0.230743 0)
(10.5002 -0.247601 0)
(10.5233 -0.262628 0)
(10.5338 -0.281332 0)
(10.5517 -0.298015 0)
(10.5573 -0.318067 0)
(10.5719 -0.336401 0)
(10.5723 -0.356976 0)
(10.592 -0.373108 0)
(9.99282 -0.023385 0)
(10.1275 -0.103644 0)
(10.2671 -0.204954 0)
(10.3665 -0.241611 0)
(10.432 -0.250818 0)
(10.4836 -0.248393 0)
(10.5183 -0.250898 0)
(10.5518 -0.253694 0)
(10.5754 -0.262971 0)
(10.6012 -0.271328 0)
(10.6182 -0.284656 0)
(10.6379 -0.296272 0)
(10.6487 -0.31208 0)
(10.6632 -0.325832 0)
(10.6692 -0.343361 0)
(10.6802 -0.358805 0)
(10.6814 -0.377118 0)
(10.6969 -0.391258 0)
(9.99044 -0.0715787 0)
(10.1744 -0.201176 0)
(10.3678 -0.305467 0)
(10.5001 -0.327863 0)
(10.5805 -0.322557 0)
(10.6343 -0.310182 0)
(10.669 -0.305558 0)
(10.6997 -0.302548 0)
(10.7226 -0.306682 0)
(10.746 -0.310558 0)
(10.7624 -0.319875 0)
(10.7794 -0.328019 0)
(10.7895 -0.340549 0)
(10.8006 -0.351324 0)
(10.8055 -0.365912 0)
(10.8124 -0.378468 0)
(10.8122 -0.394024 0)
(10.8222 -0.405971 0)
(9.992 -0.136367 0)
(10.2447 -0.32303 0)
(10.5027 -0.419024 0)
(10.6712 -0.41764 0)
(10.7627 -0.394172 0)
(10.8175 -0.371098 0)
(10.8494 -0.358926 0)
(10.8772 -0.350566 0)
(10.896 -0.350073 0)
(10.9149 -0.350465 0)
(10.9253 -0.356346 0)
(10.9355 -0.361478 0)
(10.9375 -0.370773 0)
(10.9394 -0.378634 0)
(10.934 -0.389827 0)
(10.9292 -0.399409 0)
(10.9164 -0.411327 0)
(10.9116 -0.420472 0)
(9.98972 -0.219918 0)
(10.3368 -0.468144 0)
(10.6736 -0.539744 0)
(10.8757 -0.508214 0)
(10.9697 -0.46483 0)
(11.0134 -0.428033 0)
(11.0285 -0.404775 0)
(11.0352 -0.388345 0)
(11.029 -0.381375 0)
(11.0194 -0.376924 0)
(10.998 -0.378131 0)
(10.9736 -0.379037 0)
(10.9377 -0.383756 0)
(10.9 -0.387233 0)
(10.8523 -0.393598 0)
(10.8042 -0.39892 0)
(10.7462 -0.40524 0)
(10.6946 -0.410012 0)
(9.9833 -0.332078 0)
(10.4676 -0.642332 0)
(10.8829 -0.667114 0)
(11.0724 -0.602636 0)
(11.103 -0.537182 0)
(11.0583 -0.483104 0)
(10.9743 -0.444961 0)
(10.8732 -0.416198 0)
(10.7578 -0.397985 0)
(10.6351 -0.383246 0)
(10.5036 -0.374861 0)
(10.3667 -0.366302 0)
(10.2243 -0.362418 0)
(10.0776 -0.356966 0)
(9.9288 -0.35582 0)
(9.77725 -0.353228 0)
(9.6261 -0.35293 0)
(9.4762 -0.351093 0)
(10.0025 -0.453655 0)
(10.619 -0.818956 0)
(10.9016 -0.752061 0)
(10.7933 -0.623736 0)
(10.4938 -0.512525 0)
(10.1377 -0.429176 0)
(9.77019 -0.373547 0)
(9.41769 -0.334704 0)
(9.0769 -0.307275 0)
(8.75558 -0.284592 0)
(8.44661 -0.267637 0)
(8.15354 -0.251315 0)
(7.87281 -0.240026 0)
(7.60325 -0.227325 0)
(7.34847 -0.221122 0)
(7.09895 -0.211813 0)
(6.87055 -0.210841 0)
(6.64114 -0.204166 0)
(10.0974 -0.750791 0)
(10.0458 -1.0132 0)
(9.42493 -0.801085 0)
(8.51445 -0.572178 0)
(7.65503 -0.378725 0)
(6.9289 -0.244882 0)
(6.32736 -0.167519 0)
(5.83166 -0.12625 0)
(5.40925 -0.104702 0)
(5.04868 -0.0923218 0)
(4.72861 -0.0849621 0)
(4.44789 -0.0793507 0)
(4.1915 -0.0758079 0)
(3.96262 -0.0718921 0)
(3.75093 -0.0721369 0)
(3.55576 -0.0690845 0)
(3.38356 -0.0802682 0)
(3.21866 -0.0828637 0)
(8.51676 -0.436072 0)
(6.11025 -0.380897 0)
(4.29833 -0.138056 0)
(3.1239 -0.0213895 0)
(2.48113 0.0191325 0)
(2.12052 0.0224716 0)
(1.89631 0.0137133 0)
(1.73501 0.0046137 0)
(1.59899 -0.00156995 0)
(1.47826 -0.00479141 0)
(1.36618 -0.00640457 0)
(1.26403 -0.00671804 0)
(1.16838 -0.00670633 0)
(1.08166 -0.00638842 0)
(0.999635 -0.00665711 0)
(0.919407 -0.00703233 0)
(0.851908 -0.0186091 0)
(0.731392 -0.00613677 0)
(-0.0520824 0.138095 0)
(-0.157269 0.0716591 0)
(-0.207383 0.0166005 0)
(-0.195637 -0.0442512 0)
(-0.118449 -0.0989952 0)
(0.0116878 -0.145055 0)
(0.185718 -0.175627 1.11356e-17)
(0.387469 -0.193618 -1.10606e-17)
(0.605734 -0.198037 0)
(0.828179 -0.192797 -1.09174e-17)
(1.04543 -0.178475 0)
(1.2485 -0.157727 0)
(1.43082 -0.131107 0)
(1.58713 -0.101762 1.06429e-17)
(1.71477 -0.0705189 0)
(1.81097 -0.0384486 0)
(1.87484 -0.00629436 -1.04457e-17)
(1.90709 0.0239823 0)
(1.90941 0.0504619 0)
(1.88384 0.0721976 0)
(1.83408 0.0891691 1.01963e-17)
(1.7627 0.100728 0)
(1.67362 0.10861 1.00743e-17)
(1.56855 0.111524 0)
(1.45213 0.109637 0)
(1.32707 0.107991 9.89559e-18)
(1.19366 0.111291 0)
(1.05111 0.116413 -9.77924e-18)
(0.902619 0.121651 0)
(0.748787 0.126685 9.66436e-18)
(0.59116 0.13067 0)
(0.432012 0.133111 0)
(0.273609 0.134256 0)
(0.11643 0.134027 0)
(-0.0392079 0.131129 0)
(-0.191234 0.126452 -9.32963e-18)
(-0.338002 0.120351 0)
(-0.479099 0.11386 1.84405e-17)
(-0.613089 0.107387 0)
(-0.73956 0.100185 -1.82216e-17)
(-0.857049 0.0931849 0)
(-0.965727 0.0864563 0)
(-1.06603 0.0787468 1.78884e-17)
(-1.15749 0.0704261 0)
(-1.24075 0.0627431 1.76651e-17)
(-1.31586 0.055519 -1.75531e-17)
(-1.38233 0.0484316 0)
(-1.44086 0.042163 -1.73282e-17)
(-1.49253 0.036684 -1.72151e-17)
(-1.5364 0.0329622 0)
(-1.57264 0.0313924 0)
(-1.60316 0.0314269 0)
(-1.63009 0.0315988 0)
(-1.65441 0.0316362 0)
(-1.67755 0.0325254 1.65281e-17)
(-1.70137 0.0340746 0)
(-1.72723 0.036303 -1.62989e-17)
(-1.75389 0.0383716 0)
(-1.78012 0.0389956 0)
(-1.80591 0.0395813 1.59524e-17)
(-1.83191 0.0413155 0)
(-1.85983 0.0425043 -1.57211e-17)
(-1.88971 0.0441449 0)
(-1.92122 0.0455861 0)
(-1.9539 0.0463349 0)
(-1.9871 0.0474509 1.52555e-17)
(-2.02081 0.0494019 0)
(-2.0551 0.0516682 0)
(-2.0901 0.0540603 1.49058e-17)
(-2.12609 0.0553979 0)
(-2.16028 0.0556549 1.46711e-17)
(-2.19161 0.0563553 0)
(-2.22018 0.0569393 0)
(-2.24481 0.0569353 0)
(-2.26421 0.0563451 -1.42051e-17)
(-2.27774 0.055106 0)
(-2.28595 0.0542773 0)
(-2.29065 0.0541241 -1.38612e-17)
(-2.29231 0.0531185 -1.37478e-17)
(-2.28923 0.0514503 0)
(-2.27965 0.0491764 -1.35226e-17)
(-2.26348 0.0462479 0)
(-2.24036 0.0430812 -2.66022e-17)
(-2.21027 0.0396146 0)
(-2.17374 0.0359111 -2.61667e-17)
(-2.13061 0.0328474 0)
(-2.08191 0.0304365 2.57379e-17)
(-2.02851 0.0284598 0)
(-1.97048 0.0270026 0)
(-1.90847 0.0259981 0)
(-1.844 0.0253777 -2.49008e-17)
(-1.77684 0.0250873 0)
(-1.7086 0.0250126 2.4499e-17)
(-1.63931 0.0255645 0)
(-1.56969 0.0265735 -2.41097e-17)
(-1.50167 0.0290501 -2.39211e-17)
(-1.43443 0.0301653 -2.37368e-17)
(-1.36699 0.0312015 0)
(-1.30135 0.0312884 0)
(-1.23636 0.032484 0)
(-1.17016 0.0332368 0)
(-1.1049 0.032871 0)
(-1.0347 0.0317491 0)
(-0.965595 0.0331107 0)
(-0.894453 0.0327599 0)
(-0.82711 0.0351033 2.2213e-17)
(-0.759576 0.0356574 2.20608e-17)
(-0.697058 0.04002 0)
(-0.636244 0.0413218 0)
(-0.580443 0.0409913 0)
(-0.512824 0.0383834 2.14803e-17)
(-0.450475 0.0425349 0)
(-0.38142 0.04075 0)
(-0.316449 0.043688 0)
(-0.245571 0.0406571 0)
(-0.17267 0.0431224 -2.08059e-17)
(-0.0975982 0.0446587 0)
(-0.0170111 0.0436881 0)
(0.068124 0.0450805 2.04288e-17)
(0.156818 0.0451139 -2.03072e-17)
(0.248472 0.0444287 0)
(0.34463 0.0483451 -2.00746e-17)
(0.435918 0.0513632 0)
(0.528245 0.0546039 1.98481e-17)
(0.610314 0.0593508 0)
(0.681345 0.0623951 0)
(0.756365 0.0626692 0)
(0.825691 0.0633762 0)
(0.905256 0.0605242 0)
(0.978808 0.0610359 -3.8396e-17)
(1.05442 0.0625627 -3.8177e-17)
(1.11461 0.0672957 0)
(1.16527 0.0663822 0)
(1.21012 0.0677216 0)
(1.24674 0.0636657 3.72525e-17)
(1.29454 0.0588441 0)
(1.34376 0.0572028 0)
(1.38865 0.0560693 0)
(1.43715 0.0538638 3.62323e-17)
(1.47631 0.0560499 -3.59643e-17)
(1.52077 0.0527682 0)
(1.55949 0.0528006 0)
(1.60081 0.0532669 -3.51495e-17)
(1.62721 0.0583045 -3.48765e-17)
(1.65707 0.055008 0)
(1.68602 0.0587032 0)
(1.72538 0.0557589 3.40432e-17)
(1.76213 0.0660223 -3.37638e-17)
(1.77038 0.0714239 0)
(1.78392 0.0707971 0)
(1.80914 0.0711397 -3.2927e-17)
(1.84233 0.0759014 0)
(1.85562 0.0834573 0)
(1.86691 0.0891951 -3.20827e-17)
(1.86608 0.0933156 0)
(1.88043 0.0981147 -3.15225e-17)
(1.88259 0.105154 0)
(1.88815 0.109257 0)
(1.87503 0.12077 0)
(1.86162 0.126663 3.04333e-17)
(1.84629 0.133157 0)
(1.81426 0.142951 0)
(1.7422 0.15457 0)
(1.66554 0.154632 0)
(1.60013 0.15699 0)
(1.51026 0.165894 0)
(1.38225 0.172672 2.88923e-17)
(1.26301 0.173989 2.87382e-17)
(1.07921 0.181862 0)
(0.87306 0.184565 0)
(0.630039 0.1836 0)
(0.413984 0.169828 -2.8321e-17)
(0.192223 0.162772 0)
(0.0399615 0.146582 5.63474e-17)
(-0.159799 0.143916 -5.62375e-17)
(-0.262531 0.123684 -5.60586e-17)
(-0.42373 0.126626 5.59546e-17)
(-0.458277 0.0965462 -5.57524e-17)
(-0.616348 0.129237 5.57328e-17)
(-0.564848 -0.0039116 0)
(0.0100974 0.2493 0)
(0.0143313 0.192617 0)
(0.0492566 0.00819557 -2.27964e-17)
(0.120414 -0.198044 0)
(0.235173 -0.384085 2.23653e-17)
(0.38735 -0.535527 2.22187e-17)
(0.568435 -0.644483 1.1044e-17)
(0.768285 -0.710516 1.09817e-17)
(0.975619 -0.737222 0)
(1.17984 -0.731039 1.08546e-17)
(1.37233 -0.69527 0)
(1.54576 -0.637028 0)
(1.69615 -0.562445 -2.13208e-17)
(1.81879 -0.478037 -1.05952e-17)
(1.9136 -0.386115 2.10563e-17)
(1.97879 -0.291559 2.09228e-17)
(2.0157 -0.199229 1.03958e-17)
(2.02444 -0.111185 0)
(2.00742 -0.0281751 0)
(1.96465 0.0465585 0)
(1.89998 0.112039 1.01368e-17)
(1.81347 0.171149 0)
(1.70981 0.224019 -3.00377e-17)
(1.58781 0.266804 0)
(1.4498 0.301737 0)
(1.29629 0.332293 -9.83195e-18)
(1.13078 0.356248 0)
(0.955994 0.373524 9.71557e-18)
(0.775759 0.384576 1.93127e-17)
(0.59097 0.391845 -9.59757e-18)
(0.404405 0.393954 0)
(0.217325 0.390181 0)
(0.0294137 0.38291 0)
(-0.15884 0.375938 1.87311e-17)
(-0.345653 0.367323 1.86166e-17)
(-0.529719 0.355038 9.25127e-18)
(-0.708317 0.34027 0)
(-0.881977 0.323211 -1.82762e-17)
(-1.04673 0.302737 0)
(-1.20488 0.280927 1.80507e-17)
(-1.3548 0.25854 0)
(-1.49811 0.235833 0)
(-1.63327 0.215501 -1.77165e-17)
(-1.76121 0.196489 0)
(-1.88438 0.17862 -5.24862e-17)
(-2.00187 0.159896 1.73856e-17)
(-2.11279 0.141011 0)
(-2.21674 0.124103 1.71654e-17)
(-2.31463 0.106447 1.70552e-17)
(-2.4052 0.0868522 0)
(-2.48654 0.0678547 0)
(-2.56077 0.0532512 0)
(-2.62975 0.0436505 0)
(-2.69541 0.0386392 0)
(-2.75718 0.037217 -1.63736e-17)
(-2.81705 0.0368357 -3.2515e-17)
(-2.87534 0.0370674 1.61413e-17)
(-2.92932 0.0346678 0)
(-2.98088 0.0308169 -3.18128e-17)
(-3.03038 0.0295957 1.57874e-17)
(-3.0772 0.0304673 0)
(-3.12481 0.0310752 1.55498e-17)
(-3.17037 0.0335059 0)
(-3.21362 0.034594 0)
(-3.25509 0.0336418 3.0375e-17)
(-3.29535 0.0326986 -1.50672e-17)
(-3.33122 0.0306209 2.98916e-17)
(-3.36466 0.0278121 -2.96502e-17)
(-3.39282 0.0248303 -1.47046e-17)
(-3.41803 0.021015 0)
(-3.4372 0.0140194 -1.44628e-17)
(-3.44941 0.00424669 0)
(-3.45599 -0.00613944 0)
(-3.45419 -0.0185061 0)
(-3.4432 -0.0326936 -1.39829e-17)
(-3.42397 -0.0467891 0)
(-3.39819 -0.057128 -2.74949e-17)
(-3.36655 -0.0645466 4.08939e-17)
(-3.32946 -0.0733565 1.35162e-17)
(-3.28599 -0.0846405 0)
(-3.23447 -0.0974811 1.32877e-17)
(-3.17764 -0.110202 0)
(-3.11513 -0.122264 2.6124e-17)
(-3.04745 -0.133286 0)
(-2.97469 -0.143819 2.5681e-17)
(-2.89675 -0.153256 -5.09221e-17)
(-2.81476 -0.162237 -2.52471e-17)
(-2.73031 -0.170274 0)
(-2.64081 -0.177889 0)
(-2.54905 -0.18359 0)
(-2.45507 -0.187868 2.44068e-17)
(-2.35774 -0.191985 0)
(-2.25916 -0.194756 -2.40007e-17)
(-2.16057 -0.195207 0)
(-2.06139 -0.196853 7.08211e-17)
(-1.96221 -0.196271 2.3417e-17)
(-1.86239 -0.197337 2.3231e-17)
(-1.76464 -0.194603 0)
(-1.66925 -0.193989 0)
(-1.57328 -0.194825 0)
(-1.47485 -0.195512 0)
(-1.37744 -0.197872 0)
(-1.27441 -0.202109 4.43222e-17)
(-1.17778 -0.20011 4.39862e-17)
(-1.07786 -0.200168 0)
(-0.990197 -0.19447 -2.16755e-17)
(-0.893833 -0.195249 -2.15234e-17)
(-0.806595 -0.188537 0)
(-0.711883 -0.187363 -4.24441e-17)
(-0.633387 -0.186624 0)
(-0.536899 -0.196854 2.09378e-17)
(-0.450954 -0.191046 0)
(-0.345248 -0.199391 0)
(-0.250598 -0.195888 -4.10578e-17)
(-0.137411 -0.204621 0)
(-0.0332736 -0.204756 2.02722e-17)
(0.0920795 -0.212591 0)
(0.218457 -0.220169 0)
(0.354442 -0.224523 1.98868e-17)
(0.495072 -0.228967 1.97704e-17)
(0.640372 -0.234407 0)
(0.789622 -0.234973 -1.9533e-17)
(0.948972 -0.236177 0)
(1.10783 -0.228106 1.92963e-17)
(1.27225 -0.218519 3.83626e-17)
(1.41983 -0.21225 0)
(1.5767 -0.213639 0)
(1.72187 -0.213829 0)
(1.88153 -0.215333 0)
(2.02835 -0.210312 3.72301e-17)
(2.18256 -0.207079 1.11006e-16)
(2.3187 -0.188287 0)
(2.44245 -0.18312 0)
(2.56148 -0.172162 0)
(2.6659 -0.173845 -3.60796e-17)
(2.7677 -0.178383 0)
(2.86791 -0.17806 0)
(2.96253 -0.176696 7.06157e-17)
(3.05585 -0.177173 3.50339e-17)
(3.13154 -0.172644 3.47653e-17)
(3.21985 -0.17996 0)
(3.28415 -0.173688 0)
(3.35166 -0.175112 3.39205e-17)
(3.39909 -0.164355 -3.36144e-17)
(3.44454 -0.178462 0)
(3.47504 -0.175443 0)
(3.50964 -0.191382 -3.27214e-17)
(3.53871 -0.173442 9.71878e-17)
(3.55336 -0.168828 0)
(3.56409 -0.179682 0)
(3.57529 -0.191277 3.14596e-17)
(3.59591 -0.189136 0)
(3.59123 -0.18257 6.16252e-17)
(3.58907 -0.180854 -3.04713e-17)
(3.56162 -0.185351 0)
(3.55801 -0.194529 2.98448e-17)
(3.53392 -0.190771 5.90546e-17)
(3.52248 -0.192104 0)
(3.47532 -0.185287 0)
(3.45124 -0.194113 -2.85741e-17)
(3.41045 -0.186115 0)
(3.35281 -0.169205 5.58879e-17)
(3.25522 -0.14994 0)
(3.16297 -0.15503 0)
(3.04346 -0.146897 0)
(2.91508 -0.121901 0)
(2.72076 -0.102684 -2.66528e-17)
(2.56167 -0.0758652 -2.64635e-17)
(2.27784 -0.0268586 0)
(2.00592 -0.0019544 0)
(1.67671 0.0227786 0)
(1.3813 0.0188854 2.59584e-17)
(1.04811 0.0233398 0)
(0.840378 0.0139859 -5.16693e-17)
(0.521137 0.0324508 5.16424e-17)
(0.406944 0.000947695 5.14943e-17)
(0.125831 0.0316611 5.14854e-17)
(0.126244 -0.0158772 5.13331e-17)
(-0.171208 0.07948 5.1497e-17)
(0.014508 -0.116508 0)
(0.0290431 0.0719089 0)
(0.120918 -0.0372359 0)
(0.227751 -0.240531 2.29133e-17)
(0.339589 -0.467504 2.26649e-17)
(0.473798 -0.692213 -2.25134e-17)
(0.617752 -0.874343 -2.24009e-17)
(0.771932 -1.00327 -1.48102e-21)
(0.923256 -1.07384 0)
(1.0685 -1.08486 0)
(1.19542 -1.04591 0)
(1.30437 -0.966216 0)
(1.39052 -0.857051 0)
(1.45631 -0.726656 6.47145e-17)
(1.49719 -0.586564 0)
(1.51602 -0.441822 -2.13056e-17)
(1.51099 -0.295399 -2.11693e-17)
(1.48495 -0.153989 0)
(1.43648 -0.0204618 0)
(1.37022 0.103449 0)
(1.28593 0.215957 0)
(1.18593 0.315311 -2.05029e-17)
(1.07108 0.398342 0)
(0.946383 0.470693 2.02489e-17)
(0.809113 0.535778 0)
(0.662154 0.590629 0)
(0.506852 0.635556 0)
(0.348593 0.67153 3.95253e-17)
(0.186376 0.698764 0)
(0.0226838 0.718205 -1.95223e-17)
(-0.142015 0.72859 3.87999e-17)
(-0.305991 0.731745 0)
(-0.472237 0.733459 0)
(-0.638698 0.730414 0)
(-0.803978 0.720887 -1.89164e-17)
(-0.965652 0.705619 -1.87956e-17)
(-1.12413 0.68413 0)
(-1.27782 0.656852 0)
(-1.42594 0.625368 3.68587e-17)
(-1.56705 0.591381 3.66191e-17)
(-1.70641 0.557091 -3.63809e-17)
(-1.84071 0.524397 0)
(-1.97315 0.490932 0)
(-2.09996 0.458792 0)
(-2.22305 0.429439 0)
(-2.34184 0.401816 3.52002e-17)
(-2.45468 0.372612 3.49666e-17)
(-2.5624 0.342963 -3.47346e-17)
(-2.66456 0.314409 0)
(-2.76071 0.286519 0)
(-2.85162 0.257485 0)
(-2.93724 0.230646 0)
(-3.02293 0.212884 3.35753e-17)
(-3.10275 0.197049 0)
(-3.17762 0.183874 0)
(-3.24602 0.176074 3.28778e-17)
(-3.30978 0.170907 3.26463e-17)
(-3.36807 0.164047 0)
(-3.41876 0.154754 -6.43595e-17)
(-3.46724 0.147804 3.19484e-17)
(-3.51196 0.141585 -3.17139e-17)
(-3.55066 0.137723 0)
(-3.58653 0.134836 0)
(-3.61646 0.130452 0)
(-3.64142 0.125637 0)
(-3.66375 0.119898 -3.05521e-17)
(-3.68195 0.112076 -6.06454e-17)
(-3.69448 0.104722 -3.00972e-17)
(-3.70356 0.0976186 2.98723e-17)
(-3.70529 0.0865178 0)
(-3.70158 0.0738106 -5.88389e-17)
(-3.69003 0.058103 -5.83904e-17)
(-3.67299 0.0423236 -5.79454e-17)
(-3.65185 0.0248175 5.75035e-17)
(-3.62177 0.00266083 0)
(-3.58484 -0.0200066 8.49399e-17)
(-3.54202 -0.0395999 0)
(-3.49451 -0.0552502 -2.78773e-17)
(-3.43838 -0.0693294 -2.76645e-17)
(-3.37431 -0.0851869 0)
(-3.30398 -0.102243 0)
(-3.23012 -0.119116 -5.4041e-17)
(-3.15397 -0.13404 0)
(-3.07377 -0.14831 -5.31942e-17)
(-2.99086 -0.162088 0)
(-2.90329 -0.176636 5.23556e-17)
(-2.81205 -0.188219 1.03883e-16)
(-2.71702 -0.198176 0)
(-2.62102 -0.20754 0)
(-2.52197 -0.21515 0)
(-2.42413 -0.221396 5.02913e-17)
(-2.32459 -0.227371 0)
(-2.22169 -0.232171 4.94694e-17)
(-2.11602 -0.235553 0)
(-2.00982 -0.234915 0)
(-1.90127 -0.235188 -9.65065e-17)
(-1.79541 -0.232944 0)
(-1.68759 -0.232558 -4.74626e-17)
(-1.5839 -0.226648 0)
(-1.47593 -0.22741 -4.66952e-17)
(-1.36875 -0.226504 0)
(-1.25932 -0.225623 0)
(-1.15142 -0.229296 0)
(-1.0406 -0.231555 -1.35695e-16)
(-0.940196 -0.222955 -4.48705e-17)
(-0.830849 -0.219578 0)
(-0.737397 -0.209018 0)
(-0.63551 -0.210231 0)
(-0.549654 -0.198037 0)
(-0.445398 -0.19413 4.32355e-17)
(-0.359343 -0.189004 -8.58356e-17)
(-0.25223 -0.20569 -4.26325e-17)
(-0.165115 -0.197869 8.46566e-17)
(-0.0456093 -0.213906 8.40935e-17)
(0.056153 -0.209921 4.17607e-17)
(0.186051 -0.224966 0)
(0.298625 -0.225706 8.23953e-17)
(0.437247 -0.241826 0)
(0.569081 -0.250807 -8.1284e-17)
(0.717168 -0.257441 -4.03839e-17)
(0.863173 -0.261912 0)
(1.01776 -0.270139 7.97615e-17)
(1.1667 -0.273019 3.96277e-17)
(1.32857 -0.28098 0)
(1.48695 -0.278778 3.90895e-17)
(1.66034 -0.268412 -1.16507e-16)
(1.81976 -0.256495 0)
(1.98407 -0.25592 0)
(2.136 -0.255687 0)
(2.29628 -0.259009 0)
(2.45274 -0.254442 -7.51531e-17)
(2.60863 -0.251371 -7.46544e-17)
(2.75984 -0.220615 0)
(2.89749 -0.214268 0)
(3.02854 -0.200715 0)
(3.14987 -0.19883 0)
(3.25643 -0.203742 0)
(3.37557 -0.207036 0)
(3.48829 -0.206429 -7.09511e-17)
(3.60072 -0.206095 -1.65184e-20)
(3.69589 -0.19881 0)
(3.80539 -0.209587 0)
(3.89583 -0.196892 -6.86066e-17)
(3.98784 -0.197672 0)
(4.06818 -0.177032 6.74251e-17)
(4.13725 -0.187864 6.68074e-17)
(4.17981 -0.171083 0)
(4.2344 -0.189374 0)
(4.27351 -0.165272 -6.48998e-17)
(4.32397 -0.156031 -1.28509e-16)
(4.35181 -0.160185 0)
(4.38482 -0.172195 0)
(4.42653 -0.16305 0)
(4.43949 -0.148574 -6.16898e-17)
(4.46784 -0.135554 6.10019e-17)
(4.46691 -0.13542 0)
(4.48707 -0.141953 1.19369e-16)
(4.4709 -0.129708 5.90301e-17)
(4.48819 -0.127859 -1.16767e-16)
(4.46519 -0.109285 0)
(4.46389 -0.116408 0)
(4.43308 -0.094835 -1.12748e-16)
(4.39186 -0.0672623 -5.57176e-17)
(4.30664 -0.0378758 0)
(4.24279 -0.0359713 0)
(4.11004 -0.0181636 0)
(4.00018 0.0245303 0)
(3.78841 0.0524101 -1.05592e-16)
(3.61981 0.0959291 0)
(3.32212 0.166397 0)
(3.06431 0.191217 0)
(2.71533 0.219721 0)
(2.40076 0.203075 0)
(2.01158 0.187049 0)
(1.77425 0.153401 -1.00637e-16)
(1.36991 0.150165 0)
(1.24109 0.0829346 0)
(0.856401 0.105143 -1.99431e-16)
(0.851497 0.0230156 9.92541e-17)
(0.465693 0.112443 -9.94068e-17)
(0.661239 -0.127303 9.87872e-17)
(0.0206536 -0.0932531 0)
(0.124942 -0.268009 -4.69563e-17)
(0.247514 -0.488568 0)
(0.375223 -0.754094 -2.27971e-17)
(0.501698 -0.997914 0)
(0.617658 -1.18708 0)
(0.722234 -1.30507 2.24464e-17)
(0.802834 -1.3487 0)
(0.865726 -1.31912 0)
(0.904963 -1.23359 0)
(0.927076 -1.11106 0)
(0.929886 -0.961984 0)
(0.918265 -0.794999 -8.66187e-17)
(0.889524 -0.617947 -4.30265e-17)
(0.847177 -0.435219 4.27471e-17)
(0.790926 -0.254137 0)
(0.72282 -0.0814038 0)
(0.641522 0.080052 0)
(0.550491 0.228811 0)
(0.449237 0.362178 0)
(0.340533 0.47974 -4.11512e-17)
(0.222573 0.581604 -4.08985e-17)
(0.0966949 0.672321 4.06492e-17)
(-0.0349777 0.748341 -4.04015e-17)
(-0.170759 0.811147 0)
(-0.309298 0.859318 0)
(-0.449362 0.895449 -3.9658e-17)
(-0.589782 0.920242 0)
(-0.731134 0.934448 0)
(-0.873039 0.943128 -3.89245e-17)
(-1.01553 0.948667 -3.86811e-17)
(-1.15592 0.946408 -3.84366e-17)
(-1.29327 0.93734 0)
(-1.42738 0.922087 0)
(-1.55693 0.900639 3.76929e-17)
(-1.68151 0.871009 0)
(-1.80213 0.835478 0)
(-1.91915 0.796019 -3.69482e-17)
(-2.03313 0.758038 3.66967e-17)
(-2.14552 0.719966 -3.6448e-17)
(-2.25142 0.681285 0)
(-2.35567 0.641986 0)
(-2.45588 0.605674 -7.14189e-17)
(-2.55328 0.571475 0)
(-2.6453 0.533486 -7.04529e-17)
(-2.73388 0.495485 -1.04962e-16)
(-2.81881 0.459722 1.04241e-16)
(-2.8985 0.423515 -6.9014e-17)
(-2.97503 0.386344 0)
(-3.04904 0.350732 0)
(-3.12271 0.322625 -6.76017e-17)
(-3.19371 0.298202 -3.35704e-17)
(-3.25838 0.272656 0)
(-3.31891 0.251588 0)
(-3.3748 0.23628 -3.28784e-17)
(-3.42532 0.219513 -6.5297e-17)
(-3.46954 0.200607 0)
(-3.50788 0.182666 6.4379e-17)
(-3.5422 0.168201 -6.39197e-17)
(-3.57135 0.154601 6.34639e-17)
(-3.59434 0.140454 0)
(-3.61152 0.127216 0)
(-3.62411 0.11582 0)
(-3.63159 0.104167 0)
(-3.63547 0.0935896 0)
(-3.63458 0.0783367 6.07739e-17)
(-3.62937 0.0618525 0)
(-3.61695 0.043568 0)
(-3.59876 0.0229816 0)
(-3.57626 0.00143542 1.18046e-16)
(-3.54827 -0.0222398 5.85907e-17)
(-3.51538 -0.0459467 5.81572e-17)
(-3.47758 -0.0727611 -1.15456e-16)
(-3.43328 -0.10402 5.73032e-17)
(-3.38571 -0.134052 -5.68839e-17)
(-3.33186 -0.161653 0)
(-3.27323 -0.187884 5.60372e-17)
(-3.20461 -0.214897 0)
(-3.1319 -0.24044 0)
(-3.05346 -0.262712 0)
(-2.97356 -0.28375 1.08719e-16)
(-2.89138 -0.303149 -5.39461e-17)
(-2.80584 -0.322424 -5.35328e-17)
(-2.71889 -0.341567 -1.06271e-16)
(-2.62794 -0.361794 -1.58217e-16)
(-2.53586 -0.377981 -5.23437e-17)
(-2.43899 -0.391263 0)
(-2.34232 -0.402985 -1.03071e-16)
(-2.24413 -0.411203 0)
(-2.14592 -0.417568 -1.52206e-16)
(-2.04702 -0.427635 0)
(-1.94918 -0.434177 -1.49832e-16)
(-1.84528 -0.44061 0)
(-1.74086 -0.441422 0)
(-1.63172 -0.443133 -4.87472e-17)
(-1.52402 -0.440127 0)
(-1.41295 -0.439953 4.79731e-17)
(-1.30665 -0.435481 9.51581e-17)
(-1.1924 -0.437294 4.72046e-17)
(-1.08216 -0.438986 9.36514e-17)
(-0.963248 -0.439527 -9.28945e-17)