/*--------------------------------*- C++ -*----------------------------------*\
| =========                 |                                                 |
| \\      /  F ield         | OpenFOAM: The Open Source CFD Toolbox           |
|  \\    /   O peration     | Version:  dev                                   |
|   \\  /    A nd           | Web:      http://www.openfoam.org               |
|    \\/     M anipulation  |                                                 |
\*---------------------------------------------------------------------------*/
FoamFile
{
    version     2.0;
    format      ascii;
    class       volScalarField;
    object      k;
    location    "9.156";
}
// * * * * * * * * * * * * * * * * * * * * * * * * * * * * * * * * * * * * * //

dimensions      [0 2 -2 0 0 0 0];

internalField   nonuniform List<scalar> 
12225
(
7.73616
7.95672
4.5195
4.66516
4.2177
5.03313
6.61634
6.69722
10.1718
8.72864
13.9654
10.4771
16.2305
11.653
17.2124
13.3598
16.1001
22.4453
1.71425
6.20676
4.88195
6.46486
4.13239
6.32508
4.2935
6.46136
5.07198
6.73322
6.09603
6.88043
7.06653
6.91712
8.87111
8.9123
22.805
22.749
0.178498
2.1608
2.24355
3.57518
2.76093
3.8981
3.05155
3.70689
3.37871
3.19052
3.55495
2.63244
3.47266
2.35798
4.28334
4.14718
18.4383
24.6879
0.0157367
0.462672
0.609293
0.986751
1.29517
1.36276
1.9615
1.58865
2.44498
1.51226
2.32166
1.26518
1.98325
1.10781
2.16352
2.05173
12.6827
23.4902
0.00227453
0.106012
0.168353
0.284141
0.503542
0.553489
0.829255
0.742364
1.03115
0.733611
1.09196
0.629142
1.081
0.585577
1.18071
1.14649
6.34945
14.904
0.00775626
0.0843281
0.103959
0.172407
0.233331
0.238675
0.337873
0.29586
0.429056
0.295931
0.480624
0.278999
0.537291
0.30035
0.640532
0.755716
2.33014
4.19147
0.00267498
0.0111557
0.0325045
0.0363655
0.0754649
0.0638657
0.115481
0.0877198
0.159147
0.100699
0.194181
0.115867
0.241681
0.148309
0.291287
0.296279
0.870621
0.95354
0.000991359
0.00182108
0.00882709
0.00891067
0.0233011
0.0185951
0.038887
0.0277826
0.0569598
0.0354372
0.0746851
0.0477284
0.102008
0.0681495
0.129234
0.125116
0.322206
0.319535
0.00100642
0.00136417
0.00341407
0.00346073
0.00809847
0.00701268
0.0137122
0.010855
0.020341
0.0152752
0.0287663
0.0227933
0.0418203
0.0334207
0.0558358
0.0556231
0.124115
0.130385
0.0014765
0.00173242
0.00227601
0.00255891
0.00377922
0.00390558
0.00561655
0.00549203
0.00803085
0.00767938
0.011335
0.0113172
0.0170507
0.0168724
0.0245765
0.0262204
0.0486725
0.0544081
0.00222338
0.00266061
0.00251008
0.00277409
0.00294514
0.00331966
0.0037239
0.0041484
0.00490049
0.00530847
0.0062357
0.00707018
0.00901901
0.0108145
0.0142125
0.0165239
0.0235734
0.0299065
0.00375141
0.00439147
0.0037339
0.00386234
0.00338112
0.00381185
0.0038062
0.00461166
0.00462203
0.00546164
0.00544655
0.00646848
0.00742059
0.00960736
0.0117675
0.0148331
0.0185153
0.0239555
0.00680436
0.00719722
0.00608996
0.0057577
0.00515614
0.00536669
0.00511814
0.00546328
0.0051915
0.005538
0.00561049
0.00647761
0.00772238
0.0104711
0.0130851
0.0162244
0.0198341
0.0252142
0.0130122
0.0126229
0.0103488
0.00899265
0.00747265
0.00679964
0.0061167
0.0061254
0.0059364
0.00602816
0.00633599
0.00726495
0.00918087
0.0141008
0.0183958
0.0237208
0.0297698
0.0374721
0.0205827
0.0182749
0.0151852
0.0123701
0.0102027
0.00892865
0.00818283
0.00795558
0.00784669
0.00800217
0.00883017
0.0104416
0.0127845
0.0178334
0.0261321
0.0390169
0.0526707
0.0676294
0.0308841
0.0280833
0.0238727
0.0187531
0.0152913
0.0131871
0.012136
0.0117988
0.0117294
0.0118855
0.0127053
0.0148332
0.019019
0.0292657
0.0446737
0.0641688
0.0819272
0.100387
0.040045
0.0350086
0.0284368
0.0217401
0.0175293
0.0149357
0.0136419
0.0131886
0.0131117
0.013267
0.0140462
0.016211
0.0208417
0.0330237
0.0509577
0.0732915
0.0929479
0.113245
0.0413621
0.0358719
0.0285531
0.0216067
0.017325
0.0147548
0.0134923
0.0130356
0.0129648
0.0130872
0.013749
0.0156358
0.0197713
0.0304961
0.047984
0.0704451
0.0903717
0.111072
0.0351664
0.0312748
0.0252242
0.0190843
0.0153203
0.0131466
0.012125
0.0117124
0.0116175
0.0116939
0.0120833
0.013197
0.0159081
0.0222428
0.0364096
0.0580318
0.0771552
0.0975452
0.0236426
0.0209321
0.0165872
0.0124793
0.0101201
0.00885304
0.0083196
0.00816147
0.00814413
0.00832021
0.00903417
0.0100277
0.0114146
0.0140193
0.0193253
0.0319311
0.0474133
0.0655518
0.0136143
0.012261
0.0100871
0.00794484
0.00659363
0.00574338
0.00532046
0.00520895
0.00522804
0.00559333
0.00642952
0.00724697
0.00810315
0.00998152
0.0129609
0.0196087
0.0266006
0.035869
0.00779193
0.00737814
0.00628986
0.00505943
0.00416587
0.0035408
0.00327565
0.00321978
0.00324131
0.00341922
0.00394256
0.00506654
0.00574281
0.00697717
0.00809747
0.0103419
0.0130679
0.0174551
0.00428999
0.00410262
0.00370844
0.00310834
0.00272995
0.00260375
0.00257941
0.00262407
0.00274762
0.00300532
0.00350805
0.00458719
0.00528528
0.00621467
0.00691515
0.00798319
0.00964579
0.012534
0.00206464
0.00206442
0.00204286
0.00208492
0.00224443
0.00261993
0.003066
0.00403805
0.0047859
0.005825
0.00642186
0.00759067
0.00839851
0.00960047
0.0109695
0.0127963
0.0151048
0.0179735
0.000772266
0.00102015
0.00155578
0.00279278
0.00488005
0.00817074
0.0120823
0.0183067
0.0231715
0.0271889
0.0289668
0.0307396
0.0330223
0.0368681
0.042247
0.0475127
0.0522548
0.0559383
0.000162074
0.00142671
0.00635476
0.0195336
0.0389528
0.0602802
0.0841209
0.109121
0.127611
0.138298
0.143191
0.146986
0.15494
0.167164
0.180562
0.191505
0.19815
0.202143
0.000738834
0.0175482
0.0749856
0.191684
0.302845
0.396722
0.476016
0.535783
0.570756
0.583275
0.585964
0.589202
0.601834
0.619901
0.632028
0.635213
0.631854
0.627102
0.0196926
0.290772
0.863158
1.27687
1.55271
1.7206
1.81304
1.84605
1.83825
1.81674
1.78383
1.7583
1.74159
1.7203
1.68559
1.64056
1.58705
1.5473
0.582048
3.25344
4.61819
4.86679
4.76288
4.52004
4.23349
3.96847
3.74256
3.57097
3.42962
3.29942
3.17322
3.04375
2.92522
2.79787
2.68888
2.53459
6.28976
9.06926
7.81202
6.14
5.13703
4.74096
4.66323
4.73194
4.87806
5.07309
5.25677
5.41499
5.53422
5.60833
5.64667
5.64689
5.585
5.27926
0.0635906
0.058389
0.0594122
0.0642273
0.0729854
0.0854624
0.102028
0.12331
0.14971
0.182075
0.22145
0.268304
0.324072
0.384864
0.444905
0.508533
0.58246
0.663967
0.741865
0.811273
0.884479
0.97614
1.08606
1.21872
1.35915
1.51547
1.70819
1.93772
2.19067
2.46958
2.7773
3.09623
3.40847
3.70734
3.98318
4.21402
4.39716
4.54088
4.6428
4.70947
4.73241
4.73125
4.71011
4.66406
4.59688
4.54016
4.48354
4.4179
4.35791
4.31073
4.28879
4.28241
4.28438
4.29601
4.31416
4.33041
4.33684
4.3697
4.40874
4.43383
4.45737
4.48562
4.52971
4.58125
4.62779
4.64545
4.63971
4.60506
4.55273
4.50579
4.42788
4.35647
4.34356
4.38531
4.48411
4.64152
4.74926
4.84418
4.96033
5.02959
5.01231
4.95317
4.8763
4.73558
4.49972
4.26788
4.0758
3.89661
3.68573
3.43734
3.18004
2.9856
2.9373
3.09347
3.27611
3.29491
3.19863
3.13728
3.13981
3.1652
3.09693
3.12178
3.55049
4.33264
4.8826
5.10896
4.95518
4.39097
4.27944
4.43994
4.78691
4.7796
4.13576
3.0973
2.19865
1.76232
1.4747
1.31199
1.63843
1.61229
1.05183
0.974962
1.13524
1.25512
1.25293
1.54296
1.91651
2.48171
3.6928
4.80464
5.52505
5.89421
6.40756
7.25233
8.93711
10.7759
11.8626
12.0412
11.4603
10.5902
10.0392
9.83995
9.91433
10.2407
10.7758
11.325
11.8484
12.507
12.8596
13.2272
13.5436
13.6655
14.0274
14.7527
14.1785
12.8315
12.0905
12.492
13.4073
13.2465
12.4127
11.325
10.4825
11.0384
12.0893
12.9922
13.711
10.7646
10.1203
12
10.7201
7.69942
6.63831
6.60951
7.26329
8.50027
9.0302
10.4471
14.2728
14.2025
0.25461
0.121513
0.0769391
0.0654805
0.0627809
0.0631079
0.0647454
0.0686811
0.0747593
0.0829017
0.0939288
0.107207
0.123945
0.143666
0.164911
0.190981
0.22609
0.265832
0.3074
0.350212
0.421099
0.530131
0.697832
0.896684
1.09643
1.28526
1.4711
1.64871
1.80799
1.93524
2.03056
2.08989
2.09924
2.0549
1.95832
1.83581
1.71544
1.59021
1.469
1.34188
1.21706
1.09682
1.00391
0.926476
0.859568
0.814322
0.768613
0.732576
0.707565
0.69175
0.694013
0.709263
0.720392
0.72198
0.719105
0.712052
0.710045
0.721326
0.734409
0.734049
0.734313
0.740668
0.767415
0.820541
0.861901
0.883813
0.88787
0.885301
0.867006
0.835722
0.766735
0.693446
0.632104
0.622398
0.640904
0.740911
0.837658
0.892306
0.991175
1.17536
1.3004
1.35801
1.48147
1.62973
1.6638
1.66158
1.68476
1.6815
1.61619
1.46837
1.21009
0.92768
0.804446
0.860169
1.08827
1.23043
1.29428
1.43785
1.80932
2.74308
3.28231
3.27952
3.3027
3.14841
2.44824
1.86443
1.44083
1.34524
1.37611
1.50462
1.50186
1.27056
0.857107
0.71447
0.693567
0.700782
0.704265
0.740227
0.813412
0.713027
0.695088
0.793346
1.06334
0.874956
0.824273
0.914039
1.00545
1.14576
1.28383
1.4866
1.73262
1.92869
2.00374
2.10481
2.36126
2.91683
3.86669
4.94824
5.65239
5.7928
5.68134
5.23998
4.92954
4.77558
4.64149
4.63635
4.62448
4.66108
4.75899
4.77475
4.81926
5.00918
5.71311
6.7242
6.83835
5.71525
4.83415
4.87323
5.44636
6.04037
6.00505
5.64446
5.40411
5.56993
6.12674
6.93909
7.58807
6.70967
5.95811
6.49031
6.78438
5.77683
5.44558
6.29385
7.12742
6.13063
5.31915
7.28781
9.90587
10.5741
0.667453
0.248275
0.117049
0.0787948
0.0663167
0.0611021
0.0589071
0.0584212
0.058709
0.059945
0.0627976
0.0685353
0.0772365
0.0903661
0.109578
0.131673
0.16654
0.226014
0.298983
0.403705
0.540483
0.647053
0.758312
0.857793
0.921807
0.967158
1.0087
1.02335
1.01823
0.982966
0.919825
0.836469
0.732926
0.630414
0.535386
0.458173
0.39602
0.345307
0.303477
0.269271
0.238384
0.21828
0.205378
0.19667
0.189993
0.185546
0.18177
0.179378
0.178987
0.180185
0.184342
0.189664
0.192723
0.194172
0.194582
0.194592
0.19435
0.196226
0.198107
0.197602
0.198029
0.200773
0.20813
0.226216
0.24328
0.254519
0.259475
0.261089
0.260765
0.256837
0.243029
0.213682
0.188344
0.180124
0.181482
0.197058
0.222404
0.238902
0.266069
0.328721
0.399795
0.440799
0.500936
0.593641
0.647878
0.701765
0.807072
0.871625
0.882861
0.864633
0.744827
0.546583
0.472918
0.513165
0.659961
0.747849
0.979054
1.94862
2.93308
2.96398
2.80889
2.37904
1.99681
1.44815
1.00259
0.799286
0.704775
0.69976
0.782926
0.875942
0.886061
0.799961
0.602925
0.523806
0.516371
0.52999
0.573249
0.616937
0.59537
0.532449
0.566262
0.841509
1.06703
0.79679
0.770735
0.874691
0.883088
0.961371
1.09802
1.05806
1.01582
1.02787
1.04711
1.09291
1.20892
1.45951
1.66912
2.09618
2.66632
3.21008
3.69649
3.81469
3.80635
3.62068
3.27674
3.0826
2.94337
2.82204
2.82864
2.84482
2.9083
3.12164
3.99458
4.89181
4.6691
3.54818
3.09363
3.14501
3.40724
3.73336
3.85181
3.8479
3.94085
4.15512
4.44011
4.97426
5.56157
5.02139
4.89541
5.27534
5.46242
5.05553
5.31635
6.18028
5.50159
3.81803
3.45065
4.48436
6.53164
7.01509
1.32834
0.44469
0.191053
0.114076
0.0814997
0.065978
0.060264
0.0581841
0.0573761
0.0577754
0.0600235
0.0660314
0.0757093
0.0892367
0.107621
0.139203
0.204351
0.331525
0.455314
0.528256
0.576507
0.627548
0.643744
0.633006
0.630529
0.620167
0.598004
0.55764
0.51088
0.449157
0.387389
0.328436
0.277913
0.236792
0.208638
0.189486
0.176204
0.166806
0.160579
0.156435
0.153355
0.151799
0.151172
0.151001
0.150882
0.150269
0.149918
0.150199
0.151309
0.15309
0.155117
0.156713
0.157678
0.158841
0.160024
0.160944
0.161074
0.160793
0.159822
0.157225
0.155424
0.15482
0.155792
0.160908
0.169246
0.174438
0.176099
0.174934
0.171522
0.168875
0.16599
0.159201
0.146374
0.137787
0.135335
0.136201
0.138843
0.141129
0.147318
0.165576
0.2145
0.252078
0.281984
0.324221
0.35844
0.376803
0.400929
0.457884
0.509456
0.537187
0.532687
0.451057
0.42715
0.479524
0.671508
1.08522
2.06436
2.94294
2.84798
2.243
1.64237
1.34609
1.05108
0.731074
0.606622
0.530426
0.502325
0.503842
0.558649
0.59243
0.601435
0.568279
0.545852
0.517514
0.501705
0.509355
0.592387
0.670359
0.619195
0.507486
0.539621
0.819905
0.749442
0.792218
0.799536
0.895302
0.811642
0.791908
1.03935
1.05254
0.978145
0.897153
0.89255
0.919058
0.978272
1.09884
1.22372
1.33123
1.58342
1.86876
2.18301
2.46984
2.67003
2.75025
2.74088
2.50734
2.38552
2.24004
2.16741
2.16921
2.25854
2.48685
3.23371
3.99672
3.72341
2.96972
2.67576
2.68583
2.77237
2.82891
3.03341
3.31663
3.54617
3.63139
3.94889
4.78456
4.7747
4.44003
4.38955
4.88023
4.87105
4.89865
5.22655
5.42898
3.96888
3.11863
3.10339
3.48951
4.72284
5.3259
2.20407
0.725034
0.30717
0.168188
0.105509
0.0770835
0.0646381
0.0607779
0.0600985
0.0607062
0.0634845
0.0697748
0.0812581
0.0987386
0.12839
0.210836
0.3858
0.45821
0.486421
0.49994
0.49211
0.454618
0.430579
0.411074
0.399838
0.372836
0.336674
0.294961
0.263174
0.23065
0.208213
0.188246
0.173877
0.16305
0.156858
0.152905
0.150953
0.150227
0.149514
0.149102
0.148776
0.148495
0.147941
0.147437
0.147455
0.147475
0.147662
0.148707
0.150702
0.152425
0.153608
0.154489
0.155156
0.155909
0.15741
0.158901
0.160238
0.161568
0.16139
0.158955
0.155493
0.15333
0.153089
0.153497
0.156048
0.158049
0.157641
0.153493
0.140755
0.131693
0.129678
0.131525
0.132835
0.128905
0.125846
0.122828
0.120247
0.119354
0.121653
0.133151
0.170565
0.189439
0.198236
0.220675
0.254487
0.269899
0.277955
0.302159
0.324474
0.338928
0.344589
0.360435
0.415943
0.694617
1.494
2.18627
2.65285
2.68244
2.0571
1.26598
0.952744
0.779486
0.557062
0.44484
0.401632
0.356844
0.338167
0.334148
0.340648
0.341821
0.332555
0.328351
0.382863
0.423093
0.430814
0.504591
0.621557
0.711291
0.746878
0.521852
0.491536
0.514961
0.587608
0.757832
0.91966
0.908226
0.710983
0.640162
0.804814
1.01784
1.00915
0.928529
0.912638
0.924731
0.937431
0.929905
0.996569
1.05084
1.15948
1.33413
1.4805
1.69825
1.83734
2.07544
2.17158
2.1526
2.01749
1.986
1.9028
1.89617
1.97063
2.19135
2.79663
3.43707
3.28609
2.76633
2.57163
2.61465
2.70795
2.66616
2.84239
3.2343
3.36999
3.08234
3.63048
5.01093
4.48984
4.29377
4.27692
4.89201
4.65245
4.79535
5.11314
4.49616
3.32155
3.00524
3.03462
3.10537
4.01453
4.36665
3.24022
1.04838
0.408311
0.194148
0.114441
0.0844466
0.0733205
0.0700004
0.069337
0.0686107
0.0709449
0.0809291
0.107637
0.158665
0.240383
0.36225
0.433906
0.451913
0.440844
0.378001
0.328283
0.304006
0.286797
0.269806
0.255413
0.234568
0.216121
0.200029
0.186443
0.171568
0.162885
0.155467
0.150957
0.148011
0.146324
0.145937
0.146532
0.14695
0.147072
0.146971
0.146221
0.144206
0.14096
0.138915
0.137935
0.137277
0.136956
0.138375
0.140924
0.142702
0.146062
0.148614
0.150015
0.149986
0.149548
0.149535
0.151008
0.153724
0.155617
0.15674
0.155979
0.154173
0.153125
0.152096
0.151299
0.151043
0.150115
0.146577
0.132927
0.117282
0.107541
0.104758
0.110053
0.119506
0.121532
0.118162
0.112884
0.111224
0.112213
0.11905
0.146048
0.161196
0.170548
0.187161
0.210691
0.233331
0.244601
0.25588
0.265567
0.271197
0.285745
0.333912
0.544554
1.40807
2.15797
2.41699
2.40658
1.89838
1.04658
0.707771
0.554965
0.45616
0.35774
0.32078
0.303367
0.277154
0.267093
0.26605
0.265373
0.262307
0.25563
0.255191
0.272572
0.281142
0.294909
0.398362
0.515228
0.646674
0.756206
0.527812
0.53266
0.464103
0.574922
0.779011
0.994089
0.907351
0.667549
0.623542
0.620179
0.739792
0.866566
0.940969
0.99542
1.02548
0.963687
0.836445
0.796651
0.80205
0.855501
1.02358
1.14577
1.25335
1.41893
1.54748
1.74797
1.85318
1.81587
1.76508
1.76325
1.76399
1.78646
1.97008
2.56114
3.07949
3.01934
2.63933
2.51007
2.62228
2.85777
2.74806
2.87203
3.07361
2.90155
2.47211
2.92261
4.82804
4.31166
4.17875
4.41203
5.05309
4.71914
4.53459
4.93586
4.10318
3.0386
3.09191
3.12285
3.04094
3.83544
3.92164
4.3969
1.40791
0.454736
0.194402
0.111607
0.0863991
0.0792563
0.0770647
0.0767951
0.0791966
0.0893349
0.122097
0.233225
0.30577
0.335914
0.385347
0.409434
0.39721
0.312381
0.253298
0.227291
0.21187
0.200849
0.193071
0.184676
0.173957
0.167742
0.162158
0.156217
0.150362
0.146777
0.144803
0.143929
0.143035
0.142969
0.143174
0.144057
0.144314
0.144072
0.143402
0.14232
0.140752
0.138628
0.137572
0.135692
0.132996
0.129093
0.127067
0.125697
0.126118
0.130117
0.137343
0.142886
0.145193
0.146538
0.146424
0.146102
0.144252
0.143332
0.146365
0.150304
0.15284
0.153249
0.151671
0.148436
0.145217
0.143711
0.142692
0.137403
0.122254
0.10661
0.097541
0.0947638
0.0968899
0.102906
0.106033
0.106144
0.106354
0.1078
0.11535
0.138995
0.155478
0.169046
0.182927
0.196161
0.214981
0.229238
0.237741
0.255497
0.259228
0.273848
0.356027
0.821826
1.88912
2.33027
2.27032
1.75598
0.933963
0.585847
0.444801
0.380475
0.326173
0.286224
0.27399
0.265767
0.250148
0.245377
0.244337
0.239961
0.236882
0.235104
0.237567
0.247785
0.248721
0.254062
0.272942
0.31411
0.414591
0.504358
0.46652
0.570638
0.476586
0.558948
0.852248
0.919209
0.73575
0.614559
0.639769
0.555237
0.55199
0.644878
0.922532
1.01167
1.02573
0.90629
0.703196
0.668805
0.694345
0.749049
0.84451
0.951871
1.02199
1.12074
1.25226
1.36628
1.59781
1.68185
1.65056
1.66363
1.68217
1.70843
1.85346
2.38231
2.76202
2.73447
2.49941
2.47069
2.59457
3.03497
2.96579
2.91413
2.72034
2.49833
2.34206
2.58749
3.63446
3.98861
3.84239
4.96239
5.30764
4.80117
4.42717
4.66304
3.97174
2.82856
3.04223
3.12061
3.02542
3.66199
3.72747
5.55905
1.62718
0.449184
0.162977
0.101321
0.0896564
0.0879329
0.0881451
0.0917487
0.107997
0.162299
0.24127
0.30887
0.334444
0.344732
0.357654
0.333851
0.267562
0.20902
0.182553
0.16979
0.162961
0.1604
0.159755
0.15839
0.154783
0.151214
0.146134
0.141808
0.139945
0.139526
0.139886
0.14028
0.140529
0.140609
0.139601
0.138089
0.135307
0.132823
0.131439
0.131128
0.133054
0.137345
0.140289
0.143246
0.143724
0.137013
0.129665
0.12477
0.122872
0.122839
0.124968
0.131879
0.14083
0.14586
0.148015
0.14787
0.144386
0.140235
0.136616
0.135885
0.140582
0.146485
0.148224
0.14651
0.140839
0.135487
0.131081
0.130565
0.128146
0.113583
0.0981207
0.0905074
0.088199
0.0883497
0.0906201
0.0930432
0.096065
0.101945
0.116565
0.139749
0.163053
0.187024
0.197144
0.198752
0.207342
0.215721
0.220455
0.232282
0.246268
0.275826
0.43127
1.24334
2.03346
2.23948
1.82475
0.937129
0.545875
0.394988
0.340007
0.309991
0.275181
0.249423
0.242968
0.243555
0.241535
0.241327
0.238129
0.232571
0.230469
0.23031
0.233989
0.242397
0.244099
0.248194
0.250673
0.261941
0.279541
0.330494
0.379429
0.504167
0.464881
0.448324
0.966023
0.80728
0.580925
0.599139
0.603872
0.496181
0.523052
0.585694
0.91985
0.917244
0.813043
0.626871
0.570462
0.621268
0.672426
0.747811
0.818924
0.906517
0.969343
1.00989
1.06807
1.12968
1.31984
1.51888
1.55706
1.57502
1.62168
1.66628
1.77115
2.18014
2.58168
2.59342
2.40941
2.33499
2.43063
3.03788
3.11003
2.90913
2.56007
2.38723
2.3346
2.50021
2.46031
3.83684
3.70995
5.66025
5.64592
4.82837
4.23245
4.18116
3.68507
2.70762
2.82681
2.98222
3.01847
3.4319
3.59177
6.74261
1.85987
0.448896
0.149237
0.103005
0.104985
0.111917
0.117951
0.142045
0.20376
0.2531
0.280699
0.307316
0.314422
0.307123
0.282913
0.234998
0.186874
0.162625
0.153109
0.149515
0.147756
0.14542
0.144416
0.144164
0.143995
0.14326
0.140757
0.13817
0.136944
0.136834
0.138077
0.138248
0.137316
0.134222
0.127468
0.118414
0.114089
0.112804
0.112924
0.115132
0.120049
0.128414
0.138682
0.149782
0.15729
0.164162
0.165253
0.152475
0.139338
0.129516
0.12554
0.126491
0.13288
0.142789
0.149329
0.152421
0.15242
0.147274
0.137941
0.131266
0.125765
0.125058
0.130576
0.135818
0.137298
0.133995
0.128223
0.1233
0.120397
0.113354
0.099173
0.0901154
0.0861493
0.085553
0.0864167
0.0887902
0.0926848
0.0998146
0.116065
0.138682
0.165305
0.19446
0.209861
0.210001
0.209889
0.214044
0.217681
0.226431
0.247526
0.308326
0.586058
1.48176
2.03078
2.022
1.22189
0.590761
0.378597
0.304565
0.280574
0.264821
0.243558
0.22642
0.22475
0.228901
0.241126
0.243238
0.239333
0.239346
0.238037
0.236544
0.241141
0.245834
0.255212
0.258577
0.25073
0.254479
0.258088
0.27919
0.308726
0.334803
0.38213
0.411351
0.967435
0.704657
0.520954
0.573569
0.52721
0.459759
0.53069
0.559495
0.766322
0.673224
0.546541
0.530921
0.529977
0.618688
0.703058
0.820708
0.867853
0.923797
0.983912
0.99825
1.01032
1.04153
1.10694
1.32015
1.4444
1.48097
1.53186
1.61394
1.72995
1.86097
2.36292
2.44962
2.21639
2.16088
2.20029
2.8263
3.07292
2.86987
2.46343
2.30895
2.32571
2.42398
2.26464
4.06766
3.847
5.82905
5.99852
5.33368
4.17614
3.9012
3.25079
2.6495
2.79856
3.07791
3.09216
3.12362
3.30972
7.83298
1.9566
0.409535
0.14248
0.122253
0.148745
0.164579
0.177385
0.211861
0.248666
0.268873
0.278063
0.278707
0.253962
0.229527
0.204174
0.169562
0.146495
0.137505
0.135118
0.135205
0.135533
0.134362
0.134035
0.133942
0.133544
0.13255
0.131595
0.131292
0.131689
0.132891
0.133776
0.133512
0.131192
0.125339
0.115774
0.109661
0.107993
0.107851
0.108659
0.111298
0.116059
0.121479
0.127621
0.136138
0.150548
0.167852
0.178972
0.186078
0.187556
0.171599
0.149902
0.137034
0.133047
0.135762
0.142159
0.150079
0.153024
0.152839
0.148954
0.137511
0.12581
0.117782
0.114726
0.115812
0.120457
0.125016
0.125666
0.121438
0.116849
0.109832
0.0990949
0.0901163
0.0857185
0.084672
0.085213
0.0871932
0.0900347
0.0957657
0.108434
0.133843
0.165879
0.196791
0.21651
0.22002
0.219315
0.219485
0.22175
0.232645
0.265732
0.368124
0.798209
1.57012
1.85602
1.66321
0.845988
0.439332
0.315232
0.266642
0.243547
0.227125
0.217865
0.214701
0.217507
0.218737
0.226922
0.228922
0.23401
0.242108
0.243437
0.253692
0.260635
0.252839
0.260713
0.26625
0.26394
0.267706
0.264403
0.265171
0.259313
0.264842
0.315781
0.372315
0.630424
0.493097
0.422296
0.426676
0.438244
0.446644
0.553128
0.53583
0.556796
0.510165
0.4765
0.509738
0.518766
0.629629
0.781637
0.947128
0.972786
0.959986
1.01248
1.00644
0.997895
1.01789
1.02712
1.12393
1.28303
1.38288
1.48543
1.56482
1.64258
1.63723
2.00546
2.14929
2.08597
2.11526
2.1355
2.38335
2.81509
2.70777
2.23192
2.0965
2.19141
2.36317
2.22537
4.88699
4.08358
5.68131
6.60488
5.97313
4.3228
3.72232
3.03043
2.67789
2.76985
3.0939
3.15627
2.93533
2.9607
8.81753
2.01998
0.387674
0.14434
0.150058
0.184684
0.198572
0.210681
0.232334
0.251079
0.256021
0.246266
0.220878
0.204005
0.184842
0.163229
0.143377
0.134462
0.130673
0.128584
0.125403
0.122584
0.121941
0.122119
0.122149
0.122008
0.122381
0.123471
0.125551
0.128631
0.131533
0.132619
0.132618
0.130952
0.126203
0.118029
0.112376
0.111064
0.111583
0.112766
0.11556
0.119623
0.123525
0.125616
0.127444
0.130175
0.138413
0.156902
0.18036
0.193977
0.201048
0.199473
0.178049
0.151329
0.137203
0.133611
0.133962
0.137973
0.142702
0.145406
0.141481
0.129963
0.117064
0.108693
0.106306
0.105787
0.108146
0.111866
0.113716
0.112735
0.108138
0.0996716
0.0912388
0.086036
0.0841257
0.08408
0.0847936
0.0863627
0.0902488
0.0993917
0.124223
0.165513
0.205605
0.231903
0.238547
0.237304
0.237106
0.241521
0.261722
0.302861
0.419928
0.941654
1.52466
1.52855
1.1998
0.595694
0.347707
0.275872
0.248969
0.230084
0.211901
0.208033
0.20969
0.213396
0.214149
0.223034
0.224292
0.231111
0.23694
0.242424
0.26202
0.264114
0.261382
0.259569
0.26427
0.269322
0.283227
0.278786
0.267072
0.255338
0.254513
0.270425
0.278421
0.407645
0.412072
0.382498
0.378874
0.410251
0.428838
0.53551
0.503099
0.499515
0.483644
0.463937
0.51671
0.519862
0.60311
0.788905
0.983325
1.05706
1.03724
1.05459
1.05675
1.00464
1.01305
1.01596
1.04857
1.14271
1.30399
1.45473
1.48725
1.47831
1.50512
1.99894
2.02218
2.04172
2.09604
2.00458
1.98662
2.42561
2.39224
2.0739
1.95168
2.0589
2.25372
2.21409
4.94765
4.14112
5.57842
7.13678
6.89367
4.69439
3.65428
3.03547
2.79418
2.75394
3.14211
3.18755
2.89531
2.75423
9.76635
2.19776
0.402933
0.15848
0.164724
0.197968
0.212673
0.224298
0.234332
0.235791
0.215666
0.189838
0.178252
0.171214
0.161027
0.146869
0.137673
0.133365
0.130822
0.128607
0.123779
0.117176
0.114987
0.114486
0.114673
0.116083
0.118597
0.121674
0.125302
0.129694
0.133964
0.136458
0.13751
0.137416
0.135052
0.12931
0.124171
0.124067
0.125077
0.12524
0.124528
0.124998
0.12675
0.12766
0.127295
0.127132
0.125971
0.126179
0.132334
0.153795
0.185787
0.204113
0.205617
0.191296
0.158495
0.138456
0.132132
0.128552
0.124881
0.124468
0.12782
0.127842
0.118204
0.104383
0.0971208
0.0963889
0.0986343
0.101517
0.102878
0.103686
0.103439
0.0987097
0.0912753
0.0863102
0.0839312
0.0833972
0.0835289
0.0842961
0.0867541
0.0933092
0.110364
0.164049
0.216188
0.247499
0.257155
0.259904
0.266106
0.289632
0.310363
0.332096
0.441028
0.986589
1.45099
1.31911
0.789971
0.430573
0.288885
0.24656
0.233337
0.225296
0.209399
0.201966
0.201781
0.20053
0.207909
0.217052
0.221702
0.234651
0.238896
0.247294
0.263459
0.261634
0.263914
0.270703
0.270001
0.267297
0.274917
0.275117
0.274481
0.264111
0.25641
0.251782
0.244668
0.332851
0.37903
0.362482
0.35646
0.399198
0.415362
0.464491
0.482427
0.484739
0.486897
0.466604
0.520057
0.51954
0.531164
0.718968
0.866167
1.0203
1.02555
1.04254
1.06988
1.00589
1.00877
1.0136
1.0259
1.07652
1.23318
1.36182
1.43463
1.39058
1.42138
2.06023
2.02779
2.02318
2.06383
1.76885
1.59333
1.85097
2.00775
1.93694
1.87653
1.97437
2.01064
2.18032
4.45949
4.13104
5.68028
7.5577
8.0567
5.51973
3.80305
3.30441
2.99366
2.84298
3.28354
3.17218
2.93054
2.74301
10.572
2.2926
0.421346
0.163114
0.166951
0.201737
0.215968
0.224747
0.228019
0.215184
0.186411
0.16922
0.161169
0.15714
0.151586
0.143068
0.137224
0.134646
0.133223
0.130768
0.124096
0.116257
0.113475
0.112846
0.11362
0.116959
0.122227
0.128618
0.137644
0.149511
0.159242
0.165657
0.169927
0.17165
0.170106
0.164067
0.153317
0.142973
0.135514
0.129792
0.125988
0.124961
0.125191
0.126636
0.126939
0.127239
0.125142
0.122783
0.11997
0.120526
0.127772
0.161424
0.193088
0.197985
0.18436
0.156763
0.142305
0.13294
0.124708
0.119689
0.118892
0.119078
0.116787
0.104974
0.0956167
0.0919404
0.0911965
0.0921083
0.0944745
0.0957256
0.0959159
0.0950215
0.0902345
0.0860036
0.083749
0.0824179
0.0819988
0.081914
0.0832393
0.0889442
0.105937
0.161457
0.225987
0.261588
0.271833
0.277293
0.295066
0.326521
0.326099
0.337668
0.44543
0.989837
1.39628
1.23449
0.629904
0.361298
0.268436
0.236714
0.225429
0.222425
0.21546
0.198686
0.193403
0.193961
0.205128
0.209897
0.214119
0.224321
0.228272
0.241174
0.250849
0.25169
0.260252
0.27254
0.271945
0.271016
0.259607
0.255729
0.269133
0.267175
0.262008
0.249644
0.237253
0.268879
0.322825
0.333059
0.327361
0.373853
0.381812
0.430732
0.479638
0.47642
0.489271
0.478514
0.517085
0.503126
0.482141
0.561136
0.573675
0.723596
0.826964
0.892424
0.984697
0.953122
0.966042
0.987315
1.02359
1.05388
1.17288
1.27836
1.33372
1.29557
1.32833
1.75301
1.95085
1.91652
1.91272
1.61869
1.3562
1.54638
1.68366
1.77452
1.83164
1.84106
1.81492
2.04771
3.84292
4.25631
5.43486
7.57732
7.70637
7.29312
4.47412
3.83609
3.20797
2.97536
3.28524
3.08606
3.03963
2.92191
11.3571
2.49864
0.478819
0.171487
0.167379
0.200792
0.21173
0.215054
0.210994
0.190881
0.164543
0.15507
0.153681
0.15366
0.153186
0.147564
0.144216
0.144531
0.145344
0.1424
0.130947
0.120226
0.11768
0.117843
0.122208
0.133825
0.147448
0.161463
0.176789
0.188625
0.195177
0.197158
0.196236
0.192415
0.184474
0.17497
0.163215
0.150256
0.138743
0.129515
0.123031
0.120186
0.120028
0.120637
0.121979
0.122859
0.124717
0.124083
0.11884
0.115385
0.115727
0.119302
0.147058
0.178385
0.183035
0.166438
0.15194
0.146083
0.137326
0.124461
0.119234
0.118752
0.117824
0.108845
0.0979509
0.0929107
0.0912147
0.088993
0.0868646
0.0867977
0.087896
0.0889735
0.08831
0.0851688
0.0834263
0.081389
0.0803796
0.0806051
0.0824484
0.0885751
0.106117
0.16347
0.23271
0.277117
0.293884
0.302553
0.322407
0.334747
0.325994
0.333644
0.436612
0.934467
1.32027
1.21658
0.637365
0.352185
0.266958
0.237359
0.224948
0.219617
0.217423
0.198652
0.188969
0.190598
0.202853
0.204076
0.20559
0.207582
0.208719
0.21649
0.220172
0.222338
0.240172
0.255105
0.261987
0.270468
0.257546
0.246215
0.24291
0.251076
0.259345
0.251988
0.236799
0.234778
0.253704
0.302145
0.307487
0.324791
0.326812
0.375956
0.466316
0.456009
0.484577
0.502564
0.521863
0.498388
0.455725
0.506511
0.488503
0.525458
0.620027
0.701934
0.804553
0.83525
0.871595
0.948986
1.02212
1.04153
1.11984
1.24549
1.26178
1.16624
1.18642
1.20598
1.52915
1.69566
1.74581
1.4987
1.31225
1.47048
1.5421
1.71491
1.82932
1.74079
1.75855
1.98316
2.97929
4.65649
4.85778
6.83291
6.52239
8.25012
5.9622
4.56378
3.41693
3.01307
3.25511
2.94876
3.04898
3.37718
12.0414
2.66511
0.534976
0.181791
0.16131
0.192212
0.198668
0.192672
0.17679
0.161878
0.146067
0.139601
0.139491
0.145606
0.153615
0.156327
0.157493
0.15816
0.158545
0.157184
0.150459
0.137091
0.132033
0.131176
0.133639
0.140714
0.15372
0.167608
0.180939
0.189093
0.191673
0.190351
0.187248
0.181533
0.17361
0.165181
0.156881
0.148325
0.139536
0.130431
0.122803
0.118744
0.117601
0.118387
0.120989
0.121301
0.120951
0.120821
0.11893
0.113678
0.111867
0.112329
0.114963
0.12987
0.153085
0.156527
0.148758
0.146182
0.142274
0.130798
0.123663
0.123298
0.124426
0.121745
0.107278
0.0987373
0.0948553
0.0896407
0.085
0.0829752
0.0828152
0.0837078
0.0845324
0.0835047
0.0824375
0.081149
0.0798664
0.0801074
0.0821869
0.0889922
0.108994
0.174097
0.240748
0.288264
0.313899
0.332509
0.345356
0.338162
0.308363
0.313093
0.405636
0.817281
1.18469
1.17272
0.750196
0.389412
0.290041
0.262235
0.236411
0.22207
0.217395
0.195537
0.177688
0.175271
0.185339
0.18935
0.191747
0.190519
0.195034
0.204195
0.209516
0.211822
0.22765
0.232864
0.234098
0.237454
0.240249
0.23622
0.223381
0.223911
0.239659
0.249664
0.237643
0.225714
0.234556
0.28383
0.298227
0.29109
0.292803
0.324952
0.422175
0.427853
0.48708
0.545687
0.522773
0.495638
0.441056
0.456686
0.43966
0.469277
0.510481
0.585347
0.680318
0.749712
0.805906
0.912734
0.998704
1.01145
1.05186
1.19122
1.19298
1.09654
1.12631
1.11421
1.18519
1.49804
1.55904
1.37751
1.29357
1.41859
1.44939
1.65915
1.84218
1.70393
1.67794
1.88246
2.26514
5.13015
4.60305
5.53001
5.93828
7.11924
6.3969
5.14569
3.60372
3.01795
3.17367
2.82066
2.96091
3.48785
12.765
2.95301
0.66844
0.201965
0.157156
0.178509
0.186511
0.182616
0.163245
0.137513
0.126349
0.124065
0.125887
0.131423
0.143324
0.152976
0.15682
0.15839
0.159001
0.158199
0.154321
0.145495
0.137979
0.134063
0.134035
0.137394
0.144909
0.154223
0.15915
0.158503
0.154766
0.148758
0.143764
0.14044
0.140284
0.142789
0.144197
0.144089
0.142307
0.136529
0.129329
0.124456
0.121876
0.121189
0.120824
0.120054
0.118734
0.117998
0.115776
0.108424
0.107391
0.108464
0.109635
0.108686
0.106227
0.113241
0.120798
0.126296
0.128823
0.127364
0.122463
0.123046
0.125609
0.125825
0.119521
0.108214
0.0999113
0.0916883
0.0844717
0.0811659
0.0801285
0.0805919
0.0814924
0.0813743
0.080684
0.0807522
0.0795708