/*--------------------------------*- C++ -*----------------------------------*\
| =========                 |                                                 |
| \\      /  F ield         | OpenFOAM: The Open Source CFD Toolbox           |
|  \\    /   O peration     | Version:  dev                                   |
|   \\  /    A nd           | Web:      http://www.openfoam.org               |
|    \\/     M anipulation  |                                                 |
\*---------------------------------------------------------------------------*/
FoamFile
{
    version     2.0;
    format      ascii;
    class       volScalarField;
    object      k_0;
    location    "9.156";
}
// * * * * * * * * * * * * * * * * * * * * * * * * * * * * * * * * * * * * * //

dimensions      [0 2 -2 0 0 0 0];

internalField   nonuniform List<scalar> 
12225
(
7.75525
8.1933
4.75777
4.96354
4.39377
5.31918
6.75357
7.00483
10.4383
9.15686
14.6173
11.1833
17.4438
12.7536
19.0854
14.6795
17.664
25.6647
1.67731
6.2184
4.93604
6.53364
4.20444
6.41139
4.31611
6.57838
5.0558
6.86388
6.09226
7.05084
7.15359
7.23043
9.26724
9.63009
24.5643
25.6917
0.16759
2.09725
2.16981
3.47299
2.73197
3.81181
3.04723
3.6468
3.37218
3.18185
3.53584
2.66182
3.46456
2.41718
4.33649
4.34215
19.3765
27.3647
0.0141368
0.434217
0.578597
0.937448
1.26021
1.31659
1.92599
1.56114
2.40642
1.50802
2.28812
1.2769
1.96324
1.12842
2.14825
2.04909
12.2121
24.4758
0.0019678
0.10071
0.16007
0.270857
0.482134
0.533718
0.801008
0.723306
0.998577
0.720005
1.06412
0.624173
1.05938
0.589065
1.15645
1.10361
5.69817
13.4825
0.00724674
0.0825742
0.100527
0.166814
0.223064
0.228419
0.323788
0.284917
0.412086
0.287155
0.463903
0.274614
0.520226
0.298849
0.621703
0.733452
2.07514
3.63028
0.00216316
0.00929034
0.029994
0.0333283
0.0702213
0.059667
0.108145
0.0829119
0.150049
0.0962295
0.184738
0.112422
0.230464
0.14492
0.277561
0.286994
0.785027
0.850575
0.000828367
0.00162873
0.00792889
0.00811489
0.0211814
0.0171616
0.0356508
0.0259576
0.0526181
0.033433
0.0698402
0.0456856
0.0955748
0.0655771
0.121416
0.118735
0.29025
0.292282
0.000922475
0.00133403
0.00312389
0.0032396
0.00735358
0.00652226
0.0124801
0.0101655
0.0185871
0.0144281
0.0265328
0.0217036
0.0386907
0.0318918
0.051968
0.0524183
0.112373
0.120504
0.00139507
0.00172132
0.00218361
0.00246265
0.00356783
0.00371436
0.00524855
0.00522201
0.00749682
0.00731496
0.01059
0.0107775
0.0159414
0.0160951
0.0231893
0.0249619
0.045018
0.051034
0.00205881
0.00262867
0.0024893
0.00270781
0.00286233
0.003197
0.00361042
0.00402772
0.0047644
0.00517337
0.00603791
0.00686284
0.00872362
0.0105219
0.0138156
0.0161578
0.0226843
0.0290537
0.00357381
0.00432107
0.00375607
0.00379039
0.00338009
0.00374385
0.00379073
0.00453717
0.00457574
0.00534774
0.00539908
0.00636447
0.00738575
0.00950788
0.0117119
0.0147984
0.0184432
0.0239018
0.0065901
0.00719234
0.00610097
0.00570987
0.00520924
0.00534182
0.00513123
0.00538353
0.0051653
0.00543364
0.00558846
0.00642398
0.00776805
0.0105913
0.0133059
0.0164706
0.0201344
0.0255682
0.0124514
0.0126467
0.0103089
0.00888727
0.00746411
0.00672404
0.00611348
0.00607562
0.0059382
0.00600933
0.00638089
0.00732454
0.00932964
0.0143463
0.0188233
0.024501
0.0309449
0.0390488
0.0190524
0.018244
0.0151305
0.012293
0.0101835
0.00890405
0.00821529
0.00800338
0.00793207
0.00811436
0.00899137
0.0106476
0.0130426
0.0182054
0.0268927
0.0402102
0.0542628
0.0696088
0.0285384
0.0279029
0.0235549
0.0185506
0.0151979
0.013147
0.0121426
0.0118233
0.0117683
0.0119404
0.0127903
0.0149618
0.0192357
0.0297891
0.0454415
0.0652535
0.0832585
0.101966
0.0369316
0.0345368
0.027855
0.0213409
0.0172625
0.0147601
0.013531
0.0131156
0.0130587
0.0132321
0.0140381
0.0162355
0.0209085
0.0332143
0.0512431
0.0737088
0.0934899
0.113942
0.0379475
0.0351998
0.027883
0.0211768
0.0170382
0.0145569
0.0133499
0.0129223
0.0128676
0.0130047
0.0136819
0.0155729
0.0196944
0.0303604
0.0478274
0.0703283
0.0903179
0.111126
0.0321069
0.0303487
0.0243113
0.0184719
0.0148976
0.012849
0.0118988
0.0115161
0.0114319
0.011513
0.0119006
0.0130094
0.0156751
0.0218395
0.035726
0.0571473
0.0761907
0.0965826
0.0214674
0.0200911
0.0157849
0.0119295
0.00972111
0.00853797
0.00804712
0.00791188
0.00790629
0.00810566
0.00885703
0.00984245
0.0111933
0.0137072
0.0187735
0.0310069
0.0461341
0.0639777
0.0123157
0.0117373
0.00959803
0.00760125
0.00632976
0.00552567
0.00513116
0.00503258
0.00505706
0.00543606
0.00626343
0.00707621
0.00791615
0.009768
0.0126507
0.0190561
0.025736
0.0346786
0.00718195
0.00707436
0.00597886
0.00482826
0.00398343
0.00339601
0.00315436
0.00310753
0.00313416
0.0033151
0.00383724
0.00495843
0.00562294
0.00682859
0.00789284
0.0100058
0.0126029
0.0168353
0.00390624
0.00391526
0.0035163
0.0029606
0.00262134
0.002525
0.00250972
0.00255956
0.00268617
0.00294704
0.00345058
0.00452112
0.00521011
0.00612349
0.00680963
0.00784956
0.00948491
0.0123293
0.00187836
0.00196016
0.0019545
0.00201922
0.00219165
0.00257855
0.00305638
0.00408686
0.00486726
0.00595139
0.00655212
0.00772273
0.00853365
0.00975264
0.011165
0.0130416
0.0153874
0.0182392
0.000712825
0.000990045
0.00154104
0.00284684
0.00504078
0.00848637
0.0125853
0.0190373
0.0240546
0.028178
0.0300185
0.0318493
0.0342465
0.0382678
0.0438688
0.0493029
0.0541569
0.0578788
0.000152573
0.0015187
0.00683814
0.0207304
0.0407277
0.0627153
0.0873142
0.112872
0.131701
0.142589
0.147687
0.151727
0.160097
0.172753
0.186461
0.197596
0.204282
0.208302
0.000837102
0.0193144
0.0801547
0.199288
0.312077
0.407409
0.487768
0.547989
0.583216
0.595992
0.599025
0.602633
0.615767
0.634029
0.646019
0.648867
0.645286
0.640309
0.0225553
0.309678
0.882514
1.29602
1.57305
1.74171
1.83381
1.8645
1.85526
1.83367
1.80041
1.77457
1.75729
1.73539
1.70022
1.65497
1.60093
1.56309
0.619893
3.30261
4.65192
4.88161
4.76851
4.52491
4.23801
3.97578
3.75284
3.58422
3.44551
3.31753
3.19331
3.06468
2.94683
2.8195
2.71222
2.57148
6.30033
9.21243
8.02563
6.37897
5.35272
4.92962
4.82723
4.87175
4.99082
5.16008
5.31831
5.45187
5.54603
5.59833
5.61861
5.60118
5.53453
5.26711
0.0623225
0.0577571
0.0589734
0.0637898
0.0725368
0.0849718
0.101476
0.122677
0.148979
0.181234
0.22049
0.267249
0.32306
0.384147
0.444586
0.508489
0.582774
0.665298
0.744935
0.815985
0.890022
0.982272
1.09242
1.22585
1.36742
1.52589
1.72084
1.95266
2.2078
2.48902
2.79979
3.12311
3.44077
3.74583
4.02878
4.26798
4.45998
4.61315
4.72454
4.80238
4.83529
4.84296
4.8308
4.79148
4.72972
4.67707
4.6237
4.55936
4.49929
4.45085
4.42643
4.41641
4.41403
4.4206
4.43235
4.43995
4.43624
4.46079
4.48812
4.50172
4.51239
4.52857
4.56086
4.59903
4.63272
4.63928
4.62349
4.58094
4.52328
4.46987
4.38652
4.31316
4.29758
4.33482
4.42682
4.5735
4.67214
4.76274
4.8707
4.92958
4.90673
4.84925
4.77146
4.62969
4.39854
4.177
3.99615
3.82379
3.61598
3.37044
3.12491
2.9438
2.89051
3.04133
3.18986
3.19058
3.08469
3.02043
3.01977
3.04271
2.98084
3.05712
3.58106
4.40397
4.96887
5.20851
5.05948
4.47384
4.35882
4.51232
4.8652
4.87061
4.23085
3.16146
2.2291
1.77839
1.48088
1.31375
1.64455
1.60497
1.02828
0.969959
1.10118
1.22785
1.23678
1.52987
1.90371
2.47125
3.67867
4.74859
5.4221
5.77471
6.3022
7.17061
8.83809
10.5492
11.4156
11.4394
10.742
9.90885
9.40886
9.26587
9.37213
9.7149
10.2213
10.7329
11.229
11.8132
12.1168
12.4474
12.7157
12.8207
13.1706
13.8605
13.3933
12.2892
11.5451
11.7569
12.4246
12.2191
11.4831
10.567
9.89186
10.394
11.3461
12.1288
12.6722
10.0431
9.63959
11.5718
10.4209
7.59122
6.60481
6.54335
6.96938
7.78231
8.05811
9.84223
14.372
13.5774
0.248316
0.119756
0.0761911
0.0650159
0.0623649
0.0627609
0.0644642
0.0684543
0.0745854
0.0827893
0.0938883
0.107206
0.124001
0.143796
0.164991
0.191012
0.225943
0.265176
0.306037
0.347803
0.417271
0.524851
0.692346
0.892449
1.09409
1.28378
1.47077
1.65037
1.8132
1.94436
2.04195
2.10886
2.12333
2.08406
1.99168
1.87061
1.75069
1.62549
1.50422
1.37651
1.25016
1.12645
1.03026
0.950066
0.880482
0.833496
0.786199
0.748753
0.722893
0.706095
0.708476
0.724452
0.735871
0.737371
0.734307
0.727198
0.725484
0.738069
0.75081
0.750043
0.750406
0.757963
0.788176
0.842295
0.882437
0.902314
0.904962
0.900913
0.879135
0.844932
0.771523
0.698407
0.640345
0.633928
0.658563
0.769588
0.862612
0.918648
1.02699
1.21431
1.33216
1.38974
1.52079
1.66151
1.68672
1.68148
1.70257
1.69411
1.61693
1.46077
1.19603
0.920399
0.808008
0.878316
1.11955
1.25202
1.31099
1.45451
1.8591
2.82341
3.30268
3.27775
3.3032
3.1406
2.44498
1.87292
1.44833
1.35208
1.37928
1.50903
1.50864
1.28265
0.863425
0.716227
0.692304
0.697298
0.700671
0.73906
0.81616
0.706351
0.686726
0.781354
1.02086
0.86137
0.815406
0.903688
0.994827
1.12859
1.26368
1.4997
1.76922
1.96979
2.04509
2.15205
2.42815
3.03399
4.06644
5.1541
5.78212
5.85567
5.69858
5.21951
4.91489
4.7757
4.67645
4.68735
4.68956
4.74463
4.84002
4.84497
4.89327
5.10619
5.84553
6.822
6.88962
5.66365
4.81784
4.86052
5.55204
6.12633
6.04809
5.64528
5.38368
5.52584
6.19105
7.01573
7.61075
6.61792
5.78985
6.44636
6.73876
5.68724
5.35051
6.1773
7.08567
6.20724
5.29532
7.0548
9.84218
10.6562
0.649932
0.244258
0.115466
0.0779153
0.0657542
0.0606869
0.0585236
0.0580744
0.0584139
0.0596509
0.0624898
0.068178
0.0767489
0.0896948
0.108758
0.130373
0.164084
0.222086
0.293208
0.396384
0.53435
0.642084
0.753633
0.855904
0.922823
0.969307
1.01211
1.03055
1.02704
0.99436
0.933281
0.851813
0.749175
0.646075
0.549401
0.470097
0.406155
0.353958
0.310724
0.275402
0.243133
0.221585
0.207696
0.19834
0.191169
0.186366
0.182373
0.179668
0.179127
0.18022
0.184354
0.18976
0.192875
0.19432
0.194677
0.194607
0.194487
0.1967
0.198569
0.198201
0.198885
0.202152
0.210682
0.229774
0.246756
0.257636
0.262174
0.263438
0.262602
0.257319
0.240932
0.210637
0.187058
0.180677
0.183036
0.201844
0.22764
0.244882
0.275259
0.34268
0.412495
0.452294
0.515745
0.609287
0.662366
0.720833
0.827904
0.885421
0.891243
0.865283
0.72741
0.534861
0.470057
0.518659
0.665336
0.751555
1.00792
2.04644
2.96718
2.96297
2.79907
2.3636
1.98246
1.44179
1.00348
0.801822
0.707432
0.701971
0.78311
0.878267
0.887825
0.803676
0.602819
0.520431
0.511003
0.523398
0.564393
0.606234
0.58766
0.526124
0.557799
0.819605
1.03414
0.779695
0.758513
0.857123
0.87047
0.949762
1.06047
1.0239
0.999433
1.03153
1.05148
1.09573
1.21689
1.46483
1.69357
2.19947
2.8039
3.35475
3.79506
3.86714
3.83243
3.6072
3.25134
3.07818
2.93698
2.82995
2.85721
2.87286
2.9305
3.16961
4.12655
4.96416
4.64976
3.46325
3.04505
3.08824
3.41148
3.79343
3.88098
3.83489
3.86939
4.04587
4.34822
4.81218
5.52716
4.94432
4.75768
5.20438
5.40777
4.95491
5.22373
6.12642
5.56848
3.86237
3.38554
4.34059
6.47144
7.07138
1.29482
0.437037
0.187807
0.112431
0.0805268
0.0653922
0.0598288
0.0578113
0.0570311
0.0574494
0.0596402
0.0655585
0.075091
0.0883912
0.106258
0.136027
0.196493
0.321765
0.448908
0.52485
0.573616
0.626759
0.648114
0.636735
0.634542
0.625211
0.604591
0.565354
0.519685
0.458708
0.396655
0.336884
0.285143
0.242421
0.21268
0.192388
0.178296
0.168235
0.161465
0.156923
0.153502
0.151682
0.150853
0.150563
0.150338
0.149637
0.149164
0.149345
0.150277
0.151937
0.153908
0.155461
0.156387
0.157495
0.158562
0.159329
0.15937
0.158936
0.157827
0.155242
0.15366
0.153322
0.154617
0.160514
0.168869
0.173772
0.17529
0.174149
0.171325
0.16886
0.165703
0.157591
0.144337
0.136529
0.134736
0.136093
0.139033
0.141815
0.14907
0.170331
0.22084
0.257355
0.288523
0.331691
0.36396
0.382076
0.409896
0.470358
0.520994
0.545457
0.536201
0.44365
0.424841
0.484742
0.68673
1.11495
2.12969
2.96677
2.83772
2.21939
1.62853
1.3392
1.04658
0.730994
0.607965
0.532264
0.504864
0.506996
0.563545
0.599454
0.608228
0.576282
0.546461
0.512986
0.496576
0.502214
0.579379
0.650457
0.599624
0.499927
0.539274
0.811242
0.755667
0.787335
0.778835
0.869857
0.801266
0.794534
1.01791
1.01946
0.943033
0.876294
0.872174
0.897745
0.961025
1.0936
1.21687
1.3488
1.64053
1.94546
2.28351
2.55824
2.74025
2.79075
2.74588
2.48143
2.37631
2.21608
2.15093
2.16911
2.27032
2.49865
3.32302
4.03862
3.65003
2.86941
2.59692
2.58474
2.66346
2.78296
3.0012
3.23234
3.42908
3.53762
3.83133
4.35045
4.64221
4.32039
4.2563
4.66607
4.80061
4.80996
5.13954
5.42971
4.02554
3.05935
3.00846
3.38709
4.6756
5.34541
2.14948
0.713416
0.302837
0.166074
0.104609
0.0764557
0.0641395
0.0602881
0.0596268
0.0602644
0.0629779
0.0690832
0.0801204
0.09673
0.124282
0.20058
0.3766
0.455119
0.484835
0.502158
0.496634
0.459897
0.434995
0.414584
0.403645
0.37806
0.342751
0.300617
0.268153
0.23492
0.211651
0.191134
0.176158
0.164711
0.157971
0.153667
0.151303
0.150425
0.149582
0.149043
0.148631
0.14829
0.147763
0.147238
0.147185
0.14706
0.147177
0.148063
0.149897
0.151542
0.15262
0.153418
0.154019
0.154742
0.15623
0.157687
0.158864
0.159927
0.159597
0.156861
0.153375
0.151438
0.151298
0.151926
0.154779
0.156564
0.15598
0.151021
0.138842
0.131572
0.130499
0.132316
0.132405
0.127356
0.124493
0.121573
0.119446
0.119065
0.122262
0.136346
0.17434
0.191256
0.200453
0.225607
0.258101
0.271503
0.2803
0.306957
0.328339
0.343441
0.34848
0.363663
0.421462
0.723982
1.53244
2.22182
2.66911
2.68688
2.02766
1.25133
0.946995
0.776623
0.556175
0.445719
0.402719
0.358432
0.340638
0.3371
0.344751
0.34634
0.337347
0.333736
0.389069
0.427815
0.434494
0.499299
0.611487
0.69704
0.722197
0.508396
0.482805
0.517128
0.581403
0.751719
0.882567
0.876394
0.69547
0.634588
0.817768
1.00589
0.982154
0.896117
0.878772
0.887687
0.904179
0.912769
0.996089
1.05756
1.19445
1.37758
1.53529
1.76514
1.90544
2.13877
2.20659
2.1413
2.00605
1.97115
1.87256
1.87189
1.98054
2.20125
2.84581
3.45903
3.22121
2.67132
2.47657
2.50296
2.55428
2.55001
2.75996
3.14127
3.26725
3.07889
3.57175
4.44677
4.24024
4.18583
4.1324
4.62563
4.52203
4.72284
5.03695
4.50335
3.30422
2.90655
2.92295
2.99263
3.89699
4.35903
3.16217
1.03366
0.403534
0.19369
0.114192
0.0840515
0.0727556
0.0693915
0.0687395
0.0679809
0.0701134
0.0793468
0.103655
0.151625
0.232012
0.354713
0.430967
0.452743
0.445827
0.385019
0.333434
0.307385
0.289707
0.27245
0.258225
0.237556
0.218794
0.202397
0.188777
0.173608
0.164495
0.156816
0.151966
0.14881
0.146842
0.146176
0.146621
0.146996
0.147026
0.146891
0.146174
0.144224
0.140943
0.138713
0.137747
0.137255
0.137064
0.138556
0.141168
0.14288
0.145878
0.148121
0.149244
0.149106
0.148706
0.148777
0.150445
0.153243
0.154853
0.155551
0.154337
0.152384
0.151247
0.150235
0.14966
0.149476
0.14839
0.144174
0.12907
0.114711
0.106393
0.104921
0.111605
0.119598
0.120645
0.11639
0.111661
0.110535
0.111989
0.120081
0.148062
0.161241
0.170792
0.188794
0.213678
0.235046
0.245575
0.256859
0.266013
0.272378
0.288212
0.340379
0.570512
1.46451
2.18658
2.42834
2.4122
1.87687
1.0321
0.703324
0.553734
0.456093
0.35762
0.321116
0.303367
0.276861
0.267106
0.265782
0.265216
0.262473
0.255639
0.255049
0.272653
0.283216
0.298393
0.406204
0.525132
0.649429
0.742611
0.516809
0.509948
0.454294
0.572506
0.762474
0.968365
0.887058
0.654382
0.608222
0.62344
0.776155
0.877832
0.91848
0.957939
0.977832
0.920887
0.816014
0.794321
0.810544
0.883574
1.06615
1.17951
1.30167
1.46672
1.5991
1.79989
1.865
1.79371
1.75369
1.73919
1.73124
1.77208
1.98583
2.58763
3.08261
2.97621
2.55944
2.4293
2.54309
2.66915
2.58509
2.74867
2.98319
2.85726
2.45356
2.95693
4.4153
4.02922
4.10103
4.21666
4.75835
4.52445
4.44714
4.87521
4.06771
2.98107
2.99164
3.01026
2.9247
3.71222
3.87072
4.28893
1.39575
0.454425
0.194885
0.11195
0.0860278
0.0786648
0.076404
0.0760735
0.0781062
0.0868976
0.116278
0.224811
0.301231
0.33246
0.382079
0.4111
0.403229
0.320877
0.258296
0.23029
0.214003
0.202455
0.194444
0.186204
0.175328
0.168794
0.163207
0.157336
0.151402
0.147654
0.145446
0.144579
0.143542
0.143309
0.143337
0.144154
0.144458
0.144233
0.143603
0.142489
0.14081
0.138407
0.13701
0.135033
0.132209
0.128348
0.126448
0.125362
0.12606
0.130606
0.137907
0.142643
0.144529
0.14552
0.145287
0.144849
0.143101
0.142872
0.146669
0.150005
0.151929
0.151924
0.149883
0.146679
0.143793
0.142666
0.141414
0.134438
0.11838
0.103994
0.0963158
0.0946026
0.0981064
0.103905
0.106209
0.105811
0.105884
0.107402
0.115637
0.140143
0.155122
0.168455
0.18268
0.196704
0.216481
0.230167
0.239894
0.257222
0.259917
0.275749
0.368105
0.886111
1.93824
2.34306
2.27016
1.74071
0.921609
0.582178
0.443698
0.38004
0.326121
0.285809
0.273604
0.265114
0.249525
0.244567
0.243315
0.23888
0.235519
0.233568
0.235551
0.245541
0.246831
0.252264
0.274683
0.322304
0.435705
0.522425
0.466717
0.555236
0.461896
0.568972
0.818233
0.909532
0.743666
0.604002
0.618587
0.549649
0.553492
0.664307
0.903044
0.981829
0.990789
0.88199
0.697594
0.662062
0.683229
0.737679
0.850433
0.961481
1.03389
1.15657
1.28828
1.42079
1.63654
1.6767
1.63433
1.64501
1.65006
1.67787
1.85787
2.40932
2.74403
2.68202
2.43047
2.40312
2.55556
2.87366
2.7512
2.75112
2.63278
2.41611
2.24745
2.5009
3.7677
3.7693
3.79092
4.72947
4.99527
4.60241
4.33811
4.62758
3.93806
2.77221
2.97259
3.03762
2.91307
3.55655
3.64036
5.42908
1.61792
0.449619
0.164383
0.101153
0.0889389
0.0868717
0.0869329
0.0899179
0.10427
0.155747
0.234825
0.305979
0.332931
0.343289
0.359737
0.339496
0.275029
0.214132
0.185092
0.171318
0.163845
0.160775
0.160125
0.158924
0.155471
0.152049
0.147091
0.142688
0.140522
0.140003
0.140364
0.140775
0.140947
0.141066
0.140198
0.138898
0.136372
0.133947
0.13248
0.131883
0.133377
0.137118
0.139597
0.141796
0.14162
0.134622
0.127673
0.123221
0.121764
0.122115
0.124528
0.132453
0.140983
0.145201
0.146824
0.14625
0.142474
0.138687
0.135532
0.136099
0.141917
0.146836
0.147823
0.145166
0.139236
0.134035
0.130222
0.129841
0.125926
0.109797
0.0958627
0.0894513
0.0878202
0.0881868
0.0908566
0.0931713
0.0962448
0.102302
0.117667
0.140992
0.16385
0.185678
0.194592
0.197217
0.207454
0.215608
0.221096
0.233997
0.247859
0.279119
0.452863
1.31334
2.06781
2.24622
1.80615
0.922944
0.54146
0.393276
0.338355
0.309022
0.274617
0.248536
0.242587
0.242837
0.239812
0.239334
0.236351
0.230623
0.227953
0.227607
0.23077
0.238786
0.240533
0.244414
0.247621
0.261122
0.28215
0.335796
0.383553
0.51028
0.457023
0.454542
0.939947
0.798473
0.587295
0.587103
0.590216
0.493544
0.515695
0.588472
0.898798
0.909765
0.825615
0.636106
0.571468
0.610095
0.652027
0.720592
0.799084
0.886961
0.948843
1.0048
1.07707
1.15674
1.3813
1.53545
1.55169
1.56535
1.60066
1.63841
1.74346
2.22753
2.56764
2.55069
2.35282
2.29206
2.43904
2.97837
2.93471
2.72677
2.46401
2.30504
2.23806
2.40191
2.66625
3.54425
3.58104
5.43439
5.33763
4.57505
4.13626
4.14088
3.67356
2.65905
2.75317
2.86998
2.91212
3.34982
3.51094
6.60062
1.85709
0.450415
0.150323
0.102172
0.102914
0.109436
0.115142
0.137184
0.197744
0.249739
0.278702
0.306741
0.315998
0.309888
0.287474
0.240602
0.19138
0.164746
0.154073
0.150067
0.148234
0.145857
0.144647
0.144393
0.144269
0.143697
0.141375
0.138855
0.137477
0.137277
0.138625
0.138892
0.138146
0.135482
0.129225
0.120148
0.115145
0.113522
0.113473
0.115412
0.120153
0.128581
0.138534
0.149369
0.156382
0.161961
0.161272
0.147093
0.134511
0.126778
0.124079
0.125844
0.133132
0.143289
0.149008
0.151518
0.150987
0.144505
0.135274
0.129645
0.125091
0.126212
0.132314
0.1366
0.137132
0.132647
0.126981
0.122372
0.119458
0.110783
0.0967391
0.0886528
0.0853821
0.0850565
0.0862164
0.0887157
0.092812
0.100356
0.117634
0.140506
0.16738
0.195224
0.207789
0.207607
0.208504
0.213254
0.217153
0.227513
0.250018
0.315192
0.62366
1.54483
2.05044
2.02256
1.19145
0.581793
0.375962
0.303093
0.279099
0.264141
0.242797
0.22545
0.223793
0.227463
0.238561
0.240581
0.236593
0.23561
0.233591
0.23178
0.23521
0.240741
0.248805
0.25185
0.245885
0.250433
0.254487
0.279562
0.31667
0.357496
0.387707
0.412319
0.954749
0.703248
0.526548
0.57332
0.525966
0.457698
0.516257
0.558092
0.775846
0.69422
0.559141
0.526828
0.526716
0.608369
0.676102
0.774908
0.827544
0.894096
0.947222
0.970616
0.992545
1.03167
1.15083
1.36034
1.45542
1.47907
1.52467
1.59438
1.6833
1.89894
2.40775
2.43143
2.17469
2.09165
2.15539
2.89722
2.98354
2.68922
2.40203
2.27795
2.25379
2.35497
2.22845
3.57629
3.65899
5.79325
5.65794
4.89792
4.02283
3.82461
3.24359
2.57147
2.71603
2.96083
2.97907
3.07826
3.26864
7.69407
1.96012
0.41364
0.142465
0.120311
0.145477
0.161456
0.17379
0.20824
0.246531
0.267717
0.278219
0.281112
0.257564
0.233118
0.208137
0.173327
0.148528
0.13841
0.135491
0.135531
0.135918
0.134679
0.134263
0.134194
0.133873
0.132976
0.132041
0.13174
0.132145
0.133295
0.134352
0.134176
0.132091
0.12652
0.116989
0.110279
0.108344
0.108092
0.108727
0.111152
0.115802
0.121197
0.127725
0.13706
0.151768
0.16841
0.1788
0.184714
0.183946
0.164415
0.143643
0.133939
0.131914
0.135952
0.143532
0.150981
0.152836
0.152031
0.146977
0.134438
0.123605
0.117014
0.115107
0.11742
0.12215
0.125827
0.125591
0.120459
0.115854
0.108146
0.0969953
0.0885993
0.084863
0.0841496
0.0848497
0.0870145
0.0901634
0.0965228
0.110911
0.137026
0.168522
0.197962
0.215191
0.217521
0.216765
0.217266
0.220435
0.233267
0.269391
0.380896
0.849506
1.61233
1.87096
1.64826
0.819486
0.432405
0.313102
0.26549
0.242559
0.226495
0.216881
0.213937
0.216813
0.217897
0.225661
0.227587
0.231744
0.23881
0.239906
0.247604
0.254259
0.247178
0.255586
0.260516
0.256411
0.258745
0.256857
0.261375
0.257252
0.265904
0.321604
0.379407
0.666828
0.507563
0.429349
0.439167
0.439608
0.444708
0.537653
0.530508
0.559159
0.509261
0.476043
0.496809
0.51236
0.628797
0.767672
0.894793
0.907426
0.917985
0.968734
0.968312
0.969341
0.989066
1.02064
1.15912
1.30578
1.38916
1.47726
1.55352
1.60796
1.62743
2.01784
2.15802
2.04537
2.03692
2.05938
2.4937
2.85215
2.63153
2.18031
2.09218
2.1548
2.32538
2.16425
4.29456
3.82724
5.72042
6.16552
5.41959
4.1263
3.64903
2.9486
2.5733
2.69424
2.98398
3.06116
2.85933
2.94229
8.72886
2.02282
0.389658
0.143243
0.14759
0.182399
0.196389
0.208298
0.230706
0.250503
0.257276
0.249039
0.224008
0.206658
0.187523
0.165892
0.145261
0.135337
0.131239
0.129119
0.126039
0.12303
0.122195
0.122348
0.122398
0.122242
0.122614
0.123708
0.125774
0.128865
0.131884
0.133147
0.133183
0.131651
0.127011
0.118736
0.112543
0.110892
0.111253
0.112261
0.11488
0.118999
0.123044
0.125356
0.127427
0.130871
0.141235
0.16101
0.183545
0.195167
0.200257
0.195444
0.170079
0.14641
0.135718
0.133424
0.135007
0.140138
0.144786
0.14612
0.140015
0.127716
0.11508
0.108594
0.107045
0.106894
0.110032
0.113242
0.114349
0.112531
0.10693
0.0979932
0.0897567
0.0850767
0.0836038
0.0837009
0.0846222
0.0864486
0.0909273
0.101563
0.129385
0.169556
0.207224
0.230643
0.235544
0.233685
0.2335
0.238743
0.261583
0.305864
0.435839
0.994956
1.55113
1.53456
1.17409
0.578886
0.342233
0.274115
0.248014
0.229069
0.210737
0.206985
0.209082
0.212954
0.213518
0.222073
0.22308
0.228594
0.234202
0.239288
0.257597
0.259871
0.256454
0.254493
0.259367
0.264186
0.277129
0.271777
0.261059
0.251088
0.251502
0.274096
0.292782
0.419571
0.408775
0.380456
0.380598
0.406581
0.42644
0.530891
0.49819
0.491035
0.471773
0.45574
0.498248
0.513169
0.617736
0.796605
0.981351
1.02556
1.00538
1.02016
1.01125
0.976899
0.985336
0.992935
1.05847
1.16212
1.31812
1.46075
1.47466
1.4727
1.50137
1.90774
1.96449
2.00318
2.02713
1.97738
2.02116
2.55855
2.45323
2.0239
1.91459
1.98524
2.27765
2.17162
4.59802
3.89635
5.5044
6.74461
6.07869
4.38269
3.50059
2.88183
2.64502
2.66809
3.00517
3.13377
2.80628
2.68226
9.75227
2.20231
0.40421
0.157262
0.163363
0.196465
0.211369
0.223159
0.233954
0.237128
0.218525
0.192238
0.179923
0.172719
0.162658
0.148326
0.138621
0.134036
0.131377
0.129255
0.124709
0.11789
0.11543
0.114842
0.115002
0.116355
0.118835
0.121881
0.125437
0.129755
0.133971
0.136388
0.137386
0.13716
0.134661
0.128656
0.123239
0.123296
0.124341
0.124682
0.124381
0.125047
0.126874
0.127743
0.127352
0.127197
0.126331
0.12735
0.136629
0.160925
0.191964
0.205424
0.204464
0.184814
0.152694
0.136317
0.131416
0.128165
0.125189
0.126135
0.12937
0.127756
0.115653
0.102663
0.0971373
0.0973696
0.100414
0.102879
0.103985
0.104479
0.103551
0.0974659
0.0900597
0.0854379
0.0833548
0.0829828
0.0832126
0.0842835
0.0873289
0.0950197
0.115618
0.170932
0.218884
0.246825
0.254553
0.256693
0.262899
0.286501
0.308972
0.333931
0.458347
1.03889
1.47195
1.30797
0.765716
0.419892
0.284828
0.245013
0.232481
0.224211
0.207783
0.200769
0.20098
0.199858
0.206254
0.215295
0.21978
0.231922
0.236148
0.244238
0.259999
0.258658
0.260352
0.265106
0.264966
0.262839
0.273721
0.271714
0.268792
0.257271
0.251776
0.249552
0.246608
0.342464
0.375804
0.359688
0.35718
0.396344
0.414935
0.468348
0.470977
0.472975
0.473676
0.455322
0.504333
0.514695
0.552095
0.75832
0.927722
1.0325
1.02694
1.03909
1.04428
0.988413
0.992743
0.995478
1.01247
1.0814
1.25091
1.38198
1.43106
1.39338
1.43258
1.98446
1.94593
1.99259
2.01537
1.75133
1.70104
2.01192
2.13397
1.93227
1.83942
1.92103
2.10629
2.17431
4.40211
3.8655
5.67528
7.30335
7.66962
4.8861
3.53091
3.01461
2.79889
2.72494
3.19236
3.13885
2.81512
2.61763
10.668
2.29872
0.422709
0.162152
0.165895
0.200705
0.215165
0.22422
0.228705
0.217291
0.188814
0.170819
0.162277
0.158068
0.152586
0.14412
0.13797
0.135174
0.133743
0.131521
0.125197
0.117118
0.114037
0.113277
0.113938
0.1171
0.122235
0.12839
0.137045
0.148626
0.158243
0.164516
0.168693
0.170343
0.168763
0.162791
0.152028
0.142003
0.135199
0.129916
0.126381
0.125479
0.125824
0.12728
0.127505
0.127601
0.125178
0.122855
0.120643
0.122147
0.133598
0.171427
0.19694
0.198089
0.179945
0.152281
0.139446
0.130706
0.123451
0.119322
0.11887
0.1189
0.115217
0.102502
0.0943348
0.0915007
0.0912274
0.093458
0.0958593
0.0967118
0.0966477
0.0948561
0.0893596
0.0853155
0.0831748
0.0820366
0.0817276
0.0817534
0.0833686
0.0899678
0.109583
0.169544
0.230056
0.261193
0.269268
0.274499
0.293869
0.324943
0.324657
0.339467
0.463509
1.03987
1.41448
1.21645
0.604611
0.352876
0.264695
0.234471
0.224134
0.221582
0.213859
0.197484
0.192753
0.193146
0.203783
0.208772
0.213266
0.22368
0.227751
0.240389
0.251428
0.251811
0.258573
0.269322
0.268239
0.266148
0.256946
0.255903
0.267806
0.262776
0.257395
0.245608
0.235842
0.282364
0.333406
0.333076
0.329976
0.378104
0.388465
0.437345
0.46758
0.468301
0.479927
0.463257
0.502944
0.499639
0.4906
0.588455
0.64882
0.81089
0.882619
0.936591
0.996014
0.961214
0.974
0.983359
1.00623
1.04968
1.19145
1.2757
1.33352
1.3184
1.36456
1.87973
1.93426
1.91824
1.89786
1.58047
1.36618
1.53104
1.77484
1.78636
1.77838
1.82253
1.80928
2.08728
4.0475
3.93167
5.59813
7.6116
7.71772
6.27957
3.92665
3.41431
2.98935
2.86085
3.21751
3.09077
2.9246
2.70311
11.5895
2.5057
0.48051
0.170516
0.166472
0.200125
0.211667
0.215638
0.212496
0.193248
0.166383
0.155925
0.154313
0.154186
0.153771
0.148281
0.144434
0.14466
0.145655
0.143172
0.13229
0.120917
0.117992
0.118069
0.122023
0.133308
0.14686
0.160773
0.176094
0.188074
0.194805
0.196906
0.196166
0.19243
0.184512
0.174947
0.163042
0.150019
0.138495
0.129506
0.123448
0.121086
0.121119
0.121781
0.122857
0.123837
0.125326
0.124266
0.118714
0.116073
0.116951
0.122892
0.157965
0.183769
0.184266
0.164145
0.151206
0.144842
0.134584
0.122486
0.118567
0.118219
0.116395
0.105581
0.0957581
0.0917344
0.0905616
0.0886134
0.0872529
0.087688
0.0887993
0.0895607
0.0880286
0.0847204
0.0829827
0.0809226
0.0800494
0.0803397
0.0824161
0.08933
0.109413
0.171031
0.237865
0.277848
0.291446
0.299378
0.319791
0.332875
0.324622
0.335563
0.454787
0.983436
1.33878
1.20313
0.605209
0.342294
0.262853
0.234421
0.222907
0.218506
0.216403
0.197207
0.18852
0.190031
0.202123
0.203491
0.205065
0.207926
0.209096
0.21734
0.221
0.22358
0.240993
0.256899
0.262223
0.268753
0.254923
0.245561
0.245896
0.253069
0.257086
0.247432
0.234071
0.236579
0.262693
0.301922
0.305182
0.334071
0.338867
0.392222
0.461047
0.457145
0.477912
0.480292
0.508626
0.489188
0.460883
0.51318
0.506194
0.572464
0.676563
0.749904
0.839996
0.862032
0.898963
0.956734
1.00798
1.03787
1.14251
1.23813
1.24719
1.18793
1.2296
1.37121
1.64976
1.74378
1.75116
1.47306
1.29503
1.43733
1.60264
1.72285
1.75396
1.70931
1.7388
2.00833
3.55912
4.22516
5.02753
7.23918
6.66791
7.87898
5.2963
4.00587
3.19262
2.93275
3.21198
2.96763
2.96031
3.08367
12.4289
2.67354
0.536674
0.18125
0.160817
0.192405
0.199419
0.193872
0.178499
0.163764
0.147556
0.140367
0.140016
0.145772
0.153875
0.156617
0.157757
0.158361
0.15877
0.157562
0.151271
0.137898
0.13242
0.131398
0.133713
0.140598
0.153565
0.167581
0.181143
0.189648
0.192592
0.191634
0.188717
0.183032
0.174947
0.16624
0.157604
0.148614
0.139338
0.130095
0.122832
0.119086
0.118213
0.119307
0.12191
0.122271
0.12209
0.121871
0.119108
0.114063
0.11272
0.113695
0.117569
0.139058
0.160299
0.159329
0.14993
0.14737
0.142187
0.12977
0.123538
0.123381
0.123956
0.11843
0.103387
0.0964118
0.0931663
0.0885963
0.0846446
0.08324
0.0833737
0.0843579
0.0848297
0.0832683
0.0822162
0.0807485
0.0795377
0.0798242
0.0821951
0.0899011
0.11292
0.181509
0.245565
0.289932
0.313037
0.330002
0.342811
0.335307
0.307433
0.315523
0.423228
0.861521
1.20429
1.17177
0.709738
0.372801
0.282827
0.255661
0.231523
0.219707
0.215962
0.193581
0.177543
0.175944
0.186582
0.189735
0.190997
0.190304
0.195685
0.204413
0.20954
0.21144
0.228116
0.232553
0.23736
0.244293
0.242833
0.237307
0.226277
0.229269
0.242756
0.24647
0.234399
0.225986
0.237989
0.286818
0.296149
0.293441
0.295863
0.340375
0.427875
0.432386
0.483044
0.516968
0.513311
0.488291
0.434025
0.463727
0.449757
0.482981
0.541259
0.620946
0.708146
0.762913
0.817255
0.9259
0.992433
1.01517
1.08131
1.19178
1.1878
1.09253
1.11727
1.13421
1.28022
1.55366
1.58854
1.37399
1.27535
1.41159
1.45796
1.68156
1.7585
1.67165
1.67715
1.94857
2.55289
4.69333
4.64159
6.03619
6.05422
7.71704
6.10259
4.79707
3.37986
2.94755
3.15833
2.82375
2.94234
3.33948
13.3303
2.96385
0.672169
0.201689
0.156788
0.178846
0.187435
0.183814
0.164888
0.13919
0.127403
0.124889
0.126553
0.131836
0.143576
0.153409
0.157336
0.158903
0.159517
0.158777
0.155012
0.146219
0.138675
0.134634
0.134657
0.138057
0.145774
0.155428
0.160736
0.160458
0.156885
0.151161
0.146285
0.142873
0.142569
0.145075
0.14586
0.145128
0.142813
0.136464
0.128988
0.124228
0.121961
0.121677
0.121601
0.120735
0.11952
0.118944
0.116187
0.109089
0.108651
0.109936
0.111034
0.109957
0.109846
0.119885
0.125704
0.130535
0.132252
0.128508
0.123466
0.124239
0.126315
0.125908
0.11679
0.105994
0.0983167
0.0903998
0.0838033
0.0810583
0.0803892