/*--------------------------------*- C++ -*----------------------------------*\
| =========                 |                                                 |
| \\      /  F ield         | OpenFOAM: The Open Source CFD Toolbox           |
|  \\    /   O peration     | Version:  dev                                   |
|   \\  /    A nd           | Web:      http://www.openfoam.org               |
|    \\/     M anipulation  |                                                 |
\*---------------------------------------------------------------------------*/
FoamFile
{
    version     2.0;
    format      ascii;
    class       volScalarField;
    object      muSgs;
    location    "9.156";
}
// * * * * * * * * * * * * * * * * * * * * * * * * * * * * * * * * * * * * * //

dimensions      [1 -1 -1 0 0 0 0];

internalField   nonuniform List<scalar> 
12225
(
0.000210358
0.000209077
0.000154301
0.000153427
0.000142775
0.000152577
0.000171183
0.000168437
0.000203092
0.000183961
0.000227628
0.000192732
0.000234662
0.000194206
0.000231052
0.000198498
0.000214718
0.000248571
0.000103967
0.000194233
0.000168707
0.000190015
0.000148608
0.000179908
0.000144947
0.000173988
0.000150712
0.00016988
0.000158055
0.000164148
0.000162809
0.000157145
0.000174455
0.000170075
0.000269181
0.000263354
3.52387e-05
0.000120431
0.000120144
0.000148483
0.000127623
0.000148409
0.000128393
0.000138448
0.000129243
0.000122827
0.0001268
0.0001067
0.000119821
9.6585e-05
0.000127384
0.000122669
0.00025418
0.00028863
1.09855e-05
5.85127e-05
6.57779e-05
8.19163e-05
9.18557e-05
9.21356e-05
0.000108193
9.5151e-05
0.000115552
8.87493e-05
0.000107697
7.76248e-05
9.51556e-05
6.93745e-05
9.49876e-05
9.0395e-05
0.000220886
0.000295321
4.38832e-06
2.94093e-05
3.63175e-05
4.61628e-05
6.01603e-05
6.16592e-05
7.38796e-05
6.83256e-05
7.88096e-05
6.49303e-05
7.75592e-05
5.75241e-05
7.38003e-05
5.30121e-05
7.37473e-05
7.08639e-05
0.000163406
0.000246095
8.51283e-06
2.75377e-05
2.9971e-05
3.77515e-05
4.30055e-05
4.25103e-05
4.95448e-05
4.52894e-05
5.34121e-05
4.33003e-05
5.40801e-05
4.02299e-05
5.46848e-05
3.99053e-05
5.71353e-05
6.05003e-05
0.000104222
0.000136734
5.24942e-06
1.05232e-05
1.75989e-05
1.82131e-05
2.56763e-05
2.311e-05
3.04101e-05
2.59146e-05
3.41481e-05
2.65585e-05
3.60845e-05
2.72554e-05
3.85078e-05
2.94913e-05
4.04286e-05
3.98816e-05
6.69811e-05
6.84292e-05
2.82438e-06
3.75701e-06
8.10707e-06
7.96702e-06
1.26133e-05
1.10219e-05
1.56004e-05
1.28895e-05
1.80598e-05
1.39238e-05
1.97794e-05
1.54551e-05
2.21175e-05
1.76658e-05
2.37951e-05
2.29029e-05
3.59681e-05
3.50203e-05
3.07303e-06
3.51298e-06
5.44447e-06
5.36445e-06
8.02989e-06
7.3131e-06
1.00029e-05
8.70596e-06
1.16549e-05
9.87758e-06
1.32585e-05
1.15411e-05
1.52948e-05
1.33694e-05
1.68984e-05
1.64964e-05
2.41053e-05
2.41673e-05
4.02132e-06
4.27586e-06
4.80208e-06
4.98266e-06
5.92635e-06
5.89494e-06
6.91513e-06
6.68812e-06
7.91049e-06
7.56412e-06
8.98976e-06
8.7837e-06
1.05498e-05
1.02628e-05
1.21112e-05
1.22369e-05
1.6308e-05
1.68673e-05
5.32924e-06
5.72247e-06
5.44763e-06
5.60321e-06
5.65156e-06
5.87063e-06
6.08286e-06
6.27966e-06
6.67685e-06
6.79528e-06
7.20455e-06
7.50302e-06
8.29167e-06
8.87857e-06
9.95445e-06
1.04981e-05
1.22694e-05
1.35215e-05
7.47528e-06
7.94042e-06
7.17642e-06
7.14137e-06
6.54119e-06
6.7948e-06
6.6433e-06
7.15248e-06
7.00553e-06
7.44739e-06
7.27636e-06
7.75452e-06
8.12722e-06
9.04415e-06
9.7896e-06
1.0751e-05
1.17519e-05
1.30788e-05
1.08728e-05
1.09843e-05
9.89932e-06
9.42004e-06
8.72445e-06
8.70939e-06
8.32229e-06
8.41101e-06
8.02131e-06
8.10258e-06
7.97891e-06
8.38506e-06
8.95618e-06
1.02027e-05
1.11575e-05
1.21522e-05
1.31479e-05
1.45075e-05
1.62441e-05
1.57156e-05
1.39379e-05
1.27194e-05
1.13451e-05
1.05899e-05
9.82779e-06
9.62154e-06
9.26687e-06
9.13513e-06
9.16284e-06
9.59791e-06
1.05545e-05
1.27972e-05
1.43008e-05
1.58891e-05
1.74176e-05
1.9124e-05
2.2062e-05
2.04263e-05
1.82374e-05
1.61145e-05
1.43214e-05
1.3112e-05
1.22829e-05
1.18502e-05
1.15144e-05
1.13752e-05
1.16901e-05
1.24371e-05
1.34625e-05
1.55574e-05
1.84265e-05
2.20333e-05
2.50507e-05
2.77825e-05
2.91907e-05
2.7357e-05
2.47099e-05
2.14375e-05
1.89434e-05
1.72174e-05
1.61639e-05
1.55974e-05
1.52185e-05
1.4989e-05
1.51627e-05
1.60299e-05
1.77588e-05
2.15546e-05
2.60584e-05
3.05654e-05
3.37982e-05
3.66214e-05
3.59139e-05
3.30006e-05
2.91399e-05
2.49421e-05
2.19229e-05
1.98069e-05
1.85259e-05
1.78259e-05
1.73937e-05
1.71215e-05
1.72399e-05
1.81236e-05
2.0111e-05
2.47735e-05
3.01165e-05
3.53509e-05
3.89635e-05
4.20978e-05
3.67122e-05
3.36125e-05
2.93816e-05
2.50233e-05
2.19377e-05
1.98159e-05
1.85494e-05
1.78441e-05
1.7417e-05
1.71271e-05
1.7182e-05
1.79334e-05
1.97364e-05
2.39903e-05
2.9454e-05
3.49303e-05
3.87298e-05
4.20298e-05
3.19514e-05
2.96353e-05
2.60766e-05
2.22112e-05
1.94858e-05
1.7668e-05
1.66129e-05
1.59824e-05
1.55819e-05
1.53036e-05
1.52273e-05
1.55786e-05
1.67416e-05
1.93777e-05
2.42683e-05
2.99927e-05
3.38582e-05
3.72707e-05
2.47346e-05
2.28975e-05
1.99675e-05
1.69588e-05
1.49581e-05
1.3695e-05
1.30005e-05
1.26067e-05
1.23282e-05
1.22015e-05
1.24466e-05
1.28388e-05
1.34095e-05
1.45477e-05
1.67213e-05
2.10412e-05
2.51053e-05
2.89039e-05
1.77138e-05
1.65457e-05
1.47059e-05
1.27757e-05
1.14036e-05
1.04182e-05
9.82023e-06
9.51591e-06
9.3313e-06
9.45358e-06
9.9218e-06
1.03151e-05
1.06802e-05
1.16038e-05
1.29492e-05
1.55913e-05
1.77854e-05
2.02213e-05
1.26473e-05
1.21155e-05
1.09639e-05
9.62643e-06
8.55834e-06
7.72489e-06
7.27709e-06
7.06661e-06
6.94131e-06
6.98308e-06
7.34023e-06
8.14908e-06
8.49477e-06
9.16778e-06
9.67256e-06
1.07024e-05
1.17839e-05
1.33354e-05
8.85871e-06
8.52757e-06
7.9461e-06
7.12594e-06
6.5415e-06
6.25556e-06
6.09813e-06
6.02257e-06
6.03537e-06
6.18122e-06
6.5396e-06
7.32352e-06
7.69753e-06
8.17471e-06
8.44419e-06
8.88623e-06
9.56614e-06
1.06808e-05
5.80029e-06
5.71014e-06
5.56761e-06
5.51022e-06
5.59937e-06
5.92518e-06
6.27832e-06
7.05527e-06
7.52313e-06
8.12708e-06
8.35726e-06
8.89803e-06
9.16551e-06
9.59738e-06
1.00462e-05
1.06277e-05
1.13082e-05
1.20831e-05
3.34789e-06
3.78844e-06
4.58704e-06
6.01982e-06
7.79409e-06
9.87784e-06
1.1764e-05
1.41826e-05
1.56274e-05
1.65787e-05
1.67592e-05
1.69078e-05
1.71622e-05
1.776e-05
1.8619e-05
1.93395e-05
1.98646e-05
2.01323e-05
1.44759e-06
4.22863e-06
8.74926e-06
1.50261e-05
2.07871e-05
2.53286e-05
2.93069e-05
3.26926e-05
3.46242e-05
3.53026e-05
3.51787e-05
3.4907e-05
3.50986e-05
3.57058e-05
3.63458e-05
3.66622e-05
3.65295e-05
3.61408e-05
2.91771e-06
1.40006e-05
2.83727e-05
4.44361e-05
5.47115e-05
6.13357e-05
6.58058e-05
6.83793e-05
6.91242e-05
6.84394e-05
6.71838e-05
6.59799e-05
6.53094e-05
6.49184e-05
6.42049e-05
6.30477e-05
6.15954e-05
6.01109e-05
1.42144e-05
5.37854e-05
9.08581e-05
0.000108248
0.000116927
0.000120562
0.00012122
0.000119807
0.000117099
0.000114014
0.00011065
0.000107591
0.000104878
0.000102095
9.8992e-05
9.56654e-05
9.21746e-05
8.91616e-05
7.29395e-05
0.000169791
0.000198335
0.000199438
0.00019326
0.000184411
0.000174809
0.00016577
0.000157671
0.000150843
0.000144786
0.000139091
0.000133606
0.000128171
0.000123086
0.000117921
0.000113253
0.00010772
0.000226192
0.000267029
0.00024291
0.00021098
0.00018906
0.000177921
0.000172845
0.000170543
0.000169602
0.000169407
0.000168905
0.00016791
0.000166269
0.000163952
0.000161148
0.000157861
0.000153793
0.00014649
2.01877e-05
1.97897e-05
2.01687e-05
2.1074e-05
2.2539e-05
2.44579e-05
2.67924e-05
2.95293e-05
3.26205e-05
3.60629e-05
3.98616e-05
4.39667e-05
4.84084e-05
5.2858e-05
5.69725e-05
6.10655e-05
6.54653e-05
6.99731e-05
7.40883e-05
7.76888e-05
8.13726e-05
8.5667e-05
9.04929e-05
9.60185e-05
0.000101541
0.000107229
0.000113755
0.000121346
0.000129694
0.000138461
0.000147372
0.000156142
0.000164528
0.00017237
0.000179506
0.000185504
0.000190398
0.000194436
0.000197595
0.000200007
0.000201482
0.00020243
0.000202939
0.000202907
0.000202418
0.000202164
0.000201923
0.000201492
0.000201189
0.000201188
0.00020178
0.000202742
0.0002039
0.000205292
0.000206865
0.000208437
0.000209834
0.000211888
0.000214117
0.00021604
0.000217976
0.000220042
0.000222502
0.00022516
0.000227703
0.000229551
0.000230814
0.000231314
0.000231303
0.000231352
0.000230537
0.000229793
0.000230579
0.000232904
0.000236735
0.000241999
0.00024586
0.000249294
0.000253273
0.000256149
0.00025672
0.000255812
0.000254264
0.000251333
0.000246077
0.000240726
0.000236143
0.000231819
0.000226473
0.000219783
0.00021246
0.000206945
0.000205757
0.000211029
0.000217449
0.000219129
0.00021669
0.000214748
0.000214597
0.00021512
0.000211394
0.000210646
0.000226331
0.000252182
0.000269307
0.000276416
0.000272236
0.000256624
0.000254488
0.00026016
0.000270666
0.000271107
0.000253113
0.000220292
0.000186929
0.000168234
0.000153725
0.000144295
0.000162682
0.000162933
0.000132173
0.000126732
0.000138721
0.000144295
0.000145182
0.000161232
0.000180103
0.000205167
0.000250161
0.000284678
0.000305505
0.000316185
0.0003307
0.000352724
0.000391913
0.000429971
0.000451141
0.000455731
0.000447026
0.000432304
0.000423716
0.000422252
0.000426825
0.000436849
0.000451267
0.000466181
0.000480511
0.000497146
0.000508824
0.000518967
0.000527312
0.000529075
0.000534707
0.00054799
0.000543137
0.000532362
0.000522793
0.000536019
0.000548244
0.000544582
0.00053378
0.000518349
0.000508969
0.000528465
0.000546245
0.000568384
0.0005722
0.000517695
0.000542303
0.000566807
0.000520902
0.000447222
0.000412579
0.00040435
0.000430746
0.000484645
0.000527158
0.00057281
0.000622864
0.000608369
4.04239e-05
2.87376e-05
2.31791e-05
2.15031e-05
2.11307e-05
2.12562e-05
2.15955e-05
2.23129e-05
2.33632e-05
2.46913e-05
2.63673e-05
2.826e-05
3.04447e-05
3.27834e-05
3.51954e-05
3.80678e-05
4.1557e-05
4.50608e-05
4.84458e-05
5.18173e-05
5.70029e-05
6.37701e-05
7.28152e-05
8.27729e-05
9.20104e-05
9.98175e-05
0.000106924
0.000113552
0.000119489
0.000124139
0.000127681
0.000130031
0.000130765
0.000129833
0.000127228
0.000123705
0.000120061
0.000116074
0.000111969
0.000107396
0.000102623
9.77799e-05
9.39391e-05
9.06685e-05
8.77932e-05
8.5912e-05
8.39441e-05
8.24341e-05
8.15069e-05
8.11076e-05
8.17847e-05
8.32319e-05
8.44275e-05
8.50428e-05
8.53714e-05
8.54528e-05
8.58778e-05
8.71325e-05
8.84761e-05
8.89494e-05
8.95317e-05
9.04873e-05
9.2746e-05
9.66016e-05
9.97203e-05
0.000101671
0.000102513
0.000102863
0.000102168
0.000100587
9.65429e-05
9.18981e-05
8.78872e-05
8.76954e-05
8.97878e-05
9.74377e-05
0.000104416
0.00010849
0.000114909
0.000125503
0.000132646
0.00013653
0.000143213
0.0001504
0.000152334
0.000152974
0.000154738
0.000154945
0.000152097
0.000145586
0.000133102
0.000117572
0.000109831
0.000113561
0.000127716
0.000135829
0.000140566
0.000150086
0.000168403
0.000201857
0.000219825
0.000221377
0.000222078
0.000220773
0.000193678
0.000166987
0.000148289
0.000144215
0.000147199
0.000154898
0.000154784
0.000142014
0.000116378
0.00010664
0.000105897
0.000107272
0.000107332
0.000108904
0.000116253
0.000109823
0.000108063
0.000117099
0.000136784
0.000123462
0.000121068
0.000127851
0.000134806
0.00014428
0.000153121
0.000163072
0.000174662
0.000183849
0.000188859
0.000195153
0.00020772
0.000230829
0.000265601
0.00030021
0.000322636
0.000328592
0.00032821
0.000318859
0.000313428
0.000314012
0.000313954
0.000318194
0.000322724
0.000328084
0.000336991
0.000340758
0.000346268
0.000349902
0.000364706
0.000393652
0.000411499
0.00039066
0.000351841
0.000363741
0.000383254
0.000400217
0.000406825
0.000409434
0.000416965
0.000432518
0.000451974
0.000484212
0.000475021
0.000465464
0.000462166
0.000495326
0.000485905
0.00044545
0.000415803
0.000435235
0.000477085
0.000463141
0.000446445
0.000508835
0.000584605
0.000576935
6.51603e-05
4.0769e-05
2.84334e-05
2.35154e-05
2.1681e-05
2.09058e-05
2.06122e-05
2.06024e-05
2.07445e-05
2.10743e-05
2.16593e-05
2.27427e-05
2.43403e-05
2.65179e-05
2.92123e-05
3.1958e-05
3.58525e-05
4.17305e-05
4.81158e-05
5.58226e-05
6.45262e-05
7.05837e-05
7.64592e-05
8.16553e-05
8.4786e-05
8.70896e-05
8.92298e-05
9.01323e-05
9.00603e-05
8.85654e-05
8.56798e-05
8.17046e-05
7.65237e-05
7.1072e-05
6.56445e-05
6.08835e-05
5.67682e-05
5.31634e-05
5.00015e-05
4.72637e-05
4.46502e-05
4.29184e-05
4.18355e-05
4.11537e-05
4.06604e-05
4.03985e-05
4.01889e-05
4.01555e-05
4.03479e-05
4.07362e-05
4.14951e-05
4.23846e-05
4.30401e-05
4.35178e-05
4.38646e-05
4.41687e-05
4.44584e-05
4.49967e-05
4.55096e-05
4.5688e-05
4.59971e-05
4.6576e-05
4.78104e-05
5.02875e-05
5.26072e-05
5.42229e-05
5.50345e-05
5.53166e-05
5.52271e-05
5.47152e-05
5.31924e-05
4.98597e-05
4.68833e-05
4.61367e-05
4.68381e-05
4.94167e-05
5.30483e-05
5.54583e-05
5.9031e-05
6.61308e-05
7.33748e-05
7.75903e-05
8.32961e-05
9.09682e-05
9.53429e-05
9.97205e-05
0.00010748
0.000112297
0.00011355
0.000112671
0.000104647
8.97522e-05
8.35655e-05
8.68262e-05
9.90345e-05
0.000106909
0.000122697
0.000172075
0.000211489
0.000212786
0.000208953
0.000193488
0.000178458
0.000151796
0.000123546
0.000110844
0.000104844
0.000104855
0.000111339
0.000117443
0.000117908
0.000111636
9.73797e-05
9.11361e-05
8.98393e-05
9.09228e-05
9.57777e-05
0.000100885
0.000100087
9.28481e-05
9.57314e-05
0.000122558
0.000132185
0.000118848
0.00011682
0.000125511
0.000127332
0.000133886
0.000144237
0.000140098
0.000135727
0.000135933
0.000138841
0.000143553
0.000152503
0.000167567
0.000178041
0.000198614
0.000223018
0.000246473
0.000264767
0.000272622
0.000275787
0.000273921
0.000266272
0.000263801
0.000261747
0.000263238
0.000268991
0.000273899
0.000279977
0.000283168
0.000313839
0.000348046
0.000347916
0.000304268
0.000269526
0.0002796
0.000310466
0.000325765
0.000337727
0.000352656
0.000361997
0.000360745
0.000398287
0.000426102
0.000428167
0.000445777
0.000345624
0.000423896
0.000466186
0.000443519
0.00042567
0.000449196
0.000433514
0.0003715
0.000345827
0.000375538
0.000486045
0.000493808
9.16389e-05
5.42011e-05
3.60826e-05
2.81491e-05
2.39507e-05
2.16779e-05
2.08378e-05
2.0568e-05
2.05126e-05
2.07207e-05
2.1289e-05
2.24407e-05
2.4153e-05
2.635e-05
2.87932e-05
3.24375e-05
3.93643e-05
5.03973e-05
5.92461e-05
6.38533e-05
6.64784e-05
6.93699e-05
7.02012e-05
6.97152e-05
6.96801e-05
6.91595e-05
6.78821e-05
6.55035e-05
6.26948e-05
5.88419e-05
5.47033e-05
5.04977e-05
4.663e-05
4.32277e-05
4.07607e-05
3.90289e-05
3.78348e-05
3.69939e-05
3.6511e-05
3.62407e-05
3.6091e-05
3.60926e-05
3.61907e-05
3.63475e-05
3.64865e-05
3.65684e-05
3.66776e-05
3.68579e-05
3.71368e-05
3.751e-05
3.79229e-05
3.82821e-05
3.85832e-05
3.89272e-05
3.92959e-05
3.96527e-05
3.99013e-05
4.00794e-05
4.01981e-05
4.00952e-05
4.00823e-05
4.02308e-05
4.07073e-05
4.17479e-05
4.32216e-05
4.42573e-05
4.46963e-05
4.46459e-05
4.41984e-05
4.38407e-05
4.35922e-05
4.29458e-05
4.14778e-05
4.04898e-05
4.04034e-05
4.08203e-05
4.14836e-05
4.20625e-05
4.3385e-05
4.66307e-05
5.36723e-05
5.8353e-05
6.18649e-05
6.68736e-05
7.07364e-05
7.27059e-05
7.53998e-05
8.08769e-05
8.57348e-05
8.82657e-05
8.80944e-05
8.14323e-05
7.91515e-05
8.39405e-05
0.000100236
0.000128927
0.000177544
0.000212747
0.000209687
0.000186127
0.000160636
0.00014531
0.000127108
0.00010411
9.55578e-05
9.07639e-05
8.78384e-05
8.8238e-05
9.24691e-05
9.47671e-05
9.47802e-05
9.14512e-05
9.03126e-05
8.84493e-05
8.71997e-05
8.85854e-05
9.68981e-05
0.000104967
0.000104155
9.00126e-05
9.43452e-05
0.00012028
0.000108763
0.000118197
0.00011592
0.00012579
0.000122719
0.000122579
0.000138446
0.000140353
0.000134884
0.000130076
0.000130432
0.000134339
0.000136271
0.000145824
0.000155107
0.000162097
0.000174298
0.000188378
0.000204168
0.000219351
0.00023077
0.000238683
0.000240402
0.000238414
0.000233747
0.000230011
0.0002363
0.000241333
0.000249562
0.000252702
0.00028464
0.000319177
0.000319562
0.000281963
0.000249127
0.00024436
0.000278886
0.000292097
0.000310893
0.000337061
0.000334435
0.000302547
0.000351815
0.000383624
0.000392928
0.000450565
0.000317823
0.000362984
0.000434648
0.000449635
0.000430162
0.000430382
0.000377944
0.000351678
0.000342702
0.000361698
0.000430568
0.000453254
0.000117734
6.87777e-05
4.54481e-05
3.40273e-05
2.71745e-05
2.33855e-05
2.15687e-05
2.10124e-05
2.106e-05
2.13051e-05
2.18252e-05
2.29157e-05
2.47475e-05
2.72372e-05
3.11534e-05
4.02177e-05
5.45106e-05
5.91874e-05
6.06352e-05
6.12246e-05
6.06155e-05
5.82925e-05
5.67677e-05
5.56028e-05
5.48401e-05
5.30245e-05
5.04703e-05
4.73337e-05
4.48385e-05
4.20977e-05
4.02394e-05
3.85075e-05
3.7211e-05
3.62644e-05
3.57816e-05
3.55179e-05
3.54872e-05
3.55981e-05
3.56968e-05
3.58367e-05
3.59711e-05
3.60931e-05
3.62103e-05
3.63199e-05
3.6508e-05
3.66964e-05
3.68945e-05
3.71883e-05
3.75935e-05
3.79832e-05
3.83083e-05
3.85731e-05
3.87867e-05
3.8994e-05
3.93198e-05
3.96705e-05
3.999e-05
4.03006e-05
4.04622e-05
4.03235e-05
4.0071e-05
3.99658e-05
4.00956e-05
4.03371e-05
4.08948e-05
4.1433e-05
4.1626e-05
4.1292e-05
3.97244e-05
3.85891e-05
3.85345e-05
3.91881e-05
3.97567e-05
3.93564e-05
3.89913e-05
3.85626e-05
3.81354e-05
3.79898e-05
3.86733e-05
4.11283e-05
4.69629e-05
4.94149e-05
5.06705e-05
5.42174e-05
5.88673e-05
6.10773e-05
6.27543e-05
6.58362e-05
6.83444e-05
6.99683e-05
7.08332e-05
7.25244e-05
7.79821e-05
0.000102161
0.000150048
0.000180872
0.000199369
0.000199852
0.0001734
0.000136191
0.000119244
0.000107835
8.99765e-05
7.9564e-05
7.68107e-05
7.25883e-05
7.04084e-05
7.04544e-05
7.13561e-05
7.17003e-05
6.99834e-05
6.88903e-05
7.43295e-05
7.847e-05
7.96598e-05
8.69794e-05
9.73222e-05
0.000105637
0.000112474
9.18995e-05
9.04324e-05
9.385e-05
9.86345e-05
0.000115603
0.000124048
0.000127636
0.000118279
0.000113545
0.000117892
0.000138732
0.000136412
0.000136218
0.000135754
0.000137253
0.000131303
0.000128496
0.000134367
0.000143358
0.000151678
0.000161537
0.000168761
0.000181413
0.000190623
0.000208087
0.000212264
0.000218272
0.000216532
0.000211178
0.000216408
0.000222768
0.00023308
0.000238613
0.00026669
0.000299902
0.000306517
0.000268829
0.000244783
0.000239546
0.000267668
0.000289168
0.000308069
0.00033083
0.000306996
0.000259071
0.000303826
0.000329425
0.000358666
0.00044312
0.000356855
0.000351926
0.000417883
0.000446327
0.00042998
0.000397098
0.000350534
0.000355432
0.000341884
0.000327742
0.000400239
0.000430499
0.000142559
8.24774e-05
5.2247e-05
3.64751e-05
2.82304e-05
2.4393e-05
2.2898e-05
2.24788e-05
2.24677e-05
2.24287e-05
2.28429e-05
2.44189e-05
2.82903e-05
3.46483e-05
4.29667e-05
5.2937e-05
5.76679e-05
5.8401e-05
5.72386e-05
5.27664e-05
4.91438e-05
4.73804e-05
4.61112e-05
4.4873e-05
4.37055e-05
4.19411e-05
4.03681e-05
3.89943e-05
3.78746e-05
3.6581e-05
3.58347e-05
3.51791e-05
3.48741e-05
3.47276e-05
3.46963e-05
3.48083e-05
3.50118e-05
3.52093e-05
3.5382e-05
3.55019e-05
3.55682e-05
3.54831e-05
3.5247e-05
3.51745e-05
3.52165e-05
3.53044e-05
3.54553e-05
3.58169e-05
3.63417e-05
3.67843e-05
3.74227e-05
3.79729e-05
3.83635e-05
3.85591e-05
3.87042e-05
3.88997e-05
3.9259e-05
3.97648e-05
4.01763e-05
4.04763e-05
4.05457e-05
4.04741e-05
4.04752e-05
4.04869e-05
4.05399e-05
4.06713e-05
4.07317e-05
4.04176e-05
3.86174e-05
3.63998e-05
3.49587e-05
3.47154e-05
3.58675e-05
3.76284e-05
3.82016e-05
3.78892e-05
3.7023e-05
3.65409e-05
3.65854e-05
3.77948e-05
4.20501e-05
4.43707e-05
4.60424e-05
4.8951e-05
5.25875e-05
5.59024e-05
5.79781e-05
5.98837e-05
6.15949e-05
6.29418e-05
6.46579e-05
7.01059e-05
8.99614e-05
0.000145087
0.000178804
0.000188003
0.000187176
0.000165192
0.000121606
0.000100379
8.97295e-05
8.15557e-05
7.151e-05
6.72497e-05
6.5782e-05
6.2954e-05
6.17249e-05
6.1514e-05
6.15573e-05
6.15896e-05
6.09765e-05
6.13468e-05
6.33932e-05
6.44774e-05
6.59348e-05
7.64115e-05
8.64275e-05
9.75513e-05
0.000107232
9.03642e-05
9.19365e-05
8.89301e-05
0.000100126
0.000118023
0.000132252
0.000129808
0.000116829
0.000115584
0.000101093
0.000118443
0.000126769
0.00014225
0.000147454
0.000149919
0.000136312
0.000121395
0.000117523
0.000121089
0.000129897
0.000142832
0.000149977
0.000156243
0.000163295
0.000176771
0.000189332
0.0001965
0.000206948
0.000199715
0.000202728
0.000212106
0.000219451
0.000229291
0.000257037
0.000283823
0.00029046
0.000259013
0.000245536
0.000245265
0.000265322
0.000290108
0.000299387
0.00029971
0.000261513
0.000226305
0.000248627
0.000268039
0.000328181
0.000428053
0.0003901
0.00036347
0.000417018
0.0004352
0.000431334
0.000387085
0.000339209
0.00035893
0.000349888
0.000327392
0.000384665
0.00041799
0.000166073
9.5721e-05
5.53543e-05
3.6571e-05
2.7846e-05
2.46163e-05
2.37001e-05
2.33666e-05
2.33981e-05
2.39199e-05
2.54481e-05
2.99928e-05
4.21304e-05
4.84648e-05
5.03891e-05
5.39229e-05
5.54436e-05
5.41e-05
4.768e-05
4.29107e-05
4.07818e-05
3.94724e-05
3.84829e-05
3.78606e-05
3.71461e-05
3.6246e-05
3.57499e-05
3.53043e-05
3.47961e-05
3.42677e-05
3.40697e-05
3.40524e-05
3.41462e-05
3.41952e-05
3.42909e-05
3.44304e-05
3.46649e-05
3.48039e-05
3.49274e-05
3.49873e-05
3.50145e-05
3.49793e-05
3.48766e-05
3.49283e-05
3.48556e-05
3.47043e-05
3.43661e-05
3.42793e-05
3.4292e-05
3.45455e-05
3.52855e-05
3.64552e-05
3.73994e-05
3.79302e-05
3.83372e-05
3.85668e-05
3.87459e-05
3.8707e-05
3.87826e-05
3.93684e-05
4.0053e-05
4.0518e-05
4.07005e-05
4.05992e-05
4.02841e-05
3.99686e-05
3.99287e-05
4.00072e-05
3.94481e-05
3.73318e-05
3.48476e-05
3.32629e-05
3.28341e-05
3.34565e-05
3.48858e-05
3.57483e-05
3.59345e-05
3.59206e-05
3.61237e-05
3.72419e-05
4.08795e-05
4.38453e-05
4.64823e-05
4.88193e-05
5.09442e-05
5.39732e-05
5.5912e-05
5.69348e-05
5.96303e-05
6.10397e-05
6.30543e-05
7.24559e-05
0.000110372
0.000166699
0.000184144
0.000181494
0.000159034
0.00011514
9.07897e-05
7.94488e-05
7.38958e-05
6.87045e-05
6.41486e-05
6.276e-05
6.19663e-05
6.04141e-05
6.01464e-05
5.98801e-05
5.90115e-05
5.86787e-05
5.87839e-05
5.96471e-05
6.07008e-05
6.08825e-05
6.14972e-05
6.37474e-05
6.79582e-05
7.76255e-05
8.59059e-05
8.29991e-05
9.21007e-05
8.80065e-05
9.6589e-05
0.000121716
0.000129758
0.00011839
0.000111876
0.000115597
9.77995e-05
0.000102725
0.000110595
0.000142067
0.000142934
0.000137494
0.000125659
0.000107252
0.000107827
0.000111644
0.000120211
0.000130559
0.000137605
0.000144528
0.000146606
0.000156088
0.000167989
0.00017775
0.000194166
0.000196793
0.000193181
0.00020314
0.000212307
0.000222255
0.000252243
0.000269614
0.000272515
0.000253025
0.000247356
0.000248112
0.000266969
0.000289796
0.000283773
0.000259375
0.000233087
0.00022412
0.000228523
0.000209514
0.00030194
0.000403395
0.000424473
0.000370159
0.000422707
0.000435104
0.000426146
0.000386016
0.000333461
0.000349166
0.000349268
0.0003347
0.000372843
0.000405372
0.000186915
0.00010321
5.52845e-05
3.35384e-05
2.65098e-05
2.50178e-05
2.48889e-05
2.50754e-05
2.56861e-05
2.79754e-05
3.44239e-05
4.23833e-05
4.86553e-05
5.06763e-05
5.10928e-05
5.16912e-05
4.94577e-05
4.3842e-05
3.87245e-05
3.6387e-05
3.52379e-05
3.46681e-05
3.44723e-05
3.44793e-05
3.4425e-05
3.41469e-05
3.38765e-05
3.34683e-05
3.31968e-05
3.32234e-05
3.33814e-05
3.35713e-05
3.37246e-05
3.38219e-05
3.39266e-05
3.38818e-05
3.37932e-05
3.35807e-05
3.34211e-05
3.33736e-05
3.34908e-05
3.38816e-05
3.45864e-05
3.51279e-05
3.56592e-05
3.59366e-05
3.52799e-05
3.45209e-05
3.40567e-05
3.39886e-05
3.41835e-05
3.46753e-05
3.5848e-05
3.72853e-05
3.82038e-05
3.87447e-05
3.89682e-05
3.87439e-05
3.84129e-05
3.81167e-05
3.82083e-05
3.90538e-05
4.00357e-05
4.04135e-05
4.02655e-05
3.95577e-05
3.88629e-05
3.83518e-05
3.85292e-05
3.84249e-05
3.63359e-05
3.37257e-05
3.23107e-05
3.19798e-05
3.23248e-05
3.29804e-05
3.35169e-05
3.39526e-05
3.4888e-05
3.74524e-05
4.12698e-05
4.52603e-05
4.95155e-05
5.14235e-05
5.16794e-05
5.34198e-05
5.49497e-05
5.53697e-05
5.67365e-05
5.88239e-05
6.27487e-05
7.94565e-05
0.000135384
0.000171842
0.000178991
0.000162079
0.000116048
8.83019e-05
7.55054e-05
7.0007e-05
6.69716e-05
6.30853e-05
6.01028e-05
5.93329e-05
5.91164e-05
5.88219e-05
5.89958e-05
5.8803e-05
5.8052e-05
5.77712e-05
5.73945e-05
5.7746e-05
5.88055e-05
5.98703e-05
6.07093e-05
6.11482e-05
6.27819e-05
6.4509e-05
6.94147e-05
7.45219e-05
8.65253e-05
8.4981e-05
8.31015e-05
0.000137424
0.000125915
0.000104757
0.000109798
0.000106086
9.49357e-05
0.000100327
0.000105667
0.000134104
0.000129888
0.000116775
0.000103132
9.54952e-05
0.000104258
0.000111565
0.000120101
0.000130382
0.00013557
0.000143328
0.000144707
0.000144601
0.000154093
0.000163092
0.000178363
0.000193534
0.00018805
0.000193951
0.000207978
0.000213231
0.000239556
0.000265833
0.000270355
0.000250052
0.000238301
0.000240382
0.000269229
0.00028443
0.000272371
0.000251549
0.000237565
0.000234588
0.000234133
0.000171902
0.000297493
0.000395185
0.000445503
0.000378415
0.000431807
0.000429935
0.000405322
0.000371526
0.000335851
0.000342409
0.000349894
0.000324142
0.000361271
0.000391353
0.000205781
0.000110092
5.50285e-05
3.20181e-05
2.68735e-05
2.74195e-05
2.84249e-05
2.92107e-05
3.21598e-05
3.86449e-05
4.33077e-05
4.57099e-05
4.78938e-05
4.81411e-05
4.73427e-05
4.54565e-05
4.12643e-05
3.66665e-05
3.42238e-05
3.34681e-05
3.32462e-05
3.31053e-05
3.29179e-05
3.28966e-05
3.29227e-05
3.30318e-05
3.30886e-05
3.29973e-05
3.29094e-05
3.29467e-05
3.3057e-05
3.329e-05
3.33789e-05
3.3299e-05
3.29958e-05
3.22554e-05
3.12577e-05
3.08644e-05
3.08678e-05
3.1035e-05
3.14993e-05
3.23081e-05
3.35719e-05
3.50577e-05
3.65932e-05
3.76863e-05
3.8688e-05
3.90148e-05
3.76724e-05
3.6199e-05
3.50803e-05
3.46863e-05
3.49956e-05
3.606e-05
3.76222e-05
3.87609e-05
3.9473e-05
3.97923e-05
3.94044e-05
3.8352e-05
3.75922e-05
3.69662e-05
3.70173e-05
3.80266e-05
3.89672e-05
3.93468e-05
3.89803e-05
3.8113e-05
3.73915e-05
3.70649e-05
3.61717e-05
3.38755e-05
3.22651e-05
3.16264e-05
3.18143e-05
3.21887e-05
3.26248e-05
3.31548e-05
3.42329e-05
3.71379e-05
4.1161e-05
4.56642e-05
5.05045e-05
5.32287e-05
5.34575e-05
5.36711e-05
5.45004e-05
5.50319e-05
5.61418e-05
5.88688e-05
6.64185e-05
9.26181e-05
0.000147276
0.000170766
0.000168755
0.000131997
9.22239e-05
7.3725e-05
6.62733e-05
6.34144e-05
6.09128e-05
5.80541e-05
5.61438e-05
5.55576e-05
5.56912e-05
5.74645e-05
5.77397e-05
5.72881e-05
5.77541e-05
5.80882e-05
5.79266e-05
5.86577e-05
5.90531e-05
6.03789e-05
6.10851e-05
6.0721e-05
6.18674e-05
6.23162e-05
6.48834e-05
6.72757e-05
7.0105e-05
7.62549e-05
7.89693e-05
0.000138749
0.000115931
9.68611e-05
0.000104279
9.79322e-05
9.33938e-05
0.0001006
0.000102489
0.000115729
0.000110856
9.80299e-05
9.92537e-05
9.62052e-05
0.000106052
0.000117269
0.000126588
0.000135556
0.000136994
0.000143374
0.000147305
0.000141788
0.000147154
0.000152876
0.000162011
0.000183306
0.00018562
0.000185855
0.000199526
0.000204672
0.000214364
0.000256231
0.000264803
0.000242023
0.000229397
0.000225659
0.000261198
0.000279575
0.000261357
0.000254145
0.000243427
0.000239395
0.000238779
0.000179615
0.000318347
0.000401641
0.000441171
0.000426638
0.000452203
0.000419051
0.000385365
0.000346548
0.000340888
0.000346006
0.000358121
0.000337684
0.000351806
0.000372699
0.000221897
0.00011304
5.26549e-05
3.13574e-05
2.94013e-05
3.2747e-05
3.454e-05
3.58501e-05
3.93963e-05
4.26934e-05
4.42448e-05
4.50973e-05
4.51219e-05
4.30394e-05
4.07345e-05
3.81535e-05
3.46382e-05
3.24085e-05
3.16069e-05
3.15514e-05
3.17182e-05
3.1822e-05
3.17464e-05
3.18371e-05
3.19174e-05
3.19762e-05
3.19884e-05
3.20214e-05
3.21652e-05
3.23653e-05
3.25899e-05
3.2734e-05
3.26992e-05
3.24488e-05
3.18925e-05
3.08637e-05
3.02604e-05
3.02048e-05
3.03493e-05
3.05857e-05
3.10835e-05
3.1889e-05
3.27832e-05
3.3756e-05
3.50268e-05
3.70099e-05
3.92689e-05
4.07476e-05
4.1754e-05
4.21404e-05
4.05515e-05
3.8079e-05
3.65595e-05
3.61243e-05
3.66008e-05
3.76021e-05
3.88451e-05
3.95065e-05
3.98051e-05
3.96194e-05
3.83206e-05
3.68879e-05
3.58431e-05
3.55114e-05
3.58485e-05
3.67143e-05
3.75922e-05
3.78987e-05
3.72928e-05
3.65313e-05
3.55201e-05
3.38109e-05
3.22217e-05
3.14758e-05
3.15217e-05
3.1837e-05
3.22021e-05
3.25574e-05
3.34714e-05
3.58422e-05
4.04982e-05
4.60104e-05
5.11901e-05
5.43339e-05
5.52227e-05
5.53025e-05
5.52562e-05
5.54965e-05
5.71159e-05
6.11875e-05
7.29042e-05
0.000108038
0.000151041
0.000163336
0.000152386
0.000108915
7.92507e-05
6.71238e-05
6.18749e-05
5.86723e-05
5.59672e-05
5.49383e-05
5.53456e-05
5.52606e-05
5.53702e-05
5.66959e-05
5.66339e-05
5.69593e-05
5.84869e-05
5.89376e-05
6.01788e-05
6.15426e-05
6.08598e-05
6.16731e-05
6.20346e-05
6.16775e-05
6.23855e-05
6.33189e-05
6.41716e-05
6.26105e-05
6.26723e-05
6.83019e-05
7.43129e-05
9.92222e-05
9.01053e-05
8.59481e-05
8.59219e-05
8.88977e-05
9.12449e-05
0.000100673
0.000102658
0.000100318
0.000100366
9.34975e-05
9.66831e-05
9.64517e-05
0.000103885
0.000123184
0.000134056
0.000143275
0.00014047
0.000143839
0.000149225
0.000143039
0.000144389
0.00014951
0.000150519
0.000167497
0.000179578
0.000188255
0.000192328
0.000188682
0.000196983
0.000236438
0.000245009
0.00024349
0.000233567
0.000219563
0.000231614
0.000270999
0.000253663
0.000239601
0.000230551
0.000226926
0.000238722
0.000204259
0.000359711
0.000407827
0.000436916
0.000469573
0.000529995
0.000440027
0.000376557
0.000336657
0.000347017
0.000349818
0.000361536
0.000340193
0.000349341
0.000352341
0.000235555
0.000114939
5.13037e-05
3.16326e-05
3.26748e-05
3.65051e-05
3.79134e-05
3.91437e-05
4.1238e-05
4.30443e-05
4.31329e-05
4.21641e-05
3.9752e-05
3.81457e-05
3.64009e-05
3.42721e-05
3.21568e-05
3.12781e-05
3.10164e-05
3.09314e-05
3.06173e-05
3.0267e-05
3.02364e-05
3.03445e-05
3.04984e-05
3.0607e-05
3.07652e-05
3.10149e-05
3.13685e-05
3.18679e-05
3.23156e-05
3.24898e-05
3.25648e-05
3.25093e-05
3.21357e-05
3.12351e-05
3.06121e-05
3.05423e-05
3.07277e-05
3.10007e-05
3.14966e-05
3.21784e-05
3.28569e-05
3.33118e-05
3.37529e-05
3.43092e-05
3.55684e-05
3.80898e-05
4.10458e-05
4.2763e-05
4.37564e-05
4.38849e-05
4.17449e-05
3.86759e-05
3.69321e-05
3.65432e-05
3.67041e-05
3.73995e-05
3.82237e-05
3.88256e-05
3.85258e-05
3.71366e-05
3.54904e-05
3.43599e-05
3.42142e-05
3.43694e-05
3.48571e-05
3.56452e-05
3.61272e-05
3.60196e-05
3.53374e-05
3.40958e-05
3.26393e-05
3.16349e-05
3.13567e-05
3.15875e-05
3.18337e-05
3.20019e-05
3.25634e-05
3.43213e-05
3.89545e-05
4.5848e-05
5.22684e-05
5.6136e-05
5.72645e-05
5.73713e-05
5.74365e-05
5.80025e-05
6.07808e-05
6.5593e-05
7.81369e-05
0.000117159
0.00014754
0.000148296
0.000130184
9.08764e-05
7.00311e-05
6.2486e-05
5.93635e-05
5.71317e-05
5.43653e-05
5.40254e-05
5.46709e-05
5.45239e-05
5.5236e-05
5.65385e-05
5.67907e-05
5.77489e-05
5.90472e-05
5.99086e-05