/*--------------------------------*- C++ -*----------------------------------*\
| =========                 |                                                 |
| \\      /  F ield         | OpenFOAM: The Open Source CFD Toolbox           |
|  \\    /   O peration     | Version:  dev                                   |
|   \\  /    A nd           | Web:      http://www.openfoam.org               |
|    \\/     M anipulation  |                                                 |
\*---------------------------------------------------------------------------*/
FoamFile
{
    version     2.0;
    format      ascii;
    class       volScalarField;
    object      p_0;
    location    "9.156";
}
// * * * * * * * * * * * * * * * * * * * * * * * * * * * * * * * * * * * * * //

dimensions      [1 -1 -2 0 0 0 0];

internalField   nonuniform List<scalar> 
12225
(
99519.5
99481.6
99425.3
99353.3
99253.7
99140.5
99000.4
98849.5
98672.2
98495.5
98293.7
98093.3
97864.1
97633.2
97362.3
97075.5
96832.2
96236.3
99514.6
99479.4
99423.9
99352.5
99252.6
99139.9
98999.6
98849.3
98671.6
98495.9
98293.7
98093.9
97865.4
97634.5
97370.6
97097
96824.5
96333.8
99507.6
99475.4
99420.9
99349.5
99250.2
99138.2
98997.7
98849
98670.3
98496.1
98294.2
98095.3
97869.1
97638.6
97381
97117.9
96830.6
96383.8
99499.1
99469
99415.6
99344.3
99245.9
99134.7
98994
98848.2
98668.1
98496.9
98294.8
98097.8
97874.4
97646.2
97396.6
97143.1
96860.5
96491.8
99488.8
99460
99407.4
99336.5
99239.3
99128.7
98989
98845.1
98667.8
98494.4
98295.4
98099.6
97881.1
97656.6
97416
97169.6
96906.7
96625.8
99473.9
99447.4
99395.2
99325.2
99229.3
99119.5
98981.6
98838.9
98665.3
98493.4
98294.5
98102.6
97890
97672.3
97442.1
97211.1
96961.4
96706.6
99457.8
99429.6
99378.4
99309.5
99215.5
99106.4
98971.6
98828.9
98660.5
98488.8
98296.8
98105.6
97901.5
97689.4
97472.1
97254.2
97025.7
96794.8
99434.2
99409.1
99359.5
99291.9
99199.9
99091.5
98960.2
98817.3
98654.6
98481.2
98301.5
98109.3
97913.5
97706.7
97499.8
97288.1
97077.9
96865.8
99408.7
99386.9
99339.3
99273
99183.1
99075.6
98947.5
98805.2
98647.9
98474.7
98303.8
98112.3
97924.3
97722.9
97525.4
97321
97123.9
96926.8
99374.2
99357.3
99312.6
99247.9
99160.7
99054.6
98930.4
98789.8
98638.3
98467.4
98304.1
98114.5
97935.5
97740.9
97553.6
97359
97175
96992.4
99336.6
99318.7
99277.5
99214.8
99130.8
99027.1
98907.1
98769.8
98624.1
98457.6
98301.1
98116.9
97946.4
97761.2
97583.7
97402.1
97230.1
97063.1
99281.3
99268.2
99231.4
99171.2
99091.1
98990.4
98875.2
98742.6
98603.1
98443.6
98293.2
98118.6
97955.7
97783
97616
97448.9
97289.7
97137.7
99209.7
99202.2
99170.2
99113.8
99037.7
98941.7
98831.7
98706
98572.4
98424.2
98277.9
98117.9
97963
97804.6
97649.7
97497.9
97352.8
97215.7
99120.4
99117.4
99090.1
99038.3
98967
98876.8
98773.1
98655.6
98529.5
98392.7
98256.2
98110.7
97966.8
97823.2
97682.8
97546.8
97417.3
97295.7
99008.8
99010
98986.1
98939.3
98873.7
98790.9
98695
98587.2
98471.3
98348.2
98222.2
98091.6
97962.6
97835.2
97711.2
97592.1
97479.3
97374.1
98878
98875.3
98853.2
98811.3
98752.3
98677.9
98591.4
98495
98391.5
98282.7
98171.1
98057.3
97945
97835.3
97729.4
97628.5
97533.8
97446.1
98699.9
98702
98683.7
98647.8
98596.5
98531.9
98456.5
98373
98283.7
98190.7
98095.8
98000.7
97907.2
97816.6
97730.3
97649.2
97573.9
97505.2
98511.8
98507.3
98490.6
98460
98416.3
98361.3
98297.4
98226.9
98152.2
98075
97997.2
97920.3
97845.9
97774
97707.4
97645.6
97589.7
97539.9
98309.9
98316.9
98305.3
98279.9
98242.8
98195.9
98141.5
98082.1
98019.5
97955.7
97892.3
97830.5
97771.7
97716.8
97666.7
97621
97581.6
97548.3
98160.5
98159.4
98148.5
98126.3
98093.8
98052.9
98005.8
97954.7
97901.6
97848.1
97795.7
97745.7
97699
97656.7
97619.3
97587.3
97560.9
97540.5
98008.9
98024.5
98018.9
97999.9
97970.9
97934.3
97892.6
97847.7
97801.7
97755.9
97711.9
97670.8
97633.5
97600.8
97573.3
97551.3
97534.9
97524.4
97899
97919.3
97916.4
97899.5
97872.7
97839.1
97801.1
97760.8
97720
97680
97642.3
97607.8
97577.6
97552.2
97532.2
97517.8
97509.2
97506.3
97819.2
97838.8
97837.2
97821.5
97796.3
97764.8
97729.5
97692.5
97655.4
97619.7
97586.5
97557
97532
97512.1
97497.7
97489.1
97486.2
97489.1
97757.2
97778.4
97777.2
97762.4
97738.3
97708.4
97675
97640.3
97605.9
97573.1
97543.2
97517.3
97496.1
97480.2
97470
97465.6
97467
97474.1
97716.4
97734.7
97733.3
97718.8
97695.5
97666.6
97634.6
97601.5
97568.9
97538.2
97510.7
97487.4
97468.9
97455.9
97448.6
97447.2
97451.7
97461.9
97687.1
97703.8
97701.8
97687.5
97664.8
97636.6
97605.5
97573.4
97542.1
97513
97487.1
97465.6
97449
97438
97432.8
97433.5
97440.1
97452.5
97673.3
97683.2
97680.2
97665.9
97643.6
97616
97585.5
97554.1
97523.6
97495.5
97470.7
97450.4
97435.1
97425.4
97421.6
97423.8
97431.9
97445.5
97663.9
97670
97666.1
97651.7
97629.8
97602.6
97572.5
97541.6
97511.6
97484.1
97460
97440.4
97426
97417.1
97414.2
97417.4
97426.5
97441.2
97657.2
97661.6
97656.2
97643
97621.6
97594.8
97565
97534.4
97504.7
97477.5
97453.8
97434.6
97420.6
97412.3
97409.9
97413.6
97423.3
97438.8
97657.1
97658.7
97652.6
97639.3
97617.9
97591.2
97561.6
97531.1
97501.5
97474.5
97451
97432
97418.2
97410
97407.9
97411.8
97421.9
97437.8
90088.5
90091.3
90097.3
90106.3
90118.7
90134.2
90153.1
90175.4
90201.1
90230.2
90262.9
90299
90338.7
90382
90428.7
90479
90532.8
90590
90650.7
90714.7
90782.1
90852.9
90927.2
91004.7
91085.9
91170.7
91259.4
91351.8
91448.5
91551.9
91657.6
91767.5
91881.9
92000.8
92124.5
92252.9
92386.1
92524.5
92668.1
92816.9
92971
93130.3
93294.9
93464.9
93640.2
93820.6
94005.9
94196.2
94391.2
94590.7
94794.5
95002.7
95215
95431
95650.6
95873.2
96098.5
96326
96555.3
96785.5
97016.1
97246.1
97474.7
97700.9
97924
98142.8
98356
98562.4
98760.4
98948.5
99125.2
99289.2
99439.4
99574.3
99692.3
99792.1
99873
99934.5
99975.4
99994.8
99992.8
99969.5
99925.3
99859.8
99774
99669.9
99548.2
99410
99257.6
99093
98917.8
98734.7
98547
98353.1
98151.7
97945.4
97737.2
97529.5
97323.2
97117
96912
96710.4
96511.5
96308
96103
95896.1
95684.1
95476.1
95268.3
95062.9
94860.9
94662.8
94468.1
94277.6
94092.5
93911.2
93734
93566.4
93406.3
93260.4
93127.9
92963.3
92878.2
92728.7
92596.5
92465.6
92340.7
92210.8
92073.3
91919.1
91754.9
91583.7
91409
91232.7
91053.9
90866.6
90667.9
90463.8
90265.8
90085.5
89928.1
89794.7
89686.8
89602.6
89541.2
89498.5
89471.9
89457.6
89450
89447.5
89447.6
89448.9
89443.4
89428.1
89403.9
89386.2
89371.9
89321.3
89218
89097.3
88981.2
88878.8
88796.7
88718.2
88582.8
88415.5
88190.3
87951.9
87849.5
87763.3
87774
87949.2
88308
88818.7
89478.8
90332
91402.4
92580.3
93447.2
94553.7
90116.1
90118.9
90124.8
90133.8
90145.9
90161.3
90180
90202
90227.5
90256.4
90288.7
90324.6
90364.1
90407
90453.5
90503.5
90557.1
90613.9
90674.1
90737.6
90804.5
90874.9
90948.7
91025.7
91106.5
91191
91279.4
91371.9
91468.3
91569.3
91674.5
91784
91897.9
92016.3
92139.5
92267.4
92400.3
92538.1
92681.1
92829.3
92982.7
93141.4
93305.2
93474.5
93649.2
93828.9
94013.7
94203.7
94397.9
94596.6
94799.7
95007.2
95218.7
95434
95652.7
95874.5
96098.9
96325.5
96553.8
96783.2
97012.7
97241.6
97469.1
97694.3
97916.4
98134.2
98346.5
98551.9
98748.7
98935.5
99111.1
99273.9
99422.7
99556.5
99674
99773.5
99854.1
99915.3
99956
99975.5
99973.7
99951
99907.3
99842.1
99756.5
99652.5
99530.6
99391.9
99239.4
99075.2
98899.8
98715.6
98527.3
98334.7
98134.2
97927.8
97719.9
97512.2
97304.6
97100.2
96898
96696.6
96498.9
96289.3
96084.6
95879.9
95672.5
95464.7
95258
95053.2
94852.1
94655.2
94461.5
94272.6
94090.4
93912.2
93738.6
93574.9
93415.1
93272.1
93145.4
92989.5
92893.3
92752.8
92627.2
92501.5
92380.3
92254.8
92123.4
91972.8
91813
91645.8
91475.9
91304.7
91132.6
90951.4
90756.8
90555.7
90360.9
90183.3
90030
89900.5
89797.1
89717.7
89661.1
89622.7
89600.3
89590.2
89585.5
89585.4
89588.1
89592.6
89588.2
89574.1
89553.6
89541.5
89536.4
89492
89383.6
89257.4
89139.8
89038.9
88964.4
88898.2
88757.7
88593.5
88346.2
88081
87993.9
87898.8
87885.6
88051.1
88406.1
88909.2
89560.1
90406.1
91468.4
92627.5
93491.3
94601.2
90171.5
90174.3
90180
90188.8
90200.7
90215.7
90234
90255.6
90280.6
90309
90340.8
90376.2
90415.1
90457.7
90503.9
90553.4
90606.2
90662.1
90721.3
90784
90850.1
90919.4
90991.9
91068.1
91148
91231.6
91319.1
91410.5
91506
91605.7
91709.6
91817.7
91930.3
92047.4
92169.2
92295.7
92427.2
92563.9
92705.7
92852.8
93005
93162.4
93324.8
93492.8
93666.1
93844.5
94027.4
94218.2
94410.5
94607.6
94809.2
95015.1
95225
95438.7
95655.9
95876
96098.6
96323.4
96549.9
96777.4
97004.8
97231.5
97456.9
97680.1
97900.3
98116.3
98326.4
98529.4
98724
98908.5
99081.7
99242.3
99389.1
99521.1
99637
99735.5
99815.2
99875.7
99916.1
99935.5
99934
99911.8
99868.8
99804.3
99719.1
99615.2
99494.3
99356.6
99203.8
99039
98863.1
98677.8
98488.4
98296.1
98097
97890.7
97682.5
97477.7
97274
97070.2
96867.1
96663.7
96462.6
96257.9
96054.2
95851.1
95645.8
95439.6
95235.1
95033.2
94835
94640.8
94450
94264.7
94086.5
93913.7
93748.5
93591.2
93434.2
93295.8
93176.1
93031.8
92931.2
92803.9
92689.5
92573.5
92458.7
92341.2
92223.2
92080.2
91929.4
91769.9
91608.9
91447.8
91289.1
91120
90934.6
90739.6
90551.9
90381.5
90236.3
90116
90022.6
89953.4
89909
89880.5
89867.9
89869
89871.8
89877.1
89884.8
89895.6
89892.1
89879
89858.8
89859.8
89865.3
89838.1
89729.6
89592.7
89473.9
89379.7
89322.9
89279.3
89138.4
88990.5
88682.3
88358.3
88269.5
88192.4
88135.7
88276.8
88618.7
89105.9
89735.7
90565.1
91596.1
92695.5
93615.1
94688.1
90253.7
90256.3
90261.9
90270.4
90282
90296.6
90314.5
90335.5
90359.9
90387.6
90418.9
90453.8
90492.2
90534.1
90579.4
90627.8
90679.3
90734.2
90792.3
90853.6
90918.1
90985.8
91057
91131.6
91209.9
91291.8
91377.5
91467.1
91560.6
91658.2
91760
91866.2
91976.8
92092.1
92212
92336.9
92466.7
92601.6
92741.6
92886.8
93037.3
93193
93353.8
93520
93691.4
93868.1
94049.4
94237.2
94427.9
94623
94822.6
95026.3
95233.9
95445.2
95659.9
95877.6
96097.8
96319.8
96543.5
96768
96992.5
97216.2
97438.6
97658.8
97875.9
98088.8
98295.7
98495.4
98686.5
98867.7
99037.8
99195.7
99340.2
99470
99583.9
99680.5
99758.4
99817.4
99856.9
99875.8
99874.3
99852.4
99810.2
99746.8
99662.6
99559.5
99439
99301.5
99149.6
98986.4
98811.9
98627
98436.8
98241.9
98040.1
97834.3
97629.6
97427.3
97225.7
97021.4
96817.9
96615.7
96414.8
96214
96012.1
95809.1
95605.2
95402
95201.1
95003.2
94808.9
94619
94433.6
94254.1
94081.8
93917
93762.2
93614.3
93468.3
93333.7
93219.9
93096.2
92986.8
92877
92781.9
92679.3
92573.5
92466.9
92368.5
92239.9
92104.3
91956.3
91808.3
91661.4
91520.5
91371.3
91200.6
91014.7
90835.2
90676.5
90545.4
90440.3
90362.6
90308.3
90281.4
90271
90270.8
90291.3
90310.6
90326.1
90340.2
90356.8
90358.1
90347
90329.4
90340.1
90348.5
90338.2
90251.9
90107.1
89988.8
89904.7
89859.3
89818.7
89700.8
89592.3
89198.5
88798
88641.9
88607.5
88521.2
88630.5
88949.8
89413.4
90013.7
90810
91793.5
92838.7
93784.5
94808.1
90361.8
90364.1
90369.8
90377.9
90389.1
90403.3
90420.5
90441
90464.7
90491.8
90522.3
90556.1
90593.3
90633.7
90677.4
90724.7
90775.4
90829
90885.5
90944.7
91007.1
91072.8
91141.8
91214.4
91290.5
91370.1
91453.4
91540.5
91631.5
91726.6
91825.9
91929.9
92038.5
92152.1
92269.4
92391.7
92519.1
92651.6
92789.3
92932.2
93080.4
93233.7
93392.2
93555.7
93724.6
93898.9
94077.8
94262
94450.2
94642.6
94839.3
95040.2
95244.9
95453.1
95664.6
95879
96095.7
96314.4
96534.5
96755.4
96976.3
97196.3
97414.9
97631
97843.8
98052.2
98254.9
98450.4
98637.3
98814.4
98980.9
99135.5
99277
99403.9
99515.1
99609.3
99685.2
99742.1
99780.4
99798.8
99796.5
99774.5
99732.9
99670.9
99588.1
99485.9
99366.1
99230.1
99080.1
98918.2
98745.5
98563.2
98373.1
98175.9
97972
97766.3
97563.4
97363.4
97165.3
96960.9
96759.4
96557.7
96357.5
96158.2
95956.9
95755.2
95554.8
95355.4
95158.5
94965.1
94774.7
94589.9
94411.6
94239.9
94075.5
93921.4
93778.1
93643.1
93516.4
93389.6
93282.5
93176.4
93070.5
92975.7
92902.8
92818
92726
92632.4
92553.9
92448.9
92333.6
92204.9
92076.7
91948.9
91822.7
91693.7
91543.9
91378.3
91211.6
91067
90954.1
90868.5
90815.8
90782.6
90772.7
90789.9
90803.7
90843.1
90891.5
90924.4
90950.3
90972
90984.3
90979.9
90967.6
90982.6
90988.7
90986
90941.6
90805.2
90692.7
90611.6
90550.2
90476.5
90387.8
90325.9
89862.1
89391.6
89145.1
89136.2
89028.5
89111.5
89402.2
89833.7
90398.2
91155.9
92090.7
93066.3
93992
94972.3
90495.1
90496.9
90502.1
90510
90520.7
90534.4
90551.2
90570.8
90593.8
90619.8
90649
90681.1
90716.3
90754.8
90797.1
90843.2
90892.5
90944
90998
91055.2
91115.2
91178.5
91245.1
91315.1
91388.6
91465.5
91546
91630.2
91718.3
91810.5
91907
92007.9
92113.6
92224.3
92338.9
92458.7
92583.5
92713.4
92848.4
92988.6
93133.8
93284.2
93439.7
93600.3
93766.1
93937
94112.4
94293.3
94477.6
94666.4
94859.4
95056.5
95257.5
95461.8
95669.3
95879.7
96092.3
96306.8
96522.6
96739.2
96955.7
97171.4
97385.4
97596.8
97804.6
98007.8
98205.3
98395.8
98577.9
98750.2
98912.2
99062.5
99200.1
99323.7
99431.9
99523.3
99596.8
99651.7
99688
99705.8
99703.5
99681.2
99639.5
99577.8
99496.2
99395.6
99277.6
99143.7
98995.5
98834.8
98664.4
98485.2
98295.6
98097.7
97895.4
97692.7
97491.5
97292.4
97094.8
96892.9
96691.1
96489.1
96289.3
96091.7
95892.8
95693.4
95496.2
95300.7
95108.6
94920.6
94735.9
94557.6
94386.8
94223.2
94068.6
93926.4
93795.6
93676.6
93569.3
93456.1
93366.2
93275.3
93191.4
93113.2
93053.5
92991.3
92919.5
92844.6
92778.8
92704.4
92613
92515.8
92416.8
92314.9
92198.4
92084
91952.1
91814.8
91676
91551
91460.3
91393.7
91366.8
91366.8
91375.9
91426.4
91469.5
91517.6
91601.3
91662.4
91707.8
91743.8
91766.6
91771.9
91766.1
91776.1
91787.7
91793.2
91786.7
91678.4
91570.1
91469
91360.6
91241.1
91155.1
91110.9
90629.5
90122.9
89831.4
89790.5
89653.3
89718.8
89979.1
90373.1
90889.9
91605.3
92466.4
93370.3
94264.9
95194.5
90652.1
90653.8
90658.5
90665.8
90675.9
90688.7
90704.3
90723.3
90744.8
90769.4
90796.9
90827.4
90861.2
90898.4
90938.8
90982.3
91028.7
91078.1
91129.8
91184
91241.2
91301.9
91365.7
91432.9
91503.3
91577.2
91654.7
91735.9
91820.9
91910
92003.3
92100.9
92203.1
92309.6
92421.4
92538.2
92659.9
92786.6
92918.4
93055.2
93197.1
93344.2
93496.5
93653.8
93815.9
93983.1
94154.7
94330.7
94510.9
94695.3
94884
95076.5
95272.8
95472.5
95675.1
95880.5
96088.2
96297.5
96508.2
96719.6
96930.9
97141.4
97350
97556
97758.1
97955.6
98147.4
98332.4
98509.2
98676.5
98833.3
98978.5
99111.3
99230.6
99335.2
99423.6
99494.7
99547.7
99582.3
99598.8
99596.5
99574.4
99532.2
99470.3
99389.2
99289.5
99173
99041.9
98897.2
98739.7
98571.6
98394.1
98206.9
98012.1
97813.3
97612.9
97411.2
97211.2
97009.7
96812.2
96613.1
96412.3
96213.6
96018.3
95822.2
95625.6
95432
95240.5
95053.6
94871.8
94694.3
94523.9
94361.9
94208.2
94064.6
93934
93816.4
93713.5
93621.9
93532.9
93463.5
93394.6
93338.2
93278.3
93232
93197
93151.3
93104.8
93045.6
92999.7
92939.3
92885.4
92810.7
92733
92630.3
92533.8
92426.4
92317.3
92218.6
92122.9
92063.2
92018.9
92008.5
92048.5
92086.7
92163.7
92257.8
92318.3
92428.4
92532.3
92603.4
92672.2
92707.7
92711.4
92708.9
92720.7
92752.5
92771
92774.5
92698.4
92578.6
92426.1
92265.4
92118
91998.4
91921.2
91477.7
90991.2
90695.9
90575.1
90401.2
90460.4
90688.3
91035.8
91483.7
92132.7
92914.5
93752.3
94590.6
95469
90833.2
90833.9
90838.2
90844.8
90853.8
90865.3
90879.7
90897
90917.2
90940.3
90966.2
90995.2
91027.9
91063.6
91101.7
91142.5
91185.8
91231.4
91279.6
91330.7
91385.1
91442.7
91503.6
91567.7
91635
91705.7
91779.7
91857.3
91938.7
92023.9
92113.4
92207.1
92305.2
92407.6
92516
92629.1
92747
92870
92998.2
93131.4
93269.6
93413.2
93561.8
93715.3
93873.8
94037
94204.2
94375.5
94550.9
94730.3
94913.7
95101
95291.9
95486.1
95683.2
95882.8
96084.6
96287.9
96492.4
96697.5
96902.7
97107
97309.5
97509.2
97705.2
97896.3
98081.8
98260.6
98431.6
98593.6
98745.1
98885.1
99012.6
99127.1
99227.3
99312
99380
99430.7
99463.9
99479.1
99476.1
99453.7
99411.5
99349.8
99269.5
99171.1
99056.1
98927.1
98785.8
98632.7
98468.3
98293.9
98110.1
97919.6
97725.1
97526.2
97323
97124.4
96924.7
96727.3
96530.3
96331.2
96133.7
95940.6
95747.5
95555.2
95366.6
95180.4
94999.2
94823.9
94653.5
94492.1
94340.4
94197.9
94066.2
93948.1
93845.2
93756.5
93681.8
93619.3
93568.3
93529.1
93497.9
93471.3
93442.1
93434
93417.4
93396.9
93355.9
93337.3
93307.2
93294.6
93234.9
93175.7
93098.5
93029.4
92966.9
92889.8
92837.2
92779.9
92755.9
92751.7
92755.6
92825.6
92905.9
92997.2
93145.5
93245.6
93364.5
93514.8
93632.1
93740.5
93802.5
93804
93801.7
93812.9
93869.6
93911.1
93904.7
93835.3
93702.1
93488.4
93290.3
93134.9
92954.8
92784.2
92426.6
91999.1
91710.1
91476.8
91293.9
91343.4
91532.5
91814.5
92180.2
92739.3
93446.9
94211.5
94966.2
95781.7
91036.1
91036.3
91039.9
91045.6
91053.5
91063.9
91077.1
91093.1
91111.9
91133.4
91157.6
91184.8
91214.9
91247.4
91282.4
91320
91359.8
91401.8
91446.5
91494.4
91545.5
91599.8
91657.3
91717.8
91781.5
91848.5
91918.8
91992.6
92070.2
92151.9
92237.6
92327.6
92421.9
92520.2
92623.4
92731.5
92844.8
92963.4
93087.4
93216.4
93350.7
93490
93634.5
93783.9
93938.1
94097
94259.9
94426.7
94597.4
94771.7
94949.4
95130.6
95315.2
95503.2
95694.1
95887.4
96082.8
96279.4
96477
96675
96872.8
97069.8
97265.2
97458
97647.1
97831.6
98010.3
98182.3
98346.7
98502.5
98648.3
98782.9
98905.1
99014.3
99109.8
99190.5
99255.2
99303.4
99334.5
99348.3
99344.2
99321.3
99279
99217.8
99138.5
99042.2
98929.8
98803.6
98665.6
98516.6
98356.4
98185.4
98005.8
97819.8
97629.3
97432.9
97229.3
97032.6
96834.1
96638.3
96444.4
96248.5
96051.8
95860.9
95671.6
95483.5
95299.6
95119.7
94945
94776.9
94614.8
94462.5
94321.1
94190.9
94073.9
93971
93883.4
93809.5
93752.3
93714.6
93683.5
93674.2
93670.1
93695.2
93685.2
93695.4
93710.9
93710.8
93706.1
93718.8
93708
93722
93686.1
93655.7
93622.3
93583.2
93579.2
93541.5
93535.5
93521.6
93529
93571.6
93604.4
93692.3
93820.7
93932.4
94114.4
94281.7
94413.6
94584.6
94769.1
94931.5
95015.9
95042
95049.7
95037.5
95111.9
95190.4
95191
95081.6
94932.8
94703.8
94486.6
94328.8
94068.8
93754
93532.6
93153.6
92837
92520.8
92335.4
92344.5
92493.4
92704
92991.5
93451.1
94058.5
94728
95403.1
96135.8
91259.5
91259.9
91262.8
91267.7
91274.6
91284
91295.9
91310.2
91327.2
91346.7
91368.7
91393.1
91419.9
91448.7
91479.9
91513.5
91549.3
91587.7
91629
91673.6
91721.4
91772.2
91826
91882.8
91942.7
92005.8
92072.3
92142.3
92215.8
92293.1
92374.4
92459.9
92550.2
92643.1
92741.2
92844.5
92953.3
93067.4
93186.6
93310.9
93440.4
93574.9
93714.4
93858.9
94008.6
94162.5
94320.7
94483.1
94649.1
94818.4
94990.7
95165.6
95343.2
95523.9
95707.6
95894
96082.7
96272.4
96462.8
96653.3
96843.2
97032.1
97219.3
97404.1
97585.6
97762.6
97934.1
98099.1
98256.6
98405.6
98545
98673.5
98790.3
98894.2
98984.8
99061.3
99122.5
99167.8
99196.6
99208.7
99203.8
99180.7
99138.5
99077.7
98999.7
98905.7
98796.4
98673.8
98539.7
98394.8
98238.6
98071.3
97896.1
97714.6
97527.5
97333.7
97134.7
96939.2
96742.2
96548.3
96359.5
96165.8
95968.7
95781.3
95595.1
95410.8
95231.9
95058.1
94890.1
94729.2
94576.3
94434.4
94304.5
94187.1
94085.4
93999.7
93931
93873.4
93834.1
93819.8
93810.7
93828.6
93852.7
93915.7
93936.3
93967.7
94015.2
94045.7
94081.4
94126.2
94137.2
94173.2
94176.1
94183.5
94206.6
94197.8
94249.5
94263.5
94303.3
94339.9
94373.5
94460.6
94535.4
94636
94808.1
94962
95159.6
95391.6
95573.3
95749.7
95972.7
96200.1
96326.6
96411.4
96417.4
96385.9
96478.4
96583.2
96617.9
96467.1
96257.9
96053.6
95831
95677.6
95345.5
94901.8
94843
94455.9
94079.3
93768.2
93561
93465.7
93563.2
93698.6
93916.9
94247.3
94737.7
95312.7
95898
96535.1
91502.7
91503.1
91505.4
91509.4
91515.3
91523.3
91533.6
91545.9
91560.5
91577.4
91596.3
91617.3
91640.5
91665.6
91693
91722.6
91754.5
91789.2
91826.9
91867.7
91911.6
91958.4
92008
92060.7
92116.5
92175.5
92237.8
92303.5
92372.6
92445.2
92521.4
92601.3
92684.7
92774.7
92869.3
92968.8
93073.1
93182.6
93296.8
93415.8
93539.9
93669.2
93803.5
93942.5
94086.4
94234.8
94387.7
94544.9
94705.8
94870
95037
95206.3
95377.3
95550.3
95725.7
95903.9
96084.7
96266.9
96449.8
96632.6
96814.6
96995.2
97174
97349.9
97522.7
97691.6
97855.2
98012.8
98163.1
98305
98437.6
98559.8
98670.7
98769.3
98855
98927
98984.5
99026.6
99052.8
99062.9
99056.7
99033.3
98991.8
98932.3
98856.5
98765.3
98659.2
98540.4
98410.9
98270.5
98118.5
97955.6
97785
97607.7
97423.8
97234
97040.2
96847.4
96653.2
96461.2
96279.6
96085.6
95886.6
95706.5
95524
95344.4
95170.2
95001.7
94840
94686.2
94542.7
94411.7
94294.5
94189.5
94102.8
94033.7
93981.3
93948.1
93932.4
93935.3
93950.7
93992.2
94043.9
94129.9
94193.1
94258.2
94332.9
94401.9
94475.4
94550.7
94599.9
94663.2
94710.8
94750.3
94820.2
94850.2
94940.7
95018.1
95101.8
95205
95275
95406.2
95535.4
95650.5
95858.8
96063.9
96285.7
96558.3
96807.1
97028.2
97252.2
97502.4
97706.3
97902
97905.9
97872
97968.9
98060.2
98095.3
97986.6
97707
97501.8
97272
97124.1
96755.1
96284.1
96325.2
95886.7
95453.2
95124.6
94987.4
94728.3
94739.3
94799.4
94944.4
95132.4
95500.1
95973.1
96458.8
96979.8
91763.7
91763.8
91765.5
91768.5
91773.1
91779.4
91787.5
91797.5
91809.2
91822.9
91838.2
91855.3
91874.4
91895.6
91919.1
91944.9
91973.1
92004.1
92038
92074.7
92114.2
92156.5
92201.7
92250.1
92301.7
92356.6
92414.7
92476.2
92541.1
92609.5
92681.5
92757.4
92837.6
92922.4
93012.2
93106.8
93205.6
93309.7
93418.5
93532.1
93650.5
93774.2
93902.8
94036.3
94174.3
94316.7
94463.4
94614.2
94769.1
94927.6
95089
95252.7
95417.8
95583.7
95750.8
95920.1
96091.9
96265.5
96439.8
96614.1
96788
96960.1
97130
97297.3
97461.2
97621.2
97776.2
97925.6
98068.3
98202.9
98328.6
98444.2
98548.9
98641.9
98722.6
98790.2
98843.9
98882.9
98906.6
98914.9
98907.7
98883.9
98842.6
98784.1
98710.6
98622.8
98520.7
98406.7
98282.6
98147.2
98000
97842
97676.4
97503.8
97323.7
97138
96948.8
96759.3
96569.1
96379.9
96196.8
96009.2
95815.7
95637.5
95458.6
95282.5
95112.1
94949.9
94795.8
94650.9
94517.6
94398.1
94295.1
94201.9
94131
94077.9
94042.9
94029.1
94036.6
94063.3
94104.9
94166.9
94241.6
94357.1
94460.6
94563
94669.7
94777.3
94888.4
94993.3
95091
95184.3
95267.4
95347.7
95450.2
95528.5
95642.9
95779.1
95899.9
96066.3
96192
96371.5
96569.1
96716.2
96960.4
97215.5
97481.4
97782.1
98083.3
98384.3
98633.7
98864.5
99126.2
99426.2
99500.1
99482.7
99540.3
99600.1
99554.3
99527.6
99264.8
99025.5
98793.1
98635.2
98283.4
97844.9
97883.7
97409.5
96928.5
96532.8
96403.9
96077.5
95981
95993.5
96059.1
96111.1
96344.6
96684.9
97077.9
97469.1
92041
92040.4
92041.2
92043
92046
92050.3
92055.9
92062.9
92071.5
92081.5
92092.9
92106.1
92121.1
92138.3
92157.6
92179.2
92203.3
92230.1
92259.6
92291.8
92326.7
92364.5
92405.3
92449.3
92496.5
92547.1
92601.1
92658.5
92719.4
92784
92852.2
92924.5
93000.9
93081.6
93167
93257
93351.3
93450.1
93553.5
93661.2
93773.8
93891.3
94014
94141.4
94273.4
94409.6
94549.8
94693.7
94841.2
94992.6
95147.3
95304.6
95463.9
95623.5
95782.9
95943.3
96105.7
96269.9
96435
96600.2
96765.1
96928.6
97089.5
97247.7
97402.5
97553.6
97700
97840.5
97974.8
98101.6
98220
98329
98427.4
98514.6
98590.2
98653.6
98703.4
98739.2
98760.6
98767.6
98759.8
98736.2
98695.8
98638.9
98567.2
98482.2
98384
98275.2
98157.2
98027.9
97886.5
97734
97573.4
97405.6
97229.8
97048.5
96863.3
96677.5
96491.1
96305.2
96122.3
95939.4
95753.4
95574.5
95399.5
95227.6
95060.8
94905.4
94759.6
94623.7
94500.2
94393.1
94301.9
94226.5
94170.9
94136
94118.4
94121.8
94149.3
94198.7
94268.1
94353.2
94454.8
94590
94727.4
94866.4
95009.5
95154.3
95302.7
95440.9
95584.9
95714.6
95834.5
95966.2
96102.8
96231.2
96374.4
96553.8
96707.9
96919.7
97105.8
97331.6
97593.6
97800
98083.9
98396.6
98716.3
99055.2
99393.4
99768.6
100084
100310
100597
100906
101091
101127
101140
101178
101043
101037
100842
100586
100372
100172
99884.5
99468.5
99449.7
98990
98462.2
98036.2
97778
97536.8
97304.5
97273.3
97228.6
97164.3
97242.6
97445.7
97741.4
98005.5
92332.7
92331.4
92331.1
92331.3
92332.2
92334
92336.8
92340.5
92345.4
92351.5
92358.8
92367.8
92378.6
92391.4
92406.4
92423.7
92443.5
92465.8
92490.6
92517.9
92548
92581
92617.1
92656.4
92699.1
92745.4
92795.3
92848.8
92906.1
92967
93031.8
93100.8
93173.9
93251.2
93332.8
93418.7
93508.6
93602.7
93701
93803.4
93910.1
94021.3
94137.4
94258.3
94383.7
94513.5
94647.3
94784.3
94924.4
95068.4
95215.5
95364.9
95516.9
95670
95822.1
95974
96127.3
96282.1
96437.3
96592.6
96748
96902.4
97054.1
97203.2
97348.9
97490.5
97627.9
97760
97885.7
98004.2
98114.9
98217
98309.2
98390.7
98461
98520.1
98566.6
98599.3
98618.4
98624
98615.5
98592
98552.9
98498.5
98429.9
98348.5
98254.3
98150.4
98038.2
97915.4
97780.3
97634
97478.7
97315.8
97144.5
96967.2
96786.5
96604.7
96422.8
96241.2
96061.1
95881.6
95701.9
95520.1
95354.1
95188.3
95026.5
94877.2
94740.1
94613.4
94500
94402.3
94321.7
94260.2
94219.2
94201.7
94204.6
94227.5
94272.9
94341.8
94436.9
94547.7
94677.3
94824.1
94991.8
95168.8
95346.1
95525.6
95710.7
95885.6
96075.3
96239.4
96408.7
96594.3
96761.8
96934.6
97115.4
97334.2
97526.4
97777
98022.5
98290.9
98603
98879.7
99206.7
99586.1
99962.1
100353
100729
101159
101539
101797
102101
102375
102629
102738
102738
102742
102614
102560
102419
102181
101989
101735
101494
101101
100951
100612
100055
99590.2
99231.7
99147.3
98756.5
98634.9
98454.2
98259.3
98179.2
98247.8
98440.1
98591
92638.4
92636.1
92634.4
92632.7
92631.2
92629.8
92629.2
92629.6
92630.3
92632
92634.9
92639.3
92645.6
92653.8
92664.1
92676.8
92691.9
92709.7
92729.9
92752.7
92778.2
92806.4
92837.8
92872.4
92910.6
92952.3
92998
93047.5
93101.1
93158.6
93220.2
93285.9
93355.8
93429.9
93507.9
93589.9
93675.8
93765.6
93859
93956.4
94057.8
94163.1
94272.9
94387.6
94506.1
94628.6
94755.9
94886.5
95018.8
95154.8
95294.6
95436.4
95580.1
95725.5
95870.1
96013.7
96157.8
96303.1
96448.5
96593.6
96739
96884
97026.5
97165.9
97302.3
97434.7
97562.6
97685.6
97802.8
97913.5
98016.4
98111.1
98197
98273
98338.1
98392.6
98435.9
98466.1
98483.6
98488.3
98479.3
98455.8
98417.8
98365.5
98300.1
98223.2
98134.6
98036.2
97929.8
97813.2
97684.6
97544.6
97394.9
97237.2
97071.2
96898.1
96721.9
96544.8
96367.4
96190.5
96014.1
95837.8
95661.6
95485.8
95319.7
95160.4
95006
94862.5
94732.1
94614.8
94511.9
94425.3
94357.1
94308.9
94280.7
94276
94297.8
94341.4
94407.6
94495.1
94609.3
94746.9
94900.1
95066.1
95259.8
95468.3
95678.5
95892.6
96113.3
96324.5
96556.7
96756.8
96976.5
97213.1
97401.6
97614.3
97840.2
98092.2
98327.3
98616.7
98920.4
99232
99594.1
99941.8
100320
100758
101197
101644
102065
102536
102948
103267
103588
103863
104138
104303
104311
104276
104217
104132
104021
103822
103631
103328
103084
102719
102385
102252
101700
101165
100768
100641
100242
100016
99704.5
99376.8
99143.2
99061.6
99145.7
99216.6
92957.2
92953.7
92950.3
92946.5
92942.4
92937.8
92933.1
92928.9
92925.4
92922.3
92920.3
92919.6
92920.7
92923.9
92929.3
92937
92947.2
92960.1
92975.8
92994.1
93015.2
93039.1
93066
93096.3
93130.1
93167.1
93208.7
93254.3
93304.1
93357.8
93415.8
93478.1
93544.7
93615.5
93690.3
93768.9
93851
93936.8
94026.2
94119.1
94215.8
94315.9
94419.9
94528.5
94641.2
94757
94876.4
94999.3
95124.6
95253.1
95385
95518.5
95653.6
95790.6
95927.5
96063.4
96199.1
96334.9
96470.2
96605
96740.2
96875.4
97008.6
97138.7
97265.4
97388.4
97507.1
97620.7
97728.9
97831.2
97926.8
98014.2
98093.6
98164.1
98224.4
98274.6
98314.6
98342.4
98357.9
98362
98353.5
98330.9
98294.8
98245.2
98183.2
98110.3
98027.7
97935.6
97834.9
97724.1
97602.1
97468.7
97325.3
97173.1
97012.8
96845
96673.5
96501.6
96328.9
96155.9
95983.1
95810.3
95638.4
95467.8
95303.1
95147.6
95000.9
94865.4
94741.8
94631.7
94537.2
94460.9
94403.4
94369.3
94355.9
94365.9
94400.3
94461.2
94547.6
94655.2
94786.2
94946.5
95122.2
95314.9
95529.9
95761.7
96002.9
96249.4
96501.1
96746.8
97014
97257.8
97526.3
97800.4
98012.9
98272.2
98552.7
98821.8
99108.8
99431
99777.5
100136
100542
100966
101405
101885
102394
102886
103362
103867
104293
104678
105027
105325
105612
105809
105833
105782
105794
105711
105639
105479
105251
104914
104620
104280
103835
103841
103347
102751
102264
101969
101668
101334
100927
100496
100119
99873.1
99833.4
99795.4
93289.7
93284.1
93277.3
93272.3
93265.5
93256.9
93247.1
93237.4
93228.5
93220.4
93213.1
93207.1
93202.8
93200.5
93200.5
93203
93208.1
93216.1
93226.9
93240.7
93257.5
93277.2
93299.9
93326.1
93355.8
93389.2
93426.6
93468.1
93513.7
93563.9
93618.5
93677.4
93740.7
93808.2
93879.6
93954.7
94033.4
94115.4
94200.9
94289.9
94382.3
94477.8
94576.8
94679.9
94786.2
94895.2
95008.2
95124.7
95242.4
95362.5
95487
95613.8
95740.5
95867.8
95995.7
96123.5
96251.1
96378.2
96504.3
96629.2
96754
96879.1
97002.3
97122.3
97239.5
97352.9
97462.3
97567.1
97666.5
97760.4
97848.5
97929.2
98002
98067
98122.7
98168.7
98205.9
98232
98245.8
98249
98241.1
98220.1
98186.1
98139.8
98081.8
98013.5
97936.5
97850.8
97755.7
97650.7
97534.9
97408.8
97272.5
97127
96973.1
96811.4
96645.1
96477.9
96309.6
96140.3
95971.3
95802
95633.8
95468.6
95308.3
95157.4
95016.9
94887.2
94771
94668.2
94582.5
94515.6
94466.4
94442.4
94442.7
94465.7
94512.8
94586.3
94689.5
94815.5
94966.4
95144.1
95341.3
95556.2
95792.5
96045.3
96313.3
96586.9
96866.1
97143.8
97442.6
97730.5
98043.3
98342.6
98592.4
98904.9
99223.8
99505.5
99853.7
100210
100587
101004
101433
101928
102424
102947
103518
104039
104581
105114
105571
106005
106386
106704
107010
107229
107269
107235
107297
107218
107209
107085
106782
106438
106071
105762
105321
105305
104894
104290
103712
103264
102958
102563
102088
101580
101078
100686
100502
100304
93640.7
93635.7
93629.6
93617.4
93603.7
93589.2
93573.1
93556.2
93540
93525.1
93511.7
93499.9
93490
93482
93476.4
93473.4
93473.4
93476.4
93482.5
93491.8
93504.2
93520
93539.1
93561.7
93587.9
93617.7
93651.4
93689.3
93731.4
93777.9
93828.8
93884.2
93944
94007.9
94075.6
94147.3
94222.4
94300.9
94382.7
94467.9
94556.3
94647.6
94742.1
94840.1
94940.9
95044.2
95151.1
95261.1
95372.7
95486.1
95602.2
95720.6
95839.6
95958.7
96077.8
96197
96315.9
96433.8
96550.5
96666.4
96781.9
96896.8
97010.3
97120.5
97227.4
97331.1
97431
97526.9
97618.1
97703.9
97784.2
97858.6
97925.3
97984.7
98036
98078.1
98112.1
98136.7
98149.7
98152.8
98145.6
98126.6
98095.1
98052.3
97998.4
97935.2
97863.3
97783.6
97694.4
97595.1
97485.8
97366.7
97238.2
97100.5
96954.3
96799.7
96639.2
96476.7
96312.5
96146.8
95981.2
95816
95651.8
95491.1
95335.8
95189.9
95054.8
94928.8
94815.6
94717.5
94638.7
94583
94545.8
94530
94538.3
94570.6
94630.7
94716.7
94833.2
94975
95142
95337.1
95551.9
95783.8
96041.8
96314
96601.1
96899.4
97201.4
97508.9
97836.6
98166.9
98511.5
98835.9
99131.9
99488.9
99820.4
100127
100530
100920
101335
101816