/*--------------------------------*- C++ -*----------------------------------*\
| =========                 |                                                 |
| \\      /  F ield         | OpenFOAM: The Open Source CFD Toolbox           |
|  \\    /   O peration     | Version:  dev                                   |
|   \\  /    A nd           | Web:      http://www.openfoam.org               |
|    \\/     M anipulation  |                                                 |
\*---------------------------------------------------------------------------*/
FoamFile
{
    version     2.0;
    format      ascii;
    class       surfaceScalarField;
    object      phi;
    location    "9.156";
}
// * * * * * * * * * * * * * * * * * * * * * * * * * * * * * * * * * * * * * //

dimensions      [1 0 -1 0 0 0 0];

internalField   nonuniform List<scalar> 
24170
(
1.74114e-06
1.84486e-06
4.68337e-07
1.33611e-06
-2.33527e-07
7.83653e-07
-6.67398e-07
5.34808e-07
-1.0651e-06
5.20967e-07
-1.21224e-06
2.90183e-07
-1.57864e-06
5.29423e-07
-1.54659e-06
1.46089e-07
-1.88013e-06
5.2551e-07
-1.65192e-06
-2.52461e-08
-1.94138e-06
5.02634e-07
-1.5362e-06
-1.88191e-07
-1.71262e-06
3.98106e-07
-8.9838e-07
-5.96653e-07
-5.60614e-07
-1.23932e-07
2.3402e-06
-2.69444e-06
3.17017e-06
-5.88054e-07
2.59077e-06
7.97605e-07
3.38968e-06
2.53752e-06
2.21973e-06
2.60331e-06
1.33457e-06
1.77597e-06
5.12348e-07
1.48435e-06
2.58419e-08
1.15549e-06
-5.26569e-07
1.01327e-06
-9.31677e-07
1.12469e-06
-1.19164e-06
6.1282e-07
-1.49899e-06
1.0525e-06
-1.46165e-06
1.68577e-07
-1.61449e-06
8.96079e-07
-1.23819e-06
-3.22091e-07
-1.30182e-06
7.09709e-07
-6.04046e-07
-1.05474e-06
-8.50282e-07
3.61194e-07
-3.44887e-08
-3.29681e-06
-9.30869e-08
-2.96166e-07
3.37301e-06
-6.67393e-07
4.12081e-06
2.8779e-06
3.36438e-06
3.46356e-06
2.7231e-06
2.53167e-06
1.98056e-06
2.36387e-06
1.42012e-06
1.87657e-06
7.20143e-07
1.89871e-06
4.79562e-07
1.57338e-06
7.44269e-08
1.24352e-06
-1.76164e-07
1.54372e-06
-3.66251e-08
2.82635e-07
-3.49202e-07
1.47239e-06
2.07373e-08
-4.2525e-07
-3.86935e-07
1.38723e-06
3.86461e-08
-1.21231e-06
-4.39655e-07
1.10103e-06
-2.62307e-07
-3.22495e-06
-6.40352e-07
3.3163e-07
3.31437e-06
-3.53056e-07
4.40576e-06
3.24489e-06
4.1934e-06
3.78563e-06
3.62321e-06
3.22466e-06
3.22142e-06
2.9119e-06
2.56378e-06
2.70809e-06
2.43809e-06
2.22448e-06
1.82022e-06
2.41708e-06
1.73666e-06
1.57259e-06
1.28451e-06
2.25755e-06
1.15979e-06
6.84374e-07
7.19835e-07
2.20158e-06
6.99729e-07
-1.15745e-07
1.12248e-07
2.2725e-06
1.67116e-07
-9.74738e-07
-4.28963e-07
1.98545e-06
-4.1063e-07
-2.95678e-06
-1.85828e-06
2.04375e-06
3.03022e-06
-1.33829e-06
4.61014e-06
4.25161e-06
4.87659e-06
3.63235e-06
4.14341e-06
4.08655e-06
4.12537e-06
3.08463e-06
3.24549e-06
3.77265e-06
3.2985e-06
2.38606e-06
2.53462e-06
3.42379e-06
2.57809e-06
1.7958e-06
1.93201e-06
3.1881e-06
1.76643e-06
1.1506e-06
1.27853e-06
3.00256e-06
1.104e-06
3.74021e-07
5.33051e-07
3.16853e-06
4.36974e-07
-5.59441e-07
-1.11913e-07
2.85411e-06
-7.20257e-07
-2.03864e-06
-2.28231e-06
3.8967e-06
2.48164e-06
-1.46926e-06
4.71945e-06
5.23812e-06
4.71851e-06
3.74711e-06
3.85505e-06
5.08108e-06
3.84799e-06
3.25243e-06
2.98268e-06
4.8312e-06
2.98155e-06
2.61601e-06
2.33279e-06
4.33118e-06
2.28709e-06
2.12757e-06
1.78648e-06
3.99527e-06
1.65318e-06
1.60997e-06
1.33765e-06
3.65453e-06
1.21686e-06
8.36262e-07
9.6567e-07
3.77081e-06
7.16174e-07
3.99363e-08
5.30741e-07
3.3864e-06
-7.75902e-07
-3.96116e-07
-6.61689e-07
4.11932e-06
1.84898e-06
3.03992e-07
5.52296e-06
6.10906e-06
5.14845e-06
4.2319e-06
4.20044e-06
6.158e-06
3.9827e-06
3.63219e-06
3.23852e-06
5.77515e-06
3.04459e-06
3.04903e-06
2.46161e-06
5.18494e-06
2.32501e-06
2.56686e-06
1.90253e-06
4.74346e-06
1.76799e-06
2.09303e-06
1.61139e-06
4.16957e-06
1.40388e-06
1.41506e-06
1.37822e-06
4.16809e-06
9.28888e-07
8.69235e-07
8.94239e-07
3.79221e-06
-2.97908e-08
8.97956e-07
4.83413e-07
3.96579e-06
2.5995e-06
9.68592e-08
4.38562e-06
6.75408e-06
4.09258e-06
4.59641e-06
3.44128e-06
6.8957e-06
3.17898e-06
4.00785e-06
2.63679e-06
6.46086e-06
2.40314e-06
3.45624e-06
1.97213e-06
5.81515e-06
1.80736e-06
2.95582e-06
1.6058e-06
5.18862e-06
1.4717e-06
2.4862e-06
1.35081e-06
4.56399e-06
1.09284e-06
1.95558e-06
1.12462e-06
4.41606e-06
6.84973e-07
1.59832e-06
7.95322e-07
3.96619e-06
2.23911e-07
1.75369e-06
5.57962e-07
3.90535e-06
3.14825e-06
2.87188e-07
5.36244e-06
7.37487e-06
4.83642e-06
5.18767e-06
4.10539e-06
7.70968e-06
3.69208e-06
4.53694e-06
3.17571e-06
7.12786e-06
2.75757e-06
4.06063e-06
2.46168e-06
6.3273e-06
2.09328e-06
3.57083e-06
1.96197e-06
5.58946e-06
1.60771e-06
3.12866e-06
1.50919e-06
4.97117e-06
1.07112e-06
2.71303e-06
1.11849e-06
4.6812e-06
6.14367e-07
2.43188e-06
7.97171e-07
4.10666e-06
2.48919e-07
2.62672e-06
6.36245e-07
3.83433e-06
3.48111e-06
6.19469e-07
6.11012e-06
8.06824e-06
5.499e-06
5.84396e-06
4.84915e-06
8.43058e-06
4.14583e-06
5.34809e-06
3.80577e-06
7.61939e-06
3.18749e-06
4.87003e-06
2.97703e-06
6.76747e-06
2.44618e-06
4.36546e-06
2.33523e-06
5.99481e-06
1.89809e-06
3.88099e-06
1.83832e-06
5.37399e-06
1.38288e-06
3.52234e-06
1.44253e-06
4.96925e-06
9.5214e-07
3.2915e-06
1.10092e-06
4.32078e-06
7.03417e-07
3.39214e-06
9.62427e-07
3.93611e-06
3.82054e-06
9.82224e-07
7.32932e-06
8.74348e-06
6.34606e-06
6.83597e-06
5.83499e-06
8.98163e-06
4.94083e-06
6.32655e-06
4.49457e-06
8.20195e-06
3.63119e-06
5.91746e-06
3.30375e-06
7.326e-06
2.62598e-06
5.31582e-06
2.50418e-06
6.42715e-06
1.9689e-06
4.7529e-06
1.9764e-06
5.73752e-06
1.45458e-06
4.4291e-06
1.54784e-06
5.25543e-06
1.05569e-06
4.18998e-06
1.19486e-06
4.5854e-06
8.71381e-07
4.12467e-06
1.03179e-06
4.18129e-06
4.09048e-06
1.16437e-06
8.66784e-06
9.51525e-06
7.32626e-06
8.12131e-06
6.73206e-06
9.55651e-06
5.57184e-06
7.5231e-06
5.15404e-06
8.71623e-06
4.2074e-06
7.01909e-06
3.94296e-06
7.80239e-06
3.15988e-06
6.36177e-06
2.98744e-06
6.90873e-06
2.35466e-06
5.72835e-06
2.24577e-06
6.2299e-06
1.74809e-06
5.32966e-06
1.79281e-06
5.61423e-06
1.39375e-06
5.02275e-06
1.43803e-06
4.97829e-06
1.25889e-06
4.74763e-06
1.31151e-06
4.5725e-06
4.42214e-06
1.42235e-06
9.98183e-06
1.02467e-05
8.43326e-06
9.4982e-06
7.68426e-06
1.01812e-05
6.43888e-06
8.71464e-06
5.91302e-06
9.2593e-06
4.93102e-06
8.0908e-06
4.47651e-06
8.41495e-06
3.58218e-06
7.47736e-06
3.20758e-06
7.56113e-06
2.44816e-06
6.8118e-06
2.2293e-06
6.81657e-06
1.71474e-06
6.24471e-06
1.66626e-06
6.07667e-06
1.42646e-06
5.70424e-06
1.39818e-06
5.46231e-06
1.37671e-06
5.23508e-06
1.40876e-06
5.01239e-06
4.79975e-06
1.50574e-06
1.11279e-05
1.09821e-05
9.52938e-06
1.07325e-05
8.59704e-06
1.0816e-05
7.15766e-06
9.94258e-06
6.37824e-06
9.91457e-06
5.25667e-06
9.17709e-06
4.66931e-06
9.0509e-06
3.81268e-06
8.46121e-06
3.35152e-06
8.22011e-06
2.71737e-06
7.7037e-06
2.45432e-06
7.39412e-06
2.04664e-06
7.00962e-06
1.87204e-06
6.64117e-06
1.68277e-06
6.314e-06
1.55694e-06
6.03222e-06
1.50562e-06
5.74898e-06
1.49877e-06
5.49436e-06
5.22632e-06
1.55611e-06
1.31124e-05
1.13718e-05
1.15157e-05
1.16734e-05
1.0338e-05
1.14194e-05
8.89572e-06
1.09135e-05
7.8044e-06
1.06433e-05
6.56401e-06
1.01638e-05
5.67232e-06
9.79299e-06
4.7606e-06
9.32214e-06
4.14461e-06
8.87536e-06
3.55129e-06
8.41639e-06
3.137e-06
7.99934e-06
2.76885e-06
7.62658e-06
2.44502e-06
7.26474e-06
2.16406e-06
6.93753e-06
1.95995e-06
6.61749e-06
1.81385e-06
6.3054e-06
1.7367e-06
6.00517e-06
5.69978e-06
1.71544e-06
1.57174e-05
1.21414e-05
1.34542e-05
1.28284e-05
1.16452e-05
1.22152e-05
1.00246e-05
1.16476e-05
8.7216e-06
1.11961e-05
7.51743e-06
1.07525e-05
6.49099e-06
1.03344e-05
5.52742e-06
9.92476e-06
4.66139e-06
9.49569e-06
3.89385e-06
9.04371e-06
3.24991e-06
8.59818e-06
2.73191e-06
8.1807e-06
2.30792e-06
7.79824e-06
2.00718e-06
7.41248e-06
1.80178e-06
7.05239e-06
1.67113e-06
6.7122e-06
1.6141e-06
6.37797e-06
6.08261e-06
1.58031e-06
1.78944e-05
1.23598e-05
1.59532e-05
1.29448e-05
1.40262e-05
1.2449e-05
1.21983e-05
1.19463e-05
1.05286e-05
1.1509e-05
9.00277e-06
1.10893e-05
7.64605e-06
1.06666e-05
6.45407e-06
1.02488e-05
5.38383e-06
9.84614e-06
4.45404e-06
9.39219e-06
3.64295e-06
8.95476e-06
2.96775e-06
8.51555e-06
2.42411e-06
8.10428e-06
1.98284e-06
7.70855e-06
1.64831e-06
7.32384e-06
1.41866e-06
6.95006e-06
1.27993e-06
6.5885e-06
6.25146e-06
1.23758e-06
1.76592e-05
1.20769e-05
1.55583e-05
1.26171e-05
1.36911e-05
1.20242e-05
1.20462e-05
1.14792e-05
1.05698e-05
1.10582e-05
9.19155e-06
1.07222e-05
7.89052e-06
1.04015e-05
6.68106e-06
1.00641e-05
5.59071e-06
9.70714e-06
4.62102e-06
9.28777e-06
3.80114e-06
8.84458e-06
3.10052e-06
8.41988e-06
2.52616e-06
8.00438e-06
2.05721e-06
7.61286e-06
1.65587e-06
7.26233e-06
1.36152e-06
6.87298e-06
1.13832e-06
6.52316e-06
6.18596e-06
9.88708e-07
1.58838e-05
1.10431e-05
1.41221e-05
1.17161e-05
1.23951e-05
1.12252e-05
1.07434e-05
1.07749e-05
9.27036e-06
1.03481e-05
8.01704e-06
9.96344e-06
6.96261e-06
9.6123e-06
6.04471e-06
9.30087e-06
5.22073e-06
9.00616e-06
4.41063e-06
8.72204e-06
3.66147e-06
8.35773e-06
2.99121e-06
7.98562e-06
2.40431e-06
7.60898e-06
1.91411e-06
7.23407e-06
1.54242e-06
6.86993e-06
1.23426e-06
6.51175e-06
9.84907e-07
6.19264e-06
5.85198e-06
8.20032e-07
1.38819e-05
1.03543e-05
1.22961e-05
1.05759e-05
1.08788e-05
1.0037e-05
9.53539e-06
9.66735e-06
8.28501e-06
9.30647e-06
7.1478e-06
8.96424e-06
6.14931e-06
8.62872e-06
5.28355e-06
8.33465e-06
4.52003e-06
8.08158e-06
3.85749e-06
7.83656e-06
3.20653e-06
7.59212e-06
2.63728e-06
7.26387e-06
2.12575e-06
6.94798e-06
1.68401e-06
6.61363e-06
1.30942e-06
6.28678e-06
9.90103e-07
5.96908e-06
7.44169e-07
5.66699e-06
5.38262e-06
5.2454e-07
1.2608e-05
8.98014e-06
1.13697e-05
9.12198e-06
1.01461e-05
8.6836e-06
8.99807e-06
8.37994e-06
7.89862e-06
8.11218e-06
6.8321e-06
7.87645e-06
5.82786e-06
7.6188e-06
4.91122e-06
7.37234e-06
4.10745e-06
7.13899e-06
3.42081e-06
6.90498e-06
2.85164e-06
6.66471e-06
2.31261e-06
6.42392e-06
1.86547e-06
6.12697e-06
1.46754e-06
5.84909e-06
1.12495e-06
5.56675e-06
8.4176e-07
5.2831e-06
6.14319e-07
5.01337e-06
4.76334e-06
4.32662e-07
1.12783e-05
7.76291e-06
1.01166e-05
7.70792e-06
9.01353e-06
7.31396e-06
7.94625e-06
7.10294e-06
6.94003e-06
6.89814e-06
6.01685e-06
6.70443e-06
5.19977e-06
6.46561e-06
4.46113e-06
6.2606e-06
3.79937e-06
6.07165e-06
3.19971e-06
5.89018e-06
2.65701e-06
5.70586e-06
2.17743e-06
5.50974e-06
1.72479e-06
5.28849e-06
1.34824e-06
5.03391e-06
1.03183e-06
4.78399e-06
7.6707e-07
4.53803e-06
5.61255e-07
4.29184e-06
4.07073e-06
4.04759e-07
1.0014e-05
6.47206e-06
9.07145e-06
6.23505e-06
8.18587e-06
5.87945e-06
7.34664e-06
5.73457e-06
6.50233e-06
5.64314e-06
5.69347e-06
5.5258e-06
4.92829e-06
5.35358e-06
4.23641e-06
5.18349e-06
3.61978e-06
5.02789e-06
3.07064e-06
4.88242e-06
2.58454e-06
4.73786e-06
2.16343e-06
4.57447e-06
1.79379e-06
4.39632e-06
1.45285e-06
4.20375e-06
1.15779e-06
3.99372e-06
9.14346e-07
3.7786e-06
7.08945e-07
3.57126e-06
3.38199e-06
5.45144e-07
9.28448e-06
5.01552e-06
8.43459e-06
4.85514e-06
7.57368e-06
4.59507e-06
6.7181e-06
4.54177e-06
5.90662e-06
4.5038e-06
5.16465e-06
4.41605e-06
4.49704e-06
4.26664e-06
3.9049e-06
4.11907e-06
3.37511e-06
3.99698e-06
2.89882e-06
3.89205e-06
2.47132e-06
3.79055e-06
2.08503e-06
3.67447e-06
1.7413e-06
3.5397e-06
1.43957e-06
3.38731e-06
1.17431e-06
3.2198e-06
9.30917e-07
3.05782e-06
7.07238e-07
2.90214e-06
2.74998e-06
5.13807e-07
8.24194e-06
3.89772e-06
7.43248e-06
3.6285e-06
6.69677e-06
3.36803e-06
6.00451e-06
3.35662e-06
5.35278e-06
3.36572e-06
4.74903e-06
3.3169e-06
4.17848e-06
3.22128e-06
3.64297e-06
3.12577e-06
3.1492e-06
3.04714e-06
2.69435e-06
2.98768e-06
2.28694e-06
2.92071e-06
1.93132e-06
2.83276e-06
1.627e-06
2.72412e-06
1.36587e-06
2.60305e-06
1.1367e-06
2.47535e-06
9.33797e-07
2.3554e-06
7.53151e-07
2.24265e-06
2.13797e-06
5.86516e-07
7.3259e-06
2.72939e-06
6.74151e-06
2.36825e-06
6.17395e-06
2.15521e-06
5.59281e-06
2.23398e-06
5.03835e-06
2.29345e-06
4.50557e-06
2.29964e-06
3.99345e-06
2.26054e-06
3.5049e-06
2.2183e-06
3.03273e-06
2.19972e-06
2.58393e-06
2.19205e-06
2.17407e-06
2.15972e-06
1.8082e-06
2.09951e-06
1.49023e-06
2.01255e-06
1.21266e-06
1.9183e-06
9.65297e-07
1.82505e-06
7.47477e-07
1.73736e-06
5.55639e-07
1.65752e-06
1.58358e-06
3.88879e-07
6.71297e-06
1.54458e-06
6.28225e-06
1.13839e-06
5.70615e-06
1.12636e-06
5.113e-06
1.28963e-06
4.53481e-06
1.40232e-06
3.97143e-06
1.46195e-06
3.42734e-06
1.4721e-06
2.91388e-06
1.46781e-06
2.44327e-06
1.47453e-06
2.01826e-06
1.4883e-06
1.64021e-06
1.47479e-06
1.30097e-06
1.43991e-06
9.94421e-07
1.38264e-06
7.109e-07
1.32568e-06
4.49261e-07
1.26859e-06
2.07537e-07
1.21659e-06
-1.18827e-08
1.16733e-06
1.11178e-06
-1.9947e-07
6.05914e-06
4.30266e-07
5.65185e-06
5.69698e-08
5.04702e-06
2.91229e-07
4.38078e-06
5.75094e-07
3.70362e-06
7.59291e-07
3.02673e-06
8.79529e-07
2.37459e-06
9.25961e-07
1.76103e-06
9.44074e-07
1.20168e-06
9.57156e-07
7.093e-07
9.63718e-07
2.7409e-07
9.51695e-07
-1.15834e-07
9.28873e-07
-4.76596e-07
8.98145e-07
-8.02731e-07
8.60469e-07
-1.09591e-06
8.22355e-07
-1.35965e-06
7.90672e-07
-1.58504e-06
7.50532e-07
7.16523e-07
-1.78687e-06
5.17305e-06
-5.14893e-07
4.34505e-06
-4.43483e-07
3.35879e-06
-1.00621e-08
2.43053e-06
2.68918e-07
1.58009e-06
4.2917e-07
8.19075e-07
5.13743e-07
1.3829e-07
5.34061e-07
-4.67346e-07
5.31245e-07
-9.9747e-07
5.22734e-07
-1.45641e-06
5.11356e-07
-1.85867e-06
4.94911e-07
-2.21399e-06
4.76198e-07
-2.53012e-06
4.55909e-07
-2.81561e-06
4.35611e-07
-3.07019e-06
4.12888e-07
-3.29316e-06
3.93982e-07
-3.48293e-06
3.63098e-07
3.42475e-07
-3.64581e-06
3.2095e-06
1.55741e-06
3.83757e-07
-4.60379e-07
-1.09464e-06
-1.59536e-06
-2.02672e-06
-2.41191e-06
-2.75702e-06
-3.06557e-06
-3.34354e-06
-3.59429e-06
-3.82063e-06
-4.024e-06
-4.20838e-06
-4.37164e-06
-4.52773e-06
-4.66846e-06
-1.61236e-07
-6.33282e-07
-3.50544e-07
-6.32451e-07
-5.60258e-07
-6.21404e-07
-7.67646e-07
-6.26372e-07
-9.65297e-07
-6.36298e-07
-1.15647e-06
-6.41448e-07
-1.34716e-06
-6.39103e-07
-1.53753e-06
-6.35275e-07
-1.7263e-06
-6.31362e-07
-1.9163e-06
-6.22871e-07
-2.10853e-06
-6.11549e-07
-2.30135e-06
-6.00218e-07
-2.49244e-06
-5.89722e-07
-2.66712e-06
-5.93101e-07
-2.79614e-06
-6.25306e-07
-2.87709e-06
-6.5792e-07
-2.94033e-06
-6.57052e-07
-3.00396e-06
-6.37643e-07
-3.02707e-06
-6.60957e-07
-2.95855e-06
-7.35477e-07
-2.8296e-06
-7.75008e-07
-2.69526e-06
-7.54393e-07
-2.58762e-06
-7.02035e-07
-2.5211e-06
-6.38318e-07
-2.50844e-06
-5.60117e-07
-2.57644e-06
-4.52685e-07
-2.73831e-06
-3.36672e-07
-2.99844e-06
-2.2291e-07
-3.32779e-06
-1.35591e-07
-3.72443e-06
-3.95197e-08
-4.14461e-06
1.00903e-08
-4.57722e-06
4.33352e-08
-4.9988e-06
5.17459e-08
-5.38746e-06
3.86683e-08
-5.71912e-06
1.03698e-09
-5.9708e-06
-6.06546e-08
-6.13765e-06
-1.28914e-07
-6.21369e-06
-2.048e-07
-6.19499e-06
-2.85607e-07
-6.07701e-06
-3.7215e-07
-5.86389e-06
-4.56358e-07
-5.54585e-06
-5.52803e-07
-5.1325e-06
-6.42802e-07
-4.64743e-06
-7.12229e-07
-4.07479e-06
-8.00849e-07
-3.44469e-06
-8.62607e-07
-2.7574e-06
-9.27509e-07
-2.01974e-06
-9.90675e-07
-1.23824e-06
-1.04912e-06
-4.25589e-07
-1.09877e-06
3.8303e-07
-1.11681e-06
1.17746e-06
-1.12833e-06
1.96525e-06
-1.15103e-06
2.74528e-06
-1.1759e-06
3.51741e-06
-1.20353e-06
4.28268e-06
-1.23491e-06
5.04667e-06
-1.27523e-06
5.75865e-06
-1.268e-06
6.434e-06
-1.27843e-06
7.10094e-06
-1.31839e-06
7.74423e-06
-1.34554e-06
8.3591e-06
-1.3702e-06
8.90313e-06
-1.35387e-06
9.35961e-06
-1.32158e-06
9.72116e-06
-1.28193e-06
1.0005e-05
-1.259e-06
1.02421e-05
-1.26657e-06
1.04269e-05
-1.26689e-06
1.06071e-05
-1.31253e-06
1.07736e-05
-1.34528e-06
1.09763e-05
-1.4243e-06
1.12622e-05
-1.5448e-06
1.17282e-05
-1.75486e-06
1.2243e-05
-1.83346e-06
1.26402e-05
-1.74977e-06
1.28409e-05
-1.58523e-06
1.29479e-05
-1.51784e-06
1.30193e-05
-1.50123e-06
1.3006e-05
-1.42488e-06
1.28414e-05
-1.27856e-06
1.25952e-05
-1.21232e-06
1.23552e-05
-1.23505e-06
1.20829e-05
-1.19642e-06
1.17153e-05
-1.0775e-06
1.13777e-05
-1.09192e-06
1.11851e-05
-1.23466e-06
1.09946e-05
-1.23158e-06
1.06986e-05
-1.11163e-06
1.03732e-05
-1.06686e-06
1.00708e-05
-1.08034e-06
9.84055e-06
-1.14754e-06
1.01304e-05
-1.68313e-06
1.11245e-05
-2.42067e-06
1.19639e-05
-2.2684e-06
1.22656e-05
-1.69462e-06
1.22464e-05
-1.36052e-06
1.23042e-05
-1.48054e-06
1.28148e-05
-1.997e-06
1.36021e-05
-2.31499e-06
1.39195e-05
-1.87097e-06
1.32449e-05
-9.40569e-07
1.14828e-05
2.07127e-07
9.11798e-06
8.63049e-07
6.747e-06
7.9413e-07
4.64227e-06
4.43423e-07
3.16079e-06
-2.60597e-07
2.35608e-06
-1.0296e-06
1.70679e-06
-1.26592e-06
8.74834e-07
-1.16563e-06
-4.03921e-07
-8.14567e-07
-1.71785e-06
-8.81216e-07
-2.38249e-06
-1.64208e-06
-2.16196e-06
-2.64455e-06
-1.3692e-06
-3.34225e-06
-4.65577e-07
-3.58439e-06
1.13435e-07
-3.39007e-06
6.18541e-07
-3.42795e-06
2.79524e-07
-2.67408e-06
-9.07982e-07
-1.95563e-06
9.55487e-07
-5.14973e-06
2.66108e-06
-5.14695e-06
2.09085e-06
-2.99529e-06
4.70966e-06
-6.28572e-06
4.5096e-06
-3.52041e-06
5.02442e-06
-4.33239e-06
5.51864e-06
-4.41018e-06
6.46536e-06
-4.95659e-06
7.86837e-06
-5.5062e-06
9.35234e-06
-5.67723e-06
1.00014e-05
-4.86013e-06
1.03255e-05
-4.5603e-06
1.0522e-05
-4.49378e-06
1.08967e-05
-4.78414e-06
1.17163e-05
-5.37594e-06
1.2838e-05
-5.83822e-06
1.38201e-05
-5.83726e-06
1.43127e-05
-5.46313e-06
1.44409e-05
-5.21457e-06
1.45156e-05
-5.33293e-06
1.46913e-05
-5.64035e-06
1.49556e-05
-5.9609e-06
1.53547e-05
-6.35333e-06
1.58256e-05
-6.69951e-06
1.62838e-05
-6.98712e-06
1.68149e-05
-7.34799e-06
1.73395e-05
-7.62897e-06
1.78787e-05
-7.94991e-06
1.84452e-05
-8.25047e-06
1.89128e-05
-8.4675e-06
1.92277e-05
-8.63765e-06
1.92095e-05
-8.65581e-06
1.91516e-05
-8.89733e-06
1.92931e-05
-9.25113e-06
1.89394e-05
-8.87277e-06
1.74108e-05
-7.90832e-06
1.6473e-05
-9.16723e-06
1.78206e-05
-1.20564e-05
1.97194e-05
-1.34323e-05
1.93649e-05
-1.14419e-05
1.83416e-05
-1.07548e-05
1.72563e-05
-1.10009e-05
1.5993e-05
-1.13692e-05
1.57285e-05
-1.31382e-05
1.68684e-05
-1.53891e-05
1.67566e-05
-1.42157e-05
1.72526e-05
-1.50678e-05
1.62913e-05
-1.27742e-05
1.29597e-05
-9.8093e-06
1.44454e-05
-1.58715e-05
1.10571e-05
-1.10913e-05
5.77391e-06
-8.0348e-06
1.34379e-06
-8.52721e-06
-1.71596e-06
-9.44879e-06
-6.00575e-06
-7.65528e-06
-1.26568e-05
-5.22348e-06
-1.90569e-05
-5.87026e-06
-1.70823e-05
-1.44094e-05
-1.00578e-05
-1.79627e-05
-1.46183e-05
-5.31847e-06
-5.70786e-06
-1.83545e-05
-1.69899e-07
-1.24717e-06
-3.54797e-07
-1.26345e-06
-5.54622e-07
-1.25132e-06
-7.45466e-07
-1.26993e-06
-9.20556e-07
-1.29716e-06
-1.09186e-06
-1.30619e-06
-1.27253e-06
-1.29301e-06
-1.46403e-06
-1.27561e-06
-1.65437e-06
-1.26922e-06
-1.85039e-06
-1.24988e-06
-2.05829e-06
-1.21907e-06
-2.24236e-06
-1.2219e-06
-2.39886e-06
-1.22719e-06
-2.55538e-06
-1.22007e-06
-2.73878e-06
-1.21614e-06
-2.95519e-06
-1.19969e-06
-3.14892e-06
-1.19431e-06
-3.23342e-06
-1.25815e-06
-3.25406e-06
-1.3297e-06
-3.30252e-06
-1.35937e-06
-3.43942e-06
-1.27754e-06
-3.73196e-06
-1.06161e-06
-4.15787e-06
-8.60668e-07
-4.71715e-06
-6.59491e-07
-5.3534e-06
-4.77484e-07
-5.99617e-06
-3.28603e-07
-6.64351e-06
-1.85869e-07
-7.26964e-06
-7.94381e-08
-7.87766e-06
1.09763e-08
-8.42847e-06
7.68644e-08
-8.92591e-06
9.81826e-08
-9.34624e-06
8.08698e-08
-9.67235e-06
1.93323e-08
-9.90843e-06
-6.3461e-08
-1.00602e-05
-1.67664e-07
-1.0131e-05
-2.91007e-07
-1.01162e-05
-4.25378e-07
-1.00086e-05
-5.74542e-07
-9.79866e-06
-7.39018e-07
-9.4862e-06
-9.12921e-07
-9.05365e-06
-1.10645e-06
-8.5452e-06
-1.27398e-06
-7.94687e-06
-1.4522e-06
-7.27945e-06
-1.59152e-06
-6.57791e-06
-1.71626e-06
-5.81152e-06
-1.84649e-06
-4.99207e-06
-1.97077e-06
-4.10266e-06
-2.11332e-06
-3.18497e-06
-2.21365e-06
-2.24491e-06
-2.30403e-06
-1.28607e-06
-2.36209e-06
-3.05401e-07
-2.41976e-06
6.4459e-07
-2.44102e-06
1.55624e-06
-2.46119e-06
2.45706e-06
-2.51477e-06
3.38794e-06
-2.61515e-06
4.27741e-06
-2.65583e-06
5.1186e-06
-2.64636e-06
5.93164e-06
-2.67919e-06
6.73207e-06
-2.75495e-06
7.51781e-06
-2.81558e-06
8.28843e-06
-2.87468e-06
8.9971e-06
-2.84898e-06
9.59797e-06
-2.76586e-06
1.00914e-05
-2.67917e-06
1.04684e-05
-2.60251e-06
1.07661e-05
-2.59379e-06
1.10061e-05
-2.59526e-06
1.1241e-05
-2.68692e-06
1.15002e-05
-2.78817e-06
1.17839e-05
-2.93499e-06
1.21451e-05
-3.16349e-06
1.26255e-05
-3.49094e-06
1.32548e-05
-3.70368e-06
1.38927e-05
-3.64247e-06
1.43282e-05
-3.32098e-06
1.47012e-05
-3.23817e-06
1.51535e-05
-3.34278e-06
1.55657e-05
-3.27161e-06
1.56998e-05
-2.86131e-06
1.56076e-05
-2.54342e-06
1.54818e-05
-2.54258e-06
1.52619e-05
-2.45762e-06
1.49106e-05
-2.2144e-06
1.45379e-05
-2.17417e-06
1.41507e-05
-2.28306e-06
1.36146e-05
-2.14277e-06
1.31362e-05
-2.09458e-06
1.28283e-05
-2.20089e-06
1.2543e-05
-2.19247e-06
1.21701e-05
-2.13749e-06
1.21783e-05
-3.07557e-06
1.30261e-05
-4.70337e-06
1.43341e-05
-5.02186e-06
1.52134e-05
-4.03054e-06
1.56546e-05
-3.21646e-06
1.61183e-05
-3.27402e-06
1.62942e-05
-3.57773e-06
1.49338e-05
-2.69216e-06
1.20145e-05
-7.07501e-07
8.74884e-06
7.94837e-07
5.84719e-06
1.5887e-06
3.37537e-06
1.7821e-06
1.40262e-06
1.12431e-06
4.29144e-07
-3.0141e-07
-2.77591e-07
-1.34077e-06
-8.9481e-07
-2.29051e-06
-1.35775e-06
-2.77708e-06
-1.94939e-06
-2.64205e-06
-2.63112e-06
-2.28183e-06
-3.19318e-06
-2.55275e-06
-3.09815e-06
-4.0621e-06
-2.71965e-06
-5.47579e-06
-2.3113e-06
-6.33702e-06
-1.39314e-06
-7.17105e-06
-2.93711e-07
-7.25662e-06
3.95095e-07
-7.04547e-06
2.65224e-07
-5.62891e-06
-8.61767e-07
-4.03882e-06
6.97653e-07
-9.94607e-06
2.31707e-06
-1.01214e-05
2.39377e-06
-6.74291e-06
5.83532e-06
-1.32441e-05
5.42685e-06
-6.93939e-06
5.59327e-06
-8.40044e-06
6.16075e-06
-9.0137e-06
7.23484e-06
-1.0199e-05
9.12364e-06
-1.16985e-05
1.17948e-05
-1.28535e-05
1.33579e-05
-1.0969e-05
1.41241e-05
-9.82043e-06
1.42602e-05
-9.0657e-06
1.45849e-05
-9.6305e-06
1.56594e-05
-1.11858e-05
1.78914e-05
-1.30809e-05
2.04255e-05
-1.35757e-05
2.21691e-05
-1.25117e-05
2.26311e-05
-1.1031e-05
2.20555e-05
-1.01871e-05
2.10011e-05
-1.02237e-05
1.99834e-05
-1.07516e-05
1.93308e-05
-1.17834e-05
1.91523e-05
-1.28787e-05
1.92151e-05
-1.37874e-05
1.95314e-05
-1.48554e-05
1.98246e-05
-1.55205e-05
2.0346e-05
-1.64702e-05
2.09779e-05
-1.73558e-05
2.12552e-05
-1.76806e-05
2.16839e-05
-1.84543e-05
2.17712e-05
-1.86961e-05
2.13476e-05
-1.88315e-05
2.05456e-05
-1.87796e-05
1.87099e-05
-1.70531e-05
1.60243e-05
-1.54817e-05
1.4892e-05
-1.93271e-05
1.69446e-05
-2.51885e-05
2.07375e-05
-2.89689e-05
2.19113e-05
-2.58997e-05
2.08626e-05
-2.29974e-05
1.93122e-05
-2.29191e-05
1.77554e-05
-2.41639e-05
1.76683e-05
-2.84123e-05
2.02931e-05
-3.37885e-05
2.09579e-05
-3.1988e-05
2.23322e-05
-3.45624e-05
2.04442e-05
-2.72293e-05
1.50552e-05
-2.03829e-05
1.82201e-05
-3.16966e-05
1.58211e-05
-2.49284e-05
9.33551e-06
-1.80139e-05
3.03943e-06
-1.7906e-05
-1.9722e-06
-1.88512e-05
-8.59351e-06
-1.46455e-05
-1.68715e-05
-1.06277e-05
-2.19274e-05
-1.47739e-05
-1.97835e-05
-2.94307e-05
-1.03947e-05
-3.81516e-05
-1.10734e-05
-1.61882e-05
-1.08765e-05
-1.63996e-05
-1.68665e-07
-1.83731e-06
-3.25028e-07
-1.89183e-06
-4.91146e-07
-1.88465e-06
-6.41875e-07
-1.92647e-06
-7.85635e-07
-1.96466e-06
-9.15165e-07
-1.99017e-06
-1.04869e-06
-1.97359e-06
-1.20992e-06
-1.92674e-06
-1.39362e-06
-1.89535e-06
-1.56308e-06
-1.88736e-06
-1.73883e-06
-1.84721e-06
-1.97391e-06
-1.78767e-06
-2.26156e-06
-1.73643e-06
-2.58462e-06
-1.67722e-06
-2.9575e-06
-1.58998e-06
-3.25899e-06
-1.60967e-06
-3.37232e-06
-1.77219e-06
-3.47908e-06
-1.83538e-06
-3.76949e-06
-1.70353e-06
-4.34338e-06
-1.4192e-06
-5.1211e-06
-1.10625e-06
-5.94994e-06
-8.18711e-07
-6.7631e-06
-6.23328e-07
-7.51112e-06
-4.64607e-07
-8.19305e-06
-3.19232e-07
-8.82645e-06
-2.00642e-07
-9.41201e-06
-8.08397e-08
-9.93502e-06
-4.23935e-09
-1.03759e-05
3.93625e-08
-1.07264e-05
4.91001e-08
-1.10053e-05
2.89515e-08
-1.12132e-05
-3.7105e-08
-1.13583e-05
-1.45557e-07
-1.1443e-05
-2.74989e-07
-1.14525e-05
-4.3881e-07
-1.13787e-05
-6.2905e-07
-1.12188e-05
-8.33027e-07
-1.09637e-05
-1.06254e-06
-1.06196e-05
-1.30525e-06
-1.01827e-05
-1.5645e-06
-9.67295e-06
-1.827e-06
-9.08843e-06
-2.06635e-06
-8.47248e-06
-2.27416e-06
-7.79399e-06
-2.47421e-06
-7.05228e-06
-2.66103e-06
-6.25239e-06
-2.85045e-06
-5.41749e-06
-3.01537e-06
-4.57684e-06
-3.16839e-06
-3.69126e-06
-3.32427e-06
-2.77414e-06
-3.46092e-06
-1.81371e-06
-3.57888e-06
-8.33928e-07
-3.67393e-06
1.66939e-07
-3.73888e-06
1.17391e-06
-3.79249e-06
2.1783e-06
-3.87577e-06
3.1296e-06
-3.9589e-06
4.06388e-06
-4.02051e-06
4.96199e-06
-4.01704e-06
5.8545e-06
-4.0947e-06
6.70136e-06
-4.17572e-06
7.5298e-06
-4.26531e-06
8.35438e-06
-4.3609e-06
9.13789e-06
-4.33773e-06
9.86732e-06
-4.25616e-06
1.05082e-05
-4.14663e-06
1.09869e-05
-3.9855e-06
1.13349e-05
-3.92928e-06
1.16156e-05
-3.94406e-06
1.1894e-05
-4.0927e-06
1.22592e-05
-4.31318e-06
1.26475e-05
-4.51411e-06
1.29914e-05
-4.72815e-06
1.32038e-05
-4.92287e-06
1.34127e-05
-5.09945e-06
1.37096e-05
-5.11202e-06
1.40733e-05
-4.8889e-06
1.43249e-05
-4.74072e-06
1.47381e-05
-5.03278e-06
1.54115e-05
-5.24961e-06
1.59737e-05
-4.78255e-06
1.62374e-05
-4.19294e-06
1.65589e-05
-4.23779e-06
1.70968e-05
-4.39428e-06
1.75305e-05
-4.08671e-06
1.75987e-05
-3.66691e-06
1.73518e-05
-3.43638e-06
1.68819e-05
-3.06663e-06
1.61165e-05
-2.72278e-06
1.54059e-05
-2.90412e-06
1.50502e-05
-3.27124e-06
1.48441e-05
-3.36482e-06
1.46847e-05
-4.33715e-06
1.4843e-05
-6.28916e-06
1.58426e-05
-7.41327e-06
1.70624e-05
-6.54582e-06
1.75965e-05
-5.10098e-06
1.66876e-05
-3.87819e-06
1.37697e-05
-2.17911e-06
9.83277e-06
-2.39271e-07
6.69527e-06
9.28229e-07
4.34383e-06
1.63594e-06
2.64954e-06
1.71285e-06
1.48099e-06
1.31619e-06
8.73945e-07
2.68904e-08
-1.6268e-08
-1.14954e-06
-1.30161e-06
-1.8739e-06
-2.31058e-06
-3.17272e-06
-3.03121e-06
-4.0273e-06
-3.07539e-06
-4.62056e-06
-2.74089e-06
-4.7022e-06
-2.03702e-06
-5.41133e-06
-1.11825e-06
-7.19342e-06
-1.03707e-06
-7.90524e-06
-1.45318e-06
-8.38136e-06
-1.16621e-06
-9.98341e-06
-5.74941e-07
-1.05071e-05
-3.34951e-07
-1.01524e-05
2.59646e-07
-9.33333e-06
1.35416e-07
-7.20229e-06
4.25339e-07
-1.33349e-05
1.01446e-06
-1.40409e-05
2.62224e-06
-1.2028e-05
6.18313e-06
-1.99093e-05
4.84839e-06
-9.28338e-06
4.51387e-06
-1.17501e-05
5.37704e-06
-1.37581e-05
6.44118e-06
-1.53784e-05
8.20214e-06
-1.7741e-05
1.14426e-05
-2.03882e-05
1.31898e-05
-1.73031e-05
1.4067e-05
-1.53144e-05
1.39965e-05
-1.35735e-05
1.43865e-05
-1.46155e-05
1.56479e-05
-1.7291e-05
1.81904e-05
-2.05345e-05
2.13976e-05
-2.20931e-05
2.43047e-05
-2.10113e-05
2.59618e-05
-1.84232e-05
2.64768e-05
-1.63011e-05
2.58732e-05
-1.52891e-05
2.47876e-05
-1.54658e-05
2.36218e-05
-1.65641e-05
2.25912e-05
-1.80546e-05
2.19677e-05
-1.96475e-05
2.17098e-05
-2.13576e-05
2.15425e-05
-2.27958e-05
2.15796e-05
-2.41465e-05
2.23677e-05
-2.61425e-05
2.27008e-05
-2.68877e-05
2.26792e-05
-2.79347e-05
2.24627e-05
-2.88148e-05
2.18904e-05
-2.86951e-05
2.05173e-05
-2.77983e-05
1.81149e-05
-2.50533e-05
1.55542e-05
-2.39216e-05
1.4597e-05
-2.99714e-05
1.48364e-05
-3.59774e-05
1.86811e-05
-4.19779e-05
2.19229e-05
-4.14905e-05
2.17332e-05
-3.65955e-05
2.05442e-05
-3.58433e-05
1.83915e-05
-3.71321e-05
1.7244e-05
-4.23334e-05
2.0138e-05
-4.83136e-05
2.17439e-05
-4.81337e-05
2.5916e-05
-5.42114e-05
2.42916e-05
-4.13913e-05
1.56046e-05
-3.15006e-05
1.71628e-05
-4.37651e-05
1.77147e-05
-3.60669e-05
1.09571e-05
-2.72134e-05
3.13364e-06
-2.67449e-05
-3.7943e-06
-2.67846e-05
-1.13928e-05
-2.11584e-05
-1.8651e-05
-1.7476e-05
-2.08552e-05
-2.65023e-05
-2.07439e-05
-4.15795e-05
-1.31343e-05
-5.83782e-05
-9.9226e-06
-3.23122e-05
-1.7555e-05
-1.46801e-05
-1.58945e-07
-2.40712e-06
-2.88741e-07
-2.51231e-06
-4.01865e-07
-2.53445e-06
-5.33335e-07
-2.56854e-06
-6.43947e-07
-2.63409e-06
-7.5546e-07
-2.66243e-06
-8.62067e-07
-2.65344e-06
-9.97396e-07
-2.57588e-06
-1.18629e-06
-2.49255e-06
-1.44652e-06
-2.41277e-06
-1.72795e-06
-2.34174e-06
-2.06924e-06
-2.20867e-06
-2.50003e-06
-2.05164e-06
-2.94917e-06
-1.93957e-06
-3.27023e-06
-1.94185e-06
-3.52228e-06
-2.02849e-06
-3.92261e-06
-2.05156e-06
-4.58076e-06
-1.83828e-06
-5.48602e-06
-1.4234e-06
-6.43024e-06
-1.05797e-06
-7.28416e-06
-8.08971e-07
-8.02466e-06
-6.1764e-07
-8.69353e-06
-4.74547e-07
-9.31757e-06
-3.45145e-07
-9.89127e-06
-2.21974e-07
-1.03884e-05
-1.44382e-07
-1.08056e-05
-7.0923e-08
-1.11631e-05
-3.04188e-08
-1.14756e-05
-1.56139e-08
-1.17204e-05
-5.43089e-08
-1.18889e-05
-1.35992e-07
-1.20092e-05
-2.43379e-07
-1.20725e-05
-3.9669e-07
-1.20568e-05
-5.89457e-07
-1.19692e-05
-8.09417e-07
-1.18056e-05
-1.06309e-06
-1.15585e-05
-1.33672e-06
-1.12398e-05
-1.6284e-06
-1.08613e-05
-1.9236e-06
-1.04122e-05
-2.24414e-06
-9.88228e-06
-2.57755e-06
-9.27774e-06
-2.8806e-06
-8.60806e-06
-3.14987e-06
-7.87543e-06
-3.4096e-06
-7.09082e-06
-3.64863e-06
-6.2762e-06
-3.8738e-06
-5.44329e-06
-4.06479e-06
-4.59402e-06
-4.24176e-06
-3.71166e-06
-4.44466e-06
-2.79928e-06
-4.62952e-06
-1.85555e-06
-4.79865e-06
-9.00942e-07
-4.92494e-06
5.19159e-08
-5.00883e-06
1.00948e-06
-5.08899e-06
1.98424e-06
-5.21571e-06
2.98815e-06
-5.35893e-06
3.91872e-06
-5.381e-06
4.83048e-06
-5.39365e-06
5.72945e-06
-5.4988e-06
6.5831e-06
-5.58068e-06
7.38364e-06
-5.6641e-06
8.14186e-06
-5.75198e-06
8.87751e-06
-5.7333e-06
9.6411e-06
-5.71798e-06
1.04013e-05
-5.65296e-06
1.11159e-05
-5.52136e-06
1.17394e-05
-5.46433e-06
1.22908e-05
-5.49607e-06
1.28e-05
-5.67604e-06
1.33152e-05
-5.93796e-06
1.38621e-05
-6.18591e-06
1.43346e-05
-6.36071e-06
1.45449e-05
-6.34893e-06
1.44964e-05
-6.29774e-06
1.44005e-05
-6.26194e-06
1.44246e-05
-6.15648e-06
1.45387e-05
-6.09999e-06
1.47209e-05
-6.42682e-06
1.49762e-05
-6.67097e-06
1.5175e-05
-6.18285e-06
1.52591e-05
-5.5826e-06
1.56361e-05
-5.96279e-06
1.64625e-05
-6.50972e-06
1.7268e-05
-6.18717e-06
1.78634e-05
-5.62629e-06
1.85151e-05
-5.4608e-06
1.89703e-05
-4.89961e-06
1.89678e-05
-4.09885e-06
1.87853e-05
-4.09924e-06
1.83552e-05
-4.23498e-06
1.77481e-05
-4.13633e-06
1.75925e-05
-5.5845e-06
1.77594e-05
-7.88445e-06
1.77967e-05
-8.85976e-06
1.74632e-05
-7.51847e-06
1.58382e-05
-4.83989e-06
1.25804e-05
-2.08099e-06
8.61171e-06
3.1419e-07
5.48212e-06
1.3676e-06
3.3479e-06
1.51908e-06
1.89704e-06
1.50227e-06
9.24065e-07
1.05283e-06
3.6314e-07
2.09197e-07
-1.17584e-07
-1.1575e-06
-1.36811e-06
-1.63067e-06
-2.36174e-06
-2.67411e-06
-2.92473e-06
-4.42825e-06
-3.41802e-06
-5.42596e-06
-3.58857e-06
-6.39912e-06
-3.43628e-06
-6.89786e-06
-2.75743e-06
-8.17579e-06
-2.21689e-06
-9.87479e-06
-2.16142e-06
-1.0191e-05