/*--------------------------------*- C++ -*----------------------------------*\
| =========                 |                                                 |
| \\      /  F ield         | OpenFOAM: The Open Source CFD Toolbox           |
|  \\    /   O peration     | Version:  dev                                   |
|   \\  /    A nd           | Web:      http://www.openfoam.org               |
|    \\/     M anipulation  |                                                 |
\*---------------------------------------------------------------------------*/
FoamFile
{
    version     2.0;
    format      ascii;
    class       volScalarField;
    object      pMean;
    location    "9.156";
}
// * * * * * * * * * * * * * * * * * * * * * * * * * * * * * * * * * * * * * //

dimensions      [1 -1 -2 0 0 0 0];

internalField   nonuniform List<scalar> 
12225
(
98310.4
98290.6
98276.9
98269.9
98255.6
98246.2
98227.8
98218.2
98196.7
98187.9
98163.2
98156.4
98125.4
98119.1
98078.3
98038.6
97949.5
97583.5
98305.9
98289.6
98276.3
98269.4
98255
98245.6
98227.1
98217.6
98196
98187.5
98162.5
98155.9
98125
98117.2
98076.6
98042.7
97950.4
97789.3
98302.2
98288
98275.3
98268
98253.6
98244.2
98225.6
98216.3
98194.6
98186
98161.7
98153.8
98125.6
98113.8
98078.9
98043.6
97976.2
97887.4
98297.1
98285.1
98273.2
98265.5
98251.2
98241.5
98223.5
98213.6
98192.8
98183.4
98160.3
98150.7
98124.5
98111.6
98079.8
98052
98003.5
97934.7
98290.5
98280.7
98269.6
98261.5
98247.6
98237.3
98220.5
98209.4
98190.4
98179.1
98158.8
98146.2
98124.7
98108.4
98081.8
98057.5
98017.7
97985
98282.2
98274.5
98263.7
98255.5
98242
98231.4
98215.3
98203.7
98186
98173.8
98155.6
98142
98123.6
98106.7
98085.3
98060
98037.9
98017.5
98271.9
98265.6
98255.2
98246.8
98234.2
98223
98208.2
98195.7
98179.9
98166.4
98151
98136
98121.4
98103.8
98089.5
98068.6
98058.2
98043.3
98261.2
98255.5
98245.9
98237.2
98225.5
98213.9
98200.4
98187.2
98173.2
98158.9
98145.7
98130.1
98118.6
98101.3
98092.5
98074.7
98073
98058
98250.4
98244.9
98236.1
98227.2
98216.4
98204.6
98192.1
98178.6
98166
98151.3
98139.9
98124.4
98114.7
98098.7
98092.4
98078.3
98078
98066
98236.8
98231.3
98223.6
98214.6
98204.7
98192.9
98181.4
98167.9
98156.6
98142
98132.1
98117.2
98109
98094.6
98089.6
98077.8
98077.1
98068.8
98219.9
98214.4
98207.8
98199.1
98189.9
98178.4
98167.7
98154.7
98144.2
98130.6
98121.2
98108.1
98100.1
98088.6
98082.9
98074.4
98071.7
98066.5
98199.3
98193.6
98188.4
98179.9
98171.6
98160.5
98150.6
98138.3
98128.7
98116.2
98107.5
98096
98088.5
98079.2
98073.5
98067.1
98063.5
98059.9
98174.5
98169.3
98164.7
98157.2
98149.2
98139.3
98129.9
98119
98109.7
98099.1
98090.6
98081.3
98074.1
98066.9
98061.4
98056.6
98053
98050.2
98146.3
98141.5
98137.5
98131
98123.7
98114.8
98106.2
98096.7
98088.2
98079.2
98071.5
98063.9
98057.5
98051.8
98047.1
98043.3
98040.3
98038.2
98116.2
98112.5
98108.7
98103.3
98096.8
98089.2
98081.4
98073.3
98065.7
98058.2
98051.5
98045.4
98040.1
98035.5
98031.8
98028.9
98026.7
98025.2
98088.5
98085.7
98082.4
98077.9
98072.3
98065.8
98059
98052.1
98045.5
98039.3
98033.7
98028.8
98024.5
98020.9
98018
98015.9
98014.3
98013.4
98069.9
98068
98065.2
98061.3
98056.3
98050.7
98044.7
98038.8
98033.1
98027.9
98023.1
98018.9
98015.4
98012.4
98010.1
98008.5
98007.3
98006.7
98070.2
98068.5
98066
98062.2
98057.5
98052.2
98046.6
98041
98035.7
98030.7
98026.2
98022.3
98018.9
98016.1
98013.9
98012.2
98011
98010.3
98089.9
98088
98085.2
98081.2
98076.3
98070.8
98065
98059.2
98053.6
98048.4
98043.6
98039.3
98035.6
98032.4
98029.7
98027.5
98025.9
98024.6
98120.6
98118.5
98115.1
98110.6
98105.1
98099.1
98092.8
98086.4
98080.3
98074.4
98069
98064.1
98059.7
98055.8
98052.5
98049.7
98047.3
98045.3
98155.4
98152.9
98148.8
98143.6
98137.5
98130.9
98123.9
98116.9
98110.1
98103.6
98097.4
98091.8
98086.6
98082
98077.9
98074.3
98071.2
98068.5
98189.3
98186.2
98181.4
98175.6
98168.9
98161.6
98154.1
98146.5
98139
98131.8
98125
98118.6
98112.8
98107.4
98102.6
98098.3
98094.4
98091
98219.5
98215.8
98210.3
98203.8
98196.6
98188.8
98180.8
98172.7
98164.7
98156.9
98149.5
98142.5
98136
98130.1
98124.6
98119.7
98115.2
98111.2
98244.8
98240.5
98234.2
98227
98219.3
98211.2
98202.8
98194.3
98185.9
98177.7
98169.8
98162.3
98155.3
98148.9
98142.9
98137.4
98132.5
98127.9
98265
98259.8
98252.7
98245
98237
98228.7
98220
98211.2
98202.5
98193.9
98185.7
98177.8
98170.5
98163.6
98157.2
98151.4
98146
98141.1
98280.7
98274.4
98266.3
98258.1
98250
98241.5
98232.7
98223.7
98214.8
98205.9
98197.4
98189.3
98181.7
98174.5
98167.9
98161.7
98156.1
98150.9
98292.5
98284.6
98275.6
98267.1
98258.8
98250.3
98241.4
98232.4
98223.3
98214.3
98205.6
98197.3
98189.5
98182.2
98175.3
98169
98163.1
98157.7
98301.2
98291.4
98281.3
98272.6
98264.4
98255.9
98247
98237.9
98228.8
98219.7
98210.9
98202.5
98194.6
98187.1
98180.1
98173.7
98167.7
98162.2
98307.3
98295.2
98284
98275.4
98267.4
98259
98250.2
98241.1
98231.9
98222.8
98214
98205.5
98197.5
98189.9
98182.9
98176.3
98170.3
98164.7
98313.2
98297.7
98285.6
98276.8
98268.6
98260.3
98251.5
98242.4
98233.2
98224.1
98215.2
98206.7
98198.7
98191.1
98184
98177.4
98171.4
98165.8
98310.3
98309.9
98309.1
98308
98306.5
98304.6
98302.4
98299.8
98296.8
98293.3
98289.5
98285.2
98280.6
98275.7
98270.5
98265
98259.3
98253.4
98247.3
98241
98234.6
98228
98221.3
98214.5
98207.6
98200.7
98193.6
98186.6
98179.5
98172.4
98165.3
98158.3
98151.2
98144.3
98137.4
98130.7
98124
98117.5
98111.2
98105.1
98099.2
98093.5
98088.1
98082.9
98078.1
98073.6
98069.5
98065.8
98062.5
98059.7
98057.3
98055.4
98054
98053.1
98052.9
98053.2
98054.2
98055.8
98058.1
98061
98064.7
98069.1
98074.1
98080
98086.5
98093.7
98101.7
98110.4
98119.7
98129.6
98140.2
98151.4
98163.2
98175.4
98188.2
98201.4
98215.1
98229
98243.3
98257.9
98272.7
98287.7
98302.9
98318.1
98333.4
98348.6
98363.8
98378.9
98393.8
98408.5
98423
98437.1
98450.9
98464.2
98477.1
98489.6
98501.5
98512.8
98523.5
98533.7
98543.2
98552.1
98560.3
98567.9
98574.8
98581.1
98586.9
98592
98596.6
98600.7
98604.4
98607.6
98610.5
98612.9
98615.1
98617
98618.7
98620.1
98621.4
98622.5
98623.6
98624.6
98625.8
98627.1
98628.7
98630.7
98633.4
98636.8
98641.2
98646.9
98653.9
98662.6
98673.4
98686.2
98701.6
98719.6
98740.4
98764.2
98791
98820.9
98853.9
98889.8
98928.6
98970.1
99014.5
99061.1
99110
99160.7
99213.3
99267.5
99323
99379.4
99436.4
99493.8
99551
99607.6
99663
99716.8
99767.8
99815.6
99859.1
99897.5
99929.5
99954.6
99971.3
99978.9
99976.2
99963.2
99939.2
99904.5
99859.1
99804.4
99740.4
99669.7
99592.7
99512.2
99427.6
99342.9
99256.1
99172.9
98303.3
98303
98302.2
98301
98299.5
98297.6
98295.4
98292.8
98289.8
98286.4
98282.6
98278.5
98274
98269.2
98264.1
98258.8
98253.3
98247.5
98241.6
98235.5
98229.3
98222.9
98216.4
98209.8
98203
98196.2
98189.4
98182.5
98175.5
98168.6
98161.7
98154.7
98147.9
98141.1
98134.4
98127.8
98121.3
98114.9
98108.7
98102.7
98096.9
98091.3
98086
98081
98076.3
98071.9
98067.8
98064.2
98060.9
98058.1
98055.7
98053.8
98052.4
98051.5
98051.2
98051.5
98052.4
98053.9
98056.1
98059
98062.6
98066.9
98071.8
98077.5
98083.9
98091
98098.8
98107.3
98116.5
98126.3
98136.7
98147.6
98159.2
98171.3
98183.8
98196.8
98210.2
98224
98238
98252.4
98267
98281.7
98296.6
98311.6
98326.6
98341.5
98356.5
98371.2
98385.9
98400.3
98414.4
98428.3
98441.7
98454.8
98467.4
98479.6
98491.2
98502.3
98512.8
98522.7
98531.9
98540.6
98548.6
98556
98562.8
98568.9
98574.5
98579.5
98584
98588
98591.6
98594.7
98597.5
98599.9
98602
98603.9
98605.5
98606.8
98608
98609.1
98610.1
98611
98612.1
98613.2
98614.7
98616.5
98619
98622.1
98626.2
98631.5
98638.2
98646.4
98656.7
98669
98683.7
98701.1
98721.2
98744.2
98770.2
98799.1
98831.1
98866.1
98903.8
98944.3
98987.5
99033
99080.7
99130.3
99181.7
99234.7
99289.1
99344.3
99400.2
99456.5
99512.7
99568.3
99622.8
99675.8
99726.1
99773.3
99816.4
99854.5
99886.4
99911.6
99928.7
99936.8
99935
99923.1
99900.3
99867.2
99823.4
99770.3
99708.2
99639.3
99564
99485.2
99402.3
99319.1
99233.3
99148.3
98290.6
98290.3
98289.5
98288.3
98286.7
98284.7
98282.4
98279.8
98276.8
98273.4
98269.7
98265.6
98261.3
98256.7
98251.9
98246.8
98241.6
98236.2
98230.6
98224.9
98219.1
98213.1
98206.9
98200.7
98194.3
98187.9
98181.3
98174.7
98168.1
98161.4
98154.8
98148.1
98141.5
98135
98128.5
98122.2
98115.9
98109.8
98103.8
98098
98092.4
98087
98081.9
98077
98072.4
98068.1
98064.2
98060.6
98057.4
98054.6
98052.2
98050.3
98048.9
98047.9
98047.5
98047.7
98048.6
98050
98052
98054.8
98058.2
98062.2
98067
98072.4
98078.5
98085.4
98092.9
98101.1
98109.9
98119.3
98129.4
98140
98151.2
98162.9
98175
98187.6
98200.6
98213.9
98227.5
98241.4
98255.5
98269.8
98284.2
98298.7
98313.2
98327.7
98342
98356.3
98370.4
98384.2
98397.8
98411.1
98424
98436.5
98448.6
98460.2
98471.3
98481.8
98491.8
98501.2
98510
98518.3
98525.9
98532.9
98539.3
98545.2
98550.5
98555.2
98559.5
98563.2
98566.6
98569.6
98572.2
98574.5
98576.5
98578.2
98579.7
98580.9
98582
98582.9
98583.7
98584.4
98585.2
98586.1
98587.2
98588.6
98590.5
98593.1
98596.6
98601.1
98607
98614.4
98623.6
98634.8
98648.3
98664.3
98682.9
98704.3
98728.6
98755.7
98785.9
98818.7
98854.4
98892.7
98933.7
98976.9
99022.3
99069.5
99118.6
99169.2
99221.2
99274.1
99327.8
99381.9
99436
99489.6
99542.2
99593.4
99642.1
99688
99729.9
99767.2
99798.6
99823.7
99841.2
99850
99849.6
99839.5
99819
99788.5
99747.8
99698.2
99639.6
99574.4
99502.7
99427.5
99348
99268
99185
99101.1
98273.2
98272.9
98272.1
98270.9
98269.3
98267.3
98265
98262.3
98259.3
98256
98252.4
98248.5
98244.4
98240
98235.4
98230.7
98225.8
98220.8
98215.7
98210.4
98205
98199.4
98193.8
98188
98182.1
98176.1
98170.1
98163.9
98157.8
98151.6
98145.4
98139.2
98133
98126.9
98120.8
98114.8
98108.9
98103.1
98097.4
98091.9
98086.6
98081.4
98076.5
98071.8
98067.3
98063.2
98059.4
98055.9
98052.8
98050
98047.7
98045.8
98044.3
98043.3
98042.8
98042.9
98043.6
98044.8
98046.7
98049.2
98052.3
98056.1
98060.5
98065.6
98071.3
98077.8
98084.9
98092.6
98101
98110
98119.5
98129.7
98140.3
98151.5
98163.1
98175.1
98187.4
98200.1
98213.1
98226.4
98239.8
98253.4
98267.1
98280.9
98294.6
98308.4
98322
98335.6
98348.9
98362
98374.8
98387.4
98399.5
98411.3
98422.6
98433.4
98443.7
98453.6
98462.8
98471.6
98479.8
98487.4
98494.4
98500.9
98506.8
98512.2
98517.1
98521.5
98525.4
98528.9
98532
98534.7
98537.1
98539.2
98541
98542.6
98543.8
98544.9
98545.7
98546.4
98546.9
98547.3
98547.7
98548.1
98548.7
98549.6
98550.8
98552.6
98555.1
98558.7
98563.4
98569.4
98577.2
98586.9
98598.6
98612.7
98629.3
98648.5
98670.4
98695.1
98722.6
98752.7
98785.4
98820.8
98858.7
98898.7
98940.9
98985
99030.9
99078.4
99127.1
99177
99227.6
99278.8
99330
99380.8
99430.8
99479.5
99526.2
99570.1
99610.4
99646.5
99677
99701.8
99719.4
99729.1
99730
99721.9
99704.2
99677
99640.2
99594.8
99540.9
99480.5
99413.7
99343.3
99268.5
99193
99114.2
99034.1
98252
98251.7
98251
98249.9
98248.3
98246.4
98244.2
98241.5
98238.6
98235.4
98231.9
98228.2
98224.3
98220.2
98215.9
98211.5
98207
98202.4
98197.6
98192.8
98187.8
98182.8
98177.7
98172.4
98167
98161.6
98156.1
98150.6
98145
98139.4
98133.7
98128.1
98122.5
98116.8
98111.3
98105.8
98100.3
98095
98089.7
98084.6
98079.6
98074.8
98070.1
98065.7
98061.5
98057.5
98053.9
98050.5
98047.5
98044.8
98042.5
98040.6
98039.1
98038
98037.4
98037.4
98037.8
98038.9
98040.5
98042.6
98045.4
98048.8
98052.8
98057.5
98062.8
98068.7
98075.3
98082.5
98090.3
98098.7
98107.6
98117.1
98127.1
98137.5
98148.4
98159.7
98171.3
98183.2
98195.4
98207.8
98220.4
98233.1
98245.9
98258.8
98271.7
98284.5
98297.2
98309.8
98322.2
98334.4
98346.3
98357.9
98369.1
98380
98390.3
98400.2
98409.7
98418.6
98427
98435
98442.3
98449.2
98455.5
98461.3
98466.7
98471.5
98475.8
98479.8
98483.3
98486.3
98489.1
98491.5
98493.6
98495.5
98497
98498.3
98499.3
98500.1
98500.6
98500.9
98501.1
98501.1
98501
98500.9
98500.8
98500.9
98501.3
98502.1
98503.5
98505.8
98509.1
98513.6
98519.6
98527.3
98537
98548.8
98562.9
98579.5
98598.5
98620.1
98644.4
98671.2
98700.5
98732.2
98766.5
98802.8
98841.1
98881.4
98923.5
98967.1
99012.2
99058.2
99105.2
99152.9
99200.5
99248
99294.8
99340.6
99384.6
99426.1
99464.4
99498.8
99528.2
99552.3
99570
99580.3
99582.6
99576.7
99561.9
99538.5
99506.1
99465.7
99417.1
99362.5
99301.4
99237
99168
99098.1
99024.8
98950.1
98228.6
98228.4
98227.8
98226.7
98225.3
98223.5
98221.4
98218.9
98216.2
98213.1
98209.8
98206.3
98202.6
98198.8
98194.8
98190.7
98186.5
98182.3
98177.9
98173.5
98169
98164.4
98159.8
98155
98150.2
98145.4
98140.5
98135.5
98130.5
98125.5
98120.5
98115.4
98110.4
98105.4
98100.4
98095.4
98090.6
98085.7
98081
98076.3
98071.7
98067.3
98063
98058.9
98055
98051.3
98047.8
98044.6
98041.7
98039.1
98036.9
98035
98033.4
98032.3
98031.6
98031.4
98031.6
98032.4
98033.7
98035.6
98038
98040.9
98044.5
98048.6
98053.4
98058.7
98064.7
98071.2
98078.3
98086
98094.2
98102.9
98112.1
98121.8
98131.8
98142.2
98152.9
98163.9
98175.2
98186.6
98198.2
98210
98221.8
98233.6
98245.4
98257.2
98268.8
98280.4
98291.7
98302.8
98313.6
98324.1
98334.3
98344
98353.4
98362.2
98370.7
98378.6
98386.1
98393.1
98399.6
98405.6
98411.1
98416.2
98420.8
98425
98428.7
98432.1
98435.1
98437.7
98440.1
98442.1
98443.9
98445.3
98446.5
98447.5
98448.1
98448.5
98448.7
98448.7
98448.3
98447.9
98447.2
98446.4
98445.6
98444.9
98444.3
98444
98444.1
98444.9
98446.6
98449.4
98453.4
98458.9
98466.2
98475.4
98486.8
98500.3
98516.2
98534.4
98555.2
98578.2
98603.7
98631.4
98661.5
98693.7
98727.9
98764
98801.9
98841.3
98882.2
98924.2
98967.1
99010.7
99054.4
99098.2
99141.6
99183.9
99224.8
99263.7
99299.6
99332
99359.9
99383.1
99400.4
99411.1
99414.7
99411
99399.2
99379.7
99351.9
99316.7
99273.9
99225.4
99170.7
99112.9
99050.4
98987.1
98920.2
98852.1
98204.2
98204
98203.5
98202.6
98201.3
98199.7
98197.7
98195.5
98193
98190.2
98187.1
98183.9
98180.5
98177
98173.3
98169.5
98165.7
98161.8
98157.8
98153.8
98149.7
98145.5
98141.3
98137.1
98132.8
98128.5
98124.1
98119.8
98115.4
98110.9
98106.5
98102
98097.6
98093.2
98088.8
98084.4
98080.1
98075.8
98071.5
98067.3
98063.2
98059.2
98055.3
98051.5
98047.9
98044.5
98041.3
98038.3
98035.5
98033
98030.8
98028.9
98027.4
98026.2
98025.3
98024.9
98025
98025.5
98026.5
98028
98030
98032.5
98035.6
98039.2
98043.3
98048
98053.3
98059.2
98065.5
98072.4
98079.8
98087.7
98096
98104.7
98113.8
98123.3
98133
98143
98153.2
98163.6
98174.2
98184.8
98195.5
98206.2
98216.8
98227.4
98237.9
98248.2
98258.4
98268.3
98277.9
98287.3
98296.2
98304.8
98313
98320.8
98328.1
98335
98341.5
98347.5
98353.1
98358.2
98362.9
98367.1
98371
98374.5
98377.5
98380.3
98382.7
98384.8
98386.7
98388.3
98389.6
98390.6
98391.4
98392
98392.2
98392.2
98392
98391.4
98390.6
98389.6
98388.3
98386.8
98385.1
98383.4
98381.8
98380.2
98378.9
98378.2
98378.2
98379.1
98380.9
98384.1
98388.9
98395.4
98403.7
98414.2
98426.6
98441.3
98458.3
98477.5
98498.9
98522.5
98548.3
98576.2
98606
98637.8
98671.2
98706.2
98742.7
98780.4
98819
98858.3
98898
98937.9
98977.5
99016.2
99053.7
99089.4
99122.7
99152.8
99178.8
99200.7
99217.4
99228.3
99233
99231.3
99222.3
99206.6
99183.1
99153.2
99116.1
99074
99026
98975.2
98919.7
98863.4
98803.5
98742.7
98180
98179.9
98179.5
98178.7
98177.6
98176.2
98174.5
98172.6
98170.3
98167.8
98165.1
98162.2
98159.1
98155.9
98152.5
98149.1
98145.6
98142
98138.4
98134.7
98131
98127.3
98123.5
98119.7
98115.9
98112.1
98108.3
98104.4
98100.5
98096.6
98092.7
98088.8
98084.9
98081.1
98077.2
98073.4
98069.5
98065.7
98062
98058.2
98054.5
98050.9
98047.4
98043.9
98040.6
98037.5
98034.5
98031.7
98029.1
98026.7
98024.5
98022.6
98021.1
98019.8
98018.8
98018.3
98018.1
98018.4
98019
98020.2
98021.7
98023.8
98026.3
98029.4
98032.9
98037
98041.6
98046.7
98052.3
98058.4
98065
98071.9
98079.3
98087.1
98095.3
98103.7
98112.4
98121.4
98130.5
98139.8
98149.2
98158.7
98168.2
98177.7
98187.1
98196.5
98205.7
98214.8
98223.7
98232.4
98240.8
98248.9
98256.6
98264
98271
98277.7
98283.9
98289.7
98295.1
98300.1
98304.7
98308.9
98312.7
98316.1
98319.2
98321.9
98324.3
98326.3
98328.2
98329.7
98331.1
98332.1
98332.9
98333.5
98333.8
98333.9
98333.7
98333.2
98332.4
98331.4
98330
98328.3
98326.3
98323.9
98321.4
98318.6
98315.8
98313
98310.3
98308
98306.2
98305.1
98304.8
98305.6
98307.8
98311.5
98316.9
98324.1
98333.1
98344.3
98357.4
98372.7
98390.2
98409.6
98431.1
98454.6
98480
98507.4
98536.4
98567
98599.1
98632.4
98666.6
98701.6
98737.2
98773.2
98808.8
98843.8
98877.6
98910
98940.2
98967.8
98991.6
99011.8
99027.5
99038.4
99043.7
99043.6
99037.1
99024.7
99005.3
98980.4
98948.9
98913
98871.7
98827.9
98779.5
98730.6
98677.9
98624.8
98157.2
98157.2
98156.9
98156.2
98155.3
98154.1
98152.7
98150.9
98149
98146.8
98144.4
98141.8
98139.1
98136.2
98133.2
98130.1
98127
98123.8
98120.5
98117.2
98113.9
98110.6
98107.2
98103.9
98100.5
98097.1
98093.8
98090.4
98086.9
98083.5
98080.1
98076.7
98073.2
98069.8
98066.4
98063
98059.7
98056.3
98052.9
98049.6
98046.2
98043
98039.8
98036.6
98033.6
98030.6
98027.8
98025.2
98022.7
98020.4
98018.3
98016.4
98014.8
98013.4
98012.3
98011.6
98011.2
98011.2
98011.6
98012.3
98013.5
98015.1
98017.2
98019.7
98022.6
98026.1
98030
98034.4
98039.2
98044.5
98050.2
98056.3
98062.8
98069.7
98076.8
98084.3
98092
98099.8
98107.9
98116
98124.3
98132.6
98140.9
98149.2
98157.4
98165.6
98173.6
98181.4
98189
98196.4
98203.5
98210.3
98216.9
98223
98228.9
98234.3
98239.4
98244.1
98248.4
98252.4
98256
98259.2
98262.1
98264.7
98267
98268.9
98270.6
98272
98273.1
98274.1
98274.8
98275.4
98275.6
98275.6
98275.4
98274.9
98274.2
98273.2
98271.8
98270.2
98268.1
98265.7
98262.9
98259.7
98256.2
98252.4
98248.4
98244.3
98240.3
98236.3
98232.7
98229.7
98227.3
98225.8
98225.4
98226.3
98228.8
98232.8
98238.5
98246.2
98255.6
98267.2
98280.7
98296.2
98313.5
98332.8
98353.9
98377.1
98401.8
98428.1
98455.8
98484.8
98514.7
98545.6
98577.1
98609
98640.6
98671.7
98701.9
98730.7
98757.7
98782.4
98803.8
98822
98836.3
98846.5
98852.1
98853.1
98848.5
98838.9
98823.1
98802.7
98776.3
98746.4
98711.6
98674.8
98633.3
98591.8
98546.4
98501.2
98136.5
98136.6
98136.4
98135.9
98135.2
98134.2
98133
98131.6
98129.9
98128
98126
98123.7
98121.3
98118.8
98116.2
98113.5
98110.7
98107.9
98105
98102.1
98099.1
98096.2
98093.3
98090.3
98087.3
98084.3
98081.3
98078.3
98075.3
98072.3
98069.3
98066.2
98063.2
98060.2
98057.2
98054.1
98051.1
98048.1
98045
98042
98038.9
98035.9
98033
98030
98027.2
98024.4
98021.8
98019.2
98016.8
98014.6
98012.5
98010.6
98008.9
98007.4
98006.2
98005.3
98004.7
98004.4
98004.5
98004.9
98005.7
98006.9
98008.5
98010.5
98012.9
98015.7
98019
98022.7
98026.8
98031.3
98036.2
98041.5
98047.1
98053
98059.3
98065.7
98072.4
98079.3
98086.2
98093.3
98100.5
98107.6
98114.8
98121.9
98128.9
98135.8
98142.6
98149.1
98155.5
98161.6
98167.5
98173.1
98178.4
98183.4
98188
98192.3
98196.2
98199.8
98203
98205.9
98208.5
98210.8
98212.8
98214.5
98216
98217.1
98218.1
98218.8
98219.2
98219.5
98219.6
98219.5
98219.2
98218.7
98217.9
98216.8
98215.4
98213.7
98211.7
98209.4
98206.6
98203.4
98199.8
98195.8
98191.3
98186.4
98181.3
98175.9
98170.6
98165.2
98159.8
98154.9
98150.5
98146.8
98144
98142.3
98141.9
98142.9
98145.5
98149.8
98155.8
98163.7
98173.5
98185.2
98198.7
98214.1
98231.2
98250.4
98271
98293.3
98316.8
98341.6
98367.5
98394.3
98421.8
98449.7
98477.3
98504.6
98530.9
98556.1
98579.7
98601.5
98620.2
98636
98648.4
98657.6
98662.7
98664.2
98660.9
98653.4
98640.8
98624.3
98602.6
98578.2
98549.5
98519
98484.3
98450
98411.7
98374.3
98118.7
98118.8
98118.7
98118.3
98117.8
98117
98116
98114.8
98113.5
98111.9
98110.2
98108.3
98106.3
98104.1
98101.9
98099.6
98097.2
98094.7
98092.2
98089.7
98087.1
98084.6
98082
98079.4
98076.8
98074.2
98071.5
98068.8
98066.2
98063.5
98060.8
98058.1
98055.3
98052.6
98049.9
98047.1
98044.3
98041.5
98038.7
98035.9
98033.1
98030.2
98027.4
98024.7
98021.9
98019.3
98016.7
98014.2
98011.8
98009.6
98007.4
98005.5
98003.7
98002.1
98000.8
97999.7
97998.9
97998.3
97998.1
97998.2
97998.7
97999.5
98000.6
98002.2
98004.1
98006.4
98009.1
98012.1
98015.6
98019.4
98023.5
98028
98032.8
98037.9
98043.3
98048.8
98054.5
98060.4
98066.4
98072.4
98078.5
98084.6
98090.6
98096.6
98102.4
98108.2
98113.8
98119.1
98124.3
98129.2
98133.9
98138.3
98142.4
98146.2
98149.6
98152.8
98155.6
98158
98160.2
98162.1
98163.7
98165
98166.1
98166.9
98167.5
98167.8
98168
98167.9
98167.7
98167.3
98166.7
98165.9
98164.9
98163.7
98162.3
98160.6
98158.5
98156.1
98153.4
98150.3
98146.7
98142.8
98138.3
98133.3
98127.9
98122
98115.9
98109.3
98102.6
98095.8
98089
98082.4
98076.1
98070.3
98065.3
98061.2
98058.2
98056.4
98056
98057.3
98060.1
98064.8
98071.1
98079.4
98089.4
98101.2
98114.7
98130.1
98147.1
98165.6
98185.2
98206.2
98228.2
98251.1
98274.8
98298.7
98322.4
98346
98368.5
98390
98410.1
98428.5
98444.4
98457.6
98467.7
98475.2
98479.2
98480.4
98477.8
98471.9
98461.8
98448.6
98430.9
98411.4
98388.2
98363.6
98335.1
98307.7
98276.3
98246.3
98104
98104.2
98104.2
98103.9
98103.5
98102.9
98102.2
98101.3
98100.2
98098.9
98097.5
98096
98094.3
98092.6
98090.7
98088.8
98086.7
98084.7
98082.6
98080.4
98078.3
98076.1
98073.8
98071.6
98069.3
98067
98064.6
98062.3
98059.9
98057.4
98055
98052.5
98050
98047.5
98044.9
98042.3
98039.7
98037.1
98034.4
98031.7
98029
98026.2
98023.5
98020.8
98018.1
98015.5
98012.9
98010.4
98008
98005.7
98003.5
98001.4
97999.5
97997.8
97996.3
97995.1
97994.1
97993.3
97992.8
97992.7
97992.8
97993.3
97994
97995.2
97996.6
97998.4
98000.6
98003.1
98005.9
98009.1
98012.6
98016.4
98020.5
98024.8
98029.3
98034
98038.9
98043.8
98048.9
98054
98059.1
98064.1
98069.1
98074.1
98078.8
98083.5
98088
98092.2
98096.2
98100
98103.5
98106.8
98109.7
98112.4
98114.7
98116.7
98118.5
98119.9
98121
98121.8
98122.4
98122.8
98122.9
98122.9
98122.6
98122.1
98121.4
98120.5
98119.5
98118.3
98117
98115.5
98113.7
98111.8
98109.7
98107.2
98104.4
98101.3
98097.8
98094
98089.6
98084.8
98079.5
98073.7
98067.3
98060.5
98053.3
98045.7
98037.8
98029.7
98021.4
98013.3
98005.3
97997.8
97990.8
97984.4
97979.1
97974.9
97971.9
97970.4
97970.5
97972.2
97975.5
97980.7
97987.6
97996.2
98006.5
98018.6
98032.2
98047.4
98063.6
98081.1
98099.5
98118.7
98138.7
98158.8
98178.8
98198.7
98217.4
98235
98251.5
98266.4
98279.3
98289.5
98297
98302.3
98304.7
98304.9
98302.3
98297.4
98289
98278.5
98264.3
98248.9
98230.3
98211.1
98188.4
98167.2
98142.2
98119.4
98092.6
98092.8
98092.9
98092.7
98092.4
98092
98091.5
98090.8
98090
98089
98088
98086.8
98085.5
98084.1
98082.6
98081.1
98079.5
98077.9
98076.2
98074.4
98072.6
98070.8
98068.9
98067
98065
98062.9
98060.9
98058.7
98056.5
98054.3
98052
98049.7
98047.3
98044.9
98042.5
98040
98037.4
98034.8
98032.2
98029.5
98026.8
98024.1
98021.4
98018.6
98015.9
98013.2
98010.6
98008
98005.5
98003.1
98000.8
97998.7
97996.6
97994.8
97993.1
97991.7
97990.5
97989.5
97988.8
97988.4
97988.3
97988.4
97988.9
97989.7
97990.8
97992.2
97993.9
97995.9
97998.2
98000.8
98003.8
98006.9
98010.3
98014
98017.8
98021.8
98025.8
98030
98034.2
98038.4
98042.7
98046.8
98050.9
98054.8
98058.6
98062.3
98065.7
98068.9
98071.9
98074.6
98077
98079.2
98081
98082.6
98083.8
98084.8
98085.5
98085.9
98086
98085.8
98085.4
98084.8
98084
98083
98081.8
98080.5
98079
98077.3
98075.5
98073.5
98071.3
98069
98066.5
98063.8
98060.9
98057.6
98054
98050.1
98045.8
98041.2
98036
98030.4
98024.3
98017.6
98010.4
98002.7
97994.5
97985.9
97976.9
97967.7
97958.2
97948.7
97939.3
97930.2
97921.4
97913.2
97905.9
97899.5
97894.3
97890.5
97888.1
97887.3
97888.1
97890.6
97894.8
97900.6
97908.1
97917.3
97927.9
97940
97953.1
97967.4
97982.4
97998.3
98014.9
98031.5
98047.9
98064.1
98079
98092.8
98105.6
98116.8
98126.4
98133.5
98138.2
98141.1
98141.3
98139.9
98136.6
98131.9
98124.7
98116.1
98104.8
98092.7
98078.1
98063.7
98046.1
98030.6
98011.5
97995.4
98084.2
98084.4
98084.5
98084.5
98084.4
98084.1
98083.8
98083.4
98082.9
98082.2
98081.5
98080.7
98079.8
98078.8
98077.7
98076.6
98075.5
98074.2
98073
98071.6
98070.2
98068.7
98067.2
98065.5
98063.8
98062
98060.2
98058.2
98056.2
98054.1
98051.9
98049.7
98047.4
98045
98042.6
98040.1
98037.5
98034.9
98032.2
98029.5
98026.7
98023.9
98021.1
98018.3
98015.4
98012.7
98009.9
98007.2
98004.6
98002
97999.6
97997.3
97995.1
97993.1
97991.3
97989.7
97988.3
97987.1
97986.2
97985.6
97985.2
97985.2
97985.3
97985.8
97986.6
97987.7
97989
97990.7
97992.6
97994.7
97997.2
97999.8
98002.7
98005.7
98008.9
98012.2
98015.6
98019.1
98022.6
98026.1
98029.5
98032.8
98036.1
98039.2
98042.1
98044.8
98047.3
98049.5
98051.5
98053.2
98054.6
98055.8
98056.6
98057.2
98057.4
98057.4
98057.1
98056.5
98055.6
98054.4
98053.1
98051.5
98049.8
98047.9
98045.8
98043.6
98041.2
98038.7
98036
98033.1
98030.1
98027
98023.7
98020.1
98016.3
98012.2
98007.8
98003.1
97998
97992.5
97986.5
97980.1
97973.1
97965.6
97957.7
97949.2
97940.1
97930.6
97920.8
97910.6
97900.1
97889.5
97878.9
97868.4
97858.1
97848.4
97839.3
97831.2
97824.1
97818.4
97813.9
97810.9
97809.6
97809.8
97811.7
97815.1
97820.1
97826.7
97834.6
97843.9
97854.2
97865.7
97877.8
97890.7
97903.9
97917.2
97930.2
97942.7
97954
97964.1
97973
97980.6
97986.6
97990.5
97992.2
97992.6
97990.4
97987
97982.5
97977.3
97970.6
97963.3
97954
97944.7
97933.3
97923
97909.9
97899.6
97885.6
97875.8
98078.2
98078.5
98078.7
98078.7
98078.7
98078.7
98078.6
98078.4
98078.2
98077.9
98077.6
98077.2
98076.8
98076.3
98075.7
98075
98074.3
98073.6
98072.7
98071.7
98070.7
98069.6
98068.3
98067
98065.5
98063.9
98062.2
98060.4
98058.5
98056.5
98054.4
98052.2
98049.9
98047.5
98045
98042.4
98039.8
98037
98034.2
98031.4
98028.5
98025.5
98022.6
98019.6
98016.6
98013.7
98010.7
98007.9
98005.1
98002.4
97999.8
97997.3
97995
97992.8
97990.9
97989.1
97987.5
97986.2
97985.2
97984.3
97983.8
97983.5
97983.5
97983.7
97984.3
97985.1
97986.1
97987.4
97989
97990.8
97992.9
97995.1
97997.5
98000.1
98002.8
98005.5
98008.4
98011.2
98014.1
98016.9
98019.7
98022.3
98024.8
98027.1
98029.2
98031.1
98032.7
98034.1
98035.2
98036
98036.5
98036.7
98036.6
98036.3
98035.6
98034.6
98033.3
98031.8
98029.9
98027.8
98025.5
98023.1
98020.4
98017.6
98014.6
98011.5
98008.2
98004.8
98001.2
97997.5
97993.6
97989.6
97985.4
97981
97976.3
97971.3
97966.1
97960.5
97954.6
97948.3
97941.5
97934.3
97926.5
97918.3
97909.7
97900.5
97890.7
97880.5
97869.9
97858.9
97847.6
97836.1
97824.5
97812.9
97801.4
97790.3
97780
97770.5
97761.9
97754.4
97748.3
97743.6
97740.4
97738.7
97738.5
97739.9
97742.7
97747
97752.6
97759.4
97767.3
97776.3
97785.8
97795.7
97805.8
97815.9
97825.6
97834.6
97842.3
97848.9
97854
97857.9
97860.2
97860.7
97859.3
97857
97852.4
97846.9
97840.8
97834.6
97827.7
97821.2
97813.2
97806
97797.3
97790.4
97781
97775.3
97765.9
97761.6
98073.8
98074.1
98074.4
98074.5
98074.7
98074.9
98075
98075.2
98075.4
98075.6
98075.8
98076
98076.1
98076.1
98076.1
98076
98075.8
98075.4
98075
98074.4
98073.7
98072.9
98072
98070.9
98069.6
98068.2
98066.6
98064.9
98063.1
98061.1
98059
98056.7
98054.4
98051.9
98049.3
98046.6
98043.8
98041
98038
98035
98031.9
98028.8
98025.6
98022.4
98019.3
98016.1
98013
98010
98007
98004.1
98001.3
97998.7
97996.2
97993.9
97991.8
97989.9
97988.3
97986.8
97985.6
97984.6
97983.9
97983.5
97983.3
97983.4
97983.7
97984.3
97985.1
97986.2
97987.5
97989.1
97990.8
97992.7
97994.8
97996.9
97999.2
98001.5
98003.9
98006.3
98008.6
98010.8
98013
98015
98016.8
98018.4
98019.8
98021
98021.9
98022.4
98022.7
98022.7
98022.4
98021.8
98020.9
98019.6
98018.1
98016.2
98014
98011.6
98008.9
98005.9
98002.7
97999.3
97995.8
97992.1
97988.2
97984.2
97980.1
97975.8
97971.3
97966.7
97962
97957
97951.9
97946.5
97941
97935.2
97929.1
97922.7
97916
97908.8
97901.3
97893.3
97884.9
97876
97866.7
97856.9
97846.6
97835.8
97824.6
97813
97801
97788.8
97776.3
97763.9
97751.5
97739.6
97728.2
97717.6
97707.7
97698.9
97691.5
97685.3
97680.5
97677.2
97675.3
97674.9
97675.9
97678.3
97681.8
97686.4
97692.1
97698.9
97706
97713.1
97720.3
97727.1
97733.8
97739.5
97743.8
97746.9
97748.2
97748.4
97746.9
97744
97739.5
97734.3
97727.3
97719.6
97711.6
97704.2
97696.8
97690.4
97683.2
97677.5
97670.8
97666.7
97660.3
97658.6
97653.3
97654
98070.1
98070.2
98070.5
98070.6
98070.9
98071.4
98072
98072.8
98073.6
98074.5
98075.4
98076.3
98077.1
98077.8
98078.3
98078.8
98079.1
98079.2
98079.2
98079
98078.6
98078.1
98077.4
98076.5
98075.4
98074.1
98072.6
98071
98069.1
98067.1
98065
98062.7
98060.3
98057.7
98055
98052.1
98049.2
98046.2
98043
98039.8
98036.5
98033.2
98029.9
98026.5
98023.1
98019.8
98016.5
98013.2
98010.1
98007.1
98004.1
98001.4
97998.8
97996.3
97994.1
97992.1
97990.3
97988.7
97987.4
97986.4
97985.5
97985
97984.7
97984.6
97984.8
97985.3
97986
97986.9
97988
97989.3
97990.8
97992.5
97994.3
97996.1
97998
98000
98002
98003.9
98005.7
98007.5
98009.1
98010.6
98011.8
98012.8
98013.6
98014.1
98014.3
98014.2
98013.8
98013.1
98012
98010.6
98008.9
98006.8
98004.5
98001.8
97998.8
97995.6
97992
97988.2
97984.2
97979.9
97975.5
97971
97966.3
97961.4
97956.4
97951.3
97946
97940.5
97934.9
97929
97923
97916.8
97910.3
97903.7
97896.8
97889.6
97882.1
97874.3
97866
97857.3
97848.3
97838.9
97829
97818.6
97807.8
97796.6
97784.9
97772.9
97760.3
97747.5
97734.5
97721.5
97708.5
97695.9
97683.8
97672.2
97661.4
97651.6
97642.9
97635.5
97629.4
97624.7
97621.4
97619.5
97619
97619.7
97621.3
97624.1
97627.9
97632.4
97637.3
97642
97646.3
97650.2
97653.7
97656.3
97657.5
97657.2
97654.9
97651.3
97646.2
97639.9
97632.2
97623.9
97614.5
97604.7
97594.8
97586.1
97577.8
97571.1
97564.2
97559.7
97554.4
97552.4
97548.6
97550.4
97548.6
97553.6
98065.2
98065.2
98065.2
98065.6
98066.3
98067.6
98069
98070.8
98072.5
98074.4
98076.1
98077.8
98079.3
98080.7
98081.9
98082.9
98083.7
98084.2
98084.6
98084.7
98084.6
98084.3
98083.8
98083
98082.1
98080.9
98079.5
98077.9
98076
98074
98071.8
98069.5
98066.9
98064.2
98061.4
98058.4
98055.3
98052.1
98048.8
98045.4
98042
98038.5
98034.9
98031.4
98027.8
98024.3
98020.8
98017.5
98014.2
98011
98007.9
98005
98002.3
97999.8
97997.5
97995.4
97993.5
97991.8
97990.5
97989.3
97988.4
97987.8
97987.4
97987.3
97987.4
97987.7
97988.3
97989.1
97990.1
97991.3
97992.6
97994
97995.6
97997.2
97998.8
98000.4
98002.1
98003.6
98005
98006.3
98007.5
98008.5
98009.2
98009.7
98009.9
98009.8
98009.4
98008.7
98007.6
98006.2
98004.5
98002.4
97999.9
97997.1
97994
97990.6
97986.9
97982.9
97978.6
97974
97969.2
97964.2
97958.9
97953.6
97948.1
97942.4
97936.6
97930.6
97924.5
97918.2
97911.8
97905.1
97898.3
97891.2
97884
97876.5
97868.9
97860.9
97852.7
97844.2
97835.3
97826.1
97816.5
97806.6
97796.3
97785.5
97774.3
97762.7
97750.7
97738.3
97725.3
97712.1
97698.7
97685.3
97671.9