/*--------------------------------*- C++ -*----------------------------------*\
| =========                 |                                                 |
| \\      /  F ield         | OpenFOAM: The Open Source CFD Toolbox           |
|  \\    /   O peration     | Version:  dev                                   |
|   \\  /    A nd           | Web:      http://www.openfoam.org               |
|    \\/     M anipulation  |                                                 |
\*---------------------------------------------------------------------------*/
FoamFile
{
    version     2.0;
    format      ascii;
    class       volScalarField;
    object      rho;
    location    "9.156";
}
// * * * * * * * * * * * * * * * * * * * * * * * * * * * * * * * * * * * * * //

dimensions      [1 -3 0 0 0 0 0];

internalField   nonuniform List<scalar> 
12225
(
1.14238
1.14263
1.14194
1.14062
1.13931
1.1375
1.13602
1.13391
1.13223
1.12992
1.1281
1.12548
1.12366
1.1201
1.11906
1.11372
1.12002
1.12077
1.14208
1.14442
1.14389
1.14264
1.14076
1.13927
1.13702
1.13546
1.133
1.13124
1.12892
1.12631
1.12502
1.12015
1.12069
1.11248
1.12338
1.12309
1.14227
1.14512
1.14422
1.14329
1.14125
1.13991
1.13755
1.13586
1.13352
1.13139
1.12929
1.12705
1.12464
1.12281
1.12135
1.12004
1.12333
1.12507
1.14198
1.14488
1.14464
1.1432
1.14196
1.13968
1.13847
1.13546
1.13439
1.13065
1.13015
1.12618
1.12534
1.12037
1.1203
1.11734
1.12077
1.12372
1.14254
1.14468
1.14481
1.14316
1.14216
1.13955
1.13848
1.13573
1.13441
1.13089
1.13003
1.12691
1.12567
1.12125
1.12111
1.11575
1.11579
1.1194
1.14287
1.14431
1.14479
1.14279
1.14209
1.13922
1.13892
1.13548
1.13491
1.13065
1.13089
1.12691
1.12657
1.12219
1.12289
1.11721
1.11861
1.11675
1.14268
1.1448
1.14471
1.14308
1.1417
1.14002
1.13857
1.13618
1.13442
1.13201
1.1304
1.12808
1.12629
1.12379
1.12191
1.11997
1.11989
1.11574
1.1427
1.14461
1.14496
1.14295
1.14204
1.14012
1.13889
1.13619
1.13471
1.13198
1.13047
1.12772
1.12665
1.12364
1.1217
1.11987
1.1185
1.1161
1.1425
1.14491
1.14474
1.14335
1.14183
1.14053
1.1386
1.13673
1.13457
1.13245
1.1305
1.12827
1.12662
1.1243
1.12208
1.12008
1.11825
1.11637
1.14283
1.14494
1.14493
1.14347
1.14217
1.14061
1.13873
1.1367
1.13471
1.13243
1.13059
1.12832
1.12681
1.12462
1.12231
1.12045
1.11854
1.11676
1.14272
1.1448
1.14513
1.14346
1.14239
1.14075
1.13898
1.13699
1.13518
1.1329
1.13106
1.129
1.12743
1.12518
1.1231
1.1211
1.11958
1.11799
1.14252
1.14479
1.14517
1.14354
1.14255
1.14081
1.13919
1.13721
1.13551
1.13334
1.13169
1.12949
1.12799
1.1259
1.12386
1.12195
1.12031
1.11871
1.14245
1.14533
1.14523
1.14387
1.14256
1.14101
1.13946
1.13759
1.13584
1.13375
1.13206
1.13
1.12819
1.12644
1.12466
1.1227
1.12124
1.11988
1.14277
1.14563
1.14525
1.14426
1.14269
1.14119
1.13962
1.13787
1.13617
1.13435
1.13266
1.13082
1.12896
1.12728
1.12562
1.12404
1.12254
1.12119
1.14258
1.14579
1.14539
1.14441
1.14297
1.14166
1.14015
1.13857
1.13689
1.13509
1.13335
1.13167
1.12985
1.12827
1.12668
1.12526
1.1238
1.12256
1.14267
1.14615
1.14597
1.14484
1.14339
1.1421
1.14071
1.13934
1.13791
1.13629
1.13466
1.13305
1.13139
1.12981
1.12829
1.12699
1.1256
1.12449
1.1431
1.14653
1.14644
1.14541
1.14427
1.14306
1.14173
1.14032
1.13891
1.13746
1.13603
1.13456
1.13321
1.1318
1.13044
1.12922
1.12797
1.12684
1.14323
1.1471
1.14705
1.14614
1.14523
1.14404
1.14297
1.14165
1.14037
1.13912
1.13789
1.13663
1.13533
1.13406
1.13285
1.13164
1.13061
1.12952
1.14324
1.14756
1.14752
1.14685
1.14607
1.14488
1.14403
1.1429
1.14184
1.1408
1.13967
1.13866
1.13748
1.13636
1.13526
1.13423
1.13332
1.13238
1.14355
1.14824
1.148
1.14725
1.14681
1.14573
1.14506
1.14417
1.14316
1.14242
1.14141
1.14055
1.13953
1.13849
1.13751
1.13649
1.13573
1.13495
1.1434
1.14857
1.14867
1.14759
1.14756
1.14647
1.14591
1.14534
1.14416
1.14374
1.14267
1.14201
1.14125
1.1402
1.13962
1.13853
1.13805
1.13723
1.14325
1.14866
1.149
1.14801
1.14794
1.14704
1.14657
1.14615
1.1452
1.14482
1.14374
1.14318
1.14236
1.14154
1.14101
1.14013
1.13977
1.13901
1.1434
1.14869
1.149
1.14866
1.14834
1.1476
1.14713
1.14637
1.1458
1.14516
1.14449
1.14391
1.14319
1.14266
1.142
1.14154
1.14099
1.14058
1.14332
1.14879
1.1492
1.14901
1.14853
1.14806
1.14768
1.14695
1.14653
1.1458
1.14528
1.14468
1.14404
1.14353
1.14288
1.14246
1.14192
1.14161
1.14318
1.14871
1.14946
1.14908
1.14867
1.14822
1.1477
1.14724
1.14674
1.14621
1.14569
1.14513
1.14456
1.14404
1.1435
1.14307
1.14262
1.14229
1.14314
1.14867
1.14932
1.14902
1.14882
1.14843
1.14803
1.14758
1.14704
1.14655
1.14596
1.14545
1.14489
1.1444
1.14395
1.14353
1.14319
1.14286
1.14331
1.1489
1.14952
1.14922
1.1489
1.14852
1.14808
1.14764
1.14718
1.1467
1.14621
1.14569
1.1452
1.14473
1.14433
1.14397
1.14366
1.1434
1.14303
1.14875
1.1495
1.14919
1.14886
1.14847
1.1481
1.14768
1.14726
1.14678
1.1463
1.14579
1.14535
1.14495
1.14462
1.14432
1.14409
1.1439
1.14301
1.14859
1.14932
1.14899
1.14866
1.1483
1.14791
1.14747
1.14701
1.14653
1.14607
1.14562
1.14523
1.14487
1.14459
1.14434
1.14418
1.144
1.14239
1.14626
1.14664
1.1465
1.14634
1.14609
1.14576
1.14537
1.14497
1.14455
1.14413
1.14373
1.14336
1.14302
1.14271
1.14244
1.1422
1.14207
1.10066
1.1219
1.12936
1.13083
1.13043
1.12947
1.12827
1.12703
1.12581
1.1245
1.12295
1.12118
1.11915
1.1173
1.11602
1.11481
1.11268
1.10988
1.10773
1.10676
1.10622
1.10458
1.1022
1.10004
1.0976
1.09373
1.08896
1.08675
1.08848
1.09054
1.09061
1.09046
1.09121
1.09225
1.09345
1.09468
1.09598
1.09744
1.09903
1.10061
1.10209
1.10348
1.10479
1.10611
1.10753
1.10908
1.11078
1.11266
1.11464
1.11676
1.11894
1.12113
1.1233
1.12546
1.1277
1.13015
1.13288
1.13566
1.1385
1.14145
1.14461
1.14778
1.1509
1.15403
1.15713
1.16024
1.16327
1.16609
1.16864
1.17087
1.17288
1.17455
1.17623
1.17832
1.18034
1.18185
1.18291
1.18353
1.18416
1.18524
1.18584
1.18459
1.1826
1.18214
1.1833
1.18453
1.18498
1.18567
1.18695
1.18872
1.19063
1.19283
1.19164
1.18689
1.18439
1.18612
1.18642
1.18322
1.17793
1.17211
1.16052
1.14794
1.15269
1.15876
1.16178
1.16185
1.15803
1.15578
1.15714
1.15751
1.15595
1.15488
1.1553
1.15806
1.16249
1.16475
1.15965
1.15026
1.15668
1.16401
1.16526
1.15672
1.16955
1.15324
1.15758
1.15471
1.15361
1.15114
1.14693
1.14058
1.13778
1.13644
1.13637
1.13565
1.13307
1.12849
1.12494
1.12437
1.12694
1.13014
1.13411
1.138
1.14242
1.14688
1.15135
1.1566
1.16191
1.16645
1.17374
1.17675
1.178
1.17306
1.16658
1.16225
1.17148
1.20335
1.21371
1.22057
1.20142
1.19701
1.20841
1.22488
1.2464
1.25739
1.23826
1.2392
1.21081
1.23272
1.3279
1.27087
1.23211
1.2446
1.23299
1.20755
1.22361
1.26898
1.33537
1.34522
1.24793
1.21847
1.10145
1.12933
1.14056
1.14276
1.14269
1.14232
1.14162
1.14109
1.14104
1.141
1.14054
1.14006
1.13812
1.1342
1.1324
1.13404
1.13369
1.12957
1.12526
1.12354
1.12309
1.11574
1.10641
1.10554
1.10735
1.10557
1.10297
1.10248
1.10386
1.1045
1.10505
1.10533
1.10512
1.10505
1.10529
1.106
1.10648
1.10709
1.10716
1.10714
1.10691
1.10703
1.10772
1.10898
1.11086
1.11289
1.11529
1.11787
1.12068
1.12388
1.12741
1.13095
1.13429
1.13727
1.13992
1.1426
1.14586
1.14942
1.15264
1.15503
1.1583
1.16155
1.16552
1.16991
1.17424
1.17814
1.18105
1.18267
1.18287
1.18204
1.18035
1.17734
1.17524
1.17769
1.18414
1.19103
1.19622
1.20007
1.20187
1.20129
1.20293
1.20744
1.20846
1.20586
1.20465
1.20638
1.20773
1.20639
1.20379
1.20475
1.20918
1.21575
1.21546
1.21124
1.20697
1.20313
1.20989
1.22151
1.2177
1.18144
1.17223
1.17705
1.17269
1.19003
1.17993
1.16189
1.16979
1.17346
1.1803
1.18387
1.18016
1.17334
1.16683
1.16722
1.17255
1.17776
1.17165
1.15577
1.1731
1.1798
1.17195
1.18483
1.19158
1.18182
1.19014
1.18965
1.19213
1.19139
1.19064
1.17458
1.1616
1.15518
1.16051
1.16631
1.16834
1.16445
1.16003
1.1554
1.15814
1.16147
1.16777
1.17761
1.18972
1.20722
1.2205
1.23382
1.24911
1.26096
1.27784
1.28603
1.29678
1.28138
1.24679
1.23667
1.27801
1.32313
1.2918
1.32611
1.31772
1.30272
1.32415
1.37045
1.42212
1.44873
1.4392
1.44453
1.35117
1.40387
1.47491
1.51013
1.44474
1.43116
1.37198
1.33198
1.3681
1.42793
1.47353
1.43073
1.40594
1.33916
1.09657
1.12084
1.13433
1.13924
1.14076
1.14178
1.14236
1.14239
1.14328
1.14524
1.14582
1.1475
1.15267
1.15678
1.15304
1.14656
1.1396
1.1345
1.13322
1.12734
1.12215
1.11782
1.11449
1.11506
1.11287
1.11197
1.11158
1.11075
1.10866
1.10566
1.10177
1.09781
1.0945
1.09214
1.09069
1.0896
1.08887
1.08814
1.08779
1.08769
1.0882
1.08921
1.09068
1.0925
1.09431
1.09631
1.09799
1.10045
1.10301
1.106
1.10989
1.11371
1.11797
1.12218
1.12595
1.12973
1.13385
1.13807
1.14154
1.14345
1.14591
1.14834
1.15371
1.15989
1.16598
1.17086
1.17288
1.17115
1.16591
1.15985
1.15513
1.15072
1.14851
1.15172
1.16082
1.17126
1.17944
1.18559
1.19168
1.19693
1.20009
1.20442
1.20873
1.20847
1.20826
1.21009
1.21203
1.2144
1.21595
1.21505
1.21176
1.20908
1.20614
1.19898
1.20184
1.21466
1.21426
1.20301
1.20109
1.1981
1.2045
1.20787
1.21193
1.20645
1.17618
1.17791
1.18256
1.18297
1.18359
1.17642
1.17042
1.16242
1.16411
1.16501
1.15286
1.14789
1.15885
1.17278
1.18052
1.15426
1.15026
1.20406
1.14952
1.19216
1.18759
1.19385
1.20152
1.20693
1.21274
1.19613
1.17887
1.16997
1.18019
1.1906
1.19879
1.19501
1.18354
1.17444
1.16559
1.17033
1.16788
1.18004
1.19132
1.20944
1.23198
1.25449
1.26988
1.30025
1.32302
1.33919
1.34973
1.31361
1.28309
1.28193
1.30767
1.30791
1.23702
1.26889
1.3496
1.34878
1.37252
1.42965
1.4458
1.399
1.48978
1.50138
1.42259
1.55416
1.21683
1.43347
1.54475
1.52323
1.4215
1.38728
1.41497
1.4514
1.41716
1.34612
1.43952
1.40724
1.09318
1.11342
1.12672
1.13338
1.13676
1.13936
1.14179
1.1428
1.14356
1.14698
1.15196
1.15353
1.15528
1.1567
1.14678
1.13185
1.12955
1.13128
1.13071
1.1273
1.1194
1.11554
1.1106
1.10823
1.10585
1.10274
1.09828
1.09354
1.08958
1.08671
1.08394
1.08281
1.08308
1.08385
1.08488
1.08612
1.08795
1.08943
1.09195
1.09422
1.09667
1.0984
1.09974
1.1012
1.10193
1.10272
1.10338
1.10384
1.10419
1.10486
1.10578
1.10663
1.10799
1.10984
1.11227
1.11522
1.11781
1.11983
1.1226
1.12497
1.12714
1.12956
1.13538
1.14174
1.14853
1.15437
1.15627
1.15477
1.15049
1.14609
1.14546
1.14829
1.1526
1.15566
1.15957
1.16376
1.16733
1.16994
1.17704
1.1892
1.19845
1.1978
1.19655
1.2021
1.20518
1.20404
1.20637
1.20672
1.20859
1.20761
1.20623
1.20759
1.20208
1.1991
1.20591
1.216
1.21002
1.21028
1.20852
1.20471
1.21097
1.20594
1.18978
1.16458
1.16953
1.18401
1.17354
1.17318
1.1637
1.15428
1.14197
1.1298
1.13467
1.13751
1.13523
1.14081
1.15332
1.17061
1.20464
1.1462
1.16125
1.19714
1.12859
1.18904
1.15702
1.18266
1.20788
1.21752
1.19645
1.20145
1.1939
1.19835
1.20087
1.215
1.19079
1.19852
1.2042
1.20277
1.18211
1.17232
1.1719
1.17998
1.19023
1.20917
1.21617
1.25711
1.25967
1.2752
1.32773
1.35128
1.36524
1.3134
1.2934
1.30059
1.34501
1.32482
1.22944
1.20002
1.34398
1.38933
1.42375
1.47181
1.40809
1.25506
1.3954
1.37825
1.40898
1.67053
1.18167
1.27621
1.52518
1.56876
1.4488
1.41817
1.45238
1.52023
1.48084
1.46975
1.49965
1.48243
1.09032
1.10649
1.11923
1.12834
1.13356
1.13713
1.14115
1.14231
1.14717
1.15051
1.14833
1.14591
1.14258
1.13666
1.136
1.14027
1.13839
1.1301
1.11961
1.11108
1.10474
1.10136
1.09811
1.09683
1.09294
1.09042
1.08828
1.08652
1.08571
1.08494
1.08758
1.09066
1.09269
1.09575
1.09835
1.10032
1.1025
1.10466
1.1064
1.1083
1.10971
1.11057
1.11229
1.11359
1.11531
1.11701
1.11835
1.11932
1.12002
1.12123
1.12248
1.12304
1.12285
1.12215
1.12215
1.12287
1.12322
1.12331
1.12447
1.12521
1.12658
1.12756
1.12815
1.12947
1.13172
1.13536
1.13814
1.14018
1.14146
1.14237
1.14559
1.1528
1.15971
1.16136
1.16046
1.1577
1.1531
1.14901
1.15459
1.16963
1.17596
1.17008
1.16886
1.18132
1.19031
1.19511
1.20587
1.20922
1.20723
1.20516
1.20588
1.20312
1.20017
1.21256
1.21025
1.2019
1.19862
1.19085
1.1759
1.17333
1.18025
1.17604
1.15688
1.14096
1.15534
1.15447
1.14647
1.15026
1.14998
1.14972
1.13395
1.11965
1.11506
1.11612
1.11914
1.12541
1.13086
1.14367
1.18445
1.15401
1.16626
1.17864
1.15587
1.18904
1.15446
1.19145
1.24386
1.25434
1.1578
1.20764
1.18873
1.23354
1.23604
1.23754
1.17211
1.14804
1.15598
1.19726
1.20214
1.18978
1.17624
1.17689
1.18519
1.21351
1.20639
1.24212
1.26887
1.24342
1.29776
1.33411
1.36505
1.32115
1.30309
1.31779
1.37327
1.30872
1.23221
1.19229
1.30517
1.41675
1.45745
1.46287
1.32592
1.16651
1.2568
1.15648
1.32629
1.67068
1.34415
1.23584
1.5004
1.57391
1.46415
1.43784
1.47247
1.56518
1.49396
1.41174
1.51201
1.55499
1.08886
1.10345
1.11599
1.12575
1.13072
1.13323
1.13749
1.13869
1.1394
1.13928
1.13693
1.13381
1.13487
1.14065
1.14503
1.14504
1.13561
1.12283
1.11018
1.10126
1.09661
1.0947
1.09293
1.09261
1.08982
1.08738
1.08643
1.08693
1.08958
1.09311
1.09503
1.09641
1.09907
1.10133
1.10271
1.10378
1.10402
1.10471
1.10571
1.10588
1.10683
1.10791
1.10918
1.11106
1.11236
1.11385
1.11594
1.11756
1.11966
1.12222
1.12451
1.1272
1.12947
1.13133
1.13324
1.13501
1.13588
1.1363
1.13705
1.13742
1.13815
1.13877
1.13869
1.13887
1.13937
1.14004
1.14126
1.14206
1.14186
1.14184
1.14125
1.14428
1.14946
1.15321
1.15696
1.15972
1.1554
1.14487
1.13727
1.1367
1.1379
1.13896
1.14507
1.15814
1.16863
1.17645
1.18762
1.19523
1.20264
1.21197
1.20879
1.20831
1.21004
1.20951
1.19998
1.18816
1.18149
1.17007
1.15616
1.1566
1.16367
1.16269
1.14735
1.13565
1.13848
1.1361
1.13093
1.12551
1.12399
1.12739
1.1269
1.13097
1.12709
1.12504
1.1196
1.11271
1.10303
1.10765
1.12226
1.1283
1.13897
1.17646
1.18622
1.19731
1.18385
1.2123
1.26796
1.29378
1.13099
1.20936
1.19212
1.27963
1.28553
1.28362
1.20014
1.14358
1.13083
1.15755
1.19854
1.20105
1.18825
1.17986
1.15532
1.19385
1.19938
1.20518
1.27826
1.24734
1.26291
1.31699
1.34985
1.33893
1.31239
1.31756
1.3576
1.29092
1.25107
1.21897
1.25936
1.40002
1.40904
1.35946
1.21724
1.13781
1.14627
0.958638
1.23838
1.63593
1.4467
1.25587
1.48668
1.57818
1.49491
1.46717
1.48977
1.55828
1.50718
1.42509
1.48671
1.59316
1.08891
1.1051
1.12038
1.12796
1.12939
1.13061
1.13239
1.12811
1.1275
1.13091
1.12873
1.13379
1.14815
1.14933
1.13595
1.13087
1.12396
1.10945
1.09861
1.09403
1.09366
1.09244
1.08994
1.08977
1.0893
1.09122
1.09211
1.09296
1.09358
1.09381
1.09674
1.09967
1.10209
1.10315
1.10254
1.10228
1.10243
1.10192
1.10281
1.10333
1.10443
1.1055
1.10672
1.10865
1.11003
1.11239
1.11412
1.11616
1.11867
1.12108
1.12337
1.12568
1.12822
1.1311
1.13397
1.13719
1.1397
1.14181
1.14368
1.14483
1.14535
1.14497
1.14457
1.14363
1.14305
1.14259
1.14342
1.14575
1.14727
1.14702
1.14258
1.13624
1.13396
1.13875
1.14818
1.15508
1.15649
1.15092
1.14568
1.1379
1.13394
1.14599
1.16113
1.16831
1.17329
1.18333
1.18305
1.17892
1.187
1.20217
1.20414
1.2094
1.20846
1.19976
1.18925
1.1835
1.17519
1.16272
1.1537
1.15476
1.1574
1.15832
1.15066
1.14676
1.1458
1.1476
1.14973
1.14326
1.13313
1.13028
1.13282
1.1397
1.13192
1.12943
1.12506
1.12147
1.1108
1.10079
1.10089
1.10232
1.10239
1.14889
1.16055
1.18053
1.2079
1.22786
1.26546
1.27741
1.15636
1.21426
1.2056
1.29068
1.23609
1.17709
1.14084
1.10192
1.13237
1.14705
1.18537
1.20865
1.19612
1.20864
1.1671
1.17186
1.20368
1.17408
1.24618
1.27102
1.23895
1.29163
1.3354
1.33805
1.33538
1.32157
1.33842
1.29589
1.27035
1.23969
1.22963
1.3462
1.32588
1.25057
1.1692
1.15768
1.11973
0.863645
1.18461
1.60776
1.48431
1.24794
1.49403
1.59685
1.51952
1.48713
1.51793
1.52821
1.50505
1.46064
1.47475
1.5848
1.08996
1.10837
1.12586
1.12977
1.12845
1.12798
1.129
1.13196
1.1324
1.13264
1.13278
1.13975
1.15221
1.1491
1.13699
1.12525
1.11032
1.09546
1.09079
1.09277
1.09336
1.09402
1.09255
1.09103
1.09006
1.08984
1.08997
1.09145
1.09504
1.09923
1.10215
1.10303
1.10255
1.10079
1.09994
1.09851
1.09768
1.09801
1.09903
1.0993
1.10053
1.10135
1.10263
1.10414
1.10527
1.10807
1.11019
1.11271
1.11511
1.11748
1.12006
1.12248
1.12564
1.12896
1.13265
1.13628
1.13937
1.14237
1.14521
1.1473
1.1491
1.1507
1.15157
1.15156
1.15001
1.14829
1.14618
1.14595
1.14951
1.15314
1.15423
1.14864
1.14182
1.14086
1.1482
1.15272
1.15212
1.14464
1.13781
1.13835
1.14167
1.15516
1.17595
1.18543
1.18244
1.19258
1.19857
1.19062
1.18449
1.18863
1.194
1.20502
1.20514
1.19207
1.17917
1.17889
1.17386
1.16637
1.16852
1.16382
1.1621
1.15794
1.15488
1.15127
1.14186
1.13711
1.13716
1.13724
1.13228
1.12818
1.11749
1.11178
1.10869
1.12112
1.1237
1.12251
1.12375
1.11406
1.0989
1.09746
1.10181
1.12328
1.1149
1.25193
1.25075
1.2227
1.25784
1.20665
1.18742
1.21827
1.20869
1.22012
1.17966
1.12289
1.12581
1.08931
1.136
1.16477
1.18526
1.22572
1.20755
1.23072
1.21356
1.17551
1.21424
1.18528
1.2046
1.28695
1.2395
1.256
1.32461
1.31322
1.32572
1.34778
1.36345
1.30436
1.2589
1.24091
1.23945
1.29027
1.2737
1.25022
1.21908
1.21369
1.16707
0.861247
1.19002
1.6029
1.45866
1.23696
1.52189
1.61377
1.52628
1.48593
1.56257
1.55469
1.54233
1.41618
1.47611
1.55863
1.08957
1.10585
1.12101
1.12711
1.13454
1.14246
1.14291
1.13992
1.13947
1.13908
1.1412
1.13961
1.13704
1.12583
1.11618
1.11259
1.10417
1.09626
1.09291
1.09751
1.09928
1.09714
1.0957
1.09483
1.09272
1.09303
1.09377
1.09646
1.09976
1.10196
1.10213
1.10093
1.09923
1.09638
1.09492
1.09442
1.09644
1.09904
1.10146
1.10289
1.10466
1.10563
1.10687
1.1083
1.1092
1.11078
1.11223
1.11395
1.11582
1.11762
1.11943
1.12028
1.12204
1.12405
1.12734
1.13174
1.13677
1.14194
1.14636
1.14882
1.15029
1.15156
1.15237
1.15445
1.1559
1.1568
1.15602
1.15144
1.14796
1.14757
1.15017
1.1476
1.14269
1.14159
1.14838
1.15208
1.148
1.13794
1.1283
1.13122
1.14303
1.1575
1.17629
1.18929
1.18991
1.1909
1.19342
1.19087
1.18712
1.18651
1.19537
1.20494
1.2009
1.18539
1.16999
1.17327
1.17495
1.16934
1.16802
1.16052
1.14356
1.13266
1.13228
1.12086
1.1096
1.11181
1.10857
1.10515
1.11041
1.11619
1.11289
1.11246
1.10555
1.10575
1.10773
1.11455
1.12349
1.12002
1.11756
1.09835
1.09548
1.11172
1.10605
1.26308
1.23258
1.19384
1.22095
1.19214
1.21353
1.21278
1.19947
1.15359
1.17519
1.14972
1.17732
1.13856
1.15795
1.19735
1.19251
1.23791
1.20877
1.22197
1.24253
1.18512
1.20763
1.21318
1.17364
1.26558
1.26173
1.23835
1.29123
1.27542
1.28401
1.3579
1.37409
1.31631
1.25974
1.22436
1.24667
1.27588
1.23052
1.28766
1.27016
1.24093
1.2088
0.93796
1.23678
1.5998
1.42341
1.35298
1.5164
1.58349
1.50229
1.47572
1.60331
1.57893
1.55386
1.45767
1.50669
1.54629
1.09007
1.10704
1.12302
1.12973
1.13937
1.14629
1.14524
1.14081
1.14296
1.13913
1.13118
1.12965
1.12487
1.11994
1.11092
1.09926
1.09115
1.09438
1.09767
1.10138
1.10286
1.10115
1.09933
1.09984
1.09902
1.09872
1.09929
1.10044
1.10269
1.1039
1.10255
1.09981
1.09578
1.09304
1.09517
1.09881
1.103
1.10548
1.10754
1.10805
1.10869
1.10988
1.1113
1.11243
1.11365
1.115
1.11645
1.11794
1.11949
1.12141
1.1242
1.12548
1.12618
1.12535
1.12476
1.12525
1.12738
1.1315
1.13673
1.14207
1.14564
1.14892
1.14976
1.15016
1.15158
1.15239
1.1542
1.15655
1.15368
1.14809
1.14742
1.14587
1.14115
1.13901
1.14373
1.14751
1.14346
1.13376
1.12628
1.12952
1.14478
1.16426
1.18517
1.19519
1.20089
1.20044
1.19488
1.18985
1.19148
1.19024
1.20081
1.20437
1.19645
1.18599
1.16491
1.16347
1.17081
1.16674
1.16547
1.15247
1.13456
1.13331
1.14624
1.13327
1.12854
1.13075
1.12082
1.11123
1.11806
1.11988
1.1164
1.12267
1.12348
1.11747
1.10861
1.10341
1.10456
1.12437
1.13414
1.11533
1.10112
1.09541
1.09403
1.11893
1.14522
1.17659
1.16641
1.18694
1.20289
1.18878
1.22769
1.17314
1.22226
1.1744
1.17042
1.15374
1.12439
1.19285
1.17556
1.23583
1.21585
1.20852
1.2536
1.203
1.19862
1.23171
1.18174
1.22701
1.26322
1.2738
1.26403
1.20665
1.25794
1.3601
1.3573
1.36505
1.2964
1.20923
1.20382
1.29214
1.22953
1.27538
1.26246
1.2118
1.22396
1.07602
1.27496
1.57669
1.42789
1.41914
1.67944
1.6343
1.50282
1.4848
1.62346
1.60458
1.56462
1.45351
1.54338
1.54559
1.09065
1.10782
1.12463
1.13227
1.14291
1.14679
1.14445
1.14296
1.14246
1.14296
1.13009
1.12229
1.1132
1.10749
1.10624
1.10435
1.1016
1.10245
1.10496
1.10683
1.1054
1.10126
1.09908
1.09823
1.09969
1.10027
1.1003
1.10036
1.09969
1.09978
1.09891
1.09635
1.09495
1.09608
1.09974
1.10136
1.10226
1.10228
1.10244
1.10244
1.10251
1.10315
1.10453
1.10652
1.10915
1.11158
1.1136
1.11611
1.11782
1.11899
1.12069
1.12443
1.12812
1.12971
1.12896
1.128
1.1275
1.12806
1.12968
1.13276
1.1355
1.13803
1.14193
1.14333
1.14717
1.15116
1.15067
1.15293
1.15494
1.15248
1.15042
1.15217
1.1488
1.14265
1.14143
1.14617
1.14626
1.13786
1.12872
1.12971
1.14298
1.16143
1.18391
1.19315
1.19596
1.19721
1.19498
1.19159
1.19543
1.19518
1.205
1.20245
1.18601
1.18653
1.17172
1.15688
1.16296
1.16103
1.15717
1.15457
1.14099
1.14051
1.14572
1.12889
1.13781
1.1374
1.13547
1.13368
1.14102
1.1407
1.13896
1.14074
1.13618
1.13313
1.12677
1.1182
1.11328
1.10117
1.118
1.13104
1.13367
1.10794
1.07223
1.09887
1.12567
1.18177
1.17895
1.18658
1.1972
1.1767
1.2657
1.20148
1.23896
1.20722
1.15333
1.1769
1.09018
1.15977
1.13236
1.19411
1.21121
1.1888
1.24801
1.22434
1.19731
1.23764
1.20248
1.21289
1.24377
1.29846
1.29331
1.1827
1.23379
1.32615
1.37486
1.43525
1.31174
1.19178
1.12711
1.24129
1.26151
1.27862
1.26551
1.17343
1.23342
1.18979
1.24722
1.54303
1.4436
1.33628
1.66226
1.66437
1.51126
1.50698
1.61994
1.64099
1.61379
1.45499
1.5631
1.54831
1.09031
1.10521
1.12252
1.1321
1.14254
1.14738
1.14204
1.14287
1.14021
1.13073
1.12207
1.12007
1.11484
1.1087
1.10392
1.09828
1.09859
1.10277
1.10396
1.10397
1.10359
1.10107
1.10139
1.10114
1.10075
1.10176
1.10173
1.10181
1.10198
1.10047
1.09877
1.09692
1.09619
1.09542
1.09565
1.09682
1.09931
1.10088
1.1012
1.10233
1.10445
1.10608
1.10721
1.10837
1.10946
1.11153
1.11351
1.11655
1.11974
1.12206
1.12202
1.12284
1.12606
1.12976
1.1306
1.12853
1.12714
1.12586
1.12657
1.12725
1.1308
1.1317
1.1351
1.13658
1.1368
1.14349
1.15028
1.15121
1.15208
1.15215
1.14766
1.148
1.14807
1.14373
1.13811
1.14131
1.1464
1.14075
1.12555
1.12255
1.13818
1.16273
1.18633
1.19737
1.1944
1.19249
1.19028
1.18945
1.1942
1.19699
1.203
1.20249
1.17875
1.18014
1.18099
1.16506
1.16361
1.16139
1.1524
1.15072
1.13685
1.13195
1.11642
1.10429
1.1206
1.12548
1.13516
1.13618
1.14413
1.14658
1.14771
1.15105
1.1491
1.14929
1.15128
1.14706
1.14521
1.11682
1.11519
1.11981
1.13529
1.1348
1.1017
1.09593
1.10174
1.1343
1.17667
1.17911
1.19339
1.18215
1.27432
1.21008
1.23148
1.22595
1.14849
1.20135
1.10298
1.13257
1.10976
1.13321
1.17886
1.14883
1.19669
1.22943
1.19199
1.23894
1.2175
1.21717
1.23706
1.28694
1.32033
1.22439
1.24154
1.22702
1.34934
1.44285
1.29151
1.17626
1.10838
1.15995
1.24235
1.26593
1.27518
1.14193
1.23881
1.23648
1.19857
1.50653
1.45574
1.36521
1.40641
1.61149
1.50815
1.52044
1.60721
1.66357
1.61559
1.4649
1.56788
1.56497
1.09084
1.1053
1.1227
1.13343
1.14208
1.14497
1.14304
1.13844
1.1407
1.13456
1.1194
1.11346
1.11095
1.10602
1.10415
1.1015
1.09949
1.10172
1.10174
1.09948
1.09612
1.09541
1.09784
1.10039
1.10006
1.09941
1.10058
1.101
1.10205
1.10207
1.10156
1.10119
1.10188
1.10311
1.10414
1.10292
1.10017
1.09773
1.09726
1.099
1.10167
1.10424
1.10624
1.1092
1.11159
1.11332
1.11352
1.11277
1.11539
1.11948
1.12353
1.12336
1.12448
1.12666
1.12904
1.12957
1.13038
1.13037
1.13013
1.12845
1.12866
1.13086
1.13156
1.13698
1.13879
1.13878
1.14392
1.14689
1.14849
1.15036
1.14704
1.14293
1.14443
1.14321
1.13532
1.13379
1.14371
1.14371
1.1286
1.12262
1.13865
1.16617
1.18767
1.20058
1.19817
1.19649
1.19248
1.19206
1.19188
1.19495
1.20042
1.20315
1.17542
1.17147
1.18302
1.17344
1.17139
1.1617
1.14895
1.14606
1.1377
1.12638
1.11844
1.12624
1.1452
1.15464
1.16064
1.15606
1.15657
1.15795
1.15422
1.15263
1.14974
1.14114
1.14048
1.14404
1.16144
1.14929
1.12834
1.11243
1.12288
1.14886
1.16448
1.09022
1.07926
1.11332
1.15192
1.15323
1.16054
1.15126
1.24604
1.18779
1.25022
1.25337
1.16221
1.22253
1.14028
1.1362
1.13018
1.11575
1.17503
1.13798
1.14668
1.22422
1.17993
1.23774
1.22232
1.22637
1.24471
1.26785
1.30995
1.26116
1.26294
1.16805
1.27718
1.38751
1.26519
1.15339
1.16365
1.13531
1.22132
1.2729
1.28993
1.13423
1.21248
1.25603
1.14159
1.47968
1.46733
1.40202
1.41937
1.7013
1.59563
1.55205
1.59724
1.66188
1.63361
1.46557
1.55803
1.59125
1.09123
1.10417
1.12023
1.13048
1.14137
1.14033
1.13902
1.14151
1.13377
1.1292
1.12262
1.11549
1.11479
1.1108
1.1051
1.10024
1.09889
1.10279
1.10546
1.10749
1.10494
1.10219
1.10374
1.10567
1.10632
1.10532
1.10444
1.10336
1.10329
1.10253
1.10121
1.10052
1.10061
1.10092
1.10203
1.10519
1.10915
1.11037
1.1088
1.10661
1.1048
1.10507
1.10551
1.10727
1.11135
1.1153
1.12005
1.11973
1.11815
1.11849
1.12332
1.12716
1.12833
1.12907
1.12947
1.12936
1.12921
1.13206
1.13374
1.13516
1.13155
1.13156
1.13145
1.13203
1.13662
1.14103
1.14376
1.14613
1.14484
1.14679
1.15131
1.14651
1.14812
1.15187
1.14319
1.13279
1.14423
1.1489
1.1318
1.11637
1.12974
1.15763
1.18084
1.19418
1.19427
1.19404
1.19431
1.19421
1.18868
1.19115
1.1995
1.20165
1.17802
1.16352
1.17659
1.17648
1.1729
1.16478
1.14572
1.14048
1.13774
1.14013
1.1349
1.14722
1.15035
1.1553
1.16213
1.16409
1.16316
1.16839
1.16923
1.16956
1.16093
1.15344
1.15519
1.12695
1.14785
1.15382
1.15794
1.13461
1.1047
1.13029
1.16476
1.13271
1.08573
1.099
1.13137
1.14352
1.15973
1.15383
1.24512
1.1777
1.25074
1.25706
1.15454
1.21376
1.14159
1.12835
1.14771
1.10979
1.1756
1.14009
1.12499
1.22254
1.1828
1.23832
1.22407
1.23193
1.2623
1.25694
1.27553
1.27552
1.26347
1.1839
1.24105
1.33868
1.24145
1.13015
1.21202
1.17471
1.2354
1.31775
1.3126
1.16144
1.19989
1.28015
1.10144
1.45558
1.49123
1.43602
1.55081
1.67549
1.65997
1.57537
1.58845
1.65707
1.64171
1.4741
1.51723
1.6034
1.09191
1.10389
1.1197
1.12938
1.14445
1.14803
1.13118
1.13546
1.14049
1.12984
1.12276
1.11455
1.11314
1.11355
1.11264
1.1081
1.10226
1.10115
1.1029
1.10629
1.11022
1.1101
1.11026
1.11105
1.11114
1.10955
1.10705
1.10527
1.10367
1.10237
1.10223
1.10373
1.10627
1.10668
1.10541
1.10573
1.10754
1.10924
1.1103
1.11114
1.10899
1.10749
1.10939
1.11077
1.11396
1.11579
1.11873
1.1211
1.12022
1.1189
1.12128
1.12602
1.13
1.13191
1.13034
1.12922
1.12833
1.13194
1.13527
1.13793
1.13907
1.13548
1.1353
1.13571
1.13547
1.13889
1.14145
1.14701
1.14814
1.14401
1.14701
1.14168
1.13784
1.14458
1.14084
1.12938
1.14066
1.14731
1.12888
1.11487
1.1348
1.16523
1.18936
1.19907
1.19981
1.19462
1.19576
1.19481
1.18828
1.18853
1.19694
1.20005
1.18247
1.15941
1.16549
1.16888
1.17032
1.16787
1.15465
1.14152
1.14083
1.14476
1.15046
1.16567
1.14603
1.13454
1.13657
1.13817
1.13301
1.13298
1.13773
1.14761
1.15879
1.15834
1.17414
1.15271
1.13864
1.13463
1.15107
1.16802
1.11947
1.11165
1.15405
1.16806
1.11362
1.09753
1.1252
1.13398
1.14128
1.14653
1.22206
1.19159
1.25247
1.24191
1.15277
1.21901
1.16125
1.11742
1.16568
1.11285
1.1709
1.14233
1.11373
1.22345
1.19487
1.23264
1.2288
1.2295
1.28109
1.24615
1.24395
1.27449
1.25629
1.2074
1.24467
1.30943
1.22767
1.14275
1.23616
1.21826
1.26707
1.36673
1.32494
1.17799
1.19046
1.2799
1.13128
1.40946
1.50404
1.46239
1.53754
1.48968
1.6038
1.53277
1.55523
1.65173
1.65303
1.49404
1.45825
1.55199
1.09254
1.10309
1.11883
1.12475
1.13169
1.14874
1.13684
1.12089
1.12801
1.12787
1.12569
1.11956
1.11481
1.11272
1.11215
1.11109
1.10809
1.10497
1.10387
1.10386
1.10604
1.10901
1.11112
1.11166
1.11089
1.10974
1.10781
1.10557
1.10418
1.10518
1.10752
1.11038
1.11417
1.11697
1.1185
1.11782
1.11613
1.11679
1.11686
1.11639
1.11552
1.11312
1.11446
1.11753
1.11826
1.11645
1.11887
1.12178
1.12349
1.12291
1.12418
1.12718
1.13087
1.13434
1.13472
1.13353
1.13258
1.13166
1.13435
1.13533
1.13646
1.13709
1.13507
1.13474
1.13558
1.13717
1.13835
1.13908
1.14699
1.14627
1.14909
1.14722
1.13496
1.13905
1.14137
1.12942
1.13203
1.14122
1.12838
1.12207
1.14159
1.1711
1.19037
1.199
1.20068
1.19383
1.19389
1.19448
1.18741
1.18435
1.19362
1.20165
1.18911
1.16656
1.16153
1.16201
1.16358
1.16547
1.1627
1.14599
1.13806
1.1419
1.14306
1.15934
1.14716
1.13177
1.13086
1.13967
1.14773
1.14805
1.14913
1.14503
1.15375
1.13771
1.16004
1.16255
1.14942
1.13312
1.12626
1.16591
1.14956
1.09746
1.13164
1.18321
1.14428
1.10475
1.12064
1.13225
1.13008
1.14592
1.20199
1.19006
1.24833
1.21132
1.14836
1.23256
1.17732
1.11617
1.1882
1.12682
1.1714
1.15523
1.11027
1.22571
1.19831
1.23043
1.22776
1.2159
1.28938
1.23267
1.23735
1.27035
1.25591
1.2128
1.24602
1.28954
1.22342
1.16626
1.24674
1.22403
1.28126
1.38485
1.30906
1.18388
1.18807
1.27969
1.21277
1.33708
1.48242
1.48532
1.5464
1.47171
1.53873
1.47284
1.51304
1.64302
1.67172
1.52059
1.41372
1.44421
1.09286
1.10089
1.11722
1.12831
1.12959
1.14266
1.15231
1.1321
1.1205
1.11641
1.1161
1.11734
1.11728
1.11711
1.11592
1.11301
1.11071
1.10897
1.10705
1.10638
1.10563
1.10637
1.10732
1.1083
1.10925
1.10923
1.10809
1.10766
1.10845
1.10949
1.11125
1.113
1.11389
1.11376
1.11434
1.11551
1.11599
1.11725
1.11813
1.11891
1.11976
1.11866
1.11816
1.11819
1.12184
1.11947
1.11921
1.12104
1.12232
1.1225
1.12435
1.12787
1.13093
1.13248
1.13252
1.13183
1.13197
1.13589
1.13859
1.14241
1.14474
1.14027
1.13681
1.13276
1.13147
1.1307
1.1374
1.13581
1.13804
1.13816
1.1386
1.14742
1.14144
1.13999
1.14221
1.13113
1.12917
1.14259
1.12974
1.11664
1.12921
1.16378
1.18469
1.19744
1.19868
1.19393
1.19031
1.19044
1.18504
1.18267
1.1908
1.19923
1.19747
1.17974
1.1706
1.1664
1.16099
1.16203
1.16318
1.15105
1.13711
1.13896
1.13652
1.14817
1.14156
1.13547
1.13116
1.12507
1.1221
1.13022
1.14766
1.15863
1.18595
1.15292
1.14534
1.14017
1.15601
1.14756
1.11387
1.14964
1.17437
1.11643
1.11596
1.15487
1.15264
1.12347
1.1197
1.12286
1.12072
1.14757
1.19837
1.21002
1.23159
1.1886
1.16574
1.23637
1.1563
1.11596
1.19293
1.12781
1.17828
1.17766
1.11696
1.22218
1.19259
1.23601
1.21578
1.19989
1.28679
1.2235
1.24625
1.27259
1.25397
1.21327
1.23549
1.27238
1.22512
1.18767
1.23657
1.21718
1.26918
1.35988
1.28394
1.17238
1.20209
1.28911
1.26062
1.28529
1.42555
1.47321
1.57736
1.54998
1.4899
1.43692
1.48729
1.63137
1.68282
1.54384
1.39933
1.4242
1.0937
1.09851
1.11205
1.12905
1.12772
1.13114
1.14222
1.14474
1.13098
1.11884
1.11011
1.1077
1.10902
1.11161
1.11431
1.11245
1.10973
1.10907
1.10748
1.10725
1.10654
1.10713
1.10894
1.11122
1.11258
1.11303
1.11291
1.11286
1.11268
1.11225
1.1122
1.11117
1.10974
1.10898
1.10671
1.10668
1.10793
1.10931
1.11115
1.11176
1.11471
1.11472
1.11674
1.11694
1.11849
1.11913
1.12208
1.12276
1.12105
1.12492
1.12781
1.1329
1.1332
1.1363
1.13594
1.13532
1.13205
1.12471
1.1261
1.12838
1.1387
1.14363
1.14096
1.13603
1.13243
1.12915
1.13088
1.13646
1.13715
1.14238
1.13604
1.13969
1.13927
1.13318
1.13779
1.13364
1.12699
1.13751
1.13065
1.11669
1.12839
1.16389
1.18561
1.19731
1.19769
1.19462
1.18876
1.1867
1.18348
1.18377
1.1917
1.19891
1.20102
1.18824
1.17865