/*--------------------------------*- C++ -*----------------------------------*\
| =========                 |                                                 |
| \\      /  F ield         | OpenFOAM: The Open Source CFD Toolbox           |
|  \\    /   O peration     | Version:  dev                                   |
|   \\  /    A nd           | Web:      http://www.openfoam.org               |
|    \\/     M anipulation  |                                                 |
\*---------------------------------------------------------------------------*/
FoamFile
{
    version     2.0;
    format      ascii;
    class       volVectorField;
    object      U;
    location    "9.156";
}
// * * * * * * * * * * * * * * * * * * * * * * * * * * * * * * * * * * * * * //

dimensions      [0 1 -1 0 0 0 0];

internalField   nonuniform List<vector> 
12225
(
(6.56817 0.49382 0)
(2.73348 0.305156 0)
(-0.160838 0.143825 0)
(-0.94471 0.112077 0)
(-3.02773 0.142708 0)
(-2.50997 0.0453907 0)
(-4.70434 0.190877 0)
(-3.54377 -0.00478843 0)
(-5.77251 0.219889 0)
(-3.90627 -0.0925086 0)
(-6.24395 0.268372 0)
(-3.64248 -0.134485 0)
(-5.93931 0.19892 0)
(-2.4193 -0.199289 0)
(-3.67161 -0.226596 0)
(1.75304 -1.11704 0)
(12.1438 -0.303168 0)
(4.29386 5.08633 0)
(9.13319 1.38063 0)
(7.61332 1.29572 0)
(3.48384 0.851009 0)
(3.6501 0.644665 0)
(-1.05348 0.554538 0)
(1.35842 0.395209 0)
(-4.25419 0.610108 0)
(0.033427 0.237165 0)
(-6.56978 0.657613 0)
(-0.242673 0.0635003 0)
(-7.96169 0.581367 0)
(0.648054 -0.180539 0)
(-7.67513 0.538709 0)
(2.09827 -1.00236 0)
(-5.74868 0.0243371 0)
(2.69108 -4.29635 0)
(-0.442591 -1.05589 0)
(-1.96241 3.04247 0)
(8.53513 1.54655 0)
(10.381 1.78701 0)
(4.93287 1.34317 0)
(7.97256 1.21621 0)
(0.794691 1.00501 0)
(6.05225 1.03624 0)
(-2.63141 0.928237 0)
(4.86629 0.759757 0)
(-4.74752 0.914814 0)
(4.4511 0.18071 0)
(-5.03193 0.915479 0)
(4.12171 -0.368858 0)
(-4.39103 0.874476 0)
(3.41821 -0.996597 0)
(-3.4257 0.742615 0)
(2.51633 -2.78556 0)
(-2.07898 0.39506 0)
(-2.77941 2.32859 0)
(6.36991 1.55683 0)
(12.7033 2.17593 0)
(4.65407 1.68034 0)
(10.7951 1.75696 0)
(2.26925 1.42565 0)
(8.8938 1.49524 0)
(0.799414 1.38718 0)
(7.19835 1.07791 0)
(-0.255741 1.45292 0)
(5.63611 0.34097 0)
(-0.960966 1.54478 0)
(4.29172 -0.349367 0)
(-1.62551 1.63478 0)
(2.75234 -1.23187 0)
(-2.33911 1.31684 0)
(1.53157 -3.63764 0)
(-3.18665 0.608366 0)
(-6.33438 6.13153 0)
(5.90671 2.10718 0)
(12.3241 2.17248 0)
(5.88779 2.2447 0)
(10.178 1.89676 0)
(4.98091 2.1897 0)
(7.8661 1.53298 0)
(4.01759 2.13539 0)
(6.21 1.20799 0)
(2.9414 2.13337 0)
(4.67915 0.797871 0)
(1.93611 2.24197 0)
(3.30398 0.152786 0)
(0.843598 2.61758 0)
(1.72449 -0.714997 0)
(-0.358934 2.86545 0)
(0.281023 -3.04082 0)
(-3.46771 3.6873 0)
(-7.36852 1.44124 0)
(7.64523 2.5649 0)
(9.08225 2.04468 0)
(6.65169 2.60748 0)
(7.0429 1.96415 0)
(5.65445 2.70827 0)
(5.13184 1.71579 0)
(4.53523 2.65081 0)
(4.01063 1.49323 0)
(3.36861 2.69496 0)
(2.97702 1.1614 0)
(2.65916 2.70872 0)
(2.27378 0.532449 0)
(1.86307 3.10227 0)
(1.58909 -0.276932 0)
(1.13956 3.17905 0)
(0.754324 -0.623469 0)
(-2.96613 5.44748 0)
(-2.01543 2.16892 0)
(9.41121 3.26821 0)
(7.85574 2.18894 0)
(7.60339 3.4939 0)
(5.94818 2.0358 0)
(5.99443 3.62304 0)
(4.56464 1.81056 0)
(4.48999 3.56564 0)
(3.60768 1.59008 0)
(3.28732 3.59759 0)
(2.799 1.32263 0)
(2.70455 3.60959 0)
(2.36863 0.826327 0)
(2.15044 3.99216 0)
(2.09606 0.346504 0)
(1.18059 3.88496 0)
(1.61355 -0.0330277 0)
(-1.13314 3.8396 0)
(0.982963 2.03174 0)
(9.55584 3.51691 0)
(8.09869 2.60689 0)
(7.67683 3.82452 0)
(6.43484 2.45356 0)
(5.91098 3.85965 0)
(4.94475 2.27378 0)
(4.40501 3.77736 0)
(3.68192 2.12214 0)
(3.53795 3.72713 0)
(2.87095 1.95669 0)
(3.00574 3.5623 0)
(2.29271 1.58659 0)
(2.27174 3.87425 0)
(2.0278 1.2994 0)
(1.23182 3.76916 0)
(1.62822 1.33196 0)
(-0.0217751 4.06069 0)
(1.20379 3.41268 0)
(10.0486 3.9673 0)
(8.14674 2.6797 0)
(7.91148 4.47481 0)
(6.36596 2.50939 0)
(6.13281 4.55896 0)
(4.81247 2.39811 0)
(4.67448 4.45045 0)
(3.61829 2.25736 0)
(3.73631 4.23999 0)
(2.79978 2.08088 0)
(2.81903 4.06809 0)
(2.09 1.92484 0)
(1.85248 4.12989 0)
(1.74895 1.83719 0)
(0.994504 3.91892 0)
(1.28937 2.32003 0)
(0.239967 4.05624 0)
(1.23124 3.71716 0)
(9.54993 4.14245 0)
(8.27532 3.2622 0)
(7.58206 4.76896 0)
(6.49105 3.18637 0)
(5.86567 4.70763 0)
(5.1058 3.16311 0)
(4.48793 4.52719 0)
(3.99584 3.10317 0)
(3.47934 4.41156 0)
(3.08559 3.04554 0)
(2.60463 4.29876 0)
(2.50566 2.90542 0)
(1.87908 4.378 0)
(2.07569 2.87358 0)
(1.30339 4.10741 0)
(1.59891 3.20571 0)
(1.01632 4.17226 0)
(1.39323 4.19295 0)
(9.93845 4.76754 0)
(8.21672 3.50318 0)
(7.84183 5.30866 0)
(6.56014 3.50682 0)
(6.09572 5.24405 0)
(4.95894 3.51428 0)
(4.43927 5.07663 0)
(3.60365 3.40974 0)
(3.29191 4.79773 0)
(2.73232 3.30557 0)
(2.4455 4.61749 0)
(2.19256 3.3842 0)
(1.78987 4.60116 0)
(1.83362 3.52684 0)
(1.31927 4.317 0)
(1.375 3.89891 0)
(1.12672 4.31642 0)
(1.3533 4.27626 0)
(9.89015 4.93076 0)
(8.46233 4.38388 0)
(7.64226 5.44232 0)
(6.5075 4.42387 0)
(5.79169 5.43608 0)
(5.00581 4.49569 0)
(4.36932 5.27454 0)
(3.82947 4.40957 0)
(3.30263 5.09209 0)
(2.82037 4.32664 0)
(2.37776 5.00993 0)
(2.1873 4.35027 0)
(1.83882 4.94988 0)
(1.83104 4.4862 0)
(1.48318 4.77049 0)
(1.45338 4.61706 0)
(1.37623 4.75725 0)
(1.49383 4.80625 0)
(9.78818 5.51659 0)
(8.37147 5.02983 0)
(7.49444 5.91079 0)
(6.41338 5.01082 0)
(5.70583 5.83417 0)
(4.97022 5.0913 0)
(4.3721 5.71741 0)
(3.70472 5.08116 0)
(3.13609 5.49321 0)
(2.58681 5.00461 0)
(2.09442 5.36068 0)
(1.79969 5.03829 0)
(1.50809 5.28069 0)
(1.41467 5.08971 0)
(1.29511 5.18315 0)
(1.25118 5.16387 0)
(1.24353 5.18755 0)
(1.39692 5.20406 0)
(9.22837 5.81334 0)
(8.17926 5.84146 0)
(7.1915 6.22963 0)
(6.18335 5.81103 0)
(5.32029 6.13289 0)
(4.58761 5.82069 0)
(3.90939 6.10939 0)
(3.34568 5.9243 0)
(2.82689 6.13223 0)
(2.36392 5.93851 0)
(2.01898 6.00793 0)
(1.77121 5.83984 0)
(1.54438 5.80148 0)
(1.40477 5.69644 0)
(1.27742 5.66152 0)
(1.19516 5.61575 0)
(1.15078 5.61606 0)
(1.26017 5.5938 0)
(9.42935 6.15828 0)
(8.34915 6.38912 0)
(7.41508 6.5584 0)
(6.51879 6.50724 0)
(5.62185 6.68572 0)
(4.84212 6.60624 0)
(4.10871 6.65289 0)
(3.50287 6.54549 0)
(2.98868 6.49927 0)
(2.57908 6.39511 0)
(2.26398 6.38844 0)
(1.99394 6.34091 0)
(1.75768 6.31927 0)
(1.56128 6.29257 0)
(1.38622 6.27858 0)
(1.26601 6.2406 0)
(1.16543 6.19588 0)
(1.20683 6.11883 0)
(9.76812 6.39097 0)
(8.42187 7.05031 0)
(7.29229 7.05089 0)
(6.26298 7.00033 0)
(5.39042 7.03889 0)
(4.66216 7.05407 0)
(4.02378 7.09309 0)
(3.45735 7.10583 0)
(2.92906 7.08153 0)
(2.45589 7.01507 0)
(2.06066 6.9514 0)
(1.72407 6.88544 0)
(1.43959 6.84224 0)
(1.23883 6.79203 0)
(1.07896 6.7534 0)
(0.998179 6.70798 0)
(0.923285 6.65747 0)
(0.965298 6.584 0)
(9.55389 6.81078 0)
(8.38584 7.43204 0)
(7.44074 7.39176 0)
(6.50605 7.37712 0)
(5.61155 7.39228 0)
(4.80294 7.40848 0)
(4.08377 7.4046 0)
(3.46166 7.39984 0)
(2.91206 7.38765 0)
(2.41748 7.36695 0)
(1.98436 7.32391 0)
(1.62856 7.273 0)
(1.32314 7.2275 0)
(1.07512 7.16094 0)
(0.875587 7.09073 0)
(0.745016 7.01121 0)
(0.637338 6.91783 0)
(0.661998 6.8379 0)
(9.39113 6.70031 0)
(8.12875 7.29717 0)
(7.14547 7.32628 0)
(6.27434 7.32935 0)
(5.51754 7.36385 0)
(4.81279 7.41243 0)
(4.15028 7.46453 0)
(3.53986 7.50287 0)
(2.97854 7.50518 0)
(2.47099 7.49271 0)
(2.03537 7.44957 0)
(1.67214 7.38858 0)
(1.36015 7.31824 0)
(1.11292 7.25868 0)
(0.901858 7.19025 0)
(0.734554 7.11431 0)
(0.58854 7.04042 0)
(0.55929 6.95769 0)
(9.46731 6.44454 0)
(8.26027 7.01924 0)
(7.29808 6.93091 0)
(6.33797 6.88361 0)
(5.45833 6.9169 0)
(4.70242 7.01737 0)
(4.0759 7.12161 0)
(3.54019 7.19862 0)
(3.07141 7.23172 0)
(2.63294 7.21151 0)
(2.1941 7.18626 0)
(1.80634 7.133 0)
(1.46628 7.07493 0)
(1.1694 7.01191 0)
(0.934721 6.94407 0)
(0.757538 6.87003 0)
(0.591396 6.78445 0)
(0.514716 6.70784 0)
(9.27524 5.85746 0)
(8.07274 6.41332 0)
(7.15241 6.42857 0)
(6.28688 6.46528 0)
(5.47312 6.44699 0)
(4.72312 6.41457 0)
(4.06114 6.38657 0)
(3.49911 6.43159 0)
(2.98889 6.52008 0)
(2.55857 6.59395 0)
(2.1599 6.64624 0)
(1.78207 6.66074 0)
(1.44956 6.63298 0)
(1.16292 6.57531 0)
(0.916072 6.50144 0)
(0.700786 6.41745 0)
(0.517818 6.3283 0)
(0.407332 6.25588 0)
(9.36833 5.3888 0)
(8.33325 5.69516 0)
(7.46086 5.59306 0)
(6.62065 5.60959 0)
(5.84089 5.66266 0)
(5.08313 5.73368 0)
(4.36072 5.7805 0)
(3.69614 5.82661 0)
(3.0905 5.87258 0)
(2.57534 5.91282 0)
(2.14131 5.92329 0)
(1.76395 5.92238 0)
(1.43113 5.91752 0)
(1.13488 5.88851 0)
(0.892397 5.84768 0)
(0.675057 5.79549 0)
(0.488881 5.74181 0)
(0.373924 5.68631 0)
(9.39741 4.63839 0)
(8.32095 4.84344 0)
(7.46699 4.82509 0)
(6.58806 4.8705 0)
(5.77032 4.90487 0)
(5.02246 4.94983 0)
(4.34341 4.98612 0)
(3.74708 5.03039 0)
(3.18867 5.0815 0)
(2.69926 5.1223 0)
(2.25219 5.15764 0)
(1.8591 5.16356 0)
(1.50345 5.15429 0)
(1.17359 5.13955 0)
(0.911235 5.09729 0)
(0.695074 5.03832 0)
(0.516365 4.97132 0)
(0.388779 4.91942 0)
(9.356 3.97079 0)
(8.32964 4.02293 0)
(7.53246 3.95177 0)
(6.78331 4.01286 0)
(6.05457 4.08521 0)
(5.33535 4.14886 0)
(4.63928 4.17769 0)
(4.00394 4.22138 0)
(3.40466 4.27475 0)
(2.89809 4.33031 0)
(2.44064 4.37778 0)
(2.05711 4.39564 0)
(1.71229 4.38549 0)
(1.40698 4.35602 0)
(1.13711 4.31238 0)
(0.900103 4.26233 0)
(0.711425 4.20198 0)
(0.571353 4.15799 0)
(9.63078 3.17519 0)
(8.68935 3.18153 0)
(7.84324 3.12012 0)
(6.99923 3.19729 0)
(6.187 3.29685 0)
(5.44874 3.38363 0)
(4.74798 3.42362 0)
(4.12249 3.44992 0)
(3.55092 3.47698 0)
(3.05246 3.51437 0)
(2.60846 3.55115 0)
(2.22329 3.57674 0)
(1.86703 3.58719 0)
(1.5582 3.56746 0)
(1.2787 3.53368 0)
(1.0396 3.49113 0)
(0.807069 3.44442 0)
(0.622156 3.40272 0)
(9.62193 2.46541 0)
(8.56971 2.45329 0)
(7.73413 2.41888 0)
(6.98415 2.48905 0)
(6.27424 2.5747 0)
(5.6072 2.62815 0)
(4.93743 2.63517 0)
(4.31651 2.64888 0)
(3.72682 2.69683 0)
(3.19573 2.75076 0)
(2.72151 2.80256 0)
(2.31489 2.83552 0)
(1.95299 2.84532 0)
(1.64714 2.8374 0)
(1.38167 2.80897 0)
(1.14744 2.7809 0)
(0.940329 2.7473 0)
(0.766152 2.72492 0)
(9.51222 1.85639 0)
(8.60842 1.72798 0)
(7.95468 1.65954 0)
(7.29413 1.74547 0)
(6.62701 1.84168 0)
(5.95126 1.90993 0)
(5.27572 1.94562 0)
(4.64777 1.97348 0)
(4.03431 2.01864 0)
(3.46349 2.06847 0)
(2.92995 2.10899 0)
(2.46057 2.13023 0)
(2.03596 2.13138 0)
(1.67241 2.11733 0)
(1.35216 2.09849 0)
(1.07086 2.08137 0)
(0.815093 2.06795 0)
(0.608559 2.05599 0)
(9.5761 1.20367 0)
(8.96328 1.01699 0)
(8.33205 0.960866 0)
(7.56521 1.06288 0)
(6.76408 1.16545 0)
(5.94916 1.23041 0)
(5.15066 1.2669 0)
(4.40344 1.30591 0)
(3.70645 1.36828 0)
(3.08422 1.44513 0)
(2.52872 1.49969 0)
(2.03991 1.52751 0)
(1.59539 1.52612 0)
(1.1882 1.51359 0)
(0.81365 1.49862 0)
(0.462307 1.48738 0)
(0.138106 1.48541 0)
(-0.147607 1.48379 0)
(9.63155 0.55437 0)
(9.08639 0.377185 0)
(8.42017 0.451446 0)
(7.44343 0.589436 0)
(6.36993 0.702676 0)
(5.2773 0.772244 0)
(4.21583 0.819815 0)
(3.21454 0.85795 0)
(2.29086 0.9018 0)
(1.4709 0.9467 0)
(0.751477 0.976021 0)
(0.114793 0.994576 0)
(-0.464293 1.00311 0)
(-1.00045 1.01059 0)
(-1.47943 1.01469 0)
(-1.92104 1.02145 0)
(-2.29207 1.01765 0)
(-2.63154 1.00903 0)
(9.4855 -0.122444 0)
(8.32193 -0.308091 0)
(6.80954 -0.113934 0)
(5.11841 0.113883 0)
(3.52514 0.301256 0)
(2.08569 0.427778 0)
(0.811386 0.505977 0)
(-0.317313 0.553822 0)
(-1.30871 0.585712 0)
(-2.16766 0.610517 0)
(-2.91786 0.622781 0)
(-3.57464 0.629067 0)
(-4.16863 0.631127 0)
(-4.69171 0.62848 0)
(-5.15579 0.620558 0)
(-5.57473 0.618787 0)
(-5.9282 0.603186 0)
(-6.25251 0.591297 0)
(7.82858 -0.266664 0)
(4.40801 -0.134457 0)
(1.77599 0.0935268 0)
(-0.176583 0.201746 0)
(-1.58498 0.24094 0)
(-2.67514 0.24733 0)
(-3.58337 0.238123 0)
(-4.384 0.231786 0)
(-5.10248 0.222748 0)
(-5.74446 0.220095 0)
(-6.32166 0.218636 0)
(-6.84146 0.217606 0)
(-7.31498 0.216511 0)
(-7.73721 0.215054 0)
(-8.11639 0.213019 0)
(-8.45765 0.211628 0)
(-8.75861 0.201896 0)
(-9.05286 0.211604 0)
(-0.0625886 -0.566852 0)
(-0.198398 -0.553783 0)
(-0.358342 -0.532711 0)
(-0.524321 -0.523727 0)
(-0.68305 -0.521643 0)
(-0.835422 -0.518721 0)
(-0.98553 -0.512675 1.11932e-17)
(-1.13973 -0.505354 -1.11234e-17)
(-1.29278 -0.498878 0)
(-1.44426 -0.493036 -1.09855e-17)
(-1.59864 -0.490133 0)
(-1.75527 -0.493579 0)
(-1.91112 -0.49544 0)
(-2.06595 -0.486877 1.07352e-17)
(-2.19572 -0.471483 0)
(-2.27792 -0.469617 0)
(-2.33093 -0.494596 -1.05461e-17)
(-2.38614 -0.547864 0)
(-2.43951 -0.573131 0)
(-2.43176 -0.563702 0)
(-2.34656 -0.545485 1.0306e-17)
(-2.22198 -0.56051 0)
(-2.12789 -0.652064 1.01962e-17)
(-2.06437 -0.759224 0)
(-2.02637 -0.80758 0)
(-2.04236 -0.748525 1.00581e-17)
(-2.14492 -0.60496 0)
(-2.32977 -0.444764 -9.98205e-18)
(-2.5871 -0.314664 0)
(-2.8758 -0.206326 9.81011e-18)
(-3.2012 -0.122011 0)
(-3.55787 -0.0531279 0)
(-3.90972 0.00266146 0)
(-4.24542 0.0510195 0)
(-4.5476 0.0744464 0)
(-4.7998 0.0561117 -9.39364e-18)
(-4.96104 0.0211313 0)
(-5.05277 -0.0269132 1.85122e-17)
(-5.06876 -0.0785834 0)
(-5.00423 -0.127404 -1.82439e-17)
(-4.86775 -0.166121 0)
(-4.64972 -0.220238 0)
(-4.36496 -0.270311 1.78755e-17)
(-3.99009 -0.310622 0)
(-3.53302 -0.368391 1.7646e-17)
(-3.04031 -0.410386 -1.75327e-17)
(-2.50339 -0.445617 0)
(-1.91667 -0.486577 -1.73074e-17)
(-1.28591 -0.518647 -1.71955e-17)
(-0.635426 -0.546732 0)
(0.0247718 -0.560997 0)
(0.677389 -0.563854 0)
(1.31781 -0.571999 0)
(1.94716 -0.587146 0)
(2.55824 -0.599321 1.65565e-17)
(3.18222 -0.610404 0)
(3.80266 -0.631884 -1.63487e-17)
(4.38839 -0.621671 0)
(4.93846 -0.623502 0)
(5.46459 -0.633345 1.60375e-17)
(5.98314 -0.641159 0)
(6.4735 -0.64958 -1.58276e-17)
(6.93147 -0.643476 0)
(7.31972 -0.630961 0)
(7.63038 -0.610282 0)
(7.87047 -0.593163 1.54156e-17)
(8.05823 -0.580525 0)
(8.21112 -0.567602 0)
(8.31958 -0.585909 1.51169e-17)
(8.4426 -0.581415 0)
(8.58486 -0.61717 1.49287e-17)
(8.78317 -0.650031 0)
(9.08971 -0.717869 0)
(9.48801 -0.710081 0)
(9.86616 -0.648294 -1.45347e-17)
(10.0897 -0.59614 0)
(10.1957 -0.584311 0)
(10.2677 -0.562486 -1.42377e-17)
(10.3099 -0.549582 -1.41377e-17)
(10.2231 -0.574841 0)
(10.0361 -0.611142 -1.39257e-17)
(9.87524 -0.599435 0)
(9.7056 -0.537437 -2.7524e-17)
(9.42652 -0.453786 0)
(9.13729 -0.397457 -2.70845e-17)
(8.94391 -0.385892 0)
(8.78947 -0.401135 2.66122e-17)
(8.5874 -0.478156 0)
(8.31519 -0.577084 0)
(8.02985 -0.607772 0)
(7.74414 -0.583737 -2.55998e-17)
(7.75189 -0.673309 0)
(8.38343 -0.788515 2.51372e-17)
(9.23034 -0.676498 0)
(9.65761 -0.553052 -2.48365e-17)
(9.72863 -0.505016 -2.45785e-17)
(9.61154 -0.656267 -2.43587e-17)
(9.97837 -0.696541 0)
(10.5529 -0.859937 0)
(11.1803 -1.46097 0)
(11.2788 -1.35099 0)
(10.4619 -0.364998 0)
(8.48266 0.356573 0)
(6.3728 0.243562 0)
(4.50928 0.501544 0)
(2.92779 0.419304 2.30185e-17)
(2.13885 -0.082189 2.29133e-17)
(1.60114 -0.223096 0)
(1.07955 -0.401807 0)
(0.235072 -0.341985 0)
(-0.970546 -0.261328 2.22401e-17)
(-1.99192 -0.375955 0)
(-2.19076 -0.6024 0)
(-1.62385 -0.857701 0)
(-0.687618 -1.02627 0)
(-0.069476 -0.946767 -2.13034e-17)
(0.0329294 -0.977113 0)
(1.07512 -0.7871 0)
(-0.79148 -0.646026 2.09861e-17)
(-1.00332 -1.60906 -2.0706e-17)
(2.82405 -1.55839 0)
(0.993512 -0.830766 -2.05639e-17)
(2.84804 -1.79533 0)
(4.42225 -1.01159 2.03204e-17)
(3.47062 -1.30683 0)
(4.74462 -1.24998 0)
(4.94233 -1.37317 0)
(6.07754 -1.4194 0)
(7.61754 -1.36212 0)
(8.51584 -1.17248 -3.92043e-17)
(8.9042 -1.23906 -3.89764e-17)
(9.03085 -1.30894 0)
(9.27238 -1.38884 0)
(9.83658 -1.43803 0)
(10.8649 -1.455 3.79051e-17)
(11.9308 -1.42228 0)
(12.5665 -1.46868 0)
(12.7736 -1.62366 0)
(12.8809 -1.77757 3.69599e-17)
(12.8934 -1.88769 -3.66139e-17)
(13.071 -1.83414 0)
(13.4056 -1.83636 0)
(13.7766 -1.86016 -3.55759e-17)
(14.1297 -1.89642 -3.52447e-17)
(14.5402 -1.96648 0)
(14.9471 -2.00854 0)
(15.3449 -2.06918 3.42618e-17)
(15.8045 -2.14688 -3.39632e-17)
(16.0982 -2.12026 0)
(16.5194 -2.10442 0)
(16.659 -2.11659 -3.31757e-17)
(16.5734 -2.09062 0)
(16.8773 -2.3179 0)
(17.1732 -2.53381 -3.31698e-17)
(15.9996 -2.11885 0)
(14.021 -2.04324 -3.18029e-17)
(14.3112 -2.49145 0)
(16.2325 -2.72527 0)
(17.138 -2.44925 0)
(16.313 -2.44849 3.14256e-17)
(15.2163 -2.49016 0)
(14.1485 -2.43624 0)
(13.0222 -2.64384 0)
(13.871 -3.01101 0)
(14.3507 -2.87967 0)
(14.2829 -3.07663 0)
(15.0993 -2.81024 2.97474e-17)
(11.647 -2.10319 2.89096e-17)
(10.94 -2.67771 0)
(11.5073 -1.82445 0)
(7.04546 -1.50242 0)
(2.66651 -1.73769 -2.78043e-17)
(-0.0500582 -1.96976 0)
(-2.74346 -1.70283 5.69639e-17)
(-7.91993 -1.05618 -5.61559e-17)
(-13.8328 -0.80607 -5.42212e-17)
(-16.4837 -1.93233 5.16704e-17)
(-8.91256 -2.41452 -5.13213e-17)
(-8.71418 -0.597493 5.53359e-17)
(-15.2351 -1.24018 0)
(-0.0725466 -1.62709 0)
(-0.203706 -1.56991 0)
(-0.354298 -1.52108 -2.28082e-17)
(-0.509363 -1.5266 0)
(-0.65034 -1.54244 2.2441e-17)
(-0.784869 -1.54789 2.22863e-17)
(-0.920116 -1.53498 1.10719e-17)
(-1.06884 -1.51695 1.09921e-17)
(-1.21542 -1.49494 0)
(-1.36369 -1.4558 1.08346e-17)
(-1.53093 -1.39885 0)
(-1.69047 -1.34228 0)
(-1.822 -1.29118 -2.12599e-17)
(-1.94215 -1.30111 -1.05876e-17)
(-2.08206 -1.40962 2.10605e-17)
(-2.23655 -1.50341 2.08782e-17)
(-2.40708 -1.4536 1.03646e-17)
(-2.53821 -1.32891 0)
(-2.57808 -1.3544 0)
(-2.59477 -1.58812 0)
(-2.66672 -1.71592 1.01676e-17)
(-2.78873 -1.60465 0)
(-3.12085 -1.3787 -3.05095e-17)
(-3.57542 -1.04196 0)
(-4.05909 -0.743967 0)
(-4.58438 -0.51377 -9.96079e-18)
(-5.10038 -0.310647 0)
(-5.62388 -0.163607 9.85126e-18)
(-6.1334 -0.0375151 1.95457e-17)
(-6.60189 0.0979719 -9.70078e-18)
(-7.04842 0.171322 0)
(-7.4202 0.187455 0)
(-7.72196 0.143164 0)
(-7.95608 0.0552817 1.88981e-17)
(-8.12248 -0.066627 1.87783e-17)
(-8.20415 -0.194109 9.32645e-18)
(-8.2187 -0.327426 0)
(-8.17947 -0.468294 -1.8416e-17)
(-8.04653 -0.616592 0)
(-7.84242 -0.782819 1.82065e-17)
(-7.56087 -0.948138 0)
(-7.18611 -1.12128 0)
(-6.71691 -1.28807 -1.79039e-17)
(-6.204 -1.41972 0)
(-5.63612 -1.54233 -5.30062e-17)
(-5.01895 -1.63482 1.75485e-17)
(-4.37361 -1.72998 0)
(-3.66866 -1.83161 1.73005e-17)
(-2.92022 -1.91047 1.71756e-17)
(-2.16391 -1.96738 0)
(-1.39416 -1.98158 0)
(-0.636116 -1.98458 0)
(0.113056 -1.99076 0)
(0.882114 -1.99527 0)
(1.63172 -2.02527 -1.64453e-17)
(2.36153 -2.07832 -3.26736e-17)
(3.09734 -2.11281 1.62283e-17)
(3.78489 -2.07551 0)
(4.43795 -2.06431 -3.20053e-17)
(5.06647 -2.11604 1.59039e-17)
(5.68484 -2.13855 0)
(6.28669 -2.15183 1.5701e-17)
(6.85927 -2.08864 0)
(7.35559 -2.01277 0)
(7.77048 -1.92909 3.06899e-17)
(8.07932 -1.89909 -1.52384e-17)
(8.31949 -1.90865 3.02687e-17)
(8.49855 -1.89703 -3.01024e-17)
(8.68419 -1.93216 -1.49904e-17)
(8.91854 -1.97376 0)
(9.15877 -2.08891 -1.48893e-17)
(9.45201 -2.26296 0)
(9.80456 -2.54824 0)
(10.2261 -2.66527 0)
(10.6952 -2.53068 -1.45255e-17)
(11.0611 -2.2329 0)
(11.3334 -2.11684 -2.84352e-17)
(11.6114 -2.0922 4.22595e-17)
(11.9999 -1.9488 1.39791e-17)
(12.2431 -1.63241 0)
(12.201 -1.45595 1.37724e-17)
(12.0899 -1.48204 0)
(11.9365 -1.4492 2.70184e-17)
(11.7019 -1.32103 0)
(11.4613 -1.39984 2.66796e-17)
(11.19 -1.68168 -5.28284e-17)
(10.7619 -1.68219 -2.61775e-17)
(10.3917 -1.40767 0)
(10.1038 -1.17477 0)
(9.88489 -1.09091 0)
(9.4563 -1.21071 2.52637e-17)
(9.29576 -1.97255 0)
(9.70775 -2.97752 -2.47052e-17)
(10.6259 -2.79656 0)
(11.5337 -1.98818 7.32873e-17)
(12.1253 -1.55171 2.42884e-17)
(12.3183 -1.51795 2.39305e-17)
(12.7036 -2.40238 0)
(12.5536 -2.76094 0)
(11.0285 -1.36149 0)
(8.25556 -0.0256883 0)
(5.72421 0.683488 0)
(3.77676 1.02407 4.68509e-17)
(1.5743 0.871211 4.57974e-17)
(0.595897 0.0655147 0)
(0.0221479 -0.868153 -2.30933e-17)
(-0.733126 -1.40158 -2.27584e-17)
(-1.00462 -1.61671 0)
(-1.48252 -1.25024 -4.43924e-17)
(-1.94936 -0.820469 0)
(-2.54744 -0.979873 2.18486e-17)
(-2.7893 -1.94624 0)
(-2.51353 -3.14242 0)
(-2.27736 -3.80724 -4.32236e-17)
(-1.55993 -3.87624 0)
(-0.700006 -3.55666 2.11025e-17)
(-0.0198582 -3.60388 0)
(0.8211 -2.79092 0)
(-0.66219 -1.90763 2.0731e-17)
(-0.969019 -5.12241 2.04568e-17)
(2.34024 -5.12034 0)
(0.975653 -2.98735 -2.01032e-17)
(3.46038 -6.00408 0)
(5.36844 -3.40679 1.98656e-17)
(3.94514 -4.11717 3.9157e-17)
(4.95224 -4.19059 0)
(5.5145 -4.66445 0)
(6.47495 -5.23147 0)
(8.8874 -5.49453 0)
(10.7596 -4.72489 3.82032e-17)
(11.927 -4.29792 1.1502e-16)
(12.1743 -4.11085 0)
(12.2284 -4.31615 0)
(12.7011 -4.9066 0)
(14.3165 -5.37501 -3.69335e-17)
(16.5097 -5.38811 0)
(18.5896 -4.88969 0)
(19.5612 -4.34471 7.30656e-17)
(19.5042 -4.23807 3.62315e-17)
(18.6582 -4.45246 3.57585e-17)
(17.5363 -4.813 0)
(16.7064 -5.19265 0)
(16.252 -5.4516 3.42805e-17)
(16.0061 -5.60896 -3.37533e-17)
(16.0353 -5.84026 0)
(16.1611 -5.96196 0)
(16.2111 -6.11213 -3.20201e-17)
(16.715 -6.24326 9.49112e-17)
(16.7869 -6.34399 0)
(16.864 -6.42587 0)
(17.1818 -6.31339 3.03168e-17)
(17.2584 -6.60038 0)
(17.5151 -6.80151 6.27116e-17)
(16.5724 -6.10926 -3.1539e-17)
(13.5359 -5.18753 0)
(11.6615 -6.20712 2.90741e-17)
(12.3904 -8.44395 5.95238e-17)
(14.5614 -9.18556 0)
(17.386 -7.86042 0)
(17.1565 -7.1973 -2.90407e-17)
(15.7133 -7.16563 0)
(14.1106 -7.28779 5.48175e-17)
(12.4512 -8.1751 0)
(14.0489 -9.41739 0)
(15.0094 -8.70772 0)
(16.0176 -9.21722 0)
(17.628 -7.90983 -2.6828e-17)
(12.0565 -5.77631 -2.55397e-17)
(11.4617 -8.835 0)
(13.2927 -6.5057 0)
(9.2198 -4.78487 0)
(4.36559 -4.88009 2.42929e-17)
(0.584924 -5.49467 0)
(-3.63596 -4.34404 -5.18246e-17)
(-10.0675 -2.89882 5.04098e-17)
(-15.6051 -3.43112 4.83698e-17)
(-15.7412 -7.86499 4.70813e-17)
(-11.5806 -10.0664 4.84111e-17)
(-4.67041 -3.44682 4.95187e-17)
(-11.4911 -2.8343 0)
(-0.0785199 -2.69022 0)
(-0.196316 -2.65971 0)
(-0.317547 -2.59321 2.29229e-17)
(-0.445534 -2.597 2.26745e-17)
(-0.559303 -2.62508 -2.24751e-17)
(-0.662941 -2.61977 -2.22942e-17)
(-0.763579 -2.56689 8.004e-21)
(-0.877108 -2.50267 0)
(-1.0108 -2.47465 0)
(-1.15423 -2.42077 0)
(-1.27928 -2.34629 0)
(-1.43051 -2.38702 0)
(-1.6364 -2.43028 6.30043e-17)
(-1.85909 -2.37254 0)
(-2.1276 -2.23262 -2.06857e-17)
(-2.44007 -2.06269 -2.06508e-17)
(-2.62167 -2.08032 0)
(-2.68894 -2.37901 0)
(-2.78979 -2.54947 0)
(-3.1255 -2.35364 0)
(-3.75214 -1.92499 -2.03431e-17)
(-4.39423 -1.40724 0)
(-5.11682 -1.09304 2.01928e-17)
(-5.73963 -0.846916 0)
(-6.31848 -0.587531 0)
(-6.86621 -0.355268 0)
(-7.33501 -0.162108 3.93888e-17)
(-7.81533 -0.000426467 0)
(-8.21403 0.123677 -1.94786e-17)
(-8.55475 0.177667 3.88106e-17)
(-8.84537 0.159076 0)
(-9.0993 0.0897111 0)
(-9.27349 -0.0214865 0)
(-9.37996 -0.168043 -1.91559e-17)
(-9.43781 -0.349923 -1.90657e-17)
(-9.42118 -0.551815 0)
(-9.35324 -0.7768 0)
(-9.20464 -1.0155 3.75465e-17)
(-8.9447 -1.27831 3.73422e-17)
(-8.60185 -1.55978 -3.71337e-17)
(-8.20937 -1.84511 0)
(-7.77469 -2.10002 0)
(-7.27044 -2.31962 0)
(-6.7011 -2.50787 0)
(-6.10468 -2.67765 3.59259e-17)
(-5.46142 -2.85006 3.56726e-17)
(-4.78897 -3.0098 -3.54398e-17)
(-4.09715 -3.16861 0)
(-3.35519 -3.29411 0)
(-2.61078 -3.38153 0)
(-1.85523 -3.44183 0)
(-1.0582 -3.48089 3.4125e-17)
(-0.231515 -3.49962 0)
(0.584447 -3.4996 0)
(1.35624 -3.52129 3.33199e-17)
(2.14216 -3.58001 3.30819e-17)
(2.94351 -3.6077 0)
(3.66004 -3.56824 -6.51307e-17)
(4.39278 -3.5752 3.23509e-17)
(5.0872 -3.6415 -3.21719e-17)
(5.73038 -3.69914 0)
(6.39961 -3.75561 0)
(6.99735 -3.68972 0)
(7.5607 -3.55521 0)
(8.07811 -3.39078 -3.09395e-17)
(8.46364 -3.22838 -6.13428e-17)
(8.80429 -3.16494 -3.05135e-17)
(9.09728 -3.13936 3.04337e-17)
(9.34664 -3.22501 0)
(9.65608 -3.38542 -6.08867e-17)
(10.0225 -3.54099 -6.08538e-17)
(10.3937 -3.76588 -6.07973e-17)
(10.6616 -4.05671 6.06081e-17)
(10.7554 -4.26305 0)
(10.8737 -4.20284 8.89881e-17)
(11.0396 -3.82672 0)
(11.2322 -3.64443 -2.88245e-17)
(11.3922 -3.79057 -2.85417e-17)
(11.7894 -3.76529 0)
(12.3498 -3.34155 0)
(12.6085 -2.93992 -5.52193e-17)
(12.7382 -2.85318 0)
(13.0116 -2.71004 -5.40174e-17)
(13.456 -2.42188 0)
(13.6877 -2.26384 5.31973e-17)
(13.6157 -2.05288 1.05397e-16)
(13.3171 -1.76221 0)
(12.7244 -1.85351 0)
(12.1255 -2.31081 0)
(11.7658 -2.4856 5.07139e-17)
(11.3951 -2.30595 0)
(11.4092 -2.99038 5.00932e-17)
(11.5825 -4.45199 0)
(11.8538 -4.99574 0)
(12.8751 -4.12051 -9.81145e-17)
(13.5148 -3.30538 0)
(13.8223 -3.36445 -4.76842e-17)
(12.4749 -2.79329 0)
(9.06269 -1.05818 -4.73179e-17)
(6.35823 0.325962 0)
(4.11242 1.17913 0)
(2.55958 1.58848 0)
(1.58302 1.37559 -1.36108e-16)
(0.69079 0.602514 -4.52318e-17)
(0.522148 -0.493096 0)
(-0.672422 -1.07994 0)
(-1.64998 -1.82382 0)
(-2.4182 -2.26436 0)
(-2.78371 -2.39366 4.43022e-17)
(-2.5181 -2.26442 -8.84137e-17)
(-2.19896 -2.42497 -4.40952e-17)
(-1.28775 -3.53965 8.81043e-17)
(-0.780342 -4.32682 8.73341e-17)
(-1.14703 -4.79248 4.33162e-17)
(-1.19119 -5.84496 0)
(-0.856811 -6.2716 8.66289e-17)
(-0.225842 -5.80575 0)
(-0.176415 -4.66352 -8.35942e-17)
(0.289888 -3.39016 -4.12159e-17)
(-0.0384887 -7.88679 0)
(1.08041 -8.13323 8.34388e-17)
(0.289413 -5.52514 3.95512e-17)
(4.42246 -10.6786 0)
(5.19356 -5.07648 3.9405e-17)
(3.08431 -6.17295 -1.17736e-16)
(4.0935 -6.7549 0)
(4.94225 -7.55005 0)
(5.51645 -8.69142 0)
(8.21491 -9.63293 0)
(10.3895 -8.31162 -7.52278e-17)
(11.753 -7.40993 -7.56459e-17)
(11.8228 -6.67479 0)
(11.7918 -6.98618 0)
(12.3555 -8.04019 0)
(14.0824 -9.5528 0)
(16.4871 -10.0262 0)
(19.527 -9.3042 0)
(21.7253 -8.26611 -7.20347e-17)
(22.7698 -7.29062 1.98214e-19)
(22.708 -6.99015 0)
(21.8039 -7.15183 0)
(20.6101 -7.61291 -6.99049e-17)
(19.5387 -8.35837 0)
(18.4676 -8.80294 6.72442e-17)
(17.792 -9.3196 6.59297e-17)
(17.4958 -9.56625 0)
(17.056 -9.98993 0)
(17.1075 -10.3295 -6.13877e-17)
(17.4835 -10.207 -1.20793e-16)
(17.1284 -10.5574 0)
(17.0545 -10.6207 0)
(17.3966 -10.6181 0)
(17.3915 -10.6711 -6.09646e-17)
(15.6216 -9.83761 6.07166e-17)
(12.5869 -8.7493 0)
(11.8241 -10.8407 1.18867e-16)
(12.2726 -14.3142 6.28927e-17)
(12.9018 -16.1052 -1.21026e-16)
(16.2873 -13.9986 0)
(17.1095 -12.2398 0)
(15.9917 -11.7711 -1.10776e-16)
(14.2968 -11.728 -5.25994e-17)
(12.4024 -13.3927 0)
(14.0087 -16.0526 0)
(14.5888 -14.5535 0)
(17.1961 -15.738 0)
(19.7037 -12.8548 -1.027e-16)
(12.8904 -8.78427 0)
(12.5463 -15.8047 0)
(14.5115 -10.7674 0)
(10.1444 -7.51271 0)
(4.95757 -7.44233 0)
(-0.0656114 -8.10955 0)
(-5.51765 -6.46705 -1.00091e-16)
(-11.9789 -4.64166 0)
(-15.7398 -6.7138 0)
(-14.2673 -12.3678 -1.95827e-16)
(-16.3272 -17.0891 1.03692e-16)
(-4.56209 -7.48165 -9.68647e-17)
(-9.679 -4.65206 9.93064e-17)
(-0.0811814 -3.69533 0)
(-0.183307 -3.70641 -4.7011e-17)
(-0.269024 -3.63764 0)
(-0.366733 -3.64754 -2.27822e-17)
(-0.45985 -3.71526 0)
(-0.545106 -3.73629 0)
(-0.63215 -3.673 2.21601e-17)
(-0.716974 -3.56395 0)
(-0.83729 -3.44717 0)
(-1.01587 -3.42141 0)
(-1.22708 -3.30614 0)
(-1.45093 -3.00931 0)
(-1.74866 -2.74405 -8.38223e-17)
(-2.11258 -2.54298 -4.15612e-17)
(-2.42382 -2.39897 4.16132e-17)
(-2.6681 -2.62733 0)
(-2.88095 -3.06282 0)
(-3.28169 -2.90941 0)
(-3.95038 -2.31993 0)
(-4.7145 -1.70021 0)
(-5.49686 -1.26568 -4.07979e-17)
(-6.13875 -0.939241 -4.06516e-17)
(-6.75966 -0.664124 4.05484e-17)
(-7.28517 -0.446271 -4.03566e-17)
(-7.77758 -0.298762 0)
(-8.24703 -0.181012 0)
(-8.64948 -0.0765454 -3.98843e-17)
(-9.01572 -0.0256271 0)
(-9.31516 -0.0315556 0)
(-9.58775 -0.0585899 -3.95252e-17)
(-9.77203 -0.0940139 -3.93799e-17)
(-9.90998 -0.200192 -3.91736e-17)
(-9.98341 -0.352879 0)
(-9.9953 -0.564389 0)
(-9.94755 -0.81288 3.83761e-17)
(-9.84107 -1.08402 0)
(-9.66104 -1.3904 0)
(-9.4159 -1.70782 -3.753e-17)
(-9.11981 -2.03988 3.7222e-17)
(-8.74955 -2.38967 -3.69293e-17)
(-8.3291 -2.74496 0)
(-7.8518 -3.05252 0)
(-7.32098 -3.32553 -7.22639e-17)
(-6.74031 -3.57696 0)
(-6.11462 -3.81363 -7.13529e-17)
(-5.45939 -4.05119 -1.06408e-16)
(-4.77529 -4.24803 1.05808e-16)
(-4.08636 -4.41166 -7.0155e-17)
(-3.37447 -4.5843 0)
(-2.63278 -4.74222 0)
(-1.87848 -4.87736 -6.90472e-17)
(-1.1056 -4.97462 -3.43523e-17)
(-0.319548 -5.02299 0)
(0.474179 -5.05936 0)
(1.26017 -5.11841 -3.37377e-17)
(2.02555 -5.18789 -6.69893e-17)
(2.83214 -5.1768 0)
(3.5934 -5.1156 6.62042e-17)
(4.36353 -5.17746 -6.57452e-17)
(5.05618 -5.21168 6.53487e-17)
(5.7451 -5.25773 0)
(6.35565 -5.31108 0)
(6.91546 -5.19633 0)
(7.48311 -5.06031 0)
(8.05538 -4.88237 0)
(8.59314 -4.65817 6.22259e-17)
(9.14073 -4.53628 0)
(9.66758 -4.55294 0)
(10.1182 -4.74306 0)
(10.5703 -5.00425 1.23205e-16)
(11.0126 -5.2174 6.13757e-17)
(11.4104 -5.35461 6.09301e-17)
(11.6639 -5.34823 -1.20747e-16)
(11.6988 -5.35734 5.98706e-17)
(11.5724 -5.32323 -5.94012e-17)
(11.4738 -5.14493 0)
(11.5723 -4.9684 5.83163e-17)
(11.6716 -5.24531 0)
(11.768 -5.49943 0)
(11.9234 -5.05227 0)
(11.906 -4.28807 1.10566e-16)
(12.0116 -4.3488 -5.48916e-17)
(12.51 -4.6989 -5.44753e-17)
(13.1809 -4.37551 -1.07716e-16)
(13.6632 -3.81966 -1.59966e-16)
(14.166 -3.63098 -5.29738e-17)
(14.6666 -3.36731 0)
(14.7524 -2.72284 -1.03855e-16)
(14.7847 -2.48241 0)
(14.563 -2.69281 -1.53049e-16)
(13.8723 -2.96704 0)
(13.6449 -3.82763 -1.50414e-16)
(14.0079 -5.45903 0)
(13.97 -6.71517 0)
(13.8105 -6.17046 -4.88063e-17)
(13.2922 -4.57939 0)
(11.3256 -2.57247 4.78175e-17)
(8.23483 -0.515009 9.46835e-17)
(5.19357 0.559863 4.7038e-17)
(3.30051 0.947482 9.35539e-17)
(1.8498 1.03355 -9.23195e-17)
(1.01819 0.764293 -9.19581e-17)
(0.356124 0.478242 1.84986e-16)
(0.136603 -0.480527 0)
(-0.550873 -1.06365 0)
(-1.88908 -1.50783 9.07072e-17)
(-2.23931 -2.68932 -9.07817e-17)
(-2.87322 -3.46282 0)
(-3.03504 -4.07031 0)
(-3.20194 -4.33435 9.01494e-17)
(-2.83125 -5.13032 0)
(-1.98867 -6.40436 -1.99966e-20)
(-2.00122 -6.48085 -1.48913e-20)
(-1.88471 -6.56524 8.87038e-17)
(-1.25296 -7.76566 0)
(-1.22828 -8.04644 -8.71745e-17)
(-0.749795 -7.74365 0)
(-0.351139 -7.43159 8.37081e-17)
(1.02413 -5.79959 0)
(1.3378 -9.82123 0)
(1.00629 -10.1393 -8.26744e-17)
(-0.265387 -9.39893 -7.96103e-17)
(5.39483 -15.604 0)
(4.0345 -6.25437 -7.89687e-17)
(2.14424 -8.35111 1.61236e-16)
(3.73609 -10.0581 0)
(5.29241 -10.7979 0)
(5.05503 -12.1797 0)
(7.35144 -14.1849 0)
(9.97821 -11.8848 7.48567e-17)
(11.4758 -10.5462 -1.49826e-16)
(11.8062 -9.19751 0)
(12.2683 -9.92433 0)
(13.3084 -11.6864 0)
(15.0711 -13.6859 0)
(17.1638 -14.6043 0)
(19.7748 -14.0629 0)
(22.3992 -12.2541 0)
(23.714 -10.9903 7.18371e-17)
(24.3412 -10.0376 0)
(24.1643 -10.0232 0)
(23.3332 -10.426 6.99442e-17)
(22.6862 -10.9644 0)
(21.4824 -11.6981 0)
(20.2188 -12.6038 -6.67722e-17)
(19.4646 -13.0197 0)
(19.056 -13.6184 0)
(17.9161 -14.4924 1.26362e-16)
(18.3311 -14.3805 1.20163e-16)
(18.1857 -14.4589 1.18482e-16)