/*--------------------------------*- C++ -*----------------------------------*\
| =========                 |                                                 |
| \\      /  F ield         | OpenFOAM: The Open Source CFD Toolbox           |
|  \\    /   O peration     | Version:  dev                                   |
|   \\  /    A nd           | Web:      http://www.openfoam.org               |
|    \\/     M anipulation  |                                                 |
\*---------------------------------------------------------------------------*/
FoamFile
{
    version     2.0;
    format      ascii;
    class       volVectorField;
    object      U_0;
    location    "9.156";
}
// * * * * * * * * * * * * * * * * * * * * * * * * * * * * * * * * * * * * * //

dimensions      [0 1 -1 0 0 0 0];

internalField   nonuniform List<vector> 
12225
(
(6.41764 0.503688 0)
(2.35611 0.305536 0)
(-0.768843 0.143997 0)
(-1.76835 0.115032 0)
(-4.08107 0.146911 0)
(-3.75357 0.0506964 0)
(-6.18395 0.201747 0)
(-5.18852 0.00628995 0)
(-7.66397 0.238509 0)
(-5.91038 -0.0810275 0)
(-8.50441 0.294006 0)
(-6.00277 -0.112283 0)
(-8.59527 0.234291 0)
(-5.27623 -0.152929 0)
(-6.805 -0.138918 0)
(-1.44504 -0.939343 0)
(8.5776 -0.0735429 0)
(-1.0837 6.41857 0)
(8.95641 1.39488 0)
(7.29071 1.28147 0)
(2.93575 0.842832 0)
(2.97916 0.647451 0)
(-1.98849 0.559073 0)
(0.335768 0.409094 0)
(-5.5678 0.62717 0)
(-1.33217 0.267016 0)
(-8.25629 0.694177 0)
(-1.93998 0.101588 0)
(-10.0002 0.635394 0)
(-1.41211 -0.108771 0)
(-10.0825 0.670582 0)
(-0.442286 -0.917606 0)
(-8.63374 0.369971 0)
(-0.454787 -3.9897 0)
(-4.34107 -1.08134 0)
(-7.39629 3.56825 0)
(8.31044 1.54424 0)
(10.0684 1.75955 0)
(4.3344 1.32213 0)
(7.31697 1.21168 0)
(-0.163977 1.008 0)
(5.07957 1.06439 0)
(-3.92006 0.949976 0)
(3.55025 0.815512 0)
(-6.35821 0.976404 0)
(2.74695 0.239199 0)
(-6.90243 1.00907 0)
(2.07173 -0.24179 0)
(-6.60341 1.062 0)
(0.96654 -0.830522 0)
(-6.08397 1.12601 0)
(-0.36195 -2.35574 0)
(-5.68623 0.760321 0)
(-8.15307 2.38226 0)
(6.15335 1.56302 0)
(12.373 2.13459 0)
(4.03938 1.64936 0)
(10.0721 1.73889 0)
(1.31778 1.43028 0)
(7.8071 1.51103 0)
(-0.453471 1.4268 0)
(5.76516 1.13079 0)
(-1.78766 1.55012 0)
(3.8865 0.412872 0)
(-2.74754 1.70198 0)
(2.265 -0.200708 0)
(-3.7771 1.90891 0)
(0.387999 -0.998471 0)
(-4.88286 1.86917 0)
(-1.2091 -3.09335 0)
(-6.34501 1.10581 0)
(-11.3866 6.14575 0)
(5.69131 2.1533 0)
(11.9044 2.10721 0)
(5.3041 2.20714 0)
(9.34738 1.86188 0)
(4.04602 2.19895 0)
(6.67049 1.53482 0)
(2.76851 2.19324 0)
(4.69568 1.2563 0)
(1.37661 2.25762 0)
(2.89183 0.895366 0)
(0.140751 2.44057 0)
(1.27353 0.31949 0)
(-1.26519 2.96672 0)
(-0.607107 -0.417927 0)
(-2.75724 3.52192 0)
(-2.33567 -2.51581 0)
(-6.18091 4.85661 0)
(-10.5725 2.28192 0)
(7.53279 2.61086 0)
(8.64021 1.96044 0)
(6.1013 2.569 0)
(6.20525 1.91801 0)
(4.71983 2.72346 0)
(3.94587 1.71094 0)
(3.25682 2.72442 0)
(2.51155 1.53901 0)
(1.76667 2.84408 0)
(1.20036 1.2807 0)
(0.826675 2.95134 0)
(0.270791 0.707312 0)
(-0.258903 3.54492 0)
(-0.69098 0.0912654 0)
(-1.19969 3.8326 0)
(-1.73173 0.0218706 0)
(-5.7005 6.48127 0)
(-3.81553 3.5984 0)
(9.29172 3.33496 0)
(7.46529 2.0959 0)
(7.05984 3.44624 0)
(5.17513 1.98255 0)
(5.06566 3.63452 0)
(3.43872 1.80489 0)
(3.21079 3.64685 0)
(2.16016 1.64238 0)
(1.70355 3.7613 0)
(1.07343 1.46114 0)
(0.870331 3.88829 0)
(0.430991 1.03019 0)
(0.0628652 4.48526 0)
(-0.1201 0.790237 0)
(-1.10587 4.57526 0)
(-0.758587 0.725987 0)
(-3.61194 4.80982 0)
(-0.966882 3.59997 0)
(9.41605 3.573 0)
(7.7361 2.4969 0)
(7.12723 3.76643 0)
(5.68741 2.39056 0)
(4.98612 3.86907 0)
(3.84013 2.27123 0)
(3.14462 3.86266 0)
(2.2608 2.1888 0)
(1.98472 3.8976 0)
(1.17532 2.12192 0)
(1.18717 3.85628 0)
(0.402042 1.86486 0)
(0.216879 4.37098 0)
(-0.142798 1.81049 0)
(-0.999479 4.45925 0)
(-0.677039 2.12185 0)
(-2.37149 5.06773 0)
(-0.946524 4.90583 0)
(9.89421 4.03321 0)
(7.78604 2.55773 0)
(7.35472 4.40872 0)
(5.6214 2.44238 0)
(5.21221 4.56419 0)
(3.72032 2.39958 0)
(3.42534 4.53341 0)
(2.22171 2.34131 0)
(2.18541 4.42306 0)
(1.13561 2.2796 0)
(1.00735 4.3863 0)
(0.26382 2.25749 0)
(-0.153585 4.64386 0)
(-0.359934 2.39296 0)
(-1.15264 4.63386 0)
(-0.928683 3.17001 0)
(-1.97879 5.05292 0)
(-0.929125 5.06122 0)
(9.39549 4.22342 0)
(7.93099 3.13093 0)
(7.03631 4.68368 0)
(5.76726 3.11383 0)
(4.96037 4.6941 0)
(4.035 3.17184 0)
(3.24487 4.60023 0)
(2.61874 3.20999 0)
(1.94046 4.59369 0)
(1.45067 3.27849 0)
(0.831108 4.61946 0)
(0.731289 3.29108 0)
(-0.0512804 4.87904 0)
(0.0333186 3.48549 0)
(-0.747324 4.821 0)
(-0.525393 4.10292 0)
(-1.06319 5.17757 0)
(-0.683997 5.4628 0)
(9.80612 4.84804 0)
(7.8837 3.35759 0)
(7.32204 5.20552 0)
(5.84815 3.42848 0)
(5.20795 5.22478 0)
(3.90086 3.52599 0)
(3.22628 5.15222 0)
(2.25318 3.52945 0)
(1.8014 4.98842 0)
(1.13628 3.56314 0)
(0.726367 4.95526 0)
(0.463662 3.81487 0)
(-0.0656142 5.09127 0)
(-0.14715 4.18711 0)
(-0.639004 5.03742 0)
(-0.646289 4.82755 0)
(-0.846461 5.33125 0)
(-0.598526 5.49369 0)
(9.73543 5.05265 0)
(8.13971 4.2329 0)
(7.12255 5.31478 0)
(5.81411 4.34325 0)
(4.92079 5.3954 0)
(3.98429 4.5128 0)
(3.19349 5.33638 0)
(2.52562 4.54951 0)
(1.85907 5.28245 0)
(1.27784 4.6188 0)
(0.719648 5.35767 0)
(0.50915 4.82692 0)
(0.0607742 5.43329 0)
(-0.0554592 5.18137 0)
(-0.374196 5.52204 0)
(-0.438658 5.54655 0)
(-0.477338 5.79041 0)
(-0.324633 5.99094 0)
(9.62872 5.64329 0)
(8.05112 4.85566 0)
(6.99878 5.76336 0)
(5.74657 4.9112 0)
(4.8688 5.77885 0)
(3.97697 5.09608 0)
(3.22995 5.77742 0)
(2.43316 5.22037 0)
(1.74383 5.69277 0)
(1.10165 5.30652 0)
(0.51464 5.72525 0)
(0.178053 5.53425 0)
(-0.17022 5.79005 0)
(-0.34437 5.78323 0)
(-0.458528 5.95695 0)
(-0.508842 6.07888 0)
(-0.490822 6.21507 0)
(-0.288632 6.35311 0)
(9.08513 5.88496 0)
(7.89558 5.64155 0)
(6.73617 6.05139 0)
(5.56191 5.69461 0)
(4.53274 6.05907 0)
(3.64893 5.81944 0)
(2.82868 6.16153 0)
(2.14446 6.06057 0)
(1.51692 6.33215 0)
(0.970816 6.23766 0)
(0.553282 6.38026 0)
(0.249139 6.3331 0)
(-0.0182278 6.35437 0)
(-0.199163 6.38421 0)
(-0.335846 6.4503 0)
(-0.412708 6.52197 0)
(-0.432967 6.63409 0)
(-0.27785 6.7213 0)
(9.34574 6.24688 0)
(8.11419 6.16993 0)
(7.00451 6.36443 0)
(5.9406 6.36672 0)
(4.88764 6.5925 0)
(3.96472 6.58036 0)
(3.10372 6.68907 0)
(2.38487 6.66198 0)
(1.77342 6.69065 0)
(1.28337 6.68072 0)
(0.900932 6.75866 0)
(0.580119 6.81557 0)
(0.312019 6.88824 0)
(0.0875397 6.96958 0)
(-0.0910049 7.06215 0)
(-0.191473 7.13259 0)
(-0.263307 7.19347 0)
(-0.175451 7.21793 0)
(9.6617 6.57231 0)
(8.19495 6.82516 0)
(6.9075 6.8313 0)
(5.72883 6.82444 0)
(4.71582 6.91375 0)
(3.85603 6.9948 0)
(3.10005 7.1033 0)
(2.43026 7.19658 0)
(1.8144 7.256 0)
(1.26917 7.28128 0)
(0.816427 7.3092 0)
(0.439089 7.34185 0)
(0.127725 7.39625 0)
(-0.0850206 7.44467 0)
(-0.238303 7.5103 0)
(-0.299373 7.56506 0)
(-0.342432 7.6133 0)
(-0.252781 7.63563 0)
(9.44044 6.96042 0)
(8.16243 7.16354 0)
(7.09288 7.13433 0)
(6.02773 7.16168 0)
(5.00843 7.22938 0)
(4.08344 7.30934 0)
(3.26016 7.37678 0)
(2.54812 7.45148 0)
(1.92393 7.52412 0)
(1.37006 7.59382 0)
(0.893007 7.64352 0)
(0.508268 7.68871 0)
(0.186382 7.73934 0)
(-0.0646905 7.77075 0)
(-0.252037 7.79757 0)
(-0.360067 7.81357 0)
(-0.434976 7.81342 0)
(-0.363801 7.82443 0)
(9.29904 6.77652 0)
(7.93746 6.98833 0)
(6.83901 7.03249 0)
(5.85451 7.07419 0)
(4.98879 7.16019 0)
(4.18264 7.27117 0)
(3.43163 7.39427 0)
(2.74674 7.5099 0)
(2.12562 7.59441 0)
(1.5724 7.66804 0)
(1.10435 7.71437 0)
(0.721729 7.74458 0)
(0.401533 7.76636 0)
(0.158723 7.80034 0)
(-0.0343746 7.82446 0)
(-0.174932 7.83857 0)
(-0.284637 7.85209 0)
(-0.267497 7.8556 0)
(9.38923 6.48148 0)
(8.09408 6.68234 0)
(7.03126 6.61045 0)
(5.97045 6.60588 0)
(4.99688 6.68941 0)
(4.15533 6.84637 0)
(3.45397 7.01328 0)
(2.85567 7.16054 0)
(2.33733 7.27052 0)
(1.86278 7.33176 0)
(1.40037 7.39155 0)
(1.00145 7.42454 0)
(0.662046 7.45292 0)
(0.376741 7.47636 0)
(0.162495 7.49365 0)
(0.0131062 7.50315 0)
(-0.112034 7.49886 0)
(-0.139431 7.50197 0)
(9.18737 5.84146 0)
(7.93649 6.06174 0)
(6.92736 6.10172 0)
(5.97425 6.1786 0)
(5.07848 6.20532 0)
(4.2532 6.22516 0)
(3.52525 6.25671 0)
(2.90767 6.36757 0)
(2.35373 6.52586 0)
(1.89336 6.67296 0)
(1.47785 6.80058 0)
(1.09519 6.8924 0)
(0.769142 6.94285 0)
(0.49931 6.96319 0)
(0.278247 6.96656 0)
(0.0955345 6.95924 0)
(-0.0453413 6.94548 0)
(-0.106995 6.94679 0)
(9.31774 5.31405 0)
(8.237 5.33915 0)
(7.27593 5.27039 0)
(6.34875 5.32929 0)
(5.49091 5.42656 0)
(4.66443 5.54588 0)
(3.88508 5.64612 0)
(3.17532 5.74979 0)
(2.53593 5.85647 0)
(1.99882 5.96012 0)
(1.55341 6.0363 0)
(1.17615 6.10302 0)
(0.853519 6.16718 0)
(0.576528 6.20762 0)
(0.362753 6.23531 0)
(0.181097 6.25084 0)
(0.0421845 6.26368 0)
(-0.0230985 6.2726 0)
(9.34841 4.56145 0)
(8.25118 4.52065 0)
(7.30665 4.53155 0)
(6.3444 4.6117 0)
(5.45543 4.68285 0)
(4.64714 4.76863 0)
(3.91909 4.85044 0)
(3.28485 4.94494 0)
(2.69879 5.04949 0)
(2.19309 5.14626 0)
(1.73946 5.23963 0)
(1.35086 5.30445 0)
(1.00902 5.35465 0)
(0.702133 5.3996 0)
(0.470852 5.41634 0)
(0.292981 5.41592 0)
(0.160506 5.40649 0)
(0.0831105 5.40867 0)
(9.31988 3.90697 0)
(8.2778 3.73703 0)
(7.40011 3.69 0)
(6.57187 3.78141 0)
(5.77305 3.88542 0)
(4.9956 3.98389 0)
(4.25351 4.05165 0)
(3.58352 4.13797 0)
(2.96106 4.23612 0)
(2.4421 4.3387 0)
(1.9826 4.43458 0)
(1.60719 4.50219 0)
(1.27927 4.54262 0)
(0.999917 4.56366 0)
(0.762961 4.57065 0)
(0.565774 4.57065 0)
(0.422992 4.55955 0)
(0.333617 4.56262 0)
(9.60915 3.12022 0)
(8.6467 2.94043 0)
(7.71724 2.89834 0)
(6.79681 2.99962 0)
(5.92044 3.12444 0)
(5.13015 3.23922 0)
(4.38817 3.31055 0)
(3.73241 3.37129 0)
(3.14114 3.43553 0)
(2.6328 3.51193 0)
(2.18908 3.58897 0)
(1.81351 3.65593 0)
(1.47587 3.70828 0)
(1.19428 3.73063 0)
(0.949481 3.73891 0)
(0.751744 3.73806 0)
(0.566283 3.73243 0)
(0.433296 3.73022 0)
(9.57793 2.41757 0)
(8.52078 2.25679 0)
(7.6166 2.23458 0)
(6.79882 2.3225 0)
(6.02904 2.42826 0)
(5.311 2.50423 0)
(4.60064 2.53692 0)
(3.9507 2.57939 0)
(3.34251 2.65794 0)
(2.80333 2.74338 0)
(2.33074 2.82756 0)
(1.93501 2.89349 0)
(1.59272 2.93665 0)
(1.31467 2.96243 0)
(1.08439 2.9678 0)
(0.891757 2.97342 0)
(0.732422 2.97304 0)
(0.610891 2.98278 0)
(9.48166 1.78291 0)
(8.57778 1.56652 0)
(7.85222 1.50893 0)
(7.1219 1.61061 0)
(6.39302 1.72362 0)
(5.66453 1.80997 0)
(4.94825 1.86561 0)
(4.2914 1.91537 0)
(3.66021 1.98376 0)
(3.08268 2.05783 0)
(2.55237 2.12333 0)
(2.09539 2.17022 0)
(1.69143 2.19737 0)
(1.35615 2.20957 0)
(1.07115 2.21721 0)
(0.831327 2.2263 0)
(0.622463 2.23921 0)
(0.468055 2.25169 0)
(9.55743 1.15549 0)
(8.94505 0.895376 0)
(8.22659 0.845468 0)
(7.38904 0.960491 0)
(6.5264 1.07593 0)
(5.65922 1.15354 0)
(4.82058 1.20449 0)
(4.0453 1.2597 0)
(3.33177 1.33934 0)
(2.70347 1.43387 0)
(2.15164 1.50654 0)
(1.6752 1.55329 0)
(1.25137 1.57123 0)
(0.872321 1.57846 0)
(0.533149 1.58329 0)
(0.22358 1.59186 0)
(-0.0538817 1.60948 0)
(-0.287955 1.62609 0)
(9.6129 0.520287 0)
(9.06365 0.282588 0)
(8.31344 0.36701 0)
(7.26543 0.516961 0)
(6.13039 0.639521 0)
(4.98632 0.718132 0)
(3.88647 0.775504 0)
(2.85907 0.824175 0)
(1.92039 0.879101 0)
(1.09505 0.935492 0)
(0.379416 0.976987 0)
(-0.245053 1.00842 0)
(-0.803519 1.03026 0)
(-1.31121 1.05135 0)
(-1.75419 1.06912 0)
(-2.15403 1.08986 0)
(-2.47798 1.09959 0)
(-2.76659 1.10396 0)
(9.46815 -0.140718 0)
(8.30073 -0.369374 0)
(6.71491 -0.168666 0)
(4.95615 0.067003 0)
(3.30313 0.259292 0)
(1.81438 0.391215 0)
(0.503805 0.475447 0)
(-0.649294 0.529836 0)
(-1.65468 0.568468 0)
(-2.51836 0.600314 0)
(-3.26436 0.619927 0)
(-3.90819 0.633657 0)
(-4.48119 0.643418 0)
(-4.97534 0.6487 0)
(-5.40282 0.648612 0)
(-5.77979 0.655257 0)
(-6.08548 0.648612 0)
(-6.36084 0.644414 0)
(7.80725 -0.267366 0)
(4.38768 -0.151011 0)
(1.67297 0.0734935 0)
(-0.361004 0.184208 0)
(-1.84354 0.22554 0)
(-2.99571 0.233589 0)
(-3.95215 0.226002 0)
(-4.78798 0.221589 0)
(-5.53007 0.214431 0)
(-6.18526 0.213859 0)
(-6.76542 0.214834 0)
(-7.27836 0.216395 0)
(-7.73579 0.218058 0)
(-8.13298 0.219473 0)
(-8.47841 0.220413 0)
(-8.77855 0.222511 0)
(-9.02998 0.215685 0)
(-9.2717 0.231811 0)
(-0.0462846 -0.483391 0)
(-0.151142 -0.470922 0)
(-0.278931 -0.450743 0)
(-0.412135 -0.442128 0)
(-0.537908 -0.440397 0)
(-0.657148 -0.438014 0)
(-0.773816 -0.432722 1.11479e-17)
(-0.894223 -0.426273 -1.10789e-17)
(-1.01315 -0.420748 0)
(-1.13006 -0.415967 -1.09426e-17)
(-1.24931 -0.414237 0)
(-1.37051 -0.418956 0)
(-1.49074 -0.422159 0)
(-1.61016 -0.414713 1.06962e-17)
(-1.7049 -0.399802 0)
(-1.75177 -0.398143 0)
(-1.7684 -0.423935 -1.05105e-17)
(-1.78691 -0.479526 0)
(-1.80457 -0.507192 0)
(-1.76133 -0.498787 0)
(-1.63872 -0.481176 1.0276e-17)
(-1.47369 -0.497572 0)
(-1.33664 -0.591967 1.01679e-17)
(-1.22793 -0.703859 0)
(-1.14182 -0.755956 0)
(-1.10724 -0.699071 1.00335e-17)
(-1.15759 -0.556709 0)
(-1.28872 -0.397189 -9.96048e-18)
(-1.48757 -0.268464 0)
(-1.72102 -0.164168 9.7911e-18)
(-1.99284 -0.081951 0)
(-2.29103 -0.0150589 0)
(-2.58299 0.0387322 0)
(-2.85717 0.085194 0)
(-3.0963 0.107587 0)
(-3.28344 0.0883444 -9.38015e-18)
(-3.37717 0.0517678 0)
(-3.39957 0.0017561 1.84879e-17)
(-3.34494 -0.0521153 0)
(-3.20847 -0.103333 -1.82213e-17)
(-2.99906 -0.144187 0)
(-2.7067 -0.200634 0)
(-2.34665 -0.253163 1.7854e-17)
(-1.89529 -0.295977 0)
(-1.36119 -0.355982 1.7625e-17)
(-0.792387 -0.400343 -1.75119e-17)
(-0.173445 -0.437421 0)
(0.486125 -0.483963 -1.72861e-17)
(1.18078 -0.518188 -1.71737e-17)
(1.89816 -0.546532 0)
(2.62025 -0.563389 0)
(3.33042 -0.56911 0)
(4.02345 -0.580559 0)
(4.6992 -0.598954 0)
(5.35053 -0.61402 1.65294e-17)
(6.00819 -0.628466 0)
(6.65188 -0.652579 -1.63187e-17)
(7.24997 -0.645227 0)
(7.8027 -0.651357 0)
(8.32154 -0.664706 1.60029e-17)
(8.82012 -0.676375 0)
(9.2763 -0.688219 -1.579e-17)
(9.68484 -0.685559 0)
(10.008 -0.676576 0)
(10.24 -0.65946 0)
(10.3886 -0.646153 1.5373e-17)
(10.4716 -0.637039 0)
(10.5048 -0.629404 0)
(10.4806 -0.652419 1.50716e-17)
(10.4609 -0.652716 0)
(10.4505 -0.694254 1.48816e-17)
(10.4911 -0.731666 0)
(10.632 -0.799349 0)
(10.8457 -0.786598 0)
(11.0143 -0.725394 -1.44846e-17)
(11.0173 -0.679277 0)
(10.9073 -0.67081 0)
(10.7648 -0.649359 -1.41889e-17)
(10.5835 -0.6402 -1.40882e-17)
(10.271 -0.669799 0)
(9.87408 -0.7037 -1.38768e-17)
(9.51573 -0.683935 0)
(9.1482 -0.615339 -2.74281e-17)
(8.68047 -0.530023 0)
(8.22822 -0.473541 -2.69823e-17)
(7.89117 -0.460591 0)
(7.6031 -0.478995 2.6511e-17)
(7.28231 -0.562656 0)
(6.91462 -0.66149 0)
(6.55537 -0.68594 0)
(6.22504 -0.66074 -2.54961e-17)
(6.23154 -0.751025 0)
(6.87307 -0.850873 2.50431e-17)
(7.69165 -0.728203 0)
(8.07571 -0.610107 -2.4737e-17)
(8.13458 -0.573623 -2.44761e-17)
(8.04983 -0.726402 -2.42618e-17)
(8.47408 -0.757145 0)
(9.09914 -0.944466 0)
(9.7662 -1.55257 0)
(9.86185 -1.37604 0)
(9.00648 -0.360066 0)
(7.02964 0.332202 0)
(4.96082 0.192173 0)
(3.15152 0.436417 0)
(1.61598 0.369839 2.29046e-17)
(0.863238 -0.121938 2.27964e-17)
(0.345438 -0.259123 0)
(-0.137268 -0.429128 0)
(-0.919972 -0.370098 0)
(-2.0782 -0.284398 2.21099e-17)
(-3.07337 -0.385441 0)
(-3.25382 -0.594966 0)
(-2.64221 -0.838431 0)
(-1.64854 -1.00031 0)
(-0.993167 -0.91501 -2.11535e-17)
(-0.857003 -0.930471 0)
(0.239968 -0.73265 0)
(-1.57534 -0.597001 2.08253e-17)
(-1.64049 -1.50916 -2.05456e-17)
(2.1698 -1.44895 0)
(0.323541 -0.733435 -2.03882e-17)
(2.22506 -1.64733 0)
(3.70453 -0.888107 2.01489e-17)
(2.79577 -1.15917 0)
(4.09595 -1.07786 0)
(4.28158 -1.17915 0)
(5.40512 -1.19396 0)
(6.86498 -1.09924 0)
(7.65872 -0.90921 -3.88258e-17)
(7.98926 -0.969573 -3.85821e-17)
(8.10785 -1.02413 0)
(8.38457 -1.07869 0)
(9.00155 -1.09289 0)
(10.0525 -1.06806 3.74846e-17)
(11.0785 -1.00422 0)
(11.6589 -1.04253 0)
(11.8791 -1.1922 0)
(12.0864 -1.32739 3.64757e-17)
(12.2611 -1.4115 -3.61163e-17)
(12.6347 -1.32602 0)
(13.1614 -1.30519 0)
(13.7042 -1.30367 -3.50478e-17)
(14.2095 -1.31526 -3.47093e-17)
(14.7478 -1.35719 0)
(15.2522 -1.37363 0)
(15.73 -1.41026 3.36977e-17)
(16.2313 -1.45824 -3.33866e-17)
(16.5551 -1.40677 0)
(17.0055 -1.37384 0)
(17.1491 -1.36813 -3.25894e-17)
(17.0804 -1.31816 0)
(17.3882 -1.54197 0)
(17.6254 -1.73098 -3.24992e-17)
(16.4143 -1.29272 0)
(14.5522 -1.21809 -3.10872e-17)
(14.9193 -1.59413 0)
(16.6066 -1.75358 0)
(17.1392 -1.50896 0)
(16.1593 -1.5552 3.06843e-17)
(15.0981 -1.6035 0)
(14.1158 -1.54808 0)
(13.0915 -1.72036 0)
(13.7802 -1.99074 0)
(13.8936 -1.88595 0)
(13.4479 -2.03555 0)
(13.8182 -1.8717 2.90171e-17)
(10.5987 -1.37741 2.81338e-17)
(10.383 -1.84146 0)
(11.0088 -1.0203 0)
(6.9393 -0.860484 0)
(3.35355 -1.16661 -2.71761e-17)
(1.42095 -1.40378 0)
(-0.578192 -1.17747 5.57441e-17)
(-5.04392 -0.597864 -5.501e-17)
(-10.2826 -0.362207 -5.32326e-17)
(-12.8861 -1.44641 5.08103e-17)
(-5.55535 -1.97242 -5.0394e-17)
(-5.18187 -0.30961 5.42635e-17)
(-11.4826 -0.949071 0)
(-0.0553701 -1.37945 0)
(-0.156973 -1.32298 0)
(-0.276662 -1.27738 -2.27169e-17)
(-0.400156 -1.28417 0)
(-0.5093 -1.3011 2.23524e-17)
(-0.611845 -1.30838 2.21991e-17)
(-0.7147 -1.29799 1.10316e-17)
(-0.8306 -1.28291 1.09477e-17)
(-0.943888 -1.26397 0)
(-1.05835 -1.22842 1.07922e-17)
(-1.19157 -1.17521 0)
(-1.31679 -1.1215 0)
(-1.41295 -1.07234 -2.11861e-17)
(-1.49642 -1.08351 -1.05499e-17)
(-1.59965 -1.19487 2.09934e-17)
(-1.71825 -1.29509 2.0813e-17)
(-1.85422 -1.25157 1.03295e-17)
(-1.95162 -1.12793 0)
(-1.95598 -1.15232 0)
(-1.93318 -1.39172 0)
(-1.96245 -1.53159 1.01412e-17)
(-2.03606 -1.4314 0)
(-2.3184 -1.21468 -3.04263e-17)
(-2.72871 -0.885694 0)
(-3.16656 -0.592634 0)
(-3.64328 -0.366051 -9.93544e-18)
(-4.10908 -0.16717 0)
(-4.58076 -0.024077 9.82959e-18)
(-5.03813 0.0955743 1.95096e-17)
(-5.45294 0.22339 -9.68139e-18)
(-5.84632 0.292998 0)
(-6.16459 0.306091 0)
(-6.40997 0.259204 0)
(-6.58513 0.165784 1.88699e-17)
(-6.69017 0.0375634 1.87522e-17)
(-6.70852 -0.0965063 9.31213e-18)
(-6.65636 -0.236111 0)
(-6.54916 -0.382771 -1.83891e-17)
(-6.34608 -0.536144 0)
(-6.07016 -0.707722 1.81802e-17)
(-5.71588 -0.878944 0)
(-5.26724 -1.05883 0)
(-4.72224 -1.23302 -1.78804e-17)
(-4.13237 -1.37261 0)
(-3.48878 -1.50282 -5.29448e-17)
(-2.79673 -1.60212 1.75257e-17)
(-2.07666 -1.70414 0)
(-1.30159 -1.81392 1.72768e-17)
(-0.483972 -1.90004 1.71512e-17)
(0.336021 -1.96364 0)
(1.16131 -1.9839 0)
(1.97368 -1.99522 0)
(2.77286 -2.01054 0)
(3.58651 -2.02496 0)
(4.37375 -2.06551 -1.64148e-17)
(5.13432 -2.12776 -3.26162e-17)
(5.89074 -2.16922 1.61945e-17)
(6.58841 -2.14116 0)
(7.24217 -2.14409 -3.19397e-17)
(7.86275 -2.20749 1.58725e-17)
(8.46032 -2.23907 0)
(9.02791 -2.25944 1.56585e-17)
(9.54945 -2.20443 0)
(9.97788 -2.14104 0)
(10.3092 -2.07293 3.06036e-17)
(10.5219 -2.06097 -1.51921e-17)
(10.655 -2.08387 3.01828e-17)
(10.7177 -2.08613 -3.00166e-17)
(10.7803 -2.13601 -1.49438e-17)
(10.8787 -2.19345 0)
(10.9704 -2.3282 -1.48414e-17)
(11.1083 -2.52163 0)
(11.2971 -2.81061 0)
(11.5443 -2.90746 0)
(11.8156 -2.75461 -1.44665e-17)
(11.9649 -2.46729 0)
(12.0253 -2.37217 -2.83217e-17)
(12.1038 -2.343 4.20949e-17)
(12.2784 -2.18224 1.3926e-17)
(12.2822 -1.86947 0)
(12.0148 -1.71427 1.37164e-17)
(11.703 -1.74193 0)
(11.3505 -1.6949 2.69186e-17)
(10.9241 -1.56978 0)
(10.5135 -1.66534 2.65766e-17)
(10.0857 -1.9412 -5.2625e-17)
(9.5227 -1.91294 -2.60765e-17)
(9.04934 -1.62126 0)
(8.67987 -1.38847 0)
(8.38675 -1.31282 0)
(7.90696 -1.46129 2.5155e-17)
(7.74429 -2.24659 0)
(8.18067 -3.19736 -2.46086e-17)
(9.11195 -2.92929 0)
(9.98545 -2.11441 7.30086e-17)
(10.5493 -1.72014 2.41876e-17)
(10.7669 -1.73772 2.38147e-17)
(11.2052 -2.63695 0)
(11.0528 -2.91113 0)
(9.45256 -1.44781 0)
(6.70561 -0.1393 0)
(4.26596 0.534002 0)
(2.37129 0.859906 4.66323e-17)
(0.200797 0.689531 4.55737e-17)
(-0.731498 -0.101183 0)
(-1.25559 -1.01616 -2.29857e-17)
(-1.9813 -1.52848 -2.26495e-17)
(-2.21781 -1.74111 0)
(-2.6522 -1.35357 -4.41626e-17)
(-3.07575 -0.903402 0)
(-3.63935 -1.02784 2.17184e-17)
(-3.87478 -1.95089 0)
(-3.58272 -3.13059 0)
(-3.28824 -3.78876 -4.29475e-17)
(-2.50673 -3.82134 0)
(-1.59788 -3.4604 2.09449e-17)
(-0.872499 -3.4722 0)
(0.0122189 -2.64289 0)
(-1.43659 -1.75283 2.05768e-17)
(-1.60029 -4.82976 2.02879e-17)
(1.74311 -4.81499 0)
(0.353254 -2.7151 -1.99452e-17)
(2.83843 -5.54608 0)
(4.69668 -3.04352 1.97022e-17)
(3.32446 -3.7026 3.88146e-17)
(4.36138 -3.69965 0)
(4.90776 -4.12051 0)
(5.89214 -4.60014 0)
(8.24759 -4.71829 0)
(9.99584 -3.91822 3.788e-17)
(11.0656 -3.46718 1.13967e-16)
(11.2711 -3.26224 0)
(11.3636 -3.42748 0)
(11.9307 -3.93384 0)
(13.6285 -4.24347 -3.6556e-17)
(15.8152 -4.11044 0)
(17.791 -3.53764 0)
(18.6596 -2.98704 7.21798e-17)
(18.591 -2.89118 3.57528e-17)
(17.8301 -3.08025 3.52758e-17)
(16.8807 -3.38231 0)
(16.2591 -3.68398 0)
(16.0008 -3.85225 3.37502e-17)
(15.9302 -3.94073 -3.32052e-17)
(16.0987 -4.08665 0)
(16.3167 -4.13734 0)
(16.4578 -4.21765 -3.1497e-17)
(17.0041 -4.26617 9.33366e-17)
(17.0639 -4.32758 0)
(17.1889 -4.34462 0)
(17.5414 -4.20189 2.9826e-17)
(17.6143 -4.41667 0)
(17.8113 -4.48346 6.16408e-17)
(16.742 -3.72956 -3.08764e-17)
(13.7405 -2.93526 0)
(12.0757 -3.98646 2.84513e-17)
(12.8983 -5.94814 5.81076e-17)
(14.9266 -6.43566 0)
(17.3694 -5.13396 0)
(16.8767 -4.62487 -2.84014e-17)
(15.44 -4.67455 0)
(13.9489 -4.85159 5.3439e-17)
(12.47 -5.67389 0)
(13.9364 -6.65319 0)
(14.5878 -5.97694 0)
(15.1883 -6.29079 0)
(16.1262 -5.23683 -2.62627e-17)
(10.9141 -3.82582 -2.49167e-17)
(10.9049 -6.67612 0)
(12.7188 -4.38572 0)
(8.94131 -3.02116 0)
(4.86424 -3.30704 2.38058e-17)
(1.8832 -3.90911 0)
(-1.63418 -2.88264 -5.07939e-17)
(-7.41179 -1.61637 4.94465e-17)
(-12.4269 -2.15743 4.75202e-17)
(-12.4943 -6.56976 4.61602e-17)
(-8.15143 -8.88895 4.73851e-17)
(-1.51095 -2.64924 4.86075e-17)
(-7.92791 -2.13426 0)
(-0.0601652 -2.28351 0)
(-0.149501 -2.24854 0)
(-0.241569 -2.18782 2.28241e-17)
(-0.339826 -2.1945 2.25864e-17)
(-0.423181 -2.22456 -2.23802e-17)
(-0.496112 -2.22222 -2.22013e-17)
(-0.565601 -2.17355 1.64199e-20)
(-0.647436 -2.11423 0)
(-0.748758 -2.09192 0)
(-0.85933 -2.04343 0)
(-0.950371 -1.9739 0)
(-1.06689 -2.02187 0)
(-1.23774 -2.07429 6.27972e-17)
(-1.42415 -2.02554 0)
(-1.65501 -1.89234 -2.06105e-17)
(-1.93325 -1.72363 -2.05738e-17)
(-2.08277 -1.73657 0)
(-2.11261 -2.04087 0)
(-2.16883 -2.23066 0)
(-2.45353 -2.05491 0)
(-3.03309 -1.64381 -2.02779e-17)
(-3.63076 -1.13482 0)
(-4.31013 -0.825467 2.01359e-17)
(-4.89274 -0.588328 0)
(-5.42592 -0.33878 0)
(-5.93302 -0.11648 0)
(-6.35812 0.0690497 3.93093e-17)
(-6.7892 0.222971 0)
(-7.13789 0.340699 -1.94322e-17)
(-7.42469 0.389226 3.87324e-17)
(-7.65751 0.364291 0)
(-7.85158 0.286746 0)
(-7.96894 0.165628 0)
(-8.01537 0.0119384 -1.91196e-17)
(-8.00785 -0.178174 -1.90322e-17)
(-7.92426 -0.389088 0)
(-7.78776 -0.623245 0)
(-7.57092 -0.870761 3.75036e-17)
(-7.24125 -1.14245 3.73027e-17)
(-6.82538 -1.43353 -3.70976e-17)
(-6.35839 -1.73005 0)
(-5.84838 -1.99771 0)
(-5.26893 -2.22988 0)
(-4.62407 -2.43001 0)
(-3.95132 -2.61161 3.58853e-17)
(-3.23318 -2.79499 3.5642e-17)
(-2.48086 -2.96711 -3.54074e-17)
(-1.71738 -3.13775 0)
(-0.910209 -3.27523 0)
(-0.0990278 -3.3764 0)
(0.714408 -3.44601 0)
(1.56536 -3.49761 3.40759e-17)
(2.44245 -3.5305 0)
(3.30174 -3.54587 0)
(4.11037 -3.58401 3.32587e-17)
(4.9267 -3.65786 3.30057e-17)
(5.74605 -3.69919 0)
(6.47231 -3.6776 -6.49842e-17)
(7.20712 -3.70606 3.22657e-17)
(7.8923 -3.79352 -3.20844e-17)
(8.51542 -3.86937 0)
(9.15382 -3.93802 0)
(9.6995 -3.88242 0)
(10.1974 -3.76309 0)
(10.6285 -3.61834 -3.08307e-17)
(10.912 -3.48501 -6.11565e-17)
(11.1439 -3.45266 -3.04176e-17)
(11.3196 -3.45793 3.03452e-17)
(11.4488 -3.57429 0)
(11.6301 -3.75703 -6.07238e-17)
(11.8491 -3.93538 -6.06826e-17)
(12.0508 -4.18722 -6.06184e-17)
(12.1271 -4.49568 6.04035e-17)
(12.0288 -4.69168 0)
(11.9611 -4.60269 8.85735e-17)
(11.9305 -4.2273 0)
(11.9158 -4.08468 -2.87051e-17)
(11.8832 -4.23425 -2.84067e-17)
(12.1018 -4.16518 0)
(12.4507 -3.72576 0)
(12.4852 -3.3539 -5.49999e-17)
(12.4233 -3.26984 0)
(12.5196 -3.09408 -5.38003e-17)
(12.7678 -2.80003 0)
(12.794 -2.64786 5.29918e-17)
(12.5367 -2.42507 1.0496e-16)
(12.072 -2.14519 0)
(11.3468 -2.27187 0)
(10.6625 -2.72506 0)
(10.2381 -2.85608 5.05224e-17)
(9.82337 -2.68426 0)
(9.814 -3.42465 4.99e-17)
(9.96831 -4.85468 0)
(10.2761 -5.26244 0)
(11.3385 -4.33296 -9.76429e-17)
(11.9878 -3.58818 0)
(12.2707 -3.68026 -4.75065e-17)
(10.8447 -3.04721 0)
(7.46189 -1.28086 -4.71178e-17)
(4.84706 0.0802041 0)
(2.67072 0.910829 0)
(1.18818 1.29785 0)
(0.249349 1.08284 -1.35469e-16)
(-0.623466 0.330754 -4.50158e-17)
(-0.758431 -0.727024 0)
(-1.90374 -1.30798 0)
(-2.85925 -2.02824 0)
(-3.60025 -2.44768 0)
(-3.9458 -2.54578 4.40529e-17)
(-3.65164 -2.38342 -8.78774e-17)
(-3.3044 -2.48629 -4.38132e-17)
(-2.36811 -3.54446 8.74978e-17)
(-1.79389 -4.32566 8.67269e-17)
(-2.10285 -4.76395 4.30031e-17)
(-2.11704 -5.74766 0)
(-1.7241 -6.1276 8.59605e-17)
(-1.02039 -5.61045 0)
(-0.952173 -4.40889 -8.29908e-17)
(-0.472321 -3.09742 -4.0919e-17)
(-0.702853 -7.45096 0)
(0.500565 -7.69402 8.27452e-17)
(-0.270105 -5.03617 3.92276e-17)
(3.77413 -9.85352 0)
(4.61584 -4.48717 3.90494e-17)
(2.54694 -5.49917 -1.16587e-16)
(3.56498 -5.93247 0)
(4.37055 -6.65747 0)
(5.02208 -7.6822 0)
(7.71281 -8.35171 0)
(9.73952 -6.97707 -7.46067e-17)
(10.9887 -6.01501 -7.49926e-17)
(10.9966 -5.26741 0)
(11.0088 -5.53022 0)
(11.6721 -6.47257 0)
(13.4997 -7.76129 0)
(15.9625 -7.94329 0)
(18.9742 -7.03102 0)
(21.064 -5.94881 -7.12802e-17)
(22.0547 -4.96084 1.86427e-19)
(21.9992 -4.66736 0)
(21.1716 -4.75122 0)
(20.1293 -5.13258 -6.88071e-17)
(19.2131 -5.74498 0)
(18.3147 -6.05691 6.61023e-17)
(17.8111 -6.43756 6.47366e-17)
(17.6203 -6.56583 0)
(17.2667 -6.88659 0)
(17.4285 -7.07772 -6.02254e-17)
(17.772 -6.87679 -1.18576e-16)
(17.4085 -7.17042 0)
(17.4329 -7.13796 0)
(17.7882 -6.94327 0)
(17.6251 -6.85808 -5.98963e-17)
(15.7484 -6.00193 5.95176e-17)
(12.8375 -5.05222 0)
(12.252 -7.06603 1.16437e-16)
(12.7087 -10.1066 6.12856e-17)
(13.2322 -11.4697 -1.17089e-16)
(16.3978 -9.43322 0)
(16.9334 -7.92529 0)
(15.8009 -7.61319 -1.07999e-16)
(14.2139 -7.71067 -5.13316e-17)
(12.4962 -9.25955 0)
(13.9185 -11.3952 0)
(14.3473 -10.1173 0)
(16.3683 -10.7991 0)
(17.9233 -8.45178 -1.00061e-16)
(11.6108 -5.70106 0)
(12.0279 -11.7629 0)
(13.8565 -7.03792 0)
(9.69225 -4.62839 0)
(5.3158 -4.84346 0)
(1.13871 -5.47769 0)
(-3.64092 -4.04895 -9.7977e-17)
(-9.50202 -2.43855 0)
(-12.8627 -4.53947 0)
(-10.9682 -10.2177 -1.91726e-16)
(-13.199 -14.9658 1.02144e-16)
(-1.55037 -6.05915 -9.5498e-17)
(-6.3943 -3.59893 9.78568e-17)
(-0.0620961 -3.13823 0)
(-0.137363 -3.13471 -4.68332e-17)
(-0.195738 -3.07264 0)
(-0.265469 -3.0877 -2.26857e-17)
(-0.329017 -3.15916 0)
(-0.384345 -3.18506 0)
(-0.440816 -3.12817 2.20943e-17)
(-0.494164 -3.02599 0)
(-0.581982 -2.91717 0)
(-0.727001 -2.90223 0)
(-0.90327 -2.79829 0)
(-1.09112 -2.51146 0)
(-1.35359 -2.25742 -8.35311e-17)
(-1.68466 -2.06643 -4.14207e-17)
(-1.96223 -1.91985 4.1467e-17)
(-2.16984 -2.14133 0)
(-2.34096 -2.59389 0)
(-2.69322 -2.47383 0)
(-3.31503 -1.91138 0)
(-4.03659 -1.30377 0)
(-4.78087 -0.873149 -4.06818e-17)
(-5.38738 -0.553833 -4.05425e-17)
(-5.96958 -0.287216 4.04458e-17)
(-6.45626 -0.0783796 -4.02629e-17)
(-6.90716 0.057876 0)
(-7.33045 0.161566 0)
(-7.68219 0.255175 -3.97738e-17)
(-7.99881 0.297224 0)
(-8.24572 0.280276 0)
(-8.4659 0.238677 -3.94343e-17)
(-8.59739 0.192083 -3.93163e-17)
(-8.68195 0.0740372 -3.9121e-17)
(-8.69658 -0.0914052 0)
(-8.64601 -0.312681 0)
(-8.53802 -0.573624 3.83425e-17)
(-8.36929 -0.856864 0)
(-8.12546 -1.1759 0)
(-7.81261 -1.5067 -3.74918e-17)
(-7.44889 -1.85211 3.72247e-17)
(-7.00901 -2.2157 -3.69345e-17)
(-6.51775 -2.58674 0)
(-5.96806 -2.91127 0)
(-5.3626 -3.20082 -7.22426e-17)
(-4.70707 -3.46812 0)
(-4.00378 -3.72089 -7.13316e-17)
(-3.27113 -3.97536 -1.06357e-16)
(-2.50742 -4.19025 1.05757e-16)
(-1.74329 -4.37403 -7.01319e-17)
(-0.962009 -4.56306 0)
(-0.149046 -4.73818 0)
(0.668741 -4.88958 -6.90098e-17)
(1.49953 -5.00419 -3.43137e-17)
(2.34184 -5.07174 0)
(3.18553 -5.12867 0)
(4.01192 -5.20812 -3.36803e-17)
(4.80998 -5.29585 -6.68937e-17)
(5.64005 -5.30436 0)
(6.41568 -5.27024 6.60551e-17)
(7.18608 -5.35983 -6.56151e-17)
(7.86771 -5.41921 6.52108e-17)
(8.53284 -5.4915 0)
(9.10522 -5.56161 0)
(9.61338 -5.46195 0)
(10.1189 -5.34701 0)
(10.6129 -5.19075 0)
(11.0558 -5.00066 6.19918e-17)
(11.4991 -4.92534 0)
(11.908 -4.99239 0)
(12.2307 -5.22866 0)
(12.548 -5.51773 1.2285e-16)
(12.8372 -5.745 6.11646e-17)
(13.0556 -5.89015 6.07142e-17)
(13.1022 -5.90224 -1.20355e-16)
(12.919 -5.9348 5.96815e-17)
(12.5875 -5.90494 -5.91658e-17)
(12.3031 -5.72578 0)
(12.2091 -5.5855 5.80521e-17)
(12.1073 -5.89215 0)
(12.0216 -6.10097 0)
(11.99 -5.5981 0)
(11.7753 -4.86113 1.10069e-16)
(11.7117 -4.96007 -5.4665e-17)
(12.0531 -5.25713 -5.42419e-17)
(12.549 -4.8713 -1.07227e-16)
(12.8534 -4.3159 -1.59301e-16)
(13.1987 -4.13264 -5.27473e-17)
(13.54 -3.84521 0)
(13.4771 -3.20543 -1.0344e-16)
(13.3856 -2.9972 0)
(13.0352 -3.22149 -1.5244e-16)
(12.2771 -3.51558 0)
(12.0595 -4.40394 -1.49821e-16)
(12.3984 -6.0239 0)
(12.3486 -7.18914 0)
(12.2409 -6.53024 -4.85766e-17)
(11.7127 -4.90324 0)
(9.71402 -2.90732 4.76196e-17)
(6.65663 -0.881371 9.42841e-17)
(3.68492 0.175579 4.68411e-17)
(1.85785 0.565672 9.31588e-17)
(0.4516 0.638212 -9.19155e-17)
(-0.333066 0.374188 -9.1551e-17)
(-0.962672 0.0973449 1.84136e-16)
(-1.17915 -0.821978 0)
(-1.81228 -1.38927 0)
(-3.11335 -1.80291 9.02414e-17)
(-3.46128 -2.94746 -9.02728e-17)
(-4.06402 -3.69435 0)
(-4.20033 -4.26859 0)
(-4.3295 -4.48569 8.95897e-17)
(-3.93159 -5.20953 0)
(-3.01424 -6.44169 -2.42153e-20)
(-2.93241 -6.49318 -1.80883e-20)
(-2.78309 -6.48849 8.80071e-17)
(-2.10442 -7.61492 0)
(-1.99226 -7.85938 -8.65058e-17)
(-1.47605 -7.46242 0)
(-1.07136 -7.0489 8.30106e-17)
(0.321517 -5.35127 0)
(0.676703 -9.28503 0)
(0.387128 -9.61067 -8.20444e-17)
(-0.882498 -8.63122 -7.89099e-17)
(4.93268 -14.4637 0)
(3.58051 -5.44142 -7.82204e-17)
(1.68511 -7.38001 1.5967e-16)
(3.23513 -8.87694 0)
(4.72327 -9.56936 0)
(4.58216 -10.8646 0)
(7.00383 -12.3767 0)
(9.46719 -10.0081 7.41668e-17)
(10.8319 -8.60361 -1.48394e-16)
(11.0699 -7.26076 0)
(11.5501 -7.92687 0)
(12.6413 -9.54638 0)
(14.4771 -11.218 0)
(16.6168 -11.8092 0)
(19.2779 -10.9856 0)
(21.8957 -9.05528 0)
(23.1726 -7.74174 7.11097e-17)
(23.8628 -6.74762 0)
(23.7316 -6.67095 0)
(23.0204 -6.95633 6.88626e-17)
(22.4891 -7.3178 0)