/*--------------------------------*- C++ -*----------------------------------*\
| =========                 |                                                 |
| \\      /  F ield         | OpenFOAM: The Open Source CFD Toolbox           |
|  \\    /   O peration     | Version:  dev                                   |
|   \\  /    A nd           | Web:      http://www.openfoam.org               |
|    \\/     M anipulation  |                                                 |
\*---------------------------------------------------------------------------*/
FoamFile
{
    version     2.0;
    format      ascii;
    class       volVectorField;
    object      UMean;
    location    "9.156";
}
// * * * * * * * * * * * * * * * * * * * * * * * * * * * * * * * * * * * * * //

dimensions      [0 1 -1 0 0 0 0];

internalField   nonuniform List<vector> 
12225
(
(7.00359 0.430269 0)
(4.43873 0.192548 0)
(2.55674 0.0311609 0)
(2.51078 -0.0166561 0)
(1.38445 0.0193673 0)
(2.26722 -0.0342777 0)
(0.98955 0.0489848 0)
(2.18245 -0.059172 0)
(0.797532 0.0716506 0)
(2.29165 -0.0978416 0)
(0.688747 0.0993603 0)
(2.74353 -0.138632 0)
(0.948039 0.102601 0)
(3.39718 -0.172136 0)
(3.53099 -0.168491 0)
(4.69644 0.0499865 0)
(14.8443 -2.4339 0)
(7.11936 5.13356 0)
(9.54625 0.981578 0)
(9.54326 0.86085 0)
(6.6868 0.466289 0)
(7.59024 0.214535 0)
(4.0906 0.140329 0)
(6.84291 0.0108014 0)
(2.66522 0.132669 0)
(6.68892 -0.0903304 0)
(1.82283 0.141856 0)
(7.03867 -0.165057 0)
(1.26079 0.123905 0)
(8.12114 -0.414389 0)
(1.38499 0.252343 0)
(9.95499 -1.44224 0)
(3.43433 0.27171 0)
(12.3897 -4.06808 0)
(10.4274 -1.92771 0)
(7.77625 0.484945 0)
(9.11853 0.763544 0)
(12.1667 0.951383 0)
(8.32964 0.624006 0)
(11.8319 0.443374 0)
(6.22618 0.31035 0)
(11.4128 0.20644 0)
(4.58304 0.221564 0)
(11.3147 -0.0195525 0)
(3.87468 0.193012 0)
(11.376 -0.277818 0)
(4.35101 0.187278 0)
(11.2522 -0.722998 0)
(5.7291 0.175834 0)
(11.0896 -1.49145 0)
(7.21538 0.052282 0)
(12.1168 -3.86619 0)
(6.93297 0.35062 0)
(9.35323 -2.3911 0)
(7.21921 0.524983 0)
(13.9928 0.960957 0)
(7.92997 0.609515 0)
(14.2951 0.553788 0)
(7.47453 0.420968 0)
(14.1163 0.270998 0)
(7.17594 0.396769 0)
(13.7384 -0.145172 0)
(7.25697 0.459678 0)
(13.2696 -0.698725 0)
(7.65966 0.576831 0)
(12.8747 -1.4227 0)
(8.26736 0.699375 0)
(12.6513 -2.31324 0)
(9.02448 0.0416265 0)
(11.8874 -3.63708 0)
(8.68702 -1.43244 0)
(8.36379 0.681624 0)
(6.42426 0.570082 0)
(14.0107 0.565888 0)
(8.47364 0.674563 0)
(13.9578 0.284485 0)
(9.16943 0.636774 0)
(13.6433 -0.00260421 0)
(9.51716 0.657925 0)
(13.2137 -0.388711 0)
(9.59204 0.734438 0)
(12.8128 -0.871266 0)
(9.44555 0.876927 0)
(12.5825 -1.52132 0)
(9.14974 1.0899 0)
(12.5706 -2.48996 0)
(8.82741 1.13206 0)
(11.6167 -5.02806 0)
(8.5425 1.26637 0)
(8.72211 0.128184 0)
(7.95667 0.616897 0)
(11.8029 0.152403 0)
(9.50524 0.654795 0)
(11.7392 0.0502199 0)
(10.0883 0.693953 0)
(11.6002 -0.165661 0)
(10.3206 0.725859 0)
(11.476 -0.457511 0)
(10.3005 0.783026 0)
(11.3894 -0.853554 0)
(10.0327 0.832035 0)
(11.3553 -1.40006 0)
(9.49216 0.801247 0)
(11.4182 -2.13845 0)
(8.80039 0.725867 0)
(10.9985 -3.92043 0)
(7.73294 1.33569 0)
(9.48917 -0.21758 0)
(9.34426 0.812728 0)
(10.4387 -0.265952 0)
(10.1409 0.930585 0)
(10.5537 -0.304561 0)
(10.3989 1.02004 0)
(10.5817 -0.502898 0)
(10.5204 1.07554 0)
(10.6252 -0.781136 0)
(10.5637 1.15353 0)
(10.6716 -1.15764 0)
(10.5157 1.23529 0)
(10.6998 -1.63551 0)
(10.3672 1.26127 0)
(10.688 -2.32706 0)
(10.0532 1.27119 0)
(10.3759 -3.954 0)
(8.29901 2.01908 0)
(9.69708 -0.952176 0)
(9.84915 0.701182 0)
(10.156 -0.32595 0)
(10.4067 0.855129 0)
(10.3898 -0.349888 0)
(10.5804 0.906905 0)
(10.4706 -0.493958 0)
(10.7017 0.893 0)
(10.552 -0.686227 0)
(10.8054 0.872742 0)
(10.6439 -0.935161 0)
(10.8811 0.823884 0)
(10.7354 -1.2326 0)
(10.9082 0.671379 0)
(10.7538 -1.67245 0)
(10.7233 0.519652 0)
(10.4924 -2.47375 0)
(8.894 0.980581 0)
(9.96388 -0.483924 0)
(10.0857 0.802283 0)
(10.0197 -0.583371 0)
(10.5355 1.02153 0)
(10.3107 -0.604477 0)
(10.6751 1.07505 0)
(10.44 -0.724935 0)
(10.7776 1.04825 0)
(10.5708 -0.88999 0)
(10.8573 1.00371 0)
(10.7114 -1.11771 0)
(10.8989 0.921187 0)
(10.8318 -1.39488 0)
(10.8742 0.73486 0)
(10.8222 -1.76083 0)
(10.6024 0.505767 0)
(10.5206 -2.06872 0)
(9.35029 0.586257 0)
(10.0234 -0.39164 0)
(10.1391 0.648654 0)
(10.0423 -0.51188 0)
(10.5103 0.878078 0)
(10.3335 -0.456456 0)
(10.6213 0.869239 0)
(10.482 -0.493597 0)
(10.6978 0.778269 0)
(10.629 -0.572084 0)
(10.7342 0.657911 0)
(10.7636 -0.695292 0)
(10.7179 0.495569 0)
(10.8402 -0.844933 0)
(10.6183 0.264093 0)
(10.7655 -1.03211 0)
(10.2824 0.0702221 0)
(10.4794 -1.05277 0)
(9.62347 0.123967 0)
(10.2069 -0.0328674 0)
(10.141 0.70002 0)
(10.0707 -0.69183 0)
(10.4525 0.902561 0)
(10.2985 -0.618866 0)
(10.5374 0.847669 0)
(10.4302 -0.645478 0)
(10.6032 0.735312 0)
(10.5606 -0.707337 0)
(10.6272 0.58682 0)
(10.6604 -0.791197 0)
(10.6091 0.383202 0)
(10.6812 -0.869245 0)
(10.5269 0.117161 0)
(10.5709 -0.922077 0)
(10.2915 -0.113685 0)
(10.3609 -0.765043 0)
(10.0199 -0.154067 0)
(10.2455 -0.125311 0)
(10.0968 0.468013 0)
(10.1509 -0.495 0)
(10.3536 0.595773 0)
(10.2934 -0.374523 0)
(10.4203 0.52754 0)
(10.4093 -0.354697 0)
(10.4848 0.418885 0)
(10.5239 -0.374095 0)
(10.5131 0.275739 0)
(10.5993 -0.414563 0)
(10.5157 0.0933364 0)
(10.597 -0.461563 0)
(10.4766 -0.103274 0)
(10.4995 -0.500038 0)
(10.3571 -0.232078 0)
(10.3646 -0.405551 0)
(10.2659 -0.219803 0)
(10.3738 -0.11022 0)
(10.05 0.411025 0)
(10.1754 -0.487141 0)
(10.2548 0.437236 0)
(10.2378 -0.367396 0)
(10.3087 0.367394 0)
(10.3306 -0.345473 0)
(10.3792 0.250893 0)
(10.4245 -0.355196 0)
(10.4226 0.0995283 0)
(10.4822 -0.374793 0)
(10.4462 -0.0796426 0)
(10.4817 -0.403341 0)
(10.4329 -0.246603 0)
(10.426 -0.431191 0)
(10.3772 -0.339124 0)
(10.3685 -0.392584 0)
(10.3571 -0.320475 0)
(10.4222 -0.27647 0)
(10.0153 0.199645 0)
(10.1907 -0.28568 0)
(10.1932 0.167354 0)
(10.2052 -0.179193 0)
(10.2293 0.131698 0)
(10.2791 -0.171264 0)
(10.3062 0.0472851 0)
(10.3625 -0.197689 0)
(10.366 -0.0586437 0)
(10.4142 -0.235654 0)
(10.4054 -0.17595 0)
(10.4267 -0.286365 0)
(10.4123 -0.274931 0)
(10.4112 -0.331589 0)
(10.3994 -0.324061 0)
(10.4065 -0.337123 0)
(10.4108 -0.315955 0)
(10.4697 -0.304763 0)
(9.99665 0.0971633 0)
(10.1445 -0.185758 0)
(10.1463 0.0217281 0)
(10.1501 -0.13356 0)
(10.1622 -0.00855404 0)
(10.2089 -0.146061 0)
(10.241 -0.0768808 0)
(10.2919 -0.186646 0)
(10.311 -0.159315 0)
(10.3485 -0.237882 0)
(10.3575 -0.244711 0)
(10.379 -0.29823 0)
(10.3804 -0.316203 0)
(10.3938 -0.349993 0)
(10.3958 -0.360936 0)
(10.4184 -0.380106 0)
(10.4237 -0.380966 0)
(10.4787 -0.387154 0)
(9.99363 0.015539 0)
(10.1059 -0.0857196 0)
(10.1088 -0.0442496 0)
(10.1137 -0.0931751 0)
(10.1187 -0.0748158 0)
(10.1674 -0.118866 0)
(10.1979 -0.120538 0)
(10.2517 -0.163768 0)
(10.2739 -0.180505 0)
(10.3152 -0.219096 0)
(10.3277 -0.243866 0)
(10.3596 -0.277754 0)
(10.3658 -0.301267 0)
(10.3938 -0.328932 0)
(10.3994 -0.346917 0)
(10.4327 -0.370724 0)
(10.4354 -0.383711 0)
(10.4882 -0.396929 0)
(9.99175 0.00479755 0)
(10.0636 -0.0251068 0)
(10.0567 -0.0348594 0)
(10.0678 -0.0664143 0)
(10.0778 -0.0756594 0)
(10.1279 -0.099711 0)
(10.1572 -0.115886 0)
(10.2109 -0.144649 0)
(10.2336 -0.168919 0)
(10.278 -0.199519 0)
(10.2919 -0.22651 0)
(10.3299 -0.256983 0)
(10.3383 -0.283264 0)
(10.373 -0.311997 0)
(10.3787 -0.336746 0)
(10.4151 -0.365476 0)
(10.4145 -0.387991 0)
(10.4633 -0.407405 0)
(9.99158 0.0141719 0)
(10.0467 0.0161484 0)
(10.0398 -0.0105802 0)
(10.0576 -0.0376824 0)
(10.0748 -0.0565299 0)
(10.1255 -0.0778474 0)
(10.1554 -0.0988535 0)
(10.2071 -0.123809 0)
(10.2311 -0.148975 0)
(10.2753 -0.176611 0)
(10.2911 -0.203411 0)
(10.3292 -0.232138 0)
(10.3394 -0.259343 0)
(10.3736 -0.288285 0)
(10.38 -0.315608 0)
(10.414 -0.345673 0)
(10.4131 -0.371528 0)
(10.4566 -0.393341 0)
(9.99173 0.0329246 0)
(10.0502 0.0495985 0)
(10.0566 0.00990051 0)
(10.0799 -0.0181014 0)
(10.1007 -0.0402527 0)
(10.1506 -0.0614862 0)
(10.1819 -0.0836113 0)
(10.2316 -0.106407 0)
(10.2562 -0.130543 0)
(10.2984 -0.155503 0)
(10.315 -0.181066 0)
(10.3507 -0.207313 0)
(10.3614 -0.233544 0)
(10.3926 -0.260394 0)
(10.399 -0.287009 0)
(10.4287 -0.31526 0)
(10.428 -0.340989 0)
(10.4652 -0.36276 0)
(9.98989 0.0406771 0)
(10.0547 0.0525773 0)
(10.0828 -0.00639622 0)
(10.1167 -0.0407178 0)
(10.1419 -0.064153 0)
(10.1903 -0.0822951 0)
(10.2223 -0.102114 0)
(10.269 -0.121019 0)
(10.2935 -0.142749 0)
(10.332 -0.16399 0)
(10.3483 -0.187398 0)
(10.3801 -0.210082 0)
(10.3904 -0.234384 0)
(10.4173 -0.2579 0)
(10.4228 -0.282762 0)
(10.4473 -0.307792 0)
(10.4461 -0.332418 0)
(10.4767 -0.352805 0)
(9.9905 0.0315571 0)
(10.0684 0.0219307 0)
(10.1261 -0.0558045 0)
(10.1769 -0.0968082 0)
(10.2125 -0.119822 0)
(10.2609 -0.132775 0)
(10.2937 -0.147797 0)
(10.336 -0.161672 0)
(10.3601 -0.179838 0)
(10.394 -0.196919 0)
(10.4103 -0.217355 0)
(10.4376 -0.236233 0)
(10.4478 -0.257971 0)
(10.4701 -0.278033 0)
(10.4753 -0.300707 0)
(10.4945 -0.322325 0)
(10.4939 -0.345172 0)
(10.5186 -0.363446 0)
(9.99117 0.00983441 0)
(10.092 -0.0297993 0)
(10.1869 -0.120906 0)
(10.2595 -0.162829 0)
(10.3093 -0.18117 0)
(10.3589 -0.187193 0)
(10.3929 -0.196058 0)
(10.4304 -0.204381 0)
(10.4542 -0.218112 0)
(10.4837 -0.230743 0)
(10.5001 -0.247594 0)
(10.5232 -0.262616 0)
(10.5337 -0.281315 0)
(10.5517 -0.297995 0)
(10.5572 -0.318043 0)
(10.5719 -0.336374 0)
(10.5723 -0.356946 0)
(10.592 -0.373075 0)
(9.99283 -0.0234081 0)
(10.1275 -0.103686 0)
(10.2671 -0.204985 0)
(10.3665 -0.241635 0)
(10.4319 -0.250836 0)
(10.4835 -0.248405 0)
(10.5183 -0.250905 0)
(10.5517 -0.253694 0)
(10.5753 -0.262965 0)
(10.6012 -0.271316 0)
(10.6181 -0.284638 0)
(10.6378 -0.296249 0)
(10.6487 -0.312053 0)
(10.6631 -0.325801 0)
(10.6691 -0.343327 0)
(10.6801 -0.35877 0)
(10.6814 -0.377079 0)
(10.6968 -0.391216 0)
(9.99044 -0.0716133 0)
(10.1743 -0.201223 0)
(10.3678 -0.305502 0)
(10.5 -0.32789 0)
(10.5804 -0.322574 0)
(10.6343 -0.310192 0)
(10.6689 -0.305564 0)
(10.6996 -0.30255 0)
(10.7226 -0.306679 0)
(10.7459 -0.310549 0)
(10.7624 -0.319861 0)
(10.7793 -0.328 0)
(10.7894 -0.340525 0)
(10.8005 -0.351297 0)
(10.8055 -0.365882 0)
(10.8123 -0.378435 0)
(10.8121 -0.393987 0)
(10.8221 -0.405933 0)
(9.992 -0.136389 0)
(10.2447 -0.32306 0)
(10.5026 -0.419045 0)
(10.6711 -0.417653 0)
(10.7627 -0.394175 0)
(10.8174 -0.371095 0)
(10.8493 -0.358918 0)
(10.8771 -0.350555 0)
(10.896 -0.350056 0)
(10.9148 -0.350444 0)
(10.9253 -0.35632 0)
(10.9355 -0.361448 0)
(10.9374 -0.37074 0)
(10.9394 -0.378599 0)
(10.9339 -0.389789 0)
(10.9291 -0.399368 0)
(10.9164 -0.411284 0)
(10.9116 -0.420428 0)
(9.98974 -0.219934 0)
(10.3368 -0.468169 0)
(10.6736 -0.539765 0)
(10.8757 -0.508226 0)
(10.9697 -0.464834 0)
(11.0134 -0.428032 0)
(11.0285 -0.404769 0)
(11.0352 -0.388334 0)
(11.029 -0.381359 0)
(11.0194 -0.376904 0)
(10.998 -0.378108 0)
(10.9735 -0.379012 0)
(10.9377 -0.38373 0)
(10.9 -0.387205 0)
(10.8523 -0.393567 0)
(10.8042 -0.398889 0)
(10.7463 -0.405206 0)
(10.6946 -0.409978 0)
(9.98331 -0.332095 0)
(10.4676 -0.642355 0)
(10.8828 -0.667127 0)
(11.0724 -0.602636 0)
(11.1029 -0.537176 0)
(11.0583 -0.483096 0)
(10.9743 -0.444947 0)
(10.8732 -0.416181 0)
(10.7578 -0.397962 0)
(10.6351 -0.383223 0)
(10.5036 -0.374836 0)
(10.3667 -0.366278 0)
(10.2243 -0.362394 0)
(10.0776 -0.356942 0)
(9.92892 -0.355796 0)
(9.77738 -0.353205 0)
(9.62626 -0.352906 0)
(9.47638 -0.35107 0)
(10.0026 -0.453661 0)
(10.619 -0.818964 0)
(10.9016 -0.752058 0)
(10.7933 -0.623725 0)
(10.4938 -0.512515 0)
(10.1377 -0.429168 0)
(9.77022 -0.373538 0)
(9.41774 -0.334693 0)
(9.07698 -0.307263 0)
(8.75568 -0.28458 0)
(8.44674 -0.267626 0)
(8.15369 -0.251305 0)
(7.87299 -0.240017 0)
(7.60345 -0.227317 0)
(7.3487 -0.221114 0)
(7.09921 -0.211806 0)
(6.87083 -0.210837 0)
(6.64144 -0.204163 0)
(10.0974 -0.750795 0)
(10.0458 -1.01321 0)
(9.42491 -0.801076 0)
(8.51445 -0.572167 0)
(7.65505 -0.378719 0)
(6.92894 -0.24488 0)
(6.32741 -0.167515 0)
(5.83174 -0.126246 0)
(5.40935 -0.104699 0)
(5.0488 -0.0923181 0)
(4.72875 -0.0849596 0)
(4.44805 -0.0793481 0)
(4.19168 -0.0758068 0)
(3.96281 -0.0718913 0)
(3.75113 -0.0721371 0)
(3.55598 -0.0690857 0)
(3.38378 -0.0802701 0)
(3.21889 -0.0828659 0)
(8.51673 -0.436073 0)
(6.11021 -0.380895 0)
(4.29831 -0.138052 0)
(3.12389 -0.0213885 0)
(2.48114 0.0191319 0)
(2.12054 0.0224715 0)
(1.89632 0.0137145 0)
(1.73503 0.00461442 0)
(1.59902 -0.00156964 0)
(1.4783 -0.00479184 0)
(1.36622 -0.00640488 0)
(1.26408 -0.00671827 0)
(1.16842 -0.00670718 0)
(1.08171 -0.00638917 0)
(0.999683 -0.00665793 0)
(0.919455 -0.00703357 0)
(0.851956 -0.0186095 0)
(0.731443 -0.00613551 0)
(-0.0520473 0.13801 0)
(-0.157182 0.0716117 0)
(-0.207275 0.0165852 0)
(-0.195529 -0.0442406 0)
(-0.118366 -0.0989621 0)
(0.0117252 -0.145002 0)
(0.185693 -0.17556 1.11357e-17)
(0.387367 -0.193544 -1.10607e-17)
(0.605549 -0.19796 0)
(0.827906 -0.192721 -1.09175e-17)
(1.04506 -0.178402 0)
(1.24804 -0.157657 0)
(1.43027 -0.131037 0)
(1.58649 -0.101691 1.0643e-17)
(1.71406 -0.0704498 0)
(1.8102 -0.0383895 0)
(1.87401 -0.00625374 -1.04458e-17)
(1.90621 0.0240005 0)
(1.90848 0.050468 0)
(1.88287 0.0722057 0)
(1.83309 0.0891789 1.01964e-17)
(1.7617 0.100728 0)
(1.67261 0.108587 1.00744e-17)
(1.56751 0.111487 0)
(1.45104 0.109606 0)
(1.32593 0.107986 9.89568e-18)
(1.19243 0.111315 0)
(1.04978 0.116462 -9.77934e-18)
(0.901192 0.121717 0)
(0.747254 0.12676 9.66443e-18)
(0.589521 0.130749 0)
(0.430275 0.133189 0)
(0.271783 0.13433 0)
(0.114528 0.134094 0)
(-0.0411712 0.131189 0)
(-0.193243 0.126503 -9.32967e-18)
(-0.340038 0.120392 0)
(-0.481144 0.11389 1.84406e-17)
(-0.615126 0.107404 0)
(-0.741571 0.100189 -1.82216e-17)
(-0.859017 0.0931769 0)
(-0.967633 0.086435 0)
(-1.06786 0.0787121 1.78884e-17)
(-1.15923 0.0703757 0)
(-1.24237 0.0626747 1.76652e-17)
(-1.31736 0.0554342 -1.75531e-17)
(-1.38369 0.0483331 0)
(-1.44207 0.0420583 -1.73282e-17)
(-1.49359 0.0365739 -1.72151e-17)
(-1.53731 0.0328484 0)
(-1.57339 0.0312785 0)
(-1.60377 0.0313118 0)
(-1.63055 0.0314883 0)
(-1.65472 0.0315306 0)
(-1.67769 0.0324266 1.65281e-17)
(-1.70135 0.0339893 0)
(-1.72706 0.0362337 -1.62989e-17)
(-1.7536 0.0383223 0)
(-1.77972 0.0389589 0)
(-1.80542 0.0395419 1.59525e-17)
(-1.83135 0.0412713 0)
(-1.85919 0.0424537 -1.57211e-17)
(-1.88899 0.0440899 0)
(-1.92043 0.0455342 0)
(-1.95304 0.0462897 0)
(-1.98618 0.0474135 1.52555e-17)
(-2.01983 0.0493696 0)
(-2.05406 0.051636 0)
(-2.08899 0.0540275 1.49058e-17)
(-2.12489 0.0553578 0)
(-2.15899 0.0556019 1.46711e-17)
(-2.1902 0.0562874 0)
(-2.21862 0.0568693 0)
(-2.2431 0.0568783 0)
(-2.26237 0.0562921 -1.42051e-17)
(-2.27579 0.0550791 0)
(-2.28395 0.054307 0)
(-2.28868 0.0541951 -1.38613e-17)
(-2.29041 0.0531837 -1.37479e-17)
(-2.28743 0.0514944 0)
(-2.27795 0.0491922 -1.35226e-17)
(-2.26186 0.0462366 0)
(-2.23876 0.0430525 -2.66023e-17)
(-2.20866 0.0395872 0)
(-2.17209 0.035882 -2.61669e-17)
(-2.12889 0.0327912 0)
(-2.08014 0.0303563 2.57381e-17)
(-2.02668 0.0283702 0)
(-1.96863 0.0269296 0)
(-1.90663 0.0259594 0)
(-1.84223 0.0253702 -2.4901e-17)
(-1.77518 0.0250991 0)
(-1.70712 0.0250571 2.44993e-17)
(-1.63809 0.025635 0)
(-1.56876 0.026648 -2.41099e-17)
(-1.50107 0.0291306 -2.39214e-17)
(-1.4342 0.0302866 -2.37371e-17)
(-1.36714 0.0313447 0)
(-1.30186 0.0313561 0)
(-1.23723 0.0325548 0)
(-1.17151 0.0334234 0)
(-1.10672 0.0330747 0)
(-1.03692 0.0319505 0)
(-0.968102 0.0332588 0)
(-0.897136 0.0328455 0)
(-0.829909 0.0351685 2.22133e-17)
(-0.762299 0.0356426 2.2061e-17)
(-0.69967 0.0400047 0)
(-0.638756 0.0412639 0)
(-0.582582 0.0408405 0)
(-0.514536 0.0382548 2.14805e-17)
(-0.451743 0.0424838 0)
(-0.382771 0.0407659 0)
(-0.317596 0.0435996 0)
(-0.246565 0.0406153 0)
(-0.173446 0.042986 -2.08061e-17)
(-0.0980312 0.0445123 0)
(-0.0168281 0.0435002 0)
(0.0686096 0.0450228 2.0429e-17)
(0.157412 0.0449836 -2.03074e-17)
(0.249664 0.044279 0)
(0.346015 0.048294 -2.00747e-17)
(0.437597 0.0513046 0)
(0.530041 0.0546307 1.98482e-17)
(0.612107 0.0593433 0)
(0.683243 0.062417 0)
(0.758245 0.062693 0)
(0.827554 0.0634098 0)
(0.907057 0.0605695 0)
(0.98049 0.0610846 -3.83961e-17)
(1.05597 0.0626078 -3.81771e-17)
(1.116 0.0673404 0)
(1.16652 0.0664189 0)
(1.21121 0.0677546 0)
(1.24769 0.063689 3.72526e-17)
(1.29529 0.058866 0)
(1.34437 0.0572046 0)
(1.38906 0.0560676 0)
(1.43747 0.0538431 3.62323e-17)
(1.4765 0.0560397 -3.59643e-17)
(1.52091 0.0527517 0)
(1.55953 0.0528005 0)
(1.60085 0.05325 -3.51494e-17)
(1.62712 0.0583011 -3.48764e-17)
(1.65701 0.0549885 0)
(1.68578 0.0586996 0)
(1.72519 0.0557194 3.40431e-17)
(1.76212 0.0659981 -3.37636e-17)
(1.77039 0.0713974 0)
(1.78416 0.070801 0)
(1.80922 0.0711717 -3.29269e-17)
(1.84247 0.0758842 0)
(1.85587 0.083483 0)
(1.86676 0.0892017 -3.20828e-17)
(1.86583 0.093308 0)
(1.88034 0.0980917 -3.15223e-17)
(1.88281 0.105107 0)
(1.88861 0.109245 0)
(1.87551 0.120779 0)
(1.86201 0.126665 3.04332e-17)
(1.84663 0.133153 0)
(1.81459 0.142959 0)
(1.74253 0.154557 0)
(1.66591 0.154606 0)
(1.60051 0.156953 0)
(1.51075 0.165849 0)
(1.38282 0.172662 2.88919e-17)
(1.26361 0.174015 2.87376e-17)
(1.07987 0.181929 0)
(0.873499 0.184682 0)
(0.629959 0.183755 0)
(0.41366 0.169976 -2.83205e-17)
(0.191233 0.162986 0)
(0.0386104 0.146634 5.63458e-17)
(-0.160464 0.143798 -5.62362e-17)
(-0.262173 0.123662 -5.60572e-17)
(-0.42314 0.126636 5.59533e-17)
(-0.457231 0.0965959 -5.57512e-17)
(-0.615397 0.129381 5.57322e-17)
(-0.56461 -0.00380453 0)
(0.0100994 0.249173 0)
(0.0143291 0.19255 0)
(0.0492371 0.00820713 -2.27966e-17)
(0.120368 -0.197961 0)
(0.235089 -0.383935 2.23656e-17)
(0.387208 -0.535318 2.2219e-17)
(0.568225 -0.644226 1.10441e-17)
(0.767998 -0.710229 1.09818e-17)
(0.975257 -0.736913 0)
(1.1794 -0.73071 1.08547e-17)
(1.37181 -0.694931 0)
(1.54516 -0.636691 0)
(1.69549 -0.562131 -2.1321e-17)
(1.81805 -0.47777 -1.05953e-17)
(1.91277 -0.385907 2.10565e-17)
(1.97788 -0.291371 2.09229e-17)
(2.01471 -0.199024 1.03959e-17)
(2.02337 -0.110964 0)
(2.0063 -0.0279847 0)
(1.96348 0.0466757 0)
(1.89873 0.112108 1.01368e-17)
(1.81214 0.171237 0)
(1.70835 0.224156 -3.00379e-17)
(1.58619 0.266999 0)
(1.44801 0.30199 0)
(1.29434 0.332588 -9.83201e-18)
(1.12866 0.356571 0)
(0.95373 0.373859 9.71562e-18)
(0.773362 0.384908 1.93128e-17)
(0.588458 0.392163 -9.59761e-18)
(0.401794 0.394248 0)
(0.214638 0.390445 0)
(0.0266709 0.383137 0)
(-0.161615 0.376123 1.87311e-17)
(-0.348439 0.367462 1.86167e-17)
(-0.532493 0.355131 9.25131e-18)
(-0.711059 0.340317 0)
(-0.884663 0.323211 -1.82762e-17)
(-1.04934 0.302693 0)
(-1.2074 0.280839 1.80508e-17)
(-1.3572 0.258411 0)
(-1.50037 0.235663 0)
(-1.63538 0.215295 -1.77166e-17)
(-1.76315 0.196249 0)
(-1.88613 0.178348 -5.24864e-17)
(-2.00342 0.159603 1.73856e-17)
(-2.11413 0.140704 0)
(-2.21786 0.123791 1.71655e-17)
(-2.31554 0.106134 1.70552e-17)
(-2.40589 0.0865323 0)
(-2.487 0.0675486 0)
(-2.56101 0.0529547 0)
(-2.62979 0.0433517 0)
(-2.69525 0.0383099 0)
(-2.75679 0.0368757 -1.63736e-17)
(-2.81646 0.0365048 -3.2515e-17)
(-2.87454 0.0367663 1.61413e-17)
(-2.92839 0.0344145 0)
(-2.97982 0.0305968 -3.18128e-17)
(-3.02922 0.0293987 1.57874e-17)
(-3.07592 0.0302959 0)
(-3.12341 0.0309241 1.55498e-17)
(-3.16885 0.0333691 0)
(-3.21199 0.034471 0)
(-3.25337 0.033525 3.0375e-17)
(-3.29353 0.0325757 -1.50672e-17)
(-3.32931 0.030485 2.98916e-17)
(-3.36265 0.0276611 -2.96502e-17)
(-3.3907 0.0246654 -1.47046e-17)
(-3.41577 0.0208285 0)
(-3.4348 0.0138011 -1.44628e-17)
(-3.44685 0.00397958 0)
(-3.45327 -0.00643823 0)
(-3.45129 -0.0187897 0)
(-3.44015 -0.0329248 -1.3983e-17)
(-3.42081 -0.0469623 0)
(-3.39493 -0.0572221 -2.7495e-17)
(-3.36322 -0.0645395 4.08941e-17)
(-3.32608 -0.0732478 1.35163e-17)
(-3.28265 -0.0844798 0)
(-3.23122 -0.097337 1.32878e-17)
(-3.17448 -0.110125 0)
(-3.11204 -0.122268 2.61242e-17)
(-3.04441 -0.133358 0)
(-2.9717 -0.143933 2.56812e-17)
(-2.89385 -0.153367 -5.09225e-17)
(-2.81202 -0.162306 -2.52473e-17)
(-2.72776 -0.170292 0)
(-2.63849 -0.177833 0)
(-2.547 -0.183468 0)
(-2.45332 -0.187681 2.44071e-17)
(-2.3563 -0.191728 0)
(-2.25809 -0.194395 -2.40009e-17)
(-2.1599 -0.194744 0)
(-2.06117 -0.196329 7.08219e-17)
(-1.96247 -0.195691 2.34173e-17)
(-1.86313 -0.196753 2.32313e-17)
(-1.76586 -0.19407 0)
(-1.67109 -0.193371 0)
(-1.57571 -0.194099 0)
(-1.47772 -0.194842 0)
(-1.38067 -0.197313 0)
(-1.27785 -0.201689 4.43233e-17)
(-1.18136 -0.199832 4.39872e-17)
(-1.08148 -0.20003 0)
(-0.993795 -0.194475 -2.1676e-17)
(-0.897212 -0.195443 -2.1524e-17)
(-0.809798 -0.188722 0)
(-0.714939 -0.187688 -4.24451e-17)
(-0.636022 -0.187224 0)
(-0.538991 -0.197452 2.09384e-17)
(-0.452355 -0.191371 0)
(-0.346541 -0.19942 0)
(-0.251648 -0.196242 -4.10586e-17)
(-0.138131 -0.204797 0)
(-0.0336993 -0.205205 2.02726e-17)
(0.0919292 -0.213136 0)
(0.21901 -0.22084 0)
(0.355307 -0.224742 1.98872e-17)
(0.496113 -0.229401 1.97708e-17)
(0.642004 -0.234933 0)
(0.791517 -0.235244 -1.95333e-17)
(0.95124 -0.236495 0)
(1.11028 -0.228154 1.92966e-17)
(1.27474 -0.218662 3.8363e-17)
(1.42251 -0.212305 0)
(1.57951 -0.213674 0)
(1.72475 -0.213814 0)
(1.8845 -0.215261 0)
(2.03128 -0.210188 3.72303e-17)
(2.18545 -0.206937 1.11006e-16)
(2.32146 -0.188127 0)
(2.44513 -0.182958 0)
(2.56399 -0.171984 0)
(2.6683 -0.173653 -3.60796e-17)
(2.76982 -0.178168 0)
(2.86983 -0.17786 0)
(2.96405 -0.176497 7.06154e-17)
(3.05715 -0.177031 3.50337e-17)
(3.13244 -0.172514 3.47651e-17)
(3.22058 -0.179888 0)
(3.28456 -0.17361 0)
(3.35204 -0.175059 3.39201e-17)
(3.39916 -0.164251 -3.36141e-17)
(3.44453 -0.178402 0)
(3.47467 -0.175326 0)
(3.50907 -0.191494 -3.27213e-17)
(3.53833 -0.173523 9.71868e-17)
(3.5529 -0.168995 0)
(3.56397 -0.179772 0)
(3.57502 -0.191226 3.14594e-17)
(3.59556 -0.189263 0)
(3.59104 -0.182413 6.16253e-17)
(3.58834 -0.180587 -3.04712e-17)
(3.56072 -0.185363 0)
(3.55748 -0.194754 2.98444e-17)
(3.53381 -0.191073 5.90539e-17)
(3.52285 -0.192263 0)
(3.47587 -0.185305 0)
(3.45174 -0.194063 -2.85736e-17)
(3.41089 -0.186105 0)
(3.35326 -0.169212 5.58866e-17)
(3.2557 -0.149966 0)
(3.16344 -0.155035 0)
(3.04381 -0.146912 0)
(2.91536 -0.121974 0)
(2.72092 -0.102736 -2.66518e-17)
(2.56173 -0.0759734 -2.64622e-17)
(2.27808 -0.0268896 0)
(2.00597 -0.00170197 0)
(1.67603 0.0229691 0)
(1.38016 0.0190897 2.59576e-17)
(1.04614 0.023614 0)
(0.83824 0.013745 -5.16678e-17)
(0.519577 0.031677 5.16418e-17)
(0.406647 0.000350631 5.14929e-17)
(0.126087 0.0313042 5.14837e-17)
(0.12719 -0.0161109 5.13316e-17)
(-0.169778 0.079706 5.1496e-17)
(0.0153094 -0.116159 0)
(0.029039 0.071846 0)
(0.120877 -0.0372187 0)
(0.227669 -0.240432 2.29135e-17)
(0.339467 -0.467336 2.26651e-17)
(0.473646 -0.691959 -2.25136e-17)
(0.617564 -0.874006 -2.24011e-17)
(0.771701 -1.00288 -1.48033e-21)
(0.92298 -1.07342 0)
(1.06818 -1.08444 0)
(1.19506 -1.04548 0)
(1.30396 -0.965815 0)
(1.39003 -0.856684 0)
(1.45573 -0.726271 6.47141e-17)
(1.49653 -0.586151 0)
(1.51527 -0.441381 -2.13056e-17)
(1.51015 -0.294965 -2.11693e-17)
(1.48404 -0.153613 0)
(1.43553 -0.020181 0)
(1.36919 0.103671 0)
(1.28476 0.216224 0)
(1.18457 0.315661 -2.05029e-17)
(1.06948 0.398785 0)
(0.944553 0.471212 2.02489e-17)
(0.807055 0.536346 0)
(0.659889 0.591224 0)
(0.504401 0.636155 0)
(0.345981 0.672116 3.95253e-17)
(0.183626 0.699317 0)
(0.0198228 0.718713 -1.95224e-17)
(-0.144964 0.729043 3.88e-17)
(-0.309005 0.732133 0)
(-0.475294 0.733775 0)
(-0.641778 0.730652 0)
(-0.807062 0.721047 -1.89165e-17)
(-0.968721 0.705699 -1.87957e-17)
(-1.12717 0.68413 0)
(-1.2808 0.656775 0)
(-1.42885 0.625214 3.6859e-17)
(-1.56987 0.591151 3.66193e-17)
(-1.70912 0.556786 -3.63811e-17)
(-1.8433 0.524018 0)
(-1.97559 0.490483 0)
(-2.10222 0.458276 0)
(-2.22513 0.428861 0)
(-2.34372 0.401184 3.52005e-17)
(-2.45635 0.371935 3.49668e-17)
(-2.56384 0.342259 -3.47348e-17)
(-2.66577 0.313693 0)
(-2.76167 0.285798 0)
(-2.85235 0.256755 0)
(-2.93771 0.229925 0)
(-3.02317 0.212171 3.35754e-17)
(-3.10271 0.196367 0)
(-3.17734 0.183192 0)
(-3.24545 0.175403 3.28779e-17)
(-3.30899 0.170273 3.26463e-17)
(-3.36702 0.1635 0)
(-3.41751 0.154347 -6.43593e-17)
(-3.46578 0.147481 3.19483e-17)
(-3.51032 0.14128 -3.17139e-17)
(-3.54885 0.137398 0)
(-3.58457 0.13449 0)
(-3.61436 0.1301 0)
(-3.6392 0.12531 0)
(-3.66141 0.119607 -3.0552e-17)
(-3.67951 0.111808 -6.06453e-17)
(-3.69195 0.104452 -3.00971e-17)
(-3.70092 0.097326 2.98722e-17)
(-3.70251 0.0861873 0)
(-3.69863 0.0734331 -5.8839e-17)
(-3.68691 0.057675 -5.83905e-17)
(-3.66969 0.0418415 -5.79455e-17)
(-3.64839 0.0243192 5.75037e-17)
(-3.61818 0.00220996 0)
(-3.58113 -0.0203768 8.494e-17)
(-3.53818 -0.0398966 0)
(-3.49056 -0.0554516 -2.78773e-17)
(-3.43434 -0.0693999 -2.76645e-17)
(-3.3702 -0.0851161 0)
(-3.29989 -0.102055 0)
(-3.2261 -0.118893 -5.4041e-17)
(-3.15002 -0.133879 0)
(-3.06993 -0.148208 -5.31942e-17)
(-2.9872 -0.16199 0)
(-2.89987 -0.176501 5.23556e-17)
(-2.80894 -0.188031 1.03883e-16)
(-2.71427 -0.197923 0)
(-2.61864 -0.207231 0)
(-2.51996 -0.214765 0)
(-2.4225 -0.220918 5.02913e-17)
(-2.32335 -0.226809 0)
(-2.22084 -0.231541 4.94695e-17)
(-2.11558 -0.23482 0)
(-2.00981 -0.234062 0)
(-1.90175 -0.234237 -9.6507e-17)
(-1.79639 -0.231937 0)
(-1.68906 -0.2315 -4.74631e-17)
(-1.58599 -0.225499 0)
(-1.47862 -0.226252 -4.66958e-17)
(-1.37184 -0.22547 0)
(-1.26269 -0.224748 0)
(-1.15501 -0.228605 0)
(-1.04429 -0.231085 -1.35698e-16)
(-0.943942 -0.22269 -4.48712e-17)
(-0.834515 -0.219543 0)
(-0.741057 -0.209172 0)
(-0.638946 -0.210655 0)
(-0.552884 -0.198379 0)
(-0.448581 -0.194642 4.32364e-17)
(-0.362238 -0.19003 -8.58375e-17)
(-0.254657 -0.206845 -4.26334e-17)
(-0.166857 -0.198695 8.46581e-17)
(-0.0467672 -0.214012 8.40944e-17)
(0.0552101 -0.210588 4.17614e-17)
(0.185644 -0.225403 0)
(0.29866 -0.226392 8.2397e-17)
(0.437443 -0.242667 0)
(0.569743 -0.251935 -8.12857e-17)
(0.718217 -0.25787 -4.03846e-17)
(0.864396 -0.262632 0)
(1.01945 -0.271017 7.97626e-17)
(1.16865 -0.273508 3.96281e-17)
(1.33089 -0.28155 0)
(1.48939 -0.27885 3.90899e-17)
(1.66275 -0.268677 -1.16508e-16)
(1.82242 -0.25666 0)
(1.98694 -0.25608 0)
(2.13898 -0.255773 0)
(2.29945 -0.259009 0)
(2.45591 -0.254334 -7.51536e-17)
(2.61189 -0.251229 -7.46547e-17)
(2.76303 -0.220429 0)
(2.90073 -0.214079 0)
(3.0317 -0.20048 0)
(3.15304 -0.198565 0)
(3.25938 -0.203389 0)
(3.37842 -0.20667 0)
(3.49076 -0.206032 -7.09507e-17)
(3.60299 -0.20575 -1.65162e-20)
(3.69771 -0.198448 0)
(3.80698 -0.209322 0)
(3.89697 -0.196649 -6.86055e-17)
(3.98877 -0.197523 0)
(4.06872 -0.176791 6.74236e-17)
(4.13754 -0.187644 6.6806e-17)
(4.17964 -0.17075 0)
(4.23379 -0.189371 0)
(4.27275 -0.165317 -6.48993e-17)
(4.3229 -0.156199 -1.2851e-16)
(4.35083 -0.160325 0)
(4.38373 -0.171991 0)
(4.42558 -0.163184 0)
(4.43852 -0.148337 -6.16894e-17)
(4.46666 -0.135232 6.10017e-17)
(4.46566 -0.13562 0)
(4.48616 -0.142439 1.19368e-16)
(4.47024 -0.130304 5.90299e-17)
(4.48801 -0.128235 -1.16765e-16)
(4.46536 -0.109393 0)
(4.46416 -0.116416 0)
(4.43335 -0.0948695 -1.12744e-16)
(4.39218 -0.0673352 -5.57156e-17)
(4.30706 -0.0380018 0)
(4.24329 -0.036035 0)
(4.11046 -0.0181623 0)
(4.0004 0.0245195 0)
(3.78834 0.0524738 -1.05586e-16)
(3.61953 0.0958426 0)
(3.32204 0.166318 0)
(3.06402 0.191643 0)
(2.71439 0.220321 0)
(2.39926 0.203714 0)
(2.00914 0.18772 0)
(1.77166 0.153222 -1.00637e-16)
(1.36766 0.149058 0)
(1.23985 0.0819942 0)
(0.855607 0.104483 -1.99429e-16)
(0.851276 0.0224496 9.92529e-17)
(0.46637 0.112554 -9.94052e-17)
(0.662176 -0.126855 9.87853e-17)
(0.0206527 -0.0932467 0)
(0.124898 -0.267876 -4.69564e-17)
(0.247435 -0.488349 0)
(0.375124 -0.753834 -2.27972e-17)
(0.501587 -0.997596 0)
(0.617528 -1.18668 0)
(0.722087 -1.3046 2.24465e-17)
(0.802666 -1.34822 0)
(0.865517 -1.31862 0)
(0.904698 -1.23305 0)
(0.926734 -1.11042 0)
(0.929466 -0.9613 0)
(0.917773 -0.794331 -8.66186e-17)
(0.88897 -0.617302 -4.30265e-17)
(0.846576 -0.434631 4.27471e-17)
(0.790267 -0.253628 0)
(0.722063 -0.080957 0)
(0.640592 0.0805593 0)
(0.549306 0.229452 0)
(0.447772 0.362943 0)
(0.338791 0.480607 -4.11512e-17)
(0.220575 0.582537 -4.08985e-17)
(0.0944709 0.673287 4.06492e-17)
(-0.0373972 0.749307 -4.04015e-17)
(-0.17334 0.812088 0)
(-0.312013 0.860212 0)
(-0.452183 0.896278 -3.96582e-17)
(-0.592687 0.920996 0)
(-0.734101 0.935118 0)
(-0.876052 0.943706 -3.89248e-17)
(-1.01857 0.949148 -3.86814e-17)
(-1.15897 0.946789 -3.84369e-17)
(-1.29633 0.937618 0)
(-1.43042 0.922261 0)
(-1.55996 0.900708 3.76932e-17)
(-1.6845 0.870975 0)
(-1.80506 0.835341 0)
(-1.92201 0.795778 -3.69485e-17)
(-2.03591 0.757694 3.6697e-17)
(-2.14818 0.719518 -3.64483e-17)
(-2.25397 0.680737 0)
(-2.35808 0.641343 0)
(-2.45812 0.604942 -7.14195e-17)
(-2.55534 0.570661 0)
(-2.64716 0.532606 -7.04536e-17)
(-2.73554 0.49455 -1.04963e-16)
(-2.82025 0.458746 1.04242e-16)
(-2.89973 0.422513 -6.90145e-17)
(-2.97602 0.38533 0)
(-3.04981 0.349714 0)
(-3.12324 0.321612 -6.76023e-17)
(-3.19402 0.29718 -3.35707e-17)
(-3.25847 0.271625 0)
(-3.31877 0.250531 0)
(-3.37446 0.235238 -3.28786e-17)
(-3.42477 0.21853 -6.52974e-17)
(-3.46877 0.199696 0)
(-3.50686 0.181871 6.43792e-17)
(-3.54091 0.167469 -6.39199e-17)
(-3.56982 0.153921 6.34641e-17)
(-3.5926 0.139837 0)
(-3.60961 0.126661 0)
(-3.62205 0.115324 0)
(-3.62938 0.103732 0)
(-3.6331 0.0932173 0)
(-3.63204 0.0779887 6.07738e-17)
(-3.62666 0.0614672 0)
(-3.61405 0.0431132 0)
(-3.59566 0.0224358 0)
(-3.57295 0.000822138 1.18046e-16)
(-3.54477 -0.0229034 5.8591e-17)
(-3.51171 -0.0466216 5.81574e-17)
(-3.47378 -0.0734159 -1.15456e-16)
(-3.42937 -0.104623 5.73033e-17)
(-3.38168 -0.134598 -5.68839e-17)
(-3.32769 -0.162132 0)
(-3.26896 -0.188245 5.60372e-17)
(-3.20028 -0.215094 0)
(-3.12754 -0.240434 0)
(-3.04913 -0.262521 0)
(-2.96927 -0.283502 1.08718e-16)
(-2.88718 -0.302918 -5.39459e-17)
(-2.80183 -0.322152 -5.35326e-17)
(-2.71514 -0.341211 -1.0627e-16)
(-2.62452 -0.361322 -1.58216e-16)
(-2.53281 -0.377396 -5.23435e-17)
(-2.43636 -0.390582 0)
(-2.34016 -0.402225 -1.03071e-16)
(-2.24244 -0.410371 0)
(-2.14471 -0.416656 -1.52205e-16)
(-2.04629 -0.42665 0)
(-1.94889 -0.433128 -1.49832e-16)
(-1.84541 -0.439443 0)
(-1.74145 -0.440096 0)
(-1.63279 -0.441679 -4.87473e-17)
(-1.5256 -0.438601 0)
(-1.41507 -0.438335 4.79734e-17)
(-1.30933 -0.433826 9.51588e-17)
(-1.19549 -0.435772 4.7205e-17)
(-1.08551 -0.437663 9.36524e-17)
(-0.966802 -0.438418 -9.28956e-17)