/*--------------------------------*- C++ -*----------------------------------*\
| =========                 |                                                 |
| \\      /  F ield         | OpenFOAM: The Open Source CFD Toolbox           |
|  \\    /   O peration     | Version:  dev                                   |
|   \\  /    A nd           | Web:      http://www.openfoam.org               |
|    \\/     M anipulation  |                                                 |
\*---------------------------------------------------------------------------*/
FoamFile
{
    version     2.0;
    format      ascii;
    class       volSymmTensorField;
    object      UPrime2Mean;
    location    "9.156";
}
// * * * * * * * * * * * * * * * * * * * * * * * * * * * * * * * * * * * * * //

dimensions      [0 2 -2 0 0 0 0];

internalField   nonuniform List<symmTensor> 
12225
(
(0.329373 0.0192637 0 0.0692059 0 0)
(2.98743 0.0796564 0 0.0781208 0 0)
(7.88369 0.112243 0 0.0768254 0 0)
(14.5405 0.148119 0 0.0755021 0 0)
(22.7124 0.132876 0 0.0764498 0 0)
(32.0803 0.200926 0 0.074606 0 0)
(42.3968 0.0958011 0 0.0765494 0 0)
(53.5445 0.200183 0 0.0737885 0 0)
(65.6425 -0.0286034 0 0.0775528 0 0)
(78.2438 0.125391 0 0.0735607 0 0)
(92.9947 -0.306387 0 0.081257 0 0)
(107.34 -0.116012 0 0.0769364 0 0)
(127.956 -0.672359 0 0.0862646 0 0)
(145.659 -1.27702 0 0.134652 0 0)
(185.993 -1.41136 0 0.11641 0 0)
(198.568 -0.392191 0 2.39375 0 0)
(272.363 -33.542 0 5.80886 0 0)
(575.922 -52.9505 0 18.8274 0 0)
(0.377549 0.0567801 0 0.688363 0 0)
(3.15747 0.252122 0 0.731618 0 0)
(8.41433 0.361941 0 0.713496 0 0)
(15.48 0.485114 0 0.705997 0 0)
(24.2074 0.452683 0 0.702873 0 0)
(34.4704 0.63241 0 0.682715 0 0)
(45.5422 0.295717 0 0.691523 0 0)
(58.5022 0.608541 0 0.658213 0 0)
(71.4974 -0.135475 0 0.682084 0 0)
(87.1773 0.282138 0 0.645439 0 0)
(102.816 -1.06537 0 0.71077 0 0)
(121.464 -0.766372 0 0.655012 0 0)
(142.894 -2.5431 0 1.06853 0 0)
(166.359 -4.4905 0 1.04644 0 0)
(199.834 -0.927777 0 3.10291 0 0)
(274.44 -9.97495 0 6.60668 0 0)
(281.099 -20.8412 0 8.73731 0 0)
(800.049 -185.211 0 64.7072 0 0)
(0.505089 0.0583612 0 2.13869 0 0)
(3.06522 0.424421 0 2.20055 0 0)
(8.46908 0.570269 0 2.14953 0 0)
(14.8586 0.85145 0 2.14102 0 0)
(24.285 0.864033 0 2.11796 0 0)
(33.1634 1.05245 0 2.08078 0 0)
(45.2873 0.755671 0 2.07657 0 0)
(56.2227 0.885573 0 2.00584 0 0)
(69.7098 0.171645 0 2.05003 0 0)
(83.4774 0.0161899 0 1.95775 0 0)
(98.2196 -1.12397 0 2.12101 0 0)
(115.704 -2.44899 0 2.09308 0 0)
(138.666 -3.59697 0 2.6211 0 0)
(154.927 -7.20022 0 2.83034 0 0)
(211.082 -13.0108 0 6.12195 0 0)
(223.474 -7.88936 0 6.37713 0 0)
(353.138 -62.2741 0 31.0844 0 0)
(534.686 -192.552 0 98.2557 0 0)
(1.02968 0.092375 0 4.66636 0 0)
(3.55068 0.619223 0 4.76285 0 0)
(9.0721 0.815512 0 4.63876 0 0)
(15.0723 1.14941 0 4.59805 0 0)
(24.6458 1.31223 0 4.55382 0 0)
(32.9967 1.34909 0 4.47955 0 0)
(45.0221 1.26046 0 4.44464 0 0)
(55.189 0.972421 0 4.34621 0 0)
(68.6256 0.474768 0 4.37806 0 0)
(80.7436 -0.283919 0 4.25456 0 0)
(96.0705 -1.3323 0 4.50402 0 0)
(110.555 -3.34333 0 4.36927 0 0)
(131.521 -4.79546 0 5.29942 0 0)
(152.31 -10.9749 0 5.60582 0 0)
(187.923 -11.4305 0 9.28627 0 0)
(238.51 -28.87 0 16.8249 0 0)
(291.579 -58.9356 0 32.6804 0 0)
(414.927 -178.342 0 107.838 0 0)
(1.86386 0.364984 0 8.51526 0 0)
(5.01091 0.720102 0 8.71662 0 0)
(9.43941 1.13956 0 8.46565 0 0)
(16.2483 1.2941 0 8.36262 0 0)
(24.6585 1.69992 0 8.27311 0 0)
(33.9599 1.50153 0 8.13813 0 0)
(44.8377 1.59655 0 8.03761 0 0)
(55.5442 0.991557 0 7.90568 0 0)
(68.4411 0.598664 0 7.85284 0 0)
(80.1521 -0.595871 0 7.75522 0 0)
(95.407 -1.78132 0 7.95713 0 0)
(108.598 -4.2306 0 7.90472 0 0)
(128.144 -6.88326 0 9.02211 0 0)
(145.276 -12.2918 0 9.26431 0 0)
(174.024 -19.2059 0 14.5875 0 0)
(217.97 -25.9626 0 17.21 0 0)
(233.743 -55.5918 0 46.2644 0 0)
(326.748 -171.769 0 138.669 0 0)
(2.5628 0.75043 0 14.0277 0 0)
(6.32692 0.80704 0 14.3793 0 0)
(9.30428 1.53942 0 13.9498 0 0)
(17.1032 1.59391 0 13.7552 0 0)
(24.151 2.11962 0 13.5807 0 0)
(34.2798 1.93547 0 13.3489 0 0)
(43.9939 1.98957 0 13.144 0 0)
(55.1932 1.41351 0 12.9035 0 0)
(67.3555 0.892253 0 12.7672 0 0)
(78.9407 -0.388794 0 12.5665 0 0)
(94.4638 -1.74142 0 12.7676 0 0)
(105.87 -4.31598 0 12.6764 0 0)
(128.164 -7.27046 0 13.9796 0 0)
(137.989 -13.161 0 14.6598 0 0)
(171.034 -21.841 0 21.2443 0 0)
(191.549 -33.0482 0 24.5977 0 0)
(211.128 -55.9229 0 51.569 0 0)
(265.758 -145.681 0 130.639 0 0)
(2.24575 0.721614 0 21.5136 0 0)
(5.54639 0.941124 0 22.1293 0 0)
(9.20462 1.76307 0 21.3556 0 0)
(16.3476 2.07666 0 21.168 0 0)
(23.9843 2.4486 0 20.7697 0 0)
(33.3795 2.54125 0 20.5367 0 0)
(43.6318 2.27216 0 20.069 0 0)
(54.0743 1.9258 0 19.8392 0 0)
(66.5163 0.893889 0 19.4221 0 0)
(77.3966 -0.221675 0 19.2694 0 0)
(92.5593 -2.37583 0 19.2104 0 0)
(103.543 -4.8272 0 19.2533 0 0)
(123.695 -8.98618 0 20.4641 0 0)
(133.979 -14.2658 0 21.4426 0 0)
(161.605 -24.4084 0 28.5073 0 0)
(169.446 -32.4163 0 32.0442 0 0)
(203.446 -59.0195 0 56.8597 0 0)
(190.327 -108.796 0 114.139 0 0)
(1.42549 0.598714 0 29.7284 0 0)
(4.32429 1.13457 0 30.6133 0 0)
(8.58742 1.92334 0 29.4669 0 0)
(15.2587 2.47159 0 29.2958 0 0)
(23.2179 2.77581 0 28.6511 0 0)
(32.2808 2.96139 0 28.3903 0 0)
(42.4392 2.59563 0 27.6394 0 0)
(52.8141 2.18807 0 27.3591 0 0)
(64.4574 1.00355 0 26.6362 0 0)
(75.6486 -0.367737 0 26.4714 0 0)
(88.6853 -2.75707 0 26.089 0 0)
(100.473 -5.74108 0 26.314 0 0)
(115.595 -10.3282 0 27.0713 0 0)
(128.129 -15.8066 0 28.5867 0 0)
(144.722 -26.4992 0 33.9018 0 0)
(152.085 -33.4671 0 37.4672 0 0)
(180.401 -54.9054 0 53.1774 0 0)
(139.644 -71.3257 0 83.6888 0 0)
(1.00812 0.521321 0 38.4917 0 0)
(3.78012 1.28762 0 39.6852 0 0)
(8.18377 2.03504 0 38.149 0 0)
(14.7342 2.77848 0 38.0081 0 0)
(22.663 3.00396 0 37.0989 0 0)
(31.6002 3.31331 0 36.8241 0 0)
(41.5229 2.80172 0 35.774 0 0)
(51.7967 2.46928 0 35.4558 0 0)
(62.8567 1.03358 0 34.4482 0 0)
(73.8742 -0.286971 0 34.2486 0 0)
(85.6957 -3.05266 0 33.619 0 0)
(97.0566 -5.91117 0 33.8791 0 0)
(109.387 -10.9572 0 34.3894 0 0)
(121.263 -16.0486 0 36.1094 0 0)
(131.275 -25.5726 0 39.9934 0 0)
(138.196 -33.2172 0 44.7236 0 0)
(150.048 -47.3329 0 52.4532 0 0)
(123.254 -58.7631 0 73.1113 0 0)
(0.612388 0.484486 0 49.6684 0 0)
(3.23704 1.44547 0 51.2553 0 0)
(7.74443 2.18559 0 49.1606 0 0)
(14.2036 3.03432 0 49.0733 0 0)
(22 3.27112 0 47.7851 0 0)
(30.8603 3.57602 0 47.5059 0 0)
(40.4875 3.0609 0 46.0459 0 0)
(50.6247 2.63147 0 45.6777 0 0)
(61.1512 1.15557 0 44.2597 0 0)
(71.8216 -0.30077 0 44.0167 0 0)
(82.7055 -3.15094 0 42.9739 0 0)
(93.2502 -6.04877 0 43.2936 0 0)
(103.893 -11.1048 0 43.2954 0 0)
(113.758 -15.8573 0 45.1526 0 0)
(121.369 -24.5178 0 47.6574 0 0)
(125.808 -30.5826 0 51.928 0 0)
(129.144 -40.7298 0 56.4506 0 0)
(116.046 -48.4011 0 69.0145 0 0)
(0.43424 0.516056 0 63.8504 0 0)
(2.97985 1.62669 0 65.9037 0 0)
(7.47173 2.38225 0 63.2142 0 0)
(13.8496 3.30821 0 63.1024 0 0)
(21.4975 3.56674 0 61.4699 0 0)
(30.1973 3.85523 0 61.0557 0 0)
(39.5579 3.35119 0 59.2493 0 0)
(49.3979 2.81197 0 58.6551 0 0)
(59.4694 1.36152 0 56.9361 0 0)
(69.5739 -0.277031 0 56.4191 0 0)
(79.6707 -2.99301 0 55.1182 0 0)
(89.2065 -6.09427 0 55.175 0 0)
(98.5249 -10.5671 0 54.8306 0 0)
(106.402 -15.4306 0 56.3791 0 0)
(112.568 -22.1463 0 57.8246 0 0)
(115.102 -28.0619 0 61.5549 0 0)
(116.047 -35.2086 0 64.5222 0 0)
(109.596 -40.8079 0 71.4217 0 0)
(0.356415 0.54034 0 81.3284 0 0)
(2.83212 1.74386 0 84.0113 0 0)
(7.2634 2.55321 0 80.5465 0 0)
(13.5191 3.49868 0 80.4372 0 0)
(20.9935 3.80533 0 78.3526 0 0)
(29.4732 4.03186 0 77.7999 0 0)
(38.5314 3.55448 0 75.5126 0 0)
(48.0018 2.91165 0 74.6888 0 0)
(57.5558 1.47195 0 72.4987 0 0)
(67.0492 -0.233454 0 71.7128 0 0)
(76.2624 -2.88434 0 69.9594 0 0)
(84.8485 -5.87046 0 69.7015 0 0)
(92.7549 -9.97564 0 68.868 0 0)
(99.184 -14.3047 0 69.8229 0 0)
(103.898 -19.7519 0 70.4672 0 0)
(105.842 -24.6653 0 72.9727 0 0)
(105.998 -29.8309 0 74.9165 0 0)
(101.752 -33.3158 0 78.5744 0 0)
(0.329328 0.568762 0 102.388 0 0)
(2.73665 1.80547 0 105.595 0 0)
(7.07021 2.68101 0 101.572 0 0)
(13.1576 3.58019 0 101.103 0 0)
(20.4366 3.92924 0 98.841 0 0)
(28.6212 4.0492 0 97.7621 0 0)
(37.3548 3.60842 0 95.2497 0 0)
(46.3552 2.82551 0 93.8015 0 0)
(55.3838 1.46478 0 91.3673 0 0)
(64.1646 -0.35299 0 89.9177 0 0)
(72.5434 -2.77172 0 87.8932 0 0)
(80.1332 -5.70341 0 86.9208 0 0)
(86.8543 -9.21417 0 85.7111 0 0)
(92.1151 -13.1036 0 85.7199 0 0)
(95.8169 -17.3221 0 85.6719 0 0)
(97.4016 -21.389 0 86.8152 0 0)
(97.5043 -25.2338 0 87.8442 0 0)
(94.7002 -27.6894 0 89.4508 0 0)
(0.313728 0.572971 0 126.362 0 0)
(2.64128 1.77264 0 130.288 0 0)
(6.84932 2.66533 0 125.582 0 0)
(12.7333 3.45997 0 124.773 0 0)
(19.7701 3.78702 0 122.244 0 0)
(27.6208 3.80028 0 120.668 0 0)
(35.9623 3.32607 0 117.787 0 0)
(44.4719 2.47849 0 115.756 0 0)
(52.9086 1.12302 0 112.898 0 0)
(61.0021 -0.640861 0 110.809 0 0)
(68.5508 -2.90943 0 108.32 0 0)
(75.2741 -5.54187 0 106.596 0 0)
(81.0119 -8.59758 0 104.83 0 0)
(85.461 -11.8214 0 103.828 0 0)
(88.5064 -15.1847 0 102.998 0 0)
(89.9441 -18.3525 0 102.826 0 0)
(90.2466 -21.2718 0 102.841 0 0)
(88.2837 -22.9192 0 102.995 0 0)
(0.299328 0.524507 0 151.757 0 0)
(2.53331 1.58044 0 156.255 0 0)
(6.58508 2.37544 0 151.129 0 0)
(12.2353 2.98495 0 149.691 0 0)
(18.9768 3.20793 0 147.134 0 0)
(26.456 3.06546 0 144.823 0 0)
(34.3566 2.52461 0 141.736 0 0)
(42.346 1.59214 0 138.932 0 0)
(50.1828 0.26241 0 135.736 0 0)
(57.602 -1.44282 0 132.861 0 0)
(64.4149 -3.50494 0 129.912 0 0)
(70.3937 -5.84291 0 127.342 0 0)
(75.4077 -8.42015 0 124.941 0 0)
(79.2945 -11.0725 0 122.942 0 0)
(81.9928 -13.7109 0 121.23 0 0)
(83.4108 -16.1759 0 119.893 0 0)
(83.9933 -18.3746 0 118.806 0 0)
(82.7864 -19.4215 0 117.697 0 0)
(0.284037 0.393921 0 174.96 0 0)
(2.41488 1.14461 0 180.155 0 0)
(6.28481 1.66913 0 174.551 0 0)
(11.6735 2.00102 0 172.67 0 0)
(18.0812 1.99792 0 169.99 0 0)
(25.1619 1.66087 0 167.141 0 0)
(32.5945 0.980044 0 163.757 0 0)
(40.0636 -0.0291103 0 160.363 0 0)
(47.3218 -1.36367 0 156.748 0 0)
(54.1358 -2.97578 0 153.237 0 0)
(60.3276 -4.84429 0 149.752 0 0)
(65.733 -6.87531 0 146.464 0 0)
(70.2472 -9.02976 0 143.369 0 0)
(73.7969 -11.1779 0 140.517 0 0)
(76.3527 -13.242 0 137.929 0 0)
(77.879 -15.1417 0 135.606 0 0)
(78.761 -16.7894 0 133.496 0 0)
(78.2127 -17.388 0 131.3 0 0)
(0.268815 0.156358 0 190.059 0 0)
(2.29401 0.390985 0 195.726 0 0)
(5.96826 0.488889 0 189.836 0 0)
(11.0778 0.410368 0 187.695 0 0)
(17.1353 0.0737458 0 184.95 0 0)
(23.8081 -0.534633 0 181.782 0 0)
(30.779 -1.40384 0 178.205 0 0)
(37.7523 -2.52616 0 174.455 0 0)
(44.4921 -3.87595 0 170.546 0 0)
(50.792 -5.41605 0 166.63 0 0)
(56.4991 -7.10301 0 162.741 0 0)
(61.4918 -8.87171 0 158.964 0 0)
(65.6946 -10.6677 0 155.331 0 0)
(69.0782 -12.4129 0 151.872 0 0)
(71.6353 -14.0315 0 148.609 0 0)
(73.355 -15.5017 0 145.568 0 0)
(74.55 -16.7381 0 142.678 0 0)
(74.5948 -17.0599 0 139.686 0 0)
(0.259165 -0.142216 0 190.031 0 0)
(2.19649 -0.533477 0 195.657 0 0)
(5.69159 -0.936556 0 189.83 0 0)
(10.5449 -1.49142 0 187.68 0 0)
(16.2867 -2.21159 0 184.978 0 0)
(22.5993 -3.1138 0 181.816 0 0)
(29.1746 -4.18721 0 178.265 0 0)
(35.7398 -5.42604 0 174.517 0 0)
(42.0723 -6.79983 0 170.595 0 0)
(47.9943 -8.27994 0 166.646 0 0)
(53.3698 -9.81958 0 162.675 0 0)
(58.1103 -11.3763 0 158.792 0 0)
(62.1549 -12.8971 0 154.982 0 0)
(65.4974 -14.3386 0 151.322 0 0)
(68.1365 -15.6357 0 147.783 0 0)
(70.0778 -16.7954 0 144.447 0 0)
(71.5546 -17.7423 0 141.202 0 0)
(72.089 -17.9478 0 137.875 0 0)
(0.25599 -0.395848 0 174.227 0 0)
(2.13727 -1.30477 0 179.174 0 0)
(5.50077 -2.1255 0 173.848 0 0)
(10.1641 -3.07324 0 171.857 0 0)
(15.6724 -4.10111 0 169.377 0 0)
(21.7208 -5.22981 0 166.49 0 0)
(28.0121 -6.45228 0 163.241 0 0)
(34.2917 -7.76537 0 159.82 0 0)
(40.3494 -9.14064 0 156.217 0 0)
(46.0288 -10.5582 0 152.591 0 0)
(51.2044 -11.976 0 148.91 0 0)
(55.808 -13.3675 0 145.306 0 0)
(59.7864 -14.688 0 141.727 0 0)
(63.1435 -15.914 0 138.277 0 0)
(65.8774 -16.9943 0 134.896 0 0)
(68.0055 -17.9438 0 131.698 0 0)
(69.6969 -18.7015 0 128.545 0 0)
(70.5946 -18.8897 0 125.349 0 0)
(0.25744 -0.544808 0 148.813 0 0)
(2.10945 -1.74547 0 152.767 0 0)
(5.38628 -2.81991 0 148.234 0 0)
(9.92199 -4.00232 0 146.518 0 0)
(15.2736 -5.20517 0 144.399 0 0)
(21.145 -6.45346 0 141.947 0 0)
(27.2485 -7.73916 0 139.185 0 0)
(33.342 -9.06411 0 136.282 0 0)
(39.2258 -10.4009 0 133.213 0 0)
(44.756 -11.7396 0 130.124 0 0)
(49.8173 -13.042 0 126.97 0 0)
(54.3505 -14.2948 0 123.878 0 0)
(58.3094 -15.4587 0 120.786 0 0)
(61.6995 -16.5246 0 117.8 0 0)
(64.5199 -17.4491 0 114.853 0 0)
(66.7927 -18.2512 0 112.058 0 0)
(68.6432 -18.8802 0 109.288 0 0)
(69.804 -19.0901 0 106.499 0 0)
(0.260292 -0.60058 0 119.936 0 0)
(2.10048 -1.88757 0 122.902 0 0)
(5.32017 -3.06435 0 119.257 0 0)
(9.77047 -4.33619 0 117.864 0 0)
(15.0171 -5.59348 0 116.16 0 0)
(20.7709 -6.86234 0 114.197 0 0)
(26.7506 -8.13247 0 111.986 0 0)
(32.7234 -9.4092 0 109.661 0 0)
(38.4968 -10.6671 0 107.199 0 0)
(43.9353 -11.9032 0 104.717 0 0)
(48.9316 -13.0836 0 102.177 0 0)
(53.4308 -14.2037 0 99.6804 0 0)
(57.3919 -15.2291 0 97.1778 0 0)
(60.8195 -16.1598 0 94.7544 0 0)
(63.714 -16.9587 0 92.3582 0 0)
(66.1002 -17.6455 0 90.0767 0 0)
(68.0729 -18.1791 0 87.8138 0 0)
(69.4324 -18.4149 0 85.5406 0 0)
(0.263243 -0.589844 0 91.8096 0 0)
(2.10012 -1.82795 0 93.9229 0 0)
(5.28236 -2.99345 0 91.1342 0 0)
(9.67576 -4.24268 0 90.0615 0 0)
(14.8519 -5.46196 0 88.7632 0 0)
(20.527 -6.67367 0 87.2695 0 0)
(26.425 -7.86737 0 85.5902 0 0)
(32.3189 -9.04801 0 83.8197 0 0)
(38.0221 -10.1949 0 81.9454 0 0)
(43.4044 -11.3067 0 80.0498 0 0)
(48.3641 -12.3566 0 78.1106 0 0)
(52.8489 -13.3427 0 76.1976 0 0)
(56.8213 -14.2377 0 74.2811 0 0)
(60.2843 -15.044 0 72.4193 0 0)
(63.2397 -15.7337 0 70.5795 0 0)
(65.7146 -16.3215 0 68.821 0 0)
(67.7816 -16.7783 0 67.0797 0 0)
(69.294 -17.0279 0 65.3282 0 0)
(0.266311 -0.536119 0 66.8775 0 0)
(2.10393 -1.64904 0 68.3165 0 0)
(5.26101 -2.72776 0 66.2865 0 0)
(9.61665 -3.87953 0 65.5042 0 0)
(14.7454 -4.99815 0 64.5667 0 0)
(20.3682 -6.09949 0 63.4857 0 0)
(26.2126 -7.17553 0 62.2724 0 0)
(32.0554 -8.22812 0 60.9877 0 0)
(37.7146 -9.24245 0 59.6299 0 0)
(43.0634 -10.216 0 58.2511 0 0)
(48.0041 -11.1296 0 56.8433 0 0)
(52.4858 -11.9808 0 55.4497 0 0)
(56.4732 -12.75 0 54.0569 0 0)
(59.9682 -13.4391 0 52.6993 0 0)
(62.9737 -14.0284 0 51.3603 0 0)
(65.5176 -14.5273 0 50.0755 0 0)
(67.6572 -14.9172 0 48.8069 0 0)
(69.2874 -15.1652 0 47.5269 0 0)
(0.268169 -0.462365 0 46.2507 0 0)
(2.10834 -1.41439 0 47.1886 0 0)
(5.24915 -2.36128 0 45.7891 0 0)
(9.57981 -3.37166 0 45.2514 0 0)
(14.6769 -4.35193 0 44.6107 0 0)
(20.2651 -5.31147 0 43.8675 0 0)
(26.0749 -6.24528 0 43.0341 0 0)
(31.8853 -7.15163 0 42.1474 0 0)
(37.5178 -8.02157 0 41.2126 0 0)
(42.8472 -8.8504 0 40.2602 0 0)
(47.7787 -9.62586 0 39.291 0 0)
(52.2624 -10.3439 0 38.3291 0 0)
(56.2643 -10.9923 0 37.3704 0 0)
(59.7854 -11.5703 0 36.4331 0 0)
(62.8288 -12.0658 0 35.5107 0 0)
(65.4236 -12.4826 0 34.6223 0 0)
(67.6152 -12.8105 0 33.7481 0 0)
(69.3313 -13.041 0 32.8627 0 0)
(0.269323 -0.382653 0 30.1326 0 0)
(2.11187 -1.16344 0 30.7164 0 0)
(5.24238 -1.9563 0 29.807 0 0)
(9.55631 -2.80452 0 29.4601 0 0)
(14.6321 -3.6275 0 29.0483 0 0)
(20.197 -4.43146 0 28.568 0 0)
(25.9837 -5.2126 0 28.0292 0 0)
(31.7721 -5.96791 0 27.4541 0 0)
(37.3857 -6.69086 0 26.8485 0 0)
(42.7005 -7.37669 0 26.2306 0 0)
(47.6237 -8.01686 0 25.6031 0 0)
(52.1048 -8.6072 0 24.9791 0 0)
(56.112 -9.13975 0 24.3586 0 0)
(59.6453 -9.6126 0 23.7505 0 0)
(62.7084 -10.0182 0 23.1528 0 0)
(65.329 -10.3569 0 22.5756 0 0)
(67.5476 -10.6241 0 22.0091 0 0)
(69.3167 -10.8217 0 21.4339 0 0)
(0.269636 -0.304262 0 18.1963 0 0)
(2.11362 -0.91884 0 18.5402 0 0)
(5.237 -1.55255 0 17.99 0 0)
(9.53687 -2.23486 0 17.7841 0 0)
(14.5936 -2.89847 0 17.5412 0 0)
(20.1365 -3.54801 0 17.2569 0 0)
(25.8987 -4.17871 0 16.9369 0 0)
(31.6615 -4.78726 0 16.5942 0 0)
(37.2494 -5.36709 0 16.2327 0 0)
(42.539 -5.91474 0 15.863 0 0)
(47.4396 -6.4229 0 15.4867 0 0)
(51.8997 -6.88922 0 15.1119 0 0)
(55.8911 -7.30688 0 14.7387 0 0)
(59.4116 -7.67557 0 14.3722 0 0)
(62.4695 -7.9895 0 14.012 0 0)
(65.0873 -8.24923 0 13.6633 0 0)
(67.309 -8.45393 0 13.3216 0 0)
(69.1056 -8.60438 0 12.9751 0 0)
(0.269279 -0.228022 0 9.87374 0 0)
(2.11135 -0.690552 0 10.0571 0 0)
(5.21976 -1.17748 0 9.76015 0 0)
(9.49338 -1.70673 0 9.65786 0 0)
(14.5199 -2.22073 0 9.53355 0 0)
(20.0293 -2.72078 0 9.38447 0 0)
(25.7546 -3.20257 0 9.21392 0 0)
(31.4795 -3.6636 0 9.02984 0 0)
(37.0282 -4.09812 0 8.83425 0 0)
(42.2806 -4.50458 0 8.63341 0 0)
(47.1452 -4.87735 0 8.42793 0 0)
(51.5751 -5.21661 0 8.22297 0 0)
(55.5412 -5.51654 0 8.01797 0 0)
(59.0453 -5.77936 0 7.81688 0 0)
(62.095 -5.99893 0 7.61877 0 0)
(64.7118 -6.17882 0 7.42763 0 0)
(66.9371 -6.32197 0 7.24101 0 0)
(68.767 -6.42407 0 7.05297 0 0)
(0.268136 -0.154637 0 4.48217 0 0)
(2.08449 -0.497353 0 4.57772 0 0)
(5.15847 -0.851493 0 4.45263 0 0)
(9.39254 -1.22751 0 4.41702 0 0)
(14.3935 -1.58425 0 4.36599 0 0)
(19.8774 -1.9263 0 4.30161 0 0)
(25.5761 -2.25105 0 4.22435 0 0)
(31.2749 -2.55621 0 4.13793 0 0)
(36.8006 -2.84021 0 4.04497 0 0)
(42.0323 -3.10422 0 3.94923 0 0)
(46.8801 -3.3453 0 3.8515 0 0)
(51.3006 -3.56433 0 3.75449 0 0)
(55.2609 -3.75755 0 3.65768 0 0)
(58.771 -3.92702 0 3.56378 0 0)
(61.8271 -4.06663 0 3.47119 0 0)
(64.4627 -4.18168 0 3.3838 0 0)
(66.6851 -4.27218 0 3.29863 0 0)
(68.5431 -4.34225 0 3.2145 0 0)
(0.255248 -0.0880905 0 1.41976 0 0)
(2.06854 -0.313116 0 1.48544 0 0)
(5.20696 -0.525436 0 1.44543 0 0)
(9.49951 -0.733597 0 1.43228 0 0)
(14.5539 -0.923511 0 1.41218 0 0)
(20.089 -1.10598 0 1.38893 0 0)
(25.844 -1.28249 0 1.36232 0 0)
(31.602 -1.4505 0 1.33301 0 0)
(37.1892 -1.60835 0 1.30205 0 0)
(42.4799 -1.75586 0 1.27046 0 0)
(47.3873 -1.89154 0 1.23867 0 0)
(51.8603 -2.01538 0 1.20728 0 0)
(55.8704 -2.12537 0 1.17626 0 0)
(59.4202 -2.22217 0 1.14632 0 0)
(62.5097 -2.30168 0 1.11708 0 0)
(65.1768 -2.36789 0 1.09062 0 0)
(67.3991 -2.4205 0 1.06543 0 0)
(69.2492 -2.45999 0 1.03849 0 0)
(0.245932 -0.0252982 0 0.14172 0 0)
(2.06635 -0.0977166 0 0.153494 0 0)
(5.18581 -0.165377 0 0.150711 0 0)
(9.44748 -0.230548 0 0.149542 0 0)
(14.4831 -0.293383 0 0.147241 0 0)
(20.0056 -0.35366 0 0.144515 0 0)
(25.7539 -0.412433 0 0.141518 0 0)
(31.5095 -0.468892 0 0.13839 0 0)
(37.1037 -0.522201 0 0.135169 0 0)
(42.4124 -0.572178 0 0.13192 0 0)
(47.3501 -0.618515 0 0.128665 0 0)
(51.8639 -0.661183 0 0.125465 0 0)
(55.9274 -0.69961 0 0.122324 0 0)
(59.5358 -0.733649 0 0.119303 0 0)
(62.6956 -0.762568 0 0.11648 0 0)
(65.4395 -0.78781 0 0.114145 0 0)
(67.752 -0.806025 0 0.112073 0 0)
(69.6797 -0.815319 0 0.11169 0 0)
(0.0244744 0.0357372 0 0.716815 0 0)
(0.267164 0.0990231 0 0.677925 0 0)
(0.785156 0.180757 0 0.670778 0 0)
(1.53832 0.294698 0 0.661565 0 0)
(2.48498 0.423573 0 0.659962 0 0)
(3.60694 0.568241 0 0.656684 0 0)
(4.88221 0.715177 -2.38441e-19 0.654707 -6.4725e-20 1.47749e-37)
(6.30793 0.865975 2.42502e-19 0.650388 6.9021e-20 1.48201e-37)
(7.87741 1.01282 0 0.644373 0 0)
(9.58868 1.16013 2.45026e-19 0.6368 6.84462e-20 1.45985e-37)
(11.4366 1.30405 0 0.628223 0 0)
(13.4152 1.44681 0 0.61914 0 0)
(15.5178 1.58381 0 0.611198 0 0)
(17.7381 1.71538 -2.77646e-19 0.604744 -5.16139e-20 1.34643e-37)
(20.0701 1.83837 0 0.598544 0 0)
(22.5141 1.95187 0 0.593326 0 0)
(25.0705 2.05169 3.40712e-19 0.589042 3.90098e-20 1.22003e-37)
(27.7377 2.13947 0 0.584603 0 0)
(30.5109 2.21785 0 0.57995 0 0)
(33.3843 2.28904 0 0.575517 0 0)
(36.342 2.35211 -4.56308e-19 0.572193 -1.95982e-20 1.01709e-37)
(39.3745 2.40783 0 0.568442 0 0)
(42.468 2.4543 -5.15917e-19 0.56619 -1.0338e-20 9.24577e-38)
(45.6134 2.49135 0 0.567394 0 0)
(48.7945 2.52512 0 0.568153 0 0)
(51.9971 2.54822 -6.03905e-19 0.57032 1.19173e-21 7.97107e-38)
(55.2145 2.55044 0 0.57215 0 0)
(58.4508 2.53308 6.57491e-19 0.570623 -6.9303e-21 7.21066e-38)
(61.6998 2.50212 0 0.562761 0 0)
(64.9675 2.45945 -7.02205e-19 0.552359 1.04872e-20 6.53404e-38)
(68.2522 2.40764 0 0.538799 0 0)
(71.5413 2.34919 0 0.522982 0 0)
(74.8272 2.28394 0 0.508955 0 0)
(78.1112 2.20815 0 0.497582 0 0)
(81.3872 2.12122 0 0.486038 0 0)
(84.6519 2.02604 7.79239e-19 0.47514 -1.40003e-20 4.59472e-38)
(87.9039 1.92246 0 0.463533 0 0)
(91.1441 1.81032 -1.5617e-18 0.447537 2.71477e-20 1.61219e-37)
(94.3711 1.69122 0 0.431991 0 0)
(97.58 1.56402 1.5518e-18 0.417404 -2.61578e-20 1.39847e-37)
(100.764 1.43121 0 0.402302 0 0)
(103.922 1.28916 0 0.39067 0 0)
(107.045 1.13882 -1.51392e-18 0.378148 2.15702e-20 1.11188e-37)
(110.116 0.986116 0 0.36537 0 0)
(113.121 0.831337 -1.47547e-18 0.35459 1.82821e-20 9.42678e-38)
(116.043 0.673309 1.45303e-18 0.345752 -1.65602e-20 8.65813e-38)
(118.868 0.509253 0 0.339549 0 0)
(121.588 0.339047 1.4023e-18 0.334653 -1.25196e-20 7.33733e-38)
(124.186 0.163695 1.37414e-18 0.330837 -1.06472e-20 6.79114e-38)
(126.663 -0.0141222 0 0.327659 0 0)
(129.003 -0.193418 0 0.325503 0 0)
(131.189 -0.376927 0 0.32276 0 0)
(133.199 -0.565412 0 0.321503 0 0)
(135.012 -0.756184 0 0.323532 0 0)
(136.602 -0.945938 -1.17395e-18 0.327742 -4.39026e-21 5.01305e-38)
(137.941 -1.13712 0 0.331851 0 0)
(139.015 -1.333 1.07936e-18 0.335562 1.14703e-20 4.7482e-38)
(139.829 -1.53551 0 0.340824 0 0)
(140.378 -1.74433 0 0.347632 0 0)
(140.646 -1.95044 -9.1155e-19 0.356904 -2.24369e-20 4.74917e-38)
(140.629 -2.15477 0 0.368833 0 0)
(140.31 -2.35993 7.8031e-19 0.380853 3.12209e-20 4.96604e-38)
(139.696 -2.56395 0 0.391157 0 0)
(138.782 -2.76797 0 0.403953 0 0)
(137.578 -2.97117 0 0.418197 0 0)
(136.097 -3.16725 -4.8247e-19 0.432747 -4.75272e-20 6.03143e-38)
(134.342 -3.35621 0 0.447323 0 0)
(132.325 -3.53872 0 0.460394 0 0)
(130.058 -3.7142 -2.26855e-19 0.474309 -6.11888e-20 7.29931e-38)
(127.56 -3.88794 0 0.490208 0 0)
(124.865 -4.05351 -5.10761e-20 0.505538 -6.98914e-20 8.29689e-38)
(121.986 -4.20586 0 0.520477 0 0)
(118.942 -4.34683 0 0.536678 0 0)
(115.766 -4.47827 0 0.553956 0 0)
(112.481 -4.6 -3.04852e-19 0.571947 8.31185e-20 1.04498e-37)
(109.105 -4.70966 0 0.589945 0 0)
(105.654 -4.8039 0 0.607725 0 0)
(102.14 -4.88289 -5.64121e-19 0.62567 9.02694e-20 1.20114e-37)
(98.5748 -4.951 -6.45904e-19 0.644329 9.18158e-20 1.25221e-37)
(94.986 -5.00796 0 0.663034 0 0)
(91.4038 -5.05293 -7.98906e-19 0.682672 9.45951e-20 1.34639e-37)
(87.8489 -5.08659 0 0.703786 0 0)
(84.3419 -5.1084 -1.87726e-18 0.72532 1.92511e-19 5.74209e-37)
(80.8971 -5.11728 0 0.747953 0 0)
(77.5325 -5.11167 -2.12201e-18 0.770516 1.9365e-19 6.07352e-37)
(74.2663 -5.08977 0 0.793454 0 0)
(71.1131 -5.0549 2.32449e-18 0.819393 -1.93803e-19 6.36338e-37)
(68.0905 -5.00681 0 0.844398 0 0)
(65.2126 -4.94013 0 0.866705 0 0)
(62.4794 -4.85461 0 0.889395 0 0)
(59.8951 -4.75245 -2.58522e-18 0.914402 1.86218e-19 6.79708e-37)
(57.4656 -4.63604 0 0.938994 0 0)
(55.1998 -4.50358 2.64616e-18 0.963252 -1.79941e-19 6.94459e-37)
(53.1005 -4.35491 0 0.987007 0 0)
(51.1568 -4.18409 -2.65814e-18 1.01058 1.73599e-19 7.03342e-37)
(49.3634 -3.99654 -2.64898e-18 1.03189 1.70376e-19 7.0687e-37)
(47.7085 -3.79629 -2.62998e-18 1.05312 1.66199e-19 7.09551e-37)
(46.1878 -3.58709 0 1.0755 0 0)
(44.7745 -3.36791 0 1.09858 0 0)
(43.479 -3.13936 0 1.11812 0 0)
(42.2818 -2.90176 0 1.138 0 0)
(41.1796 -2.66264 0 1.15784 0 0)
(40.1534 -2.42298 0 1.1769 0 0)
(39.2 -2.1806 0 1.19196 0 0)
(38.2729 -1.93709 0 1.20792 0 0)
(37.3701 -1.70061 2.02457e-18 1.22328 -1.31573e-19 7.07461e-37)
(36.4581 -1.47214 1.91074e-18 1.24047 -1.24296e-19 7.06834e-37)
(35.5615 -1.2531 0 1.25214 0 0)
(34.6461 -1.04284 0 1.26518 0 0)
(33.7207 -0.856194 0 1.27926 0 0)
(32.7362 -0.680319 1.35438e-18 1.2918 -1.04736e-19 6.91029e-37)
(31.7923 -0.530201 0 1.299 0 0)
(30.7817 -0.387824 0 1.30886 0 0)
(29.8231 -0.284969 0 1.31899 0 0)
(28.8948 -0.201549 0 1.3322 0 0)
(28.0633 -0.151072 -4.39368e-19 1.34071 7.58148e-20 6.66101e-37)
(27.3626 -0.125126 0 1.35008 0 0)
(26.8237 -0.13449 0 1.36358 0 0)
(26.5347 -0.177565 -2.22198e-19 1.37145 -6.55577e-20 6.42707e-37)
(26.4929 -0.246477 4.49263e-19 1.38423 6.12133e-20 6.3007e-37)
(26.7462 -0.356096 0 1.40118 0 0)
(27.3516 -0.512667 9.11748e-19 1.41856 6.00953e-20 6.05226e-37)
(28.3733 -0.709548 0 1.43766 0 0)
(29.8717 -0.961285 -1.35344e-18 1.45531 -6.44945e-20 5.75537e-37)
(31.8675 -1.24765 0 1.47813 0 0)
(34.4363 -1.58339 0 1.50521 0 0)
(37.4735 -1.96107 0 1.53789 0 0)
(41.0886 -2.38912 0 1.57217 0 0)
(45.1347 -2.84325 0 1.61037 0 0)
(49.6178 -3.34499 4.89795e-18 1.65261 2.04707e-19 1.97193e-36)
(54.4792 -3.89076 5.15321e-18 1.69885 2.30508e-19 1.93731e-36)
(59.7385 -4.47259 0 1.74735 0 0)
(65.2011 -5.07485 0 1.80302 0 0)
(70.819 -5.70169 0 1.85828 0 0)
(76.4446 -6.31548 -5.69402e-18 1.91907 -3.52296e-19 1.9174e-36)
(81.855 -6.93046 0 1.99016 0 0)
(87.0116 -7.55224 0 2.06249 0 0)
(91.8559 -8.16697 0 2.13885 0 0)
(96.3053 -8.75775 -5.33527e-18 2.21731 -5.33524e-19 2.07231e-36)
(100.324 -9.32359 5.10182e-18 2.30226 5.83304e-19 2.13468e-36)
(103.736 -9.84687 0 2.39171 0 0)
(106.644 -10.3568 0 2.48435 0 0)
(109.018 -10.8111 4.08108e-18 2.57882 7.35515e-19 2.36642e-36)
(110.857 -11.2298 3.65131e-18 2.67217 7.84462e-19 2.45165e-36)
(112.012 -11.5738 0 2.77243 0 0)
(112.581 -11.8881 0 2.87234 0 0)
(112.457 -12.1302 -2.053e-18 2.9764 -9.45953e-19 2.71952e-36)
(111.774 -12.3545 1.42333e-18 3.07139 9.89564e-19 2.79825e-36)
(110.579 -12.5084 0 3.16819 0 0)
(108.668 -12.6082 0 3.26883 0 0)
(106.165 -12.6416 -5.21564e-19 3.35975 1.11736e-18 3.06895e-36)
(103.032 -12.621 0 3.45025 0 0)
(99.5499 -12.5626 0 3.53381 0 0)
(95.5629 -12.4133 -2.5485e-18 3.60627 1.20627e-18 3.30196e-36)
(91.2647 -12.1918 0 3.67826 0 0)
(86.6404 -11.8593 -3.83186e-18 3.73977 1.25732e-18 3.44516e-36)
(81.7549 -11.4419 0 3.79567 0 0)
(76.6506 -10.9068 0 3.83494 0 0)
(71.7097 -10.2733 0 3.859 0 0)
(66.8307 -9.47541 5.87073e-18 3.87778 -1.2781e-18 3.68215e-36)
(62.1746 -8.55803 0 3.88129 0 0)
(57.9589 -7.4885 0 3.86933 0 0)
(54.5033 -6.29926 0 3.84154 0 0)
(51.6488 -4.92085 0 3.79957 0 0)
(49.551 -3.46203 0 3.74911 0 0)
(48.8263 -1.90848 0 3.67704 0 0)
(49.6599 -0.284922 6.02207e-18 3.58726 -1.10468e-18 3.72871e-36)
(51.7212 1.42804 5.60643e-18 3.48912 -1.05036e-18 3.71155e-36)
(55.4231 3.12042 0 3.37773 0 0)
(60.6765 4.74786 0 3.25972 0 0)
(67.4809 6.32824 0 3.13009 0 0)
(75.4152 7.80219 -3.05247e-18 3.00038 7.95518e-19 3.38562e-36)
(84.5432 9.10426 0 2.87237 0 0)
(94.0974 10.2934 2.95145e-18 2.73752 -1.35129e-18 1.23718e-35)
(103.971 11.2512 -1.3108e-18 2.60717 1.21856e-18 1.16699e-35)
(113.602 12.0405 3.20086e-19 2.47523 1.1057e-18 1.10261e-35)
(123.251 12.6911 -2.02528e-18 2.35025 -1.01475e-18 1.03425e-35)
(131.373 13.2322 3.68277e-18 2.23104 9.23352e-19 9.76932e-36)
(139.253 13.7098 -5.28738e-18 2.12359 -9.04236e-19 9.00077e-36)
(143.015 14.4023 0 2.06752 0 0)
(0.0183056 0.174102 0 6.092 0 0)
(0.20269 0.387549 0 6.03015 0 0)
(0.629381 0.609208 1.31869e-19 5.85766 1.7558e-19 6.75954e-37)
(1.32681 0.853384 0 5.73706 0 0)
(2.26878 1.13229 -1.92926e-19 5.67729 -3.5271e-19 9.18627e-37)
(3.44472 1.43672 -1.84866e-19 5.65004 -4.40315e-19 9.71618e-37)
(4.83343 1.76108 -8.13182e-20 5.63451 -2.50781e-19 2.48732e-37)
(6.42063 2.10132 -6.97219e-20 5.61639 -2.69672e-19 2.60972e-37)
(8.19849 2.45014 0 5.58803 0 0)
(10.1651 2.80305 -4.3101e-20 5.54549 -2.68575e-19 2.59134e-37)
(12.3217 3.15125 0 5.49367 0 0)
(14.6666 3.49242 0 5.43413 0 0)
(17.1915 3.82138 9.6563e-20 5.36596 4.23223e-19 9.50128e-37)
(19.8973 4.13772 7.03631e-20 5.29419 1.8675e-19 2.33891e-37)
(22.7733 4.43169 -1.86935e-19 5.21914 -3.2618e-19 8.92726e-37)
(25.8135 4.70321 -2.52883e-19 5.14113 -2.8134e-19 8.6503e-37)
(29.0068 4.95378 -1.71615e-19 5.05697 -1.18592e-19 2.12531e-37)
(32.3467 5.18497 0 4.9664 0 0)
(35.8214 5.39516 0 4.87086 0 0)
(39.4223 5.58893 0 4.7683 0 0)
(43.1262 5.76543 -3.86443e-19 4.66352 -3.69941e-20 1.80197e-37)
(46.9243 5.92181 0 4.55909 0 0)
(50.794 6.04976 1.60763e-18 4.45266 -1.5548e-20 1.55007e-36)
(54.7226 6.153 0 4.34982 0 0)
(58.6932 6.23316 0 4.24476 0 0)
(62.6881 6.29047 7.74078e-19 4.14061 -5.75053e-20 1.56302e-37)
(66.6798 6.32169 0 4.03467 0 0)
(70.6493 6.3361 -9.3205e-19 3.93406 8.16092e-20 1.45802e-37)
(74.563 6.32736 -1.99159e-18 3.83405 1.81163e-19 5.56341e-37)
(78.4108 6.29023 1.07598e-18 3.73127 -9.85472e-20 1.36436e-37)
(82.1889 6.22173 0 3.62343 0 0)
(85.897 6.12536 0 3.51808 0 0)
(89.5216 6.00358 0 3.41474 0 0)
(93.0666 5.85749 -2.5741e-18 3.30664 2.22464e-19 4.70743e-37)
(96.5237 5.68162 -2.65236e-18 3.19927 2.20032e-19 4.54619e-37)
(99.9064 5.47629 -1.37237e-18 3.09837 1.07472e-19 1.10632e-37)
(103.223 5.23981 0 3.00656 0 0)
(106.466 4.96729 2.83561e-18 2.91857 -2.0287e-19 4.12381e-37)
(109.646 4.65665 0 2.83351 0 0)
(112.755 4.31721 -2.8725e-18 2.75213 1.88351e-19 3.81182e-37)
(115.801 3.95008 0 2.67196 0 0)
(118.78 3.56306 0 2.59992 0 0)
(121.699 3.15998 2.8259e-18 2.52915 -1.54073e-19 3.31372e-37)
(124.542 2.73805 0 2.46398 0 0)
(127.293 2.29056 8.15562e-18 2.40612 -3.93506e-19 2.68195e-36)
(129.948 1.81321 -2.68747e-18 2.36086 1.19229e-19 2.83433e-37)
(132.511 1.31026 0 2.33367 0 0)
(134.998 0.781576 -2.54795e-18 2.31773 9.09861e-20 2.51513e-37)
(137.394 0.219891 -2.4674e-18 2.31129 7.67423e-20 2.35955e-37)
(139.696 -0.368098 0 2.3135 0 0)
(141.883 -0.967638 0 2.32683 0 0)
(143.937 -1.56466 0 2.34177 0 0)
(145.841 -2.14999 0 2.35518 0 0)
(147.559 -2.72763 0 2.37875 0 0)
(149.078 -3.30604 1.88296e-18 2.41159 1.44576e-20 1.71818e-37)
(150.376 -3.89269 3.45049e-18 2.45488 7.10194e-20 6.54812e-37)
(151.433 -4.48281 -1.64416e-18 2.50595 -5.58599e-20 1.59842e-37)
(152.259 -5.09111 0 2.56203 0 0)
(152.829 -5.7012 2.68692e-18 2.62527 1.90202e-19 6.00456e-37)
(153.114 -6.29134 -1.16989e-18 2.69355 -1.13213e-19 1.46617e-37)
(153.14 -6.87746 0 2.77031 0 0)
(152.86 -7.45853 -9.78108e-19 2.86028 -1.48482e-19 1.49269e-37)
(152.286 -8.0178 0 2.95371 0 0)
(151.411 -8.56797 0 3.05496 0 0)
(150.234 -9.10065 -1.04842e-18 3.16231 -3.96257e-19 6.24677e-37)
(148.742 -9.60459 4.2306e-19 3.27449 2.1487e-19 1.63521e-37)
(146.971 -10.0992 -4.89774e-19 3.39415 -4.61822e-19 6.67483e-37)
(144.912 -10.5721 2.12939e-19 3.51893 4.88891e-19 6.91245e-37)
(142.591 -11.0153 1.03575e-20 3.64333 2.54354e-19 1.82461e-37)