/*--------------------------------*- C++ -*----------------------------------*\
| =========                 |                                                 |
| \\      /  F ield         | OpenFOAM: The Open Source CFD Toolbox           |
|  \\    /   O peration     | Version:  dev                                   |
|   \\  /    A nd           | Web:      http://www.openfoam.org               |
|    \\/     M anipulation  |                                                 |
\*---------------------------------------------------------------------------*/
FoamFile
{
    version     2.0;
    format      ascii;
    class       volScalarField;
    object      k;
    location    "9.133";
}
// * * * * * * * * * * * * * * * * * * * * * * * * * * * * * * * * * * * * * //

dimensions      [0 2 -2 0 0 0 0];

internalField   nonuniform List<scalar> 
12225
(
7.96477
11.4189
8.23391
10.5592
10.7059
13.6891
16.3704
18.6998
23.0384
24.9756
31.3373
33.1284
41.6493
41.4424
62.9772
62.8024
40.145
93.6569
1.48959
7.12619
5.77737
8.49011
6.60618
9.99727
8.81377
11.7602
11.4246
13.621
14.9712
15.7014
19.8633
20.9669
27.7715
28.2668
62.8484
89.4283
0.134089
2.09173
2.20857
3.72007
3.34805
4.26861
4.19516
4.42701
5.19785
4.89063
6.24025
5.30294
7.92478
7.90248
12.7684
16.8408
70.9906
118.156
0.0259089
0.57637
0.745291
1.15269
1.55957
1.50426
2.06266
1.67491
2.29804
1.94257
2.58866
2.04041
2.64307
2.65918
5.24198
8.61125
35.5542
102.971
0.00241429
0.0961123
0.227671
0.299726
0.552534
0.52619
0.790547
0.637773
0.86867
0.79166
1.00627
0.896786
0.96254
1.15611
1.56556
2.99968
11.1968
44.7414
0.00561754
0.103667
0.122899
0.172467
0.266374
0.238574
0.359001
0.312194
0.484122
0.407734
0.729886
0.613028
0.896799
0.866324
1.26496
2.52322
3.5612
13.8056
0.00381712
0.0259564
0.0627926
0.0729837
0.111713
0.0929089
0.1533
0.175615
0.237109
0.231838
0.407311
0.413886
0.897986
0.921757
1.59836
1.8899
1.98364
3.50382
0.00449996
0.0095637
0.0256753
0.027444
0.0418699
0.036482
0.0687785
0.09065
0.142304
0.152403
0.261815
0.281869
0.436882
0.57813
1.07617
1.74739
1.71284
1.34504
0.00673959
0.00966416
0.0159669
0.0158089
0.019538
0.0206317
0.0379304
0.0494462
0.0727941
0.0779135
0.162141
0.192063
0.506106
0.452643
1.27703
1.25865
1.63893
1.02509
0.00933837
0.0114721
0.013253
0.0129298
0.014015
0.0171641
0.0267959
0.0370163
0.0475541
0.0576853
0.0813391
0.0994032
0.233649
0.219369
0.706588
0.418634
0.99412
0.761491
0.0133774
0.0146008
0.0134705
0.0131081
0.0138713
0.0181241
0.0258319
0.0347214
0.0430369
0.0560058
0.0685942
0.0853619
0.112551
0.142223
0.225468
0.23436
0.45969
0.391374
0.0223476
0.0224473
0.0171458
0.0164875
0.0174236
0.022747
0.0292353
0.0387504
0.0483785
0.065287
0.0781114
0.101802
0.121268
0.153613
0.173039
0.195797
0.264817
0.249593
0.0399892
0.0387959
0.0273291
0.023833
0.0238998
0.0308572
0.039057
0.0561419
0.068256
0.0935717
0.113743
0.154746
0.186384
0.220587
0.237049
0.250642
0.267058
0.258903
0.0716048
0.0655973
0.043131
0.036229
0.0363995
0.0476036
0.0663712
0.101315
0.125289
0.16722
0.204963
0.244045
0.275646
0.303333
0.323798
0.336174
0.345393
0.343035
0.121417
0.107914
0.0721815
0.0636705
0.0654654
0.0872067
0.141175
0.20928
0.268865
0.324207
0.371581
0.412709
0.444592
0.466586
0.480618
0.487806
0.492473
0.489546
0.202091
0.182983
0.132492
0.118169
0.119738
0.143726
0.22074
0.303061
0.37508
0.437287
0.486996
0.524797
0.54956
0.564082
0.571369
0.574524
0.574857
0.572832
0.244715
0.216278
0.157408
0.139539
0.140523
0.161496
0.239202
0.328064
0.404841
0.470505
0.522396
0.559673
0.582669
0.595068
0.600611
0.602762
0.603083
0.602146
0.239179
0.212009
0.156649
0.139749
0.140589
0.158953
0.230745
0.319105
0.395952
0.461973
0.51476
0.552887
0.576638
0.588984
0.594487
0.596755
0.597314
0.596986
0.198081
0.174996
0.131993
0.119765
0.121046
0.136847
0.198378
0.277405
0.348276
0.410948
0.46364
0.503549
0.5304
0.545088
0.551859
0.554772
0.555962
0.556128
0.125219
0.10992
0.0862412
0.0801883
0.0814417
0.0906115
0.128811
0.184991
0.239964
0.292621
0.343636
0.387056
0.420795
0.442323
0.452997
0.457978
0.460468
0.461681
0.0737951
0.0649597
0.0505168
0.0469591
0.0480984
0.056353
0.0817247
0.113823
0.147869
0.180986
0.214169
0.244303
0.26925
0.287533
0.297939
0.303438
0.305929
0.307652
0.0401706
0.0343877
0.027744
0.0271441
0.0297569
0.0435028
0.0634402
0.0768828
0.0897543
0.10466
0.122642
0.142863
0.161616
0.177342
0.188326
0.194705
0.197919
0.200384
0.0211242
0.0189277
0.0159872
0.0154071
0.0165572
0.0228324
0.0322315
0.0404953
0.0486782
0.0576286
0.0685164
0.081125
0.0940894
0.106753
0.117189
0.12643
0.132535
0.138301
0.0114953
0.01076
0.00965388
0.0101645
0.0117492
0.0155894
0.0231705
0.031499
0.0398284
0.048029
0.0575116
0.0685785
0.0800756
0.0924782
0.102573
0.112859
0.11999
0.126237
0.00378682
0.00490256
0.006639
0.0100151
0.0152719
0.022146
0.0326125
0.0458457
0.0595119
0.0705623
0.0812745
0.0937175
0.106028
0.120418
0.131748
0.143956
0.153508
0.16153
0.000765718
0.00469682
0.0150292
0.0387506
0.0662427
0.0954099
0.130729
0.166715
0.199227
0.221173
0.238627
0.257622
0.275943
0.29546
0.311381
0.329174
0.341526
0.355476
0.00231883
0.0339723
0.117737
0.26112
0.381712
0.486981
0.588298
0.677505
0.746757
0.793718
0.827585
0.861673
0.891576
0.917693
0.940241
0.958182
0.972246
0.994703
0.0372719
0.385896
0.956172
1.43433
1.76452
1.98052
2.14344
2.26805
2.35856
2.43418
2.47997
2.52321
2.54839
2.55022
2.53772
2.51299
2.47717
2.43655
0.739776
3.57994
4.9915
5.51586
5.76626
5.92765
6.07809
6.24042
6.41457
6.55997
6.67435
6.7505
6.75349
6.69727
6.61635
6.45911
6.33092
6.11271
6.61084
11.2812
11.2541
10.7612
10.7863
11.4134
12.4352
13.501
14.5303
15.4416
16.2524
16.8884
17.3718
17.7166
17.9432
18.0062
17.9774
17.6389
0.132513
0.126607
0.106279
0.101489
0.104117
0.112772
0.131648
0.161741
0.201439
0.246882
0.300858
0.367255
0.441297
0.518773
0.606074
0.719198
0.849623
0.978839
1.10284
1.25763
1.46103
1.70449
2.03472
2.50081
3.16712
4.01761
4.89251
5.64668
6.29103
6.88858
7.45984
8.00461
8.51879
9.01897
9.51749
10.0132
10.4987
10.9771
11.462
11.9502
12.4389
12.9338
13.4121
13.8649
14.2923
14.698
15.0825
15.4448
15.7901
16.1244
16.4203
16.692
16.9732
17.1797
17.3346
17.4202
17.4383
17.4019
17.3469
17.2594
17.1531
17.0055
16.7711
16.4901
16.1334
15.7358
15.2809
14.8425
14.4081
13.9894
13.5844
13.2112
12.8196
12.397
11.9348
11.4469
10.9794
10.519
10.0723
9.63652
9.28577
9.01021
8.66146
8.13503
7.51551
6.91054
6.36614
5.80766
5.29551
4.90054
4.6314
4.44192
4.00282
3.40279
3.17648
3.10681
3.08653
3.02551
3.37958
4.86562
7.27409
8.69756
9.08477
8.72062
7.53083
6.44983
5.56744
4.9054
4.56849
4.40963
4.21448
3.62169
2.92399
2.36058
2.11965
2.22543
2.16827
2.03204
2.10431
2.41297
3.03904
3.76799
4.17898
4.68068
5.53603
6.11932
6.59615
7.33412
8.34298
9.14139
9.76137
10.323
10.6834
11.0498
11.5129
11.9926
12.4172
12.7883
12.9543
13.0498
13.0742
13.0093
12.7549
12.5198
12.2421
11.6789
11.0176
10.2806
9.3886
8.45787
7.18462
5.76027
4.95265
4.62294
4.70384
4.77992
4.63331
5.21779
8.33511
14.3797
17.427
17.5494
14.932
12.1423
11.1753
11.7338
11.6749
12.7608
13.5586
14.4545
16.1277
17.4432
18.7174
19.6454
19.8141
19.6486
18.9768
18.0947
17.1318
15.8447
0.42745
0.275502
0.15805
0.106455
0.0917352
0.0917057
0.0971845
0.114344
0.130541
0.143144
0.149726
0.159303
0.177149
0.21867
0.262126
0.300268
0.373321
0.517939
0.719325
1.01515
1.44201
1.86983
2.2302
2.54924
2.83747
3.04639
3.15866
3.12153
3.02135
2.92291
2.80613
2.69581
2.60838
2.55136
2.52621
2.52163
2.52596
2.54401
2.58825
2.63289
2.65975
2.69852
2.72697
2.74118
2.74704
2.76542
2.78918
2.85253
2.93792
3.01582
3.09443
3.19218
3.31847
3.36951
3.37534
3.34815
3.26372
3.24815
3.27737
3.38178
3.53722
3.63185
3.63933
3.62663
3.58203
3.53319
3.45554
3.40237
3.3847
3.40119
3.48384
3.65145
3.78193
3.80343
3.76843
3.67287
3.6383
3.63846
3.66391
3.73375
3.89568
3.95908
3.88555
3.54396
2.96477
2.45536
2.17631
1.91618
1.80006
1.78589
1.91275
2.10499
2.07124
1.92537
1.99356
2.50555
3.47869
4.03767
4.34042
5.01485
5.37978
5.15045
3.97766
3.08129
2.41103
2.10847
1.96767
1.9126
1.88705
1.86026
1.73204
1.42412
1.26905
1.24471
1.37581
1.55008
1.57494
1.53959
1.53398
1.58191
1.69795
1.84755
1.96675
2.07004
2.30331
2.62058
2.82172
2.98268
3.35927
3.84953
4.25367
4.63255
5.04244
5.27317
5.56969
5.93928
6.33298
6.78032
7.25675
7.65098
7.7098
7.65709
7.49083
7.2658
7.00397
6.63085
6.35606
6.16834
5.92864
5.64464
4.98447
4.00799
3.55653
3.46839
3.8107
4.74012
5.79595
7.14682
9.3927
10.5192
9.55151
6.61777
4.77958
4.28465
4.5695
4.46337
4.41752
5.40509
5.96451
6.33086
6.86926
8.10967
8.70514
9.75186
10.1976
10.3244
10.1895
9.65336
8.94248
8.35236
0.896108
0.438197
0.218455
0.126888
0.0974362
0.096265
0.105838
0.136454
0.15506
0.168653
0.177146
0.194778
0.240138
0.355325
0.461408
0.586975
0.773326
0.979151
1.17083
1.33169
1.48953
1.64837
1.67119
1.59147
1.40016
1.28004
1.12227
0.978946
0.848685
0.738138
0.64256
0.574413
0.526487
0.493792
0.473821
0.462114
0.454979
0.452539
0.453916
0.453292
0.449353
0.443512
0.436255
0.431036
0.430012
0.429201
0.432187
0.445488
0.461315
0.47796
0.498191
0.527188
0.547768
0.554757
0.553408
0.542898
0.529859
0.532125
0.551675
0.597572
0.661401
0.695343
0.706582
0.709624
0.707828
0.70817
0.707678
0.704817
0.706496
0.719003
0.756596
0.832857
0.943287
1.01694
1.02878
1.02284
1.03082
1.0753
1.16155
1.29411
1.54706
1.83001
1.91599
1.87064
1.63557
1.22975
0.967656
0.847347
0.805586
0.805332
0.878089
1.01627
1.1999
1.70534
2.53936
3.17103
3.52836
3.7307
3.75718
3.59188
2.69485
2.08508
1.42331
1.13671
1.01629
0.991375
1.01742
1.07857
1.08526
1.06805
0.990885
0.907328
0.899361
0.980581
1.13606
1.19033
1.15674
1.33488
1.3356
1.32351
1.39321
1.41429
1.40885
1.42212
1.46215
1.58985
1.67673
1.71585
1.80344
2.02764
2.21883
2.41101
2.70002
2.87075
2.96728
3.14114
3.3913
3.72717
4.12061
4.55186
4.9724
5.26004
5.34511
5.31892
5.15393
4.78192
4.46034
4.29748
4.21214
4.13017
3.81367
3.09803
2.82183
3.03795
4.03116
5.25719
6.0447
6.85637
7.27667
6.1472
4.18894
2.81127
2.27397
2.21968
2.45053
2.33193
2.21653
2.50634
2.65713
2.7192
2.79692
3.31612
3.64848
4.10655
4.56382
4.98082
5.14044
5.10896
4.94112
4.73294
1.55841
0.675061
0.32635
0.169162
0.114765
0.10917
0.126854
0.178746
0.210092
0.248615
0.287058
0.357267
0.489902
0.638765
0.715483
0.796185
0.891256
0.984167
1.07453
1.10878
1.03962
0.878721
0.795391
0.677624
0.567787
0.481632
0.397796
0.33574
0.288716
0.25452
0.22856
0.213863
0.20487
0.199498
0.196376
0.194937
0.193785
0.193094
0.192686
0.192398
0.19166
0.19045
0.189799
0.190257
0.192328
0.195878
0.202281
0.210907
0.218621
0.22385
0.229523
0.233631
0.23552
0.235588
0.233612
0.229425
0.229108
0.231936
0.241301
0.26293
0.290505
0.302365
0.303603
0.302894
0.301972
0.302845
0.305145
0.3039
0.302362
0.303137
0.309678
0.328248
0.362942
0.39876
0.410981
0.411435
0.419204
0.450325
0.495186
0.555571
0.675055
0.871948
1.06565
1.14757
1.1362
1.00463
0.797827
0.646388
0.612792
0.633811
0.720729
0.902926
1.35371
2.48753
2.92392
2.94447
2.97197
2.85852
2.65795
2.1025
1.41839
0.988481
0.761453
0.671048
0.643193
0.64285
0.68794
0.77018
0.791391
0.789819
0.764502
0.750073
0.786398
0.92992
1.0155
1.01767
0.98622
1.1868
1.24631
1.14662
1.16019
1.23524
1.23444
1.24235
1.28226
1.32247
1.34738
1.35513
1.37866
1.45704
1.55471
1.63865
1.79326
1.95204
2.0152
2.09682
2.22996
2.41957
2.64178
2.87345
3.2608
3.63556
3.8043
3.92661
3.94476
3.87131
3.57817
3.38721
3.33965
3.3562
3.2201
2.71182
2.63225
3.10078
4.23282
5.01636
5.43718
5.55238
4.93802
3.67763
2.32918
1.76966
1.58474
1.61152
1.80153
1.71872
1.68211
1.78246
1.77765
1.78667
1.79864
1.93992
2.28391
2.56804
2.70779
2.90805
3.10253
3.1637
3.23871
3.3042
2.41192
0.915165
0.361037
0.174697
0.12713
0.133585
0.182395
0.246835
0.284219
0.364028
0.453507
0.525769
0.604841
0.664229
0.705082
0.747384
0.784042
0.745417
0.668655
0.606991
0.526704
0.444229
0.370113
0.309808
0.26222
0.225956
0.198425
0.182157
0.172294
0.165985
0.162019
0.161071
0.161757
0.163005
0.164666
0.165212
0.165261
0.165105
0.164445
0.163303
0.163012
0.163019
0.163274
0.163848
0.165127
0.168205
0.174235
0.18324
0.193025
0.200873
0.204884
0.206552
0.206613
0.205559
0.200452
0.195591
0.194907
0.19556
0.198179
0.204352
0.219782
0.236404
0.243436
0.243334
0.240174
0.240101
0.241376
0.241236
0.237473
0.231891
0.231703
0.235445
0.245352
0.253656
0.257392
0.258565
0.266247
0.289647
0.312054
0.331051
0.376121
0.466456
0.575446
0.681742
0.713408
0.691926
0.633612
0.578123
0.576528
0.659649
0.816286
1.18237
2.09769
2.68224
2.70533
2.32762
2.08719
1.98453
1.74565
1.30944
0.891675
0.67641
0.586409
0.543392
0.523068
0.518792
0.531058
0.582884
0.668853
0.695907
0.691665
0.685933
0.721604
0.810037
0.884073
0.942153
0.90903
0.975889
1.1413
1.04135
0.91876
1.00677
1.0792
1.06568
1.09255
1.13788
1.19533
1.22705
1.24382
1.2536
1.30345
1.39117
1.46276
1.53281
1.60862
1.68841
1.74995
1.84839
2.00799
2.1491
2.33665
2.62894
2.89621
3.11157
3.18049
3.1646
3.02418
2.84556
2.82063
2.89027
2.85658
2.56837
2.57595
3.21402
4.0016
4.18583
4.24293
4.25457
3.77866
2.94332
1.89536
1.4356
1.30734
1.34196
1.53638
1.49961
1.53563
1.66916
1.56775
1.57374
1.5849
1.59089
1.76832
2.04119
2.12038
2.12961
2.18703
2.24078
2.35066
2.48053
3.36669
1.07938
0.352693
0.169952
0.143098
0.165357
0.231582
0.312186
0.375772
0.442125
0.497261
0.528979
0.575042
0.601792
0.584054
0.538416
0.498925
0.453787
0.397646
0.340671
0.292621
0.247215
0.209872
0.184737
0.168379
0.156314
0.150152
0.147552
0.146496
0.147285
0.150319
0.154257
0.15743
0.160428
0.163504
0.16622
0.168413
0.16888
0.168578
0.167649
0.166101
0.16364
0.163092
0.163562
0.165298
0.167454
0.170939
0.177518
0.18684
0.197329
0.206636
0.213218
0.216521
0.216867
0.214306
0.203769
0.195415
0.193181
0.193017
0.193997
0.197548
0.206896
0.222576
0.230441
0.230644
0.230164
0.231013
0.230944
0.227318
0.217121
0.209495
0.208026
0.210792
0.215283
0.214877
0.214965
0.220184
0.233947
0.246553
0.256352
0.280027
0.317288
0.361801
0.421462
0.464859
0.487209
0.498881
0.506727
0.587473
0.805212
1.20373
1.83119
2.37298
2.44153
2.09129
1.61187
1.46593
1.3639
1.16372
0.917132
0.707996
0.6025
0.555857
0.522597
0.485436
0.472116
0.471351
0.486956
0.535971
0.617291
0.644033
0.640744
0.635918
0.642304
0.680775
0.788324
0.857483
0.875676
0.926271
0.913544
0.773807
0.824431
0.921554
0.906997
0.876402
0.924247
1.02749
1.09814
1.10573
1.10913
1.15515
1.28781
1.37579
1.414
1.43034
1.46892
1.49971
1.5436
1.66237
1.81092
1.93892
2.11019
2.27918
2.4866
2.67275
2.72174
2.68606
2.53994
2.51275
2.58403
2.5943
2.45663
2.50111
3.18429
3.7246
3.77687
3.7677
3.6124
3.2933
2.74484
1.87062
1.4667
1.18022
1.11467
1.23694
1.39525
1.52
1.67799
1.50385
1.50969
1.53673
1.48335
1.52568
1.75169
1.88071
1.86859
1.81919
1.8101
1.84883
2.03443
4.41534
1.24918
0.35434
0.173185
0.160178
0.19135
0.263641
0.344188
0.40271
0.446968
0.482201
0.493226
0.462004
0.424574
0.392068
0.362642
0.322727
0.291914
0.255211
0.215175
0.190574
0.169051
0.153012
0.143369
0.136467
0.132884
0.131899
0.131573
0.132062
0.134227
0.138163
0.142699
0.148101
0.154265
0.160705
0.166132
0.171341
0.176317
0.179558
0.181224
0.181368
0.180146
0.177025
0.171817
0.168456
0.16855
0.171244
0.174881
0.178397
0.185511
0.19392
0.204906
0.216932
0.223673
0.224892
0.222824
0.211871
0.197215
0.192794
0.193091
0.194398
0.197233
0.205439
0.220865
0.229004
0.23022
0.231808
0.23196
0.227106
0.212566
0.200389
0.193918
0.195392
0.199765
0.199142
0.198141
0.200099
0.207937
0.222057
0.234342
0.251552
0.270891
0.28684
0.310329
0.334856
0.361234
0.403066
0.469753
0.651854
1.09551
1.7194
2.10536
2.22786
2.01317
1.37205
1.16547
1.07645
0.996353
0.884558
0.762429
0.647717
0.580518
0.548205
0.508081
0.479891
0.45797
0.452246
0.450207
0.454492
0.485702
0.535554
0.566564
0.57493
0.563475
0.574792
0.648178
0.739666
0.815672
0.804301
0.799997
0.694179
0.697957
0.781468
0.770568
0.736258
0.77147
0.918767
0.994443
0.99777
1.01666
1.10998
1.1966
1.27703
1.34146
1.38037
1.38161
1.3753
1.38034
1.41768
1.5528
1.71958
1.84134
1.94364
2.05407
2.26537
2.39278
2.40822
2.34283
2.31787
2.38802
2.41467
2.3432
2.41823
3.10384
3.6313
3.66133
3.50248
3.20872
3.00338
2.55969
1.87827
1.47864
1.11299
1.0267
1.01968
1.1609
1.50927
1.64922
1.459
1.41805
1.44392
1.43751
1.3934
1.37232
1.63229
1.73461
1.69624
1.57924
1.55979
1.69703
5.62389
1.50766
0.38417
0.189243
0.178749
0.210553
0.273141
0.34603
0.392562
0.416542
0.413641
0.399375
0.362924
0.323425
0.290536
0.267599
0.243569
0.22299
0.198337
0.169714
0.155041
0.144783
0.135304
0.128896
0.125661
0.124236
0.123675
0.123794
0.124945
0.127631
0.130887
0.134816
0.139536
0.144819
0.15135
0.159158
0.167565
0.175683
0.182329
0.188197
0.192196
0.1935
0.193509
0.191965
0.186896
0.180954
0.176115
0.174778
0.17494
0.175237
0.175702
0.177593
0.183174
0.196364
0.211743
0.217778
0.217205
0.209292
0.197395
0.193934
0.194293
0.19654
0.201131
0.206863
0.220148
0.229771
0.233768
0.234096
0.229021
0.20877
0.194974
0.189768
0.190299
0.191771
0.190278
0.187333
0.189979
0.199479
0.2186
0.230287
0.236476
0.245765
0.250591
0.257727
0.272332
0.301948
0.363369
0.480186
0.77561
1.4693
1.90173
2.0235
1.9709
1.37195
1.01313
0.909746
0.863739
0.828932
0.776177
0.704004
0.627836
0.570976
0.541487
0.496513
0.475427
0.442359
0.429148
0.424393
0.424622
0.427936
0.433105
0.479432
0.528243
0.531252
0.526437
0.594438
0.682798
0.703551
0.711697
0.710614
0.63923
0.61533
0.671231
0.683712
0.680384
0.715368
0.843042
0.87963
0.918854
0.996851
1.06643
1.09542
1.1221
1.21533
1.25956
1.25954
1.23607
1.22861
1.24122
1.3085
1.51062
1.6683
1.76141
1.82059
1.94481
2.09481
2.1843
2.1621
2.14814
2.22188
2.27172
2.25627
2.34925
3.06149
3.61993
3.58486
3.21282
2.86377
2.68688
2.27725
1.81878
1.4328
0.985009
0.902236
0.903543
0.989835
1.31082
1.50923
1.46775
1.32372
1.20599
1.3102
1.22624
1.18649
1.26884
1.59624
1.62864
1.51086
1.40216
1.45615
6.96751
1.78176
0.439551
0.200765
0.182857
0.210326
0.267037
0.335073
0.358577
0.360381
0.340909
0.315388
0.280017
0.243191
0.220889
0.209916
0.199415
0.186997
0.169913
0.150064
0.139305
0.132652
0.124473
0.119932
0.118371
0.118061
0.118497
0.120018
0.123251
0.126522
0.12977
0.133661
0.13817
0.14275
0.148209
0.154654
0.161565
0.169716
0.178356
0.187449
0.197481
0.202616
0.203142
0.202594
0.20082
0.198255
0.193338
0.184332
0.178081
0.172476
0.168742
0.168473
0.169706
0.17324
0.180897
0.195534
0.210491
0.213683
0.21237
0.207024
0.204047
0.203981
0.204481
0.205971
0.210635
0.222379
0.230749
0.231339
0.225611
0.209832
0.199591
0.189871
0.186283
0.182265
0.179103
0.179243
0.186443
0.202216
0.217843
0.22406
0.2271
0.228758
0.233887
0.248104
0.26522
0.301387
0.368745
0.513328
0.927
1.65066
1.88688
1.88316
1.53046
0.966759
0.804349
0.756706
0.734896
0.69834
0.664771
0.620326
0.583535
0.554166
0.524012
0.484711
0.461177
0.422314
0.414496
0.416654
0.417131
0.408191
0.389006
0.388037
0.452048
0.498589
0.478883
0.534742
0.655168
0.653302
0.66962
0.655245
0.5629
0.548469
0.598356
0.630659
0.648656
0.694599
0.732037
0.772045
0.883382
0.978669
0.982734
0.986536
1.01719
1.08856
1.1471
1.15802
1.14079
1.13119
1.1405
1.18364
1.35088
1.51536
1.61626
1.67714
1.75828
1.87133
2.008
2.01915
2.00484
2.06788
2.12925
2.15115
2.29791
3.06942
3.62994
3.47943
2.75379
2.43656
2.22275
1.85815
1.60904
1.20592
0.91509
0.842196
0.833327
0.8803
1.04538
1.33671
1.43367
1.30916
1.08453
1.15225
1.10929
1.0554
1.08331
1.34254
1.56203
1.50961
1.34647
1.34929
8.54481
2.20811
0.554806
0.223918
0.183718
0.201722
0.24275
0.294457
0.331818
0.339318
0.321604
0.280142
0.244229
0.220298
0.201659
0.193298
0.186223
0.176512
0.160997
0.142285
0.130923
0.125017
0.119118
0.116575
0.115917
0.115792
0.116659
0.119048
0.12316
0.127914
0.131785
0.1357
0.139824
0.143512
0.148403
0.154569
0.161411
0.167914
0.17523
0.183387
0.191766
0.201222
0.211001
0.214995
0.214714
0.211994
0.203899
0.192402
0.184155
0.176362
0.17045
0.168117
0.168095
0.16926
0.174042
0.181038
0.19769
0.212769
0.21745
0.217312
0.215992
0.211018
0.20685
0.206448
0.208057
0.215452
0.223679
0.225391
0.219578
0.202065
0.191909
0.180324
0.175538
0.175322
0.175756
0.176702
0.181409
0.194943
0.209588
0.213085
0.213082
0.216802
0.231545
0.25338
0.267744
0.303026
0.376839
0.568694
1.09611
1.68258
1.80538
1.6722
1.15027
0.791492
0.690526
0.649428
0.609986
0.574287
0.552278
0.529457
0.50291
0.470561
0.438127
0.413185
0.38328
0.36655
0.375242
0.404671
0.412719
0.405956
0.372642
0.34942
0.364867
0.418251
0.436153
0.488147
0.58809
0.626225
0.649669
0.623195
0.523117
0.514245
0.561559
0.5972
0.604434
0.624578
0.674918
0.753797
0.859386
0.885861
0.88412
0.916367
0.995004
1.03775
1.08829
1.10377
1.09983
1.0943
1.09838
1.11974
1.20899
1.38735
1.48326
1.57099
1.65296
1.72709
1.85371
1.91053
1.89169
1.93296
2.01133
2.05941
2.26655
3.10963
3.62034
3.23509
2.34804
2.07272
1.80051
1.56732
1.321
1.0778
0.847136
0.801435
0.796673
0.82732
0.923946
1.1577
1.31356
1.23113
1.02085
1.03198
0.989694
0.967561
0.9693
1.08831
1.45256
1.45039
1.3296
1.28352
10.3009
2.76459
0.794718
0.28404
0.190456
0.19248
0.211412
0.238495
0.271727
0.293125
0.292738
0.268585
0.227475
0.207241
0.193702
0.188292
0.185024
0.178348
0.164357
0.145488
0.132251
0.12604
0.121069
0.118253
0.11738
0.116246
0.115871
0.117075
0.121552
0.127544
0.132209
0.13577
0.13969
0.143228
0.14746
0.152808
0.159845
0.169269
0.17997
0.186336
0.192375
0.197076
0.200473
0.204732
0.212427
0.216427
0.215589
0.20952
0.19642
0.184339
0.176202
0.171092
0.170262
0.170769
0.172796
0.179401
0.185496
0.202923
0.214484
0.216672
0.21598
0.211956
0.203723
0.200444
0.201108
0.205387
0.207782
0.220021
0.216119
0.194949
0.18192
0.171019
0.168165
0.171664
0.171428
0.168085
0.171375
0.182615
0.194938
0.199208
0.203145
0.212837
0.238198
0.267841
0.278336
0.306725
0.395161
0.658329
1.21724
1.6244
1.67931
1.44965
0.925528
0.698783
0.623905
0.584563
0.526193
0.503854
0.490972
0.473095
0.43814
0.399336
0.383579
0.373066
0.347213
0.331144
0.327223
0.336439
0.373218
0.394788
0.375465
0.332438
0.325084
0.351841
0.399722
0.458743
0.555713
0.589976
0.639882
0.602979
0.505821
0.499742
0.547084
0.591298
0.575702
0.593909
0.659614
0.796448
0.803339
0.795117
0.799603
0.885821
0.973849
0.991504
0.997483
1.02298
1.03615
1.02245
1.01031
1.02258
1.08437
1.2713
1.36702
1.46559
1.55107
1.6098
1.7125
1.8108
1.79462
1.80686
1.9008
1.97323
2.24562
3.12777
3.55724
2.88361
2.11498
1.87576
1.66599
1.42079
1.23649
1.02106
0.830627
0.781701
0.778996
0.797633
0.864284
1.02036
1.16318
1.07157
0.941285
0.961081
0.930349
0.935206
0.931322
0.99062
1.28755
1.35287
1.32223
1.26699
12.2063
3.37044
1.12647
0.438546
0.22669
0.196445
0.204453
0.219161
0.238207
0.253754
0.2526
0.237521
0.202954
0.183326
0.181119
0.18295
0.184105
0.181546
0.172977
0.155018
0.136546
0.128662
0.124628
0.12088
0.118319
0.116154
0.114556
0.114637
0.117047
0.123539
0.13024
0.134186
0.137207
0.140009
0.143473
0.148507
0.156252
0.167327
0.182379
0.20204
0.214094
0.217469
0.217093
0.212286
0.202365
0.200635
0.204653
0.206221
0.203238
0.189894
0.178863
0.174054
0.171625
0.171963
0.173116
0.177165
0.181176
0.18686
0.198964
0.2037
0.203301
0.199367
0.192127
0.19373
0.196617
0.205167
0.200698
0.195214
0.190725
0.175429
0.174112
0.169109
0.159576
0.159458
0.161554
0.163428
0.169884
0.18123
0.186679
0.188243
0.194249
0.210555
0.240459
0.271852
0.288909
0.319775
0.426226
0.741056
1.28536
1.53116
1.5419
1.26515
0.788426
0.629467
0.570019
0.525924
0.470575
0.446366
0.425167
0.402859
0.374651
0.356577
0.351978
0.345899
0.317529
0.306747
0.294744
0.291571
0.302862
0.334034
0.366227
0.3262
0.309174
0.318454
0.361132
0.404186
0.531235
0.572299
0.631974
0.592835
0.500883
0.497585
0.547849
0.578882
0.563903
0.584333
0.675568
0.819124
0.776526
0.751992
0.771051
0.855731
0.894596
0.885688
0.878284
0.904781
0.919479
0.899296
0.8878
0.901486
0.956361
1.11359
1.25025
1.36078
1.44419
1.49864
1.57306
1.69658
1.68793
1.68986
1.79849
1.88715
2.22166
3.11622
3.37846
2.56472
1.97237
1.75234
1.60543
1.38405
1.25235
1.02388
0.850823
0.777987
0.765973
0.78038
0.810883
0.920949
1.05748
0.988519
0.910905
0.914761
0.905934
0.925947
0.925323
0.962084
1.18471
1.30801
1.30689
1.27174
14.2789
4.00876
1.35052
0.676901
0.34178
0.245074
0.22499
0.226392
0.233721
0.240019
0.240517
0.231792
0.202459
0.175999
0.165129
0.168304
0.177005
0.177635
0.172446
0.160022
0.144081
0.132581
0.127076
0.123056
0.119147
0.116217
0.114497
0.114504
0.115903
0.120834
0.126209
0.128968
0.131837
0.136783
0.142854
0.149379
0.156266
0.16542
0.175782
0.190253
0.210813
0.232867
0.242311
0.240065
0.220866
0.195235
0.184204
0.183926
0.189054
0.189772
0.183388
0.177489
0.171033
0.169305
0.169904
0.173216
0.176917
0.178024
0.178024
0.17707
0.174075
0.172114
0.175316
0.192039
0.197525
0.200829
0.198401
0.182913
0.176948
0.165363
0.158394
0.156745
0.150727
0.1515
0.159016
0.163082
0.169028
0.175351
0.177855
0.180137
0.188452
0.209984
0.241909
0.271934
0.291984
0.330402
0.446082
0.794346
1.2625
1.41023
1.39489
1.12223
0.704205
0.570833
0.51557
0.474816
0.434758
0.416372
0.3911
0.364706
0.337046
0.324807
0.314148
0.293871
0.279182
0.276695
0.275228
0.275551
0.277797
0.283029
0.307632
0.321634
0.298846
0.29506
0.322535
0.361427
0.465539
0.549311
0.61312
0.587799
0.500621
0.501612
0.553873
0.583565
0.560748
0.571479
0.686176
0.759899
0.730636
0.732009
0.791539
0.8303
0.802773
0.785107
0.799567
0.810138
0.803908
0.783777
0.78554
0.810387
0.858322
0.938768
1.11846
1.24691
1.32902
1.40896
1.46547
1.58719
1.59382
1.59567
1.69789
1.80526
2.18205
3.03074
3.13919
2.29637
1.84104
1.64423
1.49698
1.33853
1.24276
1.07722
0.882492
0.78008
0.760433
0.772903
0.799384
0.850186
0.977921
0.942161
0.895061
0.883757
0.901974
0.93401
0.930816
0.959576
1.14158
1.30324
1.33566
1.31062
16.5524
4.6006
1.44176
0.88212
0.635236
0.463889
0.366781
0.309089
0.27689
0.261619
0.248793
0.233382
0.204226
0.176596
0.160481
0.1542
0.158263
0.168215
0.167668
0.16287
0.155188
0.14115
0.131246
0.126059
0.121227
0.117723
0.115906
0.115591
0.11637
0.118513
0.121258
0.123383
0.125599
0.130312
0.138626
0.14564
0.15366
0.161583
0.167244
0.171887
0.179786
0.19579
0.222345
0.231935
0.230128
0.207445
0.176407
0.162041
0.160845
0.170695
0.175261
0.173409
0.170139
0.169068
0.170275
0.172231
0.173904
0.174085
0.1717
0.163472
0.159855
0.161183
0.170583
0.19806
0.205062
0.200932
0.18938
0.175253
0.172657
0.165337
0.15264
0.151918
0.14769
0.147943
0.154909
0.159819
0.167048
0.1737
0.175257
0.177455
0.186121
0.209448
0.25052
0.271728
0.291715
0.334566
0.454872
0.816827
1.22591
1.31525
1.28041
0.992857
0.644841
0.524555
0.470874
0.43114
0.406151
0.38879
0.371287
0.349558
0.313843
0.302035
0.293478
0.27432
0.266538
0.261157
0.251861
0.254807
0.259931
0.263105
0.275412
0.307424
0.293251
0.283748
0.301865
0.338505
0.431809
0.533794
0.602628
0.576866
0.507696
0.517205
0.585223
0.617186
0.577327
0.57695
0.627617
0.686303
0.683336
0.703408
0.82971
0.825349
0.764917
0.760253
0.79967
0.789321
0.749497
0.744216
0.751071
0.763996
0.788582
0.832745
0.977302
1.13723
1.20265
1.31514
1.39735
1.49722
1.51995
1.52225
1.62774
1.73678
2.08529
2.93021
2.9378
2.08508
1.71242
1.50474
1.32234
1.2326
1.19178
1.09802
0.960781
0.806916
0.759425
0.767102
0.797348
0.822964
0.931044
0.921394
0.882842
0.873272
0.912531
0.953211
0.968695
0.987604
1.1383
1.32936
1.48367
1.44347
19.1175
4.92091
1.62485
1.36041
1.46885
1.36435
1.12023
0.785899
0.524256
0.381404
0.304011
0.260357
0.22145
0.18544
0.163478
0.153211
0.147754
0.14948
0.155451
0.159686
0.157526
0.153443
0.145317
0.136969
0.129894
0.124754
0.121834
0.119684
0.118596
0.118961
0.11966
0.120901
0.12235
0.124808
0.130366
0.13726
0.145514
0.153249
0.157152
0.158699
0.160906
0.165711
0.185238
0.209515
0.213653
0.203465
0.171104
0.154442
0.151087
0.157959
0.167174
0.168214
0.168539
0.16938
0.171553
0.17246
0.172334
0.170798
0.163497
0.156886
0.15547
0.158645
0.176196
0.198699
0.203642
0.197079
0.186459
0.17502
0.173176
0.170314
0.153649
0.152395
0.149269
0.146251
0.151364
0.159037
0.16667
0.172822
0.174441
0.176273
0.183357
0.208635
0.26427
0.280991
0.293047
0.333932
0.454725
0.809573
1.17745
1.24031
1.16504
0.889555
0.607386
0.498541
0.432717
0.396915
0.373879
0.352538
0.340565
0.322727
0.295739
0.289166
0.285119
0.267286
0.262624
0.253555
0.228725
0.227931
0.239097
0.254006
0.259864
0.282864
0.284922
0.274932
0.285849
0.310357
0.398839
0.51216
0.592421
0.566724
0.529599
0.545636
0.616352
0.653889
0.618255
0.588551
0.600671
0.65172
0.656953
0.693108
0.810393
0.799685
0.751619
0.773131
0.846216
0.799121
0.744478
0.757535
0.756345
0.742772
0.744595
0.764732
0.869826
1.01757
1.0826
1.19309
1.32996
1.41511
1.46518
1.4625
1.56759
1.66705
1.95453
2.78473
2.77444
1.98101
1.60058
1.37785
1.17311
1.11077
1.10576
1.08759
1.00713
0.841651
0.765655
0.769004
0.800792
0.815256
0.904725
0.915833
0.880442
0.873201
0.964694
1.01497
1.0478
1.05049
1.19045
1.40813
1.554
1.54831
22.4528
5.37844
2.233
2.86135
2.85802
2.60721
2.30818
1.99214
1.61878
1.10808
0.629324
0.385293
0.276713
0.212424
0.173352
0.154604
0.145274
0.141608
0.142868
0.147635
0.153669
0.153909
0.15245
0.149182
0.145463
0.14044
0.136006
0.132542
0.127624
0.123332
0.121827
0.121907
0.122738
0.124723
0.129456
0.137397
0.143555
0.148274
0.150117
0.15105
0.152693
0.156778
0.178807
0.200008
0.201822
0.185531
0.156794
0.14552
0.144998
0.154317
0.16515
0.168394
0.170988
0.174428
0.176971
0.176371
0.172552
0.166
0.155038
0.15207
0.153246
0.158288
0.178774
0.18912
0.190684
0.184367
0.178926
0.179167
0.178109
0.180189
0.165121
0.151873
0.152478
0.147514
0.150871
0.161428
0.167062
0.171857
0.174946
0.176011
0.182449
0.206496
0.267864
0.312403
0.311637
0.334145
0.444516
0.780289
1.14097
1.19407
1.09446
0.803652
0.58742
0.4896
0.409741
0.373581
0.350339
0.326412
0.309453
0.295484
0.279733
0.275389
0.272379
0.258732
0.256072
0.24717
0.222269
0.215079
0.221467
0.233749
0.242668
0.259428
0.27507
0.269189
0.272064
0.291742
0.353362
0.500027
0.574403
0.560941
0.559936
0.555235
0.624328
0.662105
0.646682
0.599357
0.601302
0.649813
0.66396
0.698177
0.778791
0.776042
0.732142
0.803021
0.841925
0.783313
0.757853
0.787507
0.769405
0.724014
0.715496
0.728753
0.816556
0.920982
0.975843
1.06144
1.23795
1.3227
1.41708
1.41518
1.51856
1.62051
1.84137
2.60463