/*--------------------------------*- C++ -*----------------------------------*\
| =========                 |                                                 |
| \\      /  F ield         | OpenFOAM: The Open Source CFD Toolbox           |
|  \\    /   O peration     | Version:  dev                                   |
|   \\  /    A nd           | Web:      http://www.openfoam.org               |
|    \\/     M anipulation  |                                                 |
\*---------------------------------------------------------------------------*/
FoamFile
{
    version     2.0;
    format      ascii;
    class       volScalarField;
    object      k_0;
    location    "9.133";
}
// * * * * * * * * * * * * * * * * * * * * * * * * * * * * * * * * * * * * * //

dimensions      [0 2 -2 0 0 0 0];

internalField   nonuniform List<scalar> 
12225
(
8.21917
12.3188
8.91223
11.6494
10.8982
14.4569
15.7759
18.6433
21.3919
23.609
28.0513
29.8234
36.9906
36.9401
55.9512
64.723
44.0331
85.3188
1.40039
6.96494
5.72488
8.31713
6.52522
9.90211
8.62793
11.7586
11.2984
13.5098
14.8293
15.3314
19.819
20.439
28.338
28.5112
54.9864
96.6785
0.115351
1.97315
2.13967
3.56109
3.28883
4.09453
4.06962
4.23742
4.97958
4.6349
5.91431
4.83304
7.38658
6.78376
11.6383
11.1388
51.5695
111.84
0.0248144
0.542915
0.71296
1.0931
1.49554
1.45344
1.95753
1.62445
2.16612
1.86067
2.41349
1.91874
2.39973
2.2712
4.29071
4.99428
19.7702
67.1136
0.0019024
0.0901738
0.213556
0.283172
0.515815
0.511103
0.734973
0.619289
0.806689
0.759729
0.933939
0.857319
0.898316
1.05533
1.26779
1.95997
5.05128
19.2493
0.00466866
0.103481
0.117432
0.166152
0.252505
0.232026
0.336264
0.300931
0.451829
0.390876
0.679937
0.582009
0.867695
0.833144
1.13023
2.09953
2.09521
4.90801
0.00304614
0.0234929
0.0594098
0.069078
0.104065
0.0879582
0.142154
0.162459
0.223868
0.212503
0.370271
0.363464
0.808387
0.840086
1.49346
1.70366
1.6152
1.60249
0.00417495
0.00917042
0.0236588
0.0260467
0.0377916
0.0341588
0.0623765
0.0826836
0.129153
0.131669
0.239626
0.246093
0.36569
0.467105
0.85103
1.61551
1.60759
0.92406
0.00632852
0.00946953
0.0150861
0.0152849
0.0179997
0.0193984
0.0348104
0.046664
0.066077
0.0685634
0.139205
0.150446
0.445378
0.345302
1.14789
1.03032
1.46751
0.926448
0.0088868
0.0112956
0.0128525
0.0124559
0.0135368
0.016413
0.0255953
0.0358757
0.0452203
0.0555121
0.0732588
0.0871328
0.180194
0.16224
0.541529
0.299845
0.793085
0.672379
0.0129983
0.0144812
0.0130924
0.0125204
0.013537
0.0178134
0.0253936
0.0340448
0.0420655
0.0551137
0.066507
0.0831672
0.10299
0.132026
0.181561
0.195637
0.375808
0.339772
0.0222132
0.0224103
0.017036
0.016175
0.0174716
0.0226734
0.0293843
0.0387228
0.0486635
0.0657914
0.0790153
0.103708
0.123835
0.155303
0.169976
0.188195
0.243266
0.238901
0.0400861
0.0388305
0.0271954
0.0236165
0.0240499
0.0311413
0.0397917
0.0577615
0.070192
0.0963807
0.117717
0.15954
0.193327
0.227765
0.248611
0.260362
0.270929
0.266112
0.0718593
0.0655164
0.0429223
0.0363288
0.0370376
0.0487549
0.0689969
0.105483
0.131652
0.174533
0.214048
0.253573
0.286422
0.314632
0.335925
0.348861
0.359636
0.359225
0.12144
0.107794
0.0722856
0.0644815
0.0669241
0.0896983
0.145609
0.214824
0.276254
0.332766
0.381438
0.423557
0.456448
0.479035
0.493502
0.501171
0.506129
0.504211
0.201028
0.181831
0.13151
0.118405
0.12063
0.145765
0.224062
0.306492
0.379177
0.442055
0.492498
0.530901
0.556124
0.570955
0.578458
0.581921
0.582415
0.581032
0.23983
0.212589
0.154839
0.138535
0.140081
0.162133
0.240881
0.329211
0.405993
0.471882
0.524124
0.56175
0.585084
0.597782
0.603594
0.605975
0.606481
0.605946
0.234006
0.20725
0.153662
0.138416
0.139775
0.159048
0.231728
0.319242
0.395712
0.461613
0.514478
0.552779
0.576768
0.589313
0.595023
0.597506
0.598227
0.598165
0.191388
0.168975
0.127969
0.117152
0.118857
0.135505
0.197781
0.275242
0.345097
0.407139
0.459512
0.499401
0.526403
0.541275
0.548149
0.551162
0.552432
0.552739
0.119857
0.105526
0.0833032
0.0780087
0.0794655
0.0888902
0.127227
0.181749
0.235408
0.286941
0.337134
0.380018
0.413422
0.434814
0.445387
0.450346
0.452762
0.454043
0.0705126
0.0620309
0.0485109
0.045449
0.0467806
0.0555613
0.0809143
0.11181
0.144681
0.176646
0.20877
0.238011
0.262241
0.28004
0.290185
0.295519
0.297885
0.299616
0.0382481
0.0326266
0.0266399
0.0262673
0.0291197
0.0433007
0.0625279
0.0752042
0.0873863
0.101659
0.119039
0.13868
0.156909
0.17227
0.183032
0.189305
0.192493
0.195005
0.0201482
0.0180694
0.0153857
0.0148998
0.0161372
0.02245
0.0314257
0.0394501
0.0474375
0.0561959
0.066861
0.0791952
0.0918755
0.104322
0.114601
0.123809
0.129904
0.135711
0.0108799
0.0103049
0.0093273
0.0099616
0.0115802
0.0154759
0.0229914
0.0312279
0.0394634
0.0475947
0.0570224
0.0680152
0.0794359
0.0917437
0.101742
0.111966
0.119028
0.125249
0.00359001
0.00479245
0.00659003
0.0100029
0.0154233
0.022461
0.0330855
0.046534
0.0603865
0.0715269
0.0823482
0.094919
0.10735
0.121908
0.133344
0.14574
0.155469
0.163661
0.000767647
0.00488528
0.0158186
0.0402927
0.0682178
0.0981469
0.134456
0.171278
0.204414
0.226862
0.244993
0.264739
0.283799
0.303915
0.320411
0.338831
0.351543
0.366067
0.0026241
0.0365468
0.123023
0.268055
0.389578
0.496524
0.599725
0.690475
0.760921
0.809031
0.844527
0.880382
0.911764
0.939233
0.963011
0.98181
0.997005
1.02039
0.0425605
0.398483
0.964952
1.44459
1.77538
1.99259
2.15685
2.2828
2.37464
2.45298
2.50241
2.54893
2.57754
2.58256
2.57206
2.55007
2.51582
2.47672
0.791073
3.57406
4.96889
5.48869
5.74289
5.90977
6.06496
6.23317
6.41457
6.57127
6.69752
6.78865
6.8035
6.7587
6.68901
6.53929
6.4211
6.22674
6.69148
11.5997
11.8045
11.4304
11.5162
12.197
13.2903
14.4236
15.5142
16.4782
17.3452
18.0292
18.5571
18.9419
19.2136
19.3128
19.3195
19.0771
0.134942
0.127795
0.106629
0.101684
0.104133
0.112806
0.131668
0.161465
0.200251
0.244359
0.296845
0.361593
0.433712
0.509572
0.5956
0.706776
0.835295
0.963625
1.09187
1.25709
1.47095
1.72729
2.07798
2.57508
3.28749
4.19188
5.10741
5.88313
6.54772
7.17098
7.76858
8.33663
8.87189
9.39357
9.91358
10.4291
10.9312
11.4246
11.9276
12.4345
12.9355
13.4383
13.922
14.3761
14.801
15.2024
15.5792
15.9301
16.2623
16.5796
16.8516
17.0974
17.3534
17.5255
17.6458
17.6918
17.6639
17.5751
17.4701
17.3324
17.1817
16.9905
16.7149
16.3946
16
15.5722
15.0957
14.6353
14.1886
13.7623
13.3569
12.9911
12.6128
12.2102
11.7709
11.3095
10.8686
10.4354
10.0157
9.6141
9.29918
9.05727
8.73111
8.22142
7.61734
7.01859
6.4744
5.91106
5.3891
4.98257
4.70341
4.50843
4.06283
3.45467
3.2234
3.14105
3.10061
3.02443
3.35244
4.75514
7.06193
8.46133
8.81135
8.44963
7.28049
6.18502
5.29212
4.612
4.24976
4.07823
3.9017
3.37361
2.73389
2.20477
1.96764
2.07825
2.06869
1.99691
2.09829
2.43199
3.09503
3.84892
4.26596
4.77789
5.63661
6.20856
6.68263
7.42212
8.40638
9.16064
9.73771
10.2489
10.5713
10.9098
11.3453
11.7941
12.1803
12.5079
12.6508
12.7343
12.7418
12.647
12.3732
12.1101
11.7832
11.1733
10.4631
9.71114
8.8288
7.90744
6.69526
5.38865
4.69805
4.44417
4.58071
4.7069
4.62873
5.28304
8.33122
14.1008
16.8995
16.76
14.1043
11.3726
10.39
10.8516
11.2538
12.487
13.3649
14.4045
16.4065
17.9617
19.469
20.5715
20.7917
20.6261
19.9036
18.9522
17.9197
16.5267
0.438983
0.277174
0.158051
0.106469
0.0923004
0.0925291
0.0987287
0.116746
0.132924
0.145372
0.151946
0.162139
0.181671
0.2258
0.269493
0.310277
0.391962
0.548202
0.764515
1.08178
1.52339
1.94895
2.30577
2.6273
2.90186
3.08262
3.17467
3.11411
3.00624
2.90364
2.78369
2.67426
2.59063
2.53887
2.51899
2.51846
2.52754
2.55139
2.60063
2.65062
2.68468
2.72788
2.75925
2.77662
2.78595
2.8073
2.8355
2.907
2.99661
3.07716
3.16046
3.26457
3.39095
3.43452
3.43864
3.4026
3.32264
3.31664
3.36265
3.48032
3.63682
3.72015
3.72089
3.70439
3.65522
3.60474
3.52644
3.47866
3.4667
3.49294
3.5921
3.76096
3.87706
3.88511
3.83636
3.74277
3.7122
3.71079
3.73729
3.80948
3.96595
4.01346
3.92171
3.5545
2.97387
2.47325
2.20385
1.94353
1.83014
1.81686
1.94785
2.13494
2.09591
1.93212
1.98831
2.49821
3.46202
4.00756
4.29407
4.94902
5.3826
5.23185
4.12151
3.21766
2.50792
2.16905
2.00659
1.93912
1.91123
1.89023
1.77855
1.47296
1.28984
1.25001
1.36448
1.5526
1.57488
1.53742
1.53538
1.58398
1.70171
1.86439
1.99297
2.102
2.3464
2.66986
2.87349
3.04498
3.44357
3.94272
4.35059
4.73402
5.14107
5.37141
5.6783
6.05491
6.45459
6.91095
7.39288
7.77367
7.82299
7.7679
7.5963
7.37104
7.0982
6.72269
6.44701
6.25113
6.00222
5.68914
4.97499
3.99382
3.56945
3.49451
3.87255
4.80155
5.80521
7.09872
9.29171
10.458
9.64902
6.88394
4.93983
4.3194
4.63398
4.5535
4.4828
5.46073
6.07617
6.46623
7.02542
8.29595
8.91125
9.96454
10.3997
10.5135
10.3748
9.82279
9.09152
8.4944
0.926264
0.439712
0.218309
0.126597
0.0978946
0.0972388
0.108321
0.140226
0.158451
0.17203
0.181019
0.200925
0.253332
0.376238
0.484223
0.616602
0.810245
1.01738
1.20848
1.36807
1.52293
1.66367
1.66626
1.56125
1.36657
1.25175
1.08916
0.946541
0.818808
0.711558
0.620065
0.556526
0.512171
0.482519
0.465199
0.455509
0.449896
0.448834
0.451466
0.451286
0.447657
0.442874
0.436738
0.432931
0.432545
0.432073
0.436549
0.451371
0.467733
0.485285
0.507042
0.536665
0.555904
0.561641
0.559792
0.54746
0.536802
0.541947
0.567236
0.616771
0.68035
0.710474
0.719944
0.722666
0.720884
0.721765
0.72071
0.717875
0.721509
0.737906
0.782536
0.865128
0.976552
1.04209
1.04897
1.04277
1.05399
1.10476
1.19371
1.33452
1.59328
1.86589
1.93328
1.87615
1.62469
1.21871
0.962979
0.850731
0.811768
0.811845
0.885731
1.02074
1.19879
1.69477
2.51811
3.14853
3.50007
3.7272
3.77048
3.65387
2.78396
2.17614
1.49608
1.18185
1.03773
1.00353
1.02056
1.08603
1.09532
1.08373
1.01192
0.916419
0.900911
0.970955
1.12646
1.19792
1.15348
1.32755
1.33124
1.32795
1.3952
1.42115
1.42198
1.43506
1.47668
1.61563
1.7028
1.74419
1.84058
2.07743
2.27102
2.4728
2.76413
2.92681
3.02703
3.21419
3.47708
3.82413
4.22468
4.65734
5.07276
5.34481
5.41506
5.3806
5.18978
4.81115
4.49598
4.34201
4.25704
4.16476
3.79538
3.0821
2.83119
3.08304
4.10988
5.27685
6.01927
6.81423
7.23396
6.19637
4.30225
2.93664
2.31594
2.2224
2.47672
2.37856
2.23712
2.52708
2.69869
2.76467
2.84416
3.37856
3.71313
4.18476
4.65509
5.07108
5.22361
5.1868
5.00554
4.78916
1.62014
0.676678
0.325769
0.167878
0.114949
0.110466
0.131107
0.184772
0.21618
0.256071
0.297526
0.373798
0.511613
0.657805
0.732274
0.814612
0.911047
1.00343
1.08521
1.10663
1.01851
0.855203
0.773885
0.654337
0.547199
0.462849
0.381907
0.323348
0.279374
0.247699
0.223957
0.211022
0.20321
0.198634
0.196093
0.195048
0.194148
0.19365
0.193387
0.193156
0.192374
0.191364
0.190936
0.191758
0.194134
0.19807
0.204895
0.21366
0.221128
0.226182
0.231829
0.235644
0.237187
0.23712
0.234545
0.230819
0.230956
0.235095
0.246464
0.269989
0.296475
0.305331
0.305748
0.305116
0.30454
0.305709
0.307656
0.305712
0.304613
0.306134
0.314632
0.336159
0.372756
0.407802
0.417741
0.417886
0.427869
0.461893
0.50793
0.573264
0.700925
0.901621
1.08772
1.15847
1.14036
0.994832
0.79107
0.642988
0.612313
0.630529
0.719951
0.901243
1.34109
2.46324
2.91137
2.94163
2.97693
2.86969
2.69543
2.17254
1.48999
1.03943
0.787037
0.683925
0.648867
0.645352
0.684513
0.770816
0.794924
0.79347
0.769689
0.750889
0.780018
0.916786
1.0152
1.02077
0.984866
1.17975
1.23626
1.15183
1.16869
1.23993
1.24645
1.25516
1.2906
1.33626
1.36449
1.37119
1.39554
1.48495
1.58412
1.67146
1.83476
1.99149
2.05152
2.13955
2.28215
2.47955
2.70563
2.94903
3.34708
3.70716
3.86127
3.97497
3.98647
3.89343
3.58504
3.41138
3.37178
3.38784
3.21261
2.69803
2.64273
3.16648
4.27871
5.01233
5.39367
5.51512
4.94457
3.74741
2.39628
1.81463
1.59737
1.60859
1.81245
1.73986
1.68754
1.78747
1.79596
1.80118
1.81098
1.95765
2.30323
2.59042
2.7468
2.96115
3.15876
3.21673
3.28736
3.34498
2.52138
0.91396
0.358215
0.173327
0.12801
0.136322
0.18909
0.253875
0.292864
0.375703
0.465619
0.537646
0.616974
0.675082
0.71532
0.754942
0.784803
0.735274
0.653743
0.592316
0.510791
0.430133
0.3567
0.298748
0.253767
0.219601
0.194237
0.179768
0.171127
0.165671
0.162407
0.161914
0.162966
0.164366
0.166094
0.166591
0.166605
0.166408
0.165641
0.164493
0.164263
0.164297
0.164571
0.165168
0.166585
0.170065
0.176543
0.18585
0.195537
0.202845
0.206188
0.20739
0.207232
0.205712
0.199936
0.195685
0.195437
0.196452
0.199562
0.207205
0.224007
0.23943
0.244106
0.242785
0.240072
0.240339
0.241405
0.240973
0.23614
0.231351
0.231867
0.236993
0.24722
0.255368
0.258961
0.260202
0.269684
0.294334
0.316605
0.337027
0.387713
0.482087
0.593016
0.695567
0.721387
0.694153
0.63281
0.57702
0.573202
0.657333
0.806028
1.16413
2.06716
2.67035
2.71464
2.3532
2.09639
1.99636
1.7783
1.35907
0.935172
0.695281
0.595189
0.54771
0.525946
0.520782
0.530512
0.578315
0.663782
0.696215
0.692286
0.685213
0.717867
0.808463
0.883881
0.94688
0.908298
0.972186
1.13617
1.04648
0.932679
1.01278
1.09063
1.0792
1.10197
1.14618
1.21143
1.24283
1.25624
1.26909
1.32949
1.41377
1.48357
1.55832
1.63886
1.71976
1.784
1.89029
2.05446
2.19733
2.39533
2.69365
2.95678
3.16
3.21469
3.18965
3.02847
2.86156
2.84531
2.92005
2.86221
2.55893
2.58605
3.27486
4.0197
4.16571
4.20629
4.21974
3.7766
2.98923
1.95208
1.45939
1.31299
1.33581
1.54273
1.50615
1.52538
1.66169
1.57487
1.57472
1.58453
1.60325
1.7799
2.04393
2.12896
2.14967
2.22026
2.27509
2.38976
2.5159
3.53285
1.0755
0.34947
0.169543
0.144786
0.169513
0.238401
0.319978
0.384025
0.450529
0.505499
0.537317
0.580852
0.603526
0.57976
0.530502
0.489444
0.444164
0.388054
0.330704
0.283948
0.240074
0.204587
0.181208
0.166176
0.155169
0.149921
0.147837
0.147072
0.148221
0.151599
0.155657
0.158902
0.161964
0.165101
0.167855
0.169927
0.17026
0.169849
0.168803
0.167123
0.164699
0.164331
0.165011
0.166858
0.169111
0.172938
0.180026
0.189685
0.200121
0.208959
0.214841
0.217317
0.21707
0.213255
0.201729
0.194832
0.19344
0.19343
0.194818
0.199206
0.210302
0.22521
0.230657
0.229817
0.229616
0.230392
0.229761
0.224951
0.214758
0.208225
0.207811
0.21152
0.215317
0.214545
0.214984
0.221867
0.235922
0.248162
0.258138
0.283814
0.322498
0.369277
0.430273
0.472286
0.492349
0.501829
0.507998
0.588239
0.796119
1.17889
1.79996
2.36192
2.4511
2.12935
1.62796
1.47441
1.37612
1.18624
0.943232
0.728087
0.610494
0.559874
0.526914
0.488359
0.471696
0.470333
0.484088
0.532034
0.613028
0.644213
0.64169
0.636981
0.647057
0.685981
0.791705
0.857503
0.873726
0.930954
0.915778
0.783771
0.832602
0.930018
0.91895
0.888237
0.933076
1.04406
1.11304
1.11645
1.12156
1.17672
1.31341
1.39537
1.43055
1.44828
1.49085
1.5231
1.57196
1.70393
1.85235
1.98192
2.15578
2.32688
2.53551
2.71144
2.74786
2.69687
2.55012
2.53332
2.61095
2.60472
2.45075
2.51223
3.23838
3.73418
3.76807
3.74952
3.59312
3.292
2.77229
1.90543
1.49374
1.19446
1.11582
1.23618
1.38975
1.49793
1.67084
1.51123
1.5076
1.53032
1.49139
1.53669
1.76729
1.88424
1.87723
1.83402
1.83173
1.87297
2.06343
4.64104
1.24561
0.351274
0.173703
0.162527
0.196069
0.269603
0.35059
0.408948
0.453318
0.486646
0.494964
0.459305
0.419451
0.386764
0.35723
0.316939
0.286244
0.249845
0.210419
0.187059
0.166707
0.151697
0.142773
0.136367
0.133225
0.132466
0.132232
0.132874
0.135277
0.139326
0.14402
0.149598
0.155934
0.162512
0.168036
0.17328
0.178101
0.181148
0.182622
0.182603
0.180941
0.177559
0.172292
0.169376
0.169903
0.173134
0.176714
0.180598
0.188224
0.196991
0.208271
0.219645
0.225095
0.225389
0.221965
0.208927
0.195674
0.192839
0.193737
0.195036
0.198462
0.208747
0.223713
0.229178
0.229641
0.231293
0.230775
0.223925
0.209374
0.198026
0.192755
0.195401
0.199511
0.198268
0.197565
0.200663
0.209019
0.222383
0.234701
0.252789
0.272541
0.289385
0.31534
0.340564
0.367077
0.407767
0.470626
0.652385
1.07912
1.69672
2.09581
2.22919
2.05047
1.39696
1.17615
1.08315
1.00442
0.895894
0.775176
0.657581
0.584836
0.551444
0.511676
0.482727
0.458989
0.453101
0.451636
0.455133
0.485768
0.535292
0.566941
0.574311
0.563508
0.576434
0.649208
0.740689
0.817389
0.809944
0.803671
0.699865
0.704982
0.787109
0.778066
0.740923
0.777648
0.938588
1.00775
1.00656
1.02713
1.13081
1.21516
1.29723
1.36121
1.39638
1.39552
1.39017
1.39789
1.44501
1.59603
1.75927
1.8756
1.97708
2.09465
2.30638
2.41918
2.42593
2.3509
2.33547
2.41348
2.42372
2.33953
2.43214
3.15614
3.64291
3.65924
3.49454
3.20084
3.00827
2.57922
1.90404
1.50431
1.12902
1.03469
1.02718
1.15346
1.4866
1.64864
1.46475
1.42555
1.44512
1.43862
1.40385
1.39851
1.65001
1.73808
1.70746
1.58924
1.5736
1.71928
5.91339
1.50589
0.38214
0.190311
0.180862
0.214368
0.277726
0.351435
0.396664
0.418024
0.412523
0.396789
0.359301
0.319147
0.286356
0.26391
0.240655
0.22042
0.195978
0.168042
0.15419
0.144498
0.135278
0.129134
0.126187
0.124951
0.12449
0.124727
0.126127
0.128927
0.132253
0.136292
0.141122
0.146532
0.153212
0.161219
0.169794
0.17794
0.184492
0.190242
0.193948
0.194884
0.194656
0.19245
0.186864
0.180987
0.176635
0.175809
0.176167
0.176567
0.177272
0.179883
0.18692
0.200938
0.215115
0.219035
0.216983
0.206895
0.195954
0.193687
0.194662
0.197211
0.20199
0.209131
0.222833
0.230568
0.233537
0.233382
0.22588
0.204301
0.192185
0.18852
0.189903
0.191076
0.189001
0.186598
0.189745
0.199866
0.218871
0.230069
0.236368
0.245677
0.251047
0.257841
0.273165
0.303105
0.3657
0.482684
0.773824
1.45024
1.89176
2.02209
1.9906
1.41
1.02558
0.915562
0.867243
0.833232
0.782992
0.711938
0.634394
0.574111
0.544918
0.49937
0.477795
0.445217
0.430605
0.424714
0.423866
0.428147
0.434819
0.478685
0.527916
0.529906
0.526184
0.593156
0.68262
0.707721
0.714031
0.713794
0.646095
0.621254
0.673672
0.688655
0.683083
0.719132
0.860359
0.894573
0.927062
1.00838
1.08038
1.10707
1.13699
1.23683
1.27328
1.26901
1.24585
1.24147
1.25791
1.34482
1.55466
1.70181
1.78831
1.84904
1.97937
2.12446
2.20238
2.17133
2.16292
2.24664
2.27953
2.25502
2.36454
3.11571
3.63179
3.5829
3.1985
2.85243
2.68131
2.2831
1.83726
1.46179
1.00141
0.90748
0.908601
0.985576
1.30603
1.51662
1.46442
1.33273
1.22198
1.30823
1.23222
1.20556
1.29368
1.60668
1.63939
1.5122
1.40926
1.46763
7.31887
1.78668
0.439629
0.201906
0.184617
0.213502
0.27062
0.338531
0.360519
0.361852
0.340644
0.313367
0.277266
0.240818
0.219189
0.208753
0.198595
0.186187
0.169005
0.149506
0.139188
0.132727
0.124678
0.120504
0.119179
0.118968
0.119565
0.121318
0.124739
0.128052
0.13136
0.135364
0.13996
0.144637
0.150235
0.156797
0.16381
0.172043
0.180834
0.190059
0.199811
0.204319
0.204475
0.203621
0.201618
0.198641
0.192975
0.183764
0.177839
0.172512
0.169329
0.169498
0.171323
0.175709
0.184494
0.200065
0.212982
0.214166
0.211475
0.205591
0.203105
0.203734
0.204459
0.206271
0.212935
0.224642
0.231513
0.230918
0.222656
0.206773
0.196983
0.188281
0.185281
0.180971
0.177674
0.178349
0.187213
0.202833
0.217975
0.223856
0.226727
0.228762
0.233079
0.24778
0.265128
0.301916
0.370102
0.514232
0.922547
1.64172
1.88025
1.89116
1.56547
0.986937
0.81036
0.759321
0.737684
0.70183
0.668392
0.62378
0.586879
0.557798
0.528526
0.488287
0.466488
0.426016
0.41459
0.414309
0.414659
0.409186
0.391826
0.390252
0.450787
0.498285
0.479342
0.532351
0.657644
0.65495
0.670315
0.655182
0.568997
0.5529
0.597758
0.636203
0.656294
0.698639
0.740064
0.782335
0.896953
0.986322
0.99109
0.996221
1.02755
1.10584
1.16039
1.16638
1.1473
1.14083
1.15322
1.20904
1.39446
1.5482
1.64144
1.70159
1.78578
1.90039
2.02689
2.02876
2.01543
2.0898
2.1367
2.15147
2.31901
3.12179
3.63868
3.46826
2.73045
2.41914
2.20847
1.85583
1.61529
1.23436
0.927305
0.845859
0.836668
0.881148
1.04487
1.33878
1.42303
1.31644
1.09678
1.15536
1.1086
1.07118
1.1024
1.36485
1.57293
1.51306
1.34909
1.35652
8.95801
2.22495
0.560362
0.225654
0.185269
0.203695
0.244103
0.294589
0.332799
0.340389
0.321668
0.279639
0.243339
0.220224
0.202016
0.194019
0.187116
0.177189
0.161297
0.142508
0.131374
0.125619
0.119859
0.117552
0.117001
0.116895
0.11792
0.120502
0.12485
0.129739
0.133626
0.137564
0.141693
0.145453
0.15055
0.156897
0.163824
0.170411
0.177885
0.186157
0.194591
0.203998
0.213174
0.216337
0.215604
0.212088
0.203031
0.191525
0.183609
0.175956
0.170542
0.168801
0.169009
0.170588
0.176516
0.184179
0.202436
0.215313
0.218009
0.21743
0.215092
0.209853
0.206684
0.206632
0.209461
0.218223
0.225168
0.22545
0.216633
0.199529
0.189842
0.17905
0.174976
0.174488
0.174838
0.176382
0.18259
0.196741
0.210319
0.212921
0.212702
0.216516
0.231295
0.251988
0.266788
0.303648
0.37798
0.56874
1.08967
1.67702
1.804
1.68843
1.18099
0.803071
0.69518
0.652751
0.614003
0.577499
0.555056
0.533454
0.50852
0.477189
0.444466
0.419246
0.390898
0.368979
0.374392
0.403616
0.410423
0.403953
0.373867
0.351098
0.367503
0.42076
0.435775
0.486819
0.591145
0.627634
0.649517
0.624165
0.524576
0.517156
0.561237
0.593556
0.610945
0.629956
0.677188
0.760479
0.869107
0.892798
0.894058
0.931129
1.00653
1.05068
1.10049
1.11109
1.10801
1.10437
1.10917
1.13584
1.24502
1.41935
1.50794
1.59563
1.67637
1.75167
1.87284
1.92031
1.89817
1.95124
2.01947
2.0618
2.29276
3.15779
3.6232
3.2033
2.32858
2.05998
1.79409
1.56953
1.32771
1.09665
0.852409
0.804472
0.79815
0.82809
0.923439
1.15479
1.31198
1.24129
1.03378
1.03554
0.990969
0.974508
0.981729
1.10667
1.46463
1.46021
1.32633
1.2854
10.7793
2.79488
0.808934
0.288804
0.192445
0.19414
0.212954
0.238907
0.271407
0.292478
0.292449
0.2669
0.225894
0.206529
0.194222
0.189591
0.186621
0.179802
0.16557
0.146459
0.133112
0.127104
0.122332
0.119535
0.118586
0.117344
0.116943
0.118371
0.123251
0.129385
0.133999
0.137542
0.141496
0.145091
0.149475
0.155082
0.162565
0.172414
0.182957
0.188981
0.19487
0.199342
0.20264
0.207114
0.214629
0.217621
0.216044
0.208339
0.194873
0.1833
0.175844
0.171409
0.171051
0.171836
0.174589
0.181828
0.188651
0.207755
0.216468
0.21735
0.216026
0.21058
0.203112
0.201036
0.202335
0.206392
0.210048
0.222192
0.214183
0.191911
0.17964
0.169575
0.167976
0.171815
0.171006
0.167633
0.171442
0.183506
0.195912
0.199629
0.203211
0.213231
0.238527
0.266456
0.276461
0.306626
0.396313
0.658424
1.20866
1.62184
1.68205
1.46831
0.948276
0.706091
0.628016
0.589333
0.530239
0.506807
0.494356
0.478291
0.445363
0.405329
0.387842
0.37743
0.352954
0.334902
0.330824
0.340269
0.375333
0.393345
0.373441
0.33338
0.325752
0.352831
0.396215
0.457842
0.555984
0.5921
0.636829
0.601937
0.504386
0.499298
0.545199
0.587814
0.575121
0.596315
0.665296
0.797944
0.804442
0.797849
0.811031
0.90444
0.98585
1.00048
1.00681
1.03263
1.04533
1.02968
1.01862
1.03526
1.1154
1.30449
1.39024
1.48883
1.57111
1.62966
1.73091
1.82066
1.79823
1.81795
1.9119
1.9768
2.27879
3.16739
3.54958
2.84245
2.10129
1.86877
1.66748
1.42538
1.24134
1.03269
0.834477
0.781182
0.779713
0.798397
0.866913
1.01897
1.16665
1.08808
0.946934
0.95974
0.931985
0.93414
0.935683
0.997405
1.29548
1.36074
1.3184
1.26554
12.7501
3.41733
1.14599
0.452249
0.231693
0.198975
0.206989
0.221301
0.239536
0.253853
0.252416
0.236044
0.202
0.182867
0.181452
0.184345
0.185951
0.183066
0.173821
0.155816
0.137448
0.129802
0.125843
0.122018
0.119332
0.1171
0.115593
0.115786
0.118684
0.125379
0.132033
0.135814
0.138744
0.141693
0.145493
0.150994
0.159337
0.171112
0.186945
0.206277
0.216682
0.218876
0.218008
0.211517
0.202563
0.202129
0.206972
0.207366
0.202524
0.187907
0.178148
0.174206
0.172338
0.173221
0.174433
0.179305
0.183192
0.190339
0.202526
0.205467
0.204682
0.1995
0.193113
0.194612
0.198036
0.206116
0.199318
0.195773
0.190758
0.174457
0.173939
0.167379
0.159098
0.159609
0.161096
0.163099
0.170525
0.1817
0.187027
0.188501
0.194857
0.211452
0.241102
0.271638
0.287892
0.318952
0.427577
0.741287
1.28368
1.53039
1.5464
1.28521
0.802885
0.634951
0.573653
0.530315
0.474472
0.449354
0.428421
0.407458
0.379716
0.358988
0.354145
0.351451
0.323531
0.310962
0.298638
0.293742
0.306071
0.335977
0.36588
0.326625
0.309995
0.318774
0.359443
0.405509
0.535393
0.574658
0.632282
0.588678
0.496729
0.495362
0.544732
0.575614
0.565105
0.5883
0.677786
0.816479
0.77466
0.755113
0.77816
0.867702
0.902218
0.891539
0.886791
0.916589
0.927501
0.905304
0.894948
0.912328
0.981801
1.14621
1.27532
1.38219
1.46128
1.51401
1.58983
1.70608
1.68951
1.69596
1.81196
1.89147
2.26187
3.14381
3.35853
2.52122
1.95967
1.74599
1.60431
1.38482
1.2557
1.02858
0.853475
0.777718
0.765943
0.779997
0.810439
0.922884
1.0583
0.997931
0.914637
0.910033
0.904359
0.922791
0.927166
0.965324
1.18468
1.3077
1.301
1.27027
14.8834
4.07403
1.36616
0.697034
0.358228
0.255282
0.231486
0.230494
0.236789
0.242362
0.242532
0.232381
0.201822
0.17587
0.165257
0.16886
0.177802
0.178844
0.173099
0.160784
0.145287
0.133685
0.128236
0.124161
0.120088
0.117168
0.115603
0.115727
0.117559
0.122761
0.127804
0.130353
0.133521
0.138895
0.145328
0.152052
0.159281
0.168864
0.179857
0.195541
0.216817
0.23721
0.243956
0.239298
0.215508
0.192294
0.184546
0.186077
0.191289
0.190917
0.182411
0.177057
0.171035
0.170032
0.171173
0.174999
0.178349
0.178866
0.179282
0.17834
0.175481
0.173827
0.177994
0.195029
0.197922
0.201404
0.197206
0.181072
0.175792
0.163355
0.15824
0.156607
0.15009
0.151849
0.159444
0.163143
0.169135
0.175124
0.177558
0.179903
0.189167
0.211009
0.242341
0.272044
0.291796
0.329991
0.447589
0.794952
1.26151
1.41013
1.39992
1.13938
0.714529
0.575497
0.519026
0.478429
0.437514
0.418993
0.394335
0.367974
0.340331
0.326765
0.317076
0.298768
0.280528
0.277338
0.277169
0.277812
0.280867
0.288133
0.311287
0.319577
0.298758
0.295138
0.321856
0.361492
0.470976
0.55045
0.612541
0.583909
0.49603
0.499191
0.550149
0.576148
0.5587
0.570365
0.6864
0.758839
0.737218
0.738002
0.792764
0.826844
0.798485
0.785012
0.804458
0.814509
0.805395
0.788389
0.791888
0.821619
0.874211
0.965649
1.14561
1.26682
1.34569
1.42281
1.48
1.59557
1.59516
1.59963
1.71058
1.8112
2.2247
3.04462
3.11671
2.25185
1.82749
1.63523
1.49006
1.33508
1.24135
1.07693
0.883388
0.778436
0.759641
0.773195
0.797403
0.849265
0.977738
0.945099
0.898827
0.879377
0.897518
0.929554
0.929085
0.959823
1.13771
1.29986
1.32212
1.29952
17.1943
4.67877
1.46175
0.921048
0.68598
0.506394
0.397155
0.328541
0.288606
0.268026
0.252276
0.234978
0.204915
0.176802
0.160955
0.154738
0.159033
0.168788
0.168504
0.16399
0.156514
0.142612
0.13242
0.127273
0.122338
0.118923
0.117261
0.116984
0.11795
0.120069
0.12273
0.12482
0.127281
0.132688
0.141225
0.148362
0.156649
0.164346
0.169705
0.174743
0.184361
0.202835
0.228322
0.234143
0.229406
0.200001
0.172213
0.161701
0.162547
0.17469
0.176953
0.17353
0.170454
0.169625
0.171676
0.173314
0.174872
0.174605
0.171093
0.162948
0.160126
0.162887
0.175205
0.201643
0.205252
0.198643
0.187006
0.173621
0.172072
0.162543
0.150987
0.151097
0.146519
0.148207
0.155474
0.159793
0.167215
0.173317
0.174766
0.177172
0.186995
0.211202
0.250333
0.271259
0.291719
0.334923
0.457078
0.81973
1.22599
1.3149
1.28529
1.00636
0.653136
0.528691
0.474127
0.433957
0.408389
0.391298
0.373977
0.353588
0.316834
0.30393
0.295399
0.276081
0.266675
0.262492
0.254235
0.257173
0.262928
0.26465
0.275745
0.306038
0.293152
0.283984
0.300355
0.338423
0.435557
0.536799
0.601531
0.572446
0.500271
0.512103
0.578773
0.603021
0.568623
0.572271
0.632901
0.69583
0.693427
0.708005
0.823959
0.818734
0.762067
0.762526
0.800665
0.782401
0.74557
0.746012
0.754877
0.769301
0.798291
0.849177
1.00765
1.15603
1.21869
1.33137
1.4103
1.50484
1.52056
1.52407
1.63956
1.74197
2.12108
2.9419
2.91549
2.04131
1.69733
1.49429
1.31386
1.22747
1.18727
1.09475
0.957411
0.804437
0.757747
0.765244
0.795777
0.819716
0.92951
0.920191
0.882355
0.867404
0.903156
0.94602
0.957867
0.980689
1.13273
1.31634
1.45574
1.41851
19.7489
5.0223
1.67835
1.46624
1.61154
1.50418
1.24335
0.885635
0.575016
0.407605
0.316457
0.266655
0.22482
0.187169
0.164259
0.153705
0.148075
0.149845
0.156241
0.161045
0.158828
0.155027
0.147348
0.13892
0.131929
0.126799
0.123728
0.121205
0.119973
0.120359
0.121048
0.122359
0.123945
0.12684
0.132937
0.140217
0.148576
0.155859
0.159069
0.160551
0.163224
0.169804
0.193517
0.214372
0.215321
0.197571
0.166071
0.152994
0.152011
0.161999
0.169333
0.169204
0.16936
0.17022
0.172481
0.173099
0.172727
0.170826
0.162237
0.156884
0.156018
0.161086
0.18122
0.201598
0.204358
0.195077
0.184576
0.173411
0.172499
0.167639
0.15094
0.151554
0.14786
0.145614
0.152116
0.15913
0.166827
0.17247
0.173736
0.175785
0.183984
0.211532
0.264693
0.278679
0.291953
0.334805
0.457256
0.813188
1.17836
1.24005
1.16906
0.89915
0.613416
0.502434
0.435987
0.39938
0.376146
0.354923
0.34325
0.326671
0.297904
0.290401
0.287325
0.268912
0.263801
0.256674
0.22999
0.229406
0.240857
0.25635
0.261707
0.285852
0.284811
0.275671
0.285184
0.309406
0.404628
0.513905
0.594483
0.562761
0.518552
0.54212
0.608774
0.639149
0.603275
0.582594
0.600743
0.654464
0.658061
0.692526
0.809721
0.802197
0.752788
0.774014
0.839928
0.78639
0.741862
0.759291
0.755838
0.743044
0.748396
0.775133
0.89591
1.03428
1.09741
1.21307
1.34324
1.42234
1.46583
1.46147
1.57827
1.66926
1.98203
2.79878
2.75255
1.93898
1.58465
1.36718
1.16655
1.10557
1.10069
1.0819
1.00607
0.838561
0.761821
0.765934
0.799211
0.81081
0.901174
0.912086
0.879153
0.866427
0.944725
0.997698
1.03571
1.04196
1.17709
1.38862
1.54673
1.54501
22.9598
5.53929
2.38672
3.09037
3.01057
2.71039
2.39273
2.08045
1.72847
1.19715
0.689467
0.405577
0.286246
0.217181
0.175325
0.155346
0.14593
0.142356
0.143634
0.148192
0.154361
0.155227
0.153553
0.150483
0.14678
0.141758
0.137499
0.134
0.128802
0.124424
0.123125
0.123343
0.124411
0.126738
0.132441
0.140413
0.14612
0.150357
0.151752
0.152688
0.154724
0.160778
0.187262
0.203613
0.20251
0.17883
0.152819
0.14493
0.146435
0.158511
0.167793
0.169813
0.171975
0.175301
0.177196
0.176214
0.17149
0.164938
0.154483
0.152521
0.154099
0.161198
0.183036
0.191445
0.192188
0.183928
0.179473
0.179549
0.178075
0.180175
0.160226
0.150617
0.151751
0.146264
0.151753
0.161619
0.166843
0.171345
0.174068
0.175429
0.182871
0.209463
0.271341
0.309515
0.307986
0.333791
0.448832
0.786897
1.14293
1.19471
1.09795
0.809634
0.59168
0.492907
0.412596
0.375859
0.352477
0.328757
0.312102
0.2986
0.281364
0.276329
0.273892
0.258295
0.255973
0.249375
0.222934
0.215155
0.223141
0.237239
0.245673
0.261018
0.273539
0.268017
0.272521
0.291031
0.359524
0.503475
0.576018
0.555683
0.547958
0.553743
0.618115
0.649527
0.630972
0.590953
0.598474
0.649691
0.661567
0.697893
0.787813
0.783717
0.731392
0.802963
0.839259
0.778912
0.756647
0.78143
0.758023
0.716931
0.713995
0.734111
0.834166
0.931989
0.986937
1.08199
1.2524
1.33165
1.41956
1.41231
1.52848