/*--------------------------------*- C++ -*----------------------------------*\
| =========                 |                                                 |
| \\      /  F ield         | OpenFOAM: The Open Source CFD Toolbox           |
|  \\    /   O peration     | Version:  dev                                   |
|   \\  /    A nd           | Web:      http://www.openfoam.org               |
|    \\/     M anipulation  |                                                 |
\*---------------------------------------------------------------------------*/
FoamFile
{
    version     2.0;
    format      ascii;
    class       volScalarField;
    object      muSgs;
    location    "9.133";
}
// * * * * * * * * * * * * * * * * * * * * * * * * * * * * * * * * * * * * * //

dimensions      [1 -1 -1 0 0 0 0];

internalField   nonuniform List<scalar> 
12225
(
0.00020507
0.000241906
0.000201492
0.000223789
0.000221241
0.000245575
0.000263709
0.000276775
0.000301643
0.00030844
0.000339084
0.000342451
0.000376585
0.000368979
0.00044618
0.000437652
0.000341691
0.000504478
9.34954e-05
0.000201999
0.000178264
0.000212241
0.0001836
0.00022205
0.000204461
0.000232177
0.000224327
0.000240777
0.00024725
0.000248916
0.00027412
0.000276709
0.000312039
0.000310175
0.00044908
0.000520587
2.94528e-05
0.000115001
0.000115779
0.000147719
0.000137434
0.000152651
0.000148421
0.000149947
0.000159298
0.000151908
0.000168186
0.000152296
0.000182419
0.000178883
0.000222298
0.000250755
0.000503011
0.000634923
1.3584e-05
6.33606e-05
7.06985e-05
8.63177e-05
9.86194e-05
9.50958e-05
0.000109432
9.68072e-05
0.000111358
0.000100497
0.000113907
9.92163e-05
0.000110829
0.000108998
0.00015023
0.000188169
0.000375312
0.000627644
4.35753e-06
2.71061e-05
4.10328e-05
4.61449e-05
6.1666e-05
5.89859e-05
7.11714e-05
6.26847e-05
7.19248e-05
6.73149e-05
7.46012e-05
6.90289e-05
7.02748e-05
7.54642e-05
8.62294e-05
0.000116797
0.000222031
0.000435115
6.98582e-06
2.95409e-05
3.16441e-05
3.67339e-05
4.49782e-05
4.16919e-05
5.03686e-05
4.60493e-05
5.63681e-05
5.07365e-05
6.6716e-05
5.99366e-05
7.12282e-05
6.86272e-05
8.14199e-05
0.000112665
0.000131451
0.000253718
6.0456e-06
1.55086e-05
2.37356e-05
2.50991e-05
3.05623e-05
2.73094e-05
3.45381e-05
3.62418e-05
4.14086e-05
4.01726e-05
5.23578e-05
5.16821e-05
7.49013e-05
7.4316e-05
9.61659e-05
0.000102357
0.000103031
0.000134193
5.79957e-06
8.30977e-06
1.34145e-05
1.35873e-05
1.65175e-05
1.51137e-05
2.04346e-05
2.2996e-05
2.83238e-05
2.87701e-05
3.70825e-05
3.76757e-05
4.6138e-05
5.19867e-05
6.96953e-05
8.70567e-05
8.45562e-05
7.3494e-05
7.65296e-06
9.01575e-06
1.14185e-05
1.11289e-05
1.21663e-05
1.22703e-05
1.6385e-05
1.8334e-05
2.18584e-05
2.22033e-05
3.14786e-05
3.35871e-05
5.35325e-05
4.96552e-05
8.18627e-05
7.97695e-05
8.92633e-05
6.9236e-05
9.72012e-06
1.06038e-05
1.12224e-05
1.0855e-05
1.11138e-05
1.20721e-05
1.48518e-05
1.7117e-05
1.90585e-05
2.06062e-05
2.40477e-05
2.60791e-05
3.92302e-05
3.73065e-05
6.57307e-05
4.9617e-05
7.50194e-05
6.44033e-05
1.25441e-05
1.29041e-05
1.21952e-05
1.17849e-05
1.19265e-05
1.33791e-05
1.57168e-05
1.78797e-05
1.95612e-05
2.18948e-05
2.3811e-05
2.60838e-05
2.93955e-05
3.24053e-05
4.00712e-05
4.00817e-05
5.50573e-05
4.98361e-05
1.74793e-05
1.72452e-05
1.48264e-05
1.42492e-05
1.44113e-05
1.61638e-05
1.80214e-05
2.03677e-05
2.23625e-05
2.54871e-05
2.73973e-05
3.07158e-05
3.29223e-05
3.63358e-05
3.78474e-05
3.95238e-05
4.5125e-05
4.29631e-05
2.51673e-05
2.44317e-05
2.01586e-05
1.846e-05
1.81757e-05
2.02786e-05
2.24249e-05
2.64037e-05
2.86e-05
3.28768e-05
3.56107e-05
4.07933e-05
4.39699e-05
4.69234e-05
4.77294e-05
4.81716e-05
4.88282e-05
4.71527e-05
3.62263e-05
3.42131e-05
2.72375e-05
2.44996e-05
2.41298e-05
2.71056e-05
3.14438e-05
3.81658e-05
4.16871e-05
4.73098e-05
5.14433e-05
5.51315e-05
5.75378e-05
5.92346e-05
6.00682e-05
6.00529e-05
5.97539e-05
5.84103e-05
5.06958e-05
4.71917e-05
3.78648e-05
3.49144e-05
3.4776e-05
3.94332e-05
4.92839e-05
5.89658e-05
6.56527e-05
7.08282e-05
7.4473e-05
7.70945e-05
7.85631e-05
7.90076e-05
7.87028e-05
7.78017e-05
7.67426e-05
7.50498e-05
7.01994e-05
6.59691e-05
5.50597e-05
5.10635e-05
5.04987e-05
5.43668e-05
6.61894e-05
7.62216e-05
8.3288e-05
8.8349e-05
9.15657e-05
9.33773e-05
9.37982e-05
9.3328e-05
9.2205e-05
9.07482e-05
8.91124e-05
8.72711e-05
8.28139e-05
7.69242e-05
6.4377e-05
5.95122e-05
5.86707e-05
6.18028e-05
7.389e-05
8.50535e-05
9.28075e-05
9.83213e-05
0.000101752
0.000103491
0.000103665
0.000102929
0.000101498
9.98399e-05
9.80255e-05
9.61244e-05
8.16409e-05
7.60244e-05
6.41255e-05
5.94583e-05
5.85742e-05
6.11965e-05
7.24432e-05
8.37457e-05
9.16575e-05
9.73195e-05
0.000100924
0.000102804
0.000103092
0.000102385
0.000100974
9.93778e-05
9.75994e-05
9.58008e-05
6.96598e-05
6.4754e-05
5.51735e-05
5.15954e-05
5.09518e-05
5.32503e-05
6.30073e-05
7.32361e-05
8.06539e-05
8.61141e-05
8.98875e-05
9.20711e-05
9.28382e-05
9.24777e-05
9.14054e-05
9.00321e-05
8.85119e-05
8.69552e-05
5.19291e-05
4.81314e-05
4.18408e-05
3.96206e-05
3.92356e-05
4.06749e-05
4.76655e-05
5.61437e-05
6.28665e-05
6.82386e-05
7.27008e-05
7.58376e-05
7.77335e-05
7.8313e-05
7.78962e-05
7.69483e-05
7.58211e-05
7.45829e-05
3.74403e-05
3.47692e-05
3.00925e-05
2.84948e-05
2.83412e-05
3.01421e-05
3.56839e-05
4.14026e-05
4.63993e-05
5.04706e-05
5.39832e-05
5.66769e-05
5.84977e-05
5.94209e-05
5.94534e-05
5.8972e-05
5.81952e-05
5.73506e-05
2.59728e-05
2.37927e-05
2.09731e-05
2.03772e-05
2.09649e-05
2.49195e-05
2.95846e-05
3.2025e-05
3.4024e-05
3.61284e-05
3.84548e-05
4.08085e-05
4.26766e-05
4.39524e-05
4.45286e-05
4.45076e-05
4.41119e-05
4.36303e-05
1.7725e-05
1.66135e-05
1.49903e-05
1.44542e-05
1.47272e-05
1.69998e-05
1.98557e-05
2.18812e-05
2.3593e-05
2.52423e-05
2.707e-05
2.89683e-05
3.06799e-05
3.2138e-05
3.31091e-05
3.38128e-05
3.40379e-05
3.41812e-05
1.23204e-05
1.18019e-05
1.09723e-05
1.10601e-05
1.16876e-05
1.32336e-05
1.58624e-05
1.81871e-05
2.01098e-05
2.17193e-05
2.33749e-05
2.51043e-05
2.66815e-05
2.81994e-05
2.92067e-05
3.01269e-05
3.05443e-05
3.08043e-05
6.65726e-06
7.50581e-06
8.57599e-06
1.03471e-05
1.25571e-05
1.48646e-05
1.77355e-05
2.0677e-05
2.31694e-05
2.48135e-05
2.61927e-05
2.7666e-05
2.89432e-05
3.0338e-05
3.12099e-05
3.20842e-05
3.25804e-05
3.28639e-05
2.82371e-06
6.92707e-06
1.21652e-05
1.91917e-05
2.46644e-05
2.90988e-05
3.34891e-05
3.71871e-05
3.99779e-05
4.14277e-05
4.23245e-05
4.32563e-05
4.40352e-05
4.4819e-05
4.52567e-05
4.57644e-05
4.58467e-05
4.59974e-05
4.6353e-06
1.75764e-05
3.21203e-05
4.69868e-05
5.58337e-05
6.19953e-05
6.70016e-05
7.07098e-05
7.30161e-05
7.4041e-05
7.43687e-05
7.46422e-05
7.46888e-05
7.4535e-05
7.42141e-05
7.36926e-05
7.30148e-05
7.26412e-05
1.75302e-05
5.58878e-05
8.63533e-05
0.00010389
0.000113251
0.000117945
0.000120643
0.000122037
0.000122406
0.000122319
0.000121461
0.000120525
0.000119171
0.000117281
0.000115109
0.000112684
0.000110067
0.00010738
7.36724e-05
0.00016062
0.00018616
0.000192188
0.000193086
0.00019242
0.000191563
0.000190871
0.000190326
0.000189317
0.000187844
0.000185835
0.000182848
0.000179108
0.000175105
0.000170144
0.000165664
0.000160027
0.000207171
0.000267765
0.000262378
0.000251881
0.00024772
0.000250406
0.000256912
0.000263181
0.000268474
0.000272184
0.000274639
0.000275365
0.000274696
0.000272852
0.000270064
0.000266066
0.000261421
0.000254621
3.08956e-05
3.11224e-05
2.90217e-05
2.86385e-05
2.91669e-05
3.04644e-05
3.3008e-05
3.6685e-05
4.10355e-05
4.55181e-05
5.03301e-05
5.56879e-05
6.10959e-05
6.62855e-05
7.17314e-05
7.82068e-05
8.50519e-05
9.1319e-05
9.6855e-05
0.000103352
0.000111404
0.000120193
0.000130843
0.000144323
0.000161533
0.000181385
0.000200378
0.000215812
0.000228328
0.00023954
0.000249921
0.000259562
0.000268469
0.00027695
0.000285223
0.000293287
0.000301059
0.000308602
0.000316133
0.000323623
0.000331044
0.000338493
0.000345687
0.000352526
0.00035903
0.000365259
0.000371232
0.000376942
0.000382455
0.000387849
0.000392809
0.000397483
0.000402251
0.0004061
0.00040928
0.000411608
0.000413156
0.000414109
0.000414914
0.000415353
0.000415518
0.000415083
0.000413461
0.000411105
0.000407624
0.000403428
0.000398327
0.000393309
0.000388287
0.000383382
0.000378496
0.000373799
0.000368573
0.000362707
0.000356113
0.000349043
0.000342148
0.000335243
0.0003284
0.000321475
0.000315539
0.000310788
0.000305359
0.000297092
0.000286536
0.000275368
0.000264825
0.000253638
0.000242982
0.000234071
0.000227005
0.000222108
0.000211831
0.000197361
0.000191298
0.000188155
0.000186391
0.000182312
0.000190075
0.000229905
0.000287454
0.000314993
0.000320157
0.000315843
0.000297242
0.000277203
0.000259143
0.000245896
0.000239956
0.000237701
0.000232998
0.00021552
0.000193268
0.000174643
0.000167948
0.000174906
0.000169372
0.000166875
0.00017055
0.000183333
0.000206626
0.000230707
0.000243308
0.000257668
0.000280356
0.00029484
0.000306492
0.00032364
0.000345465
0.00036188
0.000374423
0.000385678
0.000393052
0.00040109
0.000410823
0.000421123
0.000430985
0.000440545
0.000447041
0.000452718
0.000457403
0.000460314
0.000459529
0.000458894
0.000457109
0.000450152
0.000440413
0.000427846
0.000411918
0.000393684
0.000366632
0.000332454
0.000309886
0.000299241
0.000297758
0.000292981
0.000282677
0.000297852
0.000373077
0.000483283
0.000529539
0.000528328
0.00048444
0.000437868
0.000428933
0.000444283
0.000436866
0.000462768
0.000480629
0.000499572
0.000531586
0.000556007
0.000581227
0.000598975
0.000606299
0.000607651
0.000601234
0.000591155
0.000579394
0.000560101
5.55025e-05
4.61749e-05
3.56799e-05
2.95251e-05
2.75126e-05
2.75967e-05
2.85234e-05
3.10636e-05
3.326e-05
3.48443e-05
3.56685e-05
3.68504e-05
3.89158e-05
4.32743e-05
4.74909e-05
5.10144e-05
5.68964e-05
6.6929e-05
7.86894e-05
9.2722e-05
0.000109399
0.000123742
0.000134595
0.000143951
0.000152145
0.00015805
0.000161396
0.000160947
0.000158824
0.000156647
0.00015395
0.000151249
0.000149119
0.000147816
0.000147386
0.000147554
0.000147971
0.000148788
0.000150401
0.000152046
0.000153207
0.000154772
0.000156057
0.00015696
0.000157662
0.000158755
0.000160034
0.000162466
0.000165526
0.000168413
0.00017135
0.000174749
0.000178827
0.00018076
0.000181345
0.000181024
0.000179241
0.000179541
0.000181282
0.000185138
0.000190294
0.000193661
0.000194527
0.000194688
0.000193807
0.000192669
0.000190633
0.000189265
0.000189163
0.000190271
0.000193421
0.000198875
0.000203015
0.000203878
0.000202896
0.000200292
0.000199554
0.000199902
0.000200917
0.000203614
0.000209418
0.000211616
0.00020983
0.000201715
0.000185557
0.000169401
0.000159559
0.000149766
0.0001462
0.000147264
0.000152299
0.000157737
0.000157058
0.000156121
0.000160589
0.000176372
0.000203475
0.000215712
0.000221875
0.000239477
0.000248433
0.000242256
0.000214334
0.000189921
0.000168325
0.000158638
0.000155167
0.000155629
0.000156891
0.000156533
0.000150216
0.000134514
0.000126296
0.000126159
0.000134871
0.0001449
0.000138736
0.000142882
0.00014352
0.000146412
0.000153303
0.000162583
0.000169559
0.000174766
0.000185013
0.000197799
0.000205693
0.000211893
0.000225575
0.000242573
0.00025638
0.000268929
0.000281525
0.000289479
0.000299019
0.000310101
0.000321865
0.000335929
0.000351335
0.000363815
0.000368516
0.000372931
0.000375272
0.000374645
0.000371153
0.000365784
0.000363212
0.000360832
0.0003561
0.000350153
0.000334686
0.000309646
0.000299697
0.000295319
0.000298222
0.000313304
0.000331663
0.000360226
0.000402136
0.000415945
0.000390215
0.000318575
0.000266002
0.000256106
0.000280519
0.000276506
0.0002662
0.00030521
0.000325384
0.000338329
0.000357588
0.000394715
0.000417869
0.000447992
0.000464652
0.000470994
0.000470572
0.000459143
0.000444694
0.000430155
7.99418e-05
5.75436e-05
4.13953e-05
3.18659e-05
2.80715e-05
2.80284e-05
2.95854e-05
3.36469e-05
3.56987e-05
3.70531e-05
3.79867e-05
3.98742e-05
4.4275e-05
5.39801e-05
6.16838e-05
6.95211e-05
7.95086e-05
8.91608e-05
9.69427e-05
0.000102951
0.000109014
0.00011493
0.000116066
0.000113803
0.000107126
0.000102798
9.66608e-05
9.05889e-05
8.46384e-05
7.92068e-05
7.41315e-05
7.0296e-05
6.74687e-05
6.54422e-05
6.42357e-05
6.35419e-05
6.31376e-05
6.30449e-05
6.32112e-05
6.32309e-05
6.30533e-05
6.2772e-05
6.24227e-05
6.22145e-05
6.2309e-05
6.24561e-05
6.28835e-05
6.4038e-05
6.53608e-05
6.67631e-05
6.8415e-05
7.05726e-05
7.20948e-05
7.27123e-05
7.27397e-05
7.2252e-05
7.16705e-05
7.21729e-05
7.39091e-05
7.73088e-05
8.16295e-05
8.39339e-05
8.47727e-05
8.50576e-05
8.50593e-05
8.51874e-05
8.51971e-05
8.50138e-05
8.5332e-05
8.65193e-05
8.93754e-05
9.43841e-05
0.000100937
0.000105201
0.000105826
0.000105421
0.000106058
0.000108605
0.000113224
0.000119548
0.000130392
0.000143625
0.000149568
0.000147181
0.000135138
0.000116505
0.000103746
9.72112e-05
9.57386e-05
9.7327e-05
0.000102335
0.000110815
0.000122649
0.000147045
0.000176953
0.000193599
0.000202021
0.000208203
0.000209183
0.000203747
0.000175239
0.000153932
0.000128359
0.000114518
0.00010815
0.000107458
0.000109418
0.000114013
0.000115685
0.000115374
0.000111188
0.000105624
0.000105957
0.000112
0.000120253
0.00012103
0.000115745
0.000127516
0.000128538
0.000127947
0.000132064
0.000137365
0.000140308
0.000142057
0.000145429
0.00015329
0.000157864
0.000159456
0.000163819
0.00017481
0.000184049
0.000192973
0.000205381
0.000212852
0.000217646
0.000225269
0.000235772
0.000249761
0.000265069
0.000281569
0.000298981
0.000312953
0.000319127
0.000323472
0.000324958
0.000318581
0.000313409
0.000312611
0.000311222
0.000309375
0.00030321
0.000283219
0.00027849
0.000280802
0.00030373
0.000329075
0.00033951
0.000352477
0.000357359
0.000323844
0.000258937
0.000202563
0.000176884
0.00018462
0.000205797
0.00018998
0.000185406
0.000205667
0.00021432
0.000216975
0.000221529
0.000245352
0.000264414
0.0002883
0.000312495
0.000332285
0.000345381
0.000347773
0.00034498
0.000337899
0.000105023
7.0836e-05
5.02541e-05
3.65881e-05
3.03369e-05
2.98354e-05
3.23647e-05
3.80875e-05
4.08084e-05
4.43692e-05
4.79786e-05
5.34596e-05
6.23872e-05
7.1249e-05
7.55993e-05
7.94488e-05
8.36604e-05
8.81157e-05
9.24473e-05
9.43013e-05
9.1728e-05
8.48204e-05
8.11776e-05
7.5117e-05
6.90577e-05
6.38186e-05
5.82297e-05
5.36982e-05
4.99881e-05
4.71081e-05
4.47854e-05
4.34756e-05
4.26892e-05
4.22563e-05
4.20458e-05
4.19901e-05
4.19678e-05
4.19799e-05
4.20487e-05
4.21014e-05
4.20804e-05
4.20265e-05
4.20507e-05
4.22137e-05
4.25189e-05
4.29997e-05
4.38319e-05
4.48435e-05
4.57364e-05
4.63738e-05
4.70524e-05
4.7555e-05
4.78286e-05
4.79402e-05
4.78377e-05
4.75703e-05
4.77383e-05
4.81713e-05
4.92209e-05
5.14684e-05
5.41064e-05
5.52083e-05
5.53766e-05
5.5362e-05
5.5429e-05
5.57012e-05
5.60512e-05
5.59054e-05
5.56673e-05
5.57329e-05
5.64967e-05
5.85102e-05
6.19498e-05
6.54641e-05
6.66271e-05
6.61231e-05
6.67944e-05
6.98657e-05
7.34147e-05
7.79888e-05
8.57217e-05
9.74452e-05
0.000109926
0.000115147
0.000113502
0.000106611
9.46813e-05
8.44173e-05
8.26716e-05
8.56788e-05
9.2752e-05
0.000106007
0.00013226
0.000177721
0.000187869
0.000186482
0.000188998
0.000186457
0.000178421
0.00015709
0.000127274
0.00010655
9.42909e-05
8.8076e-05
8.61747e-05
8.6052e-05
8.89463e-05
9.50242e-05
9.7601e-05
9.86739e-05
9.79773e-05
9.66306e-05
9.94507e-05
0.000108585
0.000112955
0.00011149
0.000106593
0.000116456
0.000120913
0.000116189
0.000116306
0.00012435
0.000128492
0.000129132
0.000131508
0.000136962
0.000140508
0.000140163
0.000141173
0.000146723
0.000153342
0.000158405
0.000166585
0.000174462
0.000177708
0.000181931
0.000188459
0.00019861
0.000210563
0.000222261
0.000239698
0.000258204
0.000269359
0.000278193
0.000284255
0.00028613
0.000279986
0.000279001
0.00028048
0.00028163
0.000282095
0.000268593
0.000268764
0.000277536
0.000302218
0.000315825
0.000318605
0.000313209
0.000291255
0.000251467
0.000197295
0.000162953
0.000148582
0.000158483
0.000173381
0.000161638
0.00016079
0.000175653
0.000177216
0.000176841
0.000177629
0.000186088
0.000202535
0.000221397
0.000237858
0.000251888
0.000266332
0.00027494
0.000283266
0.00028955
0.000130331
8.20291e-05
5.25878e-05
3.71157e-05
3.20066e-05
3.31404e-05
3.85482e-05
4.41644e-05
4.73906e-05
5.36501e-05
5.99652e-05
6.46806e-05
6.86973e-05
7.17619e-05
7.4345e-05
7.67419e-05
7.87334e-05
7.73515e-05
7.34568e-05
7.03488e-05
6.5951e-05
6.05567e-05
5.54519e-05
5.08243e-05
4.69656e-05
4.38224e-05
4.12009e-05
3.96999e-05
3.8775e-05
3.82034e-05
3.78929e-05
3.78951e-05
3.80504e-05
3.8316e-05
3.85993e-05
3.87225e-05
3.88173e-05
3.88728e-05
3.88772e-05
3.88435e-05
3.88941e-05
3.8981e-05
3.91218e-05
3.92883e-05
3.95337e-05
3.99927e-05
4.08261e-05
4.19963e-05
4.32322e-05
4.42559e-05
4.48595e-05
4.51991e-05
4.53609e-05
4.53894e-05
4.49694e-05
4.4505e-05
4.45063e-05
4.46913e-05
4.50312e-05
4.58257e-05
4.75801e-05
4.94195e-05
5.02781e-05
5.03858e-05
5.01283e-05
5.01655e-05
5.04104e-05
5.04679e-05
4.9912e-05
4.90692e-05
4.88229e-05
4.91308e-05
5.02005e-05
5.11955e-05
5.18667e-05
5.18841e-05
5.28124e-05
5.58381e-05
5.79184e-05
5.94694e-05
6.36487e-05
7.06882e-05
7.90873e-05
8.61288e-05
8.78579e-05
8.77702e-05
8.426e-05
7.99102e-05
8.02468e-05
8.83156e-05
0.000100557
0.000123053
0.000163535
0.000180924
0.000179077
0.000166643
0.000159137
0.000153949
0.000142886
0.000122624
0.00010071
8.86138e-05
8.31192e-05
7.94879e-05
7.80108e-05
7.73039e-05
7.82995e-05
8.27724e-05
8.99171e-05
9.30723e-05
9.3685e-05
9.26701e-05
9.47478e-05
9.9836e-05
0.000103816
0.000106391
0.000102011
0.000103555
0.000112336
0.000108779
0.000102098
0.000110048
0.000118059
0.000116746
0.000117561
0.000123529
0.000129485
0.000129789
0.000129763
0.000132134
0.000137249
0.000143567
0.000149362
0.000154129
0.00015727
0.000160392
0.000163099
0.000168796
0.000179454
0.000189697
0.000200726
0.000216246
0.000231578
0.000244946
0.000253649
0.000257304
0.000254353
0.00025204
0.000255697
0.000259959
0.000265709
0.000261767
0.0002633
0.000278242
0.000291271
0.000291599
0.000291842
0.000286626
0.000268181
0.000235917
0.000180373
0.000145141
0.000136599
0.000142127
0.000151955
0.000152885
0.000152477
0.000169556
0.00016609
0.000164285
0.000165341
0.000169699
0.000172446
0.00019127
0.000207203
0.000215007
0.00022081
0.000225598
0.000235487
0.000249973
0.000153913
8.91802e-05
5.21658e-05
3.68e-05
3.41083e-05
3.66561e-05
4.29234e-05
4.93337e-05
5.40489e-05
5.88602e-05
6.24112e-05
6.43852e-05
6.69846e-05
6.81839e-05
6.72831e-05
6.5197e-05
6.30941e-05
6.06631e-05
5.71832e-05
5.29633e-05
4.92312e-05
4.5284e-05
4.19282e-05
3.96457e-05
3.80425e-05
3.69356e-05
3.64105e-05
3.62613e-05
3.62417e-05
3.64553e-05
3.69158e-05
3.74642e-05
3.78941e-05
3.8315e-05
3.87568e-05
3.91338e-05
3.94817e-05
3.96148e-05
3.96247e-05
3.95752e-05
3.94421e-05
3.91216e-05
3.90264e-05
3.90367e-05
3.9205e-05
3.94728e-05
3.99355e-05
4.07713e-05
4.19404e-05
4.32496e-05
4.44175e-05
4.53109e-05
4.58684e-05
4.61129e-05
4.60777e-05
4.506e-05
4.41997e-05
4.40555e-05
4.41102e-05
4.43711e-05
4.48746e-05
4.60227e-05
4.78733e-05
4.89806e-05
4.91875e-05
4.90967e-05
4.92264e-05
4.95234e-05
4.91911e-05
4.78354e-05
4.68514e-05
4.659e-05
4.67809e-05
4.70704e-05
4.69178e-05
4.69016e-05
4.76708e-05
4.96769e-05
5.0928e-05
5.15907e-05
5.44811e-05
5.87252e-05
6.36053e-05
6.85081e-05
7.20361e-05
7.49026e-05
7.53637e-05
7.45088e-05
8.0699e-05
9.82852e-05
0.000123163
0.000152805
0.000171541
0.000170337
0.000157669
0.000139745
0.000133069
0.000126898
0.000117204
0.000103859
9.1336e-05
8.5007e-05
8.1572e-05
7.84669e-05
7.57827e-05
7.44261e-05
7.48056e-05
7.6216e-05
7.99224e-05
8.63331e-05
8.86118e-05
8.82498e-05
8.82827e-05
8.8875e-05
9.11434e-05
9.58234e-05
9.97135e-05
9.87893e-05
0.000100386
0.000101326
9.47151e-05
9.90785e-05
0.000107631
0.000106543
0.000105129
0.000111035
0.000119744
0.000122081
0.000121328
0.000123421
0.00012788
0.000135343
0.000142627
0.000148214
0.000149285
0.000149387
0.000149235
0.000150502
0.000158494
0.00016995
0.00018037
0.000191975
0.000202722
0.000214997
0.000228979
0.000236473
0.000237267
0.000233881
0.000236669
0.000241655
0.000250769
0.000254503
0.00025684
0.000275296
0.000284496
0.000285587
0.000287599
0.000276752
0.00026337
0.000236623
0.000187738
0.000156602
0.000136603
0.000131099
0.000134191
0.000144811
0.000153138
0.000167275
0.000161774
0.000157828
0.000156932
0.000164371
0.000155038
0.000168607
0.000187703
0.000200824
0.000201635
0.000195115
0.000195906
0.00021595
0.000176252
9.60588e-05
5.25147e-05
3.72713e-05
3.6039e-05
3.92663e-05
4.52998e-05
5.12609e-05
5.57251e-05
5.80211e-05
6.02278e-05
6.16252e-05
5.99329e-05
5.79127e-05
5.62165e-05
5.44093e-05
5.15875e-05
4.90026e-05
4.59246e-05
4.22058e-05
3.98318e-05
3.776e-05
3.61417e-05
3.53373e-05
3.46627e-05
3.42985e-05
3.42483e-05
3.41983e-05
3.42745e-05
3.45764e-05
3.50904e-05
3.57271e-05
3.64503e-05
3.72653e-05
3.81206e-05
3.88153e-05
3.95231e-05
4.02088e-05
4.06837e-05
4.10175e-05
4.12055e-05
4.12138e-05
4.09979e-05
4.04704e-05
4.00719e-05
4.00307e-05
4.02704e-05
4.06371e-05
4.1036e-05
4.18811e-05
4.2889e-05
4.42085e-05
4.56344e-05
4.64922e-05
4.68202e-05
4.67492e-05
4.5803e-05
4.429e-05
4.3942e-05
4.40884e-05
4.43403e-05
4.47496e-05
4.56331e-05
4.73093e-05
4.84373e-05
4.87065e-05
4.8759e-05
4.9003e-05
4.88172e-05
4.72234e-05
4.60505e-05
4.5614e-05
4.57954e-05
4.5938e-05
4.5313e-05
4.49777e-05
4.53231e-05
4.64307e-05
4.80982e-05
4.94504e-05
5.16784e-05
5.43303e-05
5.64628e-05
5.75723e-05
5.93677e-05
6.28937e-05
6.64467e-05
7.09695e-05
8.5363e-05
0.000115826
0.000147201
0.000162065
0.000164447
0.000154031
0.000128073
0.000118898
0.000113904
0.000109843
0.00010396
9.55333e-05
8.76596e-05
8.32393e-05
8.05806e-05
7.75624e-05
7.58572e-05
7.37271e-05
7.39696e-05
7.4038e-05
7.39231e-05
7.64932e-05
8.05557e-05
8.3386e-05
8.46733e-05
8.4638e-05
8.52224e-05
8.9159e-05
9.25596e-05
9.48725e-05
9.44936e-05
9.54116e-05
9.25005e-05
9.2919e-05
9.77874e-05
9.77945e-05
9.8306e-05
0.000102325
0.000113084
0.000116314
0.000116389
0.000119543
0.000125941
0.000129028
0.000134039
0.000141646
0.000145316
0.000144261
0.000142449
0.000140757
0.000143339
0.00015329
0.000165638
0.000176339
0.00018509
0.000192367
0.000206619
0.000218156
0.000222214
0.000220514
0.000221055
0.000226514
0.000238981
0.00024697
0.000250212
0.000271491
0.000286393
0.000288798
0.000281126
0.000263454
0.000254087
0.00023209
0.000193623
0.000159666
0.000134078
0.000130438
0.000126083
0.000130935
0.000153458
0.000161361
0.000155942
0.000151622
0.000144817
0.000160506
0.000148835
0.000143686
0.000162372
0.000188283
0.000195334
0.000177705
0.000170892
0.000186152
0.000198727
0.000105289
5.45755e-05
3.87934e-05
3.77333e-05
4.0809e-05
4.59987e-05
5.09753e-05
5.47822e-05
5.68439e-05
5.61479e-05
5.53757e-05
5.31184e-05
5.02396e-05
4.80718e-05
4.64528e-05
4.46912e-05
4.29635e-05
4.06147e-05
3.77229e-05
3.61722e-05
3.52388e-05
3.43063e-05
3.3579e-05
3.31875e-05
3.29537e-05
3.28728e-05
3.28677e-05
3.30604e-05
3.34841e-05
3.39913e-05
3.46558e-05
3.53852e-05
3.61703e-05
3.70956e-05
3.81207e-05
3.91865e-05
4.01344e-05
4.08721e-05
4.15505e-05
4.20214e-05
4.22418e-05
4.23994e-05
4.24327e-05
4.20792e-05
4.15604e-05
4.10809e-05
4.09276e-05
4.09206e-05
4.09322e-05
4.09792e-05
4.12741e-05
4.20457e-05
4.36342e-05
4.55117e-05
4.6316e-05
4.65559e-05
4.58483e-05
4.47365e-05
4.45141e-05
4.45668e-05
4.48794e-05
4.55391e-05
4.60151e-05
4.73418e-05
4.86815e-05
4.92016e-05
4.91302e-05
4.85304e-05
4.61274e-05
4.50384e-05
4.53389e-05
4.54958e-05
4.49149e-05
4.39508e-05
4.35037e-05
4.40918e-05
4.54422e-05
4.78189e-05
4.93145e-05
5.00942e-05
5.13328e-05
5.19903e-05
5.18167e-05
5.35336e-05
5.76697e-05
6.28366e-05
7.20204e-05
9.42963e-05
0.000135084
0.000153943
0.000156607
0.000153647
0.000127395
0.000110762
0.000105588
0.000102388
0.000100759
9.69718e-05
9.07444e-05
8.52812e-05
8.14365e-05
7.9101e-05
7.59558e-05
7.41713e-05
7.11344e-05
7.08476e-05
7.12078e-05
7.15648e-05
7.20392e-05
7.23918e-05
7.64085e-05
8.05789e-05
8.20771e-05
8.21247e-05
8.67795e-05
8.96998e-05
8.7134e-05
8.90741e-05
9.01733e-05
8.9565e-05
8.94669e-05
9.15805e-05
9.48389e-05
9.94899e-05
0.000101649
0.000108413
0.000110107
0.000113916
0.00012018
0.000124265
0.000124556
0.000125451
0.000132809
0.0001363
0.000136265
0.000134816
0.000132562
0.000132958
0.000138675
0.000151963
0.000164607
0.000174298
0.000179421
0.000188444
0.000200813
0.000209591
0.000208793
0.000207027
0.000211863
0.000227352
0.000239762
0.000244173
0.000269678
0.000290214
0.000286593
0.000262124
0.000242814
0.000231419
0.000209126
0.000181128
0.000150211
0.000128453
0.000122295
0.000120833
0.000122845
0.000143372
0.000152611
0.000155218
0.000148536
0.000130122
0.000149069
0.000141048
0.000136593
0.000136189
0.000170333
0.00018948
0.000177553
0.00016434
0.000170033
0.000221037
0.000114295
5.83417e-05
3.97538e-05
3.77051e-05
4.04677e-05
4.56225e-05
5.06871e-05
5.19171e-05
5.23626e-05
5.13218e-05
4.95217e-05
4.69372e-05
4.40017e-05
4.24137e-05
4.16857e-05
4.06504e-05
3.93827e-05
3.75504e-05
3.54169e-05
3.43381e-05
3.37026e-05
3.28246e-05
3.22997e-05
3.21004e-05
3.20636e-05
3.22089e-05
3.24702e-05
3.29642e-05
3.34763e-05
3.39999e-05
3.46757e-05
3.54023e-05
3.61512e-05
3.70319e-05
3.7982e-05
3.89703e-05
4.0065e-05
4.11287e-05
4.21789e-05
4.32278e-05
4.3665e-05
4.35642e-05
4.34068e-05
4.32502e-05
4.31024e-05
4.27276e-05
4.18398e-05
4.11712e-05
4.05323e-05
4.0104e-05
4.01308e-05
4.03593e-05
4.08493e-05
4.18243e-05
4.37019e-05
4.54763e-05
4.61474e-05
4.61214e-05
4.57052e-05
4.55055e-05
4.53629e-05
4.5458e-05
4.58355e-05
4.62253e-05
4.75299e-05
4.8752e-05
4.90685e-05
4.85644e-05
4.62685e-05
4.50877e-05
4.48293e-05
4.43961e-05
4.30955e-05
4.24734e-05
4.28679e-05
4.39803e-05
4.58581e-05
4.77802e-05
4.87604e-05
4.93511e-05
4.9566e-05
4.98774e-05
5.15384e-05
5.44692e-05
5.82797e-05
6.33151e-05
7.54161e-05
0.000104881
0.000144015
0.000152392
0.000149404
0.000134654
0.000107047
9.78678e-05
9.3968e-05
9.18543e-05
8.95812e-05
8.67582e-05
8.31488e-05
8.06393e-05
7.83231e-05
7.57129e-05
7.32901e-05
7.11062e-05
6.8214e-05
6.83692e-05
6.98257e-05
7.1012e-05
7.1019e-05
6.94728e-05
6.89422e-05
7.42849e-05
7.89596e-05
7.92359e-05
8.23123e-05
8.88137e-05
8.54841e-05
8.72723e-05
8.85278e-05
8.39697e-05
8.54328e-05
8.91353e-05
9.33588e-05
9.81767e-05
0.000101402
0.000100577
0.000103789
0.000112754
0.000119922
0.000120016
0.000120265
0.000121833
0.000126293
0.000129329
0.000130395
0.000130662
0.000128851
0.000128239
0.00013142
0.000141337
0.000153471
0.000164707
0.000171238
0.000177381
0.000186974
0.000199257
0.00019987
0.000195318
0.000198155
0.000215404
0.000231192
0.000239305
0.000269685
0.000291571
0.000276363
0.000230812
0.000215573
0.000200114
0.000181964
0.000164733
0.000135492
0.000127293
0.000124056
0.000119857
0.000118627
0.000128157
0.000141521
0.000152605
0.000146989
0.000126651
0.000135496
0.000129913
0.000131273
0.00012695
0.000146514
0.000179738
0.00018461
0.000167149
0.000166439
0.0002444
0.000126605
6.52608e-05
4.20507e-05
3.7783e-05
3.93822e-05
4.32467e-05
4.74591e-05
5.02278e-05
5.06192e-05
4.94608e-05
4.65402e-05
4.38815e-05
4.21206e-05
4.07275e-05
4.02798e-05
3.97028e-05
3.86396e-05
3.68366e-05
3.47052e-05
3.35121e-05
3.29944e-05
3.23974e-05
3.21541e-05
3.21551e-05
3.2204e-05
3.23729e-05
3.27214e-05
3.33054e-05
3.39366e-05
3.44203e-05
3.49749e-05
3.55615e-05
3.60873e-05
3.6809e-05
3.77177e-05
3.8713e-05
3.96623e-05
4.06982e-05
4.18101e-05
4.29108e-05
4.40887e-05
4.5187e-05
4.55247e-05
4.52988e-05
4.47817e-05
4.37568e-05
4.24924e-05
4.16879e-05
4.09492e-05
4.0397e-05
4.02531e-05
4.02901e-05
4.05637e-05
4.11118e-05
4.214e-05
4.40757e-05
4.58615e-05
4.66129e-05
4.65841e-05
4.6594e-05
4.6228e-05
4.55667e-05
4.55423e-05
4.58572e-05
4.65591e-05
4.74491e-05
4.77978e-05
4.78928e-05
4.58889e-05
4.4209e-05
4.32741e-05
4.28829e-05
4.22008e-05
4.21422e-05
4.27141e-05
4.32239e-05
4.42311e-05
4.57935e-05
4.65538e-05
4.73946e-05
4.83771e-05
4.94917e-05
5.17114e-05
5.42613e-05
5.7666e-05
6.41213e-05
8.06769e-05
0.000115619
0.000146074
0.000148626
0.000140325
0.00011683
9.68697e-05
8.95979e-05
8.53714e-05
8.18846e-05
7.96606e-05
7.80019e-05
7.62147e-05
7.41202e-05
7.1297e-05
6.85013e-05
6.70364e-05
6.44685e-05
6.36978e-05
6.47381e-05
6.79872e-05
6.89963e-05
6.90206e-05
6.78373e-05
6.56377e-05
6.6811e-05
7.19623e-05
7.53573e-05
7.98338e-05
8.38526e-05
8.37355e-05
8.63332e-05
8.84129e-05
8.32754e-05
8.4703e-05
8.95113e-05
9.26693e-05
9.33144e-05
9.56236e-05
9.90399e-05
0.000106393
0.000112026
0.000114051
0.000115314
0.000117801
0.000122868
0.000125378
0.000127067
0.000128023
0.000129854
0.000128558
0.000127402
0.000129165
0.000133555
0.000144472
0.000155459
0.000164811
0.000170989
0.000177809
0.000190468
0.000193578
0.000186517
0.000186545
0.000204852
0.000223469
0.000235541
0.000270764
0.000288523
0.000258198
0.000204884
0.000193472
0.00017581
0.000164748
0.000147531
0.000137574
0.000124309
0.000122306
0.000120957
0.000118932
0.000122994
0.000132491
0.000146741
0.000138041
0.000123569
0.000127406
0.0001217
0.000123909
0.000124626
0.00012901
0.000166844
0.000184259
0.000167384
0.000164125
0.000267909
0.000140858
7.74807e-05
4.72806e-05
3.8581e-05
3.83322e-05
4.02381e-05
4.26778e-05
4.53916e-05
4.71598e-05
4.73045e-05
4.5645e-05
4.2334e-05
4.07203e-05
3.96994e-05
3.93971e-05
3.92011e-05
3.86252e-05
3.71366e-05
3.50976e-05
3.37448e-05
3.3196e-05
3.27172e-05
3.237e-05
3.22221e-05
3.21099e-05
3.21587e-05
3.23746e-05
3.30035e-05
3.38422e-05
3.45059e-05
3.50701e-05
3.57085e-05
3.62882e-05
3.69416e-05
3.77269e-05
3.8699e-05
3.99262e-05
4.12742e-05
4.20907e-05
4.28539e-05
4.35128e-05
4.40907e-05
4.47539e-05
4.57017e-05
4.61294e-05
4.59376e-05
4.51182e-05
4.35624e-05
4.21598e-05
4.11966e-05
4.0636e-05
4.04824e-05
4.05966e-05
4.09551e-05
4.1744e-05
4.27498e-05
4.47336e-05
4.62035e-05
4.66757e-05
4.64774e-05
4.62543e-05
4.54129e-05
4.49696e-05
4.52071e-05
4.56812e-05
4.60529e-05
4.71758e-05
4.69814e-05
4.48126e-05
4.29105e-05
4.20737e-05
4.22842e-05
4.20809e-05
4.13844e-05
4.11259e-05
4.16234e-05
4.27479e-05
4.42379e-05
4.52138e-05
4.66626e-05
4.88413e-05
5.14051e-05
5.34027e-05
5.42117e-05
5.68105e-05
6.57757e-05
8.80555e-05
0.000123096
0.000144177
0.000143795
0.000130979
0.000104874
9.06427e-05
8.41571e-05
8.02318e-05
7.59434e-05
7.4559e-05
7.38337e-05
7.23457e-05
6.94958e-05
6.64471e-05
6.5875e-05
6.57499e-05
6.33765e-05
6.21666e-05
6.13659e-05
6.21931e-05
6.49898e-05
6.65078e-05
6.70191e-05