/*--------------------------------*- C++ -*----------------------------------*\
| =========                 |                                                 |
| \\      /  F ield         | OpenFOAM: The Open Source CFD Toolbox           |
|  \\    /   O peration     | Version:  dev                                   |
|   \\  /    A nd           | Web:      http://www.openfoam.org               |
|    \\/     M anipulation  |                                                 |
\*---------------------------------------------------------------------------*/
FoamFile
{
    version     2.0;
    format      ascii;
    class       volScalarField;
    object      p;
    location    "9.133";
}
// * * * * * * * * * * * * * * * * * * * * * * * * * * * * * * * * * * * * * //

dimensions      [1 -1 -2 0 0 0 0];

internalField   nonuniform List<scalar> 
12225
(
94681.3
94763.1
94921.6
95143.8
95387.4
95677.1
95955
96250.1
96522.5
96777.9
97011.5
97218.4
97392.8
97531
97610.8
97624.8
97353.4
95552.2
94668.5
94754.9
94914.4
95138
95379.7
95671.9
95947.5
96245
96516.9
96773
97006.9
97215.1
97392
97534.8
97616
97651.4
97369
96401.1
94648.3
94737.4
94898
95120.3
95364.4
95658.9
95929.1
96232.4
96502.6
96760.5
96995.9
97206.9
97390.1
97539.7
97634.7
97689.4
97566.7
97248.4
94617.8
94707.6
94869.2
95090.5
95338
95628
95901
96209.5
96476.7
96737
96974.8
97190.6
97381
97545.6
97671.9
97773.7
97787.6
97905.5
94569.2
94662.5
94825.1
95045.3
95295.8
95582
95861.4
96164.3
96437.9
96698.9
96941
97163.3
97362.5
97534.2
97684.9
97835.6
97922.9
98202.6
94503.2
94597.4
94760.7
94980.4
95233.5
95516.5
95802.8
96100.7
96381.9
96642.4
96891.3
97122
97329.7
97512.1
97680.7
97839.5
98002.6
98279.2
94412.5
94506.7
94670.7
94890.7
95146.4
95429.1
95720.5
96018.5
96304.4
96568.4
96821.8
97060.1
97277.2
97473.3
97660.7
97827
98013.3
98267.3
94311.3
94404.1
94567.9
94788.6
95046.4
95330.2
95624
95925
96216.3
96488.2
96746.2
96992.8
97215.5
97423.2
97618
97809.7
97999.9
98223.9
94199.2
94293.1
94456.8
94678
94937.8
95222.7
95517.8
95822.7
96118.8
96398.2
96660.8
96918.7
97142.9
97370
97564.7
97773.7
97961.1
98158.7
94049.6
94145.3
94309.8
94531.4
94793.2
95079.8
95378.8
95682.6
95988.9
96273.7
96543.4
96809.4
97044.3
97282.8
97483.2
97692.4
97885.3
98067.5
93853
93949.4
94114.9
94337.7
94601.4
94890.1
95193.9
95496.7
95817.6
96106.5
96386.5
96658
96908.1
97150.7
97372.7
97581.6
97790
97969.6
93598.2
93690.2
93856.8
94081.2
94347.4
94639.1
94949.1
95256.4
95585
95882
96175.3
96455.2
96719.6
96970.5
97211
97431.4
97652.3
97837.5
93259.5
93349.4
93517.2
93743.1
94011.7
94308.7
94624.8
94944
95271.2
95583
95892.5
96184
96463.3
96727.7
96981.8
97216.7
97445.8
97652.1
92812.1
92903.7
93073.3
93301.6
93574.1
93876.6
94200.2
94529.5
94863.2
95187.6
95517.5
95823.1
96118.9
96400.7
96670.4
96923.3
97165.7
97394.5
92223.2
92325.9
92499.8
92731.9
93008.9
93318.1
93648.7
93990.6
94336.5
94679.7
95019
95346.7
95663.1
95966
96256.4
96529.5
96792.1
97042.5
91483.2
91595.2
91773.9
92010.6
92293.3
92609.7
92949.4
93303.3
93663.7
94024.5
94381.4
94730.5
95069.7
95397
95711.8
96013.1
96301.8
96577.6
90596.1
90700.3
90880.3
91121.1
91409.5
91733.3
92082.5
92448.5
92824.6
93203.8
93581.4
93953.8
94318.1
94672.5
95015.7
95347
95665.8
95972.4
89606.2
89714
89895.9
90140.2
90433.4
90763.8
91121.8
91499.1
91888.9
92284.8
92681.9
93076.4
93465.2
93846
94217.3
94577.8
94926.7
95263.8
88702.2
88805.3
88988.9
89235.8
89532
89866.8
90230.9
90616.3
91016.3
91424.9
91837.1
92249.1
92657.6
93060.1
93454.7
93839.8
94214.6
94578.5
87929.1
88048.3
88236.3
88484.9
88782.7
89119.7
89487.4
89878
90285
90702.4
91125.4
91550
91973.1
92391.7
92803.8
93207.9
93602.6
93987.2
87324.7
87442.3
87631
87880
88178.3
88516.4
88886.2
89280.2
89691.8
90115.4
90546.1
90979.7
91413.2
91843.7
92268.9
92687.1
93096.8
93497.2
86845.1
86967.2
87156.3
87405.1
87703.1
88041.7
88412.6
88808.5
89223.3
89651.3
90087.6
90528
90968.8
91407.9
91842.6
92271.2
92692
93104.2
86485.8
86604.3
86792.4
87040.5
87338.2
87676.8
88048.3
88445.5
88862.4
89293.4
89733.5
90178.7
90625.2
91070.3
91511.9
91948
92377.1
92798
86219.5
86333.4
86520.1
86767.4
87064.6
87403
87774.7
88172.8
88591
89024
89466.8
89915.2
90365.8
90815.5
91262
91703.6
92138.6
92565.9
86025.6
86136.9
86321.7
86567.9
86864.5
87202.7
87574.6
87973.1
88392.2
88826.5
89271.1
89721.9
90175.3
90628.2
91078.3
91523.8
91963.1
92395
85889.7
85998.4
86181.3
86426.6
86722.9
87060.9
87432.7
87831.5
88251.1
88686.3
89132.1
89584.4
90039.7
90494.9
90947.6
91395.9
91838.2
92273.3
85802.4
85905.1
86086.2
86330.7
86626.6
86964.5
87336.3
87735.1
88155.1
88590.9
89037.4
89490.8
89947.3
90404.1
90858.5
91308.7
91753.1
92190.4
85744
85845.5
86025.4
86269.6
86565.3
86903
87274.7
87673.6
88093.9
88530.1
88976.8
89430.9
89888.4
90346.1
90801.7
91253.2
91699
92137.8
85712.9
85811.7
85990.4
86234.2
86530.2
86867.9
87239.8
87638.6
88059.1
88495.7
88942.1
89396.9
89854.8
90313.2
90769.4
91221.8
91668.5
92108.3
85703.3
85797.8
85975.6
86219.1
86515
86852.7
87224.5
87623.4
88044
88480.5
88927.5
89382.3
89840.4
90299
90755.6
91208.3
91655.6
92096.1
98622.6
98618.3
98609.5
98596
98577.9
98554.9
98527.2
98494.6
98457.2
98414.9
98367.8
98316.2
98260.2
98200
98135.6
98066.9
97994.3
97918
97838.1
97754.4
97667.1
97576.6
97483.4
97387.8
97290.5
97191.5
97090.3
96986.7
96881
96773.7
96665.6
96557.5
96449.9
96343.5
96238.7
96136
96035.6
95938
95843.4
95751.9
95663.9
95580
95500.8
95426.5
95356.7
95290.9
95229
95170.5
95115.2
95062.6
95011.6
94960.9
94909.6
94856.7
94800.8
94740
94672.5
94596.3
94509
94408.1
94291.6
94157.2
94002.3
93824.7
93622.2
93392.9
93135.5
92848.9
92532.5
92186.2
91809.2
91401.2
90963.1
90496.7
90004.7
89489.5
88953.3
88399.1
87829.9
87249
86659.4
86064.6
85474.6
84892.6
84323.2
83770.5
83232
82711
82226.9
81770.6
81348.7
80961.9
80609.5
80299.9
80033.4
79811.7
79633.5
79497.2
79402.3
79354.5
79343.7
79368
79424.1
79508.5
79621.5
79760.9
79923.1
80105
80303.9
80514.5
80731.4
80949
81159
81358.3
81545.5
81718
81867.5
81980.1
82062.7
82112.1
82141.9
82135.7
82103.6
82050.9
81983.9
81908.1
81828.2
81751.4
81683.2
81629.8
81599
81596.5
81625.5
81689.3
81788.6
81922.9
82090.7
82288.7
82511.9
82751.7
82996.9
83235.5
83452.6
83634.8
83767.8
83840.3
83846.4
83777.1
83625.1
83397.5
83087.1
82693.8
82222.9
81702.2
81160.7
80627.1
80117.3
79638.6
79201
78816.3
78498.5
78260.4
78109.2
78056.2
78103.8
78256.9
78490.7
78801.4
79198.7
79660.3
80180.5
80743.2
81343.3
81965.8
82582.9
83207.1
83833.3
84453.8
85056.4
85625.5
98615.1
98610.7
98601.8
98588.3
98570.1
98547.2
98519.5
98487
98449.4
98407
98359.9
98308.4
98252.6
98192.8
98128.5
98059.6
97986.6
97910.4
97831
97748.3
97662.4
97573.4
97480.9
97384.7
97286.2
97186.4
97085.1
96981.5
96875.9
96768.9
96661.2
96553.4
96446.1
96340
96235.6
96133.2
96033.1
95935.6
95841.3
95750.6
95663.2
95579.6
95500.7
95426.8
95356.6
95290.6
95228.7
95170.3
95115.1
95062.3
95011.1
94960.2
94908.9
94855.8
94799.3
94738
94670.1
94593.6
94506
94404.8
94288
94153.2
93998
93820.2
93617.6
93388.7
93131.4
92844.9
92529.6
92184.6
91808.8
91402.1
90965.1
90499.7
90008.6
89495.1
88961.5
88409.4
87842.7
87264.9
86678.3
86085.2
85496.1
84914.1
84345.4
83793.3
83260.9
82745.9
82260.9
81802.8
81383
80996.7
80641.7
80335.1
80067.5
79847
79672.9
79538.5
79447.2
79394
79380.8
79403.8
79461.7
79544.8
79657.9
79797.2
79959
80140.4
80338.7
80548.6
80764.6
80980.3
81188.7
81388.1
81576.7
81749.3
81896.8
82011.1
82094
82143.4
82176.6
82167.9
82135.6
82083.2
82016
81939.1
81857.8
81779.7
81710.6
81655.8
81623.1
81618.4
81647.2
81711.3
81808.6
81941.5
82108.9
82305.4
82526.8
82764.4
83008.1
83245.3
83461.2
83641.2
83773.9
83848.9
83853.9
83782.3
83633.3
83403.8
83092.6
82699.1
82227.9
81701.2
81160.1
80629.5
80122.5
79645.3
79205.8
78819
78501.4
78268
78119.4
78069.2
78120.4
78276.9
78510.5
78822.1
79222.8
79686.8
80207.2
80768.2
81365.8
81993.8
82605.3
83228.2
83854.7
84476.6
85082
85654.1
98600.9
98596.4
98587.4
98573.8
98555.4
98532.3
98504.3
98471.3
98433.6
98391.5
98345.1
98293.9
98238.5
98179
98115.1
98046.9
97975.2
97900.2
97821.4
97738.7
97652.7
97564.1
97472.3
97377.2
97279.1
97178.9
97076.6
96972.4
96866.8
96760.2
96653.1
96545.9
96439.3
96333.8
96230.1
96128.4
96028.9
95932
95838.2
95747.8
95660.9
95577.9
95499.5
95425.6
95355.6
95290
95228.2
95169.9
95114.6
95061.8
95010.2
94958.9
94907.1
94853.3
94796.1
94733.8
94664.9
94587.4
94498.9
94396.9
94279.2
94143.8
93988.3
93810.3
93607.9
93379.4
93122.7
92837
92522.9
92179.7
91805.9
91401.6
90967.4
90504.5
90015.9
89505.8
88976.7
88428.5
87864.6
87289.9
86709.7
86125.7
85538.7
84954.8
84388.2
83839.8
83311.4
82806.2
82327.6
81875.1
81454.5
81065.6
80713.4
80407.7
80143.7
79921.8
79748.8
79617.2
79525.5
79471.7
79455.8
79474.9
79526.4
79615
79729.7
79869.6
80031.2
80211.3
80407.5
80614.9
80828.1
81041.4
81249.1
81449.4
81637.8
81808.4
81954.1
82071.8
82155.7
82206.7
82236.9
82228.9
82197.4
82146.3
82079.6
81999.9
81916.5
81837.3
81766.3
81709.4
81673.2
81666.1
81691.1
81751
81848
81980.6
82144.7
82338.7
82557.2
82791.3
83030.8
83263.6
83475.8
83653.9
83784.9
83856.3
83859.3
83788.5
83637
83406.2
83096.5
82700.6
82225.2
81698.8
81161.4
80635.5
80131.3
79654.6
79214
78825.9
78510.2
78277.4
78138.5
78094.7
78153.2
78313.3
78547.6
78864.1
79270.9
79738.7
80259.3
80819.3
81422.1
82039
82650.6
83272.1
83899.6
84524.8
85134.4
85710.2
98581.7
98577.1
98568.1
98554.5
98536.1
98512.9
98484.8
98451.9
98414.7
98373.2
98327.1
98276.4
98221.8
98163.2
98100
98032.5
97961.7
97887.5
97809.5
97727.5
97641.8
97552.7
97460.4
97365
97267.1
97166.8
97064.5
96960.7
96855.5
96749.6
96643.1
96536.8
96431.2
96326.7
96223.8
96122.9
96024.2
95928.2
95835.1
95745.3
95658.8
95576.6
95498.7
95424.9
95355.5
95290.2
95228.5
95170.2
95114.8
95061.5
95009.4
94957.6
94905
94850.1
94791.8
94728.2
94657.7
94578.5
94488.3
94384.9
94266.4
94130.4
93974.6
93796.7
93594.7
93366.7
93110.5
92825.6
92512.2
92170.6
91799.8
91399.6
90970.1
90511.8
90026.5
89521.1
88999.2
88457.1
87898.2
87329.1
86754.1
86177.8
85599.7
85023.4
84460.6
83914.1
83390.5
82893.3
82422.5
81975.7
81555.7
81168.5
80821.5
80518
80257.8
80041.5
79866
79733.3
79641.3
79587.9
79571.2
79589.2
79641.1
79725.2
79837.6
79976.7
80136.6
80314.5
80508.3
80712.8
80923.4
81134.7
81341.3
81540.7
81727.4
81896.1
82041.1
82160.1
82244.6
82294.9
82324.9
82317.8
82287
82237.8
82172.1
82090.3
82004.5
81923.7
81850.5
81790.4
81750.4
81739.4
81761.9
81820.4
81913.1
82040.5
82200.1
82390
82604.2
82832.1
83066.6
83294.3
83500.9
83673.7
83800.3
83868
83868.5
83796.1
83643.5
83411.2
83100.9
82702.1
82224.7
81700.9
81172
80651.9
80148
79669.5
79228.3
78841.9
78529.3
78303
78168.2
78133.1
78200.1
78363.2
78603.8
78928.5
79341.5
79813.7
80334.7
80894.4
81499.1
82111.1
82719.9
83339.9
83971
84601
85215.8
85795.5
98559.1
98554.5
98545.5
98531.8
98513.5
98490.4
98462.7
98430.5
98394
98353.1
98307.7
98257.9
98204
98146.3
98084.1
98017.7
97947.4
97873.1
97794.8
97712.7
97626.8
97537.6
97445.3
97350.3
97252.8
97153
97051.3
96948.1
96843.7
96738.5
96633
96527.8
96423.3
96320
96218.2
96118.4
96020.8
95925.7
95833.4
95744.4
95659.1
95577.5
95499.8
95426.5
95357.7
95292.5
95230.7
95172.1
95116.4
95062.6
95009.9
94957.2
94903.5
94847.3
94787.3
94721.7
94649.3
94568.2
94476.2
94371.3
94251.5
94114.7
93958.6
93780.4
93578.2
93350.9
93096.7
92813.5
92501.1
92160.7
91792.5
91396
90971.7
90520.7
90043.5
89544.8
89029.7
88494.7
87942.7
87382.5
86815.6
86244.8
85674.5
85109.9
84558.2
84020.2
83502.3
83011.6
82547.2
82105.5
81688.3
81303.8
80963.2
80665.5
80409.7
80195
80021.3
79888.9
79796.5
79743.2
79726.1
79740.7
79791.2
79873.1
79983.2
80119
80275.7
80451.3
80642.7
80844.6
81052.6
81261
81465.1
81661.7
81846.2
82013.6
82157.1
82275.4
82359.4
82407.3
82442.1
82434.5
82404.1
82356.5
82290.3
82207.9
82121
82038.3
81962
81897.7
81854.7
81839.9
81855.7
81907.1
81998.5
82121.2
82275.2
82459.4
82665.6
82887.8
83115.4
83336.1
83534.6
83700.4
83821.8
83885.2
83881.1
83804.5
83649.7
83417.1
83107
82707.4
82227.5
81708.5
81186.3
80669.8
80166.6
79688.3
79250.7
78867.9
78560.2
78342.9
78209.6
78184.5
78259.5
78428.7
78680.6
79016.9
79434.8
79912.6
80434.3
80991.4
81596.6
82206.9
82812.6
83430.4
84066.1
84703.7
85324.3
85909.3
98535.5
98530.8
98521.8
98508.2
98490.1
98467.4
98440.2
98408.9
98373.2
98333
98288.4
98239.4
98186.2
98129
98067.6
98001.8
97931.6
97857.2
97778.7
97696.4
97610.7
97522
97430.4
97336
97239
97139.8
97038.8
96936.3
96832.9
96728.7
96624.4
96520.5
96417.5
96315.6
96215.3
96116.8
96020.5
95926.5
95835.3
95747.3
95662.8
95582.1
95505.3
95432.5
95364.2
95298.2
95235.8
95176.7
95120.4
95065.8
95012.1
94958.6
94903.6
94846.1
94784.5
94716.8
94641.8
94558.1
94463.8
94357.1
94235.5
94097.2
93940.8
93763.3
93561.2
93334.2
93082.5
92802.7
92493
92155.7
91790.8
91397.5
90977
90532
90064.3
89575.4
89068.3
88542.7
88000.5
87450.6
86895.2
86333.6
85770.9
85216.8
84676.8
84148.7
83638.7
83156.8
82700.7
82265.9
81851
81475.7
81143
80851.3
80598.6
80386
80213.9
80081.2
79987.7
79935
79912.9
79930.3
79980.8
80060.4
80167.3
80298.2
80450.7
80623.1
80810.9
81009.5
81213.8
81418.4
81619.2
81812.4
81994.4
82159.4
82302.7
82420
82502.5
82553.1
82583.5
82578.6
82550.3
82503.7
82435.5
82353.4
82266.1
82180.6
82100.2
82031.3
81985.2
81966.9
81977.3
82022
82104.3
82222.2
82370.5
82548.1
82746.8
82960.8
83178.5
83389.5
83580
83737.6
83851.5
83908.4
83898.5
83816.3
83657.5
83425.3
83116.4
82716.6
82238.2
81722.3
81203.4
80688.3
80187.2
79714.3
79284.3
78910.2
78607.2
78382.6
78265.2
78248.1
78331.3
78511.4
78775.6
79127.8
79549.8
80034.3
80557
81109.2
81714.7
82323.5
82928
83543.5
84182.4
84828.4
85455
86048.1
98513.2
98508.6
98499.6
98486.2
98468.3
98446
98419.6
98389.1
98354.1
98314.8
98271.4
98223.2
98170.4
98113.3
98051.8
97985.8
97915.6
97841.3
97763.3
97681.7
97596.9
97508.9
97417.9
97323.9
97227.3
97128.5
97028.1
96926.7
96824.5
96721.8
96618.8
96516.5
96415
96314.7
96215.8
96118.8
96024.2
95931.9
95842.3
95756.1
95673.2
95593.7
95517.2
95443.4
95373.2
95308.1
95245.7
95185.7
95128.2
95072.5
95017.6
94962.5
94905.9
94846.8
94783.9
94714.8
94637.7
94551.2
94454
94344.7
94221.3
94080.9
93922.4
93745.2
93545.4
93319.5
93069.1
92793.3
92488.5
92156.4
91797.2
91407.9
90991.1
90551.7
90092.9
89614.7
89117.2
88602.3
88073.2
87533.4
86988.2
86437.6
85885.1
85342.5
84815.5
84300
83801.6
83329.2
82880.9
82452.3
82045.6
81680.2
81355
81069.2
80821.2
80612.3
80442.5
80310.1
80216.1
80166.2
80151.2
80167.2
80213.4
80287.6
80390.4
80516.1
80663.4
80829.9
81012
81205.6
81405.8
81607.5
81806.3
81996.5
82174.7
82336.6
82480.4
82596.2
82678
82731.1
82756.5
82753.8
82727.9
82681
82611.2
82528.2
82441
82352.5
82268.1
82194.6
82144.6
82120.4
82125.3
82162.1
82236.6
82345.5
82486.3
82655.6
82845.3
83051.8
83258.8
83458.3
83636.8
83784.5
83889.9
83939.6
83922.7
83833.9
83671.2
83438.6
83130.9
82731.3
82253.3
81741.4
81224.6
80713.7
80221.4
79758.4
79340.3
78976.7
78678.6
78462.7
78342.9
78328.8
78420.2
78610.4
78889.6
79257.8
79684.8
80176.3
80698.1
81248.3
81853
82460.2
83064.8
83679.6
84319.8
84969.9
85605.7
86209.3
98494.8
98490.1
98481.2
98467.9
98450.3
98428.5
98402.6
98372.8
98338.6
98299.8
98256.6
98209
98156.6
98099.9
98038.8
97973.4
97903.7
97829.9
97752.4
97671.4
97587.1
97499.5
97408.8
97315.2
97219.3
97121.6
97022.6
96922.6
96821.8
96720.5
96619.3
96518.6
96418.6
96319.8
96222.5
96127.1
96033.9
95943
95855.1
95770.6
95689.8
95612.1
95536.5
95463.2
95393.8
95327.4
95263.6
95202.3
95142.9
95085.2
95028.4
94971.4
94913
94852
94787
94715.7
94636.7
94548.7
94449.4
94337
94211
94070
93910.1
93730.3
93531.7
93309.5
93060.1
92785.3
92484.8
92160.3
91810.4
91427.6
91015
90583.1
90134.6
89667.5
89180.7
88676.9
88160.6
87631.8
87096.3
86558
86020.1
85491.1
84976.3
84472.8
83987.1
83525.3
83084.4
82663.9
82270.5
81915.4
81598.6
81318.8
81078.2
80874.9
80709
80578.9
80501.2
80451.2
80433.2
80445.1
80484
80551
80646.9
80768
80909.9
81070
81246.3
81434.7
81630.8
81830.2
82027.5
82215.8
82389.6
82549.9
82690.5
82804.9
82887.4
82939.3
82967.6
82964.2
82938.4
82891
82822
82736.6
82646.8
82554.8
82467.6
82390.9
82334.8
82302.3
82299.5
82327.7
82393.1
82493.1
82624.8
82783.7
82963.6
83156.4
83356
83543.4
83708.5
83843.4
83938.4
83980
83955.6
83859.8
83693.2
83459.1
83152.5
82753.1
82276.7
81768.6
81254.6
80751.6
80274
79822.1
79419.3
79068
78784.3
78577.1
78442.1
78429.9
78526.9
78727.5
79024.6
79406.4
79841.5
80340.6
80857.9
81414.6
82016.6
82613.6
83220.3
83839.4
84480.7
85133.3
85779.8
86394.8
98482.8
98478.1
98469.1
98456
98438.8
98417.4
98392
98362.3
98328.5
98290.2
98247.4
98200
98148.3
98092.3
98031.9
97966.9
97897.7
97824.7
97748
97667.9
97584.4
97497.7
97407.9
97315.4
97220.7
97124.4
97026.8
96927.9
96828.3
96728.4
96628.7
96529.4
96430.9
96333.7
96238.2
96144.6
96052.8
95963.3
95876.6
95792.9
95712.4
95633.3
95559.3
95489.3
95420.6
95354.1
95290
95227.8
95166.7
95107.1
95048
94988.7
94927.8
94864.1
94796.4
94722.5
94641.2
94551.2
94450.2
94336.3
94207.4
94064.3
93905.4
93725.7
93525.2
93305.1
93060.7
92788.8
92489
92167.4
91826.2
91454.4
91050.7
90629.2
90192.1
89734.3
89257.7
88767
88264.4
87750
87226.1
86698.7
86176.7
85664.2
85161.7
84671.5
84199
83747.7
83314.6
82902.7
82521.1
82177.5
81869.2
81598.6
81369.2
81179
81029.2
80914.4
80823
80763.4
80739.6
80747.3
80781.2
80841.6
80929.3
81046.2
81184.6
81341.7
81515.6
81700.8
81891.2
82086.4
82281.3
82468
82639.9
82797.8
82936.3
83049.7
83131.7
83179.4
83216.5
83211.4
83183.3
83137.3
83072.2
82982.7
82884.8
82788
82700.1
82619.8
82555.2
82515.9
82504
82522.1
82577.4
82667.8
82787.8
82934.9
83104
83284.6
83472.9
83646.5
83797.1
83917.5
83999.4
84031.5
83999.7
83896.9
83724.6
83489.6
83183.9
82785.4
82311.3
81807.2
81297.4
80806.2
80341.9
79902.2
79512.4
79171.5
78893.6
78692
78563.1
78554.2
78656.1
78867.7
79181.1
79575.7
80022.4
80529.8
81042.5
81605.7
82201
82790.8
83394.5
84020.8
84667.1
85324.1
85983.6
86604.4
98479.9
98475.1
98466.1
98453
98435.8
98414.7
98389.5
98360.1
98326.5
98288.8
98246.6
98200
98148.8
98093.3
98033.4
97969.2
97900.9
97828.8
97753.4
97674.6
97592.4
97506.9
97418.2
97326.9
97233.5
97138.4
97041.8
96944.1
96845.8
96747.4
96649.2
96551.7
96455
96359.6
96265.9
96174
96083.9
95996.1
95910.5
95827.4
95746.8
95670.6
95596.6
95525.2
95456.6
95390.1
95325.6
95262.5
95200.5
95139.3
95078
95016.1
94952.5
94885.8
94815
94738.3
94654.3
94562
94458.7
94343
94214.1
94068.9
93907.8
93729.6
93530.2
93309.6
93068.3
92804
92510.7
92190.1
91852.4
91490.7
91098.6
90687.2
90261.9
89815.2
89348.5
88870.9
88384.5
87887.4
87378.3
86861.1
86349.7
85853.1
85366.9
84893.5
84435.1
83994.1
83570.1
83168.5
82798.1
82464.8
82166.9
81906.1
81686.9
81504.8
81353.5
81234.3
81144.5
81086.1
81062.8
81068.3
81099.1
81157.3
81242.4
81354.4
81490.2
81645
81817.4
82000.7
82186.7
82376.1
82568.1
82754.5
82926.4
83080.3
83218.8
83332.5
83415
83465.5
83496.8
83495.7
83466.8
83419.6
83354.4
83261.2
83155.9
83054.6
82966.2
82880.4
82805.8
82762.4
82743.4
82750.4
82793.9
82873.1
82978
83110
83267.9
83435.7
83608.6
83768.9
83905.8
84010.9
84077.9
84098.2
84058.2
83948.2
83769.5
83533.8
83228.7
82831.4
82360.1
81860.4
81358
80878.8
80423.8
79997.8
79617.4
79284
79011.2
78809.9
78703.5
78702.1
78812
79035.5
79361.5
79767.7
80227.2
80739.2
81254.3
81819.5
82405.4
82992.4
83592.6
84221.9
84879.8
85545.7
86217.8
86839.9
98488.3
98483.3
98474.2
98461
98443.7
98422.5
98397.4
98368.2
98335
98297.5
98255.7
98209.6
98159.2
98104.8
98046.2
97983.5
97916.8
97846.3
97772
97694.2
97612.8
97528.2
97440.7
97350.9
97259.1
97165.6
97070.6
96974.6
96878.2
96781.6
96685.5
96589.9
96495.3
96401.7
96309.6
96219.2
96130.8
96044.7
95960.7
95879.2
95800.8
95724.7
95650.7
95579.1
95509.5
95441.6
95375.1
95310.3
95246.8
95183.3
95119.7
95055.3
94989
94919.6
94845.7
94766.5
94679.7
94584.1
94479.2
94361.2
94230.7
94086.3
93924.3
93745.4
93548.1
93329.2
93087.9
92826.4
92542
92229.5
91897.8
91544.8
91162.2
90759
90344.9
89912.9
89460.8
88996.8
88525.1
88043.6
87550.8
87046.5
86542.4
86055.1
85586.2
85133.6
84694
84265.5
83852.9
83462.4
83102.4
82778.7
82491.1
82239.3
82023.7
81839.4
81687.6
81573.1
81490.8
81439.5
81414.5
81415.2
81446.3
81508.8
81595.3
81702
81830.4
81979
82146.7
82327.5
82514.8
82700.4
82889.4
83074.4
83246.5
83400.8
83537
83651.2
83736.4
83790.2
83818.5
83817.1
83790.5
83739.8
83666.6
83570.4
83463
83358.9
83263.7
83171.3
83089
83041
83015.8
83009.1
83037.8
83104.2
83194.8
83312.1
83457.2
83610.4
83765
83914
84036
84126.2
84178.7
84186.2
84136.3
84017.9
83832.8
83596.2
83291.4
82895.5
82426.8
81931.8
81438.1
80973.3
80521.3
80112.7
79741.6
79419.8
79158.4
78965
78871.2
78880.2
78999.1
79233.1
79569.1
79984.7
80459.3
80970.7
81489.7
82059.4
82638.4
83217.3
83819
84448.9
85120.9
85796.6
86475.6
87100.1
98510.1
98504.9
98495.7
98482.4
98464.8
98443.3
98418.1
98389
98355.7
98318.6
98277.5
98232.5
98183.5
98130.4
98073
98011.5
97946
97876.9
97804.4
97728.4
97649
97566.5
97481.1
97393.1
97303
97211.1
97118
97023.9
96929.1
96834.1
96739.6
96645.7
96552.8
96461.2
96371
96282.4
96195.6
96110.9
96028.4
95948.4
95870.7
95795.1
95721.8
95650.1
95579.7
95510.6
95442.8
95376.3
95310.7
95244.8
95178
95110.6
95040.7
94968
94891.3
94808.7
94719.6
94621.3
94513.6
94394.7
94262.2
94116.4
93954.9
93776.8
93580.2
93364.9
93128
92868.1
92587.8
92282.7
91958.2
91616.6
91245.9
90851.6
90448.6
90031
89593.6
89144.4
88688.9
88224.4
87747.8
87260.1
86768
86287.4
85831.7
85397.6
84976.6
84563
84163
83784.6
83436
83122
82843.4
82600.5
82390.5
82213.4
82068.6
81958.3
81878.9
81828.9
81804.8
81806.1
81840.1
81900.8
81982.1
82087.1
82209.7
82349.9
82510.5
82686.8
82875.8
83061.9
83246.4
83429.6
83603.7
83760
83896.3
84008.8
84097.8
84152.9
84178.2
84174.4
84151.8
84101.2
84018.4
83918.9
83810.8
83701.3
83593.3
83495
83409.8
83351.5
83315.1
83295
83308.4
83361.9
83438.8
83541.5
83673.8
83812.4
83948.9
84082.6
84191.7
84267.9
84305.1
84300.5
84239.9
84111.7
83920.6
83681.2
83377.4
82983.5
82516.4
82025.8
81540.2
81093.1
80647
80257.5
79900.1
79589
79329
79160
79075.6
79092.4
79219.4
79463
79807.3
80232.5
80721.6
81231.1
81753.1
82329.5
82903.6
83466.3
84076.5
84711.8
85391.7
86076.1
86755.2
87387
98546.8
98541.4
98531.9
98518.5
98500.9
98479
98453.2
98423.7
98390.6
98353.8
98313
98268.6
98220.6
98169
98113.8
98054.9
97992.1
97925.5
97855
97781.2
97704.3
97624.3
97541.5
97455.8
97367.5
97277.3
97185.8
97093.3
97000.2
96907.1
96814.6
96723.1
96632.6
96543.2
96454.6
96366.7
96280.1
96196
96114.7
96036.5
95961.1
95885.7
95812.3
95740.5
95670.3
95600
95530.4
95461.4
95393.1
95324.8
95255.2
95184
95110.7
95034.2
94954.7
94869.7
94777.8
94677
94566.4
94445.7
94312.4
94165.5
94003.4
93826.4
93631.3
93416.2
93183.7
92930.4
92656.5
92358.2
92038
91706.2
91350.9
90968.7
90575.3
90171
89748.7
89314.7
88874.9
88427.9
87968.7
87498.6
87023.5
86553.9
86105.8
85684.4
85281.8
84884.2
84499
84134
83796.7
83493.4
83224.9
82992.4
82790.2
82619
82480.5
82373.1
82293.9
82243.9
82222.1
82229.8
82266.3
82323.8
82400.1
82505.5
82628.3
82765.8
82918.5
83086.5
83268.9
83457.6
83639.8
83821.5
83997.2
84153.3
84290.8
84405.8
84496.2
84555.5
84573.5
84572.1
84554
84504
84413.5
84306.6
84195.1
84079
83963.6
83860.8
83773.7
83698.4
83642.5
83610.8
83612.4
83649.9
83710.3
83799.2
83917.9
84043.4
84163.4
84276.7
84378.5
84441.2
84462.5
84446.2
84374.3
84235.2
84037.5
83796
83492.8
83100.6
82635.2
82148.7
81669.7
81236.8
80809.9
80434.4
80096.1
79801.5
79559.9
79398
79323
79342.2
79476
79729.1
80079.2
80514.5
81015
81525.6
82051
82631.8
83197.3
83744.1
84368.1
85013.7
85690.7
86387.5
87064
87698.2
98599
98593.3
98583.1
98569.2
98551.5
98529.5
98503.1
98472.8
98438.9
98401.9
98362.3
98319.7
98273.8
98224.5
98171.7
98115.5
98055.3
97991.4
97924.1
97853.6
97779.9
97703
97623
97539.9
97454.1
97366.2
97276.8
97186.5
97095.9
97005.4
96915.5
96826.3
96737.7
96649.8
96562.7
96475.9
96390.4
96307.1
96225.8
96146.3
96069.2
95996.7
95924.9
95852.9
95779.7
95709
95639.2
95568.5
95498.1
95426.7
95353.9
95278.8
95201.8
95122.1
95038.9
94950.8
94855.8
94753.1
94640.5
94517.7
94383.6
94236.8
94074.4
93896.9
93704.6
93492.9
93262.6
93012.7
92744.9
92456.7
92144.3
91819.8
91477.9
91108.9
90726.8
90336.5
89929.7
89510.5
89085.6
88654.9
88213
87760.3
87303
86848.6
86408.9
85997.2
85609.9
85230.8
84860.8
84510.6
84184.5
83890.9
83633.5
83415.1
83219.3
83055.3
82922.6
82819.8
82743.1
82693.8
82674.1
82685
82722.4
82780.9
82860.9
82963
83083.3
83220.3
83366.2
83523.9
83697.8
83887
84070.9
84251
84426.5
84585.5
84723.1
84840.7
84932.3
84991.3
85006.9
85010.6
84998.8
84943.7
84847.5
84733
84617.3
84499.2
84381.4
84273.7
84177.3
84083.5
84007.9
83967.9
83958.9
83974.9
84018.5
84093.9
84196.2
84304.1
84399.7
84501.1
84597.1
84648
84655.6
84627.8
84545.9
84396.2
84189.8
83945.8
83644.7
83253.6
82790.4
82306
81832.8
81407.9
81010.7
80644
80330.1
80056.1
79842.5
79686.6
79615.1
79633.8
79774
80034.7
80392.2
80833.3
81344.1
81857
82383.6
82965.6
83518.9
84058.8
84692.5
85349.1
86021.5
86725.8
87402.3
88030.3
98666.6
98660.9
98648.7
98634
98615.1
98591.9
98564.7
98533.9
98500.1
98463.5
98424.2
98382.8
98339.7
98294.2
98245.3
98192.9
98136.6
98076.7
98013.1
97946.2
97876.2
97803
97726.7
97647.4
97565.5
97481.3
97395.3
97308.1
97220.3
97132.3
97044.4
96956.7
96869.3
96782.7
96696.7
96611.2
96527
96445
96364.7
96285.9
96209.4
96135.3
96062.4
95988.7
95914.6
95841.3
95768.9
95697.8
95625.8
95552.3
95476.5
95398.3
95317.7
95234.4
95147.4
95056.1
94958
94852.6
94738.5
94614.2
94478.8
94331
94169.8
93993
93801.1
93592.2
93366.9
93123.3
92860.5
92581.2
92278.4
91960.5
91631.3
91276.5
90905.1
90528.1
90137.4
89734.1
89324.8
88910.4
88485.1
88049.2
87608.4
87171.2
86743.4
86341.2
85965.6
85603.7
85248.8
84915
84601.1
84315.9
84064.2
83847.9
83666.8
83515.5
83392.6
83298.4
83229.1
83184.7
83168
83179.7
83218.6
83279.9
83360.9
83456.8
83569.5
83705.1
83851
84003.3
84170.6
84354.9
84539.6
84718.6
84894
85055.3
85195.7
85311.8
85406.5
85464.1
85481
85489.6
85476.9
85414.2
85317.6
85202.8
85086
84968
84847.1
84730.3
84619.3
84510.2
84420.8
84371.7
84347
84338.2
84366.7
84431.7
84514.9
84604.1
84691.9
84779.4
84855.4
84894.9
84889.2
84849.9
84759.7
84601.8
84385.5
84139.4
83840.3
83450.7
82989
82505.7
82036
81615.9
81239.3
80894.3
80596
80346.8
80140.6
80013.9
79952.2
79971.3
80113.6
80381.5
80750.7
81191.3
81715.2
82226.2
82753
83330.3
83869.7
84416.1
85052.5
85725.1
86388
87091.2
87767.3
88394.4
98749.7
98742.5
98726.4
98711
98688
98661.3
98631.6
98599.7
98566.3
98531.4
98495
98457.4
98418.1
98376.8
98333.1
98286.3
98235.7
98181.2
98122.8
98060.7
97995.2
97926.3
97854.5
97779.8
97702.1
97622
97539.9
97456.1
97371.2
97285.7
97199.9
97114
97028
96942.7
96858.5
96774.5
96691.3
96610.3
96530.9
96452.5
96375.6
96300.2
96226
96151.7
96076.8
96002.2
95928
95853.3
95778.9
95703.3
95625.4
95544.7
95461
95375
95284.6
95189.1
95088.1
94979.8
94863.2
94737.4
94601.9
94453.4
94292.2
94116.9
93927.1
93721.5
93498.2
93260.6
93004.7
92733.6
92443.6
92132.5
91813.2
91474.6
91114.6
90749.7
90374.6
89987.2
89593.6
89195.7
88787.9
88368.7
87944
87522.8
87109.6
86717.1
86352.2
86006.8
85664.6
85343.2
85046.6
84773.2
84529.3
84318.1
84147.6
84003.2
83889.6
83804
83744.5
83708
83695.7
83709.4
83749
83809
83890.1
83985.4
84093.7
84225.1
84372.9
84525.1
84684
84858.2
85044.7
85224.4
85401
85562.8
85701.4
85820
85916.5
85976.1
85997.2
86013.4
85986.3
85921.2
85828.4
85718.1
85603.2
85485.7
85361.3
85233.5
85106.9
84985.9
84884.6
84819
84769.9
84739.9
84758.3
84812.5
84876.4
84948
85028.5
85105.1
85168.3
85197.2
85175.9
85124.7
85026.1
84860.2
84633.2
84385.1
84087.7
83699.3
83240.7
82755.7
82289.3
81871.3
81507.8
81182.8
80900.8
80646
80471.8
80376.4
80332.1
80349.8
80495
80771.1
81152.7
81594.4
82130.1
82634.1
83163.4
83728.1
84266.6
84815.3
85459.9
86159.5
86791.3
87489.6
88163.1
88807
98845.9
98836.6
98818.9
98793.4
98762.2
98728.4
98693.8
98660
98628.2
98598.4
98570.2
98541.2
98509.2
98474.3
98436.5
98395.5
98350.8
98302.4
98250.2
98194.1
98134.2
98070.8
98004.1
97934
97860.9
97785.4
97707.5
97627.6
97546.3
97463.8
97380.9
97297.4
97213.6
97130.2
97047.5
96965.1
96883.6
96803.7
96724.8
96646.7
96569.6
96493.6
96418.4
96342.3
96266
96190.8
96114.9
96037.9
95960.4
95882.6
95802.1
95719
95632.8
95543.4
95450.5
95352.4
95248.5
95137.5
95019.5
94892
94754.8
94606.5
94445.9
94272.5
94083.8
93882.8
93665.2
93432
93183.6
92917.7
92639
92338.7
92026.8
91704.1
91357.7
91003.2
90643.9
90272.5
89894.4
89512.3
89123.4
88722.1
88313.8
87906.7
87508.5
87127.1
86772.8
86439.1
86115.5
85803.5
85522.4
85263.4
85030.8
84833.2
84669.7
84531.9
84422.3
84342.3
84288.7
84258.8
84252
84268.9
84309
84368.6
84453.6
84553.5
84661.6
84784.6
84927.9
85082.8
85238.3
85408
85595.3
85777
85951.8
86116.9
86252.7
86373.5
86472
86532.5
86559.3
86579.8
86533
86475.3
86391
86287.2
86176.4
86058.2
85926.5
85784.6
85642.4
85508.4
85390.7
85300.7
85231.4
85190.9
85198.8
85234.8
85277.8
85332.3
85403.7
85477.4
85530.2
85556.2
85521
85459.9
85353.2
85179
84940.8
84684.3
84390.2
84007.4
83553.5
83065
82600.2
82184.3
81828.7
81520.8
81254.4
81007.4
80845.7
80777
80755.7
80773.9
80921.8
81207.2
81600.1
82047.5
82593.1
83084.2
83614.7
84167.6
84713.8
85267.1
85916.1
86642.5
87228.1
87925.3
88595.8
89255.1
98956.8
98950.7
98930
98889.5
98836.9
98790.5
98749
98713.6
98684.6
98661.8
98642.4
98624
98603.9
98579.9
98551.3
98518
98480.4
98438.8
98393
98343.3
98289.5
98232.1
98171.1
98106.7
98039.3
97968.9
97895.9
97820.6
97743.4
97664.7
97585.3
97505.3
97424.6
97343.8
97263.4
97183.2
97103.5
97024.3
96945.9
96868.3
96790.7
96713.6
96637.3
96561
96484.4
96407.7
96330.8
96252.9
96173.8
96092.8
96009.9
95924.2
95835.3
95743.2
95647.6
95546.6
95440.8
95328.6
95208.6
95080.1
94942.1
94793.9
94633.1
94462.1
94277.3
94078.6
93867
93638.8
93398.7
93140.3
92869.3
92581.8
92276.6
91966.1
91635.9
91290.6
90944.7
90590.2
90228.7
89861.6
89491.1
89108.9
88718.3
88326.2
87942.1
87573.1
87230.1
86908.1
86602.2
86298.7
86031
85785.8
85564.8
85377.8
85225
85096.5
84992.4
84917.2
84867.5
84841.2
84839.9
84861.5
84905.8
84969.7
85056.3
85155.8
85265.8
85383.1
85520
85680.3
85842.3
86010
86191.7
86374.5
86547.1
86712.1
86847.4
86968.3
87072.6
87134.6
87178.2
87180.7
87130.4
87083.4
87012
86917.6
86811.8
86685
86537.2
86380.6
86222.9
86070.9
85933.7
85820.8
85735.2