/*--------------------------------*- C++ -*----------------------------------*\
| =========                 |                                                 |
| \\      /  F ield         | OpenFOAM: The Open Source CFD Toolbox           |
|  \\    /   O peration     | Version:  dev                                   |
|   \\  /    A nd           | Web:      http://www.openfoam.org               |
|    \\/     M anipulation  |                                                 |
\*---------------------------------------------------------------------------*/
FoamFile
{
    version     2.0;
    format      ascii;
    class       surfaceScalarField;
    object      phi;
    location    "9.133";
}
// * * * * * * * * * * * * * * * * * * * * * * * * * * * * * * * * * * * * * //

dimensions      [1 0 -1 0 0 0 0];

internalField   nonuniform List<scalar> 
24170
(
1.24419e-06
2.14516e-06
-3.64633e-07
1.52713e-06
-1.42688e-06
9.97146e-07
-2.24219e-06
7.70378e-07
-3.13546e-06
8.84004e-07
-3.69169e-06
5.78111e-07
-4.53794e-06
9.07235e-07
-4.99687e-06
5.55119e-07
-5.65107e-06
7.84001e-07
-6.13876e-06
6.50746e-07
-6.81419e-06
8.65406e-07
-7.04138e-06
4.42588e-07
-7.90146e-06
1.09726e-06
-7.67058e-06
2.23865e-08
-7.7461e-06
3.41373e-07
-4.64396e-06
-2.81915e-06
-8.93569e-07
-3.46299e-06
8.79483e-06
-9.37874e-06
2.92162e-06
2.85537e-06
1.47418e-06
2.89106e-06
2.56004e-07
2.14206e-06
-8.42146e-07
1.82563e-06
-1.77223e-06
1.80752e-06
-2.51709e-06
1.35931e-06
-3.44146e-06
1.90956e-06
-3.9877e-06
1.22528e-06
-4.83991e-06
1.7944e-06
-5.36882e-06
1.38027e-06
-6.06899e-06
1.79364e-06
-6.74353e-06
1.37655e-06
-7.12096e-06
1.75699e-06
-7.52806e-06
7.26941e-07
-9.30853e-06
2.41436e-06
-6.80651e-06
-4.97952e-06
-7.30585e-06
-2.58716e-06
1.20213e-05
-1.00869e-05
3.56827e-06
3.30519e-06
2.45433e-06
3.89937e-06
1.48626e-06
3.01965e-06
5.24448e-07
2.73017e-06
-5.37441e-07
2.85485e-06
-1.20643e-06
2.05486e-06
-2.18947e-06
2.97014e-06
-2.53268e-06
1.69653e-06
-3.66953e-06
3.09873e-06
-3.8826e-06
1.80457e-06
-5.00557e-06
3.1658e-06
-5.48099e-06
2.13336e-06
-5.70169e-06
2.28766e-06
-7.55737e-06
2.92231e-06
-7.59717e-06
2.80321e-06
-1.02488e-05
-1.95094e-06
-1.65616e-05
4.13155e-06
1.05641e-05
-1.45257e-05
3.70424e-06
4.07297e-06
3.03937e-06
4.4397e-06
2.04852e-06
3.90836e-06
1.52553e-06
3.18204e-06
2.60789e-07
4.10044e-06
1.33008e-07
2.20316e-06
-1.2514e-06
4.43823e-06
-1.33652e-06
1.90805e-06
-2.54009e-06
4.48274e-06
-2.68048e-06
2.16876e-06
-4.05153e-06
4.80321e-06
-4.14894e-06
2.53172e-06
-5.13598e-06
3.6103e-06
-5.78696e-06
3.92921e-06
-7.53589e-06
4.94484e-06
-1.16862e-05
2.60642e-06
-1.33755e-05
6.2469e-06
1.23078e-05
-1.45889e-05
3.80862e-06
5.26927e-06
3.88908e-06
4.21254e-06
2.66717e-06
5.01074e-06
2.36523e-06
3.39907e-06
9.46864e-07
5.49102e-06
7.54942e-07
2.41178e-06
-5.42561e-07
5.81909e-06
-8.88329e-07
2.38537e-06
-1.92994e-06
5.71379e-06
-2.00748e-06
2.48161e-06
-3.11167e-06
6.19027e-06
-3.58267e-06
3.3284e-06
-4.49743e-06
4.88484e-06
-4.9358e-06
4.7556e-06
-5.95516e-06
6.38109e-06
-9.24818e-06
6.33081e-06
-1.1068e-05
8.53237e-06
1.41426e-05
-1.24161e-05
4.062e-06
6.52523e-06
3.90322e-06
4.2003e-06
2.59187e-06
6.17797e-06
1.93814e-06
3.9525e-06
8.31941e-07
6.55277e-06
2.55803e-07
2.99675e-06
-4.93261e-07
6.64441e-06
-1.42286e-06
3.44929e-06
-2.14791e-06
6.63305e-06
-2.24873e-06
2.82995e-06
-3.32325e-06
7.56523e-06
-3.78461e-06
4.14076e-06
-5.25546e-06
6.74194e-06
-5.78253e-06
5.70172e-06
-5.30318e-06
6.34945e-06
-9.16898e-06
1.06664e-05
-1.06925e-05
1.05456e-05
1.37533e-05
-9.81968e-06
4.52981e-06
7.73938e-06
3.8144e-06
4.70694e-06
2.38102e-06
7.43927e-06
1.45587e-06
4.74886e-06
7.47986e-07
7.1881e-06
-3.65607e-07
4.10249e-06
-9.8956e-07
7.33228e-06
-2.78223e-06
5.3706e-06
-3.00153e-06
7.04673e-06
-4.49554e-06
4.57637e-06
-4.85525e-06
8.24161e-06
-5.50582e-06
5.15756e-06
-6.93103e-06
8.57699e-06
-7.13414e-06
6.34874e-06
-8.92663e-06
8.62449e-06
-1.09887e-05
1.32354e-05
-1.07774e-05
1.08509e-05
1.33855e-05
-9.89818e-06
3.68966e-06
8.65994e-06
2.84622e-06
5.3722e-06
1.768e-06
8.36928e-06
1.23315e-06
5.16519e-06
6.12138e-07
7.73446e-06
-2.07441e-07
4.90119e-06
-1.00007e-06
8.16174e-06
-1.91302e-06
6.3699e-06
-2.43161e-06
7.69983e-06
-4.05657e-06
6.38393e-06
-3.66771e-06
8.07571e-06
-5.52049e-06
7.28522e-06
-5.36278e-06
8.71552e-06
-6.59206e-06
7.91124e-06
-7.51945e-06
9.90277e-06
-5.19409e-06
1.12957e-05
-7.59797e-06
1.3639e-05
1.31879e-05
-7.01895e-06
4.29772e-06
9.88296e-06
3.31554e-06
6.13122e-06
2.29211e-06
9.19619e-06
1.64324e-06
5.65538e-06
7.33906e-07
8.53696e-06
-3.46288e-07
5.93686e-06
-1.36011e-06
9.19678e-06
-1.93811e-06
7.02944e-06
-2.73417e-06
8.63251e-06
-3.80131e-06
7.64582e-06
-3.65567e-06
8.15988e-06
-5.03448e-06
8.97839e-06
-4.66991e-06
8.67224e-06
-5.64801e-06
9.26632e-06
-7.05508e-06
1.17028e-05
-4.21374e-06
8.86931e-06
-6.65953e-06
1.65145e-05
1.52201e-05
-8.26737e-06
5.02808e-06
1.09829e-05
3.84024e-06
7.02773e-06
2.88295e-06
9.88854e-06
1.77426e-06
6.54738e-06
8.65007e-07
9.296e-06
-4.16083e-07
7.13446e-06
-1.34976e-06
1.0117e-05
-2.08021e-06
7.8255e-06
-2.87328e-06
9.55513e-06
-3.34102e-06
8.30692e-06
-4.24627e-06
9.3102e-06
-4.25004e-06
9.32265e-06
-5.40907e-06
1.01872e-05
-5.6683e-06
9.93072e-06
-6.02536e-06
1.25057e-05
-6.21583e-06
9.5197e-06
-5.13484e-06
1.59215e-05
1.5059e-05
-4.51504e-06
6.06729e-06
1.21209e-05
4.57767e-06
8.12635e-06
3.41777e-06
1.06907e-05
1.81971e-06
7.84819e-06
7.98131e-07
1.00988e-05
-5.41922e-07
8.33305e-06
-1.06367e-06
1.05767e-05
-2.09324e-06
8.88906e-06
-2.85995e-06
1.04248e-05
-3.535e-06
9.16416e-06
-4.39535e-06
1.0421e-05
-4.60541e-06
9.86624e-06
-5.48118e-06
1.14514e-05
-5.80035e-06
1.06786e-05
-5.36152e-06
1.25583e-05
-6.74299e-06
1.13866e-05
-5.19189e-06
1.49178e-05
1.43191e-05
-3.94497e-06
7.27016e-06
1.32948e-05
5.47358e-06
9.39153e-06
4.19729e-06
1.14754e-05
2.35931e-06
9.2704e-06
1.20269e-06
1.09298e-05
-2.82407e-07
9.58117e-06
-9.45589e-07
1.10964e-05
-2.15496e-06
1.00648e-05
-2.77647e-06
1.10912e-05
-3.82674e-06
1.036e-05
-4.40545e-06
1.12265e-05
-5.17245e-06
1.09408e-05
-5.38407e-06
1.20433e-05
-5.85003e-06
1.15779e-05
-5.6912e-06
1.2894e-05
-6.18036e-06
1.23632e-05
-4.87584e-06
1.41802e-05
1.43163e-05
-4.31659e-06
8.53642e-06
1.42472e-05
6.41548e-06
1.07897e-05
5.05933e-06
1.21457e-05
3.10687e-06
1.06283e-05
1.80825e-06
1.17227e-05
2.2832e-07
1.07718e-05
-6.75323e-07
1.17208e-05
-1.90915e-06
1.11423e-05
-2.67034e-06
1.17996e-05
-3.77459e-06
1.15304e-05
-4.36916e-06
1.19783e-05
-5.20615e-06
1.20283e-05
-5.38121e-06
1.25506e-05
-5.976e-06
1.25785e-05
-5.62079e-06
1.30052e-05
-5.82165e-06
1.306e-05
-4.66927e-06
1.3566e-05
1.38572e-05
-3.64958e-06
9.9852e-06
1.53594e-05
7.61897e-06
1.21584e-05
6.05069e-06
1.27517e-05
3.90339e-06
1.19197e-05
2.40853e-06
1.24677e-05
5.59524e-07
1.20033e-05
-4.74151e-07
1.22728e-05
-1.85526e-06
1.21769e-05
-2.72013e-06
1.24492e-05
-3.70394e-06
1.24362e-05
-4.35665e-06
1.2656e-05
-4.98247e-06
1.27928e-05
-5.21252e-06
1.30155e-05
-5.40227e-06
1.30918e-05
-5.18688e-06
1.31863e-05
-5.00973e-06
1.33328e-05
-4.3386e-06
1.33888e-05
1.33319e-05
-3.28701e-06
1.15186e-05
1.61527e-05
8.97362e-06
1.33101e-05
7.07332e-06
1.32967e-05
4.86925e-06
1.2888e-05
3.13733e-06
1.30925e-05
1.33588e-06
1.28467e-05
-1.31884e-07
1.29317e-05
-1.50041e-06
1.29073e-05
-2.55661e-06
1.30235e-05
-3.53398e-06
1.30844e-05
-4.23466e-06
1.31657e-05
-4.70348e-06
1.32019e-05
-4.92321e-06
1.32893e-05
-4.96086e-06
1.32907e-05
-4.79777e-06
1.32723e-05
-4.33568e-06
1.31973e-05
-3.6698e-06
1.31098e-05
1.29652e-05
-2.86955e-06
1.35853e-05
1.66037e-05
1.10625e-05
1.38688e-05
8.82762e-06
1.36201e-05
6.43085e-06
1.35109e-05
4.37375e-06
1.353e-05
2.34103e-06
1.34297e-05
6.43809e-07
1.33584e-05
-8.2367e-07
1.32968e-05
-2.03339e-06
1.33393e-05
-2.97527e-06
1.3313e-05
-3.66806e-06
1.33131e-05
-4.11999e-06
1.3267e-05
-4.31617e-06
1.3238e-05
-4.29679e-06
1.31539e-05
-4.06158e-06
1.30295e-05
-3.68837e-06
1.29136e-05
-3.08647e-06
1.26747e-05
1.24511e-05
-2.33851e-06
1.6089e-05
1.67354e-05
1.31583e-05
1.40036e-05
1.0465e-05
1.36104e-05
7.89196e-06
1.35503e-05
5.56422e-06
1.35088e-05
3.41807e-06
1.34261e-05
1.52783e-06
1.33105e-05
-1.0179e-07
1.3204e-05
-1.39246e-06
1.31312e-05
-2.38925e-06
1.3027e-05
-3.11288e-06
1.29563e-05
-3.57523e-06
1.28394e-05
-3.79914e-06
1.27439e-05
-3.8042e-06
1.25982e-05
-3.62317e-06
1.24235e-05
-3.21742e-06
1.2206e-05
-2.69566e-06
1.19529e-05
1.17375e-05
-2.09002e-06
1.66734e-05
1.62684e-05
1.37262e-05
1.36103e-05
1.10856e-05
1.30065e-05
8.73135e-06
1.2843e-05
6.58777e-06
1.27876e-05
4.63639e-06
1.27227e-05
2.87226e-06
1.26395e-05
1.36148e-06
1.24999e-05
1.07969e-07
1.23943e-05
-8.61736e-07
1.22226e-05
-1.58771e-06
1.21167e-05
-2.07901e-06
1.1959e-05
-2.35336e-06
1.18289e-05
-2.44075e-06
1.16591e-05
-2.37582e-06
1.14832e-05
-2.16682e-06
1.1255e-05
-1.82154e-06
1.0984e-05
1.06981e-05
-1.30063e-06
1.4505e-05
1.51076e-05
1.23156e-05
1.24092e-05
1.01645e-05
1.18698e-05
8.18999e-06
1.17035e-05
6.40375e-06
1.16443e-05
4.80432e-06
1.1582e-05
3.37913e-06
1.15211e-05
2.08952e-06
1.1443e-05
1.08414e-06
1.12536e-05
2.36811e-07
1.11155e-05
-3.994e-07
1.09863e-05
-8.46733e-07
1.08126e-05
-1.11186e-06
1.06682e-05
-1.23071e-06
1.05004e-05
-1.20815e-06
1.03256e-05
-1.07741e-06
1.01125e-05
-8.54313e-07
9.86483e-06
9.56921e-06
-5.20528e-07
1.30701e-05
1.3642e-05
1.09475e-05
1.12549e-05
9.0355e-06
1.05865e-05
7.36252e-06
1.03354e-05
5.91727e-06
1.02127e-05
4.62849e-06
1.01612e-05
3.4798e-06
1.01373e-05
2.51192e-06
1.00575e-05
1.67561e-06
9.91418e-06
9.57932e-07
9.83046e-06
4.0724e-07
9.70065e-06
-5.26941e-09
9.54411e-06
-2.66974e-07
9.39761e-06
-4.18172e-07
9.25583e-06
-4.41522e-07
9.07983e-06
-3.67736e-07
8.88509e-06
-2.05843e-07
8.65535e-06
8.39884e-06
1.19579e-08
1.18472e-05
1.19421e-05
1.0155e-05
9.84344e-06
8.50196e-06
9.20384e-06
7.03083e-06
8.90931e-06
5.71856e-06
8.77281e-06
4.53579e-06
8.74649e-06
3.44269e-06
8.79291e-06
2.54256e-06
8.68119e-06
1.74483e-06
8.59343e-06
1.11991e-06
8.49142e-06
6.45489e-07
8.35763e-06
2.75388e-07
8.23542e-06
3.76572e-08
8.08831e-06
-7.10382e-08
7.94131e-06
-8.55689e-08
7.78413e-06
-2.64532e-08
7.62113e-06
8.75682e-08
7.43206e-06
7.20671e-06
2.5881e-07
1.0229e-05
1.01825e-05
8.89552e-06
8.27599e-06
7.56831e-06
7.69482e-06
6.29565e-06
7.47082e-06
5.0857e-06
7.40481e-06
4.006e-06
7.38825e-06
3.11741e-06
7.38551e-06
2.35473e-06
7.29059e-06
1.71723e-06
7.21916e-06
1.21316e-06
7.12081e-06
8.38547e-07
6.98945e-06
5.86583e-07
6.87103e-06
3.81924e-07
6.79064e-06
2.81943e-07
6.65022e-06
2.46811e-07
6.5304e-06
2.78215e-07
6.39509e-06
3.58333e-07
6.24415e-06
6.05542e-06
4.81486e-07
9.13364e-06
8.49184e-06
7.94147e-06
6.78655e-06
6.79149e-06
6.2274e-06
5.71824e-06
6.04102e-06
4.73396e-06
6.00729e-06
3.85779e-06
6.00673e-06
3.1385e-06
5.97527e-06
2.49296e-06
5.93543e-06
1.95376e-06
5.88374e-06
1.50806e-06
5.81462e-06
1.14145e-06
5.72187e-06
8.47153e-07
5.64299e-06
6.5376e-07
5.56687e-06
5.1488e-07
5.46725e-06
4.53747e-07
5.36068e-06
4.59212e-07
5.2433e-06
5.12679e-07
5.12216e-06
4.96063e-06
6.10884e-07
8.19505e-06
6.55355e-06
7.31153e-06
5.21109e-06
6.33151e-06
4.81346e-06
5.35816e-06
4.72616e-06
4.4453e-06
4.74034e-06
3.65361e-06
4.73108e-06
2.96041e-06
4.7166e-06
2.3671e-06
4.69198e-06
1.87663e-06
4.65037e-06
1.46884e-06
4.60814e-06
1.12395e-06
4.5568e-06
8.56122e-07
4.50009e-06
6.76127e-07
4.42922e-06
5.62823e-07
4.34897e-06
5.08724e-07
4.26311e-06
5.16216e-07
4.15949e-06
5.86049e-07
4.04559e-06
3.92057e-06
6.84206e-07
7.50836e-06
5.01607e-06
6.62339e-06
3.86721e-06
5.75065e-06
3.51505e-06
4.92542e-06
3.47503e-06
4.18092e-06
3.50709e-06
3.51497e-06
3.52073e-06
2.92975e-06
3.52852e-06
2.43266e-06
3.51856e-06
2.01635e-06
3.4971e-06
1.66537e-06
3.48663e-06
1.37587e-06
3.46685e-06
1.15404e-06
3.4305e-06
9.89684e-07
3.38484e-06
8.8385e-07
3.32334e-06
8.3048e-07
3.25665e-06
8.08955e-07
3.1876e-06
8.26761e-07
3.09657e-06
3.00203e-06
8.71941e-07
6.56813e-06
3.50996e-06
5.93731e-06
2.48458e-06
5.22045e-06
2.2738e-06
4.47761e-06
2.34562e-06
3.78501e-06
2.41561e-06
3.18163e-06
2.43055e-06
2.67699e-06
2.43192e-06
2.24506e-06
2.44132e-06
1.87282e-06
2.45021e-06
1.56372e-06
2.46341e-06
1.30829e-06
2.47286e-06
1.09988e-06
2.46767e-06
9.36729e-07
2.45035e-06
8.12258e-07
2.4189e-06
7.3115e-07
2.37294e-06
6.91906e-07
2.32136e-06
6.65221e-07
2.27306e-06
2.19762e-06
6.71233e-07
5.94946e-06
2.06691e-06
5.47012e-06
1.15435e-06
4.85983e-06
1.12447e-06
4.21243e-06
1.31082e-06
3.5758e-06
1.44943e-06
2.95695e-06
1.52796e-06
2.38537e-06
1.56455e-06
1.88285e-06
1.58682e-06
1.44657e-06
1.60967e-06
1.08532e-06
1.62515e-06
7.85588e-07
1.647e-06
5.35236e-07
1.66204e-06
3.42957e-07
1.65208e-06
1.86928e-07
1.64556e-06
6.49983e-08
1.62258e-06
-3.34819e-08
1.60068e-06
-1.01341e-07
1.57141e-06
1.52933e-06
-1.56773e-07
5.3875e-06
7.47911e-07
4.8612e-06
6.07254e-08
4.15768e-06
2.52383e-07
3.42962e-06
5.32789e-07
2.72816e-06
7.15746e-07
2.05724e-06
8.36467e-07
1.42927e-06
9.03771e-07
8.48781e-07
9.51298e-07
3.45751e-07
9.6804e-07
-9.23596e-08
9.87271e-07
-4.80506e-07
1.02492e-06
-7.91143e-07
1.02417e-06
-1.05944e-06
1.0298e-06
-1.28702e-06
1.03673e-06
-1.47602e-06
1.02573e-06
-1.63947e-06
1.02529e-06
-1.77598e-06
1.01316e-06
9.90124e-07
-1.8907e-06
4.67968e-06
-3.57231e-07
3.75514e-06
-4.56223e-07
2.71084e-06
-1.06525e-07
1.73799e-06
1.63584e-07
8.48237e-07
3.26132e-07
6.51057e-08
4.05054e-07
-6.2069e-07
4.4088e-07
-1.21801e-06
4.64304e-07
-1.73201e-06
4.61337e-07
-2.17171e-06
4.67196e-07
-2.51438e-06
4.66595e-07
-2.80977e-06
4.73169e-07
-3.05256e-06
4.77524e-07
-3.24663e-06
4.83798e-07
-3.40082e-06
4.7791e-07
-3.524e-06
4.88051e-07
-3.5941e-06
4.62025e-07
4.7128e-07
-3.65995e-06
2.90191e-06
1.22423e-06
-6.73302e-08
-1.0401e-06
-1.79905e-06
-2.42439e-06
-2.95762e-06
-3.41367e-06
-3.81893e-06
-4.16719e-06
-4.46717e-06
-4.71515e-06
-4.9162e-06
-5.07111e-06
-5.19476e-06
-5.27341e-06
-5.34576e-06
-5.38099e-06
7.66324e-07
2.52045e-07
1.69308e-06
1.3895e-07
2.63193e-06
1.45745e-07
3.56421e-06
1.55391e-07
4.50565e-06
1.44286e-07
5.45781e-06
1.31574e-07
6.43974e-06
1.00814e-07
7.45962e-06
6.12643e-08
8.47018e-06
6.6376e-08
9.45795e-06
8.30109e-08
1.03771e-05
1.44554e-07
1.11463e-05
2.84807e-07
1.17904e-05
3.97956e-07
1.23864e-05
4.39321e-07
1.30128e-05
4.01188e-07
1.35791e-05
4.47277e-07
1.4013e-05
5.64658e-07
1.44377e-05
5.50572e-07
1.49695e-05
4.18753e-07
1.55295e-05
3.78626e-07
1.60039e-05
4.42899e-07
1.63292e-05
5.41158e-07
1.64909e-05
6.47936e-07
1.64058e-05
8.55336e-07
1.59974e-05
1.17265e-06
1.53946e-05
1.40032e-06
1.48264e-05
1.39218e-06
1.43637e-05
1.2777e-06
1.40178e-05
1.14018e-06
1.37849e-05
1.0071e-06
1.36504e-05
8.86404e-07
1.36125e-05
7.66447e-07
1.36617e-05
6.54971e-07
1.37774e-05
5.63145e-07
1.39412e-05
4.89491e-07
1.41401e-05
4.28565e-07
1.43728e-05
3.68954e-07
1.46304e-05
3.18495e-07
1.48995e-05
2.81448e-07
1.52082e-05
2.15711e-07
1.55644e-05
1.41815e-07
1.59318e-05
1.04922e-07
1.63122e-05
6.57765e-08
1.67077e-05
2.37892e-08
1.71079e-05
-8.88209e-09
1.75111e-05
-4.16331e-08
1.79185e-05
-7.73396e-08
1.83226e-05
-1.0788e-07
1.8715e-05
-1.32043e-07
1.90931e-05
-1.55622e-07
1.94533e-05
-1.7811e-07
1.97689e-05
-1.77332e-07
2.00499e-05
-1.8998e-07
2.03174e-05
-2.27508e-07
2.05858e-05
-2.83078e-07
2.08872e-05
-3.73019e-07
2.12409e-05
-4.84137e-07
2.15916e-05
-5.43386e-07
2.18959e-05
-5.64619e-07
2.21294e-05
-5.69243e-07
2.22748e-05
-5.64153e-07
2.23357e-05
-5.68669e-07
2.23487e-05
-6.14679e-07
2.23067e-05
-6.57489e-07
2.22291e-05
-7.23033e-07
2.21031e-05
-7.77058e-07
2.19857e-05
-8.88628e-07
2.18081e-05
-9.29108e-07
2.15825e-05
-9.80773e-07
2.12662e-05
-9.93708e-07
2.08157e-05
-9.67352e-07
2.02133e-05
-9.2441e-07
1.94859e-05
-9.02074e-07
1.8672e-05
-9.09128e-07
1.78313e-05
-9.66455e-07
1.6973e-05
-1.02662e-06
1.60545e-05
-1.03859e-06
1.50891e-05
-1.05642e-06
1.40836e-05
-1.07441e-06
1.30817e-05
-1.13369e-06
1.20223e-05
-1.12345e-06
1.07871e-05
-9.90798e-07
9.41626e-06
-8.57865e-07
8.02753e-06
-8.60531e-07
6.75091e-06
-1.00438e-06
5.61409e-06
-1.16665e-06
4.706e-06
-1.39369e-06
4.07081e-06
-1.64863e-06
3.62347e-06
-1.84344e-06
3.15297e-06
-1.83111e-06
2.4375e-06
-1.57403e-06
1.36663e-06
-1.18303e-06
1.90018e-07
-1.06542e-06
-4.95512e-07
-1.58947e-06
-7.04985e-07
-2.07592e-06
-6.95568e-07
-2.25634e-06
-7.74026e-07
-2.11793e-06
-1.50762e-06
-1.40369e-06
-3.17407e-06
-4.38016e-07
-5.67072e-06
3.49642e-07
-8.55241e-06
7.59796e-07
-1.11862e-05
6.43364e-07
-1.31956e-05
2.27213e-08
-1.44929e-05
-7.73124e-07
-1.51726e-05
-1.36585e-06
-1.54565e-05
-1.6796e-06
-1.56827e-05
-1.72092e-06
-1.6054e-05
-1.56538e-06
-1.64998e-05
-1.40713e-06
-1.68755e-05
-1.32219e-06
-1.68704e-05
-1.51254e-06
-1.60715e-05
-2.15398e-06
-1.47528e-05
-2.62261e-06
-1.34594e-05
-2.61174e-06
-1.2561e-05
-2.17564e-06
-1.14173e-05
-2.09406e-06
-8.15255e-06
-3.99864e-06
-5.83563e-06
-3.12273e-06
-3.64549e-06
-2.82862e-06
-1.37575e-06
-2.79087e-06
7.03127e-07
-2.46457e-06
2.08699e-06
-1.69729e-06
3.14349e-06
-1.30086e-06
4.21073e-06
-1.24896e-06
5.14482e-06
-1.06192e-06
5.93081e-06
-8.7238e-07
6.71856e-06
-8.4295e-07
7.64317e-06
-9.59917e-07
8.40016e-06
-7.73578e-07
8.99334e-06
-5.93284e-07
9.50487e-06
-4.92455e-07
9.92598e-06
-3.83264e-07
1.0196e-05
-1.99098e-07
1.05014e-05
-1.90661e-07
1.07137e-05
-3.80796e-08
1.09037e-05
6.57682e-08
1.11404e-05
1.15026e-07
1.14061e-05
1.89369e-07
1.17999e-05
1.6178e-07
1.22817e-05
1.73708e-07
1.28434e-05
1.78179e-07
1.35056e-05
1.30141e-07
1.42666e-05
4.90483e-08
1.49927e-05
7.37319e-08
1.54975e-05
2.51774e-07
1.61208e-05
1.36474e-08
1.65506e-05
1.14817e-08
1.65457e-05
2.19106e-07
1.65362e-05
-6.28861e-08
1.60785e-05
7.67704e-08
1.52456e-05
1.36236e-07
1.39877e-05
1.44086e-07
1.23552e-05
3.80508e-08
1.09556e-05
-6.85016e-07
9.66525e-06
-1.16881e-06
8.02818e-06
-9.59513e-07
5.38342e-06
8.18136e-08
1.60516e-06
1.27556e-06
-3.13045e-06
2.32966e-06
-8.25226e-06
2.85386e-06
-1.26179e-05
2.23568e-06
-1.49109e-05
3.34907e-07
-1.57423e-05
-1.02062e-06
-1.55431e-05
-2.1188e-06
-1.62319e-05
-1.18419e-06
-1.53123e-05
-2.32463e-06
-1.32776e-05
-3.24886e-06
-1.31866e-05
-1.33991e-06
-1.25266e-05
-1.7763e-06
-1.15268e-05
-1.99091e-06
-9.99544e-06
-2.4118e-06
-8.8604e-06
-1.97123e-06
-7.5561e-06
-2.14206e-06
-6.55121e-06
-1.90133e-06
-5.64443e-06
-1.87751e-06
-4.84254e-06
-1.88004e-06
-4.12604e-06
-1.95148e-06
-3.42093e-06
-2.13089e-06
-2.85986e-06
-2.1954e-06
-2.36098e-06
-2.34737e-06
7.27571e-07
5.42536e-07
1.59136e-06
3.47035e-07
2.45453e-06
3.70378e-07
3.30926e-06
3.84633e-07
4.16975e-06
3.65551e-07
5.06877e-06
3.18469e-07
6.06001e-06
2.01743e-07
7.11007e-06
9.97424e-08
8.13987e-06
1.09814e-07
9.13773e-06
1.4701e-07
1.0042e-05
2.99415e-07
1.07808e-05
5.98732e-07
1.14577e-05
7.60897e-07
1.2187e-05
7.47529e-07
1.2882e-05
7.5367e-07
1.34323e-05
9.2117e-07
1.37796e-05
1.19072e-06
1.38313e-05
1.43401e-06
1.35085e-05
1.6092e-06
1.28496e-05
1.832e-06
1.19473e-05
2.13495e-06
1.0943e-05
2.36385e-06
9.98544e-06
2.45398e-06
9.25785e-06
2.45363e-06
8.84447e-06
2.45569e-06
8.68442e-06
2.42216e-06
8.63556e-06
2.28907e-06
8.61745e-06
2.12526e-06
8.63579e-06
1.92914e-06
8.71216e-06
1.71591e-06
8.85519e-06
1.50412e-06
9.05991e-06
1.29473e-06
9.2939e-06
1.12857e-06
9.56232e-06
9.75141e-07
9.87335e-06
8.31447e-07
1.02181e-05
7.0996e-07
1.05717e-05
6.14498e-07
1.09423e-05
5.2141e-07
1.13344e-05
4.37933e-07
1.16969e-05
3.75471e-07
1.20596e-05
2.75513e-07
1.24566e-05
1.79383e-07
1.28814e-05
8.6088e-08
1.33281e-05
-4.03962e-09
1.37874e-05
-7.54476e-08
1.42712e-05
-1.61751e-07
1.47555e-05
-2.28784e-07
1.52301e-05
-2.83028e-07
1.57174e-05
-3.53562e-07
1.62141e-05
-4.20526e-07
1.67009e-05
-4.74159e-07
1.71679e-05
-5.0249e-07
1.76111e-05
-5.45362e-07
1.80363e-05
-6.25378e-07
1.846e-05
-7.39976e-07
1.89189e-05
-9.17367e-07
1.94257e-05
-1.12086e-06
1.99062e-05
-1.19717e-06
2.03386e-05
-1.22753e-06
2.0714e-05
-1.25142e-06
2.09885e-05
-1.23505e-06
2.12127e-05
-1.28907e-06
2.14051e-05
-1.40921e-06
2.15737e-05
-1.53753e-06
2.17164e-05
-1.68849e-06
2.17764e-05
-1.77014e-06
2.16953e-05
-1.84648e-06
2.16109e-05
-1.96637e-06
2.15154e-05
-2.07909e-06
2.13976e-05
-2.15117e-06
2.12009e-05
-2.1454e-06
2.08594e-05
-2.07929e-06
2.03309e-05
-2.00221e-06
1.96275e-05
-1.96304e-06
1.88774e-05
-2.0747e-06
1.81732e-05
-2.24901e-06
1.7418e-05
-2.27205e-06
1.64791e-05
-2.17368e-06
1.53173e-05
-2.0172e-06
1.39504e-05
-1.88937e-06
1.23774e-05
-1.72874e-06
1.08455e-05
-1.75468e-06
9.31618e-06
-1.64938e-06
7.86637e-06
-1.73758e-06
6.70243e-06
-2.18599e-06
5.75303e-06
-2.58486e-06
5.02227e-06
-3.04243e-06
4.61155e-06
-3.5844e-06
4.53051e-06
-4.09233e-06
4.50071e-06
-4.17376e-06
3.95762e-06
-3.46055e-06
2.90859e-06
-2.53898e-06
2.1363e-06
-2.64955e-06
1.92046e-06
-3.75972e-06
1.36854e-06
-3.92769e-06
-5.99932e-07
-2.63972e-06
-3.89124e-06
-1.07841e-06
-7.42798e-06
-3.62361e-08
-1.0446e-05
4.15424e-07
-1.30532e-05
7.92246e-07
-1.50725e-05
6.84027e-07
-1.64633e-05
-6.71805e-08
-1.73613e-05
-1.23415e-06
-1.78888e-05
-2.31481e-06
-1.81855e-05
-3.10078e-06
-1.83566e-05
-3.58765e-06
-1.84723e-05
-3.71698e-06
-1.86178e-05
-3.50643e-06
-1.8593e-05
-3.34367e-06
-1.82579e-05
-3.29495e-06
-1.74866e-05
-3.66103e-06
-1.62498e-05
-4.64687e-06
-1.51842e-05
-5.02593e-06
-1.43693e-05
-4.83442e-06
-1.3453e-05
-4.37528e-06
-1.14622e-05
-4.75477e-06
-8.15488e-06
-7.88558e-06
-5.7481e-06
-6.34713e-06
-3.33545e-06
-5.81886e-06
-7.85127e-07
-5.78317e-06
1.94148e-06
-5.5105e-06
3.88644e-06
-3.94135e-06
5.2976e-06
-2.98355e-06
6.78152e-06
-2.95724e-06
8.17072e-06
-2.63989e-06
9.19501e-06
-2.06272e-06
1.01158e-05
-1.90401e-06
1.14017e-05
-2.3579e-06
1.28203e-05
-2.2696e-06
1.39345e-05
-1.75513e-06
1.49005e-05
-1.48059e-06
1.56649e-05
-1.16383e-06
1.62962e-05
-8.22011e-07
1.68117e-05
-6.51297e-07
1.73927e-05
-5.19169e-07
1.80354e-05
-4.09667e-07
1.85261e-05
-9.47124e-08
1.88293e-05
3.07769e-07
1.88418e-05
6.62011e-07
1.86818e-05
9.1388e-07
1.86193e-05
9.59742e-07
1.86223e-05
9.92844e-07
1.8575e-05
9.93132e-07
1.8614e-05
8.52913e-07
1.90184e-05
5.95912e-07
1.93767e-05
3.21357e-07
1.94681e-05
3.63011e-07
1.95139e-05
2.9202e-07
1.91393e-05
8.61572e-08
1.85629e-05
1.69712e-07
1.74e-05
6.19527e-07
1.64139e-05
7.18428e-08
1.53484e-05
-7.02507e-07
1.3931e-05
-1.966e-06
1.11674e-05
-1.62362e-06
6.72385e-06
3.12923e-07
1.3164e-06
2.62613e-06
-4.23977e-06
4.17314e-06
-9.72258e-06
5.35448e-06
-1.43604e-05
5.20666e-06
-1.70678e-05
2.80338e-06
-1.79671e-05
-6.70453e-07
-1.79939e-05
-2.96526e-06
-1.78547e-05
-4.82519e-06
-1.79422e-05
-3.44148e-06
-1.55014e-05
-5.96123e-06
-1.27719e-05
-7.31628e-06
-1.22581e-05
-3.48334e-06
-1.13468e-05
-4.04673e-06
-9.62496e-06
-4.90799e-06
-7.02923e-06
-6.07658e-06
-4.94635e-06
-5.07716e-06
-2.74849e-06
-5.32884e-06
-1.34784e-06
-4.38335e-06
-5.35358e-07
-3.85586e-06
-1.78235e-07
-3.52639e-06
6.35213e-08
-3.67848e-06
2.43799e-07
-4.01853e-06
4.44272e-07
-4.3292e-06
-4.73954e-06
6.76622e-07
6.97327e-07
8.53244e-07
1.4987e-06
5.96501e-07
2.30862e-06
6.30246e-07
3.12879e-06
6.372e-07
3.9541e-06
6.13884e-07
4.79048e-06
5.66402e-07
5.63428e-06
4.42519e-07
6.3886e-06
3.93653e-07
7.02497e-06
4.8597e-07
7.65945e-06
5.29444e-07
8.23228e-06
7.57577e-07
8.76486e-06
1.08359e-06
9.21726e-06
1.31731e-06
9.50353e-06
1.4748e-06
9.47622e-06
1.77183e-06
9.14439e-06
2.19244e-06
8.6465e-06
2.59117e-06
8.02502e-06
2.93763e-06
7.35101e-06
3.15478e-06
6.75959e-06
3.31844e-06
6.37029e-06
3.44395e-06
6.16763e-06
3.49349e-06
6.06176e-06
3.49381e-06
5.99212e-06
3.44765e-06
6.01767e-06
3.33735e-06
6.16799e-06
3.16367e-06
6.38085e-06
2.95007e-06
6.6588e-06
2.69826e-06
6.97027e-06
2.44744e-06
7.29338e-06
2.19917e-06
7.64256e-06
1.93516e-06
8.00026e-06
1.69062e-06
8.38426e-06
1.46694e-06
8.77912e-06
1.27363e-06
9.18586e-06
1.09136e-06
9.61035e-06
9.2113e-07
1.00577e-05
7.7251e-07
1.05029e-05
6.51533e-07
1.09627e-05
5.22896e-07
1.14404e-05
4.13966e-07
1.18519e-05
3.54759e-07
1.22477e-05
2.50317e-07
1.26565e-05
1.17669e-07
1.30767e-05
-1.418e-08
1.35086e-05
-1.24833e-07
1.3962e-05
-2.60452e-07
1.44223e-05
-3.70423e-07
1.48732e-05
-4.53586e-07
1.53417e-05
-5.75797e-07
1.58241e-05
-6.89739e-07
1.63329e-05
-8.16168e-07
1.68482e-05
-9.06873e-07
1.7365e-05
-1.00279e-06
1.78388e-05
-1.09486e-06
1.82597e-05
-1.204e-06
1.86629e-05
-1.39842e-06
1.90483e-05
-1.62703e-06
1.94009e-05
-1.71818e-06
1.97844e-05
-1.84388e-06
2.01724e-05
-1.96357e-06
2.0524e-05
-2.00697e-06
2.08526e-05
-2.13454e-06
2.11596e-05
-2.33351e-06
2.1476e-05
-2.5655e-06
2.17794e-05
-2.7962e-06
2.19678e-05
-2.87038e-06
2.18493e-05
-2.7562e-06
2.15227e-05
-2.74226e-06
2.11559e-05
-2.85471e-06
2.0862e-05
-3.0516e-06
2.06004e-05
-3.16631e-06
2.03318e-05
-3.22243e-06
1.99587e-05
-3.17571e-06
1.93699e-05
-3.07253e-06
1.87252e-05
-3.26254e-06
1.82682e-05
-3.66983e-06
1.78523e-05
-3.77758e-06
1.72763e-05
-3.59769e-06
1.65879e-05
-3.41136e-06
1.57325e-05
-3.21194e-06
1.45707e-05
-2.69114e-06
1.31002e-05
-2.33295e-06
1.14786e-05
-2.25907e-06
9.66316e-06
-2.39162e-06
7.89791e-06
-2.8501e-06
6.54017e-06
-3.55049e-06
5.72959e-06
-4.51873e-06
5.35461e-06
-5.4439e-06
5.23451e-06
-6.16452e-06
5.00395e-06
-6.18583e-06
4.47294e-06
-5.25171e-06
3.86444e-06
-4.29458e-06
3.20997e-06
-4.40453e-06
1.58821e-06
-4.52898e-06
-1.32842e-06
-3.2821e-06
-4.88675e-06
-1.28154e-06
-8.27363e-06
1.05478e-07
-1.11943e-05
6.74749e-07
-1.38065e-05
8.85278e-07
-1.57121e-05
6.51322e-07
-1.68576e-05
-1.91204e-07
-1.76503e-05
-1.39183e-06
-1.82632e-05
-2.70935e-06
-1.86196e-05
-3.90727e-06
-1.88217e-05
-4.85583e-06
-1.87801e-05
-5.57371e-06
-1.86404e-05
-5.77119e-06
-1.84266e-05
-5.63031e-06
-1.80528e-05
-5.50749e-06
-1.74768e-05
-5.50068e-06
-1.66185e-05
-5.97443e-06
-1.57229e-05
-6.95316e-06
-1.51486e-05
-7.08138e-06
-1.44591e-05
-6.80826e-06
-1.29363e-05
-6.81934e-06
-1.08548e-05
-7.42811e-06
-8.70862e-06
-1.07194e-05
-5.96663e-06
-9.70628e-06
-3.33155e-06
-8.91895e-06
-1.08802e-06
-8.37449e-06
1.70003e-06
-8.47207e-06
3.8666e-06
-6.27988e-06
5.32942e-06
-4.63978e-06
7.03313e-06
-4.7933e-06
8.93396e-06
-4.5937e-06
1.00672e-05
-3.29212e-06
1.08338e-05
-2.82405e-06
1.21459e-05
-3.79476e-06
1.36314e-05
-3.81043e-06
1.50425e-05
-3.19605e-06
1.62488e-05
-2.71845e-06
1.72377e-05
-2.16884e-06
1.78894e-05
-1.47008e-06
1.84412e-05
-1.16744e-06
1.92518e-05
-1.23635e-06
2.0161e-05
-1.14902e-06
2.12188e-05
-8.65542e-07
2.22013e-05
-2.88557e-07
2.29097e-05
4.21726e-07
2.32004e-05
1.25019e-06
2.32511e-05
1.70238e-06
2.30528e-05
2.00508e-06
2.27503e-05
2.118e-06
2.24284e-05
2.09185e-06
2.22352e-05
1.67722e-06
2.20367e-05
1.25633e-06
2.20853e-05
8.41469e-07
2.19268e-05
5.78361e-07
2.12854e-05
3.84748e-07
2.0455e-05
4.23003e-07
1.93934e-05
9.95901e-07
1.82005e-05
1.73514e-07
1.66648e-05
-1.31604e-06
1.38068e-05
-2.26129e-06
9.21225e-06
-3.24089e-07
3.37465e-06
3.09151e-06
-2.57698e-06
5.7531e-06
-7.81872e-06
6.70337e-06
-1.24203e-05
7.38487e-06
-1.5705e-05
6.28485e-06
-1.73598e-05
2.70216e-06
-1.81925e-05
-1.38918e-06
-1.87764e-05
-4.5812e-06
-1.89187e-05
-7.70132e-06
-1.80512e-05
-6.15923e-06
-1.55166e-05
-9.45136e-06
-1.34113e-05
-1.10515e-05
-1.27342e-05
-5.8916e-06
-1.19337e-05
-6.19559e-06
-1.01081e-05
-7.88206e-06
-7.06643e-06
-1.01762e-05
-4.51754e-06
-8.66018e-06
-1.30486e-06
-9.42089e-06
1.23052e-06
-7.88215e-06
2.65547e-06
-6.39694e-06
3.44911e-06
-5.56265e-06
3.77325e-06
-5.43677e-06
3.64811e-06
-5.61001e-06
3.56363e-06
-6.24115e-06
-6.86051e-06
3.43472e-06
6.82175e-07
1.17352e-06
1.50036e-06
8.19395e-07
2.34764e-06
8.49338e-07
3.18655e-06
8.70726e-07
4.00155e-06
8.80989e-07
4.73777e-06
9.25329e-07
5.24583e-06
9.8962e-07
5.67057e-06
9.55159e-07
6.00448e-06
1.14389e-06
6.16686e-06
1.40878e-06
6.32727e-06
1.63672e-06
6.39179e-06
2.01845e-06
6.22571e-06
2.46379e-06
5.85727e-06
2.82622e-06
5.40797e-06
3.18958e-06
4.93575e-06
3.60263e-06
4.59882e-06
3.87207e-06
4.40146e-06
4.10825e-06
4.26585e-06
4.27138e-06
4.24128e-06
4.3314e-06
4.27712e-06
4.39951e-06
4.39073e-06
4.35782e-06
4.59938e-06
4.24431e-06
4.87936e-06
4.10034e-06
5.25493e-06
3.88231e-06
5.67266e-06
3.64984e-06
6.10456e-06
3.40239e-06
6.55031e-06
3.11922e-06
6.99018e-06
2.85344e-06
7.45101e-06
2.55963e-06
7.90043e-06
2.28325e-06
8.32234e-06
2.0416e-06
8.7473e-06
1.78703e-06
9.1971e-06
1.54257e-06
9.65727e-06
1.31986e-06
1.00904e-05
1.14668e-06
1.05303e-05
9.62463e-07
1.10186e-05
7.66232e-07
1.15067e-05
6.08723e-07
1.1942e-05
5.14639e-07
1.23938e-05
4.07179e-07
1.28699e-05
2.52578e-07
1.33484e-05
9.09116e-08
1.38007e-05
-4.97746e-08
1.42385e-05
-1.82229e-07
1.4678e-05
-3.46256e-07
1.5121e-05
-4.96609e-07
1.55927e-05
-6.56289e-07
1.60752e-05
-8.28783e-07
1.65986e-05
-1.02364e-06
1.71109e-05
-1.18525e-06
1.7628e-05
-1.33015e-06
1.81434e-05
-1.47028e-06
1.86194e-05
-1.57183e-06
1.90069e-05
-1.63664e-06
1.93628e-05
-1.83726e-06
1.96848e-05
-2.0983e-06
1.99625e-05
-2.23332e-06
2.02703e-05
-2.46712e-06
2.06089e-05
-2.70665e-06
2.10111e-05
-2.90654e-06
2.14475e-05
-3.14114e-06
2.17909e-05
-3.32659e-06
2.20355e-05
-3.53239e-06
2.22618e-05
-3.81007e-06
2.24846e-05
-3.97755e-06
2.25788e-05
-3.87813e-06
2.22458e-05
-3.58086e-06
2.16524e-05
-3.51354e-06
2.10491e-05
-3.73137e-06
2.05109e-05
-3.92868e-06
2.0019e-05
-4.07842e-06
1.95635e-05
-4.14154e-06
1.91571e-05
-4.22532e-06
1.8612e-05
-4.52265e-06
1.81761e-05
-5.12002e-06
1.784e-05
-5.25066e-06
1.7174e-05
-4.83533e-06
1.65497e-05
-4.80168e-06
1.61162e-05
-4.87415e-06
1.55815e-05
-4.32899e-06
1.47737e-05
-3.55394e-06
1.37567e-05
-3.25439e-06
1.23904e-05
-3.27814e-06
1.07442e-05
-3.53524e-06
9.33324e-06
-4.48619e-06
8.09244e-06
-5.6427e-06
7.1585e-06
-6.79333e-06
6.56158e-06
-7.74656e-06
5.95613e-06
-7.81192e-06
5.10852e-06
-6.71637e-06
3.95333e-06
-5.4979e-06
1.85333e-06
-4.6898e-06
-1.47042e-06
-3.51631e-06
-4.98264e-06
-1.98554e-06
-8.02834e-06
-4.88376e-07
-1.06448e-05
4.29656e-07
-1.29657e-05
8.08546e-07
-1.48534e-05
7.30674e-07
-1.60491e-05
-8.4897e-08
-1.68452e-05
-1.37182e-06
-1.75913e-05
-2.77971e-06
-1.81405e-05
-4.19987e-06
-1.84713e-05
-5.48685e-06
-1.86206e-05
-6.60617e-06
-1.85055e-05
-7.49784e-06
-1.83071e-05
-7.80544e-06
-1.7963e-05
-7.87569e-06
-1.74379e-05
-7.90553e-06
-1.69221e-05
-7.81189e-06
-1.62863e-05
-8.21237e-06
-1.56154e-05
-9.08627e-06
-1.49034e-05
-9.17423e-06
-1.37236e-05
-9.12257e-06
-1.19822e-05
-9.4566e-06
-1.00212e-05
-1.00839e-05
-8.56365e-06
-1.28333e-05
-5.83779e-06