/*--------------------------------*- C++ -*----------------------------------*\
| =========                 |                                                 |
| \\      /  F ield         | OpenFOAM: The Open Source CFD Toolbox           |
|  \\    /   O peration     | Version:  dev                                   |
|   \\  /    A nd           | Web:      http://www.openfoam.org               |
|    \\/     M anipulation  |                                                 |
\*---------------------------------------------------------------------------*/
FoamFile
{
    version     2.0;
    format      ascii;
    class       volScalarField;
    object      pMean;
    location    "9.133";
}
// * * * * * * * * * * * * * * * * * * * * * * * * * * * * * * * * * * * * * //

dimensions      [1 -1 -2 0 0 0 0];

internalField   nonuniform List<scalar> 
12225
(
98313.3
98293.5
98279.8
98272.7
98258.5
98249.1
98230.6
98221
98199.5
98190.8
98166.1
98159.3
98128.3
98122
98081.2
98041.6
97952.4
97586.6
98308.8
98292.4
98279.2
98272.2
98257.9
98248.5
98229.9
98220.5
98198.8
98190.4
98165.4
98158.8
98127.9
98120.1
98079.5
98045.6
97953.3
97792.3
98305
98290.8
98278.2
98270.8
98256.4
98247
98228.4
98219.1
98197.4
98188.9
98164.6
98156.7
98128.5
98116.7
98081.8
98046.5
97979.2
97890.4
98299.9
98287.9
98276.1
98268.4
98254
98244.3
98226.3
98216.5
98195.7
98186.2
98163.2
98153.6
98127.4
98114.5
98082.7
98054.9
98006.5
97937.6
98293.3
98283.5
98272.5
98264.4
98250.5
98240.2
98223.3
98212.3
98193.2
98181.9
98161.7
98149.1
98127.6
98111.3
98084.6
98060.4
98020.6
97987.9
98285
98277.4
98266.6
98258.3
98244.8
98234.3
98218.2
98206.6
98188.8
98176.7
98158.5
98144.9
98126.5
98109.6
98088.2
98062.9
98040.8
98020.4
98274.7
98268.4
98258.1
98249.6
98237
98225.9
98211.1
98198.5
98182.8
98169.2
98153.9
98138.8
98124.2
98106.7
98092.4
98071.4
98061.1
98046.2
98264
98258.3
98248.7
98240
98228.3
98216.8
98203.2
98190
98176
98161.7
98148.6
98132.9
98121.4
98104.1
98095.4
98077.6
98075.8
98060.9
98253.2
98247.7
98238.9
98230
98219.2
98207.4
98194.9
98181.4
98168.8
98154.2
98142.7
98127.2
98117.5
98101.6
98095.3
98081.1
98080.8
98068.9
98239.5
98234.1
98226.4
98217.4
98207.5
98195.7
98184.2
98170.7
98159.4
98144.9
98134.9
98120
98111.8
98097.4
98092.4
98080.7
98079.9
98071.6
98222.6
98217.1
98210.6
98201.8
98192.7
98181.2
98170.5
98157.5
98147
98133.4
98124
98110.9
98102.9
98091.4
98085.8
98077.2
98074.5
98069.4
98202.1
98196.3
98191.1
98182.7
98174.3
98163.2
98153.4
98141.1
98131.5
98118.9
98110.3
98098.8
98091.3
98082
98076.3
98069.9
98066.3
98062.7
98177.2
98172
98167.4
98159.9
98152
98142
98132.6
98121.7
98112.5
98101.8
98093.4
98084.1
98076.9
98069.7
98064.2
98059.4
98055.8
98053
98149
98144.2
98140.2
98133.7
98126.4
98117.5
98108.9
98099.4
98090.9
98081.9
98074.2
98066.6
98060.2
98054.5
98049.9
98046
98043.1
98041
98118.9
98115.1
98111.3
98105.9
98099.5
98091.8
98084
98076
98068.3
98060.9
98054.2
98048.1
98042.8
98038.3
98034.5
98031.6
98029.4
98027.9
98091.1
98088.4
98085
98080.5
98074.9
98068.4
98061.6
98054.7
98048.2
98042
98036.4
98031.4
98027.1
98023.6
98020.7
98018.5
98017
98016.1
98072.5
98070.6
98067.8
98063.9
98059
98053.3
98047.4
98041.4
98035.8
98030.5
98025.7
98021.6
98018
98015.1
98012.8
98011.1
98010
98009.4
98072.8
98071.1
98068.5
98064.8
98060.1
98054.8
98049.2
98043.6
98038.3
98033.4
98028.9
98024.9
98021.6
98018.8
98016.6
98014.9
98013.7
98012.9
98092.5
98090.7
98087.8
98083.8
98078.9
98073.4
98067.6
98061.8
98056.2
98051
98046.2
98042
98038.2
98035
98032.4
98030.2
98028.5
98027.3
98123.3
98121.1
98117.7
98113.2
98107.8
98101.8
98095.4
98089.1
98082.9
98077.1
98071.7
98066.8
98062.4
98058.5
98055.2
98052.3
98050
98048
98158.1
98155.5
98151.5
98146.3
98140.2
98133.6
98126.6
98119.6
98112.8
98106.3
98100.1
98094.5
98089.3
98084.7
98080.6
98077
98073.9
98071.2
98192
98189
98184.2
98178.3
98171.6
98164.4
98156.8
98149.2
98141.8
98134.6
98127.7
98121.4
98115.5
98110.2
98105.4
98101
98097.2
98093.8
98222.3
98218.6
98213.1
98206.6
98199.3
98191.6
98183.6
98175.4
98167.4
98159.7
98152.3
98145.3
98138.8
98132.8
98127.4
98122.4
98118
98113.9
98247.6
98243.3
98236.9
98229.8
98222.1
98214
98205.6
98197.1
98188.7
98180.5
98172.6
98165.1
98158.1
98151.7
98145.7
98140.2
98135.2
98130.7
98267.9
98262.7
98255.5
98247.8
98239.8
98231.5
98222.8
98214.1
98205.3
98196.7
98188.5
98180.6
98173.3
98166.4
98160
98154.2
98148.8
98143.9
98283.5
98277.2
98269.1
98261
98252.8
98244.3
98235.5
98226.6
98217.6
98208.8
98200.3
98192.2
98184.5
98177.4
98170.7
98164.6
98158.9
98153.7
98295.3
98287.5
98278.4
98269.9
98261.6
98253.1
98244.3
98235.2
98226.1
98217.1
98208.5
98200.2
98192.3
98185
98178.1
98171.8
98165.9
98160.5
98304
98294.2
98284.1
98275.5
98267.2
98258.8
98249.9
98240.8
98231.6
98222.5
98213.8
98205.4
98197.4
98189.9
98183
98176.5
98170.5
98165
98310.1
98298
98286.9
98278.3
98270.2
98261.9
98253.1
98244
98234.8
98225.7
98216.8
98208.3
98200.3
98192.7
98185.7
98179.2
98173.1
98167.5
98316.1
98300.6
98288.5
98279.6
98271.5
98263.1
98254.4
98245.3
98236.1
98226.9
98218.1
98209.6
98201.5
98193.9
98186.9
98180.3
98174.2
98168.6
98313.2
98312.8
98312
98310.9
98309.4
98307.5
98305.3
98302.7
98299.7
98296.2
98292.3
98288.1
98283.5
98278.6
98273.3
98267.9
98262.2
98256.2
98250.1
98243.9
98237.4
98230.9
98224.2
98217.3
98210.5
98203.5
98196.5
98189.4
98182.3
98175.2
98168.1
98161.1
98154
98147.1
98140.2
98133.4
98126.8
98120.3
98114
98107.9
98102
98096.3
98090.9
98085.7
98080.9
98076.4
98072.3
98068.6
98065.3
98062.5
98060.1
98058.2
98056.8
98055.9
98055.7
98056
98057
98058.6
98060.8
98063.8
98067.5
98071.8
98076.9
98082.7
98089.3
98096.5
98104.5
98113.1
98122.5
98132.4
98143
98154.2
98165.9
98178.2
98191
98204.2
98217.8
98231.8
98246.1
98260.7
98275.5
98290.5
98305.7
98320.9
98336.2
98351.4
98366.6
98381.7
98396.6
98411.3
98425.7
98439.9
98453.6
98467
98479.9
98492.3
98504.2
98515.5
98526.3
98536.4
98546
98554.8
98563.1
98570.6
98577.6
98583.9
98589.6
98594.7
98599.3
98603.4
98607.1
98610.3
98613.1
98615.6
98617.8
98619.7
98621.3
98622.7
98624
98625.1
98626.2
98627.2
98628.4
98629.7
98631.3
98633.3
98635.9
98639.3
98643.7
98649.4
98656.4
98665.1
98675.8
98688.7
98704
98722
98742.9
98766.6
98793.4
98823.2
98856.2
98892.1
98930.9
98972.4
99016.7
99063.2
99112.2
99162.8
99215.4
99269.6
99325
99381.4
99438.4
99495.7
99552.9
99609.5
99664.8
99718.6
99769.6
99817.4
99860.9
99899.3
99931.3
99956.3
99973.1
99980.7
99978
99965
99941
99906.4
99861
99806.3
99742.4
99671.7
99594.7
99514.2
99429.7
99345.1
99258.3
99175.2
98306.2
98305.9
98305.1
98303.9
98302.4
98300.5
98298.3
98295.7
98292.7
98289.3
98285.5
98281.3
98276.8
98272
98267
98261.7
98256.1
98250.4
98244.5
98238.4
98232.1
98225.7
98219.2
98212.6
98205.9
98199.1
98192.2
98185.3
98178.4
98171.4
98164.5
98157.5
98150.7
98143.9
98137.2
98130.6
98124.1
98117.7
98111.5
98105.5
98099.7
98094.1
98088.8
98083.8
98079
98074.6
98070.6
98067
98063.7
98060.9
98058.5
98056.6
98055.2
98054.3
98054
98054.3
98055.2
98056.7
98058.9
98061.8
98065.4
98069.7
98074.6
98080.3
98086.7
98093.8
98101.6
98110.1
98119.3
98129
98139.4
98150.4
98162
98174.1
98186.6
98199.6
98213
98226.8
98240.8
98255.2
98269.8
98284.5
98299.4
98314.4
98329.3
98344.3
98359.2
98374
98388.6
98403.1
98417.2
98431
98444.5
98457.6
98470.2
98482.3
98494
98505
98515.5
98525.4
98534.7
98543.3
98551.4
98558.7
98565.5
98571.7
98577.2
98582.2
98586.7
98590.7
98594.3
98597.4
98600.1
98602.5
98604.7
98606.5
98608.1
98609.4
98610.6
98611.7
98612.6
98613.6
98614.6
98615.8
98617.3
98619.1
98621.5
98624.6
98628.7
98634
98640.7
98648.9
98659.1
98671.5
98686.2
98703.5
98723.6
98746.6
98772.5
98801.4
98833.5
98868.4
98906.1
98946.5
98989.7
99035.1
99082.9
99132.4
99183.8
99236.8
99291.1
99346.3
99402.2
99458.4
99514.6
99570.2
99624.7
99677.6
99727.9
99775.1
99818.2
99856.3
99888.2
99913.4
99930.5
99938.6
99936.8
99924.9
99902.2
99869
99825.3
99772.3
99710.1
99641.3
99566.1
99487.3
99404.4
99321.3
99235.5
99150.6
98293.5
98293.2
98292.4
98291.2
98289.6
98287.6
98285.3
98282.6
98279.6
98276.2
98272.5
98268.5
98264.2
98259.6
98254.7
98249.7
98244.5
98239
98233.5
98227.8
98221.9
98215.9
98209.7
98203.5
98197.1
98190.7
98184.1
98177.5
98170.9
98164.2
98157.6
98150.9
98144.3
98137.8
98131.3
98124.9
98118.7
98112.6
98106.6
98100.8
98095.2
98089.8
98084.7
98079.8
98075.2
98070.9
98067
98063.4
98060.2
98057.4
98055
98053.1
98051.7
98050.7
98050.3
98050.5
98051.3
98052.8
98054.8
98057.6
98060.9
98065
98069.8
98075.2
98081.3
98088.2
98095.7
98103.9
98112.7
98122.1
98132.2
98142.8
98154
98165.7
98177.8
98190.4
98203.4
98216.7
98230.3
98244.2
98258.3
98272.6
98287
98301.5
98316
98330.4
98344.8
98359.1
98373.1
98387
98400.6
98413.9
98426.8
98439.3
98451.4
98462.9
98474
98484.6
98494.6
98504
98512.8
98521
98528.6
98535.6
98542.1
98547.9
98553.2
98557.9
98562.2
98565.9
98569.3
98572.3
98574.9
98577.2
98579.1
98580.8
98582.3
98583.5
98584.6
98585.5
98586.3
98587
98587.8
98588.6
98589.7
98591.2
98593.1
98595.7
98599.1
98603.7
98609.5
98616.9
98626.1
98637.3
98650.7
98666.7
98685.3
98706.7
98731
98758.1
98788.2
98821.1
98856.7
98895
98935.9
98979.1
99024.4
99071.6
99120.7
99171.3
99223.2
99276.1
99329.8
99383.9
99437.9
99491.5
99544.1
99595.2
99644
99689.8
99731.8
99769.1
99800.5
99825.6
99843.1
99851.9
99851.5
99841.4
99821
99790.5
99749.8
99700.2
99641.6
99576.4
99504.8
99429.6
99350.1
99270.2
99187.2
99103.4
98276
98275.7
98275
98273.8
98272.2
98270.2
98267.8
98265.2
98262.2
98258.8
98255.2
98251.3
98247.2
98242.8
98238.3
98233.6
98228.7
98223.6
98218.5
98213.2
98207.8
98202.2
98196.6
98190.8
98184.9
98178.9
98172.9
98166.7
98160.6
98154.4
98148.2
98142
98135.8
98129.7
98123.6
98117.6
98111.7
98105.9
98100.2
98094.7
98089.4
98084.2
98079.2
98074.5
98070.1
98066
98062.2
98058.7
98055.6
98052.8
98050.5
98048.6
98047.1
98046.1
98045.6
98045.7
98046.4
98047.6
98049.5
98052
98055.1
98058.8
98063.3
98068.4
98074.1
98080.6
98087.6
98095.4
98103.8
98112.8
98122.3
98132.5
98143.1
98154.3
98165.8
98177.8
98190.2
98202.9
98215.9
98229.1
98242.6
98256.2
98269.9
98283.7
98297.4
98311.2
98324.8
98338.3
98351.7
98364.8
98377.6
98390.1
98402.3
98414
98425.3
98436.2
98446.5
98456.3
98465.6
98474.3
98482.5
98490.1
98497.2
98503.6
98509.6
98515
98519.8
98524.2
98528.1
98531.6
98534.7
98537.4
98539.8
98541.9
98543.7
98545.2
98546.5
98547.5
98548.3
98549
98549.5
98549.9
98550.3
98550.7
98551.3
98552.1
98553.4
98555.2
98557.7
98561.2
98565.9
98572
98579.8
98589.4
98601.1
98615.2
98631.8
98651
98672.9
98697.5
98724.9
98755
98787.8
98823.1
98861
98901
98943.2
98987.2
99033
99080.5
99129.2
99179
99229.7
99280.8
99332
99382.8
99432.7
99481.5
99528.1
99572
99612.3
99648.4
99679
99703.7
99721.4
99731
99732
99723.9
99706.2
99679
99642.2
99596.9
99543
99482.7
99415.8
99345.5
99270.7
99195.2
99116.5
99036.5
98254.8
98254.6
98253.9
98252.7
98251.2
98249.3
98247
98244.4
98241.5
98238.2
98234.8
98231
98227.1
98223
98218.7
98214.3
98209.8
98205.2
98200.4
98195.6
98190.6
98185.6
98180.4
98175.2
98169.8
98164.4
98158.9
98153.4
98147.8
98142.2
98136.5
98130.9
98125.2
98119.6
98114
98108.5
98103.1
98097.8
98092.5
98087.4
98082.4
98077.6
98072.9
98068.5
98064.2
98060.3
98056.6
98053.3
98050.3
98047.6
98045.3
98043.4
98041.8
98040.8
98040.2
98040.1
98040.6
98041.6
98043.2
98045.4
98048.2
98051.6
98055.6
98060.3
98065.6
98071.5
98078.1
98085.2
98093.1
98101.4
98110.4
98119.9
98129.9
98140.3
98151.2
98162.4
98174.1
98186
98198.2
98210.6
98223.2
98235.9
98248.7
98261.6
98274.4
98287.3
98300
98312.6
98325
98337.2
98349.1
98360.6
98371.9
98382.7
98393.1
98403
98412.4
98421.3
98429.8
98437.7
98445.1
98451.9
98458.3
98464.1
98469.4
98474.2
98478.6
98482.5
98486
98489
98491.8
98494.2
98496.3
98498.1
98499.7
98500.9
98501.9
98502.7
98503.2
98503.6
98503.7
98503.7
98503.6
98503.5
98503.4
98503.5
98503.9
98504.7
98506.1
98508.4
98511.7
98516.2
98522.2
98529.9
98539.5
98551.3
98565.4
98581.9
98601
98622.6
98646.9
98673.6
98702.9
98734.6
98768.8
98805.1
98843.4
98883.7
98925.7
98969.3
99014.3
99060.4
99107.3
99155
99202.6
99250
99296.8
99342.6
99386.6
99428.1
99466.4
99500.8
99530.3
99554.4
99572
99582.3
99584.6
99578.7
99564
99540.6
99508.2
99467.8
99419.3
99364.7
99303.6
99239.2
99170.2
99100.4
99027.2
98952.6
98231.4
98231.2
98230.6
98229.5
98228.1
98226.3
98224.2
98221.7
98219
98215.9
98212.6
98209.1
98205.4
98201.6
98197.6
98193.5
98189.3
98185.1
98180.7
98176.3
98171.8
98167.2
98162.6
98157.8
98153
98148.1
98143.2
98138.3
98133.3
98128.3
98123.3
98118.2
98113.2
98108.2
98103.2
98098.2
98093.3
98088.5
98083.7
98079.1
98074.5
98070.1
98065.8
98061.7
98057.7
98054
98050.6
98047.4
98044.5
98041.9
98039.7
98037.7
98036.2
98035.1
98034.4
98034.1
98034.4
98035.2
98036.5
98038.3
98040.7
98043.7
98047.2
98051.4
98056.1
98061.5
98067.4
98074
98081.1
98088.8
98097
98105.7
98114.9
98124.6
98134.6
98145
98155.7
98166.7
98178
98189.4
98201
98212.7
98224.5
98236.4
98248.2
98259.9
98271.6
98283.1
98294.4
98305.5
98316.3
98326.8
98337
98346.7
98356.1
98365
98373.4
98381.3
98388.8
98395.8
98402.3
98408.3
98413.9
98418.9
98423.5
98427.7
98431.4
98434.8
98437.8
98440.4
98442.8
98444.8
98446.5
98448
98449.2
98450.1
98450.8
98451.2
98451.4
98451.3
98451
98450.5
98449.9
98449.1
98448.3
98447.5
98446.9
98446.6
98446.7
98447.5
98449.2
98452
98456
98461.5
98468.8
98478
98489.3
98502.9
98518.7
98536.9
98557.6
98580.7
98606.1
98633.8
98663.9
98696.1
98730.2
98766.3
98804.1
98843.5
98884.4
98926.4
98969.2
99012.8
99056.6
99100.4
99143.7
99186
99226.9
99265.7
99301.7
99334.1
99362
99385.2
99402.6
99413.3
99416.9
99413.2
99401.4
99382
99354.1
99318.9
99276.1
99227.7
99173
99115.3
99052.8
98989.5
98922.6
98854.6
98207
98206.8
98206.3
98205.3
98204.1
98202.5
98200.5
98198.3
98195.7
98192.9
98189.9
98186.7
98183.3
98179.7
98176.1
98172.3
98168.5
98164.5
98160.6
98156.5
98152.4
98148.3
98144.1
98139.9
98135.6
98131.3
98126.9
98122.5
98118.1
98113.7
98109.3
98104.8
98100.4
98095.9
98091.5
98087.2
98082.8
98078.5
98074.3
98070.1
98066
98062
98058
98054.3
98050.7
98047.2
98044
98041
98038.3
98035.8
98033.6
98031.7
98030.1
98028.9
98028.1
98027.7
98027.8
98028.3
98029.3
98030.7
98032.7
98035.3
98038.3
98041.9
98046.1
98050.8
98056.1
98061.9
98068.3
98075.2
98082.6
98090.5
98098.8
98107.5
98116.6
98126.1
98135.8
98145.8
98156
98166.4
98176.9
98187.6
98198.2
98208.9
98219.6
98230.2
98240.6
98251
98261.1
98271
98280.6
98290
98298.9
98307.5
98315.7
98323.5
98330.9
98337.8
98344.2
98350.3
98355.8
98361
98365.6
98369.9
98373.7
98377.2
98380.2
98383
98385.4
98387.5
98389.4
98391
98392.3
98393.3
98394.1
98394.7
98394.9
98394.9
98394.6
98394.1
98393.3
98392.3
98391
98389.4
98387.8
98386.1
98384.4
98382.8
98381.6
98380.8
98380.8
98381.7
98383.6
98386.8
98391.5
98398
98406.3
98416.7
98429.2
98443.9
98460.8
98479.9
98501.4
98525
98550.7
98578.6
98608.4
98640.1
98673.5
98708.5
98745
98782.7
98821.2
98860.5
98900.2
98940.1
98979.7
99018.4
99055.8
99091.6
99124.8
99155
99181
99202.9
99219.7
99230.6
99235.2
99233.5
99224.6
99208.9
99185.4
99155.5
99118.5
99076.4
99028.4
98977.6
98922.1
98865.9
98806
98745.2
98182.8
98182.7
98182.3
98181.5
98180.4
98179
98177.3
98175.3
98173.1
98170.6
98167.8
98164.9
98161.8
98158.6
98155.3
98151.8
98148.3
98144.8
98141.2
98137.5
98133.8
98130
98126.3
98122.5
98118.7
98114.9
98111
98107.2
98103.3
98099.4
98095.5
98091.6
98087.7
98083.8
98080
98076.1
98072.3
98068.5
98064.7
98061
98057.3
98053.7
98050.1
98046.7
98043.4
98040.2
98037.2
98034.4
98031.8
98029.4
98027.3
98025.4
98023.8
98022.5
98021.6
98021
98020.9
98021.1
98021.8
98022.9
98024.5
98026.5
98029.1
98032.1
98035.7
98039.8
98044.4
98049.5
98055.1
98061.2
98067.7
98074.7
98082.1
98089.9
98098.1
98106.5
98115.2
98124.2
98133.3
98142.6
98152
98161.4
98170.9
98180.4
98189.9
98199.2
98208.5
98217.6
98226.4
98235.1
98243.5
98251.6
98259.3
98266.7
98273.7
98280.4
98286.6
98292.4
98297.8
98302.8
98307.4
98311.6
98315.4
98318.8
98321.9
98324.6
98327
98329.1
98330.9
98332.4
98333.8
98334.8
98335.6
98336.2
98336.5
98336.6
98336.4
98335.9
98335.1
98334.1
98332.7
98331
98329
98326.7
98324.1
98321.3
98318.5
98315.7
98313
98310.7
98308.8
98307.8
98307.4
98308.3
98310.4
98314.1
98319.5
98326.7
98335.7
98346.8
98360
98375.2
98392.7
98412.1
98433.5
98457
98482.4
98509.8
98538.8
98569.4
98601.4
98634.8
98668.9
98704
98739.5
98775.5
98811.1
98846.1
98879.9
98912.3
98942.5
98970.1
98993.9
99014.1
99029.9
99040.7
99046.1
99046
99039.5
99027.1
99007.7
98982.9
98951.4
98915.5
98874.2
98830.5
98782
98733.2
98680.5
98627.4
98159.9
98159.9
98159.6
98159
98158
98156.9
98155.4
98153.7
98151.7
98149.5
98147.1
98144.5
98141.8
98138.9
98135.9
98132.9
98129.7
98126.5
98123.3
98120
98116.7
98113.3
98110
98106.6
98103.3
98099.9
98096.5
98093.1
98089.7
98086.3
98082.9
98079.4
98076
98072.6
98069.2
98065.8
98062.4
98059.1
98055.7
98052.3
98049
98045.7
98042.5
98039.4
98036.3
98033.4
98030.6
98027.9
98025.5
98023.1
98021
98019.2
98017.5
98016.2
98015.1
98014.4
98014
98013.9
98014.3
98015.1
98016.2
98017.8
98019.9
98022.4
98025.4
98028.8
98032.7
98037.1
98042
98047.2
98053
98059.1
98065.6
98072.4
98079.6
98087
98094.7
98102.6
98110.7
98118.8
98127.1
98135.4
98143.7
98152
98160.2
98168.3
98176.3
98184.1
98191.7
98199.1
98206.2
98213
98219.6
98225.7
98231.6
98237
98242.1
98246.8
98251.1
98255.1
98258.7
98261.9
98264.9
98267.4
98269.7
98271.6
98273.3
98274.7
98275.9
98276.8
98277.6
98278.1
98278.3
98278.4
98278.1
98277.7
98276.9
98275.9
98274.5
98272.9
98270.9
98268.5
98265.7
98262.5
98259
98255.1
98251.2
98247.1
98243
98239.1
98235.5
98232.4
98230
98228.5
98228.1
98229
98231.4
98235.4
98241.2
98248.8
98258.2
98269.7
98283.2
98298.7
98316
98335.2
98356.3
98379.5
98404.3
98430.5
98458.2
98487.2
98517.1
98548
98579.5
98611.4
98643
98674.1
98704.2
98733.1
98760
98784.8
98806.2
98824.4
98838.7
98849
98854.6
98855.7
98851.1
98841.4
98825.8
98805.3
98779
98749.1
98714.3
98677.4
98636
98594.5
98549.1
98503.9
98139.2
98139.3
98139.1
98138.6
98137.9
98136.9
98135.7
98134.3
98132.6
98130.7
98128.7
98126.4
98124
98121.5
98118.9
98116.2
98113.4
98110.6
98107.7
98104.8
98101.9
98098.9
98096
98093
98090.1
98087.1
98084.1
98081.1
98078.1
98075
98072
98069
98066
98063
98059.9
98056.9
98053.9
98050.8
98047.8
98044.7
98041.7
98038.7
98035.7
98032.8
98030
98027.2
98024.5
98022
98019.6
98017.3
98015.2
98013.3
98011.6
98010.1
98008.9
98008
98007.4
98007.1
98007.2
98007.6
98008.4
98009.6
98011.2
98013.2
98015.6
98018.4
98021.7
98025.4
98029.5
98034.1
98039
98044.2
98049.9
98055.8
98062
98068.5
98075.2
98082
98089
98096.1
98103.2
98110.4
98117.5
98124.6
98131.6
98138.5
98145.3
98151.9
98158.2
98164.3
98170.2
98175.8
98181.1
98186.1
98190.7
98195
98198.9
98202.5
98205.7
98208.6
98211.2
98213.5
98215.5
98217.3
98218.7
98219.9
98220.8
98221.5
98222
98222.3
98222.4
98222.3
98221.9
98221.4
98220.6
98219.5
98218.2
98216.5
98214.5
98212.1
98209.4
98206.2
98202.6
98198.5
98194.1
98189.2
98184.1
98178.7
98173.3
98167.9
98162.6
98157.7
98153.2
98149.5
98146.7
98145
98144.6
98145.6
98148.1
98152.4
98158.4
98166.3
98176.1
98187.8
98201.3
98216.6
98233.7
98252.9
98273.6
98295.8
98319.3
98344.1
98370
98396.8
98424.3
98452.1
98479.7
98507
98533.4
98558.6
98582.2
98604
98622.7
98638.6
98651
98660.2
98665.4
98666.9
98663.6
98656.1
98643.6
98627.1
98605.3
98581
98552.2
98521.8
98487
98452.7
98414.5
98377.1
98121.4
98121.6
98121.4
98121
98120.5
98119.7
98118.7
98117.6
98116.2
98114.6
98112.9
98111
98109
98106.9
98104.6
98102.3
98099.9
98097.4
98094.9
98092.4
98089.9
98087.3
98084.7
98082.1
98079.5
98076.9
98074.3
98071.6
98068.9
98066.2
98063.5
98060.8
98058.1
98055.4
98052.6
98049.9
98047.1
98044.3
98041.5
98038.7
98035.8
98033
98030.2
98027.4
98024.7
98022
98019.5
98017
98014.6
98012.3
98010.2
98008.2
98006.4
98004.9
98003.5
98002.4
98001.6
98001.1
98000.8
98001
98001.4
98002.2
98003.4
98004.9
98006.8
98009.1
98011.8
98014.9
98018.3
98022.1
98026.3
98030.8
98035.6
98040.7
98046
98051.6
98057.3
98063.2
98069.1
98075.2
98081.3
98087.3
98093.4
98099.3
98105.2
98110.9
98116.5
98121.9
98127
98131.9
98136.6
98141
98145.1
98148.8
98152.3
98155.4
98158.3
98160.7
98162.9
98164.8
98166.4
98167.7
98168.8
98169.6
98170.2
98170.6
98170.7
98170.7
98170.4
98170
98169.4
98168.6
98167.6
98166.5
98165
98163.3
98161.3
98158.9
98156.2
98153.1
98149.6
98145.6
98141.1
98136.1
98130.7
98124.9
98118.7
98112.1
98105.5
98098.6
98091.8
98085.2
98078.8
98073.1
98068.1
98063.9
98060.9
98059.2
98058.8
98060
98062.8
98067.4
98073.8
98082
98092
98103.8
98117.3
98132.7
98149.7
98168.2
98187.8
98208.8
98230.8
98253.7
98277.3
98301.2
98324.9
98348.5
98371.1
98392.5
98412.7
98431.1
98447
98460.2
98470.4
98477.9
98481.9
98483.2
98480.6
98474.7
98464.6
98451.4
98433.8
98414.3
98391
98366.4
98338
98310.5
98279.1
98249.2
98106.7
98106.9
98106.9
98106.6
98106.2
98105.6
98104.9
98104
98102.9
98101.6
98100.2
98098.7
98097
98095.3
98093.4
98091.5
98089.5
98087.4
98085.3
98083.2
98081
98078.8
98076.6
98074.3
98072.1
98069.7
98067.4
98065
98062.6
98060.2
98057.7
98055.3
98052.8
98050.2
98047.7
98045.1
98042.5
98039.8
98037.2
98034.5
98031.7
98029
98026.3
98023.6
98020.9
98018.2
98015.7
98013.2
98010.7
98008.4
98006.2
98004.2
98002.3
98000.6
97999.1
97997.8
97996.8
97996
97995.5
97995.4
97995.5
97996
97996.8
97997.9
97999.4
98001.2
98003.3
98005.8
98008.7
98011.9
98015.3
98019.1
98023.2
98027.5
98032.1
98036.8
98041.6
98046.6
98051.7
98056.7
98061.8
98066.9
98071.9
98076.8
98081.6
98086.2
98090.7
98094.9
98098.9
98102.7
98106.2
98109.5
98112.4
98115
98117.4
98119.4
98121.2
98122.6
98123.7
98124.5
98125.1
98125.5
98125.7
98125.6
98125.3
98124.8
98124.1
98123.3
98122.3
98121.1
98119.8
98118.2
98116.5
98114.6
98112.5
98110
98107.3
98104.2
98100.7
98096.8
98092.5
98087.7
98082.4
98076.5
98070.2
98063.3
98056.1
98048.5
98040.6
98032.5
98024.3
98016.1
98008.1
98000.5
97993.6
97987.2
97981.9
97977.7
97974.7
97973.2
97973.2
97974.9
97978.3
97983.5
97990.3
97998.9
98009.2
98021.4
98035
98050.1
98066.3
98083.8
98102.2
98121.4
98141.3
98161.5
98181.4
98201.3
98220
98237.7
98254.2
98269.1
98282
98292.3
98299.8
98305.1
98307.5
98307.8
98305.2
98300.3
98292
98281.4
98267.2
98251.8
98233.2
98214
98191.3
98170.2
98145.2
98122.4
98095.3
98095.5
98095.6
98095.4
98095.1
98094.7
98094.2
98093.5
98092.7
98091.8
98090.7
98089.5
98088.2
98086.8
98085.4
98083.8
98082.2
98080.6
98078.9
98077.1
98075.4
98073.5
98071.7
98069.7
98067.7
98065.7
98063.6
98061.5
98059.3
98057.1
98054.8
98052.5
98050.1
98047.7
98045.2
98042.8
98040.2
98037.6
98035
98032.3
98029.6
98026.9
98024.1
98021.4
98018.7
98016
98013.4
98010.8
98008.3
98005.9
98003.6
98001.4
97999.4
97997.5
97995.9
97994.4
97993.2
97992.2
97991.5
97991.1
97991
97991.1
97991.6
97992.4
97993.5
97994.9
97996.6
97998.6
98001
98003.6
98006.5
98009.7
98013.1
98016.7
98020.5
98024.5
98028.6
98032.8
98037
98041.2
98045.4
98049.6
98053.6
98057.6
98061.4
98065
98068.4
98071.6
98074.6
98077.3
98079.7
98081.8
98083.7
98085.3
98086.5
98087.5
98088.2
98088.6
98088.7
98088.5
98088.1
98087.6
98086.8
98085.8
98084.6
98083.3
98081.7
98080.1
98078.3
98076.3
98074.1
98071.8
98069.3
98066.6
98063.7
98060.4
98056.9
98053
98048.7
98044
98038.9
98033.3
98027.1
98020.4
98013.3
98005.5
97997.4
97988.7
97979.8
97970.6
97961.1
97951.6
97942.1
97933
97924.2
97916.1
97908.7
97902.3
97897.2
97893.4
97890.9
97890.1
97890.9
97893.4
97897.6
97903.5
97910.9
97920.1
97930.7
97942.8
97955.9
97970.2
97985.2
98001.1
98017.6
98034.2
98050.6
98066.8
98081.7
98095.6
98108.3
98119.6
98129.2
98136.4
98141.1
98144
98144.2
98142.9
98139.6
98134.9
98127.7
98119.2
98107.8
98095.8
98081.1
98066.7
98049.1
98033.6
98014.5
97998.4
98086.9
98087.1
98087.2
98087.2
98087.1
98086.9
98086.6
98086.1
98085.6
98085
98084.2
98083.4
98082.5
98081.5
98080.5
98079.4
98078.2
98077
98075.7
98074.4
98072.9
98071.5
98069.9
98068.3
98066.6
98064.8
98062.9
98061
98059
98056.9
98054.7
98052.5
98050.2
98047.8
98045.4
98042.9
98040.3
98037.7
98035
98032.2
98029.5
98026.7
98023.8
98021
98018.2
98015.4
98012.6
98009.9
98007.3
98004.8
98002.3
98000
97997.8
97995.8
97994
97992.4
97991
97989.9
97989
97988.3
97988
97987.9
97988.1
97988.6
97989.3
97990.4
97991.7
97993.4
97995.3
97997.5
97999.9
98002.6
98005.4
98008.5
98011.7
98015
98018.4
98021.9
98025.4
98028.8
98032.3
98035.6
98038.8
98041.9
98044.8
98047.5
98050
98052.2
98054.2
98055.9
98057.3
98058.5
98059.3
98059.9
98060.2
98060.1
98059.8
98059.2
98058.3
98057.2
98055.8
98054.3
98052.6
98050.7
98048.6
98046.4
98044
98041.5
98038.8
98035.9
98032.9
98029.8
98026.5
98022.9
98019.1
98015.1
98010.7
98005.9
98000.9
97995.4
97989.4
97983
97976
97968.5
97960.6
97952.1
97943
97933.5
97923.7
97913.5
97903
97892.4
97881.7
97871.2
97861
97851.2
97842.2
97834.1
97827
97821.3
97816.8
97813.8
97812.5
97812.8
97814.6
97818
97823
97829.6
97837.5
97846.8
97857.1
97868.6
97880.7
97893.5
97906.8
97920
97933
97945.6
97956.8
97967
97975.9
97983.5
97989.5
97993.4
97995.2
97995.6
97993.4
97990.1
97985.6
97980.4
97973.7
97966.4
97957.1
97947.8
97936.4
97926.1
97912.9
97902.6
97888.6
97878.8
98080.9
98081.2
98081.4
98081.5
98081.5
98081.4
98081.3
98081.1
98080.9
98080.6
98080.3
98079.9
98079.5
98079
98078.4
98077.8
98077.1
98076.3
98075.4
98074.5
98073.5
98072.3
98071.1
98069.8
98068.3
98066.7
98065
98063.2
98061.3
98059.3
98057.2
98055
98052.7
98050.3
98047.8
98045.2
98042.5
98039.8
98037
98034.2
98031.3
98028.3
98025.3
98022.4
98019.4
98016.4
98013.5
98010.6
98007.8
98005.1
98002.5
98000
97997.7
97995.5
97993.6
97991.8
97990.3
97989
97987.9
97987.1
97986.5
97986.2
97986.2
97986.5
97987
97987.8
97988.9
97990.2
97991.8
97993.6
97995.6
97997.8
98000.3
98002.8
98005.5
98008.3
98011.1
98014
98016.9
98019.7
98022.4
98025
98027.5
98029.8
98031.9
98033.8
98035.4
98036.8
98037.9
98038.7
98039.2
98039.4
98039.4
98039
98038.3
98037.3
98036.1
98034.5
98032.7
98030.6
98028.3
98025.8
98023.2
98020.4
98017.4
98014.3
98011.1
98007.6
98004.1
98000.4
97996.5
97992.5
97988.3
97983.8
97979.1
97974.2
97969
97963.4
97957.5
97951.2
97944.4
97937.2
97929.5
97921.2
97912.6
97903.4
97893.7
97883.4
97872.8
97861.8
97850.5
97839
97827.4
97815.8
97804.3
97793.3
97782.9
97773.4
97764.9
97757.4
97751.3
97746.6
97743.4
97741.7
97741.5
97742.9
97745.7
97750
97755.6
97762.4
97770.3
97779.3
97788.8
97798.7
97808.8
97818.8
97828.5
97837.6
97845.3
97851.8
97856.9
97860.8
97863.1
97863.6
97862.3
97860.1
97855.5
97850
97843.9
97837.7
97830.9
97824.3
97816.4
97809.2
97800.4
97793.5
97784.1
97778.4
97768.9
97764.7
98076.6
98076.9
98077.1
98077.3
98077.4
98077.6
98077.8
98078
98078.2
98078.4
98078.6
98078.7
98078.9
98078.9
98078.9
98078.7
98078.5
98078.2
98077.8
98077.2
98076.5
98075.7
98074.8
98073.7
98072.4
98071
98069.4
98067.7
98065.9
98063.9
98061.8
98059.5
98057.2
98054.7
98052.1
98049.4
98046.6
98043.7
98040.8
98037.8
98034.7
98031.5
98028.4
98025.2
98022
98018.9
98015.8
98012.7
98009.7
98006.8
98004.1
98001.5
97999
97996.7
97994.6
97992.7
97991
97989.5
97988.3
97987.3
97986.6
97986.2
97986
97986.1
97986.4
97987
97987.9
97989
97990.3
97991.8
97993.6
97995.5
97997.5
97999.7
98002
98004.3
98006.7
98009
98011.4
98013.6
98015.7
98017.7
98019.6
98021.2
98022.6
98023.7
98024.6
98025.2
98025.5
98025.5
98025.2
98024.5
98023.6
98022.4
98020.8
98019
98016.8
98014.4
98011.6
98008.7
98005.5
98002.1
97998.6
97994.9
97991.1
97987.1
97982.9
97978.6
97974.2
97969.6
97964.8
97959.9
97954.8
97949.4
97943.9
97938.1
97932
97925.6
97918.9
97911.8
97904.3
97896.3
97887.8
97879
97869.7
97859.9
97849.5
97838.7
97827.5
97815.9
97803.9
97791.7
97779.3
97766.9
97754.5
97742.6
97731.2
97720.6
97710.7
97702
97694.5
97688.4
97683.6
97680.3
97678.4
97678
97679
97681.4
97684.9
97689.5
97695.2
97702
97709.1
97716.2
97723.3
97730.2
97736.8
97742.5
97746.8
97749.9
97751.3
97751.4
97750
97747
97742.6
97737.4
97730.4
97722.8
97714.8
97707.4
97700
97693.6
97686.3
97680.7
97674
97669.8
97663.5
97661.8
97656.4
97657
98072.8
98073
98073.2
98073.4
98073.7
98074.2
98074.8
98075.6
98076.4
98077.3
98078.2
98079.1
98079.9
98080.6
98081.1
98081.6
98081.9
98082
98082
98081.8
98081.4
98080.9
98080.2
98079.3
98078.2
98076.9
98075.4
98073.8
98071.9
98069.9
98067.8
98065.5
98063.1
98060.5
98057.8
98054.9
98052
98049
98045.8
98042.6
98039.3
98036
98032.6
98029.3
98025.9
98022.5
98019.2
98016
98012.8
98009.8
98006.9
98004.1
98001.5
97999.1
97996.8
97994.8
97993
97991.5
97990.1
97989.1
97988.3
97987.7
97987.4
97987.4
97987.6
97988
97988.7
97989.6
97990.8
97992.1
97993.6
97995.3
97997
97998.9
98000.8
98002.8
98004.7
98006.7
98008.5
98010.3
98011.9
98013.3
98014.6
98015.6
98016.4
98016.9
98017.1
98017
98016.6
98015.8
98014.8
98013.4
98011.6
98009.6
98007.2
98004.6
98001.6
97998.4
97994.8
97991
97987
97982.7
97978.3
97973.8
97969.1
97964.3
97959.3
97954.1
97948.8
97943.4
97937.8
97931.9
97925.9
97919.7
97913.3
97906.6
97899.7
97892.6
97885.1
97877.2
97869
97860.3
97851.3
97841.9
97832
97821.6
97810.8
97799.6
97787.9
97775.8
97763.3
97750.5
97737.5
97724.5
97711.5
97699
97686.8
97675.3
97664.5
97654.7
97646.1
97638.7
97632.5
97627.8
97624.5
97622.6
97622.1
97622.8
97624.5
97627.2
97631
97635.6
97640.5
97645.1
97649.4
97653.3
97656.8
97659.4
97660.6
97660.3
97658
97654.4
97649.3
97643
97635.3
97627.1
97617.7
97607.9
97598
97589.3
97581
97574.3
97567.4
97562.9
97557.6
97555.6
97551.8
97553.6
97551.8
97556.7
98068
98068
98068
98068.4
98069.1
98070.4
98071.8
98073.6
98075.3
98077.2
98078.9
98080.6
98082.2
98083.5
98084.7
98085.7
98086.5
98087
98087.4
98087.5
98087.4
98087.1
98086.6
98085.8
98084.9
98083.7
98082.3
98080.7
98078.8
98076.8
98074.6
98072.3
98069.7
98067
98064.2
98061.2
98058.1
98054.9
98051.6
98048.2
98044.7
98041.2
98037.7
98034.1
98030.6
98027.1
98023.6
98020.2
98016.9
98013.7
98010.7
98007.8
98005.1
98002.5
98000.2
97998.1
97996.2
97994.6
97993.2
97992.1
97991.2
97990.5
97990.1
97990
97990.1
97990.5
97991.1
97991.9
97992.9
97994
97995.4
97996.8
97998.3
97999.9
98001.6
98003.2
98004.8
98006.4
98007.8
98009.1
98010.3
98011.3
98012
98012.5
98012.7
98012.6
98012.2
98011.5
98010.4
98009
98007.3
98005.2
98002.7
97999.9
97996.8
97993.4
97989.7
97985.7
97981.4
97976.8
97972
97967
97961.8
97956.4
97950.9
97945.3
97939.5
97933.5
97927.4
97921.1
97914.7
97908
97901.2
97894.2
97886.9
97879.5
97871.8
97863.9
97855.7
97847.2
97838.3
97829.1
97819.5
97809.6
97799.3
97788.5
97777.3
97765.7
97753.7
97741.3
97728.3
97715.1
97701.8
97688.3
97675
97662