/*--------------------------------*- C++ -*----------------------------------*\
| =========                 |                                                 |
| \\      /  F ield         | OpenFOAM: The Open Source CFD Toolbox           |
|  \\    /   O peration     | Version:  dev                                   |
|   \\  /    A nd           | Web:      http://www.openfoam.org               |
|    \\/     M anipulation  |                                                 |
\*---------------------------------------------------------------------------*/
FoamFile
{
    version     2.0;
    format      ascii;
    class       volScalarField;
    object      pPrime2Mean;
    location    "9.133";
}
// * * * * * * * * * * * * * * * * * * * * * * * * * * * * * * * * * * * * * //

dimensions      [2 -2 -4 0 0 0 0];

internalField   nonuniform List<scalar> 
12225
(
5.03817e+07
4.99166e+07
4.89557e+07
4.76044e+07
4.59505e+07
4.40834e+07
4.20622e+07
3.99591e+07
3.78148e+07
3.56774e+07
3.35846e+07
3.15394e+07
2.96157e+07
2.77443e+07
2.59965e+07
2.44354e+07
2.28732e+07
2.12931e+07
5.02738e+07
4.98087e+07
4.88487e+07
4.7499e+07
4.58465e+07
4.39818e+07
4.19635e+07
3.9863e+07
3.77226e+07
3.55879e+07
3.34998e+07
3.14583e+07
2.95392e+07
2.76746e+07
2.59442e+07
2.43833e+07
2.28741e+07
2.15394e+07
5.00236e+07
4.95591e+07
4.85995e+07
4.72529e+07
4.56049e+07
4.3745e+07
4.17334e+07
3.96391e+07
3.75069e+07
3.53803e+07
3.33007e+07
3.12708e+07
2.93578e+07
2.75105e+07
2.58e+07
2.42439e+07
2.28085e+07
2.15949e+07
4.95877e+07
4.91262e+07
4.81689e+07
4.68275e+07
4.51875e+07
4.3336e+07
4.13361e+07
3.92524e+07
3.7135e+07
3.50218e+07
3.2958e+07
3.0946e+07
2.90502e+07
2.72222e+07
2.55414e+07
2.401e+07
2.26233e+07
2.1522e+07
4.89224e+07
4.8461e+07
4.75085e+07
4.61766e+07
4.45484e+07
4.27114e+07
4.07273e+07
3.8663e+07
3.65645e+07
3.44756e+07
3.24321e+07
3.04508e+07
2.85776e+07
2.67857e+07
2.51572e+07
2.36482e+07
2.23668e+07
2.13019e+07
4.79728e+07
4.75088e+07
4.65659e+07
4.52474e+07
4.36371e+07
4.182e+07
3.98606e+07
3.78217e+07
3.57535e+07
3.36942e+07
3.16849e+07
2.97379e+07
2.79029e+07
2.61576e+07
2.45786e+07
2.31391e+07
2.19121e+07
2.08554e+07
4.66773e+07
4.62121e+07
4.52846e+07
4.39824e+07
4.23983e+07
4.06068e+07
3.8683e+07
3.66776e+07
3.46522e+07
3.26319e+07
3.0671e+07
2.87696e+07
2.6986e+07
2.52986e+07
2.37765e+07
2.23972e+07
2.12286e+07
2.02006e+07
4.52346e+07
4.4771e+07
4.38599e+07
4.25755e+07
4.10201e+07
3.92583e+07
3.7373e+07
3.54066e+07
3.34266e+07
3.14524e+07
2.95414e+07
2.76937e+07
2.59617e+07
2.43374e+07
2.28639e+07
2.15478e+07
2.04118e+07
1.94519e+07
4.37192e+07
4.32591e+07
4.23642e+07
4.10996e+07
3.95738e+07
3.78444e+07
3.59985e+07
3.40745e+07
3.21407e+07
3.02161e+07
2.83561e+07
2.6564e+07
2.48858e+07
2.33222e+07
2.19008e+07
2.06409e+07
1.95469e+07
1.86482e+07
4.17782e+07
4.13248e+07
4.04494e+07
3.92124e+07
3.7723e+07
3.60376e+07
3.42406e+07
3.23728e+07
3.04962e+07
2.86365e+07
2.68394e+07
2.51189e+07
2.35067e+07
2.20179e+07
2.06628e+07
1.94706e+07
1.84334e+07
1.75807e+07
3.93286e+07
3.88852e+07
3.80333e+07
3.68331e+07
3.53896e+07
3.37613e+07
3.20264e+07
3.02295e+07
2.84262e+07
2.66468e+07
2.49299e+07
2.32955e+07
2.17671e+07
2.03645e+07
1.90925e+07
1.7977e+07
1.70068e+07
1.62002e+07
3.6304e+07
3.58755e+07
3.50518e+07
3.39006e+07
3.25143e+07
3.09593e+07
2.93017e+07
2.7594e+07
2.58811e+07
2.42007e+07
2.2582e+07
2.10507e+07
1.96232e+07
1.83199e+07
1.71445e+07
1.61134e+07
1.52189e+07
1.44655e+07
3.26896e+07
3.22797e+07
3.14924e+07
3.04023e+07
2.90883e+07
2.76223e+07
2.60606e+07
2.44594e+07
2.28568e+07
2.12929e+07
1.9791e+07
1.83787e+07
1.70677e+07
1.58767e+07
1.48078e+07
1.38704e+07
1.30592e+07
1.2371e+07
2.85765e+07
2.81894e+07
2.74488e+07
2.6431e+07
2.52054e+07
2.38429e+07
2.23952e+07
2.09162e+07
1.94417e+07
1.80087e+07
1.66397e+07
1.53581e+07
1.41757e+07
1.31053e+07
1.21501e+07
1.1313e+07
1.05905e+07
9.97649e+06
2.42502e+07
2.38896e+07
2.32051e+07
2.22682e+07
2.11427e+07
1.98944e+07
1.85723e+07
1.72256e+07
1.58888e+07
1.45947e+07
1.33647e+07
1.22182e+07
1.11662e+07
1.02176e+07
9.3748e+06
8.63788e+06
8.00361e+06
7.46533e+06
2.03017e+07
1.99698e+07
1.93449e+07
1.84896e+07
1.74657e+07
1.63305e+07
1.51321e+07
1.39137e+07
1.27086e+07
1.15452e+07
1.04441e+07
9.4209e+06
8.48561e+06
7.64429e+06
6.89882e+06
6.24794e+06
5.68847e+06
5.21418e+06
1.77353e+07
1.74288e+07
1.68541e+07
1.60668e+07
1.51251e+07
1.4081e+07
1.298e+07
1.18609e+07
1.07555e+07
9.68901e+06
8.68027e+06
7.74287e+06
6.88555e+06
6.11308e+06
5.42682e+06
4.82539e+06
4.30581e+06
3.86271e+06
1.78437e+07
1.75492e+07
1.69967e+07
1.62389e+07
1.53319e+07
1.43248e+07
1.32612e+07
1.21781e+07
1.11055e+07
1.00672e+07
9.08089e+06
8.15927e+06
7.31044e+06
6.5389e+06
5.84606e+06
5.23107e+06
4.69143e+06
4.22279e+06
2.07225e+07
2.04235e+07
1.98611e+07
1.90884e+07
1.81618e+07
1.71308e+07
1.60386e+07
1.4922e+07
1.38108e+07
1.27285e+07
1.16927e+07
1.0716e+07
9.80677e+06
8.96972e+06
8.20679e+06
7.5179e+06
6.90119e+06
6.35331e+06
2.52123e+07
2.49003e+07
2.431e+07
2.34961e+07
2.25181e+07
2.14267e+07
2.02666e+07
1.90754e+07
1.78838e+07
1.67156e+07
1.55891e+07
1.45174e+07
1.35092e+07
1.25701e+07
1.17027e+07
1.09075e+07
1.01836e+07
9.52843e+06
3.02748e+07
2.99487e+07
2.93252e+07
2.84618e+07
2.74212e+07
2.62566e+07
2.50145e+07
2.37338e+07
2.24465e+07
2.11774e+07
1.99457e+07
1.87651e+07
1.76452e+07
1.65923e+07
1.56096e+07
1.46985e+07
1.38588e+07
1.30887e+07
3.51916e+07
3.48539e+07
3.41993e+07
3.32887e+07
3.2188e+07
3.09522e+07
2.96298e+07
2.82615e+07
2.68805e+07
2.55129e+07
2.41786e+07
2.28923e+07
2.16645e+07
2.05019e+07
1.94089e+07
1.83873e+07
1.74374e+07
1.65584e+07
3.95435e+07
3.91974e+07
3.85173e+07
3.75671e+07
3.64147e+07
3.51171e+07
3.37246e+07
3.22793e+07
3.08158e+07
2.93613e+07
2.79366e+07
2.65571e+07
2.52342e+07
2.39754e+07
2.27854e+07
2.16669e+07
2.06207e+07
1.96464e+07
4.31414e+07
4.27901e+07
4.20908e+07
4.11095e+07
3.9916e+07
3.85686e+07
3.7119e+07
3.56108e+07
3.40797e+07
3.25536e+07
3.10544e+07
2.95983e+07
2.81972e+07
2.68591e+07
2.55894e+07
2.43912e+07
2.32659e+07
2.22132e+07
4.59514e+07
4.55972e+07
4.4884e+07
4.38799e+07
4.26553e+07
4.12698e+07
3.97762e+07
3.82194e+07
3.66358e+07
3.50542e+07
3.34971e+07
3.19813e+07
3.05193e+07
2.91195e+07
2.77878e+07
2.65277e+07
2.53408e+07
2.42272e+07
4.80308e+07
4.7675e+07
4.69522e+07
4.59319e+07
4.46849e+07
4.32717e+07
4.1746e+07
4.01535e+07
3.85312e+07
3.69088e+07
3.5309e+07
3.37493e+07
3.22424e+07
3.07973e+07
2.94199e+07
2.81142e+07
2.68819e+07
2.57234e+07
4.94805e+07
4.91238e+07
4.83944e+07
4.73632e+07
4.61009e+07
4.46687e+07
4.31211e+07
4.15041e+07
3.98551e+07
3.82044e+07
3.65751e+07
3.4985e+07
3.3447e+07
3.19704e+07
3.05614e+07
2.9224e+07
2.79603e+07
2.67707e+07
5.0416e+07
5.00583e+07
4.93247e+07
4.82868e+07
4.70148e+07
4.55706e+07
4.4009e+07
4.23763e+07
4.07104e+07
3.90416e+07
3.73934e+07
3.57838e+07
3.42258e+07
3.27289e+07
3.12996e+07
2.99419e+07
2.8658e+07
2.74484e+07
5.09454e+07
5.05873e+07
4.98522e+07
4.88111e+07
4.75337e+07
4.6083e+07
4.45136e+07
4.28719e+07
4.11962e+07
3.9517e+07
3.78579e+07
3.6237e+07
3.46675e+07
3.3159e+07
3.1718e+07
3.03486e+07
2.90533e+07
2.78327e+07
5.11677e+07
5.08111e+07
5.0074e+07
4.90312e+07
4.77513e+07
4.62977e+07
4.47249e+07
4.30794e+07
4.13994e+07
3.97157e+07
3.8052e+07
3.64262e+07
3.48518e+07
3.33383e+07
3.18923e+07
3.0518e+07
2.9218e+07
2.7993e+07
6.04876e+07
6.04285e+07
6.02978e+07
6.00919e+07
5.98091e+07
5.94485e+07
5.90104e+07
5.84953e+07
5.79045e+07
5.72394e+07
5.65019e+07
5.5694e+07
5.48181e+07
5.38768e+07
5.28728e+07
5.18091e+07
5.0689e+07
4.95158e+07
4.82934e+07
4.70256e+07
4.57163e+07
4.43697e+07
4.29899e+07
4.15813e+07
4.01485e+07
3.86959e+07
3.72281e+07
3.57495e+07
3.42645e+07
3.27778e+07
3.1294e+07
2.98176e+07
2.83532e+07
2.69054e+07
2.54789e+07
2.40781e+07
2.27077e+07
2.13725e+07
2.00771e+07
1.88264e+07
1.76251e+07
1.64781e+07
1.53905e+07
1.43672e+07
1.34136e+07
1.25347e+07
1.17359e+07
1.10226e+07
1.04001e+07
9.87399e+06
9.44963e+06
9.13249e+06
8.92795e+06
8.84129e+06
8.8776e+06
9.04169e+06
9.33813e+06
9.77116e+06
1.03446e+07
1.10618e+07
1.19255e+07
1.29377e+07
1.41e+07
1.54131e+07
1.68769e+07
1.84906e+07
2.02526e+07
2.21605e+07
2.4211e+07
2.64004e+07
2.87241e+07
3.11768e+07
3.37526e+07
3.6445e+07
3.92472e+07
4.2152e+07
4.51519e+07
4.8239e+07
5.14056e+07
5.46437e+07
5.79452e+07
6.13018e+07
6.47052e+07
6.81469e+07
7.16182e+07
7.51102e+07
7.86137e+07
8.21193e+07
8.5617e+07
8.90963e+07
9.25462e+07
9.59554e+07
9.93117e+07
1.02603e+08
1.05816e+08
1.08938e+08
1.11958e+08
1.14862e+08
1.17639e+08
1.2028e+08
1.22773e+08
1.25112e+08
1.27288e+08
1.29297e+08
1.31135e+08
1.32799e+08
1.3429e+08
1.35611e+08
1.36766e+08
1.37763e+08
1.38613e+08
1.39326e+08
1.39917e+08
1.40399e+08
1.40789e+08
1.41105e+08
1.41366e+08
1.41594e+08
1.41813e+08
1.42048e+08
1.42331e+08
1.42693e+08
1.43172e+08
1.43807e+08
1.44642e+08
1.45725e+08
1.47108e+08
1.48848e+08
1.51005e+08
1.53642e+08
1.56823e+08
1.60608e+08
1.65062e+08
1.70238e+08
1.76192e+08
1.82968e+08
1.90603e+08
1.99123e+08
2.08543e+08
2.18865e+08
2.30084e+08
2.42177e+08
2.55117e+08
2.68861e+08
2.83368e+08
2.98573e+08
3.14429e+08
3.30863e+08
3.47814e+08
3.65205e+08
3.82964e+08
4.01006e+08
4.19242e+08
4.37577e+08
4.55892e+08
4.74045e+08
4.91875e+08
5.09211e+08
5.2582e+08
5.41469e+08
5.55857e+08
5.68686e+08
5.79615e+08
5.8832e+08
5.94467e+08
5.9776e+08
5.97937e+08
5.94817e+08
5.88276e+08
5.78338e+08
5.65085e+08
5.48784e+08
5.29754e+08
5.08487e+08
4.85457e+08
4.61189e+08
4.36049e+08
4.10472e+08
3.84671e+08
3.5897e+08
5.94121e+07
5.93564e+07
5.92312e+07
5.90313e+07
5.87549e+07
5.8402e+07
5.79731e+07
5.74695e+07
5.68922e+07
5.62427e+07
5.55228e+07
5.47344e+07
5.38797e+07
5.29611e+07
5.19811e+07
5.09426e+07
4.98486e+07
4.87025e+07
4.75077e+07
4.6268e+07
4.49872e+07
4.36694e+07
4.23188e+07
4.09394e+07
3.95358e+07
3.81124e+07
3.66735e+07
3.52233e+07
3.37664e+07
3.2307e+07
3.08498e+07
2.93992e+07
2.79598e+07
2.65361e+07
2.51326e+07
2.37539e+07
2.24044e+07
2.10888e+07
1.98118e+07
1.85782e+07
1.73927e+07
1.62601e+07
1.51856e+07
1.4174e+07
1.32305e+07
1.23604e+07
1.1569e+07
1.08615e+07
1.02434e+07
9.7203e+06
9.29748e+06
8.98042e+06
8.7745e+06
8.68495e+06
8.71688e+06
8.87519e+06
9.16442e+06
9.5888e+06
1.01521e+07
1.08577e+07
1.17083e+07
1.2706e+07
1.38522e+07
1.51476e+07
1.65922e+07
1.81852e+07
1.99249e+07
2.18089e+07
2.38341e+07
2.59966e+07
2.82918e+07
3.07144e+07
3.32587e+07
3.59182e+07
3.8686e+07
4.1555e+07
4.45178e+07
4.75667e+07
5.06938e+07
5.38911e+07
5.71506e+07
6.04641e+07
6.38234e+07
6.722e+07
7.06453e+07
7.40905e+07
7.75464e+07
8.10036e+07
8.44522e+07
8.7882e+07
9.12821e+07
9.4641e+07
9.79471e+07
1.01188e+08
1.04351e+08
1.07424e+08
1.10395e+08
1.13252e+08
1.15983e+08
1.18579e+08
1.21029e+08
1.23327e+08
1.25466e+08
1.27439e+08
1.29244e+08
1.30878e+08
1.32342e+08
1.33638e+08
1.34772e+08
1.3575e+08
1.36584e+08
1.37284e+08
1.37863e+08
1.38336e+08
1.38718e+08
1.39027e+08
1.39281e+08
1.39502e+08
1.39713e+08
1.39939e+08
1.4021e+08
1.40559e+08
1.4102e+08
1.41634e+08
1.42442e+08
1.43493e+08
1.44837e+08
1.4653e+08
1.48632e+08
1.51205e+08
1.54311e+08
1.58013e+08
1.62369e+08
1.67437e+08
1.73268e+08
1.79908e+08
1.87393e+08
1.95749e+08
2.04991e+08
2.15122e+08
2.26136e+08
2.38011e+08
2.50721e+08
2.64227e+08
2.78483e+08
2.9343e+08
3.09016e+08
3.25181e+08
3.41856e+08
3.58967e+08
3.76445e+08
3.94207e+08
4.12165e+08
4.30229e+08
4.48278e+08
4.66176e+08
4.83761e+08
5.00871e+08
5.17276e+08
5.32743e+08
5.46987e+08
5.5971e+08
5.70575e+08
5.79265e+08
5.85452e+08
5.88846e+08
5.89191e+08
5.86308e+08
5.80067e+08
5.7048e+08
5.57622e+08
5.41748e+08
5.23165e+08
5.02353e+08
4.79773e+08
4.55934e+08
4.31203e+08
4.06009e+08
3.8056e+08
3.55097e+08
5.73457e+07
5.72926e+07
5.7173e+07
5.69815e+07
5.67167e+07
5.63792e+07
5.597e+07
5.54901e+07
5.49406e+07
5.43226e+07
5.36376e+07
5.28873e+07
5.20735e+07
5.11985e+07
5.02644e+07
4.92738e+07
4.82295e+07
4.71346e+07
4.59924e+07
4.48063e+07
4.35801e+07
4.23176e+07
4.10227e+07
3.96996e+07
3.83521e+07
3.69844e+07
3.56005e+07
3.42045e+07
3.28008e+07
3.13937e+07
2.99875e+07
2.85866e+07
2.71954e+07
2.58182e+07
2.44593e+07
2.31231e+07
2.18141e+07
2.05366e+07
1.92953e+07
1.80949e+07
1.69401e+07
1.58356e+07
1.47864e+07
1.37975e+07
1.28739e+07
1.20209e+07
1.12438e+07
1.05479e+07
9.93857e+06
9.42131e+06
9.00152e+06
8.68463e+06
8.47605e+06
8.381e+06
8.40457e+06
8.55167e+06
8.82683e+06
9.23428e+06
9.77783e+06
1.04607e+07
1.12857e+07
1.22548e+07
1.33694e+07
1.46303e+07
1.60373e+07
1.75895e+07
1.92854e+07
2.11225e+07
2.30977e+07
2.52072e+07
2.74465e+07
2.98102e+07
3.22926e+07
3.48874e+07
3.75878e+07
4.03869e+07
4.32771e+07
4.62511e+07
4.9301e+07
5.2419e+07
5.55969e+07
5.88269e+07
6.21007e+07
6.54099e+07
6.87461e+07
7.21005e+07
7.54642e+07
7.88278e+07
8.21817e+07
8.55157e+07
8.8819e+07
9.20807e+07
9.52892e+07
9.84327e+07
1.01499e+08
1.04476e+08
1.07351e+08
1.10115e+08
1.12756e+08
1.15264e+08
1.1763e+08
1.19848e+08
1.21911e+08
1.23814e+08
1.25555e+08
1.2713e+08
1.28541e+08
1.29789e+08
1.30881e+08
1.31824e+08
1.32627e+08
1.333e+08
1.33858e+08
1.34312e+08
1.34678e+08
1.34972e+08
1.35212e+08
1.35418e+08
1.35613e+08
1.35821e+08
1.3607e+08
1.36391e+08
1.36817e+08
1.37387e+08
1.38141e+08
1.39126e+08
1.40392e+08
1.41992e+08
1.43983e+08
1.46428e+08
1.49385e+08
1.52918e+08
1.57082e+08
1.61933e+08
1.67522e+08
1.73892e+08
1.81079e+08
1.8911e+08
1.98e+08
2.07752e+08
2.18359e+08
2.29803e+08
2.42059e+08
2.55092e+08
2.68853e+08
2.83288e+08
2.98343e+08
3.13968e+08
3.30094e+08
3.46649e+08
3.63564e+08
3.80766e+08
3.98169e+08
4.15682e+08
4.3319e+08
4.50567e+08
4.67652e+08
4.84286e+08
5.00254e+08
5.15325e+08
5.29235e+08
5.41692e+08
5.52374e+08
5.6098e+08
5.67189e+08
5.7073e+08
5.71353e+08
5.68884e+08
5.6319e+08
5.54257e+08
5.4216e+08
5.27122e+08
5.09431e+08
4.89541e+08
4.67877e+08
4.44918e+08
4.21038e+08
3.96636e+08
3.71939e+08
3.47117e+08
5.44505e+07
5.44012e+07
5.42891e+07
5.41097e+07
5.38628e+07
5.35491e+07
5.31695e+07
5.27244e+07
5.22147e+07
5.16413e+07
5.10053e+07
5.03079e+07
4.95507e+07
4.87355e+07
4.78641e+07
4.69391e+07
4.5963e+07
4.49386e+07
4.38689e+07
4.2757e+07
4.16065e+07
4.04209e+07
3.92038e+07
3.79586e+07
3.6689e+07
3.53986e+07
3.40912e+07
3.27708e+07
3.14415e+07
3.01074e+07
2.87727e+07
2.74414e+07
2.61176e+07
2.48054e+07
2.35088e+07
2.22321e+07
2.09794e+07
1.97553e+07
1.8564e+07
1.74102e+07
1.62984e+07
1.52333e+07
1.42197e+07
1.32627e+07
1.23672e+07
1.15384e+07
1.07816e+07
1.01019e+07
9.50497e+06
8.99606e+06
8.58061e+06
8.26405e+06
8.05175e+06
7.94892e+06
7.96064e+06
8.09178e+06
8.34694e+06
8.73029e+06
9.2456e+06
9.8961e+06
1.06845e+07
1.16128e+07
1.26824e+07
1.38939e+07
1.52472e+07
1.67414e+07
1.83749e+07
2.01453e+07
2.20497e+07
2.40841e+07
2.6244e+07
2.85243e+07
3.09195e+07
3.34231e+07
3.60287e+07
3.87293e+07
4.15178e+07
4.43867e+07
4.73286e+07
5.03356e+07
5.33998e+07
5.65134e+07
5.96682e+07
6.28559e+07
6.60683e+07
6.92967e+07
7.25325e+07
7.57664e+07
7.89888e+07
8.21899e+07
8.53591e+07
8.84857e+07
9.15585e+07
9.4566e+07
9.74968e+07
1.00339e+08
1.03082e+08
1.05715e+08
1.08228e+08
1.10613e+08
1.12861e+08
1.14966e+08
1.16923e+08
1.18726e+08
1.20374e+08
1.21864e+08
1.23198e+08
1.24379e+08
1.25412e+08
1.26302e+08
1.2706e+08
1.27696e+08
1.28221e+08
1.28648e+08
1.28989e+08
1.29261e+08
1.29479e+08
1.29663e+08
1.29834e+08
1.30016e+08
1.30231e+08
1.3051e+08
1.30885e+08
1.31391e+08
1.32068e+08
1.32959e+08
1.34114e+08
1.35582e+08
1.37418e+08
1.39681e+08
1.42428e+08
1.45722e+08
1.49615e+08
1.54162e+08
1.59409e+08
1.65401e+08
1.7217e+08
1.79746e+08
1.88143e+08
1.97365e+08
2.07405e+08
2.18248e+08
2.29872e+08
2.42246e+08
2.5532e+08
2.69045e+08
2.83367e+08
2.98243e+08
3.13609e+08
3.29399e+08
3.4554e+08
3.61971e+08
3.78607e+08
3.9536e+08
4.12119e+08
4.28769e+08
4.45155e+08
4.61122e+08
4.76471e+08
4.90979e+08
5.04399e+08
5.16455e+08
5.26848e+08
5.35293e+08
5.41488e+08
5.45177e+08
5.4612e+08
5.4415e+08
5.39135e+08
5.31046e+08
5.19944e+08
5.06019e+08
4.89534e+08
4.70901e+08
4.50502e+08
4.2878e+08
4.06096e+08
3.82825e+08
3.59207e+08
3.35391e+08
5.0927e+07
5.0883e+07
5.0781e+07
5.0618e+07
5.03943e+07
5.01104e+07
4.97665e+07
4.93631e+07
4.89008e+07
4.83802e+07
4.78019e+07
4.7167e+07
4.64767e+07
4.57325e+07
4.49363e+07
4.40899e+07
4.31957e+07
4.22561e+07
4.12738e+07
4.02516e+07
3.91926e+07
3.80998e+07
3.69762e+07
3.5825e+07
3.46492e+07
3.34523e+07
3.22378e+07
3.10095e+07
2.97711e+07
2.85263e+07
2.72789e+07
2.60326e+07
2.47911e+07
2.35583e+07
2.23378e+07
2.11337e+07
1.99501e+07
1.87912e+07
1.76611e+07
1.65643e+07
1.55052e+07
1.44884e+07
1.35186e+07
1.26007e+07
1.17396e+07
1.09405e+07
1.02084e+07
9.54878e+06
8.96688e+06
8.46814e+06
8.05793e+06
7.74166e+06
7.52467e+06
7.41218e+06
7.40922e+06
7.52062e+06
7.75093e+06
8.10429e+06
8.5844e+06
9.19452e+06
9.93729e+06
1.08147e+07
1.18282e+07
1.29782e+07
1.42647e+07
1.56868e+07
1.72427e+07
1.89303e+07
2.07465e+07
2.26876e+07
2.47491e+07
2.69261e+07
2.9213e+07
3.16037e+07
3.40919e+07
3.66708e+07
3.93334e+07
4.20726e+07
4.4881e+07
4.7751e+07
5.06749e+07
5.36449e+07
5.66532e+07
5.96916e+07
6.2752e+07
6.58259e+07
6.89047e+07
7.19796e+07
7.50411e+07
7.80795e+07
8.10849e+07
8.40467e+07
8.69543e+07
8.97964e+07
9.25622e+07
9.52409e+07
9.78223e+07
1.00297e+08
1.02655e+08
1.04889e+08
1.06991e+08
1.08957e+08
1.10783e+08
1.12464e+08
1.13997e+08
1.15382e+08
1.16622e+08
1.17718e+08
1.18676e+08
1.19501e+08
1.20202e+08
1.20789e+08
1.21271e+08
1.21661e+08
1.2197e+08
1.22212e+08
1.22402e+08
1.22557e+08
1.22696e+08
1.22841e+08
1.23014e+08
1.23241e+08
1.23552e+08
1.2398e+08
1.24562e+08
1.2534e+08
1.26357e+08
1.27664e+08
1.29311e+08
1.31354e+08
1.33846e+08
1.36847e+08
1.4041e+08
1.44585e+08
1.49419e+08
1.54951e+08
1.61216e+08
1.68242e+08
1.76042e+08
1.84624e+08
1.93982e+08
2.04102e+08
2.14963e+08
2.26542e+08
2.38791e+08
2.51665e+08
2.65111e+08
2.79092e+08
2.93551e+08
3.08427e+08
3.23648e+08
3.39157e+08
3.54876e+08
3.70718e+08
3.86579e+08
4.02349e+08
4.17889e+08
4.33047e+08
4.4764e+08
4.61459e+08
4.74267e+08
4.85812e+08
4.95826e+08
5.04037e+08
5.10168e+08
5.13977e+08
5.15238e+08
5.13797e+08
5.09528e+08
5.02388e+08
4.92419e+08
4.79776e+08
4.64699e+08
4.47548e+08
4.28658e+08
4.08436e+08
3.8721e+08
3.65331e+08
3.43049e+08
3.20523e+08
4.69982e+07
4.69612e+07
4.68717e+07
4.67279e+07
4.65303e+07
4.6279e+07
4.59743e+07
4.56164e+07
4.52057e+07
4.47422e+07
4.42265e+07
4.36595e+07
4.30423e+07
4.23759e+07
4.16618e+07
4.09018e+07
4.00976e+07
3.92514e+07
3.83655e+07
3.74422e+07
3.64842e+07
3.54938e+07
3.44736e+07
3.34263e+07
3.23546e+07
3.12616e+07
3.01507e+07
2.9025e+07
2.7888e+07
2.67429e+07
2.55929e+07
2.44415e+07
2.3292e+07
2.21479e+07
2.10127e+07
1.98902e+07
1.87842e+07
1.76987e+07
1.66375e+07
1.5605e+07
1.46053e+07
1.36429e+07
1.27225e+07
1.18486e+07
1.10263e+07
1.02605e+07
9.55638e+06
8.91914e+06
8.35414e+06
7.86672e+06
7.46225e+06
7.14611e+06
6.92363e+06
6.79998e+06
6.78014e+06
6.8689e+06
7.07075e+06
7.3898e+06
7.82969e+06
8.39361e+06
9.08414e+06
9.9033e+06
1.08524e+07
1.1932e+07
1.3142e+07
1.44814e+07
1.59486e+07
1.75414e+07
1.92567e+07
2.10911e+07
2.30401e+07
2.50989e+07
2.72621e+07
2.95238e+07
3.18778e+07
3.43177e+07
3.68367e+07
3.94278e+07
4.20839e+07
4.47976e+07
4.75614e+07
5.03678e+07
5.3209e+07
5.60773e+07
5.89646e+07
6.18627e+07
6.47631e+07
6.76572e+07
7.05359e+07
7.33898e+07
7.62093e+07
7.89845e+07
8.17053e+07
8.43608e+07
8.69409e+07
8.94357e+07
9.18358e+07
9.41323e+07
9.63167e+07
9.83818e+07
1.00321e+08
1.02131e+08
1.03809e+08
1.0535e+08
1.06754e+08
1.08021e+08
1.09153e+08
1.10153e+08
1.11024e+08
1.11773e+08
1.12407e+08
1.12935e+08
1.13367e+08
1.13711e+08
1.1398e+08
1.14184e+08
1.14339e+08
1.14458e+08
1.14558e+08
1.14658e+08
1.14779e+08
1.14945e+08
1.15183e+08
1.15524e+08
1.16001e+08
1.16651e+08
1.17515e+08
1.18641e+08
1.20076e+08
1.21872e+08
1.24079e+08
1.26754e+08
1.29948e+08
1.33708e+08
1.38079e+08
1.431e+08
1.48803e+08
1.55217e+08
1.62357e+08
1.70229e+08
1.78831e+08
1.88152e+08
1.98173e+08
2.08873e+08
2.20213e+08
2.32153e+08
2.44641e+08
2.57642e+08
2.71107e+08
2.8498e+08
2.99194e+08
3.13692e+08
3.28403e+08
3.43242e+08
3.58112e+08
3.72911e+08
3.87512e+08
4.01767e+08
4.1551e+08
4.28549e+08
4.40656e+08
4.51605e+08
4.61158e+08
4.69064e+08
4.7507e+08
4.78945e+08
4.80488e+08
4.79563e+08
4.76042e+08
4.69873e+08
4.61079e+08
4.4979e+08
4.36216e+08
4.20664e+08
4.03423e+08
3.84863e+08
3.65267e+08
3.44961e+08
3.24196e+08
3.03161e+08
4.28892e+07
4.28596e+07
4.27838e+07
4.26603e+07
4.24898e+07
4.22722e+07
4.20079e+07
4.16966e+07
4.13383e+07
4.09331e+07
4.04816e+07
3.99844e+07
3.94422e+07
3.88558e+07
3.82265e+07
3.75555e+07
3.68444e+07
3.60949e+07
3.53088e+07
3.4488e+07
3.36343e+07
3.27499e+07
3.18368e+07
3.08974e+07
2.9934e+07
2.89494e+07
2.79465e+07
2.69281e+07
2.58969e+07
2.48559e+07
2.38078e+07
2.27558e+07
2.17028e+07
2.0652e+07
1.96066e+07
1.857e+07
1.75459e+07
1.65377e+07
1.55493e+07
1.45846e+07
1.36477e+07
1.27428e+07
1.18745e+07
1.10473e+07
1.02659e+07
9.5353e+06
8.86061e+06
8.247e+06
7.69973e+06
7.22416e+06
6.82559e+06
6.50935e+06
6.28072e+06
6.14485e+06
6.10668e+06
6.17095e+06
6.34209e+06
6.62414e+06
7.0207e+06
7.53488e+06
8.16921e+06
8.92562e+06
9.80539e+06
1.08091e+07
1.19366e+07
1.31869e+07
1.45585e+07
1.60491e+07
1.76557e+07
1.93748e+07
2.12024e+07
2.31336e+07
2.51633e+07
2.72857e+07
2.94949e+07
3.17846e+07
3.41484e+07
3.65795e+07
3.9071e+07
4.16157e+07
4.42065e+07
4.6836e+07
4.94967e+07
5.21811e+07
5.48814e+07
5.75896e+07
6.02974e+07
6.29965e+07
6.56781e+07
6.83331e+07
7.09526e+07
7.3527e+07
7.60468e+07
7.85021e+07
8.08834e+07
8.31817e+07
8.53884e+07
8.74955e+07
8.94955e+07
9.1382e+07
9.31496e+07
9.47948e+07
9.63147e+07
9.77082e+07
9.89749e+07
1.00115e+08
1.01131e+08
1.02026e+08
1.02804e+08
1.03469e+08
1.04029e+08
1.04491e+08
1.04864e+08
1.05156e+08
1.05376e+08
1.05537e+08
1.05649e+08
1.05726e+08
1.05781e+08
1.05832e+08
1.05896e+08
1.05995e+08
1.06155e+08
1.06402e+08
1.06767e+08
1.07282e+08
1.07985e+08
1.08919e+08
1.10129e+08
1.11665e+08
1.13573e+08
1.15907e+08
1.18712e+08
1.22036e+08
1.25921e+08
1.30404e+08
1.3552e+08
1.41294e+08
1.47743e+08
1.54874e+08
1.62688e+08
1.71177e+08
1.80326e+08
1.90115e+08
2.00513e+08
2.11485e+08
2.22983e+08
2.34975e+08
2.47415e+08
2.60252e+08
2.73425e+08
2.86879e+08
3.00545e+08
3.14341e+08
3.2818e+08
3.41966e+08
3.55581e+08
3.68882e+08
3.81717e+08
3.93913e+08
4.05259e+08
4.15547e+08
4.24566e+08
4.32095e+08
4.37906e+08
4.41779e+08
4.43542e+08
4.43073e+08
4.40246e+08
4.35003e+08
4.27351e+08
4.17407e+08
4.0534e+08
3.91413e+08
3.7587e+08
3.59037e+08
3.41154e+08
3.2252e+08
3.03378e+08
2.83951e+08
3.88131e+07
3.8791e+07
3.87285e+07
3.86252e+07
3.84814e+07
3.8297e+07
3.80719e+07
3.78058e+07
3.74987e+07
3.71508e+07
3.67622e+07
3.63333e+07
3.58646e+07
3.53567e+07
3.48104e+07
3.42269e+07
3.36071e+07
3.29524e+07
3.2264e+07
3.15435e+07
3.07923e+07
3.0012e+07
2.92044e+07
2.83713e+07
2.7515e+07
2.66377e+07
2.57417e+07
2.48294e+07
2.39031e+07
2.29653e+07
2.20185e+07
2.10652e+07
2.01082e+07
1.91502e+07
1.81943e+07
1.72434e+07
1.63009e+07
1.53699e+07
1.44541e+07
1.35572e+07
1.26829e+07
1.18356e+07
1.10193e+07
1.02386e+07
9.49815e+06
8.80279e+06
8.15752e+06
7.56747e+06
7.03784e+06
6.57393e+06
6.18101e+06
5.86435e+06
5.62917e+06
5.48057e+06
5.42346e+06
5.46254e+06
5.60216e+06
5.84628e+06
6.19843e+06
6.66166e+06
7.23842e+06
7.93056e+06
8.73932e+06
9.66524e+06
1.07081e+07
1.18671e+07
1.31404e+07
1.4526e+07
1.60208e+07
1.76215e+07
1.93241e+07
2.11239e+07
2.3016e+07
2.49947e+07
2.70545e+07
2.91892e+07
3.13925e+07
3.36581e+07
3.59792e+07
3.8349e+07
4.07605e+07
4.32068e+07
4.56805e+07
4.81742e+07
5.06805e+07
5.31916e+07
5.56996e+07
5.81964e+07
6.06737e+07
6.31229e+07
6.55353e+07
6.79021e+07
7.02143e+07
7.24631e+07
7.46398e+07
7.67362e+07
7.87445e+07
8.06578e+07
8.24692e+07
8.41735e+07
8.5766e+07
8.72435e+07
8.86039e+07
8.98469e+07
9.09733e+07
9.19838e+07
9.28802e+07
9.36659e+07
9.4345e+07
9.49222e+07
9.54032e+07
9.57947e+07
9.6103e+07
9.63364e+07
9.6504e+07
9.66153e+07
9.66798e+07
9.6709e+07
9.6715e+07
9.67117e+07
9.67152e+07
9.67459e+07
9.68242e+07
9.69744e+07
9.72242e+07
9.76029e+07
9.81437e+07
9.88863e+07
9.98721e+07
1.01147e+08
1.02755e+08
1.04745e+08
1.07161e+08
1.10047e+08
1.13445e+08
1.17391e+08
1.21919e+08
1.27053e+08
1.32811e+08
1.39204e+08
1.46234e+08
1.53897e+08
1.6218e+08
1.71068e+08
1.80533e+08
1.90546e+08
2.01066e+08
2.12065e+08
2.23494e+08
2.35307e+08
2.4745e+08
2.59869e+08
2.72496e+08
2.85257e+08
2.98068e+08
3.1084e+08
3.23456e+08
3.35785e+08
3.47689e+08
3.5901e+08
3.69554e+08
3.79136e+08
3.87564e+08
3.94646e+08
4.00183e+08
4.03975e+08
4.05874e+08
4.05767e+08
4.03539e+08
3.99126e+08
3.9253e+08
3.83848e+08
3.7322e+08
3.60868e+08
3.46993e+08
3.31874e+08
3.15711e+08
2.98774e+08
2.81294e+08
2.63524e+08
3.49572e+07
3.49419e+07
3.48916e+07
3.4807e+07
3.46881e+07
3.45346e+07
3.43462e+07
3.41226e+07
3.38636e+07
3.35693e+07
3.32396e+07
3.28748e+07
3.24749e+07
3.20405e+07
3.15722e+07
3.10706e+07
3.05364e+07
2.99705e+07
2.93738e+07
2.87475e+07
2.80926e+07
2.74103e+07
2.67021e+07
2.59694e+07
2.52141e+07
2.4438e+07
2.36429e+07
2.28308e+07
2.20036e+07
2.11634e+07
2.03123e+07
1.94525e+07
1.85864e+07
1.77166e+07
1.68455e+07
1.59759e+07
1.51108e+07
1.42532e+07
1.34063e+07
1.25736e+07
1.1759e+07
1.09662e+07
1.01994e+07
9.46293e+06
8.76137e+06
8.09946e+06
7.48209e+06
6.91433e+06
6.4013e+06
5.94823e+06
5.56033e+06
5.24283e+06
5.00089e+06
4.83959e+06
4.76378e+06
4.77806e+06
4.88674e+06
5.0937e+06
5.40238e+06
5.81571e+06
6.33608e+06
6.96527e+06
7.70443e+06
8.554e+06
9.51376e+06
1.05828e+07
1.17595e+07
1.30416e+07
1.44262e+07
1.59099e+07
1.74889e+07
1.91586e+07
2.09143e+07
2.27506e+07
2.4662e+07
2.66425e+07
2.86861e+07
3.07867e+07
3.29377e+07
3.51328e+07
3.73651e+07
3.96279e+07
4.19142e+07
4.42167e+07
4.65284e+07
4.88417e+07
5.1149e+07
5.34428e+07
5.5715e+07
5.79575e+07
6.01623e+07
6.2321e+07
6.44256e+07
6.6468e+07
6.84403e+07
7.03352e+07
7.21457e+07
7.38658e+07
7.54896e+07
7.70129e+07
7.84315e+07
7.97426e+07
8.09455e+07
8.20401e+07
8.30272e+07
8.39083e+07
8.46852e+07
8.53612e+07
8.59403e+07
8.64269e+07
8.68262e+07
8.71436e+07
8.73843e+07
8.75555e+07
8.76655e+07
8.77226e+07
8.77351e+07
8.77126e+07
8.76655e+07
8.76055e+07
8.75473e+07
8.75077e+07
8.75046e+07
8.75593e+07
8.76963e+07
8.79423e+07
8.83271e+07
8.88862e+07
8.96575e+07
9.06823e+07
9.20028e+07
9.36619e+07
9.57023e+07
9.81666e+07
1.01095e+08
1.04523e+08
1.08483e+08
1.13001e+08
1.18095e+08
1.23779e+08
1.30056e+08
1.36927e+08
1.4438e+08
1.52407e+08
1.60983e+08
1.70082e+08
1.79669e+08
1.8972e+08
2.00187e+08
2.11025e+08
2.22181e+08
2.33606e+08
2.45235e+08
2.56999e+08
2.68815e+08
2.80596e+08
2.92231e+08
3.03598e+08
3.14573e+08
3.25008e+08
3.34731e+08
3.43575e+08
3.51368e+08
3.57943e+08
3.6313e+08
3.6675e+08
3.68684e+08
3.68826e+08
3.67072e+08
3.63362e+08
3.57697e+08
3.50152e+08
3.40843e+08
3.29959e+08
3.17661e+08
3.04181e+08
2.89686e+08
2.74412e+08
2.58578e+08
2.42457e+08
3.1473e+07
3.14634e+07
3.14238e+07
3.13557e+07
3.1259e+07
3.11332e+07
3.09778e+07
3.07925e+07
3.05771e+07
3.03312e+07
3.00546e+07
2.97475e+07
2.94098e+07
2.90418e+07
2.86437e+07
2.82158e+07
2.77585e+07
2.72725e+07
2.67583e+07
2.62168e+07
2.56485e+07
2.50546e+07
2.4436e+07
2.3794e+07
2.31298e+07
2.2445e+07
2.17409e+07
2.10193e+07
2.02815e+07
1.95294e+07
1.87648e+07
1.79895e+07
1.72056e+07
1.64152e+07
1.56207e+07
1.48246e+07
1.40294e+07
1.3238e+07
1.24534e+07
1.16789e+07
1.09181e+07
1.01746e+07
9.45257e+06
8.75608e+06
8.08962e+06
7.45785e+06
6.86559e+06
6.31781e+06
5.81956e+06
5.37596e+06
4.99221e+06
4.67345e+06
4.42482e+06
4.25134e+06
4.15781e+06
4.14875e+06
4.22837e+06
4.40047e+06
4.66838e+06
5.0349e+06
5.50232e+06
6.07235e+06
6.74602e+06
7.5237e+06
8.40509e+06
9.38921e+06
1.04744e+07
1.16584e+07
1.29384e+07
1.43108e+07
1.5772e+07
1.73176e+07
1.89429e+07
2.06427e+07
2.24115e+07
2.42438e+07
2.61337e+07
2.8075e+07
3.00616e+07
3.20873e+07
3.41457e+07
3.62301e+07
3.83339e+07
4.04502e+07
4.2572e+07
4.46922e+07
4.68036e+07
4.8899e+07
5.09708e+07
5.30114e+07
5.50133e+07
5.6969e+07
5.88709e+07
6.07119e+07
6.24849e+07
6.41833e+07
6.5801e+07
6.73328e+07
6.8774e+07
7.0121e+07
7.13706e+07
7.25205e+07
7.35704e+07
7.45205e+07
7.53722e+07
7.61268e+07
7.67863e+07
7.7354e+07
7.78334e+07
7.8229e+07
7.85451e+07
7.87861e+07
7.89569e+07
7.90637e+07
7.91133e+07
7.9113e+07
7.90702e+07
7.89927e+07
7.889e+07
7.8772e+07
7.86516e+07
7.85429e+07
7.84614e+07
7.84253e+07
7.84563e+07
7.85787e+07
7.88193e+07
7.92095e+07
7.97833e+07
8.05774e+07
8.16306e+07
8.29835e+07
8.46757e+07
8.67479e+07
8.92387e+07
9.21837e+07
9.56137e+07
9.95549e+07
1.04029e+08
1.09051e+08
1.14628e+08
1.20762e+08
1.27445e+08
1.34673e+08
1.42424e+08
1.50676e+08
1.59401e+08
1.68571e+08
1.78147e+08
1.8808e+08
1.98318e+08
2.08815e+08
2.19512e+08
2.30334e+08
2.41208e+08
2.52041e+08
2.62733e+08
2.73167e+08
2.8323e+08
2.92785e+08
3.01684e+08
3.09771e+08
3.16895e+08
3.2291e+08
3.27678e+08
3.31037e+08
3.32896e+08
3.33164e+08
3.3175e+08
3.28604e+08
3.23721e+08
3.1716e+08
3.09021e+08
2.99459e+08
2.88606e+08
2.76646e+08
2.63722e+08
2.50031e+08
2.3578e+08
2.21254e+08
2.84707e+07
2.84653e+07
2.84344e+07
2.83802e+07
2.83024e+07
2.82004e+07
2.80736e+07
2.79216e+07
2.77439e+07
2.75401e+07
2.73099e+07
2.7053e+07
2.67694e+07
2.64589e+07
2.61217e+07
2.57576e+07
2.5367e+07
2.49502e+07
2.45074e+07
2.4039e+07
2.35457e+07
2.3028e+07
2.24867e+07
2.19227e+07
2.13371e+07
2.07309e+07
2.01053e+07
1.94614e+07
1.88006e+07
1.81243e+07
1.74341e+07
1.67314e+07
1.60181e+07
1.52961e+07
1.45673e+07
1.38342e+07
1.3099e+07
1.23644e+07
1.16333e+07
1.09088e+07
1.01942e+07
9.49309e+06
8.80937e+06
8.14713e+06
7.51071e+06
6.90469e+06
6.3338e+06
5.80294e+06
5.31706e+06
4.88124e+06
4.50062e+06
4.18029e+06
3.92533e+06
3.74069e+06
3.63108e+06
3.60095e+06
3.65442e+06
3.79519e+06
4.02648e+06
4.35096e+06
4.77078e+06
5.28752e+06
5.9021e+06
6.61478e+06
7.42513e+06
8.33209e+06
9.33395e+06
1.04284e+07
1.16125e+07
1.28829e+07
1.42357e+07
1.56668e+07
1.71713e+07
1.87444e+07
2.03808e+07
2.20747e+07
2.38206e+07
2.56126e+07
2.74446e+07
2.93105e+07
3.12045e+07
3.312e+07
3.50506e+07
3.69898e+07
3.89308e+07
4.0867e+07
4.27914e+07
4.46971e+07
4.65774e+07
4.84249e+07
5.02328e+07
5.19942e+07
5.37023e+07
5.53506e+07
5.69326e+07
5.84429e+07
5.98761e+07
6.12278e+07
6.24945e+07
6.36729e+07
6.47606e+07
6.57562e+07
6.66596e+07
6.7471e+07
6.81921e+07
6.88244e+07
6.93699e+07
6.98317e+07
7.02132e+07
7.05181e+07