/*--------------------------------*- C++ -*----------------------------------*\
| =========                 |                                                 |
| \\      /  F ield         | OpenFOAM: The Open Source CFD Toolbox           |
|  \\    /   O peration     | Version:  dev                                   |
|   \\  /    A nd           | Web:      http://www.openfoam.org               |
|    \\/     M anipulation  |                                                 |
\*---------------------------------------------------------------------------*/
FoamFile
{
    version     2.0;
    format      ascii;
    class       volScalarField;
    object      rho;
    location    "9.133";
}
// * * * * * * * * * * * * * * * * * * * * * * * * * * * * * * * * * * * * * //

dimensions      [1 -3 0 0 0 0 0];

internalField   nonuniform List<scalar> 
12225
(
1.09756
1.10357
1.10478
1.10585
1.10811
1.11013
1.11258
1.11505
1.1174
1.11998
1.12183
1.12461
1.12568
1.12848
1.12975
1.13255
1.12874
1.11352
1.10178
1.11074
1.11109
1.1137
1.11469
1.11845
1.11942
1.12312
1.12365
1.12729
1.1269
1.13062
1.1298
1.13291
1.13294
1.13924
1.12896
1.11972
1.10154
1.11139
1.11135
1.11503
1.11605
1.12045
1.12153
1.12571
1.12641
1.13018
1.13056
1.13342
1.13341
1.13593
1.13342
1.13617
1.13294
1.13129
1.10052
1.11075
1.11237
1.11454
1.1173
1.1196
1.12292
1.12508
1.12763
1.12965
1.132
1.13347
1.13537
1.13616
1.1383
1.13531
1.13737
1.14068
1.1012
1.10803
1.11226
1.11261
1.11764
1.11806
1.12327
1.12416
1.12798
1.12862
1.13226
1.13266
1.13595
1.13596
1.1384
1.13689
1.1417
1.14231
1.10203
1.10714
1.11167
1.11179
1.11795
1.11752
1.12327
1.12392
1.12755
1.12867
1.13211
1.13264
1.13579
1.13633
1.13866
1.13859
1.14124
1.1418
1.10166
1.10606
1.11079
1.11194
1.11693
1.11693
1.12234
1.123
1.127
1.12849
1.13248
1.1318
1.13652
1.13593
1.13924
1.1381
1.14123
1.14144
1.10133
1.10473
1.11084
1.1107
1.11567
1.11616
1.12173
1.1222
1.1259
1.12786
1.13197
1.13124
1.13566
1.13529
1.13852
1.13905
1.14044
1.14163
1.09949
1.10395
1.11016
1.10979
1.11382
1.11567
1.12139
1.12162
1.12481
1.12713
1.13054
1.13115
1.1335
1.13466
1.13662
1.1386
1.13955
1.14063
1.09842
1.10337
1.10883
1.10822
1.11228
1.11422
1.11969
1.12057
1.12346
1.12559
1.129
1.13036
1.13192
1.13378
1.13597
1.13698
1.13853
1.13978
1.09657
1.10199
1.10659
1.10637
1.11084
1.11263
1.11736
1.11898
1.12225
1.12381
1.12708
1.12957
1.13145
1.13244
1.13508
1.13657
1.1377
1.13906
1.09457
1.0997
1.10408
1.10436
1.10888
1.11093
1.11505
1.11716
1.12036
1.12183
1.12519
1.12774
1.13031
1.13124
1.13306
1.13527
1.13747
1.13849
1.09082
1.09724
1.10089
1.10177
1.1056
1.10794
1.11145
1.114
1.1169
1.11915
1.12213
1.12476
1.12741
1.12872
1.13034
1.13229
1.13479
1.1359
1.08641
1.09406
1.09628
1.09807
1.10119
1.10394
1.1069
1.10983
1.11254
1.1154
1.11807
1.12072
1.12321
1.12501
1.12694
1.12849
1.1306
1.13181
1.08099
1.08936
1.09074
1.09292
1.09567
1.09862
1.10139
1.1046
1.10741
1.11038
1.11302
1.1158
1.11809
1.1202
1.12211
1.12374
1.1259
1.12709
1.07425
1.08276
1.0839
1.08634
1.08924
1.0924
1.09526
1.09859
1.10127
1.1042
1.10676
1.10964
1.11167
1.11425
1.11633
1.11824
1.12037
1.1218
1.06628
1.07524
1.07652
1.07874
1.08158
1.08466
1.08748
1.0909
1.09362
1.09685
1.09946
1.10261
1.10475
1.10777
1.10971
1.11208
1.11406
1.11582
1.05723
1.06722
1.06881
1.07084
1.07342
1.07643
1.07939
1.08292
1.08593
1.08943
1.09234
1.09575
1.09811
1.10131
1.10336
1.10617
1.10824
1.11052
1.0502
1.06003
1.06139
1.06345
1.06613
1.06951
1.0727
1.07611
1.07946
1.08287
1.08607
1.08944
1.0924
1.0955
1.0983
1.10118
1.1037
1.10646
1.04321
1.05327
1.05499
1.05736
1.0604
1.06365
1.06696
1.07028
1.07392
1.07735
1.081
1.08439
1.08797
1.09109
1.09451
1.09744
1.10065
1.10352
1.03802
1.0486
1.05034
1.05281
1.05597
1.05893
1.06243
1.06603
1.06976
1.07345
1.07721
1.08073
1.0844
1.08787
1.09131
1.09471
1.09804
1.1013
1.03403
1.04488
1.04654
1.04915
1.05216
1.05565
1.05919
1.06297
1.06673
1.07056
1.07433
1.07808
1.08184
1.08554
1.08919
1.09275
1.09633
1.09986
1.03098
1.04188
1.04397
1.04652
1.04977
1.05315
1.05663
1.06023
1.06414
1.06794
1.07197
1.07595
1.0799
1.08388
1.0877
1.09149
1.09525
1.09886
1.02922
1.04002
1.04182
1.04452
1.0478
1.05117
1.05479
1.0586
1.06238
1.0664
1.07041
1.07445
1.07856
1.08258
1.08657
1.09052
1.09436
1.09818
1.02656
1.03816
1.04032
1.04298
1.04612
1.04954
1.05317
1.05692
1.06089
1.06491
1.06898
1.07313
1.07723
1.08135
1.08542
1.08945
1.09339
1.09732
1.02588
1.03708
1.03914
1.04195
1.04527
1.04872
1.05233
1.05607
1.05995
1.06395
1.06803
1.07216
1.07634
1.0805
1.08468
1.08876
1.09287
1.09687
1.02528
1.03661
1.03856
1.04115
1.04434
1.04778
1.05149
1.05535
1.05939
1.06346
1.06763
1.07177
1.07602
1.08021
1.08447
1.08869
1.0929
1.09711
1.02466
1.03614
1.03801
1.04063
1.04382
1.04723
1.05088
1.05469
1.05875
1.06288
1.06717
1.07146
1.07589
1.08024
1.08474
1.08907
1.09352
1.09783
1.02406
1.03582
1.03764
1.04004
1.04301
1.04628
1.04983
1.05361
1.05758
1.06167
1.06586
1.07009
1.07434
1.07854
1.08271
1.08669
1.09075
1.09436
1.0206
1.03059
1.0319
1.03391
1.03656
1.03959
1.04288
1.04642
1.05015
1.05404
1.05802
1.06209
1.06618
1.07027
1.0743
1.0783
1.08216
1.086
1.16689
1.19819
1.21505
1.22251
1.22477
1.22471
1.2237
1.22253
1.22093
1.21888
1.21644
1.21379
1.21042
1.20682
1.20389
1.20056
1.19691
1.19296
1.18772
1.18255
1.17836
1.1728
1.16431
1.15425
1.14385
1.1363
1.13343
1.13221
1.13079
1.12963
1.1285
1.1274
1.1263
1.12516
1.12398
1.12276
1.12153
1.12029
1.11909
1.11796
1.11691
1.11599
1.11523
1.11459
1.11408
1.1137
1.11342
1.11326
1.11316
1.11315
1.11323
1.11333
1.11336
1.1133
1.11306
1.11271
1.11239
1.1122
1.11221
1.11229
1.11226
1.112
1.11146
1.11061
1.10942
1.10791
1.10619
1.10441
1.10277
1.10117
1.09939
1.09716
1.09441
1.0914
1.08834
1.08546
1.08268
1.08006
1.0775
1.07465
1.07085
1.06705
1.06564
1.06615
1.06615
1.06484
1.06332
1.06261
1.06242
1.06028
1.05414
1.04959
1.05092
1.05836
1.05817
1.04883
1.03889
1.02289
1.00564
1.01034
1.02969
1.02842
1.01933
1.02295
1.0325
1.037
1.03996
1.04779
1.05599
1.06121
1.0605
1.05469
1.04913
1.05164
1.06374
1.07761
1.05371
1.0689
1.07
1.07061
1.07169
1.07113
1.06916
1.0664
1.06344
1.06031
1.0582
1.05629
1.05376
1.05114
1.0491
1.04746
1.04598
1.04619
1.04647
1.0477
1.05041
1.05468
1.05999
1.06616
1.07281
1.07894
1.08438
1.0896
1.09419
1.09978
1.10438
1.10723
1.11206
1.11634
1.12454
1.13534
1.13781
1.13377
1.11501
1.08506
1.06012
1.04943
1.03689
1.01956
1.01175
1.00291
0.993982
0.993345
1.01131
1.01925
1.00181
1.01208
1.01677
1.02059
1.02513
1.02802
1.03444
1.03756
1.04277
1.04649
1.05062
1.05488
1.05956
1.06207
1.16717
1.2051
1.22495
1.2306
1.23081
1.23028
1.23074
1.2312
1.22928
1.22537
1.22202
1.21954
1.21688
1.21353
1.21198
1.212
1.20791
1.20197
1.19482
1.18085
1.16476
1.1528
1.14401
1.14029
1.13823
1.13704
1.13619
1.13566
1.13501
1.13406
1.13342
1.13202
1.13056
1.12909
1.12734
1.12562
1.12381
1.12198
1.1204
1.119
1.11785
1.11713
1.11653
1.1161
1.11592
1.11594
1.11616
1.1165
1.11691
1.11765
1.11864
1.11926
1.1194
1.11894
1.11765
1.11624
1.11552
1.11612
1.11797
1.12004
1.12171
1.12264
1.12256
1.12152
1.11945
1.11663
1.11328
1.11002
1.10844
1.10836
1.1094
1.11033
1.10985
1.10757
1.10351
1.09962
1.09695
1.09505
1.093
1.09349
1.09725
1.09608
1.0933
1.09673
1.09925
1.09898
1.09573
1.09233
1.09643
1.10501
1.10049
1.0828
1.08321
1.11299
1.12129
1.09478
1.06828
1.04767
1.03584
1.03663
1.03479
1.02783
1.03131
1.03482
1.03336
1.03795
1.04744
1.06203
1.07429
1.07595
1.06652
1.04975
1.04066
1.04618
1.06031
1.06968
1.01273
1.05144
1.05461
1.05598
1.06375
1.07799
1.0861
1.08763
1.088
1.08699
1.08582
1.08444
1.08434
1.08577
1.0882
1.0903
1.0905
1.09302
1.09508
1.09628
1.09844
1.10448
1.11305
1.11897
1.12555
1.13937
1.15555
1.1677
1.17457
1.18601
1.19913
1.20553
1.20979
1.2154
1.23246
1.2677
1.29854
1.29178
1.24073
1.16518
1.1121
1.08447
1.05285
1.02596
1.00706
0.984795
0.96469
0.978072
1.03431
1.02853
0.992393
1.02562
1.03784
1.04439
1.05663
1.07033
1.09052
1.10144
1.11395
1.119
1.12218
1.12173
1.1256
1.12344
1.16107
1.19081
1.20883
1.21654
1.21852
1.21957
1.22326
1.22077
1.21061
1.20047
1.19649
1.1934
1.1891
1.1875
1.1865
1.18133
1.1728
1.16458
1.15376
1.14474
1.142
1.14037
1.13963
1.14093
1.1409
1.1409
1.14159
1.14141
1.14125
1.14109
1.14054
1.13979
1.13856
1.13626
1.1345
1.13231
1.12985
1.12719
1.12442
1.12154
1.11928
1.11761
1.11661
1.11562
1.11468
1.1144
1.11417
1.1136
1.11299
1.11294
1.11314
1.11227
1.11078
1.10929
1.10715
1.10641
1.10702
1.10849
1.11095
1.11262
1.11276
1.11199
1.11024
1.10769
1.10524
1.10278
1.09944
1.09547
1.09444
1.09615
1.10001
1.10336
1.1049
1.10525
1.10157
1.09673
1.09528
1.09436
1.09395
1.09053
1.08413
1.09419
1.10978
1.10144
1.07786
1.06799
1.06845
1.06622
1.07327
1.08753
1.09137
1.09479
1.11137
1.11388
1.09475
1.0682
1.05315
1.05198
1.04965
1.04212
1.03131
1.02645
1.03249
1.02732
1.02264
1.02535
1.02717
1.03607
1.04454
1.04661
1.0437
1.03269
1.0371
1.0464
1.04037
1.01958
0.985868
1.00776
1.01223
1.00887
1.01164
1.04098
1.06187
1.06662
1.07339
1.08152
1.08105
1.07596
1.07476
1.07814
1.08163
1.08446
1.0872
1.08925
1.09203
1.09507
1.09955
1.10757
1.1144
1.12276
1.13708
1.15359
1.16331
1.17836
1.19883
1.21637
1.23518
1.25128
1.2544
1.25539
1.27649
1.31884
1.35466
1.31242
1.22861
1.16209
1.11474
1.08338
1.06299
1.04492
1.00909
0.960726
0.930022
0.979585
1.03618
0.977668
0.975778
1.01493
1.02418
1.02199
1.02585
1.04042
1.06589
1.09229
1.11987
1.1366
1.1596
1.16791
1.17471
1.17233
1.15667
1.18103
1.20067
1.20976
1.21337
1.21906
1.22231
1.20739
1.1889
1.18397
1.18715
1.1814
1.17309
1.16902
1.16777
1.15916
1.1495
1.14799
1.1485
1.14914
1.1502
1.15269
1.15536
1.15411
1.15494
1.15469
1.15511
1.15533
1.15563
1.15574
1.15532
1.15527
1.15485
1.15429
1.15349
1.15208
1.15076
1.14903
1.14802
1.14622
1.14377
1.14185
1.14039
1.13937
1.13736
1.13571
1.13518
1.13335
1.13132
1.1296
1.12788
1.12587
1.12382
1.12231
1.12067
1.12057
1.12135
1.12065
1.11869
1.11669
1.11291
1.10918
1.1064
1.10354
1.10269
1.10265
1.10153
1.09708
1.09137
1.08747
1.08688
1.08951
1.09324
1.09834
1.09729
1.08463
1.08169
1.08787
1.08637
1.08578
1.07896
1.07549
1.09368
1.1002
1.08616
1.08126
1.07387
1.06009
1.06262
1.07917
1.09183
1.11109
1.12831
1.11466
1.08316
1.06778
1.07353
1.07627
1.06444
1.05019
1.03245
1.0319
1.03695
1.02834
1.02427
1.01967
1.01545
1.02187
1.03198
1.0409
1.04705
1.0391
1.04098
1.04177
1.03361
1.01576
0.983276
0.976076
0.985706
0.984293
0.976312
1.00834
1.03888
1.03734
1.0365
1.05951
1.07337
1.06424
1.0593
1.06749
1.07657
1.0798
1.08205
1.08269
1.08196
1.08246
1.08387
1.09312
1.1056
1.11547
1.12573
1.14484
1.16387
1.17948
1.19866
1.21418
1.23199
1.25789
1.26961
1.26775
1.29242
1.33684
1.35361
1.28394
1.19302
1.14176
1.103
1.06977
1.05169
1.04902
1.0311
0.974111
0.935806
0.986899
1.01813
0.96891
0.971396
1.02786
1.03538
1.02758
1.02573
1.03172
1.03192
1.06073
1.10662
1.1276
1.151
1.17333
1.1914
1.20232
1.1538
1.17462
1.19455
1.2076
1.2163
1.22412
1.21412
1.19138
1.18704
1.18311
1.18046
1.17826
1.16254
1.15465
1.15683
1.15565
1.1534
1.15795
1.15685
1.15862
1.16184
1.15744
1.15697
1.15486
1.15581
1.1576
1.15723
1.15961
1.16039
1.16062
1.16102
1.16033
1.15845
1.1579
1.15642
1.15405
1.15257
1.15064
1.14897
1.14788
1.1463
1.14475
1.1439
1.14268
1.14129
1.13987
1.13926
1.13871
1.13808
1.138
1.13814
1.13808
1.13795
1.13756
1.13728
1.13542
1.13345
1.13227
1.12933
1.1278
1.12517
1.12288
1.12183
1.12054
1.1182
1.11529
1.11388
1.11159
1.10416
1.09469
1.08585
1.08022
1.07748
1.07695
1.07938
1.07356
1.07317
1.08411
1.07964
1.07257
1.07327
1.06667
1.07078
1.06769
1.06103
1.07262
1.07239
1.06109
1.06339
1.09038
1.11226
1.12708
1.12074
1.0928
1.07337
1.0732
1.07863
1.0665
1.05187
1.03877
1.03038
1.03744
1.04163
1.03134
1.0282
1.01967
1.0174
1.02318
1.03417
1.04596
1.05257
1.04206
1.03533
1.02626
1.01815
1.00741
0.980157
0.957153
0.956991
0.966974
0.963087
0.988444
1.02087
1.01261
1.0038
1.0302
1.0502
1.03563
1.02511
1.03642
1.05238
1.06215
1.0742
1.07941
1.07173
1.06348
1.05888
1.06292
1.08078
1.10085
1.11362
1.12752
1.14681
1.16663
1.1912
1.20764
1.21741
1.23978
1.25942
1.261
1.29249
1.33875
1.3405
1.26433
1.18255
1.15403
1.14373
1.11837
1.10701
1.10009
1.04499
0.963307
0.947218
0.969874
0.966252
0.981112
0.964108
1.02531
1.0333
1.01715
1.01712
1.03895
0.998516
1.02787
1.08937
1.12473
1.13659
1.14397
1.16258
1.19798
1.15329
1.17587
1.1989
1.21393
1.22172
1.21697
1.19979
1.18336
1.17741
1.1778
1.17331
1.16932
1.16256
1.15258
1.15032
1.15673
1.15868
1.16391
1.1678
1.16435
1.16358
1.16024
1.16172
1.16661
1.16833
1.17306
1.17563
1.17685
1.1762
1.17573
1.17428
1.1722
1.16944
1.16713
1.16525
1.16276
1.16128
1.15943
1.15662
1.15424
1.15159
1.1467
1.14175
1.13636
1.13122
1.12758
1.1251
1.12317
1.1222
1.12207
1.12214
1.12292
1.12405
1.12516
1.12702
1.12628
1.12418
1.12301
1.12093
1.12077
1.11931
1.11779
1.11711
1.11935
1.11965
1.11485
1.11185
1.11482
1.11226
1.10286
1.09584
1.08977
1.08327
1.07481
1.06862
1.06435
1.06521
1.07318
1.06802
1.05738
1.06471
1.07445
1.08606
1.08011
1.07772
1.09086
1.08095
1.05677
1.05938
1.09832
1.12185
1.12463
1.10531
1.07837
1.07487
1.08149
1.07622
1.06042
1.05674
1.05127
1.0487
1.05449
1.04996
1.03815
1.03683
1.02909
1.03173
1.03076
1.02686
1.03016
1.03174
1.02675
1.02762
1.02597
1.01863
0.991932
0.986454
0.963938
0.949279
0.961671
0.973539
0.983416
1.00716
1.00169
1.00225
1.02746
1.04751
1.0297
1.01656
1.0292
1.04158
1.0407
1.05769
1.08072
1.07885
1.06194
1.04659
1.03707
1.04909
1.0744
1.09854
1.11725
1.13167
1.14546
1.17305
1.19676
1.20498
1.2177
1.23505
1.23973
1.28
1.33088
1.32703
1.25677
1.19723
1.18986
1.19608
1.1719
1.1645
1.14258
1.09483
1.02829
0.996955
0.981599
0.950983
0.963428
0.973252
1.00885
1.02761
0.997692
0.980406
1.04217
0.966471
0.978096
1.04785
1.12152
1.13799
1.10083
1.09056
1.14278
1.15323
1.17735
1.20411
1.21795
1.22011
1.21186
1.18673
1.17104
1.17262
1.1547
1.14981
1.15905
1.16046
1.1655
1.17306
1.17625
1.17793
1.17222
1.17069
1.16749
1.16656
1.16993
1.17278
1.18035
1.18246
1.18145
1.17985
1.17536
1.17157
1.16811
1.16428
1.16224
1.15977
1.15761
1.15606
1.1536
1.15252
1.15173
1.15065
1.15063
1.15133
1.15135
1.15126
1.14944
1.14534
1.13979
1.13352
1.12788
1.12368
1.12064
1.11848
1.1176
1.11726
1.11702
1.1179
1.11743
1.1188
1.11738
1.1173
1.11623
1.11491
1.11317
1.10836
1.10434
1.10652
1.10585
1.0994
1.10069
1.10432
1.10036
1.10131
1.10508
1.10144
1.08893
1.07207
1.06314
1.06236
1.06394
1.06286
1.06005
1.06556
1.07581
1.08278
1.05781
1.0465
1.06376
1.0603
1.04543
1.06383
1.10967
1.12186
1.11241
1.09357
1.07389
1.07794
1.08211
1.07504
1.07394
1.07511
1.06058
1.05228
1.05193
1.04441
1.04074
1.04383
1.03505
1.04153
1.04137
1.03141
1.02898
1.02855
1.03172
1.03656
1.04316
1.03655
1.01784
0.985915
0.959166
0.958918
0.967666
1.00383
1.00236
0.993687
0.997518
1.02251
1.03639
1.04615
1.03095
1.02658
1.0412
1.04645
1.02927
1.03172
1.06038
1.06901
1.05741
1.0432
1.02568
1.02739
1.04653
1.07122
1.09863
1.11888
1.12765
1.14974
1.17751
1.19186
1.19543
1.20108
1.2088
1.26439
1.32237
1.31476
1.25535
1.2206
1.22207
1.21261
1.18369
1.17643
1.16051
1.12684
1.04417
1.00765
1.01763
0.984124
0.954993
0.978743
0.981633
1.00567
0.988943
0.933341
1.03377
0.970843
0.941714
0.97297
1.09134
1.14168
1.07338
1.03571
1.07858
1.15213
1.17465
1.20179
1.21271
1.20929
1.20066
1.1839
1.16141
1.16758
1.17186
1.15735
1.15743
1.16045
1.15844
1.16527
1.16905
1.17463
1.17592
1.17444
1.17496
1.17451
1.17978
1.18383
1.18291
1.17981
1.17396
1.16952
1.16457
1.16181
1.16007
1.15873
1.15988
1.15992
1.15966
1.15923
1.15752
1.15551
1.15167
1.14716
1.14378
1.14057
1.13862
1.13878
1.14018
1.14184
1.14206
1.14024
1.13627
1.13154
1.1269
1.12272
1.12079
1.12024
1.11888
1.11989
1.11982
1.12314
1.12282
1.12417
1.12456
1.12091
1.11837
1.11786
1.10989
1.10303
1.10636
1.10472
1.0985
1.09323
1.08455
1.09196
1.11036
1.10878
1.08664
1.06379
1.05754
1.06067
1.06313
1.06501
1.0664
1.06532
1.06715
1.06669
1.04471
1.04639
1.06687
1.05604
1.04933
1.07733
1.11749
1.11558
1.09647
1.08631
1.07591
1.08487
1.08768
1.07879
1.08004
1.07057
1.04838
1.03982
1.03772
1.03157
1.03099
1.02541
1.01612
1.02406
1.03158
1.03303
1.03241
1.02784
1.02771
1.02911
1.04183
1.04374
1.03449
0.994445
0.948529
0.960931
0.970352
1.01289
1.02788
1.00413
1.02698
1.07648
1.06915
1.04702
1.03767
1.04703
1.05711
1.05339
1.03847
1.03012
1.04455
1.04967
1.04607
1.04143
1.02388
1.01848
1.03135
1.04855
1.07741
1.1068
1.11717
1.13173
1.15843
1.18037
1.17824
1.16846
1.17212
1.24013
1.30828
1.30173
1.25557
1.23882
1.22561
1.18052
1.15479
1.13283
1.10864
1.07123
0.997929
1.02617
1.01779
1.00192
0.97033
0.981198
0.97051
0.998013
1.00274
0.917638
1.00567
0.980756
0.962784
0.925609
1.02919
1.13022
1.09646
1.0505
1.06355
1.15131
1.17296
1.20107
1.20655
1.19473
1.19126
1.18756
1.17357
1.15776
1.16055
1.16527
1.16477
1.16738
1.17006
1.17912
1.18448
1.1808
1.17708
1.17314
1.17314
1.17625
1.17881
1.18096
1.17961
1.17578
1.17175
1.17066
1.16845
1.16636
1.16488
1.16401
1.16555
1.1662
1.16742
1.16943
1.16998
1.17028
1.16971
1.16715
1.16339
1.15751
1.1502
1.14198
1.13535
1.1322
1.13158
1.13188
1.1311
1.12838
1.12478
1.12117
1.11885
1.11716
1.11519
1.11345
1.1151
1.11445
1.11848
1.11736
1.11755
1.11683
1.10961
1.10669
1.10795
1.10107
1.098
1.10176
1.10364
1.10223
1.08511
1.08044
1.09758
1.09359
1.06947
1.05962
1.06535
1.06798
1.06558
1.06599
1.06897
1.07096
1.06804
1.05925
1.05906
1.07886
1.07916
1.0563
1.06274
1.09606
1.12402
1.10868
1.08432
1.08037
1.07697
1.07581
1.06137
1.04922
1.04616
1.03496
1.02337
1.01986
1.01307
1.00372
1.00684
0.998108
0.997261
1.00555
1.02091
1.03421
1.04211
1.0408
1.03072
1.02557
1.03456
1.05584
1.03456
1.00517
0.965694
0.970623
0.992079
1.01195
1.03964
1.03512
1.05262
1.08794
1.08237
1.04238
1.04406
1.05695
1.06459
1.05981
1.05658
1.05074
1.04954
1.04366
1.04397
1.05064
1.03718
1.02479
1.02765
1.03128
1.05399
1.09186
1.11088
1.12037
1.14118
1.1704
1.16714
1.14109
1.13638
1.21363
1.29197
1.28994
1.25398
1.2429
1.19963
1.1228
1.11148
1.07702
1.0679
1.03582
0.981167
1.05504
1.06861
1.03486
0.993599
0.982129
0.956297
0.992808
0.997804
0.941847
0.974745
0.949759
0.981068
0.933779
0.965304
1.09473
1.14052
1.09033
1.08151
1.14952
1.16714
1.19585
1.20848
1.19439
1.18377
1.18069
1.17217
1.16438
1.1562
1.15623
1.16146
1.16862
1.1768
1.185
1.19272
1.19343
1.18868
1.18228
1.18057
1.18414
1.18876
1.1915
1.19107
1.19019
1.18835
1.18586
1.18228
1.17887
1.17445
1.16935
1.16674
1.1645
1.16226
1.16163
1.16216
1.1631
1.16415
1.16518
1.16593
1.16602
1.16538
1.16225
1.15589
1.14682
1.13693
1.12873
1.12439
1.12354
1.12376
1.12369
1.12345
1.12058
1.12034
1.11582
1.11747
1.11455
1.11393
1.116
1.11175
1.11147
1.11175
1.10296
1.09959
1.09905
1.09273
1.08913
1.08915
1.10182
1.09669
1.08038
1.08719
1.08816
1.0678
1.06132
1.06913
1.06407
1.04677
1.04159
1.04655
1.06179
1.07078
1.05636
1.05149
1.06966
1.0649
1.0582
1.08011
1.11116
1.12922
1.10542
1.08076
1.08123
1.0771
1.06298
1.04087
1.02665
1.02587
1.02088
1.01534
1.00976
1.00076
0.993139
0.997458
0.992643
0.999564
1.00071
1.00864
1.01021
1.01557
1.03837
1.03412
1.02669
1.02946
1.0522
1.0502
1.00168
0.966173
0.97481
1.01595
1.04104
1.06451
1.07301
1.07371
1.07122
1.07639
1.069
1.08313
1.06469
1.06419
1.07358
1.07382
1.07141
1.06714
1.05275
1.04986
1.06341
1.05212
1.03744
1.03844
1.0301
1.03695
1.07576
1.10472
1.11387
1.12965
1.1644
1.16209
1.12179
1.1065
1.18753
1.27632
1.27841
1.25083
1.23154
1.16234
1.07935
1.08155
1.05132
1.05276
1.02381
1.0538
1.07084
1.08
1.0681
1.02755
1.0026
0.962008
0.997345
0.966301
0.947159
0.968479
0.941938
0.967154
0.969095
0.944046
1.05379
1.16136
1.09877
1.09346
1.14766
1.1605
1.18626
1.20643
1.19785
1.17955
1.17716
1.17124
1.16281
1.15896
1.15906
1.16337
1.16819
1.17297
1.17857
1.18199
1.18216
1.18211
1.17966
1.18071
1.18636
1.19116
1.19352
1.19054
1.18521
1.18256
1.18201
1.17956
1.17589
1.17288
1.17039
1.16961
1.16987
1.16989
1.16954
1.16912
1.16836
1.1672
1.16601
1.16442
1.16263
1.16219
1.16345
1.16445
1.16323
1.15909
1.15241
1.14406
1.13682
1.13167
1.12707
1.12423
1.11874
1.11628
1.11557
1.112
1.11599
1.11259
1.11382
1.11558
1.10872
1.10992
1.10764
1.1019
1.10202
1.09808
1.09678
1.08802
1.08947
1.09034
1.07705
1.0854
1.09624
1.07605
1.05531
1.05543
1.05424
1.04526
1.04334
1.05123
1.07066
1.09107
1.08177
1.05616
1.04816
1.04276
1.06004
1.09571
1.12262
1.13435
1.10891
1.08345
1.08202
1.07264
1.05039
1.03105
1.02518
1.02509
1.02489
1.01959
1.01433
1.01245
1.02071
1.02958
1.02526
1.02636
1.0158
1.01192
1.00064
0.992343
1.02198
1.03935
1.02836
1.01856
1.04156
1.05584
1.02114
0.965009
0.976177
1.0147
1.05452
1.08045
1.08913
1.10116
1.08579
1.08743
1.1164
1.11491
1.06068
1.05979
1.08599
1.06705
1.05783
1.07166
1.05991
1.04936
1.06953
1.06217
1.04352
1.0462
1.03427
1.02602
1.06146
1.09595
1.10467
1.11746
1.15812
1.16089
1.11038
1.08212
1.16336
1.26105
1.26877
1.24545
1.21024
1.12352
1.06082
1.07053
1.05732
1.06812
1.06529
1.08474
1.11954
1.12504
1.10667
1.05374
1.02115
0.969085
1.00181
0.959169
0.940679
0.96325
0.95756
0.957051
0.995159
0.967575
1.01957
1.14597
1.07609
1.09431
1.14591
1.15383
1.17308
1.20048
1.20578
1.18776
1.17321
1.17321
1.16914
1.16148
1.15472
1.15208
1.15929
1.17031
1.18417
1.19503
1.19226
1.18519
1.18034
1.17871
1.18328
1.18953
1.19321
1.19173
1.18496
1.17854
1.17778
1.17986
1.18013
1.17904
1.17724
1.17458
1.17054
1.16554
1.16034
1.15654
1.15496
1.15449
1.15474
1.15571
1.15623
1.15555
1.15529
1.15881
1.16477
1.16736
1.16448
1.15807
1.15085
1.14409
1.13869
1.13274
1.12977
1.12055
1.11999
1.11568
1.11398
1.11391
1.10875
1.11197
1.10664
1.10307
1.1018
1.09574
1.09668
1.08971
1.09103
1.09319
1.08804
1.09168
1.07637
1.07861
1.09396
1.07433
1.04823
1.05345
1.05814
1.04726
1.04052
1.05201
1.07442
1.09951
1.10348
1.08016
1.05081
1.03319
1.05835
1.10339
1.1287
1.13485
1.11169
1.0922
1.08629
1.06574
1.04092
1.02864
1.02545
1.02334
1.02103
1.00965
1.00862
1.01907
1.03278
1.03232
1.02682
1.03464
1.03667
1.03873
1.02699
1.00649
1.00191
1.03946
1.04018
1.0304
1.04884
1.05936
1.03257
0.978389
0.982544
1.03183
1.0713
1.10204
1.10262
1.11336
1.10766
1.10249
1.1224
1.10337
1.05759
1.07187
1.10341
1.05671
1.02921
1.05748
1.05329
1.03126
1.0552
1.05846
1.04164
1.0522
1.04257
1.02081
1.05047
1.08701
1.09363
1.10336
1.15033
1.15981
1.10366
1.0651
1.14081
1.2449
1.26173
1.23781
1.1889
1.08884
1.05908
1.06634
1.07435
1.09566
1.11295
1.13676
1.1725
1.15362
1.13613
1.08183
1.05563
0.992528
0.997301
0.965689
0.956349
0.958789
0.955569
0.964894
1.01534
1.00903
1.00399
1.12274
1.06079
1.09728
1.14476
1.14926
1.16071
1.18312
1.20517
1.20625
1.18644
1.16813
1.16082
1.16261
1.16566
1.1629
1.16279
1.16592
1.16699
1.17576
1.18805
1.19434
1.19531
1.19177
1.18689
1.18317
1.18311
1.18481
1.18357
1.17804
1.17365
1.17332
1.17361
1.17239
1.16946
1.16605
1.16511
1.16746
1.16974
1.16885
1.16412
1.15752
1.15237
1.15055
1.15257
1.15719
1.15876
1.15371
1.15047
1.15724
1.16811
1.17111
1.16728
1.15716
1.15054
1.14035
1.13332
1.1258
1.11895
1.11702
1.11398
1.11646
1.11198
1.11199
1.11103
1.10606
1.10702
1.09754
1.09913
1.09657
1.08404
1.08589
1.08281
1.09352
1.08076
1.06718
1.0836
1.08384
1.05805
1.05544
1.05798
1.04591
1.03789
1.04874
1.07373
1.10056
1.11357
1.10627
1.07608
1.04299
1.05832
1.10558
1.13072
1.1359
1.11381
1.09452
1.08723
1.06102
1.03515
1.03204
1.02776
1.02828
1.02546
1.01394
1.00978
1.01813
1.02191
1.01599
1.02275
1.03053
1.03754
1.05808
1.0519
1.02437
0.99274
1.01886
1.03584
1.02427
1.03361
1.05513
1.02559
0.978694
0.971826
1.02918
1.08661
1.12015
1.11748
1.11582
1.11293
1.1016
1.10648
1.09617
1.06994
1.08616
1.09907
1.04562
1.01512
1.04845
1.05111
1.01625
1.03128
1.04295
1.0281
1.04808
1.0486
1.01958
1.03981
1.07707
1.08013
1.0842
1.13892
1.15897
1.10255
1.05476
1.11947
1.22981
1.25506
1.23252
1.17116
1.06127
1.05879
1.06727
1.08066
1.11498
1.14911
1.18064
1.2077
1.1898
1.16853
1.10058
1.0667
1.0063
0.994605
0.969068
0.965036
0.956715
0.948383
0.978598
1.02738
1.03333
1.00787
1.11177
1.06171
1.08129
1.14473
1.1491
1.15786
1.16786
1.18485
1.20206
1.21002
1.2038
1.18193
1.15809
1.15063
1.15907
1.16627
1.17173
1.17377
1.17976
1.18682
1.18609
1.18171
1.17936
1.17953
1.18263
1.18837
1.19532
1.19943
1.19837
1.19451
1.19043
1.18749
1.18614
1.18534
1.18175
1.17776
1.17749
1.17938
1.17962
1.17684
1.17379
1.17197
1.1706
1.16775
1.16474
1.16629
1.16728
1.16199
1.15633
1.15865
1.16429
1.17215
1.17352
1.16814
1.15839
1.14296
1.13451
1.12556
1.12192
1.11531
1.1126
1.11198
1.10774
1.10838
1.10378
1.1079
1.10082
1.09486
1.09848
1.09161
1.09243
1.08364
1.08725
1.08267
1.06548
1.07741
1.08675
1.05807
1.05229
1.0569
1.04864
1.0392
1.04836
1.0712
1.09727
1.11559
1.12148
1.10579
1.06563
1.06466
1.10695
1.13129
1.13398
1.11798
1.09767
1.08335
1.05172
1.03077
1.02898
1.02502
1.0238
1.03127
1.02406
1.01913
1.025
1.02457
1.01825
1.03177
1.02686
1.02259
1.04483
1.05987
1.04677
1.01572
1.01554
1.04514
1.04339
1.03802
1.06638
1.05851
0.994753
0.985243
1.02939
1.09648
1.12853
1.1091
1.10213
1.1105
1.10911
1.10923
1.10008
1.07593
1.0746
1.06731
1.03137
1.02536
1.06593
1.05466
1.01097
1.0219
1.0428
1.02292
1.03954
1.05212
1.02603
1.03483
1.06751
1.06759
1.06183
1.12101
1.15579
1.10448
1.04907
1.10057
1.21358
1.2492
1.22979
1.16214
1.0478
1.05304
1.06717
1.07718
1.1208
1.15042
1.19493
1.23109
1.22331
1.1901
1.12092
1.10217
1.0313
0.997233
0.980603
0.969172
0.94913
0.952654
0.996626
1.0358
1.04118
1.01606
1.08564
1.05001
1.06486
1.14594
1.15329
1.16405
1.16622
1.1659
1.1736
1.18393
1.19648
1.20773
1.20826
1.1825
1.15414
1.14371
1.1539
1.17102
1.18721
1.19994
1.20549
1.20109
1.19166
1.18263
1.1768
1.17491
1.17793
1.18158
1.18504
1.18633
1.18557
1.18484
1.18579
1.1859
1.18097
1.1758
1.17477
1.17404
1.16915
1.16375
1.16331
1.16329
1.16014
1.15895
1.16027
1.16545
1.17184
1.17156
1.16281
1.15549
1.15471
1.15843
1.16806
1.16556
1.161
1.14931
1.13978
1.12827
1.11906
1.11811
1.11253
1.11276
1.10904
1.10991
1.10492
1.10207
1.10264
1.09651
1.09373
1.08309
1.08632
1.08525
1.08452
1.08839
1.06778
1.07
1.08803
1.06515
1.05101
1.05479
1.04878
1.0383
1.0474
1.07047
1.0984
1.11763
1.12843
1.12971
1.09145
1.07667
1.10636
1.1332
1.13019
1.12065
1.10845
1.08766
1.04865
1.02646
1.02707
1.01727
1.01547
1.02664
1.02776
1.02433
1.02484
1.02476
1.01747
1.03696
1.02868
1.02002
1.02709
1.05445
1.06779
1.04023
1.01087
1.03034
1.03666
1.03131
1.0526
1.05724
0.997859
0.978792
1.03559
1.10978
1.1368
1.08709
1.08323
1.10595
1.1186
1.11279
1.09645
1.07408
1.06264
1.04766
1.03131
1.04755
1.06965
1.03241
1.00382
1.03108
1.05459
1.02081
1.03248
1.05281
1.03352
1.03681
1.06585
1.06568
1.04693
1.10062
1.15004
1.1093
1.04717
1.08308
1.19795
1.2442
1.22978
1.16339
1.05436
1.05122
1.06926
1.07757
1.11355
1.13984
1.17948
1.22606
1.23686
1.21612
1.13103
1.09978
1.04954
0.996701
0.988639
0.974355
0.945595
0.963249
1.01629
1.05424
1.06564
1.03679
1.07114
1.04446
1.09555
1.14798
1.15853
1.1664
1.15872
1.15142
1.15138
1.15473
1.16192
1.17056
1.18757
1.20589
1.204
1.17724
1.15493
1.15164
1.15826
1.16775
1.1782
1.18735
1.19381
1.19582
1.19508
1.19318
1.19122
1.18904
1.18765
1.18746
1.18669
1.18531
1.18595
1.18606
1.18436
1.17992
1.17564
1.17598
1.17401
1.16984
1.17073
1.17362
1.17308
1.16672
1.16021
1.16061
1.16747
1.16752
1.16343
1.15878
1.1634
1.16643
1.16881
1.1681
1.16217
1.15427
1.14056
1.1334
1.12309
1.12198
1.11813
1.11767
1.11388
1.10805
1.10927
1.10451
1.10305
1.09725
1.09876
1.09397
1.08508
1.08731
1.07696
1.08642
1.07368
1.06221
1.08266
1.07393
1.05085
1.05424
1.04777
1.04126
1.04652
1.07172
1.10064
1.12031
1.1321
1.1448
1.11419
1.09323
1.1077
1.13487
1.12961
1.1164
1.1151
1.09912
1.05717
1.03482
1.03461
1.02203
1.01342
1.01936
1.02298
1.02356
1.02533
1.01912
1.00401
1.02486
1.02893
1.03316
1.02717
1.0375
1.06457
1.06268
1.02107
1.03303
1.05089
1.04009
1.06228
1.06786
1.01912
0.977931
1.02935
1.11694
1.12754
1.06983
1.08775
1.12941
1.14621
1.13351
1.1101
1.08183
1.05949
1.04428
1.03697
1.04276
1.03451
1.00948
1.02067
1.06007
1.05778
1.0066
1.01556
1.04318
1.03097
1.03222
1.06434
1.06887
1.03887
1.08102
1.14084
1.11492
1.04859
1.06861
1.18099
1.23765
1.23243
1.1668
1.07388
1.05846
1.07459
1.08536
1.11295
1.12256
1.14717
1.21152
1.23658
1.22522
1.15137
1.11447
1.07992
0.99736
0.991367
0.977107
0.948502
0.973793
1.04874
1.08192
1.08622
1.06375
1.0746
1.05117
1.12992
1.1488
1.15502
1.15013
1.14424
1.14369
1.14438
1.14404
1.14585
1.1475
1.15161
1.16872
1.19176
1.19902
1.18751
1.17283
1.16453
1.16387
1.16918
1.17791
1.18624
1.19261
1.19662
1.19842
1.19872
1.19719
1.19639
1.19618
1.19484
1.19424
1.1916
1.18822
1.18859
1.18449
1.17909
1.18098
1.17792
1.17211
1.17174
1.16937
1.16558
1.15891
1.1584
1.16525
1.1693
1.16063
1.15316
1.15977
1.16601
1.17045
1.16728
1.16555
1.15593
1.14704
1.13314
1.12622
1.11941
1.11864
1.11827
1.11098
1.11125
1.10745
1.1078
1.10403
1.10329
1.1028
1.09244
1.09756
1.08812
1.09219
1.08331
1.07928
1.08155
1.06238
1.07218
1.07904
1.05096
1.05317
1.04971
1.04492
1.04429
1.07238
1.10241
1.12556
1.13852
1.15214
1.13102
1.10891
1.11125
1.13426
1.13469
1.11494
1.11519
1.10526
1.06336
1.03937
1.04395
1.03358
1.02051
1.01896
1.01812
1.02096
1.02487
1.01741
1.00582
1.0129
1.01843
1.04213
1.0382
1.02741
1.05354
1.08023
1.05925
1.0332
1.0501
1.03811
1.05328
1.07908
1.03202
0.99087
1.03706
1.12618
1.09732
1.07258
1.10083
1.1632
1.19163
1.17383
1.12918
1.08315
1.05652
1.04296
1.02904
1.0187
1.00725
1.0093
1.03232
1.0403
1.01923
0.986217
1.00243
1.04271
1.03544
1.02683
1.05811
1.07146
1.03544
1.06313
1.13042
1.12136
1.05342
1.05723
1.16179
1.23149
1.23779
1.17301
1.09795
1.07444
1.08842
1.09678
1.12052
1.11836
1.12282
1.17584
1.23194
1.24093
1.1571
1.10474
1.10042
0.998688
0.995894
0.98291
0.952274
0.9751
1.06915
1.0972
1.07268
1.07907
1.08007
1.06013
1.11683
1.14452
1.14298
1.14549
1.14983
1.15135
1.15425
1.15445
1.15318
1.15181
1.14763
1.15106
1.16826
1.18592
1.19281
1.19171
1.18649
1.18095
1.17844
1.17722
1.17677
1.17672
1.17599
1.17701
1.17821
1.17962
1.1818
1.18254
1.18422
1.18661
1.18317
1.18154
1.18232
1.17683
1.1759
1.17753
1.1717
1.16919
1.16969
1.16465
1.16346
1.16471
1.16313
1.16269
1.15374
1.14935
1.15008
1.15962
1.17136
1.17772
1.17245
1.16011
1.14381
1.12994
1.12173
1.11807
1.12336
1.11795
1.12001
1.11624
1.11751
1.11324
1.11307
1.11353
1.10268
1.1048
1.09848
1.09616
1.09207
1.08423
1.08816
1.07709
1.08501