/*--------------------------------*- C++ -*----------------------------------*\
| =========                 |                                                 |
| \\      /  F ield         | OpenFOAM: The Open Source CFD Toolbox           |
|  \\    /   O peration     | Version:  dev                                   |
|   \\  /    A nd           | Web:      http://www.openfoam.org               |
|    \\/     M anipulation  |                                                 |
\*---------------------------------------------------------------------------*/
FoamFile
{
    version     2.0;
    format      ascii;
    class       volScalarField;
    object      rho_0;
    location    "9.133";
}
// * * * * * * * * * * * * * * * * * * * * * * * * * * * * * * * * * * * * * //

dimensions      [1 -3 0 0 0 0 0];

internalField   nonuniform List<scalar> 
12225
(
1.09397
1.10024
1.10158
1.10295
1.10578
1.10835
1.1116
1.11488
1.11813
1.1217
1.12452
1.12837
1.13045
1.13427
1.13649
1.14039
1.13783
1.12539
1.09865
1.10744
1.10779
1.11086
1.11237
1.11686
1.11862
1.12331
1.12471
1.12951
1.13007
1.13495
1.13518
1.13928
1.13968
1.1481
1.14
1.13424
1.09828
1.10788
1.1079
1.11201
1.1136
1.11863
1.12058
1.1257
1.12733
1.13217
1.13366
1.1376
1.13872
1.14251
1.14096
1.14496
1.1433
1.14733
1.0972
1.10715
1.10891
1.11142
1.11482
1.11766
1.12195
1.12485
1.12848
1.13147
1.13495
1.13745
1.14052
1.14226
1.14599
1.14375
1.14712
1.15336
1.09788
1.10434
1.10874
1.10943
1.1151
1.11607
1.1222
1.12384
1.1287
1.1303
1.13505
1.13651
1.14088
1.14196
1.14555
1.14495
1.15116
1.15275
1.09863
1.10338
1.10804
1.10856
1.11526
1.11543
1.12201
1.12348
1.12808
1.13019
1.13474
1.13634
1.14053
1.14212
1.14555
1.14647
1.15007
1.15109
1.09813
1.10214
1.10707
1.10855
1.11402
1.11467
1.12089
1.12236
1.12731
1.12976
1.13492
1.13521
1.14097
1.14143
1.14581
1.14572
1.14956
1.15028
1.09764
1.10066
1.10698
1.10711
1.11256
1.11373
1.12012
1.12138
1.12596
1.1289
1.134
1.13445
1.1396
1.14049
1.14446
1.14637
1.14826
1.14998
1.09564
1.09978
1.10609
1.10601
1.11052
1.11304
1.11954
1.12058
1.12462
1.12793
1.13218
1.13421
1.1371
1.13959
1.14222
1.14522
1.14695
1.14851
1.09445
1.09897
1.10449
1.10419
1.10878
1.11133
1.11748
1.11925
1.12297
1.12602
1.13034
1.13306
1.13531
1.13818
1.14138
1.14313
1.14559
1.1471
1.09239
1.09728
1.10195
1.10206
1.10705
1.10941
1.1148
1.11731
1.12134
1.12384
1.12803
1.13164
1.13449
1.13631
1.13999
1.14205
1.14437
1.14586
1.08999
1.09461
1.09905
1.09966
1.10467
1.10726
1.11202
1.11498
1.11889
1.12132
1.12557
1.12908
1.13262
1.13443
1.13714
1.13983
1.1432
1.14463
1.08578
1.09171
1.09534
1.09656
1.10076
1.10367
1.10779
1.11111
1.11475
1.11794
1.12173
1.12526
1.1288
1.131
1.13344
1.13602
1.13924
1.14095
1.08103
1.08796
1.0901
1.0922
1.09566
1.09894
1.10249
1.10611
1.10957
1.11329
1.1167
1.12022
1.12353
1.12617
1.12888
1.13112
1.13385
1.13563
1.07518
1.08254
1.0838
1.08623
1.0893
1.0927
1.096
1.09988
1.10339
1.10711
1.11051
1.11408
1.11712
1.12001
1.12264
1.12496
1.12774
1.12949
1.06774
1.07505
1.07605
1.07868
1.08186
1.0854
1.08874
1.09265
1.09597
1.09958
1.10284
1.10645
1.10918
1.11248
1.11522
1.11776
1.12046
1.12242
1.05865
1.06641
1.06754
1.06992
1.07299
1.07639
1.07963
1.08354
1.08684
1.09068
1.09392
1.09773
1.1005
1.10416
1.10669
1.10963
1.11212
1.11438
1.04877
1.05725
1.05864
1.06079
1.06358
1.06687
1.07019
1.07414
1.07765
1.08167
1.08513
1.0891
1.09204
1.09578
1.09837
1.1017
1.10424
1.10699
1.04083
1.04902
1.05018
1.05236
1.05521
1.05882
1.06232
1.06609
1.06987
1.07373
1.07743
1.08128
1.08475
1.08832
1.09161
1.09493
1.09789
1.10105
1.03345
1.04156
1.04302
1.04546
1.04864
1.05208
1.05565
1.05931
1.06333
1.06716
1.07124
1.07506
1.07907
1.08262
1.08646
1.08979
1.09339
1.09661
1.02781
1.03632
1.03776
1.04027
1.04353
1.04668
1.05043
1.05434
1.0584
1.06246
1.0666
1.0705
1.07456
1.07842
1.08222
1.08599
1.08965
1.09323
1.02347
1.03212
1.03348
1.03612
1.03924
1.04289
1.04666
1.05071
1.05479
1.05895
1.06307
1.06718
1.07128
1.07533
1.07933
1.08321
1.08709
1.0909
1.02005
1.02876
1.03055
1.03313
1.03648
1.04001
1.0437
1.04757
1.05177
1.05589
1.06025
1.06456
1.06884
1.07312
1.07725
1.08133
1.08536
1.08923
1.01793
1.02659
1.02812
1.03086
1.03422
1.03775
1.04158
1.04564
1.0497
1.05402
1.05834
1.06269
1.06711
1.07141
1.07569
1.0799
1.08399
1.08805
1.01519
1.02457
1.02643
1.02913
1.03235
1.03593
1.03976
1.04375
1.048
1.0523
1.05666
1.06111
1.0655
1.0699
1.07424
1.07851
1.08269
1.08684
1.01435
1.02333
1.02511
1.02797
1.03137
1.03497
1.03878
1.04276
1.04691
1.05119
1.05555
1.05998
1.06443
1.06886
1.07329
1.07762
1.08195
1.08615
1.01363
1.02277
1.02443
1.02708
1.03035
1.03394
1.03786
1.04195
1.04626
1.0506
1.05505
1.05947
1.06399
1.06844
1.07295
1.0774
1.08183
1.08624
1.01301
1.02224
1.02384
1.0265
1.02978
1.03334
1.03719
1.04124
1.04555
1.04995
1.05452
1.05908
1.06377
1.06838
1.07311
1.07766
1.08232
1.08683
1.01241
1.02197
1.0235
1.02593
1.02898
1.0324
1.03616
1.04017
1.0444
1.04875
1.05322
1.05771
1.06222
1.06666
1.07107
1.07526
1.07952
1.08332
1.0094
1.01774
1.01881
1.0208
1.0235
1.02666
1.03015
1.03389
1.03785
1.04198
1.0462
1.05049
1.05479
1.05908
1.0633
1.06747
1.07149
1.07541
1.18301
1.21494
1.23198
1.23937
1.24149
1.24129
1.24015
1.23884
1.23707
1.23483
1.23219
1.2293
1.22567
1.22188
1.21875
1.21514
1.2112
1.20684
1.20119
1.19579
1.19123
1.18489
1.1756
1.165
1.1545
1.14735
1.14476
1.14336
1.14163
1.14017
1.13871
1.13727
1.13582
1.13432
1.13278
1.13119
1.12959
1.12799
1.12642
1.12492
1.1235
1.12221
1.12106
1.12002
1.11909
1.11827
1.11753
1.11687
1.11627
1.11571
1.11522
1.1147
1.11408
1.11333
1.11236
1.11126
1.11018
1.10921
1.1084
1.10759
1.10662
1.10538
1.10385
1.102
1.09981
1.09733
1.09468
1.09203
1.08954
1.0871
1.08448
1.08144
1.07798
1.07438
1.07082
1.06754
1.06442
1.06155
1.0588
1.05579
1.05192
1.04817
1.04703
1.04767
1.04773
1.04657
1.04534
1.045
1.04504
1.04311
1.03732
1.03324
1.03481
1.04221
1.04219
1.03332
1.0239
1.00845
0.991484
0.9959
1.01554
1.01537
1.00635
1.0093
1.01904
1.02415
1.02722
1.03509
1.04384
1.05011
1.05071
1.04593
1.04068
1.04304
1.05537
1.0715
1.04912
1.06385
1.06612
1.06762
1.06956
1.06961
1.06824
1.06602
1.06356
1.06084
1.05908
1.05744
1.05515
1.05273
1.05088
1.04941
1.04815
1.04858
1.04913
1.05071
1.05381
1.05846
1.06409
1.07051
1.07728
1.08332
1.0885
1.09331
1.09734
1.102
1.10529
1.10676
1.10996
1.11258
1.11911
1.12775
1.12786
1.12157
1.10126
1.07099
1.04654
1.03645
1.02472
1.00836
1.00149
0.993766
0.985578
0.984716
1.00301
1.01349
0.997066
1.0072
1.01262
1.01705
1.02206
1.02507
1.03137
1.03415
1.03894
1.04209
1.04545
1.04883
1.05256
1.05416
1.1833
1.22197
1.24195
1.24742
1.24748
1.2469
1.24735
1.24764
1.24538
1.24121
1.23772
1.23505
1.2321
1.22864
1.22714
1.22672
1.22182
1.21527
1.20712
1.19214
1.17598
1.16437
1.15591
1.15241
1.15027
1.14893
1.14784
1.14702
1.14604
1.14476
1.14377
1.14197
1.14015
1.1383
1.13617
1.13406
1.13186
1.12966
1.12772
1.12595
1.12444
1.12336
1.12237
1.12154
1.12096
1.12055
1.12031
1.12016
1.12008
1.12032
1.12072
1.12066
1.12008
1.11883
1.11675
1.11465
1.11333
1.11334
1.11446
1.11563
1.11628
1.11612
1.11493
1.11277
1.10961
1.10576
1.10146
1.09749
1.09532
1.09458
1.09483
1.09482
1.09336
1.09018
1.08551
1.08129
1.07837
1.07619
1.07402
1.07463
1.07822
1.07654
1.07384
1.07752
1.08024
1.08015
1.07713
1.0742
1.07862
1.08718
1.08262
1.06534
1.06611
1.09588
1.10445
1.07855
1.05292
1.03304
1.02129
1.02212
1.02087
1.01389
1.01698
1.02112
1.01997
1.0242
1.03341
1.04814
1.06162
1.06522
1.05762
1.04169
1.03198
1.03693
1.05181
1.06543
1.0092
1.0463
1.0511
1.05344
1.06207
1.07655
1.08496
1.08693
1.08769
1.08697
1.08613
1.0851
1.08536
1.08711
1.08977
1.09194
1.09232
1.0951
1.09733
1.09879
1.10147
1.10812
1.11691
1.12287
1.12995
1.14426
1.16016
1.17142
1.17758
1.18827
1.19989
1.20432
1.20664
1.21086
1.2269
1.26015
1.28717
1.27612
1.22292
1.14813
1.09699
1.07073
1.04046
1.01471
0.996756
0.975921
0.955648
0.965952
1.02339
1.02376
0.987008
1.01878
1.03241
1.03978
1.05261
1.06649
1.08672
1.09718
1.10921
1.1136
1.11581
1.11433
1.1172
1.11415
1.17707
1.20739
1.22558
1.23322
1.23511
1.23621
1.23978
1.23664
1.22586
1.21569
1.21182
1.20843
1.20391
1.20228
1.20086
1.19489
1.18578
1.17723
1.16623
1.15746
1.15499
1.15339
1.15268
1.15378
1.15347
1.15321
1.15362
1.15309
1.1526
1.15209
1.15117
1.15004
1.14838
1.14567
1.14353
1.1409
1.13801
1.13493
1.13173
1.12845
1.12583
1.1238
1.12241
1.12098
1.11962
1.11892
1.11818
1.11707
1.11595
1.11541
1.11496
1.11335
1.11117
1.10895
1.10617
1.10493
1.10495
1.1058
1.10745
1.10807
1.10714
1.10533
1.10252
1.09902
1.09565
1.09217
1.08779
1.08321
1.08188
1.08318
1.08633
1.08865
1.08916
1.0884
1.08384
1.07889
1.07731
1.07599
1.0752
1.07133
1.06562
1.07648
1.09097
1.08135
1.05841
1.04954
1.05052
1.04892
1.05648
1.07064
1.07418
1.07748
1.09396
1.09694
1.07899
1.05311
1.0381
1.03698
1.03529
1.02858
1.018
1.01238
1.01863
1.01456
1.0098
1.01256
1.01456
1.02344
1.03274
1.03593
1.03426
1.02354
1.02738
1.03797
1.03442
1.01592
0.981583
1.00394
1.00947
1.00695
1.01095
1.0404
1.06123
1.06649
1.07392
1.08192
1.08123
1.07649
1.07588
1.07955
1.08314
1.0861
1.08894
1.09115
1.09421
1.09758
1.10261
1.11098
1.11802
1.12704
1.14198
1.15815
1.16751
1.18277
1.2027
1.21906
1.23643
1.25008
1.25053
1.25032
1.27089
1.31108
1.34146
1.2945
1.21053
1.14568
1.09988
1.06936
1.04993
1.0341
1.001
0.953936
0.919809
0.964937
1.02777
0.974183
0.968917
1.00756
1.01876
1.01753
1.02183
1.0365
1.06264
1.08865
1.11543
1.13151
1.15359
1.16053
1.16605
1.16259
1.17263
1.19751
1.21743
1.22649
1.23014
1.23591
1.23844
1.22239
1.20391
1.19961
1.20265
1.19623
1.18755
1.18341
1.18189
1.17282
1.16316
1.16196
1.16251
1.16318
1.1642
1.16643
1.16879
1.16713
1.16773
1.16721
1.16732
1.16726
1.16723
1.16698
1.16621
1.1658
1.16499
1.16404
1.16282
1.16099
1.15925
1.15715
1.15572
1.15342
1.15052
1.14822
1.14637
1.14484
1.14231
1.14026
1.13919
1.13671
1.13413
1.13183
1.12947
1.12679
1.12411
1.12194
1.1197
1.11906
1.11899
1.11725
1.11437
1.11136
1.10657
1.10205
1.09843
1.09482
1.09332
1.09233
1.08989
1.08419
1.07787
1.07381
1.07317
1.0755
1.07871
1.08276
1.07987
1.06684
1.06473
1.07034
1.06823
1.06729
1.06018
1.05807
1.0766
1.08163
1.06733
1.06266
1.05545
1.04252
1.04596
1.06232
1.07461
1.09377
1.11115
1.09844
1.06783
1.05219
1.05772
1.06143
1.05084
1.03754
1.01949
1.01771
1.02345
1.01587
1.01188
1.00791
1.00347
1.00936
1.01964
1.02908
1.03658
1.02958
1.03196
1.03442
1.0279
1.01143
0.979182
0.973111
0.98338
0.982212
0.975245
1.00794
1.03829
1.03712
1.03775
1.06111
1.07403
1.06474
1.06089
1.06967
1.07854
1.08146
1.08361
1.08415
1.08362
1.0845
1.0867
1.09684
1.10947
1.11929
1.13021
1.14985
1.16845
1.18362
1.20209
1.21642
1.23341
1.2573
1.26559
1.26226
1.2867
1.32809
1.33859
1.2654
1.17563
1.12626
1.08923
1.05689
1.03899
1.03707
1.02227
0.967832
0.925341
0.973553
1.01193
0.963892
0.963482
1.01954
1.02999
1.02342
1.02182
1.02755
1.0296
1.05797
1.10278
1.12276
1.14563
1.16701
1.18381
1.19309
1.16978
1.1911
1.21141
1.22461
1.23338
1.24076
1.22963
1.20662
1.20269
1.19867
1.1958
1.19319
1.17706
1.16911
1.17123
1.17017
1.16809
1.17272
1.17148
1.17298
1.17585
1.17091
1.17019
1.168
1.16879
1.17038
1.16976
1.17189
1.17224
1.1721
1.1721
1.17091
1.16862
1.1677
1.16572
1.16294
1.16109
1.15875
1.15671
1.1552
1.15317
1.15123
1.14996
1.14825
1.14638
1.14455
1.14351
1.14246
1.14134
1.14076
1.14032
1.13961
1.13878
1.13767
1.13652
1.13378
1.13112
1.12906
1.12527
1.12289
1.11929
1.11623
1.11433
1.11189
1.10847
1.10487
1.10265
1.0988
1.08994
1.07976
1.07074
1.06514
1.06238
1.06189
1.06351
1.05701
1.05721
1.06732
1.06163
1.05504
1.05532
1.04862
1.05293
1.04958
1.04362
1.05525
1.05443
1.04383
1.04715
1.07355
1.09476
1.10976
1.10439
1.07749
1.05799
1.05738
1.06353
1.05267
1.03869
1.02577
1.01647
1.02277
1.02833
1.01896
1.01601
1.00791
1.00489
1.01034
1.02179
1.03451
1.04309
1.03393
1.02778
1.01948
1.01208
1.00323
0.975896
0.953432
0.954463
0.964366
0.960443
0.987492
1.02007
1.0118
1.00434
1.03174
1.05064
1.03546
1.02642
1.03892
1.05494
1.06478
1.07649
1.08047
1.07205
1.06425
1.06068
1.06647
1.08551
1.10519
1.1175
1.13177
1.15121
1.17089
1.19455
1.20897
1.21769
1.23895
1.25551
1.25556
1.28682
1.32913
1.32445
1.24577
1.16585
1.1393
1.13065
1.10608
1.09513
1.08962
1.03843
0.956537
0.93598
0.959618
0.959121
0.974332
0.95601
1.01709
1.02827
1.01379
1.01438
1.03471
0.997281
1.02661
1.08692
1.11993
1.13078
1.13845
1.15737
1.19079
1.16937
1.19251
1.21598
1.23111
1.23865
1.23321
1.21526
1.19877
1.19302
1.19294
1.18808
1.18418
1.1776
1.16782
1.16576
1.17229
1.1742
1.17896
1.18255
1.17859
1.17744
1.17412
1.17564
1.1806
1.18206
1.18647
1.1886
1.18921
1.18807
1.18715
1.18522
1.18271
1.17955
1.17689
1.17463
1.17177
1.16992
1.16759
1.16433
1.16153
1.15826
1.15272
1.14726
1.14136
1.13585
1.13193
1.12909
1.12678
1.12545
1.12489
1.12451
1.12482
1.12538
1.12591
1.12688
1.12505
1.12215
1.12023
1.11743
1.11652
1.1141
1.11182
1.11073
1.11224
1.11086
1.10489
1.1019
1.10389
1.09911
1.08852
1.08091
1.07406
1.06687
1.05827
1.05245
1.04839
1.04965
1.057
1.0504
1.04036
1.04847
1.0578
1.06846
1.06247
1.0611
1.07378
1.06297
1.0399
1.04353
1.08173
1.10479
1.10815
1.08993
1.06325
1.05913
1.06603
1.06208
1.04671
1.04288
1.03761
1.0346
1.04062
1.03762
1.02591
1.02449
1.01689
1.0191
1.01909
1.01615
1.02007
1.02291
1.01811
1.01895
1.01764
1.01187
0.98607
0.981307
0.959821
0.945139
0.958027
0.968676
0.980747
1.00621
1.00058
1.00137
1.02811
1.04745
1.02874
1.01691
1.03077
1.04289
1.0429
1.06148
1.08316
1.07872
1.06103
1.04636
1.03898
1.05352
1.07961
1.10313
1.12094
1.1347
1.14889
1.17641
1.19777
1.20393
1.21554
1.23055
1.23441
1.27456
1.32078
1.31047
1.23849
1.18105
1.17517
1.18159
1.1577
1.15093
1.13052
1.08597
1.02021
0.987678
0.973281
0.942974
0.95618
0.964086
1.00227
1.02322
0.995135
0.979729
1.03809
0.96434
0.977945
1.04874
1.11815
1.1313
1.09456
1.08664
1.13807
1.1694
1.19405
1.22126
1.23503
1.23674
1.22789
1.20226
1.18641
1.18824
1.17009
1.1649
1.17425
1.17579
1.18103
1.18889
1.19181
1.19339
1.18723
1.1853
1.18201
1.18097
1.18454
1.18733
1.19446
1.19591
1.19415
1.19194
1.18688
1.18276
1.17895
1.17486
1.1726
1.16982
1.16737
1.16546
1.16265
1.16126
1.16007
1.15864
1.15834
1.15865
1.15821
1.15754
1.15493
1.15
1.14371
1.1369
1.13088
1.12636
1.12295
1.12044
1.11914
1.11826
1.11753
1.11771
1.11658
1.11706
1.11473
1.11387
1.11187
1.1097
1.10681
1.101
1.09712
1.0989
1.09633
1.0893
1.09094
1.09328
1.08836
1.08882
1.09074
1.08509
1.07155
1.05523
1.04724
1.04673
1.04805
1.04619
1.04321
1.04951
1.05978
1.06528
1.04026
1.03078
1.04814
1.04386
1.02951
1.04809
1.09314
1.10541
1.09674
1.07859
1.0588
1.06231
1.06714
1.06064
1.05948
1.06164
1.04808
1.03944
1.03943
1.03264
1.0285
1.03238
1.024
1.03007
1.03094
1.02138
1.01902
1.01908
1.02232
1.02758
1.03448
1.02897
1.01061
0.981258
0.956136
0.953933
0.963566
0.998634
0.997542
0.991631
0.995681
1.01941
1.03504
1.04562
1.03002
1.02636
1.04176
1.04606
1.02914
1.03463
1.0637
1.06975
1.05662
1.04197
1.02574
1.03018
1.0509
1.07602
1.10277
1.12132
1.12971
1.1523
1.17841
1.18985
1.19123
1.19543
1.20394
1.25952
1.31183
1.29782
1.2374
1.20447
1.20611
1.19519
1.16671
1.15975
1.14548
1.11583
1.03583
0.997374
1.00788
0.97661
0.947498
0.97023
0.976279
1.00072
0.985542
0.932527
1.02997
0.966536
0.938436
0.975475
1.09153
1.13547
1.06533
1.02984
1.07383
1.16837
1.19136
1.21893
1.22956
1.22549
1.21662
1.20001
1.17741
1.18324
1.18795
1.1735
1.17333
1.17629
1.17408
1.18102
1.18477
1.18995
1.19097
1.18914
1.18961
1.18922
1.19437
1.198
1.19626
1.19251
1.18619
1.18147
1.17632
1.17338
1.17142
1.16993
1.17087
1.17054
1.16994
1.16908
1.16689
1.16432
1.15986
1.15489
1.15111
1.14752
1.14535
1.14534
1.14643
1.14754
1.14696
1.14423
1.13945
1.1341
1.12896
1.12447
1.1223
1.12122
1.11941
1.11993
1.11937
1.12198
1.12063
1.12131
1.12038
1.11566
1.11279
1.11085
1.10137
1.09517
1.09818
1.09445
1.08716
1.08117
1.07341
1.08252
1.09872
1.0932
1.06956
1.0476
1.04242
1.04561
1.04772
1.0491
1.04987
1.04881
1.051
1.04992
1.02756
1.03026
1.05066
1.03963
1.0334
1.06132
1.10116
1.09984
1.08137
1.07142
1.06079
1.06947
1.07331
1.06489
1.06656
1.0587
1.03716
1.02814
1.02656
1.0209
1.02056
1.01648
1.00678
1.01399
1.0215
1.02269
1.02221
1.0181
1.01891
1.02091
1.034
1.03563
1.0283
0.989385
0.943929
0.955526
0.964947
1.00922
1.02294
1.00031
1.02466
1.07316
1.06568
1.04557
1.03711
1.04676
1.05682
1.05236
1.03691
1.03046
1.0463
1.05039
1.046
1.04018
1.02262
1.01964
1.03419
1.05241
1.08179
1.10935
1.11812
1.133
1.159
1.17767
1.1719
1.16103
1.16719
1.23579
1.29755
1.28461
1.23779
1.22195
1.20747
1.16089
1.13651
1.11509
1.09299
1.05944
0.986783
1.01351
1.00702
0.992985
0.961335
0.973881
0.965353
0.991681
0.998983
0.913097
1.00291
0.978126
0.956041
0.924326
1.03236
1.12657
1.0872
1.04141
1.05637
1.16761
1.18964
1.21817
1.22349
1.21105
1.2074
1.20386
1.18994
1.17355
1.17598
1.18119
1.18079
1.18359
1.18679
1.19596
1.20113
1.19677
1.19252
1.18819
1.18809
1.19128
1.19356
1.19528
1.19345
1.18928
1.18514
1.18385
1.18126
1.1788
1.1769
1.17569
1.17686
1.1771
1.178
1.17964
1.17974
1.17961
1.17848
1.17527
1.17079
1.1641
1.15605
1.14733
1.14059
1.13747
1.13666
1.13646
1.13488
1.13135
1.12709
1.12301
1.12028
1.11806
1.11545
1.11353
1.1146
1.11362
1.11689
1.11464
1.11424
1.11194
1.10378
1.10125
1.10115
1.09296
1.09058
1.09402
1.09431
1.08974
1.07183
1.07037
1.08698
1.07887
1.05414
1.04565
1.05122
1.05319
1.05113
1.05183
1.05442
1.05525
1.05152
1.04347
1.04379
1.06287
1.0626
1.04015
1.04689
1.07991
1.10797
1.09365
1.06973
1.06566
1.06248
1.06214
1.04873
1.03655
1.03381
1.02361
1.01216
1.00901
1.00321
0.993889
0.997311
0.989413
0.987314
0.995214
1.01054
1.02471
1.03346
1.03171
1.02251
1.01763
1.02683
1.04812
1.02825
1.00047
0.959984
0.964912
0.98465
1.0067
1.03447
1.02952
1.04972
1.08725
1.07959
1.03973
1.04282
1.05679
1.06427
1.05874
1.05503
1.04925
1.04876
1.0433
1.04441
1.04979
1.03485
1.02385
1.02796
1.033
1.05798
1.09497
1.11129
1.12009
1.14107
1.16727
1.1588
1.13148
1.13096
1.20967
1.2812
1.27266
1.23595
1.22459
1.17986
1.10328
1.0936
1.06005
1.05284
1.02407
0.967904
1.03907
1.05645
1.02549
0.984068
0.97485
0.950225
0.985296
0.995552
0.93551
0.972012
0.948337
0.976233
0.926924
0.967209
1.09425
1.13232
1.08062
1.07255
1.16585
1.18365
1.21276
1.2257
1.21123
1.19994
1.19676
1.18826
1.18059
1.17206
1.17202
1.17759
1.18489
1.19317
1.20115
1.20851
1.20889
1.20388
1.19738
1.19583
1.19955
1.20406
1.20637
1.20543
1.2041
1.20192
1.19904
1.19503
1.19114
1.1862
1.18073
1.17781
1.17519
1.17263
1.17177
1.17201
1.17261
1.17328
1.1739
1.17417
1.17373
1.17233
1.16818
1.16069
1.15069
1.14031
1.13214
1.12801
1.12708
1.12682
1.12613
1.12504
1.12164
1.12064
1.11568
1.11695
1.11306
1.11244
1.11334
1.10815
1.10778
1.10616
1.09635
1.09337
1.09149
1.08425
1.08086
1.08205
1.09316
1.0841
1.06876
1.0766
1.07413
1.05287
1.04857
1.05616
1.0493
1.0322
1.0282
1.03363
1.0479
1.05437
1.03961
1.03699
1.05584
1.05054
1.04322
1.06455
1.09531
1.11372
1.09102
1.06663
1.06698
1.06369
1.05092
1.02948
1.01475
1.01385
1.00936
1.00417
0.999243
0.990722
0.982053
0.986125
0.981156
0.987695
0.98994
0.99914
1.00286
1.00888
1.03027
1.02584
1.01899
1.0227
1.04575
1.04336
0.996296
0.96194
0.969584
1.00975
1.03441
1.05872
1.0673
1.06909
1.06951
1.07448
1.06555
1.07997
1.06332
1.06434
1.07283
1.07304
1.07049
1.06504
1.05092
1.05008
1.06264
1.04914
1.03547
1.03684
1.02889
1.03916
1.07897
1.10492
1.11224
1.12869
1.16077
1.15193
1.10989
1.10013
1.18362
1.26549
1.26084
1.23213
1.21168
1.14183
1.06115
1.06444
1.03554
1.03829
1.00983
1.03881
1.05604
1.06657
1.05646
1.01728
0.994582
0.954765
0.989981
0.964357
0.942449
0.964501
0.937048
0.964449
0.960249
0.940823
1.05474
1.1557
1.09137
1.08494
1.16405
1.17692
1.20289
1.22357
1.21512
1.19627
1.19342
1.18757
1.17914
1.17538
1.17523
1.17916
1.18397
1.18891
1.19476
1.19806
1.19772
1.19723
1.19468
1.19586
1.20157
1.20612
1.20795
1.20425
1.19833
1.19541
1.19467
1.19198
1.18806
1.18486
1.1822
1.1812
1.18109
1.18063
1.1798
1.17892
1.1777
1.1761
1.17447
1.17241
1.17028
1.16967
1.17059
1.17083
1.16852
1.16321
1.1555
1.14654
1.13909
1.1337
1.12879
1.12533
1.11931
1.11692
1.11541
1.11185
1.11519
1.11087
1.11216
1.11217
1.10481
1.10592
1.10194
1.09594
1.09548
1.09069
1.08803
1.07891
1.08123
1.0797
1.06657
1.07641
1.0836
1.06074
1.04219
1.04333
1.04074
1.03127
1.03016
1.03845
1.05758
1.07558
1.06383
1.03961
1.03425
1.02988
1.04647
1.08088
1.10733
1.11952
1.09512
1.06995
1.0686
1.0604
1.0393
1.01985
1.01344
1.01336
1.01364
1.00908
1.00384
1.00088
1.00781
1.01755
1.0138
1.01534
1.00521
1.00188
0.991904
0.983852
1.01469
1.03086
1.02061
1.01117
1.03412
1.04915
1.01417
0.959634
0.970594
1.00874
1.04827
1.07445
1.08442
1.09628
1.0813
1.085
1.1136
1.11102
1.05818
1.05976
1.0845
1.06553
1.05901
1.07099
1.0575
1.04963
1.06933
1.05871
1.0408
1.04359
1.03069
1.02603
1.06403
1.09552
1.10171
1.11568
1.15416
1.14932
1.0962
1.0744
1.1592
1.25009
1.25083
1.22572
1.18911
1.10276
1.04348
1.05345
1.04147
1.05272
1.05051
1.06866
1.10262
1.11027
1.09461
1.04352
1.01181
0.960112
0.995187
0.954756
0.934743
0.958877
0.951782
0.952966
0.987162
0.959216
1.01945
1.14202
1.07058
1.08717
1.16234
1.1702
1.18943
1.21721
1.22324
1.20546
1.19018
1.18967
1.18527
1.1776
1.17098
1.16833
1.17575
1.18693
1.20051
1.21101
1.20805
1.20101
1.19636
1.19466
1.1988
1.20432
1.20727
1.20522
1.19805
1.1915
1.19078
1.19275
1.19267
1.19117
1.18887
1.1856
1.18097
1.17552
1.17003
1.16609
1.16433
1.16358
1.16354
1.16415
1.16411
1.16291
1.16265
1.16637
1.17172
1.17281
1.16832
1.16083
1.15298
1.14588
1.14
1.13379
1.1299
1.12047
1.11998
1.11491
1.11323
1.11202
1.10678
1.10934
1.10247
1.09897
1.09665
1.09038
1.0905
1.08294
1.08495
1.08532
1.07984
1.08152
1.06567
1.07074
1.08325
1.05935
1.03526
1.04227
1.04526
1.03365
1.02827
1.04066
1.06277
1.08619
1.0872
1.06258
1.03506
1.01991
1.04576
1.0896
1.11423
1.12074
1.09839
1.07924
1.07393
1.05465
1.03032
1.01758
1.01429
1.01238
1.01088
1.00005
0.998276
1.0077
1.02224
1.02375
1.01764
1.02492
1.02633
1.02748
1.01644
0.997221
0.995756
1.03243
1.03284
1.02315
1.04252
1.05363
1.02797
0.972861
0.978319
1.02582
1.0646
1.09546
1.0975
1.10956
1.10325
1.09994
1.12085
1.10005
1.05459
1.07135
1.10076
1.05269
1.03007
1.05808
1.05018
1.03104
1.05618
1.0557
1.03929
1.04962
1.03712
1.01846
1.05188
1.08554
1.0892
1.10072
1.14607
1.14714
1.08751
1.05574
1.13593
1.23381
1.24332
1.21698
1.16681
1.06804
1.04171
1.04885
1.05732
1.07878
1.0962
1.11935
1.15537
1.13865
1.1231
1.07069
1.04579
0.983184
0.991536
0.959677
0.948714
0.95428
0.951777
0.958769
1.00836
0.999594
1.00151
1.11885
1.0552
1.09201
1.16127
1.1658
1.17719
1.19935
1.22194
1.22387
1.20442
1.18579
1.17796
1.17911
1.18184
1.17951
1.17953
1.18228
1.18281
1.19189
1.20468
1.2106
1.2108
1.20659
1.20116
1.19734
1.19758
1.19947
1.19802
1.19215
1.18754
1.18687
1.1866
1.18474
1.18125
1.17759
1.17676
1.17912
1.18079
1.17881
1.17299
1.16581
1.1606
1.15901
1.16122
1.16532
1.16532
1.15931
1.1571
1.165
1.17478
1.17544
1.16945
1.15843
1.15125
1.14048
1.13335
1.12527
1.11867
1.11658
1.11357
1.11535
1.10991
1.10996
1.10761
1.1023
1.10193
1.09205
1.09401
1.08892
1.07672
1.07896
1.07613
1.08525
1.06954
1.0588
1.07568
1.07088
1.04492
1.04445
1.04595
1.03294
1.02619
1.03838
1.0634
1.089
1.09969
1.08991
1.05928
1.02856
1.04599
1.09273
1.11711
1.12253
1.10114
1.08224
1.07571
1.05081
1.02489
1.02133
1.01724
1.01797
1.01574
1.00451
0.999777
1.00806
1.01337
1.00804
1.01338
1.02213
1.02926
1.04901
1.04296
1.01609
0.984972
1.01265
1.02855
1.01677
1.0279
1.04867
1.0187
0.972781
0.966958
1.0248
1.08031
1.11427
1.11343
1.11336
1.1096
1.09854
1.10445
1.09276
1.06667
1.08553
1.09646
1.04081
1.0139
1.04829
1.04654
1.01365
1.0317
1.04022
1.02601
1.04643
1.04234
1.01497
1.03963
1.07433
1.07396
1.08065
1.13469
1.14571
1.08469
1.04336
1.11351
1.21853
1.23611
1.21063
1.14826
1.04077
1.04074
1.04931
1.06255
1.09672
1.13092
1.16226
1.19024
1.17336
1.15501
1.08944
1.05583
0.996256
0.988139
0.961855
0.958002
0.952631
0.943927
0.971222
1.02124
1.02611
1.0037
1.10845
1.05624
1.0774
1.16135
1.16602
1.17494
1.18428
1.20068
1.21829
1.22727
1.22161
1.19984
1.1762
1.16816
1.17549
1.18174
1.18744
1.19063
1.19734
1.20395
1.20232
1.19724
1.19457
1.19463
1.1978
1.20354
1.21027
1.21385
1.21237
1.20818
1.20374
1.20061
1.19912
1.19776
1.19334
1.18914
1.18898
1.19042
1.18968
1.18614
1.18283
1.18073
1.17872
1.17521
1.17227
1.17375
1.17332
1.16678
1.16168
1.16496
1.17074
1.17745
1.17648
1.16922
1.15772
1.14201
1.13382
1.12496
1.12119
1.11411
1.11178
1.11027
1.10579
1.10577
1.10103
1.10439
1.09528
1.0903
1.09319
1.08539
1.08544
1.0763
1.08009
1.07254
1.05671
1.07068
1.07545
1.04547
1.04225
1.0462
1.03657
1.02805
1.03852
1.0616
1.08676
1.10356
1.10742
1.08962
1.05062
1.05224
1.09486
1.11847
1.12138
1.10594
1.08624
1.07283
1.04216
1.02102
1.01903
1.01552
1.01427
1.02184
1.01497
1.00969
1.01593
1.01648
1.00995
1.02268
1.01982
1.01591
1.03863
1.05251
1.03773
1.00576
1.00927
1.03876
1.03643
1.03231
1.0608
1.05071
0.988735
0.980137
1.02428
1.09025
1.1231
1.10764
1.10137
1.10797
1.10498
1.10579
1.09629
1.07235
1.0732
1.06491
1.02749
1.02327
1.0642
1.04873
1.00665
1.02115
1.03892
1.01918
1.03789
1.04618
1.01962
1.03244
1.06322
1.05948
1.05705
1.11701
1.14254
1.08515
1.03545
1.09327
1.20201
1.22979
1.20688
1.13859
1.02771
1.03439
1.04867
1.05853
1.10191
1.13183
1.17664
1.21344
1.20651
1.17572
1.10882
1.09108
1.02052
0.990431
0.972296
0.962302
0.945165
0.945909
0.988252
1.02885
1.03383
1.01001
1.08261
1.04548
1.05883
1.16265
1.17051
1.18135
1.18268
1.18136
1.18851
1.19881
1.21209
1.22466
1.22601
1.20033
1.17163
1.16065
1.17035
1.18737
1.2033
1.2156
1.22092
1.2164
1.20698
1.19795
1.19201
1.19003
1.19271
1.19583
1.19887
1.19972
1.19865
1.19786
1.19863
1.19774
1.19191
1.18677
1.1857
1.18404
1.17816
1.17291
1.17273
1.17193
1.16821
1.16719
1.16891
1.17425
1.17931
1.17653
1.1665
1.15982
1.15997
1.16442
1.17264
1.16781
1.16164
1.1488
1.13889
1.12694
1.11863
1.11741
1.1115
1.11143
1.10725
1.10768
1.10155
1.09919
1.0986
1.09162
1.08802
1.07741
1.08134
1.07889
1.07859
1.07961
1.05843
1.06414
1.07906
1.05277
1.04109
1.04505
1.03784
1.02785
1.03842
1.06159
1.08857
1.10663
1.11631
1.11517
1.07679
1.06422
1.09497
1.12123
1.11836
1.1092
1.09766
1.07806
1.03991
1.0173
1.01786
1.00866
1.00671
1.01805
1.01962
1.01629
1.01708
1.0179
1.01078
1.02996
1.02242
1.01279
1.021
1.0487
1.06037
1.0313
1.00518
1.02534
1.03041
1.02563
1.04745
1.05177
0.991204
0.975642
1.03141
1.10376
1.13249
1.08635
1.0812
1.10164
1.11261
1.10719
1.09125
1.06937
1.05942
1.04434
1.02799
1.04558
1.06659
1.02674
0.9998
1.02941
1.04874
1.01523
1.0304
1.04721
1.02619
1.03263
1.06015
1.05547
1.03993
1.09631
1.13718
1.08875
1.03111
1.07425
1.18604
1.22428
1.20593
1.13888
1.03397
1.03214
1.05007
1.05835
1.0942
1.12141
1.16218
1.20863
1.22005
1.20112
1.11825
1.08939
1.03707
0.989803
0.980605
0.96747
0.940277
0.955141
1.00581
1.04511
1.057
1.02861
1.06661
1.03981
1.08673
1.16459
1.17531
1.18246
1.17438
1.16694
1.16672
1.16971
1.17634
1.18468
1.20227
1.22258
1.22207
1.19543
1.17235
1.16789
1.17326
1.182
1.1925
1.20241
1.20961
1.21203
1.21141
1.20932
1.20679
1.20398
1.2022
1.20165
1.20037
1.19878
1.19903
1.19837
1.19592
1.19077
1.18653
1.18677
1.1838
1.17958
1.18091
1.18304
1.18075
1.17319
1.16725
1.16892
1.17511
1.17315
1.16812
1.16421
1.16924
1.17138
1.17284
1.17058
1.16332
1.15403
1.14009
1.13285
1.12278
1.12196
1.11754
1.11686
1.11184
1.10635
1.10698
1.10148
1.09952
1.09333
1.09468
1.08781
1.07966
1.08104
1.07117
1.08016
1.06438
1.05605
1.0764
1.06281
1.04112
1.04528
1.0378
1.0314
1.03834
1.06368
1.09164
1.11003
1.1212
1.13218
1.10052
1.08108
1.09689
1.12384
1.11859
1.1057
1.10478
1.08999
1.04893
1.02623
1.02604
1.014
1.00545
1.01167
1.01585
1.01656
1.01861
1.01373
0.998351
1.01963
1.02357
1.02565
1.02047
1.0334
1.05971
1.05444
1.01155
1.02706
1.04427
1.03451
1.05716
1.06101
1.01112
0.972662
1.02535
1.11132
1.12652
1.06722
1.08345
1.1219
1.13662
1.1241
1.10215
1.07554
1.05467
1.0399
1.03341
1.04063
1.03165
1.00577
1.01804
1.05713
1.04972
0.999777
1.01323
1.03774
1.02295
1.02706
1.05798
1.05676
1.02908
1.07572
1.12844
1.09349
1.03004
1.05789
1.16842
1.21732
1.20759
1.14109
1.05236
1.03845
1.05454
1.06519
1.09303
1.1038
1.13029
1.19469
1.21953
1.20919
1.13758
1.10363
1.06606
0.990051
0.983145
0.969824
0.941995
0.966323
1.0374
1.07256
1.08069
1.05553
1.06898
1.04581
1.1237
1.16486
1.1705
1.16535
1.16009
1.15998
1.16078
1.16036
1.16179
1.16282
1.16607
1.18303
1.20704
1.216
1.2056
1.19105
1.18229
1.181
1.18571
1.19373
1.20132
1.20717
1.21076
1.21234
1.21238
1.21078
1.21006
1.20955
1.208
1.20706
1.20353
1.20013
1.20008
1.19484
1.18996
1.19166
1.18706
1.18128
1.18088
1.17748
1.17275
1.16623
1.16707
1.17384
1.17519
1.16474
1.15896
1.16686
1.17222
1.17495
1.17054
1.1676
1.15676
1.14711
1.13309
1.12661
1.11981
1.11949
1.11769
1.11024
1.11033
1.10604
1.10602
1.10152
1.10097
1.09876
1.08884
1.09347
1.08328
1.08735
1.07669
1.07402
1.07367
1.05479
1.06727
1.06966
1.04118
1.04535
1.04081
1.03575
1.03678
1.06575
1.09471
1.11627
1.12836
1.14101
1.11866
1.09746
1.101
1.12416
1.12446
1.10507
1.10558
1.0966
1.05558
1.03146
1.03599
1.02618
1.01336
1.01214
1.01164
1.01472
1.01905
1.01256
0.999676
1.00832
1.0146
1.03645
1.03166
1.02231
1.04939
1.07267
1.04927
1.02835
1.04552
1.03242
1.05025
1.07372
1.02541
0.98671
1.03263
1.12143
1.09638
1.06459
1.09409
1.15509
1.18066
1.16274
1.12022
1.07635
1.0511
1.03818
1.02511
1.01564
1.00444
1.00698
1.03049
1.03732
1.01264
0.979683
0.999444
1.03687
1.02557
1.01977
1.05117
1.05806
1.02277
1.05637
1.11846
1.09927
1.03233
1.04426
1.1485
1.21085
1.2118
1.14595
1.07469
1.05295
1.06706
1.07531
1.09935
1.09821
1.1055
1.15928
1.21451
1.22461
1.14241
1.09306
1.08675
0.992454
0.988116
0.975039
0.944265
0.967364
1.05944
1.08863
1.07115
1.0722
1.07277
1.05353
1.11446
1.16057
1.15889
1.16146
1.16615
1.16771
1.17088
1.1713
1.16987
1.16872
1.16408
1.16648
1.18275
1.20064
1.20893
1.20886
1.20351
1.19731
1.19398
1.19192
1.19098
1.19038
1.18946
1.19046
1.19134
1.1929
1.19492
1.19509
1.19688
1.19857
1.19435
1.19316
1.19302
1.18713
1.18708
1.18743
1.18078
1.17893
1.17857
1.17295
1.17227
1.17302
1.17062
1.16863
1.15868
1.15527
1.1575
1.16792
1.17859
1.18214
1.1741
1.16016
1.14345
1.13026
1.12266
1.12013
1.12455
1.11846
1.12036
1.11598
1.11695
1.11209
1.11224
1.11102
1.10003
1.10226
1.09475