/*--------------------------------*- C++ -*----------------------------------*\
| =========                 |                                                 |
| \\      /  F ield         | OpenFOAM: The Open Source CFD Toolbox           |
|  \\    /   O peration     | Version:  dev                                   |
|   \\  /    A nd           | Web:      http://www.openfoam.org               |
|    \\/     M anipulation  |                                                 |
\*---------------------------------------------------------------------------*/
FoamFile
{
    version     2.0;
    format      ascii;
    class       volScalarField;
    object      T;
    location    "9.133";
}
// * * * * * * * * * * * * * * * * * * * * * * * * * * * * * * * * * * * * * //

dimensions      [0 0 0 1 0 0 0];

internalField   nonuniform List<scalar> 
12225
(
299.845
298.47
298.641
299.051
299.205
299.567
299.776
300.031
300.248
300.351
300.578
300.474
300.727
300.408
300.314
299.615
299.792
298.266
298.655
296.518
296.924
296.924
297.415
297.324
297.921
297.86
298.56
298.387
299.211
298.868
299.629
299.244
299.486
297.938
299.781
299.25
298.659
296.288
296.801
296.516
297.006
296.753
297.305
297.137
297.786
297.585
298.21
298.103
298.668
298.462
299.416
298.86
299.334
298.791
298.837
296.368
296.439
296.552
296.59
296.883
296.849
297.233
297.383
297.653
297.766
298.039
298.124
298.422
298.245
299.343
298.844
298.335
298.499
296.954
296.331
296.927
296.368
297.147
296.633
297.337
297.171
297.807
297.593
298.169
297.917
298.44
298.259
299.115
298.123
298.813
298.068
296.986
296.287
296.943
296.094
297.086
296.453
297.202
297.113
297.621
297.48
298.048
297.857
298.274
298.178
298.682
298.485
299.18
297.881
296.993
296.242
296.622
296.092
296.971
296.442
297.19
297.019
297.44
297.168
298.081
297.505
298.261
297.966
298.771
298.52
299.239
297.65
297.028
295.907
296.634
296.115
296.87
296.304
297.113
297.037
297.358
297.07
298.02
297.541
298.276
298.022
298.469
298.686
299.057
297.794
296.886
295.74
296.53
296.27
296.666
296.067
296.951
297.024
297.273
297.184
297.816
297.887
298.278
298.358
298.477
298.802
299.121
297.612
296.577
295.632
296.492
296.228
296.604
296.084
296.794
296.979
297.296
297.228
297.689
298
298.243
298.279
298.655
298.836
299.065
297.489
296.332
295.618
296.378
296.009
296.435
296.127
296.639
296.769
297.25
297.251
297.43
297.706
298.191
298.176
298.424
298.764
298.956
297.225
296.128
295.479
296.111
295.738
296.105
295.977
296.373
296.546
297.078
297.098
297.288
297.425
297.951
298.211
298.306
298.403
298.701
297.167
295.713
295.264
295.74
295.56
295.867
295.921
296.24
296.49
296.861
297.031
297.239
297.399
297.869
298.224
298.431
298.475
298.815
296.943
295.156
295.098
295.338
295.363
295.578
295.804
296.056
296.376
296.627
296.944
297.19
297.445
297.842
298.163
298.532
298.72
299.103
296.536
294.586
294.768
294.918
295.057
295.243
295.544
295.761
296.096
296.379
296.736
297.017
297.393
297.772
298.164
298.577
298.815
299.27
296.005
294.036
294.299
294.397
294.515
294.671
294.98
295.205
295.623
295.975
296.412
296.736
297.253
297.585
298.011
298.44
298.767
299.241
295.325
293.199
293.434
293.605
293.761
293.965
294.317
294.561
295.024
295.358
295.851
296.178
296.752
297.055
297.609
298.011
298.476
298.96
294.597
292.191
292.349
292.588
292.833
293.081
293.43
293.685
294.119
294.436
294.917
295.25
295.847
296.188
296.808
297.185
297.727
298.169
293.578
291.195
291.423
291.663
291.897
292.063
292.374
292.693
293.073
293.461
293.915
294.319
294.823
295.264
295.761
296.203
296.708
297.112
292.969
290.564
290.711
290.875
291.018
291.229
291.525
291.888
292.216
292.632
293.006
293.45
293.837
294.329
294.719
295.211
295.598
296.04
292.409
289.851
289.994
290.136
290.25
290.548
290.8
291.102
291.426
291.795
292.167
292.611
293.009
293.45
293.878
294.293
294.697
295.09
291.927
289.302
289.471
289.575
289.73
289.889
290.135
290.399
290.726
291.076
291.467
291.872
292.275
292.685
293.09
293.498
293.875
294.233
291.579
288.923
288.973
289.091
289.182
289.37
289.642
289.959
290.255
290.624
290.96
291.322
291.694
292.049
292.434
292.81
293.166
293.533
291.179
288.536
288.659
288.737
288.819
289.011
289.245
289.51
289.848
290.168
290.517
290.876
291.219
291.582
291.939
292.29
292.646
292.981
291.276
288.393
288.413
288.497
288.617
288.796
289.028
289.315
289.605
289.929
290.271
290.607
290.965
291.312
291.66
292.002
292.347
292.668
291.008
288.23
288.272
288.312
288.381
288.552
288.791
289.08
289.397
289.732
290.077
290.424
290.769
291.113
291.441
291.779
292.089
292.404
290.884
288.047
288.114
288.212
288.317
288.492
288.702
288.96
289.236
289.554
289.877
290.226
290.556
290.898
291.212
291.521
291.81
292.078
290.862
287.979
288.061
288.154
288.257
288.44
288.668
288.937
289.211
289.512
289.803
290.117
290.4
290.703
290.957
291.242
291.474
291.718
290.926
287.955
288.047
288.197
288.364
288.585
288.839
289.119
289.415
289.729
290.046
290.378
290.711
291.056
291.399
291.778
292.118
292.549
291.879
289.369
289.601
289.857
290.107
290.39
290.713
291.057
291.414
291.778
292.147
292.518
292.889
293.26
293.636
294.006
294.392
294.764
293.769
286.084
282.089
280.33
279.76
279.708
279.861
280.036
280.298
280.648
281.076
281.542
282.165
282.833
283.336
283.922
284.577
285.298
286.323
287.329
288.092
289.191
291.02
293.268
295.64
297.302
297.743
297.747
297.794
297.77
297.735
297.693
297.652
297.625
297.613
297.618
297.635
297.661
297.687
297.703
297.709
297.691
297.649
297.587
297.505
297.404
297.283
297.145
296.997
296.837
296.655
296.472
296.301
296.152
296.042
295.946
295.821
295.633
295.358
295.021
294.665
294.315
293.971
293.641
293.321
293.002
292.648
292.218
291.656
290.986
290.265
289.564
288.899
288.21
287.45
286.563
285.576
284.485
283.326
282.198
281.287
280.349
278.796
276.766
274.911
273.443
272.074
270.552
269.016
268.063
268.235
268.116
266.611
263.719
262.892
264.498
266.433
270.137
274.443
273.002
267.835
268.248
270.83
270.16
268.04
267.346
267.126
265.734
264.326
263.714
264.602
266.776
268.886
268.904
266.457
263.584
270.055
266.584
266.577
266.585
266.415
266.533
266.919
267.44
267.964
268.507
268.779
269.013
269.434
269.93
270.352
270.765
271.245
271.404
271.661
271.787
271.642
271.196
270.567
269.784
268.906
268.147
267.497
266.798
266.101
264.976
263.893
262.997
261.379
259.668
256.815
253.169
251.18
250.479
253.005
258.28
262.684
263.773
265.497
268.698
269.68
271.231
273.14
273.13
268.442
266.871
272.33
270.632
270.742
271.302
271.863
273.001
273.324
274.589
275.273
276.366
277.354
278.276
279.026
280.228
293.677
284.422
279.786
278.464
278.366
278.421
278.239
278.043
278.371
279.139
279.769
280.192
280.646
281.249
281.425
281.221
281.964
283.136
284.601
287.723
291.442
294.196
296.177
296.849
297.086
297.092
297.004
296.826
296.672
296.592
296.43
296.466
296.518
296.578
296.715
296.854
297.023
297.206
297.332
297.421
297.457
297.386
297.301
297.186
297.015
296.805
296.553
296.282
296.002
295.641
295.22
294.899
294.701
294.657
294.824
295.004
294.984
294.587
293.827
292.969
292.171
291.512
291.052
290.771
290.679
290.7
290.772
290.73
290.154
289.095
287.646
286.132
284.886
284.012
283.511
282.891
281.887
280.624
279.348
277.386
274.577
272.991
271.812
269.116
266.701
265.022
264.118
263.301
260.78
257.315
257.045
260.003
258.768
250.884
248.198
253.509
259.232
263.886
266.593
266.211
266.639
268.524
267.813
267.183
267.94
267.221
265.338
262.287
259.936
260.213
263.216
268.135
271.175
270.405
267.421
265.639
281.083
271.111
270.572
270.383
268.516
264.941
262.859
262.323
262.017
262.016
262.037
262.12
261.924
261.402
260.714
260.197
260.241
259.846
259.665
259.803
259.821
259.02
257.717
257.092
256.34
253.955
251.047
248.973
247.907
245.737
243.062
241.565
240.286
238.521
234.342
226.75
220.102
219.837
227.366
240.526
250.422
255.273
261.487
267.031
270.947
276.248
281.47
277.44
262.528
264.533
274.983
267.13
265.327
265.207
263.847
262.291
259.339
258.752
257.753
258.524
259.733
261.765
262.733
265.009
295.177
287.793
283.478
281.642
281.131
280.822
279.897
280.373
282.619
284.884
285.696
286.286
287.161
287.373
287.429
288.485
290.371
292.198
294.7
296.771
297.222
297.376
297.289
296.66
296.37
296.065
295.572
295.302
295.023
294.74
294.555
294.422
294.414
294.688
294.827
295.084
295.422
295.82
296.258
296.74
297.069
297.255
297.277
297.309
297.344
297.214
297.08
297.05
297.043
296.889
296.677
296.746
296.983
297.213
297.609
297.612
297.232
296.594
295.661
294.899
294.494
294.274
294.252
294.37
294.385
294.323
294.404
294.565
293.844
292.298
290.09
287.938
286.17
284.624
284.032
283.669
282.365
280.861
279.175
278.219
278.002
273.59
267.908
268.094
272.133
272.863
271.025
269.947
266.624
261.681
259.421
257.375
252.435
250.912
254.459
260.061
263.205
263.064
263.344
265.067
267.791
269.125
267.723
269.372
270.995
270.75
270.819
269.097
267.567
267.727
269.182
272.77
272.308
270.551
272.75
278.892
288.944
283.074
282.11
283.226
282.553
274.563
269.059
267.696
265.789
263.536
263.382
264.372
264.439
263.426
262.458
261.751
261.172
260.872
260.516
260.214
259.671
258.402
257.499
256.306
253.811
250.879
249.418
246.757
242.924
239.624
235.985
232.75
231.752
230.929
226.27
217.96
210.978
216.374
229.613
241.183
249.856
255.559
259.02
262.208
270.432
283.203
292.033
277.102
262.165
278.423
279.797
270.088
269.029
271.197
271.939
270.001
265.517
261.062
256.531
254.655
251.485
251.557
251.904
254.123
296.243
290.119
285.347
283.165
282.27
280.886
280.059
283.426
287.724
288.8
287.891
289.144
291.03
291.869
291.994
293.959
296.215
296.381
296.012
295.6
295.07
294.162
293.205
293.235
292.731
292.493
292.077
291.71
291.319
290.971
290.757
290.449
290.236
290.065
289.954
290.005
290.041
290.185
290.158
290.341
290.702
290.94
291.074
291.11
291.412
291.636
291.584
291.875
292.228
292.509
292.796
293.158
293.531
293.756
294.004
293.832
293.411
293.348
293.583
293.787
294.415
294.978
295.228
295.435
295.025
294.318
293.808
294.097
294.637
294.604
293.578
291.59
289.231
286.438
285.173
286.883
285.985
282.629
281.232
279.562
279.477
278.517
272.047
268.614
270.285
269.754
269.913
271.792
269.607
264.032
259.634
253.922
248.977
251.079
257.547
260.551
258.588
257.502
260.062
263.415
267.886
268.087
266.956
269.476
270.929
272.625
274.306
273.187
271.163
269.522
268.638
271.401
271.599
272.059
274.836
280.241
290.013
292.576
290.016
290.61
293.092
283.758
275.314
275.556
275.56
269.307
265.551
267.567
268.573
266.317
263.941
263.117
262.643
262.676
263.15
263.438
263.607
261.981
259.696
258.109
256.481
252.89
249.373
246.582
243.002
240.09
236.621
231.549
228.994
228.692
223.492
215.03
211.14
221.178
236.495
245.528
252.569
258.857
261.851
261.236
264.723
279.403
290.339
275.184
266.971
281.119
281.261
266.907
266.356
269.974
272.226
272.533
274.517
269.067
259.82
256.898
253.58
250.621
248.612
248.031
296.912
291.636
286.744
283.604
281.524
279.661
281.886
287.171
288.113
288.951
289.466
289.858
293.617
295.452
294.706
294.809
295.17
293.789
293.831
293.136
292.069
292.911
292.753
293
292.467
291.715
291.503
290.594
290.088
289.713
289.299
289.156
289.312
289.138
289.204
289.497
289.573
289.771
289.914
289.921
290.061
290.207
290.185
290.271
290.416
290.578
290.547
290.509
290.499
290.354
290.158
290.012
289.88
289.809
289.697
289.97
290.253
290.307
290.778
290.85
291.161
291.33
291.119
290.902
290.881
290.931
290.507
290.221
291.189
292.628
293.831
294.088
293.467
292.154
289.961
289.917
288.354
283.73
283.127
283.178
281.157
281.036
278.106
277.074
277.005
272.269
270.649
271.924
269.817
261.732
255.278
250.736
251.099
256.573
260.388
259.734
257.867
260.367
263.684
266.83
268.946
267.164
266.259
269.191
270.384
273.111
274.254
273.301
271.042
268.656
267.655
271.052
273.499
276.58
279.415
282.971
291.347
298.779
299.134
296.219
297.54
289.88
280.569
282.695
284.945
277.366
271.797
275.343
277.91
274.661
270.354
267.82
264.866
263.753
265.939
268.403
270.075
269.65
265.858
261.712
259.422
256.903
253.184
249.377
244.586
241.44
239.491
234.955
230.864
229.933
223.497
214.736
213.211
224.63
238.629
242.971
243.63
247.669
248.837
249.192
261.308
282.681
286.993
280.199
281.519
277.855
283.663
267.872
267.207
273.081
274.872
270.96
284.039
277.992
264.229
257.832
257.086
257.365
255.1
249.26
296.972
291.255
285.635
282.058
280.21
281.238
285.187
289.053
290.41
290.194
291.172
292.021
293.56
295.928
296.325
294.484
293.779
292.238
291.03
291.645
291.584
292.158
291.511
290.008
289.293
287.831
286.903
286.305
286.156
285.963
286.008
286.207
286.576
286.838
287.002
287.322
287.401
287.579
288.003
288.331
288.739
289.728
290.748
291.905
293.022
293.765
294.219
294.542
294.622
294.488
294.303
293.932
293.466
292.999
292.327
292.308
292.624
292.669
292.919
292.631
292.634
292.603
292.294
291.159
290.452
290.996
290.994
289.344
289.045
290.444
291.147
291.514
291.916
292.773
292.947
292.528
290.635
286.776
286.396
287.469
283.679
279.289
274.502
274.231
273.098
268.127
268.944
273.514
271.344
260.347
253.601
251.813
255.169
260.604
260.634
258.358
259.066
262.49
263.097
264.292
264.865
263.468
264.774
268.052
268.752
271.215
271.035
271.87
273.539
273.334
273.604
275.625
276.071
277.171
279.789
287.896
290
297.197
302.089
298.379
294.85
291.871
284.892
286.287
285.89
278.598
272.976
277.408
280.719
277.04
273.593
273.762
269.4
263.803
264.525
269.123
273.563
276.669
274.158
268.391
263.183
259.43
256.711
254.098
248.46
243.702
242.011
239.248
235.441
233.901
225.704
216.031
215.404
226.02
235.754
235.709
233.028
236.432
236.651
240.054
249.562
264.951
272.869
277.077
286.301
283.253
281.337
272.624
269.075
278.831
285.6
270.515
293.882
292.552
275.084
258.921
257.126
267.845
272.363
261.723
296.92
290.824
284.335
281.066
280.518
282.364
288.264
292.037
291.54
295.944
297.072
294.56
294.042
292.603
290.533
289.551
288.931
290.117
290.264
290.818
290.798
289.697
288.724
286.596
285.799
285.755
285.845
286.639
287.262
287.806
288.446
288.648
288.958
289.195
289.285
289.609
289.597
289.517
289.519
289.263
288.837
288.592
288.383
288.616
289.436
290.648
292.063
293.34
294.258
294.884
295.281
295.343
295.258
295.136
294.709
294.619
294.017
294.122
293.84
293.781
293.746
293.765
294.545
295.058
293.85
293.317
294.246
293.03
291.108
291.108
289.722
287.51
287.142
289.04
292.097
292.988
291.574
289.461
288.025
287.018
283.754
279.273
275.701
280.425
281.707
275.452
274.716
277.052
270.797
258.268
254.2
255.218
258.583
262.397
260.612
258.934
260.089
259.926
259.34
262.73
264.751
264.892
266.955
268.144
267.693
270.385
269.195
269.791
273.011
274.308
275.1
274.935
274.316
273.215
275.555
281.173
290.786
299.314
299.688
297.17
286.552
286.961
289.377
288.102
280.822
276.785
273.911
277.652
278.548
274.391
272.848
277.322
276.679
269.321
267.391
270.682
274.837
280.105
280.28
275.842
270.154
264.047
259.822
258.256
253.613
247.779
244.745
243.757
242.139
239.923
228.531
217.459
217.455
226.327
231.301
229.568
229.948
234.207
234.416
236.543
242.691
261.189
270.24
267.542
276.974
286.115
280.164
280.643
275.41
281.797
300.527
273.183
293.053
304.359
296.742
266.516
256.711
275.152
287.292
277.82
297.147
291.437
284.829
282.227
282.975
284.946
288.904
294.41
292.751
291.566
295.092
294.929
294.005
294.345
292.436
291.296
289.706
289.173
289.307
288.938
288.798
287.251
286.002
285.95
286.418
287.556
288.355
289.281
289.668
289.798
289.829
289.241
288.932
288.699
288.516
288.655
288.877
289.566
290.438
291.039
291.611
291.875
291.603
291.021
290.386
290.128
290.398
291.223
292.26
293.285
294.201
294.531
294.493
294.661
294.195
293.991
292.878
292.688
292.03
291.582
292.142
292.366
292.003
293.537
294.736
293.149
292.801
293.589
294.049
295.364
292.244
286.204
285.317
289.749
294.508
294.713
292.247
289.924
287.729
285.629
284.173
281.931
280.3
284.437
282.27
275.212
276.434
276.675
268.059
257.117
256.332
259.674
261.089
262.711
259.769
258.448
260.044
259.324
261.366
266.732
268.868
269.453
271.189
271.569
273.37
276.284
274.623
273.162
273.371
274.17
276.052
276.76
277.051
274.297
274.373
277.365
289.025
303.436
299.818
297.093
284.714
280.549
287.096
280.548
267.424
268.981
274.368
276.531
273.77
270.908
271.678
275.474
277.696
273.955
272.836
274.105
275.767
281.034
283.136
280.253
276.317
269.521
262.882
260.861
257.798
251.982
247.225
247.389
248.965
247.492
233.062
219.86
219.694
226.364
227.982
229.013
236.354
240.26
243.681
247.897
255.633
273.689
265.699
267.846
272.424
282.012
279.941
284.391
278.07
278.488
306.275
281.391
290.671
298.252
312.509
283.148
259.81
269.878
283.824
282.351
297.324
291.822
284.966
283.634
286.389
287.162
287.982
291.327
295.203
294.38
293.059
293.045
292.233
291.398
288.982
287.483
288.176
288.87
289.614
289.376
288.364
287.481
286.696
286.752
287.404
288.109
288.085
288.337
288.555
288.626
288.544
287.867
287.412
286.823
286.045
285.632
285.288
285.16
285.528
286.199
287.412
289
290.855
292.34
292.941
292.898
292.622
292.633
293.151
293.904
294.669
295.095
295.35
295.674
295.926
295.257
295.175
293.833
293.812
293.409
293.198
294.657
294.936
294.036
295.24
295.369
293.589
292.232
291.66
295.234
295.412
289.621
289.396
294.551
295.856
292.772
290.499
289.553
287.801
285.327
283.097
282.155
282.783
281.151
274.372
272.718
277.064
273.91
264.209
256.363
258.714
263.425
263.397
263.354
262.897
265.852
268.433
268.837
271.439
274.31
275.175
277.046
279.744
279.085
281.832
282.478
280.627
276.942
273.964
272.504
273.483
276.816
278.867
277.07
272.052
278.179
286.792
298.923
297.699
291.428
285.833
278.202
279.322
274.528
265.407
266.484
276.382
275.614
271.965
269.751
270.755
271.454
272.925
273.295
275.019
275.238
273.888
277.935
281.869
281.696
281.34
275.849
266.762
262.571
260.6
255.947
249.463
249.854
255.033
255.37
238.24
222.722
221.794
226.758
227.354
234.13
248.715
249.872
256.61
257.69
264.74
278.772
258.828
255.512
264.188
275.898
280.23
289.234
280.161
280.526
299.084
290.998
300.833
293.321
310.424
302.541
268.825
260.035
274.107
278.336
297.778
293.269
286.202
283.172
286.463
288.971
289.651
291.669
293.519
295.482
295.349
293.878
291.927
289.732
287.553
285.504
285.136
286.064
287.392
287.574
286.468
285.103
284.19
284.025
283.963
284.124
284.437
285.013
285.547
286.329
287.286
287.639
287.904
288.174
288.048
287.642
287.14
286.619
286.11
285.68
285.417
285.347
285.893
287.252
289.316
291.629
293.549
294.487
294.518
294.27
294.101
293.972
294.526
294.384
295.354
294.681
295.189
295.066
294.198
294.961
294.632
294.103
295.939
296.284
295.798
296.809
297.018
296.168
291.838
292.186
295.513
292.505
290.991
295.2
295.611
291.999
291.862
295.101
294.943
291.897
286.039
281.96
284.125
283.799
277.398
277.093
277.342
270.297
261.417
256
260.349
265.216
264.143
264.315
267.108
272.175
275.432
275.238
276.277
277.586
279.039
281.566
283.836
282.809
284.479
282.899
283.046
281.356
281.51
280.652
275.112
276.879
279.534
279.411
273.941
274.97
288.77
299.792
297.43
285.559
278.781
272.631
270.379
270.048
270.465
268.865
270.38
266.529
270.858
270.704
268.093
267.894
268.434
269.532
273.36
274.374
271.22
274.568
278.981
279.274
282.119
280.793
271.106
264.329
262.366
258.763
250.922
251.093
259.558
262.405
243.608
225.578
223.928
227.477
229.623
241.86
258.99
257.095
263.228
261.769
268.245
259.948
255.465
253.294
256.472
267.35
275.134
288.21
279.6
290.424
298.184
293.648
304.085
298.266
299.822
310.094
279.97
256.031
272.742
276.044
298.285
294.971
288.538
283.675
285.658
290.028
290.543
291.925
293.941
294.806
294.654
293.425
292.065
290.713
289.159
288.138
287.901
287.706
288.084
287.6
285.991
284.591
283.773
284.223
285.23
285.594
285.448
285.759
286.366
286.814
287.14
287.047
286.701
286.419
286.23
286.065
285.987
286.016
286.056
286.203
286.411
286.292
285.76
285.301
285.392
286.209
287.666
289.568
291.22
292.348
293.346
293.889
295.124
295.559
295.517
296.217
294.888
295.492
294.837
294.004
295.415
294.642
294.74
295.712
295.056
295.424
295.01
296.549
295.246
294.014
296.572
293.16
289.049
293.168
297.568
296.11
294.953
295.946
294.92
291.113
284.231
277.306
278.071
283.209
283.817
283.778
277.71
267.311
259.624
255.744
260.482
265.564
264.991
266.495
271.425
275.895
276.961
276.596
276.372
277.633
278.987
279.507
277.35
275.174
276.626
276.689
280.005
281.59
285.348
288.366
280.639
276.572
280.165
283.493
277.806
274.558
284.35
301.302
298.159
287.023
276.278
269.642
267.408
264.329
267.835
267.125
259.857
259.881
272.857
272.783
265.937
270.501
272.775
269.234
272.312
275.27
270.374
272.632
277.988
277.784
281.506
284.277
275.183
266.811
264.87
261.86
252.516
251.559
262.424
268.517
248.856
228.486
225.812
228.659
233.894
250.508
263.833
260.113
262.144
258.446
258.28
253.03
244.873
243.703
248.122
261.357
270.843
286.884
279.159
293.423
301.108
296.108
299.97
302.232
292.76
303.369
290.187
260.231
279.324
276.656
298.808
296.742
291.845
285.144
283.84
288.084
291.581
291.496
292.411
294.229
295.829
296.369
294.38
291.45
287.871
285.076
285.546
287.048
288.013
288.186
286.841
285.094
283.965
284.062
285.42
286.703
286.614
285.83
285.486
285.47
285.627
285.997
286.707
287.664
288.684
289.366
289.5
289.362
289.053
288.571
288.205
288.148
287.991
286.902
285.225
284.387
284.888
286.263
287.861
289.363
290.532
291.85
292.401
294.584
294.491
295.373
295.545
295.256
296.294
295.064
296.069
296.567
296.4
297.474
296.595
297.806
296.69
295.279
295.78
293.824
296.955
295.238
289.917
293.938
299.921
297.058
294.304
295.87
296.266
291.495
283.873
275.853
273.31
277.664
283.912
287.294
279.081
266.386
259.182
256.619
260.873
264.531
265.077
269.396
275.119
277.805
278.178
278.377
278.738
281.706
281.911
279.025
275.434
275.762
277.515
275.771
275.64
275.563
279.257
285.555
287.515
277.75
278.174
281.434
277.063
274.824
282.413
298.452
297.505
283.481
273.119
265.486
265.277
262.558
263.65
264.574
259.546
263.677
274.737
270.755
262.748
274.17
281.371
273.784
274.918
280.969
274.85
274.339
279.212
276.867
279.879
286.302
278.578
269.457
267.945
265.567
254.541
252.075
264.299
273.086
254.036
231.696
227.319
230.333
238.39
258.868
264.681
261.609
258.5
252.486
247.752
242.047
234.418
238.305
242.362
255.311
262.781
280.975
281.336
292.379
297.132
298.465
301.559
300.672
287.823
291.812
295.63
266.481
284.268
276.816
299.22
298.032
295.063
289.435
284.087
283.771
288.432
292.867
294.613
294.048
293.157
293.72
293.604
292.662
292.231
289.877
286.694
284.989
284.554
285.184
286.131
286.794
286.566
285.905
285.945
287.019
287.823
287.63
287.283
287.305
287.752
288.319
288.282
287.436
286.612
286.57
287.474
288.861
289.908
290.129
289.392
288.011
287.401
288.443
289.043
287.142
284.262
283.329
284.057
286.333
287.772
290.126
291.7
293.413
294.961
295.207
295.726
294.757
295.598
295.219
295.055
295.921
295.153
297.142
296.095
296.105
298.783
297.464
297.431
293.568
296.004
298.69
293.025
291.735
297.553
296.959
294.857
296.819
297.637
293.077
284.771
276.342
271.632
271.948
278.13
285.552
280.093
266.869
259.752
257.449
261.503
265.15
266.069
271.879
277.995
278.256
278.946
278.442
278.941
281.938
283.024
280.728
279.815
281.643
280.04
278.28
276.813
271.891
273.992
281.926
291.547
284.716
280.66
284.448
282.468
277.221
285.671
299.769
302.211
285.569
270.534
262.429
263
263.236
263.637
266.01
264.488
266.606
272.767
268.365
264.937
278.231
286.398
277.189
276.494
286.105
282.14
279.278
283.713
278.721
278.982
287.309
282.058
272.504
271.799
270.728
257.5
252.629
264.932
276.142
259.236
234.871
228.856
231.669
242.385
266.066
265.286
261.956
257.622
248.773
240.655
233.752
228.298
231.788
236.406
251.801
260.939
278.105
283.123
292.416
295.53
300.21
304.92
297.448
285.436
285.964
295.522
270.083
285.032
281.909
299.385
298.23
295.944
293.368
289.109
284.905
282.956
284.329
289.491
295.339
297.134
294.845
292.888
291.376
290.714
289.071
287.176
287.165
288.032
288.397
288.139
287.158
285.536
283.635
282.413
282.409
283.06
283.769
284.205
284.264
284.192
284.792
285.496
285.302
284.589
284.274
284.693
285.188
285.389
285.487
285.953
286.475
285.882
285.424
286.505
287.696
286.91
285.309
283.186
282.645
283.729
285.892
289.519
291.431
293.49
294.17
295.618
296.017
295.829
296.576
295.984
296.755
295.142
296.481
297.483
295.834
296.962
295.944
297.485
295.577
295.824
299.539
295.118
291.402
298.044
298.394
295.754
296.693
297.968
293.936
286.235
278
272.011
269.174
271.61
280.504
279.495
267.626
260.731
259.039
261.734
265.645
268.332
275.68
280.624
280.556
281.191
281.176
278.881
280.678
281.968
280.391
280.636
282.577
279.144
280.824
282.404
276.851
273.399
277.346
286.42
287.116
279.598
280.667
282.704
275.705
278.207
296.449
299.634
286.984
269.473
261.832
266.382
267.892
265.571
265.546
265.156
266.986
272.598
272.587
274.135
283.372
284.778
273.807
276.704
288.717
285.777
280.302
286.097
281.883
278.828
286.263
284.149
275.617
275.622
277.026
262.148
253.807
264.95
278.134
264.169
238.45
230.362
232.628
244.754
270.052
267.398
262.664
259.21
248.273
241.235
231.794
224.785
226.267
232.991
248.179
253.53
272.436
283.525
290.151
295.462
303.832
304.727
293.165
284.205
284.927
294.272
277.666
289.328
287.344
299.275
297.349
294.566
293.974
293.997
292
289.372
286.249
283.484
283.254
289.31
296.293
298.864
296.087
291.615
287.485
284.27
282.789
283.642
285.691
287.666
288.876
289.114
288.14
287.009
285.923
285.36
285.288
285.207
284.72
284.435
285.364
286.36
286.355
286.28
287.223
288.304
288.167
287.932
288.478
288.546
287.995
286.497
284.716
284.566
286.488
288.085
288.066
286.924
284.34
284.723
285.607
288.269
290.426
293.121
295.25
295.194
296.345
295.927
296.532
295.876
296.747
297.006
296.294
297.342
297.433
299.632
297.962
297.416
296.719
294.699
299.35
297.661
291.594
296.646
299.391
297.029
297.395
299.027
295.054
287.314
278.63
272.464
268.509
266.89
274.964
277.526
268.941
261.483
261.153
262.402
264.396
268.647
277.921
283.317
282.638
284.939
285.121
281.784
281.327
282.213
282.113
282.267
284.498
279.421
281.995
284.773
283.273
276.403
273.446
281.251
290.053
285.195
284.055
286.121
280.865
280.094
297.168
303.292
286.851
267.728
261.39
273.303
274.075
268.141
264.753
265.771
269.357
274.575
277.15
280.743
284.826
280.114
274.169
283.973
292.03
284.406
278.281
287.774
284.819
279.609
285.122
284.472
276.852
276.876
281.704
267.68
255.699
264.411
279.283
269.062
242.132
231.841
233.194
245.099
269.059
268.618
262.965
259.974
250.795
244.383
235.795
226.663
224.738
228.977
247.027
255.212
268.888
284.97
289.09
295.208
306.308
302.641
288.716
280.421
279.615
289.618
282.611
292.079
280.45
298.994
296.249
294.204
296.106
297.915
297.844
296.891
294.959
292.682
288.388
283.902
284.239
290.583
296.073
296.788
294.949
292.402
289.648
287.245
285.509
284.839
284.816
285.06
285.31
285.608
285.708
285.513
285.453
285.535
285.131
284.853
285.01
285.827
286.618
286.286
286.518
287.291
286.832
285.89
285.789
287.119
288.503
288.183
286.268
286.033
286.815
287.743
286.378
285.412
284.605
284.548
285.757
287.463
290.655
292.213
294.6
294.58
295.256
295.016
295.627
296.757
295.965
296.734
296.573
297.54
296.481
297.071
298.742
297.312
299.295
295.761
298.262
300.439
293.677
294.899
300.169
297.967
298.522
299.076
296.25
287.962
279.07
272.853
268.719
264.483
270.526
274.55
269.881
262.372
262.603
264.787
264.244
267.314
277.227
282.642
282.215
285.302
287.434
285.555
284.419
284.216
283.774
285.637
290.145
284.516
283.712
282.915
285.009
282.668
275.977
276.988
288.868
286.152
281.883
285.4
279.968
278.955
292.702
305.372
290.32
267.619
265.153
279.368
274.558
264.145
259.938
262.499
267.666
274.261
279.625
283.275
284.866
282.947
284.982
291.881
288.579
277.914
278.692
293.083
290.744
283.314
286.928
286.793
278.233
276.984
284.81
273.388
258.548
263.851
279.718
273.512
246.342
233.775
233.397
245.136
264.994
267.661
262.592
259.084
251.865
249.17
243.535
230.473
225.853
228.357
243.839
253.102
262.621
286.228
289.725
295.836
306.827
300.781
281.105
274.555
275.706
283.596
282.991
291.525
273.187
299.071
297.432
298.645
300.105
300.153
299.871
299.854
299.278
298.752
297.595
293.154
287.403
285.569
288.236
291.731
293.687
293.72
292.243
289.923
287.723
286.012
284.869
284.246
283.974
284.124
284.094
283.917
284.004
283.909
284.299
284.864
284.531
285.272
286.331
285.631
286.129
287.304
287.157
287.506
288.208
289.634
289.534
287.608
286.387
288.297
289.939
288.059
286.286
284.971
285.514
285.698
287.825
289.794
293.075
294.588
296.075
295.958
295.711
297.281
296.811
297.397
296.838
297.346
297.001
296.538
298.71
296.627
298.455
296.552
298.13
298.347
296.754
301.091
297.292
294.285
300.975
299.158
298.915
299.028
297.937
288.872
279.736
272.723
268.376
264.002
267.76
271.988
270.371
263.894
262.839
266.617
265.751
267.408
277.298
283.151
281.45
283.905
287.269
287.523
287.659
286.834
285.797
288.03
291.555
289.81
288.576
282.374
283.855
287.322
280.707
274.271
280.26
287.956
283.925
287.787
284.188
277.831
290.907
303.333
290.026
267.157
274.249
280.423
273.045
258.152
251.69
255.178
264.904
275.739
282.222
285.419
288.826
291.358
294.359
293.523
286.84
284.667
290.673
300.556
295.883
284.693
286.937
289.524
281.048
277.432
286.879
279.059
261.911
263.289
279.423
277.45
251.333
235.827
233.256
244.761
260.177
264.719
260.335
257.508
251.284
251.267
250.056
238.72
227.899
226.663
243.942
256.74
259.159
287.458
289.979
295.686
307.216
301.972
277.208
272.177
280.752
280.975
282.959
290.48
277.785
300.527
300.912
300.192
298.935
298.383
297.492
297.316
297.537
297.804
298.82
297.871
293.429
289.001
287.263
287.443
288.61
289.854
290.348
290.515
290.479
290.333
290.342
289.91
289.427
288.881
288.142
287.746
287.117
286.313
286.913
287.076
286.651
287.751
287.739
287.104
288.296
288.676
288.317
289.332
289.394
288.853
289.016
288.895
290.907
291.788
291.37
288.743
285.617
283.841
284.878
287.659
291.497
294.804
296.674
297.348
295.637
296.738
295.844
296.469
295.733
296.437
296.019
295.395
297.763
296.609
297.686
297.646
298.034
299.419
297.513
299.696
296.588
298.693
299.707
293.662
298.941
301
299.991
299.607
299.241
291.886
282.093
273.589
268.221
264.365
266.413
270.342
270.034
265.718
263.207
267.838
267.591
268.409
277.852