/*--------------------------------*- C++ -*----------------------------------*\
| =========                 |                                                 |
| \\      /  F ield         | OpenFOAM: The Open Source CFD Toolbox           |
|  \\    /   O peration     | Version:  dev                                   |
|   \\  /    A nd           | Web:      http://www.openfoam.org               |
|    \\/     M anipulation  |                                                 |
\*---------------------------------------------------------------------------*/
FoamFile
{
    version     2.0;
    format      ascii;
    class       volVectorField;
    object      U_0;
    location    "9.133";
}
// * * * * * * * * * * * * * * * * * * * * * * * * * * * * * * * * * * * * * //

dimensions      [0 1 -1 0 0 0 0];

internalField   nonuniform List<vector> 
12225
(
(5.96824 0.568617 0)
(1.78702 0.322213 0)
(-2.05413 0.167339 0)
(-3.51613 0.141278 0)
(-6.62975 0.210922 0)
(-7.46917 0.154249 0)
(-10.4098 0.271329 0)
(-11.2599 0.165382 0)
(-13.8091 0.26287 0)
(-14.6785 0.224826 0)
(-17.3897 0.320022 0)
(-17.7593 0.205166 0)
(-20.7819 0.390743 0)
(-21.6226 0.364036 0)
(-22.705 0.677898 0)
(-23.9 0.445813 0)
(-5.28946 -0.208199 0)
(-30.5192 19.0458 0)
(8.34047 1.33159 0)
(7.55653 1.17427 0)
(2.10862 0.759678 0)
(2.78352 0.551347 0)
(-3.40813 0.608144 0)
(-1.34951 0.421457 0)
(-7.25839 0.696243 0)
(-5.19087 0.478025 0)
(-10.3081 0.725575 0)
(-8.85188 0.649201 0)
(-13.68 0.973102 0)
(-11.9463 0.398674 0)
(-17.6401 1.75169 0)
(-12.9214 -0.0675277 0)
(-21.9316 0.825281 0)
(-23.178 -3.5522 0)
(-12.0449 -6.16954 0)
(-41.9518 9.38723 0)
(7.29351 1.22046 0)
(10.6122 1.47049 0)
(2.89648 1.09963 0)
(7.56694 0.972956 0)
(-1.90268 1.07711 0)
(3.96676 0.748847 0)
(-4.93422 1.19983 0)
(-0.255191 0.747584 0)
(-6.29773 1.40795 0)
(-5.21313 0.930072 0)
(-7.5716 1.63089 0)
(-9.99316 1.44592 0)
(-10.6323 1.6498 0)
(-10.0942 1.30955 0)
(-19.8116 7.21736 0)
(-10.8645 -5.81892 0)
(-29.2597 5.50667 0)
(-46.5881 10.8142 0)
(4.43647 1.27921 0)
(13.2822 1.80418 0)
(1.75481 1.28241 0)
(10.2764 1.19537 0)
(-0.587958 1.54254 0)
(6.36058 0.694345 0)
(-1.65623 1.96029 0)
(1.44863 0.490733 0)
(-2.1784 2.32874 0)
(-3.1673 0.935245 0)
(-3.11744 2.73372 0)
(-8.27393 1.58102 0)
(-4.61901 1.75078 0)
(-11.7697 4.5715 0)
(-6.99842 1.17704 0)
(-17.1999 4.84191 0)
(-24.9642 8.69882 0)
(-22.8899 3.88718 0)
(2.74109 1.67789 0)
(14.1522 1.58136 0)
(3.10669 1.7782 0)
(10.485 1.02646 0)
(1.92426 2.22669 0)
(6.32381 0.412755 0)
(0.79548 2.82164 0)
(2.50603 0.337889 0)
(-1.15254 3.06443 0)
(-1.19421 0.819209 0)
(-1.55738 4.0869 0)
(-5.19266 1.52505 0)
(-3.81207 3.90018 0)
(-7.93146 2.10745 0)
(-6.89806 8.16885 0)
(-9.87855 2.82608 0)
(-20.2025 6.48637 0)
(-12.7484 18.5936 0)
(4.82915 2.09173 0)
(11.5212 0.929418 0)
(4.29862 1.96331 0)
(8.04835 0.839422 0)
(2.13985 2.73384 0)
(5.10779 0.342005 0)
(0.251468 3.36485 0)
(3.1511 0.697756 0)
(-3.11377 3.67648 0)
(0.227935 0.791 0)
(-3.0559 4.32068 0)
(-3.5898 2.58423 0)
(-5.2518 3.52903 0)
(-7.91772 5.44781 0)
(-8.00275 4.36682 0)
(-5.5042 9.05537 0)
(-20.7452 11.7298 0)
(-8.64108 10.1306 0)
(6.69909 2.63713 0)
(9.52684 0.79207 0)
(4.55332 2.54377 0)
(6.17782 1.07759 0)
(1.97534 2.99323 0)
(4.49218 0.824355 0)
(-0.982322 3.45118 0)
(2.70565 1.71386 0)
(-5.93877 4.11341 0)
(1.09878 1.12682 0)
(-9.79631 6.10986 0)
(-0.274316 2.0536 0)
(-12.9652 6.569 0)
(-3.54321 3.95077 0)
(-14.6368 6.21685 0)
(-7.24378 12.9294 0)
(-20.9988 9.11806 0)
(-6.09095 16.0177 0)
(7.73811 2.77184 0)
(8.88883 0.952194 0)
(4.65099 2.82304 0)
(5.72214 1.17517 0)
(2.93406 2.81611 0)
(3.76001 1.16537 0)
(0.050592 3.49313 0)
(0.869461 2.72529 0)
(-3.03117 3.58418 0)
(-1.63349 3.06794 0)
(-9.1986 4.96053 0)
(0.564627 4.27124 0)
(-17.4128 6.61248 0)
(1.81421 5.8041 0)
(-23.6491 7.67694 0)
(-1.34854 12.812 0)
(-13.1728 13.5889 0)
(-9.91474 10.7248 0)
(8.18337 3.21506 0)
(8.35851 1.03022 0)
(5.27504 3.20495 0)
(5.96929 1.02707 0)
(3.54971 3.24053 0)
(3.29248 1.30421 0)
(0.232855 4.15556 0)
(0.00695179 2.63959 0)
(-1.37012 4.47465 0)
(-2.50112 3.6367 0)
(-5.24718 4.56245 0)
(-1.67256 5.75063 0)
(-10.9667 5.85582 0)
(1.35159 7.00552 0)
(-15.5487 9.38482 0)
(-2.52722 6.74006 0)
(-6.54792 14.4218 0)
(-9.68429 14.8223 0)
(8.59532 3.59819 0)
(7.72494 1.26855 0)
(5.94729 3.21948 0)
(5.83827 1.23071 0)
(3.36494 3.28516 0)
(3.39677 2.10772 0)
(0.303357 4.52767 0)
(0.624925 3.14126 0)
(-1.28672 4.62977 0)
(-1.85922 4.30066 0)
(-2.9147 5.24446 0)
(-3.87153 5.77681 0)
(-3.42045 6.76166 0)
(-6.2462 6.68862 0)
(-5.3486 11.4711 0)
(-5.96639 6.34532 0)
(-6.19801 16.9144 0)
(-3.41076 16.5354 0)
(8.98907 3.8811 0)
(7.66126 1.45549 0)
(6.57258 3.3903 0)
(5.24812 1.56128 0)
(3.36351 3.64375 0)
(2.8225 2.32684 0)
(0.880926 4.78092 0)
(1.21577 3.25578 0)
(-1.06485 5.34162 0)
(-0.841084 4.16583 0)
(-2.52876 5.94066 0)
(-2.86801 5.74583 0)
(-3.40505 7.62249 0)
(-4.97479 7.76788 0)
(-3.47073 9.54854 0)
(-4.80609 9.68629 0)
(-5.16789 13.7914 0)
(-3.19161 13.564 0)
(9.02071 4.20535 0)
(7.95421 1.72404 0)
(6.73784 3.48076 0)
(5.31629 2.17592 0)
(3.90252 3.68046 0)
(2.83272 3.04347 0)
(1.75614 4.3805 0)
(0.984962 4.12881 0)
(-0.0699684 5.08676 0)
(-0.622239 5.04513 0)
(-1.82271 6.22688 0)
(-2.20786 6.29941 0)
(-3.12836 8.17278 0)
(-3.14451 7.88599 0)
(-3.57837 10.1903 0)
(-3.67618 9.80977 0)
(-3.43863 12.6331 0)
(-2.59413 13.8038 0)
(9.00138 4.54459 0)
(8.08414 2.22615 0)
(6.73965 3.5619 0)
(5.63781 2.60456 0)
(4.23816 3.91833 0)
(3.35907 3.26823 0)
(2.26169 4.66066 0)
(1.53091 4.3154 0)
(0.674528 5.47266 0)
(-0.10976 5.42109 0)
(-0.88692 6.44678 0)
(-1.55358 6.92236 0)
(-2.0745 8.00055 0)
(-2.29436 8.65787 0)
(-2.56076 9.70064 0)
(-2.47526 10.4564 0)
(-2.13535 11.9382 0)
(-1.09457 12.9907 0)
(8.96561 4.58782 0)
(8.13018 2.47921 0)
(6.95523 3.39521 0)
(5.77542 3.06004 0)
(4.58163 3.86745 0)
(3.6068 3.88239 0)
(2.5756 4.56212 0)
(1.80023 4.84106 0)
(1.01025 5.48444 0)
(0.385176 6.00058 0)
(-0.237453 6.73443 0)
(-0.751842 7.38216 0)
(-1.06088 8.25958 0)
(-1.24232 8.91389 0)
(-1.25086 9.74296 0)
(-1.10755 10.5658 0)
(-0.804962 11.4137 0)
(-0.0833214 12.0777 0)
(8.93807 4.84644 0)
(8.18086 2.93394 0)
(7.01114 3.44003 0)
(5.9244 3.40897 0)
(4.86762 4.02026 0)
(3.97191 4.14764 0)
(3.02816 4.72971 0)
(2.2196 5.08651 0)
(1.56552 5.67613 0)
(0.943991 6.2007 0)
(0.443705 6.82045 0)
(0.0794013 7.45205 0)
(-0.142431 8.14326 0)
(-0.251379 8.81195 0)
(-0.191334 9.49513 0)
(-0.0444161 10.1827 0)
(0.343243 10.7996 0)
(0.877958 11.3951 0)
(9.08299 4.91915 0)
(8.48976 3.12808 0)
(7.44362 3.37693 0)
(6.40808 3.62226 0)
(5.3547 4.03688 0)
(4.41442 4.34794 0)
(3.55578 4.74862 0)
(2.80815 5.2206 0)
(2.19149 5.73967 0)
(1.66647 6.25851 0)
(1.26859 6.85037 0)
(0.992038 7.42132 0)
(0.841424 8.02328 0)
(0.796807 8.59029 0)
(0.885392 9.16382 0)
(1.04198 9.71979 0)
(1.34245 10.2153 0)
(1.74719 10.6822 0)
(9.27479 4.9554 0)
(8.60945 3.20459 0)
(7.58446 3.42644 0)
(6.58712 3.77579 0)
(5.63841 4.13091 0)
(4.77088 4.47763 0)
(4.00422 4.82705 0)
(3.35052 5.20833 0)
(2.76035 5.63333 0)
(2.31624 6.05682 0)
(2.00546 6.53495 0)
(1.7882 6.99416 0)
(1.66464 7.49916 0)
(1.65242 7.97998 0)
(1.72747 8.4664 0)
(1.85978 8.93343 0)
(2.11136 9.35818 0)
(2.43194 9.74984 0)
(9.55437 4.97244 0)
(8.86176 3.13765 0)
(7.85458 3.24971 0)
(6.94674 3.5693 0)
(6.14757 3.91375 0)
(5.40083 4.24533 0)
(4.72397 4.5758 0)
(4.16214 4.8907 0)
(3.633 5.25219 0)
(3.24706 5.62573 0)
(2.94703 6.05102 0)
(2.75751 6.46763 0)
(2.64626 6.92028 0)
(2.63241 7.32485 0)
(2.6564 7.72417 0)
(2.76442 8.07766 0)
(2.92292 8.37883 0)
(3.1942 8.65608 0)
(9.29157 4.74905 0)
(8.89189 3.12357 0)
(8.04077 3.11957 0)
(7.20774 3.31589 0)
(6.48588 3.61592 0)
(5.82529 3.92549 0)
(5.22691 4.24821 0)
(4.73295 4.52287 0)
(4.26547 4.7955 0)
(3.92528 5.08502 0)
(3.66588 5.39653 0)
(3.5027 5.73437 0)
(3.38744 6.09227 0)
(3.38526 6.43362 0)
(3.41147 6.79259 0)
(3.5211 7.11025 0)
(3.65837 7.39328 0)
(3.89659 7.65291 0)
(9.48731 4.30129 0)
(9.00564 2.65633 0)
(8.08755 2.65001 0)
(7.26798 2.87112 0)
(6.60851 3.13824 0)
(6.05698 3.40395 0)
(5.56954 3.676 0)
(5.15396 3.91609 0)
(4.79119 4.16503 0)
(4.4895 4.44397 0)
(4.26313 4.73578 0)
(4.09351 5.04561 0)
(3.99071 5.34517 0)
(3.98388 5.64549 0)
(4.01904 5.92676 0)
(4.11264 6.18054 0)
(4.23401 6.39794 0)
(4.46001 6.58131 0)
(9.63712 3.93557 0)
(9.29747 2.54139 0)
(8.45434 2.40155 0)
(7.66016 2.43813 0)
(6.99369 2.57754 0)
(6.42098 2.82267 0)
(5.88587 3.09505 0)
(5.42452 3.33601 0)
(5.04732 3.56795 0)
(4.74135 3.79351 0)
(4.53407 4.02575 0)
(4.3863 4.2597 0)
(4.31824 4.52116 0)
(4.33065 4.78113 0)
(4.40085 5.01063 0)
(4.48739 5.23759 0)
(4.63442 5.42207 0)
(4.82754 5.59473 0)
(9.3897 3.37892 0)
(9.13252 2.09045 0)
(8.44425 1.96091 0)
(7.72024 2.01182 0)
(7.04997 2.16072 0)
(6.42998 2.37671 0)
(5.90746 2.59581 0)
(5.51013 2.80205 0)
(5.1969 3.00617 0)
(4.95921 3.1947 0)
(4.79231 3.37191 0)
(4.70038 3.55432 0)
(4.67709 3.76143 0)
(4.68294 3.96274 0)
(4.74283 4.16604 0)
(4.84361 4.34738 0)
(4.9895 4.51133 0)
(5.17247 4.65608 0)
(9.4066 2.86512 0)
(9.17573 1.63254 0)
(8.48206 1.4832 0)
(7.82162 1.55228 0)
(7.23012 1.73153 0)
(6.69616 1.9013 0)
(6.24234 2.07317 0)
(5.89856 2.2311 0)
(5.62747 2.37877 0)
(5.39277 2.51047 0)
(5.21524 2.66535 0)
(5.09189 2.82416 0)
(5.03026 2.98883 0)
(5.01194 3.16814 0)
(5.04142 3.34781 0)
(5.13332 3.51386 0)
(5.25545 3.66181 0)
(5.45094 3.78628 0)
(9.38436 2.22279 0)
(9.39502 1.3005 0)
(8.78627 1.12885 0)
(8.13805 1.13991 0)
(7.52532 1.23355 0)
(6.93742 1.3662 0)
(6.46025 1.52082 0)
(6.08467 1.67413 0)
(5.79001 1.80056 0)
(5.54408 1.97067 0)
(5.36464 2.13151 0)
(5.23595 2.28684 0)
(5.18532 2.42414 0)
(5.16675 2.54088 0)
(5.21081 2.67208 0)
(5.30483 2.78955 0)
(5.45149 2.88704 0)
(5.646 2.98439 0)
(9.69311 1.61441 0)
(9.52492 0.718255 0)
(8.91379 0.610639 0)
(8.31522 0.71313 0)
(7.77286 0.878273 0)
(7.25802 1.02367 0)
(6.82637 1.14618 0)
(6.47146 1.23964 0)
(6.20069 1.3405 0)
(5.98631 1.46065 0)
(5.83337 1.57685 0)
(5.70483 1.68621 0)
(5.65276 1.79057 0)
(5.64187 1.88325 0)
(5.68664 1.98034 0)
(5.76614 2.06843 0)
(5.87494 2.14767 0)
(6.03395 2.2194 0)
(9.38603 1.19251 0)
(9.48387 0.483583 0)
(9.02952 0.346128 0)
(8.47846 0.384745 0)
(7.8908 0.474252 0)
(7.33309 0.551642 0)
(6.90163 0.63653 0)
(6.57659 0.742037 0)
(6.33527 0.860519 0)
(6.13676 0.985604 0)
(5.96395 1.09548 0)
(5.83665 1.19301 0)
(5.7549 1.29222 0)
(5.71612 1.3762 0)
(5.72522 1.44752 0)
(5.75926 1.51559 0)
(5.83424 1.57677 0)
(5.93985 1.6316 0)
(9.43638 0.598866 0)
(9.6732 -0.0564033 0)
(9.34778 -0.0904889 0)
(8.86266 0.0523632 0)
(8.25694 0.182612 0)
(7.60389 0.263947 0)
(7.015 0.320945 0)
(6.49083 0.392496 0)
(6.06396 0.47067 0)
(5.7148 0.563918 0)
(5.44177 0.660331 0)
(5.23689 0.7468 0)
(5.08879 0.814019 0)
(4.97893 0.88705 0)
(4.91321 0.939778 0)
(4.87747 1.00136 0)
(4.86216 1.06023 0)
(4.87953 1.09498 0)
(9.51503 0.108363 0)
(9.77241 -0.44915 0)
(9.23739 -0.369815 0)
(8.46261 -0.204449 0)
(7.59723 -0.075413 0)
(6.74318 0.0190548 0)
(5.96416 0.0903205 0)
(5.23443 0.155815 0)
(4.61397 0.221528 0)
(4.05157 0.288052 0)
(3.60111 0.356424 0)
(3.21954 0.423422 0)
(2.92058 0.487321 0)
(2.65813 0.553011 0)
(2.4679 0.608114 0)
(2.29347 0.663443 0)
(2.17662 0.727828 0)
(2.0715 0.763665 0)
(9.58319 -0.366877 0)
(9.10299 -0.79263 0)
(7.73627 -0.620945 0)
(6.23493 -0.399732 0)
(4.81282 -0.190802 0)
(3.5534 -0.0474346 0)
(2.48925 0.0509522 0)
(1.5828 0.119234 0)
(0.83509 0.155013 0)
(0.200978 0.188829 0)
(-0.274592 0.229241 0)
(-0.669973 0.264656 0)
(-0.978735 0.295515 0)
(-1.2098 0.335225 0)
(-1.36456 0.358505 0)
(-1.48556 0.405319 0)
(-1.52818 0.43356 0)
(-1.58507 0.44258 0)
(7.96191 -0.358164 0)
(5.18174 -0.359943 0)
(2.52842 -0.144607 0)
(0.541982 -0.027224 0)
(-0.918976 0.0268187 0)
(-2.02483 0.027984 0)
(-2.91044 0.0272205 0)
(-3.67122 0.027061 0)
(-4.31863 0.0278146 0)
(-4.86185 0.0380315 0)
(-5.30501 0.0489555 0)
(-5.66049 0.0641684 0)
(-5.92839 0.0819354 0)
(-6.11667 0.0991759 0)
(-6.22132 0.109987 0)
(-6.30652 0.14221 0)
(-6.23148 0.11928 0)
(-6.33642 0.182212 0)
(0.217876 0.173101 0)
(0.786314 0.0820577 0)
(1.39902 0.0873496 0)
(1.9923 0.0912195 0)
(2.59667 0.0741574 0)
(3.21261 0.0587954 0)
(3.84777 0.043529 1.10691e-17)
(4.50544 0.0289797 -1.09942e-17)
(5.19112 0.0444565 0)
(5.86219 0.0786804 -1.08562e-17)
(6.51482 0.158737 0)
(7.09274 0.263015 0)
(7.56767 0.370421 0)
(7.96611 0.434353 1.06205e-17)
(8.36531 0.447501 0)
(8.81589 0.541472 0)
(9.18172 0.628486 -1.04496e-17)
(9.45717 0.616714 0)
(9.80443 0.476436 0)
(10.2225 0.153618 0)
(10.631 -0.272117 1.02686e-17)
(10.9824 -0.577707 0)
(11.1885 -0.568337 1.02263e-17)
(11.3114 -0.185586 0)
(11.1528 0.486291 0)
(10.746 1.04902 1.01912e-17)
(10.2716 1.14002 0)
(9.84663 1.01541 -1.00399e-17)
(9.55734 0.886424 0)
(9.34588 0.78844 9.8896e-18)
(9.25733 0.695529 0)
(9.24135 0.59077 0)
(9.29293 0.506737 0)
(9.42065 0.438145 0)
(9.59528 0.376201 0)
(9.80634 0.318007 -9.45431e-18)
(10.0453 0.259605 0)
(10.3086 0.222296 1.86351e-17)
(10.5759 0.210034 0)
(10.8674 0.183327 -1.83651e-17)
(11.2077 0.135191 0)
(11.5746 0.122435 0)
(11.9338 0.0970983 1.79606e-17)
(12.2659 0.0689987 0)
(12.5997 0.0465248 1.76914e-17)
(12.9726 0.0302447 -1.75571e-17)
(13.3479 0.011669 0)
(13.7216 0.00238149 -1.7289e-17)
(14.0849 -0.0170129 -1.71557e-17)
(14.4073 -0.0289733 0)
(14.7148 -0.0354395 0)
(15.037 -0.0357871 0)
(15.3314 -0.0450605 0)
(15.5536 -0.07589 0)
(15.7283 -0.0969228 1.6382e-17)
(15.9292 -0.130425 0)
(16.1442 -0.180413 -1.61403e-17)
(16.3242 -0.205817 0)
(16.4606 -0.211286 0)
(16.5475 -0.217335 1.5762e-17)
(16.5304 -0.228309 0)
(16.4231 -0.242016 -1.55093e-17)
(16.2567 -0.269761 0)
(16.0312 -0.295548 0)
(15.765 -0.322198 0)
(15.4537 -0.339654 1.5028e-17)
(15.1027 -0.380474 0)
(14.7669 -0.374801 0)
(14.4047 -0.373168 1.46587e-17)
(13.9463 -0.359936 0)
(13.39 -0.340116 1.43953e-17)
(12.7269 -0.329473 0)
(11.9824 -0.339673 0)
(11.1862 -0.385053 0)
(10.3513 -0.426997 -1.38816e-17)
(9.51231 -0.449201 0)
(8.702 -0.476016 0)
(7.84509 -0.548989 -1.34671e-17)
(6.93803 -0.580191 -1.33241e-17)
(6.10998 -0.519612 0)
(5.35558 -0.405631 -1.30573e-17)
(4.42192 -0.30658 0)
(3.36015 -0.236363 -2.55298e-17)
(2.26861 -0.205793 0)
(1.23929 -0.27169 -2.48527e-17)
(0.447355 -0.374075 0)
(-0.193219 -0.464615 2.42858e-17)
(-0.620398 -0.535175 0)
(-0.823772 -0.558267 0)
(-0.871097 -0.500623 0)
(-0.992062 -0.38029 -2.33363e-17)
(-1.49017 -0.365981 0)
(-2.36807 -0.384429 2.28902e-17)
(-2.81319 -0.389335 0)
(-2.70212 -0.414653 -2.22888e-17)
(-2.36978 -0.779716 -2.22713e-17)
(-2.02698 -1.47387 -2.22779e-17)
(-1.77838 -1.57441 0)
(-2.44539 -0.695186 0)
(-4.20378 0.185374 0)
(-6.44929 0.637294 0)
(-8.898 0.872726 0)
(-11.0252 0.795777 0)
(-12.2773 0.358081 0)
(-12.8404 -0.0320969 0)
(-13.0013 -0.277214 2.10103e-17)
(-12.9377 -0.424292 2.08694e-17)
(-12.9107 -0.42291 0)
(-13.0687 -0.356419 0)
(-13.3799 -0.256882 0)
(-13.7225 -0.224775 2.01167e-17)
(-13.494 -0.424997 0)
(-12.5692 -0.701032 0)
(-11.4749 -0.848692 0)
(-9.8465 -0.66276 0)
(-9.85926 -0.355442 -1.94091e-17)
(-7.94959 -1.01363 0)
(-5.07746 -0.847812 0)
(-3.65695 -0.703832 1.92498e-17)
(-1.74945 -0.648095 -1.91134e-17)
(0.220127 -0.473588 0)
(1.7179 -0.233809 -1.88467e-17)
(2.52069 -0.128792 0)
(3.32901 -0.130517 1.86571e-17)
(4.30803 -0.0278646 0)
(5.00582 0.0123777 0)
(5.68851 0.0328189 0)
(6.55848 0.00659698 0)
(7.46794 0.0942218 0)
(8.24189 0.125293 -3.61606e-17)
(8.90228 0.12577 -3.5977e-17)
(9.50869 0.135961 0)
(9.95763 0.193555 0)
(10.4014 0.176804 0)
(10.8013 0.219802 3.5201e-17)
(11.2004 0.210504 0)
(11.5667 0.133703 0)
(11.9423 0.113458 0)
(12.2739 0.0987764 3.41193e-17)
(12.6237 0.0441411 -3.37933e-17)
(12.9654 0.0123088 0)
(13.3311 0.093901 0)
(13.7221 0.190916 -3.28644e-17)
(14.0496 0.142323 -3.2571e-17)
(14.2986 0.177625 0)
(14.3713 0.0700705 0)
(14.2798 0.0559499 3.16315e-17)
(14.0355 0.201635 -3.13346e-17)
(13.5362 0.0744748 0)
(12.9167 0.134189 0)
(11.7654 0.0903912 -3.00698e-17)
(10.2138 0.244878 0)
(8.69313 0.285887 0)
(7.31764 0.0551196 -2.89002e-17)
(6.45402 -0.126434 0)
(5.68048 -0.383407 -2.94606e-17)
(4.15006 -0.399416 0)
(1.35092 -0.00935258 0)
(-2.49575 0.338495 0)
(-7.30397 0.763723 2.97309e-17)
(-12.22 1.02605 0)
(-15.3704 0.655048 0)
(-16.8355 0.218765 0)
(-16.2492 -0.298073 0)
(-14.9983 -0.127998 0)
(-15.947 -0.116007 0)
(-12.9764 -0.383508 2.89453e-17)
(-11.4896 -0.00668865 2.86087e-17)
(-11.0388 -0.125721 0)
(-9.97452 -0.134871 0)
(-8.28985 -0.226099 0)
(-6.89985 -0.189398 -2.81103e-17)
(-5.47407 -0.28789 0)
(-4.28177 -0.228641 5.5844e-17)
(-3.35517 -0.296122 -5.56585e-17)
(-2.60053 -0.333252 -5.55658e-17)
(-1.90487 -0.341366 5.54646e-17)
(-1.25786 -0.375726 -5.53578e-17)
(-0.615286 -0.370198 5.52207e-17)
(-0.37347 -0.401331 0)
(0.203733 0.556409 0)
(0.737054 0.257035 0)
(1.28468 0.266546 -2.27799e-17)
(1.81947 0.285778 0)
(2.36451 0.259983 2.23532e-17)
(2.91947 0.233391 2.2195e-17)
(3.53715 0.154966 1.10077e-17)
(4.18964 0.0534869 1.09218e-17)
(4.91473 0.0475351 0)
(5.57156 0.0593969 1.08083e-17)
(6.23229 0.207124 0)
(6.80541 0.447148 0)
(7.26459 0.652638 -2.1261e-17)
(7.71751 0.686746 -1.05741e-17)
(8.16793 0.556157 2.09983e-17)
(8.62048 0.601356 2.08341e-17)
(8.9327 0.769039 1.03735e-17)
(9.06319 0.716499 0)
(8.94717 0.598998 0)
(8.60782 0.920084 0)
(8.08227 1.60843 1.04124e-17)
(7.26737 2.23226 0)
(6.44297 2.56656 -3.12157e-17)
(5.78354 2.71915 0)
(5.43126 2.78989 0)
(5.28405 2.74605 -1.01984e-17)
(5.16828 2.52894 0)
(5.12887 2.30731 1.00435e-17)
(5.12662 2.06295 1.99352e-17)
(5.17744 1.80491 -9.89517e-18)
(5.28852 1.56325 0)
(5.47597 1.34498 0)
(5.69345 1.13628 0)
(5.94347 0.962171 1.92397e-17)
(6.21941 0.821916 1.91124e-17)
(6.51486 0.697236 9.49259e-18)
(6.85364 0.587999 0)
(7.21369 0.493944 -1.87369e-17)
(7.52422 0.418102 0)
(7.82461 0.334124 1.84813e-17)
(8.23878 0.232375 0)
(8.69739 0.145458 0)
(9.11651 0.0646302 -1.80775e-17)
(9.53038 -0.0143889 0)
(9.9611 -0.0819833 -5.34051e-17)
(10.4036 -0.152097 1.76611e-17)
(10.844 -0.215479 0)
(11.2815 -0.265392 1.73773e-17)
(11.6936 -0.313527 1.72353e-17)
(12.0819 -0.361994 0)
(12.4795 -0.393415 0)
(12.8772 -0.389569 0)
(13.2125 -0.408895 0)
(13.5466 -0.487226 0)
(13.857 -0.592332 -1.64486e-17)
(14.1753 -0.765005 -3.26833e-17)
(14.5077 -0.941055 1.62218e-17)
(14.7816 -1.00645 0)
(14.9816 -1.01883 -3.18476e-17)
(15.143 -1.0228 1.57651e-17)
(15.2133 -1.0172 0)
(15.2061 -1.02091 1.54701e-17)
(15.1718 -1.09366 0)
(15.1133 -1.15404 0)
(15.0258 -1.25289 3.02319e-17)
(14.8507 -1.32612 -1.50138e-17)
(14.6554 -1.43938 2.98321e-17)
(14.4538 -1.51393 -2.96158e-17)
(14.1577 -1.56791 -1.46702e-17)
(13.816 -1.57274 0)
(13.426 -1.5115 -1.4339e-17)
(12.9611 -1.41045 0)
(12.4063 -1.31258 0)
(11.7402 -1.28191 0)
(11.0226 -1.31209 -1.3771e-17)
(10.3177 -1.34492 0)
(9.62491 -1.27617 -2.70027e-17)
(8.87568 -1.17679 4.0045e-17)
(8.01801 -1.12003 1.31928e-17)
(6.87811 -1.20552 0)
(5.66118 -1.25763 1.27887e-17)
(4.41919 -1.14388 0)
(3.18073 -0.911619 2.49905e-17)
(2.02219 -0.939079 0)
(1.056 -1.11098 2.41957e-17)
(0.451238 -1.22823 -4.78075e-17)
(0.0201603 -1.41616 -2.36564e-17)
(-0.169941 -1.73148 0)
(-0.116982 -2.00299 0)
(0.172388 -2.09723 0)
(0.368304 -1.75217 2.24272e-17)
(-0.0625853 -1.08728 0)
(-0.804441 -0.818341 -2.22748e-17)
(-0.67226 -1.69971 0)
(-0.412892 -2.55917 6.32415e-17)
(-0.641978 -2.4974 2.13701e-17)
(-2.90198 -1.36747 2.16877e-17)
(-6.24318 -0.103403 0)
(-8.81319 0.731385 0)
(-11.0331 1.24295 0)
(-13.0155 1.37334 0)
(-14.4873 0.907643 0)
(-15.2698 0.0398478 4.30988e-17)
(-15.6826 -0.787497 4.27077e-17)
(-15.8127 -1.37558 0)
(-15.7626 -1.66329 -2.10867e-17)
(-15.5491 -1.64236 -2.08163e-17)
(-15.3304 -1.37518 0)
(-15.094 -1.15004 -4.0239e-17)
(-14.8799 -1.09317 0)
(-14.6058 -1.32534 2.00532e-17)
(-13.7657 -2.09665 0)
(-12.8226 -2.62996 0)
(-12.0554 -2.58524 -4.05163e-17)
(-10.9263 -1.97342 0)
(-10.4731 -1.92794 1.95332e-17)
(-7.93712 -4.13847 0)
(-5.30436 -3.04423 0)
(-3.33265 -2.72069 1.9571e-17)
(-1.34428 -2.68892 1.94025e-17)
(1.07224 -2.3716 0)
(3.22742 -1.5382 -1.8788e-17)
(4.33012 -1.08255 0)
(5.33764 -1.00319 1.83706e-17)
(6.82978 -0.83838 3.64439e-17)
(7.81381 -0.65296 0)
(8.50387 -0.652715 0)
(9.55248 -0.791439 0)
(11.0047 -0.645923 0)
(12.2729 -0.470611 3.516e-17)
(13.3083 -0.370599 1.04539e-16)
(14.3022 -0.260507 0)
(14.9688 -0.118588 0)
(15.6422 -0.0975107 0)
(16.3151 -0.0095997 -3.38019e-17)
(17.0141 0.0948876 0)
(17.6666 0.250433 0)
(18.14 0.312563 6.60664e-17)
(18.164 0.235517 3.26515e-17)
(17.9582 0.28091 3.23552e-17)
(17.6607 0.329775 0)
(17.2581 0.14577 0)
(16.7421 -0.0749389 3.09577e-17)
(16.4253 -0.0249649 -3.05198e-17)
(16.2067 0.127323 0)
(15.8985 -0.0322442 0)
(15.6924 -0.0196848 -2.92494e-17)
(15.2184 0.0458609 8.67073e-17)
(14.595 -0.113128 0)
(13.8649 -0.0190906 0)
(12.5071 0.0792257 2.75028e-17)
(10.8648 -0.0749574 0)
(9.63114 -0.271621 5.11551e-17)
(8.92946 -0.833695 -2.54653e-17)
(7.99033 -1.12379 0)
(5.62725 -0.575385 2.75539e-17)
(1.25213 0.566804 5.69016e-17)
(-3.62415 1.59608 0)
(-8.87681 2.42612 0)
(-14.156 2.60646 -2.96731e-17)
(-18.0351 1.67609 0)
(-19.3686 0.075079 6.06909e-17)
(-19.8782 -0.992391 0)
(-18.6832 -1.81271 0)
(-16.8547 -0.80496 0)
(-16.8207 -1.73217 0)
(-12.3824 -2.61224 -2.93939e-17)
(-10.5893 -1.04259 -2.84529e-17)
(-9.72249 -1.17774 0)
(-8.27334 -1.33618 0)
(-5.37644 -1.58138 0)
(-3.15965 -1.22226 2.72081e-17)
(-0.693582 -1.24466 0)
(0.973187 -1.00841 -5.30297e-17)
(1.90094 -0.947965 5.25231e-17)
(2.33184 -0.879364 5.23823e-17)
(2.4952 -0.920748 5.23898e-17)
(2.64769 -0.999878 5.24755e-17)
(2.81102 -0.994134 5.24435e-17)
(2.52932 -1.07891 0)
(0.195827 1.03455 0)
(0.703714 0.648657 0)
(1.21004 0.696322 2.3077e-17)
(1.71624 0.714201 2.27731e-17)
(2.24609 0.642694 -2.25757e-17)
(2.76452 0.494233 -2.23853e-17)
(3.30853 0.206133 -2.46112e-21)
(3.79621 0.0285057 0)
(4.32547 0.0644228 0)
(4.70335 0.171269 0)
(5.09721 0.565171 0)
(5.49719 1.0894 0)
(5.83752 1.30203 6.52576e-17)
(6.00973 1.19775 0)
(6.00803 1.38117 -2.14496e-17)
(5.84883 1.90947 -2.13806e-17)
(5.5308 2.59782 0)
(5.05069 3.27612 0)
(4.45318 3.8025 0)
(3.95211 4.1499 0)
(3.5892 4.25541 -2.11952e-17)
(3.36984 4.28469 0)
(3.21237 4.25332 2.08819e-17)
(3.09494 4.16078 0)
(3.08644 4.05665 0)
(3.17327 3.85643 0)
(3.29862 3.57136 4.03775e-17)
(3.5064 3.24928 0)
(3.73147 2.90316 -1.98753e-17)
(3.97888 2.55686 3.9437e-17)
(4.25547 2.2133 0)
(4.54865 1.90767 0)
(4.89162 1.64859 0)
(5.27559 1.41868 -1.91715e-17)
(5.64067 1.20131 -1.90446e-17)
(6.00376 1.02163 0)
(6.39037 0.881359 0)
(6.83512 0.74116 3.74137e-17)
(7.25266 0.615168 3.72025e-17)
(7.62616 0.497557 -3.6996e-17)
(8.05368 0.398427 0)
(8.51944 0.255224 0)
(8.94182 0.101753 0)
(9.3443 -0.0320449 0)
(9.75766 -0.150182 3.576e-17)
(10.1804 -0.280154 3.5489e-17)
(10.6122 -0.389191 -3.52206e-17)
(11.0332 -0.454715 0)
(11.4436 -0.551191 0)
(11.8197 -0.665776 0)
(12.2304 -0.753808 0)
(12.6814 -0.808495 3.39432e-17)
(13.0956 -0.884574 0)
(13.5052 -0.997818 0)
(13.8424 -1.15495 3.33208e-17)
(14.1108 -1.4068 3.30749e-17)
(14.3529 -1.6375 0)
(14.4947 -1.69976 -6.49658e-17)
(14.5998 -1.74321 3.21483e-17)
(14.7672 -1.74526 -3.18438e-17)
(14.9186 -1.74192 0)
(15.0259 -1.83367 0)
(15.1082 -1.99674 0)
(15.1793 -2.15677 0)
(15.247 -2.32015 -3.07029e-17)
(15.1857 -2.37839 -6.09785e-17)
(15.0206 -2.3833 -3.02894e-17)
(14.6905 -2.49353 3.00858e-17)
(14.115 -2.61465 0)
(13.5558 -2.68934 -5.88178e-17)
(13.0717 -2.64657 -5.79602e-17)
(12.5881 -2.53157 -5.71481e-17)
(12.1082 -2.39049 5.6426e-17)
(11.559 -2.27685 0)
(10.9472 -2.3851 8.29402e-17)
(10.3534 -2.61095 0)
(9.95307 -2.66044 -2.71114e-17)
(9.42996 -2.49899 -2.67563e-17)
(8.89196 -2.21417 0)
(8.39291 -1.77579 0)
(7.53785 -1.27805 -5.18953e-17)
(6.2589 -1.17477 0)
(5.10023 -1.23391 -4.93301e-17)
(3.85127 -1.45976 0)
(2.39787 -2.01116 4.9538e-17)
(1.21053 -2.58661 9.85679e-17)
(0.576029 -3.09409 0)
(0.376584 -3.58646 0)
(0.473925 -3.92807 0)
(0.683966 -3.81086 4.60116e-17)
(0.736069 -2.83803 0)
(0.311983 -1.94803 4.46855e-17)
(0.407365 -2.31203 0)
(0.257775 -3.14669 0)
(-1.68443 -2.48272 -8.63616e-17)
(-4.30366 -0.59562 0)
(-7.14111 0.838671 -4.40918e-17)
(-9.71999 1.48034 0)
(-11.8774 1.66958 -4.35091e-17)
(-13.8867 1.7786 0)
(-15.1967 1.33779 0)
(-15.8916 0.493913 0)
(-16.1824 -0.492191 -1.29402e-16)
(-16.4868 -1.39596 -4.30353e-17)
(-16.5979 -2.16314 0)
(-16.5053 -2.64611 0)
(-16.1546 -2.82728 0)
(-15.8338 -2.66562 0)
(-15.2079 -2.52128 4.13865e-17)
(-14.7119 -2.48541 -8.23032e-17)
(-14.1581 -2.84027 -4.10232e-17)
(-13.2382 -3.59375 8.27343e-17)
(-12.567 -3.79368 8.21819e-17)
(-12.1486 -3.48171 4.04786e-17)
(-11.3346 -3.23478 0)
(-9.87803 -3.77537 8.20693e-17)
(-8.26824 -6.68678 0)
(-6.16087 -5.19196 -8.23948e-17)
(-3.35044 -4.59101 -4.07341e-17)
(-1.56729 -4.52094 0)
(0.685427 -4.37173 8.05355e-17)
(3.29035 -2.86045 3.88715e-17)
(4.49381 -1.93227 0)
(5.46826 -1.92304 3.75031e-17)
(7.36428 -1.64624 -1.10849e-16)
(8.72388 -1.04577 0)
(9.28163 -0.921783 0)
(10.2298 -1.36386 0)
(11.8685 -1.3313 0)
(13.2256 -0.91457 -7.09723e-17)
(14.4421 -0.674723 -7.02104e-17)
(15.7147 -0.440932 0)
(16.5676 -0.231248 0)
(17.1611 -0.0747413 0)
(17.8252 -0.0378776 0)
(18.8379 -0.0508687 0)
(19.8852 0.0687079 0)
(20.8435 0.40426 -6.59896e-17)
(21.5625 0.818829 1.23752e-20)
(21.8322 0.954336 0)
(21.5378 0.816953 0)
(21.0601 0.931427 -6.2336e-17)
(20.4557 1.09878 0)
(19.5276 0.935513 6.04981e-17)
(18.5842 0.474115 5.91663e-17)
(17.9081 0.261173 0)
(17.3941 0.252647 0)
(16.6363 0.149292 -5.5734e-17)
(15.92 0.0544364 -1.10378e-16)
(15.0542 0.0275018 0)
(13.4956 0.34385 0)
(11.7832 -0.0246129 0)
(10.5673 -0.65759 -4.91233e-17)
(9.48559 -1.18365 5.02561e-17)
(7.1597 -0.605797 0)
(3.15545 0.878226 1.10406e-16)
(-2.29183 2.30712 5.67447e-17)
(-7.37614 3.01788 -1.15288e-16)
(-12.1151 3.6086 0)
(-16.069 3.38763 0)
(-18.4576 2.0488 -1.19382e-16)
(-19.6987 -0.254741 -6.21733e-17)
(-21.2639 -1.79987 0)
(-19.5661 -3.0464 0)
(-18.2836 -2.01289 0)
(-16.353 -3.42758 0)
(-13.6749 -4.52022 -1.20107e-16)
(-11.1629 -1.82257 0)
(-10.2184 -1.90002 0)
(-9.09436 -2.46353 0)
(-5.83802 -3.26791 0)
(-3.16755 -2.58397 0)
(0.220309 -2.65688 0)
(3.02205 -2.02832 -1.07237e-16)
(4.77278 -1.60296 0)
(5.57216 -1.35795 0)
(5.87105 -1.28854 -2.0307e-16)
(5.85478 -1.37956 1.01091e-16)
(5.7381 -1.54788 -1.00626e-16)
(4.86572 -1.671 1.01093e-16)
(0.182542 1.55044 0)
(0.699238 1.03082 -4.74982e-17)
(1.2337 1.07422 0)
(1.77164 1.06091 -2.28921e-17)
(2.29824 1.03045 0)
(2.78896 1.00011 0)
(3.16807 0.875186 2.21661e-17)
(3.40512 0.923184 0)
(3.74192 1.19061 0)
(3.8256 1.30196 0)
(3.80771 1.51696 0)
(3.92527 1.97676 0)
(3.89497 2.49753 -8.81527e-17)
(3.53083 3.09055 -4.38637e-17)
(3.07926 3.78943 4.35643e-17)
(2.75083 4.46785 0)
(2.38596 4.91536 0)
(2.16925 5.24586 0)
(1.96641 5.4059 0)
(1.86702 5.49652 0)
(1.85237 5.59391 -4.20812e-17)
(1.85966 5.45149 -4.16637e-17)
(1.95023 5.3096 4.12438e-17)
(2.15081 5.1295 -4.09684e-17)
(2.36916 4.84965 0)
(2.68062 4.54287 0)
(3.00567 4.18296 -3.99619e-17)
(3.35128 3.80856 0)
(3.69121 3.43896 0)
(4.03125 3.04827 -3.89792e-17)
(4.40474 2.66879 -3.8676e-17)
(4.7746 2.32559 -3.83617e-17)
(5.13046 1.98849 0)
(5.5056 1.68382 0)
(5.90775 1.4142 3.74902e-17)
(6.2867 1.18136 0)
(6.67192 0.97179 0)
(7.07483 0.772197 -3.67228e-17)
(7.46036 0.598666 3.64628e-17)
(7.91069 0.513357 -3.62307e-17)
(8.41143 0.434473 0)
(8.8577 0.29222 0)
(9.28065 0.102629 -7.10874e-17)
(9.71767 -0.0358399 0)
(10.182 -0.166741 -7.01666e-17)
(10.5637 -0.366025 -1.04563e-16)
(10.9737 -0.546993 1.03801e-16)
(11.4045 -0.677226 -6.87863e-17)
(11.8126 -0.834141 0)
(12.2625 -1.03061 0)
(12.712 -1.18898 -6.75384e-17)
(13.1527 -1.33888 -3.35696e-17)
(13.563 -1.48266 0)
(13.9716 -1.5705 0)
(14.2816 -1.66323 -3.29479e-17)
(14.4847 -1.85484 -6.53779e-17)
(14.6905 -2.12285 0)
(14.7865 -2.24071 6.43707e-17)
(14.8849 -2.47502 -6.39735e-17)
(15.1131 -2.61505 6.35753e-17)
(15.2971 -2.69939 0)
(15.5518 -2.86297 0)
(15.7293 -3.06284 0)
(15.7664 -3.32694 0)
(15.7255 -3.57797 0)
(15.6742 -3.60878 6.10194e-17)
(15.6101 -3.37931 0)
(15.3201 -3.21178 0)
(14.6826 -3.25454 0)
(13.9554 -3.42986 1.18822e-16)
(13.2738 -3.51801 5.87307e-17)
(12.5724 -3.56778 5.78932e-17)
(11.8873 -3.49969 -1.14045e-16)
(11.3215 -3.38186 5.61243e-17)
(10.9619 -3.54683 -5.55584e-17)
(10.5306 -3.95014 0)
(10.0914 -3.93605 5.48713e-17)
(9.56286 -3.57243 0)
(8.84484 -3.43073 0)
(8.55016 -3.26669 0)
(8.35228 -2.70329 1.04499e-16)
(7.60266 -2.02941 -5.16394e-17)
(6.88273 -1.63333 -5.01183e-17)
(6.00772 -1.59891 -9.83805e-17)
(4.89109 -1.88818 -1.47567e-16)
(3.88424 -2.68645 -4.8718e-17)
(3.00631 -3.6804 0)
(2.2075 -4.62678 -9.70187e-17)
(1.91599 -5.22553 0)
(1.66681 -5.18846 -1.39314e-16)
(1.33356 -4.3245 0)
(0.865561 -3.53814 -1.32225e-16)
(0.282492 -3.04755 0)
(-1.70473 -2.46522 0)
(-4.88478 -1.1115 -4.38169e-17)
(-7.51569 0.568845 0)
(-9.56571 1.51334 4.32981e-17)
(-11.3148 1.78027 8.57427e-17)
(-12.9906 1.9445 4.28799e-17)
(-14.3762 1.61752 8.6417e-17)
(-15.1973 0.82299 -8.74209e-17)
(-15.6516 -0.213082 -8.71075e-17)
(-16.0012 -1.29015 1.72092e-16)
(-16.3113 -2.42549 0)
(-16.4303 -3.3275 0)
(-16.3297 -4.03873 8.61359e-17)
(-16.0647 -4.29143 -8.61538e-17)
(-15.708 -4.21021 0)
(-14.8985 -4.04985 0)
(-14.2706 -3.88248 8.29179e-17)
(-13.6012 -4.25882 0)
(-13.041 -4.94289 1.22253e-19)
(-12.5073 -4.98467 1.16725e-19)
(-11.7752 -4.83714 8.14052e-17)
(-10.6906 -5.12644 0)
(-8.85615 -5.48067 -8.2472e-17)
(-7.86169 -8.09571 0)
(-6.48778 -7.92189 8.49948e-17)
(-3.11097 -6.92756 0)
(-1.11787 -6.32496 0)
(0.227998 -6.58565 -8.35139e-17)
(3.12794 -4.52844 -8.04062e-17)
(4.57031 -2.99712 0)
(5.08011 -3.17184 -7.70897e-17)
(7.04023 -3.00591 1.53074e-16)
(9.23754 -1.77578 0)
(10.0649 -1.40626 0)
(10.614 -2.22682 0)
(12.4007 -2.27168 0)
(13.8649 -1.82949 7.16515e-17)
(14.8058 -1.50189 -1.41308e-16)
(16.2617 -1.0587 0)
(17.6072 -0.493335 0)
(18.2314 -0.369015 0)
(18.5001 -0.585763 0)
(19.1989 -0.529412 0)
(20.2794 -0.324537 0)
(21.3906 -0.102117 0)
(22.6252 0.185627 6.59281e-17)
(23.7802 0.81627 0)
(24.0649 1.33908 0)
(23.4428 1.41192 6.28286e-17)
(22.9251 1.19755 0)
(22.4521 1.1677 0)
(21.4397 1.11786 -5.92385e-17)
(20.3042 0.804725 0)
(19.2948 0.377637 0)
(18.3229 0.220323 1.10797e-16)
(17.4165 0.131579 1.09132e-16)
(16.3599 0.151553 1.08215e-16)
(14.5588 0.420413 0)