/*--------------------------------*- C++ -*----------------------------------*\
| =========                 |                                                 |
| \\      /  F ield         | OpenFOAM: The Open Source CFD Toolbox           |
|  \\    /   O peration     | Version:  dev                                   |
|   \\  /    A nd           | Web:      http://www.openfoam.org               |
|    \\/     M anipulation  |                                                 |
\*---------------------------------------------------------------------------*/
FoamFile
{
    version     2.0;
    format      ascii;
    class       volSymmTensorField;
    object      UPrime2Mean;
    location    "9.133";
}
// * * * * * * * * * * * * * * * * * * * * * * * * * * * * * * * * * * * * * //

dimensions      [0 2 -2 0 0 0 0];

internalField   nonuniform List<symmTensor> 
12225
(
(0.329303 0.0192773 0 0.069286 0 0)
(2.98659 0.0797076 0 0.0782126 0 0)
(7.88147 0.11233 0 0.0769151 0 0)
(14.5362 0.148256 0 0.0755902 0 0)
(22.7056 0.133031 0 0.0765344 0 0)
(32.0703 0.201153 0 0.0746902 0 0)
(42.3833 0.0960331 0 0.0766287 0 0)
(53.5268 0.200517 0 0.0738673 0 0)
(65.6209 -0.0282722 0 0.077625 0 0)
(78.2168 0.125899 0 0.0736331 0 0)
(92.9635 -0.305941 0 0.0813189 0 0)
(107.303 -0.115471 0 0.0770065 0 0)
(127.912 -0.671751 0 0.0863094 0 0)
(145.618 -1.27731 0 0.134737 0 0)
(185.928 -1.40855 0 0.116387 0 0)
(198.508 -0.39312 0 2.39261 0 0)
(272.281 -33.5288 0 5.80706 0 0)
(575.738 -52.9153 0 18.8135 0 0)
(0.377471 0.0568307 0 0.68917 0 0)
(3.15651 0.252292 0 0.732482 0 0)
(8.41193 0.362192 0 0.714334 0 0)
(15.4751 0.485529 0 0.706826 0 0)
(24.1999 0.453162 0 0.70368 0 0)
(34.4586 0.63311 0 0.683518 0 0)
(45.5269 0.296399 0 0.692286 0 0)
(58.4802 0.609636 0 0.658973 0 0)
(71.4722 -0.134506 0 0.682787 0 0)
(87.1417 0.283769 0 0.646135 0 0)
(102.778 -1.06398 0 0.711398 0 0)
(121.413 -0.764428 0 0.655556 0 0)
(142.835 -2.54114 0 1.0689 0 0)
(166.305 -4.49096 0 1.04671 0 0)
(199.74 -0.924658 0 3.09977 0 0)
(274.373 -9.97676 0 6.60471 0 0)
(281.012 -20.8288 0 8.73754 0 0)
(799.753 -185.135 0 64.686 0 0)
(0.505069 0.0583917 0 2.14121 0 0)
(3.06442 0.424748 0 2.20316 0 0)
(8.46696 0.570619 0 2.15206 0 0)
(14.8539 0.852198 0 2.14354 0 0)
(24.2781 0.864878 0 2.12042 0 0)
(33.1518 1.05361 0 2.08322 0 0)
(45.2733 0.75694 0 2.07891 0 0)
(56.2009 0.887338 0 2.00815 0 0)
(69.6864 0.173513 0 2.05221 0 0)
(83.4411 0.0187447 0 1.95983 0 0)
(98.1839 -1.12108 0 2.12299 0 0)
(115.648 -2.44457 0 2.09459 0 0)
(138.613 -3.59283 0 2.62237 0 0)
(154.857 -7.19449 0 2.83051 0 0)
(210.984 -13.0016 0 6.11806 0 0)
(223.376 -7.8893 0 6.37487 0 0)
(352.943 -62.2319 0 31.0737 0 0)
(534.467 -192.429 0 98.1998 0 0)
(1.0299 0.0924321 0 4.67184 0 0)
(3.55003 0.61968 0 4.76846 0 0)
(9.07027 0.816009 0 4.6442 0 0)
(15.0679 1.15038 0 4.60345 0 0)
(24.639 1.3135 0 4.55912 0 0)
(32.9854 1.3506 0 4.48476 0 0)
(45.008 1.26258 0 4.44972 0 0)
(55.1683 0.974803 0 4.35114 0 0)
(68.6023 0.477982 0 4.38283 0 0)
(80.7115 -0.280384 0 4.25899 0 0)
(96.0356 -1.32753 0 4.50826 0 0)
(110.508 -3.33808 0 4.37299 0 0)
(131.472 -4.789 0 5.30223 0 0)
(152.229 -10.9641 0 5.60733 0 0)
(187.864 -11.426 0 9.28297 0 0)
(238.373 -28.8431 0 16.8176 0 0)
(291.395 -58.8801 0 32.6682 0 0)
(414.821 -178.284 0 107.812 0 0)
(1.86369 0.365166 0 8.52526 0 0)
(5.00922 0.720207 0 8.72679 0 0)
(9.43627 1.14039 0 8.47556 0 0)
(16.2428 1.29497 0 8.3724 0 0)
(24.6487 1.70161 0 8.28272 0 0)
(33.9477 1.50325 0 8.14759 0 0)
(44.8198 1.59941 0 8.04682 0 0)
(55.5226 0.994481 0 7.9146 0 0)
(68.4129 0.603121 0 7.86149 0 0)
(80.119 -0.591002 0 7.76326 0 0)
(95.3666 -1.77483 0 7.96476 0 0)
(108.552 -4.22297 0 7.91136 0 0)
(128.09 -6.87345 0 9.02749 0 0)
(145.212 -12.2825 0 9.26884 0 0)
(173.949 -19.1915 0 14.5865 0 0)
(217.891 -25.94 0 17.2082 0 0)
(233.62 -55.5458 0 46.2699 0 0)
(326.669 -171.721 0 138.653 0 0)
(2.56053 0.750649 0 14.0441 0 0)
(6.32312 0.806493 0 14.3959 0 0)
(9.29727 1.5403 0 13.9661 0 0)
(17.0968 1.59465 0 13.7711 0 0)
(24.1378 2.1214 0 13.5964 0 0)
(34.2671 1.93744 0 13.3641 0 0)
(43.9732 1.99277 0 13.1588 0 0)
(55.1715 1.41729 0 12.9176 0 0)
(67.3241 0.897522 0 12.7806 0 0)
(78.9077 -0.382453 0 12.5791 0 0)
(94.4188 -1.73389 0 12.7788 0 0)
(105.824 -4.30725 0 12.6867 0 0)
(128.101 -7.2615 0 13.9875 0 0)
(137.927 -13.1496 0 14.6662 0 0)
(170.946 -21.8323 0 21.2444 0 0)
(191.472 -33.0268 0 24.5943 0 0)
(211.047 -55.8873 0 51.5716 0 0)
(265.657 -145.653 0 130.646 0 0)
(2.24123 0.72168 0 21.5388 0 0)
(5.53954 0.940146 0 22.1547 0 0)
(9.19754 1.76401 0 21.3805 0 0)
(16.3386 2.07769 0 21.1925 0 0)
(23.9731 2.45079 0 20.7937 0 0)
(33.3642 2.54368 0 20.5603 0 0)
(43.613 2.2762 0 20.0917 0 0)
(54.0498 1.93011 0 19.8614 0 0)
(66.486 0.900437 0 19.4429 0 0)
(77.3609 -0.215061 0 19.2898 0 0)
(92.5159 -2.36691 0 19.229 0 0)
(103.495 -4.81829 0 19.2714 0 0)
(123.636 -8.975 0 20.4791 0 0)
(133.916 -14.2531 0 21.4565 0 0)
(161.524 -24.394 0 28.5148 0 0)
(169.353 -32.3976 0 32.0513 0 0)
(203.385 -58.9954 0 56.8607 0 0)
(190.215 -108.746 0 114.143 0 0)
(1.42018 0.598539 0 29.7632 0 0)
(4.3165 1.13382 0 30.6487 0 0)
(8.57936 1.92417 0 29.5012 0 0)
(15.2496 2.47291 0 29.3299 0 0)
(23.205 2.77809 0 28.6843 0 0)
(32.2655 2.96418 0 28.4231 0 0)
(42.4189 2.59986 0 27.671 0 0)
(52.7896 2.19296 0 27.3901 0 0)
(64.4268 1.01 0 26.6657 0 0)
(75.6145 -0.360122 0 26.5002 0 0)
(88.6425 -2.74801 0 26.1157 0 0)
(100.43 -5.73008 0 26.3398 0 0)
(115.537 -10.3157 0 27.0937 0 0)
(128.074 -15.7911 0 28.6077 0 0)
(144.646 -26.4823 0 33.9174 0 0)
(152.014 -33.4465 0 37.4804 0 0)
(180.322 -54.8747 0 53.1795 0 0)
(139.559 -71.2744 0 83.691 0 0)
(1.00152 0.521025 0 38.5369 0 0)
(3.77141 1.28689 0 39.7315 0 0)
(8.17396 2.03577 0 38.1936 0 0)
(14.7247 2.77973 0 38.0524 0 0)
(22.6463 3.00614 0 37.1421 0 0)
(31.5854 3.31644 0 36.8668 0 0)
(41.4999 2.80626 0 35.8152 0 0)
(51.7748 2.47478 0 35.4964 0 0)
(62.8253 1.04066 0 34.4868 0 0)
(73.8438 -0.278738 0 34.2865 0 0)
(85.6534 -3.04256 0 33.6544 0 0)
(97.0169 -5.89941 0 33.9137 0 0)
(109.332 -10.943 0 34.4202 0 0)
(121.213 -16.0316 0 36.1389 0 0)
(131.208 -25.5532 0 40.0168 0 0)
(138.136 -33.1932 0 44.7461 0 0)
(149.966 -47.2977 0 52.465 0 0)
(123.197 -58.7243 0 73.1228 0 0)
(0.60691 0.484374 0 49.7267 0 0)
(3.22999 1.44563 0 51.3153 0 0)
(7.73771 2.18658 0 49.2179 0 0)
(14.1957 3.03621 0 49.1306 0 0)
(21.9887 3.27391 0 47.8408 0 0)
(30.8477 3.58017 0 47.5614 0 0)
(40.4699 3.06591 0 46.0993 0 0)
(50.6052 2.63808 0 45.7304 0 0)
(61.1257 1.16316 0 44.31 0 0)
(71.794 -0.291048 0 44.0659 0 0)
(82.6711 -3.13985 0 43.0203 0 0)
(93.2144 -6.03512 0 43.3385 0 0)
(103.848 -11.089 0 43.3363 0 0)
(113.714 -15.8383 0 45.1919 0 0)
(121.315 -24.4962 0 47.6914 0 0)
(125.757 -30.5561 0 51.9598 0 0)
(129.086 -40.6981 0 56.4776 0 0)
(116.001 -48.3666 0 69.0374 0 0)
(0.432602 0.516141 0 63.9251 0 0)
(2.9773 1.62767 0 65.9808 0 0)
(7.4687 2.38371 0 63.288 0 0)
(13.8441 3.31093 0 63.1763 0 0)
(21.4898 3.57021 0 61.5417 0 0)
(30.1869 3.86006 0 61.1271 0 0)
(39.5436 3.35684 0 59.3182 0 0)
(49.3805 2.81924 0 58.723 0 0)
(59.4472 1.36995 0 57.0011 0 0)
(69.5485 -0.266674 0 56.4827 0 0)
(79.6399 -2.98102 0 55.1784 0 0)
(89.1732 -6.07991 0 55.2332 0 0)
(98.4856 -10.5505 0 54.8847 0 0)
(106.362 -15.4114 0 56.4309 0 0)
(112.522 -22.1235 0 57.8712 0 0)
(115.057 -28.0367 0 61.5992 0 0)
(116 -35.1784 0 64.5612 0 0)
(109.555 -40.7744 0 71.4558 0 0)
(0.355976 0.540622 0 81.4233 0 0)
(2.83095 1.74524 0 84.1097 0 0)
(7.26102 2.55508 0 80.6406 0 0)
(13.5148 3.50181 0 80.5315 0 0)
(20.9867 3.80921 0 78.4442 0 0)
(29.4635 4.03701 0 77.8909 0 0)
(38.5183 3.56056 0 75.6006 0 0)
(47.9854 2.91928 0 74.7755 0 0)
(57.5354 1.48084 0 72.582 0 0)
(67.0253 -0.222789 0 71.7941 0 0)
(76.2343 -2.8719 0 70.0369 0 0)
(84.8174 -5.85589 0 69.7764 0 0)
(92.7196 -9.95883 0 68.9387 0 0)
(99.147 -14.2856 0 69.8904 0 0)
(103.858 -19.7298 0 70.5302 0 0)
(105.803 -24.6407 0 73.0321 0 0)
(105.957 -29.8033 0 74.9719 0 0)
(101.715 -33.2862 0 78.6243 0 0)
(0.3292 0.56909 0 102.507 0 0)
(2.73582 1.80688 0 105.718 0 0)
(7.06811 2.68301 0 101.691 0 0)
(13.1537 3.58328 0 101.222 0 0)
(20.4303 3.93316 0 98.9564 0 0)
(28.6121 4.05424 0 97.8765 0 0)
(37.3425 3.61451 0 95.3606 0 0)
(46.3397 2.83296 0 93.9105 0 0)
(55.3648 1.47364 0 91.4725 0 0)
(64.1422 -0.342542 0 90.0204 0 0)
(72.5175 -2.75942 0 87.9917 0 0)
(80.1043 -5.68922 0 87.0159 0 0)
(86.8225 -9.19778 0 85.8018 0 0)
(92.0815 -13.0852 0 85.8068 0 0)
(95.7813 -17.3012 0 85.7543 0 0)
(97.3658 -21.3662 0 86.8933 0 0)
(97.4684 -25.2087 0 87.918 0 0)
(94.666 -27.6623 0 89.5194 0 0)
(0.313655 0.573324 0 126.509 0 0)
(2.64056 1.77394 0 130.44 0 0)
(6.84736 2.66725 0 125.729 0 0)
(12.7295 3.46279 0 124.919 0 0)
(19.7641 3.79065 0 122.387 0 0)
(27.6121 3.80488 0 120.809 0 0)
(35.9507 3.3317 0 117.925 0 0)
(44.4572 2.48534 0 115.89 0 0)
(52.8908 1.13119 0 113.028 0 0)
(60.9813 -0.631194 0 110.936 0 0)
(68.5271 -2.89809 0 108.443 0 0)
(75.2478 -5.52879 0 106.714 0 0)
(80.9833 -8.5826 0 104.944 0 0)
(85.4308 -11.8046 0 103.937 0 0)
(88.475 -15.1659 0 103.103 0 0)
(89.9123 -18.332 0 102.926 0 0)
(90.215 -21.2497 0 102.936 0 0)
(88.2531 -22.8953 0 103.086 0 0)
(0.29926 0.524825 0 151.933 0 0)
(2.53262 1.58147 0 156.437 0 0)
(6.58322 2.37695 0 151.305 0 0)
(12.2317 2.98711 0 149.866 0 0)
(18.9711 3.21074 0 147.306 0 0)
(26.4479 3.06902 0 144.993 0 0)
(34.3458 2.52904 0 141.902 0 0)
(42.3324 1.59757 0 139.094 0 0)
(50.1665 0.269009 0 135.893 0 0)
(57.583 -1.43493 0 133.015 0 0)
(64.3934 -3.49563 0 130.061 0 0)
(70.3701 -5.83208 0 127.486 0 0)
(75.3823 -8.40773 0 125.08 0 0)
(79.2678 -11.0585 0 123.076 0 0)
(81.9651 -13.6953 0 121.359 0 0)
(83.3828 -16.1589 0 120.017 0 0)
(83.9656 -18.3563 0 118.925 0 0)
(82.7592 -19.4014 0 117.811 0 0)
(0.28396 0.394065 0 175.163 0 0)
(2.41423 1.14498 0 180.365 0 0)
(6.28306 1.66963 0 174.755 0 0)
(11.6701 2.00179 0 172.871 0 0)
(18.0759 1.99902 0 170.189 0 0)
(25.1543 1.6624 0 167.336 0 0)
(32.5845 0.982146 0 163.948 0 0)
(40.0511 -0.0262748 0 160.55 0 0)
(47.3068 -1.35994 0 156.931 0 0)
(54.1185 -2.97102 0 153.415 0 0)
(60.3082 -4.8384 0 149.925 0 0)
(65.7119 -6.8682 0 146.631 0 0)
(70.2245 -9.02137 0 143.532 0 0)
(73.7732 -11.1682 0 140.674 0 0)
(76.3284 -13.231 0 138.081 0 0)
(77.8543 -15.1296 0 135.753 0 0)
(78.7366 -16.7763 0 133.638 0 0)
(78.1885 -17.3731 0 131.437 0 0)
(0.268751 0.156153 0 190.278 0 0)
(2.2934 0.39025 0 195.954 0 0)
(5.96661 0.487742 0 190.057 0 0)
(11.0746 0.40894 0 187.914 0 0)
(17.1303 0.0721729 0 185.166 0 0)
(23.8011 -0.536205 0 181.994 0 0)
(30.7698 -1.40523 0 178.414 0 0)
(37.7409 -2.52719 0 174.659 0 0)
(44.4785 -3.87644 0 170.746 0 0)
(50.7765 -5.41586 0 166.825 0 0)
(56.4818 -7.10202 0 162.93 0 0)
(61.473 -8.86982 0 159.149 0 0)
(65.6745 -10.6648 0 155.51 0 0)
(69.0572 -12.4091 0 152.046 0 0)
(71.6137 -14.0266 0 148.778 0 0)
(73.3331 -15.496 0 145.731 0 0)
(74.5283 -16.7316 0 142.837 0 0)
(74.5732 -17.0517 0 139.84 0 0)
(0.259106 -0.142842 0 190.251 0 0)
(2.19594 -0.535429 0 195.885 0 0)
(5.69008 -0.939546 0 190.051 0 0)
(10.542 -1.49529 0 187.899 0 0)
(16.2822 -2.21614 0 185.194 0 0)
(22.593 -3.11883 0 182.029 0 0)
(29.1663 -4.19246 0 178.474 0 0)
(35.7296 -5.43133 0 174.722 0 0)
(42.0602 -6.80495 0 170.796 0 0)
(47.9804 -8.28473 0 166.841 0 0)
(53.3543 -9.82391 0 162.865 0 0)
(58.0936 -11.38 0 158.978 0 0)
(62.1371 -12.9001 0 155.163 0 0)
(65.4788 -14.341 0 151.498 0 0)
(68.1174 -15.6373 0 147.954 0 0)
(70.0583 -16.7963 0 144.614 0 0)
(71.5351 -17.7426 0 141.364 0 0)
(72.0694 -17.9466 0 138.032 0 0)
(0.255956 -0.396737 0 174.429 0 0)
(2.13682 -1.30766 0 179.383 0 0)
(5.49947 -2.12987 0 174.051 0 0)
(10.1616 -3.07896 0 172.058 0 0)
(15.6684 -4.1079 0 169.576 0 0)
(21.7152 -5.23743 0 166.685 0 0)
(28.0048 -6.46045 0 163.433 0 0)
(34.2826 -7.77389 0 160.008 0 0)
(40.3386 -9.14927 0 156.401 0 0)
(46.0164 -10.5668 0 152.771 0 0)
(51.1906 -11.9843 0 149.086 0 0)
(55.7931 -13.3756 0 145.478 0 0)
(59.7704 -14.6956 0 141.893 0 0)
(63.1268 -15.9211 0 138.44 0 0)
(65.8601 -17.0008 0 135.055 0 0)
(67.9878 -17.9499 0 131.852 0 0)
(69.6792 -18.707 0 128.696 0 0)
(70.5766 -18.894 0 125.495 0 0)
(0.257422 -0.545894 0 148.986 0 0)
(2.10909 -1.74879 0 152.945 0 0)
(5.38515 -2.82496 0 148.408 0 0)
(9.91976 -4.00894 0 146.69 0 0)
(15.27 -5.21308 0 144.568 0 0)
(21.14 -6.46239 0 142.114 0 0)
(27.2419 -7.74886 0 139.349 0 0)
(33.3338 -9.07433 0 136.443 0 0)
(39.216 -10.4115 0 133.37 0 0)
(44.7447 -11.7503 0 130.278 0 0)
(49.8048 -13.0526 0 127.12 0 0)
(54.3368 -14.3052 0 124.025 0 0)
(58.2948 -15.4688 0 120.929 0 0)
(61.6841 -16.5345 0 117.939 0 0)
(64.5039 -17.4586 0 114.989 0 0)
(66.7764 -18.2602 0 112.191 0 0)
(68.6267 -18.8888 0 109.417 0 0)
(69.7872 -19.0978 0 106.625 0 0)
(0.260294 -0.601636 0 120.075 0 0)
(2.10022 -1.89086 0 123.046 0 0)
(5.31922 -3.06941 0 119.397 0 0)
(9.76851 -4.34291 0 118.003 0 0)
(15.0139 -5.60158 0 116.296 0 0)
(20.7664 -6.87153 0 114.331 0 0)
(26.7446 -8.1425 0 112.118 0 0)
(32.7159 -9.41985 0 109.79 0 0)
(38.4878 -10.6782 0 107.326 0 0)
(43.925 -11.9145 0 104.841 0 0)
(48.9199 -13.0949 0 102.299 0 0)
(53.4181 -14.215 0 99.7991 0 0)
(57.3783 -15.2403 0 97.2936 0 0)
(60.8051 -16.1707 0 94.8675 0 0)
(63.699 -16.9693 0 92.4684 0 0)
(66.0848 -17.6558 0 90.1842 0 0)
(68.0572 -18.1891 0 87.9186 0 0)
(69.4164 -18.4243 0 85.6427 0 0)
(0.263243 -0.590803 0 91.9168 0 0)
(2.09991 -1.83096 0 94.0329 0 0)
(5.28152 -2.99814 0 91.2411 0 0)
(9.67399 -4.24897 0 90.1673 0 0)
(14.849 -5.46957 0 88.8677 0 0)
(20.5228 -6.68236 0 87.3725 0 0)
(26.4194 -7.87691 0 85.6914 0 0)
(32.3119 -9.05819 0 83.919 0 0)
(38.0137 -10.2055 0 82.0428 0 0)
(43.3947 -11.3176 0 80.1452 0 0)
(48.3532 -12.3676 0 78.2038 0 0)
(52.837 -13.3537 0 76.2887 0 0)
(56.8084 -14.2487 0 74.37 0 0)
(60.2707 -15.0549 0 72.5061 0 0)
(63.2255 -15.7443 0 70.6642 0 0)
(65.6999 -16.3319 0 68.9036 0 0)
(67.7667 -16.7884 0 67.1603 0 0)
(69.2787 -17.0376 0 65.4067 0 0)
(0.266327 -0.536971 0 66.9558 0 0)
(2.10377 -1.65162 0 68.3967 0 0)
(5.26026 -2.73186 0 66.3643 0 0)
(9.61503 -3.88508 0 65.5812 0 0)
(14.7427 -5.00492 0 64.6428 0 0)
(20.3643 -6.10728 0 63.5607 0 0)
(26.2074 -7.1841 0 62.3462 0 0)
(32.0489 -8.2373 0 61.0601 0 0)
(37.7068 -9.25206 0 59.7009 0 0)
(43.0543 -10.2259 0 58.3207 0 0)
(47.9937 -11.1397 0 56.9113 0 0)
(52.4744 -11.9909 0 55.5162 0 0)
(56.4609 -12.7601 0 54.1218 0 0)
(59.9552 -13.4492 0 52.7627 0 0)
(62.96 -14.0383 0 51.4222 0 0)
(65.5035 -14.537 0 50.1359 0 0)
(67.6428 -14.9268 0 48.8658 0 0)
(69.2727 -15.1744 0 47.5843 0 0)
(0.268161 -0.463048 0 46.305 0 0)
(2.10821 -1.41653 0 47.2441 0 0)
(5.24846 -2.36473 0 45.8429 0 0)
(9.5783 -3.37637 0 45.3047 0 0)
(14.6744 -4.3577 0 44.6634 0 0)
(20.2614 -5.31814 0 43.9194 0 0)
(26.0699 -6.25265 0 43.0851 0 0)
(31.8791 -7.15955 0 42.1976 0 0)
(37.5102 -8.02989 0 41.2618 0 0)
(42.8385 -8.85901 0 40.3084 0 0)
(47.7688 -9.63465 0 39.3381 0 0)
(52.2514 -10.3528 0 38.3752 0 0)
(56.2524 -11.0012 0 37.4154 0 0)
(59.7727 -11.5792 0 36.4771 0 0)
(62.8156 -12.0746 0 35.5536 0 0)
(65.4098 -12.4912 0 34.6642 0 0)
(67.6011 -12.8191 0 33.789 0 0)
(69.3169 -13.0493 0 32.9026 0 0)
(0.269337 -0.383227 0 30.1681 0 0)
(2.11178 -1.16516 0 30.7526 0 0)
(5.24177 -1.95911 0 29.8421 0 0)
(9.5549 -2.80836 0 29.4948 0 0)
(14.6297 -3.63224 0 29.0826 0 0)
(20.1935 -4.43694 0 28.6019 0 0)
(25.979 -5.21869 0 28.0626 0 0)
(31.7661 -5.97448 0 27.4868 0 0)
(37.3784 -6.6978 0 26.8806 0 0)
(42.6921 -7.38389 0 26.262 0 0)
(47.6141 -8.02423 0 25.6338 0 0)
(52.0941 -8.61467 0 25.0092 0 0)
(56.1004 -9.14726 0 24.388 0 0)
(59.6329 -9.62011 0 23.7792 0 0)
(62.6954 -10.0257 0 23.1809 0 0)
(65.3155 -10.3643 0 22.603 0 0)
(67.5337 -10.6314 0 22.0358 0 0)
(69.3025 -10.8289 0 21.4601 0 0)
(0.269655 -0.304722 0 18.2177 0 0)
(2.11355 -0.920178 0 18.562 0 0)
(5.23641 -1.55474 0 18.0112 0 0)
(9.53552 -2.23788 0 17.8051 0 0)
(14.5913 -2.90222 0 17.562 0 0)
(20.1331 -3.55237 0 17.2774 0 0)
(25.8941 -4.18357 0 16.9571 0 0)
(31.6557 -4.79252 0 16.614 0 0)
(37.2424 -5.37266 0 16.2522 0 0)
(42.5308 -5.92053 0 15.8821 0 0)
(47.4302 -6.42884 0 15.5054 0 0)
(51.8893 -6.89526 0 15.1301 0 0)
(55.8798 -7.31296 0 14.7565 0 0)
(59.3995 -7.68166 0 14.3897 0 0)
(62.4568 -7.99556 0 14.0291 0 0)
(65.0741 -8.25525 0 13.68 0 0)
(67.2954 -8.4599 0 13.3379 0 0)
(69.0917 -8.61023 0 12.991 0 0)
(0.269311 -0.228364 0 9.88537 0 0)
(2.11131 -0.691541 0 10.069 0 0)
(5.21921 -1.17911 0 9.77166 0 0)
(9.49206 -1.70901 0 9.66926 0 0)
(14.5177 -2.22357 0 9.54484 0 0)
(20.026 -2.72411 0 9.39561 0 0)
(25.7501 -3.20629 0 9.2249 0 0)
(31.4737 -3.66764 0 9.04063 0 0)
(37.0213 -4.1024 0 8.84484 0 0)
(42.2725 -4.50902 0 8.6438 0 0)
(47.136 -4.88191 0 8.43809 0 0)
(51.5649 -5.22124 0 8.23291 0 0)
(55.5302 -5.5212 0 8.02769 0 0)
(59.0336 -5.78402 0 7.82638 0 0)
(62.0827 -6.00356 0 7.62805 0 0)
(64.6991 -6.18341 0 7.43669 0 0)
(66.9241 -6.32651 0 7.24986 0 0)
(68.7538 -6.42852 0 7.0616 0 0)
(0.268175 -0.154865 0 4.48747 0 0)
(2.08444 -0.498046 0 4.58311 0 0)
(5.15789 -0.852648 0 4.45787 0 0)
(9.39121 -1.22913 0 4.42223 0 0)
(14.3912 -1.58626 0 4.37115 0 0)
(19.8741 -1.92865 0 4.30672 0 0)
(25.5716 -2.25366 0 4.22938 0 0)
(31.2693 -2.55903 0 4.14287 0 0)
(36.7938 -2.84319 0 4.04982 0 0)
(42.0244 -3.1073 0 3.95398 0 0)
(46.8711 -3.34845 0 3.85615 0 0)
(51.2908 -3.56752 0 3.75903 0 0)
(55.2503 -3.76074 0 3.66212 0 0)
(58.7597 -3.93021 0 3.56811 0 0)
(61.8153 -4.06978 0 3.47542 0 0)
(64.4505 -4.1848 0 3.38793 0 0)
(66.6726 -4.27526 0 3.30266 0 0)
(68.5305 -4.34528 0 3.21843 0 0)
(0.255259 -0.0882203 0 1.42145 0 0)
(2.06842 -0.313534 0 1.48719 0 0)
(5.20628 -0.52613 0 1.44712 0 0)
(9.49805 -0.73455 0 1.43397 0 0)
(14.5515 -0.924683 0 1.41385 0 0)
(20.0856 -1.10733 0 1.39058 0 0)
(25.8394 -1.28398 0 1.36393 0 0)
(31.5961 -1.4521 0 1.3346 0 0)
(37.1822 -1.61003 0 1.3036 0 0)
(42.4717 -1.7576 0 1.27198 0 0)
(47.378 -1.89331 0 1.24016 0 0)
(51.85 -2.01717 0 1.20874 0 0)
(55.8593 -2.12717 0 1.17769 0 0)
(59.4084 -2.22396 0 1.14771 0 0)
(62.4974 -2.30346 0 1.11844 0 0)
(65.1641 -2.36965 0 1.09195 0 0)
(67.3861 -2.42224 0 1.06672 0 0)
(69.236 -2.4617 0 1.03977 0 0)
(0.245935 -0.0253359 0 0.141889 0 0)
(2.06624 -0.0978442 0 0.153671 0 0)
(5.18519 -0.165599 0 0.150885 0 0)
(9.44615 -0.230858 0 0.149717 0 0)
(14.4809 -0.293765 0 0.147414 0 0)
(20.0023 -0.354101 0 0.144686 0 0)
(25.7496 -0.41292 0 0.141687 0 0)
(31.504 -0.469414 0 0.138555 0 0)
(37.0971 -0.522752 0 0.135332 0 0)
(42.4047 -0.57275 0 0.13208 0 0)
(47.3414 -0.619104 0 0.128822 0 0)
(51.8542 -0.66178 0 0.125619 0 0)
(55.917 -0.70021 0 0.122475 0 0)
(59.5248 -0.73425 0 0.11945 0 0)
(62.684 -0.763167 0 0.116624 0 0)
(65.4275 -0.788407 0 0.114286 0 0)
(67.7397 -0.806623 0 0.112211 0 0)
(69.6672 -0.815915 0 0.111826 0 0)
(0.0244855 0.0357781 0 0.717716 0 0)
(0.267299 0.0991614 0 0.678749 0 0)
(0.785584 0.181025 0 0.671563 0 0)
(1.53913 0.295163 0 0.662315 0 0)
(2.48614 0.42427 0 0.660704 0 0)
(3.60839 0.569174 0 0.657437 0 0)
(4.88396 0.716291 -2.38513e-19 0.655485 -6.4879e-20 1.47898e-37)
(6.31005 0.867232 2.42479e-19 0.65119 6.91863e-20 1.4835e-37)
(7.88001 1.01419 0 0.645184 0 0)
(9.59189 1.16161 2.44809e-19 0.637611 6.86023e-20 1.46128e-37)
(11.4405 1.30562 0 0.629026 0 0)
(13.4199 1.44846 0 0.619927 0 0)
(15.5235 1.58553 0 0.611961 0 0)
(17.7448 1.71718 -2.77249e-19 0.60548 -5.16891e-20 1.34767e-37)
(20.078 1.84026 0 0.599252 0 0)
(22.5232 1.95383 0 0.59401 0 0)
(25.0807 2.05371 3.40462e-19 0.5897 3.90193e-20 1.22111e-37)
(27.749 2.14152 0 0.585231 0 0)
(30.5232 2.21996 0 0.58055 0 0)
(33.3974 2.29127 0 0.576108 0 0)
(36.3557 2.35446 -4.56472e-19 0.572794 -1.9556e-20 1.01806e-37)
(39.3886 2.41026 0 0.569047 0 0)
(42.4823 2.45672 -5.1626e-19 0.566767 -1.0279e-20 9.25506e-38)
(45.6277 2.49369 0 0.567919 0 0)
(48.8087 2.52734 0 0.568625 0 0)
(52.011 2.55034 -6.04431e-19 0.57078 1.23221e-21 7.97902e-38)
(55.2277 2.55256 0 0.572625 0 0)
(58.4628 2.53525 6.58046e-19 0.571126 -6.94377e-21 7.21747e-38)
(61.7103 2.50435 0 0.563293 0 0)
(64.976 2.46166 -7.02763e-19 0.552912 1.05011e-20 6.54057e-38)
(68.2584 2.4098 0 0.539369 0 0)
(71.545 2.35122 0 0.52355 0 0)
(74.8283 2.28581 0 0.509503 0 0)
(78.1098 2.20983 0 0.498116 0 0)
(81.3832 2.12265 0 0.486563 0 0)
(84.6454 2.02719 7.79755e-19 0.47566 -1.40047e-20 4.59951e-38)
(87.8951 1.92332 0 0.464035 0 0)
(91.1333 1.8109 -1.56255e-18 0.447991 2.71597e-20 1.61366e-37)
(94.3587 1.69152 0 0.432396 0 0)
(97.5662 1.56403 1.55246e-18 0.417758 -2.6179e-20 1.39956e-37)
(100.749 1.43094 0 0.402614 0 0)
(103.907 1.28863 0 0.390956 0 0)
(107.03 1.13806 -1.51438e-18 0.3784 2.15723e-20 1.11263e-37)
(110.101 0.985234 0 0.365589 0 0)
(113.105 0.830442 -1.47585e-18 0.354785 1.82676e-20 9.43344e-38)
(116.027 0.672514 1.4534e-18 0.345934 -1.6534e-20 8.66449e-38)
(118.851 0.508787 0 0.339822 0 0)
(121.569 0.338849 1.4026e-18 0.335054 -1.25108e-20 7.3439e-38)
(124.166 0.163467 1.3744e-18 0.331165 -1.06451e-20 6.79799e-38)
(126.64 -0.0144201 0 0.327918 0 0)
(128.979 -0.193746 0 0.325796 0 0)
(131.163 -0.377317 0 0.32312 0 0)
(133.17 -0.565873 0 0.321911 0 0)
(134.982 -0.756727 0 0.323954 0 0)
(136.57 -0.946562 -1.17414e-18 0.328165 -4.39563e-21 5.01951e-38)
(137.908 -1.13784 0 0.332267 0 0)
(138.982 -1.3339 1.07951e-18 0.335947 1.14612e-20 4.75446e-38)
(139.797 -1.53659 0 0.341164 0 0)
(140.347 -1.74544 0 0.347955 0 0)
(140.617 -1.95141 -9.11754e-19 0.357277 -2.24643e-20 4.75436e-38)
(140.602 -2.15556 0 0.369261 0 0)
(140.284 -2.3606 7.80326e-19 0.38127 3.12489e-20 4.97103e-38)
(139.67 -2.56442 0 0.39156 0 0)
(138.756 -2.76816 0 0.404351 0 0)
(137.551 -2.97106 0 0.418518 0 0)
(136.067 -3.16673 -4.81979e-19 0.432924 -4.76096e-20 6.03638e-38)
(134.308 -3.3558 0 0.447649 0 0)
(132.286 -3.53851 0 0.460726 0 0)
(130.015 -3.7139 -2.26233e-19 0.474383 -6.12007e-20 7.3062e-38)
(127.515 -3.88707 0 0.489459 0 0)
(124.822 -4.05297 -5.06502e-20 0.504639 -6.98455e-20 8.30454e-38)
(121.947 -4.20644 0 0.520096 0 0)
(118.908 -4.34773 0 0.536099 0 0)
(115.735 -4.47825 0 0.553243 0 0)
(112.451 -4.59943 -3.05034e-19 0.57139 8.32114e-20 1.04557e-37)
(109.075 -4.70853 0 0.589482 0 0)
(105.623 -4.80232 0 0.607446 0 0)
(102.105 -4.88105 -5.64409e-19 0.625547 9.0339e-20 1.20191e-37)
(98.5371 -4.94912 -6.46229e-19 0.644332 9.18809e-20 1.25305e-37)
(94.9451 -5.0062 0 0.663145 0 0)
(91.3603 -5.05144 -7.99317e-19 0.682878 9.46529e-20 1.34727e-37)
(87.8038 -5.08556 0 0.704076 0 0)
(84.2961 -5.10781 -1.87831e-18 0.725645 1.92614e-19 5.74577e-37)
(80.8518 -5.11712 0 0.748299 0 0)
(77.4885 -5.11186 -2.12329e-18 0.770883 1.93738e-19 6.07734e-37)
(74.2243 -5.09016 0 0.793832 0 0)
(71.0734 -5.05538 2.32592e-18 0.819806 -1.93881e-19 6.36714e-37)
(68.0532 -5.00732 0 0.844838 0 0)
(65.1781 -4.94064 0 0.867152 0 0)
(62.4475 -4.85519 0 0.889859 0 0)
(59.8659 -4.75297 -2.5868e-18 0.914875 1.86263e-19 6.8002e-37)
(57.4389 -4.63649 0 0.939494 0 0)
(55.1758 -4.50396 2.64761e-18 0.96376 -1.79976e-19 6.94744e-37)
(53.0794 -4.35511 0 0.98751 0 0)
(51.1383 -4.18393 -2.65958e-18 1.01108 1.73651e-19 7.03556e-37)
(49.347 -3.99612 -2.6504e-18 1.03236 1.70413e-19 7.07052e-37)
(47.6934 -3.79542 -2.63146e-18 1.05354 1.66265e-19 7.09688e-37)
(46.1726 -3.58555 0 1.07585 0 0)
(44.7584 -3.36578 0 1.09896 0 0)
(43.4624 -3.13732 0 1.11853 0 0)
(42.2663 -2.9 0 1.13832 0 0)
(41.1642 -2.66063 0 1.15808 0 0)
(40.138 -2.42068 0 1.17711 0 0)
(39.1848 -2.17802 0 1.19224 0 0)
(38.2584 -1.93445 0 1.20816 0 0)
(37.3566 -1.69735 2.02444e-18 1.22336 -1.31594e-19 7.07599e-37)
(36.4463 -1.4688 1.91032e-18 1.24046 -1.24323e-19 7.06902e-37)
(35.5508 -1.24928 0 1.25199 0 0)
(34.6353 -1.0387 0 1.26499 0 0)
(33.7112 -0.851952 0 1.27912 0 0)
(32.7267 -0.675698 1.35423e-18 1.29184 -1.04824e-19 6.90738e-37)
(31.7831 -0.525746 0 1.29916 0 0)
(30.7728 -0.383903 0 1.30897 0 0)
(29.8196 -0.281607 0 1.31903 0 0)
(28.8972 -0.198551 0 1.33217 0 0)
(28.0744 -0.148667 -4.39649e-19 1.34044 7.56054e-20 6.65777e-37)
(27.3826 -0.122393 0 1.34957 0 0)
(26.8504 -0.131005 0 1.36297 0 0)
(26.5613 -0.173079 -2.23616e-19 1.37055 -6.50734e-20 6.42044e-37)
(26.5135 -0.241772 4.51035e-19 1.38359 6.09998e-20 6.29624e-37)
(26.763 -0.351572 0 1.40052 0 0)
(27.3628 -0.508048 9.13375e-19 1.41775 6.00823e-20 6.05028e-37)
(28.3776 -0.704668 0 1.4369 0 0)
(29.8699 -0.956816 -1.35432e-18 1.45458 -6.46107e-20 5.75416e-37)
(31.8605 -1.24287 0 1.47733 0 0)
(34.4235 -1.5788 0 1.50436 0 0)
(37.4579 -1.95695 0 1.5371 0 0)
(41.0745 -2.38574 0 1.57138 0 0)
(45.1256 -2.84057 0 1.60943 0 0)
(49.6168 -3.34197 4.89837e-18 1.65161 2.04661e-19 1.97173e-36)
(54.4835 -3.88738 5.15328e-18 1.69773 2.30597e-19 1.93693e-36)
(59.7447 -4.46845 0 1.7458 0 0)
(65.202 -5.07 0 1.80177 0 0)
(70.8161 -5.6968 0 1.85698 0 0)
(76.4379 -6.30924 -5.69321e-18 1.91789 -3.52244e-19 1.91697e-36)
(81.8393 -6.92322 0 1.98906 0 0)
(86.9835 -7.54449 0 2.06124 0 0)
(91.8131 -8.15873 0 2.13771 0 0)
(96.2523 -8.7514 -5.33117e-18 2.216 -5.33418e-19 2.07119e-36)
(100.283 -9.31814 5.09743e-18 2.29944 5.82084e-19 2.13299e-36)
(103.693 -9.83999 0 2.39019 0 0)
(106.601 -10.3493 0 2.48295 0 0)
(108.971 -10.8026 4.07881e-18 2.57748 7.35109e-19 2.365e-36)
(110.81 -11.2219 3.64982e-18 2.67084 7.8394e-19 2.45027e-36)
(111.965 -11.5658 0 2.77109 0 0)
(112.538 -11.8808 0 2.87098 0 0)
(112.419 -12.1229 -2.05258e-18 2.97491 -9.45376e-19 2.71813e-36)
(111.743 -12.347 1.42326e-18 3.06986 9.88963e-19 2.79685e-36)
(110.551 -12.5006 0 3.1666 0 0)
(108.644 -12.6003 0 3.26717 0 0)
(106.143 -12.6336 -5.20455e-19 3.35801 1.11674e-18 3.06747e-36)
(103.012 -12.6132 0 3.44845 0 0)
(99.5324 -12.5549 0 3.532 0 0)
(95.5469 -12.4061 -2.54623e-18 3.60446 1.20558e-18 3.29974e-36)
(91.2522 -12.1855 0 3.67645 0 0)
(86.635 -11.8539 -3.82963e-18 3.73787 1.25653e-18 3.44247e-36)
(81.7524 -11.4369 0 3.79354 0 0)
(76.6471 -10.902 0 3.83265 0 0)
(71.7054 -10.269 0 3.85672 0 0)
(66.8249 -9.47158 5.86725e-18 3.87545 -1.27724e-18 3.68063e-36)
(62.1672 -8.55489 0 3.87908 0 0)
(57.95 -7.48594 0 3.86693 0 0)
(54.4913 -6.29667 0 3.83905 0 0)
(51.6289 -4.91838 0 3.79716 0 0)
(49.5238 -3.45969 0 3.74669 0 0)
(48.798 -1.90741 0 3.67462 0 0)
(49.6342 -0.284942 6.01929e-18 3.58491 -1.10388e-18 3.72642e-36)
(51.6903 1.42761 5.60392e-18 3.48665 -1.04958e-18 3.70889e-36)
(55.3912 3.11905 0 3.37517 0 0)
(60.6453 4.74496 0 3.25731 0 0)
(67.4494 6.32434 0 3.12788 0 0)
(75.3804 7.79716 -3.05109e-18 2.99824 7.94866e-19 3.38281e-36)
(84.5041 9.09774 0 2.87008 0 0)
(94.0594 10.2854 2.94599e-18 2.73509 -1.35002e-18 1.23591e-35)
(103.944 11.2422 -1.30801e-18 2.6044 1.21725e-18 1.16577e-35)
(113.577 12.0323 3.19537e-19 2.47317 1.10474e-18 1.10158e-35)
(123.227 12.6826 -2.02246e-18 2.34844 -1.01398e-18 1.03307e-35)
(131.343 13.2234 3.67437e-18 2.22952 9.22572e-19 9.75658e-36)
(139.213 13.7002 -5.27873e-18 2.12227 -9.03277e-19 8.99242e-36)
(142.96 14.3927 0 2.06635 0 0)
(0.0183117 0.174288 0 6.09957 0 0)
(0.202748 0.388085 0 6.03743 0 0)
(0.629551 0.610132 1.31887e-19 5.86446 1.7574e-19 6.76568e-37)
(1.32717 0.854776 0 5.74346 0 0)
(2.2694 1.13419 -1.92616e-19 5.68352 -3.53475e-19 9.19664e-37)
(3.44574 1.43902 -1.84217e-19 5.65635 -4.41426e-19 9.72784e-37)
(4.83509 1.76363 -8.0796e-20 5.64102 -2.51448e-19 2.49035e-37)
(6.42318 2.10407 -6.90377e-20 5.62307 -2.70378e-19 2.61289e-37)
(8.20213 2.4531 0 5.59478 0 0)
(10.1699 2.80625 -4.21991e-20 5.5522 -2.69193e-19 2.59442e-37)
(12.3279 3.15475 0 5.5003 0 0)
(14.6742 3.49618 0 5.44062 0 0)
(17.2007 3.82539 9.48204e-20 5.37226 4.23798e-19 9.51194e-37)
(19.908 4.14192 6.96001e-20 5.3003 1.86896e-19 2.34149e-37)
(22.7855 4.43608 -1.85704e-19 5.22504 -3.26195e-19 8.93706e-37)
(25.8274 4.70786 -2.52048e-19 5.14677 -2.81124e-19 8.65981e-37)
(29.0221 4.95878 -1.71418e-19 5.06233 -1.1839e-19 2.12763e-37)
(32.3634 5.1903 0 4.97151 0 0)
(35.8395 5.40074 0 4.8758 0 0)
(39.4417 5.59459 0 4.7731 0 0)
(43.1467 5.77111 -3.87065e-19 4.66818 -3.66131e-20 1.80407e-37)
(46.9455 5.92762 0 4.56364 0 0)
(50.8153 6.05581 1.61041e-18 4.45702 -1.64437e-20 1.55188e-36)
(54.7434 6.15937 0 4.35392 0 0)
(58.7127 6.2399 0 4.24854 0 0)
(62.706 6.29753 7.75227e-19 4.14414 -5.7693e-20 1.56502e-37)
(66.6958 6.32895 0 4.038 0 0)
(70.6631 6.34345 -9.33318e-19 3.93725 8.17644e-20 1.45995e-37)
(74.5745 6.33467 -1.9942e-18 3.83716 1.81454e-19 5.57084e-37)
(78.4198 6.29743 1.07734e-18 3.73434 -9.86831e-20 1.36618e-37)
(82.1951 6.22872 0 3.6265 0 0)
(85.9002 6.13208 0 3.52117 0 0)
(89.5218 6.01 0 3.41781 0 0)
(93.0638 5.86355 -2.57679e-18 3.30966 2.22532e-19 4.71347e-37)
(96.5178 5.68722 -2.65498e-18 3.20218 2.20012e-19 4.5518e-37)
(99.8976 5.48131 -1.37363e-18 3.10116 1.07414e-19 1.10761e-37)
(103.212 5.24419 0 3.0092 0 0)
(106.453 4.97087 2.83787e-18 2.92104 -2.02609e-19 4.12832e-37)
(109.63 4.65933 0 2.83581 0 0)
(112.737 4.31891 -2.87441e-18 2.75426 1.88029e-19 3.81585e-37)
(115.781 3.95073 0 2.6739 0 0)
(118.759 3.56263 0 2.60175 0 0)
(121.677 3.15857 2.82733e-18 2.53083 -1.53755e-19 3.31708e-37)
(124.52 2.73561 0 2.46553 0 0)
(127.27 2.2872 8.15931e-18 2.40759 -3.92745e-19 2.68475e-36)
(129.925 1.80914 -2.68864e-18 2.3623 1.19013e-19 2.83734e-37)
(132.489 1.3058 0 2.33519 0 0)
(134.977 0.777336 -2.549e-18 2.31942 9.08335e-20 2.518e-37)
(137.374 0.216193 -2.46839e-18 2.31321 7.66196e-20 2.36236e-37)
(139.678 -0.371162 0 2.31556 0 0)
(141.866 -0.970196 0 2.329 0 0)
(143.92 -1.56679 0 2.34407 0 0)
(145.824 -2.15149 0 2.35762 0 0)
(147.542 -2.72864 0 2.38119 0 0)
(149.06 -3.30724 1.88347e-18 2.41393 1.45148e-20 1.72125e-37)
(150.357 -3.89477 3.45142e-18 2.4572 7.11394e-20 6.56015e-37)
(151.414 -4.48597 -1.64456e-18 2.50831 -5.59068e-20 1.60137e-37)
(152.242 -5.09548 0 2.56446 0 0)
(152.813 -5.70643 2.68741e-18 2.62759 1.90231e-19 6.01587e-37)
(153.1 -6.29681 -1.17019e-18 2.6957 -1.13256e-19 1.46899e-37)
(153.129 -6.88207 0 2.77244 0 0)
(152.851 -7.46135 -9.7831e-19 2.86234 -1.48647e-19 1.49541e-37)
(152.278 -8.01887 0 2.9556 0 0)
(151.403 -8.56708 0 3.05686 0 0)
(150.223 -9.09695 -1.04749e-18 3.16299 -3.97023e-19 6.25712e-37)
(148.725 -9.59798 4.22554e-19 3.27383 2.15297e-19 1.63792e-37)
(146.947 -10.0913 -4.8889e-19 3.39416 -4.62338e-19 6.68588e-37)
(144.884 -10.5632 2.11716e-19 3.51872 4.89249e-19 6.92376e-37)
(142.561 -11.0107 9.91232e-21 3.64442 2.54538e-19 1.82739e-37)