/*--------------------------------*- C++ -*----------------------------------*\
| =========                 |                                                 |
| \\      /  F ield         | OpenFOAM: The Open Source CFD Toolbox           |
|  \\    /   O peration     | Version:  dev                                   |
|   \\  /    A nd           | Web:      http://www.openfoam.org               |
|    \\/     M anipulation  |                                                 |
\*---------------------------------------------------------------------------*/
FoamFile
{
    version     2.0;
    format      ascii;
    class       volScalarField;
    object      k_0;
    location    "9.135";
}
// * * * * * * * * * * * * * * * * * * * * * * * * * * * * * * * * * * * * * //

dimensions      [0 2 -2 0 0 0 0];

internalField   nonuniform List<scalar> 
12225
(
9.52805
14.3058
13.7197
15.8849
17.9743
23.8352
26.4178
34.5818
36.2266
45.4907
46.8034
56.9443
57.5774
72.4361
68.6939
81.2133
151.593
99.0147
1.92354
5.74958
5.84731
6.34329
6.33649
7.18244
7.58085
9.11512
9.82212
11.5206
12.6882
14.3879
16.5822
17.9038
20.8821
21.9963
31.2192
38.8523
0.153273
1.25348
1.95944
3.15029
3.2605
3.90025
3.78997
4.3755
4.27054
4.72343
4.55399
4.80305
5.05377
4.96731
6.16423
4.08458
6.88523
7.06848
0.0131642
0.161784
0.44618
1.07276
1.19102
1.71978
1.79269
2.10183
2.27323
2.48792
2.39491
2.24971
2.29336
2.67591
2.65698
2.49554
3.39657
2.40691
0.00197417
0.021632
0.0968698
0.269519
0.37047
0.600655
0.762728
0.851161
1.05027
1.13527
1.19562
1.17498
1.35416
1.44989
2.24474
2.15558
2.27486
1.74535
0.000999299
0.00976692
0.0414447
0.10935
0.162826
0.280175
0.359502
0.423278
0.524279
0.634328
0.856342
0.950253
1.02917
1.31074
2.38739
2.33475
2.34008
1.875
0.00438855
0.0227445
0.0784122
0.119456
0.157793
0.203211
0.351668
0.373402
0.467485
0.848047
1.18983
1.18172
1.36372
1.73305
1.94723
2.39561
2.50189
1.93454
0.00564728
0.0254326
0.105344
0.125988
0.143834
0.271175
0.329772
0.450814
0.64508
0.98023
0.987154
1.07445
1.24827
1.17754
1.26053
0.92547
1.16705
1.07636
0.0120295
0.0246004
0.0815875
0.131228
0.190137
0.347965
0.377053
0.419817
0.525825
0.531684
0.596011
0.614955
0.681848
0.676739
0.642723
0.557716
0.593152
0.763737
0.0536667
0.0530864
0.152174
0.262484
0.299336
0.321122
0.376162
0.417406
0.421096
0.414727
0.431991
0.422751
0.467511
0.444054
0.479941
0.452436
0.45213
0.457718
0.116403
0.150041
0.218236
0.306422
0.317592
0.318578
0.321076
0.335782
0.353931
0.348648
0.347699
0.331096
0.333409
0.331327
0.338209
0.327284
0.306824
0.309183
0.108641
0.163419
0.197379
0.269328
0.288295
0.30932
0.311884
0.327083
0.32638
0.327671
0.327285
0.313783
0.297578
0.293798
0.285499
0.275574
0.255296
0.250785
0.150853
0.20716
0.233421
0.292364
0.309279
0.333698
0.336431
0.346721
0.345969
0.345929
0.340467
0.324588
0.305219
0.29077
0.278201
0.265901
0.245861
0.235369
0.239721
0.323277
0.370765
0.428103
0.436465
0.451031
0.449928
0.453235
0.450376
0.440552
0.417642
0.394984
0.363192
0.336577
0.310439
0.28837
0.261663
0.24042
0.410694
0.562999
0.652729
0.739385
0.763901
0.782222
0.782305
0.777726
0.749901
0.698719
0.64396
0.592668
0.528215
0.469901
0.415917
0.371131
0.324848
0.285541
0.667239
0.897335
0.983426
1.02613
1.03662
1.03604
1.0192
0.97128
0.904927
0.835282
0.763399
0.69301
0.620528
0.555456
0.49184
0.436015
0.381695
0.337467
0.836374
1.06798
1.12679
1.14247
1.14361
1.1374
1.10661
1.03985
0.965164
0.887832
0.808125
0.730582
0.653981
0.584778
0.516779
0.456759
0.398347
0.351232
0.837382
1.0732
1.13365
1.1507
1.15207
1.14542
1.11288
1.04388
0.968765
0.889738
0.808901
0.730837
0.653304
0.583456
0.514879
0.454646
0.395853
0.348546
0.697191
0.951089
1.03876
1.07223
1.0766
1.07192
1.05023
0.992964
0.924614
0.850593
0.773642
0.699898
0.626372
0.559539
0.493266
0.43552
0.379041
0.333321
0.45702
0.652653
0.756003
0.812379
0.839115
0.846235
0.844199
0.831841
0.795951
0.735486
0.67027
0.608741
0.547692
0.491883
0.435187
0.385398
0.335888
0.295533
0.284929
0.397898
0.460921
0.501658
0.523515
0.531113
0.531145
0.528492
0.52075
0.49319
0.45235
0.416548
0.379255
0.344945
0.308221
0.275098
0.241226
0.213462
0.14539
0.227174
0.283968
0.324348
0.346358
0.354662
0.355253
0.35285
0.34493
0.3243
0.292035
0.262516
0.236597
0.217616
0.199265
0.184087
0.167858
0.155035
0.0779369
0.119248
0.15541
0.184672
0.200232
0.203629
0.202995
0.200658
0.199046
0.196831
0.192
0.185251
0.17747
0.17229
0.165241
0.15869
0.149026
0.14112
0.0363685
0.0623566
0.0760346
0.0884803
0.100988
0.111175
0.12324
0.138434
0.152201
0.161574
0.165905
0.166773
0.166696
0.165778
0.163137
0.159628
0.152685
0.147611
0.0163294
0.0254046
0.0342622
0.0515452
0.0701471
0.0872623
0.108466
0.133626
0.156452
0.174304
0.187184
0.195615
0.200385
0.202899
0.203631
0.203703
0.202796
0.200032
0.00371176
0.0119792
0.027869
0.061262
0.0988277
0.135195
0.17795
0.227629
0.273646
0.310122
0.339855
0.359613
0.37234
0.382779
0.390158
0.394562
0.395656
0.394893
0.00225155
0.0287165
0.111277
0.254852
0.383325
0.483374
0.586031
0.69198
0.783934
0.850659
0.901779
0.931523
0.953506
0.970036
0.97971
0.981877
0.980156
0.972757
0.0247276
0.275322
0.849633
1.35402
1.70439
1.89409
2.03495
2.17435
2.29279
2.3689
2.42028
2.44424
2.447
2.44222
2.42384
2.37308
2.31834
2.27469
0.582836
2.88987
4.21762
4.61528
4.7472
4.8241
4.88341
4.93556
4.97129
5.00398
5.0394
5.04856
5.03994
5.00922
4.94727
4.8478
4.76485
4.64444
7.00113
11.7734
11.9379
11.1081
11.2674
11.9485
13.2741
14.6844
15.974
17.1343
18.1323
18.9132
19.5078
19.8734
20.097
20.0866
19.9713
19.5944
0.178001
0.220833
0.232668
0.234355
0.229941
0.230014
0.237144
0.256479
0.28283
0.325793
0.388684
0.470812
0.563182
0.672049
0.807546
0.970243
1.14688
1.33865
1.60055
2.01104
2.30315
2.42588
2.4886
2.59688
2.89195
3.35202
3.87753
4.36926
5.03506
5.93214
6.9408
7.9709
9.0269
10.1224
11.2433
12.3739
13.4963
14.5822
15.6245
16.6081
17.5261
18.361
19.0961
19.7563
20.4002
21.0016
21.5526
22.0873
22.6058
23.0756
23.4876
23.8697
24.1221
24.2582
24.3291
24.314
24.1
23.7424
23.2952
22.744
22.0373
21.3027
20.5886
19.8161
19.0718
18.4125
17.7499
17.089
16.4193
15.7356
15.0611
14.4012
13.789
13.1947
12.5914
11.9575
11.2693
10.5687
9.92653
9.35153
8.77833
8.18702
7.63453
7.15599
6.77039
6.41804
6.08259
5.71857
5.28979
4.77026
4.18559
3.71271
3.45792
3.30882
3.22545
3.03256
2.87461
2.82413
2.85044
2.87381
2.91198
2.96126
2.99077
3.18559
4.01481
5.62049
7.55678
9.40093
10.1589
10.3148
9.7225
8.45543
7.12766
5.96717
5.12082
4.14789
3.55101
3.23676
3.29137
3.60589
3.83988
4.53189
4.86917
4.52432
4.26872
4.66152
5.56361
6.15014
6.56116
7.10074
7.66948
8.22018
8.71292
9.23182
9.6796
9.99945
10.3139
10.583
10.8248
10.9293
10.9198
10.904
10.8101
10.718
10.4994
10.1562
9.74175
9.27479
8.82802
8.42089
8.10015
7.86913
7.52839
7.03019
6.59833
5.96636
5.00418
4.2822
4.42905
5.44082
7.50636
9.07586
9.72669
10.0157
10.3417
11.3177
13.1951
14.7222
16.3713
18.4933
22.255
23.1832
22.9193
22.2328
24.596
29.0327
27.1032
27.1358
27.7646
27.0313
0.672228
0.56551
0.472957
0.359869
0.272725
0.216431
0.182882
0.159561
0.146516
0.1424
0.142091
0.143927
0.149998
0.164287
0.189133
0.21844
0.25895
0.343041
0.433968
0.588692
0.792894
0.861696
0.896639
0.941638
1.1796
1.80192
2.43992
2.74464
3.06911
3.28042
3.41948
3.49666
3.52344
3.52864
3.49694
3.40611
3.28557
3.14984
2.98683
2.8341
2.70116
2.59739
2.56228
2.55725
2.57228
2.62161
2.71015
2.82067
2.9087
2.96222
3.00167
3.02962
3.02921
3.00927
2.94608
2.85787
2.73975
2.63268
2.54274
2.43199
2.39808
2.39436
2.41344
2.44686
2.53325
2.66075
2.76643
2.82656
2.85533
2.89045
2.93636
3.00221
3.12874
3.18037
3.17323
3.08361
2.89399
2.76628
2.71995
2.67915
2.61094
2.50326
2.46199
2.45512
2.52534
2.64438
2.6947
2.68528
2.59229
2.32853
1.81056
1.46782
1.36248
1.38763
1.49438
1.49217
1.43399
1.4692
1.57969
1.79682
2.37781
3.25544
3.74034
4.13647
4.72674
5.46806
6.00186
5.86068
5.20668
4.51519
3.69142
2.99491
2.53886
2.2475
2.03029
1.85793
1.80088
1.7788
1.96312
2.14448
2.31381
2.78479
3.33542
3.28194
2.9539
3.02161
3.53312
4.16603
4.46379
4.71236
5.09634
5.45897
5.64972
5.87448
6.06898
6.07587
6.11977
6.29658
6.5226
6.53337
6.59669
7.02456
7.46114
7.89722
8.10156
8.17603
8.1214
7.89117
7.56885
7.37646
7.2364
7.04728
6.77833
6.33427
5.87975
5.34161
4.43215
3.64448
3.50122
3.80421
4.76151
5.68041
6.16098
6.5965
7.50086
9.64479
10.759
10.7156
11.3282
13.5924
17.0548
15.155
11.2607
8.46472
8.01855
10.8789
11.5462
10.677
10.7786
11.2425
1.63749
1.0585
0.628421
0.382307
0.262899
0.203075
0.180594
0.169894
0.169546
0.172222
0.170768
0.16644
0.16469
0.171982
0.189638
0.197936
0.213493
0.261007
0.366473
0.496562
0.69266
1.08428
1.50505
1.65573
1.68493
1.69153
1.70163
1.68452
1.63865
1.55982
1.46774
1.36651
1.2546
1.13109
1.00974
0.893693
0.785338
0.689152
0.606427
0.539928
0.500045
0.480201
0.4757
0.475442
0.480684
0.496286
0.521047
0.541503
0.54768
0.550544
0.549944
0.544543
0.529204
0.506148
0.479535
0.456274
0.439023
0.42691
0.418392
0.416428
0.417662
0.429322
0.452461
0.478284
0.514189
0.56085
0.591894
0.613188
0.631147
0.651969
0.684834
0.734814
0.823873
0.890844
0.902953
0.889203
0.817199
0.788313
0.790295
0.80043
0.801125
0.794986
0.798975
0.83735
0.932151
1.08551
1.26619
1.37782
1.39635
1.33541
1.07883
0.803103
0.717034
0.708378
0.758265
0.792621
0.865078
1.13541
1.62822
2.32229
2.85368
3.26409
3.57509
3.82703
4.01314
3.84177
3.08835
2.60869
2.15992
1.79505
1.44843
1.28108
1.19336
1.14313
1.11228
1.1018
1.18316
1.31734
1.48288
1.66613
1.64504
1.95826
2.34774
2.33058
2.12538
2.01557
2.15334
2.45118
2.72088
2.85842
3.00241
3.12469
3.15953
3.26451
3.37946
3.37893
3.33292
3.35885
3.45615
3.43243
3.43399
3.61238
3.90424
4.29403
4.5614
4.80833
5.05303
5.15368
5.05638
5.04918
5.21248
5.41327
5.53503
5.25104
4.84144
4.41856
3.62762
3.01533
2.97614
3.34128
4.1179
4.77576
5.12706
5.49246
6.77386
7.54113
6.63454
5.73426
5.9874
7.44711
8.6259
6.22539
3.85149
2.99223
2.68044
3.85902
4.55152
4.05061
4.05886
4.49239
3.14738
1.43747
0.638911
0.305422
0.205721
0.186572
0.190418
0.21113
0.247825
0.274034
0.275446
0.275415
0.294818
0.351784
0.38086
0.389664
0.420732
0.545136
0.77409
0.963047
1.17306
1.27549
1.2915
1.24173
1.13565
1.00296
0.897406
0.837825
0.755649
0.658743
0.5819
0.508306
0.438094
0.378357
0.326816
0.285625
0.25624
0.232029
0.217257
0.208016
0.205563
0.204868
0.204897
0.205929
0.209109
0.214567
0.221108
0.225272
0.226082
0.226254
0.225736
0.224126
0.220842
0.216872
0.21471
0.214339
0.214778
0.218165
0.224392
0.230356
0.237433
0.248212
0.259892
0.270511
0.286931
0.307065
0.311392
0.312146
0.311517
0.311001
0.316944
0.334283
0.369128
0.403097
0.409956
0.405255
0.375503
0.365494
0.36819
0.378722
0.382343
0.382834
0.390396
0.412833
0.463211
0.549863
0.661298
0.792499
0.876501
0.895228
0.849311
0.722496
0.600487
0.565378
0.563601
0.637607
0.928906
1.50005
2.07687
2.44139
2.74293
2.87156
2.76158
2.69154
2.57956
2.21415
1.74568
1.44359
1.25093
1.10665
0.979993
0.922511
0.894257
0.87987
0.873996
0.906824
1.02524
1.18867
1.38089
1.51781
1.44777
1.57541
1.84125
1.91203
1.84932
1.7366
1.72771
1.8737
2.12731
2.16882
2.19047
2.24003
2.26551
2.36176
2.44615
2.45548
2.40791
2.40649
2.44433
2.41151
2.37995
2.44074
2.58318
2.79696
2.9667
3.12425
3.3804
3.60957
3.63196
3.65927
3.7755
4.01075
4.54624
4.70666
4.49714
4.10723
3.30786
2.77438
2.82616
3.31448
3.91934
4.24637
4.52121
5.04751
6.02612
5.61262
4.14188
3.52466
3.81644
4.4991
4.66713
3.2819
2.17906
2.00917
1.91771
2.30844
2.68651
2.52785
2.31322
2.43321
5.03792
1.52602
0.497572
0.23807
0.198717
0.219715
0.259017
0.303993
0.357756
0.374893
0.382448
0.413382
0.473762
0.540835
0.591667
0.649322
0.717999
0.800295
0.879225
0.929043
0.947979
0.923495
0.81384
0.672298
0.588033
0.508896
0.461195
0.398011
0.353027
0.305292
0.26523
0.235146
0.211126
0.190684
0.180092
0.173956
0.172214
0.171776
0.172268
0.174774
0.178113
0.180129
0.182651
0.184805
0.186415
0.187857
0.190883
0.192517
0.192557
0.192207
0.191402
0.190387
0.189857
0.189402
0.188768
0.188341
0.188349
0.190385
0.194779
0.198784
0.204246
0.212635
0.220393
0.225884
0.23393
0.247109
0.25713
0.259877
0.25652
0.245694
0.242004
0.244905
0.256338
0.270817
0.273391
0.270298
0.258353
0.255286
0.257314
0.262539
0.265025
0.26611
0.273438
0.286936
0.308959
0.345993
0.402436
0.488397
0.563841
0.59849
0.59997
0.562023
0.501682
0.478077
0.512418
0.686706
1.33082
1.88853
2.10118
2.2742
2.27251
2.04511
1.91419
1.85067
1.73028
1.44841
1.17085
1.0144
0.934424
0.889658
0.856993
0.829057
0.805849
0.797476
0.806377
0.848825
0.939357
1.0706
1.34789
1.48912
1.36757
1.36233
1.63948
1.74788
1.76915
1.67169
1.6986
1.8276
1.89435
1.84719
1.7938
1.81174
1.93963
2.02691
2.0566
2.06036
2.03529
2.04212
2.03273
1.98376
1.94388
1.94644
1.99847
2.11525
2.21907
2.30536
2.51364
2.74475
2.84308
2.95934
3.00737
3.13686
3.61657
4.08298
4.17692
3.96812
3.27259
2.7433
2.8213
3.3287
3.71646
3.88349
3.9805
4.56757
5.04126
4.15801
2.9459
2.72128
2.94666
3.26594
3.18036
2.42025
1.7273
1.7419
1.71101
1.89974
2.23923
2.19568
2.06416
1.8123
6.81422
1.51186
0.410447
0.232482
0.235675
0.274838
0.296535
0.328585
0.380886
0.406981
0.423299
0.457124
0.500258
0.543637
0.588248
0.636221
0.676214
0.689932
0.688356
0.654215
0.568055
0.483527
0.437529
0.375412
0.312061
0.273872
0.246891
0.222171
0.198202
0.18496
0.170531
0.162264
0.159058
0.157772
0.157528
0.158627
0.162528
0.167956
0.172978
0.178926
0.184541
0.190004
0.19518
0.199591
0.201209
0.201978
0.20276
0.202748
0.201671
0.199456
0.195967
0.192096
0.189053
0.187643
0.18613
0.183924
0.181679
0.179777
0.178641
0.177826
0.177841
0.180113
0.185276
0.193217
0.205096
0.213174
0.218715
0.227092
0.233454
0.230958
0.216776
0.212273
0.2139
0.220896
0.224538
0.223788
0.220411
0.219014
0.219365
0.220531
0.221625
0.225746
0.234813
0.244091
0.25525
0.270814
0.300383
0.357959
0.398812
0.415084
0.418127
0.41894
0.426947
0.444817
0.548623
0.913727
1.64286
1.91277
1.98543
1.82481
1.65988
1.47484
1.38585
1.33676
1.22709
1.04652
0.909111
0.862724
0.851766
0.847494
0.836939
0.810296
0.780617
0.76731
0.765598
0.765832
0.784796
0.901292
1.22407
1.44218
1.36143
1.3225
1.60873
1.6879
1.66214
1.61874
1.66776
1.71347
1.7296
1.65126
1.58243
1.72069
1.87198
1.88136
1.87618
1.85934
1.92426
1.94093
1.86229
1.8103
1.79466
1.79712
1.79088
1.81294
1.84627
1.90381
2.1124
2.23969
2.34816
2.49304
2.57419
2.64712
2.99892
3.47735
3.761
3.72253
3.26736
2.75134
2.82816
3.32125
3.51831
3.62995
3.66018
3.8821
4.07394
3.21412
2.32574
2.21496
2.27729
2.55756
2.55527
2.10231
1.5457
1.3997
1.49067
1.779
2.01498
2.02864
1.96533
1.72691
8.38763
1.57837
0.396286
0.243074
0.25019
0.284277
0.299421
0.329551
0.382625
0.416806
0.435342
0.462641
0.493269
0.515866
0.521327
0.517379
0.500378
0.462862
0.419571
0.385775
0.349397
0.303305
0.267196
0.235254
0.206392
0.185843
0.175699
0.166701
0.156949
0.153904
0.152646
0.152358
0.152847
0.155084
0.158925
0.163076
0.169237
0.177455
0.187135
0.196789
0.20707
0.216599
0.22475
0.231042
0.234797
0.235678
0.235428
0.234171
0.232104
0.22986
0.225727
0.218901
0.208156
0.198545
0.191808
0.185267
0.180199
0.174917
0.169926
0.163607
0.161225
0.160942
0.161849
0.165912
0.176036
0.188711
0.194696
0.196143
0.201644
0.204886
0.203713
0.19646
0.196712
0.202439
0.207208
0.206679
0.20449
0.202817
0.200769
0.200277
0.201999
0.209255
0.219901
0.228144
0.236612
0.249666
0.274784
0.296352
0.305698
0.310689
0.317537
0.341739
0.381279
0.460288
0.706328
1.24131
1.67945
1.83622
1.66645
1.41162
1.20998
1.10549
1.0608
1.02811
0.964859
0.894743
0.849221
0.835576
0.840025
0.832095
0.808823
0.775132
0.730659
0.710926
0.704068
0.680204
0.689736
0.773344
1.06311
1.41996
1.40796
1.33205
1.63648
1.63824
1.54358
1.55316
1.60396
1.55956
1.51838
1.49651
1.56792
1.7616
1.84887
1.82679
1.7424
1.76537
1.87174
1.90099
1.81038
1.77364
1.7498
1.69495
1.61372
1.59003
1.61422
1.73833
1.95995
2.02572
2.07143
2.18055
2.27334
2.30169
2.57681
2.967
3.30692
3.46412
3.21779
2.76704
2.84207
3.2759
3.45139
3.35359
3.42333
3.52063
3.47966
2.72904
2.13575
1.91563
1.83325
2.00526
2.03427
1.84004
1.51956
1.42982
1.48392
1.72082
1.81201
1.78604
1.7661
1.64692
9.88773
1.73052
0.406706
0.244684
0.248914
0.28373
0.299675
0.326178
0.372447
0.405852
0.423839
0.432576
0.427017
0.404036
0.372353
0.344742
0.325572
0.306612
0.283287
0.261079
0.238282
0.211616
0.188055
0.170473
0.159922
0.151335
0.147901
0.146409
0.145964
0.146382
0.148142
0.151826
0.155555
0.161026
0.169798
0.181105
0.19285
0.203662
0.212683
0.220289
0.22662
0.23426
0.243246
0.252712
0.262012
0.269157
0.271152
0.271632
0.269402
0.262798
0.25315
0.247627
0.241986
0.231898
0.219256
0.205543
0.191621
0.181609
0.169879
0.163532
0.1572
0.156043
0.155866
0.157868
0.1657
0.178139
0.186953
0.187175
0.187605
0.192044
0.192339
0.191133
0.191098
0.198298
0.203851
0.202787
0.19684
0.190216
0.189031
0.189383
0.191716
0.196263
0.206933
0.219845
0.230543
0.237844
0.243747
0.246694
0.247655
0.260398
0.279713
0.30484
0.341648
0.479569
0.941368
1.40743
1.62532
1.61597
1.34464
1.15912
0.987889
0.903889
0.867842
0.847082
0.831807
0.823482
0.814484
0.807621
0.803369
0.755823
0.68223
0.634085
0.585319
0.571159
0.597858
0.63585
0.639459
0.693908
0.946424
1.36789
1.43568
1.42329
1.68298
1.62092
1.42783
1.47461
1.5157
1.4752
1.41772
1.46318
1.614
1.76455
1.7814
1.69497
1.64998
1.74634
1.84762
1.80877
1.69661
1.70493
1.5958
1.42731
1.37255
1.40164
1.52345
1.69865
1.90361
1.94265
1.90553
1.98177
2.0367
2.02592
2.24114
2.55751
2.87719
3.20734
3.07576
2.76945
2.85394
3.19676
3.34042
3.07502
3.05515
3.30454
3.2217
2.65349
2.15518
1.87759
1.71829
1.73824
1.67293
1.52311
1.40384
1.39117
1.40021
1.58466
1.72721
1.67562
1.55831
1.50716
11.6618
2.14994
0.489124
0.244871
0.237332
0.270132
0.288141
0.304217
0.332612
0.356216
0.36032
0.344481
0.311211
0.279786
0.268381
0.258863
0.242247
0.226256
0.20789
0.192146
0.177433
0.165029
0.154702
0.14721
0.143772
0.142594
0.14239
0.142732
0.144127
0.147563
0.152535
0.160076
0.170857
0.182614
0.19317
0.201077
0.20711
0.21181
0.216565
0.220601
0.223661
0.226881
0.232094
0.240516
0.250675
0.263715
0.272699
0.275037
0.274971
0.269177
0.257349
0.24698
0.24234
0.237095
0.226567
0.216979
0.202107
0.193193
0.177764
0.168755
0.159286
0.156678
0.155845
0.15618
0.161565
0.174651
0.186385
0.188145
0.186613
0.18985
0.192839
0.192201
0.191961
0.198296
0.204597
0.203698
0.194078
0.18396
0.182976
0.184315
0.186484
0.188194
0.193215
0.203883
0.211938
0.213505
0.213343
0.213688
0.226398
0.250874
0.271555
0.289652
0.334655
0.517799
1.11969
1.40566
1.4995
1.31198
1.12099
1.00574
0.839144
0.755289
0.719544
0.704614
0.703486
0.710859
0.69896
0.688162
0.655964
0.585605
0.523774
0.483732
0.461707
0.458362
0.474731
0.534586
0.605249
0.676982
0.872998
1.19212
1.44601
1.47723
1.69863
1.60534
1.33159
1.3369
1.36058
1.36012
1.32739
1.38439
1.57725
1.68893
1.70075
1.65036
1.66396
1.77533
1.84864
1.63249
1.5593
1.52302
1.26919
1.15623
1.16669
1.29429
1.47449
1.65067
1.79743
1.80294
1.8156
1.88088
1.86839
1.85238
2.00932
2.25582
2.54038
2.94934
2.91864
2.75526
2.85907
3.08595
3.11194
2.81285
2.61994
2.8683
2.94349
2.53439
2.10976
1.8235
1.67836
1.67173
1.6181
1.35181
1.19645
1.17286
1.24965
1.40471
1.57279
1.53539
1.44274
1.41209
13.9846
2.73279
0.654547
0.267015
0.237708
0.265871
0.288781
0.302433
0.311811
0.309925
0.285188
0.255876
0.24002
0.229218
0.215599
0.195639
0.179345
0.169763
0.165037
0.159574
0.15306
0.146962
0.143505
0.142379
0.14194
0.141835
0.142206
0.144176
0.148225
0.155142
0.164467
0.174386
0.183621
0.191623
0.198465
0.20357
0.206175
0.206411
0.205368
0.202815
0.199627
0.198609
0.198838
0.200441
0.20577
0.217052
0.238621
0.261184
0.267534
0.267174
0.257335
0.238585
0.224326
0.215444
0.20644
0.201002
0.195399
0.1914
0.183925
0.177129
0.168094
0.160391
0.159449
0.160077
0.162577
0.174782
0.188697
0.192751
0.190758
0.191252
0.201343
0.20295
0.200945
0.200378
0.203486
0.202355
0.195274
0.184234
0.181808
0.181657
0.181951
0.181441
0.187311
0.191649
0.194329
0.197219
0.198457
0.205234
0.225501
0.249861
0.269492
0.286876
0.340333
0.60914
1.22298
1.38592
1.28165
1.04817
0.929839
0.849752
0.709656
0.653481
0.63977
0.639868
0.644938
0.633038
0.603071
0.5831
0.537519
0.490303
0.446466
0.418521
0.401735
0.403006
0.425961
0.46731
0.538505
0.645596
0.800941
1.0886
1.37383
1.42747
1.45612
1.46113
1.3178
1.28629
1.2181
1.18301
1.1985
1.30521
1.46395
1.59854
1.72935
1.71
1.76684
1.76827
1.74497
1.44691
1.42443
1.31948
1.09662
1.03856
1.12102
1.27918
1.34403
1.46232
1.51418
1.61757
1.78338
1.80632
1.72106
1.74737
1.86876
2.05422
2.2736
2.68441
2.77254
2.68996
2.85951
2.99391
2.85444
2.55892
2.27082
2.39106
2.55046
2.23306
1.84868
1.64584
1.64814
1.69479
1.66252
1.38578
1.12133
1.12222
1.24206
1.33478
1.41018
1.4676
1.42222
1.38014
16.5637
3.3039
0.848358
0.327665
0.265397
0.279884
0.299427
0.311962
0.315124
0.305965
0.268963
0.244954
0.236193
0.23145
0.202744
0.172909
0.163711
0.160375
0.154645
0.147815
0.144812
0.143575
0.143125
0.142953
0.142973
0.143791
0.145789
0.149897
0.156296
0.163524
0.170847
0.178084
0.185256
0.192415
0.198805
0.200844
0.201106
0.201003
0.199802
0.196667
0.194116
0.193458
0.193218
0.192928
0.193276
0.194703
0.199355
0.212523
0.242874
0.266275
0.268014
0.257823
0.236252
0.211453
0.196719
0.188666
0.185448
0.18463
0.184977
0.183723
0.181651
0.176505
0.165607
0.164331
0.165341
0.172177
0.188188
0.199546
0.201436
0.199347
0.204118
0.209962
0.210331
0.208773
0.207706
0.205941
0.200211
0.190591
0.182521
0.179811
0.178925
0.179147
0.181152
0.186537
0.189027
0.195089
0.198213
0.204829
0.223631
0.247916
0.266198
0.289202
0.359937
0.710992
1.26484
1.35586
1.12036
0.881414
0.78539
0.708711
0.617887
0.592864
0.595752
0.608948
0.621478
0.589202
0.55837
0.518214
0.465834
0.435565
0.41127
0.398928
0.387053
0.382118
0.393423
0.412639
0.449771
0.557383
0.71845
0.915778
1.08988
1.11711
1.04405
1.20549
1.32433
1.29418
1.17257
1.09114
1.15316
1.28348
1.40067
1.59553
1.79424
1.76736
1.72033
1.6608
1.4721
1.31969
1.30028
1.20922
1.03679
1.02909
1.13754
1.23591
1.20598
1.25791
1.36355
1.56718
1.78569
1.75941
1.60761
1.66017
1.75057
1.89671
2.05486
2.43388
2.6243
2.60401
2.847
2.95338
2.6343
2.28148
2.04371
2.0289
2.15319
1.91711
1.62228
1.51675
1.58131
1.70522
1.69305
1.47151
1.13464
1.09452
1.16663
1.28799
1.37869
1.49139
1.43179
1.38714
19.3782
3.84457
1.05015
0.499395
0.406667
0.393375
0.386658
0.374828
0.360468
0.331307
0.286848
0.273774
0.281543
0.259753
0.196283
0.176194
0.175308
0.168615
0.157301
0.152925
0.149958
0.14639
0.144744
0.143987
0.143692
0.144653
0.147966
0.153427
0.159714
0.165837
0.172156
0.178257
0.185373
0.193188
0.197468
0.198777
0.199494
0.199919
0.199953
0.198567
0.194845
0.191937
0.190994
0.1898
0.189514
0.190774
0.191499
0.195342
0.203548
0.222488
0.255825
0.267035
0.263055
0.244636
0.212164
0.194756
0.189853
0.18766
0.186267
0.186017
0.185832
0.185586
0.181922
0.172447
0.169783
0.170298
0.17836
0.190684
0.201864
0.204223
0.205459
0.210914
0.212005
0.21138
0.211802
0.212261
0.207606
0.198834
0.186842
0.179456
0.175771
0.176097
0.17736
0.182042
0.185632
0.19163
0.198778
0.204025
0.220948
0.243148
0.265458
0.298674
0.402012
0.838086
1.26499
1.32407
1.01008
0.767777
0.674567
0.611026
0.556166
0.541269
0.549023
0.573297
0.56743
0.526949
0.502219
0.456022
0.430389
0.421015
0.406884
0.396043
0.385747
0.375848
0.369825
0.375681
0.413727
0.498222
0.600094
0.709064
0.921998
0.929449
0.824621
1.02056
1.34556
1.37376
1.16412
1.05889
1.10303
1.20532
1.39164
1.63223
1.76917
1.73998
1.63091
1.44795
1.31045
1.24569
1.24814
1.1532
1.00373
1.02497
1.12311
1.15278
1.1212
1.19121
1.36325
1.60165
1.83669
1.75301
1.53559
1.60812
1.67618
1.76506
1.88347
2.19649
2.48082
2.50867
2.8046
2.92878
2.5067
2.0475
1.85685
1.79721
1.83257
1.65669
1.45556
1.40738
1.51563
1.67668
1.67643
1.50684
1.15879
0.980072
1.00293
1.15881
1.31651
1.48865
1.45712
1.41381
21.7367
4.3404
1.49238
1.04296
0.955452
0.879663
0.764012
0.642415
0.544836
0.455036
0.377232
0.335141
0.317262
0.281228
0.244796
0.209537
0.184959
0.171483
0.16577
0.163268
0.160654
0.156299
0.152454
0.148561
0.145829
0.145336
0.148042
0.153416
0.159554
0.165049
0.170657
0.176308
0.182867
0.190168
0.193541
0.194072
0.194013
0.192939
0.191576
0.190252
0.188729
0.187824
0.185375
0.183693
0.183439
0.183463
0.186252
0.19062
0.19561
0.19885
0.207558
0.229581
0.261427
0.266541
0.255511
0.221233
0.201954
0.199789
0.201819
0.202895
0.195855
0.190919
0.190456
0.181565
0.17093
0.167665
0.168848
0.177919
0.18685
0.198688
0.200907
0.205613
0.209535
0.210201
0.209128
0.209947
0.207544
0.200978
0.189754
0.180995
0.174759
0.173601
0.174359
0.177445
0.185225
0.191402
0.20059
0.203975
0.214963
0.234231
0.268093
0.335872
0.525348
0.959144
1.24982
1.2434
0.894901
0.669314
0.589192
0.551981
0.531009
0.53129
0.528099
0.525261
0.508084
0.487997
0.475598
0.449964
0.433304
0.428474
0.423172
0.418881
0.408583
0.391721
0.376015
0.37355
0.387155
0.426973
0.50068
0.586571
0.744629
0.833401
0.72086
0.878056
1.28721
1.46357
1.223
1.0376
1.06352
1.19482
1.44293
1.63207
1.63784
1.66325
1.53968
1.32666
1.21341
1.20469
1.23016
1.15284
0.995532
1.02516
1.16548
1.18523
1.1069
1.20233
1.5704
1.73443
1.84042
1.68707
1.46118
1.59492
1.63331
1.66926
1.74768
1.99343
2.33258
2.39602
2.73025
2.84741
2.45967
1.94371
1.742
1.69123
1.63317
1.50271
1.37936
1.37213
1.48707
1.6512
1.66135
1.55818
1.227
0.97776
0.984639
1.09831
1.22679
1.46961
1.48616
1.44336
23.8661
5.62968
2.95166
2.63383
2.49904
2.2701
1.96469
1.59828
1.24904
0.951127
0.75057
0.580494
0.44197
0.353783
0.296541
0.25564
0.218345
0.180964
0.165326
0.163956
0.163092
0.158759
0.153714
0.150212
0.147317
0.146217
0.146722
0.150786
0.156954
0.162447
0.165938
0.169866
0.174726
0.180438
0.182419
0.181995
0.180399
0.178496
0.17761
0.175994
0.174999
0.17567
0.179897
0.181637
0.181879
0.177352
0.175879
0.175804
0.181974
0.191614
0.192724
0.188511
0.193072
0.232201
0.253971
0.245715
0.212712
0.203423
0.205529
0.220562
0.226457
0.215439
0.201145
0.192566
0.178805
0.169024
0.161595
0.160388
0.161302
0.170486
0.176923
0.178406
0.183513
0.188294
0.186827
0.187469
0.190573
0.1914
0.185761
0.178988
0.173735
0.172206
0.17503
0.178046
0.186241
0.19294
0.201264
0.203428
0.210157
0.229331
0.278246
0.404335
0.673027
1.04707
1.23346
1.15763
0.782814
0.587302
0.531829
0.516452
0.524027
0.535809
0.524974
0.495464
0.477521
0.471673
0.463515
0.444921
0.431019
0.425563
0.421859
0.414461
0.40687
0.397159
0.378277
0.370385
0.371799
0.388122
0.424004
0.52502
0.618856
0.699735
0.678479
0.734651
1.0561
1.5022
1.41614
1.08485
1.07708
1.27288
1.46518
1.53718
1.51479
1.52549
1.44474
1.23771
1.18361
1.26599
1.55302
1.55585
1.2754
1.1979
1.36158
1.29448
1.11415
1.25883
1.86772
1.76464
1.6373
1.48179
1.4006
1.61919
1.61553
1.61055
1.63522
1.83435
2.1804
2.2948
2.61823
2.71539
2.37369
1.91871
1.72062
1.6553
1.5693
1.45492
1.38195
1.39298
1.44929
1.53895
1.61321
1.5523
1.32032
1.00154
0.932
1.00996
1.12702
1.42014
1.54455
1.4968
27.6554
8.92092
6.10879
4.49592
3.57664
3.00559
2.7313
2.49938
2.29558
1.97554
1.58023
1.29113
0.987507
0.69697
0.483675
0.339884
0.249648
0.199045
0.185241
0.186723
0.18222
0.17092
0.161235
0.155231
0.150916
0.14748
0.145315
0.145505
0.147838
0.151196
0.15484
0.157125
0.160356
0.164286
0.169632
0.172952
0.174252
0.174605
0.17463
0.17293
0.170102
0.168751
0.169768
0.171233
0.171032
0.172226
0.173653
0.173637
0.169574
0.170292
0.175418
0.175349
0.170208
0.174958
0.204676
0.220086
0.210592
0.19322
0.193786
0.215404
0.236352
0.23809
0.225314
0.215681
0.200267
0.181726
0.162318
0.154814
0.151712
0.14695
0.150709
0.153097
0.153749
0.162565
0.172555
0.173299
0.173036
0.172771
0.171842
0.169846
0.16958
0.167733
0.170673
0.175329
0.185377
0.192909
0.202448
0.203982
0.208427
0.227202
0.28529
0.447887
0.777723
1.0934
1.2157
1.10168
0.700519
0.527869
0.497324
0.50078
0.52514
0.541668
0.513359
0.475917
0.461777
0.458846
0.452081
0.43893
0.428
0.416861
0.408193
0.398024
0.381864
0.37051
0.3554
0.348415
0.35304
0.366998
0.372555
0.462845
0.533849
0.598619
0.657614
0.694997
0.895811
1.41146
1.54061
1.31953
1.23714
1.3588
1.4479
1.44927
1.36219
1.40636
1.37511
1.22276
1.30437
1.68148
2.12121
2.06439
1.82991
1.51846
1.49236
1.4063
1.21005
1.35432
1.91877
1.70109
1.40249
1.35842
1.37847
1.693
1.62531
1.59225
1.54032
1.698
2.05069
2.18733
2.51019
2.57282
2.23075
1.86226
1.69505
1.63564
1.55367
1.43474
1.40297
1.41708
1.43017
1.4392
1.46834
1.48643
1.33456
1.02785
0.907501
0.948307
1.04719
1.31984
1.57933
1.59331
35.4004
15.2108
7.34571
4.61783
3.36004
2.55161
2.36393
2.30903
2.31871
2.27159
2.09165
1.95602
1.78055
1.37044
0.905452
0.578002
0.38991
0.2699
0.20797
0.187325
0.174949
0.16454
0.15724
0.152642
0.148042
0.142377
0.137156
0.134589
0.134122
0.13651
0.141348
0.146561
0.153079
0.157528
0.16444
0.169154
0.171512
0.173009
0.172795
0.170902
0.167049
0.166576
0.168799
0.171511
0.170117
0.169577
0.171616
0.171866
0.170865
0.172606
0.172381
0.165316
0.156745
0.156879
0.172229
0.183358
0.179087
0.168118
0.165006
0.177584
0.218514
0.237407
0.234759
0.222971
0.214492
0.197388
0.180465
0.153874
0.143666
0.139749
0.13852
0.140766
0.145502
0.150685
0.166665
0.168758
0.167303
0.166852
0.167069
0.165656
0.166509
0.16639
0.167322
0.171802
0.184226
0.193085
0.203343
0.205183
0.208425
0.22633
0.286639
0.460228
0.821362
1.11662
1.20314
1.07301
0.67208
0.496519
0.477839
0.495637
0.526807
0.539056
0.483167
0.445424
0.440002
0.436672
0.425
0.423972
0.423409
0.419564
0.418133
0.412637
0.384866
0.350624
0.325495
0.314823
0.312659
0.331358
0.357101
0.402515
0.4712
0.528191
0.606438
0.677975
0.834496
1.13809
1.55523
1.47705
1.41021
1.4162
1.43609
1.29485
1.166
1.33966
1.53018
1.60352
1.53914
1.87539
2.19213
2.15542
2.11979
1.81976
1.57019
1.43347
1.25889
1.36955
1.79697
1.55277
1.33629
1.33428
1.37208
1.72669
1.63779
1.58964
1.4844
1.58897
1.94953
2.09836
2.37567
2.4185
2.10515
1.75261
1.59965
1.58355
1.51325
1.40333
1.39977
1.41226
1.42504
1.37152
1.31055
1.32346
1.28185
1.04608
0.914709
0.939296
1.01765
1.20629
1.57541
1.71705
49.003
18.2482
6.48502
3.06865
1.79265
1.17541
1.12852
1.12841
1.25717
1.58828
1.79772
1.85163
1.82107
1.65967
1.46695
1.25029
0.875666
0.503002
0.295984
0.205115
0.172228
0.160455
0.151789
0.142824
0.137127