/*--------------------------------*- C++ -*----------------------------------*\
| =========                 |                                                 |
| \\      /  F ield         | OpenFOAM: The Open Source CFD Toolbox           |
|  \\    /   O peration     | Version:  dev                                   |
|   \\  /    A nd           | Web:      http://www.openfoam.org               |
|    \\/     M anipulation  |                                                 |
\*---------------------------------------------------------------------------*/
FoamFile
{
    version     2.0;
    format      ascii;
    class       volScalarField;
    object      muSgs;
    location    "9.135";
}
// * * * * * * * * * * * * * * * * * * * * * * * * * * * * * * * * * * * * * //

dimensions      [1 -1 -1 0 0 0 0];

internalField   nonuniform List<scalar> 
12225
(
0.000209983
0.000253882
0.000242391
0.000253488
0.000261722
0.000293106
0.00030019
0.000334197
0.000333766
0.000364237
0.000360931
0.000388555
0.000381261
0.000420015
0.000398127
0.000413502
0.000575055
0.000462539
9.8697e-05
0.000170592
0.000169289
0.00017424
0.000171107
0.00018036
0.000181208
0.000197467
0.000199265
0.000215187
0.000218764
0.000231113
0.000241916
0.000247835
0.000268506
0.00027168
0.000311546
0.000365747
2.78977e-05
8.1683e-05
9.99458e-05
0.000126014
0.000125983
0.000136809
0.000132194
0.000140803
0.000136275
0.000143005
0.000136864
0.00013828
0.000140041
0.00013562
0.000158712
0.000124716
0.000166033
0.000188604
8.51314e-06
2.97658e-05
4.88602e-05
7.63828e-05
7.93834e-05
9.44442e-05
9.48083e-05
0.000100926
0.000103347
0.000108727
0.000104934
9.94964e-05
9.81367e-05
0.000104277
0.000104672
0.00010303
0.000120971
9.76309e-05
3.45977e-06
1.14347e-05
2.38936e-05
3.97646e-05
4.64008e-05
5.79077e-05
6.46796e-05
6.68435e-05
7.40573e-05
7.54882e-05
7.77694e-05
7.55763e-05
7.94418e-05
8.07083e-05
0.000104667
9.86784e-05
9.78974e-05
8.87478e-05
3.03845e-06
8.50997e-06
1.719e-05
2.69359e-05
3.26485e-05
4.13818e-05
4.70171e-05
5.01976e-05
5.54157e-05
6.00789e-05
6.86925e-05
7.16823e-05
7.29762e-05
7.97597e-05
0.000107288
0.000106106
0.000103981
0.000100946
7.12184e-06
1.37073e-05
2.53715e-05
3.00445e-05
3.36826e-05
3.78279e-05
5.04004e-05
4.99145e-05
5.49146e-05
7.2756e-05
8.95062e-05
8.51264e-05
8.89633e-05
9.6534e-05
0.00010351
0.000110564
0.000112803
0.00010454
7.12686e-06
1.27028e-05
2.51681e-05
2.72804e-05
2.89145e-05
4.01874e-05
4.34614e-05
4.86047e-05
5.65778e-05
6.83821e-05
6.83965e-05
7.02648e-05
7.55499e-05
7.17695e-05
7.42695e-05
6.02324e-05
6.804e-05
6.39412e-05
1.11785e-05
1.36554e-05
2.39274e-05
3.11334e-05
3.67875e-05
4.78702e-05
4.84242e-05
5.0272e-05
5.55847e-05
5.4654e-05
5.64305e-05
5.6104e-05
5.8863e-05
5.80517e-05
5.61312e-05
5.16333e-05
5.3655e-05
5.62048e-05
2.31654e-05
2.31975e-05
3.62255e-05
4.74061e-05
4.87342e-05
4.89443e-05
5.21773e-05
5.46259e-05
5.37245e-05
5.21995e-05
5.25877e-05
5.10693e-05
5.28343e-05
5.06956e-05
5.22202e-05
4.99095e-05
4.88204e-05
4.82305e-05
3.41729e-05
4.0251e-05
4.60486e-05
5.34147e-05
5.40371e-05
5.29147e-05
5.24619e-05
5.27933e-05
5.32636e-05
5.21385e-05
5.13578e-05
4.9275e-05
4.84967e-05
4.73781e-05
4.71478e-05
4.57742e-05
4.34657e-05
4.26828e-05
3.58754e-05
4.46827e-05
4.74765e-05
5.42311e-05
5.56833e-05
5.65244e-05
5.61055e-05
5.63335e-05
5.55138e-05
5.47166e-05
5.39204e-05
5.20461e-05
4.98397e-05
4.85677e-05
4.72087e-05
4.55944e-05
4.32049e-05
4.18019e-05
4.6975e-05
5.42512e-05
5.64412e-05
6.16878e-05
6.2691e-05
6.38249e-05
6.32597e-05
6.30211e-05
6.19882e-05
6.09916e-05
5.96415e-05
5.73174e-05
5.46972e-05
5.24287e-05
5.04102e-05
4.84521e-05
4.58504e-05
4.39688e-05
6.48362e-05
7.34979e-05
7.72342e-05
8.15224e-05
8.11118e-05
8.09571e-05
7.96728e-05
7.84697e-05
7.70511e-05
7.5014e-05
7.18718e-05
6.87556e-05
6.4809e-05
6.13014e-05
5.78444e-05
5.47287e-05
5.12732e-05
4.81854e-05
9.18581e-05
0.000104601
0.000110492
0.000115433
0.000115419
0.00011478
0.000112927
0.00011059
0.000107024
0.00010164
9.60158e-05
9.06494e-05
8.43223e-05
7.83106e-05
7.24277e-05
6.72296e-05
6.19036e-05
5.69976e-05
0.000126211
0.000141974
0.00014578
0.00014612
0.000144252
0.000141719
0.000138329
0.000132892
0.000126232
0.000119296
0.000112293
0.000105273
9.80289e-05
9.12927e-05
8.44847e-05
7.82437e-05
7.19854e-05
6.64815e-05
0.00015153
0.000166261
0.000167923
0.000166091
0.000163154
0.000159983
0.000155375
0.000148261
0.000140541
0.000132603
0.000124564
0.000116501
0.000108473
0.00010092
9.33096e-05
8.63156e-05
7.92475e-05
7.31052e-05
0.000152288
0.00016779
0.00016963
0.000167885
0.000164951
0.000161702
0.000156939
0.00014969
0.000141847
0.00013377
0.000125541
0.000117362
0.000109196
0.000101479
9.37786e-05
8.66908e-05
7.95376e-05
7.33292e-05
0.000130982
0.000148536
0.000152851
0.000152757
0.000150446
0.000147561
0.000143799
0.0001379
0.000130935
0.000123644
0.000116033
0.000108578
0.000101093
9.39926e-05
8.68512e-05
8.02839e-05
7.36641e-05
6.78842e-05
9.95728e-05
0.00011557
0.000122479
0.000124984
0.00012499
0.000123438
0.00012127
0.000118564
0.000114473
0.000108444
0.000101899
9.55925e-05
8.92288e-05
8.32459e-05
7.70644e-05
7.13762e-05
6.55533e-05
6.04401e-05
7.43684e-05
8.51669e-05
9.01661e-05
9.25709e-05
9.30887e-05
9.22635e-05
9.07378e-05
8.90214e-05
8.70608e-05
8.37334e-05
7.89584e-05
7.45404e-05
7.00024e-05
6.57056e-05
6.11316e-05
5.68894e-05
5.24164e-05
4.85101e-05
4.98447e-05
6.05504e-05
6.67649e-05
7.03586e-05
7.16484e-05
7.14038e-05
7.02925e-05
6.89274e-05
6.70692e-05
6.42317e-05
6.01213e-05
5.6077e-05
5.23901e-05
4.94318e-05
4.65735e-05
4.40798e-05
4.14127e-05
3.91507e-05
3.46737e-05
4.1429e-05
4.65046e-05
4.993e-05
5.12486e-05
5.09183e-05
5.0046e-05
4.90294e-05
4.81976e-05
4.73141e-05
4.61266e-05
4.46768e-05
4.30859e-05
4.17572e-05
4.02754e-05
3.88488e-05
3.70344e-05
3.54145e-05
2.22937e-05
2.83181e-05
3.06287e-05
3.25355e-05
3.44079e-05
3.56679e-05
3.70564e-05
3.87823e-05
4.01419e-05
4.07958e-05
4.07674e-05
4.02535e-05
3.95895e-05
3.88316e-05
3.79112e-05
3.68956e-05
3.5513e-05
3.42808e-05
1.40276e-05
1.6977e-05
1.95975e-05
2.38718e-05
2.7518e-05
3.02164e-05
3.31016e-05
3.61764e-05
3.86309e-05
4.02359e-05
4.11253e-05
4.14282e-05
4.12862e-05
4.08653e-05
4.0255e-05
3.95555e-05
3.87988e-05
3.78667e-05
6.33876e-06
1.12807e-05
1.71799e-05
2.52402e-05
3.16518e-05
3.6312e-05
4.07992e-05
4.5303e-05
4.89046e-05
5.12464e-05
5.28086e-05
5.34685e-05
5.34975e-05
5.32969e-05
5.28722e-05
5.22339e-05
5.1361e-05
5.03701e-05
5.11862e-06
1.75659e-05
3.33555e-05
4.9339e-05
5.93219e-05
6.52206e-05
7.02541e-05
7.48748e-05
7.83671e-05
8.03019e-05
8.13316e-05
8.12878e-05
8.08047e-05
8.00573e-05
7.90378e-05
7.76775e-05
7.61843e-05
7.45363e-05
1.70528e-05
5.15294e-05
8.5784e-05
0.00010578
0.000116471
0.000120705
0.000122894
0.000124793
0.000126018
0.000125987
0.000125237
0.000123738
0.000121637
0.000119348
0.0001168
0.000113543
0.000110085
0.000107019
7.41331e-05
0.000154194
0.000180991
0.000185469
0.000184662
0.000182958
0.000181247
0.000179456
0.000177311
0.000174968
0.000172573
0.000169686
0.000166454
0.000162869
0.000158862
0.000154253
0.000150003
0.000145248
0.000225357
0.000288682
0.000286158
0.000272539
0.000269431
0.000272206
0.00028139
0.00029027
0.000296959
0.000301658
0.000304427
0.000305041
0.000304036
0.000301185
0.000297341
0.000291858
0.000285811
0.000278129
3.7724e-05
4.31807e-05
4.50037e-05
4.57091e-05
4.57191e-05
4.60983e-05
4.7108e-05
4.92519e-05
5.19523e-05
5.59337e-05
6.12768e-05
6.76394e-05
7.41719e-05
8.1163e-05
8.90385e-05
9.76983e-05
0.00010635
0.000114862
0.000125401
0.000140181
0.000149442
0.000153209
0.000155991
0.000159814
0.000167734
0.000179715
0.000192815
0.000203894
0.000217495
0.000235019
0.000254061
0.000272571
0.000290473
0.00030809
0.000325264
0.000341799
0.0003575
0.000372086
0.000385577
0.000397893
0.000409063
0.000418974
0.000427523
0.000435052
0.000442239
0.00044882
0.000454769
0.00046048
0.00046589
0.000470669
0.000474791
0.000478524
0.000480835
0.00048202
0.000482486
0.000482107
0.000479652
0.000475772
0.000471003
0.000465081
0.000457495
0.000449667
0.000441969
0.000433545
0.000425515
0.000418406
0.000411131
0.000403856
0.000396355
0.000388557
0.000380729
0.000372936
0.000365624
0.000358384
0.000350854
0.000342738
0.0003336
0.000323993
0.000314987
0.000306749
0.000298279
0.000289176
0.000280373
0.000272619
0.000266373
0.000260634
0.000254962
0.00024872
0.000241354
0.000231904
0.00022016
0.000209593
0.000202786
0.000197842
0.000195607
0.000191504
0.000188891
0.000189329
0.000192214
0.000193164
0.000193957
0.000194032
0.000190761
0.000195783
0.000223003
0.000267226
0.000311021
0.00034223
0.000351056
0.000355337
0.00034644
0.000322088
0.000295215
0.000270331
0.000249877
0.00022369
0.000205738
0.000195427
0.000193979
0.000207511
0.0002153
0.00023484
0.000249187
0.000246185
0.00024109
0.000252573
0.000277873
0.000294774
0.000306354
0.000319642
0.000333174
0.000346959
0.000359015
0.000371068
0.000381426
0.000389324
0.000395942
0.000401175
0.000405748
0.000407635
0.00040704
0.000405616
0.000403233
0.000401083
0.000396841
0.000390312
0.000382623
0.000374094
0.000366068
0.000359069
0.000353322
0.000349837
0.000344264
0.000334748
0.000326694
0.000313815
0.000292303
0.000274766
0.000284085
0.000315892
0.000364422
0.000391971
0.000399043
0.000402962
0.000409297
0.000427209
0.000461678
0.000488783
0.000515934
0.0005516
0.000608824
0.000624056
0.000613911
0.000606476
0.000626019
0.000702497
0.000689228
0.000694509
0.000709912
0.000708595
7.28137e-05
6.87908e-05
6.39618e-05
5.65499e-05
4.98781e-05
4.48668e-05
4.1583e-05
3.91112e-05
3.76638e-05
3.73061e-05
3.74666e-05
3.79041e-05
3.88879e-05
4.0805e-05
4.38192e-05
4.71819e-05
5.16002e-05
5.9668e-05
6.72356e-05
7.84977e-05
9.07648e-05
9.43882e-05
9.81693e-05
0.000102267
0.000111343
0.00013289
0.000152927
0.000162259
0.000171734
0.000177907
0.000182184
0.000184682
0.000185906
0.000186486
0.000185944
0.000183751
0.000180673
0.00017703
0.000172501
0.000168161
0.000164234
0.000161283
0.000160395
0.000160302
0.000160992
0.000162753
0.000165593
0.000168846
0.000171245
0.00017263
0.000173643
0.000174172
0.000173929
0.000173054
0.000170921
0.000168069
0.000164366
0.000161026
0.000157967
0.000154628
0.000153647
0.000153424
0.000154008
0.000155132
0.000158069
0.000162085
0.000165196
0.000167068
0.000168185
0.00016965
0.000171513
0.000174116
0.000178368
0.000180076
0.00018015
0.000177493
0.000172088
0.000169128
0.000168508
0.000167897
0.000166457
0.000163982
0.000163704
0.0001647
0.000168719
0.00017418
0.000176867
0.000177658
0.000175863
0.000167878
0.000148616
0.000134969
0.000131478
0.000133552
0.000138785
0.000140306
0.00013988
0.000142997
0.000152431
0.00016597
0.000184701
0.000207555
0.000219551
0.000229905
0.000244209
0.000258059
0.000265134
0.000261412
0.000246874
0.000230061
0.000207062
0.000186042
0.000171309
0.000161087
0.000153149
0.000147134
0.000145296
0.000144099
0.000150546
0.000163712
0.000172085
0.0001852
0.000205359
0.00020995
0.000201184
0.000201916
0.000217578
0.000239781
0.000253454
0.000266103
0.000281212
0.000295327
0.000304288
0.000313355
0.000320832
0.000323321
0.000326026
0.000331306
0.000337403
0.000337805
0.000339795
0.000349794
0.00035963
0.000369406
0.000374473
0.000376591
0.000375393
0.000371557
0.000366191
0.000365133
0.000366136
0.000365113
0.000362153
0.000355093
0.00034476
0.000330301
0.000310147
0.000295131
0.000303454
0.000320818
0.000347893
0.000352804
0.000345718
0.000348418
0.000364968
0.000413798
0.000433396
0.00042707
0.000443878
0.000495462
0.000551476
0.00050011
0.000417017
0.000375889
0.000347742
0.000436151
0.000469899
0.000449811
0.000458231
0.000476611
0.000112488
9.3203e-05
7.30896e-05
5.79741e-05
4.86254e-05
4.30382e-05
4.08122e-05
3.97569e-05
3.98688e-05
4.03664e-05
4.0365e-05
4.00135e-05
3.99328e-05
4.07151e-05
4.26838e-05
4.37105e-05
4.55169e-05
5.04294e-05
6.07265e-05
7.18822e-05
8.4677e-05
0.000103876
0.000120319
0.000124594
0.000125092
0.000125595
0.000126511
0.00012618
0.000124828
0.000122157
0.000118839
0.000114966
0.000110328
0.000104987
9.93653e-05
9.35963e-05
8.78642e-05
8.2384e-05
7.73863e-05
7.31824e-05
7.05488e-05
6.93587e-05
6.90782e-05
6.9058e-05
6.9486e-05
7.06485e-05
7.23578e-05
7.35249e-05
7.38337e-05
7.39466e-05
7.38184e-05
7.33104e-05
7.21129e-05
7.04099e-05
6.84904e-05
6.68061e-05
6.55223e-05
6.45599e-05
6.3967e-05
6.37955e-05
6.39044e-05
6.48914e-05
6.66575e-05
6.8546e-05
7.11998e-05
7.4303e-05
7.61493e-05
7.74644e-05
7.86308e-05
8.01393e-05
8.25057e-05
8.60694e-05
9.18748e-05
9.56679e-05
9.64851e-05
9.51209e-05
9.06931e-05
8.96658e-05
9.05998e-05
9.17197e-05
9.23413e-05
9.23549e-05
9.26755e-05
9.52731e-05
0.00010215
0.000112608
0.000123634
0.000129501
0.000130348
0.000127015
0.00011286
9.66563e-05
9.17357e-05
9.25832e-05
9.75991e-05
0.000102532
0.000110559
0.000127848
0.000151999
0.000180678
0.000197304
0.000207342
0.000214202
0.00021906
0.000219776
0.000210477
0.00018828
0.000176671
0.00016273
0.000149191
0.0001346
0.000127075
0.000122461
0.000119082
0.000117587
0.000117303
0.000121211
0.000126312
0.000135072
0.000147651
0.000152434
0.000160771
0.000173497
0.000173339
0.000169891
0.000165811
0.000167455
0.000178165
0.000192303
0.00020341
0.000213376
0.000222389
0.000227885
0.000235352
0.000242651
0.000244301
0.000243062
0.000244025
0.000247986
0.000246131
0.000245415
0.000251783
0.000262957
0.000276928
0.00028662
0.000295886
0.000303808
0.000307463
0.000306067
0.000307677
0.000315173
0.000324881
0.000336627
0.000337898
0.000326669
0.000313908
0.000294363
0.000286944
0.000299277
0.000309054
0.000321095
0.000321018
0.000318405
0.000318895
0.000352013
0.000369404
0.000334981
0.00031116
0.000329376
0.000374322
0.000391283
0.000309076
0.000237737
0.000226967
0.000213304
0.00025383
0.000290285
0.000270393
0.000266617
0.000284834
0.000155059
0.000109057
7.47059e-05
5.26836e-05
4.35666e-05
4.14572e-05
4.18477e-05
4.39279e-05
4.74966e-05
5.00575e-05
5.02536e-05
5.02465e-05
5.193e-05
5.68434e-05
5.96207e-05
6.05753e-05
6.32603e-05
7.24784e-05
8.67301e-05
9.61824e-05
0.000104803
0.00010831
0.000109041
0.000106998
0.000102509
9.68232e-05
9.18816e-05
8.92634e-05
8.50936e-05
7.99101e-05
7.54529e-05
7.0752e-05
6.58798e-05
6.133e-05
5.71305e-05
5.35008e-05
5.07208e-05
4.83275e-05
4.67801e-05
4.59074e-05
4.56887e-05
4.56188e-05
4.56255e-05
4.57488e-05
4.61074e-05
4.67003e-05
4.73797e-05
4.77186e-05
4.77668e-05
4.77569e-05
4.76666e-05
4.74385e-05
4.70183e-05
4.65364e-05
4.62821e-05
4.61491e-05
4.61147e-05
4.64126e-05
4.69869e-05
4.75029e-05
4.81971e-05
4.93067e-05
5.04444e-05
5.14999e-05
5.32728e-05
5.50312e-05
5.54482e-05
5.55407e-05
5.53162e-05
5.51183e-05
5.56736e-05
5.74251e-05
6.07321e-05
6.35623e-05
6.44179e-05
6.3697e-05
6.05971e-05
6.00193e-05
6.10025e-05
6.21388e-05
6.26426e-05
6.29207e-05
6.37841e-05
6.59284e-05
7.04041e-05
7.80571e-05
8.73591e-05
9.70345e-05
0.000102718
0.000105166
0.000102845
9.44403e-05
8.55297e-05
8.21089e-05
8.28203e-05
9.22137e-05
0.000113991
0.000143913
0.000168067
0.000181976
0.000191394
0.000194051
0.000188881
0.000184141
0.000175121
0.000159264
0.000143084
0.000133438
0.000126312
0.000119637
0.000112981
0.000109504
0.000107009
0.00010515
0.000105091
0.000106739
0.000111958
0.000118651
0.000129234
0.000141394
0.000145116
0.000143056
0.000152467
0.000160482
0.00016566
0.000161774
0.000156245
0.000159177
0.000172717
0.000177175
0.00017862
0.000183758
0.000189366
0.000197202
0.000204221
0.000205781
0.000202991
0.000202217
0.000204883
0.000201976
0.000198913
0.000200945
0.000208252
0.000219241
0.000228278
0.000236669
0.00024848
0.000258888
0.00025969
0.000261835
0.000268117
0.000275687
0.000300555
0.00032021
0.000317331
0.000307493
0.000288014
0.000284654
0.000292976
0.000295392
0.000297401
0.00029362
0.000295849
0.000305415
0.000332597
0.000316366
0.000263578
0.000253
0.00027294
0.00029581
0.000287064
0.000231446
0.000190106
0.000188947
0.000191773
0.000195286
0.000217446
0.00021767
0.00020363
0.000204631
0.000195383
0.000113096
6.63228e-05
4.64947e-05
4.21599e-05
4.38111e-05
4.73063e-05
5.11163e-05
5.52845e-05
5.70095e-05
5.7946e-05
6.03688e-05
6.51762e-05
7.02179e-05
7.37492e-05
7.74267e-05
8.16216e-05
8.6029e-05
8.99811e-05
9.23541e-05
9.377e-05
9.26981e-05
8.67816e-05
7.94485e-05
7.49435e-05
7.0174e-05
6.71265e-05
6.26554e-05
5.92117e-05
5.5076e-05
5.14281e-05
4.84194e-05
4.58431e-05
4.35662e-05
4.23112e-05
4.16365e-05
4.14004e-05
4.13471e-05
4.14362e-05
4.17579e-05
4.21797e-05
4.24405e-05
4.27611e-05
4.30506e-05
4.32405e-05
4.34477e-05
4.384e-05
4.40029e-05
4.40249e-05
4.39702e-05
4.38373e-05
4.3662e-05
4.35104e-05
4.33474e-05
4.3146e-05
4.29502e-05
4.28111e-05
4.29452e-05
4.33684e-05
4.37289e-05
4.42653e-05
4.51492e-05
4.59028e-05
4.64325e-05
4.73382e-05
4.87409e-05
4.98132e-05
5.03018e-05
5.01125e-05
4.90906e-05
4.86457e-05
4.90351e-05
5.05943e-05
5.20842e-05
5.22006e-05
5.17967e-05
5.05328e-05
5.01131e-05
5.05645e-05
5.12738e-05
5.1648e-05
5.17877e-05
5.242e-05
5.40555e-05
5.64057e-05
6.03709e-05
6.62587e-05
7.43872e-05
8.09565e-05
8.42345e-05
8.53823e-05
8.3466e-05
7.76241e-05
7.46709e-05
7.89537e-05
9.65897e-05
0.000136547
0.000159919
0.000167994
0.000174535
0.000173857
0.000163778
0.000157933
0.000153036
0.000143857
0.000129742
0.000118504
0.00011293
0.00011009
0.000108289
0.000106393
0.000104289
0.000102211
0.00010141
0.000102657
0.00010439
0.000107477
0.000113375
0.00012862
0.000144189
0.000142226
0.00013686
0.000153481
0.000163199
0.000164403
0.000159233
0.000158816
0.000162497
0.000166463
0.000165289
0.000161658
0.000163844
0.000173299
0.000180361
0.000183822
0.000184598
0.000182801
0.000182297
0.000183521
0.000180518
0.00017733
0.000176415
0.000178618
0.000184942
0.000192473
0.000199027
0.000210362
0.000224472
0.000227504
0.00023145
0.000236818
0.000239082
0.000260229
0.000293099
0.000301595
0.000300271
0.000288965
0.000286233
0.000286513
0.000282152
0.000278521
0.000276276
0.000274813
0.000290138
0.000303126
0.000267928
0.000221824
0.000224181
0.000237082
0.000250856
0.000242816
0.000203304
0.000173109
0.000168523
0.000172222
0.000177577
0.000194746
0.000202949
0.000203681
0.000189645
0.000226358
0.000112646
5.99766e-05
4.50322e-05
4.45197e-05
4.76593e-05
5.00585e-05
5.31802e-05
5.71361e-05
5.97082e-05
6.1152e-05
6.3304e-05
6.68944e-05
7.00436e-05
7.27283e-05
7.56836e-05
7.80226e-05
7.89064e-05
7.90485e-05
7.69423e-05
7.15866e-05
6.66117e-05
6.3786e-05
5.91982e-05
5.43188e-05
5.11871e-05
4.87996e-05
4.62733e-05
4.37737e-05
4.22782e-05
4.05521e-05
3.9621e-05
3.92255e-05
3.90882e-05
3.9051e-05
3.92762e-05
3.9861e-05
4.05745e-05
4.12711e-05
4.20482e-05
4.27613e-05
4.34435e-05
4.40724e-05
4.45758e-05
4.47469e-05
4.48323e-05
4.49124e-05
4.49203e-05
4.47832e-05
4.45069e-05
4.40948e-05
4.36404e-05
4.32856e-05
4.30937e-05
4.28626e-05
4.25236e-05
4.21895e-05
4.18767e-05
4.166e-05
4.15041e-05
4.14799e-05
4.17328e-05
4.22906e-05
4.3186e-05
4.44381e-05
4.51269e-05
4.55239e-05
4.64112e-05
4.70174e-05
4.70571e-05
4.54322e-05
4.49435e-05
4.5621e-05
4.72773e-05
4.79803e-05
4.77373e-05
4.72814e-05
4.69616e-05
4.68401e-05
4.67579e-05
4.69579e-05
4.75234e-05
4.84541e-05
4.97154e-05
5.1038e-05
5.31965e-05
5.72118e-05
6.37406e-05
6.72368e-05
6.81157e-05
6.97187e-05
7.16563e-05
7.12737e-05
7.2849e-05
8.44255e-05
0.000113175
0.000150929
0.000160367
0.00016288
0.000156067
0.000147895
0.000138749
0.000134164
0.000130178
0.000122542
0.000112988
0.000107361
0.00010657
0.0001068
0.00010683
0.000105564
0.000103204
0.000100147
9.85956e-05
9.84038e-05
9.75877e-05
9.768e-05
0.000103765
0.000120872
0.000139003
0.000145152
0.000140412
0.000156707
0.000159792
0.000156369
0.000152524
0.000153926
0.000156144
0.000159129
0.000159139
0.0001559
0.000162299
0.000172302
0.000173635
0.000173631
0.000173923
0.000177082
0.000176214
0.000175103
0.000172668
0.000170558
0.000169437
0.000168273
0.000168323
0.000172029
0.000177632
0.000188952
0.000201307
0.000205537
0.000208588
0.000215588
0.00021464
0.000228383
0.000263516
0.000279993
0.000284783
0.000287224
0.000285611
0.000279709
0.000272107
0.000264915
0.000266084
0.000263252
0.000267116
0.000270565
0.000231166
0.000197028
0.000199567
0.000201734
0.000214415
0.000214533
0.000190188
0.000166947
0.000155318
0.00016324
0.000177771
0.000188952
0.000193276
0.000196033
0.000194408
0.000249592
0.000114715
5.8414e-05
4.5454e-05
4.57282e-05
4.90842e-05
5.05387e-05
5.28058e-05
5.70313e-05
6.02131e-05
6.195e-05
6.37423e-05
6.59147e-05
6.70998e-05
6.74623e-05
6.76499e-05
6.66016e-05
6.41633e-05
6.14886e-05
5.94182e-05
5.68631e-05
5.33027e-05
5.02594e-05
4.73119e-05
4.44239e-05
4.23196e-05
4.11682e-05
3.99816e-05
3.8806e-05
3.84597e-05
3.82996e-05
3.83586e-05
3.84864e-05
3.88692e-05
3.94683e-05
4.00984e-05
4.10362e-05
4.21907e-05
4.34572e-05
4.4691e-05
4.59503e-05
4.70433e-05
4.79481e-05
4.86091e-05
4.89404e-05
4.89713e-05
4.8844e-05
4.86336e-05
4.8334e-05
4.80168e-05
4.74843e-05
4.66898e-05
4.54621e-05
4.4371e-05
4.35665e-05
4.27181e-05
4.20532e-05
4.13259e-05
4.06301e-05
3.98122e-05
3.94833e-05
3.94409e-05
3.9544e-05
4.00626e-05
4.13214e-05
4.28024e-05
4.32707e-05
4.33974e-05
4.37056e-05
4.41669e-05
4.43993e-05
4.33146e-05
4.33406e-05
4.47541e-05
4.59389e-05
4.58652e-05
4.52287e-05
4.48149e-05
4.45975e-05
4.46165e-05
4.48756e-05
4.54033e-05
4.65062e-05
4.80176e-05
4.9547e-05
5.1984e-05
5.55096e-05
5.77739e-05
5.76921e-05
5.80476e-05
6.07826e-05
6.4473e-05
6.67289e-05
7.49839e-05
9.72103e-05
0.000131387
0.000151321
0.000156546
0.000149977
0.000136756
0.000125771
0.000120366
0.000118105
0.000115784
0.000111527
0.000107538
0.000105636
0.000105286
0.000105459
0.000103906
0.000101135
9.86471e-05
9.49913e-05
9.39639e-05
9.39458e-05
9.32474e-05
9.38405e-05
9.79656e-05
0.000114538
0.000136401
0.000148846
0.000142385
0.000153827
0.000153909
0.000148745
0.000150731
0.00014892
0.00014732
0.000149863
0.000153454
0.00015844
0.000168371
0.000173169
0.000170501
0.000167048
0.000169722
0.000174426
0.000170755
0.000170626
0.000169643
0.000165593
0.000161513
0.000158081
0.000156244
0.000158888
0.000167018
0.000178252
0.000189808
0.000192671
0.000192602
0.000200023
0.000195908
0.000203154
0.000235688
0.000255702
0.000267516
0.000281035
0.000283854
0.000275042
0.000264573
0.000259654
0.000255281
0.000256067
0.000257237
0.000251228
0.000211901
0.000189825
0.000184664
0.000181712
0.00018939
0.000186782
0.000180343
0.000175116
0.000169784
0.000169213
0.000179585
0.000188099
0.000186845
0.000182812
0.000189352
0.000269398
0.000119814
5.91703e-05
4.56657e-05
4.56015e-05
4.88638e-05
5.05614e-05
5.28599e-05
5.65665e-05
5.91577e-05
6.03341e-05
6.07508e-05
6.07036e-05
5.95742e-05
5.75347e-05
5.60506e-05
5.46506e-05
5.34213e-05
5.15708e-05
4.96369e-05
4.74197e-05
4.47615e-05
4.23079e-05
4.0495e-05
3.92506e-05
3.8202e-05
3.77733e-05
3.75962e-05
3.7526e-05
3.76452e-05
3.79397e-05
3.84813e-05
3.9025e-05
3.98115e-05
4.10442e-05
4.25534e-05
4.40914e-05
4.55167e-05
4.66692e-05
4.76188e-05
4.84654e-05
4.94054e-05
5.0447e-05
5.14628e-05
5.2409e-05
5.30319e-05
5.31015e-05
5.29888e-05
5.25487e-05
5.16672e-05
5.04768e-05
4.97478e-05
4.89672e-05
4.77589e-05
4.63159e-05
4.47193e-05
4.31006e-05
4.18844e-05
4.04601e-05
3.96734e-05
3.89673e-05
3.88319e-05
3.88262e-05
3.9085e-05
4.0008e-05
4.15285e-05
4.23062e-05
4.2328e-05
4.23509e-05
4.25281e-05
4.32041e-05
4.31496e-05
4.28277e-05
4.40178e-05
4.50172e-05
4.47762e-05
4.37506e-05
4.29854e-05
4.29715e-05
4.33293e-05
4.3682e-05
4.36203e-05
4.45206e-05
4.63478e-05
4.83028e-05
5.00961e-05
5.12405e-05
5.15569e-05
5.1267e-05
5.33377e-05
5.72843e-05
6.00426e-05
6.19827e-05
7.64914e-05
0.000112343
0.00013908
0.000147601
0.000147597
0.000135764
0.000125359
0.000114797
0.00010934
0.000106982
0.000105696
0.000104786
0.00010393
0.000103066
0.000102282
0.000101696
9.77303e-05
9.23184e-05
8.94457e-05
8.57998e-05
8.52532e-05
8.69271e-05
8.95175e-05
9.00094e-05
9.43636e-05
0.000110203
0.000132304
0.000146426
0.000149449
0.000150701
0.000150389
0.000139887
0.000147904
0.000149311
0.000148016
0.000148303
0.000153433
0.000163244
0.000170475
0.000169128
0.000162246
0.000162016
0.000170617
0.000172109
0.000162261
0.000162537
0.000163293
0.000152339
0.000142063
0.000141686
0.000144799
0.000152635
0.000162307
0.000170652
0.000182687
0.000183554
0.000181442
0.000187686
0.000181409
0.000182669
0.000211809
0.000232159
0.000250126
0.000269435
0.000280553
0.00027151
0.000257395
0.00025415
0.000243523
0.000241035
0.000254532
0.00024854
0.000215235
0.000196217
0.000186189
0.000182596
0.000182952
0.000175556
0.000166715
0.000172854
0.000168897
0.000166136
0.000172009
0.000182551
0.000178905
0.000171517
0.00017639
0.000290455
0.000132324
6.44923e-05
4.58014e-05
4.46163e-05
4.75839e-05
4.94685e-05
5.12126e-05
5.35388e-05
5.53156e-05
5.54186e-05
5.44326e-05
5.21072e-05
5.00429e-05
4.91752e-05
4.852e-05
4.70811e-05
4.56955e-05
4.39568e-05
4.24286e-05
4.09951e-05
3.96293e-05
3.83399e-05
3.7415e-05
3.69925e-05
3.68816e-05
3.68895e-05
3.69262e-05
3.7131e-05
3.76146e-05
3.83082e-05
3.93729e-05
4.08948e-05
4.25187e-05
4.39931e-05
4.5169e-05
4.609e-05
4.68357e-05
4.75787e-05
4.81622e-05
4.85952e-05
4.90105e-05
4.96371e-05
5.05713e-05
5.16866e-05
5.31129e-05
5.39932e-05
5.42288e-05
5.41564e-05
5.34407e-05
5.20843e-05
5.08396e-05
5.00927e-05
4.91977e-05
4.78203e-05
4.65396e-05
4.47709e-05
4.36486e-05
4.18437e-05
4.07222e-05
3.96135e-05
3.92068e-05
3.90335e-05
3.90542e-05
3.9737e-05
4.13055e-05
4.2535e-05
4.24385e-05
4.23485e-05
4.24107e-05
4.2806e-05
4.31202e-05
4.27586e-05
4.3594e-05
4.47386e-05
4.48074e-05
4.35534e-05
4.2503e-05
4.24998e-05
4.28206e-05
4.31778e-05
4.30076e-05
4.30654e-05
4.3852e-05
4.52548e-05
4.67707e-05
4.7352e-05
4.79685e-05
5.03077e-05
5.40673e-05
5.68079e-05
5.77979e-05
6.13594e-05
8.03754e-05
0.000122893
0.000137748
0.000141341
0.000133671
0.000124958
0.000117816
0.000106116
9.94607e-05
9.65868e-05
9.56674e-05
9.54598e-05
9.52319e-05
9.43815e-05
9.37641e-05
9.15049e-05
8.58e-05
8.0986e-05
7.8199e-05
7.62827e-05
7.61165e-05
7.70746e-05
8.21551e-05
8.86316e-05
9.53479e-05
0.000106473
0.000124172
0.00014349
0.00014975
0.000145313
0.000147629
0.000135426
0.000138022
0.000142313
0.000144254
0.000145354
0.000149134
0.000160218
0.000166105
0.000163032
0.000159091
0.000165678
0.000173855
0.000168043
0.00015191
0.00015519
0.000150846
0.000130943
0.000122876
0.000126199
0.000136821
0.000148029
0.000154365
0.000158618
0.000170773
0.000175918
0.000174064
0.000178435
0.000173262
0.000168827
0.000192976
0.000212656
0.000233179
0.000256823
0.000276326
0.00026842
0.000249448
0.000243744
0.000231509
0.000219717
0.000238981
0.000244256
0.000215453
0.000197286
0.000185421
0.000186471
0.000186542
0.000182612
0.000161778
0.000158289
0.000152283
0.000156067
0.000162779
0.000168277
0.000167672
0.000165103
0.000169812
0.000315431
0.000147612
7.3944e-05
4.79366e-05
4.47614e-05
4.72089e-05
4.93893e-05
5.09787e-05
5.15634e-05
5.13851e-05
4.94295e-05
4.71268e-05
4.6101e-05
4.53378e-05
4.41174e-05
4.2347e-05
4.07516e-05
3.96823e-05
3.92998e-05
3.84979e-05
3.76094e-05
3.68429e-05
3.65021e-05
3.6523e-05
3.65813e-05
3.66367e-05
3.67776e-05
3.70807e-05
3.76936e-05
3.87415e-05
4.01365e-05
4.16287e-05
4.29896e-05
4.41931e-05
4.51521e-05
4.58818e-05
4.62888e-05
4.63913e-05
4.63317e-05
4.60582e-05
4.57095e-05
4.56011e-05
4.56075e-05
4.57946e-05
4.64379e-05
4.77585e-05
5.02303e-05
5.25918e-05
5.33053e-05
5.33184e-05
5.22964e-05
5.03392e-05
4.88818e-05
4.7837e-05
4.66371e-05
4.5786e-05
4.48783e-05
4.41137e-05
4.2958e-05
4.19309e-05
4.06634e-05
3.97e-05
3.95115e-05
3.95055e-05
3.987e-05
4.12795e-05
4.27877e-05
4.30273e-05
4.27729e-05
4.29044e-05
4.38746e-05
4.43262e-05
4.38733e-05
4.35807e-05
4.41864e-05
4.45964e-05
4.39305e-05
4.26559e-05
4.22917e-05
4.22549e-05
4.24324e-05
4.24085e-05
4.30269e-05
4.28146e-05
4.30643e-05
4.51236e-05
4.65407e-05
4.79461e-05
5.07479e-05
5.38322e-05
5.57968e-05
5.6991e-05
6.25359e-05
8.84606e-05
0.000128603
0.000135461
0.000130107
0.000119195
0.000113534
0.000107935
9.70107e-05
9.1923e-05
9.09445e-05
9.12349e-05
9.10618e-05
8.96329e-05
8.75799e-05
8.61888e-05
8.27092e-05
7.89811e-05
7.56547e-05
7.39544e-05
7.2675e-05
7.3127e-05
7.50045e-05
7.78317e-05
8.31488e-05
9.24107e-05
0.000104215
0.000119662
0.000136503
0.000140756
0.000131697
0.000141024
0.000137177
0.000138236
0.000134442
0.000133901
0.000137701
0.000144003
0.000154323
0.000161794
0.000163684
0.000165609
0.000176564
0.000167494
0.000158111
0.000141394
0.000145733
0.000135553
0.000120069
0.000115903
0.000122419
0.000135608
0.000137672
0.000137734
0.000138202
0.000155507
0.000169453
0.000166666
0.000169808
0.000168633
0.000160805
0.000179908
0.000196818
0.00021678
0.000244961
0.000269961
0.000265309
0.000242443
0.000231177
0.000218613
0.000201416
0.000215203
0.000228174
0.00020274
0.000184645
0.00017697
0.000190359
0.000196547
0.000198515
0.000178306
0.000159264
0.000158175
0.00016448
0.000164309
0.000159515
0.000166598
0.000166167
0.000171716
0.000340759
0.000161113
8.32179e-05
5.28318e-05
4.73559e-05
4.83645e-05
4.99547e-05
5.09908e-05
5.1362e-05
5.05602e-05
4.78893e-05
4.65559e-05
4.61332e-05
4.54717e-05
4.25222e-05
3.95738e-05
3.89356e-05
3.84883e-05
3.78245e-05
3.70604e-05
3.6864e-05
3.68551e-05
3.68041e-05
3.68387e-05
3.68975e-05
3.70291e-05
3.73524e-05
3.80024e-05
3.9006e-05
4.01165e-05
4.1199e-05
4.22533e-05
4.31717e-05
4.40662e-05
4.48127e-05
4.5093e-05
4.52591e-05
4.53944e-05
4.53918e-05
4.51358e-05
4.49548e-05
4.49468e-05
4.49479e-05
4.49241e-05
4.49581e-05
4.51296e-05
4.57119e-05
4.72617e-05
5.06225e-05
5.28544e-05
5.2976e-05
5.18515e-05
4.96348e-05
4.70899e-05
4.5623e-05
4.48262e-05
4.44102e-05
4.40965e-05
4.37966e-05
4.32675e-05
4.27389e-05
4.18744e-05
4.05655e-05
4.02947e-05
4.03484e-05
4.11927e-05
4.29896e-05
4.40178e-05
4.3995e-05
4.37138e-05
4.42429e-05
4.50447e-05
4.53918e-05
4.49296e-05
4.45624e-05
4.45518e-05
4.41635e-05
4.30533e-05
4.21217e-05
4.19861e-05
4.22726e-05
4.20932e-05
4.23265e-05
4.26797e-05
4.24934e-05
4.49331e-05
4.72409e-05
4.83968e-05
5.01604e-05
5.27779e-05
5.48885e-05
5.7471e-05
6.54846e-05
9.66924e-05
0.000131357
0.000133427
0.000121174
0.000108832
0.000103483
9.77714e-05
9.05203e-05
8.87443e-05
8.96095e-05
9.10681e-05
9.09522e-05
8.81748e-05
8.52501e-05
8.14095e-05
7.73458e-05
7.50182e-05
7.35448e-05