/*--------------------------------*- C++ -*----------------------------------*\
| =========                 |                                                 |
| \\      /  F ield         | OpenFOAM: The Open Source CFD Toolbox           |
|  \\    /   O peration     | Version:  dev                                   |
|   \\  /    A nd           | Web:      http://www.openfoam.org               |
|    \\/     M anipulation  |                                                 |
\*---------------------------------------------------------------------------*/
FoamFile
{
    version     2.0;
    format      ascii;
    class       volScalarField;
    object      p_0;
    location    "9.135";
}
// * * * * * * * * * * * * * * * * * * * * * * * * * * * * * * * * * * * * * //

dimensions      [1 -1 -2 0 0 0 0];

internalField   nonuniform List<scalar> 
12225
(
86083.5
86141
86293.2
86524.8
86821.3
87174.4
87571.2
88018.4
88487.1
89001.5
89531.5
90092.2
90662.4
91268.4
91856.8
92549.1
93364.8
94072.9
86084.9
86147
86299.4
86530.6
86826.7
87179.2
87575.8
88021.8
88491
89005.4
89535.3
90095.1
90666.2
91269.7
91851.3
92538.2
93266.5
94067.8
86095.4
86161.4
86314
86544.2
86839.7
87191.3
87587.2
88032.9
88500
89013.8
89542.7
90099.8
90673.9
91269.9
91862.3
92501.7
93209.4
93953.7
86116.9
86185.9
86338.8
86568.4
86862.7
87213.4
87607.6
88053.4
88517.2
89028.8
89553
90107
90682
91268
91872.4
92493
93221.2
93892.6
86154.7
86223.1
86376.5
86604.6
86898.5
87246.5
87641.5
88083.6
88555.4
89053.9
89575
90118.5
90691.9
91272.3
91858.2
92496.5
93110.3
93727.7
86207.3
86276.7
86430.1
86657.2
86948.6
87294.7
87687.4
88125.6
88592.2
89091.2
89606.6
90140.3
90701.6
91275.8
91850.3
92447
93056.4
93612.4
86284
86350.9
86504.3
86729.1
87018.8
87363.3
87752.2
88181.1
88647.2
89138.6
89651.1
90177.6
90724.8
91281.6
91839.6
92401.8
92987
93476.5
86368
86433.6
86588
86812.1
87100
87440.9
87827.7
88250.3
88710.2
89194.8
89700.7
90223
90750.5
91292.2
91839.7
92373.1
92919.1
93422.3
86457.9
86524.6
86678.5
86902.8
87188.4
87525.4
87906.3
88324.7
88778.4
89257.3
89752.6
90265
90788.1
91313.7
91846
92359.8
92882.6
93378.9
86579.1
86640.1
86801.2
87024.4
87306.5
87636.1
88012.2
88423.8
88870.2
89339.1
89826.4
90327.4
90837.9
91344.9
91862
92360.2
92860
93327.7
86739.5
86807
86964.9
87184.1
87462.3
87785
88152.3
88558.1
88993.7
89450.8
89925.9
90412.6
90907.9
91397.2
91890.6
92372.6
92834.8
93281.3
86956.7
87028.6
87182
87395.5
87666.5
87982.7
88341.7
88734.3
89157.7
89601.5
90061.6
90529.7
91004.7
91475.6
91942.9
92399.4
92835.2
93255.4
87248.9
87321.4
87468.9
87675.9
87939.3
88245.4
88592
88970.9
89378
89804.2
90244.7
90692.9
91143.9
91591.5
92031.3
92461.1
92870.3
93261.3
87636.5
87706.6
87847.6
88046.1
88298.7
88592.1
88923.4
89285
89672.1
90077.6
90494.4
90918.1
91342
91762.3
92174.1
92574.3
92956.5
93320.9
88142.8
88210.4
88343.2
88531
88768.9
89046.4
89358.7
89699
90062
90442.4
90831.8
91226.5
91620.7
92010.3
92391.4
92760.7
93115
93452.1
88815.3
88864.6
88984.1
89157.4
89377.1
89634.5
89923.5
90238.3
90573.4
90923.3
91281.6
91643.7
92004.7
92360.9
92709
93046.2
93369.4
93677.2
89632.4
89684.5
89792.4
89949.1
90147.5
90380.6
90642.3
90927.3
91230.4
91546.1
91869
92194.9
92519.6
92839.6
93152
93454.7
93745.1
94021.4
90571.9
90615.1
90710.2
90849.1
91025.3
91232.6
91465.6
91719.6
91989.6
92270.6
92557.8
92847
93135.3
93419.7
93697.1
93965.3
94223.1
94469.2
91469.7
91504.3
91585.4
91707
91862.7
92046.7
92254.1
92480.7
92721.5
92972.2
93228.9
93487.2
93744.3
93998.3
94246.1
94485.2
94714.9
94934.3
92254.3
92268.5
92334.5
92440.7
92579.2
92744
92930.4
93134.7
93352
93578.4
93810.5
94044.7
94277.7
94507.2
94731.9
94949.2
95157
95354.3
92886.3
92894.2
92950.9
93045.2
93169.9
93319.5
93489.5
93676
93874.9
94082.3
94295
94510.2
94724.7
94935.8
95141.6
95341
95532
95713
93382.7
93394.1
93444.3
93529
93642.7
93780.3
93937.3
94110
94294.6
94487.3
94685.3
94885.8
95085.9
95283
95474.9
95660.1
95837.6
96006.1
93777
93784.6
93828.8
93905.7
94010.5
94138.8
94285.9
94448.2
94621.9
94803.5
94990.4
95180
95369.3
95555.6
95737.2
95912.2
96079.3
96237.8
94084.2
94082.8
94120.6
94190.8
94288.8
94410.1
94550
94704.5
94870.1
95043.7
95222.5
95403.9
95585
95763.4
95937.2
96104.6
96264.4
96415.4
94307.8
94302.9
94335.4
94400.4
94493.3
94609.6
94744.3
94893.2
95053
95221
95394.1
95569.5
95744.4
95917
96085.1
96247
96401.3
96547.1
94474.6
94460.5
94488.3
94549.5
94638.8
94751.5
94882.5
95027.5
95183.5
95347.4
95516.4
95687.5
95858.3
96026.7
96190.7
96348.5
96498.9
96641
94587.8
94568
94592.2
94650.7
94737.7
94848.1
94976.7
95119.3
95272.6
95433.7
95599.8
95768.1
95936.2
96101.8
96262.8
96417.7
96565.3
96705
94660.3
94636.8
94658.3
94715.1
94800.9
94909.8
95037
95178.1
95329.7
95489.1
95653.3
95819.8
95986.1
96149.8
96309
96461.9
96607.8
96745.8
94702
94676.1
94695.4
94751.3
94836.7
94945.1
95071.6
95211.9
95362.6
95520.9
95684.1
95849.5
96014.6
96177.2
96335.2
96487.1
96632
96768.6
94723.3
94693.8
94711.8
94767.3
94852.3
94960.6
95086.8
95226.7
95377
95534.8
95697.6
95862.5
96027.1
96189.2
96346.7
96498.1
96642.4
96778.3
107899
107900
107902
107905
107908
107911
107914
107917
107919
107921
107922
107921
107918
107912
107903
107889
107871
107846
107813
107771
107720
107657
107581
107495
107395
107280
107148
107001
106838
106657
106455
106232
105986
105717
105425
105109
104768
104403
104014
103601
103165
102706
102226
101725
101205
100668
100114
99547.2
98968
98378.8
97781.7
97179
96572.9
95965.6
95359.5
94756.9
94160
93570.8
92991
92422.5
91867.1
91326
90800.3
90291.3
89799.7
89326.2
88871.5
88436
88020.7
87625.7
87251
86896.6
86562.8
86249.4
85957
85685.4
85434.5
85204
84993.5
84802.6
84630.7
84477.9
84344
84228.5
84130.8
84050.9
83988.8
83944.7
83918.5
83909.9
83919.4
83946.6
83989.8
84047.1
84116.3
84195.8
84284.5
84380.5
84480.7
84581.3
84677
84761.7
84833.8
84888.4
84924.7
84941.4
84937.4
84912.2
84868.3
84808.9
84737.9
84660.7
84580.9
84501.7
84427.1
84361.3
84306
84255.7
84214.8
84182.3
84182.6
84213.3
84269.3
84338.9
84418.7
84506.4
84594.5
84672.6
84730.8
84760.5
84752.8
84699.3
84589.8
84414.2
84179.8
83872.1
83492.5
83045.4
82540.6
81989.4
81398.6
80792.5
80178.2
79560.1
78947.4
78347.9
77768.1
77217.4
76706.5
76248.4
75850.2
75520.4
75262.1
75070.4
74956.1
74923.5
74977.8
75129.3
75391.2
75770.6
76238.4
76768.9
77334.2
77922.9
78531.6
79144.5
79754.5
80359.4
80962.4
81562.5
82142.8
82704.4
83253.9
83815.3
84378.7
84929.9
85493.4
86052.4
86591.5
87101.6
107841
107842
107844
107847
107850
107852
107855
107857
107859
107860
107860
107859
107856
107850
107841
107827
107809
107784
107752
107710
107659
107597
107522
107435
107337
107226
107099
106955
106791
106610
106408
106186
105941
105674
105383
105068
104730
104368
103981
103572
103139
102683
102206
101709
101192
100658
100109
99544.9
98969.1
98383.3
97789.4
97189.8
96586.9
95982.8
95379.6
94779.5
94185.1
93598.8
93021.6
92455.5
91902.7
91363.9
90840.4
90333.6
89843.6
89371.2
88917.7
88483.5
88070.5
87677.1
87304
86951
86618
86305.2
86013.4
85742.7
85492.7
85263.1
85053.5
84863.2
84691.9
84539.8
84406.2
84290.8
84192.9
84112.6
84049.8
84004.9
83977.8
83968.4
83977
84003.7
84046.5
84103
84170.9
84249.1
84337.4
84433.7
84533.4
84633.4
84730.1
84815.9
84883.7
84935.8
84970.4
84984.8
84978.7
84953.1
84909.7
84852.2
84784.4
84710.2
84633.2
84556.3
84483.4
84419.3
84365.9
84316.7
84273
84239
84242.7
84277.6
84336.8
84408.1
84488.4
84576
84664.1
84742.2
84799.9
84828.6
84820
84765
84653.1
84475.8
84233.9
83925.1
83543.2
83092.4
82584.7
82034
81437.1
80831
80217.1
79600.3
78989.5
78392.7
77815.9
77268.4
76760.4
76305.5
75909.8
75581.6
75323.6
75130
75014.2
74979
75028.9
75176.3
75438.9
75819.1
76285.7
76811.7
77371.8
77958.3
78567
79178.8
79787.1
80385.7
80991
81595.9
82172.9
82734.3
83283.2
83850.3
84413.9
84966.7
85532.2
86092.7
86631.7
87140.1
107727
107728
107730
107732
107734
107735
107737
107738
107739
107739
107738
107736
107732
107726
107717
107703
107685
107661
107630
107590
107541
107485
107414
107329
107229
107118
106992
106849
106688
106509
106310
106090
105848
105584
105297
104987
104654
104297
103916
103512
103085
102636
102166
101675
101165
100638
100096
99539.8
98971
98391.7
97804.4
97211.3
96614.6
96016.4
95418.8
94824.1
94235
93653.9
93081.8
92520.8
91972.9
91438.8
90919.7
90417.2
89931.2
89462.5
89012.6
88582.1
88170.4
87779.7
87409.7
87059.7
86729
86417.9
86127.4
85858.1
85609.9
85382.2
85174.3
84985.5
84815.6
84664.5
84531.9
84417
84319.5
84239
84175.4
84128.8
84099.9
84088.4
84094.6
84119.2
84160.9
84216.4
84282.4
84358.6
84445.8
84541.3
84641
84738.9
84831.3
84913.5
84980.2
85029.8
85061.7
85073.5
85065.2
85039.7
84998.5
84944.8
84881.8
84812.7
84740.3
84667.6
84598.1
84536.7
84483.5
84441.1
84397.7
84368.7
84373.1
84412.9
84475.2
84548.4
84629.1
84715.9
84803.3
84881.3
84938.2
84965.8
84955.4
84897
84781.2
84598.2
84348.3
84031
83644.5
83187.1
82673.1
82116.3
81518.9
80910.6
80297.1
79683.2
79076.2
78485.1
77914.3
77373
76871.3
76422.9
76033.2
75710.5
75454.4
75258.7
75138.5
75098.5
75141.1
75282.2
75545.5
75924.1
76383.3
76895.1
77444.4
78029.1
78637.1
79248.9
79852.6
80449.8
81050.3
81653
82231.5
82792
83341.2
83912.8
84481.5
85044.7
85613.6
86175.5
86714.4
87221.5
107557
107558
107559
107560
107561
107561
107562
107562
107562
107560
107558
107554
107549
107543
107534
107520
107502
107479
107448
107409
107362
107306
107239
107159
107065
106956
106832
106692
106534
106358
106162
105946
105710
105451
105170
104867
104540
104191
103819
103424
103006
102566
102106
101625
101126
100610
100078
99531.8
98973.4
98404.3
97826.7
97243
96655.4
96065.9
95476.8
94890.7
94309.9
93736.2
93171.6
92617.6
92076.4
91548.9
91036.1
90539.6
90059.6
89596.6
89151.5
88724.9
88317.2
87930.7
87564.8
87218.8
86892.1
86584.2
86295.8
86028.2
85782.3
85557.4
85352.2
85165.7
84997.8
84848.2
84716.8
84602.8
84505.7
84425.1
84361
84313.3
84282.7
84269
84271.9
84292.8
84332.3
84385.7
84448.6
84523
84610.4
84704.1
84799
84892.8
84980.2
85057.4
85121
85168.2
85197.3
85207.1
85199.8
85178
85142.4
85094.8
85038.6
84976.2
84909.7
84842.6
84778.3
84722
84674.3
84634.8
84597.6
84573.9
84581.4
84625.2
84687.3
84762
84845.6
84931.5
85015.3
85090.1
85144.8
85169.5
85154.6
85091.2
84969.6
84779.8
84520.3
84192.5
83794.3
83327.6
82805.4
82244.2
81645.5
81034.9
80418.3
79809.2
79208
78625.1
78063.4
77530.3
77038.5
76600.4
76218.5
75903.4
75652.6
75455.6
75330.7
75283.5
75316.5
75451.7
75714.6
76087.3
76526.6
77017.4
77552.9
78135.1
78741.9
79349.7
79949.3
80544.2
81142.5
81744
82317.3
82879.1
83435.4
84011.6
84586.6
85164.5
85735.9
86299
86837.5
87342.3
107333
107334
107335
107335
107334
107334
107335
107335
107335
107334
107329
107325
107319
107312
107301
107286
107268
107245
107216
107179
107135
107080
107015
106937
106846
106740
106619
106483
106329
106157
105967
105757
105527
105276
105003
104709
104393
104054
103692
103309
102903
102476
102028
101561
101075
100573
100054
99521.7
98976.6
98420.6
97856
97284.7
96709
96131.4
95553.9
94978.7
94408.1
93844.2
93289.2
92744.2
92211.3
91691.9
91186.9
90698.1
90225.8
89770.5
89332.5
88911.6
88508.8
88128.3
87767.8
87426.5
87103.8
86800.6
86515.9
86250.8
86007.5
85785.5
85582.9
85399.3
85234.4
85086.9
84956.8
84843.5
84746.7
84665.8
84601.1
84552.9
84521.9
84507.8
84508.6
84526.2
84561.7
84609.6
84667.8
84741.4
84828.4
84919.2
85008.5
85096.1
85177.8
85249.5
85309.1
85353.9
85381.1
85391.3
85388
85372.7
85344.7
85305.2
85257
85201.4
85141.5
85080.9
85023.3
84972.2
84930
84896.6
84869.6
84854.2
84868
84913.6
84978.6
85057.7
85143.3
85225.1
85303.2
85372.4
85422
85439.7
85417.5
85346.4
85216.9
85017.2
84746.4
84405.1
83990.9
83512.8
82977.9
82411.4
81808.4
81195.3
80580.2
79973.6
79380.8
78809.7
78260.7
77738
77258.1
76832.5
76459.8
76152.8
75909
75712.9
75584.2
75530
75551.7
75679.6
75935.9
76291.6
76707.7
77176.6
77697.8
78275
78881.2
79482.9
80079.1
80674
81268.4
81867
82441.3
83007.3
83570
84160.8
84744.8
85324.8
85901.3
86468.4
87006.2
87505.4
107056
107058
107059
107059
107060
107061
107062
107062
107062
107060
107057
107052
107046
107037
107027
107013
106994
106971
106941
106905
106861
106807
106742
106666
106577
106474
106357
106225
106076
105911
105728
105526
105305
105064
104802
104519
104215
103889
103541
103171
102780
102368
101935
101484
101014
100528
100026
99509.2
98980.5
98440.8
97891.9
97336.5
96776.2
96213.1
95649.3
95087.3
94529.1
93977.1
93433.5
92899.2
92376.1
91866.1
91370.4
90890.5
90426.4
89978.9
89550.1
89140.5
88745.1
88369
88014.5
87680
87363
87064.8
86785.5
86524.9
86285
86066
85866.4
85685.5
85523.2
85378.4
85250.1
85137.9
85041.1
84959.6
84894.3
84846
84814.9
84799.3
84797.7
84813.3
84845.1
84886.8
84941.1
85013.7
85098.1
85184
85267.6
85348.8
85424.6
85491.6
85547.8
85590.9
85618.2
85631.5
85634.3
85627.1
85607.2
85575.8
85535.3
85486.8
85433.8
85380.2
85330.2
85285.4
85249.2
85224.3
85210.7
85210.4
85231.4
85281.8
85355.9
85437.6
85518.4
85594.7
85668.9
85730.6
85770.8
85779.2
85747.6
85666
85523.8
85310.3
85026.2
84665
84233.5
83744.6
83189.5
82617
82008.7
81389.7
80774.6
80174.9
79591.8
79035.9
78502.9
77993.6
77526.5
77114.5
76751.7
76452.9
76216.6
76022.7
75891.5
75831.5
75841.4
75958.4
76200.4
76533.5
76924
77372.4
77878.4
78451.4
79054.3
79651.2
80245.1
80842.3
81430
82026.9
82603
83174.2
83742.8
84342.4
84938.9
85529.8
86113.5
86685.4
87224
87718.3
106730
106732
106733
106735
106736
106738
106739
106740
106740
106739
106736
106733
106727
106720
106709
106694
106675
106652
106622
106586
106541
106487
106424
106350
106263
106165
106053
105926
105785
105627
105453
105261
105050
104820
104570
104300
104010
103699
103366
103012
102638
102243
101828
101395
100944
100476
99992.6
99495.3
98985.4
98464.5
97934.4
97397.1
96854.4
96308.3
95760.8
95214.4
94671.2
94133.3
93602.9
93081
92569.9
92071.1
91585.9
91115.8
90661.2
90222.2
89800.8
89398.6
89015.3
88646.9
88299.2
87973
87664.5
87373.7
87101.3
86847
86611.7
86396.3
86199.9
86022
85862.6
85720.9
85595.7
85485.7
85390
85308.7
85243
85193.6
85159.8
85140.3
85137
85152.1
85180.8
85218.2
85269.9
85339.4
85418.3
85497.6
85575.4
85650.7
85721.5
85785.5
85839.7
85882.3
85911.9
85931
85941.2
85941.1
85928.4
85903.8
85868.9
85826.9
85782
85736.9
85696.3
85661.4
85635.1
85620.5
85620.9
85638.1
85673.7
85732.3
85814.9
85891.8
85966.1
86036.1
86104.1
86158.6
86190.9
86191.4
86149.4
86053.1
85895
85662.6
85359.1
84975.1
84523.6
84032.2
83446.6
82863.6
82249.5
81629.2
81008.1
80416.2
79841.6
79302.7
78788.3
78295.9
77841.7
77442.2
77089.2
76798.5
76570.1
76379.3
76245.9
76180.4
76179
76280.5
76502
76810.5
77177.6
77608.1
78101.2
78662.9
79255.7
79855.4
80449.5
81049.7
81624.7
82215
82813.8
83379.5
83956
84557.8
85173.4
85782
86376.3
86950.2
87488.4
87980.3
106354
106356
106358
106361
106363
106365
106367
106369
106370
106369
106367
106365
106360
106352
106341
106327
106308
106284
106254
106218
106174
106122
106061
105990
105908
105814
105709
105589
105456
105307
105143
104962
104764
104547
104311
104056
103781
103485
103170
102834
102478
102102
101708
101296
100866
100419
99957.5
99481.3
98992.3
98492.2
97982.4
97465.1
96941.9
96414.9
95886.3
95357.8
94831.3
94309.2
93793.8
93286.3
92788.5
92302.2
91828.9
91370.2
90926.6
90498.6
90086
89691.3
89318.4
88961.1
88621.6
88303.5
88004.1
87721.8
87457.2
87209.6
86980.3
86769.9
86578
86403.9
86247.9
86109.6
85988.4
85882.6
85790
85709.9
85642.9
85590.2
85552.2
85530.3
85527.3
85541.6
85566.3
85600.9
85650.7
85716.4
85788.5
85860.8
85932.6
86003.2
86070.3
86132.3
86185.8
86229.7
86263.7
86288.6
86304.9
86310
86302.7
86283.4
86254.6
86219.8
86184.3
86151.3
86123.4
86101.7
86088.3
86086.3
86100.9
86135
86188.8
86257.7
86344.9
86413.5
86480.9
86543.7
86603
86652
86680.5
86675.5
86623
86510.8
86332.9
86076.5
85746.1
85338
84876.6
84373.4
83753.2
83148.4
82529.9
81910.3
81291
80696.9
80127.6
79613.9
79118.3
78646.3
78206.3
77817
77470.9
77186.1
76966
76778.6
76643.3
76571.9
76559.4
76642.6
76841.5
77127.1
77473
77887
78368.4
78908.7
79485.7
80094.3
80689.1
81291.6
81851
82443
83061.2
83630.1
84221.5
84838.6
85464.1
86083.2
86688.4
87263.2
87797.7
88285.9
105928
105931
105934
105938
105941
105944
105946
105949
105950
105951
105951
105949
105945
105937
105926
105912
105894
105870
105842
105807
105765
105716
105659
105592
105516
105429
105330
105219
105095
104956
104803
104634
104449
104246
104025
103786
103527
103248
102951
102635
102300
101947
101576
101187
100781
100359
99920.9
99468.6
99003.2
98526.1
98038.7
97543
97040.5
96533.7
96024.7
95514.9
95006.6
94501.9
94002.9
93511.2
93028.5
92556.7
92096.7
91650.4
91218.7
90802.8
90402
90018
89654
89307.4
88977.3
88667.4
88377.2
88104.3
87848.5
87609.1
87386.9
87182.9
86997
86828.3
86676.1
86540.9
86423.6
86322
86233.2
86154.7
86087
86032.5
85994
85973.3
85970.2
85980.3
85999.7
86032.1
86081.3
86143.1
86208.6
86274.5
86341.6
86408.4
86472.9
86533.5
86587.2
86632.8
86672.2
86701.7
86720.9
86730.4
86728.2
86714
86692.9
86668.4
86644.2
86624.5
86611
86604.6
86607.3
86621.5
86650.7
86697.8
86768.1
86850.5
86937.2
86999.1
87059.7
87117.2
87173.1
87219.3
87243.4
87230.1
87164.7
87033.2
86834.5
86551.2
86186.4
85773.7
85286.9
84738.4
84115.6
83482.2
82848.6
82227.5
81613.8
81021.9
80464.5
79958
79494.3
79042.5
78620.1
78239.8
77898.6
77615.8
77401.1
77218.3
77081.4
77004.1
76980.2
77044.4
77221.3
77487
77813.6
78211.1
78681.2
79201.3
79768.9
80373.2
80974.3
81579.5
82118
82722.5
83338.7
83931
84536.8
85166.9
85799.4
86428.6
87043.8
87621.2
88153.9
88638.1
105456
105459
105463
105468
105472
105476
105479
105482
105485
105487
105488
105487
105484
105477
105467
105455
105438
105418
105392
105360
105322
105277
105224
105163
105093
105013
104922
104820
104706
104578
104436
104279
104106
103917
103711
103489
103248
102990
102714
102421
102109
101780
101433
101069
100689
100293
99881.7
99455.8
99016.4
98564.5
98102
97630.5
97151.2
96666.2
96177.3
95686.7
95196.9
94710.2
94228.4
93753.5
93286.8
92830.4
92385.4
91953.2
91535
91131.7
90743.8
90371.3
90017
89680.7
89361.8
89061.1
88779.4
88516.3
88270.4
88041
87828.3
87632.4
87453.4
87291.3
87144.2
87012.9
86899.4
86802.1
86717.7
86642.6
86577
86524.9
86489.1
86468.9
86462.3
86466
86481
86512.3
86560.9
86619.1
86679.2
86740.6
86804.2
86868
86929.3
86987
87040.3
87087
87129.1
87162.4
87185.4
87199.8
87204
87199.1
87188.7
87177.7
87167.6
87162
87162.8
87172.4
87192.1
87222.6
87266.7
87327
87407.6
87499.7
87584.4
87651.8
87710.2
87757.9
87816.6
87864.7
87880
87849.3
87765.6
87621.1
87401.8
87087.5
86697.7
86262.8
85740.2
85159.4
84522.5
83864.7
83207.1
82579.1
81973
81388.2
80841.5
80349.2
79904.6
79482.6
79081.2
78710.6
78374.3
78092.4
77879.7
77700
77560.7
77477.2
77441.4
77486.9
77643.7
77891.7
78202.1
78584.3
79040.8
79548.9
80107.1
80711
81309.8
81900.7
82449.2
83060.6
83675.6
84282.3
84901.3
85534.8
86177.7
86820.9
87444.4
88024.2
88556.8
89038.8
104941
104945
104949
104954
104960
104966
104971
104975
104980
104983
104983
104980
104975
104970
104967
104959
104947
104929
104907
104880
104847
104807
104760
104706
104642
104570
104488
104395
104291
104174
104044
103899
103741
103568
103380
103176
102956
102720
102467
102196
101909
101605
101284
100947
100593
100224
99839.6
99440.9
99028.5
98603.6
98167.4
97721.6
97268.5
96808.5
96342.9
95873.7
95403.2
94934
94469.2
94011
93561
93120.5
92691.6
92274.8
91870.5
91480.1
91104.9
90745.2
90402.1
90076.9
89769.4
89479.7
89208
88955
88719.5
88500.7
88298.4
88112.1
87940.9
87786.2
87646.9
87522
87413.6
87321.3
87243.3
87175.1
87114.2
87064.8
87030.3
87008.8
86997.5
86996.8
87009.9
87041.5
87089.5
87144.9
87200.7
87257.9
87317.3
87376.7
87434.3
87489.4
87542.4
87591.6
87635.2
87671.7
87701.6
87723.7
87738
87746.9
87751.9
87755.9
87761.8
87769.9
87783.6
87806
87839.7
87884.8
87942.6
88013.7
88101.9
88198.9
88287.7
88373.1
88439.2
88473
88535.2
88580.2
88582.3
88531.6
88423.5
88275.3
88040.3
87691.5
87276.2
86803.2
86247.2
85638.2
84984.5
84301.9
83616.8
82975.3
82374.8
81799.3
81259.2
80773
80346.1
79960.8
79588.7
79229.6
78898.6
78620.5
78408.8
78228
78084.7
77993.7
77945
77972.2
78111.4
78341.9
78639.1
79008.6
79447.9
79951.6
80507.3
81100.5
81688.7
82267.1
82837
83462.4
84087.4
84702.5
85326.2
85962.4
86615.8
87264.6
87888.3
88475.3
89010.3
89487.4
104385
104389
104394
104400
104408
104416
104424
104431
104437
104441
104443
104444
104447
104449
104445
104437
104426
104413
104395
104372
104345
104312
104272
104224
104169
104105
104032
103950
103857
103752
103634
103505
103363
103208
103038
102855
102656
102442
102211
101965
101704
101426
101131
100821
100495
100153
99796.2
99425.2
99040.6
98643.3
98234.1
97814.6
97386.9
96952.7
96512.8
96068.1
95619.8
95170.7
94724.4
94282.6
93848.7
93424.6
93011.2
92609.4
92220.3
91844.2
91482.2
91135.6
90805
90491.7
90196.6
89918.7
89657.9
89415.6
89191.1
88983.1
88791.1
88615.4
88454.6
88309
88179
88062.7
87961
87874.9
87803.9
87744.7
87690.5
87643.6
87609.5
87587.4
87574.9
87573.2
87586.5
87618.9
87665.5
87718
87770.5
87823.3
87877.5
87932.8
87989.3
88047.4
88104.3
88157.4
88203.2
88243.1
88279.9
88310
88336.1
88360.6
88384.1
88406.1
88427.7
88449.2
88475.2
88507.6
88551.9
88609.3
88677.3
88756.1
88852.7
88953
89050.3
89158.4
89241.8
89289.3
89317.7
89364.5
89354.5
89286.3
89157.2
89001.2
88736.9
88358.8
87915.4
87391.8
86810.7
86178.3
85507.7
84797.8
84083.5
83427.4
82833.6
82271.4
81725.3
81231.2
80826.4
80464.2
80140
79792.6
79469
79200.3
78990.2
78804
78656.8
78557.7
78495.1
78503.7
78627
78839.3
79123.4
79483.5
79904.5
80398.6
80955.8
81531
82109.5
82689.8
83288.8
83936.1
84578
85197.3
85817.8
86450.5
87107.3
87758.7
88383.9
88980.1
89513.9
89980.4
103792
103797
103802
103809
103818
103828
103839
103848
103857
103863
103869
103875
103879
103880
103879
103879
103877
103871
103860
103845
103824
103798
103765
103725
103678
103625
103562
103491
103410
103318
103216
103102
102978
102841
102691
102527
102349
102157
101951
101729
101493
101242
100975
100692
100394
100080
99751.6
99408.7
99052.4
98683.4
98302.4
97910.1
97507.7
97097.7
96681.9
96262.5
95840.2
95415.1
94988.6
94564.5
94146.4
93737.7
93340.1
92954.3
92580.1
92218.4
91870.3
91537.4
91220.9
90920.5
90637.7
90373
90124.9
89893.5
89680.4
89484
89303.1
89138.7
88989.8
88855.3
88735.2
88628.7
88535.5
88457.1
88393.4
88343
88298
88256.2
88224.1
88203.5
88193.2
88193.9
88209.3
88241.9
88286.9
88336
88385.4
88435.5
88486.8
88540.8
88599.4
88662.2
88722.6
88777.3
88825.2
88867.1
88908.4
88947.7
88987.3
89030.5
89074.7
89117.3
89156.9
89195.3
89235.5
89280.2
89332.6
89397.9
89475.4
89562.3
89667.1
89775.7
89878.4
90002.7
90108.1
90181.3
90206
90215.9
90197.3
90117.6
89976.8
89779.9
89491.8
89087.9
88597.4
88027.1
87438.8
86787.9
86078.2
85341.3
84606
83929.9
83351.6
82806.5
82245.5
81747
81358.6
81027.7
80726.1
80389.7
80081.6
79828.4
79621.2
79429.7
79278.9
79172.7
79095.6
79086.5
79192.4
79388.2
79655.9
80004.5
80411.1
80885.5
81436.2
81999.2
82580
83172.5
83798.6
84470.9
85130.9
85752.6
86365.7
86992.3
87643.9
88301.8
88933.4
89534.3
90063.8
90517.3
103167
103172
103180
103190
103201
103213
103225
103237
103248
103258
103268
103280
103291
103302
103310
103313
103312
103309
103305
103298
103285
103266
103242
103213
103177
103134
103084
103025
102957
102879
102792
102696
102588
102470
102339
102196
102039
101870
101687
101491
101281
101057
100817
100562
100291
100005
99704.6
99390.2
99061.8
98720.2
98366.7
98002.7
97628.4
97243.8
96851.4
96454.1
96054.8
95653.8
95250.9
94847.8
94448.1
94056.1
93674.2
93303.6
92945.1
92598.4
92265.2
91946.2
91643.6
91358.2
91089.1
90837.1
90603
90384.6
90183.1
89998.9
89830.5
89677.9
89540.9
89418.4
89309.5
89213.9
89131.3
89062.5
89007.9
88967
88933.1
88899.4
88872.2
88856.1
88850.3
88855.4
88874.6
88907.5
88951.5
88997.9
89044.1
89092
89143.3
89199.4
89260.6
89323.4
89380.7
89432.5
89480.1
89529.4
89582.9
89642.5
89703.3
89768.1
89830.7
89891.5
89949.3
90004.5
90059.9
90119.2
90182.1
90254.7
90340.2
90441.5
90550
90669.2
90778.3
90904
91027.3
91130.8
91169.1
91158.7
91115.8
91020.5
90860
90623.3
90294.5
89874
89336.4
88731.3
88113.7
87474.8
86724.9
85953.2
85214.3
84506.3
83907.6
83367.9
82829.3
82348.6
81966.5
81670.4
81353.8
81020.4
80736.6
80503.4
80301.1
80107.3
79954.2
79840.5
79751
79725
79812.2
79993.1
80244.4
80573.6
80968.4
81425.9
81957.2
82513.5
83094.2
83703
84361.2
85058.7
85734.8
86359.8
86966.9
87585.5
88234.8
88900.1
89535.8
90133
90658.7
91094.4
102510
102517
102530
102543
102557
102572
102587
102602
102618
102633
102648
102659
102666
102679
102701
102718
102731
102740
102745
102746
102741
102731
102717
102698
102672
102641
102602
102556
102502
102440
102370
102290
102200
102100
101988
101865
101731
101585
101426
101255
101070
100871
100658
100430
100186
99927.3
99654.4
99367.6
99067.8
98754.6
98427.7
98089.4
97742.1
97385.6
97019
96644.6
96266.7
95888.2
95508.7
95128.2
94748.6
94373.8
94008.6
93654
93311.2
92979.8
92661.1
92357.7
92069.7
91798.7
91545
91307.3
91086.7
90882.6
90694.3
90522.8
90367.2
90227
90102.3
89992.5
89896.6
89813.4
89743
89685.5
89641.4
89611.3
89590.5
89568.3
89549.3
89540.4
89541.5
89553
89576.6
89610.9
89653.9
89698.7
89742.1
89787
89839.5
89900.4
89964.2
90023.9
90077.4
90128.9
90182.1
90247.6
90321.8
90403.5
90484.6
90569.3
90650.8
90730.4
90807
90876.9
90944.7
91021.6
91098.3
91181.3
91277
91394.7
91505.3
91629.2
91746.6
91867.1
91991.6
92118.3
92188.2
92175.4
92112.1
91993
91799.7
91524
91153.2
90720.4
90160.3
89514.8
88867.9
88254.7
87496.6
86712.4
85960.6
85226.7
84594.1
84022.6
83505.9
83045.5
82670.7
82368.6
82014.5
81705.4
81440.9
81224.8
81029.4
80837.4
80686.3
80564
80465
80424.8
80492.5
80659.2
80900.2
81206.4
81588.8
82039.1
82552.7
83103.1
83681.6
84312.5
85004.2
85720.9
86392.7
87016.2
87619.8
88234.1
88880.9
89549.1
90185.5
90774.5
91293.8
91706.1
101821
101829
101842
101855
101869
101887
101904
101926
101949
101973
102001
102034
102065
102089
102103
102120
102138
102155
102170
102182
102189
102193
102192
102185
102171
102151
102125
102093
102054
102007
101952
101889
101817
101735
101643
101540
101428
101304
101168
101021
100861
100686
100498
100295
100078
99846.7
99601.1
99341
99067.8
98782.4
98483.7
98172.1
97850.2
97519.7
97178.9
96828.8
96472.9
96116.1
95759.9
95402.7
95044.5
94688.4
94339.6
94001.2
93673.6
93358.2
93055
92766.5
92494.1
92237.9
91999.1
91777.1
91571.2
91381.5
91207.2
91049
90906.9
90780
90668.4
90572.1
90490.4
90421.5
90364.5
90319.7
90287.2
90268.6
90262.8
90256.6
90248.7
90249.1
90259.4
90279
90307.7
90345.7
90388.1
90431.4
90472.7
90516.6
90572
90637.7
90704.3
90763.5
90817.9
90874.3
90939.7
91019.6
91108
91204.2
91298.6
91404.2
91498.9
91594
91701.6
91793.2
91871.9
91975
92076.4
92172.2
92275
92417.4
92526.7
92654.8
92788.6
92901.9
93010.7
93131.7
93240.9
93240.6
93166.9
93018.2
92789.6
92474.8
92079.6
91632.1
91071.9
90420.3
89781.8
89135.8
88398.2
87646.6
86874.5
86105.1
85449.9
84858.8
84332.1
83863.9
83483.5
83123.5
82732.8
82445.5
82200.7
81996.6
81805.8
81621.2
81475.7
81350.4
81242.4
81191.6
81240.4
81392.7
81629
81921.8
82292.9
82738.8
83248.5
83798.1
84382.5
85036.4
85745.1
86451.6
87097.6
87715.9
88319.3
88933.1
89575
90241.6
90876.8
91456.5
91964.5
92357
101108
101112
101119
101131
101149
101169
101189
101218
101249
101283
101320
101360
101405
101446
101482
101515
101546
101574
101601
101624
101644
101659
101670
101676
101675
101669
101657
101639
101614
101582
101542
101495
101440
101376
101304
101222
101131
101028
100915
100789
100651
100501
100337
100159
99967.7
99762.3
99542.7
99309.1
99062.2
98802.8
98530.3
98244.7
97947.7
97642.3
97327.5
97001.9
96669.3
96334.7
96000.9
95667.1
95331.5
94995.6
94664.1
94341.7
94030
93729.7
93442.4
93168.7
92911.4
92671.2
92447.8
92241.5
92051
91876.4
91716.7
91572.4
91444.1
91331.4
91234.1
91151.8
91084.4
91031.2
90989.6
90958.9
90939.4
90932.8
90942
90954.8
90960.7
90972.9
90994.3
91024.7
91059.8
91103.2
91149.2
91193.1
91232.6
91276
91337.1
91408.5
91479
91542.1
91598.5
91660.5
91736.4
91830.5
91929.1
92037
92152.2
92266
92377.2
92489.7
92612.8
92734.9
92849.6
92971.4
93099.3
93223.1
93315.3
93501.4
93610.9
93743.4
93888.4
94005.3
94110.1
94197.6
94310.2
94324.8
94246.7
94067.6
93818.6
93476.7
93086.8
92625.8
92102.6
91476.2
90834.9
90151
89422.6
88706.7
87934.7
87117.1
86453.5
85854
85299.3
84799.6
84394.1
83968.1
83555.1
83252.4
83022.1
82825.9
82634.9
82461.5
82322
82204.8
82093.7
82030.8
82063.5
82201.5
82429.7
82725.1
83091.8
83527.5
84036.4
84595.4
85192.1
85856.2
86553.8
87211.2
87830.3
88449.7
89059
89673.6
90310.9
90976.3
91609.3
92175.5
92669.3
93047.8
100378
100369
100369
100379
100404
100439
100460
100504
100546
100592
100642
100696
100752
100808
100862
100913
100959
101001
101040
101075
101108
101136
101159
101177
101190
101198
101199
101194
101183
101166
101143
101113
101075
101030
100975
100911
100839
100756
100663
100558
100443
100315
100175
100022
99853.7
99673.4
99478.5
99270
99048.6
98814
98565.8
98305.6
98035.6
97755.2
97464.2
97161.7
96850.6
96537.7
96226.4
95916.1
95604.3
95290.4
94978.2
94671.8
94375.6
94090.5
93818.2
93560.3
93318.2
93093.6
92886.2
92695.6
92520.7
92361.1
92216.7
92087.4
91973.7
91876
91794.1
91726.8
91674
91635.7
91611
91596.5
91591.9
91598.5
91622.9
91652.4
91674.2
91703
91738.2
91780.6
91822.9
91871.9
91926.6
91972.4
92017.1
92066.1
92131.7
92205.2
92278.3
92345.2
92411.8
92486.7
92576.4
92681.1
92795.5
92919.1
93048.5
93174.1
93306.9
93432.2
93568.4
93716
93860.7
94002.2
94153.4
94305.7
94438.7
94607
94758.7
94898.3
95046.3
95169.2
95275.9
95349.1
95413.6
95424.8
95335.1
95142.9
94881.3
94552.7
94165.5
93725.9
93240.2
92683.3
92020.5
91294.2
90532.4
89807.2
89066.6
88240
87529.5
86933.7
86370.9
85836.5
85389.3
84919.2
84484.7
84148.6
83912.4
83719
83531
83369.8
83233.3
83130.1
83027
82950.1
82967.5
83092.3
83303.5
83603.6
83973.8
84397.8
84896.4
85457
86060.9
86716.3
87368.2
87975.8
88590.8
89219.4
89834
90448.4
91089.4
91752.6
92379.5
92928.3
93406.6
93769.6
99739.4
99716.8
99706.5
99724.4
99750.8
99791.4
99829.2
99903.1
99954.7
100016
100082
100149
100218
100288
100354
100418
100477
100532
100581
100625
100667
100706
100740
100768
100792
100810
100822
100828
100830
100825
100814
100796
100771
100739
100699
100651
100593
100526
100450
100363
100266
100157
100036
99901.5
99753.7