/*--------------------------------*- C++ -*----------------------------------*\
| =========                 |                                                 |
| \\      /  F ield         | OpenFOAM: The Open Source CFD Toolbox           |
|  \\    /   O peration     | Version:  dev                                   |
|   \\  /    A nd           | Web:      http://www.openfoam.org               |
|    \\/     M anipulation  |                                                 |
\*---------------------------------------------------------------------------*/
FoamFile
{
    version     2.0;
    format      ascii;
    class       surfaceScalarField;
    object      phi;
    location    "9.135";
}
// * * * * * * * * * * * * * * * * * * * * * * * * * * * * * * * * * * * * * //

dimensions      [1 0 -1 0 0 0 0];

internalField   nonuniform List<scalar> 
24170
(
2.19773e-06
7.34394e-07
1.5819e-06
2.79158e-07
1.32321e-06
-8.58638e-08
1.23264e-06
-2.50925e-07
1.1442e-06
-2.50171e-07
1.09724e-06
-2.84347e-07
8.71594e-07
-1.02181e-07
8.79812e-07
-3.28581e-07
5.28075e-07
3.5317e-08
5.62469e-07
-3.43843e-07
2.09178e-07
5.16536e-08
2.42014e-07
-3.2722e-07
-1.49338e-07
1.0518e-07
2.53139e-07
-6.8607e-07
-1.1612e-06
1.14697e-06
4.63781e-08
-1.48674e-06
8.84304e-07
-1.09669e-06
4.36761e-06
-3.73879e-06
3.86365e-06
2.27078e-08
3.67739e-06
2.58438e-09
3.43604e-06
-3.02471e-07
3.32671e-06
-5.90232e-07
3.2775e-06
-6.42532e-07
3.26677e-06
-7.0713e-07
3.18365e-06
-4.44449e-07
3.29829e-06
-8.60235e-07
3.09459e-06
-1.66661e-07
3.33655e-06
-9.80029e-07
3.23295e-06
-2.2396e-07
3.16965e-06
-6.29076e-07
3.63455e-06
-7.09474e-07
3.80738e-06
-1.20503e-06
1.79279e-06
2.85496e-06
7.93069e-06
-7.94905e-06
3.60069e-06
2.92185e-06
3.40015e-06
4.37833e-06
4.53319e-06
-9.81326e-07
4.9286e-06
-9.0519e-07
4.92931e-06
-8.07278e-07
4.96238e-06
-1.11711e-06
5.03115e-06
-1.19769e-06
4.9374e-06
-1.09078e-06
4.93682e-06
-9.13064e-07
4.96854e-06
-1.35191e-06
4.82422e-06
-4.69949e-07
5.27696e-06
-1.87041e-06
4.73408e-06
-1.0348e-07
5.62341e-06
-1.92239e-06
5.33455e-06
-8.15463e-07
5.50497e-06
-1.76088e-06
7.01356e-06
1.01253e-06
6.27653e-06
-7.53709e-06
3.50893e-06
5.40435e-06
-6.3467e-06
1.2991e-05
4.81171e-06
-2.08929e-06
5.63312e-06
-2.286e-06
5.95424e-06
-1.67815e-06
6.08514e-06
-1.78622e-06
6.55286e-06
-2.1981e-06
6.3931e-06
-1.45073e-06
6.63108e-06
-1.66408e-06
6.54578e-06
-1.76661e-06
6.73774e-06
-1.15054e-06
7.01207e-06
-2.61369e-06
6.24492e-06
2.06123e-07
7.46296e-06
-3.57871e-06
6.71632e-06
-5.02547e-07
8.90334e-06
-4.34569e-06
1.00929e-05
-5.81882e-07
5.32032e-06
-3.15422e-06
9.0864e-06
1.3347e-06
-6.1925e-06
8.59057e-06
5.20401e-06
-3.01173e-06
5.79623e-06
-3.48353e-06
6.63712e-06
-3.11622e-06
6.5191e-06
-2.25223e-06
7.32256e-06
-3.58171e-06
7.29432e-06
-1.98733e-06
7.29209e-06
-2.22301e-06
7.28902e-06
-2.30472e-06
8.6193e-06
-3.01527e-06
8.12105e-06
-2.61997e-06
7.11888e-06
7.17813e-07
7.57416e-06
-4.50882e-06
8.13972e-06
-1.5369e-06
8.68179e-06
-5.3266e-06
1.02511e-05
-2.59507e-06
8.90889e-06
-2.23589e-06
9.97322e-06
-9.78674e-08
-4.66202e-06
8.06474e-06
6.13435e-06
-4.37008e-06
6.19955e-06
-4.20257e-06
7.10828e-06
-4.67006e-06
6.86493e-06
-2.63642e-06
7.80994e-06
-5.15294e-06
7.69917e-06
-2.48345e-06
7.36943e-06
-2.50176e-06
8.09597e-06
-3.61758e-06
9.77972e-06
-5.28175e-06
9.06958e-06
-2.46109e-06
9.16763e-06
8.1239e-08
9.27253e-06
-5.12744e-06
8.63907e-06
-1.39747e-06
7.05501e-06
-4.22566e-06
8.16036e-06
-4.16107e-06
1.0602e-05
-5.14293e-06
8.59577e-06
1.49791e-06
-5.64255e-06
9.20151e-06
6.78682e-06
-6.08708e-06
6.74211e-06
-4.85484e-06
7.73305e-06
-6.35603e-06
7.97408e-06
-3.54975e-06
8.27087e-06
-6.11933e-06
8.57636e-06
-3.43861e-06
9.66013e-06
-4.242e-06
9.98397e-06
-4.57214e-06
8.52249e-06
-4.42217e-06
8.71575e-06
-3.25655e-06
1.18696e-05
-3.67653e-06
1.13699e-05
-5.1906e-06
1.05046e-05
-1.04581e-06
9.13669e-06
-3.37852e-06
7.59851e-06
-3.10615e-06
1.05192e-05
-8.54269e-06
9.98942e-06
1.57949e-06
-4.41351e-06
8.33722e-06
5.1755e-06
-7.19192e-06
5.23728e-06
-5.43914e-06
5.96617e-06
-7.6093e-06
6.25427e-06
-4.34086e-06
5.49633e-06
-5.868e-06
7.45337e-06
-5.8875e-06
8.36912e-06
-5.65206e-06
7.61701e-06
-4.29795e-06
6.63968e-06
-3.89964e-06
7.9324e-06
-4.99835e-06
8.65259e-06
-4.84159e-06
8.45803e-06
-5.42521e-06
9.33375e-06
-2.32376e-06
9.48971e-06
-3.93909e-06
8.08324e-06
-2.06514e-06
7.34723e-06
-8.1479e-06
8.77059e-06
-1.93015e-07
-4.38577e-06
8.4292e-06
6.08491e-06
-8.72691e-06
6.12063e-06
-6.0565e-06
6.48943e-06
-8.56316e-06
8.13132e-06
-6.53651e-06
6.77973e-06
-5.08504e-06
8.79404e-06
-8.44775e-06
8.87313e-06
-6.27485e-06
8.74103e-06
-4.70713e-06
9.26244e-06
-4.94927e-06
9.95002e-06
-6.18826e-06
9.24891e-06
-4.62349e-06
9.63215e-06
-6.28921e-06
9.84735e-06
-2.99999e-06
1.07881e-05
-5.32916e-06
1.09773e-05
-2.67777e-06
9.32029e-06
-6.8686e-06
1.21555e-05
-3.42158e-06
-3.71294e-06
1.11248e-05
6.94144e-06
-1.03493e-05
7.97937e-06
-7.7411e-06
7.40982e-06
-8.63531e-06
9.62011e-06
-9.34919e-06
9.86133e-06
-5.95466e-06
9.95545e-06
-9.15715e-06
9.5104e-06
-6.41699e-06
1.07641e-05
-6.56127e-06
1.14881e-05
-6.26564e-06
1.11783e-05
-6.44361e-06
1.08596e-05
-4.84821e-06
1.08301e-05
-6.79016e-06
1.17861e-05
-4.47409e-06
1.20746e-05
-6.10436e-06
1.29453e-05
-4.01866e-06
1.10666e-05
-5.42888e-06
1.17463e-05
-4.52451e-06
-3.82296e-06
1.14556e-05
8.21507e-06
-1.20549e-05
9.75312e-06
-9.96827e-06
9.62944e-06
-9.19865e-06
1.04897e-05
-1.0865e-05
1.12624e-05
-7.39473e-06
1.12702e-05
-9.83706e-06
1.15219e-05
-7.31007e-06
1.2244e-05
-7.92751e-06
1.23746e-05
-7.02707e-06
1.26057e-05
-7.29023e-06
1.28875e-05
-5.7414e-06
1.28217e-05
-7.30511e-06
1.34471e-05
-5.65281e-06
1.30998e-05
-6.28878e-06
1.34186e-05
-4.84494e-06
1.29356e-05
-5.4318e-06
1.27795e-05
-4.83104e-06
-4.21754e-06
1.27409e-05
9.25392e-06
-1.34865e-05
1.04398e-05
-1.1858e-05
1.13308e-05
-1.07915e-05
1.17695e-05
-1.19852e-05
1.27505e-05
-9.06084e-06
1.30502e-05
-1.08283e-05
1.34643e-05
-8.39611e-06
1.39518e-05
-9.09575e-06
1.4311e-05
-8.04325e-06
1.44447e-05
-8.07333e-06
1.4985e-05
-6.9282e-06
1.48829e-05
-7.82507e-06
1.51935e-05
-6.54572e-06
1.48092e-05
-6.47394e-06
1.52455e-05
-5.82831e-06
1.50664e-05
-5.76198e-06
1.51212e-05
-5.37944e-06
-4.71628e-06
1.51455e-05
1.08317e-05
-1.50853e-05
1.19386e-05
-1.36259e-05
1.2991e-05
-1.25045e-05
1.35173e-05
-1.31676e-05
1.46439e-05
-1.0844e-05
1.50538e-05
-1.19096e-05
1.57641e-05
-9.76448e-06
1.62428e-05
-1.02551e-05
1.67977e-05
-9.25257e-06
1.70473e-05
-8.97484e-06
1.75802e-05
-8.11522e-06
1.74834e-05
-8.36629e-06
1.78981e-05
-7.55541e-06
1.77874e-05
-6.93909e-06
1.79539e-05
-6.56517e-06
1.79013e-05
-6.24415e-06
1.79304e-05
-5.90941e-06
-5.25525e-06
1.79873e-05
1.27503e-05
-1.66958e-05
1.41073e-05
-1.55101e-05
1.53172e-05
-1.42399e-05
1.59883e-05
-1.43776e-05
1.72158e-05
-1.26203e-05
1.77118e-05
-1.29838e-05
1.87346e-05
-1.13691e-05
1.92042e-05
-1.13345e-05
1.98727e-05
-1.05218e-05
2.02209e-05
-9.9247e-06
2.07682e-05
-9.27065e-06
2.08122e-05
-9.01181e-06
2.09721e-05
-8.28816e-06
2.11059e-05
-7.6233e-06
2.12085e-05
-7.21596e-06
2.12541e-05
-6.81703e-06
2.1261e-05
-6.40944e-06
-5.84588e-06
2.13789e-05
1.48279e-05
-1.846e-05
1.62901e-05
-1.72184e-05
1.77193e-05
-1.59224e-05
1.87058e-05
-1.56473e-05
2.01069e-05
-1.43334e-05
2.08528e-05
-1.40889e-05
2.19862e-05
-1.28941e-05
2.262e-05
-1.23978e-05
2.3305e-05
-1.16563e-05
2.38165e-05
-1.08992e-05
2.42821e-05
-1.02136e-05
2.44663e-05
-9.68464e-06
2.4687e-05
-8.98519e-06
2.496e-05
-8.36219e-06
2.5118e-05
-7.84129e-06
2.51488e-05
-7.30196e-06
2.51081e-05
-6.80409e-06
-6.29143e-06
2.51357e-05
1.74646e-05
-1.98014e-05
1.90297e-05
-1.84651e-05
2.06888e-05
-1.73177e-05
2.20043e-05
-1.6762e-05
2.35443e-05
-1.57377e-05
2.46117e-05
-1.50993e-05
2.57868e-05
-1.40845e-05
2.66023e-05
-1.32939e-05
2.7329e-05
-1.25197e-05
2.79689e-05
-1.17155e-05
2.84955e-05
-1.09527e-05
2.88583e-05
-1.02974e-05
2.91776e-05
-9.56746e-06
2.94774e-05
-8.93868e-06
2.96973e-05
-8.35114e-06
2.99131e-05
-7.8089e-06
3.00505e-05
-7.23684e-06
-6.662e-06
3.01318e-05
2.03519e-05
-2.04968e-05
2.24698e-05
-1.93384e-05
2.4536e-05
-1.82409e-05
2.6259e-05
-1.74567e-05
2.79365e-05
-1.6507e-05
2.93015e-05
-1.56871e-05
3.05946e-05
-1.47285e-05
3.17415e-05
-1.39061e-05
3.2723e-05
-1.30744e-05
3.35613e-05
-1.22145e-05
3.4331e-05
-1.14652e-05
3.49105e-05
-1.06932e-05
3.54386e-05
-9.96428e-06
3.58627e-05
-9.28445e-06
3.61748e-05
-8.62309e-06
3.63968e-05
-8.02295e-06
3.66336e-05
-7.49538e-06
-6.87038e-06
3.68028e-05
2.12365e-05
-2.03611e-05
2.33159e-05
-1.91348e-05
2.52956e-05
-1.80847e-05
2.70827e-05
-1.72718e-05
2.87982e-05
-1.64214e-05
3.03363e-05
-1.56033e-05
3.17537e-05
-1.46995e-05
3.29907e-05
-1.38594e-05
3.40609e-05
-1.30196e-05
3.49673e-05
-1.21316e-05
3.57593e-05
-1.13995e-05
3.64426e-05
-1.06337e-05
3.7043e-05
-9.91896e-06
3.75422e-05
-9.2283e-06
3.79414e-05
-8.53719e-06
3.83003e-05
-7.96359e-06
3.85472e-05
-7.37887e-06
-6.83449e-06
3.88246e-05
1.912e-05
-1.98503e-05
2.12435e-05
-1.83371e-05
2.31708e-05
-1.72547e-05
2.4932e-05
-1.64598e-05
2.65372e-05
-1.56526e-05
2.79423e-05
-1.48313e-05
2.91902e-05
-1.39652e-05
3.03008e-05
-1.31746e-05
3.12787e-05
-1.2386e-05
3.21306e-05
-1.15328e-05
3.28908e-05
-1.08667e-05
3.356e-05
-1.01466e-05
3.41372e-05
-9.46212e-06
3.4625e-05
-8.79516e-06
3.5081e-05
-8.16493e-06
3.54346e-05
-7.57986e-06
3.57075e-05
-6.98895e-06
-6.5026e-06
3.59688e-05
1.6973e-05
-1.77949e-05
1.87512e-05
-1.68092e-05
2.05839e-05
-1.59635e-05
2.23261e-05
-1.52705e-05
2.39039e-05
-1.4511e-05
2.52797e-05
-1.36952e-05
2.6492e-05
-1.28721e-05
2.75417e-05
-1.2116e-05
2.84468e-05
-1.1375e-05
2.92721e-05
-1.06178e-05
3.00164e-05
-1.00365e-05
3.06957e-05
-9.40269e-06
3.12864e-05
-8.76736e-06
3.18362e-05
-8.18628e-06
3.22893e-05
-7.56951e-06
3.26617e-05
-7.00534e-06
3.30077e-05
-6.47877e-06
-5.97783e-06
3.32605e-05
1.51351e-05
-1.61031e-05
1.70027e-05
-1.52163e-05
1.86943e-05
-1.43742e-05
2.02075e-05
-1.36949e-05
2.15862e-05
-1.30079e-05
2.28548e-05
-1.22961e-05
2.40121e-05
-1.15687e-05
2.50338e-05
-1.08755e-05
2.59188e-05
-1.01895e-05
2.67341e-05
-9.54011e-06
2.74542e-05
-9.03165e-06
2.80826e-05
-8.4626e-06
2.86483e-05
-7.90699e-06
2.9111e-05
-7.35891e-06
2.95662e-05
-6.84988e-06
2.99623e-05
-6.3371e-06
3.02905e-05
-5.83971e-06
-5.39299e-06
3.05878e-05
1.38191e-05
-1.39202e-05
1.52799e-05
-1.3224e-05
1.67628e-05
-1.25727e-05
1.81439e-05
-1.19788e-05
1.94006e-05
-1.13653e-05
2.05416e-05
-1.07426e-05
2.1617e-05
-1.01508e-05
2.26048e-05
-9.56624e-06
2.34863e-05
-8.96351e-06
2.4354e-05
-8.47256e-06
2.50561e-05
-7.96644e-06
2.56638e-05
-7.45307e-06
2.61846e-05
-6.95131e-06
2.66193e-05
-6.45189e-06
2.69725e-05
-5.97466e-06
2.73112e-05
-5.56295e-06
2.76209e-05
-5.13072e-06
-4.73491e-06
2.78882e-05
1.22919e-05
-1.19219e-05
1.37164e-05
-1.13087e-05
1.51363e-05
-1.08112e-05
1.6482e-05
-1.03223e-05
1.77076e-05
-9.77911e-06
1.88048e-05
-9.2189e-06
1.97881e-05
-8.70397e-06
2.06398e-05
-8.17183e-06
2.14404e-05
-7.69612e-06
2.21443e-05
-7.27558e-06
2.27523e-05
-6.83246e-06
2.32927e-05
-6.39728e-06
2.3759e-05
-5.95883e-06
2.41684e-05
-5.52924e-06
2.45377e-05
-5.1252e-06
2.4825e-05
-4.74176e-06
2.50983e-05
-4.38762e-06
-4.05363e-06
2.53408e-05
1.08576e-05
-9.75062e-06
1.21878e-05
-9.4799e-06
1.35684e-05
-9.18355e-06
1.48313e-05
-8.74448e-06
1.59345e-05
-8.21937e-06
1.69139e-05
-7.71378e-06
1.77776e-05
-7.25907e-06
1.8568e-05
-6.82455e-06
1.93105e-05
-6.46653e-06
1.9931e-05
-6.08042e-06
2.0498e-05
-5.73164e-06
2.10007e-05
-5.37016e-06
2.14329e-05
-4.99008e-06
2.18206e-05
-4.63482e-06
2.21662e-05
-4.29831e-06
2.24779e-05
-3.98195e-06
2.27455e-05
-3.67524e-06
-3.39208e-06
2.2977e-05
9.60587e-06
-8.01619e-06
1.10052e-05
-7.94581e-06
1.23067e-05
-7.68988e-06
1.34413e-05
-7.2386e-06
1.44317e-05
-6.73346e-06
1.53117e-05
-6.28103e-06
1.61225e-05
-5.91855e-06
1.68829e-05
-5.59138e-06
1.7564e-05
-5.30528e-06
1.81743e-05
-4.99268e-06
1.86905e-05
-4.68686e-06
1.91347e-05
-4.38027e-06
1.95257e-05
-4.0663e-06
1.98764e-05
-3.78191e-06
2.01821e-05
-3.50063e-06
2.04478e-05
-3.23987e-06
2.06802e-05
-2.98484e-06
-2.74204e-06
2.08729e-05
8.73062e-06
-6.36153e-06
9.89677e-06
-6.42159e-06
1.10075e-05
-6.2388e-06
1.20276e-05
-5.83708e-06
1.29521e-05
-5.38583e-06
1.37818e-05
-4.98797e-06
1.45285e-05
-4.69024e-06
1.52154e-05
-4.44641e-06
1.58124e-05
-4.20858e-06
1.6333e-05
-3.95122e-06
1.67774e-05
-3.69305e-06
1.7158e-05
-3.43877e-06
1.74885e-05
-3.18329e-06
1.77756e-05
-2.95604e-06
1.80279e-05
-2.73295e-06
1.82448e-05
-2.52365e-06
1.84222e-05
-2.30826e-06
-2.12203e-06
1.85822e-05
7.88369e-06
-4.82861e-06
9.07195e-06
-5.16762e-06
1.00879e-05
-4.93061e-06
1.09622e-05
-4.51381e-06
1.17325e-05
-4.09285e-06
1.24191e-05
-3.74654e-06
1.30207e-05
-3.49649e-06
1.35413e-05
-3.30088e-06
1.39968e-05
-3.12276e-06
1.43839e-05
-2.91603e-06
1.47166e-05
-2.71667e-06
1.49911e-05
-2.50972e-06
1.52289e-05
-2.31574e-06
1.54203e-05
-2.13355e-06
1.55861e-05
-1.96871e-06
1.57121e-05
-1.79822e-06
1.58364e-05
-1.65248e-06
-1.51626e-06
1.59431e-05
7.1473e-06
-3.58923e-06
8.12595e-06
-3.94593e-06
8.84783e-06
-3.55691e-06
9.44375e-06
-3.12827e-06
9.98215e-06
-2.7712e-06
1.0448e-05
-2.47366e-06
1.08408e-05
-2.26951e-06
1.11619e-05
-2.11784e-06
1.14181e-05
-1.98656e-06
1.16227e-05
-1.83518e-06
1.17848e-05
-1.69529e-06
1.19401e-05
-1.57727e-06
1.20649e-05
-1.44215e-06
1.21673e-05
-1.32089e-06
1.22569e-05
-1.21999e-06
1.2324e-05
-1.09778e-06
1.23791e-05
-1.00547e-06
-9.18834e-07
1.2423e-05
6.30221e-06
-2.47579e-06
6.72645e-06
-2.39799e-06
6.95189e-06
-1.90576e-06
7.1463e-06
-1.5469e-06
7.33841e-06
-1.29422e-06
7.55596e-06
-1.12981e-06
7.76901e-06
-1.02827e-06
7.95645e-06
-9.56533e-07
8.11748e-06
-9.01287e-07
8.27503e-06
-8.445e-07
8.41507e-06
-7.79814e-07
8.53123e-06
-7.24312e-07
8.63967e-06
-6.61577e-07
8.73489e-06
-6.01475e-07
8.81326e-06
-5.52049e-07
8.90334e-06
-5.04207e-07
8.99328e-06
-4.70248e-07
-4.05706e-07
9.05158e-06
4.39167e-06
3.79616e-06
3.59524e-06
3.65397e-06
3.86545e-06
4.1413e-06
4.41987e-06
4.6736e-06
4.88962e-06
5.07405e-06
5.24002e-06
5.38392e-06
5.51853e-06
5.64649e-06
5.76241e-06
5.86944e-06
5.9581e-06
6.06432e-06
9.93285e-08
2.02403e-07
5.73027e-07
-1.51612e-07
1.26049e-06
-3.54879e-07
1.99692e-06
-3.94576e-07
2.66436e-06
-3.18041e-07
3.29397e-06
-2.74249e-07
3.86924e-06
-2.15266e-07
4.33208e-06
-9.91683e-08
4.6803e-06
1.95697e-08
4.96648e-06
8.61535e-08
5.21016e-06
1.32647e-07
5.35406e-06
2.3709e-07
5.40328e-06
3.36728e-07
5.41567e-06
3.7571e-07
5.36643e-06
4.39367e-07
5.24534e-06
5.15812e-07
5.05229e-06
5.90709e-07
4.72935e-06
7.20877e-07
4.27536e-06
8.48323e-07
3.72943e-06
9.32886e-07
3.04322e-06
1.07248e-06
2.5173e-06
9.20015e-07
2.58819e-06
3.21388e-07
3.08268e-06
-1.31689e-07
3.51183e-06
-9.23329e-08
3.78521e-06
5.21058e-08
3.87846e-06
2.15114e-07
3.71907e-06
4.36054e-07
3.21095e-06
7.57368e-07
2.50402e-06
9.38445e-07
1.71717e-06
9.98903e-07
8.93419e-07
1.00653e-06
4.37043e-08
9.96854e-07
-8.04349e-07
9.55451e-07
-1.63612e-06
8.95695e-07
-2.43416e-06
8.15151e-07
-3.18665e-06
7.1979e-07
-3.88406e-06
6.12258e-07
-4.51595e-06
4.9185e-07
-5.08749e-06
3.74469e-07
-5.60674e-06
2.6339e-07
-6.07828e-06
1.55672e-07
-6.50565e-06
5.10436e-08
-6.89038e-06
-5.16792e-08
-7.25993e-06
-1.25831e-07
-7.61981e-06
-1.92748e-07
-7.98467e-06
-2.42412e-07
-8.38064e-06
-2.62753e-07
-8.80552e-06
-2.81777e-07
-9.2458e-06
-3.10135e-07
-9.69401e-06
-3.41119e-07
-1.01503e-05
-3.66704e-07
-1.06033e-05
-3.98176e-07
-1.10432e-05
-4.33226e-07
-1.14602e-05
-4.71948e-07
-1.18474e-05
-5.11193e-07
-1.21803e-05
-5.68343e-07
-1.24397e-05
-6.38507e-07
-1.26388e-05
-6.89259e-07
-1.27657e-05
-7.46184e-07
-1.28059e-05
-8.11339e-07
-1.27964e-05
-8.34458e-07
-1.27692e-05
-8.21618e-07
-1.27042e-05
-8.25479e-07
-1.26536e-05
-7.73284e-07
-1.26324e-05
-7.03451e-07
-1.26054e-05
-6.67023e-07
-1.25851e-05
-6.16543e-07
-1.25461e-05
-5.88415e-07
-1.24923e-05
-5.54773e-07
-1.24292e-05
-5.14658e-07
-1.23727e-05
-4.58373e-07
-1.23446e-05
-3.81823e-07
-1.23476e-05
-3.02451e-07
-1.23383e-05
-2.68995e-07
-1.22642e-05
-2.90093e-07
-1.21143e-05
-3.22356e-07
-1.19205e-05
-3.23887e-07
-1.17251e-05
-2.85998e-07
-1.15224e-05
-2.58175e-07
-1.12958e-05
-2.49003e-07
-1.10143e-05
-2.6907e-07
-1.07279e-05
-2.3936e-07
-1.04444e-05
-2.04168e-07
-1.02363e-05
-9.7518e-08
-1.00977e-05
5.06138e-09
-1.00725e-05
1.47826e-07
-1.02013e-05
3.19956e-07
-1.04538e-05
4.59783e-07
-1.07541e-05
5.37534e-07
-1.08614e-05
3.99496e-07
-1.0466e-05
-1.58131e-08
-9.65565e-06
-3.35717e-07
-8.97199e-06
-1.54546e-07
-8.67176e-06
2.50758e-07
-8.46252e-06
3.8003e-07
-7.97512e-06
1.78679e-07
-7.28491e-06
7.94829e-08
-6.58571e-06
2.2402e-07
-5.76964e-06
2.52414e-07
-4.70474e-06
1.10418e-07
-3.70243e-06
2.86051e-07
-3.336e-06
9.60536e-07
-3.84316e-06
1.84852e-06
-5.00799e-06
2.55346e-06
-6.55391e-06
3.00182e-06
-8.39755e-06
3.41893e-06
-1.02192e-05
3.50222e-06
-1.17945e-05
3.19899e-06
-1.28963e-05
2.67514e-06
-1.33701e-05
2.12841e-06
-1.32191e-05
1.55773e-06
-1.26503e-05
1.12303e-06
-1.18036e-05
8.37291e-07
-1.05452e-05
4.31953e-07
-8.42171e-06
-4.43929e-07
-5.37776e-06
-1.38473e-06
-1.49553e-06
-2.23414e-06
2.6546e-06
-2.54086e-06
5.00147e-06
-7.14678e-07
6.17085e-06
4.54396e-07
6.13568e-06
1.70798e-06
5.53262e-06
2.35593e-06
5.05376e-06
2.21177e-06
5.20889e-06
1.48548e-06
5.35512e-06
1.42912e-06
5.05735e-06
1.82224e-06
4.68224e-06
1.82998e-06
4.59745e-06
1.44132e-06
4.35702e-06
1.48345e-06
4.06179e-06
1.42572e-06
3.86542e-06
1.21131e-06
3.72398e-06
1.02452e-06
3.60255e-06
8.6675e-07
3.40948e-06
8.35664e-07
3.42441e-06
5.21337e-07
3.41364e-06
4.50176e-07
3.26844e-06
5.09755e-07
3.03198e-06
5.49271e-07
2.8893e-06
4.29415e-07
2.75034e-06
4.11428e-07
2.38545e-06
6.67028e-07
1.92937e-06
7.93767e-07
1.41593e-06
8.93361e-07
9.86505e-07
8.52258e-07
6.32565e-07
8.19205e-07
3.05838e-07
8.2584e-07
1.25902e-09
8.21699e-07
-2.31628e-07
7.53655e-07
-3.28925e-07
6.14324e-07
-4.1818e-07
6.04999e-07
-4.36596e-07
5.40073e-07
-4.51146e-07
5.49395e-07
-7.19402e-07
8.29378e-07
-8.9735e-07
7.62688e-07
-1.23212e-06
9.60767e-07
-2.10296e-06
1.58712e-06
-3.30531e-06
2.0245e-06
-3.75217e-06
1.37416e-06
-3.22258e-06
5.56917e-07
-2.27807e-06
3.08467e-07
-1.54426e-06
5.6899e-07
-9.85856e-07
8.4447e-07
-6.55268e-07
1.1957e-06
-1.95414e-07
1.17493e-06
-1.69061e-07
1.73119e-06
-1.09506e-06
2.81301e-06
-1.86215e-06
2.74054e-06
-2.36994e-06
2.56636e-06
-2.85172e-06
2.60985e-06
-4.16658e-06
3.51997e-06
-5.27198e-06
3.386e-06
-4.57644e-06
1.61476e-06
-1.77073e-06
-3.81719e-07
2.00912e-06
-1.29862e-06
3.30841e-06
1.47055e-06
4.01467e-06
2.28971e-06
5.55291e-06
1.68259e-06
6.78947e-06
2.23671e-06
2.61959e-06
7.87163e-06
1.32123e-07
3.61183e-07
6.57892e-07
-3.6051e-07
1.36273e-06
-7.30986e-07
2.10193e-06
-7.94237e-07
2.80669e-06
-6.74584e-07
3.45258e-06
-5.66403e-07
4.03736e-06
-4.40972e-07
4.54657e-06
-2.45562e-07
4.99578e-06
-6.35289e-08
5.38861e-06
6.40083e-08
5.72561e-06
1.71163e-07
5.96176e-06
3.80515e-07
6.03956e-06
6.3908e-07
6.03166e-06
7.54923e-07
6.00558e-06
8.30093e-07
5.86729e-06
1.03313e-06
5.56126e-06
1.2907e-06
5.22107e-06
1.45291e-06
5.06851e-06
1.40314e-06
5.10805e-06
1.29129e-06
5.2042e-06
1.34922e-06
5.22829e-06
1.31307e-06
4.96583e-06
1.04711e-06
4.16889e-06
1.00643e-06
2.86827e-06
1.42465e-06
1.22825e-06
1.93484e-06
-4.3476e-07
2.1677e-06
-1.99868e-06
2.28953e-06
-3.31311e-06
2.3433e-06
-4.44711e-06
2.32152e-06
-5.47229e-06
2.24633e-06
-6.42515e-06
2.15097e-06
-7.30235e-06
2.03102e-06
-8.10286e-06
1.87646e-06
-8.83672e-06
1.7088e-06
-9.494e-06
1.50608e-06
-1.00746e-05
1.28414e-06
-1.05808e-05
1.04741e-06
-1.1019e-05
8.01669e-07
-1.14e-05
5.67416e-07
-1.17191e-05
3.33908e-07
-1.20089e-05
1.37595e-07
-1.228e-05
-4.46119e-08
-1.25436e-05
-2.13126e-07
-1.28046e-05
-3.46727e-07
-1.30825e-05
-4.51592e-07
-1.33748e-05
-5.39888e-07
-1.36508e-05
-6.2778e-07
-1.39253e-05
-6.96878e-07
-1.42131e-05
-7.56076e-07
-1.45109e-05
-8.16049e-07
-1.48002e-05
-8.84632e-07
-1.50686e-05
-9.6703e-07
-1.53141e-05
-1.04903e-06
-1.55153e-05
-1.14947e-06
-1.566e-05
-1.25573e-06
-1.57482e-05
-1.37314e-06
-1.57972e-05
-1.48024e-06
-1.57533e-05
-1.61504e-06
-1.56374e-05
-1.72852e-06
-1.54196e-05
-1.87487e-06
-1.51904e-05
-1.88563e-06
-1.49364e-05
-1.8706e-06
-1.46569e-05
-1.8701e-06
-1.44262e-05
-1.73668e-06
-1.42744e-05
-1.55151e-06
-1.41496e-05
-1.45087e-06
-1.40299e-05
-1.35556e-06
-1.38692e-05
-1.32365e-06
-1.36648e-05
-1.28829e-06
-1.34452e-05
-1.21685e-06
-1.32114e-05
-1.12965e-06
-1.30473e-05
-9.35207e-07
-1.29363e-05
-7.47614e-07
-1.28942e-05
-5.85908e-07
-1.27637e-05
-6.43297e-07
-1.24651e-05
-8.0246e-07
-1.20693e-05
-8.70423e-07
-1.17305e-05
-7.42094e-07
-1.14111e-05
-6.61713e-07
-1.10734e-05
-6.41867e-07
-1.06852e-05
-6.7534e-07
-1.02726e-05
-6.35197e-07
-9.96068e-06
-4.78282e-07
-9.87063e-06
-1.28778e-07
-9.91845e-06
1.52745e-07
-1.00183e-05
3.97463e-07
-1.018e-05
6.60772e-07
-1.04235e-05
8.99761e-07
-1.06675e-05
1.02759e-06
-1.06721e-05
7.21103e-07
-1.01937e-05
-1.23037e-07
-9.21031e-06
-8.75921e-07
-8.10516e-06
-7.37465e-07
-7.60364e-06
2.96805e-07
-7.24931e-06
6.04272e-07
-6.33994e-06
-5.24061e-08
-5.1652e-06
-3.46648e-07
-3.97371e-06
-9.54528e-08
-3.38199e-06
7.85276e-07
-4.29617e-06
2.30084e-06
-6.35677e-06
3.65532e-06
-8.49356e-06
4.4272e-06
-1.04506e-05
5.20629e-06
-1.2207e-05
5.83199e-06
-1.38532e-05
6.22833e-06
-1.51618e-05
6.23521e-06
-1.60437e-05
5.86026e-06
-1.65024e-05
5.18884e-06
-1.64702e-05
4.24922e-06
-1.594e-05
3.23959e-06
-1.5129e-05
2.37375e-06
-1.41074e-05
1.7214e-06
-1.28262e-05
1.15714e-06
-1.11205e-05
2.93136e-07
-8.73143e-06
-1.27385e-06
-5.73425e-06
-2.80057e-06
-2.42058e-06
-3.96094e-06
1.15794e-06
-4.59282e-06
3.61226e-06
-1.51403e-06
4.95798e-06
7.38168e-07
5.71258e-06
2.55127e-06
6.21333e-06
3.54406e-06
6.41783e-06
3.67609e-06
6.93169e-06
2.52105e-06
7.53795e-06
2.25696e-06
7.97765e-06
2.77083e-06
8.12743e-06
3.06568e-06
8.15872e-06
2.7858e-06
8.28611e-06
2.66e-06
8.32038e-06
2.57799e-06
8.20628e-06
2.38976e-06
7.9851e-06
2.17323e-06
7.71017e-06
1.91663e-06
7.47007e-06
1.72352e-06
7.17206e-06
1.3495e-06
7.17294e-06
8.70028e-07
7.11009e-06
8.94958e-07
6.97047e-06
9.51316e-07
7.00381e-06
6.37644e-07
7.17402e-06
4.50816e-07
7.27293e-06
7.93921e-07
7.08364e-06
1.24005e-06
6.56914e-06
1.71584e-06
5.99293e-06
1.78938e-06
5.33447e-06
1.88147e-06
4.67836e-06
1.91979e-06
4.02903e-06
1.93797e-06
3.46574e-06
1.79323e-06
3.06177e-06
1.49503e-06
2.74532e-06
1.40214e-06
2.6665e-06
1.09586e-06
2.61424e-06
1.09104e-06
2.32857e-06
1.64158e-06
1.96748e-06
1.65392e-06
1.41143e-06
2.09753e-06
4.04779e-07
3.33209e-06
-5.65384e-07
3.94251e-06
-3.84645e-07
2.23074e-06
8.53616e-07
4.22288e-07
1.51751e-06
8.21659e-07
1.2237e-06
2.02761e-06
4.0582e-07
2.94714e-06
-5.66168e-07
3.6052e-06
-1.57782e-06
3.72509e-06
-3.22143e-06
5.08944e-06
-4.48854e-06
5.85805e-06
-4.9255e-06
4.96388e-06
-5.3316e-06
4.8588e-06
-6.8054e-06
6.14436e-06
-8.82293e-06
7.7662e-06
-8.02456e-06
4.76888e-06
-5.24109e-06
7.8577e-07
-2.07663e-06
-1.4415e-06
2.91014e-06
-4.1777e-06
5.39729e-06
1.64749e-06
6.42168e-06
4.16809e-06
8.55781e-06
2.55631e-06
1.05968e-05
3.54997e-06
4.35483e-06
1.25337e-05
2.16381e-07
4.15936e-07
8.0648e-07
-6.51322e-07
1.46764e-06
-1.0839e-06
2.10106e-06
-1.11259e-06
2.69802e-06
-9.50722e-07
3.24504e-06
-7.87446e-07
3.75032e-06
-6.14126e-07
4.25166e-06
-4.11293e-07
4.75497e-06
-2.25038e-07
5.21995e-06
-5.51659e-08
5.55555e-06
1.82048e-07
5.74608e-06
5.36633e-07
5.8086e-06
9.10387e-07
5.74378e-06
1.13721e-06
5.65067e-06
1.24946e-06
5.50069e-06
1.52829e-06
5.20055e-06
1.94731e-06
4.82962e-06
2.21276e-06
4.318e-06
2.32693e-06
3.48583e-06
2.48342e-06
2.42378e-06
2.69889e-06
9.74211e-07
3.03153e-06
-9.28337e-07
3.23397e-06
-3.00985e-06
3.37978e-06
-4.72171e-06
3.41978e-06
-5.88227e-06
3.39054e-06
-6.78437e-06
3.36628e-06
-7.58095e-06
3.36765e-06
-8.28388e-06
3.31117e-06
-8.9193e-06
3.20344e-06
-9.51245e-06
3.06014e-06
-1.0047e-05
2.87968e-06
-1.05243e-05
2.66788e-06
-1.09437e-05
2.41597e-06
-1.13011e-05
2.14768e-06
-1.16246e-05
1.8622e-06
-1.19167e-05
1.55829e-06
-1.21836e-05
1.24175e-06
-1.24365e-05
9.23844e-07
-1.2657e-05
6.05134e-07
-1.2868e-05
3.10581e-07
-1.30704e-05
5.20971e-08
-1.32621e-05
-1.94156e-07
-1.34602e-05
-4.10995e-07
-1.36273e-05
-6.29919e-07
-1.3766e-05
-8.16148e-07
-1.39081e-05
-9.54671e-07
-1.41064e-05
-1.03904e-06
-1.43204e-05
-1.14343e-06
-1.45437e-05
-1.23727e-06
-1.47433e-05
-1.35785e-06
-1.49482e-05
-1.45494e-06
-1.51681e-05
-1.55197e-06
-1.53764e-05
-1.66839e-06
-1.55779e-05
-1.78859e-06
-1.57319e-05
-1.94621e-06
-1.58198e-05
-2.12747e-06
-1.58608e-05
-2.27608e-06
-1.58368e-05
-2.46557e-06
-1.57294e-05
-2.64568e-06
-1.5518e-05
-2.87667e-06
-1.52528e-05
-2.92062e-06
-1.49393e-05
-2.92804e-06
-1.45669e-05
-2.95913e-06
-1.42505e-05
-2.73777e-06
-1.40132e-05
-2.43057e-06
-1.38592e-05
-2.20594e-06
-1.38167e-05
-1.95681e-06
-1.37788e-05
-1.88116e-06
-1.3685e-05
-1.86486e-06
-1.35172e-05
-1.83206e-06
-1.3319e-05
-1.74755e-06
-1.31193e-05
-1.5199e-06
-1.29526e-05
-1.23117e-06
-1.28616e-05
-8.83811e-07
-1.27427e-05
-8.75089e-07
-1.24113e-05
-1.23089e-06
-1.19601e-05
-1.44366e-06
-1.15963e-05
-1.21384e-06
-1.12638e-05
-1.05564e-06
-1.08398e-05
-1.07357e-06
-1.02284e-05
-1.21764e-06
-9.5639e-06
-1.1877e-06
-9.03193e-06
-9.3366e-07
-8.6734e-06
-4.64643e-07
-8.58359e-06
1.00471e-07
-8.69132e-06
6.29539e-07
-8.8399e-06
1.03779e-06
-8.97424e-06
1.33197e-06
-9.11395e-06
1.53143e-06
-9.16006e-06
1.21845e-06
-9.13772e-06
3.31723e-07
-8.76231e-06
-8.25494e-07
-8.03439e-06
-1.04286e-06
-7.26297e-06
-4.05894e-08
-6.28077e-06
1.08948e-07
-5.04871e-06
-6.16528e-07
-4.3406e-06
-1.77329e-07
-5.14696e-06
1.68102e-06
-7.05328e-06
3.74887e-06
-9.11621e-06
5.56087e-06
-1.09802e-05
6.84931e-06
-1.27614e-05
7.61818e-06
-1.42855e-05
8.24554e-06
-1.53518e-05
8.47434e-06
-1.61288e-05
8.46817e-06
-1.6727e-05
8.15036e-06
-1.68913e-05
7.38165e-06
-1.66488e-05
6.46807e-06
-1.61336e-05
5.36448e-06
-1.53449e-05
4.14054e-06
-1.44219e-05
3.18498e-06
-1.33011e-05
2.37676e-06
-1.20065e-05
1.59179e-06
-1.05125e-05
4.65338e-07
-8.62077e-06
-1.49307e-06
-6.4023e-06
-3.30756e-06
-3.94074e-06
-4.75524e-06
-1.49341e-06
-5.46981e-06
5.58765e-07
-1.89405e-06
1.67804e-06
1.39143e-06
2.85552e-06
3.01781e-06
3.72008e-06
4.2561e-06
4.77314e-06
4.25231e-06
6.2862e-06
2.68839e-06
7.52409e-06
2.50853e-06
8.2634e-06
3.35063e-06
8.6598e-06
4.03103e-06
8.73206e-06
4.16204e-06
8.85208e-06
3.90512e-06
9.09401e-06
3.54368e-06
9.29532e-06
3.28127e-06
9.44893e-06
3.00043e-06
9.20961e-06
2.99395e-06
8.89608e-06
2.72341e-06
8.69612e-06
2.08435e-06
8.47321e-06
1.50066e-06
8.35113e-06
1.33345e-06
8.12662e-06
1.42002e-06
8.15861e-06
8.03553e-07
8.4146e-06
3.92963e-07
8.87731e-06
5.75341e-07
9.35258e-06
1.05391e-06
9.52771e-06
1.86946e-06
9.39028e-06
2.31682e-06
8.92003e-06
2.79377e-06
8.27849e-06
3.03458e-06
7.56538e-06
3.16172e-06
7.11124e-06
2.77225e-06
6.74261e-06
2.38855e-06
6.05077e-06
2.62209e-06
5.48949e-06
2.2099e-06
4.9466e-06
2.24377e-06
4.18298e-06
3.01888e-06
3.6382e-06
2.7632e-06
3.10938e-06
3.26919e-06
2.30752e-06
4.97899e-06
1.85862e-06
5.46733e-06
1.86272e-06
3.24175e-06
1.92373e-06
1.27677e-06
1.66727e-06
1.99628e-06
8.10517e-07
3.90639e-06
-5.57073e-07
5.59577e-06
-1.82447e-06
6.2971e-06
-3.66588e-06
7.1529e-06
-5.41222e-06
8.61926e-06
-6.13465e-06
8.32677e-06
-6.17191e-06
6.79756e-06
-6.76403e-06
7.4132e-06
-7.98629e-06
9.59868e-06
-9.01639e-06
1.11509e-05
-7.48408e-06
5.4835e-06
-4.1165e-06
-7.88644e-07
-1.73176e-06
-1.7942e-06
1.80372e-06
-5.6873e-06
5.61843e-06
3.28921e-07
7.21094e-06
5.29923e-06
9.34928e-06
3.16217e-06
1.20464e-05
3.80979e-06
5.38829e-06
1.43405e-05
2.92176e-07
3.72685e-07
8.69185e-07
-9.44612e-07
1.35974e-06
-1.28007e-06
1.74041e-06
-1.19461e-06
2.10939e-06
-1.02047e-06
2.46933e-06
-8.4591e-07
2.81874e-06
-6.60458e-07
3.15718e-06
-4.49666e-07
3.52853e-06
-2.91552e-07
3.89419e-06
-1.09842e-07
4.08926e-06
2.93558e-07
4.09819e-06
8.32039e-07
3.96774e-06
1.3484e-06
3.70053e-06
1.72203e-06
3.21671e-06
2.06176e-06
2.5965e-06
2.47776e-06
1.88718e-06
2.9839e-06
1.00922e-06
3.39938e-06
-2.48339e-07
3.86269e-06
-1.70486e-06
4.20718e-06
-3.18447e-06
4.46385e-06
-4.46542e-06
4.6201e-06
-5.55443e-06
4.64958e-06
-6.43504e-06
4.60078e-06
-7.2154e-06
4.53232e-06
-7.95029e-06
4.44599e-06
-8.59279e-06
4.32244e-06
-9.12392e-06
4.19655e-06
-9.58637e-06
4.04529e-06
-9.98482e-06
3.84991e-06
-1.03345e-05
3.63465e-06
-1.06476e-05
3.38427e-06
-1.09202e-05
3.10194e-06
-1.11797e-05
2.79603e-06
-1.1423e-05
2.46785e-06
-1.16397e-05
2.1165e-06
-1.18132e-05
1.72109e-06
-1.19534e-05
1.32638e-06
-1.20857e-05
9.52026e-07
-1.22227e-05
5.82989e-07
-1.2345e-05
2.25452e-07
-1.2449e-05
-1.00176e-07
-1.25576e-05
-3.92871e-07
-1.2661e-05
-6.66481e-07
-1.27776e-05
-9.25725e-07
-1.29192e-05
-1.14067e-06
-1.30763e-05
-1.31605e-06
-1.32208e-05
-1.46271e-06
-1.3403e-05
-1.57573e-06
-1.36218e-05
-1.6744e-06
-1.38674e-05
-1.80238e-06
-1.41166e-05
-1.92139e-06
-1.43668e-05
-2.03684e-06
-1.46048e-05
-2.18016e-06
-1.48313e-05
-2.31626e-06
-1.50298e-05
-2.49982e-06
-1.52149e-05
-2.69056e-06
-1.53071e-05
-2.92648e-06
-1.53539e-05
-3.15322e-06
-1.53255e-05
-3.39743e-06
-1.52058e-05
-3.71044e-06
-1.50006e-05
-3.82566e-06
-1.47331e-05
-3.86765e-06
-1.44251e-05
-3.91963e-06
-1.40838e-05
-3.70969e-06
-1.36589e-05
-3.44513e-06
-1.32414e-05
-3.16729e-06
-1.29785e-05
-2.69824e-06
-1.2873e-05
-2.39814e-06
-1.28544e-05
-2.25242e-06
-1.27118e-05
-2.31778e-06
-1.25122e-05
-2.27329e-06
-1.23524e-05
-1.98804e-06
-1.22305e-05
-1.63194e-06
-1.21273e-05
-1.16252e-06
-1.20423e-05
-9.81341e-07
-1.18756e-05
-1.39351e-06
-1.16308e-05
-1.76572e-06
-1.13253e-05
-1.5756e-06
-1.0979e-05
-1.3817e-06
-1.05896e-05
-1.39936e-06
-1.0022e-05
-1.67118e-06
-9.35019e-06
-1.70422e-06
-8.71725e-06
-1.40015e-06
-8.07918e-06
-9.66126e-07
-7.53121e-06
-3.45559e-07
-7.1464e-06
3.71444e-07
-6.92064e-06
1.00443e-06
-6.6344e-06
1.28203e-06
-6.32156e-06
1.51815e-06
-6.31987e-06
1.62367e-06
-6.40799e-06
9.30796e-07
-6.61778e-06
-2.74602e-08
-6.68627e-06
-3.90026e-07
-6.01973e-06
-2.43376e-07
-5.38723e-06
1.49863e-09
-5.66138e-06
4.2491e-07
-6.942e-06
2.01779e-06
-8.7279e-06
4.42629e-06
-1.05598e-05
6.63102e-06
-1.21652e-05
8.36226e-06
-1.35885e-05
9.6033e-06
-1.47673e-05
1.02678e-05
-1.53971e-05
1.05153e-05
-1.57565e-05
1.04905e-05
-1.59722e-05