/*--------------------------------*- C++ -*----------------------------------*\
| =========                 |                                                 |
| \\      /  F ield         | OpenFOAM: The Open Source CFD Toolbox           |
|  \\    /   O peration     | Version:  dev                                   |
|   \\  /    A nd           | Web:      http://www.openfoam.org               |
|    \\/     M anipulation  |                                                 |
\*---------------------------------------------------------------------------*/
FoamFile
{
    version     2.0;
    format      ascii;
    class       surfaceScalarField;
    object      phi_0;
    location    "9.135";
}
// * * * * * * * * * * * * * * * * * * * * * * * * * * * * * * * * * * * * * //

dimensions      [1 0 -1 0 0 0 0];

internalField   nonuniform List<scalar> 
24170
(
2.41808e-06
9.45578e-07
1.98499e-06
5.11587e-07
1.9109e-06
1.25626e-07
1.99891e-06
-5.35355e-08
2.07784e-06
-6.43596e-08
2.1841e-06
-1.08527e-07
2.10568e-06
5.46918e-08
2.24073e-06
-1.77299e-07
2.01382e-06
1.6525e-07
2.17469e-06
-2.4024e-07
1.92095e-06
1.56802e-07
2.08262e-06
-2.72411e-07
1.79181e-06
1.67014e-07
2.28084e-06
-6.30146e-07
1.25669e-06
8.75406e-07
2.59989e-06
-1.52808e-06
3.98216e-06
-1.57448e-06
3.04464e-06
7.23756e-07
4.09295e-06
4.46345e-07
4.09748e-06
4.89827e-07
4.04863e-06
1.4584e-07
4.13202e-06
-1.79033e-07
4.26383e-06
-2.56699e-07
4.42451e-06
-3.5033e-07
4.51734e-06
-1.39533e-07
4.77444e-06
-5.57017e-07
4.7333e-06
6.77847e-08
5.12689e-06
-7.90845e-07
5.16219e-06
-4.7963e-08
5.28972e-06
-5.78215e-07
5.9131e-06
-6.42025e-07
6.0056e-06
-9.28743e-07
4.7696e-06
1.92916e-06
1.13093e-05
-8.30163e-06
6.84232e-06
2.63941e-06
-1.39259e-07
9.89754e-06
4.7823e-06
-2.92564e-07
5.39334e-06
-1.40603e-07
5.59678e-06
-8.72154e-08
5.84256e-06
-4.69471e-07
6.09274e-06
-5.72221e-07
6.18582e-06
-5.30654e-07
6.36348e-06
-4.27021e-07
6.53879e-06
-8.65377e-07
6.57458e-06
-1.17343e-07
7.14706e-06
-1.53792e-06
6.81319e-06
9.80122e-08
7.86526e-06
-1.826e-06
7.72438e-06
-7.14772e-07
8.25214e-06
-1.68392e-06
9.72921e-06
2.55492e-07
9.01743e-06
-7.80253e-06
7.75436e-06
3.70369e-06
-1.04425e-05
1.78591e-05
5.09965e-06
-1.11432e-06
6.16441e-06
-1.22217e-06
6.70049e-06
-6.51508e-07
7.0833e-06
-8.97759e-07
7.74388e-06
-1.30355e-06
7.77909e-06
-6.58233e-07
8.21606e-06
-9.8235e-07
8.30144e-06
-1.093e-06
8.65911e-06
-6.3217e-07
8.98678e-06
-2.04569e-06
8.51713e-06
3.67899e-07
9.88467e-06
-3.40247e-06
9.52171e-06
-5.88704e-07
1.19425e-05
-4.3232e-06
1.26941e-05
-7.55055e-07
8.76451e-06
-4.12442e-06
1.27959e-05
-5.21304e-07
-1.02609e-05
1.23773e-05
5.49483e-06
-1.73561e-06
6.39804e-06
-2.13569e-06
7.47028e-06
-1.74925e-06
7.63053e-06
-1.10253e-06
8.6658e-06
-2.41402e-06
8.80301e-06
-8.9268e-07
9.03201e-06
-1.34325e-06
9.36466e-06
-1.57586e-06
1.08e-05
-2.24984e-06
1.02047e-05
-1.63897e-06
9.46967e-06
8.97074e-07
1.03057e-05
-4.46365e-06
1.10598e-05
-1.59324e-06
1.20166e-05
-5.52217e-06
1.36578e-05
-2.67559e-06
1.22187e-05
-2.95121e-06
1.37527e-05
-2.24948e-06
-7.96419e-06
1.11832e-05
6.44611e-06
-2.75069e-06
6.84684e-06
-2.54125e-06
8.02569e-06
-2.94758e-06
8.08232e-06
-1.19827e-06
9.28898e-06
-3.69551e-06
9.31984e-06
-1.01879e-06
9.27145e-06
-1.43427e-06
1.04205e-05
-2.88619e-06
1.22042e-05
-4.24106e-06
1.15356e-05
-1.17633e-06
1.18457e-05
3.58337e-07
1.19987e-05
-4.85587e-06
1.14372e-05
-1.28363e-06
1.04957e-05
-4.84787e-06
1.22264e-05
-4.68209e-06
1.41224e-05
-5.14502e-06
1.21306e-05
-4.84886e-07
-8.8669e-06
1.28012e-05
7.14975e-06
-4.16579e-06
7.45909e-06
-2.84266e-06
8.78072e-06
-4.28248e-06
9.26986e-06
-1.72013e-06
9.88014e-06
-4.37204e-06
1.04911e-05
-1.72227e-06
1.17968e-05
-2.88873e-06
1.21019e-05
-3.3578e-06
1.09504e-05
-3.27301e-06
1.18758e-05
-2.32632e-06
1.51256e-05
-3.16414e-06
1.43073e-05
-4.29574e-06
1.34594e-05
-6.82719e-07
1.21621e-05
-3.83778e-06
1.13697e-05
-4.16239e-06
1.4469e-05
-8.53943e-06
1.31523e-05
5.53386e-07
-7.94125e-06
1.19599e-05
5.46294e-06
-5.0334e-06
5.79847e-06
-3.15658e-06
6.78995e-06
-5.27276e-06
7.17751e-06
-2.119e-06
6.78721e-06
-4.02437e-06
9.02131e-06
-4.02439e-06
9.94083e-06
-3.9138e-06
9.23554e-06
-2.77221e-06
8.62609e-06
-2.7943e-06
1.01841e-05
-4.04262e-06
1.09581e-05
-4.12795e-06
1.09946e-05
-4.52591e-06
1.19601e-05
-1.8425e-06
1.17947e-05
-3.89727e-06
1.04401e-05
-3.00455e-06
1.02032e-05
-8.50108e-06
1.13481e-05
-8.11354e-07
-7.30217e-06
1.05156e-05
6.43854e-06
-6.21471e-06
6.71028e-06
-3.38569e-06
7.44769e-06
-5.99297e-06
9.20025e-06
-3.86242e-06
8.18271e-06
-3.04506e-06
1.0539e-05
-6.44456e-06
1.07137e-05
-4.18493e-06
1.08138e-05
-3.00391e-06
1.1563e-05
-3.70497e-06
1.23362e-05
-4.98299e-06
1.17949e-05
-3.77039e-06
1.24311e-05
-5.3772e-06
1.28645e-05
-2.49743e-06
1.38267e-05
-5.10272e-06
1.36682e-05
-3.0784e-06
1.25258e-05
-7.56642e-06
1.53082e-05
-3.84128e-06
-5.36464e-06
1.31523e-05
7.35341e-06
-7.4998e-06
8.59613e-06
-4.5445e-06
8.46079e-06
-5.81176e-06
1.10477e-05
-6.40987e-06
1.14387e-05
-3.4674e-06
1.17933e-05
-6.86174e-06
1.17212e-05
-4.18437e-06
1.32739e-05
-4.69442e-06
1.40552e-05
-4.6562e-06
1.38643e-05
-4.97194e-06
1.37263e-05
-3.83046e-06
1.40043e-05
-5.88556e-06
1.51071e-05
-3.84755e-06
1.55125e-05
-5.75439e-06
1.61731e-05
-3.99362e-06
1.43072e-05
-5.9446e-06
1.52128e-05
-5.00024e-06
-4.85618e-06
1.44579e-05
8.70168e-06
-8.92662e-06
1.05762e-05
-6.28431e-06
1.08135e-05
-5.95924e-06
1.21165e-05
-7.63969e-06
1.31575e-05
-4.50453e-06
1.34452e-05
-7.19628e-06
1.40243e-05
-4.82256e-06
1.50029e-05
-5.79072e-06
1.53433e-05
-5.14964e-06
1.57875e-05
-5.60102e-06
1.62013e-05
-4.47388e-06
1.63488e-05
-6.27257e-06
1.70818e-05
-4.8257e-06
1.68312e-05
-5.76118e-06
1.72015e-05
-4.62689e-06
1.65989e-05
-5.61119e-06
1.64656e-05
-5.13444e-06
-4.94584e-06
1.62981e-05
9.79477e-06
-9.99456e-06
1.14676e-05
-7.7425e-06
1.27373e-05
-7.06509e-06
1.36083e-05
-8.37941e-06
1.49499e-05
-5.78066e-06
1.55613e-05
-7.79938e-06
1.63085e-05
-5.59788e-06
1.70813e-05
-6.66258e-06
1.76636e-05
-5.85641e-06
1.80522e-05
-6.16302e-06
1.8756e-05
-5.40079e-06
1.87959e-05
-6.55085e-06
1.92027e-05
-5.47028e-06
1.8935e-05
-5.75826e-06
1.94112e-05
-5.37608e-06
1.91773e-05
-5.64122e-06
1.91701e-05
-5.40513e-06
-4.99285e-06
1.89376e-05
1.14555e-05
-1.11519e-05
1.30899e-05
-9.03322e-06
1.45965e-05
-8.2846e-06
1.55983e-05
-9.14854e-06
1.71337e-05
-7.15239e-06
1.79211e-05
-8.49371e-06
1.89935e-05
-6.6279e-06
1.97835e-05
-7.49625e-06
2.05954e-05
-6.74137e-06
2.10886e-05
-6.78747e-06
2.1786e-05
-6.28831e-06
2.18507e-05
-6.83274e-06
2.23785e-05
-6.21348e-06
2.23158e-05
-5.93693e-06
2.25193e-05
-5.85278e-06
2.24056e-05
-5.79172e-06
2.2368e-05
-5.62711e-06
-5.16213e-06
2.22709e-05
1.34914e-05
-1.21901e-05
1.54194e-05
-1.04145e-05
1.71427e-05
-9.52122e-06
1.83353e-05
-9.93294e-06
2.00192e-05
-8.51114e-06
2.09543e-05
-9.19379e-06
2.23671e-05
-7.8782e-06
2.31652e-05
-8.22561e-06
2.41332e-05
-7.69034e-06
2.47333e-05
-7.43386e-06
2.54516e-05
-7.11825e-06
2.56248e-05
-7.15868e-06
2.59193e-05
-6.67651e-06
2.61121e-05
-6.32104e-06
2.62135e-05
-6.18612e-06
2.62e-05
-6.01854e-06
2.61401e-05
-5.80162e-06
-5.40254e-06
2.61393e-05
1.56281e-05
-1.36897e-05
1.7762e-05
-1.16922e-05
1.97885e-05
-1.07609e-05
2.13521e-05
-1.08092e-05
2.32617e-05
-9.8358e-06
2.44825e-05
-9.94159e-06
2.60412e-05
-9.06752e-06
2.70264e-05
-8.94547e-06
2.80331e-05
-8.51413e-06
2.88001e-05
-8.09559e-06
2.94567e-05
-7.74172e-06
2.97793e-05
-7.51253e-06
3.0119e-05
-7.0808e-06
3.04364e-05
-6.73853e-06
3.05772e-05
-6.4717e-06
3.05515e-05
-6.15572e-06
3.04281e-05
-5.85285e-06
-5.50855e-06
3.03501e-05
1.83889e-05
-1.47544e-05
2.06648e-05
-1.26136e-05
2.29965e-05
-1.18286e-05
2.49432e-05
-1.16212e-05
2.70505e-05
-1.09429e-05
2.86262e-05
-1.06615e-05
3.0256e-05
-9.98322e-06
3.1451e-05
-9.55456e-06
3.25125e-05
-9.10876e-06
3.34202e-05
-8.63561e-06
3.4149e-05
-8.19675e-06
3.46553e-05
-7.83639e-06
3.50792e-05
-7.37979e-06
3.54229e-05
-7.01715e-06
3.56334e-05
-6.67057e-06
3.57987e-05
-6.34364e-06
3.58452e-05
-5.95766e-06
-5.55341e-06
3.58138e-05
2.13974e-05
-1.53508e-05
2.42987e-05
-1.33422e-05
2.7099e-05
-1.26088e-05
2.94974e-05
-1.21786e-05
3.17906e-05
-1.1577e-05
3.37037e-05
-1.11088e-05
3.54857e-05
-1.04899e-05
3.70459e-05
-1.00102e-05
3.83767e-05
-9.50141e-06
3.94952e-05
-8.95629e-06
4.04716e-05
-8.51107e-06
4.11966e-05
-8.02187e-06
4.18201e-05
-7.55856e-06
4.22776e-05
-7.1258e-06
4.25754e-05
-6.69263e-06
4.27399e-05
-6.29706e-06
4.28884e-05
-5.95325e-06
-5.49352e-06
4.29414e-05
2.22884e-05
-1.52654e-05
2.50629e-05
-1.32455e-05
2.7731e-05
-1.25722e-05
3.01593e-05
-1.21113e-05
3.24608e-05
-1.15991e-05
3.45165e-05
-1.11129e-05
3.63879e-05
-1.05293e-05
3.80082e-05
-1.00043e-05
3.93965e-05
-9.46639e-06
4.05568e-05
-8.86723e-06
4.15363e-05
-8.41384e-06
4.23524e-05
-7.9107e-06
4.30325e-05
-7.44047e-06
4.35596e-05
-6.9758e-06
4.39449e-05
-6.49726e-06
4.42501e-05
-6.11102e-06
4.44111e-05
-5.6975e-06
-5.31302e-06
4.45796e-05
2.0031e-05
-1.50602e-05
2.27441e-05
-1.27841e-05
2.52507e-05
-1.20712e-05
2.75468e-05
-1.16086e-05
2.96344e-05
-1.11149e-05
3.1465e-05
-1.05991e-05
3.30869e-05
-1.00284e-05
3.45155e-05
-9.52729e-06
3.57569e-05
-9.01234e-06
3.68173e-05
-8.41765e-06
3.77325e-05
-8.00201e-06
3.85073e-05
-7.51423e-06
3.91454e-05
-7.05014e-06
3.96541e-05
-6.58501e-06
4.00934e-05
-6.1441e-06
4.04005e-05
-5.73359e-06
4.06024e-05
-5.30287e-06
-4.9646e-06
4.07709e-05
1.76769e-05
-1.3522e-05
2.00041e-05
-1.17945e-05
2.23557e-05
-1.12658e-05
2.45682e-05
-1.0866e-05
2.65609e-05
-1.03802e-05
2.82966e-05
-9.83234e-06
2.98197e-05
-9.27272e-06
3.11307e-05
-8.77564e-06
3.22553e-05
-8.28134e-06
3.32569e-05
-7.75508e-06
3.41357e-05
-7.3957e-06
3.4908e-05
-6.96548e-06
3.5549e-05
-6.51957e-06
3.61137e-05
-6.1145e-06
3.65481e-05
-5.66177e-06
3.68755e-05
-5.25205e-06
3.71518e-05
-4.86562e-06
-4.5032e-06
3.73174e-05
1.57639e-05
-1.23277e-05
1.80859e-05
-1.0788e-05
2.02155e-05
-1.02174e-05
2.21309e-05
-9.79651e-06
2.38729e-05
-9.35312e-06
2.54604e-05
-8.87442e-06
2.68889e-05
-8.37366e-06
2.81356e-05
-7.90211e-06
2.92024e-05
-7.42952e-06
3.01643e-05
-6.984e-06
3.09946e-05
-6.6689e-06
3.16989e-05
-6.27748e-06
3.23084e-05
-5.88515e-06
3.27823e-05
-5.48678e-06
3.32247e-05
-5.12113e-06
3.35808e-05
-4.73902e-06
3.38504e-05
-4.36388e-06
-4.03796e-06
3.4071e-05
1.43395e-05
-1.07392e-05
1.62105e-05
-9.40732e-06
1.80798e-05
-8.98386e-06
1.98103e-05
-8.60968e-06
2.13793e-05
-8.20653e-06
2.27972e-05
-7.78708e-06
2.41149e-05
-7.39235e-06
2.53064e-05
-6.99611e-06
2.63516e-05
-6.57185e-06
2.73476e-05
-6.25287e-06
2.81402e-05
-5.90759e-06
2.88067e-05
-5.54272e-06
2.93566e-05
-5.17884e-06
2.97972e-05
-4.8087e-06
3.01344e-05
-4.45327e-06
3.04377e-05
-4.15524e-06
3.06955e-05
-3.8268e-06
-3.53555e-06
3.08945e-05
1.27817e-05
-9.09948e-06
1.4543e-05
-8.06921e-06
1.62995e-05
-7.78287e-06
1.79526e-05
-7.48136e-06
1.94517e-05
-7.11455e-06
2.07883e-05
-6.72549e-06
2.19778e-05
-6.37637e-06
2.30019e-05
-6.00105e-06
2.39432e-05
-5.67403e-06
2.4757e-05
-5.39654e-06
2.54457e-05
-5.0874e-06
2.60396e-05
-4.7744e-06
2.65331e-05
-4.45015e-06
2.69484e-05
-4.12865e-06
2.73026e-05
-3.82591e-06
2.75555e-05
-3.53614e-06
2.77808e-05
-3.26977e-06
-3.02374e-06
2.79594e-05
1.1258e-05
-7.4567e-06
1.29107e-05
-6.82318e-06
1.45933e-05
-6.7005e-06
1.61267e-05
-6.41172e-06
1.74693e-05
-6.02907e-06
1.86588e-05
-5.6648e-06
1.97039e-05
-5.34711e-06
2.06475e-05
-5.04172e-06
2.15136e-05
-4.80367e-06
2.22282e-05
-4.53166e-06
2.28645e-05
-4.29318e-06
2.34128e-05
-4.03066e-06
2.38695e-05
-3.7442e-06
2.42631e-05
-3.47793e-06
2.45967e-05
-3.22449e-06
2.48801e-05
-2.9837e-06
2.51045e-05
-2.7476e-06
-2.53599e-06
2.52795e-05
9.96514e-06
-6.25855e-06
1.16485e-05
-5.83778e-06
1.32158e-05
-5.71859e-06
1.45898e-05
-5.38355e-06
1.5792e-05
-4.98956e-06
1.68588e-05
-4.65104e-06
1.78319e-05
-4.40044e-06
1.87284e-05
-4.17576e-06
1.95187e-05
-3.98258e-06
2.02121e-05
-3.75787e-06
2.07868e-05
-3.53765e-06
2.1269e-05
-3.30909e-06
2.16797e-05
-3.07065e-06
2.20335e-05
-2.85768e-06
2.23261e-05
-2.6419e-06
2.25651e-05
-2.44108e-06
2.27583e-05
-2.24152e-06
-2.05434e-06
2.2899e-05
9.04939e-06
-4.97675e-06
1.04555e-05
-4.81524e-06
1.18068e-05
-4.74665e-06
1.30451e-05
-4.43009e-06
1.4162e-05
-4.05966e-06
1.51588e-05
-3.74752e-06
1.60489e-05
-3.53642e-06
1.68557e-05
-3.37065e-06
1.75483e-05
-3.20029e-06
1.81418e-05
-3.00727e-06
1.86373e-05
-2.81209e-06
1.90506e-05
-2.61698e-06
1.93975e-05
-2.42015e-06
1.96861e-05
-2.24831e-06
1.99259e-05
-2.07536e-06
2.01187e-05
-1.91253e-06
2.02616e-05
-1.73955e-06
-1.5953e-06
2.03764e-05
8.17119e-06
-3.77362e-06
9.57709e-06
-4.02925e-06
1.08051e-05
-3.87428e-06
1.18716e-05
-3.51365e-06
1.28127e-05
-3.14813e-06
1.3647e-05
-2.86103e-06
1.43732e-05
-2.67248e-06
1.49968e-05
-2.53202e-06
1.55357e-05
-2.40053e-06
1.59869e-05
-2.23784e-06
1.63658e-05
-2.08298e-06
1.66699e-05
-1.9173e-06
1.69211e-05
-1.76527e-06
1.71123e-05
-1.62347e-06
1.72653e-05
-1.49493e-06
1.73674e-05
-1.35803e-06
1.74604e-05
-1.24536e-06
-1.13962e-06
1.75272e-05
7.3995e-06
-2.94018e-06
8.5723e-06
-3.23161e-06
9.48059e-06
-2.89251e-06
1.02464e-05
-2.4947e-06
1.09351e-05
-2.16826e-06
1.1529e-05
-1.90609e-06
1.20268e-05
-1.73845e-06
1.24335e-05
-1.62102e-06
1.27594e-05
-1.51916e-06
1.30187e-05
-1.39616e-06
1.32208e-05
-1.28546e-06
1.34033e-05
-1.19556e-06
1.35408e-05
-1.08703e-06
1.36436e-05
-9.9284e-07
1.37225e-05
-9.15876e-07
1.37697e-05
-8.16091e-07
1.37977e-05
-7.47322e-07
-6.83e-07
1.38093e-05
6.52585e-06
-2.11919e-06
7.11104e-06
-2.05534e-06
7.48874e-06
-1.58146e-06
7.82335e-06
-1.23282e-06
8.14219e-06
-9.92249e-07
8.47079e-06
-8.44574e-07
8.77764e-06
-7.6079e-07
9.04305e-06
-7.06657e-07
9.26895e-06
-6.6769e-07
9.47875e-06
-6.26424e-07
9.65774e-06
-5.76992e-07
9.80032e-06
-5.36109e-07
9.9233e-06
-4.86958e-07
1.00216e-05
-4.41018e-07
1.00928e-05
-4.03552e-07
1.01682e-05
-3.68487e-07
1.02342e-05
-3.46373e-07
-2.95233e-07
1.02628e-05
4.56071e-06
4.10095e-06
4.03815e-06
4.23454e-06
4.57709e-06
4.97103e-06
5.35206e-06
5.69243e-06
5.9803e-06
6.2227e-06
6.43323e-06
6.60903e-06
6.76397e-06
6.90026e-06
7.01493e-06
7.11046e-06
7.17871e-06
7.25454e-06
1.21083e-07
-3.15465e-08
6.13229e-07
-3.88215e-07
1.31403e-06
-5.92108e-07
2.05834e-06
-6.32652e-07
2.72923e-06
-5.58902e-07
3.35903e-06
-5.19705e-07
3.92899e-06
-4.63989e-07
4.38055e-06
-3.51472e-07
4.71291e-06
-2.38584e-07
4.97835e-06
-1.78585e-07
5.19267e-06
-1.35966e-07
5.29545e-06
-3.31307e-08
5.29387e-06
6.19022e-08
5.24774e-06
9.41006e-08
5.12784e-06
1.5512e-07
4.92285e-06
2.29155e-07
4.63003e-06
3.03291e-07
4.1897e-06
4.34688e-07
3.60513e-06
5.60345e-07
2.9175e-06
6.4336e-07
2.08142e-06
7.77291e-07
1.39947e-06
6.12872e-07
1.27006e-06
3.96059e-08
1.55974e-06
-4.22574e-07
1.77957e-06
-3.82212e-07
1.8432e-06
-2.4514e-07
1.74111e-06
-1.05355e-07
1.35042e-06
1.48128e-07
5.83535e-07
4.88861e-07
-3.92744e-07
6.69278e-07
-1.46221e-06
7.29716e-07
-2.57724e-06
7.38028e-07
-3.72543e-06
7.31433e-07
-4.87842e-06
6.94704e-07
-6.02021e-06
6.41226e-07
-7.13173e-06
5.68684e-07
-8.19931e-06
4.82891e-07
-9.21236e-06
3.87207e-07
-1.01574e-05
2.79061e-07
-1.10365e-05
1.74005e-07
-1.18554e-05
7.62591e-08
-1.26158e-05
-1.74472e-08
-1.33171e-05
-1.08952e-07
-1.39568e-05
-1.99117e-07
-1.45603e-05
-2.59221e-07
-1.5131e-05
-3.11178e-07
-1.56803e-05
-3.45923e-07
-1.62333e-05
-3.49935e-07
-1.67883e-05
-3.49852e-07
-1.73315e-05
-3.57941e-07
-1.78528e-05
-3.69711e-07
-1.83528e-05
-3.74911e-07
-1.88213e-05
-3.8432e-07
-1.92481e-05
-3.98025e-07
-1.96235e-05
-4.1569e-07
-1.99423e-05
-4.32666e-07
-2.01817e-05
-4.67108e-07
-2.0321e-05
-5.17559e-07
-2.03768e-05
-5.47347e-07
-2.03397e-05
-5.82726e-07
-2.01931e-05
-6.30748e-07
-1.9971e-05
-6.41748e-07
-1.97143e-05
-6.11089e-07
-1.94046e-05
-5.98403e-07
-1.90905e-05
-5.36343e-07
-1.87958e-05
-4.50539e-07
-1.84915e-05
-3.94078e-07
-1.81879e-05
-3.26494e-07
-1.78638e-05
-2.79992e-07
-1.75228e-05
-2.298e-07
-1.71705e-05
-1.74244e-07
-1.68206e-05
-1.06452e-07
-1.65088e-05
-5.44514e-09
-1.62247e-05
8.19094e-08
-1.59333e-05
1.29366e-07
-1.55858e-05
1.24466e-07
-1.51688e-05
1.05708e-07
-1.47118e-05
1.14884e-07
-1.42563e-05
1.61556e-07
-1.38023e-05
2.01883e-07
-1.33347e-05
2.24464e-07
-1.28207e-05
2.15295e-07
-1.23081e-05
2.52902e-07
-1.18026e-05
2.92366e-07
-1.13792e-05
4.0448e-07
-1.10315e-05
5.10499e-07
-1.07999e-05
6.51083e-07
-1.07323e-05
8.25461e-07
-1.08047e-05
9.72783e-07
-1.09487e-05
1.06439e-06
-1.09294e-05
9.42866e-07
-1.04253e-05
5.28434e-07
-9.49677e-06
1.80149e-07
-8.69379e-06
3.38274e-07
-8.30637e-06
7.53643e-07
-8.04452e-06
8.98002e-07
-7.52328e-06
6.96418e-07
-6.81393e-06
5.90954e-07
-6.12242e-06
7.46544e-07
-5.34894e-06
7.94142e-07
-4.36888e-06
6.70199e-07
-3.44916e-06
8.19016e-07
-3.22168e-06
1.5375e-06
-3.88162e-06
2.44055e-06
-5.211e-06
3.16749e-06
-6.92292e-06
3.62881e-06
-8.93016e-06
4.0622e-06
-1.0901e-05
4.16678e-06
-1.26094e-05
3.88038e-06
-1.38262e-05
3.36484e-06
-1.43885e-05
2.83184e-06
-1.42791e-05
2.26779e-06
-1.37004e-05
1.83174e-06
-1.28099e-05
1.56213e-06
-1.14817e-05
1.18676e-06
-9.23553e-06
3.15031e-07
-6.02629e-06
-6.18601e-07
-1.8744e-06
-1.52281e-06
2.62074e-06
-1.86181e-06
5.19051e-06
1.53892e-07
6.63038e-06
1.2874e-06
6.77042e-06
2.63201e-06
6.30724e-06
3.32265e-06
5.96094e-06
3.17268e-06
6.23195e-06
2.41446e-06
6.41486e-06
2.37472e-06
6.06657e-06
2.78647e-06
5.5682e-06
2.77825e-06
5.30544e-06
2.35662e-06
4.80771e-06
2.38077e-06
4.17597e-06
2.29706e-06
3.57005e-06
2.05009e-06
2.97362e-06
1.82798e-06
2.35836e-06
1.63211e-06
1.63469e-06
1.53396e-06
1.14149e-06
1.15278e-06
6.48928e-07
1.04312e-06
6.558e-08
1.07837e-06
-5.0628e-07
1.06033e-06
-9.00894e-07
9.14927e-07
-1.13051e-06
8.32632e-07
-1.56506e-06
1.14763e-06
-2.03814e-06
1.31284e-06
-2.50109e-06
1.44522e-06
-2.80687e-06
1.43212e-06
-2.97265e-06
1.43078e-06
-3.06228e-06
1.48158e-06
-3.07926e-06
1.52325e-06
-2.96746e-06
1.496e-06
-2.67156e-06
1.40451e-06
-2.34852e-06
1.45418e-06
-1.94981e-06
1.43868e-06
-1.53642e-06
1.47295e-06
-1.37886e-06
1.77477e-06
-1.10825e-06
1.68474e-06
-9.89358e-07
1.87392e-06
-1.37082e-06
2.46602e-06
-2.03298e-06
2.84279e-06
-1.93734e-06
2.15161e-06
-9.86875e-07
1.31572e-06
9.76414e-08
1.18062e-06
1.06807e-06
1.25068e-06
1.81649e-06
1.45775e-06
2.26615e-06
1.80664e-06
2.76151e-06
1.81353e-06
2.76686e-06
2.37409e-06
1.7222e-06
3.52322e-06
9.67738e-07
3.29489e-06
3.91174e-07
3.16687e-06
-2.14529e-07
3.26781e-06
-1.6646e-06
4.23222e-06
-2.90149e-06
4.10143e-06
-2.20448e-06
2.23503e-06
5.02944e-07
3.67818e-07
4.45052e-06
-6.98078e-07
5.76883e-06
2.31826e-06
6.45984e-06
3.19463e-06
7.98499e-06
2.59961e-06
9.15566e-06
3.22625e-06
3.70176e-06
1.00861e-05
1.50155e-07
-1.0127e-07
6.9343e-07
-8.29851e-07
1.41021e-06
-1.20171e-06
2.15598e-06
-1.26757e-06
2.8631e-06
-1.15402e-06
3.50813e-06
-1.05466e-06
4.08781e-06
-9.36564e-07
4.58687e-06
-7.48815e-07
5.02102e-06
-5.77727e-07
5.39249e-06
-4.6181e-07
5.69935e-06
-3.61979e-07
5.89355e-06
-1.56115e-07
5.91898e-06
9.34715e-08
5.85281e-06
1.9449e-07
5.75868e-06
2.64201e-07
5.53558e-06
4.65932e-07
5.12741e-06
7.21154e-07
4.68055e-06
8.72006e-07
4.40571e-06
8.1593e-07
4.30326e-06
7.03978e-07
4.24481e-06
7.62058e-07
4.08634e-06
7.24794e-07
3.63198e-06
4.53674e-07
2.64769e-06
4.14928e-07
1.1759e-06
8.57486e-07
-6.45171e-07
1.3652e-06
-2.54507e-06
1.5939e-06
-4.34912e-06
1.72538e-06
-5.90397e-06
1.7871e-06
-7.29619e-06
1.7691e-06
-8.59308e-06
1.69789e-06
-9.82852e-06
1.60794e-06
-1.09983e-05
1.49736e-06
-1.20986e-05
1.35414e-06
-1.31376e-05
1.20046e-06
-1.4105e-05
1.01531e-06
-1.49981e-05
8.12492e-07
-1.58166e-05
5.96736e-07
-1.65652e-05
3.73829e-07
-1.7252e-05
1.6236e-07
-1.78661e-05
-4.94554e-08
-1.84376e-05
-2.2133e-07
-1.8974e-05
-3.78801e-07
-1.9486e-05
-5.19681e-07
-1.99749e-05
-6.24047e-07
-2.04567e-05
-6.98853e-07
-2.09294e-05
-7.53455e-07
-2.13617e-05
-8.05036e-07
-2.17664e-05
-8.35485e-07
-2.21581e-05
-8.53396e-07
-2.25321e-05
-8.7279e-07
-2.28688e-05
-8.99944e-07
-2.31558e-05
-9.39301e-07
-2.33928e-05
-9.77304e-07
-2.35581e-05
-1.03423e-06
-2.36383e-05
-1.0974e-06
-2.36334e-05
-1.17255e-06
-2.35677e-05
-1.23504e-06
-2.33878e-05
-1.32636e-06
-2.31126e-05
-1.3996e-06
-2.27108e-05
-1.51342e-06
-2.22722e-05
-1.49955e-06
-2.17917e-05
-1.44935e-06
-2.12672e-05
-1.42006e-06
-2.07679e-05
-1.27207e-06
-2.03391e-05
-1.05287e-06
-1.99368e-05
-9.08579e-07
-1.95331e-05
-7.80133e-07
-1.90972e-05
-7.03509e-07
-1.86133e-05
-6.37777e-07
-1.81116e-05
-5.35643e-07
-1.75928e-05
-4.23763e-07
-1.71274e-05
-2.05743e-07
-1.67305e-05
2.32251e-08
-1.63999e-05
2.11232e-07
-1.60031e-05
2.01654e-07
-1.54487e-05
7.13943e-08
-1.47979e-05
1.96816e-08
-1.41942e-05
1.53016e-07
-1.36245e-05
2.66041e-07
-1.3049e-05
3.15892e-07
-1.24286e-05
3.02536e-07
-1.17834e-05
3.50699e-07
-1.12425e-05
5.13835e-07
-1.09334e-05
8.8095e-07
-1.07763e-05
1.18695e-06
-1.06811e-05
1.44459e-06
-1.06532e-05
1.71234e-06
-1.07194e-05
1.95952e-06
-1.08092e-05
2.10931e-06
-1.06893e-05
1.82928e-06
-1.01086e-05
9.80466e-07
-9.02909e-06
1.82036e-07
-7.8026e-06
2.57262e-07
-7.20306e-06
1.30994e-06
-6.78705e-06
1.65879e-06
-5.83266e-06
1.00987e-06
-4.63684e-06
7.15316e-07
-3.44664e-06
9.75826e-07
-2.89929e-06
1.88216e-06
-3.91532e-06
3.43215e-06
-6.15527e-06
4.82208e-06
-8.45709e-06
5.6243e-06
-1.05887e-05
6.42601e-06
-1.25169e-05
7.07101e-06
-1.43335e-05
7.48651e-06
-1.5801e-05
7.51409e-06
-1.68237e-05
7.17038e-06
-1.73996e-05
6.53453e-06
-1.74608e-05
5.62827e-06
-1.69826e-05
4.64087e-06
-1.618e-05
3.78646e-06
-1.51379e-05
3.15218e-06
-1.38167e-05
2.63206e-06
-1.20395e-05
1.81869e-06
-9.51968e-06
2.52259e-07
-6.36515e-06
-1.24222e-06
-2.83972e-06
-2.45759e-06
1.00691e-06
-3.14119e-06
3.73568e-06
2.00778e-07
5.36307e-06
2.45733e-06
6.30759e-06
4.40886e-06
6.97083e-06
5.44752e-06
7.32187e-06
5.5617e-06
7.97395e-06
4.34576e-06
8.63685e-06
4.1095e-06
9.03405e-06
4.65229e-06
9.06042e-06
4.93079e-06
8.90711e-06
4.61134e-06
8.77945e-06
4.45384e-06
8.47479e-06
4.32884e-06
7.94974e-06
4.07882e-06
7.26456e-06
3.79085e-06
6.49202e-06
3.45581e-06
5.715e-06
3.1442e-06
4.8972e-06
2.65329e-06
4.4247e-06
2.06825e-06
3.92267e-06
2.05936e-06
3.44653e-06
2.00085e-06
3.24639e-06
1.59983e-06
3.27264e-06
1.38473e-06
3.35263e-06
1.7538e-06
3.18419e-06
2.29957e-06
2.73911e-06
2.86354e-06
2.29344e-06
3.00655e-06
1.82038e-06
3.18385e-06
1.40542e-06
3.30722e-06
1.05692e-06
3.40744e-06
8.41132e-07
3.35682e-06
8.28401e-07
3.16093e-06
9.17012e-07
3.20463e-06
1.24489e-06
3.02189e-06
1.59012e-06
3.11351e-06
1.7236e-06
3.7142e-06
1.7944e-06
3.6942e-06
1.67446e-06
4.11483e-06
1.1566e-06
5.30126e-06
7.66578e-07
5.8392e-06
1.55252e-06
4.06195e-06
3.21847e-06
2.2054e-06
4.13005e-06
2.5807e-06
3.91442e-06
3.51416e-06
3.20864e-06
4.23062e-06
2.28807e-06
4.89021e-06
1.26477e-06
5.07629e-06
-5.06118e-07
6.50479e-06
-1.75862e-06
7.12231e-06
-2.22108e-06
6.11581e-06
-2.62396e-06
6.03809e-06
-4.18715e-06
7.43421e-06
-6.41044e-06
9.19934e-06
-5.68591e-06
6.02775e-06
-2.8032e-06
1.89423e-06
4.02534e-07
-6.7571e-08
5.4338e-06
-2.85993e-06
7.90525e-06
3.44298e-06
8.90873e-06
6.00658e-06
1.10459e-05
4.35387e-06
1.3037e-05
5.49908e-06
6.47812e-06
1.48634e-05
2.32397e-07
-2.71579e-07
8.36182e-07
-1.34885e-06
1.50437e-06
-1.78608e-06
2.14019e-06
-1.82181e-06
2.73681e-06
-1.66895e-06
3.28201e-06
-1.5171e-06
3.78322e-06
-1.35379e-06
4.27861e-06
-1.16209e-06
4.77062e-06
-9.87614e-07
5.21508e-06
-8.29224e-07
5.52309e-06
-6.01876e-07
5.66942e-06
-2.45132e-07
5.67046e-06
1.24107e-07
5.54817e-06
3.19737e-07
5.38767e-06
4.21481e-07
5.15379e-06
6.97831e-07
4.7564e-06
1.11071e-06
4.27326e-06
1.35916e-06
3.62737e-06
1.46523e-06
2.65008e-06
1.62279e-06
1.44267e-06
1.84641e-06
-1.54214e-07
2.18022e-06
-2.20585e-06
2.37891e-06
-4.45691e-06
2.53449e-06
-6.35444e-06
2.58863e-06
-7.72863e-06
2.55867e-06
-8.86206e-06
2.52949e-06
-9.89544e-06
2.53152e-06
-1.08449e-05
2.47965e-06
-1.17385e-05
2.37633e-06
-1.26016e-05
2.24004e-06
-1.34173e-05
2.07018e-06
-1.4185e-05
1.87297e-06
-1.49039e-05
1.63893e-06
-1.55658e-05
1.39088e-06
-1.6196e-05
1.12823e-06
-1.67956e-05
8.50233e-07
-1.73698e-05
5.63257e-07
-1.79283e-05
2.77407e-07
-1.84501e-05
-5.37316e-09
-1.89517e-05
-2.66187e-07
-1.94319e-05
-4.86838e-07
-1.98868e-05
-6.92431e-07
-2.03332e-05
-8.63552e-07
-2.07313e-05
-1.03482e-06
-2.10783e-05
-1.17466e-06
-2.14029e-05
-1.26503e-06
-2.17572e-05
-1.29808e-06
-2.21031e-05
-1.34584e-06
-2.24331e-05
-1.37894e-06
-2.27095e-05
-1.44074e-06
-2.29603e-05
-1.47918e-06
-2.31975e-05
-1.51403e-06
-2.33939e-05
-1.56818e-06
-2.35563e-05
-1.62369e-06
-2.36458e-05
-1.71458e-06
-2.3641e-05
-1.83392e-06
-2.35661e-05
-1.91594e-06
-2.34051e-05
-2.03981e-06
-2.31423e-05
-2.15615e-06
-2.27553e-05
-2.33597e-06
-2.22906e-05
-2.34323e-06
-2.17582e-05
-2.30059e-06
-2.11466e-05
-2.29262e-06
-2.05655e-05
-2.05466e-06
-2.00481e-05
-1.69949e-06
-1.95996e-05
-1.42094e-06
-1.92661e-05
-1.11599e-06
-1.89446e-05
-9.70615e-07
-1.85772e-05
-9.01834e-07
-1.81374e-05
-8.25687e-07
-1.76664e-05
-7.08518e-07
-1.7194e-05
-4.48572e-07
-1.67309e-05
-1.2634e-07
-1.63506e-05
2.86772e-07
-1.59541e-05
3.80551e-07
-1.53794e-05
8.44158e-08
-1.46688e-05
-1.42596e-07
-1.40463e-05
9.54947e-08
-1.3468e-05
3.04993e-07
-1.28186e-05
3.43542e-07
-1.19818e-05
2.29656e-07
-1.10845e-05
2.66537e-07
-1.03221e-05
5.20174e-07
-9.74273e-06
1.00245e-06
-9.43515e-06
1.59842e-06
-9.33542e-06
2.16622e-06
-9.29266e-06
2.60557e-06
-9.24917e-06
2.91686e-06
-9.22358e-06
3.14167e-06
-9.12292e-06
2.85808e-06
-8.98345e-06
1.97438e-06
-8.52443e-06
7.73591e-07
-7.7296e-06
4.78146e-07
-6.88641e-06
1.4802e-06
-5.82768e-06
1.67697e-06
-4.53925e-06
9.67723e-07
-3.80385e-06
1.3981e-06
-4.65859e-06
3.29157e-06
-6.66879e-06
5.40469e-06
-8.86057e-06
7.26616e-06
-1.08653e-05
8.60968e-06
-1.27917e-05
9.41356e-06
-1.44621e-05
1.00638e-05
-1.56706e-05
1.03105e-05
-1.65787e-05
1.03237e-05
-1.73022e-05
1.00443e-05
-1.75859e-05
9.33301e-06
-1.74444e-05
8.48991e-06
-1.70066e-05
7.45734e-06
-1.62616e-05
6.28074e-06
-1.53592e-05
5.36569e-06
-1.4228e-05
4.59554e-06
-1.28947e-05
3.86951e-06
-1.13377e-05
2.81966e-06
-9.33293e-06
8.56634e-07
-6.97618e-06
-9.02814e-07
-4.38391e-06
-2.38012e-06
-1.78445e-06
-3.11816e-06
5.95421e-07
6.12677e-07
1.97391e-06
4.07672e-06
3.33833e-06
5.81682e-06
4.37283e-06
7.06314e-06
5.61838e-06
7.02963e-06
7.29575e-06
5.45655e-06
8.59172e-06
5.33325e-06
9.28228e-06
6.17973e-06
9.54757e-06
6.8313e-06
9.41932e-06
6.91682e-06
9.27627e-06
6.57314e-06
9.18184e-06
6.1144e-06
8.97474e-06
5.76491e-06
8.66237e-06
5.38782e-06
7.91614e-06
5.27845e-06
7.07146e-06
4.85048e-06
6.34724e-06
4.04037e-06
5.67164e-06
3.29384e-06
5.10827e-06
3.09152e-06
4.56175e-06
3.00588e-06
4.35724e-06
2.27511e-06
4.49311e-06
1.815e-06
4.93734e-06
1.99809e-06
5.45617e-06
2.61307e-06
5.7096e-06
3.59611e-06
5.71774e-06
4.15434e-06
5.45303e-06
4.7773e-06
5.05658e-06
5.17499e-06
4.64714e-06
5.42907e-06
4.55723e-06
5.15614e-06
4.58085e-06
4.93021e-06
4.30545e-06
5.33728e-06
4.14575e-06
5.0946e-06
3.95991e-06
5.3341e-06
3.59126e-06
6.22438e-06
3.45516e-06
5.94187e-06
3.34983e-06
6.42082e-06
3.06168e-06
8.05646e-06
3.2628e-06
8.45186e-06
3.80595e-06
6.16638e-06
4.17515e-06
4.0145e-06
4.09983e-06
4.52643e-06
3.38319e-06
6.09229e-06
2.13311e-06
7.5512e-06
8.33287e-07
8.3584e-06
-9.33625e-07
9.17048e-06
-2.65787e-06
1.0615e-05
-3.39585e-06
1.01366e-05
-3.3845e-06
8.53517e-06
-3.98117e-06
9.26428e-06
-5.32014e-06
1.15676e-05
-6.4829e-06
1.31545e-05
-5.04616e-06
7.30597e-06
-1.63154e-06
9.76893e-07
8.13019e-07
3.42069e-07
4.33784e-06
-3.52913e-06
8.14565e-06
2.94174e-06
9.71912e-06
8.01154e-06
1.18568e-05
5.79821e-06
1.45282e-05
6.62363e-06
8.41345e-06
1.6759e-05
3.04683e-07
-5.3818e-07
8.90583e-07
-1.87128e-06
1.38116e-06
-2.21556e-06
1.75948e-06
-2.14114e-06
2.12897e-06
-1.97683e-06
2.49062e-06
-1.81166e-06
2.83949e-06
-1.63493e-06
3.17138e-06
-1.43277e-06
3.52928e-06
-1.28334e-06
3.8679e-06
-1.10996e-06
4.03002e-06
-7.21752e-07
3.99957e-06
-1.84292e-07
3.83001e-06
3.13436e-07
3.49324e-06
6.70859e-07
2.92755e-06
9.95302e-07
2.21443e-06
1.40478e-06
1.40648e-06
1.89538e-06
4.13861e-07
2.30064e-06
-9.59104e-07
2.75439e-06
-2.52754e-06
3.09611e-06
-4.12281e-06
3.35267e-06
-5.54128e-06
3.51192e-06
-6.79874e-06
3.54271e-06
-7.86109e-06
3.49299e-06
-8.82726e-06
3.42377e-06
-9.76519e-06
3.3354e-06
-1.06298e-05
3.21082e-06
-1.13955e-05
3.08539e-06
-1.21058e-05
2.93899e-06
-1.2765e-05
2.75076e-06
-1.33848e-05
2.54596e-06
-1.39778e-05
2.3111e-06
-1.45366e-05
2.04824e-06
-1.50873e-05
1.76586e-06
-1.56308e-05
1.46797e-06
-1.61522e-05
1.15085e-06
-1.6631e-05
7.90425e-07
-1.70752e-05
4.36102e-07
-1.7506e-05
1.04058e-07
-1.79393e-05
-2.15191e-07
-1.83507e-05
-5.25034e-07
-1.87303e-05
-8.00658e-07
-1.91007e-05
-1.03827e-06
-1.94481e-05
-1.25256e-06
-1.979e-05
-1.44963e-06
-2.01378e-05
-1.60254e-06
-2.04788e-05
-1.71485e-06
-2.07817e-05
-1.79625e-06
-2.10933e-05
-1.84042e-06
-2.14144e-05
-1.86216e-06
-2.17372e-05
-1.91078e-06
-2.20341e-05
-1.95202e-06
-2.23009e-05
-1.98665e-06
-2.25252e-05
-2.04987e-06
-2.27099e-05
-2.09998e-06
-2.2842e-05
-2.19233e-06
-2.294e-05
-2.2949e-06
-2.29201e-05
-2.44607e-06
-2.28268e-05
-2.59572e-06
-2.26403e-05
-2.75723e-06
-2.23504e-05
-2.99998e-06
-2.19553e-05
-3.06868e-06
-2.14729e-05
-3.05394e-06
-2.09318e-05
-3.06074e-06
-2.0351e-05
-2.81759e-06
-1.96746e-05
-2.48868e-06
-1.89777e-05
-2.15522e-06
-1.84129e-05
-1.6172e-06
-1.79893e-05
-1.22782e-06
-1.76745e-05
-9.89799e-07
-1.72646e-05
-9.80452e-07
-1.67986e-05
-9.0168e-07
-1.63628e-05
-5.89457e-07
-1.59707e-05
-1.92938e-07
-1.55871e-05
3.46467e-07
-1.52067e-05
6.41758e-07
-1.47564e-05
3.15563e-07
-1.42847e-05
-4.48095e-08
-1.37402e-05
1.3091e-07
-1.31522e-05
3.84861e-07
-1.25365e-05
4.43021e-07
-1.1755e-05
2.16111e-07
-1.08643e-05
1.86355e-07
-1.00148e-05
4.97565e-07
-9.1715e-06
9.43681e-07
-8.41936e-06
1.58159e-06
-7.82523e-06
2.33296e-06
-7.39639e-06
3.01816e-06
-6.92168e-06
3.33727e-06
-6.42837e-06
3.61161e-06
-6.26173e-06
3.76745e-06
-6.19785e-06
3.09708e-06
-6.30745e-06
2.10989e-06
-6.33768e-06
1.68432e-06
-5.60536e-06
1.79693e-06
-4.88547e-06
2.0836e-06
-5.13621e-06
2.55172e-06
-6.46365e-06
4.1569e-06
-8.31727e-06
6.60002e-06
-1.02432e-05
8.85845e-06
-1.19549e-05
1.06364e-05
-1.34863e-05
1.19276e-05
-1.4785e-05
1.26411e-05
-1.55394e-05
1.29263e-05
-1.60197e-05
1.29359e-05
-1.63398e-05
1.25887e-05
-1.6417e-05