/*--------------------------------*- C++ -*----------------------------------*\
| =========                 |                                                 |
| \\      /  F ield         | OpenFOAM: The Open Source CFD Toolbox           |
|  \\    /   O peration     | Version:  dev                                   |
|   \\  /    A nd           | Web:      http://www.openfoam.org               |
|    \\/     M anipulation  |                                                 |
\*---------------------------------------------------------------------------*/
FoamFile
{
    version     2.0;
    format      ascii;
    class       volScalarField;
    object      pMean;
    location    "9.135";
}
// * * * * * * * * * * * * * * * * * * * * * * * * * * * * * * * * * * * * * //

dimensions      [1 -1 -2 0 0 0 0];

internalField   nonuniform List<scalar> 
12225
(
98313
98293.2
98279.5
98272.5
98258.2
98248.8
98230.3
98220.7
98199.2
98190.5
98165.8
98158.9
98128
98121.7
98080.9
98041.2
97952
97586.1
98308.5
98292.1
98278.9
98271.9
98257.6
98248.2
98229.6
98220.2
98198.5
98190.1
98165.1
98158.4
98127.6
98119.7
98079.1
98045.2
97952.9
97791.8
98304.7
98290.6
98277.9
98270.6
98256.2
98246.7
98228.1
98218.8
98197.1
98188.6
98164.2
98156.4
98128.2
98116.3
98081.4
98046.2
97978.8
97890
98299.7
98287.6
98275.8
98268.1
98253.8
98244
98226
98216.2
98195.4
98185.9
98162.9
98153.3
98127.1
98114.1
98082.4
98054.6
98006.1
97937.2
98293
98283.2
98272.2
98264.1
98250.2
98239.9
98223
98212
98192.9
98181.6
98161.4
98148.7
98127.2
98110.9
98084.3
98060.1
98020.2
97987.5
98284.8
98277.1
98266.3
98258
98244.6
98234
98217.9
98206.3
98188.5
98176.3
98158.2
98144.6
98126.2
98109.2
98087.8
98062.5
98040.4
98020
98274.5
98268.1
98257.8
98249.3
98236.7
98225.6
98210.8
98198.2
98182.5
98168.9
98153.5
98138.5
98123.9
98106.4
98092.1
98071.1
98060.7
98045.8
98263.8
98258.1
98248.4
98239.7
98228
98216.5
98202.9
98189.7
98175.7
98161.4
98148.3
98132.6
98121.1
98103.8
98095
98077.2
98075.5
98060.5
98252.9
98247.5
98238.7
98229.7
98218.9
98207.1
98194.6
98181.1
98168.5
98153.9
98142.4
98126.9
98117.2
98101.2
98094.9
98080.8
98080.5
98068.5
98239.3
98233.8
98226.1
98217.1
98207.2
98195.4
98183.9
98170.4
98159.1
98144.5
98134.6
98119.7
98111.5
98097.1
98092.1
98080.3
98079.5
98071.3
98222.4
98216.9
98210.3
98201.5
98192.4
98180.9
98170.2
98157.2
98146.7
98133.1
98123.7
98110.6
98102.6
98091.1
98085.4
98076.9
98074.2
98069
98201.8
98196.1
98190.8
98182.4
98174
98163
98153.1
98140.8
98131.2
98118.6
98110
98098.5
98090.9
98081.7
98075.9
98069.6
98065.9
98062.3
98177
98171.7
98167.2
98159.6
98151.7
98141.7
98132.3
98121.4
98112.2
98101.5
98093.1
98083.8
98076.5
98069.3
98063.9
98059
98055.4
98052.7
98148.8
98143.9
98140
98133.4
98126.2
98117.3
98108.6
98099.1
98090.6
98081.6
98073.9
98066.3
98059.9
98054.2
98049.5
98045.7
98042.7
98040.7
98118.6
98114.9
98111.1
98105.7
98099.2
98091.6
98083.8
98075.7
98068.1
98060.6
98053.9
98047.8
98042.5
98037.9
98034.2
98031.3
98029.1
98027.6
98090.9
98088.1
98084.8
98080.2
98074.6
98068.1
98061.3
98054.4
98047.9
98041.7
98036.1
98031.1
98026.8
98023.3
98020.4
98018.2
98016.7
98015.8
98072.3
98070.3
98067.6
98063.7
98058.7
98053
98047.1
98041.2
98035.5
98030.2
98025.5
98021.3
98017.7
98014.8
98012.5
98010.8
98009.7
98009.1
98072.5
98070.9
98068.3
98064.6
98059.9
98054.5
98048.9
98043.4
98038
98033.1
98028.6
98024.7
98021.3
98018.5
98016.3
98014.6
98013.4
98012.6
98092.3
98090.4
98087.6
98083.6
98078.7
98073.1
98067.3
98061.5
98056
98050.7
98046
98041.7
98037.9
98034.7
98032.1
98029.9
98028.2
98027
98123.1
98120.9
98117.5
98113
98107.6
98101.5
98095.2
98088.8
98082.7
98076.9
98071.4
98066.5
98062.1
98058.3
98054.9
98052.1
98049.7
98047.7
98157.9
98155.3
98151.2
98146.1
98140
98133.3
98126.4
98119.4
98112.5
98106
98099.9
98094.2
98089.1
98084.4
98080.3
98076.7
98073.6
98070.9
98191.8
98188.7
98183.9
98178.1
98171.4
98164.1
98156.6
98149
98141.5
98134.3
98127.5
98121.1
98115.3
98109.9
98105.1
98100.7
98096.9
98093.5
98222
98218.4
98212.9
98206.3
98199.1
98191.4
98183.3
98175.2
98167.2
98159.4
98152
98145
98138.5
98132.6
98127.1
98122.1
98117.7
98113.6
98247.4
98243
98236.7
98229.6
98221.9
98213.8
98205.4
98196.9
98188.4
98180.2
98172.3
98164.9
98157.9
98151.4
98145.4
98139.9
98135
98130.4
98267.6
98262.4
98255.3
98247.6
98239.6
98231.3
98222.6
98213.8
98205
98196.5
98188.2
98180.4
98173
98166.1
98159.8
98153.9
98148.5
98143.6
98283.3
98277
98268.9
98260.7
98252.6
98244.1
98235.3
98226.3
98217.3
98208.5
98200
98191.9
98184.2
98177.1
98170.4
98164.3
98158.6
98153.4
98295.1
98287.3
98278.2
98269.7
98261.4
98252.9
98244
98235
98225.8
98216.9
98208.2
98199.9
98192.1
98184.7
98177.9
98171.5
98165.6
98160.3
98303.8
98294
98283.9
98275.3
98267
98258.5
98249.6
98240.5
98231.3
98222.3
98213.5
98205.1
98197.1
98189.7
98182.7
98176.2
98170.2
98164.7
98309.9
98297.8
98286.7
98278
98270
98261.6
98252.8
98243.7
98234.5
98225.4
98216.5
98208.1
98200
98192.5
98185.4
98178.9
98172.8
98167.2
98315.8
98300.3
98288.2
98279.4
98271.2
98262.9
98254.1
98245
98235.8
98226.7
98217.8
98209.3
98201.2
98193.6
98186.6
98180
98173.9
98168.3
98312.8
98312.5
98311.7
98310.5
98309
98307.2
98305
98302.3
98299.3
98295.9
98292
98287.7
98283.1
98278.2
98273
98267.5
98261.8
98255.9
98249.8
98243.5
98237.1
98230.5
98223.8
98217
98210.1
98203.1
98196.1
98189
98182
98174.9
98167.8
98160.7
98153.7
98146.7
98139.9
98133.1
98126.5
98120
98113.6
98107.5
98101.6
98095.9
98090.5
98085.4
98080.5
98076.1
98072
98068.3
98065
98062.1
98059.7
98057.8
98056.4
98055.6
98055.3
98055.7
98056.6
98058.2
98060.5
98063.5
98067.2
98071.5
98076.6
98082.5
98089
98096.3
98104.2
98112.9
98122.2
98132.2
98142.8
98154
98165.7
98178
98190.8
98204
98217.6
98231.6
98245.9
98260.5
98275.3
98290.4
98305.5
98320.7
98336
98351.3
98366.5
98381.5
98396.5
98411.2
98425.6
98439.7
98453.5
98466.9
98479.8
98492.2
98504.1
98515.4
98526.2
98536.3
98545.8
98554.7
98562.9
98570.5
98577.4
98583.7
98589.5
98594.6
98599.2
98603.3
98607
98610.1
98613
98615.4
98617.6
98619.5
98621.2
98622.6
98623.8
98624.9
98626
98627.1
98628.2
98629.5
98631.1
98633.1
98635.8
98639.2
98643.6
98649.2
98656.3
98665
98675.7
98688.6
98703.9
98721.9
98742.7
98766.5
98793.3
98823.1
98856.1
98892
98930.8
98972.3
99016.6
99063.2
99112.1
99162.8
99215.4
99269.5
99325
99381.3
99438.3
99495.6
99552.8
99609.4
99664.8
99718.5
99769.5
99817.3
99860.8
99899.1
99931.1
99956.2
99972.9
99980.4
99977.8
99964.8
99940.7
99906.1
99860.7
99805.9
99742
99671.3
99594.4
99513.9
99429.4
99344.7
99258
99174.8
98305.9
98305.5
98304.7
98303.6
98302
98300.2
98297.9
98295.3
98292.3
98288.9
98285.1
98281
98276.5
98271.7
98266.6
98261.3
98255.8
98250
98244.1
98238
98231.8
98225.4
98218.9
98212.2
98205.5
98198.7
98191.8
98184.9
98178
98171.1
98164.1
98157.2
98150.3
98143.5
98136.8
98130.2
98123.7
98117.4
98111.2
98105.2
98099.4
98093.8
98088.5
98083.4
98078.7
98074.3
98070.3
98066.6
98063.3
98060.5
98058.1
98056.2
98054.8
98053.9
98053.6
98053.9
98054.9
98056.4
98058.6
98061.5
98065.1
98069.4
98074.3
98080
98086.4
98093.5
98101.4
98109.8
98119
98128.8
98139.2
98150.2
98161.7
98173.8
98186.4
98199.4
98212.8
98226.5
98240.6
98255
98269.6
98284.3
98299.2
98314.2
98329.2
98344.2
98359.1
98373.9
98388.5
98402.9
98417.1
98430.9
98444.4
98457.4
98470.1
98482.2
98493.8
98504.9
98515.4
98525.3
98534.6
98543.2
98551.2
98558.6
98565.4
98571.5
98577.1
98582.1
98586.6
98590.6
98594.1
98597.2
98600
98602.4
98604.5
98606.3
98607.9
98609.3
98610.5
98611.5
98612.5
98613.5
98614.5
98615.7
98617.1
98618.9
98621.4
98624.5
98628.6
98633.9
98640.5
98648.8
98659
98671.3
98686.1
98703.4
98723.5
98746.5
98772.4
98801.3
98833.4
98868.3
98906
98946.5
98989.7
99035.1
99082.8
99132.3
99183.8
99236.7
99291
99346.2
99402.1
99458.4
99514.6
99570.1
99624.6
99677.5
99727.8
99775
99818.1
99856.1
99888
99913.2
99930.3
99938.4
99936.6
99924.6
99901.9
99868.7
99825
99771.9
99709.8
99640.9
99565.7
99487
99404.1
99320.9
99235.2
99150.2
98293.2
98292.8
98292
98290.8
98289.2
98287.3
98285
98282.3
98279.3
98275.9
98272.2
98268.1
98263.8
98259.2
98254.4
98249.3
98244.1
98238.7
98233.1
98227.4
98221.5
98215.5
98209.4
98203.1
98196.8
98190.3
98183.8
98177.2
98170.5
98163.9
98157.2
98150.6
98144
98137.4
98131
98124.6
98118.3
98112.2
98106.3
98100.5
98094.9
98089.5
98084.3
98079.4
98074.8
98070.6
98066.6
98063
98059.8
98057
98054.7
98052.8
98051.3
98050.4
98050
98050.2
98051
98052.4
98054.5
98057.2
98060.6
98064.7
98069.5
98074.9
98081
98087.9
98095.4
98103.6
98112.4
98121.9
98131.9
98142.6
98153.8
98165.5
98177.6
98190.2
98203.2
98216.5
98230.1
98244
98258.1
98272.4
98286.8
98301.3
98315.8
98330.3
98344.6
98358.9
98373
98386.9
98400.5
98413.7
98426.7
98439.2
98451.2
98462.8
98473.9
98484.4
98494.4
98503.8
98512.7
98520.9
98528.5
98535.5
98541.9
98547.8
98553
98557.8
98562
98565.8
98569.2
98572.1
98574.7
98577
98579
98580.7
98582.2
98583.4
98584.4
98585.3
98586.1
98586.8
98587.6
98588.5
98589.6
98591
98592.9
98595.5
98599
98603.5
98609.4
98616.7
98625.9
98637.1
98650.6
98666.6
98685.2
98706.6
98730.9
98758
98788.1
98821
98856.6
98894.9
98935.9
98979
99024.4
99071.6
99120.6
99171.3
99223.2
99276.1
99329.8
99383.9
99437.9
99491.4
99544
99595.2
99643.9
99689.7
99731.7
99768.9
99800.3
99825.4
99842.9
99851.7
99851.2
99841.1
99820.7
99790.2
99749.5
99699.8
99641.3
99576.1
99504.5
99429.2
99349.8
99269.8
99186.9
99103.1
98275.7
98275.4
98274.6
98273.4
98271.8
98269.8
98267.5
98264.8
98261.8
98258.5
98254.9
98251
98246.8
98242.5
98237.9
98233.2
98228.3
98223.3
98218.1
98212.8
98207.4
98201.9
98196.2
98190.4
98184.6
98178.6
98172.5
98166.4
98160.2
98154.1
98147.9
98141.7
98135.5
98129.3
98123.2
98117.2
98111.3
98105.5
98099.9
98094.4
98089
98083.8
98078.9
98074.2
98069.8
98065.6
98061.8
98058.3
98055.2
98052.5
98050.1
98048.2
98046.7
98045.8
98045.3
98045.4
98046
98047.3
98049.2
98051.6
98054.8
98058.5
98063
98068.1
98073.8
98080.3
98087.4
98095.1
98103.5
98112.5
98122.1
98132.2
98142.9
98154
98165.6
98177.6
98190
98202.7
98215.7
98228.9
98242.4
98256
98269.7
98283.5
98297.3
98311
98324.6
98338.2
98351.5
98364.6
98377.5
98390
98402.1
98413.9
98425.2
98436
98446.4
98456.2
98465.5
98474.2
98482.4
98490
98497
98503.5
98509.4
98514.8
98519.7
98524.1
98528
98531.5
98534.5
98537.2
98539.7
98541.8
98543.5
98545.1
98546.3
98547.3
98548.2
98548.8
98549.4
98549.8
98550.2
98550.6
98551.1
98552
98553.2
98555
98557.5
98561.1
98565.8
98571.8
98579.6
98589.2
98601
98615.1
98631.6
98650.9
98672.8
98697.4
98724.8
98754.9
98787.7
98823
98860.9
98900.9
98943.1
98987.1
99033
99080.4
99129.2
99179
99229.6
99280.8
99331.9
99382.7
99432.7
99481.4
99528
99571.9
99612.2
99648.3
99678.8
99703.5
99721.2
99730.8
99731.7
99723.6
99705.9
99678.8
99641.9
99596.6
99542.6
99482.3
99415.5
99345.1
99270.3
99194.9
99116.2
99036.2
98254.5
98254.2
98253.5
98252.4
98250.8
98248.9
98246.6
98244
98241.1
98237.9
98234.4
98230.7
98226.7
98222.6
98218.4
98214
98209.4
98204.8
98200.1
98195.2
98190.3
98185.3
98180.1
98174.8
98169.5
98164.1
98158.6
98153
98147.4
98141.8
98136.2
98130.5
98124.9
98119.3
98113.7
98108.2
98102.8
98097.4
98092.2
98087
98082
98077.2
98072.5
98068.1
98063.9
98059.9
98056.3
98052.9
98049.9
98047.2
98044.9
98043
98041.5
98040.4
98039.9
98039.8
98040.3
98041.3
98042.9
98045.1
98047.9
98051.3
98055.3
98060
98065.3
98071.2
98077.8
98085
98092.8
98101.2
98110.1
98119.6
98129.6
98140.1
98151
98162.2
98173.8
98185.8
98197.9
98210.4
98223
98235.7
98248.5
98261.4
98274.3
98287.1
98299.8
98312.4
98324.8
98337
98348.9
98360.5
98371.7
98382.5
98392.9
98402.8
98412.3
98421.2
98429.6
98437.5
98444.9
98451.8
98458.1
98463.9
98469.3
98474.1
98478.4
98482.3
98485.8
98488.9
98491.6
98494
98496.2
98498
98499.5
98500.8
98501.8
98502.5
98503.1
98503.4
98503.6
98503.6
98503.5
98503.3
98503.3
98503.4
98503.8
98504.6
98506
98508.2
98511.5
98516
98522
98529.7
98539.4
98551.2
98565.3
98581.8
98600.9
98622.5
98646.7
98673.5
98702.8
98734.5
98768.7
98805
98843.3
98883.6
98925.6
98969.2
99014.2
99060.3
99107.3
99154.9
99202.5
99250
99296.8
99342.5
99386.5
99428
99466.3
99500.7
99530.1
99554.2
99571.9
99582.1
99584.4
99578.5
99563.7
99540.3
99507.9
99467.5
99419
99364.4
99303.3
99238.9
99169.9
99100.1
99026.8
98952.2
98231.1
98230.9
98230.2
98229.2
98227.7
98225.9
98223.8
98221.4
98218.6
98215.6
98212.3
98208.8
98205.1
98201.2
98197.3
98193.2
98189
98184.7
98180.4
98175.9
98171.4
98166.9
98162.2
98157.5
98152.7
98147.8
98142.9
98137.9
98133
98127.9
98122.9
98117.9
98112.8
98107.8
98102.8
98097.9
98093
98088.1
98083.4
98078.7
98074.2
98069.7
98065.4
98061.3
98057.4
98053.7
98050.2
98047.1
98044.2
98041.6
98039.3
98037.4
98035.9
98034.7
98034
98033.8
98034.1
98034.9
98036.2
98038
98040.4
98043.4
98046.9
98051.1
98055.8
98061.2
98067.2
98073.7
98080.8
98088.5
98096.7
98105.5
98114.7
98124.3
98134.4
98144.8
98155.5
98166.5
98177.8
98189.2
98200.8
98212.5
98224.3
98236.2
98248
98259.8
98271.4
98282.9
98294.3
98305.4
98316.2
98326.7
98336.8
98346.6
98355.9
98364.8
98373.2
98381.2
98388.7
98395.7
98402.2
98408.2
98413.7
98418.7
98423.4
98427.5
98431.3
98434.6
98437.6
98440.3
98442.6
98444.6
98446.4
98447.9
98449
98450
98450.6
98451
98451.2
98451.2
98450.8
98450.3
98449.7
98448.9
98448.1
98447.4
98446.8
98446.4
98446.5
98447.4
98449.1
98451.8
98455.8
98461.4
98468.6
98477.8
98489.1
98502.7
98518.6
98536.8
98557.5
98580.5
98606
98633.7
98663.8
98696
98730.1
98766.2
98804
98843.4
98884.3
98926.3
98969.1
99012.7
99056.5
99100.3
99143.6
99185.9
99226.8
99265.6
99301.5
99334
99361.9
99385
99402.4
99413.1
99416.7
99412.9
99401.2
99381.7
99353.8
99318.7
99275.8
99227.4
99172.7
99114.9
99052.5
98989.2
98922.3
98854.3
98206.6
98206.5
98205.9
98205
98203.7
98202.1
98200.2
98197.9
98195.4
98192.6
98189.6
98186.3
98182.9
98179.4
98175.7
98172
98168.1
98164.2
98160.2
98156.2
98152.1
98147.9
98143.8
98139.5
98135.2
98130.9
98126.6
98122.2
98117.8
98113.4
98108.9
98104.5
98100
98095.6
98091.2
98086.8
98082.5
98078.2
98073.9
98069.7
98065.6
98061.6
98057.7
98053.9
98050.3
98046.9
98043.7
98040.7
98037.9
98035.4
98033.2
98031.4
98029.8
98028.6
98027.8
98027.4
98027.4
98028
98028.9
98030.4
98032.4
98034.9
98038
98041.6
98045.8
98050.5
98055.8
98061.6
98068
98074.9
98082.3
98090.2
98098.5
98107.3
98116.4
98125.8
98135.6
98145.6
98155.8
98166.2
98176.7
98187.4
98198
98208.7
98219.4
98230
98240.5
98250.8
98260.9
98270.9
98280.5
98289.8
98298.8
98307.4
98315.6
98323.4
98330.7
98337.6
98344.1
98350.1
98355.7
98360.8
98365.5
98369.7
98373.5
98377
98380.1
98382.8
98385.2
98387.4
98389.2
98390.8
98392.1
98393.2
98393.9
98394.5
98394.7
98394.7
98394.5
98394
98393.1
98392.1
98390.8
98389.3
98387.6
98385.9
98384.2
98382.7
98381.4
98380.6
98380.6
98381.5
98383.4
98386.6
98391.3
98397.8
98406.2
98416.6
98429
98443.7
98460.6
98479.8
98501.3
98524.8
98550.6
98578.5
98608.2
98640
98673.4
98708.4
98744.9
98782.6
98821.1
98860.4
98900.1
98940
98979.6
99018.3
99055.7
99091.5
99124.7
99154.8
99180.9
99202.8
99219.5
99230.4
99235
99233.3
99224.4
99208.6
99185.1
99155.3
99118.2
99076.1
99028.1
98977.3
98921.8
98865.6
98805.7
98744.9
98182.4
98182.3
98181.9
98181.1
98180
98178.6
98176.9
98175
98172.7
98170.2
98167.5
98164.6
98161.5
98158.3
98154.9
98151.5
98148
98144.4
98140.8
98137.1
98133.4
98129.7
98125.9
98122.1
98118.3
98114.5
98110.7
98106.8
98103
98099.1
98095.2
98091.3
98087.4
98083.5
98079.6
98075.8
98072
98068.2
98064.4
98060.6
98056.9
98053.3
98049.8
98046.3
98043
98039.9
98036.9
98034.1
98031.5
98029.1
98026.9
98025.1
98023.5
98022.2
98021.3
98020.7
98020.5
98020.8
98021.5
98022.6
98024.2
98026.2
98028.8
98031.8
98035.4
98039.5
98044.1
98049.2
98054.8
98060.9
98067.5
98074.5
98081.9
98089.7
98097.8
98106.3
98115
98123.9
98133.1
98142.4
98151.8
98161.2
98170.7
98180.2
98189.7
98199.1
98208.3
98217.4
98226.3
98234.9
98243.3
98251.4
98259.2
98266.6
98273.6
98280.2
98286.4
98292.2
98297.6
98302.6
98307.3
98311.5
98315.3
98318.7
98321.7
98324.4
98326.8
98328.9
98330.7
98332.3
98333.6
98334.7
98335.4
98336
98336.3
98336.4
98336.2
98335.7
98334.9
98333.9
98332.5
98330.8
98328.8
98326.5
98323.9
98321.1
98318.3
98315.5
98312.8
98310.5
98308.6
98307.6
98307.2
98308.1
98310.2
98313.9
98319.3
98326.5
98335.6
98346.6
98359.8
98375.1
98392.5
98412
98433.4
98456.9
98482.2
98509.7
98538.7
98569.2
98601.3
98634.6
98668.8
98703.8
98739.4
98775.4
98811
98846
98879.8
98912.1
98942.4
98969.9
98993.7
99014
99029.7
99040.5
99045.9
99045.8
99039.3
99026.9
99007.5
98982.6
98951.1
98915.2
98873.9
98830.2
98781.7
98732.9
98680.2
98627.1
98159.6
98159.6
98159.3
98158.6
98157.7
98156.5
98155
98153.3
98151.4
98149.2
98146.8
98144.2
98141.5
98138.6
98135.6
98132.5
98129.4
98126.2
98122.9
98119.6
98116.3
98113
98109.6
98106.3
98102.9
98099.5
98096.2
98092.8
98089.4
98085.9
98082.5
98079.1
98075.7
98072.3
98068.9
98065.5
98062.1
98058.7
98055.3
98052
98048.7
98045.4
98042.2
98039
98036
98033
98030.3
98027.6
98025.1
98022.8
98020.7
98018.8
98017.2
98015.8
98014.8
98014
98013.6
98013.6
98014
98014.8
98015.9
98017.5
98019.6
98022.1
98025.1
98028.5
98032.4
98036.8
98041.7
98047
98052.7
98058.8
98065.3
98072.2
98079.4
98086.8
98094.5
98102.4
98110.4
98118.6
98126.9
98135.2
98143.5
98151.8
98160
98168.1
98176.1
98183.9
98191.5
98198.9
98206
98212.9
98219.4
98225.6
98231.4
98236.9
98241.9
98246.6
98250.9
98254.9
98258.5
98261.8
98264.7
98267.2
98269.5
98271.4
98273.1
98274.5
98275.7
98276.6
98277.4
98277.9
98278.1
98278.2
98277.9
98277.5
98276.7
98275.7
98274.3
98272.7
98270.6
98268.3
98265.5
98262.3
98258.7
98254.9
98250.9
98246.8
98242.8
98238.9
98235.3
98232.2
98229.7
98228.3
98227.9
98228.8
98231.2
98235.2
98241
98248.6
98258
98269.6
98283.1
98298.6
98315.8
98335.1
98356.2
98379.4
98404.1
98430.4
98458.1
98487.1
98517
98547.9
98579.3
98611.3
98642.9
98674
98704.1
98732.9
98759.9
98784.7
98806
98824.2
98838.5
98848.8
98854.4
98855.4
98850.8
98841.2
98825.5
98805.1
98778.7
98748.8
98714
98677.1
98635.7
98594.2
98548.8
98503.6
98138.9
98139
98138.8
98138.3
98137.5
98136.6
98135.4
98133.9
98132.3
98130.4
98128.3
98126.1
98123.7
98121.2
98118.6
98115.9
98113.1
98110.2
98107.4
98104.5
98101.5
98098.6
98095.6
98092.7
98089.7
98086.7
98083.8
98080.7
98077.7
98074.7
98071.7
98068.6
98065.6
98062.6
98059.6
98056.6
98053.5
98050.5
98047.4
98044.4
98041.4
98038.3
98035.4
98032.5
98029.6
98026.9
98024.2
98021.7
98019.2
98017
98014.9
98013
98011.3
98009.8
98008.6
98007.7
98007.1
98006.8
98006.9
98007.3
98008.1
98009.3
98010.9
98012.9
98015.3
98018.2
98021.4
98025.1
98029.3
98033.8
98038.7
98044
98049.6
98055.6
98061.8
98068.3
98075
98081.8
98088.8
98095.9
98103
98110.2
98117.3
98124.4
98131.4
98138.3
98145.1
98151.7
98158
98164.2
98170
98175.6
98180.9
98185.9
98190.5
98194.8
98198.7
98202.3
98205.5
98208.4
98211
98213.4
98215.4
98217.1
98218.5
98219.7
98220.6
98221.3
98221.8
98222.1
98222.2
98222
98221.7
98221.2
98220.4
98219.3
98218
98216.3
98214.3
98211.9
98209.2
98206
98202.4
98198.3
98193.8
98188.9
98183.8
98178.5
98173.1
98167.7
98162.4
98157.5
98153
98149.3
98146.5
98144.8
98144.4
98145.4
98147.9
98152.2
98158.2
98166.2
98175.9
98187.7
98201.1
98216.5
98233.6
98252.7
98273.4
98295.6
98319.1
98344
98369.8
98396.7
98424.1
98452
98479.6
98506.9
98533.3
98558.5
98582
98603.8
98622.5
98638.4
98650.8
98660
98665.1
98666.6
98663.4
98655.9
98643.3
98626.8
98605.1
98580.7
98552
98521.5
98486.8
98452.5
98414.2
98376.8
98121.1
98121.2
98121.1
98120.7
98120.1
98119.4
98118.4
98117.2
98115.8
98114.3
98112.6
98110.7
98108.7
98106.5
98104.3
98101.9
98099.5
98097.1
98094.6
98092.1
98089.5
98087
98084.4
98081.8
98079.2
98076.6
98073.9
98071.2
98068.6
98065.9
98063.2
98060.5
98057.7
98055
98052.3
98049.5
98046.8
98044
98041.1
98038.3
98035.5
98032.7
98029.8
98027.1
98024.4
98021.7
98019.1
98016.6
98014.2
98012
98009.8
98007.9
98006.1
98004.5
98003.2
98002.1
98001.3
98000.7
98000.5
98000.6
98001.1
98001.9
98003.1
98004.6
98006.5
98008.8
98011.5
98014.6
98018
98021.8
98026
98030.5
98035.3
98040.4
98045.8
98051.3
98057.1
98062.9
98068.9
98075
98081
98087.1
98093.2
98099.1
98105
98110.7
98116.3
98121.7
98126.8
98131.7
98136.4
98140.8
98144.9
98148.7
98152.1
98155.3
98158.1
98160.5
98162.7
98164.6
98166.2
98167.5
98168.6
98169.4
98170
98170.4
98170.5
98170.4
98170.2
98169.8
98169.2
98168.4
98167.4
98166.2
98164.8
98163.1
98161.1
98158.7
98156
98152.9
98149.3
98145.3
98140.9
98135.9
98130.5
98124.6
98118.4
98111.9
98105.2
98098.4
98091.5
98084.9
98078.6
98072.8
98067.8
98063.7
98060.7
98059
98058.6
98059.8
98062.6
98067.2
98073.6
98081.9
98091.8
98103.6
98117.1
98132.6
98149.5
98168
98187.7
98208.7
98230.7
98253.5
98277.2
98301.1
98324.8
98348.4
98370.9
98392.4
98412.5
98431
98446.9
98460
98470.2
98477.6
98481.7
98483
98480.4
98474.5
98464.4
98451.2
98433.5
98414
98390.8
98366.2
98337.7
98310.2
98278.9
98248.9
98106.4
98106.6
98106.5
98106.3
98105.9
98105.3
98104.6
98103.6
98102.5
98101.3
98099.9
98098.4
98096.7
98094.9
98093.1
98091.1
98089.1
98087.1
98085
98082.8
98080.7
98078.5
98076.2
98074
98071.7
98069.4
98067
98064.7
98062.3
98059.8
98057.4
98054.9
98052.4
98049.9
98047.3
98044.8
98042.1
98039.5
98036.8
98034.1
98031.4
98028.6
98025.9
98023.2
98020.5
98017.9
98015.3
98012.8
98010.4
98008.1
98005.9
98003.8
98001.9
98000.2
97998.7
97997.5
97996.5
97995.7
97995.2
97995.1
97995.2
97995.7
97996.5
97997.6
97999.1
98000.9
98003
98005.6
98008.4
98011.6
98015.1
98018.9
98023
98027.3
98031.8
98036.5
98041.4
98046.4
98051.4
98056.5
98061.6
98066.7
98071.7
98076.6
98081.4
98086
98090.5
98094.7
98098.8
98102.5
98106
98109.3
98112.2
98114.9
98117.2
98119.2
98121
98122.4
98123.5
98124.3
98124.9
98125.3
98125.5
98125.4
98125.1
98124.6
98123.9
98123.1
98122.1
98120.9
98119.5
98118
98116.3
98114.4
98112.2
98109.8
98107
98103.9
98100.4
98096.5
98092.2
98087.4
98082.1
98076.2
98069.9
98063.1
98055.9
98048.2
98040.3
98032.2
98024
98015.8
98007.9
98000.3
97993.3
97987
97981.7
97977.4
97974.5
97973
97973
97974.7
97978.1
97983.2
97990.1
97998.7
98009
98021.2
98034.8
98050
98066.1
98083.6
98102
98121.2
98141.2
98161.3
98181.3
98201.1
98219.9
98237.5
98254
98268.9
98281.8
98292.1
98299.6
98304.9
98307.3
98307.5
98304.9
98300
98291.7
98281.2
98267
98251.6
98233
98213.8
98191.1
98169.9
98144.9
98122.1
98095
98095.2
98095.2
98095.1
98094.8
98094.4
98093.9
98093.2
98092.4
98091.4
98090.3
98089.1
98087.9
98086.5
98085
98083.5
98081.9
98080.2
98078.5
98076.8
98075
98073.2
98071.3
98069.4
98067.4
98065.4
98063.3
98061.1
98058.9
98056.7
98054.4
98052.1
98049.7
98047.3
98044.9
98042.4
98039.9
98037.3
98034.6
98031.9
98029.2
98026.5
98023.8
98021
98018.3
98015.7
98013
98010.4
98007.9
98005.5
98003.2
98001.1
97999
97997.2
97995.5
97994.1
97992.9
97991.9
97991.2
97990.8
97990.7
97990.8
97991.3
97992.1
97993.2
97994.6
97996.3
97998.3
98000.7
98003.3
98006.2
98009.4
98012.8
98016.5
98020.3
98024.3
98028.3
98032.5
98036.7
98041
98045.2
98049.3
98053.4
98057.4
98061.2
98064.8
98068.2
98071.4
98074.4
98077.1
98079.5
98081.7
98083.5
98085.1
98086.3
98087.3
98088
98088.4
98088.5
98088.3
98087.9
98087.3
98086.5
98085.5
98084.4
98083
98081.5
98079.8
98078
98076
98073.8
98071.5
98069.1
98066.4
98063.4
98060.2
98056.6
98052.7
98048.4
98043.8
98038.6
98033
98026.9
98020.2
98013
98005.3
97997.1
97988.5
97979.5
97970.3
97960.8
97951.3
97941.9
97932.7
97924
97915.8
97908.5
97902.1
97896.9
97893.1
97890.7
97889.9
97890.7
97893.2
97897.4
97903.2
97910.7
97919.9
97930.5
97942.6
97955.7
97970
97985
98000.9
98017.4
98034.1
98050.5
98066.7
98081.6
98095.4
98108.2
98119.4
98129
98136.2
98140.9
98143.8
98144
98142.6
98139.4
98134.7
98127.5
98118.9
98107.5
98095.5
98080.8
98066.4
98048.8
98033.4
98014.2
97998.2
98086.5
98086.8
98086.9
98086.8
98086.7
98086.5
98086.2
98085.8
98085.2
98084.6
98083.9
98083.1
98082.2
98081.2
98080.1
98079
98077.9
98076.6
98075.4
98074
98072.6
98071.1
98069.6
98068
98066.2
98064.4
98062.6
98060.6
98058.6
98056.5
98054.3
98052.1
98049.8
98047.4
98045
98042.5
98039.9
98037.3
98034.6
98031.9
98029.1
98026.3
98023.5
98020.7
98017.9
98015.1
98012.3
98009.6
98007
98004.4
98002
97999.7
97997.5
97995.5
97993.7
97992.1
97990.7
97989.5
97988.6
97988
97987.6
97987.6
97987.8
97988.3
97989
97990.1
97991.5
97993.1
97995
97997.2
97999.6
98002.3
98005.2
98008.2
98011.4
98014.8
98018.2
98021.6
98025.1
98028.6
98032
98035.4
98038.6
98041.7
98044.6
98047.3
98049.8
98052
98054
98055.7
98057.1
98058.3
98059.1
98059.7
98059.9
98059.9
98059.6
98059
98058.1
98056.9
98055.6
98054.1
98052.3
98050.4
98048.3
98046.1
98043.7
98041.2
98038.5
98035.7
98032.7
98029.5
98026.2
98022.6
98018.8
98014.8
98010.4
98005.7
98000.6
97995.1
97989.1
97982.7
97975.7
97968.2
97960.3
97951.8
97942.7
97933.2
97923.4
97913.2
97902.7
97892.1
97881.5
97871
97860.7
97851
97841.9
97833.8
97826.8
97821
97816.5
97813.6
97812.2
97812.5
97814.3
97817.8
97822.8
97829.3
97837.3
97846.6
97856.9
97868.4
97880.5
97893.4
97906.6
97919.8
97932.8
97945.4
97956.6
97966.8
97975.7
97983.3
97989.3
97993.2
97994.9
97995.3
97993.2
97989.8
97985.3
97980.1
97973.4
97966.2
97956.9
97947.6
97936.1
97925.8
97912.7
97902.4
97888.4
97878.6
98080.6
98080.8
98081
98081.1
98081.1
98081.1
98081
98080.8
98080.6
98080.3
98080
98079.6
98079.1
98078.6
98078.1
98077.4
98076.7
98076
98075.1
98074.2
98073.1
98072
98070.8
98069.4
98067.9
98066.4
98064.7
98062.9
98061
98058.9
98056.8
98054.6
98052.3
98049.9
98047.4
98044.8
98042.2
98039.5
98036.7
98033.8
98030.9
98028
98025
98022
98019
98016.1
98013.1
98010.3
98007.5
98004.8
98002.2
97999.7
97997.4
97995.2
97993.3
97991.5
97990
97988.6
97987.6
97986.7
97986.2
97985.9
97985.9
97986.2
97986.7
97987.5
97988.6
97989.9
97991.5
97993.3
97995.3
97997.6
98000
98002.6
98005.3
98008.1
98010.9
98013.8
98016.6
98019.4
98022.2
98024.8
98027.3
98029.6
98031.7
98033.6
98035.2
98036.6
98037.7
98038.5
98039
98039.2
98039.1
98038.8
98038.1
98037.1
98035.8
98034.3
98032.4
98030.3
98028
98025.6
98022.9
98020.1
98017.1
98014
98010.8
98007.4
98003.8
98000.1
97996.2
97992.2
97988
97983.5
97978.8
97973.9
97968.7
97963.1
97957.2
97950.9
97944.1
97936.9
97929.2
97920.9
97912.3
97903.1
97893.4
97883.1
97872.5
97861.5
97850.2
97838.7
97827.1
97815.5
97804
97793
97782.6
97773.2
97764.6
97757.1
97751
97746.3
97743.1
97741.5
97741.3
97742.7
97745.4
97749.8
97755.4
97762.1
97770.1
97779.1
97788.6
97798.5
97808.6
97818.6
97828.3
97837.4
97845.1
97851.6
97856.7
97860.6
97862.9
97863.4
97862.1
97859.8
97855.2
97849.8
97843.6
97837.4
97830.6
97824.1
97816.1
97808.9
97800.2
97793.3
97783.9
97778.1
97768.7
97764.4
98076.2
98076.5
98076.8
98076.9
98077.1
98077.3
98077.4
98077.6
98077.8
98078
98078.2
98078.4
98078.5
98078.5
98078.5
98078.4
98078.2
98077.9
98077.4
98076.9
98076.2
98075.4
98074.4
98073.3
98072.1
98070.6
98069.1
98067.4
98065.5
98063.5
98061.4
98059.2
98056.8
98054.3
98051.7
98049.1
98046.3
98043.4
98040.4
98037.4
98034.3
98031.2
98028
98024.9
98021.7
98018.5
98015.4
98012.4
98009.4
98006.5
98003.8
98001.1
97998.6
97996.3
97994.2
97992.3
97990.7
97989.2
97988
97987
97986.3
97985.9
97985.7
97985.8
97986.1
97986.7
97987.6
97988.7
97990
97991.5
97993.3
97995.2
97997.3
97999.4
98001.7
98004.1
98006.4
98008.8
98011.1
98013.4
98015.5
98017.5
98019.3
98020.9
98022.3
98023.5
98024.4
98025
98025.3
98025.3
98024.9
98024.3
98023.4
98022.1
98020.6
98018.7
98016.6
98014.1
98011.4
98008.4
98005.2
98001.8
97998.3
97994.6
97990.8
97986.8
97982.6
97978.3
97973.9
97969.3
97964.5
97959.6
97954.5
97949.1
97943.5
97937.8
97931.7
97925.3
97918.6
97911.5
97903.9
97895.9
97887.5
97878.7
97869.4
97859.5
97849.2
97838.4
97827.2
97815.6
97803.6
97791.4
97779
97766.6
97754.2
97742.2
97730.9
97720.3
97710.4
97701.7
97694.2
97688.1
97683.3
97680
97678.1
97677.7
97678.7
97681.1
97684.6
97689.3
97695
97701.7
97708.8
97716
97723.1
97730
97736.6
97742.3
97746.6
97749.7
97751
97751.2
97749.8
97746.8
97742.4
97737.2
97730.2
97722.5
97714.5
97707.1
97699.7
97693.3
97686.1
97680.5
97673.7
97669.6
97663.3
97661.5
97656.2
97656.8
98072.5
98072.7
98072.9
98073.1
98073.3
98073.8
98074.4
98075.2
98076.1
98077
98077.9
98078.7
98079.5
98080.2
98080.8
98081.2
98081.5
98081.6
98081.6
98081.4
98081.1
98080.5
98079.8
98078.9
98077.8
98076.5
98075.1
98073.4
98071.6
98069.6
98067.4
98065.1
98062.7
98060.1
98057.4
98054.6
98051.6
98048.6
98045.5
98042.3
98039
98035.6
98032.3
98028.9
98025.5
98022.2
98018.9
98015.7
98012.5
98009.5
98006.5
98003.8
98001.2
97998.7
97996.5
97994.5
97992.7
97991.1
97989.8
97988.8
97988
97987.4
97987.1
97987
97987.3
97987.7
97988.4
97989.3
97990.5
97991.8
97993.3
97995
97996.7
97998.6
98000.5
98002.5
98004.5
98006.4
98008.3
98010
98011.6
98013.1
98014.3
98015.4
98016.1
98016.6
98016.8
98016.7
98016.3
98015.6
98014.5
98013.1
98011.4
98009.3
98007
98004.3
98001.4
97998.1
97994.5
97990.7
97986.7
97982.5
97978
97973.5
97968.8
97964
97959
97953.8
97948.5
97943
97937.4
97931.6
97925.6
97919.3
97912.9
97906.3
97899.4
97892.2
97884.7
97876.9
97868.6
97860
97851
97841.5
97831.7
97821.3
97810.5
97799.2
97787.6
97775.5
97763
97750.2
97737.2
97724.2
97711.2
97698.6
97686.5
97675
97664.1
97654.4
97645.8
97638.4
97632.2
97627.6
97624.3
97622.4
97621.9
97622.6
97624.2
97627
97630.8
97635.3
97640.3
97644.9
97649.1
97653
97656.6
97659.2
97660.3
97660.1
97657.8
97654.2
97649.1
97642.7
97635.1
97626.9
97617.5
97607.6
97597.8
97589
97580.7
97574
97567.2
97562.6
97557.4
97555.4
97551.6
97553.3
97551.5
97556.5
98067.6
98067.6
98067.7
98068
98068.7
98070
98071.4
98073.2
98075
98076.8
98078.6
98080.2
98081.8
98083.2
98084.4
98085.3
98086.1
98086.7
98087
98087.1
98087.1
98086.7
98086.2
98085.5
98084.5
98083.3
98081.9
98080.3
98078.5
98076.5
98074.3
98071.9
98069.4
98066.7
98063.9
98060.9
98057.8
98054.6
98051.3
98047.9
98044.4
98040.9
98037.4
98033.8
98030.2
98026.7
98023.3
98019.9
98016.6
98013.4
98010.3
98007.5
98004.7
98002.2
97999.9
97997.8
97995.9
97994.3
97992.9
97991.7
97990.8
97990.2
97989.8
97989.7
97989.8
97990.2
97990.8
97991.6
97992.6
97993.7
97995.1
97996.5
97998.1
97999.7
98001.3
98003
98004.6
98006.1
98007.5
98008.9
98010
98011
98011.7
98012.2
98012.4
98012.3
98012
98011.2
98010.2
98008.8
98007
98004.9
98002.5
97999.7
97996.6
97993.1
97989.4
97985.4
97981.1
97976.5
97971.7
97966.7
97961.5
97956.1
97950.6
97945
97939.1
97933.2
97927.1
97920.8
97914.3
97907.7
97900.8
97893.8
97886.6
97879.1
97871.5
97863.5
97855.3
97846.8
97837.9
97828.7
97819.2
97809.3
97798.9
97788.1
97777
97765.4
97753.4
97740.9
97728