/*--------------------------------*- C++ -*----------------------------------*\
| =========                 |                                                 |
| \\      /  F ield         | OpenFOAM: The Open Source CFD Toolbox           |
|  \\    /   O peration     | Version:  dev                                   |
|   \\  /    A nd           | Web:      http://www.openfoam.org               |
|    \\/     M anipulation  |                                                 |
\*---------------------------------------------------------------------------*/
FoamFile
{
    version     2.0;
    format      ascii;
    class       volScalarField;
    object      pPrime2Mean;
    location    "9.135";
}
// * * * * * * * * * * * * * * * * * * * * * * * * * * * * * * * * * * * * * //

dimensions      [2 -2 -4 0 0 0 0];

internalField   nonuniform List<scalar> 
12225
(
5.03846e+07
4.99194e+07
4.89584e+07
4.76069e+07
4.59527e+07
4.40853e+07
4.20638e+07
3.99603e+07
3.78157e+07
3.5678e+07
3.35848e+07
3.15393e+07
2.96153e+07
2.77436e+07
2.59956e+07
2.44345e+07
2.28722e+07
2.1292e+07
5.02767e+07
4.98115e+07
4.88514e+07
4.75015e+07
4.58487e+07
4.39837e+07
4.19651e+07
3.98642e+07
3.77235e+07
3.55884e+07
3.35e+07
3.14581e+07
2.95387e+07
2.7674e+07
2.59434e+07
2.43824e+07
2.28731e+07
2.15383e+07
5.00265e+07
4.9562e+07
4.86023e+07
4.72554e+07
4.56072e+07
4.37469e+07
4.1735e+07
3.96404e+07
3.75078e+07
3.53809e+07
3.33009e+07
3.12707e+07
2.93574e+07
2.75098e+07
2.57991e+07
2.4243e+07
2.28074e+07
2.15938e+07
4.95907e+07
4.91291e+07
4.81716e+07
4.683e+07
4.51898e+07
4.3338e+07
4.13377e+07
3.92536e+07
3.71359e+07
3.50224e+07
3.29583e+07
3.09459e+07
2.90498e+07
2.72216e+07
2.55405e+07
2.4009e+07
2.26222e+07
2.15209e+07
4.89254e+07
4.8464e+07
4.75113e+07
4.61791e+07
4.45507e+07
4.27134e+07
4.0729e+07
3.86643e+07
3.65655e+07
3.44762e+07
3.24323e+07
3.04508e+07
2.85772e+07
2.67851e+07
2.51564e+07
2.36472e+07
2.23657e+07
2.13009e+07
4.79759e+07
4.75118e+07
4.65687e+07
4.525e+07
4.36395e+07
4.1822e+07
3.98623e+07
3.78231e+07
3.57545e+07
3.36949e+07
3.16853e+07
2.97379e+07
2.79026e+07
2.61571e+07
2.45778e+07
2.31382e+07
2.1911e+07
2.08543e+07
4.66804e+07
4.62151e+07
4.52875e+07
4.39851e+07
4.24007e+07
4.06089e+07
3.86848e+07
3.66791e+07
3.46533e+07
3.26326e+07
3.06715e+07
2.87697e+07
2.69858e+07
2.52981e+07
2.37758e+07
2.23964e+07
2.12276e+07
2.01995e+07
4.52379e+07
4.47742e+07
4.38629e+07
4.25783e+07
4.10227e+07
3.92605e+07
3.73749e+07
3.54082e+07
3.34278e+07
3.14533e+07
2.95419e+07
2.76939e+07
2.59616e+07
2.4337e+07
2.28633e+07
2.1547e+07
2.04109e+07
1.94509e+07
4.37225e+07
4.32623e+07
4.23673e+07
4.11025e+07
3.95764e+07
3.78467e+07
3.60005e+07
3.40762e+07
3.2142e+07
3.02171e+07
2.83567e+07
2.65643e+07
2.48858e+07
2.3322e+07
2.19003e+07
2.06402e+07
1.9546e+07
1.86472e+07
4.17817e+07
4.13282e+07
4.04526e+07
3.92154e+07
3.77258e+07
3.60401e+07
3.42427e+07
3.23745e+07
3.04976e+07
2.86376e+07
2.68401e+07
2.51193e+07
2.35068e+07
2.20178e+07
2.06624e+07
1.947e+07
1.84327e+07
1.75798e+07
3.93322e+07
3.88887e+07
3.80367e+07
3.68363e+07
3.53925e+07
3.37639e+07
3.20286e+07
3.02315e+07
2.84277e+07
2.6648e+07
2.49308e+07
2.3296e+07
2.17674e+07
2.03645e+07
1.90922e+07
1.79766e+07
1.70062e+07
1.61995e+07
3.63078e+07
3.58792e+07
3.50553e+07
3.39039e+07
3.25173e+07
3.0962e+07
2.93042e+07
2.75961e+07
2.58829e+07
2.42021e+07
2.25831e+07
2.10514e+07
1.96237e+07
1.83201e+07
1.71445e+07
1.61132e+07
1.52185e+07
1.4465e+07
3.26936e+07
3.22836e+07
3.14962e+07
3.04058e+07
2.90916e+07
2.76253e+07
2.60632e+07
2.44618e+07
2.28587e+07
2.12945e+07
1.97923e+07
1.83797e+07
1.70684e+07
1.58771e+07
1.48081e+07
1.38704e+07
1.3059e+07
1.23707e+07
2.85807e+07
2.81935e+07
2.74528e+07
2.64348e+07
2.52089e+07
2.38461e+07
2.23981e+07
2.09187e+07
1.94439e+07
1.80106e+07
1.66413e+07
1.53594e+07
1.41767e+07
1.3106e+07
1.21506e+07
1.13133e+07
1.05906e+07
9.97645e+06
2.42547e+07
2.3894e+07
2.32093e+07
2.22722e+07
2.11464e+07
1.98979e+07
1.85754e+07
1.72284e+07
1.58913e+07
1.45968e+07
1.33665e+07
1.22197e+07
1.11675e+07
1.02185e+07
9.37553e+06
8.63841e+06
8.00397e+06
7.46554e+06
2.03065e+07
1.99744e+07
1.93494e+07
1.84939e+07
1.74696e+07
1.63342e+07
1.51355e+07
1.39167e+07
1.27113e+07
1.15476e+07
1.04461e+07
9.42263e+06
8.48706e+06
7.64548e+06
6.89979e+06
6.2487e+06
5.68905e+06
5.21462e+06
1.77401e+07
1.74336e+07
1.68588e+07
1.60712e+07
1.51293e+07
1.40849e+07
1.29835e+07
1.18641e+07
1.07584e+07
9.69151e+06
8.68244e+06
7.74475e+06
6.88715e+06
6.11442e+06
5.42793e+06
4.8263e+06
4.30654e+06
3.8633e+06
1.78487e+07
1.7554e+07
1.70014e+07
1.62434e+07
1.53361e+07
1.43287e+07
1.32648e+07
1.21813e+07
1.11083e+07
1.00697e+07
9.08306e+06
8.16113e+06
7.31202e+06
6.54023e+06
5.84716e+06
5.23196e+06
4.69214e+06
4.22335e+06
2.07273e+07
2.04282e+07
1.98657e+07
1.90927e+07
1.81659e+07
1.71345e+07
1.6042e+07
1.4925e+07
1.38135e+07
1.27308e+07
1.16947e+07
1.07177e+07
9.80818e+06
8.97087e+06
8.20771e+06
7.5186e+06
6.90172e+06
6.35368e+06
2.52169e+07
2.49049e+07
2.43144e+07
2.35003e+07
2.25219e+07
2.14302e+07
2.02698e+07
1.90782e+07
1.78862e+07
1.67177e+07
1.55908e+07
1.45188e+07
1.35104e+07
1.2571e+07
1.17033e+07
1.0908e+07
1.01839e+07
9.52851e+06
3.02792e+07
2.9953e+07
2.93293e+07
2.84656e+07
2.74248e+07
2.62599e+07
2.50173e+07
2.37363e+07
2.24486e+07
2.11792e+07
1.99471e+07
1.87662e+07
1.7646e+07
1.65928e+07
1.56099e+07
1.46986e+07
1.38587e+07
1.30884e+07
3.51958e+07
3.48579e+07
3.42031e+07
3.32924e+07
3.21913e+07
3.09551e+07
2.96324e+07
2.82637e+07
2.68823e+07
2.55143e+07
2.41797e+07
2.28931e+07
2.1665e+07
2.05022e+07
1.94088e+07
1.8387e+07
1.7437e+07
1.65578e+07
3.95475e+07
3.92012e+07
3.8521e+07
3.75705e+07
3.64178e+07
3.51198e+07
3.37269e+07
3.22813e+07
3.08174e+07
2.93625e+07
2.79374e+07
2.65577e+07
2.52344e+07
2.39753e+07
2.27851e+07
2.16664e+07
2.062e+07
1.96455e+07
4.31451e+07
4.27938e+07
4.20942e+07
4.11127e+07
3.99189e+07
3.85711e+07
3.71211e+07
3.56126e+07
3.4081e+07
3.25546e+07
3.1055e+07
2.95986e+07
2.81971e+07
2.68587e+07
2.55888e+07
2.43904e+07
2.32649e+07
2.22121e+07
4.5955e+07
4.56007e+07
4.48874e+07
4.38829e+07
4.2658e+07
4.12721e+07
3.97782e+07
3.8221e+07
3.6637e+07
3.5055e+07
3.34975e+07
3.19814e+07
3.0519e+07
2.9119e+07
2.77871e+07
2.65267e+07
2.53396e+07
2.42259e+07
4.80343e+07
4.76784e+07
4.69554e+07
4.59348e+07
4.46875e+07
4.32739e+07
4.17479e+07
4.01549e+07
3.85323e+07
3.69094e+07
3.53093e+07
3.37493e+07
3.2242e+07
3.07966e+07
2.9419e+07
2.8113e+07
2.68805e+07
2.57219e+07
4.94839e+07
4.91272e+07
4.83975e+07
4.7366e+07
4.61034e+07
4.46709e+07
4.31229e+07
4.15054e+07
3.98561e+07
3.8205e+07
3.65753e+07
3.49848e+07
3.34465e+07
3.19696e+07
3.05603e+07
2.92228e+07
2.79589e+07
2.67691e+07
5.04194e+07
5.00616e+07
4.93277e+07
4.82896e+07
4.70172e+07
4.55726e+07
4.40106e+07
4.23776e+07
4.07113e+07
3.90421e+07
3.73935e+07
3.57835e+07
3.42252e+07
3.27281e+07
3.12985e+07
2.99405e+07
2.86565e+07
2.74468e+07
5.09487e+07
5.05906e+07
4.98552e+07
4.88139e+07
4.75362e+07
4.6085e+07
4.45152e+07
4.28732e+07
4.1197e+07
3.95174e+07
3.7858e+07
3.62367e+07
3.46669e+07
3.31581e+07
3.17168e+07
3.03472e+07
2.90517e+07
2.7831e+07
5.1171e+07
5.08144e+07
5.0077e+07
4.9034e+07
4.77537e+07
4.62997e+07
4.47265e+07
4.30806e+07
4.14003e+07
3.97161e+07
3.8052e+07
3.64259e+07
3.48512e+07
3.33374e+07
3.18911e+07
3.05166e+07
2.92164e+07
2.79912e+07
6.04906e+07
6.04315e+07
6.03008e+07
6.00949e+07
5.98121e+07
5.94515e+07
5.90134e+07
5.84983e+07
5.79075e+07
5.72424e+07
5.65049e+07
5.5697e+07
5.48212e+07
5.38799e+07
5.28759e+07
5.18122e+07
5.0692e+07
4.95189e+07
4.82965e+07
4.70286e+07
4.57193e+07
4.43726e+07
4.29928e+07
4.15842e+07
4.01513e+07
3.86987e+07
3.72308e+07
3.57521e+07
3.42671e+07
3.27803e+07
3.12963e+07
2.98198e+07
2.83553e+07
2.69074e+07
2.54807e+07
2.40798e+07
2.27092e+07
2.13738e+07
2.00783e+07
1.88274e+07
1.76259e+07
1.64788e+07
1.5391e+07
1.43676e+07
1.34138e+07
1.25349e+07
1.1736e+07
1.10226e+07
1.04001e+07
9.87394e+06
9.4496e+06
9.13252e+06
8.92808e+06
8.84155e+06
8.87803e+06
9.04234e+06
9.33904e+06
9.77237e+06
1.03462e+07
1.10638e+07
1.19278e+07
1.29405e+07
1.41033e+07
1.54169e+07
1.68813e+07
1.84956e+07
2.02582e+07
2.21667e+07
2.42179e+07
2.6408e+07
2.87324e+07
3.11857e+07
3.37622e+07
3.64553e+07
3.92583e+07
4.21638e+07
4.51644e+07
4.82523e+07
5.14196e+07
5.46584e+07
5.79606e+07
6.13179e+07
6.47221e+07
6.81645e+07
7.16365e+07
7.51292e+07
7.86335e+07
8.21398e+07
8.56382e+07
8.91181e+07
9.25688e+07
9.59786e+07
9.93354e+07
1.02627e+08
1.05841e+08
1.08964e+08
1.11983e+08
1.14888e+08
1.17665e+08
1.20306e+08
1.22799e+08
1.25138e+08
1.27314e+08
1.29323e+08
1.31161e+08
1.32825e+08
1.34316e+08
1.35636e+08
1.36791e+08
1.37788e+08
1.38638e+08
1.39351e+08
1.39941e+08
1.40423e+08
1.40813e+08
1.41129e+08
1.4139e+08
1.41618e+08
1.41836e+08
1.42071e+08
1.42354e+08
1.42716e+08
1.43195e+08
1.4383e+08
1.44665e+08
1.45748e+08
1.47132e+08
1.48872e+08
1.5103e+08
1.53668e+08
1.5685e+08
1.60637e+08
1.65091e+08
1.7027e+08
1.76225e+08
1.83003e+08
1.90639e+08
1.99161e+08
2.08582e+08
2.18906e+08
2.30127e+08
2.42222e+08
2.55163e+08
2.68908e+08
2.83416e+08
2.98622e+08
3.14479e+08
3.30914e+08
3.47865e+08
3.65257e+08
3.83015e+08
4.01057e+08
4.19292e+08
4.37626e+08
4.55938e+08
4.74088e+08
4.91914e+08
5.09245e+08
5.25849e+08
5.41491e+08
5.55874e+08
5.68697e+08
5.7962e+08
5.8832e+08
5.94462e+08
5.97749e+08
5.9792e+08
5.94796e+08
5.88249e+08
5.78307e+08
5.6505e+08
5.48746e+08
5.29713e+08
5.08444e+08
4.85413e+08
4.61144e+08
4.36003e+08
4.10428e+08
3.84628e+08
3.58928e+08
5.94151e+07
5.93595e+07
5.92343e+07
5.90344e+07
5.8758e+07
5.8405e+07
5.79762e+07
5.74726e+07
5.68953e+07
5.62458e+07
5.55259e+07
5.47375e+07
5.38828e+07
5.29642e+07
5.19843e+07
5.09458e+07
4.98518e+07
4.87056e+07
4.75108e+07
4.62711e+07
4.49903e+07
4.36725e+07
4.23218e+07
4.09424e+07
3.95387e+07
3.81153e+07
3.66763e+07
3.5226e+07
3.3769e+07
3.23095e+07
3.08522e+07
2.94015e+07
2.79619e+07
2.65381e+07
2.51345e+07
2.37556e+07
2.24059e+07
2.10902e+07
1.9813e+07
1.85792e+07
1.73935e+07
1.62608e+07
1.51861e+07
1.41744e+07
1.32308e+07
1.23606e+07
1.1569e+07
1.08615e+07
1.02434e+07
9.72025e+06
9.29745e+06
8.98045e+06
8.77463e+06
8.68521e+06
8.71731e+06
8.87583e+06
9.16532e+06
9.59e+06
1.01537e+07
1.08596e+07
1.17106e+07
1.27088e+07
1.38554e+07
1.51514e+07
1.65965e+07
1.81901e+07
1.99305e+07
2.18151e+07
2.38409e+07
2.60041e+07
2.82999e+07
3.07233e+07
3.32683e+07
3.59284e+07
3.8697e+07
4.15667e+07
4.45302e+07
4.75798e+07
5.07077e+07
5.39057e+07
5.71659e+07
6.04801e+07
6.38401e+07
6.72375e+07
7.06635e+07
7.41094e+07
7.7566e+07
8.1024e+07
8.44733e+07
8.79038e+07
9.13045e+07
9.4664e+07
9.79707e+07
1.01212e+08
1.04376e+08
1.07449e+08
1.10421e+08
1.13277e+08
1.16009e+08
1.18605e+08
1.21055e+08
1.23353e+08
1.25492e+08
1.27465e+08
1.2927e+08
1.30904e+08
1.32368e+08
1.33664e+08
1.34797e+08
1.35776e+08
1.36609e+08
1.37309e+08
1.37888e+08
1.3836e+08
1.38742e+08
1.3905e+08
1.39304e+08
1.39525e+08
1.39735e+08
1.39961e+08
1.40233e+08
1.40581e+08
1.41043e+08
1.41657e+08
1.42465e+08
1.43516e+08
1.4486e+08
1.46554e+08
1.48657e+08
1.51231e+08
1.54338e+08
1.58041e+08
1.62398e+08
1.67467e+08
1.733e+08
1.79942e+08
1.87428e+08
1.95786e+08
2.0503e+08
2.15162e+08
2.26178e+08
2.38055e+08
2.50766e+08
2.64273e+08
2.7853e+08
2.93478e+08
3.09065e+08
3.2523e+08
3.41906e+08
3.59018e+08
3.76495e+08
3.94256e+08
4.12214e+08
4.30277e+08
4.48324e+08
4.66218e+08
4.838e+08
5.00904e+08
5.17304e+08
5.32765e+08
5.47003e+08
5.59721e+08
5.70581e+08
5.79265e+08
5.85447e+08
5.88836e+08
5.89175e+08
5.86287e+08
5.80041e+08
5.7045e+08
5.57588e+08
5.4171e+08
5.23124e+08
5.02311e+08
4.79729e+08
4.55889e+08
4.31159e+08
4.05964e+08
3.80516e+08
3.55055e+08
5.7349e+07
5.72959e+07
5.71763e+07
5.69847e+07
5.672e+07
5.63824e+07
5.59732e+07
5.54934e+07
5.49439e+07
5.43259e+07
5.36409e+07
5.28906e+07
5.20768e+07
5.12018e+07
5.02677e+07
4.92771e+07
4.82328e+07
4.71379e+07
4.59957e+07
4.48096e+07
4.35833e+07
4.23207e+07
4.10258e+07
3.97026e+07
3.83552e+07
3.69874e+07
3.56033e+07
3.42073e+07
3.28035e+07
3.13962e+07
2.99899e+07
2.85889e+07
2.71976e+07
2.58202e+07
2.44612e+07
2.31249e+07
2.18157e+07
2.0538e+07
1.92966e+07
1.8096e+07
1.6941e+07
1.58363e+07
1.4787e+07
1.37979e+07
1.28742e+07
1.2021e+07
1.12438e+07
1.05479e+07
9.93855e+06
9.42128e+06
9.0015e+06
8.68467e+06
8.47617e+06
8.38125e+06
8.40499e+06
8.5523e+06
8.8277e+06
9.23544e+06
9.77932e+06
1.04626e+07
1.12879e+07
1.22575e+07
1.33727e+07
1.4634e+07
1.60415e+07
1.75944e+07
1.92908e+07
2.11286e+07
2.31044e+07
2.52146e+07
2.74545e+07
2.98189e+07
3.2302e+07
3.48975e+07
3.75987e+07
4.03984e+07
4.32894e+07
4.6264e+07
4.93147e+07
5.24334e+07
5.56121e+07
5.88428e+07
6.21172e+07
6.54272e+07
6.87641e+07
7.21192e+07
7.54836e+07
7.8848e+07
8.22026e+07
8.55372e+07
8.88412e+07
9.21035e+07
9.53126e+07
9.84565e+07
1.01523e+08
1.045e+08
1.07376e+08
1.1014e+08
1.12781e+08
1.15289e+08
1.17656e+08
1.19874e+08
1.21937e+08
1.2384e+08
1.2558e+08
1.27156e+08
1.28566e+08
1.29814e+08
1.30906e+08
1.31848e+08
1.32651e+08
1.33325e+08
1.33882e+08
1.34336e+08
1.34701e+08
1.34995e+08
1.35235e+08
1.35441e+08
1.35636e+08
1.35844e+08
1.36092e+08
1.36413e+08
1.36839e+08
1.37409e+08
1.38163e+08
1.39149e+08
1.40415e+08
1.42015e+08
1.44007e+08
1.46452e+08
1.49411e+08
1.52945e+08
1.5711e+08
1.61963e+08
1.67553e+08
1.73924e+08
1.81113e+08
1.89146e+08
1.98037e+08
2.0779e+08
2.18399e+08
2.29844e+08
2.42102e+08
2.55136e+08
2.68898e+08
2.83334e+08
2.9839e+08
3.14015e+08
3.30141e+08
3.46697e+08
3.63611e+08
3.80813e+08
3.98216e+08
4.15728e+08
4.33234e+08
4.50608e+08
4.67689e+08
4.84318e+08
5.00281e+08
5.15347e+08
5.29252e+08
5.41704e+08
5.52381e+08
5.60981e+08
5.67185e+08
5.70721e+08
5.71338e+08
5.68865e+08
5.63165e+08
5.54228e+08
5.42127e+08
5.27086e+08
5.09392e+08
4.89499e+08
4.67834e+08
4.44875e+08
4.20994e+08
3.96593e+08
3.71897e+08
3.47076e+08
5.4454e+07
5.44047e+07
5.42926e+07
5.41133e+07
5.38663e+07
5.35526e+07
5.3173e+07
5.2728e+07
5.22182e+07
5.16448e+07
5.10088e+07
5.03114e+07
4.95542e+07
4.8739e+07
4.78676e+07
4.69426e+07
4.59665e+07
4.49421e+07
4.38723e+07
4.27604e+07
4.16099e+07
4.04243e+07
3.9207e+07
3.79619e+07
3.66922e+07
3.54017e+07
3.40942e+07
3.27737e+07
3.14443e+07
3.01101e+07
2.87753e+07
2.74439e+07
2.61199e+07
2.48075e+07
2.35108e+07
2.22339e+07
2.09811e+07
1.97567e+07
1.85653e+07
1.74113e+07
1.62993e+07
1.52341e+07
1.42203e+07
1.32631e+07
1.23676e+07
1.15387e+07
1.07817e+07
1.0102e+07
9.50498e+06
8.99605e+06
8.58061e+06
8.2641e+06
8.05188e+06
7.94917e+06
7.96105e+06
8.09239e+06
8.34778e+06
8.73142e+06
9.24705e+06
9.8979e+06
1.06867e+07
1.16154e+07
1.26855e+07
1.38975e+07
1.52514e+07
1.67461e+07
1.83802e+07
2.01512e+07
2.20562e+07
2.40912e+07
2.62518e+07
2.85329e+07
3.09287e+07
3.3433e+07
3.60393e+07
3.87406e+07
4.15298e+07
4.43994e+07
4.7342e+07
5.03497e+07
5.34147e+07
5.65289e+07
5.96844e+07
6.28729e+07
6.6086e+07
6.93151e+07
7.25516e+07
7.57862e+07
7.90093e+07
8.22111e+07
8.53809e+07
8.85081e+07
9.15815e+07
9.45895e+07
9.75207e+07
1.00363e+08
1.03106e+08
1.0574e+08
1.08253e+08
1.10638e+08
1.12886e+08
1.14991e+08
1.16948e+08
1.18751e+08
1.20399e+08
1.21889e+08
1.23223e+08
1.24404e+08
1.25436e+08
1.26326e+08
1.27084e+08
1.2772e+08
1.28244e+08
1.28671e+08
1.29012e+08
1.29283e+08
1.29502e+08
1.29685e+08
1.29856e+08
1.30037e+08
1.30253e+08
1.30532e+08
1.30906e+08
1.31412e+08
1.32089e+08
1.32981e+08
1.34136e+08
1.35604e+08
1.37441e+08
1.39704e+08
1.42453e+08
1.45747e+08
1.49641e+08
1.5419e+08
1.59439e+08
1.65432e+08
1.72202e+08
1.7978e+08
1.88178e+08
1.97402e+08
2.07443e+08
2.18287e+08
2.29912e+08
2.42287e+08
2.55362e+08
2.69088e+08
2.8341e+08
2.98287e+08
3.13653e+08
3.29443e+08
3.45584e+08
3.62014e+08
3.7865e+08
3.95402e+08
4.1216e+08
4.28807e+08
4.4519e+08
4.61153e+08
4.76497e+08
4.91e+08
5.04416e+08
5.16467e+08
5.26855e+08
5.35296e+08
5.41486e+08
5.4517e+08
5.46107e+08
5.44133e+08
5.39113e+08
5.3102e+08
5.19914e+08
5.05985e+08
4.89497e+08
4.70862e+08
4.50462e+08
4.28739e+08
4.06054e+08
3.82784e+08
3.59166e+08
3.35351e+08
5.09308e+07
5.08868e+07
5.07849e+07
5.06219e+07
5.03981e+07
5.01142e+07
4.97703e+07
4.93669e+07
4.89046e+07
4.8384e+07
4.78057e+07
4.71708e+07
4.64805e+07
4.57363e+07
4.494e+07
4.40936e+07
4.31994e+07
4.22598e+07
4.12774e+07
4.02552e+07
3.91961e+07
3.81033e+07
3.69797e+07
3.58284e+07
3.46525e+07
3.34555e+07
3.2241e+07
3.10125e+07
2.9774e+07
2.85291e+07
2.72816e+07
2.60352e+07
2.47935e+07
2.35605e+07
2.23398e+07
2.11356e+07
1.99518e+07
1.87927e+07
1.76625e+07
1.65655e+07
1.55062e+07
1.44892e+07
1.35193e+07
1.26012e+07
1.174e+07
1.09408e+07
1.02086e+07
9.54888e+06
8.96692e+06
8.46815e+06
8.05795e+06
7.74172e+06
7.52481e+06
7.41242e+06
7.40961e+06
7.5212e+06
7.75173e+06
8.10536e+06
8.58578e+06
9.19624e+06
9.93939e+06
1.08173e+07
1.18312e+07
1.29817e+07
1.42687e+07
1.56913e+07
1.72478e+07
1.8936e+07
2.07528e+07
2.26945e+07
2.47567e+07
2.69344e+07
2.92219e+07
3.16133e+07
3.41022e+07
3.66818e+07
3.93451e+07
4.20849e+07
4.48941e+07
4.77647e+07
5.06893e+07
5.36601e+07
5.6669e+07
5.97082e+07
6.27693e+07
6.58438e+07
6.89234e+07
7.1999e+07
7.50611e+07
7.81002e+07
8.11062e+07
8.40687e+07
8.69768e+07
8.98194e+07
9.25856e+07
9.52647e+07
9.78464e+07
1.00321e+08
1.02679e+08
1.04913e+08
1.07016e+08
1.08982e+08
1.10808e+08
1.12488e+08
1.14021e+08
1.15406e+08
1.16646e+08
1.17742e+08
1.187e+08
1.19524e+08
1.20225e+08
1.20811e+08
1.21294e+08
1.21684e+08
1.21992e+08
1.22234e+08
1.22424e+08
1.22579e+08
1.22717e+08
1.22861e+08
1.23034e+08
1.23261e+08
1.23572e+08
1.24e+08
1.24583e+08
1.2536e+08
1.26378e+08
1.27685e+08
1.29333e+08
1.31376e+08
1.33869e+08
1.36871e+08
1.40435e+08
1.44611e+08
1.49446e+08
1.5498e+08
1.61246e+08
1.68273e+08
1.76075e+08
1.84658e+08
1.94017e+08
2.04138e+08
2.15e+08
2.26579e+08
2.38829e+08
2.51705e+08
2.65151e+08
2.79132e+08
2.93591e+08
3.08467e+08
3.23688e+08
3.39197e+08
3.54915e+08
3.70757e+08
3.86616e+08
4.02385e+08
4.17922e+08
4.33076e+08
4.47665e+08
4.6148e+08
4.74284e+08
4.85824e+08
4.95834e+08
5.04041e+08
5.10167e+08
5.13971e+08
5.15227e+08
5.13782e+08
5.09509e+08
5.02364e+08
4.92391e+08
4.79744e+08
4.64664e+08
4.47511e+08
4.2862e+08
4.08397e+08
3.87171e+08
3.65293e+08
3.43011e+08
3.20485e+08
4.70023e+07
4.69653e+07
4.68759e+07
4.67321e+07
4.65344e+07
4.62831e+07
4.59784e+07
4.56205e+07
4.52098e+07
4.47462e+07
4.42306e+07
4.36636e+07
4.30463e+07
4.23799e+07
4.16658e+07
4.09057e+07
4.01016e+07
3.92553e+07
3.83693e+07
3.7446e+07
3.64879e+07
3.54975e+07
3.44772e+07
3.34298e+07
3.2358e+07
3.1265e+07
3.01539e+07
2.90282e+07
2.78911e+07
2.67458e+07
2.55957e+07
2.44441e+07
2.32945e+07
2.21502e+07
2.10149e+07
1.98922e+07
1.87861e+07
1.77003e+07
1.6639e+07
1.56062e+07
1.46064e+07
1.36438e+07
1.27232e+07
1.18492e+07
1.10268e+07
1.02609e+07
9.5566e+06
8.91928e+06
8.35422e+06
7.86676e+06
7.4623e+06
7.14618e+06
6.92377e+06
6.80021e+06
6.78051e+06
6.86944e+06
7.07151e+06
7.39081e+06
7.83099e+06
8.39523e+06
9.08613e+06
9.90569e+06
1.08552e+07
1.19353e+07
1.31458e+07
1.44857e+07
1.59535e+07
1.75468e+07
1.92628e+07
2.10977e+07
2.30474e+07
2.51068e+07
2.72706e+07
2.9533e+07
3.18877e+07
3.43283e+07
3.6848e+07
3.94397e+07
4.20965e+07
4.48109e+07
4.75754e+07
5.03824e+07
5.32244e+07
5.60933e+07
5.89814e+07
6.18801e+07
6.47812e+07
6.76761e+07
7.05554e+07
7.34099e+07
7.623e+07
7.90059e+07
8.17271e+07
8.43832e+07
8.69636e+07
8.94588e+07
9.18592e+07
9.41559e+07
9.63404e+07
9.84056e+07
1.00345e+08
1.02155e+08
1.03832e+08
1.05374e+08
1.06777e+08
1.08044e+08
1.09176e+08
1.10175e+08
1.11047e+08
1.11795e+08
1.12429e+08
1.12957e+08
1.13388e+08
1.13733e+08
1.14001e+08
1.14205e+08
1.14359e+08
1.14478e+08
1.14577e+08
1.14677e+08
1.14798e+08
1.14965e+08
1.15203e+08
1.15543e+08
1.1602e+08
1.1667e+08
1.17534e+08
1.1866e+08
1.20096e+08
1.21892e+08
1.241e+08
1.26776e+08
1.2997e+08
1.33732e+08
1.38104e+08
1.43125e+08
1.4883e+08
1.55246e+08
1.62386e+08
1.70259e+08
1.78863e+08
1.88185e+08
1.98207e+08
2.08907e+08
2.20248e+08
2.32189e+08
2.44677e+08
2.57678e+08
2.71143e+08
2.85016e+08
2.9923e+08
3.13728e+08
3.28439e+08
3.43276e+08
3.58146e+08
3.72943e+08
3.87542e+08
4.01794e+08
4.15533e+08
4.28569e+08
4.40673e+08
4.51617e+08
4.61166e+08
4.69069e+08
4.75071e+08
4.78941e+08
4.8048e+08
4.79551e+08
4.76025e+08
4.69852e+08
4.61054e+08
4.49762e+08
4.36185e+08
4.2063e+08
4.03388e+08
3.84827e+08
3.65231e+08
3.44925e+08
3.24161e+08
3.03126e+08
4.28936e+07
4.28641e+07
4.27882e+07
4.26647e+07
4.24942e+07
4.22766e+07
4.20122e+07
4.17009e+07
4.13426e+07
4.09374e+07
4.04859e+07
3.99887e+07
3.94464e+07
3.88601e+07
3.82307e+07
3.75597e+07
3.68485e+07
3.6099e+07
3.53128e+07
3.44919e+07
3.36382e+07
3.27538e+07
3.18406e+07
3.0901e+07
2.99376e+07
2.89529e+07
2.79499e+07
2.69314e+07
2.59001e+07
2.48589e+07
2.38107e+07
2.27586e+07
2.17054e+07
2.06544e+07
1.96088e+07
1.85721e+07
1.75478e+07
1.65394e+07
1.55508e+07
1.45859e+07
1.36489e+07
1.27438e+07
1.18753e+07
1.10479e+07
1.02664e+07
9.53569e+06
8.86089e+06
8.24719e+06
7.69985e+06
7.22424e+06
6.82566e+06
6.50944e+06
6.28086e+06
6.14507e+06
6.10702e+06
6.17145e+06
6.34279e+06
6.62507e+06
7.0219e+06
7.53639e+06
8.17107e+06
8.92786e+06
9.80804e+06
1.08122e+07
1.19401e+07
1.3191e+07
1.45631e+07
1.60542e+07
1.76614e+07
1.93811e+07
2.12093e+07
2.31411e+07
2.51714e+07
2.72944e+07
2.95043e+07
3.17947e+07
3.41591e+07
3.65909e+07
3.9083e+07
4.16284e+07
4.42199e+07
4.685e+07
4.95115e+07
5.21965e+07
5.48975e+07
5.76064e+07
6.03149e+07
6.30147e+07
6.56969e+07
6.83526e+07
7.09726e+07
7.35476e+07
7.60679e+07
7.85237e+07
8.09054e+07
8.3204e+07
8.54109e+07
8.75182e+07
8.95183e+07
9.14049e+07
9.31725e+07
9.48176e+07
9.63374e+07
9.77307e+07
9.89972e+07
1.00137e+08
1.01153e+08
1.02048e+08
1.02825e+08
1.0349e+08
1.0405e+08
1.04512e+08
1.04884e+08
1.05176e+08
1.05396e+08
1.05557e+08
1.05669e+08
1.05745e+08
1.058e+08
1.0585e+08
1.05914e+08
1.06013e+08
1.06173e+08
1.0642e+08
1.06784e+08
1.07299e+08
1.08002e+08
1.08937e+08
1.10148e+08
1.11683e+08
1.13592e+08
1.15926e+08
1.18732e+08
1.22057e+08
1.25943e+08
1.30427e+08
1.35544e+08
1.41319e+08
1.47769e+08
1.54901e+08
1.62716e+08
1.71207e+08
1.80356e+08
1.90146e+08
2.00545e+08
2.11517e+08
2.23015e+08
2.35008e+08
2.47447e+08
2.60284e+08
2.73457e+08
2.86911e+08
3.00576e+08
3.14372e+08
3.28211e+08
3.41996e+08
3.55609e+08
3.68907e+08
3.81739e+08
3.93932e+08
4.05275e+08
4.15559e+08
4.24575e+08
4.32101e+08
4.37908e+08
4.41777e+08
4.43536e+08
4.43063e+08
4.40232e+08
4.34985e+08
4.27329e+08
4.17382e+08
4.05312e+08
3.91383e+08
3.75838e+08
3.59004e+08
3.41121e+08
3.22487e+08
3.03345e+08
2.83918e+08
3.88177e+07
3.87957e+07
3.87331e+07
3.86298e+07
3.8486e+07
3.83016e+07
3.80765e+07
3.78104e+07
3.75032e+07
3.71553e+07
3.67667e+07
3.63377e+07
3.5869e+07
3.53611e+07
3.48148e+07
3.42312e+07
3.36113e+07
3.29566e+07
3.22682e+07
3.15476e+07
3.07964e+07
3.0016e+07
2.92083e+07
2.83751e+07
2.75187e+07
2.66413e+07
2.57452e+07
2.48328e+07
2.39063e+07
2.29684e+07
2.20214e+07
2.1068e+07
2.01108e+07
1.91527e+07
1.81966e+07
1.72456e+07
1.63028e+07
1.53717e+07
1.44557e+07
1.35586e+07
1.26842e+07
1.18366e+07
1.10202e+07
1.02393e+07
9.49873e+06
8.80323e+06
8.15784e+06
7.5677e+06
7.03799e+06
6.57404e+06
6.1811e+06
5.86444e+06
5.6293e+06
5.48078e+06
5.42378e+06
5.463e+06
5.6028e+06
5.84713e+06
6.19953e+06
6.66305e+06
7.24013e+06
7.93263e+06
8.74178e+06
9.66811e+06
1.07114e+07
1.18708e+07
1.31447e+07
1.45308e+07
1.60262e+07
1.76274e+07
1.93306e+07
2.1131e+07
2.30236e+07
2.5003e+07
2.70634e+07
2.91987e+07
3.14027e+07
3.36689e+07
3.59906e+07
3.83611e+07
4.07733e+07
4.32202e+07
4.56946e+07
4.81889e+07
5.06959e+07
5.32077e+07
5.57163e+07
5.82138e+07
6.06917e+07
6.31415e+07
6.55546e+07
6.79219e+07
7.02346e+07
7.24838e+07
7.46609e+07
7.67576e+07
7.87661e+07
8.06795e+07
8.2491e+07
8.41953e+07
8.57877e+07
8.72651e+07
8.86254e+07
8.98682e+07
9.09944e+07
9.20047e+07
9.29008e+07
9.36863e+07
9.43652e+07
9.49421e+07
9.54229e+07
9.58141e+07
9.61221e+07
9.63552e+07
9.65226e+07
9.66335e+07
9.66977e+07
9.67266e+07
9.67322e+07
9.67286e+07
9.67318e+07
9.67623e+07
9.68402e+07
9.69903e+07
9.724e+07
9.76186e+07
9.81595e+07
9.89022e+07
9.98882e+07
1.01163e+08
1.02772e+08
1.04763e+08
1.07179e+08
1.10066e+08
1.13464e+08
1.17412e+08
1.2194e+08
1.27075e+08
1.32835e+08
1.39229e+08
1.4626e+08
1.53924e+08
1.62207e+08
1.71095e+08
1.80561e+08
1.90575e+08
2.01095e+08
2.12094e+08
2.23523e+08
2.35336e+08
2.47479e+08
2.59897e+08
2.72524e+08
2.85285e+08
2.98095e+08
3.10866e+08
3.23481e+08
3.35808e+08
3.4771e+08
3.59028e+08
3.69569e+08
3.79148e+08
3.87573e+08
3.94653e+08
4.00186e+08
4.03974e+08
4.05869e+08
4.05759e+08
4.03527e+08
3.9911e+08
3.9251e+08
3.83826e+08
3.73194e+08
3.60841e+08
3.46964e+08
3.31844e+08
3.1568e+08
2.98743e+08
2.81264e+08
2.63495e+08
3.49619e+07
3.49466e+07
3.48964e+07
3.48118e+07
3.46929e+07
3.45393e+07
3.43509e+07
3.41272e+07
3.38683e+07
3.35739e+07
3.32442e+07
3.28793e+07
3.24795e+07
3.2045e+07
3.15767e+07
3.1075e+07
3.05407e+07
2.99748e+07
2.9378e+07
2.87516e+07
2.80966e+07
2.74143e+07
2.6706e+07
2.59733e+07
2.52178e+07
2.44416e+07
2.36464e+07
2.28342e+07
2.20069e+07
2.11665e+07
2.03152e+07
1.94553e+07
1.85891e+07
1.77191e+07
1.68478e+07
1.59781e+07
1.51128e+07
1.4255e+07
1.34079e+07
1.25751e+07
1.17602e+07
1.09673e+07
1.02003e+07
9.46371e+06
8.76199e+06
8.09994e+06
7.48246e+06
6.9146e+06
6.40149e+06
5.94836e+06
5.56044e+06
5.24293e+06
5.00103e+06
4.83979e+06
4.76406e+06
4.77847e+06
4.88731e+06
5.09447e+06
5.40338e+06
5.81697e+06
6.33763e+06
6.96715e+06
7.70667e+06
8.55663e+06
9.51681e+06
1.05863e+07
1.17634e+07
1.3046e+07
1.44311e+07
1.59154e+07
1.74949e+07
1.91652e+07
2.09215e+07
2.27584e+07
2.46703e+07
2.66514e+07
2.86957e+07
3.07969e+07
3.29485e+07
3.51442e+07
3.73771e+07
3.96406e+07
4.19275e+07
4.42307e+07
4.6543e+07
4.88569e+07
5.11649e+07
5.34593e+07
5.57321e+07
5.79752e+07
6.01806e+07
6.23398e+07
6.44448e+07
6.64876e+07
6.84603e+07
7.03555e+07
7.21662e+07
7.38864e+07
7.55102e+07
7.70334e+07
7.84519e+07
7.97629e+07
8.09657e+07
8.206e+07
8.3047e+07
8.39278e+07
8.47044e+07
8.53802e+07
8.5959e+07
8.64453e+07
8.68444e+07
8.71615e+07
8.74019e+07
8.75728e+07
8.76825e+07
8.77393e+07
8.77515e+07
8.77286e+07
8.76812e+07
8.76209e+07
8.75623e+07
8.75224e+07
8.7519e+07
8.75734e+07
8.77103e+07
8.79562e+07
8.83409e+07
8.89002e+07
8.96716e+07
9.06966e+07
9.20174e+07
9.3677e+07
9.57179e+07
9.81828e+07
1.01112e+08
1.04541e+08
1.08502e+08
1.1302e+08
1.18116e+08
1.238e+08
1.30079e+08
1.36951e+08
1.44404e+08
1.52432e+08
1.61008e+08
1.70107e+08
1.79695e+08
1.89745e+08
2.00213e+08
2.1105e+08
2.22206e+08
2.33631e+08
2.4526e+08
2.57023e+08
2.68839e+08
2.80619e+08
2.92254e+08
3.03619e+08
3.14593e+08
3.25025e+08
3.34746e+08
3.43587e+08
3.51377e+08
3.57949e+08
3.63133e+08
3.66751e+08
3.68681e+08
3.68819e+08
3.67062e+08
3.63349e+08
3.5768e+08
3.50132e+08
3.4082e+08
3.29935e+08
3.17635e+08
3.04154e+08
2.89659e+08
2.74384e+08
2.5855e+08
2.4243e+08
3.14778e+07
3.14681e+07
3.14286e+07
3.13605e+07
3.12638e+07
3.11379e+07
3.09825e+07
3.07972e+07
3.05817e+07
3.03358e+07
3.00593e+07
2.97521e+07
2.94144e+07
2.90463e+07
2.86481e+07
2.82202e+07
2.77629e+07
2.72768e+07
2.67626e+07
2.62209e+07
2.56526e+07
2.50586e+07
2.44399e+07
2.37978e+07
2.31335e+07
2.24486e+07
2.17444e+07
2.10226e+07
2.02847e+07
1.95325e+07
1.87677e+07
1.79923e+07
1.72082e+07
1.64177e+07
1.56231e+07
1.48268e+07
1.40314e+07
1.32398e+07
1.2455e+07
1.16804e+07
1.09194e+07
1.01758e+07
9.45354e+06
8.75689e+06
8.09028e+06
7.45837e+06
6.866e+06
6.31812e+06
5.81978e+06
5.37612e+06
4.99233e+06
4.67356e+06
4.42495e+06
4.25152e+06
4.15806e+06
4.14911e+06
4.22887e+06
4.40114e+06
4.66925e+06
5.03601e+06
5.50371e+06
6.07404e+06
6.74803e+06
7.52607e+06
8.40785e+06
9.39237e+06
1.0478e+07
1.16625e+07
1.29429e+07
1.43158e+07
1.57775e+07
1.73237e+07
1.89495e+07
2.06498e+07
2.24192e+07
2.42521e+07
2.61425e+07
2.80844e+07
3.00716e+07
3.20979e+07
3.41569e+07
3.62419e+07
3.83464e+07
4.04632e+07
4.25857e+07
4.47065e+07
4.68186e+07
4.89145e+07
5.09869e+07
5.3028e+07
5.50305e+07
5.69867e+07
5.8889e+07
6.07304e+07
6.25037e+07
6.42023e+07
6.58202e+07
6.73521e+07
6.87933e+07
7.01402e+07
7.13896e+07
7.25394e+07
7.35891e+07
7.4539e+07
7.53904e+07
7.61447e+07
7.6804e+07
7.73714e+07
7.78505e+07
7.82458e+07
7.85617e+07
7.88024e+07
7.89729e+07
7.90794e+07
7.91287e+07
7.91281e+07
7.90849e+07
7.90071e+07
7.89041e+07
7.87857e+07
7.86649e+07
7.85559e+07
7.84741e+07
7.84377e+07
7.84685e+07
7.85907e+07
7.88313e+07
7.92216e+07
7.97955e+07
8.05897e+07
8.16431e+07
8.29964e+07
8.46892e+07
8.67619e+07
8.92535e+07
9.21993e+07
9.56302e+07
9.95723e+07
1.04048e+08
1.09071e+08
1.14648e+08
1.20782e+08
1.27467e+08
1.34695e+08
1.42446e+08
1.50699e+08
1.59424e+08
1.68594e+08
1.78169e+08
1.88102e+08
1.9834e+08
2.08837e+08
2.19533e+08
2.30356e+08
2.4123e+08
2.52062e+08
2.62753e+08
2.73186e+08
2.83248e+08
2.92801e+08
3.01698e+08
3.09783e+08
3.16905e+08
3.22916e+08
3.27682e+08
3.31038e+08
3.32893e+08
3.33158e+08
3.31741e+08
3.28592e+08
3.23706e+08
3.17143e+08
3.09001e+08
2.99438e+08
2.88583e+08
2.76622e+08
2.63698e+08
2.50006e+08
2.35755e+08
2.21229e+08
2.84754e+07
2.84699e+07
2.8439e+07
2.83848e+07
2.8307e+07
2.8205e+07
2.80782e+07
2.79262e+07
2.77485e+07
2.75447e+07
2.73144e+07
2.70575e+07
2.67739e+07
2.64633e+07
2.6126e+07
2.57619e+07
2.53713e+07
2.49544e+07
2.45115e+07
2.40431e+07
2.35496e+07
2.30318e+07
2.24905e+07
2.19264e+07
2.13407e+07
2.07344e+07
2.01087e+07
1.94647e+07
1.88038e+07
1.81274e+07
1.7437e+07
1.67342e+07
1.60207e+07
1.52985e+07
1.45696e+07
1.38363e+07
1.3101e+07
1.23662e+07
1.1635e+07
1.09103e+07
1.01955e+07
9.49423e+06
8.81035e+06
8.14796e+06
7.5114e+06
6.90524e+06
6.33424e+06
5.80327e+06
5.3173e+06
4.88142e+06
4.50075e+06
4.1804e+06
3.92545e+06
3.74084e+06
3.6313e+06
3.60125e+06
3.65485e+06
3.79577e+06
4.02724e+06
4.35193e+06
4.772e+06
5.28901e+06
5.90388e+06
6.61688e+06
7.42759e+06
8.33493e+06
9.33718e+06
1.04321e+07
1.16166e+07
1.28875e+07
1.42407e+07
1.56723e+07
1.71774e+07
1.8751e+07
2.03878e+07
2.20823e+07
2.38288e+07
2.56213e+07
2.74538e+07
2.93203e+07
3.12148e+07
3.31309e+07
3.50621e+07
3.70019e+07
3.89435e+07
4.08802e+07
4.28052e+07
4.47116e+07
4.65924e+07
4.84404e+07
5.02489e+07
5.20107e+07
5.37192e+07
5.53678e+07
5.69501e+07
5.84606e+07
5.98939e+07
6.12457e+07
6.25124e+07
6.36906e+07
6.47782e+07
6.57736e+07
6.66767e+07
6.74879e+07
6.82087e+07
6.88407e+07
6.93859e+07
6.98473e+07
7.02285e+07
7.05332e+07
7.07653e+07