/*--------------------------------*- C++ -*----------------------------------*\
| =========                 |                                                 |
| \\      /  F ield         | OpenFOAM: The Open Source CFD Toolbox           |
|  \\    /   O peration     | Version:  dev                                   |
|   \\  /    A nd           | Web:      http://www.openfoam.org               |
|    \\/     M anipulation  |                                                 |
\*---------------------------------------------------------------------------*/
FoamFile
{
    version     2.0;
    format      ascii;
    class       volScalarField;
    object      rho;
    location    "9.135";
}
// * * * * * * * * * * * * * * * * * * * * * * * * * * * * * * * * * * * * * //

dimensions      [1 -3 0 0 0 0 0];

internalField   nonuniform List<scalar> 
12225
(
1.03282
1.03651
1.03687
1.03914
1.04177
1.04516
1.04867
1.05272
1.05666
1.06118
1.06565
1.07027
1.07543
1.08021
1.08595
1.09324
1.10018
1.10674
1.03675
1.04028
1.04056
1.04477
1.04773
1.05311
1.05634
1.06214
1.06498
1.07082
1.07423
1.07887
1.08419
1.08865
1.09046
1.10808
1.10615
1.11891
1.03594
1.04026
1.04036
1.04567
1.04854
1.05483
1.0587
1.06546
1.06913
1.07627
1.07919
1.08556
1.0908
1.0941
1.09779
1.10673
1.11027
1.13063
1.03564
1.04057
1.04042
1.0461
1.04878
1.0546
1.05919
1.06527
1.06997
1.07723
1.08154
1.08825
1.09411
1.09636
1.10758
1.1039
1.11728
1.12459
1.03551
1.04054
1.04073
1.04602
1.04915
1.05426
1.0596
1.06421
1.07114
1.07435
1.08345
1.08751
1.09463
1.09711
1.10715
1.10525
1.11646
1.12414
1.03691
1.04009
1.041
1.04582
1.04976
1.05418
1.06139
1.06401
1.07204
1.07338
1.08468
1.08505
1.09509
1.0975
1.10659
1.10735
1.11241
1.12132
1.03801
1.04011
1.04202
1.04499
1.04993
1.05448
1.06185
1.0626
1.07177
1.0766
1.08371
1.08354
1.09401
1.09852
1.10374
1.10838
1.11329
1.11635
1.03863
1.04009
1.04306
1.04488
1.05166
1.05508
1.06053
1.0624
1.07153
1.07632
1.08221
1.08543
1.09314
1.09774
1.0997
1.10853
1.11098
1.11401
1.03946
1.04
1.04403
1.04461
1.05341
1.05296
1.05983
1.06359
1.07064
1.07314
1.08171
1.08661
1.09218
1.09664
1.09921
1.10551
1.1103
1.11168
1.03973
1.04012
1.04462
1.04405
1.05455
1.0508
1.06044
1.06519
1.06997
1.0738
1.08204
1.0861
1.09097
1.09464
1.10012
1.10387
1.10947
1.11145
1.04028
1.04112
1.0454
1.04446
1.05432
1.05161
1.06108
1.06434
1.07023
1.07514
1.08156
1.08331
1.08964
1.09352
1.09936
1.10297
1.10738
1.11008
1.04109
1.04261
1.04605
1.04567
1.05393
1.05277
1.06173
1.06373
1.06995
1.07453
1.08006
1.08227
1.0883
1.09276
1.0973
1.10067
1.10581
1.10748
1.04326
1.04448
1.04695
1.04734
1.05351
1.05403
1.06134
1.06382
1.06882
1.07389
1.07846
1.0813
1.08604
1.09092
1.09516
1.09746
1.10203
1.10464
1.04532
1.04584
1.04764
1.04917
1.05355
1.05552
1.06098
1.06379
1.06813
1.0728
1.07676
1.08027
1.08413
1.0886
1.09274
1.09494
1.09871
1.10146
1.0484
1.04845
1.04933
1.05128
1.0543
1.05719
1.06122
1.06412
1.06819
1.07174
1.07575
1.07926
1.08253
1.08671
1.09006
1.09264
1.096
1.0984
1.05184
1.05169
1.05214
1.05407
1.05623
1.05933
1.06223
1.06508
1.0686
1.07149
1.07552
1.07861
1.0817
1.08535
1.08803
1.09092
1.09368
1.09581
1.05602
1.0555
1.05579
1.05733
1.05907
1.06202
1.06425
1.06716
1.07024
1.073
1.07666
1.07923
1.08239
1.0853
1.08774
1.09057
1.09277
1.09509
1.06092
1.06014
1.06032
1.06157
1.06328
1.06596
1.06793
1.07113
1.07379
1.07663
1.07982
1.08208
1.08508
1.08735
1.08989
1.09239
1.0946
1.09705
1.06583
1.06438
1.06438
1.0659
1.06782
1.07019
1.07264
1.07591
1.07839
1.08147
1.08424
1.08671
1.08964
1.09191
1.09461
1.097
1.09931
1.10168
1.06977
1.06814
1.06828
1.0701
1.07229
1.07466
1.07757
1.08035
1.08334
1.08632
1.0892
1.09221
1.09488
1.09763
1.09997
1.10245
1.10461
1.10675
1.07311
1.07111
1.07155
1.07349
1.07608
1.0788
1.08169
1.08458
1.08805
1.09085
1.09448
1.09729
1.10039
1.10317
1.10536
1.1082
1.10989
1.11243
1.07573
1.07379
1.0744
1.07663
1.07928
1.08241
1.08536
1.08883
1.09197
1.09513
1.09878
1.10139
1.10514
1.10753
1.11043
1.11311
1.11496
1.11784
1.07758
1.07562
1.0766
1.07896
1.08165
1.08475
1.088
1.09151
1.09501
1.09861
1.10219
1.1054
1.10897
1.11153
1.11469
1.11702
1.11931
1.12183
1.0793
1.07749
1.07839
1.08076
1.08369
1.08685
1.09036
1.09405
1.09785
1.10152
1.10526
1.10864
1.11206
1.11493
1.11798
1.12031
1.12293
1.12495
1.08015
1.07812
1.07917
1.08194
1.08494
1.08825
1.09191
1.09563
1.09945
1.10323
1.10693
1.11034
1.11384
1.11676
1.11975
1.12236
1.12475
1.12704
1.08111
1.0791
1.08019
1.08293
1.086
1.08937
1.09297
1.09667
1.10057
1.10434
1.10813
1.11171
1.11521
1.11836
1.12145
1.12414
1.12664
1.1289
1.08164
1.07945
1.08046
1.08316
1.08636
1.08978
1.09348
1.0974
1.10142
1.1054
1.10929
1.11287
1.11636
1.11945
1.12242
1.12505
1.12742
1.12964
1.08194
1.07982
1.0811
1.08398
1.08723
1.0907
1.09448
1.09849
1.10261
1.10662
1.11044
1.11384
1.11699
1.11971
1.12216
1.12426
1.12619
1.12778
1.08261
1.08069
1.0816
1.08423
1.08742
1.09099
1.09477
1.09848
1.10196
1.10507
1.10784
1.11023
1.11244
1.11439
1.11617
1.11778
1.11937
1.12054
1.08267
1.08167
1.08195
1.0834
1.08543
1.08778
1.09023
1.09266
1.09506
1.09738
1.09963
1.10178
1.10388
1.10586
1.10775
1.10958
1.11122
1.1128
1.23591
1.26129
1.27458
1.28425
1.29211
1.29816
1.30274
1.30577
1.30762
1.30882
1.30935
1.30909
1.30858
1.30738
1.3049
1.30228
1.2998
1.29606
1.29128
1.28317
1.27196
1.26626
1.26976
1.27042
1.26094
1.25115
1.2441
1.23531
1.22376
1.21418
1.20904
1.20592
1.20316
1.20071
1.19845
1.19617
1.19373
1.19109
1.18824
1.18519
1.18198
1.17866
1.17524
1.17173
1.16806
1.16426
1.16029
1.15614
1.15183
1.1474
1.14287
1.13823
1.13355
1.12882
1.12407
1.1193
1.11456
1.10982
1.1051
1.10045
1.09585
1.09127
1.0868
1.08255
1.07853
1.07477
1.07133
1.06824
1.06542
1.06282
1.06037
1.05802
1.05579
1.05374
1.05198
1.05068
1.04972
1.04887
1.04818
1.04779
1.04801
1.04855
1.04902
1.04965
1.0504
1.05153
1.05256
1.055
1.06025
1.06793
1.07615
1.08183
1.0815
1.07684
1.0766
1.08399
1.09486
1.10549
1.11617
1.11456
1.10768
1.09508
1.06738
1.05362
1.05796
1.0634
1.06185
1.04473
1.02816
1.02961
1.0313
1.02498
1.01942
1.01612
1.01209
1.00723
1.00314
0.999044
0.983945
1.00252
1.00355
1.00328
1.02206
1.04298
1.04911
1.04985
1.05469
1.06121
1.06527
1.0659
1.06665
1.07048
1.07335
1.07501
1.07659
1.07819
1.07648
1.07344
1.07044
1.06722
1.06276
1.05645
1.05161
1.04759
1.04431
1.04126
1.03901
1.03782
1.03762
1.03873
1.03879
1.04035
1.0433
1.04612
1.05035
1.05721
1.0709
1.08197
1.09606
1.09798
1.07845
1.05386
1.03385
1.02603
1.02308
1.01904
1.01823
1.01839
1.01754
1.02119
1.02565
1.02526
1.01493
1.01718
0.998821
1.02549
1.03644
1.0391
1.04314
1.04608
1.23198
1.25515
1.26929
1.28136
1.29254
1.3003
1.3064
1.31116
1.31453
1.31718
1.31946
1.32127
1.32275
1.3225
1.31809
1.3139
1.31511
1.31626
1.31431
1.31466
1.30324
1.2931
1.31768
1.33762
1.30093
1.24893
1.22642
1.22028
1.21604
1.21316
1.21127
1.20924
1.20726
1.20501
1.20237
1.19964
1.19682
1.19418
1.19182
1.1896
1.18756
1.1854
1.18293
1.18018
1.17706
1.17358
1.1697
1.16556
1.16129
1.1569
1.15235
1.14764
1.14291
1.13821
1.13352
1.1288
1.12405
1.11931
1.1146
1.10989
1.10515
1.1005
1.09612
1.09206
1.08854
1.08539
1.08271
1.08074
1.07917
1.0781
1.0773
1.0768
1.07676
1.07645
1.07522
1.07333
1.07171
1.07105
1.0717
1.07235
1.07419
1.07661
1.07865
1.08189
1.08726
1.09316
1.0972
1.10052
1.10689
1.1151
1.11952
1.12091
1.12453
1.12498
1.12379
1.13392
1.14904
1.15657
1.185
1.20622
1.16147
1.11051
1.09191
1.0828
1.07114
1.04584
1.02378
1.01756
1.01714
1.01632
1.01064
1.00626
1.00353
1.00039
0.99965
1.00161
1.00093
0.995117
0.986533
1.02369
1.03213
1.00853
1.01679
1.04295
1.04972
1.0404
1.03613
1.04611
1.06441
1.08418
1.09848
1.11066
1.12094
1.12859
1.13287
1.13782
1.14016
1.1389
1.13575
1.13288
1.13087
1.12535
1.11866
1.11298
1.11035
1.1082
1.10516
1.10645
1.11043
1.11862
1.12952
1.13836
1.14785
1.16022
1.16537
1.1668
1.19727
1.25174
1.30983
1.32572
1.28333
1.18802
1.1143
1.08192
1.06095
1.05742
1.04393
1.02704
1.03463
1.04913
1.04415
1.003
0.968653
1.00302
0.951788
1.0148
1.05487
1.04589
1.05581
1.07078
1.22414
1.24203
1.25901
1.27408
1.28431
1.28884
1.29224
1.29389
1.29475
1.29691
1.29737
1.2985
1.29907
1.29472
1.28719
1.28457
1.2836
1.2851
1.30029
1.31566
1.30741
1.27809
1.2463
1.2245
1.21731
1.2136
1.21079
1.20907
1.2079
1.20679
1.20559
1.20455
1.20267
1.20167
1.2
1.19831
1.19715
1.19558
1.19467
1.19346
1.19135
1.18862
1.18527
1.18127
1.17708
1.17239
1.16759
1.16283
1.15828
1.154
1.14946
1.14478
1.14022
1.13579
1.13137
1.12657
1.12152
1.11623
1.1112
1.10605
1.10112
1.09642
1.09216
1.088
1.08477
1.08108
1.07722
1.07389
1.07088
1.06936
1.06893
1.07015
1.07338
1.07687
1.07681
1.0695
1.06181
1.06072
1.06547
1.06825
1.07188
1.07214
1.06813
1.06601
1.07643
1.09481
1.10984
1.11504
1.11278
1.10915
1.10081
1.08637
1.08141
1.09195
1.10664
1.13316
1.16567
1.17306
1.15995
1.15005
1.12903
1.10566
1.08782
1.07014
1.04542
1.01943
1.01652
1.03093
1.04165
1.04712
1.04944
1.04966
1.04529
1.03639
1.03507
1.03436
1.02695
1.01129
1.01704
1.04716
1.08276
1.04218
1.02172
1.02078
1.04423
1.04457
1.01959
1.01193
1.03278
1.06164
1.0828
1.10195
1.11899
1.13411
1.14524
1.14967
1.14843
1.14542
1.14381
1.13586
1.12939
1.12754
1.12879
1.12925
1.12973
1.13199
1.13025
1.12927
1.13175
1.13566
1.14236
1.15323
1.1789
1.21014
1.21542
1.21791
1.25423
1.33758
1.4028
1.36683
1.2758
1.17944
1.12436
1.08456
1.07479
1.06348
1.02219
1.01527
1.04724
1.06001
1.02824
0.960148
0.938538
1.01541
1.00752
0.990004
1.03405
1.01742
0.998737
1.01256
1.22186
1.24625
1.27515
1.29638
1.30181
1.29765
1.29256
1.28573
1.2781
1.27589
1.27311
1.26976
1.26882
1.26787
1.2709
1.27319
1.27844
1.28303
1.27814
1.26188
1.24065
1.2231
1.2131
1.20839
1.20627
1.20753
1.20883
1.20976
1.2113
1.21369
1.21444
1.21502
1.21518
1.21401
1.21377
1.21237
1.21046
1.20865
1.20547
1.20277
1.19978
1.19587
1.19166
1.18695
1.18205
1.17722
1.17246
1.1678
1.16321
1.15872
1.15419
1.14936
1.144
1.13843
1.13263
1.12609
1.11948
1.11279
1.10658
1.10054
1.09535
1.09149
1.08798
1.08463
1.08361
1.08244
1.08093
1.07832
1.07212
1.06531
1.06025
1.05837
1.05906
1.06196
1.06582
1.05962
1.04481
1.0419
1.04977
1.05077
1.05173
1.05197
1.05096
1.05011
1.05184
1.06478
1.08248
1.0958
1.10352
1.11656
1.12104
1.11653
1.10276
1.08419
1.08976
1.13367
1.15542
1.14519
1.13457
1.12939
1.11714
1.1013
1.08573
1.06645
1.03653
1.01673
1.02799
1.04877
1.06439
1.07167
1.07333
1.06811
1.05695
1.04407
1.04348
1.03558
1.01719
0.998796
1.0078
1.05128
1.10013
1.03247
1.01365
1.04416
1.09361
1.0997
1.06152
1.03818
1.0502
1.06122
1.06085
1.07565
1.09914
1.11842
1.1336
1.13636
1.12854
1.12176
1.12405
1.11194
1.09966
1.09453
1.09939
1.10814
1.11617
1.12374
1.13048
1.13549
1.13281
1.13558
1.14156
1.13662
1.16093
1.21114
1.22412
1.23734
1.28569
1.38463
1.41038
1.31171
1.21016
1.14301
1.11124
1.08187
1.07433
1.05285
1.01696
1.05288
1.08566
1.07762
1.02265
0.992144
0.999539
1.03269
1.07106
0.988807
1.01338
1.04262
1.01555
0.991392
1.2218
1.25216
1.28507
1.29681
1.28361
1.26405
1.25294
1.24571
1.2373
1.24179
1.24566
1.24377
1.24917
1.25423
1.25434
1.25259
1.25172
1.24491
1.23702
1.22993
1.22455
1.22044
1.21869
1.22103
1.22459
1.22753
1.23
1.23106
1.23104
1.22897
1.22691
1.22319
1.21974
1.21589
1.21122
1.20744
1.20307
1.19928
1.19578
1.1917
1.18841
1.18497
1.18123
1.17806
1.17394
1.17035
1.16692
1.16323
1.15959
1.15518
1.15012
1.14436
1.13786
1.13102
1.12386
1.11617
1.10857
1.10169
1.09633
1.09085
1.08521
1.08097
1.07662
1.07194
1.06887
1.06686
1.06746
1.07027
1.07131
1.06898
1.06171
1.05875
1.06145
1.06211
1.05688
1.05344
1.04758
1.04003
1.04079
1.04118
1.04093
1.03813
1.03207
1.03415
1.03478
1.04078
1.05343
1.0702
1.08251
1.09257
1.10344
1.1138
1.0937
1.07222
1.08865
1.13852
1.15365
1.13639
1.12807
1.12362
1.11189
1.09922
1.08895
1.06925
1.03892
1.02539
1.04062
1.06174
1.07591
1.08267
1.08178
1.07501
1.06495
1.05793
1.06066
1.04582
1.01932
1.00403
1.01385
1.08314
1.11037
1.06313
1.08321
1.11304
1.11176
1.10427
1.09033
1.07132
1.07106
1.07223
1.06127
1.06817
1.09069
1.10527
1.11367
1.11328
1.10629
1.09874
1.10438
1.09589
1.08497
1.07553
1.07213
1.07529
1.08841
1.1007
1.11161
1.12956
1.1218
1.11661
1.12968
1.11451
1.12827
1.18965
1.20696
1.22851
1.29664
1.40027
1.38001
1.24967
1.16282
1.12378
1.09923
1.07707
1.06707
1.03632
1.01462
1.06351
1.07358
1.0768
1.0532
1.01765
1.02246
0.986607
1.01808
0.992482
0.997598
1.04705
1.0784
1.06578
1.22161
1.25431
1.2812
1.2727
1.24416
1.22912
1.23806
1.24437
1.23721
1.24702
1.24805
1.23828
1.24622
1.24696
1.23981
1.23532
1.23074
1.22429
1.22011
1.21413
1.2117
1.21216
1.2163
1.21849
1.22052
1.22148
1.22196
1.21942
1.21686
1.21385
1.21045
1.20705
1.20329
1.20037
1.19617
1.19393
1.19196
1.1892
1.18763
1.18534
1.18262
1.17962
1.17619
1.17288
1.16873
1.16434
1.16021
1.15643
1.15217
1.14779
1.14364
1.13925
1.13467
1.1299
1.12479
1.11906
1.1136
1.10799
1.10275
1.09788
1.0933
1.08866
1.08293
1.07762
1.07179
1.06507
1.05756
1.05365
1.05185
1.05707
1.051
1.04411
1.05099
1.06658
1.07203
1.06563
1.06034
1.05249
1.04509
1.03681
1.03498
1.03369
1.02951
1.03228
1.03224
1.03929
1.05552
1.07332
1.07119
1.06073
1.07776
1.10399
1.0848
1.08237
1.12031
1.15576
1.15055
1.13278
1.12703
1.11806
1.10486
1.09504
1.08694
1.0708
1.05222
1.0531
1.07072
1.08767
1.09486
1.09507
1.08565
1.07542
1.05959
1.04797
1.04345
1.03021
1.01305
0.998457
0.996575
1.06039
1.13698
1.1082
1.11873
1.11059
1.09119
1.07605
1.06624
1.06117
1.07183
1.09209
1.09154
1.09034
1.10404
1.10498
1.10164
1.1041
1.1038
1.0903
1.10082
1.09806
1.08659
1.07554
1.06629
1.05677
1.06659
1.08182
1.09103
1.12259
1.11578
1.09639
1.11168
1.0889
1.08819
1.15922
1.17971
1.20279
1.28931
1.39465
1.34516
1.20583
1.13624
1.11812
1.0975
1.07463
1.05853
1.01849
1.0165
1.04963
1.03864
1.04077
1.04104
1.01994
1.04304
1.01523
1.03224
1.02645
1.02056
1.03812
1.06499
1.11956
1.21897
1.24975
1.2703
1.25526
1.23944
1.24436
1.2441
1.23325
1.2312
1.24131
1.24542
1.2385
1.23521
1.22548
1.21899
1.22005
1.2164
1.21562
1.2163
1.21981
1.22482
1.22893
1.22878
1.22975
1.22998
1.22909
1.22525
1.22006
1.21569
1.21264
1.2091
1.20838
1.20595
1.20422
1.20356
1.20259
1.20289
1.20267
1.20157
1.20021
1.19848
1.19553
1.19213
1.1876
1.18241
1.17656
1.16966
1.16353
1.15748
1.15187
1.14644
1.14143
1.13629
1.13163
1.12689
1.12134
1.11568
1.10938
1.1037
1.09803
1.09236
1.08825
1.08353
1.07866
1.07419
1.07168
1.06585
1.06196
1.05077
1.05151
1.05763
1.04587
1.04101
1.05437
1.06846
1.06538
1.0531
1.04434
1.04056
1.03819
1.03549
1.02494
1.02092
1.03167
1.0411
1.0585
1.07344
1.07311
1.05141
1.04497
1.07844
1.09834
1.0712
1.08986
1.13634
1.15542
1.14149
1.13024
1.12962
1.11644
1.10181
1.09688
1.09448
1.08738
1.08144
1.08472
1.09187
1.09231
1.08771
1.07355
1.05623
1.04914
1.03662
1.0351
1.0383
1.04434
1.03811
1.01615
1.00715
1.04765
1.14736
1.1203
1.09028
1.08572
1.07745
1.08514
1.05088
1.04927
1.07698
1.10889
1.1187
1.11645
1.11531
1.1006
1.09891
1.10716
1.10303
1.0679
1.0881
1.08976
1.06786
1.05441
1.05375
1.046
1.05344
1.06698
1.06904
1.11427
1.11373
1.08255
1.09674
1.06487
1.04418
1.12244
1.14839
1.17104
1.27029
1.3813
1.31916
1.1794
1.12382
1.11441
1.10129
1.08842
1.06538
1.01632
1.02725
1.04877
1.04664
1.03768
1.01315
1.03112
1.0995
1.09639
1.07183
1.05419
1.0715
1.06867
1.04821
1.11665
1.21606
1.24743
1.27073
1.25638
1.23913
1.23954
1.24304
1.23959
1.23658
1.23501
1.22819
1.21953
1.21999
1.22607
1.22945
1.23838
1.23603
1.24075
1.24171
1.24021
1.23677
1.23637
1.23561
1.2378
1.23559
1.23199
1.22785
1.22437
1.22033
1.21826
1.21574
1.21365
1.21204
1.21047
1.21038
1.2101
1.21051
1.21183
1.21188
1.2111
1.21096
1.20953
1.20756
1.20431
1.20008
1.19505
1.18801
1.18013
1.17117
1.16216
1.15275
1.14456
1.13618
1.12851
1.12211
1.11526
1.10972
1.10397
1.09968
1.09532
1.09127
1.08705
1.08335
1.07861
1.07209
1.06807
1.06304
1.0601
1.05536
1.04451
1.0572
1.05594
1.04335
1.04739
1.05541
1.0504
1.03992
1.03429
1.03279
1.03645
1.03457
1.01699
1.00679
1.01356
1.02837
1.04647
1.05399
1.05085
1.03901
1.04964
1.08411
1.08432
1.05077
1.08389
1.13834
1.14877
1.13474
1.13135
1.1389
1.13039
1.11567
1.10332
1.0969
1.09385
1.09319
1.08877
1.08393
1.07665
1.06894
1.05329
1.04242
1.04432
1.03955
1.04165
1.03562
1.03626
1.03486
1.03253
1.02366
1.03156
1.11586
1.13989
1.0518
1.06565
1.05295
1.09098
1.08164
1.08331
1.10406
1.12308
1.13454
1.12701
1.10939
1.08636
1.0972
1.12102
1.09537
1.03854
1.06961
1.06886
1.02575
1.00891
1.02338
1.03251
1.0427
1.04859
1.03824
1.09505
1.10615
1.07053
1.0863
1.04997
1.00658
1.08626
1.11797
1.13764
1.24469
1.36432
1.29935
1.16053
1.11599
1.10902
1.09437
1.10778
1.09461
1.04594
1.05613
1.06974
1.09179
1.08331
1.05475
1.04494
1.12886
1.10635
1.08291
1.05116
1.06544
1.05624
1.04644
1.08941
1.21037
1.23661
1.26379
1.26054
1.24182
1.23661
1.24075
1.24448
1.23748
1.23098
1.22059
1.22154
1.22734
1.2361
1.23539
1.23629
1.2347
1.23543
1.23632
1.23756
1.24052
1.24029
1.23638
1.23333
1.2296
1.22693
1.22389
1.21922
1.21527
1.21235
1.21057
1.2101
1.21162
1.21391
1.21673
1.22036
1.22275
1.22438
1.22586
1.22554
1.22431
1.22192
1.21913
1.2158
1.21244
1.20929
1.20566
1.20152
1.19594
1.1895
1.1818
1.17287
1.16252
1.15059
1.14008
1.1303
1.12277
1.11568
1.11075
1.10614
1.10201
1.09532
1.08905
1.08391
1.07785
1.07156
1.06919
1.0602
1.05881
1.04645
1.04602
1.05217
1.03967
1.03749
1.04667
1.0487
1.04381
1.03992
1.03808
1.03797
1.03726
1.02523
1.00883
0.995808
1.00601
1.03216
1.04166
1.05066
1.06586
1.08413
1.09237
1.07196
1.05039
1.09381
1.14282
1.14173
1.13003
1.13514
1.14572
1.13909
1.11951
1.09918
1.08942
1.08636
1.0819
1.07054
1.06406
1.06121
1.05649
1.04858
1.04393
1.04636
1.04074
1.03895
1.02965
1.03048
1.0444
1.05551
1.03184
1.02918
1.0875
1.11805
1.00847
1.05024
1.05562
1.06945
1.08628
1.09744
1.11647
1.12032
1.1225
1.12083
1.09531
1.08134
1.11844
1.13322
1.06802
1.01997
1.06375
1.04219
0.986869
0.97
0.989727
1.01704
1.02658
1.01044
0.991198
1.06114
1.08826
1.05454
1.07745
1.04831
0.982349
1.05394
1.09007
1.10527
1.21862
1.34642
1.28324
1.14371
1.10655
1.10144
1.07613
1.11161
1.12154
1.0677
1.06814
1.07807
1.12912
1.13007
1.12098
1.08044
1.12016
1.08607
1.07776
1.05648
1.02821
1.03449
1.0484
1.08525
1.20381
1.22404
1.2529
1.26449
1.24499
1.23678
1.23717
1.24281
1.23348
1.22798
1.22662
1.22985
1.23791
1.24241
1.24048
1.24265
1.24435
1.24096
1.24227
1.23368
1.22764
1.2244
1.22373
1.22537
1.22491
1.22282
1.2214
1.21897
1.21817
1.21897
1.22145
1.2253
1.22854
1.23189
1.23258
1.23266
1.23244
1.23038
1.22807
1.22485
1.22075
1.21587
1.21079
1.20604
1.20227
1.19958
1.19781
1.19647
1.1944
1.191
1.18709
1.18326
1.1799
1.17471
1.16644
1.15588
1.14387
1.13151
1.11939
1.10902
1.101
1.09502
1.08862
1.08215
1.07865
1.07051
1.06737
1.06121
1.05717
1.05401
1.0473
1.05201
1.04381
1.03373
1.03731
1.04752
1.04924
1.04366
1.03691
1.0326
1.0327
1.02985
1.02415
1.00436
1.00017
1.03667
1.06186
1.07055
1.07647
1.08205
1.07745
1.06239
1.05961
1.10856
1.14638
1.13473
1.12546
1.13273
1.1408
1.13199
1.11084
1.09245
1.08927
1.09061
1.08197
1.06985
1.0666
1.0623
1.05782
1.05707
1.05922
1.06821
1.06605
1.06624
1.05859
1.04409
1.03494
1.04674
1.05275
1.03467
1.05604
1.06617
0.98068
1.0498
1.07495
1.09293
1.08615
1.092
1.11415
1.11468
1.12045
1.12546
1.09228
1.10581
1.15517
1.09262
1.0292
1.00776
1.0456
1.00631
0.975561
0.966893
0.981939
1.01225
0.997925
0.954592
0.939359
1.02162
1.05969
1.03062
1.06738
1.05058
0.969465
1.02972
1.06618
1.07641
1.19265
1.32965
1.26796
1.12841
1.09462
1.08881
1.06044
1.09551
1.12251
1.06498
1.06099
1.07858
1.16181
1.18233
1.20205
1.17762
1.16507
1.15261
1.13658
1.09345
1.03023
1.05425
1.06349
1.1116
1.19852
1.21523
1.23934
1.26006
1.24876
1.23657
1.22989
1.22519
1.2225
1.21748
1.22701
1.24495
1.25141
1.23978
1.23409
1.23958
1.24864
1.24219
1.23907
1.23748
1.2391
1.23987
1.23589
1.23367
1.23129
1.22796
1.22618
1.22578
1.22714
1.22905
1.22999
1.23077
1.22844
1.22601
1.22333
1.22099
1.2205
1.2204
1.22002
1.2186
1.21649
1.21366
1.21
1.20573
1.20101
1.19631
1.19255
1.18936
1.18657
1.18277
1.17745
1.17128
1.16736
1.16765
1.16827
1.16714
1.16142
1.15091
1.13709
1.12235
1.11015
1.10126
1.09722
1.08924
1.08296
1.07794
1.07088
1.06615
1.05847
1.05358
1.04823
1.05064
1.05497
1.04518
1.03504
1.03663
1.0403
1.03702
1.03181
1.03176
1.03724
1.02834
1.02419
1.01404
1.00015
1.03757
1.07815
1.08162
1.06894
1.06542
1.06608
1.06659
1.07803
1.12471
1.15243
1.13118
1.12441
1.12901
1.13098
1.12215
1.11053
1.10623
1.11065
1.11351
1.09827
1.08842
1.07869
1.06399
1.06556
1.06866
1.07608
1.0861
1.08069
1.07546
1.0638
1.04728
1.03354
1.03733
1.04429
1.01371
1.03086
1.03857
0.967708
1.03182
1.06026
1.12557
1.11482
1.09911
1.11747
1.12969
1.13402
1.12178
1.09385
1.12458
1.11034
1.02317
1.00186
0.999728
0.997154
0.974311
0.993143
0.994484
0.995017
1.01117
0.975827
0.93101
0.917837
0.992451
1.02601
0.995928
1.0528
1.04993
0.957002
1.01002
1.04681
1.05263
1.17021
1.31519
1.25223
1.1178
1.08097
1.07142
1.04978
1.07289
1.09688
1.05604
1.05924
1.08905
1.17931
1.21647
1.24122
1.24071
1.22231
1.19275
1.14844
1.12133
1.05537
1.0711
1.07743
1.12656
1.19372
1.20905
1.2306
1.25365
1.25305
1.23412
1.2225
1.21893
1.22858
1.24525
1.26083
1.25149
1.2172
1.21028
1.24578
1.25558
1.24309
1.24131
1.2446
1.23827
1.22763
1.22651
1.22805
1.22928
1.22848
1.22716
1.22744
1.22846
1.22996
1.23021
1.22719
1.22384
1.22008
1.21795
1.21852
1.22124
1.22538
1.22885
1.2305
1.23013
1.22834
1.22594
1.22317
1.21973
1.21594
1.21108
1.20621
1.2001
1.19491
1.19004
1.18509
1.17706
1.16547
1.1557
1.15324
1.15517
1.16015
1.16111
1.15545
1.142
1.12737
1.11113
1.09839
1.09335
1.08642
1.08177
1.07499
1.06929
1.06854
1.06458
1.06063
1.04855
1.04829
1.05023
1.0433
1.03412
1.03407
1.03585
1.03547
1.03252
1.0428
1.03548
1.02352
1.01858
0.992135
1.00796
1.0643
1.08328
1.06416
1.05907
1.06821
1.0804
1.10118
1.13977
1.16053
1.13232
1.12388
1.12967
1.13195
1.12711
1.11748
1.1123
1.11043
1.10363
1.08619
1.08095
1.06773
1.05839
1.0686
1.07313
1.08257
1.09199
1.0897
1.08831
1.08205
1.07569
1.06042
1.04256
1.03695
1.02905
1.01193
1.04414
0.981323
1.00773
1.05192
1.12222
1.14983
1.12606
1.12996
1.1427
1.14272
1.11883
1.0804
1.10486
1.02906
0.994421
0.978223
0.994358
0.977667
0.985857
1.03659
1.03668
0.999733
0.988478
0.978711
0.96378
0.940022
0.985108
0.983129
0.953566
1.03483
1.04304
0.94163
0.992887
1.02989
1.03115
1.15149
1.30273
1.24033
1.10939
1.07064
1.05412
1.04225
1.05996
1.06369
1.04975
1.05725
1.10404
1.18985
1.21555
1.25447
1.26349
1.24494
1.19596
1.14576
1.12638
1.07315
1.06789
1.08314
1.10435
1.18934
1.20475
1.22317
1.23734
1.24492
1.24783
1.24488
1.23732
1.2267
1.22118
1.21646
1.20543
1.21701
1.23486
1.23208
1.22902
1.24013
1.24197
1.22947
1.22839
1.23442
1.23632
1.23348
1.23075
1.22821
1.22651
1.22766
1.23001
1.23062
1.22896
1.22484
1.22063
1.2187
1.21982
1.22324
1.22729
1.23028
1.2309
1.22917
1.2261
1.22264
1.2192
1.2163
1.21223
1.20768
1.20378
1.20186
1.19939
1.1938
1.1881
1.18459
1.18556
1.18269
1.17177
1.15604
1.1461
1.14456
1.14698
1.1525
1.14961
1.13307
1.11971
1.10517
1.09494
1.08782
1.08296
1.08118
1.07301
1.06957
1.06119
1.06362
1.06387
1.05486
1.04863
1.04984
1.04435
1.03845
1.03651
1.03963
1.03198
1.0379
1.03786
1.023
1.02605
1.00918
1.00247
1.05338
1.08958
1.07186
1.06517
1.07855
1.09927
1.1217
1.15286
1.1658
1.13616
1.1222
1.12791
1.13628
1.13917
1.12575
1.10506
1.09041
1.08102
1.07355
1.07672
1.06965
1.07699
1.08823
1.09564
1.10395
1.11016
1.1058
1.10118
1.09247
1.08762
1.07425
1.05865
1.04942
1.06184
1.02304
1.03846
1.0162
0.980691
1.0277
1.09081
1.16349
1.14625
1.14857
1.15841
1.14909
1.10884
1.05046
1.04831
1.00212
0.996737
0.963233
1.00496
1.02132
1.04911
1.11046
1.10076
1.01624
0.973413
1.01156
1.02909
0.983968
0.985293
0.930212
0.914824
1.01811
1.03093
0.921453
0.976339
1.01606
1.01332
1.13411
1.2911
1.23082
1.10373
1.06972
1.04348
1.04023
1.0614
1.05004
1.05387
1.07079
1.12408
1.20044
1.21062
1.23085
1.26625
1.27604
1.24869
1.19605
1.16847
1.10594
1.07138
1.09186
1.07296
1.18307
1.19319
1.20101
1.2007
1.19961
1.20236
1.20777
1.2145
1.2233
1.22908
1.22859
1.22949
1.23006
1.22149
1.22473
1.23045
1.23281
1.2426
1.23893
1.22604
1.22434
1.23275
1.23621
1.23239
1.22826
1.2272
1.22997
1.23311
1.23253
1.22798
1.22061
1.21585
1.21582
1.21848
1.22213
1.22491
1.2266
1.22645
1.2247
1.22254
1.22108
1.22011
1.22008
1.21996
1.21442
1.20649
1.19826
1.19517
1.19466
1.18914
1.1776
1.17089
1.17536
1.17983
1.17655
1.16163
1.15061
1.15209
1.15178
1.15292
1.14349
1.12802
1.11172
1.10061
1.09969
1.09387
1.08925
1.08038
1.07868
1.07804
1.064
1.06176
1.06652
1.05685
1.05211
1.05279
1.04933
1.04241
1.04202
1.0322
1.03369
1.04272
1.03024
1.02637
1.01646
1.001
1.04038
1.09371
1.08475
1.07418
1.08943
1.11711
1.13822
1.16618
1.16534
1.13551
1.12232
1.1249
1.13448
1.13789
1.12534
1.09546
1.07992
1.07613
1.07782
1.08556
1.08404
1.09413
1.0997
1.0961
1.08979
1.09212
1.10131
1.10456
1.09623
1.09626
1.09833
1.08444
1.0572
1.08576
1.06133
1.03026
1.05165
0.992836
1.00551
1.03509
1.14516
1.16254
1.16423
1.16843
1.13945
1.07324
1.02585
1.00059
1.00327
1.00891
1.01293
1.04935
1.10951
1.15218
1.2124
1.20427
1.10339
1.02379
1.0806
1.11291
1.03866
0.973457
0.892358
0.895043
1.00799
1.01748
0.898257
0.961105
1.00466
0.998478
1.11963
1.27987
1.22506
1.1005
1.07163
1.04738
1.0469
1.07438
1.0703
1.08383
1.10967
1.1695
1.22481
1.21773
1.21798
1.24645
1.2671
1.26717
1.19686
1.16988
1.12356
1.07547
1.0975
1.06725
1.17573
1.17994
1.1839
1.18777
1.1916
1.19232
1.18918
1.19044
1.19152
1.18845
1.19664
1.20463
1.21233
1.22384
1.23139
1.22812
1.21952
1.21744
1.22511
1.23409
1.23118
1.21853
1.21083
1.2111
1.21733
1.22633
1.23245
1.23377
1.23043
1.22271
1.21536
1.21206
1.21255
1.21569
1.21968
1.22322
1.22573
1.22428
1.22082
1.21968
1.21802
1.2161
1.21275
1.21027
1.20825
1.20484
1.20161
1.19017
1.18503
1.1878
1.18978
1.17833
1.16998
1.17777
1.18195
1.17607
1.16008
1.15288
1.15564
1.15904
1.15316
1.13398
1.1186
1.10708
1.10409
1.09668
1.08991
1.09022
1.07406
1.07538
1.07519
1.06548
1.06691
1.06635
1.05759
1.05525
1.05206
1.04339
1.04318
1.03799
1.03517
1.04405
1.0402
1.03094
1.02512
1.00418
1.02302
1.08751
1.09379
1.08249
1.09822
1.13015
1.15006
1.17506
1.17087
1.13034
1.1209
1.12493
1.13343
1.1321
1.12149
1.09196
1.07785
1.08306
1.09006
1.09346
1.08478
1.0834
1.08149
1.07311
1.06851
1.06399
1.06873
1.08824
1.09608
1.09876
1.10606
1.10848
1.08076
1.08351
1.09068
1.04224
1.06761
1.03598
1.02767
0.999078
1.07795
1.14738
1.15598
1.14813
1.10389
1.03843
0.999448
0.982628
1.02491
1.06346
1.11472
1.12157
1.2032
1.28705
1.32312
1.29553
1.21725
1.14299
1.18395
1.20183
1.08647
0.959819
0.897043
0.900487
1.00245
0.999045
0.875934
0.947169
0.996133
0.986147
1.10634
1.2701
1.22365
1.09649
1.07253
1.05899
1.06164
1.09085
1.09886
1.12357
1.15856
1.22017
1.25538
1.21454
1.18672
1.20891
1.25249
1.28591
1.22637
1.17833
1.13713
1.08026
1.09377
1.0796
1.17089
1.17683
1.18374
1.19351
1.20017
1.20132
1.19656
1.19191
1.1881
1.18744
1.18769
1.18864
1.1916
1.18995
1.20759
1.23012
1.23496
1.23097
1.22711
1.22893
1.22612
1.2141
1.20692
1.20966
1.21819
1.2232
1.22117
1.21615
1.21219
1.21183
1.21313
1.2147
1.21775
1.2201
1.22131
1.22152
1.22026
1.21877
1.2155
1.21507
1.21453
1.21154
1.21226
1.20883
1.20044
1.18936
1.18882
1.18629
1.17173
1.16802
1.17255
1.17291
1.16215
1.16195
1.17804
1.18475
1.17479
1.15747
1.15487
1.16097
1.16561
1.1539
1.13756
1.12423
1.1099
1.11124
1.09966
1.09512
1.09072
1.08077
1.07551
1.07224
1.06651
1.06732
1.05991
1.05425
1.05288
1.04758
1.04697
1.04373
1.03774
1.04025
1.04514
1.03623
1.03338
1.01162
1.01054
1.08117
1.10319
1.09246
1.10611
1.13646
1.16111
1.17397
1.18177
1.13739
1.1252
1.13478
1.13896
1.12742
1.12031
1.09449
1.08428
1.08742
1.09802
1.09725
1.09129
1.08693
1.08411
1.07762
1.07449
1.06518
1.05745
1.07025
1.08319
1.08602
1.0899
1.11321
1.10935
1.08344
1.10338
1.07108
1.07094
1.06119
1.05292
1.01592
1.01728
1.09137
1.11287
1.10157
1.05012
1.01455
0.987163
1.01
1.1025
1.18058
1.19719
1.18177
1.28223
1.34734
1.38327
1.33351
1.2337
1.21395
1.25993
1.26127
1.10786
0.967448
0.942427
0.928994
0.99934
0.977105
0.863668
0.93707
0.992015
0.975971
1.09531
1.26211
1.22386
1.09709
1.07108
1.06702
1.07816
1.10608
1.12028
1.14863
1.18969
1.24505
1.23864
1.17333
1.14461
1.16548
1.21327
1.27647
1.25134
1.19518
1.15609
1.09375
1.09162
1.09276
1.16734
1.17666
1.18745
1.20248
1.2115
1.21067
1.20433
1.19512
1.19077
1.18527
1.18577
1.1835
1.18514
1.18388
1.17804
1.18487
1.19932
1.21362
1.22834
1.23156
1.22066
1.21272
1.21395
1.21996
1.22165
1.21627
1.21146
1.21307
1.21839
1.22026
1.21997
1.22037
1.22024
1.22036
1.21878
1.21603
1.21429
1.21238
1.21316
1.21677
1.21631
1.21161
1.2045
1.19653
1.1908
1.18717
1.18196
1.17682
1.16936
1.16287
1.16661
1.17523
1.17655
1.16863
1.17123
1.17879
1.17599
1.16168
1.15123
1.15484
1.16367
1.16819
1.15006
1.13496
1.12336
1.11411
1.11105
1.0992
1.09024
1.08463
1.07763
1.07598
1.07183
1.07277
1.06828
1.05986
1.05653
1.05027
1.04784
1.04689
1.04272
1.03901
1.04869
1.04552
1.04523
1.02587
0.999185
1.0564
1.10466
1.10052
1.11413
1.13991
1.17111
1.17442
1.18513
1.15125
1.13653
1.15046
1.14661
1.12479
1.11775
1.10273
1.09521
1.09423
1.10211
1.09755
1.095
1.0864
1.07134
1.05074
1.05293
1.05936
1.05005
1.05081
1.06809
1.08131
1.07276
1.0987
1.12883
1.10049
1.10198
1.11401
1.08457
1.08032
1.06905
1.05063
1.00989
1.0404
1.05759
1.0603
1.01436
0.994645
1.01217
1.0759
1.18743
1.28219
1.2507
1.25524
1.31192
1.22697
1.30684
1.36096
1.23768
1.20895
1.28353
1.28646
1.11061
0.989478
0.998289
0.968516
0.992955
0.953648
0.864482
0.933315
0.996061
0.967053
1.08575
1.25514
1.22653
1.09706
1.06886
1.06585
1.07989
1.11474
1.13154
1.15558
1.19163
1.23456
1.19246
1.1202
1.10119
1.12589
1.17784
1.25971
1.25781
1.18734
1.14835
1.10071
1.09329
1.09576
1.16486
1.17381
1.18498
1.19757
1.20274
1.19407
1.18193
1.17341
1.17491
1.17805
1.18073
1.18553
1.18996
1.1918
1.18674
1.18107
1.17935
1.18557
1.20576
1.2186
1.21668
1.21454
1.21987
1.22434
1.21814
1.21502
1.22242
1.22656
1.22213
1.21651
1.21434
1.21405
1.21615
1.21634
1.21433
1.21648
1.21523
1.21542
1.21583
1.21229
1.20285
1.19365
1.19195
1.18234
1.17482
1.17641
1.1732
1.15968
1.15134
1.15819
1.15733
1.14548
1.13753
1.14717
1.16567
1.17897
1.16736
1.14341
1.12457
1.12977
1.149
1.16133
1.16742
1.15289
1.14296
1.12846
1.12066
1.11266
1.10373
1.09378
1.08582
1.07907
1.07249
1.06756
1.06946
1.06534
1.06436