/*--------------------------------*- C++ -*----------------------------------*\
| =========                 |                                                 |
| \\      /  F ield         | OpenFOAM: The Open Source CFD Toolbox           |
|  \\    /   O peration     | Version:  dev                                   |
|   \\  /    A nd           | Web:      http://www.openfoam.org               |
|    \\/     M anipulation  |                                                 |
\*---------------------------------------------------------------------------*/
FoamFile
{
    version     2.0;
    format      ascii;
    class       volScalarField;
    object      rho_0;
    location    "9.135";
}
// * * * * * * * * * * * * * * * * * * * * * * * * * * * * * * * * * * * * * //

dimensions      [1 -3 0 0 0 0 0];

internalField   nonuniform List<scalar> 
12225
(
1.03221
1.03385
1.03372
1.03569
1.03798
1.0411
1.04423
1.04796
1.05149
1.05566
1.05977
1.06405
1.06888
1.07316
1.07882
1.08497
1.09191
1.09795
1.03486
1.03581
1.03584
1.0398
1.04243
1.04746
1.05033
1.05574
1.05825
1.06375
1.06691
1.07132
1.07644
1.08037
1.08288
1.09906
1.09689
1.11337
1.03398
1.03577
1.03567
1.04073
1.04326
1.04921
1.05271
1.05908
1.06244
1.06916
1.07182
1.07801
1.08281
1.08576
1.09029
1.09887
1.10308
1.12307
1.03363
1.03616
1.03581
1.04125
1.04355
1.04909
1.05327
1.05902
1.0634
1.07041
1.07435
1.08087
1.08616
1.08873
1.09901
1.09534
1.11037
1.11604
1.03364
1.03627
1.03623
1.04128
1.04401
1.04886
1.05372
1.05812
1.06457
1.06776
1.07655
1.08028
1.0869
1.08946
1.09869
1.09685
1.10911
1.11539
1.03517
1.03595
1.03665
1.04127
1.04478
1.04899
1.05564
1.05804
1.06552
1.06686
1.07778
1.07801
1.08782
1.08986
1.09877
1.0989
1.10497
1.11387
1.0364
1.03619
1.03782
1.04063
1.04519
1.04951
1.05625
1.05684
1.06588
1.07012
1.07657
1.07659
1.08732
1.09106
1.09646
1.10059
1.10568
1.10878
1.03728
1.03645
1.03908
1.04081
1.04714
1.05029
1.05519
1.05688
1.06591
1.07022
1.07561
1.07867
1.08638
1.09031
1.09278
1.10158
1.10333
1.1069
1.03828
1.03664
1.04034
1.04093
1.04913
1.0485
1.05496
1.05827
1.06497
1.0674
1.07576
1.08013
1.08554
1.08964
1.09231
1.09905
1.10292
1.10477
1.03887
1.03709
1.04131
1.0408
1.05058
1.04655
1.05616
1.06019
1.06459
1.06834
1.07636
1.08003
1.08461
1.0883
1.09358
1.09743
1.1028
1.10482
1.03989
1.03858
1.04256
1.04158
1.05091
1.04777
1.05718
1.05992
1.06551
1.07012
1.07605
1.07773
1.08397
1.08768
1.09341
1.09688
1.10123
1.10402
1.04131
1.04071
1.04388
1.04336
1.05122
1.04965
1.05842
1.05988
1.06593
1.07012
1.0752
1.07727
1.08333
1.08748
1.09188
1.09534
1.10026
1.10182
1.04435
1.04345
1.04568
1.04585
1.05169
1.0518
1.05887
1.06078
1.06565
1.07032
1.07445
1.07706
1.08185
1.0865
1.0904
1.09275
1.09735
1.09983
1.04758
1.04596
1.0476
1.04884
1.05291
1.05445
1.05959
1.06189
1.066
1.0703
1.07386
1.07709
1.08087
1.08519
1.08898
1.09108
1.0949
1.09755
1.05198
1.05006
1.05082
1.05248
1.05518
1.05764
1.06127
1.06372
1.06744
1.07063
1.07428
1.07744
1.08054
1.08452
1.08757
1.09001
1.09329
1.0956
1.05765
1.0554
1.05566
1.05729
1.0591
1.06175
1.06419
1.0666
1.06967
1.07219
1.07584
1.07852
1.08136
1.08473
1.08713
1.08983
1.09237
1.09439
1.06425
1.06187
1.06195
1.06316
1.06451
1.06699
1.06871
1.07113
1.0737
1.07601
1.07922
1.08134
1.08416
1.08669
1.08883
1.09138
1.0933
1.09543
1.07215
1.06959
1.06955
1.07046
1.07175
1.0739
1.07533
1.07798
1.08005
1.08237
1.08499
1.08674
1.08929
1.0911
1.09328
1.0954
1.0973
1.09943
1.0799
1.07685
1.07665
1.07782
1.07925
1.08109
1.08295
1.08561
1.08742
1.08991
1.09202
1.09392
1.09629
1.09803
1.10029
1.1022
1.10411
1.10609
1.08655
1.0833
1.08323
1.08469
1.08636
1.08816
1.09043
1.09256
1.09485
1.09715
1.09934
1.10169
1.10372
1.10586
1.10766
1.1096
1.11127
1.11296
1.09197
1.08849
1.08876
1.09034
1.09241
1.0945
1.09672
1.09892
1.10165
1.10375
1.10664
1.10872
1.11113
1.11321
1.1148
1.11701
1.11814
1.12018
1.09626
1.09299
1.09345
1.09531
1.09745
1.09994
1.1022
1.10494
1.10728
1.10971
1.11255
1.11444
1.11746
1.11908
1.12136
1.12332
1.1246
1.12685
1.09951
1.09627
1.09711
1.09908
1.10124
1.10372
1.10626
1.10902
1.11172
1.11454
1.1173
1.11973
1.1225
1.1243
1.12675
1.12834
1.13002
1.13185
1.10234
1.09927
1.10001
1.102
1.10439
1.10691
1.10971
1.11265
1.11564
1.1185
1.1214
1.12396
1.12657
1.12865
1.13094
1.13253
1.13447
1.13578
1.10389
1.10071
1.10162
1.104
1.10645
1.10913
1.11207
1.11501
1.11803
1.12098
1.12382
1.12641
1.12906
1.13117
1.13339
1.13522
1.1369
1.13847
1.10556
1.10227
1.10321
1.10558
1.10809
1.11081
1.11369
1.11661
1.11969
1.12261
1.12555
1.1283
1.13096
1.13329
1.13557
1.13748
1.13924
1.14076
1.10651
1.103
1.10386
1.10619
1.10884
1.11161
1.11458
1.11772
1.12091
1.12405
1.12706
1.12979
1.13243
1.13468
1.13686
1.13869
1.14031
1.14178
1.107
1.10361
1.10475
1.10726
1.10995
1.11276
1.11583
1.11906
1.12236
1.12551
1.12845
1.13097
1.13325
1.13511
1.13673
1.13803
1.13919
1.14001
1.10781
1.1046
1.10535
1.10762
1.11029
1.11322
1.11626
1.11916
1.12176
1.12398
1.12583
1.12732
1.12866
1.12974
1.1307
1.13153
1.13233
1.13277
1.1084
1.10612
1.10607
1.10705
1.10849
1.11015
1.11182
1.1134
1.11491
1.11633
1.11766
1.11892
1.12013
1.12126
1.12232
1.12334
1.12421
1.12509
1.23895
1.26459
1.27797
1.28771
1.29561
1.30167
1.30623
1.30922
1.31104
1.31219
1.31267
1.31237
1.31181
1.31052
1.30795
1.30527
1.30271
1.29884
1.2939
1.28559
1.27428
1.26855
1.27188
1.27205
1.2622
1.25222
1.24488
1.23567
1.22372
1.21385
1.20839
1.20487
1.20165
1.19871
1.19594
1.19314
1.19017
1.18699
1.18359
1.17999
1.17625
1.1724
1.16848
1.16448
1.16038
1.15618
1.15186
1.14741
1.14287
1.13826
1.13361
1.12892
1.12424
1.11959
1.11498
1.11043
1.10595
1.10154
1.0972
1.09298
1.08885
1.0848
1.08085
1.07716
1.07371
1.07053
1.06767
1.06516
1.06294
1.06094
1.05908
1.05732
1.05564
1.05413
1.05286
1.05203
1.05152
1.05111
1.05081
1.05077
1.05131
1.05217
1.05296
1.05387
1.05489
1.0563
1.05756
1.06011
1.06545
1.07333
1.08197
1.08831
1.0887
1.08438
1.08419
1.09179
1.10318
1.11454
1.12638
1.12583
1.11963
1.10774
1.0802
1.06648
1.07114
1.07705
1.0764
1.06012
1.04312
1.04418
1.04655
1.04074
1.03512
1.03184
1.02795
1.0231
1.01892
1.01481
0.999438
1.0183
1.01921
1.01919
1.03847
1.05912
1.06437
1.06438
1.06858
1.07431
1.0774
1.07695
1.07662
1.07937
1.08109
1.08163
1.08228
1.08306
1.08068
1.0772
1.07396
1.07071
1.06637
1.06044
1.05604
1.05251
1.04974
1.04718
1.04538
1.04455
1.04462
1.04596
1.0462
1.04791
1.051
1.05399
1.05831
1.06535
1.07952
1.09115
1.10569
1.10812
1.08902
1.06434
1.04452
1.03713
1.03454
1.03096
1.03066
1.03111
1.03057
1.03453
1.03939
1.03929
1.02909
1.03191
1.01397
1.04227
1.05424
1.0579
1.06307
1.06699
1.23486
1.25839
1.27265
1.2848
1.29604
1.3038
1.30989
1.31462
1.31794
1.32056
1.3228
1.32455
1.32591
1.32541
1.32079
1.31669
1.31798
1.31896
1.31701
1.31716
1.30533
1.29567
1.32064
1.33901
1.3009
1.24925
1.22712
1.22082
1.21627
1.21303
1.21075
1.20831
1.20589
1.2032
1.20008
1.19685
1.19348
1.19026
1.18731
1.1845
1.18188
1.1792
1.17624
1.17304
1.1695
1.16565
1.16145
1.15703
1.15251
1.14793
1.14327
1.13849
1.13375
1.1291
1.12454
1.12001
1.11552
1.11109
1.10676
1.10248
1.0982
1.09404
1.09016
1.0866
1.08359
1.08098
1.07883
1.0774
1.0764
1.07589
1.07567
1.07571
1.07623
1.07656
1.07599
1.07465
1.07346
1.07311
1.0741
1.07509
1.07721
1.07999
1.08235
1.08576
1.09132
1.09762
1.10213
1.10569
1.11215
1.12071
1.12565
1.12736
1.13147
1.13251
1.13143
1.14175
1.15765
1.16564
1.19494
1.218
1.1742
1.12335
1.10484
1.09619
1.08538
1.06045
1.03776
1.0313
1.03138
1.03123
1.02591
1.0215
1.0188
1.01558
1.01466
1.01666
1.01621
1.01049
1.0015
1.03976
1.0481
1.024
1.03272
1.05855
1.06431
1.05389
1.04893
1.05859
1.0766
1.09562
1.10883
1.11989
1.12902
1.13547
1.13871
1.14276
1.14433
1.1425
1.13907
1.13616
1.13423
1.12904
1.12279
1.11768
1.11563
1.11402
1.11144
1.11315
1.11746
1.1259
1.13706
1.14606
1.15578
1.16851
1.17363
1.17529
1.20676
1.26266
1.32123
1.33685
1.29387
1.19769
1.12431
1.09255
1.07199
1.06918
1.05568
1.03875
1.04689
1.06219
1.05785
1.01617
0.980841
1.01613
0.96502
1.03122
1.07225
1.06355
1.07511
1.09154
1.22672
1.245
1.26202
1.2771
1.28736
1.29192
1.29535
1.297
1.29788
1.30003
1.3004
1.30143
1.3017
1.297
1.28949
1.28701
1.28607
1.28788
1.30322
1.31777
1.30855
1.27901
1.24745
1.22567
1.21817
1.21445
1.21154
1.20954
1.20809
1.20668
1.20511
1.20371
1.20139
1.19989
1.19777
1.19552
1.1938
1.19165
1.19013
1.18843
1.18588
1.18271
1.17895
1.17454
1.16997
1.16493
1.15979
1.1547
1.14985
1.14537
1.14072
1.13598
1.1314
1.12702
1.12276
1.11823
1.1135
1.10855
1.10391
1.09919
1.09471
1.09044
1.08666
1.08298
1.08025
1.07717
1.07388
1.07112
1.06861
1.06753
1.06752
1.06907
1.07269
1.07693
1.0781
1.07184
1.06429
1.06288
1.06776
1.071
1.07516
1.07617
1.07258
1.07007
1.07992
1.09843
1.11432
1.12049
1.11882
1.11571
1.10805
1.09371
1.08813
1.09847
1.11316
1.14016
1.17414
1.18305
1.17041
1.16099
1.141
1.11866
1.10137
1.08443
1.06008
1.03312
1.02905
1.04383
1.05594
1.06239
1.06528
1.06594
1.06196
1.05274
1.05102
1.05039
1.0433
1.02726
1.03235
1.06335
1.09997
1.05802
1.03679
1.03619
1.06002
1.05872
1.03206
1.02431
1.04547
1.07335
1.09304
1.11113
1.12721
1.14122
1.15122
1.15454
1.15245
1.14888
1.14697
1.13886
1.13258
1.13119
1.13298
1.13398
1.13513
1.13801
1.13676
1.13627
1.13905
1.14316
1.15004
1.16109
1.18728
1.21886
1.22388
1.22683
1.26449
1.3495
1.41395
1.3762
1.28423
1.18813
1.13434
1.09513
1.08616
1.07545
1.03365
1.02727
1.06017
1.074
1.04237
0.97368
0.950248
1.02858
1.02054
1.00519
1.05036
1.03361
1.01583
1.03134
1.22407
1.24893
1.27787
1.29909
1.30454
1.30042
1.29534
1.28842
1.28082
1.2786
1.27566
1.27219
1.27118
1.27025
1.27331
1.27548
1.28059
1.28483
1.27949
1.26309
1.24205
1.22468
1.21476
1.21008
1.20771
1.20869
1.2098
1.21045
1.21156
1.21359
1.21402
1.21416
1.21394
1.21229
1.21153
1.20971
1.20728
1.20502
1.20138
1.19815
1.19474
1.19044
1.18583
1.18075
1.17546
1.17024
1.16513
1.16016
1.15532
1.15064
1.14602
1.14122
1.13595
1.13053
1.12499
1.11878
1.11249
1.10613
1.10026
1.09457
1.08967
1.08614
1.08311
1.08013
1.07947
1.07889
1.07801
1.07627
1.07094
1.06468
1.05991
1.0582
1.05909
1.06228
1.0672
1.0627
1.04822
1.04439
1.05238
1.05414
1.05551
1.05622
1.05558
1.05484
1.05622
1.06876
1.08666
1.10063
1.10878
1.12239
1.12783
1.12424
1.11094
1.09207
1.09655
1.14105
1.16464
1.15535
1.14495
1.14037
1.12918
1.11431
1.09979
1.08179
1.05197
1.03037
1.04028
1.06154
1.07854
1.08697
1.08942
1.08479
1.07388
1.06048
1.05975
1.05232
1.03408
1.01473
1.02278
1.06663
1.11761
1.04912
1.03053
1.06228
1.11107
1.1149
1.07505
1.05186
1.06362
1.07274
1.07074
1.08502
1.1078
1.12583
1.13966
1.14113
1.13248
1.12534
1.12733
1.11494
1.10286
1.09825
1.10378
1.11308
1.12174
1.12999
1.13735
1.14288
1.14027
1.14335
1.1494
1.14438
1.16954
1.22016
1.23259
1.24651
1.29668
1.39671
1.4199
1.31949
1.21818
1.15209
1.12146
1.09279
1.0859
1.06459
1.02865
1.06584
1.09928
1.09254
1.03774
1.00649
1.01287
1.04713
1.08601
1.00366
1.03006
1.06077
1.03321
1.00888
1.22357
1.25445
1.28746
1.29935
1.28626
1.26668
1.25543
1.24809
1.23963
1.2441
1.24791
1.24585
1.25117
1.2562
1.25618
1.25424
1.25323
1.2463
1.23829
1.23117
1.22595
1.22199
1.22017
1.22224
1.22565
1.22839
1.23068
1.23151
1.23127
1.22889
1.22652
1.22247
1.21859
1.21441
1.20929
1.20507
1.2003
1.19601
1.19209
1.18757
1.18379
1.17996
1.17579
1.17226
1.16782
1.16385
1.16013
1.1562
1.1524
1.14796
1.14292
1.13725
1.13087
1.12419
1.11726
1.10984
1.10246
1.0957
1.09055
1.08548
1.08018
1.0763
1.07253
1.06834
1.06568
1.06403
1.0649
1.06822
1.07013
1.06885
1.06225
1.05924
1.06214
1.0637
1.05924
1.05633
1.05115
1.04366
1.04438
1.04519
1.04543
1.04323
1.03721
1.03922
1.03993
1.04571
1.05824
1.07537
1.08815
1.09829
1.10957
1.12133
1.10204
1.08019
1.09599
1.14671
1.16353
1.14701
1.1389
1.135
1.124
1.11193
1.10288
1.08487
1.05495
1.04008
1.05405
1.07552
1.09054
1.09812
1.09773
1.09137
1.08128
1.07386
1.077
1.06316
1.03652
1.01996
1.02828
1.09835
1.12864
1.08186
1.10221
1.1313
1.12785
1.11902
1.10426
1.08492
1.08427
1.08449
1.07243
1.07874
1.10033
1.11318
1.11999
1.11857
1.11094
1.103
1.10842
1.09967
1.08876
1.07962
1.07674
1.08053
1.09445
1.10744
1.11905
1.13761
1.12947
1.1246
1.13783
1.12221
1.13699
1.19898
1.21538
1.23779
1.30815
1.41193
1.38842
1.25723
1.17145
1.13394
1.11024
1.08855
1.07915
1.04796
1.02673
1.0759
1.0853
1.08928
1.06823
1.03204
1.03664
1.00043
1.03313
1.00791
1.01497
1.0669
1.0993
1.08589
1.22286
1.25613
1.2832
1.27497
1.24641
1.23099
1.23972
1.2462
1.23886
1.24859
1.2501
1.24003
1.2476
1.24858
1.24141
1.23682
1.23218
1.22575
1.2217
1.21582
1.21324
1.21347
1.21742
1.21953
1.22137
1.22211
1.22243
1.2197
1.21682
1.21358
1.20989
1.20628
1.20217
1.19897
1.19442
1.19165
1.18933
1.18614
1.18409
1.18144
1.17834
1.17497
1.17115
1.16753
1.16313
1.15847
1.15408
1.15013
1.14578
1.1413
1.13709
1.13272
1.12821
1.12356
1.11865
1.11313
1.1079
1.10257
1.09764
1.09311
1.08893
1.08484
1.07968
1.0749
1.06975
1.06372
1.05669
1.05304
1.05126
1.05717
1.05237
1.04535
1.05136
1.06736
1.0746
1.06938
1.06463
1.05726
1.05025
1.04199
1.04012
1.03925
1.03513
1.03795
1.03797
1.04478
1.06108
1.07972
1.07827
1.06724
1.0841
1.11162
1.09299
1.09026
1.12838
1.16514
1.16102
1.14371
1.13856
1.13007
1.11711
1.10779
1.10085
1.08629
1.06839
1.06862
1.08542
1.1023
1.10978
1.11017
1.10076
1.09102
1.07537
1.06364
1.05941
1.04708
1.0301
1.01489
1.01103
1.07393
1.15463
1.12762
1.13622
1.12693
1.10679
1.09099
1.07971
1.07445
1.0858
1.10609
1.10456
1.10233
1.11446
1.11323
1.10885
1.11079
1.10952
1.09524
1.10577
1.10271
1.091
1.08008
1.07119
1.06236
1.07324
1.0892
1.09922
1.13166
1.12406
1.10474
1.1203
1.0966
1.09695
1.16887
1.18816
1.21222
1.30121
1.40607
1.35341
1.21395
1.14583
1.12925
1.10967
1.08789
1.07225
1.03103
1.02976
1.06272
1.05166
1.05295
1.05337
1.03423
1.05849
1.03025
1.04759
1.04292
1.03917
1.05741
1.08651
1.14283
1.21964
1.25099
1.2717
1.25681
1.24071
1.24548
1.24555
1.23473
1.23226
1.24216
1.24666
1.2399
1.23667
1.22716
1.22037
1.22161
1.21805
1.21733
1.2179
1.2213
1.2262
1.23047
1.23022
1.23105
1.2311
1.23013
1.22621
1.22084
1.21609
1.21277
1.20884
1.20778
1.20513
1.20295
1.20192
1.20051
1.20035
1.19981
1.19835
1.19659
1.19453
1.19127
1.18757
1.18281
1.17739
1.17141
1.16435
1.15805
1.1519
1.14624
1.14083
1.13588
1.13085
1.12633
1.12184
1.11659
1.11126
1.1053
1.09991
1.09464
1.08929
1.08554
1.08132
1.07694
1.07283
1.0709
1.06564
1.06267
1.05181
1.05209
1.05924
1.04874
1.04307
1.05574
1.07117
1.07012
1.05862
1.04977
1.04597
1.04383
1.04184
1.03162
1.02689
1.03732
1.04681
1.0644
1.08028
1.08111
1.05947
1.05205
1.08569
1.10667
1.0793
1.0975
1.14487
1.16541
1.15216
1.14128
1.14202
1.13004
1.11531
1.10993
1.10803
1.1022
1.09718
1.09987
1.10625
1.10626
1.1019
1.08788
1.07041
1.06392
1.05178
1.0503
1.05346
1.06043
1.05548
1.03348
1.02256
1.06094
1.1631
1.14011
1.10634
1.10169
1.09344
1.10137
1.06621
1.06498
1.09312
1.12415
1.13274
1.12901
1.12553
1.10909
1.10747
1.11541
1.10908
1.07314
1.09372
1.09472
1.07229
1.05928
1.05912
1.05217
1.06064
1.07468
1.07767
1.12413
1.12263
1.09142
1.10602
1.07277
1.0531
1.13255
1.15715
1.18075
1.2826
1.39293
1.32781
1.18821
1.13435
1.12611
1.1138
1.10395
1.08257
1.0322
1.04275
1.06411
1.06415
1.05465
1.02809
1.04648
1.11665
1.11329
1.08849
1.07147
1.09066
1.08734
1.06891
1.13906
1.21609
1.24801
1.27146
1.25733
1.23993
1.24011
1.24373
1.24049
1.23747
1.23591
1.22917
1.22037
1.22043
1.22677
1.23014
1.23938
1.23727
1.24191
1.24314
1.24174
1.23816
1.23745
1.23639
1.23842
1.23624
1.23256
1.22831
1.22469
1.22042
1.21807
1.21538
1.21301
1.21119
1.20931
1.20887
1.20828
1.20822
1.20917
1.20897
1.20781
1.20733
1.20565
1.20345
1.20003
1.19562
1.1905
1.18342
1.17549
1.16653
1.15755
1.14816
1.14004
1.13183
1.12432
1.11816
1.11157
1.10626
1.10075
1.0967
1.09267
1.08897
1.08521
1.08203
1.078
1.07198
1.06846
1.0638
1.06141
1.05765
1.04636
1.05888
1.05957
1.04729
1.05063
1.05953
1.05597
1.04593
1.04021
1.03858
1.04258
1.042
1.02502
1.01394
1.01992
1.03455
1.0532
1.06162
1.05922
1.04746
1.05769
1.09259
1.09353
1.0594
1.09182
1.14743
1.15917
1.14559
1.14251
1.15141
1.14469
1.1302
1.11674
1.10968
1.10693
1.10674
1.10188
1.09671
1.08969
1.08269
1.06782
1.057
1.05938
1.05509
1.05753
1.05142
1.05197
1.05136
1.04988
1.04058
1.04598
1.12938
1.15889
1.06807
1.08195
1.06961
1.10773
1.09908
1.10122
1.12135
1.13848
1.1483
1.13927
1.11942
1.09594
1.10803
1.13051
1.10103
1.04444
1.0762
1.0738
1.03017
1.01425
1.02942
1.03944
1.05024
1.05608
1.04677
1.10508
1.11547
1.07993
1.09649
1.0586
1.01599
1.09705
1.12729
1.14767
1.25758
1.37647
1.30857
1.16988
1.12714
1.12121
1.10614
1.12356
1.11422
1.06447
1.07332
1.08652
1.11206
1.10428
1.0754
1.06259
1.1463
1.1228
1.09981
1.06847
1.08274
1.07429
1.06711
1.11108
1.20974
1.23655
1.26379
1.26075
1.24204
1.23663
1.24068
1.2447
1.23783
1.23143
1.22099
1.22183
1.2276
1.23657
1.23598
1.23677
1.23531
1.23575
1.23662
1.23757
1.24047
1.24036
1.23651
1.2334
1.22964
1.22692
1.22396
1.21926
1.21521
1.21213
1.2102
1.2095
1.21073
1.21277
1.21521
1.21855
1.22069
1.22202
1.22328
1.22283
1.22147
1.21896
1.21605
1.2126
1.20908
1.20578
1.20201
1.19779
1.19217
1.18574
1.17812
1.16934
1.15922
1.14748
1.13714
1.12754
1.12026
1.11343
1.10883
1.10463
1.10109
1.09501
1.08917
1.08452
1.07897
1.07301
1.0713
1.06277
1.06211
1.05012
1.04915
1.05641
1.04493
1.04201
1.05131
1.05448
1.05034
1.04669
1.04502
1.04515
1.04521
1.03407
1.01787
1.00394
1.01291
1.03943
1.04996
1.05926
1.07475
1.09355
1.10225
1.08207
1.05997
1.10298
1.15313
1.15275
1.141
1.14622
1.15761
1.15239
1.13317
1.11228
1.10237
1.09977
1.09537
1.0838
1.07732
1.07478
1.07072
1.06391
1.05974
1.06287
1.05763
1.05607
1.04666
1.04635
1.06007
1.07308
1.05014
1.04478
1.10119
1.13486
1.02505
1.06712
1.07361
1.08722
1.10376
1.11464
1.13329
1.13545
1.13645
1.13395
1.1065
1.09384
1.13214
1.14111
1.07341
1.02714
1.07098
1.04712
0.992265
0.97641
0.996887
1.02495
1.03408
1.01738
0.999811
1.0714
1.09789
1.06437
1.08882
1.05801
0.99232
1.0656
1.10017
1.11584
1.23229
1.35941
1.29306
1.15359
1.1181
1.11395
1.08797
1.12566
1.14006
1.08509
1.08456
1.09478
1.15011
1.1529
1.14537
1.10249
1.1386
1.10421
1.09602
1.07447
1.04522
1.05394
1.07012
1.10929
1.20248
1.22327
1.25213
1.26396
1.24458
1.23624
1.23642
1.24216
1.23305
1.22745
1.22631
1.22975
1.23785
1.24218
1.2402
1.24244
1.24462
1.24106
1.24244
1.23399
1.22777
1.22442
1.22358
1.22521
1.2249
1.22277
1.22136
1.21896
1.2181
1.21877
1.22103
1.22469
1.22764
1.23081
1.23137
1.23121
1.23091
1.22879
1.22637
1.22311
1.21897
1.21403
1.20886
1.20398
1.20005
1.19725
1.19539
1.19405
1.19205
1.18874
1.1849
1.18112
1.17785
1.17285
1.16485
1.1546
1.14299
1.13105
1.11936
1.10936
1.10165
1.09602
1.09005
1.08389
1.08096
1.07325
1.07056
1.06486
1.06117
1.0586
1.0519
1.05715
1.05018
1.03995
1.04291
1.05359
1.0565
1.05169
1.04519
1.04084
1.04119
1.03879
1.03396
1.01424
1.00821
1.04421
1.07107
1.08068
1.08649
1.09206
1.08776
1.07315
1.07021
1.11915
1.15814
1.14661
1.13701
1.1439
1.15215
1.14441
1.12446
1.10682
1.10418
1.10651
1.09777
1.08569
1.08202
1.077
1.073
1.07289
1.0756
1.0855
1.08377
1.08414
1.07701
1.06208
1.05129
1.06269
1.07085
1.0518
1.07121
1.08303
0.997384
1.06618
1.09318
1.11322
1.10546
1.10983
1.13162
1.13172
1.1369
1.13979
1.10542
1.12091
1.16641
1.09755
1.03581
1.01616
1.05194
1.01194
0.983045
0.975086
0.990687
1.02103
1.00555
0.962297
0.94907
1.03277
1.06965
1.04069
1.07998
1.06128
0.979874
1.04228
1.07718
1.0878
1.20731
1.34382
1.27842
1.13922
1.10662
1.10136
1.07364
1.10833
1.13748
1.08103
1.07761
1.09683
1.18361
1.2064
1.22748
1.20323
1.18724
1.17413
1.15633
1.11226
1.04909
1.07546
1.08619
1.13654
1.19651
1.21377
1.23781
1.25868
1.24762
1.23539
1.22861
1.22379
1.22141
1.21665
1.22629
1.2441
1.25009
1.23828
1.23338
1.23889
1.24785
1.2417
1.23861
1.23704
1.23848
1.23949
1.23569
1.23345
1.23111
1.22779
1.22595
1.22551
1.22681
1.22865
1.22939
1.23003
1.2276
1.22501
1.22227
1.21982
1.2192
1.21904
1.21864
1.21718
1.21503
1.21216
1.20845
1.20413
1.19939
1.19467
1.19093
1.18784
1.18521
1.18165
1.17658
1.1706
1.16678
1.16718
1.16795
1.16712
1.16182
1.15179
1.13847
1.12413
1.11219
1.10342
1.09983
1.09237
1.08645
1.08187
1.07531
1.07109
1.06384
1.0593
1.05396
1.05638
1.06174
1.05309
1.04284
1.04413
1.04833
1.04579
1.0408
1.04061
1.04683
1.03847
1.03446
1.02494
1.00942
1.04531
1.0877
1.09323
1.08034
1.07622
1.07714
1.07837
1.09008
1.13683
1.16582
1.1443
1.13681
1.14124
1.14347
1.13563
1.12484
1.12105
1.12543
1.12841
1.11293
1.1037
1.09353
1.07824
1.08059
1.08412
1.09206
1.10289
1.09819
1.09333
1.08229
1.06635
1.0518
1.05417
1.06227
1.03175
1.04661
1.0575
0.985483
1.04745
1.07745
1.14542
1.13708
1.11956
1.13688
1.14912
1.15204
1.13661
1.10756
1.13836
1.11588
1.02979
1.01029
1.0093
1.004
0.982741
1.00364
1.00489
1.00487
1.01989
0.985267
0.941653
0.92966
1.00509
1.03593
1.00621
1.06664
1.06138
0.967713
1.02346
1.05882
1.06488
1.1861
1.33071
1.26376
1.12987
1.09392
1.08435
1.06455
1.08709
1.1095
1.07302
1.07765
1.11061
1.20217
1.23953
1.26508
1.26516
1.24518
1.21302
1.16733
1.14051
1.07524
1.09221
1.10033
1.14837
1.19101
1.20689
1.22833
1.25144
1.2511
1.23229
1.22072
1.21718
1.2268
1.24358
1.25903
1.24913
1.21496
1.20849
1.24399
1.25398
1.24172
1.24007
1.2432
1.23722
1.22669
1.22543
1.22701
1.22831
1.22761
1.22634
1.22669
1.22778
1.22929
1.22958
1.22653
1.22307
1.21929
1.21709
1.21759
1.22023
1.22431
1.22781
1.22952
1.22924
1.2275
1.22514
1.22239
1.21901
1.2153
1.21052
1.20572
1.19971
1.19468
1.19
1.18531
1.17756
1.16623
1.15663
1.15429
1.15633
1.16155
1.16303
1.15801
1.14516
1.13112
1.1153
1.10262
1.09774
1.09121
1.08698
1.08064
1.07509
1.07465
1.07133
1.06817
1.05633
1.05585
1.05848
1.05245
1.04333
1.04313
1.04526
1.04546
1.04236
1.05311
1.04686
1.03479
1.03065
1.00353
1.01672
1.07351
1.09558
1.07699
1.07116
1.08046
1.09345
1.1147
1.15335
1.17512
1.14675
1.13685
1.14251
1.14588
1.14268
1.13291
1.12587
1.12226
1.11484
1.09815
1.0943
1.08167
1.07373
1.08451
1.08954
1.09905
1.10884
1.10722
1.10629
1.10055
1.09531
1.08063
1.06188
1.05544
1.0498
1.02972
1.06331
1.00176
1.02381
1.06863
1.13938
1.17213
1.14854
1.15123
1.16336
1.1612
1.13405
1.09279
1.11478
1.03647
1.00547
0.988382
1.00598
0.989116
0.999515
1.05144
1.05006
1.01076
0.997642
0.991938
0.978502
0.954491
0.998828
0.992531
0.964874
1.05016
1.05508
0.952697
1.00719
1.04303
1.04439
1.16858
1.31963
1.25342
1.12284
1.08567
1.06855
1.0589
1.07767
1.07871
1.0696
1.07901
1.12904
1.21445
1.23786
1.27665
1.2868
1.26807
1.21769
1.16685
1.14714
1.09376
1.08866
1.10575
1.12289
1.18591
1.20185
1.22018
1.2344
1.24213
1.24517
1.24225
1.23465
1.22397
1.21832
1.21326
1.20271
1.21551
1.23329
1.22938
1.22638
1.23808
1.24028
1.22764
1.22637
1.23276
1.23519
1.23258
1.22974
1.22714
1.22545
1.22667
1.22915
1.22984
1.2282
1.22407
1.21983
1.21793
1.21907
1.22251
1.22659
1.22966
1.23042
1.22885
1.22592
1.22257
1.21921
1.2164
1.21242
1.20802
1.20428
1.20257
1.20028
1.19484
1.18932
1.18598
1.18714
1.18454
1.17398
1.15857
1.14882
1.14743
1.14992
1.15586
1.15391
1.13807
1.12507
1.11083
1.10078
1.09378
1.08906
1.08784
1.08018
1.07721
1.06892
1.07142
1.07257
1.06424
1.05799
1.05954
1.05471
1.04904
1.04704
1.0507
1.04311
1.04892
1.05006
1.03522
1.0385
1.02221
1.01337
1.06333
1.10256
1.08618
1.07871
1.092
1.11363
1.13648
1.16792
1.18091
1.15122
1.13599
1.1409
1.15007
1.15435
1.1413
1.1182
1.10197
1.09277
1.08685
1.0914
1.0853
1.09394
1.10488
1.11174
1.11898
1.12517
1.12226
1.11865
1.11026
1.10635
1.09464
1.07946
1.06859
1.08379
1.04472
1.05704
1.03892
0.999083
1.04405
1.10508
1.18292
1.16908
1.17099
1.17978
1.16696
1.12223
1.06255
1.05676
1.01534
1.01134
0.978501
1.02105
1.03957
1.06901
1.13084
1.11893
1.03177
0.988099
1.03071
1.04833
1.0012
0.99916
0.940594
0.928567
1.03519
1.04355
0.932983
0.9917
1.0306
1.02777
1.15245
1.3094
1.24578
1.11876
1.08706
1.06109
1.05958
1.08321
1.07212
1.07932
1.09883
1.15428
1.22786
1.23432
1.2526
1.28942
1.30015
1.27316
1.21828
1.18961
1.12643
1.09214
1.11389
1.09188
1.17892
1.18965
1.19755
1.1973
1.19622
1.19907
1.20455
1.21137
1.22024
1.22577
1.22531
1.22668
1.227
1.21838
1.22237
1.22808
1.22974
1.23945
1.23668
1.22426
1.22225
1.23014
1.23357
1.23005
1.22638
1.22579
1.22879
1.23203
1.23154
1.227
1.21965
1.21493
1.21498
1.21776
1.22153
1.22446
1.22632
1.22634
1.22479
1.22279
1.22147
1.22064
1.22079
1.2209
1.21557
1.20785
1.19981
1.19705
1.1968
1.19148
1.1801
1.17366
1.17831
1.18288
1.18003
1.16561
1.15473
1.1564
1.15644
1.15816
1.14951
1.13463
1.1186
1.10736
1.10663
1.10131
1.09725
1.08863
1.08702
1.08725
1.07367
1.07112
1.07656
1.0676
1.06286
1.06388
1.06102
1.05421
1.05417
1.04457
1.04564
1.05554
1.04379
1.03974
1.03045
1.01346
1.05092
1.10676
1.10014
1.08897
1.10391
1.13249
1.15401
1.18249
1.18164
1.15046
1.13684
1.13889
1.14846
1.15175
1.14017
1.10935
1.09322
1.09049
1.09346
1.10129
1.0995
1.10855
1.1133
1.10865
1.10152
1.10307
1.11317
1.11927
1.11299
1.11396
1.11817
1.10664
1.07767
1.10609
1.08542
1.05052
1.07467
1.01564
1.02521
1.04921
1.15908
1.18302
1.18514
1.18729
1.15414
1.08528
1.03883
1.01262
1.02095
1.02915
1.03718
1.07187
1.13426
1.17857
1.23801
1.22737
1.12503
1.04782
1.10775
1.13708
1.05805
0.987392
0.906624
0.912213
1.02668
1.03049
0.910696
0.977769
1.02082
1.01422
1.13932
1.29983
1.24238
1.11698
1.09043
1.06864
1.06959
1.09946
1.09862
1.1152
1.14393
1.20512
1.25502
1.24174
1.23934
1.26759
1.29039
1.29144
1.21852
1.19056
1.14394
1.09629
1.11901
1.08907
1.17092
1.17572
1.17973
1.18359
1.18736
1.18796
1.18496
1.18645
1.18719
1.18434
1.19302
1.20083
1.20854
1.22018
1.22783
1.22477
1.21647
1.21443
1.22241
1.23185
1.22875
1.21538
1.20751
1.20827
1.21516
1.22452
1.23056
1.23175
1.22851
1.22115
1.21423
1.21124
1.21194
1.21522
1.21933
1.22303
1.22574
1.22449
1.22125
1.22035
1.21893
1.21727
1.21416
1.212
1.2103
1.20722
1.20413
1.19292
1.18827
1.19127
1.19334
1.18211
1.17409
1.18221
1.18661
1.18114
1.16554
1.15849
1.16144
1.16536
1.1603
1.14172
1.12658
1.11512
1.11232
1.10542
1.09871
1.09975
1.08389
1.08505
1.08561
1.07621
1.07773
1.07789
1.06949
1.06727
1.06458
1.05611
1.05611
1.0514
1.04834
1.05736
1.05461
1.04539
1.04017
1.01844
1.03464
1.1006
1.10988
1.09845
1.11372
1.14621
1.16691
1.19151
1.18917
1.14689
1.13652
1.14109
1.14905
1.14618
1.13643
1.10718
1.09286
1.09822
1.10627
1.10899
1.09992
1.09699
1.09442
1.08591
1.08184
1.0766
1.0798
1.10044
1.11094
1.11472
1.12268
1.12915
1.10359
1.10308
1.11405
1.06549
1.08955
1.06067
1.05141
1.01841
1.08905
1.16183
1.17207
1.16223
1.11487
1.05193
1.01434
1.00174
1.05019
1.0944
1.14495
1.148
1.23149
1.31425
1.34909
1.31894
1.23901
1.17117
1.21501
1.22829
1.10601
0.976059
0.917067
0.921544
1.02226
1.01238
0.890412
0.965543
1.01441
1.00326
1.12745
1.29207
1.24341
1.11485
1.09244
1.0821
1.08717
1.1181
1.12926
1.1567
1.19458
1.25581
1.28207
1.23383
1.20535
1.2291
1.27595
1.31129
1.25037
1.19995
1.15803
1.10143
1.11522
1.10353
1.16546
1.17194
1.17883
1.18847
1.19486
1.19572
1.19098
1.18669
1.18326
1.18304
1.18342
1.18444
1.1872
1.18576
1.20368
1.22596
1.23089
1.22737
1.22406
1.22584
1.22251
1.21083
1.20455
1.20796
1.21646
1.22086
1.21849
1.2137
1.21031
1.21051
1.21222
1.21408
1.2173
1.21977
1.22107
1.22143
1.22039
1.21917
1.2162
1.21608
1.21578
1.21313
1.21421
1.21107
1.20299
1.1923
1.19218
1.1898
1.17555
1.17232
1.17713
1.17759
1.16703
1.1672
1.18367
1.1908
1.18133
1.16425
1.16178
1.16819
1.17348
1.16257
1.14663
1.13361
1.11926
1.12092
1.1098
1.10537
1.10148
1.09187
1.08674
1.08388
1.07837
1.07962
1.07276
1.06717
1.06612
1.06113
1.06072
1.05798
1.05209
1.05423
1.06006
1.05167
1.04946
1.02767
1.02334
1.09387
1.11966
1.10949
1.12278
1.1531
1.17915
1.19077
1.20043
1.15656
1.14291
1.15349
1.15639
1.14226
1.13535
1.11097
1.10107
1.10298
1.11365
1.11208
1.10673
1.10149
1.09709
1.08935
1.08693
1.07921
1.07058
1.08187
1.09631
1.10128
1.10443
1.13036
1.13237
1.10507
1.12495
1.09706
1.09369
1.08551
1.07738
1.04107
1.03339
1.10313
1.12493
1.11385
1.06139
1.02976
1.0078
1.03841
1.13684
1.21823
1.22684
1.21117
1.30878
1.36176
1.40257
1.35581
1.25322
1.23827
1.28926
1.28711
1.12667
0.988334
0.968135
0.953914
1.01975
0.991311
0.881253
0.957715
1.01322
0.994511
1.11798
1.2862
1.24615
1.11753
1.09232
1.09027
1.10398
1.13429
1.1508
1.18037
1.22263
1.27524
1.25775
1.18885
1.16268
1.18561
1.23634
1.30226
1.27574
1.21598
1.17586
1.11473
1.11337
1.11658
1.16134
1.17118
1.18198
1.19695
1.20573
1.20496
1.19864
1.18958
1.1853
1.18006
1.18081
1.17882
1.18079
1.17939
1.17331
1.18025
1.19464
1.20916
1.22449
1.22753
1.21655
1.20959
1.2119
1.21813
1.21911
1.21348
1.20941
1.21175
1.21723
1.21902
1.21881
1.2194
1.21948
1.21978
1.21838
1.21595
1.21452
1.213
1.21423
1.21817
1.21792
1.21351
1.20675
1.19925
1.19394
1.19053
1.18569
1.18099
1.17379
1.16756
1.17173
1.18075
1.18241
1.17476
1.17771
1.18564
1.18324
1.16919
1.15887
1.16278
1.17206
1.17736
1.16001
1.14525
1.13407
1.12476
1.12213
1.11065
1.10182
1.09648
1.08969
1.0883
1.08442
1.08563
1.08185
1.07377
1.07077
1.06483
1.0625
1.06188
1.0582
1.05403
1.06385
1.06155
1.06216
1.0438
1.01424
1.0687
1.12044
1.11797
1.13165
1.15718
1.18966
1.19292
1.20306
1.17095
1.15551
1.17026
1.16496
1.14045
1.1324
1.11943
1.11304
1.111
1.11835
1.11253
1.10949
1.09954
1.08212
1.06009
1.06129
1.06964
1.06229
1.06271
1.08041
1.09677
1.0888
1.11332
1.14833
1.12479
1.12285
1.14015
1.10937
1.10467
1.09391
1.07764
1.03268
1.0558
1.07273
1.07428
1.02968
1.01349
1.04024
1.1108
1.22337
1.30891
1.27652
1.28689
1.33217
1.23473
1.32077
1.38335
1.26163
1.23231
1.31277
1.31195
1.12959
1.01438
1.02866
0.997604
1.01457
0.970444
0.885604
0.956678
1.02083
0.987153
1.10943
1.2814
1.25172
1.11941
1.09221
1.08913
1.10445
1.14175
1.16157
1.187
1.2213
1.25959
1.2111
1.13923
1.12258
1.14791
1.20203
1.28615
1.2827
1.2079
1.16771
1.12191
1.11484
1.11869
1.15841
1.16768
1.17879
1.19158
1.19715
1.1886
1.17689
1.16843
1.16993
1.17298
1.17579
1.18079
1.18533
1.18693
1.18192
1.17656
1.1748
1.18118
1.2016
1.21395
1.21226
1.21136
1.21743
1.22113
1.21467
1.21295
1.22105
1.22462
1.21977
1.21446
1.21293
1.21304
1.21536
1.21574
1.21407
1.21661
1.21562
1.21621
1.2169
1.21354
1.20443
1.19586
1.19456
1.18515
1.17825
1.18036
1.1773
1.16402
1.15627
1.16357
1.16293
1.15143
1.14386
1.15384
1.17262
1.18631
1.17511
1.15132
1.13258
1.13781
1.15747
1.17042
1.17757
1.16384
1.15435
1.14012
1.13247
1.12485
1.11625
1.10642
1.09873
1.09212
1.08596
1.08105
1.08332
1.07971
1.0792
1.07557
1.07224
1.0697
1.06834
1.05905