/*--------------------------------*- C++ -*----------------------------------*\
| =========                 |                                                 |
| \\      /  F ield         | OpenFOAM: The Open Source CFD Toolbox           |
|  \\    /   O peration     | Version:  dev                                   |
|   \\  /    A nd           | Web:      http://www.openfoam.org               |
|    \\/     M anipulation  |                                                 |
\*---------------------------------------------------------------------------*/
FoamFile
{
    version     2.0;
    format      ascii;
    class       volScalarField;
    object      T;
    location    "9.135";
}
// * * * * * * * * * * * * * * * * * * * * * * * * * * * * * * * * * * * * * //

dimensions      [0 0 0 1 0 0 0];

internalField   nonuniform List<scalar> 
12225
(
291.089
290.342
290.86
291.132
291.526
291.904
292.395
292.892
293.488
294.047
294.659
295.313
295.833
296.598
297.003
297.353
298.22
298.728
289.989
289.305
289.844
289.576
289.882
289.714
290.283
290.304
291.205
291.409
292.315
292.963
293.451
294.291
295.735
293.31
296.316
295.346
290.245
289.345
289.938
289.358
289.689
289.269
289.663
289.425
290.092
289.948
290.983
291.16
291.681
292.807
293.764
293.493
294.906
291.944
290.383
289.318
289.98
289.295
289.675
289.378
289.575
289.517
289.9
289.712
290.352
290.44
290.802
292.162
291.181
294.188
292.907
293.183
290.506
289.411
289.981
289.398
289.65
289.544
289.533
289.867
289.648
290.528
289.878
290.64
290.651
291.923
291.193
293.773
292.839
292.705
290.24
289.657
290.027
289.571
289.591
289.67
289.142
290.008
289.483
290.859
289.597
291.314
290.509
291.761
291.236
292.972
293.603
292.988
290.104
289.818
289.908
289.959
289.698
289.737
289.153
290.499
289.664
290.084
289.929
291.761
290.781
291.425
291.858
292.441
292.974
293.73
290.125
290.008
289.805
290.175
289.399
289.739
289.668
290.692
289.846
290.249
290.404
291.305
291.022
291.576
292.828
292.201
293.271
294.043
290.098
290.236
289.734
290.45
289.11
290.5
290.021
290.512
290.213
291.214
290.61
291.028
291.293
291.834
292.875
292.864
293.244
294.411
290.296
290.471
289.844
290.875
289.048
291.329
290.069
290.271
290.563
291.168
290.626
291.237
291.645
292.336
292.557
293.167
293.257
294.189
290.516
290.563
289.989
291.108
289.442
291.415
290.176
290.761
290.719
290.996
290.906
292.091
292.054
292.635
292.684
293.277
293.569
294.25
290.773
290.638
290.282
291.226
289.983
291.506
290.379
291.272
291.098
291.423
291.525
292.53
292.508
292.874
293.19
293.766
293.788
294.668
290.801
290.759
290.658
291.364
290.676
291.702
290.989
291.711
291.816
291.952
292.252
293.029
293.279
293.462
293.775
294.559
294.655
295.203
291.061
291.219
291.283
291.644
291.415
292.003
291.752
292.328
292.553
292.736
293.129
293.652
294.059
294.271
294.529
295.257
295.49
295.928
291.344
291.583
291.87
292.08
292.182
292.467
292.551
293.038
293.264
293.679
293.979
294.416
294.901
295.105
295.49
296.031
296.299
296.76
291.753
292.056
292.434
292.607
292.89
293.056
293.383
293.808
294.107
294.616
294.824
295.286
295.726
295.983
296.463
296.835
297.188
297.648
292.32
292.697
293.081
293.313
293.651
293.784
294.218
294.543
294.875
295.328
295.541
296.051
296.379
296.747
297.202
297.506
297.929
298.264
292.874
293.302
293.673
293.926
294.205
294.343
294.768
294.929
295.292
295.63
295.885
296.39
296.672
297.13
297.478
297.794
298.14
298.375
293.316
293.887
294.262
294.39
294.554
294.71
294.94
295.012
295.35
295.55
295.849
296.223
296.457
296.847
297.085
297.37
297.636
297.837
293.74
294.324
294.618
294.62
294.663
294.772
294.822
294.974
295.118
295.292
295.507
295.682
295.936
296.143
296.432
296.651
296.914
297.138
294.029
294.693
294.871
294.807
294.707
294.682
294.7
294.783
294.757
294.938
294.91
295.102
295.203
295.366
295.661
295.749
296.108
296.199
294.281
294.892
294.999
294.831
294.688
294.524
294.497
294.392
294.426
294.481
294.419
294.634
294.535
294.781
294.86
294.966
295.258
295.24
294.485
295.105
295.098
294.876
294.699
294.522
294.392
294.258
294.173
294.087
294.023
294.058
293.991
294.171
294.166
294.347
294.506
294.564
294.583
295.137
295.136
294.894
294.638
294.431
294.217
294.018
293.836
293.717
293.597
293.573
293.529
293.615
293.627
293.797
293.856
294.037
294.763
295.365
295.311
294.951
294.664
294.403
294.137
293.92
293.721
293.563
293.441
293.399
293.326
293.387
293.407
293.493
293.605
293.708
294.778
295.384
295.31
294.947
294.635
294.351
294.093
293.873
293.646
293.483
293.331
293.234
293.152
293.147
293.135
293.195
293.272
293.377
294.84
295.488
295.426
295.067
294.712
294.409
294.12
293.836
293.573
293.347
293.164
293.064
292.98
292.986
292.999
293.072
293.179
293.289
294.906
295.515
295.375
294.96
294.587
294.27
293.957
293.647
293.353
293.12
292.952
292.897
292.9
292.998
293.145
293.352
293.568
293.842
294.815
295.355
295.307
294.96
294.6
294.255
293.94
293.708
293.586
293.586
293.694
293.901
294.147
294.446
294.764
295.095
295.401
295.778
294.853
295.124
295.245
295.216
295.172
295.151
295.192
295.3
295.461
295.67
295.912
296.178
296.453
296.737
297.023
297.297
297.585
297.852
302.509
296.426
293.341
291.142
289.38
288.04
287.039
286.385
285.992
285.744
285.638
285.704
285.822
286.086
286.623
287.189
287.713
288.51
289.528
291.293
293.772
294.985
294.041
293.728
295.743
297.826
299.249
301.078
303.581
305.588
306.449
306.748
306.901
306.918
306.822
306.667
306.483
306.283
306.066
305.828
305.554
305.237
304.87
304.455
304.005
303.521
303.013
302.486
301.938
301.366
300.771
300.156
299.514
298.851
298.168
297.47
296.758
296.041
295.324
294.602
293.889
293.192
292.504
291.793
291.067
290.319
289.54
288.726
287.899
287.082
286.294
285.549
284.846
284.163
283.482
282.752
282.012
281.318
280.66
279.995
279.243
278.479
277.806
277.161
276.549
275.902
275.345
274.482
272.954
270.879
268.746
267.324
267.433
268.65
268.794
267.06
264.521
262.094
259.699
260.177
261.877
264.94
271.836
275.357
274.152
272.623
272.84
277.075
281.255
280.536
279.726
281.092
282.266
282.831
283.63
284.709
285.629
286.595
290.829
285.349
285.061
285.296
280.349
275.113
273.975
274.326
273.659
272.583
272.121
272.477
272.706
272.003
271.355
270.79
269.996
268.901
268.339
267.818
267.025
266.044
265.178
264.643
263.686
262.481
261.089
259.68
258.151
256.485
254.734
252.865
251.471
249.96
248.376
247.06
245.671
243.946
240.952
238.89
236.529
237.137
242.719
250.008
256.527
260.259
262.887
265.814
267.93
269.812
271.948
272.903
273.566
275.399
279.881
280.9
287.745
281.698
280.17
280.866
281.145
281.672
303.346
297.749
294.438
291.672
289.158
287.442
286.11
285.08
284.362
283.799
283.318
282.937
282.626
282.679
283.619
284.51
284.224
283.944
284.317
284.177
286.581
288.719
283.204
278.83
286.51
298.219
303.436
304.656
305.371
305.706
305.745
305.767
305.718
305.682
305.684
305.643
305.56
305.362
305.022
304.574
304.005
303.394
302.785
302.177
301.593
301.029
300.5
299.973
299.42
298.842
298.252
297.661
297.033
296.367
295.67
294.966
294.258
293.548
292.832
292.13
291.458
290.785
290.075
289.32
288.466
287.561
286.584
285.481
284.334
283.122
281.907
280.686
279.415
278.293
277.48
276.918
276.362
275.633
274.644
273.729
272.586
271.373
270.328
269.053
267.325
265.546
264.291
263.276
261.597
259.56
258.476
258.143
257.339
257.291
257.642
255.435
252.179
250.652
244.743
240.533
249.884
261.412
265.874
268.078
270.916
277.335
283.12
284.611
284.442
284.352
285.604
286.49
286.91
287.462
287.348
286.495
286.449
287.916
290.245
279.593
277.339
284.011
282.008
275.326
274.02
277.02
278.761
276.705
272.515
268.049
264.959
262.308
259.969
258.062
256.696
254.914
253.443
252.512
251.742
250.694
249.269
248.507
247.949
247.131
245.636
244.072
242.784
240.667
238.127
234.911
231.385
228.561
225.88
222.894
221.556
221.16
215.634
206.59
198.025
196.502
204.088
221.842
238.064
246.871
253.572
256.227
261.404
267.589
267.518
265.697
268.779
281.582
293.33
284.993
302.041
284.768
275.382
279.16
277.89
275.292
305.032
300.64
296.59
293.089
290.759
289.745
288.99
288.629
288.445
287.97
287.876
287.632
287.507
288.471
290.147
290.723
290.92
290.544
287.102
283.684
285.391
291.834
299.149
304.306
305.903
306.608
307.058
307.189
307.139
307.031
306.896
306.67
306.601
306.251
306.011
305.712
305.211
304.747
304.046
303.349
302.808
302.352
301.981
301.704
301.405
301.164
300.89
300.542
300.078
299.487
298.914
298.331
297.678
296.959
296.211
295.545
294.934
294.387
293.775
293.208
292.605
291.967
291.244
290.531
289.616
288.871
288.223
287.489
286.736
285.65
284.343
282.669
280.544
278.433
277.329
278.176
279.216
278.602
276.539
275.076
273.473
272.808
273.299
273.377
270.329
265.456
261.585
260.147
260.509
261.247
263.158
266.638
267.887
265.359
261.916
255.878
248.842
247.384
250.294
252.548
257.332
262.827
267.149
271.526
277.863
284.807
285.43
281.204
278.04
276.287
275.358
274.971
275.792
277.836
277.88
277.798
279.575
283.708
281.926
273.695
264.744
275.245
281.071
281.728
275.869
276.316
283.682
286.442
281.23
274.085
269.117
264.676
260.696
257.055
254.143
252.481
251.792
251.236
250.112
250.172
249.73
248.161
245.858
243.717
241.575
239.105
237.57
235.989
233.839
231.599
229.016
225.868
220.193
213.961
212.693
212.135
206.078
193.544
185.101
190.793
205.489
223.603
236.045
246.389
250.437
254.897
267.077
270.801
264.41
263.092
273.067
294.288
302.882
281.671
285.501
292.119
281.154
287.218
294.031
291.384
305.216
299.245
292.466
287.68
286.481
287.404
288.538
290.073
291.808
292.316
292.953
293.724
293.938
294.156
293.446
292.902
291.673
290.595
291.658
295.348
300.316
304.515
306.893
307.924
308.27
307.718
307.122
306.581
305.846
304.856
304.231
303.602
303.026
302.723
302.132
301.768
301.466
301.074
300.956
300.648
300.343
300.198
300.058
299.973
299.87
299.685
299.416
299.061
298.627
298.113
297.558
297.036
296.613
296.212
295.846
295.661
295.489
295.338
295.069
294.77
294.268
293.431
292.534
291.631
290.144
288.746
287.493
286.587
286.701
287.05
287.003
286.168
284.706
282.728
280.579
281.167
284.17
284.061
281.108
280.093
279.162
278.496
278.227
277.982
277.12
273.408
268.658
265.169
263.143
259.951
258.839
259.861
263.129
267.695
266.4
256.171
251.457
253.817
256.298
257.573
260.474
264.268
268.067
272.879
280.669
285.997
282.681
276.864
272.554
270.43
269.72
270.738
273.284
276.349
276.214
278.067
282.867
287.893
285.15
273.257
261.165
278.48
283.955
276.045
264.006
263.041
273.056
279.768
277.109
274.707
275.17
271.598
265.815
261.03
257.085
255.736
256.504
256.787
254.748
255.789
256.726
255.891
252.661
248.596
244.759
241.122
237.798
234.986
233.931
231.949
229.534
229.559
224.012
214.188
211.584
209.197
201.4
187.295
184.425
199.143
216.932
230.962
239.011
247.204
250.721
257.642
268.618
261.292
255.227
258.978
274.749
284.998
284.596
277.162
268.839
292.817
287.242
280.636
289.543
297.998
304.722
297.335
289.721
287.098
290.052
294.541
297.154
298.882
300.914
299.825
298.885
299.333
298.036
296.826
296.785
297.177
297.355
298.939
300.792
302.456
303.698
304.612
304.912
304.165
303.087
302.136
301.268
300.711
300.379
300.503
300.581
301.018
301.342
301.713
302.235
302.478
302.807
302.931
302.917
302.981
302.777
302.542
302.313
301.866
301.597
301.126
300.548
299.976
299.329
298.827
298.441
298.197
298.109
298.081
298.119
298.286
298.425
298.377
297.926
297.518
297.177
296.478
295.842
295.335
294.43
293.279
291.465
289.112
287.308
286.477
287.047
286.525
284.54
283.183
283.466
283.345
283.958
285.123
284.102
283.251
282.647
282.808
283.931
282.887
282.305
280.329
276.677
272.113
268.849
266.253
263.555
261.074
265.888
271.259
267.234
255.62
252.382
256.329
258.321
259.434
262.243
265.308
267.816
272.717
280.594
284.169
279.849
274.095
270.266
268.333
268.291
269.703
271.961
273.479
272.508
276.128
283.095
287.254
284.32
266.045
259.569
271.295
266.547
259.769
260.498
262.731
266.596
271.855
272.423
272.561
275.704
274.098
268.423
264.633
262.134
261.448
262.041
262.516
259.609
259.851
260.521
260.739
259.424
256.524
251.347
246.533
242.224
236.622
236.656
236.349
232.431
234.633
231.046
218.597
215.133
211.227
200.181
185.637
188.908
209.447
226.142
235.222
241.887
248.578
252.649
261.982
269.466
258.909
258.337
259.418
267.044
278.154
278.568
290.585
283.267
292.19
292.268
279.936
273.156
277.688
304.139
296.212
289.995
291.933
298.631
302.288
300.106
298.585
300.312
297.947
297.693
300.035
298.113
297.92
299.62
300.681
301.766
303.307
304.285
305.708
306.229
305.995
304.815
304.098
303.397
302.931
302.55
302.88
303.179
303.55
303.977
304.361
304.788
304.95
305.385
305.264
305.013
304.901
304.417
304.053
303.729
303.409
303.132
302.753
302.527
302.299
301.937
301.424
300.98
300.513
299.936
299.378
298.83
298.3
297.837
297.523
297.125
296.766
296.313
295.774
295.176
294.618
294.388
294.086
293.967
294.145
294.605
294.124
293.109
290.215
290.511
291.111
287.961
282.593
280.073
280.742
281.199
282.427
283.625
285.157
284.998
284.757
285.38
284.149
283.755
281.483
276.872
272.058
272.429
274.993
270.567
264.108
268.789
269.425
260.364
252.472
253.731
257.822
259.234
261.4
264.59
267.003
269.001
273.026
277.775
277.436
272.74
268.336
266.389
266.124
268.197
270.491
274.263
277.033
277.977
281.31
285.867
289.864
290.346
272.822
254.499
261.294
259.123
261.378
266.44
270.634
273.612
275.411
273.124
268.434
268.842
269.265
265.856
265.325
265.56
264.138
263.108
264.997
260.856
259.73
260.517
261.127
261.25
261.445
256.933
251.306
247.294
238.607
238.477
241.294
236.801
240.805
240.244
225.005
220.771
216.4
201.915
186.916
194.319
217.571
231.888
236.801
242.637
249.44
254.979
266.868
269.275
262.645
267.351
268.726
270.527
277.917
273.502
282.852
279.884
283.079
286.296
282.97
277.228
264.958
304.044
296.559
291.765
295.26
299.033
297.854
297.917
300.538
301.037
298.584
297.59
299.242
300.025
302.388
303.975
303.677
304.547
304.688
304.452
303.494
302.151
301.018
300.912
300.504
300.251
300.241
300.924
301.909
302.662
303.051
303.523
303.24
303.342
303.218
302.77
302.343
301.539
300.807
300.231
299.656
299.109
298.802
298.54
298.495
298.558
298.724
299.103
299.231
299.288
299.182
298.98
298.631
298.277
297.764
297.249
296.93
296.631
296.499
296.211
295.93
295.667
295.012
294.549
294.167
293.717
292.773
292.792
292.338
293.971
292.343
289.308
291.278
291.418
286.584
281.742
281.564
283.918
285.438
285.682
285.615
285.709
288.065
288.676
285.211
282.229
277.256
273.12
272.981
278.44
280.025
271.255
266.314
273.069
268.422
257.503
253.345
256.548
259.207
259.443
262.589
266.142
267.382
267.984
269.714
271.144
270.247
268.38
268.149
269.124
272.482
276.73
278.356
281.467
281.631
280.528
278.691
280.181
286.09
288.565
277.434
253.413
259.726
267.185
268.638
271.077
269.562
278.807
279.685
272.891
265.362
263.247
263.849
263.993
267.149
266.912
264.041
263.878
271.128
264.425
262.197
265.579
266.856
264.87
264.665
260.682
255.378
253.007
241.025
239.575
245.086
240.755
247.02
251.203
233.173
227.581
223.04
205.635
189.337
198.743
223.034
234.986
238.066
242.232
246.65
253.687
267.812
266.841
263.253
265.694
269.935
278.454
275.367
259.934
262.381
270.092
276.289
273.395
275.623
282.449
266.4
303.894
296.255
290.827
294.153
298.251
298.157
297.319
298.149
298.871
299.247
300.899
303.023
302.894
301.371
300.513
298.31
298.828
297.634
297.331
297.602
298.323
298.297
298.333
297.636
297.971
298.62
299.371
299.936
300.604
300.755
300.975
301.048
300.957
300.806
300.239
299.661
298.861
297.779
296.951
296.268
295.363
294.713
294.134
293.803
293.65
293.635
294.058
294.644
295.457
296.246
297.108
297.627
298.17
298.505
298.485
298.572
298.301
298.082
297.473
296.893
296.244
295.664
294.972
294.6
294.757
294.274
294.117
293.438
293.321
294.981
290.13
289.235
291.542
289.306
286.066
286.448
288.417
289.137
288.779
287.052
286.936
291.32
293.759
291.349
286.762
281.47
279.178
279.78
282.783
279.79
270.822
270.745
279.395
270.888
257.993
255.746
259.012
259.889
258.257
260.282
263.786
266.792
268.381
269.131
269.268
270.313
271.449
273.184
275.017
278.93
281.638
280.904
281.972
281.187
282.622
282.268
282.495
283.021
285.428
283.299
262.022
256.7
278.514
275.182
278.84
269.479
272.201
272.179
267.42
263.172
260.674
262.422
266.391
271.573
268.168
261.533
266.447
279.511
269.64
267.928
277.111
279.551
273.388
268.771
264.02
260.553
261.276
246.028
242.01
248.68
243.915
251.421
261.558
241.86
234.676
230.475
210.658
192.383
202.442
227.338
237.265
239.787
244.294
242.771
247.305
260.658
259.984
258.538
255.126
259.021
267.997
272.322
253.774
260.692
268.068
277.891
275.803
279.762
283.846
273.962
304.313
297.86
291.46
292.219
296.629
297.882
296.889
295.999
297.672
299.241
301.779
301.534
300.091
297.939
298.076
297.819
298.151
297.91
297.62
297.228
296.411
296.341
297.132
297.698
298.409
298.837
299.33
300.198
300.858
301.231
301.283
300.969
300.118
299.031
297.771
296.267
295.021
293.907
292.777
292.02
291.423
291.045
290.702
290.431
290.108
289.679
289.309
289.004
288.994
289.149
289.57
290.261
291.287
292.704
293.766
294.64
294.928
295.105
294.717
294.249
293.669
293.8
293.847
293.629
293.7
293.884
293.039
294.072
293.068
295.187
294.022
291.094
293.44
292.972
289.389
287.878
288.337
288.596
288.357
287.701
287.277
290.088
294.306
297.718
294.316
286.53
283.632
280.968
276.785
272.003
269.887
274.995
280.644
269.537
258.046
258.387
261.164
260.086
257.778
259.365
263.977
268.927
271.38
272.166
273.294
276.172
277.804
278.469
279.598
281.558
282.637
281.792
283.126
283.434
285.831
285.461
281.543
278.509
284.887
285.699
270.54
263.372
292.29
280.908
279.767
276.482
272.557
270.143
265.851
265.172
264.76
265.087
270.976
273.911
264.035
259.622
274.158
285.454
271.892
275.515
288.786
291.553
283.473
273.632
268.937
271.238
274.612
254.815
246.924
253.436
246.894
252.827
269.103
250.319
241.695
238.22
216.049
195.705
205.732
231.461
240.025
242.103
249.079
242.469
241.83
255.879
257.603
257.075
247.179
248.827
252.721
264.069
256.472
266.364
270.202
277.42
286.806
286.688
284.368
276.055
304.838
299.805
292.905
290.228
294.78
296.741
296.65
295.304
297.536
298.865
299.19
298.39
296.43
295.33
295.754
295.195
294.741
295.482
295.094
297.056
298.411
299.074
299.093
298.529
298.452
298.748
298.852
299.178
299.071
298.538
297.559
296.211
294.979
293.682
292.978
292.374
291.789
291.591
291.403
291.375
291.505
291.767
292.024
292.148
291.982
291.497
290.735
289.813
289.016
288.493
288.049
287.543
286.888
286.646
287.135
288.184
289.608
291.153
292.677
293.779
294.291
294.289
294.428
294.628
294.057
294.801
294.217
294.52
294.296
293.883
294.528
292.036
293.22
295.028
293.024
289.252
287.928
288.678
289.83
290.377
289.744
290.006
291.141
296.461
297.336
286.552
279.485
277
275.314
273.782
274.881
278.741
279.469
267.168
258.431
261.184
263.437
261.846
260.094
262.215
267.293
271.869
272.723
272.431
274.636
277.752
278.572
279.647
280.748
280.83
280.124
277.623
278.042
277.857
279.743
283.531
285.969
282.711
281.113
286.124
280.514
278.091
302.603
282.913
276.545
272.27
274.311
273.18
268.011
268.049
266.699
265.374
273.061
269.052
256.703
270.371
285.56
289.909
277.533
286.246
293.002
293.354
286.601
275.808
277.559
288.135
290.866
265.739
254.659
260.459
250.334
253.408
273.903
257.372
248.239
245.713
221.731
199.014
209.045
235.479
243.492
245.703
253.495
246.712
242.206
257.212
260.009
257.599
240.801
238.445
236.317
242.996
247.381
251.814
257.119
269.054
287.377
282.46
281.509
270.664
304.925
300.741
294.896
290.057
292.689
295.583
297.192
298.333
298.993
300.222
297.88
293.571
292.035
294.748
296.076
294.726
292.539
293.996
294.663
294.955
294.466
294.165
294.974
295.346
295.737
296.333
296.532
296.372
295.754
294.972
294.39
293.81
293.934
294.044
294.174
294.178
293.69
293.061
292.447
292.035
291.734
291.551
291.516
291.578
291.695
291.756
291.536
291.126
290.567
290.205
290.177
290.32
289.873
288.35
286.722
285.501
285.389
286.458
288.388
290.617
292.254
293.07
292.628
293.275
293.507
293.442
293.982
293.936
294.763
294.882
295.193
293.381
291.118
292.843
294.765
293.429
291.575
291.736
292.507
291.886
289.77
291.758
292.482
295.01
298.764
287.7
276.62
275.529
278.642
279.452
279.204
279.03
276.069
264.659
258.382
263.341
265.032
264.057
263.706
265.885
268.764
269.894
268.898
268.275
272.048
274.542
277.03
280.84
280.381
279.501
277.489
274.834
276.112
277.355
280.303
284.657
288.407
287.352
285.481
294.205
289.494
287.58
308.904
289.982
282.459
266.272
269.124
273.278
268.995
266.169
265.108
267.809
274.199
265.913
268.376
290.067
294.593
293.375
292.182
296.756
288.815
286.158
283.817
277.095
284.9
296.518
298.882
274.73
264.238
270.839
255.055
254.824
278.848
263.695
254.081
252.49
227.057
202.12
212.596
238.694
247.533
250.608
256.924
252.718
248.678
260.172
261.204
255.845
237.931
232.504
229.646
231.467
236.683
244.296
255.52
263.49
281.76
279.29
279.183
268.361
304.773
300.917
295.655
290.228
290.381
294.847
297.663
298.539
296.196
292.227
288.606
290.747
298.925
300.617
292.022
289.706
292.57
292.931
292.089
293.499
295.947
296.106
295.603
295.157
295.179
295.303
295.017
294.527
293.894
293.528
293.913
294.344
294.842
294.91
294.286
293.106
291.55
290.114
289.071
288.454
288.124
287.884
287.685
287.588
287.526
287.666
287.762
288.108
288.189
288.149
288.087
288.739
290.255
291.311
290.509
288.581
285.889
284.193
284.115
285.982
288.213
290.951
292.864
292.779
293.238
293.125
293.635
293.904
292.863
292.755
292.721
295.016
294.06
292.552
293.592
295.354
294.582
293.351
292.795
293.026
289.596
291.158
294.126
295.177
302.724
297.704
281.712
276.58
281.399
282.643
280.155
276.96
271.744
262.604
258
264.54
266.639
265.385
264.963
266.212
268.621
269.987
270.552
272.318
276.77
278.172
281.661
284.165
281.449
280.25
277.781
275.346
275.872
276.163
277.695
279.286
283.29
288.171
289.79
292.123
297.258
288.304
307.025
299.311
287.011
269.239
262.967
268.748
267.98
265.006
264.877
270.271
279.387
272.243
291.217
299.903
303.15
296.285
299.351
294.529
277.813
275.539
283.596
284.652
285.222
287.551
293.022
278.027
277.145
284.356
260.868
257.901
284.943
269.692
259.637
259.107
231.932
205.059
215.654
241.587
250.99
255.774
259.767
256.742
257.418
262.588
262.545
253.21
236.699
233.599
228.17
228.273
233.404
244.739
257.313
263.567
278.46
281.577
279.177
275.22
304.404
300.52
296.003
292.622
290.852
290.19
290.891
292.681
295.22
296.558
297.709
300.431
297.567
293.25
293.885
294.587
291.913
291.435
294.338
294.526
292.999
292.448
293.003
293.515
293.964
294.191
293.712
292.925
292.525
292.634
293.303
293.967
294.052
293.368
292.098
290.645
289.412
288.697
288.49
288.553
288.666
288.727
288.613
288.727
288.91
288.887
288.34
287.879
288.123
288.352
288.012
286.541
285.964
287.318
289.872
291.004
289.997
287.977
285.186
284.492
287.224
289.242
291.65
292.997
293.566
293.565
292.77
293.757
293.515
294.696
292.931
291.835
293.354
294.176
292.982
293.723
294.648
294.518
293.01
294.614
292.426
291.981
295.815
294.591
299.222
300.983
286.234
276.545
280.977
282.645
279.082
273.8
268.35
261.169
258.372
265.231
268.654
267.415
265.569
265.022
268.322
273.498
277.32
279.859
281.914
281.171
283.104
281.229
278.375
276.545
274.507
272.997
274.073
275.202
277.363
278.571
282.03
286.219
288.806
285.526
296.55
292.376
299.025
310.228
296.357
279.465
262.144
266.208
265.794
263.472
265.394
274.654
289.321
288.869
300.841
300.831
309.531
294.709
287.881
278.005
260.442
260.57
280.197
290.363
277.225
270.514
281.198
279.356
294.488
298.044
266.663
262.455
292.896
275.861
264.687
265.167
236.792
208.013
218.437
244.025
252.386
259.543
261.387
257.431
261.813
262.522
260.187
249.661
235.61
235.612
233.659
228.885
228.833
235.57
247.743
255.412
271.685
282.25
278.545
284.915
304.427
301.855
299.902
299.997
300.287
299.618
298.287
296.639
294.507
293.142
293.276
293.074
292.941
294.993
294.203
292.816
292.225
289.882
290.696
293.698
294.033
291.94
291.018
291.797
292.639
292.73
291.889
290.94
290.844
291.662
293.133
293.963
293.619
292.596
291.307
290.192
289.302
288.811
288.653
288.554
288.247
287.779
287.042
286.278
286.74
287.731
288.761
288.515
287.602
287.851
289.538
290.024
287.715
285.389
284.916
287.274
288.7
286.997
285.735
284.107
285.105
287.671
290.555
292.173
291.135
291.429
291.452
292.665
291.996
291.094
293.898
293.539
291.313
293.111
293.621
292.681
292.952
294.258
293.789
296.053
295.152
292.177
295.347
296.144
298.768
303.173
291.526
277.158
279.327
281.995
278.009
271.117
266.132
259.833
260.135
267.097
270.366
269.883
267.746
267.099
270.246
277.8
281.963
283.103
282.788
280.895
281.417
278.947
277.658
278.694
280.418
279.909
277.632
276.834
278.932
278.919
278.4
282.002
289.345
281.84
288.497
297.449
291.633
309.255
305.724
297.313
268.885
264.92
264.542
263.465
269.869
286.015
298.396
304.842
302.467
299.057
296.046
283.862
266.404
254.379
239.745
239.316
259.2
277.333
260.792
251.432
267.812
284.35
308.738
306.405
270.967
267.582
302.356
281.993
269.359
270.759
241.29
211.056
220.69
246.057
253.254
259.84
260.955
255.468
257.951
256.332
252.108
241.009
232.02
235.416
237.372
233.774
231.701
233.411
248.972
256.599
269.039
282.903
278.844
288.216
304.626
303.555
302.566
301.608
300.667
300.515
301.34
301.05
300.807
301.594
299.533
297.549
295.66
292.886
291.095
291.872
293.921
294.406
292.534
290.365
290.996
293.946
295.728
295.561
293.93
291.629
290.021
289.528
290.109
291.708
293.216
293.728
293.291
292.186
290.85
289.592
288.547
288.407
288.706
288.415
288.204
288.014
288.118
287.969
287.661
287.642
287.534
289.367
289.647
287.956
286.421
288.102
289.018
285.942
283.739
283.934
286.596
287.122
285.167
283.061
283.231
286.74
289.413
291.173
290.739
291.507
292.154
290.956
294.252
292.862
291.942
293.679
292.419
291.76
293.414
293.36
293.6
295.445
294.964
295.952
296.327
293.425
294.182
296.546
298.002
304.04
298.305
280.497
278.79
281.644
277.595
269.773
265.164
259.618
260.673
270.162
272.576
271.747
269.878
270.381
273.14
280.727
284.586
283.385
281.73
281.042
283.495
284.067
284.77
287.19
288.605
289.981
288.812
283.696
281.689
281.027
279.214
278.648
285.874
285.277
283.549
296.956
290.155
299.28
302.052
311.082
288.553
271.114
269.016
270.641
281.064
298.098
308.692
312.803
298.267
285.691
270.759
267.348
247.273
229.187
221.097
223.849
236.323
249.763
239.374
234.216
257.599
290.19
308.954
306.436
274.221
274.329
312.148
288.069
273.488
275.955
245.772
214.023
222.285
248.411
254.488
258.422
258.71
252.905
252.473
248.487
242.647
232.19
227.625
237.403
245.044
242.46
235.806
231.404
244.481
256.378
267.562
283.506
281.666
286.8
304.068
302.551
300.812
298.375
296.747
296.492
297.702
298.902
299.904
300.114
300.079
299.875
299.168
299.611
295.254
289.861
288.737
289.679
290.589
290.142
290.777
293.608
295.294
294.549
292.388
291.073
291.419
292.465
293.243
293.13
292.59
291.959
290.947
290.076
289.447
289.023
288.917
288.832
289.133
288.722
288.297
288.414
287.604
287.736
289.013
290.925
290.233
289.981
292.661
292.63
290.5
289.37
290.967
289.91
284.825
282.062
283.28
286.323
285.77
283.071
280.747
282.394
285.254
287.457
290.006
288.53
290.47
290.613
290.773
292.48
292.99
293.018
293.775
292.791
294.124
295.043
294.823
295.763
295.438
295.916
297.234
296.181
294.506
296.798
297.425
303.685
303.921
283.994
278.264
280.969
277.513
270.148
264.496
261.714
260.122
270.422
273.504
271.356
270.554
273.549
275.517
282.242
285.111
284.493
281.969
282.416
284.222
285.634
286.646
288.627
289.695
292.432
294.759
291.376
287.963
287.29
286.356
280.43
281.48
288.363
283.306
292.035
292.345
295.265
297.865
309.045
308.967
288.034
282.326
284.889
298.269
307.862
315.287
306.825
279.535
259.374
254.103
255.744
233.844
220.72
213.13
219.138
234.909
236.888
226.54
224.764
254.402
289.839
295.972
299.009
276.984
282.482
318.845
293.269
276.606
280.828
249.993
216.86
223.726
249.879
256.444
258.058
256.286
250.924
249.115
244.504
237.711
228.972
232.207
247.347
255.675
253.099
245.004
234.646
241.198
254.485
265.007
281.981
284.221
285.347
303.078
300.687
297.969
294.264
292.102
292.331
293.892
296.205
297.342
298.783
298.752
299.398
299.059
299.447
300.989
299.304
295.742
292.292
288.815
288.07
290.642
292.529
292.201
290.712
290.241
291.436
292.489
291.975
290.554
289.938
289.816
289.502
289.291
288.992
289.067
289.391
289.448
289.506
288.89
287.566
287.172
287.741
288.853
290.143
290.863
291.031
291.548
292.01
293.015
293.751
291.872
288.763
287.435
288.347
286.646
283.724
283.288
285.65
287.108
285.076
281.781
279.563
282.839
285.486
287.339
288.654
288.413
290.517
291.945
292.541
293.577
293.216
293.591
292.626
293.195
294.912
295.283
296.537
296.775
296.649
297.492
298.264
295.27
295.968
295.898
301.381
309.39
292.616
279.81
280.869
277.481
271.283
264.161
263.559
261.332
269.18
272.829
269.703
270.839
276.36
278.367
282.408
284.589
285.1
283.339
284.827
285.805
288.388
292.794
298.847
298.51
296.954
299.834
299.865
295.139
291.663
294.144
287.335
279.732
287.114
286.91
283.963
291.954
293.316
296.628
302.057
314.546
305.399
300.237
299.02
311.854
317.052
310.386
290.671
261.959
241.082
245.543
242.899
230.578
244.619
227.701
216.591
236.155
239.92
224.244
222.165
255.79
285.52
281.47
288.901
280.862
291.642
320.971
296.714
277.612
285.619
254.13
219.703
224.87
251.669
258.773
260.147
257.641
250.68
248.322
244.721
239.013
232.599
242.96
260.872
267.538
263.778
254.123
239.441
241.666
258.028
268.773
282.286
285.912
286.706
301.741
299.428
296.596
293.493
292.272
294.451
297.465
299.731
299.433
298.729
298.151
297.07
296.09
295.75
297.122
298.645
299.161
297.658
292.726
289.683
290.169
290.695
289.424
288.347
289.776
290.468
288.635
287.567
288.494
289.692
290.053
289.941
289.235
288.959
289.179
288.383
288.363
287.966
287.485
287.906
289.705
291.441
291.321
293.107
294.357
293.293
293.384
296.047
297.384
294.786
294.123
296.237
297.347
293.868
288.203
283.929
285.696
290.596
294.374
291.931
285.971
281.867
279.339
281.808
283.228
285.86
286.874
287.997
289.428
291.209
292.539
293.612
294.704
295.405
294.268
294.845
294.608
295.3
295.923
296.342
296.611
299.069
298.266
297.093
295.121
297.353
308.786
302.262
284.877
282.45
278.612
273.142
265.391