/*--------------------------------*- C++ -*----------------------------------*\
| =========                 |                                                 |
| \\      /  F ield         | OpenFOAM: The Open Source CFD Toolbox           |
|  \\    /   O peration     | Version:  dev                                   |
|   \\  /    A nd           | Web:      http://www.openfoam.org               |
|    \\/     M anipulation  |                                                 |
\*---------------------------------------------------------------------------*/
FoamFile
{
    version     2.0;
    format      ascii;
    class       volVectorField;
    object      U;
    location    "9.135";
}
// * * * * * * * * * * * * * * * * * * * * * * * * * * * * * * * * * * * * * //

dimensions      [0 1 -1 0 0 0 0];

internalField   nonuniform List<vector> 
12225
(
(7.15615 0.246134 0)
(5.53048 0.0668636 0)
(4.34578 -0.0843417 0)
(4.0155 -0.0989532 0)
(3.56795 -0.0537656 0)
(3.5566 -0.0612228 0)
(2.88928 0.034598 0)
(2.83509 -0.0556059 0)
(1.96254 0.0862484 0)
(1.85466 -0.0544769 0)
(0.970983 0.106649 0)
(0.840075 -0.0338625 0)
(0.0856656 0.0519978 0)
(0.167888 0.20791 0)
(0.220922 -0.411468 0)
(-6.61993 2.0382 0)
(9.87293 -0.408392 0)
(-11.9558 1.12113 0)
(9.81586 0.425035 0)
(10.8344 0.284469 0)
(9.6433 -0.0475166 0)
(9.8029 -0.275374 0)
(8.68449 -0.344983 0)
(9.53286 -0.405421 0)
(8.1196 -0.232626 0)
(9.74168 -0.502167 0)
(7.57424 -0.062466 0)
(10.1212 -0.570658 0)
(7.20234 -0.033259 0)
(10.9952 -0.594301 0)
(5.52475 0.132921 0)
(15.6687 -1.6437 0)
(2.80744 2.43401 0)
(9.90607 -5.87964 0)
(26.7431 -3.76223 0)
(-7.03994 9.74599 0)
(9.69843 -0.332401 0)
(12.8609 -0.232461 0)
(11.9386 -0.304047 0)
(13.3095 -0.562236 0)
(11.6514 -0.587183 0)
(13.6354 -0.677079 0)
(10.6058 -0.478228 0)
(14.4554 -0.911066 0)
(9.34811 -0.265327 0)
(15.3208 -1.15923 0)
(9.55953 -0.347988 0)
(14.2421 -0.614146 0)
(12.6546 -1.39828 0)
(13.9365 -0.703052 0)
(12.4105 3.92662 0)
(22.1845 -13.6965 0)
(5.60886 11.2741 0)
(16.3789 -3.39353 0)
(8.77829 -0.955656 0)
(13.3962 -0.966121 0)
(12.2083 -0.768783 0)
(15.413 -0.904108 0)
(12.3016 -1.10989 0)
(17.4916 -0.874445 0)
(11.1325 -0.956785 0)
(19.0018 -1.15634 0)
(9.52581 -0.591686 0)
(21.3552 -2.08581 0)
(8.75789 0.0722929 0)
(19.4571 -2.97229 0)
(12.976 -0.131859 0)
(16.4205 -2.78903 0)
(22.6373 -1.9026 0)
(17.7658 -1.08553 0)
(9.60796 2.40632 0)
(25.1698 -12.711 0)
(8.6066 -1.52064 0)
(13.1881 -2.00851 0)
(10.7015 -1.50507 0)
(17.1139 -1.6094 0)
(9.93439 -1.99773 0)
(19.9006 -1.30685 0)
(9.87225 -1.55481 0)
(19.7987 -1.68362 0)
(9.55589 -1.17127 0)
(25.4245 -2.3093 0)
(6.88974 0.528056 0)
(21.2587 -3.98924 0)
(9.94936 -0.721789 0)
(21.6951 -5.86051 0)
(12.7559 0.159688 0)
(27.1975 -3.61826 0)
(8.42583 0.0947233 0)
(27.0244 -1.08155 0)
(9.30243 -2.20783 0)
(13.9137 -2.45486 0)
(9.34337 -2.6676 0)
(17.5772 -1.39033 0)
(8.2247 -3.28214 0)
(20.4283 -1.67951 0)
(8.16624 -1.91571 0)
(18.9564 -2.05027 0)
(10.6237 -4.19069 0)
(25.4057 -2.16035 0)
(7.23148 0.661084 0)
(25.8023 -4.25638 0)
(8.40442 -2.73106 0)
(22.5748 -4.08905 0)
(2.26787 -5.30787 0)
(27.1254 -2.28487 0)
(10.3059 0.950776 0)
(19.5608 -9.89371 0)
(7.38748 -3.11275 0)
(16.4116 -2.86929 0)
(6.80827 -3.46243 0)
(19.6515 -2.30699 0)
(7.9496 -4.01787 0)
(19.546 -2.0172 0)
(9.6903 -1.90599 0)
(22.5811 -3.86165 0)
(11.0128 -4.09931 0)
(16.2953 -2.12696 0)
(12.7386 -0.616844 0)
(26.0496 -4.64093 0)
(11.2402 0.368025 0)
(22.7299 -4.06566 0)
(5.66422 -3.40783 0)
(19.8518 -8.8813 0)
(14.6772 1.92423 0)
(14.5053 -6.51241 0)
(5.17068 -4.11059 0)
(18.3607 -3.30357 0)
(5.24191 -4.81134 0)
(20.6643 -2.56919 0)
(6.96431 -4.69049 0)
(16.4291 -2.9446 0)
(16.2888 -4.0584 0)
(19.3965 -3.40332 0)
(13.2875 -3.29939 0)
(14.2344 -3.23309 0)
(19.6025 -5.04081 0)
(16.4095 -4.6515 0)
(18.3652 -2.05435 0)
(20.3276 -2.88666 0)
(18.5862 -2.65955 0)
(15.5414 -9.07691 0)
(15.5347 1.19336 0)
(17.6717 -3.23589 0)
(3.24098 -4.84313 0)
(20.5946 -3.6112 0)
(3.06361 -5.47619 0)
(20.5995 -3.50858 0)
(9.78072 -3.47273 0)
(14.9945 -5.79495 0)
(17.7542 -4.89573 0)
(14.7413 -3.47075 0)
(17.2797 -3.262 0)
(16.1846 -5.59625 0)
(19.5739 -3.74482 0)
(14.0948 -5.67584 0)
(19.6489 -2.22755 0)
(15.4202 -4.68682 0)
(22.8835 -1.31635 0)
(15.2378 -8.20247 0)
(18.2018 -1.34051 0)
(21.9668 -4.74929 0)
(2.43963 -5.87377 0)
(20.7721 -4.17132 0)
(5.64104 -5.76611 0)
(17.7336 -5.57234 0)
(13.2623 -3.64631 0)
(17.7339 -6.66709 0)
(14.0683 -4.67922 0)
(15.5787 -4.17482 0)
(18.4743 -4.97892 0)
(16.8292 -4.94136 0)
(17.927 -4.07826 0)
(15.3053 -5.80776 0)
(17.7391 -3.54248 0)
(17.5614 -5.75291 0)
(19.4392 -4.01328 0)
(18.0334 -5.39523 0)
(16.8235 -5.91782 0)
(16.6344 -4.55056 0)
(6.01566 -6.95846 0)
(17.2197 -5.64267 0)
(10.1635 -5.52106 0)
(16.2778 -7.21235 0)
(12.72 -4.85106 0)
(17.4176 -6.90775 0)
(13.4835 -5.14991 0)
(17.3351 -6.11961 0)
(15.7164 -5.33101 0)
(16.9001 -5.96348 0)
(16.729 -4.57634 0)
(16.9435 -6.63687 0)
(16.839 -5.10758 0)
(17.6912 -6.17886 0)
(16.8546 -4.45254 0)
(17.03 -5.89164 0)
(16.7089 -4.88288 0)
(15.6189 -4.67588 0)
(8.66997 -7.79329 0)
(13.328 -6.99399 0)
(11.6467 -6.64657 0)
(15.0248 -7.86951 0)
(12.7117 -5.83925 0)
(16.5748 -7.62735 0)
(13.9908 -6.03794 0)
(16.7326 -6.66002 0)
(15.7838 -6.19367 0)
(16.5281 -6.52744 0)
(16.597 -5.64321 0)
(16.9084 -6.8664 0)
(17.0219 -5.65058 0)
(16.457 -6.25166 0)
(16.9282 -5.60594 0)
(16.4222 -5.79241 0)
(16.7975 -5.79974 0)
(16.5225 -5.47578 0)
(9.90385 -8.68785 0)
(11.925 -8.12765 0)
(12.2664 -7.75804 0)
(13.9137 -8.71763 0)
(13.3718 -7.12415 0)
(15.4714 -8.4729 0)
(14.586 -6.90999 0)
(16.2886 -7.73566 0)
(16.0568 -7.14363 0)
(16.6127 -7.24214 0)
(16.9366 -6.70893 0)
(16.9261 -7.45687 0)
(17.0377 -6.94832 0)
(17.0339 -6.60773 0)
(17.1512 -6.36936 0)
(16.9222 -6.4383 0)
(17.0597 -6.33304 0)
(16.888 -5.815 0)
(10.2116 -9.62087 0)
(11.6416 -9.30083 0)
(12.7307 -8.846 0)
(13.6595 -9.42158 0)
(14.0174 -8.39709 0)
(15.0258 -9.19349 0)
(15.235 -8.09132 0)
(16.2522 -8.56279 0)
(16.4008 -8.11618 0)
(16.7353 -8.01163 0)
(17.1834 -7.7569 0)
(17.2419 -7.94134 0)
(17.2181 -7.54767 0)
(17.2525 -7.16979 0)
(17.4063 -7.11298 0)
(17.3059 -6.95139 0)
(17.2908 -6.78303 0)
(17.2384 -6.49867 0)
(10.128 -10.6793 0)
(11.4833 -10.4531 0)
(12.6091 -9.97921 0)
(13.445 -10.2902 0)
(14.1845 -9.63275 0)
(14.926 -9.95762 0)
(15.4897 -9.36022 0)
(16.2273 -9.44839 0)
(16.5704 -9.17922 0)
(16.8564 -8.92693 0)
(17.2212 -8.69146 0)
(17.3644 -8.61674 0)
(17.4077 -8.30301 0)
(17.5543 -7.97297 0)
(17.6715 -7.75682 0)
(17.6242 -7.51495 0)
(17.5788 -7.2829 0)
(17.5031 -6.98782 0)
(10.2364 -11.5087 0)
(11.4778 -11.1882 0)
(12.5037 -10.8774 0)
(13.4213 -11.0102 0)
(14.2313 -10.6763 0)
(14.9747 -10.7116 0)
(15.6284 -10.3219 0)
(16.2489 -10.1627 0)
(16.6547 -9.9209 0)
(16.9892 -9.63737 0)
(17.2964 -9.35823 0)
(17.5139 -9.17575 0)
(17.6591 -8.84773 0)
(17.8174 -8.57052 0)
(17.9482 -8.32031 0)
(17.979 -8.05196 0)
(18.0472 -7.79571 0)
(18.0656 -7.47134 0)
(10.1278 -12.0874 0)
(11.4922 -11.8646 0)
(12.5871 -11.6196 0)
(13.6012 -11.5893 0)
(14.4277 -11.3745 0)
(15.1948 -11.256 0)
(15.8926 -10.9583 0)
(16.5064 -10.7198 0)
(17.0176 -10.4521 0)
(17.4102 -10.1426 0)
(17.8114 -9.8724 0)
(18.1114 -9.59883 0)
(18.3214 -9.28916 0)
(18.5503 -9.01288 0)
(18.696 -8.72792 0)
(18.7996 -8.46091 0)
(18.8682 -8.14737 0)
(18.9159 -7.81172 0)
(10.3655 -12.0786 0)
(11.7579 -11.8525 0)
(12.7969 -11.6995 0)
(13.7559 -11.6329 0)
(14.6184 -11.4678 0)
(15.4408 -11.3063 0)
(16.2162 -11.0829 0)
(16.8675 -10.8738 0)
(17.4154 -10.6196 0)
(17.8735 -10.3416 0)
(18.2896 -10.0374 0)
(18.6406 -9.73906 0)
(18.9407 -9.41785 0)
(19.1755 -9.09692 0)
(19.3347 -8.7879 0)
(19.5184 -8.50473 0)
(19.643 -8.17493 0)
(19.7044 -7.85476 0)
(10.39 -11.9549 0)
(11.9281 -11.5346 0)
(13.066 -11.2902 0)
(14.1223 -11.2052 0)
(15.0469 -11.1074 0)
(15.9061 -10.9917 0)
(16.6636 -10.7813 0)
(17.3077 -10.5476 0)
(17.8553 -10.2752 0)
(18.3607 -9.97545 0)
(18.77 -9.68356 0)
(19.1446 -9.37878 0)
(19.5116 -9.11068 0)
(19.7515 -8.80731 0)
(19.9607 -8.50053 0)
(20.1528 -8.20306 0)
(20.3013 -7.908 0)
(20.4069 -7.60818 0)
(10.3182 -11.05 0)
(11.7818 -10.6917 0)
(12.9386 -10.5315 0)
(14.0964 -10.4529 0)
(15.1058 -10.3116 0)
(16.0593 -10.1288 0)
(16.8817 -9.93293 0)
(17.5753 -9.74858 0)
(18.1402 -9.55171 0)
(18.6783 -9.32007 0)
(19.1188 -9.06788 0)
(19.5283 -8.77597 0)
(19.9133 -8.47793 0)
(20.2713 -8.20952 0)
(20.5325 -7.89335 0)
(20.7361 -7.6068 0)
(20.9264 -7.33807 0)
(21.0859 -7.06415 0)
(10.2321 -9.92997 0)
(11.9052 -9.77146 0)
(13.1704 -9.65455 0)
(14.3136 -9.61828 0)
(15.274 -9.50403 0)
(16.2184 -9.30616 0)
(17.0784 -9.07481 0)
(17.8298 -8.84319 0)
(18.4688 -8.59611 0)
(19.0434 -8.40907 0)
(19.5231 -8.19545 0)
(19.9745 -7.99335 0)
(20.3261 -7.75508 0)
(20.6952 -7.52129 0)
(20.9951 -7.25829 0)
(21.253 -6.9725 0)
(21.4364 -6.67481 0)
(21.6288 -6.38134 0)
(10.5678 -8.76217 0)
(12.0213 -8.63554 0)
(13.2445 -8.48204 0)
(14.3736 -8.36181 0)
(15.3871 -8.24752 0)
(16.3121 -8.12587 0)
(17.1627 -7.98707 0)
(17.9619 -7.82879 0)
(18.6737 -7.66055 0)
(19.327 -7.47315 0)
(19.9141 -7.27599 0)
(20.386 -7.05866 0)
(20.7854 -6.85024 0)
(21.1238 -6.61821 0)
(21.4047 -6.38663 0)
(21.6783 -6.17467 0)
(21.862 -5.92068 0)
(22.044 -5.68388 0)
(10.4644 -7.53614 0)
(12.066 -7.42824 0)
(13.3572 -7.37816 0)
(14.6013 -7.33384 0)
(15.7169 -7.24276 0)
(16.7096 -7.09556 0)
(17.5943 -6.9575 0)
(18.3928 -6.82379 0)
(19.0832 -6.68778 0)
(19.7132 -6.52867 0)
(20.2657 -6.35105 0)
(20.7073 -6.16451 0)
(21.0934 -5.94761 0)
(21.4363 -5.73116 0)
(21.7294 -5.5111 0)
(22.0064 -5.3039 0)
(22.2248 -5.0997 0)
(22.4358 -4.8829 0)
(10.3464 -6.27394 0)
(11.9408 -6.26481 0)
(13.3714 -6.28647 0)
(14.7183 -6.24143 0)
(15.8709 -6.11733 0)
(16.8566 -5.98535 0)
(17.7209 -5.86624 0)
(18.5085 -5.75027 0)
(19.2322 -5.61827 0)
(19.8825 -5.45435 0)
(20.4358 -5.32232 0)
(20.9031 -5.17855 0)
(21.2963 -5.01376 0)
(21.6532 -4.83444 0)
(21.9624 -4.66325 0)
(22.2527 -4.48963 0)
(22.5121 -4.309 0)
(22.7572 -4.13804 0)
(10.1235 -5.1342 0)
(12.0203 -5.27339 0)
(13.586 -5.33942 0)
(14.967 -5.26724 0)
(16.1452 -5.12066 0)
(17.1271 -4.95846 0)
(18.0038 -4.85112 0)
(18.8451 -4.75554 0)
(19.6088 -4.66386 0)
(20.2827 -4.54283 0)
(20.8572 -4.43095 0)
(21.342 -4.31789 0)
(21.7631 -4.16249 0)
(22.1119 -4.01907 0)
(22.4199 -3.86515 0)
(22.6933 -3.72374 0)
(22.9362 -3.56729 0)
(23.159 -3.42105 0)
(10.3933 -4.20693 0)
(12.1055 -4.37913 0)
(13.6271 -4.37639 0)
(15.0334 -4.2567 0)
(16.2374 -4.11066 0)
(17.2679 -3.99292 0)
(18.1934 -3.90525 0)
(19.0402 -3.8396 0)
(19.8055 -3.7732 0)
(20.4583 -3.68226 0)
(21.0135 -3.57612 0)
(21.4754 -3.45433 0)
(21.8675 -3.32543 0)
(22.1869 -3.21696 0)
(22.4593 -3.09314 0)
(22.7026 -2.97535 0)
(22.9157 -2.83832 0)
(23.1134 -2.69942 0)
(10.3515 -3.25074 0)
(12.3892 -3.48968 0)
(14.0615 -3.52818 0)
(15.4459 -3.41981 0)
(16.5554 -3.26702 0)
(17.5111 -3.10498 0)
(18.3489 -3.01538 0)
(19.0896 -2.96638 0)
(19.7207 -2.9245 0)
(20.2474 -2.85128 0)
(20.7015 -2.77196 0)
(21.0626 -2.65822 0)
(21.3718 -2.54827 0)
(21.614 -2.45537 0)
(21.8179 -2.35431 0)
(21.9894 -2.25217 0)
(22.1373 -2.14783 0)
(22.2521 -2.04719 0)
(10.3921 -2.3775 0)
(12.5606 -2.74014 0)
(13.9998 -2.68581 0)
(15.0583 -2.52213 0)
(15.8756 -2.36583 0)
(16.606 -2.24484 0)
(17.2255 -2.17169 0)
(17.7358 -2.12151 0)
(18.1294 -2.07234 0)
(18.4261 -1.987 0)
(18.6895 -1.90924 0)
(18.8744 -1.8293 0)
(19.0481 -1.74832 0)
(19.1711 -1.65859 0)
(19.2887 -1.5911 0)
(19.382 -1.49526 0)
(19.4621 -1.41642 0)
(19.5164 -1.34862 0)
(10.4154 -1.92056 0)
(12.0275 -2.15919 0)
(12.6654 -1.9369 0)
(12.982 -1.69781 0)
(13.2408 -1.4662 0)
(13.5579 -1.30964 0)
(13.8921 -1.2114 0)
(14.2107 -1.15605 0)
(14.483 -1.11416 0)
(14.73 -1.07071 0)
(14.9646 -1.02864 0)
(15.1538 -0.999199 0)
(15.3502 -0.951424 0)
(15.4982 -0.906348 0)
(15.6661 -0.870635 0)
(15.799 -0.818446 0)
(15.9343 -0.79154 0)
(16.0237 -0.770619 0)
(9.03373 -0.841736 0)
(8.17501 -0.784766 0)
(7.5054 -0.536255 0)
(7.38845 -0.415376 0)
(7.67731 -0.362775 0)
(8.18793 -0.351349 0)
(8.74973 -0.357453 0)
(9.27317 -0.357556 0)
(9.72741 -0.352212 0)
(10.1154 -0.345689 0)
(10.4531 -0.332664 0)
(10.7481 -0.3221 0)
(11.0177 -0.304123 0)
(11.2616 -0.287049 0)
(11.4988 -0.268853 0)
(11.6936 -0.250102 0)
(11.934 -0.258982 0)
(11.9901 -0.201368 0)
(-0.0293817 0.161959 0)
(0.190646 -0.0986872 0)
(0.620633 -0.24304 0)
(1.11203 -0.263792 0)
(1.60167 -0.198513 0)
(2.03321 -0.168771 0)
(2.43365 -0.126074 1.13103e-17)
(2.78031 -0.0371189 -1.12016e-17)
(3.03814 0.0480335 0)
(3.24075 0.0946849 -1.10116e-17)
(3.41802 0.140642 0)
(3.55724 0.220922 0)
(3.63762 0.284649 0)
(3.66798 0.320722 1.06973e-17)
(3.63856 0.3671 0)
(3.59369 0.421943 0)
(3.5315 0.491636 -1.05157e-17)
(3.34929 0.515487 0)
(3.08834 0.484362 0)
(2.80067 0.567281 0)
(2.34717 0.817842 1.04135e-17)
(1.81455 0.959022 0)
(1.653 0.692082 1.02707e-17)
(1.94763 0.121337 0)
(2.33238 -0.500415 0)
(2.57641 -1.01034 1.01735e-17)
(2.71295 -1.09116 0)
(2.75774 -0.729472 -1.01301e-17)
(2.58219 -0.135932 0)
(2.10267 0.303299 1.01247e-17)
(1.54002 0.473341 0)
(0.94143 0.5207 0)
(0.298239 0.543952 0)
(-0.339465 0.540398 0)
(-0.966436 0.519181 0)
(-1.56223 0.484742 -9.71021e-18)
(-2.16252 0.43489 0)
(-2.73044 0.392084 1.9115e-17)
(-3.23835 0.3403 0)
(-3.70161 0.285053 -1.88148e-17)
(-4.12195 0.227709 0)
(-4.51256 0.165188 0)
(-4.8602 0.0935734 1.83647e-17)
(-5.17526 0.0256535 0)
(-5.48512 -0.0304647 1.80611e-17)
(-5.8058 -0.0805747 -1.79087e-17)
(-6.10744 -0.114133 0)
(-6.40661 -0.138765 -1.76046e-17)
(-6.75134 -0.154373 -1.74529e-17)
(-7.11658 -0.159216 0)
(-7.48931 -0.162596 0)
(-7.883 -0.161683 0)
(-8.28718 -0.169454 0)
(-8.69348 -0.175418 0)
(-9.09293 -0.173102 1.65461e-17)
(-9.46979 -0.179197 0)
(-9.80178 -0.204031 -1.62473e-17)
(-10.0893 -0.236234 0)
(-10.3313 -0.252255 0)
(-10.525 -0.279149 1.58081e-17)
(-10.6375 -0.307137 0)
(-10.7001 -0.32308 -1.55233e-17)
(-10.7522 -0.32307 0)
(-10.7692 -0.323445 0)
(-10.7572 -0.304802 0)
(-10.7847 -0.279681 1.4962e-17)
(-10.8199 -0.251748 0)
(-10.8473 -0.234613 0)
(-10.8681 -0.218194 1.45378e-17)
(-10.8655 -0.203725 0)
(-10.8531 -0.183417 1.42614e-17)
(-10.8349 -0.159092 0)
(-10.8289 -0.124127 0)
(-10.8539 -0.108983 0)
(-10.892 -0.105427 -1.3742e-17)
(-10.8812 -0.106806 0)
(-10.8074 -0.108868 0)
(-10.6716 -0.0975523 -1.33644e-17)
(-10.4909 -0.0967491 -1.32438e-17)
(-10.3367 -0.108251 0)
(-10.1864 -0.119262 -1.3001e-17)
(-9.99416 -0.122645 0)
(-9.72074 -0.104404 -2.55238e-17)
(-9.4397 -0.0878111 0)
(-9.22739 -0.0263754 -2.50678e-17)
(-9.05856 0.0466908 0)
(-8.97844 0.0975827 2.46226e-17)
(-9.01656 0.137874 0)
(-9.18874 0.203863 0)
(-9.43785 0.308531 0)
(-9.61093 0.321244 -2.34029e-17)
(-9.40475 0.196061 0)
(-8.81895 0.128777 2.29726e-17)
(-8.17398 0.187779 0)
(-7.77522 0.222844 -2.27743e-17)
(-7.58828 0.198643 -2.24743e-17)
(-7.19255 0.128089 -2.21081e-17)
(-6.60644 0.120712 0)
(-5.95119 0.497886 0)
(-5.27028 0.775467 0)
(-4.5533 0.130659 0)
(-3.60095 -0.597982 0)
(-2.94407 -0.494036 0)
(-3.05171 0.292504 0)
(-3.97259 0.869466 0)
(-5.22296 0.968292 2.13571e-17)
(-6.79186 1.25472 2.1207e-17)
(-8.76283 1.54462 0)
(-10.451 1.49361 0)
(-11.7594 1.33094 0)
(-12.6288 1.21531 2.11611e-17)
(-12.8155 0.943577 0)
(-12.5014 0.710986 0)
(-11.8998 0.595649 0)
(-11.0076 0.47068 0)
(-9.37933 0.169389 -2.09117e-17)
(-6.8321 -0.316683 0)
(-3.39301 -0.815022 0)
(0.455563 -1.08091 2.09623e-17)
(4.1837 -0.181496 -2.04299e-17)
(5.73237 0.209625 0)
(6.58103 0.826052 -2.01477e-17)
(5.88945 1.07299 0)
(4.74082 0.784473 1.91761e-17)
(4.63026 0.483094 0)
(5.16563 0.658855 0)
(4.9731 0.798791 0)
(4.53763 0.660986 0)
(4.32742 0.577665 0)
(4.21656 0.666891 -3.64908e-17)
(3.997 0.545172 -3.62773e-17)
(3.70421 0.384514 0)
(3.5473 0.368424 0)
(3.45413 0.364599 0)
(3.2212 0.364321 3.49863e-17)
(3.19034 0.297576 0)
(3.19494 0.345385 0)
(3.14224 0.376319 0)
(2.89458 0.374493 3.37391e-17)
(2.63112 0.342335 -3.34076e-17)
(2.46923 0.358242 0)
(2.25872 0.410996 0)
(1.90461 0.369024 -3.25052e-17)
(1.41753 0.358212 -3.21588e-17)
(0.970459 0.312815 0)
(0.504282 0.30421 0)
(0.18334 0.308897 3.10643e-17)
(-0.13818 0.309244 -3.0684e-17)
(-0.400097 0.322055 0)
(-0.497762 0.371022 0)
(-0.658757 0.461642 -2.95635e-17)
(-0.591962 0.470151 0)
(-0.478083 0.434323 0)
(-0.778552 0.512249 -2.85345e-17)
(-0.909958 0.504674 0)
(-1.02865 0.516033 -2.78471e-17)
(-1.46987 0.698574 0)
(-2.55513 0.926362 0)
(-3.56004 0.866016 0)
(-3.29947 0.724747 2.63999e-17)
(-2.557 0.686492 0)
(-1.68457 0.40765 0)
(-0.910135 0.207137 0)
(-0.475136 0.324901 0)
(-0.137496 0.240564 0)
(0.204475 0.295506 0)
(-0.246526 0.638527 2.8418e-17)
(-1.44729 0.826776 2.84276e-17)
(-2.18187 0.78993 0)
(-2.42689 0.601247 0)
(-3.26652 0.715588 0)
(-5.43033 1.04555 -2.82495e-17)
(-5.4557 0.898972 0)
(-3.82572 0.337586 5.69963e-17)
(0.459492 0.175932 -5.80058e-17)
(3.89869 0.60608 -5.63701e-17)
(3.49555 0.560523 5.57452e-17)
(4.72022 0.5001 -5.55504e-17)
(6.34592 0.588087 5.52587e-17)
(7.59981 0.566301 0)
(-0.0340176 0.44821 0)
(0.249981 -0.382267 0)
(0.694746 -0.82021 -2.38746e-17)
(1.18517 -0.892533 0)
(1.67703 -0.73667 2.31207e-17)
(2.11484 -0.631924 2.28213e-17)
(2.51788 -0.502417 1.12693e-17)
(2.89365 -0.262928 1.1163e-17)
(3.20628 -0.0252318 0)
(3.46809 0.106578 1.09527e-17)
(3.70514 0.18428 0)
(3.91081 0.377648 0)
(4.01066 0.556913 -2.13265e-17)
(4.01641 0.620688 -1.05951e-17)
(4.02296 0.73598 2.10896e-17)
(4.009 0.902065 2.09986e-17)
(3.86612 1.01886 1.04181e-17)
(3.60095 1.32483 0)
(3.39734 1.65038 0)
(3.38209 1.74206 0)
(3.54333 1.82963 1.01772e-17)
(3.6494 1.33656 0)
(3.46073 0.0573658 -2.97484e-17)
(3.1016 -0.64757 0)
(2.54167 0.130704 0)
(1.51103 1.24686 -1.02209e-17)
(0.169422 1.71311 0)
(-1.04806 1.91389 1.02792e-17)
(-2.04678 2.07768 2.0442e-17)
(-2.92717 2.1432 -1.01653e-17)
(-3.71474 2.11349 0)
(-4.48283 2.05482 0)
(-5.17362 1.97595 0)
(-5.81716 1.85216 1.97496e-17)
(-6.40221 1.70342 1.96137e-17)
(-6.94216 1.51589 9.74513e-18)
(-7.42396 1.31829 0)
(-7.84835 1.09515 -1.92097e-17)
(-8.21969 0.859185 0)
(-8.53223 0.633115 1.89041e-17)
(-8.81502 0.410668 0)
(-9.07534 0.206445 0)
(-9.3036 0.0261695 -1.84169e-17)
(-9.5189 -0.126755 0)
(-9.74099 -0.248172 -5.42751e-17)
(-9.97076 -0.345212 1.79407e-17)
(-10.2056 -0.419998 0)
(-10.455 -0.462369 1.76351e-17)
(-10.7202 -0.493651 1.74828e-17)
(-10.9945 -0.542778 0)
(-11.2724 -0.598664 0)
(-11.5552 -0.651585 0)
(-11.8252 -0.712006 0)
(-12.0786 -0.779074 0)
(-12.3255 -0.854244 -1.65742e-17)
(-12.5457 -0.939706 -3.28453e-17)
(-12.7107 -1.05084 1.62726e-17)
(-12.8095 -1.14999 0)
(-12.8806 -1.24371 -3.19519e-17)
(-12.8931 -1.34569 1.58318e-17)
(-12.7826 -1.44022 0)
(-12.6711 -1.45852 1.55364e-17)
(-12.5501 -1.43737 0)
(-12.3557 -1.44209 0)
(-12.1873 -1.35004 3.01928e-17)
(-12.1197 -1.22531 -1.49366e-17)
(-12.0402 -1.13795 2.95749e-17)
(-11.9877 -1.07546 -2.92543e-17)
(-11.9139 -1.01983 -1.44583e-17)
(-11.7748 -0.956926 0)
(-11.6129 -0.890529 -1.41334e-17)
(-11.4248 -0.793969 0)
(-11.2689 -0.640884 0)
(-11.1795 -0.515875 0)
(-11.1362 -0.453063 -1.35413e-17)
(-11.1093 -0.475741 0)
(-10.9643 -0.531732 -2.65838e-17)
(-10.6681 -0.541449 3.94875e-17)
(-10.325 -0.47419 1.30179e-17)
(-10.0701 -0.404282 0)
(-9.79956 -0.361874 1.27425e-17)
(-9.43948 -0.379838 0)
(-9.04852 -0.35664 2.4926e-17)
(-8.73494 -0.31284 0)
(-8.54433 -0.190253 2.43092e-17)
(-8.49654 -0.0830639 -4.79988e-17)
(-8.55088 0.146517 -2.36987e-17)
(-8.60636 0.450186 0)
(-8.76808 0.656652 0)
(-8.9988 0.653891 0)
(-9.1422 0.361405 2.25551e-17)
(-8.87163 -0.265935 0)
(-8.20045 -0.678946 -2.21516e-17)
(-7.24194 -0.420485 0)
(-6.54794 0.155052 6.56434e-17)
(-6.36352 0.373122 2.15338e-17)
(-5.67481 0.153701 2.1111e-17)
(-4.67375 0.120248 0)
(-3.77952 -0.200295 0)
(-2.60878 -0.469057 0)
(-2.64767 0.196874 0)
(-4.45937 1.34356 0)
(-6.6223 2.23286 4.26398e-17)
(-8.45531 2.85643 4.26914e-17)
(-10.1924 3.3258 0)
(-12.1031 3.82139 -2.17495e-17)
(-13.8164 4.06106 -2.2055e-17)
(-15.0356 3.87821 0)
(-15.7255 3.44446 -4.37809e-17)
(-16.0214 2.81381 0)
(-15.7846 2.10701 2.17239e-17)
(-15.1711 1.47052 0)
(-14.344 1.03962 0)
(-13.315 0.703592 -4.28982e-17)
(-11.9602 0.179138 0)
(-9.76201 -0.781137 2.10914e-17)
(-7.15532 -1.86976 0)
(-3.62797 -2.68705 0)
(-1.22161 -3.03594 2.09979e-17)
(3.13127 -0.964261 2.00522e-17)
(4.11427 0.14421 0)
(5.55922 1.4007 -2.01392e-17)
(6.07099 2.10432 0)
(5.89231 2.14934 1.92641e-17)
(5.98198 1.47636 3.80673e-17)
(6.98227 1.2617 0)
(7.58626 1.57722 0)
(7.6874 1.64078 0)
(7.50565 1.33485 0)
(7.55973 1.28728 3.59773e-17)
(7.6239 1.26607 1.06061e-16)
(7.48521 1.17547 0)
(7.17927 1.01269 0)
(7.00934 0.855952 0)
(6.60563 0.784053 -3.33721e-17)
(6.31379 0.541491 0)
(6.22686 0.365606 0)
(6.29333 0.401548 6.44873e-17)
(6.1665 0.440908 3.19598e-17)
(5.9859 0.337482 3.16031e-17)
(6.13288 0.284016 0)
(6.43355 0.526495 0)
(6.46993 0.573943 3.06823e-17)
(6.10556 0.64283 -3.04158e-17)
(5.61155 0.615125 0)
(5.09326 0.617539 0)
(4.54679 0.636606 -2.93085e-17)
(3.85181 0.601565 8.667e-17)
(3.26061 0.496932 0)
(2.90055 0.278779 0)
(2.412 0.133647 2.72742e-17)
(2.3434 0.1028 0)
(2.39783 0.215049 5.2662e-17)
(2.06827 0.436243 -2.58527e-17)
(1.92585 0.450981 0)
(1.65186 0.6062 2.53037e-17)
(0.958895 1.01626 4.90979e-17)
(-0.0802899 1.16771 0)
(-0.604743 0.629552 0)
(0.280428 0.00859397 -2.19396e-17)
(1.51687 -0.154877 0)
(1.87254 0.133095 4.88781e-17)
(1.12071 0.728335 0)
(0.307804 0.963318 0)
(-0.657923 1.1125 0)
(-2.15179 1.57778 0)
(-3.95137 2.16292 -2.78472e-17)
(-4.83678 2.06469 -2.83369e-17)
(-5.03211 1.86889 0)
(-5.67761 2.08044 0)
(-7.85305 2.68222 0)
(-10.0654 2.14114 2.90656e-17)
(-7.20118 0.66097 0)
(-3.88119 -0.521057 -5.82764e-17)
(-0.415022 -1.49765 6.14019e-17)
(5.97411 0.761325 5.74852e-17)
(5.64122 1.41769 5.53186e-17)
(7.42106 0.888695 5.56852e-17)
(9.81154 1.29092 5.51642e-17)
(11.6926 1.50612 0)
(-0.0179281 0.628119 0)
(0.358495 -0.756274 0)
(0.806545 -1.39684 2.40584e-17)
(1.23209 -1.47314 2.35933e-17)
(1.64128 -1.25204 -2.32711e-17)
(2.031 -1.03688 -2.30273e-17)
(2.37691 -0.800716 -2.50356e-20)
(2.73348 -0.483724 0)
(3.05861 -0.201215 0)
(3.38855 0.0233827 0)
(3.66776 0.243973 0)
(3.84853 0.615634 0)
(3.95575 1.10005 6.5106e-17)
(3.94726 1.34837 0)
(3.87937 1.4075 -2.16003e-17)
(3.83708 1.72784 -2.14837e-17)
(3.72438 2.22977 0)
(3.45628 2.30909 0)
(3.11125 1.83562 0)
(2.6445 1.47082 0)
(2.01545 1.56212 -2.03181e-17)
(1.35502 1.99471 0)
(0.0854097 2.69647 2.09689e-17)
(-1.65553 3.2956 0)
(-3.01015 3.54957 0)
(-3.991 3.66417 0)
(-4.72033 3.69802 4.17574e-17)
(-5.38028 3.73417 0)
(-5.97087 3.68784 -2.0615e-17)
(-6.4615 3.57977 4.08801e-17)
(-6.94071 3.41077 0)
(-7.36678 3.20361 0)
(-7.73404 2.96783 0)
(-8.09831 2.68326 -1.98586e-17)
(-8.39751 2.39587 -1.97086e-17)
(-8.66242 2.08081 0)
(-8.91143 1.73394 0)
(-9.12745 1.38666 3.84288e-17)
(-9.33128 1.03702 3.80848e-17)
(-9.51559 0.699287 -3.77435e-17)
(-9.67777 0.393539 0)
(-9.85686 0.118089 0)
(-10.0353 -0.117897 0)
(-10.2104 -0.3312 0)
(-10.3876 -0.533473 3.6284e-17)
(-10.5699 -0.68558 3.59837e-17)
(-10.7233 -0.80137 -3.57083e-17)
(-10.8686 -0.899253 0)
(-11.0839 -0.991583 0)
(-11.3016 -1.08979 0)
(-11.5108 -1.19032 0)
(-11.7259 -1.28507 3.42309e-17)
(-11.9401 -1.38803 0)
(-12.1624 -1.5054 0)
(-12.3802 -1.64804 3.3307e-17)
(-12.6048 -1.77755 3.30082e-17)
(-12.7756 -1.90828 0)
(-12.8777 -2.03117 -6.4865e-17)
(-12.9575 -2.21703 3.21373e-17)
(-13.0028 -2.35996 -3.18527e-17)
(-12.9058 -2.52309 0)
(-12.7688 -2.55892 0)
(-12.62 -2.52347 0)
(-12.34 -2.50598 0)
(-12.0974 -2.30085 -3.03707e-17)
(-11.9608 -2.00991 -6.01953e-17)
(-11.8087 -1.845 -2.9796e-17)
(-11.8296 -1.71195 2.95091e-17)
(-11.8631 -1.69897 0)
(-11.8465 -1.68422 -5.78659e-17)
(-11.7364 -1.58922 -5.71952e-17)
(-11.5536 -1.48649 -5.64576e-17)
(-11.3979 -1.24022 5.56353e-17)
(-11.2465 -0.944163 0)
(-11.1087 -0.706371 8.12882e-17)
(-11.0751 -0.772546 0)
(-11.0138 -1.00223 -2.69447e-17)
(-10.7083 -1.1236 -2.66367e-17)
(-10.2774 -0.948278 0)
(-9.98763 -0.871119 0)
(-9.67628 -0.864983 -5.12702e-17)
(-9.18186 -0.899729 0)
(-8.59371 -0.809705 -5.05218e-17)
(-8.1312 -0.524586 0)
(-7.734 -0.0341777 4.92918e-17)
(-7.33931 0.338587 9.60553e-17)
(-7.23724 0.530541 0)
(-7.40359 0.684979 0)
(-7.56614 0.877854 0)
(-7.73577 1.06532 4.59746e-17)
(-7.88638 0.782166 0)
(-7.95061 -0.0342626 4.62931e-17)
(-7.84506 -0.838959 0)
(-7.35765 -0.734427 0)
(-6.66988 0.254378 -8.90531e-17)
(-5.71373 0.517322 0)
(-4.65841 -0.3448 -4.17313e-17)
(-3.51834 -0.794873 0)
(-3.49146 0.0278856 -4.13416e-17)
(-4.92364 1.66054 0)
(-6.83742 3.18935 0)
(-8.72927 4.16568 0)
(-10.5737 4.7974 -1.28501e-16)
(-12.2295 5.47307 -4.31916e-17)
(-13.6712 5.98666 0)
(-14.98 6.24761 0)
(-15.7854 6.10047 0)
(-15.9207 5.41222 0)
(-15.7497 4.60902 4.28322e-17)
(-15.3087 3.69482 -8.46955e-17)
(-14.6375 2.71126 -4.18787e-17)
(-13.8888 1.97074 8.32323e-17)
(-13.0153 1.39607 8.29438e-17)
(-11.9919 0.852726 4.14477e-17)
(-10.8221 0.0784546 0)
(-9.00585 -1.1061 8.19731e-17)
(-7.13381 -2.54858 0)
(-4.6891 -3.40176 -8.26177e-17)
(-3.33929 -3.98935 -4.07156e-17)
(0.234511 -1.2943 0)
(0.879351 0.55053 7.56014e-17)
(2.41495 1.87969 3.89615e-17)
(3.23777 2.87575 0)
(4.03548 3.08112 3.94949e-17)
(4.96627 1.97104 -1.14993e-16)
(6.74011 1.7186 0)
(7.89347 2.26738 0)
(8.35088 2.66065 0)
(8.35669 2.52889 0)
(8.23024 2.17114 -7.37171e-17)
(8.27288 1.96947 -7.18109e-17)
(8.43666 1.86488 0)
(8.30192 1.70973 0)
(8.16282 1.59018 0)
(7.94521 1.47643 0)
(7.58712 1.18335 0)
(7.27281 0.885434 0)
(7.34336 0.752548 -6.42032e-17)
(7.26437 0.895068 4.81003e-20)
(6.94358 0.610907 0)
(7.04819 0.442941 0)
(7.65795 0.604284 -6.19227e-17)
(8.12483 0.796175 0)
(8.45974 1.01573 6.00039e-17)
(8.45197 1.08679 5.91514e-17)
(8.13146 1.15648 0)
(7.68629 1.18424 0)
(7.00072 1.24811 -5.66736e-17)
(6.45093 1.14847 -1.11759e-16)
(6.28138 1.02847 0)
(5.62735 1.04377 0)
(4.99456 0.755002 0)
(4.55009 0.613097 -5.12792e-17)
(3.86496 0.845028 4.95352e-17)
(3.34674 0.878789 0)
(3.06086 1.13589 9.72236e-17)
(2.39241 1.77973 4.70144e-17)
(1.56502 1.9228 -8.76593e-17)
(1.32183 1.13576 0)
(1.73691 0.487931 0)
(1.92356 0.734844 -9.12486e-17)
(1.68696 1.49979 -4.92642e-17)
(0.422326 1.9083 0)
(-0.801715 2.51426 0)
(-2.23885 2.57938 0)
(-4.55384 3.36968 0)
(-6.21343 3.95897 -1.13996e-16)
(-6.18962 3.23005 0)
(-6.16897 2.99836 0)
(-6.97822 3.74048 0)
(-9.20761 4.79099 0)
(-9.98681 2.91468 0)
(-6.88446 -0.0266838 0)
(-1.49588 -0.913657 -1.15626e-16)
(-2.38942 -2.88545 0)
(5.62451 0.523608 0)
(6.54372 2.36309 -2.26373e-16)
(8.40996 1.44465 1.15037e-16)
(11.4333 1.81593 -1.16919e-16)
(13.9893 2.19706 1.15322e-16)
(0.0222158 0.600151 0)
(0.445132 -1.29726 -4.87579e-17)
(0.794798 -1.91298 0)
(1.05921 -1.88245 -2.31945e-17)
(1.28736 -1.62031 0)
(1.55163 -1.36182 0)
(1.78674 -1.11103 2.2707e-17)
(2.06519 -0.84602 0)
(2.29469 -0.62447 0)
(2.55301 -0.398284 0)
(2.73902 0.019776 0)
(2.86766 0.634932 0)
(2.87482 1.19911 -8.87378e-17)
(2.7139 1.48325 -4.40366e-17)
(2.41541 1.71752 4.36064e-17)
(2.04241 2.14014 0)
(1.58834 2.71941 0)
(1.08361 3.31921 0)
(0.264185 3.99625 0)
(-0.723292 4.67117 0)
(-1.7958 5.26191 -4.2677e-17)
(-2.82205 5.5855 -4.29488e-17)
(-3.74689 5.55741 4.29659e-17)
(-4.51559 5.44252 -4.28005e-17)
(-5.12566 5.28595 0)
(-5.73064 5.14691 0)
(-6.22171 4.99389 -4.18721e-17)
(-6.63841 4.81232 0)
(-6.99822 4.59649 0)
(-7.31312 4.349 -4.07078e-17)
(-7.58674 4.10193 -4.02793e-17)
(-7.82056 3.81659 -3.99217e-17)
(-8.03309 3.49272 0)
(-8.21712 3.13978 0)
(-8.4345 2.75012 3.89238e-17)
(-8.60672 2.3512 0)
(-8.7718 1.96442 0)
(-8.91485 1.55131 -3.80581e-17)
(-9.00988 1.16048 3.76779e-17)
(-9.14653 0.75087 -3.73863e-17)
(-9.24602 0.372777 0)
(-9.34817 0.0461701 0)
(-9.47592 -0.264233 -7.32163e-17)
(-9.59865 -0.54344 0)
(-9.73679 -0.836596 -7.21863e-17)
(-9.84836 -1.06843 -1.07517e-16)
(-9.99363 -1.24675 1.06695e-16)
(-10.1532 -1.39735 -7.05477e-17)
(-10.3149 -1.51366 0)
(-10.521 -1.62896 0)
(-10.7628 -1.76135 -6.87881e-17)
(-10.9996 -1.87061 -3.41165e-17)
(-11.2344 -1.99138 0)
(-11.4992 -2.12159 0)
(-11.7761 -2.24988 -3.3286e-17)
(-12.0463 -2.44699 -6.60698e-17)
(-12.2759 -2.63645 0)
(-12.4712 -2.82517 6.5088e-17)
(-12.5646 -3.06444 -6.45938e-17)
(-12.6857 -3.28318 6.40844e-17)
(-12.696 -3.56728 0)
(-12.5939 -3.69183 0)
(-12.4738 -3.71308 0)
(-12.2052 -3.73055 0)
(-12.0075 -3.49986 0)
(-11.7244 -3.12043 6.01409e-17)
(-11.3634 -2.77845 0)
(-11.1601 -2.32976 0)
(-11.0189 -2.15184 0)
(-11.0829 -2.12754 1.16294e-16)
(-11.1079 -2.11422 5.76901e-17)
(-10.9927 -2.0052 5.71154e-17)
(-10.8327 -1.73234 -1.12925e-16)
(-10.7073 -1.39657 5.57163e-17)
(-10.6729 -0.995183 -5.48072e-17)
(-10.5294 -0.985574 0)
(-10.6313 -1.44108 5.4727e-17)
(-10.5808 -1.69693 0)
(-10.2288 -1.38254 0)
(-9.89129 -1.11058 0)
(-9.58957 -1.12035 1.0465e-16)
(-9.173 -1.39415 -5.18825e-17)
(-8.59206 -1.44652 -5.15682e-17)
(-7.99847 -1.20875 -1.02139e-16)
(-7.50195 -0.706864 -1.51581e-16)
(-6.90012 -0.0164337 -4.94398e-17)
(-6.29827 0.641179 0)
(-5.99041 1.10236 -9.47272e-17)
(-5.80566 1.35573 0)
(-5.45529 1.46368 -1.37265e-16)
(-5.38417 1.20509 0)
(-5.38554 0.487761 -1.35323e-16)
(-5.42685 -0.546375 0)
(-5.89688 -0.862176 0)
(-5.88139 -0.199139 -4.54242e-17)
(-4.52855 -0.241045 0)
(-4.19115 -0.40952 4.20879e-17)
(-5.12726 0.773513 8.44693e-17)
(-6.54357 2.6151 4.22578e-17)
(-8.19165 4.28482 8.44756e-17)
(-9.82321 5.70642 -8.48056e-17)
(-11.2351 6.66708 -8.54296e-17)
(-12.5873 7.19144 1.71952e-16)
(-13.6195 7.57315 0)
(-14.5042 7.78907 0)
(-15.1041 7.73737 9.0031e-17)
(-15.0704 7.05479 -8.84791e-17)
(-14.5079 6.25622 0)
(-13.8912 5.43447 0)
(-13.3168 4.38114 8.28219e-17)
(-12.66 3.39185 0)
(-12.0383 2.63219 1.84772e-19)
(-11.4043 1.9766 1.90964e-19)
(-10.4852 1.39874 8.26439e-17)
(-9.54997 0.491608 0)
(-8.51791 -0.809907 -8.18774e-17)
(-7.51062 -2.52531 0)
(-6.10626 -3.86797 8.36599e-17)
(-4.98649 -4.1423 0)
(-2.70517 -1.35241 0)
(-1.20271 1.12136 -7.44185e-17)
(-0.729599 2.42595 -7.90305e-17)
(0.265797 3.2531 0)
(2.22391 2.82437 -7.70876e-17)
(3.74047 1.30414 1.46709e-16)
(5.81604 1.19123 0)
(7.39719 1.90043 0)
(8.3202 2.62205 0)
(8.17236 2.9929 0)
(7.8087 2.91444 7.37953e-17)
(7.94279 2.65437 -1.47211e-16)
(8.09131 2.46936 0)
(7.9847 2.17325 0)
(7.93188 2.06836 0)
(7.79855 2.04674 0)
(7.52552 1.63827 0)
(7.23096 1.25282 0)
(7.462 0.882631 0)
(7.52764 1.19403 6.48844e-17)