/*--------------------------------*- C++ -*----------------------------------*\
| =========                 |                                                 |
| \\      /  F ield         | OpenFOAM: The Open Source CFD Toolbox           |
|  \\    /   O peration     | Version:  dev                                   |
|   \\  /    A nd           | Web:      http://www.openfoam.org               |
|    \\/     M anipulation  |                                                 |
\*---------------------------------------------------------------------------*/
FoamFile
{
    version     2.0;
    format      ascii;
    class       volVectorField;
    object      U_0;
    location    "9.135";
}
// * * * * * * * * * * * * * * * * * * * * * * * * * * * * * * * * * * * * * //

dimensions      [0 1 -1 0 0 0 0];

internalField   nonuniform List<vector> 
12225
(
(7.48112 0.299721 0)
(6.48086 0.135981 0)
(5.86922 -0.0187861 0)
(6.10165 -0.0366701 0)
(6.18701 0.00556632 0)
(6.65047 -0.000964367 0)
(6.45169 0.0854651 0)
(6.77024 0.00182228 0)
(6.31239 0.140956 0)
(6.5082 -0.00365852 0)
(6.02022 0.159633 0)
(6.0942 0.00549906 0)
(5.92082 0.088911 0)
(5.86786 0.279541 0)
(7.08206 -0.607693 0)
(0.968649 2.3251 0)
(18.2734 -1.70422 0)
(-2.79399 1.36261 0)
(10.1599 0.614303 0)
(11.7512 0.513167 0)
(11.0953 0.17416 0)
(11.7877 -0.0727833 0)
(11.2032 -0.150036 0)
(12.4942 -0.215008 0)
(11.614 -0.0702612 0)
(13.5692 -0.329444 0)
(11.931 0.066137 0)
(14.7553 -0.450193 0)
(12.3727 0.0756104 0)
(16.3623 -0.540173 0)
(11.7506 0.172573 0)
(21.7261 -1.56452 0)
(9.16785 2.16802 0)
(20.0912 -6.06169 0)
(33.8087 -3.91214 0)
(3.92412 6.668 0)
(10.0521 0.00785055 0)
(13.7858 0.165428 0)
(13.3975 0.0862424 0)
(15.2652 -0.196758 0)
(14.1656 -0.230178 0)
(16.4864 -0.33803 0)
(14.0774 -0.178795 0)
(18.0935 -0.599947 0)
(13.6257 -0.0448323 0)
(19.7346 -0.952216 0)
(14.4197 -0.19936 0)
(19.6574 -0.594693 0)
(18.3157 -1.3117 0)
(19.8589 -0.285971 0)
(20.1785 2.19425 0)
(27.8769 -13.8365 0)
(12.5137 11.3364 0)
(29.2143 -11.6887 0)
(9.15902 -0.442462 0)
(14.337 -0.383931 0)
(13.7354 -0.192164 0)
(17.3528 -0.373146 0)
(14.9557 -0.572935 0)
(20.3135 -0.377216 0)
(14.6862 -0.504898 0)
(22.6075 -0.693162 0)
(13.9487 -0.248488 0)
(25.5792 -1.71324 0)
(13.4512 0.19354 0)
(24.8986 -2.79185 0)
(18.3207 -0.065388 0)
(23.4913 -2.9554 0)
(29.0691 -1.94282 0)
(23.1261 -2.03179 0)
(19.2108 -1.59107 0)
(30.0973 -15.3801 0)
(8.94323 -0.843111 0)
(14.0567 -1.24162 0)
(12.349 -0.722866 0)
(18.9828 -0.914636 0)
(12.6872 -1.25525 0)
(22.7609 -0.625172 0)
(13.2944 -0.954486 0)
(23.5185 -1.08766 0)
(14.3808 -0.637211 0)
(29.5656 -1.71542 0)
(11.2427 0.714905 0)
(26.4353 -3.88562 0)
(15.7338 -0.922134 0)
(27.6207 -5.74737 0)
(20.3921 0.0198007 0)
(32.8992 -4.45599 0)
(15.7334 -1.62761 0)
(34.3771 -6.31385 0)
(9.70928 -1.33471 0)
(14.6805 -1.51074 0)
(11.0193 -1.63691 0)
(19.4083 -0.508531 0)
(10.9801 -2.36939 0)
(23.2688 -0.734886 0)
(11.4283 -1.1602 0)
(22.7564 -1.53339 0)
(15.5047 -3.45496 0)
(29.5565 -1.09858 0)
(12.1697 0.811294 0)
(30.7488 -4.30864 0)
(13.3989 -2.68879 0)
(27.7308 -4.6122 0)
(9.58653 -5.40183 0)
(34.4492 -2.49143 0)
(15.254 -1.9856 0)
(27.35 -12.8491 0)
(7.91726 -2.02583 0)
(17.1186 -1.70761 0)
(8.52686 -2.22407 0)
(21.5538 -1.20251 0)
(10.4708 -2.85252 0)
(22.5022 -0.823506 0)
(13.2354 -1.05425 0)
(26.3181 -3.16311 0)
(14.4419 -3.1442 0)
(20.9603 -1.13618 0)
(18.6136 -0.312648 0)
(31.1217 -4.07934 0)
(15.963 0.537591 0)
(27.7606 -4.7961 0)
(10.5257 -4.37978 0)
(27.4755 -8.67811 0)
(19.4426 0.294944 0)
(20.4253 -11.3151 0)
(5.72366 -2.8696 0)
(19.0619 -1.95827 0)
(6.96487 -3.35161 0)
(22.5742 -1.20802 0)
(9.08334 -3.42047 0)
(19.8974 -1.62997 0)
(19.6603 -2.8985 0)
(22.9048 -2.29522 0)
(16.7716 -2.38931 0)
(19.2326 -2.55804 0)
(24.277 -4.48912 0)
(21.5756 -3.7463 0)
(23.9888 -1.63915 0)
(25.8442 -3.09932 0)
(22.7872 -3.82964 0)
(21.381 -9.27013 0)
(21.3332 0.343764 0)
(22.4946 -7.08388 0)
(3.85647 -3.41981 0)
(21.2943 -2.07226 0)
(4.55838 -3.86059 0)
(22.7201 -1.81688 0)
(11.6766 -2.15691 0)
(18.3057 -4.3776 0)
(20.9686 -3.39589 0)
(18.3869 -2.15579 0)
(21.2983 -2.39345 0)
(20.6406 -4.67862 0)
(23.9304 -3.04469 0)
(19.0437 -4.88414 0)
(24.8563 -1.75126 0)
(21.2027 -4.43061 0)
(28.0394 -2.06298 0)
(19.9733 -8.9509 0)
(24.7458 -1.83217 0)
(26.555 -7.26059 0)
(2.89778 -4.2198 0)
(21.6077 -2.34142 0)
(6.74683 -4.02453 0)
(19.9927 -3.61124 0)
(15.576 -2.04877 0)
(20.4804 -5.1111 0)
(17.1771 -3.01482 0)
(19.5005 -2.81231 0)
(22.4958 -3.79025 0)
(20.9389 -3.79823 0)
(22.2769 -3.27662 0)
(19.9398 -5.01083 0)
(22.9522 -3.06387 0)
(22.7682 -5.56643 0)
(24.776 -4.04891 0)
(22.7322 -6.21302 0)
(21.9697 -6.46501 0)
(21.8987 -5.73143 0)
(6.31074 -5.14093 0)
(18.2131 -3.44112 0)
(11.3831 -3.54886 0)
(18.307 -5.12454 0)
(15.1212 -2.93173 0)
(20.2122 -5.09172 0)
(16.6287 -3.39767 0)
(20.9808 -4.53048 0)
(19.5441 -3.89736 0)
(21.0995 -4.62387 0)
(21.0933 -3.59337 0)
(21.4872 -5.81496 0)
(21.6822 -4.4188 0)
(22.5904 -5.72855 0)
(21.8082 -4.36536 0)
(22.0164 -6.18827 0)
(21.4272 -5.38969 0)
(20.4108 -5.83983 0)
(8.91693 -5.77608 0)
(14.305 -4.52826 0)
(13.0359 -4.35113 0)
(16.9349 -5.54023 0)
(15.0727 -3.66766 0)
(19.3628 -5.54417 0)
(17.0449 -4.02424 0)
(20.296 -4.87062 0)
(19.4667 -4.54405 0)
(20.5941 -5.01707 0)
(20.8314 -4.41524 0)
(21.3588 -5.81412 0)
(21.5081 -4.77016 0)
(21.1258 -5.69923 0)
(21.6278 -5.26066 0)
(21.1157 -5.84923 0)
(21.4314 -6.02191 0)
(20.9268 -6.00428 0)
(10.1999 -6.41737 0)
(12.8243 -5.37835 0)
(13.6294 -5.15373 0)
(15.7568 -6.1147 0)
(15.6453 -4.65874 0)
(18.1679 -6.0985 0)
(17.5849 -4.66004 0)
(19.7025 -5.69137 0)
(19.6521 -5.21861 0)
(20.5213 -5.51336 0)
(20.9907 -5.24599 0)
(21.1446 -6.20261 0)
(21.3812 -5.79957 0)
(21.4389 -5.75875 0)
(21.5813 -5.80679 0)
(21.3309 -6.14603 0)
(21.4104 -6.20153 0)
(21.1034 -5.93686 0)
(10.5298 -7.04821 0)
(12.5083 -6.23829 0)
(14.0545 -5.90585 0)
(15.428 -6.53254 0)
(16.1965 -5.63608 0)
(17.6032 -6.54195 0)
(18.1452 -5.56496 0)
(19.4926 -6.24472 0)
(19.8561 -5.92469 0)
(20.4585 -6.03156 0)
(21.0666 -6.0047 0)
(21.2259 -6.3929 0)
(21.3121 -6.15786 0)
(21.4277 -6.05156 0)
(21.5876 -6.24086 0)
(21.4471 -6.29694 0)
(21.3825 -6.3166 0)
(21.2414 -6.20383 0)
(10.4281 -7.834 0)
(12.2794 -7.09555 0)
(13.8721 -6.72532 0)
(15.1368 -7.11526 0)
(16.271 -6.5761 0)
(17.3729 -7.03593 0)
(18.2635 -6.56786 0)
(19.2894 -6.84834 0)
(19.8525 -6.72555 0)
(20.3591 -6.66918 0)
(20.8806 -6.64781 0)
(21.1225 -6.77214 0)
(21.2595 -6.63614 0)
(21.4639 -6.52786 0)
(21.5762 -6.52907 0)
(21.4937 -6.48499 0)
(21.3937 -6.42952 0)
(21.2505 -6.29597 0)
(10.5225 -8.50586 0)
(12.2177 -7.58782 0)
(13.6823 -7.37073 0)
(15.005 -7.59732 0)
(16.1886 -7.37311 0)
(17.2665 -7.54272 0)
(18.2217 -7.28569 0)
(19.1017 -7.30252 0)
(19.7204 -7.22221 0)
(20.2445 -7.11965 0)
(20.6931 -7.03905 0)
(21.0103 -7.04336 0)
(21.2297 -6.89625 0)
(21.4324 -6.81756 0)
(21.5657 -6.75218 0)
(21.574 -6.65995 0)
(21.5976 -6.56218 0)
(21.5554 -6.38461 0)
(10.3889 -8.9606 0)
(12.1749 -8.1112 0)
(13.676 -7.94951 0)
(15.0625 -8.01537 0)
(16.2299 -7.90887 0)
(17.3069 -7.92003 0)
(18.2812 -7.75425 0)
(19.135 -7.67284 0)
(19.8436 -7.56087 0)
(20.4051 -7.42065 0)
(20.9352 -7.32811 0)
(21.3226 -7.22502 0)
(21.5971 -7.08776 0)
(21.8603 -6.9825 0)
(22.0077 -6.86158 0)
(22.0905 -6.74761 0)
(22.1181 -6.5719 0)
(22.1258 -6.37532 0)
(10.6085 -8.92955 0)
(12.3751 -8.08495 0)
(13.7737 -8.02023 0)
(15.078 -8.04579 0)
(16.2578 -7.98361 0)
(17.3685 -7.94321 0)
(18.398 -7.84734 0)
(19.2651 -7.77884 0)
(19.9961 -7.66627 0)
(20.6041 -7.53578 0)
(21.1369 -7.38339 0)
(21.5739 -7.23564 0)
(21.9294 -7.06369 0)
(22.1913 -6.89011 0)
(22.3574 -6.72654 0)
(22.5278 -6.57624 0)
(22.6114 -6.36852 0)
(22.633 -6.17302 0)
(10.6266 -8.89615 0)
(12.4848 -7.89245 0)
(13.9594 -7.74725 0)
(15.3343 -7.7601 0)
(16.5501 -7.76292 0)
(17.6716 -7.7537 0)
(18.6604 -7.6549 0)
(19.5033 -7.54396 0)
(20.2237 -7.39534 0)
(20.8667 -7.22749 0)
(21.3823 -7.06746 0)
(21.8411 -6.89561 0)
(22.2566 -6.75756 0)
(22.5197 -6.57583 0)
(22.736 -6.39138 0)
(22.9142 -6.20904 0)
(23.0295 -6.02162 0)
(23.0981 -5.83105 0)
(10.4815 -8.24772 0)
(12.2531 -7.32595 0)
(13.746 -7.25335 0)
(15.2162 -7.2579 0)
(16.5048 -7.20317 0)
(17.7063 -7.11817 0)
(18.7423 -7.02967 0)
(19.6183 -6.95699 0)
(20.3413 -6.87036 0)
(21.0102 -6.74785 0)
(21.5521 -6.60443 0)
(22.0396 -6.41865 0)
(22.4787 -6.23155 0)
(22.8599 -6.0679 0)
(23.1211 -5.854 0)
(23.3106 -5.6713 0)
(23.4702 -5.49583 0)
(23.5914 -5.31973 0)
(10.4014 -7.42434 0)
(12.3384 -6.76026 0)
(13.9135 -6.71557 0)
(15.3489 -6.75326 0)
(16.577 -6.71085 0)
(17.7658 -6.59041 0)
(18.8349 -6.44674 0)
(19.7624 -6.3094 0)
(20.5482 -6.16498 0)
(21.2433 -6.07909 0)
(21.8178 -5.96396 0)
(22.3391 -5.85383 0)
(22.7389 -5.70309 0)
(23.1365 -5.5549 0)
(23.441 -5.37208 0)
(23.6828 -5.16675 0)
(23.8378 -4.94562 0)
(23.9972 -4.73993 0)
(10.7001 -6.5983 0)
(12.4024 -5.99883 0)
(13.9348 -5.9018 0)
(15.3482 -5.84729 0)
(16.6173 -5.80372 0)
(17.7731 -5.75493 0)
(18.83 -5.6901 0)
(19.8059 -5.61051 0)
(20.665 -5.52142 0)
(21.4387 -5.4153 0)
(22.1137 -5.29876 0)
(22.6493 -5.15966 0)
(23.0883 -5.02803 0)
(23.4472 -4.867 0)
(23.7334 -4.70988 0)
(23.9924 -4.56487 0)
(24.147 -4.37404 0)
(24.2934 -4.21011 0)
(10.6132 -5.66326 0)
(12.4402 -5.1706 0)
(14.0204 -5.1748 0)
(15.5412 -5.1846 0)
(16.9053 -5.14891 0)
(18.12 -5.06223 0)
(19.2006 -4.99016 0)
(20.1661 -4.92449 0)
(20.9967 -4.85621 0)
(21.7423 -4.76303 0)
(22.3817 -4.65044 0)
(22.8867 -4.52501 0)
(23.3158 -4.36933 0)
(23.6804 -4.21318 0)
(23.9773 -4.05288 0)
(24.2407 -3.90404 0)
(24.43 -3.75368 0)
(24.6016 -3.59866 0)
(10.4655 -4.67577 0)
(12.2809 -4.3759 0)
(14.0095 -4.4472 0)
(15.6278 -4.44716 0)
(17.0216 -4.37103 0)
(18.2239 -4.29102 0)
(19.2797 -4.22573 0)
(20.2332 -4.16415 0)
(21.0955 -4.08492 0)
(21.8557 -3.97661 0)
(22.4931 -3.90054 0)
(23.0216 -3.80767 0)
(23.4562 -3.69259 0)
(23.836 -3.56238 0)
(24.1496 -3.43961 0)
(24.4298 -3.31015 0)
(24.662 -3.17424 0)
(24.8678 -3.05293 0)
(10.2497 -3.85642 0)
(12.3522 -3.74357 0)
(14.2071 -3.84809 0)
(15.8544 -3.81031 0)
(17.2709 -3.69998 0)
(18.4662 -3.58121 0)
(19.535 -3.52101 0)
(20.5417 -3.47032 0)
(21.441 -3.42048 0)
(22.2233 -3.34103 0)
(22.8791 -3.27351 0)
(23.4236 -3.19974 0)
(23.8828 -3.0845 0)
(24.252 -2.98149 0)
(24.5635 -2.8668 0)
(24.8243 -2.7622 0)
(25.0401 -2.64034 0)
(25.2236 -2.53503 0)
(10.5102 -3.22395 0)
(12.4152 -3.17845 0)
(14.2238 -3.20755 0)
(15.9007 -3.11607 0)
(17.3473 -3.00134 0)
(18.5934 -2.91868 0)
(19.7083 -2.86717 0)
(20.7181 -2.83554 0)
(21.6171 -2.79971 0)
(22.3763 -2.739 0)
(23.0122 -2.6648 0)
(23.5323 -2.57467 0)
(23.9616 -2.47959 0)
(24.2996 -2.40342 0)
(24.5745 -2.30952 0)
(24.8055 -2.21979 0)
(24.9924 -2.1079 0)
(25.1511 -1.99824 0)
(10.4635 -2.48139 0)
(12.7021 -2.59686 0)
(14.6543 -2.66438 0)
(16.3043 -2.57296 0)
(17.6564 -2.43776 0)
(18.8288 -2.30208 0)
(19.8537 -2.24304 0)
(20.7527 -2.22073 0)
(21.5147 -2.20053 0)
(22.1485 -2.1491 0)
(22.6846 -2.09147 0)
(23.1054 -1.99914 0)
(23.4526 -1.91503 0)
(23.7125 -1.84715 0)
(23.9174 -1.76893 0)
(24.0747 -1.68951 0)
(24.1946 -1.60601 0)
(24.2696 -1.52695 0)
(10.5041 -1.82799 0)
(12.8615 -2.12651 0)
(14.581 -2.09287 0)
(15.9084 -1.9424 0)
(16.9719 -1.80019 0)
(17.919 -1.69624 0)
(18.7201 -1.64137 0)
(19.3811 -1.60753 0)
(19.8987 -1.57178 0)
(20.2996 -1.50055 0)
(20.6443 -1.43966 0)
(20.8903 -1.37589 0)
(21.1042 -1.31082 0)
(21.2469 -1.239 0)
(21.368 -1.18747 0)
(21.4476 -1.10628 0)
(21.5015 -1.04475 0)
(21.5195 -0.993569 0)
(10.5278 -1.60891 0)
(12.3272 -1.80474 0)
(13.2356 -1.59123 0)
(13.8111 -1.35687 0)
(14.3096 -1.13077 0)
(14.8403 -0.983359 0)
(15.3578 -0.896147 0)
(15.8306 -0.851559 0)
(16.2331 -0.819347 0)
(16.5901 -0.785057 0)
(16.9106 -0.753162 0)
(17.1658 -0.733352 0)
(17.4057 -0.695169 0)
(17.5773 -0.661389 0)
(17.7516 -0.635048 0)
(17.8735 -0.59324 0)
(17.9827 -0.579125 0)
(18.0334 -0.568801 0)
(9.11821 -0.73071 0)
(8.47278 -0.664114 0)
(8.09764 -0.417633 0)
(8.26689 -0.299233 0)
(8.82807 -0.248357 0)
(9.58551 -0.239506 0)
(10.3647 -0.248572 0)
(11.0737 -0.251743 0)
(11.6844 -0.24986 0)
(12.2025 -0.246987 0)
(12.644 -0.237744 0)
(13.0181 -0.231298 0)
(13.3429 -0.217318 0)
(13.6192 -0.204547 0)
(13.8664 -0.190117 0)
(14.0561 -0.177119 0)
(14.2643 -0.188477 0)
(14.2856 -0.139089 0)
(-0.0212831 -0.0176477 0)
(0.21218 -0.274779 0)
(0.651796 -0.415999 0)
(1.14977 -0.434481 0)
(1.64232 -0.369211 0)
(2.07419 -0.34068 0)
(2.47248 -0.298191 1.13232e-17)
(2.8126 -0.210113 -1.1215e-17)
(3.0603 -0.127813 0)
(3.25049 -0.0838747 -1.10257e-17)
(3.41091 -0.038734 0)
(3.52622 0.0403601 0)
(3.5757 0.101553 0)
(3.56897 0.136059 1.0713e-17)
(3.49539 0.181778 0)
(3.39888 0.236965 0)
(3.27375 0.306698 -1.05322e-17)
(3.01519 0.329072 0)
(2.66894 0.299583 0)
(2.28447 0.386071 0)
(1.72072 0.637005 1.04307e-17)
(1.07356 0.775281 0)
(0.790077 0.502546 1.02857e-17)
(0.947198 -0.0701338 0)
(1.178 -0.695365 0)
(1.26056 -1.19784 1.01901e-17)
(1.24304 -1.26229 0)
(1.12518 -0.895565 -1.01463e-17)
(0.755537 -0.301549 0)
(0.0638174 0.137936 1.014e-17)
(-0.714557 0.310021 0)
(-1.5338 0.358797 0)
(-2.40692 0.38445 0)
(-3.28039 0.384443 0)
(-4.14904 0.367474 0)
(-4.99062 0.338558 -9.71929e-18)
(-5.8413 0.294547 0)
(-6.66474 0.258794 1.91275e-17)
(-7.42927 0.215458 0)
(-8.14828 0.169015 -1.8821e-17)
(-8.82127 0.12055 0)
(-9.46006 0.0676217 0)
(-10.0488 0.00550491 1.83609e-17)
(-10.5931 -0.0538322 0)
(-11.118 -0.101078 1.80502e-17)
(-11.6403 -0.142638 -1.78943e-17)
(-12.1277 -0.167671 0)
(-12.5903 -0.183229 -1.75831e-17)
(-13.0785 -0.189817 -1.74281e-17)
(-13.5697 -0.184581 0)
(-14.0457 -0.177478 0)
(-14.5195 -0.164979 0)
(-14.9814 -0.160656 0)
(-15.4221 -0.155915 0)
(-15.832 -0.142399 1.6507e-17)
(-16.1963 -0.135583 0)
(-16.4926 -0.147205 -1.62059e-17)
(-16.7207 -0.168734 0)
(-16.88 -0.174257 0)
(-16.9724 -0.189495 1.57662e-17)
(-16.9638 -0.207078 0)
(-16.8791 -0.215512 -1.54828e-17)
(-16.7645 -0.207385 0)
(-16.6015 -0.199198 0)
(-16.3884 -0.17414 0)
(-16.1984 -0.142691 1.49292e-17)
(-16.01 -0.106223 0)
(-15.8058 -0.080598 0)
(-15.589 -0.0551771 1.45128e-17)
(-15.3449 -0.0331387 0)
(-15.0874 -0.00615618 1.42412e-17)
(-14.8201 0.0230859 0)
(-14.565 0.06126 0)
(-14.3415 0.0861757 0)
(-14.1323 0.0954338 -1.37314e-17)
(-13.8794 0.0999024 0)
(-13.568 0.102369 0)
(-13.1996 0.119313 -1.33605e-17)
(-12.7868 0.125211 -1.32419e-17)
(-12.4045 0.118429 0)
(-12.0359 0.110511 -1.30035e-17)
(-11.6354 0.108886 0)
(-11.1597 0.128411 -2.55345e-17)
(-10.678 0.144239 0)
(-10.2714 0.203933 -2.50839e-17)
(-9.91468 0.277657 0)
(-9.65008 0.329572 2.46442e-17)
(-9.50812 0.368039 0)
(-9.51044 0.42895 0)
(-9.60601 0.532041 0)
(-9.65331 0.549199 -2.34442e-17)
(-9.34853 0.422474 0)
(-8.6673 0.347876 2.30061e-17)
(-7.91835 0.40148 0)
(-7.42719 0.437948 -2.28234e-17)
(-7.18416 0.413025 -2.25339e-17)
(-6.75947 0.338604 -2.21731e-17)
(-6.1564 0.320606 0)
(-5.49976 0.688552 0)
(-4.83856 0.985712 0)
(-4.18197 0.364263 0)
(-3.30567 -0.363778 0)
(-2.74251 -0.27705 0)
(-2.97636 0.511249 0)
(-4.02924 1.09877 0)
(-5.40889 1.19997 2.14557e-17)
(-7.09249 1.48045 2.12986e-17)
(-9.17328 1.78002 0)
(-10.9707 1.74299 0)
(-12.3693 1.57997 0)
(-13.3201 1.47237 2.12624e-17)
(-13.5692 1.2116 0)
(-13.2752 0.977711 0)
(-12.6544 0.863754 0)
(-11.7287 0.750164 0)
(-10.0482 0.46328 -2.10091e-17)
(-7.42021 -0.0173974 0)
(-3.83663 -0.524114 0)
(0.240139 -0.807266 2.1058e-17)
(4.1872 0.0637071 -2.05198e-17)
(5.95295 0.49832 0)
(7.00502 1.15252 -2.023e-17)
(6.44329 1.39841 0)
(5.41881 1.09866 1.9247e-17)
(5.43741 0.794589 0)
(6.04333 0.97541 0)
(5.84076 1.11043 0)
(5.33637 0.961905 0)
(4.99532 0.870576 0)
(4.69587 0.952713 -3.6605e-17)
(4.21813 0.819646 -3.63814e-17)
(3.59782 0.648123 0)
(3.05611 0.622677 0)
(2.54459 0.608398 0)
(1.85298 0.585893 3.50571e-17)
(1.34104 0.508624 0)
(0.882753 0.541226 0)
(0.406683 0.563426 0)
(-0.211625 0.544904 3.37779e-17)
(-0.784003 0.507841 -3.34416e-17)
(-1.1597 0.510877 0)
(-1.47037 0.568452 0)
(-1.85818 0.526998 -3.25238e-17)
(-2.33737 0.524011 -3.21745e-17)
(-2.71622 0.484653 0)
(-3.05754 0.483628 0)
(-3.19098 0.499435 3.10807e-17)
(-3.26509 0.510892 -3.07008e-17)
(-3.22144 0.533179 0)
(-2.96532 0.593768 0)
(-2.74527 0.699121 -2.9575e-17)
(-2.26647 0.721661 0)
(-1.74517 0.690575 0)
(-1.6413 0.770925 -2.85367e-17)
(-1.34248 0.759496 0)
(-1.01924 0.760321 -2.785e-17)
(-0.998903 0.925596 0)
(-1.5871 1.13535 0)
(-2.09194 1.07465 0)
(-1.37872 0.942649 2.64213e-17)
(-0.191309 0.92267 0)
(0.983881 0.571832 0)
(1.89976 0.354605 0)
(2.46353 0.471976 0)
(2.85527 0.395569 0)
(3.18321 0.448384 0)
(2.68839 0.808338 2.85106e-17)
(1.45568 0.961086 2.85225e-17)
(0.713072 0.931945 0)
(0.405268 0.751189 0)
(-0.601129 0.870548 0)
(-2.9239 1.20606 -2.83492e-17)
(-2.96243 1.04791 0)
(-1.29547 0.532512 5.72254e-17)
(3.06242 0.322299 -5.8232e-17)
(6.35907 0.790555 -5.65962e-17)
(5.86546 0.753056 5.60011e-17)
(7.06737 0.696574 -5.58331e-17)
(8.61218 0.791953 5.55582e-17)
(9.72704 0.779279 0)
(-0.0269088 -0.0883588 0)
(0.269169 -0.909948 0)
(0.722141 -1.3382 -2.38979e-17)
(1.21817 -1.40341 0)
(1.71209 -1.246 2.31422e-17)
(2.14898 -1.14434 2.28431e-17)
(2.54967 -1.01566 1.12785e-17)
(2.9199 -0.777832 1.11763e-17)
(3.22326 -0.547146 0)
(3.47239 -0.424251 1.09668e-17)
(3.69268 -0.349102 0)
(3.87421 -0.155805 0)
(3.94143 0.0169381 -2.13546e-17)
(3.91089 0.0750829 -1.06126e-17)
(3.87662 0.189108 2.11243e-17)
(3.81038 0.352379 2.10313e-17)
(3.60287 0.473715 1.04349e-17)
(3.26683 0.787216 0)
(2.98635 1.10907 0)
(2.88456 1.1981 0)
(2.94266 1.2768 1.01938e-17)
(2.91945 0.76723 0)
(2.61277 -0.496272 -2.97759e-17)
(2.1492 -1.16662 0)
(1.43878 -0.383532 0)
(0.22806 0.717652 -1.02428e-17)
(-1.29201 1.18702 0)
(-2.6906 1.39564 1.0295e-17)
(-3.87256 1.56441 2.04715e-17)
(-4.94448 1.63655 -1.01797e-17)
(-5.93417 1.61361 0)
(-6.9165 1.56066 0)
(-7.83161 1.49219 0)
(-8.7071 1.38163 1.97711e-17)
(-9.53156 1.24901 1.96326e-17)
(-10.3167 1.07933 9.75252e-18)
(-11.0493 0.901766 0)
(-11.7264 0.702164 -1.92196e-17)
(-12.351 0.48889 0)
(-12.9152 0.285899 1.89091e-17)
(-13.4432 0.0871146 0)
(-13.9424 -0.0945307 0)
(-14.4007 -0.252352 -1.84119e-17)
(-14.8338 -0.382401 0)
(-15.2621 -0.479397 -5.42451e-17)
(-15.6844 -0.549751 1.79235e-17)
(-16.096 -0.59725 0)
(-16.5058 -0.610772 1.76102e-17)
(-16.9136 -0.60792 1.74547e-17)
(-17.3114 -0.620637 0)
(-17.6918 -0.642159 0)
(-18.0558 -0.66051 0)
(-18.385 -0.684834 0)
(-18.673 -0.715685 0)
(-18.9305 -0.754836 -1.65325e-17)
(-19.1394 -0.803044 -3.27716e-17)
(-19.2703 -0.879617 1.62289e-17)
(-19.3094 -0.946742 0)
(-19.2983 -1.00622 -3.1876e-17)
(-19.2163 -1.07436 1.58001e-17)
(-18.9871 -1.14366 0)
(-18.7262 -1.14404 1.54954e-17)
(-18.4437 -1.09441 0)
(-18.0711 -1.07492 0)
(-17.6927 -0.970083 3.01369e-17)
(-17.4031 -0.821787 -1.49065e-17)
(-17.0975 -0.703958 2.95307e-17)
(-16.8075 -0.614676 -2.92162e-17)
(-16.4986 -0.537106 -1.44378e-17)
(-16.1223 -0.452184 0)
(-15.7183 -0.365604 -1.41187e-17)
(-15.2851 -0.255774 0)
(-14.8716 -0.0912219 0)
(-14.525 0.0526956 0)
(-14.2311 0.143484 -1.35411e-17)
(-13.9667 0.146062 0)
(-13.6033 0.106045 -2.65831e-17)
(-13.0905 0.0997423 3.94938e-17)
(-12.5171 0.174572 1.30204e-17)
(-12.0347 0.257463 0)
(-11.5532 0.315632 1.27499e-17)
(-10.9895 0.307909 0)
(-10.3958 0.335146 2.49464e-17)
(-9.8807 0.378244 0)
(-9.49272 0.500717 2.434e-17)
(-9.25649 0.603221 -4.80714e-17)
(-9.13808 0.82085 -2.37265e-17)
(-9.0289 1.11875 0)
(-9.02983 1.32928 0)
(-9.11405 1.33618 0)
(-9.13929 1.05464 2.25938e-17)
(-8.77953 0.415999 0)
(-8.03341 -0.0403085 -2.21955e-17)
(-6.9883 0.183032 0)
(-6.19739 0.760302 6.58118e-17)
(-5.95088 0.989703 2.15975e-17)
(-5.23552 0.758848 2.11755e-17)
(-4.21339 0.720342 0)
(-3.32846 0.391992 0)
(-2.18471 0.110307 0)
(-2.2637 0.807701 0)
(-4.15461 1.99467 0)
(-6.43167 2.89267 4.27934e-17)
(-8.39143 3.52485 4.28536e-17)
(-10.2445 3.99683 0)
(-12.2758 4.50842 -2.18242e-17)
(-14.1294 4.77854 -2.21493e-17)
(-15.4752 4.61706 0)
(-16.2668 4.2036 -4.39912e-17)
(-16.6481 3.59532 0)
(-16.4842 2.90624 2.18179e-17)
(-15.9085 2.27695 0)
(-15.088 1.8509 0)
(-14.046 1.53978 -4.31098e-17)
(-12.6727 1.05457 0)
(-10.4137 0.116536 2.12036e-17)
(-7.7191 -0.976953 0)
(-4.06652 -1.79871 0)
(-1.48022 -2.17403 2.11102e-17)
(3.07316 -0.154431 2.01426e-17)
(4.2943 1.02566 0)
(5.95141 2.374 -2.02359e-17)
(6.60339 3.09255 0)
(6.54581 3.10123 1.93508e-17)
(6.77432 2.39164 3.82518e-17)
(7.8781 2.19635 0)
(8.48553 2.52334 0)
(8.49891 2.55579 0)
(8.16786 2.2087 0)
(8.02814 2.12685 3.60852e-17)
(7.83408 2.06977 1.06385e-16)
(7.37469 1.93849 0)
(6.70033 1.73527 0)
(6.12681 1.541 0)
(5.29213 1.41233 -3.34486e-17)
(4.55399 1.12035 0)
(4.03674 0.905682 0)
(3.70883 0.912173 6.46261e-17)
(3.23793 0.913394 3.20345e-17)
(2.77452 0.786222 3.1652e-17)
(2.73878 0.716938 0)
(2.96334 0.965308 0)
(2.97115 1.01683 3.07175e-17)
(2.62447 1.11043 -3.04674e-17)
(2.207 1.10426 0)
(1.82171 1.13431 0)
(1.45684 1.18628 -2.93393e-17)
(1.00242 1.18176 8.67856e-17)
(0.710254 1.10583 0)
(0.69565 0.91772 0)
(0.57661 0.808091 2.73007e-17)
(0.884536 0.811376 0)
(1.3008 0.941719 5.27236e-17)
(1.33736 1.16092 -2.58852e-17)
(1.57238 1.16385 0)
(1.68398 1.30213 2.5319e-17)
(1.39553 1.66417 4.91188e-17)
(0.789188 1.74802 0)
(0.683611 1.17663 0)
(1.94298 0.550655 -2.19764e-17)
(3.53168 0.402054 0)
(4.20917 0.606675 4.90846e-17)
(3.68839 1.16362 0)
(3.05205 1.40655 0)
(2.1603 1.58423 0)
(0.620912 2.05378 0)
(-1.18217 2.62275 -2.79699e-17)
(-2.0068 2.46638 -2.8467e-17)
(-2.2044 2.27649 0)
(-2.94648 2.51145 0)
(-5.25517 3.14792 0)
(-7.5037 2.59115 2.91981e-17)
(-4.55053 1.07911 0)
(-1.28704 -0.0438517 -5.86096e-17)
(2.33395 -0.988444 6.17415e-17)
(8.47508 1.36379 5.77413e-17)
(7.96387 2.00318 5.56393e-17)
(9.76337 1.47927 5.60535e-17)
(12.0586 1.9146 5.55301e-17)
(13.7932 2.1616 0)
(-0.0126507 -0.263071 0)
(0.37422 -1.63678 0)
(0.828379 -2.26168 2.40887e-17)
(1.25648 -2.32744 2.36175e-17)
(1.66608 -2.10419 -2.33012e-17)
(2.05396 -1.89455 -2.30567e-17)
(2.39763 -1.66228 -3.10492e-20)
(2.75034 -1.35038 0)
(3.06931 -1.07716 0)
(3.3885 -0.862307 0)
(3.65085 -0.649693 0)
(3.80735 -0.280224 0)
(3.87893 0.194343 6.52027e-17)
(3.82901 0.424993 0)
(3.7189 0.479389 -2.16411e-17)
(3.62529 0.809877 -2.15216e-17)
(3.44768 1.30772 0)
(3.10621 1.37159 0)
(2.68023 0.906539 0)
(2.12421 0.572283 0)
(1.3976 0.680248 -2.03664e-17)
(0.622479 1.10796 0)
(-0.777172 1.79393 2.10125e-17)
(-2.65217 2.38428 0)
(-4.14351 2.64995 0)
(-5.2801 2.76922 0)
(-6.17707 2.80248 4.18209e-17)
(-7.01298 2.84942 0)
(-7.79008 2.8187 -2.06454e-17)
(-8.47341 2.72476 4.09358e-17)
(-9.15375 2.57108 0)
(-9.79332 2.38091 0)
(-10.382 2.16658 0)
(-10.9746 1.90577 -1.98785e-17)
(-11.513 1.64335 -1.97256e-17)
(-12.0183 1.35945 0)
(-12.51 1.04536 0)
(-12.9715 0.731469 3.84594e-17)
(-13.4181 0.417959 3.81131e-17)
(-13.8459 0.115605 -3.77648e-17)
(-14.248 -0.15407 0)
(-14.6611 -0.392307 0)
(-15.0689 -0.589336 0)
(-15.466 -0.758907 0)
(-15.854 -0.916886 3.62504e-17)
(-16.2372 -1.02497 3.59582e-17)
(-16.5781 -1.09265 -3.56772e-17)
(-16.8855 -1.13851 0)
(-17.2427 -1.17492 0)
(-17.5871 -1.21582 0)
(-17.9003 -1.26056 0)
(-18.1957 -1.29897 3.41778e-17)
(-18.4655 -1.34321 0)
(-18.7189 -1.40002 0)
(-18.942 -1.48541 3.32448e-17)
(-19.1515 -1.5593 3.29218e-17)
(-19.2899 -1.63501 0)
(-19.3352 -1.69606 -6.47237e-17)
(-19.3319 -1.82268 3.20469e-17)
(-19.2845 -1.91198 -3.17626e-17)
(-19.0773 -2.03105 0)
(-18.798 -2.03764 0)
(-18.4945 -1.95754 0)
(-18.0439 -1.90672 0)
(-17.5899 -1.68661 -3.0304e-17)
(-17.2369 -1.34996 -6.01017e-17)
(-16.8521 -1.12753 -2.97378e-17)
(-16.6256 -0.941593 2.94575e-17)
(-16.424 -0.880949 0)
(-16.1721 -0.83663 -5.78275e-17)
(-15.8287 -0.712214 -5.7176e-17)
(-15.403 -0.587625 -5.64618e-17)
(-14.9957 -0.327731 5.56577e-17)
(-14.584 -0.0104482 0)
(-14.1816 0.276018 8.12552e-17)
(-13.9088 0.271904 0)
(-13.6467 0.0751053 -2.69517e-17)
(-13.1393 -0.0493255 -2.66432e-17)
(-12.4699 0.128423 0)
(-11.9475 0.234555 0)
(-11.4278 0.262822 -5.13298e-17)
(-10.7418 0.237801 0)
(-9.95988 0.328288 -5.05642e-17)
(-9.30148 0.609459 0)
(-8.70987 1.09732 4.94182e-17)
(-8.11472 1.4746 9.63078e-17)
(-7.81358 1.66635 0)
(-7.8065 1.81416 0)
(-7.81473 2.00166 0)
(-7.8327 2.20139 4.60429e-17)
(-7.84712 1.94492 0)
(-7.79854 1.1392 4.63599e-17)
(-7.61552 0.291616 0)
(-7.07521 0.322329 0)
(-6.33993 1.28146 -8.93851e-17)
(-5.32525 1.55649 0)
(-4.23445 0.679762 -4.18892e-17)
(-3.06421 0.201095 0)
(-3.03498 1.0301 -4.1489e-17)
(-4.51075 2.6805 0)
(-6.49702 4.2414 0)
(-8.46543 5.25021 0)
(-10.3938 5.89914 -1.28897e-16)
(-12.1453 6.58413 -4.33133e-17)
(-13.6894 7.12418 0)
(-15.1158 7.42528 0)
(-16.0482 7.30846 0)
(-16.2827 6.64137 0)
(-16.1898 5.8574 4.30485e-17)
(-15.8204 4.97054 -8.50784e-17)
(-15.203 4.00646 -4.2058e-17)
(-14.4881 3.2791 8.35789e-17)
(-13.6352 2.73 8.32722e-17)
(-12.6079 2.23699 4.16255e-17)
(-11.4231 1.51312 0)
(-9.55979 0.371536 8.23753e-17)
(-7.61059 -1.07035 0)
(-5.08282 -1.9022 -8.30117e-17)
(-3.62835 -2.52542 -4.09357e-17)
(0.120289 0.15752 0)
(1.02077 2.02119 7.59425e-17)
(2.73005 3.46828 3.91547e-17)
(3.6973 4.50587 0)
(4.66414 4.67286 3.96784e-17)
(5.74014 3.49602 -1.15416e-16)
(7.60829 3.26439 0)
(8.77161 3.85088 0)
(9.14502 4.22275 0)
(8.9772 4.021 0)
(8.63249 3.58543 -7.39573e-17)
(8.41971 3.31433 -7.20398e-17)
(8.26138 3.13894 0)
(7.75419 2.90905 0)
(7.21323 2.71446 0)
(6.57196 2.51627 0)
(5.77996 2.13899 0)
(5.04432 1.77854 0)
(4.72299 1.59425 -6.43465e-17)
(4.30849 1.6949 8.49859e-20)
(3.70276 1.38096 0)
(3.62527 1.21404 0)
(4.17099 1.37538 -6.20493e-17)
(4.6417 1.55161 0)
(5.02355 1.80396 6.00874e-17)
(5.10955 1.9113 5.9263e-17)
(4.94403 2.02769 0)
(4.68794 2.11093 0)
(4.2381 2.2229 -5.67442e-17)
(3.98242 2.1707 -1.11987e-16)
(4.15214 2.10878 0)
(3.86708 2.18712 0)
(3.6037 1.95501 0)
(3.51495 1.84449 -5.13371e-17)
(3.17848 2.0612 4.95828e-17)
(3.00159 2.07343 0)
(3.07057 2.30331 9.73604e-17)
(2.78612 2.87174 4.70665e-17)
(2.37627 2.89852 -8.76803e-17)
(2.52396 2.05392 0)
(3.30889 1.42037 0)
(3.83831 1.64802 -9.17391e-17)
(3.9026 2.31633 -4.95115e-17)
(2.88431 2.64631 0)
(1.8992 3.29236 0)
(0.505996 3.35688 0)
(-1.84103 4.15783 0)
(-3.38359 4.68605 -1.14603e-16)
(-3.29839 3.90771 0)
(-3.34919 3.67327 0)
(-4.23317 4.4522 0)
(-6.491 5.56682 0)
(-7.1583 3.66621 0)
(-4.08965 0.68191 0)
(1.10241 -0.233047 -1.16331e-16)
(0.213007 -2.03475 0)
(8.21423 1.57854 0)
(8.93308 3.37111 -2.27866e-16)
(10.827 2.44444 1.15941e-16)
(13.8341 2.89308 -1.17828e-16)
(16.2599 3.32806 1.16198e-16)
(0.0260892 -0.638575 0)
(0.457332 -2.51747 -4.88003e-17)
(0.808842 -3.10567 0)
(1.07183 -3.06053 -2.32252e-17)
(1.29907 -2.79808 0)
(1.56353 -2.5489 0)
(1.79908 -2.30741 2.27186e-17)
(2.07523 -2.05385 0)
(2.29772 -1.84502 0)
(2.5424 -1.62496 0)
(2.70708 -1.21999 0)
(2.81084 -0.615652 0)
(2.79011 -0.0642296 -8.88626e-17)
(2.59051 0.209187 -4.4091e-17)
(2.23969 0.44634 4.36601e-17)
(1.807 0.875341 0)
(1.2868 1.46181 0)
(0.706601 2.06611 0)
(-0.200099 2.74075 0)
(-1.27061 3.40318 0)
(-2.42938 3.98252 -4.27501e-17)
(-3.55811 4.30809 -4.30126e-17)
(-4.60125 4.28499 4.30233e-17)
(-5.50407 4.18163 -4.28521e-17)
(-6.25326 4.03676 0)
(-7.00275 3.90587 0)
(-7.65345 3.76189 -4.19286e-17)
(-8.2404 3.59308 0)
(-8.7802 3.39351 0)
(-9.28345 3.16286 -4.07615e-17)
(-9.75647 2.93566 -4.03285e-17)
(-10.1967 2.67717 -3.997e-17)
(-10.6241 2.38381 0)
(-11.0284 2.06528 0)
(-11.4715 1.71415 3.89642e-17)
(-11.8795 1.3529 0)
(-12.2821 1.00974 0)
(-12.6672 0.64313 -3.80726e-17)
(-13.0034 0.301478 3.77093e-17)
(-13.3786 -0.0551011 -3.74157e-17)
(-13.719 -0.383515 0)
(-14.0548 -0.656311 0)
(-14.4109 -0.908179 -7.32037e-17)
(-14.7536 -1.12375 0)
(-15.1025 -1.35228 -7.21498e-17)
(-15.4115 -1.5228 -1.07428e-16)
(-15.736 -1.63709 1.06593e-16)
(-16.0613 -1.72171 -7.04874e-17)
(-16.3667 -1.7672 0)
(-16.6915 -1.80408 0)
(-17.0343 -1.85947 -6.87033e-17)
(-17.3535 -1.89322 -3.4041e-17)
(-17.646 -1.93489 0)
(-17.9443 -1.98682 0)
(-18.2321 -2.02975 -3.31929e-17)
(-18.4965 -2.13954 -6.59276e-17)
(-18.699 -2.25119 0)
(-18.8528 -2.35711 6.48837e-17)
(-18.8743 -2.51633 -6.44476e-17)
(-18.8989 -2.65373 6.39447e-17)
(-18.8062 -2.87321 0)
(-18.5674 -2.95848 0)
(-18.2939 -2.92503 0)
(-17.8501 -2.90167 0)
(-17.4455 -2.65344 0)
(-16.9646 -2.22494 6.00334e-17)
(-16.3746 -1.83129 0)
(-15.9238 -1.31664 0)
(-15.5331 -1.04529 0)
(-15.3494 -0.948265 1.16122e-16)
(-15.1558 -0.8857 5.76124e-17)
(-14.82 -0.750375 5.70713e-17)
(-14.4211 -0.454952 -1.12935e-16)
(-14.0399 -0.089163 5.57617e-17)
(-13.7502 0.361212 -5.47941e-17)
(-13.3578 0.468012 0)
(-13.2322 0.0807746 5.46641e-17)
(-12.9846 -0.194616 0)
(-12.4157 0.0981743 0)
(-11.8537 0.415785 0)
(-11.3405 0.465877 1.04753e-16)
(-10.7343 0.215628 -5.1948e-17)
(-9.96864 0.153546 -5.16657e-17)
(-9.18327 0.37956 -1.02296e-16)
(-8.50604 0.870035 -1.51894e-16)
(-7.72588 1.54558 -4.95627e-17)
(-6.93314 2.19881 0)
(-6.43664 2.66573 -9.50097e-17)
(-6.08832 2.92041 0)
(-5.57936 3.02441 -1.37623e-16)
(-5.3595 2.77814 0)
(-5.22609 2.06769 -1.35542e-16)
(-5.15669 1.02323 0)
(-5.55689 0.666275 0)
(-5.5199 1.28186 -4.56221e-17)
(-4.11811 1.20242 0)
(-3.72736 1.01674 4.22169e-17)
(-4.66009 2.1982 8.47463e-17)
(-6.11381 4.05213 4.24017e-17)
(-7.80214 5.73212 8.4804e-17)
(-9.49041 7.17055 -8.51091e-17)
(-10.9616 8.17066 -8.57074e-17)
(-12.3711 8.72758 1.7242e-16)
(-13.4782 9.12789 0)
(-14.4581 9.38699 0)
(-15.1737 9.39102 9.03889e-17)
(-15.2504 8.73209 -8.90044e-17)
(-14.7775 7.94139 0)
(-14.2242 7.14892 0)
(-13.7127 6.14378 8.32209e-17)
(-13.1096 5.19338 0)
(-12.53 4.47504 1.88089e-19)
(-11.9348 3.86468 1.94815e-19)
(-11.025 3.3569 8.30105e-17)
(-10.05 2.51449 0)
(-8.97689 1.28251 -8.22261e-17)
(-7.91618 -0.38322 0)
(-6.45628 -1.68687 8.40456e-17)
(-5.26076 -2.00667 0)
(-2.83237 0.730015 0)
(-1.07618 3.20244 -7.47616e-17)
(-0.445431 4.68443 -7.93814e-17)
(0.715512 5.51891 0)
(2.84362 5.00349 -7.72355e-17)
(4.46008 3.39116 1.47148e-16)
(6.59519 3.28138 0)
(8.17013 4.04864 0)
(8.97991 4.78751 0)
(8.65041 5.08398 0)
(8.11817 4.89068 7.40524e-17)
(8.02722 4.54409 -1.47873e-16)
(7.84316 4.26323 0)
(7.35037 3.85443 0)
(6.8922 3.64029 0)
(6.33408 3.50434 0)
(5.62043 2.99529 0)
(4.89701 2.51832 0)
(4.73718 2.08091 0)
(4.48991 2.33942 6.51309e-17)
(3.73554 1.8928 0)
(3.51982 1.56248 0)
(3.94944 1.63632 6.39542e-17)
(4.46133 1.84272 0)
(5.15006 2.11307 0)