/*--------------------------------*- C++ -*----------------------------------*\
| =========                 |                                                 |
| \\      /  F ield         | OpenFOAM: The Open Source CFD Toolbox           |
|  \\    /   O peration     | Version:  dev                                   |
|   \\  /    A nd           | Web:      http://www.openfoam.org               |
|    \\/     M anipulation  |                                                 |
\*---------------------------------------------------------------------------*/
FoamFile
{
    version     2.0;
    format      ascii;
    class       volVectorField;
    object      UMean;
    location    "9.135";
}
// * * * * * * * * * * * * * * * * * * * * * * * * * * * * * * * * * * * * * //

dimensions      [0 1 -1 0 0 0 0];

internalField   nonuniform List<vector> 
12225
(
(7.00366 0.430274 0)
(4.4388 0.192547 0)
(2.55671 0.0311538 0)
(2.51097 -0.0166635 0)
(1.38439 0.0193708 0)
(2.26746 -0.0342881 0)
(0.989482 0.0489882 0)
(2.18278 -0.0591877 0)
(0.79746 0.0716684 0)
(2.29211 -0.0978671 0)
(0.688695 0.0993903 0)
(2.74407 -0.138645 0)
(0.948168 0.102624 0)
(3.39734 -0.172141 0)
(3.53149 -0.168463 0)
(4.69567 0.0499891 0)
(14.8445 -2.43393 0)
(7.11817 5.13317 0)
(9.54623 0.98161 0)
(9.54343 0.860881 0)
(6.68658 0.466281 0)
(7.59059 0.214542 0)
(4.09021 0.140333 0)
(6.84341 0.0107826 0)
(2.6647 0.132665 0)
(6.6897 -0.0903536 0)
(1.82217 0.141842 0)
(7.03992 -0.165101 0)
(1.26015 0.123922 0)
(8.12282 -0.414514 0)
(1.38503 0.25252 0)
(9.95597 -1.44241 0)
(3.43586 0.272026 0)
(12.3884 -4.06789 0)
(10.4295 -1.9276 0)
(7.77533 0.484926 0)
(9.1183 0.763516 0)
(12.167 0.951398 0)
(8.32911 0.623943 0)
(11.8324 0.443394 0)
(6.22542 0.310315 0)
(11.4134 0.206437 0)
(4.58202 0.221509 0)
(11.3155 -0.0195741 0)
(3.87349 0.192941 0)
(11.3773 -0.277955 0)
(4.34993 0.187271 0)
(11.254 -0.723355 0)
(5.72805 0.176158 0)
(11.0914 -1.49204 0)
(7.21483 0.0530704 0)
(12.1183 -3.86621 0)
(6.93355 0.35045 0)
(9.35342 -2.39046 0)
(7.21854 0.525003 0)
(13.9934 0.961026 0)
(7.92942 0.609448 0)
(14.2957 0.55385 0)
(7.47414 0.42093 0)
(14.1167 0.27102 0)
(7.17566 0.396718 0)
(13.7387 -0.145202 0)
(7.2567 0.459595 0)
(13.2698 -0.69885 0)
(7.65908 0.576748 0)
(12.8749 -1.42288 0)
(8.2662 0.699462 0)
(12.6518 -2.31351 0)
(9.02227 0.042101 0)
(11.8885 -3.63726 0)
(8.68456 -1.43205 0)
(8.36446 0.681596 0)
(6.42387 0.570035 0)
(14.011 0.565828 0)
(8.47399 0.674488 0)
(13.958 0.284455 0)
(9.17014 0.636753 0)
(13.6433 -0.00264308 0)
(9.51794 0.657894 0)
(13.2136 -0.388767 0)
(9.59277 0.734405 0)
(12.8125 -0.871366 0)
(9.44598 0.876916 0)
(12.5821 -1.52146 0)
(9.1499 1.09 0)
(12.5699 -2.48993 0)
(8.82713 1.13232 0)
(11.6158 -5.02823 0)
(8.54204 1.26677 0)
(8.72271 0.127056 0)
(7.95705 0.616955 0)
(11.8024 0.152229 0)
(9.50603 0.654783 0)
(11.7388 0.0501153 0)
(10.0892 0.69397 0)
(11.6 -0.165726 0)
(10.3214 0.72588 0)
(11.4759 -0.457606 0)
(10.3013 0.78312 0)
(11.3892 -0.853659 0)
(10.0335 0.832194 0)
(11.355 -1.40031 0)
(9.49331 0.801612 0)
(11.4175 -2.13866 0)
(8.80233 0.726496 0)
(10.9971 -3.92065 0)
(7.7349 1.33609 0)
(9.48906 -0.218649 0)
(9.34507 0.812769 0)
(10.4379 -0.266175 0)
(10.1417 0.930548 0)
(10.5532 -0.304675 0)
(10.3994 1.02004 0)
(10.5815 -0.502986 0)
(10.5208 1.07552 0)
(10.6253 -0.7813 0)
(10.5641 1.15358 0)
(10.6719 -1.15791 0)
(10.5164 1.23539 0)
(10.7001 -1.63596 0)
(10.3681 1.26152 0)
(10.6882 -2.32749 0)
(10.0548 1.27156 0)
(10.3761 -3.95374 0)
(8.30055 2.01875 0)
(9.69711 -0.952761 0)
(9.84992 0.701201 0)
(10.1553 -0.326211 0)
(10.4072 0.855058 0)
(10.3895 -0.350027 0)
(10.5807 0.906832 0)
(10.4706 -0.494086 0)
(10.7019 0.892932 0)
(10.5522 -0.686417 0)
(10.8057 0.87274 0)
(10.6443 -0.93544 0)
(10.8814 0.82397 0)
(10.7359 -1.23291 0)
(10.9086 0.671595 0)
(10.7544 -1.67267 0)
(10.7238 0.519935 0)
(10.4932 -2.4736 0)
(8.8949 0.980249 0)
(9.9644 -0.484319 0)
(10.0865 0.802258 0)
(10.0193 -0.583604 0)
(10.5358 1.0214 0)
(10.3106 -0.604575 0)
(10.6752 1.07493 0)
(10.4401 -0.725051 0)
(10.7776 1.04817 0)
(10.571 -0.890165 0)
(10.8574 1.00362 0)
(10.7117 -1.11791 0)
(10.8989 0.921103 0)
(10.8322 -1.39505 0)
(10.8742 0.734749 0)
(10.8225 -1.76088 0)
(10.6024 0.5056 0)
(10.521 -2.06857 0)
(9.35088 0.585751 0)
(10.0238 -0.391741 0)
(10.1397 0.648628 0)
(10.042 -0.51206 0)
(10.5104 0.878029 0)
(10.3333 -0.456584 0)
(10.6214 0.869191 0)
(10.4819 -0.493775 0)
(10.6979 0.778261 0)
(10.6291 -0.572327 0)
(10.7343 0.657898 0)
(10.7636 -0.695535 0)
(10.718 0.495523 0)
(10.8403 -0.845121 0)
(10.6183 0.264032 0)
(10.7655 -1.03219 0)
(10.2826 0.0701898 0)
(10.4795 -1.05277 0)
(9.62388 0.123894 0)
(10.207 -0.0330745 0)
(10.1413 0.699935 0)
(10.0705 -0.691942 0)
(10.4527 0.902452 0)
(10.2985 -0.61899 0)
(10.5376 0.847538 0)
(10.4302 -0.645613 0)
(10.6033 0.735181 0)
(10.5608 -0.707494 0)
(10.6273 0.586668 0)
(10.6605 -0.791331 0)
(10.6092 0.382991 0)
(10.6814 -0.869284 0)
(10.527 0.116912 0)
(10.5711 -0.922015 0)
(10.2917 -0.113987 0)
(10.3611 -0.764963 0)
(10.0202 -0.154476 0)
(10.2458 -0.125427 0)
(10.097 0.467964 0)
(10.1508 -0.495175 0)
(10.3537 0.595718 0)
(10.2934 -0.374704 0)
(10.4204 0.527493 0)
(10.4094 -0.354909 0)
(10.4848 0.418844 0)
(10.5241 -0.374337 0)
(10.5131 0.275669 0)
(10.5995 -0.414806 0)
(10.5157 0.0932377 0)
(10.5972 -0.461754 0)
(10.4767 -0.103404 0)
(10.4997 -0.50018 0)
(10.3573 -0.232234 0)
(10.3648 -0.405725 0)
(10.2662 -0.220019 0)
(10.3741 -0.110446 0)
(10.0501 0.410914 0)
(10.1754 -0.487314 0)
(10.2549 0.437125 0)
(10.2379 -0.36755 0)
(10.3088 0.367275 0)
(10.3307 -0.345644 0)
(10.3793 0.250771 0)
(10.4247 -0.35537 0)
(10.4227 0.0993718 0)
(10.4824 -0.374956 0)
(10.4463 -0.0798205 0)
(10.4819 -0.403485 0)
(10.4331 -0.246789 0)
(10.4263 -0.431324 0)
(10.3774 -0.339324 0)
(10.3688 -0.392763 0)
(10.3574 -0.320682 0)
(10.4226 -0.276713 0)
(10.0153 0.199572 0)
(10.1907 -0.285857 0)
(10.1932 0.167269 0)
(10.2052 -0.17935 0)
(10.2293 0.131593 0)
(10.2792 -0.171443 0)
(10.3062 0.0471666 0)
(10.3627 -0.197864 0)
(10.3661 -0.0587954 0)
(10.4143 -0.23583 0)
(10.4056 -0.176113 0)
(10.4268 -0.286545 0)
(10.4125 -0.275105 0)
(10.4114 -0.331782 0)
(10.3997 -0.324267 0)
(10.4068 -0.33735 0)
(10.4111 -0.316194 0)
(10.47 -0.305039 0)
(9.99662 0.0970773 0)
(10.1445 -0.185919 0)
(10.1463 0.0216072 0)
(10.1501 -0.133709 0)
(10.1622 -0.00868877 0)
(10.209 -0.146227 0)
(10.241 -0.0770261 0)
(10.292 -0.186804 0)
(10.3111 -0.159483 0)
(10.3487 -0.238058 0)
(10.3576 -0.244894 0)
(10.3792 -0.298428 0)
(10.3806 -0.316407 0)
(10.394 -0.350216 0)
(10.3961 -0.361175 0)
(10.4187 -0.380367 0)
(10.424 -0.381243 0)
(10.4791 -0.387463 0)
(9.99368 0.0154741 0)
(10.106 -0.0858335 0)
(10.1089 -0.0443598 0)
(10.1138 -0.0932968 0)
(10.1188 -0.0749346 0)
(10.1675 -0.118999 0)
(10.1981 -0.120674 0)
(10.2519 -0.163916 0)
(10.2741 -0.180665 0)
(10.3155 -0.219265 0)
(10.328 -0.244051 0)
(10.3599 -0.277951 0)
(10.3661 -0.301482 0)
(10.3941 -0.329165 0)
(10.3997 -0.347171 0)
(10.4331 -0.370998 0)
(10.4358 -0.384002 0)
(10.4886 -0.397248 0)
(9.99181 0.00474933 0)
(10.0637 -0.0251593 0)
(10.0568 -0.0349252 0)
(10.0679 -0.0664859 0)
(10.0779 -0.0757355 0)
(10.1281 -0.0997966 0)
(10.1574 -0.115989 0)
(10.2111 -0.144767 0)
(10.2338 -0.169055 0)
(10.2783 -0.199669 0)
(10.2921 -0.226679 0)
(10.3302 -0.25717 0)
(10.3386 -0.283472 0)
(10.3733 -0.312225 0)
(10.379 -0.336998 0)
(10.4154 -0.365749 0)
(10.4148 -0.388282 0)
(10.4637 -0.407727 0)
(9.99154 0.0141589 0)
(10.0467 0.0161707 0)
(10.0398 -0.0105792 0)
(10.0576 -0.0376928 0)
(10.0748 -0.0565546 0)
(10.1255 -0.0778857 0)
(10.1554 -0.098911 0)
(10.2072 -0.123883 0)
(10.2312 -0.149068 0)
(10.2754 -0.176721 0)
(10.2912 -0.20354 0)
(10.3294 -0.232288 0)
(10.3396 -0.259514 0)
(10.3738 -0.288477 0)
(10.3803 -0.315825 0)
(10.4142 -0.345912 0)
(10.4134 -0.371788 0)
(10.4568 -0.393632 0)
(9.99167 0.0329395 0)
(10.0502 0.0496863 0)
(10.0566 0.0099584 0)
(10.0799 -0.0180632 0)
(10.1007 -0.0402369 0)
(10.1507 -0.0614874 0)
(10.1819 -0.0836328 0)
(10.2316 -0.106446 0)
(10.2563 -0.130604 0)
(10.2985 -0.155583 0)
(10.3151 -0.181166 0)
(10.3508 -0.207431 0)
(10.3615 -0.233685 0)
(10.3927 -0.260553 0)
(10.3992 -0.287192 0)
(10.4289 -0.315467 0)
(10.4282 -0.341217 0)
(10.4654 -0.36302 0)
(9.98987 0.0407332 0)
(10.0547 0.0527208 0)
(10.0828 -0.00629198 0)
(10.1167 -0.0406381 0)
(10.1419 -0.0641015 0)
(10.1904 -0.0822673 0)
(10.2224 -0.102117 0)
(10.2691 -0.121045 0)
(10.2936 -0.142803 0)
(10.3321 -0.164062 0)
(10.3484 -0.187491 0)
(10.3803 -0.21019 0)
(10.3905 -0.234514 0)
(10.4175 -0.258048 0)
(10.4229 -0.282934 0)
(10.4474 -0.307986 0)
(10.4462 -0.332634 0)
(10.4769 -0.353053 0)
(9.99052 0.0316063 0)
(10.0685 0.0220733 0)
(10.1262 -0.0557034 0)
(10.177 -0.0967322 0)
(10.2126 -0.119776 0)
(10.261 -0.132753 0)
(10.2938 -0.147808 0)
(10.3361 -0.161705 0)
(10.3602 -0.179899 0)
(10.3942 -0.196997 0)
(10.4104 -0.217453 0)
(10.4378 -0.236347 0)
(10.4479 -0.258107 0)
(10.4702 -0.278188 0)
(10.4755 -0.300885 0)
(10.4947 -0.322524 0)
(10.494 -0.345394 0)
(10.5188 -0.363697 0)
(9.99117 0.00990469 0)
(10.092 -0.0296489 0)
(10.187 -0.120796 0)
(10.2595 -0.162747 0)
(10.3093 -0.181123 0)
(10.359 -0.187175 0)
(10.3929 -0.196071 0)
(10.4305 -0.204418 0)
(10.4543 -0.218173 0)
(10.4838 -0.230819 0)
(10.5002 -0.247689 0)
(10.5233 -0.26273 0)
(10.5338 -0.281451 0)
(10.5518 -0.298152 0)
(10.5573 -0.318225 0)
(10.5719 -0.336574 0)
(10.5724 -0.357168 0)
(10.5921 -0.373325 0)
(9.99278 -0.0233271 0)
(10.1275 -0.103541 0)
(10.2671 -0.204878 0)
(10.3665 -0.241563 0)
(10.432 -0.250798 0)
(10.4836 -0.248401 0)
(10.5184 -0.250927 0)
(10.5518 -0.253739 0)
(10.5754 -0.263029 0)
(10.6013 -0.2714 0)
(10.6182 -0.28474 0)
(10.6379 -0.296373 0)
(10.6487 -0.312198 0)
(10.6632 -0.325968 0)
(10.6692 -0.343519 0)
(10.6802 -0.358982 0)
(10.6814 -0.377309 0)
(10.6969 -0.391475 0)
(9.9905 -0.0715678 0)
(10.1745 -0.201113 0)
(10.368 -0.305424 0)
(10.5002 -0.327841 0)
(10.5806 -0.322561 0)
(10.6345 -0.310207 0)
(10.6691 -0.305602 0)
(10.6998 -0.302607 0)
(10.7228 -0.306758 0)
(10.7461 -0.310651 0)
(10.7625 -0.319986 0)
(10.7795 -0.328142 0)
(10.7896 -0.340692 0)
(10.8007 -0.351482 0)
(10.8056 -0.36609 0)
(10.8125 -0.378665 0)
(10.8123 -0.394237 0)
(10.8223 -0.406206 0)
(9.99202 -0.136345 0)
(10.2448 -0.322968 0)
(10.5028 -0.418972 0)
(10.6713 -0.417609 0)
(10.7628 -0.394168 0)
(10.8175 -0.371113 0)
(10.8495 -0.358961 0)
(10.8772 -0.350617 0)
(10.8961 -0.350144 0)
(10.9149 -0.350555 0)
(10.9254 -0.356456 0)
(10.9356 -0.361599 0)
(10.9375 -0.370914 0)
(10.9394 -0.37879 0)
(10.934 -0.390001 0)
(10.9291 -0.3996 0)
(10.9164 -0.411536 0)
(10.9115 -0.420702 0)
(9.98976 -0.219886 0)
(10.3369 -0.468089 0)
(10.6737 -0.539706 0)
(10.8758 -0.508204 0)
(10.9698 -0.464849 0)
(11.0135 -0.428068 0)
(11.0286 -0.404829 0)
(11.0353 -0.388413 0)
(11.0291 -0.381462 0)
(11.0195 -0.377021 0)
(10.998 -0.378247 0)
(10.9735 -0.379164 0)
(10.9377 -0.383899 0)
(10.8999 -0.387389 0)
(10.8521 -0.393769 0)
(10.804 -0.399105 0)
(10.746 -0.405438 0)
(10.6943 -0.410228 0)
(9.98333 -0.332056 0)
(10.4677 -0.64229 0)
(10.883 -0.66709 0)
(11.0725 -0.602639 0)
(11.103 -0.537201 0)
(11.0584 -0.483138 0)
(10.9743 -0.445008 0)
(10.8731 -0.416259 0)
(10.7577 -0.398056 0)
(10.6349 -0.383323 0)
(10.5034 -0.374951 0)
(10.3664 -0.366401 0)
(10.2239 -0.362527 0)
(10.0771 -0.357084 0)
(9.92829 -0.355947 0)
(9.77665 -0.353363 0)
(9.6254 -0.353076 0)
(9.47541 -0.351248 0)
(10.0025 -0.453665 0)
(10.619 -0.818946 0)
(10.9017 -0.752075 0)
(10.7933 -0.623763 0)
(10.4938 -0.512553 0)
(10.1376 -0.429208 0)
(9.77007 -0.373587 0)
(9.41751 -0.33475 0)
(9.07666 -0.307326 0)
(8.75525 -0.284647 0)
(8.4462 -0.267696 0)
(8.15304 -0.251378 0)
(7.87222 -0.240091 0)
(7.60256 -0.227392 0)
(7.34768 -0.22119 0)
(7.09807 -0.211884 0)
(6.86956 -0.210918 0)
(6.64005 -0.204245 0)
(10.0974 -0.750785 0)
(10.0459 -1.01319 0)
(9.42499 -0.801094 0)
(8.51445 -0.572191 0)
(7.65497 -0.378733 0)
(6.9288 -0.24489 0)
(6.32719 -0.167534 0)
(5.83143 -0.126265 0)
(5.40895 -0.104723 0)
(5.04831 -0.0923423 0)
(4.72816 -0.0849831 0)
(4.44738 -0.0793724 0)
(4.19092 -0.0758291 0)
(3.96197 -0.0719126 0)
(3.75021 -0.0721564 0)
(3.55499 -0.069106 0)
(3.38272 -0.0802918 0)
(3.21776 -0.0828867 0)
(8.51678 -0.436054 0)
(6.11029 -0.380892 0)
(4.29836 -0.138059 0)
(3.12386 -0.021392 0)
(2.48107 0.0191303 0)
(2.12044 0.022468 0)
(1.89618 0.0137086 0)
(1.73485 0.00461066 0)
(1.59879 -0.00157364 0)
(1.47803 -0.00479414 0)
(1.36591 -0.00640826 0)
(1.26373 -0.00672292 0)
(1.16804 -0.00671043 0)
(1.0813 -0.00639273 0)
(0.999244 -0.00666092 0)
(0.91899 -0.00703803 0)
(0.851465 -0.0186142 0)
(0.73092 -0.00614448 0)
(-0.0519902 0.13784 0)
(-0.15689 0.0713882 0)
(-0.206811 0.0163885 0)
(-0.194972 -0.0443612 0)
(-0.117755 -0.0990438 0)
(0.0123817 -0.145061 0)
(0.186375 -0.175596 1.11353e-17)
(0.38807 -0.193556 -1.10603e-17)
(0.606245 -0.197943 0)
(0.828572 -0.192675 -1.09172e-17)
(1.04566 -0.178328 0)
(1.24855 -0.157552 0)
(1.43064 -0.130908 0)
(1.58671 -0.101544 1.06426e-17)
(1.71408 -0.0702924 0)
(1.80998 -0.0382266 0)
(1.87355 -0.00607998 -1.04455e-17)
(1.90552 0.0241777 0)
(1.90754 0.0506325 0)
(1.8817 0.0723375 0)
(1.83168 0.0892701 1.01961e-17)
(1.76009 0.100779 0)
(1.67084 0.108613 1.00742e-17)
(1.56561 0.111488 0)
(1.44905 0.109574 0)
(1.32387 0.107916 9.89552e-18)
(1.19036 0.111229 0)
(1.04772 0.116377 -9.77919e-18)
(0.899174 0.121648 0)
(0.745293 0.126711 9.66431e-18)
(0.587624 0.130728 0)
(0.428441 0.133201 0)
(0.270001 0.134362 0)
(0.112788 0.134139 0)
(-0.0428881 0.131244 0)
(-0.194963 0.126546 -9.32963e-18)
(-0.34178 0.120428 0)
(-0.482917 0.113918 1.84406e-17)
(-0.616926 0.10741 0)
(-0.74337 0.100161 -1.82216e-17)
(-0.860782 0.093102 0)
(-0.969318 0.0863002 0)
(-1.06943 0.0785234 1.78884e-17)
(-1.16064 0.0701343 0)
(-1.24359 0.06241 1.76652e-17)
(-1.31838 0.0551662 -1.75531e-17)
(-1.38448 0.0481728 0)
(-1.44276 0.0421365 -1.73282e-17)
(-1.49431 0.0368213 -1.72151e-17)
(-1.53811 0.0331531 0)
(-1.57434 0.0315692 0)
(-1.60487 0.0315583 0)
(-1.63184 0.0316598 0)
(-1.65624 0.0316392 0)
(-1.67947 0.0325045 1.65281e-17)
(-1.70333 0.0340485 0)
(-1.72918 0.0362826 -1.62988e-17)
(-1.75576 0.0383277 0)
(-1.78184 0.0389665 0)
(-1.80742 0.0395965 1.59524e-17)
(-1.83322 0.0413877 0)
(-1.8611 0.0426198 -1.57211e-17)
(-1.89097 0.0442726 0)
(-1.92263 0.0457622 0)
(-1.95566 0.0466261 0)
(-1.98945 0.0478276 1.52555e-17)
(-2.02368 0.0496512 0)
(-2.05859 0.0518656 0)
(-2.09398 0.0542684 1.49058e-17)
(-2.13015 0.0557359 0)
(-2.16411 0.0559811 1.46711e-17)
(-2.19499 0.0563701 0)
(-2.22267 0.0565676 0)
(-2.24612 0.0564088 0)
(-2.26439 0.0558159 -1.4205e-17)
(-2.27677 0.0545982 0)
(-2.28395 0.0538854 0)
(-2.28784 0.0538283 -1.38612e-17)
(-2.28887 0.0528757 -1.37478e-17)
(-2.28532 0.051237 0)
(-2.27539 0.0489858 -1.35225e-17)
(-2.25895 0.0460748 0)
(-2.23561 0.0429286 -2.66021e-17)
(-2.20535 0.0395001 0)
(-2.16871 0.0358244 -2.61666e-17)
(-2.12553 0.0327662 0)
(-2.07684 0.0303624 2.57378e-17)
(-2.02346 0.0283816 0)
(-1.96548 0.0269328 0)
(-1.90351 0.0259401 0)
(-1.83911 0.0253402 -2.49007e-17)
(-1.77205 0.0250701 0)
(-1.70402 0.0250393 2.4499e-17)
(-1.63505 0.0256376 0)
(-1.56587 0.0267071 -2.41096e-17)
(-1.49841 0.0292518 -2.3921e-17)
(-1.43182 0.0304219 -2.37367e-17)
(-1.36517 0.0315095 0)
(-1.30035 0.0315772 0)
(-1.23614 0.032728 0)
(-1.17065 0.0334738 0)
(-1.10605 0.0330817 0)
(-1.03643 0.03197 0)
(-0.96779 0.033285 0)
(-0.896931 0.0329143 0)
(-0.82983 0.0353165 2.22129e-17)
(-0.762293 0.0357703 2.20607e-17)
(-0.699625 0.0400412 0)
(-0.63862 0.0412638 0)
(-0.582709 0.0409593 0)
(-0.515006 0.03837 2.14801e-17)
(-0.452695 0.0425499 0)
(-0.383683 0.0407597 0)
(-0.318727 0.0436884 0)
(-0.247775 0.0406067 0)
(-0.174883 0.0431477 -2.08058e-17)
(-0.0999464 0.0447813 0)
(-0.0196247 0.0438613 0)
(0.0654757 0.045167 2.04288e-17)
(0.15432 0.0450394 -2.03073e-17)
(0.246426 0.0443742 0)
(0.342958 0.0482785 -2.00746e-17)
(0.434725 0.0511911 0)
(0.527686 0.0543487 1.98482e-17)
(0.610526 0.0591432 0)
(0.682027 0.0621406 0)
(0.757434 0.0624986 0)
(0.826568 0.063284 0)
(0.9059 0.0605069 0)
(0.979051 0.0610849 -3.83967e-17)
(1.0543 0.0627943 -3.81777e-17)
(1.11365 0.0677146 0)
(1.1635 0.0664406 0)
(1.20862 0.0673955 0)
(1.24647 0.0634028 3.7253e-17)
(1.29544 0.0587035 0)
(1.34566 0.0570897 0)
(1.39117 0.0559333 0)
(1.43978 0.0540863 3.62327e-17)
(1.47675 0.0567617 -3.59645e-17)
(1.51967 0.0526738 0)
(1.55876 0.0526995 0)
(1.6002 0.0531664 -3.51498e-17)
(1.62624 0.0582843 -3.4877e-17)
(1.65607 0.054984 0)
(1.68434 0.0587644 0)
(1.72329 0.0557328 3.4044e-17)
(1.7596 0.0659737 -3.37646e-17)
(1.76783 0.071368 0)
(1.78138 0.0707549 0)
(1.80676 0.0710837 -3.29279e-17)
(1.84004 0.0758459 0)
(1.85369 0.0833947 0)
(1.86515 0.089157 -3.2084e-17)
(1.86445 0.0932611 0)
(1.87867 0.0981008 -3.1524e-17)
(1.8807 0.105055 0)
(1.88653 0.109118 0)
(1.87399 0.120637 0)
(1.86085 0.126513 3.04349e-17)
(1.84615 0.132976 0)
(1.81434 0.142908 0)
(1.74216 0.154616 0)
(1.66569 0.154534 0)
(1.60084 0.156744 0)
(1.51122 0.165603 0)
(1.38333 0.17244 2.88934e-17)
(1.2644 0.173816 2.87394e-17)
(1.08041 0.181834 0)
(0.873621 0.184505 0)
(0.630889 0.183443 0)
(0.415251 0.169736 -2.83217e-17)
(0.193505 0.162699 0)
(0.0418753 0.146534 5.63482e-17)
(-0.158532 0.143939 -5.62386e-17)
(-0.26166 0.123685 -5.60593e-17)
(-0.422996 0.126759 5.59552e-17)
(-0.458318 0.0966367 -5.57527e-17)
(-0.61587 0.129138 5.57326e-17)
(-0.563634 -0.00401553 0)
(0.0101357 0.248532 0)
(0.0146316 0.191804 0)
(0.0497093 0.00773848 -2.27957e-17)
(0.120969 -0.198214 0)
(0.235781 -0.384115 2.23645e-17)
(0.387979 -0.535485 2.22179e-17)
(0.569015 -0.64436 1.10436e-17)
(0.768783 -0.710313 1.09812e-17)
(0.975967 -0.736928 0)
(1.18001 -0.730649 1.08541e-17)
(1.37224 -0.694786 0)
(1.54538 -0.636447 0)
(1.69543 -0.561774 -2.13199e-17)
(1.81769 -0.477282 -1.05948e-17)
(1.9121 -0.385292 2.10555e-17)
(1.97689 -0.2907 2.0922e-17)
(2.0134 -0.198356 1.03954e-17)
(2.02174 -0.110317 0)
(2.00434 -0.0273355 0)
(1.9612 0.0473449 0)
(1.89616 0.112753 1.01365e-17)
(1.8093 0.171773 0)
(1.70528 0.224576 -3.00371e-17)
(1.58293 0.26733 0)
(1.44459 0.302244 0)
(1.29077 0.332741 -9.83187e-18)
(1.125 0.356617 0)
(0.950024 0.373806 9.71554e-18)
(0.769672 0.384773 1.93127e-17)
(0.584823 0.391975 -9.59755e-18)
(0.398251 0.394023 0)
(0.211206 0.390196 0)
(0.0233661 0.382898 0)
(-0.16478 0.375929 1.87311e-17)
(-0.35148 0.367339 1.86166e-17)
(-0.535434 0.355065 9.25132e-18)
(-0.713903 0.340303 0)
(-0.887401 0.323225 -1.82763e-17)
(-1.05201 0.302682 0)
(-1.20999 0.280777 1.80509e-17)
(-1.35973 0.258288 0)
(-1.5029 0.235461 0)
(-1.63794 0.215059 -1.77167e-17)
(-1.76579 0.195968 0)
(-1.8889 0.178036 -5.24867e-17)
(-2.00632 0.159284 1.73857e-17)
(-2.11716 0.140395 0)
(-2.22102 0.123556 1.71655e-17)
(-2.31875 0.106003 1.70553e-17)
(-2.40909 0.0865357 0)
(-2.49022 0.0676557 0)
(-2.56425 0.0531514 0)
(-2.63305 0.0437012 0)
(-2.69856 0.038834 0)
(-2.76021 0.0374206 -1.63737e-17)
(-2.81996 0.0368983 -3.25152e-17)
(-2.87817 0.0369465 1.61414e-17)
(-2.93197 0.0343407 0)
(-2.98347 0.0303872 -3.1813e-17)
(-3.03282 0.029049 1.57874e-17)
(-3.07935 0.030019 0)
(-3.12687 0.0309364 1.55499e-17)
(-3.1722 0.0336147 0)
(-3.21553 0.0350178 0)
(-3.25723 0.0345484 3.03753e-17)
(-3.29793 0.0338872 -1.50673e-17)
(-3.33409 0.0317982 2.98918e-17)
(-3.3677 0.0290046 -2.96505e-17)
(-3.39532 0.0252823 -1.47046e-17)
(-3.41975 0.0204295 0)
(-3.43779 0.0128444 -1.44628e-17)
(-3.4491 0.00264746 0)
(-3.45471 -0.00805662 0)
(-3.45193 -0.0205384 0)
(-3.43996 -0.0347263 -1.39829e-17)
(-3.41977 -0.0486911 0)
(-3.39312 -0.0587864 -2.74948e-17)
(-3.3607 -0.065873 4.08938e-17)
(-3.32295 -0.0743397 1.35161e-17)
(-3.27896 -0.0853317 0)
(-3.2271 -0.0979762 1.32876e-17)
(-3.17001 -0.110566 0)
(-3.10734 -0.122542 2.61236e-17)
(-3.03956 -0.133487 0)
(-2.96682 -0.143922 2.56806e-17)
(-2.88901 -0.153245 -5.09212e-17)
(-2.8073 -0.162113 -2.52467e-17)
(-2.7232 -0.170119 0)
(-2.63407 -0.177729 0)
(-2.54269 -0.183453 0)
(-2.44904 -0.187651 2.44067e-17)
(-2.35211 -0.191662 0)
(-2.25398 -0.194271 -2.40005e-17)
(-2.15596 -0.194548 0)
(-2.05744 -0.19604 7.08202e-17)
(-1.95904 -0.195323 2.34166e-17)
(-1.86009 -0.19626 2.32305e-17)
(-1.76338 -0.193395 0)
(-1.66907 -0.192811 0)
(-1.57416 -0.193753 0)
(-1.47666 -0.194488 0)
(-1.38 -0.197015 0)
(-1.27752 -0.201416 4.43217e-17)
(-1.18124 -0.199653 4.39858e-17)
(-1.08142 -0.199889 0)
(-0.993709 -0.194451 -2.1675e-17)
(-0.897022 -0.195527 -2.15229e-17)
(-0.809723 -0.188768 0)
(-0.714888 -0.187568 -4.24432e-17)
(-0.63643 -0.186712 0)
(-0.540013 -0.196872 2.09374e-17)
(-0.454121 -0.190952 0)
(-0.34825 -0.19938 0)
(-0.253477 -0.19591 -4.10573e-17)
(-0.140141 -0.204633 0)
(-0.0358653 -0.204642 2.02721e-17)
(0.0896105 -0.212368 0)
(0.216194 -0.220083 0)
(0.352732 -0.224652 1.98869e-17)
(0.493745 -0.229382 1.97705e-17)
(0.639789 -0.234928 0)
(0.789464 -0.235498 -1.95332e-17)
(0.949374 -0.236789 0)
(1.10863 -0.228933 1.92965e-17)
(1.27402 -0.219101 3.8363e-17)
(1.42161 -0.212655 0)
(1.57856 -0.213538 0)
(1.72314 -0.213447 0)
(1.88241 -0.214792 0)
(2.02847 -0.209785 3.72309e-17)
(2.18222 -0.206477 1.11008e-16)
(2.31783 -0.187285 0)
(2.44113 -0.182842 0)
(2.5601 -0.172917 0)
(2.66558 -0.175054 -3.60805e-17)
(2.76869 -0.179688 0)
(2.87024 -0.178918 0)
(2.96578 -0.177115 7.06171e-17)
(3.05954 -0.176217 3.50341e-17)
(3.13315 -0.170129 3.47652e-17)
(3.22004 -0.179534 0)
(3.28372 -0.173583 0)
(3.3517 -0.174964 3.3921e-17)
(3.39765 -0.163953 -3.36153e-17)
(3.44345 -0.17806 0)
(3.47256 -0.174695 0)
(3.5068 -0.190854 -3.27228e-17)
(3.53466 -0.173004 9.71921e-17)
(3.54916 -0.168747 0)
(3.55964 -0.179658 0)
(3.57098 -0.191361 3.14613e-17)
(3.59154 -0.189273 0)
(3.58736 -0.182818 6.16293e-17)
(3.58546 -0.18092 -3.04737e-17)
(3.5583 -0.185327 0)
(3.55434 -0.194281 2.98478e-17)
(3.53018 -0.190777 5.90609e-17)
(3.51883 -0.192378 0)
(3.47261 -0.185618 0)
(3.44893 -0.19447 -2.85776e-17)
(3.40904 -0.186502 0)
(3.35186 -0.169191 5.58939e-17)
(3.25534 -0.150088 0)
(3.16386 -0.155448 0)
(3.04532 -0.147146 0)
(2.91717 -0.121916 0)
(2.7228 -0.102665 -2.66549e-17)
(2.56409 -0.0757929 -2.64656e-17)
(2.28014 -0.0263917 0)
(2.00748 -0.0016587 0)
(1.67855 0.0225479 0)
(1.38378 0.0188003 2.59597e-17)
(1.05083 0.0231377 0)
(0.843956 0.0140152 -5.16712e-17)
(0.52368 0.0330046 5.16438e-17)
(0.40887 0.00116913 5.14952e-17)
(0.127971 0.0320704 5.14853e-17)
(0.127921 -0.0157882 5.13324e-17)
(-0.168397 0.0788704 5.14958e-17)
(0.0180729 -0.117161 0)
(0.0290277 0.0709159 0)
(0.120979 -0.0384167 0)
(0.227845 -0.241325 2.29127e-17)
(0.339771 -0.467957 2.26642e-17)
(0.474064 -0.692429 -2.25128e-17)
(0.618028 -0.874321 -2.24002e-17)
(0.772108 -1.00303 -1.48185e-21)
(0.92327 -1.07337 0)
(1.06824 -1.08418 0)
(1.19484 -1.04499 0)
(1.30339 -0.965069 0)
(1.38912 -0.855691 0)
(1.45443 -0.725134 6.47121e-17)
(1.49483 -0.584931 0)
(1.51316 -0.440128 -2.1305e-17)
(1.50764 -0.293699 -2.11687e-17)
(1.48114 -0.152324 0)
(1.43224 -0.0188615 0)
(1.36558 0.104969 0)
(1.28094 0.217404 0)
(1.18062 0.316685 -2.05027e-17)
(1.06546 0.399647 0)
(0.940483 0.471923 2.02488e-17)
(0.802963 0.536928 0)
(0.655797 0.591647 0)
(0.500341 0.63641 0)
(0.342 0.672186 3.95255e-17)
(0.17975 0.699218 0)
(0.0160857 0.718471 -1.95225e-17)
(-0.148546 0.728699 3.88003e-17)
(-0.31242 0.731725 0)
(-0.478543 0.733338 0)
(-0.644851 0.730239 0)
(-0.809952 0.720673 -1.89167e-17)
(-0.971433 0.705371 -1.87959e-17)
(-1.1297 0.683836 0)
(-1.28317 0.656506 0)
(-1.43107 0.624979 3.68592e-17)
(-1.57201 0.590929 3.66195e-17)
(-1.71122 0.556584 -3.63813e-17)
(-1.84542 0.523867 0)
(-1.97782 0.490371 0)
(-2.10462 0.458221 0)
(-2.22774 0.428878 0)
(-2.34664 0.40123 3.52004e-17)
(-2.45953 0.372006 3.49667e-17)
(-2.56729 0.342401 -3.47348e-17)
(-2.66946 0.313903 0)
(-2.76555 0.286041 0)
(-2.85632 0.257073 0)
(-2.94177 0.230279 0)
(-3.02725 0.212517 3.35756e-17)
(-3.10681 0.196649 0)
(-3.18134 0.183474 0)
(-3.24937 0.175709 3.2878e-17)
(-3.31272 0.170556 3.26464e-17)
(-3.37071 0.163685 0)
(-3.42108 0.154321 -6.43596e-17)
(-3.4695 0.147451 3.19485e-17)
(-3.51397 0.141015 -3.17141e-17)
(-3.55267 0.13725 0)
(-3.58845 0.134554 0)
(-3.61821 0.130382 0)
(-3.64305 0.126146 0)
(-3.66534 0.120907 -3.05526e-17)
(-3.68331 0.113479 -6.06461e-17)
(-3.69503 0.105501 -3.00975e-17)
(-3.703 0.0970118 2.98726e-17)
(-3.70379 0.0853949 0)
(-3.69948 0.0721353 -5.88395e-17)
(-3.68719 0.0560599 -5.8391e-17)
(-3.66961 0.0398865 -5.7946e-17)
(-3.6478 0.0220903 5.75041e-17)
(-3.61718 -0.000188882 0)
(-3.57961 -0.0228535 8.49403e-17)
(-3.5362 -0.0422692 0)
(-3.48805 -0.0576304 -2.78772e-17)
(-3.43137 -0.0712984 -2.76642e-17)
(-3.36675 -0.0867892 0)
(-3.29599 -0.103444 0)
(-3.22175 -0.120012 -5.404e-17)
(-3.14535 -0.134694 0)
(-3.06499 -0.148774 -5.31928e-17)
(-2.98213 -0.162303 0)
(-2.89473 -0.176586 5.23539e-17)
(-2.80385 -0.18792 1.0388e-16)
(-2.70928 -0.19764 0)
(-2.61388 -0.206895 0)
(-2.51541 -0.214471 0)
(-2.41825 -0.220779 5.02907e-17)
(-2.31925 -0.226653 0)
(-2.21701 -0.231334 4.94691e-17)
(-2.11189 -0.234538 0)
(-2.00636 -0.233649 0)
(-1.89843 -0.233678 -9.6505e-17)
(-1.79335 -0.231168 0)
(-1.68639 -0.230513 -4.74613e-17)
(-1.58371 -0.224333 0)
(-1.47675 -0.225082 -4.66937e-17)
(-1.37052 -0.224467 0)
(-1.26189 -0.223856 0)
(-1.15445 -0.227938 0)
(-1.04395 -0.230531 -1.35692e-16)
(-0.943586 -0.22243 -4.48692e-17)
(-0.834158 -0.219419 0)
(-0.740621 -0.209127 0)
(-0.638561 -0.210552 0)
(-0.552896 -0.198182 0)
(-0.44857 -0.194301 4.32348e-17)
(-0.36255 -0.188937 -8.58341e-17)
(-0.255433 -0.205615 -4.2632e-17)
(-0.168059 -0.19794 8.46559e-17)
(-0.0480868 -0.214119 8.4093e-17)
(0.053946 -0.210099 4.17606e-17)
(0.184234 -0.225221 0)
(0.297185 -0.225804 8.23956e-17)
(0.436369 -0.241917 0)
(0.568852 -0.25114 -8.12848e-17)
(0.717572 -0.25804 -4.03843e-17)
(0.864122 -0.262792 0)
(1.01935 -0.27101 7.97626e-17)
(1.1686 -0.2738 3.96281e-17)
(1.33086 -0.281886 0)
(1.48931 -0.280158 3.90899e-17)
(1.66353 -0.269266 -1.16508e-16)
(1.82245 -0.256903 0)
(1.98686 -0.255662 0)
(2.13838 -0.255103 0)
(2.29828 -0.258131 0)
(2.45416 -0.25346 -7.5155e-17)
(2.60952 -0.250386 -7.46564e-17)
(2.76024 -0.2193 0)
(2.89779 -0.213993 0)
(3.0287 -0.201864 0)
(3.15036 -0.200528 0)
(3.25758 -0.205616 0)
(3.37729 -0.208457 0)
(3.49063 -0.207488 -7.09537e-17)
(3.6042 -0.204919 -1.65093e-20)
(3.69749 -0.195568 0)
(3.80751 -0.208808 0)
(3.89531 -0.196442 -6.86085e-17)
(3.98826 -0.19714 0)
(4.06631 -0.176266 6.74276e-17)
(4.1361 -0.187203 6.68105e-17)
(4.17718 -0.169881 0)
(4.23161 -0.188425 0)
(4.26953 -0.164448 -6.49022e-17)
(4.31976 -0.155768 -1.28515e-16)
(4.34704 -0.160034 0)
(4.38007 -0.172237 0)
(4.42147 -0.163237 0)
(4.43492 -0.148966 -6.16949e-17)
(4.46342 -0.135755 6.10075e-17)
(4.463 -0.135429 0)
(4.48261 -0.141566 1.19381e-16)
(4.46651 -0.129708 5.9037e-17)
(4.48352 -0.128327 -1.16782e-16)
(4.46155 -0.109887 0)
(4.46044 -0.116898 0)
(4.43076 -0.0955986 -1.12767e-16)
(4.39034 -0.0678901 -5.57238e-17)
(4.30692 -0.0386412 0)
(4.24369 -0.0367175 0)
(4.11201 -0.0186797 0)
(4.00266 0.0243879 0)
(3.79096 0.0522525 -1.056e-16)
(3.62274 0.0957048 0)
(3.32507 0.166885 0)
(3.06684 0.191429 0)
(2.71727 0.219195 0)
(2.4037 0.202709 0)
(2.01528 0.186633 0)
(1.77865 0.15353 -1.00643e-16)
(1.37399 0.15102 0)
(1.24497 0.0830505 0)
(0.861255 0.105388 -1.99424e-16)
(0.856377 0.0229208 9.92509e-17)
(0.471089 0.111541 -9.94047e-17)
(0.666206 -0.128248 9.8785e-17)
(0.0206137 -0.0941709 0)
(0.124877 -0.269095 -4.69556e-17)
(0.247466 -0.489352 0)
(0.375251 -0.754665 -2.27966e-17)
(0.501746 -0.998186 0)
(0.617622 -1.18693 0)
(0.721944 -1.30448 2.24455e-17)
(0.802201 -1.34765 0)
(0.86466 -1.31766 0)
(0.903452 -1.23177 0)
(0.925055 -1.10896 0)
(0.927368 -0.959646 0)
(0.915205 -0.792474 -8.66156e-17)
(0.885947 -0.61529 -4.30251e-17)
(0.843081 -0.432508 4.27457e-17)
(0.786355 -0.251456 0)
(0.717823 -0.0788268 0)
(0.636154 0.0824734 0)
(0.54481 0.231044 0)
(0.443307 0.364209 0)
(0.334417 0.481566 -4.1151e-17)
(0.216325 0.583251 -4.08984e-17)
(0.0903511 0.673808 4.06492e-17)
(-0.0413624 0.749679 -4.04015e-17)
(-0.177162 0.812273 0)
(-0.315693 0.860182 0)
(-0.455715 0.896028 -3.96581e-17)
(-0.596074 0.92057 0)
(-0.737342 0.934547 0)
(-0.879142 0.943018 -3.89249e-17)
(-1.02152 0.948376 -3.86816e-17)
(-1.16174 0.945981 -3.84371e-17)
(-1.29889 0.936824 0)
(-1.4328 0.921489 0)
(-1.56212 0.899984 3.76935e-17)
(-1.68647 0.870328 0)
(-1.80687 0.834792 0)
(-1.92369 0.79535 -3.69486e-17)
(-2.03753 0.757409 3.6697e-17)
(-2.14984 0.719386 -3.64482e-17)
(-2.25571 0.680736 0)
(-2.35995 0.641465 0)
(-2.46017 0.605243 -7.1419e-17)
(-2.55765 0.571112 0)
(-2.6498 0.533083 -7.04531e-17)
(-2.73848 0.495055 -1.04962e-16)
(-2.82352 0.459249 1.04242e-16)
(-2.90326 0.422966 -6.90142e-17)
(-2.97979 0.38572 0)
(-3.05373 0.350099 0)
(-3.12722 0.321932 -6.76019e-17)
(-3.19793 0.297449 -3.35705e-17)
(-3.2623 0.27189 0)
(-3.32249 0.250841 0)
(-3.37811 0.235517 -3.28784e-17)
(-3.4283 0.218684 -6.5297e-17)
(-3.47226 0.199745 0)
(-3.51025 0.181838 6.43791e-17)
(-3.54439 0.16746 -6.392e-17)
(-3.57314 0.153867 6.34642e-17)
(-3.59614 0.139987 0)
(-3.6129 0.126733 0)
(-3.62525 0.115561 0)
(-3.63227 0.104323 0)
(-3.63561 0.0941083 0)
(-3.63353 0.0781854 6.07744e-17)
(-3.62709 0.0609306 0)
(-3.61399 0.0421864 0)
(-3.59511 0.021121 0)
(-3.57215 -0.000878579 1.18047e-16)
(-3.54367 -0.0248902 5.85912e-17)
(-3.51044 -0.0489405 5.81576e-17)
(-3.4722 -0.0759741 -1.15456e-16)
(-3.42758 -0.107401 5.73033e-17)
(-3.37954 -0.137452 -5.68839e-17)
(-3.32527 -0.164932 0)
(-3.26611 -0.190831 5.60368e-17)
(-3.19705 -0.217426 0)
(-3.12386 -0.242526 0)
(-3.0451 -0.264318 0)
(-2.96487 -0.284968 1.08717e-16)
(-2.88253 -0.303964 -5.39451e-17)
(-2.7969 -0.32284 -5.35317e-17)
(-2.7101 -0.341561 -1.06268e-16)
(-2.61935 -0.36134 -1.58212e-16)
(-2.5277 -0.377128 -5.23421e-17)
(-2.43128 -0.39004 0)
(-2.33529 -0.401584 -1.03068e-16)
(-2.23776 -0.409777 0)
(-2.14035 -0.416256 -1.52203e-16)
(-2.04214 -0.426269 0)
(-1.9451 -0.432704 -1.4983e-16)
(-1.84196 -0.438991 0)
(-1.73835 -0.439552 0)
(-1.62994 -0.441004 -4.87466e-17)
(-1.52302 -0.437621 0)
(-1.41279 -0.437067 4.79721e-17)
(-1.30729 -0.432373 9.51563e-17)
(-1.19379 -0.434201 4.72036e-17)
(-1.08414 -0.436304 9.36498e-17)
(-0.965837 -0.437239 -9.2893e-17)