/*--------------------------------*- C++ -*----------------------------------*\
| =========                 |                                                 |
| \\      /  F ield         | OpenFOAM: The Open Source CFD Toolbox           |
|  \\    /   O peration     | Version:  dev                                   |
|   \\  /    A nd           | Web:      http://www.openfoam.org               |
|    \\/     M anipulation  |                                                 |
\*---------------------------------------------------------------------------*/
FoamFile
{
    version     2.0;
    format      ascii;
    class       volScalarField;
    object      k;
    location    "9.121";
}
// * * * * * * * * * * * * * * * * * * * * * * * * * * * * * * * * * * * * * //

dimensions      [0 2 -2 0 0 0 0];

internalField   nonuniform List<scalar> 
12225
(
8.04959
7.89047
4.61332
4.09581
3.5973
4.20515
5.18934
5.476
7.76911
7.18346
10.6903
9.06134
12.7385
11.3255
13.6239
17.6124
32.1913
35.4518
2.08046
6.13618
5.19916
6.18704
4.39859
5.91619
4.30568
6.04137
5.03507
6.43261
6.10884
6.42988
7.26114
5.88637
7.71954
7.17551
19.2252
24.6077
0.248397
2.02478
2.49684
3.63502
3.03356
3.80446
3.09167
3.63607
3.32566
3.10548
3.6102
2.53991
3.67514
2.26041
3.45354
4.13898
14.3007
23.6743
0.0270225
0.445115
0.704154
1.10901
1.38607
1.45785
1.77535
1.55774
2.06955
1.43446
2.10152
1.19549
1.88799
1.16261
2.16693
2.3261
12.17
24.4639
0.00708667
0.10063
0.219351
0.347247
0.583243
0.614112
0.833494
0.748332
0.981781
0.731108
1.04442
0.647474
1.01934
0.649199
1.24457
1.30285
7.16627
23.8264
0.00939192
0.0499468
0.0936817
0.137487
0.240459
0.256078
0.36974
0.340491
0.453984
0.36703
0.510753
0.371685
0.544597
0.404985
0.654794
0.824307
3.62881
14.3171
0.0180525
0.033956
0.0610329
0.0782932
0.128897
0.139977
0.201448
0.199379
0.259536
0.243464
0.30184
0.277048
0.335861
0.317504
0.409657
0.515136
1.48629
4.31389
0.0263397
0.0369253
0.0575839
0.0741754
0.104267
0.120429
0.154283
0.168144
0.200981
0.210741
0.238441
0.245539
0.26833
0.283821
0.312764
0.388124
0.682136
1.22281
0.0372221
0.0540687
0.0657076
0.085583
0.106817
0.128055
0.151953
0.172712
0.1955
0.214041
0.231214
0.248814
0.258315
0.281244
0.288873
0.323358
0.426741
0.511375
0.0569923
0.102442
0.105976
0.140447
0.13935
0.169469
0.175179
0.205783
0.213611
0.242288
0.245781
0.272518
0.270747
0.297637
0.296853
0.325413
0.364053
0.381506
0.113759
0.177321
0.186238
0.237856
0.242819
0.29392
0.285357
0.323227
0.31088
0.342278
0.32603
0.35287
0.342301
0.362845
0.359273
0.367745
0.382519
0.385059
0.248465
0.329211
0.345041
0.406762
0.414038
0.461055
0.458934
0.487737
0.480328
0.499783
0.487628
0.500022
0.492046
0.49836
0.493039
0.491925
0.487425
0.47665
0.531651
0.600323
0.61026
0.653415
0.662364
0.691927
0.685629
0.69144
0.679867
0.679947
0.666202
0.661436
0.646696
0.637262
0.624054
0.612818
0.596221
0.579502
0.984221
0.994831
0.980184
0.981092
0.967844
0.977719
0.976662
0.972457
0.954649
0.941959
0.919178
0.904295
0.876665
0.858081
0.825299
0.803757
0.768277
0.741034
1.6412
1.63979
1.62823
1.61654
1.59016
1.55833
1.50315
1.43958
1.36978
1.30843
1.24214
1.18813
1.12434
1.07597
1.01409
0.971509
0.913339
0.873514
2.5847
2.46431
2.33785
2.18062
2.05539
1.94361
1.83001
1.72351
1.61822
1.52569
1.43136
1.35234
1.26672
1.19975
1.12183
1.06611
0.995293
0.947506
3.19017
2.91503
2.67749
2.43836
2.26027
2.10935
1.96885
1.84429
1.72455
1.61955
1.51354
1.42341
1.32834
1.25319
1.16802
1.10688
1.03091
0.979215
3.2929
2.97647
2.72808
2.47505
2.28916
2.13301
1.98976
1.86355
1.74211
1.63534
1.52736
1.43485
1.33754
1.26012
1.17298
1.11022
1.03329
0.980445
2.94215
2.76265
2.58224
2.3685
2.20348
2.06087
1.92776
1.80973
1.6954
1.59446
1.49087
1.40163
1.30692
1.23143
1.14585
1.08485
1.00957
0.957869
2.07784
2.05463
2.02507
1.95398
1.8782
1.79287
1.7002
1.61193
1.52364
1.44454
1.35847
1.28369
1.20096
1.13565
1.0589
1.00626
0.938247
0.892951
1.28042
1.24979
1.22996
1.21345
1.20391
1.1884
1.15945
1.13063
1.10382
1.08075
1.04128
1.00448
0.953124
0.914726
0.861227
0.82911
0.776487
0.743343
0.704659
0.721514
0.736187
0.761754
0.785436
0.793602
0.792959
0.785006
0.769175
0.753124
0.736154
0.715985
0.686623
0.659527
0.623345
0.598422
0.566822
0.548015
0.378697
0.407988
0.433463
0.462091
0.473623
0.475844
0.473436
0.473524
0.477257
0.485004
0.494018
0.499203
0.499027
0.49578
0.487845
0.480471
0.469745
0.461896
0.170477
0.197541
0.210131
0.223107
0.24408
0.272997
0.302602
0.332169
0.360043
0.386098
0.408331
0.425658
0.436899
0.44322
0.445528
0.444686
0.441943
0.438303
0.069413
0.0821246
0.0976755
0.129039
0.170811
0.218846
0.265714
0.308895
0.346918
0.379151
0.40503
0.42496
0.438342
0.446843
0.451954
0.453972
0.453863
0.451867
0.0194463
0.0398346
0.0729383
0.129958
0.200199
0.275385
0.34096
0.394359
0.436991
0.472164
0.498135
0.517867
0.530119
0.539624
0.547601
0.553589
0.557209
0.55882
0.00719809
0.0547964
0.173548
0.34074
0.514711
0.666194
0.769599
0.835497
0.875938
0.90461
0.918517
0.926877
0.929308
0.934754
0.941044
0.947858
0.948678
0.944919
0.0335197
0.398056
1.0294
1.47318
1.78733
2.00313
2.11121
2.14459
2.13968
2.11556
2.07071
2.03057
1.99359
1.95904
1.92895
1.89739
1.8414
1.7742
0.568375
3.23198
4.64308
4.9958
4.92438
4.68164
4.39911
4.14256
3.93939
3.76158
3.5843
3.41261
3.24372
3.08038
2.9357
2.7737
2.61338
2.37437
6.41472
9.27154
7.8287
5.90449
4.81829
4.42033
4.35976
4.46277
4.66045
4.88903
5.11399
5.31634
5.48888
5.62688
5.71193
5.74363
5.69113
5.28324
0.206141
0.167993
0.179453
0.205878
0.228349
0.251778
0.279439
0.314529
0.349369
0.386106
0.423884
0.469197
0.522366
0.586989
0.662923
0.75297
0.849454
0.973076
1.0992
1.25825
1.42198
1.6193
1.83726
2.07419
2.34127
2.62529
2.95401
3.27131
3.62278
3.93649
4.25442
4.5288
4.70406
4.8655
4.88424
4.74858
4.58043
4.55221
4.52574
4.42525
4.37661
4.37832
4.36653
4.30721
4.23376
4.21521
4.26715
4.40326
4.55763
4.62678
4.59001
4.4936
4.49755
4.62066
4.68503
4.79962
4.92759
5.11041
5.33412
5.76752
6.16513
6.47418
6.72054
6.90663
7.02569
7.07805
7.07864
7.03544
6.93941
6.8018
6.64128
6.45079
6.24428
6.0206
5.79738
5.57874
5.35804
5.13763
4.94127
4.73793
4.53327
4.35495
4.16024
3.97027
3.7995
3.63039
3.45173
3.28687
3.12191
2.97385
2.81219
2.68891
2.5594
2.44339
2.3519
2.26015
2.19329
2.12772
2.08253
2.05273
2.03222
2.02458
2.02315
2.03192
2.05076
2.08308
2.13491
2.21463
2.31549
2.41528
2.52778
2.63419
2.72736
2.81363
2.90275
3.03342
3.20273
3.3051
3.33392
3.33094
3.33339
3.3635
3.42644
3.45929
3.44465
3.38875
3.32885
3.28404
3.24384
3.18552
3.08274
3.02231
3.0457
3.12074
3.20043
3.44968
3.5706
4.00237
4.26895
5.38684
6.06627
7.03671
8.07158
8.79442
9.75283
10.6244
12.5071
14.5994
16.7339
17.8617
18.376
18.2859
17.0295
15.3987
13.0974
11.2962
9.80897
8.76089
7.93618
7.32699
6.92648
6.64306
6.58488
6.48454
6.85353
7.16297
7.37211
7.91925
8.60953
9.61305
10.0549
9.36865
7.82454
7.36657
7.92778
8.6422
8.99335
8.74789
8.12427
8.1939
0.846819
0.379424
0.222487
0.202873
0.206001
0.215688
0.22048
0.220499
0.21476
0.207652
0.202784
0.200884
0.201422
0.204004
0.207044
0.213827
0.220239
0.232776
0.241364
0.255204
0.268278
0.283403
0.308989
0.327528
0.361322
0.386213
0.434624
0.495406
0.551036
0.687067
0.786072
0.962809
1.17059
1.32975
1.59459
1.76908
1.83549
1.87196
1.84053
1.65384
1.4763
1.4175
1.3017
1.04413
0.779573
0.669497
0.65781
0.714249
0.888938
0.993111
1.06452
1.14401
1.20953
1.27869
1.58584
2.70392
3.57506
4.01886
4.38542
4.55464
4.51143
4.28085
3.96992
3.66499
3.36429
3.08499
2.84858
2.62459
2.43918
2.27871
2.14185
2.01184
1.91213
1.81875
1.74702
1.69163
1.6361
1.59272
1.56535
1.52585
1.491
1.4709
1.42977
1.40499
1.3798
1.34466
1.31316
1.28978
1.2609
1.24153
1.21943
1.21046
1.18741
1.1762
1.17531
1.16436
1.16408
1.15957
1.1566
1.15745
1.15854
1.1598
1.15594
1.15043
1.14363
1.13749
1.1396
1.15226
1.18363
1.21817
1.26492
1.30511
1.32976
1.33958
1.34209
1.36082
1.41167
1.43804
1.44499
1.44121
1.43663
1.43599
1.43758
1.43478
1.42466
1.43648
1.49974
1.58234
1.63595
1.65354
1.63511
1.61397
1.65328
1.67759
1.66421
1.71142
1.78131
1.74723
1.76822
1.89929
1.98512
2.21859
2.42018
2.65939
2.95575
3.10801
3.37814
3.89969
4.6045
5.36054
5.83283
6.10939
6.23996
6.04371
5.69765
5.2392
4.97091
4.57492
4.35186
4.12394
4.0207
4.02493
4.05478
4.13042
4.33292
4.5333
4.66086
4.64517
4.69533
4.94182
5.54224
5.60246
4.51658
3.62578
3.80869
4.30435
5.11587
5.88216
5.84897
5.14916
2.04541
0.72479
0.3135
0.224747
0.219726
0.223061
0.218294
0.195766
0.164972
0.142118
0.130567
0.125112
0.123459
0.123834
0.125903
0.130798
0.135719
0.14166
0.146948
0.156313
0.16393
0.172936
0.181907
0.188204
0.192765
0.194629
0.196017
0.198024
0.200986
0.210734
0.224643
0.247366
0.309631
0.357156
0.451451
0.579039
0.667653
0.795892
0.935848
1.00476
1.0168
0.992417
0.82299
0.564813
0.433949
0.393262
0.395512
0.45051
0.504015
0.579614
0.806898
1.40674
1.8196
1.97682
2.19537
2.4448
2.4965
2.396
2.21875
2.01723
1.78941
1.5515
1.33492
1.15054
1.01855
0.90029
0.82456
0.752545
0.709535
0.670044
0.644581
0.624298
0.61094
0.603229
0.600078
0.601381
0.601847
0.605446
0.613073
0.616759
0.625818
0.634193
0.64336
0.654453
0.658776
0.657093
0.661818
0.672097
0.678166
0.685982
0.696369
0.712271
0.716861
0.730141
0.746319
0.759926
0.772772
0.787256
0.798912
0.807033
0.81908
0.825554
0.826343
0.825537
0.826438
0.827906
0.830387
0.83848
0.848501
0.868245
0.897216
0.913929
0.918739
0.910749
0.899932
0.899289
0.900834
0.900273
0.906584
0.919325
0.920218
0.903128
0.892498
0.894088
0.90137
0.926763
0.974674
1.04607
1.09941
1.09254
1.09278
1.06922
1.09058
1.08317
1.05357
1.0965
1.11277
1.20053
1.1542
1.25372
1.21312
1.36544
1.42471
1.60628
1.72845
1.73409
1.723
1.85078
2.18623
2.59274
2.80013
3.10864
3.87694
4.35224
4.42893
4.11007
3.6813
3.30753
3.1008
2.93834
2.83105
2.83244
2.83231
2.86324
2.99287
3.25465
3.44196
3.43636
3.38861
3.40763
3.85826
4.09353
3.25539
2.53837
2.56766
2.65293
2.82116
3.31682
3.69929
3.57047
3.72027
1.15339
0.437666
0.287233
0.277531
0.260594
0.223035
0.174289
0.133986
0.111599
0.103058
0.101252
0.102361
0.10716
0.113921
0.121331
0.127768
0.134762
0.143476
0.156513
0.168765
0.18102
0.190885
0.196881
0.199068
0.198137
0.194749
0.189114
0.182534
0.174673
0.171823
0.171262
0.173981
0.183212
0.203797
0.247556
0.292881
0.355242
0.433925
0.539002
0.615426
0.634757
0.621396
0.533876
0.434389
0.393286
0.394277
0.441286
0.50125
0.648038
1.50219
1.92575
1.8032
1.72914
1.60885
1.4871
1.3496
1.17455
1.03093
0.852891
0.730918
0.614515
0.539565
0.474347
0.438204
0.407142
0.390414
0.377368
0.369986
0.365875
0.364378
0.365201
0.368086
0.372905
0.376969
0.381634
0.384225
0.387345
0.391182
0.392913
0.397168
0.400642
0.406182
0.421055
0.432642
0.437232
0.441847
0.455602
0.467368
0.481729
0.493084
0.518507
0.527246
0.547095
0.564814
0.587852
0.607185
0.624632
0.648541
0.657194
0.67557
0.687349
0.693278
0.695043
0.700882
0.712848
0.725846
0.746616
0.752514
0.763437
0.790555
0.808982
0.814437
0.808466
0.794394
0.792929
0.793661
0.784025
0.777827
0.794455
0.820748
0.832687
0.849239
0.860004
0.868956
0.889863
0.899057
0.929101
0.933364
0.896359
0.8648
0.80827
0.851297
0.830233
0.828271
0.854501
0.933442
1.05106
1.0543
1.06615
1.00355
1.18993
1.23378
1.33047
1.3769
1.33302
1.18486
1.19666
1.32654
1.68611
1.87698
2.06092
2.75786
3.55245
3.69968
3.44392
3.00268
2.72919
2.5534
2.41358
2.32223
2.28566
2.24735
2.2523
2.2787
2.39293
2.75968
2.89006
2.88159
2.89648
3.23983
3.43482
2.85357
2.26672
2.2679
2.20435
2.19641
2.32724
2.6664
2.79289
5.79749
1.70983
0.652153
0.428912
0.342178
0.27343
0.211602
0.146516
0.107897
0.0933414
0.0905949
0.092431
0.0972591
0.105285
0.114035
0.123978
0.133903
0.1469
0.165767
0.18798
0.211541
0.230115
0.238737
0.237775
0.233124
0.226467
0.216358
0.207784
0.200143
0.188376
0.178287
0.169376
0.162089
0.160049
0.160167
0.167208
0.176954
0.205619
0.235108
0.27768
0.361396
0.41692
0.425456
0.418764
0.390573
0.385905
0.4218
0.531475
0.711804
1.46167
1.89469
1.78803
1.37433
1.14999
0.954568
0.832526
0.703091
0.590302
0.504599
0.420592
0.374168
0.336652
0.316071
0.300366
0.291932
0.287094
0.285655
0.28542
0.286879
0.290208
0.29398
0.299072
0.3032
0.310839
0.316574
0.321393
0.323768
0.326568
0.327742
0.327115
0.324541
0.323192
0.314461
0.317177
0.322851
0.333317
0.335284
0.343474
0.352769
0.361172
0.36324
0.378054
0.388812
0.400472
0.420513
0.433267
0.462174
0.474298
0.504638
0.518528
0.542887
0.559182
0.571915
0.577091
0.57688
0.582523
0.602005
0.654661
0.683852
0.704315
0.744456
0.77464
0.786784
0.785097
0.774744
0.776714
0.787569
0.785275
0.775254
0.776624
0.794546
0.816652
0.862069
0.885447
0.889476
0.906194
0.887076
0.893377
0.871641
0.840244
0.798594
0.721167
0.752719
0.77465
0.788803
0.799079
0.925644
0.972293
1.01209
0.918311
0.872106
0.921997
1.04083
1.21469
1.19639
1.13877
0.99437
0.966915
1.01194
1.25777
1.51135
1.67664
2.20758
3.04883
3.23833
3.0662
2.63942
2.44977
2.30509
2.16842
2.10221
2.04522
1.97159
1.9636
1.91593
1.94353
2.18037
2.36625
2.46177
2.57508
2.95812
3.06999
2.70771
2.20248
2.18819
2.07618
2.02231
2.03922
2.17797
2.33788
8.19072
2.32438
0.874958
0.518687
0.355881
0.258293
0.159956
0.10456
0.0871555
0.0839264
0.0857139
0.0905627
0.0974165
0.108203
0.122613
0.139074
0.158448
0.187635
0.22757
0.256035
0.265691
0.265505
0.257941
0.24809
0.238654
0.229917
0.219517
0.21224
0.205336
0.198862
0.190853
0.179189
0.165821
0.159591
0.157005
0.156656
0.157303
0.162602
0.169872
0.185286
0.23463
0.259618
0.284413
0.325403
0.378137
0.441022
0.746458
1.25067
1.55408
1.73455
1.70276
1.24358
0.873301
0.711266
0.569777
0.484856
0.399036
0.343598
0.305347
0.277519
0.263053
0.254478
0.250137
0.248116
0.247814
0.248874
0.250291
0.252212
0.255672
0.261099
0.266309
0.272389
0.276702
0.285267
0.292157
0.298664
0.302971
0.305186
0.307664
0.307679
0.304501
0.303088
0.290591
0.282847
0.270724
0.262673
0.257982
0.256992
0.259249
0.265629
0.266634
0.27295
0.279593
0.282169
0.292469
0.299908
0.318518
0.324317
0.338297
0.353426
0.376108
0.400267
0.42483
0.45692
0.476016
0.483978
0.490703
0.51406
0.540344
0.57355
0.64983
0.708476
0.735012
0.747598
0.760442
0.773627
0.798119
0.809274
0.817726
0.813291
0.799159
0.807259
0.826414
0.853472
0.857127
0.887743
0.849878
0.834057
0.79963
0.802457
0.763519
0.684782
0.690241
0.742303
0.771378
0.768146
0.93069
0.9484
0.910997
0.785051
0.759272
0.713734
0.737183
0.964747
1.01917
0.99719
0.919157
0.916554
0.927299
1.04353
1.29375
1.4785
1.89182
2.68321
2.90345
2.8251
2.45458
2.25897
2.16232
2.01938
1.96178
1.90407
1.81211
1.8093
1.72986
1.7171
1.90108
2.01176
2.04624
2.27068
2.81076
2.7861
2.49833
2.18628
2.16976
2.05808
1.98182
1.9535
1.98234
2.11313
10.838
2.96765
1.06277
0.550036
0.337787
0.183945
0.105673
0.0837948
0.079616
0.0809665
0.0851698
0.0924323
0.101677
0.119706
0.146714
0.174707
0.21867
0.261904
0.280246
0.284176
0.278985
0.270408
0.254369
0.235915
0.223115
0.213569
0.205378
0.20071
0.198439
0.195732
0.192414
0.186125
0.17167
0.160868
0.157808
0.157691
0.158004
0.158415
0.160606
0.165999
0.177664
0.215125
0.279973
0.352348
0.477732
0.97734
1.46003
1.58202
1.55418
1.53999
1.15498
0.746504
0.561452
0.446684
0.363979
0.312906
0.272486
0.251842
0.239315
0.232586
0.229751
0.227676
0.225411
0.224273
0.224033
0.225068
0.227112
0.230354
0.235057
0.240687
0.24711
0.254197
0.258411
0.264243
0.270012
0.276976
0.285968
0.292161
0.296613
0.298174
0.297927
0.296363
0.287858
0.274192
0.25944
0.235133
0.22186
0.211049
0.205936
0.206946
0.209656
0.217143
0.224602
0.223179
0.223224
0.225735
0.233648
0.236402
0.239867
0.247095
0.255299
0.270349
0.279187
0.294297
0.311842
0.325642
0.339415
0.373735
0.425013
0.441694
0.465985
0.539551
0.623677
0.670476
0.706524
0.733486
0.766707
0.797063
0.819251
0.817336
0.805902
0.814837
0.806596
0.812746
0.805526
0.809584
0.79409
0.732841
0.676206
0.692791
0.661029
0.622247
0.625896
0.646858
0.700668
0.688611
0.748274
0.716652
0.659739
0.604926
0.653728
0.661185
0.66486
0.747009
0.75521
0.793816
0.887189
0.924193
0.914214
0.931974
1.07855
1.28798
1.6953
2.40338
2.61766
2.58705
2.35277
2.04472
1.95964
1.83985
1.73757
1.69105
1.61901
1.63191
1.56472
1.55716
1.72078
1.80083
1.76781
2.0719
2.72847
2.59119
2.33556
2.18081
2.17132
2.1262
1.96727
1.90287
1.89479
2.0045
13.6437
3.59557
1.21755
0.55031
0.258192
0.122366
0.0841704
0.0771442
0.0777293
0.081053
0.0882646
0.0986281
0.115237
0.148621
0.189441
0.242698
0.280202
0.291403
0.291408
0.285265
0.270784
0.245832
0.220871
0.199251
0.186138
0.178228
0.174783
0.175153
0.178085
0.184536
0.186256
0.185425
0.174852
0.162072
0.15945
0.160851
0.162344
0.163512
0.163266
0.166472
0.182087
0.235861
0.331811
0.646999
1.11514
1.42953
1.499
1.47118
1.35577
1.02786
0.671926
0.476473
0.374174
0.304656
0.262511
0.239392
0.224673
0.217917
0.215028
0.213297
0.211505
0.209672
0.208501
0.208872
0.210696
0.214329
0.218545
0.22351
0.229233
0.235243
0.241931
0.249645
0.254134
0.257869
0.262223
0.26543
0.267111
0.269192
0.274021
0.278555
0.28407
0.283928
0.283241
0.271515
0.257485
0.226846
0.205434
0.189083
0.177069
0.170808
0.169889
0.170606
0.175752
0.181604
0.181162
0.18087
0.187056
0.191757
0.190931
0.194435
0.197627
0.20433
0.207464
0.213119
0.220727
0.230071
0.234657
0.247218
0.280059
0.309987
0.322325
0.351199
0.419245
0.484947
0.548586
0.624724
0.661982
0.712458
0.749725
0.763576
0.780748
0.775523
0.758595
0.756061
0.743107
0.697633
0.689678
0.629663
0.593231
0.595706
0.594737
0.579464
0.52473
0.530518
0.594823
0.571754
0.568904
0.538756
0.534006
0.528652
0.607333
0.632126
0.625585
0.640921
0.649412
0.745865
0.899305
0.966554
0.916396
0.89102
0.91252
1.09344
1.52208
2.16486
2.38108
2.36554
2.2328
1.88623
1.77112
1.65754
1.55825
1.50562
1.39823
1.43497
1.39054
1.41563
1.53932
1.66336
1.6448
1.94287
2.4855
2.38479
2.22392
2.18431
2.14926
2.14485
1.98488
1.8502
1.86644
1.9658
16.494
4.18867
1.30977
0.517279
0.195929
0.0975043
0.0771771
0.0758253
0.0784291
0.0853164
0.0961944
0.112717
0.140493
0.179913
0.239646
0.287088
0.296485
0.292599
0.278268
0.252744
0.218352
0.191757
0.173166
0.161699
0.157139
0.156005
0.156336
0.157077
0.159587
0.169137
0.177895
0.179098
0.173195
0.164193
0.163245
0.169529
0.176332
0.174581
0.175024
0.18664
0.233414
0.394895
0.784709
1.13713
1.31709
1.36739
1.30586
1.13485
0.877218
0.600899
0.416613
0.322294
0.267348
0.235222
0.217836
0.208773
0.205761
0.204934
0.203749
0.201193
0.200006
0.199693
0.200615
0.203329
0.207297
0.21228
0.217437
0.223139
0.22973
0.236271
0.242612
0.248955
0.254278
0.257667
0.260441
0.262245
0.262412
0.262415
0.258263
0.254412
0.254039
0.254544
0.262376
0.261087
0.252657
0.225421
0.197636
0.178228
0.16541
0.15472
0.152186
0.150669
0.151864
0.157012
0.16011
0.158978
0.16202
0.169634
0.167218
0.168259
0.172238
0.173786
0.17495
0.178162
0.181276
0.184917
0.187785
0.194076
0.207032
0.22256
0.232227
0.246217
0.282353
0.315328
0.343806
0.410802
0.450328
0.507582
0.568314
0.624578
0.654195
0.657399
0.663668
0.642673
0.602447
0.541439
0.539709
0.519397
0.475131
0.451441
0.456853
0.469916
0.445503
0.442742
0.50261
0.496641
0.507258
0.498975
0.494836
0.50788
0.574456
0.60799
0.600147
0.585446
0.62075
0.763492
0.917526
0.966171
0.876242
0.83541
0.833068
0.953415
1.31942
1.89231
2.14335
2.14398
2.07129
1.7877
1.62905
1.48977
1.37152
1.319
1.23472
1.26418
1.24373
1.31449
1.4517
1.55727
1.61447
1.78514
1.96399
2.04341
2.19203
2.18221
2.10612
2.12465
1.98144
1.84741
1.86665
1.97875
19.2175
4.68159
1.33264
0.451409
0.161699
0.0864713
0.0758911
0.0770265
0.0845393
0.0957151
0.109074
0.130011
0.164906
0.228768
0.28823
0.301355
0.294365
0.267366
0.223761
0.198174
0.180493
0.164822
0.152907
0.147634
0.146262
0.146258
0.146886
0.148103
0.151585
0.160652
0.168026
0.169184
0.166243
0.165597
0.174142
0.186898
0.188115
0.192047
0.209412
0.272898
0.530834
0.841202
1.05012
1.1795
1.20048
1.08882
0.921346
0.739631
0.533057
0.373762
0.285059
0.240437
0.216114
0.203032
0.197744
0.196911
0.197334
0.196693
0.19561
0.195273
0.195748
0.197059
0.199771
0.203744
0.208404
0.213637
0.22003
0.227212
0.233741
0.239519
0.245933
0.250354
0.253884
0.257099
0.259743
0.259721
0.259309
0.259451
0.255532
0.248059
0.241377
0.235126
0.226768
0.231573
0.234779
0.223988
0.195838
0.174683
0.162069
0.149345
0.144174
0.143623
0.142186
0.143499
0.149443
0.148938
0.149944
0.157599
0.156652
0.156945
0.160047
0.1616
0.162113
0.163436
0.165787
0.168125
0.170001
0.172648
0.178617
0.185996
0.193195
0.199514
0.217261
0.233906
0.246995
0.280061
0.309314
0.323022
0.345458
0.387069
0.414041
0.458487
0.465239
0.455605
0.442953
0.414114
0.407008
0.405906
0.388816
0.379689
0.381684
0.403112
0.402011
0.408768
0.422232
0.440521
0.483078
0.479567
0.478756
0.506072
0.56723
0.592838
0.575038
0.554989
0.617176
0.816758
0.904249
0.916997
0.799146
0.759411
0.746921
0.8464
1.17777
1.62705
1.91474
1.94462
1.91287
1.72679
1.52004
1.34546
1.24716
1.19083
1.13887
1.16286
1.16282
1.2596
1.41823
1.5073
1.61791
1.68179
1.68297
1.8342
2.22064
2.19368
2.08246
2.0604
1.96737
1.85663
1.89925
1.99952
21.7019
5.03779
1.31483
0.392441
0.132286
0.0820494
0.0766561
0.0832805
0.101225
0.115371
0.130893
0.163588
0.217726
0.281783
0.303745
0.299391
0.26384
0.214113
0.194562
0.179147
0.163828
0.151355
0.145341
0.143541
0.143234
0.143587
0.144201
0.145369
0.148534
0.153692
0.157304
0.16007
0.164045
0.175872
0.189385
0.194826
0.206808
0.237542
0.352992
0.609467
0.81854
0.963866
1.02469
1.00043
0.876883
0.748929
0.616898
0.465066
0.33827
0.259234
0.219488
0.200757
0.191836
0.188849
0.188784
0.190354
0.191261
0.191896
0.192416
0.19339
0.195353
0.198199
0.202538
0.207759
0.214937
0.221507
0.228002
0.233812
0.238389
0.241357
0.244929
0.247802
0.247808
0.24625
0.245404
0.242075
0.238993
0.237615
0.240132
0.236704
0.232019
0.226784
0.216413
0.204626
0.206411
0.207019
0.193145
0.1712
0.161425
0.150323
0.140872
0.141399
0.139004
0.138743
0.14551
0.144888
0.145668
0.154114
0.153176
0.153166
0.157104
0.157987
0.157885
0.158297
0.161408
0.16284
0.164811
0.166297
0.171027
0.174872
0.180093
0.184521
0.193567
0.202054
0.208949
0.22446
0.245825
0.253903
0.263571
0.289647
0.302409
0.320626
0.340506
0.346007
0.353455
0.35153
0.348963
0.354266
0.353421
0.351141
0.355606
0.364897
0.390315
0.397487
0.404671
0.430368
0.481684
0.472748
0.478696
0.530541
0.568996
0.56456
0.527824
0.525139
0.617746
0.807881
0.820511
0.785424
0.706152
0.709143
0.714582
0.778898
1.06678
1.42435
1.74084
1.79919
1.77934
1.64669
1.41262
1.23619
1.14968
1.09245
1.06535
1.08848
1.13008
1.23963
1.4112
1.49487
1.6326
1.64112
1.62606
1.82527
2.26533
2.19484
2.0827
1.96984
1.96935
1.93182
2.00302
2.11422
23.838
5.20012
1.25036
0.307831
0.108468
0.0812039
0.0822225
0.100475
0.124302
0.139023
0.160692
0.206183
0.263922
0.300458
0.306161
0.279759
0.225072
0.200437
0.186805
0.173835
0.160266
0.149207
0.145324
0.14472
0.144504
0.144409
0.144719
0.145685
0.148166
0.152285
0.156891
0.16265
0.172566
0.184871
0.196051
0.215535
0.262823
0.412203
0.600961
0.755575
0.858898
0.884146
0.815042
0.709153
0.61702
0.513819
0.406944
0.307149
0.240642
0.205727
0.189685
0.182662
0.180593
0.181387
0.183649
0.186168
0.188054
0.189719
0.191893
0.194187
0.197939
0.203982
0.212511
0.218959
0.224543
0.230024
0.233863
0.236312
0.238685
0.239837
0.239758
0.238746
0.235064
0.225977
0.218225
0.212949
0.204412
0.19708
0.198713
0.1993
0.19882
0.198814
0.199402
0.192776
0.185604
0.183892
0.179223
0.164042
0.156372
0.151471
0.14139
0.140373
0.139201
0.137744
0.14426
0.144436
0.144392
0.154248
0.153516
0.153821
0.158632
0.158374
0.159672
0.159734
0.16173
0.163201
0.165433
0.165498
0.170633
0.173814
0.175978
0.183134
0.190119
0.192994
0.19828
0.209963
0.224756
0.227314
0.233847
0.258912
0.262229
0.271385
0.292295
0.301062
0.311366
0.319632
0.32263
0.327633
0.339827
0.342056
0.349668
0.35657
0.38681
0.387893
0.404465
0.430012
0.477648
0.475771
0.512404
0.561602
0.55886
0.550209
0.514791
0.528003
0.645128
0.721591
0.697331
0.670072
0.66008
0.6983
0.715347
0.77094
0.958002
1.24511
1.55613
1.62281
1.60356
1.50032
1.30521
1.14745
1.0793
1.04457
1.03743
1.06023
1.11923
1.23394
1.44559
1.49438
1.62226
1.6216
1.61815
1.87743
2.20526
2.18992
2.09454
1.93312
2.06159
2.08618
2.05691
2.3915
25.5353
5.24646
1.12885
0.233965
0.0987878
0.0821765
0.0916995
0.110889
0.136537
0.157144
0.184398
0.233202
0.292005
0.31281
0.307525
0.259508
0.217501
0.198352
0.187607
0.177076
0.164807
0.157794
0.155804
0.15421
0.151177
0.150189
0.150258
0.15075
0.152167
0.156123
0.163299
0.173122
0.184472
0.198145
0.222619
0.285457
0.423346
0.560633
0.680591
0.755915
0.760906
0.665239
0.589636
0.518876
0.440119
0.36031
0.283366
0.227808
0.196722
0.181361
0.175302
0.173989
0.174499
0.177112
0.180077
0.183458
0.186688
0.189616
0.193264
0.19929
0.208298
0.216223
0.222854
0.227049
0.229117
0.23205
0.2346
0.235945
0.235843
0.234077
0.229307
0.219595
0.212953
0.200415
0.18726
0.183235
0.17798
0.170533
0.162415
0.159298
0.154568
0.155095
0.158651
0.166304
0.168469
0.167955
0.163569
0.158111
0.154277
0.151571
0.144708
0.141654
0.142141
0.140043
0.144507
0.147512
0.146614
0.157918
0.157413
0.156561
0.164666
0.163424
0.165091
0.168812
0.167534
0.17011
0.172592
0.16962
0.172586
0.178977
0.17693
0.181092
0.193893
0.193079
0.194868
0.203602
0.223483
0.222727
0.22631
0.245333
0.252004
0.26088
0.275882
0.281238
0.294153
0.31474
0.315541
0.319428
0.334299
0.339658
0.350091
0.358124
0.3868
0.386939
0.415361
0.427691
0.472415
0.479935
0.537298
0.554679
0.53452
0.524564
0.497304
0.562391
0.68426
0.664574
0.665717
0.645105
0.645853
0.709074
0.755218
0.792198
0.937823
1.11237
1.33705
1.40972
1.3904
1.33463
1.22498
1.11299
1.05425
1.02298
1.02542
1.0533
1.12254
1.25277
1.48047
1.50845
1.61323
1.6157
1.60347
1.87556
2.00059
2.20294
2.05397
1.95219
2.33193
2.32508
2.28975
3.15927
26.8018
5.22732
0.957744
0.190166
0.0970113
0.0870326
0.096861
0.115644
0.143879
0.167179
0.213783
0.292299
0.332125
0.336511
0.307964
0.252022
0.219556
0.209823
0.206797
0.201665
0.192028
0.185815
0.182415
0.175369
0.166319
0.164078
0.163973
0.163843
0.16332
0.166807
0.17912
0.197625
0.215577
0.246091
0.30756
0.407477
0.507134
0.601691
0.663542
0.657927
0.564745
0.492233
0.439477
0.380744
0.318028
0.263879
0.217743
0.189295
0.175868
0.170313
0.168848
0.168981
0.171251
0.174672
0.178045
0.182482
0.186496
0.191496
0.2001
0.21057
0.219467
0.224586
0.226966
0.229261
0.230347
0.230658
0.229996
0.228321
0.226637
0.221831
0.213213
0.199317
0.191909
0.183053
0.174336
0.169312
0.157423
0.152903
0.147336
0.142943
0.14026
0.141102
0.145995
0.152119
0.158251
0.161547
0.161934
0.158257
0.156718
0.153746
0.150819
0.149403
0.150918
0.150826
0.152095
0.158604
0.158928
0.170504
0.172695
0.171886
0.184094
0.182439
0.183053
0.19318
0.189654
0.189984
0.195665
0.190419
0.188785
0.194673
0.190527
0.188422
0.195441
0.199623
0.198773
0.203019
0.221069
0.223568
0.22876
0.237098
0.246918
0.263271
0.276996
0.279947
0.289915
0.312351
0.314687
0.322111
0.334294
0.340084
0.350188
0.364247
0.387749
0.392292
0.430149
0.434112
0.476378
0.482526
0.532358
0.520938
0.497636
0.473625
0.482971
0.627196
0.687206
0.653633
0.658117
0.633313
0.642174
0.754111
0.835457
0.860767
0.956198
1.09617
1.24822
1.25759
1.26575
1.24444
1.20181
1.10157
1.04366
1.01737
1.02276
1.06964
1.16481
1.31637
1.53708
1.52721
1.63241
1.62066
1.5816
1.78352
1.90824
2.18859
1.9513
2.11329
2.63596
2.43833
2.49446
3.64182
27.5738
5.17979
0.872353
0.176645
0.103357
0.102328
0.104698
0.124808
0.158795
0.19126
0.254585
0.327513
0.35244
0.353217
0.317753
0.25899
0.244324
0.244377
0.250796
0.25196
0.243977
0.236017
0.2299
0.214302
0.19343
0.184653
0.182494
0.183427
0.185089
0.187215
0.197765
0.219241
0.255523
0.318986
0.391173
0.462795
0.532786
0.580029
0.5755
0.504342
0.426474
0.384
0.340195
0.289692
0.2461
0.211399
0.186466
0.174218
0.168449
0.166384
0.166528
0.167388
0.169624
0.173329
0.17734
0.181851
0.188282
0.199869
0.212525
0.220086
0.224917
0.227274
0.227855
0.227978
0.227151
0.22552
0.221311
0.214366
0.20975
0.202778
0.198787
0.190643
0.18364
0.175364
0.166311
0.159793
0.148884
0.141158
0.13724
0.134835
0.135127
0.137765
0.145773
0.151983
0.159454
0.162295
0.164471
0.162642
0.160432
0.159663
0.159558
0.162082
0.167435
0.169609
0.171926
0.181833
0.185597
0.195428
0.199909
0.200773
0.213986
0.215256
0.216481
0.227474
0.223933
0.222467
0.228127
0.223809
0.221922
0.223991
0.220003
0.216184
0.217788
0.21858
0.214985
0.217343
0.222189
0.228083
0.236936
0.237165
0.246518
0.266343
0.27938
0.28141
0.293684
0.309131
0.313253
0.323174
0.334968
0.34219
0.357052
0.372219
0.385522
0.402146
0.431104
0.43515
0.46846
0.474651
0.501649
0.478696
0.430986
0.433801
0.483103
0.645902
0.674589
0.649299
0.655886
0.632183
0.658959
0.812295
0.904929
0.937043
0.980581
1.08223
1.19768
1.21539
1.25396
1.2359
1.1993
1.10182
1.04324
1.02254
1.03927
1.14973
1.25614
1.43066
1.60531
1.5659
1.65482
1.65689
1.57801
1.73863
1.86304
2.07335
1.95056
2.42617
2.71005
2.45488
2.58152
3.60871
27.9752
5.13441
0.793339
0.173628
0.118307
0.121247
0.121124
0.133663
0.162517
0.200204
0.270366
0.347673
0.375779
0.379172
0.341495
0.304402
0.301854
0.313874
0.325564
0.328525
0.326722
0.322445
0.315844
0.298223
0.259909
0.232377
0.221193
0.219875
0.227344
0.230842
0.235582
0.261236
0.306284
0.35777
0.419892
0.478311
0.525819
0.531425
0.49348
0.405362
0.348525
0.316075
0.276427
0.23669
0.208207
0.187512
0.173458
0.167227
0.165839
0.165249
0.165264
0.166478
0.169162
0.172494
0.176596
0.18458
0.197957
0.210579
0.220655
0.225194
0.227055
0.227393
0.226713
0.224259
0.218377
0.213451
0.211953
0.207562
0.19936
0.192191
0.186685
0.179682
0.17491
0.165518
0.154593
0.142723
0.13493
0.132634
0.132487
0.132719
0.134006
0.138861
0.149592
0.154894
0.162427
0.168104
0.170638
0.171367
0.170299
0.171425
0.173021
0.176447
0.184627
0.188703
0.194136
0.209436
0.214069
0.220194
0.226451
0.228121
0.238137
0.243643
0.244444
0.248806
0.247655
0.246794
0.251682
0.252426
0.253489
0.254801
0.25357
0.251757
0.251041
0.248921
0.246946
0.249312
0.243247
0.248394
0.254651
0.252428
0.256603
0.271134
0.287146
0.288352
0.299136
0.306434
0.316185
0.323347
0.333309
0.341223
0.36144
0.370185
0.386226
0.40669
0.421442
0.42344
0.432266
0.434295
0.4408
0.409747
0.382411
0.424787
0.493611
0.634606
0.655575
0.648085