/*--------------------------------*- C++ -*----------------------------------*\
| =========                 |                                                 |
| \\      /  F ield         | OpenFOAM: The Open Source CFD Toolbox           |
|  \\    /   O peration     | Version:  dev                                   |
|   \\  /    A nd           | Web:      http://www.openfoam.org               |
|    \\/     M anipulation  |                                                 |
\*---------------------------------------------------------------------------*/
FoamFile
{
    version     2.0;
    format      ascii;
    class       volScalarField;
    object      k_0;
    location    "9.121";
}
// * * * * * * * * * * * * * * * * * * * * * * * * * * * * * * * * * * * * * //

dimensions      [0 2 -2 0 0 0 0];

internalField   nonuniform List<scalar> 
12225
(
8.01239
8.0248
4.78978
4.32167
3.83929
4.48868
5.58822
5.9005
8.53425
7.80664
12.0622
9.78403
14.7103
11.8043
15.6141
16.8907
27.3667
31.8329
1.97998
6.12892
5.29262
6.33703
4.50882
6.08899
4.40519
6.23194
5.14293
6.62202
6.24375
6.67777
7.54454
6.18408
8.35454
7.84099
23.6305
26.6887
0.219466
1.91084
2.36372
3.4746
2.95848
3.69708
3.06397
3.55499
3.30723
3.06815
3.61879
2.51906
3.74993
2.26791
3.72952
4.63765
17.7122
26.9394
0.0227628
0.393487
0.639757
1.01623
1.3203
1.37895
1.72377
1.49631
2.03597
1.3827
2.09159
1.14841
1.90965
1.14461
2.30104
2.59486
14.9709
27.8011
0.00615466
0.0893384
0.198641
0.316278
0.542268
0.574372
0.790987
0.710555
0.942675
0.696967
1.02158
0.617469
1.02142
0.631359
1.2945
1.39459
8.68673
26.4906
0.00845452
0.0478184
0.086993
0.127349
0.221752
0.238355
0.347224
0.321961
0.432786
0.352164
0.496262
0.360666
0.541791
0.398822
0.679192
0.862245
3.99569
15.0606
0.0174626
0.0339007
0.059559
0.0767411
0.123057
0.135808
0.193069
0.194553
0.252189
0.240334
0.296854
0.276074
0.33422
0.318603
0.415948
0.523343
1.55419
4.40073
0.026082
0.0386389
0.0580744
0.0751662
0.103983
0.121292
0.153757
0.169504
0.200975
0.213211
0.239219
0.2491
0.269595
0.288141
0.314438
0.393958
0.693987
1.20154
0.0374718
0.0600148
0.0696301
0.091188
0.109818
0.132755
0.154398
0.177216
0.198548
0.21877
0.234656
0.253512
0.261549
0.285497
0.292363
0.330364
0.429688
0.504067
0.0598924
0.113059
0.117412
0.154747
0.152091
0.184419
0.186308
0.218887
0.223284
0.253696
0.25394
0.282271
0.277978
0.305604
0.303839
0.332966
0.370919
0.385546
0.123471
0.19677
0.20684
0.260404
0.267003
0.319044
0.311452
0.348228
0.335144
0.364768
0.347193
0.372012
0.361042
0.379099
0.375983
0.381834
0.394137
0.393489
0.26784
0.364379
0.380508
0.441147
0.449114
0.494186
0.492315
0.518604
0.511013
0.527585
0.514957
0.524319
0.515985
0.518998
0.513214
0.510274
0.505683
0.493393
0.564663
0.653954
0.661867
0.700856
0.708895
0.73535
0.728801
0.731518
0.718724
0.7156
0.70033
0.692347
0.676258
0.663747
0.648636
0.635257
0.616309
0.597274
1.02161
1.07448
1.05756
1.05397
1.03877
1.04461
1.04024
1.03045
1.00839
0.990709
0.9638
0.944404
0.913236
0.891042
0.854432
0.830204
0.791409
0.761296
1.6806
1.74896
1.7288
1.70763
1.67483
1.63449
1.57129
1.50012
1.42379
1.35644
1.28458
1.22538
1.15707
1.10494
1.03927
0.993991
0.932904
0.890612
2.57922
2.55801
2.41124
2.24291
2.10982
1.99103
1.87206
1.76154
1.65264
1.55686
1.4593
1.37748
1.28907
1.21987
1.1397
1.08233
1.00962
0.960176
3.10076
2.94693
2.70296
2.46147
2.28246
2.13033
1.98881
1.86347
1.74275
1.63675
1.52948
1.43826
1.34198
1.26574
1.17935
1.11743
1.04043
0.987826
3.14976
2.97339
2.72719
2.47775
2.29436
2.13945
1.99713
1.87164
1.75051
1.64388
1.53573
1.44309
1.34541
1.26773
1.18007
1.11728
1.03984
0.986479
2.74394
2.6979
2.53389
2.33511
2.17879
2.04191
1.91301
1.79843
1.68692
1.58827
1.4864
1.39862
1.30484
1.23029
1.14523
1.08501
1.01006
0.958809
1.89995
1.94197
1.92124
1.8657
1.80404
1.73185
1.64934
1.56945
1.48835
1.4153
1.33402
1.26327
1.18376
1.12135
1.04681
0.996389
0.929933
0.886209
1.14677
1.15853
1.14317
1.13444
1.13213
1.12071
1.09719
1.07457
1.05392
1.03636
1.00258
0.970581
0.923674
0.888817
0.838599
0.809039
0.758877
0.727741
0.62525
0.663651
0.682107
0.710791
0.736026
0.745837
0.747761
0.742416
0.729564
0.716481
0.703255
0.686451
0.660868
0.636675
0.60368
0.580874
0.551919
0.535043
0.333925
0.372734
0.398299
0.425867
0.437201
0.441014
0.440906
0.443789
0.450595
0.461252
0.472883
0.480563
0.483044
0.48207
0.476564
0.470899
0.461954
0.455335
0.148452
0.176749
0.188685
0.201897
0.224528
0.255617
0.287516
0.319078
0.348564
0.375794
0.39899
0.417132
0.42929
0.436505
0.439759
0.439652
0.437676
0.434703
0.0596105
0.0725877
0.0892462
0.122316
0.164421
0.212489
0.259381
0.302614
0.340748
0.373061
0.399064
0.419519
0.433522
0.442713
0.448605
0.451426
0.452064
0.4507
0.0163561
0.0374308
0.0710321
0.128883
0.202055
0.279784
0.346835
0.400884
0.443666
0.478892
0.504614
0.524142
0.536154
0.545648
0.553822
0.560187
0.564185
0.566387
0.00676838
0.0580376
0.18647
0.362843
0.543529
0.698653
0.80281
0.868222
0.907228
0.93434
0.946537
0.953654
0.954744
0.959171
0.964583
0.970929
0.970948
0.966989
0.0389226
0.437246
1.08606
1.53534
1.85059
2.06483
2.16485
2.19037
2.18047
2.15193
2.10383
2.06105
2.02142
1.9841
1.95127
1.91766
1.86007
1.79556
0.653282
3.35873
4.71963
5.02575
4.92868
4.67675
4.39241
4.14084
3.94418
3.77312
3.60275
3.43671
3.27192
3.10987
2.96489
2.80185
2.64413
2.42338
6.4547
9.40854
8.03712
6.0986
4.94369
4.472
4.3487
4.39175
4.53203
4.70773
4.88607
5.04821
5.18743
5.30072
5.37133
5.3969
5.35628
5.03064
0.197692
0.164107
0.176337
0.202187
0.224062
0.246575
0.273309
0.307618
0.342138
0.379024
0.417127
0.462749
0.516268
0.581426
0.658159
0.749515
0.847253
0.97318
1.10172
1.26441
1.43219
1.63515
1.85967
2.10435
2.37983
2.67339
3.01345
3.34039
3.70426
4.02499
4.35228
4.63274
4.80529
4.98003
4.99825
4.85947
4.66959
4.6431
4.6235
4.52549
4.46605
4.45728
4.44071
4.38351
4.31093
4.30391
4.36208
4.5052
4.67958
4.75767
4.73015
4.64238
4.6599
4.78328
4.84212
4.9553
5.08859
5.28359
5.51897
5.96519
6.36791
6.68154
6.93387
7.12588
7.24941
7.30478
7.30558
7.26296
7.166
7.02533
6.86138
6.66625
6.45465
6.22492
5.99514
5.76971
5.54169
5.31351
5.11005
4.89935
4.68684
4.50158
4.29917
4.10144
3.92363
3.7477
3.56175
3.39005
3.21819
3.06374
2.89481
2.76559
2.62946
2.50703
2.40938
2.31095
2.23801
2.16592
2.11446
2.07837
2.05172
2.03775
2.02999
2.03193
2.04409
2.06829
2.11237
2.18473
2.27837
2.37078
2.47574
2.57569
2.66441
2.75089
2.84427
2.97891
3.15146
3.2571
3.29148
3.29414
3.30308
3.34426
3.41639
3.45714
3.44812
3.394
3.33254
3.28369
3.2391
3.17597
3.06505
2.99059
3.00593
3.06359
3.14333
3.36423
3.50733
3.90138
4.17357
5.23743
5.86814
6.78646
7.74608
8.42223
9.33899
10.1919
12.0098
13.9111
15.7475
16.5498
16.8084
16.5453
15.2522
13.7637
11.7367
10.1942
8.95084
8.06574
7.38059
6.84818
6.51056
6.26156
6.22113
6.17161
6.50796
6.85679
7.12385
7.73304
8.49075
9.55407
10.0411
9.39032
7.68516
7.07275
7.67622
8.42477
8.84118
8.52955
7.78456
7.70918
0.80322
0.369331
0.218333
0.19997
0.20296
0.212285
0.217178
0.217843
0.213199
0.206867
0.202471
0.200887
0.2016
0.204416
0.207616
0.214491
0.220822
0.233559
0.242316
0.256294
0.269536
0.284532
0.310729
0.329437
0.364374
0.389882
0.439531
0.501924
0.557709
0.696665
0.795926
0.973557
1.18169
1.34014
1.6033
1.77881
1.84969
1.88694
1.86216
1.68039
1.49185
1.43278
1.32334
1.06995
0.800483
0.676778
0.661519
0.714083
0.894448
1.00118
1.07278
1.14616
1.212
1.2881
1.60005
2.7311
3.59741
4.03257
4.39114
4.5739
4.52911
4.29725
3.9825
3.67203
3.3667
3.08302
2.84437
2.61814
2.43162
2.2699
2.13326
2.00331
1.90334
1.81008
1.73813
1.6827
1.62748
1.58381
1.55601
1.51675
1.48185
1.4613
1.42061
1.39557
1.37017
1.33559
1.30496
1.28234
1.25453
1.23605
1.21575
1.20739
1.18568
1.17612
1.1759
1.16636
1.16676
1.16313
1.1607
1.16208
1.16376
1.16493
1.16077
1.15526
1.14859
1.14256
1.14469
1.15803
1.18961
1.22482
1.27187
1.31077
1.33382
1.34222
1.34495
1.36621
1.4172
1.44266
1.45067
1.44895
1.44497
1.44473
1.44752
1.44591
1.4373
1.45154
1.51674
1.59786
1.648
1.663
1.63782
1.615
1.65572
1.67568
1.66465
1.70944
1.79101
1.73376
1.77311
1.87781
2.00059
2.2339
2.44313
2.67354
2.98169
3.13496
3.42755
3.99873
4.74542
5.53364
6.01085
6.22342
6.23806
5.92941
5.55617
5.0998
4.85599
4.46227
4.24593
4.00488
3.90892
3.89586
3.92563
3.99868
4.17119
4.39523
4.51308
4.51686
4.5979
4.89664
5.50683
5.56342
4.5324
3.6034
3.77974
4.29215
5.10454
5.89273
5.86882
5.22002
1.92301
0.706072
0.307478
0.220418
0.215136
0.218627
0.214987
0.194481
0.164894
0.142312
0.130484
0.124727
0.122923
0.123075
0.124719
0.129285
0.133999
0.13977
0.14468
0.153572
0.160974
0.169745
0.178678
0.185019
0.189777
0.191901
0.193721
0.196503
0.200148
0.210983
0.225625
0.248684
0.31252
0.36022
0.454405
0.582722
0.671241
0.798691
0.939287
1.00974
1.02188
1.00191
0.835836
0.57625
0.439424
0.395169
0.396316
0.450182
0.504067
0.578684
0.797671
1.40323
1.82998
1.98545
2.20222
2.46088
2.50687
2.40401
2.21886
2.00805
1.775
1.53486
1.31884
1.13397
1.00326
0.88637
0.812124
0.742171
0.700274
0.662137
0.63781
0.618628
0.606138
0.599033
0.596147
0.597711
0.598452
0.601999
0.609511
0.613417
0.62237
0.63063
0.640116
0.651299
0.65549
0.654211
0.659305
0.670136
0.676491
0.684995
0.695909
0.712232
0.71732
0.731375
0.747972
0.762284
0.775685
0.790518
0.802836
0.811301
0.823916
0.830576
0.83153
0.831052
0.832597
0.834643
0.837876
0.846868
0.857022
0.877194
0.905656
0.920959
0.924817
0.915429
0.905038
0.904612
0.9056
0.904218
0.911039
0.924009
0.92475
0.905873
0.894592
0.894843
0.90108
0.926257
0.975615
1.04728
1.10019
1.09536
1.0966
1.07431
1.09033
1.08813
1.05319
1.09903
1.1109
1.16794
1.12175
1.20567
1.18452
1.32758
1.39433
1.60518
1.71194
1.71076
1.71237
1.86828
2.23032
2.63509
2.86968
3.26508
4.00717
4.36481
4.37743
3.9876
3.58468
3.21035
3.00921
2.83771
2.74061
2.73673
2.74449
2.78331
2.8939
3.17803
3.32884
3.3153
3.27372
3.31424
3.80153
4.05009
3.23834
2.48918
2.51095
2.61963
2.81208
3.33149
3.72114
3.60077
3.4811
1.12454
0.427036
0.278226
0.269592
0.255483
0.221035
0.174324
0.134583
0.111744
0.102659
0.100535
0.101259
0.10549
0.111932
0.11916
0.125406
0.132063
0.140205
0.152634
0.164159
0.175955
0.185858
0.191827
0.194405
0.194008
0.191503
0.186548
0.18038
0.172981
0.170455
0.170283
0.173739
0.183384
0.204473
0.24887
0.294554
0.356974
0.43546
0.540895
0.618175
0.637421
0.625149
0.537784
0.437747
0.395414
0.395452
0.440788
0.501903
0.640243
1.48303
1.93467
1.82484
1.74552
1.6148
1.48613
1.35006
1.17059
1.02542
0.84543
0.722344
0.606616
0.532904
0.469053
0.433785
0.404021
0.388015
0.37588
0.36907
0.365382
0.364293
0.36548
0.36857
0.373586
0.377727
0.382385
0.384919
0.387919
0.391405
0.393026
0.396776
0.399967
0.405358
0.420081
0.431536
0.436309
0.441043
0.455057
0.466989
0.481431
0.493142
0.518447
0.527492
0.547525
0.565663
0.588848
0.608455
0.626314
0.650605
0.659388
0.678516
0.690499
0.696357
0.698334
0.704805
0.717608
0.731779
0.753191
0.75892
0.770975
0.799548
0.817558
0.822101
0.814453
0.800111
0.79866
0.799076
0.787899
0.781521
0.799503
0.824316
0.834985
0.849515
0.857988
0.86539
0.883975
0.892803
0.921302
0.925719
0.885839
0.855266
0.804106
0.841501
0.8163
0.811651
0.843099
0.919173
1.02963
1.01131
1.03157
0.981046
1.14976
1.18306
1.29572
1.35509
1.31295
1.1755
1.19625
1.35922
1.68258
1.85423
2.0902
2.90288
3.58663
3.66187
3.33042
2.90859
2.62406
2.45274
2.3099
2.22079
2.17661
2.15563
2.17025
2.19987
2.35061
2.67958
2.79415
2.7904
2.80044
3.15339
3.36862
2.79387
2.2019
2.19685
2.15209
2.16384
2.31719
2.68166
2.80465
5.40505
1.6702
0.63495
0.417534
0.336444
0.271187
0.212477
0.14851
0.109106
0.0933939
0.0900573
0.0913476
0.0956836
0.103445
0.111791
0.121125
0.130235
0.141874
0.158874
0.179978
0.202655
0.221776
0.231692
0.232358
0.228963
0.223044
0.21339
0.205105
0.197758
0.186139
0.17659
0.168363
0.161263
0.159431
0.15988
0.167154
0.177241
0.206428
0.235982
0.279308
0.362481
0.41904
0.428673
0.421392
0.393006
0.38763
0.421595
0.529899
0.709381
1.44857
1.89903
1.80963
1.38747
1.15842
0.957989
0.831908
0.700847
0.586805
0.50078
0.417492
0.371014
0.334629
0.314663
0.299825
0.291876
0.287397
0.286247
0.286331
0.28796
0.291509
0.295449
0.300678
0.304859
0.312608
0.318398
0.323234
0.325582
0.328237
0.329251
0.328459
0.325473
0.323796
0.314705
0.317
0.322485
0.332614
0.3345
0.342693
0.351985
0.36006
0.362058
0.376947
0.387463
0.399031
0.418909
0.431504
0.460647
0.472401
0.502921
0.516865
0.541616
0.558127
0.571196
0.576964
0.577019
0.583802
0.605437
0.659452
0.687772
0.710058
0.752233
0.782112
0.793155
0.790745
0.78028
0.782941
0.793509
0.789457
0.77845
0.779361
0.798134
0.81984
0.864172
0.885056
0.887232
0.901505
0.881063
0.887503
0.863885
0.829056
0.783746
0.711552
0.743474
0.757032
0.765334
0.78066
0.891925
0.946718
0.977127
0.901514
0.864477
0.941448
1.03752
1.17226
1.15831
1.1009
0.968416
0.949807
1.00804
1.27563
1.48053
1.66697
2.31861
3.09568
3.21217
2.96036
2.54581
2.35446
2.20519
2.07089
2.00492
1.94553
1.88519
1.87848
1.84765
1.89507
2.12565
2.30703
2.42315
2.49727
2.84631
2.99467
2.63933
2.13903
2.11833
2.01802
1.97617
2.00757
2.17219
2.34305
7.61125
2.27561
0.856642
0.511175
0.354065
0.260932
0.164796
0.107285
0.0875817
0.0834599
0.0846704
0.0891492
0.0956733
0.105663
0.118797
0.133945
0.150951
0.177769
0.216168
0.245994
0.258653
0.26037
0.254651
0.245511
0.236488
0.228011
0.217881
0.210801
0.204054
0.19783
0.189794
0.178099
0.165098
0.159232
0.156763
0.156521
0.157237
0.162452
0.170044
0.185614
0.235447
0.261088
0.285781
0.327149
0.378188
0.439262
0.749873
1.25151
1.54542
1.73875
1.71768
1.25724
0.881823
0.714067
0.570288
0.483677
0.39775
0.341948
0.304025
0.277017
0.262783
0.254737
0.25065
0.248769
0.248686
0.249908
0.251448
0.253443
0.256962
0.262494
0.267802
0.273984
0.278294
0.286868
0.293798
0.300234
0.304596
0.306779
0.309113
0.309008
0.305654
0.303775
0.291006
0.282558
0.270121
0.261345
0.256639
0.25536
0.257622
0.263955
0.264998
0.27148
0.277738
0.279949
0.290093
0.297311
0.315344
0.320418
0.334126
0.34942
0.372088
0.396588
0.421697
0.4543
0.47302
0.481053
0.488667
0.513653
0.540683
0.576169
0.655247
0.713849
0.73936
0.752515
0.766252
0.779835
0.804016
0.814085
0.821032
0.814246
0.799398
0.807881
0.828163
0.854286
0.855916
0.887229
0.844621
0.833023
0.799233
0.797562
0.754534
0.676542
0.683873
0.738614
0.758609
0.755815
0.914224
0.917839
0.899862
0.777922
0.754778
0.711144
0.74517
0.9746
1.01305
0.980107
0.880122
0.870278
0.896158
1.06258
1.28732
1.46853
1.97143
2.73829
2.89548
2.75008
2.35458
2.18873
2.07792
1.94236
1.89149
1.8332
1.74749
1.73416
1.67154
1.67382
1.83731
1.95874
2.04458
2.21006
2.66797
2.7111
2.43831
2.12428
2.10388
1.99847
1.93536
1.91905
1.97007
2.10881
10.0432
2.91253
1.04661
0.548319
0.342139
0.191785
0.109521
0.0844646
0.0791609
0.080003
0.0838693
0.0906593
0.0990057
0.11517
0.140101
0.165161
0.206319
0.250183
0.272909
0.279588
0.275965
0.268751
0.253681
0.236197
0.223777
0.214327
0.20596
0.200976
0.19844
0.195398
0.192137
0.185928
0.171291
0.160702
0.157625
0.157751
0.158059
0.158433
0.160581
0.165922
0.177818
0.215555
0.280295
0.349342
0.474953
0.984131
1.46095
1.58069
1.56037
1.55104
1.16545
0.754072
0.564728
0.447228
0.363766
0.312161
0.272056
0.25158
0.239506
0.232983
0.230434
0.228579
0.226368
0.225245
0.225025
0.226097
0.228168
0.231451
0.236228
0.241857
0.248284
0.25544
0.2597
0.26536
0.271104
0.278021
0.286878
0.292933
0.297336
0.298844
0.298482
0.296478
0.287702
0.273327
0.258092
0.233307
0.21998
0.209275
0.204217
0.205312
0.208295
0.215937
0.223034
0.221474
0.221285
0.22401
0.231548
0.233917
0.236977
0.244133
0.25194
0.266493
0.274691
0.289462
0.306837
0.321014
0.33583
0.372806
0.423567
0.439479
0.46459
0.54336
0.627277
0.674322
0.710667
0.738244
0.771984
0.802098
0.822618
0.818768
0.805761
0.81513
0.805897
0.81316
0.804308
0.813549
0.793031
0.732251
0.679007
0.693575
0.658699
0.619168
0.623982
0.650643
0.703232
0.692268
0.770806
0.737276
0.683595
0.616219
0.643081
0.64013
0.649181
0.754119
0.7753
0.786036
0.840875
0.861061
0.868636
0.917403
1.10667
1.30831
1.76203
2.46394
2.62707
2.55275
2.26195
1.99724
1.91312
1.79572
1.7079
1.66025
1.59875
1.59098
1.53443
1.52883
1.67532
1.75225
1.7638
2.00814
2.58886
2.51914
2.28062
2.12221
2.11809
2.06779
1.92213
1.87627
1.87176
1.99728
12.6173
3.53762
1.20438
0.553294
0.267694
0.127452
0.085373
0.0767714
0.0769182
0.0798643
0.0864286
0.0958867
0.110666
0.141917
0.179767
0.230862
0.2714
0.287159
0.289051
0.284668
0.272578
0.249308
0.224873
0.203056
0.189366
0.180686
0.176629
0.176631
0.179293
0.185183
0.186655
0.185793
0.175249
0.162125
0.159454
0.16085
0.162279
0.16348
0.163326
0.166396
0.18149
0.23338
0.326276
0.644514
1.11745
1.4304
1.50326
1.47793
1.36658
1.03339
0.677084
0.479079
0.374726
0.304696
0.262291
0.239275
0.224963
0.218267
0.215617
0.214054
0.212329
0.210564
0.209342
0.209771
0.211598
0.215252
0.219495
0.224522
0.230262
0.236221
0.24282
0.250404
0.254956
0.258571
0.262713
0.265714
0.267254
0.269147
0.273785
0.278329
0.283523
0.283334
0.282687
0.270143
0.255325
0.224467
0.203113
0.187037
0.175272
0.16927
0.168493
0.169065
0.174495
0.180236
0.179717
0.179475
0.186217
0.190521
0.189293
0.193164
0.196195
0.202432
0.205265
0.210809
0.218179
0.227154
0.231451
0.245149
0.278151
0.307358
0.319577
0.350985
0.420733
0.486552
0.552088
0.629143
0.66611
0.717898
0.754764
0.767346
0.783101
0.77736
0.759402
0.758433
0.745935
0.703557
0.696384
0.630168
0.599862
0.604433
0.599408
0.580832
0.531418
0.537506
0.599918
0.57503
0.575223
0.538748
0.537604
0.529534
0.594283
0.605779
0.606287
0.635993
0.641561
0.723063
0.848103
0.895031
0.869562
0.867607
0.929145
1.1343
1.60211
2.24137
2.41147
2.36592
2.17414
1.84209
1.74586
1.63798
1.55321
1.50075
1.4059
1.42458
1.38505
1.39978
1.51671
1.62747
1.61624
1.88083
2.42533
2.35193
2.17108
2.13069
2.10882
2.10202
1.95177
1.82557
1.83155
1.94349
15.2479
4.13441
1.30634
0.526602
0.203443
0.0998962
0.0770857
0.0751784
0.0772817
0.0834028
0.093549
0.108875
0.134761
0.171067
0.228195
0.279139
0.294086
0.292492
0.282046
0.259257
0.224873
0.197588
0.177922
0.165048
0.159494
0.157905
0.157867
0.158422
0.160673
0.169858
0.178657
0.179967
0.174056
0.164469
0.163151
0.169063
0.176222
0.174559
0.174629
0.185145
0.227085
0.384186
0.778323
1.13752
1.31939
1.3747
1.31086
1.1415
0.880512
0.60366
0.417959
0.322423
0.267039
0.23509
0.218033
0.208949
0.206116
0.205585
0.204542
0.20201
0.200808
0.200502
0.201404
0.204097
0.207965
0.212877
0.218043
0.223697
0.230144
0.236594
0.242874
0.249039
0.254137
0.257395
0.260023
0.261607
0.26171
0.261553
0.257149
0.253213
0.252683
0.253228
0.260721
0.259429
0.250205
0.222345
0.195177
0.176427
0.163929
0.153524
0.151293
0.149874
0.151139
0.15632
0.159314
0.158215
0.161626
0.169032
0.166277
0.167615
0.171676
0.172899
0.174028
0.177216
0.18015
0.183631
0.18652
0.193197
0.205878
0.22073
0.230506
0.245504
0.282644
0.314707
0.344706
0.413952
0.453833
0.514257
0.577069
0.632415
0.661713
0.664118
0.670713
0.64688
0.60853
0.54979
0.552313
0.525532
0.483095
0.463328
0.470325
0.473651
0.452543
0.451642
0.513515
0.49866
0.502351
0.487956
0.492508
0.497855
0.557714
0.586586
0.586503
0.583425
0.60819
0.725538
0.876297
0.908765
0.848916
0.827643
0.841996
0.991314
1.40665
1.99163
2.19637
2.17211
2.05374
1.73562
1.60873
1.48659
1.38011
1.32816
1.24405
1.26355
1.24915
1.30564
1.41107
1.53019
1.56256
1.75375
2.02503
2.06852
2.11897
2.13192
2.07326
2.09337
1.95218
1.80933
1.83201
1.94331
17.7944
4.6389
1.33906
0.463416
0.167424
0.0876332
0.0754404
0.0760179
0.0822149
0.0926265
0.105353
0.124588
0.156471
0.216688
0.280219
0.300024
0.296204
0.275537
0.232358
0.204794
0.186116
0.16907
0.155786
0.149144
0.147249
0.147043
0.147551
0.148608
0.151841
0.161103
0.169331
0.170488
0.166983
0.165523
0.173202
0.186774
0.18807
0.191267
0.205961
0.262582
0.517439
0.836535
1.05034
1.18525
1.20922
1.09501
0.927328
0.742839
0.53457
0.374166
0.28472
0.239895
0.215922
0.203049
0.197766
0.197246
0.197879
0.197337
0.196256
0.196006
0.196484
0.197661
0.200231
0.204064
0.208642
0.213838
0.220155
0.2273
0.233734
0.239268
0.245448
0.249655
0.252986
0.25595
0.258236
0.257997
0.257436
0.257309
0.253135
0.245713
0.23921
0.232724
0.224772
0.22965
0.2323
0.220692
0.192642
0.172538
0.160534
0.148222
0.143335
0.14292
0.141534
0.142982
0.148984
0.148439
0.149563
0.157529
0.156195
0.156397
0.159978
0.161174
0.161466
0.162819
0.165202
0.167316
0.169236
0.171778
0.177971
0.18487
0.192111
0.198771
0.217037
0.233044
0.246787
0.281643
0.310219
0.324133
0.349903
0.394455
0.424492
0.467406
0.47431
0.465644
0.449606
0.418815
0.414309
0.412784
0.391897
0.382664
0.386009
0.404901
0.397454
0.404939
0.427183
0.437338
0.468314
0.46674
0.470143
0.490939
0.546778
0.575491
0.571441
0.558827
0.604699
0.788218
0.879826
0.897975
0.793135
0.763444
0.763311
0.887971
1.25073
1.73069
1.97769
1.98164
1.92361
1.68898
1.5085
1.34945
1.25581
1.202
1.14642
1.16153
1.1483
1.24179
1.38115
1.46915
1.56019
1.64832
1.68172
1.79451
2.13307
2.14641
2.04044
2.04235
1.93813
1.81619
1.85985
1.95646
20.1708
5.01041
1.32724
0.4067
0.137155
0.0823144
0.0758779
0.0809544
0.0974379
0.111245
0.125688
0.155536
0.206748
0.273654
0.302371
0.301426
0.273151
0.220959
0.198456
0.182145
0.166106
0.153075
0.145923
0.143648
0.143216
0.143548
0.144182
0.145305
0.148455
0.15378
0.157322
0.160067
0.16375
0.175057
0.189123
0.194485
0.20523
0.231462
0.339549
0.596752
0.815933
0.964922
1.03347
1.00919
0.883703
0.753634
0.619519
0.465753
0.337823
0.258679
0.21881
0.200255
0.191539
0.188763
0.188947
0.190633
0.191642
0.192415
0.192995
0.193908
0.195751
0.198565
0.202876
0.207949
0.215011
0.221494
0.227802
0.233235
0.237562
0.24044
0.243812
0.246319
0.246126
0.244317
0.24318
0.239682
0.236471
0.235168
0.23737
0.233597
0.22894
0.223613
0.213277
0.202174
0.20411
0.204206
0.189259
0.168503
0.159404
0.148617
0.139854
0.140428
0.138086
0.138111
0.144935
0.144261
0.145183
0.153835
0.1527
0.15247
0.156935
0.157513
0.157158
0.157713
0.160842
0.161874
0.163952
0.16507
0.169888
0.173632
0.178533
0.182949
0.192211
0.200443
0.207357
0.223753
0.245276
0.252952
0.263597
0.290209
0.305342
0.325346
0.341906
0.349547
0.357115
0.353624
0.350677
0.354335
0.349984
0.34839
0.353251
0.363282
0.380561
0.391355
0.398025
0.421557
0.463942
0.459863
0.466271
0.503889
0.551216
0.550002
0.524668
0.521726
0.604716
0.795941
0.83222
0.813273
0.715591
0.705281
0.70762
0.794706
1.1368
1.52494
1.81318
1.84704
1.81591
1.64366
1.41578
1.2453
1.16297
1.10123
1.0691
1.0892
1.11294
1.21985
1.37561
1.453
1.58132
1.61646
1.59541
1.75546
2.20248
2.14862
2.04488
1.96059
1.93023
1.87389
1.95056
2.03586
22.2998
5.19453
1.27225
0.322964
0.111968
0.0809677
0.080664
0.0974068
0.120722
0.134669
0.154835
0.19805
0.254919
0.29707
0.306705
0.285832
0.231231
0.202906
0.188052
0.174892
0.161292
0.149524
0.144944
0.144221
0.144173
0.144106
0.144361
0.145271
0.147727
0.151835
0.156384
0.161898
0.171628
0.184157
0.195091
0.21256
0.254481
0.399519
0.59248
0.753938
0.862673
0.893533
0.824267
0.71598
0.620977
0.515991
0.407112
0.306567
0.239773
0.204713
0.188954
0.182167
0.180289
0.181225
0.183679
0.186377
0.18833
0.190022
0.192216
0.194509
0.198281
0.204366
0.212649
0.218849
0.224103
0.229204
0.232727
0.234984
0.237191
0.238178
0.237904
0.236525
0.232549
0.223233
0.215663
0.210096
0.201617
0.194919
0.196688
0.197047
0.196246
0.196096
0.19656
0.189322
0.182951
0.181173
0.175822
0.161089
0.154362
0.149221
0.139892
0.139185
0.137883
0.136988
0.143443
0.143454
0.143717
0.1536
0.15268
0.152649
0.157849
0.157582
0.158386
0.158581
0.160724
0.161772
0.163912
0.163938
0.168728
0.171918
0.174
0.180398
0.187218
0.190082
0.195094
0.206403
0.221406
0.224027
0.230579
0.254899
0.260203
0.27049
0.289001
0.300691
0.310647
0.315739
0.32023
0.326269
0.33371
0.335829
0.343127
0.350558
0.376602
0.382262
0.39503
0.419697
0.463037
0.464935
0.489543
0.543068
0.548542
0.540426
0.509679
0.516123
0.619586
0.740978
0.716995
0.678536
0.655891
0.681422
0.699308
0.76915
1.01205
1.35211
1.65016
1.69842
1.67624
1.53788
1.32008
1.1564
1.08513
1.04548
1.03127
1.05346
1.10063
1.2149
1.41136
1.45425
1.58834
1.6018
1.5751
1.79662
2.19158
2.15128
2.07454
1.90595
1.98594
2.00508
1.99663
2.22916
24.0935
5.24686
1.15824
0.246216
0.0999567
0.0815382
0.0900437
0.108994
0.134132
0.154121
0.178537
0.223635
0.283614
0.310321
0.309583
0.266558
0.219893
0.199088
0.187545
0.176488
0.163962
0.155836
0.153663
0.152586
0.150197
0.149127
0.149119
0.149557
0.151095
0.154956
0.161688
0.171053
0.182388
0.195749
0.218103
0.276652
0.41268
0.555559
0.67929
0.761298
0.770555
0.674421
0.595096
0.522081
0.441509
0.360425
0.282503
0.226591
0.19555
0.180515
0.174592
0.173394
0.174146
0.176936
0.179984
0.18342
0.186765
0.189744
0.193451
0.199732
0.208715
0.216257
0.222395
0.226137
0.227883
0.23059
0.232904
0.233981
0.233681
0.231692
0.226581
0.216882
0.209891
0.196987
0.184386
0.180563
0.175217
0.167326
0.159915
0.156888
0.152669
0.153316
0.157384
0.164574
0.166363
0.165542
0.160812
0.155636
0.152077
0.149391
0.14251
0.14023
0.140411
0.138806
0.143566
0.145884
0.145684
0.15701
0.155938
0.1553
0.163485
0.162396
0.163535
0.167144
0.166138
0.168231
0.17024
0.167533
0.170105
0.175915
0.174236
0.178042
0.189493
0.189167
0.191021
0.199098
0.217852
0.21734
0.220743
0.239657
0.246002
0.254981
0.269156
0.275766
0.288127
0.306068
0.309401
0.313522
0.326422
0.332227
0.342184
0.35035
0.376572
0.380372
0.402369
0.417954
0.4604
0.470733
0.522891
0.544817
0.533583
0.5251
0.497711
0.536894
0.659647
0.660362
0.655236
0.639374
0.641625
0.684409
0.721122
0.772393
0.945106
1.16019
1.42459
1.49388
1.47871
1.38991
1.23456
1.10813
1.05115
1.02057
1.01797
1.04261
1.1009
1.22806
1.447
1.47094
1.58675
1.59189
1.56345
1.82849
2.03777
2.181
2.05922
1.89954
2.2015
2.23794
2.20603
2.89803
25.5858
5.22809
0.984008
0.195709
0.0969855
0.0855043
0.0955314
0.113881
0.141032
0.162966
0.204971
0.280597
0.327119
0.334859
0.311051
0.256247
0.219736
0.207361
0.202985
0.197286
0.187542
0.181105
0.178183
0.172732
0.164412
0.162303
0.162251
0.162042
0.16143
0.164805
0.176692
0.19486
0.211816
0.239868
0.298647
0.399535
0.503667
0.600315
0.669084
0.666844
0.573318
0.497282
0.442223
0.38197
0.31806
0.262854
0.216549
0.188162
0.174829
0.169453
0.168155
0.168457
0.170803
0.174276
0.177822
0.182343
0.186388
0.191639
0.20069
0.210924
0.219339
0.223921
0.225897
0.227827
0.22859
0.228691
0.227808
0.22603
0.224076
0.218932
0.209827
0.196207
0.188946
0.179946
0.171447
0.166343
0.154462
0.15042
0.144868
0.14051
0.138252
0.139466
0.144901
0.150929
0.156649
0.159394
0.159355
0.155441
0.153689
0.151149
0.148218
0.147377
0.148964
0.148637
0.150899
0.156508
0.157475
0.169569
0.170266
0.170284
0.182646
0.180367
0.181208
0.190589
0.187391
0.187192
0.191953
0.186921
0.184933
0.19004
0.186059
0.183948
0.190584
0.1941
0.193457
0.197682
0.215244
0.21731
0.221463
0.230691
0.240314
0.254846
0.267994
0.272418
0.282142
0.303102
0.306767
0.313706
0.32561
0.332193
0.342109
0.354234
0.378426
0.384039
0.417663
0.424508
0.468707
0.476736
0.52486
0.523891
0.507794
0.484804
0.479806
0.59406
0.673091
0.646973
0.645852
0.625395
0.636965
0.721761
0.793157
0.824066
0.953496
1.11544
1.29184
1.3163
1.30053
1.26799
1.19702
1.09143
1.03819
1.01071
1.01441
1.04549
1.12847
1.2742
1.49668
1.49089
1.61224
1.59051
1.54558
1.7822
1.91779
2.19272
1.95456
2.00483
2.56278
2.38888
2.39378
3.54462
26.6909
5.17187
0.889023
0.178889
0.101886
0.0994918
0.102747
0.122542
0.155997
0.186062
0.245059
0.318437
0.347177
0.35035
0.32046
0.258978
0.238993
0.236885
0.242278
0.243643
0.235743
0.227761
0.222439
0.208793
0.189651
0.18158
0.179635
0.180323
0.181599
0.18386
0.194546
0.215459
0.249936
0.312245
0.386048
0.460279
0.531863
0.583949
0.581768
0.511527
0.430925
0.386149
0.341207
0.289675
0.245425
0.21024
0.185315
0.173132
0.167542
0.165603
0.165734
0.166699
0.169133
0.172927
0.176987
0.18167
0.188519
0.200523
0.21284
0.219915
0.224228
0.226088
0.226422
0.22625
0.225021
0.223113
0.218429
0.21161
0.206887
0.199909
0.195784
0.187469
0.180445
0.172136
0.163255
0.156787
0.145759
0.138653
0.135114
0.133047
0.13343
0.136511
0.144456
0.150421
0.157169
0.159657
0.160948
0.158715
0.156939
0.156195
0.156603
0.159293
0.164803
0.16653
0.169383
0.17926
0.18248
0.192988
0.195939
0.197051
0.211054
0.210886
0.212187
0.223268
0.219171
0.217594
0.222879
0.218126
0.215953
0.21783
0.212795
0.209043
0.210521
0.210993
0.20741
0.209018
0.215483
0.22054
0.227328
0.229778
0.239533
0.25708
0.269458
0.273054
0.284179
0.300559
0.305497
0.314753
0.326723
0.334634
0.347515
0.3643
0.377601
0.392846
0.422862
0.4304
0.467744
0.475328
0.507904
0.491096
0.4516
0.438685
0.477742
0.636099
0.669774
0.643155
0.643318
0.621823
0.641136
0.78307
0.867511
0.89104
0.964697
1.08994
1.20812
1.22026
1.25024
1.23204
1.18921
1.088
1.03505
1.01026
1.02227
1.097
1.19104
1.36104
1.5673
1.53151
1.63804
1.61587
1.54064
1.73992
1.88099
2.12835
1.91567
2.27747
2.67365
2.42362
2.52109
3.62252
27.4623
5.11169
0.803488
0.174294
0.116454
0.119835
0.119284
0.131991
0.160986
0.196471
0.264186
0.343067
0.373987
0.377759
0.339276
0.294609
0.290311
0.299078
0.310419
0.313302
0.310647
0.30633
0.301406
0.286429
0.24953
0.224492
0.214691
0.213794
0.220937
0.224842
0.229953
0.25584
0.301112
0.353884
0.417829
0.477206
0.527728
0.534827
0.499001
0.409631
0.350413
0.316834
0.276326
0.23591
0.207065
0.186283
0.172469
0.166329
0.164931
0.16441
0.164545
0.165851
0.168556
0.172069
0.17635
0.184915
0.198693
0.21095
0.220329
0.224328
0.225823
0.225906
0.224987
0.222101
0.215982
0.211162
0.209375
0.204225
0.195905
0.188924
0.183365
0.176643
0.171788
0.162223
0.151449
0.139933
0.132771
0.130824
0.130479
0.130707
0.132105
0.137516
0.147617
0.152458
0.159526
0.164052
0.166077
0.166409
0.16564
0.167096
0.168806
0.172743
0.180712
0.18452
0.190427
0.20536
0.209139
0.215251
0.220702
0.222379
0.233293
0.237447
0.237603
0.242844
0.240833
0.239711
0.245411
0.245106
0.245765
0.247467
0.245335
0.242736
0.241981
0.240023
0.236426
0.237783
0.233672
0.237485
0.242717
0.24193
0.247113
0.260776
0.275858
0.278683
0.288715
0.298667
0.307898
0.315553
0.326591
0.334658
0.354424
0.364671
0.380502
0.400547
0.41801
0.425445
0.444365
0.448526
0.460198
0.433198
0.393388
0.422396
0.483571
0.63428
0.658397
0.644451
0.645693
0.629854
0.687075