/*--------------------------------*- C++ -*----------------------------------*\
| =========                 |                                                 |
| \\      /  F ield         | OpenFOAM: The Open Source CFD Toolbox           |
|  \\    /   O peration     | Version:  dev                                   |
|   \\  /    A nd           | Web:      http://www.openfoam.org               |
|    \\/     M anipulation  |                                                 |
\*---------------------------------------------------------------------------*/
FoamFile
{
    version     2.0;
    format      ascii;
    class       volScalarField;
    object      muSgs;
    location    "9.121";
}
// * * * * * * * * * * * * * * * * * * * * * * * * * * * * * * * * * * * * * //

dimensions      [1 -1 -1 0 0 0 0];

internalField   nonuniform List<scalar> 
12225
(
0.000220038
0.000212975
0.000159471
0.000147103
0.000134927
0.000142745
0.000155089
0.000155905
0.000181505
0.000170914
0.000203563
0.000183831
0.000212466
0.000196738
0.000210303
0.000234485
0.000310565
0.000317012
0.000117257
0.000197244
0.000178056
0.00019041
0.00015724
0.000178787
0.000149173
0.000173357
0.000154492
0.000171588
0.000162734
0.000164584
0.000169732
0.000150739
0.000168081
0.000159263
0.00025439
0.000279101
4.25345e-05
0.000119052
0.000129586
0.000153331
0.000137158
0.000150626
0.00013294
0.000141336
0.000132363
0.00012524
0.00013223
0.000108493
0.000127788
9.80828e-05
0.000118784
0.000127547
0.000230937
0.000289299
1.47363e-05
5.85782e-05
7.23414e-05
8.87913e-05
9.75027e-05
9.7591e-05
0.000105954
9.66753e-05
0.000109804
8.89126e-05
0.00010611
7.78099e-05
9.63672e-05
7.3653e-05
9.88372e-05
9.99005e-05
0.000224096
0.000309951
7.94435e-06
2.91964e-05
4.24688e-05
5.20636e-05
6.64578e-05
6.6393e-05
7.61824e-05
7.02669e-05
7.92588e-05
6.6622e-05
7.83815e-05
6.01639e-05
7.42541e-05
5.7857e-05
7.85888e-05
7.8538e-05
0.00018062
0.000322061
9.61519e-06
2.15853e-05
2.91644e-05
3.43998e-05
4.48145e-05
4.50388e-05
5.32634e-05
4.97878e-05
5.65673e-05
4.95804e-05
5.75528e-05
4.78683e-05
5.70057e-05
4.7953e-05
5.99128e-05
6.56476e-05
0.000135178
0.000262442
1.40052e-05
1.87116e-05
2.47295e-05
2.72879e-05
3.44668e-05
3.5008e-05
4.12961e-05
4.00582e-05
4.49257e-05
4.24677e-05
4.64763e-05
4.34634e-05
4.70255e-05
4.46451e-05
4.98e-05
5.45863e-05
9.09779e-05
0.000151434
1.49518e-05
1.72542e-05
2.12358e-05
2.3485e-05
2.74095e-05
2.8709e-05
3.19558e-05
3.252e-05
3.49514e-05
3.49171e-05
3.65124e-05
3.61536e-05
3.71454e-05
3.72924e-05
3.84533e-05
4.18363e-05
5.44669e-05
7.12805e-05
1.92024e-05
2.25691e-05
2.4506e-05
2.72638e-05
2.99644e-05
3.19909e-05
3.42489e-05
3.56173e-05
3.72211e-05
3.80295e-05
3.881e-05
3.93303e-05
3.93329e-05
4.0106e-05
3.98698e-05
4.12348e-05
4.64664e-05
4.97755e-05
2.56712e-05
3.35784e-05
3.36114e-05
3.77529e-05
3.69662e-05
3.97778e-05
3.97089e-05
4.20038e-05
4.19969e-05
4.36949e-05
4.31744e-05
4.44424e-05
4.34338e-05
4.45312e-05
4.35731e-05
4.4631e-05
4.62521e-05
4.63736e-05
3.91939e-05
4.77926e-05
4.81289e-05
5.31149e-05
5.26755e-05
5.66112e-05
5.47047e-05
5.68791e-05
5.4687e-05
5.60931e-05
5.36524e-05
5.45913e-05
5.26592e-05
5.30427e-05
5.16717e-05
5.11556e-05
5.10835e-05
5.02051e-05
6.25511e-05
7.04359e-05
7.0766e-05
7.51055e-05
7.42713e-05
7.66225e-05
7.48746e-05
7.54556e-05
7.33288e-05
7.31487e-05
7.07475e-05
7.00896e-05
6.8046e-05
6.70198e-05
6.52299e-05
6.37565e-05
6.21199e-05
6.01469e-05
9.89591e-05
0.000102917
0.000101697
0.000102925
0.000101453
0.00010142
9.87882e-05
9.70235e-05
9.41444e-05
9.20985e-05
8.91969e-05
8.69529e-05
8.41034e-05
8.17004e-05
7.90767e-05
7.66653e-05
7.39946e-05
7.13848e-05
0.000145665
0.000143385
0.000139392
0.00013642
0.000132549
0.000130304
0.000127355
0.000124274
0.00012042
0.00011699
0.000113011
0.000109623
0.000105551
0.000102155
9.79545e-05
9.4551e-05
9.04293e-05
8.68722e-05
0.000203639
0.000199308
0.000194425
0.000189471
0.000183746
0.000177858
0.000170762
0.000163377
0.000155793
0.000148872
0.000141788
0.000135561
0.000128922
0.000123317
0.00011701
0.000111993
0.000106181
0.000101547
0.000276779
0.000264698
0.000252332
0.000238295
0.000226164
0.000214991
0.00020389
0.000193383
0.000183121
0.000173779
0.000164484
0.000156245
0.000147783
0.000140562
0.000132816
0.000126573
0.000119535
0.000114029
0.000333349
0.000312221
0.000292862
0.000273243
0.000257142
0.000242786
0.000229208
0.000216766
0.000204825
0.000193959
0.000183201
0.000173607
0.000163861
0.0001555
0.000146711
0.00013958
0.00013163
0.000125416
0.000341971
0.00031879
0.000298794
0.000278314
0.00026172
0.000246989
0.000233165
0.000220516
0.000208391
0.000197313
0.000186361
0.000176526
0.000166506
0.000157903
0.00014891
0.000141551
0.000133444
0.000127074
0.000306183
0.000291297
0.000275864
0.000258481
0.000243936
0.000230759
0.000218271
0.000206768
0.000195696
0.000185556
0.000175459
0.00016632
0.000156971
0.00014894
0.000140467
0.000133579
0.000125967
0.000119972
0.00024361
0.000238132
0.000231754
0.000222877
0.000213955
0.000204598
0.000195008
0.000185778
0.000176712
0.000168316
0.000159681
0.000151831
0.00014365
0.00013661
0.000129036
0.000123009
0.000116161
0.00011084
0.000180981
0.00017594
0.000171205
0.000166612
0.000162627
0.00015824
0.000153091
0.000148031
0.000143192
0.000138677
0.000133245
0.000128087
0.000122118
0.000117063
0.00011116
0.000106718
0.000101052
9.67253e-05
0.000126966
0.000126531
0.000125445
0.000125106
0.000124558
0.000122695
0.000120212
0.000117191
0.000113639
0.00011014
0.000106653
0.000102999
9.87602e-05
9.47541e-05
9.01971e-05
8.65142e-05
8.24268e-05
7.93322e-05
8.79998e-05
9.00241e-05
9.11261e-05
9.23042e-05
9.16673e-05
9.01e-05
8.81365e-05
8.64017e-05
8.50137e-05
8.39841e-05
8.30494e-05
8.17872e-05
8.00949e-05
7.81871e-05
7.59581e-05
7.38065e-05
7.14685e-05
6.93922e-05
5.57777e-05
5.92225e-05
6.00209e-05
6.07006e-05
6.23003e-05
6.46323e-05
6.67487e-05
6.85779e-05
7.00094e-05
7.10658e-05
7.16279e-05
7.16682e-05
7.11435e-05
7.01987e-05
6.89472e-05
6.74712e-05
6.5886e-05
6.42663e-05
3.36205e-05
3.6091e-05
3.86877e-05
4.36538e-05
4.92974e-05
5.47596e-05
5.92084e-05
6.26242e-05
6.50941e-05
6.67267e-05
6.76151e-05
6.78799e-05
6.75585e-05
6.68327e-05
6.5854e-05
6.46637e-05
6.33436e-05
6.19155e-05
1.68072e-05
2.37492e-05
3.15942e-05
4.14086e-05
5.04506e-05
5.80687e-05
6.34082e-05
6.69048e-05
6.90938e-05
7.04478e-05
7.09643e-05
7.09472e-05
7.03666e-05
6.95787e-05
6.86854e-05
6.7667e-05
6.65146e-05
6.52563e-05
9.65704e-06
2.6306e-05
4.60297e-05
6.33345e-05
7.6428e-05
8.53481e-05
9.00391e-05
9.20606e-05
9.24976e-05
9.2221e-05
9.11595e-05
8.98069e-05
8.81727e-05
8.66872e-05
8.52563e-05
8.38605e-05
8.2219e-05
8.04114e-05
1.96722e-05
6.69424e-05
0.00010586
0.000124379
0.000134552
0.000139875
0.000141006
0.000139514
0.000136801
0.000133494
0.000129603
0.000125894
0.000122354
0.000118924
0.000115707
0.000112485
0.000108632
0.000104505
7.64812e-05
0.000180103
0.000212272
0.000216281
0.000210934
0.000202028
0.000192348
0.000183261
0.000175407
0.000168157
0.000160999
0.000154025
0.000147213
0.00014059
0.000134491
0.000128058
0.000121794
0.000113703
0.00024239
0.000287178
0.000259169
0.000220924
0.000195874
0.000184066
0.000179271
0.000177808
0.000178079
0.000178708
0.000179054
0.000178813
0.000177944
0.000176422
0.000174041
0.000170875
0.000166542
0.000157164
3.82173e-05
3.63142e-05
3.79922e-05
4.06355e-05
4.29152e-05
4.51072e-05
4.74574e-05
5.02719e-05
5.29627e-05
5.57031e-05
5.84489e-05
6.15685e-05
6.5063e-05
6.90811e-05
7.34992e-05
7.84702e-05
8.35012e-05
8.95711e-05
9.53995e-05
0.00010228
0.000108973
0.000116593
0.000124591
0.000132739
0.000141452
0.000150231
0.000159868
0.000168908
0.000178405
0.000186866
0.000195075
0.000202121
0.000206731
0.000210653
0.000211354
0.000207895
0.000203711
0.000203425
0.000203842
0.000202979
0.000203123
0.000204744
0.000206481
0.000206973
0.000206719
0.000207239
0.000208823
0.000211925
0.000214633
0.000215145
0.000216451
0.000218334
0.000222452
0.00022643
0.00022716
0.000228445
0.000232686
0.000237718
0.000238591
0.000245723
0.000256925
0.000267387
0.000275929
0.000282638
0.00028759
0.000290998
0.000293195
0.000294399
0.000294417
0.000293474
0.000291918
0.000289595
0.000286764
0.000283376
0.000279819
0.000276166
0.000272293
0.000268199
0.000264551
0.000260538
0.00025632
0.000252644
0.000248376
0.00024397
0.000239928
0.00023577
0.000231103
0.000226662
0.000222013
0.00021774
0.000212764
0.000208949
0.000204821
0.000201051
0.000197998
0.000194956
0.000192748
0.000190598
0.000189218
0.000188489
0.000187965
0.000187953
0.00018827
0.000189021
0.000190317
0.000192181
0.000194712
0.000198167
0.000202313
0.000206458
0.000211054
0.000215521
0.000219702
0.000223896
0.000228424
0.000234015
0.00024077
0.000245353
0.000247405
0.000248056
0.000248513
0.000249621
0.000251372
0.000251737
0.000250378
0.000248145
0.000245914
0.000243973
0.00024235
0.000240888
0.0002379
0.000237086
0.000239117
0.000242769
0.000246863
0.000257276
0.000263986
0.00028094
0.000293093
0.000327875
0.000352158
0.000381598
0.000410262
0.000432524
0.000459134
0.0004832
0.000529286
0.000577374
0.000623189
0.000647724
0.0006613
0.000664099
0.000645019
0.000617783
0.000573797
0.000538497
0.000506161
0.000483786
0.000464937
0.000451856
0.000442927
0.000438219
0.000439106
0.00044172
0.000457783
0.000469086
0.000482025
0.00049762
0.00051702
0.000538189
0.000542141
0.000527334
0.000492121
0.000495253
0.000508571
0.000521577
0.000524266
0.000511516
0.000496099
0.000498571
7.68119e-05
5.43309e-05
4.31316e-05
4.18057e-05
4.20623e-05
4.23733e-05
4.20247e-05
4.13679e-05
4.04453e-05
3.95641e-05
3.90744e-05
3.8888e-05
3.89522e-05
3.9244e-05
3.95375e-05
4.02367e-05
4.08834e-05
4.21294e-05
4.30014e-05
4.43421e-05
4.55363e-05
4.69895e-05
4.92479e-05
5.09462e-05
5.3726e-05
5.57596e-05
5.95006e-05
6.36724e-05
6.76959e-05
7.59755e-05
8.1876e-05
9.16284e-05
0.000101505
0.000109946
0.000121151
0.000128252
0.000132987
0.000133946
0.00013138
0.000126792
0.000123055
0.000122716
0.000118309
0.000105961
9.15391e-05
8.47765e-05
8.36572e-05
8.77136e-05
9.94756e-05
0.000105425
0.000108959
0.000112526
0.000118209
0.000120753
0.000132054
0.000171562
0.000198417
0.000211901
0.00022302
0.000229795
0.000231321
0.000227458
0.000220779
0.000213587
0.000205922
0.000198346
0.000191686
0.000185043
0.000179435
0.000174431
0.000170113
0.000165847
0.000162701
0.000159632
0.000157471
0.000155905
0.000154324
0.000153165
0.000152848
0.000151791
0.000151007
0.000150968
0.00014977
0.000149487
0.000149043
0.000147972
0.000147157
0.000146825
0.000146026
0.000145868
0.000145501
0.000146118
0.000145349
0.000145807
0.000146814
0.000147115
0.000148211
0.000148775
0.000149682
0.000150363
0.000151253
0.000151782
0.00015194
0.000151879
0.0001517
0.000151308
0.000151146
0.000151288
0.000152296
0.00015393
0.00015663
0.000159285
0.000161803
0.000164102
0.000166072
0.000168176
0.000171062
0.00017281
0.000173953
0.000174408
0.000175002
0.00017503
0.000172503
0.000167716
0.000162623
0.00016155
0.000163918
0.000166997
0.000168822
0.000170871
0.000171113
0.000172194
0.000175351
0.00017748
0.000177659
0.000180645
0.000185379
0.000182658
0.000190225
0.000193651
0.00020195
0.000211913
0.000220588
0.000231293
0.00024558
0.000250582
0.000266419
0.000296352
0.000335209
0.000371664
0.000391588
0.00040247
0.000407602
0.000403652
0.000394375
0.000381794
0.000375868
0.000364145
0.000360444
0.000354126
0.000354499
0.000359521
0.00036299
0.000375161
0.000385218
0.000406282
0.000431533
0.000434929
0.00043813
0.000437618
0.00044751
0.000458619
0.000431506
0.000403957
0.000415526
0.000431531
0.00046432
0.000473428
0.00046912
0.000434279
0.000118319
7.37986e-05
5.05232e-05
4.3412e-05
4.22843e-05
4.13371e-05
3.97824e-05
3.7023e-05
3.37119e-05
3.12076e-05
2.99472e-05
2.94002e-05
2.92928e-05
2.94549e-05
2.98153e-05
3.05334e-05
3.12438e-05
3.20871e-05
3.28326e-05
3.40433e-05
3.50067e-05
3.61698e-05
3.72368e-05
3.80689e-05
3.87098e-05
3.899e-05
3.93886e-05
3.96051e-05
4.01669e-05
4.12054e-05
4.26649e-05
4.51451e-05
5.07039e-05
5.49183e-05
6.26344e-05
7.11939e-05
7.75585e-05
8.57176e-05
9.32888e-05
9.72599e-05
9.77865e-05
9.8186e-05
9.24425e-05
7.79619e-05
6.81982e-05
6.45156e-05
6.36361e-05
6.82578e-05
7.28039e-05
7.91935e-05
9.55138e-05
0.000123059
0.00013934
0.000146426
0.000154964
0.00016494
0.000167776
0.000165479
0.000160203
0.000153486
0.000145037
0.000135415
0.000125839
0.000117055
0.000110364
0.000103974
9.9791e-05
9.55732e-05
9.31579e-05
9.08115e-05
8.94649e-05
8.83714e-05
8.78944e-05
8.76958e-05
8.7982e-05
8.84964e-05
8.905e-05
8.97467e-05
9.08472e-05
9.15623e-05
9.27217e-05
9.38433e-05
9.49341e-05
9.63806e-05
9.72012e-05
9.75121e-05
9.83463e-05
9.97639e-05
0.000100742
0.000101927
0.00010327
0.000105604
0.000106233
0.000108113
0.000110447
0.000112319
0.000114721
0.000116626
0.000119225
0.000120619
0.000123102
0.000124854
0.000125976
0.00012702
0.000128192
0.000129082
0.000129426
0.000129987
0.000130213
0.000130902
0.000132629
0.000133646
0.00013426
0.000134599
0.000135599
0.000138422
0.000140637
0.000138209
0.00013317
0.000132464
0.000136393
0.000138189
0.000137985
0.000137466
0.000133803
0.000130441
0.000131361
0.000136045
0.000138672
0.00013854
0.000140218
0.000141162
0.000145292
0.000146999
0.000145986
0.00015041
0.000151651
0.000145845
0.000153994
0.000154551
0.000162968
0.000169829
0.000175455
0.000177288
0.000177548
0.000168899
0.000167624
0.000180677
0.000210572
0.000246876
0.00026953
0.000291675
0.000327478
0.000346988
0.00034994
0.000336097
0.000319243
0.000303261
0.000298617
0.00028843
0.000287891
0.000289987
0.000294532
0.000302823
0.000297388
0.000328786
0.000358056
0.000372353
0.00037696
0.000377518
0.000396995
0.000407326
0.000381637
0.000333932
0.000339962
0.000340278
0.000364544
0.000381176
0.0004004
0.000386499
0.000158261
9.10867e-05
5.77129e-05
4.70011e-05
4.53806e-05
4.30215e-05
3.92322e-05
3.44872e-05
3.02489e-05
2.77071e-05
2.67505e-05
2.66463e-05
2.69388e-05
2.77286e-05
2.87854e-05
2.99097e-05
3.09027e-05
3.19374e-05
3.31637e-05
3.48356e-05
3.63686e-05
3.7851e-05
3.90307e-05
3.98341e-05
4.01836e-05
4.0272e-05
4.01001e-05
3.96142e-05
3.9063e-05
3.82638e-05
3.79609e-05
3.81549e-05
3.84066e-05
3.96627e-05
4.21763e-05
4.67217e-05
5.14117e-05
5.71548e-05
6.38696e-05
7.18503e-05
7.72311e-05
7.84602e-05
7.79377e-05
7.40187e-05
6.72567e-05
6.29844e-05
6.4329e-05
6.86985e-05
7.0898e-05
8.13105e-05
0.000125327
0.000142675
0.000139551
0.000137376
0.000133475
0.000128678
0.000123164
0.000115166
0.00010797
9.82528e-05
9.10514e-05
8.34833e-05
7.84065e-05
7.36011e-05
7.09882e-05
6.85929e-05
6.74767e-05
6.6557e-05
6.62588e-05
6.61141e-05
6.63308e-05
6.66489e-05
6.72575e-05
6.80068e-05
6.86741e-05
6.94595e-05
6.99912e-05
7.06425e-05
7.1234e-05
7.1781e-05
7.25074e-05
7.31786e-05
7.39532e-05
7.56246e-05
7.69648e-05
7.75927e-05
7.82671e-05
7.97763e-05
8.11651e-05
8.26957e-05
8.38431e-05
8.65739e-05
8.76006e-05
8.95662e-05
9.16762e-05
9.38231e-05
9.63218e-05
9.8065e-05
0.000101082
0.00010243
0.000104737
0.000106776
0.000108101
0.000108955
0.000110065
0.000112623
0.000116464
0.000121176
0.000123566
0.000123739
0.000124288
0.000124604
0.000124832
0.000125764
0.000125285
0.000125029
0.00012785
0.000128447
0.000124787
0.000119007
0.000116915
0.000119034
0.000122568
0.000126186
0.000128882
0.000131914
0.000132986
0.000135907
0.000136912
0.000133287
0.000129464
0.000124058
0.000128733
0.000132619
0.000133671
0.000137776
0.000145903
0.000129858
0.00014107
0.000131173
0.000141324
0.000151409
0.000171772
0.00017856
0.000171061
0.000156163
0.000139867
0.000138599
0.000150452
0.000182541
0.000208079
0.000233608
0.000277963
0.000315344
0.000317756
0.000304406
0.000284637
0.000271207
0.000268004
0.000257955
0.000258214
0.000252798
0.000253068
0.000261232
0.000248714
0.000267118
0.000295022
0.000314186
0.000327777
0.000340576
0.000371915
0.000379999
0.000369831
0.000324219
0.000320045
0.000305391
0.000316731
0.000323274
0.000348873
0.000356347
0.000196256
0.000108833
6.82111e-05
5.53031e-05
4.88707e-05
4.32134e-05
3.77965e-05
3.13723e-05
2.69217e-05
2.50827e-05
2.47943e-05
2.5164e-05
2.59849e-05
2.72485e-05
2.85965e-05
3.00594e-05
3.14409e-05
3.31106e-05
3.53895e-05
3.78407e-05
4.03292e-05
4.22199e-05
4.31771e-05
4.33233e-05
4.29777e-05
4.26414e-05
4.19033e-05
4.11632e-05
4.07164e-05
3.96507e-05
3.87247e-05
3.78037e-05
3.71331e-05
3.74029e-05
3.73675e-05
3.89986e-05
4.01113e-05
4.36337e-05
4.73025e-05
5.15935e-05
5.9498e-05
6.45082e-05
6.49586e-05
6.47345e-05
6.28708e-05
6.31242e-05
6.71512e-05
7.405e-05
8.41516e-05
0.000123424
0.000141333
0.000138073
0.000122051
0.000111682
0.000102026
9.53926e-05
8.76572e-05
8.00977e-05
7.42287e-05
6.77337e-05
6.40205e-05
6.09031e-05
5.93025e-05
5.80116e-05
5.7542e-05
5.72858e-05
5.74964e-05
5.77125e-05
5.821e-05
5.88009e-05
5.95237e-05
6.03282e-05
6.09717e-05
6.20918e-05
6.2997e-05
6.36675e-05
6.42887e-05
6.48943e-05
6.5208e-05
6.54704e-05
6.54602e-05
6.56007e-05
6.49452e-05
6.54933e-05
6.63507e-05
6.76136e-05
6.81035e-05
6.91145e-05
7.03192e-05
7.13126e-05
7.17301e-05
7.33683e-05
7.46923e-05
7.58576e-05
7.81602e-05
7.95254e-05
8.26647e-05
8.41405e-05
8.72707e-05
8.9061e-05
9.16155e-05
9.35897e-05
9.51282e-05
9.61778e-05
9.65008e-05
9.71866e-05
9.94251e-05
0.000104859
0.000109486
0.000113976
0.000120757
0.000126118
0.000125633
0.00012349
0.00012288
0.000121853
0.000122932
0.00012419
0.000123498
0.000120529
0.000118058
0.000117832
0.000122174
0.000127289
0.000127272
0.000127366
0.000125467
0.000127037
0.000128751
0.00012701
0.000122618
0.000116421
0.000116159
0.00012352
0.000128049
0.000129922
0.000137981
0.000127675
0.000132196
0.000127272
0.000128894
0.000124421
0.000140311
0.000162622
0.000161301
0.000158042
0.000147944
0.000140972
0.00013702
0.000151925
0.000176042
0.00020376
0.00024751
0.000293092
0.000296669
0.000284886
0.000265371
0.000254723
0.000254809
0.000244316
0.000246404
0.000243603
0.000238062
0.000243245
0.000229842
0.000238487
0.000252282
0.000266304
0.000284413
0.000305113
0.000351011
0.000363294
0.000365435
0.000323889
0.000313035
0.000298728
0.000300126
0.000299814
0.000316767
0.000332518
0.0002322
0.000125245
7.72587e-05
5.92808e-05
4.87321e-05
4.12484e-05
3.23549e-05
2.6129e-05
2.3894e-05
2.35491e-05
2.39779e-05
2.48888e-05
2.6087e-05
2.77902e-05
2.9852e-05
3.19982e-05
3.43215e-05
3.7515e-05
4.15119e-05
4.41796e-05
4.51948e-05
4.54285e-05
4.49457e-05
4.43872e-05
4.3628e-05
4.30645e-05
4.23361e-05
4.17259e-05
4.1219e-05
4.07947e-05
4.02282e-05
3.87369e-05
3.75086e-05
3.68743e-05
3.70723e-05
3.79198e-05
3.8169e-05
3.94532e-05
4.04413e-05
4.25177e-05
4.84387e-05
5.11647e-05
5.3646e-05
5.79104e-05
6.27221e-05
6.79198e-05
8.7647e-05
0.000112346
0.000126305
0.000134634
0.000133619
0.00011509
9.62233e-05
8.69997e-05
7.79053e-05
7.16104e-05
6.49697e-05
6.04981e-05
5.71122e-05
5.46637e-05
5.36491e-05
5.30334e-05
5.29135e-05
5.29779e-05
5.32141e-05
5.35498e-05
5.39574e-05
5.43688e-05
5.49812e-05
5.57941e-05
5.65801e-05
5.75842e-05
5.82977e-05
5.93027e-05
6.05902e-05
6.13997e-05
6.22251e-05
6.27579e-05
6.33468e-05
6.36508e-05
6.35812e-05
6.37529e-05
6.26766e-05
6.20679e-05
6.09874e-05
6.02216e-05
5.99592e-05
5.99927e-05
6.04865e-05
6.12983e-05
6.16263e-05
6.23867e-05
6.32329e-05
6.35623e-05
6.47248e-05
6.56567e-05
6.77519e-05
6.85844e-05
7.01824e-05
7.20945e-05
7.46213e-05
7.75605e-05
8.01901e-05
8.37161e-05
8.62011e-05
8.70585e-05
8.81094e-05
9.10923e-05
9.44055e-05
9.78537e-05
0.00010451
0.000112368
0.000118665
0.000121186
0.000124282
0.000125467
0.000125698
0.000126184
0.000126943
0.000126839
0.00012291
0.000120465
0.000124237
0.00012771
0.000126553
0.000131454
0.000133411
0.000130135
0.00012692
0.000125014
0.000118985
0.000112199
0.000109859
0.000112965
0.00012039
0.00011931
0.000128476
0.000129513
0.000124897
0.000125127
0.000129766
0.000121772
0.000119096
0.000138833
0.000142598
0.000143686
0.000145783
0.000148271
0.000143395
0.000142977
0.000159019
0.00018493
0.000226469
0.000275271
0.000280728
0.000271528
0.000256669
0.000241947
0.000243418
0.000236524
0.000235542
0.000234229
0.000229093
0.000234518
0.000221181
0.000225857
0.000233039
0.000238962
0.000249407
0.000272182
0.000327573
0.000347511
0.000351424
0.000323221
0.000310318
0.000301202
0.000300831
0.00029399
0.000302541
0.00032096
0.000266235
0.000140229
8.3861e-05
5.9975e-05
4.67058e-05
3.43825e-05
2.6076e-05
2.32688e-05
2.28058e-05
2.32082e-05
2.40726e-05
2.53057e-05
2.67407e-05
2.92149e-05
3.25091e-05
3.56234e-05
4.00138e-05
4.39915e-05
4.57288e-05
4.63474e-05
4.61927e-05
4.58058e-05
4.46866e-05
4.32762e-05
4.2276e-05
4.1488e-05
4.09183e-05
4.0676e-05
4.04103e-05
4.0487e-05
4.04993e-05
3.98083e-05
3.83297e-05
3.68737e-05
3.69142e-05
3.74264e-05
3.82841e-05
3.88394e-05
3.94755e-05
4.03763e-05
4.21661e-05
4.71133e-05
5.40507e-05
6.06067e-05
7.00627e-05
9.99711e-05
0.000121732
0.000126577
0.000126965
0.000126799
0.00010994
8.84954e-05
7.66513e-05
6.83253e-05
6.13737e-05
5.71266e-05
5.34574e-05
5.15419e-05
5.06786e-05
5.03865e-05
5.02287e-05
5.02478e-05
5.01677e-05
5.01256e-05
5.02195e-05
5.04521e-05
5.07995e-05
5.1338e-05
5.20205e-05
5.29272e-05
5.38056e-05
5.48158e-05
5.57482e-05
5.64562e-05
5.74813e-05
5.84999e-05
5.98173e-05
6.07728e-05
6.16324e-05
6.21204e-05
6.24482e-05
6.2687e-05
6.21221e-05
6.08861e-05
5.95541e-05
5.69494e-05
5.56244e-05
5.44919e-05
5.40844e-05
5.44172e-05
5.49721e-05
5.60759e-05
5.71365e-05
5.69854e-05
5.69839e-05
5.73295e-05
5.83131e-05
5.88386e-05
5.91839e-05
6.02625e-05
6.13052e-05
6.32715e-05
6.45977e-05
6.63121e-05
6.85084e-05
7.05108e-05
7.21001e-05
7.56528e-05
8.14301e-05
8.39861e-05
8.61222e-05
9.30915e-05
0.000103146
0.000109728
0.000114795
0.00011872
0.00012348
0.000126944
0.000130137
0.000129802
0.00012599
0.000128424
0.000129133
0.000126124
0.000126094
0.000128077
0.000128696
0.000119661
0.000112594
0.000114474
0.000113036
0.000108424
0.000110577
0.000108679
0.000118069
0.000112915
0.000116762
0.000110826
0.000109018
0.000105181
0.000117524
0.000118928
0.000115152
0.000121281
0.000122726
0.00012611
0.000139024
0.000145591
0.000144441
0.000138536
0.000144103
0.000168121
0.000211841
0.00026068
0.000268715
0.000257702
0.000249291
0.000230402
0.000228214
0.000224587
0.00022178
0.00021949
0.000216118
0.000221983
0.000210976
0.000217144
0.000220153
0.000224888
0.000229334
0.000248068
0.000300944
0.000331993
0.00033943
0.000318716
0.000306067
0.000308117
0.000304645
0.000290677
0.000293722
0.000312776
0.000298012
0.000153329
8.88262e-05
5.93552e-05
4.05729e-05
2.79742e-05
2.32415e-05
2.23353e-05
2.26263e-05
2.33403e-05
2.45382e-05
2.60662e-05
2.83524e-05
3.24093e-05
3.68003e-05
4.19145e-05
4.53398e-05
4.65868e-05
4.69532e-05
4.68309e-05
4.5991e-05
4.41062e-05
4.20113e-05
3.99908e-05
3.87001e-05
3.79087e-05
3.77874e-05
3.81045e-05
3.82857e-05
3.91636e-05
3.95726e-05
3.97788e-05
3.87693e-05
3.7212e-05
3.70638e-05
3.78096e-05
3.85824e-05
3.91814e-05
3.98798e-05
4.0943e-05
4.36378e-05
4.97906e-05
5.81235e-05
8.06893e-05
0.000106025
0.000120011
0.000123285
0.00012253
0.000118294
0.000102813
8.33699e-05
6.99925e-05
6.17782e-05
5.57479e-05
5.18765e-05
4.97439e-05
4.84963e-05
4.82915e-05
4.81821e-05
4.80156e-05
4.79784e-05
4.7813e-05
4.76533e-05
4.78102e-05
4.81206e-05
4.87131e-05
4.93767e-05
5.02158e-05
5.10388e-05
5.20468e-05
5.31686e-05
5.41872e-05
5.50988e-05
5.58151e-05
5.66439e-05
5.72959e-05
5.77388e-05
5.82618e-05
5.90509e-05
5.97673e-05
6.06016e-05
6.08944e-05
6.10474e-05
6.00755e-05
5.87274e-05
5.53902e-05
5.3043e-05
5.11998e-05
4.98488e-05
4.92675e-05
4.94206e-05
4.96987e-05
5.05502e-05
5.13982e-05
5.12923e-05
5.13041e-05
5.20332e-05
5.27368e-05
5.25767e-05
5.31578e-05
5.36968e-05
5.47861e-05
5.53554e-05
5.62278e-05
5.74908e-05
5.88714e-05
5.97644e-05
6.13794e-05
6.55749e-05
6.95512e-05
7.12124e-05
7.36034e-05
8.17055e-05
8.91714e-05
9.61754e-05
0.000104223
0.000108597
0.000114514
0.000119957
0.000121574
0.000124852
0.000127137
0.000122728
0.00012103
0.000123342
0.000118213
0.000115289
0.000109717
0.00010587
0.000105769
0.000108313
0.000103488
9.65279e-05
9.59761e-05
0.000106368
0.000103634
0.000106751
0.000101572
0.000102732
0.000101105
0.000109265
0.000112305
0.000107586
0.000108821
0.00011488
0.000125483
0.000140092
0.000146094
0.00014378
0.000136716
0.000132201
0.00015062
0.000197378
0.000245512
0.000259365
0.000247397
0.000239405
0.000220126
0.000214856
0.000210552
0.000209011
0.000204831
0.000199946
0.000205632
0.000198319
0.000209154
0.000205911
0.000215141
0.000224032
0.000230804
0.000262244
0.000309239
0.00032699
0.000314559
0.000296722
0.000311359
0.000301351
0.000292287
0.000300533
0.000309532
0.00032717
0.000164819
9.1684e-05
5.74485e-05
3.54033e-05
2.50056e-05
2.22674e-05
2.22106e-05
2.28148e-05
2.39771e-05
2.56394e-05
2.79412e-05
3.14129e-05
3.57569e-05
4.15675e-05
4.58772e-05
4.70224e-05
4.71087e-05
4.6342e-05
4.44916e-05
4.15707e-05
3.9061e-05
3.70658e-05
3.56903e-05
3.51402e-05
3.51693e-05
3.56353e-05
3.60362e-05
3.62135e-05
3.74041e-05
3.86312e-05
3.91121e-05
3.85398e-05
3.76219e-05
3.75368e-05
3.83882e-05
3.94268e-05
4.04724e-05
4.17801e-05
4.39951e-05
4.90327e-05
6.30951e-05
8.82283e-05
0.000105984
0.000115087
0.00011747
0.000115311
0.000107743
9.48882e-05
7.82212e-05
6.49621e-05
5.69926e-05
5.19271e-05
4.88139e-05
4.72663e-05
4.67092e-05
4.67128e-05
4.66673e-05
4.65805e-05
4.63661e-05
4.62047e-05
4.61454e-05
4.64371e-05
4.69533e-05
4.76161e-05
4.84894e-05
4.92634e-05
5.02394e-05
5.12814e-05
5.2229e-05
5.33261e-05
5.43285e-05
5.52636e-05
5.60037e-05
5.66947e-05
5.72898e-05
5.76951e-05
5.81086e-05
5.79454e-05
5.77778e-05
5.79968e-05
5.82895e-05
5.93231e-05
5.9233e-05
5.83601e-05
5.52586e-05
5.20103e-05
4.97532e-05
4.82738e-05
4.70203e-05
4.68845e-05
4.70483e-05
4.7411e-05
4.82852e-05
4.86989e-05
4.86155e-05
4.8936e-05
4.98971e-05
4.93683e-05
4.94904e-05
5.01249e-05
5.02612e-05
5.05339e-05
5.09216e-05
5.18038e-05
5.23001e-05
5.29004e-05
5.39352e-05
5.63451e-05
5.80049e-05
6.0058e-05
6.20503e-05
6.64113e-05
7.04026e-05
7.39241e-05
8.14912e-05
8.64941e-05
9.22071e-05
9.83084e-05
0.000104983
0.00010844
0.000110556
0.000110982
0.000111032
0.000107409
9.79833e-05
9.90175e-05
9.99608e-05
9.46555e-05
8.83791e-05
9.03209e-05
9.31979e-05
9.23446e-05
8.85057e-05
9.46878e-05
9.55783e-05
0.000100087
9.63313e-05
9.60226e-05
0.000100077
0.000105635
0.000113388
0.000108591
0.000106735
0.00011443
0.000127049
0.000137473
0.000138731
0.000137245
0.00013158
0.000126962
0.000137465
0.000180636
0.000227122
0.000247046
0.000238625
0.000229209
0.000213132
0.000204063
0.000196687
0.000195457
0.000190508
0.000189053
0.000190758
0.000186527
0.000202374
0.000198347
0.000207244
0.000225548
0.000217748
0.000217183
0.000277844
0.000313112
0.000307451
0.000287199
0.000307547
0.000300996
0.000301255
0.000313264
0.0003088
0.000352894
0.000173939
9.23986e-05
5.37174e-05
3.21509e-05
2.35021e-05
2.20818e-05
2.24298e-05
2.3724e-05
2.54317e-05
2.73127e-05
2.99666e-05
3.39921e-05
4.03715e-05
4.57995e-05
4.73015e-05
4.71832e-05
4.5392e-05
4.18458e-05
3.9568e-05
3.77778e-05
3.59817e-05
3.4455e-05
3.37037e-05
3.36208e-05
3.39189e-05
3.43515e-05
3.47901e-05
3.52688e-05
3.61785e-05
3.71287e-05
3.80557e-05
3.80523e-05
3.76436e-05
3.81593e-05
4.00201e-05
4.15446e-05
4.36455e-05
4.6068e-05
5.24058e-05
7.18838e-05
9.04539e-05
0.000101882
0.000107678
0.00010927
0.000104195
9.61375e-05
8.60182e-05
7.28001e-05
6.09542e-05
5.32155e-05
4.88702e-05
4.64913e-05
4.54745e-05
4.51864e-05
4.52802e-05
4.54581e-05
4.54256e-05
4.5312e-05
4.52346e-05
4.54022e-05
4.58201e-05
4.63576e-05
4.70052e-05
4.77253e-05
4.85826e-05
4.95198e-05
5.04829e-05
5.1513e-05
5.23869e-05
5.33955e-05
5.42043e-05
5.49375e-05
5.56443e-05
5.63175e-05
5.67301e-05
5.70547e-05
5.75174e-05
5.74253e-05
5.71561e-05
5.67272e-05
5.62793e-05
5.57571e-05
5.65517e-05
5.68674e-05
5.54026e-05
5.19371e-05
4.92248e-05
4.7745e-05
4.61067e-05
4.56353e-05
4.56591e-05
4.57963e-05
4.62608e-05
4.70963e-05
4.71384e-05
4.737e-05
4.83661e-05
4.81136e-05
4.81419e-05
4.86479e-05
4.84976e-05
4.87844e-05
4.88189e-05
4.92358e-05
4.95567e-05
5.02579e-05
5.04125e-05
5.17511e-05
5.30078e-05
5.40264e-05
5.53044e-05
5.78905e-05
6.02464e-05
6.26029e-05
6.64974e-05
7.04901e-05
7.24158e-05
7.50489e-05
8.03007e-05
8.16786e-05
8.89933e-05
9.06965e-05
8.87166e-05
8.85952e-05
8.51613e-05
8.43514e-05
8.48667e-05
8.36595e-05
8.1187e-05
8.12491e-05
8.49386e-05
8.81975e-05
8.58713e-05
8.76651e-05
8.91894e-05
9.56406e-05
9.25452e-05
9.43449e-05
9.90267e-05
0.000103359
0.000108817
0.000104992
0.00010666
0.000116873
0.000131718
0.000137604
0.000133024
0.000131275
0.000126059
0.000121865
0.000127429
0.00016746
0.00020878
0.000232178
0.000230057
0.000220725
0.000209374
0.000196595
0.00018546
0.000186336
0.000179731
0.000182142
0.00018126
0.000179943
0.000197894
0.00019602
0.000205344
0.000224946
0.000213072
0.000201501
0.000261528
0.000303908
0.000297608
0.000281513
0.000299985
0.000300507
0.00030466
0.00031839
0.000317842
0.000374907
0.000180278
9.17437e-05
5.00749e-05
2.906e-05
2.29309e-05
2.22436e-05
2.33146e-05
2.58951e-05
2.78652e-05
2.99215e-05
3.3783e-05
3.93844e-05
4.52715e-05
4.74936e-05
4.76074e-05
4.51344e-05
4.10501e-05
3.93133e-05
3.77363e-05
3.60817e-05
3.46881e-05
3.38537e-05
3.34427e-05
3.33952e-05
3.36624e-05
3.40293e-05
3.44451e-05
3.51027e-05
3.60143e-05
3.67383e-05
3.69146e-05
3.6614e-05
3.77008e-05
3.9977e-05
4.23194e-05
4.52387e-05
4.90222e-05
5.88857e-05
7.66949e-05
8.85627e-05
9.64319e-05
0.000100084
9.9235e-05
9.33035e-05
8.60612e-05
7.81744e-05
6.78081e-05
5.7795e-05
5.05004e-05
4.64432e-05
4.47673e-05
4.39731e-05
4.38759e-05
4.4077e-05
4.44485e-05
4.45205e-05
4.45894e-05
4.47385e-05
4.50441e-05
4.54764e-05
4.60084e-05
4.6639e-05
4.75274e-05
4.85826e-05
4.94702e-05
5.04986e-05
5.13486e-05
5.21393e-05
5.27952e-05
5.35473e-05
5.42207e-05
5.46167e-05
5.49325e-05
5.5214e-05
5.52382e-05
5.52777e-05
5.56479e-05
5.59912e-05
5.59593e-05
5.57733e-05
5.52911e-05
5.43503e-05
5.34445e-05
5.41311e-05
5.39509e-05
5.22833e-05
4.92708e-05
4.81196e-05
4.65818e-05
4.55722e-05
4.57714e-05
4.54528e-05
4.58279e-05
4.66592e-05
4.65976e-05
4.69118e-05
4.80141e-05
4.78137e-05
4.77626e-05
4.83702e-05
4.83629e-05
4.83174e-05
4.83115e-05
4.86987e-05
4.89839e-05
4.91805e-05
4.9521e-05
5.01959e-05
5.10249e-05