/*--------------------------------*- C++ -*----------------------------------*\
| =========                 |                                                 |
| \\      /  F ield         | OpenFOAM: The Open Source CFD Toolbox           |
|  \\    /   O peration     | Version:  dev                                   |
|   \\  /    A nd           | Web:      http://www.openfoam.org               |
|    \\/     M anipulation  |                                                 |
\*---------------------------------------------------------------------------*/
FoamFile
{
    version     2.0;
    format      ascii;
    class       volScalarField;
    object      p;
    location    "9.121";
}
// * * * * * * * * * * * * * * * * * * * * * * * * * * * * * * * * * * * * * //

dimensions      [1 -1 -2 0 0 0 0];

internalField   nonuniform List<scalar> 
12225
(
101206
101084
100905
100684
100421
100135
99825
99523.8
99203.8
98918.1
98584
98349.9
98024.4
97790
97514.3
97205.4
96828
96423.7
101207
101087
100910
100689
100426
100141
99830
99529.9
99209.1
98924.7
98589.7
98351.2
98038.9
97789.1
97512.3
97202.8
96832
96533.1
101214
101096
100921
100700
100439
100153
99845.3
99542.2
99226.4
98932.6
98616.3
98355.7
98060.9
97798.3
97528
97213.4
96864.2
96582.7
101229
101114
100941
100721
100460
100175
99869.9
99565.6
99253.3
98955.2
98649.8
98377.2
98091.9
97825.5
97548.5
97243.4
96909.4
96630.8
101254
101144
100973
100753
100494
100210
99907.2
99602.7
99293.3
98993.6
98694.9
98416.3
98136.4
97866.8
97591.6
97299.6
97002.1
96734.7
101292
101188
101019
100800
100543
100261
99960
99656.8
99349.4
99050.7
98755.7
98476.1
98200.2
97933.9
97666.8
97398.4
97132.9
96885.2
101350
101250
101082
100866
100611
100331
100033
99731.7
99426.5
99130.2
98838.2
98560
98288.4
98026.1
97770.6
97519.8
97274.8
97045.3
101421
101322
101156
100942
100689
100412
100116
99817.6
99515.8
99221.2
98932.9
98656.4
98389.3
98130.9
97881.7
97638.3
97407.2
97187.8
101498
101400
101236
101025
100774
100500
100207
99910.7
99612.4
99319.7
99034.6
98760.4
98496.6
98242.1
97997.1
97761.8
97537.9
97326.3
101600
101504
101342
101134
100887
100616
100328
100034
99739.5
99449.6
99168.3
98896.6
98636.4
98385.9
98146.5
97917.7
97700.9
97497.7
101736
101642
101484
101279
101037
100770
100487
100197
99907.1
99621.2
99343.8
99075.7
98819.3
98573.1
98339.3
98116.1
97905.9
97709
101916
101824
101671
101471
101235
100972
100696
100412
100128
99846.6
99574.2
99310.4
99058.1
98816.7
98587.9
98370.2
98165.3
97973.4
102156
102065
101916
101722
101493
101238
100970
100693
100417
100142
99875.1
99616.7
99369.5
99132.8
98908.7
98695.7
98495.1
98306.8
102463
102376
102234
102047
101828
101585
101326
101060
100792
100525
100266
100014
99772.5
99540.9
99320.9
99112.1
98914.8
98729
102851
102770
102638
102464
102258
102028
101784
101530
101274
101019
100768
100524
100289
100064
99847.7
99642.3
99447.4
99263.1
103315
103257
103143
102986
102799
102588
102361
102125
101885
101644
101405
101171
100944
100725
100514
100312
100119
99935.5
103894
103851
103756
103623
103460
103274
103072
102860
102640
102418
102195
101975
101758
101547
101342
101145
100954
100772
104522
104490
104420
104316
104183
104029
103857
103673
103479
103280
103077
102874
102671
102471
102275
102083
101897
101717
105061
105062
105021
104948
104847
104724
104583
104429
104262
104088
103907
103722
103535
103348
103161
102977
102797
102622
105510
105532
105515
105468
105396
105303
105192
105064
104923
104771
104611
104444
104272
104098
103922
103747
103574
103403
105891
105911
105911
105886
105839
105772
105685
105582
105463
105332
105190
105040
104883
104721
104555
104389
104222
104056
106178
106207
106220
106214
106187
106140
106075
105992
105892
105779
105653
105518
105373
105222
105066
104906
104745
104584
106396
106433
106457
106465
106454
106423
106375
106308
106224
106126
106013
105891
105757
105614
105466
105312
105157
105000
106558
106603
106635
106653
106653
106635
106599
106546
106474
106387
106285
106173
106048
105912
105770
105621
105470
105316
106672
106727
106765
106790
106798
106790
106763
106719
106657
106578
106485
106381
106261
106131
105993
105849
105701
105550
106759
106815
106855
106885
106900
106898
106878
106841
106786
106714
106626
106527
106412
106286
106152
106011
105865
105716
106819
106873
106915
106948
106967
106970
106955
106922
106873
106805
106722
106625
106513
106391
106259
106120
105976
105829
106862
106910
106952
106987
107009
107015
107003
106973
106929
106863
106782
106686
106577
106457
106327
106189
106047
105900
106884
106929
106971
107008
107032
107040
107030
107002
106958
106894
106814
106720
106612
106493
106364
106228
106086
105940
106895
106936
106979
107017
107041
107049
107040
107013
106969
106907
106828
106734
106627
106508
106379
106243
106102
105956
93662.9
93666.4
93673.6
93684.7
93699.9
93719
93741.7
93767.7
93796.7
93828.7
93863.7
93901.8
93943.1
93987.7
94035.7
94087.2
94142.2
94200.6
94262.6
94328
94396.6
94468.5
94543.5
94621.7
94702.9
94787.2
94874.6
94965.2
95059.3
95156.4
95256.9
95360.7
95467.6
95578.1
95692
95808.4
95928
96051
96176.2
96304.5
96436.1
96571.3
96710.6
96854.3
97002.5
97154.8
97309.6
97466.8
97626.2
97787
97949.7
98115.5
98285.7
98456.3
98629.5
98804.4
98982.1
99165.9
99353.6
99544.7
99738.5
99934.7
100133
100331
100530
100729
100926
101123
101317
101508
101693
101873
102045
102208
102361
102502
102629
102742
102839
102919
102980
103022
103045
103048
103032
102995
102937
102863
102773
102668
102550
102420
102283
102139
101992
101843
101696
101552
101414
101283
101159
101045
100939
100842
100754
100674
100604
100542
100490
100445
100407
100375
100350
100331
100317
100308
100303
100302
100306
100317
100332
100358
100395
100443
100503
100576
100663
100762
100875
101001
101140
101292
101455
101632
101814
102017
102221
102460
102684
102932
103168
103421
103691
103977
104286
104624
104979
105342
105696
106036
106360
106680
107014
107379
107779
108208
108640
109057
109432
109762
110016
110196
110289
110277
110211
109987
109670
109281
108830
108366
107894
107451
107103
106962
106990
107122
107335
107632
107984
108372
93686.3
93689.8
93697
93708.2
93723.4
93742.3
93764.5
93789.7
93817.6
93848.5
93882.3
93919.2
93959.3
94002.8
94049.7
94100
94153.8
94211.2
94272
94336.2
94403.7
94474.5
94548.4
94625.5
94705.6
94788.7
94874.8
94963.9
95057.9
95154.2
95252.8
95356
95461.3
95569.7
95685.3
95799.4
95918.1
96045
96169.9
96295.3
96425.7
96560.7
96700.2
96843.6
96991.7
97144
97298.6
97455.3
97614.5
97776.4
97941.7
98106.9
98272.5
98442.5
98618.6
98797.7
98975.5
99156.6
99342.6
99534.2
99729.9
99927.8
100127
100326
100527
100726
100926
101124
101319
101511
101698
101879
102053
102218
102372
102515
102644
102759
102857
102939
103002
103045
103070
103075
103060
103025
102970
102898
102810
102707
102591
102464
102328
102186
102040
101893
101746
101602
101464
101332
101207
101091
100983
100884
100793
100711
100637
100572
100516
100468
100427
100393
100364
100342
100325
100313
100306
100302
100305
100314
100328
100354
100391
100440
100502
100577
100665
100767
100883
101012
101154
101309
101476
101658
101843
102052
102261
102507
102735
102987
103229
103489
103766
104059
104374
104718
105081
105454
105819
106169
106499
106822
107158
107531
107938
108375
108811
109231
109603
109932
110182
110359
110448
110429
110366
110138
109821
109424
108968
108495
108012
107559
107191
107040
107061
107182
107381
107669
108012
108394
93731.6
93735.4
93742.8
93753.8
93768.3
93785.9
93806.1
93829.2
93855
93883.7
93915.5
93950.3
93988.4
94029.7
94074.4
94122.6
94174.3
94229.5
94288.2
94350.4
94415.8
94484.5
94556.4
94631.5
94709.6
94790.7
94874.9
94962.3
95052.8
95147.2
95244.3
95347.1
95451.2
95557.9
95669.5
95782.7
95899.3
96020.7
96143.1
96275.2
96407.5
96540.2
96677
96820.2
96968.7
97122.3
97277
97435.8
97594.7
97756
97921.5
98093.3
98257
98423.6
98596.4
98775.1
98957.5
99142.9
99331.3
99523.6
99719.3
99917.7
100118
100319
100521
100724
100925
101126
101324
101518
101708
101892
102069
102237
102395
102541
102674
102792
102894
102978
103045
103091
103119
103127
103115
103084
103034
102966
102882
102783
102671
102548
102416
102277
102134
101989
101844
101701
101563
101430
101303
101184
101073
100970
100875
100787
100707
100635
100572
100517
100469
100428
100393
100364
100342
100324
100310
100301
100300
100306
100322
100348
100385
100436
100500
100579
100671
100777
100899
101033
101181
101344
101519
101709
101902
102120
102339
102594
102833
103089
103345
103622
103911
104210
104534
104881
105250
105641
106034
106414
106768
107100
107443
107828
108250
108698
109138
109561
109929
110252
110494
110666
110748
110719
110646
110421
110117
109720
109250
108766
108259
107783
107378
107204
107208
107304
107478
107744
108068
108438
93795
93799
93806.3
93816.5
93829.3
93844.6
93862.4
93882.9
93906.2
93932.4
93961.6
93993.7
94029.1
94067.6
94109.5
94154.9
94203.7
94256
94311.7
94370.8
94433.2
94498.9
94567.6
94639.5
94714.5
94792.6
94873.8
94958.3
95046
95137.6
95231.9
95330.9
95435.1
95540
95649.6
95760.8
95876.8
95996.4
96119.9
96248.8
96379.4
96512.5
96648.9
96789
96934.7
97092.6
97241.6
97412.7
97569.9
97731.8
97902.2
98066.3
98232.9
98403.1
98576.8
98754.9
98937.6
99124.6
99315.1
99509
99706
99905.7
100108
100312
100517
100722
100927
101131
101332
101531
101724
101913
102094
102266
102428
102579
102716
102839
102945
103034
103106
103158
103190
103202
103195
103169
103124
103062
102984
102890
102783
102666
102538
102404
102265
102124
101981
101840
101701
101567
101438
101315
101199
101091
100990
100895
100809
100729
100656
100590
100533
100482
100439
100401
100369
100343
100323
100308
100302
100302
100318
100343
100381
100434
100500
100583
100681
100794
100924
101066
101224
101397
101583
101789
101992
102225
102458
102715
102970
103224
103503
103800
104125
104437
104764
105108
105474
105879
106302
106727
107127
107492
107851
108252
108690
109149
109592
110014
110377
110688
110920
111075
111146
111107
111007
110784
110494
110105
109630
109150
108625
108109
107658
107441
107418
107475
107617
107852
108151
108504
93872.1
93876
93882.7
93891.7
93902.7
93915.9
93931.3
93949.3
93969.9
93993.2
94019.2
94048.2
94080.1
94115.3
94153.8
94195.6
94240.7
94289.2
94341
94396
94454.2
94515.6
94580
94647.7
94718.6
94792.6
94870
94950.8
95034.7
95123.3
95214.3
95312.8
95411.2
95514.4
95623.6
95730.4
95847.1
95965.1
96087.5
96214.6
96345
96479.3
96617.2
96758.1
96902.9
97053.5
97209.3
97372.1
97534
97698
97865.7
98032.5
98201.5
98373.9
98550
98730
98914.4
99103
99295.4
99491.5
99690.9
99893.2
100098
100306
100514
100723
100932
101140
101346
101549
101748
101941
102127
102305
102472
102629
102771
102900
103013
103108
103186
103245
103284
103303
103302
103282
103243
103187
103115
103028
102928
102816
102694
102565
102430
102292
102152
102012
101873
101737
101606
101479
101357
101242
101132
101030
100935
100848
100766
100690
100620
100557
100500
100451
100409
100373
100344
100324
100314
100309
100320
100343
100381
100435
100505
100593
100697
100818
100959
101113
101282
101466
101664
101889
102107
102358
102609
102864
103137
103398
103694
104003
104364
104714
105061
105420
105787
106194
106631
107088
107537
107955
108349
108774
109227
109695
110138
110558
110923
111215
111438
111573
111625
111574
111442
111209
110921
110533
110060
109598
109079
108515
108021
107750
107692
107688
107791
107989
108258
108588
93958.7
93962.1
93968
93975.6
93984.9
93996
94009
94024.1
94041.7
94061.7
94084.3
94109.7
94138.1
94169.4
94203.9
94241.5
94282.3
94326
94372.9
94422.7
94475.6
94531.7
94591
94653.6
94719.7
94789.3
94862.4
94939.2
95019.7
95104
95192.5
95285.8
95382.7
95486.4
95588.9
95695.9
95808.6
95925.2
96047.7
96173.5
96303.5
96438
96576
96716.9
96861.9
97011.7
97167
97327.2
97489.1
97654.7
97822.3
97991.9
98164.2
98339.5
98518.6
98701.5
98888.4
99079.5
99274.8
99473.8
99676.5
99882.5
100091
100303
100515
100729
100942
101154
101366
101574
101778
101977
102169
102352
102526
102690
102839
102975
103094
103198
103283
103351
103398
103426
103434
103421
103391
103342
103278
103198
103104
102999
102883
102758
102628
102493
102355
102216
102077
101939
101804
101672
101545
101422
101304
101192
101088
100990
100897
100809
100728
100653
100583
100519
100462
100413
100375
100348
100335
100323
100329
100352
100390
100446
100519
100612
100724
100853
101005
101173
101352
101550
101759
102001
102237
102499
102768
103035
103321
103616
103931
104253
104627
105006
105377
105770
106174
106606
107038
107501
107981
108452
108895
109352
109819
110297
110745
111153
111522
111802
112007
112133
112163
112099
111938
111685
111388
110988
110512
110073
109579
108975
108451
108116
108015
107941
107995
108152
108386
108686
94050.5
94053.3
94058.1
94064.2
94071.6
94080.4
94091
94103.4
94117.9
94134.6
94153.9
94175.8
94200.1
94227.1
94256.9
94289.5
94324.8
94363
94404
94448
94494.9
94545
94598.6
94655.7
94716.4
94781.1
94849.5
94922.1
94999.2
95080.1
95165.8
95255.7
95350.7
95450.8
95551.6
95656.1
95766
95881.1
96000.5
96127.3
96257
96391.3
96530
96671.2
96815.6
96963.9
97117.4
97278.1
97441.3
97608.3
97777.9
97950.3
98125.6
98304.3
98486.5
98672.5
98862.7
99057.3
99256
99459.1
99665.9
99876
100089
100304
100521
100739
100957
101175
101392
101605
101815
102020
102218
102409
102590
102760
102917
103061
103189
103301
103395
103471
103528
103566
103584
103582
103561
103522
103467
103396
103311
103213
103104
102985
102858
102725
102589
102450
102310
102170
102031
101895
101760
101630
101503
101383
101268
101157
101051
100949
100854
100767
100685
100607
100535
100472
100421
100381
100349
100344
100350
100372
100411
100470
100546
100645
100768
100905
101065
101245
101437
101648
101873
102128
102384
102652
102934
103216
103519
103841
104192
104540
104918
105308
105698
106120
106563
107030
107476
107944
108437
108955
109450
109947
110428
110908
111368
111762
112124
112404
112588
112705
112714
112645
112459
112184
111873
111457
110970
110541
110075
109460
108920
108538
108351
108222
108228
108336
108528
108796
94143.7
94145.8
94149.4
94154
94159.5
94166.3
94174.5
94184.2
94195.7
94209.2
94224.9
94242.5
94262.2
94284.3
94308.8
94335.8
94365.2
94397.4
94432.1
94469.8
94510.3
94554.3
94601.9
94653.3
94708.4
94767.7
94831.5
94900.3
94974
95051.9
95134.5
95224.1
95315.4
95411.3
95510.8
95613.8
95721.9
95834.7
95952.9
96077.5
96206.8
96345.7
96483.3
96622.7
96766.5
96915.7
97070.6
97231.4
97396.5
97565.3
97737.1
97912.1
98090.2
98271.7
98457.3
98647
98840.9
99039.6
99242.9
99450
99660.8
99875.1
100092
100312
100533
100756
100979
101203
101425
101644
101859
102071
102275
102472
102661
102838
103004
103156
103294
103415
103518
103604
103671
103719
103747
103756
103746
103718
103674
103613
103538
103449
103348
103236
103115
102986
102851
102712
102571
102428
102286
102144
102004
101866
101731
101600
101472
101347
101227
101111
101001
100899
100804
100713
100630
100556
100495
100443
100406
100391
100392
100411
100450
100511
100591
100695
100825
100969
101136
101330
101536
101757
101996
102262
102541
102819
103120
103417
103737
104069
104443
104807
105190
105589
106012
106466
106937
107429
107885
108369
108866
109425
109972
110513
111019
111488
111957
112343
112691
112973
113141
113249
113236
113164
112965
112674
112337
111917
111426
110971
110512
109931
109400
108969
108701
108521
108482
108534
108684
108917
94235.2
94236.6
94239.3
94242.4
94246.2
94251
94256.8
94263.8
94272.3
94282.5
94294
94307.2
94322.3
94339.4
94358.5
94379.7
94403.2
94428.9
94457.2
94488.5
94523.2
94561.4
94603.1
94648.6
94698.2
94752.3
94811.9
94877.1
94947.5
95022.7
95102.9
95187.9
95277.5
95371.7
95469.7
95571
95676.6
95787.8
95906.6
96032.2
96163.5
96297.8
96433.8
96574.5
96720.5
96872.4
97029.6
97191.9
97358.4
97528.8
97702.6
97879.9
98060.7
98245.5
98434.6
98628.3
98826.9
99029.9
99237.1
99448.1
99663.2
99881.5
100103
100327
100554
100781
101010
101239
101465
101690
101911
102128
102339
102542
102737
102923
103097
103258
103406
103537
103651
103747
103825
103883
103922
103942
103943
103927
103894
103844
103779
103700
103608
103504
103390
103265
103133
102996
102855
102711
102565
102418
102271
102125
101980
101837
101696
101557
101423
101293
101168
101050
100939
100835
100740
100658
100590
100523
100482
100459
100455
100472
100509
100570
100654
100760
100894
101046
101220
101421
101640
101872
102123
102396
102691
102984
103306
103617
103942
104296
104676
105063
105446
105848
106306
106786
107263
107767
108231
108740
109242
109829
110425
111003
111551
112009
112470
112855
113185
113463
113626
113726
113702
113621
113415
113125
112755
112338
111862
111352
110868
110350
109853
109386
109044
108824
108742
108747
108856
109039
94322.5
94323.5
94325.1
94326.9
94329.2
94332
94335.4
94339.9
94345.3
94351.7
94359.3
94368.3
94378.7
94390.6
94404.3
94419.8
94437.4
94457.2
94479.8
94505.9
94535.3
94568.1
94604.2
94644.4
94689
94738.9
94794.4
94855.6
94922.4
94994.4
95071.2
95153.6
95241.6
95333.6
95428.6
95527.8
95632.8
95746.3
95866.7
95992
96120.7
96253.1
96390.9
96534.2
96683.2
96837.9
96997.2
97161.3
97329.2
97501.1
97676.9
97856.7
98040.5
98228.8
98422.1
98620.1
98822.5
99029.3
99240.2
99455.1
99674.1
99897
100123
100353
100585
100817
101051
101284
101516
101746
101973
102196
102413
102624
102827
103020
103201
103371
103527
103668
103792
103900
103987
104057
104107
104138
104151
104146
104124
104086
104032
103963
103881
103785
103678
103559
103431
103297
103156
103010
102861
102709
102555
102401
102246
102091
101937
101785
101637
101493
101353
101219
101092
100973
100865
100774
100680
100616
100571
100541
100534
100549
100585
100644
100729
100836
100974
101133
101312
101516
101744
101987
102256
102530
102828
103137
103467
103781
104116
104493
104873
105275
105666
106084
106563
107049
107521
108024
108505
109031
109545
110137
110785
111387
111976
112441
112885
113264
113575
113844
114013
114103
114084
113990
113782
113506
113110
112699
112248
111699
111170
110721
110255
109765
109361
109113
109000
108963
109032
109162
94403.5
94404
94404.9
94405.5
94406.3
94407.2
94408.5
94410
94412.1
94414.9
94418.6
94423.3
94429.2
94436.2
94444.8
94454.8
94466.7
94481.4
94499.2
94520.3
94544.7
94572.7
94604.7
94641
94681.7
94727.5
94778.9
94836.1
94899.2
94968.1
95042.9
95123
95207.2
95295.4
95388.6
95488.5
95596.7
95711.9
95832.2
95955.9
96084.4
96218.3
96358.3
96504.2
96655.9
96812.8
96974.3
97140.1
97310.1
97484.2
97662.3
97844.9
98032.3
98224.5
98421.7
98623.5
98829.6
99039.8
99254.4
99473.2
99696.4
99923.9
100156
100390
100626
100864
101103
101341
101578
101813
102046
102275
102499
102716
102927
103126
103315
103492
103657
103807
103942
104060
104158
104238
104299
104342
104367
104373
104363
104337
104294
104236
104163
104075
103976
103863
103740
103608
103468
103321
103169
103013
102853
102690
102525
102359
102193
102029
101868
101709
101555
101407
101263
101131
101008
100890
100803
100730
100677
100642
100627
100639
100674
100731
100815
100923
101061
101222
101408
101615
101847
102095
102372
102648
102954
103272
103599
103917
104267
104653
105022
105422
105817
106254
106748
107222
107700
108194
108692
109225
109756
110331
111019
111647
112260
112747
113174
113544
113842
114097
114277
114355
114349
114244
114044
113785
113381
112984
112547
112001
111462
111065
110586
110084
109649
109382
109228
109158
109174
109271
94477.1
94477
94477
94476.5
94475.9
94475.1
94474.1
94473.2
94472.5
94472
94472.1
94472.9
94474.3
94476.6
94480.1
94484.7
94491.4
94501.1
94514
94530.4
94550.5
94574.7
94603.1
94635.5
94672.6
94715.1
94763.3
94817.5
94877.7
94943.7
95015
95091.2
95173
95261.5
95357.2
95459.9
95568.9
95683.4
95802.8
95927.2
96057.9
96194.7
96337.3
96485.6
96639.5
96798.3
96961.9
97129.9
97302.2
97479
97660.5
97846.6
98037.9
98233.9
98434.8
98640
98849.6
99063.5
99282.1
99505.2
99732.8
99964.8
100201
100440
100681
100923
101166
101409
101651
101891
102128
102361
102590
102811
103025
103234
103432
103618
103792
103951
104095
104222
104332
104423
104496
104551
104587
104605
104607
104593
104561
104513
104451
104372
104279
104173
104055
103926
103787
103640
103487
103327
103161
102991
102816
102639
102462
102285
102110
101938
101770
101609
101452
101311
101168
101047
100946
100862
100800
100759
100736
100743
100774
100829
100911
101018
101153
101314
101502
101710
101942
102193
102471
102746
103056
103371
103694
104023
104382
104751
105117
105515
105912
106351
106838
107293
107788
108259
108770
109306
109855
110409
111101
111756
112381
112894
113310
113672
113966
114206
114397
114466
114477
114366
114180
113941
113550
113171
112739
112222
111725
111355
110829
110332
109894
109612
109416
109316
109291
109358
94543.4
94542.6
94541.9
94540.3
94538.1
94535.4
94532.5
94529.5
94526.3
94523
94519.6
94516.4
94513.6
94511.7
94510.3
94510.2
94512.4
94517.4
94525.7
94537.7
94553.4
94573.2
94597.4
94626.5
94660.9
94701
94746.8
94798.3
94855.6
94918.8
94988.1
95063.8
95146.8
95237.5
95335.2
95438.9
95547.4
95661.5
95782
95908.9
96042.3
96181.6
96326.7
96477.7
96633.9
96795
96961
97131.7
97307.3
97487.7
97672.6
97862.4
98059.3
98258.6
98462.9
98671.8
98885.1
99102.8
99325.2
99552.4
99784.3
100021
100261
100505
100750
100997
101245
101492
101738
101983
102224
102461
102693
102920
103141
103355
103559
103752
103933
104100
104253
104390
104507
104608
104693
104759
104808
104839
104853
104849
104829
104792
104738
104669
104583
104485
104372
104246
104110
103964
103809
103646
103476
103300
103116
102929
102741
102551
102362
102176
101994
101825
101650
101482
101342
101214
101103
101008
100935
100887
100858
100857
100882
100932
101011
101116
101244
101404
101587
101794
102022
102274
102544
102820
103123
103427
103745
104080
104431
104778
105147
105534
105932
106370
106825
107267
107769
108208
108728
109270
109820
110370
111041
111715
112342
112869
113275
113633
113928
114158
114357
114426
114451
114343
114178
113959
113599
113236
112817
112340
111892
111506
110978
110502
110075
109778
109559
109445
109386
109417
94603.4
94601.9
94600.4
94597.7
94594
94589.6
94584.7
94579.4
94573.4
94567.1
94560.5
94553.8
94547.8
94542
94536.6
94532.6
94530.5
94531.1
94534.9
94542.3
94553.4
94568.7
94589.3
94615.7
94648
94686.4
94730.6
94780.5
94836.6
94899.4
94969.2
95046.3
95130.5
95221.4
95319.3
95423.5
95533.2
95648.9
95771.6
95901.4
96037.6
96179
96326.6
96480.2
96639.2
96803.4
96972.9
97147.4
97326.8
97511.6
97701.2
97895.6
98095.1
98299.1
98507.3
98719.8
98936.9
99158.7
99385.1
99616.2
99852.4
100093
100338
100586
100836
101086
101338
101589
101838
102086
102330
102571
102807
103038
103263
103482
103692
103890
104077
104249
104408
104551
104681
104795
104889
104967
105027
105070
105095
105103
105093
105066
105022
104961
104884
104792
104686
104564
104431
104286
104130
103966
103792
103609
103418
103223
103025
102825
102624
102425
102228
102030
101855
101685
101530
101389
101267
101162
101080
101021
100984
100976
100994
101035
101108
101207
101328
101483
101658
101860
102080
102327
102582
102858
103147
103439
103750
104074
104408
104741
105097
105463
105858
106283
106705
107142
107621
108041
108554
109100
109633
110183
110816
111498
112120
112656
113064
113417
113715
113944
114147
114222
114260
114168
114030
113827
113510
113168
112776
112342
111920
111523
111035
110593
110180
109866
109641
109498
109397
109403
94659.5
94656.8
94654.3
94650.3
94645.3
94639.4
94632.4
94624.5
94616
94607
94597.7
94588.3
94578.5
94568.5
94559.1
94550.5
94544
94540.6
94540.5
94543.9
94551.2
94563.6
94582
94606.6
94637.6
94674.9
94718.3
94767.6
94823.5
94886.9
94958
95036.5
95121.6
95213.2
95311.4
95416.3
95528.1
95646.7
95772.1
95904.1
96042.1
96187.1
96338.1
96495
96657.4
96825.3
96998.8
97177.8
97362.2
97551.5
97745.8
97944.9
98148.4
98356.3
98568.7
98785.5
99006.7
99232.6
99463.4
99698.6
99938.5
100183
100431
100684
100936
101190
101444
101698
101950
102200
102448
102691
102930
103165
103393
103615
103829
104032
104224
104403
104568
104718
104854
104973
105080
105169
105240
105294
105329
105347
105348
105331
105296
105244
105175
105090
104990
104874
104745
104601
104445
104278
104101
103913
103717
103517
103310
103102
102889
102677
102471
102268
102075
101893
101725
101571
101435
101320
101227
101156
101111
101094
101102
101133
101197
101285
101399
101544
101709
101901
102111
102344
102583
102851
103117
103400
103696
104001
104312
104632
104964
105318
105689
106082
106484
106909
107350
107768
108273
108791
109317
109878
110430
111080
111690
112246
112673
113020
113323
113556
113760
113850
113902
113837
113732
113545
113281
112964
112613
112220
111821
111440
110996
110596
110191
109869
109644
109472
109344
109309
94716.9
94712.7
94708.8
94703.2
94696
94687.9
94678.6
94668.3
94657.3
94645.5
94633.1
94620
94606.2
94592.3
94578.2
94564.9
94554
94546.3
94542.4
94542.7
94548.2
94559.3
94576.8
94600.9
94631.5
94668.4
94712
94761.8
94818
94881.6
94953.2
95032.4
95118.9
95212.4
95312.6
95419.8
95534.1
95655.4
95783.8
95918.8
96060.4
96208.1
96362.2
96522.7
96689.2
96861.7
97040
97223.7
97413.2
97607.7
97806.9
98010.6
98219
98431.6
98648.5
98870
99095.7
99325.7
99560.3
99799.3
100042
100290
100541
100792
101050
101307
101564
101819
102074
102326
102575
102821
103063
103300
103531
103755
103971
104177
104373
104556
104726
104883
105026
105153
105267
105364
105444
105508
105553
105581
105590
105582
105556
105513
105452
105374
105280
105169
105044
104903
104746
104577
104396
104203
104009
103802
103589
103374
103154
102933
102715
102503
102297
102101
101921
101755
101605
101479
101374
101290
101234
101206
101201
101220
101272
101346
101451
101580
101733
101909
102108
102317
102545
102792
103036
103304
103574
103858
104147
104442
104748
105077
105418
105780
106164
106562
106982
107398
107896
108334
108876
109455
109957
110557
111132
111682
112105
112452
112754
112996
113201
113312
113381
113351
113285
113120
112908
112624
112321
111977
111620
111259
110844
110488
110093
109776
109556
109370
109252
109201
94780.6
94774.7
94769.8
94762.4
94752.6
94741.3
94728.8
94715.2
94700.7
94685.2
94668.9
94651.5
94633.5
94614.7
94595.4
94577
94560.8
94548.3
94541
94539.6
94544.4
94556
94574.7
94600
94631.2
94668.6
94712.7
94763.6
94821.2
94885.6
94957.4
95037.2
95124.9
95220
95322.8
95433.4
95551.3
95675.8
95807
95945.2
96090.4
96241.8
96399.9
96564.6
96735.6
96913.1
97096.7
97286.1
97480.8
97680.7
97885.4
98094.3
98307.6
98525.3
98747.1
98973
99203
99437
99675.6
99918.2
100164
100415
100669
100923
101180
101438
101695
101952
102208
102462
102713
102961
103204
103443
103675
103899
104116
104323
104521
104707
104880
105041
105189
105323
105442
105547
105634
105705
105759
105795
105813
105814
105797
105762
105708
105638
105550
105444
105322
105184
105028
104861
104681
104489
104290
104081
103862
103639
103412
103181
102953
102730
102512
102304
102112
101932
101770
101630
101512
101415
101345
101303
101282
101289
101325
101385
101474
101585
101724
101881
102060
102246
102460
102675
102906
103143
103385
103646
103908
104169
104442
104741
105052
105378
105735
106108
106511
106919
107363
107744
108279
108824
109324
109922
110450
110963
111364
111722
112023
112276
112479
112619
112707
112719
112689
112561
112397
112155
111899
111614
111306
110963
110556
110249
109870
109567
109352
109162
109066
108985
94858
94849.3
94843.2
94833.7
94821.3
94806.4
94789.6
94771.4
94752.2
94732.1
94711.1
94688.9
94665.2
94640.1
94614.8
94590.5
94569.1
94553
94543.4
94541.4
94547.3
94561
94581.9
94608.6
94640.9
94679.4
94724.2
94775.3
94833.6
94899.3
94972.2
95053
95142.2
95239.5
95344.8
95458.3
95579.9
95708.1
95843.1
95985.2
96134.4
96289.6
96452.2
96621.8
96798.1
96980.8
97169.8
97365
97565.8
97771.3
97981.6
98196.2
98414.6
98637.2
98863.6
99093.8
99328.2
99566.4
99808.9
100056
100305
100556
100811
101066
101323
101580
101838
102096
102353
102609
102862
103110
103353
103590
103821
104044
104259
104466
104663
104849
105024
105188
105339
105478
105602
105711
105805
105883
105944
105987
106014
106022
106013
105985
105939
105875
105793
105693
105575
105441
105290
105125
104946
104754
104552
104339
104115
103886
103651
103412
103175
102941
102712
102493
102287
102095
101919
101766
101633
101521
101437
101376
101338
101332
101348
101391
101460
101554
101671
101809
101963
102128
102318
102505
102716
102914
103131
103363
103596
103815
104054
104329
104600
104890
105212
105565
105938
106330
106715
107098
107576
108036
108515
109084
109569
110068
110474
110843
111141
111405
111615
111790
111898
111956
111955
111880
111757
111572
111353
111125
110853
110535
110132
109854
109512
109234
109032
108863
108782
108621
94940.9
94930
94923.4
94911.3
94895.4
94876.8
94855.8
94833.1
94809.3
94784.5
94758.8
94731.9
94703.2
94673.6
94643.9
94615.9
94591.8
94573.8
94563.2
94560.8
94566.9
94581.2
94602.2
94629.6
94663.1
94702.1
94746.3
94797.3
94855.6
94921.2
94995
95077.2
95167.9
95267.4
95375.4
95492.1
95616.4
95747.8
95886.1
96031.5
96183.7
96343.6
96510.7
96685
96866.1
97054
97248
97448
97653.7
97864.3
98079.4
98298.9
98521.8
98748.6
98979.1
99213.5
99452
99693.5
99938.6
100187
100438
100690
100945
101200
101456
101714
101973
102232
102491
102747
102999
103245
103486
103720
103947
104168
104381
104586
104781
104967
105142
105307
105460
105601
105728
105840
105938
106021
106087
106137
106169
106183
106179
106158
106118
106060
105983
105888
105776
105646
105498
105336
105158
104965
104762
104547
104320
104085
103845
103600
103356
103114
102875
102645
102428
102225
102036
101869
101721
101594
101495
101415
101362
101339
101336
101360
101410
101486
101579
101697
101826
101969
102132
102295
102474
102647
102837
103030
103230
103425
103635
103866
104108
104370
104654
104981
105318
105675
106026
106402
106818
107213
107675
108176
108622
109099
109504
109866
110164
110448
110673
110876
111006
111100
111127
111101
111014
110887
110704
110512
110252
109969
109574
109323
109022
108784
108594
108455
108398
108208
95017.5
95005.4
94996.2
94983.6
94962.9
94941.7
94916.7
94890.5
94862.5
94833.7
94804.3
94773.7
94742
94709.4
94676.8
94646.4
94620.2
94599.8
94586.9
94582.8
94588.6
94602.9
94624.1
94652
94686.1
94725.6
94770.4
94821.7
94880.2
94946.2
95020.4
95103.3
95195.2
95296.6
95407
95526.3
95653.2
95787.4
95928.6
96077
96232.7
96396.2
96566.8
96744.9
96929.8
97121.9
97320.2