/*--------------------------------*- C++ -*----------------------------------*\
| =========                 |                                                 |
| \\      /  F ield         | OpenFOAM: The Open Source CFD Toolbox           |
|  \\    /   O peration     | Version:  dev                                   |
|   \\  /    A nd           | Web:      http://www.openfoam.org               |
|    \\/     M anipulation  |                                                 |
\*---------------------------------------------------------------------------*/
FoamFile
{
    version     2.0;
    format      ascii;
    class       volScalarField;
    object      p_0;
    location    "9.121";
}
// * * * * * * * * * * * * * * * * * * * * * * * * * * * * * * * * * * * * * //

dimensions      [1 -1 -2 0 0 0 0];

internalField   nonuniform List<scalar> 
12225
(
103590
103495
103370
103216
103030
102820
102587
102343
102078
101817
101522
101254
100924
100684
100352
99999.5
99559.5
99070.1
103585
103494
103370
103217
103030
102821
102588
102344
102079
101818
101523
101256
100925
100683
100349
99994.1
99563.5
99144.2
103579
103491
103370
103217
103032
102823
102590
102347
102083
101820
101531
101258
100943
100676
100354
100001
99591.9
99186
103574
103489
103369
103217
103034
102826
102595
102353
102091
101827
101544
101265
100963
100685
100359
100025
99634.6
99231.7
103569
103488
103370
103219
103037
102831
102602
102361
102102
101839
101560
101280
100986
100700
100385
100058
99714.6
99344.8
103565
103487
103371
103222
103042
102839
102612
102373
102117
101856
101582
101304
101015
100732
100432
100127
99833.2
99458.6
103563
103487
103372
103226
103048
102848
102625
102389
102137
101879
101609
101336
101054
100776
100493
100207
99923.9
99590.6
103560
103487
103374
103231
103057
102860
102640
102408
102160
101906
101642
101373
101097
100825
100553
100274
100001
99696.4
103554
103486
103377
103237
103066
102873
102657
102428
102186
101934
101676
101412
101141
100876
100611
100341
100076
99794.7
103548
103485
103380
103244
103078
102889
102679
102454
102218
101971
101719
101461
101198
100939
100683
100422
100168
99910.7
103542
103483
103383
103252
103093
102910
102707
102488
102259
102019
101774
101523
101270
101019
100772
100523
100281
100042
103534
103480
103387
103262
103111
102935
102742
102532
102311
102080
101844
101603
101361
101120
100883
100646
100417
100194
103528
103476
103390
103273
103131
102966
102784
102585
102377
102157
101933
101704
101474
101245
101019
100796
100580
100372
103519
103468
103388
103282
103153
103002
102834
102651
102457
102253
102043
101828
101613
101398
101186
100978
100775
100580
103493
103445
103376
103283
103171
103038
102889
102726
102551
102367
102176
101979
101781
101583
101387
101194
101006
100825
103422
103394
103341
103268
103177
103068
102944
102806
102657
102497
102330
102156
101979
101801
101624
101449
101278
101112
103319
103299
103266
103218
103156
103078
102986
102880
102762
102634
102497
102352
102202
102049
101895
101743
101591
101446
103134
103140
103136
103120
103091
103050
102995
102926
102845
102753
102651
102540
102422
102297
102171
102043
101916
101789
102915
102948
102972
102987
102991
102985
102966
102935
102891
102834
102766
102688
102600
102507
102408
102305
102201
102096
102714
102761
102805
102846
102879
102904
102917
102918
102905
102880
102843
102794
102735
102668
102594
102514
102430
102344
102519
102587
102650
102712
102769
102819
102859
102887
102901
102903
102892
102868
102834
102789
102736
102676
102610
102541
102362
102441
102517
102594
102670
102740
102801
102851
102888
102912
102922
102919
102905
102879
102844
102800
102749
102693
102244
102324
102408
102496
102586
102671
102749
102816
102871
102912
102940
102953
102957
102945
102924
102892
102853
102808
102156
102235
102323
102419
102518
102614
102704
102785
102853
102909
102950
102977
102991
102992
102981
102960
102930
102893
102096
102169
102258
102359
102465
102570
102669
102759
102838
102903
102954
102991
103015
103025
103022
103009
102985
102954
102054
102122
102211
102314
102425
102536
102642
102740
102826
102898
102956
103000
103031
103047
103050
103042
103024
102997
102021
102088
102176
102283
102397
102512
102623
102725
102816
102893
102956
103006
103040
103060
103067
103063
103049
103025
101997
102064
102153
102262
102378
102496
102610
102715
102809
102890
102956
103008
103045
103068
103078
103076
103064
103043
101981
102049
102139
102249
102367
102486
102602
102709
102804
102887
102955
103009
103047
103072
103083
103083
103072
103052
101974
102042
102132
102243
102361
102481
102598
102706
102802
102885
102954
103008
103048
103073
103085
103085
103075
103056
90737.4
90743.3
90756.3
90776.5
90804.1
90838.9
90880.7
90928.9
90983.1
91043.3
91109.5
91181.7
91260.3
91345.3
91436.8
91534.8
91639.5
91750.8
91868.5
91994.1
92124.4
92260.9
92403.6
92552.2
92706.5
92866.4
93031.8
93202.5
93378.5
93559.6
93745.9
93937.2
94133.4
94334.4
94539.5
94748.4
94961.4
95177.8
95398
95622
95849.5
96081
96317.1
96556.8
96800.7
97047.8
97295.9
97543.8
97793.8
98045.1
98291.5
98540.3
98792.4
99044.2
99294.5
99543.7
99793.1
100045
100297
100549
100800
101051
101299
101545
101787
102024
102257
102487
102710
102926
103134
103334
103524
103704
103874
104031
104177
104309
104429
104534
104626
104699
104760
104806
104837
104853
104856
104846
104823
104788
104742
104685
104618
104542
104455
104360
104257
104145
104026
103900
103765
103621
103468
103305
103134
102953
102764
102566
102362
102154
101942
101728
101511
101291
101068
100842
100614
100383
100149
99919.3
99695.3
99477.6
99267.3
99066.2
98876.1
98698.4
98533.2
98381.4
98243.3
98118.2
98007
97908.9
97822.2
97748.5
97684.1
97642
97605.8
97604.1
97592.7
97601.4
97601.7
97614.4
97641.7
97685.2
97748
97834.7
97930.5
98022.5
98097.8
98153.9
98193.4
98230.4
98285.5
98370.9
98487.7
98630.8
98782
98931.6
99063.4
99182
99271.6
99340.9
99388.7
99411.6
99449.1
99429.5
99401.5
99391.6
99409.6
99477.9
99596.5
99787.5
100085
100604
101276
102002
102761
103553
104346
105118
90796.1
90801.9
90814.7
90834.9
90862.9
90898.1
90939.6
90987
91040
91098.6
91163.2
91233.9
91310.9
91394.3
91484.2
91580.6
91683.4
91794.3
91910.5
92033.3
92162.3
92297.3
92438.4
92585.5
92738.3
92896.7
93060.4
93229.5
93403.6
93582.9
93766.9
93956.3
94150.2
94348.7
94552.2
94758.9
94970.4
95188.6
95408.2
95629.1
95851.9
96081.5
96316.8
96556.3
96798.9
97045.3
97292
97538.1
97784.8
98033.2
98282.9
98529.9
98776.4
99024.6
99275.2
99526
99775.6
100022
100271
100523
100774
101025
101273
101518
101759
101996
102229
102457
102680
102896
103103
103303
103493
103673
103842
104000
104145
104278
104397
104503
104594
104670
104732
104778
104809
104826
104829
104819
104796
104761
104715
104658
104591
104514
104427
104332
104227
104114
103993
103864
103728
103582
103427
103263
103090
102908
102717
102519
102314
102105
101893
101679
101462
101242
101020
100795
100568
100338
100104
99876.4
99656.6
99443
99236.7
99040
98854.9
98683
98523.8
98378
98246.2
98127.3
98022.7
97932
97853.1
97787.8
97729.8
97696.5
97668.3
97679.3
97675.8
97693.7
97702.1
97725.8
97761.3
97814.5
97888.7
97987.3
98096.5
98203.6
98291.9
98357
98400.8
98438.4
98495
98586.2
98711.1
98863.5
99021.2
99175.4
99306.8
99426.7
99512.8
99579.3
99621.9
99636.6
99675
99644.4
99607.9
99583.3
99585.4
99636.2
99735.1
99908.1
100180
100687
101349
102058
102799
103579
104360
105125
90911.4
90917.7
90930.7
90951
90978.5
91012.1
91051.3
91095.8
91145.9
91201.6
91263.3
91331.1
91405.2
91485.8
91572.8
91666.5
91766.7
91873.6
91987.2
92107.7
92233.8
92366
92504.4
92648.6
92798.5
92953.8
93114.6
93280.6
93451.7
93628
93808.8
93994.3
94184.5
94379
94578.6
94782.7
94990.9
95203.3
95418.2
95637.1
95862.1
96088.2
96317.1
96552.7
96793.8
97039.2
97283.8
97527.2
97770.2
98014.2
98261.2
98509.6
98752.9
98991.6
99237.5
99485.9
99735
99983.2
100231
100480
100728
100976
101222
101465
101704
101941
102173
102401
102622
102837
103045
103244
103433
103613
103783
103940
104085
104218
104337
104443
104535
104612
104675
104723
104753
104771
104776
104767
104744
104709
104663
104606
104538
104460
104371
104273
104166
104051
103926
103794
103653
103503
103344
103175
102998
102814
102622
102423
102217
102007
101793
101578
101360
101140
100919
100694
100465
100232
100010
99791.4
99579.4
99374.6
99178.1
98991.2
98815.5
98654.2
98506.5
98372.2
98252.1
98145.2
98053.7
97977.9
97914.9
97866.2
97821.8
97804.6
97792.1
97823.8
97839.8
97872.8
97900.6
97946.3
97996.1
98060.1
98149.7
98261.5
98389.5
98528.5
98656.1
98755.1
98817.9
98859.5
98918.3
99019.4
99159.7
99327.5
99495.5
99657.1
99788.6
99907.2
99987
100049
100082
100083
100113
100073
100034
99990.2
99959
99974.5
100030
100164
100389
100865
101502
102172
102874
103628
104385
105135
91077.3
91083.9
91097
91116.5
91141.7
91172.1
91207.7
91248.7
91295.2
91347.6
91405.9
91470.3
91540.8
91617.7
91701.1
91791.1
91887.7
91991
92100.6
92216.6
92339.2
92467.3
92601.4
92741.2
92886.6
93037.4
93193.6
93355.1
93521.7
93693.3
93869.5
94050.5
94235.9
94425.4
94619.9
94818.7
95022
95229.8
95442
95658.5
95878.5
96100.8
96324.6
96555.4
96791.4
97029.3
97268.5
97512.5
97753.7
97992.3
98233.6
98474.7
98714.5
98954.5
99196.2
99438.8
99682.8
99927.5
100173
100418
100662
100906
101149
101390
101628
101863
102094
102321
102541
102756
102962
103161
103351
103531
103701
103859
104004
104137
104256
104361
104453
104530
104594
104643
104676
104695
104701
104692
104671
104636
104591
104533
104464
104385
104294
104194
104084
103964
103836
103699
103553
103397
103232
103058
102876
102687
102490
102285
102076
101863
101649
101434
101216
100996
100775
100554
100330
100103
99885.3
99674.7
99473.2
99280.6
99097.4
98924.4
98762.5
98615.8
98483.6
98365.9
98264
98174.9
98102.8
98048
98009.2
97987.1
97964.7
97972.3
97982.6
98029.9
98076.3
98121
98183.7
98264.2
98357
98434.5
98532.9
98648
98785.1
98956
99136.7
99298.7
99412.9
99478.4
99545
99658
99817.1
100002
100179
100349
100480
100591
100661
100708
100729
100712
100711
100662
100622
100564
100497
100478
100480
100551
100708
101131
101726
102337
102987
103699
104419
105147
91287.5
91294
91306.4
91324.3
91347
91374.5
91406.8
91444.5
91487.6
91536.1
91590.4
91650.5
91716.8
91789.3
91868.3
91953.9
92046
92144.4
92249.1
92359.9
92476.8
92599.3
92727.5
92861.4
93000.8
93145.6
93295.8
93451.3
93611.8
93777.5
93948
94123.2
94302.2
94486
94674.2
94867
95065.2
95267.4
95474.3
95685.4
95900.1
96119.3
96342.7
96566.5
96792
97021
97255
97492
97726.9
97961.6
98198.5
98432.3
98667.3
98903.2
99140.1
99377.9
99616.8
99856.6
100097
100338
100579
100819
101058
101296
101532
101765
101994
102219
102438
102651
102856
103054
103244
103424
103595
103754
103899
104032
104151
104256
104347
104423
104486
104535
104570
104591
104597
104590
104570
104537
104491
104434
104365
104285
104193
104090
103977
103854
103721
103579
103428
103266
103096
102916
102728
102532
102328
102118
101904
101687
101469
101250
101031
100813
100596
100384
100161
99944.7
99736.4
99537.6
99348.3
99169.3
99001
98843
98697.5
98570
98457.8
98361.2
98283.5
98219.5
98172.2
98143.3
98131.7
98145.8
98153.6
98194.3
98237.3
98294.5
98375.1
98438
98534
98646.7
98800.7
98930.4
99053.9
99184.9
99325.7
99511.5
99730.5
99955.2
100140
100260
100351
100482
100659
100861
101048
101227
101363
101460
101522
101544
101543
101502
101459
101386
101332
101251
101152
101110
101067
101050
101140
101490
102017
102543
103139
103793
104464
105160
91536.7
91542.5
91553.9
91569.9
91590.1
91614.6
91643.8
91677.6
91716.5
91760.6
91810.3
91865.9
91927.5
91995.4
92069.6
92150.1
92236.5
92329
92427.4
92531.4
92641.1
92756.5
92877.5
93004.3
93136.6
93274.4
93417.6
93566.2
93720
93878.8
94042.8
94211.3
94383.6
94560.3
94740.7
94926.8
95118
95314
95514.8
95719.1
95927.8
96140.2
96355.2
96572
96791.4
97013.4
97238.5
97465.6
97692.3
97922
98151.7
98380.9
98610.7
98841.1
99072.6
99305.1
99538.3
99772.9
100008
100244
100481
100717
100952
101186
101419
101649
101875
102097
102314
102525
102729
102927
103116
103297
103467
103625
103771
103904
104023
104128
104218
104294
104355
104403
104437
104457
104464
104457
104438
104406
104361
104305
104237
104156
104064
103960
103844
103718
103581
103435
103278
103111
102934
102748
102553
102350
102140
101926
101708
101486
101263
101041
100821
100602
100384
100169
99959.3
99757.8
99564.2
99379
99204.9
99043.9
98892.3
98752.9
98629.1
98524.4
98435.6
98362.9
98313.5
98280.2
98261.3
98263.5
98280.2
98331.9
98376.2
98449.6
98530.5
98616.5
98728.2
98843.3
98972.5
99112.3
99310
99497.9
99665.8
99848.3
100034
100246
100474
100732
100979
101167
101303
101461
101655
101878
102078
102261
102410
102495
102543
102548
102515
102445
102355
102240
102155
102032
101895
101837
101763
101653
101681
101932
102358
102802
103324
103914
104526
105173
91819.4
91824.3
91834
91847.8
91865.3
91886.6
91912.1
91942.2
91977
92016.8
92062.3
92113.5
92170.2
92232.8
92301.1
92374.9
92454.4
92539.3
92629.9
92726
92827.7
92935.1
93048.3
93167.1
93291.6
93421.5
93556.7
93697.6
93843.8
93995.1
94151.8
94313.1
94478.6
94647.7
94820.5
94998
95180.7
95368.8
95561.5
95758.2
95959
96163.5
96371.2
96581.1
96792
97004.4
97219.2
97435.8
97657.7
97880
98102.3
98324.9
98548.4
98772.7
98997.8
99223.9
99451.4
99680.3
99910.2
100141
100372
100603
100834
101064
101292
101518
101740
101959
102173
102381
102586
102782
102970
103151
103321
103479
103625
103758
103877
103981
104071
104146
104206
104252
104283
104302
104307
104300
104280
104247
104203
104147
104078
103998
103906
103801
103684
103556
103416
103264
103102
102929
102747
102555
102354
102144
101930
101713
101493
101269
101046
100822
100599
100377
100157
99938.3
99740.9
99553.7
99374.2
99204.7
99050
98907.8
98775.2
98660.6
98561.6
98482.4
98423.8
98379.7
98360.7
98361.9
98375.1
98411.3
98463.9
98550.2
98636.3
98739
98856
98982.1
99131
99303.1
99494.8
99680.5
99905
100132
100341
100580
100834
101102
101352
101625
101915
102173
102367
102563
102771
103012
103239
103419
103576
103662
103687
103678
103612
103516
103374
103205
103077
102897
102708
102628
102529
102338
102298
102452
102756
103105
103548
104060
104600
105192
92130.5
92133.9
92141.9
92153.3
92168
92186.3
92208.6
92235
92265.8
92301.5
92342.3
92388
92438.7
92494.6
92555.6
92621.8
92693.1
92770.2
92852.2
92939.9
93033.2
93132.4
93237.3
93347.8
93463.4
93584.3
93710.9
93843.6
93981.9
94125.3
94273.9
94427.3
94585.1
94746.5
94911.5
95080.4
95254.1
95432.5
95615.8
95804.5
95998.2
96195.8
96394.5
96593.2
96793.1
96995.5
97202.3
97413.2
97626.2
97840.1
98054.3
98269.3
98485
98701.7
98919.6
99139
99359.9
99582.6
99806.7
100032
100257
100482
100707
100931
101155
101376
101594
101809
102020
102226
102427
102621
102809
102987
103157
103316
103461
103594
103713
103817
103907
103982
104041
104086
104116
104132
104135
104125
104104
104071
104026
103969
103900
103818
103723
103617
103499
103369
103225
103070
102903
102725
102538
102340
102135
101922
101707
101488
101267
101041
100816
100594
100373
100155
99941.2
99730.1
99535.8
99355
99187.2
99033.5
98896
98772.6
98664.1
98576.7
98504.8
98453.3
98427.1
98414.5
98426
98464.6
98516.5
98585.3
98676.2
98799.9
98935.3
99073
99232.6
99400.7
99595
99805.9
100056
100286
100542
100806
101072
101372
101694
102021
102300
102598
102914
103243
103503
103749
103979
104226
104482
104667
104824
104915
104918
104892
104789
104671
104482
104256
104071
103833
103583
103449
103313
103070
102973
103023
103203
103452
103814
104226
104691
105215
92465.6
92467.3
92473.7
92482.8
92494.9
92510.4
92529.4
92551.9
92578.5
92609.5
92644.6
92684.1
92728.2
92776.8
92830.1
92888.2
92951.4
93019.5
93092.8
93171.8
93256.8
93347.5
93443.6
93544.6
93650.6
93761.8
93879.5
94003.8
94133.8
94268.9
94409
94553.7
94703.3
94857.1
95014.1
95173.5
95336.5
95504.9
95680.8
95863
96048.9
96235.2
96422.3
96611.2
96801.4
96996.8
97195.5
97397.2
97601.1
97805.6
98010.7
98216.6
98423.5
98632
98842.2
99054.2
99268.2
99483.9
99700.7
99918.4
100137
100356
100574
100793
101011
101227
101439
101650
101856
102058
102255
102446
102629
102801
102964
103118
103264
103399
103524
103630
103721
103798
103859
103904
103934
103948
103950
103939
103916
103882
103835
103776
103705
103621
103525
103416
103295
103161
103014
102856
102686
102505
102314
102114
101907
101694
101476
101255
101031
100806
100581
100360
100143
99933
99725.1
99523.4
99338.8
99168.3
99015
98877.2
98757.2
98655.2
98571.4
98509.1
98466.5
98444.5
98449.2
98471.2
98514.6
98587.4
98679.7
98785.9
98913
99071.9
99254.5
99437.9
99650.3
99864.4
100097
100355
100646
100927
101212
101509
101844
102210
102577
102956
103265
103603
103941
104338
104672
104971
105245
105488
105760
105957
106109
106204
106191
106149
106011
105868
105637
105363
105104
104812
104513
104277
104069
103813
103682
103628
103682
103836
104106
104421
104805
105246
92820
92820.4
92825.2
92832.2
92841.9
92854.4
92869.6
92888.1
92910.1
92935.6
92964.7
92997.6
93034.5
93075.5
93120.8
93170.6
93225.1
93284.7
93349.1
93419.2
93495.8
93577.5
93664
93755.3
93851.9
93954.2
94063
94178.1
94299
94425.8
94555.9
94691.1
94833.8
94980.4
95126
95273.8
95427
95590.3
95760.8
95933.8
96106.9
96280.5
96456.3
96637.4
96821.1
97008.2
97198.4
97390.4
97583.6
97777.6
97972.7
98169.1
98367
98566.9
98769.3
98973.5
99179.3
99386.7
99595.5
99805.3
100017
100229
100441
100653
100865
101074
101282
101488
101689
101886
102078
102263
102440
102613
102776
102930
103072
103203
103319
103425
103518
103596
103656
103702
103733
103749
103750
103738
103715
103679
103631
103571
103497
103411
103313
103201
103077
102941
102792
102632
102460
102278
102086
101886
101677
101463
101244
101022
100798
100574
100351
100130
99916.7
99705.6
99500.9
99321.5
99152
98996.5
98859.5
98738.8
98639.5
98561
98501
98463.9
98449.5
98456.8
98493.2
98549.6
98626
98729.4
98859.8
99007.8
99181.7
99372.2
99588.3
99820.9
100080
100333
100606
100921
101249
101586
101911
102250
102648
103062
103451
103869
104220
104600
104968
105417
105837
106186
106517
106768
107040
107246
107389
107482
107465
107406
107247
107070
106801
106494
106154
105808
105473
105120
104804
104557
104398
104247
104175
104247
104421
104642
104945
105282
93188.5
93188.4
93191.5
93196.4
93203.5
93212.7
93224.1
93238
93254.5
93274.1
93296.9
93323.1
93352.8
93386.1
93423.4
93464.6
93510.1
93560.7
93616.7
93678.2
93745
93817.4
93895.4
93978.4
94066.4
94159.9
94259.6
94365.3
94476.7
94593.8
94716.4
94843.9
94974.6
95107.1
95242.5
95382.2
95531.7
95689.8
95854.8
96013.6
96174.5
96338.3
96506
96677.7
96852.6
97030.3
97210
97391.4
97574.1
97758
97943
98129.7
98318.4
98509
98704.3
98899.2
99096
99294.6
99494.8
99696.8
99900.6
100106
100311
100516
100721
100925
101127
101326
101524
101713
101898
102080
102255
102422
102582
102732
102871
103000
103116
103219
103309
103389
103444
103488
103518
103534
103535
103524
103500
103463
103414
103353
103277
103189
103090
102976
102850
102712
102561
102400
102228
102045
101854
101654
101446
101232
101013
100793
100572
100349
100131
99913.8
99697.6
99493
99309.4
99139.6
98984.3
98844.6
98725.3
98624.1
98544.7
98489.5
98455.3
98444
98457.1
98493.2
98559
98646.9
98759
98895.5
99059.5
99243.8
99461.4
99685.9
99942.3
100219
100514
100803
101126
101493
101846
102220
102586
102985
103444
103888
104301
104747
105149
105565
105967
106441
106957
107363
107746
108022
108289
108496
108631
108715
108703
108624
108454
108242
107940
107608
107196
106804
106426
105981
105564
105327
105105
104858
104680
104673
104752
104881
105080
105328
93566.8
93565.9
93567.4
93570.1
93574.5
93580.4
93587.9
93597.1
93608.5
93622.3
93638.9
93658.5
93680.9
93706.4
93735.1
93767.2
93803.5
93844.8
93891.4
93943.6
94001.7
94066.1
94136
94210.2
94289.2
94373.9
94464.8
94561.5
94663.7
94771.1
94883
94998.8
95117.8
95242
95373.1
95511.1
95655
95802.5
95951
96100.4
96252.8
96408.6
96567.9
96730
96894.9
97062
97231.1
97401.8
97573.9
97747.5
97923.5
98101
98280.5
98462.5
98647
98833
99020.8
99210.5
99402.2
99595.8
99791.4
99988.6
100187
100385
100583
100779
100974
101165
101352
101540
101720
101896
102066
102228
102383
102529
102664
102788
102901
103000
103085
103154
103218
103268
103293
103308
103309
103298
103273
103236
103185
103122
103047
102957
102857
102743
102616
102478
102327
102167
101995
101813
101624
101425
101217
101005
100789
100570
100354
100138
99925.9
99707.5
99503.9
99315
99141.7
98983.5
98841.1
98718.1
98617
98536.4
98476.4
98444.6
98436.3
98450.7
98491.4
98555.9
98648.1
98766.5
98912.2
99080.7
99276.7
99495.5
99748.8
100006
100304
100617
100943
101277
101651
102047
102429
102839
103243
103690
104191
104650
105107
105566
106018
106471
106912
107391
107977
108456
108887
109199
109462
109669
109800
109872
109870
109770
109598
109349
109023
108669
108201
107772
107337
106831
106369
106120
105778
105447
105188
105108
105085
105126
105222
105385
93950.8
93949.4
93949.2
93949.7
93951
93953.2
93956.7
93962.1
93969
93977.5
93988
94000.4
94015.2
94032.6
94052.6
94075.9
94103.4
94135.7
94173.3
94216.7
94266
94320.8
94380.2
94444.3
94514.1
94590.2
94672.4
94759.8
94852.2
94949.4
95051.5
95159.2
95273
95393.4
95520
95651.3
95784.8
95919.8
96057.4
96197.9
96341.8
96489
96638.9
96791.5
96946.4
97103.1
97261.7
97422.1
97584.6
97748.9
97915.2
98083.6
98254.3
98427
98601.8
98778.7
98957.3
99137.9
99320.7
99505.9
99693.2
99882.1
100073
100264
100454
100643
100830
101015
101197
101375
101549
101718
101881
102036
102185
102326
102456
102576
102684
102779
102861
102929
102985
103025
103059
103076
103077
103066
103041
103003
102952
102888
102812
102723
102622
102509
102383
102245
102095
101936
101766
101587
101402
101206
100998
100788
100574
100358
100142
99927.5
99714.2
99522.6
99334.7
99156.7
98995.9
98852.2
98725.6
98618.8
98536
98476.9
98438.8
98428.2
98443.5
98483.3
98550.7
98643.3
98759.7
98907.1
99080.6
99279.6
99505.8
99759.3
100041
100332
100661
101000
101358
101739
102150
102561
102983
103427
103874
104360
104869
105340
105847
106301
106798
107301
107777
108261
108883
109435
109912
110260
110519
110728
110861
110923
110930
110816
110645
110365
110019
109645
109142
108677
108184
107640
107163
106848
106400
106007
105684
105536
105417
105388
105389
105459
94337.8
94335.1
94333.2
94331.2
94329.2
94327.5
94326.9
94327.5
94329.2
94331.9
94336
94341.7
94349.8
94360.2
94372.9
94388.6
94408.1
94432.1
94461.2
94495.5
94534.5
94577.9
94626.3
94680.5
94741.3
94808.7
94882.2
94961
95045.1
95135.1
95231.3
95334.1
95442.7
95556.6
95674.8
95796.1
95919
96044.1
96172.4
96304.2
96439.5
96577.6
96718
96861
97006.2
97153.3
97302.7
97453.8
97607.1
97762.6
97920.1
98079.7
98241.3
98405
98570.6
98738
98907.7
99079.7
99253.8
99430.2
99609.1
99790
99972.6
100158
100338
100519
100699
100876
101051
101221
101388
101549
101704
101852
101994
102128
102252
102366
102469
102560
102639
102705
102758
102798
102828
102843
102846
102835
102810
102772
102721
102658
102582
102493
102392
102281
102156
102020
101873
101715
101548
101374
101193
101002
100792
100586
100378
100168
99958.5
99753.8
99553.6
99366.7
99190.3
99026.1
98877.3
98747.8
98638.4
98549.3
98484.9
98445.2
98429.1
98440.7
98478.7
98540.6
98632.2
98749.6
98890.2
99064.5
99262.2
99488.9
99739.9
100024
100325
100651
101004
101366
101755
102169
102602
103034
103487
103951
104439
104957
105460
105950
106481
106932
107456
108020
108519
109016
109646
110263
110785
111166
111432
111639
111780
111838
111854
111731
111559
111259
110903
110506
109986
109487
108949
108378
107869
107469
106968
106538
106172
105924
105745
105625
105519
105518
94724.8
94719.9
94716.1
94711.4
94706.2
94700.9
94695.8
94691.1
94686.9
94683.9
94682.2
94682
94683.2
94685.7
94690.7
94698.5
94710
94726.2
94746.9
94771.9
94801
94834.9
94874.7
94921
94973.9
95033.4
95099
95170.5
95247.6
95331.2
95421.5
95517.9
95619
95724
95832.5
95943.8
96057.9
96174.9
96295
96418.2
96544.7
96673.7
96805.2
96939.3
97075.5
97213.8
97354.4
97497.3
97642.5
97789.6
97938.8
98090
98243
98397.8
98554.7
98713.7
98874.7
99038.2
99204.2
99372.2
99542.5
99714.8
99887.9
100060
100237
100411
100583
100753
100919
101082
101240
101393
101540
101681
101814
101941
102058
102166
102264
102350
102425
102489
102540
102580
102607
102622
102625
102613
102588
102551
102500
102437
102362
102275
102176
102066
101944
101809
101666
101511
101345
101174
100985
100788
100601
100405
100206
100005
99805.6
99610
99422.2
99244
99077.5
98926.2
98790.9
98675.8
98581.7
98511.2
98464.9
98443.4
98448.1
98480.9
98539.4
98621.3
98735.2
98872.3
99036.3
99232.7
99452.3
99701.7
99976
100281
100597
100952
101318
101706
102120
102554
103001
103457
103927
104417
104925
105449
105953
106463
106986
107453
108003
108600
109131
109661
110240
110875
111432
111868
112168
112375
112526
112586
112609
112485
112315
112006
111648
111228
110710
110181
109617
109020
108466
108005
107481
107033
106620
106291
106050
105831
105627
105543
95112
95104.8
95098.3
95090.2
95080.9
95071.3
95061.5
95051.5
95042.1
95033.1
95024.6
95016.8
95009.8
95004.2
95000.4
94999.1
95001.8
95009
95020.8
95037.4
95059.1
95086.5
95120.3
95160.8
95207.8
95260.6
95319.5
95384.2
95454.8
95531.7
95614.8
95703.2
95795.9
95892.3
95992
96095
96201.2
96310.6
96423
96538.4
96656.5
96777
96900.1
97025.9
97154.1
97284.7
97417.7
97552.9
97690.6
97830.3
97971.8
98115
98260.3
98407.3
98556.2
98707.3
98860.5
99015.9
99173.8
99333.9
99496.1
99660.4
99825.9
99991.3
100158
100324
100487
100649
100807
100962
101111
101256
101396
101529
101654
101773
101883
101984
102076
102159
102231
102292
102341
102379
102405
102419
102420
102409
102384
102347
102298
102236
102162
102077
101980
101872
101752
101620
101480
101328
101165
100992
100814
100630
100447
100258
100065
99874.2
99683.7
99497.7
99320.8
99153.5
98998.5
98859.6
98739.5
98638.9
98559.4
98506.1
98476.9
98472.3
98495.4
98547.8
98623.8
98723.6
98855.1
99009.6
99194.8
99406.3
99645
99910.4
100205
100518
100855
101224
101599
102010
102434
102882
103340
103810
104292
104794
105304
105825
106340
106850
107372
107866
108458
109009
109599
110209
110735
111341
111905
112383
112704
112915
113072
113143
113171
113055
112889
112583
112235
111797
111291
110740
110168
109553
108974
108475
107933
107476
107010
106621
106321
106016
105755
105604
95499.5
95490.3
95481.4
95469.7
95455.6
95440.3
95424.3
95407.9
95391.4
95374.8
95358.2
95341.8
95326.2
95311.7
95297.9
95286.1
95278.4
95275.7
95279.1
95288.7
95304.9
95327.8
95357.9
95394.7
95437.1
95485.1
95538.3
95596.8
95660.6
95730.1
95805.1
95885.3
95970.1
96058.8
96151.3
96247.7
96347.5
96449.8
96554.6
96662.5
96773.2
96886.4
97002.3
97120.9
97242
97365.8
97492.2
97621
97751.9
97884.9
98019.7
98156.1
98294.3
98434.3
98576.1
98720
98866
99014
99164.6
99317.3
99471.7
99628.5
99786.4
99943.5
100101
100259
100414
100567
100718
100864
101006
101143
101274
101399
101517
101629
101733
101829
101916
101995
102063
102121
102169
102205
102230
102243
102243
102231
102207
102170
102122
102061
101989
101906
101811
101705
101588
101460
101323
101176
101017
100853
100680
100503
100326
100144
99959.1
99777.5
99596.3
99420.2
99254
99098
98954.8
98828.5
98722.6
98636.1
98571.4
98533.3
98519.8
98530.6
98570
98638.1
98726.9
98843.5
98988.6
99158.1
99357.2
99580.2
99833.5
100110
100415
100733
101088
101457
101849
102263
102692
103146
103610
104079
104560
105058
105565
106073
106590
107097
107629
108147
108738
109229
109865
110516
111065
111693
112236
112711
113019
113246
113410
113494
113522
113422
113263
112972
112641
112202
111711
111153
110583
109970
109392
108874
108304
107832
107319
106885
106529
106151
105854
105635
95891.6
95877.5
95866.2
95851.1
95832.1
95810.1
95786.2
95761.2
95735.6
95709.9
95684.1
95658.4
95632.5
95606.6
95581.9
95559.7
95541.5
95529.6
95525.6
95529.5
95541.6
95561.6
95588.9
95621.9
95660
95703.5
95752.1
95805.1
95862.9
95925.6
95992.9
96065.1
96142.1
96223.8
96310
96400.8
96494.8
96591.3
96690.2
96791.3
96895.3
97002
97111.7
97224.3
97339.6
97457.6
97578.2
97701.5
97827
97954.2
98083.4
98214
98346
98480
98615.5
98752.9
98892.5
99034
99177.9
99324.1
99471.4
99620
99770.1
99919.6
100069
100218
100366
100512
100654
100794
100928
101057
101181
101299
101410
101516
101614
101705
101789
101863
101928
101984
102029
102064
102087
102099
102099
102086
102062
102027
101979
101920
101850
101768
101676
101572
101458
101334
101201
101057
100905
100747
100582
100413
100242
100067
99889.7
99716.1
99544.5
99378.5
99223.1
99078.5
98947.4
98833.3
98739.4
98666.3
98614.9
98590
98589.9
98613.5
98666.4
98744.3
98843.9
98974.7
99128.8
99308.7
99515
99748.2
100008
100291
100598
100923
101281
101649
102052
102454
102889
103334
103795
104251
104726
105212
105701
106192
106696
107207
107741
108281
108832
109332
109959
110557
111120
111778
112298
112780
113098
113355
113525
113622
113652
113579
113430
113167
112850
112433
111960
111419
110850
110260
109694
109171
108567
108068
107528
107060
106663
106249
105919
105566
96226.7
96207.6
96193.4
96174.5
96151.1
96123.2
96091.8
96058.3
96023.9
95989.1
95954.4
95919.7
95884.5
95849.7
95816.7
95787.1
95762.6
95745.3
95735.7
95734.9
95743.1
95759.7
95782.9
95812
95846.6
95886.1
95929.4
95977.4
96030.1
96087.7
96150.1
96217.4
96287.7
96364.5
96446.1
96532.1
96621.8
96714.1
96808
96904.9
97004.4
97106.9
97212.3
97320.7
97432
97546.1
97662.8
97782
97903.4
98026.6
98151.6
98278.2
98405.9
98535.3
98666.3
98799.3
98934.3
99070.8
99209.5
99350.3
99491.5
99633.8
99777.4
99920.6
100064
100207
100349
100489
100626
100759
100888
101011
101129
101241
101348
101448
101542
101629
101709
101780
101842
101896
101939
101972
101994
102005
102005
101993
101970
101935
101888
101829
101760
101681
101590
101488
101377
101256
101127
100988
100840
100688
100528
100365
100200
100031
99861.8
99695.1
99532.2
99375.6
99229.6
99095.1
98974
98869.8
98786
98723.2
98681.2
98667
98675.4
98707.9
98770
98852.6
98961.8
99100.1
99257.9
99442.4
99653.5
99891
100149
100435
100738
101066
101416
101788
102180
102577
103006
103434
103882
104325
104790
105257
105724
106199
106681
107194
107721
108261
108792
109318
109904
110430
110997
111629
112125
112618
112958
113234
113408
113529
113573
113530
113394
113164
112864
112483
112027
111525
110963
110404
109846
109323
108697
108172
107621
107143
106707
106284
105960
105496
96489.9
96471.7
96453.4
96430.8
96401.7
96368.1
96330.1
96289.6
96247.6