/*--------------------------------*- C++ -*----------------------------------*\
| =========                 |                                                 |
| \\      /  F ield         | OpenFOAM: The Open Source CFD Toolbox           |
|  \\    /   O peration     | Version:  dev                                   |
|   \\  /    A nd           | Web:      http://www.openfoam.org               |
|    \\/     M anipulation  |                                                 |
\*---------------------------------------------------------------------------*/
FoamFile
{
    version     2.0;
    format      ascii;
    class       surfaceScalarField;
    object      phi;
    location    "9.121";
}
// * * * * * * * * * * * * * * * * * * * * * * * * * * * * * * * * * * * * * //

dimensions      [1 0 -1 0 0 0 0];

internalField   nonuniform List<scalar> 
24170
(
2.03932e-06
2.58471e-06
9.00153e-07
2.09643e-06
3.1584e-07
1.52428e-06
1.93552e-08
1.21988e-06
-1.73298e-07
1.10271e-06
-1.54644e-07
8.75555e-07
-2.57032e-07
9.83377e-07
-2.44881e-08
6.26547e-07
-8.58251e-08
9.02249e-07
4.09037e-07
3.1464e-07
3.91842e-07
8.10289e-07
1.06559e-06
7.27012e-08
1.36849e-06
4.14359e-07
2.56841e-06
-5.05861e-07
3.34481e-06
-1.21212e-07
7.16388e-06
-3.20123e-06
1.05475e-05
-2.81241e-06
1.39845e-06
9.76867e-06
3.7752e-06
4.11959e-06
2.76663e-06
4.16983e-06
1.98012e-06
3.35586e-06
1.37192e-06
2.85494e-06
1.04792e-06
2.43674e-06
6.48193e-07
2.27006e-06
5.95738e-07
2.01323e-06
4.94929e-07
1.68337e-06
5.74205e-07
1.75459e-06
6.9008e-07
1.09825e-06
1.08113e-06
1.29462e-06
1.61452e-06
3.6897e-07
2.07064e-06
7.41271e-07
3.18372e-06
-8.49477e-07
4.24633e-06
-4.61198e-07
6.68949e-06
-4.98569e-06
6.74081e-06
-2.27447e-06
2.61644e-06
6.11802e-06
4.60247e-06
5.12959e-06
4.07357e-06
5.86953e-06
3.57863e-06
4.99946e-06
3.02577e-06
4.5318e-06
2.62651e-06
3.94569e-06
2.27282e-06
3.70988e-06
2.14777e-06
3.21215e-06
1.97632e-06
2.89719e-06
2.13771e-06
2.6193e-06
2.33099e-06
1.88663e-06
2.38859e-06
2.20058e-06
3.06301e-06
6.01418e-07
2.92605e-06
1.75258e-06
3.82061e-06
-9.03447e-07
4.06006e-06
1.01289e-07
5.48299e-06
-5.65136e-06
5.49735e-06
-1.61376e-06
3.8198e-06
4.95587e-06
4.97091e-06
6.43008e-06
4.78658e-06
7.32749e-06
4.46764e-06
6.58093e-06
4.25279e-06
5.9683e-06
3.85799e-06
5.55886e-06
3.85253e-06
4.89545e-06
3.52361e-06
4.71665e-06
3.69944e-06
3.85347e-06
3.45555e-06
3.98222e-06
3.775e-06
2.6376e-06
3.58971e-06
3.43455e-06
4.10027e-06
1.08362e-06
3.97721e-06
2.83675e-06
4.37458e-06
-3.8886e-07
3.86372e-06
1.48342e-06
4.81708e-06
-5.76193e-06
5.72626e-06
-1.74446e-06
3.28653e-06
6.97784e-06
5.12094e-06
8.25598e-06
5.36232e-06
8.46869e-06
4.96904e-06
8.35171e-06
5.06162e-06
7.2067e-06
4.51418e-06
7.43391e-06
4.69444e-06
6.00759e-06
4.21094e-06
6.47827e-06
4.49228e-06
4.8152e-06
4.15763e-06
5.53266e-06
4.44691e-06
3.52593e-06
4.31361e-06
4.70788e-06
4.55603e-06
1.93251e-06
4.57803e-06
3.86243e-06
5.18422e-06
4.57497e-09
5.14599e-06
2.4729e-06
5.07676e-06
-4.78681e-06
4.85841e-06
-6.63947e-07
2.98851e-06
5.95648e-06
5.60036e-06
1.01655e-05
5.62404e-06
9.95267e-06
5.07372e-06
1.03927e-05
5.17016e-06
8.56329e-06
4.67214e-06
9.37164e-06
4.88931e-06
7.20234e-06
4.49062e-06
8.26598e-06
4.81613e-06
5.84754e-06
4.53806e-06
7.13647e-06
4.89363e-06
4.45695e-06
4.87013e-06
5.97581e-06
5.1597e-06
2.83441e-06
5.51281e-06
4.6513e-06
5.9175e-06
6.89405e-07
6.47009e-06
2.96372e-06
4.94955e-06
-2.28086e-06
3.52245e-06
1.71471e-06
1.87228e-06
5.49574e-06
6.12424e-06
1.21932e-05
5.94256e-06
1.17634e-05
5.43633e-06
1.25005e-05
5.4159e-06
1.01522e-05
5.05691e-06
1.12843e-05
5.15391e-06
8.63004e-06
4.89915e-06
1.00238e-05
5.10099e-06
7.11428e-06
5.06226e-06
8.61145e-06
5.34209e-06
5.5704e-06
5.59102e-06
7.07397e-06
5.81435e-06
3.90344e-06
6.23538e-06
5.46606e-06
6.19806e-06
1.90897e-06
6.45946e-06
3.83281e-06
5.06984e-06
1.78324e-07
4.72575e-06
3.07399e-06
1.76603e-06
5.76007e-06
4.86512e-06
1.38238e-05
4.63125e-06
1.32331e-05
4.32386e-06
1.40223e-05
4.18897e-06
1.14786e-05
4.03722e-06
1.26159e-05
3.9501e-06
9.87651e-06
3.97141e-06
1.11458e-05
3.94795e-06
8.256e-06
4.13965e-06
9.51294e-06
4.16682e-06
6.60521e-06
4.43449e-06
7.83188e-06
4.4577e-06
4.86665e-06
4.77686e-06
6.08827e-06
4.5671e-06
3.02183e-06
4.83048e-06
4.42893e-06
4.12276e-06
1.70374e-06
4.53902e-06
3.42827e-06
2.16697e-06
4.84699e-06
5.79497e-06
1.54039e-05
5.402e-06
1.50221e-05
5.05541e-06
1.57367e-05
4.80542e-06
1.30778e-05
4.68946e-06
1.40637e-05
4.49931e-06
1.13824e-05
4.60382e-06
1.23338e-05
4.46841e-06
9.66155e-06
4.71045e-06
1.05083e-05
4.65328e-06
7.8694e-06
4.92903e-06
8.71766e-06
4.86955e-06
6.04898e-06
5.18027e-06
6.84392e-06
4.94808e-06
4.28147e-06
5.25148e-06
5.098e-06
4.81807e-06
3.06656e-06
5.29979e-06
3.81866e-06
3.03401e-06
5.24155e-06
6.85037e-06
1.72983e-05
6.21804e-06
1.72131e-05
5.83628e-06
1.76409e-05
5.41444e-06
1.50093e-05
5.36533e-06
1.55976e-05
5.0806e-06
1.31419e-05
5.24514e-06
1.36148e-05
5.0349e-06
1.12974e-05
5.3425e-06
1.15893e-05
5.17926e-06
9.388e-06
5.49775e-06
9.70501e-06
5.36326e-06
7.44514e-06
5.68694e-06
7.7189e-06
5.43183e-06
5.69089e-06
5.78875e-06
5.83476e-06
5.5319e-06
4.36779e-06
5.95688e-06
4.37535e-06
3.8333e-06
6.07388e-06
7.83386e-06
1.96688e-05
7.17576e-06
1.95794e-05
6.88984e-06
1.95909e-05
6.3032e-06
1.72537e-05
6.19347e-06
1.73351e-05
5.74999e-06
1.52105e-05
5.81501e-06
1.51419e-05
5.51594e-06
1.31729e-05
5.7386e-06
1.29013e-05
5.58476e-06
1.10428e-05
5.91715e-06
1.0819e-05
5.825e-06
8.93534e-06
6.18369e-06
8.69117e-06
5.9746e-06
7.18077e-06
6.30435e-06
6.72167e-06
6.14873e-06
5.68179e-06
6.44559e-06
5.17302e-06
4.62552e-06
6.67989e-06
9.11163e-06
2.14901e-05
8.32284e-06
2.21846e-05
7.91088e-06
2.17747e-05
7.1572e-06
1.97792e-05
6.97319e-06
1.92649e-05
6.46075e-06
1.74697e-05
6.49994e-06
1.68187e-05
6.18887e-06
1.51866e-05
6.3717e-06
1.43799e-05
6.20457e-06
1.28377e-05
6.57072e-06
1.20257e-05
6.44841e-06
1.05788e-05
6.74095e-06
9.85367e-06
6.66115e-06
8.65895e-06
6.86511e-06
7.84834e-06
6.87635e-06
6.93683e-06
7.04245e-06
6.20653e-06
5.54204e-06
7.25502e-06
1.04238e-05
2.4054e-05
9.407e-06
2.50468e-05
8.86638e-06
2.41263e-05
8.06048e-06
2.24014e-05
7.71243e-06
2.14161e-05
7.20365e-06
1.97885e-05
7.11474e-06
1.86998e-05
6.82733e-06
1.72575e-05
6.85674e-06
1.6101e-05
6.72781e-06
1.46846e-05
6.94433e-06
1.34753e-05
6.92298e-06
1.22125e-05
7.11225e-06
1.12142e-05
7.17565e-06
1.00831e-05
7.30876e-06
9.13341e-06
7.39862e-06
8.19847e-06
7.50899e-06
7.37848e-06
6.58927e-06
7.67375e-06
1.20359e-05
2.67008e-05
1.08625e-05
2.79557e-05
1.01086e-05
2.66007e-05
9.22742e-06
2.50173e-05
8.6531e-06
2.37363e-05
8.04743e-06
2.21595e-05
7.74528e-06
2.07717e-05
7.4167e-06
1.93569e-05
7.31244e-06
1.79587e-05
7.19111e-06
1.65336e-05
7.21736e-06
1.51355e-05
7.31201e-06
1.37558e-05
7.4254e-06
1.26838e-05
7.54561e-06
1.14843e-05
7.67163e-06
1.04628e-05
7.78354e-06
9.47779e-06
7.88966e-06
8.59575e-06
7.76053e-06
7.97527e-06
1.39399e-05
2.9569e-05
1.23377e-05
3.09418e-05
1.11512e-05
2.91828e-05
1.00731e-05
2.75302e-05
9.32013e-06
2.59736e-05
8.7011e-06
2.43126e-05
8.26731e-06
2.27796e-05
7.94346e-06
2.1282e-05
7.7495e-06
1.97645e-05
7.6165e-06
1.82739e-05
7.5223e-06
1.6817e-05
7.51958e-06
1.53147e-05
7.58918e-06
1.41292e-05
7.59214e-06
1.29449e-05
7.68813e-06
1.17759e-05
7.76051e-06
1.0759e-05
7.82881e-06
9.82055e-06
8.94115e-06
7.8834e-06
1.60516e-05
3.16547e-05
1.43422e-05
3.32871e-05
1.28416e-05
3.13767e-05
1.15112e-05
2.96446e-05
1.04516e-05
2.79255e-05
9.57661e-06
2.61853e-05
8.88724e-06
2.45608e-05
8.38016e-06
2.29575e-05
8.00989e-06
2.13624e-05
7.75538e-06
1.97941e-05
7.57747e-06
1.82802e-05
7.36789e-06
1.68132e-05
7.37719e-06
1.53966e-05
7.35572e-06
1.42175e-05
7.32652e-06
1.30288e-05
7.38137e-06
1.1892e-05
7.42005e-06
1.09281e-05
1.00106e-05
7.45719e-06
1.8845e-05
3.30275e-05
1.67515e-05
3.46272e-05
1.47735e-05
3.27377e-05
1.2932e-05
3.10509e-05
1.13593e-05
2.92686e-05
1.00557e-05
2.74594e-05
9.06627e-06
2.57056e-05
8.32525e-06
2.40164e-05
7.76569e-06
2.23809e-05
7.35291e-06
2.07783e-05
7.058e-06
1.92362e-05
6.84345e-06
1.77545e-05
6.6309e-06
1.63769e-05
6.54561e-06
1.5097e-05
6.49151e-06
1.38963e-05
6.42702e-06
1.27725e-05
6.43272e-06
1.17349e-05
1.08183e-05
6.43416e-06
1.89581e-05
3.30666e-05
1.64295e-05
3.45705e-05
1.41543e-05
3.26683e-05
1.21564e-05
3.09864e-05
1.05238e-05
2.9144e-05
9.17075e-06
2.73508e-05
8.08023e-06
2.56129e-05
7.19684e-06
2.39692e-05
6.48339e-06
2.23904e-05
5.89807e-06
2.0856e-05
5.4321e-06
1.93659e-05
5.04376e-06
1.79458e-05
4.72737e-06
1.66098e-05
4.49994e-06
1.53356e-05
4.3077e-06
1.41776e-05
4.17722e-06
1.30518e-05
4.07159e-06
1.20413e-05
1.10848e-05
4.04584e-06
1.66539e-05
3.13381e-05
1.42089e-05
3.31174e-05
1.21365e-05
3.11268e-05
1.03629e-05
2.94787e-05
8.74061e-06
2.78354e-05
7.38776e-06
2.61127e-05
6.19702e-06
2.45396e-05
5.2616e-06
2.29432e-05
4.52227e-06
2.14427e-05
3.93022e-06
2.00076e-05
3.45233e-06
1.86226e-05
3.06113e-06
1.73074e-05
2.76338e-06
1.60439e-05
2.52356e-06
1.48576e-05
2.36566e-06
1.37447e-05
2.19733e-06
1.27381e-05
2.10851e-06
1.17421e-05
1.08521e-05
2.03312e-06
1.45792e-05
2.91872e-05
1.23839e-05
3.05746e-05
1.0461e-05
2.86152e-05
8.77096e-06
2.70901e-05
7.31317e-06
2.55841e-05
6.02189e-06
2.40547e-05
4.85682e-06
2.27046e-05
3.93184e-06
2.11963e-05
3.17189e-06
1.98316e-05
2.54627e-06
1.85362e-05
2.03336e-06
1.72864e-05
1.63795e-06
1.60773e-05
1.34383e-06
1.49135e-05
1.13974e-06
1.38142e-05
1.00861e-06
1.27848e-05
9.55687e-07
1.18403e-05
9.17569e-07
1.09521e-05
1.01243e-05
9.23645e-07
1.27956e-05
2.60874e-05
1.10871e-05
2.70793e-05
9.4092e-06
2.54087e-05
7.81439e-06
2.41599e-05
6.40433e-06
2.28359e-05
5.11582e-06
2.15466e-05
4.08967e-06
2.02859e-05
3.15109e-06
1.90228e-05
2.42349e-06
1.77574e-05
1.82918e-06
1.66168e-05
1.33692e-06
1.55275e-05
9.37527e-07
1.44635e-05
6.19426e-07
1.34333e-05
3.68907e-07
1.24604e-05
1.72915e-07
1.15505e-05
3.33151e-08
1.07063e-05
-5.43424e-08
9.90643e-06
9.1687e-06
-1.07938e-07
1.15218e-05
2.27254e-05
9.91651e-06
2.33421e-05
8.37694e-06
2.19172e-05
6.9817e-06
2.08701e-05
5.70529e-06
1.9777e-05
4.54351e-06
1.87244e-05
3.54567e-06
1.76398e-05
2.67024e-06
1.65772e-05
1.94336e-06
1.54684e-05
1.37942e-06
1.44508e-05
9.2594e-07
1.3513e-05
5.5213e-07
1.2608e-05
2.40007e-07
1.17358e-05
-3.19958e-08
1.09223e-05
-2.63931e-07
1.01523e-05
-4.35061e-07
9.40947e-06
-5.58222e-07
8.70877e-06
8.03778e-06
-6.15396e-07
1.01216e-05
1.90488e-05
8.60984e-06
1.96007e-05
7.16539e-06
1.83984e-05
5.89016e-06
1.75034e-05
4.75596e-06
1.65967e-05
3.79133e-06
1.57041e-05
2.9629e-06
1.4802e-05
2.24071e-06
1.39402e-05
1.58736e-06
1.30549e-05
1.06854e-06
1.21756e-05
6.49321e-07
1.13914e-05
2.98597e-07
1.06479e-05
-5.87105e-09
9.94862e-06
-2.43713e-07
9.26512e-06
-4.1034e-07
8.60182e-06
-5.25355e-07
7.96963e-06
-5.85322e-07
7.36057e-06
6.79967e-06
-6.22427e-07
9.33306e-06
1.55082e-05
7.96951e-06
1.59543e-05
6.64894e-06
1.49661e-05
5.47064e-06
1.42199e-05
4.43833e-06
1.3469e-05
3.54304e-06
1.27436e-05
2.7667e-06
1.20191e-05
2.11428e-06
1.13209e-05
1.53229e-06
1.06385e-05
1.03438e-06
9.93191e-06
6.276e-07
9.29648e-06
2.95784e-07
8.69655e-06
3.06058e-08
8.1375e-06
-1.82566e-07
7.59043e-06
-3.30944e-07
7.03377e-06
-4.29684e-07
6.50895e-06
-5.0817e-07
6.02133e-06
5.56255e-06
-5.59932e-07
8.22261e-06
1.20854e-05
7.15844e-06
1.2339e-05
6.07004e-06
1.16005e-05
5.05422e-06
1.10449e-05
4.11429e-06
1.0493e-05
3.2771e-06
9.94205e-06
2.52821e-06
9.40129e-06
1.87598e-06
8.87013e-06
1.33431e-06
8.32867e-06
8.69997e-07
7.78361e-06
4.91883e-07
7.28551e-06
1.81874e-07
6.82162e-06
-5.67407e-08
6.38518e-06
-2.37829e-07
5.9576e-06
-3.87396e-07
5.53038e-06
-4.91815e-07
5.10733e-06
-5.76091e-07
4.7332e-06
4.3672e-06
-6.31636e-07
7.34274e-06
8.91478e-06
6.44176e-06
8.93062e-06
5.53694e-06
8.39613e-06
4.66649e-06
8.04304e-06
3.85471e-06
7.68168e-06
3.10425e-06
7.32077e-06
2.42131e-06
6.96032e-06
1.80506e-06
6.60271e-06
1.26447e-06
6.21494e-06
7.84534e-07
5.82739e-06
3.91863e-07
5.44645e-06
4.82256e-08
5.1212e-06
-2.28238e-07
4.79686e-06
-4.27425e-07
4.45493e-06
-5.74521e-07
4.1248e-06
-7.10171e-07
3.82632e-06
-8.0663e-07
3.53722e-06
3.26533e-06
-8.84094e-07
6.49972e-06
5.94873e-06
5.82312e-06
5.68025e-06
5.04204e-06
5.43035e-06
4.24413e-06
5.3076e-06
3.46325e-06
5.15424e-06
2.72324e-06
4.98007e-06
2.03696e-06
4.79067e-06
1.40272e-06
4.59888e-06
8.43862e-07
4.34241e-06
3.46499e-07
4.09086e-06
-9.94293e-08
3.84226e-06
-4.82332e-07
3.62695e-06
-7.83139e-07
3.38127e-06
-1.04358e-06
3.14689e-06
-1.26641e-06
2.91516e-06
-1.44439e-06
2.69609e-06
-1.60233e-06
2.50064e-06
2.33686e-06
-1.76501e-06
6.07747e-06
3.26668e-06
5.30449e-06
2.90616e-06
4.3891e-06
2.95966e-06
3.44219e-06
3.05966e-06
2.48565e-06
3.11671e-06
1.58313e-06
3.09159e-06
7.73163e-07
3.01077e-06
7.90945e-08
2.89839e-06
-5.87064e-07
2.79707e-06
-1.1553e-06
2.62521e-06
-1.66537e-06
2.48365e-06
-2.08497e-06
2.33305e-06
-2.45323e-06
2.18032e-06
-2.77639e-06
2.03406e-06
-3.058e-06
1.88333e-06
-3.30342e-06
1.74015e-06
-3.51938e-06
1.61798e-06
1.5204e-06
-3.70803e-06
5.23967e-06
8.47874e-07
4.06081e-06
8.98596e-07
2.7375e-06
1.24011e-06
1.46196e-06
1.46211e-06
3.13609e-07
1.56884e-06
-6.96261e-07
1.58402e-06
-1.56796e-06
1.54363e-06
-2.29813e-06
1.46301e-06
-2.89965e-06
1.39829e-06
-3.4231e-06
1.30768e-06
-3.86072e-06
1.2298e-06
-4.23044e-06
1.15141e-06
-4.54613e-06
1.07491e-06
-4.81441e-06
1.00192e-06
-5.0471e-06
9.26788e-07
-5.25307e-06
8.58206e-07
-5.40952e-06
7.79514e-07
7.22689e-07
-5.52473e-06
3.15998e-06
1.16651e-06
-3.41923e-07
-1.4673e-06
-2.32193e-06
-2.99623e-06
-3.54711e-06
-4.02031e-06
-4.40758e-06
-4.74143e-06
-5.01807e-06
-5.24691e-06
-5.43516e-06
-5.5881e-06
-5.71686e-06
-5.8233e-06
-5.92644e-06
-6.01453e-06
-4.42533e-07
-1.32381e-06
-1.16046e-06
-1.15866e-06
-1.98611e-06
-1.07748e-06
-2.76079e-06
-1.13227e-06
-3.4136e-06
-1.25616e-06
-3.86089e-06
-1.44136e-06
-4.13304e-06
-1.58787e-06
-4.27407e-06
-1.69528e-06
-4.33364e-06
-1.75918e-06
-4.35502e-06
-1.78234e-06
-4.38041e-06
-1.76432e-06
-4.40315e-06
-1.74973e-06
-4.42349e-06
-1.73364e-06
-4.4408e-06
-1.71485e-06
-4.4303e-06
-1.71811e-06
-4.41738e-06
-1.69655e-06
-4.3843e-06
-1.68942e-06
-4.33617e-06
-1.67527e-06
-4.27078e-06
-1.6602e-06
-4.1956e-06
-1.63464e-06
-4.1017e-06
-1.61709e-06
-3.98795e-06
-1.60111e-06
-3.8732e-06
-1.56201e-06
-3.75618e-06
-1.52223e-06
-3.67113e-06
-1.44643e-06
-3.6057e-06
-1.38018e-06
-3.59104e-06
-1.28414e-06
-3.64338e-06
-1.1662e-06
-3.76271e-06
-1.05151e-06
-4.00075e-06
-8.8023e-07
-4.32605e-06
-7.3765e-07
-4.80076e-06
-5.31876e-07
-5.3913e-06
-3.49567e-07
-6.02055e-06
-2.44356e-07
-6.77244e-06
-4.01054e-08
-7.55738e-06
7.49791e-08
-8.10211e-06
-1.14593e-07
-8.47392e-06
-2.48125e-07
-8.69215e-06
-3.52021e-07
-8.71712e-06
-4.85805e-07
-8.76156e-06
-4.06833e-07
-8.98251e-06
-1.73297e-07
-9.26166e-06
-4.55432e-08
-9.41461e-06
-8.79506e-08
-9.2165e-06
-3.4723e-07
-8.68078e-06
-5.86392e-07
-8.04508e-06
-5.89882e-07
-7.40162e-06
-5.09955e-07
-6.65263e-06
-5.4687e-07
-6.11787e-06
-3.16115e-07
-5.40783e-06
-4.91683e-07
-4.18804e-06
-9.2858e-07
-2.34482e-06
-1.43719e-06
-7.65505e-07
-1.06363e-06
3.03061e-07
-4.88931e-07
1.02161e-06
-9.30434e-08
1.56573e-06
1.51436e-07
1.89272e-06
4.13206e-07
1.56252e-06
1.09333e-06
5.77613e-07
1.83126e-06
-6.52562e-07
2.16195e-06
-1.83502e-06
2.17069e-06
-2.85762e-06
2.06283e-06
-3.70983e-06
1.94462e-06
-4.38951e-06
1.82153e-06
-4.90668e-06
1.70578e-06
-5.26391e-06
1.58941e-06
-5.48478e-06
1.4982e-06
-5.55502e-06
1.38667e-06
-5.52768e-06
1.32719e-06
-5.40142e-06
1.26412e-06
-5.18167e-06
1.20449e-06
-4.89912e-06
1.17429e-06
-4.55491e-06
1.14379e-06
-4.16644e-06
1.13056e-06
-3.75666e-06
1.13996e-06
-3.31896e-06
1.1438e-06
-2.87467e-06
1.17032e-06
-2.45142e-06
1.22733e-06
-2.02467e-06
1.26218e-06
-1.59977e-06
1.30706e-06
-1.20808e-06
1.38245e-06
-8.06653e-07
1.42274e-06
-4.33537e-07
1.50514e-06
-8.89987e-08
1.59174e-06
2.714e-07
1.6386e-06
6.61653e-07
1.68157e-06
1.05543e-06
1.75335e-06
1.48914e-06
1.79281e-06
1.9287e-06
1.87188e-06
2.43621e-06
1.89157e-06
2.91875e-06
2.00921e-06
3.48171e-06
2.01937e-06
4.08135e-06
2.07343e-06
4.64006e-06
2.20214e-06
5.29643e-06
2.18493e-06
5.88568e-06
2.3266e-06
6.51316e-06
2.35102e-06
7.11846e-06
2.4254e-06
7.69386e-06
2.48884e-06
8.27017e-06
2.50061e-06
8.80246e-06
2.5414e-06
9.32385e-06
2.52826e-06
9.83952e-06
2.48789e-06
1.03887e-05
2.38635e-06
1.09753e-05
2.24765e-06
1.15187e-05
2.15663e-06
1.19912e-05
2.06619e-06
1.23688e-05
1.99124e-06
1.26885e-05
1.87235e-06
1.2913e-05
1.78137e-06
1.3026e-05
1.70767e-06
1.30629e-05
1.59282e-06
1.3007e-05
1.48167e-06
1.28791e-05
1.30969e-06
1.2636e-05
1.14675e-06
1.22784e-05
9.92964e-07
1.18448e-05
7.95737e-07
1.13484e-05
5.48139e-07
1.0841e-05
2.18575e-07
1.01884e-05
2.2764e-08
9.40862e-06
-2.04328e-07
8.59325e-06
-5.24392e-07
7.82348e-06
-9.09575e-07
7.2289e-06
-1.40739e-06
6.80068e-06
-1.90763e-06
6.39557e-06
-2.28413e-06
6.02957e-06
-2.67675e-06
5.76497e-06
-3.12319e-06
5.5066e-06
-3.50368e-06
5.52355e-06
-4.16465e-06
5.85951e-06
-4.90422e-06
6.05553e-06
-5.18801e-06
6.41763e-06
-5.77056e-06
6.47844e-06
-5.88895e-06
7.17198e-06
-6.92318e-06
6.66163e-06
-6.15399e-06
8.15406e-06
-8.53243e-06
8.65138e-06
-8.15044e-06
1.06739e-05
-9.98519e-06
1.16829e-05
-9.4633e-06
1.2588e-05
-9.80793e-06
1.34598e-05
-1.01743e-05
1.41853e-05
-1.04609e-05
1.45956e-05
-1.06585e-05
1.55736e-05
-1.16372e-05
1.69597e-05
-1.26245e-05
1.86097e-05
-1.3631e-05
2.00246e-05
-1.42391e-05
2.11056e-05
-1.46606e-05
2.1774e-05
-1.48667e-05
2.20606e-05
-1.50737e-05
2.19275e-05
-1.52168e-05
2.11443e-05
-1.51592e-05
1.97044e-05
-1.50721e-05
1.79496e-05
-1.53938e-05
1.5769e-05
-1.56057e-05
1.38461e-05
-1.65062e-05
1.17703e-05
-1.69986e-05
1.02707e-05
-1.8162e-05
8.62244e-06
-1.85306e-05
7.3423e-06
-1.93587e-05
6.19498e-06
-1.97202e-05
4.74593e-06
-1.97428e-05
5.08299e-06
-2.15525e-05
4.20923e-06
-2.02976e-05
2.81558e-06
-1.98255e-05
1.55693e-06
-1.93572e-05
2.25211e-07
-1.83643e-05
-9.23378e-07
-1.71688e-05
-2.92847e-06
-1.47557e-05
-7.04715e-06
-1.1549e-05
-1.30608e-05
-8.8282e-06
-1.5287e-05
-1.16825e-05
-1.48997e-05
-1.25391e-05
-1.4776e-05
-1.06141e-05
-1.56725e-05
-8.17308e-06
-1.66761e-05
-6.82198e-06
-1.77843e-05
-5.73718e-06
-6.05229e-06
-1.77714e-05
-3.52331e-07
-2.68582e-06
-8.12322e-07
-2.5321e-06
-1.45474e-06
-2.35873e-06
-2.1646e-06
-2.36713e-06
-2.76454e-06
-2.54263e-06
-3.18283e-06
-2.81242e-06
-3.39533e-06
-3.08465e-06
-3.50436e-06
-3.25237e-06
-3.57028e-06
-3.33969e-06
-3.61633e-06
-3.37363e-06
-3.66737e-06
-3.34464e-06
-3.72483e-06
-3.31229e-06
-3.77573e-06
-3.28975e-06
-3.823e-06
-3.25886e-06
-3.84491e-06
-3.26921e-06
-3.85729e-06
-3.24071e-06
-3.84598e-06
-3.23742e-06
-3.82461e-06
-3.21167e-06
-3.77773e-06
-3.19726e-06
-3.69065e-06
-3.18341e-06
-3.57487e-06
-3.165e-06
-3.41726e-06
-3.16376e-06
-3.2402e-06
-3.10908e-06
-3.02664e-06
-3.06995e-06
-2.80053e-06
-2.9665e-06
-2.57941e-06
-2.85307e-06
-2.37594e-06
-2.69711e-06
-2.20604e-06
-2.49727e-06
-2.07351e-06
-2.30544e-06
-2.00798e-06
-2.01676e-06
-1.98448e-06
-1.78722e-06
-2.02168e-06
-1.47168e-06
-2.1774e-06
-1.12727e-06
-2.374e-06
-9.27614e-07
-2.71107e-06
-5.23772e-07
-3.08594e-06
-3.28754e-07
-3.66724e-06
-2.34118e-07
-4.54966e-06
4.89105e-08
-5.55144e-06
8.20334e-08
-6.5117e-06
-1.30826e-07
-7.28784e-06
-1.80524e-07
-7.85926e-06
-1.49336e-08
-8.18928e-06
1.01434e-08
-8.27658e-06
-1.78094e-07
-8.07292e-06
-6.54331e-07
-7.44686e-06
-1.22423e-06
-6.61673e-06
-1.37528e-06
-5.61124e-06
-1.46287e-06
-5.13303e-06
-8.90457e-07
-4.86395e-06
-3.35833e-07
-3.30528e-06
-1.73709e-06
-1.76241e-06
-2.10706e-06
-1.21032e-06
-1.53374e-06
-1.17496e-06
-5.72196e-07
-1.85931e-06
7.67124e-07
-3.14671e-06
1.81777e-06
-4.80067e-06
2.48663e-06
-6.50965e-06
2.8612e-06
-7.86378e-06
3.24986e-06
-8.77061e-06
3.61289e-06
-9.43742e-06
3.76519e-06
-1.00184e-05
3.74045e-06
-1.04561e-05
3.53791e-06
-1.07735e-05
3.34582e-06
-1.09661e-05
3.14201e-06
-1.10303e-05
2.93898e-06
-1.10023e-05
2.76892e-06
-1.08119e-05
2.55236e-06
-1.05821e-05
2.4374e-06
-1.02444e-05
2.30343e-06
-9.81928e-06
2.18505e-06
-9.33346e-06
2.09283e-06
-8.78056e-06
2.02572e-06
-8.18714e-06
1.98106e-06
-7.57946e-06
1.98177e-06
-6.97531e-06
2.02122e-06
-6.37186e-06
2.05552e-06
-5.77182e-06
2.11376e-06
-5.17809e-06
2.20977e-06
-4.59602e-06
2.29078e-06
-4.01598e-06
2.37516e-06
-3.47615e-06
2.53235e-06
-2.93275e-06
2.61408e-06
-2.42335e-06
2.78281e-06
-1.95763e-06
2.96719e-06
-1.47725e-06
3.05861e-06
-9.75631e-07
3.14826e-06
-4.42175e-07
3.26514e-06
9.35056e-08
3.37961e-06
6.87415e-07
3.48689e-06
1.30868e-06
3.56924e-06
1.92484e-06
3.79344e-06
2.54401e-06
3.88418e-06
3.253e-06
3.95525e-06
3.94715e-06
4.19806e-06
4.5996e-06
4.31201e-06
5.32637e-06
4.47551e-06
6.02893e-06
4.59489e-06
6.66435e-06
4.81302e-06
7.35134e-06
4.86396e-06
8.03852e-06
4.9189e-06
8.6531e-06
5.0379e-06
9.26357e-06
5.01457e-06
9.88363e-06
4.92652e-06
1.05501e-05
4.70939e-06
1.11288e-05
4.54494e-06
1.16578e-05
4.34815e-06
1.20305e-05
4.22745e-06
1.22866e-05
4.088e-06
1.25054e-05
3.8385e-06
1.26424e-05
3.656e-06
1.26662e-05
3.53381e-06
1.25778e-05
3.37454e-06
1.23954e-05
3.16502e-06
1.21707e-05
2.7711e-06
1.18572e-05
2.37084e-06
1.13358e-05
2.11608e-06
1.06765e-05
1.76439e-06
9.98012e-06
1.21707e-06
9.45031e-06
3.95544e-07
8.95817e-06
-1.86463e-07
8.36415e-06
-7.55376e-07
7.64755e-06
-1.42215e-06
6.85356e-06
-2.11376e-06
6.18517e-06
-2.97749e-06
5.78992e-06
-3.95607e-06
5.51954e-06
-4.74958e-06
5.37247e-06
-5.60551e-06
5.39448e-06
-6.51198e-06
5.40188e-06
-7.21061e-06
5.77887e-06
-8.6368e-06
6.31613e-06
-9.99874e-06
6.8551e-06
-1.07897e-05
7.58471e-06
-1.20515e-05
7.875e-06
-1.21684e-05
8.66311e-06
-1.4178e-05
8.17322e-06
-1.25185e-05
9.99497e-06
-1.68475e-05
1.06646e-05
-1.64401e-05
1.34764e-05
-2.04828e-05
1.44343e-05
-1.91419e-05
1.56395e-05
-2.01017e-05
1.66286e-05
-2.07081e-05
1.71629e-05
-2.03264e-05
1.72527e-05
-2.01572e-05
1.83042e-05
-2.16879e-05
2.07094e-05
-2.38833e-05
2.40379e-05
-2.64097e-05
2.7234e-05
-2.83857e-05
2.94112e-05
-2.97961e-05
3.0314e-05
-3.03169e-05
2.97931e-05
-3.01288e-05
2.80354e-05
-2.95859e-05
2.54881e-05
-2.92007e-05
2.24083e-05
-2.90602e-05
1.95112e-05
-2.99981e-05
1.68389e-05
-3.10137e-05
1.48076e-05
-3.30441e-05
1.27849e-05
-3.43265e-05
1.15327e-05
-3.65148e-05
1.01914e-05
-3.74531e-05
9.28202e-06
-3.91479e-05
8.43413e-06
-3.9961e-05
7.00557e-06
-3.9957e-05
8.00607e-06
-4.30996e-05
7.27259e-06
-4.11873e-05
6.40006e-06
-4.16778e-05
5.48313e-06
-4.15387e-05
4.54755e-06
-4.00442e-05
3.00208e-06
-3.69268e-05
1.43455e-08
-3.11619e-05
-5.24162e-06
-2.42242e-05
-1.17744e-05
-1.9706e-05
-1.27148e-05
-2.68042e-05
-1.09301e-05
-2.86474e-05
-9.7205e-06
-2.41616e-05
-1.02139e-05
-1.86053e-05
-1.18806e-05
-1.41724e-05
-1.41868e-05
-1.1243e-05
-1.20743e-05
-1.51404e-05
-3.96621e-07
-3.92647e-06
-8.42447e-07
-3.80121e-06
-1.37737e-06
-3.59881e-06
-1.91447e-06
-3.58332e-06
-2.31177e-06
-3.79709e-06
-2.58253e-06
-4.103e-06
-2.76065e-06
-4.43056e-06
-2.89509e-06
-4.64495e-06
-3.02078e-06
-4.75485e-06
-3.16267e-06
-4.78651e-06
-3.30594e-06
-4.76316e-06
-3.44879e-06
-4.73198e-06
-3.58611e-06
-4.71335e-06
-3.71495e-06
-4.68733e-06
-3.85114e-06
-4.6872e-06
-3.96708e-06
-4.67215e-06
-4.04895e-06
-4.69378e-06
-4.09293e-06
-4.69085e-06
-4.12975e-06
-4.66539e-06
-4.13006e-06
-4.66367e-06
-4.08951e-06
-4.66312e-06
-3.98439e-06
-4.69513e-06
-3.81332e-06
-4.66921e-06
-3.59196e-06
-4.64462e-06
-3.34366e-06
-4.51993e-06
-3.11434e-06
-4.34713e-06
-2.87575e-06
-4.14951e-06
-2.66609e-06
-3.86992e-06
-2.47353e-06
-3.60742e-06
-2.29562e-06
-3.24154e-06
-2.18193e-06
-2.89306e-06
-2.06261e-06
-2.53195e-06
-1.97241e-06
-2.09862e-06
-1.9836e-06
-1.75e-06
-1.93641e-06
-1.35016e-06
-2.03174e-06
-9.56416e-07
-2.26722e-06
-6.72178e-07
-2.40133e-06
-4.21891e-07
-2.69815e-06
-1.54947e-07
-3.38035e-06
8.76869e-08
-4.21075e-06
2.31415e-07
-4.92911e-06
2.67819e-07
-5.43879e-06
1.39625e-07
-5.72664e-06
-1.07856e-07
-5.91336e-06
-5.44084e-07
-5.97278e-06
-1.1079e-06
-5.70186e-06
-1.57271e-06
-5.23669e-06
-1.86233e-06
-5.04262e-06
-9.47875e-07
-4.20468e-06
-9.99169e-07
-3.63399e-06
-1.95517e-06
-4.27159e-06
-1.03774e-06
-5.97622e-06
6.13096e-07
-7.6933e-06
1.61433e-06
-9.02551e-06
2.62405e-06
-9.99743e-06
3.37586e-06
-1.08219e-05
3.96725e-06
-1.1577e-05
4.32675e-06
-1.2149e-05
4.58859e-06
-1.23789e-05
4.66078e-06
-1.23977e-05
4.6451e-06
-1.22662e-05
4.5096e-06
-1.20866e-05
4.30114e-06
-1.18216e-05
4.05807e-06
-1.15142e-05
3.85051e-06
-1.11456e-05
3.61813e-06
-1.07149e-05
3.42193e-06
-1.02756e-05
3.22635e-06
-9.75647e-06
3.06254e-06
-9.20026e-06
2.91652e-06
-8.60714e-06
2.78726e-06
-7.98491e-06
2.68501e-06
-7.34232e-06
2.62074e-06
-6.69888e-06
2.59484e-06
-6.02119e-06
2.57976e-06
-5.34462e-06
2.64011e-06
-4.67728e-06
2.70326e-06
-4.00499e-06
2.77779e-06
-3.39817e-06
2.95896e-06
-2.79807e-06
3.07391e-06
-2.24039e-06
3.22813e-06
-1.70577e-06
3.43903e-06
-1.16795e-06
3.55093e-06
-6.74483e-07
3.80149e-06
-2.02268e-07
4.04385e-06
2.64689e-07
4.18605e-06
7.58119e-07
4.30233e-06
1.27382e-06
4.45387e-06
1.79543e-06
4.62381e-06
2.31325e-06
4.79782e-06
2.90533e-06
4.8774e-06
3.50862e-06
5.16286e-06
4.11133e-06
5.31789e-06
4.71789e-06
5.47175e-06
5.326e-06
5.78561e-06
5.97324e-06
5.92867e-06
6.58031e-06
6.20833e-06
7.16132e-06
6.40702e-06
7.80724e-06
6.62786e-06
8.38052e-06
6.78414e-06
8.90644e-06
6.94215e-06
9.48881e-06
7.01743e-06
1.00437e-05
7.01986e-06
1.05864e-05
6.92979e-06
1.10305e-05
6.76191e-06
1.14063e-05
6.5946e-06
1.18026e-05
6.3147e-06
1.21555e-05
6.15462e-06
1.24176e-05
5.96352e-06
1.25236e-05
5.67837e-06
1.24238e-05
5.50358e-06
1.22341e-05
5.2738e-06
1.2058e-05
4.92351e-06
1.19639e-05
4.48352e-06
1.19608e-05
3.84306e-06
1.19324e-05
3.22678e-06
1.16102e-05
2.79953e-06
1.07139e-05
2.40898e-06
9.61852e-06
1.78565e-06
8.72025e-06
7.99745e-07
8.1658e-06
-2.43568e-07
7.71553e-06
-1.30522e-06
7.48339e-06
-2.60769e-06
7.35895e-06
-3.90591e-06
7.10083e-06
-5.15402e-06
7.05006e-06
-6.67467e-06
7.08159e-06
-7.78623e-06
7.30828e-06
-9.21369e-06
7.56578e-06
-1.05647e-05
7.67857e-06
-1.13743e-05
8.08222e-06
-1.33554e-05
8.58455e-06
-1.50779e-05
9.45761e-06
-1.67103e-05
1.02495e-05
-1.87179e-05
1.0657e-05
-1.89312e-05
1.13624e-05
-2.18927e-05
9.89252e-06
-1.88742e-05
1.15352e-05
-2.42158e-05
1.20258e-05
-2.37539e-05
1.47418e-05
-2.91629e-05
1.5867e-05
-2.80765e-05
1.78839e-05
-3.04888e-05
1.88753e-05
-3.25439e-05
1.8139e-05
-3.09638e-05
1.71924e-05
-2.98561e-05
1.67443e-05
-3.07085e-05
1.80518e-05
-3.32045e-05
2.14801e-05
-3.68175e-05
2.59208e-05
-3.97638e-05
3.01407e-05
-4.2705e-05
3.28109e-05
-4.44451e-05
3.28709e-05
-4.44524e-05
3.04063e-05
-4.29479e-05
2.67716e-05
-4.18936e-05
2.29278e-05
-4.17151e-05
1.97937e-05
-4.34707e-05
1.72657e-05
-4.53816e-05
1.56565e-05
-4.84925e-05
1.38016e-05
-5.04034e-05
1.27555e-05
-5.32652e-05
1.14399e-05
-5.45654e-05
1.08921e-05
-5.66907e-05
1.04045e-05
-5.78823e-05
8.90299e-06
-5.77576e-05
9.88619e-06
-6.09862e-05
9.44467e-06
-5.83859e-05
9.18866e-06
-5.91851e-05
8.36312e-06
-5.93989e-05
7.15699e-06
-5.83389e-05
5.75319e-06
-5.55925e-05
2.37604e-06
-4.77861e-05
-3.31532e-06
-3.6598e-05
-1.00157e-05
-3.05698e-05
-1.0801e-05
-4.1347e-05
-8.68293e-06
-4.42138e-05
-6.76945e-06
-3.76969e-05
-6.24399e-06
-3.0209e-05
-7.43513e-06
-2.25875e-05
-1.02327e-05
-1.68325e-05
-1.77825e-05
-1.19837e-05
-4.56952e-07
-5.01574e-06
-9.18807e-07
-4.91617e-06
-1.3367e-06
-4.75241e-06
-1.63529e-06
-4.80839e-06
-1.82604e-06
-5.08061e-06
-1.95992e-06
-5.4384e-06
-2.09801e-06
-5.78872e-06
-2.25892e-06
-6.00821e-06
-2.44912e-06
-6.10593e-06
-2.66565e-06
-6.11849e-06
-2.88505e-06
-6.09184e-06
-3.09805e-06
-6.06456e-06
-3.32093e-06
-6.0378e-06
-3.55094e-06
-6.00642e-06
-3.79722e-06
-5.99128e-06
-4.003e-06
-6.01105e-06
-4.17515e-06
-6.05256e-06
-4.29084e-06
-6.08456e-06
-4.35839e-06
-6.08603e-06
-4.34369e-06
-6.13361e-06
-4.22419e-06
-6.20633e-06
-4.05709e-06
-6.24471e-06
-3.8372e-06
-6.23559e-06
-3.60424e-06
-6.18567e-06
-3.33099e-06
-6.05056e-06
-3.08697e-06
-5.81805e-06
-2.8908e-06
-5.52168e-06
-2.73117e-06
-5.15825e-06
-2.60621e-06
-4.81294e-06
-2.49513e-06
-4.37759e-06
-2.42901e-06
-3.93603e-06
-2.32984e-06
-3.53979e-06
-2.28829e-06
-2.99319e-06
-2.24824e-06
-2.60473e-06
-2.18338e-06
-2.15593e-06
-2.14888e-06
-1.69149e-06
-1.98845e-06
-1.46895e-06
-1.998e-06
-9.87685e-07
-2.04122e-06
-6.27671e-07
-1.89593e-06
-5.04648e-07
-1.99624e-06
-3.93377e-08
-2.20061e-06
1.66614e-07
-2.24893e-06
-8.69087e-08
-2.35987e-06
-1.9835e-07
-2.71672e-06
-2.63508e-07
-3.02509e-06
-8.41864e-07
-2.88431e-06
-1.7358e-06
-2.95242e-06
-1.65914e-06
-2.68287e-06
-1.01958e-06
-2.66587e-06
-8.1948e-07
-4.69388e-06
3.60274e-07
-7.12208e-06
1.70161e-06
-8.86856e-06
2.73492e-06
-1.03918e-05
3.57347e-06
-1.14842e-05
4.22398e-06
-1.21966e-05
4.65196e-06
-1.26022e-05
4.98065e-06
-1.27383e-05
5.12471e-06
-1.26646e-05
5.22729e-06
-1.2437e-05
5.17656e-06
-1.21e-05
5.09677e-06
-1.16905e-05
4.92494e-06
-1.12793e-05
4.75812e-06
-1.08534e-05
4.53717e-06
-1.04077e-05
4.35072e-06
-9.92244e-06
4.11298e-06
-9.42122e-06
3.93821e-06
-8.89105e-06
3.74425e-06
-8.31806e-06
3.57081e-06
-7.7095e-06
3.41644e-06
-7.03778e-06
3.24859e-06
-6.40719e-06
3.21037e-06
-5.71323e-06
3.09711e-06
-4.99421e-06
3.06917e-06
-4.25586e-06
3.04994e-06
-3.51688e-06
3.12474e-06
-2.81215e-06
3.23909e-06
-2.08813e-06
3.31494e-06
-1.45823e-06
3.60276e-06
-8.43182e-07
3.7554e-06
-2.47227e-07
3.95215e-06
2.6799e-07
4.27119e-06
7.78614e-07
4.41996e-06
1.31713e-06
4.67539e-06
1.76188e-06
5.04929e-06
2.18288e-06
5.25658e-06
2.64775e-06
5.37994e-06
3.17011e-06
5.52103e-06
3.7193e-06
5.71966e-06
4.23141e-06
5.97641e-06
4.86564e-06
5.99673e-06
5.47098e-06
6.3577e-06
6.06501e-06
6.58135e-06
6.64612e-06
6.79882e-06
7.29715e-06
7.08662e-06
7.90992e-06
7.31272e-06
8.50138e-06
7.64885e-06
9.10483e-06
7.86992e-06
9.62544e-06
8.19385e-06
1.01285e-05
8.3745e-06
1.06551e-05
8.51306e-06
1.11612e-05
8.59506e-06
1.1565e-05
8.64482e-06
1.18846e-05
8.58281e-06
1.21496e-05
8.44489e-06
1.25562e-05
8.18041e-06
1.29778e-05
7.91942e-06
1.32018e-05
7.85511e-06
1.30996e-05
7.75229e-06
1.28608e-05
7.3639e-06
1.27537e-05
6.96029e-06
1.27797e-05
6.54429e-06
1.2741e-05
6.13445e-06
1.25647e-05
5.60246e-06
1.22264e-05
4.79523e-06
1.19943e-05
3.87533e-06
1.1834e-05
3.18849e-06
1.14273e-05
2.54036e-06