/*--------------------------------*- C++ -*----------------------------------*\
| =========                 |                                                 |
| \\      /  F ield         | OpenFOAM: The Open Source CFD Toolbox           |
|  \\    /   O peration     | Version:  dev                                   |
|   \\  /    A nd           | Web:      http://www.openfoam.org               |
|    \\/     M anipulation  |                                                 |
\*---------------------------------------------------------------------------*/
FoamFile
{
    version     2.0;
    format      ascii;
    class       surfaceScalarField;
    object      phi_0;
    location    "9.121";
}
// * * * * * * * * * * * * * * * * * * * * * * * * * * * * * * * * * * * * * //

dimensions      [1 0 -1 0 0 0 0];

internalField   nonuniform List<scalar> 
24170
(
1.8857e-06
2.84839e-06
6.10229e-07
2.26869e-06
-1.01755e-07
1.70183e-06
-4.96353e-07
1.38109e-06
-7.84698e-07
1.27561e-06
-8.41548e-07
1.04233e-06
-9.99165e-07
1.13923e-06
-8.17681e-07
7.90086e-07
-9.21568e-07
1.05958e-06
-4.49693e-07
4.64755e-07
-5.13481e-07
9.71038e-07
2.63188e-07
9.70612e-08
3.83626e-07
7.21242e-07
1.72933e-06
-5.57598e-07
2.65889e-06
-1.92965e-07
6.79981e-06
-3.42631e-06
9.72328e-06
-2.23628e-06
2.83737e-06
7.60134e-06
3.63753e-06
4.59816e-06
2.50752e-06
4.52317e-06
1.60426e-06
3.71976e-06
8.82207e-07
3.21289e-06
4.66922e-07
2.79824e-06
-4.50833e-09
2.62227e-06
-1.78387e-07
2.41483e-06
-2.93471e-07
1.99979e-06
-3.47782e-07
2.18695e-06
-1.09329e-07
1.28249e-06
-7.28005e-09
1.88628e-06
6.31181e-07
4.42625e-07
1.05938e-06
1.23458e-06
2.16906e-06
-7.81544e-07
3.15683e-06
-3.55726e-07
5.33323e-06
-4.83302e-06
5.14319e-06
-1.31581e-06
4.15477e-06
4.54178e-06
4.45083e-06
5.88048e-06
3.79248e-06
6.41562e-06
3.18182e-06
5.55394e-06
2.52352e-06
5.08335e-06
2.02329e-06
4.51363e-06
1.58785e-06
4.26469e-06
1.40342e-06
3.80942e-06
1.1574e-06
3.43535e-06
1.29459e-06
3.23011e-06
1.38891e-06
2.33863e-06
1.47384e-06
2.92419e-06
2.02173e-06
9.68905e-07
1.87992e-06
2.41309e-06
2.68626e-06
-6.07593e-07
2.79378e-06
4.56379e-07
3.9943e-06
-5.16313e-06
3.89584e-06
-3.96987e-07
5.50993e-06
3.32311e-06
4.77442e-06
7.51232e-06
4.45553e-06
8.07395e-06
3.99944e-06
7.35324e-06
3.68881e-06
6.70867e-06
3.1761e-06
6.35926e-06
3.10468e-06
5.64533e-06
2.69036e-06
5.54774e-06
2.81949e-06
4.59656e-06
2.52154e-06
4.8159e-06
2.7645e-06
3.34326e-06
2.59641e-06
4.31524e-06
3.0017e-06
1.73356e-06
2.86234e-06
3.68e-06
3.09293e-06
2.36089e-07
2.34698e-06
2.21387e-06
3.19389e-06
-5.04579e-06
3.87571e-06
-1.71448e-07
5.58406e-06
4.6344e-06
4.88855e-06
9.70536e-06
4.98217e-06
9.43089e-06
4.42114e-06
9.37598e-06
4.40001e-06
8.15983e-06
3.72104e-06
8.48689e-06
3.8267e-06
6.97167e-06
3.25364e-06
7.55714e-06
3.48825e-06
5.77776e-06
3.09521e-06
6.60648e-06
3.32928e-06
4.47762e-06
3.19155e-06
5.78205e-06
3.35363e-06
2.85445e-06
3.34928e-06
4.91317e-06
3.84403e-06
9.11704e-07
3.62136e-06
3.54251e-06
3.37703e-06
-3.75946e-06
2.76394e-06
1.42798e-06
5.81813e-06
3.41754e-06
5.3585e-06
1.20635e-05
5.18341e-06
1.11827e-05
4.45868e-06
1.16757e-05
4.41547e-06
9.75953e-06
3.78802e-06
1.06796e-05
3.91016e-06
8.40927e-06
3.42637e-06
9.59797e-06
3.69243e-06
7.05412e-06
3.35911e-06
8.46136e-06
3.66844e-06
5.65834e-06
3.62492e-06
7.27499e-06
3.85685e-06
4.01957e-06
4.19256e-06
5.91817e-06
4.48924e-06
1.88886e-06
4.92836e-06
4.31606e-06
3.19504e-06
-8.92754e-07
1.86333e-06
3.83021e-06
4.56183e-06
4.0939e-06
5.87335e-06
1.45453e-05
5.47613e-06
1.32736e-05
4.79566e-06
1.40394e-05
4.60501e-06
1.16214e-05
4.1144e-06
1.28509e-05
4.08356e-06
1.01161e-05
3.75129e-06
1.16078e-05
3.86421e-06
8.60225e-06
3.78661e-06
1.01812e-05
4.00187e-06
7.05028e-06
4.22675e-06
8.61446e-06
4.38486e-06
5.37229e-06
4.76585e-06
6.98577e-06
4.63103e-06
3.4034e-06
4.81921e-06
5.44306e-06
3.29612e-06
1.86908e-06
3.25163e-06
5.0559e-06
4.0295e-06
4.83224e-06
4.68339e-06
1.6431e-05
4.28339e-06
1.49495e-05
3.83486e-06
1.57558e-05
3.56112e-06
1.31566e-05
3.30982e-06
1.43707e-05
3.11933e-06
1.1574e-05
3.08308e-06
1.2913e-05
2.98623e-06
9.95792e-06
3.14517e-06
1.12665e-05
3.11715e-06
8.29837e-06
3.3584e-06
9.5598e-06
3.33257e-06
6.54777e-06
3.62152e-06
7.79731e-06
3.35288e-06
4.72283e-06
3.58661e-06
6.2101e-06
2.85498e-06
3.54375e-06
3.41703e-06
5.39622e-06
4.38962e-06
3.86143e-06
5.59282e-06
1.83579e-05
4.99157e-06
1.69814e-05
4.4757e-06
1.76885e-05
4.06327e-06
1.49879e-05
3.83446e-06
1.6022e-05
3.52567e-06
1.33127e-05
3.56466e-06
1.42999e-05
3.34272e-06
1.16023e-05
3.54537e-06
1.2465e-05
3.42299e-06
9.80153e-06
3.66745e-06
1.06538e-05
3.55783e-06
7.96159e-06
3.84359e-06
8.75457e-06
3.55684e-06
6.20135e-06
3.85834e-06
7.04212e-06
3.40568e-06
5.06683e-06
3.95136e-06
5.87073e-06
5.24668e-06
4.02939e-06
6.59151e-06
2.0684e-05
5.73226e-06
1.94212e-05
5.1707e-06
1.98099e-05
4.56384e-06
1.71664e-05
4.38263e-06
1.77743e-05
3.95759e-06
1.5327e-05
4.03767e-06
1.58027e-05
3.72643e-06
1.34988e-05
3.98486e-06
1.37687e-05
3.75196e-06
1.15756e-05
4.03735e-06
1.18654e-05
3.8579e-06
9.59928e-06
4.16117e-06
9.84379e-06
3.86334e-06
7.83506e-06
4.22318e-06
7.95552e-06
3.94937e-06
6.54304e-06
4.42449e-06
6.54189e-06
6.0685e-06
4.67129e-06
7.52495e-06
2.33797e-05
6.62425e-06
2.20264e-05
6.12998e-06
2.19826e-05
5.33288e-06
1.9665e-05
5.06121e-06
1.97456e-05
4.46189e-06
1.76565e-05
4.41657e-06
1.75722e-05
4.01192e-06
1.56385e-05
4.16758e-06
1.53241e-05
3.94772e-06
1.34879e-05
4.24043e-06
1.32185e-05
4.11094e-06
1.13343e-05
4.4484e-06
1.10452e-05
4.21246e-06
9.5507e-06
4.52938e-06
9.04884e-06
4.38109e-06
8.02995e-06
4.69767e-06
7.49703e-06
6.94333e-06
5.02106e-06
8.78004e-06
2.55929e-05
7.67828e-06
2.48936e-05
7.01661e-06
2.43889e-05
6.03368e-06
2.24277e-05
5.66376e-06
2.19037e-05
4.99036e-06
2.01569e-05
4.90274e-06
1.94891e-05
4.48454e-06
1.79037e-05
4.58206e-06
1.70557e-05
4.34346e-06
1.55408e-05
4.66209e-06
1.46706e-05
4.49568e-06
1.32307e-05
4.75942e-06
1.24497e-05
4.66282e-06
1.1254e-05
4.85285e-06
1.03922e-05
4.87882e-06
9.46526e-06
5.07217e-06
8.69336e-06
7.98652e-06
5.3444e-06
9.98925e-06
2.85242e-05
8.66334e-06
2.79364e-05
7.85021e-06
2.6918e-05
6.79863e-06
2.52422e-05
6.23146e-06
2.42629e-05
5.54262e-06
2.26881e-05
5.29576e-06
2.16006e-05
4.88786e-06
2.0204e-05
4.80578e-06
1.90275e-05
4.60331e-06
1.76245e-05
4.75357e-06
1.63669e-05
4.69338e-06
1.50972e-05
4.84797e-06
1.40476e-05
4.90381e-06
1.28893e-05
5.02877e-06
1.18871e-05
5.1346e-06
1.09094e-05
5.27262e-06
1.00334e-05
9.1815e-06
5.48401e-06
1.15327e-05
3.14224e-05
1.00262e-05
3.09291e-05
8.95911e-06
2.95033e-05
7.80489e-06
2.79806e-05
6.9853e-06
2.67295e-05
6.17921e-06
2.5211e-05
5.69998e-06
2.3849e-05
5.2347e-06
2.24823e-05
5.00746e-06
2.10878e-05
4.8002e-06
1.96705e-05
4.7487e-06
1.8241e-05
4.79762e-06
1.68403e-05
4.86876e-06
1.57277e-05
4.9736e-06
1.44828e-05
5.09174e-06
1.34066e-05
5.21485e-06
1.23624e-05
5.34607e-06
1.14128e-05
1.05038e-05
5.47067e-06
1.33434e-05
3.42408e-05
1.14065e-05
3.383e-05
9.88453e-06
3.2063e-05
8.51299e-06
3.04935e-05
7.49498e-06
2.90004e-05
6.65445e-06
2.74128e-05
6.02017e-06
2.59399e-05
5.53476e-06
2.45019e-05
5.19873e-06
2.30141e-05
4.95679e-06
2.15384e-05
4.76698e-06
2.00719e-05
4.69981e-06
1.85445e-05
4.71735e-06
1.73272e-05
4.68686e-06
1.60967e-05
4.77029e-06
1.48671e-05
4.8464e-06
1.3786e-05
4.93344e-06
1.27741e-05
1.18141e-05
5.02458e-06
1.55139e-05
3.6379e-05
1.33989e-05
3.59514e-05
1.15393e-05
3.40564e-05
9.88945e-06
3.24426e-05
8.53547e-06
3.08323e-05
7.40075e-06
2.91965e-05
6.47897e-06
2.76666e-05
5.77667e-06
2.61432e-05
5.23743e-06
2.46051e-05
4.84314e-06
2.30716e-05
4.54883e-06
2.15704e-05
4.24539e-06
2.00958e-05
4.18755e-06
1.86527e-05
4.11656e-06
1.74385e-05
4.05582e-06
1.6197e-05
4.10149e-06
1.49962e-05
4.14767e-06
1.39626e-05
1.29677e-05
4.20742e-06
1.82642e-05
3.73572e-05
1.57807e-05
3.68095e-05
1.34407e-05
3.49892e-05
1.12747e-05
3.34619e-05
9.40555e-06
3.1833e-05
7.83046e-06
3.01711e-05
6.59389e-06
2.85515e-05
5.62997e-06
2.69785e-05
4.8697e-06
2.54361e-05
4.27876e-06
2.39018e-05
3.82991e-06
2.24027e-05
3.48593e-06
2.09408e-05
3.16692e-06
1.9562e-05
3.0016e-06
1.82615e-05
2.88816e-06
1.70245e-05
2.78434e-06
1.58507e-05
2.77534e-06
1.47516e-05
1.37663e-05
2.77639e-06
1.84064e-05
3.66101e-05
1.56215e-05
3.613e-05
1.3073e-05
3.43512e-05
1.08173e-05
3.2865e-05
8.93537e-06
3.12175e-05
7.33626e-06
2.96164e-05
6.00875e-06
2.80516e-05
4.90035e-06
2.65599e-05
3.97674e-06
2.51074e-05
3.1982e-06
2.36735e-05
2.55762e-06
2.22579e-05
2.01412e-06
2.08894e-05
1.5703e-06
1.9577e-05
1.22934e-06
1.83105e-05
9.49353e-07
1.71358e-05
7.53576e-07
1.59786e-05
6.00773e-07
1.49259e-05
1.3915e-05
5.48339e-07
1.63758e-05
3.43738e-05
1.37215e-05
3.4169e-05
1.14576e-05
3.22979e-05
9.49383e-06
3.08642e-05
7.67676e-06
2.94377e-05
6.1279e-06
2.79256e-05
4.73884e-06
2.65485e-05
3.60799e-06
2.51254e-05
2.6782e-06
2.3774e-05
1.90494e-06
2.24615e-05
1.25746e-06
2.11734e-05
7.14194e-07
1.99293e-05
2.87674e-07
1.87137e-05
-6.28601e-08
1.75507e-05
-3.22286e-07
1.64477e-05
-5.75293e-07
1.54305e-05
-7.29242e-07
1.44074e-05
1.34803e-05
-8.54875e-07
1.44131e-05
3.17423e-05
1.21258e-05
3.12029e-05
1.00869e-05
2.93715e-05
8.26579e-06
2.80672e-05
6.66486e-06
2.67794e-05
5.22108e-06
2.54613e-05
3.89376e-06
2.43133e-05
2.80167e-06
2.29858e-05
1.87237e-06
2.17812e-05
1.08034e-06
2.06199e-05
4.06878e-07
1.94805e-05
-1.40262e-07
1.83576e-05
-5.74113e-07
1.72573e-05
-9.07339e-07
1.6198e-05
-1.14998e-06
1.51895e-05
-1.29859e-06
1.42483e-05
-1.417e-06
1.33479e-05
1.24961e-05
-1.47555e-06
1.26707e-05
2.80067e-05
1.09652e-05
2.73978e-05
9.22823e-06
2.5864e-05
7.55756e-06
2.48188e-05
6.05355e-06
2.36989e-05
4.64945e-06
2.26144e-05
3.49134e-06
2.15499e-05
2.40843e-06
2.04649e-05
1.53316e-06
1.93557e-05
7.8996e-07
1.83502e-05
1.52903e-07
1.7373e-05
-3.90762e-07
1.64061e-05
-8.4709e-07
1.54477e-05
-1.22716e-06
1.45242e-05
-1.54179e-06
1.36448e-05
-1.78733e-06
1.28139e-05
-1.96675e-06
1.20112e-05
1.12581e-05
-2.09706e-06
1.14222e-05
2.42185e-05
9.84942e-06
2.3476e-05
8.28792e-06
2.21728e-05
6.85462e-06
2.12975e-05
5.52009e-06
2.03838e-05
4.27787e-06
1.95177e-05
3.18082e-06
1.86132e-05
2.1893e-06
1.7718e-05
1.33625e-06
1.67558e-05
6.39646e-07
1.58677e-05
5.269e-08
1.50376e-05
-4.5411e-07
1.42316e-05
-8.95438e-07
1.34308e-05
-1.28786e-06
1.26677e-05
-1.63053e-06
1.19317e-05
-1.90108e-06
1.12068e-05
-2.11274e-06
1.05102e-05
9.83128e-06
-2.24687e-06
1.00731e-05
2.02021e-05
8.61098e-06
1.96298e-05
7.1722e-06
1.85269e-05
5.87958e-06
1.77746e-05
4.70533e-06
1.70199e-05
3.68053e-06
1.62864e-05
2.7712e-06
1.55428e-05
1.95122e-06
1.48303e-05
1.18439e-06
1.40796e-05
5.44822e-07
1.33168e-05
-2.89844e-09
1.26348e-05
-4.68457e-07
1.19747e-05
-8.90058e-07
1.13412e-05
-1.24037e-06
1.07076e-05
-1.51128e-06
1.00783e-05
-1.722e-06
9.46619e-06
-1.86894e-06
8.86543e-06
8.30227e-06
-1.98408e-06
9.29602e-06
1.63836e-05
7.99647e-06
1.59217e-05
6.70426e-06
1.50126e-05
5.5291e-06
1.43839e-05
4.47305e-06
1.37609e-05
3.52813e-06
1.31706e-05
2.68125e-06
1.25801e-05
1.94314e-06
1.20073e-05
1.26058e-06
1.14423e-05
6.54896e-07
1.08344e-05
1.40389e-07
1.02834e-05
-3.02158e-07
9.76126e-06
-6.76805e-07
9.25719e-06
-9.95475e-07
8.7542e-06
-1.24293e-06
8.22852e-06
-1.43413e-06
7.72438e-06
-1.59771e-06
7.247e-06
6.78897e-06
-1.72613e-06
8.20236e-06
1.28385e-05
7.18828e-06
1.22907e-05
6.13421e-06
1.1603e-05
5.13186e-06
1.11391e-05
4.17982e-06
1.06914e-05
3.30705e-06
1.02495e-05
2.50183e-06
9.81764e-06
1.77674e-06
9.38816e-06
1.14761e-06
8.94499e-06
5.84592e-07
8.48262e-06
1.02343e-07
8.05402e-06
-3.05607e-07
7.65087e-06
-6.43784e-07
7.25877e-06
-9.21554e-07
6.86757e-06
-1.16375e-06
6.46789e-06
-1.35482e-06
6.06395e-06
-1.51842e-06
5.69956e-06
5.33579e-06
-1.64591e-06
7.31863e-06
9.45026e-06
6.47375e-06
8.87997e-06
5.60436e-06
8.38028e-06
4.74746e-06
8.0982e-06
3.92824e-06
7.8156e-06
3.14886e-06
7.53818e-06
2.41857e-06
7.26044e-06
1.74149e-06
6.97857e-06
1.12187e-06
6.6743e-06
5.56193e-07
6.34839e-06
5.874e-08
6.0349e-06
-3.63544e-07
5.7317e-06
-7.28778e-07
5.44767e-06
-1.01745e-06
5.13743e-06
-1.25208e-06
4.83131e-06
-1.46786e-06
4.54832e-06
-1.63915e-06
4.26813e-06
3.99889e-06
-1.78472e-06
6.48369e-06
6.36729e-06
5.854e-06
5.64791e-06
5.09947e-06
5.42024e-06
4.31062e-06
5.3467e-06
3.52142e-06
5.24669e-06
2.75474e-06
5.13053e-06
2.02469e-06
4.99867e-06
1.34152e-06
4.85032e-06
7.08896e-07
4.67153e-06
1.32338e-07
4.45974e-06
-3.76927e-07
4.24381e-06
-8.43123e-07
4.05338e-06
-1.22736e-06
3.83671e-06
-1.56892e-06
3.62607e-06
-1.86994e-06
3.41295e-06
-2.12162e-06
3.20626e-06
-2.34762e-06
3.01774e-06
2.85603e-06
-2.57193e-06
6.03337e-06
3.50165e-06
5.30958e-06
2.89398e-06
4.42319e-06
2.9593e-06
3.49062e-06
3.08684e-06
2.535e-06
3.17204e-06
1.61741e-06
3.18094e-06
7.72821e-07
3.13761e-06
1.06864e-08
3.06695e-06
-6.80826e-07
2.97357e-06
-1.30326e-06
2.84355e-06
-1.87734e-06
2.72621e-06
-2.36983e-06
2.5935e-06
-2.8109e-06
2.45879e-06
-3.20522e-06
2.3283e-06
-3.55463e-06
2.18994e-06
-3.86406e-06
2.0556e-06
-4.13986e-06
1.93891e-06
1.84302e-06
-4.38324e-06
5.18842e-06
9.77738e-07
4.07216e-06
8.91768e-07
2.79873e-06
1.22989e-06
1.55609e-06
1.46322e-06
4.25426e-07
1.57843e-06
-5.83953e-07
1.60905e-06
-1.47202e-06
1.58613e-06
-2.22915e-06
1.52659e-06
-2.883e-06
1.46912e-06
-3.45953e-06
1.39756e-06
-3.95649e-06
1.33234e-06
-4.39142e-06
1.26353e-06
-4.77353e-06
1.19622e-06
-5.10679e-06
1.13146e-06
-5.40159e-06
1.063e-06
-5.66656e-06
1.00013e-06
-5.8787e-06
9.25963e-07
8.73396e-07
-6.04799e-06
3.16712e-06
1.26089e-06
-1.95972e-07
-1.29328e-06
-2.14514e-06
-2.83517e-06
-3.41787e-06
-3.9306e-06
-4.37427e-06
-4.76666e-06
-5.10573e-06
-5.40042e-06
-5.65465e-06
-5.87127e-06
-6.06007e-06
-6.22133e-06
-6.37313e-06
-6.50324e-06
-3.33973e-07
-1.10979e-06
-9.28613e-07
-9.4301e-07
-1.62427e-06
-8.65163e-07
-2.27317e-06
-9.16611e-07
-2.8099e-06
-1.03273e-06
-3.15718e-06
-1.20855e-06
-3.34272e-06
-1.3493e-06
-3.40533e-06
-1.45475e-06
-3.38914e-06
-1.52094e-06
-3.3344e-06
-1.54907e-06
-3.2818e-06
-1.53772e-06
-3.22574e-06
-1.52959e-06
-3.16676e-06
-1.51996e-06
-3.10499e-06
-1.50779e-06
-3.01668e-06
-1.51702e-06
-2.92623e-06
-1.5023e-06
-2.81684e-06
-1.50189e-06
-2.69575e-06
-1.49314e-06
-2.55999e-06
-1.48477e-06
-2.4183e-06
-1.4678e-06
-2.2604e-06
-1.45713e-06
-2.08488e-06
-1.44832e-06
-1.911e-06
-1.41727e-06
-1.73843e-06
-1.38525e-06
-1.60005e-06
-1.31849e-06
-1.48282e-06
-1.2623e-06
-1.41628e-06
-1.17709e-06
-1.41537e-06
-1.07186e-06
-1.48543e-06
-9.63831e-07
-1.67362e-06
-8.04234e-07
-1.94629e-06
-6.76878e-07
-2.37075e-06
-4.81229e-07
-2.91013e-06
-3.14473e-07
-3.48735e-06
-2.25128e-07
-4.20393e-06
-2.15249e-08
-4.9573e-06
8.13479e-08
-5.4737e-06
-1.11126e-07
-5.82967e-06
-2.34249e-07
-6.02548e-06
-3.48097e-07
-6.01989e-06
-4.96631e-07
-6.0247e-06
-4.33542e-07
-6.20492e-06
-2.03889e-07
-6.45492e-06
-7.23436e-08
-6.58746e-06
-1.16913e-07
-6.38024e-06
-3.79066e-07
-5.84766e-06
-6.21354e-07
-5.21852e-06
-6.34497e-07
-4.58814e-06
-5.58972e-07
-3.84792e-06
-6.12712e-07
-3.31225e-06
-3.83633e-07
-2.59257e-06
-5.34951e-07
-1.33824e-06
-9.88403e-07
5.46931e-07
-1.52916e-06
2.13022e-06
-1.15253e-06
3.18009e-06
-5.73227e-07
3.90153e-06
-1.88754e-07
4.48088e-06
3.26176e-08
4.76911e-06
3.2938e-07
4.35824e-06
1.0322e-06
3.32362e-06
1.77866e-06
2.0775e-06
2.10413e-06
8.77262e-07
2.11049e-06
-1.73911e-07
2.00008e-06
-1.06495e-06
1.88023e-06
-1.79215e-06
1.75648e-06
-2.36344e-06
1.63969e-06
-2.78192e-06
1.52393e-06
-3.07406e-06
1.42905e-06
-3.22507e-06
1.31922e-06
-3.28921e-06
1.26242e-06
-3.26474e-06
1.2018e-06
-3.15653e-06
1.14496e-06
-2.9958e-06
1.11923e-06
-2.78363e-06
1.09426e-06
-2.53733e-06
1.08747e-06
-2.27932e-06
1.10435e-06
-2.00153e-06
1.11548e-06
-1.72472e-06
1.14989e-06
-1.47563e-06
1.2148e-06
-1.22841e-06
1.2578e-06
-9.8719e-07
1.31023e-06
-7.80169e-07
1.40098e-06
-5.62502e-07
1.45129e-06
-3.70305e-07
1.54592e-06
-1.98452e-07
1.64348e-06
3.53814e-09
1.69897e-06
2.34581e-07
1.76547e-06
4.84599e-07
1.85066e-06
7.92349e-07
1.90289e-06
1.12062e-06
1.99795e-06
1.53537e-06
2.03113e-06
1.9432e-06
2.16177e-06
2.45073e-06
2.18189e-06
3.00984e-06
2.24962e-06
3.54237e-06
2.38814e-06
4.19189e-06
2.37233e-06
4.78433e-06
2.52244e-06
5.42796e-06
2.54454e-06
6.05546e-06
2.61522e-06
6.65488e-06
2.67151e-06
7.25698e-06
2.67097e-06
7.8143e-06
2.694e-06
8.35929e-06
2.65807e-06
8.89746e-06
2.59234e-06
9.47048e-06
2.46206e-06
1.00805e-05
2.29549e-06
1.06457e-05
2.17423e-06
1.1137e-05
2.05774e-06
1.15317e-05
1.95504e-06
1.18674e-05
1.80786e-06
1.21037e-05
1.69279e-06
1.22244e-05
1.59474e-06
1.22652e-05
1.45543e-06
1.2209e-05
1.3208e-06
1.20801e-05
1.12528e-06
1.18358e-05
9.44999e-07
1.14757e-05
7.78558e-07
1.10507e-05
5.66444e-07
1.05929e-05
3.04476e-07
1.01076e-05
1.76446e-08
9.51631e-06
-1.95502e-07
8.80675e-06
-3.99392e-07
8.07258e-06
-6.88187e-07
7.39678e-06
-1.0367e-06
6.90331e-06
-1.48797e-06
6.57348e-06
-1.92812e-06
6.26461e-06
-2.23872e-06
5.99436e-06
-2.56031e-06
5.82015e-06
-2.92612e-06
5.65773e-06
-3.23065e-06
5.76044e-06
-3.79101e-06
6.16431e-06
-4.40823e-06
6.43001e-06
-4.58372e-06
6.83065e-06
-5.02376e-06
6.99248e-06
-5.07836e-06
7.70985e-06
-5.904e-06
7.36621e-06
-5.14085e-06
8.81e-06
-7.18515e-06
9.38852e-06
-6.7498e-06
1.13021e-05
-8.2543e-06
1.23471e-05
-7.67335e-06
1.32829e-05
-7.84302e-06
1.41946e-05
-8.04105e-06
1.49908e-05
-8.19543e-06
1.55212e-05
-8.27366e-06
1.6545e-05
-9.04537e-06
1.78616e-05
-9.7612e-06
1.93071e-05
-1.04251e-05
2.04718e-05
-1.07203e-05
2.13295e-05
-1.08843e-05
2.18638e-05
-1.09279e-05
2.21516e-05
-1.10531e-05
2.21215e-05
-1.11119e-05
2.14777e-05
-1.09159e-05
2.01903e-05
-1.06921e-05
1.85121e-05
-1.0806e-05
1.6364e-05
-1.08546e-05
1.43631e-05
-1.15331e-05
1.22228e-05
-1.19273e-05
1.05194e-05
-1.28757e-05
8.68682e-06
-1.31967e-05
7.16354e-06
-1.39106e-05
5.7428e-06
-1.42388e-05
4.18595e-06
-1.43925e-05
4.00511e-06
-1.58634e-05
2.90769e-06
-1.49069e-05
1.4317e-06
-1.45343e-05
1.85334e-07
-1.42873e-05
-1.05408e-06
-1.35999e-05
-2.0339e-06
-1.28296e-05
-3.66523e-06
-1.10414e-05
-7.03848e-06
-8.51744e-06
-1.19635e-05
-6.41335e-06
-1.35457e-05
-9.15575e-06
-1.29021e-05
-1.01922e-05
-1.25645e-05
-8.78191e-06
-1.32164e-05
-6.86223e-06
-1.40956e-05
-5.84772e-06
-1.51953e-05
-5.04626e-06
-5.43887e-06
-1.54523e-05
-2.43618e-07
-2.27316e-06
-5.92198e-07
-2.10417e-06
-1.10833e-06
-1.9347e-06
-1.69175e-06
-1.94019e-06
-2.18177e-06
-2.10709e-06
-2.51023e-06
-2.36814e-06
-2.64556e-06
-2.63646e-06
-2.68109e-06
-2.80557e-06
-2.67139e-06
-2.89979e-06
-2.63907e-06
-2.94342e-06
-2.6093e-06
-2.92585e-06
-2.58525e-06
-2.90482e-06
-2.55433e-06
-2.89341e-06
-2.52031e-06
-2.87398e-06
-2.46138e-06
-2.89546e-06
-2.39356e-06
-2.87859e-06
-2.30406e-06
-2.88579e-06
-2.20565e-06
-2.87328e-06
-2.08373e-06
-2.87112e-06
-1.92824e-06
-2.86859e-06
-1.74693e-06
-2.86223e-06
-1.52654e-06
-2.87263e-06
-1.29079e-06
-2.83107e-06
-1.02247e-06
-2.80545e-06
-7.45893e-07
-2.71839e-06
-4.75899e-07
-2.62265e-06
-2.2937e-07
-2.48427e-06
-1.99182e-08
-2.30322e-06
1.64287e-07
-2.13646e-06
2.79287e-07
-1.86874e-06
3.52905e-07
-1.65927e-06
3.5768e-07
-1.35837e-06
2.44065e-07
-1.03427e-06
8.64567e-08
-8.55074e-07
-2.05477e-07
-4.79908e-07
-5.23871e-07
-3.05522e-07
-1.05055e-06
-2.31226e-07
-1.92527e-06
6.42988e-08
-2.91534e-06
9.94094e-08
-3.81921e-06
-1.36106e-07
-4.53746e-06
-2.08461e-07
-5.06481e-06
-6.91539e-08
-5.37138e-06
-5.09869e-08
-5.44329e-06
-2.48234e-07
-5.2329e-06
-7.29163e-07
-4.61425e-06
-1.30259e-06
-3.78766e-06
-1.46249e-06
-2.7658e-06
-1.55134e-06
-2.28035e-06
-9.97119e-07
-2.02344e-06
-4.56275e-07
-4.54507e-07
-1.87061e-06
1.09626e-06
-2.22264e-06
1.65355e-06
-1.6851e-06
1.65215e-06
-7.37828e-07
9.28368e-07
6.08935e-07
-3.78849e-07
1.65888e-06
-2.07256e-06
2.33501e-06
-3.8026e-06
2.72627e-06
-5.17049e-06
3.12817e-06
-6.08589e-06
3.49367e-06
-6.77062e-06
3.64257e-06
-7.37448e-06
3.61322e-06
-7.84055e-06
3.40347e-06
-8.19199e-06
3.20686e-06
-8.42685e-06
3.00292e-06
-8.54105e-06
2.79969e-06
-8.57018e-06
2.63016e-06
-8.44796e-06
2.41218e-06
-8.2978e-06
2.30169e-06
-8.0494e-06
2.17207e-06
-7.72276e-06
2.05823e-06
-7.34521e-06
1.97219e-06
-6.91078e-06
1.91402e-06
-6.44641e-06
1.8805e-06
-5.97776e-06
1.89131e-06
-5.52232e-06
1.9436e-06
-5.07727e-06
1.99267e-06
-4.64286e-06
2.06601e-06
-4.22219e-06
2.18125e-06
-3.81864e-06
2.27922e-06
-3.42233e-06
2.38178e-06
-3.06422e-06
2.56127e-06
-2.7022e-06
2.66224e-06
-2.37296e-06
2.85376e-06
-2.08032e-06
3.05971e-06
-1.77027e-06
3.17734e-06
-1.41725e-06
3.29042e-06
-1.02077e-06
3.43495e-06
-6.08419e-07
3.57885e-06
-1.24231e-07
3.71284e-06
4.05558e-07
3.82185e-06
9.44189e-07
4.07869e-06
1.50239e-06
4.19144e-06
2.16892e-06
4.28334e-06
2.8382e-06
4.54429e-06
3.4734e-06
4.67557e-06
4.20341e-06
4.84567e-06
4.91871e-06
4.96557e-06
5.56808e-06
5.18623e-06
6.27862e-06
5.21773e-06
6.99128e-06
5.25046e-06
7.62832e-06
5.34165e-06
8.26014e-06
5.27695e-06
8.90027e-06
5.14263e-06
9.58601e-06
4.87584e-06
1.01802e-05
4.65651e-06
1.07236e-05
4.40446e-06
1.11086e-05
4.22855e-06
1.13787e-05
4.02858e-06
1.16121e-05
3.71867e-06
1.17594e-05
3.48665e-06
1.17887e-05
3.31481e-06
1.17027e-05
3.10257e-06
1.15232e-05
2.83835e-06
1.13014e-05
2.39491e-06
1.0988e-05
1.96219e-06
1.04654e-05
1.68114e-06
9.81982e-06
1.29739e-06
9.17607e-06
7.33333e-07
8.69514e-06
-1.25713e-08
8.27544e-06
-6.21016e-07
7.75452e-06
-1.1363e-06
7.12133e-06
-1.7337e-06
6.42062e-06
-2.34408e-06
5.85696e-06
-3.11734e-06
5.56102e-06
-3.97541e-06
5.38466e-06
-4.64119e-06
5.32452e-06
-5.35269e-06
5.42767e-06
-6.09992e-06
5.5246e-06
-6.65588e-06
5.97597e-06
-7.88116e-06
6.57597e-06
-9.01134e-06
7.1631e-06
-9.56856e-06
7.91974e-06
-1.05372e-05
8.28843e-06
-1.05186e-05
9.10365e-06
-1.2125e-05
8.80517e-06
-1.04913e-05
1.05639e-05
-1.42747e-05
1.13234e-05
-1.37226e-05
1.39778e-05
-1.71657e-05
1.4966e-05
-1.56273e-05
1.61429e-05
-1.621e-05
1.71471e-05
-1.64047e-05
1.7793e-05
-1.59053e-05
1.80681e-05
-1.56588e-05
1.92909e-05
-1.70092e-05
2.17223e-05
-1.88006e-05
2.47885e-05
-2.06378e-05
2.75108e-05
-2.18499e-05
2.91659e-05
-2.24861e-05
2.96783e-05
-2.24515e-05
2.90517e-05
-2.20261e-05
2.74711e-05
-2.14223e-05
2.52331e-05
-2.08761e-05
2.24871e-05
-2.0514e-05
1.97988e-05
-2.10658e-05
1.72411e-05
-2.17517e-05
1.51433e-05
-2.33383e-05
1.3061e-05
-2.43808e-05
1.15767e-05
-2.62285e-05
1.00496e-05
-2.70612e-05
8.83973e-06
-2.85371e-05
7.69268e-06
-2.9273e-05
6.1746e-06
-2.94841e-05
6.60856e-06
-3.22641e-05
5.64202e-06
-3.07119e-05
4.60078e-06
-3.10979e-05
3.63863e-06
-3.11286e-05
2.85632e-06
-3.01591e-05
1.51028e-06
-2.77346e-05
-1.00401e-06
-2.32957e-05
-5.40967e-06
-1.78314e-05
-1.07671e-05
-1.44443e-05
-1.11041e-05
-2.1332e-05
-9.08832e-06
-2.3564e-05
-7.67864e-06
-2.02009e-05
-7.89427e-06
-1.57559e-05
-9.37804e-06
-1.2164e-05
-1.15981e-05
-9.86253e-06
-1.09061e-05
-1.27109e-05
-2.76378e-07
-3.34992e-06
-6.13694e-07
-3.19139e-06
-1.03392e-06
-2.99229e-06
-1.46555e-06
-2.97483e-06
-1.77707e-06
-3.18227e-06
-1.97517e-06
-3.48155e-06
-2.08133e-06
-3.80694e-06
-2.14031e-06
-4.02392e-06
-2.18638e-06
-4.14221e-06
-2.24497e-06
-4.18571e-06
-2.30342e-06
-4.17553e-06
-2.36121e-06
-4.15763e-06
-2.41292e-06
-4.15286e-06
-2.45584e-06
-4.14123e-06
-2.50561e-06
-4.15564e-06
-2.53717e-06
-4.1542e-06
-2.53638e-06
-4.18939e-06
-2.50237e-06
-4.20112e-06
-2.46385e-06
-4.19216e-06
-2.39388e-06
-4.20588e-06
-2.2879e-06
-4.2198e-06
-2.12166e-06
-4.26813e-06
-1.89375e-06
-4.26109e-06
-1.61684e-06
-4.2575e-06
-1.31803e-06
-4.15723e-06
-1.03763e-06
-4.01103e-06
-7.50005e-07
-3.84204e-06
-4.91877e-07
-3.5919e-06
-2.57244e-07
-3.35778e-06
-4.32626e-08
-3.02208e-06
1.13054e-07
-2.70414e-06
2.84758e-07
-2.37502e-06
4.17109e-07
-1.96204e-06
4.54822e-07
-1.63852e-06
5.35974e-07
-1.26454e-06
4.71719e-07
-8.98398e-07
2.62829e-07
-6.29124e-07
1.70765e-07
-4.03149e-07
-8.40812e-08
-1.50133e-07
-7.32054e-07
6.97224e-08
-1.53345e-06
1.99818e-07
-2.20178e-06
2.26071e-07
-2.65082e-06
7.7395e-08
-2.90895e-06
-2.0661e-07
-3.08748e-06
-6.6618e-07
-3.16939e-06
-1.23051e-06
-2.88495e-06
-1.73179e-06
-2.4273e-06
-1.97132e-06
-2.22399e-06
-1.07914e-06
-1.35969e-06
-1.14613e-06
-8.26481e-07
-2.1111e-06
-1.4714e-06
-1.24358e-06
-3.18421e-06
4.12011e-07
-4.90855e-06
1.41318e-06
-6.25483e-06
2.42816e-06
-7.24897e-06
3.18493e-06
-8.09318e-06
3.77432e-06
-8.85761e-06
4.13556e-06
-9.43508e-06
4.39962e-06
-9.67099e-06
4.46686e-06
-9.70051e-06
4.44577e-06
-9.58481e-06
4.30411e-06
-9.43053e-06
4.09152e-06
-9.19715e-06
3.84494e-06
-8.92753e-06
3.63742e-06
-8.60369e-06
3.40569e-06
-8.22715e-06
3.21182e-06
-7.85464e-06
3.01999e-06
-7.41126e-06
2.86153e-06
-6.94022e-06
2.72263e-06
-6.44247e-06
2.60246e-06
-5.92698e-06
2.51253e-06
-5.40115e-06
2.45898e-06
-4.88551e-06
2.4489e-06
-4.34646e-06
2.45131e-06
-3.81857e-06
2.53084e-06
-3.30726e-06
2.61319e-06
-2.79889e-06
2.70938e-06
-2.3644e-06
2.91585e-06
-1.94017e-06
3.05209e-06
-1.56216e-06
3.23396e-06
-1.20878e-06
3.47889e-06
-8.50164e-07
3.61788e-06
-5.32041e-07
3.89598e-06
-2.302e-07
4.17254e-06
7.67301e-08
4.34451e-06
4.1254e-07
4.49805e-06
7.85401e-07
4.68293e-06
1.1809e-06
4.8883e-06
1.58617e-06
5.09854e-06
2.08253e-06
5.21071e-06
2.60915e-06
5.53521e-06
3.15246e-06
5.72012e-06
3.71024e-06
5.90291e-06
4.28279e-06
6.24439e-06
4.91063e-06
6.40426e-06
5.50942e-06
6.69659e-06
6.09045e-06
6.89759e-06
6.74764e-06
7.1143e-06
7.33399e-06
7.25081e-06
7.86858e-06
7.38301e-06
8.46644e-06
7.41679e-06
9.03548e-06
7.36521e-06
9.58952e-06
7.21179e-06
1.00391e-05
6.97695e-06
1.0425e-05
6.74254e-06
1.08357e-05
6.39959e-06
1.12014e-05
6.1624e-06
1.14694e-05
5.89297e-06
1.15784e-05
5.52383e-06
1.14842e-05
5.27357e-06
1.13081e-05
4.96414e-06
1.11496e-05
4.53499e-06
1.10736e-05
4.01504e-06
1.10771e-05
3.3108e-06
1.104e-05
2.66048e-06
1.07103e-05
2.21276e-06
9.84923e-06
1.7961e-06
8.80146e-06
1.1636e-06
7.98385e-06
2.2877e-07
7.50976e-06
-8.24399e-07
7.14447e-06
-1.81274e-06
7.00196e-06
-3.02112e-06
6.96458e-06
-4.19977e-06
6.79658e-06
-5.31054e-06
6.83203e-06
-6.6508e-06
6.95038e-06
-7.58017e-06
7.24871e-06
-8.78279e-06
7.56478e-06
-9.87443e-06
7.75898e-06
-1.04812e-05
8.24038e-06
-1.21782e-05
8.82881e-06
-1.36054e-05
9.71999e-06
-1.48746e-05
1.05236e-05
-1.64247e-05
1.09935e-05
-1.64133e-05
1.17036e-05
-1.87784e-05
1.04755e-05
-1.58136e-05
1.21353e-05
-2.05972e-05
1.27068e-05
-1.98961e-05
1.53709e-05
-2.46408e-05
1.6607e-05
-2.3244e-05
1.84328e-05
-2.50247e-05
1.91868e-05
-2.60845e-05
1.85021e-05
-2.42072e-05
1.77586e-05
-2.31416e-05
1.76123e-05
-2.39412e-05
1.93003e-05
-2.61369e-05
2.28566e-05
-2.896e-05
2.70306e-05
-3.10598e-05
3.06033e-05
-3.29176e-05
3.25038e-05
-3.3549e-05
3.21036e-05
-3.27962e-05
2.97206e-05
-3.11294e-05
2.64709e-05
-2.99717e-05
2.30277e-05
-2.9597e-05
2.01085e-05
-3.08492e-05
1.7661e-05
-3.22943e-05
1.59208e-05
-3.47963e-05
1.3971e-05
-3.63322e-05
1.26699e-05
-3.88061e-05
1.11856e-05
-3.99453e-05
1.0316e-05
-4.18606e-05
9.5094e-06
-4.30334e-05
7.94237e-06
-4.31778e-05
8.44028e-06
-4.62007e-05
7.7739e-06
-4.41723e-05
7.20983e-06
-4.49595e-05
6.24536e-06
-4.53688e-05
5.20456e-06
-4.47925e-05
3.9104e-06
-4.23316e-05
9.93657e-07
-3.59336e-05
-3.83322e-06
-2.7044e-05
-9.33233e-06
-2.25754e-05
-9.47371e-06
-3.32604e-05
-7.10319e-06
-3.67309e-05
-4.95467e-06
-3.18491e-05
-4.18337e-06
-2.58036e-05
-5.18734e-06
-1.9505e-05
-7.8422e-06
-1.47749e-05
-1.6137e-05
-9.67367e-06
-3.29719e-07
-4.31151e-06
-6.90911e-07
-4.15683e-06
-1.01668e-06
-3.99307e-06
-1.23835e-06
-4.04361e-06
-1.3644e-06
-4.30582e-06
-1.43237e-06
-4.65671e-06
-1.49768e-06
-5.00579e-06
-1.57871e-06
-5.2308e-06
-1.68437e-06
-5.33983e-06
-1.81417e-06
-5.36666e-06
-1.94628e-06
-5.35503e-06
-2.07133e-06
-5.34295e-06
-2.20456e-06
-5.33249e-06
-2.34438e-06
-5.31708e-06
-2.50215e-06
-5.31676e-06
-2.62429e-06
-5.34934e-06
-2.71771e-06
-5.40532e-06
-2.75871e-06
-5.45466e-06
-2.75813e-06
-5.47321e-06
-2.68238e-06
-5.53787e-06
-2.50593e-06
-5.63018e-06
-2.2849e-06
-5.69112e-06
-2.01179e-06
-5.70847e-06
-1.72624e-06
-5.68825e-06
-1.39993e-06
-5.58792e-06
-1.09973e-06
-5.39238e-06
-8.49647e-07
-5.13399e-06
-6.35378e-07
-4.81103e-06
-4.56293e-07
-4.50446e-06
-2.97647e-07
-4.10567e-06
-1.82696e-07
-3.6999e-06
-5.42477e-08
-3.32762e-06
3.65098e-08
-2.8281e-06
1.31269e-07
-2.4679e-06
2.39772e-07
-2.04327e-06
3.25073e-07
-1.61745e-06
5.32639e-07
-1.4086e-06
5.63267e-07
-9.52663e-07
5.6374e-07
-6.18122e-07
7.3944e-07
-5.16734e-07
6.56904e-07
-7.16119e-08
4.74342e-07
1.10852e-07
4.72418e-07
-1.58503e-07
3.75413e-07
-2.78398e-07
-3.26193e-08
-3.68608e-07
-3.13338e-07
-1.00777e-06
-1.85174e-07
-1.87857e-06
-2.33941e-07
-1.84702e-06
1.82083e-08
-1.1978e-06
6.55393e-08
-1.00541e-06
-1.90901e-06
1.42976e-07
-4.33625e-06
1.47638e-06
-6.08655e-06
2.51222e-06
-7.62091e-06
3.34899e-06
-8.71741e-06
3.99282e-06
-9.43216e-06
4.41638e-06
-9.84249e-06
4.74073e-06
-9.98404e-06
4.87762e-06
-9.91281e-06
4.97336e-06
-9.68939e-06
4.91616e-06
-9.36217e-06
4.83085e-06
-8.96869e-06
4.65518e-06
-8.58037e-06
4.48617e-06
-8.18514e-06
4.26438e-06
-7.77714e-06
4.07871e-06
-7.33779e-06
3.84277e-06
-6.89238e-06
3.67172e-06
-6.42725e-06
3.48238e-06
-5.92866e-06
3.31487e-06
-5.40256e-06
3.16822e-06
-4.82569e-06
3.01686e-06
-4.30039e-06
2.98974e-06
-3.72005e-06
2.88943e-06
-3.12738e-06
2.88183e-06
-2.52612e-06
2.88601e-06
-1.93529e-06
2.98673e-06
-1.38661e-06
3.12585e-06
-8.24839e-07
3.22644e-06
-3.63748e-07
3.54705e-06
7.33954e-08
3.73294e-06
4.89983e-07
3.96228e-06
8.24623e-07
4.32416e-06
1.15493e-06
4.50982e-06
1.51537e-06
4.80412e-06
1.78941e-06
5.21671e-06
2.04602e-06
5.45986e-06
2.36027e-06
5.62219e-06
2.74389e-06
5.80243e-06
3.16822e-06
6.0416e-06
3.57068e-06
6.34012e-06
4.1103e-06
6.40049e-06
4.63613e-06
6.80351e-06
5.16453e-06
7.06602e-06
5.69237e-06
7.31651e-06
6.30815e-06
7.6311e-06
6.89528e-06
7.87845e-06
7.47338e-06
8.2258e-06
8.07158e-06
8.45062e-06
8.58831e-06
8.77066e-06
9.09413e-06
8.92857e-06
9.62404e-06
9.032e-06
1.01335e-05
9.06593e-06
1.05381e-05
9.05644e-06
1.08585e-05
8.92324e-06
1.11305e-05
8.69811e-06
1.1549e-05
8.34556e-06
1.19728e-05
8.00801e-06
1.21884e-05
7.85921e-06
1.20838e-05
7.67567e-06
1.18674e-05
7.18571e-06
1.17928e-05
6.68393e-06
1.1837e-05
6.17129e-06
1.18018e-05
5.66564e-06
1.16262e-05
5.03922e-06
1.12986e-05
4.15709e-06
1.10782e-05
3.1996e-06
1.09351e-05
2.48638e-06
1.05672e-05
1.81808e-06