/*--------------------------------*- C++ -*----------------------------------*\
| =========                 |                                                 |
| \\      /  F ield         | OpenFOAM: The Open Source CFD Toolbox           |
|  \\    /   O peration     | Version:  dev                                   |
|   \\  /    A nd           | Web:      http://www.openfoam.org               |
|    \\/     M anipulation  |                                                 |
\*---------------------------------------------------------------------------*/
FoamFile
{
    version     2.0;
    format      ascii;
    class       volScalarField;
    object      pPrime2Mean;
    location    "9.121";
}
// * * * * * * * * * * * * * * * * * * * * * * * * * * * * * * * * * * * * * //

dimensions      [2 -2 -4 0 0 0 0];

internalField   nonuniform List<scalar> 
12225
(
5.0379e+07
4.99141e+07
4.89536e+07
4.76026e+07
4.59492e+07
4.40826e+07
4.20621e+07
3.99595e+07
3.78159e+07
3.5679e+07
3.35868e+07
3.15421e+07
2.96188e+07
2.77478e+07
2.60003e+07
2.44394e+07
2.28773e+07
2.12968e+07
5.02711e+07
4.98062e+07
4.88465e+07
4.74972e+07
4.58452e+07
4.39811e+07
4.19633e+07
3.98634e+07
3.77237e+07
3.55895e+07
3.3502e+07
3.14609e+07
2.95422e+07
2.76781e+07
2.5948e+07
2.43873e+07
2.28782e+07
2.15435e+07
5.00209e+07
4.95565e+07
4.85973e+07
4.72511e+07
4.56036e+07
4.37442e+07
4.17332e+07
3.96395e+07
3.75079e+07
3.53819e+07
3.33028e+07
3.12734e+07
2.93608e+07
2.75139e+07
2.58037e+07
2.42479e+07
2.28126e+07
2.1599e+07
4.95849e+07
4.91235e+07
4.81666e+07
4.68256e+07
4.51861e+07
4.33352e+07
4.13358e+07
3.92527e+07
3.71358e+07
3.50233e+07
3.296e+07
3.09485e+07
2.90531e+07
2.72256e+07
2.55451e+07
2.4014e+07
2.26275e+07
2.15262e+07
4.89195e+07
4.84583e+07
4.75061e+07
4.61745e+07
4.45469e+07
4.27105e+07
4.07269e+07
3.86631e+07
3.65653e+07
3.44769e+07
3.24339e+07
3.04532e+07
2.85804e+07
2.67889e+07
2.51607e+07
2.3652e+07
2.23708e+07
2.13061e+07
4.79697e+07
4.75059e+07
4.65633e+07
4.52452e+07
4.36354e+07
4.18188e+07
3.986e+07
3.78218e+07
3.57541e+07
3.36953e+07
3.16866e+07
2.974e+07
2.79056e+07
2.61606e+07
2.45819e+07
2.31428e+07
2.1916e+07
2.08593e+07
4.6674e+07
4.62089e+07
4.52818e+07
4.398e+07
4.23963e+07
4.06054e+07
3.86822e+07
3.66774e+07
3.46526e+07
3.26328e+07
3.06725e+07
2.87716e+07
2.69884e+07
2.53014e+07
2.37796e+07
2.24006e+07
2.12322e+07
2.02042e+07
4.52311e+07
4.47677e+07
4.38568e+07
4.25729e+07
4.1018e+07
3.92566e+07
3.73719e+07
3.54061e+07
3.34267e+07
3.14531e+07
2.95426e+07
2.76954e+07
2.59638e+07
2.43399e+07
2.28667e+07
2.15509e+07
2.04151e+07
1.94553e+07
4.37154e+07
4.32555e+07
4.23609e+07
4.10967e+07
3.95713e+07
3.78425e+07
3.59972e+07
3.40738e+07
3.21405e+07
3.02165e+07
2.8357e+07
2.65654e+07
2.48876e+07
2.33245e+07
2.19033e+07
2.06437e+07
1.95499e+07
1.86513e+07
4.17742e+07
4.13209e+07
4.04458e+07
3.92092e+07
3.77203e+07
3.60354e+07
3.4239e+07
3.23717e+07
3.04957e+07
2.86366e+07
2.68399e+07
2.51199e+07
2.35082e+07
2.20198e+07
2.0665e+07
1.9473e+07
1.84361e+07
1.75835e+07
3.93242e+07
3.88809e+07
3.80293e+07
3.68295e+07
3.53864e+07
3.37587e+07
3.20243e+07
3.0228e+07
2.84252e+07
2.66464e+07
2.49301e+07
2.32961e+07
2.17682e+07
2.03659e+07
1.90942e+07
1.7979e+07
1.7009e+07
1.62026e+07
3.62991e+07
3.58707e+07
3.50473e+07
3.38964e+07
3.25106e+07
3.09561e+07
2.92991e+07
2.7592e+07
2.58797e+07
2.41998e+07
2.25817e+07
2.10508e+07
1.96237e+07
1.83208e+07
1.71457e+07
1.61149e+07
1.52206e+07
1.44674e+07
3.26841e+07
3.22744e+07
3.14873e+07
3.03976e+07
2.90841e+07
2.76186e+07
2.60574e+07
2.44568e+07
2.28547e+07
2.12914e+07
1.979e+07
1.83782e+07
1.70676e+07
1.5877e+07
1.48085e+07
1.38713e+07
1.30603e+07
1.23723e+07
2.85704e+07
2.81834e+07
2.74431e+07
2.64257e+07
2.52005e+07
2.38386e+07
2.23913e+07
2.09129e+07
1.9439e+07
1.80065e+07
1.66381e+07
1.53569e+07
1.4175e+07
1.31049e+07
1.21501e+07
1.13132e+07
1.0591e+07
9.97718e+06
2.42435e+07
2.3883e+07
2.31987e+07
2.22622e+07
2.11372e+07
1.98894e+07
1.85678e+07
1.72217e+07
1.58855e+07
1.45918e+07
1.33624e+07
1.22163e+07
1.11648e+07
1.02165e+07
9.3741e+06
8.63746e+06
8.00344e+06
7.46536e+06
2.02944e+07
1.99625e+07
1.93379e+07
1.84831e+07
1.74595e+07
1.63249e+07
1.51271e+07
1.39091e+07
1.27046e+07
1.15418e+07
1.04412e+07
9.41843e+06
8.48357e+06
7.64264e+06
6.89752e+06
6.24693e+06
5.68772e+06
5.21365e+06
1.77274e+07
1.74211e+07
1.68466e+07
1.60597e+07
1.51185e+07
1.40749e+07
1.29744e+07
1.18559e+07
1.07511e+07
9.6851e+06
8.67687e+06
7.73996e+06
6.88309e+06
6.11101e+06
5.4251e+06
4.82398e+06
4.30467e+06
3.8618e+06
1.78356e+07
1.75412e+07
1.6989e+07
1.62316e+07
1.53251e+07
1.43185e+07
1.32555e+07
1.21729e+07
1.11009e+07
1.00631e+07
9.07735e+06
8.15622e+06
7.30785e+06
6.53673e+06
5.84426e+06
5.2296e+06
4.69024e+06
4.22184e+06
2.07144e+07
2.04155e+07
1.98535e+07
1.90811e+07
1.8155e+07
1.71245e+07
1.60329e+07
1.49169e+07
1.38063e+07
1.27246e+07
1.16893e+07
1.07132e+07
9.80441e+06
8.9678e+06
8.20526e+06
7.51671e+06
6.90032e+06
6.3527e+06
2.52045e+07
2.48927e+07
2.43027e+07
2.34892e+07
2.25116e+07
2.14208e+07
2.02613e+07
1.90707e+07
1.78797e+07
1.67121e+07
1.55862e+07
1.4515e+07
1.35074e+07
1.25687e+07
1.17017e+07
1.09069e+07
1.01833e+07
9.52839e+06
3.02674e+07
2.99415e+07
2.93182e+07
2.84552e+07
2.74152e+07
2.62512e+07
2.50096e+07
2.37296e+07
2.24429e+07
2.11745e+07
1.99433e+07
1.87633e+07
1.7644e+07
1.65915e+07
1.56092e+07
1.46986e+07
1.38592e+07
1.30894e+07
3.51847e+07
3.48471e+07
3.41928e+07
3.32827e+07
3.21825e+07
3.09472e+07
2.96255e+07
2.82579e+07
2.68775e+07
2.55105e+07
2.41768e+07
2.28911e+07
2.16639e+07
2.05018e+07
1.94092e+07
1.8388e+07
1.74385e+07
1.65597e+07
3.9537e+07
3.91911e+07
3.85113e+07
3.75615e+07
3.64097e+07
3.51127e+07
3.37208e+07
3.22762e+07
3.08134e+07
2.93595e+07
2.79354e+07
2.65566e+07
2.52342e+07
2.39759e+07
2.27864e+07
2.16683e+07
2.06225e+07
1.96484e+07
4.31353e+07
4.27842e+07
4.20852e+07
4.11044e+07
3.99115e+07
3.85646e+07
3.71157e+07
3.56082e+07
3.40777e+07
3.25524e+07
3.10538e+07
2.95983e+07
2.81977e+07
2.68601e+07
2.55909e+07
2.43932e+07
2.32682e+07
2.22159e+07
4.59457e+07
4.55917e+07
4.48788e+07
4.38751e+07
4.26511e+07
4.12662e+07
3.97734e+07
3.82172e+07
3.66343e+07
3.50533e+07
3.34969e+07
3.19817e+07
3.05202e+07
2.9121e+07
2.77898e+07
2.65301e+07
2.53435e+07
2.42303e+07
4.80253e+07
4.76697e+07
4.69472e+07
4.59274e+07
4.4681e+07
4.32684e+07
4.17434e+07
4.01516e+07
3.853e+07
3.69082e+07
3.53092e+07
3.37501e+07
3.22437e+07
3.07991e+07
2.94223e+07
2.81169e+07
2.6885e+07
2.57269e+07
4.94752e+07
4.91187e+07
4.83896e+07
4.73589e+07
4.60972e+07
4.46657e+07
4.31187e+07
4.15024e+07
3.98542e+07
3.82041e+07
3.65755e+07
3.4986e+07
3.34486e+07
3.19725e+07
3.0564e+07
2.92271e+07
2.79637e+07
2.67745e+07
5.04108e+07
5.00533e+07
4.932e+07
4.82826e+07
4.70112e+07
4.55676e+07
4.40067e+07
4.23748e+07
4.07096e+07
3.90415e+07
3.7394e+07
3.57849e+07
3.42275e+07
3.27312e+07
3.13023e+07
2.99451e+07
2.86616e+07
2.74524e+07
5.09402e+07
5.05824e+07
4.98476e+07
4.88071e+07
4.75302e+07
4.60802e+07
4.45114e+07
4.28705e+07
4.11955e+07
3.95169e+07
3.78585e+07
3.62382e+07
3.46694e+07
3.31614e+07
3.17208e+07
3.03519e+07
2.90569e+07
2.78368e+07
5.11626e+07
5.08062e+07
5.00695e+07
4.90272e+07
4.77478e+07
4.62949e+07
4.47227e+07
4.30779e+07
4.13987e+07
3.97157e+07
3.80526e+07
3.64275e+07
3.48537e+07
3.33407e+07
3.18952e+07
3.05213e+07
2.92217e+07
2.7997e+07
6.04919e+07
6.04328e+07
6.0302e+07
6.00962e+07
5.98133e+07
5.94528e+07
5.90146e+07
5.84995e+07
5.79086e+07
5.72434e+07
5.65058e+07
5.56979e+07
5.48219e+07
5.38805e+07
5.28764e+07
5.18126e+07
5.06924e+07
4.95192e+07
4.82967e+07
4.70288e+07
4.57194e+07
4.43728e+07
4.29929e+07
4.15844e+07
4.01516e+07
3.8699e+07
3.72312e+07
3.57526e+07
3.42677e+07
3.27811e+07
3.12973e+07
2.9821e+07
2.83567e+07
2.6909e+07
2.54825e+07
2.40818e+07
2.27115e+07
2.13762e+07
2.00809e+07
1.88301e+07
1.76288e+07
1.64817e+07
1.5394e+07
1.43706e+07
1.34168e+07
1.25377e+07
1.17387e+07
1.1025e+07
1.04022e+07
9.87565e+06
9.45083e+06
9.13317e+06
8.92807e+06
8.84078e+06
8.8764e+06
9.03975e+06
9.33538e+06
9.76755e+06
1.03401e+07
1.10563e+07
1.19189e+07
1.29301e+07
1.40912e+07
1.54031e+07
1.68656e+07
1.8478e+07
2.02387e+07
2.21451e+07
2.41942e+07
2.63821e+07
2.87042e+07
3.11553e+07
3.37295e+07
3.64203e+07
3.92209e+07
4.2124e+07
4.51222e+07
4.82078e+07
5.13728e+07
5.46093e+07
5.79092e+07
6.12643e+07
6.46663e+07
6.81067e+07
7.15767e+07
7.50675e+07
7.85699e+07
8.20746e+07
8.55714e+07
8.90499e+07
9.24993e+07
9.59081e+07
9.92642e+07
1.02555e+08
1.05768e+08
1.08891e+08
1.11911e+08
1.14816e+08
1.17594e+08
1.20235e+08
1.2273e+08
1.25069e+08
1.27247e+08
1.29258e+08
1.31097e+08
1.32763e+08
1.34257e+08
1.35579e+08
1.36737e+08
1.37736e+08
1.38588e+08
1.39304e+08
1.39897e+08
1.40381e+08
1.40774e+08
1.41093e+08
1.41357e+08
1.41587e+08
1.41808e+08
1.42045e+08
1.4233e+08
1.42694e+08
1.43175e+08
1.43811e+08
1.44647e+08
1.4573e+08
1.47114e+08
1.48854e+08
1.51011e+08
1.53647e+08
1.56827e+08
1.60612e+08
1.65064e+08
1.7024e+08
1.76192e+08
1.82967e+08
1.906e+08
1.99119e+08
2.08538e+08
2.18859e+08
2.30078e+08
2.42172e+08
2.55112e+08
2.68858e+08
2.83367e+08
2.98575e+08
3.14436e+08
3.30876e+08
3.47833e+08
3.65232e+08
3.83e+08
4.01053e+08
4.19299e+08
4.37648e+08
4.55976e+08
4.74143e+08
4.91987e+08
5.09338e+08
5.25963e+08
5.41626e+08
5.56029e+08
5.68873e+08
5.79816e+08
5.88535e+08
5.94694e+08
5.97996e+08
5.98182e+08
5.95069e+08
5.88531e+08
5.78595e+08
5.65341e+08
5.49036e+08
5.29999e+08
5.08724e+08
4.85683e+08
4.61402e+08
4.36249e+08
4.10659e+08
3.84843e+08
3.59127e+08
5.9416e+07
5.93603e+07
5.92351e+07
5.90352e+07
5.87588e+07
5.84059e+07
5.7977e+07
5.74733e+07
5.6896e+07
5.62464e+07
5.55264e+07
5.47379e+07
5.38831e+07
5.29644e+07
5.19844e+07
5.09458e+07
4.98517e+07
4.87055e+07
4.75106e+07
4.62709e+07
4.49901e+07
4.36723e+07
4.23216e+07
4.09423e+07
3.95387e+07
3.81153e+07
3.66764e+07
3.52263e+07
3.37694e+07
3.23101e+07
3.08529e+07
2.94024e+07
2.79631e+07
2.65395e+07
2.51361e+07
2.37574e+07
2.2408e+07
2.10924e+07
1.98155e+07
1.85818e+07
1.73962e+07
1.62637e+07
1.5189e+07
1.41773e+07
1.32337e+07
1.23634e+07
1.15716e+07
1.08639e+07
1.02455e+07
9.72191e+06
9.29864e+06
8.98109e+06
8.77461e+06
8.68445e+06
8.71571e+06
8.87328e+06
9.16172e+06
9.58525e+06
1.01477e+07
1.08523e+07
1.17019e+07
1.26984e+07
1.38435e+07
1.51377e+07
1.65811e+07
1.81728e+07
1.99111e+07
2.17937e+07
2.38175e+07
2.59785e+07
2.82721e+07
3.06932e+07
3.32359e+07
3.58938e+07
3.866e+07
4.15274e+07
4.44885e+07
4.75358e+07
5.06613e+07
5.3857e+07
5.7115e+07
6.0427e+07
6.37849e+07
6.71801e+07
7.06042e+07
7.40482e+07
7.7503e+07
8.09592e+07
8.4407e+07
8.78361e+07
9.12355e+07
9.45941e+07
9.78999e+07
1.01141e+08
1.04304e+08
1.07378e+08
1.10349e+08
1.13206e+08
1.15938e+08
1.18534e+08
1.20986e+08
1.23285e+08
1.25425e+08
1.274e+08
1.29207e+08
1.30843e+08
1.32309e+08
1.33607e+08
1.34742e+08
1.35723e+08
1.3656e+08
1.37262e+08
1.37844e+08
1.38319e+08
1.38703e+08
1.39014e+08
1.39271e+08
1.39494e+08
1.39707e+08
1.39935e+08
1.40209e+08
1.40559e+08
1.41022e+08
1.41637e+08
1.42447e+08
1.43498e+08
1.44842e+08
1.46536e+08
1.48638e+08
1.5121e+08
1.54316e+08
1.58016e+08
1.62372e+08
1.67438e+08
1.73268e+08
1.79907e+08
1.8739e+08
1.95745e+08
2.04986e+08
2.15116e+08
2.2613e+08
2.38006e+08
2.50717e+08
2.64224e+08
2.78482e+08
2.93432e+08
3.09023e+08
3.25193e+08
3.41874e+08
3.58994e+08
3.7648e+08
3.94252e+08
4.12221e+08
4.30298e+08
4.4836e+08
4.66271e+08
4.83871e+08
5.00995e+08
5.17415e+08
5.32897e+08
5.47155e+08
5.59893e+08
5.70772e+08
5.79475e+08
5.85673e+08
5.89078e+08
5.89431e+08
5.86555e+08
5.80318e+08
5.70733e+08
5.57873e+08
5.41995e+08
5.23406e+08
5.02586e+08
4.79995e+08
4.56145e+08
4.31401e+08
4.06193e+08
3.80729e+08
3.55251e+08
5.7349e+07
5.72959e+07
5.71763e+07
5.69848e+07
5.672e+07
5.63824e+07
5.59732e+07
5.54933e+07
5.49437e+07
5.43257e+07
5.36406e+07
5.28902e+07
5.20764e+07
5.12012e+07
5.0267e+07
4.92763e+07
4.8232e+07
4.71371e+07
4.59948e+07
4.48087e+07
4.35824e+07
4.23199e+07
4.1025e+07
3.97019e+07
3.83545e+07
3.69868e+07
3.56029e+07
3.4207e+07
3.28034e+07
3.13964e+07
2.99903e+07
2.85895e+07
2.71983e+07
2.58212e+07
2.44624e+07
2.31264e+07
2.18174e+07
2.05399e+07
1.92987e+07
1.80983e+07
1.69434e+07
1.58389e+07
1.47896e+07
1.38006e+07
1.28768e+07
1.20236e+07
1.12463e+07
1.05501e+07
9.94047e+06
9.42284e+06
9.00262e+06
8.68525e+06
8.47614e+06
8.3805e+06
8.40344e+06
8.54983e+06
8.82422e+06
9.23084e+06
9.77351e+06
1.04555e+07
1.12794e+07
1.22475e+07
1.3361e+07
1.46207e+07
1.60265e+07
1.75775e+07
1.9272e+07
2.11078e+07
2.30816e+07
2.51896e+07
2.74274e+07
2.97895e+07
3.22704e+07
3.48636e+07
3.75624e+07
4.03599e+07
4.32485e+07
4.62208e+07
4.92692e+07
5.23856e+07
5.55621e+07
5.87906e+07
6.20629e+07
6.53708e+07
6.87057e+07
7.20589e+07
7.54215e+07
7.87842e+07
8.21372e+07
8.54705e+07
8.87732e+07
9.20344e+07
9.52427e+07
9.8386e+07
1.01452e+08
1.04429e+08
1.07306e+08
1.1007e+08
1.12711e+08
1.1522e+08
1.17588e+08
1.19807e+08
1.21871e+08
1.23776e+08
1.25518e+08
1.27095e+08
1.28507e+08
1.29758e+08
1.30852e+08
1.31796e+08
1.32602e+08
1.33278e+08
1.33838e+08
1.34294e+08
1.34663e+08
1.34959e+08
1.35201e+08
1.3541e+08
1.35607e+08
1.35817e+08
1.36068e+08
1.36391e+08
1.36819e+08
1.37389e+08
1.38145e+08
1.39131e+08
1.40397e+08
1.41997e+08
1.43989e+08
1.46433e+08
1.4939e+08
1.52922e+08
1.57085e+08
1.61935e+08
1.67522e+08
1.73891e+08
1.81076e+08
1.89107e+08
1.97996e+08
2.07747e+08
2.18354e+08
2.29798e+08
2.42055e+08
2.55089e+08
2.68853e+08
2.83291e+08
2.9835e+08
3.1398e+08
3.30111e+08
3.46674e+08
3.63597e+08
3.80808e+08
3.98222e+08
4.15747e+08
4.33267e+08
4.50657e+08
4.67756e+08
4.84404e+08
5.00386e+08
5.15471e+08
5.29395e+08
5.41866e+08
5.52562e+08
5.6118e+08
5.67401e+08
5.70952e+08
5.71583e+08
5.69121e+08
5.63431e+08
5.545e+08
5.42402e+08
5.27361e+08
5.09665e+08
4.89766e+08
4.68093e+08
4.45123e+08
4.2123e+08
3.96815e+08
3.72104e+08
3.47268e+08
5.4453e+07
5.44036e+07
5.42915e+07
5.41122e+07
5.38652e+07
5.35515e+07
5.31718e+07
5.27268e+07
5.2217e+07
5.16435e+07
5.10074e+07
5.03099e+07
4.95527e+07
4.87374e+07
4.7866e+07
4.69409e+07
4.59648e+07
4.49403e+07
4.38705e+07
4.27587e+07
4.16082e+07
4.04226e+07
3.92054e+07
3.79604e+07
3.66908e+07
3.54004e+07
3.40931e+07
3.27728e+07
3.14436e+07
3.01096e+07
2.8775e+07
2.74438e+07
2.61201e+07
2.4808e+07
2.35115e+07
2.22349e+07
2.09823e+07
1.97582e+07
1.8567e+07
1.74132e+07
1.63013e+07
1.52362e+07
1.42226e+07
1.32655e+07
1.23699e+07
1.15409e+07
1.07839e+07
1.0104e+07
9.50671e+06
8.99745e+06
8.58161e+06
8.26461e+06
8.05181e+06
7.94843e+06
7.95954e+06
8.09002e+06
8.34445e+06
8.72703e+06
9.24149e+06
9.89109e+06
1.06785e+07
1.16058e+07
1.26743e+07
1.38847e+07
1.52369e+07
1.67299e+07
1.83621e+07
2.01312e+07
2.20342e+07
2.40672e+07
2.62256e+07
2.85045e+07
3.08981e+07
3.34002e+07
3.60042e+07
3.87032e+07
4.14901e+07
4.43575e+07
4.72978e+07
5.03032e+07
5.3366e+07
5.64781e+07
5.96314e+07
6.28179e+07
6.6029e+07
6.92562e+07
7.24908e+07
7.57238e+07
7.89453e+07
8.21456e+07
8.53143e+07
8.84404e+07
9.15129e+07
9.45203e+07
9.74511e+07
1.00293e+08
1.03037e+08
1.0567e+08
1.08184e+08
1.1057e+08
1.12819e+08
1.14925e+08
1.16883e+08
1.18688e+08
1.20337e+08
1.21829e+08
1.23165e+08
1.24348e+08
1.25382e+08
1.26275e+08
1.27035e+08
1.27673e+08
1.282e+08
1.28629e+08
1.28973e+08
1.29247e+08
1.29468e+08
1.29654e+08
1.29828e+08
1.30011e+08
1.30228e+08
1.30509e+08
1.30886e+08
1.31393e+08
1.32071e+08
1.32963e+08
1.34118e+08
1.35587e+08
1.37423e+08
1.39686e+08
1.42433e+08
1.45726e+08
1.49618e+08
1.54164e+08
1.5941e+08
1.65401e+08
1.72169e+08
1.79744e+08
1.8814e+08
1.97362e+08
2.07401e+08
2.18244e+08
2.29869e+08
2.42244e+08
2.5532e+08
2.69048e+08
2.83373e+08
2.98254e+08
3.13626e+08
3.29422e+08
3.4557e+08
3.62009e+08
3.78655e+08
3.95419e+08
4.1219e+08
4.28851e+08
4.4525e+08
4.6123e+08
4.76593e+08
4.91114e+08
5.04548e+08
5.16617e+08
5.27023e+08
5.35481e+08
5.41687e+08
5.45385e+08
5.46337e+08
5.44373e+08
5.39363e+08
5.31276e+08
5.20174e+08
5.06246e+08
4.89756e+08
4.71116e+08
4.50708e+08
4.28976e+08
4.0628e+08
3.82997e+08
3.59365e+08
3.35535e+08
5.09285e+07
5.08845e+07
5.07825e+07
5.06195e+07
5.03957e+07
5.01118e+07
4.97679e+07
4.93644e+07
4.8902e+07
4.83814e+07
4.7803e+07
4.71681e+07
4.64777e+07
4.57335e+07
4.49371e+07
4.40908e+07
4.31965e+07
4.22569e+07
4.12746e+07
4.02524e+07
3.91934e+07
3.81007e+07
3.69772e+07
3.5826e+07
3.46502e+07
3.34534e+07
3.22391e+07
3.10108e+07
2.97725e+07
2.85279e+07
2.72806e+07
2.60344e+07
2.47931e+07
2.35603e+07
2.23399e+07
2.1136e+07
1.99525e+07
1.87936e+07
1.76636e+07
1.65669e+07
1.55078e+07
1.44909e+07
1.35211e+07
1.26032e+07
1.1742e+07
1.09427e+07
1.02105e+07
9.55059e+06
8.96842e+06
8.46936e+06
8.0588e+06
7.74213e+06
7.52469e+06
7.41169e+06
7.40817e+06
7.51896e+06
7.7486e+06
8.10122e+06
8.58055e+06
9.18983e+06
9.9317e+06
1.08082e+07
1.18206e+07
1.29696e+07
1.4255e+07
1.56759e+07
1.72306e+07
1.89169e+07
2.07318e+07
2.26715e+07
2.47317e+07
2.69072e+07
2.91926e+07
3.15819e+07
3.40685e+07
3.66458e+07
3.93069e+07
4.20445e+07
4.48514e+07
4.77199e+07
5.06423e+07
5.36109e+07
5.66178e+07
5.96549e+07
6.27141e+07
6.57867e+07
6.88644e+07
7.19384e+07
7.49989e+07
7.80366e+07
8.10413e+07
8.40027e+07
8.69099e+07
8.97519e+07
9.25176e+07
9.51965e+07
9.77782e+07
1.00253e+08
1.02612e+08
1.04846e+08
1.0695e+08
1.08917e+08
1.10744e+08
1.12426e+08
1.1396e+08
1.15347e+08
1.16588e+08
1.17687e+08
1.18646e+08
1.19473e+08
1.20176e+08
1.20765e+08
1.2125e+08
1.21642e+08
1.21953e+08
1.22198e+08
1.2239e+08
1.22548e+08
1.22688e+08
1.22835e+08
1.2301e+08
1.23239e+08
1.23551e+08
1.23981e+08
1.24564e+08
1.25343e+08
1.26361e+08
1.27668e+08
1.29316e+08
1.31359e+08
1.33851e+08
1.36852e+08
1.40413e+08
1.44588e+08
1.49421e+08
1.54952e+08
1.61216e+08
1.68241e+08
1.76041e+08
1.84622e+08
1.93979e+08
2.04099e+08
2.14962e+08
2.26541e+08
2.38792e+08
2.51669e+08
2.65118e+08
2.79103e+08
2.93566e+08
3.08448e+08
3.23675e+08
3.39191e+08
3.54919e+08
3.70771e+08
3.86642e+08
4.02423e+08
4.17974e+08
4.33145e+08
4.4775e+08
4.61582e+08
4.74402e+08
4.85959e+08
4.95986e+08
5.04209e+08
5.1035e+08
5.14168e+08
5.15437e+08
5.14003e+08
5.09739e+08
5.02601e+08
4.92633e+08
4.79987e+08
4.64906e+08
4.47749e+08
4.28851e+08
4.0862e+08
3.87384e+08
3.65494e+08
3.43199e+08
3.2066e+08
4.69986e+07
4.69616e+07
4.68721e+07
4.67283e+07
4.65307e+07
4.62794e+07
4.59746e+07
4.56167e+07
4.52059e+07
4.47423e+07
4.42266e+07
4.36596e+07
4.30422e+07
4.23758e+07
4.16618e+07
4.09017e+07
4.00976e+07
3.92514e+07
3.83654e+07
3.74422e+07
3.64842e+07
3.54939e+07
3.44738e+07
3.34265e+07
3.23549e+07
3.12621e+07
3.01512e+07
2.90257e+07
2.78888e+07
2.67438e+07
2.55939e+07
2.44427e+07
2.32933e+07
2.21494e+07
2.10143e+07
1.98919e+07
1.87861e+07
1.77006e+07
1.66395e+07
1.5607e+07
1.46074e+07
1.36451e+07
1.27246e+07
1.18507e+07
1.10283e+07
1.02624e+07
9.55812e+06
8.92069e+06
8.35546e+06
7.86776e+06
7.46299e+06
7.14649e+06
6.92361e+06
6.7995e+06
6.77916e+06
6.86735e+06
7.06859e+06
7.38697e+06
7.82614e+06
8.38927e+06
9.07898e+06
9.89724e+06
1.08454e+07
1.1924e+07
1.31329e+07
1.44713e+07
1.59373e+07
1.75289e+07
1.9243e+07
2.1076e+07
2.30237e+07
2.50812e+07
2.72429e+07
2.95031e+07
3.18557e+07
3.42941e+07
3.68116e+07
3.94012e+07
4.20558e+07
4.4768e+07
4.75304e+07
5.03353e+07
5.31752e+07
5.60422e+07
5.89283e+07
6.18251e+07
6.47244e+07
6.76176e+07
7.04954e+07
7.33485e+07
7.61673e+07
7.8942e+07
8.16624e+07
8.43178e+07
8.68977e+07
8.93927e+07
9.17931e+07
9.40899e+07
9.62749e+07
9.83406e+07
1.00281e+08
1.02092e+08
1.0377e+08
1.05313e+08
1.06718e+08
1.07987e+08
1.0912e+08
1.10121e+08
1.10995e+08
1.11745e+08
1.12381e+08
1.12912e+08
1.13345e+08
1.13692e+08
1.13962e+08
1.14169e+08
1.14326e+08
1.14447e+08
1.14549e+08
1.14651e+08
1.14774e+08
1.14942e+08
1.15182e+08
1.15524e+08
1.16003e+08
1.16653e+08
1.17518e+08
1.18645e+08
1.2008e+08
1.21876e+08
1.24084e+08
1.26759e+08
1.29952e+08
1.33711e+08
1.38082e+08
1.43102e+08
1.48804e+08
1.55218e+08
1.62357e+08
1.70228e+08
1.7883e+08
1.88152e+08
1.98173e+08
2.08874e+08
2.20215e+08
2.32157e+08
2.44647e+08
2.57652e+08
2.71121e+08
2.84998e+08
2.99218e+08
3.13722e+08
3.28441e+08
3.43288e+08
3.58167e+08
3.72976e+08
3.87587e+08
4.01853e+08
4.15607e+08
4.28657e+08
4.40776e+08
4.51736e+08
4.61301e+08
4.69218e+08
4.75234e+08
4.79118e+08
4.80669e+08
4.79751e+08
4.76234e+08
4.70068e+08
4.61275e+08
4.49985e+08
4.36407e+08
4.2085e+08
4.03602e+08
3.85034e+08
3.65429e+08
3.45113e+08
3.24336e+08
3.03289e+08
4.28885e+07
4.2859e+07
4.27831e+07
4.26597e+07
4.24891e+07
4.22715e+07
4.20071e+07
4.16958e+07
4.13374e+07
4.09322e+07
4.04807e+07
3.99835e+07
3.94412e+07
3.88548e+07
3.82255e+07
3.75546e+07
3.68435e+07
3.6094e+07
3.53079e+07
3.44871e+07
3.36336e+07
3.27492e+07
3.18362e+07
3.08969e+07
2.99336e+07
2.89491e+07
2.79464e+07
2.69281e+07
2.5897e+07
2.48561e+07
2.38083e+07
2.27564e+07
2.17035e+07
2.06528e+07
1.96076e+07
1.85712e+07
1.75471e+07
1.65391e+07
1.55508e+07
1.45862e+07
1.36493e+07
1.27445e+07
1.18762e+07
1.10489e+07
1.02675e+07
9.53686e+06
8.86206e+06
8.2483e+06
7.70084e+06
7.22503e+06
6.82619e+06
6.50964e+06
6.28066e+06
6.14438e+06
6.10576e+06
6.16953e+06
6.34012e+06
6.62157e+06
7.01747e+06
7.53094e+06
8.1645e+06
8.9201e+06
9.79899e+06
1.08018e+07
1.19283e+07
1.31776e+07
1.45481e+07
1.60376e+07
1.7643e+07
1.93609e+07
2.11872e+07
2.31171e+07
2.51454e+07
2.72664e+07
2.94742e+07
3.17625e+07
3.41248e+07
3.65545e+07
3.90445e+07
4.15878e+07
4.41771e+07
4.68052e+07
4.94647e+07
5.21477e+07
5.48468e+07
5.75538e+07
6.02605e+07
6.29587e+07
6.56393e+07
6.82936e+07
7.09124e+07
7.34863e+07
7.60057e+07
7.84608e+07
8.0842e+07
8.31404e+07
8.53472e+07
8.74547e+07
8.94551e+07
9.13422e+07
9.31105e+07
9.47565e+07
9.62774e+07
9.76719e+07
9.89398e+07
1.00082e+08
1.01099e+08
1.01995e+08
1.02774e+08
1.03441e+08
1.04003e+08
1.04468e+08
1.04842e+08
1.05136e+08
1.05359e+08
1.05522e+08
1.05636e+08
1.05715e+08
1.05772e+08
1.05824e+08
1.0589e+08
1.05992e+08
1.06153e+08
1.06401e+08
1.06768e+08
1.07284e+08
1.07988e+08
1.08923e+08
1.10134e+08
1.1167e+08
1.13578e+08
1.15911e+08
1.18717e+08
1.2204e+08
1.25925e+08
1.30407e+08
1.35523e+08
1.41296e+08
1.47744e+08
1.54875e+08
1.62689e+08
1.71178e+08
1.80327e+08
1.90117e+08
2.00516e+08
2.11489e+08
2.22989e+08
2.34984e+08
2.47427e+08
2.60268e+08
2.73446e+08
2.86905e+08
3.00577e+08
3.1438e+08
3.28227e+08
3.42022e+08
3.55646e+08
3.68956e+08
3.81801e+08
3.94007e+08
4.05364e+08
4.15662e+08
4.24692e+08
4.32231e+08
4.38051e+08
4.41933e+08
4.43703e+08
4.43241e+08
4.40419e+08
4.35179e+08
4.27528e+08
4.17583e+08
4.05514e+08
3.91583e+08
3.76034e+08
3.59194e+08
3.41303e+08
3.22659e+08
3.03507e+08
2.84069e+08
3.88115e+07
3.87895e+07
3.87269e+07
3.86236e+07
3.84798e+07
3.82954e+07
3.80702e+07
3.78041e+07
3.74969e+07
3.7149e+07
3.67604e+07
3.63315e+07
3.58628e+07
3.53549e+07
3.48087e+07
3.42251e+07
3.36054e+07
3.29507e+07
3.22624e+07
3.1542e+07
3.07909e+07
3.00107e+07
2.92031e+07
2.83702e+07
2.7514e+07
2.66368e+07
2.57409e+07
2.48288e+07
2.39026e+07
2.29649e+07
2.20183e+07
2.10651e+07
2.01083e+07
1.91505e+07
1.81947e+07
1.7244e+07
1.63016e+07
1.53708e+07
1.44551e+07
1.35583e+07
1.26841e+07
1.18368e+07
1.10206e+07
1.02399e+07
9.49944e+06
8.80403e+06
8.15868e+06
7.56851e+06
7.03873e+06
6.57463e+06
6.18148e+06
5.86456e+06
5.62907e+06
5.48012e+06
5.42263e+06
5.46126e+06
5.60039e+06
5.84397e+06
6.19554e+06
6.65812e+06
7.23419e+06
7.92559e+06
8.73356e+06
9.65863e+06
1.07006e+07
1.18586e+07
1.3131e+07
1.45155e+07
1.60092e+07
1.76088e+07
1.93102e+07
2.11088e+07
2.29995e+07
2.4977e+07
2.70353e+07
2.91686e+07
3.13706e+07
3.36347e+07
3.59544e+07
3.83228e+07
4.0733e+07
4.31779e+07
4.56503e+07
4.81428e+07
5.06478e+07
5.31578e+07
5.56647e+07
5.81606e+07
6.0637e+07
6.30853e+07
6.54971e+07
6.78633e+07
7.01751e+07
7.24237e+07
7.46003e+07
7.66968e+07
7.87052e+07
8.06188e+07
8.24305e+07
8.41353e+07
8.57284e+07
8.72066e+07
8.85679e+07
8.98119e+07
9.09393e+07
9.1951e+07
9.28487e+07
9.36359e+07
9.43165e+07
9.48952e+07
9.5378e+07
9.57712e+07
9.60814e+07
9.63166e+07
9.64863e+07
9.65996e+07
9.66661e+07
9.66974e+07
9.67052e+07
9.67037e+07
9.6709e+07
9.67414e+07
9.68213e+07
9.69731e+07
9.72242e+07
9.76042e+07
9.81461e+07
9.88896e+07
9.98761e+07
1.01151e+08
1.0276e+08
1.04751e+08
1.07166e+08
1.10052e+08
1.13449e+08
1.17395e+08
1.21922e+08
1.27056e+08
1.32814e+08
1.39207e+08
1.46237e+08
1.539e+08
1.62182e+08
1.7107e+08
1.80537e+08
1.90551e+08
2.01073e+08
2.12073e+08
2.23505e+08
2.35321e+08
2.47468e+08
2.59891e+08
2.72523e+08
2.8529e+08
2.98108e+08
3.10886e+08
3.23511e+08
3.35848e+08
3.47761e+08
3.59091e+08
3.69644e+08
3.79236e+08
3.87673e+08
3.94765e+08
4.00311e+08
4.0411e+08
4.06017e+08
4.05916e+08
4.03692e+08
3.99282e+08
3.92688e+08
3.84006e+08
3.73375e+08
3.61021e+08
3.47141e+08
3.32016e+08
3.15846e+08
2.98901e+08
2.81412e+08
2.63633e+08
3.49548e+07
3.49395e+07
3.48893e+07
3.48047e+07
3.46858e+07
3.45322e+07
3.43437e+07
3.41201e+07
3.38612e+07
3.35668e+07
3.32372e+07
3.28723e+07
3.24725e+07
3.20381e+07
3.15698e+07
3.10682e+07
3.05341e+07
2.99682e+07
2.93716e+07
2.87454e+07
2.80905e+07
2.74083e+07
2.67002e+07
2.59677e+07
2.52125e+07
2.44365e+07
2.36416e+07
2.28296e+07
2.20026e+07
2.11625e+07
2.03115e+07
1.94519e+07
1.8586e+07
1.77163e+07
1.68454e+07
1.5976e+07
1.5111e+07
1.42536e+07
1.34068e+07
1.25743e+07
1.17597e+07
1.0967e+07
1.02003e+07
9.46389e+06
8.76233e+06
8.1004e+06
7.48299e+06
6.91514e+06
6.402e+06
5.94878e+06
5.5607e+06
5.24298e+06
5.00078e+06
4.83919e+06
4.76303e+06
4.77693e+06
4.88518e+06
5.09167e+06
5.39983e+06
5.81259e+06
6.33234e+06
6.96086e+06
7.6993e+06
8.5481e+06
9.50705e+06
1.05752e+07
1.1751e+07
1.30321e+07
1.44157e+07
1.58984e+07
1.74762e+07
1.91448e+07
2.08993e+07
2.27343e+07
2.46444e+07
2.66236e+07
2.86659e+07
3.07651e+07
3.29148e+07
3.51085e+07
3.73395e+07
3.9601e+07
4.1886e+07
4.41873e+07
4.64978e+07
4.881e+07
5.11163e+07
5.34091e+07
5.56804e+07
5.79221e+07
6.01262e+07
6.22844e+07
6.43885e+07
6.64307e+07
6.84029e+07
7.02978e+07
7.21084e+07
7.38287e+07
7.54528e+07
7.69765e+07
7.83957e+07
7.97074e+07
8.09111e+07
8.20065e+07
8.29947e+07
8.38768e+07
8.46549e+07
8.53323e+07
8.59127e+07
8.64008e+07
8.68017e+07
8.71207e+07
8.73632e+07
8.75362e+07
8.76481e+07
8.77071e+07
8.77215e+07
8.77008e+07
8.76555e+07
8.75973e+07
8.75408e+07
8.75029e+07
8.75014e+07
8.75576e+07
8.7696e+07
8.79433e+07
8.83292e+07
8.88894e+07
8.96615e+07
9.06869e+07
9.20079e+07
9.36674e+07
9.57079e+07
9.81721e+07
1.011e+08
1.04529e+08
1.08488e+08
1.13005e+08
1.18099e+08
1.23783e+08
1.3006e+08
1.36931e+08
1.44384e+08
1.52411e+08
1.60988e+08
1.70087e+08
1.79676e+08
1.89727e+08
2.00197e+08
2.11037e+08
2.22196e+08
2.33624e+08
2.45258e+08
2.57026e+08
2.68848e+08
2.80634e+08
2.92277e+08
3.03651e+08
3.14634e+08
3.25076e+08
3.34808e+08
3.43661e+08
3.51462e+08
3.58046e+08
3.63241e+08
3.66869e+08
3.68809e+08
3.68956e+08
3.67207e+08
3.63501e+08
3.57837e+08
3.50292e+08
3.40981e+08
3.30095e+08
3.17793e+08
3.04308e+08
2.89808e+08
2.74526e+08
2.58684e+08
2.42556e+08
3.14701e+07
3.14605e+07
3.14209e+07
3.13528e+07
3.12561e+07
3.11302e+07
3.09748e+07
3.07896e+07
3.05741e+07
3.03282e+07
3.00517e+07
2.97446e+07
2.94069e+07
2.90389e+07
2.86408e+07
2.8213e+07
2.77558e+07
2.72698e+07
2.67557e+07
2.62142e+07
2.56461e+07
2.50523e+07
2.44338e+07
2.37918e+07
2.31278e+07
2.24431e+07
2.17392e+07
2.10176e+07
2.028e+07
1.95281e+07
1.87636e+07
1.79885e+07
1.72048e+07
1.64146e+07
1.56203e+07
1.48243e+07
1.40293e+07
1.3238e+07
1.24535e+07
1.16792e+07
1.09185e+07
1.01751e+07
9.45316e+06
8.75673e+06
8.0903e+06
7.45854e+06
6.86626e+06
6.31843e+06
5.82009e+06
5.37639e+06
4.99249e+06
4.67356e+06
4.42471e+06
4.25098e+06
4.15716e+06
4.14777e+06
4.22702e+06
4.39871e+06
4.66616e+06
5.03218e+06
5.49906e+06
6.06849e+06
6.74151e+06
7.5185e+06
8.39915e+06
9.38248e+06
1.04668e+07
1.165e+07
1.2929e+07
1.43005e+07
1.57606e+07
1.73051e+07
1.89293e+07
2.06279e+07
2.23955e+07
2.42265e+07
2.61151e+07
2.80552e+07
3.00405e+07
3.20648e+07
3.41219e+07
3.62051e+07
3.83077e+07
4.04228e+07
4.25434e+07
4.46626e+07
4.6773e+07
4.88674e+07
5.09384e+07
5.29782e+07
5.49794e+07
5.69346e+07
5.88361e+07
6.06768e+07
6.24496e+07
6.4148e+07
6.57658e+07
6.72978e+07
6.87393e+07
7.00867e+07
7.13367e+07
7.24872e+07
7.35378e+07
7.44888e+07
7.53414e+07
7.60969e+07
7.67576e+07
7.73264e+07
7.78072e+07
7.82041e+07
7.85218e+07
7.87643e+07
7.89367e+07
7.90452e+07
7.90966e+07
7.90981e+07
7.9057e+07
7.89813e+07
7.88803e+07
7.87639e+07
7.86451e+07
7.85381e+07
7.84581e+07
7.84235e+07
7.84559e+07
7.85796e+07
7.88214e+07
7.92127e+07
7.97874e+07
8.05822e+07
8.16359e+07
8.29892e+07
8.46817e+07
8.6754e+07
8.92448e+07
9.21897e+07
9.56194e+07
9.95604e+07
1.04035e+08
1.09056e+08
1.14633e+08
1.20766e+08
1.2745e+08
1.34677e+08
1.42429e+08
1.50681e+08
1.59407e+08
1.68578e+08
1.78155e+08
1.8809e+08
1.9833e+08
2.0883e+08
2.1953e+08
2.30357e+08
2.41235e+08
2.52073e+08
2.62771e+08
2.73211e+08
2.83281e+08
2.92843e+08
3.01749e+08
3.09845e+08
3.16977e+08
3.22999e+08
3.27774e+08
3.3114e+08
3.33004e+08
3.33278e+08
3.31868e+08
3.28725e+08
3.23843e+08
3.17284e+08
3.09143e+08
2.99579e+08
2.88723e+08
2.76759e+08
2.6383e+08
2.50134e+08
2.35875e+08
2.21342e+08
2.84675e+07
2.84621e+07
2.84311e+07
2.8377e+07
2.82992e+07
2.81971e+07
2.80704e+07
2.79184e+07
2.77407e+07
2.75369e+07
2.73067e+07
2.70499e+07
2.67663e+07
2.64558e+07
2.61186e+07
2.57546e+07
2.53641e+07
2.49473e+07
2.45045e+07
2.40363e+07
2.3543e+07
2.30254e+07
2.24842e+07
2.19203e+07
2.13348e+07
2.07288e+07
2.01033e+07
1.94595e+07
1.87989e+07
1.81228e+07
1.74327e+07
1.67302e+07
1.6017e+07
1.52951e+07
1.45666e+07
1.38336e+07
1.30986e+07
1.23642e+07
1.16332e+07
1.09088e+07
1.01943e+07
9.49333e+06
8.80971e+06
8.14753e+06
7.51117e+06
6.90517e+06
6.33429e+06
5.8034e+06
5.31747e+06
4.88157e+06
4.50084e+06
4.18037e+06
3.92523e+06
3.74039e+06
3.63053e+06
3.60012e+06
3.65328e+06
3.7937e+06
4.02458e+06
4.34862e+06
4.76797e+06
5.28418e+06
5.89818e+06
6.61024e+06
7.41993e+06
8.32618e+06
9.32727e+06
1.04209e+07
1.16042e+07
1.28737e+07
1.42255e+07
1.56555e+07
1.71591e+07
1.87311e+07
2.03663e+07
2.20591e+07
2.38038e+07
2.55945e+07
2.74252e+07
2.929e+07
3.11827e+07
3.3097e+07
3.50264e+07
3.69644e+07
3.89044e+07
4.08395e+07
4.27629e+07
4.46678e+07
4.65472e+07
4.8394e+07
5.02013e+07
5.19621e+07
5.36698e+07
5.53178e+07
5.68997e+07
5.841e+07
5.98432e+07
6.11952e+07
6.24621e+07
6.36408e+07
6.4729e+07
6.57252e+07
6.66291e+07
6.74413e+07
6.81633e+07
6.87966e+07
6.93431e+07
6.9806e+07