/*--------------------------------*- C++ -*----------------------------------*\
| =========                 |                                                 |
| \\      /  F ield         | OpenFOAM: The Open Source CFD Toolbox           |
|  \\    /   O peration     | Version:  dev                                   |
|   \\  /    A nd           | Web:      http://www.openfoam.org               |
|    \\/     M anipulation  |                                                 |
\*---------------------------------------------------------------------------*/
FoamFile
{
    version     2.0;
    format      ascii;
    class       volScalarField;
    object      rho;
    location    "9.121";
}
// * * * * * * * * * * * * * * * * * * * * * * * * * * * * * * * * * * * * * //

dimensions      [1 -3 0 0 0 0 0];

internalField   nonuniform List<scalar> 
12225
(
1.17145
1.16881
1.16814
1.16715
1.16583
1.16427
1.16214
1.1607
1.15783
1.1572
1.15306
1.15432
1.14839
1.15099
1.14488
1.14584
1.14566
1.13732
1.16923
1.16882
1.16987
1.17044
1.16993
1.17064
1.16851
1.17001
1.16566
1.169
1.16112
1.1682
1.15704
1.16477
1.15748
1.16101
1.15628
1.1444
1.16878
1.16941
1.16987
1.17086
1.17011
1.17109
1.17017
1.17079
1.17011
1.16931
1.16861
1.16668
1.16591
1.16457
1.16452
1.16572
1.15889
1.15157
1.16902
1.16855
1.17099
1.16885
1.17174
1.16712
1.17191
1.16504
1.17167
1.16305
1.17036
1.16131
1.16807
1.16109
1.16478
1.15972
1.16076
1.15568
1.17181
1.16638
1.17281
1.16627
1.17235
1.1649
1.17097
1.16333
1.16921
1.16234
1.16771
1.16182
1.16634
1.16222
1.16366
1.16001
1.16092
1.15863
1.17308
1.16548
1.1735
1.1661
1.17236
1.16525
1.17045
1.16358
1.16849
1.1625
1.16748
1.16172
1.16647
1.1613
1.16458
1.16073
1.16261
1.15976
1.17354
1.16676
1.17386
1.1672
1.17266
1.1665
1.17065
1.16494
1.1687
1.16413
1.16777
1.16336
1.16674
1.16272
1.16533
1.16253
1.16418
1.16086
1.17359
1.16738
1.17423
1.16775
1.17319
1.16694
1.17122
1.16523
1.16908
1.16406
1.16792
1.16308
1.16665
1.16232
1.16521
1.16145
1.16408
1.16127
1.17391
1.16835
1.17449
1.16851
1.17322
1.16755
1.1711
1.16588
1.16876
1.16476
1.16722
1.16375
1.16575
1.16264
1.16392
1.1612
1.16251
1.16102
1.17427
1.16925
1.17441
1.16946
1.17327
1.16841
1.17085
1.16625
1.16806
1.16461
1.16606
1.16338
1.16419
1.16185
1.1618
1.16
1.15995
1.15949
1.17492
1.17116
1.17453
1.17059
1.17264
1.16907
1.17014
1.1667
1.16735
1.16463
1.16488
1.16276
1.16225
1.16051
1.15952
1.158
1.15717
1.15686
1.17473
1.17286
1.17471
1.17192
1.17233
1.16973
1.16928
1.16657
1.16593
1.16369
1.16289
1.16114
1.15979
1.15842
1.1569
1.15536
1.15418
1.15336
1.17633
1.17499
1.1753
1.17321
1.17224
1.17018
1.16861
1.16644
1.16493
1.16302
1.16138
1.15963
1.1577
1.15625
1.15419
1.15247
1.15092
1.14943
1.17828
1.1774
1.17688
1.17496
1.17308
1.17101
1.16871
1.16644
1.16425
1.16214
1.15984
1.15765
1.1554
1.15354
1.1511
1.14908
1.14723
1.14529
1.18106
1.18025
1.17922
1.17707
1.17464
1.17221
1.16952
1.16692
1.16424
1.16175
1.159
1.15635
1.15376
1.15137
1.1485
1.14621
1.14389
1.14166
1.18433
1.18386
1.18254
1.18013
1.17743
1.17471
1.17175
1.16878
1.16572
1.16277
1.15967
1.15664
1.15365
1.15071
1.14759
1.14496
1.14215
1.13968
1.18874
1.18875
1.18742
1.18484
1.18197
1.179
1.17582
1.1726
1.16942
1.16626
1.16296
1.15982
1.15655
1.15323
1.15024
1.1473
1.1442
1.14163
1.19351
1.19435
1.19337
1.19105
1.18861
1.18598
1.18307
1.17997
1.17706
1.17398
1.17098
1.16795
1.16452
1.16121
1.1584
1.15515
1.15206
1.14943
1.19773
1.20015
1.19982
1.19802
1.19632
1.1943
1.19207
1.1895
1.1871
1.18458
1.18224
1.17958
1.17666
1.17386
1.17131
1.16834
1.16563
1.1632
1.20139
1.20532
1.2059
1.20494
1.2041
1.2028
1.20149
1.19976
1.19799
1.19603
1.19416
1.19212
1.1901
1.18784
1.18586
1.18355
1.1813
1.17922
1.20459
1.20971
1.21105
1.21099
1.21114
1.21056
1.21013
1.20935
1.20832
1.207
1.20584
1.20451
1.20318
1.20159
1.20013
1.19845
1.1968
1.19493
1.20689
1.2131
1.21517
1.21591
1.21675
1.21692
1.21734
1.21731
1.21706
1.21665
1.21617
1.21546
1.21461
1.21353
1.21269
1.2116
1.21053
1.20931
1.2089
1.21603
1.21879
1.22032
1.22171
1.22269
1.22378
1.22428
1.22461
1.22479
1.22478
1.2246
1.22417
1.22361
1.22304
1.22214
1.22151
1.22069
1.20995
1.21801
1.22153
1.2236
1.2254
1.22682
1.2282
1.2292
1.23013
1.23065
1.23099
1.2312
1.23121
1.231
1.23076
1.23038
1.23002
1.22956
1.2109
1.21967
1.22353
1.22588
1.22803
1.22995
1.23176
1.23321
1.23448
1.23539
1.23613
1.23647
1.23664
1.23662
1.23656
1.23646
1.23631
1.23605
1.21168
1.22091
1.22503
1.22762
1.22988
1.23183
1.23375
1.23538
1.23693
1.23827
1.23941
1.24031
1.2409
1.2412
1.24136
1.24137
1.24131
1.24112
1.21236
1.22161
1.22584
1.22854
1.23107
1.23327
1.23543
1.2373
1.23914
1.24074
1.24221
1.24333
1.24422
1.24481
1.2453
1.24563
1.24587
1.24604
1.21251
1.22199
1.22639
1.22932
1.23222
1.23492
1.23759
1.23995
1.24231
1.24427
1.24617
1.24759
1.2489
1.24977
1.25065
1.25114
1.25179
1.25208
1.21285
1.22239
1.22678
1.22984
1.23298
1.23609
1.23907
1.2416
1.24375
1.24533
1.24661
1.24741
1.24807
1.24831
1.24842
1.24811
1.24812
1.24761
1.21222
1.21923
1.22208
1.22425
1.22631
1.22792
1.22902
1.22965
1.22994
1.22991
1.22969
1.22925
1.22869
1.22793
1.22707
1.22616
1.22529
1.22482
1.15729
1.2137
1.22409
1.2179
1.21685
1.21361
1.2076
1.20137
1.19655
1.19275
1.19014
1.18726
1.18478
1.18238
1.17948
1.17728
1.17521
1.17358
1.17181
1.16999
1.16836
1.1672
1.16674
1.16568
1.16499
1.16425
1.16376
1.16423
1.16432
1.16573
1.1664
1.16715
1.16713
1.16519
1.16265
1.1557
1.14892
1.14675
1.14834
1.15227
1.15535
1.1602
1.16746
1.17408
1.17857
1.17993
1.1775
1.17222
1.16278
1.15272
1.16024
1.17864
1.19611
1.19694
1.18832
1.17653
1.17855
1.17815
1.15335
1.13831
1.14715
1.16094
1.17175
1.17982
1.18612
1.19156
1.19632
1.20072
1.20486
1.20887
1.21268
1.21643
1.22005
1.22358
1.227
1.23021
1.23342
1.23638
1.23927
1.2421
1.24498
1.24769
1.25068
1.25324
1.25555
1.25789
1.26017
1.26226
1.26429
1.26612
1.26792
1.26909
1.27078
1.27234
1.27283
1.27414
1.27444
1.27519
1.27531
1.27529
1.27385
1.27189
1.27022
1.26827
1.26685
1.26506
1.26185
1.25672
1.25059
1.24543
1.24038
1.23668
1.23487
1.23491
1.23631
1.23492
1.23248
1.23228
1.23316
1.23292
1.23071
1.22665
1.21988
1.21189
1.20401
1.19918
1.19517
1.18996
1.18552
1.18529
1.18613
1.19002
1.19179
1.19155
1.19266
1.19343
1.19983
1.20224
1.21062
1.20181
1.21257
1.21616
1.217
1.22535
1.23133
1.23772
1.2457
1.25386
1.2602
1.26389
1.26829
1.27288
1.2772
1.28249
1.28767
1.2973
1.30462
1.31546
1.32428
1.33544
1.34234
1.35206
1.35673
1.37125
1.37824
1.37736
1.39103
1.38149
1.37258
1.34821
1.32409
1.3304
1.35464
1.40096
1.38281
1.35442
1.33077
1.31276
1.31743
1.31465
1.14762
1.20827
1.24806
1.26221
1.2557
1.23175
1.20388
1.1807
1.16545
1.15519
1.15032
1.14606
1.14227
1.13938
1.13532
1.13281
1.13003
1.12859
1.12718
1.12629
1.12402
1.12445
1.12457
1.12588
1.12636
1.12663
1.12921
1.12776
1.13281
1.13449
1.13891
1.14754
1.14877
1.16328
1.16637
1.16808
1.18484
1.17749
1.1606
1.17738
1.20514
1.22212
1.22515
1.22082
1.21623
1.21114
1.20145
1.20463
1.22026
1.2192
1.21278
1.20391
1.22564
1.2134
1.18735
1.1772
1.17986
1.18426
1.18898
1.19791
1.20738
1.21451
1.21986
1.22393
1.22732
1.23021
1.23293
1.23564
1.23857
1.24137
1.24439
1.24742
1.25091
1.25407
1.25787
1.26121
1.26504
1.26814
1.27213
1.27518
1.27891
1.28288
1.28644
1.29084
1.29426
1.29718
1.30097
1.30527
1.30848
1.31274
1.31675
1.32273
1.32396
1.32992
1.33508
1.33955
1.34514
1.34833
1.35371
1.35481
1.35761
1.35705
1.35617
1.35433
1.35222
1.34785
1.34068
1.33011
1.31672
1.3075
1.30129
1.29851
1.30243
1.31175
1.3219
1.32503
1.31893
1.31581
1.31701
1.31786
1.32014
1.31635
1.29242
1.2537
1.21599
1.1991
1.1869
1.17342
1.1629
1.16698
1.17143
1.18274
1.18622
1.1881
1.19027
1.18969
1.19289
1.18304
1.22085
1.19542
1.21557
1.20278
1.195
1.19158
1.19635
1.18675
1.2065
1.24523
1.29224
1.32381
1.33301
1.33459
1.33331
1.33757
1.34184
1.35058
1.3609
1.37019
1.38641
1.39504
1.4101
1.42507
1.42925
1.45925
1.45861
1.49955
1.56619
1.57655
1.57504
1.529
1.47215
1.49623
1.56338
1.6288
1.63004
1.58783
1.56267
1.48171
1.46824
1.44454
1.13744
1.18747
1.23159
1.2453
1.22227
1.18161
1.14533
1.12146
1.10836
1.10143
1.09871
1.09791
1.09721
1.09762
1.09789
1.0991
1.10011
1.10186
1.10299
1.10487
1.10543
1.10801
1.1082
1.10984
1.11108
1.10975
1.1131
1.10953
1.11294
1.11099
1.11017
1.11544
1.11575
1.12119
1.1333
1.13337
1.14573
1.15563
1.15572
1.15871
1.15394
1.16863
1.20394
1.22127
1.21448
1.20259
1.17863
1.18035
1.18605
1.19882
1.2211
1.18732
1.17791
1.18338
1.18422
1.19022
1.19388
1.19775
1.20075
1.20227
1.20202
1.20103
1.19902
1.19718
1.19546
1.19376
1.19301
1.19184
1.19225
1.19182
1.19296
1.19321
1.19552
1.19626
1.19915
1.20069
1.20356
1.20519
1.20818
1.20987
1.21211
1.21446
1.21561
1.21943
1.22157
1.22285
1.22471
1.22862
1.23089
1.23404
1.23672
1.24622
1.24539
1.2516
1.26041
1.26594
1.27791
1.28278
1.29738
1.30154
1.3141
1.32311
1.3299
1.33709
1.34419
1.34781
1.34488
1.33971
1.32966
1.31704
1.30835
1.30195
1.30019
1.30487
1.31808
1.34159
1.35742
1.33002
1.27289
1.25323
1.28557
1.31049
1.31205
1.30172
1.25782
1.2054
1.17986
1.1757
1.16522
1.16401
1.17421
1.19125
1.21016
1.22465
1.22925
1.23753
1.23467
1.13957
1.22328
1.17427
1.25482
1.22869
1.23883
1.17522
1.13107
1.07088
1.06291
1.102
1.17807
1.26438
1.32423
1.3559
1.35901
1.35494
1.35047
1.34234
1.34316
1.34203
1.36072
1.3461
1.36471
1.37021
1.38759
1.41471
1.35489
1.4322
1.51221
1.56926
1.59516
1.58842
1.56525
1.55463
1.62866
1.60921
1.62424
1.59484
1.65214
1.58871
1.57575
1.54388
1.12811
1.16184
1.19068
1.19262
1.16719
1.13775
1.11743
1.10715
1.10352
1.10353
1.10468
1.10612
1.10816
1.11078
1.11432
1.11787
1.12144
1.12444
1.12751
1.12986
1.13186
1.13332
1.13395
1.13542
1.13498
1.13604
1.13689
1.13563
1.13574
1.13318
1.12943
1.13299
1.12747
1.13057
1.13581
1.13753
1.14668
1.15336
1.16201
1.16871
1.17146
1.16767
1.16813
1.19263
1.19711
1.17402
1.19332
1.20032
1.15818
1.16407
1.1743
1.17654
1.18504
1.18709
1.19151
1.19058
1.192
1.19057
1.18721
1.18361
1.1807
1.17651
1.17509
1.17235
1.17233
1.17108
1.17235
1.17209
1.17432
1.17422
1.17639
1.1766
1.17858
1.17989
1.18093
1.18301
1.18393
1.18602
1.18598
1.18834
1.18981
1.1915
1.19177
1.19289
1.19356
1.19287
1.19285
1.19327
1.19458
1.19475
1.19323
1.19743
1.19747
1.19785
1.2026
1.20233
1.21044
1.21092
1.22083
1.2248
1.23109
1.24009
1.24591
1.24996
1.25323
1.2673
1.29442
1.3235
1.33985
1.32767
1.30615
1.2902
1.28397
1.29404
1.2962
1.2905
1.31468
1.32455
1.28771
1.21118
1.16685
1.17562
1.19477
1.21835
1.23395
1.24402
1.24368
1.24625
1.24857
1.23637
1.2187
1.2041
1.21361
1.26198
1.26944
1.28411
1.29697
1.0844
1.17251
1.08076
1.1964
1.17343
1.30329
1.30057
1.22095
1.1293
1.0695
1.05131
1.08057
1.15931
1.24866
1.33374
1.36769
1.36296
1.34169
1.32816
1.32601
1.32124
1.34577
1.32831
1.3515
1.32971
1.33844
1.37601
1.29861
1.357
1.39152
1.44385
1.50412
1.5543
1.60021
1.58331
1.68574
1.65338
1.627
1.57023
1.62684
1.60853
1.61717
1.60944
1.12064
1.14016
1.15286
1.14835
1.13201
1.11568
1.10523
1.09846
1.09446
1.09235
1.09205
1.0933
1.09659
1.10121
1.10645
1.11141
1.11453
1.11654
1.11937
1.11991
1.12106
1.1212
1.12167
1.12368
1.12173
1.12513
1.12713
1.12577
1.13054
1.13074
1.13108
1.12879
1.12936
1.1407
1.13513
1.15532
1.15097
1.15735
1.16916
1.16922
1.1777
1.18458
1.17662
1.1777
1.18015
1.18782
1.20435
1.17895
1.1536
1.17655
1.17915
1.18163
1.18719
1.18339
1.18239
1.17962
1.17537
1.16802
1.16664
1.16195
1.1603
1.15961
1.16124
1.16121
1.16425
1.16471
1.16784
1.16863
1.17161
1.17261
1.17528
1.17689
1.17722
1.17993
1.18213
1.18162
1.18466
1.18658
1.18607
1.18789
1.1883
1.18924
1.18949
1.19029
1.19114
1.19052
1.19153
1.19064
1.19126
1.18988
1.18938
1.18842
1.18897
1.18578
1.18827
1.18707
1.19069
1.19232
1.19489
1.19892
1.20127
1.20509
1.20713
1.2109
1.21113
1.20977
1.21339
1.22308
1.24535
1.27321
1.30775
1.3345
1.31472
1.28942
1.28735
1.27078
1.26898
1.27963
1.27651
1.24066
1.19753
1.17511
1.18203
1.21122
1.2044
1.19026
1.18126
1.18797
1.21501
1.21685
1.20115
1.19627
1.16458
1.21683
1.24611
1.2522
1.2317
1.10851
1.12143
1.12988
1.17052
1.09546
1.15907
1.23964
1.23509
1.23653
1.23488
1.18959
1.12674
1.11714
1.17727
1.28977
1.3612
1.36741
1.33891
1.31733
1.31859
1.30979
1.34667
1.32729
1.35549
1.35458
1.34425
1.37223
1.30877
1.34435
1.33871
1.3525
1.41204
1.4768
1.58054
1.60112
1.70998
1.67561
1.62009
1.58267
1.60654
1.59367
1.62467
1.64146
1.11549
1.12534
1.12732
1.11936
1.10685
1.09571
1.08819
1.08298
1.08079
1.08155
1.08575
1.09243
1.10001
1.10786
1.11389
1.11704
1.11844
1.11935
1.12063
1.12034
1.12101
1.12313
1.12331
1.12709
1.12543
1.12774
1.13054
1.12912
1.12993
1.13228
1.13565
1.12454
1.12787
1.12619
1.13744
1.16057
1.16164
1.17678
1.17595
1.17957
1.18994
1.19064
1.18848
1.19517
1.19656
1.19553
1.18164
1.166
1.1718
1.17813
1.17594
1.18103
1.17414
1.17217
1.16861
1.16036
1.15638
1.15633
1.15391
1.15442
1.15965
1.16141
1.16471
1.16678
1.1686
1.16937
1.17083
1.17116
1.17222
1.17303
1.17377
1.17709
1.17826
1.17635
1.18352
1.1821
1.18534
1.18703
1.18922
1.19079
1.19157
1.19345
1.19416
1.19453
1.19562
1.19447
1.19592
1.19481
1.1953
1.19263
1.19268
1.18929
1.18698
1.18368
1.17991
1.17797
1.17553
1.17532
1.17362
1.17555
1.17553
1.18041
1.18066
1.18453
1.19098
1.18892
1.19102
1.19904
1.20802
1.21133
1.2114
1.24329
1.2848
1.29671
1.31422
1.31107
1.28894
1.28076
1.27759
1.27584
1.24314
1.20834
1.22765
1.23778
1.21999
1.24116
1.28324
1.25948
1.2505
1.2256
1.19204
1.18313
1.15018
1.13684
1.18474
1.17284
1.14374
1.13854
1.11675
1.20142
1.26297
1.21856
1.16901
1.18752
1.18301
1.20136
1.26565
1.28509
1.23181
1.15423
1.1494
1.24655
1.34541
1.36897
1.33804
1.30804
1.32249
1.29558
1.32826
1.33153
1.34131
1.34986
1.34933
1.37826
1.32546
1.35449
1.32432
1.31623
1.35816
1.40293
1.51318
1.60771
1.71194
1.67834
1.61284
1.60278
1.62668
1.59663
1.62647
1.66654
1.11188
1.11509
1.11029
1.09973
1.08887
1.08227
1.079
1.07732
1.07931
1.0852
1.09351
1.09944
1.1037
1.10729
1.10894
1.10954
1.10996
1.11101
1.11242
1.1156
1.11813
1.12215
1.12465
1.12688
1.12789
1.12727
1.12967
1.13188
1.12685
1.13269
1.13866
1.13391
1.13276
1.12169
1.12971
1.14171
1.16255
1.17368
1.18051
1.18344
1.19039
1.20441
1.2069
1.20204
1.18914
1.18208
1.17348
1.16804
1.17789
1.17757
1.17479
1.1721
1.1665
1.16164
1.15186
1.15228
1.15141
1.1507
1.15659
1.16234
1.16174
1.16338
1.16326
1.16116
1.15989
1.15852
1.15719
1.15715
1.15671
1.15898
1.15876
1.15991
1.16592
1.16358
1.16793
1.16953
1.17286
1.17483
1.1784
1.18054
1.18318
1.18674
1.1892
1.19014
1.19264
1.19388
1.19638
1.19757
1.19918
1.19951
1.19979
1.19851
1.19666
1.19324
1.18905
1.18557
1.18131
1.181
1.17535
1.17517
1.17219
1.17169
1.17322
1.16911
1.16945
1.17392
1.17186
1.16789
1.17489
1.18473
1.17885
1.18028
1.21235
1.23979
1.25937
1.27407
1.29187
1.29831
1.30852
1.30242
1.26895
1.28217
1.29161
1.25266
1.25388
1.2663
1.28064
1.2355
1.20634
1.20784
1.21707
1.1994
1.21575
1.17162
1.21911
1.17232
1.15926
1.12079
1.14544
1.15049
1.2327
1.23649
1.19018
1.17891
1.18278
1.18178
1.22853
1.25664
1.24963
1.18343
1.14077
1.21417
1.32945
1.3698
1.34889
1.29729
1.31197
1.29678
1.30811
1.32459
1.34196
1.34223
1.34668
1.37366
1.32935
1.36748
1.315
1.30925
1.34361
1.33857
1.41098
1.59263
1.71016
1.65702
1.59017
1.6131
1.65338
1.5995
1.61513
1.66747
1.10926
1.10769
1.09873
1.08809
1.08191
1.07962
1.07757
1.07776
1.08373
1.0908
1.09494
1.09634
1.09921
1.10241
1.10472
1.10763
1.11106
1.11541
1.12011
1.12509
1.12998
1.13323
1.13467
1.13309
1.1304
1.12752
1.13086
1.13505
1.12696
1.12841
1.13085
1.13521
1.13528
1.12777
1.12843
1.14201
1.15584
1.16541
1.18285
1.19835
1.21688
1.21561
1.19216
1.18099
1.17783
1.17333
1.1729
1.17253
1.17501
1.16872
1.168
1.16035
1.15165
1.14766
1.14644
1.14712
1.15034
1.15902
1.16005
1.15665
1.15657
1.15355
1.14889
1.14763
1.14605
1.14627
1.14661
1.14906
1.1492
1.15281
1.15724
1.15701
1.162
1.1645
1.16789
1.17011
1.17138
1.17335
1.17466
1.17514
1.17586
1.17778
1.17811
1.18007
1.18054
1.18222
1.18559
1.18878
1.19196
1.19537
1.19823
1.19836
1.19684
1.1931
1.18806
1.18527
1.17808
1.17531
1.17032
1.1686
1.16695
1.167
1.16627
1.16492
1.16647
1.16608
1.16824
1.16504
1.16554
1.17113
1.17203
1.15668
1.17132
1.18468
1.19738
1.21194
1.22273
1.23876
1.26084
1.26207
1.27759
1.30109
1.26579
1.24632
1.277
1.25907
1.231
1.22212
1.21104
1.2035
1.22949
1.1863
1.15909
1.14251
1.19202
1.18082
1.21552
1.18471
1.19977
1.18299
1.18904
1.19417
1.14636
1.14199
1.19394
1.21312
1.2296
1.23304
1.24244
1.19441
1.13778
1.18059
1.30727
1.35931
1.3651
1.30242
1.29335
1.28995
1.29543
1.30832
1.33548
1.32748
1.34067
1.35699
1.32555
1.38144
1.30041
1.30323
1.36074
1.2861
1.28823
1.54634
1.68833
1.6341
1.54951
1.62297
1.62824
1.6311
1.66509
1.66634
1.10758
1.10318
1.09343
1.08624
1.08373
1.08111
1.07817
1.08102
1.08788
1.0922
1.09591
1.0993
1.10299
1.10546
1.10945
1.11469
1.1202
1.1256
1.13134
1.13557
1.13741
1.13634
1.13061
1.12254
1.11712
1.11807
1.12761
1.13352
1.12605
1.1257
1.12959
1.13572
1.13394
1.13281
1.12947
1.12942
1.13332
1.16502
1.19686
1.21612
1.20767
1.1905
1.17675
1.17009
1.17641
1.1743
1.17537
1.1739
1.17173
1.16294
1.15581
1.14882
1.14519
1.14365
1.14668
1.15343
1.15784
1.15497
1.15211
1.15002
1.14539
1.1408
1.14137
1.14232
1.14329
1.1465
1.14689
1.15055
1.15342
1.15433
1.15903
1.16163
1.16514
1.16889
1.17292
1.17707
1.18093
1.18528
1.18731
1.1887
1.18998
1.19069
1.18948
1.18653
1.18431
1.18313
1.18522
1.18985
1.19428
1.19869
1.20104
1.20718
1.20758
1.20542
1.19985
1.19799
1.19049
1.18231
1.17424
1.16955
1.16685
1.1609
1.15941
1.15385
1.15983
1.15549
1.15593
1.15543
1.1648
1.15269
1.16452
1.1646
1.16012
1.15993
1.16258
1.16858
1.18075
1.18174
1.18682
1.20502
1.21224
1.22886
1.22377
1.24012
1.23506
1.18461
1.19516
1.22596
1.20986
1.15518
1.16979
1.18635
1.20342
1.1533
1.15436
1.16848
1.20691
1.16751
1.16495
1.19467
1.18198
1.22939
1.18134
1.17196
1.21642
1.214
1.19457
1.17112
1.21283
1.18719
1.14361
1.15389
1.28499
1.34501
1.37048
1.31956
1.28564
1.28292
1.28289
1.28915
1.33118
1.31911
1.34895
1.34117
1.31826
1.38713
1.28988
1.29745
1.38275
1.26582
1.20019
1.50092
1.62839
1.59794
1.51506
1.6107
1.62772
1.68241
1.73553
1.65695
1.10678
1.10124
1.09245
1.08728
1.08334
1.07898
1.0782
1.08315
1.08958
1.09372
1.09635
1.09778
1.10166
1.10685
1.11463
1.12176
1.12807
1.13461
1.13922
1.1405
1.13688
1.12905
1.11843
1.1094
1.10785
1.11367
1.12142
1.127
1.12525
1.1172
1.11709
1.13696
1.14276
1.12864
1.1117
1.12139
1.15619
1.19787
1.20648
1.19799
1.17402
1.16937
1.17465
1.16724
1.16994
1.16724
1.16663
1.1609
1.15323
1.14905
1.14463
1.14052
1.14039
1.14677
1.15057
1.15133
1.15055
1.14755
1.14382
1.13884
1.13767
1.1403
1.14182
1.14241
1.14287
1.14505
1.14605
1.14572
1.14864
1.14994
1.15268
1.15574
1.15917
1.16268
1.16669
1.17122
1.17479
1.17991
1.18293
1.19087
1.19406
1.19616
1.20256
1.20284
1.19716
1.19
1.18898
1.1891
1.19331
1.19637
1.20109
1.19993
1.2055
1.20804
1.20107
1.20011
1.1979
1.18899
1.18236
1.17798
1.17481
1.16163
1.16274
1.15497
1.15268
1.14826
1.15421
1.14503
1.15179
1.15228
1.14852
1.1531
1.15285
1.15248
1.16156
1.15489
1.16108
1.1634
1.16208
1.17083
1.14772
1.18448
1.19447
1.17685
1.18805
1.17728
1.17243
1.17739
1.18206
1.15711
1.15126
1.16737
1.20995
1.16454
1.16605
1.15775
1.18179
1.1441
1.16366
1.18425
1.16385
1.19481
1.16686
1.20285
1.24597
1.21688
1.20445
1.15267
1.21475
1.19293
1.15928
1.13526
1.26086
1.33337
1.36272
1.3358
1.2883
1.28233
1.27949
1.27909
1.33083
1.30975
1.35323
1.32876
1.31523
1.38566
1.2897
1.30669
1.3776
1.27613
1.20291
1.49118
1.57031
1.54273
1.49348
1.5954
1.63088
1.69719
1.74872
1.69659
1.10647
1.10028
1.09203
1.08703
1.08259
1.08075
1.08067
1.08277
1.08686
1.09153
1.0964
1.10329
1.11086
1.11836
1.12595
1.13271
1.1398
1.1466
1.14778
1.14401
1.13973
1.13585
1.12716
1.11639
1.11199
1.11548
1.12119
1.12626
1.13139
1.13704
1.14239
1.13383
1.10691
1.09684
1.1168
1.16144
1.20076
1.20976
1.18782
1.17318
1.16481
1.16463
1.16815
1.16803
1.16887
1.16247
1.15934
1.15408
1.14929
1.14309
1.13844
1.14336
1.14484
1.14725
1.14864
1.14948
1.14457
1.14042
1.13867
1.13955
1.14068
1.14169
1.14087
1.14389
1.14558
1.14507
1.14809
1.1488
1.15122
1.15448
1.15832
1.16203
1.16644
1.17281
1.17677
1.18126
1.18559
1.19286
1.1898
1.19357
1.19743
1.19657
1.19994
1.20929
1.21534
1.20538
1.20521
1.20226
1.20507
1.20476
1.2134
1.2123
1.21007
1.21707
1.20589
1.20281
1.20359
1.19361
1.18825
1.18303
1.17899
1.17158
1.16693
1.16137
1.15547
1.15326
1.14711
1.14606
1.14169
1.14391
1.14244
1.14144
1.15014
1.14246
1.1439
1.1455
1.1539
1.15044
1.14513
1.16706
1.14916
1.15579
1.15149
1.15513
1.18408
1.1737
1.13898
1.15365
1.18622
1.18072
1.15552
1.15444
1.16298
1.13629
1.1859
1.17844
1.16415
1.14427
1.18934
1.19343
1.17201
1.1809
1.15383
1.19831
1.22684
1.18643
1.21378
1.14214
1.20752
1.2024
1.1854
1.13204
1.2295
1.3245
1.35459
1.34964
1.29457
1.28414
1.28181
1.27795
1.33382
1.30749
1.36063
1.32516
1.31683
1.37179
1.29013
1.31742
1.35206
1.28653
1.27928
1.52514
1.50517
1.49754
1.49783
1.57545
1.64374
1.71405
1.65073
1.67182
1.10638
1.09983
1.09266
1.08921
1.08352
1.07901
1.08084
1.09022
1.10165
1.10832
1.10952
1.11277
1.11888
1.126
1.13244
1.14077
1.14899
1.15457
1.15681
1.16085
1.16742
1.16229
1.13859
1.11608
1.10963
1.11319
1.11805
1.12336
1.12692
1.125
1.11692
1.10639
1.11087
1.13794
1.17013
1.19432
1.19832
1.18639
1.16645
1.16143
1.16644
1.16582
1.16246
1.15977
1.15707
1.1524
1.14928
1.14176
1.13808
1.13903
1.13844
1.13906
1.14177
1.14566
1.14259
1.14178
1.13979
1.14057
1.13797
1.1388
1.13914
1.14281
1.14355
1.14562
1.15039
1.15207
1.15504
1.15749
1.15939
1.16005
1.16203
1.16662
1.16796
1.17649
1.18558
1.19126
1.19553
1.20805
1.2143
1.21486
1.22077
1.21763
1.21037
1.20876
1.21905
1.21632
1.21336
1.21516
1.22006
1.21683
1.22059
1.22738
1.21598
1.22593
1.21552
1.20307
1.21348
1.20054
1.18813
1.19304
1.18468
1.17447
1.16898
1.17027
1.16271
1.16166
1.15499
1.1531
1.14762
1.14282
1.14468
1.13386
1.13762
1.14332
1.14043
1.13253
1.14281
1.14973
1.13577
1.14429
1.14703
1.15577
1.14701
1.13597
1.15317
1.17258
1.15799
1.15907
1.16134
1.16032
1.16579
1.18698
1.17268
1.1527
1.16278
1.15185
1.15618
1.1741
1.19943
1.16786
1.17321
1.20626
1.20663
1.23563
1.21485
1.17333
1.22856
1.14092
1.19086
1.21072
1.21503
1.15389
1.20132
1.30581
1.33737
1.35408
1.29656
1.28892
1.28791
1.28406
1.33942
1.31369
1.36532
1.3217
1.3212
1.35837
1.29754
1.32069
1.32705
1.29073
1.34432
1.50947
1.43888
1.46908
1.5177
1.57341
1.63522
1.67242
1.68956
1.72763
1.1069
1.10135
1.09715
1.09538
1.08669
1.07974
1.08374
1.09295
1.10253
1.11156
1.11971
1.12574
1.12811
1.13147
1.14066
1.15318
1.16578
1.17834
1.18881
1.19871
1.19862
1.1748
1.14012
1.1172
1.10971
1.10472
1.09632
1.09304
1.09567
1.10071
1.1122
1.13367
1.16569
1.19546
1.20626
1.19208
1.16737
1.15883
1.15516
1.15277
1.15776
1.15388
1.15369
1.1533
1.14548
1.14243
1.13717
1.13675
1.13751
1.13486
1.13898
1.14324
1.14239
1.14407
1.14444
1.14418
1.13797
1.1388
1.13757
1.14166
1.1407
1.14546
1.15173
1.15436
1.15792
1.16002
1.16063
1.16083
1.16267
1.1629
1.16044
1.16781
1.16863
1.17441
1.18731
1.20156
1.20368
1.21339
1.22175
1.22563
1.2334
1.24104
1.23605
1.23375
1.22971
1.23092
1.22697
1.22955
1.22987
1.23321
1.22776
1.23529
1.22272
1.22556
1.22436
1.20419
1.2146
1.20573
1.19057
1.20354
1.18982
1.17852
1.18058
1.17105
1.16683
1.16588
1.15866
1.15867
1.15991
1.14942
1.15269
1.15062
1.13997
1.13864
1.14411
1.13499
1.12542
1.14282
1.14259
1.1301
1.1348
1.1499
1.14688
1.13324
1.14316
1.15248
1.14873
1.16353
1.16797
1.16507
1.15729
1.17283
1.15535
1.16723
1.17613
1.15435
1.16255
1.17723
1.18444
1.16381
1.1868
1.19748
1.20558
1.24102
1.20498
1.18462
1.23083
1.14305
1.18719
1.212
1.2399
1.19285
1.19346
1.29491
1.323
1.35898
1.3066
1.29898
1.29496
1.2948
1.34553
1.31999
1.36706
1.32203
1.32585
1.34432
1.29997
1.31472
1.31207
1.29768
1.35057
1.4286
1.39467
1.47483
1.55246
1.56172
1.6495
1.6894
1.62932
1.72684
1.10774
1.10337
1.10037
1.09634
1.08857
1.08954
1.09523
1.09717
1.10118
1.10608
1.10523
1.11006
1.12417
1.1392
1.15289
1.16567
1.18066
1.19665
1.21059
1.21932
1.21164
1.19136
1.17006
1.15613
1.15251
1.14676
1.13298
1.12541
1.13027
1.1398
1.15397
1.16791
1.17835
1.18841
1.19408
1.17774
1.1534
1.14555
1.15187
1.15172
1.15147
1.14711
1.14337
1.14446
1.13783
1.14119
1.1366
1.13387
1.13658
1.13833
1.13874
1.13893
1.14233
1.1415
1.13625
1.13779
1.13605
1.13891
1.13603
1.14316
1.14687
1.14997
1.15491
1.15789
1.16035
1.16256
1.16316
1.16187
1.16449
1.16983
1.16693
1.17547
1.18412
1.19179
1.20327
1.21939
1.22678
1.24307
1.24495
1.24763
1.24528
1.25193
1.24234
1.24882
1.24376
1.24333
1.23595
1.24284
1.2405
1.23871
1.23234
1.2353
1.22813
1.22053
1.22636
1.2026
1.21236
1.2149
1.18561
1.20308
1.19595
1.17439
1.19007
1.18245
1.17259
1.17903
1.16524
1.16137
1.16948
1.15643
1.15278
1.16025
1.15428
1.14122
1.1526
1.15244
1.12451
1.14319
1.14771
1.12764
1.13281
1.14534
1.14253
1.1354
1.1436
1.14417
1.15011
1.15725
1.16143
1.16197
1.167
1.1738
1.14972
1.16463
1.16063
1.16315
1.17651
1.18671
1.17489
1.17563
1.19004
1.20576
1.21816
1.23087
1.20151
1.20108
1.21217
1.14848
1.20412
1.19843
1.25103
1.24152
1.20509
1.28336
1.2996
1.35556
1.3107
1.30748
1.30013
1.30607
1.34961
1.32674
1.36613
1.31784
1.3269
1.33231
1.30173
1.3038
1.30445
1.30236
1.33161
1.37204
1.39785
1.50912
1.58516
1.58357
1.64562
1.58455
1.53495
1.6726
1.1085
1.10447
1.10098
1.09611
1.09242
1.09767
1.10073
1.10172
1.11127
1.12132
1.13159
1.14737
1.14633
1.14074
1.14904
1.16259
1.1789
1.19199
1.199
1.2006
1.19693
1.19095
1.18345
1.18311
1.18908
1.18729
1.17149
1.1612
1.17363
1.19399
1.20708
1.20561
1.18643
1.16582
1.15795
1.15142
1.14927
1.14726
1.14773
1.15012
1.14588
1.14625
1.14387
1.14087
1.1345
1.13519
1.133
1.13603
1.13419
1.13305
1.13777
1.13412
1.13303
1.1359
1.13756
1.13886
1.1378
1.14541
1.14379
1.14653
1.15016
1.15402
1.15798
1.16017
1.16074
1.16305
1.16716
1.16565
1.16545
1.17311
1.1757
1.18202
1.19544
1.20646
1.2225
1.23713
1.2396
1.25243
1.25783
1.26198
1.26294
1.26621
1.25698
1.25898
1.25661
1.25282
1.25022
1.25151
1.25
1.24151
1.24034
1.23751
1.23427
1.22296
1.22398
1.21211
1.21381
1.21831
1.19249
1.2065
1.2017
1.17468
1.19351
1.19064
1.17092
1.18618
1.17934
1.16774
1.17981
1.16809
1.15697
1.16661
1.16481
1.1454
1.15556
1.1602
1.1354
1.15122
1.15161
1.13585
1.14088
1.14723
1.13997
1.13954
1.14265
1.14148
1.15565
1.15514
1.16097
1.15985
1.16828
1.15803
1.15899
1.16733
1.15584
1.16888
1.17754
1.18205
1.17585
1.18439
1.19799
1.21829
1.21233
1.20831
1.20876
1.20567
1.20129
1.16954
1.24822
1.18556
1.25763
1.29302
1.2386
1.27292
1.27306
1.35301
1.31516
1.31926
1.30676
1.31932
1.34937
1.33155
1.36002
1.31324
1.32601
1.31963
1.29762
1.29485
1.29938
1.30409
1.33787
1.38814
1.44728
1.55566
1.60408
1.61269
1.64475
1.60013
1.64167
1.64367
1.10969
1.10719
1.1071
1.10633
1.10335
1.10666
1.11066
1.11487
1.12645
1.13032
1.12715
1.12524
1.13364
1.1561
1.16217
1.16177
1.16632
1.16966
1.1735
1.17746
1.18077
1.17986
1.18049
1.18698
1.19923
1.20942
1.19796
1.1714
1.16579
1.18721
1.20494
1.20458
1.19003
1.16903
1.15112
1.13886
1.13668
1.14485
1.1464
1.14492
1.13811
1.13555
1.13611
1.13294
1.13165
1.13301
1.12657
1.13027
1.13355
1.13251
1.13372
1.13685
1.14044
1.14001
1.14257
1.14697
1.14239
1.1459
1.14714
1.14971
1.15172
1.15528
1.15763
1.16215
1.16414
1.16093
1.16496
1.16733
1.16857
1.1753
1.18062
1.19281
1.20823
1.21995
1.23712
1.25065
1.25554
1.26346
1.2591
1.2548
1.25418
1.25357
1.24717
1.25466
1.258
1.25057
1.25418
1.2524
1.24929
1.24134
1.23795
1.24023
1.22979
1.22257
1.2243
1.21396
1.21422
1.21698
1.1955
1.20945
1.20856
1.18593
1.20487
1.20012
1.17573
1.19226
1.19043
1.17183
1.18905
1.17896
1.16716
1.17739
1.17405
1.15928
1.16342
1.16301
1.15118
1.15885
1.15389
1.14468
1.15123
1.15569
1.14416
1.14775
1.14519
1.14754
1.15789
1.15304
1.16002
1.16259
1.16393
1.15102
1.16656
1.15593
1.16788
1.17854
1.18011
1.17993
1.1781
1.18303
1.19446
1.20065
1.19146
1.19099
1.20404
1.19827
1.20574
1.20106
1.2698
1.1691
1.26456
1.29806
1.29356
1.33586
1.31757
1.38379
1.31639
1.32728
1.30945
1.33023
1.34548
1.33183
1.34798
1.30647
1.3183
1.30782
1.28911
1.2855
1.2898
1.31225
1.38185
1.4463
1.51279
1.58829
1.61358
1.62318
1.61809
1.58815
1.67814
1.65473
1.11094
1.10983
1.11324
1.11958
1.12299
1.12568
1.12539
1.1247
1.12716
1.12832
1.13773
1.15008
1.154
1.1509
1.15328
1.16092
1.16122
1.16446
1.16648
1.16901
1.17181
1.17446
1.17438
1.17199
1.17825
1.19632
1.21679
1.21452
1.18609
1.16944
1.17447
1.17369
1.1587
1.14651
1.14252
1.14357
1.13998
1.13578
1.14017
1.13919
1.13421
1.13131
1.12998
1.1247
1.12462
1.12988
1.12818
1.12967
1.12854
1.13313
1.13425
1.1328
1.13998
1.14233
1.13986
1.14554
1.14398
1.14622
1.14872
1.15316
1.15723
1.1637
1.16097
1.16067
1.16493
1.16196
1.1669
1.17222
1.176
1.19365
1.20557
1.21851
1.23854
1.24715
1.25612
1.26282
1.25676
1.26159
1.25856
1.25442
1.25021
1.24818
1.24098
1.24594
1.24655
1.24419
1.24714
1.25002
1.24078
1.23959
1.23859
1.23703
1.22876
1.22267
1.22304
1.21765
1.21513
1.2148
1.19799
1.21096
1.21156
1.19385
1.20999
1.20071
1.18072
1.20026
1.19898
1.18077
1.19916
1.18973
1.17939
1.18832
1.18338
1.1745
1.17037
1.17163
1.1657
1.16687
1.15856
1.15353
1.16265
1.15828
1.14785
1.15589
1.15013
1.15496
1.15581
1.15535
1.15773
1.16209
1.15501
1.15861
1.16961
1.15868
1.17802
1.17533
1.18778
1.18577
1.17905
1.18204
1.18572
1.19047
1.17745
1.17264
1.18339
1.20139
1.22262
1.24
1.24543
1.18148
1.26997
1.2385
1.275
1.35492
1.33495
1.38123
1.30336
1.33696
1.31465
1.3377
1.33294
1.32694
1.3305
1.29575
1.30564
1.29518
1.27498
1.28027
1.28179
1.33951
1.45008
1.50295
1.55987
1.58449
1.61601
1.61467
1.58041
1.63259
1.74546
1.5535
1.11235
1.11083
1.11343
1.12219
1.13686
1.1441
1.14358
1.14365
1.14252
1.13924
1.14051
1.14765
1.15277
1.15388
1.15931
1.16517
1.16647
1.16731
1.16673
1.16771
1.16604
1.16767
1.17027
1.17142
1.16843
1.16312
1.16772
1.18704
1.20782
1.20768
1.18876
1.17795
1.16434
1.14103
1.12573
1.12746
1.14287
1.14256
1.13783
1.13513
1.13013
1.131
1.13266
1.12674
1.12473
1.12606
1.12647
1.13451
1.13044
1.12995
1.13591
1.13231
1.13378
1.13883
1.13782
1.14179
1.14684
1.15186
1.15605
1.15849
1.15618
1.16097
1.15983
1.15809
1.16232
1.16323
1.17376
1.18835
1.2018
1.21995
1.23062
1.2414
1.24863
1.24579
1.2487
1.2511
1.24423
1.24467
1.23614
1.23384
1.23352
1.23488
1.22972
1.24022
1.23686
1.23434
1.23768
1.23912
1.23459
1.23506
1.23549
1.23464
1.22406