/*--------------------------------*- C++ -*----------------------------------*\
| =========                 |                                                 |
| \\      /  F ield         | OpenFOAM: The Open Source CFD Toolbox           |
|  \\    /   O peration     | Version:  dev                                   |
|   \\  /    A nd           | Web:      http://www.openfoam.org               |
|    \\/     M anipulation  |                                                 |
\*---------------------------------------------------------------------------*/
FoamFile
{
    version     2.0;
    format      ascii;
    class       volScalarField;
    object      rho_0;
    location    "9.121";
}
// * * * * * * * * * * * * * * * * * * * * * * * * * * * * * * * * * * * * * //

dimensions      [1 -3 0 0 0 0 0];

internalField   nonuniform List<scalar> 
12225
(
1.19048
1.18835
1.18825
1.18785
1.18722
1.18629
1.18485
1.18391
1.18155
1.18115
1.17743
1.17844
1.17255
1.1751
1.16854
1.1692
1.16853
1.16252
1.18823
1.18872
1.19028
1.19145
1.19158
1.193
1.1915
1.1936
1.18968
1.19333
1.18572
1.19269
1.18125
1.18918
1.18135
1.18371
1.17796
1.16676
1.18778
1.18923
1.1902
1.19168
1.19166
1.19319
1.19307
1.19406
1.19407
1.19334
1.19319
1.19092
1.19032
1.18885
1.18855
1.18936
1.18121
1.17408
1.18793
1.18808
1.19124
1.18935
1.19318
1.18887
1.19462
1.18793
1.19536
1.18676
1.19461
1.18533
1.1923
1.18504
1.18855
1.18355
1.18379
1.17776
1.1906
1.18557
1.19282
1.1865
1.19351
1.18648
1.19334
1.18611
1.19252
1.18597
1.19159
1.18573
1.19027
1.18599
1.18719
1.18327
1.18392
1.18074
1.19142
1.18443
1.19308
1.18609
1.19312
1.18659
1.19246
1.18612
1.19152
1.18587
1.1911
1.18536
1.19013
1.18478
1.18797
1.18367
1.18552
1.18143
1.19134
1.18526
1.19289
1.18672
1.19292
1.18734
1.19219
1.187
1.19127
1.18703
1.19092
1.18657
1.18993
1.18579
1.1883
1.18515
1.18654
1.18212
1.19071
1.1853
1.19264
1.18667
1.19283
1.18717
1.19214
1.18667
1.19102
1.18636
1.19044
1.18572
1.18924
1.18485
1.18756
1.18357
1.18586
1.18211
1.19035
1.18563
1.1922
1.18682
1.19216
1.18718
1.19131
1.1867
1.18999
1.18644
1.18903
1.1858
1.18764
1.18458
1.18559
1.18274
1.18364
1.18148
1.1898
1.1857
1.19122
1.18693
1.19128
1.18718
1.19014
1.18621
1.18842
1.18541
1.18702
1.18456
1.18523
1.18295
1.18267
1.18073
1.18034
1.17937
1.18921
1.18651
1.19015
1.18691
1.18945
1.18669
1.18824
1.18551
1.18653
1.18428
1.1847
1.1828
1.18221
1.18053
1.17937
1.17771
1.17663
1.17594
1.18746
1.18668
1.18881
1.18672
1.18764
1.18581
1.18587
1.18385
1.1836
1.18184
1.18125
1.17973
1.1784
1.17709
1.17545
1.17379
1.17242
1.17131
1.1871
1.18679
1.18743
1.186
1.18559
1.18427
1.18328
1.18177
1.18073
1.17928
1.1779
1.17638
1.17455
1.17316
1.17104
1.16925
1.16757
1.16589
1.18644
1.18658
1.18644
1.18513
1.18388
1.18251
1.18086
1.17924
1.17758
1.17593
1.17397
1.17204
1.16997
1.16821
1.16578
1.16377
1.16186
1.15984
1.18579
1.18602
1.1854
1.18385
1.1821
1.1804
1.17842
1.1765
1.17442
1.17244
1.17012
1.1678
1.16547
1.16324
1.1605
1.1583
1.15599
1.15379
1.18466
1.18527
1.18437
1.18257
1.18062
1.17867
1.1765
1.17426
1.17189
1.16954
1.16697
1.1644
1.16177
1.1591
1.15624
1.1538
1.15113
1.1488
1.18341
1.18457
1.18368
1.18177
1.17972
1.17762
1.17531
1.17293
1.17057
1.16814
1.16552
1.16297
1.16019
1.15731
1.15472
1.15211
1.1493
1.14701
1.1814
1.18368
1.18319
1.1816
1.18007
1.1784
1.17648
1.17435
1.17237
1.17018
1.16802
1.16574
1.16299
1.16029
1.15804
1.15529
1.15267
1.15046
1.17936
1.18322
1.18338
1.18236
1.18162
1.18062
1.17947
1.17796
1.17661
1.1751
1.17372
1.17197
1.16989
1.16787
1.16606
1.16377
1.16169
1.15983
1.1776
1.18293
1.18397
1.18381
1.18395
1.18368
1.1835
1.1829
1.18225
1.18139
1.18057
1.17955
1.17851
1.17716
1.17603
1.17454
1.17306
1.17166
1.17602
1.18269
1.18447
1.18519
1.18629
1.18676
1.18745
1.18783
1.18798
1.18783
1.1878
1.18756
1.18729
1.1867
1.18619
1.18543
1.18464
1.18357
1.1746
1.18235
1.18483
1.18632
1.18805
1.18927
1.1908
1.19192
1.19286
1.19364
1.19434
1.19476
1.19502
1.19501
1.19519
1.19507
1.19493
1.1946
1.17382
1.18236
1.18548
1.1877
1.18995
1.19193
1.19409
1.19575
1.19726
1.19864
1.19982
1.20079
1.20154
1.2021
1.20259
1.20272
1.20308
1.20319
1.17273
1.18216
1.18594
1.18863
1.19125
1.19364
1.19608
1.19822
1.20033
1.20206
1.20361
1.20498
1.20618
1.20712
1.20798
1.20868
1.20934
1.20986
1.17227
1.18221
1.18624
1.18918
1.19211
1.19496
1.19781
1.20039
1.20283
1.20496
1.20692
1.20846
1.20984
1.211
1.21206
1.21306
1.21396
1.21469
1.17198
1.18228
1.18653
1.18966
1.19269
1.19557
1.19852
1.20126
1.20397
1.20653
1.20889
1.21099
1.21281
1.21431
1.21562
1.21675
1.21776
1.21859
1.17188
1.18216
1.18651
1.18974
1.19304
1.19616
1.19935
1.20234
1.20534
1.20814
1.21082
1.21316
1.21527
1.21705
1.2187
1.22016
1.22148
1.2227
1.17143
1.18205
1.18655
1.19
1.19363
1.19723
1.20091
1.20437
1.20784
1.211
1.2141
1.21672
1.21923
1.22129
1.22332
1.22493
1.22665
1.22798
1.17147
1.18215
1.18662
1.19017
1.19401
1.19797
1.20192
1.20551
1.20878
1.21155
1.21404
1.21607
1.21794
1.21938
1.22067
1.22148
1.22259
1.22307
1.17012
1.17842
1.18153
1.18429
1.18712
1.18965
1.19179
1.19355
1.19503
1.19622
1.19725
1.19806
1.19874
1.1992
1.19952
1.19977
1.19998
1.20045
1.13098
1.18592
1.19612
1.19006
1.18918
1.18641
1.18099
1.17528
1.17089
1.16748
1.16523
1.16276
1.16069
1.15875
1.15634
1.15461
1.15305
1.15195
1.15074
1.14951
1.14848
1.14791
1.14808
1.14766
1.14764
1.14758
1.14777
1.14897
1.14974
1.15189
1.1533
1.1548
1.15564
1.15455
1.15302
1.14707
1.14096
1.13934
1.14158
1.14625
1.15005
1.15561
1.1637
1.17128
1.17678
1.17921
1.17782
1.17346
1.16472
1.1549
1.16259
1.18184
1.2004
1.20218
1.19411
1.18284
1.1856
1.18537
1.16066
1.1467
1.15653
1.17079
1.18198
1.19043
1.1971
1.20287
1.20795
1.21265
1.21705
1.22129
1.22532
1.22927
1.23307
1.23677
1.24037
1.24376
1.24715
1.25032
1.25344
1.25652
1.25969
1.26273
1.26609
1.26907
1.27184
1.27468
1.27755
1.28024
1.28292
1.28543
1.28793
1.28981
1.29219
1.29442
1.29553
1.29739
1.29818
1.29927
1.29964
1.29968
1.29812
1.29591
1.29381
1.29126
1.28906
1.28626
1.28179
1.27522
1.26762
1.26094
1.25432
1.24908
1.2457
1.24411
1.24361
1.24013
1.2357
1.23355
1.23226
1.22971
1.22522
1.21884
1.20981
1.19971
1.18987
1.18305
1.17696
1.1697
1.16332
1.16099
1.1597
1.1613
1.16079
1.15838
1.15734
1.15613
1.16038
1.16099
1.16627
1.15618
1.1647
1.16625
1.16541
1.17186
1.1755
1.18011
1.18537
1.18999
1.19237
1.19269
1.19448
1.19658
1.19852
1.20126
1.20402
1.21084
1.21537
1.22339
1.22943
1.23809
1.24288
1.25081
1.25485
1.26829
1.2756
1.27552
1.28957
1.28346
1.2794
1.26196
1.24549
1.2572
1.28548
1.33612
1.32596
1.30506
1.28775
1.27522
1.28408
1.28468
1.12206
1.1811
1.21975
1.23377
1.22827
1.2059
1.17936
1.15698
1.14218
1.13223
1.1276
1.12365
1.12018
1.11765
1.11398
1.11183
1.10946
1.10843
1.10748
1.10707
1.10531
1.10621
1.1069
1.10878
1.10986
1.11077
1.11396
1.11322
1.11887
1.12124
1.12634
1.1356
1.13747
1.15271
1.15647
1.15883
1.17651
1.17033
1.15384
1.17049
1.19892
1.21738
1.2219
1.21864
1.21488
1.21079
1.20178
1.20519
1.22169
1.22173
1.21591
1.2078
1.23045
1.21857
1.19298
1.18353
1.18683
1.19178
1.19711
1.20673
1.21673
1.22427
1.22999
1.23442
1.23812
1.2413
1.2443
1.24724
1.25039
1.2534
1.2566
1.25978
1.26344
1.26673
1.27068
1.27416
1.27816
1.28141
1.28561
1.28889
1.29288
1.29714
1.30103
1.30584
1.30968
1.31308
1.3174
1.32233
1.32617
1.33111
1.33584
1.34262
1.34448
1.35126
1.35714
1.36224
1.36849
1.3721
1.37793
1.37914
1.38208
1.38133
1.3801
1.37772
1.37484
1.36935
1.36077
1.34856
1.33361
1.32293
1.31526
1.31111
1.31371
1.32146
1.32955
1.33023
1.32185
1.31666
1.31559
1.31426
1.31416
1.30742
1.28048
1.23938
1.2003
1.18231
1.16842
1.15299
1.14086
1.1431
1.14534
1.15405
1.15474
1.15401
1.15393
1.15091
1.15229
1.14492
1.17651
1.15103
1.16587
1.15149
1.14195
1.14038
1.14509
1.13822
1.15918
1.19484
1.23388
1.25509
1.25662
1.25367
1.25026
1.2527
1.255
1.26193
1.26969
1.2769
1.28966
1.29738
1.30964
1.32283
1.32561
1.35349
1.35842
1.39477
1.4567
1.46597
1.46746
1.42828
1.38099
1.41227
1.48211
1.55372
1.56283
1.52962
1.5107
1.4383
1.43011
1.40994
1.11298
1.16198
1.20538
1.21955
1.19815
1.15897
1.12342
1.09968
1.08655
1.07958
1.07691
1.07625
1.07572
1.07632
1.07678
1.07822
1.07948
1.08156
1.08305
1.08537
1.08635
1.08945
1.09024
1.09245
1.09439
1.09368
1.09775
1.09491
1.09908
1.09796
1.09794
1.10392
1.10503
1.11119
1.12397
1.12476
1.13782
1.14849
1.1494
1.15324
1.1491
1.16387
1.19985
1.21878
1.21342
1.20293
1.1792
1.18102
1.18761
1.20088
1.22479
1.19162
1.18254
1.18833
1.18969
1.1963
1.20062
1.20498
1.20849
1.21044
1.21053
1.20985
1.20817
1.20657
1.20515
1.20366
1.20316
1.20217
1.20277
1.20248
1.20376
1.20409
1.20651
1.20733
1.21029
1.21191
1.21487
1.21661
1.2197
1.22155
1.22396
1.22652
1.22791
1.232
1.23443
1.23607
1.23834
1.24271
1.24547
1.24913
1.25237
1.26244
1.26209
1.26895
1.27829
1.2843
1.29678
1.30197
1.31698
1.32125
1.33409
1.34302
1.34961
1.35649
1.36301
1.36591
1.36231
1.3563
1.34497
1.33074
1.32044
1.31245
1.30927
1.31273
1.32469
1.34637
1.35883
1.32722
1.26827
1.24894
1.28055
1.30287
1.30169
1.2881
1.2409
1.18646
1.1596
1.15323
1.14039
1.13789
1.14676
1.16248
1.17868
1.18844
1.19057
1.19528
1.18806
1.10609
1.18353
1.14001
1.20998
1.18055
1.17715
1.11183
1.07256
1.01979
1.02086
1.06606
1.14191
1.21806
1.26306
1.2807
1.27665
1.2707
1.26573
1.25736
1.25708
1.25548
1.2702
1.25662
1.27263
1.28018
1.29627
1.31951
1.27189
1.34593
1.42544
1.47838
1.5011
1.4925
1.47063
1.46963
1.54639
1.53729
1.56088
1.53995
1.59943
1.54242
1.53481
1.50683
1.10495
1.13832
1.16738
1.17016
1.1456
1.11641
1.09586
1.08534
1.08163
1.08169
1.083
1.08462
1.08679
1.08953
1.0932
1.09696
1.10085
1.10426
1.10775
1.11065
1.11318
1.11529
1.11649
1.11857
1.11888
1.12043
1.122
1.12142
1.12221
1.12039
1.11736
1.12181
1.11704
1.12075
1.12693
1.12922
1.13922
1.14666
1.15605
1.16354
1.16714
1.16411
1.16515
1.19051
1.19606
1.17348
1.19317
1.20154
1.1601
1.16631
1.17753
1.17993
1.18908
1.19171
1.19684
1.19643
1.19825
1.19729
1.19438
1.19103
1.1885
1.1846
1.18354
1.18108
1.18137
1.18037
1.18189
1.18182
1.18426
1.18432
1.18662
1.18693
1.18894
1.19035
1.19143
1.19355
1.19455
1.19673
1.19672
1.19922
1.20084
1.20271
1.20321
1.20457
1.20552
1.20514
1.20553
1.20632
1.20807
1.20859
1.20757
1.21211
1.21259
1.21333
1.21838
1.2184
1.22672
1.22738
1.23734
1.24125
1.24743
1.25618
1.26144
1.26493
1.26787
1.28214
1.30935
1.33749
1.35191
1.33783
1.31544
1.29892
1.29165
1.29999
1.29974
1.29262
1.31544
1.32176
1.28074
1.20242
1.15893
1.16788
1.18571
1.20697
1.22006
1.22746
1.22476
1.225
1.2234
1.20852
1.18978
1.17493
1.18675
1.23001
1.23286
1.24534
1.24975
1.04665
1.13813
1.04512
1.16148
1.14369
1.26481
1.23668
1.1504
1.05631
1.00046
0.993105
1.03811
1.12491
1.20771
1.27376
1.29115
1.28036
1.25977
1.24718
1.24361
1.23891
1.25793
1.24062
1.25992
1.23855
1.25066
1.28439
1.21405
1.27566
1.31807
1.37429
1.43036
1.47466
1.5114
1.49894
1.60237
1.57849
1.56502
1.51588
1.57779
1.56359
1.57561
1.57106
1.0989
1.11842
1.13181
1.128
1.11188
1.09546
1.08492
1.07824
1.07442
1.07248
1.07225
1.07344
1.07667
1.08126
1.08664
1.09195
1.09559
1.0981
1.10147
1.10263
1.10436
1.10501
1.10602
1.10852
1.10722
1.11112
1.11369
1.11299
1.11837
1.11912
1.12001
1.11876
1.11977
1.13192
1.12684
1.14751
1.14403
1.15104
1.16369
1.16451
1.17375
1.18139
1.17414
1.176
1.17915
1.18744
1.20484
1.18002
1.15503
1.17877
1.18195
1.18495
1.1911
1.18798
1.18731
1.18498
1.18127
1.17418
1.17308
1.16884
1.16754
1.16715
1.16915
1.16942
1.17271
1.17341
1.17672
1.17766
1.18074
1.18184
1.18454
1.18628
1.18661
1.18928
1.19162
1.19107
1.19416
1.19613
1.19569
1.19758
1.19809
1.19917
1.19963
1.20067
1.20182
1.20152
1.20294
1.20241
1.20344
1.20241
1.20241
1.20174
1.20261
1.19976
1.20246
1.20154
1.20522
1.20697
1.20936
1.21333
1.21538
1.21888
1.22041
1.22367
1.2232
1.22087
1.22361
1.23277
1.25473
1.28241
1.31624
1.34062
1.31816
1.29195
1.28883
1.27056
1.26754
1.27629
1.27005
1.23134
1.1869
1.16445
1.1708
1.19762
1.18832
1.17187
1.16018
1.16673
1.1919
1.19144
1.17509
1.168
1.1398
1.19567
1.21794
1.22324
1.19791
1.06387
1.08868
1.07956
1.1205
1.04911
1.13316
1.20373
1.18654
1.17477
1.15388
1.10034
1.0521
1.06804
1.1421
1.24465
1.29431
1.28867
1.25951
1.24053
1.23868
1.23287
1.26443
1.24161
1.26939
1.26257
1.25422
1.28042
1.21851
1.25838
1.26292
1.28648
1.3474
1.41246
1.50579
1.5193
1.62941
1.60273
1.55951
1.52504
1.5558
1.54908
1.58289
1.60218
1.09531
1.10528
1.10801
1.10066
1.08838
1.07719
1.06961
1.0644
1.06209
1.06256
1.06639
1.07293
1.0806
1.08873
1.09529
1.09907
1.10105
1.10243
1.10424
1.10429
1.10534
1.10778
1.10837
1.11268
1.11148
1.11455
1.11794
1.11702
1.11882
1.1216
1.12552
1.11519
1.11922
1.11856
1.13002
1.15394
1.15535
1.17118
1.17113
1.17543
1.18655
1.18787
1.18641
1.19385
1.1959
1.1954
1.1822
1.16707
1.17353
1.18047
1.17865
1.18437
1.17795
1.17629
1.17322
1.16545
1.16154
1.16196
1.16002
1.16079
1.16629
1.16845
1.17193
1.1742
1.17614
1.17702
1.17853
1.17894
1.17999
1.18086
1.18152
1.18484
1.18615
1.18407
1.19128
1.18986
1.19307
1.19475
1.19699
1.19856
1.1994
1.20141
1.20224
1.20278
1.20411
1.20326
1.20508
1.20433
1.2052
1.20295
1.2034
1.20033
1.19834
1.19532
1.19169
1.18996
1.18751
1.18738
1.1855
1.18732
1.18708
1.19161
1.19142
1.19487
1.20049
1.19772
1.19932
1.20637
1.21375
1.21525
1.21474
1.24704
1.28754
1.29802
1.31389
1.30806
1.28429
1.2751
1.27037
1.26585
1.23029
1.195
1.21345
1.22154
1.20194
1.22175
1.2589
1.23399
1.22613
1.19879
1.16304
1.1534
1.11588
1.11128
1.15505
1.14441
1.11321
1.10099
1.08122
1.16581
1.21293
1.15334
1.12162
1.15018
1.14299
1.16355
1.21697
1.21582
1.15029
1.08831
1.10863
1.20983
1.28872
1.29572
1.26095
1.23716
1.24757
1.22219
1.25635
1.25166
1.26142
1.26794
1.26509
1.29107
1.23864
1.26775
1.24787
1.24652
1.29256
1.34828
1.45827
1.53211
1.63492
1.61014
1.55454
1.54444
1.57175
1.55098
1.58488
1.62705
1.09345
1.0968
1.09269
1.0826
1.07173
1.06488
1.0615
1.05966
1.06123
1.06678
1.07518
1.08162
1.08638
1.09051
1.09272
1.09372
1.09438
1.0956
1.09719
1.10048
1.1032
1.10762
1.11057
1.11364
1.11528
1.11552
1.11846
1.12101
1.11698
1.12343
1.13001
1.12547
1.12514
1.1148
1.12347
1.13606
1.15728
1.16919
1.17647
1.1799
1.18741
1.20216
1.20547
1.20124
1.18883
1.18241
1.17435
1.16929
1.17966
1.17984
1.17764
1.17515
1.16998
1.16563
1.15602
1.15666
1.15636
1.1559
1.16192
1.16807
1.16768
1.16936
1.16931
1.16728
1.16601
1.1647
1.16335
1.16336
1.16284
1.16514
1.16496
1.16593
1.17199
1.16963
1.17385
1.17542
1.17864
1.18055
1.18404
1.18609
1.18872
1.19226
1.19467
1.19569
1.19828
1.19975
1.20252
1.20406
1.20602
1.20681
1.20746
1.20656
1.20499
1.20178
1.19781
1.19451
1.19037
1.18998
1.18418
1.1839
1.18064
1.17989
1.18083
1.17597
1.176
1.17972
1.17644
1.17176
1.17833
1.18668
1.17944
1.18055
1.21223
1.23812
1.25604
1.26982
1.28641
1.29142
1.29982
1.29046
1.25589
1.26803
1.27469
1.23468
1.23437
1.24686
1.26058
1.21232
1.18411
1.18434
1.18712
1.1715
1.1851
1.14208
1.18627
1.13669
1.11671
1.0807
1.1016
1.1206
1.20499
1.19576
1.15073
1.14394
1.13806
1.13846
1.19022
1.21404
1.18975
1.11984
1.09743
1.1842
1.28311
1.30514
1.27324
1.22978
1.24748
1.22782
1.24309
1.25556
1.2673
1.26915
1.27084
1.2967
1.25121
1.28347
1.24395
1.23971
1.27207
1.29046
1.37891
1.52917
1.63798
1.59374
1.53804
1.5555
1.60188
1.55128
1.57
1.62768
1.09277
1.09127
1.08279
1.07221
1.0657
1.0633
1.06137
1.06131
1.06696
1.07422
1.07888
1.08064
1.08374
1.08727
1.08974
1.09265
1.09604
1.10043
1.1052
1.11048
1.11586
1.11993
1.12241
1.12202
1.12025
1.1178
1.12125
1.1258
1.11842
1.12065
1.12366
1.12823
1.12899
1.12185
1.12316
1.1374
1.1521
1.16178
1.17934
1.19523
1.21471
1.21447
1.19156
1.18087
1.17809
1.17402
1.17408
1.17415
1.17705
1.17095
1.17053
1.16337
1.15488
1.15099
1.15026
1.15122
1.15455
1.16348
1.16484
1.16137
1.16129
1.15833
1.15369
1.15246
1.15092
1.15119
1.15149
1.15396
1.15407
1.15752
1.16197
1.16162
1.16645
1.1689
1.17214
1.17424
1.17535
1.1772
1.17833
1.17866
1.17929
1.18108
1.1813
1.18317
1.18354
1.18531
1.18884
1.19227
1.19574
1.1995
1.20256
1.20301
1.20167
1.19806
1.19323
1.19057
1.18338
1.18049
1.17542
1.17358
1.17182
1.17141
1.17012
1.16837
1.16962
1.16827
1.16971
1.1658
1.166
1.17008
1.16951
1.15387
1.16818
1.18002
1.19168
1.20516
1.21512
1.23097
1.25172
1.25151
1.26678
1.28672
1.2491
1.22975
1.25946
1.24151
1.21285
1.19916
1.18666
1.18412
1.20632
1.15754
1.13107
1.11781
1.16988
1.15058
1.17669
1.14396
1.16236
1.1417
1.16057
1.15524
1.1089
1.10861
1.15233
1.16872
1.19472
1.20543
1.1996
1.14109
1.09367
1.15684
1.27168
1.30637
1.29577
1.2345
1.23597
1.22971
1.23692
1.25049
1.2691
1.26251
1.26984
1.29052
1.25706
1.30311
1.23584
1.23944
1.28517
1.23767
1.27051
1.49628
1.62739
1.57575
1.50265
1.56876
1.5803
1.57662
1.61212
1.62611
1.09319
1.08869
1.07909
1.07171
1.06916
1.06682
1.06389
1.06637
1.07322
1.07789
1.08188
1.08546
1.08931
1.09188
1.09569
1.10084
1.10641
1.11194
1.11802
1.12293
1.12586
1.12613
1.12181
1.11474
1.10961
1.11031
1.11995
1.12637
1.11918
1.11962
1.12399
1.13013
1.12878
1.1284
1.126
1.1264
1.12992
1.16122
1.19388
1.21447
1.20736
1.19056
1.17683
1.17036
1.177
1.17527
1.1767
1.17552
1.17364
1.16533
1.15825
1.15144
1.1481
1.14686
1.14997
1.15685
1.16158
1.15865
1.15569
1.15366
1.14908
1.14451
1.14509
1.14604
1.14697
1.15015
1.15043
1.15389
1.15668
1.15738
1.1619
1.16435
1.16766
1.17119
1.175
1.17894
1.18263
1.18678
1.18859
1.18985
1.19098
1.19149
1.19014
1.18704
1.18475
1.18353
1.18578
1.19047
1.19501
1.19945
1.20209
1.20827
1.20871
1.20665
1.20119
1.19944
1.19187
1.18349
1.17548
1.17082
1.16777
1.16109
1.15935
1.1535
1.15891
1.15358
1.15377
1.15291
1.16111
1.14825
1.15986
1.15869
1.15302
1.15218
1.15423
1.15966
1.17075
1.17079
1.1763
1.19389
1.20159
1.21636
1.20956
1.22557
1.21749
1.16767
1.17967
1.20722
1.18585
1.13448
1.15354
1.16305
1.16896
1.12197
1.13048
1.14467
1.17999
1.14131
1.14024
1.16273
1.15538
1.19411
1.14063
1.12845
1.17304
1.17513
1.16099
1.15206
1.17901
1.14286
1.09906
1.13361
1.25917
1.30244
1.31341
1.25416
1.23095
1.22911
1.23032
1.23973
1.27205
1.2618
1.2826
1.2822
1.25791
1.31771
1.22828
1.23709
1.31399
1.20882
1.17145
1.45487
1.57906
1.54894
1.46975
1.56153
1.57734
1.62673
1.68201
1.61316
1.09465
1.08886
1.08011
1.0749
1.07123
1.06692
1.06594
1.07091
1.07762
1.08192
1.08465
1.08596
1.08967
1.0946
1.10223
1.10947
1.1159
1.12261
1.12798
1.13044
1.12795
1.12099
1.11111
1.10254
1.10101
1.10685
1.11521
1.12145
1.11987
1.11204
1.11174
1.13246
1.14025
1.12721
1.10955
1.11774
1.1518
1.19487
1.20566
1.19849
1.17471
1.16978
1.17528
1.16815
1.17107
1.16861
1.16824
1.16282
1.15515
1.15107
1.14686
1.14309
1.14294
1.14946
1.15345
1.15418
1.15321
1.15025
1.14656
1.14156
1.14035
1.14302
1.14442
1.14493
1.14521
1.14714
1.14798
1.14737
1.15006
1.15113
1.15361
1.1564
1.15954
1.16278
1.16652
1.17075
1.17405
1.17887
1.18169
1.18941
1.19216
1.19417
1.20035
1.20015
1.19418
1.18703
1.18625
1.18639
1.19069
1.19365
1.19838
1.19711
1.20288
1.20513
1.19792
1.19723
1.19492
1.18576
1.17941
1.17505
1.1712
1.15797
1.15892
1.15059
1.14763
1.14326
1.14819
1.1385
1.14476
1.14447
1.13994
1.14404
1.14307
1.14238
1.15034
1.14284
1.14888
1.1502
1.14877
1.15566
1.13439
1.17225
1.17928
1.16214
1.17111
1.15732
1.15614
1.16158
1.16005
1.13041
1.1301
1.14885
1.18819
1.13901
1.13519
1.13047
1.15968
1.12032
1.13363
1.15553
1.13798
1.17419
1.14317
1.16982
1.21186
1.1883
1.16593
1.13039
1.18392
1.15142
1.11324
1.11523
1.24614
1.2994
1.31798
1.27754
1.23701
1.23415
1.23124
1.23469
1.27839
1.25995
1.29436
1.2751
1.261
1.328
1.23155
1.24788
1.32417
1.21471
1.14365
1.43665
1.52942
1.50158
1.44611
1.55013
1.57941
1.64404
1.71043
1.65256
1.09678
1.09029
1.08204
1.07701
1.07278
1.07101
1.07079
1.07258
1.07633
1.08087
1.08591
1.0927
1.10018
1.10764
1.1155
1.12236
1.1295
1.13677
1.13878
1.13542
1.13078
1.12721
1.12018
1.11078
1.10669
1.11036
1.11656
1.12205
1.1273
1.13312
1.13968
1.13352
1.1069
1.09472
1.11252
1.15692
1.19824
1.21003
1.18936
1.17461
1.16577
1.16554
1.16929
1.1694
1.17057
1.16437
1.16123
1.15603
1.15143
1.14539
1.14057
1.14553
1.14718
1.1495
1.15069
1.15153
1.14657
1.14238
1.14047
1.14136
1.14237
1.14324
1.14216
1.14497
1.14647
1.14566
1.14841
1.14883
1.15094
1.15387
1.15734
1.16069
1.1648
1.17077
1.17426
1.17839
1.18246
1.189
1.18545
1.1892
1.19252
1.19137
1.19481
1.20397
1.20904
1.19877
1.19883
1.19596
1.19882
1.19858
1.20706
1.20554
1.2033
1.20998
1.19824
1.19548
1.19623
1.18582
1.18049
1.17551
1.17105
1.16354
1.15851
1.15289
1.14666
1.14412
1.13723
1.13603
1.13102
1.13277
1.13073
1.12949
1.13727
1.12872
1.13014
1.13178
1.13926
1.1346
1.13047
1.15106
1.13144
1.13919
1.13534
1.14004
1.16705
1.15145
1.11893
1.13614
1.16695
1.15612
1.13004
1.12939
1.14312
1.11519
1.16299
1.15372
1.14223
1.11561
1.15956
1.17032
1.14502
1.15303
1.1222
1.16911
1.20595
1.16951
1.17907
1.12106
1.18851
1.16722
1.13934
1.10576
1.22493
1.30231
1.32219
1.30193
1.25018
1.24243
1.23895
1.23801
1.28823
1.26243
1.30958
1.27703
1.26807
1.32557
1.23664
1.2649
1.3111
1.23161
1.20176
1.47001
1.47348
1.45948
1.44654
1.53095
1.59491
1.6694
1.61189
1.62318
1.09924
1.09226
1.08486
1.08125
1.07597
1.07188
1.0733
1.08198
1.093
1.09955
1.10063
1.1039
1.11044
1.11804
1.12449
1.13244
1.14045
1.14603
1.14792
1.15101
1.15777
1.15575
1.13535
1.11364
1.10673
1.11068
1.11664
1.12273
1.12691
1.12563
1.11772
1.10583
1.10749
1.13308
1.16619
1.19321
1.20001
1.18919
1.16881
1.16311
1.16801
1.16775
1.16453
1.16186
1.1591
1.15446
1.15135
1.14388
1.14005
1.14098
1.14059
1.14106
1.14356
1.1474
1.14419
1.14317
1.14094
1.14169
1.13887
1.13954
1.13955
1.14304
1.14359
1.14534
1.14976
1.15108
1.15362
1.15561
1.157
1.15721
1.15887
1.16297
1.16403
1.17244
1.18087
1.18578
1.18994
1.20203
1.20714
1.20728
1.21253
1.20828
1.20087
1.19989
1.2096
1.20604
1.20311
1.20524
1.20957
1.20619
1.21002
1.21595
1.2045
1.21426
1.20284
1.19117
1.20166
1.18753
1.17582
1.18128
1.17175
1.16152
1.15663
1.15747
1.14959
1.1483
1.14128
1.1391
1.1332
1.1282
1.1294
1.1182
1.12224
1.12721
1.12339
1.11604
1.12685
1.13185
1.11777
1.12778
1.12949
1.13695
1.1272
1.11841
1.13758
1.15367
1.13579
1.13735
1.14188
1.14042
1.14445
1.1623
1.15034
1.12583
1.14217
1.13367
1.13549
1.1472
1.1778
1.15168
1.15016
1.18218
1.17435
1.20542
1.19697
1.15509
1.20063
1.12069
1.17925
1.18573
1.1741
1.11847
1.19837
1.29429
1.31732
1.31773
1.25916
1.25357
1.25181
1.24907
1.30153
1.27434
1.32373
1.28039
1.27888
1.32124
1.25024
1.278
1.29202
1.24371
1.28157
1.47813
1.41258
1.42888
1.46328
1.53021
1.58797
1.62843
1.64631
1.67523
1.10238
1.09626
1.09178
1.09013
1.08173
1.07435
1.07787
1.08749
1.09762
1.10683
1.11528
1.12147
1.12338
1.12596
1.13432
1.14641
1.15856
1.17052
1.18031
1.19041
1.19327
1.17285
1.13859
1.11431
1.10621
1.1023
1.09537
1.09267
1.09518
1.09963
1.10988
1.13012
1.16226
1.19389
1.20727
1.19544
1.17129
1.16216
1.15787
1.1552
1.16032
1.15654
1.15617
1.156
1.14808
1.14496
1.13947
1.13892
1.13974
1.1369
1.14084
1.14497
1.14393
1.14523
1.14529
1.14485
1.13834
1.13893
1.1374
1.1413
1.14004
1.1445
1.1504
1.15254
1.15559
1.15712
1.15714
1.15685
1.15815
1.15764
1.155
1.16191
1.16205
1.16793
1.18063
1.1935
1.19477
1.2042
1.21166
1.21498
1.22243
1.22869
1.22278
1.22019
1.21593
1.21684
1.21267
1.21522
1.21513
1.21788
1.21229
1.21904
1.20624
1.20919
1.20688
1.18731
1.19808
1.18807
1.17385
1.1869
1.1719
1.16122
1.16364
1.15347
1.14952
1.14828
1.14086
1.14101
1.14156
1.13094
1.13423
1.13127
1.12058
1.11996
1.12461
1.11461
1.10702
1.12411
1.12197
1.11099
1.11659
1.13087
1.1264
1.11331
1.12467
1.1348
1.1294
1.14372
1.14732
1.14386
1.13688
1.15371
1.13827
1.14544
1.15617
1.13307
1.14077
1.15652
1.17055
1.14555
1.16706
1.1815
1.18694
1.22478
1.19129
1.16449
1.21676
1.12603
1.17451
1.20137
1.21092
1.15242
1.18597
1.29055
1.31493
1.33473
1.27696
1.27079
1.26742
1.26651
1.31647
1.28855
1.33554
1.28908
1.29175
1.31544
1.26145
1.28277
1.28043
1.25681
1.31389
1.41544
1.36415
1.42793
1.49708
1.51759
1.60322
1.6579
1.60545
1.6889
1.10596
1.10105
1.09804
1.09433
1.08617
1.08609
1.09185
1.09446
1.09848
1.10349
1.10254
1.1062
1.12016
1.13587
1.14972
1.16237
1.17694
1.19296
1.20762
1.21838
1.21294
1.19236
1.16893
1.15274
1.14819
1.14324
1.13054
1.12309
1.12725
1.13623
1.15076
1.16639
1.17945
1.19177
1.19899
1.18326
1.15796
1.14911
1.15518
1.15513
1.155
1.15064
1.14659
1.14759
1.14074
1.14394
1.1393
1.1363
1.13869
1.14026
1.1404
1.14008
1.14315
1.14196
1.13638
1.13762
1.13567
1.13826
1.135
1.14177
1.14502
1.14763
1.15201
1.15438
1.15623
1.15779
1.15764
1.15587
1.15821
1.16254
1.1592
1.16773
1.17547
1.18255
1.19374
1.20879
1.21548
1.23055
1.23087
1.23268
1.23006
1.23559
1.22554
1.23175
1.22583
1.22483
1.21759
1.22428
1.22096
1.2185
1.2122
1.21466
1.20683
1.19968
1.2044
1.18116
1.19195
1.19235
1.16406
1.18234
1.17325
1.15288
1.16924
1.16037
1.15103
1.15719
1.14291
1.13996
1.14736
1.13386
1.13113
1.13831
1.13135
1.11947
1.13105
1.12896
1.10271
1.1224
1.12539
1.10599
1.11238
1.12506
1.12209
1.11466
1.12383
1.12549
1.12989
1.1387
1.14269
1.14331
1.14664
1.15662
1.13107
1.14696
1.14689
1.14431
1.15814
1.17033
1.16246
1.15813
1.17531
1.18962
1.20524
1.22669
1.19008
1.18628
1.2086
1.13283
1.18359
1.19961
1.23696
1.20135
1.19104
1.28697
1.30576
1.3446
1.29157
1.2873
1.2814
1.28553
1.331
1.30394
1.34521
1.29482
1.3022
1.31159
1.27245
1.28011
1.27719
1.26875
1.30323
1.34925
1.35457
1.45675
1.53457
1.53448
1.6045
1.55812
1.49368
1.64729
1.10948
1.10489
1.10122
1.09616
1.09201
1.097
1.10025
1.10097
1.10977
1.11978
1.12989
1.14646
1.14677
1.14039
1.14843
1.16257
1.1797
1.19442
1.20315
1.20614
1.20237
1.19524
1.18578
1.18325
1.18841
1.18703
1.17185
1.16178
1.17393
1.19408
1.20831
1.20908
1.19178
1.17183
1.16414
1.15722
1.15426
1.15175
1.15211
1.15453
1.15017
1.1503
1.14779
1.14455
1.13788
1.13821
1.13568
1.1385
1.1363
1.13476
1.13909
1.13503
1.13358
1.13608
1.13748
1.1383
1.13681
1.14391
1.14171
1.14392
1.14699
1.15028
1.15352
1.1549
1.15485
1.15673
1.15992
1.15748
1.15715
1.16421
1.16588
1.17208
1.18485
1.19513
1.21036
1.22312
1.22472
1.23702
1.24108
1.24426
1.2444
1.24632
1.23644
1.23818
1.23478
1.2305
1.22773
1.2285
1.2259
1.21712
1.21596
1.2126
1.20864
1.19748
1.19818
1.1865
1.18876
1.19152
1.1667
1.18132
1.17439
1.1491
1.16859
1.16372
1.14527
1.16085
1.15286
1.14241
1.15417
1.14167
1.13185
1.1417
1.13882
1.12044
1.13168
1.13518
1.11081
1.12803
1.12802
1.1124
1.11831
1.12503
1.11872
1.11808
1.12256
1.12195
1.13578
1.13696
1.14279
1.14202
1.15112
1.14467
1.1405
1.15343
1.14066
1.15274
1.16445
1.17182
1.16507
1.17338
1.18884
1.21172
1.21191
1.21251
1.20292
1.20198
1.19948
1.15363
1.22767
1.19428
1.25513
1.26836
1.2133
1.26403
1.27413
1.34637
1.30643
1.30789
1.29746
1.30703
1.34153
1.3189
1.35073
1.29961
1.3117
1.30697
1.279
1.27816
1.27946
1.27643
1.30091
1.34545
1.39288
1.50469
1.56112
1.56723
1.61054
1.56288
1.58247
1.61347
1.11339
1.11025
1.10969
1.10815
1.10464
1.10804
1.11223
1.11634
1.12837
1.1332
1.13034
1.12839
1.13536
1.1575
1.16515
1.16539
1.17103
1.17533
1.17975
1.18394
1.18729
1.186
1.18559
1.19161
1.20383
1.21417
1.20239
1.17514
1.16983
1.19249
1.21165
1.21244
1.19828
1.1768
1.1582
1.14508
1.14232
1.15033
1.15182
1.15028
1.14318
1.14018
1.14044
1.13691
1.13529
1.13631
1.12945
1.13278
1.1356
1.13416
1.13488
1.13762
1.14082
1.13979
1.14183
1.14554
1.1403
1.14327
1.14391
1.14587
1.14723
1.1501
1.15179
1.15558
1.15636
1.15263
1.1562
1.1575
1.15819
1.16409
1.16874
1.18058
1.19476
1.20573
1.22216
1.23391
1.2377
1.24412
1.23825
1.23365
1.23259
1.23088
1.22436
1.23157
1.23309
1.2251
1.22834
1.22546
1.22153
1.21313
1.20997
1.21133
1.20014
1.19348
1.19471
1.18421
1.18499
1.18634
1.1658
1.18038
1.17751
1.15636
1.17568
1.16899
1.14622
1.16338
1.16004
1.14291
1.16014
1.14921
1.13873
1.14929
1.14546
1.13129
1.13676
1.13631
1.1245
1.13357
1.12921
1.12033
1.12739
1.13272
1.12225
1.12578
1.12476
1.1273
1.13952
1.13543
1.14358
1.14606
1.15019
1.13679
1.15104
1.14511
1.15261
1.16687
1.16915
1.17157
1.17092
1.17828
1.19334
1.2046
1.19897
1.20073
1.21106
1.2015
1.20328
1.18536
1.27158
1.17837
1.27156
1.31543
1.28644
1.32122
1.31103
1.38163
1.31934
1.32493
1.30911
1.32755
1.34926
1.33023
1.35039
1.30304
1.31543
1.30291
1.28134
1.275
1.27808
1.2853
1.33399
1.39551
1.45982
1.55033
1.57849
1.58847
1.59529
1.54775
1.62434
1.63059
1.11734
1.1157
1.11887
1.12453
1.12683
1.12931
1.12935
1.12886
1.13209
1.13347
1.14221
1.15406
1.15872
1.15712
1.15907
1.16646
1.16729
1.17068
1.17318
1.176
1.17932
1.18212
1.1823
1.17991
1.18615
1.20483
1.22549
1.22251
1.19301
1.17618
1.18242
1.18267
1.1677
1.15503
1.15043
1.15081
1.14663
1.14224
1.14642
1.14521
1.13987
1.13656
1.13483
1.12908
1.12862
1.13343
1.13127
1.1323
1.13058
1.1347
1.13516
1.13313
1.13978
1.14128
1.13819
1.14323
1.14102
1.14273
1.14462
1.14839
1.15181
1.15706
1.15317
1.15259
1.15581
1.15205
1.15655
1.16055
1.16402
1.18089
1.19124
1.20382
1.2226
1.22977
1.23798
1.24277
1.23611
1.24041
1.23592
1.23083
1.22596
1.22284
1.21541
1.21989
1.21931
1.21635
1.21886
1.22009
1.21014
1.20883
1.2072
1.20473
1.19599
1.19009
1.1901
1.18437
1.18201
1.18073
1.16479
1.17819
1.17712
1.16061
1.17684
1.16628
1.14797
1.16791
1.16531
1.14838
1.16691
1.15702
1.14794
1.15732
1.15245
1.1441
1.14124
1.14294
1.13743
1.13991
1.13273
1.12814
1.13796
1.13576
1.12551
1.13412
1.12984
1.13552
1.13838
1.13802
1.14292
1.14746
1.14348
1.14397
1.15882
1.14676
1.16743
1.16776
1.17965
1.18045
1.17798
1.18356
1.19112
1.19785
1.18835
1.1847
1.19681
1.20603
1.22241
1.23147
1.26274
1.17546
1.27726
1.27533
1.29967
1.37385
1.35511
1.40356
1.32003
1.34525
1.32547
1.34766
1.34888
1.33616
1.34425
1.3026
1.31325
1.29876
1.27576
1.27429
1.27579
1.31024
1.40093
1.46049
1.51973
1.56208
1.5869
1.58989
1.56473
1.58589
1.68955
1.54029
1.12132
1.11944
1.12203
1.13073
1.14484
1.15152
1.15065
1.15053
1.14965
1.14648
1.14798
1.15543
1.16057
1.16112
1.166
1.17217
1.17356
1.17471
1.17451
1.17604
1.17478
1.17657
1.17966
1.18129
1.17869
1.17343
1.17806
1.19769
1.21844
1.21765
1.1977
1.18658
1.17262
1.14894
1.13364
1.13562
1.15084
1.14988
1.14483
1.14175
1.13632
1.13681
1.13796
1.13148
1.12907
1.12986
1.12981
1.13722
1.13232
1.13135
1.13657
1.13213
1.13307
1.13734
1.13565
1.13916
1.14358
1.14772
1.15091
1.15209
1.14913
1.15314
1.15073
1.14857
1.15191
1.1521
1.16213
1.17533
1.18766
1.20435
1.21369
1.22364
1.22953
1.22619
1.22887
1.22977
1.22174
1.22082
1.21117
1.20848
1.20728
1.20743
1.20222
1.21188
1.20707
1.20426
1.20693
1.20711
1.20194
1.20191
1.20156
1.1997