/*--------------------------------*- C++ -*----------------------------------*\
| =========                 |                                                 |
| \\      /  F ield         | OpenFOAM: The Open Source CFD Toolbox           |
|  \\    /   O peration     | Version:  dev                                   |
|   \\  /    A nd           | Web:      http://www.openfoam.org               |
|    \\/     M anipulation  |                                                 |
\*---------------------------------------------------------------------------*/
FoamFile
{
    version     2.0;
    format      ascii;
    class       volVectorField;
    object      U;
    location    "9.121";
}
// * * * * * * * * * * * * * * * * * * * * * * * * * * * * * * * * * * * * * //

dimensions      [0 1 -1 0 0 0 0];

internalField   nonuniform List<vector> 
12225
(
(6.88135 0.696176 0)
(3.60861 0.511059 0)
(1.27189 0.352762 0)
(0.602954 0.313574 0)
(-0.624627 0.324756 0)
(0.0405142 0.256243 0)
(-1.15791 0.341293 0)
(0.300966 0.184445 0)
(-0.96744 0.350592 0)
(1.4345 0.0493015 0)
(-0.0805222 0.378096 0)
(3.36599 -0.0407642 0)
(1.84793 0.206048 0)
(6.45676 -0.194331 0)
(7.06709 -0.0874823 0)
(11.9607 -1.49431 0)
(28.3858 -3.03564 0)
(28.5207 4.00395 0)
(9.66265 1.94067 0)
(8.41547 1.91547 0)
(5.25399 1.51629 0)
(4.9064 1.25549 0)
(1.71288 1.12846 0)
(3.48683 1.01644 0)
(-0.276251 1.05018 0)
(3.436 0.808722 0)
(-1.34918 1.01318 0)
(4.69902 0.542018 0)
(-1.52808 0.860091 0)
(7.18583 0.186291 0)
(0.0626323 0.517588 0)
(10.486 -0.977148 0)
(4.758 -0.394752 0)
(16.3555 -5.52757 0)
(16.9732 -2.75077 0)
(18.0863 1.95641 0)
(9.43142 2.55496 0)
(10.9576 2.85057 0)
(7.37419 2.48704 0)
(9.08186 2.27471 0)
(4.19067 2.02611 0)
(7.92673 2.00542 0)
(1.98606 1.77288 0)
(7.89336 1.69988 0)
(0.799786 1.59243 0)
(8.86193 1.20605 0)
(1.36432 1.33725 0)
(9.94791 0.395645 0)
(3.3361 1.06468 0)
(10.6573 -0.664018 0)
(6.29242 -0.206634 0)
(12.2333 -4.39328 0)
(11.7785 -1.32253 0)
(15.8454 1.76069 0)
(8.17347 2.96074 0)
(12.3997 3.71486 0)
(7.24581 3.37527 0)
(11.306 3.28886 0)
(5.69749 2.97987 0)
(10.4086 2.92117 0)
(4.82395 2.69654 0)
(9.99433 2.48666 0)
(4.56842 2.46053 0)
(10.0086 1.73033 0)
(4.95243 2.28743 0)
(10.1888 0.627133 0)
(5.85979 1.93527 0)
(10.7654 -0.714773 0)
(6.89191 0.101779 0)
(9.08452 -6.44696 0)
(10.9241 -2.52097 0)
(15.9046 5.41791 0)
(7.58788 3.945 0)
(11.715 4.49871 0)
(8.18131 4.32366 0)
(10.5665 4.00473 0)
(7.79506 4.09875 0)
(9.3425 3.55461 0)
(7.48946 3.87556 0)
(8.61584 3.03682 0)
(7.41577 3.60018 0)
(8.45946 2.31614 0)
(7.62645 3.40097 0)
(8.61981 1.24024 0)
(7.92037 3.17217 0)
(9.6573 -0.106411 0)
(9.16595 2.49776 0)
(10.0237 -5.93393 0)
(9.33551 -0.920531 0)
(11.4393 3.81452 0)
(9.22045 4.90426 0)
(9.61257 5.07045 0)
(9.09174 5.43173 0)
(8.32906 4.75552 0)
(8.64236 5.25682 0)
(7.47301 4.36965 0)
(8.41078 4.9455 0)
(7.1551 3.8506 0)
(8.46388 4.59614 0)
(7.22354 3.15456 0)
(8.85556 4.18325 0)
(7.79819 2.11123 0)
(9.41354 3.61209 0)
(9.11354 0.436353 0)
(10.6982 2.91874 0)
(10.6974 -2.53561 0)
(7.04554 0.517485 0)
(6.02531 1.9375 0)
(9.90815 6.02063 0)
(8.46121 6.05969 0)
(9.31626 6.72214 0)
(7.58821 5.60022 0)
(8.78097 6.57371 0)
(6.96181 5.0877 0)
(8.47626 6.40328 0)
(6.794 4.45723 0)
(8.61004 6.09367 0)
(7.05964 3.65645 0)
(9.24412 5.56392 0)
(7.747 2.60325 0)
(10.0563 4.79035 0)
(8.79534 0.89121 0)
(10.4481 3.38971 0)
(8.89957 -1.89868 0)
(7.44604 2.74192 0)
(5.56057 0.771198 0)
(10.1143 6.86589 0)
(8.58687 6.90032 0)
(9.25512 7.66245 0)
(7.84704 6.52594 0)
(8.57849 7.50558 0)
(7.30904 6.10288 0)
(8.1899 7.15708 0)
(7.24762 5.54452 0)
(8.31004 6.63335 0)
(7.5871 4.83199 0)
(8.85547 5.86455 0)
(8.22446 3.85968 0)
(9.27943 4.85393 0)
(9.03469 2.48882 0)
(9.27312 3.67843 0)
(8.97361 1.29425 0)
(7.84899 2.91215 0)
(8.27212 2.14665 0)
(10.2545 7.87798 0)
(8.83969 7.85236 0)
(9.15575 8.57856 0)
(7.88405 7.38522 0)
(8.33699 8.45437 0)
(7.28008 6.91798 0)
(7.94221 8.07782 0)
(7.18185 6.28496 0)
(7.99712 7.47419 0)
(7.39562 5.46157 0)
(8.38324 6.72186 0)
(7.8256 4.3821 0)
(8.58982 5.71506 0)
(8.39342 3.11896 0)
(8.51461 4.65159 0)
(8.46876 2.25205 0)
(8.02503 3.80793 0)
(8.46796 2.86163 0)
(10.3348 8.66091 0)
(8.99109 8.96025 0)
(8.88763 9.66004 0)
(7.83016 8.48697 0)
(7.90784 9.31041 0)
(7.21675 8.06337 0)
(7.56036 8.86238 0)
(7.13695 7.50702 0)
(7.58578 8.17421 0)
(7.32564 6.77119 0)
(7.79307 7.3207 0)
(7.66911 5.82752 0)
(7.86775 6.29822 0)
(8.08813 4.70004 0)
(7.87704 5.1333 0)
(8.18323 3.81318 0)
(7.87786 4.12914 0)
(8.41784 3.71223 0)
(9.96255 9.89032 0)
(9.00973 10.217 0)
(8.74831 10.7494 0)
(7.99429 9.71407 0)
(7.73523 10.3156 0)
(7.18468 9.25565 0)
(7.15434 9.78987 0)
(6.83435 8.62727 0)
(6.96485 9.15093 0)
(6.83114 7.82739 0)
(7.14183 8.27222 0)
(7.15231 6.87018 0)
(7.29452 7.20778 0)
(7.5683 5.82773 0)
(7.49147 5.93137 0)
(7.69233 5.00138 0)
(7.69509 4.85364 0)
(8.00245 4.46249 0)
(9.89391 11.0226 0)
(9.10316 11.5566 0)
(8.53877 11.8793 0)
(7.86502 11.1379 0)
(7.41801 11.4226 0)
(6.9982 10.7634 0)
(6.80795 10.9102 0)
(6.63033 10.1481 0)
(6.61973 10.1447 0)
(6.57654 9.31307 0)
(6.74872 9.2288 0)
(6.84734 8.28479 0)
(6.91265 8.15663 0)
(7.11876 7.26181 0)
(7.14369 6.92058 0)
(7.27343 6.29116 0)
(7.33121 5.89662 0)
(7.58226 5.42497 0)
(9.73938 12.1729 0)
(8.86131 13.1108 0)
(8.22206 13.2562 0)
(7.59165 12.7232 0)
(7.08867 12.7495 0)
(6.70012 12.2271 0)
(6.44568 12.1128 0)
(6.28209 11.5056 0)
(6.18685 11.26 0)
(6.12529 10.6516 0)
(6.17731 10.3727 0)
(6.25358 9.62229 0)
(6.33399 9.26754 0)
(6.45608 8.58025 0)
(6.55896 8.0821 0)
(6.67965 7.50631 0)
(6.76883 7.03236 0)
(6.97306 6.51625 0)
(9.66081 13.5731 0)
(8.76325 14.6336 0)
(8.06288 14.5575 0)
(7.43977 14.2185 0)
(6.87501 14.1085 0)
(6.43514 13.7421 0)
(6.08106 13.5096 0)
(5.84663 13.0637 0)
(5.69736 12.6655 0)
(5.60917 12.1632 0)
(5.5784 11.7012 0)
(5.63875 11.0906 0)
(5.71186 10.5315 0)
(5.80828 9.94624 0)
(5.92526 9.37344 0)
(6.03832 8.80482 0)
(6.10005 8.29021 0)
(6.29436 7.75866 0)
(9.63295 15.0392 0)
(8.59014 16.2542 0)
(7.6917 16.0274 0)
(6.94784 15.7982 0)
(6.32854 15.5986 0)
(5.90069 15.2576 0)
(5.56933 14.9032 0)
(5.33246 14.4595 0)
(5.17095 13.9892 0)
(5.0789 13.4803 0)
(5.01388 12.9703 0)
(4.98602 12.4239 0)
(5.0241 11.8312 0)
(5.07461 11.2598 0)
(5.09802 10.6938 0)
(5.18823 10.1107 0)
(5.20799 9.57405 0)
(5.37797 9.03375 0)
(9.53601 16.3605 0)
(8.47746 17.8303 0)
(7.56518 17.4712 0)
(6.75028 17.1572 0)
(6.06825 16.8332 0)
(5.57068 16.5025 0)
(5.14367 16.1445 0)
(4.82179 15.7521 0)
(4.5754 15.3061 0)
(4.42756 14.8093 0)
(4.31542 14.2695 0)
(4.23197 13.7114 0)
(4.17894 13.1543 0)
(4.22221 12.5574 0)
(4.21201 12.0004 0)
(4.23981 11.4362 0)
(4.23599 10.9018 0)
(4.384 10.3628 0)
(9.52304 17.036 0)
(8.48303 18.6534 0)
(7.48799 18.4102 0)
(6.54949 18.2314 0)
(5.7194 17.9739 0)
(5.07018 17.6329 0)
(4.52269 17.2398 0)
(4.12991 16.7905 0)
(3.81975 16.3044 0)
(3.61654 15.7751 0)
(3.445 15.2366 0)
(3.35377 14.6644 0)
(3.25694 14.1284 0)
(3.21345 13.5739 0)
(3.18647 12.9998 0)
(3.18878 12.4492 0)
(3.12244 11.9327 0)
(3.26324 11.4069 0)
(9.54969 17.6336 0)
(8.29497 19.0927 0)
(7.1432 18.8306 0)
(6.11831 18.6472 0)
(5.25081 18.3357 0)
(4.59066 17.9332 0)
(4.01265 17.5256 0)
(3.56003 17.1166 0)
(3.18151 16.674 0)
(2.90731 16.1901 0)
(2.65312 15.6676 0)
(2.47327 15.1131 0)
(2.33635 14.5716 0)
(2.21776 14.0329 0)
(2.09813 13.4854 0)
(2.04847 12.9637 0)
(1.95545 12.4824 0)
(2.02217 11.996 0)
(9.57139 16.8963 0)
(8.07414 18.5039 0)
(6.90002 18.1906 0)
(5.87984 17.9912 0)
(4.97897 17.736 0)
(4.20909 17.4265 0)
(3.52441 17.0654 0)
(2.97758 16.6869 0)
(2.52891 16.2774 0)
(2.19968 15.8416 0)
(1.92022 15.365 0)
(1.72463 14.8899 0)
(1.54175 14.4026 0)
(1.40304 13.8999 0)
(1.28266 13.3938 0)
(1.2083 12.8964 0)
(1.11726 12.4191 0)
(1.1618 11.937 0)
(9.46985 16.0472 0)
(7.93388 17.4461 0)
(6.75963 17.001 0)
(5.66744 16.7749 0)
(4.71237 16.5542 0)
(3.9031 16.2838 0)
(3.16468 15.9369 0)
(2.56737 15.5921 0)
(2.05726 15.2266 0)
(1.65147 14.8339 0)
(1.31845 14.4159 0)
(1.06631 13.9805 0)
(0.857343 13.5164 0)
(0.720195 13.0566 0)
(0.606709 12.5954 0)
(0.568254 12.1406 0)
(0.529909 11.7166 0)
(0.592316 11.2944 0)
(9.26568 14.5338 0)
(7.94385 15.7651 0)
(6.85736 15.3787 0)
(5.75025 15.1521 0)
(4.71425 14.9172 0)
(3.79967 14.627 0)
(3.01929 14.3263 0)
(2.38826 14.0375 0)
(1.82325 13.7581 0)
(1.38488 13.4403 0)
(1.01801 13.0849 0)
(0.738761 12.6866 0)
(0.504893 12.2638 0)
(0.317744 11.834 0)
(0.155227 11.3997 0)
(0.0482946 10.9813 0)
(-0.0503024 10.5853 0)
(-0.0538677 10.209 0)
(9.43098 12.8669 0)
(7.97678 13.7503 0)
(6.86251 13.4736 0)
(5.77573 13.3851 0)
(4.74991 13.193 0)
(3.83346 12.9085 0)
(3.01547 12.6088 0)
(2.31871 12.3203 0)
(1.71188 12.0654 0)
(1.22764 11.7845 0)
(0.838029 11.4855 0)
(0.548308 11.1629 0)
(0.293321 10.8156 0)
(0.0797325 10.4621 0)
(-0.113757 10.1054 0)
(-0.272825 9.74933 0)
(-0.396997 9.39874 0)
(-0.432952 9.07389 0)
(9.23973 11.0137 0)
(7.84133 11.7899 0)
(6.64337 11.4913 0)
(5.5104 11.3458 0)
(4.47861 11.1798 0)
(3.59991 10.9947 0)
(2.84448 10.7647 0)
(2.20232 10.5203 0)
(1.61717 10.2626 0)
(1.12497 10.0281 0)
(0.708285 9.78006 0)
(0.374398 9.51294 0)
(0.114755 9.23054 0)
(-0.0849416 8.94332 0)
(-0.263849 8.64576 0)
(-0.395538 8.35455 0)
(-0.475712 8.05937 0)
(-0.480727 7.76834 0)
(9.496 9.12564 0)
(8.12065 9.73644 0)
(6.93112 9.49527 0)
(5.74272 9.37604 0)
(4.67466 9.25312 0)
(3.78487 9.10087 0)
(2.99448 8.90248 0)
(2.32023 8.69098 0)
(1.73686 8.46102 0)
(1.22552 8.27523 0)
(0.786608 8.0838 0)
(0.439962 7.87444 0)
(0.157912 7.6547 0)
(-0.051169 7.4113 0)
(-0.222932 7.16232 0)
(-0.349918 6.9125 0)
(-0.436994 6.67052 0)
(-0.474304 6.43153 0)
(9.33719 7.28013 0)
(8.10504 7.78905 0)
(7.04466 7.57432 0)
(5.9304 7.46856 0)
(4.87294 7.36356 0)
(3.93949 7.246 0)
(3.09024 7.10924 0)
(2.3563 6.96497 0)
(1.71181 6.77508 0)
(1.18387 6.58133 0)
(0.725767 6.41281 0)
(0.354735 6.23922 0)
(0.0779571 6.08704 0)
(-0.132203 5.92991 0)
(-0.304666 5.75137 0)
(-0.440066 5.55432 0)
(-0.544671 5.36001 0)
(-0.602896 5.16169 0)
(9.35473 5.55042 0)
(8.10829 5.79469 0)
(7.1608 5.6548 0)
(6.11648 5.6386 0)
(5.09052 5.5869 0)
(4.16325 5.50229 0)
(3.30244 5.40839 0)
(2.53866 5.30795 0)
(1.84515 5.18853 0)
(1.23755 5.05271 0)
(0.692898 4.91287 0)
(0.249326 4.79412 0)
(-0.09355 4.69244 0)
(-0.353201 4.55938 0)
(-0.573115 4.40627 0)
(-0.736065 4.23963 0)
(-0.856241 4.08747 0)
(-0.948529 3.92727 0)
(9.12435 3.96287 0)
(8.15031 4.01365 0)
(7.32598 3.95503 0)
(6.25843 3.94463 0)
(5.17092 3.91685 0)
(4.14299 3.89325 0)
(3.19631 3.86411 0)
(2.32099 3.83605 0)
(1.51909 3.76049 0)
(0.806586 3.67435 0)
(0.174977 3.57197 0)
(-0.361184 3.48438 0)
(-0.789755 3.39773 0)
(-1.1564 3.2912 0)
(-1.46401 3.16889 0)
(-1.72516 3.06134 0)
(-1.94448 2.94817 0)
(-2.15339 2.84705 0)
(9.52042 2.49193 0)
(8.44927 2.29925 0)
(7.35398 2.32653 0)
(5.93193 2.43502 0)
(4.47104 2.48242 0)
(3.0514 2.52334 0)
(1.78438 2.53731 0)
(0.633136 2.54004 0)
(-0.360195 2.52195 0)
(-1.24133 2.46822 0)
(-2.014 2.41192 0)
(-2.68271 2.35235 0)
(-3.24236 2.29025 0)
(-3.7412 2.23267 0)
(-4.16174 2.16187 0)
(-4.55708 2.07743 0)
(-4.88034 2.01187 0)
(-5.18825 1.97573 0)
(9.42486 0.870709 0)
(7.78116 0.790657 0)
(5.8035 0.978114 0)
(3.56594 1.18763 0)
(1.50394 1.33312 0)
(-0.306761 1.44764 0)
(-1.83755 1.50063 0)
(-3.1354 1.50741 0)
(-4.201 1.51177 0)
(-5.11503 1.47529 0)
(-5.88302 1.44175 0)
(-6.53683 1.40715 0)
(-7.08618 1.38197 0)
(-7.54456 1.34517 0)
(-7.94655 1.29232 0)
(-8.29773 1.24838 0)
(-8.58511 1.20011 0)
(-8.83829 1.16899 0)
(7.73162 0.0984806 0)
(3.78393 0.228101 0)
(0.677324 0.456808 0)
(-1.78143 0.55835 0)
(-3.55248 0.585146 0)
(-4.91835 0.576985 0)
(-6.03925 0.558443 0)
(-6.97844 0.536707 0)
(-7.76053 0.526376 0)
(-8.42762 0.509498 0)
(-8.98935 0.498326 0)
(-9.45844 0.48639 0)
(-9.84525 0.472185 0)
(-10.1607 0.458137 0)
(-10.4297 0.442338 0)
(-10.6501 0.42868 0)
(-10.839 0.402545 0)
(-11.0111 0.39344 0)
(-0.142446 -1.02005 0)
(-0.543505 -0.77051 0)
(-1.14917 -0.747256 0)
(-1.74564 -0.870122 0)
(-2.28501 -0.972621 0)
(-2.69132 -1.07866 0)
(-2.95935 -1.18143 1.07662e-17)
(-3.11668 -1.2546 -1.07437e-17)
(-3.20098 -1.2901 0)
(-3.23746 -1.29006 -1.0667e-17)
(-3.26194 -1.26982 0)
(-3.29121 -1.25256 0)
(-3.31248 -1.22796 0)
(-3.33286 -1.20844 1.04586e-17)
(-3.34247 -1.18981 0)
(-3.33074 -1.16465 0)
(-3.31579 -1.14888 -1.03016e-17)
(-3.29324 -1.12669 0)
(-3.2725 -1.10226 0)
(-3.22005 -1.07451 0)
(-3.15293 -1.05093 1.00748e-17)
(-3.06038 -1.01971 0)
(-2.98931 -0.974738 9.94923e-18)
(-2.9012 -0.920297 0)
(-2.82698 -0.867378 0)
(-2.76142 -0.805965 9.76568e-18)
(-2.72328 -0.711734 0)
(-2.74056 -0.613092 -9.63297e-18)
(-2.79101 -0.492709 0)
(-2.94176 -0.359709 9.49174e-18)
(-3.13232 -0.258415 0)
(-3.44821 -0.100606 0)
(-3.8833 0.0019379 0)
(-4.33813 0.00804518 0)
(-4.91042 0.178845 0)
(-5.55587 0.246379 -9.21101e-18)
(-6.12297 -0.17972 0)
(-6.51079 -0.673073 1.83465e-17)
(-6.72738 -0.735791 0)
(-6.79033 -0.450317 -1.8042e-17)
(-6.77928 -0.155717 0)
(-6.88025 -0.00116478 0)
(-7.0389 0.0348737 1.74944e-17)
(-7.16877 -0.00342512 0)
(-7.11937 -0.0995695 1.7128e-17)
(-6.80982 -0.193395 -1.70079e-17)
(-6.36421 -0.12233 0)
(-5.92978 -0.131001 -1.69189e-17)
(-5.39089 -0.22887 -1.69565e-17)
(-5.0111 -0.188501 0)
(-4.65959 -0.17388 0)
(-3.66873 -0.4566 0)
(-2.5438 -0.651271 0)
(-1.11445 -0.2894 0)
(0.0256585 -0.266354 1.60445e-17)
(0.574274 -0.689435 0)
(0.924684 -1.16598 -1.5999e-17)
(1.45955 -1.32805 0)
(1.72059 -0.57033 0)
(1.04138 0.557762 1.62918e-17)
(-0.0392651 1.15612 0)
(-0.983077 1.27219 -1.58056e-17)
(-1.86796 1.22023 0)
(-2.59529 1.16007 0)
(-3.13642 1.09238 0)
(-3.57371 1.00752 1.50852e-17)
(-3.91941 0.925075 0)
(-4.12575 0.874157 0)
(-4.19856 0.815002 1.46942e-17)
(-4.21014 0.761925 0)
(-4.13167 0.721686 1.44525e-17)
(-4.001 0.670696 0)
(-3.80944 0.643129 0)
(-3.55131 0.620475 0)
(-3.26544 0.611788 -1.39898e-17)
(-2.96133 0.615287 0)
(-2.64381 0.620839 0)
(-2.30939 0.628472 -1.36542e-17)
(-1.98964 0.644872 -1.35428e-17)
(-1.67168 0.657423 0)
(-1.34446 0.665151 -1.33173e-17)
(-1.04108 0.687807 0)
(-0.763387 0.696705 -2.61734e-17)
(-0.467619 0.716471 0)
(-0.207143 0.748058 -2.57181e-17)
(0.0536953 0.764785 0)
(0.332062 0.773927 2.52565e-17)
(0.607428 0.797962 0)
(0.904487 0.803901 0)
(1.21797 0.82476 0)
(1.58133 0.820633 -2.43408e-17)
(1.9499 0.855383 0)
(2.31427 0.849804 2.38969e-17)
(2.74255 0.870005 0)
(3.19931 0.902809 -2.34701e-17)
(3.65171 0.880187 -2.32538e-17)
(4.07872 0.924129 -2.30578e-17)
(4.5355 0.91735 0)
(4.98824 0.929695 0)
(5.44162 0.945462 0)
(5.88973 0.937617 0)
(6.27802 0.936852 0)
(6.6578 0.917076 0)
(7.05153 0.894823 0)
(7.45651 0.85741 0)
(7.89876 0.826378 2.16526e-17)
(8.36005 0.803845 2.15521e-17)
(8.79701 0.768161 0)
(9.16583 0.721949 0)
(9.4955 0.651828 0)
(9.76868 0.589823 2.13262e-17)
(9.94522 0.551108 0)
(10.0458 0.525361 0)
(10.0513 0.524519 0)
(9.97951 0.469382 0)
(9.88815 0.393167 -2.07383e-17)
(9.67918 0.340806 0)
(9.36467 0.32785 0)
(9.03093 0.278822 2.03932e-17)
(8.68516 0.151071 -2.02811e-17)
(8.25793 0.0349711 0)
(7.72187 -0.0552911 -2.01578e-17)
(7.13359 -0.150252 0)
(6.5417 -0.24939 2.01871e-17)
(6.06958 -0.352124 0)
(5.71855 -0.485049 0)
(5.4199 -0.651853 0)
(5.15081 -0.780023 0)
(4.90332 -0.879838 0)
(4.62779 -0.980838 -4.01334e-17)
(4.48915 -1.13932 -3.99413e-17)
(4.75534 -1.36582 0)
(4.84727 -1.41438 0)
(5.25289 -1.56474 0)
(5.22772 -1.57976 3.91238e-17)
(5.93226 -1.82597 0)
(5.47762 -1.63244 0)
(6.31878 -2.2716 0)
(6.66907 -2.10241 3.80203e-17)
(8.26357 -2.53707 -3.81591e-17)
(9.21523 -2.39912 0)
(10.1804 -2.42286 0)
(10.8827 -2.46968 -3.73091e-17)
(11.5236 -2.50109 -3.69427e-17)
(11.9603 -2.59696 0)
(12.4183 -2.77297 0)
(13.4142 -2.95763 3.6051e-17)
(14.629 -3.15608 -3.57387e-17)
(15.9044 -3.29861 0)
(16.7479 -3.4583 0)
(17.4091 -3.59166 -3.5127e-17)
(17.884 -3.65615 0)
(17.8945 -3.66722 0)
(17.6962 -3.58326 -3.45644e-17)
(16.6023 -3.49498 0)
(15.2974 -3.46171 -3.41193e-17)
(13.4621 -3.40705 0)
(11.8534 -3.52168 0)
(10.0832 -3.54259 0)
(8.6031 -3.68902 3.29564e-17)
(7.42742 -3.72652 0)
(6.14566 -3.88099 0)
(5.43251 -3.9187 0)
(3.98464 -3.78277 0)
(3.92257 -4.04913 0)
(3.74899 -3.85569 0)
(2.58799 -3.65874 3.02951e-17)
(1.65349 -3.59511 3.01788e-17)
(0.572585 -3.33602 0)
(-0.25376 -3.19837 0)
(-1.39456 -2.89012 0)
(-3.47422 -2.1615 -2.9829e-17)
(-8.30249 -1.49426 0)
(-11.1769 -1.77596 5.55539e-17)
(-11.4024 -1.91219 -5.57955e-17)
(-11.5534 -1.63352 -5.65339e-17)
(-11.9109 -1.30594 5.71701e-17)
(-13.1012 -1.23375 -5.76634e-17)
(-13.8755 -1.07655 5.723e-17)
(-14.5982 -1.0998 0)
(-0.142802 -3.32197 0)
(-0.409158 -2.87822 0)
(-0.776706 -2.54537 -2.14546e-17)
(-1.27483 -2.54816 0)
(-1.76872 -2.78444 2.10173e-17)
(-2.16642 -3.15942 2.12657e-17)
(-2.43785 -3.53706 1.08031e-17)
(-2.60382 -3.83124 1.09295e-17)
(-2.70108 -3.97908 0)
(-2.7673 -4.03556 1.10163e-17)
(-2.81542 -3.9807 0)
(-2.85608 -3.93074 0)
(-2.92231 -3.88295 -2.18283e-17)
(-2.93868 -3.81953 -1.08638e-17)
(-2.99227 -3.80046 2.16599e-17)
(-2.99516 -3.74595 2.15591e-17)
(-3.05622 -3.72857 1.07303e-17)
(-3.00687 -3.66686 0)
(-2.9992 -3.62556 0)
(-2.92057 -3.57291 0)
(-2.88646 -3.52682 1.05005e-17)
(-2.76758 -3.48659 0)
(-2.6298 -3.38198 -3.106e-17)
(-2.48602 -3.27978 0)
(-2.26825 -3.11799 0)
(-2.14415 -2.9788 -1.01285e-17)
(-1.89758 -2.77274 0)
(-1.82877 -2.53911 9.98433e-18)
(-1.65141 -2.31253 1.97484e-17)
(-1.56619 -1.95983 -9.79446e-18)
(-1.55845 -1.65725 0)
(-1.44958 -1.27805 0)
(-1.6555 -0.902993 0)
(-1.69 -0.645572 1.86067e-17)
(-1.91056 -0.260837 1.84363e-17)
(-2.32142 -0.0724023 9.14804e-18)
(-2.37808 -0.104928 0)
(-2.91356 0.155296 -1.79195e-17)
(-3.9391 0.000273376 0)
(-4.68625 -0.692826 1.77223e-17)
(-5.21921 -0.835842 0)
(-5.64688 -0.411162 0)
(-5.90106 -0.114092 -1.67262e-17)
(-6.05798 -0.150093 0)
(-6.07296 -0.610873 -4.99773e-17)
(-5.72831 -1.08066 1.66361e-17)
(-5.3046 -1.19879 0)
(-4.59701 -1.07151 1.65396e-17)
(-3.72882 -1.02221 1.62312e-17)
(-3.76813 -0.51003 0)
(-3.21082 -0.85221 0)
(-1.74372 -1.61474 0)
(-1.02646 -2.59652 0)
(-0.649376 -2.10979 0)
(-0.823976 -0.724334 -1.61084e-17)
(-1.8505 0.599515 -3.22945e-17)
(-3.15051 1.4954 1.60188e-17)
(-4.46549 2.15726 0)
(-5.47173 2.65189 -3.14403e-17)
(-6.30119 2.99093 1.55189e-17)
(-6.88253 3.05872 0)
(-7.33055 2.9731 1.51553e-17)
(-7.66955 2.79439 0)
(-7.93359 2.62359 0)
(-8.10594 2.39552 2.9553e-17)
(-8.20236 2.18964 -1.46703e-17)
(-8.19139 2.02084 2.91317e-17)
(-8.09377 1.86761 -2.89252e-17)
(-7.90752 1.71684 -1.43565e-17)
(-7.68678 1.58428 0)
(-7.39122 1.47433 -1.4146e-17)
(-7.04737 1.39385 0)
(-6.65012 1.35426 0)
(-6.21276 1.31512 0)
(-5.76408 1.28525 -1.37079e-17)
(-5.31196 1.28572 0)
(-4.86992 1.28602 -2.69548e-17)
(-4.40834 1.30687 4.00989e-17)
(-3.99268 1.35594 1.32434e-17)
(-3.54672 1.38279 0)
(-3.11582 1.41464 1.3011e-17)
(-2.72695 1.47204 0)
(-2.32433 1.49292 2.55333e-17)
(-1.93726 1.56001 0)
(-1.58475 1.63054 2.50299e-17)
(-1.23315 1.65866 -4.96101e-17)
(-0.853809 1.68496 -2.45398e-17)
(-0.513565 1.72886 0)
(-0.115425 1.75994 0)
(0.247968 1.80615 0)
(0.71865 1.82036 2.35011e-17)
(1.09398 1.91856 0)
(1.5948 1.92281 -2.2995e-17)
(2.03809 1.93796 0)
(2.49264 2.05014 6.73162e-17)
(3.00857 2.058 2.21689e-17)
(3.44461 2.13449 2.18943e-17)
(3.94014 2.15464 0)
(4.3952 2.22824 0)
(4.87743 2.24293 0)
(5.29462 2.24915 0)
(5.74061 2.30292 0)
(6.15404 2.29949 4.14205e-17)
(6.59875 2.27319 4.11615e-17)
(7.05692 2.20793 0)
(7.54174 2.09311 -2.03637e-17)
(7.98364 1.94306 -2.0327e-17)
(8.37751 1.81889 0)
(8.69296 1.74254 -4.08364e-17)
(8.94687 1.65201 0)
(9.15488 1.60036 2.03844e-17)
(9.2447 1.55339 0)
(9.23236 1.43007 0)
(9.06661 1.27342 -3.96345e-17)
(8.85116 1.09958 0)
(8.7047 0.959283 1.93747e-17)
(8.43557 0.847352 0)
(8.00634 0.630307 0)
(7.52981 0.323821 1.91446e-17)
(7.11338 0.0929951 1.90233e-17)
(6.72464 -0.0561135 0)
(6.3554 -0.246705 -1.88329e-17)
(5.98927 -0.570582 0)
(5.58526 -0.954369 1.95719e-17)
(5.14105 -1.45756 4.01496e-17)
(4.75234 -1.88898 0)
(4.60015 -2.16094 0)
(4.56094 -2.48487 0)
(4.55288 -2.88554 0)
(4.47054 -3.1933 4.08511e-17)
(4.63582 -3.77851 1.21598e-16)
(5.16071 -4.35639 0)
(5.34017 -4.58645 0)
(6.28294 -5.09104 0)
(6.0268 -5.15594 -3.92996e-17)
(7.61264 -5.97263 0)
(6.19979 -5.22697 0)
(8.43881 -7.18667 7.8224e-17)
(7.53853 -6.7236 3.78471e-17)
(10.8399 -8.33946 3.84546e-17)
(11.3711 -7.69939 0)
(12.6088 -8.06394 0)
(13.864 -8.34601 3.81776e-17)
(14.3228 -8.35525 -3.82215e-17)
(14.7488 -8.2542 0)
(15.0913 -8.90528 0)
(16.5374 -9.38119 -3.72524e-17)
(18.459 -9.85496 1.081e-16)
(20.5978 -10.0612 0)
(22.2248 -10.1564 0)
(23.2176 -10.1633 3.35765e-17)
(23.5577 -10.1838 0)
(22.5365 -10.145 6.70638e-17)
(21.0424 -9.9724 -3.34344e-17)
(18.4856 -9.77684 0)
(16.3313 -9.88669 3.28774e-17)
(13.7308 -9.98657 6.532e-17)
(12.1727 -10.4025 0)
(10.289 -10.5638 0)
(9.26824 -11.1464 -3.15885e-17)
(8.00446 -11.175 0)
(7.15615 -11.4361 6.15195e-17)
(6.73057 -11.5531 0)
(5.15596 -11.3138 0)
(5.74467 -12.2335 0)
(5.26026 -11.2063 0)
(4.60155 -10.6664 -2.69413e-17)
(4.08041 -10.3881 -2.65169e-17)
(3.3582 -9.83791 0)
(2.89702 -9.31253 0)
(1.29545 -8.07747 0)
(-1.29612 -6.18758 2.66448e-17)
(-6.55597 -4.70494 0)
(-8.47705 -5.99444 -4.79643e-17)
(-7.35705 -6.37891 4.75331e-17)
(-6.93258 -5.41754 4.84399e-17)
(-6.24993 -4.12796 4.89856e-17)
(-7.80272 -3.37729 5.13077e-17)
(-9.32315 -2.78284 5.15959e-17)
(-11.2476 -3.00768 0)
(-0.158202 -5.58317 0)
(-0.462253 -5.09575 0)
(-0.786869 -4.58244 2.17167e-17)
(-1.18099 -4.45103 2.13402e-17)
(-1.54673 -4.74263 -2.15678e-17)
(-1.85582 -5.31025 -2.21467e-17)
(-2.07533 -5.88695 1.18376e-20)
(-2.23713 -6.33327 0)
(-2.36262 -6.53577 0)
(-2.49152 -6.59227 0)
(-2.61415 -6.51779 0)
(-2.72078 -6.41413 0)
(-2.84947 -6.33448 6.82192e-17)
(-2.92349 -6.2348 0)
(-3.05121 -6.19402 -2.24103e-17)
(-3.13254 -6.10189 -2.22329e-17)
(-3.24804 -6.05694 0)
(-3.27063 -5.98625 0)
(-3.32203 -5.91651 0)
(-3.31907 -5.84925 0)
(-3.30733 -5.77552 -2.13676e-17)
(-3.25648 -5.71604 0)
(-3.10797 -5.59429 2.10287e-17)
(-2.9973 -5.51114 0)
(-2.74887 -5.29706 0)
(-2.62361 -5.03271 0)
(-2.34991 -4.76266 4.07733e-17)
(-2.23725 -4.40789 0)
(-2.03158 -4.04536 -2.01242e-17)
(-1.87126 -3.54902 4.00514e-17)
(-1.82797 -3.13721 0)
(-1.62353 -2.66965 0)
(-1.62186 -2.09808 0)
(-1.51103 -1.72161 -1.9338e-17)
(-1.52353 -1.13585 -1.90078e-17)
(-1.52026 -0.75071 0)
(-1.61422 -0.478373 0)
(-1.81785 -0.0961641 3.65631e-17)
(-1.95537 0.112527 3.63284e-17)
(-2.18782 0.37153 -3.60125e-17)
(-2.90172 0.459466 0)
(-3.66275 0.393827 0)
(-3.98998 0.108321 0)
(-4.10234 -0.274065 0)
(-4.22592 -0.880811 3.33872e-17)
(-4.3688 -1.64026 3.35092e-17)
(-4.53911 -1.85384 -3.4e-17)
(-4.05342 -2.1861 0)
(-3.91357 -0.977302 0)
(-3.69202 -0.209269 0)
(-2.52701 -2.84247 0)
(-2.63099 -2.7119 3.27621e-17)
(-4.11821 -0.405943 0)
(-5.28068 0.936798 0)
(-6.38232 2.17671 3.2302e-17)
(-7.23491 2.90567 3.19667e-17)
(-7.95276 3.47321 0)
(-8.51981 3.81193 -6.28438e-17)
(-9.00788 4.11178 3.11872e-17)
(-9.29883 4.28529 -3.09909e-17)
(-9.37704 4.2999 0)
(-9.37302 4.19763 0)
(-9.26666 3.97402 0)
(-9.13851 3.73466 0)
(-8.9356 3.48623 -3.04105e-17)
(-8.66658 3.23753 -6.06069e-17)
(-8.39764 3.03631 -3.01724e-17)
(-8.06783 2.827 3.00516e-17)
(-7.70576 2.64146 0)
(-7.29485 2.4852 -5.95058e-17)
(-6.87004 2.3657 -5.91478e-17)
(-6.36054 2.28056 -5.88328e-17)
(-5.89704 2.1934 5.84139e-17)
(-5.3737 2.15336 0)
(-4.87828 2.10421 8.64201e-17)
(-4.34555 2.13365 0)
(-3.8506 2.14801 -2.8396e-17)
(-3.28846 2.18476 -2.81737e-17)
(-2.86151 2.30589 0)
(-2.38526 2.3721 0)
(-1.89831 2.45145 -5.50344e-17)
(-1.57038 2.59525 0)
(-1.08709 2.65202 -5.41651e-17)
(-0.721145 2.7508 0)
(-0.326009 2.87782 5.31637e-17)
(-0.0188833 2.94018 1.05421e-16)
(0.386352 2.99712 0)
(0.70366 3.06964 0)
(1.17694 3.14307 0)
(1.44828 3.2068 5.06877e-17)
(2.04126 3.24393 0)
(2.31272 3.37217 4.93959e-17)
(2.85035 3.43748 0)
(3.24567 3.46075 0)
(3.70812 3.61504 -9.5255e-17)
(4.19463 3.65617 0)
(4.52439 3.7334 -4.62327e-17)
(5.06529 3.79679 0)
(5.36882 3.86029 -4.47993e-17)
(5.82344 3.87211 0)
(6.14459 3.85426 0)
(6.55725 3.85334 0)
(6.86565 3.77494 -1.26962e-16)
(7.20452 3.65783 -4.17429e-17)
(7.52389 3.50898 0)
(7.80414 3.42199 0)
(8.08771 3.35059 0)
(8.38897 3.25154 0)
(8.70658 3.14085 4.04745e-17)
(8.96373 2.91206 -8.12148e-17)
(9.03875 2.70752 -4.0577e-17)
(8.96662 2.55897 8.10475e-17)
(8.85753 2.4459 8.06167e-17)
(8.73145 2.31344 3.98859e-17)
(8.64163 1.99285 0)
(8.54434 1.62511 7.66201e-17)
(8.35609 1.43103 0)
(8.10354 1.30373 -7.6417e-17)
(7.70822 0.911811 -3.96833e-17)
(7.01483 0.322247 0)
(6.29265 -0.256087 7.7596e-17)
(5.77857 -0.654177 3.78539e-17)
(5.55399 -1.10047 0)
(5.47428 -1.54794 3.77147e-17)
(5.60545 -2.11958 -1.16548e-16)
(5.73346 -2.89412 0)
(5.85802 -3.60373 0)
(5.93101 -4.31663 0)
(6.3685 -5.04061 0)
(6.32169 -5.57216 -8.20539e-17)
(6.54615 -6.549 -8.09603e-17)
(7.04805 -7.30434 0)
(7.05266 -7.80939 0)
(8.62909 -8.60831 0)
(7.4414 -8.5528 0)
(10.3501 -9.83073 0)
(7.17246 -8.54635 0)
(10.5191 -11.94 -8.11614e-17)
(8.35975 -10.8124 8.648e-20)
(12.3732 -14.0145 0)
(11.9119 -12.232 0)
(13.8973 -13.1454 -7.4511e-17)
(15.4424 -13.6033 0)
(15.9962 -13.6793 7.78241e-17)
(15.8996 -13.781 8.07074e-17)
(16.069 -15.2289 0)
(16.403 -16.6018 0)
(18.3398 -17.5047 -8.14056e-17)
(20.729 -17.5183 -1.51939e-16)
(23.1491 -17.3516 0)
(24.7023 -17.0174 0)
(25.6797 -16.4536 0)
(24.3592 -15.8822 -6.57642e-17)
(22.178 -15.5111 6.5849e-17)
(18.9019 -15.3336 0)
(16.6704 -15.8665 1.32909e-16)
(14.1035 -16.3034 6.65479e-17)
(13.0103 -17.2761 -1.32474e-16)
(11.0248 -17.6189 0)
(10.5576 -18.6686 0)
(9.08894 -18.7509 -1.29213e-16)
(8.62975 -19.3285 -6.37882e-17)
(8.33287 -19.415 0)
(6.79933 -18.7817 0)
(7.72069 -20.636 0)
(6.95207 -18.5651 0)
(6.61983 -17.7473 -1.11446e-16)
(5.97489 -17.1413 0)
(5.09438 -16.3296 0)
(4.48387 -15.1372 0)
(3.16431 -12.9975 0)
(0.101401 -9.90283 0)
(-5.19901 -7.62275 0)
(-7.47457 -10.4911 -9.73613e-17)
(-5.95976 -11.0206 0)
(-5.32573 -9.44691 0)
(-3.71491 -7.14471 -1.85401e-16)
(-4.24934 -5.53187 9.59347e-17)
(-5.61248 -4.25644 -9.62053e-17)
(-8.14647 -4.60012 9.78817e-17)
(-0.178601 -7.58262 0)
(-0.533206 -7.08563 -4.63026e-17)
(-0.848803 -6.56257 0)
(-1.1171 -6.49119 -2.22556e-17)
(-1.31878 -6.95022 0)
(-1.47414 -7.67235 0)
(-1.59202 -8.32198 2.32967e-17)
(-1.7326 -8.76168 0)
(-1.86943 -8.92664 0)
(-2.03677 -8.90198 0)
(-2.21022 -8.78659 0)
(-2.38714 -8.66221 0)
(-2.55053 -8.55032 -9.0086e-17)
(-2.73508 -8.42742 -4.46369e-17)
(-2.91402 -8.31723 4.41881e-17)
(-3.09072 -8.21254 0)
(-3.22228 -8.13743 0)
(-3.34211 -8.06207 0)
(-3.41145 -7.92615 0)
(-3.4431 -7.87474 0)
(-3.37 -7.81662 -4.17376e-17)
(-3.2671 -7.78902 -4.13988e-17)
(-3.07452 -7.70082 4.10965e-17)
(-2.92867 -7.56738 -4.07672e-17)
(-2.68894 -7.35685 0)
(-2.54119 -7.05366 0)
(-2.28973 -6.64127 -3.99106e-17)
(-2.20609 -6.18283 0)
(-2.05797 -5.72032 0)
(-1.96333 -5.17509 -3.92679e-17)
(-1.95203 -4.60945 -3.91412e-17)
(-1.83297 -4.04935 -3.87662e-17)
(-1.84497 -3.41822 0)
(-1.79925 -2.83639 0)
(-1.69661 -2.3286 3.79377e-17)
(-1.72212 -1.71777 0)
(-1.58591 -1.26274 0)
(-1.47338 -0.940013 -3.6666e-17)
(-1.57484 -0.397712 3.61433e-17)
(-1.43402 -0.113773 -3.57096e-17)
(-1.43357 0.0434099 0)
(-1.68604 0.199171 0)
(-1.74786 0.229783 -7.0205e-17)
(-1.7433 0.0602799 0)
(-1.73545 -0.379003 -6.77014e-17)
(-2.32841 -0.909589 -1.02996e-16)
(-2.32736 -1.74051 1.00773e-16)
(-1.9 -1.72274 -6.63716e-17)
(-2.61817 -0.948975 0)
(-1.57866 -1.80826 0)
(-2.5046 -1.1279 -6.66362e-17)
(-4.7966 0.487296 -3.30693e-17)
(-6.23929 1.7383 0)
(-7.47253 2.74239 0)
(-8.40339 3.67999 -3.21268e-17)
(-9.0789 4.294 -6.39506e-17)
(-9.53998 4.67869 0)
(-9.65885 4.88287 6.33116e-17)
(-9.74655 5.02493 -6.31581e-17)
(-9.62898 4.98003 6.30384e-17)
(-9.46649 4.9206 0)
(-9.21993 4.72939 0)
(-8.9529 4.50623 0)
(-8.56577 4.22627 0)
(-8.2918 4.00361 0)
(-7.87975 3.74197 6.18447e-17)
(-7.56642 3.518 0)
(-7.10967 3.29763 0)
(-6.74421 3.10674 0)
(-6.20422 2.96807 1.20896e-16)
(-5.77069 2.82793 6.00243e-17)
(-5.21881 2.718 5.97023e-17)
(-4.75287 2.58703 -1.186e-16)
(-4.16551 2.52828 5.89301e-17)
(-3.58059 2.49271 -5.85416e-17)
(-3.02562 2.52272 0)
(-2.48528 2.58927 5.77459e-17)
(-1.86609 2.63022 0)
(-1.37205 2.79614 0)
(-0.962769 2.8842 0)
(-0.329803 3.02012 1.12235e-16)
(-0.0774213 3.27991 -5.57013e-17)
(0.44969 3.37026 -5.53685e-17)
(0.755509 3.53816 -1.09801e-16)
(1.21701 3.70817 -1.6342e-16)
(1.4621 3.8037 -5.40821e-17)
(1.89309 3.86666 0)
(2.17184 3.96023 -1.06643e-16)
(2.71761 4.07709 0)
(2.95333 4.19903 -1.57265e-16)
(3.58711 4.23346 0)
(3.92196 4.42777 -1.54433e-16)
(4.458 4.53457 0)
(4.97664 4.64006 0)
(5.35736 4.78667 -5.01152e-17)
(5.91034 4.89677 0)
(6.23707 5.06554 4.88371e-17)
(6.83939 5.18768 9.69852e-17)
(7.10127 5.29501 4.7638e-17)
(7.5693 5.3524 9.435e-17)
(7.87839 5.39651 -9.31199e-17)
(8.20957 5.37165 -9.17184e-17)
(8.53479 5.33632 1.81046e-16)
(8.79702 5.25153 0)
(9.02237 5.13679 0)
(9.15212 4.92743 8.70285e-17)
(9.26803 4.56013 -8.45631e-17)
(9.33747 4.10843 0)
(9.25893 3.83519 0)
(9.22436 3.70165 8.06635e-17)
(9.23336 3.77458 0)
(9.35584 3.73855 5.26723e-20)
(9.43574 3.43218 4.35724e-20)
(9.28686 2.94482 8.05563e-17)
(9.13111 2.38744 0)
(8.9301 2.0025 -7.97305e-17)
(8.66273 1.72054 0)
(8.40176 1.40372 7.67558e-17)
(8.29984 1.01769 0)
(8.12118 0.520564 0)
(7.55123 -0.114389 -8.56009e-17)
(6.87971 -0.925437 -8.44286e-17)
(6.50143 -1.88309 0)
(6.19373 -2.84367 -8.05752e-17)
(6.15573 -3.80473 1.58316e-16)
(6.19466 -4.89868 0)
(6.46066 -5.58986 0)
(6.68486 -6.5452 0)
(7.52961 -7.35291 0)
(7.59165 -7.8199 7.72733e-17)
(8.23194 -9.0809 -1.56195e-16)
(8.45064 -10.0996 0)
(8.2526 -11.0122 0)
(10.3958 -11.8217 0)
(8.42338 -11.8348 0)
(12.2297 -13.4517 0)
(7.9406 -11.3766 0)
(12.6569 -16.9736 0)
(8.43663 -15.1861 7.88748e-17)
(15.0822 -19.8968 0)
(11.0358 -17.1306 0)
(14.4613 -18.9651 7.76617e-17)
(15.5272 -18.6035 0)
(17.9494 -18.0458 0)
(18.0242 -18.5024 -7.48461e-17)
(19.0442 -20.3252 0)
(18.3588 -22.8375 0)
(19.1576 -25.1301 1.7354e-16)
(20.4573 -25.6654 1.66788e-16)
(22.9367 -25.2315 1.54574e-16)
(24.916 -24.1848 0)
(26.3527 -22.8689 1.34271e-16)
(25.2949 -21.3971 0)
(22.9767 -20.6594 -1.31736e-16)
(19.6034 -20.579 0)
(17.562 -21.7524 -1.34078e-16)
(14.9276 -22.704 6.13089e-19)
(14.1587 -24.2049 1.34322e-16)
(12.1059 -24.5921 -1.32309e-16)