/*--------------------------------*- C++ -*----------------------------------*\
| =========                 |                                                 |
| \\      /  F ield         | OpenFOAM: The Open Source CFD Toolbox           |
|  \\    /   O peration     | Version:  dev                                   |
|   \\  /    A nd           | Web:      http://www.openfoam.org               |
|    \\/     M anipulation  |                                                 |
\*---------------------------------------------------------------------------*/
FoamFile
{
    version     2.0;
    format      ascii;
    class       volVectorField;
    object      U_0;
    location    "9.121";
}
// * * * * * * * * * * * * * * * * * * * * * * * * * * * * * * * * * * * * * //

dimensions      [0 1 -1 0 0 0 0];

internalField   nonuniform List<vector> 
12225
(
(6.63429 0.771867 0)
(2.96014 0.551695 0)
(0.307758 0.396248 0)
(-0.633432 0.351934 0)
(-2.13308 0.370634 0)
(-1.67398 0.301892 0)
(-3.07084 0.387078 0)
(-1.73738 0.234284 0)
(-3.14227 0.401559 0)
(-0.872877 0.0990443 0)
(-2.41696 0.436467 0)
(0.950106 -0.0360305 0)
(-0.644825 0.329346 0)
(4.04877 -0.216709 0)
(4.48117 -0.191635 0)
(10.2991 -1.62067 0)
(27.6207 -2.28979 0)
(23.3227 4.92591 0)
(9.38268 2.11597 0)
(7.83519 2.03016 0)
(4.36314 1.64654 0)
(3.82173 1.38715 0)
(0.317342 1.27249 0)
(1.95686 1.16372 0)
(-2.0704 1.2168 0)
(1.58433 0.959068 0)
(-3.42544 1.20765 0)
(2.53704 0.660205 0)
(-3.82717 1.14058 0)
(4.84662 0.229571 0)
(-2.46085 0.858284 0)
(7.94046 -0.961993 0)
(1.91105 -0.443753 0)
(13.3826 -5.43882 0)
(13.3765 -1.93294 0)
(12.7442 3.72174 0)
(9.11126 2.82251 0)
(10.3759 3.05017 0)
(6.42493 2.70769 0)
(8.02519 2.51151 0)
(2.81006 2.27762 0)
(6.46395 2.26844 0)
(0.280626 2.07136 0)
(6.11693 1.97361 0)
(-1.11469 1.93539 0)
(6.77552 1.42634 0)
(-0.720471 1.82497 0)
(7.634 0.570772 0)
(0.975831 1.54367 0)
(8.11086 -0.427328 0)
(3.33998 0.00529859 0)
(9.32814 -3.94926 0)
(8.15733 -0.27791 0)
(11.1776 3.09154 0)
(7.82339 3.39912 0)
(11.7289 4.0172 0)
(6.27887 3.69711 0)
(10.1154 3.62078 0)
(4.34268 3.34973 0)
(8.78506 3.29065 0)
(3.17897 3.12596 0)
(8.04745 2.88856 0)
(2.71405 2.93882 0)
(7.80429 2.13393 0)
(2.90998 2.88034 0)
(7.82064 1.03021 0)
(3.55933 2.54768 0)
(8.17549 -0.285169 0)
(3.9286 0.568388 0)
(5.90921 -5.66845 0)
(7.54189 -0.942466 0)
(10.0707 7.97742 0)
(7.32901 4.5588 0)
(10.9179 4.89263 0)
(7.28419 4.76254 0)
(9.19785 4.4408 0)
(6.44904 4.60114 0)
(7.54825 4.04515 0)
(5.81935 4.44519 0)
(6.54116 3.57833 0)
(5.51418 4.22609 0)
(6.19398 2.90537 0)
(5.54758 4.10735 0)
(6.22909 1.87192 0)
(5.64339 3.93289 0)
(7.07131 0.590288 0)
(6.43299 3.30609 0)
(6.82621 -5.05047 0)
(6.04895 1.22355 0)
(5.53587 6.47779 0)
(9.05357 5.71385 0)
(8.78754 5.59265 0)
(8.18265 6.01081 0)
(6.96375 5.31697 0)
(7.24552 5.9033 0)
(5.71589 4.9925 0)
(6.66123 5.67193 0)
(5.13704 4.53807 0)
(6.4781 5.39386 0)
(5.02748 3.91021 0)
(6.7179 5.05043 0)
(5.46687 2.94168 0)
(7.13563 4.53737 0)
(6.60306 1.39975 0)
(8.10628 4.02656 0)
(7.78681 -1.26679 0)
(3.92588 2.74138 0)
(2.24857 4.7819 0)
(9.68345 7.05334 0)
(7.75433 6.72555 0)
(8.38014 7.42577 0)
(6.36153 6.3068 0)
(7.34651 7.35701 0)
(5.32899 5.87381 0)
(6.67867 7.27558 0)
(4.88513 5.32423 0)
(6.57434 7.04381 0)
(4.96811 4.61076 0)
(7.04869 6.58634 0)
(5.50358 3.65594 0)
(7.70281 5.89786 0)
(6.35783 2.08019 0)
(7.84629 4.71039 0)
(6.2038 -0.339429 0)
(4.66357 4.77455 0)
(3.69031 3.1541 0)
(9.86063 8.08794 0)
(7.96402 7.69155 0)
(8.31016 8.48367 0)
(6.67094 7.36902 0)
(7.13081 8.41977 0)
(5.71588 7.03834 0)
(6.38624 8.16085 0)
(5.37199 6.57425 0)
(6.26365 7.72187 0)
(5.51359 5.95969 0)
(6.63232 7.04521 0)
(5.98731 5.09807 0)
(6.88936 6.14727 0)
(6.63011 3.89392 0)
(6.70852 5.21217 0)
(6.40969 3.00713 0)
(5.28121 4.82728 0)
(6.35029 4.5391 0)
(10.0208 9.24015 0)
(8.22454 8.76018 0)
(8.20054 9.51505 0)
(6.69992 8.35244 0)
(6.88579 9.48101 0)
(5.68158 7.98504 0)
(6.14868 9.20854 0)
(5.2989 7.45984 0)
(5.96183 8.70731 0)
(5.31199 6.7493 0)
(6.16853 8.06538 0)
(5.58633 5.79213 0)
(6.2348 7.18862 0)
(6.01753 4.6954 0)
(6.05057 6.33276 0)
(5.99764 4.09368 0)
(5.56229 5.80455 0)
(6.28446 5.15659 0)
(10.0505 10.2323 0)
(8.36508 9.99704 0)
(7.94376 10.7118 0)
(6.67665 9.58529 0)
(6.48808 10.4549 0)
(5.64774 9.27834 0)
(5.78529 10.1177 0)
(5.26898 8.84711 0)
(5.56201 9.55064 0)
(5.25388 8.23951 0)
(5.60394 8.8184 0)
(5.46051 7.43051 0)
(5.56857 7.92984 0)
(5.77801 6.46956 0)
(5.51062 6.94799 0)
(5.80734 5.81373 0)
(5.52227 6.2048 0)
(6.21558 6.0272 0)
(9.65801 11.68 0)
(8.40646 11.3744 0)
(7.83777 11.9162 0)
(6.86439 10.9541 0)
(6.35242 11.601 0)
(5.63697 10.6301 0)
(5.41596 11.2078 0)
(4.98922 10.1422 0)
(4.9858 10.7024 0)
(4.78927 9.47484 0)
(5.01286 9.96082 0)
(4.98359 8.65051 0)
(5.07414 9.03843 0)
(5.31547 7.7719 0)
(5.2193 7.93934 0)
(5.39757 7.1482 0)
(5.43245 7.08711 0)
(5.8155 6.82126 0)
(9.6691 12.9608 0)
(8.5033 12.8553 0)
(7.64022 13.1846 0)
(6.73773 12.5277 0)
(6.0637 12.8575 0)
(5.4775 12.3018 0)
(5.12238 12.493 0)
(4.83291 11.8418 0)
(4.70625 11.8721 0)
(4.58887 11.1589 0)
(4.68104 11.1069 0)
(4.7301 10.275 0)
(4.75263 10.1886 0)
(4.92523 9.4102 0)
(4.93926 9.12435 0)
(5.05865 8.60872 0)
(5.14048 8.29136 0)
(5.44807 7.90505 0)
(9.47549 14.358 0)
(8.26365 14.5419 0)
(7.36362 14.6863 0)
(6.50939 14.2423 0)
(5.79646 14.3289 0)
(5.23369 13.9104 0)
(4.82203 13.8646 0)
(4.53368 13.3677 0)
(4.32799 13.1878 0)
(4.18395 12.6855 0)
(4.16246 12.4637 0)
(4.18729 11.8128 0)
(4.23138 11.517 0)
(4.32561 10.9228 0)
(4.42055 10.4917 0)
(4.53797 10.0011 0)
(4.64542 9.5989 0)
(4.89386 9.14961 0)
(9.4166 15.9423 0)
(8.20016 16.1516 0)
(7.24977 16.0886 0)
(6.40451 15.8506 0)
(5.6401 15.8215 0)
(5.03079 15.5673 0)
(4.52884 15.4233 0)
(4.17085 15.091 0)
(3.91774 14.7776 0)
(3.74662 14.3789 0)
(3.64676 13.9909 0)
(3.65366 13.4774 0)
(3.68735 12.9884 0)
(3.75646 12.4877 0)
(3.85773 11.9849 0)
(3.96726 11.4886 0)
(4.03923 11.0372 0)
(4.27007 10.5638 0)
(9.39028 17.5072 0)
(8.06539 17.8213 0)
(6.94266 17.6338 0)
(5.99052 17.5077 0)
(5.1864 17.4027 0)
(4.59759 17.1778 0)
(4.12365 16.933 0)
(3.76358 16.61 0)
(3.4969 16.2485 0)
(3.31821 15.8484 0)
(3.18083 15.4341 0)
(3.09402 14.9825 0)
(3.08674 14.476 0)
(3.10554 13.9847 0)
(3.10637 13.4929 0)
(3.18784 12.9766 0)
(3.21173 12.4994 0)
(3.41086 12.0113 0)
(9.35945 18.8794 0)
(8.06726 19.362 0)
(6.93379 19.0641 0)
(5.92251 18.8704 0)
(5.06381 18.6676 0)
(4.40605 18.4689 0)
(3.83485 18.2421 0)
(3.38804 17.9817 0)
(3.03296 17.6605 0)
(2.79329 17.2823 0)
(2.602 16.8521 0)
(2.45599 16.3954 0)
(2.35093 15.9334 0)
(2.3549 15.4222 0)
(2.31743 14.9421 0)
(2.32752 14.4472 0)
(2.31795 13.9736 0)
(2.48576 13.4868 0)
(9.37578 19.5472 0)
(8.15653 20.0778 0)
(6.96463 19.912 0)
(5.85216 19.8713 0)
(4.86487 19.7525 0)
(4.07221 19.5532 0)
(3.39262 19.3049 0)
(2.87996 19.0001 0)
(2.46099 18.6537 0)
(2.16066 18.2573 0)
(1.90181 17.843 0)
(1.73657 17.3842 0)
(1.5786 16.9521 0)
(1.48302 16.4927 0)
(1.41693 16.0011 0)
(1.38933 15.5257 0)
(1.30468 15.0762 0)
(1.44664 14.6071 0)
(9.43482 19.9374 0)
(8.05708 20.311 0)
(6.76023 20.1405 0)
(5.59645 20.0983 0)
(4.59746 19.9357 0)
(3.80887 19.6916 0)
(3.10628 19.4452 0)
(2.53469 19.1963 0)
(2.04518 18.9071 0)
(1.66848 18.5697 0)
(1.3203 18.1826 0)
(1.05646 17.7553 0)
(0.845218 17.3285 0)
(0.66326 16.8945 0)
(0.492656 16.4373 0)
(0.400128 15.9979 0)
(0.276695 15.5896 0)
(0.331647 15.1651 0)
(9.53666 18.9221 0)
(7.98922 19.4957 0)
(6.6905 19.2647 0)
(5.54876 19.2097 0)
(4.52964 19.1128 0)
(3.64072 18.9706 0)
(2.83834 18.7744 0)
(2.1765 18.5587 0)
(1.61627 18.3063 0)
(1.18009 18.0206 0)
(0.802079 17.6852 0)
(0.51369 17.3431 0)
(0.248724 16.9763 0)
(0.0360884 16.5837 0)
(-0.147401 16.1758 0)
(-0.269125 15.766 0)
(-0.399591 15.366 0)
(-0.379153 14.9515 0)
(9.44971 17.8883 0)
(7.96791 18.2317 0)
(6.70043 17.8623 0)
(5.50783 17.776 0)
(4.45012 17.7051 0)
(3.53407 17.5913 0)
(2.68745 17.4043 0)
(1.98067 17.2203 0)
(1.35936 17.0117 0)
(0.844682 16.7682 0)
(0.407566 16.491 0)
(0.0563211 16.1857 0)
(-0.243211 15.8414 0)
(-0.463671 15.4895 0)
(-0.652037 15.1279 0)
(-0.755526 14.7611 0)
(-0.848279 14.4149 0)
(-0.82445 14.0626 0)
(9.28543 16.0601 0)
(8.04938 16.3649 0)
(6.90994 16.0551 0)
(5.73001 15.9607 0)
(4.61096 15.8633 0)
(3.60322 15.7166 0)
(2.72294 15.565 0)
(1.98489 15.426 0)
(1.31042 15.2943 0)
(0.763529 15.1174 0)
(0.291464 14.8952 0)
(-0.0891879 14.6245 0)
(-0.421153 14.3186 0)
(-0.701581 13.9939 0)
(-0.949423 13.6545 0)
(-1.13475 13.3208 0)
(-1.30107 12.9988 0)
(-1.3575 12.689 0)
(9.46915 14.1289 0)
(8.12643 14.2125 0)
(6.97773 14.0063 0)
(5.83886 14.0284 0)
(4.74842 13.9548 0)
(3.75584 13.801 0)
(2.8498 13.6362 0)
(2.05466 13.4832 0)
(1.34396 13.3597 0)
(0.751353 13.2068 0)
(0.256875 13.0288 0)
(-0.138154 12.8277 0)
(-0.498619 12.5885 0)
(-0.809516 12.3327 0)
(-1.09194 12.0643 0)
(-1.33228 11.787 0)
(-1.52756 11.505 0)
(-1.62199 11.2405 0)
(9.30632 12.0286 0)
(8.04583 12.1512 0)
(6.8316 11.9053 0)
(5.66055 11.8468 0)
(4.57463 11.782 0)
(3.62919 11.7099 0)
(2.79309 11.5975 0)
(2.05796 11.4726 0)
(1.37152 11.3313 0)
(0.770782 11.2116 0)
(0.250952 11.0727 0)
(-0.19105 10.9117 0)
(-0.565267 10.7239 0)
(-0.867114 10.5221 0)
(-1.13914 10.3018 0)
(-1.35632 10.0802 0)
(-1.51288 9.84677 0)
(-1.5836 9.60998 0)
(9.57036 9.94676 0)
(8.36186 10.0123 0)
(7.17606 9.81429 0)
(5.96682 9.7672 0)
(4.85647 9.72751 0)
(3.90485 9.66764 0)
(3.03419 9.56813 0)
(2.26612 9.45781 0)
(1.57934 9.32861 0)
(0.959713 9.23864 0)
(0.417521 9.1403 0)
(-0.0399355 9.02081 0)
(-0.440065 8.88099 0)
(-0.756162 8.71224 0)
(-1.02647 8.53043 0)
(-1.24485 8.34076 0)
(-1.41535 8.1525 0)
(-1.52606 7.96076 0)
(9.41665 7.9503 0)
(8.36476 7.99626 0)
(7.31219 7.80865 0)
(6.18955 7.76132 0)
(5.09961 7.72526 0)
(4.11049 7.68432 0)
(3.18638 7.62927 0)
(2.36299 7.56754 0)
(1.6154 7.46206 0)
(0.977436 7.34657 0)
(0.415683 7.25261 0)
(-0.070893 7.1539 0)
(-0.47182 7.06671 0)
(-0.792494 6.97125 0)
(-1.06803 6.84876 0)
(-1.29849 6.70249 0)
(-1.49039 6.55276 0)
(-1.62649 6.39328 0)
(9.43506 6.07571 0)
(8.37599 5.94179 0)
(7.44884 5.82231 0)
(6.40018 5.85217 0)
(5.34475 5.85369 0)
(4.36424 5.82905 0)
(3.43108 5.79943 0)
(2.57973 5.76363 0)
(1.78366 5.71512 0)
(1.06323 5.64184 0)
(0.413963 5.56602 0)
(-0.147927 5.4951 0)
(-0.619295 5.44599 0)
(-0.992923 5.36158 0)
(-1.31993 5.25315 0)
(-1.58293 5.12695 0)
(-1.79511 5.01041 0)
(-1.97042 4.88148 0)
(9.21024 4.35082 0)
(8.43348 4.11544 0)
(7.62231 4.06935 0)
(6.54471 4.09326 0)
(5.42172 4.10508 0)
(4.33502 4.12721 0)
(3.31174 4.1461 0)
(2.34771 4.16235 0)
(1.44196 4.14831 0)
(0.617678 4.10583 0)
(-0.123205 4.05004 0)
(-0.779915 3.99116 0)
(-1.33052 3.9455 0)
(-1.81321 3.87746 0)
(-2.22977 3.78995 0)
(-2.59371 3.71306 0)
(-2.90737 3.62736 0)
(-3.20178 3.5499 0)
(9.59554 2.7403 0)
(8.70337 2.35437 0)
(7.62253 2.39638 0)
(6.189 2.53228 0)
(4.69079 2.60664 0)
(3.21469 2.67907 0)
(1.87244 2.72601 0)
(0.641118 2.76004 0)
(-0.451775 2.77561 0)
(-1.44762 2.75554 0)
(-2.32782 2.72609 0)
(-3.11231 2.69002 0)
(-3.78915 2.65552 0)
(-4.40117 2.62428 0)
(-4.92788 2.57802 0)
(-5.42331 2.51471 0)
(-5.83902 2.46723 0)
(-6.23166 2.44685 0)
(9.4823 1.00055 0)
(8.00449 0.819953 0)
(6.05363 1.01329 0)
(3.81935 1.23712 0)
(1.73493 1.39546 0)
(-0.117688 1.52762 0)
(-1.71233 1.60029 0)
(-3.08672 1.62996 0)
(-4.24711 1.64176 0)
(-5.26936 1.62959 0)
(-6.14614 1.61253 0)
(-6.91357 1.59212 0)
(-7.57886 1.58289 0)
(-8.14916 1.56186 0)
(-8.65704 1.52286 0)
(-9.10792 1.4921 0)
(-9.4875 1.45577 0)
(-9.83098 1.43294 0)
(7.80794 0.143702 0)
(4.02176 0.234234 0)
(0.94003 0.463757 0)
(-1.52418 0.571295 0)
(-3.32956 0.602118 0)
(-4.74953 0.598786 0)
(-5.94678 0.585663 0)
(-6.9765 0.570968 0)
(-7.86605 0.56337 0)
(-8.65275 0.554053 0)
(-9.33574 0.548743 0)
(-9.92906 0.542186 0)
(-10.4405 0.533393 0)
(-10.876 0.524612 0)
(-11.258 0.513884 0)
(-11.5822 0.505895 0)
(-11.8643 0.484709 0)
(-12.1203 0.48368 0)
(-0.103604 -0.863344 0)
(-0.43057 -0.620629 0)
(-0.954361 -0.600177 0)
(-1.46661 -0.721241 0)
(-1.92647 -0.820461 0)
(-2.2594 -0.921838 0)
(-2.46015 -1.02175 1.06692e-17)
(-2.555 -1.09502 -1.06463e-17)
(-2.57948 -1.13332 0)
(-2.55611 -1.13765 -1.05713e-17)
(-2.51976 -1.12284 0)
(-2.48701 -1.11074 0)
(-2.44526 -1.09124 0)
(-2.40247 -1.07695 1.03694e-17)
(-2.3483 -1.06291 0)
(-2.2734 -1.04296 0)
(-2.19493 -1.0323 -1.02185e-17)
(-2.11146 -1.01435 0)
(-2.02867 -0.994965 0)
(-1.91934 -0.973438 0)
(-1.79959 -0.954812 1.00017e-17)
(-1.65406 -0.928754 0)
(-1.53339 -0.889393 9.88165e-18)
(-1.39678 -0.84034 0)
(-1.27706 -0.793586 0)
(-1.16649 -0.738501 9.70686e-18)
(-1.08567 -0.650938 0)
(-1.06078 -0.560111 -9.58026e-18)
(-1.07098 -0.443416 0)
(-1.18554 -0.317281 9.44536e-18)
(-1.33744 -0.225603 0)
(-1.61659 -0.0732923 0)
(-2.01374 0.0210015 0)
(-2.42729 0.0158349 0)
(-2.96173 0.188913 0)
(-3.56742 0.256887 -9.17943e-18)
(-4.10196 -0.166998 0)
(-4.46977 -0.658632 1.83017e-17)
(-4.67177 -0.73915 0)
(-4.71925 -0.468639 -1.80114e-17)
(-4.68168 -0.177413 0)
(-4.75499 -0.0216853 0)
(-4.89459 0.0168794 1.74817e-17)
(-5.01078 -0.0197482 0)
(-4.95266 -0.1172 1.71202e-17)
(-4.63904 -0.215136 -1.70013e-17)
(-4.18655 -0.14773 0)
(-3.74153 -0.160117 -1.6915e-17)
(-3.18443 -0.264803 -1.69577e-17)
(-2.79063 -0.227476 0)
(-2.46016 -0.200192 0)
(-1.48242 -0.486153 0)
(-0.365361 -0.688571 0)
(1.08168 -0.333498 0)
(2.23096 -0.328935 1.60716e-17)
(2.7844 -0.761383 0)
(3.1468 -1.23666 -1.60293e-17)
(3.69446 -1.37419 0)
(3.95011 -0.573128 0)
(3.23352 0.558794 1.63298e-17)
(2.11918 1.13303 0)
(1.15049 1.23699 -1.58391e-17)
(0.236389 1.18177 0)
(-0.523601 1.12099 0)
(-1.10131 1.05298 0)
(-1.58058 0.968358 1.51264e-17)
(-1.97015 0.886739 0)
(-2.23025 0.834778 0)
(-2.36712 0.776804 1.47381e-17)
(-2.44856 0.725042 0)
(-2.44711 0.686294 1.44971e-17)
(-2.4015 0.63692 0)
(-2.30278 0.611815 0)
(-2.14436 0.591939 0)
(-1.96579 0.58614 -1.40342e-17)
(-1.7762 0.592869 0)
(-1.57957 0.601852 0)
(-1.3713 0.612887 -1.3698e-17)
(-1.18264 0.632872 -1.35865e-17)
(-0.999667 0.648602 0)
(-0.814093 0.659284 -1.33613e-17)
(-0.651084 0.68777 0)
(-0.509886 0.700023 -2.62607e-17)
(-0.351205 0.723839 0)
(-0.223484 0.758923 -2.58054e-17)
(-0.0965295 0.778511 0)
(0.0612821 0.795432 2.53442e-17)
(0.23143 0.823096 0)
(0.42649 0.833108 0)
(0.649289 0.858097 0)
(0.934711 0.85823 -2.44282e-17)
(1.23583 0.896652 0)
(1.54646 0.893842 2.3984e-17)
(1.932 0.917167 0)
(2.35607 0.952053 -2.35564e-17)
(2.78777 0.930749 -2.334e-17)
(3.20298 0.974622 -2.31428e-17)
(3.65765 0.966122 0)
(4.11424 0.977217 0)
(4.5756 0.988375 0)
(5.03184 0.97605 0)
(5.42931 0.970038 0)
(5.81938 0.943323 0)
(6.22361 0.913684 0)
(6.64122 0.868279 0)
(7.09795 0.828965 2.17251e-17)
(7.574 0.798626 2.16233e-17)
(8.02476 0.754112 0)
(8.40764 0.698888 0)
(8.75385 0.620562 0)
(9.04237 0.55267 2.13766e-17)
(9.23351 0.509072 0)
(9.34834 0.478563 0)
(9.36655 0.471328 0)
(9.30977 0.408446 0)
(9.23224 0.327308 -2.07429e-17)
(9.03341 0.27218 0)
(8.73426 0.256486 0)
(8.43469 0.203505 2.03643e-17)
(8.12709 0.0742871 -2.02424e-17)
(7.74256 -0.0341935 0)
(7.26603 -0.116868 -2.01008e-17)
(6.74294 -0.2047 0)
(6.22431 -0.293282 2.01053e-17)
(5.83501 -0.381916 0)
(5.5696 -0.498686 0)
(5.35462 -0.649753 0)
(5.16954 -0.758898 0)
(5.00175 -0.837229 0)
(4.80574 -0.919174 -3.97832e-17)
(4.75297 -1.05434 -3.95626e-17)
(5.0936 -1.25186 0)
(5.25934 -1.27457 0)
(5.71947 -1.39195 0)
(5.78541 -1.39137 3.86433e-17)
(6.53897 -1.59007 0)
(6.20238 -1.39622 0)
(7.09716 -1.96084 0)
(7.51629 -1.78131 3.74494e-17)
(9.14063 -2.15096 -3.75448e-17)
(10.1078 -1.99745 0)
(11.1494 -1.98311 0)
(11.9191 -1.99565 -3.65972e-17)
(12.6439 -2.00081 -3.61958e-17)
(13.1904 -2.07353 0)
(13.7646 -2.20685 0)
(14.8181 -2.34641 3.52388e-17)
(16.0056 -2.48573 -3.49343e-17)
(17.1802 -2.57974 0)
(17.8967 -2.70521 0)
(18.4813 -2.81775 -3.43001e-17)
(18.9476 -2.86727 0)
(19.0409 -2.86 0)
(18.9473 -2.74866 -3.36517e-17)
(17.941 -2.63699 0)
(16.6651 -2.57493 -3.31612e-17)
(14.798 -2.50609 0)
(13.079 -2.60402 0)
(11.157 -2.62731 0)
(9.47542 -2.75859 3.19718e-17)
(8.06845 -2.80979 0)
(6.537 -2.96903 0)
(5.54204 -3.01505 0)
(3.89729 -2.9164 0)
(3.54797 -3.14282 0)
(3.03859 -3.00551 0)
(1.68846 -2.84169 2.94852e-17)
(0.629508 -2.82175 2.94061e-17)
(-0.482994 -2.60794 0)
(-1.26766 -2.52362 0)
(-2.26762 -2.30118 0)
(-3.98965 -1.6686 -2.9185e-17)
(-8.20023 -1.10421 0)
(-10.5074 -1.40036 5.45848e-17)
(-10.3801 -1.56637 -5.48986e-17)
(-10.2633 -1.36036 -5.57105e-17)
(-10.3725 -1.10608 5.64285e-17)
(-11.3686 -1.0834 -5.70074e-17)
(-12.078 -0.973597 5.66637e-17)
(-12.9018 -1.00347 0)
(-0.100654 -2.86051 0)
(-0.296972 -2.42842 0)
(-0.588794 -2.1156 -2.12743e-17)
(-1.00753 -2.12209 0)
(-1.42355 -2.34938 2.08291e-17)
(-1.74737 -2.7092 2.10614e-17)
(-1.95012 -3.0754 1.07014e-17)
(-2.05035 -3.36748 1.08134e-17)
(-2.08347 -3.52186 0)
(-2.08468 -3.58987 1.09034e-17)
(-2.06745 -3.55001 0)
(-2.04121 -3.51464 0)
(-2.04 -3.48135 -2.16304e-17)
(-1.98879 -3.43267 -1.07614e-17)
(-1.97336 -3.42688 2.14722e-17)
(-1.90888 -3.38738 2.13776e-17)
(-1.90015 -3.38432 1.0637e-17)
(-1.78555 -3.33765 0)
(-1.71649 -3.31102 0)
(-1.57751 -3.274 0)
(-1.48531 -3.24227 1.0431e-17)
(-1.31218 -3.21682 0)
(-1.12303 -3.1277 -3.08514e-17)
(-0.930868 -3.04052 0)
(-0.668395 -2.89597 0)
(-0.500179 -2.77514 -1.00657e-17)
(-0.215467 -2.5871 0)
(-0.0958661 -2.37296 9.92833e-18)
(0.118352 -2.16645 1.96519e-17)
(0.230062 -1.8327 -9.74528e-18)
(0.272152 -1.55087 0)
(0.404128 -1.1867 0)
(0.22454 -0.833615 0)
(0.218813 -0.598492 1.85425e-17)
(0.0202 -0.230586 1.83795e-17)
(-0.374769 -0.0625977 9.12074e-18)
(-0.397838 -0.110391 0)
(-0.896986 0.142315 -1.78698e-17)
(-1.90599 -0.025745 0)
(-2.66484 -0.717049 1.77033e-17)
(-3.20169 -0.871695 0)
(-3.61444 -0.464953 0)
(-3.84235 -0.177118 -1.67055e-17)
(-3.97008 -0.20865 0)
(-3.96443 -0.666655 -4.99417e-17)
(-3.60646 -1.13975 1.66256e-17)
(-3.1668 -1.27198 0)
(-2.46292 -1.14675 1.6546e-17)
(-1.60693 -1.11734 1.62406e-17)
(-1.63674 -0.612427 0)
(-1.07558 -0.934073 0)
(0.407747 -1.70518 0)
(1.09477 -2.72762 0)
(1.50196 -2.2289 0)
(1.34085 -0.833963 -1.6139e-17)
(0.281679 0.487522 -3.23507e-17)
(-1.04636 1.38067 1.60512e-17)
(-2.35972 2.03572 0)
(-3.36926 2.53096 -3.15066e-17)
(-4.22085 2.87292 1.5548e-17)
(-4.82358 2.94414 0)
(-5.29204 2.8605 1.5196e-17)
(-5.65243 2.68021 0)
(-5.94153 2.50901 0)
(-6.14344 2.28155 2.96374e-17)
(-6.2749 2.07547 -1.47194e-17)
(-6.30533 1.90817 2.9221e-17)
(-6.25717 1.75498 -2.90165e-17)
(-6.12834 1.60734 -1.44093e-17)
(-5.9733 1.47831 0)
(-5.75186 1.37283 -1.42e-17)
(-5.48864 1.29762 0)
(-5.18082 1.26473 0)
(-4.83954 1.2337 0)
(-4.49515 1.21187 -1.37467e-17)
(-4.15339 1.2212 0)
(-3.82923 1.23048 -2.70486e-17)
(-3.48979 1.26054 4.02485e-17)
(-3.20247 1.31963 1.3299e-17)
(-2.88825 1.35592 0)
(-2.59206 1.39759 1.30672e-17)
(-2.33945 1.46919 0)
(-2.07058 1.50071 2.56469e-17)
(-1.81666 1.57966 0)
(-1.5928 1.66044 2.51453e-17)
(-1.3666 1.70006 -4.9802e-17)
(-1.10299 1.74193 -2.46575e-17)
(-0.867926 1.79821 0)
(-0.566726 1.84206 0)
(-0.290843 1.90034 0)
(0.105623 1.92615 2.36207e-17)
(0.416511 2.036 0)
(0.865654 2.04835 -2.31146e-17)
(1.26701 2.07144 0)
(1.69216 2.19064 6.76178e-17)
(2.1872 2.20116 2.22847e-17)
(2.61109 2.27782 2.20073e-17)
(3.10514 2.29486 0)
(3.56203 2.36204 0)
(4.04898 2.36584 0)
(4.47423 2.36007 0)
(4.9285 2.39759 0)
(5.34902 2.37396 4.15592e-17)
(5.80156 2.32637 4.12916e-17)
(6.26775 2.23796 0)
(6.75981 2.10045 -2.04483e-17)
(7.20808 1.93035 -2.04098e-17)
(7.60764 1.78692 0)
(7.92981 1.68914 -4.09433e-17)
(8.19582 1.57564 0)
(8.41601 1.5027 2.03995e-17)
(8.51739 1.43271 0)
(8.51847 1.28741 0)
(8.36918 1.11328 -3.96349e-17)
(8.17652 0.925915 0)
(8.04784 0.773015 1.9384e-17)
(7.78635 0.641064 0)
(7.37168 0.404652 0)
(6.93196 0.102857 1.90982e-17)
(6.56348 -0.118192 1.89889e-17)
(6.22917 -0.241157 0)
(5.92184 -0.412516 -1.87695e-17)
(5.61506 -0.717737 0)
(5.27295 -1.078 1.95065e-17)
(4.89815 -1.54893 3.99894e-17)
(4.5888 -1.93017 0)
(4.51946 -2.14837 0)
(4.56467 -2.41695 0)
(4.62859 -2.75483 0)
(4.62686 -3.00534 4.04919e-17)
(4.87727 -3.51811 1.20445e-16)
(5.47054 -4.01326 0)
(5.73512 -4.16373 0)
(6.70112 -4.57047 0)
(6.57388 -4.59336 -3.88539e-17)
(8.14781 -5.2718 0)
(6.93264 -4.52447 0)
(9.17221 -6.27368 7.69391e-17)
(8.37591 -5.8002 3.73131e-17)
(11.7073 -7.19107 3.7817e-17)
(12.2458 -6.52683 0)
(13.5728 -6.76924 0)
(14.8621 -6.93403 3.75243e-17)
(15.3846 -6.86577 -3.74758e-17)
(15.9398 -6.71791 0)
(16.4413 -7.25605 0)
(18.0224 -7.59552 -3.60782e-17)
(19.9033 -7.91529 1.04672e-16)
(21.8808 -7.99194 0)
(23.2766 -7.97087 0)
(24.0884 -7.90329 3.27769e-17)
(24.2884 -7.91374 0)
(23.2969 -7.85677 6.54801e-17)
(21.9242 -7.62909 -3.26359e-17)
(19.527 -7.37633 0)
(17.4615 -7.41345 3.19311e-17)
(14.8765 -7.47135 6.34691e-17)
(13.2262 -7.82068 0)
(11.2141 -7.99486 0)
(9.98562 -8.53826 -3.05747e-17)
(8.50445 -8.60285 0)
(7.41366 -8.87178 5.9621e-17)
(6.69881 -9.01335 0)
(4.96319 -8.9167 0)
(5.26317 -9.73608 0)
(4.48562 -8.88978 0)
(3.6772 -8.46181 -2.61676e-17)
(3.05921 -8.27829 -2.58406e-17)
(2.32995 -7.85787 0)
(1.90023 -7.45275 0)
(0.400151 -6.41949 0)
(-1.83306 -4.82979 2.6107e-17)
(-6.51408 -3.64398 0)
(-7.91532 -4.97934 -4.71282e-17)
(-6.5019 -5.45768 4.67818e-17)
(-5.83819 -4.68849 4.77506e-17)
(-4.94203 -3.60496 4.83857e-17)
(-6.25219 -2.9836 5.07588e-17)
(-7.66086 -2.50873 5.10943e-17)
(-9.6201 -2.77581 0)
(-0.109432 -4.851 0)
(-0.340608 -4.35777 0)
(-0.592567 -3.87723 2.15064e-17)
(-0.915606 -3.75415 2.11439e-17)
(-1.21124 -4.02826 -2.13319e-17)
(-1.45202 -4.57037 -2.18957e-17)
(-1.60535 -5.13029 3.30504e-20)
(-1.70082 -5.57714 0)
(-1.75905 -5.79311 0)
(-1.81916 -5.87021 0)
(-1.87288 -5.81898 0)
(-1.91008 -5.73886 0)
(-1.97013 -5.68265 6.76614e-17)
(-1.97364 -5.60693 0)
(-2.03195 -5.59068 -2.2227e-17)
(-2.04399 -5.52274 -2.20577e-17)
(-2.09405 -5.50093 0)
(-2.05056 -5.45534 0)
(-2.03844 -5.41121 0)
(-1.97643 -5.36771 0)
(-1.9111 -5.31657 -2.12301e-17)
(-1.80919 -5.27995 0)
(-1.60986 -5.18155 2.09026e-17)
(-1.45179 -5.12391 0)
(-1.15774 -4.93659 0)
(-0.985035 -4.70042 0)
(-0.67094 -4.46098 4.05938e-17)
(-0.509963 -4.1347 0)
(-0.263253 -3.80591 -2.00299e-17)
(-0.0602746 -3.33868 3.98982e-17)
(0.0316379 -2.95721 0)
(0.267045 -2.51757 0)
(0.289826 -1.96859 0)
(0.432259 -1.62065 -1.92686e-17)
(0.431288 -1.06775 -1.89442e-17)
(0.45855 -0.709912 0)
(0.37798 -0.460029 0)
(0.181981 -0.112935 3.64908e-17)
(0.0884804 0.0794084 3.6266e-17)
(-0.110635 0.339868 -3.59557e-17)
(-0.815766 0.417885 0)
(-1.58469 0.336224 0)
(-1.93017 0.029402 0)
(-2.02953 -0.37169 0)
(-2.11496 -0.993664 3.33573e-17)
(-2.23432 -1.75539 3.34799e-17)
(-2.37241 -1.99417 -3.39935e-17)
(-1.89633 -2.30058 0)
(-1.75558 -1.11154 0)
(-1.5502 -0.350988 0)
(-0.392487 -2.99841 0)
(-0.446369 -2.88122 3.27821e-17)
(-1.96915 -0.593977 0)
(-3.12635 0.725958 0)
(-4.22581 1.96362 3.23534e-17)
(-5.09987 2.691 3.20295e-17)
(-5.83602 3.26923 0)
(-6.40881 3.61918 -6.29695e-17)
(-6.9008 3.92438 3.12654e-17)
(-7.19435 4.09541 -3.10751e-17)
(-7.27512 4.1076 0)
(-7.27615 4.0019 0)
(-7.17927 3.77639 0)
(-7.06585 3.53487 0)
(-6.88692 3.28784 -3.052e-17)
(-6.64452 3.04031 -6.07947e-17)
(-6.41286 2.84234 -3.02873e-17)
(-6.12744 2.63719 3.0169e-17)
(-5.82202 2.45708 0)
(-5.47179 2.30778 -5.97012e-17)
(-5.1206 2.19726 -5.9343e-17)
(-4.69074 2.12265 -5.90292e-17)
(-4.31886 2.04684 5.86112e-17)
(-3.89272 2.01983 0)
(-3.5055 1.98491 8.67448e-17)
(-3.08725 2.02919 0)
(-2.71499 2.05898 -2.84659e-17)
(-2.27938 2.11135 -2.83028e-17)
(-1.98583 2.24959 0)
(-1.64737 2.33127 0)
(-1.29818 2.42845 -5.52364e-17)
(-1.11345 2.59225 0)
(-0.770581 2.66726 -5.43685e-17)
(-0.547273 2.78624 0)
(-0.28621 2.93349 5.33752e-17)
(-0.110509 3.01563 1.05923e-16)
(0.172226 3.09434 0)
(0.378014 3.18795 0)
(0.748118 3.28266 0)
(0.925274 3.36671 5.09186e-17)
(1.43824 3.42256 0)
(1.64192 3.5707 4.96326e-17)
(2.12141 3.65048 0)
(2.47274 3.68725 0)
(2.90296 3.8513 -9.58156e-17)
(3.36371 3.89715 0)
(3.68271 3.97543 -4.64681e-17)
(4.21795 4.03534 0)
(4.52463 4.08784 -4.50275e-17)
(4.98427 4.08367 0)
(5.31413 4.04489 0)
(5.73561 4.0162 0)
(6.05263 3.90534 -1.2763e-16)
(6.40049 3.75442 -4.20094e-17)
(6.72707 3.57364 0)
(7.01394 3.45635 0)
(7.30417 3.34906 0)
(7.61348 3.20983 0)
(7.93622 3.05519 4.06369e-17)
(8.19537 2.78494 -8.13685e-17)
(8.27532 2.55103 -4.07125e-17)
(8.21682 2.37501 8.1148e-17)
(8.12788 2.2305 8.06716e-17)
(8.02543 2.06156 3.99422e-17)
(7.96123 1.70903 0)
(7.88615 1.32947 7.65195e-17)
(7.71648 1.1279 0)
(7.48058 0.978038 -7.64316e-17)
(7.09696 0.565972 -3.97123e-17)
(6.44051 -0.024436 0)
(5.79393 -0.554202 7.72533e-17)
(5.35807 -0.906402 3.77048e-17)
(5.2075 -1.30737 0)
(5.20336 -1.70546 3.75226e-17)
(5.40824 -2.2298 -1.16116e-16)
(5.61023 -2.93567 0)
(5.81056 -3.56785 0)
(5.96975 -4.18848 0)
(6.46848 -4.80935 0)
(6.49577 -5.25482 -8.14875e-17)
(6.79521 -6.1149 -8.02786e-17)
(7.37167 -6.74111 0)
(7.4835 -7.11662 0)
(9.02956 -7.76098 0)
(8.0203 -7.62914 0)
(10.856 -8.70166 0)
(7.90833 -7.43323 0)
(11.2804 -10.425 -7.95986e-17)
(9.25346 -9.33737 1.51663e-19)
(13.2004 -12.1599 0)
(12.9263 -10.3929 0)
(14.9824 -11.0899 -7.32766e-17)
(16.5316 -11.3453 0)
(17.052 -11.258 7.71625e-17)
(17.1165 -11.2544 7.97342e-17)
(17.4307 -12.5135 0)
(18.0579 -13.6113 0)
(20.1398 -14.1765 -7.81318e-17)
(22.4502 -13.9901 -1.45632e-16)
(24.5634 -13.715 0)
(25.8095 -13.3 0)
(26.5021 -12.7401 0)
(25.0921 -12.2111 -6.41709e-17)
(23.0228 -11.7974 6.41708e-17)
(19.9346 -11.5393 0)
(17.81 -11.9113 1.2936e-16)
(15.2604 -12.2468 6.48277e-17)
(14.0345 -13.0785 -1.28564e-16)
(11.8973 -13.4429 0)
(11.2128 -14.3809 0)
(9.53513 -14.5383 -1.25176e-16)
(8.82695 -15.1139 -6.14878e-17)
(8.2288 -15.2773 0)
(6.54655 -14.8639 0)
(7.19305 -16.4559 0)
(6.15293 -14.7538 0)
(5.62186 -14.113 -1.07354e-16)
(4.83485 -13.7188 0)
(3.95331 -13.1396 0)
(3.42545 -12.1124 0)
(2.14724 -10.3322 0)
(-0.593506 -7.6912 0)
(-5.34473 -5.85039 0)
(-7.06491 -8.73727 -9.56029e-17)
(-5.20783 -9.43738 0)
(-4.33523 -8.19894 0)
(-2.55306 -6.26711 -1.82922e-16)
(-2.90031 -4.90288 9.4863e-17)
(-4.13996 -3.83665 -9.52942e-17)
(-6.68578 -4.27271 9.71304e-17)
(-0.124703 -6.63028 0)
(-0.406995 -6.09075 -4.5915e-17)
(-0.65541 -5.59459 0)
(-0.864947 -5.52314 -2.20128e-17)
(-1.00988 -5.95899 0)
(-1.1087 -6.66175 0)
(-1.16677 -7.30806 2.31234e-17)
(-1.24346 -7.7625 0)
(-1.31316 -7.95263 0)
(-1.41274 -7.95814 0)
(-1.51829 -7.87282 0)
(-1.62712 -7.77798 0)
(-1.72269 -7.69788 -8.94124e-17)
(-1.83795 -7.60722 -4.4342e-17)
(-1.94993 -7.52994 4.39092e-17)
(-2.06115 -7.45374 0)
(-2.13292 -7.40705 0)
(-2.19396 -7.36195 0)
(-2.20957 -7.25694 0)
(-2.1904 -7.23321 0)
(-2.07024 -7.20219 -4.15206e-17)
(-1.92258 -7.20428 -4.11875e-17)
(-1.68334 -7.1486 4.0895e-17)
(-1.49392 -7.05154 -4.05756e-17)
(-1.20707 -6.8792 0)
(-1.01341 -6.61764 0)
(-0.714807 -6.24691 -3.97086e-17)
(-0.582928 -5.83035 0)
(-0.385688 -5.4082 0)
(-0.243661 -4.90111 -3.91014e-17)
(-0.181404 -4.37386 -3.90222e-17)
(-0.0136935 -3.8458 -3.86494e-17)
(0.0173478 -3.25328 0)
(0.0869884 -2.70226 0)
(0.215891 -2.22401 3.78437e-17)
(0.218265 -1.65152 0)
(0.378858 -1.21535 0)
(0.512996 -0.921634 -3.6578e-17)
(0.436348 -0.393438 3.61089e-17)
(0.596727 -0.1402 -3.56816e-17)
(0.601499 -0.00613444 0)
(0.371607 0.140396 0)
(0.337 0.15829 -7.01641e-17)
(0.334014 -0.039525 0)
(0.383282 -0.515774 -6.76801e-17)
(-0.180494 -1.08344 -1.02984e-16)
(-0.181808 -1.91491 1.00817e-16)
(0.244192 -1.88732 -6.63816e-17)
(-0.442307 -1.13046 0)
(0.62633 -2.00811 0)
(-0.328143 -1.34488 -6.66673e-17)
(-2.63675 0.233123 -3.3107e-17)
(-4.09275 1.49366 0)
(-5.32518 2.50245 0)
(-6.26137 3.43442 -3.2181e-17)
(-6.93151 4.04333 -6.40528e-17)
(-7.39507 4.42489 0)
(-7.50769 4.62413 6.34633e-17)
(-7.58751 4.76376 -6.32881e-17)
(-7.46279 4.7136 6.31821e-17)
(-7.29904 4.64867 0)
(-7.05199 4.4531 0)
(-6.79923 4.22925 0)
(-6.42362 3.94849 0)
(-6.17656 3.72916 0)
(-5.79403 3.47211 6.20567e-17)
(-5.524 3.25333 0)
(-5.11369 3.03968 0)
(-4.80825 2.8571 0)
(-4.33005 2.72933 1.21265e-16)
(-3.9711 2.60123 6.024e-17)
(-3.49956 2.50564 5.99209e-17)
(-3.1237 2.39078 -1.18973e-16)
(-2.63571 2.34853 5.90779e-17)
(-2.15647 2.33261 -5.87643e-17)
(-1.71833 2.38416 0)
(-1.29961 2.47143 5.79706e-17)
(-0.809561 2.53379 0)
(-0.448856 2.72303 0)
(-0.179244 2.83315 0)
(0.314286 2.99295 1.12609e-16)
(0.422159 3.27894 -5.58426e-17)
(0.806294 3.39263 -5.54138e-17)
(0.969284 3.58715 -1.10081e-16)
(1.29239 3.78709 -1.63945e-16)
(1.4049 3.90796 -5.43271e-17)
(1.70909 3.99824 0)
(1.87225 4.11826 -1.06948e-16)
(2.30842 4.26192 0)
(2.44975 4.41091 -1.57861e-16)
(2.99529 4.46896 0)
(3.25904 4.68983 -1.55067e-16)
(3.73077 4.81629 0)
(4.19812 4.94051 0)
(4.53881 5.099 -5.01906e-17)
(5.0591 5.21879 0)
(5.37088 5.39145 4.91556e-17)
(5.95783 5.50793 9.73836e-17)
(6.21688 5.60445 4.79623e-17)
(6.68347 5.6419 9.47589e-17)
(6.9936 5.659 -9.35274e-17)
(7.32947 5.60052 -9.21219e-17)
(7.66009 5.52796 1.82098e-16)
(7.9247 5.39986 0)
(8.15417 5.23754 0)
(8.29771 4.97286 8.73042e-17)
(8.43576 4.55097 -8.47638e-17)
(8.52463 4.06054 0)
(8.4607 3.75351 0)
(8.43747 3.57794 8.10524e-17)
(8.4605 3.5978 0)
(8.59823 3.49587 -1.32597e-19)
(8.68613 3.13206 -1.3283e-19)
(8.55431 2.60528 8.05024e-17)
(8.41904 2.02087 0)
(8.23325 1.62333 -7.97822e-17)
(7.99825 1.33522 0)
(7.78101 1.0227 7.67716e-17)
(7.71142 0.63125 0)
(7.55147 0.116749 0)
(7.01869 -0.507802 -8.5465e-17)
(6.41686 -1.27345 -8.4002e-17)
(6.11832 -2.16591 0)
(5.89757 -3.04962 -8.01041e-17)
(5.95393 -3.9344 1.57276e-16)
(6.08024 -4.92461 0)
(6.44129 -5.51266 0)
(6.77201 -6.34468 0)
(7.69408 -7.01216 0)
(7.85606 -7.3688 7.67556e-17)
(8.55597 -8.48301 -1.54986e-16)
(8.87773 -9.34341 0)
(8.82249 -10.0381 0)
(10.934 -10.666 0)
(9.12626 -10.5902 0)
(12.865 -11.9313 0)
(8.73017 -9.92492 0)
(13.4023 -14.9759 0)
(9.43482 -13.1234 7.74798e-17)
(15.8955 -17.3554 0)
(12.1229 -14.6607 0)
(15.7602 -16.0558 7.52357e-17)
(16.8717 -15.5428 0)
(19.0829 -14.9592 0)
(19.18 -15.2968 -7.45799e-17)
(20.2712 -16.9184 0)
(19.7818 -19.1667 0)
(20.9663 -20.8577 1.70968e-16)
(22.4709 -20.868 1.60861e-16)
(24.7975 -20.1453 1.4802e-16)
(26.3847 -19.0152 0)
(27.381 -17.8131 1.30282e-16)
(26.1085 -16.5019 0)
(23.8446 -15.7718 -1.29011e-16)
(20.6612 -15.5716 0)
(18.6864 -16.5378 -1.30367e-16)
(16.0498 -17.3513 1.0128e-18)
(15.1423 -18.6476 1.30247e-16)