/*--------------------------------*- C++ -*----------------------------------*\
| =========                 |                                                 |
| \\      /  F ield         | OpenFOAM: The Open Source CFD Toolbox           |
|  \\    /   O peration     | Version:  dev                                   |
|   \\  /    A nd           | Web:      http://www.openfoam.org               |
|    \\/     M anipulation  |                                                 |
\*---------------------------------------------------------------------------*/
FoamFile
{
    version     2.0;
    format      ascii;
    class       volVectorField;
    object      UMean;
    location    "9.121";
}
// * * * * * * * * * * * * * * * * * * * * * * * * * * * * * * * * * * * * * //

dimensions      [0 1 -1 0 0 0 0];

internalField   nonuniform List<vector> 
12225
(
(7.00366 0.43027 0)
(4.43882 0.192541 0)
(2.55682 0.031148 0)
(2.51092 -0.0166577 0)
(1.38446 0.0193576 0)
(2.26743 -0.0342782 0)
(0.989454 0.0489775 0)
(2.18274 -0.0591748 0)
(0.797393 0.071654 0)
(2.29197 -0.0978515 0)
(0.688565 0.0993741 0)
(2.74378 -0.13863 0)
(0.947743 0.10261 0)
(3.39682 -0.17211 0)
(3.52947 -0.168406 0)
(4.694 0.0501106 0)
(14.8381 -2.43321 0)
(7.1155 5.13128 0)
(9.54628 0.981595 0)
(9.54342 0.860858 0)
(6.68687 0.466276 0)
(7.59057 0.214548 0)
(4.09063 0.140303 0)
(6.84345 0.0108125 0)
(2.66507 0.132634 0)
(6.68973 -0.0903345 0)
(1.82253 0.141838 0)
(7.03975 -0.165057 0)
(1.26043 0.12391 0)
(8.12231 -0.414345 0)
(1.38503 0.252493 0)
(9.95453 -1.44181 0)
(3.43489 0.272607 0)
(12.3852 -4.06645 0)
(10.4243 -1.92625 0)
(7.77233 0.482955 0)
(9.11847 0.763501 0)
(12.1669 0.951361 0)
(8.32953 0.623933 0)
(11.8322 0.443355 0)
(6.22602 0.310272 0)
(11.4132 0.206476 0)
(4.58246 0.221461 0)
(11.3153 -0.0195221 0)
(3.87363 0.192904 0)
(11.3771 -0.277842 0)
(4.34973 0.187254 0)
(11.2538 -0.7232 0)
(5.72764 0.176275 0)
(11.091 -1.49165 0)
(7.2141 0.0535443 0)
(12.117 -3.86425 0)
(6.93321 0.350618 0)
(9.35265 -2.39236 0)
(7.21886 0.525004 0)
(13.993 0.960954 0)
(7.92964 0.609431 0)
(14.2954 0.553788 0)
(7.47418 0.420862 0)
(14.1166 0.271099 0)
(7.17547 0.39663 0)
(13.7388 -0.145056 0)
(7.25637 0.459507 0)
(13.27 -0.698636 0)
(7.65871 0.576686 0)
(12.8749 -1.42257 0)
(8.2656 0.699573 0)
(12.6518 -2.31298 0)
(9.02113 0.0431784 0)
(11.8894 -3.63599 0)
(8.68466 -1.43107 0)
(8.36564 0.680666 0)
(6.42396 0.56995 0)
(14.0111 0.565864 0)
(8.47364 0.674366 0)
(13.9581 0.284485 0)
(9.16964 0.636595 0)
(13.6435 -0.002536 0)
(9.51751 0.65774 0)
(13.2137 -0.388614 0)
(9.59246 0.734261 0)
(12.8125 -0.871154 0)
(9.4458 0.876808 0)
(12.5817 -1.52111 0)
(9.14954 1.08996 0)
(12.5691 -2.48917 0)
(8.82644 1.13252 0)
(11.6149 -5.02634 0)
(8.54285 1.26733 0)
(8.72198 0.124269 0)
(7.95666 0.616896 0)
(11.8028 0.152314 0)
(9.50569 0.654709 0)
(11.739 0.0501577 0)
(10.089 0.693911 0)
(11.5999 -0.165703 0)
(10.3213 0.725833 0)
(11.4756 -0.45752 0)
(10.3013 0.783088 0)
(11.3885 -0.853509 0)
(10.0337 0.832293 0)
(11.3539 -1.39998 0)
(9.49356 0.801934 0)
(11.416 -2.13821 0)
(8.80262 0.727415 0)
(10.9955 -3.92011 0)
(7.73702 1.3364 0)
(9.48901 -0.219715 0)
(9.34487 0.812675 0)
(10.438 -0.266083 0)
(10.1417 0.930399 0)
(10.5529 -0.304611 0)
(10.3997 1.01992 0)
(10.5809 -0.502941 0)
(10.5212 1.07543 0)
(10.6243 -0.781175 0)
(10.5647 1.15346 0)
(10.6706 -1.15775 0)
(10.517 1.23536 0)
(10.6986 -1.63569 0)
(10.3691 1.26165 0)
(10.6864 -2.32694 0)
(10.0564 1.2721 0)
(10.3749 -3.95307 0)
(8.30334 2.01844 0)
(9.69652 -0.954113 0)
(9.85004 0.701206 0)
(10.1549 -0.326205 0)
(10.4076 0.855022 0)
(10.3889 -0.350074 0)
(10.5814 0.90687 0)
(10.4697 -0.494169 0)
(10.7027 0.893022 0)
(10.5512 -0.686453 0)
(10.8065 0.872879 0)
(10.6431 -0.935434 0)
(10.8823 0.824273 0)
(10.7347 -1.23285 0)
(10.9098 0.67212 0)
(10.7532 -1.67246 0)
(10.7258 0.520552 0)
(10.4925 -2.47339 0)
(8.89725 0.979864 0)
(9.96365 -0.485633 0)
(10.0867 0.802193 0)
(10.0188 -0.583601 0)
(10.5365 1.02132 0)
(10.3099 -0.60462 0)
(10.6762 1.07492 0)
(10.4393 -0.725069 0)
(10.7785 1.04815 0)
(10.5702 -0.890097 0)
(10.8581 1.00364 0)
(10.7108 -1.11779 0)
(10.8996 0.921161 0)
(10.8313 -1.39486 0)
(10.875 0.734883 0)
(10.8218 -1.76054 0)
(10.6034 0.505636 0)
(10.5206 -2.06812 0)
(9.35208 0.584975 0)
(10.0231 -0.392415 0)
(10.1399 0.648681 0)
(10.0414 -0.512169 0)
(10.511 0.878081 0)
(10.3327 -0.456742 0)
(10.622 0.869296 0)
(10.4812 -0.493868 0)
(10.6983 0.778356 0)
(10.6284 -0.572359 0)
(10.7346 0.658031 0)
(10.763 -0.695539 0)
(10.7182 0.495722 0)
(10.8397 -0.845057 0)
(10.6186 0.264273 0)
(10.7651 -1.03197 0)
(10.2829 0.0703203 0)
(10.4792 -1.05244 0)
(9.6244 0.123583 0)
(10.2064 -0.0331913 0)
(10.1415 0.699974 0)
(10.0702 -0.692026 0)
(10.4529 0.902464 0)
(10.2982 -0.619052 0)
(10.5378 0.84757 0)
(10.4299 -0.645604 0)
(10.6035 0.735191 0)
(10.5603 -0.707424 0)
(10.6274 0.58669 0)
(10.6601 -0.791207 0)
(10.6093 0.383051 0)
(10.681 -0.869097 0)
(10.5271 0.116969 0)
(10.5708 -0.921733 0)
(10.292 -0.114013 0)
(10.3609 -0.764679 0)
(10.0205 -0.154701 0)
(10.2454 -0.125406 0)
(10.0971 0.46803 0)
(10.1506 -0.495315 0)
(10.3538 0.595776 0)
(10.2933 -0.37481 0)
(10.4205 0.527564 0)
(10.4092 -0.354957 0)
(10.4849 0.418904 0)
(10.5238 -0.374334 0)
(10.5132 0.275748 0)
(10.5992 -0.414744 0)
(10.5158 0.0933214 0)
(10.597 -0.461612 0)
(10.4768 -0.103333 0)
(10.4996 -0.499956 0)
(10.3574 -0.232213 0)
(10.3647 -0.405513 0)
(10.2663 -0.220091 0)
(10.3739 -0.110389 0)
(10.0501 0.410936 0)
(10.1753 -0.487379 0)
(10.2548 0.437136 0)
(10.2378 -0.367582 0)
(10.3088 0.367281 0)
(10.3306 -0.345632 0)
(10.3792 0.250775 0)
(10.4245 -0.355316 0)
(10.4226 0.0993983 0)
(10.4822 -0.374857 0)
(10.4462 -0.0797718 0)
(10.4817 -0.403336 0)
(10.433 -0.24672 0)
(10.4261 -0.431151 0)
(10.3773 -0.33926 0)
(10.3686 -0.392625 0)
(10.3572 -0.32064 0)
(10.4223 -0.276627 0)
(10.0154 0.199609 0)
(10.1907 -0.28592 0)
(10.1932 0.167281 0)
(10.2052 -0.179364 0)
(10.2293 0.131607 0)
(10.2792 -0.171415 0)
(10.3062 0.0471859 0)
(10.3626 -0.197804 0)
(10.366 -0.0587569 0)
(10.4142 -0.235738 0)
(10.4055 -0.176044 0)
(10.4267 -0.286419 0)
(10.4124 -0.275013 0)
(10.4113 -0.33164 0)
(10.3995 -0.324164 0)
(10.4066 -0.337214 0)
(10.4109 -0.316078 0)
(10.4697 -0.304889 0)
(9.99664 0.0970873 0)
(10.1445 -0.185963 0)
(10.1463 0.0215875 0)
(10.1501 -0.133694 0)
(10.1621 -0.00869472 0)
(10.2089 -0.146187 0)
(10.241 -0.0770168 0)
(10.2919 -0.186755 0)
(10.311 -0.159446 0)
(10.3486 -0.237989 0)
(10.3575 -0.244821 0)
(10.3791 -0.298331 0)
(10.3805 -0.316309 0)
(10.3939 -0.350096 0)
(10.3959 -0.361056 0)
(10.4185 -0.380231 0)
(10.4238 -0.381094 0)
(10.4788 -0.387283 0)
(9.99373 0.0155029 0)
(10.106 -0.0858475 0)
(10.1089 -0.0443668 0)
(10.1138 -0.0932704 0)
(10.1188 -0.0749221 0)
(10.1675 -0.118954 0)
(10.198 -0.120637 0)
(10.2518 -0.163853 0)
(10.274 -0.1806 0)
(10.3154 -0.219179 0)
(10.3278 -0.243957 0)
(10.3597 -0.277836 0)
(10.3659 -0.301358 0)
(10.394 -0.329022 0)
(10.3995 -0.347017 0)
(10.4329 -0.370828 0)
(10.4356 -0.383813 0)
(10.4884 -0.397027 0)
(9.99179 0.0047712 0)
(10.0636 -0.0251813 0)
(10.0567 -0.0349416 0)
(10.0678 -0.0664877 0)
(10.0778 -0.0757379 0)
(10.128 -0.0997816 0)
(10.1573 -0.115966 0)
(10.2109 -0.144723 0)
(10.2337 -0.169 0)
(10.2781 -0.199592 0)
(10.292 -0.22659 0)
(10.33 -0.257061 0)
(10.3384 -0.283346 0)
(10.3731 -0.312079 0)
(10.3788 -0.336835 0)
(10.4152 -0.365565 0)
(10.4146 -0.388078 0)
(10.4634 -0.407492 0)
(9.99151 0.0142151 0)
(10.0466 0.016187 0)
(10.0398 -0.0105572 0)
(10.0575 -0.037662 0)
(10.0747 -0.0565238 0)
(10.1254 -0.0778445 0)
(10.1553 -0.0988627 0)
(10.207 -0.123817 0)
(10.231 -0.148992 0)
(10.2753 -0.176626 0)
(10.291 -0.203434 0)
(10.3292 -0.232162 0)
(10.3394 -0.259374 0)
(10.3736 -0.288313 0)
(10.3801 -0.315645 0)
(10.414 -0.345709 0)
(10.4132 -0.371566 0)
(10.4566 -0.393381 0)
(9.99162 0.0329916 0)
(10.0501 0.049713 0)
(10.0565 0.00999528 0)
(10.0798 -0.0180124 0)
(10.1006 -0.0401852 0)
(10.1505 -0.0614254 0)
(10.1818 -0.0835673 0)
(10.2315 -0.106368 0)
(10.2561 -0.130519 0)
(10.2983 -0.155485 0)
(10.3149 -0.181057 0)
(10.3506 -0.207308 0)
(10.3613 -0.233547 0)
(10.3925 -0.260397 0)
(10.399 -0.287019 0)
(10.4287 -0.315271 0)
(10.428 -0.341 0)
(10.4652 -0.362777 0)
(9.98987 0.040782 0)
(10.0547 0.0527408 0)
(10.0827 -0.00626882 0)
(10.1166 -0.0406059 0)
(10.1418 -0.0640648 0)
(10.1903 -0.0822194 0)
(10.2222 -0.102059 0)
(10.2689 -0.120975 0)
(10.2934 -0.142723 0)
(10.3319 -0.163975 0)
(10.3482 -0.187393 0)
(10.3801 -0.210082 0)
(10.3903 -0.234392 0)
(10.4173 -0.257909 0)
(10.4228 -0.282776 0)
(10.4472 -0.307808 0)
(10.446 -0.332433 0)
(10.4767 -0.352829 0)
(9.99053 0.0316863 0)
(10.0685 0.0221168 0)
(10.1261 -0.0556657 0)
(10.1769 -0.0966909 0)
(10.2125 -0.119731 0)
(10.2609 -0.132696 0)
(10.2937 -0.147739 0)
(10.336 -0.161622 0)
(10.36 -0.179807 0)
(10.394 -0.196897 0)
(10.4102 -0.217344 0)
(10.4376 -0.236228 0)
(10.4477 -0.257979 0)
(10.4701 -0.278044 0)
(10.4753 -0.300728 0)
(10.4945 -0.322348 0)
(10.4938 -0.345198 0)
(10.5185 -0.363476 0)
(9.99116 0.00993867 0)
(10.092 -0.0296399 0)
(10.1869 -0.120787 0)
(10.2595 -0.162731 0)
(10.3092 -0.181099 0)
(10.3589 -0.187136 0)
(10.3928 -0.196017 0)
(10.4304 -0.204347 0)
(10.4541 -0.218094 0)
(10.4836 -0.230732 0)
(10.5 -0.247596 0)
(10.5231 -0.262627 0)
(10.5336 -0.281337 0)
(10.5516 -0.298023 0)
(10.5571 -0.318083 0)
(10.5717 -0.336414 0)
(10.5721 -0.356988 0)
(10.5918 -0.373121 0)
(9.99278 -0.0232676 0)
(10.1275 -0.1035 0)
(10.2671 -0.204839 0)
(10.3665 -0.241523 0)
(10.4319 -0.250754 0)
(10.4835 -0.248347 0)
(10.5183 -0.250859 0)
(10.5517 -0.253657 0)
(10.5753 -0.262936 0)
(10.6011 -0.271301 0)
(10.618 -0.284637 0)
(10.6377 -0.29626 0)
(10.6486 -0.312077 0)
(10.663 -0.325834 0)
(10.669 -0.343371 0)
(10.68 -0.358816 0)
(10.6812 -0.377125 0)
(10.6967 -0.391273 0)
(9.99055 -0.0715574 0)
(10.1745 -0.201109 0)
(10.3679 -0.305414 0)
(10.5001 -0.327826 0)
(10.5806 -0.322539 0)
(10.6344 -0.310174 0)
(10.669 -0.305557 0)
(10.6997 -0.30255 0)
(10.7226 -0.306688 0)
(10.746 -0.310571 0)
(10.7624 -0.319897 0)
(10.7793 -0.328042 0)
(10.7894 -0.340584 0)
(10.8005 -0.351362 0)
(10.8054 -0.365956 0)
(10.8123 -0.378514 0)
(10.8121 -0.39407 0)
(10.822 -0.406023 0)
(9.99204 -0.136294 0)
(10.2448 -0.32293 0)
(10.5027 -0.418936 0)
(10.6712 -0.417571 0)
(10.7627 -0.394122 0)
(10.8175 -0.371056 0)
(10.8494 -0.358898 0)
(10.8771 -0.350546 0)
(10.8959 -0.350065 0)
(10.9148 -0.350463 0)
(10.9252 -0.356358 0)
(10.9354 -0.36149 0)
(10.9373 -0.370796 0)
(10.9392 -0.378661 0)
(10.9338 -0.38986 0)
(10.9289 -0.399446 0)
(10.9162 -0.41137 0)
(10.9113 -0.420517 0)
(9.9898 -0.219862 0)
(10.3369 -0.468082 0)
(10.6737 -0.539696 0)
(10.8758 -0.508191 0)
(10.9698 -0.464822 0)
(11.0135 -0.428034 0)
(11.0285 -0.404786 0)
(11.0352 -0.388367 0)
(11.029 -0.381404 0)
(11.0193 -0.376954 0)
(10.9978 -0.37817 0)
(10.9734 -0.379076 0)
(10.9375 -0.383798 0)
(10.8997 -0.38728 0)
(10.852 -0.39365 0)
(10.8039 -0.398976 0)
(10.7458 -0.405296 0)
(10.6941 -0.410069 0)
(9.98338 -0.332033 0)
(10.4677 -0.642268 0)
(10.883 -0.667057 0)
(11.0725 -0.602603 0)
(11.103 -0.537151 0)
(11.0583 -0.483088 0)
(10.9743 -0.444951 0)
(10.8731 -0.416204 0)
(10.7576 -0.397992 0)
(10.6348 -0.383254 0)
(10.5033 -0.374871 0)
(10.3663 -0.366314 0)
(10.2239 -0.362432 0)
(10.0771 -0.356983 0)
(9.92828 -0.355841 0)
(9.77667 -0.35325 0)
(9.62545 -0.35295 0)
(9.47549 -0.351114 0)
(10.0025 -0.45366 0)
(10.619 -0.818936 0)
(10.9016 -0.752047 0)
(10.7932 -0.623735 0)
(10.4937 -0.512512 0)
(10.1376 -0.42917 0)
(9.77006 -0.373545 0)
(9.41751 -0.334711 0)
(9.07667 -0.307281 0)
(8.75529 -0.284597 0)
(8.44627 -0.267643 0)
(8.15316 -0.251321 0)
(7.87237 -0.240035 0)
(7.60276 -0.227331 0)
(7.34792 -0.221128 0)
(7.09837 -0.211813 0)
(6.86991 -0.210841 0)
(6.64046 -0.204165 0)
(10.0975 -0.750782 0)
(10.0459 -1.01318 0)
(9.42499 -0.801069 0)
(8.51447 -0.572171 0)
(7.65504 -0.37872 0)
(6.9289 -0.244884 0)
(6.32732 -0.167523 0)
(5.83158 -0.126252 0)
(5.40914 -0.1047 0)
(5.04852 -0.0923167 0)
(4.72841 -0.084955 0)
(4.44766 -0.0793439 0)
(4.19123 -0.0758041 0)
(3.96231 -0.0718867 0)
(3.75057 -0.0721266 0)
(3.55538 -0.0690712 0)
(3.38313 -0.0802476 0)
(3.2182 -0.0828405 0)
(8.51677 -0.436045 0)
(6.11028 -0.380881 0)
(4.29837 -0.138045 0)
(3.12389 -0.0213803 0)
(2.4811 0.0191361 0)
(2.12045 0.0224773 0)
(1.89619 0.0137202 0)
(1.73485 0.00462029 0)
(1.5988 -0.00156423 0)
(1.47804 -0.00478668 0)
(1.36594 -0.00640156 0)
(1.26377 -0.00671785 0)
(1.16809 -0.00670645 0)
(1.08135 -0.00638816 0)
(0.999313 -0.00665489 0)
(0.91908 -0.00702974 0)
(0.851565 -0.0185967 0)
(0.731084 -0.00612847 0)
(-0.0520555 0.137997 0)
(-0.157038 0.0714269 0)
(-0.206935 0.016358 0)
(-0.194984 -0.0444538 0)
(-0.117611 -0.0991826 0)
(0.0127148 -0.145217 0)
(0.186911 -0.175747 1.11353e-17)
(0.388805 -0.193691 -1.10603e-17)
(0.607173 -0.198065 0)
(0.829679 -0.192787 -1.09171e-17)
(1.04694 -0.178449 0)
(1.24999 -0.157687 0)
(1.43225 -0.131045 0)
(1.58845 -0.101663 1.06425e-17)
(1.71595 -0.0703802 0)
(1.81199 -0.0382627 0)
(1.8757 -0.00607152 -1.04454e-17)
(1.90778 0.0242098 0)
(1.90991 0.0506449 0)
(1.88417 0.0722996 0)
(1.83427 0.089223 1.01959e-17)
(1.76275 0.100797 0)
(1.67354 0.108724 1.0074e-17)
(1.56833 0.111652 0)
(1.45179 0.109719 0)
(1.32666 0.107977 9.89533e-18)
(1.1932 0.111195 0)
(1.05063 0.116265 -9.77901e-18)
(0.90214 0.121499 0)
(0.748287 0.126566 9.66414e-18)
(0.590606 0.130602 0)
(0.431376 0.133097 0)
(0.272861 0.134277 0)
(0.115543 0.134065 0)
(-0.0402446 0.131173 0)
(-0.192449 0.126476 -9.32955e-18)
(-0.339404 0.120383 0)
(-0.480702 0.113943 1.84405e-17)
(-0.614905 0.107526 0)
(-0.741589 0.100333 -1.82215e-17)
(-0.859277 0.093286 0)
(-0.968113 0.0864675 0)
(-1.06853 0.0786744 1.78884e-17)
(-1.16004 0.0702671 0)
(-1.2433 0.0625312 1.76652e-17)
(-1.3184 0.0552928 -1.75532e-17)
(-1.38483 0.0483081 0)
(-1.44348 0.042289 -1.73282e-17)
(-1.49542 0.0369815 -1.72152e-17)
(-1.53962 0.033316 0)
(-1.57632 0.0317737 0)
(-1.60739 0.0317475 0)
(-1.63486 0.0317729 0)
(-1.65966 0.031641 0)
(-1.68317 0.0323979 1.65282e-17)
(-1.70716 0.0338848 0)
(-1.73299 0.0361191 -1.6299e-17)
(-1.75946 0.038226 0)
(-1.78541 0.0389553 0)
(-1.81082 0.0396295 1.59524e-17)
(-1.83642 0.0414317 0)
(-1.8641 0.0426905 -1.57211e-17)
(-1.89379 0.0443992 0)
(-1.92535 0.0459285 0)
(-1.95829 0.046798 0)
(-1.99203 0.0479731 1.52556e-17)
(-2.02622 0.0497586 0)
(-2.06112 0.0519267 0)
(-2.09653 0.0542914 1.49059e-17)
(-2.1327 0.0557259 0)
(-2.16668 0.0559285 1.46712e-17)
(-2.19753 0.0562923 0)
(-2.22516 0.056454 0)
(-2.24851 0.0562778 0)
(-2.26663 0.0556719 -1.42052e-17)
(-2.27882 0.0544479 0)
(-2.28579 0.0537452 0)
(-2.28946 0.0537016 -1.38614e-17)
(-2.29026 0.0527535 -1.3748e-17)
(-2.28647 0.0511184 0)
(-2.27629 0.0488728 -1.35227e-17)
(-2.25961 0.0459843 0)
(-2.23606 0.0428759 -2.66025e-17)
(-2.20565 0.0394739 0)
(-2.16889 0.0358137 -2.61672e-17)
(-2.12558 0.0327327 0)
(-2.07676 0.0302982 2.57384e-17)
(-2.02325 0.0283021 0)
(-1.9651 0.0268203 0)
(-1.90297 0.0257934 0)
(-1.83838 0.0251768 -2.49014e-17)
(-1.77114 0.0248926 0)
(-1.70283 0.0248471 2.44997e-17)
(-1.63359 0.0254853 0)
(-1.56416 0.0266059 -2.41103e-17)
(-1.4965 0.0291688 -2.39217e-17)
(-1.42969 0.0303218 -2.37375e-17)
(-1.36285 0.0314198 0)
(-1.2978 0.0314669 0)
(-1.2333 0.0326431 0)
(-1.16747 0.0333682 0)
(-1.10256 0.0329164 0)
(-1.03255 0.0317833 0)
(-0.963884 0.0332372 0)
(-0.892818 0.0328599 0)
(-0.826074 0.0354184 2.22133e-17)
(-0.75858 0.0357708 2.20612e-17)
(-0.696215 0.0402023 0)
(-0.635505 0.041395 0)
(-0.580221 0.0412153 0)
(-0.513073 0.0385048 2.14805e-17)
(-0.451146 0.0426991 0)
(-0.382863 0.0409872 0)
(-0.318396 0.0438503 0)
(-0.248141 0.0408756 0)
(-0.176022 0.0434185 -2.0806e-17)
(-0.102033 0.0451335 0)
(-0.0227161 0.0441598 0)
(0.0614749 0.045506 2.04288e-17)
(0.14944 0.0452167 -2.03073e-17)
(0.241173 0.044411 0)
(0.337637 0.0482251 -2.00746e-17)
(0.429588 0.0511122 0)
(0.522755 0.0542499 1.98481e-17)
(0.605846 0.0590131 0)
(0.677728 0.0619793 0)
(0.753662 0.0622877 0)
(0.823368 0.0630602 0)
(0.903379 0.0602701 0)
(0.977055 0.0608936 -3.83962e-17)
(1.05306 0.0626154 -3.81772e-17)
(1.11269 0.0676474 0)
(1.1634 0.0662922 0)
(1.2084 0.0674692 0)
(1.24687 0.0633462 3.72527e-17)
(1.29563 0.0588573 0)
(1.34596 0.0571186 0)
(1.39162 0.0559673 0)
(1.44039 0.0541617 3.62327e-17)
(1.47742 0.056783 -3.59644e-17)
(1.52059 0.0527195 0)
(1.55959 0.0526974 0)
(1.60124 0.0531636 -3.51498e-17)
(1.6273 0.0582763 -3.4877e-17)
(1.65729 0.0549799 0)
(1.68564 0.0587376 0)
(1.72471 0.0557425 3.40441e-17)
(1.76112 0.0659385 -3.37647e-17)
(1.76943 0.0713569 0)
(1.78313 0.0706829 0)
(1.8087 0.0710389 -3.29279e-17)
(1.84227 0.0757254 0)
(1.85618 0.083326 0)
(1.86799 0.0890469 -3.20839e-17)
(1.86767 0.0931519 0)
(1.88223 0.0980012 -3.15238e-17)
(1.8845 0.105031 0)
(1.89031 0.109176 0)
(1.87754 0.120784 0)
(1.86453 0.126594 3.04341e-17)
(1.84985 0.133026 0)
(1.81815 0.14297 0)
(1.74571 0.154732 0)
(1.66903 0.154734 0)
(1.60293 0.157082 0)
(1.51234 0.165868 0)
(1.38362 0.172573 2.88922e-17)
(1.26473 0.173848 2.87382e-17)
(1.08061 0.181917 0)
(0.873198 0.184684 0)
(0.629442 0.183612 0)
(0.413703 0.169794 -2.83207e-17)
(0.191572 0.162841 0)
(0.0394246 0.146622 5.63467e-17)
(-0.161647 0.144044 -5.62374e-17)
(-0.264938 0.123677 -5.60581e-17)
(-0.426302 0.12681 5.59543e-17)
(-0.461602 0.0966536 -5.57517e-17)
(-0.619295 0.129173 5.57318e-17)
(-0.566403 -0.00411567 0)
(0.0101588 0.248786 0)
(0.0147475 0.191866 0)
(0.0499689 0.00748683 -2.2796e-17)
(0.121487 -0.198672 0)
(0.236588 -0.384704 2.23644e-17)
(0.389086 -0.536156 2.22175e-17)
(0.570393 -0.645055 1.10433e-17)
(0.770396 -0.710975 1.09809e-17)
(0.977768 -0.737563 0)
(1.18197 -0.731237 1.08537e-17)
(1.37436 -0.695322 0)
(1.54767 -0.636936 0)
(1.69793 -0.562209 -2.13191e-17)
(1.82041 -0.477685 -1.05944e-17)
(1.91504 -0.385735 2.10547e-17)
(1.98004 -0.291199 2.09212e-17)
(2.0168 -0.198851 1.0395e-17)
(2.02539 -0.110769 0)
(2.00822 -0.0277383 0)
(1.96531 0.0469978 0)
(1.90051 0.112454 1.01361e-17)
(1.81388 0.171506 0)
(1.71011 0.224333 -3.0036e-17)
(1.588 0.267084 0)
(1.44984 0.301977 0)
(1.29615 0.332487 -9.83148e-18)
(1.1304 0.356441 0)
(0.955372 0.373718 9.71517e-18)
(0.774896 0.384783 1.9312e-17)
(0.589861 0.392096 -9.59721e-18)
(0.40306 0.394244 0)
(0.215735 0.390494 0)
(0.0275892 0.383271 0)
(-0.160918 0.376354 1.87305e-17)
(-0.347992 0.367799 1.86161e-17)
(-0.532354 0.355549 9.25108e-18)
(-0.71123 0.340808 0)
(-0.885158 0.32375 -1.82759e-17)
(-1.05015 0.30323 0)
(-1.2085 0.281386 1.80506e-17)
(-1.35856 0.258983 0)
(-1.50206 0.236207 0)
(-1.63745 0.215827 -1.77166e-17)
(-1.76568 0.196738 0)
(-1.88917 0.178832 -5.24864e-17)
(-2.00706 0.160121 1.73857e-17)
(-2.11836 0.141278 0)
(-2.22281 0.124525 1.71655e-17)
(-2.32112 0.106981 1.70553e-17)
(-2.41213 0.0875899 0)
(-2.49404 0.0689438 0)
(-2.56884 0.0544575 0)
(-2.63832 0.044877 0)
(-2.70437 0.0397794 0)
(-2.76645 0.038058 -1.63738e-17)
(-2.82646 0.0371895 -3.25153e-17)
(-2.88478 0.0369395 1.61415e-17)
(-2.9385 0.0340781 0)
(-2.98979 0.0299511 -3.18131e-17)
(-3.03884 0.0285276 1.57875e-17)
(-3.085 0.0294867 0)
(-3.13214 0.0304159 1.555e-17)
(-3.17707 0.0331357 0)
(-3.22002 0.0346076 0)
(-3.26138 0.0342158 3.03756e-17)
(-3.3018 0.0336389 -1.50675e-17)
(-3.33778 0.0316461 2.98921e-17)
(-3.37129 0.0289494 -2.96507e-17)
(-3.39885 0.025308 -1.47048e-17)
(-3.42327 0.0204945 0)
(-3.4413 0.0128879 -1.4463e-17)
(-3.45258 0.00263844 0)
(-3.45817 -0.00815415 0)
(-3.45529 -0.0207201 0)
(-3.44319 -0.0350075 -1.39831e-17)
(-3.4228 -0.0490438 0)
(-3.39588 -0.0591785 -2.74954e-17)
(-3.36318 -0.0662884 4.08947e-17)
(-3.32513 -0.0747806 1.35164e-17)
(-3.28077 -0.0857865 0)
(-3.22855 -0.0984248 1.3288e-17)
(-3.17108 -0.110987 0)
(-3.10804 -0.122916 2.61245e-17)
(-3.03988 -0.133805 0)
(-2.96679 -0.1442 2.56815e-17)
(-2.88867 -0.153503 -5.09232e-17)
(-2.80668 -0.162378 -2.52477e-17)
(-2.72236 -0.170375 0)
(-2.63297 -0.177997 0)
(-2.54139 -0.183712 0)
(-2.44752 -0.187926 2.44076e-17)
(-2.35036 -0.191991 0)
(-2.25197 -0.194638 -2.40013e-17)
(-2.15358 -0.194939 0)
(-2.05466 -0.196442 7.08227e-17)
(-1.9559 -0.195682 2.34174e-17)
(-1.85654 -0.196601 2.32315e-17)
(-1.7594 -0.193698 0)
(-1.66463 -0.193196 0)
(-1.56929 -0.194255 0)
(-1.47131 -0.195026 0)
(-1.37456 -0.197388 0)
(-1.27181 -0.201752 4.4323e-17)
(-1.17582 -0.199614 4.39867e-17)
(-1.07591 -0.199848 0)
(-0.988964 -0.194029 -2.16754e-17)
(-0.892352 -0.195401 -2.15235e-17)
(-0.805794 -0.188247 0)
(-0.711159 -0.187058 -4.24441e-17)
(-0.633693 -0.185834 0)
(-0.537914 -0.196273 2.09377e-17)
(-0.452741 -0.190246 0)
(-0.347669 -0.198534 0)
(-0.253635 -0.195242 -4.10577e-17)
(-0.141121 -0.203717 0)
(-0.0376139 -0.203678 2.02722e-17)
(0.0868549 -0.211142 0)
(0.212336 -0.218986 0)
(0.347914 -0.223499 1.9887e-17)
(0.488025 -0.2287 1.97708e-17)
(0.633559 -0.234705 0)
(0.782947 -0.235608 -1.95334e-17)
(0.942957 -0.23705 0)
(1.10241 -0.229233 1.92965e-17)
(1.26807 -0.219472 3.83627e-17)
(1.41594 -0.213154 0)
(1.57334 -0.21417 0)
(1.71836 -0.214114 0)
(1.87815 -0.215481 0)
(2.02458 -0.210404 3.72305e-17)
(2.17905 -0.207168 1.11007e-16)
(2.31476 -0.187807 0)
(2.43923 -0.183459 0)
(2.55757 -0.173067 0)
(2.66457 -0.175534 -3.60802e-17)
(2.76648 -0.179591 0)
(2.86972 -0.179261 0)
(2.96457 -0.177355 7.06165e-17)
(3.05956 -0.176451 3.50344e-17)
(3.13282 -0.170394 3.47651e-17)
(3.22074 -0.179681 0)
(3.28432 -0.173732 0)
(3.35296 -0.175106 3.3921e-17)
(3.39898 -0.164127 -3.36154e-17)
(3.44529 -0.178223 0)
(3.4746 -0.174895 0)
(3.50922 -0.191 -3.27229e-17)
(3.53734 -0.173221 9.71922e-17)
(3.55203 -0.168881 0)
(3.56286 -0.179941 0)
(3.57435 -0.191607 3.14614e-17)
(3.59535 -0.189638 0)
(3.59129 -0.183086 6.16291e-17)
(3.58989 -0.181351 -3.04733e-17)
(3.56288 -0.185614 0)
(3.55932 -0.194578 2.98471e-17)
(3.53517 -0.190901 5.90589e-17)
(3.52387 -0.192383 0)
(3.47728 -0.185673 0)
(3.45409 -0.194712 -2.85754e-17)
(3.4138 -0.186613 0)
(3.3569 -0.169229 5.58882e-17)
(3.25956 -0.14997 0)
(3.16787 -0.154988 0)
(3.04755 -0.146279 0)
(2.91858 -0.121297 0)
(2.72296 -0.102397 -2.66523e-17)
(2.56412 -0.0758004 -2.64631e-17)
(2.27955 -0.0261123 0)
(2.00593 -0.00111366 0)
(1.6755 0.0229926 0)
(1.38052 0.0188309 2.59578e-17)
(1.04679 0.0235224 0)
(0.839209 0.0143553 -5.1668e-17)
(0.517751 0.0334072 5.16415e-17)
(0.402649 0.00114307 5.1493e-17)
(0.121375 0.0321079 5.14841e-17)
(0.12138 -0.015823 5.13309e-17)
(-0.175386 0.0787407 5.14951e-17)
(0.0121733 -0.117625 0)
(0.0290624 0.0708026 0)
(0.121253 -0.0388529 0)
(0.22839 -0.242159 2.29129e-17)
(0.340646 -0.469123 2.26643e-17)
(0.475253 -0.693751 -2.25127e-17)
(0.619536 -0.875637 -2.23998e-17)
(0.773863 -1.00421 -1.48234e-21)
(0.925214 -1.07435 0)
(1.07033 -1.08501 0)
(1.1971 -1.04575 0)
(1.30585 -0.965889 0)
(1.39179 -0.856632 0)
(1.45737 -0.72614 6.47099e-17)
(1.49806 -0.585908 0)
(1.5167 -0.441065 -2.13043e-17)
(1.51148 -0.294626 -2.11681e-17)
(1.48531 -0.153238 0)
(1.43675 -0.0197815 0)
(1.37045 0.104036 0)
(1.28614 0.216475 0)
(1.18612 0.3158 -2.05021e-17)
(1.07121 0.39883 0)
(0.946408 0.471215 2.02482e-17)
(0.808991 0.536384 0)
(0.661836 0.591279 0)
(0.506301 0.636231 0)
(0.347821 0.672212 3.95245e-17)
(0.185361 0.69944 0)
(0.0214554 0.718879 -1.95221e-17)
(-0.143467 0.729293 3.87994e-17)
(-0.307668 0.732482 0)
(-0.474173 0.734242 0)
(-0.640868 0.731287 0)
(-0.806414 0.72181 -1.89163e-17)
(-0.968347 0.706588 -1.87955e-17)
(-1.1271 0.685106 0)
(-1.28108 0.657808 0)
(-1.4295 0.626292 3.68586e-17)
(-1.57094 0.592222 3.66189e-17)
(-1.71065 0.55785 -3.63807e-17)
(-1.8453 0.525107 0)
(-1.97811 0.491583 0)
(-2.10525 0.459437 0)
(-2.22869 0.43015 0)
(-2.34795 0.402575 3.52003e-17)
(-2.46125 0.37352 3.49666e-17)
(-2.56941 0.34408 -3.47346e-17)
(-2.67212 0.315777 0)
(-2.76875 0.287976 0)
(-2.86032 0.25934 0)
(-2.94642 0.232806 0)
(-3.03236 0.214808 3.35754e-17)
(-3.1123 0.198437 0)
(-3.18716 0.184814 0)
(-3.25541 0.176551 3.28779e-17)
(-3.31891 0.170917 3.26463e-17)
(-3.37697 0.16363 0)
(-3.42732 0.153909 -6.43597e-17)
(-3.47561 0.146731 3.19486e-17)
(-3.51986 0.140126 -3.17142e-17)
(-3.55828 0.136291 0)
(-3.59377 0.133594 0)
(-3.62319 0.129455 0)
(-3.6477 0.125327 0)
(-3.6697 0.120243 -3.05527e-17)
(-3.68745 0.113 -6.06463e-17)
(-3.699 0.105183 -3.00975e-17)
(-3.70685 0.0968503 2.98726e-17)
(-3.70749 0.0853211 0)
(-3.70305 0.0721063 -5.88396e-17)
(-3.69065 0.0560029 -5.83912e-17)
(-3.673 0.0397626 -5.79463e-17)
(-3.65114 0.02187 5.75045e-17)
(-3.62043 -0.00054562 0)
(-3.58279 -0.023369 8.49413e-17)
(-3.53924 -0.0429045 0)
(-3.49094 -0.0583279 -2.78775e-17)
(-3.43406 -0.0720597 -2.76645e-17)
(-3.36922 -0.0876365 0)
(-3.29814 -0.104367 0)
(-3.22356 -0.120969 -5.40407e-17)
(-3.14678 -0.135639 0)
(-3.06601 -0.149675 -5.31934e-17)
(-2.98271 -0.163147 0)
(-2.89483 -0.177366 5.23545e-17)
(-2.8035 -0.188617 1.03881e-16)
(-2.70852 -0.198283 0)
(-2.61279 -0.207484 0)
(-2.51401 -0.215047 0)
(-2.41655 -0.221393 5.02911e-17)
(-2.31725 -0.227309 0)
(-2.21466 -0.23208 4.94694e-17)
(-2.10918 -0.235392 0)
(-2.00324 -0.234561 0)
(-1.89485 -0.234576 -9.65058e-17)
(-1.78937 -0.232023 0)
(-1.68188 -0.231408 -4.74616e-17)
(-1.57877 -0.225263 0)
(-1.47129 -0.226064 -4.66937e-17)
(-1.36481 -0.225412 0)
(-1.25586 -0.22461 0)
(-1.14866 -0.228339 0)
(-1.03801 -0.2309 -1.35693e-16)
(-0.938191 -0.222194 -4.48691e-17)
(-0.82865 -0.21916 0)
(-0.736048 -0.208247 0)
(-0.634157 -0.210105 0)
(-0.5495 -0.197161 0)
(-0.445295 -0.193323 4.3235e-17)
(-0.360285 -0.187332 -8.5834e-17)
(-0.253879 -0.204394 -4.26319e-17)
(-0.167272 -0.196641 8.4656e-17)
(-0.0479169 -0.212563 8.40931e-17)
(0.053381 -0.208789 4.17608e-17)
(0.182902 -0.223672 0)
(0.295194 -0.224221 8.23962e-17)
(0.433592 -0.239848 0)
(0.565115 -0.249239 -8.12854e-17)
(0.713059 -0.25622 -4.03846e-17)
(0.858863 -0.261629 0)
(1.01366 -0.270426 7.97648e-17)
(1.16252 -0.273746 3.96292e-17)
(1.32471 -0.282185 0)
(1.48317 -0.280642 3.90903e-17)
(1.65761 -0.269888 -1.16508e-16)
(1.81673 -0.257658 0)
(1.98146 -0.256594 0)
(2.13326 -0.256073 0)
(2.29355 -0.259105 0)
(2.44958 -0.254359 -7.51556e-17)
(2.60571 -0.251314 -7.4657e-17)
(2.75622 -0.220012 0)
(2.89517 -0.214768 0)
(3.02464 -0.202142 0)
(3.14872 -0.201043 0)
(3.25354 -0.205544 0)
(3.37622 -0.209178 0)
(3.48792 -0.207794 -7.09546e-17)
(3.60351 -0.205371 -1.65062e-20)
(3.69586 -0.196018 0)
(3.80729 -0.209309 0)
(3.89478 -0.196854 -6.86096e-17)
(3.98871 -0.19759 0)
(4.06678 -0.176696 6.74287e-17)
(4.1373 -0.187648 6.68116e-17)
(4.17863 -0.170345 0)
(4.23355 -0.188806 0)
(4.27197 -0.164876 -6.49025e-17)
(4.32238 -0.156098 -1.28515e-16)
(4.35027 -0.16053 0)
(4.38334 -0.172625 0)
(4.42547 -0.163825 0)
(4.43876 -0.149383 -6.16938e-17)
(4.46806 -0.136374 6.10059e-17)
(4.46746 -0.13592 0)
(4.48767 -0.14202 1.19376e-16)
(4.47126 -0.129898 5.90332e-17)
(4.48861 -0.128316 -1.16773e-16)
(4.46602 -0.109933 0)
(4.46558 -0.117083 0)
(4.43491 -0.0956507 -1.12753e-16)
(4.39491 -0.067777 -5.57161e-17)
(4.31051 -0.0381591 0)
(4.24717 -0.0358032 0)
(4.11409 -0.0171314 0)
(4.00393 0.0255218 0)
(3.79104 0.0528455 -1.05584e-16)
(3.62242 0.0958628 0)
(3.32403 0.16749 0)
(3.06504 0.192507 0)
(2.71413 0.220105 0)
(2.39991 0.202932 0)
(2.01051 0.187394 0)
(1.77318 0.154219 -1.00631e-16)
(1.36713 0.151814 0)
(1.23766 0.0830932 0)
(0.853221 0.105486 -1.99413e-16)
(0.848402 0.0229125 9.92445e-17)
(0.462343 0.111305 -9.94011e-17)
(0.658384 -0.128997 9.87807e-17)
(0.0206121 -0.094563 0)
(0.125061 -0.270096 -4.69563e-17)
(0.247885 -0.490825 0)
(0.375907 -0.756432 -2.27968e-17)
(0.5026 -1.00006 0)
(0.618688 -1.18876 0)
(0.723187 -1.30606 2.24452e-17)
(0.80366 -1.34898 0)
(0.866346 -1.31892 0)
(0.905402 -1.23303 0)
(0.927333 -1.11026 0)
(0.929956 -0.961045 0)
(0.918152 -0.793944 -8.66135e-17)
(0.889293 -0.616848 -4.3024e-17)
(0.84687 -0.434159 4.27447e-17)
(0.790581 -0.253173 0)
(0.722475 -0.0805582 0)
(0.641173 0.0807744 0)
(0.550141 0.229433 0)
(0.448871 0.362742 0)
(0.340126 0.480297 -4.11502e-17)
(0.222102 0.582222 -4.08976e-17)
(0.0961002 0.673065 4.06485e-17)
(-0.0357057 0.749236 -4.04009e-17)
(-0.171675 0.81213 0)
(-0.310419 0.860334 0)
(-0.450694 0.896464 -3.96577e-17)
(-0.59135 0.921262 0)
(-0.732934 0.935489 0)
(-0.875083 0.944196 -3.89247e-17)
(-1.01783 0.949777 -3.86814e-17)
(-1.15844 0.947571 -3.8437e-17)
(-1.29597 0.938586 0)
(-1.4303 0.92337 0)
(-1.56008 0.901996 3.76934e-17)
(-1.68489 0.872425 0)
(-1.80581 0.836969 0)
(-1.92314 0.797541 -3.69485e-17)
(-2.03751 0.759582 3.66969e-17)
(-2.15034 0.721496 -3.64481e-17)
(-2.25673 0.682761 0)
(-2.36143 0.643379 0)
(-2.46208 0.607092 -7.14189e-17)
(-2.55993 0.572938 0)
(-2.65246 0.534963 -7.04533e-17)
(-2.74149 0.497036 -1.04963e-16)
(-2.82688 0.461508 1.04242e-16)
(-2.90699 0.425456 -6.90146e-17)
(-2.98397 0.388523 0)
(-3.05838 0.353167 0)
(-3.13201 0.324719 -6.76019e-17)
(-3.20286 0.299886 -3.35705e-17)
(-3.26744 0.273941 0)
(-3.32776 0.252424 0)
(-3.3835 0.236582 -3.28784e-17)
(-3.43376 0.219185 -6.5297e-17)
(-3.47777 0.199751 0)
(-3.51574 0.181359 6.43791e-17)
(-3.54982 0.166581 -6.392e-17)
(-3.57849 0.152758 6.34641e-17)
(-3.60135 0.138782 0)
(-3.61794 0.125466 0)
(-3.6301 0.114291 0)
(-3.63689 0.103171 0)
(-3.64004 0.0931621 0)
(-3.63778 0.0774804 6.07739e-17)
(-3.63119 0.060402 0)
(-3.61793 0.0417874 0)
(-3.59885 0.0207541 0)
(-3.57567 -0.00121171 1.18047e-16)
(-3.54698 -0.0252085 5.85913e-17)
(-3.51359 -0.0492633 5.81579e-17)
(-3.47524 -0.0763421 -1.15457e-16)
(-3.43054 -0.107876 5.73039e-17)
(-3.38244 -0.138068 -5.68846e-17)
(-3.32811 -0.165668 0)
(-3.26886 -0.191619 5.60374e-17)
(-3.19967 -0.218305 0)
(-3.12631 -0.243583 0)
(-3.04733 -0.265519 0)
(-2.96682 -0.286257 1.08719e-16)
(-2.88418 -0.305255 -5.3946e-17)
(-2.79819 -0.324147 -5.35324e-17)
(-2.71097 -0.342873 -1.0627e-16)
(-2.61973 -0.36261 -1.58214e-16)
(-2.52762 -0.378297 -5.23429e-17)
(-2.43075 -0.391084 0)
(-2.33435 -0.402528 -1.0307e-16)
(-2.2364 -0.41066 0)
(-2.13859 -0.417143 -1.52205e-16)
(-2.03998 -0.427217 0)
(-1.94256 -0.433716 -1.49833e-16)
(-1.83896 -0.440089 0)
(-1.73491 -0.440751 0)
(-1.62591 -0.442251 -4.8747e-17)
(-1.51856 -0.438868 0)
(-1.40774 -0.438364 4.79721e-17)
(-1.30188 -0.433591 9.51559e-17)
(-1.18806 -0.435372 4.72033e-17)
(-1.07844 -0.437316 9.3649e-17)
(-0.960033 -0.437976 -9.2892e-17)