/*--------------------------------*- C++ -*----------------------------------*\
| =========                 |                                                 |
| \\      /  F ield         | OpenFOAM: The Open Source CFD Toolbox           |
|  \\    /   O peration     | Version:  dev                                   |
|   \\  /    A nd           | Web:      http://www.openfoam.org               |
|    \\/     M anipulation  |                                                 |
\*---------------------------------------------------------------------------*/
FoamFile
{
    version     2.0;
    format      ascii;
    class       volSymmTensorField;
    object      UPrime2Mean;
    location    "9.121";
}
// * * * * * * * * * * * * * * * * * * * * * * * * * * * * * * * * * * * * * //

dimensions      [0 2 -2 0 0 0 0];

internalField   nonuniform List<symmTensor> 
12225
(
(0.329225 0.01928 0 0.0692969 0 0)
(2.98561 0.0797195 0 0.0782226 0 0)
(7.87863 0.112362 0 0.0769248 0 0)
(14.5307 0.148288 0 0.0755987 0 0)
(22.697 0.133115 0 0.0765438 0 0)
(32.058 0.201184 0 0.0746968 0 0)
(42.3671 0.0961629 0 0.0766371 0 0)
(53.5065 0.200584 0 0.0738742 0 0)
(65.5962 -0.0281036 0 0.0776325 0 0)
(78.1876 0.125994 0 0.07364 0 0)
(92.9292 -0.305726 0 0.0813284 0 0)
(107.265 -0.1152 0 0.0770074 0 0)
(127.866 -0.671573 0 0.0863214 0 0)
(145.569 -1.27649 0 0.134714 0 0)
(185.865 -1.40874 0 0.116402 0 0)
(198.451 -0.393111 0 2.39195 0 0)
(272.211 -33.5243 0 5.80712 0 0)
(575.626 -52.8918 0 18.8081 0 0)
(0.377365 0.0568403 0 0.689287 0 0)
(3.15538 0.252309 0 0.732597 0 0)
(8.40881 0.362245 0 0.714443 0 0)
(15.4689 0.48556 0 0.706932 0 0)
(24.1904 0.453357 0 0.70379 0 0)
(34.4447 0.633107 0 0.683611 0 0)
(45.5091 0.296725 0 0.692401 0 0)
(58.4569 0.60969 0 0.659064 0 0)
(71.4443 -0.134043 0 0.682896 0 0)
(87.1078 0.283926 0 0.64623 0 0)
(102.738 -1.0632 0 0.711473 0 0)
(121.367 -0.763831 0 0.655679 0 0)
(142.783 -2.54038 0 1.06875 0 0)
(166.246 -4.48843 0 1.04679 0 0)
(199.671 -0.927357 0 3.09921 0 0)
(274.267 -9.97609 0 6.60038 0 0)
(280.936 -20.8208 0 8.73775 0 0)
(799.513 -185.096 0 64.6817 0 0)
(0.505032 0.0584212 0 2.14158 0 0)
(3.06348 0.424778 0 2.20352 0 0)
(8.46409 0.570718 0 2.15241 0 0)
(14.8483 0.852275 0 2.14389 0 0)
(24.2689 0.865157 0 2.12077 0 0)
(33.139 1.05374 0 2.08355 0 0)
(45.2565 0.757479 0 2.07928 0 0)
(56.1796 0.887617 0 2.00848 0 0)
(69.661 0.174283 0 2.05255 0 0)
(83.4108 0.01935 0 1.96019 0 0)
(98.1471 -1.12001 0 2.12328 0 0)
(115.608 -2.44354 0 2.09506 0 0)
(138.56 -3.5916 0 2.62252 0 0)
(154.807 -7.19284 0 2.83095 0 0)
(210.909 -12.9987 0 6.11632 0 0)
(223.293 -7.89091 0 6.37061 0 0)
(352.856 -62.2227 0 31.0689 0 0)
(534.263 -192.353 0 98.1576 0 0)
(1.03015 0.0924604 0 4.67263 0 0)
(3.54954 0.619778 0 4.76925 0 0)
(9.06776 0.81616 0 4.64497 0 0)
(15.0629 1.15061 0 4.60424 0 0)
(24.6301 1.31386 0 4.55988 0 0)
(32.9737 1.35105 0 4.48556 0 0)
(44.991 1.26324 0 4.45047 0 0)
(55.1482 0.975461 0 4.35193 0 0)
(68.5756 0.478895 0 4.38353 0 0)
(80.682 -0.279387 0 4.25982 0 0)
(95.9984 -1.3262 0 4.50883 0 0)
(110.469 -3.33623 0 4.37386 0 0)
(131.422 -4.78768 0 5.30232 0 0)
(152.181 -10.9605 0 5.60752 0 0)
(187.791 -11.4239 0 9.2826 0 0)
(238.279 -28.8406 0 16.8172 0 0)
(291.298 -58.8685 0 32.6638 0 0)
(414.641 -178.2 0 107.769 0 0)
(1.86428 0.365181 0 8.52671 0 0)
(5.00944 0.720473 0 8.72828 0 0)
(9.4343 1.1406 0 8.47698 0 0)
(16.2384 1.29535 0 8.37388 0 0)
(24.6403 1.70204 0 8.28413 0 0)
(33.9365 1.50384 0 8.14909 0 0)
(44.8031 1.60012 0 8.04821 0 0)
(55.5031 0.995378 0 7.91611 0 0)
(68.3873 0.604242 0 7.86284 0 0)
(80.0906 -0.589721 0 7.76485 0 0)
(95.3315 -1.77304 0 7.96599 0 0)
(108.513 -4.22066 0 7.91308 0 0)
(128.044 -6.87045 0 9.02813 0 0)
(145.161 -12.2784 0 9.27008 0 0)
(173.886 -19.1849 0 14.5848 0 0)
(217.811 -25.937 0 17.2121 0 0)
(233.508 -55.5314 0 46.2633 0 0)
(326.546 -171.637 0 138.578 0 0)
(2.56122 0.75081 0 14.0464 0 0)
(6.32382 0.807011 0 14.3984 0 0)
(9.29504 1.54064 0 13.9684 0 0)
(17.0925 1.5952 0 13.7736 0 0)
(24.1295 2.12201 0 13.5987 0 0)
(34.2556 1.93827 0 13.3666 0 0)
(43.9567 1.99369 0 13.1611 0 0)
(55.1515 1.41858 0 12.9201 0 0)
(67.2985 0.899001 0 12.7828 0 0)
(78.8782 -0.380562 0 12.5816 0 0)
(94.3831 -1.73146 0 12.7809 0 0)
(105.785 -4.30394 0 12.6891 0 0)
(128.055 -7.25724 0 13.9894 0 0)
(137.877 -13.1434 0 14.6678 0 0)
(170.887 -21.8213 0 21.2441 0 0)
(191.41 -33.0144 0 24.5978 0 0)
(210.966 -55.8621 0 51.5699 0 0)
(265.565 -145.593 0 130.592 0 0)
(2.24225 0.721917 0 21.5424 0 0)
(5.54042 0.940432 0 22.1585 0 0)
(9.19552 1.76441 0 21.3841 0 0)
(16.3346 2.07812 0 21.1962 0 0)
(23.9652 2.45148 0 20.7974 0 0)
(33.3528 2.54447 0 20.5642 0 0)
(43.5972 2.27728 0 20.0953 0 0)
(54.0297 1.93138 0 19.8652 0 0)
(66.4608 0.902189 0 19.4465 0 0)
(77.3313 -0.213064 0 19.2937 0 0)
(92.4794 -2.36398 0 19.2325 0 0)
(103.456 -4.81498 0 19.2752 0 0)
(123.586 -8.96942 0 20.4823 0 0)
(133.867 -14.2477 0 21.46 0 0)
(161.459 -24.3828 0 28.5165 0 0)
(169.294 -32.385 0 32.0541 0 0)
(203.31 -58.9659 0 56.8604 0 0)
(190.159 -108.717 0 114.119 0 0)
(1.42099 0.598796 0 29.7682 0 0)
(4.3168 1.13411 0 30.6539 0 0)
(8.57731 1.92464 0 29.5062 0 0)
(15.245 2.4735 0 29.335 0 0)
(23.1969 2.77891 0 28.6894 0 0)
(32.2537 2.96521 0 28.4284 0 0)
(42.4031 2.60115 0 27.676 0 0)
(52.7691 2.19455 0 27.3954 0 0)
(64.402 1.01206 0 26.6707 0 0)
(75.5848 -0.357689 0 26.5054 0 0)
(88.6075 -2.7448 0 26.1206 0 0)
(100.391 -5.72638 0 26.3447 0 0)
(115.489 -10.31 0 27.0983 0 0)
(128.025 -15.7855 0 28.6119 0 0)
(144.58 -26.4711 0 33.92 0 0)
(151.955 -33.4347 0 37.4837 0 0)
(180.257 -54.8543 0 53.1796 0 0)
(139.509 -71.2532 0 83.6787 0 0)
(1.00184 0.521184 0 38.5433 0 0)
(3.77096 1.28717 0 39.7382 0 0)
(8.17151 2.03621 0 38.2001 0 0)
(14.7195 2.78038 0 38.059 0 0)
(22.6379 3.00702 0 37.1486 0 0)
(31.5732 3.31754 0 36.8736 0 0)
(41.4839 2.80769 0 35.8217 0 0)
(51.7542 2.47644 0 35.5032 0 0)
(62.8005 1.04299 0 34.4933 0 0)
(73.8143 -0.276135 0 34.2933 0 0)
(85.6195 -3.03893 0 33.6608 0 0)
(96.9781 -5.89536 0 33.9202 0 0)
(109.288 -10.9372 0 34.4262 0 0)
(121.165 -16.0252 0 36.1448 0 0)
(131.153 -25.543 0 40.0212 0 0)
(138.081 -33.1818 0 44.7518 0 0)
(149.908 -47.2809 0 52.4653 0 0)
(123.144 -58.6992 0 73.1166 0 0)
(0.607064 0.484514 0 49.7349 0 0)
(3.22935 1.44594 0 51.3239 0 0)
(7.73528 2.18709 0 49.2262 0 0)
(14.1904 3.03696 0 49.139 0 0)
(21.9805 3.27494 0 47.8491 0 0)
(30.8355 3.5814 0 47.5699 0 0)
(40.454 3.06757 0 46.1077 0 0)
(50.5847 2.64001 0 45.739 0 0)
(61.1011 1.16577 0 44.3184 0 0)
(71.7648 -0.288139 0 44.0744 0 0)
(82.6379 -3.13579 0 43.0286 0 0)
(93.1765 -6.03059 0 43.3466 0 0)
(103.806 -11.0826 0 43.3441 0 0)
(113.668 -15.8311 0 45.1995 0 0)
(121.267 -24.486 0 47.6976 0 0)
(125.706 -30.5444 0 51.9667 0 0)
(129.033 -40.6825 0 56.4803 0 0)
(115.958 -48.3495 0 69.0381 0 0)
(0.432556 0.51631 0 63.9355 0 0)
(2.97643 1.62804 0 65.9918 0 0)
(7.46607 2.38436 0 63.2986 0 0)
(13.8388 3.31182 0 63.1872 0 0)
(21.4814 3.57143 0 61.5524 0 0)
(30.1747 3.86148 0 61.1381 0 0)
(39.5277 3.35872 0 59.329 0 0)
(49.3604 2.82145 0 58.7341 0 0)
(59.4229 1.37279 0 57.0118 0 0)
(69.52 -0.263337 0 56.4937 0 0)
(79.6073 -2.97677 0 55.189 0 0)
(89.1367 -6.07485 0 55.2439 0 0)
(98.4455 -10.5441 0 54.8949 0 0)
(106.318 -15.4036 0 56.4411 0 0)
(112.476 -22.1136 0 57.8802 0 0)
(115.01 -28.0252 0 61.6083 0 0)
(115.953 -35.1652 0 64.5687 0 0)
(109.511 -40.7593 0 71.4623 0 0)
(0.355902 0.540807 0 81.4364 0 0)
(2.83003 1.74562 0 84.1234 0 0)
(7.25836 2.55584 0 80.654 0 0)
(13.5095 3.50277 0 80.5451 0 0)
(20.9783 3.81058 0 78.4577 0 0)
(29.4515 4.03859 0 77.9047 0 0)
(38.5026 3.56268 0 75.6143 0 0)
(47.9655 2.92171 0 74.7893 0 0)
(57.5115 1.48398 0 72.5958 0 0)
(66.9973 -0.21916 0 71.8079 0 0)
(76.2025 -2.86732 0 70.0506 0 0)
(84.782 -5.85056 0 69.79 0 0)
(92.681 -9.95216 0 68.9519 0 0)
(99.1056 -14.2778 0 69.9035 0 0)
(103.815 -19.7202 0 70.5424 0 0)
(105.758 -24.6301 0 73.0442 0 0)
(105.913 -29.7911 0 74.9829 0 0)
(101.672 -33.2727 0 78.6342 0 0)
(0.329137 0.569255 0 102.524 0 0)
(2.7349 1.80734 0 105.736 0 0)
(7.06544 2.68385 0 101.708 0 0)
(13.1484 3.58442 0 101.239 0 0)
(20.422 3.93469 0 98.9733 0 0)
(28.6003 4.05611 0 97.8938 0 0)
(37.3269 3.61686 0 95.3778 0 0)
(46.3202 2.83577 0 93.9279 0 0)
(55.3413 1.47703 0 91.4898 0 0)
(64.1149 -0.338477 0 90.0378 0 0)
(72.4866 -2.75463 0 88.0089 0 0)
(80.0702 -5.68351 0 87.0331 0 0)
(86.7854 -9.19112 0 85.8186 0 0)
(92.042 -13.0774 0 85.8235 0 0)
(95.7401 -17.2922 0 85.7704 0 0)
(97.3238 -21.356 0 86.9091 0 0)
(97.426 -25.1976 0 87.9333 0 0)
(94.6244 -27.6504 0 89.5342 0 0)
(0.313559 0.573513 0 126.529 0 0)
(2.63963 1.77457 0 130.461 0 0)
(6.84467 2.66825 0 125.749 0 0)
(12.7243 3.46415 0 124.939 0 0)
(19.7558 3.79244 0 122.407 0 0)
(27.6004 3.80704 0 120.83 0 0)
(35.9354 3.33435 0 117.946 0 0)
(44.4381 2.48844 0 115.912 0 0)
(52.8679 1.13491 0 113.05 0 0)
(60.9547 -0.626863 0 110.957 0 0)
(68.4972 -2.89303 0 108.464 0 0)
(75.2149 -5.52297 0 106.736 0 0)
(80.9477 -8.57591 0 104.965 0 0)
(85.3931 -11.7971 0 103.958 0 0)
(88.4358 -15.1574 0 103.124 0 0)
(89.8722 -18.3227 0 102.946 0 0)
(90.1744 -21.2396 0 102.956 0 0)
(88.2131 -22.8846 0 103.105 0 0)
(0.299172 0.525062 0 151.957 0 0)
(2.5317 1.58221 0 156.462 0 0)
(6.58056 2.3781 0 151.33 0 0)
(12.2266 2.98865 0 149.891 0 0)
(18.963 3.21272 0 147.331 0 0)
(26.4364 3.07142 0 145.018 0 0)
(34.3308 2.53192 0 141.927 0 0)
(42.3138 1.60095 0 139.12 0 0)
(50.1442 0.272935 0 135.919 0 0)
(57.5573 -1.43039 0 133.04 0 0)
(64.3645 -3.49046 0 130.086 0 0)
(70.3383 -5.82624 0 127.511 0 0)
(75.3481 -8.40117 0 125.106 0 0)
(79.2316 -11.0513 0 123.101 0 0)
(81.9276 -13.6874 0 121.384 0 0)
(83.3442 -16.1503 0 120.042 0 0)
(83.9265 -18.3473 0 118.95 0 0)
(82.7204 -19.3919 0 117.836 0 0)
(0.283865 0.394307 0 175.19 0 0)
(2.41327 1.1458 0 180.394 0 0)
(6.28039 1.67088 0 174.783 0 0)
(11.665 2.00345 0 172.9 0 0)
(18.0679 2.00112 0 170.218 0 0)
(25.143 1.66495 0 167.365 0 0)
(32.5698 0.985174 0 163.978 0 0)
(40.0329 -0.0227654 0 160.58 0 0)
(47.2852 -1.35592 0 156.96 0 0)
(54.0936 -2.96646 0 153.444 0 0)
(60.2803 -4.83329 0 149.955 0 0)
(65.6813 -6.86252 0 146.661 0 0)
(70.1916 -9.01514 0 143.561 0 0)
(73.7384 -11.1614 0 140.704 0 0)
(76.2922 -13.2238 0 138.11 0 0)
(77.8171 -15.122 0 135.782 0 0)
(78.6987 -16.7683 0 133.668 0 0)
(78.1507 -17.3648 0 131.466 0 0)
(0.268652 0.156401 0 190.308 0 0)
(2.29242 0.391033 0 195.985 0 0)
(5.96393 0.488983 0 190.088 0 0)
(11.0696 0.4106 0 187.945 0 0)
(17.1224 0.0742812 0 185.198 0 0)
(23.7901 -0.533649 0 182.026 0 0)
(30.7554 -1.40221 0 178.446 0 0)
(37.7232 -2.52371 0 174.691 0 0)
(44.4575 -3.87248 0 170.778 0 0)
(50.7524 -5.41144 0 166.857 0 0)
(56.4548 -7.09715 0 162.963 0 0)
(61.4434 -8.86449 0 159.181 0 0)
(65.6427 -10.6591 0 155.543 0 0)
(69.0236 -12.4029 0 152.079 0 0)
(71.5787 -14.0202 0 148.81 0 0)
(73.2969 -15.4893 0 145.764 0 0)
(74.4913 -16.7246 0 142.869 0 0)
(74.536 -17.0446 0 139.872 0 0)
(0.258994 -0.142638 0 190.28 0 0)
(2.19491 -0.534743 0 195.916 0 0)
(5.68737 -0.938395 0 190.082 0 0)
(10.537 -1.49372 0 187.93 0 0)
(16.2744 -2.21414 0 185.226 0 0)
(22.5821 -3.11638 0 182.061 0 0)
(29.1522 -4.18958 0 178.506 0 0)
(35.7122 -5.42802 0 174.754 0 0)
(42.0396 -6.80122 0 170.828 0 0)
(47.9569 -8.28061 0 166.874 0 0)
(53.328 -9.81942 0 162.898 0 0)
(58.0648 -11.3752 0 159.01 0 0)
(62.1062 -12.895 0 155.196 0 0)
(65.446 -14.3356 0 151.531 0 0)
(68.0832 -15.6317 0 147.987 0 0)
(70.023 -16.7906 0 144.647 0 0)
(71.4989 -17.7367 0 141.397 0 0)
(72.0328 -17.9406 0 138.065 0 0)
(0.255837 -0.396527 0 174.456 0 0)
(2.13576 -1.30704 0 179.411 0 0)
(5.49674 -2.12884 0 174.079 0 0)
(10.1566 -3.07753 0 172.086 0 0)
(15.6607 -4.10606 0 169.604 0 0)
(21.7044 -5.23519 0 166.714 0 0)
(27.9908 -6.45782 0 163.462 0 0)
(34.2655 -7.77087 0 160.037 0 0)
(40.3184 -9.14588 0 156.431 0 0)
(45.9933 -10.563 0 152.801 0 0)
(51.1648 -11.9803 0 149.116 0 0)
(55.7648 -13.3713 0 145.508 0 0)
(59.74 -14.691 0 141.924 0 0)
(63.0946 -15.9164 0 138.47 0 0)
(65.8264 -16.996 0 135.085 0 0)
(67.9529 -17.9449 0 131.882 0 0)
(69.6433 -18.702 0 128.726 0 0)
(70.5402 -18.889 0 125.525 0 0)
(0.257298 -0.545694 0 149.009 0 0)
(2.10801 -1.74823 0 152.97 0 0)
(5.38241 -2.824 0 148.432 0 0)
(9.91473 -4.00762 0 146.714 0 0)
(15.2623 -5.21139 0 144.593 0 0)
(21.1293 -6.46033 0 142.139 0 0)
(27.2281 -7.74644 0 139.374 0 0)
(33.3169 -9.07157 0 136.468 0 0)
(39.196 -10.4084 0 133.396 0 0)
(44.7219 -11.7469 0 130.303 0 0)
(49.7793 -13.049 0 127.146 0 0)
(54.3089 -14.3014 0 124.05 0 0)
(58.2648 -15.4648 0 120.955 0 0)
(61.6522 -16.5304 0 117.965 0 0)
(64.4705 -17.4544 0 115.015 0 0)
(66.7418 -18.2559 0 112.217 0 0)
(68.5911 -18.8845 0 109.443 0 0)
(69.7509 -19.0935 0 106.651 0 0)
(0.26017 -0.601463 0 120.094 0 0)
(2.09911 -1.89032 0 123.066 0 0)
(5.31643 -3.0685 0 119.416 0 0)
(9.76345 -4.34166 0 118.022 0 0)
(15.0062 -5.59998 0 116.316 0 0)
(20.7557 -6.86961 0 114.351 0 0)
(26.7308 -8.14026 0 112.138 0 0)
(32.6991 -9.41732 0 109.811 0 0)
(38.468 -10.6754 0 107.346 0 0)
(43.9023 -11.9115 0 104.862 0 0)
(48.8946 -13.0917 0 102.319 0 0)
(53.3904 -14.2116 0 99.82 0 0)
(57.3485 -15.2367 0 97.3145 0 0)
(60.7735 -16.1671 0 94.8884 0 0)
(63.6659 -16.9657 0 92.4894 0 0)
(66.0504 -17.6521 0 90.2052 0 0)
(68.0218 -18.1854 0 87.9396 0 0)
(69.3802 -18.4206 0 85.6637 0 0)
(0.263102 -0.59065 0 91.9318 0 0)
(2.09876 -1.83043 0 94.0483 0 0)
(5.2787 -2.99726 0 91.2562 0 0)
(9.66891 -4.24777 0 90.1825 0 0)
(14.8412 -5.46807 0 88.883 0 0)
(20.5122 -6.68057 0 87.388 0 0)
(26.4057 -7.87483 0 85.707 0 0)
(32.2952 -9.05587 0 83.9348 0 0)
(37.994 -10.203 0 82.0586 0 0)
(43.3722 -11.3149 0 80.1611 0 0)
(48.3281 -12.3647 0 78.2198 0 0)
(52.8095 -13.3507 0 76.3047 0 0)
(56.7788 -14.2455 0 74.3861 0 0)
(60.2392 -15.0517 0 72.5222 0 0)
(63.1925 -15.741 0 70.6803 0 0)
(65.6656 -16.3286 0 68.9198 0 0)
(67.7313 -16.7852 0 67.1765 0 0)
(69.2426 -17.0344 0 65.4229 0 0)
(0.266205 -0.536811 0 66.9668 0 0)
(2.10263 -1.65113 0 68.408 0 0)
(5.25746 -2.73104 0 66.3754 0 0)
(9.60997 -3.88398 0 65.5924 0 0)
(14.735 -5.00355 0 64.6541 0 0)
(20.3537 -6.10565 0 63.5721 0 0)
(26.1938 -7.18224 0 62.3576 0 0)
(32.0322 -8.23523 0 61.0717 0 0)
(37.6872 -9.2498 0 59.7125 0 0)
(43.0319 -10.2235 0 58.3323 0 0)
(47.9687 -11.1371 0 56.923 0 0)
(52.4471 -11.9883 0 55.528 0 0)
(56.4314 -12.7574 0 54.1336 0 0)
(59.9239 -13.4464 0 52.7745 0 0)
(62.9272 -14.0356 0 51.434 0 0)
(65.4693 -14.5343 0 50.1478 0 0)
(67.6075 -14.9241 0 48.8777 0 0)
(69.2366 -15.1717 0 47.5962 0 0)
(0.268012 -0.462908 0 46.3127 0 0)
(2.10703 -1.41607 0 47.2519 0 0)
(5.24562 -2.36399 0 45.8506 0 0)
(9.5732 -3.37539 0 45.3125 0 0)
(14.6667 -4.35649 0 44.6712 0 0)
(20.2508 -5.31671 0 43.9273 0 0)
(26.0563 -6.25103 0 43.0931 0 0)
(31.8625 -7.15776 0 42.2056 0 0)
(37.4907 -8.02795 0 41.2699 0 0)
(42.8161 -8.85695 0 40.3165 0 0)
(47.7438 -9.63249 0 39.3463 0 0)
(52.2241 -10.3506 0 38.3834 0 0)
(56.223 -10.9989 0 37.4236 0 0)
(59.7415 -11.5769 0 36.4853 0 0)
(62.7828 -12.0723 0 35.5618 0 0)
(65.3757 -12.4889 0 34.6725 0 0)
(67.5659 -12.8168 0 33.7973 0 0)
(69.2809 -13.0471 0 32.9109 0 0)
(0.269206 -0.383102 0 30.1731 0 0)
(2.11062 -1.16476 0 30.7577 0 0)
(5.23893 -1.95846 0 29.8471 0 0)
(9.5498 -2.80751 0 29.4999 0 0)
(14.622 -3.63121 0 29.0877 0 0)
(20.1829 -4.43573 0 28.6071 0 0)
(25.9654 -5.21733 0 28.0678 0 0)
(31.7495 -5.97299 0 27.492 0 0)
(37.3589 -6.69619 0 26.8859 0 0)
(42.6697 -7.38219 0 26.2673 0 0)
(47.5892 -8.02246 0 25.6392 0 0)
(52.0669 -8.61285 0 25.0146 0 0)
(56.0711 -9.1454 0 24.3934 0 0)
(59.6018 -9.61823 0 23.7846 0 0)
(62.6627 -10.0238 0 23.1863 0 0)
(65.2815 -10.3624 0 22.6085 0 0)
(67.4986 -10.6296 0 22.0413 0 0)
(69.2666 -10.8271 0 21.4655 0 0)
(0.269523 -0.304625 0 18.2208 0 0)
(2.11239 -0.919848 0 18.5651 0 0)
(5.23357 -1.55422 0 18.0142 0 0)
(9.53041 -2.2372 0 17.8082 0 0)
(14.5836 -2.90139 0 17.5651 0 0)
(20.1225 -3.55141 0 17.2805 0 0)
(25.8805 -4.1825 0 16.9603 0 0)
(31.6391 -4.79135 0 16.6173 0 0)
(37.2229 -5.37141 0 16.2554 0 0)
(42.5085 -5.9192 0 15.8853 0 0)
(47.4054 -6.42747 0 15.5086 0 0)
(51.8622 -6.89385 0 15.1334 0 0)
(55.8507 -7.31153 0 14.7598 0 0)
(59.3686 -7.68022 0 14.393 0 0)
(62.4244 -7.99412 0 14.0324 0 0)
(65.0404 -8.25382 0 13.6833 0 0)
(67.2607 -8.45849 0 13.3412 0 0)
(69.0562 -8.60885 0 12.9943 0 0)
(0.269152 -0.228289 0 9.88703 0 0)
(2.11013 -0.691289 0 10.0707 0 0)
(5.21636 -1.17872 0 9.77333 0 0)
(9.48697 -1.7085 0 9.67095 0 0)
(14.51 -2.22295 0 9.54654 0 0)
(20.0155 -2.7234 0 9.39734 0 0)
(25.7367 -3.2055 0 9.22664 0 0)
(31.4573 -3.66678 0 9.0424 0 0)
(37.002 -4.10148 0 8.84662 0 0)
(42.2506 -4.50806 0 8.64559 0 0)
(47.1116 -4.88092 0 8.4399 0 0)
(51.5383 -5.22022 0 8.23472 0 0)
(55.5015 -5.52016 0 8.0295 0 0)
(59.0032 -5.78297 0 7.8282 0 0)
(62.0508 -6.00253 0 7.62986 0 0)
(64.666 -6.18239 0 7.4385 0 0)
(66.89 -6.3255 0 7.25167 0 0)
(68.719 -6.42754 0 7.0634 0 0)
(0.268035 -0.154804 0 4.48823 0 0)
(2.08329 -0.497866 0 4.58388 0 0)
(5.15511 -0.852377 0 4.45864 0 0)
(9.38623 -1.22879 0 4.42301 0 0)
(14.3837 -1.58586 0 4.37194 0 0)
(19.8637 -1.92819 0 4.30752 0 0)
(25.5584 -2.25315 0 4.23019 0 0)
(31.2532 -2.55847 0 4.1437 0 0)
(36.7749 -2.84259 0 4.05065 0 0)
(42.0028 -3.10666 0 3.95481 0 0)
(46.8471 -3.34779 0 3.85698 0 0)
(51.2645 -3.56685 0 3.75986 0 0)
(55.222 -3.76007 0 3.66295 0 0)
(58.7296 -3.92952 0 3.56894 0 0)
(61.7837 -4.06911 0 3.47625 0 0)
(64.4177 -4.18415 0 3.38875 0 0)
(66.6389 -4.27463 0 3.30348 0 0)
(68.496 -4.34466 0 3.21925 0 0)
(0.25513 -0.0881895 0 1.4217 0 0)
(2.06731 -0.313438 0 1.48744 0 0)
(5.20353 -0.525986 0 1.44737 0 0)
(9.49309 -0.734369 0 1.43423 0 0)
(14.5439 -0.924471 0 1.41411 0 0)
(20.0752 -1.10708 0 1.39084 0 0)
(25.826 -1.28369 0 1.3642 0 0)
(31.5798 -1.45177 0 1.33486 0 0)
(37.163 -1.60968 0 1.30387 0 0)
(42.4497 -1.75723 0 1.27225 0 0)
(47.3534 -1.89293 0 1.24043 0 0)
(51.8231 -2.01678 0 1.20901 0 0)
(55.8303 -2.12677 0 1.17796 0 0)
(59.3775 -2.22356 0 1.14798 0 0)
(62.4649 -2.30306 0 1.1187 0 0)
(65.1302 -2.36927 0 1.09221 0 0)
(67.3511 -2.42187 0 1.06699 0 0)
(69.2001 -2.46135 0 1.04003 0 0)
(0.245817 -0.0253312 0 0.141913 0 0)
(2.06513 -0.0978167 0 0.1537 0 0)
(5.18243 -0.165552 0 0.150914 0 0)
(9.44116 -0.230793 0 0.149745 0 0)
(14.4733 -0.293683 0 0.147443 0 0)
(19.9919 -0.354001 0 0.144714 0 0)
(25.7362 -0.412807 0 0.141715 0 0)
(31.4876 -0.469287 0 0.138584 0 0)
(37.0778 -0.522619 0 0.135361 0 0)
(42.3826 -0.572612 0 0.132108 0 0)
(47.3167 -0.618958 0 0.12885 0 0)
(51.8272 -0.661629 0 0.125647 0 0)
(55.8878 -0.700058 0 0.122504 0 0)
(59.4937 -0.734099 0 0.119478 0 0)
(62.6512 -0.76302 0 0.116652 0 0)
(65.3933 -0.788264 0 0.114314 0 0)
(67.7043 -0.806476 0 0.112238 0 0)
(69.631 -0.81579 0 0.111852 0 0)
(0.0244893 0.0357615 0 0.717981 0 0)
(0.267369 0.0991067 0 0.678998 0 0)
(0.78579 0.180939 0 0.671819 0 0)
(1.53947 0.295093 0 0.662563 0 0)
(2.48657 0.424224 0 0.660954 0 0)
(3.60891 0.569151 0 0.657688 0 0)
(4.88458 0.716277 -2.38594e-19 0.655741 -6.49552e-20 1.48005e-37)
(6.31083 0.867232 2.42482e-19 0.651447 6.92729e-20 1.48462e-37)
(7.88095 1.01422 0 0.645439 0 0)
(9.59295 1.16167 2.44674e-19 0.637865 6.86893e-20 1.46238e-37)
(11.4416 1.30575 0 0.629279 0 0)
(13.421 1.44866 0 0.62018 0 0)
(15.5243 1.58581 0 0.612219 0 0)
(17.7455 1.71751 -2.76922e-19 0.605751 -5.17583e-20 1.34857e-37)
(20.0782 1.84063 0 0.599534 0 0)
(22.523 1.95419 0 0.594293 0 0)
(25.08 2.05405 3.40034e-19 0.589977 3.90505e-20 1.22181e-37)
(27.7477 2.14185 0 0.585511 0 0)
(30.5211 2.22034 0 0.58084 0 0)
(33.3943 2.29181 0 0.576383 0 0)
(36.3514 2.35519 -4.55959e-19 0.573043 -1.96039e-20 1.01846e-37)
(39.3829 2.41111 0 0.569301 0 0)
(42.4749 2.45761 -5.15745e-19 0.567037 -1.0308e-20 9.25874e-38)
(45.6184 2.49465 0 0.56821 0 0)
(48.797 2.52844 0 0.56892 0 0)
(51.9968 2.55165 -6.03911e-19 0.57106 1.17881e-21 7.98232e-38)
(55.2106 2.55401 0 0.572915 0 0)
(58.4427 2.5367 6.57552e-19 0.571449 -6.90663e-21 7.22105e-38)
(61.6872 2.5057 0 0.563646 0 0)
(64.95 2.46285 -7.02327e-19 0.553285 1.04854e-20 6.54433e-38)
(68.2299 2.41077 0 0.539752 0 0)
(71.5144 2.35195 0 0.523931 0 0)
(74.796 2.2863 0 0.509874 0 0)
(78.0762 2.21008 0 0.498473 0 0)
(81.3488 2.1227 0 0.486897 0 0)
(84.6106 2.02713 7.79558e-19 0.475968 -1.40242e-20 4.60291e-38)
(87.8599 1.92325 0 0.464339 0 0)
(91.0978 1.81093 -1.56234e-18 0.4483 2.71998e-20 1.6149e-37)
(94.3226 1.69167 0 0.432699 0 0)
(97.5295 1.56426 1.55237e-18 0.418039 -2.6214e-20 1.40071e-37)
(100.711 1.43124 0 0.402874 0 0)
(103.868 1.28901 0 0.391216 0 0)
(106.99 1.1385 -1.51433e-18 0.378661 2.1592e-20 1.11361e-37)
(110.06 0.985729 0 0.365851 0 0)
(113.063 0.830957 -1.47577e-18 0.355052 1.8282e-20 9.44094e-38)
(115.983 0.673076 1.45331e-18 0.346197 -1.65422e-20 8.67128e-38)
(118.806 0.509401 0 0.340076 0 0)
(121.523 0.339532 1.40244e-18 0.335289 -1.2508e-20 7.34982e-38)
(124.118 0.164193 1.37419e-18 0.331374 -1.06378e-20 6.80324e-38)
(126.592 -0.01362 0 0.328107 0 0)
(128.928 -0.192769 0 0.325929 0 0)
(131.11 -0.376283 0 0.32321 0 0)
(133.115 -0.56497 0 0.321989 0 0)
(134.924 -0.756146 0 0.324022 0 0)
(136.511 -0.946343 -1.17333e-18 0.328174 -4.36701e-21 5.01887e-38)
(137.849 -1.13769 0 0.332179 0 0)
(138.925 -1.3335 1.07884e-18 0.335751 1.14358e-20 4.75474e-38)
(139.741 -1.53557 0 0.340913 0 0)
(140.293 -1.74379 0 0.347723 0 0)
(140.565 -1.94938 -9.11598e-19 0.357018 -2.25007e-20 4.75482e-38)
(140.55 -2.15325 0 0.368916 0 0)
(140.233 -2.35787 7.80389e-19 0.380855 3.12855e-20 4.97133e-38)
(139.62 -2.56129 0 0.391105 0 0)
(138.706 -2.76476 0 0.403865 0 0)
(137.5 -2.96749 0 0.418031 0 0)
(136.016 -3.16309 -4.81899e-19 0.432464 -4.76126e-20 6.0348e-38)
(134.255 -3.35217 0 0.447235 0 0)
(132.232 -3.53494 0 0.46037 0 0)
(129.96 -3.71044 -2.2616e-19 0.474077 -6.11779e-20 7.30357e-38)
(127.458 -3.88379 0 0.489198 0 0)
(124.764 -4.04997 -5.06531e-20 0.504407 -6.98052e-20 8.30162e-38)
(121.889 -4.20373 0 0.519881 0 0)
(118.851 -4.34536 0 0.535886 0 0)
(115.68 -4.47615 0 0.55303 0 0)
(112.398 -4.59758 -3.04786e-19 0.571176 8.31534e-20 1.04523e-37)
(109.025 -4.70688 0 0.589272 0 0)
(105.577 -4.80074 0 0.607232 0 0)
(102.064 -4.87952 -5.63958e-19 0.62532 9.02779e-20 1.20145e-37)
(98.5005 -4.94765 -6.457e-19 0.64408 9.18152e-20 1.25256e-37)
(94.913 -5.00477 0 0.662873 0 0)
(91.3326 -5.05 -7.98631e-19 0.68259 9.45881e-20 1.34671e-37)
(87.7803 -5.08404 0 0.703799 0 0)
(84.2766 -5.1062 -1.87691e-18 0.725372 1.92502e-19 5.74288e-37)
(80.8356 -5.11548 0 0.748015 0 0)
(77.4753 -5.11025 -2.12193e-18 0.770592 1.93637e-19 6.07408e-37)
(74.2137 -5.08872 0 0.793542 0 0)
(71.0653 -5.05413 2.32454e-18 0.819525 -1.93787e-19 6.36363e-37)
(68.0471 -5.00626 0 0.844585 0 0)
(65.1742 -4.93984 0 0.866914 0 0)
(62.4459 -4.85477 0 0.889641 0 0)
(59.8669 -4.75284 -2.58521e-18 0.914669 1.86162e-19 6.79661e-37)
(57.4429 -4.63657 0 0.939293 0 0)
(55.1826 -4.50412 2.64589e-18 0.963516 -1.79919e-19 6.94386e-37)
(53.0879 -4.35508 0 0.987217 0 0)
(51.1476 -4.18381 -2.65792e-18 1.01076 1.73645e-19 7.03183e-37)
(49.357 -3.99612 -2.64892e-18 1.03204 1.70444e-19 7.06671e-37)
(47.7038 -3.7957 -2.63021e-18 1.05324 1.66297e-19 7.09336e-37)
(46.183 -3.58613 0 1.07562 0 0)
(44.7683 -3.36663 0 1.09875 0 0)
(43.4709 -3.13826 0 1.11833 0 0)
(42.2731 -2.90112 0 1.13815 0 0)
(41.1697 -2.66198 0 1.15791 0 0)
(40.1415 -2.4222 0 1.17697 0 0)
(39.1886 -2.18005 0 1.19207 0 0)
(38.2608 -1.9367 0 1.20804 0 0)
(37.3613 -1.69993 2.02569e-18 1.22313 -1.31534e-19 7.07424e-37)
(36.4511 -1.47157 1.91151e-18 1.24039 -1.24251e-19 7.06675e-37)
(35.5588 -1.25254 0 1.25183 0 0)
(34.6448 -1.04194 0 1.26487 0 0)
(33.724 -0.855129 0 1.27887 0 0)
(32.7401 -0.678702 1.35511e-18 1.29192 -1.0488e-19 6.90733e-37)
(31.7969 -0.528857 0 1.29927 0 0)
(30.7874 -0.386814 0 1.30907 0 0)
(29.8321 -0.284423 0 1.31923 0 0)
(28.9087 -0.201397 0 1.3323 0 0)
(28.0833 -0.151231 -4.40788e-19 1.34065 7.56601e-20 6.65949e-37)
(27.3888 -0.124924 0 1.34977 0 0)
(26.8533 -0.133396 0 1.36318 0 0)
(26.561 -0.175383 -2.22509e-19 1.37077 -6.51086e-20 6.42273e-37)
(26.5099 -0.243981 4.49956e-19 1.38381 6.10262e-20 6.29862e-37)
(26.7566 -0.353707 0 1.40075 0 0)
(27.3543 -0.510092 9.12444e-19 1.41798 6.0101e-20 6.05245e-37)
(28.3677 -0.706572 0 1.43711 0 0)
(29.859 -0.958516 -1.35352e-18 1.45476 -6.46282e-20 5.75551e-37)
(31.8491 -1.2443 0 1.47748 0 0)
(34.4122 -1.57995 0 1.50447 0 0)
(37.4468 -1.95781 0 1.53718 0 0)
(41.0638 -2.38627 0 1.57143 0 0)
(45.1157 -2.84084 0 1.60947 0 0)
(49.6087 -3.34208 4.8966e-18 1.65164 2.04669e-19 1.97166e-36)
(54.4759 -3.88711 5.15141e-18 1.69774 2.30606e-19 1.93687e-36)
(59.7412 -4.46822 0 1.74578 0 0)
(65.1971 -5.0691 0 1.80174 0 0)
(70.8177 -5.69651 0 1.85691 0 0)
(76.4389 -6.30823 -5.69168e-18 1.91784 -3.52174e-19 1.91692e-36)
(81.8466 -6.923 0 1.98896 0 0)
(86.9926 -7.5437 0 2.06116 0 0)
(91.8243 -8.15811 0 2.13765 0 0)
(96.2651 -8.75114 -5.33092e-18 2.21593 -5.33319e-19 2.07127e-36)
(100.297 -9.31806 5.09674e-18 2.29938 5.81997e-19 2.13275e-36)
(103.709 -9.84044 0 2.39017 0 0)
(106.619 -10.3501 0 2.48298 0 0)
(108.99 -10.8041 4.07877e-18 2.57756 7.35026e-19 2.36488e-36)
(110.832 -11.2238 3.64988e-18 2.67095 7.83876e-19 2.45017e-36)
(111.989 -11.5685 0 2.77126 0 0)
(112.564 -11.8841 0 2.87122 0 0)
(112.449 -12.127 -2.05268e-18 2.97523 -9.45414e-19 2.71813e-36)
(111.775 -12.3517 1.42293e-18 3.07026 9.89044e-19 2.79685e-36)
(110.586 -12.5062 0 3.16708 0 0)
(108.681 -12.6063 0 3.26775 0 0)
(106.182 -12.6403 -5.21469e-19 3.35868 1.11695e-18 3.06753e-36)
(103.051 -12.6201 0 3.4492 0 0)
(99.5719 -12.5626 0 3.53283 0 0)
(95.5845 -12.4139 -2.54861e-18 3.60534 1.20596e-18 3.30006e-36)
(91.2855 -12.1936 0 3.67738 0 0)
(86.6635 -11.8623 -3.83245e-18 3.73894 1.25694e-18 3.44304e-36)
(81.7768 -11.4459 0 3.79472 0 0)
(76.6701 -10.9115 0 3.8339 0 0)
(71.7276 -10.2786 0 3.85804 0 0)
(66.8417 -9.48086 5.872e-18 3.87686 -1.27773e-18 3.68135e-36)
(62.1778 -8.56357 0 3.8805 0 0)
(57.9517 -7.49415 0 3.86842 0 0)
(54.488 -6.3049 0 3.84059 0 0)
(51.6228 -4.92685 0 3.79863 0 0)
(49.5277 -3.46773 0 3.74797 0 0)
(48.8029 -1.91359 0 3.67606 0 0)
(49.637 -0.289749 6.02131e-18 3.58642 -1.10429e-18 3.72744e-36)
(51.6908 1.42388 5.6055e-18 3.48813 -1.05012e-18 3.71007e-36)
(55.3915 3.11637 0 3.37658 0 0)
(60.6479 4.74353 0 3.25866 0 0)
(67.4546 6.3242 0 3.12921 0 0)
(75.3907 7.79807 -3.05175e-18 2.99949 7.95316e-19 3.38426e-36)
(84.5212 9.09983 0 2.87126 0 0)
(94.0849 10.2883 2.94671e-18 2.73621 -1.35084e-18 1.23649e-35)
(103.979 11.2461 -1.30887e-18 2.60547 1.21802e-18 1.16634e-35)
(113.622 12.037 3.19136e-19 2.47418 1.10546e-18 1.10211e-35)
(123.283 12.6881 -2.02213e-18 2.34939 -1.01458e-18 1.03361e-35)
(131.409 13.2295 3.67498e-18 2.23039 9.23174e-19 9.76161e-36)
(139.288 13.707 -5.27973e-18 2.12311 -9.03867e-19 8.99725e-36)
(143.042 14.4001 0 2.06719 0 0)
(0.0183125 0.174293 0 6.10171 0 0)
(0.20274 0.388036 0 6.03977 0 0)
(0.629529 0.610037 1.31902e-19 5.86659 1.75552e-19 6.76619e-37)
(1.32711 0.854704 0 5.7454 0 0)
(2.26923 1.13415 -1.92202e-19 5.6854 -3.53932e-19 9.19888e-37)
(3.44542 1.439 -1.8341e-19 5.65819 -4.42231e-19 9.73245e-37)
(4.83465 1.76359 -8.01552e-20 5.64282 -2.51953e-19 2.49165e-37)
(6.42271 2.10403 -6.81638e-20 5.62481 -2.70904e-19 2.61397e-37)
(8.20165 2.45314 0 5.59645 0 0)
(10.1695 2.80642 -4.10233e-20 5.55384 -2.69652e-19 2.59493e-37)
(12.3275 3.15504 0 5.50199 0 0)
(14.6739 3.49659 0 5.44241 0 0)
(17.2002 3.8259 9.22755e-20 5.37414 4.24397e-19 9.51372e-37)
(19.9073 4.14253 6.83273e-20 5.30224 1.87145e-19 2.34197e-37)
(22.7843 4.43691 -1.83183e-19 5.22696 -3.26628e-19 8.93897e-37)
(25.8253 4.70903 -2.49531e-19 5.14863 -2.81505e-19 8.66169e-37)
(29.0189 4.9603 -1.70175e-19 5.06415 -1.18538e-19 2.12812e-37)
(32.3587 5.19212 0 4.97331 0 0)
(35.8331 5.40289 0 4.87751 0 0)
(39.4334 5.59713 0 4.77468 0 0)
(43.1362 5.77411 -3.86086e-19 4.66959 -3.6637e-20 1.80459e-37)
(46.9324 5.93119 0 4.56489 0 0)
(50.7991 6.0599 1.6079e-18 4.45815 -1.6483e-20 1.55237e-36)
(54.724 6.16382 0 4.35497 0 0)
(58.6903 6.24452 0 4.24961 0 0)
(62.6809 6.3021 7.74754e-19 4.14531 -5.77874e-20 1.56566e-37)
(66.6681 6.33323 0 4.03931 0 0)
(70.6332 6.34727 -9.33161e-19 3.93873 8.19101e-20 1.46068e-37)
(74.5426 6.33788 -1.99421e-18 3.8388 1.81783e-19 5.57384e-37)
(78.3861 6.29993 1.07746e-18 3.73608 -9.88641e-20 1.36698e-37)
(82.1601 6.23042 0 3.62828 0 0)
(85.8642 6.13298 0 3.52298 0 0)
(89.485 6.01006 0 3.41955 0 0)
(93.0267 5.86286 -2.57788e-18 3.3113 2.22902e-19 4.71713e-37)
(96.4809 5.68583 -2.65617e-18 3.20367 2.20377e-19 4.55555e-37)
(99.861 5.47941 -1.37427e-18 3.10244 1.07593e-19 1.10857e-37)
(103.176 5.24197 0 3.01028 0 0)
(106.417 4.96863 2.83916e-18 2.92193 -2.02968e-19 4.13219e-37)
(109.596 4.65735 0 2.83658 0 0)
(112.704 4.31756 -2.87576e-18 2.75503 1.88375e-19 3.81962e-37)
(115.749 3.95015 0 2.67469 0 0)
(118.727 3.56277 0 2.60258 0 0)
(121.644 3.15926 2.82846e-18 2.53165 -1.54037e-19 3.31959e-37)
(124.486 2.73675 0 2.46638 0 0)
(127.235 2.28871 8.16267e-18 2.40851 -3.93373e-19 2.68699e-36)
(129.888 1.81098 -2.68969e-18 2.36321 1.19185e-19 2.83975e-37)
(132.45 1.30797 0 2.33602 0 0)
(134.935 0.779984 -2.54982e-18 2.32008 9.0928e-20 2.5201e-37)
(137.329 0.219208 -2.46899e-18 2.31374 7.66451e-20 2.36403e-37)
(139.63 -0.367318 0 2.31585 0 0)
(141.813 -0.964709 0 2.32839 0 0)
(143.86 -1.5604 0 2.34302 0 0)
(145.759 -2.14496 0 2.35668 0 0)
(147.472 -2.7229 0 2.38062 0 0)
(148.987 -3.30291 1.88312e-18 2.41367 1.45784e-20 1.72245e-37)
(150.283 -3.89209 3.45069e-18 2.45704 7.1181e-20 6.56503e-37)
(151.341 -4.4845 -1.64419e-18 2.50798 -5.58962e-20 1.6026e-37)
(152.17 -5.09459 0 2.56379 0 0)
(152.743 -5.7053 2.687e-18 2.62662 1.90105e-19 6.02075e-37)
(153.033 -6.29468 -1.17014e-18 2.69452 -1.13165e-19 1.47017e-37)
(153.066 -6.87857 0 2.77119 0 0)
(152.791 -7.45634 -9.78542e-19 2.86106 -1.48467e-19 1.49633e-37)
(152.22 -8.01235 0 2.9543 0 0)
(151.346 -8.55916 0 3.05553 0 0)
(150.166 -9.0879 -1.04851e-18 3.16159 -3.96594e-19 6.25932e-37)
(148.667 -9.58801 4.23054e-19 3.27237 2.15099e-19 1.63838e-37)
(146.888 -10.0807 -4.89911e-19 3.39262 -4.61984e-19 6.6877e-37)
(144.823 -10.5522 2.12674e-19 3.51704 4.88935e-19 6.92552e-37)
(142.498 -10.9995 1.03421e-20 3.64262 2.54392e-19 1.82781e-37)