/*--------------------------------*- C++ -*----------------------------------*\
| =========                 |                                                 |
| \\      /  F ield         | OpenFOAM: The Open Source CFD Toolbox           |
|  \\    /   O peration     | Version:  dev                                   |
|   \\  /    A nd           | Web:      http://www.openfoam.org               |
|    \\/     M anipulation  |                                                 |
\*---------------------------------------------------------------------------*/
FoamFile
{
    version     2.0;
    format      ascii;
    class       volScalarField;
    object      k;
    location    "9.138";
}
// * * * * * * * * * * * * * * * * * * * * * * * * * * * * * * * * * * * * * //

dimensions      [0 2 -2 0 0 0 0];

internalField   nonuniform List<scalar> 
12225
(
8.62826
11.5016
8.96519
9.56791
8.75969
11.4424
11.4324
14.6436
14.7603
17.3723
18.7836
20.8378
22.8224
23.7415
30.8579
30.3946
33.072
51.9968
1.77373
6.12653
5.84352
6.87392
5.64228
7.3108
6.20156
8.96467
7.55747
10.1668
9.11305
12.1775
12.4618
12.0082
12.9308
17.8465
25.4157
56.5951
0.110157
1.42144
1.76495
3.10334
2.84056
3.59012
3.10283
3.97569
3.65276
3.76606
3.73475
3.93744
5.71901
3.64908
3.82893
3.20701
9.12627
21.3828
0.0121537
0.253927
0.44632
0.995126
1.08168
1.26179
1.31722
1.37401
1.88624
1.5657
1.74533
1.62299
2.47949
2.37838
1.60777
1.45269
3.1745
5.93816
0.00175056
0.0251982
0.0664943
0.188166
0.302818
0.386702
0.559591
0.562417
0.789419
0.77245
0.943975
0.926759
1.29505
1.20168
1.34215
1.29123
1.7778
2.94323
0.000260562
0.00591862
0.022803
0.0586705
0.0957628
0.227455
0.246797
0.414781
0.447209
0.543388
0.565652
0.864979
1.09391
1.50817
1.47146
1.13762
1.59833
1.90742
0.00022469
0.0107167
0.0134204
0.0156565
0.0310627
0.0726886
0.123677
0.215915
0.322697
0.349029
0.482594
0.537361
0.780331
0.873602
1.08971
0.882798
1.26349
0.99777
0.000380507
0.0107402
0.0115149
0.0150695
0.0274774
0.0469726
0.0865962
0.121048
0.158896
0.165034
0.273185
0.316847
0.392024
0.445124
0.666085
0.69559
0.85283
0.988468
0.00109212
0.0126014
0.0159585
0.0216167
0.0335985
0.0485865
0.0736711
0.0815434
0.108135
0.119161
0.155343
0.173568
0.24677
0.276333
0.513016
0.483979
0.505061
0.632966
0.00476867
0.0143669
0.0173925
0.0272938
0.0446411
0.0507776
0.0643413
0.0695116
0.0889015
0.089058
0.104259
0.115828
0.153947
0.212941
0.292472
0.274815
0.265285
0.259827
0.0109073
0.0188015
0.0279707
0.0408092
0.0498948
0.0547674
0.0615972
0.0674542
0.0767827
0.0828296
0.0962862
0.103171
0.11998
0.147154
0.182581
0.179499
0.180883
0.181853
0.0161917
0.0267715
0.039037
0.047703
0.0560735
0.0603307
0.0665238
0.0716506
0.081598
0.0873261
0.0974434
0.101549
0.113194
0.128927
0.143122
0.147913
0.150387
0.154872
0.0272919
0.0492982
0.0559909
0.069215
0.0733465
0.081483
0.0849068
0.0946949
0.103844
0.111191
0.113491
0.11599
0.122208
0.129883
0.137303
0.142353
0.144784
0.146598
0.0536513
0.0848785
0.094995
0.114867
0.122797
0.136046
0.141685
0.154749
0.1647
0.168491
0.167703
0.164372
0.160965
0.159607
0.159715
0.159669
0.159588
0.158984
0.10636
0.139561
0.155599
0.187524
0.207134
0.230011
0.24126
0.25349
0.259784
0.263163
0.263504
0.260425
0.251768
0.241412
0.231144
0.224085
0.215274
0.208478
0.179032
0.220622
0.240665
0.267505
0.28809
0.303276
0.311765
0.315353
0.316278
0.315656
0.312479
0.303636
0.291881
0.28173
0.269773
0.261694
0.250913
0.243413
0.220951
0.253419
0.269714
0.292476
0.312989
0.325892
0.331433
0.332701
0.332709
0.331611
0.325868
0.315103
0.30298
0.292385
0.279593
0.27098
0.259298
0.251659
0.221541
0.248987
0.266158
0.289596
0.31079
0.323868
0.329001
0.329921
0.32972
0.32825
0.322298
0.311861
0.299683
0.289307
0.276544
0.267902
0.256185
0.248595
0.175449
0.204375
0.227987
0.253514
0.275477
0.290416
0.297838
0.300045
0.300319
0.299506
0.295527
0.287172
0.276319
0.267034
0.255523
0.247855
0.237452
0.230884
0.106722
0.12462
0.14207
0.164866
0.187991
0.206979
0.219733
0.226315
0.228302
0.228797
0.228712
0.227315
0.221371
0.214419
0.205901
0.200322
0.193107
0.188989
0.0646425
0.0753428
0.0861632
0.100515
0.114882
0.126308
0.13383
0.136641
0.137391
0.137476
0.137048
0.135815
0.132342
0.126863
0.121088
0.117003
0.113411
0.112177
0.0324842
0.0400663
0.04914
0.0580875
0.0664754
0.0750764
0.0816805
0.0844097
0.0849915
0.0850817
0.0845106
0.0825433
0.0806246
0.0794262
0.0782489
0.0772672
0.0764017
0.0763756
0.017277
0.0233102
0.0288858
0.0326185
0.0353264
0.0392665
0.0427683
0.0459971
0.0482222
0.0515776
0.0544157
0.0583809
0.0618123
0.0646218
0.0662672
0.0672954
0.067802
0.0682727
0.00780735
0.011592
0.013345
0.0160557
0.0198927
0.0266605
0.0314355
0.0360603
0.0398188
0.0451966
0.0499425
0.0564984
0.061855
0.0671322
0.0703624
0.0730446
0.0743127
0.0755027
0.00291503
0.0049683
0.00777027
0.012514
0.0195686
0.0308919
0.0398637
0.0472788
0.0553556
0.0667842
0.077635
0.0914116
0.102108
0.11242
0.118766
0.123936
0.126026
0.127986
0.00059871
0.00431707
0.0144089
0.035787
0.0682722
0.104185
0.131081
0.150167
0.172546
0.199879
0.225713
0.253354
0.273911
0.290628
0.301102
0.307669
0.309024
0.31123
0.00236968
0.0351434
0.115574
0.254725
0.388565
0.494193
0.563717
0.60773
0.654739
0.702748
0.745618
0.77988
0.804089
0.819037
0.825835
0.825193
0.821995
0.817259
0.0427322
0.396937
0.953251
1.385
1.68391
1.86294
1.95364
1.9899
2.02868
2.06646
2.08996
2.09121
2.08424
2.06645
2.0356
1.99281
1.94504
1.91154
0.827701
3.53367
4.76259
4.97666
4.90297
4.79215
4.66168
4.60511
4.57714
4.53971
4.4856
4.41729
4.34494
4.24475
4.1538
4.0233
3.91155
3.78375
6.97559
11.0946
10.6801
9.49502
8.76076
8.72367
8.97051
9.46257
9.97292
10.4391
10.8372
11.1661
11.4059
11.5763
11.6633
11.6745
11.6567
11.5074
0.0923925
0.182798
0.280246
0.348713
0.387796
0.406011
0.434633
0.451842
0.477249
0.515557
0.568958
0.626673
0.718275
0.838852
0.947038
1.11118
1.26167
1.43097
1.66336
1.80689
1.95679
2.06687
2.05654
2.03212
2.05777
2.09334
2.13816
2.24222
2.44567
2.68113
2.82211
2.88198
2.90696
2.9792
3.20485
3.61134
4.0794
4.52668
4.98451
5.54869
6.25824
7.06361
7.85315
8.56397
9.18414
9.71455
10.1552
10.5286
10.8562
11.1382
11.3777
11.5992
11.8086
12.0111
12.2088
12.3668
12.4902
12.5881
12.661
12.6754
12.6611
12.5978
12.4858
12.3646
12.2317
12.08
11.9291
11.7668
11.5771
11.3131
10.9298
10.4936
10.0456
9.61987
9.20437
8.77503
8.29554
7.77261
7.26153
6.76484
6.28671
5.84738
5.4329
4.98483
4.56584
4.2021
3.90716
3.69661
3.59255
3.53071
3.47022
3.37985
3.23554
3.07023
2.89137
2.79108
2.72355
2.68177
2.63789
2.60727
2.61767
2.72628
2.90901
3.01483
2.99158
2.64046
2.4867
2.50956
2.59218
2.59008
2.39634
2.35344
2.79416
3.2615
3.39638
3.40352
3.14893
2.82447
2.58314
2.45171
2.53966
2.98
3.88194
4.69368
5.17772
5.14949
4.7335
4.08729
4.14499
4.18892
4.52599
5.29131
6.31602
6.99718
7.47151
7.9917
8.53711
9.22178
9.82442
10.5996
11.4334
12.1295
12.4702
12.5964
12.4661
12.448
12.4106
12.4752
12.5259
12.0634
11.2569
10.3281
9.45376
8.13898
6.88371
6.25246
5.79699
5.65499
5.04676
4.45434
4.32086
5.01174
7.00032
7.77904
11.1117
12.1758
10.7579
9.40561
9.96756
12.1804
14.1785
15.485
16.8129
17.7691
18.0535
18.1864
18.3372
18.5898
18.9891
19.6794
0.268451
0.329277
0.486423
0.497972
0.433242
0.358406
0.274936
0.233289
0.217713
0.214871
0.217524
0.221239
0.22529
0.230916
0.237995
0.253169
0.278813
0.316066
0.407544
0.510197
0.667793
0.907581
1.05889
1.10247
1.08366
1.0007
0.849366
0.781984
0.770413
0.829892
0.936115
0.954084
0.95792
0.995314
1.15348
1.67308
2.66433
3.24403
3.57335
3.736
3.85009
3.88359
3.77338
3.54649
3.30807
3.04045
2.79826
2.60324
2.49693
2.4546
2.43786
2.4288
2.45347
2.52556
2.59818
2.65283
2.67481
2.68212
2.70465
2.6992
2.66736
2.63815
2.62693
2.64693
2.66815
2.69295
2.7299
2.72138
2.64695
2.47803
2.25493
2.11192
2.0327
1.98098
1.91938
1.81011
1.66118
1.51901
1.41303
1.32639
1.24419
1.19058
1.12793
1.02863
0.983897
0.966436
0.967332
1.02427
1.1091
1.22788
1.28972
1.31853
1.3129
1.27131
1.21773
1.20205
1.19593
1.2211
1.22038
1.16747
1.15344
1.19728
1.28092
1.57985
1.89059
1.66245
1.51034
1.69935
2.19733
2.28655
2.23859
2.68299
2.93695
3.01285
2.83707
2.67993
2.54239
2.48425
2.36858
2.26084
2.27989
2.46093
2.68744
2.87358
2.94109
2.78556
2.62871
2.60513
2.72617
2.94318
3.08114
3.3823
4.15204
4.79654
4.9837
5.39223
5.61663
5.96127
6.06514
6.45103
7.48501
7.96793
7.83278
8.02047
7.78598
7.45185
7.54299
8.20579
8.55311
8.44704
8.04036
7.26803
6.79383
5.86676
4.7411
4.48137
4.56883
4.93393
4.5347
3.7682
3.55278
5.28751
8.6281
10.643
9.55486
9.24957
8.36943
6.86464
6.53535
7.07152
8.27533
8.91582
9.63825
10.6279
11.4944
12.2653
12.8775
13.3866
14.0297
14.0031
0.683833
0.698822
0.734251
0.58077
0.382693
0.23903
0.188528
0.178703
0.180807
0.188554
0.202172
0.207662
0.207348
0.204665
0.19612
0.190913
0.18407
0.181254
0.18661
0.204866
0.250414
0.312944
0.412184
0.557406
0.576081
0.508621
0.439818
0.436306
0.488756
0.698588
0.8268
0.991918
1.53753
1.8694
1.90948
1.95329
2.14232
2.04001
1.83613
1.67072
1.44964
1.23206
1.02164
0.834304
0.682683
0.572174
0.490493
0.446503
0.426114
0.417313
0.416042
0.421637
0.439973
0.467663
0.490635
0.511155
0.519494
0.520137
0.520385
0.516501
0.511182
0.509862
0.521587
0.551634
0.589222
0.629523
0.650982
0.652201
0.625231
0.544018
0.486959
0.474296
0.470652
0.470781
0.468648
0.454331
0.421997
0.386508
0.364644
0.354929
0.348304
0.343134
0.336554
0.328216
0.327495
0.340086
0.368772
0.420442
0.47056
0.512659
0.545903
0.593105
0.609853
0.6113
0.6072
0.608681
0.606894
0.615598
0.611422
0.573012
0.558791
0.561225
0.608914
0.808288
0.928398
0.961646
1.38541
1.87893
1.99915
1.95047
2.34305
2.62861
2.49269
2.24591
2.17793
2.10623
2.12198
2.15487
2.07067
2.02159
2.00067
2.02177
2.12291
2.17236
2.10906
1.87335
1.65839
1.76974
2.09866
2.36735
2.42699
2.48659
2.5932
2.79656
2.82088
2.99188
3.15715
3.33688
3.30976
3.40068
3.98812
4.52714
4.35079
4.386
4.46746
4.48629
4.49715
4.59053
4.83818
4.85205
4.84393
4.57902
4.45539
4.21192
3.83278
3.61343
3.59499
4.05799
4.37601
3.91891
3.89812
6.53918
7.4786
8.33464
9.8704
7.90734
6.35107
4.67049
3.94067
3.96966
4.49316
5.15817
6.00127
7.02407
7.72369
7.83084
7.63749
7.56024
7.55184
6.53715
1.55125
1.26133
0.841022
0.464669
0.248051
0.18268
0.172007
0.177504
0.194273
0.21377
0.217285
0.214948
0.207047
0.197703
0.188406
0.179294
0.173567
0.166055
0.161327
0.16254
0.174794
0.2077
0.249156
0.294776
0.355177
0.455797
0.513992
0.561292
0.757978
1.39954
1.60155
1.57423
1.58661
1.64048
1.53214
1.35074
1.04921
0.894351
0.73286
0.571441
0.449266
0.348327
0.276804
0.227966
0.197912
0.181414
0.171829
0.167413
0.165567
0.166641
0.169836
0.173296
0.177634
0.182991
0.187788
0.191799
0.193896
0.195101
0.196365
0.196967
0.197163
0.199669
0.206622
0.219582
0.236937
0.259753
0.274458
0.276195
0.269795
0.244819
0.227446
0.224025
0.224234
0.229925
0.231815
0.230383
0.225588
0.218495
0.214634
0.214141
0.21395
0.213723
0.213126
0.211915
0.212768
0.220593
0.240231
0.276024
0.319537
0.340361
0.354403
0.384706
0.396316
0.396341
0.388045
0.385444
0.387206
0.400367
0.404196
0.393841
0.388415
0.416276
0.487864
0.554843
0.673814
0.948791
1.72917
1.8446
1.70069
2.0274
2.37682
2.35578
1.91496
1.8089
1.70693
1.67198
1.73416
1.73087
1.73043
1.77118
1.77449
1.81398
1.868
1.85461
1.77854
1.4119
1.18459
1.31746
1.54743
1.78897
2.02104
2.09711
2.06944
2.10631
2.21738
2.26336
2.27497
2.32402
2.32445
2.4076
2.72873
3.14605
3.11049
3.04615
3.30664
3.61247
3.29468
3.20505
3.28141
3.37477
3.37992
3.3918
3.3911
3.31374
3.45914
3.05009
2.84251
3.30249
3.85979
4.01301
4.38311
5.84265
5.04762
6.19772
9.07878
7.9417
6.07531
3.94221
3.12249
3.07918
3.41518
4.24761
5.10534
5.75677
5.82514
5.24297
4.84386
4.55456
4.34153
3.41159
2.79329
1.59178
0.762811
0.32086
0.199176
0.175052
0.182099
0.206338
0.224666
0.2259
0.22017
0.208805
0.197914
0.184699
0.172593
0.163204
0.159251
0.15812
0.157657
0.159064
0.167684
0.192202
0.241491
0.308831
0.407905
0.562638
0.988323
1.23954
1.31116
1.41475
1.41543
1.2946
1.10036
0.89187
0.728841
0.593332
0.456365
0.346737
0.280426
0.220032
0.184225
0.163473
0.152126
0.146266
0.143667
0.143477
0.144707
0.146623
0.148919
0.152126
0.154271
0.154919
0.154961
0.154498
0.153564
0.152214
0.149937
0.149383
0.149616
0.149963
0.150883
0.153295
0.157037
0.162828
0.170538
0.180761
0.195445
0.20101
0.199979
0.19276
0.185041
0.183774
0.183453
0.185271
0.187135
0.187731
0.189075
0.190631
0.193161
0.193929
0.194205
0.194675
0.19421
0.190981
0.189899
0.19191
0.200706
0.222429
0.257682
0.283774
0.296321
0.313254
0.315122
0.301406
0.285469
0.285583
0.299917
0.323872
0.331544
0.333544
0.354608
0.410138
0.472448
0.539679
0.765026
1.51527
1.76659
1.64044
1.7247
2.1807
2.26861
1.69514
1.45563
1.37711
1.29163
1.27619
1.35249
1.42061
1.60104
1.64176
1.64501
1.66151
1.67837
1.64998
1.43767
1.13093
1.01118
1.13487
1.24301
1.34073
1.45852
1.68637
1.77758
1.94205
2.17186
2.14661
2.02875
1.95036
1.96556
2.12945
2.27774
2.63142
2.68158
2.62094
2.76621
3.16255
2.67224
2.57864
2.63618
2.73901
2.72052
2.86189
2.82801
2.83187
3.20144
2.71889
2.41377
2.61404
3.16246
3.96924
4.29565
5.47181
5.05545
6.14445
6.30544
8.3684
6.18346
3.83294
2.90992
2.82154
3.13688
4.06557
4.73189
4.84246
4.36097
3.74888
3.41831
3.15401
2.88968
2.26311
4.23397
1.69647
0.569904
0.246174
0.188284
0.187246
0.213916
0.234836
0.236189
0.231761
0.222519
0.211088
0.197881
0.180199
0.164752
0.154703
0.15085
0.149418
0.150362
0.157676
0.17537
0.213741
0.282136
0.418579
0.773629
1.00771
1.1042
1.1944
1.16505
1.00738
0.848097
0.714999
0.578316
0.447191
0.336131
0.271174
0.221751
0.180635
0.162456
0.150551
0.144879
0.142492
0.141823
0.142314
0.143637
0.145484
0.14804
0.151355
0.155667
0.160347
0.165519
0.168677
0.169852
0.170591
0.168899
0.165274
0.160047
0.153827
0.150834
0.150908
0.151432
0.152387
0.154513
0.158249
0.162309
0.168317
0.177549
0.187748
0.19009
0.188483
0.182333
0.179578
0.179635
0.180227
0.18108
0.181583
0.18277
0.186796
0.192168
0.193677
0.193124
0.191865
0.189339
0.184355
0.180654
0.181962
0.187737
0.19999
0.228247
0.257382
0.264387
0.264831
0.255648
0.244073
0.242508
0.25511
0.279627
0.288525
0.294144
0.321842
0.37073
0.467696
0.577211
0.805305
1.39317
1.64609
1.62611
1.57309
1.88852
2.12618
1.91675
1.26476
1.14262
1.08416
1.01098
1.0051
1.05862
1.13846
1.35889
1.49786
1.55228
1.5631
1.51403
1.23471
1.0517
0.987723
0.971228
1.00753
1.10849
1.16629
1.17609
1.54888
1.6861
1.98204
2.37356
2.33577
1.99131
1.80239
1.85601
2.11563
2.17097
2.36976
2.58734
2.58148
2.57514
2.74809
2.4666
2.34844
2.38555
2.46948
2.43249
2.58313
2.44622
2.51369
2.94664
2.81278
2.49624
2.38335
2.91371
3.85707
4.03733
4.79731
4.62197
5.72389
5.47202
7.8377
6.24789
3.83523
2.89567
2.80564
3.11838
3.96851
4.30141
3.90881
3.2523
2.84674
2.6444
2.49642
2.24393
1.88534
5.63235
1.62717
0.418703
0.226363
0.201778
0.22026
0.240932
0.248112
0.252685
0.252215
0.247773
0.236085
0.211285
0.182925
0.163669
0.15234
0.148107
0.147584
0.151717
0.167474
0.209907
0.302014
0.530314
0.762488
0.879356
0.978981
0.971896
0.83533
0.725261
0.609577
0.474181
0.381078
0.308139
0.243254
0.192673
0.169039
0.155381
0.146431
0.143026
0.141286
0.140569
0.140297
0.140303
0.140542
0.140946
0.141527
0.142511
0.144129
0.14699
0.151241
0.157516
0.164333
0.169696
0.177295
0.187214
0.191899
0.191638
0.187451
0.179953
0.173748
0.170155
0.169521
0.169867
0.171123
0.173252
0.175136
0.179211
0.186162
0.191184
0.191601
0.189528
0.183161
0.180543
0.181086
0.181938
0.182291
0.183585
0.187358
0.192915
0.194399
0.193211
0.188056
0.18141
0.177458
0.174685
0.174411
0.179583
0.189852
0.200295
0.219267
0.22391
0.223827
0.22102
0.221848
0.234585
0.254873
0.263807
0.265433
0.28725
0.339395
0.492992
0.780444
1.04642
1.32899
1.52641
1.5359
1.41987
1.63352
1.89603
1.93976
1.28345
1.00399
0.941741
0.869984
0.815656
0.812064
0.835406
0.893201
1.0381
1.17129
1.30471
1.32958
1.18459
0.940124
0.867054
0.877413
0.931229
0.94187
0.932368
0.979024
1.07229
1.5458
1.71034
2.19104
2.55754
2.63891
2.18664
1.81593
1.86299
2.18131
2.17811
2.26352
2.64829
2.66616
2.59581
2.40413
2.36632
2.39582
2.38481
2.43016
2.37527
2.43125
2.2728
2.27851
2.5588
2.77984
2.88541
2.50845
2.96517
4.04352
4.05115
3.94863
3.87902
5.08707
4.96227
6.62379
6.12694
3.93084
2.92098
2.83272
3.14292
3.77898
3.82489
3.14522
2.56882
2.27962
2.13932
2.04136
1.91538
1.76361
6.81056
1.51766
0.378282
0.241343
0.23806
0.246508
0.255742
0.268619
0.289729
0.297159
0.294197
0.270441
0.235602
0.202943
0.178048
0.165969
0.161433
0.164735
0.184384
0.241495
0.374927
0.567298
0.678724
0.768509
0.809407
0.731101
0.61755
0.533732
0.431136
0.358518
0.280923
0.225591
0.191374
0.165252
0.150063
0.143678
0.140665
0.139234
0.138906
0.138891
0.138601
0.137932
0.136495
0.134
0.131752
0.131359
0.131499
0.132041
0.133356
0.13541
0.138027
0.142833
0.149962
0.159298
0.170839
0.182575
0.189994
0.194439
0.197604
0.197908
0.197078
0.196359
0.195008
0.193974
0.193524
0.193532
0.19467
0.195973
0.196889
0.196627
0.193433
0.189792
0.185893
0.185186
0.185732
0.186991
0.18869
0.191948
0.192996
0.192475
0.188769
0.179566
0.171647
0.170431
0.170595
0.170535
0.171185
0.178177
0.187658
0.197604
0.202838
0.207984
0.212939
0.220926
0.234398
0.24247
0.242099
0.258853
0.30602
0.456053
0.815884
1.10551
1.28638
1.38744
1.4202
1.30348
1.36667
1.68367
1.78317
1.49346
0.958474
0.82639
0.79708
0.745909
0.729733
0.748505
0.772545
0.830657
0.897108
0.942033
0.979374
0.978899
0.928477
0.858332
0.744834
0.690062
0.791748
0.92842
0.847178
0.923359
1.06167
1.56629
1.75946
2.25382
2.48561
2.61773
2.51538
2.00806
2.06169
2.50843
2.32156
2.33083
2.71184
2.71932
2.69221
2.29016
2.23623
2.38029
2.43709
2.42086
2.3983
2.37152
2.32319
2.24942
2.31793
2.47581
2.83601
2.82092
3.26245
5.05347
4.3592
3.68707
3.73869
4.97449
4.85372
5.90275
5.82973
4.05128
2.99107
2.89013
3.14614
3.582
3.39938
2.57239
2.14428
1.95524
1.87754
1.81824
1.78152
1.70824
7.87668
1.5127
0.38898
0.284944
0.285169
0.291528
0.294561
0.313156
0.351983
0.364671
0.360872
0.326844
0.290739
0.266073
0.240892
0.231132
0.23437
0.268683
0.327754
0.416663
0.514155
0.590964
0.647849
0.635313
0.560283
0.47744
0.404589
0.334584
0.273724
0.224277
0.188717
0.162168
0.149346
0.142014
0.138568
0.137493
0.137406
0.13727
0.136695
0.135421
0.133215
0.131417
0.130507
0.129698
0.129323
0.129543
0.130176
0.130976
0.132532
0.134366
0.135775
0.137415
0.140448
0.144937
0.152133
0.162655
0.173555
0.180667
0.184938
0.1875
0.189217
0.191696
0.193689
0.195179
0.196356
0.197661
0.197923
0.198255
0.198858
0.200865
0.201197
0.199562
0.196876
0.196248
0.196124
0.197819
0.197862
0.195939
0.195388
0.192335
0.186811
0.177752
0.169719
0.167261
0.167894
0.167959
0.167181
0.167366
0.175613
0.185893
0.191221
0.201298
0.208739
0.218401
0.221589
0.220784
0.232429
0.271046
0.383205
0.729613
1.03878
1.21338
1.28453
1.29583
1.17985
1.15607
1.4033
1.5947
1.57595
1.01497
0.783534
0.721552
0.706291
0.683419
0.678141
0.676958
0.689032
0.738459
0.762077
0.800032
0.806279
0.766538
0.75758
0.769917
0.716587
0.609212
0.670631
0.789429
0.819705
0.940371
1.07588
1.62984
1.8271
2.09254
2.26211
2.2152
2.64019
2.3326
2.27285
2.69398
2.51437
2.48143
2.69347
2.47836
2.57118
2.26516
2.16824
2.2164
2.42591
2.30426
2.44716
2.37956
2.34471
2.29787
2.25622
2.20887
2.62236
3.01147
3.18266
4.89342
4.91105
3.80068
3.74806
5.17101
4.92968
5.30562
5.46041
4.02485
3.02866
2.92845
3.11776
3.40412
3.10012
2.22623
1.85235
1.76092
1.78419
1.76168
1.70798
1.64285
9.05757
1.68147
0.478866
0.379003
0.380224
0.382195
0.379317
0.387868
0.416135
0.436269
0.42773
0.35983
0.332638
0.327369
0.324456
0.323587
0.337512
0.369577
0.413925
0.459186
0.507601
0.531048
0.499547
0.432866
0.381454
0.319332
0.268189
0.225063
0.190666
0.162922
0.148483
0.13998
0.136591
0.134932
0.135211
0.135208
0.134992
0.134303
0.132853
0.1308
0.129786
0.12931
0.129291
0.12948
0.129588
0.12988
0.130464
0.131366
0.133251
0.135865
0.137036
0.138225
0.141217
0.145959
0.151333
0.156941
0.165179
0.170691
0.172619
0.174094
0.175643
0.177527
0.180581
0.183619
0.1867
0.188863
0.190429
0.192186
0.19503
0.198661
0.200118
0.201602
0.204119
0.206011
0.206791
0.207457
0.209853
0.207885
0.204115
0.202119
0.192557
0.180903
0.173427
0.167355
0.166749
0.167088
0.166813
0.164751
0.169602
0.173881
0.17539
0.184062
0.197385
0.20466
0.207571
0.2141
0.239938
0.315521
0.555166
0.900971
1.11917
1.19874
1.20637
1.06032
1.0142
1.1187
1.35307
1.41664
1.21957
0.800441
0.680632
0.65258
0.644999
0.633558
0.617098
0.597492
0.599102
0.619935
0.630187
0.660075
0.656454
0.611568
0.598957
0.620294
0.656036
0.598098
0.628099
0.642987
0.794427
0.898975
1.05647
1.72835
1.95053
2.27243
2.15672
1.80446
2.03782
2.35142
2.3059
2.62682
2.73262
2.55504
2.58592
2.21754
2.33695
2.26556
2.08672
2.05431
2.23077
2.08913
2.20833
2.3808
2.28789
2.23327
2.2139
2.13334
2.30458
3.14032
2.72207
3.11618
4.94961
3.9004
3.85964
5.29637
4.98446
5.00965
5.09209
3.92576
3.02107
2.93186
3.05234
3.25345
2.90893
2.08054
1.71601
1.64479
1.68835
1.709
1.66553
1.59644
10.8241
2.37093
0.762261
0.570293
0.542094
0.515863
0.496187
0.492888
0.501507
0.508993
0.507931
0.426396
0.370372
0.363419
0.370723
0.369229
0.375484
0.3936
0.417046
0.441539
0.434033
0.402279
0.35899
0.315247
0.269987
0.227897
0.192352
0.168358
0.149745
0.138791
0.134204
0.132154
0.13191
0.133086
0.133672
0.133805
0.133533
0.132776
0.131219
0.129632
0.128905
0.129071
0.129407
0.129983
0.131132
0.131984
0.132419
0.132986
0.134096
0.136144
0.138565
0.140344
0.142446
0.146821
0.154225
0.160342
0.166104
0.171306
0.172692
0.173744
0.175567
0.177796
0.180759
0.184072
0.187512
0.189529
0.190425
0.190883
0.191277
0.192686
0.194559
0.197534
0.200416
0.202887
0.205918
0.207525
0.210629
0.21597
0.217036
0.220308
0.222033
0.205629
0.197112
0.184643
0.169101
0.168329
0.168781
0.16559
0.164308
0.169446
0.172743
0.175209
0.185289
0.198079
0.204232
0.218661
0.26345
0.391665
0.681809
0.979303
1.11815
1.14286
0.977582
0.896541
0.910549
1.10924
1.20935
1.20467
0.963178
0.675812
0.605064
0.590588
0.587473
0.584965
0.565631
0.555016
0.565736
0.563575
0.556303
0.570927
0.562441
0.539009
0.52533
0.506007
0.556158
0.556289
0.499258
0.606445
0.755575
0.796245
1.03527
1.82652
2.08334
2.66801
1.99871
1.72868
1.72169
2.09887
2.19219
2.30856
2.619
2.66907
2.35152
2.37607
2.43199
2.3582
2.07034
2.03783
2.06362
1.9956
1.85776
2.13974
2.07479
1.93524
2.04083
2.02208
1.96162
3.08163
2.78562
2.5841
4.04943
3.79532
3.85458
5.57182
5.19339
4.92321
4.78735
3.67188
2.99462
2.91703
2.92498
3.07353
2.74488
1.97924
1.6772
1.60866
1.63798
1.65185
1.61018
1.56692
12.405
2.81699
1.11162
0.861354
0.730952
0.640424
0.592593
0.579303
0.615812
0.632794
0.578474
0.506842
0.424643
0.398323
0.381477
0.383371
0.387568
0.386066
0.375596
0.357342
0.330762
0.302905
0.270942
0.237239
0.203552
0.174092
0.152325
0.140166
0.133027
0.12994
0.129188
0.129458
0.130406
0.131519
0.131851
0.131615
0.131035
0.129878
0.12872
0.128103
0.129086
0.131738
0.132426
0.133388
0.135369
0.138296
0.140592
0.140961
0.139894
0.140006
0.14245
0.149303
0.151504
0.150921
0.154314
0.165151
0.183137
0.183756
0.179965
0.178613
0.180346
0.185063
0.191306
0.19786
0.202164
0.203449
0.203818
0.20252
0.19951
0.197398
0.197289
0.198397
0.200144
0.202469
0.204268
0.205484
0.206973
0.209315
0.214989
0.21975
0.232395
0.233342
0.22339
0.217404
0.190389
0.172881
0.171949
0.169339
0.162953
0.161768
0.164773
0.168527
0.173781
0.182357
0.194057
0.221372
0.289873
0.440446
0.756554
0.993094
1.07281
1.01035
0.830619
0.796206
0.862117
1.0637
1.11674
1.06041
0.821241
0.609495
0.556859
0.549924
0.549302
0.546665
0.540201
0.543295
0.550076
0.523523
0.51703
0.517543
0.519136
0.507952
0.488025
0.453986
0.475995
0.473212
0.453215
0.582634
0.706763
0.776447
0.942817
1.74096
2.16474
2.29736
1.46568
1.42102
1.63833
2.05126
2.04895
2.06575
2.21612
2.43665
2.06973
2.15627
2.44704
2.38421
2.08084
2.09952
2.06583
2.04084
1.79728
1.79901
1.78993
1.69864
1.79034
1.84691
1.77646
2.93416
2.92878
2.60276
3.4328
3.51471
3.76437
5.75364
5.2654
4.83372
4.44635
3.50235
2.9717
2.87556
2.71627
2.82098
2.57071
1.88332
1.63943
1.62416
1.63183
1.60065
1.49911
1.50782
14.362
3.81815
2.00835
1.62303
1.20149
0.899087
0.741702
0.62882
0.637564
0.672445
0.713719
0.72113
0.598156
0.410499
0.373209
0.382442
0.377775
0.345061
0.320298
0.302432
0.270894
0.240205
0.215036
0.188351
0.162973
0.145399
0.134624
0.129571
0.127359
0.126844
0.126634
0.127049
0.127891
0.127694
0.126238
0.123973
0.122484
0.121041
0.120679
0.122196
0.127511
0.135837
0.144833
0.14977
0.151327
0.154267
0.156366
0.157717
0.158362
0.15748
0.155699
0.156818
0.159587
0.163006
0.16186
0.165679
0.182499
0.221262
0.230692
0.20722
0.199835
0.205236
0.21927
0.236235
0.245759
0.247937
0.249424
0.244796
0.235028
0.223142
0.215973
0.212495
0.20975
0.210184
0.210357
0.208052
0.206764
0.205971
0.206154
0.209668
0.216573
0.228399
0.228264
0.226753
0.214375
0.191183
0.180299
0.176704
0.165185
0.158737
0.157973
0.162029
0.167584
0.174401
0.190322
0.22472
0.303844
0.466029
0.787092
0.959168
0.992566
0.85933
0.743958
0.731483
0.836154
0.993805
1.0352
0.982733
0.77989
0.589799
0.536558
0.525559
0.524706
0.522197
0.521267
0.535343
0.543701
0.522867
0.515261
0.497273
0.493082
0.472009
0.470258
0.444154
0.418644
0.410786
0.443514
0.502206
0.588909
0.746813
0.850366
1.2032
1.71942
1.45952
0.987608
1.19691
1.79948
2.09258
2.09359
2.07746
2.03156
2.09666
1.9312
1.81343
2.06504
2.22446
2.15598
2.12109
2.13994
2.10535
1.7039
1.63427
1.65806
1.54125
1.6398
1.68228
1.7207
2.51139
2.89431
2.79818
3.32423
3.3835
3.74058
5.82516
5.13569
4.67586
4.03765
3.36119
2.91475
2.7537
2.47834
2.50777
2.38159
1.78643
1.57512
1.6388
1.63216
1.56227
1.42105
1.48197
16.3524
5.19862
3.32219
2.29045
1.54754
1.0917
0.868579
0.655801
0.640061
0.697975
0.792767
0.777284
0.672958
0.429656
0.352608
0.342805
0.32394
0.285334
0.267464
0.251413
0.228189
0.202993
0.179132
0.160184
0.142066
0.13273
0.128222
0.126571
0.126735
0.126743
0.12636
0.125485
0.124774
0.123277
0.121783
0.120733
0.11886
0.117929
0.118224
0.120962
0.127212
0.13626
0.147927
0.162322
0.17238
0.178009
0.180138
0.179616
0.175832
0.169541
0.16411
0.162888
0.163859
0.167881
0.171848
0.172515
0.181192
0.207328
0.253802
0.29892
0.289414
0.27734
0.306293
0.347451
0.365144
0.374141
0.378225
0.376064
0.356261
0.330751
0.298556
0.264987
0.233882
0.220475
0.214907
0.212782
0.208763
0.208386
0.203755
0.203266
0.204231
0.211259
0.215964
0.217303
0.218711
0.206329
0.191202
0.18134
0.172451
0.162235
0.157289
0.160205
0.169116
0.174886
0.190815
0.226858
0.307297
0.470342
0.786239
0.929878
0.936652
0.757325
0.662578
0.663808
0.790095
0.918155
0.945926
0.89841
0.756067
0.589627
0.52848
0.505548
0.503386
0.50631
0.511177
0.528354
0.538833
0.5263
0.518649
0.491287
0.476068
0.457491
0.467001
0.43797
0.374312
0.379247
0.40369
0.438921
0.546219
0.675005
0.839711
0.978491
1.21243
0.988142
0.838715
1.10438
1.90969
2.21989
2.373
2.2558
1.99177
1.89009
1.72969
1.75081
1.97117
2.14595
2.24531
2.15536
2.07776
1.94229
1.66037
1.61775
1.61707
1.42656
1.53951
1.5623
1.63307
2.10275
2.80297
2.85434
3.21026
3.28683
3.76356
5.77283
4.9838
4.52938
3.6901
3.20241
2.76163
2.52381
2.23224
2.16221
2.1724
1.70069
1.52283
1.63015
1.62816
1.52549
1.40752
1.48722
18.744
8.22631
4.15815
2.47139
1.62766
1.14288
0.914284
0.667602
0.633072
0.682419
0.788799
0.781315
0.728734
0.559406
0.360993
0.306696
0.276996
0.24008
0.226219
0.212432
0.190034
0.172021
0.154016
0.140635
0.130967
0.127098
0.126128
0.126618
0.127549
0.127798
0.127186
0.125848
0.12479
0.123335
0.122623
0.122051
0.11969
0.118488
0.119376
0.123274
0.12944
0.138516
0.149378
0.163864
0.179264
0.189967
0.200231
0.20687
0.204885
0.196575
0.180738
0.175642
0.174751
0.176607
0.19098
0.21113
0.204949
0.215395
0.25259
0.329082
0.387287
0.401278
0.409656
0.422458
0.425864
0.433354
0.437162
0.437371
0.419207
0.400398
0.371533
0.329939
0.282357
0.232511
0.211128
0.200828
0.196846
0.193989
0.187334
0.185369
0.187919
0.186016
0.195966
0.200002
0.203768
0.206879
0.197098
0.181374
0.172342
0.167573
0.159168
0.155983
0.156502
0.168526
0.187956
0.227683
0.305902
0.46778
0.766751
0.908494
0.913237
0.722802
0.610938
0.62197
0.727165
0.827052
0.845594
0.808071
0.70731
0.592879
0.523467
0.496138
0.493284
0.499414
0.509494
0.522591
0.527232
0.522015
0.50653
0.474264
0.452482
0.450313
0.439068
0.400792
0.362425
0.353084
0.364707
0.389967
0.517953
0.644537
0.861026
0.930864
0.930377
0.78195
0.749229
0.904315
1.57848
2.09521
2.38561
2.29848
2.04697
1.90317
1.6323
1.68945
2.05116
2.26528
2.39301
2.25984
2.0316
1.93071
1.66579
1.62465
1.53051
1.33879
1.48239
1.50186
1.48073
1.81789
2.64742
2.72878
3.06565
3.1679
3.8037
5.44126
4.89102
4.38695
3.40866
3.08879
2.56266
2.24235
1.99473
1.89528
1.93758
1.62303
1.50866
1.6107
1.58987
1.48025
1.42786
1.51921
22.1179
10.8595
4.29187
2.23706
1.41143
1.07471
0.875051
0.60761
0.567375
0.606745
0.740035
0.768488
0.722622
0.614436
0.42126
0.299873
0.256174
0.22105
0.200438
0.188711
0.169721
0.154108
0.141971
0.132512
0.127464
0.125891
0.126142
0.127581
0.131724
0.132046
0.131267
0.12927
0.12735
0.125938
0.12626
0.127077
0.125397
0.123088
0.124773
0.128842
0.134427
0.143391
0.155776
0.167597
0.181122
0.193765
0.207005
0.226672
0.240766
0.239246
0.228075
0.206113
0.199555
0.199692
0.21143
0.261587
0.310386
0.297862
0.299114
0.351637
0.406701
0.423034
0.427855
0.431028
0.432068
0.439535
0.442363
0.439194
0.419679
0.405435
0.382997
0.348516
0.319214
0.261473
0.218861
0.191006
0.178613
0.17259
0.167489
0.157121
0.154671
0.153774
0.15541
0.167313
0.176901
0.187351
0.19648
0.184561
0.168197
0.165087
0.16182
0.153943
0.145638
0.149371
0.17158
0.217213
0.290347
0.454221
0.727983
0.879951
0.893457
0.728149
0.589999
0.588655
0.674668
0.757202
0.771911
0.749088
0.667823
0.59023
0.520134
0.491738
0.487338
0.490892
0.495272
0.501257
0.502826
0.501287
0.480598
0.451467
0.425074
0.42954
0.418179
0.377396
0.368398
0.333305
0.359243
0.362105
0.458794
0.618015
0.842092
0.898963
0.832545
0.696622
0.717157
0.838143
1.18983
1.5006
1.8466
2.0351
2.00059
1.80295
1.6026
1.7203
2.32928
2.52735
2.4088
2.27345
2.04421
1.96661
1.67658
1.57745
1.44222
1.31536
1.43007
1.44009
1.35091
1.58102
2.35142
2.44433
2.96305
3.0908
3.826
5.0697
4.82723
4.22325