/*--------------------------------*- C++ -*----------------------------------*\
| =========                 |                                                 |
| \\      /  F ield         | OpenFOAM: The Open Source CFD Toolbox           |
|  \\    /   O peration     | Version:  dev                                   |
|   \\  /    A nd           | Web:      http://www.openfoam.org               |
|    \\/     M anipulation  |                                                 |
\*---------------------------------------------------------------------------*/
FoamFile
{
    version     2.0;
    format      ascii;
    class       volScalarField;
    object      k_0;
    location    "9.138";
}
// * * * * * * * * * * * * * * * * * * * * * * * * * * * * * * * * * * * * * //

dimensions      [0 2 -2 0 0 0 0];

internalField   nonuniform List<scalar> 
12225
(
8.81096
12.0544
9.61453
10.4358
9.48562
12.715
12.277
16.469
15.6988
19.4339
19.3824
23.7754
22.8406
26.0401
29.8463
34.3096
34.4105
48.5109
1.79768
6.08609
5.81026
6.76943
5.63962
7.18041
6.22819
8.79765
7.58753
10.1002
9.11704
12.0964
12.4716
12.0715
12.611
17.7532
21.7044
45.1812
0.112912
1.42534
1.7739
3.0916
2.86272
3.54983
3.13167
3.91431
3.64962
3.72695
3.72324
3.89969
5.42924
3.54555
3.63608
2.90402
6.51558
10.9343
0.0124247
0.260633
0.45582
1.0126
1.10093
1.2722
1.32609
1.39115
1.85928
1.58327
1.74317
1.65347
2.37883
2.24118
1.55012
1.42007
2.35102
3.46867
0.00179819
0.0271699
0.0696431
0.194821
0.30688
0.385699
0.553535
0.562849
0.783062
0.776664
0.929777
0.926109
1.2578
1.18721
1.28015
1.25647
1.62308
2.56765
0.000299259
0.00574169
0.0221392
0.0613405
0.0975231
0.229575
0.249905
0.405951
0.444083
0.538665
0.5643
0.838761
1.0627
1.41027
1.40433
1.14457
1.52067
1.69367
0.000241355
0.0101345
0.0128506
0.0157564
0.0316022
0.0763671
0.124386
0.221715
0.315662
0.356922
0.477105
0.549253
0.770964
0.885851
1.02558
0.833305
1.12266
0.923868
0.000410758
0.0105549
0.0111928
0.014841
0.0280305
0.0480438
0.0881669
0.119559
0.16007
0.168116
0.275778
0.315198
0.387702
0.434518
0.639933
0.661151
0.793487
0.973233
0.00119692
0.0127141
0.0157096
0.0212588
0.0337127
0.0487379
0.0744211
0.0820109
0.107524
0.119502
0.15691
0.175519
0.247443
0.276819
0.502984
0.47793
0.483686
0.576041
0.00507034
0.0142076
0.0171954
0.0270984
0.0445631
0.0507365
0.0642151
0.069794
0.0889211
0.0895037
0.104855
0.116676
0.155154
0.20944
0.282975
0.26889
0.252164
0.240921
0.0114294
0.018463
0.0276974
0.0404738
0.0495672
0.0544788
0.0615266
0.0670093
0.0766734
0.0826444
0.0960958
0.103127
0.120353
0.146392
0.176242
0.17509
0.175971
0.176597
0.0165287
0.026269
0.0385687
0.0469991
0.055326
0.0596735
0.0658174
0.0711696
0.0810242
0.086664
0.0965865
0.101171
0.112793
0.128741
0.141161
0.146099
0.148428
0.152306
0.0270615
0.048275
0.0549577
0.0676199
0.0718141
0.0798165
0.0833982
0.0933604
0.102464
0.109728
0.112064
0.115066
0.121378
0.12928
0.1366
0.141635
0.143931
0.145423
0.0531802
0.0834839
0.0932117
0.112436
0.120161
0.13313
0.138906
0.152228
0.162123
0.165899
0.164959
0.16171
0.158941
0.158197
0.158538
0.158605
0.15888
0.158475
0.105871
0.137085
0.152696
0.184523
0.203852
0.2267
0.237927
0.250508
0.256968
0.260547
0.261055
0.258131
0.249426
0.239236
0.229372
0.222592
0.213874
0.207312
0.179477
0.219369
0.239448
0.266735
0.287147
0.302361
0.3109
0.314567
0.315512
0.31492
0.311624
0.302425
0.290746
0.280609
0.268695
0.260587
0.249753
0.242402
0.224323
0.255056
0.271094
0.294078
0.314373
0.326908
0.332174
0.333334
0.333321
0.332066
0.325739
0.314797
0.302578
0.291831
0.278969
0.27028
0.258491
0.250921
0.225511
0.251733
0.268717
0.292365
0.313324
0.325939
0.3307
0.331475
0.331224
0.329571
0.323004
0.31231
0.299991
0.289431
0.276563
0.267833
0.255994
0.248511
0.180427
0.209138
0.23271
0.258333
0.280023
0.294454
0.301349
0.303209
0.303347
0.302302
0.297684
0.288896
0.277771
0.268236
0.25656
0.248742
0.238141
0.23158
0.110548
0.128912
0.14679
0.170071
0.193289
0.212067
0.22444
0.230635
0.232341
0.23267
0.232342
0.230519
0.223855
0.216669
0.207941
0.202198
0.194776
0.190528
0.0670135
0.0781265
0.0892378
0.104045
0.118642
0.130033
0.137359
0.139968
0.140583
0.140564
0.139949
0.13855
0.134667
0.128956
0.123016
0.118861
0.11521
0.113849
0.0337721
0.0418116
0.0510665
0.0602703
0.0689141
0.0776816
0.0842296
0.0867441
0.0871918
0.0871771
0.0863773
0.0841928
0.0820162
0.0805726
0.0791933
0.0780852
0.0771803
0.0771328
0.0179764
0.0242964
0.0300302
0.0339358
0.0368445
0.040747
0.044108
0.047166
0.0492772
0.0525294
0.0552962
0.0591673
0.0624727
0.0651839
0.0667358
0.0677034
0.0681789
0.0686484
0.00817804
0.0121859
0.0139971
0.0166348
0.0203878
0.0270801
0.0317501
0.0363427
0.0401332
0.0455388
0.0503313
0.0569126
0.0622284
0.067384
0.0704927
0.0730903
0.0743103
0.0755667
0.0031033
0.00519527
0.00789186
0.0124928
0.0193856
0.0304041
0.0390164
0.0463686
0.0545223
0.0659628
0.0768598
0.0905954
0.101184
0.111379
0.117593
0.122703
0.1248
0.126986
0.000631782
0.00420339
0.0135742
0.0335771
0.0647537
0.0995367
0.125601
0.144785
0.167679
0.195416
0.221614
0.249489
0.270061
0.286876
0.297368
0.304056
0.305679
0.308318
0.00221017
0.0322215
0.107572
0.243231
0.374517
0.478641
0.547735
0.593093
0.642013
0.691505
0.735491
0.770669
0.795583
0.811162
0.818587
0.818957
0.816494
0.81284
0.0397051
0.36989
0.915407
1.35308
1.65747
1.83912
1.93164
1.96971
2.01114
2.05114
2.07606
2.07925
2.07383
2.05767
2.02819
1.987
1.9416
1.90955
0.7953
3.43128
4.66629
4.89074
4.82927
4.72753
4.60051
4.54581
4.51761
4.4793
4.42528
4.35858
4.28896
4.19245
4.10518
3.97916
3.87145
3.7489
7.03981
11.288
11.0098
9.87795
9.19667
9.2278
9.54556
10.1229
10.715
11.2553
11.7178
12.1007
12.3814
12.5818
12.6858
12.7025
12.6828
12.5185
0.0932098
0.185509
0.285894
0.355705
0.394635
0.412016
0.439704
0.455385
0.479678
0.51704
0.56898
0.625741
0.717572
0.835281
0.942597
1.10601
1.25385
1.42839
1.65805
1.79731
1.95074
2.05343
2.04152
2.02916
2.06357
2.09756
2.14602
2.26481
2.47862
2.70837
2.82888
2.87502
2.89769
2.98654
3.25141
3.68396
4.17002
4.62895
5.11096
5.72234
6.49346
7.35963
8.19807
8.94845
9.60067
10.1558
10.6141
11.0015
11.3404
11.6297
11.8734
12.0998
12.3141
12.5223
12.7249
12.8841
13.0077
13.1061
13.1771
13.1863
13.1645
13.0897
12.9663
12.8366
12.6955
12.5354
12.3776
12.2073
12.0067
11.7253
11.3173
10.8559
10.385
9.93515
9.49546
9.04341
8.54021
7.99171
7.45447
6.93237
6.43042
5.96807
5.53466
5.07135
4.63789
4.26178
3.95752
3.73794
3.6264
3.55788
3.49327
3.39915
3.25114
3.08248
2.90184
2.79909
2.73308
2.69305
2.65032
2.62041
2.63591
2.74902
2.94248
3.06416
3.03954
2.67537
2.5119
2.5401
2.62429
2.6273
2.42191
2.36124
2.79549
3.2728
3.40798
3.41436
3.16736
2.84376
2.60164
2.46409
2.54259
2.96548
3.85937
4.67906
5.21596
5.22012
4.82464
4.17239
4.23875
4.26655
4.60492
5.35762
6.3875
7.0887
7.56429
8.09877
8.65337
9.34767
9.95157
10.7275
11.5625
12.304
12.6276
12.7393
12.6274
12.6232
12.5596
12.639
12.7573
12.2899
11.5025
10.5858
9.70897
8.36258
7.06793
6.4144
5.93747
5.77702
5.1247
4.45529
4.22912
4.86754
6.7419
7.74304
11.5525
12.7008
11.1978
9.66527
10.2117
12.5749
14.7688
16.2201
17.6714
18.6971
18.986
19.1213
19.2836
19.5555
19.9801
20.7263
0.268754
0.339845
0.499087
0.508124
0.437426
0.360126
0.274893
0.234044
0.219295
0.216711
0.219641
0.222981
0.22621
0.23048
0.236126
0.249294
0.272386
0.308939
0.402725
0.506204
0.6736
0.914699
1.05675
1.09554
1.07072
0.974524
0.82482
0.766543
0.760564
0.837196
0.934034
0.947165
0.958836
1.01238
1.19886
1.80044
2.78198
3.31121
3.61094
3.75248
3.84638
3.85877
3.71389
3.4716
3.22208
2.94902
2.70792
2.51895
2.42078
2.38445
2.37183
2.36745
2.40004
2.47629
2.55128
2.6069
2.62751
2.63747
2.66316
2.66053
2.6329
2.60913
2.60247
2.62624
2.64985
2.67843
2.7146
2.70595
2.63299
2.46955
2.25377
2.11569
2.039
1.9884
1.92839
1.82179
1.67486
1.53313
1.42677
1.34011
1.25761
1.20419
1.14333
1.04374
0.997827
0.979046
0.978684
1.03343
1.11744
1.237
1.3012
1.33271
1.32823
1.2883
1.23284
1.21587
1.20804
1.23364
1.23434
1.18149
1.16665
1.20989
1.29153
1.58894
1.90782
1.68362
1.51831
1.70545
2.21903
2.31142
2.25093
2.69372
2.95555
3.04265
2.86575
2.70852
2.56463
2.5049
2.39445
2.27921
2.29269
2.46894
2.69961
2.89854
2.98187
2.83654
2.66844
2.64341
2.76284
2.97675
3.12625
3.45324
4.2584
4.90121
5.08924
5.51174
5.74446
6.09516
6.20189
6.63154
7.69511
8.15324
7.99424
8.18918
7.91943
7.5985
7.70049
8.39093
8.70409
8.57614
8.1327
7.34706
6.86446
5.91631
4.79302
4.53747
4.62227
4.98698
4.59889
3.82039
3.55484
5.25719
8.4628
10.6599
9.68399
9.37977
8.48551
6.95684
6.62892
7.19102
8.45028
9.12764
9.8799
10.9001
11.7845
12.5572
13.1707
13.6836
14.3506
14.3372
0.692321
0.726765
0.751059
0.58386
0.380861
0.236977
0.189165
0.180776
0.183632
0.192128
0.205831
0.210795
0.210075
0.206614
0.197394
0.191889
0.184251
0.180665
0.185877
0.204251
0.250372
0.313347
0.416895
0.556549
0.568425
0.493415
0.436016
0.4382
0.508376
0.73346
0.857112
1.04694
1.63161
1.91784
1.9448
1.98489
2.13721
2.00396
1.79151
1.62084
1.39377
1.17353
0.965117
0.783363
0.638673
0.535733
0.460842
0.422893
0.406301
0.399817
0.399856
0.407321
0.4271
0.454953
0.477922
0.498228
0.506305
0.507601
0.508858
0.505819
0.501606
0.50171
0.515375
0.546051
0.584422
0.625215
0.645766
0.646595
0.620326
0.541764
0.486826
0.47504
0.471765
0.472033
0.470335
0.456823
0.42522
0.389748
0.367292
0.357364
0.350842
0.345893
0.33971
0.331183
0.330307
0.342326
0.370078
0.421205
0.47155
0.51468
0.548445
0.596532
0.614969
0.616964
0.612812
0.61457
0.612611
0.620985
0.616921
0.578405
0.563861
0.56513
0.61166
0.811925
0.930831
0.962534
1.38789
1.88706
2.01417
1.95849
2.34293
2.65347
2.52523
2.26638
2.19782
2.11841
2.13337
2.17489
2.09175
2.04017
2.01559
2.03382
2.13534
2.19625
2.13874
1.91593
1.69324
1.79945
2.12685
2.39169
2.45295
2.51441
2.63358
2.84073
2.86252
3.04879
3.21647
3.39126
3.35854
3.46741
4.09717
4.60438
4.40273
4.44361
4.5238
4.55495
4.56712
4.65359
4.8914
4.89442
4.87246
4.60192
4.48477
4.2289
3.86382
3.6564
3.6384
4.0953
4.42039
3.96349
3.86825
6.48091
7.44894
8.42599
9.74613
8.03412
6.42586
4.71517
3.98475
4.02955
4.57157
5.2596
6.12726
7.16536
7.85769
7.93739
7.72191
7.63523
7.62348
6.62679
1.58576
1.2954
0.847506
0.459616
0.244727
0.183145
0.174029
0.180633
0.198662
0.217864
0.220541
0.217463
0.208907
0.199178
0.189536
0.180103
0.174236
0.166463
0.161787
0.163241
0.17657
0.209552
0.251897
0.297636
0.363363
0.467646
0.533141
0.591518
0.844934
1.48144
1.63167
1.59276
1.59718
1.62548
1.49231
1.2981
1.00363
0.850545
0.692761
0.534467
0.418549
0.323869
0.258543
0.215046
0.18914
0.175542
0.167939
0.164671
0.163482
0.165088
0.168493
0.17203
0.176278
0.181384
0.185923
0.189649
0.191633
0.192914
0.194276
0.195088
0.195499
0.19834
0.205601
0.218734
0.236384
0.259263
0.273698
0.275027
0.268529
0.244015
0.227178
0.224164
0.224456
0.230216
0.232264
0.230935
0.22619
0.219008
0.214806
0.214202
0.214034
0.213877
0.213375
0.212289
0.213066
0.220623
0.239958
0.275354
0.31929
0.340588
0.354638
0.385357
0.398363
0.399383
0.39196
0.389066
0.390294
0.402437
0.406822
0.397141
0.390558
0.417496
0.489529
0.556324
0.673252
0.948405
1.73283
1.85953
1.70674
2.02048
2.39266
2.3912
1.93343
1.82471
1.72151
1.67814
1.74846
1.74592
1.7406
1.78791
1.78771
1.82377
1.88673
1.87591
1.80435
1.4431
1.20512
1.33456
1.56844
1.821
2.05341
2.12424
2.0963
2.13597
2.24607
2.29183
2.3069
2.35695
2.35604
2.45703
2.79603
3.19434
3.14633
3.07831
3.36137
3.6658
3.32224
3.24001
3.31587
3.40609
3.39689
3.4129
3.41656
3.32819
3.4843
3.07467
2.8707
3.33374
3.88387
4.04917
4.35271
5.88377
5.06388
6.10349
9.15898
8.01899
6.17415
3.98594
3.16326
3.12614
3.47155
4.32562
5.19985
5.85247
5.89983
5.29239
4.87872
4.58295
4.36574
3.45139
2.86914
1.61368
0.75754
0.315114
0.19884
0.176788
0.185589
0.21097
0.228371
0.228974
0.222309
0.210687
0.199402
0.185734
0.173262
0.163812
0.160002
0.158805
0.158098
0.160013
0.17008
0.196869
0.248502
0.321234
0.432076
0.614765
1.05747
1.28197
1.33348
1.41927
1.39173
1.25595
1.05187
0.844487
0.686815
0.556112
0.428746
0.323651
0.263008
0.208006
0.176496
0.159152
0.150098
0.145706
0.143956
0.14417
0.145698
0.14773
0.150135
0.153384
0.155453
0.155991
0.155919
0.155279
0.154186
0.152637
0.150211
0.149608
0.149833
0.150145
0.151075
0.153491
0.157146
0.162825
0.170507
0.18085
0.195589
0.201071
0.199881
0.192553
0.184735
0.183569
0.183306
0.185151
0.187008
0.187569
0.188913
0.190325
0.192752
0.193493
0.19379
0.194325
0.193998
0.190953
0.189889
0.191818
0.200315
0.221799
0.256913
0.283237
0.295987
0.313977
0.316789
0.304366
0.287986
0.287202
0.299697
0.324509
0.333192
0.334442
0.354832
0.410789
0.473422
0.539646
0.761368
1.51456
1.77792
1.64911
1.71952
2.18214
2.30009
1.72769
1.46841
1.39191
1.30344
1.28624
1.36249
1.42175
1.61275
1.65593
1.6552
1.67491
1.69464
1.67113
1.46511
1.14818
1.0189
1.14633
1.2571
1.36044
1.49689
1.71183
1.80474
1.9713
2.19103
2.15869
2.04469
1.97201
1.99347
2.17373
2.32341
2.6728
2.71723
2.64767
2.80864
3.20411
2.6781
2.60503
2.66652
2.76768
2.73649
2.88318
2.84747
2.84646
3.22078
2.73274
2.43497
2.62898
3.18893
4.00299
4.27811
5.48899
5.09444
6.23618
6.51783
8.34265
6.28754
3.88143
2.94942
2.86326
3.18541
4.134
4.81018
4.90774
4.40126
3.77955
3.44193
3.17651
2.9094
2.28813
4.35207
1.70147
0.56
0.244032
0.18969
0.190192
0.218292
0.23827
0.239232
0.234416
0.224977
0.213292
0.199467
0.181251
0.165566
0.155449
0.151611
0.150234
0.1514
0.159667
0.179826
0.222568
0.300224
0.463251
0.832307
1.04286
1.11733
1.19115
1.14038
0.961695
0.80473
0.676237
0.54525
0.420639
0.314497
0.254846
0.210896
0.174164
0.158854
0.149293
0.144983
0.143335
0.143032
0.143749
0.145206
0.147131
0.149734
0.153104
0.157463
0.16214
0.167291
0.170378
0.171534
0.172421
0.170694
0.167002
0.161433
0.154731
0.151505
0.151507
0.151963
0.152861
0.155002
0.158652
0.162562
0.16844
0.177685
0.188018
0.190323
0.188559
0.18227
0.17937
0.179436
0.180051
0.180859
0.181302
0.182415
0.186305
0.191686
0.193261
0.19276
0.191673
0.189306
0.184523
0.180615
0.181699
0.187302
0.199309
0.227102
0.257346
0.265139
0.266289
0.258027
0.245937
0.242989
0.254381
0.279739
0.289473
0.294083
0.321186
0.368389
0.463071
0.572731
0.798756
1.38991
1.65489
1.63936
1.57657
1.87988
2.1409
1.96409
1.2819
1.15381
1.0992
1.02034
1.01421
1.06706
1.14247
1.3604
1.50391
1.56415
1.57671
1.53046
1.26486
1.07297
1.00019
0.975615
1.01714
1.12474
1.18092
1.19939
1.57295
1.71023
2.01428
2.38502
2.32179
1.98235
1.8157
1.88957
2.15834
2.19914
2.41054
2.62639
2.61038
2.60049
2.77088
2.47043
2.36502
2.41419
2.49479
2.44965
2.60247
2.45628
2.53208
2.95922
2.81933
2.5207
2.40427
2.941
3.89745
4.05516
4.77942
4.65958
5.81402
5.5422
7.89622
6.33657
3.88305
2.93434
2.8469
3.16518
4.0298
4.36632
3.95476
3.28073
2.86742
2.6627
2.51672
2.26464
1.90565
5.75243
1.6178
0.412896
0.227435
0.204997
0.224101
0.244212
0.251271
0.256502
0.256722
0.252324
0.239897
0.214011
0.184393
0.164762
0.153504
0.149447
0.14908
0.154204
0.172836
0.222519
0.332565
0.574949
0.795574
0.8948
0.977762
0.946415
0.794782
0.687289
0.578791
0.447018
0.357737
0.290162
0.23072
0.185078
0.164598
0.153249
0.146168
0.143617
0.142374
0.14186
0.141652
0.141672
0.141833
0.14202
0.142452
0.143338
0.144894
0.147729
0.152007
0.158343
0.165445
0.171169
0.179028
0.189048
0.193501
0.193198
0.18895
0.181582
0.175261
0.171536
0.170771
0.170984
0.172146
0.174143
0.175821
0.179698
0.18646
0.191401
0.191771
0.189595
0.183132
0.180384
0.180895
0.181728
0.182013
0.183231
0.186923
0.192528
0.194167
0.193058
0.188302
0.18182
0.177676
0.174764
0.17436
0.178944
0.189342
0.200108
0.219857
0.22504
0.224972
0.22154
0.221649
0.233841
0.254228
0.264739
0.266138
0.286329
0.335214
0.482706
0.769593
1.0389
1.32669
1.53362
1.553
1.42398
1.62977
1.89936
1.97196
1.32094
1.01288
0.951238
0.882608
0.821769
0.817915
0.839362
0.892952
1.0391
1.17212
1.31627
1.34462
1.20639
0.956732
0.882986
0.892387
0.932891
0.942733
0.950315
0.988693
1.08294
1.56717
1.73167
2.22942
2.58113
2.62741
2.1512
1.81958
1.89715
2.22727
2.20534
2.29856
2.6939
2.69127
2.60381
2.40689
2.38234
2.41313
2.40829
2.45677
2.39414
2.4481
2.28082
2.29355
2.57287
2.7877
2.89919
2.53007
2.99764
4.07086
4.09399
3.95519
3.91688
5.12382
5.04048
6.72121
6.20109
3.98555
2.95987
2.87338
3.18679
3.83554
3.87788
3.18061
2.59485
2.29841
2.15571
2.05731
1.93317
1.78257
6.85577
1.51286
0.378577
0.24535
0.243236
0.251262
0.259638
0.273154
0.295767
0.30372
0.300668
0.275741
0.240153
0.207286
0.181922
0.170203
0.166102
0.170944
0.195573
0.264234
0.405555
0.594867
0.695718
0.77449
0.7965
0.699516
0.586977
0.507725
0.407142
0.33801
0.26624
0.21467
0.183955
0.161138
0.148643
0.143557
0.141266
0.140253
0.140051
0.140054
0.139706
0.138894
0.137266
0.134638
0.132412
0.132127
0.132295
0.132845
0.134186
0.136214
0.138777
0.143406
0.150523
0.160035
0.171715
0.183589
0.191321
0.195719
0.19874
0.198943
0.19804
0.19729
0.195855
0.194749
0.194241
0.194165
0.19529
0.196424
0.197185
0.19679
0.193392
0.189665
0.185707
0.184947
0.185444
0.186639
0.188301
0.191622
0.192778
0.192371
0.18891
0.179895
0.171765
0.170502
0.170612
0.170637
0.171175
0.177831
0.187665
0.198218
0.203567
0.208457
0.213174
0.220679
0.233951
0.243452
0.243341
0.258302
0.301754
0.4417
0.800466
1.0998
1.28925
1.39324
1.43832
1.31045
1.36382
1.68052
1.80125
1.52837
0.976254
0.831508
0.804187
0.753253
0.734481
0.753591
0.776815
0.834135
0.90364
0.950241
0.994005
0.994105
0.944276
0.872188
0.755411
0.706988
0.800518
0.925007
0.85572
0.930929
1.07171
1.5816
1.77628
2.28779
2.52405
2.63243
2.48897
1.99938
2.10282
2.55853
2.3349
2.35915
2.7608
2.73753
2.68719
2.27967
2.25177
2.40535
2.46037
2.4424
2.41556
2.38504
2.33171
2.26796
2.33308
2.47522
2.85569
2.82815
3.28308
5.00913
4.42664
3.72173
3.78478
5.03128
4.9312
5.99549
5.90016
4.10514
3.03178
2.93124
3.18929
3.63347
3.44775
2.60423
2.16575
1.97365
1.89701
1.83487
1.79772
1.72507
7.78498
1.51776
0.393766
0.293606
0.293663
0.299477
0.302154
0.320372
0.359494
0.372744
0.368783
0.332814
0.297034
0.274111
0.250772
0.242535
0.248256
0.286823
0.348977
0.435143
0.529412
0.59901
0.643643
0.613717
0.534052
0.454439
0.385056
0.316951
0.260288
0.213412
0.181865
0.158286
0.14747
0.141641
0.139107
0.138396
0.138445
0.13833
0.137659
0.136256
0.13395
0.132211
0.131415
0.130718
0.13042
0.130679
0.131315
0.132131
0.133716
0.135511
0.136824
0.138389
0.14141
0.145962
0.153308
0.163903
0.174488
0.181346
0.185343
0.18774
0.189474
0.19212
0.194259
0.195733
0.196921
0.198168
0.198356
0.198632
0.19916
0.201123
0.201358
0.199567
0.196645
0.19586
0.195667
0.197294
0.19728
0.195609
0.195116
0.19217
0.186833
0.177873
0.169766
0.16716
0.167827
0.168017
0.167298
0.16733
0.175313
0.186318
0.192161
0.201788
0.208902
0.218588
0.222799
0.221812
0.231939
0.267712
0.370012
0.711212
1.0293
1.21642
1.29286
1.3124
1.19195
1.15617
1.39332
1.60322
1.60217
1.04475
0.792056
0.726077
0.711955
0.688482
0.683837
0.683218
0.694561
0.744648
0.769163
0.808417
0.819398
0.781554
0.770282
0.77881
0.718842
0.612504
0.679472
0.797006
0.825907
0.951289
1.08958
1.642
1.84028
2.12043
2.28175
2.27401
2.65627
2.31992
2.29683
2.74394
2.53383
2.51658
2.7206
2.4859
2.57887
2.2612
2.18189
2.23796
2.45255
2.31623
2.45746
2.38547
2.34691
2.31234
2.27015
2.21508
2.64529
3.0154
3.18855
4.93724
4.9014
3.83019
3.79476
5.249
5.00302
5.39655
5.51903
4.07788
3.06867
2.96897
3.15873
3.45003
3.14806
2.26172
1.87168
1.77577
1.80378
1.78086
1.72421
1.65753
8.78926
1.7207
0.499002
0.395683
0.395155
0.395506
0.391485
0.39903
0.426197
0.44569
0.437269
0.366899
0.338705
0.334514
0.333659
0.333565
0.348097
0.380151
0.423292
0.466629
0.508908
0.519609
0.481909
0.414901
0.364823
0.304745
0.255533
0.215311
0.183645
0.158498
0.146205
0.13937
0.136818
0.135688
0.136215
0.136252
0.135995
0.135236
0.133694
0.13163
0.130738
0.13039
0.130439
0.130674
0.130833
0.131133
0.131705
0.132637
0.134587
0.137196
0.1383
0.139429
0.142436
0.14711
0.152442
0.158132
0.16637
0.171649
0.173326
0.174648
0.176073
0.177836
0.18075
0.183701
0.18686
0.189089
0.190764
0.192604
0.195481
0.199103
0.200475
0.201854
0.204325
0.206127
0.20677
0.207368
0.209574
0.2073
0.203352
0.201064
0.191891
0.180552
0.173085
0.167085
0.166609
0.167145
0.16693
0.164845
0.169221
0.17406
0.17569
0.184574
0.19776
0.205248
0.208038
0.213914
0.237675
0.306318
0.53754
0.88557
1.11938
1.20708
1.22381
1.07546
1.01732
1.11173
1.35049
1.4296
1.24795
0.817847
0.685971
0.656668
0.649403
0.638847
0.624031
0.603654
0.603757
0.625928
0.635336
0.666861
0.665987
0.621802
0.608995
0.628357
0.659338
0.602695
0.642728
0.653201
0.803185
0.916315
1.07072
1.73646
1.97691
2.26449
2.15554
1.81165
2.1111
2.36495
2.32262
2.67281
2.7425
2.57298
2.5865
2.20092
2.36609
2.27431
2.09683
2.07089
2.25303
2.09401
2.21919
2.38493
2.28303
2.2363
2.21972
2.14158
2.31469
3.14938
2.73593
3.18909
4.89531
3.91046
3.90734
5.35216
5.04463
5.06968
5.14113
3.97412
3.06025
2.97192
3.09036
3.293
2.95321
2.11811
1.73784
1.66175
1.70471
1.72543
1.68226
1.61257
10.4571
2.43548
0.800136
0.599554
0.564332
0.532987
0.51143
0.507175
0.516096
0.522042
0.51835
0.435938
0.377392
0.369224
0.375545
0.375044
0.381381
0.398286
0.42009
0.438942
0.423092
0.389568
0.345535
0.303752
0.259165
0.219031
0.185338
0.163496
0.146832
0.137709
0.134146
0.13271
0.13275
0.134139
0.134666
0.134753
0.134408
0.133562
0.131968
0.130483
0.129913
0.130166
0.130548
0.131216
0.132526
0.133436
0.133821
0.13431
0.1353
0.137337
0.139901
0.141736
0.143732
0.148022
0.155278
0.161624
0.167332
0.172413
0.173539
0.174436
0.176001
0.178067
0.180981
0.184232
0.187592
0.189455
0.190368
0.190898
0.191444
0.192901
0.194867
0.197896
0.200757
0.203201
0.206177
0.207684
0.21064
0.215651
0.216703
0.219828
0.22071
0.204128
0.195863
0.183989
0.168863
0.168242
0.168936
0.165875
0.164464
0.169129
0.172819
0.17576
0.185899
0.198898
0.204901
0.217911
0.258555
0.379204
0.665533
0.970372
1.12261
1.1591
0.997616
0.902246
0.908616
1.10111
1.21474
1.21759
0.989372
0.687407
0.60943
0.594241
0.590987
0.589658
0.571266
0.558981
0.570742
0.570633
0.562267
0.577993
0.568203
0.545252
0.533348
0.516276
0.567421
0.565779
0.513089
0.61209
0.763564
0.8069
1.05238
1.83697
2.09883
2.6299
1.99247
1.75869
1.75178
2.14359
2.2166
2.3359
2.63986
2.6715
2.34582
2.3957
2.45758
2.34877
2.06864
2.05794
2.07328
1.99897
1.86297
2.1525
2.05915
1.9272
2.03364
2.02616
1.95724
3.10711
2.79241
2.60829
4.02008
3.80804
3.89706
5.61156
5.24565
4.97556
4.83276
3.71405
3.03318
2.95591
2.95765
3.10384
2.78443
2.01093
1.69939
1.62794
1.65336
1.66764
1.62723
1.58299
11.9453
2.90203
1.18191
0.920048
0.769722
0.666059
0.611039
0.591756
0.627382
0.645698
0.592894
0.524889
0.435884
0.401376
0.383703
0.386292
0.390308
0.385967
0.369271
0.3481
0.32127
0.293035
0.262098
0.229283
0.196796
0.169006
0.149074
0.138385
0.132549
0.130289
0.129871
0.130326
0.131349
0.132347
0.132566
0.132187
0.131484
0.130147
0.129096
0.128741
0.130236
0.133359
0.134228
0.135248
0.137315
0.140629
0.143021
0.143293
0.141824
0.141701
0.144471
0.151492
0.153382
0.152347
0.155626
0.166758
0.184547
0.185536
0.181267
0.179795
0.181255
0.185783
0.1919
0.198575
0.202741
0.203737
0.203895
0.202441
0.199391
0.197337
0.197263
0.19844
0.200251
0.202676
0.204499
0.205785
0.207327
0.209826
0.215163
0.21963
0.231695
0.232481
0.222644
0.216726
0.190221
0.172733
0.171869
0.169672
0.163419
0.162306
0.165171
0.169091
0.174768
0.183544
0.194351
0.219659
0.283453
0.426999
0.741229
0.989573
1.08338
1.03026
0.842596
0.799349
0.855131
1.0592
1.12292
1.07634
0.845674
0.620624
0.561479
0.553876
0.553391
0.551464
0.54499
0.547509
0.555634
0.527644
0.520068
0.522769
0.52319
0.513487
0.494112
0.45765
0.48584
0.481263
0.456191
0.585586
0.716276
0.785196
0.96612
1.77455
2.16934
2.31148
1.46844
1.46184
1.67978
2.07047
2.07038
2.09097
2.24807
2.44986
2.05161
2.19139
2.45373
2.35663
2.08001
2.12271
2.08319
2.04742
1.78843
1.80076
1.78822
1.69503
1.78473
1.8477
1.77888
2.9509
2.92387
2.6147
3.44516
3.52978
3.80441
5.79536
5.33575
4.88414
4.48267
3.5522
3.00727
2.9138
2.74115
2.84108
2.60264
1.91038
1.65722
1.64432
1.64911
1.61766
1.5157
1.52224
13.8167
3.99316
2.15591
1.71462
1.24824
0.923526
0.758577
0.637565
0.645168
0.682803
0.732052
0.739251
0.610574
0.410856
0.372058
0.382566
0.375943
0.338278
0.314143
0.296286
0.264903
0.23405
0.209204
0.183491
0.159161
0.143149
0.133768
0.129605
0.128015
0.127768
0.127582
0.127918
0.128599
0.12814
0.126392
0.123998
0.122386
0.121002
0.120744
0.12271
0.128693
0.137573
0.147343
0.15291
0.154646
0.157426
0.159321
0.160567
0.161211
0.159888
0.157619
0.158524
0.161337
0.164856
0.163551
0.167233
0.185177
0.22279
0.232093
0.208386
0.202164
0.207575
0.221584
0.238351
0.247189
0.249003
0.249885
0.244725
0.234529
0.222584
0.215489
0.212212
0.209792
0.210406
0.210574
0.208209
0.207049
0.206284
0.206711
0.210404
0.217341
0.228303
0.227691
0.226083
0.21402
0.190914
0.180016
0.176695
0.165726
0.159315
0.158326
0.162133
0.167553
0.174435
0.189742
0.222307
0.29716
0.453202
0.774333
0.961821
1.00424
0.876558
0.751058
0.732701
0.829139
0.990778
1.03982
0.995992
0.802236
0.601461
0.542576
0.529535
0.529038
0.526854
0.525876
0.539594
0.549028
0.52661
0.518842
0.501219
0.49752
0.4764
0.472855
0.447515
0.427266
0.416994
0.450137
0.512124
0.601296
0.762098
0.864166
1.25772
1.76788
1.48671
0.998773
1.25292
1.83423
2.10928
2.10409
2.08636
2.04956
2.12396
1.92358
1.82624
2.09537
2.23667
2.16764
2.13683
2.15486
2.09474
1.69166
1.64011
1.66815
1.53579
1.63964
1.68443
1.73206
2.50707
2.89182
2.79555
3.33943
3.3971
3.78846
5.85456
5.21097
4.72485
4.06396
3.40787
2.94079
2.78315
2.49659
2.51808
2.40369
1.80983
1.5912
1.65823
1.65185
1.57995
1.43633
1.49237
15.9086
5.50461
3.46691
2.34173
1.56599
1.10411
0.878952
0.660769
0.646359
0.706263
0.79955
0.78123
0.681552
0.435006
0.352515
0.335966
0.315739
0.278713
0.261545
0.245668
0.222849
0.198524
0.175072
0.157131
0.140295
0.132148
0.128496
0.127363
0.127767
0.127822
0.127381
0.126388
0.125537
0.123908
0.12242
0.121405
0.11943
0.118569
0.118985
0.122123
0.128645
0.138002
0.15001
0.164925
0.17546
0.181192
0.18337
0.18275
0.178284
0.171456
0.165829
0.164564
0.165529
0.169647
0.173972
0.174637
0.183648
0.210272
0.256
0.300921
0.292511
0.282561
0.31249
0.35129
0.367103
0.375278
0.378446
0.375579
0.354691
0.328711
0.296279
0.262936
0.232815
0.220398
0.21541
0.213274
0.209206
0.208662
0.204263
0.204141
0.205229
0.212548
0.216587
0.217361
0.218072
0.206056
0.190974
0.181466
0.172851
0.162863
0.157795
0.160299
0.168914
0.174595
0.190147
0.224296
0.300694
0.457756
0.774464
0.935533
0.949022
0.774909
0.667003
0.664121
0.783171
0.916571
0.949315
0.90753
0.771997
0.601618
0.535902
0.510385
0.507921
0.510773
0.515128
0.532325
0.543297
0.529925
0.522969
0.495312
0.480439
0.461019
0.471521
0.442929
0.378223
0.384556
0.413696
0.449281
0.555034
0.690816
0.844498
0.995385
1.25681
1.00711
0.85247
1.1625
1.96817
2.25256
2.35886
2.23588
1.99532
1.89551
1.74122
1.78147
2.02422
2.18581
2.27166
2.15582
2.07954
1.93903
1.65913
1.62799
1.62306
1.41702
1.54721
1.56817
1.64535
2.1098
2.81151
2.8519
3.23398
3.29365
3.821
5.78453
5.05743
4.57765
3.71357
3.24632
2.78068
2.54487
2.24682
2.16636
2.18407
1.71956
1.5388
1.64734
1.64889
1.54203
1.42388
1.49627
18.5809
8.64603
4.20001
2.47759
1.62412
1.14579
0.917435
0.669102
0.635791
0.684996
0.79208
0.785288
0.733649
0.577597
0.364398
0.305068
0.273217
0.236504
0.222104
0.208475
0.186165
0.168762
0.15166
0.139042
0.13051
0.127375
0.126847
0.127626
0.128814
0.129136
0.128399
0.126916
0.125737
0.124309
0.123851
0.123391
0.120663
0.11952
0.120759
0.125127
0.131373
0.140641
0.151665
0.166357
0.18184
0.192866
0.203591
0.21058
0.208537
0.199394
0.182857
0.178135
0.177312
0.179184
0.195549
0.216619
0.208948
0.21937
0.257928
0.333624
0.389154
0.402271
0.41043
0.422179
0.425502
0.433001
0.437063
0.437281
0.419139
0.40016
0.370462
0.328102
0.280172
0.231176
0.210955
0.201685
0.198074
0.195203
0.187583
0.185807
0.188851
0.187416
0.19757
0.201096
0.204189
0.206431
0.196861
0.181679
0.172617
0.168006
0.159827
0.15675
0.157265
0.168082
0.186936
0.225108
0.299676
0.455547
0.756511
0.91363
0.925586
0.741909
0.615259
0.623135
0.722877
0.826874
0.849355
0.815681
0.717899
0.604085
0.531137
0.501349
0.497938
0.503913
0.514151
0.527264
0.532257
0.526725
0.511275
0.478232
0.45764
0.454604
0.444392
0.405809
0.363079
0.357273
0.368869
0.399954
0.526117
0.658023
0.869899
0.934616
0.946112
0.78907
0.757302
0.946163
1.66239
2.14827
2.38851
2.28976
2.03578
1.88146
1.62955
1.73114
2.11797
2.3063
2.40379
2.24082
2.02857
1.92807
1.66138
1.62933
1.52347
1.33968
1.49319
1.50203
1.48323
1.82911
2.64596
2.72298
3.09669
3.17676
3.86639
5.438
4.96241
4.4413
3.43007
3.13586
2.58532
2.25601
2.00693
1.9013
1.94309
1.63621
1.52708
1.62172
1.60844
1.49644
1.44519
1.53086
22.6235
11.1033
4.24638
2.18471
1.37338
1.06738
0.865203
0.596224
0.561539
0.59927
0.72954
0.767479
0.722647
0.619112
0.433418
0.301054
0.255668
0.220629
0.199286
0.187362
0.168639
0.153138
0.141539
0.13243
0.127831
0.126521
0.126929
0.128758
0.133408
0.134106
0.133205
0.131067
0.128937
0.127556
0.128082
0.129028
0.127322
0.124981
0.126903
0.130717
0.136329
0.145494
0.158157
0.169962
0.183737
0.19677
0.210639
0.230965
0.24547
0.244078
0.23249
0.209965
0.203683
0.20414
0.217578
0.270681
0.321178
0.308937
0.309137
0.359491
0.407842
0.421463
0.425974
0.429532
0.431531
0.439584
0.442674
0.440544
0.420938
0.40695
0.383978
0.349034
0.317884
0.259066
0.217146
0.190581
0.178726
0.172882
0.168468
0.157573
0.154855
0.154514
0.156942
0.16899
0.1781
0.187937
0.196004
0.184678
0.168753
0.16518
0.16207
0.154892
0.14649
0.149787
0.170311
0.215034
0.285707
0.443436
0.71869
0.883904
0.90452
0.7469
0.595416
0.590367
0.672541
0.758696
0.775696
0.75583
0.676687
0.599695
0.527946
0.497392
0.492184
0.495581
0.500552
0.506946
0.508611
0.506761
0.48527
0.456275
0.430744
0.43562
0.422183
0.381091
0.371748
0.335174
0.364744
0.367178
0.469628
0.635682
0.860225
0.899712
0.830847
0.702594
0.724171
0.860367
1.24578
1.56617
1.90278
2.05843
1.99478
1.78248
1.60903
1.78376
2.40234
2.53734
2.39765
2.26045
2.04463
1.96303
1.67467
1.57864
1.43963
1.32136
1.43732
1.43293
1.35078
1.58798
2.33681
2.43472
2.99267
3.10372
3.88752
5.06209
4.90092
4.28345
3.20848
3.06217
2.44693
2.00247
1.80701
1.74554
1.71892