/*--------------------------------*- C++ -*----------------------------------*\
| =========                 |                                                 |
| \\      /  F ield         | OpenFOAM: The Open Source CFD Toolbox           |
|  \\    /   O peration     | Version:  dev                                   |
|   \\  /    A nd           | Web:      http://www.openfoam.org               |
|    \\/     M anipulation  |                                                 |
\*---------------------------------------------------------------------------*/
FoamFile
{
    version     2.0;
    format      ascii;
    class       volScalarField;
    object      muSgs;
    location    "9.138";
}
// * * * * * * * * * * * * * * * * * * * * * * * * * * * * * * * * * * * * * //

dimensions      [1 -1 -1 0 0 0 0];

internalField   nonuniform List<scalar> 
12225
(
0.000211155
0.000240088
0.000207816
0.00021053
0.000197643
0.000221579
0.000217382
0.000241463
0.000238008
0.000253556
0.000258945
0.000267914
0.000275453
0.000276118
0.000309481
0.000301461
0.000309572
0.000380721
0.000100958
0.000184948
0.000177015
0.000188405
0.000167448
0.000187174
0.000169077
0.000199687
0.000179797
0.000204904
0.000190401
0.00021612
0.000214584
0.000207126
0.000211438
0.00024333
0.000285319
0.000419333
2.64198e-05
9.3555e-05
0.000102156
0.000133001
0.000124838
0.000137885
0.0001258
0.000139849
0.00013154
0.000131193
0.000128426
0.000129239
0.000152966
0.000120143
0.000121282
0.000108697
0.000180152
0.000271222
9.21185e-06
4.15129e-05
5.39424e-05
7.90764e-05
8.09179e-05
8.57844e-05
8.61521e-05
8.6304e-05
9.9359e-05
8.88428e-05
9.23258e-05
8.71827e-05
0.000105928
0.000101773
8.25824e-05
7.68828e-05
0.000111629
0.000150125
3.67261e-06
1.37253e-05
2.18697e-05
3.61179e-05
4.49694e-05
4.98491e-05
5.89375e-05
5.79354e-05
6.74634e-05
6.55722e-05
7.12086e-05
6.91688e-05
8.03967e-05
7.60407e-05
7.90063e-05
7.60472e-05
8.76987e-05
0.00011088
1.48711e-06
6.98452e-06
1.34429e-05
2.11766e-05
2.65363e-05
4.01703e-05
4.10935e-05
5.22533e-05
5.33641e-05
5.77121e-05
5.7794e-05
7.01816e-05
7.75767e-05
8.94658e-05
8.68097e-05
7.49126e-05
8.72736e-05
9.36066e-05
1.45156e-06
9.86102e-06
1.08136e-05
1.14552e-05
1.58679e-05
2.38565e-05
3.05655e-05
3.95511e-05
4.75299e-05
4.84438e-05
5.60444e-05
5.81786e-05
6.88614e-05
7.1409e-05
7.83255e-05
6.92723e-05
8.14086e-05
7.09713e-05
1.67e-06
8.70981e-06
8.85147e-06
9.92146e-06
1.31916e-05
1.69361e-05
2.2538e-05
2.61265e-05
2.94604e-05
2.95228e-05
3.72676e-05
3.94337e-05
4.30692e-05
4.50133e-05
5.40769e-05
5.43522e-05
5.90627e-05
6.2436e-05
3.05467e-06
1.0179e-05
1.12649e-05
1.28358e-05
1.57493e-05
1.85841e-05
2.24337e-05
2.31693e-05
2.62469e-05
2.7072e-05
3.03121e-05
3.14426e-05
3.68575e-05
3.82988e-05
5.1303e-05
4.89751e-05
4.91439e-05
5.39317e-05
6.88803e-06
1.17341e-05
1.2706e-05
1.55744e-05
1.95959e-05
2.04904e-05
2.26648e-05
2.31095e-05
2.56823e-05
2.51844e-05
2.67679e-05
2.77385e-05
3.14287e-05
3.62692e-05
4.17921e-05
3.98059e-05
3.83749e-05
3.7233e-05
1.12295e-05
1.44851e-05
1.7376e-05
2.05431e-05
2.23507e-05
2.29536e-05
2.39517e-05
2.45715e-05
2.57141e-05
2.61765e-05
2.77549e-05
2.82488e-05
2.99331e-05
3.25334e-05
3.55929e-05
3.46571e-05
3.41447e-05
3.35923e-05
1.4756e-05
1.86496e-05
2.21227e-05
2.39602e-05
2.55464e-05
2.59855e-05
2.68311e-05
2.73047e-05
2.85707e-05
2.89945e-05
3.01083e-05
3.02167e-05
3.13617e-05
3.285e-05
3.39466e-05
3.38715e-05
3.35259e-05
3.33955e-05
2.06589e-05
2.72945e-05
2.85509e-05
3.11259e-05
3.14901e-05
3.25549e-05
3.26471e-05
3.38135e-05
3.47312e-05
3.52572e-05
3.5014e-05
3.47841e-05
3.50722e-05
3.54999e-05
3.58026e-05
3.57708e-05
3.54161e-05
3.49658e-05
3.11916e-05
3.85986e-05
4.00564e-05
4.32149e-05
4.38762e-05
4.53082e-05
4.53823e-05
4.65438e-05
4.71165e-05
4.67607e-05
4.5855e-05
4.45789e-05
4.3297e-05
4.23282e-05
4.15415e-05
4.07519e-05
3.99916e-05
3.91687e-05
4.73138e-05
5.33294e-05
5.5204e-05
5.94474e-05
6.1309e-05
6.33969e-05
6.37325e-05
6.41273e-05
6.37054e-05
6.29092e-05
6.18407e-05
6.03387e-05
5.82214e-05
5.59708e-05
5.37241e-05
5.19126e-05
4.99522e-05
4.8224e-05
6.60701e-05
7.2188e-05
7.38845e-05
7.63952e-05
7.77737e-05
7.83172e-05
7.79297e-05
7.69362e-05
7.56044e-05
7.41068e-05
7.24224e-05
7.0037e-05
6.73947e-05
6.49962e-05
6.23858e-05
6.03148e-05
5.79641e-05
5.60067e-05
7.89259e-05
8.31687e-05
8.40688e-05
8.58694e-05
8.71502e-05
8.72809e-05
8.63789e-05
8.4948e-05
8.33583e-05
8.16749e-05
7.94944e-05
7.66796e-05
7.38071e-05
7.11549e-05
6.82623e-05
6.59719e-05
6.33244e-05
6.12169e-05
7.91331e-05
8.25005e-05
8.35743e-05
8.55166e-05
8.69206e-05
8.70842e-05
8.61372e-05
8.46535e-05
8.30665e-05
8.13525e-05
7.91131e-05
7.63778e-05
7.34899e-05
7.08551e-05
6.79942e-05
6.56829e-05
6.30319e-05
6.09439e-05
6.618e-05
7.02358e-05
7.26986e-05
7.52e-05
7.69222e-05
7.75299e-05
7.70471e-05
7.58698e-05
7.45475e-05
7.30568e-05
7.12342e-05
6.89579e-05
6.63666e-05
6.40692e-05
6.15069e-05
5.94568e-05
5.71271e-05
5.528e-05
4.85502e-05
5.15919e-05
5.39724e-05
5.7025e-05
5.97659e-05
6.15781e-05
6.22717e-05
6.201e-05
6.11968e-05
6.00958e-05
5.90243e-05
5.7767e-05
5.59361e-05
5.41031e-05
5.1989e-05
5.03864e-05
4.85381e-05
4.71318e-05
3.55535e-05
3.77545e-05
3.95425e-05
4.19165e-05
4.39958e-05
4.52899e-05
4.57761e-05
4.53919e-05
4.47183e-05
4.38947e-05
4.30642e-05
4.20622e-05
4.07743e-05
3.92223e-05
3.75767e-05
3.63218e-05
3.50581e-05
3.42598e-05
2.37394e-05
2.59277e-05
2.81054e-05
3.00241e-05
3.1533e-05
3.28751e-05
3.37092e-05
3.36226e-05
3.31285e-05
3.25687e-05
3.18637e-05
3.09159e-05
3.00169e-05
2.925e-05
2.85019e-05
2.78288e-05
2.71504e-05
2.66687e-05
1.63176e-05
1.86295e-05
2.03116e-05
2.1215e-05
2.16655e-05
2.24019e-05
2.30029e-05
2.33913e-05
2.35215e-05
2.39233e-05
2.40916e-05
2.45406e-05
2.47886e-05
2.48869e-05
2.47642e-05
2.4485e-05
2.41545e-05
2.37771e-05
1.03365e-05
1.23808e-05
1.30263e-05
1.40294e-05
1.53201e-05
1.74152e-05
1.85916e-05
1.95261e-05
2.01704e-05
2.11213e-05
2.17687e-05
2.27908e-05
2.33902e-05
2.39338e-05
2.40917e-05
2.40581e-05
2.38749e-05
2.35944e-05
5.95531e-06
7.64258e-06
9.37403e-06
1.16772e-05
1.43322e-05
1.76915e-05
1.9734e-05
2.1097e-05
2.24376e-05
2.42015e-05
2.5625e-05
2.73347e-05
2.83521e-05
2.92285e-05
2.9517e-05
2.95803e-05
2.93294e-05
2.89933e-05
2.54642e-06
6.72169e-06
1.20399e-05
1.86271e-05
2.52565e-05
3.06427e-05
3.37541e-05
3.5484e-05
3.7363e-05
3.94958e-05
4.12385e-05
4.29058e-05
4.3828e-05
4.43476e-05
4.43243e-05
4.40215e-05
4.33152e-05
4.26926e-05
4.77887e-06
1.80898e-05
3.21612e-05
4.68709e-05
5.68494e-05
6.29604e-05
6.60576e-05
6.73657e-05
6.86873e-05
6.99106e-05
7.07294e-05
7.10636e-05
7.08782e-05
7.0257e-05
6.93007e-05
6.80283e-05
6.66844e-05
6.53006e-05
1.91459e-05
5.73731e-05
8.71754e-05
0.00010314
0.000111675
0.000115357
0.000116031
0.000115028
0.000114097
0.000113123
0.000111761
0.000109819
0.000107699
0.000105336
0.000102692
9.97969e-05
9.68379e-05
9.42817e-05
7.95314e-05
0.000161592
0.000183916
0.000184515
0.000179821
0.000174579
0.00016911
0.000165087
0.000161662
0.000158141
0.00015441
0.00015051
0.000146625
0.000142345
0.000138309
0.000133683
0.000129465
0.000125035
0.00021753
0.000269844
0.000259538
0.000240079
0.000226336
0.00022172
0.000220757
0.000222641
0.000224465
0.000225544
0.000225706
0.00022502
0.00022337
0.000221016
0.00021788
0.000214077
0.000210066
0.000204947
2.63931e-05
3.78918e-05
4.70177e-05
5.27204e-05
5.58796e-05
5.74389e-05
5.96889e-05
6.10859e-05
6.29941e-05
6.56899e-05
6.91956e-05
7.28361e-05
7.81927e-05
8.47108e-05
9.0215e-05
9.80521e-05
0.000104849
0.000111813
0.00012115
0.000126505
0.000131706
0.000135968
0.000135698
0.000134864
0.000136014
0.000137229
0.000138432
0.000141669
0.000148174
0.000155663
0.000160556
0.000163337
0.000164762
0.000166738
0.000171582
0.00018056
0.000191043
0.000200813
0.000210305
0.000221544
0.000235314
0.000250525
0.000265001
0.000277669
0.00028847
0.000297595
0.000305182
0.000311668
0.000317424
0.000322485
0.000326919
0.000331091
0.000335081
0.000338963
0.000342778
0.000346029
0.000348804
0.000351258
0.000353378
0.000354703
0.000355641
0.000355903
0.00035546
0.000354836
0.000353958
0.000352688
0.0003513
0.000349689
0.000347676
0.000344637
0.000339841
0.000334025
0.000327772
0.000321575
0.000315287
0.000308583
0.000300825
0.000291953
0.000282836
0.000273545
0.000264249
0.000255407
0.000246762
0.000237003
0.000227467
0.000218863
0.000211595
0.000206341
0.000203688
0.000202016
0.000200606
0.000198684
0.000195538
0.000191735
0.000187322
0.000184636
0.000182932
0.000182019
0.000181746
0.000182577
0.000184219
0.000189108
0.000195231
0.000196829
0.000197873
0.00019044
0.000188241
0.000189763
0.00018994
0.000185314
0.000176128
0.000174287
0.000190517
0.000207893
0.000212681
0.000213272
0.000207048
0.000197875
0.000190682
0.000186895
0.000190844
0.000207146
0.000237833
0.000262327
0.00027649
0.000277578
0.000269571
0.000250728
0.000253523
0.000255087
0.000265051
0.000285409
0.000309963
0.000326732
0.00033905
0.000351742
0.000365211
0.000380272
0.000393266
0.000407914
0.00042412
0.000438214
0.000446309
0.000448337
0.000448495
0.000448619
0.000446759
0.000445807
0.000446019
0.000438051
0.000423607
0.000406214
0.000389723
0.000365266
0.000339215
0.000322041
0.000307584
0.000302996
0.000288698
0.000273887
0.000277235
0.000303223
0.000337121
0.000361231
0.000438024
0.000447411
0.000417103
0.000394098
0.000410122
0.000453441
0.000485734
0.000505643
0.000526081
0.000540542
0.000545824
0.000550066
0.000555113
0.000562163
0.000571177
0.00058499
4.47363e-05
5.03447e-05
6.14747e-05
6.28456e-05
5.91392e-05
5.41159e-05
4.76558e-05
4.4064e-05
4.2643e-05
4.24567e-05
4.27435e-05
4.31306e-05
4.37034e-05
4.40893e-05
4.50845e-05
4.6633e-05
4.88952e-05
5.2823e-05
5.97748e-05
6.74191e-05
7.80835e-05
9.05067e-05
9.88172e-05
0.000102163
0.000100822
9.66675e-05
8.9752e-05
8.72797e-05
8.79788e-05
9.2102e-05
9.64225e-05
9.48169e-05
9.56756e-05
0.000101166
0.000108563
0.000124669
0.000153174
0.000169366
0.000178388
0.000182741
0.00018598
0.0001873
0.000185146
0.000179995
0.000174323
0.000167614
0.000161302
0.000156093
0.000153414
0.000152682
0.000152762
0.000153099
0.000154511
0.000157413
0.000160326
0.000162682
0.000164045
0.000164973
0.000166382
0.000166936
0.000166693
0.000166558
0.000167006
0.000168423
0.000169758
0.000171088
0.000172729
0.000172905
0.000171001
0.000166039
0.000159066
0.000154608
0.000152335
0.000150936
0.000148925
0.000144779
0.000138746
0.000132691
0.000127913
0.000123862
0.000120017
0.000117605
0.000114637
0.000109368
0.000107177
0.000106695
0.000107199
0.00011185
0.000117679
0.000125076
0.000128754
0.000130883
0.000131574
0.00013041
0.000128466
0.000127971
0.000127746
0.000129149
0.000129209
0.000127415
0.000127276
0.000129873
0.000138043
0.000154374
0.0001635
0.000157626
0.000161644
0.000173286
0.000183398
0.000175489
0.000171209
0.00019181
0.000199
0.000194417
0.000195183
0.00019587
0.000190411
0.000191492
0.000190046
0.000185913
0.000186564
0.000193771
0.000203353
0.000211894
0.000214925
0.000209646
0.000204087
0.000203273
0.000211133
0.00022044
0.000227162
0.000239927
0.000263585
0.000280864
0.000286736
0.000299132
0.000308181
0.000320234
0.000325902
0.000336207
0.000362347
0.000376414
0.000379827
0.000384788
0.000384059
0.00037889
0.000380782
0.000394963
0.000401765
0.000399039
0.00038997
0.000373863
0.000360814
0.000338858
0.000312856
0.000303902
0.000305244
0.000313029
0.000301515
0.00027945
0.000281606
0.000320597
0.000311647
0.000357505
0.000424554
0.000432118
0.000404169
0.000375376
0.000378091
0.000392588
0.000412671
0.000416871
0.000424543
0.000438631
0.000453066
0.000467799
0.000480361
0.000492511
0.000506222
0.000508331
7.08634e-05
7.24271e-05
7.51092e-05
6.79479e-05
5.57293e-05
4.42546e-05
3.94363e-05
3.84134e-05
3.85707e-05
3.92406e-05
4.06938e-05
4.10922e-05
4.10021e-05
4.11448e-05
4.00164e-05
3.9927e-05
3.93968e-05
3.89742e-05
4.01005e-05
4.18379e-05
4.71677e-05
5.37385e-05
6.08071e-05
7.12164e-05
7.42151e-05
7.05709e-05
6.55428e-05
6.51898e-05
6.97688e-05
8.50036e-05
9.25991e-05
9.83051e-05
0.000118238
0.000129221
0.000130577
0.000131444
0.000137533
0.000134429
0.000127672
0.000121951
0.000113767
0.000105028
9.581e-05
8.67588e-05
7.86493e-05
7.21741e-05
6.70032e-05
6.41208e-05
6.2847e-05
6.24199e-05
6.25843e-05
6.32905e-05
6.49691e-05
6.73267e-05
6.93157e-05
7.11081e-05
7.20153e-05
7.23706e-05
7.27002e-05
7.27259e-05
7.26752e-05
7.29711e-05
7.42867e-05
7.6924e-05
7.99575e-05
8.3031e-05
8.47476e-05
8.49289e-05
8.2949e-05
7.71721e-05
7.31632e-05
7.2596e-05
7.26615e-05
7.29291e-05
7.28348e-05
7.15292e-05
6.8608e-05
6.54192e-05
6.3273e-05
6.21425e-05
6.13043e-05
6.07667e-05
6.01003e-05
5.88675e-05
5.86559e-05
5.99058e-05
6.24996e-05
6.80065e-05
7.33985e-05
7.90945e-05
8.3287e-05
8.84122e-05
9.07986e-05
9.1331e-05
9.06377e-05
9.08543e-05
9.11986e-05
9.22136e-05
9.2061e-05
8.875e-05
8.66911e-05
8.73436e-05
9.26066e-05
0.000105917
0.000112602
0.000121457
0.000151847
0.000172045
0.000166985
0.000160198
0.00017666
0.000186691
0.000179918
0.000174777
0.000175675
0.000172207
0.000180292
0.00018463
0.00017818
0.00017882
0.000179744
0.000178646
0.000182974
0.000185403
0.00018168
0.000167017
0.000151388
0.000160336
0.000178485
0.000189661
0.000194448
0.000202854
0.000211994
0.000220767
0.000222005
0.000227915
0.000233093
0.00024075
0.000241777
0.000244007
0.000265174
0.000288233
0.000287255
0.000292826
0.000301856
0.000298609
0.000293697
0.00030224
0.000314365
0.00031628
0.000316009
0.000310686
0.000305637
0.00030117
0.000288868
0.000261591
0.000262058
0.000293301
0.000307993
0.000299161
0.000302079
0.000302035
0.000242916
0.000323016
0.000369655
0.000397973
0.000368275
0.000331666
0.000315257
0.000311026
0.000316925
0.000326016
0.000340053
0.000361156
0.000377108
0.000379622
0.000377362
0.00037682
0.000375511
0.0003497
0.00010639
9.72463e-05
8.08708e-05
6.11794e-05
4.49197e-05
3.85811e-05
3.74431e-05
3.78953e-05
3.95387e-05
4.1445e-05
4.16749e-05
4.16034e-05
4.0989e-05
4.02112e-05
3.95405e-05
3.88638e-05
3.83979e-05
3.74978e-05
3.72519e-05
3.72893e-05
3.83114e-05
4.3282e-05
4.89843e-05
5.23168e-05
5.698e-05
6.68554e-05
7.31363e-05
7.63044e-05
8.61083e-05
0.000113304
0.000119767
0.000118388
0.000118224
0.000119958
0.000115795
0.00010868
9.57963e-05
8.85125e-05
8.0225e-05
7.09516e-05
6.30463e-05
5.56536e-05
4.97444e-05
4.52643e-05
4.22877e-05
4.05943e-05
3.95941e-05
3.91574e-05
3.90123e-05
3.92132e-05
3.96707e-05
4.01765e-05
4.08201e-05
4.16029e-05
4.23375e-05
4.30031e-05
4.34451e-05
4.3767e-05
4.40711e-05
4.4282e-05
4.44381e-05
4.48748e-05
4.58604e-05
4.75584e-05
4.97478e-05
5.24997e-05
5.44374e-05
5.50192e-05
5.44505e-05
5.15976e-05
4.94284e-05
4.89726e-05
4.91068e-05
4.98532e-05
5.01065e-05
4.99432e-05
4.9357e-05
4.86097e-05
4.81554e-05
4.79563e-05
4.76335e-05
4.73572e-05
4.72186e-05
4.67859e-05
4.6597e-05
4.73932e-05
4.94623e-05
5.36003e-05
5.8595e-05
6.21016e-05
6.44196e-05
6.84513e-05
7.09642e-05
7.15087e-05
6.96873e-05
6.85686e-05
6.93889e-05
7.26961e-05
7.46123e-05
7.34325e-05
7.24196e-05
7.6345e-05
8.25832e-05
8.54523e-05
9.70764e-05
0.000123137
0.000165221
0.000161903
0.000149598
0.000164017
0.000178978
0.000174931
0.0001588
0.000158184
0.000154046
0.000157501
0.000161542
0.000159094
0.000166373
0.000170795
0.000166971
0.000168654
0.000171359
0.000167348
0.000160241
0.000138694
0.000125711
0.000134684
0.000147691
0.000157783
0.000166677
0.000176184
0.000185486
0.00019279
0.000199337
0.000202287
0.000199899
0.000201632
0.000204428
0.000203921
0.000214983
0.000239965
0.000238859
0.000245145
0.000262862
0.000253779
0.000230658
0.000245061
0.000258339
0.000264712
0.000270582
0.00027174
0.000265157
0.000276202
0.00027775
0.000220788
0.000208188
0.000251579
0.000287731
0.000309356
0.000332374
0.000286314
0.000280753
0.00040041
0.000291253
0.000373354
0.000365472
0.000320417
0.000289261
0.00027434
0.000275238
0.000294992
0.000314062
0.000330072
0.000331698
0.000315512
0.000305081
0.000295503
0.000286842
0.000253335
0.000142801
0.000109616
7.7352e-05
5.07688e-05
4.00307e-05
3.75632e-05
3.82746e-05
4.06608e-05
4.24691e-05
4.26116e-05
4.21308e-05
4.11699e-05
4.03505e-05
3.94744e-05
3.84378e-05
3.76592e-05
3.74477e-05
3.71e-05
3.7159e-05
3.76344e-05
3.8408e-05
4.07661e-05
4.62853e-05
5.44087e-05
6.42414e-05
7.47784e-05
9.60056e-05
0.000105433
0.000107645
0.000111198
0.000110881
0.00010594
9.75885e-05
8.78034e-05
7.93911e-05
7.17014e-05
6.30012e-05
5.50376e-05
4.9644e-05
4.41246e-05
4.05283e-05
3.83256e-05
3.71108e-05
3.65386e-05
3.63536e-05
3.64549e-05
3.67135e-05
3.70335e-05
3.73748e-05
3.77897e-05
3.80533e-05
3.81317e-05
3.81431e-05
3.81176e-05
3.80552e-05
3.79729e-05
3.78083e-05
3.78894e-05
3.80944e-05
3.83453e-05
3.867e-05
3.91765e-05
3.98418e-05
4.07298e-05
4.1864e-05
4.3359e-05
4.54752e-05
4.66052e-05
4.68108e-05
4.59933e-05
4.48625e-05
4.44774e-05
4.4355e-05
4.45333e-05
4.46504e-05
4.46464e-05
4.49209e-05
4.52585e-05
4.56948e-05
4.5824e-05
4.56886e-05
4.53726e-05
4.52303e-05
4.46965e-05
4.42146e-05
4.40468e-05
4.48551e-05
4.76782e-05
5.25083e-05
5.66172e-05
5.86313e-05
6.1158e-05
6.18348e-05
5.9949e-05
5.73818e-05
5.76726e-05
6.04619e-05
6.35991e-05
6.44405e-05
6.43928e-05
6.62885e-05
7.26391e-05
7.95889e-05
8.70467e-05
0.00010846
0.000154262
0.000160489
0.000149249
0.000151571
0.000172083
0.000173538
0.000146951
0.000139206
0.000136605
0.000132594
0.000134656
0.00013671
0.000143179
0.000156636
0.000156749
0.00015966
0.000161016
0.000156608
0.000151719
0.000141771
0.000127004
0.000123111
0.000127007
0.000132177
0.000137759
0.000138887
0.000153646
0.000167161
0.000182793
0.00019493
0.00019555
0.000186767
0.000183607
0.00018935
0.000191325
0.000192747
0.000219991
0.000216754
0.000223715
0.000244452
0.000228436
0.000191814
0.000209349
0.000227279
0.000227372
0.00024229
0.000249843
0.000230724
0.000256538
0.000270419
0.000213731
0.00019338
0.000207972
0.000247983
0.000303981
0.000342439
0.000277225
0.000318639
0.000413153
0.000255459
0.000357536
0.000366555
0.000325437
0.000283274
0.000260333
0.000260599
0.000286065
0.00030167
0.000303544
0.000288127
0.00026991
0.000261218
0.000253107
0.000240033
0.000211396
0.00017599
0.00011356
6.71398e-05
4.44125e-05
3.8801e-05
3.86878e-05
4.13534e-05
4.34102e-05
4.36337e-05
4.32321e-05
4.25538e-05
4.20777e-05
4.13393e-05
3.9888e-05
3.8432e-05
3.73315e-05
3.65005e-05
3.5694e-05
3.54366e-05
3.61967e-05
3.86453e-05
4.41373e-05
5.26323e-05
6.42549e-05
8.47162e-05
9.42719e-05
9.782e-05
0.000101439
0.000100171
9.32036e-05
8.54968e-05
7.84843e-05
7.05866e-05
6.2082e-05
5.38762e-05
4.84701e-05
4.39481e-05
3.98064e-05
3.78988e-05
3.6645e-05
3.61086e-05
3.59717e-05
3.60562e-05
3.62835e-05
3.66158e-05
3.69991e-05
3.74667e-05
3.80103e-05
3.86426e-05
3.92832e-05
3.99331e-05
4.02958e-05
4.04032e-05
4.04673e-05
4.02466e-05
3.97985e-05
3.91686e-05
3.84311e-05
3.8108e-05
3.82399e-05
3.84877e-05
3.88071e-05
3.92938e-05
3.99277e-05
4.05588e-05
4.14342e-05
4.27514e-05
4.4296e-05
4.48876e-05
4.48569e-05
4.40006e-05
4.33413e-05
4.31072e-05
4.32473e-05
4.35383e-05
4.3586e-05
4.3795e-05
4.43134e-05
4.50722e-05
4.5396e-05
4.54184e-05
4.51536e-05
4.49107e-05
4.44791e-05
4.39664e-05
4.35792e-05
4.343e-05
4.45114e-05
4.83919e-05
5.31068e-05
5.46567e-05
5.50554e-05
5.41116e-05
5.30148e-05
5.36826e-05
5.63672e-05
5.9376e-05
5.89722e-05
5.88976e-05
6.30821e-05
6.98119e-05
8.03426e-05
9.11972e-05
0.000110403
0.000146403
0.000154785
0.00015027
0.000147584
0.000161966
0.000169753
0.000157639
0.000127439
0.000124172
0.000119086
0.000115112
0.000116056
0.000117463
0.000124265
0.000136563
0.000144719
0.00015388
0.000152584
0.000145966
0.000132391
0.000124216
0.000122138
0.000122954
0.000121965
0.000124569
0.000129553
0.000126717
0.000147352
0.000161592
0.000183733
0.000198428
0.000198222
0.00018189
0.000176167
0.00018459
0.000189097
0.000185909
0.000209282
0.000208612
0.000215525
0.00023814
0.000219125
0.000185833
0.000192375
0.000212647
0.000204234
0.000223933
0.000234918
0.000203883
0.000233749
0.000257127
0.000233174
0.000216841
0.00019945
0.00022763
0.000287106
0.000345566
0.000270306
0.000297766
0.000334644
0.000274115
0.000318296
0.000357441
0.000328831
0.000285037
0.000258398
0.000257218
0.000280355
0.000286542
0.000271506
0.000246723
0.00023293
0.000227796
0.000224723
0.000210567
0.000193978
0.000203343
0.000111861
5.76123e-05
4.2178e-05
3.98276e-05
4.17929e-05
4.39173e-05
4.46988e-05
4.52058e-05
4.53172e-05
4.52904e-05
4.4961e-05
4.30741e-05
4.03914e-05
3.83463e-05
3.68846e-05
3.60926e-05
3.58556e-05
3.6425e-05
3.87539e-05
4.45049e-05
5.4099e-05
7.05525e-05
8.22402e-05
8.70574e-05
9.14446e-05
9.13565e-05
8.48597e-05
7.91003e-05
7.24295e-05
6.37563e-05
5.70565e-05
5.12265e-05
4.55564e-05
4.0631e-05
3.82297e-05
3.68549e-05
3.60166e-05
3.5841e-05
3.58571e-05
3.59981e-05
3.61812e-05
3.63885e-05
3.66067e-05
3.68281e-05
3.70623e-05
3.73277e-05
3.76522e-05
3.81167e-05
3.87201e-05
3.95394e-05
4.03627e-05
4.09491e-05
4.17656e-05
4.2834e-05
4.32873e-05
4.32005e-05
4.2741e-05
4.19115e-05
4.12313e-05
4.0895e-05
4.0909e-05
4.10501e-05
4.12976e-05
4.16288e-05
4.18957e-05
4.23389e-05
4.31264e-05
4.37642e-05
4.4041e-05
4.40452e-05
4.33884e-05
4.30397e-05
4.31792e-05
4.34573e-05
4.35561e-05
4.37455e-05
4.42337e-05
4.48446e-05
4.50025e-05
4.50004e-05
4.45092e-05
4.36831e-05
4.34953e-05
4.35866e-05
4.39464e-05
4.39701e-05
4.42738e-05
4.51993e-05
4.8123e-05
4.91656e-05
4.94919e-05
5.01487e-05
5.18592e-05
5.42201e-05
5.60919e-05
5.59837e-05
5.57945e-05
5.96986e-05
6.69103e-05
8.18538e-05
0.000104822
0.000123518
0.000140279
0.000147882
0.000145086
0.000140152
0.000152639
0.000162786
0.000158082
0.000126714
0.000114921
0.000112485
0.000105219
0.000103418
0.000104521
0.000106148
0.000112275
0.000120341
0.000127739
0.000136788
0.000135662
0.000128914
0.000118014
0.000113776
0.000112775
0.000117953
0.00012102
0.000113137
0.000116561
0.000123248
0.000148003
0.000162967
0.000189875
0.000192112
0.000199961
0.000190004
0.000178702
0.000185001
0.000190619
0.00018474
0.000198334
0.000213784
0.000207468
0.000229824
0.000213502
0.000193278
0.000194436
0.000208855
0.000196044
0.000217007
0.000226315
0.00019464
0.000210779
0.000230671
0.000238885
0.00024317
0.000212544
0.000227884
0.000256169
0.000357638
0.00025466
0.000274795
0.000298992
0.000289239
0.000286613
0.000343628
0.000333668
0.000287617
0.000258624
0.000255824
0.000271681
0.000269192
0.000242016
0.000216807
0.00020527
0.000200026
0.000198031
0.000191811
0.000187161
0.000224
0.000108272
5.43788e-05
4.31867e-05
4.31318e-05
4.39425e-05
4.49073e-05
4.62675e-05
4.82466e-05
4.87945e-05
4.86096e-05
4.74505e-05
4.51186e-05
4.24253e-05
4.02163e-05
3.90308e-05
3.85652e-05
3.89286e-05
4.11208e-05
4.72435e-05
5.88457e-05
7.13401e-05
7.66947e-05
8.11021e-05
8.3195e-05
7.92176e-05
7.29021e-05
6.76705e-05
6.05953e-05
5.50621e-05
4.86213e-05
4.35747e-05
4.02684e-05
3.76664e-05
3.62202e-05
3.57884e-05
3.57619e-05
3.59142e-05
3.61533e-05
3.63903e-05
3.65444e-05
3.66155e-05
3.65532e-05
3.63251e-05
3.61093e-05
3.61438e-05
3.62577e-05
3.64227e-05
3.67007e-05
3.70738e-05
3.7508e-05
3.82079e-05
3.91848e-05
4.04097e-05
4.18522e-05
4.32364e-05
4.39924e-05
4.42904e-05
4.43779e-05
4.42174e-05
4.4079e-05
4.40389e-05
4.39781e-05
4.39704e-05
4.402e-05
4.41562e-05
4.44741e-05
4.47875e-05
4.49619e-05
4.49492e-05
4.45574e-05
4.42143e-05
4.39565e-05
4.40458e-05
4.41262e-05
4.43221e-05
4.45592e-05
4.49311e-05
4.50177e-05
4.48577e-05
4.43532e-05
4.32639e-05
4.2289e-05
4.21109e-05
4.21002e-05
4.29001e-05
4.31545e-05
4.34194e-05
4.38521e-05
4.54565e-05
4.6932e-05
4.83969e-05
5.03304e-05
5.181e-05
5.2681e-05
5.2729e-05
5.25677e-05
5.55187e-05
6.32007e-05
7.86301e-05
0.000105289
0.000123793
0.000134773
0.000139135
0.000138542
0.000132189
0.000137805
0.000156723
0.000157078
0.000135379
0.000108959
0.000105943
0.000103675
9.82953e-05
9.93897e-05
0.000101615
0.000104466
0.00011063
0.000114521
0.000118101
0.000120768
0.000118227
0.000116433
0.000114524
0.000106052
9.77426e-05
0.000108851
0.000122726
0.000110693
0.000113493
0.000123857
0.000150649
0.00016604
0.000188342
0.000170529
0.000181417
0.000196906
0.000189833
0.000191072
0.000203018
0.000201623
0.000216577
0.000218753
0.000190586
0.000214287
0.000214753
0.000197358
0.000195826
0.000211529
0.000192062
0.000208888
0.000223088
0.000203032
0.000204513
0.000211913
0.000224845
0.000238754
0.000231016
0.000222964
0.000217903
0.000360978
0.000267712
0.000268091
0.000313203
0.000301682
0.000268729
0.000325917
0.000336878
0.000290265
0.0002597
0.000254242
0.000263429
0.000253443
0.000217112
0.000195097
0.000188458
0.000185666
0.000184979
0.000186673
0.000188544
0.000241189
0.000108045
5.47829e-05
4.65262e-05
4.68219e-05
4.76733e-05
4.85341e-05
5.05009e-05
5.38277e-05
5.47389e-05
5.40853e-05
5.18109e-05
4.95385e-05
4.78719e-05
4.6164e-05
4.53491e-05
4.58159e-05
4.91521e-05
5.41145e-05
6.06485e-05
6.69511e-05
7.11287e-05
7.40431e-05
7.34998e-05
6.91031e-05
6.38247e-05
5.86325e-05
5.3108e-05
4.79195e-05
4.33504e-05
3.99388e-05
3.72754e-05
3.61497e-05
3.56209e-05
3.55605e-05
3.57321e-05
3.59592e-05
3.61334e-05
3.61846e-05
3.61092e-05
3.58615e-05
3.5661e-05
3.55585e-05
3.54611e-05
3.54357e-05
3.549e-05
3.56143e-05
3.57933e-05
3.6115e-05
3.65049e-05
3.68243e-05
3.71392e-05
3.76221e-05
3.83121e-05
3.93797e-05
4.09027e-05
4.24721e-05
4.35103e-05
4.40956e-05
4.43559e-05
4.44416e-05
4.45676e-05
4.46033e-05
4.46786e-05
4.48778e-05
4.51275e-05
4.52087e-05
4.5317e-05
4.54589e-05
4.58501e-05
4.60448e-05
4.59598e-05
4.56641e-05
4.55885e-05
4.56242e-05
4.58004e-05
4.58858e-05
4.56809e-05
4.55893e-05
4.52449e-05
4.46591e-05
4.33945e-05
4.22544e-05
4.20122e-05
4.15246e-05
4.15225e-05
4.22123e-05
4.25211e-05
4.2582e-05
4.31416e-05
4.43859e-05
4.59825e-05
4.75608e-05
4.91549e-05
4.98841e-05
4.9609e-05
5.14591e-05
5.80227e-05
7.20095e-05
9.91537e-05
0.000117652
0.000127918
0.000132281
0.000131963
0.000125282
0.000124026
0.000137333
0.000150663
0.000147357
0.000111081
9.91027e-05
9.93762e-05
9.74632e-05
9.50925e-05
9.51883e-05
9.40623e-05
9.56371e-05
0.000100269
0.000101341
0.000104944
0.000105479
0.000100991
0.000100908
0.000103712
0.000102657
9.5633e-05
0.000102118
0.000113113
0.000114182
0.000117999
0.000125367
0.000152796
0.000169203
0.000179801
0.000166559
0.000160021
0.000180624
0.000197209
0.000196129
0.000206677
0.000209176
0.000234171
0.000202829
0.000169983
0.00018989
0.00021388
0.000199783
0.000190908
0.00021218
0.00018648
0.000194679
0.000215088
0.000208542
0.000203352
0.000205304
0.000211056
0.000223591
0.000244756
0.000202442
0.000198374
0.000333845
0.00028534
0.000276811
0.000322852
0.000305862
0.000254882
0.000307787
0.000334098
0.000291208
0.00026025
0.000252094
0.000256428
0.000242646
0.000201779
0.000180622
0.000180158
0.000182461
0.000185283
0.00018726
0.000187927
0.000258443
0.000113612
6.10699e-05
5.45592e-05
5.49148e-05
5.49805e-05
5.47866e-05
5.55641e-05
5.81178e-05
5.99173e-05
5.87662e-05
5.36731e-05
5.22347e-05
5.21168e-05
5.25736e-05
5.28588e-05
5.40338e-05
5.64494e-05
5.9696e-05
6.2685e-05
6.57041e-05
6.70565e-05
6.51908e-05
6.06971e-05
5.69769e-05
5.19636e-05
4.74804e-05
4.34151e-05
4.00523e-05
3.72313e-05
3.58469e-05
3.51485e-05
3.50679e-05
3.51469e-05
3.54393e-05
3.56397e-05
3.57855e-05
3.58292e-05
3.57222e-05
3.54979e-05
3.53868e-05
3.53341e-05
3.53495e-05
3.53796e-05
3.54032e-05
3.54612e-05
3.55375e-05
3.56502e-05
3.59316e-05
3.63969e-05
3.67294e-05
3.70323e-05
3.74775e-05
3.80571e-05
3.87568e-05
3.96209e-05
4.09771e-05
4.20869e-05
4.27229e-05
4.31363e-05
4.34198e-05
4.36821e-05
4.40099e-05
4.43236e-05
4.45808e-05
4.47904e-05
4.4929e-05
4.51849e-05
4.55498e-05
4.59931e-05
4.61019e-05
4.62331e-05
4.66148e-05
4.69391e-05
4.71508e-05
4.73854e-05
4.77478e-05
4.7617e-05
4.72384e-05
4.66867e-05
4.55325e-05
4.41715e-05
4.28353e-05
4.23291e-05
4.21375e-05
4.13427e-05
4.16222e-05
4.25264e-05
4.31871e-05
4.24261e-05
4.21832e-05
4.33011e-05
4.55185e-05
4.71899e-05
4.87133e-05
4.97136e-05
5.32742e-05
6.37665e-05
8.70399e-05
0.000109101
0.00012089
0.000125864
0.000126841
0.000119217
0.000116881
0.000121782
0.000131497
0.000136196
0.000127799
0.00010025
9.38291e-05
9.45814e-05
9.38081e-05
9.21616e-05
8.92389e-05
8.64868e-05
8.75702e-05
8.97768e-05
8.99259e-05
9.25964e-05
9.13093e-05
8.65768e-05
8.56251e-05
8.8953e-05
9.4331e-05
9.68501e-05
9.71446e-05
0.000102557
0.000110633
0.000113834
0.000126031
0.000156651
0.000180986
0.000182584
0.000180385
0.000159724
0.000155234
0.00018635
0.000194163
0.000199132
0.000205287
0.00021747
0.000189879
0.000171969
0.000182992
0.000203987
0.000189553
0.000184681
0.000195813
0.000174432
0.000175811
0.0002004
0.000203843
0.000193513
0.000198245
0.000205689
0.000200759
0.000256796
0.000188731
0.000189349
0.000287898
0.000281171
0.000293565
0.000324956
0.000307198
0.0002524
0.000294536
0.000329135
0.00028762
0.000257748
0.000248337
0.000251305
0.000236487
0.000196457
0.000176753
0.000177527
0.000181097
0.000188282
0.000191346
0.000188677
0.000281313
0.000133769
7.67834e-05
6.59283e-05
6.37714e-05
6.23123e-05
6.14864e-05
6.17437e-05
6.3017e-05
6.45252e-05
6.45883e-05
5.84271e-05
5.48332e-05
5.48391e-05
5.55538e-05
5.57349e-05
5.62489e-05
5.76994e-05
5.92937e-05
6.09439e-05
6.04853e-05
5.83234e-05
5.51265e-05
5.16098e-05
4.76785e-05
4.37185e-05
4.01295e-05
3.76697e-05
3.57219e-05
3.46882e-05
3.44539e-05
3.45646e-05
3.48558e-05
3.52691e-05
3.5596e-05
3.58173e-05
3.59448e-05
3.58968e-05
3.57084e-05
3.54707e-05
3.53315e-05
3.52873e-05
3.5261e-05
3.52943e-05
3.54406e-05
3.56077e-05
3.57435e-05
3.58461e-05
3.59496e-05
3.62013e-05
3.66718e-05
3.71839e-05
3.76717e-05
3.815e-05
3.8774e-05
3.93039e-05
4.02283e-05
4.13712e-05
4.20783e-05
4.26137e-05
4.31657e-05
4.36886e-05
4.42547e-05
4.48408e-05
4.52076e-05
4.54493e-05
4.54661e-05
4.55146e-05
4.55385e-05
4.57066e-05
4.59589e-05
4.63807e-05
4.66445e-05
4.69027e-05
4.72884e-05
4.74865e-05
4.79454e-05
4.84763e-05
4.87785e-05
4.9175e-05
4.89789e-05
4.71696e-05
4.58469e-05
4.41088e-05
4.25855e-05
4.20144e-05
4.1557e-05
4.17018e-05
4.22028e-05
4.27801e-05
4.28371e-05
4.29111e-05
4.45405e-05
4.61564e-05
4.77033e-05
5.00272e-05
5.64165e-05
7.19039e-05
9.6392e-05
0.000112519
0.000120079
0.000122
0.000113478
0.000110055
0.000112337
0.00012281
0.000122691
0.000120128
0.000109795
9.2459e-05
8.87889e-05