/*--------------------------------*- C++ -*----------------------------------*\
| =========                 |                                                 |
| \\      /  F ield         | OpenFOAM: The Open Source CFD Toolbox           |
|  \\    /   O peration     | Version:  dev                                   |
|   \\  /    A nd           | Web:      http://www.openfoam.org               |
|    \\/     M anipulation  |                                                 |
\*---------------------------------------------------------------------------*/
FoamFile
{
    version     2.0;
    format      ascii;
    class       volScalarField;
    object      p;
    location    "9.138";
}
// * * * * * * * * * * * * * * * * * * * * * * * * * * * * * * * * * * * * * //

dimensions      [1 -1 -2 0 0 0 0];

internalField   nonuniform List<scalar> 
12225
(
93293.2
93351
93447.3
93590.8
93752.8
93949.7
94165.9
94421.3
94672.8
94966.5
95264.1
95616.7
95934.7
96305.6
96666.7
97071.7
97392
97430.4
93286.9
93347.2
93444.5
93586.2
93749.1
93946.1
94161.6
94419.5
94667.8
94963.6
95257.6
95615.9
95927.6
96301
96661.7
97072.4
97445.1
97850.2
93277
93338.6
93436.6
93576.4
93739.8
93936.6
94152.8
94407.2
94659.9
94953.4
95245
95607.1
95910.6
96279.7
96651
97056
97457
97917.1
93261.4
93322
93421
93559.5
93723.1
93919.6
94136.1
94387.4
94645.5
94934.2
95229.7
95576.8
95883.4
96248.7
96618.8
97017.2
97446.7
97843.5
93235.9
93296.1
93395.7
93533
93697.2
93892.7
94110.7
94357.3
94617.9
94904.9
95204.6
95535.1
95845.6
96208.4
96552.9
96978.7
97373
97700.2
93196
93258.2
93358.3
93494.2
93658.5
93853.8
94071.8
94315.9
94577.3
94862.7
95162.5
95486.3
95800.8
96149.7
96485.8
96884.7
97248
97589.6
93141.3
93203.9
93304.9
93440
93604.3
93798.9
94017.5
94259.9
94522.5
94803.4
95101.9
95417.4
95739.3
96064.5
96405.6
96769.5
97128.9
97459.2
93076.5
93140.8
93243.1
93377.4
93541.9
93736.3
93954.3
94195.7
94459.2
94736.6
95031.6
95342
95659.2
95975.6
96324.9
96657.9
97019.6
97330
93010.5
93072.4
93175.5
93309.4
93474.4
93668.9
93886.8
94126.8
94389.1
94665.2
94959.5
95262.7
95578
95887.5
96234.4
96568.5
96892.5
97182.8
92919.2
92982.2
93085.8
93219.5
93386
93579.2
93797.3
94036.3
94297.2
94570.3
94861.4
95160.4
95474.2
95776.6
96112.9
96420.3
96731.1
97015.3
92800.4
92864
92966.9
93100.9
93268.4
93460.5
93677.8
93916.4
94174.9
94446.1
94732.9
95027.5
95331.3
95636.1
95950
96248.8
96542.3
96817.9
92648.5
92708.4
92810.6
92944.7
93112.6
93304.1
93521.4
93758.2
94014.5
94283
94565.1
94854.4
95150.8
95448.3
95746.2
96035.9
96314.9
96580.8
92446.5
92503.2
92605.3
92739.8
92907.3
93099.3
93315.6
93551.6
93804.8
94070.5
94347.5
94631.7
94919.9
95208.7
95494.9
95774
96042.8
96299.1
92179.2
92236
92337.4
92472.5
92639.7
92832.3
93048.1
93283
93534
93797
94069.1
94347.6
94628.6
94909
95185.8
95455.7
95716.3
95965.6
91831.4
91891.3
91992.1
92128.3
92295.5
92489.3
92705.1
92939.6
93188.7
93449.3
93717.6
93991
94265.9
94539.5
94809
95072
95326.4
95570.7
91411
91460.2
91557.2
91693.4
91861.4
92056.6
92273.4
92508.1
92756.6
93015.5
93281.4
93551.2
93821.9
94090.8
94355.6
94614.3
94865.1
95106.9
90880.8
90926.9
91021.3
91157.7
91327.4
91524.5
91743.3
91979.6
92229
92488
92753.3
93021.9
93290.8
93557.9
93820.9
94078.2
94328.4
94570.5
90286
90334.6
90429.8
90567.7
90739.8
90939.6
91161.4
91400.3
91652.2
91913.3
92180.3
92450.2
92720.4
92988.5
93252.8
93511.7
93764.2
94009
89739.6
89788
89884.5
90024.2
90198.7
90401.4
90626.2
90868.4
91123.5
91387.7
91657.7
91930.5
92203.6
92474.7
92742.2
93004.5
93260.5
93509.5
89290.5
89335.1
89431.9
89573
89749.6
89954.8
90182.6
90427.8
90686
90953.5
91226.7
91502.8
91779.1
92053.7
92324.6
92590.7
92850.6
93103.7
88919.2
88968.3
89066.6
89209.2
89387.7
89595
89825.4
90073.4
90334.5
90604.9
90881
91160.1
91439.6
91717.3
91991.7
92261.1
92524.7
92781.5
88630.6
88680.7
88779.7
88923.3
89103.3
89312.7
89545.2
89795.6
90059
90331.9
90610.6
90892.2
91174.3
91454.8
91732
92004.4
92271
92530.9
88422.3
88461.9
88559.6
88704
88885.3
89096.3
89330.6
89582.8
89848.2
90123
90403.7
90687.4
90971.7
91254.4
91533.9
91808.6
92077.6
92340.1
88257.6
88296.9
88394.4
88539.5
88722.1
88934.3
89170
89423.7
89690.6
89967
90249.2
90534.5
90820.4
91104.8
91386.1
91662.7
91933.5
92198
88135.8
88175.8
88273.8
88419.6
88603.1
88816.4
89053.1
89307.9
89575.9
89853.4
90136.8
90423.2
90710.4
90996.1
91278.6
91556.6
91828.8
92094.7
88047.8
88089.4
88188.4
88334.9
88519.2
88733.3
88970.7
89226.3
89495
89773.3
90057.6
90344.9
90632.9
90919.5
91202.9
91481.8
91755.1
92022
87988
88030.6
88130.6
88277.7
88462.6
88677.2
88915.2
89171.1
89440.5
89719.3
90004.1
90292.1
90580.6
90867.8
91151.8
91431.3
91705.3
91973
87946.4
87993.3
88093.9
88241.5
88426.9
88641.9
88880.1
89136.4
89406.1
89685.2
89970.4
90258.7
90547.7
90835.2
91119.6
91399.5
91674
91942.2
87925.7
87972.8
88073.3
88221.2
88406.8
88622.1
88860.5
89117
89386.9
89666.3
89951.7
90240.2
90529.4
90817.1
91101.8
91382
91656.7
91925.2
87920.7
87965.1
88065.2
88213
88398.6
88613.8
88852.4
89109
89379
89658.5
89944
90232.6
90521.9
90809.8
91094.5
91374.8
91649.7
91918.5
101931
101921
101901
101873
101836
101788
101731
101664
101587
101501
101406
101303
101192
101073
100946
100813
100674
100529
100378
100221
100060
99893.3
99722
99547.3
99369.8
99189.8
99009.4
98829.5
98649.9
98471.2
98294.5
98119.9
97948.6
97781.3
97617.8
97458.5
97304.2
97153.6
97006.1
96862.3
96722.6
96586.4
96453.1
96322.2
96193.3
96066.5
95941.6
95818.4
95696.4
95574.8
95453
95330.3
95206.1
95079.4
94949.3
94814.8
94674.5
94528.5
94376.4
94216.5
94047.3
93866.9
93674.8
93470.5
93253.9
93025.2
92784.5
92531.6
92266.2
91988.8
91699.9
91400.5
91091.7
90773.9
90448.9
90118.1
89783.1
89445.5
89106.9
88769.1
88433.8
88102.2
87776.2
87457.5
87146.9
86845.3
86553.1
86270.3
85997.9
85737.5
85490.6
85257.7
85040.7
84841.2
84660.6
84500
84360.9
84244.1
84150.6
84081.9
84038.8
84021.7
84031.4
84066.6
84125.4
84209.6
84323.1
84463.1
84619.3
84782.7
84952.4
85130.7
85312
85497.5
85677.7
85854.4
86017.6
86165
86296.3
86408.6
86496.2
86557.1
86585.1
86579.2
86540
86474.5
86378.5
86250
86099.6
85920.2
85718.5
85491.6
85247.1
84988.9
84718.7
84435.8
84139.2
83828.2
83497.6
83145.7
82768.2
82363.1
81927.5
81455.9
80932.9
80368.7
79770.2
79132.5
78456.1
77743.7
77040.5
76347
75653
75003.7
74427.2
73915.2
73499.2
73164.7
72907.5
72716.4
72593.1
72534.1
72534.3
72600.3
72711.2
72822.1
73009.5
73220
73487.3
73823.7
74211.5
74622.1
75041
75483.1
75944.5
76427.3
76931.6
77453.5
77983.7
78525.9
101939
101929
101910
101881
101844
101796
101739
101672
101595
101510
101415
101312
101201
101082
100956
100824
100685
100540
100390
100235
100074
99908
99738.4
99564.3
99387
99208.3
99029.1
98849.6
98669.5
98489.5
98311.4
98137.8
97969.8
97803
97635.8
97475.4
97323.4
97174.6
97026.5
96881.2
96739.8
96602.3
96468.1
96336.5
96207.4
96080.4
95955.4
95832
95709.7
95587.7
95465.5
95342.4
95217.6
95090.2
94959.4
94824.2
94683.5
94537.3
94384.9
94224.8
94055.5
93874.3
93681.5
93476.5
93259.1
93029.6
92788
92535.3
92269.6
91991.5
91702.4
91402.9
91093.8
90775.8
90450.6
90119.7
89784.9
89447.6
89109.4
88772
88437.1
88106.1
87780.4
87462.3
87152.9
86852.8
86562.5
86281.7
86010.5
85750.3
85503.4
85270.8
85054.2
84855.3
84675.8
84516.3
84378.2
84262.2
84169.5
84101.4
84059.1
84042.9
84052.9
84088.3
84146.5
84230.1
84344.3
84487.3
84645.3
84808.6
84978.5
85155.2
85338.1
85517.9
85697.9
85871.1
86031
86176.1
86305.2
86415.1
86502.9
86562.3
86590.4
86581.3
86543.5
86478.5
86382.1
86254.4
86104.5
85927.7
85728.3
85501.8
85257.5
84998.6
84730.5
84448
84150.2
83840
83509.2
83157.5
82780.1
82376.5
81942.1
81468.8
80945.6
80380.8
79786.5
79150.6
78475.2
77767.8
77063.7
76362.8
75682.7
75030.4
74449.1
73933.9
73519.8
73186.5
72931.4
72739.7
72614.8
72561.1
72546.4
72612.9
72724
72826.3
73037.2
73238.4
73502.4
73842.6
74236.7
74650.3
75067.1
75508.4
75970.5
76453.6
76958.1
77480.8
78011.8
78555.3
101957
101947
101928
101900
101861
101814
101756
101689
101613
101528
101434
101331
101221
101102
100976
100844
100706
100562
100413
100260
100102
99937.1
99768.6
99598
99423.2
99244.8
99065.4
98886.3
98707.9
98529.3
98350.5
98175.7
98008.6
97844.6
97680.1
97519.1
97363.8
97212.1
97063.1
96917.1
96774.4
96635.3
96499.4
96366.6
96236.6
96109
95983.6
95859.5
95736.5
95613.8
95490.9
95366.7
95240.7
95112.1
94980.1
94843.5
94701.9
94554.6
94401.8
94240.5
94069.4
93887.1
93693.3
93487.2
93268.3
93036.9
92793.2
92543.1
92274.9
91995.7
91706.2
91406.5
91097.3
90779.5
90454.5
90123.9
89789.7
89453.2
89115.6
88778.7
88444.5
88114.2
87789.2
87472
87164.3
86866.2
86578.8
86301.3
86033
85775.1
85529.6
85298
85082.5
84885
84707.8
84550.9
84414.8
84300.3
84208.2
84141.4
84100.7
84086.1
84098.4
84135.1
84191.1
84274.7
84396.3
84537.1
84691.5
84852.3
85021.1
85196.4
85374.2
85552
85728.4
85899.5
86056.8
86199.6
86323.3
86429.4
86516.8
86575.2
86603
86590.7
86551
86484.8
86388.8
86263.4
86113
85939.4
85744.8
85520
85271.6
85015.7
84744.1
84465.8
84169.8
83862.9
83530.7
83175.8
82801.5
82398
81963.2
81492.9
80968.5
80395.9
79812
79187.9
78515.2
77812.5
77109.1
76405.5
75730.5
75080.7
74495.6
73974.8
73562.1
73230.4
72978.6
72786.9
72658.8
72600.4
72566
72619
72764
72847.9
73076.5
73275
73534.5
73881.5
74287.7
74699.3
75115.6
75555.7
76018.9
76505
77008.6
77535.5
78068
78613.4
101983
101973
101955
101927
101889
101841
101784
101718
101642
101557
101463
101361
101251
101132
101007
100875
100737
100594
100447
100295
100141
99981.4
99813.7
99642.6
99471.8
99298.1
99118.6
98936.8
98758.1
98584.2
98411.3
98237.6
98067.7
97902.5
97739.2
97578.2
97420.5
97266.4
97115.6
96968.3
96824.4
96684
96546.8
96412.8
96281.7
96153.1
96026.4
95901.2
95777
95653.1
95528.8
95403
95275.3
95145.1
95011.2
94873
94729.6
94580.6
94425.7
94262.8
94089.5
93905.3
93709.7
93502.2
93282.3
93050.1
92806.1
92550.7
92284.1
92002.3
91711.9
91412.3
91103.6
90786.5
90462.5
90133.1
89800.1
89464.5
89127.6
88791.2
88457.5
88128.3
87804.5
87488.1
87181.4
86885.2
86600.4
86326.3
86061.8
85807.7
85565.7
85337.5
85124.7
84929.7
84754.8
84601.4
84468.9
84357
84267.2
84202.2
84162.6
84149.1
84164.4
84204.2
84258.7
84345.8
84476.4
84613.7
84759.2
84916.7
85083.8
85255.4
85427.9
85602.3
85776.5
85941.2
86095.8
86233.6
86352.6
86453.9
86535
86593
86610
86603.5
86565
86496.9
86401.6
86277
86126
85953.8
85765.8
85545.1
85301.7
85045.3
84775.7
84491.6
84200.6
83893.6
83566
83208.1
82836.5
82433.1
81999.7
81531.6
81004.3
80440.4
79867.1
79249.5
78579.6
77881.3
77177.4
76471.4
75803.2
75159.2
74571.8
74047.9
73642.8
73300.2
73052.4
72860.3
72713.9
72643.5
72557.4
72640.1
72799.6
72886.1
73134
73335.6
73589.8
73958
74370.9
74774.3
75190
75628.1
76093.9
76580.6
77087.2
77616.1
78150.9
78697.7
102015
102006
101988
101960
101922
101875
101819
101754
101679
101595
101502
101400
101290
101171
101046
100915
100778
100637
100492
100342
100189
100032
99871.2
99704.1
99531.5
99355.7
99179.8
99004.6
98829.3
98656.1
98484.8
98313.3
98142.7
97975.9
97811.8
97650.3
97491.6
97336.3
97184.3
97035.8
96890.8
96749.1
96610.8
96475.5
96343.1
96213.1
96084.7
95957.8
95831.8
95706
95579.6
95451.7
95321.8
95189.2
95053.1
94912.7
94767.1
94615.7
94458.3
94292.6
94116.7
93929.8
93731.7
93522
93299.9
93066.1
92821.3
92569.3
92297.9
92014.4
91722.3
91422.6
91114.3
90798
90475.2
90147.4
89815.8
89481.7
89146.2
88811.2
88478.5
88150.5
87828.3
87512.9
87206.9
86911.8
86629.6
86359.5
86099.6
85849.8
85611.8
85387.5
85178.6
84987.4
84816.8
84666.8
84537.6
84429.7
84344
84281.3
84242.9
84230.4
84244.7
84284.1
84345.8
84442.8
84563.9
84699.3
84844.9
85001.3
85164.7
85329.7
85497.4
85667.1
85834.4
85993.9
86145
86278.6
86395.5
86492.2
86568.2
86616
86635.6
86624.9
86585.6
86517.5
86421.2
86297.1
86146.9
85975.7
85789
85573.7
85336.9
85088.3
84820.9
84539.3
84245.3
83933.8
83600.5
83247.1
82879.5
82476.6
82045.7
81582.1
81053.6
80489.8
79929.6
79337.4
78662.3
77971.9
77271.4
76560.8
75900.7
75265.7
74670.2
74137
73740.4
73395.9
73140.7
72960
72786.4
72708.3
72572.1
72690.4
72845.9
72978.4
73204.9
73407.7
73682.2
74061.1
74475.4
74877.9
75288.6
75726.5
76194.9
76682.7
77192.8
77723.9
78262.3
78808.9
102051
102042
102024
101996
101959
101914
101859
101795
101722
101639
101548
101447
101337
101220
101095
100963
100828
100689
100547
100402
100253
100098
99936.1
99767.6
99597.6
99427.6
99256.7
99085
98912.7
98740.6
98569.3
98398.8
98229.6
98062.5
97898
97736.2
97577.5
97421.7
97269.1
97119.8
96973.8
96831.1
96691.6
96555
96421
96289.2
96159.1
96030.2
95901.9
95773.6
95644.6
95514
95381.3
95245.8
95106.8
94963.3
94814.6
94660
94499.1
94330.4
94151.4
93961.8
93761
93548.7
93324
93087.4
92845.3
92587.9
92316.2
92032.1
91740.8
91440.2
91132.2
90816.8
90494.7
90167.6
89837.2
89504.7
89171.3
88838.6
88508.2
88182.2
87862.5
87549.4
87244.2
86949.3
86668.3
86401.8
86147.3
85902.9
85670.1
85451.4
85247.7
85062
84895.5
84749.3
84623.2
84518.4
84436.1
84376.6
84340.6
84330
84345.5
84388.8
84459.9
84558.1
84673.8
84804.9
84949.8
85104.4
85261.6
85420
85582.3
85745.7
85907.9
86061.1
86205.9
86335.3
86448.5
86540.1
86610.2
86653.8
86667.7
86655.9
86615.1
86547.1
86450.4
86327.1
86180.6
86007.5
85821
85610.1
85382.1
85140.8
84878.9
84603
84307.5
83997.4
83657.1
83298.4
82940.6
82530.5
82101.3
81645.8
81125.9
80550.2
79992.5
79411.4
78753.5
78075.5
77385.5
76673
76016.7
75392.1
74789.7
74244.4
73805.4
73498.8
73240
73078.7
72886.7
72802.3
72703.5
72776.9
72931.9
73109.8
73290.9
73503.1
73798.5
74190.1
74602
75003
75413.5
75854.4
76322.6
76812.6
77327.9
77861.4
78404.7
78947.4
102087
102078
102059
102032
101997
101954
101901
101838
101766
101686
101597
101498
101391
101276
101153
101024
100891
100755
100615
100472
100323
100167
100005
99841.8
99677.8
99512.7
99344.9
99175.6
99005.2
98834.7
98664.7
98495.6
98328
98162.2
97998.6
97837.3
97678.7
97522.8
97369.9
97220
97073.3
96929.7
96789
96651
96515.4
96381.8
96249.7
96118.6
95987.8
95856.7
95724.8
95591.1
95455.3
95316.4
95173.8
95026.6
94874
94715.4
94550.1
94377.4
94194.8
94002.1
93798.4
93583.6
93356.9
93118.8
92871
92612.6
92344
92062.6
91769
91467.2
91158.4
90843.2
90521.8
90195.5
89866
89534.8
89203.3
88872.9
88545.6
88222.8
87906.5
87597.4
87295.8
87002.6
86721.2
86455.6
86205.4
85967.5
85741.7
85530.2
85333.6
85153.5
84991.5
84849.3
84727.3
84625.9
84546.9
84492.1
84461.3
84454.8
84475.4
84525.3
84600.2
84694.7
84805.6
84935
85079.3
85228.6
85376.8
85528.6
85686.7
85843.4
86001.8
86142.1
86277.9
86403.8
86513.7
86600
86663.6
86700.7
86710.4
86696.7
86653.8
86585.4
86490.7
86370.8
86222
86052.3
85866.4
85659.1
85437.9
85206.5
84943.8
84677.9
84385.3
84058.7
83715.7
83359.2
82982
82591.6
82165.2
81724.5
81223
80640.4
80054.8
79489.6
78851.6
78187.5
77513.9
76805.6
76146.6
75529.9
74935
74392.4
73940.7
73602.1
73348.8
73237
73017.2
72931.8
72859.2
72900.5
73055.7
73235.3
73397.8
73621.5
73931.8
74353.6
74752.7
75149
75562.6
76008.6
76476.5
76968.7
77491.4
78027.7
78575.6
79109.8
102117
102110
102092
102066
102032
101989
101938
101878
101809
101731
101646
101551
101449
101337
101218
101092
100962
100827
100687
100546
100396
100243
100087
99929
99768.6
99605.8
99440.6
99273.7
99106.1
98938.5
98771.2
98604.7
98439.4
98275.4
98113
97952.6
97794.4
97638.6
97485.5
97335.2
97187.9
97043.5
96901.7
96762.3
96625.1
96489.8
96355.8
96222.5
96089.2
95955.4
95820.4
95683.6
95544.4
95401.9
95255.5
95104.1
94947.1
94783.8
94613.7
94435.9
94249.3
94053.4
93846.5
93629
93400.5
93160.9
92910.1
92648.2
92375.6
92094.4
91803.3
91502.6
91193.9
90878.7
90558.1
90233.3
89905.3
89575.7
89246.3
88918.4
88593.6
88273.7
87960.2
87654.3
87357.8
87070
86791.4
86526.6
86279.2
86047.5
85828.9
85624.9
85435.3
85260.4
85103.5
84966.3
84849.2
84752.7
84679.6
84631.1
84606.3
84606.2
84632.8
84685.7
84760.6
84853.2
84962.5
85089.7
85230.4
85372.3
85512.3
85658.7
85810.4
85956
86094
86237.2
86367.9
86488.8
86592.8
86672.6
86728.3
86759.8
86768.1
86750.8
86705.8
86635
86541
86427.1
86274.6
86109.6
85925.6
85722.8
85500.8
85247.4
85007.8
84758.2
84483.3
84146.2
83801.4
83444.9
83040.6
82657.8
82238.5
81816.6
81348.8
80767
80163.7
79590.7
78959.8
78310.7
77663.5
76963.2
76289.8
75676.9
75099.4
74566.6
74128.4
73763.5
73519.9
73388.9
73182.1
73081.9
73017.9
73048.9
73213
73380.1
73526.6
73764.1
74092.8
74543.2
74924.2
75318.9
75737.8
76187.9
76654.4
77149.3
77677
78219.2
78772.6
79298.2
102141
102133
102116
102091
102058
102018
101969
101912
101846
101772
101689
101600
101501
101395
101280
101159
101032
100899
100762
100621
100475
100327
100176
100022
99864.7
99704.9
99543
99379.9
99216.2
99052.4
98888.6
98725.1
98562
98399.7
98238.7
98079.3
97921.7
97766.3
97613.2
97462.8
97315.1
97169.8
97027
96886.3
96747.7
96610.7
96474.7
96339.3
96203.6
96067.1
95929.1
95789.1
95646.7
95501.1
95351.3
95196.7
95036
94868.4
94693.3
94510.2
94318.5
94117.6
93907.2
93687
93455.9
93213.9
92960.7
92697.2
92423.6
92140.3
91847.3
91547.8
91239.9
90926
90606.9
90283.9
89958.2
89630.7
89303.6
88978.6
88656.6
88339.2
88028.6
87725.2
87431.5
87149.9
86877.6
86615.7
86369.7
86142.1
85930.2
85732.9
85550.1
85383.1
85232
85100.7
84990.3
84900.5
84834.8
84793.3
84775
84781
84812.1
84866.7
84942.2
85035.6
85144.9
85267.5
85400.2
85534.2
85668.7
85810
85952.7
86090.7
86225.7
86361.5
86483.7
86597.2
86691.6
86761.8
86807.8
86829.9
86831.9
86816.3
86774.5
86697.2
86604.1
86492.3
86346.6
86181.8
85999.3
85802.5
85578.8
85315.8
85079.4
84841.4
84588.7
84286.9
83927.7
83567.2
83188.6
82770.3
82344
81921.8
81505.6
80920.8
80307.5
79723.9
79097.7
78454.4
77840.2
77153.7
76464.8
75848.9
75281.1
74754.4
74320.9
73942.9
73703.3
73503.9
73394.5
73262.7
73194.5
73225.9
73404.1
73539.6
73677.2
73933
74290.3
74751.8
75122
75514.2
75937.9
76391.3
76853.8
77351.1
77882.2
78428.7
78997.4
79535
102151
102143
102127
102104
102072
102034
101989
101936
101874
101804
101726
101640
101546
101444
101335
101219
101096
100968
100836
100699
100558
100415
100267
100117
99963.8
99808.3
99651.1
99492.9
99333.9
99174.1
99013.7
98852.8
98691.9
98531.8
98372.5
98214.4
98057.9
97903.1
97750.5
97600.2
97452.4
97306.8
97163.3
97021.8
96881.9
96743.3
96605.4
96467.8
96329.8
96190.6
96049.7
95906.6
95760.8
95611.8
95459
95301.5
95138.1
94967.3
94788.3
94600.8
94404.4
94199
93984.6
93760.6
93526.2
93281.7
93026.3
92760.8
92485.4
92200.7
91908
91608.1
91300.8
90989
90671.6
90350.7
90027.3
89702.4
89377.7
89055.2
88736.6
88422.4
88115.1
87815.5
87524.3
87246.3
86980.7
86724.6
86480.9
86254.7
86046.5
85855.4
85681.6
85524.2
85382.5
85258.7
85153.8
85071
85012.9
84978.5
84966.8
84978.2
85012.1
85067.6
85144.3
85240.1
85349.8
85467.8
85590.3
85715.6
85846.1
85982.2
86117.6
86251.7
86386.7
86504
86614.6
86716.7
86801.4
86862.9
86899.7
86911.1
86905.6
86889.5
86854.7
86778.6
86688.1
86571.6
86433.5
86272
86094
85902.5
85680
85437.7
85189.8
84943.1
84691.5
84422.8
84059.9
83700.4
83350.5
82929.9
82485.6
82048.9
81586.6
81073.1
80486.6
79885.2
79269.1
78631.3
78011.6
77349.6
76672.1
76054.9
75489.6
74958.8
74529
74126.6
73875.3
73638.9
73618.4
73464.7
73409.3
73515.9
73624.6
73721.9
73856.3
74130.7
74527.8
74984.5
75346.3
75737
76165.4
76619
77075.4
77575.6
78117.3
78668.5
79259.2
79820.2
102144
102137
102122
102100
102071
102036
101994
101944
101887
101821
101749
101668
101579
101483
101379
101269
101152
101030
100904
100773
100638
100499
100357
100211
100064
99913.6
99762.1
99609.2
99455.1
99300.1
99141.6
98984.5
98826.9
98669.4
98512.4
98356.3
98201.2
98047.7
97896.2
97746.6
97599
97453.3
97309.4
97167.4
97026.7
96886.9
96747.2
96607.3
96466.8
96325.3
96182.2
96036.6
95887.6
95734.5
95577.7
95417.2
95251.5
95078.4
94896.5
94705.3
94505.4
94296.7
94079.1
93851.8
93614
93366.2
93108.5
92841.1
92564.2
92279.2
91986.4
91686
91379.8
91069.2
90754.1
90435.9
90115.2
89793.3
89471.9
89151.9
88836.1
88525.4
88221.3
87926.1
87638.7
87362.7
87101.5
86852.7
86614.7
86391.5
86187.1
86002
85835.6
85687.4
85555.6
85439.7
85341.3
85265.5
85214.2
85186.4
85181
85196.2
85233.6
85291.1
85367.5
85463
85572.7
85687.7
85802.4
85920.1
86046.1
86175.9
86304.2
86432.4
86562
86658.2
86755.6
86844.4
86918.9
86972.8
87002.3
87011.2
87004.2
86980.1
86943.5
86883.2
86788.2
86668.8
86537.3
86377.1
86211.2
86028.3
85812.2
85579.7
85334.5
85086.3
84810.7
84507.1
84186.3
83831.5
83478.7
83082
82646.4
82207.8
81729.7
81235.9
80673.9
80069.5
79456.1
78826.8
78164.1
77528.3
76877.8
76267.4
75713.7
75178.5
74756.5
74352.9
74039.7
73836.4
73821.7
73672.1
73650.1
73767.2
73870
73938.3
74062.8
74357.2
74815.8
75237.1
75599.9
75993.5
76425.1
76879.7
77326.5
77829.5
78391.3
78957.9
79572.4
80144.1
102117
102111
102097
102077
102051
102018
101979
101933
101881
101821
101754
101679
101596
101506
101409
101305
101195
101080
100961
100836
100708
100576
100440
100302
100161
100017
99872.1
99725
99575.8
99424.8
99272.2
99118.8
98964.8
98810.7
98656.7
98503
98350
98198.5
98048.6
97900.1
97752.9
97607.1
97463
97320.5
97179.2
97038.7
96897.8
96756.4
96613.9
96470.3
96325.2
96177.8
96026.4
95870.4
95710.1
95545.3
95376.4
95200.7
95016.2
94822.6
94619.9
94408.2
94187.5
93957.1
93717
93467.5
93208.3
92939.2
92661.2
92376.4
92084.3
91785.3
91480.1
91171.1
90858.2
90542.6
90225.1
89905.6
89588.1
89271.8
88958.6
88651.2
88350.2
88058.2
87775.7
87502.7
87243.6
86999.7
86769
86552
86352.1
86172
86011.9
85871.3
85748.9
85641.9
85551.8
85483.5
85438.5
85416.8
85415.1
85435.8
85476.7
85537.4
85614.2
85705.2
85809.5
85921.4
86033.6
86146.5
86266.3
86387.3
86505.6
86621.2
86727.2
86824.1
86913.4
86989.2
87052.3
87099.2
87124.3
87134.5
87127.2
87098.2
87053.2
86997.5
86903.8
86797
86655.7
86502.6
86346.7
86166.2
85971.1
85732
85482.5
85241.4
84969.6
84667
84341.8
83983.8
83611
83216
82807.2
82392.3
81966.1
81431.9
80861.9
80268.8
79649.1
78995.8
78333.5
77708.6
77088.7
76488.5
75944.8
75414.6
74987.5
74603.7
74275.6
74078.9
74034.9
73898.2
73925.5
74043.3
74147.7
74182.6
74313.8
74643
75125.5
75509.8
75884.4
76287.9
76719.4
77178
77612.9
78117.3
78714.3
79297.6
79923.8
80500.2
102067
102062
102050
102032
102007
101977
101941
101899
101851
101797
101735
101667
101591
101509
101418
101322
101221
101115
101003
100887
100767
100643
100515
100385
100251
100115
99976.8
99836.1
99693.1
99548
99401.2
99253
99103.6
98953.2
98802.4
98651.9
98502.3
98353.7
98205.9
98058.8
97912.5
97767.2
97623.2
97480.4
97338.8
97197.8
97056.6
96914.8
96771.6
96626.5
96479
96328.9
96175.7
96018.4
95855.8
95687.4
95514.4
95335.5
95149.7
94954.2
94748.5
94533.4
94309.3
94076.2
93834.3
93584.2
93324.4
93055.3
92778.1
92495.5
92203.5
91905.1
91601.6
91294.7
90984.9
90672.7
90359.1
90042.5
89728.5
89417.4
89107.9
88803.9
88506.1
88216.3
87936.6
87667.9
87411.5
87170.8
86946.1
86736.1
86541.5
86365.7
86210.5
86075.9
85962.9
85866.6
85786.2
85725.2
85687
85671.9
85673.3
85698.9
85743.1
85806.6
85884.5
85973
86069.4
86174.3
86282.9
86393
86506.5
86620.2
86729.9
86833.5
86928.1
87014.4
87088.6
87151.6
87204.8
87245.6
87269.9
87280
87269.6
87243.6
87193.6
87125.6
87043.2
86944.5
86809.2
86658.2
86506
86325.1
86130.1
85901.6
85650
85408.3
85153.3
84861.6
84536.7
84181.5
83797.8
83393.9
82946.3
82553.6
82134.7
81627.5
81059.1
80489.9
79877.1
79235.8
78581.4
77923.7
77306.8
76720.8
76176.9
75673.1
75241.3
74882.9
74572
74371
74293.1
74172.9
74227.2
74356.4
74455.4
74460.3
74615.5
74975.6
75459.2
75824.6
76204.5
76622.4
77051
77509.9
77938.8
78460.9
79098.8
79681.6
80303.1
80883.2
101990
101986
101975
101959
101936
101909
101876
101837
101794
101744
101688
101627
101560
101486
101405
101319
101227
101130
101028
100922
100811
100696
100578
100457
100331
100204
100074
99940.7
99805.1
99666.7
99526.2
99383.7
99239.6
99094.4
98948.5
98802.6
98656.9
98511.3
98366
98221.2
98076.8
97932.9
97789.6
97646.9
97505.3
97364.4
97223.4
97081.3
96937.8
96792.2
96644.2
96493
96337.9
96178.8
96014.6
95844.4
95667.9
95484.8
95294.9
95097.4
94890.7
94673.5
94446.1
94210.5
93966.2
93717.7
93458.6
93189.9
92918.1
92632.3
92340.4
92043.9
91742.7
91437.8
91130.8
90822.9
90513.8
90204.1
89893.8
89587.8
89285.2
88986
88692.8
88405.2
88126.5
87860.6
87608.2
87370.4
87149.6
86946.1
86758.5
86588.1
86437.8
86308
86202.5
86117
86046.7
85992.5
85960.1
85944.2
85954.9
85984.4
86033.1
86099.4
86178.9
86266.8
86359.1
86456.4
86559.5
86665.6
86773.5
86880.1
86980.3
87071.9
87153.6
87229.6
87291.1
87344.6
87387.6
87420.2
87442.8
87450.1
87434.5
87414.2
87359.2
87290.8
87208.6
87113.6
86989
86836
86688.3
86514.5
86309.1
86090.6
85855.2
85614
85366.2
85088.8
84771.4
84418.8
84033.3
83630.2
83192.9
82738.2
82275.3
81799.8
81269.4
80720.8
80133.8
79523.3
78886.5
78206.1
77576.6
76988
76433.2
75961.8
75536
75192.9
74899.2
74701.6
74596
74497.7
74553.3
74694.7
74781.5
74787.4
74964
75351.4
75810.6
76187.4
76564.3
76993.7
77423
77869.2
78301.2
78892
79513.2
80099.5
80674.2
81247.5
101883
101879
101869
101854
101833
101808
101779
101745
101705
101661
101613
101560
101502
101438
101368
101293
101211
101125
101034
100938
100838
100733
100626
100514
100399
100281
100160
100036
99908.3
99778.2
99645.5
99510.5
99373.4
99234.4
99094
98952.6
98810.9
98669.4
98528
98386.3
98244.9
98103.8
97962.3
97820.5
97678.8
97537.9
97397.3
97255.9
97112.9
96967.3
96818.7
96667.2
96511.9
96351.6
96186.4
96015.8
95837.7
95651
95456.7
95255.5
95046.3
94827.2
94598
94359.8
94115.7
93865.5
93607.7
93343.4
93072.6
92789.3
92499
92204.1
91904.9
91602.4
91298.6
90993.8
90690.1
90386
90083.1
89781.8
89485.9
89194.9
88907.6
88626
88350.1
88085.3
87835.1
87601.1
87384
87184.9
87005.2
86843.5
86698.9
86572.2
86470.5
86393.4
86333.3
86284.3
86250.3
86244.8
86262.1
86294.9
86346.5
86415.3
86497.1
86585.9
86677.3
86769.6
86865.9
86966
87066.4
87161.4
87247.3
87321.4
87380.3
87464.4
87528.5
87575.8
87611
87632.9
87651.2
87652.9
87634.5
87603.1
87547.1
87478.1
87394.1
87305.2
87189.1
87031
86883.3
86718
86513.9
86295.6
86071
85833.9
85587.1
85324.6
85055
84717.8
84326.9
83910.5
83498.2
83052
82554.3
82045.6
81513.7
80966.7
80409.7
79831.4
79210.3
78535
77901.2
77303.6
76741.6
76286.3
75872.4
75528.7
75252.1
75062.8
74942.5
74860.5
74905.9
75061.3
75122
75125
75357.7
75762.1
76199
76585.3
76964.6
77394.5
77837.2
78253.5
78697.1
79367.6
79965
80549.7
81089.3
81621.8
101741
101738
101728
101713
101695
101675
101650
101618
101583
101545
101504
101461
101415
101364
101306
101242
101173
101098
101019
100935
100847
100754
100658
100557
100453
100346
100235
100120
100002
99881
99756.9
99630
99500.7
99369.3
99236
99101.3
98965.3
98828.5
98691.5
98554.1
98416.3
98278.3
98140.2
98001.4
97861.4
97720.6
97580
97439.2
97297.1
97152.4
97004.5
96853.2
96698
96537.8
96371.5
96199.8
96022
95835.2
95638.2
95432.9
95219.4
94996.5
94763.6
94524
94279.5
94031.6
93776.5
93516.9
93250.1
92968.6
92681.5
92389.2
92093.6
91794.3
91494.4
91193.3
90893
90593.1
90293.6
89997.5
89704.8
89422.2
89145.4
88872.1
88604.5
88342.6
88093.7
87863.2
87651.1
87455.2
87278.9
87123.2
86987.6
86867.7
86768.7
86696.7
86646.6
86607.1
86581.8
86576.2
86596.2
86632.8
86686.3
86756.3
86839
86929.6
87021.8
87111.8
87202.4
87295.3
87387.3
87473.9
87555.1
87628.2
87697.3
87762.5
87810.6
87844.4
87872.4
87887.8
87894.9
87889.7
87863.7
87825.1
87774.4
87699.4
87613.7
87521.5
87415.2
87263.2
87111.8
86949.5
86748.6
86530.3
86305.6
86066.9
85808.7
85545.7
85273.8
84977.1
84620
84186.7
83749.3
83311.2
82837.7
82333.3
81806
81264.4
80716.4
80156.4
79517
78883.2
78267.9
77664.3
77103.5
76642.8
76235.6
75892.5
75631.8
75449.1
75327.8
75250.2
75284.1
75465.4
75534.8
75570.2
75805.5
76206.9
76625.3
77015.9
77403.6
77825.1
78287.9
78686.9
79151.4
79853.8
80436.5
81026.2
81577.7
82173.5
101563
101560
101549
101534
101519
101503
101482
101454
101424
101395
101364
101332
101298
101260
101217
101166
101110
101048
100982
100911
100836
100755
100671
100583
100490
100394
100295
100192
100085
99973.8
99859.4
99741.9
99621.5
99498.5
99373.4
99246.3
99117.4
98987.1
98856
98724
98591
98457.3
98322.4
98186.6
98050.6
97912.9
97772.9
97632.1
97490.7
97347.1
97200.6
97050.6
96895.9
96736.3
96571.3
96399.8
96221.3
96034.1
95836.4
95628
95409.3
95181.2
94943
94702.8
94459.7
94217.3
93967.9
93720.8
93455.2
93178.3
92894
92603.7
92310.5
92015.3
91719.2
91423.6
91127.2
90833.4
90538.6
90245.6
89955.8
89671.1
89408
89143.2
88883.8
88632
88385.7
88158.7
87950.8
87759.5
87586.9
87434.8
87304.9
87194.6
87101.4
87033.4
86989.3
86957
86939.7
86938.6
86959.6
86999.4
87054.3
87125.2
87207.6
87298.5
87392.3
87482.4
87569.4
87655.5
87739.4
87820.2
87897
87967.8
88038.2
88097.7
88127.8
88151.6
88171.2
88174.7
88167.9
88153
88121.4
88077.1
88027
87955.6
87870.6
87773.1
87669.2
87531.4
87381.8
87221.6
87021.7
86799.6
86567.2
86320.8
86060.3
85794.5
85519.6
85186.8
84837.3
84438.4
84008.3
83573.4
83130.9
82651.9
82137.4
81607.1
81072.1
80547.3
79914.5
79266.6
78662.2
78068.7
77510.7
77029.6
76618.2
76292.9
76042.6
75855.3
75709.7
75664.6
75693.4
75894.3
75965.5
76058.8
76305.3
76692.4
77091.5
77479.8
77880.1
78299.9
78754.9
79179.5
79691.1
80380.2
80940.3
81535.8
82108.2
82728.4
101343
101339
101328
101313
101300
101288
101273
101254
101234
101215
101196
101177
101156
101132
101101
101065
101023
100976
100923
100866
100803
100736
100665
100589
100509
100425
100338
100246
100151
100052
99949.6
99843.1
99733.1
99620
99504.1
99385.9
99265.7
99143.4
99019.2
98893.6
98766.4
98637.9
98508.7
98377.7
98244.5
98110.5
97975.5
97837.5
97696.2
97553.3
97408
97259
97106.3
96948.9
96785.2
96613.8
96434.8
96247.4
96049.1
95838.2
95616.6
95383.9
95143.2
94901.9
94662.6
94424.5
94188
93943.9
93688.1
93420.2
93141.1
92853.9
92561.5
92268.8
91975.2
91683.7
91391.3
91102.5
90817.2
90529.1
90246.1
89958.5
89697.3
89442.8
89191.2
88951
88718.8
88490.8
88281.9
88096.5
87931.4
87782.5
87656.2
87554.2
87469.3
87405.5
87364.6
87348.2
87332.8
87334.9
87356.5
87397.4
87453
87523.9
87606.3
87695.6
87789.8
87881.9
87968.3
88049.6
88125.3
88199.6
88268.3
88323.9
88371.1
88422.8
88462.7
88486.7
88504.9
88487
88465.7
88442.2
88411.1
88363.6
88311.4
88242.1
88156.6
88062.8
87959.6
87833.3
87685.5
87528.9
87334.6
87107.2
86869.7
86619.1
86368.6
86096
85837.1
85529.9
85181.7
84785.8
84363.5
83928.6
83484.1
83011.4
82508.4
81990.2
81459.4
80939.6
80343.2
79693.6
79085.1
78510.2
77954.3
77457.1
77045
76734.1
76488.6
76305.4
76177.6
76123.8
76147.6
76361
76460.3
76593.3
76855.5
77227
77603.7
77985.4
78395.2
78827.2