/*--------------------------------*- C++ -*----------------------------------*\
| =========                 |                                                 |
| \\      /  F ield         | OpenFOAM: The Open Source CFD Toolbox           |
|  \\    /   O peration     | Version:  dev                                   |
|   \\  /    A nd           | Web:      http://www.openfoam.org               |
|    \\/     M anipulation  |                                                 |
\*---------------------------------------------------------------------------*/
FoamFile
{
    version     2.0;
    format      ascii;
    class       volScalarField;
    object      p_0;
    location    "9.138";
}
// * * * * * * * * * * * * * * * * * * * * * * * * * * * * * * * * * * * * * //

dimensions      [1 -1 -2 0 0 0 0];

internalField   nonuniform List<scalar> 
12225
(
91611.1
91667.5
91786.9
91957.8
92160.3
92401.4
92662.5
92959.2
93265.2
93603.7
93949.8
94357.9
94715.3
95171.7
95599.3
96116.6
96630.4
97059.5
91604.8
91665.9
91785.2
91956.3
92159.3
92399.9
92661.1
92957.7
93263.9
93602.4
93945.6
94359.6
94706.8
95171.6
95589.7
96110
96630.5
97221.4
91596.9
91662.5
91782.2
91952.3
92155.5
92395.5
92657
92952.8
93259
93596
93941.3
94345.9
94705.5
95147.8
95588.1
96082.9
96584.2
97184.4
91585.4
91655
91775.7
91945.1
92148.2
92387.5
92649
92943.2
93250.3
93584.9
93931.9
94322.9
94688.8
95117.7
95565.3
96033.7
96532.2
97054.1
91571.9
91643.2
91764.7
91933.2
92136.5
92374.6
92637
92927.5
93234.9
93568
93916.4
94293.3
94662.5
95081.1
95495
95967
96435.1
96885.6
91555.5
91626.2
91748.1
91915.3
92118.3
92355.8
92617.7
92905.8
93213.1
93543.9
93890.3
94260.5
94632.9
95033.8
95434.3
95874
96300.4
96728.5
91532.8
91601.3
91723.6
91889.9
92092.3
92328.5
92590.5
92876.7
93184.7
93509.6
93853.1
94214.7
94590.9
94968.1
95361.5
95775.3
96184
96567.9
91502.4
91571.6
91694.6
91859.9
92062.1
92297.5
92558.2
92842.9
93150.6
93471.6
93811.1
94165.7
94529.5
94899.5
95295.3
95687
96087.2
96452
91469.3
91539
91662.6
91827.2
92029.4
92264.2
92524.1
92806.7
93112.2
93431.3
93768.5
94115.4
94475.2
94835
95221.9
95605.4
95962.3
96303.2
91429.2
91496.5
91619.9
91783.8
91986.7
92219.6
92478.8
92759.6
93062.5
93377.9
93710.2
94051.4
94406.6
94757.5
95126.6
95475.9
95825.6
96155
91375.5
91441
91563.2
91726.6
91929.5
92160.5
92417.9
92697.2
92996.5
93308.3
93635
93970
94313.8
94659.8
95008.8
95346.1
95676.3
95990.8
91299.4
91366.7
91488.5
91651
91853.3
92082.4
92338.6
92614.7
92910.2
93217.7
93537.9
93865.3
94199
94533.8
94866.1
95190.2
95502.7
95799.9
91195.3
91267.6
91389.8
91551.6
91751.9
91979.8
92233.4
92507.1
92797.7
93100.3
93413.3
93733.2
94055.9
94378.4
94696.6
95006.9
95305.1
95590
91065.4
91138.6
91259.5
91420.5
91618.5
91845
92096
92366.5
92652.6
92950.3
93255.9
93567.3
93879.7
94190.5
94495.8
94793.1
95079.6
95353.6
90898.1
90969.7
91088.9
91249.4
91445.3
91670.4
91918.7
92186.1
92467.8
92760.3
93059.4
93362.6
93665.6
93965.8
94260.3
94546.8
94823.1
95087.7
90683.6
90753.2
90870.3
91029.8
91223.9
91447.2
91693.3
91957.9
92235.8
92523.6
92817.2
93113.3
93408.6
93700.5
93986.5
94264.5
94532.9
94790.6
90428.5
90484.8
90597
90754.3
90946.8
91168.4
91412.8
91675.1
91950.5
92234.9
92524.5
92815.9
93105.9
93392.1
93672.4
93945
94208.6
94462.1
90133.1
90180
90288.9
90443.9
90635
90855.2
91098.7
91360
91634.5
91917.6
92205.6
92495
92782.9
93066.8
93344.8
93615.4
93877.4
94129.9
89841
89891.3
89998.2
90150.8
90340.4
90560
90803.4
91065
91339.9
91623.5
91911.9
92201.7
92489.9
92774.2
93052.7
93323.9
93586.7
93840.3
89605.7
89647.8
89750.9
89901.7
90090.4
90310.1
90554.1
90816.7
91092.7
91377.6
91667.3
91958.5
92248.2
92534
92814.2
93087.2
93351.9
93607.6
89405.1
89446.1
89547.1
89696.8
89885.3
90105.4
90350.3
90614.1
90891.6
91178.1
91469.4
91762.2
92053.7
92341.5
92623.7
92898.8
93165.8
93423.7
89238.2
89282.1
89383.7
89533.5
89722.3
89942.9
90188.7
90453.8
90732.5
91020.4
91313.3
91607.8
91901
92190.6
92474.7
92751.8
93020.8
93280.9
89105.1
89153.8
89256.6
89406.9
89596.2
89817.3
90064
90330
90609.8
90899
91193.2
91489
91783.8
92075
92360.8
92639.6
92910.3
93172.3
89012.8
89058.3
89161.1
89311.6
89501.2
89722.8
89970.1
90237
90517.7
90807.8
91103.1
91400.1
91696.1
91988.5
92275.6
92555.8
92827.9
93091.3
88943
88988.5
89091.5
89242.2
89432
89653.9
89901.6
90169
90450.4
90741.2
91037.3
91335.2
91632.1
91925.5
92213.6
92494.8
92768
93032.5
88894.8
88939.6
89042.5
89193.2
89383.2
89605.3
89853.3
90121
90402.9
90694.3
90991
91289.5
91587
91881.1
92169.8
92451.8
92725.9
92991.2
88860.8
88906.8
89009.7
89160.3
89350.4
89572.7
89820.8
90088.7
90370.9
90662.7
90959.8
91258.8
91556.7
91851.2
92140.4
92422.9
92697.5
92963.4
88843.6
88886.9
88989.1
89139.6
89329.8
89552.2
89800.4
90068.5
90350.9
90642.9
90940.3
91239.5
91537.7
91832.5
92122
92404.7
92679.7
92946.1
88833.5
88876.4
88977.8
89128.1
89318.3
89540.9
89789.2
90057.4
90340
90632.1
90929.6
91229
91527.4
91822.3
92112
92394.9
92670
92936.6
88830.8
88873
88973.6
89123.8
89313.8
89536.4
89784.7
90053
90335.6
90627.8
90925.4
91224.9
91523.3
91818.4
92108.1
92391.1
92666.4
92933.1
104194
104185
104167
104140
104106
104061
104007
103942
103868
103784
103691
103590
103480
103362
103237
103105
102966
102820
102668
102509
102345
102174
101996
101814
101628
101437
101244
101049
100853
100655
100457
100259
100062
99866.5
99672.2
99479.9
99290
99100.8
98911.9
98723.8
98536.4
98349.3
98161.5
97972.5
97782.1
97590.2
97396.6
97201
97002.9
96801.6
96596.5
96387.1
96172.7
95952.5
95726
95492.7
95252.2
95003.1
94744.5
94476.9
94199.8
93910.3
93609.1
93296.8
92973.9
92641.3
92301.9
91952.1
91594.7
91231.4
90863.2
90491.3
90117.4
89743
89370
89000.4
88635.4
88277.2
87927.6
87588
87259.7
86943.6
86641
86352.8
86079.2
85820.3
85575.8
85345
85128
84925.3
84737.4
84564.4
84406.8
84265.3
84140.2
84031.8
83940.4
83866.2
83809.7
83772.5
83754.5
83755.8
83777.8
83819.5
83877.7
83956.1
84062.2
84191
84335.1
84483.3
84644.1
84808.6
84977.5
85149.2
85320.1
85487
85648.7
85798.6
85934.7
86055.6
86155.1
86235.3
86288.4
86312.4
86305.4
86270.8
86207.4
86113.1
85996.4
85853.4
85688
85494.7
85282.2
85050.1
84801.2
84536.1
84251.6
83945
83614.7
83256.7
82865.8
82437.3
81966.1
81445.6
80879.6
80271.2
79626.6
78958.2
78256.2
77496.5
76779.1
76072.5
75398.4
74767.7
74213.2
73739.4
73362
73072.7
72866.9
72735.8
72685
72706.8
72775.3
72897.3
73031.3
73195.5
73427.1
73670.7
73957.8
74301.7
74686
75081.4
75491.4
75920.1
76369.7
76838
77324.1
77824.7
78333.2
78854.3
104183
104174
104156
104129
104093
104047
103992
103928
103855
103772
103680
103579
103470
103353
103228
103096
102958
102813
102662
102505
102341
102171
101996
101814
101628
101439
101247
101053
100856
100657
100458
100262
100068
99873
99675.2
99482.7
99296
99108.6
98918.9
98729.3
98540.6
98352.5
98164.1
97974.9
97784.5
97592.8
97399.5
97204.1
97006.2
96805
96600.1
96390.8
96176.4
95956.5
95730.1
95496.3
95254.7
95004.8
94746.3
94480.4
94208.8
93918
93616.4
93304.1
92981.5
92649.4
92308.4
91958.9
91602.1
91239.4
90872
90501.1
90128.1
89754.1
89381.3
89011.9
88648.1
88290.9
87942
87603.2
87275.7
86960.4
86658.5
86371.3
86099
85841.5
85598.5
85368.9
85152.4
84949.8
84762.3
84589.7
84432.7
84291.6
84167.2
84059.6
83969
83895.5
83840.4
83802.8
83785.2
83787
83808.7
83849.2
83909
83986.2
84089.7
84226.5
84375.1
84526.6
84679.5
84842.4
85010.8
85179.7
85349.6
85521.4
85674.7
85820.5
85955.2
86076.2
86173
86251.1
86303.8
86326.8
86318
86281.6
86217.1
86122.6
86006.1
85864.6
85702.7
85508.9
85295.9
85063.6
84816
84550.3
84266.1
83958.3
83630.1
83271.2
82878.7
82449.4
81979.2
81463.3
80895
80286.5
79642.3
78972.8
78268.3
77531.4
76806.1
76093.8
75423
74785.6
74231.7
73757.6
73381.4
73093.4
72889.2
72757.8
72707.3
72732.9
72785.2
72906.4
73053.2
73203.1
73448.4
73691
73976
74324.5
74715.1
75110.2
75519.8
75948.3
76398.8
76867.1
77352.9
77854.6
78363.5
78887
104162
104153
104135
104109
104073
104027
103972
103908
103835
103752
103661
103560
103452
103336
103212
103081
102943
102799
102650
102495
102334
102165
101992
101814
101631
101442
101250
101057
100862
100664
100465
100268
100076
99884.6
99689.9
99496.7
99308.8
99119.2
98929.1
98739.3
98549.6
98360.3
98170.8
97981
97790.3
97598.5
97406.4
97210.8
97013
96812.2
96607.5
96398
96183.5
95963.6
95737.2
95503.1
95260.7
95009.6
94758.6
94493.2
94216.4
93927.2
93627.1
93316
92994.3
92662.9
92322.3
91972.8
91616.3
91254.7
90889.1
90519.9
90148.4
89776.5
89405.4
89037.6
88675.2
88319.6
87972.1
87634.5
87308.3
86994.5
86693.8
86407.8
86137.4
85882.1
85641.8
85415.1
85201
85000.1
84813.7
84641.9
84485.9
84346.4
84223.9
84118.2
84028.5
83955.6
83899.3
83863.4
83847.6
83850.9
83876.4
83918.6
83974.8
84053.6
84164.4
84304.4
84444.1
84591.5
84745.9
84907.6
85071.9
85237.7
85405.4
85571.7
85724.3
85866.6
85995.1
86110.5
86209.2
86285.9
86335.8
86354.8
86342.5
86302.8
86236
86141.9
86023.9
85883.2
85729.8
85536.8
85317.7
85090.3
84841.8
84577
84293.6
83984.3
83649.7
83295.6
82903.5
82472.9
82002.7
81491.8
80922.6
80313.8
79672.4
79008
78306.9
77580.6
76847.9
76140.6
75475.8
74825.7
74271.5
73797.9
73422.6
73135.6
72933.5
72802.6
72750.6
72772.4
72803.5
72913.8
73106.7
73218.9
73484.7
73733.2
74018.2
74378.6
74770.9
75168.9
75578.1
76004.8
76456.3
76924.8
77409.6
77915.7
78425
78951.9
104131
104122
104105
104078
104041
103996
103941
103878
103805
103724
103634
103535
103427
103311
103188
103058
102921
102779
102631
102478
102322
102158
101985
101808
101629
101445
101252
101057
100863
100672
100478
100283
100090
99899.3
99707
99514.6
99323.3
99132.5
98942
98752
98562.1
98372.4
98182.5
97992.3
97801.7
97610.1
97416.4
97221.2
97023.9
96823.3
96618.5
96408.8
96194.1
95974.3
95748
95514.4
95272
95021.1
94767.1
94507.5
94230.3
93941.3
93642.2
93332.8
93013
92683.4
92344.2
91995.8
91639.7
91278.9
90915
90548.6
90180.3
89811.2
89443.2
89078.4
88718.5
88364.9
88018.9
87682.6
87357.9
87045.8
86746.8
86462
86193.1
85940
85702.5
85479.2
85268.8
85071.8
84888.5
84719.9
84566.6
84429.4
84309
84204.8
84116.4
84044
83989.8
83955.2
83940
83944.6
83979
84020.4
84070.8
84160.1
84276.1
84406.7
84543.3
84689.1
84843.5
85002.3
85161.9
85324.3
85487.9
85650.5
85800.6
85937.7
86060.3
86166.4
86264.7
86338.7
86381.8
86392.1
86376.6
86335.4
86266.8
86171.4
86050.9
85907.9
85766.1
85574.3
85359
85126.8
84878.6
84617.8
84338
84025
83690.9
83337.7
82942.8
82511.4
82042.1
81534.1
80963.1
80362.7
79731.8
79070.1
78370.7
77649.2
76916.3
76206.9
75544.4
74904.3
74344
73869.7
73499.5
73203.9
73002.2
72872
72804.3
72811.9
72789.8
72938.8
73165.6
73241.5
73545.3
73793.9
74096.2
74464.8
74860
75258.5
75665.8
76089.9
76544.4
77011.9
77497.9
78006.2
78516.3
79043.7
104088
104079
104062
104035
103999
103955
103901
103838
103767
103686
103597
103499
103393
103279
103156
103027
102892
102752
102607
102457
102302
102142
101976
101802
101621
101435
101249
101061
100871
100682
100492
100300
100107
99915.5
99723.8
99532.2
99341
99150
98959.5
98769.3
98579.4
98389.6
98199.7
98009.2
97818.1
97627.6
97433.3
97237.6
97039.5
96838.8
96633.9
96423.9
96209
95989.2
95762.9
95530
95288.5
95037.8
94786.8
94524.1
94247.4
93959.7
93662
93354.3
93036.5
92709.6
92373.3
92027.8
91674.1
91314.8
90952.5
90588.2
90223.7
89858.4
89494.4
89133.5
88777
88426.3
88082.9
87748.9
87426
87116
86819.3
86535.9
86268.1
86016.6
85781.9
85562.7
85356.6
85163.3
84983.6
84818.9
84669.3
84535.1
84416.4
84314.2
84228.7
84160.1
84109
84075.2
84060.2
84066.5
84094.5
84139
84202.7
84296.6
84411.5
84537.4
84672.9
84818.7
84970.9
85123.7
85278.9
85437.3
85593.7
85745.3
85901.1
86031.4
86150.4
86254.2
86345.2
86412
86449
86450.7
86427.1
86382.6
86311.4
86213.7
86091
85946
85807.5
85619.9
85412
85185.5
84931.6
84665.8
84385.9
84078.9
83741.8
83383.2
82992.4
82560.5
82092.6
81588.5
81016.1
80416.4
79823.7
79157.4
78453.8
77739.6
77011.8
76296.1
75639.6
75013.7
74447.4
73950.7
73585.4
73296.3
73090.6
72965.9
72874.1
72872.6
72791.3
72999.3
73207.4
73344.8
73630.9
73880.6
74201.6
74580.5
74978
75377.3
75782.9
76202.9
76664.6
77128.8
77616.6
78128.3
78639.2
79166.8
104031
104022
104005
103979
103944
103901
103849
103787
103717
103639
103552
103456
103351
103238
103116
102989
102856
102719
102578
102433
102283
102125
101957
101782
101606
101428
101247
101065
100879
100692
100504
100314
100124
99933
99742.4
99552
99361.9
99171.8
98981.8
98792
98602.3
98412.7
98223.3
98032.9
97841.8
97649.8
97456.1
97260.4
97062
96860.5
96655.3
96445.4
96230.5
96010.2
95784.1
95551.3
95310.6
95061.2
94807.6
94546.6
94270.7
93984.7
93688.5
93382.4
93066.5
92741.9
92408.9
92067.3
91717.9
91362.3
91003
90642.3
90281.5
89920.6
89560.5
89203.2
88850.7
88504.3
88165.2
87834.9
87515.1
87207.7
86913.7
86632.5
86365.4
86114.4
85881.4
85665.6
85464.5
85275.7
85099.8
84938.4
84792.1
84660.7
84545.4
84447
84365.6
84300.2
84251.2
84219.3
84205.6
84212.8
84237.3
84291.6
84368.7
84465.4
84575.3
84697.7
84833.3
84978.6
85125.4
85271.9
85422.9
85575.8
85726
85875.2
86026.8
86148.3
86263.7
86361.5
86441.1
86499.6
86523.3
86522.1
86494.5
86447.1
86373.5
86273.9
86149.3
86006.8
85856.3
85676.1
85473.4
85243.8
85004.2
84749
84463.5
84153.9
83809.8
83446.1
83057.8
82621.7
82154.3
81655.5
81091.8
80477.7
79876.6
79260.7
78549.9
77844.7
77129
76408.7
75755.3
75145.9
74582.4
74046.6
73663.5
73394.5
73193.6
73086.4
72966
72965.8
72913.6
73107.9
73305.1
73521.7
73736.4
73992.5
74332.5
74723.8
75124.3
75524.9
75930.6
76352.9
76810.9
77276.4
77765.6
78281.1
78798.9
79322.4
103956
103949
103932
103907
103873
103831
103781
103723
103655
103579
103495
103402
103300
103189
103071
102947
102818
102685
102547
102404
102253
102094
101929
101762
101593
101421
101245
101066
100884
100700
100514
100327
100140
99952.5
99764.5
99576
99387.3
99198.4
99009.3
98820.1
98631.1
98441.8
98252.3
98062.1
97871.1
97679.1
97485.4
97289.7
97091.3
96889.8
96684.6
96474.8
96260.1
96040
95813.7
95580.6
95339.8
95090.7
94834.5
94576.8
94301.6
94017.4
93722.8
93418.8
93105.3
92783.1
92453.1
92115.8
91771.8
91422.1
91068
90711.4
90353.8
89997.1
89641.7
89289
88941.1
88599.4
88265.4
87940.4
87625.2
87321.1
87030.1
86752.2
86487.6
86237.5
86004.8
85790.5
85593.1
85409.4
85238.2
85080.8
84937.9
84810.9
84701.1
84608.2
84530.3
84466.4
84418.9
84391.6
84383.8
84394.5
84426.7
84489.2
84569.5
84663.6
84769.9
84891.8
85028.1
85169.6
85308.2
85448.9
85596.8
85743.2
85886.2
86027
86159.1
86281.1
86390.7
86481.2
86552.8
86597.7
86618.7
86612.3
86582.2
86527.9
86453.1
86353.1
86220.9
86080.5
85929.3
85751
85553.3
85325.2
85092.2
84847.6
84557.2
84239.7
83892
83514.6
83121.1
82694.4
82226.5
81733.1
81195.3
80571
79937
79328.9
78650.6
77961.1
77261.7
76543.5
75887.9
75291.1
74726.4
74200
73801.1
73507.6
73313.2
73243.2
73095.6
73089.4
73067.4
73237.5
73436.7
73648.6
73857.4
74129.2
74488.1
74896.4
75298.6
75701.3
76103.9
76533.1
76988.6
77453.2
77945.9
78466.4
78988.9
79509.2
103863
103855
103839
103815
103783
103744
103696
103641
103576
103504
103423
103334
103237
103131
103018
102898
102772
102640
102504
102361
102213
102059
101902
101742
101578
101410
101238
101063
100885
100706
100525
100343
100159
99975.1
99789.7
99603.3
99416.2
99228.4
99040.2
98852.2
98663.7
98475
98285.8
98096.1
97905.6
97714
97520.8
97325.6
97127.8
96926.9
96722.1
96512.9
96298.7
96078.8
95852.8
95620.1
95379.9
95131.9
94876.2
94612.4
94338.1
94060.9
93767.8
93466.5
93156.3
92837.6
92510.7
92176.8
91836.8
91492
91143.9
90794.4
90440.6
90088.3
89738.1
89391.1
89048.7
88712.5
88383.4
88063.3
87753.3
87453.9
87166.9
86893.6
86634.1
86387.9
86155.9
85941.7
85746.8
85567.8
85401.8
85249.8
85112
84991.5
84887.1
84798
84722.2
84661
84619
84598.6
84597.9
84616.6
84656.7
84719.6
84799.4
84892.6
84999.1
85120.6
85254.5
85389.7
85521.3
85658
85801.3
85939.6
86073.7
86201
86315.3
86437.5
86537.7
86618.3
86678.9
86717.7
86733.8
86724.3
86688.5
86625.3
86549.7
86454.2
86310.1
86173.8
86023.5
85848.1
85651.7
85405
85183.5
84953
84683
84351.6
84004.7
83615.9
83207.2
82774.2
82311.9
81853.2
81334.1
80703.9
80055.5
79416.8
78762.6
78092.2
77417.3
76703.3
76036.1
75446.9
74891.8
74381
73990.4
73661.6
73479.9
73404
73256.2
73237.1
73237.1
73349.3
73589.7
73795.4
74001.7
74291.4
74671.4
75098.2
75500
75899.1
76310.3
76742.3
77195.8
77656.9
78156.4
78680.1
79204.2
79731.8
103745
103739
103724
103701
103672
103635
103591
103538
103478
103410
103333
103249
103157
103056
102948
102833
102711
102583
102450
102312
102169
102022
101872
101717
101558
101394
101227
101058
100886
100712
100536
100359
100179
99997.9
99814.9
99630.6
99445.3
99259.3
99072.7
98885.8
98698.6
98511
98322.8
98134
97944.4
97753.6
97561.3
97367.1
97170.4
96970.7
96766.9
96558.5
96345.1
96126.4
95901.9
95670.9
95432.5
95185.7
94930.3
94666.4
94393.7
94112.7
93822.5
93526.8
93220
92905.2
92582.1
92252.8
91917.6
91577.6
91233.6
90886.4
90541.5
90196
89852.1
89511.5
89175.1
88844.5
88521.1
88205.8
87900.2
87605.8
87323.8
87054.7
86800.4
86560.9
86333.3
86120.1
85926.2
85751.4
85591.7
85446.7
85316.9
85201.3
85099.6
85012.8
84940.4
84885.4
84851.5
84838.9
84844.8
84869.9
84914.9
84978.8
85059
85154.1
85263
85382.7
85510.1
85637.9
85765.3
85899.2
86035.6
86167.8
86299.2
86424.3
86538.6
86651.1
86736.7
86802.4
86849
86873.8
86879.2
86862.1
86820.1
86748.8
86667.6
86570.6
86435.4
86292
86138.8
85967.3
85763
85506.1
85286.8
85067.4
84822.1
84518.6
84148.5
83762.3
83357.4
82894.3
82427.9
81960.8
81479.6
80861.4
80209.9
79569.2
78904.2
78244
77598.7
76898.8
76218.2
75622.7
75077.5
74577
74183.4
73850.4
73655.5
73520.3
73465.2
73416.5
73419.2
73527.8
73768.2
73966.8
74170.6
74480.7
74887.5
75327.9
75730.9
76122.9
76543.4
76980.4
77428.9
77886.5
78392.9
78918.4
79450.1
79997.2
103603
103597
103583
103562
103535
103501
103461
103413
103358
103295
103224
103145
103058
102963
102861
102752
102636
102514
102388
102256
102119
101979
101834
101684
101530
101373
101213
101050
100884
100716
100545
100372
100196
100018
99838
99656.6
99474
99290.4
99105.8
98921.2
98736
98550.2
98363.8
98176.6
97988.4
97798.9
97607.7
97414.7
97219.4
97021.3
96818.9
96611.7
96399
96181.4
95958.9
95730.7
95495.2
95250.9
94997.5
94734.8
94463.4
94183.5
93896.1
93601.3
93297.9
92989.4
92670.1
92345.2
92014.8
91680.1
91342.3
91003
90662.5
90323.4
89986.3
89652.2
89322.3
88997.8
88680
88370.4
88070.3
87780.7
87503.4
87238.6
86987.2
86752.2
86531.8
86323.7
86131.2
85958.4
85804.6
85666.7
85543
85432.8
85335.6
85253.1
85187.3
85140.5
85115.4
85110.3
85122.6
85153
85201.5
85266.4
85348.2
85446.6
85558.2
85676.3
85795.7
85915.6
86040.6
86171.6
86301.7
86429.2
86554.9
86671.8
86782.1
86883.9
86961.7
87013.4
87043.6
87048.2
87040.2
87012.9
86970.5
86898.5
86811.7
86704.6
86576.9
86428.7
86276.8
86109.4
85874.9
85657.9
85439.4
85207.2
84957.1
84676.7
84304
83921.2
83532.1
83065.8
82576
82081
81580.7
81023.8
80397.3
79743.6
79081.4
78422.2
77780.2
77105
76431.9
75833.7
75291.6
74789.6
74398.3
74046.3
73819.9
73625.8
73690.1
73618.9
73635.5
73800.1
73991.8
74165.8
74368.1
74699.1
75141.1
75588.2
75990.6
76375.6
76804.6
77248
77685.9
78145.5
78664.7
79190
79745.4
80306.9
103433
103428
103415
103396
103373
103343
103306
103264
103214
103156
103091
103018
102938
102851
102755
102653
102544
102430
102310
102186
102057
101923
101784
101641
101495
101345
101192
101036
100877
100715
100549
100380
100209
100035
99859
99681.4
99501.7
99321.2
99140.3
98958.6
98776
98592.7
98408.6
98223.8
98037.9
97850.6
97661.4
97469.7
97275.5
97078.7
96878.2
96672.5
96461.1
96244.4
96023.5
95798.4
95566.8
95326.3
95075.7
94815.5
94546.2
94268.6
93986
93697.7
93396.3
93088.6
92774.8
92455.4
92130.7
91801.9
91470
91135.8
90801.5
90470.9
90141.4
89814.8
89491.9
89174.3
88863
88558.9
88264.2
87980
87707.4
87448
87200
86967.9
86752.9
86552.7
86365
86193.4
86041.8
85908.8
85792.4
85691.2
85602.8
85527.4
85467.8
85428.3
85410.3
85411.5
85429.5
85465.4
85517.5
85585
85667.7
85766.8
85879.3
85997
86111.5
86225.8
86348.2
86475
86599
86719.4
86833.8
86935.9
87027.9
87108.7
87181.2
87223.1
87232.2
87228.4
87211
87177.8
87134.5
87072.1
86975.8
86863.2
86732.5
86579.1
86434.1
86289.4
86054.1
85857.8
85623
85393.1
85119.1
84817.3
84463.5
84082.2
83691.9
83244.2
82750.3
82250.7
81714.6
81197.1
80594.5
79938.3
79279.4
78624.2
77951.6
77299.9
76649.8
76056.8
75525.8
75019.1
74634.8
74271.3
73996.6
73799.5
73899
73829.1
73881.4
74066.6
74250.5
74396.1
74590.8
74945.1
75440.6
75879.3
76276.7
76664.9
77098.2
77552.1
77975.6
78438.9
78975
79519.7
80091.5
80656.5
103236
103232
103221
103205
103184
103157
103124
103086
103042
102991
102932
102867
102793
102713
102626
102532
102432
102326
102215
102099
101977
101852
101722
101587
101449
101308
101163
101014
100862
100706
100546
100383
100217
100048
99877.2
99704.2
99527.5
99352.2
99175.6
98997.7
98818.3
98637.9
98456.6
98274.5
98091.4
97907
97720.5
97531.1
97338.7
97143.5
96945
96742
96533
96318.4
96099.1
95876.1
95647.2
95410.6
95163.9
94907.7
94642.3
94369
94091.1
93803.3
93507.5
93205.3
92897
92583.4
92265.3
91943
91617.9
91290.9
90963.1
90640.6
90318.9
90000.2
89684.8
89374.5
89070.3
88772.8
88483.3
88204.8
87937.8
87683.9
87441.6
87211.6
86999.5
86804.9
86624.1
86458
86309.5
86180.6
86070.5
85976.9
85898.2
85832
85780.2
85747.8
85734.4
85741.7
85765.9
85806.7
85862.8
85934.7
86019.5
86115.7
86223.6
86338.9
86453.6
86566.4
86685.5
86806.2
86922.6
87033.4
87133.4
87224
87307.1
87377.6
87430.1
87455.1
87448.5
87436.9
87411
87374.1
87325.7
87263.2
87162.2
87056.8
86912.6
86766.1
86626.5
86476.9
86297.7
86053.7
85812.7
85585.9
85313.1
85002
84651.9
84265.9
83856.9
83412.5
82947.9
82502.5
81994.5
81411.6
80798.8
80150.9
79488.9
78819
78140.1
77496.5
76874.9
76289.9
75770.3
75267.4
74878.5
74529.4
74236.6
74071
74121
74060.1
74166.5
74357.7
74534.9
74639.9
74839.1
75224.3
75790.1
76202.2
76590.6
76996
77426.2
77901.2
78304.1
78772.2
79336.6
79899.7
80481.4
81039
103009
103006
102998
102984
102965
102941
102913
102879
102840
102795
102744
102685
102621
102549
102471
102386
102296
102200
102099
101992
101881
101765
101644
101520
101391
101259
101122
100982
100837
100688
100536
100380
100220
100055
99890.2
99722.9
99553.8
99383.5
99211.5
99037.8
98862.4
98685.6
98507.8
98328.9
98149.1
97968
97784.7
97598.9
97409.8
97217.1
97020.5
96819.7
96614.4
96403.9
96187.4
95965.3
95738.1
95505.6
95264.1
95012.5
94751.2
94481.8
94205.7
93922.4
93632.3
93336.1
93034.2
92727.3
92416.5
92102.7
91786.4
91468.2
91151.1
90836.1
90522.3
90211.1
89903.4
89599.7
89302
89012.2
88728.1
88455.3
88195.8
87948.4
87709.8
87484.6
87275
87083.6
86908.9
86748.9
86604.8
86479.8
86375.8
86288
86219.2
86164.2
86121.5
86094.6
86087.9
86101.1
86131.3
86177.6
86238.1
86314.6
86402.7
86498.5
86599.6
86708.8
86821.9
86935.4
87051.6
87167.4
87277.1
87377.9
87466.5
87544.3
87607.4
87652.8
87692.3
87715.2
87710.5
87692.5
87655.6
87613.5
87552.7
87480.7
87387.9
87286.4
87144.6
86997.8
86851.2
86677.9
86497.3
86264.5
86020.1
85796.5
85537.4
85220.3
84885
84496.2
84076.2
83629.8
83153.1
82688.2
82204.9
81631.4
81016.8
80387.5
79730.7
79068.2
78393.6
77724.5
77107.5
76535.4
76016.4
75540.1
75144.5
74821.4
74543.4
74388.4
74387.1
74341.2
74478.9
74679.7
74849.2
74901.1
75125.6
75568.7
76163.4
76556.8
76934.6
77369
77796.2
78273.8
78677.6
79176.9
79757.6
80328.4
80906.4
81451.2
102750
102748
102741
102730
102713
102693
102668
102639
102606
102567
102523
102473
102418
102357
102289
102215
102136
102051
101961
101865
101765
101660
101551
101437
101319
101196
101069
100938
100802
100661
100517
100368
100216
100060
99901.6
99741
99578.2
99413.3
99246.5
99078
98907.8
98735.9
98562.4
98387.4
98211.2
98033.9
97854.5
97672.4
97487.1
97298.4
97105.7
96908.6
96706.7
96500
96287.6
96069
95843.9
95612.1
95373.3
95126.8
94872.1
94607
94334.4
94055.8
93771.3
93481.7
93187
92887.6
92584.6
92278.5
91971.1
91665.6
91359.3
91049.3
90744.3
90443.1
90144.9
89850.9
89560.6
89281.1
89006.8
88737.9
88485
88237.4
88003.9
87785.6
87580.9
87392.7
87222.6
87069.5
86927.6
86804.7
86708.2
86628.8
86569
86526.2
86494.4
86474.3
86472.2
86490.4
86526.4
86576.9
86643
86724.3
86816.7
86914.5
87013.8
87116.6
87225.6
87337.9
87451.5
87562.5
87664.8
87755.2
87833
87899.2
87948.2
87979.2
87991.7
88008.9
88011.5
87989.5
87947.9
87902
87831
87744.2
87649.5
87543.1
87403.2
87247.8
87096.1
86912.7
86714.6
86503.9
86266.3
86035.5
85798.5
85509.4
85170.6
84770
84342.9
83896.5
83420.9
82921
82403
81851.1
81252.1
80637.9
80001.8
79361.8
78699.5
78016.5
77389.5
76815.6
76286.4
75844.6
75450.2
75147
74889.2
74742.6
74700.2
74676.6
74818
75028.3
75190.9
75229
75483.4
75973.1
76555
76946.9
77311.5
77778.6
78213
78675.3
79101.6
79644.9
80231.3
80799.9
81350
81885.1
102457
102456
102450
102440
102427
102410
102391
102366
102338
102306
102271
102231
102187
102137
102080
102019
101952
101879
101802
101719
101631
101538
101440
101338
101231
101119
101002
100881
100756
100625
100490
100351
100207
100060
99909.6
99755.8
99599.7
99441.6
99281.5
99119.2
98955.1
98789.2
98621
98450.5
98278.3
98104.8
97929.8
97752.4
97571.9
97387.5
97199.1
97006.6
96809.3
96606.9
96399.2
96186
95964.8
95734.8
95497.9
95254.5
95003.5
94743.5
94475.6
94202
93923.6
93641.3
93355.3
93065.5
92771.2
92473.9
92174.6
91874.9
91575.2
91276.1
90980.4
90688.9
90404
90123.7
89849.8
89577.4
89316.3
89060.5
88807.7
88566.9
88336.7
88119.6
87918.4
87734
87568
87421.6
87297.4
87186.7
87084.1
87003.7
86950.8
86918.5
86895.1
86883.8
86887.5
86909.5
86951.3
87005.8
87076.4
87162.2
87259.6
87361.7
87463.4
87563.6
87667.4
87775.7
87884.3
87986.9
88079.7
88160.7
88231.1
88290
88333.1
88358.9
88369.1
88360.4
88357.4
88332.3
88284.6
88225.7
88142.6
88046.8
87941.8
87832.8
87694
87526.8
87372.2
87199
86995.8
86782.7
86560.1
86333.3
86105.7
85831
85483.7
85087.4
84659.7
84205.5
83729
83228.3
82695.5
82122.6
81519.3
80903.7
80295.4
79680.9
79034.9
78358
77727.9
77144.8
76609
76186.2
75801.6
75499.2
75263
75119.7
75055.4
75054.4
75188.6
75402.9
75525.7
75607.3
75896
76414.6
76966.9
77384.4
77742.7
78210
78671.6
79108.5
79568.9
80161.6
80746.2
81308
81834.8
82372.4
102130
102129
102124
102115
102105
102095
102080
102061
102037
102013
101986
101958
101927
101891
101848
101800
101746
101687
101622
101553
101478
101398
101314
101223
101129
101029
100924
100814
100700
100580
100455
100326
100192
100055
99913.4
99768.7
99620.8
99470.1
99317.1
99161.9
99004.4
98844.8
98683.2
98519.3
98352.4
98183.1
98012.4
97839.9
97664.5
97485.5
97302.5
97115.1
96923.2
96725.8
96522.4
96313.9
96099.2
95875.3
95641.5
95400.3
95150
94892.7
94628.8
94360.6
94089.7
93817.4
93542.3
93264.5
92980.4
92691.9
92401.7
92110
91818.8
91528.2
91241.7
90957.6
90679.3
90403.8
90139.7
89879.5
89626.5
89384.6
89146.7
88916.8
88696.5
88485.3
88286.7
88106.3
87945.4
87802
87678.5
87574
87486.8
87412.8
87357.7
87328.9
87324.3
87324.2
87334.7
87360
87405.9
87465.4
87539.7
87628.9
87729.8
87837.4
87944.2
88045.7
88145.8
88248.3
88350.2
88445.9
88534.7
88613.1
88681
88729.3
88762.2
88778.4
88783
88774.1
88757.2
88724.9
88659.2
88580.6
88489.2
88384.1
88270.8
88157.8
88025.4
87851.9
87691.9
87519
87313.8
87094.7
86874.8
86645.1
86357.6
86070.2
85771
85408.4
84990.7
84531.5
84047.4
83551.5
83016.9
82438.1
81833.2
81215.5
80620
80024.6
79374.3
78727.5
78114.1
77522.9
76988.6
76560.7
76185.2
75881.5
75663.9
75527.6
75446.8
75463.2
75589.5
75817.6
75945.7
76060.1
76369.2
76893.8
77414.2
77843.7
78224.5
78669.2
79170.4
79591.6
80089
80709.1
81286.6
81845.8
82374.7
82941.7
101770
101769
101764
101755
101749
101744
101735
101721
101703
101691
101674
101660
101642
101620
101593
101559
101520
101475
101425
101369
101308
101242
101171
101094
101012
100925
100833
100736
100633
100526
100413
100295
100172
100045
99913.5
99778.7
99640.2
99498.5
99354.1
99206.9
99057.1
98904.8
98749.6
98592.1
98432.9
98270.4
98104.3
97936.3
97766.2
97592.7
97415.5
97234.1
97047.7
96856.2
96659.3
96456.3
96246.7
96028.9
95801.4
95564.9
95308.8
95053.5
94792.8
94531.2
94270.1
94011
93750.6
93484.5
93213.8
92936.5
92655.1
92371.3
92089.5
91808.5
91533.2
91262
90991.9
90727.3
90465.3
90212.2
89965.8
89727.9
89501.9
89285.4
89076.4
88876.6
88685.8
88509
88352
88214.5
88095.7
87995
87915.2
87852.5
87805.7
87782.4
87783.2
87794.7
87812.3
87843
87891.2
87955.6
88033.2
88125.7
88229
88340.6
88453.4
88559.4
88658.9
88756.5
88851.1
88942.4
89028.7
89103.2
89166.7
89203.8
89229.9
89237.7
89232.4
89214.6
89182.8
89144.5
89064.7
88972.8
88879.8
88766.5
88648.6
88530.1
88400.4
88235
88069.1
87890.6
87683.4
87455.2
87217.1
86946.4
86637.2
86356.1
86073.3
85724.6
85320.3
84870.2
84387.9
83888.8
83359.8
82791.2
82193
81572
80990.5
80421.6
79781.9
79128.7
78530.1
77947.9
77416.8
76967.4
76591.8
76304.7
76097.6
75963.6
75886.3
75902.2
76023
76275
76417.7
76565.9
76899.6
77411.8
77900.8
78339.3
78742
79195.5
79682.6
80140.9
80674.4
81303.2
81860.3
82420.1
82964.1
83553.4
101379
101379
101371
101363
101360
101359
101357
101353
101349
101347
101344
101342
101338
101331
101318
101300
101276
101246
101211
101169
101122
101070
101013
100950
100881
100808
100729
100645
100555
100461
100361
100255
100145
100029
99909.2
99785.3
99657.6
99526.2
99391.1
99253
99111.7
98967.6
98821.1
98671.4
98518.5
98363.4
98206.1
98044.6
97879
97710.8
97539.4
97363.7
97184.1
96999.7
96809
96611.2
96406.4
96193.9
95971.3
95736.6
95489.1
95235.4
94972.5
94717.2
94467.2
94221.2
93980.2
93731.5
93475.6
93210.8
92938.9
92663
92386.8
92114.1
91845.9
91586.2
91322.9
91072.9
90825.6
90577.3
90337.2
90104.5
89882.7
89675.8
89478.1
89288.8
89110
88941.3
88789.3
88656.8
88544.5
88449.6
88375.2
88322.3
88284
88265.2
88270.5
88294.5
88321.5
88359
88409.7
88477.1
88558.2
88653
88759
88873.2
88990.6
89103.1
89205.2
89301
89388.7
89475.9
89559.1
89621.6
89672.8
89710
89730.1
89733.2
89716.8
89681
89625
89557.8
89509.5
89413
89311.6
89197.9
89075.2
88954.1
88824.8
88665.2
88497.6
88323.5
88124.5
87873.5
87622.4
87319.9
87051.8
86763.5
86469.1
86115.9
85717
85269.6
84791.6
84288.4
83751.4
83186.3
82593.4
81985.9
81399
80830.7
80221.4
79573.7
78975.7
78412.8
77883.2
77417.3
77042.8
76771.5
76568.3
76439.1
76379.4
76383.6
76494.2
76771.3
76951.5
77124.7
77479
77977.9
78438.4
78875.8
79300.9
79783.1
80233.1
80748.7
81316.2
81942.8
82483.4
83042.9
83597
84169.3
101024
101020
101010
101000
100998
101003
101011
101020
101030
101041
101051
101062
101069
101074
101073
101067
101056
101040