/*--------------------------------*- C++ -*----------------------------------*\
| =========                 |                                                 |
| \\      /  F ield         | OpenFOAM: The Open Source CFD Toolbox           |
|  \\    /   O peration     | Version:  dev                                   |
|   \\  /    A nd           | Web:      http://www.openfoam.org               |
|    \\/     M anipulation  |                                                 |
\*---------------------------------------------------------------------------*/
FoamFile
{
    version     2.0;
    format      ascii;
    class       surfaceScalarField;
    object      phi;
    location    "9.138";
}
// * * * * * * * * * * * * * * * * * * * * * * * * * * * * * * * * * * * * * //

dimensions      [1 0 -1 0 0 0 0];

internalField   nonuniform List<scalar> 
24170
(
1.65156e-06
1.03675e-06
4.6062e-07
5.31091e-07
-2.65573e-07
9.43809e-08
-8.05331e-07
-5.93847e-08
-1.25154e-06
-1.15161e-07
-1.5941e-06
-1.8178e-07
-2.04948e-06
-3.22447e-08
-2.36548e-06
-1.42861e-07
-2.8724e-06
8.66364e-08
-3.19732e-06
-6.8023e-08
-3.76027e-06
2.00231e-07
-3.79487e-06
-2.99791e-07
-4.86655e-06
7.61735e-07
-4.95251e-06
-1.88774e-07
-5.90587e-06
7.10964e-07
-6.154e-06
3.67429e-08
-6.56637e-06
2.53866e-07
3.52116e-06
-1.01266e-05
3.28412e-06
7.30271e-07
2.39286e-06
6.81495e-07
1.583e-06
1.92327e-07
9.08932e-07
-5.63894e-08
3.73127e-07
-2.08065e-07
-6.48554e-08
-3.28997e-07
-4.93291e-07
-1.48302e-07
-8.93404e-07
-2.51699e-07
-1.33851e-06
6.58992e-08
-1.78522e-06
-5.39762e-08
-1.95496e-06
-2.92194e-08
-2.31868e-06
-2.98462e-07
-3.06911e-06
1.17275e-06
-3.85241e-06
2.98158e-07
-3.91765e-06
5.15091e-07
-2.60563e-06
-1.49374e-06
-7.0682e-06
4.54223e-06
7.21638e-06
-1.08622e-05
4.07975e-06
-1.0935e-07
3.56613e-06
3.73464e-07
3.05823e-06
-8.77294e-08
2.39258e-06
-1.32248e-07
1.89605e-06
-4.0594e-07
1.33295e-06
-4.12965e-07
9.67735e-07
-3.8631e-07
7.1739e-07
-5.64098e-07
-7.81219e-08
3.44076e-07
-1.28164e-07
-4.84594e-07
-5.41362e-07
-5.65203e-08
4.47223e-08
-1.29185e-06
-1.87475e-06
2.72292e-06
-2.74451e-06
8.357e-07
-2.21614e-06
-3.04997e-07
-3.84329e-06
-1.14509e-07
-5.66152e-06
6.16047e-06
5.62705e-06
-4.21082e-06
4.31171e-06
-6.92775e-07
3.96111e-06
-1.77517e-07
3.768e-06
-7.58971e-07
3.2933e-06
-4.70655e-07
2.90457e-06
-7.79371e-07
2.39255e-06
-6.1029e-07
2.00501e-06
-6.60267e-07
2.21565e-06
-1.39107e-06
1.06015e-06
9.30127e-07
8.23986e-07
-7.76585e-07
6.73962e-07
-3.92309e-07
1.65061e-06
-2.71739e-06
5.05196e-08
3.91999e-06
-4.32428e-07
9.53397e-07
-2.65507e-06
1.59937e-06
-2.24765e-06
-7.97836e-07
-2.17112e-06
5.83985e-06
9.96005e-06
-6.69154e-06
4.56792e-06
-1.31019e-06
4.30784e-06
-9.04634e-07
3.82672e-06
-1.22195e-06
4.10713e-06
-1.64048e-06
3.42846e-06
-9.34993e-07
3.17331e-06
-1.13192e-06
2.83898e-06
-1.05002e-06
3.1674e-06
-2.39285e-06
2.02845e-06
1.44731e-06
1.42504e-06
-7.50361e-07
1.713e-06
-1.21377e-06
1.12383e-06
-2.62011e-06
1.37335e-06
3.22623e-06
1.59492e-06
3.30187e-07
-1.25426e-06
4.08856e-06
-8.29656e-07
-1.54655e-06
-2.44157e-06
7.17e-06
9.84023e-06
-2.54198e-06
4.90997e-06
-1.68177e-06
4.79555e-06
-1.86563e-06
4.06178e-06
-1.51601e-06
4.44359e-06
-2.98832e-06
3.27693e-06
-6.76117e-07
3.33567e-06
-2.0372e-06
3.16729e-06
-1.67212e-06
2.2419e-06
-2.19956e-06
1.67973e-06
1.33038e-06
2.79582e-06
-2.49436e-06
1.53265e-06
-5.31754e-07
-2.73745e-07
-1.35099e-06
5.64858e-07
1.90288e-06
1.55344e-06
-1.09954e-06
-1.2686e-06
6.51295e-06
-1.61587e-06
-1.55999e-06
-3.24739e-06
8.4836e-06
7.81792e-06
-1.4956e-06
4.91539e-06
-1.68002e-06
5.74665e-06
-3.86702e-06
5.40579e-06
-2.29405e-06
4.88267e-06
-3.5055e-06
3.66531e-06
-4.35925e-07
3.43241e-06
-2.72032e-06
1.65609e-06
-7.52062e-07
1.52202e-06
-2.85738e-06
2.30462e-06
-1.90641e-07
2.16811e-06
-3.04237e-06
1.33716e-07
8.74618e-07
-2.63602e-07
-1.53505e-06
-7.22062e-07
1.83391e-06
-4.51369e-07
-1.84924e-06
2.87421e-07
5.33493e-06
-2.10707e-06
4.41995e-07
4.47534e-07
5.57558e-06
6.00661e-06
1.94529e-06
3.95206e-06
-1.69799e-06
4.3952e-06
-5.20479e-06
3.97477e-06
-2.73216e-06
3.98286e-06
-4.31303e-06
3.07256e-06
-2.72552e-07
2.54815e-06
-2.89959e-06
1.99182e-06
-8.51856e-07
2.10257e-06
-3.57348e-06
1.63754e-06
-2.85581e-07
8.90371e-07
-2.82053e-06
9.87369e-07
2.95461e-07
4.12288e-07
-1.40286e-06
1.98193e-07
1.63775e-06
4.30195e-07
-2.45154e-06
1.29522e-06
4.13624e-06
-9.09281e-07
2.34886e-06
6.07968e-07
3.7883e-06
5.49863e-06
8.7518e-07
4.71728e-06
-1.98181e-06
4.80045e-06
-6.30905e-06
4.09377e-06
-3.00491e-06
4.05262e-06
-5.19023e-06
3.64893e-06
-7.24115e-07
3.33927e-06
-3.39269e-06
3.10343e-06
-1.3646e-06
2.31041e-06
-3.47363e-06
2.13525e-06
-7.50418e-07
1.86219e-06
-3.13877e-06
1.70608e-06
-1.00239e-07
1.12493e-06
-1.32761e-06
1.43475e-06
8.61618e-07
-2.33599e-09
-1.43838e-06
1.74863e-07
3.5735e-06
-7.27732e-07
2.90121e-06
-1.06168e-06
3.80011e-06
4.61011e-06
-4.63598e-07
5.76357e-06
-2.75488e-06
5.31359e-06
-7.01468e-06
4.57746e-06
-3.37576e-06
4.30396e-06
-5.95726e-06
4.21744e-06
-1.60893e-06
3.92456e-06
-4.00516e-06
2.98659e-06
-1.27205e-06
2.28427e-06
-3.55716e-06
2.52201e-06
-1.71558e-06
1.97007e-06
-3.25414e-06
2.03401e-06
-7.83858e-07
1.38112e-06
-1.24695e-06
1.15777e-06
5.56605e-07
-8.21721e-07
6.00299e-08
-2.37671e-07
2.54223e-06
-5.81415e-07
2.83508e-06
-4.99065e-07
3.34214e-06
4.20529e-06
-4.3168e-07
6.95135e-06
-3.38442e-06
6.04068e-06
-7.39765e-06
5.29257e-06
-3.86555e-06
4.75811e-06
-6.58641e-06
4.63272e-06
-2.57094e-06
4.1926e-06
-4.57712e-06
3.91313e-06
-1.93613e-06
3.19976e-06
-3.72414e-06
2.89075e-06
-2.21985e-06
2.20832e-06
-3.32027e-06
2.29841e-06
-1.56446e-06
1.79931e-06
-1.38634e-06
1.39776e-06
3.68081e-07
5.5445e-07
3.62364e-07
1.00696e-06
1.58948e-06
1.03698e-06
2.34472e-06
1.0806e-06
2.87735e-06
3.47878e-06
1.42582e-06
8.3807e-06
-4.209e-06
7.3011e-06
-7.75114e-06
6.89172e-06
-4.82315e-06
5.85355e-06
-6.83299e-06
5.77654e-06
-3.69219e-06
5.12005e-06
-5.03643e-06
5.16254e-06
-3.01544e-06
4.49907e-06
-4.02726e-06
4.19662e-06
-2.81151e-06
3.34163e-06
-3.2877e-06
3.05227e-06
-2.03209e-06
2.44738e-06
-1.48033e-06
2.3052e-06
-1.36906e-07
1.84423e-06
2.2653e-07
2.03252e-06
8.51365e-07
2.24319e-06
1.62854e-06
2.65793e-06
1.99911e-06
2.72207e-06
2.98846e-06
9.65816e-06
-5.46427e-06
8.57764e-06
-8.2264e-06
8.28281e-06
-6.00686e-06
7.20828e-06
-7.14536e-06
7.06471e-06
-4.84096e-06
6.29653e-06
-5.471e-06
6.10008e-06
-3.93332e-06
5.4705e-06
-4.43348e-06
5.26111e-06
-3.56056e-06
4.46291e-06
-3.36932e-06
4.05941e-06
-2.43801e-06
3.51813e-06
-1.68619e-06
3.58855e-06
-8.97526e-07
3.42172e-06
-2.44139e-07
3.35839e-06
3.27318e-07
3.51907e-06
9.29137e-07
3.73355e-06
1.28927e-06
1.83581e-06
4.16353e-06
1.13675e-05
-6.02166e-06
1.00452e-05
-8.53827e-06
9.60042e-06
-7.11363e-06
8.51677e-06
-7.5127e-06
8.3272e-06
-6.00099e-06
7.53795e-06
-5.9361e-06
7.32966e-06
-4.8838e-06
6.61872e-06
-4.79468e-06
6.14853e-06
-4.08066e-06
5.43848e-06
-3.56665e-06
5.12224e-06
-2.95503e-06
4.85828e-06
-2.19137e-06
4.78693e-06
-1.53354e-06
4.8423e-06
-9.50905e-07
4.97504e-06
-4.05624e-07
5.20528e-06
1.48466e-07
5.31423e-06
6.74759e-07
1.16659e-06
5.51886e-06
1.30112e-05
-7.38194e-06
1.18675e-05
-9.03979e-06
1.12523e-05
-8.06016e-06
1.01858e-05
-7.89857e-06
9.81062e-06
-6.97025e-06
9.14215e-06
-6.51e-06
8.82251e-06
-5.70791e-06
8.2026e-06
-5.22804e-06
7.76874e-06
-4.61557e-06
7.27375e-06
-3.95546e-06
6.89986e-06
-3.3888e-06
6.68886e-06
-2.72216e-06
6.6232e-06
-2.14606e-06
6.69559e-06
-1.6456e-06
6.79709e-06
-1.07806e-06
6.99744e-06
-5.72478e-07
7.30008e-06
-1.06362e-07
3.5577e-07
7.67107e-06
1.52899e-05
-8.17815e-06
1.41735e-05
-9.4678e-06
1.33658e-05
-8.71448e-06
1.23597e-05
-8.24123e-06
1.1677e-05
-7.52684e-06
1.09332e-05
-6.90209e-06
1.044e-05
-6.25189e-06
9.96225e-06
-5.69619e-06
9.58799e-06
-5.10322e-06
9.31307e-06
-4.45848e-06
9.11583e-06
-3.89608e-06
9.0401e-06
-3.28688e-06
9.02619e-06
-2.70979e-06
9.05491e-06
-2.19969e-06
9.18971e-06
-1.68915e-06
9.45827e-06
-1.27077e-06
9.7801e-06
-8.21391e-07
-4.05885e-07
1.01849e-05
1.77631e-05
-7.90063e-06
1.64987e-05
-9.46748e-06
1.5541e-05
-8.95243e-06
1.46417e-05
-8.42861e-06
1.39131e-05
-7.7832e-06
1.32757e-05
-7.15304e-06
1.27446e-05
-6.51776e-06
1.2275e-05
-5.93737e-06
1.19112e-05
-5.37144e-06
1.17169e-05
-4.81959e-06
1.16179e-05
-4.28609e-06
1.16368e-05
-3.73616e-06
1.17837e-05
-3.23053e-06
1.20022e-05
-2.74735e-06
1.23103e-05
-2.28346e-06
1.26763e-05
-1.88539e-06
1.31455e-05
-1.51042e-06
-1.15448e-06
1.3703e-05
1.77755e-05
-7.78472e-06
1.69829e-05
-9.37532e-06
1.6178e-05
-8.80968e-06
1.54477e-05
-8.27813e-06
1.48619e-05
-7.7029e-06
1.43942e-05
-7.1201e-06
1.40284e-05
-6.51913e-06
1.37275e-05
-5.93622e-06
1.35076e-05
-5.39221e-06
1.33623e-05
-4.85983e-06
1.33127e-05
-4.37221e-06
1.33973e-05
-3.9138e-06
1.35743e-05
-3.46262e-06
1.38545e-05
-3.0518e-06
1.4197e-05
-2.62258e-06
1.46018e-05
-2.26614e-06
1.50423e-05
-1.90972e-06
-1.57492e-06
1.55171e-05
1.57891e-05
-7.27232e-06
1.50925e-05
-8.84738e-06
1.44964e-05
-8.36934e-06
1.39584e-05
-7.84733e-06
1.34907e-05
-7.29879e-06
1.3106e-05
-6.75902e-06
1.28104e-05
-6.20948e-06
1.26035e-05
-5.66862e-06
1.24806e-05
-5.17127e-06
1.24339e-05
-4.68167e-06
1.24358e-05
-4.2095e-06
1.25536e-05
-3.84381e-06
1.27485e-05
-3.44765e-06
1.30101e-05
-3.08744e-06
1.33424e-05
-2.71848e-06
1.37196e-05
-2.39867e-06
1.41337e-05
-2.07557e-06
-1.77844e-06
1.45862e-05
1.45599e-05
-6.71565e-06
1.4025e-05
-8.13263e-06
1.34873e-05
-7.66379e-06
1.29696e-05
-7.13734e-06
1.25089e-05
-6.62076e-06
1.21261e-05
-6.13648e-06
1.1845e-05
-5.6707e-06
1.16912e-05
-5.22633e-06
1.16325e-05
-4.80246e-06
1.16525e-05
-4.37152e-06
1.1742e-05
-3.948e-06
1.1891e-05
-3.63227e-06
1.21067e-05
-3.28726e-06
1.23712e-05
-2.97327e-06
1.26872e-05
-2.65314e-06
1.30571e-05
-2.38628e-06
1.34574e-05
-2.10243e-06
-1.8253e-06
1.38752e-05
1.30409e-05
-5.87805e-06
1.25589e-05
-7.2656e-06
1.20895e-05
-6.83089e-06
1.16857e-05
-6.36042e-06
1.13524e-05
-5.90641e-06
1.10664e-05
-5.45508e-06
1.08588e-05
-5.06107e-06
1.0751e-05
-4.69908e-06
1.07218e-05
-4.33836e-06
1.07748e-05
-3.98038e-06
1.0892e-05
-3.60995e-06
1.10549e-05
-3.33675e-06
1.12655e-05
-3.03002e-06
1.15032e-05
-2.74911e-06
1.17889e-05
-2.47631e-06
1.20977e-05
-2.23929e-06
1.24346e-05
-1.99641e-06
-1.77318e-06
1.28206e-05
1.17726e-05
-5.05567e-06
1.12913e-05
-6.30089e-06
1.08933e-05
-5.96903e-06
1.06135e-05
-5.60935e-06
1.0401e-05
-5.22968e-06
1.02337e-05
-4.81095e-06
1.0101e-05
-4.44908e-06
1.00104e-05
-4.12588e-06
9.97096e-06
-3.80075e-06
9.98422e-06
-3.4945e-06
1.00917e-05
-3.21409e-06
1.02337e-05
-2.97344e-06
1.04225e-05
-2.71315e-06
1.0644e-05
-2.47114e-06
1.08948e-05
-2.23174e-06
1.1154e-05
-2.01219e-06
1.14413e-05
-1.81138e-06
-1.61376e-06
1.17459e-05
1.03252e-05
-4.31377e-06
9.9359e-06
-5.389e-06
9.66176e-06
-5.18845e-06
9.5012e-06
-4.93782e-06
9.38766e-06
-4.61825e-06
9.34822e-06
-4.26484e-06
9.33057e-06
-3.92353e-06
9.29591e-06
-3.5882e-06
9.27999e-06
-3.26658e-06
9.2842e-06
-2.9857e-06
9.35661e-06
-2.77099e-06
9.4687e-06
-2.56824e-06
9.62443e-06
-2.36003e-06
9.82207e-06
-2.16106e-06
1.00575e-05
-1.97245e-06
1.03136e-05
-1.77992e-06
1.059e-05
-1.61445e-06
-1.43763e-06
1.0875e-05
9.20763e-06
-3.53029e-06
8.84509e-06
-4.49218e-06
8.68334e-06
-4.5119e-06
8.5884e-06
-4.33181e-06
8.4986e-06
-4.0245e-06
8.4336e-06
-3.69404e-06
8.37216e-06
-3.35897e-06
8.30341e-06
-3.01899e-06
8.30417e-06
-2.75707e-06
8.3549e-06
-2.53443e-06
8.44775e-06
-2.35908e-06
8.58657e-06
-2.20188e-06
8.75487e-06
-2.03703e-06
8.9677e-06
-1.87894e-06
9.193e-06
-1.72054e-06
9.43186e-06
-1.54886e-06
9.68167e-06
-1.40468e-06
-1.25427e-06
9.93788e-06
8.29731e-06
-2.77712e-06
8.12962e-06
-3.80688e-06
8.01286e-06
-3.89426e-06
7.87359e-06
-3.69823e-06
7.74714e-06
-3.40948e-06
7.65194e-06
-3.11401e-06
7.59122e-06
-2.81768e-06
7.56766e-06
-2.51485e-06
7.5959e-06
-2.30273e-06
7.66965e-06
-2.1291e-06
7.76657e-06
-1.97708e-06
7.89301e-06
-1.85263e-06
8.03435e-06
-1.71183e-06
8.19939e-06
-1.57951e-06
8.37624e-06
-1.44651e-06
8.57987e-06
-1.3105e-06
8.79248e-06
-1.18539e-06
-1.06528e-06
9.01687e-06
7.41871e-06
-2.33139e-06
7.44224e-06
-3.34258e-06
7.36495e-06
-3.34495e-06
7.21018e-06
-3.07733e-06
7.06029e-06
-2.80122e-06
6.95051e-06
-2.5499e-06
6.87741e-06
-2.29449e-06
6.87025e-06
-2.0594e-06
6.90393e-06
-1.88901e-06
6.96919e-06
-1.74818e-06
7.05678e-06
-1.62133e-06
7.15194e-06
-1.50821e-06
7.26768e-06
-1.39265e-06
7.39441e-06
-1.27944e-06
7.54007e-06
-1.17275e-06
7.69558e-06
-1.0571e-06
7.85983e-06
-9.52521e-07
-8.67466e-07
8.04783e-06
6.59518e-06
-2.0863e-06
6.66496e-06
-2.96093e-06
6.56407e-06
-2.80859e-06
6.41444e-06
-2.4967e-06
6.26385e-06
-2.2272e-06
6.12678e-06
-1.99448e-06
6.03384e-06
-1.78682e-06
5.99368e-06
-1.60725e-06
5.99048e-06
-1.47492e-06
6.01452e-06
-1.36377e-06
6.05173e-06
-1.25275e-06
6.09526e-06
-1.14957e-06
6.15235e-06
-1.0533e-06
6.21922e-06
-9.5604e-07
6.29989e-06
-8.71307e-07
6.40066e-06
-7.85124e-07
6.51272e-06
-7.01758e-07
-6.35081e-07
6.63147e-06
6.01109e-06
-1.76906e-06
6.04439e-06
-2.58075e-06
5.86296e-06
-2.23044e-06
5.60697e-06
-1.84916e-06
5.31793e-06
-1.55298e-06
5.03986e-06
-1.3365e-06
4.80344e-06
-1.17381e-06
4.61695e-06
-1.04635e-06
4.46777e-06
-9.52974e-07
4.34979e-06
-8.749e-07
4.26313e-06
-7.97895e-07
4.20074e-06
-7.22646e-07
4.16482e-06
-6.57722e-07
4.15074e-06
-5.88412e-07
4.16386e-06
-5.38141e-07
4.1954e-06
-4.78791e-07
4.24872e-06
-4.26598e-07
-3.72205e-07
4.30402e-06
5.28394e-06
-1.57223e-06
4.81065e-06
-1.73069e-06
4.20569e-06
-1.26541e-06
3.64994e-06
-9.389e-07
3.17448e-06
-7.29141e-07
2.78475e-06
-6.0323e-07
2.47286e-06
-5.21618e-07
2.23349e-06
-4.68821e-07
2.04727e-06
-4.30284e-07
1.9047e-06
-3.97741e-07
1.80392e-06
-3.64994e-07
1.74236e-06
-3.32409e-07
1.71014e-06
-3.01309e-07
1.70941e-06
-2.69142e-07
1.72752e-06
-2.44399e-07
1.76612e-06
-2.13308e-07
1.83303e-06
-1.97972e-07
-1.54923e-07
1.90174e-06
3.49711e-06
2.15708e-06
1.26227e-06
6.8133e-07
2.99683e-07
3.65211e-08
-1.50386e-07
-2.88481e-07
-3.91604e-07
-4.65918e-07
-5.11768e-07
-5.30113e-07
-5.23345e-07
-4.91323e-07
-4.42353e-07
-3.70884e-07
-2.93353e-07
-1.82805e-07
-1.339e-07
1.36716e-06
-8.66608e-08
1.21722e-06
4.01555e-07
7.85633e-07
1.24896e-06
4.41644e-07
2.31868e-06
2.33135e-07
3.51871e-06
1.14947e-07
4.74335e-06
1.00452e-07
5.94103e-06
1.34715e-07
7.1113e-06
1.69004e-07
8.23515e-06
2.20238e-07
9.30701e-06
2.76829e-07
1.03317e-05
3.30072e-07
1.12618e-05
4.27884e-07
1.20581e-05
5.62279e-07
1.27283e-05
6.99151e-07
1.31931e-05
9.18255e-07
1.34408e-05
1.12531e-06
1.35455e-05
1.28609e-06
1.33926e-05
1.55105e-06
1.31003e-05
1.66535e-06
1.27291e-05
1.76852e-06
1.21564e-05
1.97033e-06
1.16559e-05
1.8739e-06
1.13516e-05
1.69158e-06
1.10703e-05
1.66635e-06
1.09668e-05
1.45632e-06
1.11907e-05
1.11369e-06
1.15851e-05
9.55549e-07
1.1968e-05
9.89921e-07
1.22824e-05
1.08222e-06
1.24071e-05
1.28663e-06
1.2552e-05
1.24329e-06
1.31525e-05
7.3552e-07
1.40228e-05
3.66988e-07
1.46828e-05
4.86679e-07
1.51264e-05
6.87888e-07
1.55122e-05
7.62646e-07
1.57941e-05
8.62815e-07
1.57866e-05
1.13355e-06
1.54781e-05
1.42817e-06
1.49489e-05
1.65569e-06
1.43292e-05
1.74717e-06
1.37211e-05
1.72046e-06
1.31908e-05
1.61554e-06
1.27571e-05
1.48732e-06
1.24437e-05
1.3333e-06
1.22415e-05
1.18678e-06
1.21321e-05
1.05622e-06
1.20803e-05
9.58271e-07
1.20521e-05
8.91346e-07
1.2036e-05
8.3288e-07
1.20343e-05
7.68406e-07
1.20227e-05
7.24438e-07
1.19836e-05
6.94925e-07
1.19123e-05
6.66718e-07
1.18034e-05
6.4078e-07
1.16359e-05
6.32184e-07
1.14317e-05
5.98342e-07
1.11861e-05
5.65481e-07
1.09059e-05
5.22703e-07
1.06292e-05
4.39261e-07
1.03099e-05
3.9711e-07
9.94049e-06
3.5882e-07
9.49996e-06
3.3882e-07
8.99128e-06
3.13462e-07
8.41648e-06
2.8474e-07
7.73878e-06
2.97451e-07
6.98608e-06
2.80651e-07
6.19148e-06
2.33034e-07
5.39056e-06
1.528e-07
4.60497e-06
5.21123e-08
3.81413e-06
-2.59653e-08
3.01712e-06
-9.90941e-08
2.17761e-06
-1.28835e-07
1.3023e-06
-1.57884e-07
4.42964e-07
-2.31408e-07
-3.78526e-07
-3.1992e-07
-1.14906e-06
-4.12757e-07
-1.87953e-06
-4.84881e-07
-2.5652e-06
-5.52602e-07
-3.17734e-06
-6.40903e-07
-3.74557e-06
-6.91032e-07
-4.25033e-06
-7.52604e-07
-4.59514e-06
-9.01984e-07
-4.79977e-06
-1.02503e-06
-4.89441e-06
-1.11093e-06
-4.90074e-06
-1.16807e-06
-4.9862e-06
-1.05412e-06
-5.14854e-06
-9.32064e-07
-5.47206e-06
-7.2395e-07
-5.77371e-06
-7.04796e-07
-6.10187e-06
-6.3851e-07
-6.38919e-06
-6.38724e-07
-6.58665e-06
-6.83094e-07
-6.57584e-06
-8.34889e-07
-6.49659e-06
-8.43553e-07
-6.30874e-06
-9.06983e-07
-6.24112e-06
-7.54936e-07
-6.24484e-06
-6.69324e-07
-6.10677e-06
-7.82923e-07
-5.77392e-06
-9.42156e-07
-5.4726e-06
-8.65922e-07
-5.15374e-06
-8.45123e-07
-5.00473e-06
-7.04654e-07
-5.4803e-06
-1.38679e-07
-6.11471e-06
-1.53812e-08
-5.78611e-06
-9.83917e-07
-4.52448e-06
-1.88928e-06
-3.3559e-06
-1.6956e-06
-3.21222e-06
-6.59059e-07
-3.53774e-06
-2.18516e-07
-3.6845e-06
-4.3305e-07
-3.96322e-06
-3.11892e-07
-4.51581e-06
-1.44049e-08
-4.85083e-06
-2.14899e-07
-4.71469e-06
-7.17251e-07
-4.27458e-06
-1.01421e-06
-3.67407e-06
-1.15684e-06
-3.36663e-06
-8.326e-07
-3.58528e-06
-2.57187e-07
-4.2929e-06
2.75629e-07
-5.17518e-06
4.83271e-07
-5.88067e-06
3.50541e-07
-5.99776e-06
-1.94194e-07
-5.71943e-06
-5.62163e-07
-4.36166e-06
-1.63682e-06
-1.83712e-06
-2.74187e-06
2.81968e-07
-2.28111e-06
2.33968e-06
-2.19989e-06
4.33581e-06
-2.10924e-06
6.2098e-06
-1.96782e-06
7.06078e-06
-9.19429e-07
6.92009e-06
1.53664e-07
6.86756e-06
1.43311e-07
7.25717e-06
-2.61983e-07
7.7105e-06
-2.87379e-07
8.31603e-06
-4.1615e-07
8.82156e-06
-3.06288e-07
9.40255e-06
-3.77486e-07
9.68418e-06
-6.5875e-08
9.79208e-06
1.35707e-07
9.99488e-06
3.8557e-08
1.02138e-05
-3.34922e-08
1.0026e-05
3.32173e-07
1.00524e-05
5.14387e-08
1.00798e-05
-7.9362e-08
9.70401e-06
2.09802e-07
8.84883e-06
6.33837e-07
7.76849e-06
8.19801e-07
6.81435e-06
5.21809e-07
5.56706e-06
7.5641e-07
4.06599e-06
9.35641e-07
2.64925e-06
8.54893e-07
1.07039e-06
1.01463e-06
-3.84295e-08
5.11932e-07
-1.24288e-06
6.55694e-07
-2.47903e-06
7.37636e-07
-4.01222e-06
1.10795e-06
-5.45529e-06
1.09232e-06
-7.60609e-06
1.88408e-06
-8.81718e-06
1.06508e-06
-8.24186e-06
-1.24774e-07
-6.39645e-06
-1.07395e-06
-2.65697e-06
-2.90105e-06
-1.7754e-06
-2.50484e-07
-3.31386e-06
2.28808e-06
-4.69077e-06
2.09998e-06
-5.88255e-06
1.93525e-06
-6.28381e-06
1.1849e-06
-5.59807e-06
9.34001e-08
-4.48607e-06
-3.79758e-07
-3.11089e-06
-7.21738e-07
-1.74846e-06
-7.37564e-07
-7.18265e-07
-4.3305e-07
-1.01498e-07
-4.1558e-08
9.37057e-08
3.56293e-07
-3.05887e-08
6.42038e-07
-3.01831e-07
7.44323e-07
-7.16234e-07
8.35562e-07
5.91086e-07
-9.39448e-07
2.00769e-07
2.37541e-06
6.27983e-07
2.02013e-06
1.41223e-06
1.25492e-06
2.40381e-06
7.35073e-07
3.49049e-06
4.48018e-07
4.57414e-06
3.41959e-07
5.62909e-06
3.63822e-07
6.65741e-06
4.23394e-07
7.68106e-06
4.62132e-07
8.71169e-06
5.05134e-07
9.75396e-06
5.44285e-07
1.07387e-05
6.72041e-07
1.16589e-05
8.13556e-07
1.25166e-05
1.02759e-06
1.32657e-05
1.31619e-06
1.38489e-05
1.65373e-06
1.42988e-05
2.07507e-06
1.45746e-05
2.40191e-06
1.46912e-05
2.78109e-06
1.47261e-05
3.09081e-06
1.46214e-05
3.27252e-06
1.4485e-05
3.50705e-06
1.42507e-05
3.62918e-06
1.38982e-05
3.47539e-06
1.37521e-05
3.15834e-06
1.38282e-05
2.8161e-06
1.37016e-05
2.78145e-06
1.3497e-05
2.75123e-06
1.37892e-05
2.27596e-06
1.47034e-05
1.55172e-06
1.56216e-05
1.44651e-06
1.62122e-05
1.81618e-06
1.65187e-05
2.05999e-06
1.63936e-05
2.06313e-06
1.52967e-05
2.43913e-06
1.36349e-05
3.00207e-06
1.20577e-05
3.34716e-06
1.06274e-05
3.49848e-06
9.41714e-06
3.53227e-06
8.5324e-06
3.47695e-06
7.9753e-06
3.36134e-06
7.63115e-06
3.21738e-06
7.4302e-06
3.02121e-06
7.31615e-06
2.80056e-06
7.28663e-06
2.55776e-06
7.31537e-06
2.31427e-06
7.38951e-06
2.08932e-06
7.49967e-06
1.88739e-06
7.62458e-06
1.73681e-06
7.75566e-06
1.62276e-06
7.85987e-06
1.5467e-06
7.92891e-06
1.46911e-06
7.96677e-06
1.40422e-06
7.95573e-06
1.36783e-06
7.9101e-06
1.31469e-06
7.81533e-06
1.27407e-06
7.67811e-06
1.23977e-06
7.51858e-06
1.15571e-06
7.36845e-06
1.03713e-06
7.20235e-06
9.33189e-07
6.94562e-06
8.67403e-07
6.67917e-06
7.47318e-07
6.36463e-06
6.66098e-07
5.95876e-06
6.42158e-07
5.47375e-06
5.97554e-07
4.92396e-06
5.35596e-07
4.27127e-06
5.55686e-07
3.5484e-06
5.12824e-07
2.82355e-06
3.73556e-07
2.17342e-06
1.28625e-07
1.57741e-06
-1.14672e-07
9.51492e-07
-2.49553e-07
2.92482e-07
-3.71617e-07
-3.96115e-07
-4.47423e-07
-1.09502e-06
-5.3225e-07
-1.76936e-06
-6.86077e-07
-2.35927e-06
-9.03203e-07
-2.8932e-06
-1.08693e-06
-3.40802e-06
-1.20313e-06
-3.9068e-06
-1.30457e-06
-4.39505e-06
-1.41502e-06
-4.82531e-06
-1.5254e-06
-5.19106e-06
-1.63541e-06
-5.37587e-06
-1.93831e-06
-5.41249e-06
-2.19322e-06
-5.32493e-06
-2.37895e-06
-5.102e-06
-2.55923e-06
-4.94658e-06
-2.3833e-06
-4.96183e-06
-2.06665e-06
-5.25271e-06
-1.5548e-06
-5.54929e-06
-1.48368e-06
-5.8421e-06
-1.38799e-06
-6.04869e-06
-1.43423e-06
-6.05745e-06
-1.62373e-06
-5.9111e-06
-1.86082e-06
-5.70453e-06
-1.86164e-06
-5.48241e-06
-1.89375e-06
-5.24287e-06
-1.71568e-06
-5.06052e-06
-1.55297e-06
-4.64495e-06
-1.8743e-06
-4.18351e-06
-2.0254e-06
-3.661e-06
-2.03774e-06
-2.78187e-06
-2.37154e-06
-2.64612e-06
-1.38977e-06
-3.60479e-06
2.19737e-07
-3.66198e-06
-7.53666e-07
-2.60391e-06
-2.85147e-06
-2.48363e-06
-2.58815e-06
-3.76749e-06
-8.3532e-07
-4.86034e-06
-1.0024e-08
-5.6032e-06
-9.70564e-08
-6.6269e-06
-2.84221e-08
-7.5634e-06
2.19337e-07
-8.02946e-06
-1.30007e-07
-8.27962e-06
-8.05903e-07
-8.09933e-06
-1.55946e-06
-7.49574e-06
-2.2712e-06
-7.05585e-06
-2.30635e-06
-6.78384e-06
-1.68514e-06
-6.69523e-06
-8.30473e-07
-7.19102e-06
3.31594e-07
-7.77794e-06
6.54807e-07
-7.89888e-06
5.92593e-08
-7.74357e-06
-7.14299e-07
-7.19487e-06
-1.42163e-06
-5.66004e-06
-3.40945e-06
-2.8654e-06
-5.5824e-06
-6.29362e-07
-4.6323e-06
1.50017e-06
-4.43798e-06
4.31469e-06
-4.95952e-06
7.3682e-06
-5.00768e-06
9.78086e-06
-3.39294e-06
1.04612e-05
-6.36927e-07
1.05964e-05
-2.44912e-08
1.07164e-05
-3.37947e-07
1.07558e-05
-2.09649e-07
1.11902e-05
-6.66886e-07
1.16867e-05
-5.97083e-07
1.2326e-05
-8.27453e-07
1.30478e-05
-6.30504e-07
1.32004e-05
1.7378e-07
1.29834e-05
5.19782e-07
1.31407e-05
5.05929e-09
1.28939e-05
7.01886e-07
1.25574e-05
4.60292e-07
1.26461e-05
-2.80072e-07
1.27854e-05
-2.19757e-07
1.21731e-05
8.57811e-07
1.11292e-05
1.42391e-06
9.69729e-06
1.39582e-06
7.9002e-06
1.94671e-06
6.43153e-06
1.69443e-06
4.73129e-06
1.78569e-06
2.46828e-06
2.52341e-06
1.24775e-06
9.12175e-07
6.92308e-07
4.42047e-07
-3.30072e-07
1.04815e-06
-2.46319e-06
2.64967e-06
-4.68374e-06
2.78954e-06
-7.36798e-06
4.1429e-06
-9.06053e-06
2.81007e-06
-9.15754e-06
1.66108e-06
-9.2491e-06
8.66479e-08
-4.16304e-06
-8.42335e-06
1.09083e-06
-5.10723e-06
-1.67421e-07
4.1488e-06
-2.5182e-06
5.0937e-06
-4.30555e-06
4.4429e-06
-4.34615e-06
1.9527e-06
-3.2121e-06
-3.44498e-07
-1.80756e-06
-1.16635e-06
-5.74396e-07
-1.48178e-06
3.66415e-07
-1.25842e-06
6.13888e-07
-3.0099e-07
2.78867e-07
6.61739e-07
-6.12024e-07
1.60552e-06
-1.50463e-06
1.86305e-06
-2.45553e-06
1.99033e-06
-3.33511e-06
1.96162e-06
1.0757e-06
-3.62239e-06
4.34465e-07
3.12018e-06
1.24405e-06
2.41537e-06
2.23418e-06
1.51579e-06
3.21326e-06
1.04474e-06
4.11694e-06
8.3474e-07
4.91745e-06
8.28089e-07
5.67671e-06
8.86934e-07
6.44566e-06
9.21929e-07
7.28012e-06
8.77592e-07
8.18336e-06
8.58342e-07
9.14098e-06
8.41964e-07
1.00747e-05
9.73986e-07
1.1016e-05
1.17602e-06
1.18446e-05
1.48808e-06
1.24898e-05
1.96216e-06
1.31172e-05
2.40824e-06
1.3459e-05
3.03141e-06
1.36387e-05
3.55634e-06
1.38162e-05
3.96102e-06
1.37683e-05
4.50389e-06
1.37872e-05
4.75208e-06
1.38594e-05
4.80868e-06
1.38051e-05
5.01116e-06
1.37285e-05
5.08548e-06
1.3698e-05
4.76729e-06
1.37285e-05
4.26695e-06
1.39356e-05
3.99742e-06
1.44286e-05
3.73257e-06
1.4961e-05
3.30174e-06
1.49264e-05
3.03135e-06
1.43168e-05
3.10912e-06
1.31241e-05
3.79321e-06
1.14687e-05
4.62173e-06
9.52391e-06
5.08711e-06
7.80759e-06
5.24618e-06
6.68249e-06
5.25343e-06
5.97344e-06
5.23735e-06
5.48124e-06
5.16005e-06
5.13722e-06
5.02131e-06
4.94859e-06
4.79149e-06
4.89277e-06
4.52154e-06
4.95617e-06
4.23561e-06
5.10424e-06
3.93155e-06
5.3221e-06
3.61531e-06
5.57411e-06
3.3102e-06
5.83361e-06
3.02917e-06
6.08328e-06
2.78263e-06
6.3226e-06
2.55497e-06
6.56284e-06
2.36473e-06
6.7853e-06
2.2278e-06
6.98191e-06
2.1341e-06
7.13604e-06
2.05175e-06
7.2262e-06
2.00054e-06
7.2556e-06
1.97057e-06
7.21774e-06
1.9254e-06
7.12196e-06
1.87757e-06
7.00972e-06
1.78859e-06
6.84858e-06
1.6787e-06
6.58648e-06
1.59481e-06
6.31857e-06
1.42114e-06
6.06754e-06
1.26118e-06
5.76583e-06
1.11181e-06
5.43283e-06
9.77796e-07
5.09101e-06
8.70273e-07
4.74338e-06
7.35007e-07
4.32005e-06
6.52839e-07
3.80104e-06
6.70452e-07
3.07915e-06
7.2222e-07
2.30077e-06
5.47316e-07
1.62349e-06
1.22889e-07
1.08028e-06
-3.27605e-07
6.11553e-07
-6.13823e-07
1.08937e-07
-7.78864e-07
-4.34944e-07
-8.83116e-07
-9.60523e-07
-1.04422e-06
-1.49468e-06
-1.23435e-06
-2.0104e-06
-1.5047e-06
-2.54233e-06
-1.70185e-06
-3.08578e-06
-1.82591e-06
-3.69044e-06
-1.87502e-06
-4.258e-06
-2.02428e-06
-4.73849e-06
-2.2158e-06
-5.1551e-06
-2.35643e-06
-5.45428e-06
-2.73746e-06
-5.58631e-06
-3.14373e-06
-5.57266e-06
-3.44687e-06
-5.35081e-06
-3.836e-06
-5.0108e-06
-3.80032e-06
-4.76995e-06
-3.40361e-06
-4.82206e-06
-2.61086e-06
-4.90325e-06
-2.45392e-06
-4.99453e-06
-2.30331e-06
-4.98792e-06
-2.37896e-06
-4.72433e-06
-2.72665e-06
-4.26444e-06
-3.06288e-06
-3.85694e-06
-2.96043e-06
-3.6306e-06
-2.78921e-06
-3.53463e-06
-2.48096e-06
-3.32168e-06
-2.41356e-06
-3.01669e-06
-2.76624e-06
-2.64991e-06
-2.95707e-06
-2.02644e-06
-3.2714e-06
-1.73522e-06
-3.20774e-06
-2.36473e-06
-1.26415e-06
-2.34177e-06
-4.34225e-07
-1.5229e-06
-2.29452e-06
-2.0466e-06
-2.89176e-06
-4.04553e-06
-9.36544e-07
-5.64153e-06
3.97927e-07
-6.6134e-06
4.66111e-07
-7.80781e-06
5.39564e-07
-9.34632e-06
1.02077e-06
-1.04487e-05
7.11723e-07
-1.11446e-05
-1.93182e-07
-1.15771e-05
-9.89481e-07
-1.14251e-05
-2.47383e-06
-1.14378e-05
-3.12123e-06
-1.10951e-05
-3.11353e-06
-1.01294e-05
-3.16418e-06
-9.83905e-06
-1.72885e-06
-9.99302e-06
7.88001e-08
-9.76944e-06
1.08163e-07
-9.47529e-06
-5.91595e-07
-9.00096e-06
-1.45758e-06
-7.82352e-06
-2.68664e-06
-6.05283e-06
-5.04796e-06
-3.75507e-06
-7.79681e-06
-2.40257e-06
-6.07479e-06
-4.53298e-07
-6.37979e-06
2.63968e-06
-7.90052e-06
5.94397e-06
-7.9549e-06
9.06942e-06
-6.17653e-06
1.0761e-05
-2.20742e-06
1.18158e-05
-1.04263e-06
1.26171e-05
-1.11517e-06
1.29476e-05
-5.32525e-07
1.33243e-05
-9.65111e-07
1.34467e-05
-5.48971e-07
1.36331e-05
-8.93641e-07
1.4427e-05
-1.29982e-06
1.48499e-05
3.05576e-08
1.45032e-05
1.21661e-06
1.46696e-05
1.05446e-07
1.45971e-05
1.03818e-06
1.32994e-05
1.76006e-06
1.25451e-05
1.21223e-07
1.31971e-05
-1.10684e-06
1.37046e-05
1.48483e-07
1.29226e-05
1.82359e-06
1.17574e-05
1.97989e-06
1.01467e-05
2.9096e-06
8.48875e-06
2.5981e-06
6.77279e-06
2.67868e-06
4.67471e-06
3.79417e-06
2.1967e-06
2.38326e-06
1.09618e-06
5.96728e-07
1.07697e-06
2.83105e-07
-1.42449e-07
3.14238e-06
-2.67674e-06
4.68885e-06
-5.70586e-06
6.77097e-06
-8.76971e-06
7.02365e-06
-1.08649e-05
6.28537e-06
-1.28259e-05
2.12098e-06
-8.08257e-06
-1.78258e-05
1.42855e-06
-1.2689e-05
1.00535e-06
4.96136e-06
-1.02387e-06
7.72815e-06
-2.72187e-06
6.98342e-06
-2.61205e-06
2.58742e-06
-1.53993e-06
-7.14963e-07
-6.65486e-07
-1.46072e-06
1.20128e-07
-1.80402e-06
4.27542e-07
-1.16186e-06
-1.8774e-07
6.89059e-07
-1.25684e-06
2.11678e-06
-2.16383e-06
2.87917e-06
-3.26716e-06
3.31603e-06
-4.01526e-06
3.06205e-06
-4.98155e-06
3.18733e-06
1.4617e-06
-5.15673e-06
5.57898e-07
3.719e-06
1.49928e-06
2.67616e-06
2.42894e-06
1.83601e-06
3.19165e-06
1.5451e-06
3.78575e-06
1.48334e-06
4.33987e-06
1.51004e-06
4.95217e-06
1.50004e-06
5.69166e-06
1.39541e-06
6.56013e-06
1.22899e-06
7.51848e-06
1.11984e-06
8.48983e-06
1.10488e-06
9.4241e-06
1.31137e-06
1.02447e-05
1.64199e-06
1.10015e-05
2.0498e-06
1.15659e-05
2.76851e-06
1.19727e-05
3.36923e-06
1.21608e-05
4.17388e-06
1.22866e-05
4.77993e-06
1.22758e-05
5.30587e-06
1.22234e-05
5.81379e-06
1.22379e-05
6.15544e-06
1.24283e-05
6.25827e-06
1.25752e-05
6.27008e-06
1.25053e-05
6.38039e-06
1.26117e-05
6.22555e-06
1.31753e-05
5.49233e-06
1.38094e-05
4.86867e-06
1.37974e-05
4.78163e-06
1.26028e-05
5.25456e-06
1.04725e-05
5.99488e-06
8.1475e-06
6.44014e-06
6.36009e-06
6.65799e-06
5.2699e-06
6.84455e-06
4.55599e-06
6.9537e-06
3.98227e-06
6.96399e-06
3.55559e-06
6.82892e-06
3.34677e-06
6.59051e-06
3.33924e-06
6.29952e-06
3.47977e-06
6.00179e-06
3.68973e-06
5.6905e-06
3.94983e-06
5.35744e-06
4.24614e-06
5.01975e-06
4.56374e-06
4.67426e-06
4.88207e-06
4.33416e-06
5.19315e-06
4.00963e-06
5.50377e-06
3.69724e-06
5.80341e-06
3.42372e-06
6.06285e-06
3.19545e-06
6.30077e-06
2.9833e-06
6.52789e-06
2.8103e-06
6.74701e-06
2.67486e-06
6.93794e-06
2.57019e-06
7.0894e-06
2.50623e-06
7.21771e-06
2.44379e-06
7.27702e-06
2.40863e-06
7.27847e-06
2.35486e-06
7.20681e-06
2.26815e-06
7.07241e-06
2.14549e-06
6.9683e-06
1.96086e-06
6.7407e-06
1.84503e-06
6.44907e-06
1.67273e-06
6.07698e-06
1.52609e-06
5.65993e-06
1.3589e-06
5.22599e-06
1.18642e-06
4.8238e-06
9.35587e-07
4.50624e-06
6.83553e-07
4.19509e-06
6.02697e-07
3.82921e-06
6.03206e-07
3.21613e-06
5.64962e-07
2.42822e-06
2.28602e-07
1.65573e-06
-3.04169e-07
1.06229e-06
-8.2992e-07
5.33684e-07
-1.124e-06
2.60864e-08
-1.31208e-06
-4.25788e-07
-1.58258e-06
-8.65863e-07
-1.83101e-06
-1.34563e-06
-2.10676e-06
-1.85969e-06
-2.30968e-06
-2.47761e-06
-2.35787e-06
-3.17164e-06
-2.34064e-06
-3.8592e-06
-2.49229e-06
-4.41902e-06
-2.80386e-06
-4.8917e-06
-3.01401e-06
-5.35972e-06
-3.36939e-06
-5.73032e-06
-3.84669e-06
-5.95892e-06
-4.2548e-06
-5.94535e-06
-4.87115e-06
-5.71869e-06
-5.05051e-06
-5.42703e-06
-4.7512e-06
-5.2572e-06
-3.82182e-06
-5.16669e-06
-3.52153e-06
-5.01767e-06
-3.39734e-06
-4.74732e-06
-3.50371e-06
-4.29384e-06
-3.85586e-06
-3.67182e-06
-4.22716e-06
-3.05428e-06
-4.13903e-06
-2.46413e-06
-4.00557e-06
-1.82777e-06
-3.7317e-06
-1.45934e-06
-3.32654e-06
-1.17722e-06
-3.53288e-06
-6.54566e-07
-3.95403e-06
-5.39075e-07
-3.87368e-06
-1.12757e-06
-3.07504e-06
-1.2705e-06
-1.65063e-06
-2.7996e-07
-2.045e-06
-7.36707e-07
-2.4066e-06
-3.27974e-06
-7.71946e-07
-5.23267e-06
6.71547e-07
-6.39936e-06
1.12499e-06
-7.88767e-06
1.41203e-06
-9.7312e-06
1.94224e-06
-1.13179e-05
2.15336e-06