/*--------------------------------*- C++ -*----------------------------------*\
| =========                 |                                                 |
| \\      /  F ield         | OpenFOAM: The Open Source CFD Toolbox           |
|  \\    /   O peration     | Version:  dev                                   |
|   \\  /    A nd           | Web:      http://www.openfoam.org               |
|    \\/     M anipulation  |                                                 |
\*---------------------------------------------------------------------------*/
FoamFile
{
    version     2.0;
    format      ascii;
    class       volScalarField;
    object      pMean;
    location    "9.138";
}
// * * * * * * * * * * * * * * * * * * * * * * * * * * * * * * * * * * * * * //

dimensions      [1 -1 -2 0 0 0 0];

internalField   nonuniform List<scalar> 
12225
(
98312.4
98292.6
98278.9
98271.9
98257.6
98248.2
98229.7
98220.1
98198.6
98189.9
98165.2
98158.4
98127.4
98121.1
98080.3
98040.6
97951.4
97585.4
98307.9
98291.5
98278.3
98271.4
98257
98247.6
98229
98219.6
98197.9
98189.5
98164.5
98157.8
98127
98119.1
98078.5
98044.6
97952.3
97791.2
98304.1
98290
98277.3
98270
98255.6
98246.1
98227.5
98218.2
98196.5
98188
98163.6
98155.8
98127.6
98115.7
98080.8
98045.6
97978.2
97889.3
98299.1
98287
98275.2
98267.5
98253.2
98243.4
98225.5
98215.6
98194.8
98185.3
98162.3
98152.7
98126.5
98113.5
98081.8
98054
98005.5
97936.6
98292.4
98282.7
98271.6
98263.5
98249.6
98239.3
98222.4
98211.4
98192.3
98181
98160.8
98148.1
98126.6
98110.3
98083.7
98059.5
98019.6
97986.9
98284.2
98276.5
98265.7
98257.4
98244
98233.4
98217.3
98205.7
98187.9
98175.8
98157.6
98144
98125.6
98108.6
98087.3
98062
98039.8
98019.4
98273.9
98267.6
98257.2
98248.7
98236.1
98225
98210.2
98197.6
98181.9
98168.3
98152.9
98137.9
98123.3
98105.8
98091.5
98070.5
98060.1
98045.2
98263.2
98257.5
98247.8
98239.1
98227.4
98215.9
98202.3
98189.1
98175.1
98160.8
98147.7
98132
98120.5
98103.2
98094.4
98076.6
98074.9
98059.9
98252.3
98246.9
98238.1
98229.1
98218.3
98206.5
98194
98180.5
98167.9
98153.3
98141.8
98126.3
98116.6
98100.6
98094.4
98080.2
98079.9
98068
98238.7
98233.3
98225.5
98216.5
98206.6
98194.8
98183.3
98169.8
98158.5
98144
98134
98119.1
98110.9
98096.5
98091.5
98079.8
98079
98070.7
98221.8
98216.3
98209.8
98201
98191.8
98180.4
98169.6
98156.6
98146.1
98132.5
98123.2
98110
98102
98090.5
98084.8
98076.3
98073.6
98068.4
98201.2
98195.5
98190.3
98181.8
98173.5
98162.4
98152.5
98140.2
98130.6
98118.1
98109.4
98097.9
98090.4
98081.1
98075.4
98069
98065.4
98061.8
98176.4
98171.1
98166.6
98159.1
98151.1
98141.1
98131.7
98120.9
98111.6
98101
98092.5
98083.2
98076
98068.8
98063.3
98058.5
98054.9
98052.1
98148.2
98143.4
98139.4
98132.8
98125.6
98116.7
98108.1
98098.5
98090
98081
98073.3
98065.8
98059.4
98053.6
98049
98045.2
98042.2
98040.1
98118.1
98114.3
98110.5
98105.1
98098.6
98091
98083.2
98075.1
98067.5
98060.1
98053.4
98047.2
98041.9
98037.4
98033.7
98030.7
98028.5
98027.1
98090.3
98087.6
98084.2
98079.7
98074.1
98067.6
98060.8
98053.9
98047.3
98041.2
98035.5
98030.6
98026.3
98022.7
98019.8
98017.7
98016.1
98015.2
98071.7
98069.8
98067
98063.1
98058.1
98052.5
98046.5
98040.6
98034.9
98029.7
98024.9
98020.7
98017.2
98014.2
98012
98010.3
98009.1
98008.5
98072
98070.3
98067.8
98064
98059.3
98054
98048.4
98042.8
98037.5
98032.5
98028.1
98024.1
98020.7
98017.9
98015.7
98014
98012.8
98012.1
98091.7
98089.9
98087
98083.1
98078.1
98072.6
98066.8
98061
98055.4
98050.2
98045.4
98041.1
98037.4
98034.2
98031.5
98029.4
98027.7
98026.4
98122.5
98120.3
98116.9
98112.4
98107
98100.9
98094.6
98088.3
98082.1
98076.3
98070.9
98066
98061.6
98057.7
98054.3
98051.5
98049.1
98047.2
98157.3
98154.7
98150.7
98145.5
98139.4
98132.8
98125.8
98118.8
98112
98105.4
98099.3
98093.6
98088.5
98083.9
98079.8
98076.2
98073
98070.3
98191.2
98188.2
98183.4
98177.5
98170.8
98163.6
98156
98148.4
98140.9
98133.7
98126.9
98120.5
98114.7
98109.3
98104.5
98100.2
98096.3
98092.9
98221.5
98217.8
98212.3
98205.7
98198.5
98190.8
98182.7
98174.6
98166.6
98158.8
98151.4
98144.4
98137.9
98132
98126.5
98121.6
98117.1
98113.1
98246.8
98242.4
98236.1
98229
98221.3
98213.2
98204.8
98196.3
98187.8
98179.6
98171.7
98164.3
98157.3
98150.8
98144.8
98139.4
98134.4
98129.8
98267
98261.8
98254.7
98247
98239
98230.7
98222
98213.2
98204.4
98195.9
98187.6
98179.8
98172.4
98165.5
98159.2
98153.3
98147.9
98143
98282.7
98276.4
98268.3
98260.1
98252
98243.5
98234.7
98225.7
98216.7
98207.9
98199.4
98191.3
98183.6
98176.5
98169.8
98163.7
98158
98152.8
98294.5
98286.6
98277.6
98269.1
98260.8
98252.3
98243.4
98234.3
98225.2
98216.3
98207.6
98199.3
98191.5
98184.1
98177.3
98170.9
98165.1
98159.7
98303.2
98293.4
98283.3
98274.7
98266.4
98257.9
98249
98239.9
98230.7
98221.7
98212.9
98204.5
98196.5
98189.1
98182.1
98175.6
98169.6
98164.1
98309.3
98297.2
98286.1
98277.4
98269.4
98261
98252.2
98243.1
98233.9
98224.8
98215.9
98207.5
98199.4
98191.9
98184.8
98178.3
98172.2
98166.6
98315.2
98299.7
98287.6
98278.8
98270.6
98262.3
98253.5
98244.4
98235.2
98226.1
98217.2
98208.7
98200.6
98193.1
98186
98179.4
98173.4
98167.7
98312.3
98311.9
98311.2
98310
98308.5
98306.7
98304.5
98301.8
98298.8
98295.3
98291.5
98287.2
98282.6
98277.7
98272.5
98267
98261.3
98255.4
98249.3
98243
98236.6
98230
98223.3
98216.5
98209.6
98202.6
98195.6
98188.5
98181.4
98174.3
98167.2
98160.2
98153.2
98146.2
98139.3
98132.6
98125.9
98119.4
98113.1
98107
98101.1
98095.4
98089.9
98084.8
98080
98075.5
98071.4
98067.7
98064.4
98061.5
98059.2
98057.3
98055.9
98055
98054.8
98055.1
98056.1
98057.7
98059.9
98062.9
98066.6
98071
98076.1
98081.9
98088.4
98095.7
98103.6
98112.3
98121.6
98131.6
98142.2
98153.4
98165.1
98177.4
98190.2
98203.4
98217.1
98231
98245.4
98259.9
98274.8
98289.8
98304.9
98320.2
98335.4
98350.7
98365.9
98381
98395.9
98410.6
98425
98439.2
98452.9
98466.3
98479.2
98491.6
98503.5
98514.8
98525.6
98535.7
98545.3
98554.1
98562.3
98569.9
98576.9
98583.2
98588.9
98594
98598.6
98602.7
98606.4
98609.5
98612.4
98614.9
98617.1
98618.9
98620.6
98622
98623.3
98624.4
98625.5
98626.5
98627.7
98629
98630.6
98632.6
98635.2
98638.6
98643.1
98648.7
98655.8
98664.5
98675.2
98688
98703.4
98721.4
98742.2
98766
98792.8
98822.6
98855.6
98891.5
98930.4
98971.9
99016.2
99062.7
99111.7
99162.4
99215
99269.1
99324.6
99381
99437.9
99495.3
99552.5
99609
99664.4
99718.1
99769.1
99816.9
99860.4
99898.7
99930.6
99955.7
99972.4
99979.9
99977.2
99964.2
99940.1
99905.4
99860
99805.2
99741.3
99670.6
99593.6
99513.1
99428.6
99344
99257.2
99174.1
98305.3
98305
98304.2
98303
98301.5
98299.7
98297.4
98294.8
98291.8
98288.4
98284.6
98280.5
98276
98271.2
98266.1
98260.8
98255.3
98249.5
98243.6
98237.5
98231.3
98224.9
98218.4
98211.7
98205
98198.2
98191.3
98184.4
98177.5
98170.5
98163.6
98156.7
98149.8
98143
98136.3
98129.7
98123.2
98116.8
98110.6
98104.6
98098.8
98093.2
98087.9
98082.9
98078.1
98073.7
98069.7
98066
98062.8
98059.9
98057.6
98055.6
98054.2
98053.4
98053.1
98053.4
98054.3
98055.8
98058
98060.9
98064.5
98068.8
98073.8
98079.4
98085.9
98093
98100.8
98109.3
98118.4
98128.2
98138.6
98149.6
98161.2
98173.2
98185.8
98198.8
98212.2
98226
98240
98254.4
98269
98283.7
98298.6
98313.6
98328.6
98343.6
98358.5
98373.3
98387.9
98402.3
98416.5
98430.3
98443.8
98456.9
98469.5
98481.6
98493.2
98504.3
98514.8
98524.7
98534
98542.6
98550.7
98558
98564.8
98570.9
98576.5
98581.5
98586
98590
98593.5
98596.6
98599.4
98601.8
98604
98605.8
98607.4
98608.7
98609.9
98611
98611.9
98612.9
98613.9
98615.1
98616.6
98618.4
98620.8
98623.9
98628
98633.3
98640
98648.3
98658.5
98670.8
98685.5
98702.9
98723
98746
98771.9
98800.9
98832.9
98867.8
98905.6
98946
98989.2
99034.6
99082.4
99131.9
99183.3
99236.3
99290.6
99345.9
99401.7
99458
99514.2
99569.8
99624.2
99677.1
99727.4
99774.6
99817.6
99855.7
99887.6
99912.7
99929.8
99937.8
99936
99924
99901.3
99868.1
99824.3
99771.2
99709.1
99640.2
99565
99486.2
99403.3
99320.2
99234.4
99149.5
98292.6
98292.3
98291.5
98290.3
98288.7
98286.8
98284.4
98281.8
98278.8
98275.4
98271.7
98267.6
98263.3
98258.7
98253.9
98248.8
98243.6
98238.2
98232.6
98226.9
98221
98215
98208.9
98202.6
98196.3
98189.8
98183.3
98176.7
98170
98163.4
98156.7
98150.1
98143.5
98136.9
98130.4
98124.1
98117.8
98111.7
98105.7
98099.9
98094.3
98088.9
98083.8
98078.9
98074.3
98070
98066.1
98062.5
98059.3
98056.5
98054.1
98052.2
98050.7
98049.8
98049.4
98049.6
98050.4
98051.9
98053.9
98056.7
98060.1
98064.1
98068.9
98074.3
98080.5
98087.3
98094.8
98103
98111.8
98121.3
98131.4
98142
98153.2
98164.9
98177
98189.6
98202.6
98215.9
98229.5
98243.4
98257.6
98271.9
98286.3
98300.7
98315.2
98329.7
98344.1
98358.3
98372.4
98386.3
98399.9
98413.2
98426.1
98438.6
98450.7
98462.2
98473.3
98483.9
98493.9
98503.3
98512.1
98520.3
98527.9
98534.9
98541.3
98547.2
98552.5
98557.2
98561.5
98565.2
98568.6
98571.5
98574.2
98576.4
98578.4
98580.1
98581.6
98582.8
98583.9
98584.7
98585.6
98586.3
98587.1
98587.9
98589
98590.5
98592.4
98595
98598.4
98603
98608.8
98616.2
98625.4
98636.6
98650.1
98666.1
98684.7
98706.1
98730.4
98757.5
98787.6
98820.5
98856.2
98894.4
98935.4
98978.5
99023.9
99071.2
99120.2
99170.8
99222.8
99275.7
99329.4
99383.5
99437.5
99491
99543.6
99594.8
99643.5
99689.3
99731.2
99768.5
99799.8
99824.9
99842.3
99851.2
99850.6
99840.5
99820
99789.5
99748.8
99699.1
99640.5
99575.4
99503.8
99428.5
99349
99269.1
99186.2
99102.3
98275.2
98274.9
98274.1
98272.9
98271.3
98269.3
98267
98264.3
98261.3
98258
98254.4
98250.5
98246.3
98242
98237.4
98232.7
98227.8
98222.8
98217.6
98212.3
98206.9
98201.4
98195.7
98189.9
98184
98178.1
98172
98165.9
98159.7
98153.5
98147.3
98141.1
98134.9
98128.8
98122.7
98116.7
98110.8
98105
98099.3
98093.8
98088.5
98083.3
98078.3
98073.6
98069.2
98065.1
98061.3
98057.8
98054.7
98051.9
98049.6
98047.6
98046.2
98045.2
98044.7
98044.8
98045.5
98046.7
98048.6
98051.1
98054.2
98058
98062.4
98067.5
98073.2
98079.7
98086.8
98094.5
98102.9
98111.9
98121.5
98131.6
98142.3
98153.4
98165
98177
98189.4
98202.1
98215.1
98228.4
98241.8
98255.4
98269.1
98282.9
98296.7
98310.4
98324.1
98337.6
98350.9
98364
98376.9
98389.4
98401.6
98413.3
98424.6
98435.5
98445.8
98455.6
98464.9
98473.6
98481.8
98489.4
98496.5
98502.9
98508.9
98514.2
98519.1
98523.5
98527.4
98530.9
98534
98536.7
98539.1
98541.2
98543
98544.5
98545.7
98546.8
98547.6
98548.3
98548.8
98549.2
98549.6
98550
98550.6
98551.4
98552.7
98554.5
98557
98560.5
98565.2
98571.3
98579.1
98588.7
98600.5
98614.5
98631.1
98650.3
98672.3
98696.9
98724.3
98754.4
98787.2
98822.5
98860.4
98900.5
98942.6
98986.7
99032.5
99080
99128.8
99178.6
99229.2
99280.4
99331.5
99382.3
99432.2
99481
99527.6
99571.5
99611.8
99647.8
99678.3
99703
99720.7
99730.3
99731.2
99723
99705.3
99678.1
99641.3
99595.9
99541.9
99481.6
99414.8
99344.4
99269.6
99194.1
99115.5
99035.4
98254
98253.7
98253
98251.9
98250.3
98248.4
98246.1
98243.5
98240.6
98237.4
98233.9
98230.2
98226.2
98222.1
98217.9
98213.5
98208.9
98204.3
98199.6
98194.7
98189.8
98184.7
98179.6
98174.3
98169
98163.5
98158
98152.5
98146.9
98141.3
98135.7
98130
98124.4
98118.7
98113.2
98107.7
98102.2
98096.9
98091.6
98086.5
98081.5
98076.7
98072
98067.6
98063.3
98059.4
98055.7
98052.4
98049.4
98046.7
98044.4
98042.4
98040.9
98039.9
98039.3
98039.2
98039.7
98040.7
98042.4
98044.5
98047.3
98050.7
98054.7
98059.4
98064.7
98070.6
98077.2
98084.4
98092.2
98100.6
98109.6
98119
98129
98139.5
98150.4
98161.6
98173.3
98185.2
98197.4
98209.8
98222.4
98235.1
98247.9
98260.8
98273.7
98286.5
98299.2
98311.8
98324.3
98336.4
98348.3
98359.9
98371.2
98382
98392.4
98402.3
98411.7
98420.6
98429.1
98437
98444.4
98451.2
98457.5
98463.4
98468.7
98473.5
98477.8
98481.7
98485.2
98488.3
98491.1
98493.5
98495.6
98497.4
98498.9
98500.2
98501.2
98502
98502.5
98502.8
98503
98503
98502.9
98502.8
98502.7
98502.8
98503.2
98504
98505.4
98507.7
98511
98515.5
98521.5
98529.2
98538.9
98550.6
98564.7
98581.3
98600.4
98622
98646.2
98673
98702.3
98734
98768.2
98804.5
98842.9
98883.1
98925.2
98968.8
99013.8
99059.9
99106.8
99154.4
99202.1
99249.5
99296.3
99342.1
99386
99427.6
99465.8
99500.2
99529.6
99553.7
99571.3
99581.5
99583.8
99577.9
99563.1
99539.7
99507.2
99466.8
99418.3
99363.7
99302.6
99238.2
99169.2
99099.3
99026.1
98951.5
98230.6
98230.4
98229.7
98228.7
98227.2
98225.4
98223.3
98220.9
98218.1
98215.1
98211.8
98208.3
98204.6
98200.7
98196.7
98192.7
98188.5
98184.2
98179.9
98175.4
98170.9
98166.4
98161.7
98157
98152.2
98147.3
98142.4
98137.4
98132.4
98127.4
98122.4
98117.4
98112.3
98107.3
98102.3
98097.3
98092.4
98087.6
98082.9
98078.2
98073.6
98069.2
98064.9
98060.8
98056.8
98053.1
98049.7
98046.5
98043.6
98041
98038.7
98036.8
98035.3
98034.2
98033.5
98033.2
98033.5
98034.3
98035.6
98037.4
98039.8
98042.8
98046.4
98050.5
98055.3
98060.6
98066.6
98073.1
98080.3
98088
98096.2
98104.9
98114.1
98123.7
98133.8
98144.2
98154.9
98165.9
98177.2
98188.6
98200.2
98212
98223.8
98235.6
98247.4
98259.2
98270.9
98282.4
98293.7
98304.8
98315.6
98326.1
98336.3
98346
98355.4
98364.3
98372.7
98380.6
98388.1
98395.1
98401.6
98407.6
98413.1
98418.2
98422.8
98427
98430.7
98434
98437
98439.7
98442
98444
98445.8
98447.3
98448.4
98449.4
98450
98450.5
98450.6
98450.6
98450.3
98449.8
98449.1
98448.3
98447.5
98446.8
98446.2
98445.8
98446
98446.8
98448.5
98451.3
98455.3
98460.8
98468.1
98477.3
98488.6
98502.2
98518
98536.3
98557
98580
98605.5
98633.2
98663.3
98695.5
98729.7
98765.8
98803.6
98843
98883.9
98925.8
98968.7
99012.3
99056
99099.8
99143.1
99185.5
99226.3
99265.2
99301.1
99333.5
99361.4
99384.5
99401.9
99412.5
99416.1
99412.3
99400.5
99381
99353.1
99318
99275.1
99226.7
99172
99114.2
99051.7
98988.4
98921.6
98853.6
98206.1
98206
98205.4
98204.5
98203.2
98201.6
98199.7
98197.4
98194.9
98192.1
98189.1
98185.8
98182.4
98178.9
98175.2
98171.5
98167.6
98163.7
98159.7
98155.7
98151.6
98147.4
98143.2
98139
98134.7
98130.4
98126
98121.7
98117.3
98112.8
98108.4
98103.9
98099.5
98095.1
98090.7
98086.3
98081.9
98077.6
98073.4
98069.2
98065.1
98061.1
98057.1
98053.4
98049.8
98046.3
98043.1
98040.1
98037.4
98034.9
98032.7
98030.8
98029.2
98028
98027.2
98026.8
98026.9
98027.4
98028.4
98029.9
98031.9
98034.4
98037.4
98041
98045.2
98049.9
98055.2
98061.1
98067.4
98074.4
98081.8
98089.6
98098
98106.7
98115.8
98125.3
98135
98145
98155.2
98165.6
98176.2
98186.8
98197.5
98208.2
98218.8
98229.4
98239.9
98250.2
98260.4
98270.3
98279.9
98289.2
98298.2
98306.8
98315
98322.8
98330.1
98337
98343.5
98349.5
98355.1
98360.2
98364.9
98369.1
98373
98376.4
98379.5
98382.2
98384.6
98386.8
98388.6
98390.2
98391.5
98392.6
98393.3
98393.9
98394.1
98394.1
98393.9
98393.4
98392.5
98391.5
98390.2
98388.7
98387
98385.3
98383.7
98382.1
98380.8
98380.1
98380
98380.9
98382.8
98386
98390.7
98397.2
98405.6
98416
98428.5
98443.2
98460.1
98479.3
98500.7
98524.3
98550.1
98578
98607.8
98639.5
98672.9
98707.9
98744.4
98782.1
98820.6
98860
98899.7
98939.6
98979.1
99017.8
99055.2
99091
99124.2
99154.3
99180.3
99202.2
99218.9
99229.8
99234.4
99232.7
99223.7
99208
99184.5
99154.6
99117.5
99075.4
99027.4
98976.6
98921.1
98864.9
98805
98744.2
98181.9
98181.8
98181.4
98180.6
98179.6
98178.2
98176.5
98174.5
98172.2
98169.7
98167
98164.1
98161
98157.8
98154.4
98151
98147.5
98143.9
98140.3
98136.6
98132.9
98129.2
98125.4
98121.6
98117.8
98114
98110.2
98106.3
98102.4
98098.5
98094.6
98090.7
98086.8
98083
98079.1
98075.3
98071.4
98067.6
98063.8
98060.1
98056.4
98052.8
98049.2
98045.8
98042.5
98039.3
98036.3
98033.5
98030.9
98028.5
98026.4
98024.5
98022.9
98021.6
98020.7
98020.1
98020
98020.2
98020.9
98022
98023.6
98025.7
98028.2
98031.3
98034.8
98038.9
98043.5
98048.6
98054.2
98060.3
98066.9
98073.9
98081.3
98089.1
98097.3
98105.7
98114.4
98123.4
98132.5
98141.8
98151.2
98160.7
98170.2
98179.7
98189.1
98198.5
98207.7
98216.8
98225.7
98234.4
98242.7
98250.8
98258.6
98266
98273
98279.6
98285.9
98291.7
98297.1
98302.1
98306.7
98310.9
98314.7
98318.1
98321.1
98323.8
98326.2
98328.3
98330.1
98331.7
98333
98334.1
98334.8
98335.4
98335.7
98335.8
98335.6
98335.1
98334.3
98333.3
98331.9
98330.2
98328.2
98325.9
98323.3
98320.5
98317.8
98314.9
98312.2
98309.9
98308.1
98307
98306.7
98307.5
98309.7
98313.4
98318.7
98325.9
98335
98346.1
98359.2
98374.5
98392
98411.5
98432.9
98456.4
98481.7
98509.2
98538.2
98568.8
98600.8
98634.2
98668.3
98703.4
98738.9
98774.9
98810.5
98845.5
98879.3
98911.6
98941.8
98969.4
98993.2
99013.4
99029.1
99039.9
99045.3
99045.2
99038.7
99026.2
99006.8
98981.9
98950.4
98914.5
98873.2
98829.5
98781
98732.2
98679.5
98626.4
98159.1
98159.1
98158.8
98158.1
98157.2
98156
98154.6
98152.8
98150.9
98148.7
98146.3
98143.7
98141
98138.1
98135.1
98132
98128.9
98125.7
98122.4
98119.1
98115.8
98112.5
98109.1
98105.8
98102.4
98099
98095.7
98092.3
98088.8
98085.4
98082
98078.6
98075.1
98071.7
98068.3
98064.9
98061.6
98058.2
98054.8
98051.4
98048.1
98044.8
98041.6
98038.5
98035.4
98032.5
98029.7
98027
98024.6
98022.2
98020.1
98018.3
98016.6
98015.3
98014.2
98013.5
98013.1
98013.1
98013.4
98014.2
98015.4
98017
98019
98021.5
98024.5
98027.9
98031.9
98036.3
98041.1
98046.4
98052.1
98058.3
98064.8
98071.6
98078.8
98086.2
98093.9
98101.8
98109.9
98118
98126.3
98134.6
98142.9
98151.2
98159.4
98167.5
98175.5
98183.4
98191
98198.3
98205.5
98212.3
98218.8
98225
98230.8
98236.3
98241.4
98246.1
98250.4
98254.3
98257.9
98261.2
98264.1
98266.7
98268.9
98270.9
98272.5
98273.9
98275.1
98276
98276.8
98277.3
98277.5
98277.6
98277.3
98276.8
98276.1
98275.1
98273.7
98272.1
98270
98267.6
98264.8
98261.7
98258.1
98254.3
98250.3
98246.2
98242.2
98238.3
98234.7
98231.6
98229.2
98227.7
98227.3
98228.2
98230.7
98234.7
98240.4
98248
98257.5
98269
98282.5
98298
98315.3
98334.6
98355.7
98378.9
98403.6
98429.9
98457.6
98486.6
98516.5
98547.4
98578.8
98610.8
98642.4
98673.4
98703.6
98732.4
98759.4
98784.1
98805.5
98823.7
98838
98848.2
98853.8
98854.8
98850.2
98840.5
98824.8
98804.4
98778
98748.1
98713.3
98676.4
98635
98593.5
98548.1
98502.9
98138.4
98138.5
98138.3
98137.8
98137
98136.1
98134.9
98133.4
98131.8
98129.9
98127.8
98125.6
98123.2
98120.7
98118.1
98115.4
98112.6
98109.7
98106.9
98104
98101
98098.1
98095.1
98092.2
98089.2
98086.2
98083.2
98080.2
98077.2
98074.2
98071.2
98068.1
98065.1
98062.1
98059
98056
98053
98049.9
98046.9
98043.8
98040.8
98037.8
98034.8
98031.9
98029.1
98026.3
98023.6
98021.1
98018.7
98016.4
98014.3
98012.4
98010.7
98009.2
98008.1
98007.1
98006.5
98006.2
98006.3
98006.7
98007.5
98008.7
98010.3
98012.3
98014.7
98017.6
98020.9
98024.6
98028.7
98033.2
98038.1
98043.4
98049
98055
98061.2
98067.7
98074.4
98081.3
98088.2
98095.3
98102.5
98109.6
98116.8
98123.9
98130.9
98137.8
98144.5
98151.1
98157.5
98163.6
98169.5
98175.1
98180.4
98185.3
98190
98194.2
98198.2
98201.7
98205
98207.9
98210.5
98212.8
98214.8
98216.5
98217.9
98219.1
98220
98220.7
98221.2
98221.5
98221.6
98221.4
98221.1
98220.6
98219.8
98218.7
98217.3
98215.7
98213.7
98211.3
98208.5
98205.4
98201.8
98197.7
98193.2
98188.3
98183.2
98177.9
98172.5
98167.1
98161.8
98156.9
98152.4
98148.7
98145.9
98144.2
98143.8
98144.8
98147.4
98151.7
98157.7
98165.6
98175.4
98187.1
98200.6
98215.9
98233
98252.2
98272.9
98295.1
98318.6
98343.5
98369.3
98396.1
98423.6
98451.5
98479.1
98506.4
98532.7
98557.9
98581.5
98603.2
98622
98637.8
98650.2
98659.4
98664.5
98666
98662.7
98655.2
98642.6
98626.1
98604.4
98580
98551.3
98520.8
98486.1
98451.8
98413.5
98376.1
98120.6
98120.7
98120.6
98120.2
98119.6
98118.9
98117.9
98116.7
98115.4
98113.8
98112.1
98110.2
98108.2
98106
98103.8
98101.4
98099
98096.6
98094.1
98091.6
98089
98086.5
98083.9
98081.3
98078.7
98076.1
98073.4
98070.7
98068.1
98065.4
98062.7
98059.9
98057.2
98054.5
98051.8
98049
98046.2
98043.4
98040.6
98037.8
98034.9
98032.1
98029.3
98026.5
98023.8
98021.1
98018.6
98016.1
98013.7
98011.4
98009.3
98007.3
98005.5
98004
98002.6
98001.5
98000.7
98000.2
98000
98000.1
98000.5
98001.3
98002.5
98004
98005.9
98008.3
98010.9
98014
98017.5
98021.3
98025.4
98029.9
98034.8
98039.9
98045.2
98050.8
98056.5
98062.4
98068.4
98074.4
98080.5
98086.6
98092.6
98098.6
98104.4
98110.2
98115.7
98121.1
98126.3
98131.2
98135.9
98140.2
98144.3
98148.1
98151.6
98154.7
98157.5
98160
98162.2
98164
98165.6
98167
98168
98168.9
98169.4
98169.8
98169.9
98169.8
98169.6
98169.2
98168.6
98167.8
98166.8
98165.6
98164.2
98162.5
98160.4
98158.1
98155.3
98152.2
98148.7
98144.7
98140.2
98135.3
98129.9
98124
98117.8
98111.3
98104.6
98097.8
98090.9
98084.3
98078
98072.2
98067.2
98063.1
98060.1
98058.4
98058
98059.2
98062
98066.7
98073
98081.3
98091.2
98103
98116.5
98132
98149
98167.5
98187.1
98208.1
98230.1
98253
98276.6
98300.6
98324.2
98347.8
98370.4
98391.8
98412
98430.4
98446.3
98459.4
98469.6
98477
98481.1
98482.3
98479.7
98473.8
98463.7
98450.5
98432.8
98413.3
98390
98365.5
98337
98309.6
98278.2
98248.2
98105.9
98106.1
98106
98105.8
98105.4
98104.8
98104.1
98103.1
98102.1
98100.8
98099.4
98097.9
98096.2
98094.4
98092.6
98090.6
98088.6
98086.6
98084.5
98082.3
98080.2
98078
98075.7
98073.5
98071.2
98068.9
98066.5
98064.1
98061.7
98059.3
98056.9
98054.4
98051.9
98049.4
98046.8
98044.2
98041.6
98039
98036.3
98033.6
98030.8
98028.1
98025.4
98022.7
98020
98017.3
98014.8
98012.3
98009.8
98007.5
98005.3
98003.3
98001.4
97999.7
97998.2
97996.9
97995.9
97995.1
97994.7
97994.5
97994.6
97995.1
97995.9
97997
97998.5
98000.3
98002.5
98005
98007.8
98011
98014.5
98018.3
98022.4
98026.7
98031.2
98036
98040.8
98045.8
98050.9
98055.9
98061
98066.1
98071.1
98076
98080.8
98085.5
98089.9
98094.2
98098.2
98102
98105.5
98108.7
98111.7
98114.3
98116.6
98118.7
98120.4
98121.8
98122.9
98123.8
98124.4
98124.7
98124.9
98124.8
98124.5
98124
98123.3
98122.4
98121.4
98120.3
98118.9
98117.4
98115.6
98113.7
98111.6
98109.1
98106.4
98103.3
98099.8
98095.9
98091.6
98086.8
98081.5
98075.6
98069.3
98062.4
98055.2
98047.6
98039.7
98031.6
98023.4
98015.2
98007.2
97999.7
97992.7
97986.4
97981
97976.8
97973.9
97972.4
97972.4
97974.1
97977.4
97982.6
97989.5
97998.1
98008.4
98020.6
98034.2
98049.4
98065.5
98083
98101.4
98120.6
98140.6
98160.8
98180.7
98200.6
98219.3
98236.9
98253.4
98268.3
98281.2
98291.5
98299
98304.3
98306.6
98306.9
98304.3
98299.4
98291
98280.5
98266.3
98250.9
98232.3
98213.1
98190.4
98169.2
98144.2
98121.4
98094.5
98094.7
98094.7
98094.6
98094.3
98093.9
98093.4
98092.7
98091.9
98090.9
98089.8
98088.7
98087.4
98086
98084.5
98083
98081.4
98079.7
98078
98076.3
98074.5
98072.7
98070.8
98068.9
98066.9
98064.8
98062.7
98060.6
98058.4
98056.2
98053.9
98051.6
98049.2
98046.8
98044.4
98041.9
98039.3
98036.7
98034.1
98031.4
98028.7
98026
98023.2
98020.5
98017.8
98015.1
98012.5
98009.9
98007.4
98005
98002.7
98000.5
97998.5
97996.6
97995
97993.5
97992.3
97991.3
97990.6
97990.2
97990.1
97990.3
97990.7
97991.5
97992.6
97994
97995.7
97997.8
98000.1
98002.7
98005.7
98008.8
98012.3
98015.9
98019.7
98023.7
98027.8
98032
98036.2
98040.4
98044.6
98048.8
98052.9
98056.8
98060.6
98064.2
98067.7
98070.9
98073.8
98076.5
98078.9
98081.1
98083
98084.5
98085.8
98086.8
98087.4
98087.8
98087.9
98087.7
98087.3
98086.8
98086
98085
98083.8
98082.4
98080.9
98079.2
98077.4
98075.4
98073.2
98070.9
98068.4
98065.7
98062.8
98059.5
98055.9
98052.1
98047.8
98043.1
98038
98032.4
98026.2
98019.5
98012.3
98004.6
97996.4
97987.8
97978.9
97969.6
97960.2
97950.7
97941.3
97932.1
97923.4
97915.2
97907.8
97901.5
97896.3
97892.5
97890.1
97889.2
97890
97892.6
97896.7
97902.6
97910.1
97919.3
97929.9
97942
97955.1
97969.4
97984.4
98000.4
98016.9
98033.5
98049.9
98066.1
98081
98094.8
98107.6
98118.8
98128.4
98135.5
98140.2
98143.1
98143.4
98142
98138.7
98134
98126.8
98118.2
98106.9
98094.8
98080.1
98065.7
98048.1
98032.7
98013.5
97997.5
98086
98086.3
98086.4
98086.3
98086.2
98086
98085.7
98085.3
98084.8
98084.1
98083.4
98082.6
98081.7
98080.7
98079.6
98078.5
98077.4
98076.1
98074.9
98073.5
98072.1
98070.6
98069.1
98067.4
98065.7
98063.9
98062.1
98060.1
98058.1
98056
98053.8
98051.6
98049.3
98046.9
98044.5
98042
98039.4
98036.8
98034.1
98031.3
98028.6
98025.8
98022.9
98020.1
98017.3
98014.5
98011.7
98009
98006.4
98003.9
98001.4
97999.1
97996.9
97994.9
97993.1
97991.5
97990.1
97989
97988.1
97987.4
97987.1
97987
97987.2
97987.7
97988.5
97989.5
97990.9
97992.5
97994.4
97996.6
97999.1
98001.7
98004.6
98007.7
98010.9
98014.2
98017.6
98021.1
98024.6
98028
98031.5
98034.8
98038
98041.1
98044
98046.7
98049.2
98051.5
98053.4
98055.1
98056.6
98057.7
98058.6
98059.1
98059.4
98059.3
98059
98058.4
98057.5
98056.4
98055
98053.5
98051.7
98049.8
98047.7
98045.5
98043.1
98040.6
98037.9
98035
98032
98028.9
98025.6
98022
98018.2
98014.1
98009.7
98005
97999.9
97994.4
97988.5
97982
97975.1
97967.6
97959.6
97951.1
97942.1
97932.6
97922.7
97912.6
97902.1
97891.5
97880.8
97870.3
97860.1
97850.3
97841.3
97833.2
97826.1
97820.3
97815.9
97812.9
97811.5
97811.8
97813.7
97817.1
97822.1
97828.7
97836.6
97845.9
97856.3
97867.8
97879.9
97892.7
97906
97919.2
97932.2
97944.8
97956
97966.2
97975.1
97982.7
97988.7
97992.6
97994.3
97994.7
97992.5
97989.2
97984.7
97979.5
97972.7
97965.5
97956.2
97946.9
97935.5
97925.2
97912
97901.7
97887.7
97877.9
98080.1
98080.3
98080.5
98080.6
98080.6
98080.6
98080.4
98080.3
98080.1
98079.8
98079.5
98079.1
98078.6
98078.1
98077.6
98076.9
98076.2
98075.5
98074.6
98073.6
98072.6
98071.5
98070.3
98068.9
98067.4
98065.8
98064.1
98062.3
98060.4
98058.4
98056.3
98054.1
98051.8
98049.4
98046.9
98044.3
98041.6
98038.9
98036.1
98033.3
98030.3
98027.4
98024.4
98021.5
98018.5
98015.5
98012.6
98009.7
98006.9
98004.2
98001.6
97999.1
97996.8
97994.7
97992.7
97990.9
97989.4
97988.1
97987
97986.2
97985.6
97985.3
97985.3
97985.6
97986.1
97986.9
97988
97989.3
97990.9
97992.7
97994.8
97997
97999.4
98002
98004.7
98007.5
98010.3
98013.2
98016.1
98018.9
98021.6
98024.2
98026.7
98029
98031.1
98033
98034.7
98036
98037.1
98037.9
98038.4
98038.6
98038.6
98038.2
98037.5
98036.5
98035.3
98033.7
98031.8
98029.8
98027.5
98025
98022.3
98019.5
98016.5
98013.4
98010.1
98006.7
98003.1
97999.4
97995.6
97991.5
97987.3
97982.9
97978.2
97973.3
97968
97962.5
97956.5
97950.2
97943.5
97936.2
97928.5
97920.3
97911.6
97902.4
97892.7
97882.5
97871.9
97860.9
97849.6
97838.1
97826.4
97814.8
97803.4
97792.3
97782
97772.5
97763.9
97756.4
97750.3
97745.6
97742.4
97740.8
97740.6
97742
97744.8
97749.1
97754.7
97761.5
97769.4
97778.4
97787.9
97797.8
97807.9
97818
97827.7
97836.7
97844.4
97851
97856.1
97860
97862.3
97862.8
97861.5
97859.2
97854.6
97849.1
97843
97836.8
97830
97823.4
97815.4
97808.2
97799.5
97792.6
97783.2
97777.5
97768.1
97763.8
98075.7
98076
98076.2
98076.4
98076.6
98076.7
98076.9
98077.1
98077.3
98077.5
98077.7
98077.9
98078
98078
98078
98077.9
98077.7
98077.3
98076.9
98076.3
98075.7
98074.8
98073.9
98072.8
98071.5
98070.1
98068.6
98066.8
98065
98063
98060.9
98058.6
98056.3
98053.8
98051.2
98048.5
98045.7
98042.8
98039.9
98036.9
98033.8
98030.6
98027.5
98024.3
98021.1
98018
98014.9
98011.8
98008.8
98005.9
98003.2
98000.6
97998.1
97995.8
97993.7
97991.8
97990.1
97988.6
97987.4
97986.5
97985.8
97985.3
97985.1
97985.2
97985.6
97986.2
97987
97988.1
97989.4
97991
97992.7
97994.6
97996.7
97998.9
98001.1
98003.5
98005.8
98008.2
98010.5
98012.8
98014.9
98016.9
98018.8
98020.4
98021.8
98022.9
98023.8
98024.4
98024.7
98024.7
98024.4
98023.7
98022.8
98021.6
98020
98018.1
98016
98013.5
98010.8
98007.8
98004.6
98001.2
97997.7
97994
97990.2
97986.1
97982
97977.7
97973.2
97968.6
97963.9
97958.9
97953.8
97948.5
97942.9
97937.1
97931
97924.6
97917.9
97910.8
97903.3
97895.3
97886.9
97878
97868.7
97858.9
97848.6
97837.8
97826.6
97815
97803
97790.7
97778.3
97765.9
97753.5
97741.6
97730.2
97719.6
97709.7
97701
97693.5
97687.4
97682.6
97679.3
97677.4
97677
97678
97680.4
97683.9
97688.6
97694.3
97701.1
97708.2
97715.3
97722.4
97729.3
97735.9
97741.6
97746
97749.1
97750.4
97750.6
97749.1
97746.2
97741.7
97736.5
97729.5
97721.9
97713.9
97706.5
97699.1
97692.7
97685.4
97679.8
97673.1
97668.9
97662.6
97660.9
97655.5
97656.2
98072
98072.1
98072.4
98072.5
98072.8
98073.3
98073.9
98074.7
98075.5
98076.4
98077.3
98078.2
98079
98079.7
98080.3
98080.7
98081
98081.1
98081.1
98080.9
98080.5
98080
98079.3
98078.4
98077.3
98076
98074.5
98072.9
98071
98069.1
98066.9
98064.6
98062.2
98059.6
98056.9
98054
98051.1
98048
98044.9
98041.7
98038.4
98035.1
98031.7
98028.4
98025
98021.6
98018.3
98015.1
98011.9
98008.9
98006
98003.2
98000.6
97998.2
97995.9
97993.9
97992.1
97990.6
97989.3
97988.2
97987.4
97986.8
97986.5
97986.5
97986.7
97987.1
97987.8
97988.8
97989.9
97991.2
97992.7
97994.4
97996.2
97998
98000
98001.9
98003.9
98005.8
98007.7
98009.4
98011.1
98012.5
98013.8
98014.8
98015.6
98016.1
98016.3
98016.2
98015.8
98015
98014
98012.6
98010.8
98008.8
98006.4
98003.7
98000.8
97997.5
97993.9
97990.1
97986.1
97981.9
97977.4
97972.9
97968.2
97963.3
97958.3
97953.2
97947.9
97942.4
97936.8
97931
97924.9
97918.7
97912.3
97905.6
97898.7
97891.6
97884.1
97876.2
97868
97859.3
97850.3
97840.9
97831
97820.6
97809.8
97798.6
97786.9
97774.9
97762.3
97749.5
97736.5
97723.5
97710.5
97697.9
97685.8
97674.3
97663.4
97653.7
97645
97637.7
97631.5
97626.8
97623.5
97621.6
97621.1
97621.9
97623.5
97626.3
97630
97634.6
97639.6
97644.2
97648.5
97652.4
97655.9
97658.5
97659.7
97659.4
97657.1
97653.5
97648.4
97642.1
97634.4
97626.2
97616.8
97607
97597.1
97588.4
97580.1
97573.4
97566.5
97562
97556.7
97554.7
97551
97552.7
97550.9
97555.8
98067.1
98067.1
98067.1
98067.5
98068.2
98069.5
98070.9
98072.7
98074.4
98076.3
98078
98079.7
98081.2
98082.6
98083.8
98084.8
98085.6
98086.1
98086.5
98086.6
98086.5
98086.2
98085.7
98085
98084
98082.8
98081.4
98079.8
98078
98075.9
98073.7
98071.4
98068.8
98066.1
98063.3
98060.3
98057.2
98054
98050.7
98047.3
98043.8
98040.3
98036.8
98033.2
98029.7
98026.2
98022.7
98019.3
98016
98012.8
98009.8
98006.9
98004.2
98001.6
97999.3
97997.2
97995.3
97993.7
97992.3
97991.2
97990.3
97989.6
97989.3
97989.1
97989.2
97989.6
97990.2
97991
97992
97993.2
97994.5
97996
97997.5
97999.1
98000.7
98002.4
98004
98005.5
98007
98008.3
98009.5
98010.4
98011.2
98011.6
98011.9
98011.8
98011.4
98010.7
98009.6
98008.2
98006.4
98004.3
98001.9
97999.1
97996
97992.6
97988.8
97984.8
97980.5
97975.9
97971.1
97966.1
97960.9
97955.5
97950
97944.3
97938.5
97932.5
97926.4
97920.1
97913.7
97907
97900.2
97893.1
97885.9
97878.5
97870.8
97862.9
97854.7
97846.2
97837.3
97828
97818.5
97808.6
97798.2
97787.5
97776.3
97764.7
97752.7
97740.3
97727.4
97714.2
97700.7
97687.3
97674
97661
97648.3
97636
97624.5
97613.8