/*--------------------------------*- C++ -*----------------------------------*\
| =========                 |                                                 |
| \\      /  F ield         | OpenFOAM: The Open Source CFD Toolbox           |
|  \\    /   O peration     | Version:  dev                                   |
|   \\  /    A nd           | Web:      http://www.openfoam.org               |
|    \\/     M anipulation  |                                                 |
\*---------------------------------------------------------------------------*/
FoamFile
{
    version     2.0;
    format      ascii;
    class       volScalarField;
    object      pPrime2Mean;
    location    "9.138";
}
// * * * * * * * * * * * * * * * * * * * * * * * * * * * * * * * * * * * * * //

dimensions      [2 -2 -4 0 0 0 0];

internalField   nonuniform List<scalar> 
12225
(
5.03809e+07
4.99157e+07
4.89546e+07
4.7603e+07
4.59487e+07
4.40811e+07
4.20596e+07
3.9956e+07
3.78112e+07
3.56734e+07
3.35802e+07
3.15347e+07
2.96107e+07
2.77391e+07
2.59911e+07
2.44302e+07
2.28681e+07
2.12885e+07
5.02731e+07
4.98078e+07
4.88476e+07
4.74976e+07
4.58448e+07
4.39796e+07
4.19608e+07
3.98599e+07
3.77191e+07
3.55839e+07
3.34954e+07
3.14535e+07
2.95341e+07
2.76694e+07
2.59389e+07
2.43781e+07
2.2869e+07
2.15348e+07
5.00229e+07
4.95583e+07
4.85985e+07
4.72516e+07
4.56032e+07
4.37428e+07
4.17308e+07
3.96361e+07
3.75034e+07
3.53764e+07
3.32963e+07
3.12662e+07
2.93528e+07
2.75053e+07
2.57947e+07
2.42387e+07
2.28034e+07
2.15902e+07
4.95872e+07
4.91255e+07
4.8168e+07
4.68263e+07
4.51859e+07
4.3334e+07
4.13337e+07
3.92494e+07
3.71316e+07
3.5018e+07
3.29538e+07
3.09414e+07
2.90453e+07
2.72171e+07
2.55361e+07
2.40048e+07
2.26181e+07
2.15171e+07
4.8922e+07
4.84605e+07
4.75078e+07
4.61755e+07
4.4547e+07
4.27096e+07
4.07251e+07
3.86602e+07
3.65613e+07
3.44719e+07
3.2428e+07
3.04464e+07
2.85728e+07
2.67808e+07
2.5152e+07
2.3643e+07
2.23615e+07
2.1297e+07
4.79727e+07
4.75086e+07
4.65654e+07
4.52466e+07
4.3636e+07
4.18184e+07
3.98585e+07
3.78192e+07
3.57505e+07
3.36908e+07
3.16811e+07
2.97337e+07
2.78984e+07
2.61529e+07
2.45736e+07
2.3134e+07
2.1907e+07
2.08504e+07
4.66775e+07
4.62122e+07
4.52845e+07
4.3982e+07
4.23975e+07
4.06055e+07
3.86813e+07
3.66754e+07
3.46496e+07
3.26288e+07
3.06675e+07
2.87657e+07
2.69818e+07
2.52941e+07
2.37719e+07
2.23924e+07
2.12237e+07
2.01957e+07
4.52353e+07
4.47715e+07
4.38602e+07
4.25755e+07
4.10197e+07
3.92574e+07
3.73717e+07
3.54048e+07
3.34243e+07
3.14497e+07
2.95383e+07
2.76902e+07
2.59578e+07
2.43332e+07
2.28595e+07
2.15433e+07
2.04072e+07
1.94472e+07
4.37203e+07
4.326e+07
4.23649e+07
4.11e+07
3.95737e+07
3.78439e+07
3.59976e+07
3.40731e+07
3.21388e+07
3.02138e+07
2.83533e+07
2.65608e+07
2.48823e+07
2.33184e+07
2.18968e+07
2.06367e+07
1.95425e+07
1.86438e+07
4.17798e+07
4.13263e+07
4.04506e+07
3.92133e+07
3.77235e+07
3.60377e+07
3.42402e+07
3.23719e+07
3.04948e+07
2.86347e+07
2.68371e+07
2.51162e+07
2.35037e+07
2.20146e+07
2.06592e+07
1.94668e+07
1.84295e+07
1.75766e+07
3.93309e+07
3.88873e+07
3.80352e+07
3.68346e+07
3.53907e+07
3.3762e+07
3.20266e+07
3.02293e+07
2.84254e+07
2.66456e+07
2.49283e+07
2.32934e+07
2.17647e+07
2.03617e+07
1.90894e+07
1.79737e+07
1.70034e+07
1.61967e+07
3.63071e+07
3.58784e+07
3.50544e+07
3.39029e+07
3.25162e+07
3.09608e+07
2.93027e+07
2.75945e+07
2.58812e+07
2.42002e+07
2.25811e+07
2.10493e+07
1.96215e+07
1.83178e+07
1.71421e+07
1.61108e+07
1.52161e+07
1.44626e+07
3.26936e+07
3.22836e+07
3.1496e+07
3.04056e+07
2.90912e+07
2.76247e+07
2.60625e+07
2.44609e+07
2.28577e+07
2.12933e+07
1.9791e+07
1.83782e+07
1.70668e+07
1.58754e+07
1.48063e+07
1.38686e+07
1.30572e+07
1.23688e+07
2.85815e+07
2.81943e+07
2.74535e+07
2.64354e+07
2.52093e+07
2.38464e+07
2.23981e+07
2.09186e+07
1.94436e+07
1.80101e+07
1.66407e+07
1.53586e+07
1.41758e+07
1.3105e+07
1.21495e+07
1.13121e+07
1.05894e+07
9.97522e+06
2.42564e+07
2.38957e+07
2.32109e+07
2.22736e+07
2.11477e+07
1.9899e+07
1.85764e+07
1.72292e+07
1.58919e+07
1.45972e+07
1.33667e+07
1.22198e+07
1.11674e+07
1.02183e+07
9.37522e+06
8.638e+06
8.00348e+06
7.46499e+06
2.0309e+07
1.99769e+07
1.93518e+07
1.84962e+07
1.74717e+07
1.63361e+07
1.51372e+07
1.39182e+07
1.27127e+07
1.15488e+07
1.04471e+07
9.42343e+06
8.48771e+06
7.64599e+06
6.90017e+06
6.24898e+06
5.68924e+06
5.21473e+06
1.77432e+07
1.74366e+07
1.68617e+07
1.6074e+07
1.51319e+07
1.40873e+07
1.29857e+07
1.18662e+07
1.07603e+07
9.6932e+06
8.68395e+06
7.74609e+06
6.88833e+06
6.11546e+06
5.42884e+06
4.82709e+06
4.30723e+06
3.8639e+06
1.78517e+07
1.7557e+07
1.70043e+07
1.62462e+07
1.53388e+07
1.43312e+07
1.32671e+07
1.21834e+07
1.11103e+07
1.00715e+07
9.08467e+06
8.16258e+06
7.31333e+06
6.54139e+06
5.8482e+06
5.23289e+06
4.69297e+06
4.22409e+06
2.07298e+07
2.04306e+07
1.98681e+07
1.90949e+07
1.8168e+07
1.71365e+07
1.60438e+07
1.49267e+07
1.3815e+07
1.27322e+07
1.16959e+07
1.07188e+07
9.80914e+06
8.97171e+06
8.20844e+06
7.51924e+06
6.90227e+06
6.35416e+06
2.52185e+07
2.49064e+07
2.43159e+07
2.35017e+07
2.25232e+07
2.14314e+07
2.02708e+07
1.90792e+07
1.7887e+07
1.67184e+07
1.55914e+07
1.45192e+07
1.35107e+07
1.25712e+07
1.17034e+07
1.0908e+07
1.01838e+07
9.52844e+06
3.02798e+07
2.99536e+07
2.93298e+07
2.84661e+07
2.74251e+07
2.62601e+07
2.50175e+07
2.37364e+07
2.24486e+07
2.11791e+07
1.99469e+07
1.87658e+07
1.76456e+07
1.65923e+07
1.56093e+07
1.4698e+07
1.3858e+07
1.30877e+07
3.51954e+07
3.48575e+07
3.42026e+07
3.32918e+07
3.21907e+07
3.09544e+07
2.96316e+07
2.82629e+07
2.68814e+07
2.55133e+07
2.41786e+07
2.2892e+07
2.16638e+07
2.05009e+07
1.94075e+07
1.83857e+07
1.74356e+07
1.65564e+07
3.95461e+07
3.91999e+07
3.85196e+07
3.75691e+07
3.64163e+07
3.51183e+07
3.37253e+07
3.22796e+07
3.08157e+07
2.93607e+07
2.79356e+07
2.65558e+07
2.52325e+07
2.39734e+07
2.27831e+07
2.16644e+07
2.0618e+07
1.96435e+07
4.3143e+07
4.27917e+07
4.20921e+07
4.11106e+07
3.99167e+07
3.85689e+07
3.71189e+07
3.56102e+07
3.40787e+07
3.25522e+07
3.10526e+07
2.95961e+07
2.81946e+07
2.68562e+07
2.55863e+07
2.43879e+07
2.32623e+07
2.22095e+07
4.59523e+07
4.55981e+07
4.48847e+07
4.38802e+07
4.26553e+07
4.12693e+07
3.97754e+07
3.82181e+07
3.66341e+07
3.50521e+07
3.34946e+07
3.19784e+07
3.0516e+07
2.9116e+07
2.77841e+07
2.65237e+07
2.53366e+07
2.42229e+07
4.80312e+07
4.76753e+07
4.69523e+07
4.59316e+07
4.46843e+07
4.32707e+07
4.17446e+07
4.01517e+07
3.8529e+07
3.69061e+07
3.5306e+07
3.37459e+07
3.22387e+07
3.07932e+07
2.94157e+07
2.81097e+07
2.68772e+07
2.57186e+07
4.94805e+07
4.91237e+07
4.83941e+07
4.73626e+07
4.61e+07
4.46674e+07
4.31194e+07
4.15019e+07
3.98525e+07
3.82014e+07
3.65717e+07
3.49812e+07
3.34429e+07
3.1966e+07
3.05568e+07
2.92192e+07
2.79553e+07
2.67656e+07
5.04158e+07
5.0058e+07
4.93241e+07
4.82859e+07
4.70136e+07
4.5569e+07
4.4007e+07
4.23739e+07
4.07076e+07
3.90384e+07
3.73898e+07
3.57798e+07
3.42215e+07
3.27244e+07
3.12948e+07
2.99369e+07
2.86528e+07
2.74431e+07
5.0945e+07
5.05869e+07
4.98515e+07
4.88102e+07
4.75324e+07
4.60813e+07
4.45114e+07
4.28693e+07
4.11932e+07
3.95136e+07
3.78541e+07
3.62329e+07
3.46631e+07
3.31543e+07
3.1713e+07
3.03434e+07
2.9048e+07
2.78273e+07
5.11672e+07
5.08106e+07
5.00733e+07
4.90302e+07
4.77499e+07
4.62959e+07
4.47227e+07
4.30767e+07
4.13964e+07
3.97123e+07
3.80481e+07
3.6422e+07
3.48473e+07
3.33336e+07
3.18873e+07
3.05128e+07
2.92126e+07
2.79875e+07
6.04902e+07
6.04311e+07
6.03004e+07
6.00946e+07
5.98118e+07
5.94512e+07
5.90131e+07
5.84981e+07
5.79074e+07
5.72424e+07
5.65049e+07
5.56971e+07
5.48214e+07
5.38801e+07
5.28762e+07
5.18126e+07
5.06926e+07
4.95195e+07
4.82972e+07
4.70294e+07
4.57202e+07
4.43736e+07
4.29938e+07
4.15853e+07
4.01525e+07
3.86999e+07
3.7232e+07
3.57534e+07
3.42683e+07
3.27816e+07
3.12976e+07
2.98211e+07
2.83565e+07
2.69086e+07
2.54819e+07
2.40809e+07
2.27103e+07
2.13748e+07
2.00791e+07
1.88281e+07
1.76265e+07
1.64793e+07
1.53914e+07
1.43679e+07
1.3414e+07
1.25349e+07
1.17359e+07
1.10223e+07
1.03997e+07
9.87352e+06
9.44911e+06
9.13196e+06
8.92748e+06
8.84094e+06
8.87743e+06
9.04177e+06
9.33852e+06
9.77194e+06
1.03459e+07
1.10636e+07
1.19278e+07
1.29407e+07
1.41037e+07
1.54176e+07
1.68822e+07
1.84969e+07
2.02598e+07
2.21686e+07
2.42201e+07
2.64106e+07
2.87353e+07
3.11891e+07
3.37659e+07
3.64594e+07
3.92627e+07
4.21686e+07
4.51696e+07
4.82578e+07
5.14255e+07
5.46646e+07
5.7967e+07
6.13247e+07
6.47291e+07
6.81717e+07
7.1644e+07
7.51369e+07
7.86414e+07
8.21479e+07
8.56464e+07
8.91266e+07
9.25773e+07
9.59873e+07
9.93443e+07
1.02636e+08
1.0585e+08
1.08973e+08
1.11993e+08
1.14897e+08
1.17675e+08
1.20315e+08
1.22809e+08
1.25147e+08
1.27324e+08
1.29333e+08
1.31171e+08
1.32835e+08
1.34326e+08
1.35647e+08
1.36802e+08
1.37799e+08
1.38649e+08
1.39362e+08
1.39953e+08
1.40435e+08
1.40825e+08
1.41141e+08
1.41403e+08
1.41631e+08
1.4185e+08
1.42086e+08
1.42369e+08
1.42732e+08
1.43211e+08
1.43847e+08
1.44683e+08
1.45767e+08
1.47151e+08
1.48892e+08
1.51051e+08
1.5369e+08
1.56874e+08
1.60662e+08
1.65118e+08
1.70298e+08
1.76256e+08
1.83036e+08
1.90675e+08
1.99199e+08
2.08623e+08
2.1895e+08
2.30174e+08
2.42272e+08
2.55217e+08
2.68966e+08
2.83477e+08
2.98686e+08
3.14546e+08
3.30984e+08
3.47938e+08
3.65332e+08
3.83093e+08
4.01136e+08
4.19372e+08
4.37706e+08
4.56018e+08
4.74168e+08
4.91993e+08
5.09322e+08
5.25924e+08
5.41563e+08
5.5594e+08
5.68758e+08
5.79674e+08
5.88367e+08
5.945e+08
5.97778e+08
5.97941e+08
5.94807e+08
5.88252e+08
5.78303e+08
5.6504e+08
5.4873e+08
5.29692e+08
5.08419e+08
4.85385e+08
4.61113e+08
4.35971e+08
4.10394e+08
3.84594e+08
3.58894e+08
5.9415e+07
5.93593e+07
5.92341e+07
5.90342e+07
5.87579e+07
5.8405e+07
5.79762e+07
5.74726e+07
5.68954e+07
5.6246e+07
5.55261e+07
5.47378e+07
5.38832e+07
5.29646e+07
5.19848e+07
5.09464e+07
4.98524e+07
4.87064e+07
4.75116e+07
4.6272e+07
4.49913e+07
4.36735e+07
4.23229e+07
4.09436e+07
3.954e+07
3.81165e+07
3.66776e+07
3.52274e+07
3.37703e+07
3.23109e+07
3.08535e+07
2.94028e+07
2.79632e+07
2.65394e+07
2.51357e+07
2.37567e+07
2.2407e+07
2.10912e+07
1.98139e+07
1.858e+07
1.73942e+07
1.62614e+07
1.51865e+07
1.41747e+07
1.3231e+07
1.23606e+07
1.15689e+07
1.08613e+07
1.02431e+07
9.71985e+06
9.29698e+06
8.97992e+06
8.77406e+06
8.68462e+06
8.71674e+06
8.87528e+06
9.16483e+06
9.5896e+06
1.01534e+07
1.08595e+07
1.17107e+07
1.2709e+07
1.38559e+07
1.51521e+07
1.65975e+07
1.81914e+07
1.9932e+07
2.1817e+07
2.38432e+07
2.60067e+07
2.83029e+07
3.07267e+07
3.3272e+07
3.59326e+07
3.87015e+07
4.15716e+07
4.45355e+07
4.75854e+07
5.07135e+07
5.39119e+07
5.71724e+07
6.04869e+07
6.38472e+07
6.72448e+07
7.0671e+07
7.41171e+07
7.7574e+07
8.10321e+07
8.44816e+07
8.79122e+07
9.13131e+07
9.46729e+07
9.79796e+07
1.01221e+08
1.04385e+08
1.07459e+08
1.1043e+08
1.13287e+08
1.16018e+08
1.18614e+08
1.21065e+08
1.23363e+08
1.25501e+08
1.27475e+08
1.2928e+08
1.30914e+08
1.32378e+08
1.33674e+08
1.34807e+08
1.35786e+08
1.3662e+08
1.3732e+08
1.37899e+08
1.38372e+08
1.38754e+08
1.39063e+08
1.39317e+08
1.39538e+08
1.39749e+08
1.39976e+08
1.40247e+08
1.40597e+08
1.41059e+08
1.41673e+08
1.42483e+08
1.43534e+08
1.44879e+08
1.46574e+08
1.48678e+08
1.51253e+08
1.54362e+08
1.58065e+08
1.62425e+08
1.67496e+08
1.73331e+08
1.79974e+08
1.87463e+08
1.95823e+08
2.0507e+08
2.15205e+08
2.26224e+08
2.38104e+08
2.50819e+08
2.64329e+08
2.7859e+08
2.93541e+08
3.09132e+08
3.253e+08
3.41978e+08
3.59092e+08
3.76571e+08
3.94334e+08
4.12293e+08
4.30356e+08
4.48402e+08
4.66296e+08
4.83877e+08
5.0098e+08
5.17378e+08
5.32835e+08
5.47069e+08
5.5978e+08
5.70634e+08
5.79311e+08
5.85484e+08
5.88865e+08
5.89195e+08
5.86299e+08
5.80045e+08
5.70446e+08
5.57578e+08
5.41694e+08
5.23104e+08
5.02286e+08
4.79701e+08
4.55859e+08
4.31127e+08
4.05931e+08
3.80483e+08
3.55021e+08
5.73492e+07
5.72961e+07
5.71765e+07
5.6985e+07
5.67203e+07
5.63828e+07
5.59736e+07
5.54938e+07
5.49443e+07
5.43264e+07
5.36414e+07
5.28912e+07
5.20775e+07
5.12025e+07
5.02685e+07
4.9278e+07
4.82337e+07
4.71389e+07
4.59968e+07
4.48107e+07
4.35845e+07
4.2322e+07
4.10272e+07
3.9704e+07
3.83566e+07
3.69888e+07
3.56048e+07
3.42088e+07
3.2805e+07
3.13977e+07
2.99914e+07
2.85904e+07
2.7199e+07
2.58216e+07
2.44625e+07
2.31261e+07
2.18168e+07
2.05391e+07
1.92975e+07
1.80968e+07
1.69417e+07
1.58369e+07
1.47875e+07
1.37982e+07
1.28744e+07
1.20211e+07
1.12438e+07
1.05478e+07
9.9383e+06
9.42093e+06
9.00108e+06
8.68419e+06
8.47565e+06
8.38072e+06
8.40447e+06
8.5518e+06
8.82726e+06
9.23509e+06
9.77908e+06
1.04625e+07
1.1288e+07
1.22578e+07
1.33731e+07
1.46348e+07
1.60426e+07
1.75957e+07
1.92925e+07
2.11305e+07
2.31067e+07
2.52173e+07
2.74575e+07
2.98223e+07
3.23058e+07
3.49017e+07
3.76032e+07
4.04033e+07
4.32946e+07
4.62696e+07
4.93206e+07
5.24396e+07
5.56186e+07
5.88496e+07
6.21243e+07
6.54345e+07
6.87716e+07
7.2127e+07
7.54916e+07
7.88562e+07
8.2211e+07
8.55458e+07
8.885e+07
9.21124e+07
9.53216e+07
9.84657e+07
1.01533e+08
1.0451e+08
1.07386e+08
1.1015e+08
1.12791e+08
1.15299e+08
1.17666e+08
1.19884e+08
1.21947e+08
1.2385e+08
1.2559e+08
1.27166e+08
1.28576e+08
1.29825e+08
1.30916e+08
1.31859e+08
1.32662e+08
1.33336e+08
1.33893e+08
1.34347e+08
1.34714e+08
1.35007e+08
1.35247e+08
1.35454e+08
1.35649e+08
1.35858e+08
1.36107e+08
1.36428e+08
1.36855e+08
1.37425e+08
1.3818e+08
1.39166e+08
1.40433e+08
1.42034e+08
1.44028e+08
1.46474e+08
1.49434e+08
1.52969e+08
1.57136e+08
1.6199e+08
1.67582e+08
1.73956e+08
1.81146e+08
1.89182e+08
1.98076e+08
2.07832e+08
2.18444e+08
2.29892e+08
2.42153e+08
2.55191e+08
2.68956e+08
2.83395e+08
2.98454e+08
3.14082e+08
3.30211e+08
3.46769e+08
3.63685e+08
3.80888e+08
3.98291e+08
4.15804e+08
4.3331e+08
4.50683e+08
4.67763e+08
4.84391e+08
5.00351e+08
5.15414e+08
5.29314e+08
5.4176e+08
5.52432e+08
5.61025e+08
5.67222e+08
5.70749e+08
5.71358e+08
5.68876e+08
5.63169e+08
5.54225e+08
5.42117e+08
5.27071e+08
5.09373e+08
4.89476e+08
4.67808e+08
4.44846e+08
4.20963e+08
3.96561e+08
3.71864e+08
3.47044e+08
5.44548e+07
5.44055e+07
5.42934e+07
5.41141e+07
5.38672e+07
5.35535e+07
5.31739e+07
5.27289e+07
5.22192e+07
5.16458e+07
5.10098e+07
5.03125e+07
4.95554e+07
4.87402e+07
4.78689e+07
4.69439e+07
4.59679e+07
4.49435e+07
4.38738e+07
4.2762e+07
4.16115e+07
4.04259e+07
3.92087e+07
3.79635e+07
3.66938e+07
3.54034e+07
3.40959e+07
3.27754e+07
3.1446e+07
3.01118e+07
2.87769e+07
2.74455e+07
2.61215e+07
2.48091e+07
2.35123e+07
2.22353e+07
2.09823e+07
1.97579e+07
1.85664e+07
1.74123e+07
1.63001e+07
1.52348e+07
1.42209e+07
1.32636e+07
1.23679e+07
1.15388e+07
1.07817e+07
1.01019e+07
9.5048e+06
8.99578e+06
8.58026e+06
8.26369e+06
8.05144e+06
7.94871e+06
7.96059e+06
8.09196e+06
8.34742e+06
8.73114e+06
9.24688e+06
9.89788e+06
1.06868e+07
1.16157e+07
1.2686e+07
1.38983e+07
1.52524e+07
1.67475e+07
1.83819e+07
2.01533e+07
2.20586e+07
2.4094e+07
2.62549e+07
2.85363e+07
3.09325e+07
3.34372e+07
3.60438e+07
3.87455e+07
4.15351e+07
4.44051e+07
4.7348e+07
5.0356e+07
5.34213e+07
5.65358e+07
5.96916e+07
6.28803e+07
6.60937e+07
6.9323e+07
7.25597e+07
7.57945e+07
7.90178e+07
8.22197e+07
8.53898e+07
8.85172e+07
9.15907e+07
9.45989e+07
9.75302e+07
1.00373e+08
1.03116e+08
1.0575e+08
1.08263e+08
1.10648e+08
1.12896e+08
1.15001e+08
1.16958e+08
1.18761e+08
1.20409e+08
1.21899e+08
1.23233e+08
1.24414e+08
1.25447e+08
1.26337e+08
1.27095e+08
1.27731e+08
1.28256e+08
1.28682e+08
1.29024e+08
1.29295e+08
1.29514e+08
1.29698e+08
1.29869e+08
1.30051e+08
1.30267e+08
1.30546e+08
1.30921e+08
1.31428e+08
1.32105e+08
1.32998e+08
1.34153e+08
1.35622e+08
1.3746e+08
1.39725e+08
1.42475e+08
1.4577e+08
1.49666e+08
1.54216e+08
1.59467e+08
1.65462e+08
1.72235e+08
1.79815e+08
1.88215e+08
1.97442e+08
2.07486e+08
2.18333e+08
2.29962e+08
2.4234e+08
2.55418e+08
2.69147e+08
2.83472e+08
2.98351e+08
3.1372e+08
3.29512e+08
3.45654e+08
3.62086e+08
3.78723e+08
3.95474e+08
4.12232e+08
4.28878e+08
4.4526e+08
4.61221e+08
4.76563e+08
4.91063e+08
5.04475e+08
5.1652e+08
5.26903e+08
5.35338e+08
5.41521e+08
5.45197e+08
5.46127e+08
5.44145e+08
5.39117e+08
5.31018e+08
5.19906e+08
5.05972e+08
4.89479e+08
4.7084e+08
4.50437e+08
4.28711e+08
4.06025e+08
3.82753e+08
3.59135e+08
3.3532e+08
5.09323e+07
5.08883e+07
5.07863e+07
5.06233e+07
5.03996e+07
5.01157e+07
4.97718e+07
4.93684e+07
4.89062e+07
4.83856e+07
4.78073e+07
4.71724e+07
4.64822e+07
4.5738e+07
4.49418e+07
4.40954e+07
4.32012e+07
4.22617e+07
4.12793e+07
4.02571e+07
3.91981e+07
3.81052e+07
3.69817e+07
3.58304e+07
3.46545e+07
3.34575e+07
3.22429e+07
3.10145e+07
2.97759e+07
2.8531e+07
2.72835e+07
2.6037e+07
2.47953e+07
2.35622e+07
2.23415e+07
2.11371e+07
1.99533e+07
1.87941e+07
1.76637e+07
1.65666e+07
1.55072e+07
1.449e+07
1.35199e+07
1.26018e+07
1.17404e+07
1.0941e+07
1.02087e+07
9.54889e+06
8.96683e+06
8.46797e+06
8.05769e+06
7.7414e+06
7.52445e+06
7.41204e+06
7.40924e+06
7.52086e+06
7.75146e+06
8.10517e+06
8.5857e+06
9.19631e+06
9.93962e+06
1.08177e+07
1.18318e+07
1.29826e+07
1.42699e+07
1.56927e+07
1.72496e+07
1.8938e+07
2.07552e+07
2.26973e+07
2.47598e+07
2.69378e+07
2.92258e+07
3.16176e+07
3.41068e+07
3.66867e+07
3.93504e+07
4.20906e+07
4.49001e+07
4.77711e+07
5.0696e+07
5.3667e+07
5.66763e+07
5.97157e+07
6.27771e+07
6.58518e+07
6.89316e+07
7.20074e+07
7.50697e+07
7.8109e+07
8.11152e+07
8.40778e+07
8.69861e+07
8.98289e+07
9.25952e+07
9.52745e+07
9.78562e+07
1.00331e+08
1.02689e+08
1.04923e+08
1.07026e+08
1.08992e+08
1.10818e+08
1.12498e+08
1.14031e+08
1.15416e+08
1.16656e+08
1.17752e+08
1.1871e+08
1.19535e+08
1.20236e+08
1.20822e+08
1.21305e+08
1.21695e+08
1.22004e+08
1.22245e+08
1.22436e+08
1.22591e+08
1.2273e+08
1.22874e+08
1.23047e+08
1.23275e+08
1.23586e+08
1.24014e+08
1.24598e+08
1.25376e+08
1.26394e+08
1.27702e+08
1.29351e+08
1.31395e+08
1.33889e+08
1.36893e+08
1.40458e+08
1.44636e+08
1.49473e+08
1.55008e+08
1.61276e+08
1.68306e+08
1.7611e+08
1.84696e+08
1.94057e+08
2.04181e+08
2.15047e+08
2.26629e+08
2.38882e+08
2.5176e+08
2.6521e+08
2.79194e+08
2.93655e+08
3.08533e+08
3.23755e+08
3.39264e+08
3.54983e+08
3.70825e+08
3.86684e+08
4.02452e+08
4.17987e+08
4.3314e+08
4.47727e+08
4.61539e+08
4.74338e+08
4.85874e+08
4.95879e+08
5.04081e+08
5.10201e+08
5.13998e+08
5.15247e+08
5.13794e+08
5.09514e+08
5.02363e+08
4.92385e+08
4.79733e+08
4.64648e+08
4.47491e+08
4.28597e+08
4.08371e+08
3.87143e+08
3.65264e+08
3.42981e+08
3.20455e+08
4.70045e+07
4.69674e+07
4.6878e+07
4.67342e+07
4.65365e+07
4.62853e+07
4.59806e+07
4.56227e+07
4.52119e+07
4.47485e+07
4.42328e+07
4.36658e+07
4.30486e+07
4.23822e+07
4.16681e+07
4.09081e+07
4.01039e+07
3.92577e+07
3.83717e+07
3.74484e+07
3.64903e+07
3.54998e+07
3.44796e+07
3.34321e+07
3.23604e+07
3.12673e+07
3.01562e+07
2.90305e+07
2.78933e+07
2.67479e+07
2.55978e+07
2.44462e+07
2.32965e+07
2.21521e+07
2.10167e+07
1.98939e+07
1.87876e+07
1.77018e+07
1.66403e+07
1.56074e+07
1.46074e+07
1.36447e+07
1.2724e+07
1.18499e+07
1.10273e+07
1.02612e+07
9.55683e+06
8.91939e+06
8.35422e+06
7.86667e+06
7.46213e+06
7.14596e+06
6.92351e+06
6.79993e+06
6.78024e+06
6.8692e+06
7.07133e+06
7.39071e+06
7.831e+06
8.39539e+06
9.08645e+06
9.9062e+06
1.08559e+07
1.19363e+07
1.3147e+07
1.44872e+07
1.59553e+07
1.75489e+07
1.92652e+07
2.11005e+07
2.30505e+07
2.51103e+07
2.72745e+07
2.95372e+07
3.18923e+07
3.43333e+07
3.68533e+07
3.94455e+07
4.21026e+07
4.48173e+07
4.75821e+07
5.03895e+07
5.32317e+07
5.61009e+07
5.89892e+07
6.18882e+07
6.47895e+07
6.76845e+07
7.05641e+07
7.34188e+07
7.62391e+07
7.90151e+07
8.17366e+07
8.43928e+07
8.69734e+07
8.94687e+07
9.18692e+07
9.41659e+07
9.63506e+07
9.84158e+07
1.00355e+08
1.02165e+08
1.03843e+08
1.05384e+08
1.06788e+08
1.08055e+08
1.09186e+08
1.10186e+08
1.11057e+08
1.11806e+08
1.1244e+08
1.12968e+08
1.13399e+08
1.13744e+08
1.14012e+08
1.14216e+08
1.14371e+08
1.1449e+08
1.14589e+08
1.14689e+08
1.14811e+08
1.14977e+08
1.15216e+08
1.15557e+08
1.16034e+08
1.16684e+08
1.17549e+08
1.18676e+08
1.20112e+08
1.2191e+08
1.24119e+08
1.26796e+08
1.29992e+08
1.33755e+08
1.38129e+08
1.43152e+08
1.48859e+08
1.55276e+08
1.62419e+08
1.70295e+08
1.78901e+08
1.88226e+08
1.98251e+08
2.08954e+08
2.20298e+08
2.32241e+08
2.44732e+08
2.57736e+08
2.71203e+08
2.85078e+08
2.99293e+08
3.13791e+08
3.28502e+08
3.4334e+08
3.58209e+08
3.73005e+08
3.87603e+08
4.01853e+08
4.1559e+08
4.28623e+08
4.40723e+08
4.51664e+08
4.61209e+08
4.69106e+08
4.75103e+08
4.78967e+08
4.80499e+08
4.79563e+08
4.76031e+08
4.69852e+08
4.61049e+08
4.49752e+08
4.3617e+08
4.20612e+08
4.03367e+08
3.84803e+08
3.65205e+08
3.44898e+08
3.24133e+08
3.03098e+08
4.28964e+07
4.28668e+07
4.27909e+07
4.26675e+07
4.24969e+07
4.22794e+07
4.2015e+07
4.17037e+07
4.13454e+07
4.09402e+07
4.04887e+07
3.99915e+07
3.94493e+07
3.88629e+07
3.82335e+07
3.75625e+07
3.68514e+07
3.61018e+07
3.53156e+07
3.44947e+07
3.3641e+07
3.27565e+07
3.18433e+07
3.09037e+07
2.99402e+07
2.89555e+07
2.79525e+07
2.69339e+07
2.59025e+07
2.48613e+07
2.3813e+07
2.27608e+07
2.17076e+07
2.06564e+07
1.96108e+07
1.85739e+07
1.75495e+07
1.6541e+07
1.55523e+07
1.45873e+07
1.365e+07
1.27449e+07
1.18762e+07
1.10487e+07
1.0267e+07
9.53614e+06
8.86121e+06
8.2474e+06
7.69996e+06
7.22425e+06
6.82559e+06
6.50931e+06
6.2807e+06
6.14489e+06
6.10685e+06
6.17131e+06
6.34271e+06
6.62508e+06
7.02202e+06
7.53664e+06
8.17148e+06
8.92846e+06
9.80884e+06
1.08132e+07
1.19414e+07
1.31926e+07
1.4565e+07
1.60564e+07
1.76639e+07
1.9384e+07
2.12125e+07
2.31447e+07
2.51753e+07
2.72987e+07
2.95089e+07
3.17997e+07
3.41645e+07
3.65966e+07
3.90891e+07
4.16348e+07
4.42266e+07
4.68571e+07
4.95188e+07
5.22041e+07
5.49054e+07
5.76144e+07
6.03232e+07
6.30232e+07
6.57056e+07
6.83615e+07
7.09818e+07
7.35569e+07
7.60774e+07
7.85334e+07
8.09152e+07
8.3214e+07
8.5421e+07
8.75284e+07
8.95285e+07
9.14151e+07
9.31828e+07
9.48279e+07
9.63477e+07
9.7741e+07
9.90074e+07
1.00148e+08
1.01163e+08
1.02058e+08
1.02835e+08
1.035e+08
1.0406e+08
1.04522e+08
1.04895e+08
1.05186e+08
1.05407e+08
1.05567e+08
1.05679e+08
1.05756e+08
1.05811e+08
1.05861e+08
1.05925e+08
1.06025e+08
1.06185e+08
1.06432e+08
1.06797e+08
1.07313e+08
1.08017e+08
1.08952e+08
1.10163e+08
1.117e+08
1.1361e+08
1.15945e+08
1.18752e+08
1.22078e+08
1.25966e+08
1.30452e+08
1.3557e+08
1.41348e+08
1.478e+08
1.54934e+08
1.62752e+08
1.71245e+08
1.80397e+08
1.9019e+08
2.00591e+08
2.11566e+08
2.23067e+08
2.35062e+08
2.47503e+08
2.60342e+08
2.73515e+08
2.8697e+08
3.00636e+08
3.14431e+08
3.28269e+08
3.42053e+08
3.55665e+08
3.68962e+08
3.81791e+08
3.93981e+08
4.05321e+08
4.15603e+08
4.24614e+08
4.32136e+08
4.37937e+08
4.41801e+08
4.43554e+08
4.43075e+08
4.40238e+08
4.34986e+08
4.27325e+08
4.17373e+08
4.05299e+08
3.91367e+08
3.75819e+08
3.58983e+08
3.41097e+08
3.22462e+08
3.03319e+08
2.83892e+08
3.88211e+07
3.8799e+07
3.87364e+07
3.86331e+07
3.84893e+07
3.8305e+07
3.80798e+07
3.78137e+07
3.75065e+07
3.71586e+07
3.677e+07
3.6341e+07
3.58723e+07
3.53644e+07
3.48181e+07
3.42344e+07
3.36146e+07
3.29598e+07
3.22714e+07
3.15508e+07
3.07995e+07
3.0019e+07
2.92113e+07
2.83781e+07
2.75216e+07
2.66442e+07
2.5748e+07
2.48355e+07
2.3909e+07
2.2971e+07
2.20239e+07
2.10704e+07
2.01131e+07
1.91549e+07
1.81987e+07
1.72475e+07
1.63046e+07
1.53734e+07
1.44573e+07
1.356e+07
1.26854e+07
1.18377e+07
1.10211e+07
1.02401e+07
9.4994e+06
8.80377e+06
8.15826e+06
7.56799e+06
7.03819e+06
6.57414e+06
6.18112e+06
5.86442e+06
5.62924e+06
5.4807e+06
5.42371e+06
5.46296e+06
5.60281e+06
5.84723e+06
6.19974e+06
6.66338e+06
7.24062e+06
7.9333e+06
8.74265e+06
9.66921e+06
1.07128e+07
1.18725e+07
1.31466e+07
1.4533e+07
1.60287e+07
1.76303e+07
1.93338e+07
2.11345e+07
2.30275e+07
2.50072e+07
2.7068e+07
2.92036e+07
3.1408e+07
3.36745e+07
3.59966e+07
3.83674e+07
4.07799e+07
4.32271e+07
4.57018e+07
4.81965e+07
5.07037e+07
5.32157e+07
5.57246e+07
5.82223e+07
6.07004e+07
6.31504e+07
6.55637e+07
6.79312e+07
7.0244e+07
7.24935e+07
7.46707e+07
7.67675e+07
7.87762e+07
8.06897e+07
8.25012e+07
8.42055e+07
8.57979e+07
8.72753e+07
8.86356e+07
8.98783e+07
9.10045e+07
9.20146e+07
9.29107e+07
9.36961e+07
9.4375e+07
9.49518e+07
9.54326e+07
9.58238e+07
9.61319e+07
9.63649e+07
9.65323e+07
9.66434e+07
9.67076e+07
9.67366e+07
9.67423e+07
9.67388e+07
9.67423e+07
9.6773e+07
9.68512e+07
9.70016e+07
9.72517e+07
9.76308e+07
9.81722e+07
9.89155e+07
9.99022e+07
1.01178e+08
1.02788e+08
1.0478e+08
1.07197e+08
1.10085e+08
1.13485e+08
1.17434e+08
1.21964e+08
1.27101e+08
1.32863e+08
1.39259e+08
1.46293e+08
1.53959e+08
1.62245e+08
1.71136e+08
1.80605e+08
1.9062e+08
2.01143e+08
2.12144e+08
2.23575e+08
2.35389e+08
2.47533e+08
2.59952e+08
2.72579e+08
2.85339e+08
2.98149e+08
3.10919e+08
3.23532e+08
3.35858e+08
3.47758e+08
3.59074e+08
3.69612e+08
3.79188e+08
3.8761e+08
3.94685e+08
4.00214e+08
4.03997e+08
4.05887e+08
4.0577e+08
4.03533e+08
3.99111e+08
3.92507e+08
3.83818e+08
3.73183e+08
3.60826e+08
3.46947e+08
3.31824e+08
3.15659e+08
2.9872e+08
2.8124e+08
2.6347e+08
3.49657e+07
3.49504e+07
3.49001e+07
3.48155e+07
3.46966e+07
3.45431e+07
3.43546e+07
3.4131e+07
3.3872e+07
3.35776e+07
3.32479e+07
3.2883e+07
3.24831e+07
3.20487e+07
3.15803e+07
3.10786e+07
3.05443e+07
2.99783e+07
2.93815e+07
2.8755e+07
2.81e+07
2.74176e+07
2.67092e+07
2.59764e+07
2.5221e+07
2.44447e+07
2.36494e+07
2.28371e+07
2.20097e+07
2.11692e+07
2.03179e+07
1.94579e+07
1.85915e+07
1.77214e+07
1.685e+07
1.59801e+07
1.51147e+07
1.42567e+07
1.34095e+07
1.25766e+07
1.17616e+07
1.09685e+07
1.02014e+07
9.46459e+06
8.76273e+06
8.10055e+06
7.48295e+06
6.91497e+06
6.40176e+06
5.94855e+06
5.56055e+06
5.243e+06
5.00105e+06
4.8398e+06
4.76408e+06
4.77852e+06
4.88741e+06
5.09465e+06
5.40366e+06
5.81738e+06
6.33819e+06
6.96788e+06
7.7076e+06
8.55777e+06
9.51819e+06
1.05879e+07
1.17654e+07
1.30482e+07
1.44336e+07
1.59182e+07
1.7498e+07
1.91687e+07
2.09253e+07
2.27625e+07
2.46748e+07
2.66562e+07
2.87009e+07
3.08024e+07
3.29544e+07
3.51503e+07
3.73836e+07
3.96474e+07
4.19346e+07
4.42381e+07
4.65506e+07
4.88648e+07
5.1173e+07
5.34677e+07
5.57407e+07
5.7984e+07
6.01896e+07
6.2349e+07
6.44542e+07
6.64971e+07
6.847e+07
7.03653e+07
7.21761e+07
7.38964e+07
7.55203e+07
7.70435e+07
7.8462e+07
7.97729e+07
8.09756e+07
8.20699e+07
8.30567e+07
8.39374e+07
8.4714e+07
8.53896e+07
8.59683e+07
8.64546e+07
8.68536e+07
8.71706e+07
8.7411e+07
8.75818e+07
8.76915e+07
8.77483e+07
8.77605e+07
8.77377e+07
8.76903e+07
8.76301e+07
8.75717e+07
8.7532e+07
8.75289e+07
8.75836e+07
8.77207e+07
8.7967e+07
8.83523e+07
8.89121e+07
8.96841e+07
9.07098e+07
9.20314e+07
9.36919e+07
9.57339e+07
9.82e+07
1.0113e+08
1.04561e+08
1.08524e+08
1.13044e+08
1.18141e+08
1.23828e+08
1.30109e+08
1.36983e+08
1.44439e+08
1.52469e+08
1.61048e+08
1.70149e+08
1.79739e+08
1.89791e+08
2.00261e+08
2.11099e+08
2.22256e+08
2.33681e+08
2.45311e+08
2.57074e+08
2.68889e+08
2.80667e+08
2.92301e+08
3.03664e+08
3.14636e+08
3.25066e+08
3.34785e+08
3.43624e+08
3.51411e+08
3.57979e+08
3.63159e+08
3.66772e+08
3.68697e+08
3.6883e+08
3.67068e+08
3.6335e+08
3.57677e+08
3.50126e+08
3.4081e+08
3.29921e+08
3.17619e+08
3.04136e+08
2.89639e+08
2.74363e+08
2.58528e+08
2.42408e+08
3.14818e+07
3.14722e+07
3.14326e+07
3.13645e+07
3.12678e+07
3.11419e+07
3.09865e+07
3.08012e+07
3.05857e+07
3.03398e+07
3.00632e+07
2.9756e+07
2.94183e+07
2.90501e+07
2.86519e+07
2.82239e+07
2.77666e+07
2.72805e+07
2.67662e+07
2.62245e+07
2.56561e+07
2.5062e+07
2.44433e+07
2.38011e+07
2.31367e+07
2.24517e+07
2.17475e+07
2.10256e+07
2.02876e+07
1.95353e+07
1.87704e+07
1.79949e+07
1.72107e+07
1.64201e+07
1.56253e+07
1.48288e+07
1.40333e+07
1.32416e+07
1.24567e+07
1.16819e+07
1.09207e+07
1.0177e+07
9.4546e+06
8.75781e+06
8.09107e+06
7.45903e+06
6.86654e+06
6.31855e+06
5.82011e+06
5.37637e+06
4.99252e+06
4.6737e+06
4.42506e+06
4.25161e+06
4.15816e+06
4.14924e+06
4.22905e+06
4.40139e+06
4.6696e+06
5.03648e+06
5.50431e+06
6.0748e+06
6.74898e+06
7.52723e+06
8.40923e+06
9.394e+06
1.04799e+07
1.16646e+07
1.29453e+07
1.43186e+07
1.57806e+07
1.7327e+07
1.89532e+07
2.06538e+07
2.24236e+07
2.42568e+07
2.61475e+07
2.80897e+07
3.00772e+07
3.21038e+07
3.41631e+07
3.62485e+07
3.83532e+07
4.04704e+07
4.25931e+07
4.47141e+07
4.68264e+07
4.89226e+07
5.09952e+07
5.30366e+07
5.50392e+07
5.69956e+07
5.88981e+07
6.07397e+07
6.25131e+07
6.42119e+07
6.58298e+07
6.73618e+07
6.8803e+07
7.015e+07
7.13993e+07
7.2549e+07
7.35987e+07
7.45484e+07
7.53997e+07
7.61539e+07
7.6813e+07
7.73802e+07
7.78592e+07
7.82544e+07
7.85701e+07
7.88107e+07
7.89811e+07
7.90875e+07
7.91368e+07
7.91361e+07
7.9093e+07
7.90152e+07
7.89122e+07
7.87939e+07
7.86732e+07
7.85645e+07
7.84828e+07
7.84467e+07
7.84777e+07
7.86003e+07
7.88413e+07
7.9232e+07
7.98065e+07
8.06013e+07
8.16555e+07
8.30096e+07
8.47033e+07
8.67772e+07
8.92701e+07
9.22173e+07
9.56498e+07
9.95936e+07
1.04071e+08
1.09096e+08
1.14675e+08
1.20812e+08
1.27498e+08
1.34729e+08
1.42483e+08
1.50737e+08
1.59464e+08
1.68636e+08
1.78213e+08
1.88147e+08
1.98386e+08
2.08883e+08
2.1958e+08
2.30402e+08
2.41275e+08
2.52107e+08
2.62796e+08
2.73227e+08
2.83288e+08
2.92839e+08
3.01733e+08
3.09816e+08
3.16935e+08
3.22944e+08
3.27705e+08
3.31058e+08
3.32908e+08
3.33168e+08
3.31747e+08
3.28593e+08
3.23703e+08
3.17137e+08
3.08992e+08
2.99425e+08
2.88568e+08
2.76605e+08
2.63679e+08
2.49987e+08
2.35735e+08
2.21209e+08
2.84796e+07
2.84741e+07
2.84431e+07
2.83889e+07
2.83111e+07
2.82091e+07
2.80823e+07
2.79303e+07
2.77525e+07
2.75487e+07
2.73184e+07
2.70615e+07
2.67778e+07
2.64672e+07
2.61299e+07
2.57657e+07
2.5375e+07
2.49581e+07
2.45151e+07
2.40466e+07
2.35532e+07
2.30353e+07
2.24938e+07
2.19297e+07
2.13439e+07
2.07375e+07
2.01117e+07
1.94676e+07
1.88066e+07
1.81301e+07
1.74396e+07
1.67367e+07
1.60231e+07
1.53008e+07
1.45718e+07
1.38384e+07
1.31029e+07
1.2368e+07
1.16366e+07
1.09117e+07
1.01968e+07
9.49543e+06
8.81142e+06
8.14888e+06
7.5122e+06
6.90592e+06
6.33481e+06
5.80374e+06
5.31768e+06
4.88173e+06
4.501e+06
4.1806e+06
3.92562e+06
3.741e+06
3.63146e+06
3.60144e+06
3.65508e+06
3.79608e+06
4.02763e+06
4.35242e+06
4.77262e+06
5.28978e+06
5.90483e+06
6.61802e+06
7.42894e+06
8.3365e+06
9.339e+06
1.04341e+07
1.1619e+07
1.28901e+07
1.42436e+07
1.56755e+07
1.71809e+07
1.87548e+07
2.03919e+07
2.20867e+07
2.38335e+07
2.56263e+07
2.74591e+07
2.9326e+07
3.12208e+07
3.31371e+07
3.50686e+07
3.70087e+07
3.89505e+07
4.08875e+07
4.28127e+07
4.47193e+07
4.66003e+07
4.84486e+07
5.02572e+07
5.20192e+07
5.37279e+07
5.53766e+07
5.69591e+07
5.84697e+07
5.99031e+07
6.12549e+07
6.25216e+07
6.36999e+07
6.47874e+07
6.57828e+07
6.66857e+07
6.74968e+07
6.82174e+07
6.88493e+07
6.93942e+07
6.98556e+07
7.02366e+07
7.05411e+07
7.0773e+07