/*--------------------------------*- C++ -*----------------------------------*\
| =========                 |                                                 |
| \\      /  F ield         | OpenFOAM: The Open Source CFD Toolbox           |
|  \\    /   O peration     | Version:  dev                                   |
|   \\  /    A nd           | Web:      http://www.openfoam.org               |
|    \\/     M anipulation  |                                                 |
\*---------------------------------------------------------------------------*/
FoamFile
{
    version     2.0;
    format      ascii;
    class       volScalarField;
    object      rho;
    location    "9.138";
}
// * * * * * * * * * * * * * * * * * * * * * * * * * * * * * * * * * * * * * //

dimensions      [1 -3 0 0 0 0 0];

internalField   nonuniform List<scalar> 
12225
(
1.08581
1.09133
1.09199
1.0929
1.09437
1.0956
1.09746
1.0993
1.1015
1.10393
1.10654
1.10936
1.11231
1.11571
1.11948
1.12138
1.12669
1.12784
1.09028
1.09682
1.09703
1.09873
1.10003
1.10248
1.10356
1.10636
1.1073
1.1104
1.11228
1.11467
1.11659
1.12056
1.12503
1.12478
1.12792
1.13377
1.09016
1.09679
1.09691
1.09918
1.10059
1.10357
1.10533
1.10789
1.10954
1.11229
1.1159
1.11621
1.11878
1.12272
1.12922
1.1286
1.13167
1.13599
1.08965
1.09642
1.09675
1.09891
1.10079
1.10275
1.10625
1.10741
1.11054
1.11236
1.11742
1.11675
1.12039
1.12172
1.12985
1.12939
1.13213
1.13615
1.08995
1.09575
1.09693
1.09909
1.10094
1.1022
1.10561
1.1064
1.10986
1.11299
1.11587
1.11645
1.12037
1.12272
1.12651
1.12827
1.13171
1.13495
1.08927
1.09554
1.09636
1.09889
1.10003
1.10274
1.10528
1.10645
1.11064
1.1121
1.11402
1.11651
1.12005
1.12274
1.12563
1.12749
1.13099
1.1333
1.09023
1.09451
1.09464
1.0957
1.09974
1.10311
1.10582
1.10527
1.10886
1.10909
1.11367
1.11814
1.12088
1.12117
1.12377
1.12697
1.12985
1.13125
1.09059
1.09265
1.09451
1.09449
1.09989
1.10227
1.10259
1.10333
1.10825
1.11219
1.1137
1.11676
1.11914
1.12028
1.12286
1.12713
1.12894
1.13135
1.0902
1.09151
1.09551
1.09463
1.0995
1.10111
1.10168
1.10376
1.10817
1.11126
1.11221
1.11392
1.11765
1.12008
1.12385
1.12732
1.13015
1.1307
1.08925
1.09107
1.09589
1.09439
1.09886
1.09955
1.10271
1.104
1.10724
1.10716
1.11001
1.11378
1.11717
1.11877
1.12263
1.12581
1.12741
1.12806
1.08714
1.09009
1.09418
1.09303
1.09765
1.0981
1.10271
1.10329
1.10447
1.10481
1.10887
1.11275
1.1159
1.1177
1.1204
1.12293
1.12478
1.12636
1.08557
1.08898
1.0918
1.09173
1.09572
1.09664
1.10055
1.10139
1.10216
1.10348
1.10709
1.1108
1.11448
1.11635
1.11746
1.11937
1.12143
1.12344
1.08387
1.08743
1.08932
1.09011
1.09342
1.09456
1.09745
1.09848
1.09963
1.101
1.10455
1.10777
1.11057
1.11285
1.11408
1.11568
1.11786
1.11939
1.08065
1.08509
1.08635
1.08777
1.09016
1.09155
1.09342
1.09513
1.09672
1.09829
1.10178
1.1042
1.10606
1.10826
1.10969
1.11118
1.11319
1.11485
1.07793
1.08251
1.0831
1.08432
1.08594
1.08756
1.08951
1.09152
1.09318
1.09466
1.09751
1.09936
1.10108
1.10325
1.10452
1.10628
1.10844
1.10979
1.0742
1.07904
1.07919
1.0802
1.0815
1.08331
1.08507
1.08706
1.08865
1.09013
1.09281
1.09418
1.09601
1.09803
1.09922
1.10123
1.10307
1.1044
1.06947
1.07397
1.07396
1.0751
1.0765
1.07832
1.08001
1.08193
1.08354
1.08531
1.08755
1.08878
1.09077
1.0925
1.09387
1.09596
1.09756
1.0992
1.06477
1.06868
1.06865
1.06989
1.07134
1.07312
1.07483
1.07657
1.07847
1.08038
1.08214
1.08393
1.08584
1.08747
1.08935
1.09118
1.09287
1.09477
1.06014
1.06392
1.06412
1.06534
1.06693
1.0689
1.07053
1.07192
1.07444
1.0761
1.07805
1.08048
1.08193
1.08437
1.08611
1.08798
1.09
1.09168
1.05648
1.06032
1.06029
1.06135
1.06316
1.06544
1.06724
1.06875
1.07177
1.073
1.07577
1.07784
1.07938
1.08265
1.08351
1.08656
1.08803
1.08995
1.05319
1.05726
1.0568
1.05855
1.06068
1.06276
1.06504
1.06671
1.06959
1.07119
1.07424
1.0757
1.07812
1.08105
1.08194
1.08582
1.08644
1.08951
1.051
1.05486
1.05378
1.05672
1.05881
1.06011
1.06361
1.06508
1.06737
1.07037
1.07237
1.07449
1.07732
1.07947
1.08158
1.08461
1.08606
1.08895
1.04948
1.05277
1.05236
1.05567
1.05727
1.05827
1.06267
1.06346
1.06593
1.06987
1.07052
1.07447
1.0765
1.07878
1.08189
1.08335
1.08666
1.08794
1.04776
1.05115
1.05199
1.0542
1.05553
1.0578
1.06138
1.06222
1.06571
1.06904
1.06973
1.07466
1.0758
1.07841
1.08216
1.08247
1.08695
1.08763
1.04667
1.05006
1.05109
1.053
1.05481
1.05764
1.05992
1.06192
1.06525
1.06762
1.07004
1.07357
1.07529
1.07823
1.0812
1.08252
1.08632
1.08757
1.04625
1.04966
1.05034
1.05234
1.05433
1.05683
1.05923
1.06178
1.06446
1.067
1.06998
1.0724
1.07524
1.07798
1.08031
1.08328
1.08547
1.08802
1.04563
1.04897
1.04956
1.05154
1.05392
1.0563
1.05904
1.06159
1.06431
1.06715
1.06974
1.07256
1.07524
1.07779
1.08054
1.08297
1.08555
1.08805
1.04515
1.04878
1.0495
1.05135
1.05365
1.05608
1.05866
1.06132
1.06409
1.06685
1.06966
1.0724
1.07514
1.07782
1.0805
1.08311
1.08574
1.08826
1.04513
1.04888
1.04948
1.05122
1.0534
1.05576
1.05825
1.06081
1.06343
1.06607
1.06874
1.07139
1.07407
1.07668
1.07932
1.08183
1.08445
1.08681
1.04324
1.04728
1.04779
1.04911
1.05088
1.05288
1.05507
1.05738
1.0598
1.06228
1.06482
1.06738
1.06995
1.07249
1.07501
1.07749
1.0799
1.08224
1.19382
1.21406
1.21223
1.2141
1.21584
1.21697
1.21785
1.21795
1.21767
1.21726
1.21614
1.21532
1.21426
1.21286
1.21125
1.21096
1.21082
1.20808
1.2097
1.20759
1.20377
1.20481
1.20109
1.19653
1.19488
1.19096
1.18447
1.17946
1.17695
1.17666
1.17871
1.18235
1.18328
1.17863
1.16521
1.15098
1.14173
1.13521
1.12892
1.12315
1.1193
1.11767
1.11726
1.11705
1.11666
1.11612
1.11549
1.11486
1.11423
1.11361
1.11303
1.11248
1.11192
1.11135
1.11079
1.11022
1.10966
1.1092
1.10877
1.1084
1.10806
1.10777
1.10745
1.10703
1.10639
1.10545
1.10418
1.10281
1.10157
1.10076
1.10048
1.10007
1.09945
1.09846
1.09721
1.09604
1.09514
1.09422
1.09294
1.09139
1.0899
1.08854
1.08733
1.08651
1.08586
1.08535
1.08447
1.08353
1.08129
1.07808
1.07617
1.07635
1.079
1.08244
1.08606
1.08587
1.08543
1.08472
1.0884
1.09607
1.10003
1.10279
1.09847
1.08421
1.09054
1.11345
1.13033
1.1305
1.10968
1.0795
1.06313
1.05805
1.05795
1.06501
1.06417
1.06251
1.06887
1.07506
1.07975
1.08276
1.08278
1.08144
1.08435
1.08417
1.08446
1.08818
1.09869
1.09618
1.09712
1.09456
1.09064
1.08269
1.0728
1.07097
1.07207
1.07199
1.07349
1.07206
1.07077
1.06591
1.06373
1.06373
1.06514
1.06129
1.06388
1.06164
1.05555
1.04733
1.04247
1.04009
1.038
1.036
1.03571
1.043
1.05003
1.04282
1.03127
1.02546
1.03116
1.03817
1.06377
1.0771
1.01024
1.02384
1.03569
1.00763
0.996426
1.00393
1.0119
1.00912
0.999027
0.992256
0.987902
0.984533
0.983468
0.984665
0.986793
0.9897
0.992132
0.995339
1.18711
1.20186
1.20305
1.21111
1.21741
1.22034
1.22254
1.22269
1.22041
1.21865
1.21495
1.21121
1.21181
1.20315
1.20749
1.20657
1.20116
1.21438
1.20581
1.21113
1.22165
1.21026
1.21893
1.23059
1.22052
1.2134
1.21845
1.23044
1.24509
1.25136
1.22908
1.19289
1.19697
1.23721
1.22889
1.16756
1.13271
1.13099
1.13097
1.12903
1.12786
1.12693
1.1261
1.12524
1.12436
1.12366
1.12317
1.12289
1.12288
1.12313
1.12358
1.12418
1.12484
1.12551
1.12623
1.12696
1.12774
1.12859
1.12951
1.13043
1.13152
1.13287
1.13436
1.13566
1.13613
1.13576
1.1349
1.13387
1.13309
1.13313
1.13403
1.135
1.13595
1.13616
1.13493
1.13222
1.12873
1.12496
1.12052
1.11604
1.11271
1.11081
1.10862
1.10374
1.10216
1.10328
1.10419
1.1158
1.12433
1.13186
1.133
1.13521
1.13978
1.14413
1.1477
1.14683
1.14386
1.14059
1.13761
1.1431
1.14492
1.14285
1.17048
1.17469
1.1335
1.16147
1.24545
1.25453
1.16375
1.088
1.06923
1.09058
1.07786
1.03626
1.06856
1.09969
1.09397
1.10934
1.12384
1.12161
1.11718
1.1132
1.11431
1.11923
1.1185
1.11745
1.11619
1.11317
1.12662
1.12845
1.13289
1.13839
1.12518
1.11193
1.11012
1.10985
1.1168
1.12288
1.12935
1.12613
1.12321
1.12736
1.14376
1.1415
1.15276
1.15886
1.154
1.14407
1.13639
1.13225
1.13068
1.13663
1.13113
1.13967
1.16693
1.16239
1.1528
1.13419
1.13612
1.15166
1.19164
1.10873
0.841208
0.866281
1.08254
1.11656
1.09466
1.1193
1.15208
1.14666
1.11098
1.07809
1.05294
1.03302
1.02307
1.01969
1.01898
1.02179
1.02298
1.02533
1.17818
1.18685
1.19637
1.2125
1.22063
1.22201
1.22172
1.21786
1.2113
1.20238
1.19981
1.1911
1.18508
1.19263
1.18064
1.18963
1.19113
1.18319
1.19545
1.18607
1.2051
1.22375
1.20221
1.20642
1.23222
1.24252
1.23651
1.23036
1.23966
1.25878
1.25595
1.21295
1.1676
1.15312
1.1488
1.1393
1.1342
1.13201
1.1292
1.12669
1.12438
1.12193
1.11993
1.11824
1.11667
1.11535
1.11437
1.11378
1.11351
1.11359
1.11427
1.11539
1.11691
1.11869
1.12049
1.12219
1.12339
1.12427
1.12515
1.12581
1.1269
1.12898
1.13237
1.1362
1.13873
1.14003
1.14027
1.13767
1.13091
1.12403
1.12243
1.12458
1.12603
1.12611
1.12331
1.11654
1.10738
1.09952
1.09109
1.08243
1.07423
1.06911
1.06401
1.05173
1.04551
1.04425
1.04266
1.0589
1.07661
1.10772
1.12651
1.14337
1.15407
1.15553
1.14673
1.14419
1.14634
1.14699
1.14513
1.13651
1.12041
1.12261
1.13887
1.12677
1.11399
1.17671
1.22157
1.18452
1.11089
1.07537
1.0784
1.07239
1.05779
1.07898
1.09769
1.09059
1.13382
1.14842
1.12692
1.14087
1.14899
1.1323
1.1281
1.12632
1.11652
1.08555
1.04242
1.0653
1.0855
1.08255
1.09264
1.12253
1.14508
1.14464
1.14244
1.13524
1.12665
1.12832
1.13418
1.12568
1.1261
1.14525
1.16062
1.1747
1.19611
1.17709
1.15274
1.17052
1.18225
1.1841
1.18044
1.19001
1.18317
1.19545
1.19835
1.11426
1.11572
1.17181
1.18139
1.20895
1.22033
0.93926
0.704278
0.884481
0.927368
1.11219
1.14502
1.19898
1.23709
1.21248
1.15791
1.10848
1.06883
1.04624
1.03882
1.03561
1.03943
1.04027
1.0343
1.03236
1.17442
1.18615
1.2036
1.22052
1.22206
1.21863
1.2144
1.20549
1.19789
1.19267
1.18523
1.1853
1.18556
1.18592
1.19024
1.19489
1.19554
1.18932
1.19438
1.18681
1.17158
1.20984
1.24564
1.21871
1.20487
1.24344
1.27634
1.2697
1.22858
1.18544
1.16716
1.15953
1.14927
1.1427
1.13731
1.13278
1.12887
1.12571
1.12311
1.12086
1.11926
1.11809
1.11709
1.1161
1.11511
1.1141
1.11259
1.11079
1.10888
1.10707
1.10547
1.10442
1.10442
1.10509
1.10624
1.1079
1.10931
1.11015
1.11035
1.11005
1.1095
1.10946
1.11068
1.11339
1.11727
1.12217
1.12804
1.13255
1.13011
1.12029
1.10956
1.10384
1.10252
1.10151
1.09877
1.09479
1.0896
1.08662
1.08236
1.07542
1.06498
1.05572
1.05049
1.04026
1.03044
1.02577
1.02236
1.03004
1.04298
1.0674
1.0814
1.09915
1.11888
1.12361
1.10289
1.08516
1.09194
1.12123
1.14147
1.13427
1.12263
1.13935
1.13463
1.09722
1.12732
1.20104
1.18973
1.12503
1.07901
1.07992
1.08476
1.06143
1.06519
1.08812
1.08726
1.11952
1.12377
1.10416
1.15105
1.16416
1.13333
1.12854
1.12626
1.10029
1.07237
1.03838
1.0242
1.03715
1.04603
1.036
1.02635
1.06163
1.12154
1.15178
1.157
1.15845
1.13823
1.13233
1.14431
1.11806
1.10371
1.14375
1.1414
1.18005
1.21069
1.11481
1.0577
1.13583
1.17971
1.18831
1.21002
1.20935
1.17657
1.23603
1.21286
1.02363
0.996813
1.11417
1.17515
1.23541
1.26626
0.941949
0.990784
1.27145
0.761868
1.04113
1.16181
1.26077
1.27515
1.2143
1.15344
1.10528
1.07025
1.05621
1.05215
1.0519
1.05519
1.05104
1.04201
1.03525
1.17473
1.19017
1.20881
1.21885
1.21535
1.21206
1.20648
1.19969
1.19648
1.19286
1.19032
1.19008
1.19371
1.20448
1.20889
1.21359
1.21724
1.20587
1.20519
1.21081
1.19918
1.18457
1.19554
1.23826
1.26758
1.2518
1.20825
1.18058
1.16776
1.15713
1.14942
1.1442
1.13915
1.13436
1.13056
1.12761
1.12569
1.12418
1.12352
1.12334
1.12359
1.12394
1.12416
1.12477
1.12514
1.12502
1.12417
1.12255
1.12015
1.11662
1.11262
1.10865
1.10491
1.10193
1.09958
1.09817
1.09781
1.09833
1.09954
1.10162
1.10367
1.10541
1.10682
1.1073
1.10823
1.11099
1.11668
1.12454
1.12847
1.12541
1.11651
1.10688
1.10097
1.09615
1.08976
1.08417
1.0832
1.08313
1.08264
1.07982
1.07216
1.05981
1.05412
1.04685
1.03495
1.0221
1.01432
1.02066
1.04079
1.06576
1.07638
1.08829
1.09335
1.08018
1.0588
1.06036
1.08109
1.09063
1.08852
1.08081
1.07545
1.09213
1.11118
1.13329
1.18205
1.1906
1.14336
1.09974
1.08561
1.09247
1.07658
1.05114
1.071
1.07698
1.07583
1.09554
1.07688
1.09686
1.12662
1.10973
1.12554
1.12578
1.0859
1.05758
1.05527
1.06242
1.08562
1.05378
1.04452
1.04484
1.00673
1.03243
1.09056
1.1373
1.14321
1.14992
1.12614
1.12556
1.15262
1.11541
1.08309
1.14651
1.11553
1.16097
1.23098
1.07249
0.97666
1.08177
1.15795
1.13297
1.20769
1.21047
1.12109
1.24187
1.22745
1.04953
1.00478
1.03525
1.11892
1.22062
1.31782
0.942446
1.12361
1.31758
0.801837
0.971272
1.15502
1.29865
1.29356
1.20376
1.13951
1.09557
1.06782
1.05906
1.05628
1.06418
1.07549
1.08181
1.0688
1.06065
1.17592
1.19435
1.21387
1.21729
1.21161
1.20701
1.20268
1.20058
1.19893
1.19484
1.19591
1.20972
1.22307
1.2322
1.23713
1.23563
1.21904
1.19347
1.17687
1.16967
1.17985
1.21619
1.25775
1.25609
1.21378
1.17921
1.1647
1.15712
1.1528
1.14937
1.14497
1.14061
1.13655
1.13269
1.12974
1.12754
1.12651
1.12649
1.12689
1.12784
1.12884
1.12991
1.13119
1.13232
1.13338
1.13391
1.13425
1.134
1.13277
1.1306
1.12721
1.12277
1.1179
1.11331
1.10885
1.10456
1.1008
1.09782
1.09548
1.09515
1.09648
1.09825
1.10048
1.10109
1.10056
1.10022
1.10143
1.10593
1.1099
1.10998
1.10316
1.09113
1.08131
1.07929
1.08024
1.07619
1.07411
1.07134
1.07065
1.07043
1.0688
1.06239
1.06005
1.06031
1.05515
1.03853
1.01545
1.00491
1.01917
1.04968
1.06228
1.0655
1.06227
1.06152
1.0747
1.09651
1.09952
1.07144
1.05625
1.07788
1.10771
1.13118
1.15193
1.17668
1.18237
1.14619
1.11585
1.1105
1.1086
1.09141
1.06393
1.05533
1.07827
1.05812
1.0557
1.06397
1.04584
1.06341
1.06618
1.07265
1.11673
1.09989
1.06563
1.06681
1.08102
1.09328
1.10631
1.07399
1.04242
1.05352
1.02287
1.03315
1.08246
1.13156
1.11318
1.11743
1.107
1.1234
1.15633
1.10602
1.07005
1.14934
1.093
1.12698
1.24288
1.10364
0.984862
1.04164
1.13889
1.07178
1.18042
1.198
1.06517
1.20103
1.21654
1.12573
1.10792
1.03977
1.07003
1.1695
1.37174
0.9814
1.09814
1.10572
0.923596
0.893468
1.12047
1.3118
1.30481
1.1982
1.12805
1.08675
1.06381
1.05436
1.04737
1.0539
1.06634
1.07961
1.06399
1.06632
1.17801
1.20128
1.21522
1.20557
1.20136
1.20221
1.20351
1.20269
1.2009
1.2006
1.20621
1.22227
1.23331
1.23842
1.23845
1.23028
1.21653
1.2063
1.20429
1.21512
1.24195
1.25405
1.22975
1.19117
1.16994
1.1605
1.15942
1.1575
1.15376
1.14822
1.14187
1.13581
1.12998
1.12697
1.12534
1.12639
1.12856
1.13204
1.13579
1.1392
1.14251
1.14534
1.14778
1.14958
1.15077
1.15161
1.15175
1.15113
1.14985
1.14745
1.14409
1.1394
1.13352
1.12709
1.12092
1.11493
1.10954
1.10603
1.10304
1.10047
1.09909
1.09766
1.09648
1.09519
1.09334
1.0906
1.08573
1.0813
1.07902
1.08089
1.08311
1.08158
1.0769
1.07503
1.07568
1.07336
1.07051
1.06781
1.06317
1.05918
1.05873
1.05778
1.05337
1.05682
1.06376
1.06971
1.05116
1.02589
1.01619
1.03053
1.03834
1.04188
1.05879
1.08915
1.10364
1.09166
1.06733
1.05689
1.08339
1.11334
1.12628
1.14248
1.15874
1.16382
1.141
1.11224
1.11373
1.1271
1.11201
1.06409
1.04512
1.06813
1.07594
1.04367
1.05593
1.06604
1.0639
1.08472
1.07493
1.07068
1.08278
1.06032
1.06399
1.08981
1.09052
1.07105
1.08386
1.10219
1.03231
1.03457
1.04192
1.03876
1.0839
1.11222
1.03826
1.06052
1.10352
1.13531
1.15673
1.098
1.06158
1.11448
1.10714
1.06748
1.1947
1.14967
1.0458
1.04233
1.11875
1.03709
1.15761
1.18963
1.05496
1.13753
1.17116
1.16012
1.15562
1.08005
1.06189
1.01914
1.41723
1.01913
1.10623
1.04794
1.02339
0.875153
1.08775
1.31481
1.3109
1.1935
1.11755
1.07921
1.05983
1.04774
1.0356
1.03787
1.04102
1.05209
1.04905
1.06375
1.18011
1.20395
1.20675
1.19548
1.19779
1.19485
1.19448
1.19644
1.19694
1.19097
1.18808
1.20523
1.22337
1.23496
1.2453
1.24726
1.24506
1.23964
1.23324
1.23357
1.22871
1.20661
1.18165
1.17007
1.16534
1.16334
1.16069
1.15474
1.14635
1.13821
1.13135
1.12741
1.12712
1.13051
1.13671
1.14374
1.15094
1.15763
1.16255
1.16606
1.16805
1.16898
1.16895
1.16825
1.16702
1.16573
1.16464
1.1634
1.16236
1.16111
1.15941
1.1569
1.15385
1.15045
1.14652
1.14171
1.13476
1.12534
1.11457
1.10579
1.10078
1.09793
1.09635
1.09524
1.09391
1.09345
1.09427
1.09448
1.09237
1.08899
1.08459
1.08275
1.08389
1.0844
1.08102
1.07842
1.07557
1.0716
1.06705
1.06103
1.05571
1.05221
1.04835
1.04406
1.03972
1.05604
1.05666
1.03852
1.01855
1.0254
1.04138
1.05692
1.0826
1.09039
1.07274
1.05213
1.04617
1.06494
1.11121
1.12867
1.12615
1.13365
1.14033
1.12975
1.10818
1.10001
1.11619
1.13989
1.10646
1.03854
1.03993
1.08535
1.0779
1.05296
1.07288
1.0795
1.0888
1.10834
1.10041
1.1038
1.10339
1.07692
1.08546
1.10683
1.09671
1.04674
1.08476
1.1258
1.05957
1.03725
1.05229
1.05038
1.08881
1.08776
0.934856
0.966051
1.06626
1.14688
1.13566
1.09051
1.12223
1.19929
1.11952
0.970987
1.09381
1.18483
1.09849
1.05321
1.12086
1.01797
1.10894
1.18735
1.08845
1.11083
1.13044
1.15704
1.14447
1.10699
0.990495
0.775451
1.379
1.10871
1.09931
1.1101
1.07928
0.869219
1.05766
1.30758
1.30738
1.1865
1.11007
1.07482
1.05843
1.03932
1.02
1.02887
1.03145
1.0413
1.05861
1.08885
1.18155
1.2034
1.19888
1.1853
1.18802
1.19201
1.20288
1.20949
1.21157
1.20606
1.19357
1.19706
1.20915
1.21701
1.22894
1.22802
1.2276
1.22558
1.21727
1.2056
1.19376
1.1787
1.16767
1.16626
1.16341
1.15986
1.1533
1.1446
1.13774
1.13299
1.13385
1.13749
1.1454
1.15327
1.16137
1.16735
1.17094
1.17299
1.17293
1.17179
1.16917
1.16639
1.16293
1.15923
1.15596
1.15264
1.14977
1.14793
1.14736
1.14773
1.14768
1.1465
1.14474
1.1435
1.14319
1.14431
1.14625
1.14688
1.14478
1.13963
1.13265
1.12454
1.11572
1.10944
1.10716
1.10576
1.10316
1.10103
1.09896
1.09903
1.09896
1.09759
1.09414
1.09029
1.08771
1.08346
1.08162
1.07833
1.07397
1.07058
1.06854
1.06076
1.05343
1.05144
1.03372
1.02994
1.0459
1.04937
1.02241
1.00337
1.01436
1.02073
1.03327
1.04047
1.04473
1.03735
1.0452
1.08765
1.13142
1.12525
1.11523
1.11815
1.12005
1.10875
1.09946
1.09591
1.09775
1.12597
1.10411
1.03367
1.04614
1.08954
1.07648
1.06421
1.0659
1.05075
1.05546
1.0654
1.05652
1.06432
1.06212
1.03956
1.04144
1.05833
1.08233
1.08999
1.10575
1.12526
1.11114
1.06864
1.05806
1.04438
1.08882
1.07771
0.957141
0.926305
0.954696
1.10546
1.11025
1.07125
1.11873
1.25675
1.04156
0.907145
0.991825
1.1865
1.12929
1.06404
1.12689
1.01309
1.02314
1.14283
1.11285
1.09281
1.11006
1.14984
1.11459
1.13512
0.910535
0.717408
1.20156
1.16392
1.13365
1.12234
1.08577
0.869588
1.03205
1.30104
1.30346
1.18121
1.10569
1.07325
1.06112
1.0383
1.01601
1.03641
1.03983
1.05962
1.08456
1.10667
1.18066
1.20021
1.20452
1.20519
1.20669
1.20063
1.19656
1.19573
1.20308
1.20697
1.1912
1.18188
1.19196
1.19446
1.20595
1.20972
1.20646
1.20012
1.1949
1.18699
1.17907
1.17223
1.17076
1.1668
1.16256
1.15465
1.14711
1.14087
1.1394
1.14168
1.1473
1.15446
1.16184
1.1674
1.17169
1.17412
1.17566
1.1759
1.17457
1.17212
1.16883
1.16508
1.16152
1.15754
1.15372
1.15021
1.14603
1.14165
1.13845
1.138
1.13944
1.13985
1.13724
1.1319
1.12807
1.12845
1.13359
1.14132
1.14803
1.15017
1.14858
1.14534
1.14013
1.13474
1.12791
1.12278
1.1177
1.11502
1.11192
1.10856
1.10329
1.09852
1.09692
1.09566
1.09473
1.09461
1.09288
1.09126
1.08877
1.07763
1.07306
1.07031
1.05643
1.05907
1.05258
1.02815
1.03241
1.0578
1.05515
1.02024
1.00659
1.00521
1.01694
1.03186
1.0541
1.05564
1.065
1.10788
1.1362
1.11419
1.104
1.1069
1.10823
1.10732
1.10634
1.0939
1.07044
1.07992
1.08852
1.05049
1.0627
1.09039
1.08422
1.07122
1.04754
1.02836
1.03643
1.04112
1.03095
1.03387
1.01898
0.997733
0.99386
1.01129
1.03943
1.11407
1.08693
1.13047
1.09359
1.05438
1.07339
1.03977
1.1272
1.05018
1.06162
1.02443
0.933926
1.0404
1.09121
1.04525
1.05318
1.15019
0.995125
0.97021
1.00255
1.13152
1.0922
1.06917
1.0845
0.99523
0.972656
1.06451
1.1012
1.05488
1.08209
1.14026
1.06755
1.16627
0.917875
0.858103
1.03214
1.13216
1.18476
1.1162
1.08451
0.886193
1.02271
1.29779
1.28902
1.16918
1.10082
1.07588
1.06763
1.04571
1.03298
1.05671
1.06094
1.09324
1.12226
1.12712
1.1756
1.19008
1.20036
1.18722
1.17359
1.17125
1.17414
1.17869
1.18829
1.20336
1.20142
1.18188
1.18581
1.19289
1.19214
1.19411
1.19072
1.18867
1.1824
1.17686
1.17381
1.17144
1.16786
1.16255
1.15635
1.14993
1.14479
1.14452
1.14669
1.15246
1.1599
1.16842
1.17513
1.17956
1.18363
1.18615
1.18732
1.18487
1.18139
1.17648
1.17099
1.16461
1.1581
1.15251
1.14811
1.14572
1.14413
1.1409
1.13542
1.13072
1.13136
1.13583
1.13819
1.13133
1.11794
1.10748
1.10978
1.1199
1.13047
1.13738
1.1421
1.14464
1.14591
1.14657
1.14129
1.13729
1.13108
1.12698
1.12249
1.11861
1.11547
1.11332
1.10772
1.10321
1.10025
1.09676
1.09538
1.08996
1.09028
1.0872
1.07494
1.07204
1.0606
1.05067
1.05635
1.04099
1.02477
1.03466
1.04758
1.04213
1.03
1.02101
1.02705
1.0259
1.04065
1.05116
1.07631
1.12127
1.13543
1.10218
1.09709
1.09884
1.10141
1.11168
1.12221
1.10783
1.05643
1.03293
1.05231
1.05441
1.06657
1.07814
1.07702
1.06124
1.02972
1.0185
1.02159
1.0174
1.01248
1.01903
1.01211
1.01843
1.01552
1.03034
1.03869
1.07165
1.05373
1.13466
1.05566
1.01729
1.06397
1.02838
1.14328
1.052
1.01372
1.03796
0.9935
1.0158
1.08504
1.03418
1.00381
1.04217
0.979355
1.00597
1.05155
1.07747
1.03812
1.07515
1.03422
0.974051
0.999942
1.02462
1.06558
1.02276
1.04092
1.11911
1.00689
1.17012
0.98088
0.987322
0.964512
1.10239
1.20831
1.11948
1.08461
0.915601
1.03308
1.30758
1.27532
1.15872
1.0956
1.08091
1.07558
1.05201
1.06038
1.08672
1.09696
1.12313
1.13975
1.12967
1.17332
1.18074
1.17398
1.16675
1.1751
1.17818
1.17949
1.18128
1.17955
1.18519
1.20509
1.19992
1.17771
1.1889
1.18472
1.1881
1.18209
1.18122
1.17622
1.17557
1.16981
1.16615
1.16112
1.15604
1.15076
1.14808
1.14811
1.15277
1.16039
1.16927
1.17674
1.18114
1.18366
1.18659
1.18983
1.19019
1.18712
1.18116
1.17576
1.1706
1.16447
1.15662
1.14772
1.13864
1.13157
1.12723
1.12581
1.12559
1.12305
1.11702
1.1123
1.11388
1.12177
1.12413
1.11614
1.1025
1.09809
1.10582
1.11662
1.12238
1.1264
1.12733
1.12682
1.12564
1.12167
1.12057
1.11653
1.11522
1.11397
1.11317
1.11099
1.10693
1.10499
1.10149
1.10212
1.0982
1.09782
1.0967
1.09177
1.09223
1.09049
1.0774
1.07329
1.05642
1.05398
1.05491
1.03912
1.02663
1.03066
1.03474
1.02882
1.01172
1.00782
0.9965
1.0117
1.03593
1.07595
1.12463
1.13587
1.09416
1.09532
1.09754
1.10271
1.10853
1.12166
1.13304
1.08443
1.02365
1.02719
1.05008
1.06296
1.07271
1.07249
1.05035
1.0231
1.01161
1.00019
0.993531
1.00138
1.01086
1.01462
1.02767
1.01887
1.04124
1.03917
1.00431
1.03641
1.1193
1.12192
1.06244
1.07328
1.02682
1.05455
1.0369
0.967071
0.95784
0.999059
1.0205
1.08771
1.04248
1.00487
1.0194
0.976695
0.97247
1.00843
1.02871
1.02489
1.06084
1.01269
1.01069
1.07952
1.03135
1.03698
1.01111
1.02874
1.09652
0.991468
1.16163
1.05143
1.05445
0.963085
1.10567
1.22358
1.11215
1.07243
0.951376
1.0663
1.32466
1.24857
1.14727
1.08979
1.08383
1.08208
1.05702
1.08911
1.1251
1.13571
1.1455
1.13006
1.10013
1.1692
1.17102
1.17268
1.17624
1.17516
1.17461
1.17493
1.17407
1.17383
1.17065
1.16751
1.19981
1.18087
1.17523
1.19193
1.18427
1.17667
1.1769
1.17622
1.17076
1.16794
1.16493
1.16128
1.15772
1.15577
1.15571
1.15866
1.16334
1.16884
1.17364
1.17738
1.18269
1.19001
1.1972
1.19935
1.19505
1.18938
1.18497
1.18375
1.18143
1.17676
1.16877
1.15895
1.14744
1.13741
1.13042
1.12554
1.12308
1.12353
1.12363
1.12196
1.11663
1.11089
1.11058
1.11298
1.10843
1.09916
1.09224
1.09489
1.10717
1.11621
1.11544
1.11156
1.10476
1.09951
1.09556
1.09178
1.09008
1.0872
1.08568
1.08176
1.08066
1.07996
1.07392
1.0746
1.07496
1.07842
1.07858
1.0864
1.08336
1.09485
1.09436
1.09368
1.08351
1.06703
1.06238
1.05738
1.03522
1.03306
1.04011
1.04212
1.03274
1.02568
1.00568
1.00462
1.02682
1.07562
1.12581
1.14086
1.09342
1.09453
1.0928
1.10385
1.10876
1.11741
1.1348
1.124
1.06142
1.03277
1.04954
1.06555
1.07636
1.07935
1.05614
1.03452
1.02284
1.0053
0.999231
1.01042
1.01465
1.02412
1.04038
1.05284
1.08568
1.08205
1.04771
1.05233
1.07594
1.17753
1.09679
1.0871
1.06206
1.02024
1.02324
1.02725
0.975126
0.996061
1.03764
1.08825
1.04911
1.0205
1.03042
1.01649
1.00277
0.989569
1.00225
1.02475
1.03418
1.02345
1.08014
1.15027
1.08451
1.05969
1.02569
1.04982
1.07764
1.01809
1.14071
1.088
1.0876
0.989215
1.11872
1.23354
1.09716
1.06236
0.994515
1.11535
1.33467
1.21379
1.13589
1.08484
1.07832
1.08468
1.05567
1.11178
1.16666
1.16758
1.15628
1.11313
1.06666
1.16759
1.16796
1.16939
1.16941
1.17337
1.17689
1.17785
1.18286
1.18777
1.19347
1.18477
1.17382
1.17687
1.1735
1.18584
1.18105
1.1795
1.17466
1.17317
1.17138
1.16701
1.16213
1.15903
1.15737
1.15834
1.16177
1.16707
1.17451
1.18208
1.1888
1.19309
1.19634
1.19696
1.19565
1.19208
1.1897
1.1896
1.19002
1.1903
1.18828
1.18276
1.17561
1.1656
1.15044
1.13327
1.12275
1.11903
1.11662
1.11416
1.11206
1.11216
1.11522
1.11559
1.11331
1.11319
1.11643
1.11482
1.10807
1.09834
1.08728
1.08546
1.09151
1.09325
1.08987
1.09084
1.08948
1.08744
1.08798
1.0818
1.08024
1.07595
1.06911
1.06584
1.05794
1.05692
1.05001
1.05788
1.0551
1.06056
1.06238
1.06858
1.08038
1.08806
1.0948
1.09267
1.07178
1.06679
1.05358
1.03742
1.02981
1.03806
1.04424
1.04744
1.02956
1.00244
1.0106
1.06577
1.1212
1.14748
1.09887
1.0954
1.09526
1.09861
1.09923
1.11013
1.13003
1.13461
1.09552
1.05874
1.05856
1.06991
1.06838
1.06328
1.04455
1.03111
1.02265
1.00725
1.00247
1.01246
1.01643
1.02044
1.03199
1.04687
1.05099
1.04637
1.0637
1.04088
1.07717
1.17836
1.08158
1.06255
1.09099
1.02555
1.01905
1.06165
1.0111
0.983997
1.01727
1.0749
1.06822
1.05765
1.05066
1.02297
1.00899
1.00558
1.01785
1.03423
1.03135
1.03748
1.09675
1.16045
1.15907
1.11053
1.06258
1.10311
1.0712
1.04919
1.12352
1.09323
1.09265
1.01833
1.12504
1.23041
1.0823
1.05719
1.04109
1.17676
1.33192
1.17604
1.11761
1.07644
1.06225
1.08355
1.0586
1.12712
1.17491
1.17361
1.14668
1.12453
1.08157
1.1669
1.16745
1.16922
1.16921
1.16956
1.16942
1.16784
1.17091
1.17691
1.17389
1.17807
1.18164
1.19045
1.18382
1.18367
1.17643
1.17561
1.17964
1.1743
1.16975
1.16694
1.16292
1.16004
1.15952
1.16085
1.16504
1.1692
1.17408
1.17788
1.18186
1.1855
1.19183
1.19967
1.2067
1.20859
1.20502
1.19603
1.18985
1.19007
1.19067
1.18673
1.18605
1.18869
1.18487
1.16842
1.14697
1.13244
1.12669
1.12325
1.12058
1.11535
1.11026
1.11018
1.11047
1.10376
1.10298
1.11353
1.11944
1.11368
1.09972
1.09021
1.08918
1.09493
1.09956
1.10193
1.10306
1.10079
1.10108
1.0985
1.09264
1.09072
1.08481
1.08381
1.07215
1.06651
1.05704
1.04817
1.04917
1.04578
1.05007
1.04827
1.05405
1.0725
1.07817
1.09635
1.09054
1.07506
1.06371
1.0626
1.04643
1.03155
1.03022
1.04157
1.05308
1.01755
1.001
1.04621
1.11256
1.1508
1.11409
1.0873
1.10267
1.10242
1.09302
1.08971
1.11587
1.13453
1.11196
1.07967
1.06985
1.069
1.06636
1.06809
1.06477
1.0595
1.04416
1.02471
1.00918
1.00835
1.02464
1.03327
1.04148
1.03428
1.03107
1.0538
1.0602
1.02458
1.04626
1.17526
1.11848
1.06696
1.08781
1.03586
1.01626
1.06317
1.03423
0.966772
0.953954
0.99659
1.02316
1.03531
1.02811
1.00758
1.00261
1.01063
1.03998
1.06703
1.06807
1.07043
1.10139
1.14214
1.17341
1.13362
1.1099
1.16895
1.06876
1.05558
1.11455
1.08735
1.08212
1.042
1.12121
1.21799
1.07388
1.05483
1.08893
1.24008
1.31494
1.14494
1.09551
1.06842
1.0475
1.071
1.07863
1.1497
1.15313
1.15181
1.11927
1.13943
1.13484
1.16592
1.16564
1.16587
1.16558
1.16589
1.16875
1.17221
1.18112
1.18818
1.18866
1.17915
1.17278
1.18335
1.1874
1.18846
1.17954
1.16881
1.17386
1.17635
1.17202
1.16805
1.1647
1.16223
1.16247
1.16408
1.16845
1.17468
1.18133
1.18684
1.1897
1.18892
1.18919
1.19056
1.19296
1.19633
1.19872
1.19813
1.19667
1.19587
1.19492
1.19481
1.19096
1.18593
1.18948
1.19145
1.17549
1.15081
1.1371
1.12975
1.12522
1.12265
1.12017
1.11589
1.11736
1.11601
1.10356
1.10067
1.10921
1.11694
1.11291
1.10933
1.11502
1.12173
1.12689
1.12862
1.12721
1.1245
1.12223
1.11804
1.10991
1.09998
1.09108
1.08358
1.07999
1.06695
1.06956
1.05877
1.06615
1.06645
1.06068
1.05659
1.03621
1.04564
1.05746
1.07408
1.0925
1.09869
1.06906
1.06037
1.06623
1.05619
1.04041
1.027
1.05811
1.04207
1.00709
1.01863
1.09649
1.14397
1.13616
1.09079
1.10048
1.10668
1.09612
1.08355
1.09245
1.11665
1.11843
1.0964
1.085
1.07275
1.07428
1.07867
1.07253
1.06312
1.05345
1.0315
1.02019
1.01084
1.01772
1.01736
1.01717
1.00721
1.0195
1.03763
1.09661
1.07247
1.0395
1.15461
1.16539
1.0905
1.09682
1.0578
1.03989
1.07588
1.05945
0.986624
0.95419
0.967302
0.988112
0.99983
1.00741
1.00803
1.00214
1.02231
1.07623
1.09616
1.10988
1.11075
1.12714
1.18612
1.18383
1.14005
1.16296
1.21088
1.07082
1.05453
1.10619
1.07976
1.07082
1.06366
1.11259
1.20504
1.06858
1.05365
1.13478
1.29457
1.29524
1.12405
1.07026
1.05992
1.04697
1.05453
1.10292
1.18492
1.15059
1.13386
1.08966
1.14767
1.12971
1.16467
1.16413
1.16574
1.16821
1.16974
1.1721
1.17625
1.18362
1.18327
1.1835
1.18088
1.17392
1.17883
1.18512
1.19021
1.18732
1.1742
1.16795
1.16983
1.1706
1.16925
1.16735
1.16524
1.16489
1.16664
1.17013
1.17619
1.18306
1.19002
1.19563
1.19848
1.19911
1.19937
1.20032
1.20053
1.2013
1.20125
1.19814
1.19728
1.19727
1.19457
1.19657
1.19948
1.18739
1.18105
1.19286
1.18636
1.16375
1.14558
1.13658
1.12661
1.12075
1.11728
1.11097
1.11192
1.11094
1.10572
1.10776
1.11266
1.11716
1.12301
1.13171
1.13457
1.1344
1.13441
1.13344
1.13352
1.13945
1.13776
1.14121
1.13052
1.12031
1.09876
1.09123
1.07592
1.07094
1.06143
1.05453
1.07534
1.07239
1.07518
1.06013
1.03409
1.04042
1.05996
1.06534
1.09638
1.09645
1.07081
1.06211
1.06035
1.05965
1.02863
1.04811
1.05869
1.02841
1.00193
1.0688
1.13562
1.14329
1.10841
1.1
1.10729
1.0954
1.08468
1.08233
1.09362
1.10728
1.10506
1.09754
1.08443
1.08288
1.07695
1.0607
1.03917
1.03643
1.02776
1.02514
1.0089
1.00519
1.00875
1.00735
0.995881
1.01916
1.00355
1.07124
1.04687
1.02547
1.13286
1.16849
1.08298
1.09637
1.07267
1.06263
1.09395
1.08213
1.01885
0.97213
0.974037
0.991436
1.01251
1.02555
1.0257
1.02489
1.06038
1.1064
1.12295
1.16921
1.12219
1.08089
1.1804
1.19336
1.14004
1.191
1.22173
1.08771
1.06888
1.0974
1.07268
1.06775
1.08436
1.11173
1.19639
1.06931
1.05196
1.17534
1.33594
1.27339
1.11904
1.05611
1.05255
1.05793
1.05102
1.1175
1.19959
1.13864
1.13389
1.08228
1.14546
1.10334
1.16337
1.1639
1.16525
1.16732
1.16879
1.17134
1.17685
1.18605
1.18098
1.17095
1.17193
1.17131
1.17632
1.18296
1.1885
1.1904
1.18266
1.17334
1.1693
1.16798
1.16755
1.16731
1.16681
1.1659
1.16617
1.16648
1.16897
1.1727
1.17829
1.18419
1.19012
1.19442
1.19695
1.19882
1.19866
1.19895
1.20124
1.20239
1.20014
1.1965
1.19917
1.19641
1.19258
1.20191
1.1981
1.18217
1.18136
1.19318
1.18427
1.16232
1.1465
1.13392
1.12495
1.11934
1.11634
1.11498
1.11126
1.10912
1.1137
1.12397
1.1332
1.13857
1.13745
1.12951
1.12071
1.11807
1.11665
1.12213
1.12746
1.13625
1.14269
1.1421
1.13222
1.11251
1.10541
1.08335
1.08442
1.05529
1.05727
1.06755
1.05964
1.0715
1.05265
1.02793
1.05282