/*--------------------------------*- C++ -*----------------------------------*\
| =========                 |                                                 |
| \\      /  F ield         | OpenFOAM: The Open Source CFD Toolbox           |
|  \\    /   O peration     | Version:  dev                                   |
|   \\  /    A nd           | Web:      http://www.openfoam.org               |
|    \\/     M anipulation  |                                                 |
\*---------------------------------------------------------------------------*/
FoamFile
{
    version     2.0;
    format      ascii;
    class       volScalarField;
    object      rho_0;
    location    "9.138";
}
// * * * * * * * * * * * * * * * * * * * * * * * * * * * * * * * * * * * * * //

dimensions      [1 -3 0 0 0 0 0];

internalField   nonuniform List<scalar> 
12225
(
1.07262
1.07781
1.07849
1.07959
1.08137
1.08295
1.08519
1.08733
1.08999
1.09274
1.09575
1.09896
1.10226
1.10623
1.11075
1.11318
1.11999
1.12457
1.07717
1.08288
1.0831
1.08507
1.0867
1.08953
1.09099
1.09417
1.09559
1.09908
1.10139
1.10427
1.10653
1.11114
1.11638
1.11691
1.12115
1.12883
1.07697
1.08278
1.08295
1.0855
1.08724
1.0906
1.09272
1.09565
1.09777
1.1009
1.10498
1.10565
1.10881
1.11323
1.1204
1.12054
1.12476
1.13023
1.07649
1.08249
1.08287
1.08532
1.08751
1.08987
1.09372
1.09525
1.09881
1.10103
1.10651
1.10622
1.11049
1.1123
1.12115
1.12132
1.12462
1.12965
1.07687
1.08193
1.08319
1.08561
1.08776
1.08941
1.09318
1.09436
1.09826
1.10176
1.10502
1.10601
1.11049
1.11334
1.11767
1.11989
1.12398
1.12816
1.07639
1.0819
1.08281
1.08563
1.08704
1.09011
1.09299
1.09459
1.09917
1.10103
1.10333
1.10618
1.11028
1.11343
1.1168
1.11909
1.12317
1.12609
1.07759
1.08107
1.08127
1.08277
1.08708
1.09073
1.09376
1.09365
1.09755
1.09817
1.10324
1.10804
1.11125
1.11201
1.115
1.11869
1.12199
1.12388
1.07828
1.07951
1.08139
1.08179
1.08752
1.0901
1.09078
1.09198
1.09731
1.10146
1.10344
1.10694
1.10962
1.11126
1.11436
1.11909
1.12126
1.12416
1.07815
1.07867
1.08269
1.08213
1.08737
1.08923
1.09012
1.09263
1.09746
1.10094
1.10215
1.10432
1.10841
1.11127
1.11547
1.11931
1.12245
1.12338
1.07763
1.07864
1.0835
1.08227
1.08707
1.08809
1.09155
1.0932
1.09682
1.0972
1.10038
1.1045
1.10821
1.11023
1.11437
1.11789
1.11979
1.12085
1.07611
1.0782
1.08234
1.08145
1.08637
1.08716
1.09208
1.09293
1.09451
1.09526
1.0997
1.1039
1.10735
1.10951
1.11251
1.11533
1.1175
1.11942
1.07518
1.07775
1.08065
1.08081
1.08512
1.08635
1.09058
1.09169
1.09282
1.09453
1.09852
1.10255
1.10649
1.10864
1.11005
1.11226
1.11461
1.11689
1.0743
1.07706
1.07906
1.08009
1.08369
1.08512
1.08833
1.08963
1.0911
1.09285
1.09675
1.10026
1.10333
1.10586
1.10734
1.10924
1.11167
1.11343
1.0723
1.07588
1.07723
1.07889
1.08155
1.08321
1.08539
1.08738
1.08926
1.09118
1.09497
1.09764
1.09977
1.10221
1.10387
1.1056
1.10784
1.10971
1.07105
1.07473
1.0754
1.07686
1.07874
1.08063
1.08286
1.08513
1.08706
1.08884
1.09198
1.09405
1.09602
1.0984
1.09987
1.10186
1.10419
1.10571
1.06912
1.07306
1.07328
1.07452
1.07606
1.0781
1.08012
1.08235
1.08418
1.08594
1.08886
1.09042
1.09248
1.09469
1.09606
1.09826
1.10022
1.10171
1.06676
1.07018
1.07023
1.07158
1.07318
1.07521
1.07712
1.07925
1.08107
1.08308
1.08552
1.08693
1.08911
1.09099
1.09252
1.09475
1.09645
1.09821
1.06458
1.06725
1.06725
1.06867
1.07029
1.07224
1.07413
1.07607
1.07815
1.08025
1.08218
1.08414
1.0862
1.08795
1.08997
1.09189
1.09367
1.09565
1.06212
1.06462
1.06482
1.06619
1.06791
1.07002
1.07178
1.07337
1.07605
1.07786
1.07998
1.08253
1.08413
1.08667
1.0885
1.09046
1.09254
1.09427
1.06034
1.06274
1.06269
1.06386
1.06579
1.06819
1.07008
1.07178
1.07493
1.07631
1.07924
1.0814
1.08311
1.08644
1.08739
1.09052
1.09199
1.09398
1.05853
1.06104
1.06055
1.06239
1.0646
1.06681
1.06916
1.07099
1.07402
1.07573
1.07893
1.08048
1.08306
1.08603
1.08703
1.09095
1.09156
1.09472
1.0574
1.05963
1.05854
1.06159
1.06371
1.06517
1.06874
1.07031
1.0728
1.07588
1.07801
1.08024
1.08319
1.0854
1.08759
1.09067
1.09212
1.09508
1.05651
1.0583
1.05788
1.06132
1.06292
1.06408
1.06857
1.06941
1.07212
1.0761
1.0769
1.08099
1.08305
1.08547
1.08858
1.09014
1.09342
1.09474
1.0554
1.05728
1.0581
1.0604
1.06177
1.06417
1.06783
1.06876
1.07246
1.07581
1.07667
1.08175
1.08286
1.08569
1.08936
1.08977
1.09429
1.09489
1.05476
1.05661
1.05765
1.05961
1.06149
1.0644
1.06676
1.06888
1.07236
1.07482
1.07738
1.08103
1.08278
1.08587
1.08882
1.09021
1.09405
1.09521
1.05466
1.05651
1.05719
1.05926
1.0613
1.06389
1.06637
1.06902
1.07184
1.07449
1.07758
1.08011
1.08305
1.08585
1.08825
1.09125
1.09344
1.09601
1.05421
1.05603
1.0566
1.05867
1.06109
1.06355
1.06639
1.06904
1.07189
1.07483
1.07753
1.08047
1.08322
1.08585
1.08865
1.09111
1.09371
1.0962
1.05401
1.05599
1.05667
1.05859
1.06095
1.06345
1.06613
1.0689
1.07179
1.07467
1.07758
1.08043
1.08326
1.08601
1.08875
1.09139
1.09403
1.09655
1.05409
1.05621
1.05675
1.05855
1.06079
1.06322
1.06581
1.06847
1.07121
1.07396
1.07675
1.07951
1.08227
1.08495
1.08765
1.09019
1.09282
1.09516
1.05272
1.0554
1.05579
1.05708
1.05885
1.06089
1.06316
1.06556
1.06808
1.07066
1.07329
1.07592
1.07855
1.08114
1.08369
1.08617
1.08856
1.09086
1.21277
1.23337
1.23158
1.23355
1.23538
1.23657
1.23749
1.2376
1.23734
1.23692
1.23579
1.235
1.2339
1.23245
1.23094
1.23077
1.23045
1.2279
1.22955
1.22708
1.22354
1.22452
1.22047
1.21604
1.21428
1.2099
1.20317
1.19824
1.19594
1.19585
1.19796
1.20121
1.20141
1.19548
1.18087
1.16633
1.15714
1.15044
1.14379
1.13782
1.1339
1.13213
1.13139
1.13071
1.1298
1.12872
1.12754
1.12632
1.12509
1.12384
1.12259
1.12135
1.12006
1.11874
1.1174
1.11603
1.11467
1.11337
1.11207
1.11081
1.10958
1.10837
1.10714
1.10579
1.10424
1.10239
1.10026
1.09805
1.09601
1.09445
1.09344
1.09235
1.09112
1.08959
1.08788
1.08632
1.0851
1.08396
1.08255
1.08094
1.07947
1.07819
1.07714
1.07655
1.07618
1.07601
1.07553
1.07502
1.07329
1.07059
1.06912
1.06972
1.0728
1.07672
1.08092
1.08133
1.08135
1.08097
1.08483
1.09281
1.09712
1.10031
1.09635
1.08187
1.08776
1.11048
1.12734
1.12765
1.10743
1.07723
1.06056
1.05516
1.0549
1.06202
1.06119
1.05921
1.0655
1.07171
1.0765
1.07974
1.08
1.07883
1.082
1.08209
1.08257
1.08634
1.09732
1.09525
1.0964
1.09411
1.09039
1.08268
1.07335
1.07202
1.07337
1.07351
1.07515
1.07376
1.07243
1.06757
1.06549
1.06544
1.06648
1.06231
1.06458
1.06171
1.05512
1.04671
1.04178
1.03892
1.0367
1.03454
1.03442
1.04189
1.04897
1.04217
1.03094
1.02551
1.03158
1.03897
1.06513
1.0816
1.0162
1.03024
1.04087
1.01338
1.00211
1.00975
1.01795
1.01514
1.00479
0.997626
0.993094
0.989556
0.988343
0.989391
0.991329
0.994004
0.996189
0.999172
1.20567
1.22061
1.22205
1.23047
1.23691
1.23987
1.24208
1.24212
1.23975
1.23788
1.23403
1.23045
1.23069
1.22222
1.22707
1.22546
1.22111
1.23412
1.22494
1.23172
1.24139
1.23003
1.24014
1.25059
1.23949
1.23348
1.23974
1.25223
1.26663
1.27039
1.24432
1.2092
1.21874
1.25779
1.24086
1.17737
1.14661
1.14694
1.14655
1.1442
1.1427
1.14136
1.14009
1.13874
1.13736
1.13615
1.13513
1.13429
1.1337
1.13334
1.13316
1.13307
1.13303
1.13296
1.13291
1.13285
1.1328
1.13279
1.13282
1.13286
1.13308
1.13349
1.13404
1.13439
1.13389
1.13259
1.13083
1.12892
1.12729
1.12654
1.12669
1.12694
1.12725
1.12691
1.12524
1.12218
1.11844
1.11452
1.11001
1.10552
1.10221
1.10042
1.09853
1.09403
1.09268
1.09413
1.09522
1.10688
1.11576
1.12372
1.12541
1.12801
1.13302
1.13793
1.14219
1.14199
1.1395
1.13667
1.13391
1.13966
1.14197
1.13973
1.16748
1.17248
1.13086
1.15754
1.24156
1.25205
1.16206
1.08612
1.06613
1.08743
1.07609
1.03316
1.06357
1.09578
1.09008
1.10494
1.12021
1.11853
1.11438
1.11051
1.11157
1.11677
1.11643
1.11589
1.11598
1.11255
1.1261
1.12849
1.13329
1.13841
1.12496
1.11224
1.11093
1.11109
1.11842
1.12461
1.1309
1.12742
1.12465
1.12918
1.14514
1.14236
1.15339
1.15856
1.15285
1.14259
1.13482
1.13038
1.12876
1.13448
1.12888
1.13768
1.16479
1.16066
1.15149
1.1336
1.13586
1.15187
1.19437
1.11997
0.848522
0.865913
1.08645
1.12174
1.10014
1.12537
1.15821
1.15252
1.11627
1.08261
1.05711
1.03695
1.02693
1.02348
1.02262
1.02526
1.02621
1.02834
1.19622
1.20519
1.21529
1.23188
1.23992
1.24114
1.24068
1.23652
1.22962
1.22071
1.21804
1.20901
1.20387
1.21115
1.19916
1.20933
1.20961
1.20211
1.21465
1.20529
1.22594
1.24306
1.22098
1.22766
1.25394
1.26307
1.25633
1.25066
1.26075
1.27824
1.27058
1.22448
1.18053
1.16786
1.16358
1.15452
1.14993
1.14744
1.14422
1.14136
1.13866
1.13581
1.1334
1.13127
1.12923
1.12742
1.12592
1.12476
1.12391
1.12338
1.12343
1.12389
1.12472
1.12579
1.12683
1.12773
1.12808
1.1281
1.12816
1.12795
1.12817
1.12938
1.13188
1.13478
1.13637
1.13676
1.13611
1.13259
1.12505
1.11746
1.11517
1.11668
1.11754
1.11713
1.11399
1.10702
1.09769
1.08971
1.08126
1.07265
1.06454
1.05958
1.05495
1.04315
1.0371
1.03618
1.03459
1.05066
1.06826
1.09941
1.11891
1.13632
1.14779
1.15024
1.14231
1.14023
1.14264
1.14343
1.14186
1.13377
1.11786
1.11976
1.13654
1.1247
1.11112
1.17339
1.21929
1.18343
1.10958
1.0732
1.07578
1.07011
1.05457
1.07471
1.09429
1.08603
1.12841
1.1457
1.12383
1.137
1.14642
1.13027
1.12578
1.12452
1.116
1.08661
1.04318
1.06482
1.08575
1.08385
1.09523
1.12502
1.14627
1.14538
1.14314
1.13586
1.12766
1.12986
1.13536
1.12677
1.12804
1.14756
1.16237
1.17635
1.19636
1.17542
1.15173
1.16987
1.18093
1.18206
1.17832
1.18761
1.18054
1.19333
1.19556
1.1114
1.11345
1.17019
1.18048
1.20937
1.22924
0.954943
0.706861
0.861271
0.938499
1.11632
1.15049
1.20592
1.24343
1.21828
1.16294
1.11285
1.07286
1.05018
1.04282
1.03952
1.04326
1.0439
1.03759
1.03539
1.19205
1.20439
1.22244
1.23943
1.24056
1.23693
1.23245
1.22328
1.21571
1.21041
1.20311
1.20364
1.20405
1.20481
1.2098
1.21433
1.21446
1.20842
1.21318
1.20466
1.19137
1.23225
1.26516
1.23619
1.22652
1.26751
1.2966
1.28412
1.23967
1.19746
1.18114
1.17435
1.16476
1.15832
1.15271
1.14814
1.14406
1.14063
1.13779
1.13528
1.1334
1.13192
1.13055
1.12917
1.12772
1.12621
1.12413
1.12172
1.11917
1.11669
1.1144
1.11265
1.11193
1.11187
1.11225
1.11313
1.1137
1.11368
1.11305
1.11196
1.11058
1.1097
1.1101
1.11195
1.11498
1.11904
1.12405
1.12766
1.12436
1.11387
1.10256
1.0963
1.09444
1.09298
1.08989
1.08565
1.08019
1.07699
1.07266
1.06582
1.05558
1.04648
1.04153
1.03173
1.02221
1.01792
1.01467
1.02235
1.03505
1.05971
1.0744
1.09251
1.11314
1.11957
1.10008
1.08219
1.08845
1.11794
1.13888
1.13224
1.12073
1.13743
1.13289
1.09502
1.12478
1.19881
1.18822
1.1239
1.07727
1.07751
1.08297
1.0594
1.06165
1.08459
1.0831
1.11506
1.12228
1.1007
1.14576
1.16238
1.13208
1.12636
1.12521
1.10048
1.07287
1.0381
1.02165
1.036
1.04599
1.03628
1.02887
1.06539
1.12461
1.1536
1.15831
1.15915
1.13877
1.13396
1.14514
1.11794
1.10585
1.14635
1.14315
1.18275
1.20903
1.10971
1.05761
1.13763
1.17902
1.18637
1.20798
1.20585
1.17316
1.23408
1.20935
1.02047
0.99432
1.1115
1.17295
1.23471
1.27629
0.946653
0.988902
1.26143
0.776379
1.04208
1.16724
1.26833
1.2816
1.21987
1.15835
1.10983
1.07455
1.06045
1.05637
1.05606
1.0593
1.05501
1.04565
1.03854
1.19184
1.208
1.22701
1.23679
1.23297
1.22958
1.22384
1.21709
1.21398
1.21036
1.20801
1.20827
1.21279
1.22408
1.22852
1.23332
1.23578
1.22341
1.22283
1.22788
1.21616
1.20278
1.21716
1.26202
1.28721
1.26452
1.21896
1.19291
1.18169
1.17225
1.16493
1.15965
1.15463
1.14973
1.14578
1.14269
1.14064
1.13897
1.13813
1.13775
1.13774
1.13778
1.13765
1.13787
1.13779
1.13717
1.13577
1.13355
1.13048
1.12625
1.12153
1.11681
1.11231
1.10856
1.10543
1.10325
1.10209
1.1018
1.10226
1.10356
1.10479
1.10569
1.10624
1.10586
1.10596
1.10794
1.11284
1.11983
1.12294
1.11919
1.10971
1.09961
1.09329
1.08807
1.08132
1.07542
1.07413
1.07387
1.07328
1.07051
1.06307
1.05086
1.04526
1.0383
1.02686
1.01453
1.00698
1.01323
1.03306
1.05843
1.06991
1.08267
1.08918
1.07724
1.05555
1.05613
1.07721
1.08831
1.08701
1.0792
1.07343
1.09012
1.10906
1.13102
1.17997
1.18924
1.14241
1.09877
1.08409
1.09099
1.0759
1.04919
1.06782
1.07442
1.0726
1.09359
1.07536
1.09263
1.12487
1.10833
1.12275
1.12542
1.08677
1.05712
1.05339
1.05928
1.08202
1.05244
1.04412
1.04365
1.00689
1.03497
1.09373
1.13948
1.14499
1.1509
1.12689
1.12803
1.15377
1.11422
1.08556
1.14926
1.11632
1.16523
1.22844
1.0645
0.976108
1.08546
1.15717
1.13098
1.20665
1.20551
1.117
1.24004
1.22342
1.04755
1.00249
1.03307
1.11634
1.21852
1.32661
0.945109
1.12216
1.34231
0.80177
0.973157
1.15994
1.30624
1.30004
1.20933
1.14453
1.10032
1.07238
1.0634
1.06039
1.06809
1.07938
1.08598
1.07264
1.06422
1.19233
1.21155
1.23122
1.23411
1.22826
1.22372
1.2195
1.21751
1.21582
1.2118
1.21353
1.22824
1.24191
1.251
1.25574
1.25326
1.23515
1.20941
1.1933
1.1873
1.20087
1.2399
1.27873
1.26981
1.22399
1.19082
1.17881
1.17238
1.16834
1.16496
1.1604
1.15579
1.15147
1.1475
1.14445
1.14223
1.14117
1.14113
1.14144
1.14222
1.14298
1.14376
1.14471
1.14541
1.146
1.14603
1.14582
1.14498
1.14309
1.14024
1.13612
1.13092
1.12529
1.11991
1.11465
1.10955
1.10498
1.10119
1.0981
1.09702
1.09755
1.09849
1.09987
1.09962
1.09829
1.09719
1.09762
1.10137
1.10465
1.10412
1.09675
1.08431
1.0741
1.07164
1.0722
1.06788
1.0656
1.06271
1.06194
1.06175
1.06022
1.05385
1.05158
1.05197
1.04719
1.03117
1.00861
0.998074
1.01209
1.0431
1.05702
1.06133
1.05845
1.05703
1.0695
1.09224
1.09753
1.07036
1.05415
1.07507
1.10491
1.12878
1.14984
1.17503
1.18148
1.14557
1.1149
1.1096
1.10818
1.09106
1.06327
1.05336
1.07668
1.05739
1.05368
1.06293
1.04433
1.0608
1.06473
1.06909
1.11422
1.10081
1.06559
1.06457
1.07853
1.09179
1.10584
1.07252
1.04263
1.05382
1.02146
1.03444
1.08501
1.13324
1.1157
1.11987
1.10886
1.12679
1.15723
1.10422
1.07303
1.15136
1.09264
1.13272
1.24147
1.09555
0.981648
1.04492
1.13777
1.06997
1.18076
1.1921
1.061
1.19902
1.21172
1.1242
1.10626
1.03834
1.06825
1.16622
1.37759
0.984257
1.09913
1.11969
0.912964
0.898647
1.12512
1.31929
1.31135
1.20386
1.13326
1.09174
1.06863
1.05883
1.05136
1.05738
1.06941
1.08298
1.06733
1.06958
1.19356
1.21763
1.23123
1.22103
1.21702
1.21795
1.21939
1.21866
1.21693
1.21671
1.22256
1.23903
1.25022
1.25537
1.25548
1.24724
1.23402
1.22494
1.22395
1.236
1.26236
1.27005
1.24089
1.20189
1.18305
1.17546
1.17497
1.17297
1.1688
1.16279
1.1561
1.14989
1.14412
1.14136
1.14006
1.14143
1.1438
1.14736
1.15102
1.15419
1.15717
1.15958
1.16151
1.16276
1.16336
1.16359
1.1631
1.16183
1.1599
1.15682
1.15277
1.14735
1.14075
1.1336
1.12673
1.12001
1.11387
1.10954
1.10566
1.10227
1.10005
1.09779
1.09581
1.09374
1.09114
1.08765
1.08209
1.07703
1.07415
1.07545
1.07713
1.0751
1.06994
1.06764
1.068
1.06543
1.06241
1.05964
1.05504
1.05111
1.05075
1.04999
1.04573
1.04928
1.05642
1.06262
1.04483
1.02
1.01045
1.02516
1.03361
1.03708
1.0531
1.08381
1.10056
1.09095
1.06711
1.05501
1.08004
1.11063
1.12458
1.14118
1.15774
1.1635
1.14112
1.11179
1.11256
1.12689
1.11363
1.06469
1.04343
1.06623
1.07614
1.04352
1.05373
1.06442
1.06143
1.08236
1.07377
1.06864
1.08207
1.06006
1.06187
1.08735
1.08964
1.07233
1.08399
1.10038
1.03159
1.03564
1.04103
1.03948
1.08592
1.11296
1.04251
1.06775
1.10837
1.13908
1.15695
1.0957
1.06362
1.11896
1.10649
1.07203
1.1965
1.14483
1.04078
1.04313
1.11682
1.03561
1.15887
1.18387
1.05084
1.13536
1.16642
1.15799
1.15377
1.07877
1.06059
1.01766
1.41982
1.02294
1.10873
1.05111
1.01645
0.880075
1.09289
1.3223
1.31738
1.19914
1.12298
1.08451
1.06494
1.05243
1.03971
1.04161
1.04421
1.05523
1.05243
1.06705
1.19466
1.21908
1.22128
1.20972
1.21231
1.20949
1.20941
1.21161
1.21222
1.2061
1.20288
1.22
1.23829
1.24998
1.2608
1.26304
1.26144
1.25642
1.24968
1.24866
1.24123
1.21726
1.19301
1.18368
1.17999
1.17825
1.17512
1.16858
1.15982
1.15158
1.14506
1.1416
1.14207
1.14601
1.15266
1.15979
1.16684
1.17315
1.17753
1.18044
1.18174
1.182
1.18127
1.17989
1.17802
1.17612
1.17444
1.17264
1.17109
1.16934
1.1671
1.16402
1.1604
1.15642
1.15187
1.14639
1.1387
1.12851
1.11704
1.10767
1.10196
1.09838
1.09597
1.09405
1.092
1.09087
1.09101
1.09053
1.08775
1.08376
1.07885
1.07655
1.07723
1.07736
1.07372
1.07092
1.06791
1.06387
1.05934
1.05338
1.04816
1.04494
1.04138
1.03749
1.03353
1.05018
1.05131
1.03362
1.01386
1.02097
1.03698
1.05258
1.07896
1.08901
1.07287
1.05234
1.04507
1.06187
1.10815
1.12753
1.12582
1.13342
1.1405
1.13046
1.10873
1.09959
1.11458
1.14013
1.11051
1.04045
1.03777
1.08377
1.07903
1.05302
1.07147
1.07863
1.08727
1.10769
1.10036
1.10329
1.10424
1.07769
1.08515
1.10729
1.09771
1.04597
1.08291
1.12473
1.05628
1.03578
1.0524
1.05175
1.09064
1.0875
0.936384
0.975225
1.07765
1.15176
1.13542
1.09178
1.12791
1.2044
1.11198
0.973578
1.10232
1.18575
1.09236
1.05215
1.11821
1.01523
1.11065
1.18281
1.08441
1.10815
1.12688
1.15453
1.14152
1.10631
0.990815
0.779247
1.37359
1.11334
1.10198
1.11166
1.07895
0.873452
1.06305
1.31493
1.31373
1.19213
1.11576
1.08039
1.06405
1.04454
1.02442
1.03317
1.03547
1.04509
1.06235
1.09268
1.19485
1.21714
1.21268
1.19935
1.202
1.2059
1.21681
1.22342
1.22576
1.22054
1.20759
1.2103
1.22222
1.22968
1.24169
1.24076
1.24013
1.2379
1.2295
1.21717
1.20502
1.1908
1.18117
1.18017
1.17727
1.17319
1.16618
1.15733
1.15084
1.14673
1.14839
1.15273
1.16109
1.16898
1.17678
1.18223
1.18521
1.18658
1.18584
1.18403
1.18078
1.17741
1.17339
1.16915
1.16537
1.16154
1.15816
1.15583
1.15479
1.15471
1.15417
1.15247
1.15014
1.1483
1.14748
1.1482
1.14978
1.14999
1.14736
1.14155
1.1338
1.12489
1.11532
1.10844
1.10549
1.10334
1.10001
1.09725
1.09463
1.09417
1.09357
1.09172
1.08791
1.08376
1.08091
1.07642
1.07442
1.07104
1.06664
1.06339
1.06152
1.05399
1.04705
1.04543
1.02817
1.02489
1.04092
1.0449
1.01858
1.00007
1.01153
1.01871
1.03192
1.03964
1.04375
1.03611
1.04282
1.08428
1.12987
1.12597
1.11603
1.11872
1.12096
1.10997
1.10061
1.0967
1.09658
1.12469
1.10834
1.03721
1.04488
1.08885
1.07806
1.06522
1.06704
1.05207
1.05597
1.06671
1.05794
1.06557
1.06468
1.04236
1.04403
1.06102
1.08443
1.08728
1.1059
1.1255
1.11007
1.06794
1.05786
1.04658
1.09054
1.07733
0.952241
0.925386
0.96663
1.11517
1.11087
1.07285
1.12473
1.25425
1.03031
0.905987
1.00384
1.19236
1.12277
1.06233
1.12293
1.00755
1.02416
1.14015
1.1088
1.08889
1.10732
1.147
1.11062
1.13589
0.911376
0.717159
1.1908
1.16513
1.13824
1.12481
1.08883
0.87249
1.03733
1.30836
1.30945
1.18678
1.11161
1.07913
1.0673
1.04435
1.02142
1.04153
1.04466
1.06423
1.08874
1.1108
1.19237
1.21212
1.2171
1.21778
1.2187
1.21243
1.20816
1.20737
1.2151
1.21977
1.2043
1.19401
1.20383
1.20628
1.21715
1.2211
1.21761
1.21116
1.20593
1.19834
1.19093
1.18485
1.18387
1.17956
1.17503
1.16682
1.15927
1.15359
1.15274
1.15578
1.16186
1.1693
1.17649
1.18165
1.18549
1.18747
1.1886
1.18828
1.18641
1.18341
1.17961
1.1753
1.17122
1.16674
1.16247
1.15855
1.15392
1.14905
1.14536
1.14448
1.1455
1.1454
1.14214
1.13602
1.13147
1.13132
1.13621
1.14364
1.14984
1.15134
1.14917
1.14538
1.13961
1.13362
1.12608
1.12034
1.11467
1.11143
1.10777
1.1039
1.09818
1.09308
1.09121
1.08966
1.0885
1.0882
1.08635
1.08472
1.08224
1.07123
1.06697
1.06447
1.05087
1.05388
1.04779
1.02379
1.02807
1.05378
1.0521
1.01766
1.00421
1.00291
1.01473
1.03006
1.05283
1.05457
1.0628
1.10559
1.1366
1.11635
1.10551
1.10808
1.10949
1.10883
1.10861
1.09721
1.07195
1.07796
1.08938
1.05353
1.06295
1.09079
1.08634
1.07392
1.05051
1.03037
1.03776
1.04331
1.03315
1.03613
1.02183
0.999766
0.995282
1.01233
1.04113
1.11559
1.09079
1.13098
1.09724
1.05881
1.07455
1.04283
1.12868
1.05113
1.06132
1.01627
0.935691
1.05076
1.0937
1.04523
1.05655
1.14395
0.990258
0.968466
1.00889
1.13299
1.08772
1.06764
1.07796
0.988899
0.973096
1.06425
1.09704
1.05008
1.0797
1.13656
1.06304
1.16715
0.917775
0.850429
1.02825
1.13343
1.19011
1.11762
1.08766
0.88781
1.0282
1.30532
1.29455
1.17477
1.10689
1.08213
1.07427
1.0522
1.03954
1.06284
1.06669
1.09839
1.1269
1.13148
1.18582
1.20021
1.21003
1.19646
1.18326
1.18148
1.18469
1.18947
1.1989
1.21408
1.21355
1.19417
1.19665
1.20429
1.20273
1.20469
1.20105
1.19937
1.19308
1.18799
1.18503
1.18288
1.17899
1.17356
1.16722
1.16117
1.15659
1.15718
1.16005
1.16633
1.17391
1.18216
1.1884
1.19252
1.19636
1.1985
1.19906
1.19589
1.19185
1.18644
1.18042
1.17345
1.16634
1.16021
1.15542
1.15272
1.15081
1.14715
1.14117
1.13608
1.13646
1.1406
1.14232
1.13451
1.12035
1.10961
1.11192
1.12181
1.13181
1.13802
1.14216
1.14413
1.14491
1.14499
1.13913
1.13465
1.12797
1.12348
1.11857
1.11432
1.11084
1.10833
1.10242
1.09777
1.09465
1.09113
1.08968
1.08426
1.08471
1.0816
1.06948
1.06708
1.05585
1.04638
1.05243
1.03735
1.02145
1.03193
1.04546
1.04016
1.02839
1.01976
1.02647
1.02632
1.0414
1.05132
1.07491
1.12038
1.13755
1.10537
1.09919
1.10076
1.10305
1.11313
1.12489
1.11385
1.06271
1.03408
1.05159
1.05601
1.06801
1.07988
1.07982
1.06503
1.03334
1.02112
1.02429
1.02048
1.01504
1.02142
1.01398
1.01925
1.01612
1.03038
1.03986
1.07837
1.0581
1.13681
1.05561
1.01858
1.06594
1.03162
1.14656
1.05198
1.02014
1.0433
0.992544
1.02279
1.08863
1.03278
1.00522
1.03949
0.979056
1.00944
1.05431
1.0745
1.0369
1.07404
1.02668
0.970974
1.00097
1.0243
1.06114
1.01848
1.03971
1.11462
1.00404
1.17043
0.981173
0.979889
0.96579
1.10699
1.21307
1.12059
1.08828
0.916732
1.03929
1.31564
1.28025
1.1646
1.10176
1.08733
1.08253
1.05852
1.06762
1.09384
1.10356
1.12877
1.14453
1.13419
1.18219
1.18936
1.18214
1.17579
1.18492
1.18809
1.18934
1.19098
1.1889
1.19392
1.21369
1.21097
1.18749
1.19819
1.19516
1.198
1.19166
1.19097
1.1864
1.18578
1.18004
1.17631
1.17127
1.16631
1.16137
1.1592
1.15994
1.16505
1.17299
1.18181
1.18892
1.19296
1.19543
1.19844
1.20135
1.20094
1.19709
1.19073
1.18522
1.17989
1.17337
1.16498
1.15548
1.14579
1.13825
1.13356
1.13182
1.1312
1.12823
1.12185
1.11695
1.11829
1.12548
1.12691
1.1183
1.10456
1.10012
1.10739
1.11743
1.1226
1.12607
1.12632
1.12525
1.12351
1.11924
1.11783
1.11354
1.11201
1.11053
1.10946
1.10702
1.10277
1.10064
1.09714
1.09766
1.09365
1.09323
1.09205
1.08708
1.08771
1.08575
1.07292
1.06903
1.05248
1.05059
1.05191
1.03652
1.02482
1.02922
1.03369
1.02846
1.01173
1.0085
0.997574
1.01269
1.03626
1.07512
1.12482
1.13928
1.09816
1.09804
1.1002
1.10541
1.111
1.1239
1.13848
1.09439
1.03047
1.0289
1.05183
1.06546
1.07575
1.07663
1.05518
1.02743
1.01535
1.00397
0.996785
1.00396
1.01346
1.01659
1.02935
1.01965
1.04091
1.03945
1.00748
1.03852
1.12554
1.11739
1.05934
1.07397
1.0277
1.05955
1.03744
0.966336
0.964816
1.00412
1.0267
1.0915
1.04126
1.00614
1.0193
0.975341
0.975254
1.01176
1.02869
1.02606
1.05922
1.00905
1.01275
1.07995
1.02911
1.03389
1.00888
1.02975
1.09194
0.991625
1.16138
1.05153
1.05064
0.964732
1.11159
1.22743
1.11289
1.07657
0.952565
1.07329
1.33194
1.25301
1.15348
1.09604
1.08999
1.08901
1.06348
1.09663
1.13311
1.14266
1.15137
1.13485
1.10484
1.17661
1.17842
1.18067
1.18468
1.1833
1.18285
1.18322
1.18255
1.18264
1.17951
1.17572
1.20754
1.18931
1.18316
1.20121
1.19287
1.18567
1.18564
1.1853
1.17978
1.17709
1.174
1.17052
1.16727
1.16589
1.1664
1.16985
1.17481
1.18031
1.1849
1.18838
1.19364
1.20081
1.20749
1.20878
1.20397
1.1983
1.19418
1.19311
1.19057
1.18544
1.17695
1.16655
1.15432
1.14359
1.13615
1.13099
1.12831
1.12851
1.12829
1.12612
1.1202
1.11401
1.11351
1.11556
1.11063
1.10092
1.09362
1.09578
1.10718
1.11528
1.11397
1.10972
1.10261
1.09724
1.09305
1.08908
1.08717
1.08409
1.08237
1.07833
1.07721
1.07639
1.07044
1.07123
1.07171
1.07507
1.07537
1.08311
1.0802
1.09172
1.09096
1.09043
1.08034
1.06422
1.06028
1.0558
1.03403
1.03216
1.03979
1.0423
1.03295
1.02646
1.00674
1.00613
1.02776
1.07554
1.12688
1.14528
1.0984
1.09834
1.09636
1.10729
1.11236
1.12056
1.13878
1.13265
1.07148
1.03865
1.05308
1.0693
1.08042
1.08437
1.06173
1.03963
1.02763
1.00979
1.00291
1.01376
1.01803
1.0272
1.04337
1.05477
1.08839
1.08472
1.04749
1.05513
1.08298
1.17759
1.09715
1.09021
1.06097
1.0231
1.02717
1.02435
0.975068
1.00201
1.04409
1.09129
1.04882
1.02259
1.03279
1.01673
1.00221
0.990343
1.00456
1.02657
1.03315
1.0246
1.08424
1.14937
1.08245
1.05816
1.02503
1.05278
1.07355
1.01938
1.13924
1.08717
1.08629
0.989906
1.12343
1.23589
1.09775
1.06633
0.996021
1.12315
1.34076
1.21847
1.14197
1.09105
1.08381
1.09143
1.06235
1.11948
1.17462
1.1743
1.16197
1.11792
1.07148
1.17373
1.17441
1.1759
1.17586
1.18008
1.18362
1.18458
1.19001
1.19534
1.20085
1.19227
1.17984
1.18519
1.1818
1.19301
1.18816
1.18721
1.18281
1.181
1.17934
1.175
1.17006
1.16705
1.16571
1.16706
1.17096
1.17647
1.18404
1.19151
1.19813
1.20235
1.20555
1.20603
1.2045
1.20076
1.19839
1.19796
1.19808
1.19818
1.19592
1.19002
1.18279
1.17271
1.15717
1.13941
1.1284
1.12425
1.12141
1.11845
1.11602
1.11588
1.11861
1.11854
1.11585
1.11524
1.11819
1.11648
1.10947
1.09893
1.08694
1.08467
1.09039
1.09189
1.08841
1.08918
1.08746
1.0851
1.0853
1.07879
1.07708
1.07255
1.06567
1.06234
1.05451
1.05363
1.04704
1.05526
1.05249
1.05832
1.0602
1.06684
1.0787
1.08631
1.09309
1.09095
1.07055
1.06619
1.0534
1.03762
1.03039
1.0391
1.0456
1.04943
1.03194
1.00537
1.01271
1.06679
1.12293
1.15262
1.10501
1.10026
1.10019
1.10357
1.10386
1.11391
1.13412
1.14147
1.10496
1.06675
1.06433
1.07534
1.07407
1.0694
1.05088
1.03691
1.02823
1.01249
1.00724
1.01715
1.0208
1.02462
1.0362
1.05177
1.05751
1.05168
1.06678
1.04643
1.08488
1.18201
1.08192
1.06764
1.09227
1.02644
1.0242
1.06337
1.00973
0.988795
1.0259
1.08041
1.07071
1.05973
1.05101
1.02272
1.00988
1.00745
1.02043
1.03577
1.0316
1.03987
1.09998
1.16077
1.15741
1.10784
1.06311
1.10712
1.0672
1.04999
1.12176
1.09139
1.09244
1.01841
1.1279
1.23125
1.08333
1.06108
1.04323
1.18566
1.33721
1.1819
1.12327
1.08253
1.06751
1.08964
1.06652
1.1356
1.18147
1.17991
1.15219
1.13013
1.08686
1.17159
1.1725
1.1743
1.17429
1.17451
1.17434
1.17304
1.17662
1.1827
1.17942
1.18377
1.18784
1.19717
1.19105
1.19022
1.18269
1.18113
1.1861
1.1812
1.1765
1.17379
1.16997
1.16722
1.16695
1.16846
1.17282
1.17715
1.18202
1.18567
1.18935
1.19266
1.19888
1.20683
1.21395
1.21592
1.21215
1.20283
1.1967
1.19694
1.19726
1.19334
1.19282
1.19535
1.19136
1.17458
1.15244
1.13729
1.13122
1.1274
1.12421
1.11839
1.113
1.11267
1.11244
1.10527
1.10427
1.11467
1.12017
1.11409
1.10003
1.09051
1.08936
1.09477
1.09896
1.10072
1.10132
1.09858
1.09849
1.09556
1.08956
1.08759
1.08165
1.08058
1.06875
1.06339
1.05378
1.04554
1.04667
1.04363
1.04828
1.04686
1.05347
1.07209
1.07787
1.09617
1.09033
1.07526
1.06444
1.06374
1.04802
1.03369
1.0327
1.04448
1.05646
1.02159
1.00433
1.04851
1.11478
1.15633
1.12178
1.09339
1.10821
1.10903
1.09969
1.09486
1.12
1.14059
1.12079
1.08854
1.07753
1.07594
1.07334
1.07521
1.07202
1.06669
1.05101
1.03115
1.0152
1.01433
1.03041
1.03911
1.04755
1.04103
1.0378
1.05955
1.06271
1.02714
1.05577
1.18246
1.11561
1.06883
1.09068
1.03654
1.02058
1.06764
1.03318
0.968099
0.960749
1.00366
1.02821
1.03816
1.02862
1.00819
1.00475
1.01442
1.04448
1.07004
1.06961
1.07205
1.10277
1.14308
1.17182
1.13057
1.11194
1.17132
1.06389
1.05559
1.11303
1.085
1.08189
1.04192
1.12274
1.21831
1.07553
1.05834
1.09176
1.24951
1.32048
1.15225
1.10105
1.07466
1.05376
1.07631
1.08789
1.1598
1.15963
1.15806
1.12512
1.1464
1.14192
1.16908
1.16912
1.16939
1.16925
1.16975
1.17289
1.17683
1.18619
1.19293
1.19341
1.18346
1.17673
1.18728
1.19239
1.19398
1.18551
1.17382
1.17805
1.18123
1.17745
1.1737
1.17061
1.16831
1.16868
1.17047
1.17494
1.18148
1.18837
1.19412
1.19694
1.196
1.19585
1.19666
1.19865
1.20186
1.20433
1.2041
1.20268
1.20168
1.20054
1.20017
1.196
1.1911
1.19433
1.19567
1.17959
1.15487
1.14091
1.13313
1.12829
1.12534
1.12245
1.1179
1.11894
1.11696
1.10413
1.10114
1.10952
1.11696
1.11318
1.11012
1.11584
1.1218
1.12618
1.12732
1.12545
1.12236
1.11966
1.11515
1.10662
1.09673
1.0879
1.08084
1.07718
1.06448
1.0672
1.05664
1.06454
1.06453
1.05909
1.05519
1.03551
1.04602
1.05808
1.075
1.09368
1.09998
1.07074
1.06252
1.06875
1.05924
1.04395
1.03081
1.06235
1.04711
1.01195
1.02253
1.09945
1.14936
1.14468
1.09887
1.10701
1.11413
1.10421
1.091
1.0982
1.12228
1.12648
1.1058
1.09424
1.08136
1.0826
1.087
1.08091
1.07152
1.06157
1.03919
1.0274
1.01806
1.02527
1.0249
1.02486
1.01499
1.02654
1.0473
1.10246
1.07568
1.04803
1.16599
1.16589
1.09263
1.10026
1.05926
1.04344
1.08053
1.05883
0.98507
0.957102
0.973092
0.993337
1.00392
1.01093
1.01051
1.0055
1.02874
1.0821
1.09928
1.11287
1.11117
1.12815
1.18677
1.18086
1.13768
1.1653
1.20945
1.06669
1.05468
1.10446
1.0774
1.0707
1.06382
1.11396
1.20584
1.07081
1.05674
1.13772
1.30401
1.30184
1.13318
1.07641
1.06629
1.05467
1.06064
1.1124
1.19549
1.15782
1.14068
1.09652
1.15535
1.13796
1.16636
1.1662
1.16792
1.17055
1.17223
1.17467
1.17903
1.18654
1.18568
1.18531
1.18334
1.17699
1.18163
1.18826
1.19384
1.19201
1.17928
1.17187
1.17324
1.17434
1.17338
1.17183
1.16999
1.16967
1.17145
1.17477
1.1807
1.18745
1.19448
1.20028
1.20353
1.20437
1.20472
1.20559
1.20546
1.20601
1.20582
1.20272
1.20184
1.2014
1.19887
1.20111
1.203
1.19045
1.18502
1.1966
1.18904
1.16654
1.14865
1.13911
1.12853
1.12235
1.11841
1.11177
1.11266
1.11166
1.10626
1.10791
1.11243
1.11735
1.12345
1.13164
1.1337
1.13284
1.13257
1.13159
1.13175
1.13751
1.13564
1.13862
1.1274
1.11687
1.0955
1.08853
1.07332
1.06911
1.05961
1.05386
1.07494
1.07187
1.07494
1.05967
1.03442
1.04176
1.06155
1.0674
1.09883
1.0991
1.07392
1.06573
1.06439
1.06432
1.03333
1.05311
1.06462
1.03509
1.00735
1.07267
1.1411
1.15191
1.11792
1.10831
1.11584
1.1045
1.09349
1.09051
1.10072
1.11485
1.11434
1.10754
1.09459
1.09269
1.08657
1.07029
1.04855
1.04556
1.03669
1.03366
1.01707
1.01363
1.01704
1.01548
1.0043
1.027
1.01268
1.07986
1.05203
1.03429
1.14538
1.17255
1.08675
1.10249
1.07661
1.06767
1.09891
1.08251
1.01749
0.973999
0.979527
0.998193
1.01877
1.0303
1.02929
1.03023
1.06753
1.1111
1.12637
1.17055
1.11843
1.08085
1.18237
1.19063
1.1384
1.19239
1.21808
1.08553
1.06931
1.09539
1.07087
1.06824
1.08554
1.11386
1.19838
1.07247
1.05481
1.17806
1.3444
1.27975
1.1295
1.0641
1.05948
1.06648
1.0593
1.12692
1.2085
1.14568
1.14134
1.09029
1.15336
1.11199
1.16365
1.16454
1.16575
1.1678
1.16929
1.17195
1.17752
1.1873
1.18291
1.17189
1.17276
1.17305
1.17813
1.18492
1.19072
1.19344
1.18684
1.17767
1.17275
1.17097
1.17047
1.17035
1.17005
1.16921
1.16942
1.16955
1.17178
1.17515
1.18049
1.18614
1.19209
1.19635
1.19899
1.20084
1.20086
1.20159
1.20389
1.2052
1.20293
1.19934
1.20213
1.19918
1.19564
1.20494
1.1998
1.18375
1.18424
1.19578
1.1857
1.16362
1.14782
1.13468
1.12543
1.11982
1.11661
1.11484
1.11118
1.10915
1.11382
1.12414
1.13321
1.13776
1.13558
1.12729
1.11862
1.11624
1.11503
1.1207
1.12594
1.13488
1.14091
1.13992
1.12921
1.11006
1.10312
1.08191
1.08297
1.05404
1.05758