/*--------------------------------*- C++ -*----------------------------------*\
| =========                 |                                                 |
| \\      /  F ield         | OpenFOAM: The Open Source CFD Toolbox           |
|  \\    /   O peration     | Version:  dev                                   |
|   \\  /    A nd           | Web:      http://www.openfoam.org               |
|    \\/     M anipulation  |                                                 |
\*---------------------------------------------------------------------------*/
FoamFile
{
    version     2.0;
    format      ascii;
    class       volScalarField;
    object      T;
    location    "9.138";
}
// * * * * * * * * * * * * * * * * * * * * * * * * * * * * * * * * * * * * * //

dimensions      [0 0 0 1 0 0 0];

internalField   nonuniform List<scalar> 
12225
(
298.647
297.32
297.447
297.656
297.771
298.061
298.239
298.549
298.745
299.013
299.242
299.586
299.787
300.028
300.139
300.886
300.455
300.269
297.403
295.82
296.071
296.062
296.225
296.189
296.578
296.637
297.165
297.26
297.677
298.156
298.615
298.715
298.643
299.978
300.291
299.983
297.404
295.801
296.078
295.91
296.046
295.867
296.076
296.19
296.54
296.724
296.672
297.718
297.976
298.074
297.502
298.911
299.333
299.601
297.493
295.848
296.072
295.928
295.94
296.032
295.776
296.257
296.229
296.645
296.222
297.479
297.466
298.243
297.235
298.583
299.181
299.335
297.328
295.947
295.944
295.795
295.818
296.097
295.869
296.431
296.325
296.387
296.557
297.429
297.353
297.853
297.914
298.763
299.065
299.212
297.388
295.883
295.978
295.726
295.94
295.828
295.833
296.289
295.989
296.492
296.915
297.263
297.3
297.666
297.94
298.678
298.871
299.308
296.951
295.989
296.276
296.416
295.847
295.557
295.518
296.428
296.293
297.11
296.821
296.613
296.888
297.819
298.185
298.461
298.806
299.451
296.647
296.291
296.114
296.544
295.608
295.585
296.184
296.747
296.255
296.073
296.594
296.745
297.101
297.78
298.176
298.074
298.711
299.028
296.541
296.384
295.629
296.29
295.501
295.683
296.218
296.415
296.059
296.098
296.765
297.256
297.245
297.56
297.634
297.748
297.998
298.747
296.51
296.215
295.242
296.071
295.393
295.819
295.659
296.066
296.018
296.897
297.046
296.973
297.05
297.565
297.582
297.69
298.225
298.93
296.706
296.104
295.326
296.063
295.347
295.833
295.281
295.879
296.376
297.138
296.949
296.834
296.941
297.411
297.669
297.924
298.339
298.772
296.649
295.909
295.472
295.918
295.371
295.731
295.368
295.891
296.49
296.983
296.899
296.813
296.759
297.187
297.818
298.209
298.527
298.814
296.466
295.677
295.488
295.703
295.342
295.644
295.551
296.02
296.51
296.982
296.896
296.926
297.079
297.372
297.938
298.379
298.632
299.021
296.488
295.458
295.441
295.486
295.371
295.609
295.788
296.073
296.438
296.847
296.766
296.992
297.376
297.664
298.147
298.593
298.867
299.199
296.116
295.056
295.219
295.322
295.418
295.596
295.755
295.959
296.3
296.728
296.805
297.173
297.575
297.852
298.358
298.709
298.925
299.327
295.785
294.615
294.886
295.048
295.234
295.369
295.584
295.793
296.155
296.577
296.696
297.183
297.545
297.847
298.363
298.634
298.927
299.327
295.369
294.282
294.589
294.716
294.881
295.019
295.261
295.497
295.859
296.204
296.442
296.964
297.281
297.658
298.122
298.371
298.727
299.048
294.731
293.811
294.129
294.235
294.395
294.554
294.803
295.099
295.39
295.707
296.085
296.46
296.803
297.218
297.546
297.873
298.215
298.475
294.228
293.34
293.6
293.719
293.851
293.967
294.249
294.653
294.787
295.186
295.523
295.737
296.216
296.421
296.801
297.129
297.394
297.728
293.769
292.85
293.177
293.347
293.425
293.465
293.712
294.093
294.104
294.633
294.756
295.081
295.55
295.54
296.173
296.194
296.623
296.907
293.462
292.491
292.943
292.926
292.924
293.027
293.153
293.501
293.559
294
294.059
294.561
294.801
294.894
295.534
295.34
296.015
296.001
293.119
292.21
292.837
292.495
292.507
292.834
292.633
293.046
293.275
293.338
293.693
294.027
294.162
294.48
294.798
294.847
295.306
295.352
292.851
292.067
292.505
292.064
292.216
292.633
292.188
292.797
292.984
292.798
293.53
293.368
293.733
294.022
294.076
294.561
294.526
295.017
292.787
291.972
292.063
291.927
292.162
292.232
292.018
292.616
292.528
292.518
293.244
292.821
293.436
293.642
293.529
294.333
293.985
294.645
292.688
291.874
291.911
291.866
291.968
291.888
292.036
292.321
292.281
292.536
292.796
292.759
293.219
293.341
293.444
293.978
293.82
294.332
292.513
291.7
291.839
291.768
291.824
291.838
291.956
292.093
292.233
292.446
292.554
292.826
292.984
293.161
293.44
293.531
293.815
293.978
292.487
291.698
291.864
291.801
291.753
291.802
291.826
291.963
292.096
292.228
292.446
292.609
292.815
293.046
293.214
293.454
293.635
293.814
292.482
291.626
291.76
291.734
291.709
291.745
291.815
291.924
292.044
292.198
292.359
292.547
292.733
292.934
293.121
293.313
293.483
293.658
292.419
291.529
291.696
291.703
291.71
291.768
291.864
292
292.163
292.352
292.549
292.76
292.968
293.187
293.384
293.603
293.776
293.997
292.933
291.949
292.139
292.262
292.384
292.539
292.717
292.921
293.14
293.368
293.6
293.837
294.072
294.307
294.536
294.764
294.99
295.217
296.776
291.799
292.183
291.653
291.127
290.722
290.349
290.135
289.983
289.835
289.831
289.728
289.664
289.657
289.68
289.369
289
289.239
288.417
288.47
288.92
288.189
288.586
289.178
289.061
289.487
290.544
291.249
291.338
290.884
289.857
288.451
287.722
288.364
291.197
294.314
296.232
297.469
298.674
299.763
300.361
300.375
300.07
299.719
299.424
299.174
298.952
298.739
298.527
298.313
298.088
297.852
297.613
297.37
297.112
296.844
296.553
296.219
295.856
295.456
295.015
294.528
294.009
293.479
292.967
292.497
292.077
291.641
291.134
290.471
289.633
288.796
287.98
287.234
286.532
285.79
284.962
284.128
283.383
282.712
282.029
281.323
280.594
279.784
278.958
278.124
277.412
276.745
276.445
276.427
276.12
275.322
273.947
272.435
270.949
270.483
270.147
269.949
268.74
266.64
265.545
264.826
265.898
269.507
268.132
262.876
259.299
259.69
265.053
272.989
277.747
279.667
280.288
279.036
279.844
280.861
279.72
278.586
277.798
277.387
277.662
278.202
277.545
277.573
277.372
276.216
273.269
273.489
272.778
272.846
273.183
274.46
276.198
275.834
274.673
273.778
272.435
271.788
271.044
271.132
270.454
269.129
267.352
266.778
264.42
263.13
262.678
262.624
261.591
259.81
257.977
256.15
253.891
249.953
246.371
246.369
247.727
247.995
245.757
243.459
237.196
234.07
249.563
246.473
244.023
251.203
254.681
253.506
252.426
254.28
258.2
261.4
264.026
266.49
268.409
269.787
270.982
272.018
273.209
274.223
298.476
294.785
294.438
292.397
290.775
289.942
289.258
289.03
289.353
289.527
290.138
290.738
290.277
292.023
290.612
290.45
291.357
287.771
289.383
287.666
284.731
286.935
284.41
281.223
283.038
284.188
282.499
279.238
275.449
273.57
278.027
285.956
284.491
274.77
276.158
290.185
298.648
298.644
298.194
298.26
298.134
297.956
297.76
297.583
297.416
297.207
296.95
296.643
296.268
295.824
295.326
294.79
294.231
293.662
293.072
292.463
291.827
291.157
290.452
289.722
288.923
288.024
287.056
286.097
285.316
284.704
284.183
283.664
283.046
282.182
281.072
279.915
278.735
277.71
277.015
276.662
276.488
276.372
276.418
276.475
276.256
275.695
275.218
275.433
274.851
273.627
272.487
268.777
265.901
263.333
262.311
261.087
259.38
257.789
256.443
256.155
256.4
256.781
257.171
255.73
255.195
255.608
249.603
248.813
258.033
252.07
235.392
234.084
252.816
270.939
276.249
271.404
275.195
286.847
278.762
271.418
273.344
270.013
266.928
267.799
269.135
270.281
270.101
268.885
268.943
268.993
268.996
269.328
265.651
264.674
263.025
261.064
263.374
265.702
265.296
264.477
261.903
259.525
257.019
256.67
256.17
253.982
249.019
248.072
244.07
241.092
240.317
240.47
240.031
238.737
236.904
233.52
232.566
228.833
221.756
221.082
221.673
224.288
223.126
219.537
211.808
227.479
299.76
291.351
233.504
226.708
231.913
227.432
221.758
223.837
232.261
240.678
247.803
254.067
258.106
260.61
262.514
263.57
265.066
266.301
300.791
298.564
296.135
292.112
290.059
289.595
289.502
290.227
291.581
293.499
293.855
295.704
296.882
294.656
297.28
294.645
293.869
295.421
291.959
293.816
288.722
283.855
288.453
286.954
280.453
277.63
278.474
279.361
276.765
272.067
272.186
281.333
291.764
294.934
295.545
297.517
298.379
298.491
298.776
298.989
299.165
299.386
299.499
299.539
299.556
299.511
299.383
299.156
298.845
298.441
297.874
297.188
296.392
295.52
294.635
293.766
293.016
292.331
291.629
290.96
290.152
289.055
287.595
285.994
284.692
283.661
282.858
282.742
283.608
284.48
283.988
282.519
281.202
280.201
279.894
280.56
281.832
282.783
283.892
285.083
286.178
286.473
286.785
289.087
289.783
289.14
288.623
283.284
277.76
269.15
263.901
259.307
256.254
255.335
256.757
256.85
255.958
255.464
255.6
257.334
260.906
260.349
256.669
259.538
262.69
248.936
240.14
248.064
264.991
274.263
274.037
276.14
280.537
275.6
271.46
273.773
263.818
260.894
266.255
263.32
261.725
265.762
266.837
267.22
269.444
276.919
288.055
281.461
275.741
275.934
272.767
264.807
258.839
258.162
257.831
258.616
259.673
258.345
255.992
256.829
255.577
250.079
245.464
241.131
235.292
237.403
240.656
235.148
230.837
228.414
227.05
223.17
222.476
218.301
216.077
230.76
229.17
217.218
214.716
209.269
206.952
268.667
358.138
285.38
272.726
227.666
221.833
212.426
206.61
211.798
222.999
234.234
244.277
251.013
254.356
256.777
257.517
259.07
262.354
264.684
301.832
298.82
294.433
290.272
289.797
290.477
291.327
293.288
294.928
295.971
297.554
297.237
296.85
296.412
294.97
293.438
292.876
293.992
292.318
293.738
297.098
287.245
278.521
284.188
286.961
277.573
269.93
270.842
279.403
289.061
293.072
294.481
296.597
297.798
298.711
299.412
299.962
300.33
300.557
300.705
300.686
300.566
300.408
300.256
300.116
299.986
299.997
300.092
300.219
300.322
300.363
300.253
299.853
299.261
298.53
297.648
296.822
296.129
295.591
295.161
294.764
294.199
293.262
291.901
290.204
288.217
285.966
284.043
283.836
285.45
287.301
287.845
287.218
286.48
286.17
286.165
286.464
286.176
286.22
286.982
288.706
290.153
290.527
292.328
294.078
294.413
294.427
291.308
286.81
279.42
275.027
269.864
264.444
262.728
267.113
270.985
268.88
261.509
256.6
258.03
260.583
256.716
257.831
266.747
259.794
244.099
246.801
261.42
273.037
273.314
272.631
279.184
278.762
273.444
274.217
266.827
266.297
271.459
260.76
258.127
265.398
266.703
267.294
273.583
280.581
289.539
293.224
289.144
286.187
288.381
290.455
280.08
264.364
256.65
254.683
253.512
257.125
257.523
253.832
258.68
260.873
250.513
249.711
240.153
232.56
250.803
262.461
242.517
231.523
227.805
221.697
219.79
223.939
211.356
213.71
251.439
256.79
228.673
216.073
204.994
199.598
268.059
254.545
198.582
332.132
243.332
218.8
202.181
200.594
211.699
224.115
235.147
244.195
248.881
251.381
253.05
253.93
256.682
260.689
264.228
301.848
297.904
293.259
290.764
291.494
292.151
293.341
294.812
295.385
296.035
296.395
296.158
294.935
291.958
290.532
289.031
287.773
290.08
289.826
288.051
290.401
293.522
290.36
279.873
272.927
275.879
285.317
291.488
294.168
296.348
297.818
298.658
299.461
300.212
300.719
301.006
301.029
300.955
300.661
300.249
299.734
299.203
298.717
298.136
297.629
297.26
297.086
297.123
297.369
297.918
298.594
299.262
299.865
300.259
300.47
300.41
300.048
299.427
298.601
297.514
296.406
295.352
294.353
293.568
292.626
291.168
288.922
286.123
284.291
284.189
285.545
287.088
287.656
287.917
288.576
289.013
288.207
287.155
286.207
285.876
286.838
289.106
289.604
290.568
292.881
295.559
296.86
294.096
287.541
279.99
276.458
272.716
270.791
273.476
278.439
277.538
271.8
269.078
269.325
271.047
272.272
268.075
263.523
258.503
248.022
246.523
257.077
267.702
271.653
270.443
274.964
282.163
277.475
276.484
277.317
272.834
278.051
273.409
266.547
270.906
267.336
267.428
277.31
284.702
285.197
283.053
276.696
284.649
286.672
286.013
296.196
288.097
271.987
260.049
257.892
255.537
260.024
259.198
252.107
259.417
265.977
250.043
255.644
244.251
228.867
260.86
284.463
254.921
236.123
239.21
222.395
219.843
235.325
210.66
211.448
245.528
255.091
246.426
227.206
207.762
191.98
268.157
224.499
191.761
315.776
261.165
220.299
196.477
197.987
213.851
227.173
237.561
245.072
248.535
250.73
250.463
249.477
249.727
254.517
258.264
301.648
296.967
292.138
291.239
292.5
293.483
294.381
294.712
294.905
295.675
295.144
291.484
287.992
285.526
284.035
284.011
287.49
293.244
296.961
298.359
295.346
286.08
276.178
276.076
285.214
293.075
296.214
297.639
298.236
298.604
299.234
299.857
300.411
300.922
301.201
301.291
301.075
300.601
300.023
299.311
298.596
297.875
297.107
296.393
295.705
295.161
294.675
294.343
294.272
294.44
294.929
295.691
296.566
297.367
298.127
298.833
299.384
299.706
299.836
299.392
298.461
297.38
296.143
295.308
294.741
294.086
292.998
290.997
289.106
288.193
289.058
291.286
292.943
292.476
291.182
291.221
290.716
290.388
289.494
288.473
287.837
288.508
288.097
286.998
287.398
291.01
296.663
298.853
293.802
284.454
280.318
278.757
278.94
278.528
274.573
268.65
267.515
274.184
277.858
272.089
264.649
259.126
254.506
249.281
248.291
256.426
263.759
265.438
266.346
271.035
278.55
281.34
275.878
281.668
282.848
281.151
286.505
282.195
281.831
280.427
269.577
273.841
282.692
282.34
278.496
275.157
271.613
279.389
287.362
283.762
291.63
288.019
274.169
261.53
265.029
263.163
264.716
259.891
251.468
261.78
269.418
249.59
261.09
251.813
226.877
253.689
282.316
264.989
240.352
253.204
227.868
222.458
248.057
218.188
213.687
229.24
231.549
245.699
237.91
217.196
184.688
257.846
230.121
228.775
274.471
284.418
227.358
194.76
196.59
215.218
229.87
239.888
246.403
250.065
253.287
253.335
252.059
250.678
256.133
257.343
301.218
295.358
291.916
294.175
295.104
294.771
294.298
294.318
294.55
294.389
292.764
288.637
285.752
284.25
283.896
285.419
288.265
290.316
290.399
287.401
280.776
277.632
282.661
291.341
296.14
298.054
297.829
297.814
298.265
299.188
300.335
301.421
302.46
302.757
302.69
301.91
300.841
299.438
297.981
296.632
295.326
294.159
293.108
292.232
291.519
290.904
290.47
290.23
290.158
290.369
290.82
291.61
292.705
293.948
295.123
296.25
297.212
297.656
297.942
298.093
297.889
297.666
297.342
297.01
296.792
296.78
297.317
297.703
297.468
296.048
294.499
293.946
294.228
293.72
292.503
292.079
291.786
291.447
291.634
291.65
290.699
289.898
290.07
288.106
285.241
282.701
286.76
292.924
294.865
289.957
287.02
285.34
280.139
271.754
267.675
270.161
275.921
278.315
271.253
263.785
260.659
256.942
253.398
252.442
257.72
264.679
264.672
261.93
265.936
278.398
283.944
278.321
276.814
285.895
283.095
280.869
281.878
276.869
279.747
281.138
278.201
284.216
283.266
276.511
276.196
280.994
277.368
272.378
290.316
289.111
286.452
286.63
273.983
266.284
284.372
277.533
265.795
257.353
251.557
263.884
271.702
257.587
257.957
266.105
236.31
243.805
266.073
265.073
244.984
262.049
232.744
224.41
250.885
230.79
222.398
222.889
222.398
236.869
240.09
249.78
179.079
248.743
228.929
241.8
248.128
290.869
234.538
194.627
196.03
216.541
232.498
242.034
247.818
252.158
256.682
257.771
258.735
257.786
260.347
258.494
300.773
294.795
294.061
296.756
296.084
296.689
296.632
295.973
295.648
296.905
297.374
292.871
288.238
285.218
282.518
281.722
281.856
282.71
283.784
283.309
284.008
288.766
294.407
296.852
297.579
297.604
297.79
298.82
300.5
302.137
303.454
304.003
303.57
302.157
300.012
297.679
295.339
293.167
291.467
290.141
289.209
288.549
288.135
287.892
287.788
287.703
287.572
287.482
287.34
287.248
287.265
287.476
287.817
288.236
288.782
289.539
290.831
292.76
295.059
296.842
297.605
297.757
297.528
297.142
296.775
296.14
295.122
294.232
293.933
293.948
294.207
293.743
292.442
291.296
291.174
290.83
290.54
290.549
290.714
291.289
291.688
291.601
291.636
291.815
292.041
286.581
285.496
289.597
294.431
291.679
286.473
281.591
274.303
271.787
275.748
280.698
281.907
276.623
264.877
260.63
261.138
259.408
257.971
260.548
265.856
268.122
264.577
259.464
267.745
285.728
285.816
274.322
276.708
283.742
278.922
277.674
275.718
271.235
273.52
272.932
273.208
280.025
277.848
272.429
274.801
287.684
277.299
266.84
283.018
288.555
283.824
283.668
272.947
272.402
316.064
304.96
275.402
255.022
256.486
265.969
257.2
239.563
255.332
292.88
258.507
236.941
253.654
262.669
244.859
267.391
243.428
225.303
243.624
236.798
230.914
224.005
225.133
231.611
257.997
328.956
184.46
229.115
230.872
228.726
235.783
293.434
241.634
196.083
196.986
218.374
234.602
243.573
248.72
254.8
261.216
260.635
261.761
261.096
258.643
253.138
300.476
294.997
296.059
299.378
298.597
297.479
294.65
292.877
292.185
293.305
296.136
295.01
291.778
289.589
286.454
286.326
286.063
286.159
287.72
290.098
292.552
295.852
298.198
298.098
298.36
298.795
300.006
301.79
303.111
303.879
303.147
301.677
299.098
296.568
294.017
292.038
290.673
289.704
289.267
289.102
289.311
289.567
290
290.506
290.911
291.335
291.651
291.707
291.443
290.936
290.531
290.405
290.418
290.291
289.915
289.161
288.184
287.518
287.515
288.255
289.442
290.909
292.553
293.52
293.399
293.008
292.902
292.637
292.321
291.407
290.5
289.913
289.85
289.873
289.54
289.639
289.087
288.913
289.027
288.886
288.389
289.466
290.456
290.002
293.985
294.116
288.722
286.898
293.628
298.411
294.451
291.942
287.786
285.235
283.569
285.147
282.64
271.32
260.622
261.923
264.22
263.547
263.198
266.05
268.537
269.704
269.598
263.22
268.848
287.619
284.64
273.752
277.533
281.184
281.179
285.683
284.809
282.522
285.208
283.347
284.083
290.323
289.805
285.13
278.673
276.468
272.235
267.169
270.109
280.315
282.518
285.564
273.193
275.162
308.966
318.358
307.97
265.021
262.753
271.148
258.463
228.921
274.796
313.895
285.636
237.057
247.179
260.43
243.973
269.173
264.443
234.658
238.829
241.248
235.722
225.976
231.769
226.421
281.353
356.127
212.315
218.787
224.42
226.778
234.986
293.947
248.138
197.519
198.105
219.966
236.153
244.563
248.745
255.73
262.923
259.416
260.338
257.268
253.174
249.805
300.732
295.81
294.706
294.473
294.018
295.39
296.265
296.315
294.328
293.176
296.828
298.917
296.116
295.2
292.074
290.828
291.262
292.429
293.321
294.876
296.442
297.745
297.681
298.245
298.873
300.452
301.953
303.122
303.027
301.937
299.97
297.626
295.254
293.371
291.823
290.752
289.909
289.393
289.27
289.428
289.802
290.302
290.761
291.337
291.88
292.351
293
293.705
294.11
293.799
292.999
292.458
292.684
293.605
294.131
293.549
291.714
289.22
286.987
285.886
285.689
285.873
286.526
287.201
288.216
288.778
289.296
289.163
289.11
289.091
289.551
289.859
289.307
288.651
287.89
286.902
286.327
285.718
285.335
287.244
287.434
287.154
289.916
288.208
289.025
294.952
292.84
284.97
284.883
293.861
297.126
296.874
292.855
288.089
281.545
280.727
277.919
266.901
260.07
265.101
267.51
266.847
266.632
267.025
267.503
270.848
277.143
275.088
273.306
283.615
280.782
274.087
276.08
279.865
286.642
292.382
290.477
289.509
292.651
292.031
296.426
302.776
303.937
298.644
290.442
270.746
277.218
266.181
274.719
284.402
278.79
287.164
264.205
282.779
278.921
288.21
315.202
282.047
267.756
278.335
275.085
250.613
288.112
293.946
282.862
249.043
256.144
259.705
254.059
274.621
278.78
252.563
242.011
250.604
242.485
228.497
242.66
220.92
279.754
298.284
247.918
225.546
215.369
228.928
235.967
289.154
251.012
198.544
200.965
222.922
237.906
244.684
247.969
254.674
259.348
255.17
255.927
250.119
245.48
246.152
302.006
298.31
295.712
298.919
302.307
302.805
301.936
300.623
298.029
294.106
294.373
299
297.751
295.703
295.585
294.777
295.276
295.427
296.622
297.633
298.007
298.198
298.688
299.618
300.779
302.006
302.901
302.508
301.47
299.492
297.096
294.463
292.315
290.752
289.291
288.22
287.481
287.625
288.026
288.786
289.704
290.855
292.06
293.048
293.743
293.933
293.918
294.321
295.313
296.104
295.499
293.889
292.826
294.131
297.166
299.468
298.33
295.097
291.777
289.421
287.617
286.343
285.367
284.515
285.105
285.351
286.127
286.341
286.629
286.739
286.634
286.25
286.737
286.929
286.707
286.608
285.953
286.349
285.239
285.025
287.254
287.025
289.123
290.88
288.371
291.702
295.434
291.774
287.385
288.145
290.848
292.778
290.493
290.318
285.762
282.521
275.602
264.317
260.864
268.644
269.873
269.494
268.983
266.676
264.411
268.143
281.55
288.344
283.412
283.236
280.416
277.824
278.529
283.09
292.193
295.739
295.175
296.695
298.394
296.659
298.788
296.965
297.792
293.429
290.947
281.802
286.28
265.496
284.933
295.132
281.642
290.77
260.89
282.759
292.596
284.93
296.718
289.164
269.684
281.755
289.057
277.097
293.322
284.047
270.155
262.062
270.113
258.857
267.039
281.289
271.702
263.001
250.771
259.194
252.824
233.497
258.064
220.866
262.368
259.94
266.034
232.29
211.864
229.038
236.732
280.688
249.187
197.659
203.909
225.69
239.844
244.371
246.976
254.011
253.471
248.937
248.392
244.358
242.669
246.592
302.511
300.594
302.282
304.097
301.859
300.972
300.521
299.932
300.218
298.614
293.489
294.537
299.849
296.761
297.523
296.373
297.557
297.438
298.348
298.146
299.233
299.778
300.671
301.576
302.533
302.807
302.357
300.691
298.272
295.556
293.229
291.685
290.613
289.445
288.207
287.67
287.966
288.973
289.858
290.694
291.785
293.327
295.165
297.084
298.507
299.223
299.163
298.786
299.02
300.188
301.01
300.122
297.542
296.434
298.059
301.225
301.902
299.239
295.769
293.653
291.978
291.085
290.536
290.13
290.411
289.923
290.164
289.669
289.124
288.445
288.095
288.215
287.759
287.697
286.548
286.572
285.666
284.944
285.222
284.093
283.549
286.001
286.121
289.73
289.47
288.315
291.828
294.554
292.624
290.743
291.739
296.052
296.646
299.524
294.604
287.355
276.376
264.201
261.449
271.346
271.054
270.571
269.432
268.206
265.304
262.92
275.039
291.75
291.124
285.153
282.089
279.915
280.358
286.649
294.645
298.325
302.04
304.33
302.162
299.492
298.469
294.711
297.233
290.751
291.178
301.091
291.453
269.539
268.471
283
279.637
291.679
283.364
287.386
307.242
309.327
295.62
288.378
269.52
280.021
289.211
283.741
294.693
294.491
282.521
275.147
274.239
263.001
273.379
271.673
252.22
261.892
258.394
262.94
256.598
239.056
262.888
223.231
245.544
244.192
267.198
232.311
210.001
231.411
240.319
271.026
242.242
195.86
209.139
228.77
242.03
244.655
246.438
253.788
247.699
241.332
240.906
240.618
245.83
254.341
303.428
302.943
302.478
301.509
301.714
301.766
301.576
301.675
301.594
302.251
302.881
294.53
299.029
300.222
295.751
297.384
299.004
298.632
298.476
299.523
299.888
300.292
300.854
301.387
301.494
301.102
299.92
298.292
296.464
294.822
293.451
291.698
289.468
287.293
286.341
286.934
287.864
288.499
288.362
288.496
289.208
290.754
292.786
295.29
297.46
298.866
299.726
299.944
299.381
298.905
298.894
299.854
300.922
300.515
299.36
300.059
302.042
303.388
302.063
298.1
295.045
294.579
294.905
295.987
296.636
296.912
297.113
296.718
296.618
296.128
296.263
295.605
294.819
295.484
294.294
293.187
291.236
290.173
287.081
286.887
282.893
282.054
281.284
282.994
286.454
286.829
287.341
292.685
292.541
289.856
288.647
290.677
292.153
297.498
297.419
290.665
277.216
264.671
261.062
272.341
272.07
272.58
269.991
268.995
267.154
263.331
266.161
282.196
290.39
286.114
282.187
279.721
279.297
285.777
292.067
295.695
301.111
303.159
299.985
298.876
296.193
291.598
288.114
279.313
280.091
289.046
287.505
280.876
256.245
274.629
276.59
282.519
293.437
291.8
289.811
304.439
297.15
284.267
270.009
278.905
285.417
281.308
283.632
286.151
288.497
283.088
274.944
270.525
271.278
254.978
237.456
249.744
253.571
259.992
252.214
244.078
256.879
228.175
238.236
237.681
261.047
230.456
209.156
235.565
243.605
260.241
232.531
195.257
216.088
232.026
244.16
246.983
246.909
255.207
243.666
233.761
235.476
239.529
250.754
263.569
303.62
303.51
303.107
303.052
301.965
300.979
300.636
299.251
297.885
296.318
298.33
300.932
299.954
300.596
297.232
298.182
298.305
299.247
299.323
299.466
300.258
301.174
301.626
301.695
301.063
299.795
298.047
295.766
293.472
291.41
289.95
288.75
288.182
288.075
288.514
288.663
288.261
287.734
287.244
287.308
288.225
289.553
291.612
295.023
299.06
301.424
301.989
302.199
302.418
302.532
302.043
300.743
300.162
300.278
299.798
298.399
298.278
299.52
301.573
304.012
303.859
301.483
300.278
300.459
299.414
298.996
298.728
297.721
298.547
298.061
298.304
299.25
299.186
300.417
299.698
300.651
297.398
297.163
294.615
293.111
290.425
286.289
283.332
280.675
280.335
284.937
285.449
288.243
291.992
293.464
290.502
288.216
286.838
291.38
298.897
296.192
280.628
266.586
260.383
271.852
272.747
272.874
272.198
272.254
269.83
265.348
264.558
274.308
284.175
284.572
281.904
282.655
284.337
289.74
293.792
296.482
301.227
302.849
300.009
298.947
297.849
294.542
290.303
289.097
290.191
285.241
291.219
281.101
256.594
279.062
283.578
275.632
292.522
293.644
281.091
294.314
301.546
290.736
274.121
274.687
276.165
276.67
282.673
285.024
284.389
279.338
273.131
272.045
268.471
252.029
236.285
234.528
242.808
251.838
240.838
246.481
250.242
232.625
238.137
237.636
254.617
230.164
210.61
239.885
245.868
249.689
221.425
196.641
224.062
236.949
247.228
251.936
248.359
255.678
241.468
233.394
235.491
242.801
249.358
261.105
303.48
303.324
302.834
302.793
302.642
302.604
302.925
302.029
300.373
301.014
299.806
298.745
296.363
297.836
297.668
299.276
299.242
297.968
299.052
299.931
300.357
301.082
301.506
301.308
300.618
299.186
297.76
296.154
294.824
293.448
292.157
290.213
287.918
285.84
284.99
285.426
287.16
288.238
287.773
287.213
287.754
287.504
286.451
286.958
290.578
295.585
298.945
300.036
300.512
300.776
301.724
302.633
302.167
301.587
302.901
302.579
299.154
296.995
297.925
301.071
303.031
302.617
300.301
298.284
296.873
295.779
295.576
294.664
294.498
295.176
294.771
295.432
294.746
296.97
297.55
299.214
300.739
299.444
299.408
297.189
296.716
294.131
288.141
285.716
280.104
280.752
283.986
286.252
285.841
289.595
293.168
293.001
289.326
285.746
295.375
299.99
286.828
269.568
260.509
269.075
275.76
272.02
272.245
274.805
275.9
269.708
265.554
271.231
279.653
282.546
283.097
284.105
283.926
285.054
286.665
291.156
296.9
301.633
302.002
297.274
294.854
292.534
294.51
295.32
288.764
286.796
296.482
290.043
257.862
270.461
283.041
277.087
290.299
295.151
281.394
288.473
307.713
310.891
296.65
287.8
283.112
283.685
288.044
287.924
283.927
274.215
265.53
263.493
261.102
251.937
241.06
232.634
238.856
242.089
228.19
248.101
249.835
235.545
240.553
241.108
249.989
232.074
213.764
242.953
247.539
239.798
211.221
200.266
231.328
242.99
250.387
256.813
252.614
252.17
237.921
239.236
241.313
250.144
247.363
249.996
303.312
303.373
303.285
303.315
303.181
302.38
301.413
299.048
297.167
296.934
299.211
300.709
297.885
296.72
296.286
298.34
300.871
299.356
298.488
299.341
300.095
300.684
301.035
300.672
299.944
298.503
296.592
294.585
292.872
291.816
291.643
291.205
290.493
289.525
288.324
287.358
287.104
287.059
286.851
286.68
286.305
286.827
287.639
286.377
285.494
288.954
294.727
297.85
299.348
300.107
300.338
300.532
301.202
300.306
300.152
302.998
303.232
300.312
297.62
298.057
298.35
296.133
293.639
291.556
290.356
289.956
289.866
289.647
289.902
291.147
292.868
294.325
295.413
295.431
298.066
296.358
298.394
295.351
294.29
294.923
295.1
299.955
296.332
292.121
286.734
281.067
278.697
285.672
287.318
285.099
287.228
291.065
294.408
285.357
289.42
299.223
295.663
274.544
263.072
264.862
275.942
273.628
272.263
275.109
278.566
276.584
270.878
270.725
276.454
279.654
283.147
283.022
282.134
283.986
286.724
289.573
295.896
299.292
302.155
300.167
300.297
300.335
303.214
299.429
294.026
277.974
283.955
292.651
263.156
260.268
277.658
275.546
285.05
289.23
278.827
282.37
302.302
311.619
306.418
298.921
294.177
290.469
288.78
288.958
281.649
265.908
259.402
254.499
252.585
247.185
233.019
231.609
238.627
232.122
221.327
248.78
251.28
238.469
243.467
244.905
246.159
235.089
217.152
245.472
249.179
231.473
203.533
204.505
236.946
250.123
253.834
258.372
258.046
247.981
232.183
241.233
246.579
258.461
247.067
252.829
303.107
303.235
302.787
302.102
301.662
301.007
299.88
297.935
297.931
297.789
298.359
300.034
298.685
296.987
295.589
296.161
299.304
300.722
300.042
299.634
299.756
300.005
300.297
300.123
299.399
298.22
296.389
294.365
292.331
290.637
289.613
289.122
288.709
288.125
287.712
287.161
286.8
287.167
286.991
286.611
286.871
286.003
284.918
287.422
288.565
285.307
286.458
291.604
295.799
297.704
299.886
300.989
301.443
302.655
301.882
301.61
302.474
301.33
299.384
297.531
295.305
292.334
290.865
290.174
289.426
288.931
288.146
285.891
285.504
283.8
285.608
287.31
292.018
293.094
296.308
296.726
298.412
299.398
292.65
292.506
290.811
294.005
300.523
297.811
291.47
289.178
280.21
279.47
285.488
287.202
287.112
286.803
295.013
289.163
285.967
294.159
301.779
282.793
266.102
264.312
272.697
274.906
273.268
276.46
279.456
280.355
277.758
274.614
275.441
277.599
281.224
281.887
283.688
288.266
294.474
295.452
298.046
298.887
303.768
304.898
303.799
304.171
307.563
300.388
304.885
285.389
291.751
297.508
268.988
260.376
280.454
276.521
281.982
283.92
275.053
277.265
293.599
306.758
305.177
298.654
291.239
286.182
284.684
283.433
272.497
259.658
254.238
242.604
251.11
259.018
235.319
230.877
239.832
227.838
220.52
246.152
249.151
241.645
246.405
246.931
242.683
236.567
219.91
246.699
251.004
224.93
198.531
209.34
239.453
255.001
257.184
257.256
260.451
246.278
230.907
245.372
248.116
261.86
249.155
260.618
302.787
302.637
302.255
301.674
301.256
300.562
299.111
296.736
297.95
300.446
300.14
300.241
298.902
297.152
295.678
295.102
296.91
299.127
300.003
300.171
300.094
299.957
299.873
299.883
299.574
299.245
298.347
297.129
295.438
293.675
291.911
290.551
289.617
288.837
288.539
288.127
287.231
286.601
286.78
287.288
286.278
286.566
287.111
284.503
285.022
288.466
288.267
285.01
286.739
291.728
295.313
298.131
300.038
301.052
301.352
301.186
301.634
301.629
299.767
296.377
293.284
291.189
290.74
292.043
293.592
293.546
293.184
290.997
288.831
285.777
283.319
282.59
284.158
288.28
289.206
294.16
292.932
300.068
298.569
294.756
296.028
291.819
296.179
302.442
294.462
292.091
287.389
280.55
281.124
284.415
288.399
285.343
291.357
292.459
287.347
291.777
302.394
294.146