/*--------------------------------*- C++ -*----------------------------------*\
| =========                 |                                                 |
| \\      /  F ield         | OpenFOAM: The Open Source CFD Toolbox           |
|  \\    /   O peration     | Version:  dev                                   |
|   \\  /    A nd           | Web:      http://www.openfoam.org               |
|    \\/     M anipulation  |                                                 |
\*---------------------------------------------------------------------------*/
FoamFile
{
    version     2.0;
    format      ascii;
    class       volVectorField;
    object      U;
    location    "9.138";
}
// * * * * * * * * * * * * * * * * * * * * * * * * * * * * * * * * * * * * * //

dimensions      [0 1 -1 0 0 0 0];

internalField   nonuniform List<vector> 
12225
(
(6.39236 0.370332 0)
(2.81485 0.125986 0)
(-0.0361565 -0.0299112 0)
(-1.43707 -0.0583809 0)
(-3.31765 -0.0229556 0)
(-3.75587 -0.054709 0)
(-5.83011 0.0353297 0)
(-5.86527 -0.026581 0)
(-8.03157 0.0529102 0)
(-8.16548 -0.00842568 0)
(-10.9962 0.18315 0)
(-9.4529 -0.116572 0)
(-13.4817 0.280734 0)
(-13.3147 0.171684 0)
(-16.1783 0.120896 0)
(-17.3574 1.08084 0)
(-15.5538 0.914697 0)
(-29.2239 9.74185 0)
(8.83459 0.67214 0)
(7.97953 0.536845 0)
(4.71533 0.169383 0)
(4.16297 -0.0138669 0)
(0.468126 -0.120049 0)
(1.82032 -0.203373 0)
(-2.54071 -0.0750227 0)
(0.322324 -0.16986 0)
(-5.03677 0.0732742 0)
(-1.52773 -0.0516243 0)
(-8.41764 0.107677 0)
(-0.883969 -0.252586 0)
(-11.9722 1.15875 0)
(-3.72759 -0.365183 0)
(-16.6157 1.23772 0)
(-3.31217 -0.974064 0)
(-10.6608 0.784127 0)
(-28.5276 6.43616 0)
(8.81768 0.19099 0)
(10.4482 0.34465 0)
(6.70765 0.0904913 0)
(8.45568 -0.0655358 0)
(2.78413 -0.143951 0)
(6.62157 -0.291563 0)
(-0.654811 -0.109421 0)
(5.86045 -0.243295 0)
(-3.0762 0.0165983 0)
(3.21936 -0.048417 0)
(-4.62197 -0.181662 0)
(3.04717 -0.302385 0)
(-4.4877 1.30014 0)
(-3.63853 0.913168 0)
(-9.32329 -0.0656769 0)
(-1.1563 -2.13496 0)
(-17.4338 8.76051 0)
(-10.8975 5.29542 0)
(7.48741 -0.323398 0)
(11.7137 0.0633408 0)
(5.6391 -0.226015 0)
(11.1387 -0.0866606 0)
(2.94423 -0.454002 0)
(10.0131 -0.236607 0)
(-0.0894452 -0.573511 0)
(9.32497 -0.588051 0)
(-0.340121 0.584998 0)
(5.38541 -0.847691 0)
(-2.43231 0.115474 0)
(6.62669 -2.20494 0)
(-1.42893 3.40772 0)
(2.78811 0.586199 0)
(-4.90178 -0.460085 0)
(-6.76842 1.52164 0)
(-2.55254 5.39416 0)
(-8.06444 6.35947 0)
(5.08698 -0.45591 0)
(13.8369 -0.324579 0)
(3.56596 -0.730772 0)
(11.7626 -0.552492 0)
(4.289 -0.546607 0)
(9.47469 -0.709293 0)
(2.74628 -0.240125 0)
(8.72382 -1.73479 0)
(3.46622 0.850648 0)
(4.52142 -0.531279 0)
(1.03712 -0.750883 0)
(6.20491 -2.99829 0)
(-3.04955 3.86232 0)
(9.706 1.31433 0)
(-5.15494 3.41574 0)
(0.650411 -2.65975 0)
(-4.19576 6.7633 0)
(-6.15067 13.9353 0)
(5.6817 -1.02743 0)
(12.7642 -0.697331 0)
(4.91394 -0.821048 0)
(9.8326 -1.71242 0)
(6.06519 -0.70606 0)
(5.86442 -0.841514 0)
(5.68422 -1.5483 0)
(6.04644 -1.89598 0)
(1.8131 1.53162 0)
(4.03714 -0.624897 0)
(5.35284 -1.59358 0)
(1.02917 -1.24159 0)
(-2.77935 2.11934 0)
(5.71825 -0.531064 0)
(-1.26685 5.212 0)
(-1.99837 -1.41249 0)
(-4.12457 7.87149 0)
(-6.23475 8.65055 0)
(5.96164 -1.03349 0)
(10.7843 -1.64148 0)
(8.41326 -1.0903 0)
(9.35691 -2.11217 0)
(6.4704 -0.253471 0)
(5.39461 -2.11313 0)
(5.54615 -0.713554 0)
(0.0499634 -1.4952 0)
(4.70254 0.541281 0)
(2.75002 -3.46277 0)
(3.93906 0.82472 0)
(-3.02517 -1.43137 0)
(2.44765 1.52202 0)
(-5.29855 -2.02718 0)
(4.43457 7.38518 0)
(-3.36095 -2.54614 0)
(-3.16539 10.0957 0)
(4.04874 8.72796 0)
(6.23431 -0.970626 0)
(11.0393 -2.93869 0)
(7.88138 -1.74512 0)
(8.86333 -2.45791 0)
(7.75972 -0.368684 0)
(4.85139 -1.83754 0)
(5.80103 -0.478636 0)
(2.51309 -2.7146 0)
(6.16463 -0.664444 0)
(0.223 -1.92052 0)
(3.54419 0.573904 0)
(0.363145 -1.32866 0)
(1.5908 1.60109 0)
(-1.54455 -1.93569 0)
(4.30973 3.96867 0)
(-0.400034 2.92337 0)
(-2.13462 3.73031 0)
(3.24926 5.93204 0)
(6.79756 -1.01652 0)
(10.7528 -3.47157 0)
(7.11499 -1.74874 0)
(7.75335 -3.29995 0)
(6.89208 -0.0512503 0)
(6.02707 -2.2558 0)
(5.97299 -0.866981 0)
(4.95298 -2.777 0)
(3.41529 0.193394 0)
(3.62058 -2.66847 0)
(3.37656 0.0620297 0)
(2.01653 -1.35078 0)
(2.52345 1.48773 0)
(1.28944 -2.55899 0)
(-0.255667 4.17168 0)
(0.190302 2.24274 0)
(-1.92632 4.20925 0)
(-2.42981 5.25504 0)
(7.55028 -1.3647 0)
(10.6317 -4.19445 0)
(6.31656 -2.03561 0)
(7.83944 -3.58264 0)
(5.70879 -0.861774 0)
(6.95711 -2.51308 0)
(5.27207 -1.10602 0)
(3.60788 -2.5495 0)
(3.68828 -1.39546 0)
(3.33755 -2.54646 0)
(3.06752 -0.374111 0)
(2.46745 -0.928376 0)
(2.34065 0.246934 0)
(-0.102916 -0.0206167 0)
(-1.27976 2.85166 0)
(-0.422561 3.2396 0)
(-0.798107 3.90308 0)
(-0.939681 5.25655 0)
(8.75713 -1.77945 0)
(9.49188 -4.23358 0)
(6.89074 -2.18796 0)
(7.05799 -4.2597 0)
(5.84651 -1.39611 0)
(6.00468 -3.22218 0)
(5.14907 -0.899458 0)
(4.82732 -2.90234 0)
(3.655 -1.52352 0)
(3.48415 -2.81367 0)
(2.47373 -1.08284 0)
(3.03246 -1.31893 0)
(1.83195 0.476529 0)
(1.28597 0.20857 0)
(0.572317 2.00071 0)
(1.36574 2.91564 0)
(1.5336 3.35873 0)
(1.12255 4.04554 0)
(9.66937 -2.24007 0)
(8.89211 -4.78141 0)
(7.96257 -2.74539 0)
(7.48918 -4.44766 0)
(6.15357 -2.18348 0)
(6.45556 -3.34497 0)
(5.32148 -1.96357 0)
(5.841 -2.83158 0)
(4.59099 -1.98492 0)
(4.33548 -2.76556 0)
(3.38423 -1.63707 0)
(3.13666 -1.28811 0)
(2.56223 0.251376 0)
(2.1299 0.340834 0)
(2.05126 1.00213 0)
(2.33705 1.94811 0)
(2.72493 2.63899 0)
(2.94512 3.58275 0)
(9.57334 -2.90424 0)
(8.79745 -4.79464 0)
(8.26317 -3.39432 0)
(7.51404 -4.56296 0)
(6.84874 -2.90186 0)
(6.44146 -3.80942 0)
(5.90027 -2.54948 0)
(5.57378 -3.30421 0)
(5.02334 -2.63491 0)
(4.70573 -2.70218 0)
(4.0301 -1.89496 0)
(3.44293 -1.35032 0)
(3.26963 -0.630692 0)
(3.29199 -0.0292858 0)
(3.14722 0.638638 0)
(3.05784 1.27751 0)
(3.37198 1.67222 0)
(3.71353 2.36863 0)
(9.68756 -3.2963 0)
(8.88867 -5.22047 0)
(8.27554 -4.25096 0)
(7.47569 -4.89918 0)
(7.00074 -3.80027 0)
(6.52908 -4.06044 0)
(6.11184 -3.37552 0)
(5.765 -3.59242 0)
(5.18433 -3.1339 0)
(4.70805 -2.91386 0)
(4.26083 -2.43357 0)
(3.97611 -1.77789 0)
(3.85189 -1.13278 0)
(3.8046 -0.600286 0)
(3.89613 -0.0799735 0)
(4.06841 0.570498 0)
(4.19537 1.19798 0)
(4.31891 1.80293 0)
(9.35694 -4.07802 0)
(9.02994 -5.31394 0)
(8.29947 -4.87927 0)
(7.65529 -5.09574 0)
(7.09851 -4.55225 0)
(6.70801 -4.49864 0)
(6.34938 -3.98078 0)
(6.01697 -3.84962 0)
(5.607 -3.49159 0)
(5.255 -3.09172 0)
(4.96202 -2.7132 0)
(4.68176 -2.23933 0)
(4.57886 -1.78773 0)
(4.61727 -1.34239 0)
(4.64709 -0.791799 0)
(4.71892 -0.292735 0)
(4.88728 0.228437 0)
(5.16096 0.82464 0)
(9.53839 -4.63385 0)
(9.12516 -5.70449 0)
(8.50163 -5.41069 0)
(7.90502 -5.37413 0)
(7.3496 -5.08617 0)
(6.85214 -4.85335 0)
(6.44989 -4.54113 0)
(6.15794 -4.27662 0)
(5.89157 -3.94135 0)
(5.68617 -3.54743 0)
(5.53888 -3.19818 0)
(5.43233 -2.76171 0)
(5.39629 -2.30329 0)
(5.39794 -1.87769 0)
(5.41699 -1.40544 0)
(5.53343 -0.949607 0)
(5.68728 -0.475596 0)
(5.91865 0.0179701 0)
(9.51266 -4.77141 0)
(9.09819 -5.80482 0)
(8.47649 -5.65542 0)
(7.93114 -5.51575 0)
(7.47751 -5.25947 0)
(7.08772 -5.02566 0)
(6.76655 -4.76552 0)
(6.50417 -4.52761 0)
(6.25998 -4.24132 0)
(6.12659 -3.91454 0)
(6.05158 -3.56518 0)
(5.99354 -3.16672 0)
(6.03056 -2.78394 0)
(6.1243 -2.40906 0)
(6.22492 -2.00853 0)
(6.41429 -1.64658 0)
(6.60696 -1.28354 0)
(6.8656 -0.903389 0)
(9.39957 -4.69833 0)
(9.18479 -5.77006 0)
(8.68624 -5.67292 0)
(8.23481 -5.56295 0)
(7.85724 -5.36631 0)
(7.57354 -5.13317 0)
(7.34387 -4.85631 0)
(7.16382 -4.58849 0)
(7.00603 -4.32885 0)
(6.92236 -4.06579 0)
(6.85913 -3.80011 0)
(6.85012 -3.50319 0)
(6.91465 -3.1899 0)
(7.01609 -2.87776 0)
(7.17211 -2.54083 0)
(7.36861 -2.22354 0)
(7.55273 -1.89143 0)
(7.79717 -1.55093 0)
(9.41042 -4.45047 0)
(9.1605 -5.61148 0)
(8.73348 -5.49772 0)
(8.36778 -5.37225 0)
(8.03447 -5.21565 0)
(7.76164 -5.02953 0)
(7.5479 -4.80797 0)
(7.39409 -4.55313 0)
(7.27755 -4.29778 0)
(7.23722 -4.03026 0)
(7.21133 -3.77187 0)
(7.23649 -3.50769 0)
(7.30643 -3.24219 0)
(7.4266 -2.98948 0)
(7.59125 -2.71031 0)
(7.79033 -2.45625 0)
(8.0209 -2.18326 0)
(8.26893 -1.89381 0)
(9.68081 -4.175 0)
(9.5655 -5.22222 0)
(9.16683 -5.15116 0)
(8.78366 -5.00308 0)
(8.41382 -4.81212 0)
(8.10393 -4.6149 0)
(7.85212 -4.40518 0)
(7.70795 -4.19825 0)
(7.63149 -3.99246 0)
(7.61199 -3.78286 0)
(7.63971 -3.59725 0)
(7.71148 -3.38973 0)
(7.79767 -3.17437 0)
(7.95351 -2.97051 0)
(8.12956 -2.73513 0)
(8.33048 -2.52996 0)
(8.58708 -2.29575 0)
(8.83907 -2.0585 0)
(9.68737 -3.71579 0)
(9.64939 -4.72341 0)
(9.2513 -4.63424 0)
(8.88471 -4.48377 0)
(8.5808 -4.33313 0)
(8.3121 -4.19148 0)
(8.09599 -4.04688 0)
(7.96814 -3.89447 0)
(7.907 -3.72883 0)
(7.90552 -3.5395 0)
(7.95447 -3.35874 0)
(8.05222 -3.1581 0)
(8.16837 -2.967 0)
(8.32802 -2.78612 0)
(8.4943 -2.59967 0)
(8.70243 -2.44075 0)
(8.94235 -2.2488 0)
(9.18791 -2.05419 0)
(9.85055 -3.31453 0)
(9.76018 -4.21096 0)
(9.36669 -4.1222 0)
(9.0419 -3.98424 0)
(8.82673 -3.83622 0)
(8.63091 -3.65416 0)
(8.47622 -3.51626 0)
(8.35606 -3.4102 0)
(8.27558 -3.28873 0)
(8.26293 -3.17908 0)
(8.28536 -3.04094 0)
(8.38352 -2.88578 0)
(8.50853 -2.71746 0)
(8.66497 -2.56006 0)
(8.83432 -2.3983 0)
(9.03481 -2.24619 0)
(9.25276 -2.08978 0)
(9.48402 -1.92084 0)
(9.6851 -2.79223 0)
(9.63991 -3.59278 0)
(9.29006 -3.549 0)
(9.06154 -3.48861 0)
(8.93926 -3.41146 0)
(8.83483 -3.28566 0)
(8.77802 -3.14534 0)
(8.72386 -3.02061 0)
(8.65932 -2.88058 0)
(8.65359 -2.76698 0)
(8.65344 -2.64631 0)
(8.72732 -2.51515 0)
(8.84774 -2.38447 0)
(8.97763 -2.26082 0)
(9.17199 -2.12322 0)
(9.37536 -1.98695 0)
(9.60601 -1.86713 0)
(9.86075 -1.71281 0)
(9.73365 -2.39027 0)
(9.60179 -3.10764 0)
(9.32693 -3.17336 0)
(9.20686 -3.1465 0)
(9.12097 -3.03454 0)
(9.00368 -2.89937 0)
(8.89714 -2.75442 0)
(8.77402 -2.59927 0)
(8.69628 -2.4598 0)
(8.71584 -2.35814 0)
(8.74201 -2.24466 0)
(8.8695 -2.152 0)
(9.02778 -2.06886 0)
(9.18512 -1.97429 0)
(9.42284 -1.87764 0)
(9.62204 -1.76151 0)
(9.87733 -1.65893 0)
(10.1409 -1.53033 0)
(9.72121 -1.82634 0)
(9.83542 -2.48403 0)
(9.67236 -2.68447 0)
(9.54258 -2.70915 0)
(9.37604 -2.61663 0)
(9.20456 -2.48726 0)
(9.07644 -2.32743 0)
(8.95716 -2.16621 0)
(8.93706 -2.07225 0)
(8.97418 -1.98955 0)
(9.03467 -1.90749 0)
(9.18127 -1.85831 0)
(9.30275 -1.78285 0)
(9.46176 -1.70928 0)
(9.65682 -1.62373 0)
(9.83869 -1.51983 0)
(10.0844 -1.4264 0)
(10.3295 -1.32031 0)
(9.66069 -1.57601 0)
(9.98034 -2.28201 0)
(9.98757 -2.40461 0)
(9.86423 -2.32624 0)
(9.6344 -2.2037 0)
(9.40788 -2.08763 0)
(9.23691 -1.94886 0)
(9.12669 -1.8132 0)
(9.12716 -1.72513 0)
(9.15793 -1.63992 0)
(9.24385 -1.57756 0)
(9.35083 -1.53416 0)
(9.46179 -1.47645 0)
(9.60494 -1.41479 0)
(9.75415 -1.34384 0)
(9.92841 -1.26144 0)
(10.1268 -1.18269 0)
(10.3549 -1.10805 0)
(9.56906 -1.34174 0)
(9.98699 -1.94337 0)
(10.0233 -1.96977 0)
(9.88034 -1.88378 0)
(9.62605 -1.78238 0)
(9.33942 -1.67813 0)
(9.11849 -1.56973 0)
(8.96803 -1.46923 0)
(8.91643 -1.3944 0)
(8.9009 -1.34329 0)
(8.93294 -1.29484 0)
(8.96466 -1.24948 0)
(9.02999 -1.19367 0)
(9.08973 -1.13743 0)
(9.18471 -1.08146 0)
(9.28912 -1.01004 0)
(9.42767 -0.93898 0)
(9.58527 -0.878474 0)
(9.70616 -1.13195 0)
(10.2091 -1.74797 0)
(10.1859 -1.6726 0)
(9.83416 -1.50225 0)
(9.30904 -1.35972 0)
(8.75952 -1.24945 0)
(8.2765 -1.16106 0)
(7.88446 -1.08647 0)
(7.5793 -1.03817 0)
(7.33569 -0.996832 0)
(7.14994 -0.949288 0)
(7.00521 -0.895133 0)
(6.91502 -0.843161 0)
(6.84834 -0.789572 0)
(6.84561 -0.744556 0)
(6.85137 -0.687692 0)
(6.91488 -0.636723 0)
(6.97824 -0.595031 0)
(9.79259 -1.0921 0)
(9.61513 -1.54205 0)
(8.66337 -1.34705 0)
(7.53018 -1.09393 0)
(6.48542 -0.898267 0)
(5.62069 -0.747994 0)
(4.9364 -0.650998 0)
(4.40487 -0.588861 0)
(3.99268 -0.550294 0)
(3.67661 -0.521702 0)
(3.43939 -0.492826 0)
(3.28628 -0.465806 0)
(3.19034 -0.441133 0)
(3.15493 -0.410087 0)
(3.17203 -0.390424 0)
(3.20904 -0.358985 0)
(3.31446 -0.336757 0)
(3.40042 -0.317914 0)
(8.40287 -0.59354 0)
(5.77383 -0.604568 0)
(3.52302 -0.350712 0)
(1.98511 -0.2241 0)
(0.996305 -0.183629 0)
(0.326693 -0.168274 0)
(-0.142531 -0.171322 0)
(-0.487849 -0.174877 0)
(-0.743021 -0.174174 0)
(-0.927718 -0.169902 0)
(-1.05104 -0.162407 0)
(-1.11369 -0.152438 0)
(-1.12307 -0.142446 0)
(-1.07825 -0.131011 0)
(-0.985632 -0.121406 0)
(-0.870813 -0.105089 0)
(-0.671484 -0.109696 0)
(-0.568992 -0.0569858 0)
(-0.0512671 1.15878 0)
(-0.176272 0.986784 0)
(0.0501669 0.640408 0)
(0.5712 0.355345 0)
(1.27885 0.181933 0)
(2.1143 0.0945257 0)
(2.99546 0.0789053 1.13894e-17)
(3.8724 0.102723 -1.12983e-17)
(4.74459 0.127549 0)
(5.57119 0.182409 -1.11229e-17)
(6.37827 0.244923 0)
(7.15818 0.285672 0)
(7.89916 0.360627 0)
(8.54288 0.463849 1.07928e-17)
(9.09963 0.604483 0)
(9.54778 0.736689 0)
(9.77912 0.895989 -1.0531e-17)
(9.95739 1.06034 0)
(9.93579 1.14712 0)
(9.77971 1.35502 0)
(9.61125 1.40543 1.02213e-17)
(9.18991 1.37887 0)
(8.80451 1.44919 1.00657e-17)
(8.57553 1.19095 0)
(8.30588 0.850144 0)
(8.18305 0.740893 9.88523e-18)
(8.34723 0.68013 0)
(8.63793 0.649133 -9.8033e-18)
(8.96661 0.640109 0)
(9.26115 0.649978 9.6464e-18)
(9.37235 0.711451 0)
(9.3454 0.766164 0)
(9.66932 0.75737 0)
(10.3718 0.575822 0)
(11.1063 0.25277 0)
(11.6697 -0.239078 -9.35309e-18)
(12.0618 -0.599044 0)
(12.4095 -0.588599 1.86216e-17)
(12.6493 -0.239523 0)
(12.6199 0.292467 -1.84865e-17)
(12.3268 0.782024 0)
(11.8488 1.05866 0)
(11.3165 1.14114 1.80896e-17)
(10.8292 1.11587 0)
(10.4722 1.03654 1.77889e-17)
(10.2046 0.924423 -1.76468e-17)
(10.0243 0.821165 0)
(9.92331 0.729174 -1.73724e-17)
(9.85036 0.655832 -1.7238e-17)
(9.82898 0.59621 0)
(9.86424 0.540818 0)
(9.88371 0.487638 0)
(9.88845 0.453055 0)
(9.88718 0.422886 0)
(9.85412 0.393303 1.64546e-17)
(9.75319 0.366973 0)
(9.62842 0.365538 -1.62003e-17)
(9.51228 0.358319 0)
(9.35781 0.337483 0)
(9.17614 0.314581 1.58158e-17)
(8.96378 0.26822 0)
(8.72702 0.247853 -1.55568e-17)
(8.45046 0.219005 0)
(8.11932 0.205336 0)
(7.74037 0.183084 0)
(7.27795 0.157655 1.50484e-17)
(6.7636 0.15249 0)
(6.19919 0.140727 0)
(5.55585 0.128708 1.46875e-17)
(4.88235 0.116205 0)
(4.21267 0.0850712 1.44246e-17)
(3.54814 0.0544678 0)
(2.87551 0.0189093 0)
(2.18111 -0.00388428 0)
(1.4456 -0.0203659 -1.39088e-17)
(0.692159 -0.0333092 0)
(-0.0348211 -0.0583009 0)
(-0.716156 -0.0897595 -1.35286e-17)
(-1.36789 -0.118098 -1.34064e-17)
(-1.95553 -0.148503 0)
(-2.53114 -0.197143 -1.31702e-17)
(-3.08522 -0.218284 0)
(-3.56184 -0.245905 -2.58649e-17)
(-3.93643 -0.304608 0)
(-4.17519 -0.358575 -2.53776e-17)
(-4.3153 -0.394494 0)
(-4.34463 -0.417592 2.49025e-17)
(-4.38488 -0.385589 0)
(-4.51623 -0.331423 0)
(-4.68659 -0.295866 0)
(-4.97984 -0.302869 -2.41177e-17)
(-5.30648 -0.270494 0)
(-5.58728 -0.23934 2.36041e-17)
(-5.76602 -0.215239 0)
(-5.80387 -0.259972 -2.30321e-17)
(-5.78479 -0.230609 -2.28365e-17)
(-5.64337 -0.257389 -2.26535e-17)
(-5.53063 -0.217474 0)
(-5.54212 -0.227706 0)
(-5.48111 -0.246139 0)
(-5.18115 -0.276034 0)
(-4.936 -0.250668 0)
(-4.5908 -0.077133 0)
(-4.23623 -0.00740135 0)
(-4.52586 -0.134936 0)
(-5.23016 0.0132582 2.07464e-17)
(-5.17102 -0.0678172 2.03296e-17)
(-4.37035 -0.668709 0)
(-3.23996 -1.1049 0)
(-2.63446 -0.817757 0)
(-3.04772 -0.238498 2.11929e-17)
(-3.33933 -0.108063 0)
(-3.36926 -0.27576 0)
(-3.77252 -0.0667952 0)
(-4.42649 0.216746 0)
(-4.44679 -0.0976063 -2.07099e-17)
(-4.11075 -0.244298 0)
(-3.58671 -0.188906 0)
(-3.06801 -0.212714 2.0086e-17)
(-2.93203 -0.127935 -1.9923e-17)
(-3.35905 -0.00739642 0)
(-4.08231 0.0675468 -1.9709e-17)
(-5.05114 0.252256 0)
(-5.48169 0.0602303 1.93835e-17)
(-5.31597 -0.156139 0)
(-4.72115 -0.429357 0)
(-2.84862 -0.7272 0)
(-0.315559 -0.523972 0)
(1.03329 -0.495112 0)
(3.14345 -0.384306 -3.66549e-17)
(4.77726 -0.298897 -3.64567e-17)
(6.31374 0.0832914 0)
(6.49173 0.128763 0)
(6.22987 -0.0438435 0)
(6.54039 -0.142765 3.56557e-17)
(6.83392 -0.0808675 0)
(7.34177 -0.0213671 0)
(7.90713 0.0602839 0)
(8.47706 0.047559 3.42551e-17)
(8.96659 0.137201 -3.40365e-17)
(9.17709 0.0842079 0)
(9.05603 0.049399 0)
(9.43557 0.0762889 -3.29078e-17)
(9.52386 0.161392 -3.26285e-17)
(9.30818 0.102979 0)
(9.33248 0.144285 0)
(9.36994 0.263447 3.15637e-17)
(8.86692 0.307726 -3.13658e-17)
(7.9181 0.318335 0)
(7.0442 0.2107 0)
(5.90339 0.348713 -3.02963e-17)
(4.55521 0.41179 0)
(3.15962 0.286068 0)
(1.5675 0.406709 -2.88769e-17)
(0.122213 0.439066 0)
(-0.925817 0.475837 -2.81516e-17)
(-1.97835 0.374739 0)
(-3.4698 0.408634 0)
(-4.97024 0.507242 0)
(-6.47489 0.778105 2.71694e-17)
(-8.11436 0.56576 0)
(-8.64171 0.322152 0)
(-8.45434 0.0789944 0)
(-4.05141 -0.173294 0)
(-1.23397 0.628204 0)
(-2.61381 0.872817 0)
(-4.16116 0.661395 2.70975e-17)
(-5.82167 0.670058 2.68315e-17)
(-6.59281 0.563221 0)
(-6.24296 0.268567 0)
(-5.28069 0.0958109 0)
(-3.99741 -0.0448671 -2.69611e-17)
(-2.47875 -0.0841114 0)
(-1.1037 -0.0644548 5.42885e-17)
(-0.233442 -0.033374 -5.43566e-17)
(0.155672 0.0476957 -5.43182e-17)
(0.204239 0.100393 5.42442e-17)
(-0.0410319 0.128418 -5.41386e-17)
(-0.495089 0.189329 5.40622e-17)
(-0.632431 0.09963 0)
(0.0705933 3.09259 0)
(0.213639 2.71208 0)
(0.718089 1.70496 -2.37882e-17)
(1.36847 0.927461 0)
(2.1457 0.46521 2.31545e-17)
(2.91568 0.239254 2.29274e-17)
(3.69232 0.204907 1.13584e-17)
(4.43532 0.257004 1.1267e-17)
(5.19733 0.305235 0)
(5.94848 0.392109 1.11256e-17)
(6.73576 0.541264 0)
(7.49885 0.614542 0)
(8.20562 0.776085 -2.18352e-17)
(8.92012 1.11707 -1.09016e-17)
(9.49475 1.27158 2.15414e-17)
(10.0287 1.75343 2.138e-17)
(10.425 2.13976 1.064e-17)
(10.6234 2.37751 0)
(10.7888 3.00851 0)
(10.8208 3.06866 0)
(10.7309 3.23946 1.01016e-17)
(10.6657 3.80205 0)
(10.5526 3.425 -2.98001e-17)
(10.1815 3.14976 0)
(9.98504 3.46335 0)
(10.1717 3.07869 -9.72086e-18)
(10.1773 2.24737 0)
(9.82522 1.85189 9.41393e-18)
(9.64391 1.8286 1.84487e-17)
(10.1279 1.98413 -9.10024e-18)
(11.1114 2.37479 0)
(12.0251 2.27008 0)
(12.3004 1.10851 0)
(12.0141 0.252574 1.77482e-17)
(11.8127 0.744968 1.77588e-17)
(11.3198 1.82171 9.26381e-18)
(10.1604 2.51082 0)
(8.88196 2.90255 -1.87274e-17)
(7.86093 3.18603 0)
(7.08966 3.33294 1.84374e-17)
(6.5932 3.3341 0)
(6.26693 3.19599 0)
(6.05949 2.98693 -1.80249e-17)
(5.93709 2.73494 0)
(5.88968 2.46847 -5.32897e-17)
(5.89806 2.20182 1.76281e-17)
(5.96799 1.95437 0)
(6.05668 1.73633 1.73566e-17)
(6.15252 1.5685 1.72159e-17)
(6.25908 1.44973 0)
(6.37734 1.3605 0)
(6.45655 1.26289 0)
(6.51129 1.19494 0)
(6.53197 1.14131 0)
(6.49131 1.08652 -1.63384e-17)
(6.4168 1.04152 -3.23906e-17)
(6.34374 0.999969 1.60478e-17)
(6.22125 0.935665 0)
(6.06761 0.862596 -3.15182e-17)
(5.8887 0.780371 1.56152e-17)
(5.72034 0.689168 0)
(5.5828 0.591737 1.53121e-17)
(5.3711 0.527972 0)
(5.07096 0.491949 0)
(4.71028 0.446752 2.97387e-17)
(4.29284 0.400488 -1.47381e-17)
(3.79723 0.417024 2.92289e-17)
(3.20883 0.389251 -2.89842e-17)
(2.58373 0.331322 -1.43651e-17)
(2.01402 0.191906 0)
(1.51017 0.0144419 -1.40811e-17)
(1.01662 -0.112367 0)
(0.504291 -0.208009 0)
(-0.049034 -0.257536 0)
(-0.638087 -0.302638 -1.35197e-17)
(-1.22543 -0.413343 0)
(-1.75635 -0.56643 -2.66346e-17)
(-2.224 -0.70241 3.96721e-17)
(-2.68533 -0.798282 1.31382e-17)
(-3.13809 -0.894873 0)
(-3.58443 -0.994796 1.29556e-17)
(-3.99515 -1.06045 0)
(-4.35902 -1.13938 2.54665e-17)
(-4.6064 -1.34151 0)
(-4.71467 -1.48908 2.5088e-17)
(-4.67959 -1.58927 -4.96161e-17)
(-4.56275 -1.65626 -2.45318e-17)
(-4.30605 -1.47499 0)
(-4.22964 -1.25851 0)
(-4.28934 -0.978808 0)
(-4.55297 -0.912683 2.29691e-17)
(-4.85032 -0.833059 0)
(-5.05637 -0.840099 -2.24016e-17)
(-5.14037 -0.930884 0)
(-4.98887 -1.13107 6.55474e-17)
(-4.88411 -1.1789 2.16707e-17)
(-4.69925 -1.19366 2.15434e-17)
(-4.50572 -0.999352 0)
(-4.36558 -0.8063 0)
(-4.09403 -0.979805 0)
(-3.66255 -1.19963 0)
(-3.40369 -1.09515 0)
(-2.66016 -1.24928 4.02834e-17)
(-1.7496 -1.06691 3.98694e-17)
(-2.68197 -0.101295 0)
(-3.47933 -0.122304 -1.99309e-17)
(-2.35064 -1.40779 -1.84876e-17)
(-1.42226 -1.96133 0)
(-2.45676 -1.19324 -3.91358e-17)
(-4.00108 -0.114454 0)
(-4.7405 -0.0240409 2.11188e-17)
(-5.26018 -0.465551 0)
(-6.54693 -0.129981 0)
(-7.39415 0.134296 -4.29456e-17)
(-7.32321 -0.491764 0)
(-7.43327 -0.867272 2.0048e-17)
(-6.98004 -1.16568 0)
(-6.28981 -1.39365 0)
(-5.98835 -0.957591 1.93335e-17)
(-5.75398 -0.233623 1.92589e-17)
(-5.81338 0.356094 0)
(-6.38564 0.46276 -1.91829e-17)
(-6.91628 0.124855 0)
(-6.81604 -0.321149 1.88263e-17)
(-6.74454 -0.561685 3.74088e-17)
(-5.45412 -1.61534 0)
(-4.26737 -2.8346 0)
(-0.700246 -2.36831 0)
(-0.119896 -2.21277 0)
(2.76191 -2.21499 3.56273e-17)
(4.93612 -2.13699 1.05523e-16)
(7.68345 -1.19063 0)
(9.27156 0.028539 0)
(9.29375 0.152821 0)
(9.54165 -0.146894 -3.45464e-17)
(9.53308 -0.246232 0)
(9.77396 -0.489255 0)
(10.0451 -0.455644 6.62773e-17)
(10.4731 -0.483788 3.26148e-17)
(11.1672 -0.236828 3.23484e-17)
(11.9354 0.0244476 0)
(11.3367 0.013929 0)
(11.376 -0.108455 3.07773e-17)
(11.5849 0.174834 -3.04837e-17)
(10.9162 -0.0112057 0)
(10.5297 -0.233584 0)
(10.999 -0.0977297 -2.90057e-17)
(11.204 0.33485 8.65674e-17)
(10.172 0.506524 0)
(9.18318 0.418884 0)
(7.8117 0.572595 2.7928e-17)
(6.26159 0.63296 0)
(4.9532 0.668918 5.42523e-17)
(2.95925 0.807971 -2.65541e-17)
(1.15754 0.189033 0)
(0.513039 0.10079 2.53411e-17)
(0.403923 0.307051 5.05295e-17)
(-1.27274 0.754648 0)
(-3.41519 0.737381 0)
(-5.56312 1.34649 -2.45542e-17)
(-7.40139 0.689176 0)
(-8.19825 -0.338145 5.00764e-17)
(-12.6328 -1.31086 0)
(-9.45252 -2.84387 0)
(0.837933 -0.970976 0)
(1.31467 1.49346 0)
(-1.17218 1.75547 -2.47747e-17)
(-3.78049 1.46745 -2.41703e-17)
(-4.33075 0.638864 0)
(-3.38456 -0.167028 0)
(-2.28378 -0.47183 0)
(-1.14458 -0.641533 2.49696e-17)
(0.208285 -0.635953 0)
(0.876385 -0.321566 -5.20769e-17)
(0.6308 0.102774 5.25872e-17)
(0.0504319 0.438 5.27857e-17)
(-0.935191 0.640926 5.29183e-17)
(-2.05601 0.658047 5.27741e-17)
(-3.01873 0.589258 5.28285e-17)
(-3.67857 0.336529 0)
(0.0859004 4.4741 0)
(0.560026 3.63101 0)
(1.29019 2.18461 2.39036e-17)
(1.99939 1.28407 2.34212e-17)
(2.67704 0.855823 -2.30978e-17)
(3.27078 0.737652 -2.29062e-17)
(3.83599 0.818778 5.07533e-21)
(4.37692 0.930099 0)
(4.98542 0.985235 0)
(5.65992 1.03248 0)
(6.37689 1.03962 0)
(7.15575 1.24445 0)
(7.84839 1.4575 6.6992e-17)
(8.54597 1.76593 0)
(9.16477 2.35138 -2.20411e-17)
(9.51629 2.78481 -2.16821e-17)
(10.0201 3.51806 0)
(10.1253 4.14576 0)
(10.2336 4.45293 0)
(10.4457 5.21646 0)
(10.0866 5.36169 -2.04862e-17)
(10.0929 5.31043 0)
(10.2962 6.02672 2.01871e-17)
(10.1484 5.87279 0)
(9.93521 4.58239 0)
(9.83291 4.02081 0)
(9.9272 4.70538 3.78912e-17)
(10.2575 4.9767 0)
(10.6795 3.66122 -1.85377e-17)
(10.6831 1.68886 3.62093e-17)
(10.4786 0.945057 0)
(10.4047 2.09759 0)
(9.60005 3.85717 0)
(8.00763 4.94464 -1.90635e-17)
(6.64282 5.37944 -1.89657e-17)
(5.69135 5.62828 0)
(5.00507 5.67153 0)
(4.53926 5.56949 3.75061e-17)
(4.20422 5.40174 3.7287e-17)
(3.99454 5.18105 -3.70602e-17)
(3.92374 4.92851 0)
(3.96538 4.63318 0)
(4.07719 4.28323 0)
(4.24956 3.92201 0)
(4.44016 3.56224 3.58826e-17)
(4.63903 3.22621 3.56474e-17)
(4.86404 2.89908 -3.53883e-17)
(5.08917 2.61901 0)
(5.30526 2.41057 0)
(5.51703 2.25072 0)
(5.67451 2.1383 0)
(5.81053 2.02818 3.39319e-17)
(5.94359 1.95295 0)
(5.98869 1.89346 0)
(5.9758 1.81971 3.29478e-17)
(5.90304 1.75006 3.26172e-17)
(5.78624 1.65049 0)
(5.63429 1.51684 -6.40547e-17)
(5.46429 1.38826 3.17244e-17)
(5.31096 1.21112 -3.14376e-17)
(5.11859 1.08539 0)
(4.90623 0.94773 0)
(4.64256 0.843199 0)
(4.32543 0.798746 0)
(4.02946 0.720198 -2.97423e-17)
(3.74992 0.64613 -5.88803e-17)
(3.33774 0.657263 -2.91593e-17)
(2.82644 0.615802 2.8957e-17)
(2.2588 0.395434 0)
(1.65289 0.0344632 -5.75137e-17)
(1.13725 -0.24171 -5.70348e-17)
(0.717472 -0.381433 -5.63641e-17)
(0.322942 -0.511722 5.57305e-17)
(-0.156414 -0.604563 0)
(-0.594514 -0.717047 8.2107e-17)
(-1.05722 -0.903326 0)
(-1.50139 -1.1583 -2.71971e-17)
(-1.94756 -1.34865 -2.71025e-17)
(-2.42543 -1.4651 0)
(-2.98261 -1.54667 0)
(-3.55852 -1.64676 -5.37588e-17)
(-4.0603 -1.76122 0)
(-4.49639 -1.86642 -5.3139e-17)
(-4.82695 -2.21449 0)
(-5.08943 -2.50351 5.29591e-17)
(-5.1076 -2.69997 1.04942e-16)
(-5.10237 -2.92361 0)
(-4.69412 -2.70789 0)
(-4.4215 -2.29907 0)
(-4.1015 -1.66452 4.75151e-17)
(-4.17248 -1.58175 0)
(-4.1473 -1.48281 4.51449e-17)
(-4.16977 -1.52459 0)
(-4.10155 -1.7085 0)
(-3.77453 -1.85647 -8.75304e-17)
(-3.38585 -1.76749 0)
(-3.13185 -1.79833 -4.30475e-17)
(-2.96521 -1.68582 0)
(-2.93158 -1.66441 -4.24132e-17)
(-2.65852 -1.97073 0)
(-2.43998 -1.93667 0)
(-2.09896 -2.02648 0)
(-1.27572 -2.24453 -1.24314e-16)
(-1.52721 -0.935206 -4.15882e-17)
(-2.57169 0.395663 0)
(-1.40714 -0.976733 0)
(-0.84956 -2.378 0)
(-2.35633 -1.40949 0)
(-4.41825 -0.0340773 4.09992e-17)
(-5.56585 0.043329 -8.43943e-17)
(-6.17777 -0.0583005 -4.18564e-17)
(-7.8103 0.48788 8.38106e-17)
(-9.27039 0.487854 8.46109e-17)
(-9.67918 -0.287705 4.1286e-17)
(-10.255 -0.633505 0)
(-10.2756 -1.32005 8.09725e-17)
(-9.77033 -2.00922 0)
(-9.84449 -1.65562 -7.60801e-17)
(-9.12528 -1.39982 -3.856e-17)
(-8.40753 -0.876173 0)
(-8.34618 -0.000344653 7.48122e-17)
(-8.31648 0.305644 3.77195e-17)
(-8.15995 -0.0830287 0)
(-8.1558 -0.604039 3.74353e-17)
(-7.69186 -1.24452 -1.12456e-16)
(-5.82657 -2.74318 0)
(-4.91854 -4.7292 0)
(-2.10102 -3.69484 0)
(-2.01898 -3.36487 0)
(1.32026 -4.16693 -7.42977e-17)
(3.61411 -4.07445 -7.29204e-17)
(6.70077 -2.96715 0)
(9.06078 -0.88083 0)
(9.79358 -0.320178 0)
(10.6775 -0.339193 0)
(11.2671 -0.100454 0)
(11.6084 -0.392644 0)
(11.8369 -0.302868 -6.60409e-17)
(11.7871 -0.529553 2.21491e-20)
(12.0442 -0.588283 0)
(13.3164 -0.00710413 0)
(12.7675 0.352394 -6.2286e-17)
(12.0354 -0.0692935 0)
(12.6183 0.362766 5.92967e-17)
(11.9394 0.386213 5.75563e-17)
(10.5364 -0.200896 0)
(10.7137 -0.337389 0)
(11.94 0.269889 -5.64616e-17)
(11.1551 0.708599 -1.10293e-16)
(10.5834 0.763701 0)
(9.46549 1.14943 0)
(7.70286 0.952813 0)
(6.57716 0.9002 -5.19111e-17)
(4.92466 1.44917 5.06516e-17)
(2.75429 0.79955 0)
(0.815354 0.219461 1.05946e-16)
(0.925701 0.389682 5.23118e-17)
(0.878243 1.4856 -9.84561e-17)
(-1.17433 1.65255 0)
(-3.88317 2.29701 0)
(-5.91973 2.3152 -9.18393e-17)
(-9.92338 2.58593 -5.89448e-17)
(-19.5177 1.81711 0)
(-15.31 -7.90232 0)
(-0.698956 -4.24164 0)
(2.70389 2.56031 0)
(0.223075 3.03155 -9.49268e-17)
(-2.2773 2.45009 0)
(-2.55686 0.837581 0)
(-1.67561 -0.291331 0)
(-0.887727 -0.583193 0)
(-0.0201757 -0.793027 0)
(0.57516 -0.569437 0)
(0.371946 0.0642496 -1.03117e-16)
(-0.57213 0.577148 0)
(-1.68848 1.01604 0)
(-2.76004 1.15333 -2.07872e-16)
(-3.56969 1.11575 1.04017e-16)
(-4.68786 1.17352 -1.04659e-16)
(-5.52208 0.635968 1.05124e-16)
(0.0928642 5.51552 0)
(0.754575 3.96907 -4.8554e-17)
(1.46163 2.4602 0)
(2.06651 1.808 -2.32762e-17)
(2.53015 1.64832 0)
(2.94431 1.72159 0)
(3.35987 1.7982 2.29035e-17)
(3.89078 1.75942 0)
(4.51221 1.61646 0)
(5.20357 1.52325 0)
(5.96763 1.46725 0)
(6.6666 1.53996 0)
(7.36664 1.8711 -8.93169e-17)
(7.91548 2.48348 -4.42773e-17)
(8.43973 3.18722 4.37402e-17)
(8.747 3.94716 0)
(8.98511 4.88207 0)
(9.14378 5.7028 0)
(9.14012 6.32175 0)
(9.24617 7.03226 0)
(9.33995 7.497 -4.22002e-17)
(8.97896 7.22466 -4.04689e-17)
(8.94804 6.79932 3.90126e-17)
(9.29611 7.21146 -3.95536e-17)
(9.21395 7.73886 0)
(9.10466 6.65972 0)
(9.38054 4.89419 -3.66835e-17)
(9.89622 3.83007 0)
(10.0161 4.26374 0)
(8.90164 5.80589 -3.85105e-17)
(6.94634 6.87767 -3.87499e-17)
(5.42752 7.30697 -3.86512e-17)
(4.54534 7.66977 0)
(3.89198 7.8231 0)
(3.35233 7.84357 3.83743e-17)
(2.94919 7.78982 0)
(2.70877 7.60651 0)
(2.63024 7.29921 -3.77782e-17)
(2.71438 6.92332 3.7598e-17)
(2.88706 6.50829 -3.73615e-17)
(3.07998 6.06748 0)
(3.32612 5.63039 0)
(3.58912 5.19706 -7.30892e-17)
(3.87598 4.77557 0)
(4.1375 4.35524 -7.20157e-17)
(4.37309 3.96407 -1.0721e-16)
(4.60646 3.62325 1.06472e-16)
(4.87909 3.32553 -7.05239e-17)
(5.11473 3.06319 0)
(5.32411 2.85943 0)
(5.5085 2.71335 -6.91295e-17)
(5.67118 2.60846 -3.42978e-17)
(5.85815 2.54059 0)
(5.98197 2.48258 0)
(6.06406 2.44631 -3.34027e-17)
(6.0818 2.37992 -6.61778e-17)
(6.01974 2.27861 0)
(5.91998 2.12583 6.49299e-17)
(5.76811 1.9539 -6.43907e-17)
(5.66006 1.78874 6.38558e-17)
(5.52614 1.58646 0)
(5.2718 1.38438 0)
(4.95747 1.18826 0)
(4.57721 1.03337 0)
(4.187 0.859703 0)
(3.8941 0.724845 5.9862e-17)
(3.62101 0.718215 0)
(3.31765 0.773423 0)
(2.91115 0.63327 0)
(2.412 0.151469 1.1551e-16)
(1.76331 -0.41791 5.77414e-17)
(1.13633 -0.814614 5.74622e-17)
(0.706461 -0.987959 -1.13912e-16)
(0.191558 -1.08489 5.64337e-17)
(-0.184359 -1.27078 -5.59904e-17)
(-0.583583 -1.42711 0)
(-0.95133 -1.67888 5.53014e-17)
(-1.43556 -1.88517 0)
(-1.89581 -1.9964 0)
(-2.50115 -2.03281 0)
(-3.17094 -2.2048 1.08508e-16)
(-3.79618 -2.44223 -5.41586e-17)
(-4.28869 -2.59962 -5.38696e-17)
(-4.71931 -3.0241 -1.07642e-16)
(-5.15099 -3.48906 -1.61297e-16)
(-5.42794 -3.82615 -5.34432e-17)
(-5.6137 -4.31985 0)
(-5.41652 -4.32912 -1.04326e-16)
(-5.24334 -3.85885 0)
(-4.6918 -2.85546 -1.48022e-16)
(-4.65307 -2.51204 0)
(-4.45845 -2.25047 -1.40971e-16)
(-4.25167 -2.26107 0)
(-3.84539 -2.60726 0)
(-3.52295 -3.06727 -4.55716e-17)
(-2.9949 -2.94215 0)
(-2.44781 -2.65068 4.52035e-17)
(-1.82677 -2.31222 8.73953e-17)
(-1.31527 -2.12413 4.25492e-17)
(-1.10801 -2.35239 8.50589e-17)
(-0.84241 -2.72444 -8.5325e-17)
(-0.346582 -3.01467 -8.34933e-17)
(-0.490824 -2.51286 1.66473e-16)
(-1.35945 -0.925904 0)
(-0.86841 -1.10263 0)
(0.334677 -2.21121 7.72488e-17)
(-1.36096 -1.46104 -7.74979e-17)
(-4.03014 0.131481 0)
(-5.21555 0.781007 0)
(-6.10518 0.68453 8.40577e-17)
(-7.79105 0.836801 0)
(-9.75536 1.07972 6.62311e-20)
(-10.8605 0.503254 6.0623e-20)
(-11.7094 -0.0675664 8.19806e-17)
(-12.745 -0.651682 0)
(-12.6924 -1.978 -7.8903e-17)
(-12.9598 -2.29226 0)
(-12.53 -2.58122 7.91816e-17)
(-11.4718 -2.75179 0)
(-11.215 -1.28749 0)
(-10.539 -0.0439762 -7.58312e-17)
(-9.70333 -0.241378 -7.57421e-17)
(-9.50622 -0.707965 0)
(-9.23781 -1.27488 -7.6612e-17)
(-7.74079 -2.32626 1.5614e-16)
(-5.24346 -4.07344 0)
(-3.45149 -6.11625 0)
(-3.07875 -4.48621 0)
(-2.25184 -4.91448 0)
(1.00744 -6.39303 7.77047e-17)
(2.87459 -6.35314 -1.55385e-16)
(6.11341 -4.80686 0)
(8.07343 -1.82479 0)
(8.73816 -1.03746 0)
(9.6488 -1.05584 0)
(11.2161 -0.620144 0)
(12.307 -0.84797 0)
(13.0062 -0.418513 0)