/*--------------------------------*- C++ -*----------------------------------*\
| =========                 |                                                 |
| \\      /  F ield         | OpenFOAM: The Open Source CFD Toolbox           |
|  \\    /   O peration     | Version:  dev                                   |
|   \\  /    A nd           | Web:      http://www.openfoam.org               |
|    \\/     M anipulation  |                                                 |
\*---------------------------------------------------------------------------*/
FoamFile
{
    version     2.0;
    format      ascii;
    class       volVectorField;
    object      U_0;
    location    "9.138";
}
// * * * * * * * * * * * * * * * * * * * * * * * * * * * * * * * * * * * * * //

dimensions      [0 1 -1 0 0 0 0];

internalField   nonuniform List<vector> 
12225
(
(6.54864 0.330604 0)
(3.30395 0.0945337 0)
(0.701507 -0.055742 0)
(-0.484921 -0.100495 0)
(-2.13986 -0.0529767 0)
(-2.38948 -0.0842037 0)
(-4.21026 0.003134 0)
(-4.11186 -0.0396542 0)
(-6.04261 0.0155751 0)
(-5.98871 -0.0309523 0)
(-8.53834 0.131407 0)
(-6.87239 -0.118408 0)
(-10.5825 0.199612 0)
(-10.2924 0.180946 0)
(-12.5861 -0.0308779 0)
(-14.3854 1.1632 0)
(-12.227 0.720681 0)
(-25.7917 5.45091 0)
(8.98822 0.545818 0)
(8.49728 0.422365 0)
(5.51917 0.065094 0)
(5.22897 -0.149531 0)
(1.80303 -0.242547 0)
(3.40715 -0.327091 0)
(-0.650246 -0.197912 0)
(2.43287 -0.306738 0)
(-2.69145 -0.0459046 0)
(1.17023 -0.185562 0)
(-5.44404 -0.0769016 0)
(2.42761 -0.384682 0)
(-8.61559 0.975813 0)
(0.463645 -0.721263 0)
(-12.5666 1.12047 0)
(1.31147 -1.17414 0)
(-5.03349 1.12126 0)
(-20.3657 6.40922 0)
(9.01652 -0.044185 0)
(10.9455 0.128787 0)
(7.50496 -0.115916 0)
(9.47059 -0.299363 0)
(4.09763 -0.367525 0)
(8.15192 -0.522675 0)
(1.20533 -0.323191 0)
(7.90877 -0.520986 0)
(-0.831025 -0.18381 0)
(5.80206 -0.310329 0)
(-1.66779 -0.446152 0)
(6.07929 -0.62313 0)
(-1.07657 0.980768 0)
(0.178601 0.343848 0)
(-5.0137 -0.515905 0)
(3.73951 -2.99607 0)
(-11.9765 8.77844 0)
(-1.77791 4.32651 0)
(7.6818 -0.678552 0)
(12.182 -0.264197 0)
(6.48567 -0.542162 0)
(12.1646 -0.427402 0)
(4.24378 -0.7921 0)
(11.559 -0.582014 0)
(1.71394 -0.921708 0)
(11.4079 -0.933658 0)
(1.83362 0.245935 0)
(7.95073 -1.27125 0)
(0.5056 -0.248583 0)
(9.65733 -2.64066 0)
(1.76492 3.05893 0)
(6.51606 -0.246792 0)
(-1.01326 -1.44739 0)
(-2.23319 0.724521 0)
(3.25156 4.10009 0)
(-1.98852 3.95415 0)
(5.28307 -0.964902 0)
(14.327 -0.782922 0)
(4.32794 -1.17775 0)
(12.8869 -0.992743 0)
(5.52118 -1.0128 0)
(11.0966 -1.1718 0)
(4.52422 -0.721242 0)
(10.9133 -2.19912 0)
(5.66194 0.400544 0)
(7.07719 -1.13447 0)
(3.9092 -1.33447 0)
(9.34708 -3.60639 0)
(0.445611 3.31224 0)
(13.2865 0.444824 0)
(-1.56409 2.24602 0)
(5.09507 -3.75448 0)
(-0.199251 5.26403 0)
(-0.888373 11.4695 0)
(5.80534 -1.70122 0)
(13.3144 -1.27152 0)
(5.57405 -1.43514 0)
(10.9867 -2.2855 0)
(7.26371 -1.28891 0)
(7.51791 -1.46284 0)
(7.52044 -2.20231 0)
(8.22445 -2.46139 0)
(4.08372 0.932171 0)
(6.8024 -1.35374 0)
(8.07724 -2.36865 0)
(4.10052 -2.04639 0)
(0.760739 1.29179 0)
(9.53031 -1.42734 0)
(2.64321 4.2733 0)
(2.28595 -3.07744 0)
(-0.0102659 6.14475 0)
(-1.91808 5.82597 0)
(6.0522 -1.89777 0)
(11.405 -2.34868 0)
(9.15785 -1.83931 0)
(10.4117 -2.82993 0)
(7.67396 -1.01529 0)
(7.00025 -2.88593 0)
(7.27333 -1.48197 0)
(2.18212 -2.23854 0)
(7.08892 -0.324976 0)
(5.42681 -4.30096 0)
(6.66223 -0.0133965 0)
(-0.0391206 -2.45456 0)
(5.67019 0.465552 0)
(-1.69454 -3.16091 0)
(8.43321 5.99411 0)
(0.317564 -4.57121 0)
(1.21873 8.30904 0)
(8.46459 5.77621 0)
(6.31194 -2.01304 0)
(11.63 -3.80322 0)
(8.67324 -2.61153 0)
(10.0068 -3.27471 0)
(8.97607 -1.25088 0)
(6.3688 -2.74637 0)
(7.57657 -1.41785 0)
(4.47288 -3.62247 0)
(8.45106 -1.59649 0)
(2.62023 -2.91678 0)
(6.32046 -0.460102 0)
(3.15556 -2.48199 0)
(4.67951 0.326951 0)
(1.76058 -3.21917 0)
(7.82099 2.57567 0)
(3.11071 1.10411 0)
(1.9391 1.56804 0)
(6.88468 3.5041 0)
(6.903 -2.18839 0)
(11.3224 -4.46912 0)
(7.89199 -2.7593 0)
(8.8764 -4.23399 0)
(8.21349 -1.03261 0)
(7.53478 -3.2973 0)
(7.78936 -1.91481 0)
(6.9121 -3.82008 0)
(5.70919 -0.883809 0)
(6.0382 -3.78418 0)
(6.07284 -1.06525 0)
(4.87956 -2.61026 0)
(5.592 0.102906 0)
(4.49276 -4.04709 0)
(3.18185 2.66354 0)
(3.75014 0.347779 0)
(1.52429 1.96117 0)
(0.916708 2.63316 0)
(7.68752 -2.70314 0)
(11.2007 -5.34586 0)
(7.06536 -3.17094 0)
(8.94408 -4.67921 0)
(7.04938 -1.97045 0)
(8.54087 -3.67069 0)
(7.01224 -2.29016 0)
(5.63887 -3.75889 0)
(5.96461 -2.6106 0)
(5.82746 -3.79349 0)
(5.76313 -1.65589 0)
(5.33108 -2.33294 0)
(5.30619 -1.23304 0)
(3.06953 -1.62543 0)
(2.09595 1.06503 0)
(2.98387 1.14012 0)
(2.60418 1.60552 0)
(2.36092 2.78212 0)
(8.85132 -3.28141 0)
(10.0594 -5.53807 0)
(7.60446 -3.49131 0)
(8.14125 -5.52814 0)
(7.15802 -2.6631 0)
(7.58857 -4.51746 0)
(6.93174 -2.21952 0)
(6.77171 -4.28193 0)
(5.86359 -2.91104 0)
(5.89843 -4.2358 0)
(5.1231 -2.51951 0)
(5.8414 -2.83828 0)
(4.76561 -1.17015 0)
(4.37236 -1.50386 0)
(3.8117 0.0914195 0)
(4.65532 0.830288 0)
(4.78433 1.04835 0)
(4.31272 1.54567 0)
(9.79075 -3.93857 0)
(9.40935 -6.26511 0)
(8.71029 -4.19953 0)
(8.51604 -5.91759 0)
(7.44935 -3.61876 0)
(8.00254 -4.82714 0)
(7.10258 -3.43219 0)
(7.83319 -4.3607 0)
(6.75518 -3.53475 0)
(6.70321 -4.37151 0)
(5.93443 -3.24272 0)
(5.88155 -2.96277 0)
(5.42762 -1.51569 0)
(5.12114 -1.57012 0)
(5.14998 -1.02998 0)
(5.48292 -0.205977 0)
(5.8557 0.33945 0)
(6.01015 1.15812 0)
(9.73568 -4.83048 0)
(9.29707 -6.46893 0)
(9.04063 -5.0304 0)
(8.56294 -6.21525 0)
(8.13997 -4.53041 0)
(7.98822 -5.469 0)
(7.66076 -4.20611 0)
(7.56691 -5.00826 0)
(7.19839 -4.34272 0)
(7.06419 -4.46209 0)
(6.53766 -3.67237 0)
(6.11603 -3.19755 0)
(6.08216 -2.5483 0)
(6.19502 -2.04619 0)
(6.10786 -1.48784 0)
(6.06363 -0.965961 0)
(6.3866 -0.664661 0)
(6.67791 -0.0399596 0)
(9.81535 -5.46937 0)
(9.37378 -7.09893 0)
(9.05392 -6.07898 0)
(8.52181 -6.74359 0)
(8.30567 -5.61458 0)
(8.06812 -5.9101 0)
(7.87285 -5.21934 0)
(7.72535 -5.47657 0)
(7.32723 -5.02069 0)
(7.02875 -4.84027 0)
(6.7341 -4.37655 0)
(6.59027 -3.76708 0)
(6.58298 -3.18812 0)
(6.62565 -2.73135 0)
(6.77866 -2.2836 0)
(6.9763 -1.70386 0)
(7.0975 -1.14742 0)
(7.17883 -0.607478 0)
(9.53628 -6.39675 0)
(9.52855 -7.36583 0)
(9.07201 -6.90198 0)
(8.69484 -7.13219 0)
(8.40053 -6.56417 0)
(8.249 -6.52175 0)
(8.10767 -5.99832 0)
(7.96997 -5.89206 0)
(7.73351 -5.53833 0)
(7.54323 -5.16518 0)
(7.38919 -4.80945 0)
(7.23658 -4.3695 0)
(7.2427 -3.96234 0)
(7.35888 -3.56061 0)
(7.4423 -3.05934 0)
(7.54725 -2.60887 0)
(7.72802 -2.12364 0)
(7.97823 -1.56288 0)
(9.67828 -7.13787 0)
(9.59659 -7.90057 0)
(9.26815 -7.59226 0)
(8.94754 -7.56885 0)
(8.64724 -7.26733 0)
(8.38764 -7.0356 0)
(8.20388 -6.71551 0)
(8.10772 -6.45505 0)
(8.0149 -6.12079 0)
(7.9647 -5.73862 0)
(7.94877 -5.40224 0)
(7.9564 -4.98409 0)
(8.01289 -4.55139 0)
(8.08456 -4.15127 0)
(8.1577 -3.70462 0)
(8.30734 -3.27179 0)
(8.47828 -2.81442 0)
(8.70119 -2.33883 0)
(9.61791 -7.44188 0)
(9.54324 -8.12409 0)
(9.23277 -7.95133 0)
(8.97746 -7.81191 0)
(8.78322 -7.54627 0)
(8.62717 -7.30697 0)
(8.51816 -7.03994 0)
(8.44602 -6.79661 0)
(8.37366 -6.50328 0)
(8.39313 -6.17262 0)
(8.44656 -5.82132 0)
(8.49976 -5.42667 0)
(8.62798 -5.05039 0)
(8.79091 -4.68169 0)
(8.94534 -4.28914 0)
(9.17099 -3.93241 0)
(9.38609 -3.56887 0)
(9.64627 -3.1878 0)
(9.53097 -7.39472 0)
(9.63588 -8.11532 0)
(9.44609 -7.9887 0)
(9.28815 -7.8733 0)
(9.17625 -7.66344 0)
(9.13151 -7.41741 0)
(9.11552 -7.12824 0)
(9.12523 -6.85144 0)
(9.13579 -6.58138 0)
(9.19994 -6.30801 0)
(9.2642 -6.03162 0)
(9.36425 -5.72357 0)
(9.51844 -5.40114 0)
(9.69214 -5.07976 0)
(9.90411 -4.73354 0)
(10.1396 -4.40603 0)
(10.3506 -4.05973 0)
(10.6024 -3.70582 0)
(9.53168 -7.04231 0)
(9.60433 -7.87353 0)
(9.49353 -7.72728 0)
(9.42692 -7.59858 0)
(9.36387 -7.43172 0)
(9.33567 -7.23062 0)
(9.34165 -6.99178 0)
(9.38218 -6.72079 0)
(9.43495 -6.44752 0)
(9.54319 -6.16412 0)
(9.64307 -5.88952 0)
(9.77452 -5.60764 0)
(9.93553 -5.32688 0)
(10.1273 -5.05493 0)
(10.3504 -4.75799 0)
(10.594 -4.4849 0)
(10.8551 -4.18839 0)
(11.1176 -3.87756 0)
(9.79922 -6.58859 0)
(9.99449 -7.32973 0)
(9.92417 -7.22694 0)
(9.84629 -7.07148 0)
(9.74996 -6.86896 0)
(9.68759 -6.65634 0)
(9.65961 -6.42925 0)
(9.71522 -6.20431 0)
(9.81022 -5.9774 0)
(9.94269 -5.75047 0)
(10.097 -5.54395 0)
(10.2758 -5.31548 0)
(10.4539 -5.08087 0)
(10.6818 -4.85251 0)
(10.9196 -4.59681 0)
(11.1663 -4.36659 0)
(11.4593 -4.10656 0)
(11.7326 -3.84507 0)
(9.80454 -5.92962 0)
(10.0935 -6.63239 0)
(10.0198 -6.50943 0)
(9.96205 -6.35005 0)
(9.93265 -6.18801 0)
(9.91157 -6.03278 0)
(9.9185 -5.86985 0)
(9.99152 -5.69733 0)
(10.1053 -5.50901 0)
(10.2579 -5.299 0)
(10.436 -5.096 0)
(10.6449 -4.87585 0)
(10.8518 -4.66451 0)
(11.085 -4.46088 0)
(11.3153 -4.2547 0)
(11.5691 -4.06932 0)
(11.8498 -3.85187 0)
(12.119 -3.63108 0)
(9.97488 -5.23295 0)
(10.2126 -5.88915 0)
(10.1448 -5.77137 0)
(10.1318 -5.62022 0)
(10.1948 -5.45771 0)
(10.2482 -5.26371 0)
(10.3129 -5.11196 0)
(10.391 -4.99038 0)
(10.4871 -4.851 0)
(10.6269 -4.72012 0)
(10.7839 -4.5604 0)
(10.9961 -4.38396 0)
(11.2132 -4.19395 0)
(11.4472 -4.016 0)
(11.6781 -3.83296 0)
(11.9265 -3.65836 0)
(12.1844 -3.4779 0)
(12.4416 -3.28492 0)
(9.8023 -4.41248 0)
(10.0813 -5.0307 0)
(10.0757 -4.96208 0)
(10.1638 -4.88943 0)
(10.3243 -4.79898 0)
(10.4744 -4.65842 0)
(10.639 -4.50184 0)
(10.7836 -4.36498 0)
(10.893 -4.20999 0)
(11.0358 -4.07921 0)
(11.1712 -3.94257 0)
(11.3562 -3.79074 0)
(11.5714 -3.64128 0)
(11.7811 -3.49812 0)
(12.0374 -3.33885 0)
(12.2932 -3.18464 0)
(12.5617 -3.04133 0)
(12.8469 -2.86725 0)
(9.83934 -3.77428 0)
(10.031 -4.31735 0)
(10.1094 -4.35509 0)
(10.312 -4.31323 0)
(10.5111 -4.1885 0)
(10.6476 -4.04029 0)
(10.765 -3.88117 0)
(10.8444 -3.71548 0)
(10.9431 -3.56281 0)
(11.1152 -3.44722 0)
(11.2784 -3.32095 0)
(11.516 -3.21124 0)
(11.7713 -3.11288 0)
(12.0085 -3.00076 0)
(12.3074 -2.8845 0)
(12.5622 -2.75232 0)
(12.8545 -2.62903 0)
(13.1509 -2.48261 0)
(9.82771 -2.95761 0)
(10.2737 -3.47183 0)
(10.4539 -3.648 0)
(10.6444 -3.6572 0)
(10.7642 -3.55001 0)
(10.8497 -3.40655 0)
(10.9506 -3.23488 0)
(11.035 -3.06601 0)
(11.1926 -2.96272 0)
(11.3847 -2.86928 0)
(11.5798 -2.77621 0)
(11.838 -2.71323 0)
(12.0554 -2.62432 0)
(12.2943 -2.53607 0)
(12.5532 -2.43461 0)
(12.7914 -2.31642 0)
(13.0777 -2.20656 0)
(13.3579 -2.08628 0)
(9.79405 -2.46994 0)
(10.4414 -3.05631 0)
(10.786 -3.15144 0)
(10.9743 -3.06044 0)
(11.0274 -2.92853 0)
(11.0592 -2.80242 0)
(11.1206 -2.6536 0)
(11.2174 -2.51087 0)
(11.3985 -2.41571 0)
(11.5857 -2.32231 0)
(11.8049 -2.25184 0)
(12.0252 -2.19882 0)
(12.2306 -2.13014 0)
(12.4531 -2.05707 0)
(12.6684 -1.97416 0)
(12.8955 -1.87973 0)
(13.1387 -1.78941 0)
(13.4008 -1.70312 0)
(9.71723 -2.02564 0)
(10.4548 -2.51733 0)
(10.8288 -2.5213 0)
(10.9995 -2.42666 0)
(11.0298 -2.31769 0)
(11.0036 -2.20604 0)
(11.0183 -2.09054 0)
(11.0785 -1.98444 0)
(11.2111 -1.9044 0)
(11.3539 -1.84694 0)
(11.5208 -1.79156 0)
(11.6658 -1.73843 0)
(11.8257 -1.67456 0)
(11.9643 -1.61058 0)
(12.124 -1.54548 0)
(12.2817 -1.46496 0)
(12.463 -1.38533 0)
(12.6538 -1.31609 0)
(9.84335 -1.62002 0)
(10.6992 -2.13573 0)
(11.0163 -2.04007 0)
(10.9815 -1.86541 0)
(10.7426 -1.72062 0)
(10.4527 -1.60757 0)
(10.2037 -1.51542 0)
(10.0193 -1.4373 0)
(9.89554 -1.38493 0)
(9.80827 -1.33829 0)
(9.7556 -1.28496 0)
(9.72308 -1.22504 0)
(9.72634 -1.16737 0)
(9.73671 -1.10835 0)
(9.79679 -1.05727 0)
(9.85278 -0.99409 0)
(9.95587 -0.937258 0)
(10.0491 -0.888522 0)
(9.95908 -1.36149 0)
(10.1338 -1.76804 0)
(9.52667 -1.55793 0)
(8.71296 -1.30066 0)
(7.95422 -1.10301 0)
(7.34623 -0.950805 0)
(6.89054 -0.851798 0)
(6.5612 -0.787419 0)
(6.32553 -0.746296 0)
(6.16198 -0.714573 0)
(6.05538 -0.682356 0)
(6.0126 -0.651918 0)
(6.00852 -0.623631 0)
(6.04866 -0.589159 0)
(6.12662 -0.565893 0)
(6.21308 -0.530581 0)
(6.35663 -0.504692 0)
(6.47172 -0.481033 0)
(8.56388 -0.690848 0)
(6.28895 -0.680744 0)
(4.36545 -0.420922 0)
(3.13228 -0.292061 0)
(2.41852 -0.250035 0)
(1.99627 -0.233326 0)
(1.74886 -0.235513 0)
(1.60063 -0.238213 0)
(1.51881 -0.236514 0)
(1.48523 -0.231074 0)
(1.4925 -0.222273 0)
(1.5417 -0.210908 0)
(1.62727 -0.199574 0)
(1.7521 -0.186767 0)
(1.91142 -0.175738 0)
(2.0821 -0.157942 0)
(2.32796 -0.161139 0)
(2.46654 -0.106129 0)
(-0.123408 1.17458 0)
(-0.384371 0.995873 0)
(-0.28862 0.641479 0)
(0.107885 0.3502 0)
(0.691989 0.172856 0)
(1.40435 0.0833772 0)
(2.16315 0.0679806 1.14632e-17)
(2.92041 0.0929967 -1.13714e-17)
(3.67705 0.120294 0)
(4.39303 0.178648 -1.11943e-17)
(5.09515 0.243195 0)
(5.77589 0.287049 0)
(6.41932 0.367381 0)
(6.96769 0.477752 1.08616e-17)
(7.43309 0.623151 0)
(7.78849 0.760753 0)
(7.93391 0.927796 -1.05969e-17)
(8.02688 1.09219 0)
(7.92489 1.1907 0)
(7.69802 1.40274 0)
(7.45609 1.44491 1.0281e-17)
(6.97489 1.43065 0)
(6.54739 1.49236 1.01257e-17)
(6.27839 1.21595 0)
(5.98099 0.887707 0)
(5.85338 0.789308 9.94296e-18)
(6.02036 0.727006 0)
(6.3116 0.695946 -9.85705e-18)
(6.64536 0.686266 0)
(6.95377 0.695509 9.6925e-18)
(7.08792 0.758871 0)
(7.11393 0.814616 0)
(7.51094 0.799066 0)
(8.271 0.597607 0)
(9.02836 0.242612 0)
(9.60465 -0.250419 -9.40983e-18)
(10.0144 -0.565827 0)
(10.3732 -0.499387 1.87213e-17)
(10.605 -0.112465 0)
(10.562 0.427336 -1.85768e-17)
(10.2682 0.895432 0)
(9.80699 1.14072 0)
(9.30407 1.20022 1.816e-17)
(8.8523 1.16197 0)
(8.53017 1.07562 1.78539e-17)
(8.29268 0.960204 -1.77089e-17)
(8.13772 0.856325 0)
(8.05407 0.764192 -1.74283e-17)
(7.98948 0.690937 -1.72906e-17)
(7.96966 0.63103 0)
(7.99769 0.575157 0)
(7.99997 0.52164 0)
(7.97924 0.486913 0)
(7.94381 0.456156 0)
(7.86633 0.425827 1.64854e-17)
(7.71401 0.398749 0)
(7.53315 0.39561 -1.62219e-17)
(7.35402 0.386707 0)
(7.13016 0.365786 0)
(6.87157 0.344082 1.58253e-17)
(6.56793 0.302993 0)
(6.2302 0.280913 -1.55589e-17)
(5.85222 0.250771 0)
(5.42151 0.236469 0)
(4.94716 0.212878 0)
(4.39677 0.186519 1.50334e-17)
(3.79627 0.178695 0)
(3.14701 0.168417 0)
(2.42855 0.156796 1.46609e-17)
(1.69111 0.144015 0)
(0.969226 0.11352 1.43912e-17)
(0.264626 0.084552 0)
(-0.437636 0.0496265 0)
(-1.14919 0.0275356 0)
(-1.88497 0.0111289 -1.38655e-17)
(-2.62494 -0.000897251 0)
(-3.32402 -0.0229791 0)
(-3.96193 -0.0515653 -1.3481e-17)
(-4.55708 -0.0772885 -1.33579e-17)
(-5.07444 -0.10458 0)
(-5.56737 -0.150844 -1.31214e-17)
(-6.02932 -0.169711 0)
(-6.40381 -0.193807 -2.577e-17)
(-6.6696 -0.247774 0)
(-6.79531 -0.296952 -2.52877e-17)
(-6.8196 -0.327534 0)
(-6.73138 -0.345142 2.48186e-17)
(-6.64817 -0.30941 0)
(-6.65207 -0.251936 0)
(-6.68694 -0.214035 0)
(-6.83776 -0.219809 -2.40497e-17)
(-7.01929 -0.187847 0)
(-7.1474 -0.154553 2.35485e-17)
(-7.16885 -0.125662 0)
(-7.04462 -0.166789 -2.29817e-17)
(-6.86272 -0.133237 -2.27861e-17)
(-6.55176 -0.156502 -2.26052e-17)
(-6.25937 -0.114212 0)
(-6.08724 -0.120112 0)
(-5.84763 -0.136896 0)
(-5.36737 -0.164711 0)
(-4.93698 -0.141365 0)
(-4.41207 0.0341958 0)
(-3.87549 0.111058 0)
(-3.9834 -0.0208939 0)
(-4.52315 0.121875 2.07166e-17)
(-4.31988 0.0526736 2.03e-17)
(-3.39777 -0.526904 0)
(-2.1515 -0.969677 0)
(-1.45158 -0.682393 0)
(-1.80435 -0.102799 2.11547e-17)
(-2.06565 0.0265625 0)
(-2.07961 -0.138915 0)
(-2.50356 0.0463273 0)
(-3.19916 0.335356 0)
(-3.28288 0.0180306 -2.06863e-17)
(-3.05011 -0.152624 0)
(-2.63874 -0.109332 0)
(-2.23785 -0.143974 2.00697e-17)
(-2.24174 -0.0696167 -1.9908e-17)
(-2.82516 0.0493826 0)
(-3.72498 0.116543 -1.96952e-17)
(-4.9082 0.306958 0)
(-5.56744 0.109123 1.9373e-17)
(-5.60797 -0.105564 0)
(-5.21738 -0.376632 0)
(-3.52458 -0.677651 0)
(-1.12751 -0.480158 0)
(0.108121 -0.449104 0)
(2.08547 -0.327685 -3.6642e-17)
(3.58713 -0.226736 -3.6451e-17)
(4.97497 0.152291 0)
(5.01914 0.186367 0)
(4.66746 0.00755168 0)
(4.90488 -0.0805876 3.56395e-17)
(5.11854 -0.0143122 0)
(5.54356 0.0427606 0)
(6.00324 0.124681 0)
(6.44799 0.113758 3.42451e-17)
(6.78554 0.203944 -3.40241e-17)
(6.82205 0.146761 0)
(6.52177 0.11684 0)
(6.70553 0.151675 -3.28763e-17)
(6.54376 0.236891 -3.26015e-17)
(6.10408 0.173921 0)
(5.9359 0.218235 0)
(5.78462 0.350782 3.15151e-17)
(5.0761 0.401762 -3.13084e-17)
(3.92375 0.412227 0)
(3.00636 0.345798 0)
(1.96512 0.473299 -3.01984e-17)
(0.697749 0.507132 0)
(-0.515786 0.428556 0)
(-1.73325 0.530919 -2.87737e-17)
(-2.75345 0.546552 0)
(-3.35463 0.574276 -2.80558e-17)
(-3.92009 0.481549 0)
(-4.95785 0.520907 0)
(-6.04013 0.6242 0)
(-7.14651 0.903186 2.7119e-17)
(-8.42924 0.690344 0)
(-8.68671 0.469401 0)
(-8.25678 0.156387 0)
(-3.5512 -0.0948783 0)
(-0.585344 0.724486 0)
(-1.70476 0.923157 0)
(-3.0146 0.809444 2.70572e-17)
(-4.53091 0.786169 2.68075e-17)
(-5.05773 0.663319 0)
(-4.4607 0.38756 0)
(-3.33042 0.242251 0)
(-1.96136 0.110348 -2.69426e-17)
(-0.345075 0.0619788 0)
(1.14906 0.0793124 5.42513e-17)
(2.11731 0.115085 -5.43179e-17)
(2.58787 0.199836 -5.4275e-17)
(2.70005 0.253818 5.41961e-17)
(2.48485 0.28743 -5.40873e-17)
(2.05326 0.352317 5.40071e-17)
(1.91244 0.268945 0)
(-0.00578975 3.12969 0)
(0.0084845 2.72409 0)
(0.388006 1.6963 -2.39413e-17)
(0.913133 0.908758 0)
(1.56519 0.443267 2.32991e-17)
(2.21052 0.218373 2.30707e-17)
(2.86516 0.187958 1.14263e-17)
(3.48851 0.243247 1.13421e-17)
(4.1339 0.295416 0)
(4.77423 0.390079 1.12011e-17)
(5.45393 0.543037 0)
(6.1105 0.622845 0)
(6.72276 0.804839 -2.19814e-17)
(7.33353 1.15196 -1.09745e-17)
(7.82214 1.32493 2.16728e-17)
(8.26768 1.83131 2.15205e-17)
(8.56825 2.21652 1.07032e-17)
(8.70295 2.48587 0)
(8.78358 3.12152 0)
(8.75225 3.17722 0)
(8.60909 3.39444 1.01586e-17)
(8.48058 3.93418 0)
(8.3282 3.53222 -2.99411e-17)
(7.93104 3.30656 0)
(7.72208 3.60164 0)
(7.89623 3.15122 -9.77163e-18)
(7.87791 2.33613 0)
(7.53907 1.99034 9.45145e-18)
(7.42734 1.97294 1.85224e-17)
(7.99134 2.12859 -9.15521e-18)
(9.00323 2.49746 0)
(9.87009 2.31034 0)
(10.0933 1.14194 0)
(9.82789 0.421716 1.7816e-17)
(9.60982 1.04272 1.79353e-17)
(9.02048 2.14242 9.36229e-18)
(7.82504 2.79289 0)
(6.5851 3.1531 -1.88161e-17)
(5.61083 3.41595 0)
(4.89305 3.53988 1.85245e-17)
(4.45182 3.5167 0)
(4.17496 3.35694 0)
(4.01045 3.1307 -1.81039e-17)
(3.92572 2.86639 0)
(3.91068 2.59185 -5.35044e-17)
(3.94754 2.31992 1.76987e-17)
(4.04018 2.0698 0)
(4.14404 1.84882 1.74203e-17)
(4.24776 1.67946 1.72757e-17)
(4.35463 1.55977 0)
(4.46478 1.469 0)
(4.52841 1.3682 0)
(4.56025 1.29737 0)
(4.54896 1.24112 0)
(4.46733 1.18275 -1.63734e-17)
(4.34555 1.13362 -3.24487e-17)
(4.22109 1.08598 1.60738e-17)
(4.04329 1.01638 0)
(3.83005 0.94976 -3.15507e-17)
(3.58763 0.867342 1.56276e-17)
(3.33091 0.773192 0)
(3.09219 0.672949 1.53185e-17)
(2.78988 0.608267 0)
(2.40009 0.571064 0)
(1.95321 0.522888 2.97259e-17)
(1.45467 0.472456 -1.47272e-17)
(0.884241 0.481872 2.92011e-17)
(0.223367 0.464628 -2.89479e-17)
(-0.471874 0.402911 -1.43425e-17)
(-1.09924 0.263981 0)
(-1.64642 0.0894506 -1.40518e-17)
(-2.17224 -0.033774 0)
(-2.70608 -0.127345 0)
(-3.26971 -0.172923 0)
(-3.85702 -0.212016 -1.34838e-17)
(-4.43258 -0.314482 0)
(-4.9418 -0.458678 -2.65487e-17)
(-5.374 -0.58771 3.95351e-17)
(-5.78565 -0.677164 1.30893e-17)
(-6.17441 -0.766847 0)
(-6.54283 -0.860236 1.29062e-17)
(-6.86315 -0.91832 0)
(-7.12735 -0.984975 2.53661e-17)
(-7.27458 -1.17367 0)
(-7.27217 -1.31028 2.49915e-17)
(-7.11707 -1.39698 -4.94419e-17)
(-6.88364 -1.45315 -2.44478e-17)
(-6.48819 -1.26533 0)
(-6.26885 -1.04135 0)
(-6.17811 -0.752747 0)
(-6.29822 -0.674604 2.29081e-17)
(-6.45546 -0.588253 0)
(-6.51525 -0.584451 -2.23528e-17)
(-6.45195 -0.661927 0)
(-6.14603 -0.852422 6.54181e-17)
(-5.88408 -0.892472 2.16236e-17)
(-5.5418 -0.901872 2.14983e-17)
(-5.18127 -0.704223 0)
(-4.87174 -0.497647 0)
(-4.42941 -0.65631 0)
(-3.81927 -0.873519 0)
(-3.38744 -0.760896 0)
(-2.48186 -0.911003 4.02298e-17)
(-1.39318 -0.737853 3.97918e-17)
(-2.14339 0.237402 0)
(-2.79393 0.221543 -1.99155e-17)
(-1.54717 -1.05271 -1.84684e-17)
(-0.473265 -1.61274 0)
(-1.36992 -0.83403 -3.90512e-17)
(-2.81749 0.264539 0)
(-3.50607 0.364705 2.10989e-17)
(-4.00177 -0.100848 0)
(-5.27113 0.213957 0)
(-6.1096 0.478957 -4.28964e-17)
(-6.10204 -0.162158 0)
(-6.31767 -0.569243 2.0037e-17)
(-5.96305 -0.893729 0)
(-5.37148 -1.16682 0)
(-5.19373 -0.781173 1.93298e-17)
(-5.09686 -0.0855151 1.92446e-17)
(-5.3036 0.513844 0)
(-6.04163 0.628497 -1.91766e-17)
(-6.78465 0.296117 0)
(-6.8903 -0.178891 1.88281e-17)
(-7.0198 -0.41003 3.74e-17)
(-5.92525 -1.44752 0)
(-4.92866 -2.67675 0)
(-1.49456 -2.24217 0)
(-1.00095 -2.09049 0)
(1.75731 -2.06045 3.56011e-17)
(3.82717 -1.93492 1.0546e-16)
(6.45332 -0.9752 0)
(7.88464 0.202105 0)
(7.78219 0.305086 0)
(7.9454 -0.00358092 -3.4548e-17)
(7.84306 -0.0866756 0)
(8.00585 -0.327487 0)
(8.18821 -0.28147 6.62568e-17)
(8.51531 -0.315202 3.26155e-17)
(9.08029 -0.0637048 3.23523e-17)
(9.66707 0.201491 0)
(8.88674 0.183041 0)
(8.78239 0.0671659 3.0756e-17)
(8.75624 0.368141 -3.0467e-17)
(7.88828 0.159046 0)
(7.37051 -0.0817452 0)
(7.69661 0.110181 -2.89806e-17)
(7.69932 0.593482 8.64639e-17)
(6.48425 0.774388 0)
(5.4527 0.752741 0)
(4.14577 0.888048 2.78595e-17)
(2.73922 0.915294 0)
(1.60249 1.02172 5.41093e-17)
(-0.064579 1.14529 -2.64708e-17)
(-1.43226 0.483461 0)
(-1.65984 0.364701 2.52798e-17)
(-1.3064 0.584292 5.04124e-17)
(-2.55927 1.05988 0)
(-4.31619 1.05919 0)
(-6.10186 1.68493 -2.45225e-17)
(-7.60577 1.02728 0)
(-8.10561 0.035187 4.96404e-17)
(-12.2804 -1.03718 0)
(-8.79817 -2.57214 0)
(1.42905 -0.637691 0)
(2.21055 1.65926 0)
(-0.0437718 2.09872 -2.47621e-17)
(-2.57978 1.77167 -2.41587e-17)
(-2.90822 0.900486 0)
(-1.71309 0.143439 0)
(-0.426576 -0.0856995 0)
(0.807106 -0.23485 2.49888e-17)
(2.26088 -0.226208 0)
(3.03911 0.0937589 -5.21223e-17)
(2.87055 0.53616 5.26252e-17)
(2.35616 0.886547 5.28134e-17)
(1.43034 1.08446 5.29433e-17)
(0.341539 1.12447 5.2788e-17)
(-0.592164 1.06453 5.28426e-17)
(-1.21999 0.826141 0)
(0.0106525 4.52136 0)
(0.361702 3.62177 0)
(0.966081 2.15433 2.40574e-17)
(1.54909 1.25374 2.35578e-17)
(2.0963 0.832266 -2.32473e-17)
(2.55909 0.723542 -2.30576e-17)
(2.997 0.811785 -5.60816e-21)
(3.41471 0.925179 0)
(3.905 0.981404 0)
(4.46264 1.03071 0)
(5.07436 1.04843 0)
(5.7421 1.26807 0)
(6.32757 1.49407 6.74046e-17)
(6.93797 1.83111 0)
(7.43728 2.43798 -2.2186e-17)
(7.71412 2.89454 -2.18077e-17)
(8.12914 3.6607 0)
(8.13395 4.29027 0)
(8.20417 4.62508 0)
(8.31623 5.41534 0)
(7.92103 5.54555 -2.05897e-17)
(7.92004 5.52825 0)
(8.04083 6.2461 2.03114e-17)
(7.86481 6.01117 0)
(7.66228 4.72897 0)
(7.56534 4.25664 0)
(7.67661 4.95061 3.80787e-17)
(8.03772 5.09279 0)
(8.46349 3.67158 -1.86178e-17)
(8.43717 1.7878 3.6404e-17)
(8.20264 1.25614 0)
(8.03632 2.56406 0)
(7.10968 4.34244 0)
(5.49943 5.38331 -1.91989e-17)
(4.18173 5.79943 -1.90945e-17)
(3.29134 6.02859 0)
(2.67591 6.03442 0)
(2.2696 5.89862 3.76873e-17)
(1.99056 5.70813 3.74658e-17)
(1.83731 5.46741 -3.72339e-17)
(1.81802 5.19517 0)
(1.90594 4.88169 0)
(2.05864 4.51555 0)
(2.26642 4.1416 0)
(2.48598 3.77207 3.60372e-17)
(2.70967 3.42855 3.57845e-17)
(2.95116 3.09465 -3.55193e-17)
(3.186 2.80968 0)
(3.40758 2.59757 0)
(3.6165 2.43447 0)
(3.76247 2.31797 0)
(3.88153 2.20262 3.40263e-17)
(3.99262 2.12222 0)
(4.00711 2.05768 0)
(3.95499 1.97835 3.30181e-17)
(3.8356 1.9034 3.26847e-17)
(3.66669 1.79693 0)
(3.4723 1.65613 -6.41431e-17)
(3.24539 1.52716 3.17688e-17)
(3.00807 1.35131 -3.14747e-17)
(2.72619 1.21312 0)
(2.42301 1.07141 0)
(2.07209 0.964825 0)
(1.66798 0.919933 0)
(1.28632 0.84044 -2.97331e-17)
(0.925639 0.7647 -5.88494e-17)
(0.455975 0.774556 -2.91336e-17)
(-0.131853 0.733852 2.89219e-17)
(-0.795541 0.520895 0)
(-1.47045 0.156502 -5.74211e-17)
(-2.0377 -0.119318 -5.6931e-17)
(-2.49146 -0.252979 -5.62487e-17)
(-2.90736 -0.374387 5.56029e-17)
(-3.39907 -0.456096 0)
(-3.84344 -0.553063 8.18663e-17)
(-4.30524 -0.720707 0)
(-4.74135 -0.960217 -2.71148e-17)
(-5.16164 -1.14083 -2.69995e-17)
(-5.59841 -1.24943 0)
(-6.09779 -1.32177 0)
(-6.60607 -1.4092 -5.35583e-17)
(-7.02527 -1.50976 0)
(-7.36604 -1.59249 -5.29262e-17)
(-7.60442 -1.91711 0)
(-7.75814 -2.1924 5.27556e-17)
(-7.64986 -2.36904 1.04531e-16)
(-7.52853 -2.57722 0)
(-6.97053 -2.35928 0)
(-6.54075 -1.94683 0)
(-6.03187 -1.29618 4.74356e-17)
(-5.93136 -1.18673 0)
(-5.74501 -1.07397 4.50588e-17)
(-5.60782 -1.09665 0)
(-5.39268 -1.26137 0)
(-4.92209 -1.39135 -8.73004e-17)
(-4.37545 -1.28554 0)
(-3.95892 -1.30302 -4.29578e-17)
(-3.62886 -1.18152 0)
(-3.42789 -1.1444 -4.2342e-17)
(-2.98226 -1.43412 0)
(-2.5887 -1.3829 0)
(-2.07073 -1.45964 0)
(-1.06513 -1.66919 -1.24126e-16)
(-1.15346 -0.35061 -4.15104e-17)
(-2.04361 0.981449 0)
(-0.705641 -0.388211 0)
(0.0150604 -1.76347 0)
(-1.35172 -0.805197 0)
(-3.30052 0.571359 4.08979e-17)
(-4.37792 0.654549 -8.4267e-17)
(-4.9384 0.535101 -4.17907e-17)
(-6.52921 1.0699 8.36823e-17)
(-7.99407 1.06505 8.45483e-17)
(-8.44713 0.258501 4.12764e-17)
(-9.07321 -0.118796 0)
(-9.17065 -0.823256 8.10184e-17)
(-8.78005 -1.58381 0)
(-8.97972 -1.29156 -7.60057e-17)
(-8.38853 -1.07198 -3.85239e-17)
(-7.78601 -0.620591 0)
(-7.87326 0.237624 7.47663e-17)
(-8.01433 0.572119 3.76757e-17)
(-8.05482 0.164818 0)
(-8.25498 -0.35629 3.74271e-17)
(-8.01332 -0.982486 -1.12278e-16)
(-6.34468 -2.4527 0)
(-5.66131 -4.45819 0)
(-2.91421 -3.49829 0)
(-2.95392 -3.15146 0)
(0.268794 -3.90589 -7.41697e-17)
(2.48051 -3.74941 -7.27355e-17)
(5.45489 -2.62136 0)
(7.71922 -0.575236 0)
(8.35523 -0.0529691 0)
(9.16107 -0.0810677 0)
(9.64836 0.15249 0)
(9.86899 -0.118458 0)
(9.97651 -0.023628 -6.60305e-17)
(9.80332 -0.255226 2.36753e-20)
(9.95982 -0.300917 0)
(11.0716 0.30902 0)
(10.3351 0.637198 -6.22216e-17)
(9.47248 0.213209 0)
(9.87979 0.683412 5.92263e-17)
(8.98188 0.662358 5.75246e-17)
(7.39652 0.0846729 0)
(7.45563 0.0546874 0)
(8.55733 0.725057 -5.63672e-17)
(7.63004 1.18022 -1.10091e-16)
(7.02026 1.27428 0)
(5.94071 1.65452 0)
(4.33857 1.43487 0)
(3.3713 1.43599 -5.18017e-17)
(2.03333 2.00933 5.04931e-17)
(0.226318 1.33174 0)
(-1.46477 0.755972 1.05804e-16)
(-0.864562 0.952404 5.22509e-17)
(-0.375764 1.99924 -9.83315e-17)
(-2.02337 2.19814 0)
(-4.37001 2.84642 0)
(-6.02848 2.78984 -9.11824e-17)
(-9.61177 3.15383 -5.80463e-17)
(-19.0736 2.41515 0)
(-15.2467 -7.2085 0)
(0.088356 -3.49642 0)
(3.57063 2.88915 0)
(1.32332 3.53784 -9.48994e-17)
(-1.15367 2.93846 0)
(-1.21276 1.28665 0)
(-0.0555296 0.2667 0)
(0.911641 0.066808 0)
(1.86838 -0.138311 0)
(2.56838 0.112283 0)
(2.46693 0.752811 -1.03239e-16)
(1.60044 1.29142 0)
(0.553675 1.74302 0)
(-0.443819 1.88387 -2.07959e-16)
(-1.19189 1.87405 1.04064e-16)
(-2.26249 1.95598 -1.04692e-16)
(-3.01912 1.43089 1.05175e-16)
(0.0187779 5.56548 0)
(0.557319 3.93012 -4.88341e-17)
(1.13498 2.41439 0)
(1.60911 1.77512 -2.34251e-17)
(1.93841 1.62761 0)
(2.2211 1.70877 0)
(2.51082 1.78683 2.30341e-17)
(2.91917 1.74587 0)
(3.42192 1.60402 0)
(4.00021 1.51637 0)
(4.64847 1.47099 0)
(5.23886 1.56645 0)
(5.8297 1.93085 -8.98505e-17)
(6.27261 2.57426 -4.45142e-17)
(6.69802 3.30314 4.3953e-17)
(6.91296 4.09825 0)
(7.06612 5.06094 0)
(7.13922 5.89363 0)
(7.07464 6.53867 0)
(7.1146 7.26126 0)
(7.12086 7.71565 -4.23807e-17)
(6.74719 7.44392 -4.05911e-17)
(6.73082 7.05843 3.92252e-17)
(7.01307 7.51404 -3.97976e-17)
(6.899 7.96172 0)
(6.85037 6.75753 0)
(7.15772 5.00088 -3.68919e-17)
(7.61696 4.09106 0)
(7.57901 4.72993 0)
(6.31104 6.37287 -3.88963e-17)
(4.33448 7.44274 -3.90495e-17)
(2.85929 7.85976 -3.89117e-17)
(2.02631 8.1866 0)
(1.43796 8.30369 0)
(0.956935 8.30893 3.85807e-17)
(0.617578 8.23602 0)
(0.439673 8.0267 0)
(0.417441 7.69784 -3.7977e-17)
(0.554716 7.30294 3.77532e-17)
(0.777704 6.87111 -3.75093e-17)
(1.01615 6.41463 0)
(1.3031 5.96346 0)
(1.60227 5.51764 -7.33704e-17)
(1.91962 5.08456 0)
(2.20549 4.65409 -7.22679e-17)
(2.45791 4.25578 -1.07585e-16)
(2.70211 3.90523 1.06832e-16)
(2.98052 3.60047 -7.07447e-17)
(3.21421 3.33044 0)
(3.4133 3.12014 0)
(3.57889 2.96715 -6.93223e-17)
(3.71892 2.85502 -3.43983e-17)
(3.88084 2.77968 0)
(3.97248 2.71411 0)
(4.01485 2.6705 -3.34807e-17)
(3.98534 2.59745 -6.63027e-17)
(3.86971 2.48887 0)
(3.72166 2.32799 6.50331e-17)
(3.51823 2.1477 -6.44736e-17)
(3.32549 1.97748 6.39319e-17)
(3.08842 1.76613 0)
(2.74024 1.55802 0)
(2.3376 1.35706 0)
(1.87055 1.19979 0)
(1.39792 1.02484 0)
(1.03141 0.890609 5.98255e-17)
(0.694365 0.888534 0)
(0.334658 0.948475 0)
(-0.148825 0.815701 0)
(-0.727205 0.338476 1.15313e-16)
(-1.43555 -0.227767 5.76202e-17)
(-2.11466 -0.619425 5.73283e-17)
(-2.57556 -0.782841 -1.13639e-16)
(-3.10827 -0.861738 5.6295e-17)
(-3.49237 -1.02543 -5.58177e-17)
(-3.88381 -1.15711 0)
(-4.23205 -1.3861 5.51109e-17)
(-4.67732 -1.57871 0)
(-5.08625 -1.68092 0)
(-5.62651 -1.70172 0)
(-6.23098 -1.85145 1.081e-16)
(-6.7845 -2.06985 -5.39706e-17)
(-7.18566 -2.2 -5.37063e-17)
(-7.51509 -2.59587 -1.07252e-16)
(-7.83621 -3.04661 -1.60712e-16)
(-7.98236 -3.36071 -5.32361e-17)
(-8.04693 -3.83323 0)
(-7.70691 -3.84448 -1.0407e-16)
(-7.39387 -3.3821 0)
(-6.66689 -2.35898 -1.47767e-16)
(-6.45911 -1.96891 0)
(-6.10261 -1.67443 -1.40736e-16)
(-5.72588 -1.65062 0)
(-5.15617 -1.96217 0)
(-4.68812 -2.39723 -4.54391e-17)
(-4.01267 -2.25368 0)
(-3.2965 -1.94562 4.51103e-17)
(-2.48922 -1.60167 8.72724e-17)
(-1.79209 -1.40115 4.2456e-17)
(-1.41086 -1.60712 8.48946e-17)
(-0.971902 -1.96224 -8.51717e-17)
(-0.282067 -2.26159 -8.33653e-17)
(-0.242037 -1.75766 1.66223e-16)
(-0.98148 -0.130495 0)
(-0.324506 -0.305889 0)
(1.07669 -1.40115 7.71615e-17)
(-0.459718 -0.639965 -7.73694e-17)
(-3.02498 0.968609 0)
(-4.10873 1.63088 0)
(-4.91906 1.53126 8.39442e-17)
(-6.55818 1.66471 0)
(-8.49414 1.90404 1.07521e-19)
(-9.60993 1.29714 1.02189e-19)
(-10.4746 0.68208 8.19766e-17)
(-11.5618 0.0916678 0)
(-11.6155 -1.31502 -7.89397e-17)
(-11.9832 -1.68866 0)
(-11.7044 -2.00306 7.91505e-17)
(-10.777 -2.29898 0)
(-10.6492 -0.938682 0)
(-10.1268 0.330442 -7.56938e-17)
(-9.45841 0.149585 -7.5725e-17)
(-9.43612 -0.344068 0)
(-9.38818 -0.896641 -7.64279e-17)
(-8.15188 -1.91682 1.55796e-16)
(-5.85107 -3.63379 0)
(-4.22887 -5.7666 0)
(-3.93807 -4.20064 0)
(-3.28312 -4.5679 0)
(-0.121161 -6.01195 7.76299e-17)
(1.65885 -5.91312 -1.55039e-16)
(4.80076 -4.32906 0)
(6.69811 -1.37608 0)
(7.30314 -0.637682 0)
(8.17117 -0.653137 0)
(9.67761 -0.234973 0)
(10.6322 -0.445422 0)
(11.17 -0.0243446 0)
(10.9049 -0.199534 6.46406e-17)
(10.7045 -0.532285 0)
(11.9969 0.36231 0)
(11.4646 1.29968 6.2335e-17)
(9.64023 0.444094 0)