/*--------------------------------*- C++ -*----------------------------------*\
| =========                 |                                                 |
| \\      /  F ield         | OpenFOAM: The Open Source CFD Toolbox           |
|  \\    /   O peration     | Version:  dev                                   |
|   \\  /    A nd           | Web:      http://www.openfoam.org               |
|    \\/     M anipulation  |                                                 |
\*---------------------------------------------------------------------------*/
FoamFile
{
    version     2.0;
    format      ascii;
    class       volVectorField;
    object      UMean;
    location    "9.138";
}
// * * * * * * * * * * * * * * * * * * * * * * * * * * * * * * * * * * * * * //

dimensions      [0 1 -1 0 0 0 0];

internalField   nonuniform List<vector> 
12225
(
(7.00367 0.430275 0)
(4.43881 0.192552 0)
(2.55671 0.0311594 0)
(2.51085 -0.0166622 0)
(1.38438 0.019374 0)
(2.26731 -0.0342847 0)
(0.989451 0.0489914 0)
(2.18253 -0.0591832 0)
(0.797412 0.0716671 0)
(2.29175 -0.097859 0)
(0.688651 0.099381 0)
(2.74365 -0.138635 0)
(0.948112 0.102621 0)
(3.39707 -0.172132 0)
(3.53182 -0.16848 0)
(4.69592 0.049958 0)
(14.8467 -2.43412 0)
(7.11862 5.13388 0)
(9.54628 0.981589 0)
(9.54344 0.860881 0)
(6.6867 0.466298 0)
(7.5904 0.214544 0)
(4.0903 0.140335 0)
(6.84311 0.0107846 0)
(2.66482 0.132686 0)
(6.68921 -0.0903502 0)
(1.82233 0.141869 0)
(7.03916 -0.165099 0)
(1.26036 0.123926 0)
(8.12185 -0.414504 0)
(1.38505 0.252445 0)
(9.95559 -1.44255 0)
(3.4358 0.271721 0)
(12.3892 -4.06861 0)
(10.431 -1.92804 0)
(7.77564 0.485676 0)
(9.11843 0.763498 0)
(12.1669 0.951401 0)
(8.32942 0.623987 0)
(11.8321 0.443405 0)
(6.22569 0.310341 0)
(11.4131 0.206429 0)
(4.58232 0.221569 0)
(11.3151 -0.0195855 0)
(3.87381 0.19302 0)
(11.3766 -0.277938 0)
(4.35028 0.187301 0)
(11.253 -0.72323 0)
(5.7284 0.175947 0)
(11.0907 -1.49193 0)
(7.21491 0.0526877 0)
(12.1186 -3.86698 0)
(6.93265 0.350652 0)
(9.35338 -2.39004 0)
(7.21884 0.524963 0)
(13.9931 0.961022 0)
(7.92964 0.609487 0)
(14.2955 0.553862 0)
(7.47414 0.420945 0)
(14.1166 0.27103 0)
(7.17554 0.396757 0)
(13.7387 -0.145178 0)
(7.25653 0.459653 0)
(13.2699 -0.698829 0)
(7.65916 0.576785 0)
(12.8749 -1.42282 0)
(8.26661 0.699283 0)
(12.6516 -2.31343 0)
(9.02314 0.0413169 0)
(11.888 -3.6371 0)
(8.68414 -1.43256 0)
(8.36408 0.681825 0)
(6.42384 0.569983 0)
(14.0113 0.565913 0)
(8.4734 0.674491 0)
(13.9584 0.284528 0)
(9.16924 0.636727 0)
(13.6439 -0.00260114 0)
(9.51705 0.657902 0)
(13.2143 -0.388752 0)
(9.59196 0.734451 0)
(12.8133 -0.871411 0)
(9.44552 0.876952 0)
(12.5829 -1.52148 0)
(9.14961 1.08987 0)
(12.5708 -2.4901 0)
(8.82696 1.13189 0)
(11.6166 -5.0283 0)
(8.54131 1.26619 0)
(8.72254 0.128701 0)
(7.95619 0.616821 0)
(11.8035 0.152439 0)
(9.50489 0.654715 0)
(11.7399 0.0502582 0)
(10.0881 0.693906 0)
(11.601 -0.165657 0)
(10.3205 0.725831 0)
(11.4768 -0.457529 0)
(10.3004 0.783025 0)
(11.3902 -0.853676 0)
(10.0327 0.832062 0)
(11.356 -1.40022 0)
(9.49245 0.801252 0)
(11.4186 -2.13858 0)
(8.80095 0.725875 0)
(10.9982 -3.92045 0)
(7.73342 1.33563 0)
(9.48928 -0.217567 0)
(9.34372 0.812624 0)
(10.4394 -0.265956 0)
(10.1405 0.930453 0)
(10.5544 -0.304539 0)
(10.3985 1.01994 0)
(10.5825 -0.502907 0)
(10.52 1.07546 0)
(10.6261 -0.781211 0)
(10.5634 1.15346 0)
(10.6725 -1.15781 0)
(10.5153 1.23533 0)
(10.7008 -1.63583 0)
(10.3668 1.26142 0)
(10.6889 -2.32743 0)
(10.0531 1.27143 0)
(10.3766 -3.95413 0)
(8.29918 2.01902 0)
(9.69722 -0.951816 0)
(9.84869 0.70107 0)
(10.1566 -0.326 0)
(10.4063 0.85497 0)
(10.3903 -0.349884 0)
(10.58 0.906768 0)
(10.4711 -0.493978 0)
(10.7014 0.892875 0)
(10.5525 -0.68629 0)
(10.8052 0.872696 0)
(10.6443 -0.935275 0)
(10.8809 0.823869 0)
(10.7359 -1.2328 0)
(10.908 0.671456 0)
(10.7543 -1.67268 0)
(10.7229 0.519887 0)
(10.4929 -2.4741 0)
(8.8938 0.980987 0)
(9.96407 -0.48396 0)
(10.0855 0.802163 0)
(10.0201 -0.583414 0)
(10.5353 1.02134 0)
(10.311 -0.604476 0)
(10.6749 1.0749 0)
(10.4403 -0.724968 0)
(10.7774 1.04812 0)
(10.5711 -0.890078 0)
(10.8572 1.00361 0)
(10.7116 -1.11786 0)
(10.8988 0.921092 0)
(10.832 -1.39505 0)
(10.8741 0.734771 0)
(10.8223 -1.76098 0)
(10.6023 0.505747 0)
(10.5208 -2.0689 0)
(9.35023 0.586412 0)
(10.0238 -0.391427 0)
(10.139 0.64858 0)
(10.0424 -0.511995 0)
(10.5102 0.877973 0)
(10.3335 -0.456553 0)
(10.6213 0.869198 0)
(10.4821 -0.493728 0)
(10.6978 0.778243 0)
(10.6291 -0.57227 0)
(10.7342 0.657929 0)
(10.7637 -0.695499 0)
(10.7179 0.495618 0)
(10.8404 -0.845163 0)
(10.6183 0.264164 0)
(10.7656 -1.03234 0)
(10.2825 0.0703553 0)
(10.4795 -1.05306 0)
(9.62356 0.124198 0)
(10.2071 -0.0329919 0)
(10.141 0.699916 0)
(10.0707 -0.691916 0)
(10.4525 0.902416 0)
(10.2986 -0.618934 0)
(10.5375 0.847565 0)
(10.4303 -0.64556 0)
(10.6032 0.735206 0)
(10.5608 -0.707455 0)
(10.6273 0.586725 0)
(10.6605 -0.79131 0)
(10.6092 0.383088 0)
(10.6814 -0.869327 0)
(10.527 0.117006 0)
(10.5711 -0.922125 0)
(10.2916 -0.113842 0)
(10.3611 -0.765091 0)
(10.02 -0.15426 0)
(10.2458 -0.125252 0)
(10.0968 0.467975 0)
(10.1508 -0.495195 0)
(10.3536 0.59573 0)
(10.2934 -0.374729 0)
(10.4203 0.527539 0)
(10.4094 -0.354927 0)
(10.4848 0.418891 0)
(10.524 -0.374355 0)
(10.5131 0.275738 0)
(10.5994 -0.41483 0)
(10.5157 0.0933313 0)
(10.5972 -0.461803 0)
(10.4767 -0.10332 0)
(10.4997 -0.50025 0)
(10.3573 -0.232129 0)
(10.3647 -0.405742 0)
(10.2661 -0.219866 0)
(10.3741 -0.110322 0)
(10.0501 0.410935 0)
(10.1755 -0.487316 0)
(10.2549 0.437145 0)
(10.2379 -0.367565 0)
(10.3088 0.367324 0)
(10.3307 -0.345649 0)
(10.3793 0.250823 0)
(10.4247 -0.355373 0)
(10.4227 0.0994356 0)
(10.4824 -0.374955 0)
(10.4463 -0.0797457 0)
(10.4819 -0.403486 0)
(10.4331 -0.246733 0)
(10.4263 -0.431323 0)
(10.3774 -0.33926 0)
(10.3688 -0.392715 0)
(10.3573 -0.320608 0)
(10.4225 -0.276608 0)
(10.0153 0.199587 0)
(10.1907 -0.285893 0)
(10.1932 0.167303 0)
(10.2052 -0.179386 0)
(10.2293 0.131646 0)
(10.2792 -0.171462 0)
(10.3062 0.0472184 0)
(10.3626 -0.197877 0)
(10.366 -0.0587399 0)
(10.4143 -0.235829 0)
(10.4056 -0.176056 0)
(10.4268 -0.28653 0)
(10.4125 -0.275061 0)
(10.4113 -0.331752 0)
(10.3996 -0.324211 0)
(10.4067 -0.337292 0)
(10.411 -0.316121 0)
(10.4699 -0.304953 0)
(9.99662 0.0970879 0)
(10.1445 -0.185934 0)
(10.1463 0.0216298 0)
(10.1501 -0.133724 0)
(10.1622 -0.00866016 0)
(10.2089 -0.146227 0)
(10.241 -0.0769962 0)
(10.2919 -0.1868 0)
(10.311 -0.159452 0)
(10.3486 -0.238043 0)
(10.3576 -0.244865 0)
(10.3792 -0.298402 0)
(10.3806 -0.316375 0)
(10.394 -0.350177 0)
(10.396 -0.361127 0)
(10.4186 -0.380307 0)
(10.424 -0.381173 0)
(10.479 -0.387384 0)
(9.99369 0.0154776 0)
(10.106 -0.0858453 0)
(10.1089 -0.0443471 0)
(10.1138 -0.0933016 0)
(10.1188 -0.0749162 0)
(10.1675 -0.118993 0)
(10.198 -0.120651 0)
(10.2519 -0.163901 0)
(10.2741 -0.180636 0)
(10.3154 -0.219241 0)
(10.3279 -0.244017 0)
(10.3598 -0.277916 0)
(10.366 -0.30144 0)
(10.394 -0.329117 0)
(10.3997 -0.347114 0)
(10.433 -0.370935 0)
(10.4357 -0.383933 0)
(10.4885 -0.397174 0)
(9.9918 0.0047378 0)
(10.0637 -0.0251778 0)
(10.0568 -0.0349363 0)
(10.0679 -0.0664998 0)
(10.0779 -0.0757427 0)
(10.1281 -0.0998058 0)
(10.1574 -0.115992 0)
(10.2111 -0.144768 0)
(10.2338 -0.16905 0)
(10.2783 -0.19966 0)
(10.2921 -0.226664 0)
(10.3301 -0.257151 0)
(10.3385 -0.283446 0)
(10.3733 -0.312195 0)
(10.379 -0.336959 0)
(10.4154 -0.365706 0)
(10.4148 -0.388234 0)
(10.4636 -0.407674 0)
(9.99158 0.0141465 0)
(10.0467 0.0161527 0)
(10.0399 -0.0105915 0)
(10.0576 -0.0377043 0)
(10.0749 -0.0565602 0)
(10.1255 -0.0778907 0)
(10.1555 -0.0989104 0)
(10.2072 -0.123882 0)
(10.2312 -0.149062 0)
(10.2754 -0.176711 0)
(10.2912 -0.203524 0)
(10.3293 -0.232266 0)
(10.3396 -0.259486 0)
(10.3738 -0.288444 0)
(10.3802 -0.315784 0)
(10.4142 -0.345867 0)
(10.4134 -0.371738 0)
(10.4568 -0.393578 0)
(9.99167 0.0329007 0)
(10.0502 0.0496372 0)
(10.0566 0.00991673 0)
(10.0799 -0.0181009 0)
(10.1007 -0.0402683 0)
(10.1507 -0.0615165 0)
(10.1819 -0.0836558 0)
(10.2316 -0.106466 0)
(10.2563 -0.130617 0)
(10.2985 -0.155592 0)
(10.3151 -0.181168 0)
(10.3508 -0.207428 0)
(10.3615 -0.233674 0)
(10.3927 -0.260538 0)
(10.3992 -0.28717 0)
(10.4289 -0.315439 0)
(10.4282 -0.341185 0)
(10.4654 -0.362984 0)
(9.98988 0.0407035 0)
(10.0547 0.0526758 0)
(10.0828 -0.00632947 0)
(10.1167 -0.0406699 0)
(10.1419 -0.0641269 0)
(10.1904 -0.0822883 0)
(10.2224 -0.102132 0)
(10.2691 -0.121057 0)
(10.2935 -0.142809 0)
(10.3321 -0.164067 0)
(10.3484 -0.187491 0)
(10.3802 -0.210186 0)
(10.3905 -0.234503 0)
(10.4175 -0.258031 0)
(10.4229 -0.282909 0)
(10.4474 -0.307956 0)
(10.4462 -0.332599 0)
(10.4769 -0.353014 0)
(9.99052 0.031575 0)
(10.0685 0.0220259 0)
(10.1262 -0.0557426 0)
(10.177 -0.0967668 0)
(10.2126 -0.119805 0)
(10.261 -0.132779 0)
(10.2938 -0.147828 0)
(10.3361 -0.161723 0)
(10.3602 -0.17991 0)
(10.3942 -0.197005 0)
(10.4104 -0.217456 0)
(10.4378 -0.236346 0)
(10.4479 -0.2581 0)
(10.4702 -0.278176 0)
(10.4755 -0.300867 0)
(10.4947 -0.322501 0)
(10.494 -0.345364 0)
(10.5188 -0.363661 0)
(9.99117 0.0098725 0)
(10.092 -0.0296901 0)
(10.187 -0.120828 0)
(10.2595 -0.162772 0)
(10.3093 -0.181141 0)
(10.359 -0.187189 0)
(10.3929 -0.196082 0)
(10.4305 -0.204427 0)
(10.4542 -0.218179 0)
(10.4837 -0.230822 0)
(10.5002 -0.247686 0)
(10.5233 -0.262723 0)
(10.5338 -0.281439 0)
(10.5518 -0.298135 0)
(10.5573 -0.318201 0)
(10.5719 -0.336545 0)
(10.5724 -0.357134 0)
(10.5921 -0.373284 0)
(9.99278 -0.0233593 0)
(10.1275 -0.10358 0)
(10.2671 -0.204909 0)
(10.3665 -0.24159 0)
(10.432 -0.250819 0)
(10.4836 -0.248417 0)
(10.5184 -0.250938 0)
(10.5518 -0.253749 0)
(10.5754 -0.263035 0)
(10.6012 -0.271404 0)
(10.6182 -0.284739 0)
(10.6379 -0.296369 0)
(10.6487 -0.312188 0)
(10.6632 -0.325955 0)
(10.6692 -0.343499 0)
(10.6802 -0.358958 0)
(10.6814 -0.377279 0)
(10.6969 -0.391441 0)
(9.99047 -0.0715928 0)
(10.1744 -0.201149 0)
(10.3679 -0.305456 0)
(10.5002 -0.327867 0)
(10.5806 -0.32258 0)
(10.6344 -0.310218 0)
(10.669 -0.305607 0)
(10.6997 -0.302608 0)
(10.7227 -0.306755 0)
(10.7461 -0.310644 0)
(10.7625 -0.319976 0)
(10.7795 -0.32813 0)
(10.7896 -0.340673 0)
(10.8007 -0.351459 0)
(10.8056 -0.366062 0)
(10.8125 -0.378632 0)
(10.8123 -0.394199 0)
(10.8223 -0.406163 0)
(9.992 -0.136351 0)
(10.2447 -0.32299 0)
(10.5027 -0.418996 0)
(10.6712 -0.417629 0)
(10.7628 -0.394183 0)
(10.8175 -0.371122 0)
(10.8494 -0.358964 0)
(10.8772 -0.350617 0)
(10.8961 -0.35014 0)
(10.9149 -0.350548 0)
(10.9254 -0.356446 0)
(10.9356 -0.361588 0)
(10.9375 -0.370898 0)
(10.9394 -0.378769 0)
(10.934 -0.389975 0)
(10.9292 -0.399569 0)
(10.9164 -0.4115 0)
(10.9116 -0.420661 0)
(9.98974 -0.219911 0)
(10.3369 -0.46812 0)
(10.6737 -0.539732 0)
(10.8758 -0.508223 0)
(10.9697 -0.46486 0)
(11.0135 -0.428075 0)
(11.0286 -0.40483 0)
(11.0353 -0.388411 0)
(11.0291 -0.381456 0)
(11.0194 -0.377014 0)
(10.998 -0.378237 0)
(10.9735 -0.379153 0)
(10.9377 -0.383884 0)
(10.8999 -0.387371 0)
(10.8522 -0.393744 0)
(10.8041 -0.399076 0)
(10.746 -0.405404 0)
(10.6943 -0.410189 0)
(9.98331 -0.33207 0)
(10.4676 -0.642309 0)
(10.8829 -0.667106 0)
(11.0725 -0.602652 0)
(11.103 -0.537211 0)
(11.0584 -0.483144 0)
(10.9743 -0.44501 0)
(10.8732 -0.416258 0)
(10.7577 -0.398052 0)
(10.635 -0.383319 0)
(10.5034 -0.374944 0)
(10.3665 -0.366393 0)
(10.224 -0.362516 0)
(10.0772 -0.357071 0)
(9.9284 -0.355929 0)
(9.77678 -0.353342 0)
(9.62555 -0.35305 0)
(9.47558 -0.35122 0)
(10.0025 -0.453666 0)
(10.619 -0.818954 0)
(10.9017 -0.75208 0)
(10.7933 -0.623768 0)
(10.4938 -0.512558 0)
(10.1376 -0.429214 0)
(9.77007 -0.373591 0)
(9.41752 -0.334752 0)
(9.07668 -0.307326 0)
(8.75528 -0.284646 0)
(8.44624 -0.267693 0)
(8.1531 -0.251373 0)
(7.87229 -0.240086 0)
(7.60265 -0.227385 0)
(7.34779 -0.221181 0)
(7.0982 -0.211872 0)
(6.86971 -0.210905 0)
(6.64022 -0.20423 0)
(10.0974 -0.75079 0)
(10.0458 -1.0132 0)
(9.42496 -0.801096 0)
(8.51442 -0.572192 0)
(7.65495 -0.378733 0)
(6.92877 -0.24489 0)
(6.32716 -0.167532 0)
(5.83141 -0.126263 0)
(5.40894 -0.10472 0)
(5.04831 -0.0923408 0)
(4.72818 -0.0849819 0)
(4.4474 -0.0793716 0)
(4.19096 -0.0758282 0)
(3.96203 -0.0719104 0)
(3.75028 -0.0721546 0)
(3.55507 -0.0691033 0)
(3.38282 -0.0802897 0)
(3.21788 -0.0828845 0)
(8.51676 -0.43606 0)
(6.11027 -0.380894 0)
(4.29834 -0.13806 0)
(3.12385 -0.0213944 0)
(2.48106 0.0191282 0)
(2.12043 0.0224669 0)
(1.89619 0.0137077 0)
(1.73486 0.00460956 0)
(1.59881 -0.00157424 0)
(1.47805 -0.0047956 0)
(1.36594 -0.00640893 0)
(1.26377 -0.00672322 0)
(1.16809 -0.00671067 0)
(1.08135 -0.00639264 0)
(0.999304 -0.00666091 0)
(0.919056 -0.00703795 0)
(0.851541 -0.0186155 0)
(0.730995 -0.00614521 0)
(-0.0520048 0.137853 0)
(-0.156885 0.0713559 0)
(-0.206709 0.0162828 0)
(-0.194725 -0.0445112 0)
(-0.11735 -0.0992055 0)
(0.0129425 -0.145213 0)
(0.187075 -0.175728 1.11353e-17)
(0.388888 -0.193664 -1.10603e-17)
(0.60716 -0.198026 0)
(0.829562 -0.192731 -1.09172e-17)
(1.04671 -0.178358 0)
(1.24962 -0.157555 0)
(1.43173 -0.130882 0)
(1.58777 -0.101489 1.06426e-17)
(1.71509 -0.0702096 0)
(1.81093 -0.038118 0)
(1.8744 -0.0059486 -1.04454e-17)
(1.90626 0.0243267 0)
(1.90816 0.05079 0)
(1.88219 0.0724918 0)
(1.83205 0.0894117 1.01961e-17)
(1.76033 0.100908 0)
(1.67097 0.108722 1.00742e-17)
(1.56567 0.111561 0)
(1.44908 0.109602 0)
(1.32392 0.107899 9.8955e-18)
(1.19044 0.111166 0)
(1.04786 0.116275 -9.77917e-18)
(0.899379 0.121521 0)
(0.745562 0.126573 9.6643e-18)
(0.587948 0.130591 0)
(0.428813 0.133064 0)
(0.270407 0.134226 0)
(0.113207 0.134007 0)
(-0.0424863 0.131125 0)
(-0.194606 0.126455 -9.32968e-18)
(-0.341499 0.120377 0)
(-0.482737 0.113913 1.84407e-17)
(-0.616868 0.107449 0)
(-0.743448 0.100237 -1.82217e-17)
(-0.861006 0.0932043 0)
(-0.96969 0.0864151 0)
(-1.06994 0.0786402 1.78885e-17)
(-1.16128 0.0702465 0)
(-1.24435 0.0625143 1.76652e-17)
(-1.31923 0.0552595 -1.75532e-17)
(-1.38541 0.0482547 0)
(-1.44375 0.0422075 -1.73282e-17)
(-1.49535 0.0368821 -1.72151e-17)
(-1.53918 0.0332044 0)
(-1.57542 0.0316108 0)
(-1.60596 0.0315901 0)
(-1.63293 0.0316836 0)
(-1.65731 0.0316545 0)
(-1.6805 0.0325113 1.65281e-17)
(-1.70433 0.0340457 0)
(-1.73013 0.036272 -1.62988e-17)
(-1.75664 0.0383095 0)
(-1.78266 0.0389435 0)
(-1.80816 0.039569 1.59524e-17)
(-1.83388 0.0413571 0)
(-1.86169 0.0425853 -1.57211e-17)
(-1.89148 0.0442366 0)
(-1.92307 0.045728 0)
(-1.95602 0.0465948 0)
(-1.98975 0.0477981 1.52555e-17)
(-2.02392 0.049623 0)
(-2.05878 0.0518377 0)
(-2.09412 0.05424 1.49058e-17)
(-2.13024 0.0557086 0)
(-2.16416 0.0559568 1.46711e-17)
(-2.19501 0.0563486 0)
(-2.22266 0.0565485 0)
(-2.24609 0.0563933 0)
(-2.26435 0.0558015 -1.4205e-17)
(-2.27672 0.0545829 0)
(-2.28388 0.0538684 0)
(-2.28775 0.0538086 -1.38612e-17)
(-2.28875 0.0528559 -1.37478e-17)
(-2.28517 0.0512119 0)
(-2.2752 0.0489575 -1.35225e-17)
(-2.25871 0.0460398 0)
(-2.2353 0.0428849 -2.6602e-17)
(-2.20496 0.03945 0)
(-2.16823 0.03577 -2.61666e-17)
(-2.12496 0.0327133 0)
(-2.07617 0.0303122 2.57377e-17)
(-2.02273 0.0283412 0)
(-1.96472 0.0269043 0)
(-1.90276 0.0259343 0)
(-1.83841 0.025358 -2.49006e-17)
(-1.77142 0.0250983 0)
(-1.70341 0.0250589 2.44988e-17)
(-1.63442 0.0256415 0)
(-1.56517 0.0266961 -2.41095e-17)
(-1.49765 0.029239 -2.39209e-17)
(-1.43101 0.0303984 -2.37366e-17)
(-1.36428 0.0314718 0)
(-1.29936 0.0315356 0)
(-1.23505 0.0327169 0)
(-1.16949 0.0334769 0)
(-1.10484 0.0330717 0)
(-1.03521 0.0319303 0)
(-0.966597 0.0332278 0)
(-0.895804 0.0328539 0)
(-0.828818 0.0351989 2.22128e-17)
(-0.761497 0.0357075 2.20606e-17)
(-0.699292 0.0401507 0)
(-0.638826 0.0414834 0)
(-0.583385 0.0411857 0)
(-0.516046 0.0385422 2.14804e-17)
(-0.453945 0.0426547 0)
(-0.385072 0.0408208 0)
(-0.320196 0.043717 0)
(-0.249282 0.0406231 0)
(-0.176323 0.0431237 -2.0806e-17)
(-0.101228 0.0446994 0)
(-0.0205952 0.0437351 0)
(0.0647844 0.0450077 2.0429e-17)
(0.15407 0.0449288 -2.03075e-17)
(0.246412 0.0442383 0)
(0.343344 0.0481166 -2.00748e-17)
(0.435384 0.0511613 0)
(0.528282 0.0544433 1.98483e-17)
(0.610923 0.0591609 0)
(0.68248 0.0621866 0)
(0.757767 0.0625057 0)
(0.827004 0.063278 0)
(0.906356 0.0605107 0)
(0.979518 0.0611019 -3.83967e-17)
(1.05472 0.0628006 -3.81776e-17)
(1.11403 0.0677116 0)
(1.16382 0.0664283 0)
(1.20891 0.0673702 0)
(1.24676 0.0633829 3.72528e-17)
(1.29575 0.0586839 0)
(1.34602 0.057073 0)
(1.39158 0.0559253 0)
(1.44025 0.0540815 3.62324e-17)
(1.47724 0.0567615 -3.59642e-17)
(1.52019 0.0526746 0)
(1.55928 0.0527125 0)
(1.60074 0.0531686 -3.51495e-17)
(1.6268 0.0582898 -3.48766e-17)
(1.65664 0.0549856 0)
(1.68493 0.0587677 0)
(1.7239 0.055746 3.40437e-17)
(1.76018 0.0659865 -3.37643e-17)
(1.76836 0.0713774 0)
(1.78186 0.0707693 0)
(1.80717 0.0711007 -3.29275e-17)
(1.84038 0.0758598 0)
(1.85397 0.083402 0)
(1.86542 0.0891665 -3.20835e-17)
(1.86475 0.0932802 0)
(1.87897 0.0981326 -3.15235e-17)
(1.88095 0.105103 0)
(1.88663 0.10919 0)
(1.87389 0.120726 0)
(1.86055 0.126606 3.04343e-17)
(1.84567 0.133054 0)
(1.81389 0.142927 0)
(1.74197 0.15457 0)
(1.66574 0.154507 0)
(1.60093 0.15674 0)
(1.51124 0.165592 0)
(1.38328 0.172433 2.88935e-17)
(1.26428 0.173797 2.87395e-17)
(1.08033 0.181804 0)
(0.873428 0.184484 0)
(0.630371 0.183463 0)
(0.414483 0.169767 -2.83221e-17)
(0.192679 0.16269 0)
(0.0409963 0.146506 5.63491e-17)
(-0.159442 0.143954 -5.62395e-17)
(-0.26275 0.123724 -5.606e-17)
(-0.424279 0.126767 5.59558e-17)
(-0.45933 0.096595 -5.57534e-17)
(-0.616692 0.129107 5.57333e-17)
(-0.564259 -0.00404453 0)
(0.0101164 0.248555 0)
(0.0146585 0.191632 0)
(0.0498633 0.00735768 -2.2796e-17)
(0.121272 -0.198692 0)
(0.23623 -0.384603 2.23647e-17)
(0.38856 -0.535933 2.2218e-17)
(0.569714 -0.644746 1.10436e-17)
(0.76958 -0.71063 1.09812e-17)
(0.976852 -0.737176 0)
(1.18097 -0.730827 1.08541e-17)
(1.37327 -0.694899 0)
(1.54646 -0.636495 0)
(1.69654 -0.561751 -2.13199e-17)
(1.81882 -0.477188 -1.05947e-17)
(1.91321 -0.385132 2.10554e-17)
(1.97797 -0.290475 2.09219e-17)
(2.01442 -0.198083 1.03953e-17)
(2.02268 -0.110007 0)
(2.00519 -0.0270032 0)
(1.96194 0.0476777 0)
(1.89682 0.113077 1.01364e-17)
(1.80989 0.172072 0)
(1.70583 0.22481 -3.00369e-17)
(1.58348 0.267466 0)
(1.44515 0.30227 0)
(1.29136 0.332685 -9.83177e-18)
(1.12559 0.356522 0)
(0.950576 0.373706 9.71545e-18)
(0.770161 0.384697 1.93125e-17)
(0.58523 0.391931 -9.59751e-18)
(0.39854 0.394024 0)
(0.211333 0.390243 0)
(0.0232891 0.382995 0)
(-0.165095 0.3761 1.87312e-17)
(-0.35204 0.3676 1.86168e-17)
(-0.536249 0.3554 9.25139e-18)
(-0.714963 0.340682 0)
(-0.888679 0.323624 -1.82764e-17)
(-1.05347 0.303087 0)
(-1.2116 0.281174 1.8051e-17)
(-1.36148 0.258665 0)
(-1.50475 0.235807 0)
(-1.63986 0.215368 -1.77168e-17)
(-1.76776 0.196236 0)
(-1.89091 0.17826 -5.2487e-17)
(-2.00835 0.159465 1.73858e-17)
(-2.11919 0.140534 0)
(-2.22304 0.123657 1.71656e-17)
(-2.32073 0.106068 1.70553e-17)
(-2.41103 0.0865697 0)
(-2.49211 0.0676598 0)
(-2.56607 0.0531287 0)
(-2.6348 0.0436519 0)
(-2.70022 0.0387611 0)
(-2.76178 0.0373243 -1.63737e-17)
(-2.82143 0.036781 -3.25153e-17)
(-2.87953 0.0368105 1.61415e-17)
(-2.93321 0.0341899 0)
(-2.9846 0.0302271 -3.1813e-17)
(-3.03383 0.0288822 1.57875e-17)
(-3.08024 0.029849 0)
(-3.12764 0.0307664 1.55499e-17)
(-3.17285 0.0334484 0)
(-3.21607 0.0348611 0)
(-3.25767 0.0344048 3.03753e-17)
(-3.29828 0.0337555 -1.50673e-17)
(-3.33436 0.0316767 2.98918e-17)
(-3.36789 0.0288948 -2.96505e-17)
(-3.39544 0.0251814 -1.47046e-17)
(-3.41981 0.0203416 0)
(-3.43779 0.0127689 -1.44628e-17)
(-3.44905 0.00258736 0)
(-3.45462 -0.00809999 0)
(-3.4518 -0.0205675 0)
(-3.43981 -0.034748 -1.39829e-17)
(-3.4196 -0.0487176 0)
(-3.39291 -0.0588252 -2.74948e-17)
(-3.36044 -0.0659255 4.08937e-17)
(-3.32264 -0.0743903 1.35161e-17)
(-3.2786 -0.0853892 0)
(-3.22668 -0.0980418 1.32876e-17)
(-3.16952 -0.110661 0)
(-3.10676 -0.122662 2.61236e-17)
(-3.03888 -0.133625 0)
(-2.96604 -0.144071 2.56805e-17)
(-2.88813 -0.153387 -5.0921e-17)
(-2.80632 -0.162243 -2.52466e-17)
(-2.72216 -0.170189 0)
(-2.63301 -0.177726 0)
(-2.54165 -0.183375 0)
(-2.44807 -0.187546 2.44064e-17)
(-2.3512 -0.191594 0)
(-2.2531 -0.194286 -2.40002e-17)
(-2.15504 -0.194641 0)
(-2.05642 -0.196162 7.08193e-17)
(-1.95793 -0.195406 2.34163e-17)
(-1.85889 -0.196349 2.32302e-17)
(-1.76203 -0.193508 0)
(-1.66756 -0.19295 0)
(-1.5725 -0.193891 0)
(-1.4749 -0.194585 0)
(-1.37825 -0.197036 0)
(-1.27592 -0.201352 4.43209e-17)
(-1.17995 -0.1995 4.39851e-17)
(-1.08059 -0.199635 0)
(-0.993475 -0.194004 -2.16749e-17)
(-0.897442 -0.19488 -2.1523e-17)
(-0.810705 -0.188054 0)
(-0.716284 -0.186943 -4.24439e-17)
(-0.638049 -0.186248 0)
(-0.541767 -0.196565 2.09378e-17)
(-0.455995 -0.190772 0)
(-0.350291 -0.199261 0)
(-0.255673 -0.195843 -4.1058e-17)
(-0.142381 -0.204665 0)
(-0.0380554 -0.20481 2.02724e-17)
(0.087531 -0.212663 0)
(0.214405 -0.220452 0)
(0.351086 -0.225122 1.98872e-17)
(0.492546 -0.229762 1.97708e-17)
(0.638795 -0.235339 0)
(0.788918 -0.235895 -1.95334e-17)
(0.949107 -0.236964 0)
(1.10878 -0.228806 1.92967e-17)
(1.27396 -0.219119 3.83633e-17)
(1.42198 -0.212584 0)
(1.57889 -0.213574 0)
(1.72376 -0.213523 0)
(1.88319 -0.214846 0)
(2.02943 -0.20977 3.7231e-17)
(2.18322 -0.206436 1.11008e-16)
(2.31888 -0.187224 0)
(2.4421 -0.182764 0)
(2.56099 -0.172898 0)
(2.66641 -0.175062 -3.60803e-17)
(2.76948 -0.179729 0)
(2.87106 -0.178981 0)
(2.9666 -0.177175 7.06162e-17)
(3.06041 -0.176288 3.50336e-17)
(3.13406 -0.170177 3.47647e-17)
(3.221 -0.179583 0)
(3.28469 -0.173616 0)
(3.35271 -0.175015 3.39203e-17)
(3.39873 -0.163983 -3.36147e-17)
(3.44456 -0.178104 0)
(3.47373 -0.174729 0)
(3.50805 -0.19087 -3.27221e-17)
(3.53593 -0.172979 9.71901e-17)
(3.55038 -0.168713 0)
(3.5608 -0.179608 0)
(3.57204 -0.191304 3.14606e-17)
(3.59251 -0.189226 0)
(3.58823 -0.182799 6.16279e-17)
(3.58623 -0.180935 -3.04729e-17)
(3.55904 -0.18537 0)
(3.5551 -0.194294 2.98469e-17)
(3.53086 -0.190717 5.90591e-17)
(3.5193 -0.192252 0)
(3.47279 -0.185472 0)
(3.44886 -0.194338 -2.85764e-17)
(3.4088 -0.186481 0)
(3.35166 -0.16935 5.58917e-17)
(3.25526 -0.15028 0)
(3.16399 -0.155553 0)
(3.04543 -0.147102 0)
(2.917 -0.121834 0)
(2.72235 -0.102586 -2.6655e-17)
(2.56343 -0.0757651 -2.64658e-17)
(2.27936 -0.0263175 0)
(2.00627 -0.0014338 0)
(1.67689 0.0228187 0)
(1.382 0.0189308 2.59607e-17)
(1.04894 0.023207 0)
(0.841876 0.0140762 -5.16733e-17)
(0.521448 0.0330774 5.1646e-17)
(0.406811 0.00129716 5.14971e-17)
(0.125729 0.0320371 5.14871e-17)
(0.126254 -0.0159983 5.13343e-17)
(-0.169756 0.078749 5.14975e-17)
(0.0172493 -0.117236 0)
(0.0290143 0.070926 0)
(0.121069 -0.0387808 0)
(0.228074 -0.241997 2.29129e-17)
(0.340129 -0.468728 2.26644e-17)
(0.474522 -0.693176 -2.25129e-17)
(0.61857 -0.874986 -2.24002e-17)
(0.772725 -1.0036 -1.48183e-21)
(0.923956 -1.07385 0)
(1.069 -1.08456 0)
(1.19568 -1.04529 0)
(1.30432 -0.965299 0)
(1.39013 -0.855831 0)
(1.45551 -0.725169 6.47121e-17)
(1.49596 -0.584843 0)
(1.51431 -0.439919 -2.13049e-17)
(1.50878 -0.293378 -2.11686e-17)
(1.48224 -0.151901 0)
(1.43328 -0.0183612 0)
(1.36655 0.105511 0)
(1.28182 0.217934 0)
(1.1814 0.317139 -2.05025e-17)
(1.06617 0.399989 0)
(0.941114 0.472138 2.02485e-17)
(0.803523 0.537009 0)
(0.656269 0.591652 0)
(0.500706 0.636408 0)
(0.342221 0.672231 3.95252e-17)
(0.179796 0.69931 0)
(0.0159219 0.718613 -1.95224e-17)
(-0.148951 0.728921 3.88003e-17)
(-0.313079 0.732068 0)
(-0.479465 0.733821 0)
(-0.646042 0.730826 0)
(-0.81139 0.721318 -1.89168e-17)
(-0.973076 0.706036 -1.8796e-17)
(-1.13151 0.684499 0)
(-1.28512 0.657148 0)
(-1.43313 0.625586 3.68594e-17)
(-1.57415 0.591492 3.66197e-17)
(-1.71343 0.557096 -3.63815e-17)
(-1.84766 0.524322 0)
(-1.98009 0.490764 0)
(-2.10689 0.458551 0)
(-2.22998 0.429141 0)
(-2.34886 0.401426 3.52006e-17)
(-2.46171 0.372141 3.4967e-17)
(-2.56941 0.342478 -3.4735e-17)
(-2.67152 0.313926 0)
(-2.76755 0.286014 0)
(-2.85825 0.257001 0)
(-2.94362 0.230167 0)
(-3.02901 0.212366 3.35758e-17)
(-3.10847 0.196461 0)
(-3.18291 0.183255 0)
(-3.25084 0.17546 3.28782e-17)
(-3.31408 0.170282 3.26466e-17)
(-3.37196 0.163389 0)
(-3.42221 0.154007 -6.43599e-17)
(-3.47052 0.147124 3.19486e-17)
(-3.51486 0.14068 -3.17142e-17)
(-3.55345 0.136912 0)
(-3.58911 0.134224 0)
(-3.61875 0.130063 0)
(-3.64348 0.125847 0)
(-3.66566 0.120635 -3.05527e-17)
(-3.68355 0.113236 -6.06462e-17)
(-3.69519 0.10528 -3.00975e-17)
(-3.7031 0.0968126 2.98726e-17)
(-3.70383 0.0852058 0)
(-3.69948 0.0719638 -5.88395e-17)
(-3.68714 0.0558994 -5.83909e-17)
(-3.66953 0.0397459 -5.79458e-17)
(-3.64767 0.0219741 5.75039e-17)
(-3.61701 -0.000282437 0)
(-3.57941 -0.0229277 8.494e-17)
(-3.53597 -0.0423593 0)
(-3.4878 -0.0577512 -2.78771e-17)
(-3.43106 -0.0714492 -2.76642e-17)
(-3.36638 -0.0869325 0)
(-3.29556 -0.103596 0)
(-3.22128 -0.120181 -5.40399e-17)
(-3.1448 -0.134916 0)
(-3.06436 -0.149032 -5.31928e-17)
(-2.9814 -0.162572 0)
(-2.8939 -0.176862 5.2354e-17)
(-2.8029 -0.188158 1.0388e-16)
(-2.70821 -0.197843 0)
(-2.6127 -0.207014 0)
(-2.51415 -0.214502 0)
(-2.41694 -0.2207 5.029e-17)
(-2.31795 -0.226533 0)
(-2.21571 -0.231244 4.94682e-17)
(-2.11062 -0.234543 0)
(-2.00507 -0.233782 0)
(-1.89713 -0.233878 -9.65037e-17)
(-1.79197 -0.231376 0)
(-1.68489 -0.230777 -4.74606e-17)
(-1.58205 -0.224676 0)
(-1.47496 -0.225444 -4.66929e-17)
(-1.36869 -0.224725 0)
(-1.26017 -0.223918 0)
(-1.15297 -0.227799 0)
(-1.04287 -0.230157 -1.3569e-16)
(-0.943058 -0.22178 -4.48688e-17)
(-0.834286 -0.218552 0)
(-0.741399 -0.208133 0)
(-0.639868 -0.209516 0)
(-0.554498 -0.197237 0)
(-0.45031 -0.193549 4.3235e-17)
(-0.364367 -0.18842 -8.58347e-17)
(-0.257422 -0.205243 -4.26322e-17)
(-0.170327 -0.197613 8.46563e-17)
(-0.0506748 -0.213825 8.40937e-17)
(0.0511539 -0.209938 4.1761e-17)
(0.181315 -0.22523 0)
(0.29421 -0.225991 8.23965e-17)
(0.433423 -0.242309 0)
(0.566014 -0.251662 -8.12856e-17)
(0.714855 -0.258682 -4.03847e-17)
(0.861664 -0.263402 0)
(1.01712 -0.271709 7.97632e-17)
(1.16675 -0.274543 3.96284e-17)
(1.32944 -0.282429 0)
(1.48862 -0.280148 3.909e-17)
(1.66267 -0.269518 -1.16508e-16)
(1.82233 -0.257032 0)
(1.98673 -0.255896 0)
(2.13864 -0.255419 0)
(2.29875 -0.258374 0)
(2.45495 -0.253602 -7.5155e-17)
(2.61046 -0.250448 -7.46563e-17)
(2.76134 -0.219288 0)
(2.89892 -0.213879 0)
(3.02979 -0.201806 0)
(3.15142 -0.200487 0)
(3.25858 -0.205633 0)
(3.37829 -0.208502 0)
(3.4916 -0.207541 -7.09528e-17)
(3.60516 -0.205002 -1.65111e-20)
(3.69848 -0.195625 0)
(3.80853 -0.208862 0)
(3.8963 -0.196485 -6.8607e-17)
(3.98928 -0.19724 0)
(4.06742 -0.176328 6.74261e-17)
(4.13724 -0.18731 6.68089e-17)
(4.17838 -0.169967 0)
(4.23295 -0.188511 0)
(4.27099 -0.164455 -6.49007e-17)
(4.32124 -0.15575 -1.28512e-16)
(4.34854 -0.159978 0)
(4.38152 -0.172155 0)
(4.42286 -0.163152 0)
(4.43625 -0.148902 -6.16931e-17)
(4.46464 -0.135725 6.10056e-17)
(4.46409 -0.135434 0)
(4.48367 -0.141539 1.19378e-16)
(4.46755 -0.129564 5.90351e-17)
(4.48437 -0.128058 -1.16777e-16)
(4.46207 -0.1096 0)
(4.46065 -0.116669 0)
(4.43072 -0.0955134 -1.12761e-16)
(4.39024 -0.0679715 -5.57221e-17)
(4.30668 -0.0388626 0)
(4.2437 -0.0368462 0)
(4.11206 -0.0185104 0)
(4.00226 0.0246534 0)
(3.79012 0.0525067 -1.056e-16)
(3.62152 0.095879 0)
(3.32354 0.167183 0)
(3.06478 0.191874 0)
(2.71494 0.219527 0)
(2.4013 0.202856 0)
(2.01253 0.186807 0)
(1.77584 0.153652 -1.00648e-16)
(1.37081 0.151033 0)
(1.24232 0.0831485 0)
(0.858419 0.105272 -1.99433e-16)
(0.854191 0.0224837 9.92556e-17)
(0.469264 0.111181 -9.94091e-17)
(0.665362 -0.128398 9.87898e-17)
(0.0206221 -0.0942908 0)
(0.125026 -0.269767 -4.69559e-17)
(0.247712 -0.490302 0)
(0.375561 -0.755616 -2.27966e-17)
(0.502091 -0.999053 0)
(0.618005 -1.18768 0)
(0.722369 -1.30514 2.24455e-17)
(0.80269 -1.34825 0)
(0.865239 -1.3182 0)
(0.90413 -1.23228 0)
(0.925853 -1.1094 0)
(0.928278 -0.959983 0)
(0.916215 -0.79267 -8.66159e-17)
(0.887028 -0.615322 -4.30252e-17)
(0.844206 -0.432372 4.27457e-17)
(0.787497 -0.251157 0)
(0.718946 -0.0783756 0)
(0.637232 0.0830442 0)
(0.545815 0.231702 0)
(0.444212 0.364902 0)
(0.335188 0.482243 -4.11507e-17)
(0.216941 0.58385 -4.0898e-17)
(0.0908002 0.674313 4.06489e-17)
(-0.0411125 0.750099 -4.04013e-17)
(-0.177122 0.812655 0)
(-0.315854 0.860575 0)
(-0.456091 0.896489 -3.96581e-17)
(-0.596684 0.921132 0)
(-0.738212 0.935237 0)
(-0.880274 0.943826 -3.89251e-17)
(-1.02289 0.949257 -3.86818e-17)
(-1.16331 0.9469 -3.84373e-17)
(-1.30062 0.937753 0)
(-1.43465 0.922409 0)
(-1.56409 0.900875 3.76937e-17)
(-1.68852 0.871176 0)
(-1.80898 0.835584 0)
(-1.92585 0.796073 -3.69488e-17)
(-2.0397 0.758053 3.66972e-17)
(-2.15201 0.719945 -3.64484e-17)
(-2.25787 0.681208 0)
(-2.36208 0.641851 0)
(-2.46226 0.605541 -7.14195e-17)
(-2.55969 0.571324 0)
(-2.65179 0.533215 -7.04536e-17)
(-2.74041 0.495115 -1.04963e-16)
(-2.82538 0.459241 1.04242e-16)
(-2.90505 0.422896 -6.90146e-17)
(-2.98152 0.385594 0)
(-3.05539 0.349923 0)
(-3.1288 0.321708 -6.76023e-17)
(-3.19944 0.29718 -3.35707e-17)
(-3.26373 0.271582 0)
(-3.32385 0.250494 0)
(-3.37939 0.235134 -3.28786e-17)
(-3.42948 0.218269 -6.52974e-17)
(-3.47335 0.199305 0)
(-3.51125 0.181375 6.43796e-17)
(-3.54529 0.166979 -6.39204e-17)
(-3.57394 0.153374 6.34647e-17)
(-3.59682 0.139491 0)
(-3.61347 0.126249 0)
(-3.62571 0.115095 0)
(-3.63261 0.103888 0)
(-3.63585 0.0937128 0)
(-3.63368 0.0778352 6.07747e-17)
(-3.62716 0.0606247 0)
(-3.61398 0.0419267 0)
(-3.59503 0.0208876 0)
(-3.57202 -0.00108458 1.18047e-16)
(-3.54349 -0.0250883 5.85912e-17)
(-3.51022 -0.0491186 5.81576e-17)
(-3.47193 -0.0761249 -1.15456e-16)
(-3.42726 -0.107515 5.73033e-17)
(-3.37919 -0.137539 -5.68838e-17)
(-3.32489 -0.165036 0)
(-3.26573 -0.190998 5.60368e-17)
(-3.19666 -0.217635 0)
(-3.12342 -0.24272 0)
(-3.04459 -0.264502 0)
(-2.96431 -0.285148 1.08717e-16)
(-2.88192 -0.304227 -5.39453e-17)
(-2.79627 -0.323169 -5.35319e-17)
(-2.70942 -0.341919 -1.06269e-16)
(-2.61861 -0.361751 -1.58213e-16)
(-2.52683 -0.377538 -5.23425e-17)
(-2.43029 -0.390431 0)
(-2.33413 -0.40186 -1.03068e-16)
(-2.23646 -0.409894 0)
(-2.13892 -0.416192 -1.52201e-16)
(-2.04063 -0.426137 0)
(-1.9435 -0.432583 -1.49828e-16)
(-1.84029 -0.438964 0)
(-1.73662 -0.439663 0)
(-1.62819 -0.441214 -4.87458e-17)
(-1.52121 -0.437893 0)
(-1.41092 -0.437427 4.79712e-17)
(-1.30541 -0.432759 9.51545e-17)
(-1.19202 -0.434494 4.72027e-17)
(-1.08257 -0.436381 9.36479e-17)
(-0.964593 -0.437018 -9.28912e-17)