/*--------------------------------*- C++ -*----------------------------------*\
| =========                 |                                                 |
| \\      /  F ield         | OpenFOAM: The Open Source CFD Toolbox           |
|  \\    /   O peration     | Version:  dev                                   |
|   \\  /    A nd           | Web:      http://www.openfoam.org               |
|    \\/     M anipulation  |                                                 |
\*---------------------------------------------------------------------------*/
FoamFile
{
    version     2.0;
    format      ascii;
    class       volScalarField;
    object      k;
    location    "9.12";
}
// * * * * * * * * * * * * * * * * * * * * * * * * * * * * * * * * * * * * * //

dimensions      [0 2 -2 0 0 0 0];

internalField   nonuniform List<scalar> 
12225
(
8.50297
10.6641
7.76283
7.54281
5.61738
7.21304
5.73958
8.06925
6.51612
9.61072
7.87877
11.7258
10.1872
13.9728
13.7217
15.5091
20.3902
24.992
2.17285
6.20186
5.71048
6.25327
4.94451
5.71171
4.44927
5.6247
4.39122
5.95532
4.84012
6.33721
5.91475
6.04554
8.19742
6.20517
13.6333
21.7618
0.237345
1.91102
2.1664
3.15034
2.99321
3.381
3.067
3.23403
3.06477
2.91734
3.00865
2.5877
3.13985
2.10733
3.61416
1.73267
4.81531
8.24064
0.0270025
0.447196
0.665715
1.11542
1.37231
1.46353
1.68744
1.60905
1.8456
1.56358
1.83094
1.41524
1.73229
1.16705
1.77864
0.943173
2.0579
2.42496
0.00770291
0.102664
0.218896
0.361859
0.587976
0.641741
0.832485
0.814779
0.942133
0.831321
0.952792
0.772402
0.915203
0.694664
0.888097
0.689444
0.957124
0.974252
0.00994787
0.0651196
0.117838
0.184219
0.294729
0.332434
0.436844
0.441444
0.507932
0.478221
0.525978
0.471849
0.518469
0.461657
0.518312
0.503923
0.587965
0.646418
0.0311836
0.0657419
0.108621
0.14236
0.206483
0.230334
0.29396
0.304798
0.347556
0.34717
0.367914
0.361075
0.373173
0.368282
0.376585
0.388022
0.417182
0.45081
0.0507977
0.079235
0.112862
0.143068
0.192604
0.216796
0.257849
0.272564
0.299392
0.308952
0.319114
0.326902
0.326576
0.336564
0.332077
0.349609
0.34625
0.358445
0.0697316
0.118351
0.138231
0.167317
0.201049
0.227046
0.258381
0.277679
0.296943
0.310573
0.31629
0.327002
0.324824
0.332977
0.329562
0.336831
0.336133
0.338669
0.117299
0.210494
0.225227
0.268121
0.268862
0.290876
0.297768
0.317271
0.323558
0.338881
0.338351
0.347347
0.342734
0.347357
0.343002
0.344587
0.343135
0.343436
0.259721
0.399496
0.417908
0.46313
0.457549
0.477058
0.467738
0.479416
0.463859
0.46838
0.450485
0.447909
0.428786
0.420176
0.405496
0.393919
0.388868
0.381757
0.553137
0.676054
0.688097
0.721379
0.713478
0.72243
0.706349
0.709458
0.68592
0.677514
0.644322
0.625427
0.596532
0.572573
0.545328
0.522352
0.502736
0.48573
1.03866
1.14285
1.13892
1.14581
1.10097
1.0756
1.01425
0.983143
0.922041
0.882058
0.827263
0.784901
0.739851
0.70181
0.662015
0.631516
0.603715
0.583629
1.83812
1.81994
1.72306
1.67081
1.56219
1.50292
1.41593
1.34871
1.26261
1.19203
1.11243
1.0439
0.971772
0.920579
0.860814
0.824635
0.782468
0.754433
3.01026
2.93932
2.81671
2.70966
2.52656
2.33991
2.13546
1.95203
1.77399
1.62246
1.47997
1.3614
1.2462
1.16164
1.07099
1.01244
0.941739
0.895541
4.61042
4.51728
4.12041
3.71851
3.31917
2.95953
2.6328
2.35236
2.10285
1.89458
1.70797
1.55619
1.41439
1.30692
1.19713
1.12186
1.0335
0.974979
5.96327
5.6195
4.84512
4.24646
3.71555
3.26188
2.87114
2.54302
2.25853
2.02365
1.81616
1.64862
1.49421
1.37563
1.25735
1.17386
1.07836
1.01381
6.17839
5.83886
5.00367
4.36832
3.80917
3.33286
2.92628
2.58683
2.29431
2.05402
1.84287
1.67293
1.51621
1.39524
1.27504
1.18938
1.09087
1.02496
5.76123
5.5543
4.8388
4.26215
3.73216
3.27224
2.87755
2.54723
2.26141
2.02607
1.81879
1.65232
1.49848
1.37988
1.26179
1.17726
1.0789
1.01444
4.33498
4.33363
3.99437
3.707
3.33457
2.97128
2.64253
2.36003
2.10841
1.89774
1.70866
1.55697
1.41486
1.30673
1.19763
1.11989
1.02636
0.967158
2.76835
2.78407
2.61384
2.51052
2.32165
2.13244
1.96166
1.81261
1.66813
1.53956
1.41116
1.30925
1.2017
1.12167
1.03169
0.970117
0.887915
0.839326
1.62627
1.74418
1.70564
1.67772
1.61927
1.50966
1.40575
1.31404
1.21477
1.12017
1.02639
0.949982
0.872055
0.817813
0.76201
0.726741
0.680634
0.653256
0.912818
1.03553
1.0611
1.06283
1.04666
0.994158
0.922644
0.859789
0.805842
0.764493
0.730124
0.704077
0.675072
0.655908
0.630712
0.615232
0.591255
0.576584
0.420775
0.534344
0.564274
0.567207
0.570029
0.580051
0.589546
0.597226
0.60284
0.608424
0.612672
0.612781
0.609967
0.604695
0.59408
0.585857
0.569437
0.55949
0.187214
0.234129
0.256043
0.302045
0.36588
0.429748
0.481685
0.5231
0.555778
0.580244
0.598842
0.608269
0.609146
0.607583
0.601516
0.595021
0.581491
0.57316
0.0576088
0.0963273
0.154025
0.248564
0.350504
0.439979
0.511353
0.56684
0.610266
0.643404
0.668502
0.685071
0.691761
0.691906
0.690132
0.685979
0.676657
0.670816
0.0126998
0.0774963
0.216646
0.403456
0.578293
0.721413
0.826252
0.901425
0.959519
1.0042
1.03474
1.05164
1.0551
1.05294
1.04208
1.03139
1.01931
1.01338
0.0321192
0.338167
0.963739
1.39744
1.71429
1.92925
2.05422
2.1139
2.14688
2.15087
2.13137
2.08935
2.03524
1.97577
1.90901
1.85602
1.7956
1.75629
0.53167
2.94693
4.40785
4.75352
4.73819
4.56184
4.30167
4.04422
3.81467
3.60764
3.41352
3.22776
3.05701
2.88742
2.73267
2.57445
2.41988
2.30824
6.54218
10.7195
9.98105
8.09403
6.79176
6.12889
5.78994
5.60982
5.49799
5.38908
5.29189
5.20007
5.10475
4.9909
4.86571
4.73345
4.5754
4.3946
0.329436
0.229243
0.221488
0.245317
0.276737
0.303182
0.332199
0.363362
0.392903
0.427054
0.464557
0.505294
0.55387
0.608904
0.671636
0.747828
0.835654
0.931986
1.04641
1.17451
1.31047
1.4671
1.62777
1.80689
1.97978
2.17014
2.33451
2.50819
2.68283
2.8419
3.0056
3.15892
3.1899
3.13293
3.03775
2.93461
2.84987
2.84378
2.86651
2.86248
2.82993
2.71798
2.63879
2.63918
2.72637
2.90574
3.12672
3.27015
3.30246
3.21716
2.99331
2.91667
2.99661
3.29026
3.48043
3.60677
3.97988
5.01635
6.21006
6.80556
7.26888
7.6679
7.97849
8.18959
8.31445
8.37243
8.33983
8.25082
8.10904
7.90137
7.68113
7.43832
7.18117
6.91709
6.65741
6.3954
6.136
5.89719
5.65353
5.43301
5.2229
5.00457
4.80684
4.62009
4.41028
4.21386
4.00924
3.81861
3.62693
3.46096
3.28949
3.13371
2.99452
2.83992
2.70391
2.58116
2.47581
2.36621
2.27504
2.18981
2.12597
2.06953
2.01798
1.97654
1.94178
1.92562
1.92714
1.95718
2.00894
2.0681
2.12884
2.18299
2.22747
2.26046
2.30205
2.37605
2.48281
2.56098
2.59541
2.57537
2.49253
2.41272
2.37877
2.36718
2.38923
2.4293
2.45068
2.51552
2.63246
2.72738
2.78105
2.79781
2.87935
3.04718
3.24883
3.51744
3.82622
4.26607
5.02842
5.7569
6.69224
8.02382
8.33628
8.71277
8.44032
8.3604
8.11792
7.42416
6.78661
6.3567
6.43606
6.72183
6.79122
6.89706
6.9468
6.82196
6.97026
6.92778
7.18276
7.3309
7.61241
7.72246
7.88158
7.92826
8.22712
8.53505
9.0804
9.41824
9.24295
8.73019
8.31382
7.55483
8.34524
8.99371
9.25429
9.12712
8.66316
7.52991
7.2298
7.52178
1.34715
0.558294
0.302493
0.264348
0.272085
0.280884
0.280105
0.275339
0.268161
0.261179
0.252479
0.248904
0.248543
0.249608
0.253296
0.258306
0.263763
0.272372
0.280498
0.29166
0.303877
0.332831
0.360092
0.40063
0.442141
0.509089
0.571996
0.65973
0.769693
0.878512
1.04662
1.21265
1.47307
1.67102
1.74447
1.70611
1.44372
1.07598
0.875714
0.713707
0.610767
0.559399
0.563012
0.599935
0.6426
0.774451
1.12908
1.48582
1.50068
1.37087
1.29698
1.46831
2.0159
3.02475
3.38457
3.44775
3.62589
3.78399
3.7398
3.48472
3.31767
3.10288
2.93951
2.76264
2.61034
2.46383
2.33292
2.2175
2.11799
2.02107
1.94965
1.87869
1.81979
1.7712
1.7183
1.67618
1.63285
1.60368
1.56777
1.54407
1.51776
1.48946
1.4668
1.43647
1.39654
1.37196
1.34587
1.32503
1.30287
1.28784
1.26953
1.2596
1.24754
1.23252
1.22615
1.21898
1.21429
1.20309
1.19589
1.18924
1.18708
1.18698
1.18444
1.18254
1.1791
1.18439
1.20246
1.24033
1.29005
1.33956
1.3797
1.39484
1.388
1.35291
1.33058
1.33667
1.35641
1.36006
1.34906
1.31971
1.2622
1.21289
1.17531
1.1652
1.1842
1.24317
1.31749
1.42642
1.49955
1.52436
1.50768
1.47584
1.52377
1.61383
1.63764
1.6751
1.69948
1.74236
1.95336
2.25366
2.72268
3.37415
4.11085
4.39112
4.68405
4.62304
5.01655
5.20653
5.47131
5.12776
4.80057
4.56703
4.27933
4.26275
4.10598
4.06556
4.28155
4.46936
4.90341
5.27491
5.80314
6.00438
6.0078
5.79804
5.59617
5.47311
5.68377
6.21137
6.18849
5.26659
4.10528
3.70387
4.52621
5.2007
5.87151
6.09063
6.24008
5.80101
5.02132
5.14702
3.0501
1.03664
0.444142
0.327169
0.312046
0.292455
0.261972
0.226596
0.194273
0.174363
0.166782
0.163372
0.162642
0.163531
0.16623
0.16891
0.17214
0.176218
0.180178
0.182823
0.184903
0.189476
0.192051
0.196066
0.200007
0.208069
0.21979
0.234285
0.262524
0.288867
0.346029
0.398542
0.507656
0.627518
0.776018
0.947369
0.992793
0.959716
0.802399
0.563373
0.47678
0.473285
0.524425
0.585772
0.59487
0.578398
0.58863
0.655378
0.834752
1.33855
2.2893
2.44979
2.15234
2.20042
2.10006
1.91533
1.74254
1.474
1.3392
1.14907
1.02996
0.91199
0.835373
0.758086
0.711795
0.666621
0.637649
0.617552
0.602931
0.593617
0.58964
0.588621
0.590748
0.597189
0.600769
0.60591
0.610078
0.615183
0.622398
0.628425
0.634892
0.640542
0.649231
0.650782
0.651615
0.654197
0.661375
0.668839
0.678315
0.684283
0.692997
0.701746
0.710784
0.713183
0.723285
0.733213
0.740366
0.748528
0.756524
0.765042
0.772385
0.77919
0.783674
0.79276
0.803471
0.809664
0.822018
0.854221
0.901877
0.950093
0.971796
0.969957
0.944095
0.892419
0.872918
0.873265
0.866331
0.848689
0.838232
0.837881
0.825552
0.813119
0.812749
0.823482
0.827827
0.849207
0.916197
1.01805
1.09045
1.11199
1.10644
1.0981
1.10116
1.12301
1.12316
1.14696
1.14005
1.09013
1.05183
1.10025
1.33806
1.63626
1.89757
1.99967
2.24639
2.42115
2.95457
3.41775
3.83132
3.87728
3.24724
2.92098
2.68151
2.62517
2.55146
2.51607
2.64122
2.7482
3.00747
3.21967
3.64739
4.09322
4.4891
4.57604
4.19897
3.84631
3.83713
4.2512
4.39563
3.77574
2.74987
2.50845
2.8858
3.03573
3.30316
3.41464
3.73823
3.76091
3.39303
3.39823
5.20548
1.64203
0.637993
0.433269
0.370252
0.293505
0.221024
0.158491
0.135354
0.130035
0.130965
0.132977
0.136683
0.142356
0.148086
0.154099
0.160089
0.167038
0.173347
0.1775
0.180886
0.18363
0.183737
0.183355
0.182334
0.181541
0.181604
0.18195
0.183446
0.18717
0.197475
0.211326
0.241314
0.282621
0.35186
0.453654
0.577965
0.658677
0.648373
0.58766
0.560252
0.600506
0.703268
0.769588
0.772563
0.698911
0.667296
0.802877
1.59722
2.17028
2.21145
1.8409
1.39019
1.12027
0.987133
0.833914
0.712551
0.60458
0.518913
0.453371
0.408913
0.37529
0.353877
0.338618
0.328938
0.323556
0.321403
0.321555
0.324361
0.328231
0.333507
0.338934
0.344728
0.353741
0.361656
0.370251
0.379859
0.386952
0.396982
0.402535
0.410973
0.41544
0.425568
0.431377
0.439207
0.44454
0.453502
0.465982
0.479036
0.491214
0.502144
0.514929
0.527187
0.534867
0.542905
0.554285
0.559724
0.573832
0.586556
0.598436
0.615176
0.625001
0.637843
0.657756
0.686482
0.699602
0.714182
0.745945
0.781501
0.810416
0.823923
0.831061
0.828259
0.791954
0.776171
0.773992
0.761301
0.746918
0.731575
0.726757
0.732549
0.738122
0.756683
0.798099
0.824959
0.829308
0.84534
0.867077
0.898668
0.938168
0.938579
0.881709
0.880845
0.85906
0.878988
0.910999
0.915294
0.952233
0.902017
0.907939
0.949378
1.24102
1.34888
1.36514
1.45643
1.71463
2.24181
2.76807
2.94602
3.03861
2.53199
2.16346
2.0554
1.98447
1.94681
1.94753
1.97673
2.06062
2.16292
2.29021
2.57764
2.89212
3.28027
3.73875
3.76517
3.41121
3.24414
3.41444
3.553
3.11707
2.35932
2.19928
2.41455
2.42054
2.44752
2.46035
2.62884
2.81615
2.68666
2.72897
7.68451
2.44149
0.951698
0.584864
0.390526
0.271448
0.165108
0.121002
0.109288
0.110231
0.115503
0.121711
0.130029
0.138354
0.145631
0.15423
0.164918
0.178336
0.189027
0.196811
0.203133
0.206139
0.205997
0.204362
0.199546
0.192848
0.186879
0.181054
0.175115
0.172298
0.172771
0.174625
0.180112
0.192051
0.216776
0.261561
0.334966
0.449615
0.508162
0.584506
0.688109
0.893451
1.07161
1.17712
1.19164
1.14803
1.19588
1.5125
1.77425
1.87399
1.34243
0.898454
0.705269
0.564671
0.466155
0.396994
0.335698
0.301163
0.272181
0.25638
0.246191
0.241329
0.239503
0.241206
0.243733
0.247288
0.251502
0.255996
0.260567
0.26563
0.268973
0.272975
0.275966
0.277993
0.281238
0.284234
0.288443
0.293789
0.301794
0.312018
0.319868
0.322641
0.329046
0.337187
0.345405
0.35261
0.358936
0.372871
0.382121
0.399734
0.408615
0.426764
0.434403
0.449057
0.454536
0.468633
0.47529
0.481951
0.490041
0.492899
0.500848
0.503509
0.50889
0.518396
0.546343
0.585411
0.633063
0.683586
0.729953
0.764665
0.782995
0.797918
0.796299
0.773176
0.764391
0.761825
0.751021
0.741031
0.731742
0.719463
0.716809
0.720488
0.742047
0.797221
0.824201
0.828073
0.827704
0.821645
0.807192
0.785507
0.740579
0.704843
0.727692
0.770514
0.784522
0.816856
0.825788
0.790982
0.773824
0.780858
0.81719
0.983882
1.19212
1.21721
1.2383
1.41665
1.94293
2.43064
2.505
2.44507
2.162
1.82891
1.75144
1.7396
1.6985
1.7393
1.71092
1.78492
1.81879
1.8799
2.04402
2.21492
2.52849
2.8831
3.27309
3.2238
3.00372
3.01135
3.12004
2.796
2.22181
2.08018
2.17172
2.18364
2.1399
2.13016
2.23095
2.35409
2.30391
2.39981
10.2996
3.29992
1.27344
0.642407
0.379166
0.209964
0.122154
0.0978083
0.0968715
0.101966
0.109695
0.118759
0.129393
0.139959
0.149944
0.166701
0.187673
0.207351
0.218303
0.225384
0.230797
0.230909
0.228692
0.224511
0.219163
0.210956
0.202729
0.192464
0.18047
0.17371
0.172886
0.174892
0.177233
0.178138
0.183142
0.200082
0.240709
0.329337
0.486804
0.642638
0.904327
1.22723
1.3696
1.31154
1.24859
1.23886
1.32685
1.45704
1.4263
0.975586
0.644057
0.457141
0.373207
0.309021
0.260363
0.234923
0.217503
0.208164
0.203731
0.202588
0.205217
0.208683
0.213375
0.219172
0.224708
0.230699
0.235971
0.241546
0.245282
0.249549
0.251702
0.254225
0.254977
0.255174
0.254362
0.251125
0.248991
0.246122
0.24381
0.245542
0.251598
0.254065
0.25569
0.260466
0.265706
0.275435
0.279384
0.288608
0.294847
0.307239
0.313136
0.329603
0.339846
0.351482
0.367541
0.379205
0.400089
0.409392
0.426689
0.43245
0.443404
0.443844
0.443784
0.444262
0.452613
0.469947
0.49413
0.534407
0.613096
0.703006
0.739142
0.760003
0.768996
0.76521
0.764552
0.762893
0.760132
0.756409
0.760755
0.750407
0.731382
0.728681
0.729717
0.747346
0.744089
0.740912
0.742735
0.72856
0.685729
0.665981
0.656819
0.655422
0.663261
0.703829
0.669889
0.623114
0.724443
0.718523
0.706717
0.666957
0.679507
0.72335
1.02481
1.16097
1.15545
1.25959
1.74897
2.14677
2.24133
2.10267
1.89985
1.63971
1.57322
1.59091
1.53596
1.57101
1.50474
1.57868
1.60118
1.65011
1.80844
1.88713
2.12649
2.31051
2.6687
2.94863
2.88507
2.75727
2.81062
2.57327
2.12601
2.05879
2.11177
2.08878
2.06412
2.00428
2.04746
2.13042
2.13288
2.1903
12.8485
4.08823
1.46148
0.639554
0.305389
0.13392
0.0932233
0.0877211
0.0918346
0.09961
0.108113
0.118424
0.132255
0.148969
0.165438
0.193264
0.218732
0.229726
0.233601
0.242176
0.243067
0.239634
0.232907
0.227433
0.222716
0.214356
0.206398
0.199194
0.186481
0.17594
0.1734
0.177833
0.186474
0.185657
0.186553
0.196851
0.236804
0.339062
0.54866
0.811289
1.16826
1.3599
1.34517
1.2403
1.18183
1.16643
1.18758
0.983554
0.695849
0.47215
0.340469
0.269962
0.229662
0.205972
0.191851
0.185211
0.182395
0.183301
0.186812
0.191483
0.197603
0.203874
0.210467
0.217085
0.223263
0.228282
0.232947
0.238384
0.241431
0.245143
0.246973
0.248665
0.249173
0.249448
0.248006
0.243335
0.238296
0.23294
0.222797
0.215574
0.210541
0.212656
0.216451
0.219454
0.221662
0.230362
0.235361
0.239116
0.244113
0.247495
0.248554
0.255204
0.262031
0.265946
0.274625
0.278445
0.293541
0.301804
0.31526
0.325641
0.342311
0.355682
0.368181
0.376363
0.390391
0.417658
0.431644
0.437322
0.468155
0.528064
0.594932
0.653322
0.715959
0.740162
0.74886
0.758823
0.765142
0.763424
0.764039
0.760689
0.746694
0.735675
0.706941
0.698211
0.702456
0.663331
0.607395
0.599102
0.569515
0.571795
0.560066
0.598892
0.627812
0.641813
0.61288
0.532745
0.608803
0.678262
0.678473
0.618492
0.606825
0.632331
0.841333
1.07221
1.10773
1.17264
1.54696
1.94811
2.09746
1.92465
1.71436
1.45625
1.41604
1.40133
1.33101
1.37997
1.32041
1.37512
1.40047
1.43227
1.59833
1.64884
1.81611
1.95502
2.15911
2.5697
2.6716
2.59457
2.62672
2.3736
2.07
2.09487
2.14643
1.99455
2.02142
1.95442
1.9797
2.00945
2.0688
2.03005
15.1409
4.73977
1.5443
0.567091
0.194671
0.0994658
0.0833139
0.0843766
0.0910404
0.0990191
0.108215
0.12114
0.143152
0.170909
0.194994
0.22642
0.247137
0.258924
0.265993
0.262861
0.250414
0.238822
0.23069
0.224736
0.221121
0.213701
0.206373
0.200016
0.187225
0.176118
0.173598
0.178651
0.195348
0.198703
0.197085
0.207213
0.257601
0.400501
0.710674
1.03531
1.24667
1.29985
1.20775
1.04971
0.979501
0.889002
0.715969
0.512492
0.359045
0.273939
0.218212
0.192416
0.178734
0.172541
0.170038
0.170814
0.174386
0.179449
0.184936
0.19098
0.19796
0.205644
0.213191
0.218489
0.222685
0.226956
0.230685
0.23423
0.23636
0.239054
0.240127
0.241642
0.242406
0.243105
0.243561
0.241371
0.236656
0.233653
0.220992
0.211541
0.194603
0.18766
0.183508
0.184266
0.185275
0.194347
0.203404
0.206564
0.210094
0.214329
0.213091
0.211856
0.214367
0.216119
0.215304
0.213392
0.217261
0.221986
0.228184
0.233178
0.243293
0.255712
0.264943
0.276937
0.290088
0.30903
0.329327
0.348745
0.365362
0.401194
0.463664
0.504503
0.550718
0.625266
0.676362
0.716946
0.725991
0.736638
0.74538
0.746807
0.730257
0.712666
0.687472
0.660405
0.615229
0.547572
0.52181
0.533201
0.515825
0.510836
0.500325
0.512279
0.551299
0.597275
0.545564
0.527266
0.522011
0.594306
0.604933
0.573511
0.569625
0.585111
0.680443
0.93614
1.06398
1.10313
1.34203
1.68384
1.91411
1.74956
1.57663
1.30166
1.24381
1.23425
1.19649
1.23138
1.19076
1.21966
1.25423
1.27148
1.41471
1.46894
1.64819
1.75291
1.89976
2.20854
2.31517
2.41459
2.48171
2.24396
2.03746
2.2105
2.28933
1.94058
1.96425
1.93673
1.99649
2.00022
1.98964
1.92709
17.0771
5.30301
1.58343
0.465569
0.149828
0.0871423
0.0804092
0.0837607
0.0918765
0.0996069
0.110249
0.128523
0.156048
0.18905
0.21992
0.255681
0.283094
0.291382
0.286113
0.265587
0.243847
0.231259
0.224532
0.219031
0.21361
0.208309
0.203356
0.198229
0.186411
0.176788
0.175833
0.18421
0.203369
0.208051
0.212533
0.23439
0.318604
0.548855
0.878969
1.08607
1.19122
1.104
0.886166
0.75699
0.670448
0.52691
0.400578
0.292522
0.226341
0.193663
0.173987
0.166062
0.163177
0.16285
0.165692
0.16958
0.174346
0.180112
0.187045
0.196069
0.204123
0.210808
0.215196
0.218578
0.221328
0.222831
0.223043
0.220963
0.21952
0.219372
0.219556
0.220164
0.222395
0.226333
0.233143
0.235234
0.234276
0.233994
0.224127
0.214604
0.1938
0.179242
0.164832
0.159563
0.157465
0.158877
0.164315
0.166277
0.168232
0.173412
0.173457
0.171093
0.170836
0.173642
0.174112
0.170537
0.172269
0.174843
0.176836
0.179945
0.184328
0.189491
0.196695
0.205906
0.210599
0.225248
0.240586
0.254067
0.267675
0.301324
0.333536
0.364056
0.391275
0.437165
0.475051
0.545357
0.579253
0.601758
0.614266
0.618493
0.616461
0.617176
0.59492
0.531291
0.514666
0.502649
0.467987
0.455835
0.457093
0.459525
0.464729
0.445591
0.451374
0.474121
0.462349
0.483544
0.478076
0.530373
0.548019
0.542846
0.558957
0.575861
0.629507
0.822155
1.00783
1.03881
1.18899
1.44672
1.71805
1.60042
1.43775
1.17172
1.12077
1.11936
1.07962
1.08725
1.06393
1.07386
1.11811
1.15479
1.30685
1.34055
1.5237
1.57229
1.71358
1.9444
1.98739
2.19764
2.32542
2.16417
2.03418
2.33577
2.42395
1.94174
1.90987
2.02656
2.03965
2.02403
2.05196
1.94096
18.5663
5.77105
1.60481
0.422591
0.129526
0.0836657
0.0800215
0.0851873
0.0941921
0.1009
0.112821
0.131483
0.159662
0.195652
0.231699
0.274318
0.300728
0.30508
0.292858
0.260695
0.240049
0.230525
0.224983
0.21775
0.20832
0.200756
0.195456
0.190616
0.180517
0.175457
0.177417
0.191153
0.208236
0.214687
0.229601
0.282214
0.427998
0.703145
0.909688
1.04337
0.997266
0.793031
0.624159
0.531116
0.429587
0.322622
0.255326
0.203891
0.177974
0.165649
0.160461
0.159383
0.160354
0.162605
0.166258
0.1709
0.177502
0.185617
0.19519
0.202518
0.20828
0.21354
0.216205
0.217438
0.217403
0.215058
0.211241
0.207907
0.205148
0.202967
0.202519
0.201935
0.201132
0.199298
0.201644
0.209571
0.224525
0.228821
0.225585
0.217169
0.202626
0.177832
0.159434
0.146533
0.141822
0.137912
0.139672
0.140772
0.141403
0.143771
0.147034
0.145669
0.145717
0.146518
0.149191
0.146394
0.147038
0.149126
0.150306
0.150739
0.152606
0.156776
0.158926
0.164093
0.169174
0.17733
0.182876
0.19465
0.20373
0.223168
0.238576
0.263816
0.282421
0.301062
0.329679
0.36263
0.402945
0.415781
0.42252
0.428975
0.428859
0.434086
0.439083
0.420887
0.409082
0.418676
0.417751
0.406656
0.401225
0.397728
0.400967
0.386181
0.383852
0.396305
0.40143
0.415468
0.421643
0.468376
0.500548
0.506817
0.557583
0.612224
0.642638
0.723096
0.92321
0.956303
1.0853
1.29136
1.56706
1.501
1.31919
1.08404
1.03007
1.02243
0.988629
0.981934
0.964025
0.971597
1.00767
1.03847
1.18261
1.22704
1.42666
1.44477
1.58766
1.78125
1.80795
1.97222
2.11822
2.02959
2.03262
2.38563
2.43585
1.98884
1.8758
2.09128
2.04107
2.06345
1.99911
1.96181
19.3514
5.94991
1.58667
0.381136
0.118604
0.0830623
0.0812372
0.088472
0.0980797
0.104643
0.115815
0.133119
0.162358
0.205437
0.250537
0.296818
0.317864
0.317128
0.29427
0.261428
0.252315
0.249658
0.239792
0.219147
0.200721
0.189599
0.18147
0.175017
0.171227
0.17149
0.176819
0.193226
0.208422
0.222326
0.258652
0.347026
0.542991
0.74666
0.878536
0.894498
0.763372
0.551982
0.444204
0.375712
0.282288
0.227627
0.192514
0.1708
0.161554
0.158641
0.158183
0.159287
0.161156
0.164177
0.169119
0.175714
0.185695
0.195046
0.202302
0.210615
0.215566
0.218267
0.219496
0.218826
0.21692
0.211765
0.20753
0.205109
0.20229
0.19911
0.197341
0.196047
0.196086
0.193926
0.189668
0.184964
0.185334
0.200066
0.217891
0.215933
0.20691
0.182643
0.158827
0.140918
0.134364
0.129319
0.127261
0.127405
0.128473
0.129259
0.132994
0.133957
0.13322
0.133908
0.137497
0.136021
0.135112
0.138982
0.137134
0.136766
0.139296
0.139829
0.141203
0.145412
0.146821
0.151262
0.155578
0.160576
0.16741
0.175585
0.186698
0.200205
0.214286
0.222326
0.24262
0.261383
0.28457
0.301123
0.311629
0.313302
0.311515
0.31634
0.345
0.340519
0.32589
0.336195
0.366141
0.364418
0.351332
0.351567
0.35504
0.354334
0.365819
0.37199
0.373265
0.392749
0.437754
0.447052
0.460007
0.479522
0.56963
0.654071
0.65003
0.666548
0.829778
0.866569
0.984525
1.17041
1.39467
1.36493
1.21588
1.01676
0.971306
0.944167
0.920883
0.897418
0.887757
0.897124
0.932972
0.97729
1.12397
1.17926
1.35491
1.36961
1.48381
1.63539
1.73286
1.77778
1.89449
1.87234
2.03272
2.42752
2.2486
1.94795
1.88937
2.04403
2.01768
2.03368
2.03521
2.22196
19.5637
5.94764
1.49544
0.319182
0.112793
0.0849619
0.0856144
0.0954235
0.107044
0.112993
0.121683
0.140852
0.172181
0.212107
0.258844
0.304598
0.321365
0.318631
0.292331
0.280127
0.283079
0.276385
0.240938
0.202513
0.183151
0.176473
0.171758
0.168909
0.167785
0.169536
0.177413
0.193876
0.210043
0.239959
0.302019
0.419826
0.606986
0.731365
0.776271
0.733672
0.560422
0.405094
0.332
0.272338
0.214299
0.185815
0.16902
0.161448
0.158737
0.158251
0.158888
0.161171
0.165032
0.170288
0.178411
0.186984
0.196061
0.205377
0.21486
0.220504
0.223262
0.224569
0.224021
0.220865
0.215456
0.208696
0.205653
0.204136
0.202648
0.199099
0.196295
0.194114
0.192939
0.194401
0.189771
0.183331
0.172032
0.169275
0.180887
0.199016
0.202659
0.188521
0.163601
0.139609
0.131805
0.127906
0.122627
0.121258
0.121885
0.123444
0.125789
0.129873
0.127952
0.130472
0.133109
0.133399
0.131815
0.135252
0.134856
0.132392
0.135301
0.135416
0.134983
0.138299
0.139012
0.140945
0.144571
0.14552
0.149568
0.154131
0.157849
0.166098
0.179425
0.18283
0.191005
0.214032
0.227099
0.233029
0.246107
0.262154
0.261524
0.258387
0.269826
0.293564
0.293262
0.295116
0.306258
0.320627
0.321032
0.335716
0.335357
0.336652
0.358386
0.364811
0.366383
0.397376
0.462123
0.450111
0.44715
0.472915
0.605696
0.657727
0.631056
0.629431
0.747698
0.782061
0.882271
1.06673
1.23721
1.23072
1.13431
0.973741
0.930538
0.883947
0.873091
0.848646
0.850439
0.865076
0.901983
0.965666
1.08374
1.14433
1.27972
1.30747
1.3776
1.49926
1.67343
1.68529
1.73271
1.75722
2.13234
2.39541
2.03002
1.93433
1.931
1.97272
2.13629
2.07545
2.73838
2.68422
19.4074
5.89847
1.3794
0.262949
0.110232
0.0909135
0.0955726
0.106592
0.119107
0.12959
0.137922
0.153624
0.175815
0.209791
0.256679
0.303782
0.320221
0.318502
0.300556
0.298045
0.300185
0.284565
0.227166
0.188441
0.177875
0.174598
0.172173
0.169943
0.168999
0.171851
0.181248
0.196564
0.215248
0.251133
0.322003
0.466837
0.606708
0.675708
0.69275
0.606248
0.417294
0.315154
0.265058
0.215475
0.184577
0.169789
0.162079
0.159544
0.158789
0.159325
0.161098
0.164739
0.170066
0.17627
0.185313
0.197363
0.210575
0.218841
0.225394
0.228797
0.230265
0.229343
0.226651
0.221598
0.212666
0.208295
0.20652
0.205341
0.204535
0.203204
0.199695
0.19685
0.191671
0.192693
0.193177
0.188411
0.174443
0.160985
0.159648
0.169077
0.180785
0.185615
0.168354
0.144641
0.132349
0.128788
0.12202
0.119298
0.119336
0.122325
0.122864
0.129211
0.127036
0.129622
0.13316
0.132145
0.132016
0.135091
0.135818
0.132113
0.135135
0.136215
0.134208
0.137273
0.137914
0.138732
0.141376
0.141854
0.143449
0.147851
0.149419
0.153366
0.162424
0.168375
0.171049
0.184594
0.202584
0.203196
0.209975
0.228162
0.233775
0.232793
0.238141
0.25777
0.274001
0.274467
0.281361
0.295923
0.304097
0.323819
0.326593
0.333708
0.360721
0.367113
0.367385
0.408955
0.462088
0.438859
0.434475
0.474459
0.631876
0.637854
0.589268
0.596497
0.703522
0.75124
0.827332
1.00924
1.13631
1.14347
1.08781
0.945795
0.90956
0.869573
0.855068
0.834214
0.835868
0.848371
0.883202
0.951802
1.0636
1.15
1.23661
1.27065
1.30257
1.38848
1.61001
1.66177
1.65903
1.71533
2.19925
2.24985
1.97432
2.01735
1.9275
1.92468
2.68004
2.91633
3.43861
2.55422
18.7419
5.70717
1.19749
0.221333
0.112107
0.10343
0.106918
0.112335
0.123163
0.140142
0.147736
0.157331
0.176641
0.203462
0.247016
0.300194
0.320754
0.320086
0.309569
0.305547
0.307271
0.289547
0.223057
0.186845
0.179795
0.180029
0.180173
0.177446
0.175981
0.180678
0.190445
0.203905
0.225944
0.272205
0.359503
0.480746
0.561222
0.597736
0.601701
0.509766
0.336871
0.261331
0.223992
0.188958
0.171556
0.164253
0.161065
0.159713
0.159804
0.161581
0.166444
0.170931
0.17581
0.185235
0.19352
0.208344
0.22101
0.227918
0.231709
0.233152
0.23317
0.231657
0.227347
0.220911
0.213942
0.210073
0.208181
0.208091
0.206615
0.206215
0.206145
0.203923
0.197985
0.187806
0.189844
0.188841
0.182226
0.163389
0.154055
0.158452
0.161271
0.169351
0.16619
0.148965
0.137147
0.130973
0.123826
0.118562
0.119405
0.12141
0.123093
0.128245
0.129723
0.128773
0.135775
0.134897
0.135803
0.139251
0.137187
0.135845
0.13949
0.139923
0.13741
0.139687
0.140766
0.13981
0.141293
0.14249
0.142737
0.145636
0.148769
0.150868
0.15738
0.164613
0.166876
0.175428
0.189051
0.194402
0.197728
0.208492
0.219934
0.22618
0.228992
0.2418
0.260392
0.267119
0.276565
0.289938
0.305349
0.314891
0.321254
0.338395
0.371922
0.377074
0.376448
0.429597
0.461288
0.42511
0.421265
0.480367
0.632868
0.592248
0.553052
0.582974
0.702833
0.754949
0.810199
0.983393
1.11228
1.13131
1.07455
0.938809
0.910258
0.868356
0.845046
0.828399
0.828847
0.850647
0.888248
0.963698
1.06556
1.16406
1.20878
1.23963
1.25644
1.3227
1.56652
1.62517
1.6076
1.71814
2.22015
2.12041
1.97299
2.05628
1.90697
1.98174
3.28973
3.58885
4.51041
2.5421
17.7795
5.29182
1.03851
0.210409
0.123804
0.122108
0.120619
0.120633
0.129959
0.145631
0.151819
0.1611
0.179454
0.199215
0.226607
0.274734
0.310206
0.316902
0.314108
0.309477
0.313065
0.307238
0.242132
0.195305
0.186445
0.187655
0.194171
0.195076
0.192331
0.193145
0.203121
0.220463
0.253265
0.313363
0.399166
0.482572
0.530184
0.551506
0.524518
0.415124
0.287387
0.23189
0.201846
0.17821
0.168852
0.164135
0.161831
0.161591
0.162645
0.165226
0.172183
0.184083
0.192309
0.201053
0.211128
0.221417
0.228593
0.231543
0.233295
0.233493
0.232748
0.230047
0.221213
0.216175
0.2136
0.210695
0.208596
0.209173
0.208056
0.204005
0.203214
0.202008
0.199573
0.189344
0.184701
0.185912
0.182679
0.169801
0.154029
0.150911
0.151939
0.153697
0.155142
0.148005
0.139485
0.131063
0.124449
0.118416
0.120601
0.120988
0.125422
0.128643
0.134403
0.131719
0.142543
0.148047
0.14629
0.155219
0.151249
0.15158
0.159965
0.153199
0.153173
0.156566
0.153753
0.151531
0.149951
0.149763
0.148142
0.148201
0.15166
0.152105
0.157243
0.163893
0.16682
0.17399
0.183746
0.193454
0.196045
0.202348
0.215859
0.222971
0.227441
0.239694
0.257079
0.268702
0.27516
0.287612
0.310029
0.315525
0.323109
0.358412
0.380673
0.383017
0.386399
0.440259
0.448528
0.400671
0.402531
0.48853
0.61415
0.554208
0.529677
0.584917
0.709674
0.757568
0.813449
0.982079
1.13248
1.14524
1.06546
0.944517
0.913278
0.868895
0.844651
0.830382
0.833893
0.885454
0.928575
1.03724
1.09428
1.17357
1.19876
1.22458
1.23744
1.29882
1.53686
1.6226
1.58606
1.75475
2.21777
2.05081
1.97039
2.00745
1.89822
2.31436
3.55576
3.74489
4.30386
2.79898
16.5574
4.92553
0.976558
0.216121
0.144603
0.141193
0.142389
0.138332
0.144858
0.152155
0.154854
0.162166
0.178694
0.198159
0.221812
0.256221
0.29675
0.315635
0.316156
0.311395
0.316065
0.324387
0.301322
0.226378
0.203199
0.200186
0.207634
0.221446
0.219539
0.214423
0.219037
0.237225
0.278333
0.33688
0.401006
0.4707
0.512624
0.534016
0.504602
0.378587
0.260552
0.215052
0.190008
0.17485
0.168712
0.16656
0.166318
0.166627
0.169523
0.17501
0.180555
0.193023
0.204222
0.212324
0.222017
0.226663
0.229671
0.231331
0.231862
0.230237
0.225775
0.222147
0.214579
0.209805
0.211189
0.210355
0.207727
0.203237
0.203589
0.201196
0.196611
0.188995
0.187884
0.184929
0.17613
0.175962
0.177547
0.171071
0.156685
0.147766
0.144094
0.139791
0.140807
0.138928
0.135988
0.128202
0.122853
0.118994
0.120922
0.122542
0.127842
0.134924
0.140436
0.144101
0.149671
0.159484
0.157211
0.168068
0.175104
0.173584
0.184264
0.179462
0.178425
0.183247
0.177467
0.178165
0.178353
0.174382
0.173913
0.170428
0.168465
0.167539
0.166634
0.168278
0.171054
0.175678
0.183292
0.192786
0.196883
0.202256
0.214958
0.222723
0.228491
0.240206
0.256916
0.272552
0.276921
0.289261
0.321164
0.321413
0.340544
0.376089
0.383892
0.383593
0.395747
0.441129
0.421297
0.377178
0.390913
0.483735
0.559766
0.504511
0.509242
0.597117
0.731037
0.784106
0.855368
1.05573
1.17793
1.14421
1.04573
0.947934
0.919115