/*--------------------------------*- C++ -*----------------------------------*\
| =========                 |                                                 |
| \\      /  F ield         | OpenFOAM: The Open Source CFD Toolbox           |
|  \\    /   O peration     | Version:  dev                                   |
|   \\  /    A nd           | Web:      http://www.openfoam.org               |
|    \\/     M anipulation  |                                                 |
\*---------------------------------------------------------------------------*/
FoamFile
{
    version     2.0;
    format      ascii;
    class       volScalarField;
    object      muSgs;
    location    "9.12";
}
// * * * * * * * * * * * * * * * * * * * * * * * * * * * * * * * * * * * * * //

dimensions      [1 -1 -1 0 0 0 0];

internalField   nonuniform List<scalar> 
12225
(
0.000202259
0.000223319
0.000187152
0.000181204
0.000153686
0.000171044
0.000149861
0.000174582
0.000153979
0.000183915
0.000163224
0.000196301
0.000178904
0.000207334
0.000200791
0.00020991
0.000237908
0.000258026
0.000107813
0.00017973
0.000169435
0.000174471
0.00015256
0.000161544
0.00014004
0.000155317
0.000134405
0.000154851
0.000136022
0.000154898
0.000144913
0.00014625
0.000165873
0.00014213
0.00020754
0.000255765
3.74146e-05
0.000104764
0.000109528
0.000130058
0.000124622
0.000130574
0.000122231
0.000123882
0.00011837
0.000114099
0.000113517
0.00010404
0.000112186
9.07244e-05
0.000116368
7.96883e-05
0.000130044
0.000167801
1.32524e-05
5.32136e-05
6.38085e-05
8.11532e-05
8.8686e-05
8.99447e-05
9.52975e-05
9.13287e-05
9.66461e-05
8.71685e-05
9.3265e-05
8.02797e-05
8.77747e-05
7.05677e-05
8.59068e-05
6.14276e-05
8.94234e-05
9.53168e-05
7.45098e-06
2.67327e-05
3.85025e-05
4.8455e-05
6.10615e-05
6.242e-05
7.03252e-05
6.80674e-05
7.24434e-05
6.65733e-05
7.0511e-05
6.21748e-05
6.68424e-05
5.71377e-05
6.3675e-05
5.50997e-05
6.39438e-05
6.3438e-05
8.91237e-06
2.23545e-05
2.97093e-05
3.63164e-05
4.54407e-05
4.72019e-05
5.35039e-05
5.263e-05
5.5833e-05
5.30319e-05
5.49838e-05
5.10189e-05
5.28235e-05
4.88631e-05
5.10729e-05
4.94174e-05
5.26159e-05
5.42126e-05
1.65922e-05
2.36178e-05
2.99762e-05
3.35773e-05
3.99697e-05
4.13317e-05
4.61122e-05
4.59984e-05
4.85064e-05
4.75089e-05
4.82803e-05
4.69114e-05
4.70379e-05
4.58458e-05
4.56811e-05
4.55317e-05
4.65121e-05
4.75128e-05
1.87344e-05
2.29499e-05
2.70278e-05
2.97817e-05
3.41351e-05
3.54718e-05
3.8184e-05
3.84778e-05
3.97959e-05
3.96386e-05
3.97342e-05
3.94618e-05
3.88647e-05
3.87258e-05
3.78733e-05
3.81772e-05
3.73973e-05
3.73943e-05
2.37356e-05
3.0341e-05
3.23451e-05
3.48306e-05
3.76991e-05
3.92475e-05
4.13021e-05
4.19817e-05
4.28114e-05
4.29551e-05
4.27175e-05
4.26398e-05
4.18308e-05
4.15939e-05
4.07053e-05
4.04427e-05
3.97241e-05
3.91894e-05
3.332e-05
4.37897e-05
4.46427e-05
4.76894e-05
4.71186e-05
4.80321e-05
4.78992e-05
4.84953e-05
4.82493e-05
4.84671e-05
4.76791e-05
4.74392e-05
4.63433e-05
4.58382e-05
4.47813e-05
4.41145e-05
4.32589e-05
4.25248e-05
5.36656e-05
6.53525e-05
6.58015e-05
6.78493e-05
6.64441e-05
6.65286e-05
6.48457e-05
6.44248e-05
6.2363e-05
6.15348e-05
5.93528e-05
5.81311e-05
5.58899e-05
5.43643e-05
5.24777e-05
5.08276e-05
4.96023e-05
4.82693e-05
8.48251e-05
9.21308e-05
9.13589e-05
9.16815e-05
8.97062e-05
8.85626e-05
8.60922e-05
8.47017e-05
8.18623e-05
7.99003e-05
7.65653e-05
7.40965e-05
7.10753e-05
6.84123e-05
6.5577e-05
6.30547e-05
6.07314e-05
5.86042e-05
0.000126057
0.00012998
0.000127379
0.000125259
0.00012063
0.000116979
0.000111546
0.0001078
0.000102505
9.84306e-05
9.35935e-05
8.95308e-05
8.53314e-05
8.16183e-05
7.78238e-05
7.46447e-05
7.16208e-05
6.91054e-05
0.000182195
0.000178158
0.000169969
0.000164068
0.000155681
0.000149768
0.000142627
0.000136573
0.000129646
0.000123609
0.000117159
0.000111415
0.00010547
0.000100756
9.56005e-05
9.18371e-05
8.77383e-05
8.45092e-05
0.000253811
0.000246354
0.000236228
0.000227023
0.000214896
0.000202716
0.000189844
0.000177948
0.000166309
0.000155957
0.000146044
0.0001374
0.000128909
0.000122062
0.000114929
0.000109597
0.000103612
9.90772e-05
0.000342804
0.000333139
0.000311378
0.000289638
0.000267997
0.000247872
0.00022898
0.000212018
0.000196379
0.000182648
0.000169929
0.000158978
0.000148535
0.000139945
0.000131264
0.000124547
0.000117135
0.000111521
0.00042681
0.000406388
0.0003691
0.000338148
0.00030957
0.000283906
0.000260702
0.000240189
0.000221626
0.000205422
0.000190565
0.000177823
0.000165796
0.000155826
0.000145919
0.000138116
0.000129705
0.00012323
0.000443807
0.000422985
0.00038295
0.000350046
0.000319855
0.000292726
0.00026835
0.000246888
0.000227601
0.0002108
0.000195484
0.000182366
0.000170006
0.000159705
0.000149495
0.000141432
0.000132741
0.000126017
0.000410702
0.000395279
0.000360963
0.00033151
0.000303673
0.000278257
0.000255313
0.000235062
0.000216857
0.000200961
0.000186445
0.000174007
0.00016228
0.000152454
0.000142747
0.000135093
0.000126756
0.000120382
0.000340705
0.000334014
0.000313912
0.000296048
0.000275007
0.000254191
0.000234713
0.000217163
0.00020104
0.000186806
0.000173659
0.000162384
0.000151633
0.000142671
0.000133771
0.000126727
0.000118925
0.000113124
0.000259822
0.000255598
0.000242593
0.00023291
0.000219522
0.000206117
0.000193711
0.000182418
0.00017144
0.000161363
0.000151426
0.000142909
0.00013419
0.000127012
0.000119356
0.000113405
0.000106358
0.000101361
0.000189494
0.000192658
0.000186793
0.00018164
0.000175028
0.000165671
0.000156758
0.000148582
0.000140046
0.000131829
0.00012371
0.000116638
0.000109588
0.000104023
9.84266e-05
9.42039e-05
8.93794e-05
8.58409e-05
0.000134946
0.000141163
0.000140188
0.000137648
0.000134047
0.000128149
0.000121115
0.000114658
0.000108876
0.000104014
9.96812e-05
9.59813e-05
9.21736e-05
8.90693e-05
8.56478e-05
8.29323e-05
7.97107e-05
7.71729e-05
8.68886e-05
9.62139e-05
9.70619e-05
9.55305e-05
9.40203e-05
9.30867e-05
9.21124e-05
9.09646e-05
8.96663e-05
8.8375e-05
8.70003e-05
8.5339e-05
8.35093e-05
8.15431e-05
7.92694e-05
7.71806e-05
7.46155e-05
7.25124e-05
5.49202e-05
6.03772e-05
6.20002e-05
6.61156e-05
7.14528e-05
7.60295e-05
7.90257e-05
8.0842e-05
8.17922e-05
8.20107e-05
8.17435e-05
8.08161e-05
7.93343e-05
7.7714e-05
7.58408e-05
7.39737e-05
7.17162e-05
6.98206e-05
2.88259e-05
3.66566e-05
4.55385e-05
5.68269e-05
6.62858e-05
7.29348e-05
7.72085e-05
7.97995e-05
8.12736e-05
8.19022e-05
8.19205e-05
8.13691e-05
8.02194e-05
7.87035e-05
7.71065e-05
7.53979e-05
7.34487e-05
7.17198e-05
1.27994e-05
3.10965e-05
5.10901e-05
6.84911e-05
8.05524e-05
8.83591e-05
9.28624e-05
9.52312e-05
9.64665e-05
9.68801e-05
9.65354e-05
9.55218e-05
9.39071e-05
9.20541e-05
8.98575e-05
8.77013e-05
8.55328e-05
8.36599e-05
1.92359e-05
6.13944e-05
0.000101852
0.000120511
0.000131162
0.000136696
0.000138572
0.000138058
0.000136652
0.000134316
0.000131306
0.00012764
0.000123686
0.000119605
0.000115388
0.000111633
0.000107746
0.000104547
7.39348e-05
0.000171273
0.000205862
0.000210084
0.000206142
0.000198766
0.000189652
0.000180641
0.000172323
0.000164544
0.000157133
0.000149952
0.000143197
0.000136515
0.000130294
0.000124025
0.000117989
0.000112962
0.000244809
0.00030796
0.000291698
0.000257822
0.000231799
0.000216063
0.000206003
0.000198863
0.000193037
0.000187355
0.000181996
0.000176824
0.000171704
0.000166392
0.000161015
0.000155634
0.000149966
0.000143975
5.36993e-05
4.71123e-05
4.69117e-05
4.92716e-05
5.23595e-05
5.47891e-05
5.72811e-05
5.98448e-05
6.22237e-05
6.48813e-05
6.76852e-05
7.0604e-05
7.39558e-05
7.7576e-05
8.1555e-05
8.61108e-05
9.10591e-05
9.62573e-05
0.00010206
0.000108207
0.000114443
0.000121287
0.000127938
0.000134973
0.000141479
0.000148311
0.000153967
0.000159698
0.000165324
0.000170021
0.000175084
0.000179195
0.000179735
0.000177953
0.000174681
0.000171547
0.000169744
0.000170348
0.000172087
0.000173227
0.000173153
0.000170584
0.000168098
0.000168304
0.000170969
0.000176092
0.000181165
0.000183043
0.00018204
0.000180361
0.000177792
0.000177398
0.000177246
0.000183932
0.000189091
0.000191871
0.000197836
0.000220968
0.000249945
0.000264097
0.00027429
0.000283023
0.000289778
0.000294626
0.000297834
0.000299819
0.000300152
0.000299437
0.000297721
0.000294736
0.000291408
0.000287554
0.000283302
0.000278776
0.000274221
0.000269463
0.000264639
0.000260102
0.000255346
0.000250934
0.000246669
0.00024207
0.000237788
0.0002337
0.000228946
0.000224394
0.000219492
0.000214755
0.000209844
0.00020554
0.000200977
0.000196737
0.000192885
0.000188482
0.000184546
0.000180918
0.000177817
0.000174512
0.000171757
0.00016921
0.000167208
0.000165479
0.000163822
0.000162548
0.000161618
0.000161473
0.000162002
0.000163486
0.000165856
0.000168656
0.000171739
0.000174862
0.000177829
0.000180682
0.00018389
0.000187924
0.000193204
0.000197754
0.000200681
0.000201386
0.000199326
0.000197111
0.000196137
0.000195421
0.000195796
0.000197237
0.000198313
0.000201091
0.000205339
0.000208933
0.000211104
0.000212765
0.000217222
0.000224119
0.000231856
0.000242387
0.000255192
0.000271637
0.000296381
0.000320765
0.000349059
0.000382476
0.000390333
0.00039952
0.000391972
0.000392811
0.000386605
0.000372137
0.000356145
0.000346582
0.000350096
0.000358528
0.000361594
0.000365187
0.00036724
0.000365127
0.000369289
0.000368802
0.000376076
0.000381243
0.000389112
0.00039502
0.000401671
0.000408141
0.000414876
0.000424409
0.000431221
0.000433946
0.000432899
0.000425806
0.000431374
0.000412452
0.000417278
0.000427697
0.00042649
0.000420225
0.000405948
0.000377344
0.000371803
0.000374692
0.000107476
7.28663e-05
5.55426e-05
5.24696e-05
5.28689e-05
5.28623e-05
5.20395e-05
5.10493e-05
5.01276e-05
4.93342e-05
4.84067e-05
4.79374e-05
4.78487e-05
4.78972e-05
4.82905e-05
4.87803e-05
4.93391e-05
5.02147e-05
5.10104e-05
5.20515e-05
5.32317e-05
5.59503e-05
5.84378e-05
6.18913e-05
6.53853e-05
7.04867e-05
7.50955e-05
8.10944e-05
8.79271e-05
9.4368e-05
0.000103266
0.000111644
0.000122762
0.00013115
0.00013361
0.000130616
0.000123586
0.000109301
9.93708e-05
9.06273e-05
8.43181e-05
8.06529e-05
7.98569e-05
8.20356e-05
8.48923e-05
9.32159e-05
0.000113418
0.000130873
0.000130293
0.000124122
0.000120609
0.000129944
0.000147103
0.000176039
0.000188844
0.000190404
0.000196265
0.000201379
0.000201766
0.000195288
0.000191374
0.000185416
0.000181073
0.000175851
0.000171446
0.000166895
0.000162883
0.000159139
0.000155983
0.00015274
0.000150476
0.000148113
0.000146219
0.000144684
0.000142953
0.000141634
0.000140285
0.000139493
0.000138435
0.000137861
0.000137185
0.000136368
0.000135782
0.000134781
0.00013334
0.000132727
0.000132
0.000131556
0.000131
0.000130871
0.000130485
0.000130716
0.000130686
0.000130576
0.000130977
0.000131315
0.000131844
0.000131928
0.00013231
0.000132524
0.000132975
0.00013332
0.0001334
0.000133336
0.000133112
0.000133345
0.000134323
0.000135949
0.000138116
0.000141045
0.000143909
0.000145826
0.000147303
0.000147688
0.000148755
0.000150964
0.000152956
0.000153745
0.000153704
0.000152845
0.000150591
0.000149753
0.00014869
0.000147296
0.000143498
0.000142753
0.00014541
0.000150481
0.000151374
0.000151521
0.000150419
0.0001501
0.000153503
0.000158207
0.000159552
0.000161312
0.000164228
0.000167197
0.000177647
0.000194773
0.000225257
0.000258465
0.000292703
0.00030445
0.000306399
0.000305509
0.000313274
0.000322695
0.000329879
0.000319888
0.000310728
0.000299423
0.000289809
0.000290188
0.000283851
0.00028531
0.000293725
0.000302693
0.0003212
0.000337489
0.000354624
0.000364211
0.000370727
0.00038207
0.000380469
0.00038413
0.000376891
0.000386228
0.000397526
0.000378631
0.00034707
0.000329887
0.000355295
0.000372147
0.000384707
0.000387207
0.000385678
0.000364794
0.00034527
0.000336108
0.000159855
9.68674e-05
6.53704e-05
5.62317e-05
5.38603e-05
5.08947e-05
4.73659e-05
4.36326e-05
4.02851e-05
3.81566e-05
3.73543e-05
3.69838e-05
3.69511e-05
3.71055e-05
3.74805e-05
3.78602e-05
3.83e-05
3.88726e-05
3.94109e-05
3.98296e-05
4.01653e-05
4.08505e-05
4.12997e-05
4.19394e-05
4.26298e-05
4.38125e-05
4.53747e-05
4.72521e-05
5.04007e-05
5.3426e-05
5.88182e-05
6.36538e-05
7.21808e-05
8.06179e-05
8.98631e-05
9.85232e-05
0.00010061
9.91291e-05
9.22449e-05
7.8651e-05
7.32804e-05
7.27929e-05
7.52139e-05
7.8765e-05
7.8743e-05
7.7562e-05
7.86774e-05
8.36713e-05
9.6149e-05
0.000124433
0.000156922
0.000159192
0.00015068
0.000152102
0.000149438
0.000142691
0.00013657
0.000125559
0.00011991
0.000110901
0.000105138
9.87695e-05
9.46406e-05
9.00403e-05
8.73871e-05
8.44925e-05
8.28081e-05
8.14619e-05
8.07006e-05
8.01045e-05
8.00525e-05
8.00904e-05
8.04383e-05
8.10401e-05
8.14778e-05
8.20023e-05
8.24835e-05
8.30703e-05
8.37684e-05
8.44742e-05
8.51177e-05
8.58132e-05
8.6669e-05
8.70029e-05
8.72271e-05
8.7711e-05
8.85008e-05
8.94519e-05
9.05205e-05
9.14749e-05
9.24119e-05
9.37678e-05
9.49155e-05
9.56973e-05
9.70811e-05
9.85645e-05
0.000100052
0.000101343
0.00010311
0.000104295
0.000106096
0.000107412
0.00010886
0.000110638
0.000112025
0.000111859
0.000111746
0.000113578
0.000116386
0.000119516
0.000121181
0.000121141
0.000119959
0.000117598
0.000118253
0.0001215
0.000124176
0.000123045
0.000118659
0.00011376
0.00011231
0.000114373
0.000118107
0.000123847
0.00012581
0.000119911
0.000116599
0.000120808
0.000123956
0.00012561
0.000127474
0.00013004
0.000130892
0.000132588
0.000133817
0.000135168
0.000136497
0.000131324
0.000125963
0.000126519
0.000145308
0.000168319
0.000197122
0.000209799
0.000218909
0.000223298
0.000244705
0.000265948
0.000282675
0.000272584
0.000247729
0.000228902
0.000218376
0.000217355
0.00021328
0.000214215
0.000219288
0.00022714
0.000239616
0.000251686
0.000277637
0.000300541
0.000316558
0.000336369
0.000338751
0.000335739
0.000323043
0.000335689
0.000352327
0.000338445
0.000281661
0.000257058
0.000285004
0.000290948
0.000302978
0.000304214
0.000317916
0.00031287
0.000304454
0.000290656
0.000206556
0.000118644
7.50687e-05
6.15208e-05
5.59508e-05
4.91772e-05
4.24527e-05
3.59787e-05
3.33838e-05
3.28566e-05
3.31036e-05
3.3478e-05
3.40797e-05
3.49233e-05
3.57571e-05
3.66342e-05
3.7464e-05
3.8418e-05
3.92938e-05
3.99006e-05
4.039e-05
4.08582e-05
4.09918e-05
4.11458e-05
4.12856e-05
4.15039e-05
4.184e-05
4.22862e-05
4.28515e-05
4.37299e-05
4.52236e-05
4.71148e-05
5.05659e-05
5.50057e-05
6.16063e-05
7.01639e-05
7.84939e-05
8.26966e-05
8.2341e-05
7.81058e-05
7.66772e-05
8.04342e-05
8.47836e-05
8.99075e-05
8.85382e-05
8.18265e-05
8.10576e-05
9.25165e-05
0.00013291
0.00015248
0.000151703
0.000139107
0.000121016
0.000108684
0.00010205
9.36973e-05
8.66273e-05
7.96372e-05
7.37698e-05
6.88322e-05
6.53851e-05
6.25513e-05
6.07721e-05
5.94347e-05
5.8615e-05
5.81681e-05
5.80189e-05
5.81153e-05
5.83987e-05
5.88961e-05
5.94058e-05
6.00102e-05
6.06316e-05
6.15131e-05
6.2359e-05
6.32019e-05
6.4127e-05
6.48531e-05
6.58039e-05
6.64318e-05
6.72056e-05
6.76882e-05
6.86376e-05
6.92423e-05
7.001e-05
7.06068e-05
7.14272e-05
7.25639e-05
7.37455e-05
7.50141e-05
7.5964e-05
7.73777e-05
7.85143e-05
7.94925e-05
8.04519e-05
8.16805e-05
8.2747e-05
8.4154e-05
8.61183e-05
8.73664e-05
8.97001e-05
9.12143e-05
9.30244e-05
9.56792e-05
9.96442e-05
0.000103197
0.000106175
0.000108756
0.000109901
0.000109849
0.000110185
0.000111149
0.000111813
0.000110873
0.000110017
0.000109243
0.000110632
0.000111738
0.000110536
0.000105035
9.9869e-05
9.88058e-05
0.000101403
0.000107402
0.000115475
0.000121891
0.000123763
0.000122343
0.000120776
0.000120541
0.000120686
0.000121198
0.000123244
0.000122094
0.000125998
0.000129082
0.000132793
0.000134353
0.000125858
0.000117933
0.000116588
0.000133887
0.00015799
0.000168752
0.000180269
0.000186199
0.000217164
0.000234541
0.000251468
0.000240876
0.000212842
0.000192853
0.000188243
0.000186846
0.000185931
0.000188534
0.000188697
0.000194558
0.000199718
0.00020423
0.000222067
0.000241529
0.000264748
0.000288876
0.000310914
0.000309394
0.000298835
0.000310198
0.000322174
0.000312789
0.00027186
0.000249006
0.000259956
0.000256934
0.000261738
0.000259796
0.000274276
0.000280123
0.000281455
0.000275487
0.000248722
0.000141767
8.9014e-05
6.94407e-05
5.63297e-05
4.67458e-05
3.64458e-05
3.12625e-05
2.98136e-05
3.00351e-05
3.08464e-05
3.18026e-05
3.30552e-05
3.42892e-05
3.53868e-05
3.66e-05
3.80353e-05
3.97487e-05
4.10619e-05
4.20495e-05
4.28803e-05
4.33143e-05
4.34252e-05
4.34006e-05
4.30125e-05
4.24833e-05
4.20591e-05
4.17619e-05
4.15295e-05
4.14894e-05
4.17722e-05
4.24835e-05
4.33506e-05
4.49957e-05
4.80395e-05
5.33629e-05
6.06103e-05
6.93277e-05
7.38017e-05
7.76383e-05
8.54566e-05
9.7482e-05
0.000104047
0.000109604
0.000110071
0.000108738
0.000112333
0.000127859
0.000137491
0.000139867
0.000118295
9.67821e-05
8.55488e-05
7.65032e-05
6.93161e-05
6.39129e-05
5.86576e-05
5.54987e-05
5.27133e-05
5.11324e-05
5.01001e-05
4.9623e-05
4.94533e-05
4.97088e-05
4.99785e-05
5.04897e-05
5.09e-05
5.15428e-05
5.19948e-05
5.26482e-05
5.30663e-05
5.35104e-05
5.38877e-05
5.4206e-05
5.45498e-05
5.49691e-05
5.54755e-05
5.59978e-05
5.68729e-05
5.79452e-05
5.873e-05
5.90765e-05
5.97943e-05
6.06011e-05
6.14416e-05
6.22264e-05
6.28871e-05
6.42497e-05
6.52057e-05
6.69677e-05
6.78034e-05
6.97395e-05
7.05396e-05
7.20062e-05
7.28906e-05
7.42088e-05
7.53605e-05
7.59866e-05
7.72283e-05
7.76709e-05
7.8712e-05
7.93239e-05
8.01261e-05
8.13673e-05
8.43246e-05
8.85267e-05
9.38185e-05
0.000100182
0.000106507
0.000110866
0.000112201
0.000111324
0.000109134
0.000108719
0.000108999
0.000107318
0.000107408
0.000107817
0.000107245
0.000105048
0.000102147
0.000100963
0.000104269
0.000110438
0.000108865
0.000107904
0.000111617
0.000117031
0.000117934
0.000116849
0.000114808
0.000115671
0.000116561
0.000113205
0.000110775
0.000113397
0.000122638
0.000125222
0.000118902
0.000113644
0.000106217
0.000108778
0.000136705
0.000149497
0.000167073
0.000167715
0.000206058
0.000216285
0.000228509
0.000215091
0.000193734
0.000175705
0.000173568
0.000174104
0.000174554
0.000178275
0.000177623
0.000182128
0.000184249
0.000185283
0.000196346
0.000201998
0.000227186
0.000243895
0.000277094
0.000288671
0.000283242
0.000295343
0.000303503
0.000296112
0.000264117
0.000246499
0.000245917
0.000239769
0.000244682
0.000240468
0.000257136
0.000263045
0.000265055
0.000268965
0.000285797
0.000162409
0.000100962
7.14165e-05
5.46159e-05
4.05312e-05
3.09219e-05
2.77108e-05
2.76619e-05
2.8506e-05
2.97887e-05
3.12965e-05
3.29731e-05
3.45646e-05
3.59954e-05
3.81453e-05
4.06685e-05
4.29084e-05
4.41261e-05
4.49336e-05
4.55855e-05
4.57228e-05
4.56239e-05
4.52717e-05
4.4808e-05
4.40366e-05
4.32698e-05
4.22552e-05
4.1405e-05
4.10817e-05
4.12759e-05
4.21152e-05
4.29664e-05
4.36583e-05
4.42773e-05
4.68458e-05
5.14887e-05
6.00614e-05
7.23295e-05
8.21124e-05
9.76841e-05
0.000111873
0.000118774
0.00011645
0.000114132
0.00011421
0.000118112
0.0001238
0.000121377
0.000100143
8.12665e-05
6.83576e-05
6.16462e-05
5.59917e-05
5.13254e-05
4.87424e-05
4.68218e-05
4.58683e-05
4.536e-05
4.53283e-05
4.56657e-05
4.61878e-05
4.67874e-05
4.7586e-05
4.82725e-05
4.90681e-05
4.97294e-05
5.04018e-05
5.09892e-05
5.14108e-05
5.18282e-05
5.21838e-05
5.22227e-05
5.24389e-05
5.23325e-05
5.20546e-05
5.18864e-05
5.16076e-05
5.13275e-05
5.15963e-05
5.22266e-05
5.24918e-05
5.26964e-05
5.32239e-05
5.38088e-05
5.47952e-05
5.52286e-05
5.61303e-05
5.68352e-05
5.81033e-05
5.86936e-05
6.03449e-05
6.1497e-05
6.25963e-05
6.44386e-05
6.56081e-05
6.78517e-05
6.89559e-05
7.08161e-05
7.1726e-05
7.30672e-05
7.35568e-05
7.40372e-05
7.45238e-05
7.5579e-05
7.81395e-05
8.05899e-05
8.42725e-05
9.22589e-05
0.000101425
0.000106734
0.000110496
0.00011114
0.000111287
0.000111247
0.000109883
0.000110434
0.000110835
0.000110236
0.000107727
0.000105127
0.000107495
0.000107218
0.00010533
0.000108565
0.000112517
0.000109316
0.00010659
0.000101185
9.92324e-05
0.00010315
0.000107225
0.000108853
0.000102984
9.26503e-05
8.82973e-05
0.000101168
0.00011597
0.000110482
0.000106795
9.99734e-05
9.16944e-05
0.000118328
0.000134868
0.000156495
0.00015724
0.000195814
0.000203112
0.000211704
0.000196411
0.000180185
0.000163541
0.00016378
0.000165805
0.000165429
0.00016819
0.000165959
0.000170546
0.000173805
0.000171764
0.000186274
0.000183911
0.000203065
0.000212227
0.00023915
0.000263779
0.000270001
0.000282606
0.000288287
0.000284171
0.000256401
0.000244367
0.000236505
0.000230242
0.000242163
0.000233627
0.000243568
0.000254827
0.00026042
0.000265411
0.00031701
0.000178614
0.000106481
7.00976e-05
4.82567e-05
3.19476e-05
2.66981e-05
2.5968e-05
2.67383e-05
2.81371e-05
2.96689e-05
3.13425e-05
3.33875e-05
3.56801e-05
3.77921e-05
4.10155e-05
4.37937e-05
4.49792e-05
4.5456e-05
4.64754e-05
4.67564e-05
4.66429e-05
4.6178e-05
4.57186e-05
4.54329e-05
4.4598e-05
4.37588e-05
4.28507e-05
4.13809e-05
4.03335e-05
4.01988e-05
4.10164e-05
4.28913e-05
4.39678e-05
4.46076e-05
4.65754e-05
5.10535e-05
6.09417e-05
7.57683e-05
9.2281e-05
0.000109042
0.000117352
0.000118027
0.000113243
0.000110895
0.000110113
0.000110717
0.000100485
8.4139e-05
6.94813e-05
5.86637e-05
5.2203e-05
4.80576e-05
4.55109e-05
4.38495e-05
4.31213e-05
4.28275e-05
4.30513e-05
4.35018e-05
4.42457e-05
4.50445e-05
4.59671e-05
4.68196e-05
4.76979e-05
4.85305e-05
4.91092e-05
4.9855e-05
5.03134e-05
5.09566e-05
5.12727e-05
5.15988e-05
5.19338e-05
5.20112e-05
5.22127e-05
5.21351e-05
5.18039e-05
5.1294e-05
5.0829e-05
4.97688e-05
4.89748e-05
4.84296e-05
4.87076e-05
4.91629e-05
4.94902e-05
4.9864e-05
5.07831e-05
5.1408e-05
5.17795e-05
5.23771e-05
5.27199e-05
5.28986e-05
5.35899e-05
5.4288e-05
5.48036e-05
5.57323e-05
5.62388e-05
5.78868e-05
5.88455e-05
6.03724e-05
6.15973e-05
6.335e-05
6.49516e-05
6.63115e-05
6.75954e-05
6.90287e-05
7.18856e-05
7.39847e-05
7.50011e-05
7.81778e-05
8.43068e-05
9.19128e-05
9.89507e-05
0.000104564
0.000107938
0.00011127
0.000112628
0.000112402
0.000112261
0.000112663
0.00011318
0.00011203
0.000107035
0.000106202
0.000111355
0.000109027
0.000100641
9.49849e-05
9.72019e-05
9.50278e-05
9.17106e-05
9.23644e-05
9.55455e-05
0.00010028
9.67722e-05
9.07757e-05
8.63583e-05
9.00436e-05
0.000103941
0.000101661
9.87857e-05
9.69542e-05
8.8181e-05
0.000105264
0.000125733
0.000146387
0.000150254
0.000183389
0.000194503
0.000202462
0.000184212
0.000170248
0.000155096
0.000154293
0.00015504
0.000154688
0.000158914
0.000158015
0.000158521
0.000165759
0.000160368
0.000174675
0.000171803
0.00018352
0.000192567
0.00020935
0.000236581
0.000249978
0.000269846
0.000276542
0.000272593
0.000252279
0.00024436
0.000234702
0.00022587
0.000241127
0.000233617
0.0002392
0.000251379
0.000258076
0.000257573
0.000341794
0.000190271
0.000107982
6.51019e-05
3.80949e-05
2.72982e-05
2.5053e-05
2.53267e-05
2.6579e-05
2.80151e-05
2.94847e-05
3.13674e-05
3.4402e-05
3.78593e-05
4.06011e-05
4.39114e-05
4.60569e-05
4.73248e-05
4.81524e-05
4.80867e-05
4.71483e-05
4.62248e-05
4.55968e-05
4.51112e-05
4.49675e-05
4.44056e-05
4.39012e-05
4.34054e-05
4.19095e-05
4.04762e-05
4.00061e-05
4.04214e-05
4.29163e-05
4.46708e-05
4.56473e-05
4.77759e-05
5.33123e-05
6.57038e-05
8.57848e-05
0.000103377
0.000111277
0.00011498
0.000111157
0.000103527
0.000100174
9.49072e-05
8.52417e-05
7.19778e-05
5.99491e-05
5.23876e-05
4.65444e-05
4.38577e-05
4.20786e-05
4.14552e-05
4.12147e-05
4.14482e-05
4.19205e-05
4.27265e-05
4.35189e-05
4.44076e-05
4.52852e-05
4.63125e-05
4.72397e-05
4.78448e-05
4.84555e-05
4.87741e-05
4.9441e-05
4.96431e-05
5.00967e-05
5.03588e-05
5.05804e-05
5.08436e-05
5.09939e-05
5.12094e-05
5.13942e-05
5.13153e-05
5.10011e-05
5.08184e-05
4.96191e-05
4.86781e-05
4.67485e-05
4.5946e-05
4.55337e-05
4.55556e-05
4.57974e-05
4.69021e-05
4.80576e-05
4.84053e-05
4.88085e-05
4.93271e-05
4.92423e-05
4.91145e-05
4.94298e-05
4.96146e-05
4.97137e-05
4.95187e-05
5.00438e-05
5.06898e-05
5.15656e-05
5.22849e-05
5.35528e-05
5.50674e-05
5.62515e-05
5.79169e-05
5.91739e-05
6.13828e-05
6.39612e-05
6.60733e-05
6.78344e-05
7.21804e-05
7.91714e-05
8.34248e-05
8.77936e-05
9.55083e-05
0.000101719
0.000106125
0.00010899
0.000110036
0.000110897
0.000110197
0.000108911
0.000110587
0.000107767
0.000100704
9.74676e-05
9.50633e-05
9.23276e-05
9.02975e-05
8.83451e-05
8.72354e-05
8.78567e-05
8.73252e-05
9.08946e-05
9.4308e-05
9.18399e-05
9.59294e-05
9.26324e-05
9.9036e-05
9.89225e-05
9.63575e-05
9.79056e-05
8.83628e-05
9.41313e-05
0.000116154
0.000138385
0.000143132
0.000169412
0.000182987
0.000192922
0.000174834
0.000161456
0.000147632
0.000144875
0.000145862
0.000147689
0.00014905
0.00015199
0.000147447
0.000157119
0.000152352
0.000164613
0.000164171
0.000173806
0.000180679
0.000193092
0.00021248
0.000223878
0.00025189
0.000261967
0.00026546
0.00024886
0.000246434
0.000240863
0.000231145
0.000239389
0.000235332
0.000246781
0.000262798
0.000244215
0.000254318
0.00036058
0.000199462
0.000108329
5.86166e-05
3.33416e-05
2.54906e-05
2.44988e-05
2.51255e-05
2.65825e-05
2.79104e-05
2.96033e-05
3.22363e-05
3.57945e-05
3.95817e-05
4.28454e-05
4.64316e-05
4.91446e-05
5.01646e-05
4.99834e-05
4.84368e-05
4.66468e-05
4.55725e-05
4.49537e-05
4.4379e-05
4.37988e-05
4.32375e-05
4.29364e-05
4.27296e-05
4.16017e-05
4.05348e-05
4.01481e-05
4.0703e-05
4.35733e-05
4.5736e-05
4.75465e-05
5.07004e-05
5.86547e-05
7.55359e-05
9.45292e-05
0.000104208
0.000108628
0.000106197
9.44834e-05
8.7315e-05
8.2321e-05
7.27315e-05
6.32734e-05
5.37947e-05
4.73891e-05
4.38891e-05
4.14224e-05
4.06136e-05
4.02255e-05
4.05092e-05
4.07735e-05
4.14499e-05
4.22037e-05
4.29884e-05
4.38405e-05
4.5008e-05
4.59925e-05
4.67096e-05
4.72459e-05
4.75262e-05
4.79911e-05
4.80318e-05
4.82441e-05
4.79434e-05
4.79731e-05
4.79997e-05
4.81547e-05
4.83447e-05
4.86964e-05
4.92165e-05
5.00912e-05
5.04153e-05
5.04146e-05
5.05682e-05
4.96851e-05
4.89308e-05
4.66893e-05
4.5033e-05
4.33289e-05
4.26883e-05
4.24467e-05
4.27029e-05
4.3492e-05
4.38158e-05
4.41075e-05
4.46063e-05
4.47102e-05
4.43642e-05
4.43106e-05
4.46165e-05
4.4841e-05
4.441e-05
4.47577e-05
4.50953e-05
4.55816e-05
4.61167e-05
4.65782e-05
4.76469e-05
4.86394e-05
4.98376e-05
5.07187e-05
5.28118e-05
5.4456e-05
5.6322e-05
5.81127e-05
6.14494e-05
6.5444e-05
6.96994e-05
7.27616e-05
7.6836e-05
8.23028e-05
8.89227e-05
9.35682e-05
9.65566e-05
9.78859e-05
9.8981e-05
9.87857e-05
9.78654e-05
9.69389e-05
9.29769e-05
9.06221e-05
8.67213e-05
8.32713e-05
8.28413e-05
8.35816e-05
8.46898e-05
8.60975e-05
8.1666e-05
7.87206e-05
8.3378e-05
8.77753e-05
9.07215e-05
8.59223e-05
9.02173e-05
9.50472e-05
9.50643e-05
9.96201e-05
9.20523e-05
9.25785e-05
0.000108448
0.000131514
0.000135475
0.000156979
0.000171981
0.00018338
0.000170068
0.000153846
0.000140934
0.000139021
0.000138553
0.000141317
0.000138647
0.000145293
0.000138674
0.000148121
0.000145906
0.000157295
0.000157341
0.000166136
0.000170113
0.000181095
0.000194723
0.000203662
0.000228643
0.00024229
0.000258845
0.000244703
0.000246431
0.000251749
0.000242812
0.000234116
0.000254637
0.000247542
0.0002624
0.00025498
0.000263446
0.000373605
0.000206701
0.000108538
5.57366e-05
3.09104e-05
2.48235e-05
2.43098e-05
2.52945e-05
2.69318e-05
2.81327e-05
2.99048e-05
3.23382e-05
3.58306e-05
3.99542e-05
4.37614e-05
4.79909e-05
5.05958e-05
5.12484e-05
5.04789e-05
4.79599e-05
4.62443e-05
4.54511e-05
4.49676e-05
4.43111e-05
4.33699e-05
4.25454e-05
4.2029e-05
4.15844e-05
4.06284e-05
4.02795e-05
4.0213e-05
4.14053e-05
4.4452e-05
4.70372e-05
4.98855e-05
5.55415e-05
6.71814e-05
8.46886e-05
9.56589e-05
0.000101523
9.95606e-05
8.91986e-05
7.86233e-05
7.28288e-05
6.49883e-05
5.61453e-05
5.01699e-05
4.47603e-05
4.18138e-05
4.02603e-05
3.97591e-05
3.996e-05
3.99319e-05
4.04032e-05
4.08937e-05
4.16455e-05
4.23236e-05
4.34415e-05
4.47248e-05
4.54496e-05
4.61769e-05
4.67858e-05
4.7252e-05
4.73139e-05
4.74717e-05
4.72459e-05
4.70055e-05
4.66442e-05
4.64837e-05
4.63372e-05
4.64292e-05
4.6501e-05
4.656e-05
4.65272e-05
4.68793e-05
4.79337e-05
4.9621e-05
5.00403e-05
4.97137e-05
4.89367e-05
4.74281e-05
4.4747e-05
4.25011e-05
4.09887e-05
4.03908e-05
4.00829e-05
4.04394e-05
4.06209e-05
4.08771e-05
4.11655e-05
4.14539e-05
4.12233e-05
4.12571e-05
4.11915e-05
4.16067e-05
4.12201e-05
4.13764e-05
4.19088e-05
4.20581e-05
4.22689e-05
4.27858e-05
4.34402e-05
4.3753e-05
4.4802e-05
4.55159e-05
4.67799e-05
4.77761e-05
4.94106e-05
5.10145e-05
5.34791e-05
5.54989e-05
5.83718e-05
6.13602e-05
6.30469e-05
6.70692e-05
7.07644e-05
7.55118e-05
7.84142e-05
7.87938e-05
7.89555e-05
8.02029e-05
8.15517e-05
8.19177e-05
7.90868e-05
7.87048e-05
8.05516e-05
8.04088e-05
7.85896e-05
7.5505e-05
7.60791e-05
7.99276e-05
7.84631e-05
7.45426e-05
7.57435e-05
8.03088e-05
8.15886e-05
8.00249e-05
8.20065e-05
8.86797e-05
9.06973e-05
9.82063e-05
9.73013e-05
9.67077e-05
0.000101759
0.000124107
0.00012708
0.000146691
0.000165214
0.000176434
0.000167709
0.000148764
0.000136553
0.0001352
0.000132809
0.000137161
0.00013114
0.000138921
0.000132062
0.000139806
0.000138528
0.000149375
0.000151933
0.000160502
0.000162788
0.000172018
0.000183324
0.000194168
0.000204117
0.000219161
0.00024449
0.00023677
0.000242999
0.000255579
0.000252761
0.000230992
0.00026104
0.000240689
0.000257669
0.000248403
0.000273918
0.000379084
0.000208718
0.000107475
5.27085e-05
2.94198e-05
2.46732e-05
2.44616e-05
2.56413e-05
2.71473e-05
2.81897e-05
2.99635e-05
3.25036e-05
3.62743e-05
4.09811e-05
4.54219e-05
4.96122e-05
5.15523e-05
5.18094e-05
5.02594e-05
4.76679e-05
4.68895e-05
4.6538e-05
4.55028e-05
4.36347e-05
4.2005e-05
4.10155e-05
4.02883e-05
3.97671e-05
3.95831e-05
3.95209e-05
3.95379e-05
4.15253e-05
4.50442e-05
4.82578e-05
5.2713e-05
6.06505e-05
7.44927e-05
8.61901e-05
9.24566e-05
9.30002e-05
8.71205e-05
7.38619e-05
6.56317e-05
6.07561e-05
5.26107e-05
4.73505e-05
4.34257e-05
4.07343e-05
3.9857e-05
3.96056e-05
3.95816e-05
3.97042e-05
3.99669e-05
4.06633e-05
4.10065e-05
4.2086e-05
4.34835e-05
4.45946e-05
4.54842e-05
4.65738e-05
4.73632e-05
4.74879e-05
4.78227e-05
4.78467e-05
4.7742e-05
4.71917e-05
4.68379e-05
4.66023e-05
4.63658e-05
4.61049e-05
4.60165e-05
4.60308e-05
4.61814e-05
4.61673e-05
4.59318e-05
4.5552e-05
4.59199e-05
4.76577e-05
4.96413e-05
4.93737e-05
4.83077e-05
4.54731e-05
4.26039e-05
4.04121e-05
3.9633e-05
3.90738e-05
3.90967e-05
3.91521e-05
3.9406e-05
3.95808e-05
4.00239e-05
4.00152e-05
3.98713e-05
3.98853e-05
4.02339e-05
4.00682e-05
3.99072e-05
4.03706e-05
4.01595e-05
4.02808e-05
4.06726e-05
4.10756e-05
4.14413e-05
4.21607e-05
4.25436e-05
4.33779e-05
4.41709e-05
4.48279e-05
4.61777e-05
4.73043e-05
4.93295e-05