/*--------------------------------*- C++ -*----------------------------------*\
| =========                 |                                                 |
| \\      /  F ield         | OpenFOAM: The Open Source CFD Toolbox           |
|  \\    /   O peration     | Version:  dev                                   |
|   \\  /    A nd           | Web:      http://www.openfoam.org               |
|    \\/     M anipulation  |                                                 |
\*---------------------------------------------------------------------------*/
FoamFile
{
    version     2.0;
    format      ascii;
    class       volScalarField;
    object      p;
    location    "9.12";
}
// * * * * * * * * * * * * * * * * * * * * * * * * * * * * * * * * * * * * * //

dimensions      [1 -1 -2 0 0 0 0];

internalField   nonuniform List<scalar> 
12225
(
87449.8
87488.8
87586.3
87727.7
87895.3
88093.3
88305.1
88546.7
88799.7
89079.9
89364.3
89692.3
89995.7
90399.2
90726
91168.2
91571.7
91905.4
87458.3
87500.9
87598.7
87740
87907.6
88104.5
88317.5
88558.1
88810.8
89091.3
89373.1
89704.9
89998.5
90411.3
90722.7
91176.5
91587.8
92057.9
87483.5
87529.2
87627.4
87768.3
87935.5
88131.5
88344.9
88584.5
88836.8
89115.7
89398.5
89724
90026.5
90415.1
90735.3
91182.2
91588.3
92062.6
87527.7
87577.8
87676.7
87817.1
87983.5
88178.7
88391.8
88630.1
88881.8
89158.1
89441.4
89759.4
90067.4
90431.1
90766.9
91179.3
91591.9
92032.7
87598.9
87653
87752.4
87892
88057.4
88251.5
88463.9
88700.2
88951
89223.3
89506.1
89812
90126.3
90468.4
90814.3
91197.2
91595.4
91998.3
87703.2
87762
87861.5
88000
88164.5
88356.8
88568
88801.6
89050.5
89318.3
89599.2
89898
90211.2
90540
90887.4
91243.1
91621.3
91979.8
87853.5
87914.1
88013.1
88149.9
88313.6
88503.3
88713
88942.9
89189.3
89451.8
89729.3
90020.6
90328.5
90646.4
90982.7
91317.8
91665.1
91991.2
88030.4
88088.4
88186.6
88321.8
88484.2
88671.3
88879.1
89105.3
89348.7
89606.1
89878.9
90162.8
90462.8
90769
91091.3
91408.5
91732.2
92040
88223.5
88277.3
88374.7
88508.2
88669.2
88853.7
89059.2
89281.8
89521.6
89774.2
90041.4
90318.1
90609
90905.1
91212
91515.2
91819.6
92111.1
88478.5
88529.6
88626.1
88757.4
88916.4
89097.6
89299.8
89517.9
89752.7
89999.2
90258.8
90526.9
90806.3
91090.5
91380.7
91668.5
91953.4
92227.7
88816.5
88866.5
88961.8
89090.3
89246.4
89423.3
89621
89833.4
90061.5
90300.1
90550.2
90807.9
91073.9
91343.7
91616.4
91886.9
92152.3
92408.5
89266.2
89315.4
89409.4
89534.4
89686.3
89857.9
90049.1
90254.3
90473.6
90702.5
90941
91186
91436.7
91689.9
91943.8
92195.2
92441
92678.8
89861.9
89913.4
90005.2
90125.8
90271.5
90436.2
90618.8
90814.7
91022.8
91239.8
91464.2
91693.9
91927.1
92161.5
92395.3
92626.3
92852
93070.5
90654.8
90707.4
90795.7
90910.5
91047.9
91203.3
91374.7
91558.6
91752.8
91954.6
92162.1
92373.4
92586.9
92800.5
93012.5
93221.5
93425.8
93623.7
91709.4
91758.6
91840.6
91946.5
92072.5
92215.2
92372
92540.1
92716.8
92899.9
93087.1
93276.9
93467.8
93658.1
93846.2
94031.5
94212.3
94387.9
93075.4
93132.2
93207
93300.6
93411.4
93537
93675.1
93822.9
93977.8
94137.7
94300.8
94465.3
94630
94793.7
94955.3
95114
95268.8
95419.7
94856.2
94906.9
94968.5
95044.6
95135
95238.5
95352.7
95474.9
95602.7
95734.2
95868
96002.6
96136.9
96270
96401.2
96529.9
96655.5
96778.3
96941.3
96975.5
97019
97074
97141.1
97219.2
97306.3
97399.7
97497.3
97597.7
97699.4
97801.5
97903.1
98003.8
98102.8
98199.9
98294.9
98387.9
98984.4
98994.1
99017.6
99052.5
99098
99152.6
99214.4
99281.2
99351.1
99422.8
99495.1
99567.6
99639.5
99710.5
99780.3
99848.8
99915.9
99981.5
100747
100749
100759
100778
100807
100842
100882
100927
100974
101022
101070
101118
101166
101212
101258
101303
101347
101390
102224
102216
102216
102224
102239
102259
102283
102310
102339
102368
102398
102427
102456
102483
102510
102537
102562
102587
103408
103400
103395
103396
103401
103409
103421
103435
103450
103465
103481
103496
103510
103523
103536
103547
103558
103569
104343
104328
104319
104314
104313
104314
104317
104321
104326
104331
104337
104341
104344
104347
104348
104349
104348
104348
105047
105034
105023
105015
105009
105004
105001
104999
104997
104995
104992
104989
104984
104979
104972
104964
104955
104946
105573
105556
105543
105533
105524
105516
105509
105502
105495
105487
105479
105470
105459
105447
105435
105421
105406
105391
105942
105930
105917
105905
105893
105882
105871
105861
105850
105839
105826
105813
105798
105782
105765
105747
105729
105709
106201
106189
106176
106160
106144
106131
106118
106105
106092
106078
106063
106047
106030
106011
105991
105970
105949
105926
106362
106350
106336
106321
106307
106291
106275
106260
106246
106231
106214
106197
106177
106157
106135
106113
106089
106065
106457
106441
106425
106410
106395
106380
106364
106348
106333
106317
106300
106281
106261
106239
106217
106193
106168
106143
106501
106481
106463
106447
106432
106417
106401
106385
106369
106353
106335
106316
106296
106274
106251
106226
106201
106176
109231
109223
109204
109175
109136
109088
109030
108964
108889
108805
108712
108610
108499
108378
108247
108107
107957
107797
107628
107448
107260
107061
106853
106636
106409
106172
105927
105672
105407
105134
104852
104561
104262
103955
103641
103321
102995
102661
102319
101972
101619
101264
100906
100549
100194
99838
99483.1
99130.1
98780.1
98432
98082.9
97733.1
97388.3
97050.4
96719.5
96395.4
96077.9
95770.5
95466.2
95161.5
94859.5
94561.6
94268.3
93979.4
93694.8
93413.8
93135.7
92859.5
92583.9
92307
92029.2
91749.3
91466.1
91178.4
90885.5
90586.7
90281.5
89969.7
89651.4
89326.9
88997
88662.6
88324.9
87985.7
87646.5
87309.1
86975.9
86649.2
86331.3
86024.7
85732.2
85456.1
85199.4
84964.5
84753.4
84568.3
84410.7
84282.5
84184.9
84119.2
84086.1
84086.2
84119.7
84186.3
84285.1
84414.9
84574.3
84761
84972.1
85204.5
85455.7
85723.3
86005
86299.7
86605.6
86919.7
87239.6
87563.3
87888.6
88212.2
88531.8
88848.6
89162.7
89476.8
89788.5
90092.8
90385.2
90662.4
90925
91173.4
91403.4
91618.6
91811
91982.1
92130.1
92254.5
92354.7
92428.8
92474.8
92496.9
92495.2
92472.9
92428.2
92358.9
92266.2
92148.1
92004.3
91831.4
91627.1
91390.3
91127.8
90844.6
90548.9
90241.1
89920.4
89587.8
89244.6
88894.9
88538.8
88182
87817.6
87449.1
87069.6
86652
86216.4
85729.2
85197
84626.4
84000.1
83268.9
82484.2
81746
81022
80326.2
79655.2
79030
78465.3
77983.7
77595
77333.4
109112
109104
109085
109056
109016
108967
108910
108845
108772
108690
108599
108499
108390
108271
108142
108004
107856
107698
107530
107353
107166
106970
106764
106549
106324
106091
105848
105596
105335
105065
104786
104497
104201
103897
103586
103272
102951
102619
102278
101932
101582
101227
100875
100526
100178
99830.3
99482.3
99133.1
98783.5
98434.3
98091
97742.8
97408
97083.5
96758.9
96429.2
96110.1
95803.3
95499.3
95197.6
94899.5
94605.6
94316.1
94031
93749.9
93472.5
93198.2
92923.8
92650.2
92377.6
92103.4
91826.6
91546.2
91261.2
90970.9
90674.6
90371.9
90062.5
89746.6
89424.3
89096.6
88764.3
88428.6
88091.3
87754.1
87418.7
87087.3
86762.3
86445.9
86140.8
85849.8
85574.7
85318.8
85084.5
84873.9
84688.6
84530.6
84401.8
84303
84236.2
84201.3
84199.5
84230.6
84294.2
84389.8
84516.3
84672.1
84855.3
85062.8
85291.5
85539
85802.7
86080.4
86370.9
86672.6
86982.7
87298.8
87619.3
87942
88262.2
88576.9
88888.6
89198.3
89509.3
89818
90118.6
90405.4
90682.3
90941.3
91186.6
91412.4
91626.9
91816.2
91984.7
92130.3
92252.7
92350.8
92423.6
92467.4
92488
92484
92460.4
92415.8
92346
92252.4
92133.2
91988.2
91814.2
91608.2
91368.1
91102.8
90817.8
90523.1
90215
89894.5
89562.1
89218
88868.5
88511.8
88156.7
87792.4
87424.8
87045
86637.9
86202.9
85718.4
85189.1
84625.1
84001.1
83273.4
82490
81757.6
81041.6
80347.8
79679.2
79056.6
78494.3
78016.3
77628.8
77365.7
108880
108870
108850
108821
108782
108736
108683
108622
108552
108474
108387
108291
108185
108070
107945
107810
107665
107510
107346
107172
106988
106795
106592
106381
106161
105932
105694
105447
105192
104928
104654
104372
104082
103784
103478
103166
102847
102524
102194
101856
101513
101165
100821
100482
100145
99808.1
99472.5
99137.4
98801.2
98462.2
98123.1
97794.7
97455.1
97130.3
96808.3
96488.8
96175.7
95870
95569.6
95273.7
94982.4
94695.5
94413.2
94135.1
93860.8
93589.5
93319.5
93052.4
92786.1
92519.2
92250.7
91979.2
91704.1
91424.3
91139
90847.6
90549.8
90245.1
89933.9
89616.2
89292.8
88964.9
88633.4
88299.9
87966.6
87635
87307.5
86986.3
86673.6
86371.7
86083.8
85811.8
85558.2
85325.7
85116.5
84932.3
84774.5
84645.2
84545.1
84476.5
84438.9
84433.4
84459.9
84517.8
84606.5
84725.1
84872.8
85047.8
85247.7
85468.9
85708.5
85964.7
86234.9
86517.2
86809.7
87110.3
87418
87735.4
88053.7
88364.9
88668.4
88967.7
89268
89567.1
89871.1
90171.3
90455.9
90722.2
90972.3
91212
91432.1
91639.4
91826.9
91991.6
92132.2
92250.4
92345.7
92416.2
92459
92473
92462.9
92435.5
92389.6
92318.9
92224.5
92101.8
91954.6
91776
91566.2
91320.9
91052.4
90766.2
90474.2
90165.6
89844.6
89512.4
89166.6
88816.7
88458.3
88106.3
87744.6
87376.4
86998.5
86600.3
86172
85694.6
85171.4
84615.5
83993.1
83275.4
82500.9
81782.7
81082.1
80395.4
79730
79112.8
78554.7
78078.7
77700.1
77439.5
108543
108533
108514
108487
108452
108411
108362
108305
108240
108166
108083
107991
107889
107778
107658
107527
107386
107236
107076
106906
106726
106538
106340
106134
105919
105696
105465
105226
104979
104722
104457
104185
103904
103615
103319
103016
102706
102392
102072
101746
101418
101084
100751
100421
100090
99767.4
99451.3
99132.2
98807.6
98479.8
98153
97833.2
97503.4
97188
96875.9
96568.1
96265.7
95969
95677.7
95391.3
95109.7
94832.6
94560
94291.4
94026.4
93764.1
93503.1
93244
92985.5
92726.3
92465.3
92201.5
91933.6
91661.1
91382.8
91098.3
90807.1
90509.1
90204.2
89892.9
89575.6
89253.7
88927.9
88600.1
88271.9
87945.5
87623
87306.7
86998.9
86701.7
86418.2
86150.1
85900
85670.5
85463.2
85280.8
85123.9
84994.9
84894.2
84823.7
84784.1
84775.1
84797.3
84849.5
84930.6
85039.2
85175.4
85338.2
85525
85733.4
85961
86205.5
86463.4
86734.7
87016.9
87306.1
87600.1
87900.2
88204.2
88511.8
88807
89090.9
89374.6
89660.8
89950.7
90232.1
90507
90781.4
91020.4
91251.4
91465.6
91664.2
91844.5
92001.5
92135.1
92247.3
92338.6
92405.1
92441.7
92450.2
92433.9
92400.5
92351.1
92278.5
92181.9
92054.3
91903.9
91718.2
91502.2
91251.9
90981
90693.9
90406.2
90095.6
89773.7
89441.9
89092.7
88742.5
88383.7
88031.4
87673.1
87307.2
86934
86542.8
86124
85657.7
85146.4
84598.8
83980.1
83282.6
82531.9
81821.7
81137
80464.3
79809.8
79202.2
78650.7
78179
77804.7
77546.3
108111
108102
108084
108060
108028
107990
107945
107891
107830
107760
107682
107595
107499
107394
107278
107152
107017
106872
106717
106553
106379
106197
106006
105807
105599
105384
105162
104932
104695
104450
104198
103938
103671
103396
103114
102825
102528
102226
101921
101613
101302
100983
100665
100349
100035
99724.4
99417.5
99109.7
98800.3
98491.4
98182
97873.1
97565.9
97263.5
96965.5
96672.2
96383.8
96100.6
95822.3
95548.7
95279.7
95015
94754.5
94497.8
94244.6
93992.4
93743
93494.5
93246.2
92997.1
92745.8
92491.6
92233.2
91969.7
91700.5
91424.7
91142
90852.3
90555.7
90252.1
89942.5
89627.9
89309.3
88988.2
88666.7
88346.6
88029.9
87719.6
87417.5
87125.8
86847.2
86584
86337.8
86111.7
85906.6
85725.5
85569.2
85439.5
85337.6
85264.4
85221.3
85207.6
85224.2
85270.2
85345.1
85446.3
85572.9
85722.7
85892.9
86083.2
86293.9
86522.3
86764
87018.8
87284.9
87557.7
87835.2
88119.3
88404.9
88686.6
88963.5
89235.2
89506.3
89784.9
90066
90334.4
90595.4
90844.6
91081.6
91302.3
91503.1
91693
91868.7
92019.9
92143
92244.7
92328.8
92389.1
92418.4
92421.9
92397.8
92358.4
92304.2
92226.5
92124.8
91991.9
91835.2
91642.8
91419.7
91163.5
90891.5
90606.2
90314.5
90004.4
89679.4
89351
88996.2
88645.7
88288.8
87935.7
87581.1
87219.3
86852
86468.8
86060
85607.7
85113.1
84574.6
83967.2
83296.9
82577.1
81879.6
81211.4
80557.3
79917.4
79321.5
78781.4
78319.1
77954
77698.3
107588
107580
107564
107542
107513
107478
107436
107386
107330
107265
107193
107112
107021
106921
106811
106691
106562
106424
106276
106120
105954
105780
105598
105407
105210
105005
104793
104575
104350
104119
103882
103639
103389
103131
102865
102592
102312
102028
101741
101452
101159
100863
100565
100266
99968.1
99672.4
99379.4
99087.7
98797.8
98507.9
98217.1
97927.7
97640.8
97357.5
97078
96802.5
96531.5
96264.9
96002.6
95744.6
95490.8
95241.1
94995.2
94752.9
94514.2
94275.4
94038.8
93803.8
93568.2
93331.8
93092.7
92850
92603.2
92350.7
92092.1
91826.8
91554.3
91274.4
90987.3
90693.2
90392.5
90086.5
89776.2
89463.2
89149.1
88836.3
88526.5
88222.9
87927.1
87641.5
87368.5
87110.8
86869.2
86646.5
86444.2
86264.6
86109.1
85978
85874.2
85797.2
85748.8
85728.3
85736.7
85773.6
85839.1
85931.1
86047.1
86186.3
86345.4
86520.6
86709
86914.9
87139.1
87372
87614.1
87862.9
88120.8
88383.6
88646.1
88901.4
89153.1
89412.4
89677.7
89938.4
90197.7
90455.3
90709.4
90951.5
91179.4
91379.2
91563.2
91741.7
91906.8
92044.3
92154.6
92244.5
92320.6
92373.6
92393.6
92389.3
92357
92310
92248.8
92164.4
92055.5
91915
91750.4
91551.6
91320.7
91059.6
90785.3
90500.7
90205.1
89893.5
89567.4
89232.3
88880.8
88526.6
88173.4
87820.9
87470.3
87114.4
86753.7
86380.4
85982.6
85546.2
85070.7
84546.9
83960.8
83320.8
82634
81957.9
81308
80675.6
80048.5
79475.1
78949.1
78499.8
78148.8
77897.5
106979
106972
106958
106938
106913
106881
106843
106798
106746
106687
106619
106542
106457
106363
106260
106148
106027
105897
105759
105612
105456
105292
105120
104941
104755
104563
104364
104161
103951
103736
103517
103292
103063
102825
102579
102324
102062
101797
101532
101265
100995
100724
100448
100169
99891.8
99615.4
99343
99072.9
98802.7
98532.9
98264.4
97997.9
97733.7
97472.3
97214.2
96959.5
96708.5
96461.1
96217.6
95977.9
95742
95509.7
95280.7
95054.8
94830.6
94610.1
94390.6
94171.6
93951.4
93729.6
93505.2
93276.7
93043.4
92804.3
92558.7
92305.7
92045.3
91777
91500.8
91217.3
90926.9
90630.8
90329.6
90025.8
89720.1
89415.2
89113
88816.2
88527.3
88248.2
87980.8
87728
87491.3
87272.2
87071.9
86893.4
86738
86605.8
86498.8
86417.6
86363.3
86335.3
86334.5
86360.4
86414
86492.9
86592.8
86716.9
86863.2
87024.7
87197.5
87386.8
87588.6
87794.2
88009.1
88233.6
88463.6
88696.6
88931.9
89167.3
89404.3
89646.9
89884.9
90131.4
90377
90613.7
90841.6
91062.5
91274
91467
91647.8
91810.2
91955.3
92075.3
92169.4
92247.6
92314.5
92360.4
92369
92355.7
92312.7
92254.8
92184.4
92092.8
91974.3
91824.8
91652
91445
91206.9
90941.9
90664.1
90378.9
90078.6
89764.2
89435.6
89095
88743.5
88387.6
88038.8
87687.9
87341.9
86994.4
86642.5
86280.1
85894.2
85474.3
85020.7
84517.4
83961
83353.7
82700.7
82055.1
81428
80813.6
80202.9
79651.9
79150.5
78719.4
78394.7
78150.9
106290
106285
106273
106256
106234
106206
106171
106130
106083
106028
105965
105895
105817
105730
105636
105533
105423
105303
105175
105038
104893
104739
104579
104413
104241
104064
103883
103696
103505
103310
103109
102906
102699
102484
102258
102023
101782
101539
101298
101056
100812
100566
100315
100062
99808.8
99557.5
99308.7
99061.1
98815.1
98570.1
98327
98085.4
97845.9
97608.9
97374.4
97142.7
96914
96688.6
96466.3
96247.5
96032
95819.8
95610.5
95403.8
95198.3
94996.8
94795.3
94593.5
94390.7
94185.5
93977.3
93764.8
93547
93323.4
93092.9
92854.9
92609.1
92355.2
92092.8
91822
91543.6
91259
90968.7
90674.8
90379.1
90083.1
89789.5
89500.4
89219
88947.1
88685.9
88438.2
88205.7
87990.5
87791
87612.8
87456.1
87321.5
87209.9
87123
87061.6
87023.9
87012.5
87026.8
87065
87129.8
87211.8
87315
87443.3
87588.7
87742.4
87912.4
88095.4
88279.4
88472.3
88671.6
88873.4
89079.6
89289.1
89500.1
89710.6
89925.5
90145.9
90367
90584.5
90797
91004.7
91208.2
91387.7
91565.8
91730.5
91877.8
92009.6
92113.3
92192.5
92258.2
92310
92343.2
92340.7
92317.5
92263.4
92193.3
92113
92012.2
91882.8
91722.5
91540.8
91325.6
91079.8
90811.6
90529.3
90241.1
89937.3
89617.8
89285.3
88939.3
88586.8
88231.6
87884.5
87538.6
87198.7
86860.4
86518.5
86168.2
85796
85394.7
84965.3
84487.4
83967.6
83396.9
82781
82173.6
81573.3
80949.8
80385.8
79867.1
79384.5
78980
78695.4
78459.6
105529
105526
105517
105503
105484
105459
105428
105392
105349
105300
105244
105181
105111
105033
104949
104857
104757
104648
104531
104405
104271
104130
103984
103832
103677
103518
103356
103189
103019
102844
102666
102486
102303
102111
101906
101693
101476
101260
101046
100830
100614
100394
100171
99946.7
99721.6
99498.1
99276.4
99056.7
98838.3
98620.7
98405.1
98190.8
97978.2
97767.3
97558.5
97352.2
97148.1
96946.6
96748
96552.2
96359.2
96169.1
95981.3
95796
95612.3
95429
95246.6
95063.5
94879.3
94692.3
94501.8
94306.6
94105.9
93898.8
93684.8
93463.1
93233.7
92996.7
92751.1
92496.6
92233.5
91962.7
91685.4
91402.9
91118.4
90832.4
90548.8
90268.8
89994.8
89730.6
89476.9
89235.1
89007
88797.3
88596.3
88420.2
88262.3
88124.1
88008.3
87914.4
87843.3
87795.4
87771.4
87770.3
87791.4
87835.8
87900.3
87984.1
88087.6
88209.5
88343.5
88490.6
88646.8
88810.7
88980
89154.7
89331
89509.5
89693.1
89877.6
90062.3
90251.4
90441.7
90632.8
90826.6
91013.9
91191.9
91362.9
91528.3
91684.3
91827.7
91954.9
92073.7
92161
92227.3
92278.8
92312.3
92328.4
92311.6
92276
92210.1
92128.6
92035.2
91923.4
91780.9
91610.4
91419.2
91195.3
90940.3
90667.1
90381.9
90089.4
89781.6
89456.4
89119.1
88769.5
88415.2
88062.1
87715.6
87374.8
87041.8
86713.9
86383.6
86047.8
85691.2
85311.8
84907.2
84459.4
83983.2
83451.8
82877.1
82310.6
81741.8
81133.4
80599.5
80077.9
79670.5
79300.4
79007.8
78791.7
104705
104703
104696
104685
104669
104648
104622
104590
104553
104510
104461
104407
104346
104279
104205
104124
104035
103938
103833
103719
103599
103473
103342
103209
103073
102935
102794
102649
102501
102350
102194
102039
101880
101711
101529
101341
101152
100966
100780
100594
100406
100215
100022
99828.6
99634.6
99442.7
99250.7
99061.2
98872.8
98685.6
98500.1
98314.5
98130.3
97947.8
97766.8
97587.3
97409.8
97234.4
97060.8
96889.6
96720.7
96554.1
96389.1
96225.7
96063.9
95902.2
95740.7
95578.4
95414.3
95247.2
95076.1
94900
94717.9
94528.8
94332.1
94127.2
93914
93693.7
93465.9
93229.5
92984.8
92731.3
92470
92201.7
91930.6
91656.7
91383.6
91114.9
90850.1
90593.1
90346.8
90111.8
89886.1
89678.8
89485
89307.4
89148.7
89008.2
88887.6
88786.6
88705.9
88646.5
88608
88591.1
88594.3
88618.3
88660.5
88721.8
88798.5
88892.9
89000.8
89120.8
89248
89384.6
89527.8
89675.1
89826.9
89979
90134.6
90290.7
90447.3
90610.5
90773.3
90929.8
91088.1
91246
91410.8
91554.2
91697.4
91829.5
91948.7
92050.6
92143.7
92224.6
92273.9
92309.2
92324.2
92322.8
92290.4
92238.7
92159.2
92060.4
91952.5
91828.5
91672.3
91491.1
91288.4
91054.3
90789
90508.9
90222
89925.2
89612.4
89282.8
88939.4
88586.8
88230.4
87878.2
87534.1
87199
86875.6
86558.5
86240.1
85921.3
85582
85228
84848.1
84436.7
84006.2
83519.9
82991.7
82465.2
81905.3
81360.9
80855
80381.5
80017.8
79664.2
79419
79179.2
103827
103827
103823
103814
103802
103785
103764
103738
103707
103671
103630
103584
103533
103476
103414
103346
103270
103187
103096
102997
102892
102783
102671
102558
102444
102327
102207
102085
101960
101831
101702
101574
101439
101291
101134
100976
100818
100663
100508
100353
100196
100035
99875.4
99715
99554.2
99394.3
99235.1
99077.8
98921
98764.2
98611.7
98457.1
98303.6
98150.5
97998.6
97847.9
97698.2
97550
97403.5
97258.8
97115.3
96973.8
96833.6
96693.9
96554.8
96416.6
96277.9
96137.4
95995
95849.1
95699
95543.2
95381.2
95212.4
95034.9
94848.8
94652.8
94448.1
94237.2
94017.4
93791
93556.5
93313.6
93062.9
92807.2
92548.6
92288
92033.5
91779.5
91530.6
91291
91061.6
90843
90636.4
90445
90266.9
90106.6
89963.1
89837.4
89729.8
89640.2
89569.3
89516.6
89482.9
89467.2
89470
89488.2
89525.1
89576.2
89641.2
89718.9
89807.7
89905.3
90008.5
90123
90238.4
90359.7
90484.9
90609.7
90739.3
90865.5
90991.4
91119.6
91262.6
91393.2
91518.1
91638.7
91764.9
91887.5
91999.4
92093.9
92172.2
92232
92292.1
92330.7
92345.8
92342.4
92318.3
92271.9
92203.7
92110.2
91996.9
91870
91730.5
91559.4
91367
91151.6
90903.9
90629
90341.7
90052
89751.9
89431.2
89097.3
88747.9
88392
88034.8
87682.6
87343.1
87014.4
86701
86394.3
86090.4
85790.5
85470.6
85145.3
84793.1
84421.5
84036.4
83600
83121.8
82629.4
82123.4
81620.4
81142.6
80717.2
80347.1
80053
79805
79632.7
102907
102910
102909
102904
102896
102883
102867
102848
102825
102797
102765
102728
102688
102643
102593
102536
102474
102405
102329
102247
102161
102073
101983
101893
101800
101705
101607
101508
101407
101306
101204
101099
100985
100861
100734
100607
100482
100359
100236
100113
99987.8
99861.4
99735.3
99608.7
99482.5
99357.4
99232.5
99108.5
98984.8
98862.2
98740.5
98618.1
98497.3
98375.7
98254.4
98133.5
98013.5
97894.6
97776.3
97659.5
97543.6
97428.3
97314.1
97199.8
97085.4
96970.3
96854.4
96736.4
96615.8
96491.7
96362.8
96228.3
96086.5
95940
95783.4
95618.1
95443.1
95256.5
95065.4
94862.1
94651.1
94433.8
94210
93978.7
93740.6
93498.8
93255.9
93012.8
92772.3
92534.7
92303.4
92080.3
91867.2
91662.9
91474.1
91295.5
91131.5
90984.2
90851.1
90734.9
90635
90552
90485.8
90435.1
90400.4
90382.4
90377.1
90387.9
90412.3
90447.6
90496.3
90552.2
90616.9
90687.2
90767.9
90851.3
90938.7
91031.9
91123
91218.7
91320.7
91417.5
91513.3
91604.9
91718.8
91823.1
91920.8
92015.6
92103.4
92183.9
92259.9
92316.8
92357.1
92388
92401.9
92395.3
92371
92324.9
92259.5
92172.9
92063.8
91937
91791.7
91633.5
91447.4
91241.2
91012
90750.4
90465.8
90171.5
89876.8
89571.1
89240.3
88902.3
88547
88188.5
87831.5
87479.2
87145.8
86823.3
86520.3
86224.7
85938.7
85657.8
85361.2
85066.7
84746.7
84415.3
84073.6
83690.1
83263.7
82815.1
82362.2
81907.1
81454.7
81078.7
80687.2
80438.6
80069.6
80109.4
101956
101962
101964
101963
101959
101952
101942
101930
101913
101894
101871
101845
101815
101780
101742
101699
101651
101599
101542
101481
101417
101351
101286
101219
101150
101079
101005
100931
100856
100780
100701
100615
100523
100429
100335
100242
100150
100060
99970.1
99880.3
99788.8
99697.1
99606.2
99514.9
99424.2
99334
99244.2
99155.1
99066.1
98977.4
98889.2
98800.8
98712.4
98623.3
98534.4
98445.3
98355.7
98267.4
98179
98090.8
98003.3
97915.6
97828
97739.7
97650
97557.7
97466.9
97372.2
97273.5
97170.7
97063.1
96949.9
96830.1
96702.9
96567.5
96423.8
96271.3
96108.4
95935.8
95752.8
95560.5
95359.9
95153.8
94940.9
94721.5
94497.2
94271.4
94044.1
93817.1
93592.9
93371.6
93155.9
92948.5
92748.5
92560.2
92383.8
92216.4
92065.6
91926
91798.8
91688.3
91590.8
91507.9
91440.1
91385.2
91345.5
91318.1
91302.3
91300.2
91306.3
91323.3
91348.4
91380.8
91417.8
91462.5
91514.8
91567.6
91624
91684.2
91735.6
91793.3
91872
91940.5
92007
92077.1
92157.4
92228.9
92297
92356.9
92408.9
92454.2
92484.6
92501
92504.9
92492.1
92461.9
92415
92347.3
92258.1
92150.6
92025.2
91882.4
91718.1
91541.8
91339.1
91114.3
90871.5
90596.1
90304.3
90003.3
89699.9
89385.9
89044.6
88699.7
88338.8
87979.2
87622.7
87272.3
86945.6
86629.9
86337.3
86053.6
85787.3
85526.5
85257.9
84995
84711.5
84422.6
84121.9
83790.7
83418.2
83022.2
82618.9
82210.7
81769.2
81467.6
81128.3
80904.8
80854.6
80643.9
100985
100994
100999
101001
101003
101003
101000
100995
100986
100975
100962
100945
100925
100904
100880
100853
100823
100789
100751
100710
100667
100625
100583
100542
100498
100450
100401
100351
100299
100245
100188
100127
100065
100003
99943
99884.4
99827.6
99771.9
99716.5
99660.8
99604.2
99548
99492.3
99436.8
99382
99327.7
99273.6
99219.8
99166
99112.3
99058.4
99004.1
98949.7
98894.2
98838.2
98782
98724.8
98667.4
98609.7
98551.5
98492.8
98433.4
98373.2
98311.6
98248.4
98183.5
98112.3
98041.1
97965.2
97884
97797.4
97705.1
97606.8
97501.6
97387.2
97264.4
97133
96992.1
96840.4
96678.3
96507
96326
96138.2
95943.7
95742.9
95537.4
95328.8
95118.7
94906.3
94695.7
94485.6
94279.6
94077.4
93883.1
93694.6
93519.7
93352.3
93194.7
93051.9
92915.4
92793.7
92684
92582.7
92496.7
92421.7
92357.7
92307.3
92264.8
92233.5
92212.5
92197.3
92190
92191.4
92196.2
92204.8
92223.1
92245
92264.3
92290.1
92310.8
92332.1
92361.2
92406.8
92446.7
92487.3
92528.8
92569.3
92609.5
92639.3
92661.7
92676.7
92678.4
92667.3
92642.7
92603.3
92547.5
92475.1
92382.8
92269.6
92141.2
91996.6
91834.1
91651.4
91456.7
91235.1
90992.2
90735.1
90443.1
90147
89838.9
89524.2
89198.2
88844
88492.1
88127.4
87768.8
87413.6
87066.7
86744.6
86436
86154.5
85885
85640.4
85401.5
85164.6
84933.6
84689.5
84445.3
84188.6
83907.2
83587.9
83247.1
82895.5
82534.3
82119.7
81869.8
81622
81485.3
81522.2
81209.7
100008
100020
100027
100035
100042
100049
100053
100056
100058
100059
100056
100053
100047
100038
100027
100013
99998.1
99980.6
99961.3
99940.4
99919
99898.7
99879.1
99859.6
99839.4
99817.2
99792.4
99765.8
99738.8
99711.4
99683.3
99654.2
99625.7
99597.9
99571.2
99546.4
99523.4
99501.6
99480.5
99459.2
99437.7
99417
99396.8
99377.2
99358.3
99339.8
99321.6
99303.7
99285.5
99267.2
99248.7
99229
99208.8
99187.8
99165.4
99142.3
99118
99092.4
99065.8
99037.8
99008.5
98977.6
98944.8
98909.7
98872
98831.1
98784.5
98733.2
98680.4
98621.7
98556.6
98485.6
98408.1
98324.3
98232.1
98130.5
98020.5
97901.3
97771.9
97631.5
97480.7
97320.2
97152.3
96977.7
96796.8
96611.3
96420.9
96227.9
96031.2
95833.6
95636
95439.3
95244.8
95054.7
94870.4
94694.5
94527.7
94365.3
94217.4
94074.2
93941
93821
93704.1
93599.6
93506.8
93418.5
93343
93274.9
93213.1
93163.7
93115.8
93074.7
93045.4
93019.6
92993.2
92975
92959.2
92940.8
92929.5
92927.2
92919.6
92916.3
92921.8
92928.9
92938
92943.9
92950.8
92957.7
92954.6
92944.9
92928.3
92899.6
92858.9
92805.4
92737.8
92653.4
92554.5
92435
92297.9
92147.2
91980.4
91795.7
91595.3
91381.1
91140.9
90884
90607
90299
89998.2
89679.6
89351.7
89007.6
88643.5
88287.8
87919.6
87563
87206.8
86863.7
86547.2
86246.2
85976.6
85723.7
85502.3
85287.5
85084.5
84885
84684
84484
84275
84042.5
83774.8
83491.8
83194.5
82884.5
82549.5
82317.1
82131.5
82055.3
81811.9
81846.2
99039.4
99051.6
99062.4
99074.4
99087.6
99101.2
99114.1
99126.4
99138.2
99148.9
99158.3
99166.9
99174.2
99180
99184.3
99187.5
99189.4
99190.2
99189.8
99188.3
99187.1
99186.9
99187.5
99188.3
99189.8
99192.4
99194.4
99194.7
99194.6
99196.2
99200
99205.1
99210.8
99217.3
99224.9
99234.1
99244.5
99255.7
99267.9
99280.5
99293.6
99307.8
99323
99338.9
99355.5
99372.7
99390.2
99408
99425.5
99442.4
99459.2
99474.8
99489.1
99502.4
99513.9
99523.8
99532.2
99538.5
99542.8
99545
99544.8
99542
99536.5
99527.1
99513.8
99496.8
99474
99443.4
99412.4
99375.1
99332.2
99283.2
99227.3
99164.1
99093.3
99013.1
98923.6
98824.6
98716.4
98598.8
98470.4
98331.7
98184.8
98031.3
97871.3
97706.1
97535
97357.9
97177.4
96992.9
96807.7
96619.7
96434.8
96250.5
96073
95898.5
95731.6
95567.1
95412.6
95264.4
95121.2
94990.4
94860.8
94739.5
94629.6
94519.4
94419.4
94328
94237.2
94155.4
94079.6
94005.8
93943.3
93886.8
93825.7
93772.3
93720.3
93672
93626.7
93587.8
93550.6
93515.4
93483.6
93456.7
93429.9
93400.6
93373
93344.1
93307
93262.2
93212.9
93152.7
93079.4
92995.5
92897.5
92783.5
92656.7
92509
92346.9
92171
91980.4
91774.5
91554.9
91320.4
91064.9
90791.4
90489.8
90174.9
89863.9
89526.9
89184.8
88823.6
88454.8
88094
87721.7
87365.7
87006.8
86669.4
86358.7
86067.1
85811.1
85576.4
85377.6
85189.3
85020.5
84854.4
84698.5
84539.6
84384.8
84201.1
83982.8
83765.5
83523.1
83281.4
83016.9
82815.5
82668.1
82620.9
82473.5
82586.9
98088
98103.4
98115.9
98131.4
98149
98168.7
98190
98212.3
98235.1
98257.8
98280.6
98303.1
98325.3
98347.8
98370.4
98392.2
98412.9
98432.4
98450.8
98468.5
98486.7
98506.5
98528.1
98550.5
98574
98600.4
98630.2
98660.6
98690
98717.4
98749.4
98785
98822.8
98862.3
98903.8
98947.2
98991.9
99037
99082.5
99128.6
99175.8
99224.3
99274.1
99324.7
99376.2
99428.5
99481.2
99533.8
99586.6
99638.7
99690
99740.4
99789
99836.1
99881
99923.6
99963.9
100001
100036
100068
100095
100120
100140
100156
100167
100173
100174
100170
100157
100140
100118
100089
100054
100011
99960.8
99902
99834.3
99756.1
99668.1
99570.8
99463.7
99346.7
99222
99090.2
98951.8
98806.6
98654.1
98493.7
98328.8
98157.8
97984.6
97807.1
97631.3
97456
97284.5
97115
96949.8
96786.8
96628.2
96476.6
96326.5
96184.2
96043.5
95908.1
95780.5
95650.9
95529
95414
95297.8
95188
95084.5
94980.4
94882.6
94787.9
94697.4
94608.5
94524.2
94446.8
94368.6
94293.4
94225.2
94156.2
94089.1
94026.3
93962
93898.5
93835.2
93768.9
93696.3
93616.4
93533.1
93439.3
93331.8
93215.2
93085.9
92941.8
92784
92608.4
92420
92216.2
92001.2
91775.4
91534.1
91279.2
91005.5
90710.6
90396.4
90077.2
89739.3
89387.1
89032.8
88657.5
88286.5
87916
87538.9
87180.4
86819.3
86489.6
86184.9
85906.4
85664.9
85449.1
85271.8
85112.6
84977.1
84846.6
84734
84614.7
84522.4
84381.9
84225.8
84072.9
83891.1
83718
83511.4
83372.6
83298.5
83309.9
83281.4
83439.6
97165.1
97182.4
97199
97219.2
97241.1
97265.7
97294.7
97327.2
97362.1
97398.5
97436.4
97474.8
97513.7
97552.7
97592.2
97632.1
97672.4
97712.6
97752.4
97792.1
97832
97872.9
97915.9
97961.1
98008.1
98057.6
98111.7
98170.9
98231.5
98290.2
98349.3
98411.6
98478.1
98547.5
98619.4
98693.8
98770.4
98848.4
98926.9
99006.1
99086.8
99168.8
99251.5
99335.7
99421
99507.2
99593.8
99680.5
99767.4
99853.5
99938.5
100022
100104
100184
100261
100335
100406
100474
100537
100597
100651
100701
100746
100786
100820
100849
100872
100888
100900
100903
100901
100892
100879
100857
100827
100788
100739
100681
100612
100536
100450
100355
100252
100141
100023
99896.6
99761.7
99618
99468.6
99312
99150.9
98986.8
98821.9
98657.5
98492.7
98328.5
98166.8
98008.4
97850.6
97697.9
97544.3
97392.9
97243.3
97095.9
96951.4
96805.9
96665.1
96526.7
96387.4
96252.8
96122.5
95990.4
95862.5
95737.4
95612.7
95490.9
95375.5
95263.8
95151.9
95043.3
94941.6
94838.4
94736.3
94636.8
94537.3
94438.6
94337.6
94233.6
94124.8
94009.7
93890.6
93760.7
93618.4
93467.6
93305.7
93130.6
92940.3
92737.2
92521.9
92289.4
92049.3
91800.4
91538.4
91260.4
90966.2
90656.5
90336.1
89994
89632.6
89274.3
88904.2
88518.5
88143.8
87758.3
87376.1
87013.8
86653.4
86332.7
86034.8
85771.7
85543.5
85348
85191.9
85062.1
84959.1
84863.1
84799.1
84721.8
84673.7
84593
84503.1
84416.9
84296.4
84179.3
84031.4
83971.9
83977.6
84028.4
84088.2
84341.1
96426.2
96443.6
96459.9
96487.4
96514.6
96545.9
96582.2
96623.9
96668.9
96716.4
96765.8
96816.9
96869.5
96923.2
96977.9
97033.1
97088.9
97145.2
97202.3
97260.5
97320
97381
97443.6
97508.5
97576.2
97646.7
97719.5
97797.5
97880.3
97965.4
98050.4
98136.7
98226.6
98320
98416.1
98514.6
98615.6
98718.8
98823.4
98929.3
99037.3
99147
99256.9
99368.1
99480.9