/*--------------------------------*- C++ -*----------------------------------*\
| =========                 |                                                 |
| \\      /  F ield         | OpenFOAM: The Open Source CFD Toolbox           |
|  \\    /   O peration     | Version:  dev                                   |
|   \\  /    A nd           | Web:      http://www.openfoam.org               |
|    \\/     M anipulation  |                                                 |
\*---------------------------------------------------------------------------*/
FoamFile
{
    version     2.0;
    format      ascii;
    class       volScalarField;
    object      p_0;
    location    "9.12";
}
// * * * * * * * * * * * * * * * * * * * * * * * * * * * * * * * * * * * * * //

dimensions      [1 -1 -2 0 0 0 0];

internalField   nonuniform List<scalar> 
12225
(
87002.7
87040.2
87144.2
87303.2
87500.6
87732.3
87987.8
88267.5
88558
88874.1
89180.1
89547.1
89860.5
90278.6
90610
91086.2
91543.6
91957.2
87011
87051.6
87155.9
87314.9
87512.1
87743.6
87999
88278.1
88568.9
88882.6
89193.2
89549.2
89872.9
90274.7
90617.4
91084.9
91533.5
91992.4
87034.9
87078.8
87183.6
87342.3
87539
87770.1
88025
88303.2
88593.7
88905.2
89218
89565.2
89895.9
90281.2
90635.4
91075.8
91514.5
91971.1
87080
87126.4
87231.7
87389.8
87585.6
87816
88070.1
88347.2
88636.9
88945.8
89258.9
89598.1
89931.2
90301
90658.7
91072.4
91497.3
91924.3
87150.9
87200.5
87306.1
87463.1
87657.9
87887.1
88140
88415.1
88703.6
89008.8
89321.2
89651.6
89985.4
90338.1
90699.4
91088.9
91487.5
91884.7
87258.9
87308.6
87413.8
87569.3
87762.8
87990.2
88241.1
88513.7
88799.9
89101
89410.8
89734
90065.8
90408.8
90767.2
91132
91507
91865.8
87408.7
87459.3
87563.6
87717.4
87909.2
88133.9
88382.4
88651.4
88934.4
89230.6
89536.5
89852.3
90178.3
90510.6
90857.5
91201.7
91547.2
91874.8
87578.7
87632
87735.7
87887.6
88077.5
88299.3
88545
88810.1
89089.7
89380.7
89681.9
89990.1
90308.5
90629.7
90962.1
91287.8
91612
91922.5
87763.9
87819.6
87922.7
88072.7
88260.4
88479.2
88721.8
88983
89258.5
89544.5
89840
90140.9
90450.4
90761.5
91079.1
91389.9
91697.2
91991.9
88017.1
88071
88172.8
88320.3
88505
88719.8
88958.3
89214.2
89484.3
89763.7
90051.5
90343.6
90642.1
90941.4
91242.7
91538.4
91828
92106.3
88357.8
88408.5
88508.2
88652
88832.6
89042.1
89275
89524.1
89786.8
90057.6
90335.6
90616.9
90902.5
91187.6
91472
91751
92022.6
92283.8
88813.9
88860.7
88957.2
89096.1
89271.2
89473.6
89698.7
89938.9
90191.7
90451.4
90717.3
90985.6
91255.9
91524.6
91790.8
92051.6
92304.7
92548.6
89417.3
89465.4
89557.8
89690.2
89857.3
90050.4
90264.8
90493.4
90733
90979.1
91229.7
91481.9
91734.3
91984.3
92230.8
92472
92705.8
92931.5
90229.5
90273
90359
90482.9
90639.1
90819.8
91019.9
91233.1
91455.8
91684.3
91915.7
92148
92379.5
92608.2
92832.7
93052.3
93265.3
93471
91306.7
91347.3
91424.5
91536.6
91678
91841.8
92022.8
92215.5
92416.4
92621.9
92829.5
93037.4
93244
93447.7
93647.5
93842.7
94032
94215.3
92735.3
92767.3
92831.7
92927.2
93048.3
93189
93344.6
93510.3
93682.7
93858.8
94036.5
94214.3
94390.8
94564.6
94735.2
94901.7
95063.4
95220.6
94607.1
94620.3
94666.2
94739
94832.9
94943
95065.2
95195.5
95331.2
95469.8
95609.9
95750.2
95889.4
96026.9
96161.9
96293.9
96422.5
96548.4
96789.8
96804.6
96834.2
96881.2
96943
97016.8
97099.4
97188
97280.6
97375.8
97472.3
97569.2
97665.9
97761.7
97856.3
97949.4
98040.8
98130.9
98971.3
98972.9
98984.6
99006.8
99037.9
99076.3
99120.1
99167.9
99218.7
99271.2
99324.9
99379.3
99434.2
99489.3
99544.3
99599.3
99654.2
99709.2
100904
100892
100888
100890
100895
100902
100913
100925
100939
100955
100971
100988
101006
101025
101045
101067
101090
101114
102532
102519
102505
102490
102473
102456
102438
102421
102404
102388
102373
102359
102347
102336
102327
102320
102316
102314
103862
103851
103829
103801
103767
103729
103690
103648
103607
103566
103526
103487
103450
103415
103382
103353
103326
103302
104915
104905
104878
104839
104791
104738
104681
104622
104562
104501
104442
104384
104327
104274
104223
104175
104130
104089
105727
105715
105681
105634
105577
105513
105443
105370
105296
105221
105147
105074
105003
104935
104870
104808
104750
104696
106329
106314
106277
106224
106160
106087
106009
105926
105841
105756
105671
105587
105505
105426
105351
105279
105211
105147
106759
106743
106703
106646
106577
106498
106413
106324
106232
106139
106046
105954
105865
105778
105695
105616
105541
105470
107055
107035
106993
106933
106860
106778
106688
106594
106498
106399
106301
106205
106110
106018
105930
105846
105766
105690
107243
107221
107176
107114
107040
106955
106863
106766
106667
106565
106464
106364
106266
106171
106080
105993
105909
105831
107348
107325
107278
107216
107141
107055
106962
106863
106762
106659
106556
106454
106354
106257
106164
106075
105990
105910
107400
107370
107321
107259
107183
107097
107003
106904
106802
106698
106594
106491
106391
106293
106199
106109
106024
105943
112715
112703
112676
112633
112575
112503
112417
112317
112204
112077
111937
111783
111616
111435
111240
111031
110808
110571
110320
110056
109779
109488
109184
108868
108540
108199
107847
107484
107109
106724
106329
105924
105511
105091
104665
104235
103799
103357
102910
102459
102005
101552
101103
100659
100219
99784.1
99354.6
98932
98517.4
98109.2
97704.4
97305.7
96915.5
96537.2
96168.4
95807.6
95459.7
95124.9
94794.2
94465.2
94141.2
93822.8
93509.8
93201.8
92898.2
92597.9
92299.9
92003.2
91706.7
91409.1
91109.4
90806.7
90500
90188.7
89872.3
89550.3
89222.8
88889.9
88552.2
88210.2
87865.1
87518.1
87170.5
86824.2
86480.7
86141.7
85809.1
85485
85171.2
84869.7
84582.7
84312.1
84060.2
83829.4
83621
83436.9
83278.6
83147.8
83046
82974.9
82935.8
82930.1
82958.7
83022.2
83120.8
83254.6
83423.2
83625.4
83859.8
84124.3
84417.6
84738.1
85084.1
85454.1
85846.6
86258.8
86687.3
87128.8
87578.9
88031.3
88480.9
88927
89372.5
89813.5
90241.4
90651.1
91039
91399.5
91732.1
92039.8
92313.1
92555.1
92764.8
92940
93079.2
93183
93254.1
93292
93298.3
93279
93237.6
93178.7
93102
93007.8
92900.6
92781.9
92654.4
92517.1
92368
92204.4
92027.1
91847.5
91665.5
91478.5
91281.7
91070
90838.3
90582.3
90294.7
89975.8
89622.3
89236.3
88812.6
88338.7
87807.1
87197.7
86525.5
85792
85021.2
84095.8
83125.2
82226.7
81322.9
80454.1
79617.8
78842.4
78149.4
77552.4
77094.5
76798.7
112530
112518
112491
112448
112390
112317
112232
112135
112025
111903
111766
111617
111453
111276
111085
110880
110661
110428
110181
109921
109648
109361
109062
108751
108428
108093
107746
107388
107018
106639
106249
105849
105442
105026
104606
104184
103755
103315
102870
102423
101973
101524
101082
100646
100216
99789.4
99366.9
98947.7
98533.9
98126.6
97725
97333
96951.7
96584.3
96218.3
95857.2
95509.7
95174.3
94844.9
94520
94200.4
93886.3
93577.4
93273.3
92973.4
92676.7
92382.2
92088.7
91795.3
91500.7
91203.9
90903.9
90599.8
90290.9
89976.6
89656.9
89331.5
89000.7
88664.8
88324.6
87981.2
87635.8
87289.6
86944.6
86602.4
86264.6
85933.2
85610
85297.1
84996.5
84710.4
84440.2
84188.8
83958.1
83749.9
83565.5
83406.6
83275.3
83172.5
83100.4
83059.8
83052.4
83078.9
83139.7
83235.4
83366.1
83531.2
83730.4
83961.7
84223
84512.9
84830
85172.3
85538.4
85926.9
86335.1
86759.8
87198.3
87646
88095.3
88539.5
88978.8
89416.4
89853.3
90277.6
90682.8
91066.9
91422.6
91749.9
92055.7
92323.3
92561.9
92768.7
92940.9
93077.3
93178.3
93247.5
93283.3
93286.5
93264.8
93220.5
93160.6
93083.4
92988.3
92879.7
92759.1
92629.8
92490.3
92338.7
92171
91989.6
91807.6
91625.3
91437.5
91239.7
91027.3
90794.2
90537.7
90250
89932.2
89580.4
89197.5
88779.1
88308.1
87780.1
87176
86514.7
85786.7
85017
84091.7
83130.3
82234.2
81343.2
80477.6
79642.9
78871.1
78180.3
77588.8
77130.5
76834.5
112173
112159
112132
112089
112033
111965
111886
111796
111693
111577
111447
111304
111147
110977
110792
110594
110382
110156
109916
109663
109397
109118
108827
108524
108210
107883
107546
107198
106839
106469
106090
105701
105303
104897
104485
104067
103645
103220
102789
102353
101913
101474
101043
100621
100204
99791
99383.1
98979.1
98577.6
98179.1
97793.1
97409.6
97029.5
96663.3
96304.6
95952.8
95610.6
95278
94953.1
94634.7
94322.4
94015.8
93714.4
93417.6
93124.7
92834.6
92546.4
92259.1
91971.5
91682.6
91391.3
91096.3
90797.2
90493.1
90183.4
89868.1
89547
89220.3
88888.4
88551.9
88211.8
87869.6
87526.4
87184
86844.3
86509
86180
85859.3
85548.7
85250
84965.9
84697.7
84447.7
84217.8
84010.4
83826.6
83667.5
83535.5
83431.5
83357.9
83314.9
83304.1
83326.5
83382.1
83471.7
83595.5
83753.7
83945.6
84169.9
84424.4
84707.4
85017.9
85353.6
85712.2
86092.5
86492.5
86909.2
87341.4
87783.3
88223.9
88656.3
89082.4
89506.4
89930.6
90346.4
90743.7
91122.5
91468.4
91788.1
92081.3
92342.8
92576.1
92777.8
92944.7
93073.9
93170.4
93235.8
93267.9
93267
93239
93187.2
93121.8
93044.2
92947.5
92837.3
92711.7
92578.8
92432.2
92275.5
92101.1
91915.4
91730.3
91548.2
91358.9
91159
90944.2
90708.5
90450
90161.8
89845.9
89497.3
89116.4
88704
88240.9
87725.1
87132.9
86485.9
85765.3
84997.6
84095.3
83120.3
82252.5
81382
80529
79698.3
78933.3
78247.9
77662.7
77208.7
76914.8
111661
111648
111622
111583
111533
111472
111401
111317
111221
111112
110991
110856
110708
110546
110370
110181
109977
109761
109531
109287
109031
108762
108482
108190
107887
107574
107250
106915
106570
106215
105851
105477
105095
104705
104308
103904
103494
103083
102668
102250
101832
101410
100994
100583
100176
99783.5
99398.3
99012.3
98625.9
98241.3
97864.4
97495
97130.2
96773.8
96426
96086.4
95755.4
95432.6
95117.4
94809
94506.9
94210.4
93919
93631.9
93348.3
93067.2
92787.8
92508.8
92229.5
91948.3
91664.4
91376.9
91084.7
90787.5
90484.4
90175.3
89860.1
89538.9
89212.4
88881.1
88545.8
88208.1
87869.1
87530.5
87194.2
86862
86536.2
86218.6
85910.9
85615.1
85333.6
85067.8
84819.8
84591.9
84385.5
84202.7
84044.2
83912.5
83808
83732.9
83688.3
83675
83693.8
83744.6
83827.3
83941.8
84089.4
84270.6
84483.6
84726.5
84997.9
85297.5
85622.3
85970.4
86341.1
86729.9
87132.3
87549.2
87976.8
88404.3
88822.8
89233.1
89640.2
90047.5
90447.8
90832.3
91196.9
91534.6
91844.1
92125.7
92377.2
92601
92793.5
92947.1
93065.2
93158.5
93218.4
93245.8
93237.1
93199.6
93141.2
93069.6
92986.8
92886.8
92772.8
92640.7
92502.5
92345.6
92179.5
91998.1
91810.5
91621.2
91439.1
91246.5
91043.8
90825.3
90586.3
90326.3
90035.6
89723.2
89377.4
88999.3
88593.7
88141
87640
87067.8
86440.4
85731.5
84967.7
84083.5
83143.7
82283
81437.7
80597.2
79783.8
79032.2
78357.4
77780.8
77334.3
77043.4
111013
111001
110978
110943
110899
110843
110777
110700
110611
110511
110398
110273
110135
109984
109818
109640
109448
109242
109024
108793
108550
108295
108029
107752
107463
107166
106858
106542
106215
105880
105536
105184
104824
104455
104079
103696
103306
102914
102520
102126
101730
101330
100934
100544
100158
99780.2
99407.8
99038.7
98673.7
98311
97952.9
97600.3
97253.9
96914.7
96583.2
96259.5
95943.7
95635.3
95334
95039.2
94750.3
94466.7
94187.9
93913
93641.3
93371.7
93103.5
92835.4
92566.4
92295.4
92021.2
91743.1
91460.1
91171.4
90876.8
90575.6
90268
89954.1
89634.5
89309.5
88980.2
88647.9
88314
87980
87648
87319.8
86997.2
86683
86378.8
86086.2
85807.7
85544.8
85299.2
85073.3
84867.8
84685.7
84527.2
84394.6
84289
84211.5
84164.1
84147
84161.4
84207.5
84285.7
84394.5
84534.3
84704
84901.7
85128.6
85384.2
85668.8
85978
86310.2
86664.7
87036.4
87421.1
87819.8
88226.7
88632
89030.3
89421.7
89810.8
90205.6
90591.7
90957.6
91301.2
91623.2
91919.9
92187
92424
92634.2
92815.5
92959.7
93066.1
93143
93193.8
93212.6
93196.8
93154.8
93085.6
93005.6
92916.3
92808.5
92686.9
92547.4
92400
92233.7
92056.2
91865.6
91674.7
91484.5
91297.6
91100.5
90893.5
90670
90426.4
90165.3
89873.5
89562.2
89223.6
88850.8
88453.3
88013.1
87527
86979.4
86373.5
85687.2
84935.9
84082.2
83176.2
82334.9
81513.7
80694.4
79899.5
79165.8
78507.7
77944.7
77511.3
77226.9
110240
110230
110209
110178
110138
110089
110030
109960
109880
109789
109687
109571
109443
109303
109149
108983
108804
108613
108409
108194
107968
107730
107481
107221
106952
106673
106386
106090
105787
105475
105156
104830
104496
104153
103802
103443
103078
102710
102342
101975
101606
101236
100868
100499
100136
99777.2
99424.9
99077
98733.5
98394.1
98058.7
97728.5
97404.2
97086.5
96775.6
96471.5
96174.5
95884
95599.9
95321.8
95049.2
94781.4
94518.1
94258.3
94001.4
93746.4
93492
93237.8
92981.8
92723.8
92461.9
92195.3
91923.4
91645.3
91360.6
91069.2
90770.8
90465.6
90154.1
89836.7
89514.6
89188.8
88860.9
88532.4
88205.2
87881.5
87563.1
87252.8
86952.2
86663
86387.7
86128.2
85885.1
85661
85457.1
85275.4
85116.9
84982.5
84874.9
84794
84741.9
84718.7
84726.1
84764.6
84835.3
84937.1
85068.8
85230.1
85419
85633
85868.3
86132.9
86424.2
86735.6
87066.7
87414.5
87777.7
88153.5
88535.5
88915.5
89290
89661.9
90034
90401.9
90759.7
91106.7
91438.7
91743
92020.3
92268.8
92488.8
92682.9
92848.5
92976.2
93067.7
93127.3
93167.6
93177.9
93152.1
93101
93021.7
92931.8
92834.4
92715.6
92583.1
92432.9
92274.2
92098.3
91908.9
91709.3
91513.1
91320.7
91126.9
90923.9
90710.9
90481.3
90233.7
89966.6
89678
89368.6
89036.2
88673.8
88286.4
87861.7
87393.3
86869.5
86289.1
85632.2
84901.3
84089.2
83228.5
82409.3
81612.9
80815.9
80044.1
79334.3
78699.4
78155.4
77741.3
77467.5
109358
109349
109332
109305
109270
109227
109175
109113
109041
108959
108865
108759
108642
108514
108373
108222
108059
107884
107699
107502
107294
107076
106847
106608
106361
106105
105842
105571
105293
105008
104717
104421
104118
103805
103482
103151
102814
102474
102137
101801
101464
101127
100789
100443
100108
99776.8
99449.9
99127.3
98809.1
98494.8
98185.1
97880.8
97581.9
97288.7
97001.5
96720.3
96445.1
96175.9
95912.2
95654
95400.9
95152.2
94907.5
94666.2
94427
94189.8
93952.4
93714.8
93474.9
93232
92985.2
92732.9
92474.7
92209.8
91937.5
91657.6
91370.1
91075.1
90773.1
90464.6
90150.8
89832.7
89511.4
89189.3
88867.5
88548.7
88234.5
87928.1
87631.1
87345.9
87073.6
86816.9
86576.6
86354.3
86151
85969.4
85810.3
85674.2
85563.3
85478.2
85420.6
85390.6
85389.8
85418.8
85479.3
85570
85687.9
85837.9
86016.3
86218.2
86439.7
86689.6
86960.5
87247.1
87551.9
87873.8
88209.1
88555.3
88907.9
89261.2
89612.3
89960
90303
90646.8
90983.3
91302.4
91601.5
91882.4
92138.5
92367.5
92570
92745.3
92890.3
92998.6
93070.5
93114.9
93143.5
93144.9
93105.7
93043.6
92951.3
92847.4
92734.7
92608.5
92462.7
92299.4
92128.5
91940.8
91739.9
91532
91328.1
91131.5
90929.8
90719.4
90497.7
90260.8
90007.9
89736.1
89448
89144.7
88820.4
88471.8
88098
87690.8
87241.5
86742.3
86192.1
85568.3
84869.7
84104.7
83291.4
82506.6
81738.6
80962.1
80218.4
79537.9
78930.4
78411.2
78027.5
77767.8
108382
108376
108362
108340
108310
108273
108226
108172
108108
108034
107950
107856
107752
107637
107512
107377
107232
107076
106909
106732
106544
106345
106138
105923
105701
105472
105236
104993
104744
104489
104229
103965
103696
103417
103125
102824
102517
102211
101909
101606
101303
101000
100690
100383
100079
99777.5
99480.4
99186.8
98897.6
98612.5
98332
98056
97785
97519.2
97258.5
97002.9
96752.5
96507.4
96267.3
96032.2
95801.6
95575.2
95352
95132
94913.4
94696.2
94478.4
94259.4
94038.2
93813
93583.3
93347.8
93105.7
92856.5
92599.4
92334.2
92060.9
91779.2
91489.4
91191.9
90888.1
90579.3
90266.3
89951.5
89636.6
89323.5
89014.5
88712.4
88419.9
88138.4
87869.6
87615.5
87377.3
87156.7
86953.9
86770.7
86609.2
86470.2
86354.6
86263.9
86199.7
86160
86150.1
86168.6
86215.3
86292
86397
86529.7
86690.6
86877.8
87085.6
87317
87567.3
87834.3
88115.8
88411
88715.8
89030.8
89352.1
89675.1
89995.2
90312.2
90629.4
90942
91242.5
91529.5
91800.5
92053.9
92281
92484
92664.5
92816.6
92940.6
93028.8
93082.1
93113.2
93121
93105.1
93052.3
92978
92872.2
92754.8
92629.3
92489.7
92328.1
92149.3
91964.5
91764.6
91551.4
91335.7
91122.3
90917.8
90709.3
90489.2
90257.5
90010.7
89751.6
89477.2
89190.9
88893.6
88580.5
88247.4
87889.6
87501.9
87074.3
86603
86087.8
85496.9
84845.3
84130.8
83364.8
82623
81895.8
81132.2
80426.9
79780.6
79203.2
78715.8
78368.8
78126.9
107328
107324
107313
107296
107272
107240
107200
107153
107098
107034
106961
106879
106789
106690
106582
106464
106338
106200
106053
105896
105729
105553
105370
105181
104986
104786
104580
104368
104152
103930
103703
103474
103240
102994
102734
102465
102194
101926
101660
101394
101128
100857
100585
100314
100045
99777.7
99514.1
99254.3
98997.9
98745
98496.3
98251.6
98011.2
97775
97543.3
97316.3
97093.5
96875.2
96661.4
96451.9
96246.3
96044.3
95844.9
95648.1
95452.1
95256.6
95060.5
94862.4
94661.6
94456.5
94246.1
94029.3
93805.3
93573.6
93333.6
93085
92828.1
92563
92289.4
92007.1
91716.9
91420
91117.8
90812
90505.4
90199.5
89897.3
89601
89313.1
89036.4
88772.3
88521.4
88285.5
88066.7
87864.5
87680.3
87516
87372.5
87252.2
87153.8
87080.1
87031.4
87009.7
87014.4
87045.6
87105.3
87192.8
87306.5
87446.2
87612.8
87801.2
88010.7
88237.4
88481.7
88738.3
89006.9
89283.2
89565.5
89854.1
90144.2
90431.4
90716.9
90997.6
91272.9
91540.9
91794.1
92030
92250.4
92449.2
92623.9
92776.3
92900.8
93002.1
93070.1
93105.3
93117.8
93104.6
93066.5
92996
92906.4
92786.7
92654.8
92513.5
92359.3
92180
91985.9
91785.9
91572
91344.5
91118.3
90897.3
90682.9
90466
90236.2
89994.9
89737.8
89470.9
89192.9
88911.1
88620.6
88321.2
88004.6
87664.7
87299.9
86896.8
86457.2
85977.2
85424.7
84829.4
84168.2
83454.2
82758.7
82045
81330.9
80671.2
80051
79526
79084.5
78756.1
78532.4
106214
106212
106204
106191
106171
106145
106113
106073
106027
105973
105913
105845
105770
105687
105596
105497
105388
105271
105144
105008
104864
104712
104555
104394
104229
104061
103887
103709
103526
103339
103147
102954
102755
102541
102315
102083
101853
101624
101397
101169
100939
100706
100473
100240
100008
99779.6
99552.8
99328.7
99107.9
98890.3
98676.2
98464.9
98257.2
98053.4
97853.1
97656.4
97463.5
97274.5
97089
96907.1
96728.5
96553.1
96379.4
96207.5
96036.6
95865.1
95692.7
95517.9
95339.9
95157
94968.3
94772.7
94569.1
94356.7
94135.4
93904.6
93664.5
93416.7
93160.6
92896.3
92623.5
92342.8
92055
91761.7
91466.1
91170.1
90876.4
90587.9
90306.7
90034.8
89775.4
89528.6
89295.2
89077.4
88876.5
88691.1
88524.9
88378.2
88252.2
88146.1
88062.9
88003.3
87968.1
87957.9
87972.6
88013.7
88079.9
88171.9
88287
88427.5
88590.2
88773.6
88972.1
89187.6
89416.4
89654.3
89900.9
90151.3
90404.5
90659.1
90911.6
91161.5
91405.9
91643.9
91873.5
92089.9
92291.8
92477.7
92644.9
92790.2
92911.6
93004.9
93077
93124.7
93139.9
93131.5
93097.2
93037.6
92948.2
92839
92702.7
92550
92391.5
92220.5
92022.7
91812.7
91595.1
91364.3
91121
90881.9
90653.6
90429.1
90201.6
89963.2
89711.4
89445.5
89172.1
88890.5
88615.1
88332.4
88047.1
87747.3
87426.2
87088.3
86712.7
86308.9
85862.8
85356.9
84820.7
84217.8
83562.5
82915.5
82248.3
81576.1
80956.8
80381.7
79890.5
79503.4
79219.1
79002.5
105057
105058
105053
105041
105027
105008
104984
104952
104915
104874
104826
104772
104712
104645
104573
104492
104405
104308
104204
104090
103970
103845
103717
103586
103453
103316
103175
103030
102880
102727
102573
102417
102250
102069
101879
101688
101499
101312
101125
100938
100744
100551
100358
100166
99974.1
99784.2
99596
99410.7
99227.6
99046.8
98868.7
98693.4
98520.8
98350.7
98183.6
98019.6
97858.4
97700.3
97545.4
97393.6
97244
97097.2
96952
96807.5
96663.6
96518.6
96372
96222.5
96069.4
95911
95746.3
95574
95393.1
95203.2
95003.1
94792.7
94571.3
94340.2
94101.3
93854.5
93599.6
93337.9
93068.1
92791.3
92509.9
92227.9
91946.2
91667.7
91396
91130.8
90876.1
90633.7
90403.5
90186.1
89985.2
89797.1
89629.6
89478.3
89346.7
89233.9
89141.6
89070.6
89021.2
88995
88991.8
89012.8
89055.9
89124.3
89214.1
89326.1
89458.5
89610.1
89778
89958.8
90155.4
90358.2
90569.6
90786.6
91002
91217.6
91434.1
91647.5
91852.5
92051.1
92243.8
92423.4
92587.3
92735.2
92867.5
92981.2
93071.8
93135.2
93174.3
93195
93186.7
93150.7
93088.6
93008.2
92902.5
92773.2
92619.3
92447.3
92268.1
92076.2
91859.5
91633.1
91396.1
91144.4
90885.4
90632.9
90395.3
90160.8
89918.7
89671.1
89409.4
89136.9
88859.4
88577.3
88307.1
88032.7
87760.3
87476.8
87178.9
86870.7
86525.8
86161.5
85751
85296.5
84818.9
84277.9
83686.6
83092.2
82480.5
81858.7
81278.1
80756.8
80287.8
79963.1
79709.8
79546.2
103878
103883
103883
103880
103870
103856
103838
103817
103791
103758
103723
103683
103639
103589
103533
103470
103402
103327
103245
103157
103064
102969
102871
102771
102670
102565
102457
102345
102230
102114
101996
101871
101734
101587
101438
101289
101141
100995
100848
100701
100548
100396
100245
100093
99942.7
99793.7
99646
99499.9
99355.5
99213.5
99073.8
98935.3
98798.9
98664.6
98532.4
98402.4
98275.1
98150.3
98027.7
97907.8
97789.8
97673.1
97558
97443.2
97327.7
97210.6
97091.2
96967.9
96840.6
96708.3
96568.9
96422
96265.6
96099.9
95924.4
95738
95540.1
95329.6
95109.8
94880.9
94643.5
94399.7
94149.4
93891.9
93628.4
93362.3
93096.7
92831.8
92571.5
92316.2
92068.6
91831.1
91604.8
91387.4
91189.2
90995.3
90826.1
90670.4
90531
90409.2
90306.1
90223.1
90160.1
90117.3
90095.6
90096.1
90115.9
90158.4
90221.6
90303.2
90405.3
90522.8
90655.7
90799.5
90959.2
91125.3
91296.3
91474.5
91652.7
91826.6
92000.7
92175.1
92342.7
92499
92649.8
92790.8
92918.4
93029.3
93122.3
93198.3
93255.9
93288.4
93297.3
93285.9
93248.4
93185
93098.4
92991.4
92863.3
92711.5
92538.4
92352.7
92146.9
91931.4
91696
91450.4
91193.2
90920.2
90644.8
90378.8
90128.9
89881.2
89621.5
89363.6
89092.6
88815.3
88536.7
88255.8
87991.4
87724.9
87465.8
87199.7
86929.4
86650.9
86341.5
86018.6
85647.6
85244.8
84823.6
84347.4
83821.7
83283.5
82732.5
82173.2
81626.7
81168.8
80728.6
80451.5
80201.4
80137.4
102691
102698
102702
102702
102699
102693
102684
102672
102656
102635
102609
102582
102552
102518
102479
102437
102390
102339
102283
102223
102159
102092
102027
101963
101894
101820
101744
101666
101585
101502
101413
101316
101212
101105
100997
100890
100784
100679
100574
100467
100356
100246
100136
100026
99917
99808.9
99701.9
99596.7
99492
99388.3
99289.3
99188.9
99090.2
98992.6
98897.1
98803.2
98710.7
98620.9
98532.4
98445.4
98360.1
98275.2
98191.1
98108.1
98022.1
97934.1
97844.1
97748.1
97646.7
97541.7
97427.7
97308.2
97176.8
97035.9
96885.9
96724.9
96553
96367.4
96173.3
95965.5
95747.5
95522.5
95291.6
95053.6
94809.6
94562.4
94314.5
94066.3
93820.6
93577.7
93340
93109.2
92889.4
92670.3
92474.7
92283.8
92106.4
91949.5
91803.3
91669.2
91554.8
91457.4
91377.7
91317.8
91275.8
91254.6
91251.8
91267.4
91303
91354.1
91422.4
91505.8
91602.9
91708.5
91827.5
91955.8
92085.6
92219.5
92357.7
92491.7
92619.4
92748.8
92876
92991.2
93099.7
93198
93283.9
93356.9
93411.4
93448.6
93468.8
93466.4
93442.5
93398.4
93329.8
93238.3
93125.8
92992.6
92836.4
92659.5
92465.6
92258.1
92029.8
91792.3
91535.8
91265.9
90989.2
90695
90405.8
90125.9
89859.5
89595.1
89316.7
89045.7
88764.9
88486.2
88207.8
87930.4
87672.3
87414.7
87169.9
86922.7
86682.1
86434.1
86164.3
85883.1
85556.3
85207.5
84839.3
84428.2
83968.5
83493.7
83004.9
82513.7
81986.3
81612.6
81240
81010.4
80933.1
80778.2
101511
101521
101528
101532
101536
101538
101538
101535
101529
101520
101507
101487
101470
101457
101439
101418
101394
101365
101334
101300
101265
101230
101196
101163
101124
101081
101036
100988
100938
100884
100825
100762
100696
100630
100564
100499
100435
100371
100307
100240
100171
100103
100034
99966
99898.8
99832.2
99766.2
99701.3
99637.1
99574.2
99512.5
99451.3
99391.5
99332.2
99274.1
99217.7
99162
99107.6
99054.5
99002.2
98950.5
98899
98847.5
98795
98740.3
98682.7
98621.5
98555.5
98483.1
98403.7
98316.7
98222.3
98118.9
98006.3
97881.8
97746.9
97601.2
97443.4
97273.2
97090.7
96897.5
96694.5
96484.6
96267.8
96045
95818.7
95590.4
95361.2
95131.6
94904.2
94677.9
94456.7
94240.5
94032
93832.1
93645
93465.7
93301
93151.7
93007.8
92881.3
92771
92672.8
92594.1
92531.9
92485.7
92459
92446.6
92451.3
92472.4
92506.2
92553.3
92614.5
92682.3
92758.6
92845.6
92935.3
93024.5
93117.8
93210.3
93293.1
93376.1
93457.8
93528.7
93593.8
93646.5
93687.7
93719.9
93733
93729.9
93711.6
93672
93613
93534.1
93433.8
93312.4
93171.2
93009.1
92824.1
92622.2
92404.5
92170.8
91920.8
91661.2
91380.9
91087.3
90789.8
90471.8
90171.4
89877.4
89591
89305.4
89006.9
88723.4
88434.6
88155.9
87878.3
87607.3
87353.6
87106.1
86877.8
86652.4
86442.6
86226.1
85998.4
85758.4
85480.1
85188
84871.8
84527.4
84129.4
83721.8
83298.7
82860.1
82400.9
82082.9
81800
81642.2
81643.8
81461.8
100354
100367
100377
100388
100398
100408
100417
100424
100431
100438
100444
100449
100448
100440
100434
100429
100423
100415
100407
100397
100388
100379
100371
100364
100356
100345
100331
100313
100294
100274
100252
100228
100203
100177
100151
100126
100102
100078
100053
100026
99998.2
99970.4
99942.9
99915.6
99889.2
99863.4
99838.1
99813.9
99789.9
99766.8
99744.7
99722.6
99701.4
99681
99660.9
99641.9
99623.5
99605.5
99588.2
99571
99553.8
99535.8
99516.9
99495.9
99472.3
99444.8
99412.2
99374.5
99331.4
99280.8
99221.8
99154.6
99078.6
98993.9
98898.2
98790.6
98672.4
98542.5
98400.3
98245
98077.6
97899.8
97713.6
97520.9
97322
97119.2
96912.7
96704
96492.7
96281.4
96069.3
95859.6
95651.9
95450.5
95253.7
95067.4
94889.8
94718.4
94562.9
94413
94275.3
94153.8
94039.2
93941.4
93860.1
93788.6
93735.2
93694.7
93666.6
93655.9
93654.3
93662.3
93686.1
93716
93750
93793.5
93841.2
93887.1
93934.1
93980.9
94019.7
94056.5
94089
94113.4
94132.6
94138
94133.6
94121.4
94090.4
94044.8
93985.6
93906.9
93810.8
93696.5
93563.1
93408.8
93237.8
93044.5
92831
92603
92358.7
92097.4
91825.6
91542.2
91237.9
90924.1
90599.2
90259
89947.8
89634.8
89326.4
89015.1
88701.4
88408.3
88111.3
87832.2
87552.7
87287.9
87041.9
86806.3
86595.9
86394.6
86216.5
86032.3
85847.3
85647.1
85422.5
85185.3
84925.1
84645.8
84306.7
83972
83617.7
83247.8
82873.2
82597.3
82395.7
82307
82140.3
82227.1
99235.8
99250.4
99263.3
99278.3
99295.3
99313.4
99331.6
99350.1
99368.2
99386
99403.3
99420.8
99437.2
99453
99466
99477.2
99489.1
99505.1
99519.5
99532.9
99547.2
99562.9
99580.2
99596
99612.7
99630.9
99648.6
99663.6
99676.9
99690.6
99705.5
99720.8
99735.5
99749.5
99763.4
99777.7
99791.8
99805.2
99817.9
99829.7
99840.8
99852.5
99864.6
99877.1
99890.3
99904.2
99918.8
99934.1
99949.9
99966
99983
100000
100017
100035
100053
100072
100090
100109
100127
100144
100161
100177
100190
100201
100207
100210
100207
100197
100182
100160
100130
100092
100045
99987.5
99920.4
99841.4
99750.9
99648.3
99534.6
99409.4
99271.4
99121.6
98962.5
98796.1
98623.6
98446.2
98263.7
98075.6
97884.7
97690.3
97494.8
97296.9
97102.2
96908.9
96720.3
96536.8
96361.2
96188.1
96026.3
95871.8
95725
95592.8
95465
95349.4
95249.8
95154.5
95074.1
95007.3
94946.8
94900.9
94864
94833
94816.6
94807.1
94799.1
94797.9
94800.7
94803.8
94805.1
94802.6
94797.1
94787.1
94769.3
94746.6
94716.4
94673.2
94622.4
94562.5
94486.2
94395.6
94293.9
94175.3
94039.4
93888.4
93719.7
93531.7
93329.5
93104.3
92861.5
92604.7
92332.7
92046.4
91750.2
91441.3
91115.8
90778.6
90422.4
90070.6
89741.2
89400.8
89070.5
88736.3
88412.5
88108.5
87803.2
87521.4
87238.2
86980.6
86744
86523.1
86332.7
86156.9
86008.4
85857.7
85713.8
85554.7
85388.2
85198.8
85002.7
84783.1
84512.1
84250
83969
83682.1
83390
83167.2
83028.3
83014.3
82901.4
83088.4
98166.9
98184.7
98199.5
98217.8
98238.8
98263
98289.9
98319
98349.4
98380.7
98413.1
98446.4
98480.4
98515.6
98551.9
98589.4
98625.6
98657.1
98688.7
98721.2
98757.4
98795.3
98836.8
98878.2
98920.1
98965.2
99014.1
99063.1
99109.5
99154.1
99200
99248.7
99298.7
99349.3
99400.8
99453
99505.1
99556.1
99605.7
99654.5
99703.3
99752.6
99802.5
99853.2
99904.6
99956.8
100010
100063
100118
100172
100227
100282
100337
100393
100448
100503
100557
100611
100664
100715
100765
100812
100857
100898
100934
100966
100991
101011
101024
101030
101030
101020
101002
100972
100933
100884
100823
100750
100665
100568
100460
100340
100211
100073
99928.5
99777.7
99619.6
99454.1
99284.8
99109.7
98931.6
98749
98567.7
98386.3
98208.1
98032.6
97860.8
97691.2
97527.2
97370.8
97218.2
97075.2
96936.5
96806.4
96687.9
96570.8
96465.9
96372.9
96281.5
96200.8
96129.4
96061.4
96003.3
95953.1
95902.8
95856
95812.7
95771.5
95725.5
95674
95623.5
95565
95497.3
95425.5
95343.6
95252.1
95153.2
95043.6
94920.7
94784.9
94639.5
94479.1
94301.6
94112
93906.9
93685.4
93449.2
93192.2
92919.8
92631.4
92332
92021.7
91698.4
91363.9
91013.8
90648.8
90275
89912.4
89546.9
89183.2
88833.8
88480.4
88149.2
87830.3
87516.1
87228.7
86942.8
86693.8
86467.2
86265.2
86095
85944.9
85823.9
85708
85602.2
85484.3
85378.9
85235.1
85104.9
84943.6
84750.2
84564.8
84359.7
84159.1
83942.9
83798.6
83744.8
83799.3
83831.2
84053.7
97165.3
97180.6
97198.3
97220.2
97245.2
97274.3
97308.7
97347.7
97390.2
97435.4
97483.1
97532.8
97584.2
97637.1
97691.5
97747.7
97805.3
97863.5
97922.8
97982.6
98040.7
98101
98162.3
98226.5
98293.4
98363.2
98437.9
98517.6
98598.1
98675.7
98751.7
98829.5
98910.2
98992.7
99076.6
99161.7
99247.8
99333.9
99418.9
99503.3
99588.2
99673.4
99758.6
99845.1
99932.8
100021
100110
100200
100291
100382
100474
100565
100657
100748
100838
100927
101016
101103
101189
101272
101353
101430
101505
101575
101640
101699
101753
101801
101842
101877
101904
101923
101933
101933
101923
101902
101869
101825
101771
101704
101625
101536
101436
101327
101212
101088
100954
100814
100668
100515
100356
100193
100028
99863.2
99697.6
99531.8
99367.6
99206.1
99045.8
98890.9
98736.8
98586.1
98439.2
98297.7
98161.7
98026.3
97899.8
97779.1
97658.7
97546.6
97441.3
97337.5
97239.6
97148.1
97055.6
96964.2
96875.6
96787.3
96692.8
96594
96495.8
96387.5
96270.1
96147.5
96015.1
95875.1
95725.7
95565.9
95396
95214.5
95024.2
94819.6
94600
94370.6
94128.3
93872.6
93600.7
93313.1
93011
92690.5
92363.2
92025.7
91676.6
91313.4
90936.7
90551.9
90165.6
89771.4
89374.8
88997.4
88625.3
88256.5
87916.3
87577.8
87255.3
86961.5
86676.7
86437.7
86221.3
86039.6
85887.9
85764.1
85669.4
85587.9
85517.7
85439.1
85395
85300.7
85230.8
85135.9
85022.2
84917.2
84788.7
84665.7
84528.2
84479.3
84525.1
84626.3
84768.2
85103.3
96378.7
96397.8
96416.4
96444
96475.6
96511.1
96551.7
96598.4
96649.4
96704.7
96763.5
96825.3
96890.1
96957.8
97027.8
97099.8
97173.4
97248.3
97325.1
97403.8
97484.2
97566.2
97648.8
97733.4
97821.3
97912.2
98006.3
98104.4
98207.4
98312.3
98415.8
98519
98624.2
98731.7
98840.7
98950.8
99062
99173.9
99285.9
99398.1
99511.3
99625.5
99739.3
99853.9
99970.1
100088
100206
100325
100445
100566
100686
100807
100928