/*--------------------------------*- C++ -*----------------------------------*\
| =========                 |                                                 |
| \\      /  F ield         | OpenFOAM: The Open Source CFD Toolbox           |
|  \\    /   O peration     | Version:  dev                                   |
|   \\  /    A nd           | Web:      http://www.openfoam.org               |
|    \\/     M anipulation  |                                                 |
\*---------------------------------------------------------------------------*/
FoamFile
{
    version     2.0;
    format      ascii;
    class       surfaceScalarField;
    object      phi_0;
    location    "9.12";
}
// * * * * * * * * * * * * * * * * * * * * * * * * * * * * * * * * * * * * * //

dimensions      [1 0 -1 0 0 0 0];

internalField   nonuniform List<scalar> 
24170
(
2.01219e-06
1.41014e-06
1.10895e-06
1.10154e-06
5.95311e-07
6.87529e-07
3.33373e-07
4.31384e-07
9.43623e-08
4.0107e-07
-5.90114e-08
3.2475e-07
-2.90567e-07
3.99446e-07
-4.10442e-07
2.986e-07
-6.51185e-07
4.14006e-07
-7.80268e-07
3.11257e-07
-1.01712e-06
4.10782e-07
-1.16244e-06
3.22406e-07
-1.62898e-06
6.30743e-07
-1.46303e-06
1.20463e-09
-2.49557e-06
1.20451e-06
-2.07151e-06
-2.73713e-07
-3.34452e-06
1.47558e-06
3.67587e-06
-6.93552e-06
3.65255e-06
1.49349e-06
2.97956e-06
1.88969e-06
2.43873e-06
1.33356e-06
2.02847e-06
9.4924e-07
1.70375e-06
8.38719e-07
1.42461e-06
7.25445e-07
1.20653e-06
7.46446e-07
1.01619e-06
6.26423e-07
8.31254e-07
7.39843e-07
7.2231e-07
5.69007e-07
4.7289e-07
8.05263e-07
5.77527e-07
3.67528e-07
5.74502e-08
1.29207e-06
6.66898e-07
-4.69407e-07
-6.84033e-07
2.70865e-06
1.07906e-06
-1.91075e-06
-1.74008e-06
4.46535e-06
5.65575e-06
-3.57085e-06
4.39104e-06
1.125e-06
4.1239e-06
2.27684e-06
3.84662e-06
1.72275e-06
3.50361e-06
1.40682e-06
3.19753e-06
1.26599e-06
2.88906e-06
1.16226e-06
2.64187e-06
1.13244e-06
2.41251e-06
9.9999e-07
2.128e-06
1.17738e-06
2.23624e-06
6.14382e-07
1.68702e-06
1.51541e-06
2.20262e-06
3.43222e-09
1.23479e-06
2.42225e-06
1.93568e-06
-1.0247e-06
4.58541e-07
4.34044e-06
8.57492e-07
-2.17064e-06
4.48473e-07
5.01951e-06
5.84943e-06
4.10273e-07
4.71062e-06
1.04894e-06
4.74954e-06
2.36868e-06
4.68721e-06
1.90779e-06
4.57809e-06
1.63969e-06
4.33521e-06
1.64225e-06
4.23511e-06
1.40047e-06
3.88559e-06
1.63408e-06
3.88914e-06
1.15141e-06
3.42153e-06
1.81179e-06
3.60172e-06
5.99147e-07
2.96726e-06
2.32351e-06
3.28788e-06
-1.51268e-07
2.4225e-06
3.45702e-06
2.81431e-06
-1.25574e-06
1.79283e-06
5.52237e-06
2.00715e-06
-2.2273e-06
1.33332e-06
5.8357e-06
5.81934e-06
1.47203e-06
5.03559e-06
1.0116e-06
5.3695e-06
2.17565e-06
5.22782e-06
2.18374e-06
5.33567e-06
1.66671e-06
4.99606e-06
2.1278e-06
5.12785e-06
1.41953e-06
4.69124e-06
2.23513e-06
4.85838e-06
1.1546e-06
4.35747e-06
2.49208e-06
4.48182e-06
6.56875e-07
3.99465e-06
2.99596e-06
3.95274e-06
7.37702e-08
3.74212e-06
3.8467e-06
3.23638e-06
-5.72657e-07
3.66681e-06
5.25819e-06
2.39451e-06
-7.8879e-07
2.72874e-06
5.64948e-06
5.64458e-06
3.04349e-06
5.61754e-06
9.84471e-07
5.82881e-06
2.11787e-06
5.54198e-06
2.61512e-06
5.6546e-06
1.70089e-06
5.33803e-06
2.60049e-06
5.47316e-06
1.44841e-06
5.16103e-06
2.723e-06
5.25947e-06
1.2424e-06
4.96271e-06
2.98242e-06
4.91352e-06
9.05492e-07
4.79125e-06
3.31987e-06
4.4502e-06
6.16058e-07
4.72978e-06
3.76438e-06
3.82118e-06
5.27837e-07
4.70495e-06
4.55793e-06
2.84923e-06
1.24478e-06
3.7325e-06
4.93249e-06
5.31239e-06
4.21438e-06
6.02346e-06
1.10547e-06
6.1271e-06
2.17938e-06
5.88779e-06
3.00812e-06
5.93157e-06
1.81463e-06
5.72548e-06
2.97237e-06
5.75333e-06
1.59608e-06
5.62324e-06
3.04028e-06
5.59026e-06
1.47528e-06
5.54567e-06
3.23389e-06
5.33558e-06
1.33054e-06
5.46698e-06
3.40544e-06
4.95042e-06
1.35092e-06
5.32008e-06
3.6063e-06
4.35555e-06
1.70093e-06
4.97836e-06
4.13293e-06
3.68275e-06
2.73456e-06
4.26254e-06
4.53267e-06
5.54036e-06
4.19893e-06
4.87766e-06
1.11586e-06
4.88124e-06
2.30205e-06
4.74725e-06
3.25805e-06
4.68524e-06
1.99514e-06
4.57109e-06
3.21155e-06
4.48045e-06
1.81901e-06
4.44972e-06
3.21241e-06
4.33878e-06
1.73718e-06
4.39732e-06
3.33184e-06
4.16547e-06
1.72535e-06
4.32687e-06
3.40855e-06
3.89279e-06
1.9507e-06
4.162e-06
3.49791e-06
3.5163e-06
2.50577e-06
3.83323e-06
3.9677e-06
3.15423e-06
3.56169e-06
3.37379e-06
4.44943e-06
5.52364e-06
3.51456e-06
5.70388e-06
1.14072e-06
5.62074e-06
2.52857e-06
5.50466e-06
3.5039e-06
5.39673e-06
2.23581e-06
5.33028e-06
3.41776e-06
5.17712e-06
2.12041e-06
5.19562e-06
3.35216e-06
5.00528e-06
2.09691e-06
5.10405e-06
3.40863e-06
4.80948e-06
2.20317e-06
4.95693e-06
3.4456e-06
4.57645e-06
2.51727e-06
4.72065e-06
3.53503e-06
4.23095e-06
3.17526e-06
4.40061e-06
3.97022e-06
3.97292e-06
4.15564e-06
4.04934e-06
4.52757e-06
5.48144e-06
4.23335e-06
6.70167e-06
8.9223e-07
6.63667e-06
2.75184e-06
6.5115e-06
3.77135e-06
6.31188e-06
2.58212e-06
6.25029e-06
3.63257e-06
6.03121e-06
2.50286e-06
6.08351e-06
3.47325e-06
5.84363e-06
2.52327e-06
5.96217e-06
3.48337e-06
5.66165e-06
2.70592e-06
5.75959e-06
3.55104e-06
5.43366e-06
3.04859e-06
5.48781e-06
3.6827e-06
5.13456e-06
3.72841e-06
5.13225e-06
4.1651e-06
4.93465e-06
4.53773e-06
4.83991e-06
4.79603e-06
5.36066e-06
5.12112e-06
7.69755e-06
7.25563e-07
7.4743e-06
3.14846e-06
7.43633e-06
3.96129e-06
7.24535e-06
2.93004e-06
7.28449e-06
3.75668e-06
7.04254e-06
2.92064e-06
7.09748e-06
3.60483e-06
6.82393e-06
2.99842e-06
6.90494e-06
3.61163e-06
6.6453e-06
3.18447e-06
6.69585e-06
3.72131e-06
6.42487e-06
3.54269e-06
6.4176e-06
3.91116e-06
6.22087e-06
4.14393e-06
6.1602e-06
4.43752e-06
6.08621e-06
4.81433e-06
6.03984e-06
5.03364e-06
5.36622e-06
6.2135e-06
9.0846e-06
5.90696e-07
8.8782e-06
3.53886e-06
8.88584e-06
4.11178e-06
8.62439e-06
3.35569e-06
8.63702e-06
3.91527e-06
8.34309e-06
3.39862e-06
8.34089e-06
3.80304e-06
8.06546e-06
3.48527e-06
8.07065e-06
3.82654e-06
7.84043e-06
3.64484e-06
7.83766e-06
3.95785e-06
7.58257e-06
4.03459e-06
7.54259e-06
4.18766e-06
7.41606e-06
4.50396e-06
7.33599e-06
4.74472e-06
7.34318e-06
5.02465e-06
7.33369e-06
5.24854e-06
5.44277e-06
7.45227e-06
1.0723e-05
3.51037e-07
1.03746e-05
4.08023e-06
1.03055e-05
4.34023e-06
1.00028e-05
3.82119e-06
9.98824e-06
4.09967e-06
9.76679e-06
3.80248e-06
9.7598e-06
4.00639e-06
9.56853e-06
3.8878e-06
9.52938e-06
4.08719e-06
9.33789e-06
4.06823e-06
9.3088e-06
4.22505e-06
9.16167e-06
4.42344e-06
9.07769e-06
4.51371e-06
9.03448e-06
4.78628e-06
8.9852e-06
5.02726e-06
8.99993e-06
5.23364e-06
9.05957e-06
5.40057e-06
5.53649e-06
9.16847e-06
1.23699e-05
1.10874e-07
1.20982e-05
4.53479e-06
1.20214e-05
4.56222e-06
1.17805e-05
4.20942e-06
1.1761e-05
4.27422e-06
1.16153e-05
4.11609e-06
1.15839e-05
4.22057e-06
1.14417e-05
4.22687e-06
1.13502e-05
4.38698e-06
1.11899e-05
4.44723e-06
1.11154e-05
4.52698e-06
1.09955e-05
4.77437e-06
1.08608e-05
4.87972e-06
1.08816e-05
4.99473e-06
1.08714e-05
5.26146e-06
1.09346e-05
5.38542e-06
1.10557e-05
5.48378e-06
5.56213e-06
1.12279e-05
1.46449e-05
-2.49442e-07
1.43797e-05
4.95237e-06
1.42417e-05
4.8123e-06
1.4031e-05
4.53345e-06
1.39435e-05
4.48286e-06
1.37894e-05
4.40361e-06
1.36952e-05
4.46167e-06
1.35579e-05
4.52386e-06
1.34573e-05
4.65935e-06
1.33151e-05
4.77091e-06
1.32192e-05
4.81366e-06
1.31591e-05
5.02884e-06
1.30846e-05
5.14932e-06
1.31027e-05
5.17105e-06
1.31685e-05
5.38662e-06
1.32781e-05
5.45982e-06
1.34287e-05
5.5111e-06
5.53454e-06
1.36307e-05
1.73412e-05
-5.65332e-07
1.70704e-05
5.30881e-06
1.6947e-05
4.98281e-06
1.6817e-05
4.71444e-06
1.67386e-05
4.62013e-06
1.66251e-05
4.58575e-06
1.65264e-05
4.63915e-06
1.64228e-05
4.71771e-06
1.63554e-05
4.82844e-06
1.62916e-05
4.9452e-06
1.62019e-05
5.02162e-06
1.62039e-05
5.1488e-06
1.62184e-05
5.2589e-06
1.62522e-05
5.26263e-06
1.63657e-05
5.39713e-06
1.65152e-05
5.43145e-06
1.66982e-05
5.44934e-06
5.44625e-06
1.69074e-05
2.01128e-05
-8.95824e-07
2.01352e-05
5.25933e-06
2.01476e-05
4.9192e-06
2.01331e-05
4.68574e-06
2.01355e-05
4.58046e-06
2.0128e-05
4.55951e-06
2.01146e-05
4.62318e-06
2.00887e-05
4.72077e-06
2.00636e-05
4.8367e-06
2.00388e-05
4.95739e-06
1.99825e-05
5.0702e-06
1.99639e-05
5.16292e-06
1.99801e-05
5.2415e-06
1.99776e-05
5.26736e-06
2.01054e-05
5.27385e-06
2.02837e-05
5.26339e-06
2.04619e-05
5.2876e-06
5.24903e-06
2.06757e-05
2.07753e-05
-1.24111e-06
2.08698e-05
5.05526e-06
2.09281e-05
4.72127e-06
2.09575e-05
4.52004e-06
2.09907e-05
4.40741e-06
2.10149e-05
4.38494e-06
2.10277e-05
4.4517e-06
2.10349e-05
4.5518e-06
2.10647e-05
4.64257e-06
2.1122e-05
4.73292e-06
2.12461e-05
4.7797e-06
2.13598e-05
4.88353e-06
2.14527e-05
4.98523e-06
2.15615e-05
4.99557e-06
2.16617e-05
5.01642e-06
2.17726e-05
5.00873e-06
2.192e-05
4.9999e-06
4.9511e-06
2.20776e-05
1.82397e-05
-1.45586e-06
1.86745e-05
4.45781e-06
1.90418e-05
4.1758e-06
1.93031e-05
4.07905e-06
1.94702e-05
4.04564e-06
1.95602e-05
4.0756e-06
1.96104e-05
4.16115e-06
1.96515e-05
4.25743e-06
1.96973e-05
4.33183e-06
1.97112e-05
4.44253e-06
1.9804e-05
4.40215e-06
1.9916e-05
4.48118e-06
2.00478e-05
4.55733e-06
2.01525e-05
4.59107e-06
2.02416e-05
4.63698e-06
2.03213e-05
4.65081e-06
2.03897e-05
4.65392e-06
4.5793e-06
2.0487e-05
1.63956e-05
-1.31833e-06
1.67657e-05
3.90915e-06
1.7136e-05
3.6178e-06
1.74615e-05
3.55938e-06
1.77656e-05
3.52565e-06
1.80688e-05
3.52447e-06
1.83296e-05
3.6216e-06
1.85116e-05
3.77127e-06
1.8638e-05
3.8785e-06
1.87472e-05
3.98719e-06
1.88046e-05
3.98194e-06
1.88506e-05
4.0575e-06
1.8914e-05
4.1027e-06
1.89515e-05
4.15629e-06
1.90048e-05
4.19154e-06
1.90713e-05
4.20056e-06
1.91668e-05
4.17941e-06
4.09347e-06
1.92771e-05
1.48398e-05
-1.51252e-06
1.52488e-05
3.32876e-06
1.56117e-05
3.07723e-06
1.5963e-05
3.01978e-06
1.62846e-05
2.98692e-06
1.6559e-05
2.99518e-06
1.67923e-05
3.09675e-06
1.70088e-05
3.22618e-06
1.71757e-05
3.35068e-06
1.73051e-05
3.47218e-06
1.73475e-05
3.52896e-06
1.73832e-05
3.5907e-06
1.74362e-05
3.60397e-06
1.74893e-05
3.6469e-06
1.7567e-05
3.65448e-06
1.76463e-05
3.66465e-06
1.77136e-05
3.65981e-06
3.57275e-06
1.77858e-05
1.34041e-05
-1.32127e-06
1.37917e-05
2.80399e-06
1.42122e-05
2.50262e-06
1.46075e-05
2.45228e-06
1.49208e-05
2.46681e-06
1.51368e-05
2.531e-06
1.53193e-05
2.62554e-06
1.54663e-05
2.74795e-06
1.56433e-05
2.80387e-06
1.58409e-05
2.87097e-06
1.59727e-05
2.96167e-06
1.61278e-05
2.97901e-06
1.62378e-05
3.01984e-06
1.63265e-05
3.06819e-06
1.63962e-05
3.08623e-06
1.6468e-05
3.09262e-06
1.65419e-05
3.08749e-06
3.02192e-06
1.65973e-05
1.1756e-05
-1.30769e-06
1.22962e-05
2.15522e-06
1.28213e-05
1.8451e-06
1.32434e-05
1.87436e-06
1.35858e-05
1.93154e-06
1.38695e-05
2.01163e-06
1.41309e-05
2.08361e-06
1.43811e-05
2.17266e-06
1.45941e-05
2.22593e-06
1.47765e-05
2.28485e-06
1.49279e-05
2.37258e-06
1.50493e-05
2.39437e-06
1.5139e-05
2.44408e-06
1.5217e-05
2.48832e-06
1.52858e-05
2.50641e-06
1.53381e-05
2.52291e-06
1.53921e-05
2.51481e-06
2.46422e-06
1.54328e-05
1.07653e-05
-1.10487e-06
1.13094e-05
1.52747e-06
1.17811e-05
1.26125e-06
1.22023e-05
1.31401e-06
1.25529e-05
1.40438e-06
1.2844e-05
1.50151e-06
1.30917e-05
1.57143e-06
1.33056e-05
1.64849e-06
1.34806e-05
1.69859e-06
1.36163e-05
1.75835e-06
1.37547e-05
1.80862e-06
1.38353e-05
1.85947e-06
1.39097e-05
1.8927e-06
1.39796e-05
1.9251e-06
1.40367e-05
1.94322e-06
1.40897e-05
1.95672e-06
1.41372e-05
1.95166e-06
1.92414e-06
1.41622e-05
9.5229e-06
-1.00632e-06
1.01172e-05
8.64048e-07
1.06466e-05
6.32965e-07
1.11109e-05
7.23357e-07
1.1479e-05
8.75012e-07
1.17631e-05
1.01533e-06
1.19732e-05
1.11641e-06
1.21431e-05
1.19027e-06
1.22888e-05
1.22208e-06
1.24391e-05
1.23788e-06
1.25628e-05
1.28033e-06
1.2664e-05
1.32561e-06
1.27334e-05
1.3683e-06
1.27772e-05
1.40923e-06
1.27927e-05
1.44345e-06
1.27988e-05
1.45907e-06
1.27938e-05
1.46212e-06
1.43593e-06
1.27877e-05
8.49654e-06
-1.09533e-06
9.09973e-06
2.016e-07
9.56376e-06
8.40026e-08
9.93849e-06
2.37141e-07
1.02579e-05
4.10205e-07
1.05359e-05
5.52609e-07
1.07704e-05
6.5545e-07
1.0948e-05
7.44518e-07
1.10998e-05
7.62834e-07
1.12307e-05
7.62823e-07
1.13237e-05
8.11283e-07
1.13883e-05
8.58289e-07
1.14142e-05
9.18206e-07
1.14109e-05
9.7205e-07
1.13842e-05
1.01767e-06
1.1349e-05
1.03446e-06
1.13026e-05
1.04521e-06
1.03426e-06
1.12406e-05
7.7561e-06
-8.5459e-07
8.30428e-06
-3.98244e-07
8.74571e-06
-4.32822e-07
9.09671e-06
-2.14496e-07
9.38217e-06
-7.53177e-09
9.60782e-06
1.5832e-07
9.76284e-06
2.93878e-07
9.86741e-06
3.95831e-07
9.92249e-06
4.27709e-07
9.91899e-06
4.52804e-07
9.88008e-06
5.07389e-07
9.8132e-06
5.57634e-07
9.72599e-06
6.17382e-07
9.61694e-06
6.77051e-07
9.50713e-06
7.11958e-07
9.39163e-06
7.27129e-07
9.26602e-06
7.44562e-07
7.42476e-07
9.13082e-06
7.07773e-06
-1.10815e-06
7.59728e-06
-9.6399e-07
7.85319e-06
-7.56064e-07
7.97236e-06
-4.23474e-07
8.00569e-06
-1.59191e-07
7.98705e-06
2.56369e-08
7.94348e-06
1.51346e-07
7.87959e-06
2.39036e-07
7.77036e-06
2.83214e-07
7.62153e-06
3.17478e-07
7.45413e-06
3.63586e-07
7.27413e-06
4.03119e-07
7.0919e-06
4.45623e-07
6.92028e-06
4.79475e-07
6.75297e-06
4.99087e-07
6.57433e-06
5.18477e-07
6.39199e-06
5.36213e-07
5.39755e-07
6.20297e-06
6.14295e-06
-1.26428e-06
6.15816e-06
-1.01758e-06
5.92993e-06
-5.86324e-07
5.65921e-06
-2.32097e-07
5.4014e-06
-6.71038e-09
5.17879e-06
1.12994e-07
4.99351e-06
1.69785e-07
4.826e-06
2.08094e-07
4.6609e-06
2.1923e-07
4.49614e-06
2.24682e-07
4.33181e-06
2.44879e-07
4.1764e-06
2.53744e-07
4.04427e-06
2.5522e-07
3.91908e-06
2.68564e-07
3.79818e-06
2.73949e-07
3.67326e-06
2.91199e-07
3.55088e-06
3.02399e-07
3.04819e-07
3.42851e-06
4.16923e-06
3.06562e-06
2.38146e-06
2.0391e-06
1.90371e-06
1.86494e-06
1.85755e-06
1.86254e-06
1.85362e-06
1.8272e-06
1.8008e-06
1.7663e-06
1.71981e-06
1.67656e-06
1.6316e-06
1.59966e-06
1.57687e-06
1.55799e-06
3.71286e-07
1.09741e-06
6.91603e-07
1.24768e-06
9.20302e-07
1.35997e-06
1.22761e-06
1.27695e-06
1.69155e-06
1.11312e-06
2.3723e-06
8.78071e-07
3.16284e-06
7.50724e-07
4.04299e-06
6.46439e-07
4.97159e-06
5.84968e-07
5.91744e-06
5.51493e-07
6.90127e-06
4.91283e-07
7.91408e-06
4.42374e-07
8.93722e-06
4.10304e-07
9.97085e-06
3.77196e-07
1.09949e-05
3.60843e-07
1.1996e-05
3.50508e-07
1.29595e-05
3.57728e-07
1.38735e-05
3.74787e-07
1.47398e-05
3.84571e-07
1.55622e-05
3.95769e-07
1.63215e-05
4.26066e-07
1.69435e-05
5.22285e-07
1.74461e-05
5.959e-07
1.7823e-05
6.76519e-07
1.80748e-05
7.54718e-07
1.81973e-05
8.3259e-07
1.82129e-05
8.85834e-07
1.80755e-05
9.88939e-07
1.77974e-05
1.06697e-06
1.73892e-05
1.14778e-06
1.6827e-05
1.24155e-06
1.60845e-05
1.34259e-06
1.51445e-05
1.49285e-06
1.4332e-05
1.30386e-06
1.3777e-05
9.90076e-07
1.33681e-05
8.37775e-07
1.32231e-05
5.61883e-07
1.30748e-05
5.27507e-07
1.27746e-05
6.47861e-07
1.25366e-05
5.27392e-07
1.23824e-05
3.76054e-07
1.25125e-05
6.75496e-09
1.28506e-05
-2.73488e-07
1.31628e-05
-2.93025e-07
1.31307e-05
-1.42461e-08
1.2621e-05
3.78217e-07
1.17748e-05
6.29928e-07
1.07721e-05
7.61862e-07
9.77272e-06
8.22977e-07
9.23173e-06
4.76457e-07
9.71777e-06
-5.66827e-07
1.07845e-05
-1.36476e-06
1.105e-05
-6.63872e-07
1.0816e-05
-9.69153e-08
1.05618e-05
-6.77912e-08
9.71322e-06
4.24651e-07
8.19594e-06
1.09589e-06
6.2984e-06
1.62369e-06
4.48009e-06
1.57013e-06
2.8373e-06
1.32947e-06
1.35601e-06
1.13881e-06
4.83448e-08
9.47136e-07
-1.10394e-06
7.75331e-07
-2.11354e-06
6.17254e-07
-2.98549e-06
4.64054e-07
-3.72751e-06
3.18026e-07
-4.34844e-06
1.79948e-07
-4.8666e-06
5.94191e-08
-5.30146e-06
-4.28013e-08
-5.65084e-06
-1.47897e-07
-5.9355e-06
-2.33012e-07
-6.16591e-06
-3.08177e-07
-6.34595e-06
-3.79765e-07
-6.50032e-06
-4.26595e-07
-6.62767e-06
-4.74154e-07
-6.73447e-06
-5.14427e-07
-6.82206e-06
-5.51948e-07
-6.90648e-06
-5.71453e-07
-6.97593e-06
-6.003e-07
-7.05166e-06
-6.05082e-07
-7.12655e-06
-6.14509e-07
-7.18572e-06
-6.34607e-07
-7.2497e-06
-6.31423e-07
-7.29569e-06
-6.49395e-07
-7.30064e-06
-6.87245e-07
-7.28409e-06
-7.02303e-07
-7.23988e-06
-7.19804e-07
-7.17887e-06
-7.24322e-07
-7.08849e-06
-7.41361e-07
-6.98578e-06
-7.41242e-07
-6.84665e-06
-7.65178e-07
-6.71709e-06
-7.43035e-07
-6.57756e-06
-7.43779e-07
-6.39661e-06
-7.79841e-07
-6.24279e-06
-7.4766e-07
-6.09835e-06
-7.38043e-07
-5.99484e-06
-7.01628e-07
-5.88626e-06
-7.15375e-07
-5.79489e-06
-7.11234e-07
-5.69185e-06
-7.36319e-07
-5.62535e-06
-7.15036e-07
-5.58759e-06
-7.05395e-07
-5.58888e-06
-6.86373e-07
-5.6154e-06
-6.84763e-07
-5.63342e-06
-7.17026e-07
-5.63378e-06
-7.53481e-07
-5.64401e-06
-7.53165e-07
-5.69038e-06
-7.19451e-07
-5.77829e-06
-6.78817e-07
-5.93884e-06
-6.03941e-07
-6.21278e-06
-4.80567e-07
-6.53988e-06
-4.06531e-07
-6.87738e-06
-3.64679e-07
-7.23297e-06
-2.97243e-07
-7.55138e-06
-2.5343e-07
-7.82313e-06
-1.99474e-07
-8.05935e-06
-1.33346e-07
-8.19233e-06
-1.23971e-07
-8.14909e-06
-1.67673e-07
-7.92196e-06
-2.0455e-07
-7.5892e-06
-1.56169e-07
-7.18669e-06
-7.04658e-08
-6.72085e-06
4.3214e-08
-6.05786e-06
-6.62666e-09
-5.21636e-06
-6.87449e-08
-4.2521e-06
-9.1515e-08
-3.26128e-06
-2.59906e-08
-2.42832e-06
2.19034e-07
-1.77067e-06
4.59479e-07
-1.08664e-06
4.73119e-07
-2.49569e-07
3.543e-07
8.52874e-07
1.20051e-07
1.85138e-06
2.3707e-07
2.81787e-06
2.5601e-07
3.94898e-06
7.15143e-08
5.18311e-06
-4.06889e-08
6.34431e-06
1.39406e-08
7.57903e-06
-1.05287e-07
8.55656e-06
1.21346e-07
9.48668e-06
1.58247e-07
9.97771e-06
5.02271e-07
1.01314e-05
7.47259e-07
9.57853e-06
1.43081e-06
8.95007e-06
1.45417e-06
8.23907e-06
1.52624e-06
7.67756e-06
1.40249e-06
6.61295e-06
1.91873e-06
5.29251e-06
2.25774e-06
3.32909e-06
2.97638e-06
1.33498e-06
3.13769e-06
-9.00892e-07
3.51686e-06
-2.74613e-06
3.27614e-06
-3.89471e-06
2.75939e-06
-4.94815e-06
2.86277e-06
-5.30185e-06
2.36279e-06
-5.24134e-06
2.17346e-06
-5.01513e-06
2.21028e-06
-4.41244e-06
2.0115e-06
-3.88992e-06
2.23908e-06
-2.91805e-06
1.89803e-06
-2.14405e-06
2.1483e-06
-1.02626e-06
1.83615e-06
1.36148e-07
1.78612e-06
1.33375e-06
1.73072e-06
2.2216e-06
1.90621e-06
3.21463e-06
1.62809e-06
4.61157e-06
9.15443e-07
5.01516e-06
1.70084e-06
4.61647e-06
2.34006e-06
3.07709e-06
3.51937e-06
3.02851e-06
1.91109e-06
5.21129e-06
-9.73571e-07
6.24403e-06
-2.05031e-07
6.70325e-06
1.47133e-07
6.38328e-06
6.91472e-07
5.77879e-06
7.75098e-07
4.9579e-06
8.11165e-07
4.32097e-06
4.46888e-07
3.90961e-06
1.15643e-07
1.3172e-07
3.48313e-06
4.17822e-07
2.08738e-06
9.91663e-07
2.18255e-06
1.51431e-06
2.40273e-06
2.01003e-06
2.33308e-06
2.59123e-06
2.02428e-06
3.28302e-06
1.62305e-06
4.08375e-06
1.35566e-06
4.95812e-06
1.16426e-06
5.85488e-06
1.07558e-06
6.76914e-06
1.01179e-06
7.67323e-06
9.41368e-07
8.63501e-06
8.16758e-07
9.61704e-06
7.47903e-07
1.0612e-05
6.87032e-07
1.16039e-05
6.55997e-07
1.259e-05
6.24901e-07
1.35968e-05
5.91194e-07
1.4563e-05
6.17286e-07
1.5466e-05
6.50947e-07
1.63071e-05
6.98983e-07
1.71301e-05
7.42597e-07
1.79072e-05
8.64984e-07
1.857e-05
1.01241e-06
1.91381e-05
1.1633e-06
1.96104e-05
1.30221e-06
1.99429e-05
1.47458e-06
2.01462e-05
1.62446e-06
2.02538e-05
1.76765e-06
2.02599e-05
1.89487e-06
2.01337e-05
2.05494e-06
1.98648e-05
2.23558e-06
1.94934e-05
2.35004e-06
1.9002e-05
2.55937e-06
1.81491e-05
2.67193e-06
1.67139e-05
2.78679e-06
1.53842e-05
2.73454e-06
1.44962e-05
2.20237e-06
1.37116e-05
1.81517e-06
1.32833e-05
1.44734e-06
1.32927e-05
8.38851e-07
1.34261e-05
4.34125e-07
1.37106e-05
-2.63002e-07
1.41671e-05
-7.75046e-07
1.46089e-05
-7.30009e-07
1.46466e-05
-6.49324e-08
1.41621e-05
8.50611e-07
1.32544e-05
1.51259e-06
1.19702e-05
1.88037e-06
1.11381e-05
1.43509e-06
1.14469e-05
-2.94148e-08
1.12053e-05
-4.86619e-07
9.37285e-06
1.01876e-07
7.14997e-06
1.05176e-06
4.64769e-06
2.09611e-06
2.17727e-06
2.15531e-06
9.17098e-08
2.21417e-06
-1.52772e-06
2.42846e-06
-2.68266e-06
2.48116e-06
-3.74599e-06
2.30677e-06
-4.8243e-06
2.05516e-06
-5.81495e-06
1.76256e-06
-6.69916e-06
1.44753e-06
-7.45306e-06
1.1327e-06
-8.08707e-06
8.40424e-07
-8.60862e-06
5.6096e-07
-9.02232e-06
2.92104e-07
-9.35664e-06
5.90934e-08
-9.61184e-06
-1.56796e-07
-9.78557e-06
-3.58822e-07
-9.90289e-06
-5.39132e-07
-9.95431e-06
-7.10858e-07
-9.98227e-06
-8.29781e-07
-9.98156e-06
-9.5221e-07
-9.95355e-06
-1.04734e-06
-9.90809e-06
-1.13359e-06
-9.86015e-06
-1.1981e-06
-9.79861e-06
-1.26847e-06
-9.74701e-06
-1.29648e-06
-9.6857e-06
-1.34993e-06
-9.62399e-06
-1.36809e-06
-9.56997e-06
-1.37912e-06
-9.50496e-06
-1.4156e-06
-9.43533e-06
-1.41864e-06
-9.35494e-06
-1.44673e-06
-9.23764e-06
-1.52195e-06
-9.11738e-06
-1.53749e-06
-8.96332e-06
-1.58017e-06
-8.78156e-06
-1.60255e-06
-8.5774e-06
-1.63186e-06
-8.37682e-06
-1.61723e-06
-8.13832e-06
-1.66893e-06
-7.89887e-06
-1.64069e-06
-7.64152e-06
-1.64838e-06
-7.37149e-06
-1.69511e-06
-7.13778e-06
-1.62623e-06
-6.90725e-06
-1.61729e-06
-6.71038e-06
-1.55489e-06
-6.51981e-06
-1.57285e-06
-6.3496e-06
-1.56407e-06
-6.18971e-06
-1.59181e-06
-6.05733e-06
-1.56369e-06
-5.97061e-06
-1.52587e-06
-5.87819e-06
-1.53424e-06
-5.79189e-06
-1.55087e-06
-5.73582e-06
-1.57681e-06
-5.75535e-06
-1.55098e-06
-5.82934e-06
-1.49115e-06
-5.9713e-06
-1.3805e-06
-6.12823e-06
-1.33625e-06
-6.35404e-06
-1.20745e-06
-6.692e-06
-9.66845e-07
-7.0939e-06
-8.1877e-07
-7.48246e-06
-7.72935e-07
-7.87008e-06
-6.6189e-07
-8.15237e-06
-6.42007e-07
-8.41485e-06
-4.8138e-07
-8.68306e-06
-2.63889e-07
-8.86669e-06
-2.0121e-07
-8.83996e-06
-3.15345e-07
-8.58472e-06
-4.2883e-07
-8.18322e-06
-4.01732e-07
-7.67333e-06
-2.76486e-07
-6.89075e-06
-2.15323e-07
-6.05862e-06
-3.03726e-08
-5.29212e-06
1.13922e-07
-4.55583e-06
1.24388e-07
-3.64999e-06
4.34443e-08
-2.83721e-06
4.53958e-07
-1.95893e-06
6.58385e-07
-1.12643e-06
7.18393e-07
-1.18153e-07
4.53725e-07
1.0432e-06
1.00642e-07
2.20521e-06
2.2449e-07
3.45826e-06
1.3252e-07
4.67991e-06
-5.14203e-08
6.07052e-06
-3.46907e-07
7.44505e-06
-2.95184e-07
8.89328e-06
-5.47685e-07
1.00761e-05
-2.39412e-08
1.15771e-05
-5.03714e-08
1.35615e-05
-5.97668e-08
1.51246e-05
4.63682e-07
1.51278e-05
2.55292e-06
1.43796e-05
2.94935e-06
1.31032e-05
3.47824e-06
1.19679e-05
3.28623e-06
1.01382e-05
4.54459e-06
7.68095e-06
5.6885e-06
4.26369e-06
7.43136e-06
1.2784e-06
7.15158e-06
-1.14131e-06
7.08298e-06
-3.09083e-06
6.45269e-06
-3.96332e-06
5.03696e-06
-4.57399e-06
5.09003e-06
-4.59633e-06
4.18197e-06
-4.05262e-06
3.66764e-06
-3.32592e-06
3.72771e-06
-2.13075e-06
3.27868e-06
-9.58482e-07
3.71999e-06
2.09333e-07
3.55066e-06
7.97856e-07
4.47546e-06
1.45732e-06
4.14971e-06
2.04654e-06
4.21302e-06
3.0677e-06
3.86054e-06
4.12382e-06
3.95941e-06
5.30139e-06
3.32986e-06
6.10394e-06
2.48057e-06
5.35999e-06
4.75608e-06
3.95218e-06
6.06127e-06
2.49297e-06
7.31038e-06
3.347e-06
2.90072e-06
6.67745e-06
-3.01273e-06
8.77038e-06
-1.50858e-06
9.97229e-06
-6.44976e-07
9.89404e-06
9.68558e-07
9.39014e-06
1.2879e-06
8.00432e-06
1.97025e-06
6.74537e-06
1.35365e-06
6.07914e-06
2.41291e-07
3.56671e-07
5.35386e-06
3.68021e-07
3.03852e-06
9.21911e-07
3.00419e-06
1.52922e-06
3.17359e-06
2.16844e-06
3.01675e-06
2.86883e-06
2.58335e-06
3.589e-06
2.13762e-06
4.362e-06
1.82274e-06
5.13791e-06
1.64522e-06
5.90652e-06
1.57743e-06
6.68643e-06
1.50393e-06
7.48248e-06
1.40925e-06
8.29e-06
1.26362e-06
9.13722e-06
1.14556e-06
1.00104e-05
1.04496e-06
1.08796e-05
1.00218e-06
1.17482e-05
9.52874e-07
1.26014e-05
9.18503e-07
1.34519e-05
9.26468e-07
1.43196e-05
9.18255e-07
1.51383e-05
9.89806e-07
1.58993e-05
1.07318e-06
1.66527e-05
1.18323e-06
1.73501e-05
1.35749e-06
1.79558e-05
1.58946e-06
1.84821e-05
1.79715e-06
1.89142e-05
2.04243e-06
1.92535e-05
2.25995e-06
1.9509e-05
2.45499e-06
1.96933e-05
2.63456e-06
1.98386e-05
2.7799e-06
1.98963e-05
2.9855e-06
1.98892e-05
3.11139e-06
1.98151e-05
3.3078e-06
1.96258e-05
3.45841e-06
1.92633e-05
3.58874e-06
1.87056e-05
3.66286e-06
1.77382e-05
3.54137e-06
1.67427e-05
3.26764e-06
1.61421e-05
2.56757e-06
1.57767e-05
1.60877e-06
1.56409e-05
7.69897e-07
1.57283e-05
-4.12411e-07
1.59897e-05
-1.15133e-06
1.60064e-05
-8.29876e-07
1.57895e-05
7.94205e-08
1.51444e-05
1.44282e-06
1.41632e-05
2.45015e-06
1.33502e-05
2.72726e-06
1.25797e-05
2.28268e-06
1.0496e-05
1.75773e-06
6.9812e-06
2.56232e-06
3.26771e-06
3.56289e-06
7.12131e-07
3.39443e-06
-8.94879e-07
3.47144e-06
-2.38834e-06
3.38393e-06
-3.74899e-06
3.29109e-06
-4.80498e-06
3.18347e-06
-5.60899e-06
2.96523e-06
-6.27449e-06
2.63788e-06
-6.82408e-06
2.25867e-06
-7.29876e-06
1.8831e-06
-7.72799e-06
1.51449e-06
-8.10004e-06
1.13524e-06
-8.41947e-06
7.80988e-07
-8.67774e-06
4.31986e-07
-8.89263e-06
1.08475e-07
-9.0424e-06
-2.01144e-07
-9.1403e-06
-4.83238e-07
-9.19118e-06
-7.47592e-07
-9.19011e-06
-9.95683e-07
-9.18995e-06
-1.18567e-06
-9.1512e-06
-1.35999e-06
-9.09531e-06
-1.5201e-06
-9.02541e-06
-1.64649e-06
-8.94975e-06
-1.7575e-06
-8.88464e-06
-1.82898e-06
-8.81584e-06
-1.92207e-06
-8.7618e-06
-1.95149e-06
-8.72134e-06
-2.00658e-06
-8.67278e-06
-2.04416e-06
-8.6305e-06
-2.05729e-06
-8.58071e-06
-2.10876e-06
-8.51147e-06
-2.12928e-06
-8.44081e-06
-2.15222e-06
-8.35277e-06
-2.24241e-06
-8.25333e-06
-2.26899e-06
-8.12444e-06
-2.33592e-06
-7.95798e-06
-2.38845e-06
-7.78757e-06
-2.41199e-06
-7.61516e-06
-2.3848e-06
-7.40098e-06
-2.46916e-06
-7.22286e-06
-2.40426e-06
-7.02764e-06
-2.41124e-06
-6.80444e-06
-2.48188e-06
-6.5877e-06
-2.41088e-06
-6.3807e-06
-2.40089e-06
-6.19174e-06
-2.3265e-06
-6.01903e-06
-2.34e-06
-5.92385e-06
-2.27051e-06
-5.81925e-06
-2.32263e-06
-5.74703e-06
-2.29741e-06
-5.63428e-06
-2.32221e-06
-5.55403e-06
-2.33506e-06
-5.48769e-06
-2.35969e-06
-5.48957e-06
-2.3171e-06
-5.58489e-06
-2.20476e-06
-5.72275e-06
-2.1395e-06
-5.87023e-06
-2.04334e-06
-6.10916e-06
-1.90197e-06
-6.50065e-06
-1.60177e-06
-6.97273e-06
-1.24861e-06
-7.39756e-06
-1.11561e-06
-7.71795e-06
-1.15379e-06
-7.96721e-06
-1.10879e-06
-8.03849e-06
-1.26225e-06
-8.06584e-06
-1.08311e-06
-8.14977e-06
-6.116e-07
-8.24794e-06
-1.90936e-07
-8.2815e-06
-4.92229e-08
-8.26176e-06
-1.70867e-07
-8.09604e-06
-4.03319e-07
-7.69495e-06
-4.99702e-07
-6.95313e-06
-6.53651e-07
-5.71508e-06
-6.94644e-07
-4.23255e-06
-3.98448e-07
-2.99988e-06
1.64435e-09
-2.11834e-06
1.55904e-07
-1.3164e-06
6.27022e-07
-3.24733e-07
6.74193e-07
8.14227e-07
6.32887e-07
2.11902e-06
2.83409e-07
3.29016e-06
1.10613e-07
4.55866e-06
1.1694e-07
5.93318e-06
-8.52193e-08
7.07243e-06
-6.1025e-08
8.42472e-06
-6.12004e-07
9.305e-06
-1.92105e-07
9.76751e-06
-2.84679e-07
1.00476e-05
3.59488e-07
1.04543e-05
4.63505e-07
1.22996e-05
-5.88993e-07
1.51404e-05
-6.73884e-07
1.64242e-05
2.92017e-06
1.63277e-05
3.95958e-06
1.44668e-05
5.93832e-06
1.27786e-05
5.52612e-06
1.06778e-05
7.51676e-06
8.29886e-06
8.91985e-06
4.96403e-06
1.17612e-05
1.41344e-06
1.14729e-05
-6.62799e-07
1.00057e-05
-2.20871e-06
8.98656e-06
-3.06967e-06
7.08804e-06
-3.31588e-06
6.74039e-06
-3.55987e-06
6.04111e-06
-3.11041e-06
5.06494e-06
-2.40738e-06
5.02877e-06
-1.09515e-06
4.17787e-06
2.79655e-07
4.69921e-06
2.02036e-06
4.29014e-06
3.35154e-06
5.82345e-06
4.33563e-06
5.93462e-06
4.67443e-06
6.71972e-06
4.88352e-06
6.58415e-06
5.49447e-06
6.41747e-06
6.35752e-06
5.24958e-06
6.74814e-06
4.4869e-06
6.2067e-06
7.72775e-06
5.27353e-06
9.35934e-06
3.56629e-06
1.11065e-05
3.90988e-06
3.97386e-06
6.85907e-06
-4.87102e-06
1.00206e-05
-3.70573e-06
1.16529e-05
-1.74313e-06
1.1871e-05
9.96137e-07
1.18731e-05
1.27438e-06
1.05924e-05
3.05286e-06
8.76578e-06
2.87374e-06
7.59894e-06
8.42096e-07
1.0608e-06
6.37214e-06
3.43817e-07
3.91324e-06
8.6374e-07
3.72544e-06
1.49393e-06
3.75058e-06
2.20985e-06
3.46836e-06
2.98507e-06
2.96902e-06
3.71778e-06
2.58858e-06
4.42559e-06
2.32941e-06
5.09236e-06
2.21683e-06
5.7479e-06
2.16893e-06
6.40907e-06
2.08607e-06
7.07838e-06
1.97617e-06
7.73205e-06
1.84068e-06
8.3903e-06
1.71226e-06
9.06258e-06
1.58678e-06
9.78248e-06
1.48504e-06
1.04896e-05
1.43083e-06
1.11998e-05
1.37364e-06
1.19696e-05
1.30625e-06
1.27703e-05
1.24131e-06
1.35723e-05
1.27993e-06
1.43574e-05
1.35825e-06
1.50913e-05
1.49271e-06
1.58145e-05
1.65656e-06
1.64769e-05
1.94647e-06
1.70467e-05
2.23513e-06
1.75483e-05
2.52995e-06
1.79552e-05
2.8272e-06
1.82932e-05
3.07025e-06
1.85703e-05
3.28058e-06
1.87588e-05
3.4447e-06
1.89702e-05
3.55841e-06
1.91527e-05
3.65588e-06
1.93295e-05
3.79513e-06
1.94622e-05
3.94086e-06
1.9484e-05
4.11292e-06
1.92948e-05
4.2534e-06
1.88957e-05
4.15732e-06
1.85277e-05
3.90599e-06
1.82253e-05
3.14557e-06
1.77813e-05
2.27055e-06
1.77413e-05
1.12912e-06
1.79201e-05
-5.90586e-07
1.78668e-05
-1.0997e-06
1.71868e-05
-1.41055e-07
1.5609e-05
1.28972e-06
1.41471e-05
2.83632e-06
1.27922e-05
4.16128e-06
1.10294e-05
4.74706e-06
8.16262e-06
4.99706e-06
4.41169e-06
5.20474e-06
1.53043e-06
5.24814e-06
-8.68385e-08
5.02007e-06
-1.67551e-06
4.77288e-06
-2.92482e-06
4.49679e-06
-3.91804e-06
4.12711e-06
-4.73273e-06
3.84332e-06
-5.30736e-06
3.48075e-06
-5.78132e-06
3.15382e-06
-6.17952e-06
2.74157e-06
-6.54578e-06
2.3258e-06
-6.86812e-06
1.90001e-06
-7.15196e-06
1.48884e-06
-7.40114e-06
1.06536e-06
-7.61357e-06
6.68818e-07
-7.77929e-06
2.62224e-07
-7.91789e-06
-9.81277e-08
-8.00961e-06
-4.68466e-07
-8.0622e-06
-8.02242e-07
-8.03523e-06
-1.16374e-06
-8.03445e-06
-1.40329e-06
-7.98037e-06
-1.66149e-06
-7.90514e-06
-1.87931e-06
-7.82196e-06
-2.06342e-06
-7.70045e-06
-2.25061e-06
-7.59904e-06
-2.3594e-06
-7.49495e-06
-2.44942e-06
-7.41702e-06
-2.53477e-06
-7.3448e-06
-2.57203e-06
-7.27576e-06
-2.64001e-06
-7.23053e-06
-2.6629e-06
-7.18001e-06
-2.68674e-06
-7.14711e-06
-2.72743e-06
-7.09443e-06
-2.77203e-06
-7.01361e-06
-2.82282e-06
-6.91722e-06
-2.92683e-06
-6.81032e-06
-2.95709e-06
-6.69426e-06
-3.02293e-06
-6.53597e-06
-3.10825e-06
-6.3377e-06
-3.16696e-06
-6.17798e-06
-3.08886e-06
-5.98903e-06
-3.1915e-06
-5.81751e-06
-3.10599e-06
-5.634e-06
-3.11171e-06
-5.38763e-06
-3.23992e-06
-5.25223e-06
-3.05758e-06
-5.11536e-06
-3.05332e-06
-4.99089e-06
-2.97281e-06
-4.9011e-06
-2.96249e-06
-4.78981e-06
-2.92526e-06
-4.67743e-06
-2.98864e-06
-4.58301e-06
-2.96781e-06
-4.58682e-06
-2.90542e-06
-4.58977e-06
-2.94346e-06
-4.61099e-06
-2.98904e-06
-4.64756e-06
-2.98907e-06
-4.75686e-06
-2.84969e-06
-4.96042e-06
-2.68826e-06
-5.22193e-06
-2.5046e-06
-5.49789e-06
-2.32019e-06
-5.79507e-06
-2.01129e-06
-6.11629e-06
-1.66501e-06
-6.4355e-06
-1.51834e-06
-6.79294e-06
-1.48169e-06
-7.18007e-06
-1.33157e-06
-7.42184e-06
-1.4768e-06
-7.53662e-06
-1.37768e-06
-7.57255e-06
-9.8178e-07
-7.41986e-06
-5.71585e-07
-7.07353e-06
-2.38329e-07
-6.81871e-06
5.47716e-08
-6.67969e-06
-6.14388e-08
-6.51613e-06
-2.81033e-07
-6.16856e-06
-6.35202e-07
-5.28352e-06
-1.1862e-06
-3.87051e-06
-1.23215e-06
-1.83667e-06
-1.10838e-06
9.6357e-08
-6.79889e-07