/*--------------------------------*- C++ -*----------------------------------*\
| =========                 |                                                 |
| \\      /  F ield         | OpenFOAM: The Open Source CFD Toolbox           |
|  \\    /   O peration     | Version:  dev                                   |
|   \\  /    A nd           | Web:      http://www.openfoam.org               |
|    \\/     M anipulation  |                                                 |
\*---------------------------------------------------------------------------*/
FoamFile
{
    version     2.0;
    format      ascii;
    class       volScalarField;
    object      pPrime2Mean;
    location    "9.12";
}
// * * * * * * * * * * * * * * * * * * * * * * * * * * * * * * * * * * * * * //

dimensions      [2 -2 -4 0 0 0 0];

internalField   nonuniform List<scalar> 
12225
(
5.0379e+07
4.99141e+07
4.89535e+07
4.76025e+07
4.59489e+07
4.40823e+07
4.20616e+07
3.99589e+07
3.78152e+07
3.56782e+07
3.35859e+07
3.15411e+07
2.96178e+07
2.77468e+07
2.59993e+07
2.44385e+07
2.28764e+07
2.1296e+07
5.02712e+07
4.98062e+07
4.88464e+07
4.74971e+07
4.5845e+07
4.39807e+07
4.19629e+07
3.98628e+07
3.7723e+07
3.55887e+07
3.35011e+07
3.146e+07
2.95413e+07
2.76771e+07
2.59471e+07
2.43864e+07
2.28773e+07
2.15427e+07
5.00209e+07
4.95565e+07
4.85972e+07
4.72509e+07
4.56033e+07
4.37438e+07
4.17327e+07
3.96389e+07
3.75072e+07
3.53811e+07
3.33019e+07
3.12725e+07
2.93599e+07
2.75129e+07
2.58028e+07
2.4247e+07
2.28117e+07
2.15983e+07
4.9585e+07
4.91236e+07
4.81665e+07
4.68255e+07
4.51859e+07
4.33348e+07
4.13354e+07
3.92521e+07
3.71352e+07
3.50225e+07
3.29592e+07
3.09476e+07
2.90522e+07
2.72246e+07
2.55441e+07
2.4013e+07
2.26266e+07
2.15254e+07
4.89196e+07
4.84583e+07
4.75061e+07
4.61744e+07
4.45466e+07
4.27101e+07
4.07265e+07
3.86626e+07
3.65646e+07
3.44761e+07
3.24331e+07
3.04523e+07
2.85795e+07
2.6788e+07
2.51598e+07
2.36511e+07
2.23699e+07
2.13052e+07
4.79698e+07
4.7506e+07
4.65633e+07
4.52451e+07
4.36352e+07
4.18185e+07
3.98596e+07
3.78212e+07
3.57534e+07
3.36946e+07
3.16858e+07
2.97392e+07
2.79046e+07
2.61597e+07
2.4581e+07
2.31418e+07
2.1915e+07
2.08584e+07
4.66741e+07
4.6209e+07
4.52818e+07
4.39799e+07
4.23962e+07
4.06051e+07
3.86818e+07
3.66769e+07
3.4652e+07
3.26321e+07
3.06717e+07
2.87707e+07
2.69875e+07
2.53004e+07
2.37787e+07
2.23997e+07
2.12313e+07
2.02033e+07
4.52313e+07
4.47678e+07
4.38569e+07
4.25728e+07
4.10178e+07
3.92564e+07
3.73716e+07
3.54057e+07
3.34261e+07
3.14524e+07
2.95418e+07
2.76946e+07
2.59629e+07
2.4339e+07
2.28658e+07
2.15499e+07
2.04142e+07
1.94544e+07
4.37156e+07
4.32556e+07
4.23609e+07
4.10967e+07
3.95712e+07
3.78422e+07
3.59969e+07
3.40733e+07
3.214e+07
3.02159e+07
2.83562e+07
2.65646e+07
2.48868e+07
2.33236e+07
2.19024e+07
2.06428e+07
1.9549e+07
1.86504e+07
4.17744e+07
4.13211e+07
4.04459e+07
3.92092e+07
3.77202e+07
3.60352e+07
3.42387e+07
3.23713e+07
3.04952e+07
2.8636e+07
2.68392e+07
2.51192e+07
2.35074e+07
2.2019e+07
2.06642e+07
1.94721e+07
1.84352e+07
1.75826e+07
3.93244e+07
3.88811e+07
3.80295e+07
3.68296e+07
3.53864e+07
3.37585e+07
3.20241e+07
3.02277e+07
2.84248e+07
2.66458e+07
2.49294e+07
2.32954e+07
2.17674e+07
2.03651e+07
1.90934e+07
1.79782e+07
1.70082e+07
1.62018e+07
3.62994e+07
3.5871e+07
3.50475e+07
3.38966e+07
3.25107e+07
3.09561e+07
2.9299e+07
2.75917e+07
2.58793e+07
2.41993e+07
2.25811e+07
2.10501e+07
1.96231e+07
1.83201e+07
1.7145e+07
1.61141e+07
1.52198e+07
1.44666e+07
3.26845e+07
3.22748e+07
3.14877e+07
3.03979e+07
2.90842e+07
2.76186e+07
2.60574e+07
2.44567e+07
2.28545e+07
2.1291e+07
1.97896e+07
1.83777e+07
1.70671e+07
1.58763e+07
1.48078e+07
1.38706e+07
1.30596e+07
1.23716e+07
2.85708e+07
2.81839e+07
2.74435e+07
2.64261e+07
2.52008e+07
2.38387e+07
2.23914e+07
2.09129e+07
1.94388e+07
1.80063e+07
1.66378e+07
1.53565e+07
1.41745e+07
1.31044e+07
1.21495e+07
1.13126e+07
1.05904e+07
9.97652e+06
2.4244e+07
2.38835e+07
2.31992e+07
2.22626e+07
2.11375e+07
1.98896e+07
1.8568e+07
1.72218e+07
1.58854e+07
1.45917e+07
1.33622e+07
1.22161e+07
1.11645e+07
1.02161e+07
9.37365e+06
8.63697e+06
8.00292e+06
7.46482e+06
2.0295e+07
1.99631e+07
1.93385e+07
1.84835e+07
1.74599e+07
1.63252e+07
1.51273e+07
1.39093e+07
1.27047e+07
1.15418e+07
1.04411e+07
9.4183e+06
8.48338e+06
7.64239e+06
6.89723e+06
6.2466e+06
5.68735e+06
5.21325e+06
1.77279e+07
1.74216e+07
1.68472e+07
1.60602e+07
1.51189e+07
1.40753e+07
1.29747e+07
1.18562e+07
1.07513e+07
9.68522e+06
8.67694e+06
7.73997e+06
6.88304e+06
6.11092e+06
5.42497e+06
4.82382e+06
4.30447e+06
3.86157e+06
1.7836e+07
1.75416e+07
1.69893e+07
1.6232e+07
1.53254e+07
1.43188e+07
1.32557e+07
1.21731e+07
1.11011e+07
1.00633e+07
9.07749e+06
8.15632e+06
7.30792e+06
6.53677e+06
5.84427e+06
5.22958e+06
4.6902e+06
4.22178e+06
2.07146e+07
2.04157e+07
1.98536e+07
1.90812e+07
1.81552e+07
1.71247e+07
1.60331e+07
1.4917e+07
1.38064e+07
1.27247e+07
1.16895e+07
1.07133e+07
9.80453e+06
8.96791e+06
8.20536e+06
7.5168e+06
6.90039e+06
6.35276e+06
2.52044e+07
2.48926e+07
2.43026e+07
2.34891e+07
2.25115e+07
2.14207e+07
2.02613e+07
1.90708e+07
1.78797e+07
1.67122e+07
1.55863e+07
1.45151e+07
1.35075e+07
1.25688e+07
1.17018e+07
1.0907e+07
1.01834e+07
9.52853e+06
3.0267e+07
2.99411e+07
2.93179e+07
2.84549e+07
2.7415e+07
2.6251e+07
2.50095e+07
2.37295e+07
2.24429e+07
2.11745e+07
1.99434e+07
1.87634e+07
1.76441e+07
1.65916e+07
1.56093e+07
1.46987e+07
1.38594e+07
1.30896e+07
3.51841e+07
3.48465e+07
3.41922e+07
3.32822e+07
3.2182e+07
3.09469e+07
2.96252e+07
2.82576e+07
2.68773e+07
2.55104e+07
2.41768e+07
2.28912e+07
2.16639e+07
2.05019e+07
1.94093e+07
1.83882e+07
1.74387e+07
1.656e+07
3.95362e+07
3.91903e+07
3.85106e+07
3.75609e+07
3.64091e+07
3.51122e+07
3.37204e+07
3.22759e+07
3.08132e+07
2.93593e+07
2.79353e+07
2.65566e+07
2.52343e+07
2.3976e+07
2.27865e+07
2.16685e+07
2.06227e+07
1.96487e+07
4.31343e+07
4.27832e+07
4.20843e+07
4.11036e+07
3.99107e+07
3.8564e+07
3.71152e+07
3.56078e+07
3.40774e+07
3.25521e+07
3.10537e+07
2.95982e+07
2.81977e+07
2.68602e+07
2.5591e+07
2.43934e+07
2.32684e+07
2.22161e+07
4.59445e+07
4.55906e+07
4.48778e+07
4.38742e+07
4.26503e+07
4.12655e+07
3.97727e+07
3.82167e+07
3.66339e+07
3.50531e+07
3.34967e+07
3.19817e+07
3.05202e+07
2.91211e+07
2.779e+07
2.65303e+07
2.53438e+07
2.42306e+07
4.80241e+07
4.76685e+07
4.69461e+07
4.59264e+07
4.46801e+07
4.32676e+07
4.17427e+07
4.0151e+07
3.85296e+07
3.69079e+07
3.53089e+07
3.375e+07
3.22437e+07
3.07992e+07
2.94224e+07
2.81171e+07
2.68853e+07
2.57272e+07
4.94739e+07
4.91175e+07
4.83884e+07
4.73578e+07
4.60962e+07
4.46648e+07
4.3118e+07
4.15018e+07
3.98537e+07
3.82038e+07
3.65753e+07
3.49858e+07
3.34485e+07
3.19725e+07
3.05641e+07
2.92272e+07
2.7964e+07
2.67747e+07
5.04095e+07
5.0052e+07
4.93188e+07
4.82815e+07
4.70102e+07
4.55667e+07
4.4006e+07
4.23741e+07
4.07091e+07
3.90411e+07
3.73937e+07
3.57848e+07
3.42275e+07
3.27312e+07
3.13024e+07
2.99453e+07
2.86618e+07
2.74526e+07
5.09389e+07
5.05811e+07
4.98464e+07
4.88059e+07
4.75292e+07
4.60792e+07
4.45106e+07
4.28698e+07
4.1195e+07
3.95165e+07
3.78582e+07
3.62381e+07
3.46693e+07
3.31614e+07
3.17209e+07
3.03521e+07
2.90572e+07
2.78371e+07
5.11612e+07
5.08049e+07
5.00682e+07
4.9026e+07
4.77468e+07
4.6294e+07
4.4722e+07
4.30773e+07
4.13982e+07
3.97153e+07
3.80523e+07
3.64273e+07
3.48536e+07
3.33408e+07
3.18953e+07
3.05215e+07
2.9222e+07
2.79973e+07
6.04908e+07
6.04317e+07
6.0301e+07
6.00952e+07
5.98123e+07
5.94518e+07
5.90136e+07
5.84986e+07
5.79077e+07
5.72426e+07
5.6505e+07
5.56971e+07
5.48212e+07
5.38799e+07
5.28758e+07
5.18121e+07
5.06919e+07
4.95187e+07
4.82963e+07
4.70285e+07
4.57192e+07
4.43726e+07
4.29928e+07
4.15843e+07
4.01515e+07
3.8699e+07
3.72313e+07
3.57528e+07
3.42679e+07
3.27813e+07
3.12976e+07
2.98213e+07
2.8357e+07
2.69093e+07
2.54828e+07
2.40821e+07
2.27118e+07
2.13765e+07
2.00812e+07
1.88304e+07
1.7629e+07
1.64819e+07
1.53942e+07
1.43708e+07
1.34169e+07
1.25377e+07
1.17386e+07
1.10249e+07
1.0402e+07
9.87545e+06
9.45057e+06
9.13286e+06
8.92771e+06
8.84037e+06
8.87596e+06
9.03927e+06
9.33488e+06
9.76703e+06
1.03396e+07
1.10558e+07
1.19184e+07
1.29295e+07
1.40907e+07
1.54026e+07
1.68652e+07
1.84776e+07
2.02383e+07
2.21448e+07
2.41939e+07
2.63819e+07
2.87041e+07
3.11553e+07
3.37295e+07
3.64204e+07
3.9221e+07
4.21243e+07
4.51226e+07
4.82082e+07
5.13732e+07
5.46098e+07
5.79098e+07
6.1265e+07
6.4667e+07
6.81074e+07
7.15774e+07
7.50683e+07
7.85707e+07
8.20754e+07
8.55722e+07
8.90508e+07
9.25002e+07
9.5909e+07
9.9265e+07
1.02556e+08
1.05769e+08
1.08892e+08
1.11912e+08
1.14817e+08
1.17595e+08
1.20236e+08
1.22731e+08
1.2507e+08
1.27249e+08
1.29259e+08
1.31099e+08
1.32765e+08
1.34258e+08
1.35581e+08
1.36739e+08
1.37738e+08
1.38591e+08
1.39307e+08
1.399e+08
1.40385e+08
1.40778e+08
1.41097e+08
1.41361e+08
1.41592e+08
1.41813e+08
1.42051e+08
1.42336e+08
1.427e+08
1.43181e+08
1.43817e+08
1.44654e+08
1.45737e+08
1.47121e+08
1.48861e+08
1.51018e+08
1.53655e+08
1.56835e+08
1.6062e+08
1.65072e+08
1.70248e+08
1.76201e+08
1.82976e+08
1.90609e+08
1.99128e+08
2.08548e+08
2.1887e+08
2.3009e+08
2.42184e+08
2.55125e+08
2.68871e+08
2.83381e+08
2.9859e+08
3.14451e+08
3.30891e+08
3.47849e+08
3.65249e+08
3.83017e+08
4.0107e+08
4.19317e+08
4.37666e+08
4.55994e+08
4.74162e+08
4.92007e+08
5.09358e+08
5.25982e+08
5.41646e+08
5.56049e+08
5.68893e+08
5.79835e+08
5.88554e+08
5.94712e+08
5.98014e+08
5.98199e+08
5.95085e+08
5.88546e+08
5.78609e+08
5.65353e+08
5.49047e+08
5.30009e+08
5.08732e+08
4.8569e+08
4.61409e+08
4.36254e+08
4.10663e+08
3.84846e+08
3.59129e+08
5.94149e+07
5.93593e+07
5.92341e+07
5.90342e+07
5.87578e+07
5.84049e+07
5.79761e+07
5.74724e+07
5.68951e+07
5.62456e+07
5.55256e+07
5.47372e+07
5.38824e+07
5.29638e+07
5.19838e+07
5.09453e+07
4.98512e+07
4.87051e+07
4.75103e+07
4.62706e+07
4.49898e+07
4.36721e+07
4.23214e+07
4.09422e+07
3.95386e+07
3.81153e+07
3.66765e+07
3.52264e+07
3.37695e+07
3.23103e+07
3.08532e+07
2.94027e+07
2.79634e+07
2.65398e+07
2.51364e+07
2.37577e+07
2.24083e+07
2.10927e+07
1.98157e+07
1.8582e+07
1.73965e+07
1.62639e+07
1.51891e+07
1.41774e+07
1.32337e+07
1.23634e+07
1.15716e+07
1.08638e+07
1.02453e+07
9.7217e+06
9.29838e+06
8.98078e+06
8.77425e+06
8.68405e+06
8.71527e+06
8.87281e+06
9.16123e+06
9.58475e+06
1.01471e+07
1.08518e+07
1.17014e+07
1.26979e+07
1.3843e+07
1.51373e+07
1.65807e+07
1.81724e+07
1.99108e+07
2.17935e+07
2.38173e+07
2.59783e+07
2.82721e+07
3.06932e+07
3.3236e+07
3.58939e+07
3.86602e+07
4.15277e+07
4.44889e+07
4.75362e+07
5.06618e+07
5.38576e+07
5.71156e+07
6.04277e+07
6.37856e+07
6.71809e+07
7.0605e+07
7.4049e+07
7.75039e+07
8.09601e+07
8.44079e+07
8.7837e+07
9.12365e+07
9.4595e+07
9.79009e+07
1.01142e+08
1.04305e+08
1.07379e+08
1.1035e+08
1.13207e+08
1.15939e+08
1.18536e+08
1.20987e+08
1.23287e+08
1.25426e+08
1.27401e+08
1.29208e+08
1.30844e+08
1.3231e+08
1.33609e+08
1.34744e+08
1.35726e+08
1.36562e+08
1.37264e+08
1.37847e+08
1.38322e+08
1.38707e+08
1.39018e+08
1.39275e+08
1.39499e+08
1.39712e+08
1.39941e+08
1.40214e+08
1.40565e+08
1.41028e+08
1.41644e+08
1.42453e+08
1.43505e+08
1.44849e+08
1.46543e+08
1.48645e+08
1.51217e+08
1.54323e+08
1.58024e+08
1.6238e+08
1.67446e+08
1.73277e+08
1.79915e+08
1.87399e+08
1.95754e+08
2.04996e+08
2.15127e+08
2.26141e+08
2.38017e+08
2.50729e+08
2.64237e+08
2.78496e+08
2.93447e+08
3.09038e+08
3.25209e+08
3.4189e+08
3.5901e+08
3.76497e+08
3.94269e+08
4.12239e+08
4.30316e+08
4.48378e+08
4.6629e+08
4.8389e+08
5.01014e+08
5.17435e+08
5.32916e+08
5.47174e+08
5.59912e+08
5.70791e+08
5.79493e+08
5.85692e+08
5.89096e+08
5.89448e+08
5.86571e+08
5.80333e+08
5.70747e+08
5.57886e+08
5.42007e+08
5.23416e+08
5.02595e+08
4.80003e+08
4.56151e+08
4.31406e+08
4.06196e+08
3.80732e+08
3.55253e+08
5.7348e+07
5.7295e+07
5.71753e+07
5.69838e+07
5.67191e+07
5.63816e+07
5.59723e+07
5.54925e+07
5.49429e+07
5.43249e+07
5.36398e+07
5.28895e+07
5.20757e+07
5.12006e+07
5.02665e+07
4.92758e+07
4.82315e+07
4.71367e+07
4.59944e+07
4.48084e+07
4.35822e+07
4.23197e+07
4.10249e+07
3.97018e+07
3.83545e+07
3.69868e+07
3.5603e+07
3.42071e+07
3.28035e+07
3.13965e+07
2.99905e+07
2.85897e+07
2.71986e+07
2.58215e+07
2.44627e+07
2.31266e+07
2.18176e+07
2.05402e+07
1.92989e+07
1.80985e+07
1.69436e+07
1.58391e+07
1.47897e+07
1.38006e+07
1.28769e+07
1.20236e+07
1.12462e+07
1.055e+07
9.94031e+06
9.42262e+06
9.00236e+06
8.68495e+06
8.47579e+06
8.38012e+06
8.40302e+06
8.54938e+06
8.82376e+06
9.23037e+06
9.77303e+06
1.0455e+07
1.1279e+07
1.2247e+07
1.33606e+07
1.46203e+07
1.60261e+07
1.75771e+07
1.92718e+07
2.11076e+07
2.30814e+07
2.51896e+07
2.74274e+07
2.97896e+07
3.22706e+07
3.48638e+07
3.75628e+07
4.03602e+07
4.3249e+07
4.62214e+07
4.92698e+07
5.23863e+07
5.55628e+07
5.87914e+07
6.20638e+07
6.53717e+07
6.87066e+07
7.20599e+07
7.54226e+07
7.87853e+07
8.21383e+07
8.54716e+07
8.87743e+07
9.20356e+07
9.52438e+07
9.83872e+07
1.01453e+08
1.0443e+08
1.07307e+08
1.10071e+08
1.12712e+08
1.15221e+08
1.17589e+08
1.19808e+08
1.21872e+08
1.23777e+08
1.2552e+08
1.27097e+08
1.28509e+08
1.2976e+08
1.30854e+08
1.31799e+08
1.32604e+08
1.3328e+08
1.33841e+08
1.34298e+08
1.34666e+08
1.34963e+08
1.35206e+08
1.35414e+08
1.35612e+08
1.35823e+08
1.36074e+08
1.36396e+08
1.36824e+08
1.37395e+08
1.38151e+08
1.39137e+08
1.40404e+08
1.42004e+08
1.43995e+08
1.4644e+08
1.49397e+08
1.52929e+08
1.57092e+08
1.61943e+08
1.6753e+08
1.73899e+08
1.81085e+08
1.89116e+08
1.98005e+08
2.07757e+08
2.18364e+08
2.29809e+08
2.42067e+08
2.55102e+08
2.68866e+08
2.83305e+08
2.98365e+08
3.13995e+08
3.30127e+08
3.4669e+08
3.63613e+08
3.80825e+08
3.98239e+08
4.15764e+08
4.33285e+08
4.50675e+08
4.67774e+08
4.84422e+08
5.00404e+08
5.1549e+08
5.29414e+08
5.41885e+08
5.52581e+08
5.61199e+08
5.67419e+08
5.7097e+08
5.716e+08
5.69137e+08
5.63446e+08
5.54514e+08
5.42414e+08
5.27372e+08
5.09674e+08
4.89775e+08
4.681e+08
4.45128e+08
4.21235e+08
3.96819e+08
3.72106e+08
3.47269e+08
5.44521e+07
5.44028e+07
5.42907e+07
5.41113e+07
5.38644e+07
5.35507e+07
5.3171e+07
5.2726e+07
5.22162e+07
5.16428e+07
5.10067e+07
5.03093e+07
4.95521e+07
4.87368e+07
4.78654e+07
4.69404e+07
4.59643e+07
4.49399e+07
4.38702e+07
4.27584e+07
4.16079e+07
4.04224e+07
3.92053e+07
3.79602e+07
3.66907e+07
3.54004e+07
3.40931e+07
3.27729e+07
3.14437e+07
3.01097e+07
2.87752e+07
2.7444e+07
2.61203e+07
2.48082e+07
2.35118e+07
2.22351e+07
2.09825e+07
1.97584e+07
1.85672e+07
1.74134e+07
1.63015e+07
1.52364e+07
1.42227e+07
1.32655e+07
1.23699e+07
1.15409e+07
1.07838e+07
1.01039e+07
9.50654e+06
8.99723e+06
8.58135e+06
8.26431e+06
8.05148e+06
7.94807e+06
7.95915e+06
8.08961e+06
8.34403e+06
8.7266e+06
9.24106e+06
9.89067e+06
1.06781e+07
1.16054e+07
1.2674e+07
1.38844e+07
1.52366e+07
1.67297e+07
1.83619e+07
2.01311e+07
2.20341e+07
2.40672e+07
2.62257e+07
2.85047e+07
3.08984e+07
3.34005e+07
3.60046e+07
3.87037e+07
4.14907e+07
4.43581e+07
4.72985e+07
5.0304e+07
5.33668e+07
5.6479e+07
5.96324e+07
6.2819e+07
6.60301e+07
6.92574e+07
7.24921e+07
7.5725e+07
7.89466e+07
8.21469e+07
8.53156e+07
8.84417e+07
9.15143e+07
9.45217e+07
9.74524e+07
1.00295e+08
1.03038e+08
1.05672e+08
1.08186e+08
1.10571e+08
1.1282e+08
1.14927e+08
1.16885e+08
1.18689e+08
1.20339e+08
1.21831e+08
1.23167e+08
1.2435e+08
1.25385e+08
1.26277e+08
1.27038e+08
1.27676e+08
1.28204e+08
1.28633e+08
1.28977e+08
1.29251e+08
1.29472e+08
1.29659e+08
1.29832e+08
1.30016e+08
1.30234e+08
1.30515e+08
1.30891e+08
1.31398e+08
1.32077e+08
1.32969e+08
1.34124e+08
1.35593e+08
1.37429e+08
1.39692e+08
1.4244e+08
1.45732e+08
1.49625e+08
1.54171e+08
1.59418e+08
1.65409e+08
1.72177e+08
1.79753e+08
1.88149e+08
1.97371e+08
2.07411e+08
2.18255e+08
2.2988e+08
2.42256e+08
2.55333e+08
2.69061e+08
2.83387e+08
2.98268e+08
3.13641e+08
3.29437e+08
3.45586e+08
3.62025e+08
3.78672e+08
3.95436e+08
4.12207e+08
4.28869e+08
4.45268e+08
4.61248e+08
4.76611e+08
4.91132e+08
5.04566e+08
5.16635e+08
5.27041e+08
5.35499e+08
5.41704e+08
5.45402e+08
5.46353e+08
5.44389e+08
5.39377e+08
5.31289e+08
5.20186e+08
5.06257e+08
4.89765e+08
4.71124e+08
4.50715e+08
4.28981e+08
4.06284e+08
3.83e+08
3.59367e+08
3.35536e+08
5.09277e+07
5.08837e+07
5.07817e+07
5.06187e+07
5.0395e+07
5.0111e+07
4.97671e+07
4.93637e+07
4.89014e+07
4.83807e+07
4.78024e+07
4.71674e+07
4.64771e+07
4.57329e+07
4.49366e+07
4.40903e+07
4.31961e+07
4.22565e+07
4.12742e+07
4.02521e+07
3.91932e+07
3.81005e+07
3.6977e+07
3.58259e+07
3.46502e+07
3.34534e+07
3.22391e+07
3.10109e+07
2.97726e+07
2.8528e+07
2.72807e+07
2.60346e+07
2.47932e+07
2.35605e+07
2.23401e+07
2.11362e+07
1.99527e+07
1.87938e+07
1.76638e+07
1.6567e+07
1.55079e+07
1.4491e+07
1.35212e+07
1.26032e+07
1.1742e+07
1.09426e+07
1.02104e+07
9.55046e+06
8.96824e+06
8.46914e+06
8.05855e+06
7.74184e+06
7.52437e+06
7.41135e+06
7.40781e+06
7.51859e+06
7.74822e+06
8.10085e+06
8.58018e+06
9.18947e+06
9.93135e+06
1.08079e+07
1.18203e+07
1.29694e+07
1.42548e+07
1.56758e+07
1.72305e+07
1.89169e+07
2.07319e+07
2.26717e+07
2.47319e+07
2.69075e+07
2.9193e+07
3.15823e+07
3.4069e+07
3.66465e+07
3.93076e+07
4.20453e+07
4.48523e+07
4.77208e+07
5.06433e+07
5.3612e+07
5.6619e+07
5.96562e+07
6.27154e+07
6.57881e+07
6.88658e+07
7.19398e+07
7.50004e+07
7.80381e+07
8.10429e+07
8.40043e+07
8.69115e+07
8.97535e+07
9.25193e+07
9.51982e+07
9.77799e+07
1.00255e+08
1.02614e+08
1.04848e+08
1.06952e+08
1.08919e+08
1.10746e+08
1.12428e+08
1.13962e+08
1.15349e+08
1.16591e+08
1.17689e+08
1.18649e+08
1.19476e+08
1.20179e+08
1.20768e+08
1.21253e+08
1.21646e+08
1.21957e+08
1.22201e+08
1.22394e+08
1.22552e+08
1.22693e+08
1.2284e+08
1.23015e+08
1.23244e+08
1.23556e+08
1.23986e+08
1.2457e+08
1.25348e+08
1.26366e+08
1.27674e+08
1.29322e+08
1.31365e+08
1.33857e+08
1.36858e+08
1.4042e+08
1.44595e+08
1.49428e+08
1.5496e+08
1.61224e+08
1.68249e+08
1.76049e+08
1.84631e+08
1.93989e+08
2.04109e+08
2.14972e+08
2.26552e+08
2.38804e+08
2.51681e+08
2.65131e+08
2.79116e+08
2.9358e+08
3.08462e+08
3.2369e+08
3.39207e+08
3.54935e+08
3.70787e+08
3.86658e+08
4.0244e+08
4.17992e+08
4.33162e+08
4.47767e+08
4.61599e+08
4.7442e+08
4.85977e+08
4.96003e+08
5.04226e+08
5.10367e+08
5.14185e+08
5.15453e+08
5.14018e+08
5.09753e+08
5.02614e+08
4.92644e+08
4.79998e+08
4.64915e+08
4.47756e+08
4.28857e+08
4.08625e+08
3.87387e+08
3.65496e+08
3.432e+08
3.2066e+08
4.69979e+07
4.69609e+07
4.68715e+07
4.67277e+07
4.653e+07
4.62787e+07
4.5974e+07
4.56161e+07
4.52052e+07
4.47417e+07
4.4226e+07
4.3659e+07
4.30417e+07
4.23753e+07
4.16613e+07
4.09013e+07
4.00972e+07
3.9251e+07
3.83651e+07
3.74419e+07
3.6484e+07
3.54937e+07
3.44736e+07
3.34264e+07
3.23548e+07
3.1262e+07
3.01512e+07
2.90257e+07
2.78888e+07
2.67438e+07
2.5594e+07
2.44428e+07
2.32935e+07
2.21495e+07
2.10144e+07
1.98921e+07
1.87862e+07
1.77007e+07
1.66396e+07
1.56071e+07
1.46075e+07
1.36451e+07
1.27246e+07
1.18507e+07
1.10283e+07
1.02624e+07
9.55801e+06
8.92055e+06
8.35528e+06
7.86755e+06
7.46275e+06
7.14622e+06
6.92331e+06
6.79919e+06
6.77884e+06
6.86703e+06
7.06826e+06
7.38665e+06
7.82582e+06
8.38898e+06
9.07871e+06
9.89701e+06
1.08452e+07
1.19239e+07
1.31328e+07
1.44712e+07
1.59374e+07
1.7529e+07
1.92432e+07
2.10763e+07
2.3024e+07
2.50816e+07
2.72434e+07
2.95037e+07
3.18564e+07
3.42949e+07
3.68125e+07
3.94021e+07
4.20568e+07
4.47691e+07
4.75315e+07
5.03366e+07
5.31766e+07
5.60436e+07
5.89297e+07
6.18267e+07
6.4726e+07
6.76192e+07
7.04971e+07
7.33502e+07
7.61691e+07
7.89438e+07
8.16643e+07
8.43196e+07
8.68996e+07
8.93946e+07
9.1795e+07
9.40919e+07
9.62769e+07
9.83427e+07
1.00283e+08
1.02094e+08
1.03772e+08
1.05315e+08
1.0672e+08
1.07989e+08
1.09123e+08
1.10124e+08
1.10997e+08
1.11748e+08
1.12384e+08
1.12915e+08
1.13348e+08
1.13695e+08
1.13966e+08
1.14173e+08
1.1433e+08
1.14451e+08
1.14553e+08
1.14655e+08
1.14779e+08
1.14947e+08
1.15187e+08
1.15529e+08
1.16007e+08
1.16658e+08
1.17523e+08
1.1865e+08
1.20085e+08
1.21882e+08
1.24089e+08
1.26764e+08
1.29958e+08
1.33717e+08
1.38088e+08
1.43108e+08
1.48811e+08
1.55225e+08
1.62365e+08
1.70236e+08
1.78839e+08
1.88161e+08
1.98183e+08
2.08884e+08
2.20226e+08
2.32169e+08
2.4466e+08
2.57664e+08
2.71134e+08
2.85012e+08
2.99232e+08
3.13737e+08
3.28456e+08
3.43303e+08
3.58182e+08
3.72992e+08
3.87603e+08
4.01869e+08
4.15623e+08
4.28674e+08
4.40793e+08
4.51753e+08
4.61317e+08
4.69234e+08
4.7525e+08
4.79134e+08
4.80684e+08
4.79765e+08
4.76247e+08
4.7008e+08
4.61286e+08
4.49994e+08
4.36415e+08
4.20856e+08
4.03608e+08
3.85038e+08
3.65432e+08
3.45115e+08
3.24338e+08
3.03289e+08
4.2888e+07
4.28584e+07
4.27826e+07
4.26591e+07
4.24885e+07
4.2271e+07
4.20066e+07
4.16952e+07
4.13369e+07
4.09317e+07
4.04802e+07
3.9983e+07
3.94408e+07
3.88544e+07
3.82251e+07
3.75542e+07
3.68431e+07
3.60937e+07
3.53076e+07
3.44869e+07
3.36334e+07
3.27491e+07
3.18361e+07
3.08968e+07
2.99335e+07
2.89491e+07
2.79464e+07
2.69281e+07
2.5897e+07
2.48561e+07
2.38083e+07
2.27565e+07
2.17036e+07
2.06529e+07
1.96076e+07
1.85713e+07
1.75472e+07
1.65392e+07
1.55508e+07
1.45862e+07
1.36494e+07
1.27445e+07
1.18762e+07
1.10489e+07
1.02675e+07
9.53676e+06
8.86193e+06
8.24814e+06
7.70065e+06
7.22482e+06
6.82596e+06
6.50939e+06
6.28039e+06
6.1441e+06
6.10548e+06
6.16925e+06
6.33984e+06
6.6213e+06
7.01722e+06
7.53071e+06
8.16431e+06
8.91994e+06
9.79888e+06
1.08017e+07
1.19283e+07
1.31777e+07
1.45483e+07
1.60378e+07
1.76433e+07
1.93613e+07
2.11876e+07
2.31176e+07
2.5146e+07
2.72671e+07
2.9475e+07
3.17634e+07
3.41258e+07
3.65555e+07
3.90456e+07
4.1589e+07
4.41784e+07
4.68067e+07
4.94662e+07
5.21493e+07
5.48485e+07
5.75555e+07
6.02623e+07
6.29605e+07
6.56412e+07
6.82956e+07
7.09144e+07
7.34883e+07
7.60077e+07
7.84629e+07
8.08441e+07
8.31426e+07
8.53495e+07
8.7457e+07
8.94574e+07
9.13445e+07
9.31129e+07
9.47589e+07
9.62798e+07
9.76744e+07
9.89423e+07
1.00084e+08
1.01102e+08
1.01998e+08
1.02777e+08
1.03444e+08
1.04006e+08
1.04471e+08
1.04845e+08
1.05139e+08
1.05362e+08
1.05525e+08
1.0564e+08
1.05719e+08
1.05776e+08
1.05828e+08
1.05894e+08
1.05996e+08
1.06157e+08
1.06406e+08
1.06772e+08
1.07288e+08
1.07992e+08
1.08927e+08
1.10138e+08
1.11674e+08
1.13583e+08
1.15916e+08
1.18722e+08
1.22045e+08
1.2593e+08
1.30413e+08
1.35529e+08
1.41303e+08
1.47751e+08
1.54882e+08
1.62696e+08
1.71187e+08
1.80336e+08
1.90127e+08
2.00526e+08
2.115e+08
2.23e+08
2.34996e+08
2.47439e+08
2.60281e+08
2.73459e+08
2.86919e+08
3.00591e+08
3.14394e+08
3.28242e+08
3.42037e+08
3.55661e+08
3.68972e+08
3.81816e+08
3.94023e+08
4.05379e+08
4.15678e+08
4.24707e+08
4.32247e+08
4.38066e+08
4.41948e+08
4.43717e+08
4.43254e+08
4.40431e+08
4.3519e+08
4.27539e+08
4.17592e+08
4.05521e+08
3.91589e+08
3.76039e+08
3.59198e+08
3.41305e+08
3.22661e+08
3.03508e+08
2.8407e+08
3.88111e+07
3.8789e+07
3.87265e+07
3.86232e+07
3.84794e+07
3.8295e+07
3.80698e+07
3.78037e+07
3.74965e+07
3.71486e+07
3.676e+07
3.63311e+07
3.58624e+07
3.53546e+07
3.48084e+07
3.42248e+07
3.36051e+07
3.29504e+07
3.22622e+07
3.15418e+07
3.07907e+07
3.00105e+07
2.9203e+07
2.83701e+07
2.75139e+07
2.66367e+07
2.57409e+07
2.48287e+07
2.39026e+07
2.2965e+07
2.20183e+07
2.10652e+07
2.01083e+07
1.91505e+07
1.81948e+07
1.72441e+07
1.63016e+07
1.53708e+07
1.44551e+07
1.35583e+07
1.26841e+07
1.18368e+07
1.10205e+07
1.02398e+07
9.49934e+06
8.80391e+06
8.15853e+06
7.56835e+06
7.03854e+06
6.57443e+06
6.18126e+06
5.86433e+06
5.62883e+06
5.47988e+06
5.42238e+06
5.46103e+06
5.60017e+06
5.84376e+06
6.19535e+06
6.65796e+06
7.23407e+06
7.92551e+06
8.73353e+06
9.65865e+06
1.07007e+07
1.18587e+07
1.31312e+07
1.45158e+07
1.60096e+07
1.76092e+07
1.93107e+07
2.11094e+07
2.30002e+07
2.49777e+07
2.70362e+07
2.91696e+07
3.13717e+07
3.36359e+07
3.59557e+07
3.83242e+07
4.07344e+07
4.31794e+07
4.56519e+07
4.81445e+07
5.06496e+07
5.31597e+07
5.56666e+07
5.81626e+07
6.0639e+07
6.30875e+07
6.54993e+07
6.78656e+07
7.01774e+07
7.24261e+07
7.46027e+07
7.66991e+07
7.87076e+07
8.06212e+07
8.2433e+07
8.41379e+07
8.57309e+07
8.72092e+07
8.85705e+07
8.98145e+07
9.0942e+07
9.19537e+07
9.28515e+07
9.36386e+07
9.43193e+07
9.48981e+07
9.53809e+07
9.57742e+07
9.60844e+07
9.63198e+07
9.64895e+07
9.66029e+07
9.66695e+07
9.67008e+07
9.67087e+07
9.67073e+07
9.67126e+07
9.67451e+07
9.6825e+07
9.69768e+07
9.7228e+07
9.7608e+07
9.815e+07
9.88935e+07
9.98801e+07
1.01155e+08
1.02765e+08
1.04755e+08
1.07171e+08
1.10057e+08
1.13454e+08
1.174e+08
1.21928e+08
1.27062e+08
1.3282e+08
1.39214e+08
1.46244e+08
1.53907e+08
1.6219e+08
1.71079e+08
1.80546e+08
1.9056e+08
2.01083e+08
2.12084e+08
2.23516e+08
2.35333e+08
2.4748e+08
2.59904e+08
2.72536e+08
2.85303e+08
2.98121e+08
3.109e+08
3.23525e+08
3.35862e+08
3.47776e+08
3.59106e+08
3.69659e+08
3.7925e+08
3.87688e+08
3.9478e+08
4.00325e+08
4.04124e+08
4.0603e+08
4.05928e+08
4.03704e+08
3.99293e+08
3.92697e+08
3.84014e+08
3.73382e+08
3.61027e+08
3.47145e+08
3.32019e+08
3.15848e+08
2.98902e+08
2.81413e+08
2.63633e+08
3.49545e+07
3.49392e+07
3.48889e+07
3.48043e+07
3.46854e+07
3.45319e+07
3.43434e+07
3.41198e+07
3.38608e+07
3.35665e+07
3.32369e+07
3.2872e+07
3.24722e+07
3.20379e+07
3.15696e+07
3.1068e+07
3.05339e+07
2.9968e+07
2.93714e+07
2.87452e+07
2.80904e+07
2.74082e+07
2.67001e+07
2.59676e+07
2.52124e+07
2.44365e+07
2.36416e+07
2.28296e+07
2.20026e+07
2.11625e+07
2.03115e+07
1.94519e+07
1.8586e+07
1.77163e+07
1.68454e+07
1.5976e+07
1.5111e+07
1.42535e+07
1.34068e+07
1.25743e+07
1.17597e+07
1.0967e+07
1.02002e+07
9.46378e+06
8.76221e+06
8.10026e+06
7.48283e+06
6.91497e+06
6.40181e+06
5.94858e+06
5.5605e+06
5.24277e+06
5.00057e+06
4.83897e+06
4.76282e+06
4.77673e+06
4.885e+06
5.09151e+06
5.3997e+06
5.81249e+06
6.33228e+06
6.96084e+06
7.69933e+06
8.54818e+06
9.50719e+06
1.05754e+07
1.17513e+07
1.30324e+07
1.44161e+07
1.58988e+07
1.74768e+07
1.91455e+07
2.09e+07
2.27352e+07
2.46453e+07
2.66246e+07
2.8667e+07
3.07663e+07
3.29161e+07
3.51099e+07
3.7341e+07
3.96025e+07
4.18876e+07
4.4189e+07
4.64996e+07
4.88119e+07
5.11183e+07
5.34111e+07
5.56825e+07
5.79243e+07
6.01285e+07
6.22867e+07
6.43909e+07
6.64331e+07
6.84053e+07
7.03003e+07
7.2111e+07
7.38313e+07
7.54555e+07
7.69792e+07
7.83983e+07
7.97101e+07
8.09138e+07
8.20092e+07
8.29974e+07
8.38796e+07
8.46577e+07
8.5335e+07
8.59155e+07
8.64036e+07
8.68046e+07
8.71236e+07
8.73661e+07
8.75391e+07
8.7651e+07
8.77101e+07
8.77245e+07
8.77039e+07
8.76586e+07
8.76005e+07
8.75439e+07
8.75061e+07
8.75046e+07
8.75608e+07
8.76993e+07
8.79466e+07
8.83325e+07
8.88927e+07
8.96649e+07
9.06904e+07
9.20115e+07
9.3671e+07
9.57117e+07
9.81761e+07
1.01104e+08
1.04533e+08
1.08493e+08
1.1301e+08
1.18105e+08
1.23788e+08
1.30066e+08
1.36937e+08
1.44391e+08
1.52419e+08
1.60996e+08
1.70095e+08
1.79685e+08
1.89737e+08
2.00207e+08
2.11047e+08
2.22207e+08
2.33635e+08
2.4527e+08
2.57038e+08
2.68861e+08
2.80647e+08
2.9229e+08
3.03664e+08
3.14647e+08
3.2509e+08
3.34822e+08
3.43675e+08
3.51476e+08
3.58059e+08
3.63253e+08
3.66881e+08
3.68821e+08
3.68967e+08
3.67217e+08
3.6351e+08
3.57845e+08
3.503e+08
3.40987e+08
3.301e+08
3.17797e+08
3.04311e+08
2.8981e+08
2.74528e+08
2.58685e+08
2.42556e+08
3.14699e+07
3.14603e+07
3.14207e+07
3.13526e+07
3.12559e+07
3.113e+07
3.09746e+07
3.07894e+07
3.05739e+07
3.0328e+07
3.00515e+07
2.97444e+07
2.94068e+07
2.90387e+07
2.86407e+07
2.82128e+07
2.77556e+07
2.72697e+07
2.67556e+07
2.62141e+07
2.5646e+07
2.50522e+07
2.44337e+07
2.37918e+07
2.31277e+07
2.2443e+07
2.17392e+07
2.10176e+07
2.028e+07
1.95281e+07
1.87636e+07
1.79885e+07
1.72047e+07
1.64145e+07
1.56202e+07
1.48243e+07
1.40292e+07
1.32379e+07
1.24535e+07
1.16791e+07
1.09184e+07
1.0175e+07
9.45306e+06
8.75661e+06
8.09017e+06
7.45839e+06
6.8661e+06
6.31826e+06
5.81992e+06
5.3762e+06
4.9923e+06
4.67337e+06
4.42452e+06
4.2508e+06
4.15699e+06
4.14761e+06
4.22689e+06
4.3986e+06
4.66607e+06
5.03213e+06
5.49904e+06
6.06851e+06
6.74158e+06
7.51862e+06
8.39933e+06
9.38272e+06
1.04671e+07
1.16503e+07
1.29294e+07
1.4301e+07
1.57612e+07
1.73058e+07
1.893e+07
2.06287e+07
2.23964e+07
2.42276e+07
2.61162e+07
2.80564e+07
3.00417e+07
3.20662e+07
3.41234e+07
3.62067e+07
3.83094e+07
4.04245e+07
4.25453e+07
4.46645e+07
4.6775e+07
4.88695e+07
5.09405e+07
5.29804e+07
5.49817e+07
5.69369e+07
5.88385e+07
6.06793e+07
6.24522e+07
6.41506e+07
6.57684e+07
6.73005e+07
6.8742e+07
7.00894e+07
7.13394e+07
7.24899e+07
7.35406e+07
7.44915e+07
7.53441e+07
7.60996e+07
7.67603e+07
7.73292e+07
7.78099e+07
7.82068e+07
7.85245e+07
7.8767e+07
7.89394e+07
7.90479e+07
7.90993e+07
7.91008e+07
7.90598e+07
7.8984e+07
7.8883e+07
7.87666e+07
7.86478e+07
7.85408e+07
7.84608e+07
7.84263e+07
7.84587e+07
7.85824e+07
7.88242e+07
7.92155e+07
7.97902e+07
8.0585e+07
8.16389e+07
8.29923e+07
8.46849e+07
8.67573e+07
8.92484e+07
9.21934e+07
9.56235e+07
9.95647e+07
1.04039e+08
1.09061e+08
1.14638e+08
1.20772e+08
1.27456e+08
1.34684e+08
1.42436e+08
1.50689e+08
1.59415e+08
1.68587e+08
1.78164e+08
1.88099e+08
1.9834e+08
2.0884e+08
2.19541e+08
2.30368e+08
2.41247e+08
2.52085e+08
2.62783e+08
2.73223e+08
2.83294e+08
2.92856e+08
3.01762e+08
3.09858e+08
3.16989e+08
3.23011e+08
3.27786e+08
3.31152e+08
3.33015e+08
3.33288e+08
3.31878e+08
3.28733e+08
3.23851e+08
3.1729e+08
3.09149e+08
2.99584e+08
2.88727e+08
2.76762e+08
2.63832e+08
2.50135e+08
2.35876e+08
2.21342e+08
2.84674e+07
2.8462e+07
2.8431e+07
2.83769e+07
2.82991e+07
2.8197e+07
2.80703e+07
2.79183e+07
2.77406e+07
2.75368e+07
2.73066e+07
2.70498e+07
2.67662e+07
2.64558e+07
2.61185e+07
2.57545e+07
2.5364e+07
2.49472e+07
2.45045e+07
2.40362e+07
2.35429e+07
2.30253e+07
2.24842e+07
2.19203e+07
2.13348e+07
2.07287e+07
2.01032e+07
1.94595e+07
1.87989e+07
1.81227e+07
1.74326e+07
1.67301e+07
1.6017e+07
1.52951e+07
1.45665e+07
1.38335e+07
1.30985e+07
1.23641e+07
1.16331e+07
1.09087e+07
1.01942e+07
9.49323e+06
8.8096e+06
8.14741e+06
7.51104e+06
6.90503e+06
6.33414e+06
5.80324e+06
5.31731e+06
4.88141e+06
4.50067e+06
4.1802e+06
3.92507e+06
3.74023e+06
3.63039e+06
3.59999e+06
3.65317e+06
3.79362e+06
4.02453e+06
4.3486e+06
4.76798e+06
5.28423e+06
5.89828e+06
6.61038e+06
7.42012e+06
8.32642e+06
9.32758e+06
1.04213e+07
1.16046e+07
1.28742e+07
1.42261e+07
1.56562e+07
1.71598e+07
1.87319e+07
2.03671e+07
2.206e+07
2.38048e+07
2.55956e+07
2.74265e+07
2.92913e+07
3.11841e+07
3.30984e+07
3.5028e+07
3.69661e+07
3.89061e+07
4.08413e+07
4.27648e+07
4.46698e+07
4.65493e+07
4.83961e+07
5.02035e+07
5.19644e+07
5.36722e+07
5.53202e+07
5.69022e+07
5.84125e+07
5.98458e+07
6.11977e+07
6.24647e+07
6.36434e+07
6.47317e+07
6.57278e+07
6.66318e+07
6.7444e+07
6.8166e+07
6.87992e+07
6.93457e+07
6.98085e+07
7.01912e+07
7.04975e+07
7.07312e+07