/*--------------------------------*- C++ -*----------------------------------*\
| =========                 |                                                 |
| \\      /  F ield         | OpenFOAM: The Open Source CFD Toolbox           |
|  \\    /   O peration     | Version:  dev                                   |
|   \\  /    A nd           | Web:      http://www.openfoam.org               |
|    \\/     M anipulation  |                                                 |
\*---------------------------------------------------------------------------*/
FoamFile
{
    version     2.0;
    format      ascii;
    class       volScalarField;
    object      rho;
    location    "9.12";
}
// * * * * * * * * * * * * * * * * * * * * * * * * * * * * * * * * * * * * * //

dimensions      [1 -3 0 0 0 0 0];

internalField   nonuniform List<scalar> 
12225
(
1.04769
1.05422
1.05683
1.05944
1.06266
1.0652
1.06778
1.07071
1.07253
1.07655
1.07697
1.08357
1.08131
1.09205
1.08919
1.0931
1.10273
1.10253
1.05195
1.05939
1.06222
1.06677
1.07062
1.0765
1.07913
1.08638
1.08591
1.09644
1.09033
1.10746
1.09452
1.11511
1.10848
1.11418
1.12022
1.11519
1.05176
1.05925
1.06152
1.06681
1.07031
1.07689
1.08023
1.08812
1.09003
1.0991
1.09895
1.10841
1.10738
1.11564
1.11519
1.12567
1.12462
1.13213
1.05169
1.05906
1.06227
1.06523
1.07112
1.07358
1.08115
1.08291
1.09205
1.09214
1.10208
1.10123
1.1107
1.11034
1.11746
1.11987
1.1264
1.12882
1.05416
1.05733
1.06439
1.06329
1.07282
1.07135
1.0816
1.07998
1.09092
1.08923
1.09981
1.09927
1.10805
1.10957
1.11613
1.11874
1.1246
1.12862
1.05652
1.05709
1.06587
1.06352
1.07374
1.07182
1.08167
1.08024
1.09035
1.08932
1.0991
1.09893
1.1078
1.10833
1.11582
1.11751
1.12422
1.12747
1.05783
1.05839
1.06661
1.0651
1.07444
1.07361
1.08211
1.08191
1.09042
1.0906
1.09878
1.09988
1.10717
1.10862
1.1149
1.1173
1.12341
1.12669
1.05887
1.05999
1.06751
1.06626
1.075
1.07461
1.08255
1.08288
1.09063
1.0914
1.09864
1.10024
1.10646
1.10839
1.11376
1.11673
1.12184
1.12521
1.06014
1.06164
1.06879
1.06766
1.07591
1.07573
1.08304
1.08379
1.09077
1.09219
1.09845
1.10055
1.10559
1.10815
1.11254
1.11589
1.11979
1.12324
1.0624
1.06374
1.06999
1.06917
1.07665
1.07691
1.08328
1.08441
1.09038
1.09229
1.09752
1.09996
1.10404
1.10706
1.11079
1.11422
1.11747
1.12064
1.0647
1.06695
1.07198
1.07161
1.07755
1.07839
1.08339
1.08507
1.0898
1.09217
1.09628
1.09898
1.10215
1.1053
1.10845
1.1117
1.11441
1.11706
1.06769
1.07054
1.07391
1.07423
1.07866
1.08008
1.08371
1.08578
1.08921
1.09171
1.09485
1.09758
1.10023
1.1032
1.10589
1.10886
1.11107
1.11322
1.07206
1.07553
1.07757
1.0782
1.08111
1.08253
1.08491
1.08686
1.08915
1.09132
1.09358
1.09609
1.09817
1.10069
1.10286
1.10535
1.10706
1.10878
1.07842
1.08161
1.08235
1.08283
1.08449
1.08557
1.08703
1.08849
1.08992
1.09151
1.09299
1.09508
1.09656
1.09845
1.10001
1.10188
1.10295
1.1042
1.08692
1.08964
1.08933
1.08934
1.08986
1.09031
1.09085
1.09149
1.0921
1.09294
1.09367
1.09491
1.09579
1.09682
1.0977
1.09879
1.09926
1.10011
1.0983
1.10049
1.09918
1.09844
1.09793
1.09756
1.09712
1.09684
1.09664
1.0967
1.09675
1.09709
1.09732
1.09768
1.09792
1.09829
1.09834
1.0988
1.11324
1.1144
1.11249
1.11109
1.10984
1.10868
1.10748
1.1065
1.10569
1.10499
1.10433
1.10387
1.10334
1.10302
1.10264
1.1024
1.10238
1.10243
1.13079
1.13146
1.12935
1.1276
1.1261
1.12447
1.12277
1.12129
1.12022
1.11912
1.11822
1.11744
1.11674
1.11614
1.11543
1.11511
1.11533
1.11485
1.1481
1.14856
1.14686
1.14539
1.14433
1.14288
1.14129
1.13982
1.139
1.1381
1.13739
1.13664
1.13605
1.13509
1.13433
1.13427
1.13462
1.13415
1.16327
1.1641
1.16302
1.16201
1.16154
1.16079
1.15997
1.15905
1.15859
1.15812
1.15799
1.15768
1.15739
1.15648
1.15598
1.1558
1.15633
1.15642
1.17611
1.17748
1.17714
1.17693
1.17728
1.17714
1.17719
1.17699
1.17682
1.17672
1.17716
1.17712
1.17747
1.17732
1.17735
1.17736
1.17795
1.17843
1.18568
1.18799
1.18875
1.18954
1.19078
1.19136
1.19224
1.1929
1.1935
1.19405
1.19469
1.19493
1.19593
1.19638
1.19689
1.19717
1.19787
1.19849
1.19405
1.19687
1.19838
1.19992
1.20178
1.20312
1.20464
1.2057
1.20696
1.20821
1.20922
1.2101
1.21124
1.21188
1.21285
1.21357
1.21435
1.21507
1.19971
1.20315
1.20546
1.20774
1.21012
1.21217
1.21429
1.21596
1.21758
1.21913
1.22063
1.22187
1.22311
1.22422
1.2254
1.22619
1.22718
1.22792
1.20445
1.20844
1.21107
1.21354
1.21616
1.21862
1.22105
1.22334
1.22551
1.22737
1.22902
1.23046
1.23189
1.23317
1.23441
1.2355
1.23661
1.23762
1.20739
1.21183
1.21507
1.21817
1.22124
1.22405
1.2267
1.22902
1.23121
1.23325
1.23507
1.23679
1.23839
1.23989
1.24134
1.24257
1.24386
1.24498
1.20973
1.21429
1.21777
1.22094
1.2241
1.22695
1.22971
1.23222
1.23474
1.2371
1.23938
1.24153
1.24364
1.24548
1.24725
1.24882
1.25037
1.25182
1.21119
1.2159
1.2195
1.22294
1.22649
1.22974
1.23298
1.23589
1.23887
1.24161
1.24445
1.24697
1.24952
1.25159
1.2537
1.25543
1.2573
1.25896
1.21226
1.21738
1.22107
1.22466
1.22841
1.232
1.23547
1.23864
1.24169
1.24429
1.24673
1.24871
1.25055
1.25197
1.25358
1.2547
1.25653
1.25712
1.21233
1.21595
1.21817
1.22026
1.22233
1.22409
1.2255
1.22662
1.22751
1.22813
1.22871
1.22909
1.2294
1.2297
1.22999
1.23021
1.23054
1.23026
1.28632
1.34793
1.36051
1.35283
1.34862
1.34334
1.33683
1.33057
1.32561
1.32099
1.31649
1.31197
1.30785
1.30367
1.30024
1.29635
1.29212
1.28869
1.28485
1.28116
1.27816
1.27562
1.27284
1.26995
1.26713
1.26416
1.26078
1.25709
1.25379
1.24831
1.24551
1.23897
1.23223
1.22666
1.21844
1.21308
1.21369
1.21497
1.21813
1.22269
1.2248
1.22685
1.22261
1.21967
1.21468
1.20755
1.19339
1.17484
1.15856
1.15888
1.18013
1.18868
1.16757
1.15221
1.14766
1.13992
1.11498
1.10535
1.11978
1.12627
1.12788
1.12914
1.12939
1.12943
1.12916
1.1288
1.12831
1.12773
1.12709
1.12643
1.12565
1.12483
1.12395
1.123
1.1221
1.1211
1.12018
1.11917
1.11827
1.11717
1.1162
1.11518
1.11393
1.11286
1.11203
1.11122
1.11053
1.10956
1.10867
1.10789
1.10738
1.10687
1.10637
1.10639
1.10644
1.10642
1.10661
1.10717
1.10757
1.10844
1.10791
1.10758
1.10669
1.10582
1.10559
1.10553
1.10501
1.10287
1.10068
1.09948
1.09984
1.1022
1.10599
1.11183
1.11761
1.12052
1.12326
1.12832
1.13368
1.13836
1.14155
1.14365
1.14237
1.13728
1.13052
1.12576
1.12332
1.12066
1.11503
1.11106
1.10815
1.10996
1.11349
1.11321
1.11178
1.11348
1.12045
1.12592
1.12797
1.13733
1.14431
1.14151
1.13935
1.13714
1.12999
1.13428
1.1294
1.13328
1.13088
1.13362
1.13455
1.13343
1.13379
1.13278
1.13161
1.13191
1.12914
1.1277
1.12595
1.12645
1.12487
1.1304
1.13439
1.14586
1.14003
1.14162
1.12127
1.10469
1.10918
1.11932
1.15864
1.15877
1.11221
1.09496
1.07331
1.06185
1.04989
1.04381
1.04665
1.0312
1.27311
1.3359
1.37836
1.38781
1.37333
1.34656
1.32262
1.30388
1.29265
1.2844
1.27713
1.26918
1.26316
1.25717
1.25368
1.24951
1.24617
1.24357
1.24034
1.23672
1.23461
1.23546
1.23612
1.23669
1.23919
1.24047
1.2423
1.24467
1.24494
1.24617
1.24488
1.24587
1.23852
1.23786
1.22983
1.21136
1.24152
1.26735
1.27263
1.28107
1.28383
1.2786
1.25743
1.24691
1.24233
1.23819
1.24329
1.24617
1.23012
1.22175
1.21621
1.22717
1.18143
1.15015
1.16227
1.157
1.15886
1.15986
1.16483
1.16387
1.16481
1.16286
1.16267
1.16066
1.16005
1.1583
1.15768
1.1561
1.15545
1.15421
1.15372
1.15284
1.15236
1.1518
1.1514
1.15103
1.15111
1.15099
1.15128
1.1513
1.15156
1.15156
1.15147
1.15103
1.15093
1.1519
1.15269
1.15387
1.15477
1.1564
1.15733
1.15998
1.16136
1.16347
1.16611
1.16859
1.17161
1.17382
1.17679
1.178
1.17911
1.17826
1.17627
1.17273
1.16855
1.16408
1.1599
1.15204
1.14382
1.14248
1.14479
1.14992
1.16058
1.17472
1.18916
1.20012
1.20312
1.20374
1.20436
1.20692
1.21195
1.22546
1.23205
1.22181
1.17689
1.13898
1.12335
1.11366
1.0891
1.07778
1.0724
1.07815
1.08165
1.0798
1.0776
1.07382
1.08193
1.08441
1.08475
1.10377
1.15774
1.18956
1.21666
1.22062
1.1857
1.18634
1.16419
1.17348
1.16661
1.16497
1.16595
1.14837
1.14475
1.14497
1.13769
1.14572
1.1459
1.15233
1.1639
1.17554
1.17415
1.18198
1.19921
1.25433
1.26764
1.29034
1.23869
1.21071
1.24478
1.28146
1.3266
1.32365
1.28589
1.2529
1.21547
1.19773
1.17528
1.14967
1.16628
1.11823
1.25845
1.3033
1.3388
1.33692
1.30643
1.27054
1.2448
1.22848
1.22051
1.2158
1.21258
1.20862
1.20587
1.20324
1.20113
1.19928
1.19743
1.19684
1.19567
1.19528
1.19423
1.19553
1.19622
1.19791
1.20124
1.20606
1.21093
1.21702
1.22191
1.23035
1.23316
1.23906
1.24047
1.24168
1.24017
1.2262
1.21882
1.21704
1.23416
1.25135
1.26285
1.25459
1.22712
1.21158
1.19768
1.19215
1.19449
1.19962
1.21713
1.23951
1.19104
1.1639
1.17118
1.16512
1.16762
1.16332
1.16321
1.15868
1.15683
1.151
1.14851
1.14259
1.13993
1.13448
1.13232
1.12735
1.12576
1.12142
1.12042
1.11693
1.11608
1.11369
1.11264
1.11105
1.10986
1.10841
1.10726
1.10668
1.10567
1.1058
1.10473
1.10502
1.10474
1.10388
1.10223
1.10238
1.10247
1.1043
1.10588
1.10887
1.10938
1.11482
1.11746
1.12096
1.12538
1.13098
1.13863
1.14315
1.15303
1.15587
1.1663
1.17166
1.18008
1.18848
1.19133
1.18106
1.16707
1.15976
1.15277
1.14951
1.14862
1.14554
1.14599
1.1517
1.16713
1.19499
1.22217
1.21955
1.17952
1.12737
1.11762
1.1431
1.17685
1.222
1.2341
1.15758
1.08018
1.05829
1.04583
1.04611
1.06088
1.08286
1.08497
1.08482
1.09132
1.08739
1.09792
1.07681
1.04817
1.02614
1.06533
1.11244
1.206
1.24646
1.22327
1.19818
1.18494
1.19367
1.19462
1.1416
1.13023
1.09774
1.08969
1.09283
1.08442
1.09348
1.08923
1.10273
1.10868
1.12212
1.1595
1.1813
1.1846
1.24302
1.30296
1.34531
1.29217
1.27196
1.30905
1.35283
1.31542
1.25332
1.29181
1.28209
1.27624
1.25676
1.25167
1.22461
1.25106
1.19009
1.24472
1.26833
1.28276
1.27102
1.2459
1.22546
1.21464
1.21123
1.21171
1.21231
1.21267
1.21265
1.21319
1.21378
1.21407
1.21493
1.21458
1.21492
1.21538
1.21523
1.21417
1.21464
1.21387
1.2153
1.21844
1.22314
1.2284
1.23586
1.24279
1.25108
1.25509
1.25947
1.26042
1.2624
1.26263
1.26192
1.24627
1.22554
1.22554
1.21673
1.21899
1.23072
1.19448
1.20656
1.18169
1.14414
1.15581
1.19841
1.21631
1.19286
1.17152
1.17326
1.17038
1.16679
1.163
1.15769
1.15383
1.14751
1.14332
1.1373
1.13357
1.12802
1.12465
1.12048
1.11725
1.11402
1.11099
1.1087
1.10541
1.10438
1.10126
1.09969
1.09788
1.09575
1.0948
1.09285
1.09095
1.08938
1.08754
1.08656
1.08413
1.0823
1.08063
1.07907
1.07756
1.07652
1.07453
1.07324
1.07208
1.07326
1.0713
1.07394
1.07332
1.07521
1.07645
1.07795
1.08304
1.08417
1.09368
1.09477
1.10489
1.11094
1.11777
1.12834
1.14641
1.17218
1.18966
1.18839
1.16937
1.14397
1.13425
1.13548
1.14042
1.15266
1.15153
1.14126
1.16155
1.18053
1.17615
1.11765
1.05503
1.03646
1.04717
1.07645
1.13469
1.19073
1.19363
1.1613
1.12248
1.09294
1.09051
1.12629
1.14221
1.14217
1.16155
1.16518
1.19207
1.17872
1.13093
1.05294
1.01476
1.01605
1.14644
1.21343
1.25105
1.18725
1.20723
1.16974
1.21194
1.13955
1.09969
1.07465
1.07289
1.0805
1.08226
1.09388
1.08343
1.09081
1.08965
1.07961
1.10321
1.12941
1.15898
1.18102
1.26291
1.31644
1.30001
1.3115
1.33142
1.37605
1.37071
1.2966
1.28814
1.26794
1.28083
1.26439
1.28771
1.26707
1.29973
1.25872
1.23359
1.24288
1.24538
1.2348
1.22135
1.21128
1.2065
1.20451
1.20429
1.20365
1.20324
1.20411
1.20645
1.20886
1.21159
1.21328
1.21491
1.21653
1.21626
1.21622
1.2164
1.21532
1.21446
1.21423
1.21342
1.21475
1.21728
1.22356
1.23277
1.23715
1.23941
1.24932
1.25075
1.25272
1.25438
1.26396
1.26408
1.24354
1.24076
1.2127
1.22586
1.22283
1.18751
1.18932
1.18287
1.18632
1.19651
1.20669
1.19382
1.17751
1.17251
1.16844
1.16161
1.15683
1.14954
1.14452
1.13827
1.13305
1.12805
1.12348
1.11941
1.11594
1.11245
1.11035
1.10669
1.10607
1.10183
1.10205
1.09808
1.09741
1.09541
1.09264
1.09058
1.08923
1.08602
1.08483
1.08305
1.07952
1.07802
1.07648
1.07389
1.07188
1.0706
1.0682
1.06639
1.06526
1.0634
1.06231
1.06136
1.06213
1.06001
1.06322
1.06231
1.06294
1.06587
1.06509
1.0704
1.06819
1.07302
1.07242
1.07452
1.07639
1.07789
1.08088
1.08749
1.09925
1.11653
1.14354
1.17259
1.18859
1.18481
1.16065
1.13522
1.1439
1.14963
1.13007
1.1354
1.14361
1.141
1.12345
1.09087
1.07198
1.08733
1.1075
1.07022
1.05487
1.0879
1.14117
1.15651
1.15785
1.16787
1.20225
1.18854
1.11821
1.08094
1.08097
1.15904
1.2054
1.15353
1.0941
0.996468
0.927121
1.05519
1.13842
1.25746
1.17649
1.23044
1.15113
1.19431
1.13437
1.08324
1.06489
1.07166
1.07534
1.08777
1.09453
1.09621
1.09715
1.09624
1.08107
1.09538
1.07934
1.13279
1.13549
1.20718
1.26346
1.28054
1.32965
1.33845
1.37544
1.37226
1.31978
1.2849
1.24577
1.28054
1.25776
1.31048
1.30136
1.32177
1.3105
1.22437
1.22472
1.22114
1.21172
1.2018
1.19415
1.19007
1.18752
1.18682
1.18776
1.19235
1.19958
1.20641
1.21156
1.21457
1.21629
1.21772
1.21789
1.21622
1.21447
1.21316
1.21214
1.21099
1.20841
1.20618
1.20391
1.20237
1.20075
1.2107
1.22
1.22429
1.23754
1.2497
1.26206
1.25783
1.26867
1.26676
1.25878
1.2424
1.2232
1.22232
1.1974
1.19909
1.19711
1.19821
1.19947
1.19437
1.19041
1.17544
1.16848
1.1629
1.15696
1.15068
1.14451
1.13893
1.13467
1.12878
1.12636
1.12197
1.1204
1.11756
1.11698
1.11506
1.11508
1.11325
1.1129
1.11135
1.10942
1.10989
1.1056
1.10595
1.10415
1.09952
1.09982
1.09554
1.09293
1.09028
1.08696
1.08244
1.08053
1.07677
1.07327
1.07034
1.06743
1.0648
1.06136
1.05854
1.05488
1.05316
1.05113
1.04819
1.04685
1.04707
1.04445
1.04788
1.04681
1.05042
1.05176
1.05445
1.05729
1.0601
1.0631
1.06654
1.06938
1.07088
1.08293
1.08559
1.08795
1.1083
1.13406
1.16003
1.1804
1.17642
1.17701
1.17321
1.15627
1.16037
1.16362
1.15024
1.1281
1.11145
1.13489
1.12749
1.09095
1.12326
1.16287
1.12476
1.10377
1.07656
1.06788
1.11418
1.15572
1.1626
1.06434
0.978384
0.963714
1.02082
1.17127
1.12158
1.1125
1.02853
0.911458
0.985086
1.0516
1.21934
1.16976
1.23241
1.15027
1.16975
1.11702
1.07474
1.04678
1.06697
1.07087
1.08408
1.08651
1.09214
1.09242
1.10213
1.0697
1.10481
1.06463
1.10408
1.10371
1.15384
1.20718
1.24552
1.32964
1.33951
1.37592
1.36185
1.31514
1.25314
1.22313
1.29041
1.25977
1.29575
1.32523
1.34972
1.35361
1.21594
1.21012
1.20218
1.192
1.1832
1.17858
1.1762
1.17508
1.17824
1.18618
1.19621
1.20304
1.20828
1.21225
1.21401
1.21461
1.21464
1.2129
1.21116
1.21181
1.21251
1.21381
1.21455
1.21247
1.2132
1.20954
1.2051
1.19693
1.19033
1.19017
1.19057
1.19525
1.21621
1.245
1.25558
1.27165
1.26636
1.25878
1.22591
1.22348
1.20046
1.1932
1.20233
1.1971
1.19667
1.1918
1.18341
1.17602
1.16657
1.16536
1.15458
1.14975
1.14351
1.13946
1.13354
1.13053
1.12748
1.1266
1.12368
1.12491
1.12339
1.12468
1.12351
1.12306
1.12281
1.11972
1.12136
1.11479
1.118
1.1125
1.11155
1.11108
1.10775
1.10758
1.1053
1.10494
1.10176
1.10044
1.09794
1.0946
1.09151
1.08855
1.08531
1.08132
1.08033
1.07558
1.07351
1.06909
1.06665
1.06264
1.06035
1.05652
1.05267
1.05124
1.04847
1.04716
1.04623
1.04536
1.04581
1.04636
1.04607
1.04864
1.04874
1.05383
1.05313
1.05678
1.06631
1.07035
1.07474
1.08765
1.11346
1.14011
1.14708
1.16074
1.18569
1.18834
1.17717
1.17316
1.17304
1.17716
1.17223
1.12465
1.13466
1.19324
1.16099
1.09928
1.08072
1.10999
1.10942
1.06512
1.08042
1.07734
1.10086
1.04735
1.00218
1.01936
0.991111
1.0805
1.0533
1.06862
1.05552
0.937499
0.967176
1.02014
1.16489
1.15849
1.22726
1.15632
1.15642
1.09502
1.069
1.05341
1.05948
1.06693
1.08895
1.09534
1.11008
1.08796
1.12391
1.07199
1.10201
1.06397
1.07972
1.08872
1.12295
1.15979
1.19834
1.3088
1.32916
1.37425
1.35797
1.30373
1.2335
1.22792
1.29839
1.27568
1.29411
1.34608
1.35812
1.3645
1.20768
1.19722
1.18598
1.17565
1.16988
1.16853
1.16752
1.16855
1.17631
1.18455
1.18822
1.19042
1.19667
1.20089
1.20134
1.20139
1.20176
1.20205
1.20235
1.20348
1.2046
1.20497
1.20501
1.20352
1.2051
1.20617
1.2091
1.20993
1.20314
1.19377
1.18418
1.17521
1.18896
1.22268
1.25004
1.2714
1.26789
1.24872
1.21955
1.21328
1.18592
1.19578
1.19503
1.1896
1.18738
1.17664
1.17343
1.16699
1.15712
1.15354
1.14425
1.14415
1.13496
1.13402
1.13171
1.13153
1.12866
1.13004
1.12981
1.13051
1.12838
1.12824
1.12632
1.1229
1.12253
1.11532
1.11749
1.10965
1.11086
1.1065
1.10503
1.10345
1.10114
1.10037
1.09949
1.09896
1.09926
1.09853
1.0991
1.09829
1.09591
1.09308
1.0917
1.08624
1.0853
1.08152
1.07951
1.07529
1.07143
1.06842
1.06604
1.06274
1.05968
1.05573
1.05625
1.05324
1.05133
1.04996
1.04995
1.04959
1.04892
1.04855
1.04874
1.05262
1.0473
1.04906
1.05538
1.05592
1.05561
1.06835
1.08642
1.09385
1.09813
1.11746
1.14052
1.15196
1.1718
1.17062
1.16902
1.15674
1.15235
1.18058
1.16757
1.10957
1.10904
1.14285
1.13337
1.09301
1.08375
1.0719
1.08732
1.06464
1.06482
1.05805
1.07466
1.13821
1.10111
1.09982
1.08544
1.08245
1.10013
0.976603
0.961716
1.00859
1.12362
1.13782
1.21721
1.17011
1.15349
1.09003
1.05715
1.06058
1.06146
1.06955
1.09656
1.08758
1.12438
1.07452
1.12572
1.08089
1.10387
1.07717
1.07339
1.07879
1.10418
1.12359
1.15288
1.26642
1.29536
1.3764
1.35022
1.27994
1.22574
1.27395
1.30766
1.2909
1.3295
1.41046
1.3105
1.38279
1.19966
1.18653
1.175
1.16826
1.16712
1.16576
1.16213
1.16353
1.1711
1.17664
1.18194
1.18774
1.19255
1.19377
1.19374
1.19544
1.19812
1.20112
1.20339
1.20601
1.20773
1.20724
1.2042
1.19931
1.19423
1.18954
1.19126
1.19645
1.19691
1.19324
1.18081
1.16541
1.18311
1.22339
1.25384
1.2686
1.25431
1.22631
1.20838
1.19411
1.18432
1.1984
1.18584
1.18148
1.17942
1.17125
1.16448
1.15444
1.15204
1.14939
1.14044
1.1405
1.13552
1.14064
1.13418
1.13569
1.13642
1.13487
1.13173
1.13083
1.12857
1.12389
1.12121
1.11519
1.11518
1.10847
1.10896
1.10336
1.10381
1.10096
1.10021
1.0992
1.09781
1.09604
1.0953
1.09368
1.09212
1.09232
1.09284
1.09608
1.09679
1.09623
1.09611
1.09383
1.09111
1.08907
1.08696
1.08486
1.08202
1.07412
1.07282
1.06821
1.0641
1.05915
1.05945
1.05662
1.05595
1.0525
1.05428
1.05384
1.04813
1.05392
1.05245
1.05046
1.05352
1.05719
1.05127
1.05454
1.05653
1.04948
1.05884
1.07582
1.07974
1.07514
1.10112
1.10671
1.12624
1.13653
1.13666
1.1417
1.13761
1.12269
1.12899
1.14214
1.12739
1.08816
1.07938
1.08452
1.08919
1.09718
1.1056
1.06756
1.01918
1.04991
1.11571
1.12403
1.06725
1.06056
1.09573
1.09768
1.13002
1.02552
0.983374
1.00484
1.09718
1.10979
1.19827
1.18644
1.15731
1.10863
1.05485
1.06713
1.07302
1.06682
1.10459
1.07663
1.13709
1.077
1.12399
1.0862
1.09745
1.08066
1.06711
1.07246
1.09038
1.0974
1.13196
1.20495
1.23767
1.36662
1.32873
1.24513
1.24506
1.33785
1.29693
1.36549
1.31942
1.40002
1.34733
1.42729
1.19211
1.17868
1.1694
1.16598
1.16373
1.1586
1.15595
1.1615
1.17181
1.17838
1.1803
1.178
1.18017
1.1845
1.18787
1.19288
1.19679
1.1992
1.20124
1.20528
1.20675
1.20594
1.20336
1.20098
1.19746
1.19232
1.18942
1.1874
1.18784
1.19021
1.17743
1.16378
1.19278
1.2386
1.26568
1.26651
1.23953
1.21472
1.202
1.18692
1.18633
1.18765
1.1758
1.1765
1.16318
1.15548
1.15651
1.15055
1.14634
1.14003
1.13984
1.14541
1.13711
1.13851
1.13559
1.13664
1.12947
1.12969
1.1302
1.12359
1.12173
1.1185
1.11874
1.11312
1.11302
1.10986
1.11026
1.10666
1.10638
1.10494
1.10451
1.10397
1.10374
1.10419
1.10223
1.10168
1.09802
1.09307
1.08993
1.08972
1.08961
1.09357
1.09322
1.09598
1.09403
1.0972
1.09621
1.09308
1.09377
1.08866
1.08037
1.07572
1.07277
1.06452
1.06197
1.05851
1.05662
1.05912
1.05514
1.05534
1.05813
1.05638
1.05323
1.05781
1.05487
1.05541
1.05788
1.05694
1.06311
1.0613
1.0617
1.05839
1.07175
1.06306
1.07713
1.08005
1.08975
1.11038
1.10321
1.09354
1.10735
1.11553
1.11052
1.09152
1.09825
1.10747
1.10316
1.0893
1.05021
1.05943
1.10497
1.10176
1.04653
1.04322
1.09552
1.09055
1.05843
1.02585
1.06971
1.08384
1.11536
1.05131
1.01668
1.00537
1.08179
1.08499
1.17201
1.20637
1.16589
1.12887
1.06485
1.07496
1.0885
1.06997
1.12035
1.07156
1.14218
1.07828
1.11753
1.0875
1.09558
1.09072
1.06541
1.07061
1.07601
1.07944
1.13149
1.13551
1.173
1.33294
1.28615
1.21489
1.2609
1.37608
1.29119
1.378
1.28244
1.36158
1.32981
1.47612
1.1848
1.17215
1.16455
1.16105
1.15749
1.15576
1.15444
1.15536
1.15755
1.15946
1.16722
1.17673
1.18482
1.18565
1.18568
1.18552
1.18609
1.18908
1.19314
1.19626
1.19347
1.18652
1.17949
1.17888
1.18153
1.18278
1.18328
1.18503
1.18826
1.18122
1.15962
1.16088
1.20814
1.24872
1.26008
1.2472
1.22024
1.1997
1.18217
1.17427
1.18652
1.17878
1.16346
1.16693
1.16163
1.16013
1.15284
1.14401
1.14688
1.14599
1.1429
1.13843
1.13527
1.14034
1.12905
1.13281
1.13454
1.1313
1.12901
1.12904
1.13093
1.12293
1.12373
1.12208
1.1206
1.11717
1.11615
1.11318
1.11134
1.11
1.10896
1.1091
1.10876
1.11072
1.11352
1.11441
1.11841
1.11333
1.10739
1.1026
1.09827
1.09659
1.09795
1.10188
1.10289
1.10454
1.11029
1.10744
1.1062
1.10395
1.09678
1.08888
1.08428
1.0782
1.0697
1.06744
1.06313
1.05682
1.05479
1.05584
1.05283
1.05768
1.05833
1.05746
1.05839
1.05964
1.06039
1.05576
1.06159
1.05835
1.06676
1.06586
1.06906
1.06477
1.06717
1.07691
1.07099
1.08025
1.0969
1.08722
1.07773
1.08232
1.10218
1.08991
1.07686
1.07259
1.08281
1.11304
1.07214
1.04746
1.07844
1.09709
1.07958
1.06118
1.08623
1.09865
1.09533
1.04554
1.0629
1.08563
1.11487
1.05676
1.03982
1.01826
1.07263
1.07308
1.15041
1.22133
1.17361
1.14312
1.07594
1.0834
1.11144
1.07979
1.13363
1.07
1.14316
1.07862
1.11685
1.08976
1.08985
1.09264
1.0585
1.07505
1.06316
1.06663
1.13822
1.08078
1.12084
1.28019
1.23045
1.19797
1.27211
1.36592
1.26226
1.36576
1.33088
1.31612
1.25201
1.51055
1.17725
1.16524
1.15846
1.15508
1.15082
1.1484
1.14756
1.15193
1.15953
1.16388
1.162
1.15661
1.15535
1.16026
1.17086
1.17938
1.18799
1.19456
1.20002
1.19991
1.19443
1.18371
1.17258
1.17102
1.17342
1.17294
1.17179
1.16927
1.16184
1.14884
1.14698
1.1815
1.23501
1.25799
1.25178
1.2292
1.2075
1.19605
1.18328
1.17469
1.17834
1.16966
1.16562
1.16466
1.14831
1.14779
1.14714
1.14613
1.14647
1.13817
1.14209
1.14462
1.13548
1.13666
1.13598
1.13937
1.13282
1.13688
1.13837
1.12866
1.13063
1.12738
1.12505
1.12233
1.12116
1.11844
1.11655
1.11355
1.10913
1.10654
1.1051
1.10456
1.10661
1.10486
1.10754
1.10979
1.11469
1.12217
1.12111
1.1157
1.11497
1.1063
1.10315
1.10564
1.11125
1.11094
1.11321
1.11731
1.11302
1.11374
1.10803
1.09988
1.09343
1.08869
1.08216
1.08035
1.07338
1.07265
1.06525
1.06032
1.05982
1.05624
1.05391
1.05755
1.05644
1.05623
1.06339
1.05974
1.06519
1.06386
1.06139
1.06655
1.0686
1.07013
1.06245
1.07628
1.0799
1.0685
1.08193
1.09254
1.08046
1.06463
1.07951
1.08836
1.08417
1.06752
1.05851
1.0962
1.08178
1.06226
1.07965
1.08943
1.06935
1.05306
1.08156
1.09887
1.08413
1.04694
1.0703
1.09125
1.10459
1.03997
1.03767
1.02962
1.0704
1.07523
1.13209
1.21674
1.16863
1.14441
1.08324
1.09837
1.13246
1.08892
1.14477
1.06921
1.14279
1.07657
1.11202
1.08651
1.08979
1.09703
1.05147
1.08467
1.04629
1.06022
1.13385
1.05136
1.09874
1.22092
1.18783
1.19844
1.27634
1.32836
1.24102
1.31649
1.342
1.29313
1.49908
1.49267
1.16996
1.15999
1.15682
1.15765
1.15171
1.14165
1.13889
1.14389
1.15262
1.16163
1.16596
1.17139
1.18091
1.18844
1.19079
1.18801
1.18408
1.18487
1.18749
1.18696
1.18685
1.17906
1.17059
1.17169
1.17243
1.16632
1.16187
1.1604
1.15962
1.16359
1.1837
1.2208
1.25209
1.26145
1.25271
1.22165
1.19017
1.17362
1.17139
1.17779
1.17768
1.1605
1.1544
1.15797
1.15203
1.15294
1.1457
1.14034
1.14493
1.14281
1.14049
1.13658
1.13744
1.14326
1.13582
1.14591
1.14425
1.13807
1.14128
1.13674
1.13485
1.13204
1.1323
1.13191
1.13118
1.12954
1.12846
1.12839
1.12513
1.11958
1.11834
1.11604
1.11707
1.12099
1.11826
1.11842
1.11728
1.12344
1.12708
1.12728
1.12767
1.12535
1.11743
1.11592
1.11874
1.12355
1.12196
1.12449
1.12372
1.12183
1.1187
1.11105
1.10202
1.10209
1.08736
1.08418
1.08553
1.07522
1.07712
1.07354
1.06936
1.0705
1.06217
1.06187
1.06189
1.05624
1.06257
1.05934
1.05811
1.06566
1.06289
1.06447
1.06712
1.07422
1.06553
1.06537
1.08077
1.07497
1.07151
1.08636
1.09338
1.0764
1.07212
1.08456
1.08597
1.07261
1.06176
1.08575
1.07545
1.05656
1.07149
1.08625
1.07109
1.06559
1.08664
1.09474
1.07182
1.04413
1.08069
1.08723
1.08492
1.03145
1.04366
1.03253
1.07528
1.09365
1.13087
1.21016
1.15273
1.13412
1.08858
1.11479
1.1489
1.0999
1.15049
1.06886
1.14045
1.07033
1.11045
1.0808
1.08463
1.09467
1.04525
1.09081
1.03252
1.05978
1.12
1.0468
1.10036
1.175
1.16548
1.20703
1.27444
1.29845
1.25022
1.28772
1.37724
1.39524
1.37261
1.40669
1.16306
1.15606
1.1564
1.15804
1.14998
1.14162
1.1441
1.14808
1.14818
1.15214
1.15893
1.16344
1.16095
1.15599
1.15782
1.16428
1.17114
1.17878
1.18085
1.18618
1.18829
1.18009
1.17721
1.18632
1.19295
1.18707
1.183
1.18971
1.20295
1.21741
1.23085
1.2408
1.24446
1.24855
1.24542
1.22202
1.19658
1.17543
1.16309
1.16686
1.16706
1.15531
1.15561
1.15037
1.14178
1.1471
1.14749
1.14721
1.14738
1.1425
1.1468
1.14367
1.13609
1.14682
1.14157
1.14454
1.14831
1.14487
1.14505
1.14278
1.14226
1.14117
1.14113
1.14064
1.13842
1.13477
1.12991
1.12705
1.12957
1.12964
1.12712
1.12717
1.1237
1.12645
1.13374
1.1319
1.13117
1.13394
1.13775
1.13604
1.13664
1.13782
1.13064
1.13205
1.1356
1.13909
1.13798
1.13936
1.13931
1.13374
1.13036
1.12507
1.11745
1.10941
1.10856
1.09321
1.0992
1.08802
1.08118
1.08703
1.07776
1.07862
1.07743
1.0733
1.07592
1.0702
1.06896
1.07074
1.06493
1.06563
1.06766
1.06533
1.06411
1.0762
1.07379
1.06415
1.07759
1.08462
1.07341
1.07581
1.10044
1.08827
1.07257
1.08968
1.0863
1.07435
1.06764
1.08143
1.07491
1.05713
1.0718
1.08106
1.06619
1.06943
1.08363
1.09138
1.06436
1.05614
1.09718
1.08275
1.07356
1.03391
1.0532
1.03613
1.10104
1.12081
1.14465
1.21984
1.14102
1.12883
1.10104
1.13798
1.15913
1.1049
1.14651
1.06288
1.13823
1.06575
1.11088
1.07733
1.08404
1.09019
1.04027
1.09507
1.0191
1.06219
1.10182
1.04844
1.10229
1.13922
1.16383
1.21923
1.27206
1.30397
1.29292
1.29582
1.37064
1.31223
1.13826
1.48785
1.15605
1.15104
1.15141
1.14978
1.14206
1.14055
1.14619
1.1464
1.14465
1.15113
1.15466
1.15067
1.15345
1.16443
1.17249
1.17521
1.17646
1.17747
1.1809
1.18814
1.18829
1.18567
1.19187
1.21202
1.23364
1.23462
1.22302
1.22109
1.23153
1.24404
1.2441
1.23345
1.22181
1.21451
1.20292
1.18495
1.17564
1.17417
1.17159
1.17218
1.16777
1.15006
1.15571
1.15878
1.15075
1.15157
1.14585
1.14533
1.15288
1.14624
1.14953
1.15463
1.14439
1.15022
1.14848
1.14926
1.15101
1.14902
1.14954
1.14768
1.1476
1.14866
1.14685
1.14536
1.14394
1.14177
1.1383
1.13091
1.12631
1.12967
1.13277
1.13362
1.13368
1.12991
1.13886
1.13932
1.13729
1.13935
1.14613
1.1519
1.15182
1.15492
1.147
1.14574
1.15092
1.15484
1.15442
1.15062
1.15327
1.14258
1.14485
1.13099
1.13016
1.12122
1.12114
1.10517
1.10672
1.10416
1.08688
1.09939
1.09321
1.08516
1.09135
1.08589
1.08429
1.0854
1.07806
1.08058
1.07967
1.07218
1.07813
1.07746
1.06632
1.07733
1.07925
1.06707
1.0714
1.0882
1.08022
1.07166
1.10261
1.09442
1.07496
1.0967
1.08568
1.07973
1.07886
1.08224
1.07623
1.06224
1.07721
1.08246
1.0704
1.07842
1.0898
1.08888
1.05158
1.07155
1.10392
1.07768
1.06872
1.03851
1.05402
1.04296
1.1216
1.12116
1.17306
1.23263
1.12303
1.12856
1.11827
1.15762
1.15445
1.10391
1.13731
1.05962
1.1376
1.06195
1.11094
1.06997
1.0842
1.08267
1.03445
1.09524
1.0103
1.07158
1.08061
1.05826
1.10407
1.1236
1.18519
1.2357
1.27954
1.3182
1.31012
1.31457
1.3668
1.29931
1.26101
1.45737
1.14908
1.14609
1.14862
1.15172
1.15071
1.1493
1.15147
1.14891
1.14822
1.15726
1.16082
1.16413
1.16906
1.16679
1.15861
1.15833
1.16299
1.16351
1.16702
1.17596
1.1829
1.18732
1.19171
1.20944
1.2431
1.26127
1.24654
1.22719
1.22808
1.2476
1.26318
1.25802
1.24631
1.23303
1.20954
1.18049
1.1605
1.15478
1.15917
1.16333
1.1631
1.15041
1.14825
1.14718
1.14224
1.14919
1.14803
1.13996
1.149
1.14766
1.14313
1.15197
1.14618
1.14901
1.14968
1.14946
1.1513
1.15161
1.15314
1.15192
1.15214
1.15347
1.15216
1.15355
1.14905
1.14347
1.14578
1.14449
1.14017
1.14156
1.14577
1.14817
1.15032
1.14664
1.1498
1.15714
1.15452
1.15468
1.1541
1.15455
1.16288
1.16787
1.16439
1.16431
1.17072
1.16866
1.16797
1.16244
1.16283
1.15428
1.14924
1.14186
1.13756
1.13186
1.13012
1.12115
1.11649
1.12057
1.09908
1.11056
1.1082
1.08971
1.10385
1.10201
1.09053
1.0992
1.09248
1.09156
1.09614
1.08299
1.08759
1.09346
1.07587
1.08376
1.09127
1.07628
1.07662
1.09174
1.08307
1.07513
1.1062
1.09804
1.08376
1.09861
1.08738
1.08376
1.08362
1.08206
1.07537
1.07302
1.08637
1.08428
1.07838
1.08083
1.09453
1.08528
1.05344
1.09599
1.10768
1.08447
1.06481
1.03838
1.05805
1.05012
1.1076
1.11554
1.20259
1.19559
1.09293
1.14132
1.13655
1.16593
1.14068
1.10283
1.12498
1.06161
1.13663
1.05651
1.11238
1.06128
1.08062
1.06713
1.03242
1.09215
1.00448
1.07597
1.06109
1.07436
1.10267
1.12703
1.22033
1.25455
1.30219
1.32365
1.31562
1.35268
1.40093
1.30181
1.31956
1.45568
1.14257
1.14156
1.14415
1.14723
1.15067
1.15797
1.16377
1.16376
1.16359
1.16433
1.16087
1.15921
1.15861
1.16155
1.16543
1.16787
1.1673
1.16693
1.16803
1.16937
1.1746
1.18287
1.18698
1.19389
1.21528
1.24577
1.25008
1.22086
1.19647
1.20417
1.23281
1.24848
1.24435
1.23505
1.22023
1.2007
1.18177
1.16335
1.15775
1.16105
1.15772
1.14824
1.15127
1.15061
1.14125
1.14304
1.15427
1.14857
1.15093
1.16032
1.15368
1.15941
1.15806
1.15895
1.16035
1.15969
1.15909
1.15911
1.16
1.15833
1.15732
1.15773
1.15378
1.15455
1.15483
1.14863
1.14786
1.14532
1.14395
1.1494
1.15131
1.15504
1.1612
1.1605
1.1636
1.16639
1.16744
1.17398
1.17996
1.18023
1.17897
1.18457
1.17963
1.1792
1.18294
1.18214
1.17522
1.17558
1.17091
1.16405
1.15742
1.15478
1.145
1.14323
1.13493
1.12723
1.12236
1.13129
1.11478
1.12353
1.12857
1.10459
1.11944
1.11806
1.09814
1.11436
1.10622
1.097
1.1085
1.09617
1.09665
1.1083
1.08958
1.09179
1.10206
1.08616
1.08911
1.09518
1.08521
1.08577
1.10524
1.09861
1.08812
1.09848
1.09346
1.08945
1.08816
1.08445
1.07542
1.08624
1.0905
1.08372
1.08766
1.08622
1.10143
1.07651
1.06907
1.11322
1.10808
1.09986
1.05933
1.03328
1.0567
1.05735
1.1022
1.13329
1.16686
1.11924
1.10989
1.16647
1.14092
1.15897
1.11799
1.10116
1.11593
1.06997
1.13424
1.0476
1.10971
1.04611
1.07404
1.05136
1.03325
1.08419
1.00682
1.0791
1.0573
1.08828
1.08957
1.14065
1.26257
1.26699
1.3196
1.29991
1.31012
1.37312
1.4261
1.26344
1.31762
1.52506
1.13736
1.14044
1.14444
1.14748
1.14851
1.15832
1.16495
1.16987
1.17371
1.17545
1.17674
1.17512
1.16952
1.16749
1.16846
1.17004
1.16994
1.17027
1.16859
1.16508
1.16429
1.16925
1.1775
1.18444
1.19156
1.21118
1.24149
1.24809
1.21649
1.18567
1.18521
1.20063
1.20143
1.19092
1.18243
1.17865
1.17859
1.17125
1.16371
1.1664
1.1657
1.15039
1.15171
1.16012
1.15791
1.14887
1.15748
1.15809
1.15011
1.1553
1.15188
1.1526
1.15405
1.15279
1.15286
1.15482
1.1544
1.15495
1.15455
1.15562
1.15447
1.15559
1.15571
1.1513
1.15356
1.15269
1.15155
1.15638
1.15814
1.16717
1.17142
1.17162
1.17511
1.1766
1.18462
1.19398
1.18611
1.18838
1.18872
1.19054
1.19635
1.20245
1.19357
1.19697
1.19469
1.18895
1.18466
1.18354
1.17673
1.17207
1.1626
1.16558