/*--------------------------------*- C++ -*----------------------------------*\
| =========                 |                                                 |
| \\      /  F ield         | OpenFOAM: The Open Source CFD Toolbox           |
|  \\    /   O peration     | Version:  dev                                   |
|   \\  /    A nd           | Web:      http://www.openfoam.org               |
|    \\/     M anipulation  |                                                 |
\*---------------------------------------------------------------------------*/
FoamFile
{
    version     2.0;
    format      ascii;
    class       volScalarField;
    object      rho_0;
    location    "9.12";
}
// * * * * * * * * * * * * * * * * * * * * * * * * * * * * * * * * * * * * * //

dimensions      [1 -3 0 0 0 0 0];

internalField   nonuniform List<scalar> 
12225
(
1.04667
1.05127
1.05362
1.05634
1.05963
1.06259
1.06539
1.06884
1.0708
1.07539
1.07571
1.08306
1.08044
1.09171
1.08913
1.09233
1.10382
1.10139
1.04968
1.05463
1.0574
1.06212
1.06623
1.07245
1.07543
1.0831
1.0829
1.09389
1.08783
1.10553
1.09257
1.11317
1.10736
1.11214
1.12019
1.1147
1.04931
1.05439
1.05664
1.06212
1.06588
1.07277
1.07648
1.08472
1.08697
1.09633
1.09647
1.1061
1.10548
1.11356
1.11359
1.1237
1.12337
1.13184
1.04928
1.05421
1.05738
1.06054
1.06669
1.06947
1.07741
1.0795
1.08899
1.08934
1.09959
1.09889
1.10862
1.10829
1.11561
1.11815
1.12462
1.12662
1.05166
1.05247
1.05948
1.05861
1.06838
1.06724
1.07784
1.07658
1.08784
1.08644
1.09725
1.09694
1.10581
1.10751
1.11404
1.11688
1.12256
1.12666
1.05406
1.05223
1.06097
1.05882
1.06928
1.06768
1.07787
1.07681
1.08723
1.08651
1.09652
1.09657
1.10556
1.10624
1.11376
1.11559
1.12223
1.12538
1.05535
1.05351
1.0617
1.06039
1.06996
1.06944
1.07827
1.07844
1.08725
1.08775
1.09616
1.09749
1.10487
1.10649
1.11277
1.11534
1.12136
1.12455
1.05635
1.05511
1.06259
1.06155
1.07052
1.07043
1.07869
1.07938
1.08743
1.08851
1.09599
1.0978
1.10412
1.10621
1.11161
1.1147
1.11971
1.12296
1.05757
1.05676
1.06388
1.06293
1.07141
1.07152
1.07916
1.08027
1.08754
1.08927
1.09575
1.09806
1.10322
1.10592
1.11035
1.11377
1.11761
1.12095
1.05971
1.05885
1.06507
1.06445
1.07215
1.07268
1.07938
1.08085
1.08711
1.08932
1.09477
1.09741
1.10161
1.10476
1.10855
1.11201
1.11524
1.11832
1.06199
1.06208
1.06708
1.06688
1.07304
1.07415
1.07947
1.08147
1.0865
1.08915
1.09347
1.09636
1.09968
1.10294
1.10616
1.10942
1.11212
1.11472
1.06502
1.06572
1.06905
1.06952
1.07417
1.07585
1.07977
1.08215
1.08587
1.08864
1.09199
1.0949
1.0977
1.10077
1.10353
1.10653
1.10872
1.11087
1.06936
1.07081
1.07279
1.07355
1.07667
1.07831
1.08098
1.08322
1.08577
1.08819
1.09067
1.09334
1.09557
1.09819
1.10043
1.10295
1.10465
1.10639
1.07579
1.07706
1.07771
1.07831
1.08014
1.08144
1.08316
1.08486
1.08654
1.08836
1.09004
1.09228
1.09389
1.09589
1.09752
1.09941
1.1005
1.10178
1.08439
1.08537
1.08496
1.08505
1.08572
1.08635
1.08711
1.08795
1.08878
1.0898
1.09071
1.09209
1.09308
1.0942
1.09515
1.09627
1.09678
1.09769
1.09618
1.09675
1.09528
1.09458
1.09417
1.09394
1.09365
1.09353
1.09349
1.09369
1.09387
1.09432
1.09463
1.09507
1.09536
1.09577
1.09587
1.09639
1.1117
1.11152
1.1094
1.108
1.10677
1.10568
1.10455
1.10366
1.10292
1.10229
1.10169
1.10127
1.10079
1.10051
1.10016
1.09996
1.09999
1.10005
1.12991
1.12982
1.12751
1.1257
1.12416
1.12247
1.12074
1.11924
1.11815
1.11702
1.11609
1.11527
1.11455
1.11391
1.11319
1.1129
1.11309
1.11255
1.14823
1.14848
1.1466
1.14503
1.14383
1.14221
1.14046
1.13886
1.13791
1.13685
1.136
1.13511
1.13438
1.13328
1.13247
1.13238
1.13262
1.13205
1.16474
1.16567
1.1644
1.16324
1.16257
1.16156
1.16046
1.15929
1.15858
1.15786
1.15747
1.1569
1.15634
1.1552
1.15454
1.15425
1.15464
1.15457
1.17881
1.18066
1.18012
1.17972
1.17978
1.17931
1.179
1.17842
1.17787
1.17743
1.1775
1.17711
1.17712
1.17663
1.17639
1.17618
1.17656
1.17682
1.18953
1.19264
1.19319
1.19375
1.19464
1.19482
1.19527
1.19545
1.19557
1.19565
1.19581
1.19563
1.19622
1.19624
1.19637
1.19633
1.19675
1.19709
1.19889
1.20276
1.20406
1.20532
1.20679
1.20767
1.20867
1.2092
1.20991
1.2106
1.21106
1.21142
1.21205
1.21221
1.21275
1.21305
1.21346
1.21384
1.20539
1.21006
1.21213
1.21411
1.21607
1.21761
1.21916
1.22022
1.22123
1.22216
1.22305
1.22369
1.22437
1.22494
1.2256
1.22593
1.22649
1.22684
1.21078
1.2161
1.21848
1.22061
1.22279
1.22472
1.22656
1.22821
1.22971
1.23089
1.23188
1.23267
1.23349
1.23418
1.23487
1.23546
1.2361
1.23668
1.21426
1.22004
1.22302
1.22577
1.22837
1.23062
1.23265
1.23429
1.23579
1.23712
1.23825
1.23929
1.24024
1.24112
1.24199
1.24269
1.24348
1.24414
1.21681
1.22283
1.22604
1.22886
1.23156
1.23383
1.23595
1.23778
1.2396
1.24123
1.2428
1.24425
1.24568
1.24688
1.24804
1.24904
1.25008
1.25105
1.21858
1.22468
1.228
1.23108
1.23414
1.23683
1.23942
1.24164
1.2439
1.24591
1.24802
1.24983
1.25168
1.25309
1.25458
1.25573
1.25707
1.25823
1.21977
1.22633
1.22974
1.23297
1.23624
1.23925
1.24208
1.24455
1.24687
1.24872
1.25041
1.25166
1.25279
1.25354
1.25452
1.25506
1.25634
1.25641
1.21922
1.22426
1.22624
1.22802
1.22964
1.23084
1.23162
1.23204
1.2322
1.23209
1.23193
1.23159
1.23122
1.23087
1.23055
1.2302
1.22999
1.22925
1.31673
1.38007
1.39286
1.38487
1.38029
1.37446
1.36738
1.36062
1.3552
1.35008
1.34505
1.33997
1.33528
1.33052
1.32648
1.32186
1.31696
1.31284
1.30822
1.30383
1.30014
1.29681
1.29316
1.28941
1.28572
1.2818
1.27744
1.27283
1.26841
1.26202
1.25818
1.25028
1.24264
1.236
1.22677
1.22115
1.2215
1.22211
1.22469
1.22827
1.22925
1.22988
1.22439
1.22061
1.21454
1.20603
1.19043
1.17126
1.15572
1.15766
1.17876
1.18411
1.16128
1.14669
1.14226
1.13303
1.10788
1.10015
1.11498
1.12052
1.12164
1.12259
1.12258
1.12238
1.1219
1.12131
1.1206
1.11981
1.11895
1.11807
1.11706
1.116
1.11488
1.11369
1.11253
1.11128
1.11011
1.10886
1.10773
1.10642
1.10526
1.10408
1.10267
1.10147
1.10054
1.09964
1.0989
1.09789
1.09697
1.09617
1.09566
1.09514
1.09463
1.09462
1.09467
1.09463
1.09478
1.09528
1.09562
1.09646
1.09592
1.09558
1.09471
1.09386
1.09367
1.09373
1.09344
1.0916
1.08973
1.08887
1.08962
1.09246
1.09679
1.1033
1.11
1.11395
1.11769
1.12383
1.1304
1.13638
1.14089
1.14433
1.14446
1.14062
1.13489
1.13098
1.12933
1.12741
1.12235
1.11882
1.11623
1.11829
1.12201
1.12173
1.12025
1.12194
1.12883
1.13406
1.13592
1.14522
1.15161
1.14824
1.14593
1.14339
1.13618
1.14063
1.13584
1.14025
1.13833
1.14183
1.14357
1.14329
1.1447
1.14483
1.14478
1.14629
1.14459
1.14405
1.14302
1.14396
1.14257
1.14815
1.152
1.16336
1.15668
1.15711
1.1347
1.11685
1.12078
1.1301
1.16781
1.16426
1.11521
1.09663
1.07344
1.06064
1.04741
1.04025
1.04219
1.02652
1.30238
1.36689
1.4103
1.41929
1.4034
1.37527
1.35048
1.33127
1.31976
1.31111
1.30331
1.29486
1.28838
1.28196
1.27802
1.27325
1.26941
1.26616
1.26215
1.25794
1.25558
1.25602
1.2559
1.25595
1.25779
1.25822
1.25942
1.26082
1.26013
1.26042
1.25819
1.2577
1.24924
1.24766
1.23691
1.22106
1.25434
1.27667
1.27962
1.28713
1.28792
1.27987
1.25741
1.24743
1.24253
1.23828
1.24316
1.2439
1.22677
1.21852
1.21347
1.22161
1.17337
1.14483
1.15785
1.15178
1.15364
1.15441
1.15893
1.15755
1.15823
1.15602
1.15563
1.15341
1.15262
1.15067
1.14987
1.14811
1.14726
1.14582
1.14511
1.144
1.14328
1.14247
1.14182
1.14119
1.14101
1.14064
1.1407
1.14048
1.14055
1.14037
1.14013
1.13956
1.13932
1.14017
1.14089
1.14199
1.14283
1.1444
1.14529
1.14786
1.14922
1.15126
1.15382
1.15621
1.15911
1.16123
1.16407
1.16525
1.16625
1.16538
1.16338
1.15983
1.15571
1.15147
1.1477
1.14028
1.13232
1.13119
1.13386
1.13937
1.15047
1.16525
1.1806
1.19278
1.19713
1.19907
1.20105
1.20503
1.21112
1.22584
1.23427
1.22623
1.18259
1.14484
1.12954
1.12049
1.09621
1.08506
1.0799
1.0859
1.08956
1.08769
1.08535
1.08152
1.08956
1.0917
1.09222
1.11282
1.16766
1.19869
1.22488
1.22649
1.19106
1.19214
1.17028
1.18071
1.17424
1.1725
1.17415
1.15695
1.15438
1.15584
1.14956
1.15893
1.1602
1.1678
1.18035
1.19275
1.19183
1.19989
1.21738
1.27323
1.28618
1.30734
1.25244
1.22415
1.25863
1.29418
1.33571
1.32947
1.28856
1.25328
1.21435
1.1953
1.17129
1.14485
1.16009
1.11211
1.28606
1.33169
1.36708
1.3639
1.33191
1.29529
1.26945
1.25328
1.24542
1.24062
1.23711
1.23284
1.22979
1.22678
1.22426
1.22195
1.21969
1.21863
1.21691
1.21595
1.21445
1.21529
1.21535
1.2167
1.21973
1.22409
1.22844
1.23388
1.23837
1.24589
1.24761
1.25257
1.25264
1.25264
1.24861
1.23333
1.22569
1.22492
1.24299
1.25859
1.26703
1.25467
1.22595
1.21073
1.19688
1.19161
1.19393
1.19992
1.21823
1.23542
1.18378
1.15954
1.16745
1.16093
1.16295
1.15826
1.15783
1.15296
1.15084
1.1448
1.14216
1.13609
1.13331
1.12774
1.12546
1.12037
1.11866
1.11416
1.113
1.10934
1.1083
1.10573
1.10447
1.10267
1.10126
1.0996
1.09823
1.09742
1.0962
1.09613
1.09489
1.09501
1.09463
1.0937
1.09195
1.09198
1.09201
1.09379
1.09534
1.09831
1.09881
1.10414
1.10684
1.11028
1.11461
1.1201
1.12764
1.13206
1.14175
1.14452
1.15466
1.15989
1.16809
1.17639
1.17934
1.16916
1.15509
1.14791
1.14138
1.13872
1.13846
1.13596
1.13687
1.14286
1.15858
1.18722
1.21619
1.21657
1.1793
1.1277
1.11719
1.14284
1.17758
1.22475
1.24
1.16471
1.08657
1.06449
1.05234
1.05301
1.06838
1.09079
1.0929
1.09283
1.09924
1.09509
1.10505
1.08235
1.05325
1.03277
1.07437
1.12396
1.21747
1.25341
1.2282
1.20271
1.19149
1.20017
1.20194
1.1474
1.1365
1.10472
1.09792
1.10233
1.09513
1.10548
1.10203
1.11665
1.12324
1.13735
1.17581
1.19794
1.20159
1.26063
1.32134
1.36187
1.30605
1.28616
1.32305
1.36443
1.32156
1.25814
1.29583
1.28339
1.27543
1.25419
1.24769
1.21979
1.24442
1.18344
1.27046
1.29414
1.3077
1.29496
1.2695
1.24934
1.23896
1.23588
1.2364
1.2368
1.23688
1.23662
1.23691
1.23719
1.23715
1.23757
1.23674
1.23667
1.23657
1.23573
1.23416
1.23402
1.23271
1.23392
1.23672
1.24096
1.24583
1.25282
1.2592
1.26634
1.2691
1.27245
1.27229
1.27337
1.27248
1.26962
1.25095
1.23062
1.23069
1.2207
1.22446
1.23163
1.19483
1.2073
1.17678
1.14253
1.16039
1.20229
1.21425
1.18806
1.16803
1.17025
1.16666
1.16272
1.15847
1.15289
1.14874
1.14223
1.13786
1.13172
1.12786
1.1222
1.1187
1.11442
1.11106
1.10768
1.10452
1.10206
1.09861
1.09738
1.09409
1.09229
1.0903
1.08793
1.08678
1.08462
1.08249
1.08074
1.07867
1.07752
1.07494
1.07296
1.07113
1.06946
1.06785
1.06673
1.06472
1.06341
1.0622
1.06336
1.06142
1.06399
1.06342
1.0653
1.06649
1.06798
1.07299
1.07409
1.08354
1.08462
1.09466
1.10073
1.10751
1.1179
1.13556
1.16094
1.17846
1.17755
1.15894
1.13368
1.12403
1.12581
1.13145
1.14456
1.14501
1.13548
1.15598
1.1766
1.17543
1.1195
1.05695
1.0377
1.04831
1.07781
1.13754
1.19624
1.20058
1.16822
1.12941
1.1001
1.0986
1.13524
1.15091
1.15103
1.1707
1.17471
1.20074
1.18424
1.13371
1.0554
1.01927
1.02708
1.15944
1.22264
1.25669
1.19067
1.21392
1.17433
1.21841
1.14462
1.10516
1.08169
1.08146
1.09019
1.09347
1.10622
1.09677
1.10486
1.10418
1.09421
1.11822
1.14431
1.17493
1.19658
1.27978
1.33171
1.31415
1.32597
1.34452
1.38692
1.37743
1.29988
1.29104
1.26955
1.28042
1.2625
1.28445
1.26256
1.29358
1.25197
1.25735
1.26653
1.2683
1.25731
1.24394
1.23405
1.22939
1.22732
1.2269
1.22602
1.22553
1.22644
1.22873
1.23095
1.23335
1.23463
1.23588
1.23693
1.23601
1.23548
1.23503
1.23326
1.23188
1.23097
1.22958
1.23046
1.23271
1.23881
1.24721
1.25017
1.25229
1.26165
1.26174
1.26326
1.2648
1.27372
1.27016
1.24872
1.24398
1.21644
1.23129
1.22256
1.18715
1.19126
1.18433
1.18889
1.1984
1.20579
1.19069
1.1747
1.17
1.16537
1.15815
1.15307
1.14551
1.1403
1.13384
1.12849
1.12335
1.11867
1.11445
1.11087
1.10721
1.10498
1.10113
1.10037
1.09592
1.09596
1.09179
1.09091
1.08871
1.08573
1.08345
1.08184
1.07847
1.07701
1.07507
1.07134
1.06964
1.06792
1.06517
1.06299
1.06158
1.05907
1.05714
1.05597
1.05404
1.05294
1.05191
1.05271
1.05057
1.05379
1.05285
1.05352
1.05632
1.05552
1.06077
1.05849
1.06335
1.06268
1.0648
1.06665
1.06815
1.07118
1.07795
1.08966
1.10691
1.13373
1.16242
1.17844
1.17535
1.15212
1.12696
1.13594
1.14327
1.12483
1.13065
1.14021
1.13937
1.1235
1.09184
1.07282
1.08871
1.11111
1.07488
1.05953
1.09352
1.14822
1.16427
1.16627
1.1772
1.21144
1.19494
1.12332
1.08773
1.09203
1.17219
1.21266
1.15564
1.09417
0.995676
0.934798
1.06833
1.15067
1.26451
1.17998
1.23656
1.1546
1.19873
1.13798
1.08832
1.0714
1.08014
1.08472
1.09864
1.10616
1.10924
1.11086
1.11067
1.09547
1.11029
1.09332
1.14777
1.14988
1.22221
1.27751
1.29467
1.34405
1.35075
1.38556
1.37831
1.32309
1.28713
1.24748
1.28069
1.25656
1.3083
1.29703
1.31607
1.30471
1.24597
1.24621
1.24203
1.2323
1.22227
1.21468
1.21059
1.20796
1.20729
1.20852
1.21351
1.22087
1.22751
1.2323
1.23483
1.23611
1.23706
1.23656
1.23427
1.23207
1.23033
1.22884
1.22704
1.22375
1.221
1.21807
1.21582
1.21435
1.22433
1.23223
1.23614
1.24943
1.26146
1.27242
1.26753
1.27811
1.27342
1.26367
1.24474
1.22677
1.22424
1.19893
1.20226
1.19943
1.20023
1.20045
1.19403
1.18886
1.17352
1.16684
1.16071
1.15445
1.14791
1.14151
1.13574
1.13131
1.12526
1.1227
1.11815
1.11644
1.11342
1.11267
1.11055
1.11039
1.10835
1.10784
1.10608
1.10398
1.10421
1.09979
1.09983
1.09787
1.09299
1.09299
1.08851
1.08559
1.08273
1.07916
1.07439
1.0723
1.06836
1.06468
1.06161
1.05857
1.05577
1.0523
1.04938
1.04571
1.04394
1.04199
1.039
1.03777
1.03804
1.03541
1.03891
1.03781
1.04147
1.04272
1.04542
1.04817
1.05098
1.05388
1.05732
1.06011
1.06172
1.07394
1.07689
1.07959
1.10025
1.12606
1.15171
1.17221
1.16875
1.17007
1.16724
1.15098
1.15604
1.16085
1.149
1.12789
1.11165
1.13642
1.13037
1.09393
1.12727
1.16838
1.13069
1.10991
1.08291
1.07594
1.12394
1.1651
1.16777
1.06602
0.982284
0.97197
1.03591
1.18223
1.12481
1.11406
1.02565
0.914376
0.99562
1.06537
1.22822
1.17436
1.2374
1.15349
1.17295
1.119
1.07938
1.05325
1.07488
1.07978
1.09443
1.09774
1.10471
1.10528
1.11621
1.08333
1.11926
1.07818
1.11759
1.11729
1.16748
1.22012
1.25915
1.34358
1.35116
1.38569
1.36739
1.318
1.255
1.22569
1.29152
1.25797
1.29399
1.32218
1.34468
1.34896
1.23522
1.22927
1.22078
1.2103
1.20153
1.19709
1.19474
1.19375
1.19739
1.20577
1.21568
1.22207
1.22705
1.23067
1.23197
1.23216
1.23172
1.22953
1.22761
1.22811
1.22852
1.22945
1.22948
1.22693
1.22712
1.2225
1.21721
1.20832
1.20136
1.20065
1.2004
1.20567
1.22844
1.25655
1.26628
1.28076
1.27265
1.26185
1.22837
1.22658
1.20211
1.19704
1.20567
1.19913
1.19811
1.19207
1.18324
1.17531
1.16569
1.16427
1.153
1.1481
1.14151
1.13736
1.13128
1.12813
1.1249
1.12387
1.12077
1.12181
1.1201
1.1212
1.1199
1.11928
1.11894
1.11571
1.11724
1.11057
1.11356
1.108
1.10679
1.10617
1.10257
1.10218
1.09959
1.09894
1.09544
1.09379
1.09092
1.08732
1.08396
1.08077
1.0773
1.07318
1.07197
1.06709
1.06486
1.06034
1.05787
1.05382
1.05143
1.04762
1.0438
1.04236
1.03961
1.03832
1.03748
1.03663
1.03709
1.03767
1.03743
1.04005
1.04021
1.04526
1.04484
1.04872
1.05821
1.06255
1.06759
1.08068
1.10663
1.13411
1.14161
1.15548
1.18092
1.1844
1.1741
1.17119
1.17209
1.17739
1.17361
1.12664
1.1379
1.1979
1.1655
1.10418
1.08687
1.1173
1.11571
1.07177
1.0883
1.08549
1.10721
1.05092
1.00848
1.02504
0.999411
1.08961
1.05839
1.07409
1.05541
0.937979
0.975432
1.03315
1.17374
1.16437
1.23177
1.15954
1.15904
1.09673
1.07308
1.0605
1.06695
1.07574
1.09937
1.1062
1.12261
1.09985
1.13746
1.08492
1.11544
1.07708
1.09253
1.10191
1.13575
1.17136
1.21083
1.32166
1.33969
1.38403
1.36302
1.30624
1.23541
1.23083
1.29981
1.27388
1.29267
1.34384
1.35325
1.36069
1.22456
1.21399
1.20237
1.19203
1.18656
1.18532
1.18417
1.18542
1.19354
1.20156
1.20478
1.20691
1.21313
1.21691
1.21693
1.21679
1.217
1.21712
1.21727
1.2182
1.21898
1.21891
1.21836
1.21653
1.21777
1.21846
1.22109
1.22104
1.21308
1.20278
1.19215
1.18382
1.20067
1.2356
1.26203
1.28038
1.27291
1.25073
1.22245
1.21568
1.1889
1.20042
1.19764
1.19165
1.18884
1.17743
1.17393
1.16693
1.15701
1.15307
1.14354
1.14336
1.13393
1.133
1.13041
1.13012
1.12708
1.12821
1.12779
1.12833
1.12606
1.12577
1.12382
1.12029
1.11994
1.11263
1.11474
1.10682
1.10789
1.10342
1.10174
1.10003
1.09747
1.09654
1.0954
1.09467
1.09469
1.09366
1.09389
1.09262
1.0899
1.08676
1.08508
1.07937
1.07828
1.07425
1.07209
1.06766
1.06369
1.06073
1.05821
1.05487
1.05175
1.04786
1.0482
1.04518
1.04319
1.04186
1.04173
1.04135
1.04084
1.0403
1.04056
1.04468
1.0393
1.04113
1.04807
1.04889
1.04886
1.06233
1.08106
1.08909
1.09389
1.11416
1.1378
1.15001
1.17034
1.16994
1.16937
1.15802
1.15489
1.18399
1.1708
1.11384
1.11507
1.14961
1.13903
1.0989
1.09051
1.07931
1.09475
1.07145
1.07224
1.06619
1.08661
1.14676
1.1055
1.10549
1.09106
1.08912
1.10091
0.974356
0.967648
1.02044
1.1322
1.14404
1.22187
1.17371
1.15555
1.09294
1.0608
1.06751
1.06916
1.07801
1.10644
1.09708
1.13607
1.08539
1.13819
1.09305
1.11642
1.08957
1.08539
1.0911
1.11595
1.13392
1.16487
1.27729
1.30469
1.38646
1.35393
1.28244
1.22869
1.27764
1.30816
1.28958
1.32915
1.40667
1.30502
1.38076
1.21415
1.20105
1.18946
1.18302
1.18203
1.18036
1.17658
1.17833
1.18612
1.1915
1.19668
1.20221
1.20665
1.20759
1.20752
1.20931
1.21197
1.2148
1.21688
1.21932
1.22062
1.21951
1.21578
1.21038
1.20483
1.2001
1.20201
1.20657
1.2062
1.2016
1.18764
1.17383
1.196
1.23733
1.26541
1.27585
1.25743
1.22864
1.21177
1.19723
1.18903
1.20236
1.18823
1.18397
1.1809
1.17244
1.16552
1.15518
1.15275
1.14967
1.14078
1.14079
1.13555
1.14053
1.13381
1.13512
1.13558
1.1339
1.13064
1.12955
1.12729
1.12255
1.11986
1.11375
1.11371
1.1069
1.10732
1.10157
1.10189
1.09888
1.09793
1.09674
1.09511
1.09308
1.09217
1.09034
1.08867
1.08878
1.08917
1.09213
1.09252
1.09146
1.09108
1.08831
1.08543
1.08293
1.0806
1.0783
1.07512
1.06719
1.06604
1.06138
1.05717
1.05233
1.0527
1.0498
1.04904
1.04535
1.04724
1.04667
1.04082
1.04666
1.04529
1.04331
1.0464
1.05019
1.04458
1.04816
1.05023
1.04396
1.05422
1.07195
1.07611
1.07279
1.0996
1.10602
1.12646
1.1372
1.1383
1.14426
1.14056
1.12671
1.13422
1.14758
1.13214
1.09353
1.08615
1.09197
1.09722
1.10558
1.11232
1.07184
1.02586
1.06185
1.12704
1.12832
1.07091
1.0678
1.1035
1.10482
1.1312
1.02233
0.986619
1.01441
1.10499
1.11575
1.20348
1.19095
1.1593
1.11218
1.05871
1.07398
1.08064
1.07462
1.11404
1.08553
1.14804
1.087
1.13526
1.09703
1.10883
1.09217
1.07811
1.08407
1.10087
1.10719
1.14399
1.21264
1.24614
1.37597
1.33074
1.24826
1.24962
1.34142
1.29748
1.36536
1.31801
1.39657
1.34408
1.42497
1.20426
1.19102
1.18188
1.17861
1.17615
1.1709
1.16842
1.17412
1.18423
1.19049
1.19229
1.19006
1.19244
1.19671
1.2
1.2049
1.20857
1.21079
1.21282
1.21672
1.21766
1.21623
1.21315
1.21052
1.20677
1.2016
1.19856
1.1963
1.19683
1.19781
1.18316
1.17264
1.20653
1.25187
1.27498
1.27118
1.24197
1.21789
1.20529
1.19054
1.19124
1.19081
1.17831
1.17916
1.16521
1.15765
1.15837
1.15211
1.14786
1.14136
1.14119
1.14634
1.13783
1.13908
1.13581
1.13683
1.12956
1.12957
1.13011
1.12347
1.12154
1.1182
1.11843
1.11274
1.11254
1.10926
1.1096
1.10586
1.10548
1.10389
1.10331
1.10258
1.10213
1.10227
1.09997
1.09911
1.09501
1.09002
1.08689
1.08674
1.08658
1.09033
1.08966
1.09197
1.08965
1.09247
1.09092
1.08763
1.08809
1.08255
1.07441
1.06981
1.06679
1.05847
1.05626
1.05269
1.0509
1.05344
1.04952
1.04963
1.05225
1.05043
1.04726
1.05184
1.04902
1.04981
1.05223
1.05185
1.05818
1.0566
1.05746
1.05522
1.06913
1.0611
1.07644
1.07993
1.091
1.11228
1.10516
1.09683
1.11194
1.12029
1.11514
1.0973
1.1054
1.11453
1.10971
1.09487
1.05668
1.06946
1.11458
1.10695
1.0512
1.05291
1.10495
1.09505
1.0612
1.0322
1.07817
1.09113
1.11768
1.05
1.01836
1.01237
1.08852
1.09082
1.17868
1.21202
1.16724
1.13132
1.06845
1.08158
1.09599
1.07779
1.1292
1.0797
1.15188
1.08672
1.12777
1.09729
1.10621
1.10137
1.0751
1.08167
1.08516
1.08916
1.14294
1.14068
1.18137
1.34051
1.28725
1.21885
1.2674
1.37914
1.29147
1.37777
1.27996
1.35898
1.32839
1.47476
1.1947
1.18226
1.17477
1.17124
1.16753
1.16592
1.16467
1.16555
1.16759
1.16947
1.17722
1.18664
1.1944
1.19504
1.19528
1.19516
1.19587
1.19899
1.20304
1.20573
1.20224
1.19467
1.18742
1.18702
1.18974
1.19085
1.19122
1.19283
1.19494
1.18555
1.1647
1.17179
1.22219
1.25952
1.26631
1.25021
1.22299
1.20328
1.18594
1.17886
1.19108
1.18186
1.16684
1.1701
1.16424
1.16286
1.15515
1.14637
1.14929
1.14803
1.14485
1.14008
1.13671
1.14167
1.13028
1.13397
1.13563
1.13241
1.13003
1.12988
1.13186
1.12379
1.12449
1.12281
1.12132
1.11783
1.11678
1.11374
1.11191
1.11052
1.10942
1.10945
1.10889
1.11078
1.11325
1.11384
1.11731
1.11148
1.10522
1.10041
1.09587
1.09449
1.09576
1.09945
1.09991
1.10151
1.10688
1.10343
1.10227
1.09954
1.09207
1.08424
1.0797
1.07331
1.06494
1.06253
1.05833
1.05208
1.05021
1.0514
1.04851
1.05345
1.05401
1.05319
1.05415
1.05554
1.05622
1.05201
1.05816
1.05531
1.06429
1.06357
1.0676
1.06368
1.06745
1.07753
1.07242
1.08338
1.10016
1.09035
1.08221
1.08859
1.1084
1.0954
1.08312
1.08011
1.09219
1.1205
1.0772
1.05552
1.08851
1.10491
1.08538
1.06886
1.0952
1.10588
1.09851
1.04962
1.0705
1.09339
1.11715
1.05621
1.04138
1.02341
1.07804
1.07919
1.15815
1.22616
1.17286
1.14325
1.07831
1.09041
1.11866
1.08691
1.14107
1.07698
1.15165
1.08572
1.12619
1.09814
1.09948
1.10207
1.06692
1.08593
1.07073
1.07642
1.14796
1.08526
1.1298
1.28562
1.23217
1.20322
1.27886
1.36792
1.2625
1.36624
1.32846
1.31288
1.25102
1.51201
1.18504
1.17329
1.16677
1.16362
1.15919
1.15627
1.15539
1.16009
1.1681
1.17267
1.1704
1.16471
1.16363
1.16901
1.17974
1.18805
1.19644
1.20284
1.20808
1.20756
1.20177
1.19077
1.17969
1.17848
1.18077
1.17976
1.17816
1.17507
1.16686
1.15449
1.15668
1.19542
1.24754
1.26625
1.25707
1.23261
1.21073
1.19955
1.18752
1.17999
1.18263
1.17289
1.16932
1.168
1.15135
1.15096
1.15008
1.14905
1.14923
1.14068
1.14456
1.1469
1.13774
1.13888
1.13818
1.14171
1.13494
1.13883
1.14045
1.13058
1.13248
1.12927
1.12692
1.12419
1.12299
1.12023
1.11831
1.11521
1.11075
1.1082
1.10668
1.10615
1.10805
1.10608
1.10887
1.11102
1.116
1.12281
1.12104
1.11522
1.11405
1.10516
1.10226
1.10482
1.1101
1.10939
1.11182
1.11541
1.11089
1.11142
1.10528
1.09697
1.09065
1.08546
1.07919
1.07725
1.06994
1.06932
1.0616
1.0569
1.05642
1.05294
1.0511
1.05476
1.05371
1.05402
1.06106
1.05759
1.06361
1.06212
1.06053
1.06616
1.06869
1.07036
1.06381
1.07875
1.08211
1.07187
1.08688
1.09719
1.08479
1.07054
1.08696
1.09566
1.09072
1.07416
1.06762
1.10533
1.08837
1.07023
1.08897
1.09666
1.07501
1.06098
1.091
1.1054
1.08712
1.05168
1.07819
1.09759
1.10492
1.03957
1.04029
1.03419
1.07545
1.08163
1.14016
1.21998
1.16515
1.14206
1.08495
1.10597
1.13825
1.09488
1.15042
1.07478
1.14998
1.08204
1.12021
1.0935
1.09863
1.10506
1.05901
1.09485
1.05241
1.07017
1.14126
1.05673
1.10817
1.22497
1.19131
1.20466
1.2821
1.33009
1.24187
1.31714
1.34131
1.29434
1.50236
1.48833
1.17586
1.16626
1.16355
1.16468
1.15843
1.14798
1.14549
1.15056
1.15892
1.1679
1.17264
1.17862
1.18811
1.1951
1.19694
1.194
1.19007
1.19101
1.19357
1.19312
1.19311
1.18524
1.17713
1.17882
1.17966
1.17325
1.16875
1.16785
1.16837
1.17456
1.19676
1.23291
1.2603
1.26725
1.25747
1.2255
1.19394
1.17736
1.17545
1.18251
1.18156
1.16383
1.15817
1.16133
1.15561
1.1567
1.14923
1.14388
1.14838
1.14617
1.14374
1.13949
1.14035
1.14645
1.13872
1.14879
1.14734
1.14091
1.1441
1.13965
1.13773
1.13493
1.13522
1.13484
1.1341
1.13249
1.13146
1.13136
1.12787
1.12222
1.12096
1.11859
1.11976
1.12339
1.12032
1.12052
1.11953
1.12579
1.129
1.1288
1.12891
1.1259
1.11794
1.1164
1.11915
1.12352
1.12182
1.12429
1.12307
1.1213
1.11783
1.10982
1.10081
1.10083
1.08568
1.08317
1.08372
1.07385
1.0757
1.07146
1.0677
1.06856
1.06017
1.06036
1.06023
1.05502
1.0619
1.05857
1.0582
1.066
1.06337
1.06572
1.06906
1.0762
1.06779
1.06929
1.08503
1.07903
1.07717
1.09316
1.09944
1.08234
1.07985
1.09291
1.09363
1.07985
1.07063
1.09476
1.08243
1.0646
1.08109
1.09407
1.07755
1.07374
1.09509
1.10011
1.07469
1.04998
1.08852
1.09138
1.08487
1.03232
1.04676
1.03647
1.08201
1.10049
1.13925
1.21305
1.14769
1.13136
1.0911
1.12284
1.15274
1.10417
1.15352
1.07271
1.14612
1.07445
1.11789
1.08644
1.09248
1.10111
1.05211
1.09985
1.0378
1.06954
1.12564
1.05309
1.10912
1.1787
1.17061
1.21352
1.27922
1.30106
1.25251
1.28948
1.3788
1.39572
1.37637
1.40694
1.16726
1.16059
1.16121
1.16271
1.15451
1.14665
1.14967
1.15338
1.15285
1.15672
1.16351
1.16746
1.16463
1.15994
1.16217
1.16895
1.17601
1.18367
1.18575
1.19135
1.19356
1.18558
1.18335
1.1934
1.20098
1.19554
1.19155
1.19881
1.21312
1.2284
1.24081
1.24772
1.24853
1.25132
1.24726
1.22407
1.19998
1.18
1.16806
1.17156
1.17103
1.15903
1.16015
1.15457
1.14583
1.1512
1.15144
1.15128
1.15144
1.14625
1.15078
1.14783
1.1398
1.15054
1.14535
1.14808
1.15189
1.14852
1.14869
1.14648
1.14604
1.14503
1.14504
1.14458
1.14237
1.13874
1.134
1.13145
1.13414
1.13397
1.13134
1.13127
1.12784
1.13103
1.13776
1.13568
1.13495
1.13785
1.14133
1.13918
1.1397
1.14039
1.13302
1.13441
1.13771
1.14094
1.13953
1.14102
1.14052
1.13517
1.13137
1.12619
1.11798
1.11033
1.10855
1.09379
1.09971
1.08787
1.08207
1.08707
1.07775
1.07911
1.07718
1.0734
1.07615
1.07019
1.06983
1.07152
1.06595
1.06764
1.06971
1.0678
1.06774
1.08021
1.07758
1.06911
1.08374
1.09031
1.07953
1.08397
1.10854
1.09521
1.08098
1.09886
1.0945
1.08244
1.07681
1.09057
1.08244
1.06546
1.08132
1.08868
1.07315
1.07769
1.09158
1.09644
1.06794
1.06333
1.10383
1.08518
1.07405
1.03572
1.05592
1.04049
1.10912
1.12543
1.15335
1.22199
1.13459
1.12746
1.10504
1.14536
1.15952
1.10681
1.14684
1.06557
1.14296
1.06887
1.11743
1.08163
1.09118
1.09507
1.04638
1.10282
1.02383
1.07183
1.10608
1.05526
1.10972
1.14352
1.1706
1.22559
1.27665
1.30747
1.29615
1.29795
1.37248
1.31423
1.13923
1.49219
1.15874
1.15396
1.15453
1.15302
1.14573
1.14462
1.15025
1.15008
1.14831
1.15513
1.1585
1.15445
1.15763
1.16871
1.17628
1.17871
1.17992
1.18075
1.18426
1.19176
1.19224
1.19008
1.19655
1.21717
1.24028
1.24265
1.23088
1.22805
1.23817
1.2511
1.2512
1.23962
1.22706
1.21856
1.20531
1.18685
1.17807
1.17764
1.17618
1.1767
1.1718
1.15404
1.15986
1.16288
1.1549
1.1558
1.14987
1.14906
1.15697
1.15035
1.15335
1.15879
1.14857
1.15423
1.15262
1.15339
1.15508
1.15322
1.15385
1.15207
1.15217
1.15332
1.15155
1.15019
1.14887
1.14678
1.14321
1.13585
1.13173
1.1354
1.13834
1.13908
1.13886
1.13552
1.14477
1.14457
1.14259
1.1449
1.15185
1.15728
1.15673
1.15946
1.15116
1.15005
1.15504
1.1589
1.15813
1.15453
1.15692
1.14618
1.14838
1.13441
1.13337
1.1242
1.12396
1.10755
1.10969
1.10602
1.08954
1.1019
1.095
1.08797
1.09354
1.08787
1.08705
1.08757
1.08065
1.0836
1.08234
1.07579
1.08217
1.08126
1.07125
1.08313
1.08476
1.07318
1.07904
1.09598
1.0876
1.08081
1.11228
1.10251
1.0843
1.10665
1.09453
1.08898
1.08844
1.09137
1.08432
1.07115
1.08683
1.09022
1.07796
1.08677
1.09718
1.09287
1.05611
1.07988
1.1089
1.07963
1.06966
1.04029
1.05636
1.04778
1.12671
1.12374
1.18228
1.22709
1.11442
1.1298
1.12269
1.16182
1.15101
1.10427
1.13579
1.06214
1.14128
1.06382
1.11637
1.0727
1.09009
1.08544
1.04005
1.10159
1.01496
1.08047
1.084
1.06576
1.11034
1.1291
1.19313
1.24173
1.28453
1.32197
1.31327
1.31732
1.37007
1.30208
1.26014
1.45934
1.15052
1.14772
1.15041
1.15384
1.15359
1.15273
1.15489
1.15232
1.15167
1.16038
1.16361
1.16707
1.17188
1.16929
1.16092
1.16062
1.16529
1.16585
1.16926
1.17807
1.18536
1.19035
1.19467
1.21172
1.24564
1.26577
1.25217
1.23155
1.23062
1.24996
1.26728
1.26371
1.25244
1.23881
1.21468
1.18538
1.16508
1.15865
1.16299
1.16721
1.16662
1.15439
1.15227
1.15084
1.14594
1.15305
1.15253
1.1443
1.15322
1.15236
1.14751
1.15638
1.15081
1.15362
1.15436
1.15416
1.15602
1.15647
1.15807
1.15692
1.15736
1.15879
1.15764
1.15911
1.15452
1.14938
1.15203
1.15062
1.14647
1.1483
1.1527
1.15506
1.15692
1.15322
1.157
1.16411
1.16115
1.16123
1.16068
1.16151
1.16994
1.17453
1.1707
1.17069
1.177
1.17482
1.17419
1.16838
1.16894
1.15998
1.15528
1.14728
1.14331
1.13721
1.13572
1.12618
1.12189
1.12518
1.10359
1.11548
1.11207
1.09448
1.10855
1.10612
1.09562
1.10389
1.09716
1.09707
1.10122
1.08847
1.09396
1.09932
1.08228
1.09141
1.09863
1.08387
1.08551
1.10101
1.09199
1.08552
1.11711
1.10746
1.09404
1.10915
1.09707
1.0938
1.09356
1.09139
1.08436
1.08288
1.09574
1.09211
1.08618
1.08896
1.10161
1.08903
1.05971
1.10443
1.11141
1.08646
1.06517
1.04018
1.06034
1.0537
1.11027
1.12021
1.20459
1.17956
1.08947
1.14604
1.1386
1.16549
1.1346
1.10231
1.1225
1.06432
1.13872
1.05696
1.11648
1.06206
1.08473
1.06823
1.03799
1.09684
1.00945
1.08345
1.06521
1.08194
1.1073
1.13324
1.22881
1.26006
1.30749
1.3269
1.31885
1.35602
1.40631
1.30646
1.32164
1.4607
1.14311
1.1424
1.14511
1.14816
1.15165
1.15965
1.16581
1.16633
1.16644
1.16677
1.16321
1.16128
1.16013
1.16312
1.16753
1.17018
1.16949
1.16912
1.17005
1.17096
1.17592
1.18442
1.18891
1.19533
1.21559
1.24659
1.25363
1.22582
1.19964
1.20462
1.2324
1.24918
1.24558
1.23622
1.22214
1.20414
1.18653
1.1683
1.1624
1.16567
1.16191
1.15232
1.15585
1.15546
1.14626
1.14756
1.15919
1.15365
1.15546
1.16498
1.15826
1.16381
1.16268
1.16355
1.16497
1.16441
1.16389
1.16412
1.16507
1.16356
1.16282
1.16334
1.15963
1.16084
1.16108
1.15502
1.1547
1.1523
1.15146
1.15717
1.15918
1.16332
1.16944
1.16858
1.17183
1.1746
1.17598
1.1827
1.18847
1.18849
1.18749
1.19301
1.18796
1.18757
1.19151
1.19052
1.18366
1.18387
1.17927
1.17215
1.1657
1.16256
1.15286
1.15086
1.14259
1.13479
1.13004
1.1388
1.12171
1.13113
1.13536
1.11156
1.12666
1.12467
1.10544
1.12151
1.11305
1.10479
1.11615
1.10377
1.10531
1.11666
1.09788
1.10144
1.11153
1.09561
1.09953
1.10574
1.09579
1.09742
1.11702
1.10936
1.09942
1.11001
1.10422
1.1001
1.09856
1.09412
1.08539
1.09671
1.09933
1.09206
1.09597
1.09437
1.10772
1.08083
1.07702
1.1202
1.1116
1.1016
1.05875
1.03505
1.0588
1.06043
1.10585
1.13461
1.15717
1.10883
1.11468
1.16651
1.13827
1.15455
1.11118
1.10084
1.11345
1.07224
1.13356
1.04621
1.11156
1.04485
1.07686
1.05123
1.03813
1.08742
1.01209
1.08506
1.0622
1.09427
1.09286
1.1465
1.2703
1.27174
1.32493
1.30324
1.31369
1.37613
1.43117
1.26947
1.32112
1.53067
1.13747
1.14139
1.14562
1.14867
1.14826
1.15713
1.16404
1.16983
1.17431
1.17628
1.17814
1.17688
1.17136
1.16913
1.16985
1.17151
1.17183
1.17244
1.17077
1.16717
1.16586
1.17016
1.17831
1.18547
1.19214
1.21067
1.24142
1.25121
1.22211
1.18997
1.18644
1.20033
1.20089
1.19
1.18168
1.17893
1.18024
1.17435
1.16761
1.1706
1.17016
1.15441
1.15528
1.16406
1.1626
1.15311
1.16122
1.16192
1.15374
1.15882
1.1557
1.15637
1.15815
1.157
1.15738
1.1595
1.15928
1.16003
1.15981
1.1612
1.16023
1.16175
1.16187
1.15784
1.16064
1.15984
1.15927
1.16447
1.16664
1.17602
1.18
1.18035
1.18406
1.18586
1.19438
1.20323
1.19525
1.19807
1.19872
1.20087
1.20684
1.21273
1.20381
1.20743
1.20514
1.19951
1.19529
1.19407
1.1874
1.18264