/*--------------------------------*- C++ -*----------------------------------*\
| =========                 |                                                 |
| \\      /  F ield         | OpenFOAM: The Open Source CFD Toolbox           |
|  \\    /   O peration     | Version:  dev                                   |
|   \\  /    A nd           | Web:      http://www.openfoam.org               |
|    \\/     M anipulation  |                                                 |
\*---------------------------------------------------------------------------*/
FoamFile
{
    version     2.0;
    format      ascii;
    class       volVectorField;
    object      U;
    location    "9.12";
}
// * * * * * * * * * * * * * * * * * * * * * * * * * * * * * * * * * * * * * //

dimensions      [0 1 -1 0 0 0 0];

internalField   nonuniform List<vector> 
12225
(
(6.69127 0.212232 0)
(3.94493 0.109164 0)
(1.56572 -0.0286094 0)
(0.496482 -0.0728446 0)
(-0.951626 -0.0403022 0)
(-1.12798 -0.0500866 0)
(-2.68871 -0.00132801 0)
(-2.50974 -0.0413199 0)
(-4.36494 0.0499074 0)
(-3.71027 -0.0181418 0)
(-6.23582 0.0941657 0)
(-4.85583 0.0294679 0)
(-8.34631 0.192952 0)
(-6.52471 0.196978 0)
(-9.85232 0.0751069 0)
(-12.0484 1.12549 0)
(-8.30054 0.285912 0)
(-24.7234 5.61362 0)
(9.41142 0.613938 0)
(8.96789 0.60743 0)
(6.16663 0.240425 0)
(5.70963 -0.0216203 0)
(2.68107 -0.079594 0)
(3.77657 -0.14374 0)
(0.221412 -0.0807768 0)
(2.62463 -0.147155 0)
(-2.02023 -0.0178393 0)
(2.08693 -0.0624209 0)
(-4.38395 0.0582003 0)
(1.99805 -0.045668 0)
(-6.74797 0.618672 0)
(1.62252 -0.674617 0)
(-8.05426 2.33399 0)
(-2.77924 -2.28594 0)
(-3.4852 2.12785 0)
(-20.5038 6.39319 0)
(9.27248 -0.149098 0)
(11.2662 0.378398 0)
(8.21361 0.131592 0)
(9.53097 -0.0735963 0)
(5.19797 -0.150948 0)
(7.92754 -0.170869 0)
(2.51139 -0.193796 0)
(6.8268 -0.163988 0)
(0.133379 -0.11551 0)
(5.90085 -0.168673 0)
(-1.17251 0.0968714 0)
(4.49991 -0.364985 0)
(-1.62793 0.71595 0)
(2.12936 -0.795986 0)
(-2.53779 2.51408 0)
(-1.99387 -2.64285 0)
(-5.21161 6.82632 0)
(-4.13067 4.95968 0)
(8.14078 -0.645189 0)
(12.4942 0.112192 0)
(8.06538 -0.147369 0)
(11.7086 -0.284778 0)
(6.41949 -0.314072 0)
(10.4747 -0.324948 0)
(4.74581 -0.228248 0)
(9.07551 -0.39061 0)
(3.36728 0.0828718 0)
(7.4764 -0.693107 0)
(2.40359 0.665773 0)
(5.66142 -1.26079 0)
(1.47 1.86178 0)
(3.26417 -2.2407 0)
(0.575497 4.07499 0)
(-0.371207 -2.61976 0)
(-0.362653 3.47549 0)
(-3.65994 8.01337 0)
(7.46263 -1.26857 0)
(12.6854 -0.424936 0)
(8.44116 -0.582063 0)
(11.6301 -0.692871 0)
(7.83236 -0.534037 0)
(10.0918 -0.721283 0)
(7.14721 -0.324521 0)
(8.4501 -0.758991 0)
(6.46919 0.075548 0)
(6.73276 -1.05504 0)
(5.61231 0.844878 0)
(4.99822 -1.5484 0)
(4.50182 2.33188 0)
(3.07006 -2.17794 0)
(3.40326 5.5205 0)
(1.53061 -2.83568 0)
(0.419302 7.65383 0)
(0.795242 6.65338 0)
(8.66486 -1.73936 0)
(11.4377 -1.1368 0)
(9.2581 -0.837842 0)
(10.0236 -1.2569 0)
(8.67502 -0.60903 0)
(8.64566 -1.27496 0)
(8.11562 -0.303185 0)
(7.46244 -1.29326 0)
(7.46207 0.14554 0)
(6.27827 -1.40673 0)
(6.56168 0.862597 0)
(5.11004 -1.48553 0)
(5.48179 1.80613 0)
(3.9025 -1.1829 0)
(4.12702 3.27722 0)
(3.40681 0.00809585 0)
(0.486941 4.48124 0)
(3.12238 5.95585 0)
(9.23121 -2.25319 0)
(9.92537 -1.64625 0)
(9.59091 -1.12943 0)
(8.84001 -1.75864 0)
(8.88308 -0.957942 0)
(7.77645 -1.74535 0)
(8.22087 -0.595514 0)
(6.98766 -1.63235 0)
(7.55166 -0.0263389 0)
(6.20028 -1.58464 0)
(6.68582 0.642328 0)
(5.32666 -1.46205 0)
(5.67232 1.51803 0)
(4.29348 -1.01578 0)
(4.31348 2.71945 0)
(3.37633 0.326544 0)
(2.30362 3.74327 0)
(2.95284 5.81925 0)
(9.89845 -2.86689 0)
(9.91913 -2.24507 0)
(10.0031 -1.49705 0)
(8.99926 -2.21881 0)
(9.03479 -1.25942 0)
(7.94309 -2.14943 0)
(8.14363 -0.95152 0)
(7.17076 -1.97817 0)
(7.41311 -0.484273 0)
(6.47371 -1.67846 0)
(6.54107 0.0197292 0)
(5.75362 -1.25634 0)
(5.5143 0.702151 0)
(4.84426 -0.349519 0)
(4.26377 1.72864 0)
(3.83189 1.485 0)
(3.07566 3.13609 0)
(3.15384 5.16895 0)
(10.1458 -3.43636 0)
(9.83771 -2.61029 0)
(9.87776 -1.86025 0)
(8.96476 -2.58823 0)
(8.89098 -1.64945 0)
(8.02355 -2.44922 0)
(8.0007 -1.32348 0)
(7.26359 -2.20288 0)
(7.25581 -0.870396 0)
(6.56687 -1.76801 0)
(6.38471 -0.317894 0)
(5.87596 -1.20486 0)
(5.49927 0.377818 0)
(4.96747 -0.080482 0)
(4.46328 1.3721 0)
(4.15902 1.78924 0)
(3.74225 2.88566 0)
(3.69093 4.51802 0)
(10.1107 -3.84732 0)
(10.0232 -3.00665 0)
(9.96145 -2.17416 0)
(9.1084 -2.89828 0)
(8.83599 -1.94302 0)
(8.12679 -2.69418 0)
(7.93084 -1.68783 0)
(7.37883 -2.36987 0)
(7.22728 -1.27943 0)
(6.72365 -1.83478 0)
(6.41684 -0.719425 0)
(6.06176 -1.05669 0)
(5.63339 -0.04898 0)
(5.21797 0.0828125 0)
(4.76775 1.04116 0)
(4.50298 1.77366 0)
(4.32329 2.54063 0)
(4.28668 3.81125 0)
(9.99262 -4.79177 0)
(9.75866 -3.57174 0)
(9.54443 -2.75021 0)
(8.9494 -3.36404 0)
(8.68453 -2.52928 0)
(8.19436 -3.08581 0)
(7.92222 -2.28775 0)
(7.47824 -2.68252 0)
(7.20825 -1.85775 0)
(6.81699 -2.04731 0)
(6.48523 -1.19924 0)
(6.18831 -1.11269 0)
(5.82753 -0.431535 0)
(5.49827 -0.00648207 0)
(5.20876 0.709559 0)
(4.98247 1.52361 0)
(4.90471 2.2365 0)
(4.9869 3.16641 0)
(9.93373 -5.42123 0)
(9.96872 -3.94512 0)
(9.6841 -3.34369 0)
(9.20296 -3.79847 0)
(8.83403 -3.17732 0)
(8.40528 -3.44105 0)
(8.04068 -2.8583 0)
(7.6512 -2.95849 0)
(7.33154 -2.37633 0)
(6.9881 -2.23776 0)
(6.66518 -1.65584 0)
(6.35884 -1.30866 0)
(6.03668 -0.773444 0)
(5.7818 -0.266852 0)
(5.58566 0.363219 0)
(5.42731 1.08869 0)
(5.39196 1.79174 0)
(5.48676 2.49309 0)
(10.0216 -6.50053 0)
(10.0123 -4.6381 0)
(9.61705 -4.16164 0)
(9.14676 -4.37181 0)
(8.74404 -3.88349 0)
(8.4113 -3.93237 0)
(8.10326 -3.4998 0)
(7.81181 -3.4032 0)
(7.54044 -2.94883 0)
(7.25584 -2.6529 0)
(6.98103 -2.16989 0)
(6.72707 -1.71781 0)
(6.45295 -1.15497 0)
(6.29042 -0.629372 0)
(6.16811 -0.0347182 0)
(6.04945 0.614777 0)
(6.01711 1.25183 0)
(6.13993 1.82112 0)
(9.80258 -7.37385 0)
(9.92753 -5.12864 0)
(9.55551 -4.80491 0)
(9.16926 -4.89787 0)
(8.82835 -4.60813 0)
(8.57972 -4.52874 0)
(8.32634 -4.18107 0)
(8.08733 -3.93693 0)
(7.84904 -3.50714 0)
(7.59833 -3.15404 0)
(7.35461 -2.66343 0)
(7.1525 -2.21337 0)
(6.89908 -1.64545 0)
(6.74372 -1.10266 0)
(6.6923 -0.56562 0)
(6.66022 0.00724338 0)
(6.64502 0.569763 0)
(6.80536 1.07657 0)
(9.89543 -8.48235 0)
(10.0199 -5.87498 0)
(9.66392 -5.66689 0)
(9.31962 -5.64283 0)
(8.99283 -5.40512 0)
(8.75694 -5.22788 0)
(8.51554 -4.91481 0)
(8.31268 -4.59769 0)
(8.07968 -4.17162 0)
(7.89333 -3.74969 0)
(7.68636 -3.23319 0)
(7.54366 -2.74782 0)
(7.38858 -2.21371 0)
(7.27313 -1.67403 0)
(7.23273 -1.15972 0)
(7.24499 -0.684043 0)
(7.25861 -0.198942 0)
(7.44146 0.235998 0)
(10.0148 -9.4994 0)
(10.0343 -6.5129 0)
(9.7293 -6.31918 0)
(9.47011 -6.2707 0)
(9.21565 -6.10499 0)
(9.04352 -5.88604 0)
(8.8447 -5.55945 0)
(8.69816 -5.19117 0)
(8.52376 -4.76638 0)
(8.40698 -4.31311 0)
(8.26951 -3.83123 0)
(8.19242 -3.34949 0)
(8.10446 -2.87951 0)
(8.08978 -2.40297 0)
(8.07407 -1.93092 0)
(8.12531 -1.49214 0)
(8.15984 -1.03438 0)
(8.33406 -0.618424 0)
(9.83677 -10.2217 0)
(9.97853 -7.04715 0)
(9.78383 -6.98807 0)
(9.66013 -6.92762 0)
(9.51331 -6.73092 0)
(9.43881 -6.46475 0)
(9.32 -6.13955 0)
(9.25083 -5.77589 0)
(9.13914 -5.36948 0)
(9.09353 -4.93265 0)
(9.00299 -4.46678 0)
(8.96055 -4.00628 0)
(8.8905 -3.54244 0)
(8.88211 -3.08983 0)
(8.85867 -2.6519 0)
(8.92435 -2.23637 0)
(8.95802 -1.8323 0)
(9.12244 -1.4633 0)
(10.0047 -10.739 0)
(10.1273 -7.43796 0)
(10.0017 -7.31882 0)
(9.93912 -7.24506 0)
(9.85023 -7.09739 0)
(9.82066 -6.86348 0)
(9.74148 -6.53184 0)
(9.7174 -6.14185 0)
(9.65246 -5.7153 0)
(9.66142 -5.2757 0)
(9.65099 -4.84701 0)
(9.70619 -4.42441 0)
(9.72257 -4.00734 0)
(9.77474 -3.60803 0)
(9.79305 -3.20959 0)
(9.84696 -2.83771 0)
(9.84353 -2.47488 0)
(9.97815 -2.13883 0)
(9.85915 -10.7374 0)
(10.0354 -7.42678 0)
(10.1255 -7.29507 0)
(10.2381 -7.17139 0)
(10.2635 -6.99168 0)
(10.3045 -6.76125 0)
(10.2761 -6.46954 0)
(10.291 -6.14636 0)
(10.2627 -5.83736 0)
(10.2741 -5.51356 0)
(10.2766 -5.18361 0)
(10.3437 -4.82036 0)
(10.3685 -4.41444 0)
(10.4501 -3.99117 0)
(10.4914 -3.55009 0)
(10.5585 -3.15875 0)
(10.5585 -2.7756 0)
(10.6448 -2.43322 0)
(9.81936 -10.0642 0)
(10.0917 -7.23938 0)
(10.2342 -7.14994 0)
(10.3744 -6.9948 0)
(10.468 -6.79632 0)
(10.6265 -6.56031 0)
(10.7588 -6.29137 0)
(10.9037 -5.99938 0)
(10.9635 -5.70167 0)
(11.0348 -5.38659 0)
(11.0543 -5.06251 0)
(11.1104 -4.7396 0)
(11.1195 -4.38056 0)
(11.1642 -3.9921 0)
(11.1847 -3.59872 0)
(11.2463 -3.23722 0)
(11.2695 -2.89779 0)
(11.3539 -2.61675 0)
(9.92088 -9.16933 0)
(10.2312 -6.70478 0)
(10.433 -6.66421 0)
(10.6379 -6.55337 0)
(10.7877 -6.42289 0)
(10.9727 -6.26716 0)
(11.0972 -6.07547 0)
(11.2516 -5.81163 0)
(11.352 -5.48977 0)
(11.4645 -5.13802 0)
(11.4962 -4.77922 0)
(11.5313 -4.43992 0)
(11.544 -4.11222 0)
(11.6077 -3.77438 0)
(11.6481 -3.4537 0)
(11.701 -3.13599 0)
(11.711 -2.84818 0)
(11.7795 -2.6164 0)
(10.0789 -8.28563 0)
(10.279 -6.05253 0)
(10.5839 -6.03367 0)
(10.8912 -5.93739 0)
(11.1134 -5.8134 0)
(11.2946 -5.6625 0)
(11.4011 -5.48287 0)
(11.5111 -5.21691 0)
(11.5913 -4.92586 0)
(11.7345 -4.60823 0)
(11.8369 -4.31179 0)
(11.9429 -4.02033 0)
(12.0333 -3.75598 0)
(12.1215 -3.47368 0)
(12.1782 -3.22007 0)
(12.254 -2.97636 0)
(12.2749 -2.71957 0)
(12.3218 -2.51519 0)
(9.77413 -7.14834 0)
(10.1722 -5.3213 0)
(10.6334 -5.37593 0)
(11.0278 -5.31676 0)
(11.3127 -5.17262 0)
(11.5519 -4.96895 0)
(11.7449 -4.75107 0)
(11.9487 -4.52737 0)
(12.1134 -4.31678 0)
(12.2814 -4.0855 0)
(12.3926 -3.88255 0)
(12.505 -3.64156 0)
(12.5835 -3.38477 0)
(12.6644 -3.13726 0)
(12.7046 -2.90528 0)
(12.7638 -2.67903 0)
(12.7953 -2.47439 0)
(12.8372 -2.29254 0)
(9.98915 -6.03754 0)
(10.4149 -4.6133 0)
(10.9442 -4.61868 0)
(11.3569 -4.52144 0)
(11.6856 -4.39091 0)
(11.9627 -4.24742 0)
(12.1895 -4.09469 0)
(12.3949 -3.91465 0)
(12.5596 -3.73419 0)
(12.7033 -3.55192 0)
(12.7963 -3.3566 0)
(12.902 -3.14167 0)
(12.9649 -2.94585 0)
(13.0364 -2.7506 0)
(13.0791 -2.57852 0)
(13.132 -2.40021 0)
(13.1699 -2.24107 0)
(13.2114 -2.09564 0)
(9.83306 -4.9018 0)
(10.3544 -3.84007 0)
(11.0191 -3.89677 0)
(11.5426 -3.82297 0)
(11.958 -3.68522 0)
(12.273 -3.52413 0)
(12.5091 -3.37502 0)
(12.6916 -3.22646 0)
(12.8362 -3.0982 0)
(12.982 -2.97303 0)
(13.1017 -2.82662 0)
(13.2221 -2.68072 0)
(13.3021 -2.53515 0)
(13.3726 -2.38212 0)
(13.3881 -2.22873 0)
(13.4057 -2.07965 0)
(13.3819 -1.94229 0)
(13.387 -1.81601 0)
(9.73608 -3.97688 0)
(10.3774 -3.23175 0)
(11.1127 -3.27406 0)
(11.5921 -3.16507 0)
(11.9687 -3.01189 0)
(12.2883 -2.87209 0)
(12.5748 -2.74406 0)
(12.8118 -2.6337 0)
(12.9851 -2.56691 0)
(13.1371 -2.47298 0)
(13.2589 -2.35903 0)
(13.3522 -2.24037 0)
(13.3959 -2.11612 0)
(13.4281 -1.98674 0)
(13.3861 -1.85838 0)
(13.3562 -1.74118 0)
(13.2952 -1.63046 0)
(13.2414 -1.52447 0)
(9.94651 -2.98401 0)
(10.5755 -2.67999 0)
(11.3895 -2.70503 0)
(11.9001 -2.57548 0)
(12.2815 -2.44136 0)
(12.5876 -2.3044 0)
(12.8357 -2.19151 0)
(12.9955 -2.10486 0)
(13.0864 -2.02844 0)
(13.1056 -1.94261 0)
(13.0823 -1.84518 0)
(13.002 -1.7514 0)
(12.8949 -1.64722 0)
(12.7791 -1.54019 0)
(12.6297 -1.43346 0)
(12.4841 -1.34816 0)
(12.3152 -1.26161 0)
(12.1425 -1.19225 0)
(9.95265 -2.18152 0)
(10.8862 -2.12757 0)
(11.6053 -2.099 0)
(11.854 -1.96258 0)
(11.9295 -1.83323 0)
(11.9124 -1.70659 0)
(11.8564 -1.60701 0)
(11.7653 -1.51608 0)
(11.6352 -1.4355 0)
(11.436 -1.35837 0)
(11.2085 -1.27425 0)
(10.9469 -1.19458 0)
(10.7003 -1.10916 0)
(10.4453 -1.02275 0)
(10.1982 -0.948436 0)
(9.94754 -0.881991 0)
(9.67975 -0.813448 0)
(9.41504 -0.761851 0)
(9.82335 -1.78587 0)
(10.2645 -1.7769 0)
(10.2046 -1.59693 0)
(9.74499 -1.34913 0)
(9.27734 -1.12934 0)
(8.8738 -0.974285 0)
(8.53974 -0.871516 0)
(8.2534 -0.790669 0)
(7.99917 -0.7398 0)
(7.73056 -0.693021 0)
(7.47644 -0.643565 0)
(7.23974 -0.597306 0)
(7.02253 -0.559035 0)
(6.81129 -0.511418 0)
(6.59852 -0.475476 0)
(6.40762 -0.426798 0)
(6.21636 -0.37833 0)
(6.01007 -0.342194 0)
(8.5803 -0.786192 0)
(6.51987 -0.651924 0)
(5.03902 -0.418732 0)
(4.14653 -0.271448 0)
(3.78251 -0.215455 0)
(3.67668 -0.205473 0)
(3.66354 -0.2057 0)
(3.68217 -0.199829 0)
(3.69606 -0.196301 0)
(3.67594 -0.193639 0)
(3.64798 -0.18212 0)
(3.61248 -0.168642 0)
(3.55951 -0.160389 0)
(3.49973 -0.148181 0)
(3.44501 -0.134569 0)
(3.40695 -0.114787 0)
(3.35419 -0.100105 0)
(3.25875 -0.0704525 0)
(0.204938 1.27546 0)
(0.584012 1.42071 0)
(0.86153 1.43323 0)
(1.19406 1.30656 0)
(1.56809 1.18067 0)
(2.07218 1.06364 0)
(2.68455 0.965206 1.10489e-17)
(3.38487 0.892853 -1.10142e-17)
(4.10817 0.84046 0)
(4.879 0.813227 -1.09191e-17)
(5.65238 0.765003 0)
(6.42165 0.7469 0)
(7.24191 0.719919 0)
(8.08633 0.69974 1.0708e-17)
(8.92103 0.680115 0)
(9.73473 0.66069 0)
(10.5636 0.664511 -1.05326e-17)
(11.3529 0.665921 0)
(12.1403 0.672961 0)
(12.897 0.690463 0)
(13.6063 0.714953 1.02798e-17)
(14.2114 0.761099 0)
(14.7666 0.800641 1.01383e-17)
(15.2441 0.839991 0)
(15.6579 0.877094 0)
(15.9478 0.916663 9.93037e-18)
(16.1197 0.961648 0)
(16.2822 0.998841 -9.80159e-18)
(16.3015 1.03338 0)
(16.2338 1.08812 9.68576e-18)
(15.9996 1.13474 0)
(15.8007 1.18158 0)
(15.3081 1.32157 0)
(14.7336 0.895182 0)
(14.4674 0.150599 0)
(14.1577 0.185501 -9.40882e-18)
(14.0311 0.567888 0)
(14.0473 0.689166 1.84165e-17)
(13.8475 0.616667 0)
(13.5826 0.496076 -1.79366e-17)
(13.3968 0.390833 0)
(13.3876 0.199966 0)
(13.624 0.0403605 1.74142e-17)
(13.8787 0.0242238 0)
(14.05 0.108468 1.71759e-17)
(13.9165 0.244157 -1.71039e-17)
(13.5353 0.236779 0)
(12.9623 -0.0132267 -1.72257e-17)
(12.2623 0.00252875 -1.72801e-17)
(11.2586 0.271443 0)
(11.0387 -0.100272 0)
(11.9154 -0.878902 0)
(12.3833 -1.16944 0)
(12.5082 -1.79133 0)
(12.1556 -1.92314 1.63979e-17)
(11.8595 -1.34708 0)
(11.2806 -0.209966 -1.6542e-17)
(9.75671 0.83283 0)
(7.79203 0.919024 0)
(6.29609 0.670531 1.58492e-17)
(4.93287 0.539386 0)
(3.71063 0.422523 -1.54939e-17)
(2.64017 0.319303 0)
(1.69436 0.20666 0)
(0.869571 0.107501 0)
(0.16503 0.0114011 1.4897e-17)
(-0.437334 -0.0699726 0)
(-0.935739 -0.139264 0)
(-1.3399 -0.21083 1.44914e-17)
(-1.67472 -0.286031 0)
(-1.94123 -0.336318 1.42324e-17)
(-2.1426 -0.384429 0)
(-2.29751 -0.436867 0)
(-2.4192 -0.472324 0)
(-2.51669 -0.507787 -1.37327e-17)
(-2.58553 -0.539183 0)
(-2.64399 -0.567758 0)
(-2.69047 -0.586471 -1.33649e-17)
(-2.73768 -0.609271 -1.32417e-17)
(-2.78846 -0.61972 0)
(-2.8488 -0.629554 -1.29986e-17)
(-2.91157 -0.649291 0)
(-2.99325 -0.648489 -2.55189e-17)
(-3.07513 -0.653245 0)
(-3.1446 -0.676743 -2.50379e-17)
(-3.21993 -0.691968 0)
(-3.27946 -0.703548 2.45581e-17)
(-3.32255 -0.713698 0)
(-3.37234 -0.726762 0)
(-3.43159 -0.730525 0)
(-3.49683 -0.738916 -2.36505e-17)
(-3.56084 -0.733426 0)
(-3.62863 -0.723211 2.32187e-17)
(-3.68557 -0.758722 0)
(-3.76243 -0.746848 -2.27941e-17)
(-3.85822 -0.746162 -2.2595e-17)
(-4.00255 -0.732369 -2.24004e-17)
(-4.1557 -0.730441 0)
(-4.34214 -0.714815 0)
(-4.54466 -0.716034 0)
(-4.78532 -0.705855 0)
(-5.05082 -0.704615 0)
(-5.28919 -0.705189 0)
(-5.55743 -0.715946 0)
(-5.82194 -0.712651 0)
(-6.05936 -0.686525 2.11034e-17)
(-6.27388 -0.650427 2.10066e-17)
(-6.47341 -0.652251 0)
(-6.70996 -0.670238 0)
(-6.98754 -0.64541 0)
(-7.31557 -0.567636 2.07341e-17)
(-7.67901 -0.493274 0)
(-8.06372 -0.403231 0)
(-8.45057 -0.323966 0)
(-8.76382 -0.291039 0)
(-9.03168 -0.275611 -1.99749e-17)
(-9.28518 -0.260951 0)
(-9.42968 -0.225303 0)
(-9.41558 -0.186816 1.95361e-17)
(-9.2058 -0.171765 -1.93879e-17)
(-8.90007 -0.148873 0)
(-8.60264 -0.100928 -1.91625e-17)
(-8.23435 -0.0614057 0)
(-7.66985 -0.132882 1.91308e-17)
(-6.9387 -0.124484 0)
(-6.06032 -0.0785201 0)
(-5.08061 -0.0711108 0)
(-4.23864 -0.00925232 0)
(-3.50214 0.0779878 0)
(-2.74095 0.114951 -3.82711e-17)
(-2.03033 0.132509 -3.82098e-17)
(-0.996729 0.0760354 0)
(0.0356022 0.142481 0)
(1.03997 0.187277 0)
(2.17222 0.147058 3.7379e-17)
(3.33991 0.122794 0)
(4.49812 0.169474 0)
(5.81645 0.197199 0)
(6.97021 0.269385 3.60077e-17)
(7.93277 0.334072 -3.5479e-17)
(8.46586 0.424552 0)
(9.13436 0.42124 0)
(8.77885 0.533663 -3.46858e-17)
(8.77043 0.474093 -3.45069e-17)
(7.90506 0.48978 0)
(7.9393 0.499166 0)
(7.07528 0.554625 3.39695e-17)
(6.26593 0.618423 -3.35832e-17)
(4.99829 0.766053 0)
(3.06754 0.917238 0)
(1.52863 1.04178 -3.26672e-17)
(-0.76823 1.00965 0)
(-1.70645 0.990544 0)
(-2.6958 0.988203 -3.17699e-17)
(-3.27258 0.911032 0)
(-3.19553 0.894922 -3.11583e-17)
(-3.31068 0.893385 0)
(-2.68819 0.829792 0)
(-2.27894 0.927482 0)
(-1.37852 0.676604 3.00375e-17)
(-0.6753 0.610227 0)
(0.361142 0.530647 0)
(1.37158 0.651579 0)
(2.69546 0.663374 0)
(3.7784 0.648816 0)
(4.64715 0.604374 0)
(6.46287 0.317491 2.79898e-17)
(7.40851 0.44569 2.80624e-17)
(8.28895 0.686818 0)
(7.06951 1.10828 0)
(5.12257 0.871607 0)
(7.26553 0.137883 -2.53696e-17)
(8.70373 0.194444 0)
(9.5407 0.220278 5.2208e-17)
(9.59303 0.260353 -5.25475e-17)
(8.80088 0.234279 -5.24387e-17)
(8.12515 0.119728 5.2409e-17)
(6.53943 -0.01817 -5.2157e-17)
(5.90771 -0.0558571 5.15076e-17)
(4.61653 -0.125045 0)
(0.190265 3.60904 0)
(0.684165 3.64476 0)
(1.14902 3.78128 -2.20668e-17)
(1.58317 3.66569 0)
(2.06723 3.36099 2.1834e-17)
(2.64825 3.0001 2.21034e-17)
(3.31318 2.69096 1.11483e-17)
(4.04385 2.4679 1.12562e-17)
(4.78296 2.34025 0)
(5.54146 2.26122 1.12472e-17)
(6.3377 2.15832 0)
(7.13207 2.05625 0)
(7.95198 1.97657 -2.22943e-17)
(8.79537 1.88276 -1.11242e-17)
(9.64214 1.82501 2.20946e-17)
(10.5354 1.76889 2.19841e-17)
(11.3882 1.72198 1.09435e-17)
(12.2136 1.73556 0)
(13.0321 1.73132 0)
(13.8189 1.7314 0)
(14.5535 1.76412 1.06422e-17)
(15.2655 1.87275 0)
(15.8921 1.97814 -3.13759e-17)
(16.4717 2.08788 0)
(16.908 2.1705 0)
(17.3462 2.28754 -1.0148e-17)
(17.6047 2.35776 0)
(17.8535 2.47021 9.92646e-18)
(17.9674 2.56991 1.9642e-17)
(18.0975 2.64208 -9.72819e-18)
(18.0124 2.75319 0)
(17.9686 2.84655 0)
(17.8104 3.02447 0)
(17.4406 3.0312 1.88239e-17)
(17.0913 3.07233 1.87783e-17)
(15.9858 2.7325 9.43552e-18)
(14.8571 1.56449 0)
(14.0628 1.17163 -1.76863e-17)
(13.5592 1.36151 0)
(13.4243 1.1649 1.71712e-17)
(13.3566 0.894449 0)
(13.6675 0.234408 0)
(14.0973 -0.304211 -1.69964e-17)
(14.5394 -0.4226 0)
(14.7661 -0.062219 -5.05127e-17)
(14.6864 0.657326 1.67162e-17)
(14.1053 1.10583 0)
(13.1956 1.47086 1.62682e-17)
(12.2554 1.50816 1.63164e-17)
(12.1829 0.527319 0)
(12.5319 -1.39349 0)
(11.6541 -2.61667 0)
(10.4148 -0.807961 0)
(8.70986 1.14997 0)
(6.05256 1.30234 -1.62064e-17)
(4.3334 1.52656 -3.22532e-17)
(2.92701 1.75312 1.59286e-17)
(1.90598 1.78533 0)
(0.761239 1.54775 -3.10822e-17)
(-0.186841 1.23828 1.54121e-17)
(-1.13462 0.915896 0)
(-1.92808 0.591302 1.51074e-17)
(-2.67463 0.277891 0)
(-3.27396 -0.00412525 0)
(-3.80714 -0.27617 2.94379e-17)
(-4.21338 -0.520899 -1.45856e-17)
(-4.56586 -0.754196 2.89331e-17)
(-4.82571 -0.975484 -2.86936e-17)
(-5.02706 -1.1642 -1.42012e-17)
(-5.14649 -1.33914 0)
(-5.23429 -1.49311 -1.39482e-17)
(-5.26454 -1.62948 0)
(-5.26944 -1.75496 0)
(-5.23267 -1.8569 0)
(-5.19694 -1.95148 -1.34744e-17)
(-5.13384 -2.03135 0)
(-5.06651 -2.10566 -2.6387e-17)
(-5.00349 -2.15534 3.91677e-17)
(-4.93392 -2.21495 1.29069e-17)
(-4.87696 -2.24325 0)
(-4.83178 -2.27976 1.26406e-17)
(-4.78209 -2.32171 0)
(-4.74996 -2.34091 2.47619e-17)
(-4.73075 -2.39306 0)
(-4.68649 -2.45999 2.42599e-17)
(-4.65788 -2.48414 -4.80633e-17)
(-4.61173 -2.52137 -2.37213e-17)
(-4.56895 -2.53925 0)
(-4.51087 -2.57215 0)
(-4.48773 -2.57078 0)
(-4.42668 -2.60649 2.26796e-17)
(-4.41766 -2.57904 0)
(-4.43036 -2.55242 -2.21644e-17)
(-4.37231 -2.5856 0)
(-4.34904 -2.57239 6.50978e-17)
(-4.34693 -2.56416 2.1432e-17)
(-4.41674 -2.52004 2.11955e-17)
(-4.45702 -2.52962 0)
(-4.57021 -2.51725 0)
(-4.68138 -2.52128 0)
(-4.854 -2.46898 0)
(-5.02118 -2.40918 0)
(-5.16956 -2.35088 4.04972e-17)
(-5.33502 -2.31141 4.03752e-17)
(-5.51541 -2.31345 0)
(-5.74737 -2.34186 -2.00743e-17)
(-6.05839 -2.32986 -2.00432e-17)
(-6.3831 -2.20416 0)
(-6.72704 -2.06379 -4.03382e-17)
(-7.05124 -1.89513 0)
(-7.40616 -1.71154 2.0012e-17)
(-7.81829 -1.59968 0)
(-8.19121 -1.49065 0)
(-8.53586 -1.40556 -3.85029e-17)
(-8.75632 -1.33208 0)
(-8.91414 -1.18759 1.86857e-17)
(-9.16635 -1.04363 0)
(-9.36659 -1.02525 0)
(-9.41829 -1.08216 1.84582e-17)
(-9.21452 -1.07702 1.83191e-17)
(-8.85743 -0.91522 0)
(-8.38426 -0.737622 -1.79436e-17)
(-7.88218 -0.533295 0)
(-7.19588 -0.449093 1.78546e-17)
(-6.6338 -0.503655 3.69124e-17)
(-6.16437 -0.578826 0)
(-5.42492 -0.447422 0)
(-4.59678 -0.106397 0)
(-3.84961 0.138845 0)
(-2.96302 0.20072 3.95321e-17)
(-2.03534 0.0946383 1.18716e-16)
(-0.775802 -0.0819195 0)
(0.362032 0.000399001 0)
(1.59471 0.00478592 0)
(2.87951 -0.0897305 -3.8658e-17)
(4.27626 -0.138918 0)
(5.75209 -0.10722 0)
(7.13271 -0.273126 7.55996e-17)
(8.56652 -0.0427003 3.75552e-17)
(9.66174 -0.0259849 3.66672e-17)
(10.5528 0.310638 0)
(12.8652 0.549225 0)
(12.3226 1.21326 3.25974e-17)
(13.0218 1.3384 -3.22668e-17)
(11.8279 1.33506 0)
(11.3744 1.29634 0)
(10.494 1.78954 -3.3074e-17)
(8.79109 2.11591 9.75848e-17)
(6.32991 2.77643 0)
(3.15118 2.70513 0)
(1.25818 2.91635 3.18948e-17)
(-0.821131 2.70973 0)
(-1.94326 2.22795 6.37231e-17)
(-2.37965 2.31228 -3.15274e-17)
(-2.87886 1.92487 0)
(-2.35709 1.73559 3.09036e-17)
(-2.13106 1.76652 6.11345e-17)
(-0.856128 1.62961 0)
(-0.06765 1.75281 0)
(1.47217 1.6238 -2.88943e-17)
(1.9687 1.96233 0)
(2.87328 1.74462 5.62625e-17)
(3.01058 1.52963 0)
(3.93559 1.30605 0)
(4.84274 1.35359 0)
(5.68514 1.07389 0)
(7.57203 0.712004 -2.54525e-17)
(7.54635 1.27919 -2.57099e-17)
(7.24338 1.52125 0)
(5.35938 1.87455 0)
(4.21036 0.617978 0)
(6.92532 -1.12458 2.23087e-17)
(9.25253 -0.683829 0)
(10.9503 -0.529876 -4.58553e-17)
(11.4756 -0.0713247 4.66288e-17)
(11.1333 -0.00798408 4.67104e-17)
(10.3928 0.125453 4.70854e-17)
(8.3737 -0.0741206 4.75494e-17)
(7.5126 -0.433419 4.64862e-17)
(6.03284 -0.39416 0)
(0.190258 5.88799 0)
(0.656569 5.7447 0)
(1.15684 5.87829 2.27303e-17)
(1.68982 5.75032 2.25554e-17)
(2.3046 5.36305 -2.29774e-17)
(2.97981 4.87771 -2.34471e-17)
(3.67057 4.46318 -5.98283e-20)
(4.39075 4.18428 0)
(5.09389 4.03942 0)
(5.79174 3.90959 0)
(6.52761 3.77459 0)
(7.2426 3.57609 0)
(7.98497 3.42583 6.99784e-17)
(8.75818 3.25757 0)
(9.54143 3.11988 -2.30699e-17)
(10.3377 3.00562 -2.29131e-17)
(11.1084 2.90608 0)
(11.9282 2.89656 0)
(12.6672 2.88505 0)
(13.4409 2.9362 0)
(14.1127 2.98541 -2.20423e-17)
(14.814 3.10611 0)
(15.4398 3.22849 2.16198e-17)
(16.0673 3.42095 0)
(16.5251 3.56345 0)
(16.9843 3.7173 0)
(17.2809 3.88362 4.11066e-17)
(17.5739 4.0587 0)
(17.7358 4.13301 -2.00266e-17)
(17.8852 4.21625 3.93427e-17)
(18.0036 4.41581 0)
(18.0509 4.45798 0)
(18.1433 4.58847 0)
(18.0968 4.67509 -1.87865e-17)
(18.088 4.72723 -1.86347e-17)
(17.8461 4.88705 0)
(17.7241 4.69369 0)
(16.8817 4.16617 3.68043e-17)
(15.9555 3.0764 3.59224e-17)
(15.6144 1.78699 -3.5099e-17)
(15.1222 0.987369 0)
(15.3875 -0.017501 0)
(15.8155 -0.838434 0)
(16.1474 -0.71405 0)
(16.1231 0.0875887 3.49508e-17)
(15.9128 1.29706 3.47326e-17)
(15.2795 2.14419 -3.43092e-17)
(14.3615 2.51983 0)
(13.4923 1.56911 0)
(12.6576 -0.695973 0)
(11.1891 -0.147672 0)
(7.46532 2.30435 3.34424e-17)
(5.04501 2.27904 0)
(3.86467 2.3429 0)
(2.11112 2.33872 3.23382e-17)
(1.08146 2.26962 3.21178e-17)
(-0.0830858 2.34286 0)
(-0.739807 2.13264 -6.32925e-17)
(-1.57224 1.81687 3.13609e-17)
(-2.02363 1.38637 -3.12129e-17)
(-2.63568 0.946765 0)
(-3.02372 0.487585 0)
(-3.48446 0.0498572 0)
(-3.7958 -0.366915 0)
(-4.14043 -0.756776 -3.02122e-17)
(-4.34184 -1.1185 -6.01959e-17)
(-4.58593 -1.48001 -2.98011e-17)
(-4.68568 -1.79647 2.96267e-17)
(-4.80358 -2.08611 0)
(-4.819 -2.34598 -5.84531e-17)
(-4.86156 -2.58676 -5.7933e-17)
(-4.82177 -2.79549 -5.74954e-17)
(-4.78859 -2.97911 5.69902e-17)
(-4.69991 -3.13102 0)
(-4.65023 -3.27473 8.39662e-17)
(-4.55791 -3.38385 0)
(-4.48277 -3.50304 -2.75874e-17)
(-4.42038 -3.56551 -2.71927e-17)
(-4.34892 -3.66342 0)
(-4.29446 -3.72044 0)
(-4.27855 -3.76446 -5.29673e-17)
(-4.22325 -3.83775 0)
(-4.19398 -3.87211 -5.18788e-17)
(-4.18033 -3.92342 0)
(-4.13677 -4.03484 5.0924e-17)
(-4.1536 -4.0735 1.00627e-16)
(-4.11077 -4.14759 0)
(-4.10622 -4.18714 0)
(-4.00902 -4.22353 0)
(-4.08114 -4.2119 4.80721e-17)
(-3.99067 -4.28666 0)
(-4.03853 -4.22271 4.68756e-17)
(-4.02053 -4.20444 0)
(-4.00733 -4.18768 0)
(-4.0479 -4.20492 -9.01316e-17)
(-4.02259 -4.18367 0)
(-4.13473 -4.10977 -4.38477e-17)
(-4.20955 -4.12045 0)
(-4.34832 -4.04342 -4.26081e-17)
(-4.39517 -4.04364 0)
(-4.56728 -3.977 0)
(-4.67868 -3.93948 0)
(-4.82968 -3.93359 -1.21322e-16)
(-4.95954 -3.91458 -3.98251e-17)
(-5.13372 -3.85023 0)
(-5.44202 -3.68947 0)
(-5.84783 -3.50032 0)
(-6.20101 -3.35257 0)
(-6.55393 -3.29842 4.00365e-17)
(-7.00415 -3.14389 -8.01442e-17)
(-7.5638 -2.84374 -3.98295e-17)
(-8.0869 -2.58713 7.97426e-17)
(-8.49581 -2.34919 7.94024e-17)
(-8.81601 -2.14555 3.92789e-17)
(-8.86427 -2.12366 0)
(-8.71679 -1.89407 7.53154e-17)
(-8.61807 -1.55563 0)
(-8.73726 -1.31871 -7.31961e-17)
(-9.02915 -1.28139 -3.76275e-17)
(-9.43906 -1.38072 0)
(-9.39259 -1.3686 7.90336e-17)
(-8.91759 -1.21689 3.8462e-17)
(-8.19688 -1.06137 0)
(-7.08669 -0.750043 3.57775e-17)
(-5.71418 -0.427567 -1.05697e-16)
(-4.88505 -0.245174 0)
(-4.16949 -0.27658 0)
(-3.43642 -0.0486664 0)
(-2.43054 0.0804211 0)
(-1.38137 0.126205 -8.15565e-17)
(-0.15257 -0.0485022 -8.00522e-17)
(1.15395 -0.155661 0)
(2.23358 -0.00324926 0)
(3.86328 8.65506e-05 0)
(4.94098 0.00718802 0)
(6.3017 -0.223255 0)
(7.51063 -0.158907 0)
(8.54325 -0.209541 -7.62231e-17)
(9.09741 0.273586 -1.0836e-20)
(10.0074 0.302864 0)
(9.7467 -0.0160526 0)
(13.0595 0.274459 -7.1779e-17)
(13.1398 1.67529 0)
(14.1325 2.05236 6.32772e-17)
(13.2915 2.61585 6.40102e-17)
(12.0191 2.45804 0)
(11.021 3.23633 0)
(8.8834 3.98618 -6.40226e-17)
(7.02118 5.1522 -1.26743e-16)
(3.76515 5.23732 0)
(1.08861 4.94783 0)
(0.261331 4.75572 0)
(-1.53019 3.89901 -6.70232e-17)
(-1.5465 3.86809 6.617e-17)
(-2.04861 3.41996 0)
(-1.62508 2.98981 1.2952e-16)
(-1.26866 3.04514 6.42999e-17)
(0.133042 2.67369 -1.25803e-16)
(0.969791 2.89477 0)
(3.00621 2.73376 0)
(3.80669 3.115 -1.15975e-16)
(5.40822 2.90749 -5.63721e-17)
(5.57505 3.1182 0)
(5.92775 2.63298 0)
(5.60839 2.32571 0)
(6.61382 1.85492 0)
(7.86001 1.47354 -9.76607e-17)
(7.67308 2.53067 0)
(7.73492 3.06879 0)
(5.80125 3.26956 0)
(5.6419 1.16009 0)
(6.92432 -1.70757 0)
(9.88298 -1.24185 0)
(11.8591 -0.900117 -8.97752e-17)
(12.5006 -0.272512 0)
(12.4144 -0.200859 0)
(12.0271 0.203302 -1.77009e-16)
(9.90128 -0.0240344 8.95032e-17)
(8.53764 -0.574308 -8.66927e-17)
(6.89761 -0.555373 9.04741e-17)
(0.187408 8.0974 0)
(0.643606 7.85363 -4.79289e-17)
(1.14274 7.88865 0)
(1.74033 7.60831 -2.37322e-17)
(2.4215 7.0552 0)
(3.10902 6.4338 0)
(3.77282 5.96455 2.41077e-17)
(4.40146 5.69292 0)
(5.00133 5.54472 0)
(5.59633 5.37047 0)
(6.23002 5.16194 0)
(6.83971 4.91446 0)
(7.44833 4.71342 -9.25463e-17)
(8.0311 4.51478 -4.58016e-17)
(8.67405 4.33031 4.54144e-17)
(9.31478 4.17076 0)
(9.95253 4.05425 0)
(10.6134 3.9732 0)
(11.2845 3.8784 0)
(12.0276 3.90962 0)
(12.7126 3.97566 -4.31616e-17)
(13.4399 4.11361 -4.27717e-17)
(14.0749 4.27103 4.24247e-17)
(14.6748 4.48225 -4.19968e-17)
(15.168 4.70241 0)
(15.6317 4.92116 0)
(15.9909 5.09958 -4.05409e-17)
(16.28 5.19055 0)
(16.5188 5.32943 0)
(16.6827 5.35853 -3.87192e-17)
(16.8933 5.36947 -3.81578e-17)
(17.0304 5.3867 -3.7673e-17)
(17.3035 5.49305 0)
(17.4044 5.51714 0)
(17.6216 5.56547 3.65165e-17)
(17.5473 5.59968 0)
(17.7974 5.4978 0)
(17.6325 5.22904 -3.66076e-17)
(17.4891 4.47961 3.61376e-17)
(17.4849 3.41848 -3.60597e-17)
(16.9268 2.23003 0)
(17.109 0.450984 0)
(17.6864 -0.923032 -7.14153e-17)
(17.2941 -0.867801 0)
(16.7661 0.10925 -7.08708e-17)
(15.9817 1.69657 -1.08609e-16)
(14.7089 3.03623 1.06134e-16)
(13.1902 3.257 -6.75236e-17)
(11.5058 3.2362 0)
(8.58865 3.88073 0)
(5.96541 4.29973 -6.71483e-17)
(4.23669 4.06922 -3.31769e-17)
(2.83791 3.81939 0)
(1.66935 3.64144 0)
(0.617026 3.22431 -3.25058e-17)
(-0.0385841 2.87105 -6.47312e-17)
(-0.773621 2.49418 0)
(-1.16149 2.04533 6.3976e-17)
(-1.72276 1.56637 -6.36672e-17)
(-2.01931 1.05522 6.33878e-17)
(-2.46906 0.519395 0)
(-2.73736 0.00695957 0)
(-3.08667 -0.52662 0)
(-3.30572 -1.0195 0)
(-3.57115 -1.49286 0)
(-3.71727 -1.96388 6.09457e-17)
(-3.88715 -2.39316 0)
(-3.96428 -2.79511 0)
(-4.00292 -3.17006 0)
(-4.02714 -3.51045 1.18431e-16)
(-3.97388 -3.82944 5.87336e-17)
(-3.91978 -4.08383 5.82471e-17)
(-3.86086 -4.34194 -1.15717e-16)
(-3.72529 -4.54868 5.74926e-17)
(-3.61223 -4.7143 -5.68067e-17)
(-3.54088 -4.84975 0)
(-3.34673 -5.01164 5.58816e-17)
(-3.39655 -5.10914 0)
(-3.22362 -5.21669 0)
(-3.19921 -5.30118 0)
(-3.15334 -5.37049 1.08169e-16)
(-3.12456 -5.47008 -5.37196e-17)
(-3.08187 -5.54421 -5.34532e-17)
(-3.12326 -5.60959 -1.05558e-16)
(-2.99893 -5.74028 -1.56719e-16)
(-3.07325 -5.80064 -5.16109e-17)
(-2.96706 -5.89503 0)
(-3.04461 -5.99284 -1.01834e-16)
(-2.88717 -6.04246 0)
(-3.03032 -5.9941 -1.49461e-16)
(-2.84909 -6.09567 0)
(-2.98751 -6.0105 -1.46438e-16)
(-2.95439 -5.97848 0)
(-3.04351 -5.97803 0)
(-3.09257 -5.90993 -4.76381e-17)
(-3.09455 -5.90232 0)
(-3.27304 -5.80909 4.6099e-17)
(-3.33205 -5.82758 9.17668e-17)
(-3.56434 -5.67689 4.49128e-17)
(-3.62722 -5.68819 8.94709e-17)
(-3.87389 -5.58399 -8.8004e-17)
(-4.00383 -5.51427 -8.69186e-17)
(-4.21994 -5.4928 1.71252e-16)
(-4.42036 -5.41523 0)
(-4.57983 -5.26033 0)
(-4.75653 -5.09172 8.04211e-17)
(-5.00868 -5.03492 -7.88282e-17)
(-5.42798 -4.88068 0)
(-5.88377 -4.58138 0)
(-6.40878 -4.11498 8.05444e-17)
(-6.93706 -3.63564 0)
(-7.28021 -3.45398 2.60639e-19)
(-7.64819 -3.36268 2.44497e-19)
(-8.00748 -3.30616 7.88748e-17)
(-8.27253 -3.3493 0)
(-8.61036 -3.0348 -7.88156e-17)
(-8.58163 -2.47509 0)
(-8.43662 -2.02666 7.56474e-17)
(-8.20515 -1.70588 0)
(-8.30797 -1.59648 0)
(-8.53469 -1.5953 -8.36687e-17)
(-8.56973 -1.60156 -8.5034e-17)
(-8.21125 -1.68905 0)
(-7.40988 -1.83937 -8.12067e-17)
(-5.90827 -1.68684 1.53565e-16)
(-4.29435 -1.2511 0)
(-2.32098 -0.891173 0)
(-0.869672 -0.403893 0)
(0.59392 -0.197443 0)
(1.87211 -0.136114 7.80827e-17)
(3.08003 -0.197704 -1.55893e-16)
(4.42116 -0.237447 0)
(5.1682 -0.284918 0)
(6.36341 -0.407346 0)
(7.24624 -0.204066 0)
(8.9631 -0.456254 0)
(10.3949 0.0460291 0)
(11.5219 0.0447613 0)
(10.4935 0.421574 7.21988e-17)
(11.8604 0.694046 0)
(9.73757 -0.0688618 0)
(12.3215 -0.644364 7.86278e-17)
(13.0791 1.72846 0)