/*--------------------------------*- C++ -*----------------------------------*\
| =========                 |                                                 |
| \\      /  F ield         | OpenFOAM: The Open Source CFD Toolbox           |
|  \\    /   O peration     | Version:  dev                                   |
|   \\  /    A nd           | Web:      http://www.openfoam.org               |
|    \\/     M anipulation  |                                                 |
\*---------------------------------------------------------------------------*/
FoamFile
{
    version     2.0;
    format      ascii;
    class       volVectorField;
    object      U_0;
    location    "9.12";
}
// * * * * * * * * * * * * * * * * * * * * * * * * * * * * * * * * * * * * * //

dimensions      [0 1 -1 0 0 0 0];

internalField   nonuniform List<vector> 
12225
(
(6.84388 0.374117 0)
(4.44354 0.287164 0)
(2.3607 0.146777 0)
(1.55576 0.0999839 0)
(0.352661 0.131909 0)
(0.391191 0.109986 0)
(-0.952231 0.170137 0)
(-0.571239 0.117421 0)
(-2.20924 0.208556 0)
(-1.37925 0.132383 0)
(-3.6303 0.236846 0)
(-2.09985 0.171455 0)
(-5.19726 0.276193 0)
(-3.25153 0.336605 0)
(-6.02967 0.0584335 0)
(-8.06943 1.31298 0)
(-3.606 0.160016 0)
(-18.5649 3.71663 0)
(9.57211 1.11707 0)
(9.49191 1.14336 0)
(7.0002 0.769129 0)
(6.84777 0.503374 0)
(4.06048 0.438584 0)
(5.41794 0.352168 0)
(2.06547 0.425106 0)
(4.72608 0.332166 0)
(0.273774 0.454803 0)
(4.63069 0.378785 0)
(-1.59599 0.505718 0)
(4.99853 0.318776 0)
(-3.35613 1.03499 0)
(5.20637 -0.493543 0)
(-4.0537 2.6686 0)
(1.93643 -2.14405 0)
(1.70188 2.50151 0)
(-12.232 7.0104 0)
(9.43249 0.7224 0)
(11.7764 1.30801 0)
(9.00508 1.048 0)
(10.643 0.836666 0)
(6.55468 0.745397 0)
(9.54525 0.705027 0)
(4.34443 0.674469 0)
(8.89048 0.673802 0)
(2.41308 0.705619 0)
(8.37741 0.597797 0)
(1.59225 0.882744 0)
(7.38966 0.265206 0)
(1.75033 1.50468 0)
(5.53465 -0.46061 0)
(1.66996 3.12489 0)
(2.34021 -2.56106 0)
(-0.270978 7.04058 0)
(3.43186 4.55395 0)
(8.2863 0.651222 0)
(12.9875 1.47417 0)
(8.84636 1.19316 0)
(12.7847 1.04668 0)
(7.76193 0.998122 0)
(12.041 0.964718 0)
(6.57172 1.03832 0)
(11.0786 0.843892 0)
(5.65153 1.27978 0)
(9.8955 0.450867 0)
(5.16937 1.78908 0)
(8.52483 -0.291186 0)
(4.7668 2.92026 0)
(6.66641 -1.56687 0)
(4.60217 5.06936 0)
(3.83855 -2.51788 0)
(4.54337 3.82796 0)
(1.64965 7.62384 0)
(7.6549 0.499726 0)
(13.1553 1.41597 0)
(9.23009 1.23025 0)
(12.6503 1.10598 0)
(9.15231 1.23827 0)
(11.6 1.01975 0)
(8.94517 1.38325 0)
(10.4034 0.906846 0)
(8.71386 1.68444 0)
(9.10989 0.505728 0)
(8.30786 2.33035 0)
(7.82289 -0.171568 0)
(7.70742 3.64162 0)
(6.40831 -1.06151 0)
(7.25285 6.48686 0)
(5.42024 -2.34069 0)
(4.77424 8.28446 0)
(5.73106 5.63692 0)
(8.87379 0.561338 0)
(11.874 1.24436 0)
(10.0282 1.49546 0)
(11.0166 1.05718 0)
(9.96988 1.66531 0)
(10.1393 0.963408 0)
(9.86993 1.88503 0)
(9.40292 0.847839 0)
(9.63135 2.21449 0)
(8.63538 0.603913 0)
(9.14582 2.77186 0)
(7.90233 0.337091 0)
(8.52186 3.48853 0)
(7.17198 0.360681 0)
(7.70434 4.53617 0)
(7.08704 0.962725 0)
(4.56535 5.01196 0)
(7.31571 5.93733 0)
(9.40587 0.642359 0)
(10.3902 1.31533 0)
(10.3592 1.7625 0)
(9.85868 1.11247 0)
(10.1599 1.86066 0)
(9.28156 1.03757 0)
(9.94003 2.11655 0)
(8.92176 1.03511 0)
(9.6695 2.53723 0)
(8.53012 0.92566 0)
(9.19487 3.00891 0)
(8.06662 0.83274 0)
(8.59636 3.61204 0)
(7.46332 0.962137 0)
(7.67093 4.3876 0)
(6.8659 1.74445 0)
(6.04565 4.83093 0)
(6.57111 6.32894 0)
(10.0735 0.561485 0)
(10.4023 1.25036 0)
(10.7541 1.91414 0)
(10.0205 1.17137 0)
(10.2843 2.06402 0)
(9.43863 1.13359 0)
(9.83036 2.2472 0)
(9.08411 1.16813 0)
(9.49033 2.54834 0)
(8.76364 1.2887 0)
(8.99351 2.83254 0)
(8.42459 1.46643 0)
(8.34941 3.21166 0)
(7.89691 2.02955 0)
(7.46307 3.78005 0)
(7.16271 3.33466 0)
(6.53281 4.61812 0)
(6.62188 6.24402 0)
(10.2894 0.48119 0)
(10.3018 1.38838 0)
(10.609 2.03965 0)
(9.97035 1.28832 0)
(10.1204 2.15125 0)
(9.49563 1.30774 0)
(9.66346 2.33703 0)
(9.14279 1.39917 0)
(9.30166 2.60813 0)
(8.80767 1.63276 0)
(8.79035 2.92283 0)
(8.47462 1.9268 0)
(8.25941 3.30295 0)
(7.9013 2.68142 0)
(7.54549 3.84717 0)
(7.34091 4.02882 0)
(7.01683 4.81297 0)
(6.98027 6.08067 0)
(10.2663 0.607345 0)
(10.4761 1.5596 0)
(10.6714 2.28855 0)
(10.0884 1.5358 0)
(10.0431 2.40612 0)
(9.56988 1.60041 0)
(9.56711 2.50189 0)
(9.21883 1.75047 0)
(9.23424 2.70888 0)
(8.90752 2.06025 0)
(8.76297 3.01266 0)
(8.5749 2.5483 0)
(8.29841 3.34735 0)
(8.02925 3.3041 0)
(7.70585 3.99877 0)
(7.52907 4.49066 0)
(7.41171 4.97758 0)
(7.38988 5.94976 0)
(10.1347 0.286327 0)
(10.1905 1.64623 0)
(10.2434 2.34591 0)
(9.9177 1.69772 0)
(9.87723 2.43784 0)
(9.60745 1.82074 0)
(9.52243 2.50562 0)
(9.26531 2.02931 0)
(9.1581 2.71601 0)
(8.92867 2.41812 0)
(8.75013 3.10209 0)
(8.59933 3.04011 0)
(8.37559 3.52335 0)
(8.17109 3.75346 0)
(7.98881 4.23514 0)
(7.8346 4.81012 0)
(7.80522 5.27585 0)
(7.90284 5.94826 0)
(10.0684 0.34536 0)
(10.4043 1.99163 0)
(10.376 2.46594 0)
(10.1414 1.97149 0)
(9.98726 2.49581 0)
(9.76456 2.15828 0)
(9.58382 2.62166 0)
(9.37053 2.42154 0)
(9.20877 2.86357 0)
(9.01336 2.87446 0)
(8.83065 3.29008 0)
(8.65177 3.47449 0)
(8.44913 3.81688 0)
(8.30152 4.1232 0)
(8.19231 4.536 0)
(8.09437 5.03465 0)
(8.09847 5.51212 0)
(8.21219 5.98622 0)
(10.1667 0.0338629 0)
(10.4254 2.10024 0)
(10.2692 2.4449 0)
(10.0328 2.18385 0)
(9.84246 2.56994 0)
(9.70824 2.42951 0)
(9.57789 2.73867 0)
(9.44932 2.7188 0)
(9.32492 3.03138 0)
(9.1738 3.18285 0)
(9.02377 3.50078 0)
(8.88105 3.77997 0)
(8.7086 4.15502 0)
(8.63633 4.48094 0)
(8.5855 4.87013 0)
(8.51842 5.30736 0)
(8.52475 5.73404 0)
(8.68028 6.09972 0)
(9.93824 0.023909 0)
(10.3283 2.48347 0)
(10.1769 2.66425 0)
(10.0078 2.50403 0)
(9.86578 2.68901 0)
(9.79815 2.66466 0)
(9.7065 2.88484 0)
(9.61354 2.99887 0)
(9.5059 3.27981 0)
(9.37286 3.47703 0)
(9.23731 3.79981 0)
(9.13018 4.06971 0)
(8.96215 4.45272 0)
(8.88354 4.79932 0)
(8.89526 5.13879 0)
(8.90805 5.51131 0)
(8.93067 5.87841 0)
(9.1358 6.19596 0)
(10.0226 -0.236885 0)
(10.3886 2.64008 0)
(10.2313 2.69853 0)
(10.0814 2.64473 0)
(9.93366 2.77472 0)
(9.86067 2.83466 0)
(9.76516 3.014 0)
(9.69274 3.18965 0)
(9.57594 3.46044 0)
(9.49395 3.71981 0)
(9.37995 4.0638 0)
(9.32108 4.36643 0)
(9.23881 4.71441 0)
(9.18751 5.06297 0)
(9.20091 5.38494 0)
(9.2529 5.66929 0)
(9.30392 5.97147 0)
(9.53884 6.22642 0)
(10.1429 -0.420589 0)
(10.375 2.88528 0)
(10.2225 2.91269 0)
(10.129 2.87042 0)
(10.0307 2.92536 0)
(10.0017 3.02087 0)
(9.93072 3.20986 0)
(9.89787 3.42807 0)
(9.82388 3.69106 0)
(9.79625 3.97398 0)
(9.73695 4.27834 0)
(9.72864 4.57613 0)
(9.70066 4.86028 0)
(9.73812 5.15085 0)
(9.76532 5.43792 0)
(9.85088 5.69604 0)
(9.92043 5.97924 0)
(10.1509 6.22171 0)
(9.94265 -0.422898 0)
(10.2561 3.06548 0)
(10.1774 2.947 0)
(10.1854 2.91734 0)
(10.1655 3.00245 0)
(10.2084 3.13974 0)
(10.1935 3.32261 0)
(10.2153 3.53203 0)
(10.1835 3.77444 0)
(10.2087 4.04055 0)
(10.1796 4.32959 0)
(10.1915 4.60902 0)
(10.1688 4.8923 0)
(10.2012 5.16322 0)
(10.214 5.42213 0)
(10.3093 5.66225 0)
(10.3752 5.89323 0)
(10.5971 6.09279 0)
(10.0812 -0.602267 0)
(10.3171 3.02769 0)
(10.2723 2.96142 0)
(10.3064 2.9426 0)
(10.3136 2.9789 0)
(10.3728 3.08881 0)
(10.3717 3.28371 0)
(10.4155 3.52312 0)
(10.4101 3.78603 0)
(10.4722 4.05533 0)
(10.5089 4.30776 0)
(10.6054 4.55354 0)
(10.6567 4.79429 0)
(10.7392 5.01987 0)
(10.7843 5.24862 0)
(10.86 5.4514 0)
(10.8845 5.64662 0)
(11.0723 5.82132 0)
(9.87336 -0.728657 0)
(10.1197 2.89632 0)
(10.2824 2.8475 0)
(10.4631 2.88549 0)
(10.5543 2.95834 0)
(10.6571 3.06874 0)
(10.6846 3.22736 0)
(10.7484 3.40371 0)
(10.7605 3.55329 0)
(10.8069 3.71538 0)
(10.8406 3.88105 0)
(10.9346 4.0821 0)
(10.9829 4.32608 0)
(11.0859 4.59224 0)
(11.1467 4.87389 0)
(11.231 5.10304 0)
(11.2527 5.32563 0)
(11.3849 5.5106 0)
(9.80639 -0.637595 0)
(10.122 2.50779 0)
(10.3025 2.44736 0)
(10.4847 2.52696 0)
(10.6215 2.62423 0)
(10.8216 2.74552 0)
(10.9899 2.88721 0)
(11.1631 3.0439 0)
(11.2452 3.19844 0)
(11.3355 3.36773 0)
(11.3709 3.54182 0)
(11.4415 3.71596 0)
(11.4646 3.92716 0)
(11.5247 4.17183 0)
(11.5619 4.41687 0)
(11.6388 4.63069 0)
(11.6803 4.81867 0)
(11.8012 4.95079 0)
(9.90601 -0.571402 0)
(10.2193 2.19314 0)
(10.4405 2.10612 0)
(10.6667 2.14826 0)
(10.838 2.18559 0)
(11.0401 2.23814 0)
(11.1786 2.31625 0)
(11.3451 2.46335 0)
(11.4558 2.66183 0)
(11.5769 2.88517 0)
(11.6154 3.10935 0)
(11.658 3.31504 0)
(11.6814 3.50702 0)
(11.757 3.71291 0)
(11.8094 3.90039 0)
(11.8731 4.08642 0)
(11.8961 4.23866 0)
(11.9923 4.33631 0)
(10.056 -0.683484 0)
(10.2461 1.83611 0)
(10.5508 1.73823 0)
(10.8595 1.77552 0)
(11.0823 1.82038 0)
(11.2626 1.88393 0)
(11.371 1.96691 0)
(11.4843 2.13022 0)
(11.5705 2.31109 0)
(11.7202 2.5148 0)
(11.8256 2.69292 0)
(11.9342 2.86798 0)
(12.0276 3.01381 0)
(12.1184 3.18091 0)
(12.1804 3.31777 0)
(12.2616 3.44868 0)
(12.2901 3.58875 0)
(12.3562 3.67522 0)
(9.73833 -0.571565 0)
(10.1276 1.46803 0)
(10.5785 1.31636 0)
(10.9572 1.32954 0)
(11.2289 1.41106 0)
(11.4585 1.54182 0)
(11.6471 1.67552 0)
(11.8481 1.80899 0)
(12.0105 1.92514 0)
(12.1735 2.05856 0)
(12.2785 2.16269 0)
(12.3857 2.30872 0)
(12.4599 2.46676 0)
(12.538 2.61567 0)
(12.5782 2.74791 0)
(12.6396 2.87558 0)
(12.6758 2.97956 0)
(12.7308 3.05947 0)
(9.95471 -0.543635 0)
(10.3667 1.07802 0)
(10.8714 0.994391 0)
(11.2583 1.05235 0)
(11.5662 1.12828 0)
(11.8251 1.20919 0)
(12.0371 1.29315 0)
(12.2294 1.40089 0)
(12.3828 1.50387 0)
(12.5141 1.60477 0)
(12.5977 1.71891 0)
(12.6956 1.8513 0)
(12.7513 1.96298 0)
(12.8176 2.07472 0)
(12.8566 2.16367 0)
(12.9082 2.26088 0)
(12.9464 2.33705 0)
(12.9942 2.39854 0)
(9.78711 -0.447899 0)
(10.2946 0.783355 0)
(10.9348 0.669769 0)
(11.4249 0.713663 0)
(11.8093 0.806771 0)
(12.097 0.916497 0)
(12.3108 1.00822 0)
(12.4747 1.09483 0)
(12.604 1.15612 0)
(12.7363 1.21433 0)
(12.8451 1.29471 0)
(12.9544 1.37309 0)
(13.0234 1.45207 0)
(13.0829 1.53938 0)
(13.0889 1.62716 0)
(13.0996 1.71044 0)
(13.072 1.78184 0)
(13.0805 1.84025 0)
(9.71989 -0.489605 0)
(10.3323 0.403487 0)
(11.0213 0.319933 0)
(11.4527 0.394313 0)
(11.7947 0.500696 0)
(12.0878 0.596795 0)
(12.351 0.678475 0)
(12.5645 0.736559 0)
(12.7161 0.751439 0)
(12.8495 0.797446 0)
(12.9543 0.861591 0)
(13.0296 0.928937 0)
(13.0575 1.00158 0)
(13.0737 1.07936 0)
(13.0192 1.15553 0)
(12.9813 1.22099 0)
(12.914 1.28085 0)
(12.8579 1.33422 0)
(9.89674 -0.406506 0)
(10.5305 0.00257945 0)
(11.289 -0.0540856 0)
(11.7428 0.0574328 0)
(12.0886 0.16994 0)
(12.3656 0.267426 0)
(12.5809 0.340125 0)
(12.7089 0.38797 0)
(12.7722 0.428809 0)
(12.7655 0.48099 0)
(12.7178 0.542227 0)
(12.615 0.59803 0)
(12.4901 0.663831 0)
(12.3579 0.732164 0)
(12.1961 0.79926 0)
(12.0407 0.84571 0)
(11.8634 0.894199 0)
(11.6858 0.924019 0)
(9.94744 -0.434064 0)
(10.8411 -0.331605 0)
(11.4905 -0.328033 0)
(11.6768 -0.192161 0)
(11.6993 -0.0660525 0)
(11.6373 0.0377165 0)
(11.549 0.108898 0)
(11.4286 0.176062 0)
(11.271 0.233126 0)
(11.0458 0.286938 0)
(10.7942 0.346136 0)
(10.5129 0.399455 0)
(10.2503 0.45807 0)
(9.98177 0.517694 0)
(9.7248 0.564614 0)
(9.46492 0.6052 0)
(9.19019 0.647671 0)
(8.92299 0.672828 0)
(9.80326 -0.776393 0)
(10.1993 -0.750736 0)
(10.0678 -0.587264 0)
(9.54259 -0.343254 0)
(9.02196 -0.135423 0)
(8.57509 0.0158283 0)
(8.20999 0.106312 0)
(7.89901 0.173767 0)
(7.62284 0.210259 0)
(7.3335 0.242552 0)
(7.06052 0.277089 0)
(6.80808 0.308114 0)
(6.57781 0.331189 0)
(6.35556 0.364038 0)
(6.13481 0.384406 0)
(5.93801 0.418842 0)
(5.74192 0.452475 0)
(5.53302 0.473487 0)
(8.54999 -0.460983 0)
(6.45467 -0.319443 0)
(4.90803 -0.0913893 0)
(3.9594 0.0547004 0)
(3.55312 0.10456 0)
(3.41368 0.113671 0)
(3.3748 0.110435 0)
(3.37361 0.112215 0)
(3.36921 0.110999 0)
(3.33082 0.108538 0)
(3.28534 0.115364 0)
(3.23403 0.124309 0)
(3.16731 0.127999 0)
(3.09609 0.135382 0)
(3.03304 0.144108 0)
(2.9889 0.159237 0)
(2.93027 0.169444 0)
(2.83105 0.194032 0)
(0.134212 0.813658 0)
(0.373377 0.976835 0)
(0.49422 0.994079 0)
(0.66475 0.861807 0)
(0.889069 0.729361 0)
(1.25257 0.605254 0)
(1.73089 0.505329 1.11607e-17)
(2.3034 0.43498 -1.11253e-17)
(2.90062 0.387863 0)
(3.54383 0.366554 -1.10278e-17)
(4.18991 0.325406 0)
(4.83424 0.314487 0)
(5.52989 0.294598 0)
(6.24845 0.281939 1.08107e-17)
(6.95648 0.269482 0)
(7.64381 0.257937 0)
(8.34498 0.269622 -1.06296e-17)
(9.00719 0.279074 0)
(9.66938 0.295352 0)
(10.3023 0.323061 0)
(10.8869 0.358836 1.0366e-17)
(11.3672 0.415473 0)
(11.7989 0.464431 1.02193e-17)
(12.1538 0.515153 0)
(12.4446 0.564714 0)
(12.6105 0.617669 1.00026e-17)
(12.6667 0.675162 0)
(12.7137 0.725163 -9.86751e-18)
(12.6184 0.774909 0)
(12.4338 0.843377 9.74542e-18)
(12.1012 0.90335 0)
(11.7969 0.968685 0)
(11.2 1.09473 0)
(10.5659 0.626223 0)
(10.2474 -0.0839357 0)
(9.88879 0.0372894 -9.44514e-18)
(9.73444 0.443144 0)
(9.70527 0.545073 1.84624e-17)
(9.46666 0.465652 0)
(9.19851 0.352328 -1.79662e-17)
(9.03338 0.252226 0)
(9.07231 0.0649273 0)
(9.35296 -0.0629953 1.74407e-17)
(9.65326 -0.0378914 0)
(9.8423 0.0836309 1.71953e-17)
(9.71337 0.24579 -1.7126e-17)
(9.3282 0.24826 0)
(8.75599 0.0133518 -1.72457e-17)
(8.06573 0.0529677 -1.72773e-17)
(7.13841 0.306563 0)
(7.09335 -0.0819301 0)
(8.10464 -0.846681 0)
(8.59211 -1.10913 0)
(8.75199 -1.68031 0)
(8.4787 -1.74208 1.6372e-17)
(8.24683 -1.12155 0)
(7.66333 0.0368413 -1.65241e-17)
(6.17643 1.04721 0)
(4.32998 1.09729 0)
(2.93873 0.855173 1.57978e-17)
(1.66895 0.741885 0)
(0.539194 0.641162 -1.54433e-17)
(-0.448772 0.553506 0)
(-1.32142 0.455861 0)
(-2.0834 0.371267 0)
(-2.73574 0.289277 1.48433e-17)
(-3.29816 0.222529 0)
(-3.76946 0.162731 0)
(-4.161 0.101134 1.44355e-17)
(-4.49162 0.0415828 0)
(-4.75967 0.00495511 1.4175e-17)
(-4.97232 -0.0300812 0)
(-5.1469 -0.0710086 0)
(-5.29533 -0.0956328 0)
(-5.4246 -0.12028 -1.36718e-17)
(-5.52816 -0.14102 0)
(-5.62159 -0.159361 0)
(-5.7016 -0.16797 -1.33007e-17)
(-5.77774 -0.180952 -1.31764e-17)
(-5.85133 -0.182305 0)
(-5.92559 -0.182595 -1.29311e-17)
(-5.99124 -0.193791 0)
(-6.06335 -0.184964 -2.53792e-17)
(-6.1219 -0.180663 0)
(-6.15261 -0.195505 -2.48946e-17)
(-6.17291 -0.203067 0)
(-6.15969 -0.207187 2.44117e-17)
(-6.11204 -0.210281 0)
(-6.05215 -0.216934 0)
(-5.98316 -0.214653 0)
(-5.90186 -0.216959 -2.35001e-17)
(-5.80094 -0.20771 0)
(-5.68573 -0.192518 2.30675e-17)
(-5.54339 -0.22545 0)
(-5.40796 -0.212598 -2.26432e-17)
(-5.27941 -0.211614 -2.24445e-17)
(-5.18914 -0.199317 -2.22506e-17)
(-5.09898 -0.199364 0)
(-5.03473 -0.187687 0)
(-4.98055 -0.192893 0)
(-4.96179 -0.188991 0)
(-4.96748 -0.194453 0)
(-4.9467 -0.203796 0)
(-4.9604 -0.226033 0)
(-4.97902 -0.235934 0)
(-4.98039 -0.223689 2.0969e-17)
(-4.97199 -0.201209 2.0875e-17)
(-4.96327 -0.215469 0)
(-5.01125 -0.248148 0)
(-5.12138 -0.239577 0)
(-5.30216 -0.178045 2.06252e-17)
(-5.5401 -0.120611 0)
(-5.81734 -0.0483966 0)
(-6.11558 0.0131092 0)
(-6.35941 0.0274758 0)
(-6.57248 0.0253265 -1.99096e-17)
(-6.7924 0.0224531 0)
(-6.93229 0.0426599 0)
(-6.94224 0.0700272 1.95011e-17)
(-6.77982 0.0705218 -1.93617e-17)
(-6.5246 0.0707548 0)
(-6.26981 0.0937012 -1.91522e-17)
(-5.93705 0.109323 0)
(-5.41505 0.024634 1.9132e-17)
(-4.75004 0.0182476 0)
(-3.96821 0.0479193 0)
(-3.11108 0.0328751 0)
(-2.40193 0.0867252 0)
(-1.7923 0.156619 0)
(-1.17286 0.180774 -3.83597e-17)
(-0.609175 0.177927 -3.83059e-17)
(0.269924 0.113898 0)
(1.13381 0.167371 0)
(1.97348 0.199173 0)
(2.94244 0.146729 3.74848e-17)
(3.94961 0.113655 0)
(4.95054 0.151323 0)
(6.112 0.172955 0)
(7.11899 0.234738 3.60897e-17)
(7.94507 0.293412 -3.5549e-17)
(8.36483 0.371627 0)
(8.91228 0.364071 0)
(8.42919 0.477669 -3.4758e-17)
(8.30717 0.411987 -3.45803e-17)
(7.33246 0.424438 0)
(7.27717 0.427845 0)
(6.2926 0.480373 3.40372e-17)
(5.37185 0.540617 -3.36484e-17)
(3.97476 0.685663 0)
(1.93373 0.819959 0)
(0.333694 0.93201 -3.27477e-17)
(-2.01254 0.887653 0)
(-2.98428 0.865596 0)
(-4.019 0.861822 -3.18828e-17)
(-4.66174 0.77929 0)
(-4.64372 0.760371 -3.12899e-17)
(-4.82883 0.754332 0)
(-4.27084 0.688065 0)
(-3.92237 0.787533 0)
(-3.08438 0.541221 3.01862e-17)
(-2.44944 0.475589 0)
(-1.4774 0.400377 0)
(-0.595765 0.529287 0)
(0.594095 0.5794 0)
(1.47508 0.573766 0)
(2.11609 0.542891 0)
(3.69583 0.276778 2.80971e-17)
(4.4001 0.439146 2.81483e-17)
(4.92917 0.69961 0)
(3.35546 1.13883 0)
(1.54345 0.902494 0)
(3.87361 0.189704 -2.53825e-17)
(5.29932 0.294014 0)
(6.24006 0.335358 5.21647e-17)
(6.42033 0.389492 -5.24599e-17)
(5.88295 0.37898 -5.2309e-17)
(5.55376 0.275371 5.22432e-17)
(4.42189 0.161255 -5.19704e-17)
(4.39385 0.127245 5.13056e-17)
(3.79197 0.0559597 0)
(0.113033 2.23888 0)
(0.467976 2.31568 0)
(0.784442 2.49288 -2.2281e-17)
(1.06365 2.3793 0)
(1.39783 2.0541 2.20658e-17)
(1.83841 1.66649 2.23448e-17)
(2.37134 1.34539 1.12614e-17)
(2.97095 1.12313 1.13856e-17)
(3.57966 1.00815 0)
(4.20629 0.943839 1.13718e-17)
(4.8689 0.856192 0)
(5.52739 0.7698 0)
(6.21394 0.708149 -2.2516e-17)
(6.9222 0.633107 -1.12393e-17)
(7.63832 0.597342 2.23044e-17)
(8.39811 0.561494 2.21897e-17)
(9.1174 0.539688 1.10493e-17)
(9.81391 0.578301 0)
(10.5034 0.595235 0)
(11.16 0.62143 0)
(11.7705 0.688122 1.0722e-17)
(12.3641 0.831325 0)
(12.873 0.966489 -3.16125e-17)
(13.3335 1.10759 0)
(13.6606 1.22893 0)
(13.9872 1.38281 -1.0217e-17)
(14.1363 1.49201 0)
(14.2841 1.64974 9.98769e-18)
(14.2986 1.78737 1.9753e-17)
(14.3312 1.90144 -9.78274e-18)
(14.1471 2.05588 0)
(14.0306 2.19573 0)
(13.7676 2.40318 0)
(13.3312 2.43783 1.89126e-17)
(12.8847 2.48864 1.88821e-17)
(11.6604 2.10161 9.45717e-18)
(10.6005 0.978838 0)
(9.84935 0.714115 -1.77099e-17)
(9.3606 0.954591 0)
(9.25639 0.768459 1.71968e-17)
(9.21193 0.510037 0)
(9.56646 -0.132139 0)
(10.0081 -0.592843 -1.70422e-17)
(10.4757 -0.597408 0)
(10.7172 -0.119038 -5.05557e-17)
(10.6352 0.680276 1.67156e-17)
(10.0749 1.18492 0)
(9.20235 1.59705 1.62713e-17)
(8.30002 1.61815 1.63195e-17)
(8.32949 0.5812 0)
(8.68831 -1.30312 0)
(7.87536 -2.30811 0)
(6.6161 -0.353457 0)
(4.88924 1.61333 0)
(2.33405 1.74657 -1.61678e-17)
(0.706315 1.99731 -3.21913e-17)
(-0.55757 2.24509 1.5887e-17)
(-1.46615 2.28442 0)
(-2.51545 2.06695 -3.10036e-17)
(-3.38181 1.79653 1.53779e-17)
(-4.24325 1.51705 0)
(-4.95989 1.23751 1.50616e-17)
(-5.63304 0.966727 0)
(-6.17067 0.727666 0)
(-6.64736 0.496294 2.93484e-17)
(-7.00736 0.291325 -1.45348e-17)
(-7.32771 0.092436 2.8839e-17)
(-7.57065 -0.0919886 -2.85972e-17)
(-7.75308 -0.244527 -1.41472e-17)
(-7.8647 -0.380422 0)
(-7.95696 -0.498316 -1.38922e-17)
(-8.00102 -0.600662 0)
(-8.02625 -0.693832 0)
(-8.01539 -0.764567 0)
(-8.00898 -0.828869 -1.34231e-17)
(-7.97836 -0.878897 0)
(-7.94212 -0.924628 -2.62711e-17)
(-7.9095 -0.946089 3.89866e-17)
(-7.86539 -0.978477 1.28426e-17)
(-7.8278 -0.980819 0)
(-7.7932 -0.991187 1.25741e-17)
(-7.74442 -1.00835 0)
(-7.69983 -1.00326 2.46245e-17)
(-7.65637 -1.03033 0)
(-7.57269 -1.07545 2.41196e-17)
(-7.4864 -1.07979 -4.77932e-17)
(-7.36695 -1.09632 -2.35789e-17)
(-7.23299 -1.09455 0)
(-7.06589 -1.10935 0)
(-6.91491 -1.09198 0)
(-6.7117 -1.1112 2.25355e-17)
(-6.53874 -1.07382 0)
(-6.37655 -1.03391 -2.20207e-17)
(-6.12801 -1.05912 0)
(-5.90053 -1.04286 6.46802e-17)
(-5.68462 -1.03336 2.12916e-17)
(-5.53134 -0.992411 2.10564e-17)
(-5.34239 -1.00607 0)
(-5.21847 -1.00496 0)
(-5.08946 -1.02024 0)
(-5.01996 -0.98572 0)
(-4.94521 -0.94437 0)
(-4.85326 -0.907572 4.02422e-17)
(-4.78013 -0.89403 4.01252e-17)
(-4.72516 -0.926898 0)
(-4.72758 -0.993187 -1.99501e-17)
(-4.82065 -1.02477 -1.99192e-17)
(-4.93955 -0.938306 0)
(-5.09581 -0.833768 -4.01144e-17)
(-5.25913 -0.70842 0)
(-5.47491 -0.572463 1.99219e-17)
(-5.77164 -0.509488 0)
(-6.0548 -0.454994 0)
(-6.33129 -0.430469 -3.83748e-17)
(-6.50188 -0.422128 0)
(-6.61876 -0.339432 1.86293e-17)
(-6.8325 -0.243614 0)
(-7.0128 -0.250853 0)
(-7.07904 -0.337369 1.84316e-17)
(-6.92701 -0.386467 1.82923e-17)
(-6.63244 -0.296377 0)
(-6.2243 -0.199058 -1.79462e-17)
(-5.76095 -0.0630781 0)
(-5.09455 -0.0331082 1.78496e-17)
(-4.52674 -0.108813 3.6903e-17)
(-4.10164 -0.202719 0)
(-3.4631 -0.108636 0)
(-2.7567 0.182102 0)
(-2.11241 0.378179 0)
(-1.36212 0.395503 3.96357e-17)
(-0.57897 0.240523 1.19053e-16)
(0.516939 0.0248018 0)
(1.47623 0.0790583 0)
(2.54113 0.0487126 0)
(3.65744 -0.0847033 -3.87841e-17)
(4.89082 -0.162513 0)
(6.20055 -0.158996 0)
(7.41315 -0.341819 7.58202e-17)
(8.6935 -0.129556 3.76393e-17)
(9.64426 -0.145071 3.66907e-17)
(10.4816 0.168998 0)
(12.6613 0.403755 0)
(11.9725 1.06782 3.26326e-17)
(12.5602 1.16152 -3.235e-17)
(11.2143 1.14056 0)
(10.6776 1.09016 0)
(9.66515 1.58168 -3.31547e-17)
(7.83544 1.88693 9.77646e-17)
(5.26455 2.53426 0)
(2.00299 2.40722 0)
(0.0687829 2.58348 3.20041e-17)
(-2.02907 2.35191 0)
(-3.19695 1.85852 6.39901e-17)
(-3.66711 1.93765 -3.16611e-17)
(-4.23497 1.53627 0)
(-3.76583 1.33576 3.10709e-17)
(-3.59833 1.3534 6.14667e-17)
(-2.37098 1.21051 0)
(-1.61163 1.33266 0)
(-0.106913 1.22292 -2.90643e-17)
(0.327538 1.58265 0)
(1.16903 1.3731 5.65599e-17)
(1.20173 1.18436 0)
(2.04981 1.03911 0)
(2.78097 1.13139 0)
(3.46117 0.896488 0)
(5.0635 0.593857 -2.55735e-17)
(4.76049 1.23391 -2.579e-17)
(4.19678 1.50346 0)
(2.08381 1.91645 0)
(1.08266 0.654776 0)
(3.9597 -0.987992 2.23286e-17)
(6.31057 -0.427681 0)
(8.04765 -0.213593 -4.58757e-17)
(8.6478 0.28374 4.65994e-17)
(8.51688 0.389314 4.66356e-17)
(8.05768 0.561229 4.69924e-17)
(6.41647 0.403417 4.74129e-17)
(6.11407 0.076702 4.63573e-17)
(5.23248 0.151715 0)
(0.0994404 3.66675 0)
(0.41603 3.54495 0)
(0.770656 3.73751 2.29947e-17)
(1.16039 3.6044 2.2806e-17)
(1.63608 3.17084 -2.32716e-17)
(2.17575 2.64086 -2.3743e-17)
(2.73354 2.20953 -8.916e-20)
(3.31791 1.93695 0)
(3.88268 1.81367 0)
(4.4416 1.70836 0)
(5.03852 1.59843 0)
(5.61263 1.42581 0)
(6.2165 1.30665 7.06386e-17)
(6.85071 1.1694 0)
(7.49652 1.06619 -2.3294e-17)
(8.15549 0.986842 -2.31309e-17)
(8.79236 0.927553 0)
(9.47889 0.960644 0)
(10.0872 0.990023 0)
(10.7337 1.08417 0)
(11.2786 1.17763 -2.22208e-17)
(11.8635 1.34873 0)
(12.3756 1.52364 2.17803e-17)
(12.8912 1.76989 0)
(13.2415 1.96669 0)
(13.5983 2.18578 0)
(13.7977 2.41941 4.13087e-17)
(14.0026 2.65533 0)
(14.0753 2.7922 -2.01159e-17)
(14.1566 2.95929 3.9497e-17)
(14.1943 3.22365 0)
(14.1843 3.33329 0)
(14.2094 3.5364 0)
(14.1052 3.68466 -1.88583e-17)
(14.0358 3.80429 -1.87214e-17)
(13.7124 3.98362 0)
(13.5069 3.78841 0)
(12.5843 3.27884 3.68659e-17)
(11.7172 2.22962 3.59298e-17)
(11.4161 1.04511 -3.51217e-17)
(10.9759 0.354408 0)
(11.299 -0.579785 0)
(11.725 -1.26242 0)
(12.0702 -0.963921 0)
(12.0307 -0.0236027 3.5006e-17)
(11.8259 1.30025 3.47634e-17)
(11.2137 2.22802 -3.43127e-17)
(10.3413 2.61669 0)
(9.56287 1.63209 0)
(8.81025 -0.473663 0)
(7.20715 0.339042 0)
(3.4698 2.88222 3.34287e-17)
(1.23118 2.83134 0)
(0.178905 2.927 0)
(-1.46148 2.97039 3.2291e-17)
(-2.39462 2.97704 3.20518e-17)
(-3.44703 3.11347 0)
(-4.00962 2.95611 -6.31781e-17)
(-4.75808 2.70024 3.12846e-17)
(-5.14212 2.34065 -3.11329e-17)
(-5.68038 1.97129 0)
(-6.00949 1.58618 0)
(-6.40748 1.21872 0)
(-6.6712 0.87383 0)
(-6.96892 0.550894 -3.01115e-17)
(-7.14289 0.257882 -6.00204e-17)
(-7.35665 -0.0452004 -2.9694e-17)
(-7.43848 -0.29556 2.95171e-17)
(-7.54437 -0.523161 0)
(-7.56472 -0.722466 -5.82548e-17)
(-7.61556 -0.90749 -5.77298e-17)
(-7.59717 -1.05978 -5.72862e-17)
(-7.58845 -1.19021 5.67762e-17)
(-7.53121 -1.28813 0)
(-7.51568 -1.38007 8.36121e-17)
(-7.46105 -1.43789 0)
(-7.42251 -1.50786 -2.74836e-17)
(-7.39397 -1.52286 -2.7057e-17)
(-7.35475 -1.57241 0)
(-7.32079 -1.58673 0)
(-7.32159 -1.58489 -5.27073e-17)
(-7.26962 -1.61649 0)
(-7.23023 -1.61107 -5.1606e-17)
(-7.19416 -1.61937 0)
(-7.11331 -1.69057 5.06388e-17)
(-7.07244 -1.69533 1.0003e-16)
(-6.95565 -1.73404 0)
(-6.85678 -1.74339 0)
(-6.64496 -1.75124 0)
(-6.58151 -1.71371 4.77722e-17)
(-6.34657 -1.76007 0)
(-6.22066 -1.68372 4.65767e-17)
(-6.02318 -1.64605 0)
(-5.81067 -1.61475 0)
(-5.64112 -1.62791 -8.95198e-17)
(-5.39555 -1.60841 0)
(-5.27636 -1.54437 -4.35548e-17)
(-5.11935 -1.56203 0)
(-5.01747 -1.51114 -4.23231e-17)
(-4.82437 -1.52687 0)
(-4.75492 -1.498 0)
(-4.62817 -1.49376 0)
(-4.54649 -1.53445 -1.20531e-16)
(-4.452 -1.5728 -3.95587e-17)
(-4.40407 -1.56836 0)
(-4.48595 -1.45591 0)
(-4.66961 -1.31342 0)
(-4.81858 -1.2281 0)
(-4.98216 -1.24249 3.981e-17)
(-5.26625 -1.16815 -7.97352e-17)
(-5.68172 -0.949342 -3.96181e-17)
(-6.07632 -0.76385 7.93794e-17)
(-6.38158 -0.60312 7.90851e-17)
(-6.62563 -0.48081 3.91358e-17)
(-6.63338 -0.557319 0)
(-6.4778 -0.451686 7.51771e-17)
(-6.36577 -0.234019 0)
(-6.43808 -0.0728107 -7.29827e-17)
(-6.66645 -0.0655178 -3.74762e-17)
(-7.03673 -0.174166 0)
(-7.05199 -0.250336 7.89926e-17)
(-6.68149 -0.246069 3.84822e-17)
(-6.05833 -0.235562 0)
(-5.05465 -0.0633309 3.5829e-17)
(-3.73956 0.173023 -1.05697e-16)
(-2.8717 0.314293 0)
(-2.16233 0.256211 0)
(-1.54528 0.456697 0)
(-0.654302 0.499319 0)
(0.247078 0.462548 -8.17745e-17)
(1.30176 0.218687 -8.02649e-17)
(2.43006 0.0368656 0)
(3.34522 0.139785 0)
(4.7957 0.0781063 0)
(5.69279 0.0150329 0)
(6.89251 -0.259406 0)
(7.93077 -0.226782 0)
(8.78019 -0.303279 -7.65689e-17)
(9.16854 0.135374 -2.07155e-20)
(9.89726 0.0719187 0)
(9.61557 -0.289436 0)
(12.8642 0.0380085 -7.15936e-17)
(12.7995 1.44253 0)
(13.6756 1.78495 6.33999e-17)
(12.647 2.32094 6.42103e-17)
(11.2659 2.11573 0)
(10.1433 2.90622 0)
(7.89917 3.61379 -6.41837e-17)
(5.9445 4.7454 -1.27013e-16)
(2.60142 4.74177 0)
(-0.143478 4.3885 0)
(-0.967098 4.15186 0)
(-2.81881 3.28692 -6.73603e-17)
(-2.88892 3.23395 6.65175e-17)
(-3.45481 2.76667 0)
(-3.09839 2.31997 1.30201e-16)
(-2.81461 2.3471 6.46384e-17)
(-1.45496 1.97027 -1.26545e-16)
(-0.65107 2.18619 0)
(1.36306 2.04549 0)
(2.16201 2.4813 -1.16673e-16)
(3.73093 2.29822 -5.67287e-17)
(3.79192 2.55395 0)
(4.08049 2.16062 0)
(3.64533 1.94905 0)
(4.52226 1.56722 0)
(5.48342 1.28459 -9.81284e-17)
(5.04719 2.43382 0)
(4.88854 3.00976 0)
(2.76298 3.32789 0)
(2.55492 1.27946 0)
(3.85642 -1.4465 0)
(7.01508 -0.819328 0)
(9.0581 -0.375947 -8.97735e-17)
(9.83356 0.320172 0)
(9.94623 0.471193 0)
(9.84621 0.933822 -1.76632e-16)
(8.07066 0.750641 8.92474e-17)
(7.23869 0.242971 -8.64437e-17)
(6.14426 0.330559 9.01926e-17)
(0.089929 5.09729 0)
(0.397132 4.81735 -4.83848e-17)
(0.759428 4.89123 0)
(1.23116 4.58678 -2.40262e-17)
(1.78951 3.98348 0)
(2.35177 3.33404 0)
(2.88439 2.8709 2.42922e-17)
(3.37861 2.62845 0)
(3.84341 2.51721 0)
(4.30456 2.37802 0)
(4.80426 2.20613 0)
(5.27767 1.99918 0)
(5.74872 1.84329 -9.33555e-17)
(6.1954 1.68935 -4.61634e-17)
(6.70427 1.55059 4.57653e-17)
(7.21226 1.43995 0)
(7.71988 1.37207 0)
(8.25533 1.34038 0)
(8.80761 1.30222 0)
(9.43049 1.39412 0)
(9.99688 1.51865 -4.34546e-17)
(10.6114 1.72072 -4.30534e-17)
(11.1331 1.94308 4.26904e-17)
(11.628 2.22562 -4.2237e-17)
(12.0236 2.51882 0)
(12.3967 2.81522 0)
(12.668 3.06971 -4.07488e-17)
(12.8794 3.25066 0)
(13.0383 3.47986 0)
(13.1387 3.59741 -3.88866e-17)
(13.2815 3.70453 -3.83051e-17)
(13.3623 3.82949 -3.78139e-17)
(13.5696 4.03343 0)
(13.6137 4.15298 0)
(13.7657 4.30023 3.66367e-17)
(13.6446 4.41022 0)
(13.8185 4.35472 0)
(13.5536 4.11531 -3.67455e-17)
(13.4106 3.40562 3.62418e-17)
(13.3376 2.42736 -3.616e-17)
(12.8 1.31324 0)
(13.1106 -0.360069 0)
(13.5918 -1.51386 -7.16144e-17)
(13.2194 -1.18108 0)
(12.649 0.00172851 -7.12536e-17)
(11.7862 1.73318 -1.08768e-16)
(10.5515 3.12277 1.05715e-16)
(9.15888 3.39101 -6.72983e-17)
(7.51329 3.50725 0)
(4.59849 4.29571 0)
(2.07898 4.81369 -6.7151e-17)
(0.476029 4.62666 -3.31308e-17)
(-0.81219 4.49059 0)
(-1.84952 4.4028 0)
(-2.80722 4.07946 -3.24534e-17)
(-3.37863 3.82793 -6.46559e-17)
(-4.02307 3.54696 0)
(-4.33501 3.19509 6.3838e-17)
(-4.81806 2.81059 -6.35623e-17)
(-5.05237 2.39975 6.32717e-17)
(-5.4347 1.96082 0)
(-5.64942 1.54818 0)
(-5.94254 1.10995 0)
(-6.11582 0.711105 0)
(-6.34031 0.331302 0)
(-6.45894 -0.0531064 6.07381e-17)
(-6.60535 -0.392503 0)
(-6.66602 -0.71125 0)
(-6.69934 -1.00332 0)
(-6.72608 -1.26612 1.18024e-16)
(-6.68939 -1.50682 5.85016e-17)
(-6.65422 -1.68508 5.80122e-17)
(-6.62538 -1.86804 -1.15277e-16)
(-6.5266 -2.00224 5.72907e-17)
(-6.44768 -2.0987 -5.65561e-17)
(-6.42083 -2.16234 0)
(-6.26488 -2.2556 5.562e-17)
(-6.35298 -2.28758 0)
(-6.22001 -2.32844 0)
(-6.21966 -2.35202 0)
(-6.19701 -2.35637 1.07634e-16)
(-6.17887 -2.3947 -5.34645e-17)
(-6.13187 -2.41157 -5.32272e-17)
(-6.15784 -2.41891 -1.05023e-16)
(-5.99819 -2.49585 -1.55868e-16)
(-6.0175 -2.50769 -5.13009e-17)
(-5.84077 -2.55012 0)
(-5.83012 -2.60043 -1.01252e-16)
(-5.56403 -2.60714 0)
(-5.57429 -2.51998 -1.48545e-16)
(-5.25168 -2.57617 0)
(-5.21743 -2.46716 -1.45515e-16)
(-5.00702 -2.39876 0)
(-4.89731 -2.37583 0)
(-4.73781 -2.29364 -4.73538e-17)
(-4.51717 -2.27573 0)
(-4.4613 -2.18972 4.57789e-17)
(-4.28445 -2.21005 9.11686e-17)
(-4.26995 -2.09365 4.45975e-17)
(-4.08674 -2.12037 8.88795e-17)
(-4.0841 -2.06733 -8.74227e-17)
(-3.9706 -2.04232 -8.63405e-17)
(-3.94858 -2.07618 1.70081e-16)
(-3.92631 -2.07294 0)
(-3.88017 -2.01944 0)
(-3.86575 -1.98233 7.99517e-17)
(-3.92842 -2.04729 -7.83716e-17)
(-4.15601 -1.98687 0)
(-4.41544 -1.75823 0)
(-4.74427 -1.35369 8.00967e-17)
(-5.11134 -0.964723 0)
(-5.32927 -0.892703 3.06217e-19)
(-5.59474 -0.925073 2.90241e-19)
(-5.87778 -1.00413 7.86195e-17)
(-6.06532 -1.15899 0)
(-6.33785 -0.95333 -7.85646e-17)
(-6.31381 -0.559893 0)
(-6.17129 -0.275743 7.54959e-17)
(-5.91261 -0.0814293 0)
(-5.93544 -0.0192314 0)
(-6.12148 -0.0569947 -8.34346e-17)
(-6.18989 -0.17443 -8.5006e-17)
(-5.8951 -0.417351 0)
(-5.19441 -0.715498 -8.13733e-17)
(-3.86819 -0.737969 1.53919e-16)
(-2.4275 -0.478528 0)
(-0.522098 -0.226383 0)
(0.849401 0.197423 0)
(2.21234 0.348943 0)
(3.40507 0.324279 7.82932e-17)
(4.47169 0.165418 -1.5625e-16)
(5.61714 0.0285533 0)
(6.18365 -0.0905096 0)
(7.20383 -0.281006 0)
(7.94035 -0.1678 0)
(9.53386 -0.481644 0)
(10.7942 -0.0237515 0)
(11.6778 -0.0834172 0)
(10.4916 0.23338 7.26583e-17)
(11.6821 0.392997 0)
(9.45396 -0.488479 0)
(12.0593 -0.99418 7.83793e-17)
(12.7425 1.42109 0)
(14.1274 2.09184 0)
(13.1414 3.3198 -6.27896e-17)
(12.2774 3.3633 0)
(10.1596 4.46881 0)
(8.3058 5.19669 1.31079e-16)
(5.796 6.44109 1.25407e-16)
(4.23425 6.77464 1.32272e-16)
(0.804625 5.92647 0)
(0.746382 5.29989 1.37645e-16)
(-0.933056 4.2979 0)
(-1.49116 3.96553 -1.34245e-16)
(-1.61443 3.59311 0)
(-1.6174 2.88612 -1.30169e-16)
(-1.51646 2.84113 -2.02439e-19)