/*--------------------------------*- C++ -*----------------------------------*\
| =========                 |                                                 |
| \\      /  F ield         | OpenFOAM: The Open Source CFD Toolbox           |
|  \\    /   O peration     | Version:  dev                                   |
|   \\  /    A nd           | Web:      http://www.openfoam.org               |
|    \\/     M anipulation  |                                                 |
\*---------------------------------------------------------------------------*/
FoamFile
{
    version     2.0;
    format      ascii;
    class       volVectorField;
    object      UMean;
    location    "9.12";
}
// * * * * * * * * * * * * * * * * * * * * * * * * * * * * * * * * * * * * * //

dimensions      [0 1 -1 0 0 0 0];

internalField   nonuniform List<vector> 
12225
(
(7.00367 0.430269 0)
(4.43883 0.192542 0)
(2.55683 0.0311486 0)
(2.51096 -0.0166577 0)
(1.38449 0.0193591 0)
(2.26749 -0.0342787 0)
(0.989503 0.0489786 0)
(2.1828 -0.0591751 0)
(0.797469 0.0716544 0)
(2.29202 -0.097851 0)
(0.688669 0.0993735 0)
(2.74383 -0.138627 0)
(0.947863 0.10261 0)
(3.39686 -0.172107 0)
(3.52962 -0.168414 0)
(4.6941 0.0501095 0)
(14.8383 -2.43324 0)
(7.11565 5.13123 0)
(9.54628 0.981597 0)
(9.54344 0.860861 0)
(6.68685 0.466276 0)
(7.59063 0.214549 0)
(4.09061 0.140306 0)
(6.84352 0.0108101 0)
(2.66506 0.132641 0)
(6.68979 -0.0903377 0)
(1.82258 0.141844 0)
(7.03978 -0.165059 0)
(1.26053 0.123914 0)
(8.12232 -0.414345 0)
(1.38516 0.252485 0)
(9.95456 -1.4418 0)
(3.43502 0.272544 0)
(12.3853 -4.06645 0)
(10.4245 -1.92631 0)
(7.77245 0.483019 0)
(9.11844 0.763507 0)
(12.1669 0.951367 0)
(8.32948 0.623937 0)
(11.8323 0.443361 0)
(6.22596 0.310279 0)
(11.4133 0.206474 0)
(4.58241 0.221474 0)
(11.3154 -0.0195351 0)
(3.87365 0.192918 0)
(11.3772 -0.277853 0)
(4.34981 0.187262 0)
(11.2539 -0.723192 0)
(5.72776 0.176254 0)
(11.0911 -1.49163 0)
(7.21428 0.0534898 0)
(12.1172 -3.86428 0)
(6.93322 0.350602 0)
(9.35271 -2.39236 0)
(7.21877 0.525007 0)
(13.9932 0.960964 0)
(7.92956 0.609436 0)
(14.2956 0.553799 0)
(7.47411 0.420873 0)
(14.1168 0.271098 0)
(7.17542 0.396646 0)
(13.7389 -0.145075 0)
(7.25636 0.459523 0)
(13.2702 -0.698658 0)
(7.65874 0.576692 0)
(12.8751 -1.42257 0)
(8.26569 0.699545 0)
(12.652 -2.31294 0)
(9.02127 0.043045 0)
(11.8897 -3.63577 0)
(8.68458 -1.43113 0)
(8.36572 0.6808 0)
(6.42381 0.569966 0)
(14.0112 0.565862 0)
(8.47353 0.674385 0)
(13.9583 0.284488 0)
(9.16957 0.636617 0)
(13.6437 -0.0025387 0)
(9.51744 0.657763 0)
(13.214 -0.388625 0)
(9.59239 0.73428 0)
(12.8128 -0.871165 0)
(9.44572 0.876812 0)
(12.5819 -1.5211 0)
(9.14945 1.08992 0)
(12.5693 -2.48913 0)
(8.82629 1.13236 0)
(11.6151 -5.02625 0)
(8.5427 1.26718 0)
(8.72203 0.12458 0)
(7.95655 0.616908 0)
(11.8029 0.152313 0)
(9.5056 0.654718 0)
(11.7392 0.0501668 0)
(10.0889 0.69392 0)
(11.6001 -0.165693 0)
(10.3212 0.725842 0)
(11.4757 -0.457512 0)
(10.3012 0.783094 0)
(11.3887 -0.853506 0)
(10.0336 0.832293 0)
(11.3541 -1.39997 0)
(9.49339 0.801911 0)
(11.4161 -2.1382 0)
(8.80235 0.727376 0)
(10.9955 -3.92015 0)
(7.73689 1.33646 0)
(9.48908 -0.219501 0)
(9.34481 0.812708 0)
(10.438 -0.266106 0)
(10.1416 0.930433 0)
(10.553 -0.304624 0)
(10.3996 1.01995 0)
(10.581 -0.502945 0)
(10.5211 1.07546 0)
(10.6244 -0.781173 0)
(10.5647 1.15348 0)
(10.6707 -1.15775 0)
(10.5169 1.23539 0)
(10.6987 -1.63568 0)
(10.369 1.26167 0)
(10.6865 -2.32693 0)
(10.0563 1.27215 0)
(10.375 -3.95313 0)
(8.30323 2.01861 0)
(9.69662 -0.95401 0)
(9.85 0.701235 0)
(10.1549 -0.326215 0)
(10.4075 0.855051 0)
(10.3889 -0.350076 0)
(10.5813 0.906899 0)
(10.4697 -0.494165 0)
(10.7027 0.893047 0)
(10.5512 -0.686447 0)
(10.8065 0.872908 0)
(10.6432 -0.93543 0)
(10.8823 0.824313 0)
(10.7347 -1.23285 0)
(10.9099 0.67217 0)
(10.7533 -1.67247 0)
(10.7258 0.520622 0)
(10.4925 -2.47349 0)
(8.89721 0.980015 0)
(9.96373 -0.485629 0)
(10.0867 0.802238 0)
(10.0188 -0.583631 0)
(10.5365 1.02137 0)
(10.31 -0.604644 0)
(10.6762 1.07498 0)
(10.4394 -0.725086 0)
(10.7785 1.0482 0)
(10.5703 -0.890111 0)
(10.8581 1.00369 0)
(10.7109 -1.1178 0)
(10.8997 0.921222 0)
(10.8314 -1.39487 0)
(10.8751 0.734948 0)
(10.8219 -1.76057 0)
(10.6035 0.505708 0)
(10.5207 -2.0682 0)
(9.35208 0.585089 0)
(10.0232 -0.392402 0)
(10.1399 0.648712 0)
(10.0415 -0.512185 0)
(10.511 0.878123 0)
(10.3327 -0.456748 0)
(10.622 0.869337 0)
(10.4813 -0.49387 0)
(10.6984 0.778397 0)
(10.6284 -0.572357 0)
(10.7346 0.658075 0)
(10.7631 -0.695536 0)
(10.7183 0.49577 0)
(10.8398 -0.845053 0)
(10.6186 0.26433 0)
(10.7652 -1.03198 0)
(10.2829 0.070384 0)
(10.4793 -1.05247 0)
(9.62442 0.123669 0)
(10.2065 -0.0331592 0)
(10.1415 0.700027 0)
(10.0702 -0.692056 0)
(10.4529 0.902529 0)
(10.2982 -0.619074 0)
(10.5378 0.847632 0)
(10.4299 -0.645624 0)
(10.6035 0.735252 0)
(10.5604 -0.70744 0)
(10.6275 0.586752 0)
(10.6602 -0.791218 0)
(10.6094 0.383109 0)
(10.6811 -0.869104 0)
(10.5272 0.117029 0)
(10.5709 -0.921741 0)
(10.292 -0.113958 0)
(10.361 -0.764683 0)
(10.0206 -0.154647 0)
(10.2455 -0.125371 0)
(10.0971 0.468072 0)
(10.1507 -0.495328 0)
(10.3539 0.595821 0)
(10.2933 -0.374817 0)
(10.4205 0.527608 0)
(10.4093 -0.354962 0)
(10.485 0.41895 0)
(10.5239 -0.37433 0)
(10.5133 0.275798 0)
(10.5993 -0.414733 0)
(10.5159 0.0933679 0)
(10.5971 -0.461596 0)
(10.4769 -0.103287 0)
(10.4996 -0.499936 0)
(10.3575 -0.232168 0)
(10.3648 -0.405487 0)
(10.2664 -0.22005 0)
(10.374 -0.110347 0)
(10.0501 0.410973 0)
(10.1753 -0.487396 0)
(10.2549 0.437181 0)
(10.2379 -0.36759 0)
(10.3088 0.367328 0)
(10.3306 -0.345634 0)
(10.3793 0.250824 0)
(10.4246 -0.355309 0)
(10.4227 0.0994471 0)
(10.4823 -0.374842 0)
(10.4463 -0.0797292 0)
(10.4818 -0.403313 0)
(10.4331 -0.246682 0)
(10.4262 -0.431126 0)
(10.3774 -0.339225 0)
(10.3687 -0.392596 0)
(10.3573 -0.32061 0)
(10.4224 -0.276597 0)
(10.0154 0.199638 0)
(10.1908 -0.285917 0)
(10.1932 0.16731 0)
(10.2052 -0.179359 0)
(10.2294 0.131637 0)
(10.2792 -0.171403 0)
(10.3062 0.0472205 0)
(10.3626 -0.197782 0)
(10.3661 -0.0587181 0)
(10.4142 -0.235708 0)
(10.4056 -0.176005 0)
(10.4268 -0.286385 0)
(10.4125 -0.274975 0)
(10.4114 -0.331607 0)
(10.3996 -0.324129 0)
(10.4067 -0.337181 0)
(10.411 -0.316046 0)
(10.4699 -0.304859 0)
(9.99666 0.0971095 0)
(10.1445 -0.185954 0)
(10.1463 0.0216114 0)
(10.1501 -0.133679 0)
(10.1622 -0.00866539 0)
(10.2089 -0.146164 0)
(10.241 -0.0769825 0)
(10.2919 -0.186724 0)
(10.311 -0.159407 0)
(10.3486 -0.237953 0)
(10.3576 -0.244782 0)
(10.3792 -0.298295 0)
(10.3806 -0.316273 0)
(10.394 -0.350064 0)
(10.396 -0.361026 0)
(10.4186 -0.380203 0)
(10.4239 -0.381068 0)
(10.479 -0.387259 0)
(9.99374 0.0155187 0)
(10.1061 -0.0858275 0)
(10.1089 -0.0443413 0)
(10.1139 -0.0932459 0)
(10.1188 -0.0748934 0)
(10.1675 -0.118927 0)
(10.1981 -0.120608 0)
(10.2519 -0.163824 0)
(10.2741 -0.180567 0)
(10.3154 -0.219146 0)
(10.3279 -0.243923 0)
(10.3598 -0.277804 0)
(10.366 -0.301326 0)
(10.3941 -0.328992 0)
(10.3997 -0.346989 0)
(10.433 -0.370802 0)
(10.4357 -0.383788 0)
(10.4885 -0.397002 0)
(9.99179 0.004785 0)
(10.0637 -0.0251636 0)
(10.0567 -0.0349228 0)
(10.0679 -0.0664678 0)
(10.0778 -0.0757147 0)
(10.128 -0.0997562 0)
(10.1573 -0.115938 0)
(10.211 -0.144694 0)
(10.2338 -0.168969 0)
(10.2782 -0.19956 0)
(10.2921 -0.226558 0)
(10.3301 -0.257029 0)
(10.3385 -0.283316 0)
(10.3732 -0.312051 0)
(10.3789 -0.336809 0)
(10.4154 -0.365541 0)
(10.4147 -0.388056 0)
(10.4636 -0.407469 0)
(9.99152 0.01422 0)
(10.0466 0.0161999 0)
(10.0398 -0.0105421 0)
(10.0575 -0.0376452 0)
(10.0748 -0.0565041 0)
(10.1254 -0.0778222 0)
(10.1554 -0.0988384 0)
(10.2071 -0.123792 0)
(10.2311 -0.148967 0)
(10.2754 -0.176602 0)
(10.2911 -0.20341 0)
(10.3293 -0.232138 0)
(10.3395 -0.259351 0)
(10.3737 -0.288292 0)
(10.3802 -0.315625 0)
(10.4141 -0.345691 0)
(10.4133 -0.37155 0)
(10.4568 -0.393364 0)
(9.99163 0.0330037 0)
(10.0502 0.0497277 0)
(10.0566 0.0100098 0)
(10.0798 -0.0179993 0)
(10.1006 -0.0401723 0)
(10.1506 -0.0614122 0)
(10.1818 -0.0835534 0)
(10.2315 -0.106355 0)
(10.2562 -0.130505 0)
(10.2984 -0.155469 0)
(10.315 -0.181041 0)
(10.3507 -0.20729 0)
(10.3614 -0.233528 0)
(10.3926 -0.260378 0)
(10.3991 -0.286999 0)
(10.4288 -0.315251 0)
(10.4281 -0.340982 0)
(10.4654 -0.36276 0)
(9.98988 0.0407869 0)
(10.0547 0.0527517 0)
(10.0828 -0.00625536 0)
(10.1167 -0.0405933 0)
(10.1419 -0.0640521 0)
(10.1903 -0.0822062 0)
(10.2223 -0.102045 0)
(10.269 -0.120962 0)
(10.2935 -0.142711 0)
(10.332 -0.163962 0)
(10.3483 -0.187379 0)
(10.3802 -0.210069 0)
(10.3904 -0.234378 0)
(10.4174 -0.257895 0)
(10.4229 -0.282763 0)
(10.4473 -0.307796 0)
(10.4461 -0.332421 0)
(10.4768 -0.352818 0)
(9.99054 0.0316905 0)
(10.0685 0.0221276 0)
(10.1261 -0.0556522 0)
(10.1769 -0.0966782 0)
(10.2125 -0.119718 0)
(10.2609 -0.132683 0)
(10.2937 -0.147725 0)
(10.3361 -0.161608 0)
(10.3601 -0.179794 0)
(10.3941 -0.196883 0)
(10.4103 -0.21733 0)
(10.4377 -0.236214 0)
(10.4478 -0.257966 0)
(10.4702 -0.278031 0)
(10.4754 -0.300715 0)
(10.4946 -0.322336 0)
(10.4939 -0.345187 0)
(10.5187 -0.363466 0)
(9.99115 0.00993892 0)
(10.092 -0.0296354 0)
(10.1869 -0.120782 0)
(10.2595 -0.162725 0)
(10.3093 -0.181091 0)
(10.359 -0.187127 0)
(10.3929 -0.196008 0)
(10.4304 -0.204338 0)
(10.4542 -0.218086 0)
(10.4836 -0.230726 0)
(10.5001 -0.24759 0)
(10.5232 -0.26262 0)
(10.5337 -0.28133 0)
(10.5517 -0.298016 0)
(10.5572 -0.318075 0)
(10.5718 -0.336405 0)
(10.5722 -0.35698 0)
(10.592 -0.373113 0)
(9.9928 -0.0232638 0)
(10.1275 -0.103494 0)
(10.2671 -0.204832 0)
(10.3665 -0.241516 0)
(10.432 -0.250745 0)
(10.4836 -0.248338 0)
(10.5183 -0.250851 0)
(10.5518 -0.25365 0)
(10.5753 -0.26293 0)
(10.6012 -0.271296 0)
(10.6181 -0.284631 0)
(10.6378 -0.296254 0)
(10.6487 -0.312068 0)
(10.6631 -0.325825 0)
(10.6691 -0.343361 0)
(10.6801 -0.358806 0)
(10.6813 -0.377115 0)
(10.6968 -0.391263 0)
(9.99055 -0.0715573 0)
(10.1745 -0.201105 0)
(10.3679 -0.305407 0)
(10.5002 -0.327819 0)
(10.5806 -0.322531 0)
(10.6344 -0.310166 0)
(10.669 -0.30555 0)
(10.6997 -0.302544 0)
(10.7227 -0.306682 0)
(10.746 -0.310565 0)
(10.7624 -0.319892 0)
(10.7794 -0.328036 0)
(10.7895 -0.340576 0)
(10.8006 -0.351353 0)
(10.8055 -0.365946 0)
(10.8124 -0.378505 0)
(10.8121 -0.394061 0)
(10.8221 -0.406014 0)
(9.99204 -0.136296 0)
(10.2448 -0.322928 0)
(10.5027 -0.41893 0)
(10.6712 -0.417564 0)
(10.7628 -0.394114 0)
(10.8175 -0.371049 0)
(10.8494 -0.358892 0)
(10.8772 -0.35054 0)
(10.896 -0.350061 0)
(10.9148 -0.350459 0)
(10.9253 -0.356354 0)
(10.9355 -0.361485 0)
(10.9374 -0.370791 0)
(10.9393 -0.378654 0)
(10.9339 -0.389853 0)
(10.929 -0.399438 0)
(10.9163 -0.411362 0)
(10.9114 -0.420508 0)
(9.9898 -0.219859 0)
(10.3369 -0.468077 0)
(10.6737 -0.53969 0)
(10.8758 -0.508184 0)
(10.9698 -0.464814 0)
(11.0135 -0.428028 0)
(11.0286 -0.404781 0)
(11.0352 -0.388363 0)
(11.029 -0.3814 0)
(11.0194 -0.376949 0)
(10.9979 -0.378165 0)
(10.9734 -0.37907 0)
(10.9376 -0.383792 0)
(10.8998 -0.387272 0)
(10.8521 -0.393642 0)
(10.804 -0.398967 0)
(10.7459 -0.405287 0)
(10.6942 -0.410059 0)
(9.98338 -0.332037 0)
(10.4677 -0.642269 0)
(10.883 -0.667054 0)
(11.0725 -0.602597 0)
(11.103 -0.537145 0)
(11.0584 -0.483084 0)
(10.9743 -0.444948 0)
(10.8731 -0.416202 0)
(10.7577 -0.397989 0)
(10.6349 -0.38325 0)
(10.5034 -0.374867 0)
(10.3664 -0.366309 0)
(10.2239 -0.362426 0)
(10.0772 -0.356976 0)
(9.92837 -0.355834 0)
(9.77677 -0.353243 0)
(9.62556 -0.352944 0)
(9.47561 -0.351108 0)
(10.0025 -0.45366 0)
(10.619 -0.818934 0)
(10.9016 -0.752041 0)
(10.7933 -0.623727 0)
(10.4938 -0.512506 0)
(10.1376 -0.429166 0)
(9.77011 -0.373542 0)
(9.41757 -0.334709 0)
(9.07674 -0.307279 0)
(8.75537 -0.284594 0)
(8.44635 -0.267639 0)
(8.15325 -0.251316 0)
(7.87246 -0.240031 0)
(7.60286 -0.227327 0)
(7.34803 -0.221124 0)
(7.09848 -0.211809 0)
(6.87003 -0.210839 0)
(6.64058 -0.204163 0)
(10.0975 -0.750779 0)
(10.0459 -1.01318 0)
(9.42501 -0.801064 0)
(8.51451 -0.572165 0)
(7.65509 -0.378716 0)
(6.92895 -0.244881 0)
(6.32738 -0.167521 0)
(5.83165 -0.126249 0)
(5.40921 -0.104698 0)
(5.0486 -0.0923146 0)
(4.7285 -0.0849531 0)
(4.44776 -0.0793418 0)
(4.19133 -0.075803 0)
(3.96241 -0.0718855 0)
(3.75068 -0.0721251 0)
(3.55549 -0.0690696 0)
(3.38325 -0.0802477 0)
(3.21832 -0.0828418 0)
(8.51677 -0.436051 0)
(6.11029 -0.380883 0)
(4.29838 -0.138044 0)
(3.12392 -0.0213798 0)
(2.48114 0.0191367 0)
(2.1205 0.0224782 0)
(1.89625 0.0137213 0)
(1.73493 0.00462125 0)
(1.59888 -0.00156347 0)
(1.47813 -0.00478596 0)
(1.36603 -0.00640102 0)
(1.26387 -0.00671742 0)
(1.16819 -0.00670599 0)
(1.08146 -0.00638774 0)
(0.999419 -0.00665437 0)
(0.919188 -0.00702978 0)
(0.851676 -0.0185976 0)
(0.731194 -0.00612926 0)
(-0.0520631 0.138002 0)
(-0.157052 0.0714024 0)
(-0.206934 0.0163253 0)
(-0.194963 -0.0444794 0)
(-0.117569 -0.0992023 0)
(0.0127694 -0.14523 0)
(0.186971 -0.175753 1.11353e-17)
(0.388862 -0.193691 -1.10603e-17)
(0.607224 -0.198061 0)
(0.82972 -0.192782 -1.09171e-17)
(1.04697 -0.17844 0)
(1.25001 -0.157676 0)
(1.43225 -0.131031 0)
(1.58843 -0.101645 1.06425e-17)
(1.7159 -0.0703595 0)
(1.81191 -0.0382386 0)
(1.87559 -0.00604461 -1.04454e-17)
(1.90763 0.0242386 0)
(1.90972 0.0506753 0)
(1.88394 0.07233 0)
(1.83399 0.0892526 1.01959e-17)
(1.76243 0.100824 0)
(1.67318 0.108746 1.0074e-17)
(1.56793 0.111668 0)
(1.45136 0.109727 0)
(1.3262 0.107977 9.89534e-18)
(1.19272 0.111186 0)
(1.05015 0.116247 -9.77902e-18)
(0.901649 0.121473 0)
(0.747803 0.126532 9.66415e-18)
(0.590141 0.130559 0)
(0.430939 0.133049 0)
(0.272453 0.134223 0)
(0.115186 0.133999 0)
(-0.0405502 0.131129 0)
(-0.192718 0.126484 -9.32955e-18)
(-0.339643 0.120414 0)
(-0.48093 0.113959 1.84405e-17)
(-0.61513 0.107518 0)
(-0.741808 0.10031 -1.82215e-17)
(-0.859481 0.0932602 0)
(-0.968297 0.0864476 0)
(-1.06871 0.0786674 1.78884e-17)
(-1.16023 0.0702715 0)
(-1.24352 0.062542 1.76652e-17)
(-1.31866 0.0552955 -1.75532e-17)
(-1.38512 0.0482952 0)
(-1.44377 0.0422856 -1.73282e-17)
(-1.49571 0.0369927 -1.72152e-17)
(-1.53987 0.0333181 0)
(-1.57656 0.0317841 0)
(-1.60773 0.0318151 0)
(-1.63529 0.0318499 0)
(-1.66019 0.0317285 0)
(-1.68373 0.0325338 1.65283e-17)
(-1.70772 0.0340445 0)
(-1.73356 0.0362514 -1.6299e-17)
(-1.75999 0.0382646 0)
(-1.78582 0.0388902 0)
(-1.81108 0.0395271 1.59524e-17)
(-1.83654 0.0413323 0)
(-1.8641 0.0426009 -1.57211e-17)
(-1.89368 0.0443198 0)
(-1.92514 0.0458609 0)
(-1.95801 0.0467404 0)
(-1.9917 0.0479258 1.52556e-17)
(-2.02583 0.0497213 0)
(-2.0607 0.0518972 0)
(-2.09608 0.0542696 1.4906e-17)
(-2.13224 0.0557116 0)
(-2.16621 0.0559195 1.46713e-17)
(-2.19707 0.0562893 0)
(-2.2247 0.0564558 0)
(-2.24806 0.0562831 0)
(-2.2662 0.0556801 -1.42052e-17)
(-2.27841 0.054458 0)
(-2.2854 0.0537568 0)
(-2.2891 0.0537143 -1.38614e-17)
(-2.28992 0.0527669 -1.3748e-17)
(-2.28615 0.0511313 0)
(-2.276 0.0488862 -1.35227e-17)
(-2.25934 0.045997 0)
(-2.23582 0.0428878 -2.66026e-17)
(-2.20543 0.039486 0)
(-2.16869 0.0358262 -2.61672e-17)
(-2.1254 0.0327445 0)
(-2.07661 0.0303109 2.57385e-17)
(-2.02311 0.0283153 0)
(-1.96499 0.0268341 0)
(-1.90288 0.0258074 0)
(-1.83832 0.0251926 -2.49015e-17)
(-1.7711 0.024907 0)
(-1.70282 0.0248614 2.44998e-17)
(-1.63359 0.0255003 0)
(-1.56419 0.0266193 -2.41104e-17)
(-1.49655 0.029183 -2.39218e-17)
(-1.42976 0.0303341 -2.37375e-17)
(-1.36293 0.0314318 0)
(-1.29789 0.0314768 0)
(-1.2334 0.0326532 0)
(-1.16758 0.0333773 0)
(-1.10267 0.032924 0)
(-1.03266 0.0317919 0)
(-0.963998 0.0332469 0)
(-0.892935 0.0328709 0)
(-0.826199 0.0354303 2.22133e-17)
(-0.758715 0.0357802 2.20612e-17)
(-0.696359 0.0402123 0)
(-0.635654 0.0414065 0)
(-0.580374 0.0412275 0)
(-0.513222 0.0385141 2.14805e-17)
(-0.45128 0.0427038 0)
(-0.382977 0.0409863 0)
(-0.31848 0.0438434 0)
(-0.248194 0.0408679 0)
(-0.176044 0.0434121 -2.0806e-17)
(-0.102016 0.0451266 0)
(-0.022656 0.0441485 0)
(0.0615737 0.0454918 2.04288e-17)
(0.149572 0.0452047 -2.03073e-17)
(0.241342 0.0444005 0)
(0.337848 0.048216 -2.00746e-17)
(0.429841 0.0511062 0)
(0.523043 0.0542511 1.98481e-17)
(0.606152 0.0590173 0)
(0.678039 0.0619856 0)
(0.75397 0.0622982 0)
(0.823676 0.0630713 0)
(0.903703 0.0602777 0)
(0.977392 0.0609001 -3.83961e-17)
(1.0534 0.0626266 -3.81771e-17)
(1.11299 0.0676678 0)
(1.16367 0.0663078 0)
(1.20864 0.0674872 0)
(1.24706 0.0633635 3.72525e-17)
(1.29576 0.0588807 0)
(1.34606 0.0571342 0)
(1.39162 0.0560033 0)
(1.44032 0.054181 3.62326e-17)
(1.47722 0.0568159 -3.59643e-17)
(1.52034 0.0527291 0)
(1.55924 0.0527162 0)
(1.60083 0.053174 -3.51498e-17)
(1.62682 0.0582861 -3.4877e-17)
(1.65678 0.0549915 0)
(1.68509 0.0587494 0)
(1.72414 0.05575 3.4044e-17)
(1.76056 0.0659459 -3.37646e-17)
(1.76887 0.0713661 0)
(1.78263 0.0706939 0)
(1.80824 0.0710479 -3.29279e-17)
(1.84191 0.0757271 0)
(1.85591 0.0833191 0)
(1.86782 0.0890345 -3.20838e-17)
(1.86763 0.0931353 0)
(1.88226 0.0979915 -3.15238e-17)
(1.88463 0.105018 0)
(1.89047 0.10918 0)
(1.87775 0.120783 0)
(1.86473 0.126613 3.0434e-17)
(1.85003 0.133053 0)
(1.8183 0.143009 0)
(1.74579 0.154772 0)
(1.66906 0.154769 0)
(1.60285 0.157121 0)
(1.51223 0.165892 0)
(1.38344 0.172609 2.88922e-17)
(1.26449 0.173885 2.87381e-17)
(1.0803 0.181948 0)
(0.872849 0.184692 0)
(0.629248 0.183589 0)
(0.413599 0.169771 -2.83208e-17)
(0.191513 0.162842 0)
(0.0392268 0.146649 5.6347e-17)
(-0.16199 0.144055 -5.62375e-17)
(-0.265283 0.123676 -5.60582e-17)
(-0.426645 0.126808 5.59543e-17)
(-0.461824 0.0966561 -5.57517e-17)
(-0.619474 0.129181 5.57319e-17)
(-0.566489 -0.00411523 0)
(0.0101584 0.248809 0)
(0.0147388 0.191854 0)
(0.049963 0.0074286 -2.27962e-17)
(0.121496 -0.198747 0)
(0.236614 -0.384771 2.23645e-17)
(0.389123 -0.536199 2.22176e-17)
(0.570433 -0.645074 1.10433e-17)
(0.770431 -0.710974 1.09809e-17)
(0.977796 -0.737551 0)
(1.18199 -0.731219 1.08537e-17)
(1.37437 -0.695299 0)
(1.54766 -0.636903 0)
(1.6979 -0.562166 -2.1319e-17)
(1.82035 -0.47763 -1.05943e-17)
(1.91496 -0.385667 2.10546e-17)
(1.97993 -0.291121 2.09211e-17)
(2.01665 -0.198761 1.0395e-17)
(2.02519 -0.110671 0)
(2.00799 -0.027633 0)
(1.96502 0.0471061 0)
(1.90017 0.112566 1.01361e-17)
(1.8135 0.171615 0)
(1.70968 0.224437 -3.00359e-17)
(1.58751 0.267178 0)
(1.4493 0.302058 0)
(1.29556 0.332552 -9.83145e-18)
(1.12979 0.356485 0)
(0.954719 0.373742 9.71514e-18)
(0.774216 0.384781 1.93119e-17)
(0.589165 0.392073 -9.59719e-18)
(0.40235 0.394197 0)
(0.215028 0.390423 0)
(0.0268825 0.383182 0)
(-0.161605 0.376243 1.87305e-17)
(-0.34866 0.36768 1.86161e-17)
(-0.532993 0.35542 9.25108e-18)
(-0.711793 0.34069 0)
(-0.885638 0.323688 -1.82759e-17)
(-1.05056 0.303214 0)
(-1.20885 0.281375 1.80506e-17)
(-1.35889 0.258951 0)
(-1.50238 0.236175 0)
(-1.63778 0.215831 -1.77167e-17)
(-1.76604 0.19679 0)
(-1.88958 0.178924 -5.24866e-17)
(-2.00752 0.160199 1.73857e-17)
(-2.11885 0.141314 0)
(-2.22332 0.124523 1.71656e-17)
(-2.3216 0.106954 1.70554e-17)
(-2.41257 0.0875485 0)
(-2.49456 0.0690108 0)
(-2.56942 0.0546894 0)
(-2.63885 0.0451174 0)
(-2.70483 0.0398305 0)
(-2.76675 0.037979 -1.63738e-17)
(-2.82658 0.0370364 -3.25153e-17)
(-2.88473 0.0367382 1.61415e-17)
(-2.93832 0.0338406 0)
(-2.98952 0.0296992 -3.18131e-17)
(-3.03847 0.0282843 1.57875e-17)
(-3.08455 0.0292666 0)
(-3.13163 0.0302237 1.555e-17)
(-3.1765 0.0329743 0)
(-3.21941 0.0344755 0)
(-3.26073 0.0341125 3.03756e-17)
(-3.30113 0.0335623 -1.50675e-17)
(-3.33709 0.0315932 2.98921e-17)
(-3.3706 0.028918 -2.96508e-17)
(-3.39816 0.0252957 -1.47048e-17)
(-3.42258 0.0204994 0)
(-3.44062 0.012907 -1.4463e-17)
(-3.45193 0.00266936 0)
(-3.45755 -0.00811385 0)
(-3.45469 -0.0206726 0)
(-3.44262 -0.0349542 -1.39832e-17)
(-3.42226 -0.0489867 0)
(-3.39538 -0.0591182 -2.74954e-17)
(-3.36271 -0.0662264 4.08948e-17)
(-3.32469 -0.0747176 1.35165e-17)
(-3.28036 -0.0857248 0)
(-3.22817 -0.0983622 1.3288e-17)
(-3.17074 -0.110926 0)
(-3.10772 -0.122856 2.61246e-17)
(-3.03959 -0.133744 0)
(-2.96653 -0.144139 2.56816e-17)
(-2.88844 -0.153443 -5.09233e-17)
(-2.80648 -0.162315 -2.52478e-17)
(-2.72218 -0.170312 0)
(-2.63283 -0.177931 0)
(-2.54127 -0.183648 0)
(-2.44744 -0.187858 2.44077e-17)
(-2.35031 -0.191929 0)
(-2.25194 -0.194576 -2.40014e-17)
(-2.15358 -0.194875 0)
(-2.05468 -0.196385 7.08231e-17)
(-1.95595 -0.195624 2.34176e-17)
(-1.85661 -0.19655 2.32316e-17)
(-1.75948 -0.193648 0)
(-1.66473 -0.19315 0)
(-1.5694 -0.194211 0)
(-1.47142 -0.194989 0)
(-1.37468 -0.197357 0)
(-1.27194 -0.201724 4.43233e-17)
(-1.17596 -0.199589 4.3987e-17)
(-1.07606 -0.199821 0)
(-0.98912 -0.193997 -2.16755e-17)
(-0.892508 -0.195367 -2.15236e-17)
(-0.805947 -0.188215 0)
(-0.711304 -0.187035 -4.24442e-17)
(-0.633831 -0.18582 0)
(-0.538038 -0.196274 2.09377e-17)
(-0.45284 -0.190258 0)
(-0.347735 -0.198551 0)
(-0.25366 -0.195261 -4.10578e-17)
(-0.141109 -0.203738 0)
(-0.0375689 -0.203706 2.02723e-17)
(0.0869486 -0.211179 0)
(0.212486 -0.21902 0)
(0.348116 -0.223524 1.98871e-17)
(0.488269 -0.228723 1.97709e-17)
(0.633842 -0.234739 0)
(0.783264 -0.235647 -1.95335e-17)
(0.943307 -0.237088 0)
(1.10279 -0.229261 1.92965e-17)
(1.26848 -0.219478 3.83627e-17)
(1.41639 -0.213142 0)
(1.5738 -0.21416 0)
(1.71882 -0.214117 0)
(1.87862 -0.215491 0)
(2.02505 -0.210408 3.72301e-17)
(2.17949 -0.207146 1.11006e-16)
(2.31515 -0.187759 0)
(2.43959 -0.183418 0)
(2.55787 -0.17301 0)
(2.66482 -0.175473 -3.60799e-17)
(2.76664 -0.179507 0)
(2.86986 -0.179204 0)
(2.96454 -0.177218 7.06159e-17)
(3.05951 -0.176358 3.50341e-17)
(3.13254 -0.170252 3.47647e-17)
(3.2205 -0.179612 0)
(3.2839 -0.173617 0)
(3.35247 -0.17503 3.39208e-17)
(3.39838 -0.164051 -3.36152e-17)
(3.44459 -0.178173 0)
(3.47382 -0.174839 0)
(3.50836 -0.190973 -3.27228e-17)
(3.53647 -0.173207 9.7192e-17)
(3.55116 -0.168906 0)
(3.56212 -0.179984 0)
(3.57375 -0.19167 3.14613e-17)
(3.59493 -0.189718 0)
(3.59106 -0.183159 6.16288e-17)
(3.58979 -0.181426 -3.04732e-17)
(3.56296 -0.18568 0)
(3.55946 -0.194604 2.98469e-17)
(3.53541 -0.190928 5.90586e-17)
(3.52408 -0.192369 0)
(3.47753 -0.185659 0)
(3.45426 -0.194655 -2.85753e-17)
(3.41395 -0.186563 0)
(3.35697 -0.169164 5.5888e-17)
(3.25958 -0.149893 0)
(3.16786 -0.154891 0)
(3.04741 -0.146163 0)
(2.91844 -0.121231 0)
(2.7227 -0.102296 -2.66524e-17)
(2.56381 -0.0757167 -2.64632e-17)
(2.27919 -0.0260479 0)
(2.0056 -0.00112498 0)
(1.67537 0.0229352 0)
(1.38047 0.0188318 2.5958e-17)
(1.04672 0.0235997 0)
(0.838888 0.0145247 -5.16685e-17)
(0.517192 0.0335097 5.16419e-17)
(0.402036 0.0011859 5.14934e-17)
(0.120694 0.0320995 5.14844e-17)
(0.120872 -0.0158631 5.1331e-17)
(-0.175812 0.0787273 5.14954e-17)
(0.0119258 -0.117642 0)
(0.0290648 0.0708088 0)
(0.121261 -0.0388811 0)
(0.228404 -0.242244 2.2913e-17)
(0.340668 -0.469233 2.26644e-17)
(0.475282 -0.693848 -2.25128e-17)
(0.619565 -0.875698 -2.23998e-17)
(0.773887 -1.00423 -1.48274e-21)
(0.925229 -1.07434 0)
(1.07034 -1.08498 0)
(1.19709 -1.04571 0)
(1.30583 -0.965847 0)
(1.39175 -0.856573 0)
(1.45731 -0.726063 6.47094e-17)
(1.49798 -0.58581 0)
(1.51658 -0.440945 -2.13042e-17)
(1.51133 -0.29449 -2.11679e-17)
(1.48513 -0.15308 0)
(1.43653 -0.0196102 0)
(1.37019 0.104222 0)
(1.28583 0.216668 0)
(1.18577 0.315999 -2.0502e-17)
(1.0708 0.399026 0)
(0.945947 0.471404 2.02481e-17)
(0.808475 0.53656 0)
(0.661269 0.591435 0)
(0.505685 0.636365 0)
(0.347159 0.672316 3.95244e-17)
(0.184664 0.699513 0)
(0.0207217 0.718916 -1.9522e-17)
(-0.144223 0.729296 3.87993e-17)
(-0.30845 0.732451 0)
(-0.474967 0.734174 0)
(-0.641677 0.731191 0)
(-0.807227 0.721683 -1.89163e-17)
(-0.969163 0.706436 -1.87955e-17)
(-1.12792 0.684934 0)
(-1.28187 0.657613 0)
(-1.43029 0.626089 3.68586e-17)
(-1.57167 0.592023 3.66189e-17)
(-1.71133 0.557692 -3.63807e-17)
(-1.84592 0.525011 0)
(-1.9787 0.491545 0)
(-2.10583 0.459476 0)
(-2.22929 0.430257 0)
(-2.34856 0.402725 3.52004e-17)
(-2.46187 0.373646 3.49667e-17)
(-2.57003 0.344126 -3.47346e-17)
(-2.67274 0.315752 0)
(-2.76933 0.28785 0)
(-2.86087 0.259358 0)
(-2.947 0.233032 0)
(-3.03272 0.214817 3.35754e-17)
(-3.11239 0.198282 0)
(-3.18712 0.184601 0)
(-3.25521 0.176275 3.28779e-17)
(-3.31861 0.170625 3.26464e-17)
(-3.37657 0.163313 0)
(-3.42684 0.153583 -6.43598e-17)
(-3.47508 0.146403 3.19486e-17)
(-3.51929 0.139819 -3.17143e-17)
(-3.55768 0.136012 0)
(-3.59314 0.133354 0)
(-3.62255 0.129255 0)
(-3.64705 0.125167 0)
(-3.66904 0.120121 -3.05527e-17)
(-3.68678 0.112914 -6.06462e-17)
(-3.69834 0.10513 -3.00974e-17)
(-3.70619 0.0968266 2.98725e-17)
(-3.70685 0.0853241 0)
(-3.70243 0.0721322 -5.88395e-17)
(-3.69005 0.0560487 -5.83911e-17)
(-3.67243 0.0398238 -5.79462e-17)
(-3.65059 0.0219453 5.75044e-17)
(-3.61992 -0.000460625 0)
(-3.5823 -0.023275 8.49412e-17)
(-3.53879 -0.0428052 0)
(-3.49052 -0.058225 -2.78775e-17)
(-3.43368 -0.0719555 -2.76645e-17)
(-3.36887 -0.087532 0)
(-3.29782 -0.104266 0)
(-3.22327 -0.120869 -5.40406e-17)
(-3.14652 -0.135542 0)
(-3.06578 -0.14958 -5.31933e-17)
(-2.98251 -0.163052 0)
(-2.89466 -0.177271 5.23545e-17)
(-2.80335 -0.188524 1.03881e-16)
(-2.7084 -0.198185 0)
(-2.61268 -0.207385 0)
(-2.51394 -0.214947 0)
(-2.4165 -0.221296 5.02911e-17)
(-2.31724 -0.227204 0)
(-2.21468 -0.231984 4.94695e-17)
(-2.10923 -0.235297 0)
(-2.0033 -0.234465 0)
(-1.89494 -0.234488 -9.65059e-17)
(-1.78948 -0.231936 0)
(-1.682 -0.23133 -4.74617e-17)
(-1.57891 -0.225187 0)
(-1.47144 -0.225997 -4.6694e-17)
(-1.36497 -0.225348 0)
(-1.25602 -0.224551 0)
(-1.14882 -0.228286 0)
(-1.03817 -0.230845 -1.35693e-16)
(-0.938357 -0.222135 -4.48694e-17)
(-0.828817 -0.219099 0)
(-0.736214 -0.208195 0)
(-0.634313 -0.210068 0)
(-0.549647 -0.197134 0)
(-0.445435 -0.1933 4.32352e-17)
(-0.36041 -0.187311 -8.58344e-17)
(-0.253971 -0.204391 -4.26321e-17)
(-0.167326 -0.196654 8.46563e-17)
(-0.0479314 -0.212595 8.40934e-17)
(0.053401 -0.208835 4.17609e-17)
(0.182945 -0.223713 0)
(0.295252 -0.224266 8.23968e-17)
(0.433679 -0.239913 0)
(0.565247 -0.249321 -8.1286e-17)
(0.713256 -0.256301 -4.03847e-17)
(0.859141 -0.261691 0)
(1.014 -0.270473 7.97648e-17)
(1.1629 -0.273788 3.96293e-17)
(1.32511 -0.282221 0)
(1.48357 -0.280682 3.90905e-17)
(1.65798 -0.269921 -1.16509e-16)
(1.81709 -0.257681 0)
(1.9818 -0.256594 0)
(2.13358 -0.256064 0)
(2.29385 -0.259091 0)
(2.44988 -0.254328 -7.51548e-17)
(2.60596 -0.251237 -7.46563e-17)
(2.75641 -0.219913 0)
(2.89533 -0.214671 0)
(3.0247 -0.202024 0)
(3.14879 -0.200935 0)
(3.25347 -0.205393 0)
(3.37625 -0.209063 0)
(3.4877 -0.207568 -7.09541e-17)
(3.60338 -0.20522 -1.65083e-20)
(3.69547 -0.195797 0)
(3.80702 -0.209223 0)
(3.89435 -0.196648 -6.86085e-17)
(3.98826 -0.197473 0)
(4.06628 -0.176548 6.74277e-17)
(4.13667 -0.187526 6.68108e-17)
(4.17792 -0.170216 0)
(4.23271 -0.18872 0)
(4.27109 -0.164829 -6.49022e-17)
(4.3215 -0.156134 -1.28515e-16)
(4.34947 -0.160629 0)
(4.38272 -0.172776 0)
(4.42502 -0.164009 0)
(4.43855 -0.149547 -6.16933e-17)
(4.46798 -0.136519 6.10054e-17)
(4.46756 -0.136042 0)
(4.48782 -0.142066 1.19375e-16)
(4.47151 -0.129937 5.90326e-17)
(4.48882 -0.12828 -1.16771e-16)
(4.46627 -0.109893 0)
(4.46572 -0.116977 0)
(4.43505 -0.0955505 -1.12751e-16)
(4.39491 -0.0676342 -5.57156e-17)
(4.31044 -0.0380223 0)
(4.24704 -0.0356637 0)
(4.11388 -0.0169584 0)
(4.00374 0.0256333 0)
(3.79074 0.0530127 -1.05585e-16)
(3.62213 0.0960048 0)
(3.32368 0.167582 0)
(3.06474 0.192477 0)
(2.71397 0.220009 0)
(2.3999 0.20292 0)
(2.01044 0.18755 0)
(1.77285 0.154526 -1.00632e-16)
(1.36652 0.151999 0)
(1.23699 0.0831962 0)
(0.852413 0.105495 -1.99414e-16)
(0.847718 0.0228394 9.9245e-17)
(0.461762 0.111257 -9.94018e-17)
(0.65802 -0.129048 9.87811e-17)
(0.0206144 -0.094582 0)
(0.125073 -0.270153 -4.69563e-17)
(0.247905 -0.490937 0)
(0.375927 -0.756559 -2.27968e-17)
(0.502613 -1.00016 0)
(0.618689 -1.18881 0)
(0.723173 -1.30606 2.2445e-17)
(0.803632 -1.34895 0)
(0.866304 -1.31887 0)
(0.905348 -1.23297 0)
(0.927262 -1.11018 0)
(0.929867 -0.960949 0)
(0.918043 -0.793825 -8.6613e-17)
(0.889164 -0.616704 -4.30238e-17)
(0.846717 -0.433991 4.27445e-17)
(0.790403 -0.252981 0)
(0.722268 -0.0803419 0)
(0.640933 0.0810083 0)
(0.549866 0.229687 0)
(0.448549 0.363013 0)
(0.339755 0.480578 -4.11501e-17)
(0.221676 0.582506 -4.08975e-17)
(0.0956187 0.673341 4.06484e-17)
(-0.0362394 0.749498 -4.04008e-17)
(-0.17226 0.812366 0)
(-0.311049 0.860538 0)
(-0.451368 0.896629 -3.96576e-17)
(-0.592055 0.921387 0)
(-0.733673 0.935571 0)
(-0.875841 0.944235 -3.89246e-17)
(-1.01861 0.949775 -3.86814e-17)
(-1.15924 0.947533 -3.8437e-17)
(-1.29679 0.938514 0)
(-1.43113 0.923267 0)
(-1.56092 0.901863 3.76934e-17)
(-1.68575 0.872265 0)
(-1.80668 0.836784 0)
(-1.92402 0.797341 -3.69486e-17)
(-2.03839 0.759377 3.66969e-17)
(-2.15122 0.721308 -3.64482e-17)
(-2.2576 0.682609 0)
(-2.36228 0.643277 0)
(-2.46294 0.607073 -7.1419e-17)
(-2.56079 0.573011 0)
(-2.65333 0.535085 -7.04534e-17)
(-2.74233 0.49715 -1.04963e-16)
(-2.82769 0.461548 1.04242e-16)
(-2.90772 0.425384 -6.90145e-17)
(-2.98462 0.388422 0)
(-3.05894 0.35307 0)
(-3.13227 0.324489 -6.7602e-17)
(-3.20288 0.299573 -3.35706e-17)
(-3.26729 0.273587 0)
(-3.32749 0.252033 0)
(-3.38312 0.236174 -3.28784e-17)
(-3.43331 0.218775 -6.5297e-17)
(-3.47725 0.199348 0)
(-3.5152 0.180976 6.43791e-17)
(-3.54925 0.166221 -6.392e-17)
(-3.57791 0.152434 6.34641e-17)
(-3.60075 0.138496 0)
(-3.61734 0.125225 0)
(-3.62949 0.114094 0)
(-3.63629 0.10302 0)
(-3.63944 0.0930542 0)
(-3.63719 0.0774129 6.07738e-17)
(-3.6306 0.0603728 0)
(-3.61735 0.0417924 0)
(-3.59828 0.0207915 0)
(-3.57513 -0.00114751 1.18047e-16)
(-3.54646 -0.0251199 5.85912e-17)
(-3.5131 -0.0491547 5.81577e-17)
(-3.47479 -0.0762152 -1.15457e-16)
(-3.43012 -0.107736 5.73038e-17)
(-3.38206 -0.137918 -5.68844e-17)
(-3.32777 -0.165511 0)
(-3.26855 -0.19146 5.60373e-17)
(-3.19939 -0.218145 0)
(-3.12608 -0.243425 0)
(-3.04711 -0.265366 0)
(-2.96665 -0.286105 1.08718e-16)
(-2.88402 -0.30511 -5.39458e-17)
(-2.79808 -0.324005 -5.35323e-17)
(-2.71087 -0.342731 -1.06269e-16)
(-2.61967 -0.362469 -1.58214e-16)
(-2.52757 -0.378159 -5.23428e-17)
(-2.43074 -0.39094 0)
(-2.33436 -0.40238 -1.0307e-16)
(-2.23646 -0.410512 0)
(-2.13865 -0.417001 -1.52205e-16)
(-2.0401 -0.427066 0)
(-1.94269 -0.433577 -1.49832e-16)
(-1.83913 -0.439957 0)
(-1.7351 -0.440618 0)
(-1.62612 -0.44213 -4.87469e-17)
(-1.51879 -0.438751 0)
(-1.40798 -0.438261 4.7972e-17)
(-1.30214 -0.433494 9.51557e-17)
(-1.18832 -0.43529 4.72032e-17)
(-1.07871 -0.43724 9.3649e-17)
(-0.960295 -0.43791 -9.2892e-17)