/*--------------------------------*- C++ -*----------------------------------*\
| =========                 |                                                 |
| \\      /  F ield         | OpenFOAM: The Open Source CFD Toolbox           |
|  \\    /   O peration     | Version:  dev                                   |
|   \\  /    A nd           | Web:      http://www.openfoam.org               |
|    \\/     M anipulation  |                                                 |
\*---------------------------------------------------------------------------*/
FoamFile
{
    version     2.0;
    format      ascii;
    class       volSymmTensorField;
    object      UPrime2Mean;
    location    "9.12";
}
// * * * * * * * * * * * * * * * * * * * * * * * * * * * * * * * * * * * * * //

dimensions      [0 2 -2 0 0 0 0];

internalField   nonuniform List<symmTensor> 
12225
(
(0.329238 0.0192818 0 0.0692945 0 0)
(2.98573 0.0797269 0 0.0782201 0 0)
(7.87896 0.112372 0 0.0769225 0 0)
(14.5313 0.148303 0 0.0755966 0 0)
(22.6979 0.133127 0 0.0765419 0 0)
(32.0592 0.201203 0 0.0746952 0 0)
(42.3688 0.0961705 0 0.0766357 0 0)
(53.5086 0.200599 0 0.0738733 0 0)
(65.5987 -0.0281 0 0.0776318 0 0)
(78.1905 0.125989 0 0.0736398 0 0)
(92.9324 -0.305714 0 0.0813282 0 0)
(107.268 -0.115231 0 0.0770078 0 0)
(127.87 -0.67158 0 0.0863228 0 0)
(145.573 -1.27654 0 0.134717 0 0)
(185.87 -1.40885 0 0.11641 0 0)
(198.457 -0.392977 0 2.39208 0 0)
(272.219 -33.5258 0 5.80742 0 0)
(575.636 -52.8913 0 18.8087 0 0)
(0.37738 0.0568472 0 0.689266 0 0)
(3.15551 0.252332 0 0.732573 0 0)
(8.40917 0.362281 0 0.714421 0 0)
(15.4696 0.485606 0 0.70691 0 0)
(24.1914 0.453403 0 0.703771 0 0)
(34.4461 0.633167 0 0.683593 0 0)
(45.511 0.296753 0 0.692385 0 0)
(58.4593 0.60974 0 0.659051 0 0)
(71.4472 -0.134039 0 0.682885 0 0)
(87.1114 0.283917 0 0.646224 0 0)
(102.742 -1.06321 0 0.711468 0 0)
(121.372 -0.763926 0 0.655686 0 0)
(142.788 -2.54043 0 1.06876 0 0)
(166.252 -4.48865 0 1.04684 0 0)
(199.677 -0.927272 0 3.09933 0 0)
(274.277 -9.97667 0 6.60086 0 0)
(280.946 -20.8224 0 8.73809 0 0)
(799.531 -185.1 0 64.6832 0 0)
(0.505049 0.0584328 0 2.14151 0 0)
(3.0636 0.424815 0 2.20344 0 0)
(8.46446 0.570785 0 2.15234 0 0)
(14.8489 0.85235 0 2.14382 0 0)
(24.2699 0.865248 0 2.12071 0 0)
(33.1403 1.05384 0 2.08349 0 0)
(45.2584 0.757548 0 2.07923 0 0)
(56.1819 0.8877 0 2.00844 0 0)
(69.6639 0.174295 0 2.05251 0 0)
(83.4142 0.01934 0 1.96017 0 0)
(98.1509 -1.12005 0 2.12326 0 0)
(115.613 -2.44373 0 2.09509 0 0)
(138.565 -3.59177 0 2.62255 0 0)
(154.812 -7.19304 0 2.83104 0 0)
(210.916 -12.9995 0 6.11674 0 0)
(223.299 -7.89124 0 6.37106 0 0)
(352.871 -62.2254 0 31.0696 0 0)
(534.279 -192.362 0 98.1619 0 0)
(1.03016 0.092478 0 4.67248 0 0)
(3.54961 0.619834 0 4.7691 0 0)
(9.06815 0.816259 0 4.64482 0 0)
(15.0634 1.15072 0 4.6041 0 0)
(24.6312 1.31399 0 4.55975 0 0)
(32.9749 1.35119 0 4.48543 0 0)
(44.9929 1.26335 0 4.45036 0 0)
(55.1504 0.975581 0 4.35184 0 0)
(68.5783 0.478917 0 4.38346 0 0)
(80.6851 -0.279366 0 4.25978 0 0)
(96.002 -1.32628 0 4.5088 0 0)
(110.473 -3.33643 0 4.3739 0 0)
(131.426 -4.78793 0 5.30235 0 0)
(152.186 -10.9611 0 5.60768 0 0)
(187.797 -11.4243 0 9.28282 0 0)
(238.284 -28.8425 0 16.8182 0 0)
(291.308 -58.8731 0 32.6649 0 0)
(414.649 -178.201 0 107.766 0 0)
(1.86426 0.365224 0 8.52643 0 0)
(5.00955 0.720596 0 8.72801 0 0)
(9.4347 1.14073 0 8.47671 0 0)
(16.2389 1.29553 0 8.37362 0 0)
(24.6414 1.70222 0 8.28389 0 0)
(33.9376 1.50404 0 8.14887 0 0)
(44.8051 1.60028 0 8.048 0 0)
(55.505 0.995526 0 7.91594 0 0)
(68.3902 0.604306 0 7.8627 0 0)
(80.0933 -0.589705 0 7.76476 0 0)
(95.3352 -1.77313 0 7.96592 0 0)
(108.517 -4.2209 0 7.9131 0 0)
(128.048 -6.87083 0 9.02818 0 0)
(145.166 -12.2789 0 9.27022 0 0)
(173.892 -19.1856 0 14.5849 0 0)
(217.818 -25.9383 0 17.2134 0 0)
(233.512 -55.5348 0 46.2644 0 0)
(326.555 -171.638 0 138.574 0 0)
(2.56137 0.750865 0 14.046 0 0)
(6.32415 0.807178 0 14.3979 0 0)
(9.29546 1.54082 0 13.9679 0 0)
(17.0932 1.59543 0 13.7732 0 0)
(24.1305 2.12224 0 13.5983 0 0)
(34.2569 1.93851 0 13.3662 0 0)
(43.9586 1.9939 0 13.1608 0 0)
(55.1535 1.41875 0 12.9198 0 0)
(67.3013 0.899117 0 12.7826 0 0)
(78.8811 -0.380542 0 12.5814 0 0)
(94.3869 -1.7315 0 12.7808 0 0)
(105.788 -4.30411 0 12.6891 0 0)
(128.06 -7.25756 0 13.9896 0 0)
(137.881 -13.1439 0 14.668 0 0)
(170.893 -21.8219 0 21.2446 0 0)
(191.417 -33.0153 0 24.5989 0 0)
(210.969 -55.863 0 51.5723 0 0)
(265.575 -145.598 0 130.594 0 0)
(2.24244 0.721982 0 21.5417 0 0)
(5.54075 0.94061 0 22.1578 0 0)
(9.19598 1.76464 0 21.3834 0 0)
(16.3353 2.0784 0 21.1956 0 0)
(23.9663 2.45178 0 20.7968 0 0)
(33.3542 2.54477 0 20.5636 0 0)
(43.5991 2.27756 0 20.0948 0 0)
(54.0318 1.9316 0 19.8648 0 0)
(66.4636 0.902347 0 19.4461 0 0)
(77.3343 -0.213024 0 19.2934 0 0)
(92.4833 -2.36402 0 19.2323 0 0)
(103.46 -4.81519 0 19.2751 0 0)
(123.591 -8.96972 0 20.4824 0 0)
(133.872 -14.2483 0 21.4603 0 0)
(161.465 -24.3836 0 28.5173 0 0)
(169.3 -32.386 0 32.0552 0 0)
(203.317 -58.9675 0 56.8627 0 0)
(190.168 -108.722 0 114.123 0 0)
(1.42112 0.598866 0 29.7672 0 0)
(4.31705 1.13429 0 30.653 0 0)
(8.57772 1.92491 0 29.5053 0 0)
(15.2457 2.47381 0 29.3341 0 0)
(23.198 2.77927 0 28.6885 0 0)
(32.255 2.96556 0 28.4276 0 0)
(42.4049 2.60148 0 27.6753 0 0)
(52.7713 2.19481 0 27.3948 0 0)
(64.4047 1.01225 0 26.6702 0 0)
(75.5878 -0.357635 0 26.5049 0 0)
(88.6112 -2.74486 0 26.1203 0 0)
(100.395 -5.72662 0 26.3445 0 0)
(115.494 -10.3104 0 27.0983 0 0)
(128.029 -15.7861 0 28.6121 0 0)
(144.586 -26.4721 0 33.9207 0 0)
(151.96 -33.4356 0 37.4845 0 0)
(180.264 -54.8562 0 53.1814 0 0)
(139.514 -71.2553 0 83.6805 0 0)
(1.00193 0.521259 0 38.542 0 0)
(3.77117 1.28737 0 39.737 0 0)
(8.17189 2.03651 0 38.1989 0 0)
(14.7202 2.78075 0 38.0578 0 0)
(22.6389 3.00742 0 37.1475 0 0)
(31.5746 3.31796 0 36.8726 0 0)
(41.4856 2.80805 0 35.8208 0 0)
(51.7563 2.47678 0 35.5024 0 0)
(62.8031 1.04319 0 34.4926 0 0)
(73.8173 -0.276016 0 34.2927 0 0)
(85.6229 -3.03901 0 33.6604 0 0)
(96.9818 -5.89556 0 33.9199 0 0)
(109.292 -10.9376 0 34.4262 0 0)
(121.169 -16.0258 0 36.145 0 0)
(131.158 -25.544 0 40.0217 0 0)
(138.086 -33.1829 0 44.7525 0 0)
(149.913 -47.2824 0 52.4662 0 0)
(123.147 -58.7009 0 73.1182 0 0)
(0.607108 0.484581 0 49.7332 0 0)
(3.22951 1.44616 0 51.3223 0 0)
(7.73562 2.18744 0 49.2246 0 0)
(14.191 3.0374 0 49.1375 0 0)
(21.9814 3.27541 0 47.8477 0 0)
(30.8367 3.5819 0 47.5686 0 0)
(40.4557 3.06801 0 46.1064 0 0)
(50.5867 2.6404 0 45.7379 0 0)
(61.1036 1.16604 0 44.3175 0 0)
(71.7676 -0.28797 0 44.0736 0 0)
(82.6411 -3.13583 0 43.028 0 0)
(93.18 -6.03075 0 43.3462 0 0)
(103.81 -11.0831 0 43.344 0 0)
(113.672 -15.8316 0 45.1995 0 0)
(121.271 -24.4869 0 47.698 0 0)
(125.71 -30.5454 0 51.9673 0 0)
(129.037 -40.6838 0 56.481 0 0)
(115.961 -48.3511 0 69.0394 0 0)
(0.432578 0.516382 0 63.9334 0 0)
(2.97656 1.6283 0 65.9897 0 0)
(7.46638 2.38474 0 63.2965 0 0)
(13.8394 3.31232 0 63.1852 0 0)
(21.4823 3.57196 0 61.5505 0 0)
(30.176 3.86208 0 61.1364 0 0)
(39.5293 3.35925 0 59.3273 0 0)
(49.3624 2.82196 0 58.7326 0 0)
(59.4252 1.37314 0 57.0105 0 0)
(69.5228 -0.263059 0 56.4926 0 0)
(79.6104 -2.97672 0 55.1882 0 0)
(89.1401 -6.07493 0 55.2433 0 0)
(98.4492 -10.5444 0 54.8946 0 0)
(106.322 -15.4041 0 56.441 0 0)
(112.48 -22.1144 0 57.8804 0 0)
(115.014 -28.0261 0 61.6089 0 0)
(115.957 -35.1664 0 64.5694 0 0)
(109.514 -40.7607 0 71.4634 0 0)
(0.355918 0.540897 0 81.4337 0 0)
(2.83015 1.74593 0 84.1208 0 0)
(7.25866 2.5563 0 80.6513 0 0)
(13.51 3.50338 0 80.5426 0 0)
(20.9792 3.81124 0 78.4553 0 0)
(29.4527 4.03931 0 77.9025 0 0)
(38.5041 3.56335 0 75.6122 0 0)
(47.9675 2.92234 0 74.7874 0 0)
(57.5138 1.48448 0 72.5941 0 0)
(66.9999 -0.218764 0 71.8065 0 0)
(76.2055 -2.86714 0 70.0494 0 0)
(84.7852 -5.85053 0 69.7892 0 0)
(92.6845 -9.95238 0 68.9513 0 0)
(99.1093 -14.2782 0 69.9032 0 0)
(103.818 -19.7209 0 70.5424 0 0)
(105.762 -24.6309 0 73.0446 0 0)
(105.916 -29.7921 0 74.9835 0 0)
(101.675 -33.2739 0 78.6351 0 0)
(0.329151 0.569369 0 102.52 0 0)
(2.73502 1.80773 0 105.732 0 0)
(7.06572 2.6844 0 101.704 0 0)
(13.149 3.58516 0 101.236 0 0)
(20.4228 3.9355 0 98.9703 0 0)
(28.6014 4.05699 0 97.891 0 0)
(37.3285 3.6177 0 95.3752 0 0)
(46.322 2.83658 0 93.9256 0 0)
(55.3435 1.47772 0 91.4876 0 0)
(64.1174 -0.337897 0 90.0359 0 0)
(72.4895 -2.75425 0 88.0073 0 0)
(80.0733 -5.68329 0 87.0319 0 0)
(86.7887 -9.19112 0 85.8177 0 0)
(92.0455 -13.0776 0 85.823 0 0)
(95.7436 -17.2927 0 85.7702 0 0)
(97.3274 -21.3566 0 86.9093 0 0)
(97.4295 -25.1984 0 87.9337 0 0)
(94.6279 -27.6513 0 89.5349 0 0)
(0.313571 0.573647 0 126.525 0 0)
(2.63974 1.77503 0 130.457 0 0)
(6.84495 2.66893 0 125.745 0 0)
(12.7248 3.46502 0 124.936 0 0)
(19.7566 3.79342 0 122.404 0 0)
(27.6016 3.80811 0 120.827 0 0)
(35.9368 3.33543 0 117.943 0 0)
(44.4399 2.48949 0 115.909 0 0)
(52.87 1.13585 0 113.047 0 0)
(60.9571 -0.62603 0 110.955 0 0)
(68.4998 -2.89237 0 108.462 0 0)
(75.2178 -5.52248 0 106.734 0 0)
(80.9508 -8.57564 0 104.964 0 0)
(85.3964 -11.797 0 103.957 0 0)
(88.4391 -15.1575 0 103.123 0 0)
(89.8755 -18.323 0 102.946 0 0)
(90.1778 -21.2401 0 102.956 0 0)
(88.2164 -22.8853 0 103.106 0 0)
(0.299182 0.525234 0 151.951 0 0)
(2.53179 1.58275 0 156.457 0 0)
(6.58082 2.37892 0 151.325 0 0)
(12.2271 2.98971 0 149.886 0 0)
(18.9638 3.21394 0 147.326 0 0)
(26.4375 3.07274 0 145.014 0 0)
(34.3322 2.53327 0 141.923 0 0)
(42.3154 1.60229 0 139.116 0 0)
(50.1462 0.274197 0 135.916 0 0)
(57.5596 -1.42924 0 133.037 0 0)
(64.367 -3.48946 0 130.084 0 0)
(70.341 -5.82541 0 127.509 0 0)
(75.351 -8.40054 0 125.104 0 0)
(79.2347 -11.0509 0 123.1 0 0)
(81.9307 -13.6871 0 121.383 0 0)
(83.3474 -16.1502 0 120.042 0 0)
(83.9296 -18.3474 0 118.95 0 0)
(82.7235 -19.3922 0 117.836 0 0)
(0.283877 0.394513 0 175.184 0 0)
(2.41337 1.14643 0 180.388 0 0)
(6.28063 1.67184 0 174.777 0 0)
(11.6655 2.00469 0 172.894 0 0)
(18.0686 2.00258 0 170.212 0 0)
(25.144 1.66655 0 167.36 0 0)
(32.5711 0.986848 0 163.973 0 0)
(40.0344 -0.0210767 0 160.575 0 0)
(47.287 -1.35428 0 156.956 0 0)
(54.0957 -2.96491 0 153.441 0 0)
(60.2826 -4.83188 0 149.951 0 0)
(65.6838 -6.86126 0 146.658 0 0)
(70.1943 -9.01406 0 143.559 0 0)
(73.7412 -11.1606 0 140.702 0 0)
(76.295 -13.2231 0 138.109 0 0)
(77.8201 -15.1215 0 135.781 0 0)
(78.7017 -16.768 0 133.667 0 0)
(78.1537 -17.3646 0 131.466 0 0)
(0.268661 0.156628 0 190.301 0 0)
(2.2925 0.391744 0 195.979 0 0)
(5.96415 0.490082 0 190.081 0 0)
(11.07 0.412043 0 187.939 0 0)
(17.1231 0.0759952 0 185.192 0 0)
(23.791 -0.53174 0 182.021 0 0)
(30.7566 -1.40018 0 178.441 0 0)
(37.7246 -2.52163 0 174.687 0 0)
(44.4592 -3.87041 0 170.774 0 0)
(50.7542 -5.40943 0 166.853 0 0)
(56.4569 -7.09525 0 162.959 0 0)
(61.4457 -8.86273 0 159.178 0 0)
(65.6452 -10.6575 0 155.54 0 0)
(69.0261 -12.4015 0 152.076 0 0)
(71.5813 -14.0189 0 148.808 0 0)
(73.2997 -15.4882 0 145.762 0 0)
(74.494 -16.7237 0 142.868 0 0)
(74.5388 -17.0439 0 139.871 0 0)
(0.259004 -0.142381 0 190.274 0 0)
(2.19498 -0.533953 0 195.909 0 0)
(5.68757 -0.937173 0 190.076 0 0)
(10.5373 -1.49211 0 187.924 0 0)
(16.2749 -2.21222 0 185.22 0 0)
(22.5828 -3.11423 0 182.055 0 0)
(29.1532 -4.18728 0 178.5 0 0)
(35.7134 -5.42563 0 174.749 0 0)
(42.041 -6.79881 0 170.823 0 0)
(47.9585 -8.27823 0 166.87 0 0)
(53.3299 -9.81712 0 162.894 0 0)
(58.0668 -11.373 0 159.007 0 0)
(62.1083 -12.893 0 155.193 0 0)
(65.4483 -14.3337 0 151.528 0 0)
(68.0855 -15.63 0 147.985 0 0)
(70.0254 -16.789 0 144.645 0 0)
(71.5014 -17.7353 0 141.395 0 0)
(72.0353 -17.9394 0 138.064 0 0)
(0.255843 -0.396291 0 174.45 0 0)
(2.13583 -1.30625 0 179.405 0 0)
(5.49691 -2.12758 0 174.073 0 0)
(10.1569 -3.07586 0 172.081 0 0)
(15.6612 -4.10406 0 169.599 0 0)
(21.7051 -5.23292 0 166.709 0 0)
(27.9917 -6.45537 0 163.457 0 0)
(34.2665 -7.76831 0 160.033 0 0)
(40.3197 -9.14329 0 156.426 0 0)
(45.9947 -10.5604 0 152.797 0 0)
(51.1664 -11.9778 0 149.112 0 0)
(55.7666 -13.3689 0 145.505 0 0)
(59.7419 -14.6887 0 141.921 0 0)
(63.0966 -15.9143 0 138.468 0 0)
(65.8285 -16.994 0 135.083 0 0)
(67.9552 -17.9431 0 131.88 0 0)
(69.6457 -18.7004 0 128.724 0 0)
(70.5426 -18.8875 0 125.523 0 0)
(0.257306 -0.545459 0 149.004 0 0)
(2.10807 -1.74747 0 152.964 0 0)
(5.38256 -2.82278 0 148.427 0 0)
(9.91501 -4.00599 0 146.709 0 0)
(15.2627 -5.20943 0 144.588 0 0)
(21.1299 -6.4581 0 142.135 0 0)
(27.2288 -7.74401 0 139.37 0 0)
(33.3178 -9.06903 0 136.465 0 0)
(39.1971 -10.4058 0 133.392 0 0)
(44.7232 -11.7443 0 130.3 0 0)
(49.7807 -13.0464 0 127.143 0 0)
(54.3105 -14.2989 0 124.047 0 0)
(58.2665 -15.4624 0 120.952 0 0)
(61.6541 -16.5281 0 117.963 0 0)
(64.4725 -17.4522 0 115.013 0 0)
(66.7439 -18.254 0 112.215 0 0)
(68.5933 -18.8827 0 109.441 0 0)
(69.7532 -19.0919 0 106.65 0 0)
(0.260178 -0.601237 0 120.09 0 0)
(2.09917 -1.88962 0 123.062 0 0)
(5.31658 -3.06737 0 119.412 0 0)
(9.76371 -4.34014 0 118.018 0 0)
(15.0066 -5.59815 0 116.312 0 0)
(20.7562 -6.86752 0 114.348 0 0)
(26.7315 -8.13799 0 112.135 0 0)
(32.6999 -9.41492 0 109.808 0 0)
(38.469 -10.6729 0 107.343 0 0)
(43.9035 -11.909 0 104.859 0 0)
(48.8959 -13.0892 0 102.317 0 0)
(53.3919 -14.2092 0 99.8176 0 0)
(57.3501 -15.2344 0 97.3124 0 0)
(60.7752 -16.1649 0 94.8865 0 0)
(63.6677 -16.9636 0 92.4878 0 0)
(66.0523 -17.6501 0 90.2038 0 0)
(68.0238 -18.1836 0 87.9384 0 0)
(69.3824 -18.419 0 85.6626 0 0)
(0.26311 -0.590441 0 91.9285 0 0)
(2.09881 -1.82978 0 94.0451 0 0)
(5.27884 -2.99623 0 91.2531 0 0)
(9.66915 -4.2464 0 90.1795 0 0)
(14.8416 -5.4664 0 88.8801 0 0)
(20.5127 -6.67867 0 87.3852 0 0)
(26.4063 -7.87277 0 85.7044 0 0)
(32.296 -9.05369 0 83.9323 0 0)
(37.995 -10.2007 0 82.0563 0 0)
(43.3733 -11.3126 0 80.159 0 0)
(48.3293 -12.3624 0 78.2178 0 0)
(52.8108 -13.3485 0 76.3029 0 0)
(56.7803 -14.2434 0 74.3845 0 0)
(60.2408 -15.0496 0 72.5207 0 0)
(63.1942 -15.7391 0 70.679 0 0)
(65.6675 -16.3268 0 68.9187 0 0)
(67.7333 -16.7835 0 67.1755 0 0)
(69.2447 -17.0329 0 65.4221 0 0)
(0.26621 -0.536621 0 66.9645 0 0)
(2.10268 -1.65056 0 68.4057 0 0)
(5.25758 -2.73014 0 66.3732 0 0)
(9.61018 -3.88278 0 65.5902 0 0)
(14.7353 -5.0021 0 64.652 0 0)
(20.3541 -6.104 0 63.5701 0 0)
(26.1943 -7.18044 0 62.3557 0 0)
(32.033 -8.23332 0 61.0699 0 0)
(37.688 -9.24784 0 59.7108 0 0)
(43.0329 -10.2215 0 58.3308 0 0)
(47.9699 -11.1352 0 56.9216 0 0)
(52.4484 -11.9863 0 55.5267 0 0)
(56.4329 -12.7556 0 54.1325 0 0)
(59.9255 -13.4446 0 52.7734 0 0)
(62.9289 -14.0338 0 51.433 0 0)
(65.4711 -14.5327 0 50.1469 0 0)
(67.6094 -14.9226 0 48.8769 0 0)
(69.2387 -15.1703 0 47.5955 0 0)
(0.26802 -0.462757 0 46.3111 0 0)
(2.10709 -1.41559 0 47.2503 0 0)
(5.24575 -2.36324 0 45.8491 0 0)
(9.57342 -3.37437 0 45.311 0 0)
(14.667 -4.35526 0 44.6697 0 0)
(20.2512 -5.31531 0 43.9259 0 0)
(26.0568 -6.2495 0 43.0918 0 0)
(31.8632 -7.15614 0 42.2044 0 0)
(37.4915 -8.02628 0 41.2687 0 0)
(42.8171 -8.85525 0 40.3154 0 0)
(47.745 -9.6308 0 39.3453 0 0)
(52.2254 -10.3489 0 38.3825 0 0)
(56.2244 -10.9973 0 37.4228 0 0)
(59.7431 -11.5753 0 36.4846 0 0)
(62.7845 -12.0708 0 35.5612 0 0)
(65.3775 -12.4875 0 34.6718 0 0)
(67.5678 -12.8155 0 33.7968 0 0)
(69.2829 -13.0459 0 32.9105 0 0)
(0.269212 -0.382978 0 30.1721 0 0)
(2.11067 -1.16437 0 30.7567 0 0)
(5.23905 -1.95784 0 29.8461 0 0)
(9.55 -2.80669 0 29.4989 0 0)
(14.6223 -3.6302 0 29.0868 0 0)
(20.1833 -4.43459 0 28.6062 0 0)
(25.9659 -5.21608 0 28.0669 0 0)
(31.7501 -5.97166 0 27.4912 0 0)
(37.3597 -6.69482 0 26.8851 0 0)
(42.6707 -7.3808 0 26.2666 0 0)
(47.5902 -8.02107 0 25.6385 0 0)
(52.0681 -8.61149 0 25.014 0 0)
(56.0725 -9.14408 0 24.3929 0 0)
(59.6033 -9.61696 0 23.7841 0 0)
(62.6643 -10.0226 0 23.1859 0 0)
(65.2832 -10.3613 0 22.6081 0 0)
(67.5004 -10.6285 0 22.0409 0 0)
(69.2686 -10.8261 0 21.4652 0 0)
(0.269527 -0.304528 0 18.2201 0 0)
(2.11244 -0.919545 0 18.5645 0 0)
(5.23369 -1.55374 0 18.0136 0 0)
(9.53061 -2.23656 0 17.8076 0 0)
(14.5839 -2.90061 0 17.5645 0 0)
(20.1229 -3.55052 0 17.28 0 0)
(25.8811 -4.18152 0 16.9597 0 0)
(31.6397 -4.79031 0 16.6168 0 0)
(37.2237 -5.37033 0 16.255 0 0)
(42.5094 -5.91812 0 15.8849 0 0)
(47.4065 -6.42639 0 15.5082 0 0)
(51.8634 -6.89279 0 15.1331 0 0)
(55.852 -7.31049 0 14.7595 0 0)
(59.37 -7.67922 0 14.3927 0 0)
(62.4259 -7.99317 0 14.0321 0 0)
(65.042 -8.25293 0 13.6831 0 0)
(67.2625 -8.45765 0 13.341 0 0)
(69.0581 -8.60807 0 12.9941 0 0)
(0.269157 -0.228212 0 9.88669 0 0)
(2.11018 -0.691063 0 10.0703 0 0)
(5.21647 -1.17836 0 9.77301 0 0)
(9.48716 -1.70802 0 9.67064 0 0)
(14.5103 -2.22238 0 9.54624 0 0)
(20.0159 -2.72274 0 9.39705 0 0)
(25.7371 -3.20477 0 9.22637 0 0)
(31.4579 -3.66601 0 9.04214 0 0)
(37.0028 -4.10068 0 8.84638 0 0)
(42.2514 -4.50724 0 8.64536 0 0)
(47.1125 -4.8801 0 8.43968 0 0)
(51.5394 -5.21942 0 8.23452 0 0)
(55.5027 -5.51939 0 8.02932 0 0)
(59.0046 -5.78222 0 7.82803 0 0)
(62.0523 -6.00181 0 7.62971 0 0)
(64.6676 -6.18172 0 7.43836 0 0)
(66.8918 -6.32487 0 7.25155 0 0)
(68.7208 -6.42695 0 7.0633 0 0)
(0.268042 -0.154754 0 4.48808 0 0)
(2.08333 -0.497712 0 4.58373 0 0)
(5.15521 -0.852133 0 4.45849 0 0)
(9.3864 -1.22846 0 4.42287 0 0)
(14.3839 -1.58547 0 4.3718 0 0)
(19.8641 -1.92773 0 4.30738 0 0)
(25.5589 -2.25265 0 4.23007 0 0)
(31.2537 -2.55794 0 4.14358 0 0)
(36.7756 -2.84204 0 4.05054 0 0)
(42.0036 -3.1061 0 3.9547 0 0)
(46.848 -3.34724 0 3.85688 0 0)
(51.2655 -3.5663 0 3.75977 0 0)
(55.2232 -3.75954 0 3.66287 0 0)
(58.731 -3.92901 0 3.56887 0 0)
(61.7852 -4.06862 0 3.47618 0 0)
(64.4193 -4.18369 0 3.38869 0 0)
(66.6406 -4.2742 0 3.30342 0 0)
(68.4978 -4.34426 0 3.2192 0 0)
(0.255134 -0.0881618 0 1.42165 0 0)
(2.06735 -0.31335 0 1.48739 0 0)
(5.20363 -0.525846 0 1.44732 0 0)
(9.49326 -0.734181 0 1.43418 0 0)
(14.5442 -0.924242 0 1.41407 0 0)
(20.0756 -1.10682 0 1.3908 0 0)
(25.8265 -1.28341 0 1.36416 0 0)
(31.5804 -1.45147 0 1.33483 0 0)
(37.1636 -1.60937 0 1.30383 0 0)
(42.4505 -1.75692 0 1.27222 0 0)
(47.3544 -1.89261 0 1.2404 0 0)
(51.8242 -2.01647 0 1.20898 0 0)
(55.8315 -2.12647 0 1.17793 0 0)
(59.3789 -2.22327 0 1.14796 0 0)
(62.4664 -2.30279 0 1.11868 0 0)
(65.1318 -2.36901 0 1.09219 0 0)
(67.3528 -2.42162 0 1.06697 0 0)
(69.202 -2.46112 0 1.04001 0 0)
(0.245822 -0.0253219 0 0.141908 0 0)
(2.06517 -0.0977882 0 0.153695 0 0)
(5.18252 -0.165507 0 0.150909 0 0)
(9.44133 -0.230732 0 0.14974 0 0)
(14.4736 -0.29361 0 0.147438 0 0)
(19.9923 -0.353917 0 0.14471 0 0)
(25.7366 -0.412716 0 0.141711 0 0)
(31.4882 -0.469191 0 0.13858 0 0)
(37.0785 -0.522519 0 0.135357 0 0)
(42.3834 -0.572511 0 0.132105 0 0)
(47.3176 -0.618857 0 0.128847 0 0)
(51.8283 -0.66153 0 0.125644 0 0)
(55.889 -0.699962 0 0.122501 0 0)
(59.495 -0.734007 0 0.119476 0 0)
(62.6526 -0.762931 0 0.11665 0 0)
(65.3949 -0.78818 0 0.114312 0 0)
(67.706 -0.806395 0 0.112236 0 0)
(69.6328 -0.815714 0 0.111851 0 0)
(0.0244892 0.0357527 0 0.717974 0 0)
(0.267375 0.0990755 0 0.678989 0 0)
(0.785812 0.180892 0 0.671807 0 0)
(1.5395 0.295032 0 0.662553 0 0)
(2.4866 0.424149 0 0.660945 0 0)
(3.60894 0.569061 0 0.65768 0 0)
(4.88462 0.716172 -2.38622e-19 0.655734 -6.49559e-20 1.48006e-37)
(6.31089 0.867114 2.42505e-19 0.65144 6.92755e-20 1.48466e-37)
(7.88102 1.01409 0 0.645434 0 0)
(9.59305 1.16154 2.44689e-19 0.63786 6.86932e-20 1.46245e-37)
(11.4417 1.30561 0 0.629275 0 0)
(13.4211 1.44852 0 0.620177 0 0)
(15.5245 1.58566 0 0.612218 0 0)
(17.7456 1.71737 -2.76924e-19 0.60575 -5.1762e-20 1.34865e-37)
(20.0783 1.84049 0 0.599534 0 0)
(22.523 1.95406 0 0.594294 0 0)
(25.0799 2.05392 3.40034e-19 0.589979 3.90535e-20 1.22188e-37)
(27.7475 2.14173 0 0.585514 0 0)
(30.5208 2.22023 0 0.580843 0 0)
(33.3938 2.29171 0 0.576388 0 0)
(36.3507 2.3551 -4.55961e-19 0.57305 -1.96053e-20 1.01852e-37)
(39.3819 2.41103 0 0.569312 0 0)
(42.4737 2.45752 -5.15747e-19 0.567052 -1.03085e-20 9.25932e-38)
(45.6169 2.49454 0 0.56823 0 0)
(48.7953 2.52832 0 0.568943 0 0)
(51.9948 2.5515 -6.03907e-19 0.571086 1.17992e-21 7.9828e-38)
(55.2085 2.55383 0 0.572944 0 0)
(58.4405 2.53648 6.57542e-19 0.571478 -6.9093e-21 7.22146e-38)
(61.685 2.50546 0 0.563673 0 0)
(64.9479 2.46258 -7.02314e-19 0.553309 1.04898e-20 6.54468e-38)
(68.228 2.41048 0 0.539771 0 0)
(71.5128 2.35166 0 0.523946 0 0)
(74.7946 2.286 0 0.509881 0 0)
(78.0752 2.2098 0 0.498471 0 0)
(81.3482 2.12255 0 0.486917 0 0)
(84.6102 2.02708 7.79603e-19 0.476 -1.40269e-20 4.60322e-38)
(87.8598 1.92322 0 0.464367 0 0)
(91.0978 1.81088 -1.56243e-18 0.448327 2.72013e-20 1.61503e-37)
(94.3227 1.69159 0 0.432727 0 0)
(97.5299 1.56416 1.55242e-18 0.418067 -2.62196e-20 1.40079e-37)
(100.712 1.43115 0 0.402903 0 0)
(103.869 1.28893 0 0.391246 0 0)
(106.991 1.13843 -1.51434e-18 0.378693 2.15964e-20 1.11349e-37)
(110.061 0.985679 0 0.365882 0 0)
(113.064 0.830918 -1.47575e-18 0.35508 1.82773e-20 9.43909e-38)
(115.985 0.673034 1.45327e-18 0.346224 -1.65403e-20 8.66954e-38)
(118.808 0.509371 0 0.340102 0 0)
(121.526 0.339565 1.40247e-18 0.335319 -1.25074e-20 7.34956e-38)
(124.121 0.164237 1.37427e-18 0.3314 -1.0636e-20 6.80358e-38)
(126.595 -0.0136486 0 0.328134 0 0)
(128.932 -0.192786 0 0.325956 0 0)
(131.113 -0.376135 0 0.323194 0 0)
(133.118 -0.564734 0 0.321956 0 0)
(134.926 -0.755711 0 0.323964 0 0)
(136.514 -0.945615 -1.17329e-18 0.328011 -4.38656e-21 5.01883e-38)
(137.851 -1.13687 0 0.331952 0 0)
(138.927 -1.33286 1.07888e-18 0.335575 1.14474e-20 4.75485e-38)
(139.744 -1.53542 0 0.340843 0 0)
(140.297 -1.74404 0 0.347655 0 0)
(140.57 -1.94966 -9.11705e-19 0.356926 -2.25208e-20 4.75436e-38)
(140.556 -2.15343 0 0.368834 0 0)
(140.239 -2.35796 7.80425e-19 0.380789 3.12846e-20 4.97156e-38)
(139.626 -2.56131 0 0.391052 0 0)
(138.712 -2.76475 0 0.403826 0 0)
(137.506 -2.96746 0 0.418001 0 0)
(136.021 -3.16306 -4.81967e-19 0.432442 -4.76049e-20 6.03482e-38)
(134.26 -3.35216 0 0.447218 0 0)
(132.237 -3.53496 0 0.460356 0 0)
(129.965 -3.71049 -2.26248e-19 0.474064 -6.1174e-20 7.30351e-38)
(127.463 -3.88387 0 0.489185 0 0)
(124.768 -4.05007 -5.07397e-20 0.504393 -6.98041e-20 8.30157e-38)
(121.893 -4.20385 0 0.519864 0 0)
(118.855 -4.3455 0 0.535867 0 0)
(115.684 -4.4763 0 0.553009 0 0)
(112.402 -4.59774 -3.04724e-19 0.571152 8.31563e-20 1.04524e-37)
(109.029 -4.70703 0 0.589245 0 0)
(105.581 -4.80089 0 0.607203 0 0)
(102.068 -4.87966 -5.63923e-19 0.625288 9.02818e-20 1.20146e-37)
(98.5046 -4.94779 -6.45674e-19 0.644045 9.18192e-20 1.25258e-37)
(94.917 -5.00489 0 0.662835 0 0)
(91.3366 -5.05011 -7.98622e-19 0.68255 9.4592e-20 1.34674e-37)
(87.7842 -5.08413 0 0.703757 0 0)
(84.2804 -5.10628 -1.87692e-18 0.725328 1.92509e-19 5.74299e-37)
(80.8393 -5.11555 0 0.747969 0 0)
(77.4788 -5.1103 -2.12196e-18 0.770544 1.93643e-19 6.07418e-37)
(74.2172 -5.08876 0 0.793491 0 0)
(71.0686 -5.05416 2.3246e-18 0.819473 -1.93793e-19 6.36373e-37)
(68.0503 -5.00629 0 0.84453 0 0)
(65.1772 -4.93986 0 0.866858 0 0)
(62.4488 -4.85478 0 0.889582 0 0)
(59.8698 -4.75285 -2.5853e-18 0.914608 1.86167e-19 6.79669e-37)
(57.4456 -4.63658 0 0.939231 0 0)
(55.1852 -4.50412 2.646e-18 0.963452 -1.79923e-19 6.94392e-37)
(53.0904 -4.35508 0 0.987151 0 0)
(51.15 -4.18382 -2.65805e-18 1.0107 1.73646e-19 7.03187e-37)
(49.3593 -3.99614 -2.64906e-18 1.03198 1.70446e-19 7.06673e-37)
(47.706 -3.79572 -2.63036e-18 1.05317 1.66297e-19 7.09338e-37)
(46.1851 -3.58618 0 1.07555 0 0)
(44.7702 -3.36669 0 1.09868 0 0)
(43.4728 -3.13834 0 1.11826 0 0)
(42.2749 -2.90122 0 1.13808 0 0)
(41.1713 -2.66211 0 1.15785 0 0)
(40.143 -2.42235 0 1.17691 0 0)
(39.19 -2.18023 0 1.19202 0 0)
(38.2619 -1.9369 0 1.20799 0 0)
(37.3623 -1.70016 2.02581e-18 1.22308 -1.31531e-19 7.07444e-37)
(36.4519 -1.47183 1.91162e-18 1.24036 -1.24246e-19 7.06699e-37)
(35.5593 -1.25282 0 1.2518 0 0)
(34.645 -1.04225 0 1.26485 0 0)
(33.724 -0.855453 0 1.27886 0 0)
(32.7399 -0.679052 1.35515e-18 1.29191 -1.04876e-19 6.90772e-37)
(31.7965 -0.52923 0 1.29927 0 0)
(30.7868 -0.387202 0 1.30908 0 0)
(29.8313 -0.284821 0 1.31924 0 0)
(28.9076 -0.201793 0 1.33232 0 0)
(28.082 -0.151628 -4.40792e-19 1.34068 7.566e-20 6.65992e-37)
(27.3872 -0.125321 0 1.34981 0 0)
(26.8516 -0.133788 0 1.36323 0 0)
(26.5592 -0.17576 -2.22561e-19 1.37082 -6.511e-20 6.42314e-37)
(26.5081 -0.244333 4.50029e-19 1.38387 6.10284e-20 6.29901e-37)
(26.7548 -0.354023 0 1.40081 0 0)
(27.3524 -0.510373 9.12557e-19 1.41805 6.01062e-20 6.05284e-37)
(28.3658 -0.706831 0 1.43719 0 0)
(29.8572 -0.958778 -1.35361e-18 1.45485 -6.46374e-20 5.7559e-37)
(31.8476 -1.24456 0 1.47757 0 0)
(34.411 -1.58021 0 1.50457 0 0)
(37.4462 -1.95806 0 1.53728 0 0)
(41.0637 -2.38652 0 1.57154 0 0)
(45.1161 -2.84107 0 1.60957 0 0)
(49.6095 -3.34231 4.89646e-18 1.65175 2.04684e-19 1.97162e-36)
(54.4773 -3.88737 5.15125e-18 1.69785 2.30615e-19 1.93681e-36)
(59.7434 -4.46852 0 1.74589 0 0)
(65.1999 -5.0694 0 1.80185 0 0)
(70.8212 -5.69685 0 1.85703 0 0)
(76.4431 -6.30859 -5.69168e-18 1.91795 -3.5218e-19 1.91687e-36)
(81.8515 -6.92339 0 1.98907 0 0)
(86.9979 -7.54409 0 2.06127 0 0)
(91.83 -8.15854 0 2.13775 0 0)
(96.271 -8.75158 -5.33114e-18 2.21604 -5.33334e-19 2.07128e-36)
(100.303 -9.3185 5.09705e-18 2.29949 5.81993e-19 2.13273e-36)
(103.715 -9.84092 0 2.39028 0 0)
(106.624 -10.3506 0 2.48308 0 0)
(108.995 -10.8046 4.07908e-18 2.57766 7.35054e-19 2.36495e-36)
(110.837 -11.2243 3.65015e-18 2.67104 7.83906e-19 2.45029e-36)
(111.993 -11.5689 0 2.77135 0 0)
(112.568 -11.8844 0 2.8713 0 0)
(112.451 -12.1273 -2.05303e-18 2.97531 -9.45448e-19 2.71826e-36)
(111.777 -12.352 1.42323e-18 3.07033 9.89079e-19 2.79698e-36)
(110.588 -12.5064 0 3.16715 0 0)
(108.683 -12.6065 0 3.26783 0 0)
(106.184 -12.6405 -5.2134e-19 3.35876 1.11699e-18 3.06765e-36)
(103.053 -12.6204 0 3.44927 0 0)
(99.574 -12.5629 0 3.5329 0 0)
(95.5865 -12.4141 -2.54885e-18 3.6054 1.206e-18 3.30017e-36)
(91.2874 -12.1937 0 3.67743 0 0)
(86.6652 -11.8624 -3.83289e-18 3.73899 1.25697e-18 3.44315e-36)
(81.7781 -11.446 0 3.79477 0 0)
(76.6712 -10.9115 0 3.83394 0 0)
(71.7284 -10.2786 0 3.85809 0 0)
(66.8425 -9.48086 5.87251e-18 3.87689 -1.27772e-18 3.68147e-36)
(62.1785 -8.56355 0 3.88053 0 0)
(57.9524 -7.49409 0 3.86843 0 0)
(54.4885 -6.30477 0 3.8406 0 0)
(51.623 -4.92661 0 3.79864 0 0)
(49.5276 -3.46735 0 3.74796 0 0)
(48.8023 -1.91311 0 3.67606 0 0)
(49.636 -0.289131 6.02151e-18 3.58641 -1.1043e-18 3.72765e-36)
(51.6893 1.42458 5.60557e-18 3.48813 -1.05012e-18 3.71026e-36)
(55.3897 3.11713 0 3.3766 0 0)
(60.6463 4.74423 0 3.2587 0 0)
(67.4543 6.32488 0 3.12926 0 0)
(75.3917 7.79881 -3.05195e-18 2.99955 7.95334e-19 3.3843e-36)
(84.523 9.10065 0 2.87132 0 0)
(94.0872 10.2892 2.94709e-18 2.73627 -1.35091e-18 1.23648e-35)
(103.982 11.2469 -1.3092e-18 2.60554 1.21807e-18 1.16636e-35)
(113.627 12.0377 3.19048e-19 2.47425 1.1055e-18 1.10214e-35)
(123.288 12.6888 -2.02222e-18 2.34945 -1.01463e-18 1.03364e-35)
(131.416 13.2302 3.67517e-18 2.23045 9.23232e-19 9.76192e-36)
(139.297 13.7077 -5.27979e-18 2.12318 -9.03928e-19 8.99747e-36)
(143.051 14.4008 0 2.06725 0 0)
(0.0183122 0.174273 0 6.1016 0 0)
(0.20274 0.387961 0 6.03973 0 0)
(0.629536 0.609906 1.31897e-19 5.86655 1.7548e-19 6.76528e-37)
(1.32712 0.854524 0 5.74534 0 0)
(2.26925 1.13392 -1.92231e-19 5.68534 -3.53877e-19 9.1984e-37)
(3.44545 1.43871 -1.8343e-19 5.65813 -4.42227e-19 9.73275e-37)
(4.83471 1.76325 -8.01552e-20 5.64276 -2.51967e-19 2.49183e-37)
(6.42279 2.10363 -6.81541e-20 5.62475 -2.70921e-19 2.61416e-37)
(8.20176 2.4527 0 5.59639 0 0)
(10.1697 2.80595 -4.10046e-20 5.55379 -2.69665e-19 2.59507e-37)
(12.3277 3.15455 0 5.50195 0 0)
(14.6741 3.49607 0 5.44238 0 0)
(17.2004 3.82537 9.22559e-20 5.37412 4.24394e-19 9.51401e-37)
(19.9075 4.14199 6.83279e-20 5.30222 1.87135e-19 2.34201e-37)
(22.7845 4.43638 -1.83208e-19 5.22694 -3.26593e-19 8.93905e-37)
(25.8255 4.70851 -2.49589e-19 5.14861 -2.81456e-19 8.6617e-37)
(29.019 4.9598 -1.70224e-19 5.06412 -1.18506e-19 2.12811e-37)
(32.3588 5.19165 0 4.97327 0 0)
(35.833 5.40246 0 4.87747 0 0)
(39.4331 5.59675 0 4.77465 0 0)
(43.1357 5.77377 -3.86229e-19 4.66956 -3.65887e-20 1.80456e-37)
(46.9316 5.9309 0 4.56487 0 0)
(50.798 6.05964 1.60846e-18 4.45815 -1.66221e-20 1.55235e-36)
(54.7225 6.16357 0 4.35499 0 0)
(58.6885 6.24426 0 4.24966 0 0)
(62.6787 6.3018 7.74975e-19 4.1454 -5.78177e-20 1.56569e-37)
(66.6656 6.33287 0 4.03943 0 0)
(70.6305 6.34682 -9.33368e-19 3.93886 8.19276e-20 1.46075e-37)
(74.5397 6.33733 -1.99459e-18 3.83896 1.81807e-19 5.5742e-37)
(78.3832 6.29928 1.07763e-18 3.73624 -9.88734e-20 1.36708e-37)
(82.157 6.22965 0 3.62844 0 0)
(85.8613 6.13211 0 3.52312 0 0)
(89.4824 6.00911 0 3.41967 0 0)
(93.0244 5.86183 -2.57805e-18 3.31139 2.2293e-19 4.71758e-37)
(96.479 5.6848 -2.65631e-18 3.20374 2.20411e-19 4.55597e-37)
(99.8597 5.4784 -1.37435e-18 3.1025 1.07607e-19 1.10867e-37)
(103.175 5.24116 0 3.01038 0 0)
(106.418 4.96814 2.83932e-18 2.9221 -2.02991e-19 4.13254e-37)
(109.598 4.65708 0 2.83679 0 0)
(112.706 4.31735 -2.87575e-18 2.75523 1.88406e-19 3.81946e-37)
(115.752 3.94992 0 2.67488 0 0)
(118.73 3.56257 0 2.60278 0 0)
(121.647 3.15918 2.82842e-18 2.53186 -1.54045e-19 3.31905e-37)
(124.489 2.73682 0 2.46656 0 0)
(127.238 2.2889 8.16255e-18 2.40862 -3.93216e-19 2.6868e-36)
(129.891 1.81112 -2.68964e-18 2.36332 1.19146e-19 2.83963e-37)
(132.453 1.30799 0 2.33616 0 0)
(134.938 0.779904 -2.54964e-18 2.32022 9.09435e-20 2.51972e-37)
(137.333 0.219074 -2.46882e-18 2.31386 7.66701e-20 2.36359e-37)
(139.634 -0.367491 0 2.31601 0 0)
(141.816 -0.964397 0 2.32855 0 0)
(143.864 -1.55921 0 2.3427 0 0)
(145.763 -2.14391 0 2.35618 0 0)
(147.477 -2.72275 0 2.38051 0 0)
(148.993 -3.30309 1.88324e-18 2.4136 1.45778e-20 1.72262e-37)
(150.29 -3.89225 3.45093e-18 2.45686 7.11667e-20 6.56566e-37)
(151.348 -4.48447 -1.64431e-18 2.50765 -5.58796e-20 1.60275e-37)
(152.177 -5.09434 0 2.56331 0 0)
(152.75 -5.70486 2.6873e-18 2.62609 1.9001e-19 6.02115e-37)
(153.04 -6.29414 -1.17032e-18 2.69403 -1.13105e-19 1.47023e-37)
(153.072 -6.878 0 2.77078 0 0)
(152.796 -7.45579 -9.78753e-19 2.86074 -1.48412e-19 1.49635e-37)
(152.225 -8.01188 0 2.95406 0 0)
(151.351 -8.55882 0 3.05536 0 0)
(150.171 -9.0877 -1.04895e-18 3.16146 -3.96546e-19 6.2594e-37)
(148.671 -9.58796 4.23262e-19 3.27227 2.15085e-19 1.63841e-37)
(146.892 -10.0807 -4.90301e-19 3.39252 -4.61975e-19 6.68786e-37)
(144.826 -10.5524 2.13028e-19 3.51694 4.88941e-19 6.92573e-37)
(142.502 -10.9998 1.0505e-20 3.64251 2.54401e-19 1.82787e-37)