/*--------------------------------*- C++ -*----------------------------------*\
| =========                 |                                                 |
| \\      /  F ield         | OpenFOAM: The Open Source CFD Toolbox           |
|  \\    /   O peration     | Version:  dev                                   |
|   \\  /    A nd           | Web:      http://www.openfoam.org               |
|    \\/     M anipulation  |                                                 |
\*---------------------------------------------------------------------------*/
FoamFile
{
    version     2.0;
    format      ascii;
    class       volScalarField;
    object      k;
    location    "9.13";
}
// * * * * * * * * * * * * * * * * * * * * * * * * * * * * * * * * * * * * * //

dimensions      [0 2 -2 0 0 0 0];

internalField   nonuniform List<scalar> 
12225
(
9.38704
13.6976
10.9477
14.2177
12.7615
19.2937
18.3919
26.8399
25.9529
36.2265
33.1325
47.9455
42.1466
58.9534
64.1006
64.3719
119.094
80.8886
1.67571
6.05739
5.21195
6.22711
5.22663
6.40583
5.85634
7.2481
7.00171
8.66095
8.38525
10.0557
10.7254
11.7612
13.3379
14.7941
17.5271
18.0938
0.150901
1.91691
2.19459
3.34183
3.20497
3.70517
3.5691
3.80125
3.68828
3.84268
3.83677
3.65415
3.93366
3.21726
3.60264
2.95672
2.95244
2.98081
0.0217323
0.523692
0.715657
1.18368
1.32363
1.54069
1.75052
1.7634
1.80009
1.72637
1.80029
1.58935
1.68169
1.35081
1.40952
1.11722
1.91101
1.366
0.00393705
0.0958561
0.208826
0.295119
0.493934
0.550472
0.695985
0.713216
0.755046
0.743291
0.763147
0.717323
0.73625
0.648105
0.750488
0.622361
0.995153
0.864804
0.00837035
0.0888565
0.114944
0.176128
0.248716
0.284395
0.361878
0.412928
0.449451
0.450629
0.462282
0.440831
0.464083
0.431275
0.459268
0.413107
0.601387
0.735061
0.00899863
0.0605638
0.0840788
0.107179
0.146038
0.168105
0.223128
0.251297
0.276985
0.25093
0.266569
0.239153
0.26797
0.237644
0.248162
0.206474
0.250988
0.679228
0.0118102
0.022577
0.0412235
0.0442478
0.0617446
0.0659816
0.0961752
0.100214
0.120654
0.10636
0.119046
0.104508
0.122926
0.111916
0.125728
0.11966
0.159785
0.350903
0.0169788
0.0218978
0.0278875
0.0283899
0.0342814
0.0360337
0.0466499
0.0495765
0.05795
0.0544237
0.0600141
0.0559819
0.064903
0.0623871
0.0744993
0.0764212
0.0953677
0.159401
0.0327881
0.0325998
0.0305078
0.0286337
0.0288334
0.0295639
0.0315318
0.0331735
0.0349573
0.0341586
0.0365372
0.0350569
0.0382004
0.038482
0.0436181
0.0461688
0.0521539
0.0659274
0.0600094
0.0603515
0.0477857
0.0391795
0.0331468
0.0305515
0.0296572
0.0283679
0.0283467
0.0268574
0.0277917
0.0268354
0.0276065
0.028238
0.0294808
0.0315326
0.0329133
0.0368559
0.109631
0.107518
0.0853543
0.0699983
0.0513872
0.0401426
0.0338896
0.0301823
0.0286046
0.0262636
0.0260886
0.0252801
0.0253578
0.0253841
0.0255549
0.0263456
0.026501
0.0269041
0.191868
0.184137
0.138165
0.106439
0.0779618
0.0612941
0.0475226
0.0382586
0.0328554
0.02919
0.0272832
0.0261012
0.025016
0.0245823
0.0241382
0.0240754
0.0239728
0.023992
0.341475
0.315577
0.229241
0.164081
0.115216
0.0852651
0.0642467
0.05188
0.0432429
0.0376595
0.0334058
0.0301006
0.0275138
0.0257936
0.0242416
0.0236527
0.0233426
0.0233017
0.563187
0.515919
0.375224
0.263584
0.186059
0.13567
0.101923
0.0786223
0.0620316
0.0497613
0.040809
0.0343063
0.0297622
0.0268084
0.0249248
0.0238221
0.0232903
0.023207
0.907583
0.831523
0.583679
0.389156
0.263944
0.183654
0.131281
0.0960615
0.0720099
0.0551079
0.0434578
0.0354859
0.0301898
0.0268799
0.0248806
0.0237722
0.0232805
0.0231922
1.13111
1.01556
0.684437
0.446124
0.296483
0.201569
0.140743
0.100951
0.0743905
0.0561065
0.0436617
0.0353273
0.0297423
0.0262758
0.0243086
0.0232547
0.0228262
0.0227649
1.17304
1.05039
0.697975
0.453064
0.299799
0.20245
0.1403
0.0999974
0.0733014
0.0551365
0.0427267
0.0342817
0.0286701
0.0252248
0.0232675
0.0222651
0.0218921
0.0218548
1.01586
0.937001
0.639085
0.418884
0.280377
0.190842
0.132517
0.0941962
0.0687573
0.0515815
0.0398467
0.0319414
0.0266924
0.0233788
0.0214221
0.0203531
0.0198676
0.0197845
0.681753
0.63322
0.44369
0.302472
0.211042
0.148927
0.106337
0.0768873
0.056695
0.0427634
0.0330018
0.0263418
0.0219419
0.0190959
0.0174201
0.0164228
0.0158766
0.0157283
0.415821
0.389426
0.276248
0.188939
0.133138
0.0965931
0.0713127
0.0533436
0.0404503
0.0313895
0.0254283
0.0215734
0.0190121
0.01721
0.0160095
0.0151973
0.0147077
0.0145425
0.227737
0.219994
0.163712
0.115629
0.083719
0.0611333
0.0457345
0.0358086
0.0296161
0.0256028
0.0225965
0.0203715
0.0186837
0.0173724
0.0164411
0.0157812
0.0153994
0.0152695
0.11977
0.120456
0.0958173
0.0677598
0.049892
0.0400727
0.0340931
0.02986
0.0269051
0.0250323
0.0235492
0.0225348
0.0217494
0.0212313
0.0209213
0.0207608
0.0207723
0.0209089
0.0593
0.0613895
0.0482952
0.0389128
0.0361425
0.0344004
0.0328069
0.031549
0.0314505
0.0324296
0.0344816
0.03684
0.0384434
0.0400071
0.0410464
0.0420212
0.0432826
0.0452138
0.0254942
0.0277541
0.0278256
0.0299192
0.0380395
0.0457817
0.0492933
0.05529
0.0630136
0.0750891
0.0853162
0.0953056
0.102011
0.108179
0.111633
0.115695
0.119145
0.124748
0.00841593
0.0156969
0.0278036
0.05483
0.102246
0.137523
0.155488
0.179659
0.205675
0.236976
0.266272
0.29107
0.308395
0.321878
0.328978
0.337529
0.343364
0.356311
0.00394507
0.0353374
0.115534
0.282762
0.447058
0.546203
0.593851
0.647202
0.69736
0.756605
0.816046
0.861349
0.896296
0.918061
0.930574
0.939017
0.954627
0.976233
0.0318778
0.310376
0.880883
1.4205
1.77958
1.93624
1.98162
2.03976
2.09929
2.17134
2.24023
2.27563
2.2876
2.28299
2.26007
2.22722
2.20734
2.17639
0.629669
2.9694
4.39539
4.81773
4.83661
4.79014
4.69866
4.65201
4.61444
4.59639
4.57894
4.54654
4.50183
4.42213
4.33911
4.24237
4.166
4.03393
7.15546
11.4406
11.3362
9.93796
9.37454
9.61638
10.2089
11.1306
12.0222
12.8
13.4201
13.9006
14.2388
14.4652
14.5889
14.551
14.4252
14.0998
0.0734812
0.0713357
0.0841712
0.0989107
0.118195
0.145587
0.182704
0.230083
0.288038
0.356433
0.433275
0.524425
0.639143
0.784577
0.965578
1.18637
1.45534
1.78139
2.14911
2.57754
3.08617
3.58383
3.9784
4.34341
4.77577
5.2555
5.73694
6.21888
6.69373
7.16369
7.60819
8.01889
8.40422
8.74401
9.04973
9.33137
9.58109
9.77224
9.88614
9.96564
10.016
10.05
10.0974
10.1561
10.1684
10.1419
10.0455
9.89189
9.72906
9.61244
9.56133
9.55848
9.56115
9.5529
9.58324
9.70581
9.83003
9.95295
10.0485
10.1482
10.2954
10.46
10.5137
10.5016
10.4457
10.4244
10.4058
10.3147
10.1304
9.98322
9.97931
9.96797
9.76608
9.34236
8.85786
8.50075
8.16689
7.97931
8.03379
8.11385
8.01473
7.55844
6.67818
5.92812
5.42594
5.12679
4.99387
4.9542
4.81782
4.68097
4.84371
5.34286
6.01078
6.65315
7.44238
7.93368
7.94867
7.22721
5.97132
5.01023
4.67477
4.60086
4.61783
4.41455
3.64496
2.45683
1.88124
1.90218
2.33058
2.14194
1.451
1.26745
1.28644
1.44918
1.66286
1.99166
2.36271
2.76602
3.20381
3.66806
4.01698
4.28358
4.56755
4.77123
4.88585
5.01844
5.12207
5.22277
5.28214
5.33954
5.5083
5.76335
6.1248
6.60191
7.13497
7.64507
8.11473
8.49625
8.74734
9.0055
9.22484
9.28702
9.23444
9.05986
8.83217
8.74407
8.8196
9.142
9.71765
10.4201
10.9136
11.127
10.4115
9.4442
8.51843
7.05052
5.71669
4.5677
3.81919
3.78782
3.21085
3.00561
3.24086
3.83933
5.29128
6.79441
8.34054
9.47168
10.4419
11.0825
11.7528
12.9093
14.3472
15.4583
16.0518
15.9297
15.7935
15.5249
15.1461
15.1243
0.264118
0.104675
0.0911647
0.0969247
0.11059
0.130716
0.155376
0.179877
0.21439
0.260261
0.315597
0.394417
0.508818
0.665931
0.867246
1.08973
1.25538
1.33956
1.37023
1.39411
1.41938
1.43506
1.43878
1.44175
1.43308
1.42066
1.41007
1.39371
1.36851
1.31377
1.25299
1.18402
1.12287
1.09294
1.07105
1.03867
1.00559
0.943404
0.871798
0.845631
0.835831
0.831678
0.851142
0.876422
0.877477
0.861828
0.809503
0.761672
0.750477
0.758751
0.815479
0.904701
0.985535
1.05303
1.15226
1.32938
1.49605
1.67734
1.82557
1.94401
2.1369
2.45447
2.63757
2.68793
2.74487
2.94316
3.29537
3.48548
3.55567
3.67965
3.86853
3.90124
3.78457
3.31706
2.55931
2.02839
1.83926
1.83133
2.13658
2.75753
3.45957
3.68531
3.42141
2.58477
2.30691
2.30956
2.72259
3.53724
4.08404
4.24641
4.27341
4.24386
4.12133
4.1339
4.14081
3.72928
2.85832
2.31877
2.03796
1.95379
1.99234
2.02349
2.00259
1.7308
1.25801
1.10975
1.13192
1.36619
1.43946
0.943704
1.06359
1.06911
1.00362
1.01654
1.05003
1.14502
1.25208
1.39001
1.53922
1.75382
1.94019
2.10125
2.26943
2.47314
2.66584
2.83033
3.01667
3.24014
3.47039
3.67352
3.93698
4.2117
4.47378
4.71021
5.00816
5.32177
5.45144
5.42751
5.20678
5.10497
5.18578
5.37424
5.45067
5.40425
5.52271
6.03263
6.96173
7.70416
7.931
7.24674
6.44086
5.89895
4.98155
4.52395
3.95428
3.47265
3.07653
2.84038
2.71515
2.65823
2.55995
2.48234
2.68283
2.81198
3.1496
3.90508
4.56253
5.10402
5.57407
5.92266
6.08538
6.34422
6.81215
7.46256
7.75541
7.7181
7.42312
7.07122
6.61922
6.59327
0.688983
0.140368
0.0936244
0.0927722
0.105523
0.122728
0.139957
0.170336
0.212647
0.266035
0.345209
0.470164
0.613486
0.738657
0.791559
0.798755
0.713171
0.585576
0.55419
0.542913
0.534935
0.514505
0.481422
0.439791
0.394739
0.359743
0.339205
0.312653
0.290921
0.268755
0.244
0.226845
0.218017
0.213474
0.210384
0.206622
0.201247
0.192889
0.186502
0.185212
0.184942
0.186595
0.191203
0.192732
0.191933
0.189785
0.185255
0.181611
0.181204
0.182451
0.186493
0.189748
0.193899
0.200705
0.215144
0.240132
0.267313
0.29872
0.333852
0.3669
0.414894
0.500939
0.566912
0.588851
0.620992
0.72622
0.898909
1.04742
1.15341
1.39001
1.71033
1.80473
1.79839
1.64738
1.2182
0.824032
0.709807
0.684184
0.707755
0.833725
1.12837
1.60656
1.6805
1.5914
1.87078
2.35223
2.80042
3.12694
3.18014
3.03512
2.6843
2.28353
2.17559
2.13274
1.91106
1.35464
1.00967
0.908793
0.895366
0.999862
1.0938
1.10823
1.08875
0.917322
0.789285
0.790393
1.00715
1.11011
0.899522
0.67825
0.924349
0.932807
0.867672
0.855528
0.842579
0.857999
0.874631
0.897217
0.923422
0.984472
1.05041
1.10446
1.19392
1.29727
1.40472
1.51328
1.61011
1.74588
1.92018
2.0806
2.24332
2.41041
2.58207
2.70811
2.81661
2.98277
3.11993
3.10721
2.96601
2.73348
2.66121
2.71319
2.79299
3.01366
3.74696
5.13975
5.832
5.83925
4.98056
4.19663
3.54974
3.22207
2.84484
2.69708
2.51457
2.3969
2.47593
2.45214
2.48936
2.26199
2.09599
2.17566
2.22256
2.02303
2.07467
2.38332
2.71731
2.99232
3.20083
3.30145
3.26515
3.27506
3.46537
4.06546
4.57087
4.86348
4.81955
4.64446
4.1964
3.98053
1.484
0.229281
0.0969253
0.086553
0.0938668
0.10864
0.132443
0.182697
0.256394
0.308887
0.361491
0.496207
0.602337
0.623654
0.560159
0.404825
0.317334
0.290038
0.281834
0.277427
0.266065
0.242946
0.217385
0.201811
0.190535
0.184846
0.182337
0.18073
0.179633
0.178458
0.17746
0.177077
0.177113
0.176698
0.175974
0.175211
0.173573
0.170126
0.164421
0.159203
0.15466
0.150864
0.149818
0.149529
0.149675
0.15141
0.153311
0.15376
0.154636
0.15802
0.160091
0.158934
0.153703
0.151883
0.151867
0.152902
0.155374
0.161182
0.17013
0.178905
0.187158
0.20326
0.221834
0.230075
0.246447
0.291832
0.356942
0.410834
0.472345
0.59629
0.795899
0.986742
1.04075
1.02099
0.895614
0.693199
0.57961
0.55645
0.571082
0.632375
0.725865
0.895238
1.13487
1.6804
2.13424
2.36405
2.5178
2.40005
2.23362
1.82217
1.42378
1.28161
1.238
1.20085
1.01284
0.689718
0.567715
0.538399
0.534953
0.577422
0.631951
0.643543
0.640226
0.588663
0.558647
0.595188
0.704664
0.720228
0.583267
0.612508
0.837518
0.806158
0.816514
0.828289
0.800104
0.768068
0.757067
0.72901
0.724572
0.735711
0.77575
0.809555
0.850117
0.913313
0.99939
1.06989
1.13068
1.18298
1.27229
1.3799
1.53731
1.67955
1.80688
1.94074
1.9924
2.04193
2.13762
2.18698
2.16316
2.02355
1.91105
1.90176
2.00802
2.50316
3.53493
4.4594
4.79831
4.19723
3.27318
2.77173
2.47975
2.34491
2.21637
2.17791
2.17785
2.08859
2.25261
2.35593
2.32602
2.21205
1.88248
1.99364
2.06971
1.80967
1.60956
1.72837
1.99714
2.14679
2.23684
2.26014
2.16458
2.11857
2.20598
2.65359
3.09614
3.38736
3.58528
3.68584
3.56234
3.26651
2.63193
0.40534
0.117621
0.0923969
0.0999519
0.119609
0.156679
0.21662
0.275269
0.326911
0.388714
0.48156
0.515816
0.468089
0.321523
0.228371
0.206257
0.198979
0.194515
0.187113
0.1772
0.170189
0.167087
0.166061
0.166515
0.169703
0.174091
0.178148
0.182716
0.18463
0.185797
0.187643
0.190227
0.191692
0.191563
0.189754
0.184774
0.177659
0.171534
0.162357
0.153921
0.146009
0.142594
0.141621
0.141413
0.141966
0.14488
0.147835
0.149176
0.152536
0.160829
0.163336
0.160347
0.151547
0.146232
0.145396
0.145627
0.146837
0.146969
0.147201
0.149617
0.153768
0.154946
0.156089
0.161612
0.18126
0.214039
0.248072
0.276317
0.335483
0.435546
0.555424
0.621163
0.640341
0.629491
0.585958
0.550637
0.549806
0.590068
0.644406
0.67879
0.791861
1.19194
1.90502
2.11596
2.14846
1.91805
1.79313
1.57903
1.1226
0.886869
0.823953
0.800687
0.754409
0.631283
0.46929
0.416961
0.403862
0.401856
0.422785
0.444075
0.44775
0.442587
0.423661
0.416234
0.429298
0.445993
0.435272
0.391698
0.450037
0.666051
0.723197
0.792314
0.819677
0.791865
0.702655
0.665433
0.636323
0.625645
0.635287
0.660734
0.693506
0.714335
0.757809
0.825944
0.9064
0.94382
1.03774
1.0854
1.12924
1.2067
1.30769
1.40597
1.52139
1.65811
1.69634
1.71756
1.78795
1.81123
1.74744
1.6498
1.64216
1.81956
2.49514
3.50053
3.92613
3.85582
3.04042
2.44128
2.16155
2.03222
1.99584
2.00248
1.96739
1.93775
1.86494
1.85695
2.21404
2.14384
2.11475
1.72902
1.69861
1.84154
1.7496
1.4708
1.38525
1.52975
1.77502
1.79829
1.75358
1.63319
1.58614
1.64278
1.93432
2.39776
2.55516
2.71795
2.88981
3.03852
2.98607
4.03234
0.581027
0.138717
0.0991265
0.113611
0.141746
0.178388
0.222531
0.276831
0.341089
0.395452
0.413461
0.383992
0.298815
0.200812
0.171466
0.163583
0.161095
0.158253
0.154959
0.15367
0.154413
0.155924
0.156555
0.157811
0.159757
0.1618
0.165269
0.169513
0.173927
0.17933
0.184732
0.190432
0.196042
0.201943
0.207998
0.209876
0.208891
0.204402
0.192943
0.177581
0.163685
0.152154
0.146155
0.144674
0.144591
0.145791
0.148813
0.150103
0.151929
0.159436
0.171253
0.172996
0.167537
0.15399
0.146822
0.144522
0.141885
0.139902
0.139886
0.141905
0.142399
0.140736
0.139798
0.142402
0.151254
0.168907
0.191776
0.210185
0.244698
0.299482
0.352568
0.384229
0.420115
0.493872
0.537468
0.546034
0.583638
0.680608
0.710933
0.715899
0.882873
1.50214
1.88069
1.94715
1.61361
1.43081
1.3418
1.12228
0.758853
0.629978
0.588094
0.565671
0.523471
0.447805
0.377893
0.359202
0.356071
0.358098
0.361901
0.368539
0.372334
0.369806
0.358123
0.355863
0.367775
0.371512
0.354151
0.332372
0.352929
0.44472
0.527618
0.711655
0.776192
0.755548
0.674918
0.625125
0.618244
0.600413
0.603222
0.62319
0.645848
0.662834
0.684939
0.718739
0.789646
0.832908
0.882035
0.966841
1.06552
1.09787
1.1513
1.19815
1.2789
1.43778
1.53729
1.52864
1.56681
1.62419
1.60127
1.54572
1.55284
1.81958
2.54016
3.36146
3.49497
3.01844
2.32184
1.99413
1.86878
1.8061
1.79892
1.85772
1.81501
1.64095
1.62919
1.52373
1.75197
1.86256
1.83575
1.54911
1.39417
1.41967
1.47856
1.29147
1.15829
1.23599
1.49956
1.55592
1.5171
1.41606
1.39621
1.42234
1.54401
1.925
2.10392
2.20306
2.31098
2.43352
2.71483
5.60616
0.758235
0.150486
0.0982507
0.111968
0.141802
0.179548
0.222355
0.265924
0.320169
0.358493
0.35816
0.334519
0.269921
0.196683
0.172309
0.16316
0.155443
0.146645
0.143733
0.143097
0.143368
0.143178
0.140923
0.137716
0.136033
0.135906
0.136462
0.138614
0.14524
0.154558
0.164216
0.176058
0.188852
0.200724
0.210072
0.219521
0.228578
0.233753
0.234552
0.232559
0.224237
0.207767
0.18908
0.174588
0.169193
0.165167
0.164059
0.163171
0.161495
0.16187
0.167758
0.176596
0.179381
0.175622
0.163718
0.150063
0.14192
0.138656
0.137756
0.13844
0.139237
0.137118
0.136456
0.138724
0.14516
0.154485
0.169121
0.189398
0.217581
0.240194
0.257194
0.279906
0.335079
0.437088
0.504753
0.568239
0.677546
0.8053
0.861348
0.929695
1.20079
1.59017
1.72253
1.502
1.1849
1.08027
1.0074
0.815643
0.567905
0.488118
0.455307
0.429501
0.396762
0.356653
0.334723
0.330495
0.3306
0.324867
0.313377
0.310678
0.310396
0.312172
0.308224
0.308659
0.3386
0.347624
0.331949
0.310916
0.322722
0.355874
0.37744
0.431415
0.524204
0.608345
0.618324
0.607158
0.598299
0.593555
0.591125
0.606427
0.637441
0.655676
0.689725
0.692245
0.727716
0.798986
0.799906
0.848191
0.938057
1.00266
1.0771
1.12241
1.15868
1.26538
1.40859
1.45068
1.44979
1.48983
1.4916
1.47764
1.53614
1.83915
2.53453
3.00881
3.00522
2.35588
1.88522
1.70333
1.64243
1.6431
1.60397
1.55949
1.56607
1.53235
1.51649
1.39123
1.26462
1.44847
1.6049
1.42704
1.25072
1.158
1.10508
0.99326
0.971181
1.03204
1.24028
1.34585
1.34394
1.34662
1.39348
1.42297
1.42235
1.53567
1.83943
1.89722
1.9424
2.00163
2.25893
7.37784
1.07346
0.182747
0.098782
0.106962
0.138027
0.175492
0.206229
0.225938
0.252644
0.291697
0.309487
0.306478
0.274149
0.218243
0.180822
0.166912
0.154719
0.143419
0.140973
0.141446
0.143348
0.143403
0.140707
0.134664
0.12806
0.125612
0.125015
0.12567
0.129902
0.136896
0.144194
0.152111
0.161392
0.172902
0.186175
0.201284
0.21631
0.234318
0.248685
0.253308
0.253601
0.248268
0.23178
0.2083
0.192537
0.187329
0.18501
0.184083
0.182912
0.178868
0.173698
0.174266
0.178138
0.182587
0.181438
0.17462
0.158191
0.144172
0.140212
0.137896
0.134616
0.13408
0.135868
0.139734
0.145354
0.151121
0.163992
0.189361
0.208828
0.21834
0.230101
0.256899
0.31091
0.398389
0.483108
0.610163
0.768523
0.89038
0.980199
1.10925
1.32898
1.48115
1.40839
1.04023
0.883588
0.81875
0.763474
0.618126
0.449363
0.393633
0.366128
0.344172
0.327145
0.313485
0.307397
0.30449
0.30039
0.291099
0.275827
0.27013
0.270478
0.277907
0.278224
0.278325
0.290567
0.311558
0.299218
0.296447
0.309717
0.322679
0.322356
0.317866
0.357102
0.516176
0.598749
0.608212
0.602392
0.581644
0.583787
0.592255
0.619518
0.638816
0.68557
0.699373
0.703968
0.774744
0.810601
0.815191
0.84635
0.915641
0.983792
1.06712
1.10775
1.15745
1.28749
1.39708
1.38888
1.39325
1.40476
1.42097
1.53781
1.90706
2.47474
2.6695
2.5306
1.99566
1.72967
1.6375
1.51166
1.45759
1.39402
1.29834
1.36103
1.41888
1.40627
1.34138
1.09684
1.1134
1.34766
1.27266
1.09646
1.03882
0.926464
0.862392
0.860677
0.907691
1.06427
1.19214
1.23475
1.31239
1.39554
1.45279
1.39852
1.41546
1.56862
1.67898
1.71538
1.71698
1.84474
9.12052
1.3556
0.218216
0.100937
0.103238
0.127256
0.16204
0.179503
0.183697
0.186576
0.207222
0.253082
0.282985
0.278509
0.24842
0.209138
0.17708
0.158597
0.146942
0.144377
0.145426
0.148839
0.149397
0.148186
0.141215
0.12976
0.124656
0.122655
0.121667
0.121626
0.124436
0.129676
0.135253
0.140461
0.145437
0.150568
0.156737
0.165762
0.180288
0.201556
0.232549
0.25171
0.253994
0.248441
0.226675
0.200712
0.192282
0.190524
0.190709
0.191182
0.188488
0.182132
0.174117
0.172126
0.173611
0.178906
0.1795
0.176442
0.165705
0.150812
0.14139
0.137422
0.13584
0.136179
0.137835
0.143271
0.152591
0.170617
0.194939
0.208291
0.217776
0.22991
0.253031
0.297431
0.374246
0.490203
0.659327
0.833217
0.934121
1.02111
1.15208
1.25882
1.27034
1.01428
0.768274
0.677882
0.63558
0.592488
0.484941
0.37002
0.33098
0.31465
0.306839
0.292825
0.284781
0.27998
0.278228
0.277161
0.275254
0.274043
0.269206
0.267511
0.267089
0.263009
0.262706
0.264235
0.266999
0.266072
0.281089
0.301858
0.308139
0.301627
0.290808
0.315321
0.44945
0.587757
0.615777
0.614436
0.588166
0.564129
0.560418
0.569152
0.600986
0.650661
0.696585
0.690504
0.716552
0.797972
0.807524
0.840661
0.888449
0.90588
0.974637
1.06066
1.08699
1.1859
1.3195
1.33709
1.32195
1.33575
1.38246
1.52695
1.91928
2.32456
2.3927
2.16542
1.79911
1.65989
1.57798
1.4451
1.34782
1.25506
1.19368
1.25654
1.30242
1.385
1.30268
1.08767
0.967894
1.10954
1.1043
0.961413
0.922842
0.828609
0.799506
0.857534
0.855329
0.931251
1.08449
1.21619
1.30712
1.40531
1.50088
1.42017
1.32429
1.37211
1.52719
1.56121
1.52189
1.58092
10.8228
1.72938
0.277742
0.10622
0.102017
0.123204
0.141047
0.147261
0.153279
0.157743
0.159015
0.174633
0.213082
0.258265
0.257802
0.240006
0.214749
0.185044
0.162613
0.153947
0.15207
0.1538
0.159919
0.164031
0.163182
0.150777
0.130495
0.123743
0.121446
0.120669
0.120924
0.124604
0.130046
0.135106
0.138335
0.140382
0.143139
0.147563
0.152513
0.157677
0.170961
0.202794
0.239733
0.245906
0.239295
0.212916
0.194072
0.190509
0.191024
0.197052
0.197334
0.189895
0.175835
0.170012
0.169163
0.170627
0.173187
0.174024
0.168243
0.156237
0.142424
0.140037
0.138545
0.137607
0.140018
0.143984
0.156957
0.186634
0.208787
0.214688
0.225132
0.236186
0.250305
0.288167
0.366044
0.512543
0.710375
0.862111
0.943489
1.02311
1.09476
1.10164
0.962346
0.735152
0.584653
0.530286
0.504047
0.472861
0.40142
0.332222
0.309476
0.301479
0.290553
0.270642
0.263092
0.262625
0.269682
0.27388
0.275139
0.274157
0.265366
0.26041
0.256618
0.256667
0.261501
0.264074
0.26506
0.24217
0.241622
0.269675
0.275607
0.291806
0.271848
0.284195
0.36621
0.530956
0.591171
0.597556
0.582746
0.532194
0.49945
0.501158
0.528136
0.610586
0.681266
0.688752
0.682841
0.730682
0.766891
0.823729
0.888662
0.881146
0.916427
0.996653
1.02284
1.09957
1.2442
1.29253
1.26325
1.27899
1.34098
1.51528
1.90689
2.14328
2.16284
1.9226
1.62749
1.5328
1.42578
1.34232
1.30171
1.207
1.13161
1.17221
1.20405
1.33326
1.26284
1.03066
0.835277
0.957484
0.989259
0.838301
0.825155
0.738946
0.720069
0.838784
0.837347
0.863104
1.02037
1.20982
1.32665
1.49475
1.59958
1.46822
1.28485
1.28147
1.39311
1.44142
1.4058
1.42469
12.3865
2.16743
0.386123
0.121606
0.103912
0.120537
0.135112
0.137742
0.135412
0.137169
0.140532
0.145852
0.158079
0.182917
0.215408
0.22708
0.216728
0.196373
0.174214
0.155693
0.149883
0.149998
0.154141
0.16199
0.164086
0.161147
0.147568
0.128278
0.123024
0.122089
0.123331
0.126877
0.131464
0.135435
0.136807
0.13691
0.137142
0.139677
0.144458
0.149638
0.154913
0.168293
0.201596
0.232997
0.236225
0.22287
0.198433
0.191672
0.191525
0.196949
0.204427
0.204881
0.19244
0.172733
0.169306
0.170227
0.171505
0.170826
0.165891
0.154094
0.140769
0.137945
0.138145
0.136873
0.140111
0.147003
0.158044
0.18855
0.230617
0.248203
0.25329
0.251146
0.250745
0.283463
0.370507
0.547781
0.745999
0.861478
0.929907
0.965856
0.953681
0.871094
0.736438
0.556246
0.465201
0.432227
0.416922
0.398376
0.353651
0.320372
0.304836
0.288828
0.264884
0.251973
0.248149
0.256178
0.264666
0.268587
0.265537
0.254275
0.246438
0.253416
0.252079
0.251831
0.257558
0.258509
0.253391
0.230787
0.225889
0.233324
0.257422
0.269755
0.257003
0.263787
0.313214
0.435376
0.510294
0.515569
0.509012
0.482653
0.463266
0.4529
0.477286
0.575098
0.652433
0.681602
0.678566
0.688018
0.704034
0.751445
0.862497
0.867006
0.876918
0.928801
0.973122
1.02264
1.1514
1.24304
1.2119
1.23038
1.28861
1.4898
1.87068
1.9936
1.95881
1.75184
1.53393
1.40472
1.32095
1.26318
1.23962
1.19581
1.09458
1.0934
1.1448
1.19967
1.1101
0.850205
0.764176
0.844439
0.857508
0.70361
0.701034
0.660626
0.694922
0.797201
0.8034
0.830344
1.01029
1.1916
1.4557
1.64162
1.68055
1.49775
1.24666
1.21625
1.30118
1.39279
1.3728
1.34192
13.8569
2.67007
0.599691
0.161842
0.111099
0.121085
0.131833
0.134493
0.132459
0.131818
0.134987
0.138713
0.142079
0.149248
0.160916
0.173093
0.178356
0.175095
0.16552
0.15101
0.140451
0.138277
0.139867
0.147643
0.155415
0.156778
0.152926
0.142804
0.133915
0.133724
0.137822
0.142445
0.144479
0.143933
0.140931
0.136013
0.133421
0.133937
0.13692
0.142307
0.147717
0.155853
0.180434
0.219399
0.228568
0.223791
0.204618
0.199372
0.200134
0.209178
0.212999
0.21069
0.204002
0.188338
0.173719
0.172186
0.173339
0.172761
0.169903
0.153058
0.136771
0.130705
0.13068
0.132081
0.138077
0.149562
0.158531
0.184442
0.237744
0.279961
0.285988
0.266661
0.258272
0.282212
0.37518
0.569438
0.751501
0.835104
0.856008
0.835435
0.781148
0.70853
0.601476
0.461395
0.403193
0.379909
0.368414
0.349711
0.322741
0.308724
0.294614
0.262453
0.246118
0.240027
0.243016
0.250129
0.251672
0.239467
0.230269
0.22664
0.243277
0.256023
0.254089
0.244536
0.236451
0.246416
0.249248
0.22858
0.214633
0.216486
0.239858
0.245384
0.245683
0.25068
0.292445
0.406671
0.455695
0.461253
0.434728
0.423537
0.430216
0.441649
0.467356
0.540766
0.588402
0.662683
0.669041
0.670405
0.667841
0.680129
0.754179
0.835633
0.845212
0.886031
0.933852
0.964599
1.06609
1.19338
1.17652
1.18206
1.2324
1.41214
1.77251
1.86443
1.80324
1.59971
1.47505
1.34289
1.25591
1.19147
1.15236
1.18253
1.09627
1.06737
1.06331
1.04171
0.962255
0.750026
0.702464
0.702166
0.711772
0.633087
0.645527
0.620127
0.692467
0.782925
0.792477
0.832877
0.995861
1.32082
1.77083
1.78656
1.74628
1.49352
1.18482
1.17586
1.27715
1.37214
1.3543
1.29959
15.2716
3.11444
0.924423
0.261659
0.127034
0.124325
0.135472
0.138245
0.133398
0.129953
0.13143
0.135245
0.138637
0.143006
0.148411
0.154097
0.154889
0.152525
0.148464
0.141623
0.135393
0.133784
0.134673
0.13996
0.148468
0.152551
0.155381
0.161198
0.165517
0.167592
0.168112
0.16503
0.158002
0.149219
0.142212
0.138415
0.136598
0.136657
0.138932
0.144085
0.151112
0.161579
0.182508
0.215415
0.224193
0.220363
0.210277
0.208031
0.212281
0.225434
0.235523
0.233894
0.218605
0.197381
0.184044
0.180999
0.179896
0.177034
0.172759
0.152757
0.131819
0.124525
0.123181
0.124194
0.129782
0.145907
0.158646
0.1762
0.228483
0.295246
0.308024
0.289223
0.271188
0.284397
0.375487
0.573401
0.719267
0.758149
0.761746
0.712458
0.631947
0.58311
0.507472
0.398907
0.359682
0.346741
0.340429
0.324309
0.305137
0.293569
0.271055
0.245478
0.236399
0.235583
0.239273
0.234194
0.225206
0.220354
0.217263
0.221897
0.245494
0.262804
0.261966
0.250469
0.22491
0.220611
0.23287
0.220991
0.207635
0.211216
0.234072
0.234286
0.234644
0.24548
0.293556
0.390352
0.422016
0.420108
0.394834
0.389346
0.410387
0.454859
0.474027
0.5207
0.563193
0.601268
0.638097
0.649066
0.646039
0.638997
0.672858
0.7504
0.791038
0.836253
0.880868
0.90509
0.967614
1.10111
1.14013
1.14025
1.17703
1.31566
1.65215
1.74043
1.69777
1.48857
1.40005
1.30629
1.20057
1.14178
1.06117
1.10981
1.07518
0.998415
0.990809
0.931694
0.809615
0.644767
0.596028
0.593839
0.59161
0.548915
0.567922
0.593712
0.677023
0.746222
0.763764
0.831304
1.08176
1.72869
2.07856
1.82533
1.73642
1.44882
1.15806
1.17399
1.26232
1.32955
1.32208
1.28111
16.6758
3.47816
1.17881
0.444201
0.171739
0.129299
0.136214
0.146493
0.146523
0.142369
0.14104
0.144413
0.143766
0.14371
0.147338
0.151795
0.152763
0.15155
0.148569
0.142892
0.138107
0.136922
0.138797
0.14544
0.154112
0.159747
0.167176
0.175743
0.17871
0.177864
0.174425
0.167872
0.158338
0.149179
0.14319
0.140023
0.13934
0.141552
0.147892
0.160203
0.170055
0.181604
0.200194
0.22222
0.229268
0.224645
0.21759
0.220327
0.232682
0.246831
0.247557
0.240466
0.228157
0.20934
0.18899
0.183346
0.182582
0.180513
0.172725
0.155758
0.13197
0.12221
0.118803
0.118524
0.12113
0.129821
0.147241
0.165259
0.20604
0.290994
0.320691
0.312468
0.284581
0.293705
0.371114
0.560256
0.668105
0.691381
0.681897
0.603214
0.514298
0.476979
0.427292
0.346886
0.320011
0.312966
0.311409
0.303207
0.287343
0.275454
0.249372
0.236012
0.231777
0.230985
0.223762
0.214247
0.214047
0.218995
0.218376
0.21928
0.236234
0.255259
0.254399
0.241341
0.210278
0.199262
0.203863
0.198703
0.195638
0.207132
0.227607
0.230075
0.231665
0.243506
0.299065
0.387573
0.406097
0.388014
0.371998
0.373831
0.412355
0.472354
0.482181
0.502819
0.526523
0.546275
0.585926
0.627032
0.627719
0.61679
0.625651
0.667807
0.728703
0.781057
0.835002
0.86566
0.904638
1.01098
1.08585
1.09746
1.1229
1.21706
1.5358
1.63658
1.5972
1.43315
1.32255
1.25042
1.16624
1.12475
1.00248
1.02226
0.995194
0.926608
0.901663
0.819296
0.667514
0.571787
0.52765
0.519708
0.505429
0.514084
0.521773
0.577732
0.645231
0.735721
0.766444
0.939579
1.42604
2.06805
2.24208
1.67791
1.48273
1.30928
1.14449
1.18096
1.22044
1.30263
1.30591
1.28354
18.1148
3.81348
1.24489
0.586823
0.255172
0.151974
0.142978
0.147825
0.151335
0.152386
0.15464
0.160015
0.16438
0.167123
0.166304
0.163224
0.16002
0.158724
0.155722
0.151445
0.149181
0.150466
0.15588
0.16086
0.164941
0.167799
0.1728
0.17745
0.178073
0.174076
0.163118
0.15429
0.148644
0.144914
0.143605
0.143417
0.145018
0.148807
0.157675
0.173488
0.189296
0.208811
0.221453
0.226883
0.229529
0.22889
0.230704
0.233073
0.243223
0.266064
0.26792
0.250014
0.227372
0.212225
0.194041
0.184818
0.182908
0.180647
0.168219
0.150766
0.129935
0.121372
0.119241
0.118906
0.118416
0.121283
0.124656
0.140583
0.172513
0.24875
0.32774
0.335591
0.303596
0.302258
0.356311
0.516021
0.631287
0.643003
0.626264
0.537387
0.433761
0.3967
0.360371
0.305292
0.285948
0.281167
0.281
0.274235
0.265335
0.253793
0.232058
0.225982
0.225935
0.220621
0.208846
0.204543
0.207571
0.211182
0.214233
0.211371
0.214943
0.22381
0.226653
0.222719
0.20182
0.192603
0.189793
0.187496
0.188646
0.207183
0.228823
0.22867
0.232939
0.249643
0.324471
0.390798
0.39842
0.373488
0.362586
0.365285
0.428082
0.479702
0.487243
0.486626
0.501086
0.518301
0.533796
0.56519
0.593547
0.595638
0.59681
0.61412
0.664282
0.713269
0.776995
0.807185
0.847718
0.919754
1.0081
1.04785
1.07352
1.12388
1.37734
1.51368
1.50089
1.38696
1.26746
1.18828
1.12384
1.0991
0.979725
0.9745
0.933412
0.880616
0.828537
0.729585
0.578892
0.512344
0.494254
0.476033
0.455785
0.488706
0.514956
0.578037
0.638608
0.745935
0.928481
1.22529
1.70155
2.18184
2.17529
1.49126
1.23353
1.12975
1.11318
1.16097
1.21837
1.309
1.31463
1.26134
19.6522
4.05376
1.22505
0.616811
0.340428
0.206104
0.174495
0.175074
0.171263
0.163965
0.162542
0.1664
0.174675
0.181233
0.187103
0.186524
0.180355
0.177846
0.177515
0.17564
0.168912
0.165644
0.165007
0.165551
0.167461
0.16831
0.167723
0.165559
0.160742
0.155471
0.151455
0.148843
0.14779
0.147009
0.147987
0.151602
0.157129
0.163529
0.178491
0.202343
0.223823
0.234768
0.235237
0.234814
0.237642
0.24249
0.238865
0.241231
0.267008
0.284304
0.267856
0.250589
0.231794
0.213384
0.199449
0.186668
0.178406
0.170924
0.149046
0.129818
0.122642
0.119782
0.119434
0.121609
0.118713
0.119116
0.117179
0.122615
0.142504
0.192125
0.307142
0.354572
0.347571
0.322396
0.347795
0.450944
0.595719
0.620781
0.601401
0.51656
0.402472
0.355515
0.322047
0.281268
0.267471
0.264624
0.260626
0.25062
0.244464
0.238078
0.225613
0.216057
0.214308
0.205816
0.197518
0.195807
0.194859
0.198217
0.214357
0.211171
0.212716
0.217527
0.221102
0.218826
0.200485
0.193556
0.19084
0.185502
0.186741
0.206031
0.228461
0.228031
0.234505
0.270813
0.3561
0.396023
0.390776
0.362623
0.356493
0.382227
0.444882
0.476657
0.486536
0.476599
0.484944
0.486619
0.483929