/*--------------------------------*- C++ -*----------------------------------*\
| =========                 |                                                 |
| \\      /  F ield         | OpenFOAM: The Open Source CFD Toolbox           |
|  \\    /   O peration     | Version:  dev                                   |
|   \\  /    A nd           | Web:      http://www.openfoam.org               |
|    \\/     M anipulation  |                                                 |
\*---------------------------------------------------------------------------*/
FoamFile
{
    version     2.0;
    format      ascii;
    class       volScalarField;
    object      muSgs;
    location    "9.13";
}
// * * * * * * * * * * * * * * * * * * * * * * * * * * * * * * * * * * * * * //

dimensions      [1 -1 -1 0 0 0 0];

internalField   nonuniform List<scalar> 
12225
(
0.000213725
0.00025346
0.000222132
0.000248282
0.000230963
0.000278679
0.000267296
0.000317041
0.000306317
0.000355459
0.00033411
0.000394792
0.000364084
0.000422266
0.000434352
0.000427576
0.000566265
0.00046437
9.50724e-05
0.000177334
0.000161356
0.00017319
0.00015581
0.000169467
0.000159064
0.000173961
0.000167852
0.000183532
0.000177361
0.000190839
0.000194099
0.000198665
0.000209328
0.000217664
0.000227531
0.00023479
2.99548e-05
0.000104732
0.000109977
0.000133328
0.000128254
0.000135544
0.000130623
0.000132531
0.000128217
0.00012862
0.000126342
0.000121024
0.000123727
0.000109522
0.00011463
0.000101221
0.000100671
9.79798e-05
1.19394e-05
5.7479e-05
6.59724e-05
8.33436e-05
8.65941e-05
9.18138e-05
9.61657e-05
9.48365e-05
9.41807e-05
9.05865e-05
9.1052e-05
8.38579e-05
8.51132e-05
7.46131e-05
7.53853e-05
6.53387e-05
8.61106e-05
6.93864e-05
5.3435e-06
2.58297e-05
3.74369e-05
4.37098e-05
5.55741e-05
5.76288e-05
6.37126e-05
6.3349e-05
6.40897e-05
6.24441e-05
6.22871e-05
5.91972e-05
5.91718e-05
5.43021e-05
5.77042e-05
5.17289e-05
6.40099e-05
5.85172e-05
8.18382e-06
2.61364e-05
2.91842e-05
3.54915e-05
4.14354e-05
4.35393e-05
4.82684e-05
5.06575e-05
5.19658e-05
5.10881e-05
5.09271e-05
4.87711e-05
4.93113e-05
4.65574e-05
4.74456e-05
4.40336e-05
5.22252e-05
5.69281e-05
8.91683e-06
2.26827e-05
2.62392e-05
2.90916e-05
3.33728e-05
3.51786e-05
3.98378e-05
4.15276e-05
4.2866e-05
4.00637e-05
4.06181e-05
3.77439e-05
3.93608e-05
3.62919e-05
3.6693e-05
3.24836e-05
3.58969e-05
5.74587e-05
9.03549e-06
1.22512e-05
1.62531e-05
1.6531e-05
1.91954e-05
1.94876e-05
2.31381e-05
2.31893e-05
2.50281e-05
2.30634e-05
2.40033e-05
2.20662e-05
2.35675e-05
2.20382e-05
2.30269e-05
2.20146e-05
2.51145e-05
3.64874e-05
1.17153e-05
1.30412e-05
1.44467e-05
1.4311e-05
1.54579e-05
1.55631e-05
1.74112e-05
1.76289e-05
1.87419e-05
1.78248e-05
1.84131e-05
1.7452e-05
1.84995e-05
1.77916e-05
1.91167e-05
1.90444e-05
2.08706e-05
2.6499e-05
1.7606e-05
1.72075e-05
1.63388e-05
1.5538e-05
1.5325e-05
1.52409e-05
1.54706e-05
1.55878e-05
1.57248e-05
1.52591e-05
1.5518e-05
1.49272e-05
1.53236e-05
1.51029e-05
1.58043e-05
1.59723e-05
1.66649e-05
1.84097e-05
2.57693e-05
2.53298e-05
2.21158e-05
1.96555e-05
1.77688e-05
1.67494e-05
1.62222e-05
1.55765e-05
1.53039e-05
1.46271e-05
1.46246e-05
1.41188e-05
1.40719e-05
1.39841e-05
1.40374e-05
1.42593e-05
1.43045e-05
1.48741e-05
3.77167e-05
3.65912e-05
3.19812e-05
2.84301e-05
2.39334e-05
2.07659e-05
1.87531e-05
1.73764e-05
1.66271e-05
1.56433e-05
1.53249e-05
1.48133e-05
1.45786e-05
1.43286e-05
1.41197e-05
1.4082e-05
1.38679e-05
1.37245e-05
5.40386e-05
5.18585e-05
4.40556e-05
3.79602e-05
3.19063e-05
2.77706e-05
2.40246e-05
2.11654e-05
1.92722e-05
1.78334e-05
1.69402e-05
1.62704e-05
1.56504e-05
1.52359e-05
1.48287e-05
1.45463e-05
1.42511e-05
1.40004e-05
7.82162e-05
7.35909e-05
6.14769e-05
5.10513e-05
4.20028e-05
3.54807e-05
3.02467e-05
2.66896e-05
2.39306e-05
2.1928e-05
2.02856e-05
1.89067e-05
1.77538e-05
1.68795e-05
1.60719e-05
1.55856e-05
1.5205e-05
1.49158e-05
0.000109071
0.00010212
8.53486e-05
7.0192e-05
5.78759e-05
4.85172e-05
4.1284e-05
3.56049e-05
3.10481e-05
2.73048e-05
2.42774e-05
2.18533e-05
1.99868e-05
1.86219e-05
1.76327e-05
1.6923e-05
1.64248e-05
1.60947e-05
0.000150601
0.000140911
0.000115656
9.26295e-05
7.48493e-05
6.1275e-05
5.08444e-05
4.26937e-05
3.62782e-05
3.11557e-05
2.71562e-05
2.40914e-05
2.18161e-05
2.02078e-05
1.90848e-05
1.8311e-05
1.77882e-05
1.74218e-05
0.000183173
0.000169533
0.000136306
0.000107908
8.62847e-05
6.9799e-05
5.72339e-05
4.757e-05
4.00745e-05
3.41589e-05
2.95733e-05
2.61081e-05
2.35099e-05
2.16858e-05
2.04697e-05
1.96452e-05
1.90956e-05
1.87118e-05
0.00018939
0.000174982
0.000139684
0.000110333
8.80071e-05
7.09387e-05
5.79329e-05
4.79843e-05
4.03105e-05
3.42981e-05
2.96279e-05
2.60358e-05
2.33633e-05
2.14999e-05
2.02583e-05
1.94416e-05
1.89112e-05
1.85343e-05
0.000167867
0.000157311
0.000127245
0.000100997
8.10212e-05
6.55617e-05
5.3581e-05
4.4315e-05
3.71403e-05
3.15506e-05
2.7206e-05
2.38893e-05
2.14221e-05
1.96654e-05
1.84629e-05
1.76521e-05
1.71045e-05
1.6739e-05
0.000130789
0.000122988
0.000100851
8.16319e-05
6.68732e-05
5.50894e-05
4.56509e-05
3.80716e-05
3.20598e-05
2.73057e-05
2.35268e-05
2.06122e-05
1.84488e-05
1.68792e-05
1.5807e-05
1.50519e-05
1.45091e-05
1.41596e-05
9.70281e-05
9.16177e-05
7.56085e-05
6.13071e-05
5.04694e-05
4.21555e-05
3.55237e-05
3.01293e-05
2.57249e-05
2.22209e-05
1.9609e-05
1.77086e-05
1.63002e-05
1.52036e-05
1.43778e-05
1.37323e-05
1.32435e-05
1.29091e-05
6.80926e-05
6.5292e-05
5.5215e-05
4.55131e-05
3.79738e-05
3.18234e-05
2.69884e-05
2.34164e-05
2.0879e-05
1.90328e-05
1.75295e-05
1.63176e-05
1.53198e-05
1.44807e-05
1.38105e-05
1.32611e-05
1.28419e-05
1.25318e-05
4.67955e-05
4.57903e-05
4.00364e-05
3.30236e-05
2.77923e-05
2.44228e-05
2.20893e-05
2.02673e-05
1.88622e-05
1.78343e-05
1.6958e-05
1.62607e-05
1.56578e-05
1.51648e-05
1.47527e-05
1.44053e-05
1.41204e-05
1.38848e-05
3.11685e-05
3.09444e-05
2.69096e-05
2.3693e-05
2.23944e-05
2.14253e-05
2.05173e-05
1.97282e-05
1.93092e-05
1.92212e-05
1.94261e-05
1.96801e-05
1.9704e-05
1.9698e-05
1.95562e-05
1.93893e-05
1.92863e-05
1.93153e-05
1.93249e-05
1.96759e-05
1.93194e-05
1.96516e-05
2.17321e-05
2.33833e-05
2.37944e-05
2.47088e-05
2.58604e-05
2.76685e-05
2.89061e-05
2.99405e-05
3.03552e-05
3.06352e-05
3.0495e-05
3.04244e-05
3.02535e-05
3.03348e-05
1.04957e-05
1.39875e-05
1.8257e-05
2.5155e-05
3.36961e-05
3.83255e-05
3.99603e-05
4.21115e-05
4.41662e-05
4.64666e-05
4.82709e-05
4.94601e-05
4.98905e-05
4.99467e-05
4.94811e-05
4.91107e-05
4.85365e-05
4.84435e-05
6.79079e-06
1.983e-05
3.51642e-05
5.39754e-05
6.65782e-05
7.21751e-05
7.37957e-05
7.55262e-05
7.68482e-05
7.84511e-05
7.98465e-05
8.03865e-05
8.03529e-05
7.96851e-05
7.86092e-05
7.73704e-05
7.64337e-05
7.57261e-05
1.82294e-05
5.55e-05
9.17037e-05
0.000114264
0.000125463
0.000128344
0.000127312
0.000126621
0.000125909
0.00012549
0.000124907
0.000123346
0.00012117
0.000118592
0.000115603
0.000112425
0.000109646
0.000106656
7.65232e-05
0.00016216
0.000193465
0.000198701
0.000195263
0.000190526
0.000184972
0.000180374
0.000176033
0.00017213
0.000168311
0.000164298
0.000160163
0.000155507
0.000150915
0.000146191
0.00014194
0.000136841
0.000243849
0.000301038
0.000293552
0.000269312
0.000256311
0.000254377
0.000256819
0.000262748
0.000267544
0.000270467
0.000271326
0.00027054
0.000268261
0.000264904
0.000260645
0.000255033
0.000248786
0.000241011
2.48564e-05
2.5331e-05
2.76754e-05
2.99412e-05
3.27259e-05
3.63756e-05
4.08113e-05
4.58483e-05
5.13114e-05
5.70626e-05
6.2867e-05
6.9108e-05
7.62225e-05
8.43702e-05
9.35094e-05
0.000103591
0.000114681
0.000126761
0.000139105
0.000152457
0.000167384
0.00018113
0.000191312
0.000200141
0.000210147
0.000220762
0.000230966
0.000240779
0.000250105
0.000259012
0.000267186
0.000274548
0.000281306
0.000287176
0.000292389
0.000297148
0.000301329
0.000304544
0.000306535
0.000307986
0.000309013
0.00030981
0.000310831
0.000312006
0.000312421
0.000312184
0.00031083
0.000308562
0.000306134
0.000304476
0.000303955
0.000304238
0.000304553
0.00030463
0.000305391
0.000307668
0.000309891
0.000311968
0.000313596
0.000315163
0.000317217
0.000319416
0.00032022
0.000320464
0.000320235
0.00032058
0.000321055
0.000320654
0.000318829
0.000317268
0.000317806
0.000318562
0.000316682
0.000311322
0.000304825
0.000300414
0.000296355
0.000294135
0.000293961
0.00029288
0.000290678
0.000284414
0.000269928
0.000256788
0.000248042
0.000242301
0.000239169
0.000235799
0.000230034
0.000227001
0.000233987
0.000249688
0.00026653
0.000281257
0.000299666
0.000309993
0.000308632
0.000294572
0.000270563
0.000250959
0.000245135
0.000245456
0.000247313
0.000241431
0.000217344
0.000177486
0.000157661
0.000163471
0.000180449
0.000160956
0.000143571
0.000135992
0.000137537
0.000146765
0.000157897
0.000173539
0.000189746
0.000206084
0.000222558
0.000238846
0.000250682
0.000259652
0.000268889
0.000275298
0.000279107
0.000283391
0.000286436
0.000288856
0.000289704
0.000290586
0.000294522
0.000301597
0.000311282
0.000323572
0.00033682
0.000348835
0.00035992
0.000368923
0.000375013
0.00038042
0.000384558
0.000385731
0.000384854
0.000381277
0.000376261
0.000373674
0.000373992
0.000379149
0.000390705
0.000407085
0.000420741
0.000428054
0.000418459
0.000401046
0.00038538
0.000352746
0.000319489
0.000285323
0.000262487
0.000261674
0.000242796
0.000237984
0.000245593
0.000267551
0.000316649
0.000358124
0.000396996
0.00042227
0.000443666
0.00045732
0.000472739
0.000496981
0.000526392
0.000547891
0.000561193
0.000562588
0.000565646
0.000563585
0.000560695
0.000559723
4.72442e-05
3.08587e-05
2.86874e-05
2.94773e-05
3.1655e-05
3.45548e-05
3.77036e-05
4.05308e-05
4.41921e-05
4.87436e-05
5.38067e-05
6.03087e-05
6.85326e-05
7.8364e-05
8.92948e-05
9.99904e-05
0.000107322
0.000110931
0.000112324
0.000113571
0.000115018
0.000115837
0.000116118
0.000116264
0.000116139
0.000115792
0.000115476
0.000114879
0.000113867
0.000111668
0.000109034
0.00010603
0.00010332
0.000102051
0.000101143
9.97419e-05
9.81991e-05
9.51631e-05
9.15221e-05
9.0197e-05
8.97904e-05
8.97055e-05
9.08907e-05
9.23146e-05
9.23798e-05
9.15033e-05
8.86207e-05
8.59102e-05
8.52386e-05
8.57622e-05
8.90954e-05
9.40539e-05
9.83218e-05
0.0001017
0.000106614
0.000114949
0.000122332
0.000129658
0.000135281
0.000139661
0.000146692
0.000157423
0.000162986
0.000164265
0.000166347
0.000173011
0.000182875
0.000187027
0.00018949
0.000195272
0.000201654
0.000201924
0.000198319
0.000186196
0.000164477
0.000147278
0.000141452
0.000143395
0.000157618
0.000180464
0.000200188
0.000203704
0.000195271
0.000170498
0.000164513
0.000167575
0.000184355
0.000209288
0.000222251
0.000227215
0.000228149
0.000228865
0.000228582
0.000229914
0.000227418
0.000212942
0.000187168
0.00017152
0.000164014
0.000163407
0.000167148
0.000169068
0.000166528
0.000151241
0.000125593
0.00011762
0.000122899
0.000140696
0.000140834
0.00010362
0.000119462
0.000122711
0.000119437
0.000121513
0.000124227
0.000130899
0.000137793
0.000146357
0.000155234
0.000167183
0.00017741
0.000186049
0.000195202
0.000205684
0.000214652
0.000222637
0.00023184
0.000242145
0.000252507
0.000262494
0.000271399
0.000277987
0.00028472
0.000290104
0.000297295
0.000306028
0.000310294
0.000310093
0.000305214
0.000303349
0.000305239
0.000309869
0.000312542
0.00031133
0.000313849
0.000325816
0.000346762
0.000365137
0.000373703
0.000361446
0.000342929
0.000329942
0.000306555
0.000293187
0.000277109
0.000258576
0.000244341
0.000232042
0.000226587
0.000222092
0.000216333
0.000221319
0.00022695
0.000225451
0.000248498
0.000283453
0.000310103
0.000330174
0.000346659
0.000357171
0.000364113
0.000372881
0.000388713
0.000407875
0.000416549
0.000417637
0.000417274
0.000411377
0.000405178
0.000397045
7.56822e-05
3.51834e-05
2.86077e-05
2.86396e-05
3.07157e-05
3.3172e-05
3.55835e-05
3.95615e-05
4.44013e-05
4.9729e-05
5.6517e-05
6.58711e-05
7.50383e-05
8.19972e-05
8.48259e-05
8.5156e-05
8.05479e-05
7.30329e-05
7.1321e-05
7.07348e-05
7.01584e-05
6.8713e-05
6.64927e-05
6.3756e-05
6.04403e-05
5.77334e-05
5.60035e-05
5.38547e-05
5.19604e-05
4.98898e-05
4.76388e-05
4.59673e-05
4.5155e-05
4.48192e-05
4.45755e-05
4.42639e-05
4.37691e-05
4.28585e-05
4.22113e-05
4.21025e-05
4.20804e-05
4.23217e-05
4.28411e-05
4.30214e-05
4.29092e-05
4.26414e-05
4.21026e-05
4.16636e-05
4.15849e-05
4.17241e-05
4.22096e-05
4.25837e-05
4.31001e-05
4.39289e-05
4.56529e-05
4.8422e-05
5.12492e-05
5.43301e-05
5.76055e-05
6.03855e-05
6.42586e-05
7.08933e-05
7.55177e-05
7.68558e-05
7.92456e-05
8.59403e-05
9.52506e-05
0.000103156
0.000109001
0.000119055
0.000131805
0.000137823
0.000139725
0.000133111
0.000112813
9.2065e-05
8.56486e-05
8.507e-05
8.87961e-05
9.88812e-05
0.000116307
0.000138303
0.000139
0.000135369
0.000150488
0.000170707
0.000186028
0.000196436
0.000198311
0.000192226
0.000179811
0.000168201
0.000166218
0.000164106
0.000153302
0.000128157
0.000110585
0.000104891
0.00010466
0.000112143
0.000119192
0.000121067
0.000120051
0.00010914
0.000100087
0.000100596
0.000115088
0.000121729
0.000107584
9.50491e-05
0.000107814
0.000110192
0.00010679
0.000107148
0.000106823
0.00010898
0.000110932
0.000113167
0.000115422
0.000120562
0.000125878
0.000130128
0.000136607
0.000143819
0.000150473
0.000156893
0.00016254
0.000170861
0.000180187
0.000189397
0.000201775
0.000213595
0.000224882
0.000233115
0.000236413
0.000240646
0.00024542
0.000244412
0.000238115
0.000228747
0.000224939
0.000226509
0.00022982
0.000239048
0.000262515
0.000305033
0.000326448
0.000328909
0.000306539
0.000282519
0.000259349
0.000245693
0.000229789
0.000222723
0.000216476
0.000210226
0.000214728
0.000214202
0.000213238
0.000201729
0.000189238
0.000197155
0.000200583
0.000179847
0.000187358
0.000211813
0.000230248
0.000247198
0.000261983
0.000267985
0.000265519
0.000266668
0.000277786
0.000305944
0.000328698
0.000341393
0.000346105
0.000345389
0.00034227
0.000333068
0.000110141
4.46077e-05
2.89942e-05
2.74881e-05
2.87207e-05
3.11054e-05
3.46761e-05
4.1147e-05
4.89184e-05
5.33605e-05
5.75179e-05
6.74912e-05
7.41373e-05
7.49936e-05
7.10519e-05
6.06045e-05
5.39341e-05
5.17472e-05
5.07826e-05
5.02072e-05
4.90884e-05
4.71e-05
4.47252e-05
4.31648e-05
4.19525e-05
4.14547e-05
4.1314e-05
4.11803e-05
4.11386e-05
4.11093e-05
4.10737e-05
4.12293e-05
4.13407e-05
4.13388e-05
4.14002e-05
4.13267e-05
4.1225e-05
4.08517e-05
4.01728e-05
3.95941e-05
3.90337e-05
3.85486e-05
3.84708e-05
3.84303e-05
3.84746e-05
3.86646e-05
3.88531e-05
3.88206e-05
3.88033e-05
3.91062e-05
3.92631e-05
3.89774e-05
3.82332e-05
3.80288e-05
3.81458e-05
3.83435e-05
3.87893e-05
3.97665e-05
4.10211e-05
4.19903e-05
4.29391e-05
4.50149e-05
4.71705e-05
4.78103e-05
4.9495e-05
5.42824e-05
6.0133e-05
6.44053e-05
6.94263e-05
7.85432e-05
9.06694e-05
0.000100963
0.000104597
0.000104687
9.8332e-05
8.5776e-05
7.7969e-05
7.67502e-05
7.88028e-05
8.57535e-05
9.52382e-05
0.000104657
0.000114721
0.000141786
0.000163687
0.000172009
0.000176902
0.000173831
0.000167849
0.000149967
0.000132821
0.000127908
0.000126081
0.000122698
0.000111207
9.13509e-05
8.22071e-05
7.95548e-05
7.9747e-05
8.37732e-05
8.80009e-05
8.83286e-05
8.80295e-05
8.50649e-05
8.39916e-05
8.75404e-05
9.50561e-05
9.54513e-05
8.58155e-05
9.03493e-05
0.000103284
0.000102248
0.000103225
0.000104545
0.000103407
0.000102166
0.000102803
0.000101911
0.000101298
0.000103197
0.000107502
0.0001102
0.000113327
0.000119918
0.000127405
0.000132423
0.000136126
0.000139819
0.000145603
0.000151762
0.000160803
0.000170325
0.000180828
0.000193721
0.000200469
0.000203557
0.000208741
0.000212367
0.00020904
0.000199983
0.000192598
0.000192128
0.000197029
0.000219642
0.000258322
0.000287246
0.000299842
0.000283838
0.000252192
0.000231198
0.000218042
0.000210643
0.000204921
0.000202416
0.000204116
0.000201815
0.000205824
0.00021153
0.000210758
0.00020402
0.000188432
0.000189237
0.000198996
0.000180672
0.000164154
0.00017586
0.000191483
0.000203561
0.000210797
0.000217366
0.000210725
0.000203049
0.000207476
0.000235426
0.000265122
0.000284583
0.000298365
0.000308826
0.000315501
0.000313154
0.000145731
5.89149e-05
3.18859e-05
2.83546e-05
2.97059e-05
3.29192e-05
3.81668e-05
4.49138e-05
4.99221e-05
5.42109e-05
5.93868e-05
6.59962e-05
6.81219e-05
6.49789e-05
5.37925e-05
4.55606e-05
4.32702e-05
4.23798e-05
4.17525e-05
4.10094e-05
4.01015e-05
3.94685e-05
3.93201e-05
3.93026e-05
3.95864e-05
4.02391e-05
4.09623e-05
4.15676e-05
4.22185e-05
4.2615e-05
4.29066e-05
4.32818e-05
4.3676e-05
4.39647e-05
4.39974e-05
4.37885e-05
4.33079e-05
4.24648e-05
4.17453e-05
4.0649e-05
3.95681e-05
3.85786e-05
3.81413e-05
3.80095e-05
3.79653e-05
3.79832e-05
3.83154e-05
3.86128e-05
3.86195e-05
3.88708e-05
3.98122e-05
4.00274e-05
3.93373e-05
3.7872e-05
3.70789e-05
3.70494e-05
3.7274e-05
3.76742e-05
3.76753e-05
3.76546e-05
3.82535e-05
3.9066e-05
3.90627e-05
3.9053e-05
4.01103e-05
4.30728e-05
4.69009e-05
5.00511e-05
5.25693e-05
5.84272e-05
6.73566e-05
7.59714e-05
7.98893e-05
8.21166e-05
8.28051e-05
7.90487e-05
7.58179e-05
7.70166e-05
8.19155e-05
8.7746e-05
9.10875e-05
9.73255e-05
0.000119203
0.00015351
0.00016272
0.000163169
0.000155053
0.000151477
0.000141483
0.00011771
0.000104607
0.000101383
9.9961e-05
9.65123e-05
8.80295e-05
7.60425e-05
7.17156e-05
7.13873e-05
7.24139e-05
7.48916e-05
7.63268e-05
7.58217e-05
7.516e-05
7.39159e-05
7.38683e-05
7.50714e-05
7.62417e-05
7.52295e-05
7.11246e-05
7.58813e-05
9.24182e-05
9.74269e-05
0.000101581
0.000103891
0.000103436
9.81396e-05
9.67268e-05
9.65432e-05
9.46914e-05
9.52282e-05
9.78803e-05
0.000100119
0.000101588
0.00010586
0.00011165
0.00011874
0.000122151
0.000128909
0.000134148
0.000139307
0.000143168
0.000146305
0.000152622
0.000165206
0.000178585
0.000184011
0.000188475
0.000196012
0.000195355
0.000187483
0.000179921
0.000179477
0.000189013
0.000220213
0.000260788
0.000275744
0.000274062
0.000244818
0.000219069
0.000205629
0.000198549
0.000197335
0.000200232
0.000197858
0.000192936
0.000190963
0.000188028
0.000201386
0.000203005
0.000205987
0.000186588
0.000168792
0.000180157
0.000185545
0.000161636
0.000156858
0.000162077
0.000183625
0.000185955
0.000185565
0.000179395
0.000171671
0.000170444
0.000188674
0.000222214
0.000241785
0.000254245
0.000269965
0.000283467
0.000296173
0.000179428
6.99354e-05
3.43563e-05
2.92022e-05
3.16416e-05
3.56473e-05
4.00161e-05
4.51031e-05
5.04366e-05
5.58189e-05
5.9855e-05
6.09325e-05
5.88046e-05
5.19154e-05
4.25412e-05
3.93511e-05
3.85755e-05
3.82639e-05
3.79729e-05
3.77431e-05
3.79489e-05
3.83121e-05
3.86835e-05
3.88673e-05
3.92243e-05
3.96605e-05
4.00222e-05
4.05814e-05
4.11345e-05
4.17624e-05
4.25829e-05
4.32674e-05
4.40617e-05
4.48148e-05
4.54664e-05
4.62834e-05
4.6526e-05
4.64272e-05
4.60116e-05
4.46969e-05
4.28254e-05
4.10671e-05
3.94739e-05
3.85908e-05
3.82202e-05
3.81204e-05
3.82604e-05
3.87302e-05
3.89337e-05
3.90718e-05
3.989e-05
4.14313e-05
4.15918e-05
4.04581e-05
3.82958e-05
3.72623e-05
3.69988e-05
3.68195e-05
3.65901e-05
3.66973e-05
3.71773e-05
3.72454e-05
3.69317e-05
3.69973e-05
3.77817e-05
3.93964e-05
4.17626e-05
4.40287e-05
4.56988e-05
5.00848e-05
5.6429e-05
6.03254e-05
6.22485e-05
6.686e-05
7.33933e-05
7.47248e-05
7.54432e-05
8.09349e-05
8.99474e-05
9.28785e-05
9.31517e-05
0.000103478
0.000136154
0.000153601
0.000156272
0.00014197
0.00013462
0.000131032
0.000118664
9.6611e-05
8.78182e-05
8.46803e-05
8.29755e-05
7.98079e-05
7.41849e-05
6.85875e-05
6.73888e-05
6.80011e-05
6.86335e-05
6.86581e-05
6.8763e-05
6.92645e-05
6.96653e-05
6.90297e-05
6.8468e-05
6.95262e-05
7.10017e-05
7.01529e-05
6.74298e-05
6.838e-05
7.58593e-05
8.32802e-05
9.53082e-05
0.000100501
0.00010023
9.71082e-05
9.38678e-05
9.59495e-05
9.61288e-05
9.54959e-05
9.76247e-05
9.97548e-05
0.00010057
0.000103495
0.000105574
0.00011054
0.0001153
0.000116261
0.000120392
0.000131283
0.000138284
0.000138697
0.000138121
0.000146597
0.000160423
0.000168998
0.000174693
0.000183707
0.00018714
0.00018039
0.000174707
0.000175087
0.000190138
0.000223527
0.000257043
0.000262737
0.000243172
0.000213131
0.000197833
0.0001929
0.000190044
0.00018851
0.000190472
0.000190353
0.000180979
0.000178063
0.00016654
0.00016858
0.00017682
0.000192759
0.000183052
0.000156017
0.000146097
0.000159713
0.000149314
0.000144227
0.000142916
0.000163716
0.000172879
0.000173487
0.000168847
0.000165089
0.000159442
0.0001627
0.000187877
0.000213043
0.000223683
0.000236946
0.000247023
0.000271015
0.000210597
7.9403e-05
3.56772e-05
2.9102e-05
3.14279e-05
3.59122e-05
4.04621e-05
4.48778e-05
4.90623e-05
5.33285e-05
5.62786e-05
5.61624e-05
5.44914e-05
4.91581e-05
4.22584e-05
3.98646e-05
3.88886e-05
3.79121e-05
3.68495e-05
3.65977e-05
3.68478e-05
3.71974e-05
3.73055e-05
3.70348e-05
3.66155e-05
3.64482e-05
3.64226e-05
3.64551e-05
3.67221e-05
3.76608e-05
3.90502e-05
4.03405e-05
4.1873e-05
4.34931e-05
4.48494e-05
4.59334e-05
4.69722e-05
4.80005e-05
4.85468e-05
4.86532e-05
4.84475e-05
4.75135e-05
4.56714e-05
4.34646e-05
4.16512e-05
4.08567e-05
4.02959e-05
4.01522e-05
4.01675e-05
4.00505e-05
4.00169e-05
4.07262e-05
4.20155e-05
4.23777e-05
4.15744e-05
3.97913e-05
3.78184e-05
3.687e-05
3.64909e-05
3.63927e-05
3.66731e-05
3.68667e-05
3.65064e-05
3.66762e-05
3.74146e-05
3.84607e-05
3.96871e-05
4.16089e-05
4.43291e-05
4.78399e-05
4.97746e-05
5.08332e-05
5.40189e-05
6.026e-05
6.78517e-05
7.25336e-05
7.96154e-05
9.00754e-05
9.96788e-05
0.000103342
0.000107089
0.000121809
0.000140997
0.000147201
0.000136965
0.000121381
0.000116981
0.000113349
0.00010119
8.40464e-05
7.73873e-05
7.42952e-05
7.2401e-05
7.01865e-05
6.75255e-05
6.61404e-05
6.60701e-05
6.59993e-05
6.46226e-05
6.24169e-05
6.14774e-05
6.13357e-05
6.1699e-05
6.18601e-05
6.19147e-05
6.47146e-05
6.6522e-05
6.57312e-05
6.41012e-05
6.63541e-05
6.98719e-05
7.1561e-05
7.49466e-05
8.2505e-05
8.84167e-05
9.11414e-05
9.15745e-05
9.15527e-05
9.32108e-05
9.45883e-05
9.59351e-05
9.98807e-05
0.000102309
0.00010617
0.000107094
0.000106871
0.000115334
0.000117112
0.000114201
0.000118139
0.000128373
0.000134179
0.000133754
0.00013838
0.000148134
0.000157142
0.000165798
0.000175166
0.000179894
0.000175046
0.000171096
0.000174866
0.00019213
0.000225197
0.000243708
0.000243275
0.000214205
0.000191895
0.000183426
0.000179449
0.000179944
0.000175144
0.000165504
0.000169937
0.000176656
0.000174696
0.000159538
0.000141374
0.000146062
0.000172162
0.000170115
0.000149739
0.000134318
0.000132718
0.000127658
0.000129732
0.000129583
0.000144789
0.000156336
0.000163023
0.000168756
0.000173214
0.00016759
0.00015926
0.00016221
0.000192382
0.000203556
0.000213446
0.000218558
0.000236707
0.000240379
9.3864e-05
3.92658e-05
2.93934e-05
3.08487e-05
3.52941e-05
4.00318e-05
4.30969e-05
4.48269e-05
4.7513e-05
5.11657e-05
5.26144e-05
5.2191e-05
4.93687e-05
4.41353e-05
4.05023e-05
3.92627e-05
3.80153e-05
3.6635e-05
3.63357e-05
3.65704e-05
3.70945e-05
3.71946e-05
3.68604e-05
3.60607e-05
3.50588e-05
3.46031e-05
3.45011e-05
3.47287e-05
3.55212e-05
3.66532e-05
3.78809e-05
3.90879e-05
4.03089e-05
4.17613e-05
4.33901e-05
4.50841e-05
4.67564e-05
4.86727e-05
5.01714e-05
5.06595e-05
5.06803e-05
5.01053e-05
4.83512e-05
4.58065e-05
4.40063e-05
4.33803e-05
4.30586e-05
4.29165e-05
4.29221e-05
4.26524e-05
4.19278e-05
4.18374e-05
4.23459e-05
4.28898e-05
4.25034e-05
4.1338e-05
3.90949e-05
3.72104e-05
3.66609e-05
3.65648e-05
3.62576e-05
3.6228e-05
3.67293e-05
3.73549e-05
3.80455e-05
3.92017e-05
4.17293e-05
4.51986e-05
4.66802e-05
4.69557e-05
4.87216e-05
5.26287e-05
5.74815e-05
6.42243e-05
7.23265e-05
8.47588e-05
9.77056e-05
0.00010591
0.000111234
0.000118257
0.000129435
0.000137014
0.000133569
0.000114027
0.000105011
0.00010221
9.86453e-05
8.82188e-05
7.49815e-05
6.95969e-05
6.70893e-05
6.56542e-05
6.46742e-05
6.38572e-05
6.30636e-05
6.21595e-05
6.10639e-05
5.94459e-05
5.77165e-05
5.72742e-05
5.7273e-05
5.77403e-05
5.81445e-05
5.85021e-05
5.90961e-05
6.08881e-05
6.10104e-05
6.20119e-05
6.3024e-05
6.56417e-05
6.74297e-05
6.73747e-05
7.05778e-05
8.36616e-05
9.03932e-05
9.20345e-05
9.33656e-05
9.22348e-05
9.35478e-05
9.53368e-05
9.80181e-05
0.000100651
0.000104785
0.00011012
0.000108716
0.000111377
0.000119501
0.000118259
0.000114757
0.000121818
0.000127745
0.000129446
0.000133941
0.000140534
0.000147053
0.000157441
0.000168396
0.000173652
0.000170728
0.000168105
0.000175516
0.000196803
0.000224635
0.000231818
0.000224553
0.000200201
0.000188169
0.000184146
0.000174151
0.000166584
0.000159428
0.000147978
0.000151843
0.000162052
0.000163337
0.000157091
0.000137046
0.000127658
0.000154069
0.000156432
0.0001348
0.00012627
0.000121438
0.000121684
0.000123458
0.000119909
0.000132303
0.000144603
0.0001571
0.000168163
0.00017332
0.000170044
0.000160125
0.000154258
0.000172361
0.000188114
0.000198776
0.000198658
0.000205876
0.00026614
0.000104996
4.27809e-05
2.97073e-05
3.03642e-05
3.36888e-05
3.79807e-05
4.00501e-05
4.08134e-05
4.0963e-05
4.28773e-05
4.75178e-05
5.02737e-05
4.98563e-05
4.69928e-05
4.31974e-05
3.98963e-05
3.80322e-05
3.68161e-05
3.67033e-05
3.69789e-05
3.75078e-05
3.77636e-05
3.78196e-05
3.69999e-05
3.5336e-05
3.4531e-05
3.43432e-05
3.43984e-05
3.46988e-05
3.53785e-05
3.63421e-05
3.72545e-05
3.80727e-05
3.87616e-05
3.94322e-05
4.02027e-05
4.13193e-05
4.31091e-05
4.56375e-05
4.90826e-05
5.1165e-05
5.14427e-05
5.08066e-05
4.83576e-05
4.53419e-05
4.42457e-05
4.40162e-05
4.4023e-05
4.39867e-05
4.37756e-05
4.33334e-05
4.24277e-05
4.19714e-05
4.21427e-05
4.2721e-05
4.27965e-05
4.20231e-05
4.05503e-05
3.83137e-05
3.69944e-05
3.64712e-05
3.64839e-05
3.67669e-05
3.70242e-05
3.81002e-05
4.00567e-05
4.28161e-05
4.54424e-05
4.62408e-05
4.7305e-05
4.94451e-05
5.20141e-05
5.56058e-05
6.30756e-05
7.50535e-05
8.99606e-05
0.000102973
0.000109399
0.000113957
0.000120748
0.000126426
0.0001272
0.000113023
9.74433e-05
9.20055e-05
9.02562e-05
8.66633e-05
7.79562e-05
6.79619e-05
6.40443e-05
6.27704e-05
6.24019e-05
6.10073e-05
6.00113e-05
5.90074e-05
5.86061e-05
5.85595e-05
5.8488e-05
5.86978e-05
5.8182e-05
5.72285e-05
5.56736e-05
5.49385e-05
5.56395e-05
5.67332e-05
5.67112e-05
5.74178e-05
5.85995e-05
6.16698e-05
6.22615e-05
6.32082e-05
6.37927e-05
6.76671e-05
7.84745e-05
8.88462e-05
9.10526e-05
9.2076e-05
9.22883e-05
9.10507e-05
9.16659e-05
9.37347e-05
9.78841e-05
0.000100885
0.000106272
0.000109921
0.000107656
0.000115617
0.000119793
0.000117304
0.000120365
0.000123306
0.000123877
0.000130351
0.000136197
0.000140222
0.000149313
0.00016153
0.00016811
0.000166832
0.000166173
0.000175156
0.000198714
0.000219301
0.00022233
0.000210673
0.000193683
0.000186745
0.000180057
0.000169729
0.000159664
0.000152825
0.000147557
0.000150223
0.000153552
0.000156195
0.000151167
0.000140836
0.000121217
0.000134101
0.000144604
0.000128474
0.000120339
0.000115254
0.000118818
0.000126343
0.000116992
0.000121798
0.000134035
0.000154253
0.000166249
0.000169676
0.000168943
0.000160799
0.000150423
0.000158166
0.000176258
0.000188679
0.000185088
0.000185905
0.000288589
0.000118056
4.81063e-05
3.03595e-05
3.00266e-05
3.29114e-05
3.55652e-05
3.62335e-05
3.6766e-05
3.75882e-05
3.76939e-05
3.94482e-05
4.36547e-05
4.8182e-05
4.80514e-05
4.62181e-05
4.36672e-05
4.06846e-05
3.83411e-05
3.74467e-05
3.74139e-05
3.78335e-05
3.87877e-05
3.95134e-05
3.96769e-05
3.82625e-05
3.54735e-05
3.44639e-05
3.42138e-05
3.42292e-05
3.44114e-05
3.51169e-05
3.60138e-05
3.68675e-05
3.74439e-05
3.77733e-05
3.81623e-05
3.87426e-05
3.93726e-05
4.00665e-05
4.17967e-05
4.56584e-05
4.98827e-05
5.07597e-05
5.01201e-05
4.70919e-05
4.46956e-05
4.40045e-05
4.39906e-05
4.48128e-05
4.47606e-05
4.38522e-05
4.24386e-05
4.19454e-05
4.18793e-05
4.19533e-05
4.24442e-05
4.23906e-05
4.17019e-05
3.98245e-05
3.77325e-05
3.70531e-05
3.67986e-05
3.6906e-05
3.7179e-05
3.82131e-05
4.08626e-05
4.45077e-05
4.65606e-05
4.71759e-05
4.88339e-05
5.0408e-05
5.13777e-05
5.51562e-05
6.41257e-05
7.87582e-05
9.4835e-05
0.000105089
0.000109931
0.00011448
0.000118286
0.000118742
0.000110751
9.57624e-05
8.46279e-05
8.16757e-05
8.0659e-05
7.77255e-05
7.16294e-05
6.5614e-05
6.35326e-05
6.28093e-05
6.13768e-05
5.86867e-05
5.74669e-05
5.74016e-05
5.8642e-05
5.93367e-05
5.90579e-05
5.80427e-05
5.67799e-05
5.6461e-05
5.54512e-05
5.60552e-05
5.73515e-05
5.81642e-05
5.82715e-05
5.54089e-05
5.61622e-05
5.87734e-05
5.92302e-05
6.18581e-05
6.0895e-05
6.43334e-05
7.29371e-05
8.57318e-05
8.92724e-05
8.99539e-05
9.05386e-05
8.87819e-05
8.65648e-05
8.64209e-05
9.02792e-05
9.97416e-05
0.000103847
0.000109212
0.000108599
0.000109055
0.000114943
0.000117945
0.000121642
0.000123185
0.000120848
0.000125137
0.000131876
0.000134849
0.000142179
0.000154854
0.000162562
0.000163222
0.000163888
0.000174736
0.000199233
0.000212276
0.000213315
0.000200847
0.000185124
0.00017737
0.000167195
0.000161145
0.000155878
0.000152216
0.000145994
0.000145153
0.000148263
0.000155133
0.000145548
0.000132348
0.000113682
0.000123213
0.000135212
0.000116459
0.000111894
0.000109423
0.00011244
0.000122571
0.000115992
0.00011676
0.000128488
0.000151103
0.000161797
0.000168233
0.000169336
0.000163213
0.000151147
0.000153556
0.00016686
0.000180809
0.00017932
0.000175619
0.000307196
0.000131434
5.63327e-05
3.2241e-05
3.03662e-05
3.24865e-05
3.41445e-05
3.50836e-05
3.48638e-05
3.49614e-05
3.53732e-05
3.58464e-05
3.72999e-05
4.02959e-05
4.40765e-05
4.54108e-05
4.43375e-05
4.22047e-05
3.99139e-05
3.78737e-05
3.73299e-05
3.74465e-05
3.7968e-05
3.89204e-05
3.93366e-05
3.93757e-05
3.80047e-05
3.54354e-05
3.46414e-05
3.44929e-05
3.46998e-05
3.52869e-05
3.60868e-05
3.68586e-05
3.72675e-05
3.74264e-05
3.75482e-05
3.79213e-05
3.8576e-05
3.93118e-05
4.00022e-05
4.15743e-05
4.54834e-05
4.91175e-05
4.97388e-05
4.83855e-05
4.55494e-05
4.46527e-05
4.43696e-05
4.4831e-05
4.59059e-05
4.60989e-05
4.44384e-05
4.20904e-05
4.16611e-05
4.17873e-05
4.189e-05
4.19052e-05
4.13245e-05
3.99465e-05
3.81266e-05
3.75697e-05
3.70496e-05
3.68384e-05
3.7151e-05
3.82194e-05
4.07853e-05
4.46888e-05
4.90804e-05
5.13296e-05
5.22808e-05
5.19283e-05
5.14618e-05
5.56145e-05
6.61893e-05
8.27068e-05
9.77229e-05
0.000105409
0.000108998
0.000110895
0.000110663
0.000105869
9.6793e-05
8.30953e-05
7.58828e-05
7.45366e-05
7.41424e-05
7.2314e-05
6.85072e-05
6.55572e-05
6.33315e-05
6.09659e-05
5.77222e-05
5.58642e-05
5.56424e-05
5.70037e-05
5.79353e-05
5.76637e-05
5.61117e-05
5.32524e-05
5.23413e-05
5.37613e-05
5.33184e-05
5.37708e-05
5.51343e-05
5.53625e-05
5.57241e-05
5.44344e-05
5.51904e-05