/*--------------------------------*- C++ -*----------------------------------*\
| =========                 |                                                 |
| \\      /  F ield         | OpenFOAM: The Open Source CFD Toolbox           |
|  \\    /   O peration     | Version:  dev                                   |
|   \\  /    A nd           | Web:      http://www.openfoam.org               |
|    \\/     M anipulation  |                                                 |
\*---------------------------------------------------------------------------*/
FoamFile
{
    version     2.0;
    format      ascii;
    class       volScalarField;
    object      p;
    location    "9.13";
}
// * * * * * * * * * * * * * * * * * * * * * * * * * * * * * * * * * * * * * //

dimensions      [1 -1 -2 0 0 0 0];

internalField   nonuniform List<scalar> 
12225
(
88092.2
88151.8
88287.9
88489.4
88731.9
89014.8
89324.2
89663.4
90019.3
90401.3
90789.7
91210.1
91623.4
92083.5
92556.4
93018.9
93649.5
94193.1
88097.6
88161
88296.8
88497.9
88739.8
89022.5
89330.6
89670.6
90024.9
90407.8
90794.4
91215.5
91628.3
92085.1
92553.7
93042.5
93599.4
94274.9
88117.8
88182.1
88317.8
88517.6
88758.3
89040.5
89347.9
89686.8
90040.7
90422.1
90809
91225.7
91645
92086.8
92551.4
93042.8
93564.4
94250.1
88150.9
88218.1
88352.7
88551.7
88790.7
89071.9
89378.1
89715
90068.1
90446.9
90833.8
91244
91660.9
92094.6
92541.6
93031.3
93575.8
94110.6
88204.2
88270
88407.2
88603.3
88841.1
89119.9
89425.3
89758.5
90110.9
90484.7
90871.5
91273.2
91689.7
92116.5
92556.6
93035.4
93507.3
93994.1
88282.5
88348.6
88483.7
88677.2
88913.3
89189.1
89492.6
89821.7
90171.6
90540
90922.9
91318.5
91728.1
92150.1
92583.3
93025.6
93462.7
93896.1
88388.3
88456.5
88589
88779.3
89013.1
89285.1
89585.5
89910.4
90255
90616.9
90993.8
91381.1
91785.3
92193.6
92618.5
93022.7
93449.9
93858.8
88512
88578.7
88708.7
88895.8
89126.8
89394.9
89691.7
90012
90351.7
90706.1
91077.6
91454.9
91851.8
92246.7
92660.3
93049.3
93471.9
93857.3
88646.3
88710.2
88838
89021.8
89249.8
89513.8
89806.7
90121.8
90457.1
90803.7
91169.2
91538
91924.7
92308.1
92708.1
93089.8
93490.8
93858.7
88823.5
88883.9
89009.8
89189.2
89413.4
89671.7
89959.6
90268.2
90596.7
90935.3
91291
91650.8
92025.3
92395.1
92777.2
93145.9
93517.1
93874
89055.5
89113.6
89236.8
89411.9
89630.2
89881.9
90162.1
90462.7
90781.7
91110.4
91454.8
91802.3
92160.6
92517
92876.8
93228.8
93571.5
93907.4
89361
89416.9
89537.3
89706.5
89917.6
90160.3
90430.9
90720.6
91027.5
91343.6
91673
92005.7
92344.7
92683.3
93020.1
93351.2
93669.5
93981.3
89759.5
89817.6
89933.2
90095.2
90296.4
90527.8
90785.4
91061.5
91353
91652.8
91963.1
92277.5
92594.7
92911.6
93223.8
93531
93826.4
94113
90288.1
90343.5
90452
90604.3
90792.5
91009.3
91249.8
91507.9
91780.2
92060.3
92347.9
92639.9
92932.2
93223.5
93509.4
93790.3
94061.5
94322
90977.9
91027.7
91126.4
91265.6
91437.4
91635.3
91854.1
92089.1
92337.1
92593.6
92854.8
93119.2
93383.3
93645.5
93902.7
94154.2
94398
94631.6
91865.6
91906.9
91992.1
92113.5
92264
92437.9
92630.3
92837.1
93055.5
93282.2
93512.6
93744.9
93976.9
94206.3
94430.8
94649.6
94862
95065.8
92973.2
93009.1
93077.7
93176.6
93300.8
93445.3
93605.9
93779.2
93962.6
94153.5
94348
94543.7
94738.7
94931.1
95119.2
95302.1
95479.3
95649.4
94239.8
94254
94299.2
94371.6
94466.4
94579.3
94706.1
94843.8
94990.3
95143.4
95299.9
95457.3
95613.9
95768.2
95918.8
96065
96206.7
96342.3
95429.7
95422.8
95447
95495.6
95563.9
95648.1
95744.7
95850.6
95963.8
96083.1
96205.7
96328.8
96451.1
96571.7
96689.2
96803
96913
97018.1
96423.9
96405.9
96415
96445.1
96492.4
96553.8
96626.3
96707.2
96794.4
96885.7
96979.6
97074.2
97168.3
97260.9
97351
97438.2
97522.4
97602.7
97233.4
97210
97207.4
97222.6
97253.1
97296.3
97349.4
97410.3
97476.6
97546
97616.9
97688.6
97759.8
97829.8
97898.1
97964.2
98027.7
98087.9
97875.9
97847.8
97836.4
97840.6
97858.7
97888.2
97926.7
97972.2
98021.8
98073.5
98126.1
98179.4
98232.7
98285.1
98336.2
98385.6
98432.9
98477.6
98371.7
98341.8
98323.9
98320.1
98328.7
98347.8
98375.1
98408.4
98444.9
98482.6
98521
98560.4
98600
98639.1
98677.2
98713.8
98748.7
98781.4
98757.1
98714.7
98691.4
98682.2
98684.4
98696.1
98715.2
98738.8
98764.7
98791.5
98819.5
98848.6
98877.9
98906.9
98935.1
98962.3
98988
99011.9
99028.7
98986.5
98961.1
98948.5
98946.3
98952.4
98964.7
98980.9
98998.9
99017.9
99038.6
99060.3
99082.1
99103.8
99124.9
99145.1
99164.1
99181.6
99219.6
99178.7
99152.4
99137.3
99132
99134.1
99141.5
99152.3
99164.9
99178.9
99194.3
99210.7
99227.3
99243.9
99260
99275.3
99289.6
99302.5
99349.4
99308.6
99281.5
99264.8
99257.4
99256.9
99261.2
99268.5
99277.7
99288.3
99300.3
99313
99326.1
99339.2
99352
99364
99375.1
99385.1
99432.4
99391.3
99363.2
99345.6
99337
99334.9
99337.2
99342.4
99349.5
99358.2
99367.9
99378.3
99389.2
99400.1
99410.7
99420.5
99429.5
99437.6
99480.5
99438.6
99409.2
99391.1
99382
99379.1
99380.5
99384.7
99390.7
99398.1
99406.5
99415.7
99425.2
99434.8
99444.1
99452.7
99460.4
99466.9
99502.5
99460
99429.7
99411.1
99401.6
99398.4
99399.4
99403.2
99408.6
99415.5
99423.3
99431.9
99440.9
99449.9
99458.6
99466.7
99473.8
99479.4
108160
108152
108135
108108
108073
108028
107974
107910
107837
107754
107660
107557
107443
107319
107185
107040
106884
106718
106541
106352
106151
105938
105712
105474
105225
104963
104689
104403
104106
103797
103478
103148
102808
102458
102099
101731
101356
100973
100584
100189
99789.1
99385.2
98978.2
98569
98158.7
97748.4
97338.9
96931.1
96525.9
96123.5
95724.4
95329.6
94940.1
94556.1
94177.7
93805.3
93439.1
93080
92728.1
92383.5
92046.5
91717.1
91395.5
91081.8
90775.9
90477.4
90185.9
89901.6
89624.7
89354.2
89089.4
88830.4
88577.5
88331.3
88092
87860.2
87635.8
87418.5
87208.3
87006.8
86815.2
86633
86460.6
86299.1
86148.2
86007.9
85879.7
85764.1
85662.8
85576.3
85504.6
85446
85399.2
85364.8
85343.2
85334.1
85336.6
85350.9
85377.7
85418.6
85474
85542.4
85621.9
85711.4
85809.8
85915.6
86027.2
86151.7
86286.8
86430.6
86557.6
86715.5
86878.8
87047.9
87222.4
87400.7
87580.5
87759.6
87935
88102.9
88259.1
88399.5
88519.1
88613.1
88676
88702.7
88688.3
88628.1
88518.3
88356.6
88142.2
87875.9
87559.5
87193.1
86787.9
86349.5
85884.5
85402
84911.4
84424
83948
83488.4
83049.8
82636.1
82253.9
81907.2
81596.3
81323.7
81090.6
80897.5
80746.8
80642.5
80582.4
80566.5
80590.9
80651.2
80741.5
80856
80986
81121.2
81255.9
81397.6
81537.9
81679.3
81809.6
81935.5
82060.7
82192.6
82340.4
82514.7
82725.6
82982.8
83293.9
83661.2
84083.4
84553.8
85062
85592.3
86120.7
86621
108089
108081
108064
108038
108004
107960
107907
107844
107771
107689
107597
107495
107382
107260
107127
106984
106830
106665
106489
106301
106103
105892
105669
105434
105187
104927
104656
104374
104080
103774
103458
103132
102795
102449
102093
101729
101357
100978
100592
100200
99803.4
99402.8
98999
98592.9
98185.3
97777.6
97370.7
96965.6
96563
96163.2
95766.9
95374.7
94987.5
94605.6
94229.5
93859.2
93495
93137.3
92786.9
92443.9
92108
91779.6
91458.8
91145.9
90840.6
90542.7
90252.3
89969.4
89693.3
89423.5
89159.3
88900.3
88647
88400.3
88161.4
87930.9
87708.4
87492.7
87282.6
87079
86884.7
86701.6
86530.1
86369.5
86218.3
86077.9
85949.8
85833.8
85730.8
85642.5
85568.5
85508.3
85461.1
85426.5
85404.2
85394.5
85397.5
85412.3
85439.3
85479.8
85534.6
85602.6
85681.5
85769.6
85865.7
85967.9
86081.5
86207.1
86340.9
86475.3
86613.9
86770.4
86934.2
87102.7
87276.6
87454.1
87633.3
87811.9
87986.7
88154
88309.8
88449.7
88569
88662.5
88725.1
88752
88737.9
88678.4
88569.4
88408.2
88193.9
87927.8
87611.1
87245.9
86839.9
86400.2
85933.6
85449.4
84956.1
84466.8
83989
83527.7
83088.2
82673.7
82291
81944.1
81633.7
81359.2
81122.7
80927.1
80774.6
80670.9
80612.6
80598.4
80624.1
80685.4
80777.6
80892.9
81024
81158.3
81291.5
81434.6
81574.6
81714.4
81844.9
81970.3
82095
82225.8
82373
82546.8
82757.8
83015.3
83327.3
83695.2
84117.2
84587.4
85095.8
85626.4
86155.1
86653.4
107949
107941
107925
107900
107866
107824
107773
107712
107641
107561
107471
107371
107261
107141
107011
106871
106720
106559
106386
106202
106007
105801
105583
105353
105111
104857
104592
104316
104028
103729
103420
103101
102771
102431
102082
101725
101359
100987
100608
100223
99832.2
99437.8
99040.3
98640.3
98238.5
97836.2
97434.4
97034.2
96636.3
96241.4
95849.9
95462.6
95080.4
94703.2
94331.4
93965.5
93605.3
93251.1
92904
92564
92230.9
91905.1
91586.7
91275.5
90971.6
90674.8
90385.6
90103.8
89828.9
89560.7
89298.7
89041.6
88788.6
88540.8
88300.7
88070.6
87849.9
87636.3
87427.9
87224.3
87028.4
86844.5
86673.3
86513.9
86363.9
86222.9
86093
85975.4
85870.2
85779.1
85702.1
85638.9
85589.3
85553
85528.7
85517
85519.4
85535.2
85563.2
85604.4
85659.4
85726
85802.2
85887.1
85980.4
86082.6
86195.8
86319.6
86449.6
86580
86724.4
86880.1
87043.3
87210.7
87383.9
87560.4
87738.3
87916
88090.3
88256.7
88411.9
88551.5
88670
88762.7
88825.1
88851.8
88838
88779.3
88671.5
88512.3
88300.9
88037
87722
87356.5
86947.6
86505.3
86035.6
85546.2
85049.4
84557
84075.1
83611.1
83169.3
82753
82368.3
82019.1
81705.3
81426.2
81185.7
80988.9
80836.3
80733.9
80679.2
80667.2
80695.7
80758.2
80852.7
80969.1
81101.1
81233
81363.3
81509.7
81647
81784.5
81916.3
82041.4
82166.1
82295.6
82442.2
82615.2
82826.8
83085.3
83399.1
83768.2
84190.4
84660.3
85169.6
85701
86229.9
86727
107741
107733
107718
107695
107663
107623
107573
107514
107446
107368
107281
107184
107078
106963
106837
106701
106555
106398
106231
106053
105866
105666
105455
105233
104999
104755
104498
104231
103953
103664
103364
103054
102734
102404
102066
101718
101363
101001
100631
100256
99875.9
99491.2
99102.6
98711.3
98317.9
97923.7
97529.8
97137
96745.9
96357.6
95972.5
95591.6
95216
94845.7
94480.6
94121.1
93767.1
93418.5
93076.4
92741.1
92412.2
92090.3
91775.8
91467.6
91166
90871.5
90584.2
90304.2
90031.4
89765.1
89504.3
89249.5
89000.2
88754.9
88514.6
88283.5
88062.6
87848.9
87641.1
87438.9
87243.6
87059.7
86889.5
86730.7
86580.7
86438.7
86306.8
86186
86077.9
85983.4
85903.3
85837.7
85785.2
85744.9
85717
85703
85703.8
85718
85745
85785.9
85840.2
85905.6
85979.5
86061.9
86153.6
86254.9
86365.8
86485.4
86612.9
86748.8
86889.9
87041.1
87204.3
87370.3
87542.2
87717.5
87894.2
88070.7
88244
88409.6
88563.8
88702.5
88820.2
88912.1
88974
89000.5
88986.6
88928.8
88822.3
88664
88454.7
88195.5
87885.9
87523.9
87114.1
86668.1
86193.9
85696.8
85192.7
84695.5
84207.8
83739.8
83294.2
82874.4
82485.8
82131
81811.4
81527.1
81282.5
81085.8
80934.8
80834.3
80784.4
80775
80805.8
80870.4
80967.2
81085.8
81218.3
81345.7
81472.3
81619.9
81757.9
81889.8
82021.3
82146.9
82271.8
82400.3
82546.1
82718.7
82930.4
83191
83508.7
83880.8
84303.2
84772.5
85283.9
85817.2
86347.9
86845.1
107466
107460
107445
107424
107394
107355
107308
107251
107186
107112
107029
106937
106836
106726
106606
106477
106337
106187
106028
105859
105680
105489
105288
105075
104852
104618
104373
104118
103852
103575
103289
102991
102685
102368
102043
101709
101368
101019
100663
100301
99933.6
99561.3
99185
98805.5
98424
98041.3
97658
97274.9
96893.1
96513.4
96136.2
95762.5
95393.7
95030.9
94674.1
94322.6
93976.6
93635.8
93300.6
92971.7
92648.7
92332.4
92023
91719.6
91422
91130.5
90845.4
90567.7
90297.5
90034.2
89776.1
89524
89278.3
89036.9
88799.5
88569.3
88347
88131.5
87922.4
87721
87528.2
87345.6
87175.3
87016.5
86865.5
86721.9
86587.6
86464.4
86353.5
86255.7
86172.4
86104
86048.2
86003.5
85971.7
85954.8
85952.7
85964.6
85991.2
86032.1
86084.7
86146.2
86216.1
86295.7
86385.5
86484.3
86590.8
86706.2
86831.8
86966.8
87106.2
87253
87420.4
87583.1
87753.9
87927.8
88103.5
88278.8
88450.1
88613.9
88766.4
88903.1
89019.2
89110.1
89171.8
89198.5
89184.2
89127.1
89023
88866
88655.8
88397.8
88094.3
87739.2
87332.4
86885.9
86407.7
85901.3
85386.8
84881.6
84388.5
83914.5
83462.9
83037.5
82641.8
82279.2
81951.9
81663.1
81416.1
81221.3
81073.7
80975.2
80930.2
80924.8
80956.8
81023.4
81121.3
81242
81376.5
81499.6
81620.9
81767.1
81906.9
82035.1
82161.9
82286.2
82410.5
82538.7
82683.2
82855
83065.9
83327.8
83650.8
84028.3
84453.3
84923.2
85437.3
85974.2
86509
87008.3
107128
107122
107109
107089
107061
107025
106981
106928
106866
106796
106718
106631
106536
106433
106320
106199
106068
105928
105778
105618
105448
105268
105078
104878
104668
104447
104216
103975
103725
103464
103193
102912
102622
102322
102014
101697
101372
101040
100701
100355
100004
99647
99285.8
98921.2
98554.4
98186.1
97816.5
97446.4
97076.5
96707.7
96340.8
95976.3
95615.4
95259.6
94910.5
94567.7
94230.8
93899.1
93572.5
93251.4
92936.2
92627.2
92324.1
92026.9
91735.3
91448.7
91167.3
90892.5
90625.2
90365.3
90111.1
89862.6
89620.1
89382.8
89149.7
88921
88697.7
88480.5
88270.8
88069.9
87879
87698.4
87528.5
87368.6
87216
87070.7
86934
86808.2
86694.5
86593.7
86507.4
86435.2
86374.9
86326.2
86291.4
86272.6
86269.1
86280.6
86307.2
86346.7
86395.6
86453
86519.5
86595.5
86681.4
86775.5
86877.1
86987.7
87108.6
87238.8
87377.7
87523.4
87684.3
87848.9
88019.8
88193
88368.9
88543.2
88712.1
88873
89022.7
89156.9
89270.4
89359.5
89419.5
89446.1
89431.6
89372
89271
89120
88909.2
88648
88346.2
87996.3
87594.4
87151.9
86673.2
86159.6
85632.4
85116.2
84616.2
84134.9
83675
83242.5
82837.9
82465.8
82129.7
81837.3
81590.7
81396.8
81254.6
81159
81117.1
81115.5
81149.5
81217.8
81314
81432.9
81571.7
81691.6
81810
81950.4
82090.5
82217.1
82338.7
82458.8
82581
82710.6
82855
83025.3
83234.7
83497.1
83824.5
84207.3
84637.5
85110.1
85627.9
86169.6
86710.1
87213.6
106727
106722
106711
106693
106668
106634
106593
106544
106487
106423
106351
106271
106183
106087
105983
105870
105748
105618
105478
105330
105173
105006
104830
104644
104448
104244
104029
103806
103573
103331
103079
102817
102546
102265
101976
101679
101375
101063
100744
100418
100085
99746.8
99403.4
99056
98705.5
98353.1
97999.4
97644.7
97289.4
96934.3
96580.1
96227.7
95877.8
95531.5
95190.4
94855.6
94527.5
94205.7
93888.9
93577.3
93271.1
92970.7
92675.5
92385.7
92101.7
91821.7
91545.7
91275
91011.3
90755.5
90505.9
90261.7
90023.1
89790
89561.1
89334.6
89111.7
88894.8
88685.7
88485.4
88295.8
88117.2
87947.9
87786.4
87631.8
87484.8
87346.1
87217.1
87099.6
86995.1
86905.4
86829
86764.8
86713.9
86677.7
86657.9
86653.6
86663.8
86687.2
86721.2
86764.4
86817.8
86882.1
86954.1
87034.7
87125
87224.3
87331.2
87446.9
87570
87707.6
87849.2
88003.5
88168
88339.3
88514.1
88691.1
88865.2
89032.6
89190
89336.3
89467.4
89577.5
89664.6
89722.6
89747.6
89733.3
89671.2
89565.7
89417.9
89212.5
88949.2
88645.3
88297.2
87898.5
87460
86984.1
86467.8
85927.7
85399.9
84891.4
84400.6
83930.7
83488.5
83075.8
82694.1
82351
82054.7
81809.2
81616.3
81476.6
81383.7
81342.9
81344.2
81379.8
81450.2
81544.3
81655.8
81802.2
81922
82038.8
82171.8
82306
82429.8
82547.8
82664.5
82783.6
82915.2
83060.6
83229.1
83436.8
83701.1
84033.3
84419.5
84853.8
85331.6
85854.7
86402
86949.4
87457.7
106265
106262
106252
106237
106214
106184
106148
106104
106054
105996
105931
105859
105779
105691
105596
105493
105383
105264
105137
105002
104859
104707
104547
104379
104201
104014
103819
103615
103402
103180
102948
102707
102457
102199
101933
101659
101377
101087
100790
100486
100175
99857.8
99534.8
99206.9
98874.8
98540
98203.5
97865.8
97527.1
97187.9
96848.8
96510.6
96174.1
95840.2
95509.9
95184.5
94865.1
94552.5
94245.5
93944.3
93648.8
93358.7
93073.2
92792.5
92516.6
92244.3
91975.4
91711.3
91453.3
91202.2
90957
90717.3
90483.8
90255.8
90029.9
89806.6
89587.9
89374.7
89168.4
88970.2
88781.1
88602.3
88432.4
88269.5
88113.2
87963.6
87821.9
87689.8
87568.8
87460.6
87366.7
87286.2
87219.8
87168.1
87131.9
87110.7
87103
87107.8
87124.2
87151.8
87189.9
87238.5
87298.7
87365.9
87441
87526.2
87621.9
87726.4
87842.1
87962.5
88097.9
88236
88382.3
88544.9
88715.2
88892.2
89070.4
89243.1
89408.8
89563.6
89706.7
89834.6
89942.6
90029.2
90085.3
90105.4
90091.1
90029.9
89917.3
89765.1
89562.6
89299.5
88993.2
88644.9
88245.2
87808
87337.4
86821.1
86271.3
85733.1
85214.1
84712.8
84231.3
83776.8
83354.1
82964.2
82614.8
82315.5
82069.7
81880.8
81741.5
81646.8
81605.2
81612.2
81651.4
81720.2
81812
81916.3
82063.2
82188.8
82303.6
82429.1
82556.9
82675.4
82788.6
82902.7
83019.4
83152.8
83299.1
83468.4
83678.9
83950.7
84287.4
84670.1
85103.1
85587.2
86118.5
86671.7
87226.2
87738.8
105748
105746
105738
105725
105706
105681
105650
105613
105569
105519
105462
105399
105329
105252
105167
105076
104977
104872
104759
104639
104512
104378
104236
104087
103929
103762
103587
103403
103211
103011
102801
102584
102358
102125
101883
101633
101376
101111
100839
100559
100272
99977.9
99677.2
99370.4
99058.8
98743.6
98426.1
98107
97786.9
97465.6
97143.6
96821.6
96500.1
96180.5
95863.7
95550.4
95241.4
94937.8
94640
94348.6
94063.7
93784.5
93510.8
93241.2
92975
92712
92452
92196.2
91945.1
91699.4
91459.9
91226.7
90999.2
90775.2
90553.3
90335.4
90122.9
89915.3
89713.6
89519
89331.8
89152.2
88980.5
88816
88657.4
88504.5
88359.8
88224.7
88099.8
87987.7
87889.9
87806.7
87739.1
87685.9
87646.7
87620.3
87607
87606.6
87618.2
87641.8
87674.8
87716.7
87768.9
87829.3
87898.4
87979.8
88072.2
88174.9
88288.6
88406.6
88544.1
88683.3
88827.7
88985.3
89152.9
89329
89506.5
89678.1
89840.7
89991.4
90131.2
90256.2
90362.4
90447.3
90504.2
90522.3
90503.6
90444.2
90330.4
90168.8
89963.7
89700.4
89390.8
89040.4
88637.7
88197.9
87731.1
87218
86662.6
86114.9
85583.6
85072.4
84579
84111.9
83675.5
83277.1
82922.9
82624.6
82379
82187.8
82048.5
81949.4
81901.4
81916.1
81964.6
82033.9
82119.7
82220.7
82359
82487.9
82600.4
82719.3
82842.2
82953.6
83061.8
83172.7
83290.2
83424.4
83570.6
83741.9
83960.1
84243.1
84582.4
84959.3
85387.5
85878.9
86420.1
86981
87540.9
88056.6
105180
105180
105174
105164
105149
105129
105104
105074
105038
104997
104950
104897
104838
104774
104702
104624
104540
104448
104351
104247
104137
104021
103899
103769
103632
103487
103334
103172
103003
102825
102640
102448
102249
102041
101826
101603
101372
101133
100887
100633
100371
100103
99826.7
99543.6
99254
98959.8
98662.5
98363.2
98062.7
97760.8
97457.5
97153.2
96849.1
96545.8
96244.4
95945.8
95650.4
95358.4
95071
94788.8
94513.3
94244
93981.5
93724.3
93469.8
93218.6
92969.8
92722.6
92478.7
92240.4
92008.7
91783.2
91562.3
91343.9
91128.3
90917.7
90712.6
90511.9
90315.4
90123.9
89938.4
89759.3
89586.8
89420.6
89259.7
89104.1
88956.2
88817.9
88689.8
88574.8
88475
88390.5
88319.8
88261.7
88216.1
88184.5
88168.3
88166
88175.3
88194.1
88218.8
88251.4
88293.6
88347.8
88413.8
88492.7
88581
88678.8
88786.9
88908.4
89045.3
89186.6
89331.1
89486.5
89649.9
89822.4
89996.6
90166.7
90326.7
90473.5
90609
90730.2
90835.7
90919.2
90975.9
90996.4
90973.6
90911.4
90799.5
90633
90421.4
90154.1
89838.1
89484
89078
88632.1
88166
87657.8
87100.7
86543.2
86000.2
85480.2
84975.5
84496.1
84047.7
83640.5
83284.2
82987.6
82742.6
82542.2
82396.4
82294.7
82241.5
82258.7
82311.8
82382.8
82473.1
82568.5
82695.8
82821.1
82930.2
83045.9
83163.7
83267.7
83373.2
83482.6
83599.9
83730.2
83874.8
84050.8
84282.3
84573.8
84910.6
85282.8
85708.6
86210.3
86761.1
87332.4
87893.8
88413.5
104569
104571
104567
104560
104550
104536
104517
104494
104467
104434
104398
104357
104311
104260
104203
104140
104071
103997
103917
103830
103738
103641
103539
103430
103315
103193
103063
102925
102780
102628
102469
102303
102131
101951
101763
101566
101363
101151
100932
100704
100469
100226
99976.5
99719.3
99454.5
99183.3
98907.8
98629.7
98349.8
98068.2
97784.8
97499.3
97212.9
96926.9
96642.5
96360.1
96080.5
95803.3
95529.4
95258.8
94993.6
94733.9
94481.2
94235.5
93994
93755.5
93518.9
93282.2
93047.4
92818.5
92596.6
92379.9
92166.6
91956.7
91750
91547.5
91349.4
91155.5
90965.2
90778.3
90594.9
90416.2
90243.5
90076.6
89914.5
89758.2
89609.3
89468.8
89339.4
89224.1
89122.9
89034.3
88956.5
88890.6
88839.9
88806.6
88790.2
88785.3
88787.7
88795.5
88809.2
88834.2
88870.8
88923.1
88988.6
89066.8
89152.5
89246.3
89349.5
89469.1
89603.7
89745.5
89890.5
90043.9
90205.8
90375.9
90543.4
90709
90865.5
91010.7
91142.1
91257.8
91361.3
91445.5
91502.3
91524.5
91502.3
91435.4
91320.9
91152.6
90936.1
90662.6
90337.1
89976.8
89566.9
89113
88643.6
88139.8
87585.1
87019
86465.8
85937.5
85423
84930.3
84472.5
84056.7
83697.9
83397.7
83148.5
82939.8
82788.6
82688.2
82635.1
82653.9
82701.4
82768.4
82863.2
82958.3
83072
83190.9
83297.6
83409.4
83520.1
83619.6
83723.5
83833.7
83948.5
84070.9
84209.4
84393.8
84641
84933.8
85268.3
85641
86071.5
86584.9
87145.7
87726.3
88290.1
88815.4
103921
103925
103924
103920
103914
103907
103897
103882
103863
103841
103816
103787
103754
103717
103674
103627
103575
103518
103456
103389
103318
103241
103160
103073
102981
102883
102777
102664
102545
102419
102287
102148
102003
101850
101690
101522
101346
101162
100971
100771
100563
100347
100123
99892.5
99653.6
99407.2
99155.3
98900
98642.6
98382.6
98119.7
97854.4
97587
97319.2
97052.2
96786.4
96522.8
96261.7
96003.3
95747.5
95495.3
95247.3
95004.3
94768.7
94539.8
94314.6
94091.5
93867.9
93645
93426.6
93214.9
93008.6
92805.3
92605.7
92409.2
92215.2
92024.9
91837.7
91653.4
91471.9
91292.7
91116.3
90944.7
90779
90618.3
90463.4
90315.3
90175.2
90046.3
89930.3
89825.4
89729.1
89641.7
89568.1
89515.2
89482.1
89462.6
89449.7
89439.7
89434.9
89440.9
89462.9
89498.6
89550.8
89615.1
89694.1
89778.3
89873.5
89975.6
90091.7
90221.9
90362.2
90506.8
90659.3
90820.3
90989.4
91152.2
91309.7
91460.3
91601.3
91729.2
91841.7
91943.2
92030.1
92086.9
92107.8
92086.9
92018.2
91896.5
91723.4
91502.4
91223.7
90888.1
90519.2
90104.3
89642.3
89166.2
88664.9
88114.7
87543.3
86981.8
86446.4
85922.2
85418.5
84949.4
84524.9
84158.9
83849
83592.9
83379.1
83227.9
83132.2
83070.9
83101.9
83139.8
83203.4
83291.9
83383.2
83482.9
83598.1
83702.6
83805.4
83907.5
84006.3
84108.8
84222
84329.5
84439.3
84574.3
84773.5
85033.7
85323.6
85656.4
86037.9
86482
87006.6
87581.2
88170.8
88742.2
89267
103241
103247
103250
103251
103251
103249
103247
103243
103235
103224
103210
103193
103173
103150
103124
103093
103058
103020
102977
102931
102880
102825
102766
102702
102633
102557
102476
102389
102295
102196
102091
101980
101862
101737
101606
101466
101319
101163
101000
100828
100648
100460
100263
100059
99846.4
99626
99399.1
99167.8
98933.5
98696.1
98454.6
98209.9
97962.5
97714
97466.1
97218.8
96972.1
96727.4
96484.4
96244
96006.4
95772.7
95542.4
95317.8
95100.2
94888.6
94679.5
94470.7
94261.8
94055.4
93853.9
93658.9
93468.4
93281.5
93096.1
92910.6
92727.7
92548.1
92371.2
92196
92022.5
91851.2
91683.2
91520.7
91363.9
91213.5
91068.4
90929.7
90799.9
90680.1
90567.9
90464.4
90372.2
90296.2
90239.9
90200.4
90171.3
90146.7
90124.9
90111.9
90117.9
90143.8
90180.7
90233.9
90293.8
90369.7
90458
90554.6
90657.4
90773
90901.5
91038.8
91181.7
91335.3
91495.5
91660.1
91820.2
91968.8
92111.7
92246.2
92371.2
92486.4
92590.3
92676.2
92731.9
92750.4
92728.1
92657.4
92528.4
92346.2
92118.5
91835.2
91491.2
91110.5
90690.8
90220.8
89735.2
89235.6
88689.8
88116.2
87549.1
87007.8
86474.1
85962.7
85482.1
85050
84673.7
84354
84091.9
83876.1
83722
83636.7
83565
83586.5
83625.7
83687.4
83764
83846.4
83934.6
84041.8
84139.6
84232.9
84330.9
84431.1
84532.9
84645.1
84739.6
84841.3
84989.9
85204.6
85467.6
85746.1
86076.5
86478.9
86942
87483.4
88078.1
88672.7
89252.6
89765.1
102534
102543
102550
102556
102563
102569
102574
102580
102583
102585
102585
102581
102575
102566
102556
102543
102527
102508
102485
102459
102429
102395
102358
102316
102269
102218
102161
102099
102032
101960
101882
101798
101708
101612
101508
101397
101279
101152
101017
100873
100721
100560
100391
100213
100027
99832.7
99632
99426.2
99216.4
99002.1
98782.8
98559.2
98332.8
98104.2
97875.7
97647.6
97418.9
97191.2
96964.8
96740.1
96517.8
96299.6
96084.3
95873.3
95667.5
95468.5
95273.9
95080.2
94886.3
94693.9
94504.2
94320.4
94143.8
93971.6
93799.2
93624.2
93448.7
93276.2
93107.5
92941
92775.3
92611
92449.6
92293
92142.1
91996.9
91856.5
91719.2
91587.8
91463
91344.3
91236.2
91143.9
91068.2
91006.1
90954.4
90911.8
90878.6
90854.3
90841.1
90850.5
90884.2
90919.3
90975.6
91034.2
91106.5
91192.7
91289
91393
91509.5
91638.7
91775.1
91915.7
92069.6
92231
92390.1
92544.3
92685.5
92820.1
92947.5
93075
93195.4
93299.8
93381.5
93437.8
93452.9
93424.6
93351.6
93219.2
93026.1
92785.7
92496
92144
91751.1
91325.4
90848.6
90352.3
89851.5
89311.4
88737.6
88168.7
87619.4
87081.6
86562.4
86074
85634
85248.1
84922.7
84655.5
84435.5
84271.9
84185.2
84121.5
84132.4
84165.1
84217.7
84281.9
84349.8
84426.5
84520.2
84610.4
84697.1
84796.2
84896.9
84999.9
85102.5
85185.6
85300.2
85476
85688.3
85933.3
86192.8
86539.4
86976.1
87460.3
88026.9
88631.8
89228.9
89810.9
90306.9
101805
101815
101827
101841
101855
101869
101884
101899
101915
101930
101943
101955
101964
101972
101978
101982
101984
101983
101980
101974
101965
101953
101937
101917
101894
101866
101834
101798
101757
101711
101660
101604
101542
101473
101398
101315
101224
101125
101018
100902
100777
100644
100502
100352
100192
100025
99849.7
99669.5
99484.2
99293.5
99096.8
98895
98690.4
98483.4
98274.9
98066
97856.1
97645.5
97436.3
97228.3
97021.7
96819.1
96619.4
96423.3
96231.6
96045.1
95864.8
95686.9
95508.7
95331.4
95155.9
94983.9
94820.4
94663.6
94506
94343.9
94178.6
94014.4
93853.1
93695.9
93540.7
93385.5
93232.3
93083.4
92939.9
92800.5
92663.8
92529
92397.7
92271.9
92152.6
92042.6
91949.6
91872.1
91804.3
91744.5
91696
91661.7
91641.3
91629.2
91639.7
91670.9
91712.9
91767.9
91827
91897.5
91980.7
92077.2
92182.7
92302.4
92433.4
92569.8
92710.4
92862.8
93024.5
93180.2
93324.4
93457.7
93586.3
93711.7
93843.4
93968.5
94067.5
94143.9
94201.3
94209.6
94173.5
94095.3
93961.8
93760.1
93504.9
93205
92844.4
92440.6
92006.1
91524.7
91018.2
90512.1
89978.4
89407.4
88838.7
88283.4
87744.4
87219.2
86725.7
86273.6
85879
85543
85277.7
85046.2
84875.2
84784.2
84729.5
84728
84753.3
84788.5
84835.8
84886.8
84951.6
85034
85115.2
85198.7
85300.7
85403.8
85504
85594
85685.1
85826.9
86006.9
86199.6
86412.2
86679.8
87065.9
87543.7
88051
88640.5
89238
89840.6
90414.1
90902.9
101060
101074
101090
101109
101133
101158
101182
101207
101235
101262
101290
101317
101344
101369
101393
101415
101435
101454
101470
101484
101496
101505
101511
101514
101513
101510
101502
101490
101474
101454
101429
101399
101363
101321
101273
101217
101153
101081
101001
100912
100815
100709
100594
100470
100338
100197
100048
99893.5
99732.5
99564.5
99390.4
99211.1
99028.4
98843.4
98655.5
98466.1
98275.4
98082.8
97890.5
97699.9
97510.2
97323.1
97139.5
96958.4
96782
96609.2
96442.8
96281.1
96119.4
95958.2
95798.7
95640.6
95489
95346.5
95205.4
95058.5
94906.5
94752.7
94600.2
94451.9
94307.2
94162.9
94019.1
93878.3
93742.9
93610.1
93477.6
93347
93219.5
93097
92981.1
92874.4
92780.9
92700.9
92631
92572.2
92526
92489.6
92475.3
92461
92471.8
92498.6
92541.1
92597.4
92659.4
92731.8
92818.3
92916.5
93025.3
93149.6
93283.8
93419.8
93561.6
93715.5
93873.6
94025.3
94160
94285.5
94410.6
94540
94671.9
94793.1
94887.8
94961.9
95011.6
95011
94966.7
94879.5
94742.1
94533.6
94270.1
93958.8
93590.3
93177.9
92732.3
92247.3
91732.2
91219
90689.2
90126.1
89559.9
89004.9
88460
87935.4
87435.2
86970.3
86567.1
86212.9
85938
85708.6
85534.7
85438.1
85386.3
85368.6
85377.8
85393.7
85419.6
85456.8
85510.9
85583.4
85655.3
85740.5
85843.8
85950.7
86044.7
86133.8
86241.8
86392.1
86543.4
86722.4
86943.5
87252.4
87670.3
88177.9
88710.5
89316.7
89910.7
90522.8
91080.1
91564.9
100303
100319
100340
100367
100402
100438
100476
100514
100553
100592
100633
100676
100719
100762
100805
100847
100888
100926
100963
100998
101030
101059
101086
101111
101132
101150
101165
101177
101185
101190
101190
101185
101174
101157
101134
101103
101065
101020
100966
100904
100833
100753
100664
100567
100461
100345
100222
100092
99955
99810
99658.4
99502.1
99341.8
99178.3
99010.9
98840.5
98668.4
98494.6
98320
98146.6
97974.5
97803.9
97636.9
97471.4
97310.1
97152.8
96999.8
96853.3
96709
96564.5
96422
96280.5
96141.9
96011.3
95886.3
95757.2
95620.6
95479.6
95338.6
95200.3
95064.9
94931.6
94798.3
94666.8
94540
94415.4
94290.4
94165.8
94044.6
93927.9
93819.4
93720.1
93629.5
93550.6
93483
93430.1
93385.7
93340.4
93327.8
93327.7
93343.4
93370.5
93413.9
93470
93534.5
93611.7
93703
93805.3
93919
94049
94187
94325
94468.1
94622
94776.5
94921
95048.3
95171.5
95296
95427.9
95556.1
95668.3
95761.6
95832.2
95864
95851.2
95797
95699.1
95554.8
95342.1
95073.8
94752
94378.1
93958.1
93503.6
93013.3
92491.6
91971.9
91442.5
90888.5
90327.8
89783.9
89227.7
88712.5
88199.8
87736.4
87317
86944.4
86656.7
86427.9
86256.6
86151
86090
86051.9
86037.5
86033.7
86037.7
86061.9
86109.4
86168.1
86235
86325.1
86431
86537.5
86627.3
86726
86846.4
86985.4
87116.4
87294.8
87566.6
87929.6
88356.7
88859.8
89425.1
90050.4
90661.2
91281.1
91818.7
92291
99528.9
99546.7
99574.6
99612.8
99660.2
99710.9
99764.4
99820.1
99876.1
99932.8
99989
100045
100103
100163
100223
100283
100342
100401
100458
100512
100565
100616
100664
100709
100751
100792
100829
100864
100895
100922
100944
100962
100974
100981
100982
100976
100963
100942
100913
100875
100829
100774
100711
100639
100557
100467
100368
100261
100146
100024
99895.8
99762.4
99624
99480.7
99333.3
99181.9
99028.5
98873.3
98717
98561.3
98406.8
98253
98102.1
97953.3
97806.9
97665.6
97527.7
97395.6
97268.6
97141.4
97016.1
96892.8
96769.6
96651
96539.9
96429
96310.4
96185
96057
95929.4
95804.7
95682.3
95560.7
95440.7
95323.8
95209.4
95094.2
94979.6
94866.6
94759.4
94659.4
94570
94484.5
94413.1
94348.7
94298.2
94258.7
94224.3
94213.8
94220.4
94244.1
94277.3
94323.5
94380.7
94448.6
94533.6
94631.5
94738.9
94859.7
94996.2
95137.7
95277.9
95425.1
95576.9
95729
95865.4
95985.1
96109
96235.1
96366.7
96491.8
96600
96690.6
96747.3
96757.7
96733.9
96668.6
96560
96405.6
96189.9
95915.5
95585.7
95207.5
94778.7
94318.4
93820.6
93295.4
92770
92240.1
91691
91138.7
90603.6
90056.7
89551.4
89028.1
88568.7
88138.7
87755.4
87450.1
87217.9
87042.6
86923.3
86841.1
86776.8
86736
86708.1
86693.2
86705.1
86745.3
86787.9
86858.8
86957.8
87061.4
87165.9
87258.9
87366.7
87496.9
87628.7
87760.4
87953.4
88276.4
88693.4
89127.3
89622.8
90212.5
90847.8
91478.8
92101
92621.2
93074.3
98866.2
98889.1
98919.1
98966.5
99030.4
99097.8
99170
99240.7
99310.2
99380
99452.4
99528.3
99604.6
99679
99752.7
99825.8
99899
99971.6
100043
100113
100182
100249
100314
100376
100436
100494
100548
100599
100647
100691
100731
100767
100798
100824
100843
100856