/*--------------------------------*- C++ -*----------------------------------*\
| =========                 |                                                 |
| \\      /  F ield         | OpenFOAM: The Open Source CFD Toolbox           |
|  \\    /   O peration     | Version:  dev                                   |
|   \\  /    A nd           | Web:      http://www.openfoam.org               |
|    \\/     M anipulation  |                                                 |
\*---------------------------------------------------------------------------*/
FoamFile
{
    version     2.0;
    format      ascii;
    class       volScalarField;
    object      p_0;
    location    "9.13";
}
// * * * * * * * * * * * * * * * * * * * * * * * * * * * * * * * * * * * * * //

dimensions      [1 -1 -2 0 0 0 0];

internalField   nonuniform List<scalar> 
12225
(
87988.2
88026.5
88134.2
88302
88509.5
88755.4
89026.1
89325.1
89634.4
89966.8
90298.1
90656.1
91001
91379
91762.1
92095.3
92609.4
92898.3
87995.8
88036.3
88144
88311.5
88518.5
88764.1
89034.5
89332.6
89642
89973.4
90304.9
90662.8
91008
91383.1
91758.8
92133.3
92578.2
93102
88017.9
88059.7
88167.4
88333.9
88539.8
88784.8
89054.3
89350.6
89660.4
89990.3
90322.1
90676.6
91028.1
91391.4
91772.7
92154.3
92578.3
93170.4
88058.1
88100.3
88207.9
88373
88577.5
88821.5
89089.8
89384.7
89693.2
90021.5
90352.4
90702.5
91054.7
91411.5
91775.1
92169.5
92615.8
93073.8
88119
88162.8
88270.4
88433.2
88636.3
88878.4
89145.6
89437
89745.4
90069.4
90404.5
90744.1
91095.8
91450.3
91813.4
92208.3
92601.6
93010.5
88210
88253.6
88359.9
88520
88721.4
88961.3
89226
89514
89820
90139.5
90470.7
90806.8
91153.8
91507.7
91868.6
92241.5
92610.3
92957.8
88339.4
88380.1
88483.4
88640.6
88839.6
89076.5
89337.6
89622.2
89923.2
90237.6
90562.6
90893.4
91236.2
91582.2
91940.2
92281.6
92648.1
92979.1
88484.1
88524
88624.5
88778.9
88975
89206.9
89465.6
89746.1
90042.4
90350.6
90671
90994.1
91332.5
91668.4
92019.7
92348.3
92713.1
93040.1
88638.8
88678.4
88777.3
88928.9
89121.6
89349.7
89604.1
89880.2
90172.3
90473.7
90789.5
91105.7
91437
91764.2
92106.1
92430.2
92779.3
93096.9
88845.2
88883.7
88981.3
89128.9
89317.8
89538.6
89789.5
90058.9
90345.4
90639.5
90946.9
91256.3
91578.1
91894.6
92223.1
92537.7
92861.4
93171.2
89121.1
89158.4
89252.7
89396.5
89579.2
89794.9
90036.6
90299.1
90575.6
90860.5
91157.9
91457
91765.3
92071.3
92381.1
92683.1
92980.8
93272.9
89489.3
89521.5
89614.4
89752.1
89927.7
90133.2
90365.9
90617.7
90882.7
91155.1
91439.1
91724.8
92016.3
92307.1
92597.2
92882.5
93157.8
93428.6
89980.4
90008.7
90095.5
90225.4
90390.9
90584.3
90803.4
91041.2
91291.9
91546.7
91812.1
92080.9
92352.5
92623.6
92891.4
93156
93410.6
93658.5
90623.9
90651.1
90731.1
90850.2
91001.9
91179.5
91379.8
91596
91827.5
92063.2
92306.4
92553.3
92800.8
93047.6
93290.6
93530.5
93762.4
93985.4
91457.4
91494.1
91565.6
91670.5
91804.3
91960.7
92136.9
92326.3
92530.1
92741.7
92957.5
93175.9
93394.7
93612.1
93826
94035.8
94239.7
94436.1
92571.5
92594.4
92650.7
92735.9
92845.3
92974.5
93119.9
93277.4
93446
93624
93805.3
93988.4
94172
94354
94532.6
94707.4
94877.9
95042.4
93988.4
93997
94033.7
94093.4
94172
94266.3
94373.3
94490.5
94616.3
94750.8
94888.9
95028.7
95168.9
95308.1
95444.8
95578.4
95708.6
95834.3
95624.3
95608.6
95619.4
95648.7
95692.2
95747.2
95811.3
95882.9
95960.8
96045.9
96135.5
96226.8
96318.8
96410.5
96500.9
96589.6
96676.3
96760.1
97176.4
97147.9
97138.1
97140
97150.6
97168.4
97191.9
97219.9
97251.4
97290
97334.2
97379.7
97426
97473.1
97520.1
97566.5
97612.4
97657
98487.5
98462.8
98439.3
98420
98403.7
98390.3
98379.9
98372.7
98369.6
98367.2
98369.5
98374.1
98380.8
98389
98398.2
98408.5
98419.6
98430.8
99592.2
99556
99519.7
99481.5
99442.4
99402.8
99363.4
99325.6
99291.2
99259.5
99228.1
99199.2
99172.7
99148.6
99126.9
99107.3
99089.5
99073
100479
100433
100386
100334
100277
100218
100156
100095
100036
99977.5
99918.4
99862.1
99808.9
99758.9
99712
99668.2
99627.3
99588.7
101167
101121
101065
101001
100929
100852
100773
100694
100616
100536
100455
100378
100305
100235
100169
100106
100047
99991
101695
101642
101580
101507
101424
101337
101246
101153
101058
100959
100862
100769
100680
100595
100514
100438
100365
100296
102088
102028
101960
101883
101795
101697
101595
101489
101379
101269
101161
101057
100957
100861
100769
100682
100599
100521
102362
102305
102237
102152
102056
101952
101841
101725
101607
101489
101374
101262
101153
101049
100950
100855
100766
100680
102545
102492
102419
102330
102230
102121
102005
101885
101762
101639
101518
101401
101287
101178
101073
100974
100879
100789
102668
102610
102534
102443
102340
102228
102109
101986
101860
101734
101610
101489
101372
101259
101151
101049
100951
100858
102737
102677
102598
102506
102402
102289
102168
102043
101916
101788
101662
101539
101420
101305
101196
101091
100991
100896
102772
102706
102626
102533
102428
102314
102193
102068
101939
101811
101684
101560
101440
101325
101214
101109
101008
100912
109619
109609
109587
109554
109510
109454
109385
109304
109211
109106
108989
108858
108715
108560
108392
108213
108021
107817
107601
107372
107130
106875
106607
106327
106035
105731
105415
105089
104752
104405
104049
103684
103312
102932
102545
102153
101756
101355
100951
100545
100137
99729.3
99321.7
98915.6
98511.9
98111.7
97715.8
97324.9
96939.7
96560.3
96187
95820.8
95462.3
95111.7
94768.8
94433.8
94106.9
93788.5
93478.7
93177.4
92884.6
92600.5
92325
92058.2
91799.9
91549.8
91307.3
91072.6
90845.7
90625.7
90411.7
90203.5
90001.5
89805.8
89616.6
89434.6
89260
89093
88933.2
88782.2
88640.4
88506.8
88381
88263.6
88154.7
88054.6
87963.7
87881.7
87809.6
87747.9
87696.6
87653.7
87618.1
87590.1
87570.6
87559.1
87555.3
87559.7
87573.7
87599.2
87637.1
87686.3
87745.3
87813.8
87891.3
87977.2
88072.7
88183
88305.8
88440.7
88576.3
88732.1
88898
89072.1
89252
89435.3
89618.5
89798.2
89970.5
90130.7
90274.1
90395.6
90490.5
90554
90581.6
90569
90512.4
90408.7
90255.5
90051.6
89797.4
89493.5
89141.6
88746.3
88315.4
87857.2
87380.3
86894.8
86411.7
85942.1
85495.4
85077.2
84691.9
84344.5
84041.5
83784.7
83572.1
83403
83276.7
83192.1
83149.3
83150
83188.2
83262.1
83364.8
83489.9
83629.3
83776.9
83923.4
84058.8
84176.3
84288.4
84391.3
84487.2
84570.1
84646.7
84721.4
84802.7
84899.9
85023.1
85181.3
85382.3
85631.1
85926.2
86262.8
86633.7
87026.8
87426.5
87808.2
88148.4
109490
109480
109458
109426
109383
109328
109262
109184
109093
108989
108874
108746
108606
108455
108291
108115
107926
107725
107511
107285
107047
106797
106533
106257
105970
105670
105359
105037
104705
104363
104012
103652
103285
102909
102528
102140
101748
101352
100952
100550
100146
99742.6
99339.3
98936.9
98536.7
98139.7
97746.8
97359.1
96977
96600.6
96230.6
95867.3
95511.4
95163.1
94822.6
94490.1
94165.5
93848.7
93540.6
93241
92949.6
92666.7
92392.2
92126.2
91868.6
91619.3
91378.2
91144.6
90918.4
90699.4
90486.5
90278.8
90076.4
89880.3
89691.6
89511
89338.3
89172.8
89013.4
88860.6
88716.4
88581.8
88456.6
88340.2
88231.7
88131.6
88040.5
87957.6
87883.4
87819.4
87765.6
87721
87685
87657.1
87636.9
87625.1
87622.1
87627.7
87642.3
87667.6
87705
87754
87812.8
87880.4
87956.7
88041.1
88137.5
88248.8
88371.9
88500.3
88640.3
88798.1
88964.9
89138.7
89318.1
89500.8
89683.3
89862.4
90034.1
90193.6
90336.2
90457.1
90551.2
90613.9
90640.9
90628.2
90571.8
90468.6
90316.3
90113
89858.9
89555.3
89203.9
88808.6
88376.7
87917.4
87438.8
86951.2
86466.4
85994.7
85546.2
85126.3
84739.6
84391.2
84087.4
83830.2
83617.2
83445.5
83315.4
83228.1
83183.2
83183.9
83223.6
83298.4
83402
83527.2
83668.1
83815.8
83963
84097.2
84212.3
84325.7
84429
84523.7
84607
84683.3
84758
84838.8
84936.1
85059.3
85218.2
85420.1
85670.6
85967.2
86304.6
86676.2
87070.4
87471.1
87853.1
88189.9
109235
109226
109207
109177
109136
109085
109022
108947
108860
108760
108649
108527
108392
108245
108087
107916
107735
107540
107333
107114
106884
106641
106386
106119
105840
105550
105248
104936
104613
104281
103940
103590
103232
102866
102494
102116
101733
101345
100954
100561
100165
99769.4
99373.9
98979.2
98586
98195.7
97809.2
97427.5
97051
96680.5
96315.9
95958.1
95607.8
95264.7
94929.1
94601.4
94281.1
93968.4
93664.1
93367.9
93079.5
92799.6
92528
92264
92008.1
91760.4
91520.5
91288.3
91063.9
90846.5
90635.4
90429.9
90228.9
90032.6
89843
89662.8
89492
89328.4
89170.5
89018
88872.7
88737.5
88612.7
88497.5
88390
88289.1
88196.1
88111.3
88034.5
87967.3
87910.1
87862.2
87823.9
87794.5
87772.7
87759.2
87756.2
87763.3
87779.7
87806.5
87844.7
87893.2
87950.1
88015.3
88089.5
88174
88271.2
88381.8
88502.1
88628.2
88771.4
88930.5
89096.5
89269.6
89448.7
89630.6
89811.9
89990.2
90161.2
90319.6
90461.2
90581.2
90673.9
90735.1
90761.2
90747.9
90691.6
90589.1
90437.9
90237
89986.1
89685.4
89336.4
88940.6
88505.7
88043.5
87561.4
87069.6
86580.7
86105.7
85653.7
85230.4
84840.8
84490.1
84183.8
83923.3
83706.1
83529.1
83394.1
83304.7
83258.5
83259.1
83301
83376.3
83481.5
83606.6
83748.7
83896.3
84043.5
84174.7
84285
84402.3
84503.3
84596.1
84681.5
84758.2
84833.9
84914.7
85012.8
85136.6
85297.1
85501.4
85755.5
86055.4
86395.2
86768.2
87165.3
87568.3
87951.3
88284.6
108866
108858
108840
108813
108776
108728
108669
108598
108515
108421
108317
108201
108074
107936
107787
107625
107452
107267
107070
106863
106644
106414
106171
105916
105651
105374
105086
104787
104479
104160
103833
103497
103153
102801
102443
102079
101709
101335
100957
100576
100194
99809.8
99425.4
99041.5
98658.8
98278.4
97901.6
97528.9
97160.6
96797.9
96441.1
96090.9
95748.1
95412.7
95084.6
94763.9
94450.5
94144.1
93845.6
93554.7
93271
92995.6
92728.5
92468.1
92214.8
91969.8
91732.4
91502.3
91280.1
91065.2
90856
90652.5
90455.4
90262.6
90073.8
89893.4
89722.5
89558.8
89401.3
89250.1
89105.9
88971.2
88847.4
88733.1
88625.9
88523.7
88427.5
88338.7
88258.6
88187.7
88127
88077
88036.3
88003.2
87978.2
87963
87959.2
87965.6
87981.7
88009
88047.5
88095.8
88151.6
88215.8
88289.8
88374.6
88470.8
88578.1
88697
88828
88970.3
89123.8
89290.1
89462.9
89641.4
89822.4
90002.7
90179.6
90349.3
90506.4
90646.3
90764.6
90855.6
90915.3
90940.2
90926
90868.8
90767.3
90617.3
90417
90168.7
89873.8
89531.8
89140.3
88704.9
88239.3
87751.6
87253
86756.6
86276.3
85819.8
85391.1
84996.5
84641.3
84329.9
84062.5
83838.3
83655.1
83514.8
83424
83377.5
83377.9
83422.7
83498.5
83603.8
83729.4
83871.9
84020.3
84166.6
84293.3
84396.3
84516.2
84617.5
84705.6
84791.1
84869.2
84946.5
85028.3
85127.5
85252.7
85414.9
85623
85883.8
86190.2
86533.9
86909
87310.9
87718
88104.8
88437.6
108387
108380
108365
108340
108306
108263
108208
108142
108066
107980
107884
107776
107659
107532
107394
107244
107083
106912
106729
106537
106333
106117
105890
105651
105402
105142
104871
104590
104299
103999
103690
103373
103047
102714
102374
102028
101677
101320
100960
100596
100229
99860.9
99491.6
99122.3
98754.1
98387.7
98023.6
97662.7
97305.8
96953.5
96606.3
96265.1
95930.6
95603.8
95284.7
94973
94668.8
94371.2
94080.4
93796.5
93519.9
93250.9
92989.6
92734.6
92486.1
92244.9
92010.6
91783.3
91563.7
91352.2
91146.4
90946.4
90752.8
90564
90379.2
90200.7
90029.2
89864.3
89706.2
89556
89414
89280.2
89156.2
89042.1
88933.7
88828.9
88729.5
88637.8
88554.7
88480.4
88416.4
88364.1
88320.6
88283.9
88255.8
88238.8
88233.4
88238.9
88255.9
88284.8
88323
88368.7
88421.7
88484.4
88558.3
88642.5
88735.7
88839.8
88958
89090.2
89232.3
89381.8
89548.6
89720.3
89899.1
90079
90258.6
90434.2
90601.1
90755.5
90892.6
91007.5
91095.8
91153.4
91177.2
91162.4
91104.1
91002.8
90855.5
90656.8
90407.4
90114.2
89779.6
89396.8
88966
88500.4
88008.5
87501.2
86994.5
86506.1
86043.7
85608.4
85206.7
84844
84523.8
84247.3
84013.7
83824.7
83680.3
83589.5
83544.3
83543.8
83591.2
83668.3
83772.1
83897.3
84038
84186.3
84332.3
84452
84553
84668.7
84771.3
84857.3
84938.5
85016.2
85094.3
85178.4
85278.7
85405.2
85568.7
85780.4
86049.5
86365.3
86716.7
87096.5
87504.6
87918
88311.4
88648.3
107810
107805
107791
107770
107741
107702
107652
107594
107526
107448
107360
107264
107158
107043
106917
106782
106637
106481
106314
106138
105950
105752
105543
105324
105094
104854
104604
104344
104075
103798
103512
103217
102914
102603
102286
101963
101633
101299
100960
100616
100269
99920.4
99569.7
99218.6
98868.1
98518.8
98171.2
97825.8
97483.4
97144.4
96809.4
96479.3
96155
95837.3
95527.4
95225.3
94931.2
94644
94362.8
94088
93820.3
93559.6
93305.2
93057.4
92816.2
92580.9
92351.4
92128.2
91912
91704
91503.1
91307.5
91117.3
90932.7
90753.2
90577.1
90405
90239.5
90081.9
89932.6
89791.9
89659.6
89536
89420.5
89309.6
89202.4
89100.3
89005.7
88919.7
88842.5
88776
88720.4
88673
88633.3
88603.5
88586.3
88581.2
88587.8
88606.6
88635.6
88671.8
88715.2
88766.9
88828
88899.8
88981
89071.6
89172.9
89288.1
89415.2
89558.2
89705.1
89869.7
90041.8
90221.4
90401.4
90581.5
90756.3
90920.3
91070.4
91203.4
91314.5
91398.6
91453
91473.4
91457.3
91398.2
91292.9
91148.1
90956.4
90707
90411.1
90079.5
89703.6
89279.5
88819.5
88328.4
87812.1
87293.7
86794.6
86324.4
85881.6
85470.4
85098.3
84767
84479.3
84235.2
84040.7
83894.8
83802.4
83760.1
83759.2
83805.5
83883.3
83986.7
84111.1
84245.9
84388.6
84536.1
84652
84750.4
84859.1
84960.8
85046.5
85123.9
85198.7
85276.4
85364.9
85468.1
85595.9
85761.1
85976.7
86252.9
86577.4
86939.3
87327.6
87743.7
88164.9
88566.5
88910.8
107146
107142
107131
107114
107088
107054
107012
106960
106901
106833
106758
106673
106580
106477
106366
106245
106116
105977
105828
105670
105502
105324
105137
104939
104732
104516
104290
104056
103813
103561
103300
103031
102754
102470
102179
101881
101578
101269
100954
100635
100312
99986
99657.2
99327
98996.2
98666.2
98337.4
98010.1
97684.9
97362.3
97042.7
96726.7
96415.6
96110
95810.6
95518.5
95234.3
94958.1
94688.3
94424.3
94167
93916.3
93670.9
93431.7
93199.3
92971.7
92748.7
92530.9
92319.9
92117.1
91921.1
91730.1
91544.6
91365.2
91190.1
91016.5
90846.2
90682.5
90526.5
90378
90238.2
90107.5
89984.2
89866.5
89752.9
89643.4
89539
89441.4
89351.6
89271.1
89202
89143
89092.6
89052.2
89022.8
89006.4
89002.1
89008.8
89025.7
89050.7
89083
89124.2
89176.1
89235.9
89304.7
89384
89474.6
89575.2
89689.8
89807.1
89949.3
90095.7
90254.1
90425.6
90605.7
90788
90969.9
91144.4
91306.9
91452.8
91581
91688.1
91767.6
91818.6
91835.8
91816
91756.3
91647.7
91496.5
91307.2
91064
90766.6
90433.9
90061.7
89642.9
89189.3
88703.5
88181.6
87650.6
87142.8
86662.5
86209.8
85787
85403.1
85061.3
84761.7
84508.8
84308.4
84161.6
84067
84023.1
84020.8
84062.5
84139.7
84242.5
84366.8
84495.1
84627.1
84777.9
84893
84988.7
85089.8
85186.1
85268.4
85344.2
85416.9
85493.1
85586.6
85694.5
85824.6
85992.3
86214.2
86498.4
86828.6
87199.3
87599.7
88026.6
88456.6
88867.4
89219.8
106406
106403
106395
106381
106360
106332
106296
106254
106206
106149
106085
106013
105933
105845
105749
105646
105534
105413
105284
105146
105000
104845
104682
104510
104329
104139
103941
103734
103518
103293
103060
102819
102571
102314
102052
101782
101507
101226
100941
100650
100354
100053
99749.3
99442.9
99134.5
98825.5
98517.2
98210.1
97904.3
97600.2
97298.8
97000.2
96704.6
96413.5
96127.6
95847.7
95574.5
95309.1
95050.4
94798.4
94553.2
94314.4
94080.6
93852.1
93629.2
93410.4
93195.4
92985.9
92782.7
92586
92394.6
92208.6
92029.5
91856.1
91684.1
91514.3
91350
91191.8
91039.6
90893.4
90753.9
90622.6
90498.2
90378.7
90262.9
90150.4
90042.9
89942.3
89849.3
89765.9
89693.6
89631.5
89580.4
89540.8
89513.2
89497
89490.7
89494
89506
89527
89556.2
89594.5
89644.5
89701.8
89767.5
89844
89933
90033.5
90148.2
90269.8
90410.5
90554.4
90707.1
90876.1
91054.9
91239.6
91423.1
91596.1
91756.3
91898.7
92023
92125.5
92202
92251.2
92265.8
92240.2
92177.9
92070.4
91911.9
91716.5
91475.6
91178.7
90844.4
90473.6
90055.9
89606
89127.2
88606
88063.9
87550
87058.1
86593.7
86157.6
85759.1
85404.8
85094.4
84833.2
84628.2
84478.1
84383.9
84335.7
84326.3
84362.6
84441.7
84543.1
84663.3
84783.2
84910
85054.9
85173.6
85266.1
85358.7
85449.9
85527.2
85599.3
85670.9
85745.7
85844.4
85956.8
86092.7
86267.7
86501.9
86794.9
87124.3
87498.2
87911.9
88354
88793.7
89213.3
89572.5
105604
105604
105598
105588
105572
105550
105523
105491
105452
105408
105356
105299
105234
105163
105084
104997
104903
104802
104694
104578
104456
104326
104189
104044
103891
103729
103558
103379
103192
102996
102793
102582
102364
102139
101907
101668
101424
101174
100918
100657
100390
100119
99842.4
99561.5
99277.6
98992.1
98706.2
98421
98137
97854
97572.2
97292.7
97015.6
96741.5
96471.5
96206.4
95946.6
95692.8
95445.5
95205.1
94971.8
94745.2
94525.1
94309.7
94098
93890.2
93686.2
93486.5
93291.7
93101.7
92917.1
92739
92567.1
92398.3
92230.9
92068.2
91911.8
91760.4
91613.5
91471.3
91333.8
91201.5
91075.1
90953.5
90835.1
90719.3
90609.1
90505.8
90409.7
90323.5
90248.6
90185.3
90134.4
90094.5
90065.1
90045.4
90036.1
90036.6
90046.3
90065.6
90091.9
90125.8
90169.6
90222.6
90285.5
90361.8
90450.1
90549.8
90663.1
90788.9
90931.8
91078.3
91230.8
91396.4
91572
91755.8
91938.4
92110.3
92267.2
92404.7
92525
92623.6
92697.7
92744.3
92757.8
92730.8
92662.6
92554.1
92395.2
92189.9
91945.8
91649
91311.5
90939.6
90520.5
90070
89597.6
89080.9
88531.3
88014.6
87508.8
87033.6
86584.2
86171.1
85800.2
85478.7
85210.8
85004.8
84850.9
84749.3
84695.8
84677.2
84702.1
84786.6
84891.5
85006.7
85116.4
85236.7
85372.1
85489
85578.3
85663.3
85750.1
85821
85889.2
85959.3
86037
86139.2
86255.2
86398.6
86586.5
86837
87137.6
87465.2
87839
88267
88726.2
89178.5
89604.9
89968.9
104753
104755
104754
104748
104739
104724
104705
104683
104655
104622
104585
104542
104494
104440
104380
104313
104240
104159
104072
103980
103881
103777
103665
103547
103422
103289
103147
102998
102840
102675
102503
102324
102138
101946
101747
101541
101329
101111
100886
100655
100419
100178
99930.6
99678.1
99420.8
99160.4
98898.6
98636.6
98375.4
98115.1
97855.3
97596.1
97338.8
97084.2
96832.7
96584.9
96341.6
96102.5
95868.6
95640.3
95419
95203.9
94996.2
94794.9
94596.5
94402.2
94211.9
94023.2
93836.7
93655.5
93480.6
93311.8
93147.6
92985.3
92825.8
92672.3
92525
92381.4
92240.1
92101.4
91966
91834.4
91707.2
91583.9
91463
91345
91232.6
91127.1
91028.9
90941.1
90865.6
90802.2
90749.2
90705.4
90671.2
90648.4
90638.8
90639.4
90648.1
90663.7
90684
90712.2
90749
90799.6
90862.7
90940.6
91028.6
91126.5
91237.9
91366.2
91511
91660.9
91815
91980.3
92152.7
92332.8
92510.9
92681.2
92834.8
92968.7
93084.4
93178.5
93251.3
93297.5
93309.3
93283.3
93212.7
93099.2
92940
92729.7
92478.5
92177.8
91834.4
91459.2
91038
90582.8
90113.3
89604.6
89053.7
88530.5
88013.3
87529.1
87067.8
86640.6
86255.3
85922.3
85650.4
85442.3
85284.1
85167.5
85102
85076.8
85090.4
85175.6
85279.9
85387.8
85501.4
85609.8
85733.4
85841.4
85925
86006.8
86088.8
86153.4
86220
86289.4
86371.1
86472.5
86590.9
86744.2
86950.8
87214.3
87518.1
87847.6
88224.2
88669.8
89145
89613.7
90042.9
90412.3
103879
103882
103883
103880
103876
103870
103860
103846
103829
103808
103784
103757
103725
103688
103647
103601
103549
103490
103427
103358
103284
103204
103118
103028
102931
102827
102716
102597
102470
102337
102197
102051
101899
101740
101574
101401
101221
101035
100842
100643
100437
100226
100009
99786
99557.5
99324.1
99087.9
98850.9
98613.8
98376.8
98140.2
97903.4
97666.8
97432
97200.3
96971.6
96746.8
96525.4
96307.9
96094.3
95886.5
95684.2
95488.3
95300.1
95116.6
94936.1
94760.1
94584.4
94409
94239
94076
93917.5
93762
93609.8
93461.5
93318
93178.7
93042.5
92908
92774.4
92642
92511.5
92384.5
92260.7
92139.3
92021.7
91909.5
91803
91704.7
91618.1
91542.3
91475.7
91416.5
91366.3
91329.1
91306.6
91297.6
91296.7
91299.9
91306.5
91319.4
91344.2
91379.5
91431.7
91497.8
91577.8
91666.9
91766.3
91876.7
92003.9
92148.1
92300.1
92456.7
92621.4
92793.4
92971.8
93142.4
93307.4
93456.8
93589.2
93701.7
93790.9
93861
93908.2
93921.6
93894
93824.4
93707.2
93542.9
93330
93072.7
92765.1
92412.9
92031.9
91607.5
91145.5
90674.6
90174
89627.4
89097.3
88572.3
88080.3
87609.4
87167.2
86770.4
86426.1
86148.6
85931.4
85763
85633
85558.1
85530.7
85538.5
85620.4
85712.7
85814.4
85927.5
86029.3
86136.2
86233.4
86312.6
86391.3
86465.6
86527.7
86593.8
86665.4
86748.3
86845.2
86960.9
87128
87355.1
87623.9
87933.3
88272.2
88660
89125
89615.2
90099.5
90532.6
90909.4
102989
102995
102998
103000
103000
103001
103001
102997
102991
102983
102972
102959
102943
102924
102900
102872
102841
102805
102765
102720
102671
102617
102558
102495
102426
102351
102269
102181
102085
101984
101877
101763
101644
101518
101385
101244
101097
100944
100783
100616
100441
100260
100074
99880.8
99681.6
99476.6
99267.4
99056.4
98845.2
98633.4
98420.3
98206.4
97992.3
97779
97567.8
97358.8
97152.7
96950
96750.5
96554.4
96362.4
96175.3
95992.7
95816.7
95647.9
95482.6
95320.9
95160.9
95000.1
94842.9
94692.1
94545.5
94401.3
94261.4
94125.6
93992.4
93862.1
93733.2
93605.1
93477.7
93350.4
93223.6
93098.6
92976.6
92857.4
92742.7
92633.1
92528.3
92431.8
92345.5
92267.1
92194.2
92127.3
92071.6
92034
92012.4
92000.8
91993.5
91987.9
91986.2
91996
92022
92061.8
92117.4
92185.1
92267.2
92360.6
92462.8
92574.1
92701.4
92843.2
92995.6
93153.2
93319
93491.1
93668.1
93834.7
93990.2
94133.9
94262.9
94371.6
94459.9
94529.6
94578.5
94593.6
94564
94492.9
94375.4
94202.7
93983.6
93721
93406.9
93045.1
92656
92227.3
91758.4
91282.2
90787.9
90248.5
89714.8
89185.9
88686.6
88207.6
87754
87343.3
86987.9
86699.3
86466.5
86285.6
86145
86066
86042.1
86042
86115
86199.6
86291.1
86392.6
86485
86572.9
86665.1
86740.4
86810.3
86875.6
86939.4
87004.6
87082.4
87160.7
87248.1
87364.3
87551.5
87796
88067.5
88384.8
88744.2
89153.5
89636.5
90145.8
90643.8
91086.8
91464.5
102096
102105
102112
102118
102125
102132
102140
102148
102154
102159
102161
102162
102161
102158
102152
102144
102132
102118
102100
102079
102054
102026
101994
101957
101915
101867
101814
101754
101689
101619
101543
101462
101374
101280
101180
101072
100958
100836
100708
100572
100428
100278
100121
99957.9
99788.3
99612.3
99431.4
99247.7
99062.6
98876.2
98687.7
98497.4
98305.9
98114.7
97925.5
97738.2
97552.2
97368.8
97187.6
97009.3
96834.2
96663.9
96497.7
96336
96180.8
96031.2
95884.8
95741
95597.2
95454.8
95316.5
95183.1
95053.1
94927.4
94805.3
94682.8
94561
94440.5
94320.3
94199.8
94079.2
93958.9
93839.1
93721.7
93607.5
93498.7
93393.8
93292.4
93196.3
93106.9
93022.3
92944
92875.2
92820
92780.7
92754.3
92735.6
92719.4
92705.1
92698.4
92713
92746.6
92792.5
92852.7
92921
93003.5
93100.7
93206.5
93322
93451.5
93593.7
93745.2
93902.2
94071.2
94244.9
94416.3
94580.8
94727.7
94864.1
94988.2
95095
95186.1
95260.7
95308.2
95321.8
95292.1
95217.1
95097.1
94917.4
94687.8
94418.2
94099
93728.3
93328.3
92896.1
92420.6
91936.5
91446.3
90916
90379.4
89851.6
89347
88861.6
88400.8
87977.4
87612.5
87309.2
87062.1
86870
86720.7
86630.5
86614
86600.8
86663.3
86736.9
86819
86901.6
86979.8
87051.5
87134.7
87201.9
87262
87324.3
87391.8
87457.4
87537.7
87604.7
87686.7
87822.5
88028.1
88282
88550.3
88875.1
89268.5
89706.6
90213.2
90748.1
91253
91707.8
92072.9
101211
101223
101233
101245
101258
101272
101288
101306
101324
101341
101358
101374
101387
101400
101412
101423
101432
101438
101442
101444
101442
101437
101429
101416
101400
101379
101353
101322
101286
101246
101200
101149
101092
101030
100961
100885
100802
100712
100614
100509
100396
100276
100149
100014
99873.5
99726.1
99573.7
99418.1
99260.1
99099.4
98935.4
98768.8
98601.1
98432.7
98265.3
98099.6
97934.5
97770.8
97609.2
97449.7
97292.3
97139.5
96990.7
96846.2
96705.8
96571.2
96441
96313
96186.3
96061.1
95937.8
95817.7
95703
95593.2
95485.8
95376.3
95263.6
95151.4
95040.2
94928.9
94817.2
94705.1
94593.3
94483.3
94376.7
94274.2
94175.1
94076.6
93981
93888.8
93800.1
93719.5
93653.1
93600.5
93558.1
93522.7
93493.9
93472.1
93458.7
93451.9
93475.5
93516.2
93567.7
93632.1
93701.9
93786.3
93884.6
93994.6
94114.6
94247.7
94392.7
94544.8
94702.8
94873
95049.4
95216.8
95373.9
95515.4
95645.8
95764
95877.2
95974.4
96049.3
96092.1
96104.9
96072.4
95990.9
95866.9
95685.3
95444.6
95162.1
94836.8
94458
94046.4
93609.9
93129.4
92636.4
92147.6
91627.1
91089.4
90564.6
90058.7
89571.8
89103.5
88673.5
88299.4
87982.4
87725.8
87523.6
87361.7
87262.6
87235.7
87223.7
87272.2
87330.2
87394
87457.7
87515.7
87572.1
87640.1
87699.8
87753
87819
87888.2
87957.1
88031
88090.4
88187.7
88355.9
88561
88804.4
89066.1
89417.5
89856.5
90327.1
90865.9
91414.6
91922.9
92383.9
92730.5
100342
100355
100369
100387
100408
100429
100454
100482
100511
100542
100572
100602
100632
100661
100690
100718
100744
100770
100794
100816
100836
100853
100868
100880
100888
100892
100893
100890
100882
100870
100853
100831
100804
100771
100732
100686
100632
100571
100503
100426
100343
100252
100154
100048
99936
99816.6
99691.8
99563.5
99431.8
99296.3
99156.9
99014
98870
98725.5
98580.5
98436.3
98292.4
98148.2
98006
97866.2
97727.6
97592.6
97461.4
97334
97210.8
97091.3
96977.6
96867
96756.9
96649
96543.3
96438.2
96338
96244.6
96153.2
96058.5
95958.2
95855.9
95753.6
95652.3
95551.9
95450
95347.6
95246.6
95148.7
95053.3
94958.8
94864.1
94770.7
94680.5
94594.8
94515.8
94451.1
94399.2
94354.1
94313.1
94282.1
94262.9
94262.9
94250.4
94284.2
94330.1
94386.4
94453.5
94526.2
94612.7
94710.8
94824
94948.2
95087
95236.3
95389.8
95551
95722.4
95898
96064.8
96212.5
96346.3
96474.3
96592.8
96713.1
96817.6
96887.2
96925.3
96937.1
96896.5
96808.3
96677.8
96495.3
96246.5
95950.2
95615.4
95228.7
94807.6
94363.2
93880.7
93379.7
92888.8
92376.9
91844.6
91324.4
90818.3
90334.6
89861.5
89429.1
89042.1
88712.9
88441.1
88234.1
88060
87949
87913
87901.4
87928.6
87970.7
88007.4
88047.9
88083.9
88124.9
88181.4
88232.6
88282.8
88354.6
88427.8
88496.5
88560.6
88635.2
88763.4
88938.6
89127.7
89348
89632.8
90036
90525.6
91027.4
91594.9
92137.2
92654.9
93110.8
93447.7
99494.8
99510
99528
99551.9
99581
99612.6
99645.9
99682.3
99722
99764.1
99807.8
99852.9
99898.8
99944.9
99990.8
100036
100081
100125
100168
100209
100249
100287
100324
100358
100389
100418
100443
100464
100482
100496
100506
100511
100511
100505
100493
100474
100448
100415
100374
100325
100270
100206
100135
100057
99972.1
99880.1
99782.5
99680.6
99574.2
99462.7
99347
99228.1
99107.4
98986.1
98863.4
98740.3
98617.3
98493.6
98370.4
98249.7
98130.9
98014.2
97901.3
97790.6
97684.7
97581.7
97483.4
97391
97298.9
97207.7
97120.3
97033.3
96947.9
96868.9
96794
96716.4
96632.1
96541.8
96450
96359.4
96269.9
96179.6
96087.9
95996.4
95907.7
95820.1
95731.5
95642.9
95555.3
95470.8
95391.4
95319.8
95257.3
95205.5
95162.5
95125.9
95097.8
95080.7
95085.9
95091.6
95122.5
95167.5
95227.2
95297.7
95375.8
95465.8
95569.6
95686.5
95816.4
95962
96116.6
96273.8
96437.7
96613.4
96785.5
96948.3
97090.6
97219.5
97347
97474.1
97595.2
97695.8
97760.8
97797.6
97800
97749.5
97654.7
97515.2
97329.4
97075.3
96772.6
96427.5
96034.8
95607
95153
94669.5
94163.3
93668.5
93162.4
92642.4
92128.5
91627.9
91144.9
90673
90237.7
89840.8
89499.2
89204.5
88987.2
88811.3
88692.5
88643.4
88625.9
88626
88641.7
88651.5
88664.7
88683.3
88711.3
88758.1
88800.5
88853.7
88928.5
89008.5
89074.4
89142.4
89239.1
89377.5
89527.5
89712.4
89954.2
90295.9
90743.1
91269.7
91802.5
92389.6
92929.9
93462.5
93903.2
94235.7
98673.3
98690.2
98713.7
98743.9
98782.2
98825.1
98870.3
98918.2
98968.6
99021.8
99077.3
99135
99194.8
99256.6
99319.5
99382.8
99446
99508.7
99570.6
99631.3
99690.5
99748.4
99804.7
99858.9
99910.6
99959.9
100007
100051
100092
100130
100164
100193
100217
100236
100248
100254
100253
100245
100230
100207
100177
100140
100094
100042
99982.1
99915.7
99843.4
99765.8
99683
99594.8
99502
99406.5
99308.9
99209.7
99108.6
99005.7
98902.4
98798.8
98695.3
98593.3
98493.7
98395.6
98301.3
98208.6
98119.3
98034
97951
97874.7
97801.7
97727.8
97657.6
97590.3
97522.5
97457
97396.7
97336.8
97270.8
97196.2
97117.4
97038.5
96959.8
96881.4
96801
96720.5
96642.2
96563.9
96484
96403.9
96325.4
96248.9
96178.8
96119.4
96061.3
96013.8
95974.9
95947.1
95925.4
95910.1
95916.9
95935.2
95972.2
96019.2
96082.5
96157.7
96242.7
96340.4
96452.4
96577.7
96715.7
96869.1
97028.3
97191.5
97360
97534.6
97705.2
97862
98000.1
98133.5
98265
98397.9
98515.8
98606.4
98668.2
98700.8
98684.9
98623.3
98519.2
98369.8
98178.6
97923.3
97618
97264.6
96869.1
96435.9
95975.9
95489.1
94980.4
94483.2
93981.1
93472.9
92968.5
92484.6
91999.9
91534.8
91091.9
90704.3
90346.6
90030.4
89797.5
89618
89495.4
89427.6
89389.5
89358.4
89341.3
89325.6
89312.8
89315.1
89335.8
89368.6
89407.6
89467.2
89547.2
89628.8
89694.5
89778.3
89891.1
90021.8
90156.1
90355.9
90666.5
91073.7
91537.5
92065.2
92636.5
93242.9
93803.5
94347
94767.8
95088.8
97875.2
97894.2
97922.8
97961.9
98012.5
98067.3
98126.7
98189.8
98254.8
98321.8
98390.8
98461.6
98534.3
98608.8
98685.4
98763.5
98842.7
98922
99001.3
99080.6
99158.5
99235.2
99310.1
99383.3
99454.6
99524.1
99591.6
99656.5
99718.3
99776.5
99830.6
99880.4
99925.6
99966
100001
100029
100051
100066
100074
100074
100067
100052
100031
100002
99965.3
99922
99872.6
99817.2
99755.9
99689.6
99619.3
99546
99469.9
99390.8
99309.7
99226.4
99142.4
99058.1
98973.8
98890.7
98809.7
98729.7
98652.5
98578.2
98505.2
98437.4
98371.6
98310.2
98255.7
98200.3
98146.5
98097.7
98049.3
98000.2
97953.8
97909.6
97862.1
97806.5
97742.9
97676
97610.1
97544.4
97476.7
97409
97342.6
97276.5
97207.6
97138.9
97071.1
97008.4
96950
96903.6
96845
96809.9
96780.8
96759.1
96746.3
96742.3
96756.8
96785
96831.8
96887.3
96956
97035.4
97126.7
97234.2
97355.2
97488.8
97635.2
97794.9
97960
98128.4
98303.6
98474.9
98645.6
98799.7
98934.9
99075.5
99212.8
99345.8
99459.8
99547.1
99606.6
99624.7
99589.1
99519
99404.9
99246.8
99046.9
98791.5
98482.4
98124.5
97727.4
97288.5
96826.9
96335.4
95827.9
95329
94832.6
94328.9
93841.3
93370
92899.1
92446.1
91996.3
91625.2
91254
90928.4
90675.7
90488.1
90352.4
90259.5
90188.5
90122.1
90071.5
90027.1
89993.4
89980.7
89994
90011.1
90056.6
90127
90206.5
90289.6
90363.4
90460.9
90588.8
90720.6
90865.4
91097.5
91473
91940.1
92417.5
92940.9
93543.3
94157.5
94738.7
95286.5
95691
95996
97215.5
97238.5
97271.7
97320
97387.3
97458.2
97535.6
97612.1
97689.3
97767.2
97848.4
97933.2
98020.2
98108
98196.5
98286.1
98376.9
98468.8
98560.5
98651.2
98742
98832
98921
99008.6
99094.5
99178.4
99260
99338.8
99414.1
99486.9
99556.8
99623.1
99684.5
99740.9
99791.5
99835.8
99873.8
99905.2
99929.9
99947.5
99958.1
99961.6
99957.7
99946.4
99928
99902.7
99870.6