/*--------------------------------*- C++ -*----------------------------------*\
| =========                 |                                                 |
| \\      /  F ield         | OpenFOAM: The Open Source CFD Toolbox           |
|  \\    /   O peration     | Version:  dev                                   |
|   \\  /    A nd           | Web:      http://www.openfoam.org               |
|    \\/     M anipulation  |                                                 |
\*---------------------------------------------------------------------------*/
FoamFile
{
    version     2.0;
    format      ascii;
    class       surfaceScalarField;
    object      phi;
    location    "9.13";
}
// * * * * * * * * * * * * * * * * * * * * * * * * * * * * * * * * * * * * * //

dimensions      [1 0 -1 0 0 0 0];

internalField   nonuniform List<scalar> 
24170
(
2.43096e-06
5.29988e-07
1.95726e-06
1.90082e-07
1.88139e-06
-2.16503e-07
2.0269e-06
-4.27708e-07
2.1213e-06
-3.75449e-07
2.30141e-06
-4.47905e-07
2.32512e-06
-2.88039e-07
2.54409e-06
-4.73129e-07
2.53686e-06
-2.46475e-07
2.78468e-06
-4.96965e-07
2.65922e-06
-1.28007e-07
3.1301e-06
-7.23066e-07
2.63986e-06
2.29911e-07
3.48308e-06
-1.10875e-06
3.35952e-06
-1.41635e-07
3.6849e-06
-6.44331e-07
5.61164e-06
-2.24004e-06
6.13327e-07
4.68306e-06
4.17357e-06
-3.99576e-07
3.99637e-06
-4.01367e-08
3.95776e-06
-5.74816e-07
4.03195e-06
-8.8805e-07
4.10799e-06
-8.27697e-07
4.30811e-06
-1.01544e-06
4.44925e-06
-7.85635e-07
4.75121e-06
-1.12392e-06
4.95564e-06
-7.92872e-07
5.18859e-06
-1.06651e-06
5.48211e-06
-7.57098e-07
5.87934e-06
-1.44771e-06
5.92099e-06
-1.51766e-07
7.25211e-06
-2.77598e-06
6.26383e-06
5.42393e-07
9.66579e-06
-4.47591e-06
7.13089e-06
-8.12603e-08
-3.03252e-06
1.04652e-05
4.92904e-06
-1.72156e-06
5.18782e-06
-7.4754e-07
5.44518e-06
-1.26724e-06
5.68134e-06
-1.54773e-06
5.80991e-06
-1.36872e-06
6.06714e-06
-1.67685e-06
6.19814e-06
-1.31007e-06
6.56771e-06
-1.87896e-06
6.77723e-06
-1.38146e-06
7.24637e-06
-1.90713e-06
7.33879e-06
-1.22354e-06
8.22852e-06
-2.6998e-06
7.75849e-06
-5.59811e-08
9.3785e-06
-4.76044e-06
8.60478e-06
9.32653e-07
1.10316e-05
-7.23916e-06
1.10813e-05
-5.49298e-07
-5.25872e-06
1.28115e-05
5.2172e-06
-2.95482e-06
6.00531e-06
-2.02481e-06
6.44915e-06
-2.18462e-06
7.11559e-06
-2.67575e-06
7.30339e-06
-2.0062e-06
7.90345e-06
-2.71541e-06
8.06822e-06
-1.90433e-06
8.5756e-06
-2.80571e-06
8.76085e-06
-1.98119e-06
9.41006e-06
-2.95851e-06
9.34476e-06
-1.56898e-06
1.03667e-05
-4.11567e-06
1.0052e-05
-1.47554e-07
1.12767e-05
-6.381e-06
1.16796e-05
9.53304e-08
1.19846e-05
-7.9102e-06
1.19117e-05
-9.44119e-07
-7.76882e-06
1.3793e-05
5.57261e-06
-4.28382e-06
6.86537e-06
-3.84919e-06
7.33823e-06
-3.17184e-06
8.26061e-06
-4.0994e-06
8.55986e-06
-2.79466e-06
9.2982e-06
-3.92967e-06
9.60028e-06
-2.6719e-06
1.02242e-05
-3.88567e-06
1.02225e-05
-2.42887e-06
1.10966e-05
-4.26885e-06
1.10528e-05
-1.96709e-06
1.1689e-05
-5.18025e-06
1.20165e-05
-9.18944e-07
1.177e-05
-6.57508e-06
1.26846e-05
-1.22677e-06
1.28076e-05
-8.52127e-06
1.05802e-05
8.00212e-07
-9.83734e-06
1.21317e-05
6.08912e-06
-5.61831e-06
7.39038e-06
-5.72268e-06
7.9472e-06
-4.28268e-06
8.72429e-06
-5.41697e-06
9.18308e-06
-3.78097e-06
9.95528e-06
-5.21559e-06
1.02644e-05
-3.48428e-06
1.09348e-05
-5.04659e-06
1.08062e-05
-2.78589e-06
1.17721e-05
-5.70766e-06
1.1694e-05
-2.36428e-06
1.23434e-05
-6.29587e-06
1.27193e-05
-1.77124e-06
1.2321e-05
-6.63939e-06
1.26061e-05
-1.98719e-06
1.3261e-05
-9.62235e-06
1.13595e-05
2.26314e-06
-1.20511e-05
1.30049e-05
6.78925e-06
-7.11506e-06
7.76845e-06
-7.30926e-06
8.4483e-06
-5.55517e-06
9.20955e-06
-6.75395e-06
9.79017e-06
-4.92444e-06
1.04503e-05
-6.42173e-06
1.08839e-05
-4.45687e-06
1.13499e-05
-6.0368e-06
1.15764e-05
-3.53152e-06
1.21486e-05
-6.78782e-06
1.22301e-05
-2.95545e-06
1.30295e-05
-7.59198e-06
1.32155e-05
-2.46889e-06
1.35677e-05
-7.47204e-06
1.39013e-05
-2.86377e-06
1.34913e-05
-9.6661e-06
1.60515e-05
-7.27861e-07
-1.02457e-05
1.35983e-05
5.27197e-06
-8.26473e-06
6.07401e-06
-8.56403e-06
6.56496e-06
-6.48958e-06
7.21352e-06
-7.83347e-06
7.71877e-06
-5.85214e-06
8.13818e-06
-7.25072e-06
8.5522e-06
-5.27478e-06
8.86022e-06
-6.73862e-06
9.31016e-06
-4.37196e-06
9.55675e-06
-7.41659e-06
9.87105e-06
-3.65239e-06
1.01714e-05
-8.26683e-06
1.06169e-05
-3.29558e-06
1.09015e-05
-8.13423e-06
1.1483e-05
-3.81338e-06
1.04378e-05
-9.02287e-06
1.3029e-05
-3.67376e-06
-7.48589e-06
9.90854e-06
6.32689e-06
-9.65879e-06
7.18155e-06
-9.92386e-06
7.8405e-06
-7.6415e-06
8.40191e-06
-8.8737e-06
9.1141e-06
-7.03455e-06
9.58246e-06
-8.17759e-06
1.01393e-05
-6.28011e-06
1.05793e-05
-7.61817e-06
1.11391e-05
-5.36793e-06
1.14871e-05
-8.19096e-06
1.19355e-05
-4.52601e-06
1.18623e-05
-8.61224e-06
1.25983e-05
-4.45085e-06
1.24412e-05
-8.4068e-06
1.29846e-05
-4.76098e-06
1.19199e-05
-8.38217e-06
1.35434e-05
-5.71202e-06
-6.37375e-06
1.20516e-05
7.50732e-06
-1.13058e-05
8.44411e-06
-1.14126e-05
9.22683e-06
-8.96262e-06
9.90071e-06
-1.00702e-05
1.05552e-05
-8.20195e-06
1.11319e-05
-9.25812e-06
1.17408e-05
-7.38144e-06
1.2236e-05
-8.59542e-06
1.29206e-05
-6.5321e-06
1.30976e-05
-8.83759e-06
1.38883e-05
-5.78093e-06
1.36766e-05
-8.86329e-06
1.45384e-05
-5.77064e-06
1.40814e-05
-8.41316e-06
1.48748e-05
-6.01223e-06
1.39307e-05
-7.89449e-06
1.48274e-05
-7.0628e-06
-6.23222e-06
1.42582e-05
8.73691e-06
-1.31254e-05
9.67337e-06
-1.29297e-05
1.06239e-05
-1.04814e-05
1.14981e-05
-1.14962e-05
1.23654e-05
-9.61329e-06
1.30781e-05
-1.05016e-05
1.38703e-05
-8.69966e-06
1.44549e-05
-9.69365e-06
1.52801e-05
-7.86789e-06
1.54307e-05
-9.49329e-06
1.63733e-05
-7.22223e-06
1.62004e-05
-9.18706e-06
1.70664e-05
-7.12971e-06
1.677e-05
-8.61032e-06
1.7474e-05
-7.20859e-06
1.71244e-05
-8.03771e-06
1.72657e-05
-7.68874e-06
-6.73324e-06
1.72946e-05
1.02883e-05
-1.52945e-05
1.12119e-05
-1.44357e-05
1.25428e-05
-1.23786e-05
1.33997e-05
-1.29069e-05
1.45761e-05
-1.13378e-05
1.5291e-05
-1.17558e-05
1.62769e-05
-1.02172e-05
1.68571e-05
-1.07963e-05
1.77567e-05
-9.2878e-06
1.79694e-05
-1.0222e-05
1.88992e-05
-8.66748e-06
1.88294e-05
-9.63119e-06
1.96524e-05
-8.46401e-06
1.95664e-05
-9.03671e-06
2.00586e-05
-8.21175e-06
1.98892e-05
-8.37805e-06
1.98809e-05
-8.18539e-06
-7.58576e-06
2.02352e-05
1.20337e-05
-1.72863e-05
1.31774e-05
-1.60957e-05
1.45741e-05
-1.42799e-05
1.56091e-05
-1.44396e-05
1.69061e-05
-1.31346e-05
1.77695e-05
-1.31194e-05
1.89695e-05
-1.19129e-05
1.96807e-05
-1.19991e-05
2.07973e-05
-1.08955e-05
2.11646e-05
-1.10862e-05
2.2125e-05
-1.01253e-05
2.23276e-05
-1.03333e-05
2.29915e-05
-9.62848e-06
2.30271e-05
-9.57639e-06
2.34803e-05
-9.16779e-06
2.35081e-05
-8.91001e-06
2.34758e-05
-8.65728e-06
-8.19094e-06
2.35817e-05
1.39596e-05
-1.97267e-05
1.53122e-05
-1.78079e-05
1.70897e-05
-1.64096e-05
1.83165e-05
-1.60183e-05
1.97546e-05
-1.49334e-05
2.08208e-05
-1.45607e-05
2.2058e-05
-1.35345e-05
2.29095e-05
-1.3249e-05
2.40304e-05
-1.24199e-05
2.46061e-05
-1.20785e-05
2.55218e-05
-1.14674e-05
2.59355e-05
-1.11842e-05
2.65707e-05
-1.07072e-05
2.6908e-05
-1.03637e-05
2.72444e-05
-9.96253e-06
2.74318e-05
-9.55825e-06
2.75386e-05
-9.22466e-06
-8.71765e-06
2.75969e-05
1.62523e-05
-2.23025e-05
1.81563e-05
-1.97428e-05
2.00445e-05
-1.83317e-05
2.15429e-05
-1.75709e-05
2.3159e-05
-1.66328e-05
2.44392e-05
-1.59556e-05
2.58734e-05
-1.51125e-05
2.69844e-05
-1.45401e-05
2.82002e-05
-1.38427e-05
2.91162e-05
-1.32274e-05
3.00235e-05
-1.26334e-05
3.0691e-05
-1.21342e-05
3.12823e-05
-1.16036e-05
3.16988e-05
-1.11031e-05
3.20068e-05
-1.06083e-05
3.22348e-05
-1.01444e-05
3.23208e-05
-9.67824e-06
-9.1842e-06
3.24172e-05
1.90073e-05
-2.43912e-05
2.10849e-05
-2.12268e-05
2.31807e-05
-1.98677e-05
2.51779e-05
-1.90634e-05
2.71724e-05
-1.81895e-05
2.89949e-05
-1.74091e-05
3.07359e-05
-1.65529e-05
3.21707e-05
-1.57439e-05
3.34657e-05
-1.49709e-05
3.45421e-05
-1.41918e-05
3.54488e-05
-1.34806e-05
3.619e-05
-1.28624e-05
3.68149e-05
-1.22622e-05
3.73115e-05
-1.16776e-05
3.77209e-05
-1.11323e-05
3.80332e-05
-1.06017e-05
3.82269e-05
-1.00492e-05
-9.48917e-06
3.83235e-05
2.22706e-05
-2.59475e-05
2.5002e-05
-2.22802e-05
2.76403e-05
-2.0921e-05
3.0092e-05
-2.00468e-05
3.23938e-05
-1.9152e-05
3.44897e-05
-1.82946e-05
3.64022e-05
-1.73836e-05
3.80985e-05
-1.64866e-05
3.95428e-05
-1.55854e-05
4.08194e-05
-1.47461e-05
4.19159e-05
-1.39603e-05
4.28236e-05
-1.32476e-05
4.35715e-05
-1.25767e-05
4.4193e-05
-1.19454e-05
4.46795e-05
-1.13399e-05
4.50616e-05
-1.07745e-05
4.53715e-05
-1.02055e-05
-9.61551e-06
4.56005e-05
2.25914e-05
-2.56995e-05
2.56704e-05
-2.2457e-05
2.86419e-05
-2.11496e-05
3.13049e-05
-2.01511e-05
3.36424e-05
-1.9125e-05
3.56864e-05
-1.81689e-05
3.7539e-05
-1.72594e-05
3.92389e-05
-1.63989e-05
4.0761e-05
-1.55064e-05
4.21464e-05
-1.46961e-05
4.3385e-05
-1.39198e-05
4.4429e-05
-1.31562e-05
4.52824e-05
-1.24273e-05
4.59549e-05
-1.17408e-05
4.64886e-05
-1.11071e-05
4.68706e-05
-1.0493e-05
4.7127e-05
-9.89214e-06
-9.32162e-06
4.73182e-05
2.06576e-05
-2.42475e-05
2.32806e-05
-2.14408e-05
2.58768e-05
-2.02851e-05
2.83204e-05
-1.93508e-05
3.05512e-05
-1.83439e-05
3.25476e-05
-1.73858e-05
3.4335e-05
-1.64973e-05
3.59406e-05
-1.568e-05
3.73251e-05
-1.47908e-05
3.85495e-05
-1.40215e-05
3.96635e-05
-1.33188e-05
4.06038e-05
-1.25568e-05
4.13928e-05
-1.18324e-05
4.20286e-05
-1.1143e-05
4.25052e-05
-1.04833e-05
4.28642e-05
-9.87449e-06
4.3132e-05
-9.29537e-06
-8.74455e-06
4.33192e-05
1.80866e-05
-2.23237e-05
2.06346e-05
-1.99158e-05
2.31705e-05
-1.89357e-05
2.55183e-05
-1.80434e-05
2.76703e-05
-1.70895e-05
2.96214e-05
-1.61859e-05
3.13502e-05
-1.53279e-05
3.2835e-05
-1.45118e-05
3.4138e-05
-1.36743e-05
3.51965e-05
-1.2885e-05
3.60905e-05
-1.22244e-05
3.68444e-05
-1.15171e-05
3.74703e-05
-1.08396e-05
3.79781e-05
-1.01973e-05
3.83969e-05
-9.59771e-06
3.873e-05
-9.03894e-06
3.89839e-05
-8.50665e-06
-8.00768e-06
3.91792e-05
1.64946e-05
-2.02642e-05
1.86801e-05
-1.78158e-05
2.08059e-05
-1.69744e-05
2.28903e-05
-1.62844e-05
2.48944e-05
-1.55052e-05
2.67219e-05
-1.4688e-05
2.83407e-05
-1.38824e-05
2.97287e-05
-1.30941e-05
3.09166e-05
-1.22988e-05
3.19542e-05
-1.1586e-05
3.28345e-05
-1.09854e-05
3.3573e-05
-1.03366e-05
3.41732e-05
-9.70768e-06
3.4657e-05
-9.11809e-06
3.50357e-05
-8.56984e-06
3.53236e-05
-8.06277e-06
3.55265e-05
-7.57451e-06
-7.13028e-06
3.56656e-05
1.4701e-05
-1.76819e-05
1.69304e-05
-1.57528e-05
1.90546e-05
-1.49978e-05
2.09952e-05
-1.4367e-05
2.27425e-05
-1.36504e-05
2.42777e-05
-1.28803e-05
2.56313e-05
-1.21533e-05
2.68151e-05
-1.14468e-05
2.78733e-05
-1.07671e-05
2.88343e-05
-1.0183e-05
2.96289e-05
-9.63396e-06
3.02897e-05
-9.05296e-06
3.08367e-05
-8.49711e-06
3.12792e-05
-7.97312e-06
3.1622e-05
-7.48157e-06
3.18772e-05
-7.02892e-06
3.20652e-05
-6.60217e-06
-6.21316e-06
3.21904e-05
1.33791e-05
-1.5107e-05
1.51925e-05
-1.34005e-05
1.70326e-05
-1.2858e-05
1.87509e-05
-1.23362e-05
2.03218e-05
-1.1723e-05
2.17576e-05
-1.10714e-05
2.30398e-05
-1.04436e-05
2.41809e-05
-9.83737e-06
2.52027e-05
-9.26779e-06
2.60964e-05
-8.77566e-06
2.68007e-05
-8.24732e-06
2.73905e-05
-7.74817e-06
2.78709e-05
-7.26078e-06
2.82642e-05
-6.81551e-06
2.85878e-05
-6.40495e-06
2.88439e-05
-6.02214e-06
2.90434e-05
-5.66419e-06
-5.3273e-06
2.91818e-05
1.18792e-05
-1.2429e-05
1.35567e-05
-1.11303e-05
1.52823e-05
-1.08131e-05
1.69156e-05
-1.04178e-05
1.83948e-05
-9.88462e-06
1.97088e-05
-9.30554e-06
2.08619e-05
-8.74944e-06
2.18679e-05
-8.22613e-06
2.27776e-05
-7.77993e-06
2.35302e-05
-7.34385e-06
2.41613e-05
-6.89422e-06
2.47046e-05
-6.49088e-06
2.51599e-05
-6.08643e-06
2.55232e-05
-5.70333e-06
2.58078e-05
-5.35668e-06
2.60243e-05
-5.03554e-06
2.6182e-05
-4.73642e-06
-4.457e-06
2.62885e-05
1.05478e-05
-9.94899e-06
1.23264e-05
-9.23478e-06
1.40087e-05
-8.9865e-06
1.55341e-05
-8.63461e-06
1.68988e-05
-8.15423e-06
1.80512e-05
-7.58394e-06
1.90274e-05
-7.07106e-06
1.98928e-05
-6.65045e-06
2.06366e-05
-6.29257e-06
2.12797e-05
-5.954e-06
2.18587e-05
-5.62475e-06
2.23204e-05
-5.27592e-06
2.26902e-05
-4.93605e-06
2.29718e-05
-4.60973e-06
2.31716e-05
-4.31292e-06
2.33099e-05
-4.05054e-06
2.3398e-05
-3.81119e-06
-3.5957e-06
2.34504e-05
9.4956e-06
-7.84546e-06
1.10702e-05
-7.43155e-06
1.25129e-05
-7.19609e-06
1.38225e-05
-6.89964e-06
1.5024e-05
-6.51224e-06
1.60989e-05
-6.01834e-06
1.7022e-05
-5.55655e-06
1.78117e-05
-5.20209e-06
1.84631e-05
-4.89672e-06
1.90205e-05
-4.64495e-06
1.95127e-05
-4.4192e-06
1.99132e-05
-4.13487e-06
2.0246e-05
-3.87177e-06
2.05016e-05
-3.60049e-06
2.06904e-05
-3.35855e-06
2.08255e-05
-3.15282e-06
2.09132e-05
-2.96686e-06
-2.79724e-06
2.09549e-05
8.61404e-06
-6.04777e-06
1.0118e-05
-5.86564e-06
1.14292e-05
-5.57101e-06
1.2552e-05
-5.25694e-06
1.35227e-05
-4.89951e-06
1.43846e-05
-4.48201e-06
1.51408e-05
-4.09932e-06
1.57804e-05
-3.80889e-06
1.63114e-05
-3.56813e-06
1.67523e-05
-3.38967e-06
1.7079e-05
-3.20248e-06
1.73429e-05
-2.9973e-06
1.75376e-05
-2.79572e-06
1.76823e-05
-2.59468e-06
1.77752e-05
-2.41104e-06
1.78166e-05
-2.25428e-06
1.78218e-05
-2.12369e-06
-1.99596e-06
1.77854e-05
7.78078e-06
-4.30199e-06
9.12992e-06
-4.44718e-06
1.02005e-05
-3.99441e-06
1.10272e-05
-3.59059e-06
1.16865e-05
-3.23044e-06
1.22664e-05
-2.90093e-06
1.27433e-05
-2.58147e-06
1.31592e-05
-2.39228e-06
1.34924e-05
-2.22422e-06
1.37311e-05
-2.09807e-06
1.38957e-05
-1.97464e-06
1.40072e-05
-1.84436e-06
1.40753e-05
-1.71751e-06
1.40969e-05
-1.57839e-06
1.40897e-05
-1.46546e-06
1.40517e-05
-1.36872e-06
1.3982e-05
-1.28871e-06
-1.20989e-06
1.38868e-05
6.86699e-06
-2.72687e-06
7.5501e-06
-2.65194e-06
8.02706e-06
-2.10158e-06
8.3821e-06
-1.71312e-06
8.67518e-06
-1.43846e-06
8.98051e-06
-1.27141e-06
9.31994e-06
-1.13552e-06
9.62105e-06
-1.05328e-06
9.88187e-06
-9.84188e-07
1.00824e-05
-9.29657e-07
1.02301e-05
-8.76686e-07
1.03327e-05
-8.15484e-07
1.0402e-05
-7.60901e-07
1.04563e-05
-7.03426e-07
1.04819e-05
-6.50465e-07
1.0474e-05
-6.00704e-07
1.04523e-05
-5.80155e-07
-5.31206e-07
1.03948e-05
4.77779e-06
4.34419e-06
4.35151e-06
4.62066e-06
5.0321e-06
5.47641e-06
5.92455e-06
6.32611e-06
6.67333e-06
6.95822e-06
7.18691e-06
7.37531e-06
7.52449e-06
7.64493e-06
7.73949e-06
7.81187e-06
7.83999e-06
7.85861e-06
1.3705e-07
9.76482e-07
2.99928e-07
1.00036e-06
4.48691e-07
1.01244e-06
6.01026e-07
1.00241e-06
7.49529e-07
1.007e-06
8.86962e-07
1.01779e-06
9.95776e-07
1.04147e-06
1.06152e-06
1.07579e-06
1.10845e-06
1.0832e-06
1.16935e-06
1.05709e-06
1.24886e-06
1.02484e-06
1.29331e-06
1.04423e-06
1.2771e-06
1.08635e-06
1.20003e-06
1.12667e-06
1.05927e-06
1.16795e-06
8.27538e-07
1.23575e-06
4.01936e-07
1.40604e-06
-1.53142e-07
1.5105e-06
-8.04333e-07
1.57966e-06
-1.60186e-06
1.69723e-06
-2.46192e-06
1.72985e-06
-3.27693e-06
1.65531e-06
-4.01624e-06
1.55073e-06
-4.74056e-06
1.50262e-06
-5.45434e-06
1.45722e-06
-6.16333e-06
1.41669e-06
-6.85748e-06
1.36545e-06
-7.54092e-06
1.31763e-06
-8.20532e-06
1.26125e-06
-8.83081e-06
1.18526e-06
-9.4201e-06
1.11144e-06
-9.96225e-06
1.02707e-06
-1.04602e-05
9.46022e-07
-1.09204e-05
8.72468e-07
-1.13491e-05
8.06049e-07
-1.17397e-05
7.34583e-07
-1.20888e-05
6.61227e-07
-1.23786e-05
5.71756e-07
-1.25953e-05
4.70165e-07
-1.27562e-05
3.87561e-07
-1.28783e-05
3.23976e-07
-1.29631e-05
2.64795e-07
-1.30345e-05
2.33302e-07
-1.3089e-05
2.02657e-07
-1.31224e-05
1.71439e-07
-1.31122e-05
1.20657e-07
-1.30218e-05
3.51751e-08
-1.28412e-05
-5.80046e-08
-1.25863e-05
-1.33727e-07
-1.22996e-05
-1.66141e-07
-1.20527e-05
-1.22984e-07
-1.18622e-05
-5.66012e-08
-1.16841e-05
-2.94483e-08
-1.15099e-05
-1.09149e-08
-1.13653e-05
3.42698e-08
-1.1296e-05
1.30746e-07
-1.12643e-05
1.95016e-07
-1.12885e-05
2.7874e-07
-1.13413e-05
3.37565e-07
-1.13914e-05
3.70526e-07
-1.14818e-05
4.47254e-07
-1.1672e-05
5.74983e-07
-1.19089e-05
6.41439e-07
-1.20877e-05
6.07175e-07
-1.22082e-05
5.82472e-07
-1.23291e-05
6.20658e-07
-1.25359e-05
7.41613e-07
-1.27586e-05
7.94219e-07
-1.28904e-05
7.53724e-07
-1.29203e-05
7.07622e-07
-1.30719e-05
8.73689e-07
-1.33979e-05
1.08005e-06
-1.37703e-05
1.16048e-06
-1.40185e-05
1.07866e-06
-1.40053e-05
8.64046e-07
-1.35877e-05
5.0922e-07
-1.27279e-05
1.39758e-07
-1.17239e-05
1.18871e-07
-1.10302e-05
5.5098e-07
-1.09573e-05
1.20406e-06
-1.1165e-05
1.4416e-06
-1.12165e-05
1.27429e-06
-1.10083e-05
1.06062e-06
-1.02879e-05
6.12188e-07
-9.03011e-06
1.65595e-07
-7.61554e-06
1.07021e-07
-6.33887e-06
3.44315e-07
-5.30104e-06
6.29989e-07
-4.87023e-06
1.21935e-06
-5.19646e-06
1.96181e-06
-6.26931e-06
2.72427e-06
-7.71674e-06
3.17129e-06
-9.17687e-06
3.27099e-06
-1.04158e-05
3.05946e-06
-1.14361e-05
2.85589e-06
-1.22022e-05
2.6736e-06
-1.25412e-05
2.2452e-06
-1.23289e-05
1.5981e-06
-1.19188e-05
1.34867e-06
-1.16768e-05
1.54003e-06
-1.18398e-05
1.99002e-06
-1.22602e-05
2.28921e-06
-1.2542e-05
2.20152e-06
-1.20396e-05
1.46795e-06
-1.036e-05
2.57108e-07
-8.30881e-06
-2.79768e-07
-7.25702e-06
5.84548e-07
-7.59743e-06
2.12471e-06
-6.02436e-06
5.35625e-07
-1.3937e-06
-2.77056e-06
-2.45968e-07
6.53008e-07
1.8174e-07
1.44614e-06
1.29166e-06
7.91275e-07
2.29556e-06
9.30765e-07
3.41097e-06
8.52969e-07
4.44987e-06
9.66272e-07
5.38626e-06
1.104e-06
6.17211e-06
1.28869e-06
6.84649e-06
1.42937e-06
7.31593e-06
1.66045e-06
7.62196e-06
1.84598e-06
7.83309e-06
1.95456e-06
7.95076e-06
2.05054e-06
7.93775e-06
2.17398e-06
7.80316e-06
2.28189e-06
7.55908e-06
2.36525e-06
7.20727e-06
2.43156e-06
6.70514e-06
2.53295e-06
6.04314e-06
2.64639e-06
5.32635e-06
2.65808e-06
4.46546e-06
2.75766e-06
3.59489e-06
2.71451e-06
2.78166e-06
2.59515e-06
1.94841e-06
2.56478e-06
1.14248e-06
2.48868e-06
3.51304e-07
2.43548e-06
-4.36586e-07
2.41223e-06
-1.17135e-06
2.35359e-06
-1.68036e-06
2.14231e-06
-2.17283e-06
2.16013e-06
-2.72854e-06
2.27255e-06
-3.32148e-06
2.37613e-06
-3.91328e-06
2.46486e-06
-4.31108e-06
2.37763e-06
-4.4534e-06
2.24825e-06
-4.32081e-06
2.1153e-06
-4.32891e-06
2.41589e-06
-5.02472e-06
3.27977e-06
-6.43937e-06
4.1875e-06
-8.16186e-06
4.69998e-06
-9.93277e-06
4.98027e-06
-1.13276e-05
4.80899e-06
-1.2013e-05
4.32523e-06
-1.23937e-05
4.19686e-06
-1.22603e-05
3.88635e-06
-1.16018e-05
3.52598e-06
-1.0344e-05
3.07493e-06
-8.9107e-06
2.93834e-06
-7.12039e-06
2.6237e-06
-5.8772e-06
3.1828e-06
-4.39653e-06
2.91168e-06
-1.97098e-06
2.03249e-06
-2.89362e-07
2.70585e-06
2.30872e-06
1.7007e-06
4.89019e-06
1.70047e-06
6.20724e-06
2.89065e-06
7.13926e-06
3.20232e-06
7.73354e-06
3.44036e-06
8.12741e-06
3.55346e-06
8.37899e-06
3.59813e-06
8.63708e-06
3.50797e-06
9.05287e-06
3.24552e-06
9.72781e-06
2.87731e-06
1.03628e-05
2.79429e-06
1.11562e-05
2.52147e-06
1.18157e-05
2.54815e-06
1.25708e-05
2.30689e-06
1.31421e-05
2.29358e-06
1.34863e-05
2.2893e-06
2.55677e-06
1.33239e-05
2.36602e-08
2.02529e-06
4.6931e-08
2.09306e-06
1.33571e-08
2.14611e-06
-3.90814e-08
2.1589e-06
-8.17051e-08
2.16192e-06
-1.47349e-07
2.19508e-06
-2.02869e-07
2.20802e-06
-1.80606e-07
2.16488e-06
-1.329e-07
2.14054e-06
-1.77038e-07
2.19689e-06
-3.32121e-07
2.26164e-06
-5.70096e-07
2.3506e-06
-9.60604e-07
2.52773e-06
-1.54026e-06
2.7362e-06
-2.33979e-06
2.97823e-06
-3.27628e-06
3.16061e-06
-4.20308e-06
3.29939e-06
-5.02347e-06
3.27312e-06
-5.68649e-06
3.16096e-06
-6.24199e-06
3.13866e-06
-6.80065e-06
3.14422e-06
-7.4361e-06
3.11672e-06
-8.1551e-06
3.06672e-06
-8.88123e-06
2.99148e-06
-9.57612e-06
2.87606e-06
-1.02503e-05
2.78326e-06
-1.09188e-05
2.69129e-06
-1.15396e-05
2.56439e-06
-1.21343e-05
2.44255e-06
-1.26774e-05
2.27971e-06
-1.31442e-05
2.09737e-06
-1.35564e-05
1.91705e-06
-1.39023e-05
1.7298e-06
-1.41909e-05
1.56165e-06
-1.44566e-05
1.43697e-06
-1.4668e-05
1.28349e-06
-1.48181e-05
1.12411e-06
-1.49299e-05
9.6721e-07
-1.4983e-05
7.78153e-07
-1.50061e-05
6.33156e-07
-1.49966e-05
5.06931e-07
-1.49677e-05
4.06057e-07
-1.49064e-05
3.29245e-07
-1.47888e-05
2.38226e-07
-1.45971e-05
1.31322e-07
-1.4351e-05
2.24577e-08
-1.40711e-05
-1.03019e-07
-1.37935e-05
-1.99119e-07
-1.34967e-05
-3.0297e-07
-1.31697e-05
-3.79382e-07
-1.28413e-05
-3.41421e-07
-1.25282e-05
-2.46695e-07
-1.21984e-05
-2.14083e-07
-1.18635e-05
-1.90009e-07
-1.16e-05
-7.48535e-08
-1.13606e-05
6.14993e-08
-1.10972e-05
1.42349e-07
-1.08383e-05
2.73202e-07
-1.0647e-05
4.29378e-07
-1.04562e-05
4.82728e-07
-1.02328e-05
5.54813e-07
-1.00151e-05
7.39872e-07
-9.76655e-06
8.23921e-07
-9.47103e-06
7.57716e-07
-9.19811e-06
7.65061e-07
-9.16067e-06
1.09716e-06
-9.35948e-06
1.53786e-06
-9.74986e-06
1.79695e-06
-1.03282e-05
1.89711e-06
-1.10503e-05
2.01685e-06
-1.16342e-05
2.17741e-06
-1.21021e-05
2.38472e-06
-1.24922e-05
2.40902e-06
-1.27951e-05
2.22502e-06
-1.28249e-05
1.75199e-06
-1.24714e-05
1.04386e-06
-1.17502e-05
3.11851e-07
-1.07092e-05
2.77214e-09
-9.27259e-06
1.80011e-07
-7.64592e-06
8.66592e-07
-6.76418e-06
1.98592e-06
-7.13759e-06
3.08187e-06
-7.75324e-06
3.05391e-06
-7.50749e-06
1.67903e-06
-6.72906e-06
7.32301e-07
-6.47622e-06
1.31261e-06
-7.09896e-06
2.56826e-06
-8.3992e-06
3.67431e-06
-9.89788e-06
4.4887e-06
-1.14355e-05
5.25745e-06
-1.28134e-05
5.84326e-06
-1.40084e-05
6.0679e-06
-1.49303e-05
5.96848e-06
-1.581e-05
5.91574e-06
-1.64914e-05
5.6097e-06
-1.67709e-05
4.86682e-06
-1.65602e-05
3.70925e-06
-1.6264e-05
2.87281e-06
-1.60586e-05
2.73925e-06
-1.58091e-05
2.97196e-06
-1.51814e-05
3.18432e-06
-1.42311e-05
3.33446e-06
-1.31707e-05
3.27929e-06
-1.19616e-05
2.41469e-06
-1.06599e-05
9.03527e-07
-9.65568e-06
3.20226e-07
-9.01446e-06
1.38462e-06
-7.84517e-06
2.7008e-06
-4.73173e-06
-4.1516e-07
-2.05544e-06
-3.82246e-06
-1.02834e-06
1.26651e-06
4.49376e-07
1.72924e-06
1.92787e-06
1.12803e-06
3.16617e-06
1.54438e-06
4.57381e-06
1.33899e-06
5.90625e-06
1.5734e-06
7.126e-06
1.86017e-06
8.21349e-06
2.2199e-06
9.26034e-06
2.4422e-06
1.01435e-05
2.88166e-06
1.0811e-05
3.31163e-06
1.13959e-05
3.53233e-06
1.19368e-05
3.70805e-06
1.22189e-05
4.08121e-06
1.2319e-05
4.34636e-06
1.2374e-05
4.48371e-06
1.22673e-05
4.70215e-06
1.20098e-05
4.93721e-06
1.16475e-05
5.14923e-06
1.11075e-05
5.27913e-06
1.03181e-05
5.52845e-06
9.35659e-06
5.61267e-06
8.31453e-06
5.56691e-06
7.23439e-06
5.54512e-06
5.93312e-06
5.64312e-06
4.55844e-06
5.61921e-06
3.24411e-06
5.5028e-06
2.16792e-06
5.17754e-06
1.33781e-06
4.7127e-06
8.49276e-07
4.41237e-06
5.28913e-07
4.39616e-06
-1.03647e-07
4.87917e-06
-7.14492e-07
5.03929e-06
-1.15859e-06
4.89387e-06
-1.68515e-06
4.94699e-06
-3.0527e-06
5.79738e-06
-5.44337e-06
7.30821e-06
-8.38704e-06
8.93788e-06
-1.14703e-05
1.02141e-05
-1.38391e-05
1.02464e-05
-1.53697e-05
9.90214e-06
-1.63864e-05
9.33068e-06
-1.63957e-05
8.01497e-06
-1.60214e-05
7.66145e-06
-1.50614e-05
7.01751e-06
-1.37257e-05
6.42338e-06
-1.18759e-05
5.61841e-06
-9.7039e-06
5.22075e-06
-7.7106e-06
5.04707e-06
-5.91134e-06
5.76751e-06
-4.18806e-06
5.31998e-06
-1.78107e-06
3.91246e-06
7.34871e-07
4.44006e-06
3.76942e-06
2.70108e-06
6.976e-06
2.74762e-06
9.01939e-06
5.11897e-06
1.04077e-05
6.00793e-06
1.11825e-05
6.81107e-06
1.16954e-05
7.12808e-06
1.19531e-05
7.33946e-06
1.23616e-05
6.99938e-06
1.30651e-05
6.32634e-06
1.39553e-05
5.67316e-06
1.44341e-05
5.8766e-06
1.47486e-05
5.6503e-06
1.49634e-05
5.76403e-06
1.53365e-05
5.29986e-06
1.57467e-05
5.09811e-06
1.60346e-05
4.87874e-06
5.00768e-06
1.60605e-05
-1.65276e-07
3.16831e-06
-3.77148e-07
3.31815e-06
-5.80874e-07
3.36065e-06
-7.57729e-07
3.35726e-06
-9.40595e-07
3.36874e-06
-1.11153e-06
3.3931e-06
-1.2049e-06
3.33722e-06
-1.19954e-06
3.21115e-06
-1.21577e-06
3.2135e-06
-1.49327e-06
3.5155e-06
-2.1022e-06
3.89183e-06
-2.88426e-06
4.14421e-06
-3.70666e-06
4.34713e-06
-4.51578e-06
4.51015e-06
-5.25105e-06
4.65645e-06
-5.86365e-06
4.70102e-06
-6.22708e-06
4.57774e-06
-6.57907e-06
4.51365e-06
-7.11999e-06
4.55097e-06
-7.81927e-06
4.66548e-06
-8.55777e-06
4.68606e-06
-9.2668e-06
4.60266e-06
-9.98552e-06
4.51819e-06
-1.06877e-05
4.39886e-06
-1.13577e-05
4.22982e-06
-1.19535e-05
4.04469e-06
-1.24986e-05
3.86626e-06
-1.29852e-05
3.64122e-06
-1.3415e-05
3.44813e-06
-1.37948e-05
3.18902e-06
-1.41009e-05
2.88933e-06
-1.43125e-05
2.58525e-06
-1.45055e-05
2.32999e-06
-1.46555e-05
2.08648e-06
-1.47274e-05
1.8602e-06
-1.47861e-05
1.66021e-06
-1.47962e-05
1.43672e-06
-1.48019e-05
1.24859e-06
-1.48366e-05
1.05655e-06
-1.48303e-05
8.56575e-07
-1.48227e-05
7.03074e-07
-1.47666e-05
5.35199e-07
-1.46538e-05
3.91945e-07
-1.44989e-05
2.48239e-07
-1.43177e-05
1.09375e-07
-1.40918e-05
-5.24817e-08
-1.38934e-05
-1.56569e-07
-1.37248e-05
-2.24127e-07
-1.35741e-05
-3.12231e-07
-1.33917e-05
-4.25399e-07
-1.31387e-05
-4.52571e-07
-1.29048e-05
-3.32868e-07
-1.27301e-05
-2.38981e-07
-1.25774e-05
-1.94393e-07
-1.24091e-05
-9.11672e-08
-1.22538e-05
8.18827e-08
-1.19955e-05
8.98399e-08
-1.17758e-05
2.85833e-07
-1.1593e-05
5.24635e-07
-1.13654e-05
5.74204e-07
-1.10665e-05
5.81643e-07
-1.07308e-05
7.6156e-07
-1.0349e-05
8.65843e-07
-9.86669e-06
7.18888e-07
-9.38372e-06
7.43379e-07
-8.98355e-06
1.23587e-06
-8.56432e-06
1.69262e-06
-7.98895e-06
1.79716e-06
-7.60781e-06
2.17555e-06
-7.78938e-06
2.92489e-06
-8.48249e-06
3.53232e-06
-9.12194e-06
3.66474e-06
-9.60484e-06
3.70952e-06
-9.92681e-06
3.56936e-06
-1.01251e-05
3.02211e-06
-1.01232e-05
2.05302e-06
-9.84736e-06
9.92431e-07
-9.2027e-06
2.64221e-07
-8.11993e-06
3.14036e-08
-6.85743e-06
7.03387e-07
-6.38514e-06
2.84858e-06
-6.7539e-06
4.96607e-06
-6.8599e-06
4.6354e-06
-6.92085e-06
3.11957e-06
-7.81944e-06
3.0499e-06
-9.48061e-06
4.53817e-06
-1.13414e-05
6.06692e-06
-1.3025e-05
7.05439e-06
-1.43331e-05
7.62496e-06
-1.52963e-05
8.08045e-06
-1.59564e-05
8.21801e-06
-1.64184e-05
8.17971e-06
-1.68847e-05
8.22977e-06
-1.74316e-05
8.43329e-06
-1.78278e-05
8.00119e-06
-1.78672e-05
6.81743e-06
-1.77184e-05
5.38798e-06
-1.76123e-05
4.50788e-06
-1.73416e-05
4.07449e-06
-1.65457e-05
3.69731e-06
-1.51741e-05
3.38652e-06
-1.35985e-05
3.4464e-06
-1.22642e-05
3.75613e-06
-1.12532e-05
3.31538e-06
-1.0609e-05
2.10689e-06
-1.02246e-05
1.6475e-06
-8.9926e-06
1.83883e-06
-6.41067e-06
1.86388e-06
-4.80469e-06
-2.46704e-07
-4.55819e-06
-2.39439e-06
-2.2231e-06
6.86312e-07
-1.37258e-07
1.35466e-06
1.58657e-06
1.16591e-06
3.0061e-06
1.9113e-06
4.56581e-06
1.61053e-06
6.04256e-06
1.97742e-06
7.35101e-06
2.4654e-06
8.42885e-06
3.07843e-06
9.54552e-06
3.29291e-06
1.05229e-05
3.93056e-06
1.12607e-05
4.61638e-06
1.18907e-05
4.94453e-06
1.24979e-05
5.15166e-06
1.31246e-05
5.50792e-06
1.35525e-05
5.94935e-06
1.3641e-05
6.39097e-06
1.36942e-05
6.62045e-06
1.36969e-05
6.87376e-06
1.33885e-05
7.3421e-06
1.30238e-05
7.58631e-06
1.26384e-05
7.91891e-06
1.20747e-05
8.1643e-06
1.13168e-05
8.32359e-06
1.03466e-05
8.5024e-06
9.29896e-06
8.60967e-06
7.94907e-06
8.8693e-06
6.37145e-06
8.99475e-06
4.70818e-06
8.75361e-06
3.09698e-06
8.17488e-06
2.09709e-06
7.22769e-06
1.45555e-06
6.86651e-06
9.83522e-07
7.26346e-06
3.52737e-07
7.66406e-06
-5.37263e-07
7.88955e-06
-2.40887e-06
9.01887e-06
-5.38861e-06
1.10997e-05
-8.68512e-06
1.31666e-05
-1.19712e-05
1.50547e-05
-1.44162e-05
1.57291e-05
-1.60685e-05
1.51568e-05
-1.66234e-05
1.39364e-05
-1.67873e-05
1.31141e-05
-1.61787e-05
1.11403e-05
-1.5308e-05
1.05594e-05
-1.40641e-05
9.72009e-06
-1.22199e-05
8.70802e-06
-1.05326e-05
8.0468e-06
-7.79671e-06
6.81487e-06
-5.64561e-06
7.26296e-06
-4.28821e-06
8.78716e-06
-2.30704e-06
7.5501e-06
-1.01408e-07
5.73552e-06
1.95887e-06
6.45639e-06
4.54014e-06
3.91012e-06
7.78335e-06
3.46423e-06
1.03172e-05
6.62259e-06
1.21138e-05
8.08781e-06
1.33496e-05
9.54228e-06
1.39682e-05
1.03919e-05
1.42124e-05
1.08136e-05
1.45377e-05
1.01639e-05
1.54363e-05
8.82658e-06
1.68119e-05
7.75083e-06
1.79681e-05
8.22561e-06
1.83896e-05
8.69851e-06
1.83014e-05
9.31538e-06
1.81706e-05
8.86442e-06
1.81001e-05
8.69674e-06
1.83441e-05
7.98505e-06
7.58364e-06
1.85149e-05
-1.06741e-07
4.1413e-06
-2.47444e-07
4.3693e-06
-3.22334e-07
4.35976e-06
-2.86794e-07
4.24551e-06
-2.61124e-07
4.27253e-06
-3.12481e-07
4.39957e-06
-4.77645e-07
4.47788e-06
-9.4042e-07
4.63865e-06
-1.66381e-06
4.8642e-06
-2.30946e-06
5.07256e-06
-2.89464e-06
5.38602e-06
-3.66473e-06
5.81361e-06
-4.51038e-06
6.0927e-06
-5.31057e-06
6.2034e-06
-5.97504e-06
6.17418e-06
-6.54007e-06
6.10268e-06
-7.16159e-06
6.01169e-06
-7.79725e-06
5.96772e-06
-8.51635e-06
6.0732e-06
-9.29105e-06
6.20975e-06
-1.00708e-05
6.19233e-06
-1.07949e-05
6.01715e-06
-1.13934e-05
5.80707e-06
-1.19073e-05
5.59442e-06
-1.23537e-05
5.33153e-06
-1.2729e-05
5.04035e-06
-1.29936e-05
4.74543e-06
-1.32567e-05
4.49718e-06
-1.34726e-05
4.21868e-06
-1.36373e-05
3.88314e-06
-1.37811e-05
3.51214e-06
-1.38901e-05
3.13758e-06
-1.39513e-05
2.8252e-06
-1.39811e-05
2.50795e-06
-1.39761e-05
2.21877e-06
-1.39418e-05
1.96438e-06
-1.39004e-05
1.7003e-06
-1.38349e-05
1.4729e-06
-1.37802e-05
1.25931e-06
-1.3728e-05
1.0378e-06
-1.37022e-05
9.00547e-07
-1.37082e-05
7.36307e-07
-1.37002e-05
5.62879e-07
-1.36734e-05
3.91598e-07
-1.36031e-05
2.03201e-07
-1.34983e-05
1.1765e-08
-1.33746e-05
-1.06353e-07
-1.3241e-05
-1.72549e-07
-1.31178e-05
-2.44453e-07
-1.29672e-05
-3.86439e-07
-1.27493e-05
-4.69648e-07
-1.25977e-05
-2.7289e-07
-1.25746e-05
-6.36366e-08
-1.26045e-05
1.39694e-08
-1.25148e-05
8.48059e-09
-1.23577e-05
1.30482e-07
-1.23171e-05
2.48281e-07
-1.23379e-05
5.28234e-07
-1.22437e-05
7.30401e-07
-1.19574e-05
6.42595e-07
-1.16713e-05
6.35906e-07
-1.14657e-05
9.12756e-07
-1.11604e-05
1.01319e-06
-1.07185e-05
7.78354e-07
-1.02279e-05
7.2443e-07
-9.67668e-06
1.19689e-06
-9.11262e-06
1.73545e-06
-8.4998e-06
1.80376e-06
-7.78452e-06
2.07642e-06
-7.00431e-06
2.84921e-06
-6.52379e-06
3.84764e-06
-6.53084e-06
4.44233e-06
-6.80741e-06
4.7279e-06
-7.03934e-06
4.65572e-06
-7.13093e-06
4.14944e-06
-7.14741e-06
3.16193e-06
-7.03406e-06
1.9464e-06
-6.7627e-06
1.04765e-06
-6.5432e-06
8.35765e-07
-6.84488e-06
2.0441e-06
-7.35125e-06
4.64466e-06
-7.14558e-06
6.30402e-06
-6.972e-06
5.9618e-06
-8.10205e-06
5.65813e-06
-1.03061e-05
6.76366e-06
-1.23675e-05
8.23888e-06
-1.41176e-05
9.47445e-06
-1.55492e-05
1.02198e-05
-1.65739e-05
1.05387e-05
-1.70466e-05
1.04179e-05
-1.7243e-05
1.01112e-05
-1.73163e-05
9.95043e-06
-1.74461e-05
1.0267e-05
-1.73956e-05
1.04205e-05
-1.71215e-05
9.7402e-06
-1.67074e-05
8.41022e-06
-1.64661e-05
7.16205e-06
-1.64469e-05
6.41531e-06
-1.63179e-05
5.7593e-06
-1.58255e-05
5.01987e-06
-1.50162e-05
4.47051e-06
-1.40485e-05
4.34379e-06
-1.29216e-05
4.37009e-06
-1.17684e-05
3.84345e-06
-1.07634e-05
2.81773e-06
-9.60176e-06
2.28708e-06
-7.88946e-06
1.9677e-06
-5.96265e-06
1.72923e-06
-5.21906e-06
7.14811e-07
-5.10659e-06
-6.80912e-07