/*--------------------------------*- C++ -*----------------------------------*\
| =========                 |                                                 |
| \\      /  F ield         | OpenFOAM: The Open Source CFD Toolbox           |
|  \\    /   O peration     | Version:  dev                                   |
|   \\  /    A nd           | Web:      http://www.openfoam.org               |
|    \\/     M anipulation  |                                                 |
\*---------------------------------------------------------------------------*/
FoamFile
{
    version     2.0;
    format      ascii;
    class       surfaceScalarField;
    object      phi_0;
    location    "9.13";
}
// * * * * * * * * * * * * * * * * * * * * * * * * * * * * * * * * * * * * * //

dimensions      [1 0 -1 0 0 0 0];

internalField   nonuniform List<scalar> 
24170
(
2.62386e-06
9.44947e-07
2.28207e-06
6.1445e-07
2.3496e-06
1.61275e-07
2.62229e-06
-6.73055e-08
2.84207e-06
-4.73526e-08
3.13338e-06
-1.36582e-07
3.26493e-06
-3.7398e-09
3.58848e-06
-2.13481e-07
3.68033e-06
-6.83669e-09
4.02383e-06
-2.77442e-07
4.0013e-06
6.21666e-08
4.55874e-06
-5.36005e-07
4.19888e-06
3.50498e-07
5.20516e-06
-1.03371e-06
5.22137e-06
-6.51544e-08
5.50233e-06
-4.086e-07
8.31238e-06
-2.92165e-06
-5.93634e-07
8.78323e-06
4.36676e-06
5.02386e-07
4.32245e-06
8.56732e-07
4.42077e-06
2.38816e-07
4.61776e-06
-1.15297e-07
4.81594e-06
-1.23679e-07
5.12191e-06
-3.47771e-07
5.377e-06
-1.87186e-07
5.77737e-06
-5.66341e-07
6.07674e-06
-2.81009e-07
6.40541e-06
-6.02332e-07
6.81706e-06
-3.69601e-07
7.28007e-06
-1.03399e-06
7.55613e-06
-2.229e-10
8.8613e-06
-2.41983e-06
8.52728e-06
1.9367e-07
1.1789e-05
-3.92232e-06
9.94986e-06
-1.23477e-06
-6.42964e-06
1.56595e-05
5.14038e-06
-3.77895e-07
5.55227e-06
6.63844e-07
5.95889e-06
2.87556e-08
6.32795e-06
-3.17864e-07
6.58507e-06
-2.44001e-07
6.95385e-06
-6.10929e-07
7.20098e-06
-3.54784e-07
7.68072e-06
-9.92553e-07
7.99235e-06
-5.65518e-07
8.55034e-06
-1.15527e-06
8.79693e-06
-6.40814e-07
9.70762e-06
-1.98469e-06
9.51782e-06
1.11647e-07
1.11585e-05
-4.14848e-06
1.07129e-05
5.09139e-07
1.3672e-05
-6.99872e-06
1.34447e-05
-1.25255e-06
-8.18879e-06
1.50148e-05
5.4652e-06
-1.05215e-06
6.41355e-06
-4.09573e-08
7.03475e-06
-3.73153e-07
7.84645e-06
-9.43879e-07
8.17678e-06
-4.21133e-07
8.90311e-06
-1.21686e-06
9.1846e-06
-5.46618e-07
9.80539e-06
-1.55182e-06
1.01211e-05
-8.49493e-07
1.08439e-05
-1.86758e-06
1.09513e-05
-7.74856e-07
1.202e-05
-3.09343e-06
1.19032e-05
1.47609e-07
1.32706e-05
-5.611e-06
1.36177e-05
1.12168e-08
1.43106e-05
-7.78332e-06
1.45511e-05
-1.77842e-06
-1.05752e-05
1.65547e-05
5.8538e-06
-1.77594e-06
7.32358e-06
-1.24279e-06
7.98892e-06
-7.94356e-07
9.07813e-06
-1.8255e-06
9.53241e-06
-7.04831e-07
1.04137e-05
-1.96228e-06
1.08472e-05
-8.77629e-07
1.15621e-05
-2.19611e-06
1.17309e-05
-9.79914e-07
1.26997e-05
-2.82226e-06
1.27963e-05
-8.98901e-07
1.35623e-05
-3.90075e-06
1.39022e-05
-2.8079e-07
1.39545e-05
-5.76833e-06
1.49363e-05
-1.07719e-06
1.48699e-05
-7.93594e-06
1.31e-05
-2.37498e-07
-1.28359e-05
1.5073e-05
6.38862e-06
-2.55261e-06
7.89251e-06
-2.44755e-06
8.65315e-06
-1.28147e-06
9.61684e-06
-2.55614e-06
1.02579e-05
-1.15353e-06
1.11682e-05
-2.71963e-06
1.16282e-05
-1.22121e-06
1.23839e-05
-2.86802e-06
1.24397e-05
-9.90091e-07
1.35274e-05
-3.89287e-06
1.35614e-05
-9.55564e-07
1.43842e-05
-4.76873e-06
1.47698e-05
-7.54013e-07
1.45635e-05
-5.6648e-06
1.51004e-05
-1.75441e-06
1.55985e-05
-8.59006e-06
1.37234e-05
1.46229e-06
-1.50673e-05
1.56395e-05
7.10204e-06
-3.331e-06
8.31319e-06
-3.32263e-06
9.21741e-06
-1.87978e-06
1.01843e-05
-3.25905e-06
1.09542e-05
-1.70383e-06
1.17686e-05
-3.35798e-06
1.23544e-05
-1.67283e-06
1.29472e-05
-3.36296e-06
1.33169e-05
-1.30176e-06
1.40016e-05
-4.5501e-06
1.42469e-05
-1.21721e-06
1.51928e-05
-5.75495e-06
1.54633e-05
-1.11301e-06
1.59799e-05
-6.27322e-06
1.63287e-05
-2.28917e-06
1.63172e-05
-8.67061e-06
1.81927e-05
-5.59811e-07
-1.2244e-05
1.49631e-05
5.50696e-06
-3.96565e-06
6.49479e-06
-4.04094e-06
7.15714e-06
-2.29725e-06
7.9702e-06
-3.85915e-06
8.60669e-06
-2.16252e-06
9.1528e-06
-3.75777e-06
9.68072e-06
-2.08899e-06
1.0107e-05
-3.7063e-06
1.06519e-05
-1.79504e-06
1.09912e-05
-4.8628e-06
1.13895e-05
-1.62006e-06
1.18203e-05
-6.21039e-06
1.23518e-05
-1.70364e-06
1.27486e-05
-6.74569e-06
1.32492e-05
-2.8895e-06
1.25532e-05
-8.1092e-06
1.4883e-05
-3.00351e-06
-8.32832e-06
1.0805e-05
6.59342e-06
-4.80789e-06
7.66329e-06
-4.78978e-06
8.51295e-06
-2.8528e-06
9.26606e-06
-4.35443e-06
1.01422e-05
-2.82271e-06
1.0758e-05
-4.19539e-06
1.14545e-05
-2.64471e-06
1.20267e-05
-4.17337e-06
1.27016e-05
-2.40268e-06
1.31541e-05
-5.27567e-06
1.36715e-05
-2.13177e-06
1.37575e-05
-6.31529e-06
1.45523e-05
-2.55205e-06
1.44753e-05
-6.75586e-06
1.4966e-05
-3.46707e-06
1.42004e-05
-7.48069e-06
1.58115e-05
-4.75645e-06
-6.27833e-06
1.36361e-05
7.81545e-06
-5.81497e-06
8.99438e-06
-5.58109e-06
1.00049e-05
-3.50781e-06
1.08794e-05
-4.91524e-06
1.17237e-05
-3.40064e-06
1.24784e-05
-4.72797e-06
1.32408e-05
-3.231e-06
1.38912e-05
-4.68937e-06
1.46836e-05
-3.10584e-06
1.50123e-05
-5.5459e-06
1.58637e-05
-2.95973e-06
1.58074e-05
-6.269e-06
1.67157e-05
-3.50287e-06
1.63525e-05
-6.47052e-06
1.7131e-05
-4.34082e-06
1.62859e-05
-6.76434e-06
1.72164e-05
-5.83294e-06
-5.46937e-06
1.62689e-05
9.08538e-06
-6.92405e-06
1.02986e-05
-6.32109e-06
1.15148e-05
-4.2885e-06
1.26274e-05
-5.64056e-06
1.3704e-05
-4.14614e-06
1.46141e-05
-5.35921e-06
1.55772e-05
-3.97071e-06
1.63291e-05
-5.26725e-06
1.72575e-05
-3.9069e-06
1.75802e-05
-5.78248e-06
1.86072e-05
-3.93767e-06
1.85664e-05
-6.21869e-06
1.95073e-05
-4.46985e-06
1.92967e-05
-6.32209e-06
2.00399e-05
-5.17915e-06
1.96342e-05
-6.48291e-06
1.98099e-05
-6.14919e-06
-5.56344e-06
1.97523e-05
1.06891e-05
-8.29321e-06
1.19268e-05
-6.96981e-06
1.3551e-05
-5.36819e-06
1.46791e-05
-6.28185e-06
1.6091e-05
-5.13926e-06
1.70294e-05
-5.93893e-06
1.81984e-05
-4.84494e-06
1.89567e-05
-5.78961e-06
1.99758e-05
-4.74464e-06
2.03614e-05
-6.03385e-06
2.13938e-05
-4.88363e-06
2.14462e-05
-6.22887e-06
2.23576e-05
-5.37801e-06
2.23399e-05
-6.34282e-06
2.2879e-05
-5.79178e-06
2.26593e-05
-6.3671e-06
2.27126e-05
-6.3303e-06
-6.02833e-06
2.30291e-05
1.25034e-05
-9.36839e-06
1.39863e-05
-7.7071e-06
1.56989e-05
-6.38446e-06
1.70376e-05
-6.99579e-06
1.85964e-05
-6.15514e-06
1.97138e-05
-6.58796e-06
2.11247e-05
-5.86069e-06
2.20288e-05
-6.37043e-06
2.32795e-05
-5.73872e-06
2.38099e-05
-6.36248e-06
2.48865e-05
-5.81038e-06
2.51923e-05
-6.43545e-06
2.59425e-05
-6.07593e-06
2.60261e-05
-6.42088e-06
2.65221e-05
-6.3208e-06
2.65058e-05
-6.41911e-06
2.64931e-05
-6.41654e-06
-6.22118e-06
2.65633e-05
1.45128e-05
-1.08788e-05
1.62184e-05
-8.44957e-06
1.83423e-05
-7.60187e-06
1.9887e-05
-7.71716e-06
2.16084e-05
-7.14715e-06
2.29397e-05
-7.28266e-06
2.43999e-05
-6.77385e-06
2.54665e-05
-6.97469e-06
2.67402e-05
-6.63038e-06
2.74746e-05
-6.78421e-06
2.85187e-05
-6.60745e-06
2.9029e-05
-6.76053e-06
2.97553e-05
-6.67109e-06
3.01326e-05
-6.71862e-06
3.05035e-05
-6.66081e-06
3.06692e-05
-6.59221e-06
3.07577e-05
-6.54343e-06
-6.32374e-06
3.07802e-05
1.68932e-05
-1.25504e-05
1.91561e-05
-9.41227e-06
2.13998e-05
-8.62821e-06
2.32337e-05
-8.44171e-06
2.51506e-05
-8.0698e-06
2.67075e-05
-7.9566e-06
2.83808e-05
-7.67073e-06
2.97146e-05
-7.63364e-06
3.11086e-05
-7.44843e-06
3.21685e-05
-7.35922e-06
3.31982e-05
-7.23598e-06
3.39531e-05
-7.18922e-06
3.46139e-05
-7.07538e-06
3.50674e-05
-6.97639e-06
3.53981e-05
-6.8519e-06
3.56164e-05
-6.72891e-06
3.56831e-05
-6.57206e-06
-6.37532e-06
3.57414e-05
1.96682e-05
-1.39711e-05
2.21251e-05
-1.00927e-05
2.46029e-05
-9.42985e-06
2.69567e-05
-9.25406e-06
2.9272e-05
-8.98787e-06
3.1375e-05
-8.80525e-06
3.33537e-05
-8.5316e-06
3.49967e-05
-8.28905e-06
3.64725e-05
-8.05914e-06
3.76816e-05
-7.82073e-06
3.86972e-05
-7.61025e-06
3.95213e-05
-7.46549e-06
4.021e-05
-7.30664e-06
4.07443e-05
-7.13584e-06
4.11691e-05
-6.97382e-06
4.14744e-05
-6.79539e-06
4.16416e-05
-6.56474e-06
-6.31416e-06
4.16982e-05
2.30023e-05
-1.50226e-05
2.60713e-05
-1.0669e-05
2.90785e-05
-1.00671e-05
3.18713e-05
-9.85122e-06
3.44803e-05
-9.58899e-06
3.68465e-05
-9.34769e-06
3.89923e-05
-9.03237e-06
4.08902e-05
-8.71384e-06
4.25153e-05
-8.37237e-06
4.39202e-05
-8.07004e-06
4.51133e-05
-7.79411e-06
4.609e-05
-7.56348e-06
4.68836e-05
-7.34186e-06
4.75301e-05
-7.1313e-06
4.80232e-05
-6.91597e-06
4.83931e-05
-6.70604e-06
4.86741e-05
-6.46232e-06
-6.187e-06
4.88597e-05
2.31246e-05
-1.49858e-05
2.6552e-05
-1.10174e-05
2.98484e-05
-1.04263e-05
3.27887e-05
-1.00556e-05
3.53631e-05
-9.64455e-06
3.76162e-05
-9.29774e-06
3.96563e-05
-8.98085e-06
4.1524e-05
-8.69138e-06
4.31994e-05
-8.35132e-06
4.46992e-05
-8.05524e-06
4.60071e-05
-7.76206e-06
4.70877e-05
-7.46204e-06
4.79565e-05
-7.17159e-06
4.86265e-05
-6.89505e-06
4.91436e-05
-6.643e-06
4.94993e-05
-6.37923e-06
4.97227e-05
-6.10013e-06
-5.84001e-06
4.98743e-05
2.09926e-05
-1.42323e-05
2.39e-05
-1.06511e-05
2.6742e-05
-1.01385e-05
2.93944e-05
-9.78152e-06
3.17997e-05
-9.3446e-06
3.39389e-05
-8.95524e-06
3.58442e-05
-8.62306e-06
3.75498e-05
-8.34202e-06
3.90353e-05
-7.98282e-06
4.0339e-05
-7.69477e-06
4.14916e-05
-7.43512e-06
4.24477e-05
-7.10756e-06
4.32349e-05
-6.79499e-06
4.38559e-05
-6.49145e-06
4.43088e-05
-6.19265e-06
4.46381e-05
-5.91647e-06
4.48711e-05
-5.6424e-06
-5.38644e-06
4.50192e-05
1.83546e-05
-1.31096e-05
2.1101e-05
-1.00331e-05
2.38139e-05
-9.64049e-06
2.63114e-05
-9.26911e-06
2.85874e-05
-8.83117e-06
3.06386e-05
-8.4445e-06
3.24462e-05
-8.09196e-06
3.39893e-05
-7.76442e-06
3.5322e-05
-7.40417e-06
3.64111e-05
-7.06149e-06
3.73142e-05
-6.79743e-06
3.80685e-05
-6.48945e-06
3.86872e-05
-6.19091e-06
3.91807e-05
-5.90315e-06
3.95793e-05
-5.63375e-06
3.98853e-05
-5.37846e-06
4.01091e-05
-5.12602e-06
-4.89787e-06
4.02714e-05
1.67226e-05
-1.20861e-05
1.90197e-05
-9.00491e-06
2.12652e-05
-8.69947e-06
2.34639e-05
-8.47544e-06
2.55629e-05
-8.14961e-06
2.74606e-05
-7.7821e-06
2.913e-05
-7.42024e-06
3.05551e-05
-7.06612e-06
3.1761e-05
-6.69468e-06
3.27952e-05
-6.37611e-06
3.36704e-05
-6.1319e-06
3.43967e-05
-5.83748e-06
3.49774e-05
-5.54435e-06
3.54361e-05
-5.27015e-06
3.57858e-05
-5.01624e-06
3.60418e-05
-4.77992e-06
3.62115e-05
-4.54141e-06
-4.33934e-06
3.63158e-05
1.48925e-05
-1.0653e-05
1.72167e-05
-8.11538e-06
1.94241e-05
-7.81584e-06
2.14346e-05
-7.58501e-06
2.32363e-05
-7.25776e-06
2.48111e-05
-6.87648e-06
2.61946e-05
-6.53717e-06
2.73964e-05
-6.20985e-06
2.84569e-05
-5.89908e-06
2.9401e-05
-5.65167e-06
3.01832e-05
-5.41562e-06
3.08275e-05
-5.13971e-06
3.13531e-05
-4.87315e-06
3.17697e-05
-4.62076e-06
3.20822e-05
-4.38351e-06
3.23063e-05
-4.16639e-06
3.24625e-05
-3.95717e-06
-3.77994e-06
3.25558e-05
1.35559e-05
-9.0308e-06
1.54148e-05
-6.93258e-06
1.73157e-05
-6.7889e-06
1.90839e-05
-6.60002e-06
2.06952e-05
-6.31235e-06
2.21599e-05
-5.98649e-06
2.34641e-05
-5.68868e-06
2.46097e-05
-5.40245e-06
2.56136e-05
-5.14235e-06
2.64796e-05
-4.9333e-06
2.71654e-05
-4.67584e-06
2.77352e-05
-4.4341e-06
2.81929e-05
-4.19072e-06
2.8563e-05
-3.97677e-06
2.88616e-05
-3.7808e-06
2.90903e-05
-3.59599e-06
2.92601e-05
-3.42042e-06
-3.26055e-06
2.93652e-05
1.19921e-05
-7.54535e-06
1.37377e-05
-5.83433e-06
1.55164e-05
-5.83394e-06
1.7186e-05
-5.7018e-06
1.86915e-05
-5.43236e-06
2.00209e-05
-5.12051e-06
2.11745e-05
-4.8383e-06
2.21711e-05
-4.58221e-06
2.3057e-05
-4.38777e-06
2.37899e-05
-4.18629e-06
2.44022e-05
-3.95808e-06
2.49269e-05
-3.766e-06
2.53607e-05
-3.56016e-06
2.56989e-05
-3.36552e-06
2.5957e-05
-3.19541e-06
2.61467e-05
-3.03737e-06
2.62775e-05
-2.8884e-06
-2.75321e-06
2.63547e-05
1.0658e-05
-6.1006e-06
1.2502e-05
-5.05208e-06
1.42292e-05
-5.04175e-06
1.57783e-05
-4.89175e-06
1.71476e-05
-4.61394e-06
1.82971e-05
-4.25399e-06
1.92622e-05
-3.96121e-06
2.01094e-05
-3.75638e-06
2.08357e-05
-3.60063e-06
2.14628e-05
-3.44848e-06
2.20228e-05
-3.29141e-06
2.24609e-05
-3.10563e-06
2.28044e-05
-2.92152e-06
2.30577e-05
-2.74396e-06
2.32299e-05
-2.58933e-06
2.33425e-05
-2.45918e-06
2.34071e-05
-2.34154e-06
-2.24219e-06
2.34367e-05
9.60765e-06
-4.9455e-06
1.12239e-05
-4.27182e-06
1.26896e-05
-4.21578e-06
1.40203e-05
-4.07361e-06
1.5232e-05
-3.83288e-06
1.6302e-05
-3.49065e-06
1.72104e-05
-3.19295e-06
1.7981e-05
-3.00199e-06
1.86122e-05
-2.85064e-06
1.91517e-05
-2.7422e-06
1.96263e-05
-2.64616e-06
2.00074e-05
-2.4834e-06
2.03194e-05
-2.33738e-06
2.05515e-05
-2.17734e-06
2.07158e-05
-2.04381e-06
2.08268e-05
-1.94023e-06
2.08914e-05
-1.84844e-06
-1.76589e-06
2.0908e-05
8.73027e-06
-4.00131e-06
1.02626e-05
-3.63105e-06
1.15879e-05
-3.46412e-06
1.27183e-05
-3.25726e-06
1.36911e-05
-2.99997e-06
1.45477e-05
-2.6858e-06
1.52909e-05
-2.41697e-06
1.59123e-05
-2.24142e-06
1.64225e-05
-2.10966e-06
1.6842e-05
-2.03339e-06
1.71477e-05
-1.93794e-06
1.73919e-05
-1.81945e-06
1.75657e-05
-1.7e-06
1.76894e-05
-1.57818e-06
1.77608e-05
-1.47259e-06
1.7781e-05
-1.39026e-06
1.77654e-05
-1.32804e-06
-1.26113e-06
1.77069e-05
7.88701e-06
-3.06084e-06
9.26655e-06
-3.05296e-06
1.03426e-05
-2.66983e-06
1.11641e-05
-2.32669e-06
1.18143e-05
-2.02525e-06
1.23837e-05
-1.75981e-06
1.28441e-05
-1.50965e-06
1.32398e-05
-1.39289e-06
1.35503e-05
-1.2935e-06
1.37654e-05
-1.23282e-06
1.39088e-05
-1.16896e-06
1.40011e-05
-1.09491e-06
1.40515e-05
-1.021e-06
1.40555e-05
-9.3248e-07
1.40303e-05
-8.69955e-07
1.39736e-05
-8.21474e-07
1.38858e-05
-7.86414e-07
-7.48521e-07
1.37753e-05
6.95954e-06
-2.16922e-06
7.64961e-06
-1.99197e-06
8.11394e-06
-1.46177e-06
8.45156e-06
-1.0974e-06
8.73019e-06
-8.50825e-07
9.02319e-06
-7.1603e-07
9.35007e-06
-6.1424e-07
9.63571e-06
-5.67041e-07
9.88005e-06
-5.31747e-07
1.00638e-05
-5.09712e-07
1.01964e-05
-4.87002e-07
1.02851e-05
-4.54035e-07
1.03422e-05
-4.26284e-07
1.03844e-05
-3.93765e-07
1.03964e-05
-3.65177e-07
1.03741e-05
-3.3992e-07
1.03378e-05
-3.42524e-07
-3.17063e-07
1.02688e-05
4.83613e-06
4.38928e-06
4.39345e-06
4.66816e-06
5.09034e-06
5.54623e-06
6.0032e-06
6.41014e-06
6.75997e-06
7.04501e-06
7.27182e-06
7.4569e-06
7.60118e-06
7.71559e-06
7.80212e-06
7.86307e-06
7.87635e-06
7.87523e-06
-4.9261e-08
5.6533e-07
-8.92466e-08
5.8355e-07
-1.41124e-07
5.95254e-07
-1.83394e-07
5.82835e-07
-2.32027e-07
5.88584e-07
-2.97041e-07
6.03574e-07
-3.90264e-07
6.28924e-07
-5.22612e-07
6.64022e-07
-6.72488e-07
6.75875e-07
-8.08399e-07
6.55548e-07
-9.2556e-07
6.29301e-07
-1.07392e-06
6.52407e-07
-1.27903e-06
6.99815e-07
-1.54228e-06
7.47448e-07
-1.86715e-06
7.97016e-07
-2.27797e-06
8.70423e-07
-2.88116e-06
1.05156e-06
-3.61311e-06
1.16878e-06
-4.43774e-06
1.2461e-06
-5.41251e-06
1.37426e-06
-6.45959e-06
1.4243e-06
-7.46348e-06
1.36849e-06
-8.38033e-06
1.27611e-06
-9.27251e-06
1.24047e-06
-1.0149e-05
1.21016e-06
-1.10146e-05
1.18565e-06
-1.18591e-05
1.1518e-06
-1.26852e-05
1.12171e-06
-1.34861e-05
1.08595e-06
-1.42401e-05
1.0301e-06
-1.49495e-05
9.77331e-07
-1.56037e-05
9.15035e-07
-1.6203e-05
8.54396e-07
-1.67521e-05
8.00342e-07
-1.72581e-05
7.55145e-07
-1.77147e-05
7.05977e-07
-1.81189e-05
6.56294e-07
-1.84549e-05
5.92753e-07
-1.87055e-05
5.1403e-07
-1.88846e-05
4.5066e-07
-1.90088e-05
4.05479e-07
-1.90782e-05
3.63114e-07
-1.91181e-05
3.49812e-07
-1.91291e-05
3.41622e-07
-1.91103e-05
3.36003e-07
-1.90407e-05
3.11357e-07
-1.88816e-05
2.489e-07
-1.86207e-05
1.74616e-07
-1.82722e-05
1.14427e-07
-1.78759e-05
9.24095e-08
-1.75049e-05
1.46026e-07
-1.71866e-05
2.33931e-07
-1.68823e-05
2.88099e-07
-1.65783e-05
3.26586e-07
-1.62956e-05
3.84233e-07
-1.60868e-05
5.00103e-07
-1.59139e-05
5.83917e-07
-1.57978e-05
6.87742e-07
-1.57154e-05
7.68887e-07
-1.56291e-05
8.18389e-07
-1.55742e-05
9.03925e-07
-1.5621e-05
1.04723e-06
-1.57314e-05
1.13888e-06
-1.57953e-05
1.12298e-06
-1.57986e-05
1.10585e-06
-1.5796e-05
1.14955e-06
-1.5885e-05
1.28558e-06
-1.6009e-05
1.36382e-06
-1.60579e-05
1.34936e-06
-1.59966e-05
1.31145e-06
-1.60426e-05
1.47596e-06
-1.62686e-05
1.69427e-06
-1.65634e-05
1.80195e-06
-1.67558e-05
1.74966e-06
-1.66986e-05
1.55691e-06
-1.6236e-05
1.21024e-06
-1.53014e-05
8.22081e-07
-1.41642e-05
7.68609e-07
-1.32744e-05
1.17173e-06
-1.30104e-05
1.84402e-06
-1.30869e-05
2.13208e-06
-1.30627e-05
2.01025e-06
-1.28024e-05
1.82308e-06
-1.2012e-05
1.36763e-06
-1.06317e-05
8.91802e-07
-9.05126e-06
8.14529e-07
-7.60267e-06
1.07111e-06
-6.38943e-06
1.36271e-06
-5.79846e-06
1.95587e-06
-5.98721e-06
2.71304e-06
-6.95606e-06
3.51023e-06
-8.31772e-06
3.98607e-06
-9.70315e-06
4.11145e-06
-1.08728e-05
3.90987e-06
-1.18296e-05
3.70273e-06
-1.25402e-05
3.51807e-06
-1.28243e-05
3.08669e-06
-1.25239e-05
2.40334e-06
-1.19791e-05
2.10271e-06
-1.15793e-05
2.27103e-06
-1.15967e-05
2.73647e-06
-1.19097e-05
3.07425e-06
-1.21425e-05
3.03636e-06
-1.16226e-05
2.31775e-06
-9.86864e-06
1.03467e-06
-7.67318e-06
4.26226e-07
-6.41446e-06
1.24277e-06
-6.65208e-06
2.89793e-06
-5.05245e-06
1.33503e-06
-2.12622e-07
-2.16645e-06
1.05777e-06
1.42633e-06
1.5619e-06
2.22854e-06
2.75076e-06
1.5598e-06
3.81393e-06
1.71133e-06
4.97478e-06
1.6317e-06
6.03227e-06
1.7536e-06
6.95868e-06
1.89701e-06
7.70191e-06
2.08927e-06
8.29735e-06
2.23841e-06
8.649e-06
2.47932e-06
8.80186e-06
2.66997e-06
8.82618e-06
2.7805e-06
8.72324e-06
2.8793e-06
8.45384e-06
3.0097e-06
8.03104e-06
3.12388e-06
7.47255e-06
3.21508e-06
6.78313e-06
3.29566e-06
5.92737e-06
3.41371e-06
4.90199e-06
3.548e-06
3.82634e-06
3.57673e-06
2.61725e-06
3.69066e-06
1.41684e-06
3.65644e-06
3.12255e-07
3.53963e-06
-7.8263e-07
3.52096e-06
-1.79516e-06
3.43849e-06
-2.73646e-06
3.37823e-06
-3.61096e-06
3.33921e-06
-4.36968e-06
3.26081e-06
-4.82103e-06
3.00557e-06
-5.19131e-06
2.98958e-06
-5.58884e-06
3.08252e-06
-5.99988e-06
3.17496e-06
-6.39268e-06
3.26813e-06
-6.55924e-06
3.17315e-06
-6.45368e-06
3.04703e-06
-6.0711e-06
2.92403e-06
-5.82699e-06
3.22619e-06
-6.28789e-06
4.10619e-06
-7.49459e-06
5.03732e-06
-9.0189e-06
5.55833e-06
-1.05933e-05
5.84138e-06
-1.18188e-05
5.69219e-06
-1.23204e-05
5.19011e-06
-1.25343e-05
5.0661e-06
-1.22524e-05
4.76536e-06
-1.14631e-05
4.40329e-06
-1.00839e-05
3.94469e-06
-8.54883e-06
3.79857e-06
-6.68356e-06
3.48719e-06
-5.41089e-06
4.06588e-06
-3.89259e-06
3.76891e-06
-1.3941e-06
2.86024e-06
3.16724e-07
3.55269e-06
3.0144e-06
2.47378e-06
5.67957e-06
2.517e-06
7.03176e-06
3.78161e-06
8.02263e-06
4.10264e-06
8.70528e-06
4.34783e-06
9.229e-06
4.46273e-06
9.65339e-06
4.50745e-06
1.01304e-05
4.41403e-06
1.08008e-05
4.14435e-06
1.17267e-05
3.79392e-06
1.25728e-05
3.74273e-06
1.35416e-05
3.47696e-06
1.43143e-05
3.51602e-06
1.51036e-05
3.27731e-06
1.55847e-05
3.28886e-06
1.5734e-05
3.28785e-06
3.57792e-06
1.52551e-05
-1.66723e-07
1.21666e-06
-3.43457e-07
1.27068e-06
-5.64971e-07
1.32116e-06
-8.11648e-07
1.33403e-06
-1.05445e-06
1.33799e-06
-1.31731e-06
1.37446e-06
-1.57106e-06
1.39307e-06
-1.74984e-06
1.35504e-06
-1.89935e-06
1.33284e-06
-2.13704e-06
1.39284e-06
-2.48422e-06
1.46687e-06
-2.91204e-06
1.56514e-06
-3.48536e-06
1.75195e-06
-4.23928e-06
1.97144e-06
-5.21077e-06
2.23035e-06
-6.3278e-06
2.43651e-06
-7.43959e-06
2.59893e-06
-8.44921e-06
2.59966e-06
-9.30353e-06
2.50614e-06
-1.00437e-05
2.49656e-06
-1.07759e-05
2.52485e-06
-1.15733e-05
2.52674e-06
-1.24537e-05
2.50942e-06
-1.33452e-05
2.46864e-06
-1.4203e-05
2.3836e-06
-1.50289e-05
2.31928e-06
-1.58437e-05
2.2644e-06
-1.66035e-05
2.17464e-06
-1.73294e-05
2.09175e-06
-1.80025e-05
1.97553e-06
-1.85908e-05
1.83592e-06
-1.91142e-05
1.69584e-06
-1.95637e-05
1.54897e-06
-1.99421e-05
1.4159e-06
-2.02863e-05
1.33169e-06
-2.05676e-05
1.22529e-06
-2.07714e-05
1.11035e-06
-2.09243e-05
1.0026e-06
-2.10055e-05
8.58535e-07
-2.10419e-05
7.51089e-07
-2.1035e-05
6.63997e-07
-2.09977e-05
6.01231e-07
-2.09168e-05
5.65913e-07
-2.07657e-05
5.20527e-07
-2.05233e-05
4.59786e-07
-2.02125e-05
3.98499e-07
-1.98524e-05
3.12621e-07
-1.94823e-05
2.53162e-07
-1.90884e-05
1.86737e-07
-1.8658e-05
1.34984e-07
-1.82157e-05
1.92976e-07
-1.77804e-05
3.25337e-07
-1.73234e-05
4.0919e-07
-1.68561e-05
4.72742e-07
-1.64624e-05
6.17951e-07
-1.6099e-05
7.96434e-07
-1.57064e-05
9.17409e-07
-1.53011e-05
1.07892e-06
-1.49649e-05
1.2807e-06
-1.46427e-05
1.3767e-06
-1.42875e-05
1.46851e-06
-1.39324e-05
1.68439e-06
-1.35499e-05
1.81986e-06
-1.31263e-05
1.78508e-06
-1.27111e-05
1.78494e-06
-1.25141e-05
2.11943e-06
-1.25512e-05
2.60019e-06
-1.27913e-05
2.90641e-06
-1.32465e-05
3.04486e-06
-1.38835e-05
3.20313e-06
-1.44031e-05
3.40636e-06
-1.48028e-05
3.66028e-06
-1.51211e-05
3.7289e-06
-1.53614e-05
3.58083e-06
-1.53438e-05
3.13588e-06
-1.49459e-05
2.4364e-06
-1.41721e-05
1.67457e-06
-1.30685e-05
1.32377e-06
-1.15337e-05
1.47019e-06
-9.70813e-06
2.14332e-06
-8.57011e-06
3.30632e-06
-8.7638e-06
4.52793e-06
-9.31235e-06
4.61416e-06
-9.03205e-06
3.24291e-06
-8.1598e-06
2.22157e-06
-7.77463e-06
2.77229e-06
-8.2843e-06
4.09421e-06
-9.50354e-06
5.2656e-06
-1.09289e-05
6.10139e-06
-1.23916e-05
6.87873e-06
-1.36893e-05
7.48332e-06
-1.47943e-05
7.72136e-06
-1.56087e-05
7.63142e-06
-1.63885e-05
7.60302e-06
-1.69998e-05
7.32607e-06
-1.72197e-05
6.58571e-06
-1.69218e-05
5.3791e-06
-1.65094e-05
4.4544e-06
-1.61829e-05
4.25264e-06
-1.58247e-05
4.47316e-06
-1.50809e-05
4.6972e-06
-1.40008e-05
4.87202e-06
-1.28192e-05
4.86752e-06
-1.151e-05
4.02688e-06
-1.01131e-05
2.44095e-06
-8.97821e-06
1.75859e-06
-8.21274e-06
2.79224e-06
-6.93949e-06
4.21479e-06
-3.74486e-06
1.07479e-06
-9.51156e-07
-2.51277e-06
2.56953e-07
2.71842e-06
1.84213e-06
3.2264e-06
3.40177e-06
2.62512e-06
4.70666e-06
3.06476e-06
6.16663e-06
2.85696e-06
7.52546e-06
3.11423e-06
8.7406e-06
3.41789e-06
9.79146e-06
3.79591e-06
1.07684e-05
4.03429e-06
1.15398e-05
4.50287e-06
1.20581e-05
4.94826e-06
1.24638e-05
5.17176e-06
1.27873e-05
5.36057e-06
1.28171e-05
5.74645e-06
1.26398e-05
6.017e-06
1.23878e-05
6.17308e-06
1.19493e-05
6.41832e-06
1.13458e-05
6.68667e-06
1.06238e-05
6.94074e-06
9.72232e-06
7.12033e-06
8.59096e-06
7.43527e-06
7.30462e-06
7.57665e-06
5.95754e-06
7.57665e-06
4.62739e-06
7.57393e-06
3.12958e-06
7.65117e-06
1.60621e-06
7.60159e-06
1.98812e-07
7.45833e-06
-8.84169e-07
7.06482e-06
-1.67902e-06
6.53946e-06
-2.06328e-06
6.17407e-06
-2.21081e-06
6.09418e-06
-2.66321e-06
6.56825e-06
-3.06529e-06
6.72309e-06
-3.27221e-06
6.57258e-06
-3.55593e-06
6.63603e-06
-4.71317e-06
7.53768e-06
-6.93112e-06
9.09105e-06
-9.70582e-06
1.07424e-05
-1.26198e-05
1.20516e-05
-1.4814e-05
1.20941e-05
-1.61301e-05
1.1711e-05
-1.69526e-05
1.11633e-05
-1.67609e-05
9.79785e-06
-1.61982e-05
9.42935e-06
-1.50741e-05
8.80342e-06
-1.35794e-05
8.18224e-06
-1.16104e-05
7.38341e-06
-9.30369e-06
6.93658e-06
-7.22548e-06
6.77496e-06
-5.39241e-06
7.53063e-06
-3.60661e-06
6.98925e-06
-1.15164e-06
5.57368e-06
1.42866e-06
6.07393e-06
4.54957e-06
4.20033e-06
7.84224e-06
4.36315e-06
9.94165e-06
6.90249e-06
1.13852e-05
7.84336e-06
1.22419e-05
8.69293e-06
1.28753e-05
9.03788e-06
1.3302e-05
9.25058e-06
1.39371e-05
8.88625e-06
1.48996e-05
8.20719e-06
1.60182e-05
7.63145e-06
1.66657e-05
7.93166e-06
1.71096e-05
7.73447e-06
1.74106e-05
7.87052e-06
1.77912e-05
7.4237e-06
1.80995e-05
7.25912e-06
1.81722e-05
7.04741e-06
7.21494e-06
1.78491e-05
-3.46321e-07
1.97995e-06
-7.4452e-07
2.10833e-06
-1.13193e-06
2.14655e-06
-1.49716e-06
2.13966e-06
-1.868e-06
2.15166e-06
-2.22925e-06
2.18028e-06
-2.52294e-06
2.13083e-06
-2.72338e-06
2.0078e-06
-2.93609e-06
2.0066e-06
-3.39059e-06
2.30717e-06
-4.17286e-06
2.70115e-06
-5.13762e-06
2.97994e-06
-6.14269e-06
3.20737e-06
-7.1344e-06
3.39248e-06
-8.05594e-06
3.56255e-06
-8.86352e-06
3.64393e-06
-9.4189e-06
3.5482e-06
-9.94007e-06
3.49627e-06
-1.06364e-05
3.55031e-06
-1.14924e-05
3.70107e-06
-1.23956e-05
3.77551e-06
-1.32721e-05
3.739e-06
-1.41582e-05
3.69504e-06
-1.50255e-05
3.6226e-06
-1.58564e-05
3.50397e-06
-1.66066e-05
3.36571e-06
-1.72974e-05
3.2381e-06
-1.79283e-05
3.06671e-06
-1.84891e-05
2.93033e-06
-1.89956e-05
2.73848e-06
-1.94313e-05
2.50427e-06
-1.97571e-05
2.25299e-06
-2.0052e-05
2.04935e-06
-2.03002e-05
1.86407e-06
-2.04543e-05
1.69632e-06
-2.05819e-05
1.56136e-06
-2.06436e-05
1.40205e-06
-2.06803e-05
1.27965e-06
-2.07397e-05
1.15727e-06
-2.07445e-05
1.01931e-06
-2.07406e-05
9.31746e-07
-2.06855e-05
8.32217e-07
-2.056e-05
7.53239e-07
-2.03749e-05
6.72064e-07
-2.01439e-05
5.94981e-07
-1.9848e-05
4.92836e-07
-1.95657e-05
4.44411e-07
-1.93027e-05
4.32526e-07
-1.90547e-05
4.06065e-07
-1.87794e-05
3.43651e-07
-1.84192e-05
3.45402e-07
-1.80589e-05
5.05085e-07
-1.77559e-05
6.66922e-07
-1.74809e-05
7.73345e-07
-1.71956e-05
9.27266e-07
-1.69312e-05
1.17016e-06
-1.65566e-05
1.23364e-06
-1.62074e-05
1.46826e-06
-1.58924e-05
1.77527e-06
-1.55386e-05
1.89711e-06
-1.51223e-05
1.93888e-06
-1.46691e-05
2.16125e-06
-1.41644e-05
2.33993e-06
-1.35635e-05
2.23733e-06
-1.29597e-05
2.25122e-06
-1.24171e-05
2.75247e-06
-1.18656e-05
3.27529e-06
-1.11624e-05
3.42264e-06
-1.06008e-05
3.81088e-06
-1.05785e-05
4.60432e-06
-1.11414e-05
5.30449e-06
-1.17182e-05
5.52669e-06
-1.21401e-05
5.65562e-06
-1.23768e-05
5.59207e-06
-1.2489e-05
5.09886e-06
-1.24257e-05
4.14174e-06
-1.21057e-05
3.04062e-06
-1.14279e-05
2.25557e-06
-1.03058e-05
1.97748e-06
-8.92549e-06
2.61207e-06
-8.25998e-06
4.81671e-06
-8.44939e-06
7.12917e-06
-8.42755e-06
6.94709e-06
-8.39144e-06
5.44988e-06
-9.21409e-06
5.34072e-06
-1.08196e-05
6.83752e-06
-1.26291e-05
8.43899e-06
-1.42653e-05
9.50492e-06
-1.55096e-05
1.01077e-05
-1.63853e-05
1.05545e-05
-1.69321e-05
1.06737e-05
-1.7255e-05
1.06151e-05
-1.75718e-05
1.06584e-05
-1.79914e-05
1.09015e-05
-1.82884e-05
1.05227e-05
-1.82267e-05
9.34436e-06
-1.79697e-05
7.84239e-06
-1.77729e-05
6.86416e-06
-1.74399e-05
6.37193e-06
-1.65796e-05
5.96282e-06
-1.51085e-05
5.61012e-06
-1.34021e-05
5.64473e-06
-1.19297e-05
5.99052e-06
-1.07819e-05
5.59664e-06
-1.00101e-05
4.36693e-06
-9.5317e-06
3.8629e-06
-8.21675e-06
4.00797e-06
-5.50638e-06
4.03486e-06
-3.79629e-06
1.93595e-06
-3.44826e-06
-2.97665e-07
-9.98513e-07
2.81589e-06
1.21947e-06
3.51442e-06
3.0366e-06
3.35588e-06
4.53099e-06
4.13068e-06
6.14866e-06
3.83282e-06
7.65344e-06
4.24041e-06
8.95951e-06
4.76066e-06
9.9997e-06
5.40378e-06
1.10404e-05
5.63702e-06
1.19044e-05
6.32173e-06
1.24833e-05
7.04008e-06
1.29204e-05
7.36491e-06
1.33224e-05
7.56321e-06
1.3715e-05
7.9473e-06
1.38583e-05
8.42604e-06
1.36358e-05
8.88808e-06
1.33649e-05
9.13425e-06
1.30254e-05
9.42987e-06
1.23699e-05
9.94777e-06
1.16641e-05
1.02319e-05
1.09333e-05
1.06489e-05
1.00389e-05
1.09966e-05
8.96528e-06
1.128e-05
7.72461e-06
1.1575e-05
6.49139e-06
1.17052e-05
5.01038e-06
1.19396e-05
3.34433e-06
1.20436e-05
1.65915e-06
1.17241e-05
7.6879e-08
1.10406e-05
-8.37132e-07
9.97947e-06
-1.33382e-06
9.50557e-06
-1.61336e-06
9.86208e-06
-2.03855e-06
1.02578e-05
-2.70874e-06
1.05046e-05
-4.36607e-06
1.16655e-05
-7.16016e-06
1.381e-05
-1.0304e-05
1.59645e-05
-1.3411e-05
1.78697e-05
-1.56186e-05
1.853e-05
-1.70333e-05
1.79544e-05
-1.7335e-05
1.66631e-05
-1.7265e-05
1.58598e-05
-1.6428e-05
1.38165e-05
-1.53302e-05
1.31822e-05
-1.39393e-05
1.24033e-05
-1.19172e-05
1.13356e-05
-1.01157e-05
1.06864e-05
-7.25675e-06
9.37551e-06
-5.00193e-06
9.83515e-06
-3.64085e-06
1.14725e-05
-1.57494e-06
1.00555e-05
7.01431e-07
8.16795e-06
2.75085e-06
8.95007e-06
5.37986e-06
6.1897e-06
8.69886e-06
5.82483e-06
1.13043e-05
9.20282e-06
1.31598e-05
1.0757e-05
1.44863e-05
1.23158e-05
1.52193e-05
1.322e-05
1.56224e-05
1.36593e-05
1.61697e-05
1.29284e-05
1.73523e-05
1.15382e-05
1.89909e-05
1.06089e-05
2.03385e-05
1.13115e-05
2.08755e-05
1.19196e-05
2.0855e-05
1.25878e-05
2.07078e-05
1.21804e-05
2.05288e-05
1.20904e-05
2.0543e-05
1.14064e-05
1.10689e-05
2.0359e-05
-2.76913e-07
2.58752e-06
-5.88503e-07
2.77935e-06
-8.3857e-07
2.76461e-06
-9.81368e-07
2.64819e-06
-1.13574e-06
2.67261e-06
-1.3773e-06
2.79986e-06
-1.74035e-06
2.88032e-06
-2.39498e-06
3.04522e-06
-3.29787e-06
3.28317e-06
-4.12254e-06
3.505e-06
-4.88088e-06
3.82544e-06
-5.81439e-06
4.27526e-06
-6.82502e-06
4.59734e-06
-7.80404e-06
4.75033e-06
-8.65431e-06
4.74999e-06
-9.39878e-06
4.70434e-06
-1.01961e-05
4.64431e-06
-1.09954e-05
4.62546e-06
-1.18603e-05
4.76165e-06
-1.27853e-05
4.95147e-06
-1.37299e-05
5.00227e-06
-1.46353e-05
4.88767e-06
-1.54113e-05
4.72811e-06
-1.60871e-05
4.5723e-06
-1.66931e-05
4.3729e-06
-1.7232e-05
4.13983e-06
-1.7646e-05
3.90219e-06
-1.80437e-05
3.72127e-06
-1.83928e-05
3.51767e-06
-1.86808e-05
3.26416e-06
-1.89423e-05
2.9749e-06
-1.91688e-05
2.67237e-06
-1.93313e-05
2.43409e-06
-1.94539e-05
2.19666e-06
-1.95306e-05
1.98565e-06
-1.95632e-05
1.81793e-06
-1.95789e-05
1.63826e-06
-1.95487e-05
1.49376e-06
-1.95185e-05
1.37236e-06
-1.94826e-05
1.23689e-06
-1.94534e-05
1.1858e-06
-1.94473e-05
1.11314e-06
-1.94204e-05
1.02949e-06
-1.93652e-05
9.46036e-07
-1.92567e-05
8.43721e-07
-1.91004e-05
7.35345e-07
-1.89104e-05
6.92336e-07
-1.86923e-05
6.97746e-07
-1.84759e-05
7.09375e-07
-1.82367e-05
6.45023e-07
-1.79143e-05
5.98861e-07
-1.76213e-05
8.23907e-07
-1.7453e-05
1.10837e-06
-1.73747e-05
1.28392e-06
-1.7188e-05
1.35019e-06
-1.69133e-05
1.54078e-06
-1.67507e-05
1.71954e-06
-1.66616e-05
2.06402e-06
-1.6465e-05
2.37248e-06
-1.60641e-05
2.37483e-06
-1.56579e-05
2.40518e-06
-1.53405e-05
2.7372e-06
-1.49245e-05
2.94058e-06
-1.43747e-05
2.77538e-06
-1.37964e-05
2.72537e-06
-1.31402e-05
3.20233e-06
-1.24374e-05
3.81087e-06
-1.1708e-05
3.94441e-06
-1.08978e-05
4.22688e-06
-9.97064e-06
5.01791e-06
-9.2898e-06
6.10214e-06
-9.13487e-06
6.81347e-06
-9.31762e-06
7.21281e-06
-9.47163e-06
7.25653e-06
-9.45549e-06
6.8532e-06
-9.37675e-06
5.91513e-06
-9.20333e-06
4.67163e-06
-8.86285e-06
3.70718e-06
-8.56537e-06
3.4344e-06
-8.8096e-06
4.62361e-06
-9.23964e-06
7.32687e-06
-8.89126e-06
9.17941e-06
-8.56109e-06
8.98154e-06
-9.58246e-06
8.74489e-06
-1.17444e-05
9.88265e-06
-1.37734e-05
1.13833e-05
-1.54572e-05
1.26668e-05
-1.68004e-05
1.34875e-05
-1.77468e-05
1.38662e-05
-1.81317e-05
1.3734e-05
-1.8209e-05
1.33705e-05
-1.81546e-05
1.31512e-05
-1.81662e-05
1.34552e-05
-1.79941e-05
1.36505e-05
-1.75819e-05
1.30168e-05
-1.70153e-05
1.1684e-05
-1.66343e-05
1.03751e-05
-1.65003e-05
9.57096e-06
-1.62798e-05
8.89389e-06
-1.57155e-05
8.13065e-06
-1.48433e-05
7.51837e-06
-1.38133e-05
7.33913e-06
-1.25934e-05
7.35474e-06
-1.13156e-05
6.84763e-06
-1.01844e-05
5.82249e-06
-8.91757e-06
5.26519e-06
-7.10761e-06
4.88348e-06
-5.06152e-06
4.61109e-06
-4.18229e-06
3.61442e-06
-4.01816e-06
2.18418e-06
-1.52508e-06
2.9826e-06
3.26677e-07