/*--------------------------------*- C++ -*----------------------------------*\
| =========                 |                                                 |
| \\      /  F ield         | OpenFOAM: The Open Source CFD Toolbox           |
|  \\    /   O peration     | Version:  dev                                   |
|   \\  /    A nd           | Web:      http://www.openfoam.org               |
|    \\/     M anipulation  |                                                 |
\*---------------------------------------------------------------------------*/
FoamFile
{
    version     2.0;
    format      ascii;
    class       volScalarField;
    object      pMean;
    location    "9.13";
}
// * * * * * * * * * * * * * * * * * * * * * * * * * * * * * * * * * * * * * //

dimensions      [1 -1 -2 0 0 0 0];

internalField   nonuniform List<scalar> 
12225
(
98313.5
98293.7
98280
98273
98258.7
98249.3
98230.8
98221.3
98199.8
98191
98166.3
98159.5
98128.5
98122.2
98081.5
98041.8
97952.7
97586.9
98309
98292.6
98279.4
98272.5
98258.1
98248.7
98230.2
98220.7
98199.1
98190.6
98165.6
98159
98128.2
98120.3
98079.7
98045.8
97953.6
97792.6
98305.2
98291.1
98278.4
98271.1
98256.7
98247.2
98228.7
98219.4
98197.6
98189.1
98164.8
98156.9
98128.7
98116.9
98082
98046.8
97979.4
97890.6
98300.2
98288.1
98276.3
98268.6
98254.3
98244.5
98226.6
98216.7
98195.9
98186.4
98163.4
98153.8
98127.6
98114.7
98082.9
98055.2
98006.7
97937.9
98293.5
98283.8
98272.7
98264.6
98250.7
98240.4
98223.5
98212.5
98193.5
98182.2
98161.9
98149.3
98127.8
98111.5
98084.9
98060.7
98020.8
97988.1
98285.3
98277.6
98266.8
98258.5
98245.1
98234.5
98218.4
98206.8
98189
98176.9
98158.7
98145.1
98126.7
98109.8
98088.4
98063.1
98041
98020.6
98275
98268.6
98258.3
98249.8
98237.2
98226.1
98211.3
98198.7
98183
98169.5
98154.1
98139
98124.5
98106.9
98092.6
98071.7
98061.3
98046.4
98264.3
98258.6
98248.9
98240.2
98228.5
98217
98203.4
98190.2
98176.2
98161.9
98148.8
98133.2
98121.6
98104.3
98095.6
98077.8
98076.1
98061.1
98253.4
98248
98239.2
98230.2
98219.4
98207.6
98195.1
98181.6
98169
98154.4
98143
98127.5
98117.8
98101.8
98095.5
98081.3
98081
98069.1
98239.8
98234.3
98226.6
98217.6
98207.7
98195.9
98184.4
98170.9
98159.6
98145.1
98135.1
98120.2
98112
98097.6
98092.7
98080.9
98080.1
98071.8
98222.9
98217.4
98210.8
98202
98192.9
98181.4
98170.7
98157.7
98147.2
98133.6
98124.3
98111.1
98103.1
98091.6
98086
98077.4
98074.7
98069.6
98202.3
98196.6
98191.3
98182.9
98174.5
98163.5
98153.6
98141.3
98131.7
98119.2
98110.5
98099
98091.5
98082.2
98076.5
98070.1
98066.5
98062.9
98177.5
98172.2
98167.6
98160.1
98152.2
98142.2
98132.8
98121.9
98112.7
98102
98093.6
98084.3
98077.1
98069.9
98064.4
98059.6
98056
98053.2
98149.2
98144.4
98140.4
98133.9
98126.7
98117.8
98109.1
98099.6
98091.1
98082.1
98074.4
98066.8
98060.5
98054.7
98050.1
98046.3
98043.3
98041.2
98119.1
98115.3
98111.6
98106.2
98099.7
98092.1
98084.3
98076.2
98068.6
98061.1
98054.4
98048.3
98043
98038.5
98034.8
98031.8
98029.6
98028.2
98091.4
98088.6
98085.2
98080.7
98075.1
98068.6
98061.8
98054.9
98048.4
98042.2
98036.6
98031.6
98027.4
98023.8
98020.9
98018.8
98017.2
98016.3
98072.8
98070.8
98068
98064.1
98059.2
98053.5
98047.6
98041.7
98036
98030.7
98026
98021.8
98018.2
98015.3
98013
98011.3
98010.2
98009.6
98073
98071.3
98068.8
98065.1
98060.3
98055
98049.4
98043.9
98038.5
98033.6
98029.1
98025.2
98021.8
98019
98016.8
98015.1
98013.9
98013.2
98092.7
98090.9
98088.1
98084.1
98079.2
98073.6
98067.8
98062
98056.5
98051.2
98046.5
98042.2
98038.5
98035.3
98032.6
98030.5
98028.8
98027.5
98123.5
98121.4
98118
98113.5
98108
98102
98095.7
98089.3
98083.2
98077.4
98072
98067
98062.6
98058.8
98055.4
98052.6
98050.2
98048.3
98158.4
98155.8
98151.7
98146.5
98140.5
98133.8
98126.9
98119.9
98113.1
98106.5
98100.4
98094.7
98089.6
98085
98080.9
98077.3
98074.1
98071.4
98192.3
98189.2
98184.4
98178.6
98171.9
98164.6
98157.1
98149.5
98142
98134.8
98128
98121.6
98115.8
98110.4
98105.6
98101.3
98097.4
98094
98222.5
98218.9
98213.3
98206.8
98199.6
98191.9
98183.8
98175.7
98167.7
98159.9
98152.5
98145.5
98139.1
98133.1
98127.6
98122.7
98118.2
98114.2
98247.9
98243.5
98237.2
98230.1
98222.4
98214.3
98205.9
98197.4
98189
98180.7
98172.8
98165.4
98158.4
98151.9
98146
98140.5
98135.5
98131
98268.1
98262.9
98255.8
98248.1
98240.1
98231.8
98223.1
98214.3
98205.6
98197
98188.8
98180.9
98173.6
98166.7
98160.3
98154.5
98149.1
98144.2
98283.8
98277.5
98269.4
98261.2
98253.1
98244.6
98235.8
98226.8
98217.9
98209
98200.5
98192.4
98184.8
98177.6
98171
98164.8
98159.2
98154
98295.6
98287.8
98278.7
98270.2
98261.9
98253.4
98244.5
98235.5
98226.4
98217.4
98208.7
98200.5
98192.6
98185.3
98178.4
98172.1
98166.2
98160.8
98304.3
98294.5
98284.4
98275.8
98267.5
98259
98250.2
98241
98231.9
98222.8
98214
98205.6
98197.7
98190.2
98183.2
98176.8
98170.8
98165.2
98310.4
98298.3
98287.2
98278.5
98270.5
98262.2
98253.4
98244.3
98235
98225.9
98217.1
98208.6
98200.6
98193
98186
98179.4
98173.4
98167.8
98316.3
98300.8
98288.7
98279.9
98271.7
98263.4
98254.6
98245.6
98236.3
98227.2
98218.3
98209.8
98201.8
98194.2
98187.1
98180.6
98174.5
98168.9
98313.4
98313
98312.2
98311
98309.6
98307.7
98305.5
98302.9
98299.8
98296.4
98292.5
98288.3
98283.7
98278.7
98273.5
98268
98262.3
98256.4
98250.3
98244
98237.6
98231
98224.3
98217.5
98210.6
98203.7
98196.6
98189.6
98182.5
98175.4
98168.3
98161.2
98154.2
98147.3
98140.4
98133.6
98127
98120.5
98114.2
98108.1
98102.2
98096.5
98091.1
98085.9
98081.1
98076.6
98072.5
98068.8
98065.5
98062.7
98060.3
98058.4
98057
98056.2
98055.9
98056.2
98057.2
98058.8
98061.1
98064
98067.7
98072.1
98077.2
98083
98089.5
98096.8
98104.7
98113.4
98122.7
98132.7
98143.3
98154.4
98166.2
98178.5
98191.2
98204.5
98218.1
98232.1
98246.4
98261
98275.8
98290.8
98305.9
98321.1
98336.4
98351.6
98366.8
98381.9
98396.8
98411.5
98426
98440.1
98453.8
98467.2
98480.1
98492.5
98504.4
98515.8
98526.5
98536.6
98546.2
98555
98563.3
98570.8
98577.8
98584.1
98589.8
98594.9
98599.5
98603.6
98607.3
98610.5
98613.3
98615.8
98618
98619.8
98621.5
98622.9
98624.1
98625.3
98626.3
98627.4
98628.6
98629.9
98631.5
98633.5
98636.1
98639.5
98643.9
98649.6
98656.6
98665.3
98676
98688.9
98704.2
98722.2
98743
98766.8
98793.6
98823.4
98856.4
98892.2
98931.1
98972.5
99016.9
99063.4
99112.3
99163
99215.6
99269.7
99325.2
99381.6
99438.6
99495.9
99553.1
99609.7
99665.1
99718.9
99769.9
99817.8
99861.3
99899.7
99931.7
99956.8
99973.6
99981.1
99978.5
99965.5
99941.5
99906.9
99861.5
99806.8
99742.9
99672.2
99595.2
99514.7
99430.2
99345.6
99258.8
99175.6
98306.4
98306
98305.2
98304.1
98302.6
98300.7
98298.4
98295.8
98292.8
98289.4
98285.6
98281.5
98277
98272.2
98267.1
98261.8
98256.3
98250.6
98244.6
98238.6
98232.3
98225.9
98219.4
98212.8
98206
98199.2
98192.4
98185.5
98178.5
98171.6
98164.6
98157.7
98150.9
98144.1
98137.4
98130.8
98124.3
98117.9
98111.7
98105.7
98099.9
98094.3
98089
98084
98079.3
98074.9
98070.8
98067.2
98063.9
98061.1
98058.7
98056.8
98055.4
98054.5
98054.2
98054.5
98055.4
98057
98059.2
98062.1
98065.6
98069.9
98074.9
98080.6
98087
98094.1
98101.9
98110.3
98119.5
98129.3
98139.7
98150.7
98162.2
98174.3
98186.8
98199.8
98213.2
98227
98241.1
98255.4
98270
98284.7
98299.6
98314.6
98329.6
98344.6
98359.5
98374.3
98388.9
98403.3
98417.4
98431.3
98444.7
98457.8
98470.4
98482.5
98494.2
98505.2
98515.7
98525.6
98534.9
98543.5
98551.6
98558.9
98565.7
98571.9
98577.4
98582.4
98586.9
98590.9
98594.5
98597.5
98600.3
98602.7
98604.9
98606.7
98608.2
98609.6
98610.8
98611.8
98612.8
98613.8
98614.8
98616
98617.5
98619.3
98621.7
98624.8
98628.9
98634.2
98640.9
98649.1
98659.3
98671.7
98686.4
98703.7
98723.8
98746.8
98772.7
98801.6
98833.7
98868.5
98906.3
98946.7
98989.9
99035.3
99083.1
99132.6
99184
99237
99291.3
99346.5
99402.4
99458.7
99514.8
99570.5
99624.9
99677.9
99728.2
99775.5
99818.6
99856.7
99888.6
99913.8
99931
99939.1
99937.3
99925.4
99902.7
99869.5
99825.8
99772.8
99710.6
99641.8
99566.6
99487.8
99404.9
99321.7
99236
99151
98293.7
98293.3
98292.5
98291.3
98289.7
98287.8
98285.5
98282.8
98279.8
98276.4
98272.7
98268.7
98264.3
98259.7
98254.9
98249.8
98244.6
98239.2
98233.6
98227.9
98222
98216
98209.9
98203.7
98197.3
98190.8
98184.3
98177.7
98171.1
98164.4
98157.8
98151.1
98144.5
98138
98131.5
98125.1
98118.9
98112.8
98106.8
98101
98095.4
98090
98084.9
98080
98075.4
98071.1
98067.2
98063.6
98060.4
98057.6
98055.2
98053.3
98051.9
98050.9
98050.6
98050.8
98051.6
98053
98055.1
98057.8
98061.2
98065.2
98070
98075.4
98081.6
98088.4
98095.9
98104.1
98112.9
98122.4
98132.4
98143.1
98154.2
98165.9
98178.1
98190.7
98203.6
98216.9
98230.6
98244.5
98258.6
98272.9
98287.2
98301.7
98316.2
98330.7
98345
98359.3
98373.4
98387.2
98400.8
98414.1
98427
98439.5
98451.6
98463.2
98474.2
98484.8
98494.8
98504.2
98513
98521.2
98528.8
98535.8
98542.3
98548.1
98553.4
98558.1
98562.4
98566.1
98569.5
98572.4
98575.1
98577.3
98579.3
98581
98582.5
98583.7
98584.8
98585.7
98586.5
98587.2
98588
98588.8
98589.9
98591.4
98593.3
98595.9
98599.3
98603.9
98609.7
98617.1
98626.3
98637.5
98651
98666.9
98685.5
98706.9
98731.2
98758.3
98788.4
98821.3
98856.9
98895.2
98936.1
98979.2
99024.6
99071.8
99120.9
99171.5
99223.4
99276.3
99330
99384.1
99438.2
99491.8
99544.3
99595.5
99644.3
99690.2
99732.1
99769.5
99800.9
99826
99843.5
99852.4
99851.9
99841.8
99821.4
99790.9
99750.3
99700.7
99642.1
99576.9
99505.3
99430.1
99350.6
99270.6
99187.7
99103.8
98276.2
98275.9
98275.1
98273.9
98272.3
98270.3
98268
98265.3
98262.3
98259
98255.4
98251.5
98247.4
98243
98238.4
98233.7
98228.8
98223.8
98218.7
98213.4
98207.9
98202.4
98196.7
98191
98185.1
98179.1
98173
98166.9
98160.8
98154.6
98148.4
98142.2
98136
98129.9
98123.8
98117.8
98111.9
98106.1
98100.4
98094.9
98089.6
98084.4
98079.5
98074.8
98070.3
98066.2
98062.4
98058.9
98055.8
98053
98050.7
98048.8
98047.3
98046.3
98045.8
98045.9
98046.6
98047.8
98049.7
98052.2
98055.3
98059.1
98063.5
98068.6
98074.3
98080.8
98087.9
98095.6
98104
98113
98122.6
98132.7
98143.4
98154.5
98166.1
98178.1
98190.5
98203.1
98216.1
98229.4
98242.8
98256.4
98270.1
98283.9
98297.7
98311.4
98325
98338.5
98351.9
98365
98377.8
98390.3
98402.5
98414.2
98425.5
98436.4
98446.7
98456.5
98465.8
98474.5
98482.7
98490.3
98497.4
98503.9
98509.8
98515.2
98520
98524.4
98528.3
98531.8
98534.9
98537.6
98540
98542.1
98543.9
98545.4
98546.7
98547.7
98548.5
98549.2
98549.7
98550.1
98550.5
98550.9
98551.5
98552.4
98553.6
98555.4
98557.9
98561.4
98566.1
98572.2
98580
98589.6
98601.4
98615.4
98632
98651.2
98673.1
98697.7
98725.1
98755.2
98788
98823.3
98861.2
98901.2
98943.4
98987.4
99033.2
99080.7
99129.4
99179.2
99229.9
99281.1
99332.2
99383.1
99433
99481.8
99528.4
99572.4
99612.7
99648.8
99679.3
99704.1
99721.8
99731.5
99732.4
99724.3
99706.7
99679.5
99642.7
99597.4
99543.4
99483.1
99416.3
99345.9
99271.1
99195.7
99117
99036.9
98255
98254.7
98254
98252.9
98251.3
98249.4
98247.1
98244.5
98241.6
98238.4
98234.9
98231.2
98227.3
98223.1
98218.9
98214.5
98210
98205.3
98200.6
98195.7
98190.8
98185.8
98180.6
98175.4
98170
98164.6
98159.1
98153.5
98148
98142.3
98136.7
98131.1
98125.4
98119.8
98114.2
98108.7
98103.3
98098
98092.7
98087.6
98082.6
98077.8
98073.1
98068.7
98064.5
98060.5
98056.8
98053.5
98050.5
98047.8
98045.5
98043.6
98042.1
98041
98040.4
98040.4
98040.8
98041.9
98043.5
98045.7
98048.4
98051.8
98055.8
98060.5
98065.8
98071.7
98078.3
98085.5
98093.3
98101.7
98110.6
98120.1
98130.1
98140.6
98151.4
98162.7
98174.3
98186.2
98198.4
98210.8
98223.4
98236.1
98248.9
98261.8
98274.7
98287.5
98300.2
98312.8
98325.2
98337.4
98349.3
98360.9
98372.1
98382.9
98393.3
98403.2
98412.6
98421.6
98430
98437.9
98445.3
98452.1
98458.5
98464.3
98469.6
98474.4
98478.8
98482.7
98486.2
98489.2
98492
98494.4
98496.5
98498.3
98499.9
98501.1
98502.1
98502.9
98503.4
98503.8
98503.9
98503.9
98503.8
98503.7
98503.7
98503.8
98504.1
98504.9
98506.4
98508.6
98511.9
98516.4
98522.4
98530.1
98539.8
98551.5
98565.6
98582.2
98601.2
98622.8
98647.1
98673.8
98703.1
98734.8
98769
98805.3
98843.6
98883.9
98925.9
98969.5
99014.5
99060.6
99107.6
99155.2
99202.8
99250.3
99297.1
99342.9
99386.9
99428.5
99466.8
99501.2
99530.6
99554.7
99572.4
99582.7
99585
99579.2
99564.4
99541.1
99508.7
99468.3
99419.7
99365.2
99304.1
99239.7
99170.7
99100.8
99027.6
98953
98231.6
98231.4
98230.7
98229.7
98228.2
98226.4
98224.3
98221.9
98219.1
98216.1
98212.8
98209.3
98205.6
98201.7
98197.8
98193.7
98189.5
98185.2
98180.9
98176.5
98172
98167.4
98162.7
98158
98153.2
98148.3
98143.4
98138.5
98133.5
98128.5
98123.4
98118.4
98113.4
98108.3
98103.4
98098.4
98093.5
98088.7
98083.9
98079.3
98074.7
98070.3
98066
98061.9
98057.9
98054.3
98050.8
98047.6
98044.7
98042.1
98039.9
98038
98036.4
98035.3
98034.6
98034.4
98034.6
98035.4
98036.7
98038.6
98041
98043.9
98047.5
98051.6
98056.4
98061.7
98067.7
98074.2
98081.3
98089
98097.2
98106
98115.2
98124.8
98134.8
98145.2
98156
98167
98178.2
98189.7
98201.3
98213
98224.8
98236.6
98248.4
98260.2
98271.8
98283.3
98294.7
98305.8
98316.6
98327.1
98337.2
98347
98356.3
98365.2
98373.6
98381.6
98389
98396
98402.6
98408.6
98414.1
98419.1
98423.8
98427.9
98431.7
98435
98438
98440.6
98443
98445
98446.7
98448.2
98449.4
98450.3
98451
98451.4
98451.6
98451.5
98451.2
98450.7
98450.1
98449.3
98448.5
98447.8
98447.2
98446.8
98447
98447.8
98449.5
98452.2
98456.2
98461.8
98469
98478.2
98489.5
98503.1
98519
98537.2
98557.9
98580.9
98606.3
98634
98664.1
98696.3
98730.5
98766.6
98804.4
98843.8
98884.6
98926.6
98969.5
99013.1
99056.8
99100.6
99144
99186.3
99227.2
99266.1
99302
99334.4
99362.4
99385.6
99403
99413.7
99417.3
99413.6
99401.8
99382.4
99354.5
99319.4
99276.6
99228.1
99173.4
99115.7
99053.2
98989.9
98923
98855
98207.1
98206.9
98206.4
98205.5
98204.2
98202.6
98200.7
98198.4
98195.9
98193.1
98190.1
98186.8
98183.4
98179.9
98176.2
98172.5
98168.6
98164.7
98160.7
98156.7
98152.6
98148.5
98144.3
98140
98135.7
98131.4
98127.1
98122.7
98118.3
98113.9
98109.4
98105
98100.6
98096.1
98091.7
98087.4
98083
98078.7
98074.5
98070.3
98066.2
98062.2
98058.2
98054.5
98050.9
98047.4
98044.2
98041.2
98038.5
98036
98033.8
98031.9
98030.3
98029.1
98028.3
98027.9
98028
98028.5
98029.5
98031
98033
98035.5
98038.5
98042.1
98046.3
98051
98056.3
98062.1
98068.5
98075.4
98082.8
98090.7
98099
98107.8
98116.9
98126.3
98136.1
98146.1
98156.3
98166.7
98177.2
98187.8
98198.5
98209.2
98219.8
98230.4
98240.9
98251.2
98261.3
98271.2
98280.9
98290.2
98299.2
98307.8
98316
98323.8
98331.1
98338
98344.5
98350.5
98356.1
98361.2
98365.9
98370.1
98373.9
98377.4
98380.5
98383.2
98385.6
98387.8
98389.6
98391.2
98392.5
98393.5
98394.3
98394.9
98395.1
98395.1
98394.9
98394.4
98393.5
98392.5
98391.2
98389.7
98388
98386.3
98384.7
98383.1
98381.8
98381.1
98381
98381.9
98383.8
98387
98391.7
98398.2
98406.6
98417
98429.5
98444.1
98461
98480.2
98501.6
98525.2
98551
98578.8
98608.6
98640.3
98673.7
98708.7
98745.2
98782.9
98821.5
98860.8
98900.5
98940.4
98980
99018.7
99056.1
99091.9
99125.2
99155.3
99181.4
99203.3
99220
99231
99235.6
99233.9
99225
99209.3
99185.8
99156
99118.9
99076.8
99028.8
98978.1
98922.5
98866.3
98806.4
98745.6
98182.9
98182.8
98182.4
98181.6
98180.5
98179.1
98177.4
98175.4
98173.2
98170.7
98168
98165.1
98162
98158.8
98155.4
98152
98148.5
98144.9
98141.3
98137.6
98133.9
98130.2
98126.4
98122.7
98118.9
98115
98111.2
98107.3
98103.5
98099.6
98095.7
98091.8
98087.9
98084
98080.2
98076.3
98072.5
98068.7
98064.9
98061.2
98057.5
98053.9
98050.3
98046.9
98043.6
98040.4
98037.4
98034.6
98032
98029.6
98027.5
98025.6
98024
98022.8
98021.8
98021.3
98021.1
98021.3
98022
98023.1
98024.7
98026.8
98029.3
98032.4
98035.9
98040
98044.6
98049.7
98055.3
98061.4
98068
98075
98082.4
98090.2
98098.3
98106.8
98115.5
98124.4
98133.5
98142.8
98152.2
98161.7
98171.2
98180.7
98190.1
98199.5
98208.7
98217.8
98226.7
98235.3
98243.7
98251.8
98259.6
98267
98274
98280.6
98286.8
98292.6
98298
98303.1
98307.7
98311.9
98315.7
98319.1
98322.1
98324.8
98327.2
98329.3
98331.1
98332.7
98334
98335.1
98335.9
98336.4
98336.7
98336.8
98336.6
98336.1
98335.4
98334.3
98332.9
98331.2
98329.2
98326.9
98324.3
98321.6
98318.8
98315.9
98313.3
98310.9
98309.1
98308
98307.7
98308.6
98310.7
98314.4
98319.7
98326.9
98336
98347.1
98360.2
98375.5
98392.9
98412.4
98433.8
98457.3
98482.6
98510.1
98539.1
98569.6
98601.7
98635
98669.2
98704.2
98739.8
98775.8
98811.4
98846.4
98880.2
98912.6
98942.8
98970.4
98994.2
99014.5
99030.2
99041.1
99046.5
99046.4
99039.9
99027.5
99008.1
98983.2
98951.8
98915.9
98874.6
98830.9
98782.4
98733.6
98680.9
98627.8
98160
98160.1
98159.7
98159.1
98158.2
98157
98155.5
98153.8
98151.8
98149.7
98147.3
98144.7
98141.9
98139.1
98136.1
98133
98129.9
98126.7
98123.4
98120.1
98116.8
98113.5
98110.1
98106.8
98103.4
98100.1
98096.7
98093.3
98089.9
98086.5
98083
98079.6
98076.2
98072.8
98069.4
98066
98062.6
98059.3
98055.9
98052.5
98049.2
98045.9
98042.7
98039.6
98036.5
98033.6
98030.8
98028.1
98025.7
98023.4
98021.2
98019.4
98017.7
98016.4
98015.3
98014.6
98014.2
98014.2
98014.5
98015.3
98016.5
98018.1
98020.1
98022.6
98025.6
98029
98033
98037.4
98042.2
98047.5
98053.2
98059.3
98065.8
98072.7
98079.9
98087.3
98095
98102.9
98110.9
98119.1
98127.3
98135.6
98143.9
98152.2
98160.4
98168.5
98176.5
98184.3
98191.9
98199.3
98206.4
98213.3
98219.8
98226
98231.8
98237.3
98242.3
98247
98251.4
98255.3
98258.9
98262.2
98265.1
98267.7
98269.9
98271.9
98273.5
98274.9
98276.1
98277.1
98277.8
98278.3
98278.6
98278.6
98278.4
98277.9
98277.2
98276.1
98274.8
98273.1
98271.1
98268.7
98265.9
98262.7
98259.2
98255.4
98251.4
98247.3
98243.3
98239.4
98235.8
98232.7
98230.2
98228.8
98228.4
98229.3
98231.7
98235.7
98241.4
98249
98258.5
98270
98283.5
98299
98316.3
98335.5
98356.6
98379.8
98404.5
98430.8
98458.5
98487.5
98517.4
98548.3
98579.8
98611.7
98643.3
98674.4
98704.5
98733.4
98760.3
98785.1
98806.5
98824.7
98839.1
98849.3
98855
98856
98851.4
98841.8
98826.1
98805.7
98779.4
98749.4
98714.7
98677.8
98636.4
98594.9
98549.5
98504.2
98139.4
98139.5
98139.2
98138.7
98138
98137
98135.8
98134.4
98132.7
98130.9
98128.8
98126.6
98124.2
98121.7
98119.1
98116.3
98113.6
98110.7
98107.9
98105
98102
98099.1
98096.1
98093.2
98090.2
98087.3
98084.3
98081.3
98078.2
98075.2
98072.2
98069.2
98066.2
98063.1
98060.1
98057.1
98054.1
98051
98048
98044.9
98041.9
98038.9
98035.9
98033
98030.2
98027.4
98024.7
98022.2
98019.8
98017.5
98015.4
98013.5
98011.8
98010.4
98009.2
98008.3
98007.6
98007.4
98007.4
98007.9
98008.7
98009.8
98011.4
98013.4
98015.8
98018.7
98022
98025.7
98029.8
98034.3
98039.2
98044.5
98050.1
98056.1
98062.3
98068.8
98075.4
98082.3
98089.3
98096.3
98103.5
98110.6
98117.8
98124.9
98131.9
98138.8
98145.5
98152.1
98158.5
98164.6
98170.5
98176.1
98181.4
98186.3
98191
98195.2
98199.2
98202.7
98206
98208.9
98211.5
98213.8
98215.8
98217.5
98219
98220.1
98221
98221.7
98222.2
98222.5
98222.6
98222.5
98222.2
98221.7
98220.9
98219.8
98218.4
98216.8
98214.7
98212.4
98209.6
98206.5
98202.9
98198.8
98194.3
98189.5
98184.4
98179
98173.6
98168.2
98162.9
98158
98153.5
98149.8
98147
98145.3
98144.9
98145.9
98148.4
98152.7
98158.7
98166.6
98176.4
98188.1
98201.6
98216.9
98234
98253.2
98273.8
98296.1
98319.6
98344.4
98370.3
98397.1
98424.6
98452.4
98480
98507.3
98533.7
98558.9
98582.5
98604.3
98623
98638.9
98651.3
98660.5
98665.7
98667.2
98663.9
98656.4
98643.9
98627.4
98605.7
98581.3
98552.6
98522.1
98487.4
98453.1
98414.9
98377.4
98121.5
98121.7
98121.6
98121.2
98120.6
98119.8
98118.9
98117.7
98116.3
98114.8
98113
98111.2
98109.1
98107
98104.7
98102.4
98100
98097.6
98095.1
98092.6
98090
98087.5
98084.9
98082.3
98079.7
98077.1
98074.4
98071.8
98069.1
98066.4
98063.7
98061
98058.3
98055.6
98052.8
98050.1
98047.3
98044.5
98041.7
98038.9
98036
98033.2
98030.4
98027.6
98024.9
98022.2
98019.7
98017.2
98014.8
98012.5
98010.4
98008.4
98006.6
98005.1
98003.7
98002.6
98001.8
98001.3
98001.1
98001.2
98001.6
98002.4
98003.6
98005.1
98007
98009.3
98012
98015.1
98018.6
98022.4
98026.5
98031
98035.8
98040.9
98046.3
98051.8
98057.6
98063.4
98069.4
98075.4
98081.5
98087.6
98093.6
98099.6
98105.4
98111.2
98116.7
98122.1
98127.3
98132.2
98136.9
98141.2
98145.3
98149.1
98152.6
98155.7
98158.5
98161
98163.2
98165.1
98166.7
98168
98169.1
98169.9
98170.5
98170.9
98171
98170.9
98170.7
98170.3
98169.7
98168.9
98167.9
98166.7
98165.3
98163.6
98161.6
98159.2
98156.5
98153.4
98149.8
98145.9
98141.4
98136.4
98131
98125.1
98119
98112.4
98105.8
98098.9
98092.1
98085.5
98079.1
98073.4
98068.4
98064.2
98061.2
98059.5
98059.1
98060.3
98063.1
98067.8
98074.1
98082.4
98092.3
98104.1
98117.6
98133
98150
98168.5
98188.1
98209.1
98231.1
98254
98277.7
98301.6
98325.3
98348.8
98371.4
98392.8
98413
98431.4
98447.4
98460.5
98470.7
98478.2
98482.2
98483.5
98480.9
98475.1
98465
98451.8
98434.1
98414.6
98391.4
98366.8
98338.3
98310.8
98279.5
98249.5
98106.9
98107
98107
98106.7
98106.3
98105.8
98105
98104.1
98103
98101.8
98100.4
98098.8
98097.2
98095.4
98093.6
98091.6
98089.6
98087.6
98085.5
98083.3
98081.2
98079
98076.7
98074.5
98072.2
98069.9
98067.6
98065.2
98062.8
98060.4
98057.9
98055.4
98052.9
98050.4
98047.9
98045.3
98042.7
98040
98037.4
98034.6
98031.9
98029.2
98026.5
98023.7
98021.1
98018.4
98015.9
98013.4
98010.9
98008.6
98006.4
98004.4
98002.5
98000.8
97999.3
97998
97997
97996.2
97995.8
97995.6
97995.7
97996.2
97997
97998.1
97999.6
98001.4
98003.6
98006.1
98008.9
98012.1
98015.6
98019.4
98023.5
98027.8
98032.3
98037
98041.9
98046.9
98051.9
98057
98062.1
98067.2
98072.2
98077.1
98081.9
98086.5
98090.9
98095.2
98099.2
98103
98106.5
98109.7
98112.7
98115.3
98117.7
98119.7
98121.4
98122.9
98124
98124.8
98125.4
98125.8
98126
98125.9
98125.6
98125.1
98124.4
98123.6
98122.6
98121.4
98120
98118.5
98116.8
98114.9
98112.7
98110.3
98107.5
98104.4
98100.9
98097.1
98092.7
98088
98082.6
98076.8
98070.5
98063.7
98056.4
98048.8
98040.9
98032.8
98024.6
98016.4
98008.4
98000.9
97993.9
97987.5
97982.2
97978
97975
97973.5
97973.6
97975.2
97978.6
97983.8
97990.6
97999.3
98009.6
98021.7
98035.3
98050.5
98066.6
98084.1
98102.5
98121.7
98141.7
98161.8
98181.8
98201.6
98220.3
98238
98254.5
98269.4
98282.3
98292.6
98300.1
98305.4
98307.8
98308.1
98305.5
98300.6
98292.3
98281.7
98267.5
98252.1
98233.5
98214.4
98191.6
98170.5
98145.5
98122.7
98095.5
98095.7
98095.7
98095.5
98095.3
98094.9
98094.3
98093.7
98092.8
98091.9
98090.8
98089.6
98088.3
98087
98085.5
98084
98082.4
98080.7
98079
98077.3
98075.5
98073.7
98071.8
98069.9
98067.9
98065.9
98063.8
98061.6
98059.5
98057.2
98055
98052.6
98050.3
98047.9
98045.4
98042.9
98040.4
98037.8
98035.2
98032.5
98029.8
98027
98024.3
98021.6
98018.9
98016.2
98013.6
98011
98008.5
98006.1
98003.8
98001.6
97999.6
97997.7
97996.1
97994.6
97993.4
97992.5
97991.8
97991.3
97991.2
97991.4
97991.8
97992.6
97993.7
97995.1
97996.8
97998.9
98001.2
98003.8
98006.7
98009.9
98013.4
98017
98020.8
98024.8
98028.9
98033
98037.2
98041.5
98045.7
98049.8
98053.9
98057.8
98061.6
98065.3
98068.7
98071.9
98074.8
98077.5
98080
98082.1
98084
98085.6
98086.8
98087.8
98088.5
98088.9
98089
98088.8
98088.4
98087.9
98087.1
98086.1
98084.9
98083.6
98082.1
98080.4
98078.6
98076.6
98074.4
98072.1
98069.6
98066.9
98064
98060.7
98057.2
98053.3
98049
98044.3
98039.2
98033.6
98027.4
98020.8
98013.6
98005.9
97997.7
97989.1
97980.1
97970.9
97961.4
97951.9
97942.5
97933.3
97924.6
97916.4
97909
97902.7
97897.5
97893.7
97891.3
97890.4
97891.2
97893.8
97897.9
97903.8
97911.2
97920.4
97931
97943.1
97956.2
97970.5
97985.6
98001.5
98018
98034.6
98051
98067.2
98082.1
98095.9
98108.7
98119.9
98129.5
98136.7
98141.4
98144.3
98144.5
98143.2
98139.9
98135.2
98128
98119.5
98108.1
98096.1
98081.4
98067
98049.4
98033.9
98014.8
97998.7
98087
98087.3
98087.4
98087.3
98087.2
98087
98086.7
98086.3
98085.7
98085.1
98084.4
98083.5
98082.6
98081.7
98080.6
98079.5
98078.4
98077.1
98075.8
98074.5
98073.1
98071.6
98070.1
98068.5
98066.8
98065
98063.1
98061.1
98059.1
98057
98054.9
98052.6
98050.3
98048
98045.5
98043
98040.5
98037.9
98035.2
98032.4
98029.7
98026.9
98024
98021.2
98018.4
98015.6
98012.8
98010.1
98007.5
98005
98002.5
98000.2
97998
97996
97994.2
97992.6
97991.2
97990.1
97989.2
97988.5
97988.2
97988.1
97988.3
97988.8
97989.6
97990.6
97992
97993.6
97995.5
97997.7
98000.2
98002.8
98005.7
98008.7
98011.9
98015.3
98018.7
98022.1
98025.6
98029.1
98032.5
98035.9
98039.1
98042.2
98045.1
98047.8
98050.3
98052.5
98054.5
98056.2
98057.6
98058.8
98059.6
98060.2
98060.5
98060.4
98060.1
98059.5
98058.6
98057.5
98056.2
98054.6
98052.9
98051
98048.9
98046.7
98044.3
98041.8
98039.1
98036.3
98033.3
98030.1
98026.8
98023.2
98019.4
98015.4
98011
98006.3
98001.2
97995.7
97989.7
97983.3
97976.3
97968.9
97960.9
97952.4
97943.4
97933.9
97924
97913.8
97903.4
97892.7
97882.1
97871.6
97861.3
97851.6
97842.6
97834.4
97827.4
97821.6
97817.1
97814.2
97812.8
97813.1
97814.9
97818.4
97823.3
97829.9
97837.8
97847.1
97857.5
97868.9
97881.1
97893.9
97907.1
97920.4
97933.4
97945.9
97957.1
97967.3
97976.2
97983.8
97989.8
97993.7
97995.5
97995.9
97993.7
97990.3
97985.9
97980.7
97973.9
97966.7
97957.4
97948.1
97936.7
97926.4
97913.2
97902.9
97888.9
97879.1
98081.1
98081.3
98081.5
98081.6
98081.6
98081.6
98081.4
98081.3
98081.1
98080.8
98080.5
98080.1
98079.6
98079.1
98078.6
98077.9
98077.2
98076.5
98075.6
98074.7
98073.6
98072.5
98071.3
98069.9
98068.5
98066.9
98065.2
98063.4
98061.5
98059.5
98057.3
98055.1
98052.8
98050.4
98048
98045.4
98042.7
98040
98037.2
98034.3
98031.4
98028.5
98025.5
98022.5
98019.6
98016.6
98013.7
98010.8
98008
98005.3
98002.7
98000.2
97997.9
97995.8
97993.8
97992
97990.5
97989.2
97988.1
97987.3
97986.7
97986.4
97986.4
97986.7
97987.2
97988
97989.1
97990.4
97992
97993.8
97995.9
97998.1
98000.5
98003.1
98005.8
98008.6
98011.4
98014.3
98017.1
98020
98022.7
98025.3
98027.8
98030.1
98032.2
98034.1
98035.7
98037.1
98038.2
98039
98039.5
98039.7
98039.7
98039.3
98038.6
98037.6
98036.4
98034.8
98033
98030.9
98028.6
98026.2
98023.5
98020.7
98017.8
98014.6
98011.4
98008
98004.4
98000.7
97996.8
97992.8
97988.6
97984.1
97979.5
97974.5
97969.3
97963.7
97957.8
97951.5
97944.8
97937.5
97929.8
97921.6
97912.9
97903.7
97894
97883.8
97873.1
97862.2
97850.9
97839.4
97827.7
97816.1
97804.6
97793.6
97783.3
97773.8
97765.2
97757.8
97751.6
97746.9
97743.7
97742.1
97741.9
97743.3
97746
97750.4
97755.9
97762.7
97770.6
97779.6
97789.1
97799
97809.1
97819.1
97828.9
97837.9
97845.6
97852.2
97857.2
97861.2
97863.4
97863.9
97862.6
97860.3
97855.8
97850.3
97844.2
97838
97831.1
97824.6
97816.6
97809.4
97800.7
97793.8
97784.4
97778.6
97769.2
97764.9
98076.7
98077
98077.3
98077.4
98077.6
98077.8
98077.9
98078.1
98078.3
98078.5
98078.7
98078.9
98079
98079
98079
98078.9
98078.7
98078.4
98077.9
98077.4
98076.7
98075.9
98074.9
98073.8
98072.6
98071.2
98069.6
98067.9
98066
98064
98061.9
98059.7
98057.3
98054.9
98052.3
98049.6
98046.8
98043.9
98041
98037.9
98034.9
98031.7
98028.6
98025.4
98022.2
98019.1
98016
98012.9
98009.9
98007
98004.3
98001.7
97999.2
97996.9
97994.8
97992.9
97991.2
97989.7
97988.5
97987.6
97986.9
97986.4
97986.2
97986.3
97986.7
97987.3
97988.1
97989.2
97990.5
97992.1
97993.8
97995.7
97997.8
98000
98002.2
98004.6
98006.9
98009.3
98011.6
98013.9
98016
98018
98019.8
98021.5
98022.9
98024
98024.9
98025.5
98025.8
98025.8
98025.5
98024.8
98023.9
98022.7
98021.1
98019.3
98017.1
98014.7
98012
98009
98005.8
98002.4
97998.9
97995.2
97991.4
97987.4
97983.2
97979
97974.5
97969.9
97965.2
97960.2
97955.1
97949.8
97944.2
97938.4
97932.3
97926
97919.2
97912.1
97904.6
97896.6
97888.2
97879.3
97870
97860.2
97849.9
97839.1
97827.9
97816.3
97804.3
97792
97779.6
97767.2
97754.9
97742.9
97731.5
97720.9
97711.1
97702.3
97694.9
97688.7
97683.9
97680.6
97678.7
97678.3
97679.3
97681.7
97685.2
97689.8
97695.6
97702.3
97709.4
97716.6
97723.6
97730.5
97737.1
97742.8
97747.2
97750.2
97751.6
97751.7
97750.3
97747.3
97742.9
97737.7
97730.7
97723
97715
97707.6
97700.2
97693.8
97686.6
97681
97674.2
97670.1
97663.8
97662
97656.7
97657.3
98073
98073.2
98073.4
98073.6
98073.8
98074.4
98074.9
98075.8
98076.6
98077.5
98078.4
98079.2
98080
98080.7
98081.3
98081.7
98082
98082.1
98082.1
98081.9
98081.6
98081
98080.3
98079.4
98078.3
98077.1
98075.6
98073.9
98072.1
98070.1
98068
98065.7
98063.2
98060.7
98057.9
98055.1
98052.2
98049.1
98046
98042.8
98039.5
98036.2
98032.8
98029.4
98026.1
98022.7
98019.4
98016.2
98013
98010
98007.1
98004.3
98001.7
97999.3
97997
97995
97993.2
97991.7
97990.4
97989.3
97988.5
97987.9
97987.6
97987.6
97987.8
97988.2
97988.9
97989.9
97991
97992.3
97993.8
97995.5
97997.3
97999.1
98001.1
98003
98005
98006.9
98008.8
98010.5
98012.2
98013.6
98014.9
98015.9
98016.7
98017.2
98017.4
98017.3
98016.9
98016.1
98015.1
98013.7
98012
98009.9
98007.6
98004.9
98002
97998.7
97995.1
97991.3
97987.3
97983.1
97978.7
97974.2
97969.5
97964.6
97959.6
97954.5
97949.2
97943.7
97938.1
97932.3
97926.3
97920
97913.6
97907
97900.1
97892.9
97885.4
97877.6
97869.3
97860.7
97851.7
97842.2
97832.3
97822
97811.2
97799.9
97788.3
97776.2
97763.7
97750.8
97737.9
97724.8
97711.9
97699.3
97687.2
97675.7
97664.8
97655
97646.4
97639
97632.9
97628.2
97624.9
97623
97622.5
97623.2
97624.8
97627.6
97631.4
97635.9
97640.8
97645.4
97649.7
97653.6
97657.2
97659.7
97660.9
97660.6
97658.3
97654.7
97649.6
97643.3
97635.6
97627.4
97618
97608.1
97598.3
97589.5
97581.2
97574.6
97567.7
97563.2
97557.9
97555.9
97552.1
97553.8
97552
97556.9
98068.1
98068.2
98068.2
98068.5
98069.2
98070.5
98072
98073.7
98075.5
98077.3
98079.1
98080.8
98082.3
98083.7
98084.9
98085.9
98086.6
98087.2
98087.5
98087.7
98087.6
98087.3
98086.7
98086
98085
98083.9
98082.4
98080.8
98079
98077
98074.8
98072.4
98069.9
98067.2
98064.4
98061.4
98058.3
98055.1
98051.8
98048.4
98044.9
98041.4
98037.9
98034.3
98030.8
98027.3
98023.8
98020.4
98017.1
98013.9
98010.9
98008
98005.3
98002.7
98000.4
97998.3
97996.4
97994.8
97993.4
97992.3
97991.4
97990.7
97990.4
97990.2
97990.4
97990.7
97991.3
97992.1
97993.1
97994.3
97995.6
97997.1
97998.6
98000.2
98001.8
98003.5
98005.1
98006.6
98008.1
98009.4
98010.6
98011.5
98012.3
98012.8
98013
98012.9
98012.5
98011.8
98010.7
98009.3
98007.6
98005.5
98003
98000.3
97997.2
97993.7
97990
97986
97981.7
97977.2
97972.4
97967.4
97962.2
97956.8
97951.3
97945.7
97939.8
97933.9
97927.8
97921.5
97915
97908.4
97901.5
97894.5
97887.3
97879.8
97872.2
97864.3
97856.1
97847.5
97838.6
97829.4
97819.9
97810
97799.6
97788.8
97777.7
97766.1
97754.1
97741.6
97728.7
97715.5
97702.1
97688.7
97675.3