/*--------------------------------*- C++ -*----------------------------------*\
| =========                 |                                                 |
| \\      /  F ield         | OpenFOAM: The Open Source CFD Toolbox           |
|  \\    /   O peration     | Version:  dev                                   |
|   \\  /    A nd           | Web:      http://www.openfoam.org               |
|    \\/     M anipulation  |                                                 |
\*---------------------------------------------------------------------------*/
FoamFile
{
    version     2.0;
    format      ascii;
    class       volScalarField;
    object      pPrime2Mean;
    location    "9.13";
}
// * * * * * * * * * * * * * * * * * * * * * * * * * * * * * * * * * * * * * //

dimensions      [2 -2 -4 0 0 0 0];

internalField   nonuniform List<scalar> 
12225
(
5.03821e+07
4.99171e+07
4.89564e+07
4.76052e+07
4.59515e+07
4.40846e+07
4.20637e+07
3.99608e+07
3.78168e+07
3.56797e+07
3.35871e+07
3.15421e+07
2.96185e+07
2.77473e+07
2.59996e+07
2.44385e+07
2.28764e+07
2.12962e+07
5.02742e+07
4.98092e+07
4.88493e+07
4.74998e+07
4.58475e+07
4.3983e+07
4.1965e+07
3.98647e+07
3.77246e+07
3.55901e+07
3.35023e+07
3.14609e+07
2.9542e+07
2.76776e+07
2.59473e+07
2.43864e+07
2.28772e+07
2.15424e+07
5.0024e+07
4.95595e+07
4.86001e+07
4.72537e+07
4.56059e+07
4.37461e+07
4.17348e+07
3.96408e+07
3.75089e+07
3.53825e+07
3.33031e+07
3.12735e+07
2.93606e+07
2.75134e+07
2.5803e+07
2.4247e+07
2.28116e+07
2.15979e+07
4.95881e+07
4.91266e+07
4.81694e+07
4.68282e+07
4.51884e+07
4.33371e+07
4.13375e+07
3.9254e+07
3.71368e+07
3.50239e+07
3.29604e+07
3.09486e+07
2.90529e+07
2.72251e+07
2.55444e+07
2.40131e+07
2.26265e+07
2.1525e+07
4.89226e+07
4.84613e+07
4.75089e+07
4.61772e+07
4.45492e+07
4.27125e+07
4.07286e+07
3.86645e+07
3.65663e+07
3.44776e+07
3.24343e+07
3.04533e+07
2.85802e+07
2.67885e+07
2.51601e+07
2.36513e+07
2.23699e+07
2.1305e+07
4.79729e+07
4.7509e+07
4.65662e+07
4.52478e+07
4.36378e+07
4.18209e+07
3.98617e+07
3.78232e+07
3.57552e+07
3.36961e+07
3.16871e+07
2.97402e+07
2.79055e+07
2.61603e+07
2.45814e+07
2.31421e+07
2.19152e+07
2.08585e+07
4.66772e+07
4.6212e+07
4.52847e+07
4.39827e+07
4.23988e+07
4.06075e+07
3.8684e+07
3.66788e+07
3.46537e+07
3.26337e+07
3.0673e+07
2.87718e+07
2.69885e+07
2.53012e+07
2.37793e+07
2.24001e+07
2.12315e+07
2.02035e+07
4.52344e+07
4.47708e+07
4.38598e+07
4.25756e+07
4.10204e+07
3.92588e+07
3.73738e+07
3.54077e+07
3.34279e+07
3.1454e+07
2.95432e+07
2.76957e+07
2.59639e+07
2.43398e+07
2.28664e+07
2.15505e+07
2.04146e+07
1.94547e+07
4.37187e+07
4.32586e+07
4.23639e+07
4.10995e+07
3.95739e+07
3.78447e+07
3.59991e+07
3.40754e+07
3.21418e+07
3.02175e+07
2.83577e+07
2.65659e+07
2.48878e+07
2.33245e+07
2.19032e+07
2.06434e+07
1.95495e+07
1.86508e+07
4.17775e+07
4.13241e+07
4.04488e+07
3.9212e+07
3.77229e+07
3.60377e+07
3.4241e+07
3.23734e+07
3.04971e+07
2.86377e+07
2.68407e+07
2.51205e+07
2.35086e+07
2.20199e+07
2.0665e+07
1.94728e+07
1.84358e+07
1.75831e+07
3.93275e+07
3.88842e+07
3.80324e+07
3.68324e+07
3.53891e+07
3.3761e+07
3.20264e+07
3.02298e+07
2.84267e+07
2.66476e+07
2.4931e+07
2.32968e+07
2.17687e+07
2.03662e+07
1.90943e+07
1.7979e+07
1.70089e+07
1.62024e+07
3.63025e+07
3.58741e+07
3.50505e+07
3.38994e+07
3.25133e+07
3.09586e+07
2.93013e+07
2.75939e+07
2.58813e+07
2.42012e+07
2.25828e+07
2.10516e+07
1.96244e+07
1.83213e+07
1.7146e+07
1.61151e+07
1.52207e+07
1.44674e+07
3.26876e+07
3.22778e+07
3.14906e+07
3.04007e+07
2.90869e+07
2.76212e+07
2.60597e+07
2.44589e+07
2.28565e+07
2.12929e+07
1.97913e+07
1.83793e+07
1.70685e+07
1.58776e+07
1.4809e+07
1.38717e+07
1.30606e+07
1.23725e+07
2.85739e+07
2.81868e+07
2.74464e+07
2.64288e+07
2.52034e+07
2.38412e+07
2.23938e+07
2.09151e+07
1.94409e+07
1.80082e+07
1.66395e+07
1.53582e+07
1.4176e+07
1.31058e+07
1.21508e+07
1.13138e+07
1.05915e+07
9.97758e+06
2.4247e+07
2.38864e+07
2.32021e+07
2.22654e+07
2.11401e+07
1.98921e+07
1.85703e+07
1.7224e+07
1.58875e+07
1.45936e+07
1.33639e+07
1.22177e+07
1.1166e+07
1.02176e+07
9.37502e+06
8.63827e+06
8.00415e+06
7.46599e+06
2.02979e+07
1.9966e+07
1.93413e+07
1.84863e+07
1.74625e+07
1.63277e+07
1.51296e+07
1.39115e+07
1.27068e+07
1.15437e+07
1.04429e+07
9.41996e+06
8.48494e+06
7.64386e+06
6.89861e+06
6.24792e+06
5.68861e+06
5.21447e+06
1.77309e+07
1.74246e+07
1.685e+07
1.60629e+07
1.51216e+07
1.40778e+07
1.2977e+07
1.18583e+07
1.07533e+07
9.68711e+06
8.67869e+06
7.74161e+06
6.88457e+06
6.11236e+06
5.42632e+06
4.8251e+06
4.30569e+06
3.86275e+06
1.78392e+07
1.75447e+07
1.69924e+07
1.62349e+07
1.53282e+07
1.43214e+07
1.32582e+07
1.21754e+07
1.11032e+07
1.00652e+07
9.07924e+06
8.15794e+06
7.30941e+06
6.53814e+06
5.84554e+06
5.23077e+06
4.69131e+06
4.22283e+06
2.07181e+07
2.04191e+07
1.9857e+07
1.90844e+07
1.81582e+07
1.71275e+07
1.60357e+07
1.49194e+07
1.38086e+07
1.27267e+07
1.16913e+07
1.07149e+07
9.80598e+06
8.96921e+06
8.20653e+06
7.51786e+06
6.90135e+06
6.35363e+06
2.52082e+07
2.48963e+07
2.43062e+07
2.34926e+07
2.25148e+07
2.14238e+07
2.02641e+07
1.90733e+07
1.7882e+07
1.67142e+07
1.55881e+07
1.45167e+07
1.35089e+07
1.25701e+07
1.17029e+07
1.09079e+07
1.01842e+07
9.52919e+06
3.02711e+07
2.99452e+07
2.93218e+07
2.84586e+07
2.74184e+07
2.62542e+07
2.50124e+07
2.37322e+07
2.24452e+07
2.11766e+07
1.99452e+07
1.87649e+07
1.76454e+07
1.65927e+07
1.56103e+07
1.46995e+07
1.38599e+07
1.309e+07
3.51884e+07
3.48508e+07
3.41963e+07
3.32861e+07
3.21857e+07
3.09502e+07
2.96282e+07
2.82603e+07
2.68797e+07
2.55125e+07
2.41786e+07
2.28927e+07
2.16652e+07
2.05029e+07
1.94101e+07
1.83887e+07
1.74391e+07
1.65601e+07
3.95407e+07
3.91947e+07
3.85149e+07
3.75649e+07
3.64128e+07
3.51156e+07
3.37235e+07
3.22786e+07
3.08155e+07
2.93614e+07
2.7937e+07
2.6558e+07
2.52354e+07
2.39768e+07
2.27871e+07
2.16688e+07
2.06228e+07
1.96486e+07
4.31389e+07
4.27878e+07
4.20887e+07
4.11077e+07
3.99145e+07
3.85674e+07
3.71183e+07
3.56105e+07
3.40798e+07
3.25541e+07
3.10553e+07
2.95996e+07
2.81987e+07
2.68609e+07
2.55915e+07
2.43935e+07
2.32683e+07
2.22159e+07
4.59493e+07
4.55952e+07
4.48822e+07
4.38783e+07
4.26541e+07
4.12689e+07
3.97758e+07
3.82194e+07
3.66362e+07
3.5055e+07
3.34983e+07
3.19829e+07
3.05211e+07
2.91217e+07
2.77902e+07
2.65303e+07
2.53436e+07
2.42302e+07
4.80289e+07
4.76732e+07
4.69506e+07
4.59306e+07
4.46839e+07
4.32711e+07
4.17458e+07
4.01537e+07
3.85319e+07
3.69098e+07
3.53104e+07
3.37511e+07
3.22445e+07
3.07996e+07
2.94226e+07
2.8117e+07
2.68849e+07
2.57266e+07
4.94787e+07
4.91222e+07
4.83929e+07
4.7362e+07
4.61001e+07
4.46683e+07
4.31211e+07
4.15044e+07
3.98559e+07
3.82056e+07
3.65767e+07
3.49869e+07
3.34492e+07
3.19729e+07
3.05642e+07
2.92271e+07
2.79635e+07
2.67741e+07
5.04144e+07
5.00568e+07
4.93233e+07
4.82857e+07
4.70141e+07
4.55702e+07
4.4009e+07
4.23768e+07
4.07113e+07
3.90429e+07
3.73951e+07
3.57858e+07
3.42282e+07
3.27316e+07
3.13025e+07
2.9945e+07
2.86613e+07
2.74519e+07
5.09438e+07
5.05859e+07
4.98509e+07
4.88102e+07
4.75331e+07
4.60827e+07
4.45137e+07
4.28725e+07
4.11972e+07
3.95183e+07
3.78597e+07
3.62391e+07
3.467e+07
3.31617e+07
3.17209e+07
3.03518e+07
2.90566e+07
2.78363e+07
5.11661e+07
5.08097e+07
5.00728e+07
4.90302e+07
4.77507e+07
4.62975e+07
4.4725e+07
4.30799e+07
4.14004e+07
3.97171e+07
3.80537e+07
3.64283e+07
3.48543e+07
3.33411e+07
3.18953e+07
3.05212e+07
2.92214e+07
2.79965e+07
6.04893e+07
6.04302e+07
6.02995e+07
6.00936e+07
5.98108e+07
5.94502e+07
5.9012e+07
5.8497e+07
5.79061e+07
5.7241e+07
5.65035e+07
5.56956e+07
5.48197e+07
5.38784e+07
5.28743e+07
5.18106e+07
5.06904e+07
4.95173e+07
4.82949e+07
4.7027e+07
4.57177e+07
4.43711e+07
4.29913e+07
4.15827e+07
4.01499e+07
3.86973e+07
3.72296e+07
3.5751e+07
3.4266e+07
3.27794e+07
3.12956e+07
2.98192e+07
2.83549e+07
2.69071e+07
2.54806e+07
2.40799e+07
2.27096e+07
2.13743e+07
2.0079e+07
1.88282e+07
1.76269e+07
1.64799e+07
1.53922e+07
1.43689e+07
1.34152e+07
1.25362e+07
1.17373e+07
1.10238e+07
1.04011e+07
9.87478e+06
9.45018e+06
9.13275e+06
8.9279e+06
8.84089e+06
8.87681e+06
9.04049e+06
9.33648e+06
9.76902e+06
1.0342e+07
1.10586e+07
1.19217e+07
1.29333e+07
1.40949e+07
1.54073e+07
1.68704e+07
1.84834e+07
2.02446e+07
2.21516e+07
2.42013e+07
2.63898e+07
2.87126e+07
3.11644e+07
3.37392e+07
3.64306e+07
3.92318e+07
4.21356e+07
4.51344e+07
4.82205e+07
5.13861e+07
5.4623e+07
5.79234e+07
6.12789e+07
6.46812e+07
6.81218e+07
7.1592e+07
7.50829e+07
7.85854e+07
8.209e+07
8.55867e+07
8.90651e+07
9.25142e+07
9.59226e+07
9.92782e+07
1.02569e+08
1.05781e+08
1.08903e+08
1.11922e+08
1.14826e+08
1.17603e+08
1.20243e+08
1.22736e+08
1.25075e+08
1.27251e+08
1.2926e+08
1.31098e+08
1.32762e+08
1.34254e+08
1.35574e+08
1.3673e+08
1.37727e+08
1.38577e+08
1.39291e+08
1.39882e+08
1.40364e+08
1.40755e+08
1.41071e+08
1.41333e+08
1.41562e+08
1.41781e+08
1.42017e+08
1.42299e+08
1.42662e+08
1.43141e+08
1.43776e+08
1.44611e+08
1.45694e+08
1.47077e+08
1.48816e+08
1.50973e+08
1.5361e+08
1.5679e+08
1.60575e+08
1.65027e+08
1.70203e+08
1.76156e+08
1.82931e+08
1.90564e+08
1.99082e+08
2.085e+08
2.18821e+08
2.30038e+08
2.4213e+08
2.55068e+08
2.6881e+08
2.83315e+08
2.98518e+08
3.14373e+08
3.30807e+08
3.47758e+08
3.6515e+08
3.8291e+08
4.00955e+08
4.19194e+08
4.37534e+08
4.55854e+08
4.74013e+08
4.91849e+08
5.09192e+08
5.25808e+08
5.41464e+08
5.5586e+08
5.68697e+08
5.79634e+08
5.88347e+08
5.94501e+08
5.978e+08
5.97983e+08
5.94869e+08
5.88331e+08
5.78397e+08
5.65147e+08
5.48848e+08
5.29819e+08
5.08552e+08
4.85521e+08
4.61252e+08
4.3611e+08
4.10532e+08
3.84728e+08
3.59025e+08
5.94136e+07
5.9358e+07
5.92328e+07
5.90328e+07
5.87564e+07
5.84035e+07
5.79746e+07
5.7471e+07
5.68937e+07
5.62442e+07
5.55242e+07
5.47358e+07
5.38811e+07
5.29625e+07
5.19825e+07
5.0944e+07
4.985e+07
4.87038e+07
4.7509e+07
4.62693e+07
4.49885e+07
4.36707e+07
4.23201e+07
4.09408e+07
3.95372e+07
3.81138e+07
3.66749e+07
3.52247e+07
3.37678e+07
3.23085e+07
3.08513e+07
2.94008e+07
2.79614e+07
2.65378e+07
2.51343e+07
2.37556e+07
2.24062e+07
2.10906e+07
1.98137e+07
1.858e+07
1.73945e+07
1.62619e+07
1.51873e+07
1.41756e+07
1.32321e+07
1.23619e+07
1.15703e+07
1.08627e+07
1.02444e+07
9.72108e+06
9.29802e+06
8.98069e+06
8.77446e+06
8.68456e+06
8.71612e+06
8.87401e+06
9.1628e+06
9.5867e+06
1.01495e+07
1.08546e+07
1.17046e+07
1.27016e+07
1.38471e+07
1.51418e+07
1.65857e+07
1.8178e+07
1.99169e+07
2.18001e+07
2.38245e+07
2.59861e+07
2.82804e+07
3.07021e+07
3.32455e+07
3.59039e+07
3.86708e+07
4.15388e+07
4.45005e+07
4.75484e+07
5.06744e+07
5.38706e+07
5.7129e+07
6.04414e+07
6.37995e+07
6.71951e+07
7.06193e+07
7.40634e+07
7.75183e+07
8.09745e+07
8.44221e+07
8.7851e+07
9.12502e+07
9.46084e+07
9.79138e+07
1.01154e+08
1.04317e+08
1.0739e+08
1.1036e+08
1.13216e+08
1.15947e+08
1.18543e+08
1.20993e+08
1.23291e+08
1.25429e+08
1.27402e+08
1.29207e+08
1.30842e+08
1.32306e+08
1.33602e+08
1.34736e+08
1.35715e+08
1.36549e+08
1.37249e+08
1.37829e+08
1.38302e+08
1.38684e+08
1.38993e+08
1.39248e+08
1.39469e+08
1.39681e+08
1.39907e+08
1.40179e+08
1.40528e+08
1.4099e+08
1.41603e+08
1.42412e+08
1.43462e+08
1.44806e+08
1.46499e+08
1.48601e+08
1.51173e+08
1.54279e+08
1.5798e+08
1.62335e+08
1.67402e+08
1.73232e+08
1.79871e+08
1.87354e+08
1.95709e+08
2.04949e+08
2.15079e+08
2.26091e+08
2.37964e+08
2.50673e+08
2.64176e+08
2.78431e+08
2.93376e+08
3.08962e+08
3.25126e+08
3.41801e+08
3.58913e+08
3.76392e+08
3.94156e+08
4.12118e+08
4.30186e+08
4.4824e+08
4.66144e+08
4.83735e+08
5.00851e+08
5.17264e+08
5.32738e+08
5.46989e+08
5.5972e+08
5.70593e+08
5.7929e+08
5.85484e+08
5.88885e+08
5.89235e+08
5.86358e+08
5.80122e+08
5.70539e+08
5.57683e+08
5.41811e+08
5.23228e+08
5.02417e+08
4.79836e+08
4.55996e+08
4.31264e+08
4.06067e+08
3.80616e+08
3.5515e+08
5.7347e+07
5.72939e+07
5.71743e+07
5.69827e+07
5.6718e+07
5.63804e+07
5.59712e+07
5.54914e+07
5.49418e+07
5.43238e+07
5.36388e+07
5.28885e+07
5.20747e+07
5.11996e+07
5.02655e+07
4.92749e+07
4.82306e+07
4.71357e+07
4.59935e+07
4.48074e+07
4.35812e+07
4.23187e+07
4.10238e+07
3.97007e+07
3.83533e+07
3.69856e+07
3.56017e+07
3.42057e+07
3.28021e+07
3.1395e+07
2.99889e+07
2.8588e+07
2.71969e+07
2.58197e+07
2.44609e+07
2.31248e+07
2.18158e+07
2.05383e+07
1.9297e+07
1.80966e+07
1.69418e+07
1.58373e+07
1.47881e+07
1.37991e+07
1.28754e+07
1.20223e+07
1.12451e+07
1.0549e+07
9.93956e+06
9.42209e+06
9.00206e+06
8.68491e+06
8.47602e+06
8.38064e+06
8.40385e+06
8.55054e+06
8.82527e+06
9.23225e+06
9.77529e+06
1.04577e+07
1.1282e+07
1.22505e+07
1.33645e+07
1.46247e+07
1.6031e+07
1.75825e+07
1.92776e+07
2.11139e+07
2.30883e+07
2.5197e+07
2.74353e+07
2.97981e+07
3.22796e+07
3.48734e+07
3.75729e+07
4.03709e+07
4.32601e+07
4.6233e+07
4.92819e+07
5.23987e+07
5.55756e+07
5.88045e+07
6.20772e+07
6.53853e+07
6.87204e+07
7.20737e+07
7.54364e+07
7.87991e+07
8.2152e+07
8.54851e+07
8.87876e+07
9.20485e+07
9.52563e+07
9.83991e+07
1.01465e+08
1.04441e+08
1.07317e+08
1.1008e+08
1.1272e+08
1.15228e+08
1.17594e+08
1.19812e+08
1.21875e+08
1.23778e+08
1.25519e+08
1.27094e+08
1.28505e+08
1.29753e+08
1.30845e+08
1.31788e+08
1.32592e+08
1.33266e+08
1.33824e+08
1.34278e+08
1.34645e+08
1.34939e+08
1.3518e+08
1.35386e+08
1.35582e+08
1.35791e+08
1.3604e+08
1.36361e+08
1.36787e+08
1.37357e+08
1.38111e+08
1.39097e+08
1.40362e+08
1.41962e+08
1.43953e+08
1.46397e+08
1.49354e+08
1.52886e+08
1.57049e+08
1.619e+08
1.67487e+08
1.73856e+08
1.81042e+08
1.89072e+08
1.9796e+08
2.0771e+08
2.18316e+08
2.29758e+08
2.42012e+08
2.55043e+08
2.68803e+08
2.83237e+08
2.98291e+08
3.13915e+08
3.3004e+08
3.46596e+08
3.63512e+08
3.80716e+08
3.98122e+08
4.1564e+08
4.33152e+08
4.50535e+08
4.67626e+08
4.84266e+08
5.0024e+08
5.15318e+08
5.29236e+08
5.417e+08
5.5239e+08
5.61003e+08
5.67219e+08
5.70766e+08
5.71395e+08
5.68932e+08
5.63242e+08
5.54313e+08
5.42218e+08
5.27183e+08
5.09493e+08
4.89603e+08
4.67939e+08
4.44979e+08
4.21097e+08
3.96694e+08
3.71994e+08
3.4717e+08
5.44514e+07
5.44021e+07
5.429e+07
5.41106e+07
5.38637e+07
5.355e+07
5.31704e+07
5.27253e+07
5.22156e+07
5.16422e+07
5.10061e+07
5.03087e+07
4.95516e+07
4.87363e+07
4.78649e+07
4.69399e+07
4.59638e+07
4.49394e+07
4.38697e+07
4.27578e+07
4.16074e+07
4.04218e+07
3.92046e+07
3.79595e+07
3.66899e+07
3.53995e+07
3.40922e+07
3.27718e+07
3.14426e+07
3.01086e+07
2.87739e+07
2.74427e+07
2.61189e+07
2.48068e+07
2.35103e+07
2.22335e+07
2.09809e+07
1.97568e+07
1.85656e+07
1.74118e+07
1.63e+07
1.52349e+07
1.42213e+07
1.32642e+07
1.23687e+07
1.15398e+07
1.07828e+07
1.01031e+07
9.50594e+06
8.99683e+06
8.58116e+06
8.26435e+06
8.05176e+06
7.94861e+06
7.95997e+06
8.09073e+06
8.34547e+06
8.72837e+06
9.24319e+06
9.89316e+06
1.0681e+07
1.16087e+07
1.26776e+07
1.38885e+07
1.52412e+07
1.67347e+07
1.83674e+07
2.0137e+07
2.20405e+07
2.40741e+07
2.62331e+07
2.85126e+07
3.09068e+07
3.34095e+07
3.60141e+07
3.87137e+07
4.15012e+07
4.43691e+07
4.73099e+07
5.03158e+07
5.3379e+07
5.64914e+07
5.96451e+07
6.28319e+07
6.60432e+07
6.92705e+07
7.25052e+07
7.57381e+07
7.89596e+07
8.21598e+07
8.53282e+07
8.8454e+07
9.15262e+07
9.45331e+07
9.74633e+07
1.00305e+08
1.03048e+08
1.05681e+08
1.08194e+08
1.10578e+08
1.12826e+08
1.14931e+08
1.16887e+08
1.18691e+08
1.20338e+08
1.21829e+08
1.23163e+08
1.24344e+08
1.25377e+08
1.26268e+08
1.27026e+08
1.27662e+08
1.28188e+08
1.28615e+08
1.28957e+08
1.29229e+08
1.29448e+08
1.29632e+08
1.29804e+08
1.29986e+08
1.30202e+08
1.30481e+08
1.30856e+08
1.31362e+08
1.32039e+08
1.32931e+08
1.34085e+08
1.35553e+08
1.37389e+08
1.39652e+08
1.42399e+08
1.45692e+08
1.49584e+08
1.5413e+08
1.59377e+08
1.65367e+08
1.72135e+08
1.7971e+08
1.88105e+08
1.97326e+08
2.07364e+08
2.18205e+08
2.29828e+08
2.422e+08
2.55273e+08
2.68996e+08
2.83317e+08
2.98192e+08
3.13558e+08
3.29348e+08
3.4549e+08
3.61922e+08
3.78562e+08
3.95318e+08
4.12082e+08
4.28736e+08
4.45128e+08
4.61101e+08
4.76456e+08
4.90971e+08
5.04398e+08
5.1646e+08
5.2686e+08
5.35313e+08
5.41515e+08
5.4521e+08
5.46159e+08
5.44194e+08
5.39184e+08
5.31099e+08
5.19999e+08
5.06076e+08
4.89592e+08
4.7096e+08
4.50561e+08
4.28838e+08
4.06153e+08
3.82881e+08
3.5926e+08
3.35442e+08
5.09275e+07
5.08835e+07
5.07815e+07
5.06185e+07
5.03948e+07
5.01108e+07
4.9767e+07
4.93635e+07
4.89013e+07
4.83807e+07
4.78024e+07
4.71675e+07
4.64772e+07
4.5733e+07
4.49367e+07
4.40903e+07
4.31961e+07
4.22565e+07
4.12742e+07
4.0252e+07
3.9193e+07
3.81003e+07
3.69768e+07
3.58256e+07
3.46498e+07
3.34529e+07
3.22385e+07
3.10103e+07
2.97719e+07
2.85272e+07
2.72799e+07
2.60337e+07
2.47923e+07
2.35594e+07
2.2339e+07
2.1135e+07
1.99515e+07
1.87926e+07
1.76626e+07
1.65658e+07
1.55067e+07
1.44899e+07
1.35201e+07
1.26021e+07
1.1741e+07
1.09418e+07
1.02096e+07
9.54987e+06
8.96782e+06
8.4689e+06
8.05849e+06
7.74198e+06
7.52472e+06
7.41193e+06
7.40863e+06
7.51967e+06
7.74958e+06
8.1025e+06
8.58215e+06
9.19176e+06
9.93399e+06
1.08109e+07
1.18237e+07
1.29731e+07
1.4259e+07
1.56803e+07
1.72355e+07
1.89223e+07
2.07377e+07
2.2678e+07
2.47387e+07
2.69148e+07
2.92008e+07
3.15906e+07
3.40778e+07
3.66557e+07
3.93173e+07
4.20555e+07
4.48629e+07
4.77318e+07
5.06546e+07
5.36236e+07
5.66308e+07
5.96682e+07
6.27276e+07
6.58003e+07
6.88782e+07
7.19521e+07
7.50126e+07
7.80502e+07
8.10548e+07
8.40159e+07
8.69228e+07
8.97643e+07
9.25296e+07
9.52079e+07
9.77889e+07
1.00263e+08
1.02621e+08
1.04855e+08
1.06957e+08
1.08923e+08
1.10749e+08
1.12429e+08
1.13962e+08
1.15348e+08
1.16588e+08
1.17684e+08
1.18642e+08
1.19467e+08
1.20169e+08
1.20756e+08
1.21239e+08
1.21629e+08
1.21939e+08
1.22181e+08
1.22372e+08
1.22528e+08
1.22667e+08
1.22812e+08
1.22985e+08
1.23213e+08
1.23524e+08
1.23952e+08
1.24535e+08
1.25313e+08
1.2633e+08
1.27637e+08
1.29284e+08
1.31326e+08
1.33818e+08
1.36819e+08
1.40381e+08
1.44556e+08
1.49389e+08
1.5492e+08
1.61184e+08
1.68208e+08
1.76008e+08
1.84588e+08
1.93944e+08
2.04062e+08
2.14922e+08
2.26499e+08
2.38746e+08
2.5162e+08
2.65064e+08
2.79045e+08
2.93503e+08
3.08379e+08
3.23601e+08
3.39111e+08
3.54832e+08
3.70677e+08
3.86542e+08
4.02317e+08
4.17861e+08
4.33025e+08
4.47624e+08
4.61449e+08
4.74263e+08
4.85815e+08
4.95836e+08
5.04054e+08
5.10191e+08
5.14006e+08
5.15272e+08
5.13837e+08
5.09573e+08
5.02436e+08
4.9247e+08
4.79829e+08
4.64753e+08
4.47603e+08
4.28713e+08
4.08491e+08
3.87264e+08
3.65384e+08
3.431e+08
3.20571e+08
4.69982e+07
4.69612e+07
4.68718e+07
4.6728e+07
4.65303e+07
4.62791e+07
4.59743e+07
4.56165e+07
4.52057e+07
4.47422e+07
4.42265e+07
4.36596e+07
4.30423e+07
4.23759e+07
4.16619e+07
4.09018e+07
4.00977e+07
3.92515e+07
3.83655e+07
3.74423e+07
3.64843e+07
3.5494e+07
3.44738e+07
3.34265e+07
3.23549e+07
3.1262e+07
3.01511e+07
2.90255e+07
2.78886e+07
2.67435e+07
2.55936e+07
2.44423e+07
2.32929e+07
2.21488e+07
2.10137e+07
1.98913e+07
1.87854e+07
1.76999e+07
1.66388e+07
1.56063e+07
1.46066e+07
1.36443e+07
1.27238e+07
1.185e+07
1.10276e+07
1.02618e+07
9.55753e+06
8.92019e+06
8.35505e+06
7.86747e+06
7.46282e+06
7.14646e+06
6.92374e+06
6.7998e+06
6.77965e+06
6.86807e+06
7.06954e+06
7.38818e+06
7.82762e+06
8.39106e+06
9.08109e+06
9.8997e+06
1.08482e+07
1.19272e+07
1.31365e+07
1.44753e+07
1.59418e+07
1.75338e+07
1.92484e+07
2.1082e+07
2.30302e+07
2.50881e+07
2.72504e+07
2.95112e+07
3.18643e+07
3.43033e+07
3.68213e+07
3.94114e+07
4.20665e+07
4.47791e+07
4.75419e+07
5.03472e+07
5.31874e+07
5.60547e+07
5.8941e+07
6.1838e+07
6.47374e+07
6.76306e+07
7.05084e+07
7.33614e+07
7.61801e+07
7.89547e+07
8.16748e+07
8.43297e+07
8.69093e+07
8.94037e+07
9.18035e+07
9.40997e+07
9.6284e+07
9.83489e+07
1.00288e+08
1.02098e+08
1.03776e+08
1.05317e+08
1.06721e+08
1.07988e+08
1.0912e+08
1.1012e+08
1.10992e+08
1.11741e+08
1.12375e+08
1.12904e+08
1.13336e+08
1.13681e+08
1.1395e+08
1.14155e+08
1.1431e+08
1.1443e+08
1.1453e+08
1.14631e+08
1.14752e+08
1.14919e+08
1.15157e+08
1.15498e+08
1.15976e+08
1.16625e+08
1.1749e+08
1.18615e+08
1.2005e+08
1.21846e+08
1.24053e+08
1.26728e+08
1.29921e+08
1.33681e+08
1.38051e+08
1.43071e+08
1.48773e+08
1.55187e+08
1.62325e+08
1.70196e+08
1.78796e+08
1.88116e+08
1.98136e+08
2.08834e+08
2.20172e+08
2.32111e+08
2.44598e+08
2.57598e+08
2.71062e+08
2.84935e+08
2.9915e+08
3.13648e+08
3.28361e+08
3.43202e+08
3.58076e+08
3.72879e+08
3.87484e+08
4.01743e+08
4.15491e+08
4.28536e+08
4.4065e+08
4.51604e+08
4.61164e+08
4.69076e+08
4.75089e+08
4.78969e+08
4.80518e+08
4.79598e+08
4.76081e+08
4.69916e+08
4.61125e+08
4.49839e+08
4.36266e+08
4.20715e+08
4.03475e+08
3.84915e+08
3.65318e+08
3.45011e+08
3.24245e+08
3.03207e+08
4.28888e+07
4.28592e+07
4.27834e+07
4.26599e+07
4.24894e+07
4.22718e+07
4.20075e+07
4.16962e+07
4.13379e+07
4.09327e+07
4.04812e+07
3.9984e+07
3.94418e+07
3.88555e+07
3.82261e+07
3.75552e+07
3.68441e+07
3.60946e+07
3.53085e+07
3.44877e+07
3.36341e+07
3.27498e+07
3.18367e+07
3.08973e+07
2.9934e+07
2.89495e+07
2.79467e+07
2.69283e+07
2.58972e+07
2.48562e+07
2.38083e+07
2.27564e+07
2.17035e+07
2.06527e+07
1.96074e+07
1.85709e+07
1.75468e+07
1.65387e+07
1.55504e+07
1.45857e+07
1.36489e+07
1.27441e+07
1.18757e+07
1.10485e+07
1.02671e+07
9.53645e+06
8.8617e+06
8.248e+06
7.70062e+06
7.2249e+06
6.82617e+06
6.50973e+06
6.28088e+06
6.14475e+06
6.1063e+06
6.17025e+06
6.34104e+06
6.62271e+06
7.01885e+06
7.53258e+06
8.16643e+06
8.92233e+06
9.80155e+06
1.08047e+07
1.19315e+07
1.31813e+07
1.45522e+07
1.6042e+07
1.76479e+07
1.93663e+07
2.11931e+07
2.31235e+07
2.51523e+07
2.72738e+07
2.94821e+07
3.17709e+07
3.41337e+07
3.65639e+07
3.90543e+07
4.15981e+07
4.41878e+07
4.68163e+07
4.9476e+07
5.21594e+07
5.48587e+07
5.75659e+07
6.02727e+07
6.29709e+07
6.56516e+07
6.83059e+07
7.09246e+07
7.34983e+07
7.60174e+07
7.84722e+07
8.08531e+07
8.3151e+07
8.53574e+07
8.74643e+07
8.94641e+07
9.13505e+07
9.3118e+07
9.47631e+07
9.6283e+07
9.76765e+07
9.89433e+07
1.00084e+08
1.011e+08
1.01995e+08
1.02773e+08
1.03438e+08
1.03999e+08
1.04462e+08
1.04835e+08
1.05127e+08
1.05348e+08
1.05509e+08
1.05622e+08
1.057e+08
1.05755e+08
1.05806e+08
1.05871e+08
1.05971e+08
1.06131e+08
1.06378e+08
1.06743e+08
1.07258e+08
1.07962e+08
1.08896e+08
1.10106e+08
1.11642e+08
1.1355e+08
1.15883e+08
1.18688e+08
1.22011e+08
1.25895e+08
1.30378e+08
1.35493e+08
1.41266e+08
1.47714e+08
1.54844e+08
1.62656e+08
1.71145e+08
1.80292e+08
1.9008e+08
2.00476e+08
2.11446e+08
2.22943e+08
2.34935e+08
2.47373e+08
2.6021e+08
2.73383e+08
2.86838e+08
3.00505e+08
3.14303e+08
3.28145e+08
3.41935e+08
3.55553e+08
3.68858e+08
3.81697e+08
3.93898e+08
4.0525e+08
4.15544e+08
4.24569e+08
4.32104e+08
4.3792e+08
4.41799e+08
4.43567e+08
4.43103e+08
4.40281e+08
4.35042e+08
4.27393e+08
4.17451e+08
4.05386e+08
3.9146e+08
3.75918e+08
3.59085e+08
3.41202e+08
3.22567e+08
3.03423e+08
2.83994e+08
3.88123e+07
3.87903e+07
3.87277e+07
3.86244e+07
3.84806e+07
3.82963e+07
3.80711e+07
3.7805e+07
3.74979e+07
3.715e+07
3.67614e+07
3.63325e+07
3.58639e+07
3.5356e+07
3.48098e+07
3.42262e+07
3.36064e+07
3.29517e+07
3.22635e+07
3.1543e+07
3.07918e+07
3.00116e+07
2.9204e+07
2.8371e+07
2.75148e+07
2.66375e+07
2.57416e+07
2.48294e+07
2.39032e+07
2.29655e+07
2.20187e+07
2.10655e+07
2.01086e+07
1.91507e+07
1.81949e+07
1.72441e+07
1.63016e+07
1.53708e+07
1.4455e+07
1.35581e+07
1.2684e+07
1.18366e+07
1.10204e+07
1.02397e+07
9.49924e+06
8.80385e+06
8.15853e+06
7.56841e+06
7.03869e+06
6.57466e+06
6.18159e+06
5.86476e+06
5.62938e+06
5.48056e+06
5.42319e+06
5.46198e+06
5.60128e+06
5.84505e+06
6.19681e+06
6.65962e+06
7.23594e+06
7.9276e+06
8.73585e+06
9.66122e+06
1.07035e+07
1.18619e+07
1.31346e+07
1.45195e+07
1.60136e+07
1.76136e+07
1.93154e+07
2.11145e+07
2.30057e+07
2.49836e+07
2.70425e+07
2.91763e+07
3.13787e+07
3.36433e+07
3.59635e+07
3.83323e+07
4.07428e+07
4.31881e+07
4.56608e+07
4.81536e+07
5.06589e+07
5.3169e+07
5.56761e+07
5.8172e+07
6.06485e+07
6.30969e+07
6.55086e+07
6.78747e+07
7.01863e+07
7.24347e+07
7.4611e+07
7.6707e+07
7.8715e+07
8.06281e+07
8.24393e+07
8.41435e+07
8.57359e+07
8.72133e+07
8.85738e+07
8.98168e+07
9.09433e+07
9.1954e+07
9.28506e+07
9.36366e+07
9.4316e+07
9.48935e+07
9.53749e+07
9.57668e+07
9.60756e+07
9.63094e+07
9.64777e+07
9.65895e+07
9.66546e+07
9.66844e+07
9.66908e+07
9.6688e+07
9.6692e+07
9.67231e+07
9.68017e+07
9.69524e+07
9.72026e+07
9.75815e+07
9.81227e+07
9.88654e+07
9.98512e+07
1.01126e+08
1.02734e+08
1.04724e+08
1.0714e+08
1.10025e+08
1.13422e+08
1.17368e+08
1.21895e+08
1.27028e+08
1.32786e+08
1.39178e+08
1.46206e+08
1.53868e+08
1.62149e+08
1.71036e+08
1.805e+08
1.90512e+08
2.0103e+08
2.12028e+08
2.23456e+08
2.35269e+08
2.47412e+08
2.59831e+08
2.72459e+08
2.85221e+08
2.98035e+08
3.10809e+08
3.23428e+08
3.35761e+08
3.47669e+08
3.58995e+08
3.69543e+08
3.7913e+08
3.87564e+08
3.94652e+08
4.00194e+08
4.03991e+08
4.05895e+08
4.05792e+08
4.03569e+08
3.99159e+08
3.92566e+08
3.83888e+08
3.73261e+08
3.60911e+08
3.47036e+08
3.31918e+08
3.15755e+08
2.98817e+08
2.81336e+08
2.63565e+08
3.49561e+07
3.49408e+07
3.48905e+07
3.4806e+07
3.46871e+07
3.45336e+07
3.43451e+07
3.41215e+07
3.38626e+07
3.35683e+07
3.32386e+07
3.28737e+07
3.24739e+07
3.20396e+07
3.15713e+07
3.10697e+07
3.05355e+07
2.99696e+07
2.9373e+07
2.87467e+07
2.80918e+07
2.74096e+07
2.67014e+07
2.59689e+07
2.52136e+07
2.44376e+07
2.36426e+07
2.28306e+07
2.20035e+07
2.11633e+07
2.03123e+07
1.94526e+07
1.85867e+07
1.77169e+07
1.68459e+07
1.59764e+07
1.51114e+07
1.42538e+07
1.3407e+07
1.25745e+07
1.17598e+07
1.09671e+07
1.02004e+07
9.46392e+06
8.76235e+06
8.10043e+06
7.48304e+06
6.91522e+06
6.40211e+06
5.94894e+06
5.56093e+06
5.24328e+06
5.00117e+06
4.83967e+06
4.76362e+06
4.77764e+06
4.88603e+06
5.09268e+06
5.40101e+06
5.81396e+06
6.33391e+06
6.96266e+06
7.70135e+06
8.55041e+06
9.50964e+06
1.05781e+07
1.17542e+07
1.30357e+07
1.44196e+07
1.59026e+07
1.74809e+07
1.91499e+07
2.09048e+07
2.27403e+07
2.46508e+07
2.66305e+07
2.86733e+07
3.07729e+07
3.2923e+07
3.51171e+07
3.73485e+07
3.96103e+07
4.18956e+07
4.41973e+07
4.6508e+07
4.88204e+07
5.11269e+07
5.34198e+07
5.56912e+07
5.79329e+07
6.0137e+07
6.22951e+07
6.43991e+07
6.64411e+07
6.8413e+07
7.03076e+07
7.21179e+07
7.38377e+07
7.54614e+07
7.69846e+07
7.84031e+07
7.97142e+07
8.09172e+07
8.20118e+07
8.29991e+07
8.38803e+07
8.46575e+07
8.53338e+07
8.59132e+07
8.64001e+07
8.67999e+07
8.71177e+07
8.73589e+07
8.75306e+07
8.76412e+07
8.76989e+07
8.77119e+07
8.76899e+07
8.76433e+07
8.75838e+07
8.7526e+07
8.74869e+07
8.74843e+07
8.75394e+07
8.76768e+07
8.79231e+07
8.83082e+07
8.88676e+07
8.9639e+07
9.06638e+07
9.19842e+07
9.36432e+07
9.56833e+07
9.81472e+07
1.01075e+08
1.04503e+08
1.08462e+08
1.12979e+08
1.18072e+08
1.23755e+08
1.30032e+08
1.36901e+08
1.44353e+08
1.52379e+08
1.60954e+08
1.70051e+08
1.79637e+08
1.89686e+08
2.00154e+08
2.1099e+08
2.22146e+08
2.33571e+08
2.45201e+08
2.56966e+08
2.68784e+08
2.80566e+08
2.92204e+08
3.03574e+08
3.14553e+08
3.24991e+08
3.34719e+08
3.43568e+08
3.51365e+08
3.57945e+08
3.63137e+08
3.66763e+08
3.68701e+08
3.68847e+08
3.67097e+08
3.63391e+08
3.57729e+08
3.50187e+08
3.40879e+08
3.29997e+08
3.177e+08
3.04221e+08
2.89726e+08
2.74452e+08
2.58616e+08
2.42495e+08
3.14717e+07
3.14621e+07
3.14225e+07
3.13545e+07
3.12578e+07
3.11319e+07
3.09766e+07
3.07913e+07
3.05759e+07
3.03299e+07
3.00534e+07
2.97463e+07
2.94087e+07
2.90406e+07
2.86425e+07
2.82146e+07
2.77574e+07
2.72715e+07
2.67574e+07
2.62158e+07
2.56476e+07
2.50538e+07
2.44353e+07
2.37933e+07
2.31292e+07
2.24444e+07
2.17405e+07
2.10188e+07
2.02812e+07
1.95292e+07
1.87646e+07
1.79894e+07
1.72056e+07
1.64154e+07
1.5621e+07
1.48249e+07
1.40298e+07
1.32385e+07
1.2454e+07
1.16796e+07
1.09188e+07
1.01754e+07
9.45341e+06
8.75694e+06
8.0905e+06
7.45873e+06
6.86646e+06
6.31865e+06
5.82033e+06
5.37666e+06
4.99281e+06
4.67393e+06
4.42515e+06
4.2515e+06
4.15776e+06
4.14848e+06
4.22784e+06
4.39966e+06
4.66725e+06
5.03343e+06
5.50048e+06
6.0701e+06
6.74334e+06
7.52055e+06
8.40146e+06
9.38505e+06
1.04697e+07
1.16531e+07
1.29325e+07
1.43043e+07
1.57648e+07
1.73097e+07
1.89342e+07
2.06333e+07
2.24013e+07
2.42328e+07
2.61218e+07
2.80623e+07
3.0048e+07
3.20727e+07
3.41302e+07
3.62138e+07
3.83167e+07
4.0432e+07
4.25529e+07
4.46723e+07
4.67829e+07
4.88774e+07
5.09485e+07
5.29883e+07
5.49896e+07
5.69447e+07
5.88461e+07
6.06867e+07
6.24593e+07
6.41575e+07
6.5775e+07
6.73066e+07
6.87477e+07
7.00946e+07
7.13441e+07
7.2494e+07
7.3544e+07
7.44942e+07
7.53461e+07
7.61008e+07
7.67607e+07
7.73286e+07
7.78084e+07
7.82043e+07
7.8521e+07
7.87624e+07
7.89337e+07
7.9041e+07
7.90912e+07
7.90914e+07
7.90492e+07
7.89722e+07
7.887e+07
7.87524e+07
7.86324e+07
7.85243e+07
7.84432e+07
7.84075e+07
7.8439e+07
7.85617e+07
7.88027e+07
7.91932e+07
7.97672e+07
8.05613e+07
8.16144e+07
8.29672e+07
8.46592e+07
8.67311e+07
8.92215e+07
9.21659e+07
9.55953e+07
9.95358e+07
1.0401e+08
1.09031e+08
1.14606e+08
1.20739e+08
1.27422e+08
1.34648e+08
1.42398e+08
1.50649e+08
1.59373e+08
1.68542e+08
1.78116e+08
1.88049e+08
1.98286e+08
2.08783e+08
2.1948e+08
2.30303e+08
2.41179e+08
2.52013e+08
2.62707e+08
2.73144e+08
2.8321e+08
2.92768e+08
3.01671e+08
3.09763e+08
3.16891e+08
3.2291e+08
3.27683e+08
3.31047e+08
3.32909e+08
3.33181e+08
3.31772e+08
3.28628e+08
3.23748e+08
3.17191e+08
3.09053e+08
2.99493e+08
2.88641e+08
2.76682e+08
2.63759e+08
2.50067e+08
2.35815e+08
2.21288e+08
2.84694e+07
2.8464e+07
2.8433e+07
2.83789e+07
2.83011e+07
2.8199e+07
2.80723e+07
2.79203e+07
2.77426e+07
2.75388e+07
2.73086e+07
2.70518e+07
2.67682e+07
2.64577e+07
2.61204e+07
2.57564e+07
2.53659e+07
2.49491e+07
2.45063e+07
2.4038e+07
2.35447e+07
2.3027e+07
2.24858e+07
2.19219e+07
2.13363e+07
2.07302e+07
2.01047e+07
1.94609e+07
1.88002e+07
1.8124e+07
1.74338e+07
1.67313e+07
1.6018e+07
1.52961e+07
1.45674e+07
1.38344e+07
1.30993e+07
1.23648e+07
1.16338e+07
1.09093e+07
1.01948e+07
9.49375e+06
8.81009e+06
8.14789e+06
7.5115e+06
6.90549e+06
6.3346e+06
5.80371e+06
5.3178e+06
4.88193e+06
4.50122e+06
4.18079e+06
3.92571e+06
3.74092e+06
3.63114e+06
3.60081e+06
3.65406e+06
3.79459e+06
4.02559e+06
4.34977e+06
4.76926e+06
5.28564e+06
5.89982e+06
6.61208e+06
7.42199e+06
8.32847e+06
9.32982e+06
1.04237e+07
1.16073e+07
1.28771e+07
1.42293e+07
1.56597e+07
1.71636e+07
1.8736e+07
2.03715e+07
2.20648e+07
2.38099e+07
2.5601e+07
2.74321e+07
2.92973e+07
3.11903e+07
3.31049e+07
3.50347e+07
3.6973e+07
3.89132e+07
4.08485e+07
4.27721e+07
4.46772e+07
4.65567e+07
4.84035e+07
5.02109e+07
5.19717e+07
5.36793e+07
5.53272e+07
5.69089e+07
5.8419e+07
5.98519e+07
6.12036e+07
6.24702e+07
6.36485e+07
6.47362e+07
6.57319e+07
6.66353e+07
6.74469e+07
6.81682e+07
6.88007e+07
6.93465e+07
6.98086e+07
7.01904e+07
7.04958e+07