/*--------------------------------*- C++ -*----------------------------------*\
| =========                 |                                                 |
| \\      /  F ield         | OpenFOAM: The Open Source CFD Toolbox           |
|  \\    /   O peration     | Version:  dev                                   |
|   \\  /    A nd           | Web:      http://www.openfoam.org               |
|    \\/     M anipulation  |                                                 |
\*---------------------------------------------------------------------------*/
FoamFile
{
    version     2.0;
    format      ascii;
    class       volScalarField;
    object      rho;
    location    "9.13";
}
// * * * * * * * * * * * * * * * * * * * * * * * * * * * * * * * * * * * * * //

dimensions      [1 -3 0 0 0 0 0];

internalField   nonuniform List<scalar> 
12225
(
1.05367
1.05573
1.05625
1.05732
1.05954
1.06115
1.06393
1.06614
1.06911
1.0717
1.07501
1.0777
1.08188
1.08279
1.09013
1.09291
1.08604
1.10293
1.05632
1.05765
1.05884
1.06116
1.06351
1.06636
1.06837
1.0719
1.07398
1.07759
1.08014
1.08316
1.08869
1.08601
1.09667
1.10507
1.08314
1.12271
1.05606
1.0573
1.059
1.06184
1.06449
1.06785
1.07012
1.07373
1.07629
1.07955
1.0831
1.08502
1.09113
1.08999
1.10029
1.09456
1.11184
1.09913
1.05614
1.05711
1.05928
1.06197
1.06491
1.0681
1.07116
1.07416
1.07755
1.08013
1.08505
1.08547
1.09311
1.09122
1.10153
1.09447
1.12559
1.09486
1.05745
1.05727
1.05958
1.06209
1.06531
1.06798
1.07169
1.0743
1.07809
1.08048
1.08556
1.08607
1.09363
1.09173
1.1003
1.10546
1.10404
1.105
1.05763
1.05804
1.06013
1.06297
1.06582
1.0689
1.07215
1.07506
1.07884
1.08104
1.08588
1.08684
1.09306
1.0926
1.1012
1.09979
1.10335
1.11027
1.05827
1.05905
1.06119
1.06353
1.06672
1.06963
1.07304
1.07571
1.07942
1.08177
1.086
1.08737
1.09331
1.0925
1.10318
1.09274
1.11781
1.11004
1.05913
1.06005
1.06218
1.06424
1.06768
1.07014
1.0741
1.07628
1.08048
1.08229
1.08662
1.08811
1.09361
1.09384
1.10052
1.1007
1.10903
1.10966
1.06042
1.06084
1.0628
1.06494
1.06835
1.07075
1.0745
1.07707
1.08093
1.08266
1.08697
1.08866
1.09383
1.09508
1.09893
1.10318
1.10452
1.10707
1.06178
1.06217
1.06403
1.06598
1.0693
1.07184
1.07519
1.07795
1.08113
1.08316
1.08702
1.08947
1.09346
1.09588
1.09932
1.10213
1.10421
1.10728
1.06359
1.06396
1.06548
1.06733
1.07062
1.07284
1.07634
1.07849
1.08184
1.08416
1.08755
1.09048
1.09365
1.09673
1.09964
1.10232
1.10466
1.10783
1.06636
1.06616
1.0674
1.06938
1.07233
1.07436
1.0777
1.07993
1.08334
1.0856
1.08905
1.09142
1.09457
1.09738
1.09996
1.10269
1.10503
1.10774
1.06928
1.06903
1.07003
1.07208
1.07458
1.07655
1.07948
1.08175
1.08479
1.0869
1.08993
1.09231
1.09534
1.09785
1.10051
1.10322
1.10544
1.10792
1.07413
1.07291
1.07328
1.07517
1.0774
1.07973
1.08222
1.08457
1.08709
1.0894
1.09208
1.09436
1.09699
1.09937
1.10199
1.10416
1.10665
1.10894
1.07987
1.07812
1.07833
1.07989
1.08163
1.08371
1.08583
1.08819
1.09031
1.09262
1.09485
1.09702
1.09938
1.10149
1.10394
1.10608
1.10807
1.11015
1.0875
1.08494
1.08476
1.08591
1.0874
1.08917
1.09096
1.09297
1.09477
1.09688
1.0988
1.10096
1.10316
1.10522
1.10727
1.10925
1.11132
1.11296
1.097
1.09358
1.09308
1.09392
1.09508
1.09648
1.09814
1.09989
1.10163
1.10352
1.10531
1.10715
1.10893
1.11069
1.11245
1.11405
1.11551
1.1171
1.10745
1.10356
1.10296
1.1036
1.10444
1.10565
1.10699
1.10842
1.10998
1.11137
1.11305
1.11444
1.11606
1.1175
1.11894
1.12034
1.12166
1.1229
1.11753
1.11289
1.11244
1.1131
1.11392
1.11505
1.11611
1.11743
1.11873
1.11984
1.12129
1.12235
1.12363
1.12487
1.12599
1.12719
1.12826
1.12925
1.12604
1.12134
1.1211
1.1217
1.12274
1.12369
1.12467
1.12576
1.12672
1.12771
1.12883
1.12977
1.13077
1.13182
1.1326
1.13363
1.13428
1.13507
1.13325
1.1285
1.12853
1.12926
1.13025
1.13118
1.13224
1.1332
1.13398
1.13484
1.13558
1.13631
1.13712
1.13773
1.13852
1.13906
1.13966
1.14018
1.13855
1.13364
1.13421
1.13536
1.1362
1.13722
1.13801
1.13886
1.13958
1.14028
1.14092
1.14157
1.14219
1.14269
1.14331
1.14362
1.14421
1.14442
1.1431
1.13832
1.13892
1.14013
1.14124
1.14208
1.14295
1.14362
1.14435
1.14484
1.14545
1.14593
1.14632
1.14684
1.14706
1.14752
1.14767
1.148
1.14638
1.14164
1.14236
1.1436
1.14468
1.14565
1.14657
1.14739
1.14794
1.14851
1.14887
1.14921
1.14955
1.14972
1.15011
1.1502
1.15052
1.15059
1.14848
1.1438
1.14473
1.14606
1.14716
1.1483
1.14929
1.15009
1.15073
1.15109
1.15143
1.15164
1.15181
1.15206
1.15215
1.15238
1.15245
1.15256
1.1502
1.14551
1.14657
1.14812
1.14943
1.15048
1.15137
1.15203
1.1525
1.15288
1.15311
1.15335
1.15351
1.15365
1.15377
1.15382
1.15389
1.15385
1.15157
1.14672
1.14776
1.14933
1.1507
1.1518
1.15269
1.15332
1.15381
1.15411
1.15434
1.15447
1.15457
1.15462
1.15465
1.15463
1.15459
1.15447
1.15215
1.14732
1.14847
1.1501
1.15147
1.15252
1.15337
1.15392
1.15434
1.15455
1.15467
1.15465
1.1546
1.15448
1.15437
1.15418
1.15399
1.15376
1.15294
1.14824
1.14916
1.15056
1.15168
1.15244
1.15295
1.15319
1.15328
1.15319
1.15302
1.1528
1.15261
1.1524
1.15227
1.15211
1.15206
1.15196
1.15467
1.15055
1.15031
1.15033
1.15044
1.15052
1.15058
1.15056
1.15051
1.1504
1.15028
1.15017
1.15006
1.14995
1.14987
1.14977
1.14969
1.14974
1.26071
1.29921
1.30199
1.29467
1.28979
1.28704
1.28431
1.28104
1.2767
1.2717
1.26615
1.26053
1.2548
1.24906
1.24337
1.23816
1.23311
1.22751
1.22197
1.21849
1.21818
1.21886
1.21747
1.21458
1.21182
1.20918
1.20647
1.20368
1.20081
1.19778
1.19464
1.19143
1.18817
1.18491
1.18162
1.17837
1.17506
1.17173
1.1684
1.16507
1.16186
1.15875
1.15571
1.15261
1.14935
1.1459
1.14232
1.13871
1.13514
1.1318
1.12887
1.1261
1.12313
1.11994
1.11701
1.11427
1.11129
1.1079
1.10448
1.10066
1.09602
1.09107
1.0872
1.08485
1.08318
1.08166
1.08045
1.08009
1.07989
1.07874
1.07702
1.07645
1.07735
1.07912
1.08136
1.0841
1.08733
1.08803
1.07996
1.06698
1.06182
1.06617
1.07279
1.0795
1.08619
1.08783
1.08425
1.06958
1.05449
1.0521
1.06248
1.07585
1.07906
1.07865
1.08293
1.08134
1.07195
1.06935
1.07692
1.08683
1.09535
1.10185
1.10443
1.09902
1.08519
1.0758
1.08845
1.11859
1.11182
1.03104
1.11369
1.12497
1.12559
1.12793
1.12912
1.13019
1.13084
1.13143
1.13161
1.13127
1.1309
1.13064
1.1302
1.1285
1.12695
1.12538
1.12228
1.11719
1.11057
1.10439
1.09854
1.09624
1.09405
1.0919
1.08985
1.08696
1.08512
1.08357
1.08211
1.07846
1.07377
1.07008
1.06733
1.06422
1.06036
1.05508
1.04819
1.04051
1.03678
1.03999
1.04707
1.05178
1.0597
1.0631
1.07238
1.07566
1.07868
1.07445
1.07774
1.07561
1.08073
1.09162
1.08164
1.07941
1.08498
1.07969
1.07709
1.07193
1.06952
1.06698
1.06793
1.06813
1.07006
1.06991
1.07235
1.07606
1.08347
1.08573
1.09051
1.08633
1.26391
1.30658
1.29679
1.2876
1.28976
1.29029
1.28663
1.28079
1.27451
1.27126
1.26974
1.26843
1.26446
1.25926
1.25283
1.24699
1.24249
1.23877
1.23573
1.23424
1.23431
1.23184
1.22878
1.22463
1.2226
1.21986
1.2167
1.21311
1.20909
1.20585
1.20131
1.19745
1.1939
1.19099
1.18814
1.18555
1.18202
1.17841
1.17474
1.17132
1.16868
1.16632
1.16399
1.1609
1.1569
1.15218
1.1473
1.14254
1.13799
1.13469
1.13303
1.13157
1.12937
1.12613
1.12459
1.12488
1.1245
1.12164
1.11783
1.11439
1.1125
1.11008
1.10481
1.09914
1.09762
1.09862
1.09362
1.08374
1.08333
1.09361
1.09761
1.09066
1.0838
1.08313
1.08549
1.08803
1.09362
1.1072
1.12285
1.12775
1.11304
1.09359
1.08426
1.08546
1.10484
1.12092
1.1319
1.12349
1.10656
1.10566
1.10293
1.10647
1.1176
1.1186
1.10179
1.08342
1.08407
1.09926
1.11746
1.13323
1.14405
1.1444
1.12928
1.09952
1.0674
1.06077
1.09382
1.13601
1.10413
0.999993
1.08236
1.10527
1.10665
1.11503
1.11791
1.12432
1.1281
1.13348
1.13874
1.14517
1.15161
1.15671
1.16399
1.17108
1.17334
1.17727
1.18364
1.18902
1.19421
1.20276
1.19739
1.18199
1.17088
1.15899
1.14819
1.14293
1.14137
1.13953
1.14152
1.1422
1.13674
1.13002
1.12822
1.12514
1.11852
1.10756
1.09389
1.09157
1.09769
1.10726
1.11091
1.11343
1.12231
1.12292
1.13177
1.12352
1.12454
1.10809
1.10339
1.08974
1.07843
1.11706
1.09858
1.06281
1.10362
1.12722
1.13754
1.14177
1.14376
1.13992
1.1431
1.14319
1.14675
1.14635
1.14512
1.1476
1.16584
1.17428
1.19205
1.16712
1.25359
1.28642
1.2761
1.2787
1.28119
1.27833
1.27942
1.2847
1.28578
1.28281
1.27521
1.26893
1.26087
1.2511
1.24574
1.24043
1.23723
1.23352
1.23377
1.23182
1.22641
1.22035
1.21642
1.21591
1.2123
1.20866
1.20308
1.20071
1.19666
1.19113
1.18941
1.18602
1.18416
1.18354
1.18148
1.17962
1.17769
1.1737
1.17142
1.16828
1.16436
1.16169
1.15756
1.15369
1.14898
1.14418
1.1394
1.13474
1.12986
1.12576
1.12247
1.1187
1.11613
1.11419
1.11445
1.11492
1.11448
1.11372
1.11308
1.1091
1.10598
1.10656
1.10416
1.09874
1.09934
1.09861
1.09062
1.0904
1.09415
1.08483
1.07896
1.09451
1.10772
1.09877
1.07915
1.06709
1.06593
1.07465
1.09908
1.12378
1.13231
1.12454
1.10127
1.09833
1.1223
1.13146
1.12618
1.12155
1.11892
1.10642
1.09677
1.10858
1.11854
1.11159
1.09327
1.08188
1.07768
1.07379
1.0758
1.08715
1.10105
1.10733
1.10411
1.08988
1.0739
1.07501
1.08589
1.09036
1.06697
1.08199
1.04783
1.06255
1.06416
1.07175
1.07313
1.08135
1.08663
1.0909
1.09315
1.10224
1.11051
1.11591
1.12307
1.13061
1.13309
1.1346
1.13587
1.14296
1.14565
1.15314
1.17932
1.20051
1.21731
1.22824
1.21751
1.20047
1.19329
1.18706
1.17995
1.17705
1.16938
1.16256
1.15894
1.15689
1.13583
1.12338
1.12514
1.12942
1.13622
1.1373
1.1317
1.12186
1.11324
1.10479
1.10871
1.09947
1.10161
1.1009
1.08445
1.07302
1.04256
1.06292
1.06675
0.999562
1.02523
1.07821
1.09443
1.11643
1.14068
1.14555
1.13799
1.13788
1.149
1.16498
1.17702
1.18176
1.2001
1.21652
1.26468
1.26006
1.24307
1.27616
1.27112
1.27061
1.27018
1.27405
1.28167
1.29019
1.29009
1.27744
1.26823
1.26556
1.25721
1.24528
1.24039
1.24004
1.24193
1.24188
1.23187
1.22312
1.21673
1.21732
1.21761
1.21524
1.21118
1.21072
1.21052
1.2076
1.20571
1.20447
1.20248
1.20401
1.20282
1.19987
1.19981
1.196
1.19439
1.19124
1.18735
1.18503
1.18107
1.17677
1.1743
1.17002
1.16664
1.16153
1.15583
1.14908
1.14126
1.13376
1.12693
1.11883
1.11204
1.10878
1.10833
1.10639
1.10641
1.10975
1.11034
1.10446
1.10036
1.10305
1.10255
1.09347
1.08993
1.09465
1.09265
1.08702
1.08901
1.0927
1.08804
1.08434
1.09003
1.09766
1.09703
1.08397
1.07382
1.07508
1.08585
1.11904
1.15603
1.13996
1.10603
1.11953
1.1429
1.13724
1.12944
1.13286
1.13003
1.11403
1.1124
1.12528
1.12474
1.1076
1.08938
1.08075
1.06838
1.0581
1.06049
1.06867
1.06948
1.06018
1.05578
1.06041
1.0712
1.07804
1.07224
1.06146
1.05693
1.08228
1.05455
1.06057
1.06038
1.06276
1.06603
1.07144
1.08236
1.08984
1.08305
1.09139
1.10359
1.10381
1.10412
1.12353
1.13743
1.13892
1.13518
1.13625
1.1373
1.1346
1.13533
1.14683
1.17013
1.2057
1.2275
1.2273
1.22617
1.22942
1.21297
1.196
1.18153
1.17782
1.1718
1.16634
1.15072
1.1357
1.13933
1.1496
1.15309
1.14522
1.13836
1.12745
1.12474
1.11734
1.12332
1.13071
1.10704
1.10915
1.10884
1.09739
1.09541
1.0658
1.0967
1.06169
1.01982
1.05121
1.06167
1.0854
1.09791
1.123
1.10923
1.07725
1.0756
1.10961
1.15352
1.18039
1.19949
1.22103
1.26527
1.30781
1.23504
1.26764
1.26897
1.26854
1.27313
1.28503
1.29701
1.29334
1.27062
1.26152
1.26275
1.2562
1.24833
1.24544
1.23952
1.24118
1.23588
1.22793
1.21914
1.21649
1.21797
1.21877
1.221
1.21981
1.22253
1.22653
1.2283
1.22776
1.22688
1.22754
1.22764
1.22785
1.22618
1.22516
1.2221
1.21772
1.21611
1.21174
1.20797
1.20473
1.20011
1.19711
1.19337
1.18908
1.18435
1.17841
1.17252
1.16561
1.15646
1.14701
1.14006
1.13337
1.1202
1.10544
1.0979
1.0963
1.0982
1.10152
1.09719
1.09188
1.0964
1.1006
1.09248
1.0844
1.09074
1.10213
1.10053
1.08711
1.07811
1.08369
1.09264
1.08753
1.07766
1.08721
1.10191
1.08653
1.07131
1.08532
1.11043
1.1343
1.14334
1.12718
1.12139
1.1384
1.14105
1.13163
1.13421
1.14209
1.13288
1.11403
1.11007
1.11238
1.10883
1.09918
1.09228
1.09065
1.08754
1.09627
1.11106
1.1165
1.10656
1.09105
1.08417
1.08614
1.09142
1.08855
1.08102
1.07613
1.06895
1.06043
1.05812
1.06695
1.05931
1.06165
1.07186
1.07606
1.08625
1.10508
1.08952
1.0838
1.08876
1.08349
1.07972
1.08884
1.09644
1.10952
1.11493
1.11849
1.13445
1.15128
1.14091
1.11641
1.11959
1.16132
1.19867
1.21723
1.23511
1.25499
1.2388
1.20658
1.18794
1.18405
1.18091
1.17124
1.1674
1.16191
1.16169
1.16502
1.15981
1.15341
1.14506
1.14487
1.15621
1.14913
1.12565
1.13224
1.11386
1.08927
1.1125
1.13318
1.13181
1.0299
1.05259
1.10889
1.05047
1.04733
1.02677
1.07676
1.08019
1.0884
1.08714
1.0526
1.02394
1.04155
1.09864
1.1547
1.17393
1.20545
1.2309
1.29367
1.2285
1.25683
1.25903
1.26134
1.27196
1.27824
1.27442
1.28142
1.28009
1.27165
1.26182
1.25169
1.24893
1.2454
1.24038
1.23718
1.23718
1.23216
1.22926
1.23029
1.23769
1.24203
1.24349
1.24238
1.2443
1.24596
1.24487
1.24446
1.24106
1.23944
1.24015
1.23708
1.23635
1.23492
1.23002
1.22935
1.22586
1.22177
1.21969
1.21517
1.20928
1.20356
1.19563
1.18839
1.17879
1.17188
1.16718
1.16531
1.16226
1.15525
1.14727
1.14569
1.14028
1.12315
1.105
1.09723
1.09424
1.09515
1.09217
1.09159
1.09412
1.09039
1.08377
1.08552
1.09452
1.10353
1.10313
1.08765
1.07458
1.08771
1.1039
1.08388
1.06765
1.09287
1.10264
1.07243
1.0705
1.10698
1.13532
1.14309
1.13854
1.13498
1.14097
1.14641
1.14234
1.13613
1.14015
1.14207
1.12705
1.1121
1.1057
1.09976
1.09505
1.09116
1.09292
1.09625
1.10103
1.11215
1.11554
1.10633
1.09431
1.09298
1.09936
1.10326
1.09408
1.08921
1.10303
1.11252
1.10015
1.07909
1.06291
1.06776
1.0487
1.05538
1.06331
1.08641
1.0876
1.11423
1.12906
1.11536
1.11815
1.11868
1.10966
1.11971
1.11141
1.10663
1.12027
1.09418
1.07874
1.11693
1.15533
1.12795
1.09758
1.12396
1.15634
1.17432
1.21347
1.25647
1.25317
1.21276
1.19173
1.18784
1.18793
1.17829
1.1742
1.17341
1.165
1.16062
1.15888
1.16367
1.16259
1.15198
1.1419
1.15102
1.14742
1.12957
1.08911
1.02504
1.0396
1.13814
1.17306
1.05076
0.97218
1.03832
1.03557
1.05312
1.00725
1.04448
1.07962
1.09399
1.09887
1.0789
1.0294
1.0053
1.03668
1.12124
1.14718
1.18313
1.19859
1.24151
1.22288
1.24915
1.25527
1.2626
1.27261
1.28749
1.28446
1.27553
1.27049
1.25398
1.24608
1.23958
1.23996
1.24077
1.24499
1.25025
1.24884
1.24283
1.23921
1.23866
1.24539
1.25149
1.25143
1.24774
1.2434
1.24087
1.23612
1.23027
1.22521
1.22313
1.22502
1.22332
1.22195
1.2211
1.21701
1.21402
1.21012
1.20754
1.20339
1.19968
1.19544
1.1897
1.18382
1.17678
1.16939
1.16109
1.15492
1.15059
1.15007
1.14858
1.14223
1.13786
1.1401
1.13694
1.12329
1.1096
1.09764
1.09652
1.09409
1.09087
1.09271
1.09149
1.08533
1.0892
1.09816
1.09971
1.09615
1.09455
1.09809
1.1018
1.08727
1.06935
1.08551
1.10292
1.08357
1.07418
1.10741
1.14344
1.15665
1.15549
1.14857
1.14561
1.14838
1.14798
1.13997
1.13355
1.14023
1.14018
1.12736
1.11835
1.10694
1.0966
1.09655
1.10225
1.11471
1.12324
1.12539
1.12021
1.10276
1.08082
1.06558
1.06004
1.05972
1.0657
1.06233
1.0566
1.06835
1.0767
1.08133
1.09503
1.09442
1.08479
1.05916
1.05427
1.04532
1.0653
1.07661
1.08074
1.10109
1.11601
1.11388
1.12745
1.13499
1.14466
1.14879
1.11449
1.14415
1.15738
1.09249
1.07122
1.12229
1.12817
1.09815
1.11465
1.13817
1.14073
1.18223
1.24547
1.2578
1.21933
1.19368
1.19277
1.19398
1.18841
1.17672
1.17168
1.1616
1.15969
1.1626
1.15472
1.15412
1.13347
1.08293
1.10623
1.15902
1.14864
1.09187
1.01178
0.973811
1.08718
1.13582
1.06475
0.989639
0.998027
1.00958
1.03452
0.999454
1.0157
1.04974
1.09223
1.12624
1.1331
1.08177
1.02527
1.00211
1.08285
1.12495
1.16251
1.1693
1.18875
1.21674
1.24104
1.25367
1.27181
1.27805
1.28252
1.2854
1.2719
1.25935
1.25771
1.25591
1.24925
1.24075
1.23644
1.2344
1.23999
1.2466
1.24912
1.24578
1.24178
1.2432
1.24811
1.24673
1.24282
1.23836
1.23017
1.22154
1.21646
1.21691
1.21985
1.22175
1.22589
1.22719
1.2242
1.22099
1.21818
1.21296
1.20915
1.20505
1.20145
1.19773
1.19327
1.1881
1.18237
1.17739
1.17234
1.16746
1.16191
1.15688
1.15662
1.15817
1.15123
1.14283
1.14005
1.13652
1.12586
1.11224
1.10127
1.09411
1.08924
1.09163
1.09173
1.08919
1.09314
1.09244
1.08711
1.09473
1.11476
1.11974
1.09739
1.07581
1.08359
1.10392
1.09219
1.07431
1.09485
1.13773
1.16457
1.16876
1.1659
1.16117
1.15713
1.15628
1.152
1.1404
1.13564
1.14436
1.13983
1.12901
1.12163
1.10857
1.10427
1.11081
1.11854
1.1244
1.11758
1.10307
1.08732
1.07165
1.06529
1.06463
1.06036
1.05109
1.05431
1.05706
1.04157
1.03292
1.05261
1.07131
1.06168
1.07976
1.10605
1.10926
1.09269
1.07379
1.07368
1.08108
1.09839
1.10066
1.11064
1.1201
1.12231
1.13123
1.13315
1.17521
1.1527
1.12205
1.17317
1.15399
1.09548
1.11444
1.12386
1.08997
1.10342
1.129
1.11657
1.14397
1.2233
1.25553
1.22546
1.19596
1.19656
1.20104
1.19968
1.18831
1.17858
1.17957
1.1872
1.19039
1.16809
1.13438
1.10674
1.06118
1.06028
1.1049
1.11525
1.09492
1.05316
0.970762
1.06173
1.106
1.02373
0.982263
0.997356
1.03277
1.04578
0.986159
1.00192
1.03166
1.0981
1.13682
1.13296
1.08628
1.03958
0.992629
1.05057
1.10512
1.15203
1.14756
1.14411
1.21162
1.23534
1.24997
1.27159
1.28047
1.27494
1.26915
1.26692
1.27161
1.26179
1.24868
1.24765
1.2438
1.23884
1.2319
1.22972
1.22981
1.23431
1.23683
1.23946
1.23977
1.23852
1.24015
1.24256
1.24079
1.23175
1.22367
1.22249
1.22501
1.23148
1.23689
1.24019
1.24037
1.23945
1.23566
1.23102
1.22574
1.22063
1.21677
1.21394
1.21114
1.2092
1.20598
1.20003
1.19152
1.18306
1.17531
1.17044
1.16591
1.15939
1.15794
1.16195
1.15945
1.14953
1.14522
1.1396
1.13572
1.12086
1.11215
1.09761
1.09072
1.08689
1.08975
1.09301
1.0902
1.09655
1.11321
1.12136
1.10955
1.08846
1.08521
1.10014
1.09933
1.08023
1.08859
1.12788
1.16166
1.17874
1.17867
1.17027
1.16338
1.1613
1.15911
1.14866
1.13399
1.13597
1.14693
1.13672
1.12637
1.12034
1.11249
1.1145
1.11817
1.11524
1.10865
1.0957
1.08798
1.08554
1.0843
1.08692
1.08336
1.06539
1.03379
1.02458
1.03479
1.04857
1.03925
1.05052
1.03965
1.05231
1.04804
1.07184
1.09806
1.11487
1.07939
1.06513
1.06296
1.07255
1.09518
1.09967
1.10714
1.11975
1.13423
1.11985
1.13641
1.17679
1.12774
1.14399
1.1745
1.12358
1.11787
1.13049
1.09144
1.09742
1.12906
1.10937
1.11635
1.19594
1.24781
1.22804
1.19857
1.19834
1.20884
1.20844
1.20379
1.19533
1.20189
1.20273
1.1857
1.16436
1.13067
1.11808
1.10358
1.09172
1.09275
1.07465
1.06916
1.08684
0.988647
1.01847
1.09754
1.04196
0.993205
1.0009
1.04736
1.07218
0.991179
0.986049
1.00259
1.08639
1.12615
1.10528
1.06182
1.03597
1.00071
1.03078
1.08571
1.14623
1.13563
1.116
1.20608
1.22977
1.24588
1.26678
1.27379
1.26584
1.27381
1.26546
1.25402
1.25921
1.25313
1.2469
1.24465
1.24327
1.23652
1.22819
1.22231
1.2224
1.22443
1.22463
1.22665
1.22896
1.23116
1.23392
1.23777
1.23731
1.22862
1.22138
1.21954
1.21962
1.22043
1.22252
1.22284
1.22376
1.22392
1.22127
1.21754
1.21304
1.20827
1.20496
1.20287
1.20218
1.20369
1.20508
1.20194
1.19299
1.18178
1.17017
1.16409
1.16344
1.15715
1.15158
1.15407
1.15593
1.15293
1.14595
1.14671
1.1385
1.13508
1.12091
1.10844
1.09387
1.08837
1.09143
1.08619
1.09708
1.1197
1.11452
1.09851
1.0938
1.10183
1.10656
1.09178
1.08858
1.11905
1.15747
1.17978
1.18263
1.1785
1.17449
1.16912
1.16594
1.15952
1.14318
1.12897
1.14016
1.15096
1.14119
1.13754
1.14151
1.1413
1.13929
1.1302
1.11592
1.10454
1.10054
1.10576
1.10651
1.09509
1.07457
1.06487
1.06534
1.05046
1.05825
1.06908
1.07534
1.07174
1.06262
1.0747
1.06104
1.05422
1.06645
1.08411
1.11648
1.11141
1.08137
1.06364
1.06253
1.0794
1.10397
1.10751
1.10019
1.11593
1.14292
1.1229
1.17068
1.16536
1.12766
1.15641
1.14127
1.12959
1.14513
1.09805
1.08682
1.12701
1.10795
1.09471
1.16611
1.23435
1.22784
1.20023
1.20006
1.21593
1.21819
1.21481
1.2094
1.20783
1.18877
1.15828
1.14701
1.12324
1.13559
1.12143
1.09216
1.09736
1.08785
1.04554
1.0492
0.998085
1.00735
1.0843
1.01149
0.976641
1.00626
1.04437
1.05173
0.993207
0.981867
0.990839
1.06701
1.08789
1.06258
1.03093
1.03417
1.02085
1.03552
1.07614
1.14315
1.14477
1.11055
1.20007
1.22297
1.23735
1.25731
1.27639
1.26324
1.2495
1.26693
1.26517
1.25598
1.25092
1.23981
1.23469
1.23551
1.24084
1.24061
1.23539
1.23095
1.23149
1.23163
1.23279
1.23171
1.22752
1.22303
1.22377
1.23166
1.2378
1.23341
1.22684
1.22185
1.21859
1.21738
1.21869
1.22198
1.22493
1.2253
1.22386
1.22038
1.21638
1.2136
1.20938
1.20162
1.19685
1.19797
1.20052
1.19808
1.19104
1.1838
1.17258
1.16422
1.16599
1.16546
1.15514
1.15076
1.14644
1.14276
1.13728
1.13594
1.13275
1.13213
1.12658
1.1175
1.09738
1.09235
1.08501
1.08593
1.11373
1.11336
1.10179
1.10685
1.1121
1.10546
1.0926
1.1067
1.14808
1.17575
1.18633
1.18668
1.177
1.17095
1.17189
1.16904
1.15844
1.14038
1.13485
1.15251
1.16328
1.15674
1.15911
1.16142
1.14631
1.12981
1.11321
1.1009
1.10121
1.10657
1.10275
1.08586
1.05911
1.0237
1.01863
1.0283
1.01911
1.02482
1.03559
1.0345
1.04822
1.06936
1.09227
1.07558
1.0469
1.044
1.07717
1.10401
1.10082
1.09907
1.07155
1.05909
1.05627
1.07928
1.11953
1.12705
1.10823
1.13975
1.1343
1.14351
1.18705
1.16146
1.15651
1.14072
1.12099
1.14993
1.11599
1.08395
1.12483
1.11646
1.08478
1.14038
1.2173
1.22535
1.2001
1.20147
1.22025
1.22822
1.22485
1.21889
1.20695
1.17422
1.14695
1.14574
1.12995
1.15027
1.15086
1.12184
1.10495
1.08987
1.05646
1.05121
1.01956
0.993805
1.05525
1.00609
0.969221
1.02317
1.05613
1.02214
0.991207
0.991281
1.00848
1.05864
1.05781
1.02953
1.00818
1.03887
1.04017
1.06351
1.07636
1.15737
1.1637
1.11992
1.19348
1.21463
1.23116
1.23767
1.25402
1.26894
1.25941
1.24327
1.2396
1.23405
1.2366
1.23485
1.23318
1.22761
1.22518
1.22861
1.23113
1.23208
1.23357
1.23051
1.22872
1.22406
1.21558
1.20984
1.2109
1.21671
1.22726
1.23114
1.22865
1.22532
1.22424
1.22493
1.22676
1.23004
1.23173
1.22954
1.22596
1.22094
1.21616
1.21487
1.21886
1.21865
1.20971
1.20455
1.20354
1.20132
1.19283
1.18096
1.17684
1.17145
1.16374
1.1654
1.16657
1.16227
1.15374
1.14967
1.13823
1.14019
1.13299
1.13623
1.1284
1.13196
1.11384
1.10041
1.09395
1.08331
1.10476
1.11962
1.11162
1.11828
1.11896
1.10264
1.0975
1.12417
1.16375
1.18658
1.18935
1.18233
1.17474
1.17043
1.17244
1.17332
1.15997
1.14089
1.1414
1.16439
1.1753
1.16725
1.16836
1.15995
1.1393
1.12265
1.11259
1.11484
1.12063
1.10452
1.06865
1.03581
1.0176
1.00594
1.01785
1.03551
1.04244
1.03719
1.03965
1.04227
1.02833
1.05977
1.08332
1.09265
1.07288
1.05647
1.07962
1.12107
1.11006
1.09475
1.08738
1.06912
1.06235
1.07561
1.10465
1.15252
1.14084
1.14493
1.17123
1.14827
1.17023
1.17255
1.16893
1.15995
1.12372
1.1465
1.13008
1.08466
1.11663
1.12447
1.0819
1.11868
1.19986
1.21918
1.19796
1.2011
1.22271
1.23385
1.23353
1.22653
1.20974
1.17377
1.15413
1.15296
1.13728
1.15612
1.1677
1.15
1.13144
1.10123
1.06128
1.04351
1.02905
0.989755
1.03344
1.00575
0.970852
1.04071
1.05063
1.00273
0.99831
1.0267
1.05426
1.07627
1.04096
1.00526
1.00438
1.05656
1.06366
1.10999
1.08553
1.17217
1.15954
1.13356
1.18657
1.20493
1.22527
1.23351
1.23487
1.23968
1.25215
1.2538
1.24626
1.22992
1.22024
1.22035
1.22777
1.23169
1.22515
1.22034
1.21953
1.21905
1.22057
1.22039
1.2176
1.2152
1.21267
1.20896
1.21207
1.21886
1.22594
1.23057
1.23249
1.23264
1.23246
1.23282
1.23159
1.23133
1.23236
1.22838
1.22315
1.21761
1.21061
1.20529
1.20154
1.20058
1.19618
1.19471
1.20056
1.2016
1.19727
1.18467
1.17047
1.16782
1.16811
1.16233
1.15927
1.15373
1.15305
1.15388
1.14489
1.14201
1.13148
1.13056
1.1206
1.12878
1.12979
1.11547
1.10315
1.08993
1.09735
1.12068
1.11935
1.12537
1.12545
1.10678
1.09857
1.13334
1.17851
1.19315
1.19272
1.18253
1.16795
1.16724
1.17144
1.1745
1.16412
1.14704
1.14853
1.17151
1.18113
1.17732
1.17051
1.15144
1.12664
1.12055
1.12777
1.13399
1.1226
1.08422
1.03824
1.01457
1.01691
1.03361
1.04577
1.05926
1.08289
1.07283
1.07344
1.05924
1.04358
1.04534
1.07953
1.09122
1.07301
1.06058
1.07194
1.11216
1.12637
1.08321
1.08306
1.06856
1.05003
1.08542
1.10621
1.14871
1.16516
1.15146
1.17837
1.17362
1.17661
1.18588
1.17718
1.16704
1.12482
1.13941
1.14003
1.09372
1.11014
1.13162
1.08674
1.10162
1.18223
1.21174
1.19541
1.20006
1.22628
1.2398
1.24154
1.23207
1.20964
1.17106
1.15175
1.15397
1.14102
1.15658
1.17752
1.15565
1.13188
1.08788
1.05207
1.03962
1.01534
0.977862
1.01111
1.00249
0.967527
1.0588
1.03319
0.974073
1.00422
1.06165
1.0757
1.06201
1.00344
0.999925
1.0181
1.08927
1.10571
1.15926
1.10204
1.17089
1.13986
1.15073
1.17959
1.19551
1.21591
1.22802
1.22934
1.23512
1.24109
1.24203
1.24366
1.24098
1.23051
1.22048
1.2176
1.22231
1.22455
1.22327
1.22015
1.21586
1.21378
1.21464
1.21327
1.21498
1.21641
1.21601
1.22031
1.22288
1.22437
1.22662
1.22719
1.22596
1.22462
1.22358
1.2216
1.21688
1.21284
1.20913
1.20728
1.20903
1.2101
1.21206
1.21095
1.20984
1.20688
1.19762
1.1915
1.18834
1.18092
1.17506
1.17082
1.16835
1.16772
1.16687
1.16904
1.16159
1.15216
1.14974
1.14622
1.14105
1.13961
1.13591
1.12591
1.12412
1.13109
1.12436
1.11229
1.09483
1.09071
1.10971
1.12072
1.13105
1.13447
1.11481
1.10354
1.12629
1.17522
1.20001
1.19548
1.18589
1.16766
1.16195
1.1688
1.17135
1.16317
1.1515
1.15557
1.16975
1.17704
1.17458
1.17011
1.1497
1.13137
1.13146
1.13108
1.12395
1.10651
1.08038
1.05697
1.04736
1.0531
1.06906
1.0633
1.04775
1.0631
1.05604
1.07235
1.07533
1.04878
1.05327
1.07926
1.0987
1.07652
1.07337
1.09126
1.10287
1.13318
1.09505
1.07831
1.08581
1.07124
1.10487
1.13029
1.14127
1.16144
1.14996
1.16452
1.1736
1.15614
1.16556
1.17631
1.18036
1.13605
1.13345
1.14184
1.10095
1.10473
1.13401
1.09513
1.09251
1.16386
1.20147
1.18952
1.19427
1.2235
1.24235
1.24731
1.2376
1.2061
1.16198
1.13538
1.14671
1.15462
1.16302
1.17711
1.15818
1.12461
1.07292
1.03434
1.02854
1.00614
0.976579
1.00693
1.01127
0.96856
1.05967
1.01852
0.976898
1.04786
1.0609
1.02981
0.989737
0.991553
1.05016
1.05554
1.11455
1.15924
1.19267
1.13662
1.17531
1.1408
1.17488
1.17227
1.18626
1.21006
1.22445
1.22254
1.2169
1.23264
1.24278
1.24131
1.23756
1.23222
1.22445
1.21612
1.21171
1.21218
1.21676
1.22096
1.22389
1.22364
1.22493
1.2239
1.22277
1.22322
1.22246
1.22045
1.21944
1.22021
1.22064
1.22211
1.22246
1.21916
1.21505
1.21299
1.21278
1.21063
1.20997
1.20957
1.20782
1.20507
1.20431
1.19926
1.19044
1.1888
1.19343
1.19506
1.18969
1.18188
1.17343
1.1653
1.16599
1.17075
1.16592
1.16304
1.16533
1.15831
1.15459
1.15572
1.14486
1.1428
1.14167
1.13231
1.12032
1.12782
1.12308
1.12112
1.10212
1.09635
1.10406
1.11695
1.13117
1.1459
1.12692
1.10703
1.12288
1.16747
1.2001
1.19792
1.18981
1.17267
1.15869
1.16361
1.16804
1.15891
1.14781
1.15098
1.16225
1.16076
1.15906
1.15624
1.14215
1.13635
1.14169
1.13996
1.12185
1.10318
1.09148
1.07981
1.05758
1.05273
1.06874
1.06936
1.04217
1.03561
1.02436
1.04133
1.06206
1.04589
1.05665
1.08922
1.1113
1.08997
1.06966
1.11159
1.12241
1.12238
1.1056
1.07484
1.07801
1.09311
1.12332
1.14841
1.15894
1.18668
1.16571
1.1503
1.17536
1.15712
1.13925
1.14053
1.16405
1.13879
1.1301
1.14314
1.10857
1.10398
1.13346
1.10376
1.08924
1.14743
1.19066
1.18444
1.19262
1.21874
1.24315
1.25187
1.24726
1.2116
1.16489
1.13358
1.14461
1.17487
1.17934
1.17671
1.15349
1.10894
1.05245
1.02518
1.02228
0.996716
0.973143
1.00733
1.01157
0.982911
1.05629
1.00545
0.986253
1.07803
1.03302
1.00444
0.969305
1.03937
1.13987
1.11408
1.10899
1.17566
1.20692
1.18068
1.1915
1.17104
1.19
1.16425
1.17466
1.1953
1.22376
1.22985
1.21267
1.21246
1.22974
1.24042
1.2418
1.23863
1.23514
1.22956
1.22173
1.21421
1.21117
1.20852
1.20734
1.20713
1.20861
1.21026
1.2092
1.20684
1.20563
1.20719
1.21065
1.21215
1.21446
1.21602
1.2128
1.20903
1.20374
1.20173
1.20507
1.20354
1.20522
1.2115
1.21211
1.20612
1.1982
1.19395
1.19219
1.18968
1.18319
1.18268
1.18241
1.1742
1.17246
1.17632
1.17198
1.17228
1.17209
1.16418
1.1639
1.15831
1.15122
1.15468
1.1495
1.1409
1.14029
1.14217
1.12757
1.13111
1.11942
1.12104
1.10537
1.09516
1.10579
1.11003
1.12523
1.14991
1.14873
1.11722
1.11303
1.1576
1.20204
1.20135
1.1891
1.17769
1.16337
1.15869
1.16092
1.15503
1.1455
1.14359
1.14844
1.1507
1.14879
1.14464
1.13784
1.13521
1.14285
1.1335
1.12127
1.11171
1.09417
1.07912
1.0598
1.04972
1.06868
1.10472
1.08987
1.09196
1.06286
1.0721
1.08838
1.07525
1.07663
1.09965
1.10958
1.09822
1.08674
1.1071
1.13764
1.11962
1.10616
1.09829
1.08805
1.10306
1.13031
1.14441
1.14899
1.18768
1.18433
1.14212
1.15566
1.15657
1.13529
1.12637
1.15112
1.1358
1.12489
1.13953
1.11331
1.10505
1.132
1.11199
1.08916
1.13465
1.17613
1.17517
1.18455
1.21448
1.24242
1.25104
1.25441
1.22607
1.18545
1.15557
1.15299
1.19818
1.19533
1.17694
1.14655
1.09488
1.03484
1.01883
1.01481
0.987011
0.978815
1.019
1.01647
0.989262
1.04976
1.01477
1.00164
1.0966
1.0276
1.02513
1.01883
1.09551
1.21198
1.18707
1.13562
1.17262
1.20696
1.20341
1.20454
1.20456
1.19138
1.15657
1.16405
1.17977
1.21319
1.23162
1.22341
1.20861
1.21102
1.21738
1.22211
1.22324
1.225
1.22703
1.22651
1.22478
1.22136
1.21493
1.2092
1.20608
1.20455
1.20353
1.20288
1.20631
1.2093
1.21343
1.21957
1.22148
1.21861
1.21136
1.20635
1.20808
1.21153
1.213
1.21466
1.21598
1.21242
1.2047
1.19735
1.19267
1.18712
1.18596
1.18361
1.18262
1.18733
1.18262
1.17873
1.17783
1.17167
1.17528
1.17959
1.17572
1.17452
1.16864
1.16574
1.16441
1.15458
1.15134
1.15085
1.14324
1.13843
1.14204
1.13362
1.13768
1.12784
1.1201
1.11664
1.09278
1.10661
1.11265
1.11549
1.14207
1.16396
1.14477
1.1154
1.13403
1.19141
1.21373
1.19564
1.18114
1.17095
1.16323
1.15617
1.14875
1.14438
1.14176
1.13759
1.13891
1.14529
1.14704
1.13404
1.14037
1.14257
1.13355
1.12169
1.11579
1.10111
1.08213
1.08688
1.08422
1.06909
1.1044
1.08988
1.09366
1.06255
1.07768
1.08746
1.06598
1.07818
1.10747
1.11976
1.09385
1.10829
1.13159
1.14481
1.12243
1.09323
1.09581
1.10395
1.12918
1.16003
1.17606
1.17576
1.18244
1.17798
1.13684
1.14453
1.14912
1.1183
1.10801
1.13884
1.13503
1.12442
1.1379
1.11844
1.10627
1.13249
1.11893
1.09229
1.12554
1.16381
1.16803
1.16838
1.21079
1.24146
1.25522
1.25961
1.24337
1.21487
1.19271
1.16967
1.22196
1.20528
1.1743
1.13547
1.07853
1.02133
1.01878
1.01124
0.980906
0.988897
1.02753
1.02221
1.00046
1.04315
1.02357
1.0206
1.11123
1.03833
1.05576
1.09616
1.14317
1.2247
1.24649
1.20837
1.20393
1.21286
1.19713
1.19759
1.21944
1.19387
1.15115
1.16298
1.18807
1.21709
1.22613
1.22205
1.22088
1.21434
1.20949
1.20662
1.20448
1.20464
1.20792
1.21401
1.22082
1.22661
1.23133
1.23408
1.23418
1.23229
1.22875
1.2298
1.23179
1.22706
1.22178
1.21662
1.21153
1.20681
1.20594
1.20968
1.21368
1.21735
1.21706
1.20817
1.19967
1.19096
1.18475
1.18199
1.18243
1.18583
1.18459
1.18644
1.18165
1.17458
1.17561
1.17257
1.17325
1.17702
1.17855
1.17993
1.17364
1.17029
1.16954
1.16332
1.16328
1.15697
1.1515
1.1511
1.14621
1.14189
1.14127
1.13404
1.13313
1.13679
1.1224
1.12599
1.10161
1.10059
1.1198
1.11461
1.12892
1.16248
1.16967
1.14039
1.12282
1.16447
1.21355
1.21071
1.18803
1.17386
1.16918
1.16141
1.14789
1.14299
1.1436