/*--------------------------------*- C++ -*----------------------------------*\
| =========                 |                                                 |
| \\      /  F ield         | OpenFOAM: The Open Source CFD Toolbox           |
|  \\    /   O peration     | Version:  dev                                   |
|   \\  /    A nd           | Web:      http://www.openfoam.org               |
|    \\/     M anipulation  |                                                 |
\*---------------------------------------------------------------------------*/
FoamFile
{
    version     2.0;
    format      ascii;
    class       volScalarField;
    object      rho_0;
    location    "9.13";
}
// * * * * * * * * * * * * * * * * * * * * * * * * * * * * * * * * * * * * * //

dimensions      [1 -3 0 0 0 0 0];

internalField   nonuniform List<scalar> 
12225
(
1.05552
1.05546
1.05544
1.05634
1.05817
1.05967
1.06209
1.06412
1.06665
1.06893
1.07166
1.07395
1.07735
1.07769
1.08445
1.08465
1.07793
1.09423
1.05673
1.05555
1.05658
1.05865
1.06073
1.06328
1.06501
1.06821
1.06993
1.07316
1.0752
1.07793
1.08248
1.07953
1.09046
1.09378
1.07411
1.11461
1.05639
1.05522
1.05679
1.05938
1.06177
1.06479
1.06676
1.07004
1.07221
1.07512
1.07809
1.07976
1.085
1.08361
1.09276
1.08763
1.1016
1.0879
1.05651
1.05509
1.05714
1.05958
1.06226
1.06515
1.06787
1.07056
1.07353
1.07584
1.08006
1.08033
1.08712
1.08494
1.09378
1.08805
1.11487
1.08031
1.05783
1.05532
1.05753
1.05979
1.06272
1.06512
1.06851
1.07078
1.07418
1.0763
1.08073
1.08102
1.08769
1.0854
1.09409
1.09661
1.09479
1.09442
1.05813
1.05622
1.0582
1.06078
1.06336
1.06616
1.06907
1.07169
1.07504
1.07696
1.08123
1.08187
1.08736
1.08665
1.09444
1.09293
1.0961
1.0996
1.05898
1.05742
1.05939
1.06152
1.06444
1.06708
1.07013
1.07252
1.07582
1.07785
1.08154
1.08264
1.0878
1.08704
1.09598
1.08705
1.11152
1.09845
1.05997
1.05864
1.06059
1.06245
1.06559
1.06782
1.07142
1.0733
1.07709
1.07858
1.08243
1.0836
1.08845
1.0883
1.0946
1.09361
1.10253
1.10217
1.06145
1.05963
1.06144
1.06339
1.0665
1.06863
1.07207
1.07433
1.07777
1.07921
1.08307
1.08443
1.08908
1.08967
1.09355
1.09682
1.09794
1.10082
1.06307
1.06124
1.06295
1.06472
1.06776
1.07001
1.07306
1.07551
1.07828
1.08003
1.08351
1.08555
1.08914
1.09102
1.09411
1.09642
1.09813
1.10128
1.06522
1.06344
1.06481
1.06649
1.06948
1.07145
1.07461
1.07647
1.07945
1.08143
1.08449
1.08703
1.08981
1.09245
1.09493
1.09717
1.09923
1.10217
1.06849
1.06618
1.0673
1.06909
1.07175
1.07352
1.07655
1.07849
1.08155
1.08348
1.08655
1.08855
1.09135
1.09375
1.09595
1.09829
1.10031
1.10271
1.0722
1.06983
1.07073
1.07257
1.07477
1.07644
1.07909
1.08105
1.08376
1.08551
1.0882
1.09024
1.09291
1.09504
1.09736
1.0997
1.10158
1.10377
1.0779
1.07472
1.07501
1.07671
1.07866
1.08068
1.08285
1.08485
1.08705
1.089
1.09134
1.09325
1.09555
1.09758
1.09984
1.10169
1.1039
1.1058
1.08477
1.08134
1.08148
1.08283
1.08429
1.08605
1.08784
1.08983
1.09159
1.09354
1.0954
1.0972
1.09921
1.10097
1.10309
1.10484
1.10653
1.10836
1.09424
1.09011
1.08985
1.09077
1.09196
1.09338
1.09479
1.0964
1.09779
1.09951
1.10103
1.10282
1.10462
1.10629
1.10798
1.10961
1.11132
1.11258
1.10624
1.10138
1.10078
1.10135
1.10217
1.10318
1.10442
1.10571
1.10697
1.1084
1.10972
1.11111
1.11244
1.11377
1.1151
1.11627
1.11737
1.1186
1.11968
1.11458
1.11384
1.11417
1.11461
1.11535
1.11619
1.11709
1.11807
1.11891
1.12003
1.12088
1.12198
1.12288
1.12383
1.12475
1.1256
1.1264
1.13264
1.12711
1.12655
1.12686
1.12721
1.12779
1.12827
1.12895
1.12956
1.13001
1.1308
1.13121
1.13189
1.13249
1.13304
1.13368
1.1342
1.13469
1.14365
1.13842
1.13808
1.13832
1.13885
1.13917
1.13946
1.13982
1.14002
1.14025
1.14061
1.14079
1.14108
1.14141
1.14152
1.1419
1.14192
1.14214
1.15326
1.1481
1.14803
1.14835
1.14878
1.14903
1.14933
1.14944
1.14938
1.14939
1.14927
1.14917
1.14915
1.14898
1.14901
1.14883
1.14874
1.14859
1.16049
1.1553
1.1558
1.1565
1.15672
1.15701
1.15696
1.15693
1.15672
1.15651
1.15621
1.15595
1.15566
1.1553
1.15509
1.15462
1.15445
1.15394
1.1666
1.16164
1.16217
1.16292
1.16336
1.1634
1.16337
1.1631
1.16287
1.16237
1.16199
1.16147
1.16093
1.16051
1.15985
1.15948
1.15882
1.1584
1.17104
1.16626
1.1669
1.16765
1.16804
1.16819
1.1682
1.16802
1.16755
1.16705
1.16635
1.16567
1.165
1.16422
1.16369
1.1629
1.16238
1.16164
1.17409
1.1694
1.17023
1.17107
1.17147
1.17176
1.17179
1.17157
1.17112
1.17036
1.16962
1.16876
1.16791
1.16715
1.1663
1.16562
1.16482
1.16411
1.17647
1.17183
1.17282
1.17384
1.17441
1.17458
1.17447
1.17407
1.17343
1.17269
1.17181
1.17096
1.17006
1.16918
1.16832
1.16744
1.16661
1.16572
1.17828
1.17352
1.17447
1.1755
1.17612
1.17632
1.1762
1.17575
1.1751
1.17427
1.17338
1.1724
1.17142
1.17044
1.16947
1.16851
1.16756
1.16658
1.17916
1.17441
1.17547
1.17655
1.17716
1.17729
1.17712
1.17659
1.17588
1.17494
1.17393
1.17278
1.17165
1.17047
1.16935
1.1682
1.1671
1.16603
1.18011
1.17544
1.17627
1.17713
1.17748
1.17732
1.17679
1.17593
1.17489
1.17365
1.17234
1.17099
1.16972
1.16846
1.16734
1.16622
1.16528
1.16435
1.18211
1.17775
1.17724
1.17668
1.17601
1.17518
1.17422
1.17312
1.17194
1.17069
1.16945
1.16822
1.16703
1.16588
1.16479
1.16374
1.16277
1.162
1.27374
1.31276
1.31542
1.30793
1.30296
1.30011
1.29722
1.29376
1.28921
1.28398
1.27818
1.27231
1.26628
1.26025
1.25422
1.24868
1.24331
1.23739
1.23149
1.22759
1.22685
1.22718
1.2255
1.22225
1.21911
1.21609
1.21301
1.20984
1.20661
1.20324
1.19977
1.19623
1.19266
1.18911
1.18556
1.18206
1.17854
1.17502
1.17152
1.16805
1.16473
1.16153
1.15846
1.15538
1.15218
1.14881
1.14534
1.14186
1.13841
1.13519
1.13242
1.12988
1.1272
1.12428
1.12161
1.1192
1.1166
1.11359
1.11057
1.10719
1.103
1.09839
1.09473
1.09263
1.09131
1.0902
1.08935
1.08934
1.08966
1.08909
1.08783
1.08755
1.08875
1.0909
1.09357
1.09677
1.10066
1.10258
1.09574
1.08304
1.07734
1.08144
1.0884
1.09563
1.10315
1.10568
1.10299
1.08867
1.07325
1.07057
1.08098
1.0949
1.09882
1.0984
1.10265
1.10152
1.09198
1.08844
1.09545
1.10545
1.11425
1.121
1.12386
1.11869
1.10441
1.09356
1.1051
1.13637
1.13184
1.0489
1.13132
1.1429
1.14356
1.146
1.14725
1.14841
1.14911
1.14973
1.14991
1.14954
1.1491
1.14872
1.14808
1.14613
1.14431
1.14241
1.13889
1.13338
1.1264
1.11991
1.11375
1.1111
1.10854
1.1061
1.10379
1.10073
1.09883
1.09731
1.09599
1.09259
1.0882
1.08489
1.08269
1.08022
1.07709
1.0726
1.06658
1.05983
1.0571
1.06139
1.06969
1.07542
1.08449
1.0887
1.09896
1.10295
1.10659
1.10232
1.10561
1.10331
1.10805
1.11918
1.10861
1.10573
1.11115
1.1054
1.10236
1.09663
1.09372
1.09064
1.09112
1.0907
1.09195
1.09102
1.09268
1.09561
1.102
1.10293
1.10622
1.10053
1.27637
1.3195
1.30944
1.30018
1.30234
1.30278
1.29905
1.29314
1.28669
1.28322
1.28144
1.27991
1.27569
1.2702
1.2635
1.25733
1.25251
1.24845
1.24507
1.24312
1.24282
1.24003
1.23667
1.23213
1.22964
1.22658
1.22307
1.21921
1.21479
1.21123
1.20643
1.20218
1.19827
1.19503
1.19189
1.18913
1.18549
1.18171
1.17788
1.17424
1.17139
1.16893
1.16662
1.16369
1.15988
1.1553
1.15052
1.14584
1.14132
1.13797
1.13635
1.13515
1.13334
1.13033
1.12885
1.12937
1.12955
1.12728
1.12389
1.1207
1.11913
1.11732
1.11266
1.10715
1.10568
1.1073
1.10325
1.09353
1.09252
1.10292
1.10829
1.10263
1.09604
1.09515
1.09754
1.10028
1.10582
1.11962
1.13668
1.14391
1.13064
1.11119
1.10111
1.1015
1.12113
1.13825
1.15052
1.1434
1.12663
1.12547
1.12241
1.12545
1.13711
1.13976
1.12367
1.10379
1.10221
1.11632
1.13458
1.15096
1.16286
1.16453
1.15044
1.12066
1.08671
1.07725
1.10895
1.15334
1.12433
1.01606
1.09859
1.12216
1.1238
1.13231
1.13533
1.14193
1.14578
1.15129
1.15663
1.16319
1.16963
1.17473
1.18206
1.1889
1.19079
1.19463
1.2008
1.20599
1.21107
1.21924
1.21334
1.19777
1.18673
1.17477
1.16369
1.15815
1.15643
1.15445
1.15639
1.15726
1.15205
1.14571
1.14445
1.14205
1.13596
1.12578
1.11314
1.11199
1.11939
1.13022
1.13495
1.13791
1.14756
1.14881
1.15889
1.15119
1.15286
1.13652
1.13131
1.11722
1.10422
1.14361
1.1247
1.08749
1.12959
1.15334
1.16322
1.16723
1.16896
1.16462
1.16722
1.16664
1.16963
1.16847
1.16648
1.16871
1.18636
1.19371
1.20945
1.18215
1.26476
1.29797
1.28753
1.29015
1.2926
1.2897
1.29077
1.29615
1.29726
1.29408
1.2862
1.27975
1.27152
1.26129
1.25556
1.25001
1.2466
1.24251
1.24222
1.24005
1.23443
1.22806
1.22351
1.22268
1.21889
1.21514
1.20919
1.20636
1.20229
1.19628
1.19407
1.19045
1.18807
1.18717
1.185
1.18289
1.18096
1.17685
1.17433
1.17123
1.16718
1.16446
1.1604
1.15659
1.152
1.14727
1.14257
1.13805
1.13327
1.12922
1.1261
1.1225
1.12003
1.11815
1.1185
1.11932
1.11931
1.11892
1.11888
1.11545
1.11241
1.11334
1.11175
1.10655
1.10728
1.10745
1.09987
1.09956
1.10422
1.09568
1.089
1.10414
1.11919
1.1125
1.09345
1.08063
1.07872
1.08676
1.11133
1.13774
1.14881
1.14289
1.11906
1.11507
1.13934
1.14979
1.14505
1.14086
1.13941
1.12709
1.11598
1.12705
1.13814
1.13256
1.1143
1.1021
1.09701
1.09218
1.09286
1.10333
1.1175
1.12454
1.12219
1.10876
1.09235
1.09237
1.10284
1.10742
1.08419
1.09872
1.06466
1.07894
1.08078
1.08839
1.08995
1.09838
1.10373
1.10797
1.11019
1.11954
1.12772
1.13286
1.13987
1.1473
1.14947
1.15056
1.1515
1.15825
1.16049
1.16828
1.19484
1.21602
1.23313
1.24438
1.23355
1.21649
1.20948
1.20334
1.19577
1.19256
1.18492
1.17859
1.17545
1.1741
1.15356
1.14168
1.14483
1.15067
1.1588
1.16079
1.15627
1.14701
1.1388
1.13025
1.1349
1.12656
1.12826
1.12854
1.11209
1.10051
1.06896
1.0879
1.09191
1.02296
1.0494
1.10281
1.11809
1.1407
1.16448
1.1685
1.15958
1.15889
1.1703
1.18662
1.19846
1.20302
1.22096
1.23766
1.28461
1.27668
1.2527
1.28629
1.28136
1.28076
1.2803
1.28438
1.29215
1.30048
1.29995
1.28712
1.27777
1.27492
1.26664
1.2546
1.24905
1.24836
1.24988
1.25005
1.24001
1.23083
1.22378
1.22379
1.22412
1.22176
1.21742
1.21649
1.2163
1.21324
1.21094
1.20949
1.20696
1.2081
1.207
1.20368
1.20342
1.1995
1.19763
1.1945
1.19039
1.18794
1.18407
1.1796
1.1771
1.1729
1.16962
1.16476
1.15929
1.15286
1.14525
1.13785
1.13125
1.12339
1.11651
1.11299
1.11268
1.111
1.11097
1.11459
1.11616
1.11101
1.10678
1.10962
1.11023
1.10175
1.09783
1.10297
1.10209
1.09657
1.09835
1.10298
1.09942
1.09538
1.10051
1.10925
1.1107
1.09825
1.08768
1.08875
1.09912
1.13235
1.17185
1.15832
1.12394
1.13651
1.16071
1.15612
1.1484
1.15247
1.15098
1.13466
1.1314
1.14402
1.14511
1.12899
1.11049
1.10171
1.08929
1.07823
1.07963
1.08768
1.0889
1.07914
1.07354
1.0776
1.08866
1.09607
1.09039
1.07906
1.07382
1.09986
1.0721
1.07773
1.07747
1.07987
1.08342
1.08912
1.1004
1.10776
1.10056
1.10931
1.12111
1.12043
1.12109
1.14108
1.15412
1.15484
1.15082
1.15166
1.15263
1.14989
1.14972
1.16018
1.18359
1.22014
1.24244
1.24269
1.2425
1.24661
1.22952
1.21162
1.19709
1.19391
1.18845
1.1835
1.16936
1.15542
1.15962
1.17101
1.17566
1.16884
1.16293
1.15308
1.15177
1.1448
1.15002
1.15943
1.13515
1.13617
1.13711
1.12674
1.12489
1.09105
1.12219
1.08741
1.0437
1.07527
1.08429
1.10895
1.12052
1.14449
1.12792
1.09452
1.09426
1.13027
1.17502
1.20152
1.2195
1.24158
1.28519
1.32598
1.24288
1.27591
1.27731
1.2769
1.28168
1.29356
1.30533
1.30205
1.2793
1.26975
1.2708
1.26409
1.25611
1.25332
1.24699
1.24835
1.24329
1.23523
1.22617
1.22296
1.22442
1.22501
1.22713
1.22564
1.22781
1.23159
1.23336
1.2328
1.2315
1.23176
1.23164
1.23163
1.22981
1.22868
1.22563
1.22099
1.21919
1.21485
1.21089
1.20762
1.20293
1.19983
1.19617
1.19199
1.18744
1.18168
1.176
1.1695
1.16074
1.15135
1.14437
1.13836
1.12611
1.11125
1.10296
1.1009
1.10268
1.10673
1.10337
1.0979
1.10219
1.10755
1.10059
1.09214
1.09783
1.11021
1.11056
1.09786
1.08803
1.09328
1.10368
1.09943
1.08877
1.09857
1.11499
1.10043
1.08487
1.09883
1.12467
1.14957
1.15955
1.14438
1.13921
1.15628
1.15951
1.15018
1.15264
1.16162
1.15376
1.13466
1.12916
1.13062
1.12763
1.11879
1.11236
1.11103
1.10784
1.1162
1.13119
1.13737
1.12784
1.11195
1.10421
1.10541
1.11026
1.10737
1.09995
1.0951
1.08748
1.07822
1.07563
1.0846
1.07664
1.0792
1.08975
1.09442
1.10506
1.12387
1.10786
1.10221
1.10695
1.10118
1.09741
1.10661
1.11345
1.12597
1.13128
1.13382
1.14943
1.16656
1.15571
1.12961
1.13264
1.17515
1.21211
1.23071
1.25043
1.27187
1.25557
1.22224
1.20373
1.2003
1.198
1.1888
1.18628
1.18257
1.18254
1.18618
1.18204
1.17757
1.17022
1.17022
1.18219
1.17774
1.15395
1.15981
1.14122
1.1137
1.13731
1.16274
1.16168
1.05397
1.07537
1.13363
1.07331
1.07021
1.04871
1.1004
1.10278
1.11011
1.10735
1.07079
1.04172
1.06123
1.12001
1.17603
1.19327
1.22485
1.24956
1.31242
1.2343
1.26298
1.26524
1.2677
1.27845
1.28503
1.28064
1.28734
1.28682
1.27824
1.26809
1.2576
1.25484
1.25145
1.24674
1.24331
1.24344
1.23851
1.23531
1.23552
1.24264
1.24733
1.24886
1.24742
1.24864
1.25004
1.24867
1.24806
1.24447
1.24228
1.24295
1.23981
1.23881
1.2376
1.23255
1.23169
1.22837
1.22414
1.22204
1.21778
1.212
1.20643
1.19865
1.19161
1.1821
1.17498
1.17006
1.16822
1.16577
1.15942
1.15132
1.14976
1.14577
1.12999
1.11152
1.10293
1.0995
1.10066
1.09816
1.09761
1.10071
1.09791
1.09138
1.09276
1.10184
1.11174
1.11315
1.09895
1.08503
1.0973
1.11504
1.09622
1.0794
1.10471
1.11573
1.08634
1.08407
1.12087
1.15077
1.15981
1.15563
1.15256
1.15905
1.16467
1.16096
1.15461
1.15878
1.16184
1.14784
1.13306
1.12576
1.11901
1.11434
1.11092
1.11337
1.11708
1.12162
1.13222
1.13535
1.12572
1.11283
1.11077
1.11713
1.12172
1.11251
1.10674
1.12067
1.13119
1.11931
1.09816
1.08139
1.08609
1.06645
1.07328
1.08149
1.10502
1.10645
1.13344
1.14823
1.1346
1.13764
1.13836
1.12975
1.13971
1.13039
1.12426
1.13777
1.1103
1.09355
1.13217
1.17067
1.14143
1.11088
1.13832
1.16963
1.18661
1.22762
1.27259
1.2698
1.22875
1.2078
1.20458
1.20552
1.19681
1.1929
1.19313
1.18505
1.18115
1.18083
1.18644
1.18736
1.17666
1.16291
1.17459
1.1765
1.15873
1.11642
1.04853
1.06045
1.1644
1.20011
1.07433
0.993644
1.06047
1.05849
1.07527
1.02827
1.06712
1.10301
1.11802
1.12287
1.1006
1.04774
1.02392
1.05776
1.14362
1.16692
1.20183
1.21549
1.25944
1.22641
1.25306
1.25944
1.26729
1.27708
1.29204
1.28955
1.27986
1.27454
1.25835
1.25058
1.24392
1.24371
1.2442
1.24822
1.25401
1.25339
1.24781
1.24382
1.24231
1.24818
1.25451
1.2548
1.25117
1.24642
1.24345
1.23856
1.2325
1.22723
1.22468
1.22646
1.2251
1.22365
1.22293
1.219
1.21596
1.212
1.20944
1.20537
1.2017
1.19766
1.19211
1.18642
1.1796
1.17247
1.16428
1.15804
1.15351
1.15296
1.15213
1.14636
1.14168
1.14403
1.14237
1.12996
1.11654
1.10399
1.10242
1.10042
1.09723
1.0993
1.09906
1.09308
1.09654
1.10597
1.10845
1.10562
1.10473
1.10895
1.11346
1.09925
1.0809
1.09749
1.11569
1.09657
1.08747
1.12117
1.15854
1.17323
1.17316
1.16687
1.16396
1.16671
1.16675
1.15883
1.15177
1.15883
1.1599
1.14806
1.13969
1.12802
1.11708
1.11681
1.12258
1.13529
1.14392
1.14575
1.14016
1.12246
1.10031
1.08457
1.07812
1.0767
1.0827
1.08009
1.07371
1.08469
1.09371
1.09922
1.11328
1.11344
1.10427
1.07818
1.07293
1.06394
1.08416
1.09546
1.09969
1.1202
1.13526
1.13323
1.14722
1.15525
1.16431
1.16869
1.13401
1.16356
1.17637
1.10879
1.08701
1.13844
1.14256
1.11198
1.12971
1.15243
1.15311
1.19534
1.26078
1.27421
1.23595
1.21016
1.21008
1.21221
1.2081
1.19677
1.19187
1.18356
1.18337
1.18779
1.17863
1.17662
1.15716
1.10353
1.12508
1.18245
1.1758
1.12012
1.03896
0.996077
1.11105
1.15887
1.08604
1.01219
1.02048
1.03418
1.05719
1.01992
1.03753
1.07266
1.11913
1.15336
1.15565
1.09929
1.04171
1.02169
1.1054
1.14592
1.1813
1.1846
1.20528
1.21791
1.2426
1.25541
1.27413
1.28041
1.28409
1.28708
1.2741
1.26184
1.26036
1.25841
1.25221
1.24345
1.23868
1.23572
1.24056
1.24721
1.25059
1.24784
1.24378
1.24444
1.24907
1.24812
1.24458
1.24045
1.23224
1.22329
1.21778
1.21787
1.22087
1.22267
1.22685
1.22857
1.22586
1.22259
1.21986
1.21469
1.2108
1.20673
1.20316
1.1996
1.19536
1.19042
1.18486
1.18003
1.17516
1.17051
1.1652
1.16008
1.15962
1.16186
1.15597
1.14768
1.14484
1.14222
1.13267
1.11961
1.10848
1.10126
1.09597
1.09827
1.09901
1.0968
1.10109
1.10121
1.09592
1.10307
1.12406
1.1315
1.11023
1.08769
1.09511
1.11643
1.10527
1.08746
1.10808
1.15157
1.18022
1.18588
1.18363
1.1794
1.17568
1.17501
1.17099
1.15901
1.15386
1.16347
1.15966
1.14933
1.14255
1.12966
1.12518
1.13143
1.13871
1.14418
1.1371
1.12243
1.10685
1.09142
1.08534
1.08498
1.08037
1.06932
1.07141
1.07522
1.06055
1.05049
1.07015
1.08909
1.07955
1.09804
1.12525
1.12935
1.11275
1.09333
1.0929
1.10039
1.11795
1.12016
1.12997
1.13958
1.14158
1.15071
1.15269
1.1944
1.17201
1.13964
1.19169
1.17274
1.11312
1.1316
1.13907
1.10387
1.11878
1.14431
1.12974
1.15677
1.23786
1.27178
1.24249
1.21303
1.21425
1.2201
1.22006
1.21046
1.20114
1.20435
1.21295
1.2156
1.19395
1.15809
1.13214
1.08866
1.084
1.12615
1.13722
1.12011
1.08277
0.996191
1.08503
1.1296
1.04469
1.00521
1.02259
1.06017
1.06965
1.00609
1.02375
1.05466
1.12547
1.16098
1.15039
1.10109
1.05476
1.01196
1.07296
1.12743
1.17177
1.16186
1.15918
1.21041
1.23456
1.24918
1.27092
1.27998
1.27403
1.26847
1.2664
1.27129
1.26211
1.24871
1.2476
1.2442
1.23954
1.23236
1.22929
1.22851
1.23279
1.23565
1.2386
1.23913
1.23775
1.23941
1.24223
1.24131
1.23292
1.22452
1.22274
1.22473
1.2309
1.23642
1.23997
1.24041
1.23983
1.23637
1.23189
1.22673
1.22163
1.21775
1.21498
1.21229
1.21056
1.20776
1.20234
1.19423
1.18596
1.17822
1.17336
1.16919
1.16282
1.16102
1.16538
1.16414
1.15477
1.15065
1.1454
1.14267
1.12856
1.12039
1.10602
1.0987
1.09438
1.09712
1.10114
1.09849
1.10454
1.12207
1.13186
1.12148
1.10064
1.09696
1.11237
1.11225
1.09329
1.10174
1.14154
1.17638
1.19471
1.19598
1.18835
1.18147
1.17958
1.1779
1.16748
1.15182
1.15389
1.16642
1.1574
1.14761
1.14263
1.13544
1.13704
1.1398
1.13571
1.1284
1.11569
1.10872
1.10689
1.10548
1.10709
1.10349
1.08655
1.05401
1.04362
1.05363
1.06865
1.05943
1.06992
1.05881
1.07144
1.06673
1.09066
1.11819
1.1354
1.09919
1.08443
1.08189
1.09156
1.11485
1.11956
1.12706
1.13935
1.15301
1.13979
1.15531
1.19671
1.1472
1.16124
1.19159
1.14111
1.13585
1.14762
1.10643
1.11293
1.1453
1.12377
1.12952
1.20986
1.26371
1.24525
1.21616
1.21646
1.22865
1.22948
1.22665
1.2194
1.22627
1.22524
1.20583
1.18709
1.15482
1.1462
1.13438
1.12007
1.11897
1.09941
1.09195
1.11229
1.01413
1.04153
1.1226
1.06342
1.01522
1.02673
1.07431
1.09386
1.01055
1.00683
1.02566
1.11228
1.14545
1.11886
1.07583
1.05281
1.02155
1.05386
1.10938
1.16747
1.15111
1.13077
1.20246
1.22654
1.24249
1.26332
1.27087
1.26262
1.27032
1.26303
1.25124
1.25654
1.25103
1.24432
1.24205
1.2411
1.23517
1.22707
1.22095
1.22054
1.22252
1.22263
1.22471
1.22707
1.22904
1.23149
1.23557
1.23627
1.22849
1.22101
1.21864
1.21828
1.21884
1.22096
1.22151
1.22269
1.22324
1.22097
1.21751
1.21323
1.20859
1.20534
1.20333
1.20266
1.20428
1.20614
1.20379
1.19555
1.1848
1.17327
1.16688
1.16652
1.16086
1.15521
1.15755
1.16012
1.15802
1.15129
1.1525
1.14513
1.14257
1.1296
1.11768
1.10316
1.09659
1.09983
1.09447
1.10406
1.12838
1.12579
1.11015
1.10535
1.11386
1.1195
1.10481
1.10139
1.13228
1.17151
1.19528
1.19924
1.19526
1.19172
1.1873
1.18465
1.1787
1.16226
1.14728
1.1589
1.1716
1.16332
1.16035
1.16511
1.16455
1.16129
1.15102
1.13611
1.12492
1.12156
1.12673
1.12685
1.11422
1.091
1.08051
1.08289
1.06913
1.07723
1.08844
1.09439
1.09172
1.08301
1.09629
1.0814
1.07392
1.08584
1.10492
1.13766
1.13194
1.10141
1.08329
1.08228
1.09887
1.1243
1.12852
1.12127
1.1364
1.16455
1.14382
1.19033
1.18655
1.14695
1.17417
1.15893
1.14699
1.16255
1.11414
1.10247
1.14377
1.12378
1.10861
1.17988
1.24984
1.24525
1.21815
1.21874
1.23613
1.24024
1.23794
1.23363
1.23085
1.20896
1.17799
1.16979
1.14789
1.16411
1.15223
1.12107
1.12505
1.11568
1.07048
1.07231
1.02424
1.03171
1.10647
1.03074
0.998285
1.03368
1.07005
1.06899
1.013
1.00432
1.017
1.0915
1.10387
1.07562
1.04699
1.05502
1.04395
1.06109
1.1008
1.16773
1.16303
1.12609
1.19419
1.2174
1.23162
1.25092
1.27047
1.25844
1.24387
1.26102
1.25982
1.25016
1.24559
1.23478
1.22983
1.23061
1.23629
1.23676
1.23213
1.2279
1.22857
1.22862
1.22967
1.22834
1.2238
1.21905
1.21968
1.22788
1.23515
1.23155
1.22509
1.22003
1.21675
1.21553
1.2169
1.22033
1.2235
1.22413
1.22296
1.21972
1.21591
1.21337
1.20959
1.20213
1.19728
1.19834
1.20131
1.19961
1.19313
1.18639
1.17561
1.16701
1.16876
1.16927
1.15955
1.15525
1.1512
1.14807
1.14268
1.14185
1.13895
1.13931
1.13471
1.12741
1.10725
1.10156
1.09435
1.09318
1.12139
1.12437
1.11331
1.11842
1.12474
1.11851
1.10526
1.11874
1.16087
1.19029
1.20192
1.20324
1.19399
1.18752
1.18918
1.18795
1.17807
1.15948
1.15342
1.1719
1.18474
1.17917
1.18183
1.18384
1.16749
1.1497
1.13298
1.12161
1.12277
1.1272
1.12059
1.1015
1.07481
1.03965
1.03487
1.04596
1.03832
1.04298
1.05375
1.05273
1.06614
1.08952
1.11321
1.09668
1.0672
1.06441
1.09925
1.12611
1.12184
1.11954
1.09178
1.07909
1.0763
1.10099
1.14266
1.15137
1.13114
1.16187
1.15808
1.16468
1.20839
1.18276
1.17532
1.15875
1.13829
1.1675
1.13337
1.10027
1.14165
1.13374
1.0999
1.1545
1.23275
1.24271
1.21817
1.22051
1.24068
1.25059
1.24864
1.24338
1.23063
1.19647
1.17053
1.17115
1.15639
1.17804
1.18232
1.15403
1.13488
1.11726
1.08338
1.07614
1.04571
1.01744
1.07625
1.02761
0.992485
1.05264
1.07997
1.03849
1.01322
1.01848
1.03918
1.08368
1.07372
1.04408
1.02823
1.06413
1.0662
1.09284
1.10207
1.18505
1.1813
1.13721
1.18554
1.20689
1.22351
1.22949
1.2451
1.26078
1.25248
1.23574
1.23192
1.22617
1.22864
1.22755
1.22655
1.22124
1.21845
1.22185
1.22473
1.22604
1.22768
1.22473
1.2229
1.21834
1.21019
1.20479
1.20618
1.21208
1.22281
1.22725
1.2253
1.2223
1.22143
1.22228
1.22416
1.22752
1.2294
1.22742
1.22406
1.2193
1.21471
1.21352
1.21775
1.21814
1.2096
1.20456
1.20384
1.20223
1.19448
1.18275
1.17873
1.17395
1.16637
1.16799
1.16993
1.16647
1.15844
1.15509
1.14377
1.14602
1.13901
1.14276
1.13515
1.14015
1.12407
1.11034
1.1041
1.09204
1.11185
1.12957
1.12301
1.12989
1.13228
1.11608
1.1091
1.13521
1.17627
1.20127
1.20563
1.19889
1.19088
1.18667
1.18902
1.19181
1.18007
1.1605
1.15967
1.1832
1.19615
1.18927
1.18972
1.18005
1.15863
1.14278
1.13459
1.13816
1.14345
1.12464
1.08547
1.05132
1.03474
1.02633
1.03876
1.05687
1.06636
1.0601
1.06182
1.0637
1.04829
1.07955
1.10422
1.11428
1.09407
1.07816
1.10251
1.14432
1.13202
1.11454
1.1082
1.08956
1.08309
1.09929
1.12882
1.17782
1.16611
1.1686
1.19572
1.17112
1.19091
1.19435
1.18948
1.17886
1.14126
1.1637
1.14758
1.10192
1.13345
1.1425
1.09841
1.13328
1.21539
1.23642
1.21624
1.22037
1.24373
1.25649
1.25789
1.25137
1.23396
1.19739
1.17856
1.17873
1.16405
1.18309
1.19772
1.18037
1.16078
1.12679
1.08588
1.06753
1.05252
1.01271
1.05446
1.02783
0.994816
1.07052
1.07044
1.01924
1.02372
1.05839
1.08465
1.09706
1.05406
1.02357
1.03014
1.08644
1.09451
1.14231
1.11184
1.19808
1.17469
1.15347
1.17682
1.19533
1.21568
1.22402
1.22482
1.22932
1.24242
1.24481
1.23757
1.22153
1.21153
1.2115
1.21904
1.22351
1.2173
1.21249
1.21163
1.2111
1.21264
1.21281
1.21024
1.20842
1.2066
1.20342
1.20696
1.21379
1.22062
1.22535
1.22758
1.22801
1.22804
1.22858
1.22751
1.22737
1.2286
1.2249
1.22002
1.2149
1.2083
1.20331
1.19979
1.19914
1.19514
1.19373
1.19974
1.20129
1.19771
1.18595
1.17189
1.16927
1.1702
1.16493
1.16236
1.15713
1.15664
1.15831
1.15013
1.14766
1.13768
1.13708
1.12711
1.13505
1.13841
1.1255
1.1135
1.09959
1.10463
1.12892
1.12989
1.13669
1.13895
1.12109
1.11007
1.14219
1.18986
1.20813
1.20918
1.2001
1.18434
1.1825
1.18728
1.1917
1.18322
1.16659
1.16696
1.18907
1.19982
1.19766
1.19128
1.17176
1.14676
1.14152
1.14949
1.15529
1.14292
1.10471
1.05937
1.03607
1.03919
1.05803
1.06893
1.07982
1.10444
1.09426
1.09587
1.08147
1.06494
1.06622
1.10146
1.11296
1.09378
1.08267
1.09589
1.13558
1.14878
1.10331
1.10348
1.08986
1.07298
1.1123
1.13341
1.17298
1.18912
1.17423
1.20056
1.19672
1.19624
1.20499
1.19627
1.18549
1.14305
1.15691
1.15752
1.1117
1.1274
1.14993
1.10472
1.11732
1.19763
1.22877
1.21361
1.2191
1.24714
1.26273
1.26628
1.2575
1.23344
1.19366
1.17315
1.17805
1.16942
1.18455
1.20626
1.18376
1.15736
1.11014
1.07436
1.06291
1.0367
1.00064
1.03371
1.02584
0.992108
1.08704
1.05053
0.993705
1.03574
1.09024
1.09461
1.07084
1.0192
1.02906
1.05044
1.12205
1.14147
1.19099
1.12981
1.19464
1.15794
1.17309
1.16832
1.18439
1.20474
1.21692
1.21814
1.22368
1.22971
1.23097
1.23293
1.23081
1.22066
1.21061
1.20742
1.212
1.21467
1.21397
1.21127
1.20736
1.20548
1.20666
1.20563
1.20768
1.20944
1.20943
1.21374
1.21613
1.21759
1.21993
1.22071
1.21976
1.21863
1.2178
1.21609
1.21171
1.20798
1.20467
1.20323
1.20535
1.20677
1.20909
1.2083
1.20744
1.20495
1.19621
1.19034
1.18746
1.18041
1.175
1.17125
1.16918
1.16905
1.16858
1.17142
1.16502
1.1558
1.15358
1.15092
1.14598
1.14525
1.14244
1.13297
1.1302
1.13808
1.133
1.12245
1.10491
1.09908
1.11703
1.12957
1.14131
1.14786
1.12966
1.11597
1.13487
1.18416
1.21393
1.21177
1.20352
1.18531
1.1772
1.18386
1.18768
1.18053
1.16917
1.17273
1.18593
1.19285
1.19126
1.18824
1.16913
1.15262
1.15384
1.15278
1.14347
1.12581
1.10237
1.08169
1.07135
1.07583
1.09196
1.08585
1.06688
1.08041
1.07314
1.09111
1.09626
1.06944
1.07559
1.10249
1.12167
1.09845
1.09621
1.11682
1.12769
1.15541
1.11641
1.09938
1.10842
1.09789
1.13336
1.15833
1.16656
1.18658
1.17337
1.18498
1.19452
1.17415
1.18161
1.19256
1.1972
1.15393
1.151
1.1593
1.11909
1.12278
1.15217
1.11404
1.10965
1.17927
1.21821
1.20763
1.21363
1.24373
1.26514
1.27218
1.2645
1.23161
1.18641
1.15806
1.17104
1.18616
1.19375
1.20497
1.18505
1.1477
1.09359
1.05631
1.05137
1.02766
1.00026
1.03211
1.03523
0.994822
1.08516
1.03649
1.00264
1.08212
1.0791
1.04211
1.00158
1.02332
1.0927
1.09305
1.14466
1.1942
1.22156
1.16773
1.20048
1.16596
1.19732
1.15979
1.17387
1.19754
1.2121
1.21024
1.20422
1.21999
1.23044
1.22913
1.2256
1.22065
1.2133
1.20519
1.20071
1.20115
1.20588
1.21028
1.21354
1.21359
1.21513
1.21444
1.21345
1.21399
1.21342
1.21156
1.21091
1.212
1.21273
1.21454
1.21506
1.21193
1.2081
1.20648
1.20676
1.20497
1.20474
1.20475
1.2033
1.2008
1.20025
1.19554
1.18708
1.1857
1.19066
1.19286
1.18806
1.18071
1.1728
1.16514
1.16603
1.17138
1.16722
1.16438
1.16747
1.16123
1.15769
1.15976
1.14955
1.14746
1.14721
1.13937
1.12675
1.13441
1.13022
1.13001
1.11182
1.10508
1.11211
1.12475
1.13959
1.15788
1.14276
1.12048
1.13168
1.17552
1.21279
1.21375
1.20648
1.19065
1.1752
1.17825
1.18344
1.17546
1.1644
1.16632
1.17694
1.17563
1.1744
1.1723
1.16009
1.15592
1.16246
1.16049
1.14236
1.1245
1.11326
1.10217
1.07886
1.07217
1.08854
1.09372
1.06624
1.05848
1.04545
1.06261
1.08416
1.06848
1.08037
1.11385
1.13425
1.11194
1.0935
1.13754
1.14794
1.14358
1.12689
1.09765
1.1015
1.1208
1.15138
1.17475
1.18526
1.21276
1.18893
1.17023
1.19557
1.17578
1.15467
1.15573
1.18
1.15594
1.14779
1.16062
1.12687
1.12285
1.15171
1.12326
1.10744
1.1634
1.20685
1.20223
1.21165
1.23919
1.26598
1.27632
1.27498
1.2407
1.19503
1.16344
1.17247
1.20905
1.21172
1.20447
1.17861
1.13024
1.07216
1.04833
1.04509
1.01778
0.997936
1.03442
1.0356
1.00986
1.08006
1.0266
1.01477
1.10928
1.05031
1.0267
0.999669
1.08339
1.18708
1.15514
1.13896
1.20657
1.23436
1.2118
1.21804
1.20046
1.21013
1.15088
1.16133
1.18169
1.21025
1.21658
1.1994
1.19896
1.21627
1.227
1.22843
1.22547
1.22237
1.21719
1.20967
1.20247
1.19954
1.1968
1.19559
1.19557
1.1972
1.19902
1.19815
1.19617
1.19549
1.19768
1.20165
1.20341
1.2059
1.20735
1.20418
1.20082
1.19607
1.19468
1.19837
1.19716
1.19928
1.20574
1.20637
1.20059
1.19302
1.18928
1.188
1.18591
1.17979
1.17949
1.1797
1.17207
1.17075
1.17532
1.17159
1.17209
1.17265
1.16517
1.16524
1.16047
1.15354
1.15734
1.15339
1.14502
1.14443
1.14792
1.134
1.13796
1.12663
1.12856
1.11486
1.10292
1.11386
1.11814
1.1321
1.15871
1.1638
1.13359
1.12315
1.16349
1.2125
1.21764
1.20556
1.19469
1.18093
1.17464
1.17575
1.17054
1.162
1.15939
1.16235
1.16529
1.16516
1.16229
1.15571
1.15447
1.16219
1.15264
1.14118
1.13331
1.11536
1.09922
1.08321
1.07311
1.08898
1.12857
1.11434
1.11696
1.08614
1.09641
1.11151
1.09757
1.10045
1.12407
1.13248
1.11997
1.1123
1.13366
1.16286
1.14104
1.12692
1.12215
1.11378
1.13183
1.15955
1.17175
1.17662
1.21254
1.2051
1.16051
1.17487
1.17531
1.15072
1.14278
1.168
1.1531
1.14299
1.15712
1.13188
1.12416
1.15089
1.13182
1.10832
1.15138
1.19219
1.19276
1.20125
1.23509
1.26515
1.27612
1.28185
1.25747
1.22068
1.19253
1.18474
1.23417
1.2267
1.20372
1.16992
1.11501
1.0549
1.04307
1.03744
1.00856
1.00612
1.04724
1.04101
1.01591
1.07328
1.0394
1.03184
1.12671
1.05111
1.05728
1.06447
1.1401
1.25159
1.22997
1.17411
1.20546
1.2352
1.22953
1.22939
1.23278
1.21138
1.14268
1.15018
1.16557
1.19875
1.21727
1.20925
1.19455
1.19698
1.2033
1.20796
1.20914
1.21109
1.21336
1.21321
1.21196
1.20884
1.20279
1.1976
1.19492
1.19363
1.19272
1.19256
1.19652
1.19968
1.20395
1.20995
1.21157
1.20842
1.20136
1.19722
1.19975
1.20362
1.2053
1.20705
1.20842
1.20479
1.19719
1.19025
1.1861
1.18115
1.18045
1.17851
1.17788
1.18296
1.17862
1.1751
1.1748
1.16919
1.17316
1.17812
1.17459
1.17382
1.16868
1.1661
1.16558
1.15638
1.15322
1.15357
1.14681
1.1421
1.14626
1.13873
1.14318
1.13525
1.1269
1.12585
1.10099
1.11327
1.12149
1.1227
1.14806
1.17491
1.16198
1.13021
1.14043
1.19714
1.22796
1.2134
1.19781
1.18757
1.18027
1.17246
1.16404
1.16019
1.15841
1.15282
1.15299
1.1617
1.16592
1.15385
1.15916
1.16189
1.1542
1.14184
1.13695
1.12289
1.10339
1.11265
1.10942
1.08966
1.1224
1.10746
1.11139
1.08206
1.09979
1.10848
1.08796
1.10357
1.13352
1.14343
1.11646
1.13526
1.15982
1.16816
1.1434
1.11525
1.12001
1.13215
1.16068
1.19143
1.20541
1.20386
1.20421
1.1965
1.15526
1.16505
1.16755
1.13325
1.12506
1.15617
1.15262
1.14261
1.15565
1.13744
1.12544
1.15205
1.13861
1.1126
1.14277
1.18147
1.18574
1.18465
1.22925
1.26249
1.28155
1.28673
1.27398
1.2513
1.23241
1.20324
1.25775
1.23323
1.19859
1.15649
1.09726
1.04227
1.04462
1.03335
1.00359
1.01879
1.05572
1.04577
1.02808
1.06817
1.04972
1.05189
1.14123
1.06965
1.09595
1.15149
1.19056
1.25704
1.28717
1.25067
1.24177
1.24275
1.21809
1.21934
1.24404
1.21647
1.13701
1.14851
1.17293
1.20172
1.21157
1.20803
1.20636
1.19982
1.19495
1.19216
1.19023
1.19058
1.19398
1.20016
1.20701
1.213
1.2181
1.22113
1.2214
1.21966
1.21666
1.21835
1.21997
1.21485
1.20967
1.20471
1.20008
1.19613
1.19625
1.20058
1.20461
1.20804
1.20733
1.19846
1.1904
1.18235
1.17686
1.17477
1.17571
1.17941
1.1784
1.1804
1.17583
1.16914
1.17076
1.16828
1.16946
1.17375
1.17544
1.17709
1.17134
1.16838
1.16832
1.16252
1.16299
1.15756
1.15258
1.15277
1.14866
1.14481
1.14479
1.13846
1.13713
1.14268
1.12854
1.13327
1.11061
1.10623
1.12733
1.12329
1.13425
1.16896
1.18324
1.1581
1.1343
1.16853
1.22198
1.22721
1.2054
1.18993
1.18594
1.17924
1.16441
1.15833
1.16
1.15234
1.14659
1.15949
1.16833
1.1681
1.15795
1.16455
1.16318
1.14767