/*--------------------------------*- C++ -*----------------------------------*\
| =========                 |                                                 |
| \\      /  F ield         | OpenFOAM: The Open Source CFD Toolbox           |
|  \\    /   O peration     | Version:  dev                                   |
|   \\  /    A nd           | Web:      http://www.openfoam.org               |
|    \\/     M anipulation  |                                                 |
\*---------------------------------------------------------------------------*/
FoamFile
{
    version     2.0;
    format      ascii;
    class       volScalarField;
    object      T;
    location    "9.13";
}
// * * * * * * * * * * * * * * * * * * * * * * * * * * * * * * * * * * * * * //

dimensions      [0 0 0 1 0 0 0];

internalField   nonuniform List<scalar> 
12225
(
290.599
290.228
290.532
290.903
291.086
291.572
291.821
292.323
292.667
293.2
293.553
294.175
294.367
295.597
295.115
295.834
299.723
296.847
289.889
289.732
289.851
289.878
290.028
290.173
290.628
290.774
291.359
291.618
292.174
292.709
292.542
294.725
293.346
292.653
300.365
291.87
290.027
289.897
289.876
289.756
289.82
289.828
290.211
290.331
290.783
291.135
291.42
292.242
291.94
293.653
292.372
295.464
292.503
298.052
290.111
290.068
289.915
289.833
289.81
289.861
290.026
290.306
290.532
291.058
290.977
292.177
291.462
293.348
292.012
295.452
288.965
298.774
289.927
290.195
290.01
289.967
289.868
290.051
290.036
290.409
290.526
291.084
290.962
292.111
291.415
293.281
292.388
292.528
294.39
295.665
290.137
290.24
290.111
289.97
289.964
290.025
290.131
290.41
290.519
291.111
291.04
292.047
291.689
293.155
292.233
294.005
294.433
293.955
290.307
290.317
290.168
290.151
290.044
290.14
290.189
290.519
290.631
291.162
291.236
292.106
291.805
293.319
291.819
295.893
290.585
293.898
290.479
290.445
290.289
290.337
290.155
290.357
290.247
290.694
290.658
291.309
291.336
292.144
291.935
293.127
292.655
293.836
292.954
293.994
290.564
290.659
290.541
290.557
290.371
290.578
290.512
290.837
290.875
291.522
291.536
292.261
292.107
292.992
293.231
293.304
294.209
294.685
290.774
290.863
290.768
290.821
290.646
290.795
290.818
291.07
291.27
291.81
291.912
292.404
292.527
293.054
293.344
293.761
294.375
294.678
291.036
291.126
291.113
291.177
290.992
291.204
291.162
291.55
291.673
292.103
292.293
292.614
292.907
293.213
293.573
293.97
294.425
294.636
291.277
291.512
291.568
291.577
291.459
291.692
291.662
291.992
292.058
292.461
292.588
293.012
293.245
293.566
293.94
294.258
294.635
294.894
291.777
292.033
292.135
292.103
292.075
292.288
292.322
292.597
292.71
293.101
293.277
293.636
293.831
294.163
294.439
294.684
295.019
295.259
292.169
292.68
292.932
292.908
292.911
292.976
293.074
293.265
293.457
293.729
293.923
294.239
294.459
294.743
294.942
295.248
295.435
295.642
292.835
293.474
293.734
293.756
293.836
293.907
294.035
294.147
294.366
294.559
294.789
295.044
295.244
295.507
295.66
295.88
296.113
296.29
293.62
294.444
294.767
294.844
294.919
294.995
295.124
295.238
295.446
295.598
295.811
295.963
296.104
296.273
296.429
296.587
296.697
296.896
294.587
295.621
295.975
296.063
296.143
296.221
296.282
296.358
296.47
296.565
296.695
296.815
296.95
297.081
297.2
297.344
297.506
297.611
295.781
296.869
297.174
297.229
297.301
297.331
297.368
297.416
297.456
297.564
297.605
297.724
297.778
297.875
297.961
298.04
298.13
298.219
296.814
298.031
298.226
298.203
298.196
298.157
298.172
298.149
298.155
298.23
298.225
298.324
298.362
298.408
298.474
298.505
298.562
298.622
297.641
298.833
298.925
298.859
298.727
298.665
298.628
298.588
298.605
298.623
298.616
298.659
298.685
298.692
298.763
298.758
298.845
298.883
298.229
299.412
299.398
299.25
299.082
298.968
298.851
298.785
298.784
298.769
298.792
298.818
298.824
298.878
298.879
298.937
298.976
299.022
298.803
300.01
299.825
299.535
299.368
299.19
299.099
299.014
298.978
298.952
298.945
298.936
298.938
298.966
298.958
299.026
299.017
299.099
299.122
300.285
300.072
299.743
299.477
299.317
299.172
299.097
299.016
299.004
298.959
298.955
298.973
298.957
299.015
299.004
299.071
299.085
299.434
300.549
300.288
299.934
299.657
299.439
299.257
299.115
299.049
298.982
298.974
298.973
298.972
299.017
299
299.059
299.055
299.108
299.709
300.806
300.484
300.097
299.802
299.525
299.304
299.145
299.031
298.997
298.97
298.981
299.003
299.004
299.043
299.044
299.083
299.107
299.838
300.94
300.584
300.131
299.772
299.505
299.297
299.157
299.073
299.017
299.003
298.992
299
299.015
299.03
299.063
299.09
299.14
299.872
301.017
300.661
300.202
299.82
299.533
299.315
299.172
299.075
299.029
299.005
299.009
299.024
299.05
299.081
299.122
299.166
299.227
299.971
301.109
300.724
300.245
299.86
299.582
299.368
299.24
299.153
299.124
299.121
299.16
299.204
299.269
299.33
299.409
299.485
299.568
299.911
301.012
300.682
300.261
299.941
299.735
299.607
299.558
299.553
299.598
299.667
299.753
299.831
299.914
299.975
300.043
300.079
300.126
299.528
300.473
300.444
300.381
300.325
300.293
300.281
300.297
300.328
300.376
300.43
300.487
300.542
300.598
300.647
300.695
300.739
300.742
298.205
289.346
288.682
290.243
291.246
291.747
292.222
292.794
293.588
294.516
295.551
296.583
297.623
298.644
299.636
300.49
301.282
302.186
303.052
303.378
302.884
302.105
301.806
301.845
301.814
301.721
301.608
301.484
301.344
301.211
301.073
300.923
300.753
300.555
300.333
300.079
299.811
299.528
299.225
298.902
298.532
298.122
297.682
297.248
296.85
296.5
296.181
295.876
295.568
295.204
294.74
294.247
293.819
293.465
293.058
292.615
292.256
292.023
291.819
291.745
291.909
292.185
292.197
291.824
291.293
290.742
290.131
289.315
288.475
287.913
287.517
286.833
285.777
284.516
283.158
281.697
280.145
279.27
280.68
283.438
284.188
282.436
280.133
277.872
275.678
274.814
275.31
278.71
282.364
282.722
279.725
276.06
275.087
275.08
273.924
274.297
276.709
277.427
275.564
273.183
271.233
269.849
269.468
271.078
274.848
277.59
274.72
267.703
269.755
291.376
270.148
267.928
268.284
268.248
268.504
268.796
269.195
269.606
270.1
270.697
271.267
271.762
272.235
272.935
273.504
273.966
274.68
275.744
277.044
278.084
278.887
278.627
278.18
277.563
276.793
276.126
275.105
273.951
272.744
272.096
271.743
271.19
270.458
269.897
269.627
269.835
270.578
271.663
271.86
270.375
268.047
266.503
264.314
263.416
261.214
260.614
260.175
261.57
261.192
262.145
261.335
259.18
262.021
263.019
262.086
263.775
264.815
266.518
267.601
268.804
269.251
270.038
270.562
271.793
272.542
273.124
272.885
274.014
274.499
277.154
297.255
287.525
289.648
291.648
291.065
290.828
291.512
292.671
293.915
294.441
294.542
294.565
295.181
296.062
297.213
298.207
298.856
299.29
299.53
299.366
298.789
298.793
298.905
299.25
299.045
298.979
298.981
299.055
299.204
299.129
299.346
299.363
299.272
298.991
298.669
298.254
298.05
297.846
297.634
297.341
296.832
296.239
295.627
295.196
294.992
294.971
294.992
294.99
294.939
294.572
293.788
292.963
292.342
292.006
291.241
290.022
288.995
288.624
288.516
288.338
287.778
287.379
287.739
288.233
287.666
286.461
286.849
288.558
287.779
284.218
282.345
283.319
284.299
283.683
282.301
280.906
278.764
274.667
270.188
268.388
271.326
275.572
277.393
276.571
271.244
266.919
263.937
265.552
269.291
269.233
269.666
268.615
265.793
265.447
269.426
273.965
273.811
270.073
265.758
262.183
259.87
259.998
263.722
271.138
279.61
281.692
273.542
263.768
271.804
300.578
278.148
272.876
273.049
271.524
271.364
270.365
270.012
269.277
268.567
267.568
266.541
265.787
264.481
263.156
262.836
262.037
260.586
259.233
257.789
255.49
256.014
258.567
260.081
261.654
262.886
262.759
261.696
260.642
258.686
257.043
256.816
256.924
255.981
255.401
255.723
257.165
259.391
259.07
256.876
254.041
252.731
251.834
249.662
249.482
247.61
249.618
249.677
253.744
255.239
258.863
262.007
253.392
258.099
267.242
257.771
252.761
250.848
250.318
250.328
251.703
251.643
252.407
252.568
253.773
255.325
256.198
253.706
253.453
251.216
258.065
299.312
291.651
293.966
293.301
292.64
293.179
292.79
291.423
290.987
291.442
292.934
294.111
295.687
297.663
298.582
299.465
299.818
300.264
299.715
299.672
300.44
301.346
301.697
301.165
301.369
301.547
302.18
301.975
302.162
302.695
302.229
302.156
301.663
300.822
300.32
299.74
299.154
299.066
298.525
298.181
298.02
297.524
297.393
297.184
297.187
297.211
297.234
297.227
297.289
297.151
296.81
296.607
296.1
295.438
294.21
292.945
291.937
291.032
290.115
290.09
289.86
288.685
288.311
288.75
287.63
286.882
288.062
287.223
285.366
286.957
287.675
282.772
278.606
280.091
284.408
286.873
286.468
283.452
276.491
269.784
267.151
268.428
273.561
273.787
267.476
264.877
265.717
266.45
266.749
269.478
271.604
268.514
265.967
267.517
271.922
274.748
275.827
276.876
276.45
273.696
270.415
269.089
270.114
273.911
278.289
278.332
275.906
275.17
281.624
278.134
287.682
284.206
284.307
282.839
283.036
281.451
280.653
280.121
280.099
278.312
276.725
275.821
274.43
272.884
272.478
272.198
271.852
269.987
269.026
266.799
260.253
254.895
250.477
247.214
248.226
250.467
250.607
250.49
250.535
249.699
249.904
249.984
249.437
248.63
252.062
253.776
252.408
250.594
248.358
247.52
248.277
250.137
251.904
253.792
252.985
255.308
255.11
255.642
259.943
263.138
271.262
266.544
266.034
284.395
277.722
264.479
260.954
256.216
251.217
250.673
252.985
253.798
252.292
249.931
248.621
249.007
246.678
244.866
236.994
239.235
301.262
293.432
294.553
294.606
294.62
293.616
291.736
289.651
289.488
292.142
294.026
294.382
296.044
298.557
299.382
299.086
298.221
297.794
299.74
301.382
302.429
301.712
301.038
300.989
301.327
300.74
300.054
300.009
299.677
299.151
298.78
297.505
296.876
296.651
295.683
295.616
294.981
294.703
294.589
294.066
293.932
293.869
293.337
293.247
292.925
293.034
293.296
293.829
294.653
295.411
296.014
296.974
297.611
297.326
296.301
295.692
294.574
292.597
291.37
291.867
291.914
290.189
289.329
290.751
290.733
288.545
288.16
288.756
287.359
285.539
285.931
286.09
283.8
281.052
280.452
283.09
285.05
284.024
280.543
271.595
262.318
265.454
273.062
269.277
263.314
264.19
265.608
264.436
264.766
268.274
268.416
265.142
265.107
269.082
273.493
275.633
278.828
281.582
281.037
279.018
278.984
281.645
283.063
282.097
279.553
278.106
279.969
283.204
284.838
278.602
286.394
285.263
285.849
285.752
285.437
284.563
282.259
280.885
283.203
281.566
278.939
279.321
279.613
275.065
271.894
271.62
272.471
272.038
271.461
271.624
270.807
267.305
261.065
252.318
246.676
245.453
244.336
242.285
244.127
246.145
247.724
247.123
247.071
246.978
249.155
251.364
249.589
246.5
245.016
246.104
247.125
249.206
249.653
251.277
250.035
248.6
254.219
254.107
254.593
257.652
258.52
266.185
259.122
268.097
279.554
271.62
269.353
263.876
261.33
256.026
259.868
268.425
269.863
262.756
254.028
249.627
247.133
244.293
237.208
230.814
302.45
294.653
294.306
294.344
293.201
290.384
287.574
288.238
293.213
295.124
294.607
295.888
297.475
297.859
298.944
298.182
299.067
300.579
302.293
302.468
301.589
300.847
299.725
299.413
298.113
296.477
295.355
294.763
294.222
293.28
292.444
291.553
291.079
290.425
290.227
290.319
289.725
289.769
289.651
289.386
289.435
289.081
288.891
288.822
288.856
289.185
289.5
290.073
291.223
292.469
293.103
293.686
295.995
298.808
299.729
299.052
297.441
295.469
295.573
295.963
293.72
291.599
292.782
293.992
291.334
287.403
286.922
289.574
291.121
288.779
285.592
286.128
287.956
284.655
280.109
283.337
286.64
282.251
275.212
268.805
266.093
269.346
270.208
265.686
264.609
266.371
265.352
263.147
264.945
269.124
269.824
269.049
269.736
271.962
273.579
273.935
274.71
272.56
269.016
267.831
270.403
274.444
276.408
276.163
275.112
276.153
278.42
280.056
282.346
285.058
286.138
284.248
286.848
286.748
284.57
284.021
281.919
277.667
282.179
284.193
283.385
285.202
286.572
284.461
282.685
279.438
278.035
276.973
272.759
268.296
270.094
275.219
273.495
262.605
253.242
248.107
243.169
237.915
239.58
244.523
246.916
246.337
245.662
246.427
246.06
246.139
245.204
243.642
243.996
244.765
246.101
245.843
243.297
244.778
249.983
248.733
253.143
259.243
254.249
249.988
250.664
275.959
270.473
257.142
271.861
273.089
278.977
266.439
266.06
264.601
265.581
275.162
283.96
280.418
267.191
255.635
252.968
247.901
244.286
233.775
303.101
296.252
295.7
295.104
292.563
291.027
291.778
290.041
290.177
291.909
293.968
296.106
296.497
297.049
297.937
298.365
297.997
298.815
299.095
298.396
296.134
294.596
293.72
293.42
292.38
291.377
290.987
290.411
290.503
290.151
289.227
289.156
288.51
288
288.275
287.536
287.434
287.453
286.977
287.055
287.442
287.779
288.636
289.328
290.604
291.225
291.297
290.661
290.317
290.969
291.881
291.178
291.458
294.803
298.549
299.575
299.323
298.022
297.796
296.933
295.244
295.269
296.1
294.67
291.323
288.04
287.258
290.469
293.137
288.768
283.733
288.177
291.769
284.279
281.028
288.203
287.996
277.823
270.247
267.798
268.286
268.574
266.647
264.896
265.375
266.382
265.026
264.198
267.367
270.648
271.942
273.183
274.168
274.988
274.435
273.543
272.344
269.658
268.92
271.283
274.418
274.935
273.549
272.823
275.383
276.916
273.766
271.775
275.213
281.005
285.736
284.912
290.623
289.326
287.729
282.165
282.418
276.212
273.103
276.96
276.734
277.021
279.627
277.393
279.652
280.945
277.477
283.907
287.644
277.337
267.487
273.173
279.778
272.128
263.301
257.959
248.265
238.349
237.514
243.949
246.796
246.194
244.83
245.559
245.216
244.279
245.04
245.089
244.716
243.129
242.93
244.88
246.915
244.954
245.824
249.92
259.51
276.134
272.731
249.485
242.408
271.086
293.5
275.228
276.366
272.157
284.973
275.247
266.754
263.789
263.281
269
283.04
291.149
283.778
263.841
259.445
253.154
251.454
244.171
303.354
296.961
295.482
293.718
291.338
287.882
288.45
290.336
291.332
294.988
296.658
297.991
297.653
297.189
295.889
294.331
294.325
295.384
295.854
295.57
293.535
291.641
291.165
291.507
291.978
292
292.52
293.281
293.832
293.644
292.474
292.137
291.691
291.097
291.251
291.117
291.18
290.904
290.987
290.941
291.006
291.421
291.862
292.58
293.389
294.43
294.939
294.978
294.037
293.344
293.896
293.948
292.306
292.059
294.551
297.139
299.335
298.621
298.279
298.167
296.691
296.065
296.8
294.821
291.517
290.222
290.288
289.852
288.084
286.306
289.334
293.39
288.257
282.974
287.291
289.069
279.697
270.224
266.51
266.175
267.203
267.353
266.196
265.799
267.196
268.259
266.263
265.881
268.543
270.383
272.888
275.219
275.029
273.446
270.275
268.162
267.637
268.904
273.234
278.889
283.019
284.673
284.97
283.607
284.771
286.61
283.781
281.927
281.091
277.966
278.556
281.484
288.801
290.682
293.741
288.804
286.34
285.805
281.051
277.787
278.773
275.822
274.328
272.274
271.47
279.903
272.604
269.3
284.96
290.14
276.301
274.048
280.578
275.341
268.432
266.493
255.74
241.315
237.455
243.443
247.194
245.951
244.335
244.187
245.394
245.317
246.419
245.937
244.588
245.676
245.382
249.567
261.083
255.59
244.055
246.473
259.587
280.519
291.979
261.916
251.055
268.249
289.078
287.08
284.201
277.743
287.901
283.746
275.027
264.863
257.506
256.759
270.01
286.198
294.317
273.906
265.271
258.338
258.465
255.723
303.568
297.613
294.589
290.346
288.865
287.778
287.034
289.961
292.713
292.935
293.176
294.537
296.329
297.117
297.34
295.712
293.835
292.911
293.342
293.91
293.172
291.598
291.475
291.921
292.473
293.893
295.413
296.064
295.347
294.002
292.885
291.212
290.198
290.173
290.178
290.065
290.504
290.588
290.718
290.711
290.71
290.873
291.195
291.642
291.895
292.16
292.378
292.764
293.02
292.066
290.659
291.389
292.508
292.204
292.101
293.862
296.463
298.428
299.405
299.785
298.187
297.236
297.017
295.053
294.364
294.937
292.028
285.959
283.886
288.872
293.875
290.995
284.902
287.235
291.286
285.112
273.698
266.752
265.184
265.243
265.758
266.149
265.833
266.33
268.562
269.23
266.748
267.407
269.595
271.033
273.934
274.745
272.921
270.874
269.351
270.929
274.469
278.46
282.585
284.36
284.661
285.968
288.688
288.028
287.526
292.086
294.854
289.684
285.003
287.981
283.597
277.288
276.946
281.663
287.171
287.772
286.375
282.408
282.349
280.297
278.374
278.221
276.36
276.158
266.441
271.703
279.082
266.739
270.834
284.816
279.339
276.184
283.795
279.238
271.681
273.343
265.366
246.691
238.836
243.17
247.66
246.081
243.767
242.728
243.814
244.678
243.441
241
239.638
243.65
250.464
256.422
267.295
267.544
256.864
254.693
259.713
270.357
293.831
269.067
258.657
279.87
292.137
288.129
278.63
275.543
292.613
288.472
280.651
264.205
255.85
257.557
269.701
283.095
298.003
283.167
270.863
261.503
264.2
266.555
303.367
297.536
294.031
288.996
286.94
288.115
289.344
289.753
288.566
290.673
293.565
293.633
294.347
295.309
296.732
297.001
296.7
295.322
294.401
293.441
293.012
292.932
292.15
291.165
291.136
292.804
294.241
294.003
292.854
290.748
288.887
287.509
286.834
286.394
286.591
286.967
287.474
287.921
288.057
287.929
287.77
287.386
287.287
287.824
288.97
290.11
291.083
291.348
291.526
292.201
291.602
289.632
289.292
290.824
290.955
291.434
291.485
294.407
295.782
298.778
299.757
299.922
298.26
296.515
296.429
293.878
288.67
285.778
288.032
292.829
292.939
288.228
287.72
292.088
289.134
278.392
269.661
265.14
264.563
265.882
266.898
266.84
266.828
268.757
271.747
270.807
267.781
269.772
271.865
272.982
274.602
273.847
272.739
273.289
274.79
277.955
279.884
280.513
280.871
280.268
281.296
286.177
295.1
297.956
295.251
291.641
294.565
291.743
295.176
292.014
293.659
287.589
281.18
277.431
287.089
291.508
292.685
290.622
285.134
284.446
282.966
280.167
276.915
280.735
276.818
267.374
278.944
274.802
267.327
278.941
279.728
275.797
284.677
282.016
272.874
276.339
273.159
253.489
241.404
243.741
248.192
246.757
243.195
241.933
241.606
242.159
239.812
238.783
241.491
245.348
252.23
254.761
257.959
260.808
260.716
265.332
266.971
262.952
289.555
281.517
261.59
275.941
289.917
288.076
275.656
269.635
292.081
294.073
289.727
267.927
259.143
264.926
276.881
285.053
296.583
289.588
276.671
263.763
267.939
274.258
303.123
297.283
293.423
288.555
286.926
288.672
286.797
288.607
291.14
289.826
291.103
292.41
292.775
292.919
294.317
296.093
297.277
296.996
296.225
295.882
295.086
294.202
293.33
292.309
291.015
290.714
292.338
293.611
293.572
293.047
292.326
291.278
290.637
289.828
289.181
289.172
289.398
289.787
290.222
290.288
290.036
289.425
288.265
287.116
287.029
288.325
290.187
292.176
292.805
292.067
292.743
293.242
291.693
290.31
290.157
291.018
289.93
291.131
291.128
293.933
296.376
299.467
300.142
298.481
299.107
295.343
288.604
289.173
292.617
293.118
290.251
288.303
291.503
291.662
283.052
273.024
267.256
266.021
266.375
266.718
267.392
267.587
268.551
271.886
274.812
271.639
268.644
270.524
270.998
269.707
269.452
269.67
271.621
274.917
277.605
278.515
277.148
276.952
279.87
285.277
287.954
287.936
292.154
290.182
287.454
286.037
287.285
290.071
287.158
291.254
293.591
290.682
286.41
278.591
280.372
288.716
294.097
294.962
290.867
284.855
284.372
286.646
282.931
276.504
281.61
270.177
271.342
280.223
272.919
276.031
278.234
273.649
284.382
286.185
274.73
278.055
279.938
261.285
245.27
244.993
249.055
247.584
242.911
241.092
240.48
240.386
239.672
242.649
248.3
250.133
254.974
251.891
254.905
261.793
260.72
263.226
274.178
273.538
287.99
285.774
265.843
285.376
295.978
287.624
277.48
275.9
292.568
296.409
294.232
273.8
269.285
276.652
286.282
286.636
291.827
289.375
280.232
265.541
266.871
276.72
302.871
297.206
293.741
289.059
284.709
287.634
290.745
286.683
287.006
289.016
290.084
292.569
293.652
293.313
291.895
291.773
292.811
293.658
293.302
293.025
292.49
292.473
293.179
293.947
293.444
291.219
289.409
290.051
291.195
291.951
292.278
292.094
291.289
289.992
288.76
288.117
287.876
288.095
288.415
288.426
288.755
289.918
290.348
289.331
287.948
287.75
288.645
289.594
291.535
292.789
291.499
290.78
292.517
292.767
293.007
293.091
293.65
293.147
293.132
292.462
293.086
294.659
299.26
299.857
301.111
300.093
291.864
291.223
293.54
291.479
289.408
290.466
293.205
288.813
277.776
270.639
267.647
267
268.634
269.468
268.707
268.831
270.772
274.551
275.392
270.703
267.751
268.842
267.904
267.026
270.238
273.912
277.754
280.653
280.415
278.95
279.867
284.203
291.389
301.494
303.042
300.276
303.11
301.597
298.681
299.258
295.627
290.085
284.331
289.129
297.495
298.794
290.061
283.493
284.826
285.819
293.701
297.7
299.011
293.102
282.972
281.442
286.545
278.878
280.393
278.202
267.932
273.634
274.461
277.748
281.965
274.043
281.362
288.524
276.772
277.435
284.033
268.648
250.088
246.841
250.432
248.617
243.325
240.351
239.715
239.701
241.038
246.868
251.983
251.616
254.667
249.865
249.576
256.091
260.154
263.969
272.628
274.303
283.208
290.962
274.37
288.164
299.523
284.067
275.543
285.081
294.381
294.788
290.237
277.093
278.122
286.751
293.974
286.538
287.619
282.984
281.417
263.462
263.713
275.652
302.655
297.398
293.402
291.847
288.026
284.62
286.744
290.425
291.233
292.481
291.807
292.14
292.443
293.663
294.124
293.17
292.423
292.037
291.511
292.047
292.27
293.166
294.977
296.127
295.604
293.911
291.085
289.85
290.098
290.531
290.411
289.854
289.009
287.809
286.963
286.997
287.336
287.994
288.58
288.315
286.78
286.21
287.683
288.25
287.801
287.621
288.935
291.086
291.345
291.915
293.064
291.853
290.764
291.039
292.387
292.62
294.756
293.452
294.523
292.902
294.158
292.472
296.471
299.346
300.384
302.612
296.034
291.412
292.812
290.389
289.557
293.19
293.92
286.331
276.005
270.125
268.941
269.988
271.187
271.645
270.649
269.924
272.517
276.568
275.956
270.045
267.1
268.525
267.886
269.481
274.045
277.812
280.05
279.256
277.649
281.595
290.984
300.164
305.501
309.028
305.431
300.297
298.418
300.104
299.61
299.12
303.459
294.77
288.688
286.593
292.296
297.298
291.388
281.087
284.379
288.894
291.372
296.861
299.246
296.011
288.631
276.983
280.127
279.391
273.286
278.813
273.519
272.775
273.257
274.854
283.031
276.563
279.549
290.074
280.477
277.094
286.466
275.491
255.257
249.584
252.375
250.166
244.255
240.63
239.372
239.535
241.807
248.3
251.753
251.365
254.369
249.935
247.275
251.174
255.411
262.617
272.793
277.744
281.981
293.582
281.523
289.629
300.406
280.571
278.261
291.947
293.613
285.864
278.839
273.78
283.935
295.021
296.43
283.047
282.609
272.454
280.433
261.453
266.014
273.72
302.426
297.837
292.9
290.946
290.626
289.493
286.603
286.215
287.926
291.72
293.995
293.918
292.088
291.093
292.569
293.636
293.733
293.738
293.25
293.163
293.688
294.111
294.557
295.276
294.319
292.465
290.545
289.205
288.491
288.176
287.923
287.525
287.48
287.19
286.578
287.11
287.918
288.787
289.986
290.772
291.158
290.846
291.344
291.108
289.076
288.188
288.57
290.96
293.794
293.754
292.964
293.688
293.723
294.384
293.811
292.853
294.404
294.402
296.395
295.898
297.791
294.913
293.94
297.013
299.645
302.605
299.896
293.007
292.705
290.502
289.858
294.136
295.731
286.085
274.574
270.664
270.229
272.03
274.898
274.544
273.045
271.827
273.748
277.332
276.498
270.628
267.998
268.457
269.632
273.736
279.415
280.613
278.532
276.772
279.405
289.17
301.877
308.837
308.053
303.031
299.528
295.798
289.46
292.347
292.376
296.545
301.289
301.101
291.898
289.139
294.46
298.361
295.665
285.453
282.345
294.122
294.678
299.16
304.911
295.401
290.241
279.851
276.212
279.756
273.533
274.693
273.931
271.583
273.208
275.04
284.658
280.149
278.948
289.551
283.952
277.12
287.011
281.558
260.755
252.76
254.562
252.009
245.108
241.001
239.318
239.94
243.307
250.373
253.78
252.642
255.04
251.351
246.671
251.404
256.804
267.388
276.741
280.33
287.335
298.73
289.242
292.053
302.96
277.173
284.385
302.045
293.305
277.772
274.622
278.867
296.055
298.063
293.869
275.954
273.305
262.305
277.8
263.231
272.163
271.142
302.133
298.135
293.152
290.281
289.986
288.647
287.274
287.071
286.706
287.33
289.772
292.145
292.819
291.665
291.103
291.37
292.069
293.046
293.483
293.199
293.445
292.937
292.485
292.46
291.297
290.539
290.023
289.317
288.993
289.075
289.172
289.178
289.393
290.239
290.909
291.485
291.591
290.804
290.157
289.276
289.105
288.907
289.129
290.848
291.799
292.008
293.251
294.105
294.546
294.532
294.037
293.585
292.369
293.559
295.271
295.204
295.419
296.062
295.745
296.021
297.964
297.765
295.269
296.384
298.956
303.093
303.616
297.811
294.284
291.005
289.547
294.08
296.527
290.006
277.423
271.185
271.7
273.393
277.158
278.023
275.901
274.812
276.264
278.591
277.154
273.364
271.256
271.419
272.065
276.517
280.633
280.277
280.088
281.632
285.875
292.624
298.965
301.597
299.872
295.352
296.983
301.503
297.264
299.436
295.072
294.49
302.228
301.258
294.339
289.5
295.882
297.19
292.766
290.171
282.904
293.261
298.309
296.7
301.175
292.407
286.224
283.837
279.219
282.255
278.891
276.779
280.876
278.387
275.451
273.936
283.886
283.65
280.493
289.671
287.34
278.46
286.772
285.864
266.728
256.718
257.633
255.01
247.39
242.185
239.86
240.506
245.675
254.03
259.163
255.938
253.69
251.6
248.4
252.493
260.13
272.834
283.226
285.053
291.663
300.825
292.069
291.114
304.306
278.472
290.074
302.799
282.568
279.47
288.503
300.928
301.236
285.284
284.97
271.245
262.239
256.54
271.041
263.886
273.641
267.171
301.856
298.329
292.495
289.096
289.587
290.969
287.295
284.995
285.377
286.284
287.561
289.419
291.429
292.512
292.415
291.327
290.329
289.632
289.684
289.361
289.58
289.81
289.66
289.784
290.194
290.356
290.083
289.877
289.411
289.198
289.837
290.655
290.97
290.824
291.124
291.046
290.882
291.016
291.372
291.221
292.086
293.859
293.851
292.274
291.411
292.237
293.653
295.234
296.74
295.998
294.209
294.827
294.945
293.749
294.903
295.224
294.304
296.457
296.356
296.014
297.827
300.387
297.772
298.422
298.352
302.905
303.928
301.246
297.216
292.935
288.636
292.968
297.717
293.029
281.368
273.247
273.265
274.648
278.184
281.071
279.417
277.896
279.626
281.879
280.671
277.531
277.478
277.482
277.762
280.806
281.876
280.221
280.363
284.648
289.253
292.163
295.165
301.257
302.577
298.004
297.865
305.742
307.818
311.386
306.508
300.757
305.682
302.889
294.167
288.697
294.763
300.806
289.899
287.575
288.085
292.945
301.795
301.338
297.585
289.969
284.032
281.828
275.528
280.713
284.648
278.602
282.886
287.086
286.354
279.967
285.398
286.671
282.303
289.842
289.679
280.667
286.626
288.83
272.567
261.004
260.705
257.3
250.247
243.865
240.796
240.427
246.371
255.246
261.484
258.261
251.103
249.883
250.281
255.313
265.65
280.026
287.635
288.624
296.252
303.723
293.694
292.751
301.648
281.031
295.589
301.659
276.271
288.787
297.625
309.105
288.98
264.317
271.64
274.384
260.324
255.278
262.711
262.084
268.364
265.518
301.713
299.082
293.961
287.182
285.827
289.945
290.065
286.061
283.675
283.438
284.24
285.119
286.49
288.398
290.251
291.045
291.741
292.078
292.176
291.858
291.494
291.776
292.364
292.667
292.287
291.441
291.058
290.469
290.051
290.763
291.598
292.794
293.18
292.248
292.479
291.909
290.214
289.861
291.069
292.735
293.494
293.619
293.903
295.152
294.889
294.542
296.161
296.142
294.695
295.288
294.697
294.213
295.665
295.184
296.045
297.296
295.832
296.584
298.232
297.811
296.744
300.009
298.504
301.06
300.079
303.788
306.092
302.641
300.98
296.417
289.573
289.392
297.082
297.756
285.868
274.873
274.591
276.97
279.205
282.198
282.905
281.929
282.934
284.86
284.925
283.319
282.362
282.436
283.073
284.392
284.696
282.468
284.509
287.365
289.617
294.073
298.026
303.339
306.207
300.726
290.951
294.999
294.572
302.821
300.41
296.148
300.044
299.976
294.04
291.799
295.242
298.795
293.747
286.33
291.43
295.453
297.995
301.202
297.498
290.722
287.542
286.763
277.696
278.701
289.151
285.763
285.405
290.487
292.363
285.448
288.491
290.327
285.473
290.91
291.682
283.25
286.736
291.108
277.815
266.353
264.894
261.168
253.173
246.013
242.927
240.987
245.414
252.785
258.494
258.381
248.132
248.442
252.171
258.801
271.044
286.822
291.418
292.7
301.135
303.913
292.174
293.194
301.619
284.59
294.725
298.897
273.356
292.221
293.438
295.864
275.857
250.232
256.707
269.89
262.953
257.218
259.692
261.216
262.818
267.141
301.442
299.552
295.623
287.557
283.352
285.357
288.958
288.494
287.096
286.098
285.951
285.661
285.309
285.554
286.079
287
288.635
290.113
290.971
291.438
291.778
292.022
291.27
290.619
289.691
288.286
287.876
288.587
290.339
291.558
291.14
290.296
289.915
289.47
289.089
289.85
291.598
293.255
294.249
295.444
295.525
295.878
295.863
294.405
295.265
295.899
295.762
296.931
295.613
294.105
294.625
294.466
295.47
295.717
295.555
297.559
297.875
297.477
298.929
299.662
298.189
299.882
298.302
300.394
301.969
302.414
308.533
304.214
302.114
300.893
293.456
287.515
291.915
299.195
293.894
279.366
273.835
277.569
280.563
282.593
284.064
285.399
286.837
287.534
287.806
288.481
287.766
285.786
284.982
287.891
285.961
285.109
287.1
289.89
291.212
294.93
299.96
298.504
299.195
303.428
293.778
297.779
296.887
305.762
301.678
299.213
305.537
302.41
294.769
291.938
299.29
295.825
290.174
287.29
293.496
301.794
301.489
299.653
293.342
285.935
282.417
282.82
281.497
282.771
293.1
291.094
289.767
297.447
299.759
290.992
291.149
292.901
288.289
291.999
293.785
285.478
287.316
292.669
282.389
271.449
268.799
267.1
256.149
248.378
244.236
242.106
244.095
248.755
252.539
256.833
245.356
248.448
254.822
263.417
277.278
292.794
293.54
295.812
305.13
302.87
291.708
293.533
300.284
288.35
294.171
295.363
271.65
291.187
286.812
276.806
266.25
249.556
246.384
255.604
258.178
258.07
263.233
264.931
261.717
268.697
300.522
297.52
291.319
284.482
282.518
283.607
284.031
285.718
287.026
287.871
288.544
288.67
288.052
286.778
285.35
284.173
283.25
282.784
282.922
283.511
284.476
284.376
284.051
285.274
286.629
287.958
289.277
290.506
290.807
289.984
289.093
288.272
288.376
290.517
292.578
294.701
296.206
296.837
296.642
295.68
295.854
295.234
296.243
297.813
297.311
297.815
297.348
296.08
295.357
294.652
295.851
296.303
296.081
297.236
296.805
297.968
298.922
298.557
299.356
300.015
299.707
301.147
300.927
299.502
302.889
301.487
307.725
307.593
301.92
302.929
298.704
289.712
287.567
294.587
298.853
287.833
275.852
276.139
281.036
284.052
284.817
286.356
289.361
290.235
289.727
291.568
292.304
288.635
286.792
287.21
289.061
286.75
287.449
291.183
291.388