/*--------------------------------*- C++ -*----------------------------------*\
| =========                 |                                                 |
| \\      /  F ield         | OpenFOAM: The Open Source CFD Toolbox           |
|  \\    /   O peration     | Version:  dev                                   |
|   \\  /    A nd           | Web:      http://www.openfoam.org               |
|    \\/     M anipulation  |                                                 |
\*---------------------------------------------------------------------------*/
FoamFile
{
    version     2.0;
    format      ascii;
    class       volVectorField;
    object      U;
    location    "9.13";
}
// * * * * * * * * * * * * * * * * * * * * * * * * * * * * * * * * * * * * * //

dimensions      [0 1 -1 0 0 0 0];

internalField   nonuniform List<vector> 
12225
(
(7.43717 0.186128 0)
(6.39254 0.0199409 0)
(5.48712 -0.131 0)
(6.25352 -0.179038 0)
(5.8849 -0.118028 0)
(7.14658 -0.151046 0)
(6.59888 -0.0513903 0)
(7.79082 -0.155052 0)
(7.18304 -0.0167046 0)
(8.51451 -0.197917 0)
(7.40366 0.0782516 0)
(9.30627 -0.313586 0)
(8.07111 0.15671 0)
(8.79005 -0.147394 0)
(12.134 -0.733771 0)
(5.06452 1.94021 0)
(21.9964 -4.1202 0)
(2.33194 1.40884 0)
(10.1488 0.204731 0)
(11.8412 0.217988 0)
(9.99086 -0.171255 0)
(12.2031 -0.433081 0)
(9.60205 -0.446899 0)
(13.1265 -0.563135 0)
(10.1218 -0.424646 0)
(14.3538 -0.638595 0)
(11.0262 -0.429611 0)
(16.3661 -0.694847 0)
(10.9277 -0.371301 0)
(19.5173 -1.04587 0)
(10.7684 0.118901 0)
(22.4892 -2.34882 0)
(15.7374 0.471889 0)
(17.9495 -2.99974 0)
(34.0489 -2.54689 0)
(1.87615 1.64239 0)
(9.64629 -0.603485 0)
(14.4502 -0.221289 0)
(11.3142 -0.527861 0)
(16.2365 -0.772986 0)
(11.5584 -0.745159 0)
(17.5309 -0.952381 0)
(12.0292 -0.78581 0)
(18.8871 -1.17187 0)
(12.876 -0.889334 0)
(21.0108 -1.18332 0)
(13.4345 -0.965422 0)
(23.1525 -1.76398 0)
(15.8537 -0.310462 0)
(22.3542 -3.65885 0)
(23.4835 0.79259 0)
(17.5907 -7.79261 0)
(32.4856 2.949 0)
(24.2491 -10.432 0)
(7.40608 -1.49319 0)
(16.5078 -0.73616 0)
(10.642 -1.16651 0)
(18.8556 -1.29301 0)
(12.7302 -1.22306 0)
(20.4796 -1.48561 0)
(14.3806 -1.22342 0)
(22.0722 -1.77485 0)
(15.5379 -1.431 0)
(23.8548 -2.00817 0)
(16.9613 -1.23657 0)
(25.0803 -3.27976 0)
(19.9249 0.0711336 0)
(24.5362 -5.91206 0)
(24.7813 0.596083 0)
(25.828 -7.38855 0)
(25.329 -2.78533 0)
(25.7524 -7.34034 0)
(5.73553 -2.12678 0)
(17.7573 -1.88532 0)
(10.4947 -1.59037 0)
(19.8689 -2.41185 0)
(13.4862 -1.52973 0)
(21.7686 -2.56058 0)
(15.5345 -1.57391 0)
(23.6468 -2.73861 0)
(17.2005 -1.69899 0)
(24.203 -3.15126 0)
(19.8658 -1.42333 0)
(24.4962 -4.35376 0)
(22.3573 -0.256664 0)
(25.0936 -6.36338 0)
(21.7702 -0.321982 0)
(29.3788 -8.55136 0)
(18.6703 -0.915316 0)
(26.0764 -11.0952 0)
(6.80365 -3.14304 0)
(16.3313 -2.92861 0)
(10.9976 -2.64905 0)
(18.7791 -3.19418 0)
(13.2045 -2.47027 0)
(20.9836 -3.19556 0)
(15.3405 -2.54926 0)
(22.4398 -3.36076 0)
(17.3247 -2.28875 0)
(22.0455 -4.16695 0)
(20.4332 -2.15569 0)
(22.008 -5.08298 0)
(22.3807 -1.69189 0)
(23.384 -6.05776 0)
(20.6145 -2.11607 0)
(25.416 -9.83882 0)
(20.0697 2.75051 0)
(22.3851 -14.717 0)
(9.13032 -3.53552 0)
(13.6997 -4.27374 0)
(12.0898 -2.98972 0)
(16.5768 -4.21081 0)
(13.944 -2.88561 0)
(18.9881 -4.4221 0)
(15.4862 -2.79053 0)
(20.6563 -4.55534 0)
(16.7016 -2.35241 0)
(21.5338 -5.53938 0)
(18.1995 -2.15729 0)
(21.7055 -6.49788 0)
(20.8112 -1.76057 0)
(21.8508 -7.45039 0)
(22.268 -2.04396 0)
(22.1235 -11.3011 0)
(22.7998 2.29549 0)
(25.9309 -12.8019 0)
(10.4198 -4.89708 0)
(11.8939 -4.79332 0)
(13.7801 -4.15314 0)
(14.7654 -4.82049 0)
(15.8147 -3.93838 0)
(17.4192 -4.8437 0)
(16.9149 -3.85122 0)
(19.387 -4.91509 0)
(17.8598 -3.33297 0)
(21.2975 -5.96036 0)
(18.921 -2.84031 0)
(22.2558 -7.41835 0)
(20.4078 -2.67253 0)
(22.851 -7.51519 0)
(22.946 -3.65294 0)
(22.7766 -9.3797 0)
(23.0999 -2.91415 0)
(26.5636 -8.72548 0)
(10.9995 -5.1173 0)
(11.8021 -6.10499 0)
(14.2476 -4.39955 0)
(14.8886 -5.85714 0)
(15.796 -4.4248 0)
(17.789 -5.72229 0)
(16.9426 -4.27979 0)
(20.0286 -5.78883 0)
(18.1523 -3.86587 0)
(21.9781 -6.74771 0)
(19.5681 -3.54813 0)
(22.7138 -7.66037 0)
(20.5314 -3.58089 0)
(23.5585 -8.40262 0)
(21.8024 -4.20682 0)
(22.4378 -9.41895 0)
(21.3396 -5.31178 0)
(23.5915 -7.77422 0)
(10.9076 -6.54237 0)
(12.2972 -6.39018 0)
(14.1435 -5.60099 0)
(14.9914 -6.15463 0)
(16.2634 -5.42601 0)
(16.7337 -6.24591 0)
(18.0632 -5.16756 0)
(18.3119 -6.26302 0)
(19.6875 -4.82721 0)
(19.9284 -7.14971 0)
(20.8108 -4.4932 0)
(21.3401 -7.86771 0)
(21.1457 -4.9044 0)
(22.4854 -8.13814 0)
(21.4295 -5.58536 0)
(22.1279 -8.29963 0)
(21.4608 -7.53676 0)
(21.9705 -7.43306 0)
(10.9694 -7.11098 0)
(12.0652 -7.96513 0)
(14.0542 -6.14193 0)
(14.6059 -7.40653 0)
(16.3912 -6.21236 0)
(16.7076 -7.23576 0)
(18.2552 -6.14062 0)
(18.511 -7.26211 0)
(19.8793 -5.91218 0)
(20.194 -7.841 0)
(20.7857 -5.73283 0)
(21.6825 -8.27857 0)
(21.3602 -6.21175 0)
(22.5403 -8.37676 0)
(21.7649 -6.81733 0)
(22.8095 -8.3795 0)
(22.374 -8.31933 0)
(21.8314 -7.39861 0)
(10.7446 -8.66203 0)
(12.4051 -8.29198 0)
(13.7958 -7.47139 0)
(14.8527 -8.1574 0)
(16.1754 -7.25847 0)
(16.9382 -8.12079 0)
(18.1762 -7.00657 0)
(18.6447 -8.01299 0)
(19.757 -6.88053 0)
(20.1049 -8.27432 0)
(20.7163 -6.99209 0)
(21.2971 -8.50689 0)
(21.3978 -7.44335 0)
(22.0103 -8.65604 0)
(21.8497 -7.90151 0)
(22.3836 -8.69908 0)
(22.1308 -8.71597 0)
(21.9239 -8.25099 0)
(10.7057 -9.47219 0)
(12.4666 -9.59426 0)
(13.8018 -8.61342 0)
(14.7846 -9.21128 0)
(15.982 -8.60146 0)
(16.9186 -8.98761 0)
(17.9198 -8.40358 0)
(18.763 -8.86561 0)
(19.5987 -8.23352 0)
(20.2988 -9.06089 0)
(20.8402 -8.32168 0)
(21.3854 -9.12181 0)
(21.6721 -8.65941 0)
(22.0081 -9.12828 0)
(22.1653 -8.95641 0)
(22.3448 -9.1175 0)
(22.2873 -9.27228 0)
(22.1576 -9.12717 0)
(10.5575 -10.9386 0)
(12.3963 -10.395 0)
(13.6783 -9.92604 0)
(14.8429 -10.2388 0)
(15.966 -9.80223 0)
(16.8839 -10.0893 0)
(17.8687 -9.59508 0)
(18.6367 -9.80227 0)
(19.4074 -9.42797 0)
(20.097 -9.71392 0)
(20.6498 -9.51765 0)
(21.1556 -9.75541 0)
(21.5022 -9.65919 0)
(21.8439 -9.79276 0)
(22.1128 -9.74883 0)
(22.2394 -9.78713 0)
(22.2813 -9.78443 0)
(22.2492 -9.70195 0)
(10.5008 -12.3753 0)
(12.4299 -11.5924 0)
(13.7595 -11.2336 0)
(14.8844 -11.2023 0)
(15.9235 -10.9826 0)
(16.9105 -10.9485 0)
(17.84 -10.7284 0)
(18.7124 -10.7582 0)
(19.5089 -10.5632 0)
(20.1956 -10.6445 0)
(20.8115 -10.5867 0)
(21.3205 -10.6383 0)
(21.7001 -10.5929 0)
(22.0075 -10.5789 0)
(22.2128 -10.5505 0)
(22.3539 -10.5076 0)
(22.4092 -10.3955 0)
(22.3777 -10.2613 0)
(10.5659 -13.641 0)
(12.259 -12.4448 0)
(13.5245 -12.1036 0)
(14.6827 -12.0945 0)
(15.8532 -11.9889 0)
(16.98 -11.9393 0)
(18.0287 -11.8041 0)
(18.9883 -11.7099 0)
(19.7943 -11.5719 0)
(20.4496 -11.4947 0)
(21.0153 -11.3797 0)
(21.4925 -11.3046 0)
(21.8212 -11.1995 0)
(22.1006 -11.1156 0)
(22.3496 -11.016 0)
(22.5319 -10.9231 0)
(22.6274 -10.7989 0)
(22.6536 -10.6475 0)
(10.5867 -14.6528 0)
(12.2345 -13.0783 0)
(13.6169 -12.7537 0)
(14.8855 -12.7489 0)
(16.0801 -12.7322 0)
(17.1866 -12.6958 0)
(18.2099 -12.5562 0)
(19.1398 -12.3735 0)
(19.9154 -12.1595 0)
(20.5791 -11.9744 0)
(21.1488 -11.8073 0)
(21.629 -11.6896 0)
(22.0061 -11.5826 0)
(22.3198 -11.4635 0)
(22.5673 -11.3496 0)
(22.7904 -11.2294 0)
(22.9374 -11.061 0)
(23.012 -10.854 0)
(10.4492 -14.6753 0)
(12.2378 -13.3007 0)
(13.7398 -13.0714 0)
(15.1552 -12.9863 0)
(16.3879 -12.8585 0)
(17.4536 -12.7268 0)
(18.419 -12.5733 0)
(19.3078 -12.4137 0)
(20.102 -12.2225 0)
(20.8102 -12.0212 0)
(21.4474 -11.822 0)
(22.0075 -11.6465 0)
(22.4456 -11.4729 0)
(22.7992 -11.3139 0)
(23.0683 -11.1716 0)
(23.2901 -11.0275 0)
(23.4102 -10.8642 0)
(23.4872 -10.6822 0)
(10.6829 -14.1214 0)
(12.3931 -12.8869 0)
(13.8259 -12.6395 0)
(15.2277 -12.5444 0)
(16.5177 -12.3988 0)
(17.6945 -12.256 0)
(18.7396 -12.1243 0)
(19.6701 -12.016 0)
(20.4996 -11.8889 0)
(21.214 -11.7307 0)
(21.8482 -11.5342 0)
(22.416 -11.325 0)
(22.8884 -11.101 0)
(23.2503 -10.8866 0)
(23.5244 -10.6701 0)
(23.7618 -10.4662 0)
(23.9051 -10.2474 0)
(24.0084 -10.0167 0)
(10.3683 -12.9865 0)
(12.1798 -12.0122 0)
(13.758 -11.881 0)
(15.2524 -11.786 0)
(16.6409 -11.6037 0)
(17.905 -11.4307 0)
(19.0339 -11.279 0)
(20.0375 -11.1484 0)
(20.9004 -11.0189 0)
(21.6115 -10.8606 0)
(22.22 -10.66 0)
(22.7212 -10.4446 0)
(23.1197 -10.2403 0)
(23.4595 -10.035 0)
(23.7373 -9.8262 0)
(23.9815 -9.63064 0)
(24.1392 -9.43499 0)
(24.2684 -9.22909 0)
(10.6539 -11.8721 0)
(12.3417 -10.8719 0)
(13.8141 -10.781 0)
(15.2664 -10.7245 0)
(16.6821 -10.607 0)
(18 -10.4848 0)
(19.1917 -10.3536 0)
(20.2232 -10.2177 0)
(21.1068 -10.0701 0)
(21.8871 -9.8788 0)
(22.5533 -9.65047 0)
(23.0924 -9.43031 0)
(23.5558 -9.22092 0)
(23.9356 -9.01752 0)
(24.2295 -8.83111 0)
(24.4615 -8.66121 0)
(24.6118 -8.48337 0)
(24.7371 -8.30308 0)
(10.5631 -10.4941 0)
(12.4048 -9.60486 0)
(14.1061 -9.51562 0)
(15.6707 -9.5247 0)
(17.079 -9.45318 0)
(18.3302 -9.30459 0)
(19.4419 -9.14095 0)
(20.4031 -8.99013 0)
(21.2711 -8.85052 0)
(22.0704 -8.6837 0)
(22.7437 -8.52004 0)
(23.2952 -8.33224 0)
(23.771 -8.13596 0)
(24.1534 -7.95259 0)
(24.4641 -7.77518 0)
(24.6986 -7.61216 0)
(24.8638 -7.43286 0)
(24.9899 -7.27041 0)
(10.7864 -9.02485 0)
(12.4874 -8.33551 0)
(14.1286 -8.29001 0)
(15.6523 -8.2619 0)
(17.0494 -8.17176 0)
(18.3441 -8.03623 0)
(19.4982 -7.93834 0)
(20.5435 -7.82531 0)
(21.4902 -7.69295 0)
(22.3287 -7.53758 0)
(23.0156 -7.37102 0)
(23.5792 -7.19338 0)
(24.0356 -7.01432 0)
(24.4184 -6.84115 0)
(24.735 -6.68036 0)
(24.9999 -6.53426 0)
(25.1996 -6.40259 0)
(25.3542 -6.2658 0)
(10.7024 -7.53632 0)
(12.4358 -6.96038 0)
(14.1446 -6.99722 0)
(15.7642 -7.02306 0)
(17.276 -6.97459 0)
(18.6101 -6.86185 0)
(19.7711 -6.75837 0)
(20.8108 -6.62399 0)
(21.7224 -6.47933 0)
(22.5563 -6.3384 0)
(23.237 -6.17695 0)
(23.7939 -6.05428 0)
(24.279 -5.92324 0)
(24.693 -5.799 0)
(25.01 -5.68121 0)
(25.2691 -5.56752 0)
(25.4533 -5.4483 0)
(25.6014 -5.32165 0)
(10.523 -6.06252 0)
(12.5619 -5.74196 0)
(14.4768 -5.8835 0)
(16.2244 -5.91293 0)
(17.8015 -5.85578 0)
(19.1372 -5.73178 0)
(20.2488 -5.58984 0)
(21.211 -5.45964 0)
(22.0689 -5.3401 0)
(22.8697 -5.24036 0)
(23.5331 -5.12551 0)
(24.0843 -5.01432 0)
(24.5614 -4.88509 0)
(24.9249 -4.75786 0)
(25.1925 -4.65178 0)
(25.3915 -4.55155 0)
(25.5184 -4.46014 0)
(25.6147 -4.37539 0)
(10.6138 -4.90003 0)
(12.6472 -4.78434 0)
(14.5144 -4.84969 0)
(16.2023 -4.80876 0)
(17.7302 -4.69737 0)
(19.086 -4.52449 0)
(20.265 -4.36282 0)
(21.2813 -4.24576 0)
(22.1489 -4.17611 0)
(22.9214 -4.11909 0)
(23.5591 -4.07762 0)
(24.0814 -3.97978 0)
(24.5533 -3.88261 0)
(24.9188 -3.77025 0)
(25.2051 -3.66654 0)
(25.4236 -3.59067 0)
(25.5611 -3.52542 0)
(25.6647 -3.47293 0)
(10.7392 -3.75155 0)
(12.8816 -3.74515 0)
(14.8989 -3.75111 0)
(16.5903 -3.75101 0)
(17.9781 -3.69533 0)
(19.1681 -3.55539 0)
(20.2579 -3.40423 0)
(21.182 -3.30872 0)
(21.9948 -3.22583 0)
(22.6642 -3.18253 0)
(23.1904 -3.15063 0)
(23.5924 -3.0721 0)
(23.9359 -2.99122 0)
(24.1694 -2.89561 0)
(24.3424 -2.80839 0)
(24.4353 -2.73429 0)
(24.4748 -2.67966 0)
(24.4638 -2.63675 0)
(10.7272 -2.76558 0)
(13.0721 -2.92604 0)
(15.0589 -2.85323 0)
(16.5002 -2.74237 0)
(17.559 -2.62069 0)
(18.4099 -2.48287 0)
(19.218 -2.34118 0)
(19.9092 -2.26204 0)
(20.5028 -2.19449 0)
(20.9426 -2.17139 0)
(21.256 -2.1299 0)
(21.463 -2.07295 0)
(21.6069 -2.00955 0)
(21.6774 -1.93287 0)
(21.7222 -1.86803 0)
(21.6831 -1.82095 0)
(21.63 -1.78989 0)
(21.4699 -1.76366 0)
(10.7883 -2.08013 0)
(12.4832 -2.26631 0)
(13.6224 -2.03034 0)
(14.2577 -1.79018 0)
(14.7325 -1.57776 0)
(15.2175 -1.41625 0)
(15.7938 -1.28628 0)
(16.3355 -1.22754 0)
(16.8423 -1.1875 0)
(17.2475 -1.16216 0)
(17.5455 -1.14113 0)
(17.7708 -1.1081 0)
(17.9278 -1.07898 0)
(18.0501 -1.03829 0)
(18.1381 -1.00529 0)
(18.1517 -0.975111 0)
(18.1354 -0.970366 0)
(18.0339 -0.959599 0)
(9.29445 -0.811346 0)
(8.52738 -0.799788 0)
(8.31624 -0.541275 0)
(8.62543 -0.417869 0)
(9.32562 -0.3678 0)
(10.1727 -0.354305 0)
(11.0552 -0.357878 0)
(11.8844 -0.359767 0)
(12.6223 -0.35526 0)
(13.2399 -0.35004 0)
(13.7423 -0.346167 0)
(14.1553 -0.334442 0)
(14.4883 -0.324351 0)
(14.7571 -0.312394 0)
(14.9734 -0.299635 0)
(15.1267 -0.286876 0)
(15.2586 -0.294215 0)
(15.2342 -0.266483 0)
(0.054335 0.69335 0)
(0.150119 0.671893 0)
(0.247929 0.686959 0)
(0.347903 0.69319 0)
(0.456725 0.693618 0)
(0.55255 0.68624 0)
(0.637819 0.672199 1.14626e-17)
(0.700377 0.6549 -1.14005e-17)
(0.742993 0.643222 0)
(0.777809 0.650206 -1.12992e-17)
(0.823874 0.675465 0)
(0.874347 0.702473 0)
(0.895667 0.710323 0)
(0.86645 0.679336 1.11227e-17)
(0.800806 0.614156 0)
(0.666395 0.54687 0)
(0.440107 0.517706 -1.0972e-17)
(0.108777 0.58107 0)
(-0.332611 0.845565 0)
(-0.853905 1.20351 0)
(-1.48696 1.39344 1.0704e-17)
(-2.12191 1.28236 0)
(-2.69296 1.08279 1.05104e-17)
(-3.22004 0.991433 0)
(-3.75083 0.976899 0)
(-4.27942 0.951797 1.02818e-17)
(-4.80339 0.912382 0)
(-5.33061 0.872239 -1.01267e-17)
(-5.84893 0.834674 0)
(-6.34259 0.795856 9.97403e-18)
(-6.80572 0.745853 0)
(-7.24683 0.706976 0)
(-7.65342 0.661572 0)
(-8.03433 0.613106 0)
(-8.38739 0.562295 0)
(-8.72079 0.520417 -9.52654e-18)
(-9.02562 0.48238 0)
(-9.29767 0.440278 1.87565e-17)
(-9.51592 0.400117 0)
(-9.68559 0.356865 -1.84619e-17)
(-9.82229 0.298657 0)
(-9.92494 0.247124 0)
(-10.0151 0.230336 1.80115e-17)
(-10.1111 0.220371 0)
(-10.1905 0.212693 1.77151e-17)
(-10.2302 0.189712 -1.75729e-17)
(-10.2225 0.145423 0)
(-10.145 0.0978557 -1.72972e-17)
(-9.9956 0.0565801 -1.71612e-17)
(-9.82053 0.0347989 0)
(-9.67285 0.0630941 0)
(-9.55273 0.118308 0)
(-9.43781 0.146497 0)
(-9.3114 0.161864 0)
(-9.1901 0.197971 1.63186e-17)
(-9.13897 0.249993 0)
(-9.14195 0.282968 -1.60447e-17)
(-9.1672 0.312372 0)
(-9.23041 0.32026 0)
(-9.31274 0.372598 1.56789e-17)
(-9.39432 0.454675 0)
(-9.56967 0.525934 -1.54805e-17)
(-9.83084 0.521648 0)
(-10.0496 0.471898 0)
(-10.1825 0.420569 0)
(-10.2908 0.265102 1.49768e-17)
(-10.4795 0.103522 0)
(-10.7151 0.0631055 0)
(-10.8712 0.214647 1.45509e-17)
(-10.9149 0.41921 0)
(-11.0145 0.516057 1.43008e-17)
(-11.2718 0.521989 0)
(-11.6237 0.534116 0)
(-11.9145 0.550278 0)
(-12.0132 0.494064 -1.37037e-17)
(-11.8028 0.358465 0)
(-11.2085 0.255028 0)
(-10.3321 0.405737 -1.32374e-17)
(-9.57414 0.838342 -1.32083e-17)
(-9.39601 1.14268 0)
(-9.60659 0.96916 -1.31891e-17)
(-9.81487 0.451309 0)
(-9.83339 0.109716 -2.56627e-17)
(-9.30041 0.00458836 0)
(-8.27122 0.015081 -2.49228e-17)
(-7.09891 0.0960461 0)
(-5.95996 -0.00744938 2.4546e-17)
(-4.99294 -0.212039 0)
(-4.39104 -0.122966 0)
(-4.30135 0.43185 0)
(-4.90294 0.911882 -2.42652e-17)
(-6.02332 1.32566 0)
(-7.41029 1.62543 2.35217e-17)
(-8.70193 1.55581 0)
(-9.56518 1.33533 -2.30917e-17)
(-10.4116 1.39273 -2.29583e-17)
(-11.081 1.43021 -2.30056e-17)
(-11.1541 1.09472 0)
(-10.7361 0.732594 0)
(-10.2803 0.587807 0)
(-10.1417 0.666112 0)
(-10.3874 0.876356 0)
(-10.8857 0.992832 0)
(-11.0307 0.775901 0)
(-10.0798 0.255254 0)
(-8.36048 -0.210448 2.18053e-17)
(-6.65084 -0.0288012 2.1456e-17)
(-5.8356 0.803646 0)
(-7.66988 0.610437 0)
(-2.64405 -1.21162 0)
(-0.00151353 0.161045 2.0548e-17)
(-0.18281 0.653474 0)
(0.57845 0.379839 0)
(1.5542 0.433528 0)
(2.4545 0.411525 0)
(3.40282 0.45621 -1.97582e-17)
(4.28275 0.515654 0)
(5.03048 0.598352 0)
(5.69616 0.656349 1.94402e-17)
(6.20278 0.719339 -1.93475e-17)
(6.54083 0.773648 0)
(6.76167 0.804495 -1.91599e-17)
(6.93277 0.836829 0)
(6.99317 0.895794 1.8986e-17)
(6.92813 0.912785 0)
(6.78057 0.92021 0)
(6.49856 0.970348 0)
(6.10654 1.04068 0)
(5.64177 1.1126 0)
(5.14217 1.11145 -3.72177e-17)
(4.41103 0.977027 -3.70872e-17)
(3.62439 0.844627 0)
(2.82308 0.750868 0)
(2.04113 0.688638 0)
(1.33702 0.709903 3.5876e-17)
(0.641411 0.751312 0)
(-0.0328594 0.752128 0)
(-0.76366 0.753688 0)
(-1.34069 0.750114 3.44547e-17)
(-1.77368 0.797116 -3.41522e-17)
(-2.26075 0.825332 0)
(-2.82491 0.825904 0)
(-3.42777 0.828256 -3.32974e-17)
(-3.89697 0.763522 -3.30182e-17)
(-4.16247 0.734227 0)
(-4.12632 0.694238 0)
(-4.0663 0.575299 3.24621e-17)
(-4.38271 0.753654 -3.23728e-17)
(-5.39161 1.09217 0)
(-7.1792 1.37716 0)
(-8.93456 1.56044 -3.13038e-17)
(-10.4326 1.54961 0)
(-11.3817 1.43559 0)
(-11.6483 1.39238 -3.01974e-17)
(-11.8315 1.32384 0)
(-11.3635 1.1667 -2.95329e-17)
(-10.5667 0.989472 0)
(-9.23515 0.913699 0)
(-7.33445 0.816577 0)
(-6.42758 0.997346 2.90387e-17)
(-5.33842 0.875357 0)
(-2.82754 0.693431 0)
(-1.00443 0.915818 0)
(0.601899 0.597869 0)
(3.69023 0.614424 0)
(5.34103 0.900397 0)
(6.49923 0.956683 2.80714e-17)
(7.25652 0.950764 2.80751e-17)
(7.71116 0.95473 0)
(7.98771 0.942325 0)
(8.20477 0.911437 0)
(8.62037 0.820276 -2.77694e-17)
(9.29148 0.706498 0)
(10.0513 0.667418 5.52225e-17)
(10.8376 0.606821 -5.50536e-17)
(11.3176 0.622983 -5.48642e-17)
(12.0541 0.566075 5.45165e-17)
(12.6284 0.565646 -5.44476e-17)
(13.0924 0.534987 5.42575e-17)
(13.348 0.492823 0)
(0.0205935 2.17648 0)
(0.0203752 2.15468 0)
(0.0289388 2.17852 -2.34065e-17)
(-0.0118146 2.11767 0)
(-0.0516683 2.11515 2.31787e-17)
(-0.0886844 2.16833 2.29914e-17)
(-0.137416 2.23314 1.14279e-17)
(-0.162542 2.30409 1.14104e-17)
(-0.126906 2.32329 0)
(-0.109846 2.23317 1.13116e-17)
(-0.188384 2.11939 0)
(-0.323889 2.11015 0)
(-0.521132 2.19645 -2.21654e-17)
(-0.864072 2.33928 -1.10428e-17)
(-1.34603 2.54801 2.19887e-17)
(-2.00291 2.84652 2.18996e-17)
(-2.69353 3.31269 1.09024e-17)
(-3.36135 3.47352 0)
(-3.94301 3.34462 0)
(-4.32273 3.2236 0)
(-4.69187 3.09465 1.05817e-17)
(-5.13151 2.98929 0)
(-5.66751 2.90901 -3.13472e-17)
(-6.2139 2.87694 0)
(-6.75088 2.76514 0)
(-7.25569 2.67161 -1.02407e-17)
(-7.76914 2.5625 0)
(-8.26934 2.45909 1.01027e-17)
(-8.74096 2.34019 2.00696e-17)
(-9.21385 2.18572 -9.96746e-18)
(-9.60266 2.04837 0)
(-9.95387 1.87015 0)
(-10.2787 1.70285 0)
(-10.5443 1.5483 1.93859e-17)
(-10.7792 1.42169 1.92334e-17)
(-10.9897 1.27074 9.5382e-18)
(-11.1417 1.12407 0)
(-11.2592 0.945894 -1.87909e-17)
(-11.3495 0.754128 0)
(-11.4254 0.580289 1.85041e-17)
(-11.4938 0.456545 0)
(-11.4897 0.37121 0)
(-11.4569 0.323534 -1.80185e-17)
(-11.4102 0.289915 0)
(-11.3171 0.21362 -5.32038e-17)
(-11.2124 0.0971712 1.76056e-17)
(-11.0632 -0.0654832 0)
(-10.8751 -0.218444 1.73646e-17)
(-10.6908 -0.357033 1.72413e-17)
(-10.4926 -0.420644 0)
(-10.2473 -0.348171 0)
(-10.0296 -0.238138 0)
(-9.80173 -0.197379 0)
(-9.59956 -0.203609 0)
(-9.38907 -0.136955 -1.63146e-17)
(-9.20183 0.0104389 -3.22862e-17)
(-8.97427 0.158481 1.59556e-17)
(-8.77158 0.30724 0)
(-8.62611 0.407809 -3.14306e-17)
(-8.52669 0.423729 1.5609e-17)
(-8.40804 0.487089 0)
(-8.22723 0.679371 1.53022e-17)
(-8.13746 0.83427 0)
(-7.98117 0.822724 0)
(-7.72945 0.813282 3.00182e-17)
(-7.53491 1.01784 -1.48223e-17)
(-7.59363 1.46508 2.94998e-17)
(-7.96597 1.74123 -2.94651e-17)
(-8.49006 1.48236 -1.45752e-17)
(-8.99644 1.08013 0)
(-9.48842 1.21546 -1.40947e-17)
(-9.98368 1.69878 0)
(-10.4641 1.90143 0)
(-10.8231 1.65837 0)
(-10.9543 1.15364 -1.37469e-17)
(-10.7994 0.554356 0)
(-10.2319 0.000803559 -2.67586e-17)
(-9.4016 -0.240938 3.92579e-17)
(-8.31596 0.161437 1.27673e-17)
(-6.95545 1.09052 0)
(-5.6408 1.81203 1.26273e-17)
(-5.62646 2.07497 0)
(-6.60772 1.99898 2.54671e-17)
(-6.75953 1.15925 0)
(-5.97257 0.160253 2.45813e-17)
(-5.3104 0.0156974 -4.80977e-17)
(-5.29758 0.543948 -2.35768e-17)
(-6.35891 1.46811 0)
(-7.82695 2.41284 0)
(-9.05026 3.23966 0)
(-10.359 3.82982 2.34205e-17)
(-11.4805 4.06461 0)
(-12.1931 3.77323 -2.27748e-17)
(-12.9171 3.55244 0)
(-13.9455 3.44163 6.83257e-17)
(-14.7322 3.07754 2.29994e-17)
(-14.7198 2.24212 2.28549e-17)
(-14.2371 1.47878 0)
(-13.8326 1.43526 0)
(-13.5282 1.85526 0)
(-13.0355 2.31714 0)
(-12.3332 2.54257 0)
(-11.6922 2.30435 4.23141e-17)
(-11.0697 1.38617 4.32131e-17)
(-10.1583 0.118257 0)
(-9.21806 -0.38909 -2.2168e-17)
(-8.21255 0.738734 -2.13945e-17)
(-7.08721 2.17049 0)
(-6.5572 0.137018 -4.19057e-17)
(-2.10115 -3.44435 0)
(-1.75405 0.596441 2.12148e-17)
(0.00463968 1.22577 0)
(0.911809 0.663047 0)
(2.27911 0.763385 -4.05447e-17)
(3.33276 0.658441 0)
(4.55573 0.746977 1.98953e-17)
(5.68935 0.862171 0)
(6.6445 1.00858 0)
(7.55271 1.09968 1.93978e-17)
(8.38873 1.32825 1.91605e-17)
(9.01036 1.48439 0)
(9.46275 1.55921 -1.88107e-17)
(9.94472 1.63003 0)
(10.2731 1.70066 1.83776e-17)
(10.3588 1.79447 3.64394e-17)
(10.4273 1.87885 0)
(10.3672 1.90541 0)
(10.1825 2.00701 0)
(9.87145 2.06684 0)
(9.47329 2.06238 3.42646e-17)
(8.95249 2.24324 1.02427e-16)
(8.24387 2.36937 0)
(7.43757 2.44488 0)
(6.64655 2.52341 0)
(5.71171 2.42503 -3.41566e-17)
(4.51882 2.30163 0)
(3.38893 2.23938 0)
(2.24833 2.07206 6.65281e-17)
(1.27213 1.84732 3.28377e-17)
(0.769881 1.81405 3.23748e-17)
(0.481512 1.94131 0)
(0.128749 2.06854 0)
(-0.395562 2.08189 3.16285e-17)
(-0.819861 2.0394 -3.13999e-17)
(-1.16992 1.83713 0)
(-1.9922 1.84351 0)
(-3.75002 2.52104 -3.12101e-17)
(-6.30399 3.40059 9.29254e-17)
(-9.26975 4.03327 0)
(-11.8132 4.18409 0)
(-13.4922 4.07512 2.96377e-17)
(-14.6092 3.75677 0)
(-14.9673 3.1465 5.78803e-17)
(-14.6004 2.96107 -2.87597e-17)
(-14.2552 2.6308 0)
(-13.133 2.35981 2.83864e-17)
(-11.8868 2.0677 5.64778e-17)
(-10.1322 2.0608 0)
(-7.3859 1.83682 0)
(-7.13677 2.20187 -2.87342e-17)
(-4.6509 1.94044 0)
(-3.12087 1.22087 5.56495e-17)
(-0.182925 1.67022 0)
(1.8679 1.04349 0)
(5.28476 0.914649 0)
(7.37322 1.7162 0)
(9.06065 1.94046 -2.66993e-17)
(9.84212 2.1799 -2.64851e-17)
(10.4951 2.2713 0)
(10.6746 2.29138 0)
(10.935 2.15453 0)
(11.55 1.98129 2.60979e-17)
(12.5397 1.79166 0)
(13.2332 1.79336 -5.18675e-17)
(13.7289 1.61602 5.18847e-17)
(13.5971 1.61782 5.17631e-17)
(13.9529 1.42519 5.10419e-17)
(14.0116 1.40957 5.06504e-17)
(14.3256 1.40718 5.00123e-17)
(14.8513 1.46572 0)
(-0.0258417 3.88079 0)
(-0.188073 3.84953 0)
(-0.336361 3.96533 2.37937e-17)
(-0.475859 4.01939 2.35313e-17)
(-0.585353 3.96563 -2.33451e-17)
(-0.731909 3.95826 -2.32169e-17)
(-0.833059 3.88372 -3.55455e-20)
(-0.855697 3.64812 0)
(-0.821434 3.53407 0)
(-0.896033 3.74743 0)
(-1.20269 4.04339 0)
(-1.74329 4.29868 0)
(-2.32738 4.65869 6.6635e-17)
(-2.94926 5.0469 0)
(-3.52562 5.43289 -2.21267e-17)
(-4.06607 5.59032 -2.20351e-17)
(-4.39038 5.42559 0)
(-4.5874 5.24055 0)
(-4.96725 5.04103 0)
(-5.41356 5.07589 0)
(-5.98088 5.15332 -2.13555e-17)
(-6.50663 5.14952 0)
(-7.06637 5.06862 2.11494e-17)
(-7.59691 4.87144 0)
(-8.12149 4.65709 0)
(-8.62704 4.47971 0)
(-9.05934 4.32236 4.11817e-17)
(-9.49169 4.05937 0)
(-9.84585 3.85739 -2.03222e-17)
(-10.1932 3.59537 4.04165e-17)
(-10.4834 3.23451 0)
(-10.6964 2.93231 0)
(-10.8651 2.6047 0)
(-11.0312 2.3243 -1.95477e-17)
(-11.1189 2.11785 -1.938e-17)
(-11.2007 1.87266 0)
(-11.2199 1.62626 0)
(-11.2271 1.42426 3.78087e-17)
(-11.3033 1.13478 3.74836e-17)
(-11.3194 0.937944 -3.71839e-17)
(-11.3911 0.762024 0)
(-11.431 0.585209 0)
(-11.3511 0.454218 0)
(-11.2745 0.287235 0)
(-11.1742 0.160402 3.57789e-17)
(-11.0703 -0.00702287 3.55592e-17)
(-10.9586 -0.159569 -3.53167e-17)
(-10.8602 -0.240835 0)
(-10.783 -0.348269 0)
(-10.7014 -0.445424 0)
(-10.5467 -0.424053 0)
(-10.4128 -0.314698 3.40351e-17)
(-10.2536 -0.244062 0)
(-10.1842 -0.212088 0)
(-10.1015 -0.0578957 3.30577e-17)
(-9.94983 0.106801 3.2637e-17)
(-9.78387 0.131565 0)
(-9.59755 0.27189 -6.40203e-17)
(-9.41654 0.506815 3.16324e-17)
(-9.28688 0.579236 -3.14032e-17)
(-9.18845 0.674267 0)
(-8.93648 0.86818 0)
(-8.61063 0.911589 0)
(-8.36608 0.754747 0)
(-8.00264 0.786481 -3.00382e-17)
(-7.49881 1.32172 -5.95916e-17)
(-7.28612 1.72397 -2.96475e-17)
(-6.99302 1.87498 2.9349e-17)
(-6.3575 2.35204 0)
(-6.25704 3.08887 -5.79012e-17)
(-6.92974 3.32122 -5.76364e-17)
(-7.516 3.00181 -5.62573e-17)
(-7.81163 2.74509 5.50257e-17)
(-8.17085 2.67325 0)
(-8.58816 2.26518 8.30455e-17)
(-8.8256 1.36071 0)
(-8.64254 0.479484 -2.75963e-17)
(-8.24703 0.136868 -2.7012e-17)
(-7.49674 0.0369344 0)
(-6.21676 0.339687 0)
(-4.99377 1.59282 -4.99093e-17)
(-5.28081 3.5016 0)
(-5.9473 3.69708 -5.03689e-17)
(-5.66052 2.06148 0)
(-5.88897 1.45465 4.85798e-17)
(-7.07379 2.64442 9.54034e-17)
(-8.60045 4.09894 0)
(-10.2094 4.86003 0)
(-11.5609 5.29161 0)
(-12.656 5.84225 4.72223e-17)
(-13.4846 6.22494 0)
(-13.7654 6.16585 4.64644e-17)
(-13.9359 6.0652 0)
(-14.4922 6.09365 0)
(-15.3493 5.80692 -9.20707e-17)
(-15.7913 4.90671 0)
(-15.7242 3.73735 -4.61649e-17)
(-15.6874 3.08077 0)
(-15.6688 2.9413 -4.56797e-17)
(-15.0815 2.87527 0)
(-13.8585 2.73581 0)
(-12.4488 2.79671 0)
(-11.237 2.84505 -1.30167e-16)
(-10.3008 2.40687 -4.36517e-17)
(-9.6572 1.4929 0)
(-9.46628 1.03831 0)
(-8.80791 1.54252 0)
(-7.02151 1.85136 0)
(-4.13748 -0.599662 4.34234e-17)
(-4.73703 -2.50722 -8.54048e-17)
(-3.36716 1.33932 -4.37723e-17)
(-0.55261 1.30684 8.60602e-17)
(0.402278 1.03861 8.55142e-17)
(2.26131 1.3529 4.21886e-17)
(3.3433 1.16009 0)
(4.77514 1.33694 8.29677e-17)
(6.09918 1.56212 0)
(7.11762 1.87422 -8.14769e-17)
(8.03325 2.0457 -4.04026e-17)
(9.03342 2.32272 0)
(9.70842 2.68345 7.88824e-17)
(10.2374 2.85565 3.89963e-17)
(10.7218 2.90428 0)
(11.2142 3.25485 3.81813e-17)
(11.7339 3.46904 -1.13413e-16)
(11.9426 3.49773 0)
(11.9111 3.68852 0)
(11.9539 3.80127 0)
(11.8157 4.04234 0)
(11.4173 4.19678 -7.16981e-17)
(10.8527 3.98508 -6.93845e-17)
(10.2826 3.84275 0)
(9.57787 3.61914 0)
(8.716 3.43759 0)
(7.99223 3.64847 0)
(7.16785 3.83996 0)
(5.96854 3.79939 0)
(4.60417 3.70867 -6.39324e-17)
(3.19245 3.40741 8.84278e-20)
(2.0269 3.04248 0)
(1.42627 3.08751 0)
(1.08432 3.30929 -6.23197e-17)
(0.675755 3.38554 0)
(0.0445285 3.25193 6.11071e-17)
(-1.07712 3.74181 6.1602e-17)
(-3.24552 4.64356 0)
(-6.23402 5.54362 0)
(-9.40996 6.60474 -5.99361e-17)
(-11.9511 7.03296 -1.18188e-16)
(-13.7944 6.75703 0)
(-14.8402 6.26116 0)
(-15.28 5.90431 0)
(-15.0162 5.12376 -5.84122e-17)
(-14.4119 4.92942 5.84884e-17)
(-13.6028 4.47819 0)
(-12.3983 4.21354 1.16328e-16)
(-10.4456 3.58231 5.78335e-17)
(-9.44541 3.15013 -1.15032e-16)
(-4.7247 3.37396 0)
(-5.9716 3.7897 0)
(-2.81724 3.59824 -1.19878e-16)
(-1.52873 2.65665 -5.84971e-17)
(1.08573 2.76526 0)
(3.15079 1.999 0)
(6.25552 1.75281 0)
(8.53561 2.93517 0)
(10.9645 3.42551 -1.11323e-16)
(11.8353 3.82029 0)
(12.6128 3.88568 0)
(12.744 3.98939 0)
(12.9284 3.74661 0)
(13.6399 3.2327 0)
(14.8376 2.74769 0)
(15.874 2.88067 -1.02432e-16)
(16.6802 2.88623 0)
(16.3255 2.9503 0)
(16.3135 2.66313 -1.98605e-16)
(15.6707 2.48178 9.80631e-17)
(15.3929 2.13998 -9.43177e-17)
(15.8816 2.15191 9.49061e-17)
(-0.00587486 5.57158 0)
(-0.117107 5.71463 -4.77231e-17)
(-0.229341 5.7059 0)
(-0.229813 5.56449 -2.36924e-17)
(-0.174193 5.57638 0)
(-0.196674 5.5941 0)
(-0.260468 5.39497 2.28465e-17)
(-0.437428 5.16156 0)
(-0.865796 5.20419 0)
(-1.44482 5.81242 0)
(-1.82391 6.52358 0)
(-2.27625 6.89283 0)
(-2.89156 7.09998 -8.90243e-17)
(-3.50712 7.22489 -4.45239e-17)
(-4.10651 7.26102 4.43429e-17)
(-4.51757 7.18009 0)
(-4.95007 6.8672 0)
(-5.38802 6.72611 0)
(-5.91533 6.94898 0)
(-6.50143 7.22575 0)
(-7.09963 7.24159 -4.2985e-17)
(-7.69058 6.99861 -4.25881e-17)
(-8.18207 6.76878 4.21978e-17)
(-8.58103 6.556 -4.19003e-17)
(-8.94555 6.27681 0)
(-9.2717 5.91144 0)
(-9.48792 5.58166 -4.0953e-17)
(-9.70584 5.24395 0)
(-9.89511 4.88822 0)
(-10.0438 4.50606 -3.99825e-17)
(-10.1665 4.03779 -3.96324e-17)
(-10.2812 3.51968 -3.91933e-17)
(-10.3482 3.16878 0)
(-10.4016 2.82268 0)
(-10.4291 2.44676 3.81604e-17)
(-10.4397 2.19187 0)
(-10.4072 1.88087 0)
(-10.3697 1.64999 -3.72549e-17)
(-10.39 1.41522 3.70038e-17)
(-10.3626 1.14404 -3.66905e-17)
(-10.3479 0.946671 0)
(-10.3666 0.742671 0)
(-10.3985 0.505066 -7.16813e-17)
(-10.4265 0.315649 0)
(-10.4379 0.118313 -7.05995e-17)
(-10.4654 -0.0267643 -1.0517e-16)
(-10.3835 -0.155465 1.04532e-16)
(-10.3282 -0.240601 -6.93562e-17)
(-10.3095 -0.336786 0)
(-10.2833 -0.516448 0)
(-10.2111 -0.596051 -6.84252e-17)
(-10.0816 -0.395035 -3.40312e-17)
(-10.0952 -0.21604 0)
(-10.2035 -0.161693 0)
(-10.2416 -0.0447468 -3.32439e-17)
(-10.1061 0.0799159 -6.60074e-17)
(-10.039 0.0977473 0)
(-10.0425 0.372451 6.42753e-17)
(-9.99124 0.666096 -6.36788e-17)
(-9.82197 0.656794 6.33358e-17)
(-9.72283 0.585117 0)
(-9.52585 0.77108 0)
(-9.21337 0.87489 0)
(-9.03717 0.743146 0)
(-8.8578 0.739879 0)
(-8.30012 1.22376 5.98595e-17)
(-7.682 1.74962 0)
(-7.37569 1.88625 0)
(-6.91385 2.11301 0)
(-6.09281 2.80776 1.15231e-16)
(-5.48683 3.72815 5.71936e-17)
(-5.47893 4.35763 5.68172e-17)
(-5.71901 4.60037 -1.12085e-16)
(-5.85937 4.28563 5.51814e-17)
(-5.92972 3.54958 -5.45237e-17)
(-6.04177 2.5983 0)
(-6.13493 1.47351 5.46735e-17)
(-5.91861 0.553772 0)
(-5.65978 0.213931 0)
(-5.62017 1.09749 0)
(-5.71922 3.50913 9.79753e-17)
(-5.96396 5.29109 -4.92663e-17)
(-5.69998 4.7189 -5.04637e-17)
(-5.83294 3.61609 -9.85497e-17)
(-7.4414 4.03829 -1.43352e-16)
(-9.41067 5.39299 -4.75005e-17)
(-11.0006 6.63167 0)
(-12.2478 7.33791 -9.40554e-17)
(-13.3644 7.68853 0)
(-14.2549 7.88671 -1.41084e-16)
(-14.5192 7.72005 0)
(-14.3919 7.40555 -1.37683e-16)
(-14.4631 7.53106 0)
(-14.8491 7.85022 0)
(-15.076 7.51869 -4.65186e-17)
(-14.8618 6.41088 0)
(-14.6831 5.25579 4.65742e-17)
(-14.7966 4.50123 9.37013e-17)
(-14.8453 3.91404 4.63468e-17)
(-14.5024 3.26138 9.16327e-17)
(-13.8736 2.88921 -9.09749e-17)
(-13.1888 3.03917 -9.12211e-17)
(-12.2807 3.24018 1.81961e-16)
(-11.1876 3.0086 0)
(-10.1468 2.22234 0)
(-9.25836 1.54075 8.77181e-17)
(-7.94321 1.32566 -8.76887e-17)
(-6.315 1.13225 0)
(-4.22359 0.157899 0)
(-5.26653 -0.916051 8.53528e-17)
(-3.84619 -0.015848 0)
(-1.18452 1.00519 1.84865e-19)
(-0.569178 0.876418 1.85736e-19)
(1.77508 1.45866 8.5403e-17)
(3.1545 1.1657 0)
(4.64658 1.39592 -8.37398e-17)
(6.07181 1.7526 0)
(7.47792 2.23274 8.157e-17)
(8.17396 2.35432 0)
(9.1753 2.84372 0)
(9.98383 3.29896 -7.93999e-17)
(10.1587 3.52234 -7.91533e-17)
(10.6925 3.71403 0)
(11.404 3.60647 -7.67487e-17)
(11.8302 3.81184 1.5091e-16)
(12.2547 4.33408 0)
(12.4057 4.41848 0)
(12.4089 4.58373 0)
(12.6418 4.97225 0)
(12.8273 5.32716 7.29218e-17)
(12.2369 5.53747 -1.44766e-16)
(11.3439 5.6086 0)
(10.7811 5.64992 0)
(9.84158 5.61162 0)
(8.7411 5.34741 0)
(8.15051 5.37731 0)
(7.38244 5.56656 0)
(6.03905 5.40839 0)
(4.58871 5.1996 6.21966e-17)
(2.89109 4.67568 0)
(1.86175 4.43172 0)
(1.32475 4.57709 6.15537e-17)
(0.858971 4.81697 0)
(-0.393543 5.18285 0)
(-2.21 5.92777 -6.08145e-17)
(-4.79286 7.466 0)
(-8.10104 8.88315 0)
(-11.2186 9.49068 1.18162e-16)
(-13.0067 9.51386 1.16572e-16)