/*--------------------------------*- C++ -*----------------------------------*\
| =========                 |                                                 |
| \\      /  F ield         | OpenFOAM: The Open Source CFD Toolbox           |
|  \\    /   O peration     | Version:  dev                                   |
|   \\  /    A nd           | Web:      http://www.openfoam.org               |
|    \\/     M anipulation  |                                                 |
\*---------------------------------------------------------------------------*/
FoamFile
{
    version     2.0;
    format      ascii;
    class       volVectorField;
    object      UMean;
    location    "9.13";
}
// * * * * * * * * * * * * * * * * * * * * * * * * * * * * * * * * * * * * * //

dimensions      [0 1 -1 0 0 0 0];

internalField   nonuniform List<vector> 
12225
(
(7.00369 0.430275 0)
(4.43883 0.192542 0)
(2.55683 0.0311482 0)
(2.51106 -0.0166602 0)
(1.3845 0.0193581 0)
(2.26766 -0.0342857 0)
(0.989567 0.0489799 0)
(2.18308 -0.0591872 0)
(0.797534 0.0716662 0)
(2.29249 -0.0978741 0)
(0.688722 0.0993981 0)
(2.74458 -0.138657 0)
(0.948005 0.102627 0)
(3.39789 -0.172127 0)
(3.53019 -0.168423 0)
(4.69521 0.0501772 0)
(14.8396 -2.43344 0)
(7.11682 5.13184 0)
(9.54624 0.981603 0)
(9.54343 0.86086 0)
(6.68674 0.466262 0)
(7.59077 0.214548 0)
(4.09045 0.1403 0)
(6.84381 0.010797 0)
(2.66489 0.132622 0)
(6.69035 -0.0903445 0)
(1.82226 0.141806 0)
(7.04083 -0.165081 0)
(1.26005 0.123882 0)
(8.12404 -0.414464 0)
(1.3848 0.252554 0)
(9.95685 -1.44221 0)
(3.43519 0.27281 0)
(12.3883 -4.06678 0)
(10.4252 -1.92646 0)
(7.77492 0.483155 0)
(9.11834 0.763516 0)
(12.167 0.951378 0)
(8.32922 0.623892 0)
(11.8325 0.44338 0)
(6.22563 0.31024 0)
(11.4137 0.206461 0)
(4.58216 0.221414 0)
(11.3161 -0.0195362 0)
(3.87349 0.192846 0)
(11.3782 -0.277917 0)
(4.34984 0.18721 0)
(11.2551 -0.723383 0)
(5.72778 0.176294 0)
(11.0924 -1.49192 0)
(7.21368 0.0534378 0)
(12.1191 -3.86445 0)
(6.93287 0.350534 0)
(9.3546 -2.39211 0)
(7.2186 0.524988 0)
(13.9933 0.96098 0)
(7.92957 0.609375 0)
(14.2957 0.553826 0)
(7.47431 0.420838 0)
(14.1168 0.271044 0)
(7.17581 0.396604 0)
(13.739 -0.145159 0)
(7.25686 0.459489 0)
(13.2702 -0.698813 0)
(7.65923 0.576679 0)
(12.8752 -1.42283 0)
(8.266 0.699626 0)
(12.6522 -2.31334 0)
(9.02114 0.0432477 0)
(11.8891 -3.63688 0)
(8.68554 -1.43097 0)
(8.3662 0.680734 0)
(6.42431 0.570019 0)
(14.0106 0.565795 0)
(8.47418 0.674366 0)
(13.9577 0.284445 0)
(9.1703 0.636617 0)
(13.643 -0.00263346 0)
(9.51816 0.657752 0)
(13.2133 -0.388743 0)
(9.59302 0.734276 0)
(12.8122 -0.871346 0)
(9.44629 0.87688 0)
(12.5815 -1.52143 0)
(9.14998 1.09017 0)
(12.5691 -2.48965 0)
(8.82725 1.13302 0)
(11.6147 -5.02787 0)
(8.54455 1.26751 0)
(8.7238 0.123883 0)
(7.95757 0.616932 0)
(11.8018 0.152272 0)
(9.50631 0.65468 0)
(11.7382 0.0501421 0)
(10.0895 0.693879 0)
(11.5992 -0.165744 0)
(10.3217 0.725798 0)
(11.4749 -0.457623 0)
(10.3017 0.78307 0)
(11.3881 -0.853714 0)
(10.0341 0.832325 0)
(11.3536 -1.40035 0)
(9.49407 0.802033 0)
(11.4159 -2.13877 0)
(8.80367 0.727779 0)
(10.996 -3.92105 0)
(7.73764 1.33646 0)
(9.48946 -0.220703 0)
(9.34572 0.812721 0)
(10.4371 -0.266125 0)
(10.1423 0.930485 0)
(10.5523 -0.30469 0)
(10.4003 1.01999 0)
(10.5804 -0.503072 0)
(10.5218 1.07552 0)
(10.624 -0.781414 0)
(10.5654 1.15357 0)
(10.6705 -1.15806 0)
(10.5178 1.2355 0)
(10.6986 -1.63606 0)
(10.3701 1.26178 0)
(10.6865 -2.32745 0)
(10.0577 1.27216 0)
(10.3753 -3.95382 0)
(8.30373 2.01842 0)
(9.69659 -0.955393 0)
(9.85054 0.701168 0)
(10.1545 -0.326164 0)
(10.408 0.855032 0)
(10.3887 -0.350085 0)
(10.5818 0.906843 0)
(10.4696 -0.49422 0)
(10.7031 0.892968 0)
(10.5512 -0.686592 0)
(10.807 0.872804 0)
(10.6434 -0.935611 0)
(10.8828 0.824128 0)
(10.7351 -1.23311 0)
(10.9105 0.671884 0)
(10.7538 -1.67281 0)
(10.7264 0.520108 0)
(10.493 -2.47357 0)
(8.8978 0.97902 0)
(9.96411 -0.485798 0)
(10.0871 0.802207 0)
(10.0184 -0.583629 0)
(10.5369 1.02142 0)
(10.3097 -0.604713 0)
(10.6766 1.07497 0)
(10.4392 -0.725204 0)
(10.7789 1.04817 0)
(10.5703 -0.890309 0)
(10.8586 1.00363 0)
(10.711 -1.11806 0)
(10.9001 0.921079 0)
(10.8316 -1.39522 0)
(10.8755 0.734742 0)
(10.8222 -1.76098 0)
(10.6038 0.505436 0)
(10.521 -2.06846 0)
(9.35285 0.584489 0)
(10.0235 -0.392847 0)
(10.1401 0.648589 0)
(10.0413 -0.512118 0)
(10.5112 0.878062 0)
(10.3327 -0.456702 0)
(10.6222 0.869177 0)
(10.4813 -0.493854 0)
(10.6986 0.778182 0)
(10.6286 -0.572389 0)
(10.735 0.657779 0)
(10.7633 -0.695598 0)
(10.7187 0.495369 0)
(10.8401 -0.845136 0)
(10.619 0.26382 0)
(10.7655 -1.03207 0)
(10.2834 0.0697621 0)
(10.4797 -1.05257 0)
(9.62517 0.122798 0)
(10.2069 -0.033571 0)
(10.1417 0.699911 0)
(10.0701 -0.692031 0)
(10.4531 0.902477 0)
(10.2982 -0.619103 0)
(10.538 0.847507 0)
(10.4299 -0.64571 0)
(10.6037 0.735098 0)
(10.5605 -0.70758 0)
(10.6277 0.586532 0)
(10.6603 -0.791403 0)
(10.6097 0.382814 0)
(10.6812 -0.869322 0)
(10.5275 0.116636 0)
(10.5711 -0.921987 0)
(10.2924 -0.114483 0)
(10.3612 -0.765 0)
(10.0211 -0.155324 0)
(10.2458 -0.125956 0)
(10.0971 0.467909 0)
(10.1506 -0.495212 0)
(10.3538 0.595658 0)
(10.2933 -0.374733 0)
(10.4205 0.527373 0)
(10.4093 -0.35493 0)
(10.485 0.418674 0)
(10.524 -0.374343 0)
(10.5134 0.275451 0)
(10.5994 -0.414812 0)
(10.516 0.0929713 0)
(10.5972 -0.461758 0)
(10.4771 -0.103742 0)
(10.4998 -0.500196 0)
(10.3578 -0.232688 0)
(10.365 -0.405898 0)
(10.2667 -0.220634 0)
(10.3742 -0.110962 0)
(10.0501 0.410856 0)
(10.1753 -0.487352 0)
(10.2549 0.437062 0)
(10.2378 -0.367583 0)
(10.3088 0.367158 0)
(10.3306 -0.345685 0)
(10.3793 0.250602 0)
(10.4246 -0.355408 0)
(10.4228 0.0991605 0)
(10.4823 -0.375014 0)
(10.4464 -0.0800637 0)
(10.4819 -0.403571 0)
(10.4332 -0.247085 0)
(10.4263 -0.431476 0)
(10.3776 -0.339693 0)
(10.3689 -0.393068 0)
(10.3574 -0.32116 0)
(10.4225 -0.27721 0)
(10.0153 0.199503 0)
(10.1907 -0.285857 0)
(10.1932 0.167164 0)
(10.2052 -0.179348 0)
(10.2293 0.131452 0)
(10.2792 -0.171464 0)
(10.3062 0.0469907 0)
(10.3626 -0.197913 0)
(10.3661 -0.0589897 0)
(10.4143 -0.235924 0)
(10.4056 -0.176315 0)
(10.4268 -0.286682 0)
(10.4125 -0.275345 0)
(10.4114 -0.331988 0)
(10.3997 -0.324565 0)
(10.4068 -0.337662 0)
(10.411 -0.316574 0)
(10.4699 -0.305443 0)
(9.99662 0.0970342 0)
(10.1444 -0.185932 0)
(10.1463 0.0215237 0)
(10.1501 -0.133731 0)
(10.1622 -0.00880516 0)
(10.2089 -0.146277 0)
(10.241 -0.077174 0)
(10.2919 -0.186896 0)
(10.3111 -0.159649 0)
(10.3486 -0.238195 0)
(10.3576 -0.245075 0)
(10.3792 -0.298602 0)
(10.3806 -0.316622 0)
(10.394 -0.35044 0)
(10.396 -0.36144 0)
(10.4186 -0.380656 0)
(10.4239 -0.381565 0)
(10.4789 -0.38781 0)
(9.9937 0.0154329 0)
(10.106 -0.0858608 0)
(10.1089 -0.0444286 0)
(10.1138 -0.0933475 0)
(10.1188 -0.0750297 0)
(10.1675 -0.119075 0)
(10.198 -0.120789 0)
(10.2519 -0.16402 0)
(10.2741 -0.180797 0)
(10.3154 -0.219398 0)
(10.3279 -0.244204 0)
(10.3598 -0.278111 0)
(10.366 -0.301661 0)
(10.394 -0.329356 0)
(10.3996 -0.347384 0)
(10.4329 -0.371228 0)
(10.4356 -0.384248 0)
(10.4884 -0.397514 0)
(9.99181 0.00473242 0)
(10.0637 -0.0251906 0)
(10.0567 -0.0349807 0)
(10.0679 -0.0665489 0)
(10.0778 -0.0758185 0)
(10.128 -0.0998811 0)
(10.1573 -0.11609 0)
(10.211 -0.144871 0)
(10.2338 -0.169172 0)
(10.2782 -0.199791 0)
(10.2921 -0.226813 0)
(10.3301 -0.257312 0)
(10.3385 -0.283625 0)
(10.3732 -0.312386 0)
(10.3789 -0.33717 0)
(10.4153 -0.365927 0)
(10.4146 -0.388465 0)
(10.4634 -0.407921 0)
(9.99154 0.0141651 0)
(10.0467 0.0161579 0)
(10.0398 -0.0106084 0)
(10.0576 -0.037731 0)
(10.0748 -0.0566092 0)
(10.1255 -0.0779478 0)
(10.1554 -0.0989873 0)
(10.2071 -0.123964 0)
(10.2311 -0.14916 0)
(10.2754 -0.176816 0)
(10.2911 -0.203647 0)
(10.3293 -0.232398 0)
(10.3394 -0.259633 0)
(10.3736 -0.288598 0)
(10.3801 -0.315954 0)
(10.414 -0.346042 0)
(10.4132 -0.371917 0)
(10.4566 -0.393764 0)
(9.99165 0.0329412 0)
(10.0502 0.0496782 0)
(10.0566 0.00993675 0)
(10.0799 -0.0180922 0)
(10.1006 -0.0402822 0)
(10.1506 -0.0615389 0)
(10.1818 -0.0836965 0)
(10.2316 -0.106512 0)
(10.2562 -0.130678 0)
(10.2984 -0.155657 0)
(10.315 -0.181246 0)
(10.3507 -0.207513 0)
(10.3614 -0.233769 0)
(10.3926 -0.260639 0)
(10.399 -0.28728 0)
(10.4287 -0.315552 0)
(10.428 -0.341297 0)
(10.4652 -0.363101 0)
(9.98988 0.0407367 0)
(10.0547 0.0527158 0)
(10.0828 -0.00630885 0)
(10.1167 -0.0406625 0)
(10.1419 -0.0641384 0)
(10.1904 -0.082309 0)
(10.2223 -0.102164 0)
(10.269 -0.121094 0)
(10.2935 -0.142856 0)
(10.332 -0.164119 0)
(10.3483 -0.187551 0)
(10.3801 -0.210256 0)
(10.3904 -0.234581 0)
(10.4173 -0.258115 0)
(10.4228 -0.282999 0)
(10.4472 -0.30805 0)
(10.446 -0.332691 0)
(10.4767 -0.353111 0)
(9.99051 0.0316386 0)
(10.0685 0.0220888 0)
(10.1262 -0.0557034 0)
(10.177 -0.096744 0)
(10.2126 -0.119801 0)
(10.2609 -0.132785 0)
(10.2938 -0.147843 0)
(10.3361 -0.161741 0)
(10.3601 -0.179935 0)
(10.3941 -0.197035 0)
(10.4103 -0.217493 0)
(10.4376 -0.236388 0)
(10.4478 -0.258152 0)
(10.4701 -0.278231 0)
(10.4753 -0.300931 0)
(10.4945 -0.322568 0)
(10.4938 -0.345434 0)
(10.5185 -0.363735 0)
(9.99119 0.00991193 0)
(10.092 -0.0296472 0)
(10.187 -0.120807 0)
(10.2596 -0.162764 0)
(10.3093 -0.181146 0)
(10.359 -0.187199 0)
(10.3929 -0.196098 0)
(10.4305 -0.204444 0)
(10.4542 -0.218202 0)
(10.4837 -0.23085 0)
(10.5001 -0.247724 0)
(10.5232 -0.262764 0)
(10.5337 -0.281487 0)
(10.5516 -0.298187 0)
(10.5571 -0.318261 0)
(10.5718 -0.336608 0)
(10.5722 -0.357197 0)
(10.5919 -0.373352 0)
(9.99278 -0.0233139 0)
(10.1275 -0.103526 0)
(10.2671 -0.204874 0)
(10.3665 -0.241564 0)
(10.432 -0.250808 0)
(10.4836 -0.248412 0)
(10.5184 -0.250942 0)
(10.5518 -0.253754 0)
(10.5754 -0.263048 0)
(10.6012 -0.27142 0)
(10.6181 -0.284764 0)
(10.6378 -0.296397 0)
(10.6486 -0.312226 0)
(10.6631 -0.325997 0)
(10.6691 -0.343549 0)
(10.68 -0.359008 0)
(10.6813 -0.37733 0)
(10.6967 -0.391494 0)
(9.99057 -0.0715619 0)
(10.1745 -0.201106 0)
(10.368 -0.305423 0)
(10.5002 -0.327842 0)
(10.5806 -0.32257 0)
(10.6345 -0.310217 0)
(10.6691 -0.305616 0)
(10.6998 -0.302623 0)
(10.7227 -0.306777 0)
(10.7461 -0.310671 0)
(10.7625 -0.320009 0)
(10.7794 -0.328167 0)
(10.7895 -0.34072 0)
(10.8006 -0.351511 0)
(10.8055 -0.366119 0)
(10.8123 -0.37869 0)
(10.8121 -0.394257 0)
(10.8221 -0.406223 0)
(9.99203 -0.136323 0)
(10.2448 -0.32295 0)
(10.5027 -0.418957 0)
(10.6712 -0.417599 0)
(10.7628 -0.394164 0)
(10.8175 -0.371109 0)
(10.8494 -0.358961 0)
(10.8772 -0.35062 0)
(10.896 -0.350151 0)
(10.9148 -0.350565 0)
(10.9252 -0.356469 0)
(10.9354 -0.361615 0)
(10.9373 -0.370932 0)
(10.9392 -0.378808 0)
(10.9338 -0.390021 0)
(10.9289 -0.399617 0)
(10.9162 -0.411551 0)
(10.9113 -0.420713 0)
(9.98978 -0.219869 0)
(10.3369 -0.468076 0)
(10.6737 -0.539694 0)
(10.8758 -0.508199 0)
(10.9698 -0.464845 0)
(11.0135 -0.428067 0)
(11.0286 -0.404831 0)
(11.0352 -0.388421 0)
(11.029 -0.381473 0)
(11.0194 -0.377036 0)
(10.9979 -0.378265 0)
(10.9734 -0.379184 0)
(10.9375 -0.383919 0)
(10.8997 -0.38741 0)
(10.8519 -0.393791 0)
(10.8038 -0.399125 0)
(10.7458 -0.405455 0)
(10.694 -0.410242 0)
(9.98334 -0.332052 0)
(10.4677 -0.642285 0)
(10.883 -0.667081 0)
(11.0725 -0.602636 0)
(11.103 -0.537194 0)
(11.0583 -0.483134 0)
(10.9743 -0.445005 0)
(10.8731 -0.416261 0)
(10.7576 -0.398061 0)
(10.6348 -0.383332 0)
(10.5033 -0.374961 0)
(10.3663 -0.366411 0)
(10.2238 -0.362537 0)
(10.077 -0.357095 0)
(9.9281 -0.355958 0)
(9.77644 -0.353373 0)
(9.62518 -0.353083 0)
(9.47517 -0.351254 0)
(10.0025 -0.453654 0)
(10.619 -0.818935 0)
(10.9017 -0.752059 0)
(10.7933 -0.623753 0)
(10.4938 -0.512539 0)
(10.1376 -0.429198 0)
(9.77006 -0.373578 0)
(9.41749 -0.334747 0)
(9.07661 -0.307326 0)
(8.7552 -0.28465 0)
(8.44613 -0.267702 0)
(8.15295 -0.251384 0)
(7.87211 -0.240099 0)
(7.60245 -0.2274 0)
(7.34755 -0.221199 0)
(7.09793 -0.211891 0)
(6.8694 -0.210923 0)
(6.63987 -0.204248 0)
(10.0974 -0.750786 0)
(10.0459 -1.01319 0)
(9.42503 -0.801085 0)
(8.5145 -0.572188 0)
(7.65504 -0.378737 0)
(6.92887 -0.244898 0)
(6.32727 -0.167541 0)
(5.8315 -0.126271 0)
(5.40902 -0.104726 0)
(5.04836 -0.0923451 0)
(4.7282 -0.084986 0)
(4.4474 -0.0793743 0)
(4.19092 -0.0758317 0)
(3.96195 -0.0719142 0)
(3.75016 -0.0721562 0)
(3.55492 -0.0691058 0)
(3.38262 -0.0802838 0)
(3.21764 -0.0828763 0)
(8.51677 -0.436042 0)
(6.1103 -0.380882 0)
(4.29839 -0.138049 0)
(3.12389 -0.0213846 0)
(2.48108 0.0191329 0)
(2.12044 0.0224706 0)
(1.89616 0.0137119 0)
(1.73482 0.00461359 0)
(1.59874 -0.001572 0)
(1.47797 -0.00479364 0)
(1.36584 -0.00640752 0)
(1.26364 -0.00672239 0)
(1.16794 -0.00671032 0)
(1.08118 -0.00639207 0)
(0.999117 -0.00665941 0)
(0.918859 -0.00703557 0)
(0.851322 -0.0186038 0)
(0.730811 -0.00613627 0)
(-0.0520423 0.137998 0)
(-0.157096 0.0715485 0)
(-0.207159 0.0165216 0)
(-0.195424 -0.044264 0)
(-0.118278 -0.0989773 0)
(0.0118223 -0.145019 0)
(0.185805 -0.175572 1.11353e-17)
(0.38751 -0.193543 -1.10604e-17)
(0.605704 -0.197941 0)
(0.828056 -0.192686 -1.09172e-17)
(1.04518 -0.178358 0)
(1.24809 -0.157604 0)
(1.43023 -0.130972 0)
(1.58633 -0.101604 1.06426e-17)
(1.71375 -0.070339 0)
(1.80972 -0.0382525 0)
(1.87338 -0.00608576 -1.04455e-17)
(1.90545 0.0241681 0)
(1.90757 0.0505846 0)
(1.88185 0.072234 0)
(1.83198 0.0891628 1.01961e-17)
(1.76052 0.100746 0)
(1.67138 0.108673 1.00741e-17)
(1.56627 0.111594 0)
(1.44985 0.10966 0)
(1.32487 0.107918 9.89541e-18)
(1.19157 0.111129 0)
(1.04919 0.116196 -9.77908e-18)
(0.900889 0.121426 0)
(0.747244 0.12649 9.66419e-18)
(0.589779 0.130528 0)
(0.430762 0.133031 0)
(0.272456 0.134222 0)
(0.115346 0.134027 0)
(-0.0402589 0.131156 0)
(-0.192291 0.126481 -9.32955e-18)
(-0.339094 0.120384 0)
(-0.480238 0.113893 1.84405e-17)
(-0.614275 0.107401 0)
(-0.740767 0.100164 -1.82215e-17)
(-0.858243 0.0931168 0)
(-0.966858 0.0863228 0)
(-1.06706 0.078554 1.78883e-17)
(-1.15838 0.0701692 0)
(-1.24144 0.062453 1.76651e-17)
(-1.31634 0.0552143 -1.75531e-17)
(-1.38258 0.0482249 0)
(-1.44099 0.0421899 -1.73281e-17)
(-1.49268 0.0368789 -1.72151e-17)
(-1.53663 0.033212 0)
(-1.57299 0.0316279 0)
(-1.60366 0.0316154 0)
(-1.63078 0.0317158 0)
(-1.65531 0.0316932 0)
(-1.67867 0.0325552 1.65281e-17)
(-1.70267 0.0340948 0)
(-1.72866 0.0363276 -1.62989e-17)
(-1.75536 0.0383696 0)
(-1.78158 0.0390121 0)
(-1.80729 0.0396448 1.59524e-17)
(-1.83323 0.0414389 0)
(-1.86126 0.042666 -1.57211e-17)
(-1.89127 0.0443135 0)
(-1.92307 0.0458063 0)
(-1.95622 0.0466778 0)
(-1.99016 0.0478869 1.52555e-17)
(-2.02453 0.0497191 0)
(-2.0596 0.0519372 0)
(-2.09513 0.0543408 1.49058e-17)
(-2.13143 0.0558031 0)
(-2.1655 0.0560374 1.46711e-17)
(-2.19647 0.0564186 0)
(-2.22421 0.0566061 0)
(-2.24769 0.0564414 0)
(-2.26596 0.0558452 -1.4205e-17)
(-2.27833 0.0546263 0)
(-2.2855 0.0539203 0)
(-2.2894 0.0538686 -1.38612e-17)
(-2.29046 0.0529068 -1.37478e-17)
(-2.28693 0.0512367 0)
(-2.27699 0.0489529 -1.35225e-17)
(-2.26051 0.0460365 0)
(-2.23712 0.042919 -2.66021e-17)
(-2.20684 0.0395343 0)
(-2.17022 0.0358931 -2.61667e-17)
(-2.12709 0.0328501 0)
(-2.07849 0.0304521 2.57379e-17)
(-2.02522 0.0284745 0)
(-1.96733 0.0270199 0)
(-1.90545 0.0260029 0)
(-1.84109 0.0253704 -2.49008e-17)
(-1.77402 0.0250687 0)
(-1.70585 0.0249971 2.4499e-17)
(-1.63669 0.0256178 0)
(-1.5673 0.0267105 -2.41097e-17)
(-1.49959 0.0292346 -2.39211e-17)
(-1.43272 0.0303737 -2.37368e-17)
(-1.36574 0.0314328 0)
(-1.30051 0.031458 0)
(-1.23579 0.0326023 0)
(-1.1697 0.0333012 0)
(-1.10441 0.0328041 0)
(-1.03416 0.0317059 0)
(-0.965029 0.0330653 0)
(-0.89376 0.0327374 0)
(-0.826365 0.0351922 2.22128e-17)
(-0.758647 0.0356923 2.20606e-17)
(-0.695875 0.0400201 0)
(-0.63488 0.0413163 0)
(-0.57923 0.0410338 0)
(-0.511567 0.0383589 2.14801e-17)
(-0.449366 0.0426097 0)
(-0.380844 0.0408983 0)
(-0.316154 0.0437881 0)
(-0.245743 0.040833 0)
(-0.1735 0.0433902 -2.08057e-17)
(-0.0994451 0.0451225 0)
(-0.020099 0.04417 0)
(0.0640695 0.045537 2.04287e-17)
(0.151994 0.0452528 -2.03072e-17)
(0.243621 0.0444538 0)
(0.339912 0.04827 -2.00746e-17)
(0.431617 0.0511588 0)
(0.524541 0.0543045 1.98483e-17)
(0.607368 0.0590763 0)
(0.678931 0.0620474 0)
(0.754471 0.0623947 0)
(0.823752 0.0631812 0)
(0.903267 0.0603937 0)
(0.976625 0.0609744 -3.83969e-17)
(1.0521 0.0626958 -3.81779e-17)
(1.11165 0.0676306 0)
(1.1617 0.066367 0)
(1.20699 0.0673412 0)
(1.24501 0.0633586 3.72532e-17)
(1.29412 0.0586782 0)
(1.34446 0.0570777 0)
(1.39008 0.055927 0)
(1.43878 0.0540957 3.6233e-17)
(1.47582 0.0567778 -3.59649e-17)
(1.5188 0.0526858 0)
(1.55792 0.0527072 0)
(1.59942 0.053172 -3.51502e-17)
(1.62552 0.0582902 -3.48774e-17)
(1.6554 0.0549841 0)
(1.68369 0.0587767 0)
(1.72266 0.0557535 3.40445e-17)
(1.75896 0.0659939 -3.37651e-17)
(1.76717 0.0713982 0)
(1.78076 0.0707671 0)
(1.80625 0.0710799 -3.29284e-17)
(1.83974 0.0757912 0)
(1.85368 0.0833072 0)
(1.86557 0.089051 -3.20844e-17)
(1.86541 0.0930985 0)
(1.88013 0.09795 -3.15244e-17)
(1.88259 0.104947 0)
(1.88872 0.109058 0)
(1.87635 0.120656 0)
(1.86344 0.126496 3.04348e-17)
(1.84917 0.132868 0)
(1.81777 0.142831 0)
(1.7457 0.154603 0)
(1.66916 0.154636 0)
(1.60327 0.156989 0)
(1.51295 0.165791 0)
(1.38424 0.172529 2.88927e-17)
(1.26527 0.173811 2.87387e-17)
(1.08121 0.181835 0)
(0.874266 0.184543 0)
(0.631062 0.183516 0)
(0.415488 0.16973 -2.83211e-17)
(0.19372 0.162767 0)
(0.0417663 0.146621 5.63471e-17)
(-0.159192 0.144062 -5.62375e-17)
(-0.262607 0.123723 -5.60584e-17)
(-0.423967 0.126808 5.59544e-17)
(-0.459299 0.0966716 -5.57519e-17)
(-0.616919 0.129173 5.5732e-17)
(-0.564528 -0.00401812 0)
(0.0101273 0.248899 0)
(0.0145476 0.192262 0)
(0.0495569 0.00811054 -2.27958e-17)
(0.120781 -0.197955 0)
(0.235578 -0.38397 2.23645e-17)
(0.387783 -0.535443 2.22179e-17)
(0.568828 -0.644398 1.10436e-17)
(0.768607 -0.710389 1.09812e-17)
(0.975784 -0.737028 0)
(1.17983 -0.730747 1.08541e-17)
(1.37208 -0.694876 0)
(1.54526 -0.636538 0)
(1.6954 -0.561859 -2.13199e-17)
(1.81778 -0.477388 -1.05948e-17)
(1.91231 -0.385486 2.10555e-17)
(1.97723 -0.291006 2.0922e-17)
(2.0139 -0.198713 1.03954e-17)
(2.02243 -0.110677 0)
(2.00523 -0.0276997 0)
(1.96231 0.0469682 0)
(1.89754 0.112346 1.01365e-17)
(1.811 0.171327 0)
(1.70735 0.224073 -3.00369e-17)
(1.58538 0.266737 0)
(1.44741 0.30156 0)
(1.29394 0.332012 -9.83172e-18)
(1.12846 0.355905 0)
(0.953704 0.373143 9.71538e-18)
(0.773529 0.384179 1.93124e-17)
(0.588818 0.391462 -9.5974e-18)
(0.402348 0.393597 0)
(0.215375 0.389857 0)
(0.0275757 0.382643 0)
(-0.16056 0.375755 1.87308e-17)
(-0.347278 0.36724 1.86164e-17)
(-0.531276 0.355034 9.25119e-18)
(-0.709811 0.340335 0)
(-0.883398 0.323313 -1.82761e-17)
(-1.04811 0.302816 0)
(-1.20622 0.280952 1.80506e-17)
(-1.3561 0.258498 0)
(-1.49943 0.235699 0)
(-1.63463 0.215323 -1.77165e-17)
(-1.76265 0.196256 0)
(-1.88594 0.178346 -5.24861e-17)
(-2.00356 0.159613 1.73855e-17)
(-2.1146 0.140738 0)
(-2.21867 0.123909 1.71654e-17)
(-2.3166 0.106362 1.70551e-17)
(-2.40716 0.0868944 0)
(-2.48851 0.0680031 0)
(-2.56275 0.0534906 0)
(-2.63176 0.0440352 0)
(-2.69747 0.0391661 0)
(-2.75933 0.0377483 -1.63736e-17)
(-2.81929 0.0372188 -3.2515e-17)
(-2.87772 0.0372641 1.61413e-17)
(-2.93174 0.0346477 0)
(-2.98346 0.0306886 -3.18128e-17)
(-3.03304 0.029361 1.57874e-17)
(-3.07979 0.0303569 0)
(-3.12756 0.0312795 1.55498e-17)
(-3.17313 0.033943 0)
(-3.2167 0.0353242 0)
(-3.25864 0.0348503 3.03752e-17)
(-3.29957 0.034195 -1.50673e-17)
(-3.33598 0.0321125 2.98916e-17)
(-3.36983 0.0293043 -2.96503e-17)
(-3.39766 0.0255529 -1.47045e-17)
(-3.42227 0.0206639 0)
(-3.44047 0.0130341 -1.44628e-17)
(-3.4519 0.00278374 0)
(-3.45762 -0.00798477 0)
(-3.45488 -0.0205325 0)
(-3.44291 -0.0347766 -1.39828e-17)
(-3.42269 -0.0487595 0)
(-3.39598 -0.0588362 -2.74947e-17)
(-3.36353 -0.065886 4.08936e-17)
(-3.32576 -0.074336 1.35161e-17)
(-3.28173 -0.0853363 0)
(-3.22986 -0.0980091 1.32876e-17)
(-3.17278 -0.110623 0)
(-3.11009 -0.12261 2.61237e-17)
(-3.04226 -0.133535 0)
(-2.96948 -0.143911 2.56807e-17)
(-2.89166 -0.153176 -5.09216e-17)
(-2.80996 -0.162012 -2.52469e-17)
(-2.7259 -0.170002 0)
(-2.63672 -0.177645 0)
(-2.54527 -0.183416 0)
(-2.45148 -0.187691 2.4407e-17)
(-2.35436 -0.19182 0)
(-2.25593 -0.194553 -2.40007e-17)
(-2.15746 -0.194938 0)
(-2.05841 -0.19651 7.08209e-17)
(-1.95946 -0.195839 2.34168e-17)
(-1.85993 -0.196807 2.32308e-17)
(-1.7625 -0.194009 0)
(-1.66746 -0.193556 0)
(-1.57177 -0.194668 0)
(-1.4735 -0.195476 0)
(-1.37623 -0.197908 0)
(-1.27328 -0.202153 4.43214e-17)
(-1.17664 -0.200223 4.39854e-17)
(-1.07658 -0.200303 0)
(-0.988738 -0.194745 -2.16747e-17)
(-0.892004 -0.195711 -2.15226e-17)
(-0.804763 -0.188784 0)
(-0.710073 -0.187391 -4.24422e-17)
(-0.631861 -0.186476 0)
(-0.535793 -0.196705 2.09369e-17)
(-0.450199 -0.190548 0)
(-0.344913 -0.198784 0)
(-0.250612 -0.195433 -4.10562e-17)
(-0.13796 -0.203843 0)
(-0.0342959 -0.203757 2.02714e-17)
(0.0902217 -0.211143 0)
(0.215723 -0.218946 0)
(0.351244 -0.223427 1.98863e-17)
(0.4913 -0.228575 1.977e-17)
(0.636724 -0.234469 0)
(0.785956 -0.23528 -1.95328e-17)
(0.94562 -0.236664 0)
(1.10466 -0.228854 1.92963e-17)
(1.26986 -0.219063 3.83626e-17)
(1.41731 -0.212689 0)
(1.57422 -0.213637 0)
(1.71879 -0.213569 0)
(1.8781 -0.214937 0)
(2.02421 -0.209945 3.72311e-17)
(2.17806 -0.20664 1.11009e-16)
(2.31378 -0.187433 0)
(2.43722 -0.182993 0)
(2.55632 -0.173052 0)
(2.66195 -0.175186 -3.60811e-17)
(2.76522 -0.179797 0)
(2.86694 -0.179024 0)
(2.96265 -0.177212 7.06183e-17)
(3.05661 -0.176303 3.50348e-17)
(3.1304 -0.170193 3.47659e-17)
(3.2175 -0.179591 0)
(3.28134 -0.173633 0)
(3.3495 -0.175016 3.39218e-17)
(3.39563 -0.164 -3.36162e-17)
(3.44162 -0.178113 0)
(3.47088 -0.174717 0)
(3.50531 -0.190868 -3.27237e-17)
(3.53338 -0.173019 9.7195e-17)
(3.54816 -0.168792 0)
(3.55903 -0.179769 0)
(3.57084 -0.191567 3.14624e-17)
(3.59196 -0.189544 0)
(3.58839 -0.183181 6.16314e-17)
(3.58718 -0.181369 -3.04746e-17)
(3.56077 -0.185749 0)
(3.55739 -0.19467 2.98486e-17)
(3.53375 -0.191082 5.90621e-17)
(3.52273 -0.192612 0)
(3.4768 -0.185858 0)
(3.4536 -0.19479 -2.85771e-17)
(3.41396 -0.18685 0)
(3.35715 -0.169395 5.58914e-17)
(3.26039 -0.150089 0)
(3.16876 -0.155029 0)
(3.04879 -0.146405 0)
(2.92012 -0.12134 0)
(2.7246 -0.102317 -2.66531e-17)
(2.56564 -0.075726 -2.64639e-17)
(2.28119 -0.0262538 0)
(2.00805 -0.00143795 0)
(1.67826 0.0227718 0)
(1.38344 0.0187113 2.59585e-17)
(1.05019 0.0233281 0)
(0.842797 0.0142813 -5.16688e-17)
(0.52176 0.0333666 5.16415e-17)
(0.406597 0.00120556 5.14932e-17)
(0.125622 0.0320857 5.14836e-17)
(0.125643 -0.0157984 5.13308e-17)
(-0.170758 0.0788316 5.14947e-17)
(0.0160758 -0.117298 0)
(0.0290363 0.0712676 0)
(0.12099 -0.0379533 0)
(0.22787 -0.240969 2.29126e-17)
(0.339817 -0.467748 2.26642e-17)
(0.474137 -0.692338 -2.25128e-17)
(0.618145 -0.874309 -2.24002e-17)
(0.772246 -1.00304 -1.4824e-21)
(0.923425 -1.07336 0)
(1.06841 -1.08418 0)
(1.19508 -1.04505 0)
(1.30372 -0.965274 0)
(1.38955 -0.856069 0)
(1.455 -0.725622 6.4712e-17)
(1.49557 -0.585437 0)
(1.51408 -0.440654 -2.13049e-17)
(1.50875 -0.29428 -2.11686e-17)
(1.48248 -0.152986 0)
(1.43387 -0.019636 0)
(1.36755 0.104058 0)
(1.28326 0.216359 0)
(1.1833 0.315539 -2.05025e-17)
(1.06848 0.398434 0)
(0.94383 0.470684 2.02485e-17)
(0.80659 0.535708 0)
(0.659646 0.59048 0)
(0.504357 0.635324 0)
(0.346142 0.671204 3.9525e-17)
(0.183977 0.698354 0)
(0.0203715 0.717733 -1.95223e-17)
(-0.14423 0.728094 3.87999e-17)
(-0.308098 0.731255 0)
(-0.474238 0.733003 0)
(-0.640583 0.730033 0)
(-0.805741 0.720587 -1.89165e-17)
(-0.967295 0.705395 -1.87957e-17)
(-1.12565 0.683958 0)
(-1.27923 0.656715 0)
(-1.42724 0.625263 3.68589e-17)
(-1.56831 0.591281 3.66192e-17)
(-1.70766 0.556994 -3.6381e-17)
(-1.84201 0.52433 0)
(-1.97458 0.490877 0)
(-2.10155 0.458764 0)
(-2.22483 0.429456 0)
(-2.34392 0.401834 3.52002e-17)
(-2.457 0.372632 3.49665e-17)
(-2.56495 0.343043 -3.47345e-17)
(-2.66731 0.314558 0)
(-2.7636 0.286703 0)
(-2.85458 0.257734 0)
(-2.94023 0.23093 0)
(-3.02592 0.213153 3.35753e-17)
(-3.10568 0.19728 0)
(-3.1804 0.184101 0)
(-3.24862 0.176334 3.28777e-17)
(-3.31217 0.171174 3.26461e-17)
(-3.37036 0.164311 0)
(-3.42093 0.154939 -6.43591e-17)
(-3.46957 0.148063 3.19482e-17)
(-3.51426 0.141655 -3.17138e-17)
(-3.55319 0.137927 0)
(-3.58921 0.135239 0)
(-3.61921 0.131038 0)
(-3.64432 0.12678 0)
(-3.66687 0.121557 -3.05524e-17)
(-3.68512 0.114155 -6.06457e-17)
(-3.69712 0.10616 -3.00972e-17)
(-3.70534 0.0976322 2.98723e-17)
(-3.70632 0.0859502 0)
(-3.70218 0.0726279 -5.88391e-17)
(-3.69005 0.0564647 -5.83907e-17)
(-3.67263 0.0401945 -5.79457e-17)
(-3.65096 0.0223071 5.75039e-17)
(-3.62046 -8.26e-05 0)
(-3.58299 -0.022852 8.49403e-17)
(-3.53962 -0.0423213 0)
(-3.49151 -0.0576557 -2.78772e-17)
(-3.43486 -0.071291 -2.76642e-17)
(-3.37028 -0.0867955 0)
(-3.2995 -0.103467 0)
(-3.22526 -0.120039 -5.40402e-17)
(-3.14885 -0.134734 0)
(-3.06845 -0.148836 -5.31931e-17)
(-2.98549 -0.162361 0)
(-2.89797 -0.176575 5.23544e-17)
(-2.80695 -0.187827 1.03881e-16)
(-2.71221 -0.197502 0)
(-2.61663 -0.206778 0)
(-2.51795 -0.214448 0)
(-2.42052 -0.220911 5.02917e-17)
(-2.32121 -0.226947 0)
(-2.21857 -0.231845 4.94701e-17)
(-2.11297 -0.235292 0)
(-2.00687 -0.234586 0)
(-1.89833 -0.23471 -9.65072e-17)
(-1.79259 -0.232278 0)
(-1.68491 -0.231749 -4.74622e-17)
(-1.58145 -0.22574 0)
(-1.47372 -0.226606 -4.66941e-17)
(-1.36682 -0.226016 0)
(-1.2577 -0.225287 0)
(-1.14992 -0.229177 0)
(-1.03914 -0.231533 -1.35692e-16)
(-0.938585 -0.223179 -4.4869e-17)
(-0.829043 -0.219934 0)
(-0.735485 -0.209436 0)
(-0.633477 -0.21066 0)
(-0.547962 -0.198059 0)
(-0.443832 -0.193936 4.3234e-17)
(-0.358025 -0.188444 -8.58325e-17)
(-0.25145 -0.205093 -4.2631e-17)
(-0.164349 -0.197207 8.46541e-17)
(-0.0448767 -0.213015 8.40909e-17)
(0.0566718 -0.209132 4.17596e-17)
(0.186273 -0.223903 0)
(0.298717 -0.224365 8.23932e-17)
(0.437141 -0.23987 0)
(0.568691 -0.249137 -8.12819e-17)
(0.716496 -0.256031 -4.0383e-17)
(0.862146 -0.261419 0)
(1.01675 -0.270149 7.97607e-17)
(1.16549 -0.273312 3.96271e-17)
(1.32744 -0.281553 0)
(1.48559 -0.279923 3.90892e-17)
(1.65955 -0.269104 -1.16506e-16)
(1.81825 -0.256863 0)
(1.98255 -0.255736 0)
(2.13399 -0.255243 0)
(2.29384 -0.258311 0)
(2.44969 -0.253671 -7.51551e-17)
(2.60504 -0.250628 -7.46567e-17)
(2.75577 -0.219533 0)
(2.89336 -0.21423 0)
(3.02433 -0.202089 0)
(3.14606 -0.200742 0)
(3.25335 -0.205807 0)
(3.37314 -0.208649 0)
(3.48658 -0.207673 -7.09554e-17)
(3.60027 -0.205113 -1.65046e-20)
(3.69372 -0.195742 0)
(3.80393 -0.208987 0)
(3.89191 -0.196602 -6.86105e-17)
(3.98506 -0.197308 0)
(4.06332 -0.176423 6.74299e-17)
(4.13337 -0.187357 6.68129e-17)
(4.17471 -0.170026 0)
(4.2295 -0.188606 0)
(4.26785 -0.164669 -6.49048e-17)
(4.31862 -0.156093 -1.2852e-16)
(4.34651 -0.160464 0)
(4.38024 -0.172793 0)
(4.42239 -0.163894 0)
(4.43657 -0.14973 -6.16976e-17)
(4.4658 -0.136607 6.10099e-17)
(4.46615 -0.136273 0)
(4.48633 -0.142302 1.19385e-16)
(4.47075 -0.130254 5.90383e-17)
(4.48811 -0.128737 -1.16783e-16)
(4.46636 -0.110325 0)
(4.46575 -0.117312 0)
(4.43591 -0.0960786 -1.12763e-16)
(4.39585 -0.0680987 -5.57211e-17)
(4.31211 -0.0384728 0)
(4.24874 -0.0359521 0)
(4.11603 -0.0173864 0)
(4.00609 0.0254056 0)
(3.79354 0.0529511 -1.0559e-16)
(3.62468 0.0959938 0)
(3.32654 0.167296 0)
(3.06761 0.192 0)
(2.71719 0.219759 0)
(2.40315 0.202716 0)
(2.01425 0.187098 0)
(1.77691 0.154119 -1.00636e-16)
(1.37143 0.15175 0)
(1.24186 0.0831965 0)
(0.857882 0.105425 -1.99414e-16)
(0.853091 0.0229083 9.9246e-17)
(0.467633 0.11145 -9.94011e-17)
(0.663208 -0.128473 9.87819e-17)
(0.0206167 -0.0938521 0)
(0.124875 -0.268684 -4.69555e-17)
(0.247483 -0.489046 0)
(0.375275 -0.75451 -2.27966e-17)
(0.501773 -0.998193 0)
(0.617681 -1.18704 0)
(0.722056 -1.3046 2.24456e-17)
(0.802426 -1.3478 0)
(0.865003 -1.31796 0)
(0.903921 -1.23218 0)
(0.925679 -1.10942 0)
(0.92813 -0.960208 0)
(0.91615 -0.793131 -8.66153e-17)
(0.887134 -0.616092 -4.30249e-17)
(0.844565 -0.433497 4.27454e-17)
(0.788156 -0.252634 0)
(0.719965 -0.0801727 0)
(0.638614 0.0809797 0)
(0.547583 0.229436 0)
(0.446351 0.362537 0)
(0.337697 0.479881 -4.11506e-17)
(0.219798 0.581595 -4.0898e-17)
(0.0939734 0.672226 4.06488e-17)
(-0.0376309 0.748197 -4.04011e-17)
(-0.173356 0.810915 0)
(-0.311841 0.858964 0)
(-0.451839 0.894963 -3.96579e-17)
(-0.592194 0.919665 0)
(-0.733473 0.933807 0)
(-0.875302 0.942444 -3.89248e-17)
(-1.01772 0.947968 -3.86816e-17)
(-1.158 0.945733 -3.84371e-17)
(-1.29521 0.936726 0)
(-1.42919 0.921532 0)
(-1.55861 0.900155 3.76935e-17)
(-1.68305 0.870614 0)
(-1.80357 0.835183 0)
(-1.9205 0.795829 -3.69487e-17)
(-2.03447 0.75797 3.66971e-17)
(-2.14691 0.720016 -3.64483e-17)
(-2.25293 0.681427 0)
(-2.35731 0.64221 0)
(-2.45768 0.606035 -7.14191e-17)
(-2.55531 0.571943 0)
(-2.64762 0.533946 -7.04532e-17)
(-2.73647 0.495943 -1.04963e-16)
(-2.82168 0.460162 1.04242e-16)
(-2.9016 0.423896 -6.90142e-17)
(-2.97832 0.386663 0)
(-3.05245 0.351043 0)
(-3.12614 0.322876 -6.76017e-17)
(-3.19706 0.298363 -3.35703e-17)
(-3.26162 0.272784 0)
(-3.32199 0.251723 0)
(-3.37777 0.236403 -3.28782e-17)
(-3.42812 0.219557 -6.52965e-17)
(-3.47224 0.200624 0)
(-3.5104 0.182699 6.43786e-17)
(-3.54471 0.168323 -6.39195e-17)
(-3.57366 0.15477 6.34637e-17)
(-3.59686 0.140962 0)
(-3.61382 0.127723 0)
(-3.6264 0.116529 0)
(-3.63364 0.105295 0)
(-3.63725 0.0951207 0)
(-3.63543 0.0792302 6.07739e-17)
(-3.62926 0.0619251 0)
(-3.61641 0.0430684 0)
(-3.59773 0.0218511 0)
(-3.57491 -0.00024166 1.18046e-16)
(-3.54657 -0.0243356 5.85908e-17)
(-3.51348 -0.0484616 5.81572e-17)
(-3.4754 -0.0756012 -1.15456e-16)
(-3.43094 -0.107159 5.73031e-17)
(-3.38304 -0.137349 -5.68837e-17)
(-3.32891 -0.16491 0)
(-3.26985 -0.190787 5.60366e-17)
(-3.20087 -0.217367 0)
(-3.12775 -0.242523 0)
(-3.04904 -0.264362 0)
(-2.96885 -0.285047 1.08717e-16)
(-2.8865 -0.304098 -5.39454e-17)
(-2.80084 -0.323059 -5.3532e-17)
(-2.71396 -0.341837 -1.06269e-16)
(-2.62305 -0.361623 -1.58214e-16)
(-2.53117 -0.377389 -5.2343e-17)
(-2.43446 -0.390291 0)
(-2.33813 -0.401882 -1.0307e-16)
(-2.2402 -0.410177 0)
(-2.14236 -0.416813 -1.52206e-16)
(-2.04368 -0.427049 0)
(-1.94613 -0.433701 -1.49834e-16)
(-1.8424 -0.440249 0)
(-1.73816 -0.441046 0)
(-1.62904 -0.442697 -4.87477e-17)
(-1.52137 -0.439469 0)
(-1.41034 -0.439046 4.79729e-17)
(-1.30411 -0.434449 9.51576e-17)
(-1.19001 -0.436284 4.72041e-17)
(-1.07991 -0.438267 9.36506e-17)
(-0.961318 -0.43897 -9.28936e-17)