/*--------------------------------*- C++ -*----------------------------------*\
| =========                 |                                                 |
| \\      /  F ield         | OpenFOAM: The Open Source CFD Toolbox           |
|  \\    /   O peration     | Version:  dev                                   |
|   \\  /    A nd           | Web:      http://www.openfoam.org               |
|    \\/     M anipulation  |                                                 |
\*---------------------------------------------------------------------------*/
FoamFile
{
    version     2.0;
    format      ascii;
    class       volSymmTensorField;
    object      UPrime2Mean;
    location    "9.13";
}
// * * * * * * * * * * * * * * * * * * * * * * * * * * * * * * * * * * * * * //

dimensions      [0 2 -2 0 0 0 0];

internalField   nonuniform List<symmTensor> 
12225
(
(0.329233 0.0192853 0 0.0692941 0 0)
(2.98592 0.0797289 0 0.0782219 0 0)
(7.87968 0.112367 0 0.0769239 0 0)
(14.5329 0.148302 0 0.0755983 0 0)
(22.7003 0.133104 0 0.076542 0 0)
(32.0629 0.201205 0 0.0746968 0 0)
(42.3734 0.0961373 0 0.0766349 0 0)
(53.5145 0.200584 0 0.0738733 0 0)
(65.6055 -0.02815 0 0.0776299 0 0)
(78.1988 0.125985 0 0.073639 0 0)
(92.9419 -0.305778 0 0.0813222 0 0)
(107.279 -0.115288 0 0.0770098 0 0)
(127.882 -0.671644 0 0.0863069 0 0)
(145.587 -1.2768 0 0.134733 0 0)
(185.886 -1.40882 0 0.116377 0 0)
(198.471 -0.393336 0 2.3918 0 0)
(272.228 -33.5232 0 5.80645 0 0)
(575.675 -52.9072 0 18.8083 0 0)
(0.377388 0.0568538 0 0.689251 0 0)
(3.15578 0.252357 0 0.732571 0 0)
(8.40997 0.362298 0 0.714419 0 0)
(15.4714 0.485664 0 0.70691 0 0)
(24.1941 0.453389 0 0.70376 0 0)
(34.4503 0.633276 0 0.683596 0 0)
(45.5159 0.296745 0 0.692359 0 0)
(58.466 0.609866 0 0.659045 0 0)
(71.4548 -0.134076 0 0.682853 0 0)
(87.1209 0.284096 0 0.646198 0 0)
(102.753 -1.0634 0 0.711436 0 0)
(121.385 -0.763804 0 0.6556 0 0)
(142.8 -2.54096 0 1.0688 0 0)
(166.266 -4.48881 0 1.04652 0 0)
(199.694 -0.926559 0 3.09916 0 0)
(274.277 -9.97631 0 6.59992 0 0)
(280.949 -20.8173 0 8.7354 0 0)
(799.614 -185.118 0 64.6823 0 0)
(0.504982 0.0584266 0 2.14146 0 0)
(3.06374 0.424861 0 2.20343 0 0)
(8.46501 0.570803 0 2.15232 0 0)
(14.8505 0.852435 0 2.1438 0 0)
(24.2723 0.865247 0 2.12067 0 0)
(33.1439 1.05396 0 2.08347 0 0)
(45.2625 0.757542 0 2.07915 0 0)
(56.1874 0.887853 0 2.00837 0 0)
(69.67 0.174279 0 2.05243 0 0)
(83.4214 0.0195013 0 1.96002 0 0)
(98.1602 -1.12012 0 2.12316 0 0)
(115.622 -2.44346 0 2.09474 0 0)
(138.579 -3.59176 0 2.62233 0 0)
(154.821 -7.19306 0 2.83036 0 0)
(210.942 -12.9969 0 6.11516 0 0)
(223.301 -7.88893 0 6.37002 0 0)
(352.869 -62.2281 0 31.0723 0 0)
(534.33 -192.367 0 98.1591 0 0)
(1.0298 0.0924965 0 4.6724 0 0)
(3.54931 0.619818 0 4.76903 0 0)
(9.06806 0.816282 0 4.64476 0 0)
(15.0643 1.15072 0 4.604 0 0)
(24.633 1.31402 0 4.55966 0 0)
(32.9775 1.35117 0 4.48529 0 0)
(44.9972 1.2634 0 4.45023 0 0)
(55.155 0.975636 0 4.35161 0 0)
(68.5857 0.478995 0 4.3833 0 0)
(80.692 -0.279224 0 4.2594 0 0)
(96.0121 -1.32618 0 4.50862 0 0)
(110.482 -3.33618 0 4.37323 0 0)
(131.44 -4.78745 0 5.30213 0 0)
(152.195 -10.9614 0 5.60654 0 0)
(187.82 -11.4208 0 9.2805 0 0)
(238.323 -28.8411 0 16.8145 0 0)
(291.316 -58.8635 0 32.6646 0 0)
(414.719 -178.236 0 107.791 0 0)
(1.86336 0.365274 0 8.52628 0 0)
(5.00826 0.720356 0 8.72784 0 0)
(9.43449 1.14079 0 8.47658 0 0)
(16.2391 1.29541 0 8.37341 0 0)
(24.6433 1.70231 0 8.28371 0 0)
(33.9398 1.50403 0 8.14857 0 0)
(44.8093 1.60039 0 8.04777 0 0)
(55.5097 0.995643 0 7.9155 0 0)
(68.3968 0.604399 0 7.86236 0 0)
(80.1004 -0.58939 0 7.76407 0 0)
(95.3443 -1.77308 0 7.96551 0 0)
(108.526 -4.22043 0 7.91199 0 0)
(128.06 -6.87066 0 9.02778 0 0)
(145.178 -12.2795 0 9.26879 0 0)
(173.904 -19.185 0 14.5843 0 0)
(217.851 -25.9358 0 17.2071 0 0)
(233.54 -55.5271 0 46.2707 0 0)
(326.601 -171.685 0 138.638 0 0)
(2.56025 0.750792 0 14.0458 0 0)
(6.32238 0.806912 0 14.3977 0 0)
(9.29533 1.54082 0 13.9677 0 0)
(17.0932 1.59536 0 13.7728 0 0)
(24.1322 2.1223 0 13.598 0 0)
(34.2594 1.93856 0 13.3657 0 0)
(43.9625 1.99403 0 13.1604 0 0)
(55.1587 1.41891 0 12.9191 0 0)
(67.3078 0.899271 0 12.7821 0 0)
(78.8887 -0.380303 0 12.5805 0 0)
(94.3966 -1.73152 0 12.7801 0 0)
(105.799 -4.30415 0 12.6878 0 0)
(128.073 -7.25783 0 13.9884 0 0)
(137.894 -13.145 0 14.6664 0 0)
(170.908 -21.8262 0 21.244 0 0)
(191.427 -33.019 0 24.592 0 0)
(210.995 -55.8685 0 51.5705 0 0)
(265.601 -145.626 0 130.639 0 0)
(2.24122 0.721831 0 21.5414 0 0)
(5.53899 0.940664 0 22.1574 0 0)
(9.1955 1.76464 0 21.383 0 0)
(16.3354 2.07859 0 21.1951 0 0)
(23.9674 2.4519 0 20.7963 0 0)
(33.3567 2.54502 0 20.5629 0 0)
(43.6023 2.27774 0 20.0941 0 0)
(54.0371 1.9319 0 19.8638 0 0)
(66.4691 0.902491 0 19.4452 0 0)
(77.3424 -0.212873 0 19.2921 0 0)
(92.4911 -2.36417 0 19.231 0 0)
(103.471 -4.81542 0 19.2734 0 0)
(123.601 -8.97069 0 20.4805 0 0)
(133.886 -14.2491 0 21.4577 0 0)
(161.478 -24.3879 0 28.5147 0 0)
(169.309 -32.3888 0 32.0488 0 0)
(203.342 -58.9819 0 56.8583 0 0)
(190.159 -108.718 0 114.127 0 0)
(1.42022 0.598716 0 29.7667 0 0)
(4.31586 1.13438 0 30.6524 0 0)
(8.57753 1.9249 0 29.5047 0 0)
(15.2463 2.47395 0 29.3334 0 0)
(23.1994 2.77939 0 28.6878 0 0)
(32.2579 2.96571 0 28.4266 0 0)
(42.4085 2.60162 0 27.6744 0 0)
(52.7768 2.19499 0 27.3935 0 0)
(64.4106 1.01232 0 26.6689 0 0)
(75.596 -0.357575 0 26.5033 0 0)
(88.6189 -2.74514 0 26.1185 0 0)
(100.406 -5.72697 0 26.3426 0 0)
(115.503 -10.3114 0 27.0959 0 0)
(128.043 -15.7874 0 28.6098 0 0)
(144.595 -26.4748 0 33.9173 0 0)
(151.974 -33.4393 0 37.4806 0 0)
(180.276 -54.8599 0 53.1731 0 0)
(139.511 -71.2551 0 83.6831 0 0)
(1.00139 0.521203 0 38.5414 0 0)
(3.77057 1.28748 0 39.7362 0 0)
(8.17202 2.03658 0 38.1982 0 0)
(14.7212 2.78091 0 38.0569 0 0)
(22.6407 3.00757 0 37.1466 0 0)
(31.5778 3.31819 0 36.8714 0 0)
(41.4895 2.80822 0 35.8196 0 0)
(51.762 2.47705 0 35.5008 0 0)
(62.8094 1.04328 0 34.4909 0 0)
(73.8255 -0.275799 0 34.2907 0 0)
(85.6316 -3.03924 0 33.6582 0 0)
(96.9923 -5.89563 0 33.9175 0 0)
(109.303 -10.9385 0 34.4233 0 0)
(121.182 -16.0267 0 36.142 0 0)
(131.17 -25.5459 0 40.0178 0 0)
(138.099 -33.1857 0 44.7491 0 0)
(149.922 -47.2841 0 52.4615 0 0)
(123.163 -58.7095 0 73.1187 0 0)
(0.606864 0.484545 0 49.7325 0 0)
(3.22936 1.44628 0 51.3214 0 0)
(7.736 2.18745 0 49.2237 0 0)
(14.1923 3.03756 0 49.1364 0 0)
(21.9835 3.27547 0 47.8465 0 0)
(30.8401 3.58208 0 47.5672 0 0)
(40.4599 3.06809 0 46.1049 0 0)
(50.5925 2.64059 0 45.7361 0 0)
(61.1103 1.16606 0 44.3154 0 0)
(71.7758 -0.287877 0 44.0713 0 0)
(82.6501 -3.13603 0 43.0253 0 0)
(93.1904 -6.03095 0 43.3435 0 0)
(103.821 -11.0838 0 43.3405 0 0)
(113.685 -15.8326 0 45.1963 0 0)
(121.284 -24.4889 0 47.694 0 0)
(125.723 -30.5479 0 51.9637 0 0)
(129.05 -40.6867 0 56.478 0 0)
(115.976 -48.3547 0 69.0377 0 0)
(0.432501 0.516366 0 63.9326 0 0)
(2.97661 1.62837 0 65.9886 0 0)
(7.46692 2.38473 0 63.2955 0 0)
(13.8408 3.31241 0 63.1839 0 0)
(21.4845 3.57198 0 61.5491 0 0)
(30.1793 3.86219 0 61.1345 0 0)
(39.5337 3.35927 0 59.3254 0 0)
(49.368 2.82205 0 58.7303 0 0)
(59.432 1.37315 0 57.008 0 0)
(69.5306 -0.263149 0 56.4897 0 0)
(79.6194 -2.9769 0 55.1849 0 0)
(89.1501 -6.0754 0 55.2397 0 0)
(98.46 -10.5451 0 54.8906 0 0)
(106.334 -15.4054 0 56.4368 0 0)
(112.493 -22.1159 0 57.876 0 0)
(115.027 -28.0286 0 61.6045 0 0)
(115.97 -35.1692 0 64.5659 0 0)
(109.527 -40.7635 0 71.4586 0 0)
(0.355897 0.540857 0 81.4329 0 0)
(2.83029 1.746 0 84.1196 0 0)
(7.25926 2.55623 0 80.6501 0 0)
(13.5115 3.50344 0 80.5411 0 0)
(20.9815 3.81118 0 78.4536 0 0)
(29.4561 4.03939 0 77.9004 0 0)
(38.5086 3.56327 0 75.6098 0 0)
(47.9731 2.92239 0 74.7847 0 0)
(57.5205 1.48433 0 72.591 0 0)
(67.0078 -0.218905 0 71.803 0 0)
(76.2144 -2.86751 0 70.0455 0 0)
(84.7952 -5.85104 0 69.7848 0 0)
(92.6951 -9.95322 0 68.9466 0 0)
(99.1208 -14.2794 0 69.8981 0 0)
(103.83 -19.7224 0 70.5373 0 0)
(105.775 -24.6329 0 73.039 0 0)
(105.929 -29.7944 0 74.9784 0 0)
(101.687 -33.2763 0 78.6295 0 0)
(0.32913 0.56936 0 102.519 0 0)
(2.73516 1.80771 0 105.731 0 0)
(7.06637 2.68431 0 101.703 0 0)
(13.1504 3.58508 0 101.234 0 0)
(20.4251 3.93537 0 98.9683 0 0)
(28.6048 4.05687 0 97.8884 0 0)
(37.3329 3.61752 0 95.3723 0 0)
(46.3276 2.83636 0 93.9221 0 0)
(55.3503 1.47745 0 91.4839 0 0)
(64.1252 -0.338334 0 90.0315 0 0)
(72.4982 -2.75474 0 88.0026 0 0)
(80.0829 -5.68409 0 87.0265 0 0)
(86.7991 -9.19203 0 85.8121 0 0)
(92.0566 -13.0789 0 85.8167 0 0)
(95.7552 -17.2941 0 85.7639 0 0)
(97.3392 -21.3585 0 86.9024 0 0)
(97.4415 -25.2004 0 87.9269 0 0)
(94.6395 -27.6535 0 89.5275 0 0)
(0.313578 0.573622 0 126.524 0 0)
(2.63992 1.77486 0 130.455 0 0)
(6.84565 2.6687 0 125.744 0 0)
(12.7263 3.46477 0 124.933 0 0)
(19.759 3.79309 0 122.401 0 0)
(27.6049 3.80776 0 120.824 0 0)
(35.9413 3.33498 0 117.939 0 0)
(44.4454 2.48901 0 115.905 0 0)
(52.8766 1.13526 0 113.042 0 0)
(60.9648 -0.626723 0 110.95 0 0)
(68.5084 -2.89321 0 108.457 0 0)
(75.2272 -5.5235 0 106.728 0 0)
(80.9609 -8.57681 0 104.957 0 0)
(85.4071 -11.7984 0 103.95 0 0)
(88.4502 -15.1591 0 103.115 0 0)
(89.887 -18.3249 0 102.938 0 0)
(90.1894 -21.2421 0 102.948 0 0)
(88.2277 -22.8873 0 103.097 0 0)
(0.29919 0.525152 0 151.951 0 0)
(2.53199 1.58246 0 156.455 0 0)
(6.58154 2.37853 0 151.323 0 0)
(12.2286 2.98924 0 149.884 0 0)
(18.9662 3.21337 0 147.324 0 0)
(26.4409 3.07209 0 145.01 0 0)
(34.3366 2.53253 0 141.919 0 0)
(42.3209 1.60144 0 139.111 0 0)
(50.1527 0.273247 0 135.91 0 0)
(57.5671 -1.43033 0 133.031 0 0)
(64.3754 -3.49067 0 130.077 0 0)
(70.3502 -5.82678 0 127.502 0 0)
(75.3609 -8.40206 0 125.096 0 0)
(79.2451 -11.0525 0 123.091 0 0)
(81.9414 -13.6889 0 121.374 0 0)
(83.3584 -16.1522 0 120.032 0 0)
(83.9409 -18.3495 0 118.94 0 0)
(82.7346 -19.3943 0 117.825 0 0)
(0.28389 0.394392 0 175.183 0 0)
(2.4136 1.146 0 180.386 0 0)
(6.28139 1.67126 0 174.775 0 0)
(11.667 2.00399 0 172.892 0 0)
(18.071 2.00173 0 170.209 0 0)
(25.1474 1.66555 0 167.357 0 0)
(32.5755 0.985708 0 163.968 0 0)
(40.0399 -0.0223564 0 160.57 0 0)
(47.2935 -1.3557 0 156.95 0 0)
(54.103 -2.96647 0 153.434 0 0)
(60.2908 -4.83355 0 149.944 0 0)
(65.6927 -6.86307 0 146.65 0 0)
(70.2039 -9.016 0 143.55 0 0)
(73.7513 -11.1626 0 140.692 0 0)
(76.3055 -13.2252 0 138.099 0 0)
(77.8308 -15.1237 0 135.77 0 0)
(78.7126 -16.7703 0 133.655 0 0)
(78.1644 -17.3669 0 131.453 0 0)
(0.268687 0.156494 0 190.3 0 0)
(2.29279 0.39126 0 195.977 0 0)
(5.96498 0.489357 0 190.079 0 0)
(11.0716 0.411111 0 187.936 0 0)
(17.1255 0.0748323 0 185.188 0 0)
(23.7944 -0.53312 0 182.017 0 0)
(30.761 -1.40177 0 178.436 0 0)
(37.73 -2.5234 0 174.681 0 0)
(44.4656 -3.87236 0 170.767 0 0)
(50.7615 -5.41154 0 166.846 0 0)
(56.4649 -7.09748 0 162.951 0 0)
(61.4544 -8.86509 0 159.169 0 0)
(65.6545 -10.66 0 155.531 0 0)
(69.0359 -12.4041 0 152.066 0 0)
(71.5915 -14.0216 0 148.797 0 0)
(73.3101 -15.4909 0 145.751 0 0)
(74.5047 -16.7265 0 142.856 0 0)
(74.5493 -17.0466 0 139.858 0 0)
(0.259043 -0.142551 0 190.273 0 0)
(2.19533 -0.534507 0 195.908 0 0)
(5.68847 -0.938046 0 190.073 0 0)
(10.539 -1.49327 0 187.921 0 0)
(16.2775 -2.21366 0 185.216 0 0)
(22.5863 -3.11595 0 182.051 0 0)
(29.1577 -4.18925 0 178.496 0 0)
(35.7189 -5.42784 0 174.744 0 0)
(42.0474 -6.80123 0 170.817 0 0)
(47.9658 -8.28083 0 166.863 0 0)
(53.3378 -9.81986 0 162.887 0 0)
(58.0755 -11.3759 0 158.998 0 0)
(62.1175 -12.8959 0 155.184 0 0)
(65.4579 -14.3368 0 151.518 0 0)
(68.0955 -15.6331 0 147.974 0 0)
(70.0357 -16.7922 0 144.634 0 0)
(71.5119 -17.7385 0 141.383 0 0)
(72.0457 -17.9425 0 138.051 0 0)
(0.255892 -0.396464 0 174.449 0 0)
(2.13622 -1.30684 0 179.403 0 0)
(5.49788 -2.12853 0 174.071 0 0)
(10.1586 -3.07715 0 172.078 0 0)
(15.6638 -4.10568 0 169.596 0 0)
(21.7087 -5.23485 0 166.705 0 0)
(27.9962 -6.45759 0 163.453 0 0)
(34.272 -7.77079 0 160.028 0 0)
(40.3261 -9.14599 0 156.421 0 0)
(46.0019 -10.5633 0 152.791 0 0)
(51.1743 -11.9809 0 149.105 0 0)
(55.7752 -13.3721 0 145.497 0 0)
(59.7511 -14.692 0 141.912 0 0)
(63.1062 -15.9176 0 138.459 0 0)
(65.8384 -16.9974 0 135.073 0 0)
(67.9653 -17.9465 0 131.87 0 0)
(69.656 -18.7038 0 128.713 0 0)
(70.5529 -18.8909 0 125.512 0 0)
(0.257358 -0.545657 0 149.003 0 0)
(2.1085 -1.74807 0 152.963 0 0)
(5.38358 -2.82377 0 148.425 0 0)
(9.91681 -4.00734 0 146.707 0 0)
(15.2654 -5.21113 0 144.585 0 0)
(21.1335 -6.46013 0 142.131 0 0)
(27.2334 -7.74634 0 139.366 0 0)
(33.3234 -9.07162 0 136.46 0 0)
(39.2036 -10.4086 0 133.387 0 0)
(44.7304 -11.7474 0 130.294 0 0)
(49.7887 -13.0496 0 127.137 0 0)
(54.3191 -14.3022 0 124.041 0 0)
(58.2756 -15.4659 0 120.945 0 0)
(61.6636 -16.5316 0 117.955 0 0)
(64.4823 -17.4557 0 115.005 0 0)
(66.7539 -18.2575 0 112.206 0 0)
(68.6035 -18.8863 0 109.432 0 0)
(69.7634 -19.0953 0 106.64 0 0)
(0.260238 -0.60143 0 120.089 0 0)
(2.09964 -1.89021 0 123.06 0 0)
(5.31766 -3.06836 0 119.411 0 0)
(9.76558 -4.3415 0 118.017 0 0)
(15.0094 -5.59986 0 116.31 0 0)
(20.76 -6.86956 0 114.345 0 0)
(26.7362 -8.14032 0 112.132 0 0)
(32.7056 -9.41751 0 109.804 0 0)
(38.4755 -10.6758 0 107.339 0 0)
(43.9108 -11.912 0 104.855 0 0)
(48.904 -13.0924 0 102.312 0 0)
(53.4005 -14.2124 0 99.8124 0 0)
(57.3592 -15.2378 0 97.3067 0 0)
(60.7848 -16.1683 0 94.8804 0 0)
(63.6775 -16.967 0 92.4812 0 0)
(66.0624 -17.6536 0 90.1968 0 0)
(68.0341 -18.1871 0 87.931 0 0)
(69.3927 -18.4224 0 85.6549 0 0)
(0.263183 -0.590624 0 91.9275 0 0)
(2.09933 -1.83039 0 94.0439 0 0)
(5.27998 -2.99722 0 91.2518 0 0)
(9.67109 -4.24774 0 90.178 0 0)
(14.8444 -5.46808 0 88.8784 0 0)
(20.5165 -6.68066 0 87.3831 0 0)
(26.4111 -7.87503 0 85.702 0 0)
(32.3016 -9.05619 0 83.9296 0 0)
(38.0015 -10.2034 0 82.0532 0 0)
(43.3806 -11.3155 0 80.1555 0 0)
(48.3373 -12.3654 0 78.214 0 0)
(52.8194 -13.3516 0 76.2988 0 0)
(56.7894 -14.2466 0 74.3801 0 0)
(60.2503 -15.0529 0 72.516 0 0)
(63.204 -15.7424 0 70.674 0 0)
(65.6775 -16.3301 0 68.9133 0 0)
(67.7435 -16.7868 0 67.1698 0 0)
(69.2549 -17.0361 0 65.4161 0 0)
(0.266269 -0.536799 0 66.9636 0 0)
(2.1032 -1.65113 0 68.4047 0 0)
(5.25873 -2.73107 0 66.3721 0 0)
(9.61215 -3.88403 0 65.5891 0 0)
(14.7382 -5.00366 0 64.6506 0 0)
(20.358 -6.10583 0 63.5685 0 0)
(26.1991 -7.18251 0 62.3539 0 0)
(32.0386 -8.2356 0 61.0678 0 0)
(37.6946 -9.2503 0 59.7085 0 0)
(43.0402 -10.2241 0 58.3282 0 0)
(47.9779 -11.1379 0 56.9188 0 0)
(52.4569 -11.9891 0 55.5236 0 0)
(56.4419 -12.7584 0 54.1292 0 0)
(59.9349 -13.4475 0 52.7699 0 0)
(62.9386 -14.0368 0 51.4293 0 0)
(65.4811 -14.5356 0 50.143 0 0)
(67.6196 -14.9256 0 48.8728 0 0)
(69.2488 -15.1732 0 47.5912 0 0)
(0.268098 -0.46291 0 46.3104 0 0)
(2.10763 -1.41611 0 47.2496 0 0)
(5.24692 -2.36407 0 45.8483 0 0)
(9.57542 -3.3755 0 45.3101 0 0)
(14.6699 -4.35665 0 44.6688 0 0)
(20.2551 -5.31693 0 43.9248 0 0)
(26.0617 -6.25133 0 43.0905 0 0)
(31.8689 -7.15815 0 42.2029 0 0)
(37.4981 -8.02844 0 41.2671 0 0)
(42.8244 -8.85754 0 40.3136 0 0)
(47.7529 -9.63318 0 39.3433 0 0)
(52.2339 -10.3514 0 38.3804 0 0)
(56.2334 -10.9998 0 37.4205 0 0)
(59.7525 -11.5779 0 36.4821 0 0)
(62.7942 -12.0734 0 35.5585 0 0)
(65.3874 -12.4901 0 34.6691 0 0)
(67.5779 -12.8181 0 33.7939 0 0)
(69.2931 -13.0484 0 32.9074 0 0)
(0.269278 -0.383118 0 30.1716 0 0)
(2.11121 -1.16482 0 30.7562 0 0)
(5.24025 -1.95856 0 29.8456 0 0)
(9.55204 -2.80765 0 29.4983 0 0)
(14.6252 -3.63138 0 29.0861 0 0)
(20.1872 -4.43597 0 28.6054 0 0)
(25.9708 -5.21763 0 28.066 0 0)
(31.7559 -5.97335 0 27.4902 0 0)
(37.3662 -6.69663 0 26.884 0 0)
(42.678 -7.38271 0 26.2654 0 0)
(47.5982 -8.02306 0 25.6372 0 0)
(52.0766 -8.61353 0 25.0126 0 0)
(56.0814 -9.14616 0 24.3914 0 0)
(59.6126 -9.61907 0 23.7825 0 0)
(62.674 -10.0247 0 23.1842 0 0)
(65.2931 -10.3634 0 22.6062 0 0)
(67.5105 -10.6306 0 22.039 0 0)
(69.2786 -10.8282 0 21.4632 0 0)
(0.269596 -0.304636 0 18.2198 0 0)
(2.11299 -0.919907 0 18.5642 0 0)
(5.23489 -1.55432 0 18.0133 0 0)
(9.53266 -2.23732 0 17.8072 0 0)
(14.5868 -2.90155 0 17.5641 0 0)
(20.1268 -3.55161 0 17.2795 0 0)
(25.8859 -4.18275 0 16.9592 0 0)
(31.6455 -4.79165 0 16.6161 0 0)
(37.2302 -5.37176 0 16.2543 0 0)
(42.5167 -5.91962 0 15.8841 0 0)
(47.4144 -6.42795 0 15.5074 0 0)
(51.8718 -6.8944 0 15.1322 0 0)
(55.8608 -7.31214 0 14.7585 0 0)
(59.3792 -7.68089 0 14.3917 0 0)
(62.4354 -7.99484 0 14.031 0 0)
(65.0517 -8.2546 0 13.6819 0 0)
(67.2723 -8.45932 0 13.3398 0 0)
(69.0679 -8.60972 0 12.9929 0 0)
(0.26925 -0.228292 0 9.88653 0 0)
(2.11075 -0.691337 0 10.0702 0 0)
(5.21769 -1.1788 0 9.77282 0 0)
(9.4892 -1.7086 0 9.67042 0 0)
(14.5132 -2.22309 0 9.54599 0 0)
(20.0197 -2.72356 0 9.39677 0 0)
(25.7419 -3.20569 0 9.22605 0 0)
(31.4635 -3.66701 0 9.04178 0 0)
(37.0091 -4.10175 0 8.84598 0 0)
(42.2585 -4.50837 0 8.64493 0 0)
(47.1202 -4.88127 0 8.43922 0 0)
(51.5475 -5.22062 0 8.23403 0 0)
(55.5113 -5.52061 0 8.02879 0 0)
(59.0135 -5.78346 0 7.82747 0 0)
(62.0614 -6.00306 0 7.62912 0 0)
(64.6768 -6.18295 0 7.43775 0 0)
(66.9011 -6.32611 0 7.25091 0 0)
(68.7302 -6.42817 0 7.06264 0 0)
(0.268119 -0.154818 0 4.488 0 0)
(2.08388 -0.49791 0 4.58365 0 0)
(5.15638 -0.852443 0 4.4584 0 0)
(9.38835 -1.22886 0 4.42276 0 0)
(14.3867 -1.58595 0 4.37168 0 0)
(19.8678 -1.92829 0 4.30725 0 0)
(25.5634 -2.25326 0 4.22991 0 0)
(31.2591 -2.55861 0 4.1434 0 0)
(36.7817 -2.84275 0 4.05035 0 0)
(42.0104 -3.10686 0 3.9545 0 0)
(46.8554 -3.34803 0 3.85666 0 0)
(51.2735 -3.56711 0 3.75954 0 0)
(55.2315 -3.76036 0 3.66262 0 0)
(58.7396 -3.92984 0 3.56861 0 0)
(61.7941 -4.06945 0 3.47591 0 0)
(64.4283 -4.18451 0 3.38841 0 0)
(66.6497 -4.27501 0 3.30313 0 0)
(68.507 -4.34506 0 3.2189 0 0)
(0.255202 -0.0881956 0 1.42162 0 0)
(2.06784 -0.313458 0 1.48736 0 0)
(5.20471 -0.526014 0 1.44729 0 0)
(9.49511 -0.7344 0 1.43414 0 0)
(14.5469 -0.924506 0 1.41402 0 0)
(20.0792 -1.10713 0 1.39075 0 0)
(25.831 -1.28376 0 1.3641 0 0)
(31.5858 -1.45186 0 1.33477 0 0)
(37.1698 -1.60978 0 1.30377 0 0)
(42.4574 -1.75735 0 1.27215 0 0)
(47.3619 -1.89306 0 1.24033 0 0)
(51.8322 -2.01693 0 1.2089 0 0)
(55.84 -2.12695 0 1.17785 0 0)
(59.3878 -2.22375 0 1.14787 0 0)
(62.4756 -2.30327 0 1.1186 0 0)
(65.1413 -2.36948 0 1.0921 0 0)
(67.3624 -2.42209 0 1.06688 0 0)
(69.2117 -2.46159 0 1.03992 0 0)
(0.245878 -0.0253285 0 0.141905 0 0)
(2.06567 -0.0978189 0 0.153689 0 0)
(5.18365 -0.165562 0 0.150903 0 0)
(9.44326 -0.23081 0 0.149735 0 0)
(14.4764 -0.293708 0 0.147432 0 0)
(19.9961 -0.354035 0 0.144704 0 0)
(25.7414 -0.412849 0 0.141704 0 0)
(31.4938 -0.469337 0 0.138573 0 0)
(37.085 -0.522673 0 0.135349 0 0)
(42.3907 -0.572672 0 0.132097 0 0)
(47.3256 -0.619027 0 0.128839 0 0)
(51.8368 -0.661706 0 0.125636 0 0)
(55.8981 -0.70014 0 0.122492 0 0)
(59.5045 -0.734184 0 0.119467 0 0)
(62.6625 -0.763108 0 0.116641 0 0)
(65.405 -0.788355 0 0.114303 0 0)
(67.7164 -0.806577 0 0.112227 0 0)
(69.6432 -0.81589 0 0.111841 0 0)
(0.024484 0.0357811 0 0.71781 0 0)
(0.267293 0.0991663 0 0.678845 0 0)
(0.785593 0.181021 0 0.671667 0 0)
(1.53918 0.295151 0 0.662423 0 0)
(2.48627 0.424253 0 0.660815 0 0)
(3.60861 0.569156 0 0.657548 0 0)
(4.8843 0.716278 -2.3854e-19 0.655597 -6.48977e-20 1.47928e-37)
(6.31051 0.867226 2.42502e-19 0.651301 6.92066e-20 1.48381e-37)
(7.88058 1.01419 0 0.645294 0 0)
(9.59256 1.16161 2.44821e-19 0.637719 6.86234e-20 1.46159e-37)
(11.4413 1.30563 0 0.62913 0 0)
(13.4207 1.44847 0 0.620026 0 0)
(15.5244 1.58557 0 0.61206 0 0)
(17.7458 1.71723 -2.7724e-19 0.605583 -5.17055e-20 1.3479e-37)
(20.0789 1.84033 0 0.599357 0 0)
(22.5241 1.9539 0 0.594108 0 0)
(25.0815 2.05378 3.40429e-19 0.589783 3.90166e-20 1.22125e-37)
(27.7496 2.14161 0 0.585311 0 0)
(30.5236 2.22011 0 0.580635 0 0)
(33.3973 2.29153 0 0.576175 0 0)
(36.3551 2.35483 -4.56361e-19 0.572839 -1.95822e-20 1.01803e-37)
(39.3874 2.41064 0 0.569103 0 0)
(42.4803 2.45707 -5.16101e-19 0.566832 -1.02915e-20 9.25453e-38)
(45.6247 2.49407 0 0.56799 0 0)
(48.8045 2.52784 0 0.568681 0 0)
(52.0053 2.55105 -6.04151e-19 0.5708 1.18008e-21 7.97824e-38)
(55.2201 2.55345 0 0.572636 0 0)
(58.4532 2.53624 6.57706e-19 0.571154 -6.89951e-21 7.21709e-38)
(61.6986 2.50536 0 0.563343 0 0)
(64.9621 2.46265 -7.02405e-19 0.552983 1.04723e-20 6.54051e-38)
(68.2425 2.41073 0 0.539456 0 0)
(71.5273 2.35206 0 0.523649 0 0)
(74.8089 2.28656 0 0.509611 0 0)
(78.0889 2.21048 0 0.49823 0 0)
(81.361 2.1232 0 0.486679 0 0)
(84.6222 2.02766 7.79496e-19 0.475775 -1.4004e-20 4.60001e-38)
(87.8711 1.92372 0 0.464149 0 0)
(91.1086 1.81123 -1.56213e-18 0.4481 2.7165e-20 1.61389e-37)
(94.3334 1.69181 0 0.432498 0 0)
(97.5405 1.5643 1.55212e-18 0.417854 -2.61867e-20 1.3998e-37)
(100.723 1.4312 0 0.402703 0 0)
(103.88 1.2889 0 0.391039 0 0)
(107.003 1.13835 -1.51414e-18 0.378477 2.15793e-20 1.11286e-37)
(110.074 0.985565 0 0.365661 0 0)
(113.078 0.830792 -1.47565e-18 0.354852 1.82737e-20 9.43547e-38)
(115.999 0.672907 1.45322e-18 0.345995 -1.65396e-20 8.66639e-38)
(118.823 0.509224 0 0.339879 0 0)
(121.541 0.339345 1.40245e-18 0.335107 -1.25152e-20 7.34554e-38)
(124.137 0.164014 1.37426e-18 0.331214 -1.06493e-20 6.7995e-38)
(126.611 -0.0138212 0 0.327962 0 0)
(128.949 -0.193092 0 0.325838 0 0)
(131.133 -0.37661 0 0.323159 0 0)
(133.14 -0.565113 0 0.321947 0 0)
(134.951 -0.755907 0 0.323986 0 0)
(136.539 -0.945689 -1.17403e-18 0.328195 -4.39195e-21 5.02025e-38)
(137.876 -1.13691 0 0.332295 0 0)
(138.95 -1.33293 1.0794e-18 0.335972 1.14578e-20 4.75493e-38)
(139.764 -1.53558 0 0.341188 0 0)
(140.313 -1.74439 0 0.347977 0 0)
(140.583 -1.95033 -9.11647e-19 0.357297 -2.24607e-20 4.7545e-38)
(140.568 -2.15447 0 0.369276 0 0)
(140.249 -2.35949 7.80235e-19 0.381281 3.12426e-20 4.97098e-38)
(139.635 -2.56329 0 0.391569 0 0)
(138.721 -2.767 0 0.404361 0 0)
(137.516 -2.96986 0 0.418529 0 0)
(136.032 -3.16549 -4.81936e-19 0.432933 -4.76043e-20 6.03594e-38)
(134.273 -3.3545 0 0.447652 0 0)
(132.252 -3.53716 0 0.460722 0 0)
(129.981 -3.7125 -2.26198e-19 0.474372 -6.11921e-20 7.30543e-38)
(127.481 -3.88566 0 0.489443 0 0)
(124.788 -4.05156 -5.06349e-20 0.504621 -6.98348e-20 8.30362e-38)
(121.914 -4.20504 0 0.520077 0 0)
(118.876 -4.34635 0 0.536079 0 0)
(115.704 -4.47689 0 0.553223 0 0)
(112.421 -4.59809 -3.05018e-19 0.571368 8.32013e-20 1.04544e-37)
(109.046 -4.7072 0 0.589458 0 0)
(105.595 -4.80098 0 0.607418 0 0)
(102.079 -4.87971 -5.64452e-19 0.625516 9.03287e-20 1.20172e-37)
(98.5117 -4.94787 -6.4628e-19 0.644298 9.18644e-20 1.25288e-37)
(94.9208 -5.00512 0 0.663102 0 0)
(91.3376 -5.05047 -7.99255e-19 0.682822 9.4637e-20 1.34717e-37)
(87.783 -5.08455 0 0.704022 0 0)
(84.2773 -5.10668 -1.87817e-18 0.725597 1.92611e-19 5.74499e-37)
(80.8348 -5.11585 0 0.748246 0 0)
(77.4729 -5.11049 -2.12331e-18 0.770813 1.93739e-19 6.07639e-37)
(74.2098 -5.08877 0 0.793757 0 0)
(71.0597 -5.054 2.32611e-18 0.819734 -1.93884e-19 6.3661e-37)
(68.0401 -5.00595 0 0.844767 0 0)
(65.1656 -4.93933 0 0.867085 0 0)
(62.4361 -4.85411 0 0.88981 0 0)
(59.8565 -4.75219 -2.58666e-18 0.914826 1.86207e-19 6.79922e-37)
(57.4323 -4.63594 0 0.939431 0 0)
(55.1723 -4.50347 2.64728e-18 0.963645 -1.79955e-19 6.94644e-37)
(53.0783 -4.35445 0 0.987336 0 0)
(51.1389 -4.18312 -2.65918e-18 1.01085 1.73656e-19 7.03435e-37)
(49.3491 -3.9953 -2.65005e-18 1.03209 1.70437e-19 7.06923e-37)
(47.6966 -3.79474 -2.63118e-18 1.05326 1.66284e-19 7.09579e-37)
(46.1762 -3.58499 0 1.07562 0 0)
(44.7614 -3.36522 0 1.09871 0 0)
(43.4634 -3.13657 0 1.11828 0 0)
(42.2644 -2.89915 0 1.13808 0 0)
(41.1591 -2.65976 0 1.15785 0 0)
(40.1297 -2.41992 0 1.1769 0 0)
(39.1741 -2.1775 0 1.19205 0 0)
(38.2463 -1.93423 0 1.20799 0 0)
(37.3442 -1.69741 2.02497e-18 1.22319 -1.31538e-19 7.07474e-37)
(36.4348 -1.46915 1.91082e-18 1.24029 -1.24246e-19 7.06767e-37)
(35.5412 -1.25 0 1.25177 0 0)
(34.6284 -1.03975 0 1.26466 0 0)
(33.7082 -0.852724 0 1.27875 0 0)
(32.7258 -0.67649 1.35409e-18 1.29169 -1.0479e-19 6.90626e-37)
(31.7845 -0.526632 0 1.29899 0 0)
(30.7773 -0.384643 0 1.30876 0 0)
(29.8244 -0.282243 0 1.31889 0 0)
(28.9033 -0.199216 0 1.33194 0 0)
(28.0802 -0.149055 -4.39716e-19 1.34027 7.56161e-20 6.65708e-37)
(27.3877 -0.122752 0 1.34938 0 0)
(26.8541 -0.131236 0 1.36278 0 0)
(26.5631 -0.173258 -2.23268e-19 1.37037 -6.50739e-20 6.41986e-37)
(26.5132 -0.241944 4.50603e-19 1.38341 6.0995e-20 6.29567e-37)
(26.7607 -0.351782 0 1.40034 0 0)
(27.3589 -0.508318 9.1281e-19 1.41757 6.00664e-20 6.04975e-37)
(28.3725 -0.704975 0 1.43671 0 0)
(29.864 -0.957148 -1.35369e-18 1.45438 -6.45846e-20 5.75364e-37)
(31.8542 -1.24322 0 1.47711 0 0)
(34.4173 -1.57914 0 1.50412 0 0)
(37.4522 -1.95728 0 1.53685 0 0)
(41.0696 -2.38601 0 1.5711 0 0)
(45.122 -2.84079 0 1.60913 0 0)
(49.6146 -3.34207 4.89744e-18 1.65129 2.04552e-19 1.97155e-36)
(54.4828 -3.88733 5.1525e-18 1.69739 2.30485e-19 1.93676e-36)
(59.7455 -4.46822 0 1.74546 0 0)
(65.2041 -5.06957 0 1.80141 0 0)
(70.8193 -5.69616 0 1.8566 0 0)
(76.4416 -6.30843 -5.69287e-18 1.9175 -3.52124e-19 1.91677e-36)
(81.8433 -6.92222 0 1.98867 0 0)
(86.9873 -7.54336 0 2.06085 0 0)
(91.8165 -8.1575 0 2.13731 0 0)
(96.2551 -8.75009 -5.33094e-18 2.2156 -5.33304e-19 2.07089e-36)
(100.285 -9.31681 5.09721e-18 2.29903 5.8197e-19 2.13266e-36)
(103.695 -9.8387 0 2.38979 0 0)
(106.602 -10.3481 0 2.48257 0 0)
(108.972 -10.8015 4.07865e-18 2.57712 7.34984e-19 2.36463e-36)
(110.812 -11.2209 3.64968e-18 2.67049 7.83821e-19 2.44989e-36)
(111.968 -11.565 0 2.77077 0 0)
(112.542 -11.8804 0 2.8707 0 0)
(112.426 -12.1227 -2.05237e-18 2.97466 -9.45281e-19 2.71773e-36)
(111.751 -12.3472 1.423e-18 3.06965 9.8887e-19 2.79643e-36)
(110.562 -12.5013 0 3.16643 0 0)
(108.658 -12.6014 0 3.26706 0 0)
(106.16 -12.6351 -5.21113e-19 3.35793 1.11671e-18 3.06697e-36)
(103.03 -12.6151 0 3.44839 0 0)
(99.5505 -12.5571 0 3.53196 0 0)
(95.5631 -12.4085 -2.54754e-18 3.60441 1.20564e-18 3.29941e-36)
(91.2638 -12.188 0 3.67641 0 0)
(86.6412 -11.8567 -3.83114e-18 3.7379 1.25659e-18 3.44234e-36)
(81.7543 -11.4403 0 3.79365 0 0)
(76.6459 -10.9059 0 3.83281 0 0)
(71.702 -10.2733 0 3.85693 0 0)
(66.8181 -9.476 5.87011e-18 3.87571 -1.27736e-18 3.68059e-36)
(62.1547 -8.55888 0 3.87936 0 0)
(57.9297 -7.48996 0 3.86725 0 0)
(54.4681 -6.30126 0 3.83939 0 0)
(51.6063 -4.92377 0 3.79742 0 0)
(49.514 -3.46513 0 3.74676 0 0)
(48.7907 -1.91159 0 3.67486 0 0)
(49.6263 -0.2884 6.02037e-18 3.58524 -1.10388e-18 3.72625e-36)
(51.6802 1.42453 5.60464e-18 3.48702 -1.04969e-18 3.70888e-36)
(55.3793 3.11628 0 3.37552 0 0)
(60.6324 4.74252 0 3.25765 0 0)
(67.4363 6.32229 0 3.1282 0 0)
(75.3681 7.79546 -3.05142e-18 2.99854 7.94974e-19 3.38297e-36)
(84.4934 9.09644 0 2.87036 0 0)
(94.0508 10.2844 2.94666e-18 2.73535 -1.3502e-18 1.236e-35)
(103.938 11.2416 -1.30864e-18 2.60464 1.21741e-18 1.16587e-35)
(113.574 12.032 3.18973e-19 2.4734 1.1049e-18 1.10169e-35)
(123.228 12.6826 -2.02198e-18 2.34866 -1.01412e-18 1.03319e-35)
(131.347 13.2238 3.67401e-18 2.22972 9.22715e-19 9.75778e-36)
(139.221 13.7009 -5.27849e-18 2.12246 -9.03421e-19 8.99374e-36)
(142.971 14.3937 0 2.06654 0 0)
(0.0183119 0.174294 0 6.10042 0 0)
(0.202761 0.388072 0 6.03831 0 0)
(0.629606 0.610079 1.31888e-19 5.86537 1.75793e-19 6.76715e-37)
(1.32731 0.854676 0 5.74438 0 0)
(2.26965 1.13406 -1.9261e-19 5.68444 -3.53575e-19 9.19893e-37)
(3.44612 1.43888 -1.84192e-19 5.65727 -4.4156e-19 9.73032e-37)
(4.8356 1.76351 -8.07713e-20 5.64193 -2.51528e-19 2.491e-37)
(6.42382 2.10396 -6.89961e-20 5.62396 -2.70468e-19 2.61355e-37)
(8.20291 2.45301 0 5.59565 0 0)
(10.1709 2.80617 -4.2125e-20 5.55308 -2.69287e-19 2.59506e-37)
(12.3289 3.15467 0 5.50119 0 0)
(14.6754 3.49613 0 5.44151 0 0)
(17.2019 3.82537 9.45946e-20 5.37315 4.23946e-19 9.51431e-37)
(19.9092 4.14197 6.94638e-20 5.30116 1.86969e-19 2.34204e-37)
(22.7865 4.43631 -1.85352e-19 5.22582 -3.26368e-19 8.93899e-37)
(25.8279 4.7084 -2.51597e-19 5.14744 -2.81336e-19 8.66147e-37)
(29.022 4.95959 -1.71145e-19 5.06295 -1.18499e-19 2.128e-37)
(32.3625 5.19128 0 4.97215 0 0)
(35.8377 5.40191 0 4.87638 0 0)
(39.4387 5.59608 0 4.77359 0 0)
(43.1422 5.77304 -3.8661e-19 4.66853 -3.67503e-20 1.80427e-37)
(46.939 5.93014 0 4.56382 0 0)
(50.8062 6.05892 1.60862e-18 4.45708 -1.59456e-20 1.552e-36)
(54.7316 6.16295 0 4.35391 0 0)
(58.6983 6.24376 0 4.24855 0 0)
(62.6893 6.30148 7.74538e-19 4.14422 -5.75526e-20 1.56513e-37)
(66.6769 6.33278 0 4.03822 0 0)
(70.6424 6.34702 -9.32658e-19 3.9376 8.16727e-20 1.46008e-37)
(74.552 6.33785 -1.99294e-18 3.83764 1.81319e-19 5.57138e-37)
(78.3959 6.30017 1.07673e-18 3.73493 -9.86385e-20 1.36633e-37)
(82.1701 6.23098 0 3.62716 0 0)
(85.8743 6.13386 0 3.52187 0 0)
(89.4953 6.01132 0 3.41853 0 0)
(93.0369 5.86445 -2.57592e-18 3.31037 2.22578e-19 4.71413e-37)
(96.4908 5.68775 -2.6542e-18 3.20286 2.20078e-19 4.55247e-37)
(99.8707 5.48154 -1.37329e-18 3.1018 1.07455e-19 1.10778e-37)
(103.185 5.2442 0 3.00979 0 0)
(106.426 4.97071 2.83733e-18 2.92157 -2.02713e-19 4.129e-37)
(109.604 4.6591 0 2.83628 0 0)
(112.711 4.31868 -2.87401e-18 2.75466 1.88142e-19 3.81651e-37)
(115.756 3.95055 0 2.67425 0 0)
(118.734 3.56255 0 2.60205 0 0)
(121.652 3.15863 2.82709e-18 2.53108 -1.53865e-19 3.31767e-37)
(124.496 2.73583 0 2.46574 0 0)
(127.246 2.28759 8.15883e-18 2.40776 -3.93069e-19 2.68522e-36)
(129.901 1.80972 -2.68852e-18 2.36242 1.1912e-19 2.83784e-37)
(132.464 1.30661 0 2.33527 0 0)
(134.952 0.778371 -2.54895e-18 2.31947 9.09349e-20 2.51843e-37)
(137.349 0.217452 -2.46837e-18 2.31323 7.67178e-20 2.36277e-37)
(139.653 -0.369682 0 2.31557 0 0)
(141.841 -0.968485 0 2.32901 0 0)
(143.894 -1.56487 0 2.34407 0 0)
(145.798 -2.14934 0 2.3576 0 0)
(147.515 -2.72625 0 2.38115 0 0)
(149.033 -3.30462 1.88356e-18 2.41388 1.44566e-20 1.72158e-37)
(150.33 -3.89194 3.45158e-18 2.45714 7.10469e-20 6.56149e-37)
(151.386 -4.48295 -1.64462e-18 2.50824 -5.5871e-20 1.6017e-37)
(152.213 -5.09232 0 2.5644 0 0)
(152.783 -5.70314 2.68747e-18 2.62754 1.90195e-19 6.01711e-37)
(153.069 -6.29335 -1.17023e-18 2.69564 -1.1324e-19 1.46928e-37)
(153.098 -6.87842 0 2.77233 0 0)
(152.819 -7.45758 -9.78328e-19 2.86218 -1.48621e-19 1.49564e-37)
(152.245 -8.01508 0 2.95544 0 0)
(151.369 -8.56327 0 3.05672 0 0)
(150.189 -9.09303 -1.04758e-18 3.16286 -3.97014e-19 6.2582e-37)
(148.689 -9.59386 4.22621e-19 3.27369 2.15294e-19 1.63817e-37)
(146.911 -10.087 -4.89098e-19 3.39398 -4.62321e-19 6.6868e-37)
(144.846 -10.5589 2.12009e-19 3.51849 4.89214e-19 6.92453e-37)
(142.522 -11.0065 1.01023e-20 3.64414 2.54514e-19 1.82753e-37)