/*--------------------------------*- C++ -*----------------------------------*\
| =========                 |                                                 |
| \\      /  F ield         | OpenFOAM: The Open Source CFD Toolbox           |
|  \\    /   O peration     | Version:  dev                                   |
|   \\  /    A nd           | Web:      http://www.openfoam.org               |
|    \\/     M anipulation  |                                                 |
\*---------------------------------------------------------------------------*/
FoamFile
{
    version     2.0;
    format      ascii;
    class       volScalarField;
    object      k_0;
    location    "9.127";
}
// * * * * * * * * * * * * * * * * * * * * * * * * * * * * * * * * * * * * * //

dimensions      [0 2 -2 0 0 0 0];

internalField   nonuniform List<scalar> 
12225
(
8.48656
9.06364
5.48445
6.27856
5.44918
7.6107
7.58084
10.1351
9.87856
13.5415
12.3275
18.6499
15.5414
26.2836
24.0395
35.1572
68.3375
103.43
1.70181
6.11166
5.00973
6.48391
5.03262
6.56601
5.75222
7.09665
6.74915
7.64862
7.63489
7.87981
8.04785
7.30995
7.73934
8.47733
10.8425
17.1866
0.178224
2.32829
2.59221
4.03309
3.3588
4.10182
3.68832
4.07932
3.95713
3.82984
3.99653
3.39122
3.73457
2.95463
3.04006
3.50466
7.44817
14.7802
0.0184145
0.536386
0.732478
1.17255
1.57802
1.60264
1.96342
1.77238
2.10879
1.72119
1.89266
1.48112
1.61795
1.35554
1.48225
1.99445
5.43119
15.1574
0.00504887
0.159833
0.24116
0.405735
0.679761
0.729185
0.935891
0.887515
1.01739
0.89003
0.94052
0.775237
0.831664
0.737528
0.867292
1.26873
3.44167
13.9726
0.00817155
0.0748017
0.108838
0.168958
0.283307
0.308918
0.407466
0.399035
0.481456
0.434037
0.491541
0.414369
0.486607
0.429314
0.499746
0.867976
3.04894
14.4479
0.00801452
0.021025
0.0510098
0.0645377
0.116785
0.124279
0.181954
0.181249
0.237305
0.22321
0.262652
0.238497
0.280299
0.26199
0.3037
0.44721
1.82825
6.54893
0.00782301
0.0152283
0.0338145
0.0442629
0.0727094
0.082454
0.114427
0.122093
0.156138
0.158679
0.179058
0.180463
0.201119
0.207676
0.2333
0.295662
0.70046
1.71631
0.0061418
0.0187628
0.0334491
0.0476226
0.0685758
0.0820295
0.101334
0.115331
0.13577
0.147651
0.160261
0.173973
0.183257
0.200325
0.21432
0.240334
0.392265
0.604427
0.00459558
0.0336583
0.0431339
0.0713629
0.0805424
0.0999539
0.109927
0.128033
0.140172
0.158297
0.16679
0.183933
0.190356
0.205812
0.213106
0.22822
0.28144
0.321989
0.00732545
0.0588343
0.0733356
0.12007
0.128132
0.162415
0.160592
0.180382
0.182023
0.19901
0.204046
0.220313
0.222861
0.234448
0.237452
0.244571
0.263786
0.277755
0.0265469
0.124487
0.146877
0.211167
0.22449
0.268329
0.274213
0.300285
0.302298
0.320684
0.320327
0.331456
0.329085
0.331552
0.326665
0.324802
0.321267
0.317574
0.109394
0.26453
0.299952
0.38475
0.402712
0.443191
0.44639
0.459811
0.459646
0.465585
0.462651
0.462385
0.455467
0.441448
0.431257
0.421031
0.413797
0.406346
0.279015
0.493541
0.559287
0.63236
0.64073
0.658113
0.657861
0.666488
0.665655
0.667849
0.661712
0.651751
0.629683
0.609548
0.589113
0.572348
0.555448
0.542804
0.509205
0.823197
0.972786
1.05854
1.07368
1.08123
1.07423
1.05049
1.00955
0.972863
0.925846
0.884091
0.834201
0.79426
0.750436
0.720124
0.683759
0.660962
0.899623
1.2804
1.41013
1.45241
1.45232
1.43234
1.36987
1.29955
1.22316
1.15401
1.08088
1.01836
0.950877
0.898583
0.840845
0.800678
0.752764
0.722419
1.09717
1.50054
1.61069
1.63269
1.6279
1.59606
1.50761
1.41447
1.31904
1.23377
1.14701
1.07443
0.999231
0.941311
0.877969
0.83387
0.781558
0.746774
1.12789
1.52846
1.63966
1.66374
1.65916
1.62673
1.53423
1.43571
1.33558
1.24672
1.15707
1.08206
1.00509
0.945904
0.881361
0.836017
0.782549
0.746148
0.994976
1.42316
1.55565
1.5946
1.59299
1.56719
1.48835
1.39594
1.30002
1.21436
1.12691
1.05389
0.978719
0.920908
0.857731
0.813024
0.760019
0.723273
0.682112
1.05286
1.23018
1.31117
1.3347
1.33027
1.30308
1.2446
1.16544
1.09265
1.01616
0.953039
0.887218
0.83757
0.781866
0.742691
0.694341
0.659747
0.427778
0.674427
0.802724
0.867363
0.8896
0.890207
0.886503
0.872555
0.836085
0.79618
0.750028
0.714915
0.674737
0.646089
0.607961
0.582688
0.545854
0.517551
0.228271
0.379366
0.47549
0.54474
0.587165
0.606697
0.60822
0.602331
0.584614
0.549576
0.509696
0.475507
0.443409
0.422181
0.402214
0.389606
0.373356
0.361219
0.115677
0.206575
0.260469
0.31016
0.344269
0.359396
0.36045
0.35681
0.350402
0.345045
0.338944
0.333214
0.327098
0.32258
0.317957
0.314248
0.309209
0.304924
0.0529045
0.0983192
0.130422
0.154332
0.179131
0.202583
0.222817
0.241175
0.258547
0.27413
0.284407
0.291199
0.295101
0.297686
0.299062
0.299226
0.298443
0.296499
0.023265
0.0419051
0.058599
0.0880911
0.121076
0.155535
0.188402
0.220397
0.250418
0.274738
0.292331
0.305216
0.314153
0.320822
0.325224
0.328871
0.329818
0.330666
0.00567322
0.0183829
0.041424
0.0884336
0.141974
0.197985
0.250375
0.299449
0.346565
0.384517
0.41389
0.43623
0.45526
0.470702
0.480175
0.490735
0.49614
0.503228
0.00247734
0.0333837
0.125277
0.275976
0.418707
0.544864
0.647084
0.732417
0.810547
0.859938
0.898684
0.925322
0.955347
0.981521
0.992652
1.00657
1.01365
1.01359
0.022086
0.327878
0.950411
1.40085
1.68531
1.88107
2.01134
2.102
2.16036
2.18335
2.17651
2.15595
2.14633
2.12011
2.07299
2.02777
1.96684
1.86776
0.505954
3.01569
4.4401
4.86681
4.83521
4.69282
4.52338
4.35798
4.22577
4.09989
3.9333
3.80338
3.67105
3.54293
3.41233
3.28343
3.11836
2.75105
6.59566
8.89265
7.41834
5.64346
4.86449
4.69049
4.78298
5.04462
5.37576
5.72802
6.08212
6.4078
6.70181
6.99315
7.27142
7.45398
7.49032
7.02252
0.112378
0.163011
0.192093
0.207152
0.219509
0.239934
0.268406
0.307401
0.354955
0.409885
0.475646
0.551105
0.634187
0.725486
0.828139
0.942363
1.06617
1.20161
1.34688
1.49377
1.64369
1.79466
1.94211
2.07723
2.19732
2.30661
2.40522
2.5007
2.60516
2.72502
2.85395
2.97981
3.12591
3.28609
3.42534
3.55358
3.67438
3.78105
3.88206
4.00157
4.1369
4.31843
4.57093
4.87671
5.20357
5.55844
6.00773
6.5116
7.01129
7.56542
8.32202
9.25422
10.017
10.3225
10.3516
10.2288
10.0681
9.72271
9.29761
9.04025
8.9539
8.8528
8.62699
8.37274
8.08377
7.951
7.86235
7.60185
7.48965
7.585
8.16384
8.93017
9.27506
9.11672
8.46595
8.08558
7.96412
7.76454
7.25764
6.67567
6.27016
6.06523
6.00187
6.01389
6.03164
6.03851
6.01271
5.90327
5.70277
5.48072
5.20435
4.87751
4.55588
4.17841
3.69991
3.18797
2.79995
2.57522
2.34042
2.10033
1.94449
1.67911
1.58539
1.45441
1.37071
1.33044
1.30485
1.30593
1.32151
1.36044
1.41842
1.49679
1.57704
1.67178
1.7723
1.91738
2.03935
2.17415
2.30506
2.43324
2.59488
2.87958
3.2317
3.55083
3.9294
4.44877
4.961
5.35053
5.72977
6.20525
6.7332
7.34079
7.9318
8.52656
9.05149
9.36458
9.87501
10.3362
10.7673
11.1356
11.4814
11.7072
11.7646
11.7042
11.4973
11.2876
11.0487
10.8734
10.5156
10.2827
9.66906
9.26946
8.2471
7.73275
6.69499
6.09519
5.58336
5.22017
5.02279
5.0652
5.2728
5.48298
5.82592
6.33333
6.73213
6.70177
6.43868
5.59501
4.98831
4.39831
4.28254
4.34445
4.73178
5.46348
6.10368
7.05033
7.46316
7.5277
7.56064
7.67677
0.359509
0.189971
0.176329
0.170519
0.167791
0.170965
0.182035
0.199653
0.218747
0.240134
0.264794
0.291123
0.319389
0.347967
0.379838
0.412882
0.446009
0.48035
0.510302
0.530038
0.541704
0.54357
0.539184
0.522472
0.495705
0.470613
0.444772
0.426888
0.419367
0.414444
0.41034
0.40987
0.416407
0.41858
0.411426
0.396452
0.379612
0.375629
0.376454
0.382588
0.389151
0.396934
0.411809
0.428882
0.43919
0.458945
0.484039
0.521784
0.572041
0.625022
0.685339
0.795824
1.06709
1.67369
2.29376
2.89498
3.36416
3.43244
3.32501
3.0391
2.82507
2.59699
2.42077
2.19091
1.78275
1.54716
1.44185
1.23341
1.04395
1.00314
1.04943
1.16932
1.48042
1.6962
1.95855
2.70176
3.53316
4.04283
4.21769
4.15123
3.89873
3.63702
3.3517
3.0559
2.75396
2.46231
2.16994
1.85869
1.61994
1.41538
1.25495
1.11716
0.990179
0.865034
0.774395
0.731042
0.713093
0.685146
0.635819
0.61338
0.624565
0.624466
0.5802
0.572645
0.580291
0.602426
0.597806
0.600742
0.607225
0.628024
0.654458
0.68984
0.721015
0.753807
0.783338
0.830067
0.878285
0.93693
0.992194
1.03019
1.07232
1.14451
1.26618
1.36557
1.47048
1.63328
1.85136
2.00223
2.08591
2.18973
2.39631
2.70956
3.19225
3.61379
4.08511
4.34141
4.75411
5.20911
5.43641
5.49389
5.39837
5.15036
4.8459
4.70501
4.54118
4.51705
4.44211
4.45099
4.40439
4.36103
4.22384
4.09066
3.80876
3.69179
3.53067
3.3924
3.31982
3.18875
3.12282
3.14472
3.18164
3.23728
3.30737
3.44133
3.79802
4.20681
4.63557
4.57451
4.24587
3.67544
3.4374
3.15487
3.00944
3.02801
3.09214
3.3393
3.71347
3.9315
4.05955
4.38762
0.911032
0.23446
0.157135
0.137412
0.131881
0.132398
0.139347
0.151307
0.163927
0.177358
0.189297
0.200601
0.217528
0.225121
0.229558
0.242401
0.255828
0.264791
0.267804
0.267566
0.265997
0.2617
0.257261
0.252551
0.247468
0.239974
0.231562
0.224417
0.217501
0.207605
0.196767
0.191594
0.189708
0.189911
0.193614
0.201892
0.212878
0.230134
0.243083
0.248843
0.249861
0.24706
0.240239
0.237081
0.235125
0.235772
0.246494
0.265402
0.287076
0.295072
0.292792
0.305848
0.326552
0.347022
0.434784
0.563754
0.792244
1.15815
1.48155
1.62893
1.64742
1.58342
1.40615
1.14428
0.839467
0.626894
0.519574
0.494627
0.504898
0.555893
0.662957
0.842665
1.24827
1.82053
2.42132
2.71844
2.77162
2.57227
2.28516
2.00306
1.737
1.51237
1.29381
1.09171
0.927487
0.781638
0.653406
0.570608
0.514029
0.480367
0.46234
0.448615
0.432837
0.422308
0.423403
0.445606
0.482945
0.493606
0.484744
0.47013
0.48437
0.495368
0.45833
0.453087
0.452732
0.483578
0.48272
0.492258
0.478915
0.477412
0.482767
0.500464
0.518178
0.552133
0.568089
0.584156
0.606625
0.650443
0.698075
0.736196
0.748988
0.772989
0.824929
0.860148
0.886021
0.937887
1.01021
1.05697
1.11031
1.16362
1.27858
1.52581
1.91029
2.20268
2.49611
2.78903
3.05374
3.19864
3.23801
3.1973
3.03863
2.92339
2.82809
2.82162
2.81013
2.83852
2.85692
2.81972
2.84238
2.80196
2.80528
2.74294
2.70777
2.58806
2.547
2.53363
2.48871
2.42077
2.33829
2.24896
2.25062
2.24526
2.24294
2.25025
2.29827
2.3924
2.59685
3.12532
3.53853
3.4266
3.24905
2.96349
2.62704
2.32116
2.20805
2.20812
2.27033
2.33139
2.43368
2.74486
1.99916
0.35197
0.161857
0.134561
0.126542
0.125505
0.13215
0.143674
0.156324
0.174982
0.190502
0.194405
0.198049
0.204581
0.206376
0.208599
0.21457
0.214872
0.215818
0.217581
0.221198
0.229064
0.238341
0.251038
0.264032
0.271878
0.275316
0.275591
0.269084
0.249051
0.215044
0.187616
0.178758
0.176912
0.178399
0.187107
0.204219
0.229538
0.244979
0.251125
0.251473
0.245188
0.229233
0.216538
0.205076
0.199265
0.200555
0.212153
0.219684
0.224106
0.232253
0.240628
0.245164
0.25404
0.265093
0.280957
0.31163
0.371628
0.532186
0.75399
0.928155
0.972601
0.959901
0.871289
0.652131
0.490938
0.428816
0.431132
0.48428
0.756222
1.02327
1.24033
1.56893
1.82984
1.93176
1.88205
1.62941
1.40344
1.19751
1.01235
0.860723
0.735746
0.619653
0.531727
0.46456
0.406366
0.368186
0.35137
0.345458
0.346151
0.35268
0.361811
0.366225
0.368384
0.373286
0.389944
0.42672
0.461612
0.481972
0.469956
0.469026
0.450659
0.44412
0.443234
0.426158
0.443486
0.446737
0.480866
0.464295
0.449777
0.442663
0.447391
0.450743
0.470725
0.494373
0.508577
0.516093
0.539255
0.590449
0.651778
0.668035
0.68102
0.711159
0.755705
0.772824
0.79632
0.862558
0.903754
0.921858
0.936789
0.993191
1.20414
1.51639
1.75768
1.91096
2.15967
2.34312
2.38176
2.36999
2.35506
2.25714
2.22107
2.21133
2.25028
2.31865
2.3441
2.40491
2.34185
2.32835
2.3119
2.2918
2.28978
2.3242
2.19473
2.05009
2.14602
2.10512
2.04363
2.02087
1.85999
1.85997
1.85082
1.82786
1.83115
1.82851
1.78912
1.83049
1.98938
2.33255
2.8263
2.97267
2.87204
2.63763
2.24404
2.06362
2.00955
1.99711
1.95984
1.99106
2.18277
3.50679
0.573639
0.185171
0.137435
0.12659
0.126447
0.134845
0.149609
0.170652
0.196587
0.201682
0.190919
0.188135
0.19728
0.201171
0.199655
0.200606
0.200319
0.203673
0.216325
0.228388
0.251976
0.278848
0.298764
0.318968
0.331629
0.336311
0.337696
0.33592
0.322529
0.292274
0.242566
0.201664
0.193057
0.193954
0.208779
0.240647
0.274637
0.284068
0.280003
0.267114
0.256785
0.236518
0.212393
0.197335
0.188816
0.186843
0.187698
0.187741
0.197868
0.209178
0.208018
0.206725
0.22293
0.239517
0.239799
0.24025
0.249852
0.273235
0.34063
0.494519
0.590322
0.623553
0.617802
0.55681
0.448197
0.423341
0.443974
0.6313
0.967069
1.14207
1.31623
1.38168
1.40097
1.29973
1.13978
0.974351
0.82536
0.70262
0.600033
0.524084
0.459031
0.40225
0.366233
0.338496
0.316007
0.306268
0.30392
0.305928
0.310684
0.318742
0.33287
0.343334
0.351924
0.35975
0.369037
0.384933
0.416677
0.454436
0.456392
0.459892
0.418307
0.4466
0.452471
0.429411
0.432436
0.422792
0.477162
0.46718
0.449967
0.436858
0.439945
0.432704
0.435943
0.451597
0.477944
0.481787
0.488678
0.503974
0.53524
0.57527
0.590154
0.612496
0.674251
0.718238
0.730268
0.80527
0.879586
0.893753
0.888964
0.915345
1.04269
1.32108
1.55378
1.65187
1.79553
1.94611
1.9885
1.9595
1.95845
1.90364
1.87302
1.91725
1.96303
2.04324
2.074
2.1047
2.08978
2.02251
2.05915
2.00017
1.99216
1.97488
1.99432
1.73208
1.71952
1.72208
1.696
1.75486
1.67375
1.52349
1.56681
1.56912
1.60919
1.63036
1.53752
1.51545
1.53333
1.62396
1.86862
2.37354
2.61921
2.56
2.31172
2.03694
1.95104
1.94848
1.89476
1.88999
1.97702
5.38818
0.993333
0.235972
0.150458
0.130859
0.130382
0.144117
0.173042
0.212304
0.214464
0.195482
0.191717
0.194898
0.198451
0.19986
0.197259
0.196786
0.201928
0.20718
0.227136
0.248889
0.269795
0.292784
0.304766
0.318556
0.329479
0.333801
0.337573
0.339499
0.335437
0.317717
0.277793
0.241503
0.235558
0.242576
0.278015
0.312783
0.317433
0.306662
0.28127
0.263325
0.253521
0.239596
0.218293
0.196202
0.187179
0.184467
0.18403
0.184062
0.192618
0.198076
0.19629
0.198414
0.205327
0.201164
0.202853
0.208667
0.211564
0.219019
0.234346
0.287317
0.378591
0.433642
0.442206
0.41803
0.378277
0.376092
0.412416
0.680545
1.03721
1.17569
1.17836
1.09456
0.960495
0.843885
0.733641
0.643267
0.560978
0.46803
0.405491
0.365406
0.332276
0.309276
0.296323
0.286682
0.282736
0.281904
0.283525
0.287229
0.288335
0.289108
0.294858
0.309583
0.324978
0.339032
0.3493
0.36636
0.37407
0.382419
0.383206
0.391755
0.362938
0.440173
0.44339
0.439918
0.436539
0.409237
0.44639
0.45661
0.452568
0.439029
0.443566
0.432285
0.427565
0.424892
0.442836
0.460819
0.466703
0.47248
0.481784
0.494988
0.514249
0.524059
0.549947
0.61212
0.647845
0.697541
0.817907
0.878446
0.892024
0.892885
0.940824
1.11146
1.41731
1.51928
1.59953
1.6814
1.72803
1.73178
1.70866
1.71801
1.6976
1.7228
1.76298
1.74223
1.79929
1.74825
1.76503
1.70197
1.74641
1.65867
1.70347
1.52677
1.64107
1.55935
1.45007
1.28742
1.27391
1.40502
1.47004
1.40753
1.29563
1.28736
1.3252
1.4261
1.39239
1.34113
1.34147
1.35655
1.4385
1.70724
2.04639
2.26703
2.27907
2.06537
1.92565
1.90332
1.88738
1.88065
1.93065
7.41719
1.52684
0.333409
0.173965
0.143817
0.141465
0.167689
0.223364
0.241113
0.21213
0.199881
0.205867
0.208482
0.199297
0.196226
0.192807
0.191854
0.200564
0.207651
0.224286
0.242516
0.256878
0.264484
0.267798
0.273748
0.282391
0.288927
0.304937
0.332948
0.344333
0.338515
0.301888
0.271308
0.265774
0.276589
0.309856
0.325717
0.324797
0.30038
0.26412
0.251
0.244525
0.236337
0.219414
0.195714
0.185044
0.181236
0.180799
0.182008
0.188457
0.192839
0.193378
0.194704
0.189743
0.184958
0.188852
0.198384
0.199142
0.202503
0.20502
0.213276
0.263192
0.308015
0.318754
0.323489
0.330145
0.338954
0.382351
0.695075
1.02068
1.07913
1.00035
0.83107
0.704417
0.616179
0.554608
0.498367
0.408261
0.338418
0.304891
0.288317
0.276401
0.268458
0.262731
0.258717
0.256979
0.25671
0.257818
0.258226
0.258287
0.261567
0.267531
0.274979
0.286248
0.298288
0.308129
0.323561
0.338212
0.330881
0.339311
0.323013
0.327643
0.417704
0.393192
0.419334
0.43339
0.412575
0.412625
0.431056
0.43803
0.436659
0.443629
0.435112
0.428226
0.411292
0.416749
0.418601
0.43382
0.439491
0.453612
0.453528
0.470022
0.482149
0.507935
0.523121
0.563389
0.583436
0.660539
0.772767
0.864188
0.883962
0.897628
0.957622
1.17945
1.38987
1.47635
1.54462
1.55657
1.58326
1.57327
1.60923
1.61454
1.58956
1.60328
1.4622
1.39841
1.40692
1.38234
1.35703
1.41894
1.3043
1.37434
1.24988
1.25496
1.24066
1.22153
1.02462
0.96664
1.07684
1.24231
1.27807
1.19102
1.18432
1.21713
1.24751
1.23652
1.20422
1.24821
1.28267
1.30808
1.41379
1.75033
1.91963
2.15121
2.04268
1.8814
1.80856
1.85871
1.86226
1.95821
9.55863
2.05248
0.443083
0.212621
0.177053
0.175557
0.223359
0.255006
0.239274
0.207404
0.203315
0.209048
0.205765
0.190383
0.184948
0.182458
0.182813
0.191816
0.200849
0.209593
0.21041
0.208823
0.208597
0.214476
0.229549
0.253555
0.267997
0.285078
0.325535
0.379571
0.403293
0.405995
0.349822
0.310885
0.301427
0.31599
0.325131
0.320074
0.286048
0.257279
0.246825
0.241872
0.233432
0.214205
0.1859
0.172226
0.167809
0.167069
0.170778
0.186069
0.197627
0.198372
0.193293
0.18786
0.188442
0.194739
0.196381
0.200865
0.210601
0.212815
0.217098
0.237497
0.243873
0.244346
0.265422
0.282971
0.297378
0.348858
0.673278
0.959815
0.988573
0.848147
0.666208
0.575774
0.523657
0.476656
0.388573
0.312004
0.277711
0.264612
0.25888
0.255827
0.251695
0.247395
0.245174
0.244121
0.243257
0.242598
0.242685
0.24748
0.254024
0.259297
0.261354
0.265189
0.277141
0.28922
0.296233
0.297372
0.295856
0.30312
0.298532
0.322909
0.367904
0.359415
0.370561
0.395929
0.40768
0.401635
0.415779
0.413812
0.411645
0.422237
0.426646
0.42285
0.403751
0.407419
0.404078
0.414903
0.410378
0.41741
0.419162
0.432585
0.446057
0.47933
0.479501
0.512045
0.533839
0.556287
0.594718
0.721919
0.831116
0.858433
0.888986
0.953824
1.19229
1.32163
1.43154
1.42891
1.47115
1.49972
1.5035
1.5398
1.45609
1.30665
1.16319
1.03347
1.02832
1.06216
1.03925
1.12863
1.07518
1.06809
0.990806
0.906103
0.874576
0.886719
0.832654
0.850245
0.947903
1.09485
1.10973
1.09882
1.18139
1.2094
1.15491
1.16219
1.15344
1.21273
1.28195
1.30367
1.33542
1.59159
1.85121
1.91702
1.91836
1.7637
1.66049
1.77921
1.81844
2.03936
11.7281
2.5268
0.548574
0.234685
0.204471
0.225479
0.279886
0.272043
0.223513
0.20579
0.203301
0.200499
0.183516
0.172324
0.169815
0.170301
0.174792
0.181281
0.182821
0.180833
0.177184
0.177133
0.179536
0.187849
0.206753
0.227634
0.242482
0.255111
0.283482
0.342482
0.41524
0.444625
0.448561
0.408609
0.352743
0.337737
0.337919
0.324179
0.277807
0.254117
0.245537
0.240677
0.229775
0.20295
0.171347
0.158155
0.155097
0.154916
0.156872
0.172413
0.204222
0.216069
0.216299
0.211101
0.210937
0.216195
0.228332
0.261479
0.277085
0.270119
0.258304
0.250392
0.238312
0.230124
0.234528
0.24197
0.255898
0.311299
0.633338
0.898655
0.918484
0.759442
0.58309
0.516372
0.478979
0.407007
0.317238
0.270692
0.254959
0.25133
0.247383
0.238724
0.229282
0.22499
0.223307
0.222777
0.222462
0.223763
0.228289
0.239151
0.2475
0.251215
0.251757
0.253336
0.26391
0.276483
0.281886
0.280983
0.280484
0.271909
0.285482
0.332106
0.334309
0.344466
0.357502
0.355118
0.37769
0.36273
0.37888
0.387869
0.374956
0.370434
0.385997
0.391839
0.388243
0.391686
0.393211
0.405326
0.403767
0.401044
0.401555
0.403365
0.412493
0.427578
0.448455
0.463941
0.476189
0.50787
0.53011
0.55606
0.662264
0.768008
0.829155
0.847414
0.935499
1.04293
1.22979
1.27955
1.31248
1.38338
1.37242
1.37707
1.26929
1.01849
0.943692
0.877207
0.830344
0.873944
0.845949
0.885385
0.89166
0.87671
0.793922
0.72162
0.716121
0.727467
0.727994
0.793666
0.92557
0.999925
1.0286
1.05748
1.27054
1.25847
1.12764
1.13898
1.1584
1.21403
1.33638
1.3372
1.34562
1.41954
1.77097
1.80766
1.7538
1.60585
1.48665
1.55085
1.69737
2.17075
13.8927
2.97066
0.669488
0.241832
0.205468
0.233296
0.29613
0.283197
0.217761
0.200092
0.195849
0.184524
0.169048
0.16479
0.163468
0.163858
0.164991
0.164379
0.16458
0.16588
0.166086
0.166496
0.168207
0.172516
0.179869
0.184658
0.191607
0.202105
0.217833
0.245746
0.286883
0.381867
0.434949
0.44038
0.388366
0.356518
0.341948
0.312577
0.265179
0.25483
0.253147
0.246282
0.226181
0.185893
0.163619
0.154027
0.15125
0.151162
0.151923
0.161055
0.198635
0.221819
0.227224
0.225948
0.226883
0.232682
0.247233
0.288374
0.340201
0.374433
0.387244
0.366593
0.324277
0.281895
0.256381
0.246822
0.248456
0.296466
0.608291
0.873769
0.881587
0.708093
0.540421
0.485199
0.445985
0.355321
0.283065
0.254276
0.245932
0.238852
0.222762
0.210602
0.205695
0.202968
0.200644
0.199652
0.199759
0.202889
0.211846
0.227808
0.23923
0.244274
0.242495
0.239318
0.243697
0.253305
0.257438
0.258873
0.253508
0.256716
0.282634
0.318722
0.321771
0.327712
0.342721
0.320784
0.352677
0.327337
0.333931
0.356656
0.350475
0.346412
0.363824
0.364096
0.370836
0.370435
0.37709
0.395305
0.397334
0.3925
0.393709
0.391331
0.398079
0.400425
0.411665
0.431732
0.444796
0.451913
0.489734
0.499051
0.542377
0.586475
0.701006
0.734205
0.803478
0.864012
0.897756
1.00664
1.02724
1.09345
1.10602
1.06889
0.958187
0.829892
0.782307
0.767794
0.71976
0.761462
0.728907
0.712557
0.718964
0.697624
0.644165
0.627166
0.638504
0.664253
0.688923
0.794846
0.923221
0.93227
0.979509
1.05867
1.40561
1.3946
1.15838
1.1563
1.25345
1.29238
1.39697
1.46525
1.43434
1.36949
1.54829
1.70101
1.6423
1.51241
1.409
1.36378
1.58724
2.21418
16.0021
3.41461
0.775254
0.250319
0.201294
0.224317
0.296221
0.290926
0.216545
0.187134
0.172282
0.154314
0.149166
0.148638
0.149868
0.150754
0.150954
0.153619
0.1563
0.158964
0.16026
0.160477
0.160598
0.162466
0.163634
0.159196
0.151977
0.152093
0.166292
0.185255
0.203184
0.235553
0.313285
0.377905
0.392888
0.355127
0.325158
0.277542
0.258926
0.258525
0.26677
0.26306
0.229664
0.184118
0.165507
0.157208
0.153588
0.15234
0.151743
0.156645
0.181802
0.219967
0.228422
0.227094
0.227514
0.232057
0.241716
0.269111
0.330631
0.388183
0.428104
0.437675
0.431964
0.413796
0.349304
0.294176
0.277515
0.300792
0.568503
0.873966
0.874604
0.682636
0.513743
0.458401
0.401833
0.31615
0.265676
0.246656
0.233825
0.211494
0.198918
0.19469
0.194261
0.192956
0.189013
0.185783
0.184633
0.18559
0.189178
0.199203
0.210979
0.219981
0.219017
0.213629
0.219278
0.22837
0.238073
0.239963
0.236398
0.242476
0.26648
0.272462
0.285042
0.282125
0.290939
0.27904
0.309632
0.30536
0.320152
0.334174
0.335177
0.33546
0.356325
0.355957
0.365107
0.359289
0.365916
0.380603
0.385814
0.3848
0.386779
0.386426
0.38804
0.389567
0.394764
0.401526
0.410056
0.421752
0.446516
0.45389
0.492402
0.506034
0.542016
0.562295
0.67516
0.755214
0.742521
0.814116
0.805849
0.831315
0.843343
0.822296
0.766239
0.73652
0.670283
0.65443
0.595043
0.62681
0.610598
0.589523
0.605655
0.59109
0.581799
0.585345
0.611741
0.641505
0.687894
0.841088
0.920071
0.928538
0.975424
1.07737
1.40994
1.47553
1.27123
1.29574
1.47462
1.47363
1.43936
1.50922
1.47751
1.3721
1.33221
1.44889
1.51396
1.44977
1.35579
1.29368
1.48668
2.13424
18.0322
3.95031
0.987541
0.278542
0.197147
0.204484
0.290711
0.300329
0.228251
0.185365
0.165437
0.144385
0.136122
0.133714
0.133809
0.136544
0.139505
0.141643
0.144097
0.144797
0.143475
0.140424
0.136711
0.133395
0.129456
0.127612
0.128539
0.134361
0.144841
0.155636
0.177146
0.192308
0.221021
0.282573
0.329405
0.342078
0.310067
0.270571
0.256706
0.258014
0.26864
0.268413
0.239961
0.187682
0.166951
0.159723
0.157639
0.157489
0.156556
0.154383
0.160163
0.191251
0.216282
0.218912
0.218958
0.222681
0.235537
0.266915
0.325453
0.382908
0.428274
0.448887
0.447115
0.442455
0.413045
0.349899
0.326152
0.341019
0.590104
0.881948
0.866081
0.65554
0.49338
0.439633
0.365397
0.28907
0.250701
0.235607
0.210457
0.192714
0.18704
0.186112
0.184923
0.180563
0.177248
0.176583
0.17756
0.17856
0.179817
0.181836
0.184968
0.190061
0.195479
0.198819
0.20927
0.216687
0.222619
0.224978
0.228153
0.236814
0.23963
0.252682
0.258891
0.254719
0.257426
0.264958
0.293826
0.298174
0.315806
0.324073
0.331613
0.333191
0.349085
0.349781
0.359947
0.352677
0.356588
0.367125
0.372632
0.378297
0.376128
0.378091
0.379532
0.382617
0.386303
0.386217
0.389342
0.392266
0.410154
0.410157
0.435409
0.468377
0.468981
0.4859
0.523546
0.55942
0.64454
0.672965
0.669664
0.715882
0.721838
0.710343
0.665037
0.62264
0.559053
0.558635
0.538213
0.553229
0.545696
0.542316
0.558293
0.552836
0.558974
0.572227
0.611984
0.64422
0.704774
0.897183
0.930004
0.946905
0.999061
1.16446
1.31738
1.48475
1.38672
1.45033
1.53992
1.51077
1.42094
1.49344
1.46803
1.37314
1.27113
1.27269
1.38214
1.35574
1.28913
1.27726
1.48216
1.71343
19.913
4.41979
1.32388
0.351294
0.201019
0.180826
0.258032
0.313233
0.268674
0.202847
0.172846
0.14661
0.135495
0.131893
0.131121
0.134056
0.137799
0.138947
0.139138
0.137242
0.132971
0.128625
0.125156
0.12289
0.121719
0.121039
0.122687
0.128646
0.134144
0.139986
0.15439
0.172236
0.189275
0.207956
0.237207
0.26643
0.27552
0.259405
0.249428
0.249772
0.259141
0.262568
0.240817
0.188816
0.16425
0.155635
0.154018
0.154998
0.15618
0.154014
0.15229
0.154758
0.177015
0.194702
0.205041
0.217589
0.24498
0.311274
0.379651
0.425153
0.460135
0.479928
0.47957
0.471343
0.442702
0.417182
0.414615
0.480173
0.780548
0.887317
0.832886
0.587483
0.457515
0.404778
0.330695
0.268177
0.241179
0.217621
0.192991
0.181321
0.179002
0.177868
0.174456
0.171798
0.171
0.170713
0.172553
0.176064
0.179446
0.180334
0.179111
0.17939
0.183222
0.187099
0.196221
0.194732
0.197917
0.212202
0.21733
0.21856
0.227888
0.235315
0.240307
0.242818
0.248404
0.262559
0.292317
0.300315
0.316247
0.320619
0.329534
0.330918
0.33277
0.33881
0.347344
0.3449
0.347666
0.351058
0.360849
0.367432
0.365541
0.367264
0.370099
0.373647
0.377961
0.375844
0.378042
0.373877
0.378347
0.386381
0.392438
0.431318
0.424705
0.453823
0.456551
0.473746
0.543037
0.529589
0.545003
0.587409
0.580338
0.579048
0.549973
0.539445
0.517676
0.519187
0.515083
0.524519
0.523312
0.526208
0.537588
0.543246
0.554569
0.573108
0.628
0.673066
0.773303
0.94232
1.00579
1.01732
1.11488
1.31727
1.27169
1.44548
1.54272
1.55054
1.50259
1.46942
1.28786
1.32203
1.38903
1.34826
1.27238
1.20212
1.28884
1.2458
1.22968
1.3112
1.48655
1.4945
21.5104
4.55435
1.72611
0.519625
0.228108
0.179633
0.194263
0.297201
0.30334
0.267542
0.210897
0.16952
0.146377
0.136953
0.133164
0.134568
0.138944
0.140722
0.140548
0.138151
0.133555
0.128591
0.124716
0.122559
0.121921
0.120662
0.121969
0.128096
0.135809
0.137569
0.139925
0.147551
0.170606
0.187525
0.194638
0.201672
0.207804
0.216869
0.230303
0.235649
0.236402
0.234729
0.218063
0.180285
0.15613
0.147913
0.145316
0.143938
0.143584
0.144325
0.14372
0.141389
0.142127
0.161923
0.185605
0.209912
0.259692
0.356429
0.433325
0.477862
0.500448
0.510908
0.510721
0.505887
0.501861
0.506574
0.555511
0.739932
0.840264
0.851297
0.721149
0.500298
0.417334
0.36801
0.30126
0.25226
0.231036
0.204805
0.18252
0.172896
0.171221
0.170145
0.167627
0.165421
0.16455
0.166456
0.170764
0.176237
0.18137
0.180127
0.175949
0.175261
0.1745
0.174053
0.172611
0.171543
0.178223
0.199747
0.203445
0.207759
0.221529
0.228343
0.229092
0.233628
0.245485
0.272743
0.291992
0.306515
0.317727
0.320207
0.325029
0.325221
0.32341
0.329637
0.329152
0.336317
0.339196
0.342662
0.348664
0.347368
0.350584
0.352042
0.357315
0.36234
0.366685
0.370742
0.368017
0.366116
0.366083
0.368104
0.377209
0.407277
0.401281
0.43801
0.430349
0.446873
0.493718
0.481836
0.500199
0.510384
0.517646
0.517899
0.504791
0.502706
0.499685
0.503399
0.507781
0.514089
0.51721
0.522831
0.531587
0.544244
0.558821
0.587379
0.688514
0.758268
0.818347
1.0276
1.11239
1.12011
1.24893
1.39909
1.28159
1.37921
1.68354
1.61836
1.36787
1.27523
1.12835
1.10121
1.18989
1.26424
1.25757
1.19469
1.19079
1.16848
1.21122
1.52596
1.56831
1.50953
22.6619
4.53794
1.80282
0.834743
0.312946
0.201222
0.184249
0.219534
0.291552
0.298842
0.288642
0.245443
0.193823
0.163541
0.148984
0.141546
0.140576
0.141577
0.142039
0.141243
0.13895
0.134149
0.12822
0.125373
0.126163
0.124628
0.122026
0.124043
0.137863
0.149114
0.141307
0.146962
0.155909
0.179677
0.191137
0.192746
0.193477
0.200039
0.217015
0.225104
0.225314
0.219271
0.1928
0.167532
0.154626
0.147654
0.144854
0.140928
0.131214
0.122892
0.120676
0.122921
0.124532
0.130939
0.161666
0.196434
0.26228
0.365919
0.450709
0.504301
0.536526
0.547857
0.548395
0.55009
0.559876
0.600036
0.688792
0.763647
0.794836
0.757979
0.551054
0.420336
0.374883
0.333196
0.27586
0.237585
0.219156
0.193638
0.173628
0.165796
0.165875
0.166155
0.163847
0.160417
0.160259
0.164557
0.169817
0.173008
0.178015
0.178235
0.175326
0.173656
0.171897
0.170617
0.164635
0.163293
0.170507
0.190015
0.194073
0.202166
0.216105
0.220578
0.223924
0.231574
0.252903
0.288591
0.303939
0.313949
0.316354
0.319992
0.320031
0.314424
0.306543
0.312021
0.311221
0.324969
0.331798
0.336945
0.339609
0.333523
0.334744
0.332447
0.33645
0.344283
0.353497
0.3618
0.356948
0.360255
0.356361
0.355181
0.367873
0.37228
0.388274
0.424695
0.420434
0.433058
0.453213
0.458978
0.477809
0.479035
0.489421
0.489222
0.485642
0.487012
0.49245
0.499973
0.507326
0.513173
0.51826
0.525445
0.53441
0.553898
0.576507
0.633693
0.77021
0.852262
0.880816
1.08029
1.133
1.22934
1.32386
1.44574
1.28694
1.34704
1.65822
1.59463
1.28756
1.14404
1.04626
1.01108
1.05824
1.16106
1.21169
1.18502
1.11669
1.12737
1.27586
1.65556
1.66256
1.5563
23.4963
4.51773
1.72633
0.988059
0.501206
0.269447
0.20592
0.20533
0.239291
0.290896
0.303909
0.299828
0.283622
0.250227
0.21048
0.17509
0.158401
0.150092
0.14644
0.143304
0.141393
0.140337
0.135483
0.133061
0.135326
0.135828
0.133862
0.137484
0.143227
0.152355
0.158767
0.161398
0.170927
0.182919
0.192715
0.194482
0.193276
0.197835
0.2126
0.2192
0.218084
0.209284
0.183227
0.162648
0.155424
0.153847
0.153284
0.1454
0.130313
0.117861
0.111088
0.107897
0.107427
0.112218
0.131591
0.176543
0.257119
0.365769
0.455142
0.514248
0.556441
0.584714
0.598433
0.605107
0.616896
0.649218
0.699788
0.723334
0.715855
0.58395
0.42917
0.36017
0.336117
0.307125
0.259739
0.228858
0.213318
0.190378
0.171347
0.162205
0.162394
0.163755
0.162839
0.160026
0.159717
0.163227
0.169266
0.17055
0.17527
0.176687
0.175615
0.172577
0.170382
0.167407
0.158586
0.158214
0.162379
0.175851
0.185471
0.199813
0.21407
0.216652
0.22077
0.235431
0.277292
0.297567
0.308566
0.318648
0.320735
0.324594
0.323571
0.315488
0.299037
0.285381
0.283277
0.300776
0.316215
0.328696
0.332587
0.326597
0.323408
0.316141
0.317237
0.3199
0.335182
0.345487
0.345327
0.350241
0.345054
0.347645
0.354549
0.351573
0.36857
0.395328
0.408146
0.424478
0.42338
0.442006
0.455659
0.462259
0.471713
0.470346
0.475978