/*--------------------------------*- C++ -*----------------------------------*\
| =========                 |                                                 |
| \\      /  F ield         | OpenFOAM: The Open Source CFD Toolbox           |
|  \\    /   O peration     | Version:  dev                                   |
|   \\  /    A nd           | Web:      http://www.openfoam.org               |
|    \\/     M anipulation  |                                                 |
\*---------------------------------------------------------------------------*/
FoamFile
{
    version     2.0;
    format      ascii;
    class       volScalarField;
    object      muSgs;
    location    "9.127";
}
// * * * * * * * * * * * * * * * * * * * * * * * * * * * * * * * * * * * * * //

dimensions      [1 -1 -1 0 0 0 0];

internalField   nonuniform List<scalar> 
12225
(
0.000223757
0.000228962
0.000175842
0.000184998
0.000165718
0.00019535
0.000186041
0.000216345
0.000203507
0.000241121
0.000219317
0.000273902
0.000240381
0.000314133
0.000295654
0.000343735
0.000446912
0.000553322
0.000101906
0.000191577
0.000171089
0.000189916
0.0001645
0.000183278
0.000167678
0.000182491
0.000173171
0.000181572
0.00017561
0.000176837
0.000172228
0.000164613
0.000162171
0.000165187
0.00017915
0.000205445
3.34664e-05
0.000123101
0.000128009
0.000157002
0.000141781
0.000152617
0.000142475
0.00014637
0.000141358
0.00013592
0.00013526
0.00012282
0.000124231
0.000109459
0.000107447
0.000106994
0.00013327
0.000193014
1.14032e-05
6.1648e-05
7.12845e-05
8.83013e-05
0.000101231
0.000100083
0.000108401
0.000101465
0.000107811
9.63465e-05
9.79469e-05
8.5872e-05
8.61949e-05
7.7913e-05
7.76398e-05
8.32256e-05
0.000114168
0.000205748
6.16251e-06
3.53972e-05
4.28353e-05
5.42715e-05
6.93998e-05
7.06312e-05
7.82575e-05
7.50238e-05
7.83333e-05
7.22919e-05
7.23968e-05
6.48986e-05
6.51084e-05
6.01681e-05
6.23067e-05
6.97365e-05
9.94022e-05
0.000202589
8.29677e-06
2.56113e-05
3.02814e-05
3.69185e-05
4.69797e-05
4.82415e-05
5.40774e-05
5.27107e-05
5.63597e-05
5.29131e-05
5.47339e-05
4.96713e-05
5.19651e-05
4.8077e-05
4.94838e-05
5.9422e-05
9.86869e-05
0.000214955
8.76405e-06
1.40598e-05
2.17504e-05
2.39388e-05
3.15702e-05
3.20731e-05
3.7852e-05
3.72737e-05
4.1524e-05
3.98322e-05
4.20353e-05
3.94826e-05
4.14912e-05
3.94711e-05
4.0767e-05
4.56227e-05
8.17648e-05
0.000135434
7.73619e-06
1.07059e-05
1.57218e-05
1.76673e-05
2.22037e-05
2.32744e-05
2.67453e-05
2.72072e-05
3.00249e-05
2.98687e-05
3.09982e-05
3.05903e-05
3.14943e-05
3.13337e-05
3.22471e-05
3.43114e-05
4.64333e-05
6.73281e-05
7.32492e-06
1.29326e-05
1.69703e-05
1.99021e-05
2.34448e-05
2.51347e-05
2.74558e-05
2.86427e-05
3.05843e-05
3.12209e-05
3.1974e-05
3.24822e-05
3.28195e-05
3.33788e-05
3.38936e-05
3.46066e-05
4.02869e-05
4.80473e-05
6.89172e-06
1.87545e-05
2.10085e-05
2.64667e-05
2.77133e-05
3.02779e-05
3.11618e-05
3.29036e-05
3.37784e-05
3.51026e-05
3.54215e-05
3.62532e-05
3.63284e-05
3.67405e-05
3.67187e-05
3.69086e-05
3.93295e-05
4.08198e-05
9.54922e-06
2.68631e-05
2.97772e-05
3.71856e-05
3.80131e-05
4.17875e-05
4.11421e-05
4.24682e-05
4.20762e-05
4.28526e-05
4.26564e-05
4.32661e-05
4.27752e-05
4.28011e-05
4.2249e-05
4.18427e-05
4.2103e-05
4.21883e-05
1.97969e-05
4.26108e-05
4.56933e-05
5.352e-05
5.44477e-05
5.81075e-05
5.79193e-05
5.91784e-05
5.84413e-05
5.8745e-05
5.77217e-05
5.73352e-05
5.61276e-05
5.50939e-05
5.36239e-05
5.23006e-05
5.08364e-05
4.93985e-05
4.38044e-05
6.72438e-05
7.05766e-05
7.82045e-05
7.86857e-05
8.08299e-05
7.96771e-05
7.91501e-05
7.76057e-05
7.64331e-05
7.47038e-05
7.31112e-05
7.11432e-05
6.86095e-05
6.63412e-05
6.41405e-05
6.21914e-05
6.0358e-05
7.55449e-05
9.93493e-05
0.000104286
0.000108825
0.000107543
0.000106743
0.000104603
0.000102999
0.00010082
9.87991e-05
9.63274e-05
9.35752e-05
9.00792e-05
8.67442e-05
8.34049e-05
8.04505e-05
7.74755e-05
7.4974e-05
0.000110838
0.000138912
0.000148621
0.000152158
0.000150279
0.0001477
0.00014415
0.000139657
0.000133978
0.000128696
0.000122839
0.000117447
0.000111607
0.000106535
0.000101253
9.69885e-05
9.23865e-05
8.89141e-05
0.00015892
0.000187715
0.000193686
0.00019269
0.000188691
0.000183615
0.000175915
0.000167633
0.0001591
0.000151165
0.00014308
0.000135823
0.000128353
0.00012202
0.000115422
0.000110137
0.000104414
0.0001001
0.000189624
0.000220093
0.000224337
0.000221353
0.000216343
0.000209847
0.000199809
0.00018928
0.000178767
0.000169078
0.000159421
0.000150868
0.00014226
0.000135008
0.000127483
0.000121464
0.000114978
0.000109996
0.000194992
0.000224866
0.000229132
0.000226175
0.000221027
0.000214312
0.000203885
0.000192846
0.000181907
0.000171852
0.000161901
0.000153085
0.000144259
0.000136829
0.000129137
0.000122975
0.000116346
0.000111189
0.000173268
0.000205692
0.000211724
0.000210145
0.000205557
0.000199649
0.000190635
0.00018059
0.00017048
0.000161129
0.000151816
0.000143556
0.000135293
0.000128325
0.000121106
0.000115303
0.000109041
0.000104142
0.000135637
0.000167255
0.000178072
0.000180361
0.000178248
0.00017417
0.000168855
0.000161603
0.000153057
0.000144972
0.000136767
0.000129549
0.000122276
0.000116208
0.00010983
0.000104717
9.90702e-05
9.45831e-05
0.00010152
0.000126712
0.000136131
0.000138858
0.000137837
0.000134981
0.000131827
0.000128061
0.000122833
0.000117272
0.000111349
0.000106342
0.000101065
9.67768e-05
9.18434e-05
8.79934e-05
8.33819e-05
7.95607e-05
7.00791e-05
8.98566e-05
9.90862e-05
0.000104129
0.000106053
0.000105675
0.000103587
0.000100923
9.74028e-05
9.24729e-05
8.71691e-05
8.2379e-05
7.78201e-05
7.42614e-05
7.09561e-05
6.83585e-05
6.55401e-05
6.3206e-05
4.71997e-05
6.27416e-05
6.93577e-05
7.42343e-05
7.67101e-05
7.68727e-05
7.54274e-05
7.35155e-05
7.13656e-05
6.94217e-05
6.74532e-05
6.55449e-05
6.36276e-05
6.18819e-05
6.01696e-05
5.85742e-05
5.69086e-05
5.53545e-05
3.01254e-05
4.08221e-05
4.62895e-05
4.93822e-05
5.2315e-05
5.46813e-05
5.632e-05
5.74964e-05
5.83898e-05
5.89427e-05
5.88195e-05
5.82907e-05
5.74634e-05
5.65062e-05
5.54539e-05
5.43101e-05
5.31128e-05
5.18471e-05
1.88485e-05
2.5093e-05
2.9342e-05
3.55916e-05
4.09969e-05
4.56066e-05
4.9221e-05
5.21684e-05
5.45102e-05
5.59744e-05
5.66028e-05
5.66798e-05
5.63352e-05
5.57618e-05
5.49752e-05
5.414e-05
5.30939e-05
5.20506e-05
8.7338e-06
1.58299e-05
2.35732e-05
3.39738e-05
4.2384e-05
4.9122e-05
5.41509e-05
5.80025e-05
6.11512e-05
6.31161e-05
6.4155e-05
6.44996e-05
6.45382e-05
6.42821e-05
6.3569e-05
6.29271e-05
6.1954e-05
6.10973e-05
5.79346e-06
2.10437e-05
3.98693e-05
5.78468e-05
6.96054e-05
7.76515e-05
8.28122e-05
8.61984e-05
8.88128e-05
8.96059e-05
8.96919e-05
8.9094e-05
8.8629e-05
8.79977e-05
8.66651e-05
8.54521e-05
8.39826e-05
8.22078e-05
1.76258e-05
6.21535e-05
0.000103043
0.000123143
0.000132361
0.000136632
0.000138026
0.000137825
0.000136698
0.000134632
0.000131681
0.000128358
0.000125427
0.000122157
0.000118328
0.000114627
0.000110633
0.000105745
7.82991e-05
0.000175271
0.000208104
0.000212977
0.000207734
0.00020058
0.00019299
0.00018574
0.000179237
0.000172941
0.000165923
0.000159786
0.000153761
0.000147953
0.00014224
0.000136684
0.000130669
0.000120874
0.000252023
0.000285188
0.000256209
0.000218583
0.000198264
0.000190078
0.00018735
0.000187795
0.000189267
0.000190753
0.00019199
0.000192561
0.000192443
0.000192098
0.000191446
0.000189558
0.000185904
0.000177196
3.04813e-05
3.76465e-05
4.06454e-05
4.19608e-05
4.31674e-05
4.53315e-05
4.81249e-05
5.17879e-05
5.58502e-05
6.02575e-05
6.51515e-05
7.03504e-05
7.56747e-05
8.11484e-05
8.69587e-05
9.30357e-05
9.92589e-05
0.000105704
0.000112236
0.00011854
0.000124749
0.000130775
0.000136442
0.000141484
0.000145922
0.000149933
0.000153537
0.000157017
0.000160759
0.000164907
0.000169199
0.000173411
0.000178173
0.000183062
0.000187218
0.000190986
0.000194488
0.000197558
0.000200464
0.000203774
0.00020735
0.000212012
0.000218175
0.000225276
0.000232691
0.000240685
0.000250458
0.000260969
0.000270918
0.000281687
0.000296013
0.000312532
0.000324853
0.000329416
0.000330273
0.000329549
0.000328713
0.000325022
0.000320201
0.000318643
0.000319096
0.000318211
0.000315558
0.00031343
0.000310579
0.000309958
0.000309849
0.000306225
0.000305537
0.000309211
0.000322537
0.000338613
0.000346474
0.000345784
0.00033549
0.000329327
0.000325974
0.00031979
0.000310151
0.000302739
0.000300228
0.000301426
0.000304832
0.000309324
0.000313499
0.000316836
0.000319028
0.000318787
0.000315828
0.000311976
0.000306161
0.000298513
0.000290151
0.000278738
0.000263024
0.000245765
0.000232489
0.000224316
0.000214546
0.000204332
0.000197415
0.000183722
0.000180538
0.000173106
0.000169562
0.000167765
0.000167275
0.000168299
0.00017021
0.000173535
0.000177874
0.000183361
0.000188538
0.00019439
0.000199857
0.000207667
0.00021365
0.000220163
0.000226318
0.000233118
0.000240599
0.00025323
0.000268508
0.000282828
0.00029863
0.000318013
0.000336111
0.000350498
0.000363512
0.000377854
0.000393258
0.000410319
0.00042744
0.000445722
0.000463234
0.000476902
0.00049262
0.000508351
0.000523729
0.000538536
0.000551838
0.000560994
0.000565995
0.000564623
0.000561938
0.000553913
0.000548993
0.000541722
0.000532756
0.000525331
0.000509796
0.000499334
0.000471142
0.000457186
0.00042529
0.000406356
0.00038919
0.000377599
0.00037199
0.000374063
0.000384095
0.000394251
0.000409905
0.000430876
0.00044995
0.000453803
0.000451182
0.000426241
0.000407075
0.000385171
0.000383313
0.000385595
0.000402326
0.000431136
0.00044968
0.00047321
0.000481276
0.000482758
0.000480904
0.000476213
5.43882e-05
4.0381e-05
3.81836e-05
3.71696e-05
3.66841e-05
3.73396e-05
3.87286e-05
4.07725e-05
4.28683e-05
4.50987e-05
4.75362e-05
5.00137e-05
5.25737e-05
5.50593e-05
5.77356e-05
6.04339e-05
6.30479e-05
6.56242e-05
6.77888e-05
6.92937e-05
7.01979e-05
7.04898e-05
7.03136e-05
6.92909e-05
6.76648e-05
6.61205e-05
6.44663e-05
6.3511e-05
6.31775e-05
6.2962e-05
6.28831e-05
6.31298e-05
6.38582e-05
6.40523e-05
6.35372e-05
6.24916e-05
6.1575e-05
6.16462e-05
6.20065e-05
6.27837e-05
6.35092e-05
6.44015e-05
6.58571e-05
6.73762e-05
6.83846e-05
7.0093e-05
7.23329e-05
7.56649e-05
7.95994e-05
8.31742e-05
8.71602e-05
9.46713e-05
0.000110258
0.000137609
0.000161159
0.000181793
0.000195805
0.000196169
0.000192723
0.000186905
0.000183187
0.000177099
0.000171163
0.000163041
0.00014794
0.000139551
0.000135341
0.000124611
0.000115395
0.000114722
0.000119314
0.000127942
0.000145502
0.000155962
0.000166863
0.000197248
0.000230063
0.000250347
0.000259078
0.000260371
0.000254972
0.000248292
0.000239523
0.000229349
0.000218179
0.000206442
0.000193795
0.000179523
0.000168161
0.000157975
0.000149853
0.000142005
0.000133434
0.000123994
0.000117435
0.00011592
0.000117081
0.000116156
0.000112095
0.000110905
0.000111514
0.000110839
0.000112232
0.000108033
0.000111951
0.000113852
0.000115577
0.000116631
0.000118785
0.000121591
0.000125656
0.000130356
0.000134949
0.000139692
0.000143751
0.00014924
0.0001545
0.000160899
0.000165805
0.000169326
0.000173637
0.000180175
0.000188341
0.000195405
0.000204219
0.000217261
0.000231495
0.000240746
0.000243866
0.000246082
0.000253616
0.000266642
0.000285879
0.000304147
0.000325784
0.000341501
0.000359155
0.000378967
0.000390338
0.00039948
0.000399586
0.000395149
0.000388385
0.000382813
0.000380979
0.000377808
0.000378007
0.00037734
0.000376361
0.000374122
0.00036792
0.000362178
0.000346505
0.000341509
0.000327199
0.000325609
0.000316342
0.000309094
0.00031036
0.000307473
0.000311498
0.000314267
0.000319097
0.00032747
0.000349267
0.000372556
0.000395893
0.0003987
0.000389154
0.000363665
0.000358551
0.000347251
0.000350681
0.000352402
0.000355417
0.000354056
0.000355262
0.000362522
0.000374796
0.000387262
8.5563e-05
4.40335e-05
3.50519e-05
3.2979e-05
3.23271e-05
3.25399e-05
3.36229e-05
3.52511e-05
3.68704e-05
3.86067e-05
4.01768e-05
4.16251e-05
4.36241e-05
4.47784e-05
4.54464e-05
4.69092e-05
4.8379e-05
4.92762e-05
4.96481e-05
4.9677e-05
4.96198e-05
4.931e-05
4.90211e-05
4.86909e-05
4.8271e-05
4.75925e-05
4.68445e-05
4.62189e-05
4.55589e-05
4.45646e-05
4.35332e-05
4.31231e-05
4.30423e-05
4.32115e-05
4.38598e-05
4.501e-05
4.64677e-05
4.8505e-05
4.98762e-05
5.04893e-05
5.06773e-05
5.04612e-05
4.98781e-05
4.97444e-05
4.97117e-05
4.98947e-05
5.13054e-05
5.36442e-05
5.58536e-05
5.65657e-05
5.64608e-05
5.79886e-05
6.04965e-05
6.27467e-05
7.03223e-05
8.04084e-05
9.57813e-05
0.000116294
0.000131462
0.000137426
0.000139039
0.00013643
0.000129497
0.000118301
0.000101585
8.85077e-05
8.12162e-05
7.88755e-05
8.0404e-05
8.64608e-05
9.68303e-05
0.00011086
0.000135725
0.000164602
0.000191742
0.000204882
0.000208425
0.000201321
0.000190135
0.000178458
0.000166428
0.000155176
0.000143006
0.000130816
0.000120061
0.000109564
9.97784e-05
9.3283e-05
8.8704e-05
8.60347e-05
8.48108e-05
8.38929e-05
8.24345e-05
8.14042e-05
8.15999e-05
8.46825e-05
8.95345e-05
9.16737e-05
9.13517e-05
9.02494e-05
9.12288e-05
9.21639e-05
9.15595e-05
8.88552e-05
9.03652e-05
9.32312e-05
9.46572e-05
9.59139e-05
9.57096e-05
9.56133e-05
9.74119e-05
0.000100083
0.000103505
0.000108782
0.000112517
0.000115859
0.000120807
0.000128468
0.000137205
0.000143297
0.000144504
0.000146407
0.000152005
0.000156267
0.000158834
0.000164951
0.000174702
0.000181466
0.000183447
0.000181979
0.000184671
0.000198266
0.000218714
0.000236218
0.000256332
0.000276925
0.000292522
0.000302571
0.000306581
0.00030916
0.000301929
0.000297276
0.000294389
0.00029228
0.000293851
0.000294638
0.000296142
0.000296833
0.000296781
0.000296845
0.000293925
0.000290982
0.000282886
0.000277522
0.000261364
0.000274036
0.000265785
0.000255001
0.000260241
0.000250758
0.000254823
0.000256397
0.000255533
0.000256015
0.000258049
0.000269376
0.000287525
0.000323846
0.000359097
0.000358669
0.00035108
0.000334778
0.000321329
0.000305611
0.000304046
0.000286763
0.000282726
0.000283966
0.000291629
0.00032302
0.000124977
5.38748e-05
3.53783e-05
3.25385e-05
3.17616e-05
3.15821e-05
3.26896e-05
3.45986e-05
3.64289e-05
3.88836e-05
4.11292e-05
4.20069e-05
4.20277e-05
4.25015e-05
4.31948e-05
4.32882e-05
4.39013e-05
4.41277e-05
4.42619e-05
4.47888e-05
4.52112e-05
4.62639e-05
4.72776e-05
4.86309e-05
4.99532e-05
5.07457e-05
5.11497e-05
5.12629e-05
5.0608e-05
4.8535e-05
4.49944e-05
4.24148e-05
4.17215e-05
4.16918e-05
4.20795e-05
4.34007e-05
4.56703e-05
4.84835e-05
4.99899e-05
5.06335e-05
5.07342e-05
5.00373e-05
4.83392e-05
4.7054e-05
4.59654e-05
4.55514e-05
4.60277e-05
4.78112e-05
4.86628e-05
4.92988e-05
5.067e-05
5.12758e-05
5.188e-05
5.36007e-05
5.46489e-05
5.63493e-05
5.97966e-05
6.56765e-05
7.88948e-05
9.38863e-05
0.000105055
0.000107876
0.000106853
0.000101688
8.87366e-05
7.86671e-05
7.32757e-05
7.29104e-05
8.03582e-05
0.00010425
0.000122894
0.000136325
0.000154133
0.000167234
0.000172075
0.00016992
0.000157842
0.000146735
0.000135674
0.000124849
0.000115104
0.000106248
9.72962e-05
9.00631e-05
8.39979e-05
7.82737e-05
7.44761e-05
7.29616e-05
7.27998e-05
7.32872e-05
7.43609e-05
7.57588e-05
7.66775e-05
7.75198e-05
7.87768e-05
8.1292e-05
8.56066e-05
8.96462e-05
9.22162e-05
9.14267e-05
9.16434e-05
9.09651e-05
9.02703e-05
8.98978e-05
8.88238e-05
9.10102e-05
9.18653e-05
9.53704e-05
9.38451e-05
9.17447e-05
9.12935e-05
9.18914e-05
9.25977e-05
9.51202e-05
9.98521e-05
0.000101345
0.000102033
0.000106063
0.00011472
0.000124576
0.000129672
0.000130017
0.000132918
0.000140996
0.000144033
0.000146463
0.000156806
0.000165464
0.000166259
0.0001611
0.00016112
0.000175805
0.000194941
0.00021185
0.000222513
0.000241226
0.000256305
0.000260955
0.000260967
0.000262908
0.000257372
0.00025604
0.000256389
0.000256567
0.000260436
0.00026311
0.000263353
0.000264692
0.000261524
0.000264595
0.000261157
0.000260929
0.000254899
0.000253973
0.000228835
0.000240413
0.000240292
0.00022735
0.000232342
0.000218626
0.000220652
0.000229349
0.000227656
0.000232407
0.00023054
0.000224861
0.000231445
0.000247115
0.000277341
0.000322411
0.000339042
0.00033213
0.000305199
0.000284641
0.00028106
0.000263643
0.000265804
0.00026753
0.000261332
0.000287401
0.000163658
6.91727e-05
3.80725e-05
3.24779e-05
3.13697e-05
3.16877e-05
3.33594e-05
3.56871e-05
3.85092e-05
4.15541e-05
4.16991e-05
4.0356e-05
4.07604e-05
4.16542e-05
4.17929e-05
4.23716e-05
4.24029e-05
4.27099e-05
4.33796e-05
4.47351e-05
4.62641e-05
4.84867e-05
5.10448e-05
5.26751e-05
5.45097e-05
5.55723e-05
5.60143e-05
5.62789e-05
5.62298e-05
5.50958e-05
5.23504e-05
4.75337e-05
4.4065e-05
4.35625e-05
4.39982e-05
4.61683e-05
4.98951e-05
5.2777e-05
5.33304e-05
5.27682e-05
5.17642e-05
5.09154e-05
4.88425e-05
4.62074e-05
4.46665e-05
4.39973e-05
4.41942e-05
4.47744e-05
4.50368e-05
4.64745e-05
4.77852e-05
4.71178e-05
4.73605e-05
5.03638e-05
5.16168e-05
5.15538e-05
5.19506e-05
5.31326e-05
5.64487e-05
6.34485e-05
7.65256e-05
8.38073e-05
8.60768e-05
8.57744e-05
8.22026e-05
7.46355e-05
7.17823e-05
7.44525e-05
9.30573e-05
0.000118305
0.000130138
0.000140224
0.00014397
0.000144828
0.000139264
0.000130512
0.000120855
0.000111254
0.000102431
9.44592e-05
8.81551e-05
8.22117e-05
7.68186e-05
7.33856e-05
7.05604e-05
6.82071e-05
6.72863e-05
6.73577e-05
6.8042e-05
6.90452e-05
7.04941e-05
7.25871e-05
7.41414e-05
7.54793e-05
7.67717e-05
7.82963e-05
8.05761e-05
8.43539e-05
8.81768e-05
8.87624e-05
8.97865e-05
8.67816e-05
9.03179e-05
9.07183e-05
8.96981e-05
9.07973e-05
9.05557e-05
9.6454e-05
9.52796e-05
9.27846e-05
9.14789e-05
9.14605e-05
9.12471e-05
9.16241e-05
9.30188e-05
9.7228e-05
9.9836e-05
0.000100292
0.000102704
0.00010693
0.000113652
0.000117402
0.00011866
0.000124006
0.000130383
0.000132644
0.000143518
0.000156829
0.000160112
0.000157388
0.00015661
0.000164041
0.000180703
0.000198398
0.000209246
0.000221369
0.00023237
0.000236322
0.000234196
0.000236777
0.000235576
0.000233358
0.000236005
0.00023916
0.000241837
0.000246708
0.000246356
0.000245444
0.000240582
0.000241804
0.00023719
0.000240446
0.000228035
0.000239792
0.000217797
0.000210008
0.000212453
0.000210102
0.000214632
0.000208694
0.000193751
0.000204194
0.000202999
0.00020712
0.000217566
0.000208399
0.00020622
0.000213989
0.000221004
0.000247819
0.00029288
0.000325222
0.000303787
0.000283772
0.000267678
0.000256546
0.000260727
0.00026543
0.000258542
0.000264767
0.000200669
9.13295e-05
4.3717e-05
3.4136e-05
3.19238e-05
3.20114e-05
3.46592e-05
3.91553e-05
4.30484e-05
4.29314e-05
4.0706e-05
4.0707e-05
4.15071e-05
4.17589e-05
4.21523e-05
4.22478e-05
4.2045e-05
4.28552e-05
4.353e-05
4.539e-05
4.76612e-05
4.94637e-05
5.15009e-05
5.26675e-05
5.39055e-05
5.49043e-05
5.5359e-05
5.58313e-05
5.62065e-05
5.59972e-05
5.44029e-05
5.07497e-05
4.81362e-05
4.80226e-05
4.92731e-05
5.32338e-05
5.56923e-05
5.59736e-05
5.48552e-05
5.25093e-05
5.11075e-05
5.04685e-05
4.918e-05
4.66707e-05
4.42139e-05
4.34818e-05
4.36871e-05
4.41348e-05
4.43469e-05
4.5493e-05
4.61692e-05
4.61029e-05
4.66462e-05
4.7403e-05
4.65406e-05
4.73976e-05
4.84207e-05
4.83491e-05
4.97132e-05
5.1657e-05
5.79427e-05
6.77619e-05
7.2536e-05
7.3041e-05
7.12042e-05
6.84502e-05
6.78126e-05
7.16071e-05
9.57479e-05
0.000121802
0.0001309
0.000131217
0.000125981
0.000117861
0.000110704
0.000103541
9.67838e-05
8.94814e-05
8.0986e-05
7.54318e-05
7.18327e-05
6.86363e-05
6.6545e-05
6.55581e-05
6.49059e-05
6.48576e-05
6.51428e-05
6.58262e-05
6.65829e-05
6.70168e-05
6.74247e-05
6.83023e-05
7.01333e-05
7.20236e-05
7.36974e-05
7.49446e-05
7.71493e-05
7.86551e-05
8.00604e-05
8.10338e-05
8.26595e-05
7.98057e-05
9.0139e-05
9.03741e-05
9.17121e-05
9.16929e-05
9.06831e-05
9.39544e-05
9.60679e-05
9.50458e-05
9.34785e-05
9.43819e-05
9.26266e-05
9.14546e-05
9.11539e-05
9.16623e-05
9.35933e-05
9.53334e-05
9.82188e-05
0.000100251
0.000101945
0.000106986
0.000108723
0.000109769
0.000116756
0.000122406
0.000124827
0.000137854
0.000151589
0.000157206
0.000154224
0.000155456
0.000167725
0.000189405
0.00019837
0.000206373
0.000210904
0.000217353
0.000220233
0.000220305
0.000222117
0.000220945
0.000218662
0.000222283
0.000223189
0.000228507
0.000229934
0.000229872
0.000224438
0.000226478
0.000214048
0.000219749
0.000202626
0.000210554
0.000205642
0.000195238
0.000180141
0.000179755
0.000188594
0.000199744
0.000194495
0.000188857
0.000186781
0.000180393
0.000194926
0.000196974
0.000189428
0.000198919
0.000200314
0.00020892
0.000231074
0.000279282
0.000294045
0.000286491
0.000263948
0.00024988
0.000252804
0.000260953
0.000261467
0.000253132
0.000233356
0.000112703
5.28279e-05
3.75435e-05
3.38488e-05
3.32721e-05
3.75955e-05
4.46335e-05
4.54449e-05
4.21065e-05
4.11126e-05
4.20812e-05
4.22917e-05
4.15026e-05
4.13574e-05
4.11984e-05
4.13308e-05
4.19266e-05
4.30649e-05
4.48746e-05
4.63642e-05
4.78078e-05
4.85903e-05
4.92032e-05
4.97257e-05
5.0631e-05
5.15282e-05
5.33628e-05
5.59304e-05
5.70311e-05
5.64476e-05
5.32263e-05
5.10653e-05
5.09197e-05
5.23402e-05
5.54311e-05
5.63796e-05
5.62186e-05
5.38716e-05
5.07931e-05
4.96023e-05
4.91186e-05
4.85386e-05
4.67353e-05
4.40148e-05
4.31534e-05
4.31798e-05
4.35688e-05
4.39611e-05
4.48773e-05
4.55459e-05
4.59523e-05
4.62908e-05
4.56586e-05
4.50882e-05
4.59411e-05
4.69499e-05
4.7013e-05
4.79452e-05
4.82239e-05
4.98871e-05
5.59312e-05
6.00413e-05
6.15365e-05
6.27287e-05
6.40332e-05
6.47747e-05
6.95561e-05
9.70091e-05
0.000119743
0.00012411
0.000119032
0.000108311
0.000100198
9.41715e-05
8.92191e-05
8.33218e-05
7.40682e-05
6.74199e-05
6.48743e-05
6.38798e-05
6.30544e-05
6.24883e-05
6.20198e-05
6.16509e-05
6.14935e-05
6.14696e-05
6.16509e-05
6.16817e-05
6.18394e-05
6.2502e-05
6.35254e-05
6.47706e-05
6.64872e-05
6.81566e-05
6.96204e-05
7.1724e-05
7.35807e-05
7.33333e-05
7.53709e-05
7.49092e-05
7.55806e-05
8.69471e-05
8.4265e-05
8.85328e-05
8.83354e-05
9.02085e-05
8.71752e-05
9.26868e-05
9.40877e-05
9.47659e-05
9.61179e-05
9.6646e-05
9.63641e-05
9.41011e-05
9.33111e-05
9.13134e-05
9.19667e-05
9.17374e-05
9.42224e-05
9.60967e-05
9.83386e-05
0.00010106
0.000106367
0.000106374
0.00011127
0.000115821
0.000121499
0.000131182
0.000143746
0.000151587
0.000152699
0.000153935
0.000172439
0.000189217
0.00019868
0.00020207
0.000202415
0.000205779
0.000207829
0.000208937
0.000210118
0.000204808
0.000204122
0.00019997
0.000197738
0.000200614
0.000206229
0.000199252
0.000205987
0.000195473
0.000195944
0.000184418
0.000185569
0.000181322
0.000181778
0.000166332
0.000157954
0.000158692
0.000172882
0.000182434
0.000180737
0.000183977
0.000174866
0.000176349
0.000184406
0.000176649
0.000188143
0.000195697
0.000199542
0.000200109
0.000239611
0.000262853
0.000285239
0.000262629
0.000238693
0.000242294
0.000250603
0.000257516
0.000256656
0.000262811
0.000129311
6.13112e-05
4.19027e-05
3.76154e-05
3.71945e-05
4.31298e-05
4.65673e-05
4.44291e-05
4.13818e-05
4.12951e-05
4.21049e-05
4.18819e-05
4.06893e-05
4.0175e-05
3.97496e-05
4.0023e-05
4.09717e-05
4.20036e-05
4.25091e-05
4.28054e-05
4.30376e-05
4.27399e-05
4.39556e-05
4.59186e-05
4.80704e-05
4.95874e-05
5.15839e-05
5.56298e-05
6.00288e-05
6.17719e-05
6.19581e-05
5.74994e-05
5.46152e-05
5.402e-05
5.54105e-05
5.61525e-05
5.58426e-05
5.2677e-05
5.04611e-05
4.9462e-05
4.87558e-05
4.78489e-05
4.59359e-05
4.2673e-05
4.13793e-05
4.12916e-05
4.15889e-05
4.25026e-05
4.47932e-05
4.62264e-05
4.63633e-05
4.59066e-05
4.56589e-05
4.59414e-05
4.66998e-05
4.68077e-05
4.76816e-05
4.90386e-05
4.93547e-05
5.04652e-05
5.28012e-05
5.3671e-05
5.4582e-05
5.7432e-05
5.95676e-05
6.07154e-05
6.66037e-05
9.52629e-05
0.000115511
0.000118072
0.000108741
9.67868e-05
9.07653e-05
8.65707e-05
8.14021e-05
7.18669e-05
6.40426e-05
6.14743e-05
6.11949e-05
6.10982e-05
6.06552e-05
5.97551e-05
5.88695e-05
5.85108e-05
5.84682e-05
5.86099e-05
5.89176e-05
5.93886e-05
6.05822e-05
6.20277e-05
6.33537e-05
6.42718e-05
6.53367e-05
6.71734e-05
6.8913e-05
6.98975e-05
7.04026e-05
7.08009e-05
7.26709e-05
7.25009e-05
7.80098e-05
8.22939e-05
8.17226e-05
8.43168e-05
8.36821e-05
8.98344e-05
8.39259e-05
8.86946e-05
8.85528e-05
8.84686e-05
8.9948e-05
9.15928e-05
9.29523e-05
9.30184e-05
9.41184e-05
9.38309e-05
9.20474e-05
9.00103e-05
8.92143e-05
8.93676e-05
9.20392e-05
9.45868e-05
9.93326e-05
0.000101779
0.000104541
0.000107468
0.000112157
0.00011583
0.000125887
0.000137067
0.000145406
0.000149538
0.000154372
0.000172637
0.000184592
0.000194302
0.000196285
0.000198371
0.000203241
0.000201234
0.000199708
0.000193325
0.000184628
0.000176844
0.000170886
0.000166192
0.00017678
0.000171879
0.000179538
0.00017977
0.000175473
0.000162855
0.000156606
0.000149142
0.00014899
0.000145997
0.000149683
0.000150777
0.000157326
0.000163309
0.000168827
0.000185207
0.000181061
0.000166561
0.000175814
0.00017375
0.000180907
0.000194732
0.000202876
0.000192654
0.000215098
0.00024031
0.000265774
0.000260899
0.000225696
0.000226583
0.00023704
0.00024976
0.000260786
0.00028907
0.000141815
6.80314e-05
4.42117e-05
4.0315e-05
4.17476e-05
4.81386e-05
4.77459e-05
4.20149e-05
4.07168e-05
4.08536e-05
4.07617e-05
3.91241e-05
3.82171e-05
3.78656e-05
3.81175e-05
3.86882e-05
3.89992e-05
3.95779e-05
3.93708e-05
3.88931e-05
3.953e-05
4.0108e-05
4.11592e-05
4.34661e-05
4.55093e-05
4.69993e-05
4.85224e-05
5.16332e-05
5.7086e-05
6.26614e-05
6.48923e-05
6.5216e-05
6.2196e-05
5.81981e-05
5.72815e-05
5.73511e-05
5.61153e-05
5.1818e-05
5.00469e-05
4.93808e-05
4.86837e-05
4.71298e-05
4.41562e-05
4.083e-05
3.95199e-05
3.9589e-05
3.99748e-05
4.07043e-05
4.31921e-05
4.73008e-05
4.86108e-05
4.85931e-05
4.81078e-05
4.83075e-05
4.93076e-05
5.11144e-05
5.50557e-05
5.6723e-05
5.62791e-05
5.53737e-05
5.42102e-05
5.34186e-05
5.31459e-05
5.33756e-05
5.44003e-05
5.58999e-05
6.27163e-05
9.20798e-05
0.000111043
0.000112862
0.000102211
9.06955e-05
8.59567e-05
8.20669e-05
7.39535e-05
6.41972e-05
6.0038e-05
5.95027e-05
5.95089e-05
5.85484e-05
5.68691e-05
5.54599e-05
5.52197e-05
5.56448e-05
5.61937e-05
5.67527e-05
5.74801e-05
5.86091e-05
6.05277e-05
6.2038e-05
6.29669e-05
6.34797e-05
6.40089e-05
6.52993e-05
6.63938e-05
6.66837e-05
6.69057e-05
6.78979e-05
6.85268e-05
7.14841e-05
7.78474e-05
7.94814e-05
8.01301e-05
8.41357e-05
7.98608e-05
8.77792e-05
8.23289e-05
8.59652e-05
8.58923e-05
8.47429e-05
8.36871e-05
8.61044e-05
8.58245e-05
8.72209e-05
8.81112e-05
9.08178e-05
9.23972e-05
9.14816e-05
8.87427e-05
8.7522e-05
8.66883e-05
8.84875e-05
9.0723e-05
9.50684e-05
9.80833e-05
0.000100417
0.000103854
0.000108415
0.000111371
0.000121298
0.000130584
0.000138997
0.000144382
0.000153532
0.000163142
0.00017616
0.000182153
0.000185558
0.000192054
0.000192342
0.000190615
0.00018248
0.000165908
0.000157502
0.000155531
0.000146898
0.000155351
0.000151829
0.000153689
0.000157452
0.000154475
0.000143573
0.000137555
0.000133757
0.000130901
0.000129649
0.000136802
0.000147677
0.000146247
0.000150823
0.000162222
0.000187452
0.000188287
0.000165966
0.000170359
0.000177508
0.00017971
0.000194146
0.000205708
0.000197382
0.00019858
0.000219245
0.000244541
0.000252869
0.000218085
0.000209279
0.000214575
0.000238237
0.000266975
0.00031291
0.000152724
7.49223e-05
4.52921e-05
4.07739e-05
4.21338e-05
4.88044e-05
4.83136e-05
4.12633e-05
3.97689e-05
3.96707e-05
3.86777e-05
3.73999e-05
3.70454e-05
3.67664e-05
3.6816e-05
3.71699e-05
3.71293e-05
3.73568e-05
3.78761e-05
3.80398e-05
3.82607e-05
3.87803e-05
3.9322e-05
4.01818e-05
4.0689e-05
4.15958e-05
4.30168e-05
4.49388e-05
4.77229e-05
5.17396e-05
6.01164e-05
6.3833e-05
6.42598e-05
6.03805e-05
5.81626e-05
5.70343e-05
5.41694e-05
5.05969e-05
4.97976e-05
4.97254e-05
4.88941e-05
4.64994e-05
4.20471e-05
3.99652e-05
3.88096e-05
3.86108e-05
3.89714e-05
3.95986e-05
4.15185e-05
4.65613e-05
4.91287e-05
4.95287e-05
4.92989e-05
4.9502e-05
5.05743e-05
5.27456e-05
5.73588e-05
6.27647e-05
6.59139e-05
6.72984e-05
6.52085e-05
6.19831e-05
5.83279e-05
5.46824e-05
5.41284e-05
5.49961e-05
6.0727e-05
8.93385e-05
0.000108977
0.000110034
9.83797e-05
8.73145e-05
8.30122e-05
7.82721e-05
6.82151e-05
6.08739e-05
5.88033e-05
5.82337e-05
5.67762e-05
5.4198e-05
5.28709e-05
5.28613e-05
5.32644e-05
5.35281e-05
5.3655e-05
5.3801e-05
5.43864e-05
5.57757e-05
5.807e-05
5.97466e-05
6.07521e-05
6.10747e-05
6.12943e-05
6.21979e-05
6.32166e-05
6.33548e-05
6.36376e-05
6.41254e-05
6.56954e-05
7.05889e-05
7.5383e-05
7.61447e-05
7.57703e-05
7.84458e-05
7.38326e-05
8.00226e-05
7.54468e-05
7.76582e-05
8.03017e-05
8.06135e-05
7.96544e-05
8.30261e-05
8.30308e-05
8.36217e-05
8.3309e-05
8.53133e-05
8.82129e-05
9.04129e-05
8.88635e-05
8.80524e-05
8.66561e-05
8.63358e-05
8.61086e-05
8.83491e-05
9.10787e-05
9.46357e-05
9.61584e-05
0.000101037
0.000103057
0.000109631
0.000113738
0.000122803
0.000129768
0.000137879
0.00014623
0.000151687
0.000159741
0.000164037
0.000171145
0.000172025
0.000169664
0.000160551
0.000150463
0.000142462
0.000142488
0.000134509
0.000140177
0.000137147
0.000134045
0.000136918
0.000133359
0.000124601
0.000123155
0.000121494
0.000122264
0.000126856
0.000136611
0.000145882
0.000137889
0.000143015
0.000165238
0.000198215
0.000198638
0.000174425
0.000170861
0.000184402
0.000187759
0.00019677
0.000210534
0.000209093
0.000196026
0.000200131
0.000224095
0.000241682
0.000218068
0.000203913
0.000196728
0.000219803
0.000256105
0.00033411
0.000163102
8.10013e-05
4.64676e-05
4.05817e-05
4.1429e-05
4.87605e-05
4.83902e-05
4.09901e-05
3.84984e-05
3.72896e-05
3.50611e-05
3.46106e-05
3.48303e-05
3.5143e-05
3.54665e-05
3.56498e-05
3.61522e-05
3.65294e-05
3.69848e-05
3.74164e-05
3.75016e-05
3.76823e-05
3.79203e-05
3.81045e-05
3.76757e-05
3.7205e-05
3.76386e-05
3.96567e-05
4.1681e-05
4.3844e-05
4.74844e-05
5.47237e-05
5.98778e-05
6.08946e-05
5.78905e-05
5.53956e-05
5.12773e-05
5.0326e-05
5.03751e-05
5.09234e-05
5.01858e-05
4.669e-05
4.19452e-05
4.03518e-05
3.95923e-05
3.90467e-05
3.89103e-05
3.8988e-05
4.01808e-05
4.41489e-05
4.8679e-05
4.9267e-05
4.8898e-05
4.91344e-05
5.0195e-05
5.2046e-05
5.57222e-05
6.24197e-05
6.77965e-05
7.11795e-05
7.22609e-05
7.22248e-05
7.10345e-05
6.38276e-05
5.90527e-05
5.87151e-05
6.10599e-05
8.56077e-05
0.00010806
0.000108939
9.62813e-05
8.49426e-05
8.0204e-05
7.36744e-05
6.41777e-05
5.92996e-05
5.7602e-05
5.56889e-05
5.24125e-05
5.11003e-05
5.13078e-05
5.17473e-05
5.16581e-05
5.1008e-05
5.05133e-05
5.04879e-05
5.09611e-05
5.19739e-05
5.38848e-05
5.59113e-05
5.75271e-05
5.82214e-05
5.86763e-05
6.0255e-05
6.12912e-05
6.17533e-05
6.20543e-05
6.29919e-05
6.58322e-05
6.96178e-05
7.12669e-05
7.15148e-05
7.07724e-05
6.99043e-05
6.93376e-05
7.17259e-05
7.17221e-05
7.31032e-05
7.52659e-05
7.61771e-05