/*--------------------------------*- C++ -*----------------------------------*\
| =========                 |                                                 |
| \\      /  F ield         | OpenFOAM: The Open Source CFD Toolbox           |
|  \\    /   O peration     | Version:  dev                                   |
|   \\  /    A nd           | Web:      http://www.openfoam.org               |
|    \\/     M anipulation  |                                                 |
\*---------------------------------------------------------------------------*/
FoamFile
{
    version     2.0;
    format      ascii;
    class       volScalarField;
    object      p;
    location    "9.127";
}
// * * * * * * * * * * * * * * * * * * * * * * * * * * * * * * * * * * * * * //

dimensions      [1 -1 -2 0 0 0 0];

internalField   nonuniform List<scalar> 
12225
(
98604.1
98570.2
98519.7
98455
98369.1
98270
98152.5
98026.2
97882.3
97735.8
97570.8
97407.8
97222.2
97035.6
96811.2
96588.5
96248.1
95596
98608.3
98578
98527.8
98463
98376.7
98277.4
98159.8
98033.5
97889.4
97742.9
97577.6
97414.6
97229.3
97040.9
96820.2
96600.3
96244
95842.4
98626.8
98596.6
98546.7
98481
98394.3
98294.8
98176.8
98050.5
97906.2
97759.3
97594.2
97430.1
97246.3
97053.9
96838.4
96614.2
96291.9
95942.4
98656.7
98628.4
98579.1
98512.5
98425.8
98325.4
98207.1
98080.2
97936.5
97788.2
97623.8
97457.9
97275.4
97080.3
96863.7
96643.1
96330.7
96043.7
98705.2
98677.2
98628.5
98560.9
98475.4
98372.6
98254.3
98126.2
97983.4
97833.4
97670
97501.4
97320.8
97124.8
96913.7
96692.2
96395.6
96133.1
98777.6
98751.8
98698.6
98630
98541.1
98440.6
98321.6
98193
98049.7
97899.2
97736.2
97565.6
97386
97190.8
96988.6
96771.8
96502.1
96232.4
98872.7
98847.5
98795.3
98725.3
98637.2
98534.7
98415.9
98285.4
98142.8
97990.4
97828.6
97655.8
97477.8
97284.5
97089.2
96877
96655.2
96387.9
98984.5
98957.6
98906.2
98834.5
98746.4
98642.4
98523.7
98391.5
98249.1
98095.4
97934
97760.3
97584.3
97394.4
97203.8
96998.9
96798.4
96580.5
99105.7
99077
99024.5
98952.7
98864.2
98759.3
98640.1
98506.7
98364.1
98209.5
98048.2
97874.2
97699
97512.5
97325.6
97129.9
96942.3
96756.9
99264.6
99235.2
99181
99110.6
99021.6
98915.1
98794.9
98660
98516.7
98361.2
98199.4
98025.7
97850.5
97667.4
97484
97297.5
97120.4
96950.9
99479.9
99447.1
99393.6
99321.3
99230.9
99122.4
99000.4
98863.9
98718.7
98562
98398.4
98225.7
98049.8
97870.2
97689.7
97511.4
97338.9
97177.5
99761.7
99729.1
99676.3
99601.3
99508.7
99397.3
99272.6
99133.4
98985.4
98826.7
98661.1
98488.1
98311.6
98133.9
97956.4
97782.5
97613
97453
100136
100104
100049
99972
99875.5
99760.7
99631.5
99488.9
99335.9
99174.1
99005.4
98831.5
98653.6
98475.9
98299.2
98126.2
97957.7
97796.2
100628
100598
100541
100459
100358
100238
100102
99953.8
99794.7
99627.3
99454.3
99277.2
99096.5
98916
98737.3
98562.2
98391.3
98225.7
101281
101245
101183
101096
100987
100859
100715
100558
100390
100215
100034
99850.5
99664.1
99477.6
99292.9
99111.9
98935.3
98762.8
102130
102083
102011
101915
101795
101656
101500
101331
101151
100963
100771
100576
100380
100184
99989.2
99797.6
99610.3
99427.2
103179
103135
103055
102946
102812
102658
102485
102300
102103
101899
101690
101478
101266
101054
100845
100638
100435
100236
104382
104326
104236
104113
103962
103789
103597
103390
103173
102948
102717
102485
102252
102020
101791
101565
101343
101125
105520
105456
105355
105218
105050
104858
104646
104418
104180
103933
103682
103428
103174
102922
102673
102427
102186
101950
106473
106414
106306
106157
105975
105766
105536
105290
105032
104766
104496
104224
103951
103681
103414
103152
102894
102641
107265
107204
107089
106930
106735
106511
106266
106004
105730
105448
105161
104873
104586
104301
104020
103743
103471
103204
107900
107835
107714
107547
107341
107106
106847
106572
106285
105990
105690
105390
105090
104793
104500
104212
103929
103651
108399
108326
108200
108026
107812
107567
107299
107013
106715
106410
106100
105790
105480
105174
104872
104575
104283
103996
108769
108697
108567
108388
108168
107917
107640
107346
107040
106727
106409
106091
105775
105461
105152
104848
104549
104256
109047
108972
108838
108654
108430
108173
107891
107590
107278
106959
106636
106312
105990
105672
105357
105048
104744
104446
109252
109169
109030
108843
108615
108354
108068
107764
107447
107124
106797
106469
106143
105821
105503
105190
104882
104581
109392
109303
109161
108971
108741
108478
108189
107882
107562
107236
106906
106576
106247
105922
105601
105286
104976
104673
109480
109389
109244
109052
108821
108556
108265
107957
107635
107307
106975
106643
106313
105986
105664
105347
105036
104731
109531
109437
109290
109098
108865
108600
108309
107999
107676
107347
107014
106681
106350
106022
105699
105381
105069
104764
109556
109459
109311
109117
108884
108618
108327
108016
107694
107364
107031
106697
106366
106037
105714
105396
105083
104777
102520
102518
102513
102505
102495
102483
102469
102452
102433
102412
102389
102363
102335
102305
102274
102240
102206
102171
102135
102098
102061
102025
101989
101954
101921
101888
101858
101830
101805
101782
101762
101746
101733
101725
101720
101720
101724
101732
101744
101760
101780
101802
101828
101857
101889
101925
101964
102007
102053
102103
102155
102212
102273
102337
102405
102478
102555
102639
102730
102829
102934
103047
103166
103294
103431
103577
103730
103893
104065
104245
104433
104629
104834
105051
105281
105522
105770
106026
106289
106561
106843
107134
107431
107733
108040
108350
108663
108978
109298
109618
109939
110261
110581
110899
111212
111522
111828
112130
112428
112718
113001
113282
113544
113806
114035
114273
114494
114696
114878
115039
115177
115290
115375
115431
115458
115456
115426
115369
115289
115187
115067
114937
114802
114672
114552
114449
114367
114306
114264
114244
114250
114283
114345
114432
114539
114661
114791
114923
115050
115165
115261
115340
115402
115452
115490
115517
115532
115531
115517
115486
115433
115364
115278
115193
115103
115029
114960
114909
114870
114834
114799
114768
114735
114696
114642
114559
114445
114299
114105
113850
113520
113099
112573
111942
111227
110430
109586
108716
107811
106908
102419
102417
102412
102405
102396
102384
102371
102355
102337
102317
102294
102270
102243
102214
102184
102152
102118
102084
102049
102014
101978
101943
101909
101875
101843
101812
101783
101757
101733
101711
101693
101678
101667
101660
101657
101658
101664
101673
101687
101704
101725
101749
101776
101807
101841
101878
101919
101964
102012
102064
102118
102177
102239
102305
102375
102450
102532
102619
102712
102811
102917
103032
103154
103283
103421
103569
103724
103887
104059
104239
104427
104624
104831
105049
105279
105521
105769
106026
106291
106563
106844
107132
107427
107727
108030
108339
108650
108964
109279
109596
109915
110234
110552
110867
111178
111485
111789
112090
112385
112674
112953
113232
113487
113744
113980
114212
114427
114626
114805
114962
115096
115205
115286
115339
115363
115358
115325
115266
115184
115080
114958
114825
114688
114556
114433
114329
114248
114188
114147
114126
114131
114162
114222
114308
114414
114537
114665
114797
114924
115041
115137
115220
115288
115342
115387
115419
115440
115445
115434
115407
115359
115296
115218
115139
115058
114993
114930
114883
114851
114820
114788
114757
114725
114686
114630
114546
114432
114288
114097
113846
113519
113103
112583
111958
111247
110452
109610
108741
107837
106928
102222
102220
102216
102210
102202
102192
102180
102166
102149
102131
102110
102087
102061
102034
102006
101975
101944
101912
101879
101846
101813
101780
101748
101717
101687
101659
101634
101610
101589
101571
101555
101543
101535
101530
101530
101534
101542
101554
101571
101591
101614
101641
101671
101705
101742
101783
101827
101876
101928
101983
102042
102105
102170
102241
102315
102395
102480
102571
102668
102774
102885
103002
103128
103261
103403
103553
103711
103875
104047
104227
104417
104616
104826
105047
105277
105517
105768
106026
106291
106562
106840
107125
107415
107710
108010
108313
108619
108928
109239
109552
109865
110180
110494
110804
111112
111415
111715
112012
112303
112587
112860
113138
113382
113636
113872
114098
114307
114498
114670
114818
114943
115044
115117
115161
115177
115163
115121
115053
114964
114854
114728
114589
114448
114313
114186
114077
113994
113938
113900
113881
113886
113917
113975
114059
114161
114282
114412
114545
114671
114790
114892
114982
115063
115126
115180
115226
115256
115275
115272
115255
115217
115163
115101
115037
114969
114920
114870
114832
114813
114791
114764
114737
114705
114667
114609
114523
114409
114265
114079
113835
113516
113108
112598
111987
111290
110501
109665
108796
107892
106976
101936
101936
101932
101927
101920
101912
101902
101889
101875
101858
101838
101817
101794
101769
101743
101716
101687
101658
101628
101598
101568
101539
101511
101484
101459
101436
101414
101395
101379
101364
101353
101345
101341
101340
101343
101351
101363
101380
101400
101424
101452
101483
101517
101555
101597
101642
101691
101745
101802
101863
101928
101996
102067
102144
102225
102311
102402
102501
102605
102716
102833
102959
103090
103228
103375
103530
103691
103858
104031
104216
104410
104613
104826
105047
105283
105525
105773
106027
106289
106556
106829
107108
107392
107681
107974
108271
108571
108873
109178
109485
109793
110100
110408
110713
111015
111313
111608
111898
112183
112461
112726
112994
113243
113485
113715
113933
114138
114319
114480
114618
114733
114823
114886
114918
114921
114894
114840
114759
114654
114530
114394
114248
114097
113951
113818
113700
113608
113551
113521
113509
113518
113547
113601
113684
113785
113899
114027
114161
114285
114410
114527
114628
114723
114803
114872
114938
114982
115013
115026
115021
115002
114967
114923
114885
114843
114806
114777
114759
114752
114744
114725
114703
114671
114635
114578
114488
114373
114228
114044
113811
113506
113111
112614
112027
111347
110576
109752
108881
107970
107051
101571
101571
101569
101565
101559
101552
101543
101533
101520
101504
101486
101468
101448
101427
101405
101381
101357
101331
101305
101279
101254
101229
101206
101185
101165
101147
101131
101118
101106
101097
101091
101089
101089
101094
101102
101115
101132
101154
101179
101209
101241
101277
101317
101360
101407
101458
101514
101574
101638
101706
101778
101852
101931
102016
102106
102199
102299
102405
102516
102636
102763
102896
103037
103183
103336
103497
103663
103833
104013
104204
104404
104613
104830
105056
105287
105526
105772
106023
106279
106541
106808
107080
107357
107638
107924
108213
108505
108799
109096
109395
109695
109995
110294
110591
110886
111177
111465
111746
112023
112294
112550
112807
113051
113283
113503
113709
113900
114072
114226
114353
114457
114537
114587
114606
114595
114554
114485
114388
114269
114129
113975
113819
113659
113498
113352
113224
113111
113035
113010
113012
113025
113054
113102
113178
113280
113391
113511
113646
113780
113911
114048
114165
114270
114374
114466
114551
114625
114665
114700
114708
114708
114701
114688
114667
114673
114656
114643
114652
114662
114678
114672
114653
114623
114580
114526
114438
114321
114179
113996
113772
113483
113113
112635
112072
111412
110666
109859
108993
108073
107147
101134
101136
101136
101133
101128
101121
101114
101106
101095
101081
101067
101052
101036
101019
101001
100981
100960
100939
100918
100897
100877
100859
100841
100826
100812
100800
100791
100784
100778
100776
100776
100780
100787
100798
100812
100831
100853
100880
100912
100947
100985
101027
101073
101124
101178
101235
101298
101366
101438
101514
101593
101677
101766
101860
101957
102061
102172
102286
102407
102535
102670
102813
102964
103120
103282
103450
103624
103801
103987
104184
104391
104604
104824
105050
105282
105519
105762
106008
106258
106512
106773
107037
107306
107579
107855
108135
108418
108704
108992
109281
109572
109863
110153
110442
110728
111011
111288
111560
111826
112087
112335
112581
112814
113034
113240
113431
113604
113760
113905
114019
114110
114176
114214
114221
114197
114140
114053
113940
113802
113646
113477
113303
113133
112967
112803
112662
112538
112431
112373
112373
112404
112439
112481
112545
112644
112759
112876
113004
113153
113300
113445
113587
113702
113820
113949
114049
114156
114232
114287
114325
114351
114359
114390
114395
114428
114460
114472
114500
114524
114562
114590
114580
114559
114505
114443
114365
114245
114113
113937
113720
113444
113103
112657
112118
111479
110762
109977
109124
108201
107270
100639
100641
100643
100642
100638
100633
100627
100620
100612
100602
100592
100581
100569
100556
100541
100526
100510
100494
100479
100464
100450
100438
100426
100417
100410
100405
100402
100402
100404
100409
100417
100428
100442
100458
100478
100502
100530
100564
100602
100644
100689
100738
100791
100849
100911
100977
101047
101123
101204
101288
101377
101471
101570
101674
101783
101898
102018
102143
102276
102414
102559
102712
102872
103037
103208
103386
103568
103753
103946
104150
104363
104581
104803
105030
105262
105498
105736
105976
106219
106468
106721
106978
107238
107501
107768
108038
108311
108587
108865
109144
109424
109705
109985
110263
110540
110812
111080
111340
111595
111842
112083
112317
112535
112742
112932
113106
113267
113400
113523
113617
113687
113734
113756
113749
113713
113646
113548
113416
113260
113084
112897
112703
112516
112337
112168
112009
111880
111765
111670
111622
111643
111696
111747
111797
111882
112001
112133
112263
112411
112577
112728
112879
113027
113165
113321
113447
113557
113677
113764
113835
113920
113953
114012
114058
114105
114176
114238
114302
114347
114384
114442
114461
114462
114407
114326
114258
114146
114017
113859
113655
113389
113072
112661
112157
111544
110852
110099
109262
108351
107424
100100
100103
100105
100106
100104
100101
100098
100092
100086
100080
100074
100067
100059
100051
100041
100030
100020
100010
100000
99991.5
99983.6
99977.6
99972.7
99969.6
99968.9
99970.3
99974.5
99981.7
99991.6
100005
100021
100039
100059
100082
100107
100136
100171
100211
100257
100306
100360
100416
100476
100542
100612
100686
100765
100849
100939
101033
101132
101236
101346
101460
101581
101708
101839
101977
102121
102270
102426
102589
102758
102933
103114
103301
103491
103685
103886
104097
104316
104537
104762
104992
105224
105457
105690
105925
106162
106405
106651
106900
107151
107405
107663
107921
108182
108447
108713
108981
109249
109519
109787
110055
110320
110581
110837
111084
111327
111563
111792
112010
112215
112405
112579
112736
112886
112998
113095
113165
113212
113236
113233
113199
113143
113058
112951
112810
112644
112450
112242
112028
111817
111613
111434
111265
111117
111001
110907
110827
110792
110817
110884
110947
111016
111119
111249
111403
111558
111735
111914
112073
112250
112429
112598
112753
112879
112993
113136
113225
113352
113446
113535
113633
113716
113804
113908
114026
114119
114157
114228
114285
114305
114264
114169
114103
114016
113883
113742
113564
113318
113017
112637
112182
111608
110937
110216
109401
108517
107600
99532.5
99535.9
99539.4
99542.1
99542.8
99542
99540.8
99538.6
99535.4
99532.6
99529.6
99526
99521.8
99517.1
99512
99507.3
99502.8
99498.7
99495.4
99493
99491.3
99491.2
99492.7
99495.5
99500.6
99508.1
99518.6
99532.2
99548.8
99568.9
99592.4
99618.6
99646.6
99676.2
99708.3
99744.2
99785.3
99832.2
99884.1
99940
99999.9
100064
100132
100206
100284
100366
100453
100546
100644
100748
100858
100974
101095
101220
101352
101490
101634
101784
101940
102101
102269
102442
102621
102806
102996
103191
103390
103593
103803
104021
104245
104471
104699
104930
105162
105392
105621
105851
106084
106321
106559
106798
107039
107282
107527
107776
108027
108279
108534
108789
109046
109303
109560
109815
110069
110318
110561
110796
111025
111248
111462
111662
111849
112019
112171
112311
112428
112532
112611
112664
112691
112692
112665
112607
112521
112408
112276
112121
111945
111741
111518
111286
111051
110824
110614
110429
110267
110128
110032
109960
109902
109871
109896
109972
110053
110153
110266
110412
110584
110766
110971
111170
111362
111587
111772
111916
112111
112220
112386
112513
112655
112809
112951
113105
113246
113375
113517
113664
113797
113865
113955
114061
114086
114054
113972
113894
113840
113713
113581
113430
113225
112942
112591
112185
111661
111020
110322
109536
108681
107782
98951.5
98955.6
98960.2
98964.4
98967.2
98968.9
98970.2
98971
98971.8
98972.7
98973.1
98972.7
98972.4
98972.3
98972.5
98973.1
98974.1
98975.6
98977.5
98980.3
98984.3
98989.1
98995.6
99003.9
99014.3
99027.4
99043.4
99062.7
99085.3
99111.4
99141.6
99175.1
99210.8
99248.2
99287.7
99330.1
99377.1
99429.7
99487.9
99550.8
99618
99689.5
99766.1
99847.3
99933.3
100024
100119
100219
100325
100438
100558
100685
100817
100953
101095
101244
101400
101562
101731
101905
102084
102268
102457
102652
102851
103054
103264
103476
103693
103918
104147
104377
104608
104840
105071
105298
105524
105751
105979
106208
106437
106667
106898
107130
107365
107604
107843
108084
108326
108570
108814
109058
109302
109545
109787
110026
110257
110479
110694
110902
111099
111283
111449
111599
111730
111850
111937
112024
112084
112117
112120
112098
112045
111967
111854
111716
111551
111368
111170
110951
110718
110472
110218
109972
109735
109519
109337
109181
109052
108979
108920
108885
108863
108900
108974
109086
109212
109344
109519
109716
109918
110146
110358
110597
110810
110966
111186
111335
111523
111709
111881
112078
112273
112477
112668
112856
113058
113224
113365
113508
113638
113783
113804
113768
113733
113647
113596
113506
113381
113244
113094
112846
112526
112160
111690
111092
110421
109662
108825
107952
98370.5
98375.1
98380.7
98385.9
98390.5
98394.8
98399.4
98403.6
98407.6
98411.5
98415.6
98419.4
98423.1
98427.1
98431.6
98436.8
98442
98447.8
98454.1
98460.9
98468.8
98478
98488.9
98502.2
98517.7
98535.7
98557
98581.9
98610
98641.9
98677.9
98717.5
98759.9
98804.7
98851.3
98899.9
98952.3
99010.5
99075.1
99146
99221.2
99299.6
99382.4
99470.1
99562.7
99661
99764.2
99872.2
99985.8
100106
100234
100371
100513
100660
100811
100970
101136
101309
101489
101674
101864
102060
102260
102466
102676
102888
103107
103330
103556
103786
104018
104251
104485
104718
104948
105173
105396
105620
105843
106064
106285
106507
106730
106953
107179
107405
107633
107861
108091
108322
108553
108784
109015
109244
109473
109701
109919
110128
110328
110521
110702
110866
111014
111145
111261
111362
111441
111503
111537
111544
111520
111472
111389
111281
111139
110976
110779
110566
110340
110093
109845
109578
109315
109052
108796
108557
108345
108166
108014
107913
107831
107804
107786
107789
107827
107919
108054
108192
108356
108564
108773
108997
109223
109461
109716
109911
110152
110348
110566
110808
111023
111267
111514
111754
111994
112231
112475
112672
112841
113079
113275
113422
113429
113393
113418
113357
113270
113228
113132
113006
112903
112712
112436
112108
111684
111138
110510
109780
108953
108108
97803
97807.9
97814.2
97821
97827.3
97833.4
97840.1
97847.7
97855
97861.8
97868.7
97876.1
97883.8
97891.5
97899.1
97907.1
97915.5
97924.2
97933.4
97943.5
97955
97968.1
97983.1
98000.3
98019.7
98042.1
98068.1
98097.8
98130.9
98167.7
98208.5
98253.2
98301.2
98352.5
98406
98460.9
98518.9
98582.7
98652.6
98729.1
98810.4
98895.6
98984.5
99078
99176.3
99280.4
99390.7
99506.8
99628.4
99755.4
99889.3
100033
100185
100343
100504
100671
100846
101028
101217
101411
101610
101816
102027
102242
102462
102687
102917
103148
103380
103616
103854
104091
104327
104560
104789
105013
105234
105454
105671
105886
106101
106315
106529
106742
106958
107174
107391
107608
107825
108043
108263
108482
108698
108914
109130
109345
109551
109746
109931
110107
110270
110416
110546
110659
110762
110843
110908
110949
110956
110935
110885
110808
110700
110559
110386
110192
109966
109724
109464
109186
108913
108621
108342
108062
107791
107539
107302
107101
106922
106799
106692
106631
106633
106616
106655
106717
106823
106984
107106
107311
107534
107749
107995
108239
108525
108771
109038
109285
109535
109818
110072
110363
110651
110919
111214
111500
111761
112005
112256
112555
112808
112947
112948
112917
112975
112970
112858
112847
112806
112708
112641
112520
112304
112029
111639
111149
110576
109885
109088
108275
97262.9
97267.5
97274.2
97282.4
97291.3
97299.7
97307.7
97316.9
97326.8
97336.1
97345
97354.2
97364.1
97374.8
97385.7
97396.8
97408.3
97420.1
97432.2
97445
97459.2
97475
97492.7
97512.7
97535.4
97561.3
97590.9
97624.7
97662.1
97702.1
97745.6
97793.3
97845
97900.5
97959.2
98020.3
98083.5
98151.5
98225.1
98304.7
98389.4
98479.2
98574
98673.4
98778.1
98888.1
99003.9
99125.8
99254.4
99388.9
99528.7
99676.7
99835.3
100002
100172
100348
100532
100722
100919
101120
101327
101540
101759
101982
102211
102448
102687
102925
103166
103410
103652
103893
104131
104365
104592
104815
105034
105250
105462
105672
105881
106087
106291
106495
106701
106908
107116
107323
107528
107735
107943
108151
108356
108556
108758
108960
109152
109333
109504
109664
109809
109937
110050
110148
110233
110297
110341
110364
110333
110281
110198
110088
109953
109785
109590
109366
109116
108848
108552
108245
107937
107622
107317
107016
106727
106460
106208
105990
105791
105637
105520
105420
105404
105381
105440
105487
105546
105730
105852
106035
106249
106467
106729
106980
107277
107554
107842
108131
108419
108732
109028
109349
109662
109970
110311
110639
110916
111233
111590
111917
112166
112327
112367
112359
112395
112410
112355
112369
112381
112342
112313
112251
112115
111904
111546
111120
110606
109951
109220
108444
96763.3
96767.3
96773.1
96781
96791.3
96802.2
96812.5
96822.9
96834.4
96846.1
96857.3
96868.4
96879.5
96891.4
96904.2
96917.4
96931.2
96945.6
96960.7
96976.4
96993.1
97011.3
97031.2
97053.5
97079
97107.7
97139.1
97174.5
97214.1
97256.5
97301.4
97349.8
97401.9
97457.8
97517.9
97582.2
97649.7
97720.4
97796.3
97877.7
97965
98057.4
98155.9
98259.9
98369.5
98485
98605.8
98732.4
98866.5
99007.7
99154
99306.2
99468.8
99641.5
99819.7
100003
100195
100393
100596
100804
101018
101238
101463
101693
101930
102174
102420
102667
102916
103165
103413
103657
103897
104130
104356
104578
104795
105007
105215
105420
105622
105821
106016
106212
106409
106607
106805
107002
107199
107394
107591
107788
107982
108170
108356
108543
108723
108889
109045
109188
109315
109426
109522
109605
109668
109710
109723
109708
109657
109573
109462
109320
109151
108955
108736
108486
108217
107928
107605
107275
106933
106592
106257
105930
105622
105332
105068
104831
104622
104440
104307
104188
104143
104109
104149
104196
104260
104414
104549
104729
104934
105160
105418
105674
105966
106258
106564
106882
107206
107537
107879
108216
108561
108920
109294
109648
109973
110368
110800
111142
111378
111557
111647
111693
111697
111696
111758
111819
111873
111913
111927
111908
111865
111709
111401
111054
110587
109971
109315
108581
96315
96318.7
96323.6
96329.7
96338.9
96350.1
96361.6
96373.3
96385.7
96399.1
96412.4
96425.5
96438.4
96451.4
96464.9
96478.9
96493.6
96508.9
96525.1
96542.1
96560.3
96580.4
96601.8
96625.7
96653.4
96684.6
96717.1
96751.3
96789.5
96831.5
96876.4
96925.2
96976.9
97031.4
97089.9
97153
97221.6
97293.9
97371.2
97453.7
97542.6
97637.3
97737.8
97844.6
97956.6
98075.2
98200
98330.1
98467.3
98613.2
98765.5
98922.5
99088.1
99265.1
99449.6
99639.7
99837.3
100042
100252
100467
100688
100914
101145
101381
101624
101871
102124
102379
102633
102886
103136
103382
103622
103854
104079
104299
104514
104724
104927
105127
105325
105519
105704
105891
106080
106268
106455
106643
106830
107017
107204
107392
107577
107753
107926
108099
108264
108417
108558
108685
108794
108887
108966
109028
109068
109078
109055
108997
108927
108823
108686
108517
108317
108090
107839
107563
107270
106960
106622
106276
105906
105541
105177
104823
104491
104175
103894
103636
103415
103215
103058
102934
102855
102809
102821
102861
102928
103050
103195
103368
103564
103797
104042
104306
104596
104897
105216
105555
105896
106250
106625
106976
107361
107765
108159
108555
108959
109409
109865
110214
110493
110674
110778
110875
110886
110919
111086
111206
111310
111427
111475
111506
111550
111425
111215
110942
110502
109963
109369
108678
95926.1
95929.8
95934.3
95939
95946.3
95956
95967.1
95979.1
95991.4
96004.3
96017.6
96031.4
96045.4
96059.3
96073.5
96087.9
96102.9
96118.5
96134.8
96151.9
96170
96189.8
96211.7
96235.2
96261.7
96292
96324.3
96357.9
96394.7
96434.5
96475.3
96521.6
96572
96624.8
96681.1
96741.6
96807.3
96878.6
96955.3
97037.8
97126.3
97221.4
97322.7
97430.9
97544.8
97664.7
97791.1
97923.8
98063.1
98210.7
98367
98528.5
98696.3
98875.4
99064.2
99259.3
99461.9
99672.2
99888.7
100111
100337
100569
100806
101048
101295
101546
101803
102060
102317
102570
102821
103067
103307
103538
103761
103979
104193
104399
104599
104793
104986
105174
105356
105535
105715
105894
106071
106252
106431
106610
106787
106964
107139
107305
107465
107623
107773
107912
108039
108149
108239
108314
108376
108418
108433
108419
108373
108292
108194
108059
107890
107690
107463
107208
106927
106623
106299
105959
105607
105245
104858
104474
104083
103707
103343
103005
102702
102418
102184
101968
101793
101657
101551
101495
101477
101504
101565
101659
101801
101961
102152
102383
102620
102890
103177
103480
103808
104159
104507
104892
105272
105649
106077
106502
106913
107384
107860
108335
108782
109137
109468
109677
109817
109943
110006
110125
110348
110515
110686
110863
110944
111054
111150
111068
110988
110751
110347
109919
109384
108748
95602.1
95605.6
95610.2
95615.1
95621.2
95629.3
95639
95649.9
95661.6
95673.5
95685.4
95697.5
95710
95722.8
95736.1
95749.7
95763.9
95778.7
95794.2
95810.3
95827.2
95845.4
95865.6
95887.2
95910.5
95936.8
95966.1
95997.2
96030.4
96066.7
96105.7
96147.4
96193.1
96239.8
96292.8
96349.9
96412.2
96480.1
96553.8
96634.1
96720.8
96814.4
96915
97022
97135.8
97256.1
97382.8
97516.2
97657.4
97805.3
97961.8
98126.5
98296.5
98475.3
98665.8
98864.4
99070.5
99284.9
99506
99732.3
99964.3
100202
100444
100691
100942
101196
101451
101708
101963
102217
102468
102713
102951
103181
103402
103618
103829
104033
104228
104418
104605
104789
104967
105141
105313
105486
105660
105830
105996
106166
106333
106500
106666
106822
106972
107115
107248
107374
107487
107580
107653
107711
107754
107775
107769
107734
107670
107571
107440
107272
107071
106842
106589
106310
106005
105676
105323
104952
104575
104191
103795
103393
102982
102584
102194
101835
101502
101200
100946
100710
100523
100366
100245
100170
100131
100144
100187
100265
100391
100536
100723
100941
101171
101439
101716
102019
102358
102702
103067
103466
103844
104266
104719
105147
105595
106146
106668
107138
107567
107953
108306
108574
108777
108945
109093
109300
109543
109746
109981
110196
110337
110543
110651
110673
110680
110455
110144
109808
109330
108766
95345.5
95348.5
95353.1
95358.5
95364.4
95371.5
95380
95389.2
95399
95408.9
95418.4
95427.8
95437.4
95447.3
95457.6
95468.3
95479.5
95491.6
95504
95517.4
95531.6
95546.6
95562.8
95581
95600.1
95621.3
95645.2
95671.1
95699
95729.7
95763.2
95799.8
95840.1
95881.8
95929.7
95982
96039.7
96103.1
96172.6
96248.6
96331.5
96421.2
96518.2
96621.6
96733
96851.7
96977.6
97110.5
97250.6
97398.5
97554.1
97719.1
97891.1
98068.6
98257.5
98457.5
98665
98880.8
99104.6
99334.2
99569
99809.4
100055
100304
100556
100811
101065
101320
101574
101826
102076
102321
102557
102784
103003
103216
103424
103625
103818
104004
104184
104361
104535
104704
104871
105036
105198
105356
105519
105683
105845
106004
106160
106306
106444
106573
106691
106804
106902
106979
107035
107078
107105
107106
107081
107027
106939
106813
106657
106451
106217
105962
105685
105386
105066
104720
104347
103954
103548
103137
102726
102307
101886
101468
101059
100680
100321
100003
99717.2
99467.3
99258.7
99081
98946.2
98849.3
98798.4
98791.8
98817.2
98884.6
98986
99120.9
99296
99489.6
99713.5
99971.2
100236
100543
100879
101211
101598
101990
102382
102841
103298
103736
104242
104844
105390
105841
106264
106700
107076
107397
107655
107882
108128
108405
108661
108908
109193
109432
109670
109949
110072
110226
110256
110082
109891
109613
109195
108707
95183.1
95186.8
95192.6
95199.3
95205.8
95212.8
95219.7
95227.1
95234.2
95241.2
95247.7
95254
95260.4
95267
95273.6
95280.5
95287.7
95295.7
95303.8
95313
95322.7
95332.9
95344.8
95358
95372
95387.6
95405.6
95425.6
95447.7
95472.2
95499.7
95530.9
95565.7
95603
95645
95691.9
95744.1
95801.4
95865.4
95935.7
96013.1
96097.6
96189.8
96289.2
96395.7
96510.1
96631.8
96762.4
96901.1
97047.1
97201.7
97364.3
97536.2
97714.1
97899
98096.4
98303.4
98518.2
98741.8
98972
99207.2
99447.4
99692.2
99940.6
100192
100445
100697
100949
101201
101452
101700
101944
102178
102402
102617
102827
103031
103230
103421
103603
103779
103950
104117
104282
104444
104604
104760
104914
105068
105225
105379
105530
105674
105810
105937
106054
106161
106263
106346
106408
106451
106480
106489
106474
106433
106358
106243
106086
105890
105669
105415
105139
104840
104523
104189
103831
103449
103043
102616
102183
101751
101315
100884
100451
100031
99631.1
99255.5
98917.3
98605.8
98339.9
98102.3
97908.8
97753.7
97640.7
97576
97545.7
97559.7
97608.5
97688.6
97811.5
97958.9
98133.2
98346.6
98581.9
98840.8
99145.9
99459.5
99793.3
100186
100563
100983
101454
101903
102363
102919
103531
104087
104521
104952
105431
105840
106207
106516
106808
107130
107446
107724
108033
108354
108622
108958
109268
109446
109695
109733
109661
109551
109335
108987
108557
95082.3
95089.5
95096.6
95104.6
95113.4
95120.7
95127.2
95133.2
95137.7
95142
95145.4
95148.8
95151.8
95154.9
95157.9
95161.1
95164.4
95168.2
95172.5
95177.2
95182.3
95187.7
95194.9
95203.2
95212.4
95222.9
95235.3
95250.1
95267
95286
95308.3
95334.4
95363.7
95395.8
95432.3
95473.6
95520.3
95570.5
95628.7
95693.5
95765.3
95845.3
95932.3
96027.6
96130
96240.1
96358.1
96484.2
96619.9
96763.2
96915.1
97075.2
97244.6
97422.8
97605.4
97798.2
98002.6
98215.1
98436.3
98665.3
98899.5
99138
99380.9
99626.7
99875.1
100125
100375
100624
100873
101120
101367
101608
101840
102062
102274
102479
102679
102874
103063
103243
103416
103582
103744
103903
104061
104216
104368
104520
104669
104813
104960