/*--------------------------------*- C++ -*----------------------------------*\
| =========                 |                                                 |
| \\      /  F ield         | OpenFOAM: The Open Source CFD Toolbox           |
|  \\    /   O peration     | Version:  dev                                   |
|   \\  /    A nd           | Web:      http://www.openfoam.org               |
|    \\/     M anipulation  |                                                 |
\*---------------------------------------------------------------------------*/
FoamFile
{
    version     2.0;
    format      ascii;
    class       surfaceScalarField;
    object      phi;
    location    "9.127";
}
// * * * * * * * * * * * * * * * * * * * * * * * * * * * * * * * * * * * * * //

dimensions      [1 0 -1 0 0 0 0];

internalField   nonuniform List<scalar> 
24170
(
2.54256e-06
8.0795e-07
1.9321e-06
3.88353e-07
1.87473e-06
-1.69403e-07
2.03891e-06
-3.96086e-07
2.27661e-06
-4.7404e-07
2.57403e-06
-5.38808e-07
2.80347e-06
-4.71755e-07
3.18681e-06
-6.27846e-07
3.41365e-06
-4.68356e-07
3.89263e-06
-7.19065e-07
4.16526e-06
-5.0371e-07
4.82472e-06
-8.84688e-07
5.18966e-06
-5.77855e-07
6.41482e-06
-1.42869e-06
6.59488e-06
-3.70187e-07
8.67213e-06
-2.23454e-06
1.28811e-05
-4.37651e-06
-7.49065e-06
2.01517e-05
4.30649e-06
2.57814e-07
3.87083e-06
5.73501e-07
3.67847e-06
-2.26167e-07
3.50683e-06
-4.81579e-07
3.56881e-06
-7.98085e-07
3.73369e-06
-9.74104e-07
3.93466e-06
-9.45963e-07
4.14222e-06
-1.11275e-06
4.47268e-06
-1.07554e-06
4.86812e-06
-1.3908e-06
5.40582e-06
-1.30926e-06
6.06583e-06
-1.80584e-06
6.86264e-06
-1.6253e-06
8.08771e-06
-2.88912e-06
8.97791e-06
-1.4813e-06
1.26985e-05
-6.13192e-06
1.56942e-05
-7.61011e-06
-7.96254e-06
1.58474e-05
5.16485e-06
-7.06732e-07
5.19029e-06
2.75486e-07
5.32364e-06
-6.31514e-07
5.25383e-06
-6.89928e-07
5.35458e-06
-1.18429e-06
5.48722e-06
-1.39684e-06
5.68765e-06
-1.44288e-06
6.02569e-06
-1.74698e-06
6.29612e-06
-1.64728e-06
6.95617e-06
-2.34474e-06
7.17366e-06
-1.82151e-06
8.271e-06
-3.18182e-06
8.36243e-06
-1.99437e-06
9.63035e-06
-4.40872e-06
1.00966e-05
-2.18436e-06
1.24322e-05
-8.69576e-06
1.35165e-05
-8.97671e-06
-8.61215e-06
1.38495e-05
5.55817e-06
-1.60838e-06
6.23377e-06
-6.96458e-07
6.55635e-06
-1.25413e-06
6.9704e-06
-1.40559e-06
7.04311e-06
-1.57045e-06
7.48108e-06
-2.14949e-06
7.51592e-06
-1.80138e-06
8.07774e-06
-2.62764e-06
8.1166e-06
-2.01067e-06
8.83508e-06
-3.37925e-06
8.84095e-06
-2.14228e-06
9.86836e-06
-4.50904e-06
9.95154e-06
-2.36958e-06
1.11377e-05
-5.87212e-06
1.14821e-05
-2.78109e-06
1.27878e-05
-1.02338e-05
1.39246e-05
-1.04121e-05
-9.78444e-06
1.47825e-05
5.75464e-06
-2.44475e-06
6.9947e-06
-2.25741e-06
7.26154e-06
-1.85034e-06
8.05558e-06
-2.52976e-06
8.12685e-06
-1.98392e-06
8.68602e-06
-3.05374e-06
8.74144e-06
-2.20885e-06
9.38032e-06
-3.61769e-06
9.34143e-06
-2.32132e-06
9.85559e-06
-4.23892e-06
9.91572e-06
-2.53906e-06
1.0584e-05
-5.50281e-06
1.08556e-05
-2.95413e-06
1.1679e-05
-6.99336e-06
1.24679e-05
-3.84357e-06
1.33775e-05
-1.13853e-05
1.38617e-05
-1.11815e-05
-1.31328e-05
1.68813e-05
6.37714e-06
-3.1986e-06
7.2536e-06
-3.48616e-06
7.3961e-06
-2.34993e-06
8.20015e-06
-3.69327e-06
8.3703e-06
-2.52238e-06
9.09077e-06
-4.15019e-06
9.2475e-06
-2.7462e-06
9.89022e-06
-4.63894e-06
9.99077e-06
-2.80092e-06
1.04581e-05
-5.07954e-06
1.05744e-05
-3.02209e-06
1.118e-05
-6.45926e-06
1.14791e-05
-3.59321e-06
1.23132e-05
-8.14638e-06
1.3405e-05
-5.2358e-06
1.34319e-05
-1.16834e-05
1.27979e-05
-1.07975e-05
-1.56248e-05
1.4957e-05
6.94316e-06
-4.25801e-06
7.83273e-06
-4.75534e-06
8.08905e-06
-2.99291e-06
8.87991e-06
-4.8728e-06
9.15071e-06
-3.18899e-06
9.8782e-06
-5.27914e-06
1.01024e-05
-3.37602e-06
1.07543e-05
-5.69526e-06
1.09812e-05
-3.43525e-06
1.17016e-05
-6.20116e-06
1.2201e-05
-3.91507e-06
1.27921e-05
-7.42569e-06
1.35213e-05
-4.68405e-06
1.39362e-05
-8.90639e-06
1.48922e-05
-6.51434e-06
1.385e-05
-1.0945e-05
1.18662e-05
-9.07917e-06
-1.41777e-05
1.01212e-05
5.54333e-06
-5.15305e-06
6.17785e-06
-5.67902e-06
6.44479e-06
-3.55337e-06
6.97275e-06
-5.69847e-06
7.30741e-06
-3.82477e-06
7.73758e-06
-6.01297e-06
8.01756e-06
-3.96282e-06
8.37328e-06
-6.35621e-06
8.76329e-06
-4.13249e-06
9.12836e-06
-6.87106e-06
9.66132e-06
-4.74654e-06
9.88529e-06
-7.93411e-06
1.06123e-05
-5.68301e-06
1.06327e-05
-9.18483e-06
1.11036e-05
-7.22767e-06
1.05161e-05
-1.05878e-05
9.98332e-06
-8.76116e-06
-1.24695e-05
8.0769e-06
6.52628e-06
-6.08183e-06
7.13113e-06
-6.61326e-06
7.47531e-06
-4.2259e-06
8.01043e-06
-6.57176e-06
8.44753e-06
-4.60173e-06
8.86657e-06
-6.77342e-06
9.30678e-06
-4.74699e-06
9.60907e-06
-7.00424e-06
1.01972e-05
-5.06356e-06
1.04791e-05
-7.49536e-06
1.11402e-05
-5.74244e-06
1.12425e-05
-8.35613e-06
1.19649e-05
-6.70708e-06
1.17812e-05
-9.28728e-06
1.22835e-05
-7.99593e-06
1.18246e-05
-1.03786e-05
1.20022e-05
-9.1716e-06
-1.11083e-05
1.04226e-05
7.65374e-06
-7.41372e-06
8.36246e-06
-7.69257e-06
8.95556e-06
-5.18001e-06
9.36002e-06
-7.35144e-06
9.91973e-06
-5.53869e-06
1.02361e-05
-7.46945e-06
1.0874e-05
-5.76189e-06
1.11287e-05
-7.64458e-06
1.18663e-05
-6.17704e-06
1.20575e-05
-8.05952e-06
1.28357e-05
-6.8819e-06
1.28485e-05
-8.71734e-06
1.36051e-05
-7.78677e-06
1.33741e-05
-9.3648e-06
1.39023e-05
-8.80815e-06
1.3378e-05
-1.01204e-05
1.3648e-05
-9.68067e-06
-1.02494e-05
1.25603e-05
8.93211e-06
-8.68194e-06
9.56351e-06
-8.73375e-06
1.04286e-05
-6.44021e-06
1.08201e-05
-8.15231e-06
1.14545e-05
-6.57847e-06
1.17512e-05
-8.17888e-06
1.24355e-05
-6.85379e-06
1.27136e-05
-8.33494e-06
1.34915e-05
-7.35833e-06
1.37618e-05
-8.72735e-06
1.44886e-05
-7.99365e-06
1.45561e-05
-9.15306e-06
1.51922e-05
-8.7639e-06
1.51068e-05
-9.60253e-06
1.54842e-05
-9.4803e-06
1.51984e-05
-1.01145e-05
1.53076e-05
-1.00418e-05
-1.00643e-05
1.48925e-05
1.04822e-05
-1.03619e-05
1.10317e-05
-9.72071e-06
1.20078e-05
-7.83048e-06
1.24117e-05
-8.98713e-06
1.32908e-05
-7.88473e-06
1.36334e-05
-8.9563e-06
1.44739e-05
-8.12162e-06
1.47793e-05
-9.07185e-06
1.55486e-05
-8.54481e-06
1.57457e-05
-9.33261e-06
1.64539e-05
-9.08999e-06
1.65155e-05
-9.58826e-06
1.70081e-05
-9.59979e-06
1.70265e-05
-9.94751e-06
1.73111e-05
-1.00667e-05
1.71773e-05
-1.02547e-05
1.71333e-05
-1.02504e-05
-1.02366e-05
1.70738e-05
1.21762e-05
-1.19326e-05
1.27641e-05
-1.07523e-05
1.38161e-05
-9.30116e-06
1.43234e-05
-9.92259e-06
1.52222e-05
-9.20641e-06
1.56486e-05
-9.81374e-06
1.64592e-05
-9.35652e-06
1.6835e-05
-9.87226e-06
1.75448e-05
-9.66761e-06
1.78997e-05
-1.00866e-05
1.84937e-05
-1.00595e-05
1.87794e-05
-1.02301e-05
1.9119e-05
-1.02672e-05
1.9287e-05
-1.04154e-05
1.94213e-05
-1.04813e-05
1.94097e-05
-1.0498e-05
1.93659e-05
-1.04326e-05
-1.03386e-05
1.92645e-05
1.40473e-05
-1.37625e-05
1.46312e-05
-1.17435e-05
1.57342e-05
-1.07842e-05
1.63715e-05
-1.09469e-05
1.73388e-05
-1.05563e-05
1.78862e-05
-1.07467e-05
1.86926e-05
-1.05423e-05
1.91812e-05
-1.07332e-05
1.9839e-05
-1.06847e-05
2.02706e-05
-1.08657e-05
2.07986e-05
-1.09113e-05
2.11954e-05
-1.09218e-05
2.15508e-05
-1.08906e-05
2.17849e-05
-1.08904e-05
2.19183e-05
-1.08316e-05
2.19549e-05
-1.07303e-05
2.19433e-05
-1.05945e-05
-1.04336e-05
2.18892e-05
1.63382e-05
-1.57803e-05
1.7171e-05
-1.28821e-05
1.82263e-05
-1.21098e-05
1.90494e-05
-1.20411e-05
1.99989e-05
-1.17712e-05
2.07177e-05
-1.173e-05
2.1493e-05
-1.15752e-05
2.20792e-05
-1.15672e-05
2.26995e-05
-1.15399e-05
2.31692e-05
-1.15532e-05
2.35994e-05
-1.15391e-05
2.40697e-05
-1.1558e-05
2.44296e-05
-1.13923e-05
2.46902e-05
-1.12679e-05
2.48903e-05
-1.11269e-05
2.50391e-05
-1.09545e-05
2.50936e-05
-1.07061e-05
-1.04898e-05
2.51094e-05
1.88132e-05
-1.71413e-05
1.96591e-05
-1.37958e-05
2.06319e-05
-1.31152e-05
2.15321e-05
-1.29758e-05
2.25346e-05
-1.28024e-05
2.34511e-05
-1.26692e-05
2.43941e-05
-1.25332e-05
2.52552e-05
-1.24307e-05
2.60105e-05
-1.22847e-05
2.66481e-05
-1.21645e-05
2.71561e-05
-1.20062e-05
2.74999e-05
-1.18437e-05
2.78798e-05
-1.16859e-05
2.81262e-05
-1.14102e-05
2.83002e-05
-1.11817e-05
2.84059e-05
-1.09291e-05
2.84934e-05
-1.06563e-05
-1.03624e-05
2.85103e-05
2.26007e-05
-1.77293e-05
2.34464e-05
-1.4245e-05
2.44255e-05
-1.36684e-05
2.53532e-05
-1.3491e-05
2.63036e-05
-1.33417e-05
2.72038e-05
-1.31537e-05
2.80517e-05
-1.29601e-05
2.88256e-05
-1.2773e-05
2.95594e-05
-1.25778e-05
3.0192e-05
-1.23455e-05
3.07893e-05
-1.21434e-05
3.12946e-05
-1.18826e-05
3.16765e-05
-1.1597e-05
3.20859e-05
-1.134e-05
3.23727e-05
-1.099e-05
3.25955e-05
-1.06787e-05
3.2744e-05
-1.03397e-05
-1.00168e-05
3.28501e-05
2.24133e-05
-1.80674e-05
2.37243e-05
-1.45716e-05
2.48257e-05
-1.3757e-05
2.56793e-05
-1.33548e-05
2.64148e-05
-1.31001e-05
2.71499e-05
-1.29185e-05
2.79033e-05
-1.27474e-05
2.86549e-05
-1.25587e-05
2.93912e-05
-1.23508e-05
3.0086e-05
-1.20802e-05
3.07065e-05
-1.18108e-05
3.12672e-05
-1.15015e-05
3.17854e-05
-1.11897e-05
3.22011e-05
-1.08517e-05
3.25756e-05
-1.04813e-05
3.28928e-05
-1.01386e-05
3.31504e-05
-9.77114e-06
-9.41867e-06
3.33448e-05
1.98232e-05
-1.70107e-05
2.06318e-05
-1.39603e-05
2.15749e-05
-1.32607e-05
2.24336e-05
-1.28041e-05
2.32369e-05
-1.25139e-05
2.39844e-05
-1.22926e-05
2.47773e-05
-1.21832e-05
2.55182e-05
-1.1956e-05
2.6217e-05
-1.17227e-05
2.68595e-05
-1.14147e-05
2.74402e-05
-1.11061e-05
2.79729e-05
-1.07759e-05
2.84471e-05
-1.04376e-05
2.88678e-05
-1.00849e-05
2.92592e-05
-9.72547e-06
2.95713e-05
-9.34865e-06
2.98768e-05
-9.01952e-06
-8.6963e-06
3.01622e-05
1.73727e-05
-1.57995e-05
1.8122e-05
-1.29816e-05
1.90204e-05
-1.24319e-05
1.99924e-05
-1.20879e-05
2.0816e-05
-1.16768e-05
2.15088e-05
-1.13479e-05
2.20821e-05
-1.11442e-05
2.26439e-05
-1.09288e-05
2.31547e-05
-1.06717e-05
2.37066e-05
-1.0435e-05
2.42535e-05
-1.01547e-05
2.48001e-05
-9.86302e-06
2.53396e-05
-9.56042e-06
2.58469e-05
-9.22673e-06
2.6308e-05
-8.87369e-06
2.6695e-05
-8.4798e-06
2.70676e-05
-8.19186e-06
-7.8735e-06
2.7387e-05
1.54571e-05
-1.39923e-05
1.59646e-05
-1.15965e-05
1.6591e-05
-1.11788e-05
1.72935e-05
-1.09541e-05
1.80871e-05
-1.06666e-05
1.8812e-05
-1.0297e-05
1.9436e-05
-1.00207e-05
2.00474e-05
-9.82179e-06
2.06262e-05
-9.56423e-06
2.11722e-05
-9.33156e-06
2.17225e-05
-9.09457e-06
2.22535e-05
-8.82951e-06
2.2768e-05
-8.5599e-06
2.32587e-05
-8.25885e-06
2.37091e-05
-7.92547e-06
2.41307e-05
-7.56452e-06
2.45169e-05
-7.30526e-06
-7.01885e-06
2.48709e-05
1.40495e-05
-1.2028e-05
1.4495e-05
-1.00957e-05
1.50651e-05
-9.81572e-06
1.56349e-05
-9.63597e-06
1.62091e-05
-9.38884e-06
1.67926e-05
-9.06142e-06
1.73418e-05
-8.78173e-06
1.78766e-05
-8.60143e-06
1.84518e-05
-8.41935e-06
1.89771e-05
-8.17598e-06
1.95025e-05
-7.98047e-06
2.00084e-05
-7.74348e-06
2.04805e-05
-7.4923e-06
2.09321e-05
-7.22783e-06
2.13626e-05
-6.93566e-06
2.18047e-05
-6.64954e-06
2.2225e-05
-6.43607e-06
-6.15078e-06
2.25791e-05
1.23654e-05
-1.03405e-05
1.28539e-05
-8.6636e-06
1.34521e-05
-8.50711e-06
1.40728e-05
-8.39432e-06
1.46525e-05
-8.14189e-06
1.52179e-05
-7.83456e-06
1.57327e-05
-7.5366e-06
1.62178e-05
-7.35982e-06
1.67277e-05
-7.2392e-06
1.72323e-05
-7.0298e-06
1.7722e-05
-6.86263e-06
1.82006e-05
-6.66154e-06
1.86482e-05
-6.43189e-06
1.90637e-05
-6.19185e-06
1.94453e-05
-5.92616e-06
1.98302e-05
-5.70304e-06
2.01445e-05
-5.4858e-06
-5.24332e-06
2.04332e-05
1.10226e-05
-8.97964e-06
1.17377e-05
-7.54358e-06
1.22632e-05
-7.2088e-06
1.26714e-05
-7.01867e-06
1.30572e-05
-6.77802e-06
1.34899e-05
-6.55088e-06
1.39925e-05
-6.3561e-06
1.45061e-05
-6.22319e-06
1.50025e-05
-6.12185e-06
1.55117e-05
-5.9644e-06
1.59934e-05
-5.81208e-06
1.64381e-05
-5.62014e-06
1.68531e-05
-5.41056e-06
1.72176e-05
-5.17411e-06
1.75879e-05
-4.96817e-06
1.793e-05
-4.77756e-06
1.82278e-05
-4.57943e-06
-4.39282e-06
1.85162e-05
9.92926e-06
-7.26284e-06
1.04145e-05
-6.30924e-06
1.09498e-05
-6.03567e-06
1.14282e-05
-5.82627e-06
1.18789e-05
-5.58965e-06
1.23282e-05
-5.39173e-06
1.27736e-05
-5.22388e-06
1.32005e-05
-5.1038e-06
1.36136e-05
-5.02228e-06
1.40248e-05
-4.90012e-06
1.43812e-05
-4.73331e-06
1.47456e-05
-4.59364e-06
1.51063e-05
-4.42896e-06
1.54827e-05
-4.25739e-06
1.58389e-05
-4.08514e-06
1.61646e-05
-3.92209e-06
1.64791e-05
-3.77334e-06
-3.60614e-06
1.67523e-05
8.93258e-06
-5.87178e-06
9.42248e-06
-5.21322e-06
9.92519e-06
-4.9617e-06
1.03936e-05
-4.75363e-06
1.0829e-05
-4.5146e-06
1.12405e-05
-4.32164e-06
1.1628e-05
-4.15841e-06
1.19796e-05
-4.03139e-06
1.23091e-05
-3.95902e-06
1.26177e-05
-3.85001e-06
1.2931e-05
-3.72558e-06
1.32013e-05
-3.58309e-06
1.35122e-05
-3.50258e-06
1.38214e-05
-3.37785e-06
1.4095e-05
-3.22116e-06
1.4362e-05
-3.10538e-06
1.4573e-05
-2.95599e-06
-2.81147e-06
1.47505e-05
7.78065e-06
-4.50905e-06
8.37333e-06
-4.36015e-06
8.91698e-06
-4.06849e-06
9.36247e-06
-3.79442e-06
9.72182e-06
-3.49735e-06
1.00248e-05
-3.27497e-06
1.02927e-05
-3.10324e-06
1.05207e-05
-2.96342e-06
1.07442e-05
-2.91552e-06
1.09387e-05
-2.80872e-06
1.11039e-05
-2.68855e-06
1.12761e-05
-2.58996e-06
1.14098e-05
-2.51041e-06
1.15403e-05
-2.42605e-06
1.16602e-05
-2.30512e-06
1.17573e-05
-2.21511e-06
1.18546e-05
-2.11628e-06
-2.00179e-06
1.19311e-05
7.17701e-06
-3.37125e-06
7.66639e-06
-3.54146e-06
7.94963e-06
-3.05212e-06
8.08069e-06
-2.65489e-06
8.13446e-06
-2.30631e-06
8.18436e-06
-2.1048e-06
8.24875e-06
-1.97161e-06
8.32335e-06
-1.86646e-06
8.33058e-06
-1.77673e-06
8.35576e-06
-1.71562e-06
8.37079e-06
-1.61494e-06
8.36456e-06
-1.52721e-06
8.37456e-06
-1.49912e-06
8.3799e-06
-1.44859e-06
8.39091e-06
-1.3746e-06
8.39708e-06
-1.32307e-06
8.4134e-06
-1.27932e-06
-1.21002e-06
8.42922e-06
6.44011e-06
-2.32507e-06
6.21333e-06
-2.14555e-06
5.90273e-06
-1.57684e-06
5.6092e-06
-1.2214e-06
5.39344e-06
-9.72669e-07
5.22249e-06
-8.37159e-07
5.10201e-06
-7.75351e-07
5.0294e-06
-7.39655e-07
4.99676e-06
-7.13016e-07
4.98353e-06
-6.96317e-07
5.00343e-06
-6.55998e-07
5.06596e-06
-6.4044e-07
5.09467e-06
-6.10777e-07
5.12478e-06
-5.96623e-07
5.17326e-06
-5.78495e-07
5.22589e-06
-5.70548e-07
5.28695e-06
-5.75719e-07
-5.5477e-07
5.35724e-06
4.22113e-06
3.06383e-06
2.47232e-06
2.22225e-06
2.20646e-06
2.30939e-06
2.45641e-06
2.62028e-06
2.79059e-06
2.9559e-06
3.13791e-06
3.30988e-06
3.48355e-06
3.64121e-06
3.78481e-06
3.90267e-06
3.98184e-06
4.04924e-06
-5.52428e-07
-5.04079e-07
-1.18584e-06
-4.53483e-07
-1.82901e-06
-4.27403e-07
-2.42388e-06
-4.70947e-07
-2.98403e-06
-5.13407e-07
-3.54478e-06
-5.22856e-07
-4.11588e-06
-5.20149e-07
-4.71078e-06
-5.02217e-07
-5.31931e-06
-4.90556e-07
-5.94856e-06
-4.73398e-07
-6.59883e-06
-4.52944e-07
-7.27565e-06
-4.26355e-07
-7.9821e-06
-3.96189e-07
-8.70281e-06
-3.81855e-07
-9.43178e-06
-3.73628e-07
-1.01756e-05
-3.58534e-07
-1.093e-05
-3.47532e-07
-1.1688e-05
-3.41955e-07
-1.24373e-05
-3.47465e-07
-1.31625e-05
-3.6942e-07
-1.38695e-05
-3.85844e-07
-1.45493e-05
-4.08376e-07
-1.51881e-05
-4.42177e-07
-1.57639e-05
-4.97724e-07
-1.62764e-05
-5.53463e-07
-1.67243e-05
-6.06533e-07
-1.70957e-05
-6.68421e-07
-1.74079e-05
-7.12866e-07
-1.76904e-05
-7.25941e-07
-1.79572e-05
-7.22445e-07
-1.82057e-05
-7.2356e-07
-1.84254e-05
-7.35657e-07
-1.86336e-05
-7.23942e-07
-1.88144e-05
-7.2573e-07
-1.88946e-05
-8.0432e-07
-1.88794e-05
-8.79138e-07
-1.87366e-05
-9.87244e-07
-1.84535e-05
-1.10595e-06
-1.80206e-05
-1.22957e-06
-1.74599e-05
-1.32924e-06
-1.67601e-05
-1.43938e-06
-1.59753e-05
-1.49575e-06
-1.5163e-05
-1.49454e-06
-1.43652e-05
-1.45469e-06
-1.35947e-05
-1.40533e-06
-1.28026e-05
-1.40719e-06
-1.20278e-05
-1.37018e-06
-1.13319e-05
-1.26761e-06
-1.06694e-05
-1.2113e-06
-1.00687e-05
-1.13506e-06
-9.60294e-06
-9.8689e-07
-9.32327e-06
-7.78658e-07
-9.3832e-06
-4.13922e-07
-9.87116e-06
2.28257e-08
-1.05572e-05
2.06574e-07
-1.12762e-05
2.15595e-07
-1.20154e-05
2.17303e-07
-1.26505e-05
1.01856e-07
-1.29729e-05
-2.2595e-07
-1.31329e-05
-3.9332e-07
-1.3375e-05
-3.01546e-07
-1.36456e-05
-2.88746e-07
-1.38561e-05
-4.03825e-07
-1.39936e-05
-5.27709e-07
-1.37821e-05
-8.9805e-07
-1.33385e-05
-1.14291e-06
-1.29124e-05
-1.14267e-06
-1.22458e-05
-1.40309e-06
-1.0962e-05
-2.04827e-06
-9.33036e-06
-2.42012e-06
-7.94071e-06
-2.1896e-06
-7.19408e-06
-1.55665e-06
-7.06943e-06
-9.49312e-07
-7.11593e-06
-7.84796e-07
-6.97201e-06
-9.58311e-07
-6.57552e-06
-1.1785e-06
-6.22858e-06
-1.11132e-06
-6.25749e-06
-7.51924e-07
-6.89179e-06
-1.81395e-07
-8.02827e-06
3.04667e-07
-9.43141e-06
5.97555e-07
-1.08745e-05
6.92241e-07
-1.21769e-05
6.13253e-07
-1.33772e-05
5.76805e-07
-1.43952e-05
4.65479e-07
-1.52218e-05
3.5091e-07
-1.58807e-05
2.61573e-07
-1.6273e-05
7.86122e-08
-1.65068e-05
7.20026e-09
-1.65506e-05
-9.56548e-08
-1.64488e-05
-1.48132e-07
-1.61574e-05
-2.2857e-07
-1.56514e-05
-3.21254e-07
-1.48724e-05
-4.81989e-07
-1.37694e-05
-7.21283e-07
-1.25576e-05
-7.53872e-07
-1.14108e-05
-5.70357e-07
-1.03063e-05
-3.86466e-07
-9.14112e-06
-3.32338e-07
-7.92194e-06
-2.70036e-07
-6.72218e-06
-1.33037e-07
-4.56949e-06
-9.61286e-07
-3.85028e-06
5.90043e-07
-2.45159e-06
2.44902e-08
-1.25527e-06
3.74866e-07
4.1337e-08
3.90145e-07
1.05992e-06
7.92641e-07
2.00654e-06
9.90984e-07
2.68346e-06
1.39704e-06
3.24426e-06
1.64915e-06
3.65576e-06
1.94895e-06
3.91506e-06
2.25243e-06
3.89211e-06
2.69119e-06
3.64404e-06
3.08742e-06
3.13953e-06
3.52735e-06
2.41247e-06
3.95803e-06
1.40957e-06
4.45967e-06
1.89753e-07
4.93468e-06
-1.29067e-06
5.4656e-06
-2.90827e-06
5.91294e-06
-4.61592e-06
6.34278e-06
-6.3295e-06
6.70579e-06
-8.11324e-06
7.12184e-06
-9.89957e-06
7.53298e-06
-1.16444e-05
7.979e-06
-1.33899e-05
8.49037e-06
-1.51248e-05
8.95071e-06
-1.65816e-05
9.185e-06
-1.75349e-05
9.1825e-06
-1.80834e-05
9.21718e-06
-1.85436e-05
9.54653e-06
-1.905e-05
1.00133e-05
-1.97417e-05
1.05987e-05
-2.0561e-05
1.1201e-05
-2.14798e-05
1.18461e-05
-2.20086e-05
1.21716e-05
-2.2487e-05
1.27326e-05
-2.31204e-05
1.34586e-05
-2.37519e-05
1.39974e-05
-2.43588e-05
1.45807e-05
-2.47836e-05
1.49217e-05
-2.48706e-05
1.50483e-05
-2.43959e-05
1.4981e-05
-2.37031e-05
1.50331e-05
-2.22764e-05
1.4724e-05
-2.08802e-05
1.49315e-05
-1.90113e-05
1.47427e-05
-1.72331e-05
1.49487e-05
-1.52723e-05
1.48606e-05
-1.36724e-05
1.51666e-05
-1.1961e-05
1.49544e-05
-1.08377e-05
1.53629e-05
-8.98812e-06
1.43935e-05
-7.74229e-06
1.47549e-05
-5.62824e-06
1.35257e-05
-3.87165e-06
1.36912e-05
-2.30723e-06
1.34583e-05
7.24413e-08
1.23697e-05
1.77967e-06
1.28825e-05
3.44026e-06
1.26147e-05
5.55717e-06
1.20568e-05
7.39201e-06
1.22087e-05
9.26081e-06
1.20996e-05
1.09919e-05
1.2157e-05
1.22695e-05
1.26121e-05
1.33036e-05
1.28157e-05
1.43951e-05
1.26685e-05
1.52651e-05
1.27547e-05
1.61296e-05
1.25057e-05
1.68221e-05
1.23028e-05
1.73973e-05
1.19914e-05
1.77235e-05
1.16349e-05
1.80692e-05
1.10214e-05
1.89168e-05
9.41739e-06
1.8869e-05
9.21346e-06
1.82434e-05
8.62425e-06
1.76109e-05
7.81116e-06
1.65772e-05
7.65034e-06
1.50873e-05
7.43047e-06
7.78375e-06
1.27274e-05
-7.22677e-07
-8.262e-07
-1.48839e-06
-7.49717e-07
-2.14215e-06
-8.01181e-07
-2.76392e-06
-8.76671e-07
-3.35351e-06
-9.70924e-07
-3.96389e-06
-9.80961e-07
-4.60062e-06
-9.56773e-07
-5.24434e-06
-9.40394e-07
-5.89701e-06
-9.25254e-07
-6.58142e-06
-8.82363e-07
-7.30798e-06
-8.25217e-07
-8.02857e-06
-8.09215e-07
-8.69598e-06
-8.38802e-07
-9.37432e-06
-8.21112e-07
-1.01569e-05
-7.13784e-07
-1.09374e-05
-7.03763e-07
-1.1722e-05
-6.87e-07
-1.25241e-05
-6.62194e-07
-1.33436e-05
-6.53445e-07
-1.41873e-05
-6.54257e-07
-1.5007e-05
-6.88535e-07
-1.57813e-05
-7.45403e-07
-1.64726e-05
-8.54444e-07
-1.70805e-05
-9.86395e-07
-1.75702e-05
-1.14636e-06
-1.79414e-05
-1.29675e-06
-1.823e-05
-1.42382e-06
-1.84898e-05
-1.48236e-06
-1.87157e-05
-1.50978e-06
-1.89294e-05
-1.49887e-06
-1.91428e-05
-1.4907e-06
-1.93789e-05
-1.46549e-06
-1.95935e-05
-1.4409e-06
-1.97421e-05
-1.47556e-06
-1.98012e-05
-1.62804e-06
-1.97478e-05
-1.79573e-06
-1.95132e-05
-2.06345e-06
-1.91162e-05
-2.32069e-06
-1.85772e-05
-2.55722e-06
-1.7907e-05
-2.75874e-06
-1.70859e-05
-2.99236e-06
-1.6205e-05
-3.08775e-06
-1.52644e-05
-3.11846e-06
-1.43103e-05
-3.06288e-06
-1.34308e-05
-2.90601e-06
-1.25198e-05
-2.91687e-06
-1.15469e-05
-2.9481e-06
-1.05977e-05
-2.81152e-06
-9.56208e-06
-2.78933e-06
-8.53105e-06
-2.67206e-06
-7.6553e-06
-2.37284e-06
-6.70213e-06
-2.24048e-06
-5.68444e-06
-1.92234e-06
-4.93686e-06
-1.20587e-06
-4.53044e-06
-6.87286e-07
-4.60014e-06
-2.0037e-07
-5.20005e-06
3.61783e-07
-6.24085e-06
6.86839e-07
-7.63292e-06
6.32669e-07
-8.92811e-06
2.86364e-07
-9.98661e-06
1.39917e-07
-1.0601e-05
-2.41098e-07
-1.09577e-05
-6.17292e-07
-1.13208e-05
-7.97856e-07
-1.12655e-05
-1.63791e-06
-1.08528e-05
-2.24795e-06
-1.03487e-05
-2.29591e-06
-9.38559e-06
-2.9955e-06
-8.11487e-06
-4.02297e-06
-6.73207e-06
-4.59805e-06
-5.40159e-06
-4.36554e-06
-4.34667e-06
-3.46785e-06
-3.61274e-06
-2.51233e-06
-3.49189e-06
-1.70578e-06
-4.291e-06
-9.74256e-07
-6.06578e-06
-2.77515e-07
-8.51497e-06
4.10958e-07
-1.10744e-05
8.88529e-07
-1.33102e-05
1.17719e-06
-1.51125e-05
1.2826e-06
-1.65314e-05
1.25945e-06
-1.77313e-05
1.21485e-06
-1.87558e-05
1.04881e-06
-1.94849e-05
8.02319e-07
-2.00322e-05
5.92904e-07
-2.03527e-05
3.42305e-07
-2.04276e-05
8.40601e-08
-2.03967e-05
-1.37362e-07
-2.01606e-05
-3.45015e-07
-1.97961e-05
-5.15093e-07
-1.93244e-05
-5.75802e-07
-1.85844e-05
-7.44907e-07
-1.75971e-05
-8.91957e-07
-1.62925e-05
-1.27647e-06
-1.4853e-05
-1.69624e-06
-1.3385e-05
-1.80586e-06
-1.19689e-05
-1.44957e-06
-1.05901e-05
-1.00031e-06
-9.22864e-06
-7.89902e-07
-7.83974e-06
-6.28132e-07
-6.22749e-06
-5.91878e-07
-3.93148e-06
-2.04983e-06
-3.11583e-06
1.07074e-06
-1.54048e-06
-9.90357e-08
-2.47487e-07
6.2683e-07
1.26908e-06
5.46746e-07
2.46035e-06
1.38885e-06
3.61176e-06
1.73648e-06
4.42317e-06
2.59133e-06
5.16617e-06
3.02352e-06
5.70738e-06
3.66857e-06
6.12031e-06
4.2448e-06
6.29513e-06
5.09033e-06
6.21071e-06
5.92718e-06
5.85699e-06
6.8433e-06
5.30307e-06
7.69817e-06
4.46157e-06
8.78314e-06
3.39544e-06
9.84174e-06
2.06681e-06
1.10533e-05
4.67723e-07
1.21758e-05
-1.25039e-06
1.30782e-05
-2.84158e-06
1.36951e-05
-4.44141e-06
1.45652e-05
-6.28799e-06
1.56729e-05
-8.07085e-06
1.64947e-05
-9.66695e-06
1.74457e-05
-1.12546e-05
1.86682e-05
-1.2763e-05
1.95507e-05
-1.41304e-05
1.98901e-05
-1.49671e-05
1.95973e-05
-1.56158e-05
1.98385e-05
-1.61612e-05
2.04856e-05
-1.72493e-05
2.18475e-05
-1.86947e-05
2.31833e-05
-2.0467e-05
2.46995e-05
-2.18118e-05
2.55405e-05
-2.31246e-05
2.68738e-05
-2.46631e-05
2.84514e-05
-2.63234e-05
2.95792e-05
-2.75533e-05
3.05278e-05
-2.80634e-05
3.07008e-05
-2.82479e-05
3.08943e-05
-2.74095e-05
3.04303e-05
-2.64875e-05
3.05404e-05
-2.4806e-05
2.99466e-05
-2.29801e-05
3.02173e-05
-2.10385e-05
3.01107e-05
-1.88822e-05
3.0386e-05
-1.68238e-05
3.03445e-05
-1.47362e-05
3.06937e-05
-1.28124e-05
3.02963e-05
-1.10944e-05
3.07731e-05
-8.90302e-06
2.87129e-05
-7.05436e-06
2.91745e-05
-4.61958e-06
2.61624e-05
-2.31947e-06
2.70131e-05
-8.69646e-08
2.61068e-05
2.24666e-06
2.42286e-05
4.41917e-06
2.51908e-05
6.57257e-06
2.43605e-05
9.11822e-06
2.35332e-05
1.14909e-05
2.37557e-05
1.38837e-05
2.34786e-05
1.63621e-05
2.34416e-05
1.83705e-05
2.43468e-05
1.97152e-05
2.53751e-05
2.06107e-05
2.58503e-05
2.08035e-05
2.68697e-05
2.08762e-05
2.68905e-05
2.09756e-05
2.65105e-05
2.10126e-05
2.58837e-05
2.11593e-05
2.48649e-05
2.18132e-05
2.32712e-05
2.2402e-05
2.04671e-05
2.23288e-05
1.97362e-05
2.20226e-05
1.72584e-05
2.13971e-05
1.58056e-05
1.97391e-05
1.65381e-05
1.80916e-05
1.58417e-05
1.71268e-05
1.51855e-05
-7.3619e-07
-1.10444e-06
-1.58789e-06
-9.18915e-07
-2.28787e-06
-1.10286e-06
-2.91403e-06
-1.27862e-06
-3.45136e-06
-1.46994e-06
-3.97906e-06
-1.50019e-06
-4.57644e-06
-1.42039e-06
-5.24565e-06
-1.34438e-06
-5.96095e-06
-1.29564e-06
-6.66554e-06
-1.28309e-06
-7.25987e-06
-1.35462e-06
-7.88322e-06
-1.32635e-06
-8.78443e-06
-1.09527e-06
-9.65849e-06
-1.09543e-06
-1.04125e-05
-1.08642e-06
-1.13576e-05
-8.8202e-07
-1.22982e-05
-8.66255e-07
-1.3331e-05
-7.44466e-07
-1.43638e-05
-7.21729e-07
-1.53611e-05
-7.46767e-07
-1.63325e-05
-8.02669e-07
-1.71642e-05
-9.90195e-07
-1.78776e-05
-1.20331e-06
-1.84027e-05
-1.50513e-06
-1.87785e-05
-1.79796e-06
-1.90196e-05
-2.06802e-06
-1.91861e-05
-2.2586e-06
-1.93221e-05
-2.33799e-06
-1.94696e-05
-2.34842e-06
-1.96429e-05
-2.30567e-06
-1.98793e-05
-2.21326e-06
-2.0143e-05
-2.12692e-06
-2.03987e-05
-2.08614e-06
-2.05774e-05
-2.18589e-06
-2.06816e-05
-2.39036e-06
-2.0619e-05
-2.68977e-06
-2.03817e-05
-3.10343e-06
-1.99419e-05
-3.53527e-06
-1.93232e-05
-3.92699e-06
-1.85645e-05
-4.2418e-06
-1.77617e-05
-4.49469e-06
-1.69461e-05
-4.58282e-06
-1.61243e-05
-4.59887e-06
-1.52897e-05
-4.52798e-06
-1.45025e-05
-4.28271e-06
-1.37269e-05
-4.25924e-06
-1.2879e-05
-4.37385e-06
-1.20098e-05
-4.24059e-06
-1.09182e-05
-4.39262e-06
-9.70223e-06
-4.37775e-06
-8.73919e-06
-3.82841e-06
-7.59586e-06
-3.87755e-06
-6.32946e-06
-3.68102e-06
-5.38082e-06
-2.63575e-06
-4.6057e-06
-1.92887e-06
-3.96337e-06
-1.3072e-06
-3.43146e-06
-6.41765e-07
-3.20849e-06
-5.46988e-09
-3.75793e-06
7.1596e-07
-4.76012e-06
7.9689e-07
-5.9301e-06
7.98701e-07
-6.99613e-06
2.82691e-07
-7.83404e-06
-3.8456e-07
-8.42528e-06
-8.13382e-07
-8.83564e-06
-1.82616e-06
-9.16478e-06
-2.52589e-06
-8.93751e-06
-3.04352e-06
-8.0241e-06
-4.43493e-06
-7.0831e-06
-5.68208e-06
-6.55174e-06
-6.00124e-06
-6.47983e-06
-5.32807e-06
-6.87257e-06
-3.9128e-06
-7.79984e-06
-2.38537e-06
-9.35028e-06
-9.74552e-07
-1.13034e-05
1.20946e-07
-1.3276e-05
8.55411e-07
-1.49347e-05
1.29354e-06
-1.62985e-05
1.53577e-06
-1.74096e-05
1.60939e-06
-1.82849e-05
1.51987e-06
-1.89796e-05
1.38406e-06
-1.94585e-05
1.21002e-06
-1.97891e-05
9.82802e-07
-2.00444e-05
7.40718e-07
-2.01378e-05
4.54319e-07
-2.00754e-05
1.28984e-07
-1.98464e-05
-2.44611e-07
-1.95529e-05
-4.86903e-07
-1.91592e-05
-7.38418e-07
-1.87313e-05
-8.90305e-07
-1.81089e-05
-1.08342e-06
-1.73631e-05
-1.25725e-06
-1.63242e-05
-1.5591e-06
-1.5128e-05
-2.01673e-06
-1.38766e-05
-2.49406e-06
-1.24582e-05
-2.7808e-06
-1.08404e-05
-2.53527e-06
-9.15265e-06
-1.98884e-06
-7.63039e-06
-1.46104e-06
-6.32657e-06
-9.39484e-07
-4.75653e-06
-1.11161e-06
-2.67165e-06
-3.04375e-06
-1.5295e-06
1.13603e-06
-1.14485e-07
-1.78879e-07
1.10163e-06
8.23107e-07
2.68083e-06
4.83773e-07
3.80621e-06
1.87102e-06
5.10312e-06
2.12794e-06
5.92717e-06
3.51206e-06
6.63678e-06
4.1272e-06
7.236e-06
4.98449e-06
7.67841e-06
5.79565e-06
7.90798e-06
6.95915e-06
7.95725e-06
8.07246e-06
7.70178e-06
9.45268e-06
7.08608e-06
1.07522e-05
6.35261e-06
1.20799e-05
5.37738e-06
1.36057e-05
4.09676e-06
1.55018e-05
2.48866e-06
1.73656e-05
5.64767e-07
1.90526e-05
-1.44174e-06
1.99563e-05
-3.0851e-06
2.08664e-05
-4.54991e-06
2.25838e-05
-6.54903e-06
2.44409e-05
-8.43311e-06
2.55998e-05
-9.91235e-06
2.73918e-05
-1.13895e-05
2.95531e-05
-1.28295e-05
3.05894e-05
-1.4394e-05
3.04671e-05
-1.56588e-05
3.03387e-05
-1.64534e-05
3.07387e-05
-1.75015e-05
3.25964e-05
-1.8924e-05
3.47862e-05
-2.08516e-05
3.71532e-05
-2.30559e-05
3.90085e-05
-2.46028e-05
4.07902e-05
-2.59474e-05
4.29031e-05
-2.72078e-05
4.43065e-05
-2.80872e-05
4.54643e-05
-2.77205e-05
4.49348e-05
-2.74128e-05
4.53765e-05
-2.63764e-05
4.462e-05
-2.49112e-05
4.44661e-05
-2.32926e-05
4.37953e-05
-2.09977e-05
4.38893e-05
-1.89701e-05
4.37232e-05
-1.66864e-05
4.44247e-05
-1.44083e-05
4.40739e-05
-1.22435e-05
4.49758e-05
-1.02289e-05
4.4277e-05
-8.26587e-06
4.46706e-05
-6.21975e-06
4.15767e-05
-4.24808e-06
4.24588e-05
-2.14822e-06
3.72318e-05
1.1156e-07
3.82609e-05
2.42646e-06
3.73348e-05
4.41218e-06
3.46632e-05
6.17896e-06
3.61562e-05
8.24091e-06
3.44973e-05
1.09807e-05
3.32478e-05
1.36078e-05
3.4186e-05
1.57499e-05
3.41078e-05
1.78671e-05
3.42177e-05
1.99941e-05
3.47584e-05
2.22136e-05
3.54801e-05
2.42678e-05
3.64197e-05
2.54899e-05
3.85904e-05
2.5677e-05
3.99571e-05
2.53875e-05
4.03841e-05
2.4879e-05
3.95518e-05
2.42761e-05
3.79411e-05
2.40823e-05
3.42984e-05
2.46666e-05
3.02447e-05
2.3443e-05
3.02183e-05
2.27532e-05
2.52775e-05
2.27586e-05
2.32823e-05
2.15406e-05
2.51017e-05
1.9924e-05
2.41485e-05
2.69968e-05
1.67463e-05
-6.07209e-07
-1.48831e-06
-1.43372e-06
-1.10252e-06
-2.08201e-06
-1.45356e-06
-2.59666e-06
-1.78056e-06
-3.13993e-06
-1.93961e-06
-3.73846e-06
-1.92824e-06
-4.43785e-06
-1.79906e-06
-5.1485e-06
-1.73688e-06
-5.7954e-06
-1.75289e-06
-6.49248e-06
-1.73402e-06
-7.40424e-06
-1.61604e-06
-8.37043e-06
-1.44145e-06
-9.22674e-06
-1.25212e-06
-1.03134e-05
-1.10435e-06
-1.13161e-05
-1.17107e-06
-1.23171e-05
-9.19483e-07
-1.35192e-05
-7.51809e-07
-1.45978e-05
-7.42947e-07
-1.57001e-05
-7.09324e-07
-1.66549e-05
-8.71351e-07
-1.74736e-05
-1.03788e-06
-1.81651e-05
-1.34332e-06
-1.86212e-05
-1.75169e-06
-1.89541e-05
-2.17048e-06
-1.91037e-05
-2.64601e-06
-1.91478e-05
-3.02749e-06
-1.90968e-05
-3.3082e-06
-1.89928e-05
-3.42886e-06
-1.8913e-05
-3.40614e-06
-1.89593e-05
-3.22755e-06
-1.91595e-05
-2.96749e-06
-1.94529e-05
-2.76508e-06
-1.97494e-05
-2.68993e-06
-2.00001e-05
-2.80326e-06
-2.01784e-05
-3.04877e-06
-2.01753e-05
-3.50533e-06
-1.99653e-05
-4.09273e-06
-1.94973e-05
-4.74853e-06
-1.88091e-05
-5.3407e-06
-1.79993e-05
-5.75959e-06
-1.71462e-05
-6.03093e-06
-1.63229e-05
-6.04923e-06
-1.55751e-05
-5.95581e-06
-1.48701e-05
-5.82043e-06
-1.41821e-05
-5.53604e-06
-1.36135e-05
-5.38334e-06
-1.29938e-05
-5.5839e-06
-1.21587e-05
-5.63733e-06
-1.11953e-05
-5.84942e-06
-1.0321e-05
-5.75789e-06
-9.39179e-06
-5.21985e-06
-8.30316e-06
-5.362e-06
-7.33111e-06
-5.11171e-06
-6.56932e-06
-3.86246e-06
-5.6574e-06
-3.24387e-06
-4.882e-06
-2.50802e-06
-4.20589e-06
-1.75606e-06
-3.50729e-06
-1.13516e-06
-3.08153e-06
-1.49706e-07
-3.13093e-06
3.86537e-07
-3.70317e-06
8.94366e-07
-4.63519e-06
7.45431e-07
-5.56104e-06
6.68747e-08
-6.26379e-06
-6.31764e-07
-6.86678e-06
-1.8126e-06
-7.47419e-06
-2.4429e-06
-7.65506e-06
-3.2579e-06
-7.78493e-06
-4.87321e-06
-8.29338e-06
-6.04815e-06
-9.31309e-06
-5.91387e-06
-1.06106e-05
-4.85323e-06
-1.19464e-05
-3.32873e-06
-1.32841e-05
-1.78949e-06
-1.46122e-05
-3.642e-07
-1.57987e-05
6.42308e-07
-1.68e-05
1.23675e-06
-1.75304e-05
1.42837e-06
-1.80109e-05
1.44635e-06
-1.83434e-05
1.40532e-06
-1.86476e-05
1.3379e-06
-1.89263e-05
1.23966e-06
-1.91451e-05
1.07213e-06
-1.93395e-05
8.8278e-07
-1.94896e-05
6.66914e-07
-1.95531e-05
3.88886e-07
-1.94641e-05
-3.70958e-09
-1.92937e-05
-4.23594e-07
-1.90498e-05
-7.37384e-07
-1.87262e-05
-1.03567e-06
-1.81851e-05
-1.3273e-06
-1.74554e-05
-1.63632e-06
-1.65894e-05
-1.87942e-06
-1.56089e-05
-2.22835e-06
-1.45408e-05
-2.70879e-06
-1.33384e-05
-3.23504e-06
-1.19644e-05