/*--------------------------------*- C++ -*----------------------------------*\
| =========                 |                                                 |
| \\      /  F ield         | OpenFOAM: The Open Source CFD Toolbox           |
|  \\    /   O peration     | Version:  dev                                   |
|   \\  /    A nd           | Web:      http://www.openfoam.org               |
|    \\/     M anipulation  |                                                 |
\*---------------------------------------------------------------------------*/
FoamFile
{
    version     2.0;
    format      ascii;
    class       surfaceScalarField;
    object      phi_0;
    location    "9.127";
}
// * * * * * * * * * * * * * * * * * * * * * * * * * * * * * * * * * * * * * //

dimensions      [1 0 -1 0 0 0 0];

internalField   nonuniform List<scalar> 
24170
(
2.51427e-06
1.17115e-06
1.84019e-06
7.46934e-07
1.73749e-06
1.62654e-07
1.85926e-06
-7.68243e-08
2.06686e-06
-1.77179e-07
2.33e-06
-2.48425e-07
2.53488e-06
-2.01082e-07
2.89284e-06
-3.66205e-07
3.10404e-06
-2.25336e-07
3.56623e-06
-4.837e-07
3.8332e-06
-2.90759e-07
4.48205e-06
-6.76702e-07
4.8756e-06
-4.20088e-07
6.0762e-06
-1.22826e-06
6.36419e-06
-3.11845e-07
8.72589e-06
-2.36668e-06
1.34018e-05
-4.71503e-06
-6.30642e-06
1.96216e-05
4.25867e-06
1.06369e-06
3.74562e-06
1.33442e-06
3.48629e-06
4.88908e-07
3.25185e-06
2.05846e-07
3.25886e-06
-1.52685e-07
3.37225e-06
-3.49133e-07
3.5279e-06
-3.59001e-07
3.68384e-06
-5.38807e-07
3.97525e-06
-5.42955e-07
4.33549e-06
-8.79395e-07
4.8474e-06
-8.41748e-07
5.47346e-06
-1.34643e-06
6.27272e-06
-1.26455e-06
7.4551e-06
-2.45239e-06
8.60699e-06
-1.50153e-06
1.24079e-05
-6.18584e-06
1.46092e-05
-7.02157e-06
-5.79272e-06
1.39712e-05
5.11511e-06
4.6675e-07
5.06356e-06
1.47103e-06
5.12317e-06
5.05126e-07
4.98744e-06
3.98423e-07
5.02693e-06
-1.54555e-07
5.10088e-06
-4.03524e-07
5.24957e-06
-5.05759e-07
5.53949e-06
-8.38773e-07
5.77281e-06
-8.00818e-07
6.37605e-06
-1.51338e-06
6.57294e-06
-1.07978e-06
7.58915e-06
-2.40355e-06
7.65214e-06
-1.37685e-06
8.856e-06
-3.69499e-06
9.40965e-06
-2.09484e-06
1.1617e-05
-8.44677e-06
1.22058e-05
-7.72852e-06
-5.25607e-06
1.15382e-05
5.51341e-06
9.8042e-08
6.10179e-06
9.77477e-07
6.34591e-06
3.44121e-07
6.68816e-06
1.20382e-07
6.69146e-06
-1.16327e-07
7.06506e-06
-7.54528e-07
7.04145e-06
-4.79152e-07
7.53945e-06
-1.34492e-06
7.53716e-06
-8.22328e-07
8.19263e-06
-2.19881e-06
8.17454e-06
-1.10014e-06
9.13769e-06
-3.40723e-06
9.19282e-06
-1.47915e-06
1.02636e-05
-4.80999e-06
1.05119e-05
-2.3767e-06
1.17989e-05
-9.77723e-06
1.26335e-05
-8.68485e-06
-5.97775e-06
1.32116e-05
5.70689e-06
-2.41069e-07
6.84879e-06
-5.83601e-08
7.03081e-06
2.53379e-07
7.74825e-06
-5.26942e-07
7.7417e-06
-6.29752e-08
8.23021e-06
-1.21901e-06
8.22727e-06
-4.72078e-07
8.79875e-06
-1.92545e-06
8.69803e-06
-7.43903e-07
9.15096e-06
-2.68442e-06
9.17216e-06
-1.16072e-06
9.78938e-06
-4.06642e-06
1.00156e-05
-1.75096e-06
1.07894e-05
-5.62772e-06
1.13477e-05
-2.96773e-06
1.22966e-05
-1.07529e-05
1.29147e-05
-9.39956e-06
-8.43019e-06
1.52527e-05
6.30804e-06
-4.96602e-07
7.07084e-06
-7.03989e-07
7.13346e-06
2.92373e-07
7.851e-06
-1.16775e-06
7.95742e-06
-1.17258e-07
8.5936e-06
-1.82938e-06
8.68661e-06
-5.5834e-07
9.24486e-06
-2.49268e-06
9.2836e-06
-8.04791e-07
9.6789e-06
-3.11244e-06
9.74179e-06
-1.26512e-06
1.02856e-05
-4.65323e-06
1.05177e-05
-2.03097e-06
1.13338e-05
-6.48728e-06
1.21846e-05
-3.8573e-06
1.20096e-05
-1.06015e-05
1.148e-05
-8.90179e-06
-1.04257e-05
1.33914e-05
6.86984e-06
-9.18664e-07
7.64525e-06
-1.34899e-06
7.80177e-06
2.47552e-07
8.50021e-06
-1.7818e-06
8.68977e-06
-2.4708e-07
9.32802e-06
-2.43453e-06
9.47425e-06
-6.91077e-07
1.00472e-05
-3.06991e-06
1.02078e-05
-9.87438e-07
1.08679e-05
-3.80641e-06
1.12897e-05
-1.72997e-06
1.18248e-05
-5.23163e-06
1.24415e-05
-2.69481e-06
1.28121e-05
-6.90502e-06
1.35372e-05
-4.62259e-06
1.20604e-05
-9.15852e-06
1.00353e-05
-6.89568e-06
-9.99392e-06
9.52564e-06
5.48613e-06
-1.38236e-06
6.03321e-06
-1.79232e-06
6.21752e-06
1.52346e-07
6.67707e-06
-2.17596e-06
6.94394e-06
-4.66369e-07
7.30572e-06
-2.7677e-06
7.52292e-06
-8.94538e-07
7.82368e-06
-3.37137e-06
8.16357e-06
-1.34114e-06
8.48659e-06
-4.15442e-06
8.94832e-06
-2.2236e-06
9.14006e-06
-5.45458e-06
9.78082e-06
-3.36792e-06
9.75504e-06
-6.91058e-06
1.00991e-05
-4.99341e-06
9.30473e-06
-8.39181e-06
8.72462e-06
-6.3372e-06
-9.13785e-06
7.83797e-06
6.4483e-06
-1.82344e-06
6.95516e-06
-2.17695e-06
7.21088e-06
3.03153e-09
7.66176e-06
-2.54999e-06
8.01892e-06
-7.66434e-07
8.36156e-06
-3.07254e-06
8.72848e-06
-1.24127e-06
8.9717e-06
-3.61392e-06
9.49544e-06
-1.8756e-06
9.72809e-06
-4.41255e-06
1.03059e-05
-2.83578e-06
1.03674e-05
-5.54872e-06
1.09981e-05
-4.02868e-06
1.07611e-05
-6.70281e-06
1.11701e-05
-5.42726e-06
1.06171e-05
-7.86214e-06
1.07493e-05
-6.49652e-06
-8.10934e-06
9.69716e-06
7.5767e-06
-2.47769e-06
8.15658e-06
-2.6125e-06
8.64875e-06
-3.62158e-07
8.94754e-06
-2.7557e-06
9.41008e-06
-1.15901e-06
9.64301e-06
-3.25681e-06
1.0193e-05
-1.76015e-06
1.03869e-05
-3.79957e-06
1.10438e-05
-2.53723e-06
1.11773e-05
-4.56642e-06
1.18596e-05
-3.54934e-06
1.1821e-05
-5.53804e-06
1.24895e-05
-4.7187e-06
1.21948e-05
-6.43125e-06
1.26471e-05
-5.89475e-06
1.20793e-05
-7.30738e-06
1.23823e-05
-6.80681e-06
-7.34428e-06
1.16048e-05
8.82321e-06
-3.10465e-06
9.32496e-06
-2.94696e-06
1.00685e-05
-9.57261e-07
1.03359e-05
-2.90983e-06
1.08511e-05
-1.5837e-06
1.10517e-05
-3.39505e-06
1.16376e-05
-2.30372e-06
1.18389e-05
-3.98234e-06
1.25282e-05
-3.22275e-06
1.2718e-05
-4.76834e-06
1.33589e-05
-4.20597e-06
1.33556e-05
-5.55145e-06
1.39155e-05
-5.28913e-06
1.37573e-05
-6.28192e-06
1.40935e-05
-6.23407e-06
1.3769e-05
-6.98576e-06
1.3915e-05
-6.9485e-06
-7.06917e-06
1.36475e-05
1.03586e-05
-4.01415e-06
1.07511e-05
-3.14711e-06
1.15778e-05
-1.60465e-06
1.18473e-05
-3.03954e-06
1.2588e-05
-2.21309e-06
1.28159e-05
-3.5418e-06
1.35335e-05
-2.96255e-06
1.37461e-05
-4.15978e-06
1.44073e-05
-3.86388e-06
1.45121e-05
-4.8687e-06
1.51211e-05
-4.81343e-06
1.51041e-05
-5.53261e-06
1.55234e-05
-5.699e-06
1.54731e-05
-6.22511e-06
1.5721e-05
-6.47214e-06
1.55599e-05
-6.80978e-06
1.55463e-05
-6.916e-06
-7.04093e-06
1.55413e-05
1.20195e-05
-4.82156e-06
1.24309e-05
-3.33625e-06
1.33052e-05
-2.26736e-06
1.36492e-05
-3.20942e-06
1.43882e-05
-2.80805e-06
1.46714e-05
-3.71563e-06
1.5346e-05
-3.55214e-06
1.55981e-05
-4.35145e-06
1.61954e-05
-4.41485e-06
1.64438e-05
-5.08032e-06
1.69376e-05
-5.27332e-06
1.7125e-05
-5.69041e-06
1.73908e-05
-5.92909e-06
1.74862e-05
-6.28067e-06
1.75783e-05
-6.52648e-06
1.75348e-05
-6.72448e-06
1.74939e-05
-6.82693e-06
-6.91266e-06
1.74139e-05
1.38812e-05
-5.70291e-06
1.42288e-05
-3.41663e-06
1.51201e-05
-2.90385e-06
1.55623e-05
-3.43598e-06
1.63394e-05
-3.40209e-06
1.67135e-05
-3.93944e-06
1.73566e-05
-4.06987e-06
1.7698e-05
-4.58593e-06
1.82188e-05
-4.84135e-06
1.85382e-05
-5.3135e-06
1.89606e-05
-5.61525e-06
1.92461e-05
-5.89745e-06
1.95141e-05
-6.11512e-06
1.96705e-05
-6.35156e-06
1.97478e-05
-6.51674e-06
1.97414e-05
-6.63147e-06
1.97055e-05
-6.70343e-06
-6.75615e-06
1.96394e-05
1.61379e-05
-6.77966e-06
1.66777e-05
-3.64643e-06
1.74774e-05
-3.39829e-06
1.80645e-05
-3.75246e-06
1.87891e-05
-3.88465e-06
1.92976e-05
-4.2346e-06
1.98769e-05
-4.45766e-06
2.02815e-05
-4.81442e-06
2.07415e-05
-5.13652e-06
2.10703e-05
-5.48253e-06
2.13925e-05
-5.78001e-06
2.17294e-05
-6.08353e-06
2.19885e-05
-6.21944e-06
2.21624e-05
-6.36643e-06
2.22891e-05
-6.48286e-06
2.23769e-05
-6.55885e-06
2.23852e-05
-6.55239e-06
-6.57639e-06
2.23619e-05
1.84724e-05
-7.56014e-06
1.90155e-05
-3.82124e-06
1.96879e-05
-3.69845e-06
2.03056e-05
-4.02447e-06
2.10428e-05
-4.29481e-06
2.17099e-05
-4.5924e-06
2.2421e-05
-4.87352e-06
2.30673e-05
-5.17363e-06
2.36239e-05
-5.41217e-06
2.40822e-05
-5.66024e-06
2.44353e-05
-5.8526e-06
2.46581e-05
-6.02498e-06
2.48909e-05
-6.17763e-06
2.50225e-05
-6.22251e-06
2.51014e-05
-6.28693e-06
2.51228e-05
-6.3097e-06
2.51346e-05
-6.30242e-06
-6.26974e-06
2.50824e-05
2.22033e-05
-7.61493e-06
2.26336e-05
-3.80221e-06
2.32296e-05
-3.81785e-06
2.37975e-05
-4.12889e-06
2.44138e-05
-4.45183e-06
2.50043e-05
-4.72578e-06
2.5567e-05
-4.98051e-06
2.60779e-05
-5.22635e-06
2.6572e-05
-5.44512e-06
2.69875e-05
-5.60936e-06
2.73918e-05
-5.786e-06
2.77252e-05
-5.88466e-06
2.79647e-05
-5.94391e-06
2.82137e-05
-6.00882e-06
2.83622e-05
-5.98131e-06
2.84588e-05
-5.96461e-06
2.84895e-05
-5.90647e-06
-5.85826e-06
2.84854e-05
2.19585e-05
-8.01994e-06
2.28436e-05
-4.15158e-06
2.35101e-05
-3.91772e-06
2.3956e-05
-4.00809e-06
2.43197e-05
-4.23759e-06
2.47182e-05
-4.53154e-06
2.51653e-05
-4.8202e-06
2.56369e-05
-5.0741e-06
2.61169e-05
-5.2878e-06
2.65766e-05
-5.42065e-06
2.69825e-05
-5.53643e-06
2.73475e-05
-5.59246e-06
2.76861e-05
-5.62844e-06
2.79437e-05
-5.62106e-06
2.81612e-05
-5.56996e-06
2.83276e-05
-5.52386e-06
2.84402e-05
-5.43791e-06
-5.35821e-06
2.84932e-05
1.93354e-05
-7.51137e-06
1.97617e-05
-4.02687e-06
2.02985e-05
-3.86347e-06
2.07734e-05
-3.87831e-06
2.12229e-05
-4.05539e-06
2.1645e-05
-4.29296e-06
2.21435e-05
-4.63195e-06
2.2615e-05
-4.83295e-06
2.3069e-05
-5.00996e-06
2.34869e-05
-5.09223e-06
2.38616e-05
-5.15678e-06
2.42054e-05
-5.18085e-06
2.45048e-05
-5.17815e-06
2.47627e-05
-5.14346e-06
2.49975e-05
-5.08805e-06
2.51684e-05
-5.00212e-06
2.53273e-05
-4.93501e-06
-4.87225e-06
2.54684e-05
1.69803e-05
-6.94787e-06
1.73145e-05
-3.8056e-06
1.78168e-05
-3.76364e-06
1.84202e-05
-3.85529e-06
1.89e-05
-3.87159e-06
1.92768e-05
-3.96843e-06
1.9564e-05
-4.18423e-06
1.98719e-05
-4.37481e-06
2.01545e-05
-4.50317e-06
2.0502e-05
-4.63357e-06
2.08601e-05
-4.69948e-06
2.12319e-05
-4.73601e-06
2.16067e-05
-4.74304e-06
2.19581e-05
-4.7019e-06
2.22694e-05
-4.6278e-06
2.2518e-05
-4.50705e-06
2.275e-05
-4.45658e-06
-4.37676e-06
2.29268e-05
1.50724e-05
-6.09163e-06
1.51943e-05
-3.37641e-06
1.54437e-05
-3.41648e-06
1.5802e-05
-3.58617e-06
1.62822e-05
-3.68263e-06
1.67194e-05
-3.69339e-06
1.70802e-05
-3.79333e-06
1.74542e-05
-3.9623e-06
1.78193e-05
-4.05463e-06
1.81722e-05
-4.15465e-06
1.85463e-05
-4.23087e-06
1.89144e-05
-4.26084e-06
1.92762e-05
-4.26944e-06
1.96214e-05
-4.2296e-06
1.99328e-05
-4.14639e-06
2.02188e-05
-4.03093e-06
2.04683e-05
-3.97976e-06
-3.90755e-06
2.06874e-05
1.37006e-05
-5.02895e-06
1.37839e-05
-2.92265e-06
1.39998e-05
-3.04995e-06
1.42426e-05
-3.21558e-06
1.45213e-05
-3.30553e-06
1.48399e-05
-3.31209e-06
1.51508e-05
-3.36254e-06
1.54707e-05
-3.50416e-06
1.5852e-05
-3.6294e-06
1.61999e-05
-3.67617e-06
1.65633e-05
-3.75592e-06
1.69183e-05
-3.77613e-06
1.72493e-05
-3.76877e-06
1.7568e-05
-3.73376e-06
1.78699e-05
-3.65946e-06
1.81842e-05
-3.58738e-06
1.84807e-05
-3.55506e-06
-3.45345e-06
1.8709e-05
1.20295e-05
-4.5097e-06
1.22025e-05
-2.58354e-06
1.24786e-05
-2.771e-06
1.27992e-05
-2.95057e-06
1.31046e-05
-2.98258e-06
1.34243e-05
-2.95998e-06
1.37196e-05
-2.94359e-06
1.40097e-05
-3.04333e-06
1.43437e-05
-3.18438e-06
1.46881e-05
-3.22126e-06
1.50306e-05
-3.2882e-06
1.53723e-05
-3.30557e-06
1.56901e-05
-3.28212e-06
1.59817e-05
-3.23718e-06
1.62507e-05
-3.16408e-06
1.65058e-05
-3.11059e-06
1.67014e-05
-3.05244e-06
-2.96496e-06
1.68738e-05
1.07536e-05
-4.11256e-06
1.1154e-05
-2.50444e-06
1.1371e-05
-2.46846e-06
1.14991e-05
-2.52894e-06
1.16361e-05
-2.52906e-06
1.18494e-05
-2.54076e-06
1.2158e-05
-2.57976e-06
1.24972e-05
-2.6746e-06
1.28361e-05
-2.78816e-06
1.32008e-05
-2.83186e-06
1.35495e-05
-2.87204e-06
1.38699e-05
-2.85943e-06
1.41673e-05
-2.81978e-06
1.44225e-05
-2.74794e-06
1.4676e-05
-2.6966e-06
1.49051e-05
-2.6467e-06
1.50955e-05
-2.58139e-06
-2.52395e-06
1.52805e-05
9.66059e-06
-3.27705e-06
9.8761e-06
-2.27892e-06
1.01438e-05
-2.25784e-06
1.0373e-05
-2.25192e-06
1.05984e-05
-2.20937e-06
1.08457e-05
-2.20259e-06
1.11114e-05
-2.22139e-06
1.13778e-05
-2.28304e-06
1.16479e-05
-2.37338e-06
1.19301e-05
-2.41113e-06
1.21668e-05
-2.39619e-06
1.24217e-05
-2.40069e-06
1.26838e-05
-2.3755e-06
1.29558e-05
-2.32995e-06
1.32086e-05
-2.28068e-06
1.34359e-05
-2.23068e-06
1.36558e-05
-2.18804e-06
-2.12174e-06
1.38338e-05
8.67584e-06
-2.83308e-06
8.93502e-06
-2.13704e-06
9.19969e-06
-2.08622e-06
9.44503e-06
-2.03595e-06
9.67754e-06
-1.94505e-06
9.90672e-06
-1.89729e-06
1.01314e-05
-1.87552e-06
1.03376e-05
-1.88672e-06
1.05378e-05
-1.94594e-06
1.07304e-05
-1.95881e-06
1.09401e-05
-1.95202e-06
1.11127e-05
-1.91921e-06
1.13289e-05
-1.94536e-06
1.15474e-05
-1.91548e-06
1.17306e-05
-1.85012e-06
1.19102e-05
-1.82043e-06
1.20338e-05
-1.74966e-06
-1.68111e-06
1.21244e-05
7.53686e-06
-2.3753e-06
7.93511e-06
-2.17434e-06
8.26752e-06
-2.02488e-06
8.51259e-06
-1.86364e-06
8.68873e-06
-1.67129e-06
8.82701e-06
-1.55148e-06
8.9484e-06
-1.48001e-06
9.0458e-06
-1.43842e-06
9.15362e-06
-1.48509e-06
9.2441e-06
-1.4647e-06
9.31245e-06
-1.42745e-06
9.3961e-06
-1.40855e-06
9.44261e-06
-1.40331e-06
9.48976e-06
-1.38591e-06
9.52823e-06
-1.32929e-06
9.5462e-06
-1.30099e-06
9.56648e-06
-1.25819e-06
-1.19689e-06
9.56603e-06
6.95643e-06
-2.0363e-06
7.27041e-06
-2.16669e-06
7.36311e-06
-1.76408e-06
7.31218e-06
-1.43793e-06
7.20096e-06
-1.15539e-06
7.10378e-06
-1.01842e-06
7.03727e-06
-9.47729e-07
6.99493e-06
-9.0403e-07
6.8954e-06
-8.72578e-07
6.82481e-06
-8.66306e-07
6.75087e-06
-8.17269e-07
6.66051e-06
-7.80072e-07
6.59117e-06
-8.00245e-07
6.52109e-06
-7.9229e-07
6.45874e-06
-7.5898e-07
6.39355e-06
-7.4746e-07
6.3406e-06
-7.39713e-07
-7.0317e-07
6.28714e-06
6.23778e-06
-1.68808e-06
5.84652e-06
-1.49295e-06
5.36377e-06
-9.65814e-07
4.90549e-06
-6.43911e-07
4.53919e-06
-4.26375e-07
4.23212e-06
-3.20449e-07
3.99062e-06
-2.88349e-07
3.81001e-06
-2.81769e-07
3.68104e-06
-2.83087e-07
3.58122e-06
-2.92693e-07
3.52196e-06
-2.7696e-07
3.51085e-06
-2.86363e-07
3.46709e-06
-2.78362e-07
3.42876e-06
-2.85157e-07
3.41138e-06
-2.86993e-07
3.40044e-06
-2.9957e-07
3.40129e-06
-3.23841e-07
-3.19494e-07
3.41281e-06
4.03124e-06
2.72221e-06
1.97626e-06
1.58212e-06
1.43455e-06
1.42086e-06
1.46509e-06
1.53822e-06
1.62795e-06
1.72109e-06
1.83767e-06
1.94735e-06
2.06257e-06
2.16417e-06
2.25304e-06
2.31538e-06
2.33773e-06
2.34785e-06
-5.69237e-07
-8.92283e-07
-1.23119e-06
-8.44603e-07
-1.89719e-06
-8.20035e-07
-2.51202e-06
-8.627e-07
-3.09044e-06
-9.04611e-07
-3.66942e-06
-9.14979e-07
-4.25697e-06
-9.13547e-07
-4.86725e-06
-8.9617e-07
-5.48947e-06
-8.8441e-07
-6.12995e-06
-8.67481e-07
-6.78827e-06
-8.47255e-07
-7.46928e-06
-8.20826e-07
-8.17731e-06
-7.88969e-07
-8.89679e-06
-7.72602e-07
-9.61894e-06
-7.64813e-07
-1.0351e-05
-7.49163e-07
-1.10893e-05
-7.36654e-07
-1.18275e-05
-7.28792e-07
-1.25544e-05
-7.30456e-07
-1.32532e-05
-7.495e-07
-1.39296e-05
-7.63624e-07
-1.45763e-05
-7.82219e-07
-1.51819e-05
-8.09182e-07
-1.57246e-05
-8.57788e-07
-1.6203e-05
-9.07818e-07
-1.66161e-05
-9.55449e-07
-1.69498e-05
-1.01384e-06
-1.72183e-05
-1.05759e-06
-1.74514e-05
-1.07046e-06
-1.76652e-05
-1.06443e-06
-1.78587e-05
-1.06127e-06
-1.80195e-05
-1.07229e-06
-1.8167e-05
-1.05832e-06
-1.8295e-05
-1.04704e-06
-1.83299e-05
-1.11284e-06
-1.82753e-05
-1.17706e-06
-1.81017e-05
-1.27239e-06
-1.77941e-05
-1.38156e-06
-1.73404e-05
-1.49812e-06
-1.67626e-05
-1.59086e-06
-1.60464e-05
-1.69631e-06
-1.52387e-05
-1.75532e-06
-1.43981e-05
-1.75505e-06
-1.35676e-05
-1.71417e-06
-1.27642e-05
-1.65921e-06
-1.19421e-05
-1.65145e-06
-1.11354e-05
-1.60952e-06
-1.04076e-05
-1.50006e-06
-9.71778e-06
-1.43116e-06
-9.08759e-06
-1.34682e-06
-8.58429e-06
-1.19577e-06
-8.261e-06
-9.8366e-07
-8.26935e-06
-6.15541e-07
-8.70294e-06
-1.66453e-07
-9.34206e-06
4.26361e-08
-1.00218e-05
7.72644e-08
-1.07168e-05
9.22571e-08
-1.12988e-05
-1.43373e-08
-1.15744e-05
-3.17625e-07
-1.16755e-05
-4.80719e-07
-1.18459e-05
-3.84918e-07
-1.20453e-05
-3.49928e-07
-1.21848e-05
-4.3977e-07
-1.22539e-05
-5.39176e-07
-1.19787e-05
-8.87022e-07
-1.14601e-05
-1.1253e-06
-1.09572e-05
-1.10814e-06
-1.02322e-05
-1.33269e-06
-8.88201e-06
-1.96556e-06
-7.15465e-06
-2.34946e-06
-5.64403e-06
-2.13271e-06
-4.76249e-06
-1.50438e-06
-4.49938e-06
-8.91028e-07
-4.41189e-06
-7.15171e-07
-4.15205e-06
-8.73744e-07
-3.65942e-06
-1.08933e-06
-3.2213e-06
-1.03461e-06
-3.16537e-06
-6.69993e-07
-3.69827e-06
-9.27118e-08
-4.7291e-06
4.05733e-07
-6.04196e-06
7.03764e-07
-7.41831e-06
7.95746e-07
-8.67799e-06
7.03736e-07
-9.84969e-06
6.50715e-07
-1.08517e-05
5.19756e-07
-1.16772e-05
3.84971e-07
-1.23524e-05
2.76873e-07
-1.2743e-05
3.77294e-08
-1.30069e-05
-3.68474e-08
-1.30809e-05
-1.74866e-07
-1.30155e-05
-2.57625e-07
-1.27783e-05
-3.59941e-07
-1.23435e-05
-4.7527e-07
-1.16474e-05
-6.5905e-07
-1.06152e-05
-9.40583e-07
-9.45405e-06
-1.02297e-06
-8.35945e-06
-8.77925e-07
-7.32398e-06
-7.1729e-07
-6.24814e-06
-6.87486e-07
-5.12228e-06
-6.57187e-07
-3.99921e-06
-5.69668e-07
-1.94949e-06
-1.43095e-06
-1.33163e-06
7.38643e-08
8.51339e-09
-5.78564e-07
1.02588e-06
-1.9551e-07
2.16842e-06
-2.59928e-07
3.01006e-06
1.01722e-07
3.77857e-06
2.32334e-07
4.27079e-06
5.69522e-07
4.64662e-06
7.45318e-07
4.85099e-06
9.78827e-07
4.89498e-06
1.21398e-06
4.66674e-06
1.58385e-06
4.22078e-06
1.91481e-06
3.53017e-06
2.28962e-06
2.63617e-06
2.6507e-06
1.49167e-06
3.08444e-06
1.5373e-07
3.49749e-06
-1.423e-06
3.97791e-06
-3.10883e-06
4.36962e-06
-4.84718e-06
4.73811e-06
-6.5402e-06
5.02878e-06
-8.25563e-06
5.38418e-06
-9.9426e-06
5.74853e-06
-1.1564e-05
6.13946e-06
-1.31733e-05
6.60539e-06
-1.4803e-05
7.07036e-06
-1.6215e-05
7.33333e-06
-1.71383e-05
7.32848e-06
-1.76149e-05
7.30631e-06
-1.79637e-05
7.57401e-06
-1.83405e-05
8.00076e-06
-1.89201e-05
8.57967e-06
-1.96767e-05
9.19518e-06
-2.0619e-05
9.8816e-06
-2.12217e-05
1.02043e-05
-2.18058e-05
1.0776e-05
-2.26323e-05
1.15771e-05
-2.35092e-05
1.2154e-05
-2.44179e-05
1.2788e-05
-2.51422e-05
1.31565e-05
-2.55285e-05
1.33307e-05
-2.52692e-05
1.32586e-05
-2.47536e-05
1.3361e-05
-2.34191e-05
1.30281e-05
-2.211e-05
1.33275e-05
-2.03016e-05
1.31688e-05
-1.86119e-05
1.35034e-05
-1.6721e-05
1.3466e-05
-1.52176e-05
1.39047e-05
-1.35362e-05
1.37408e-05
-1.24683e-05
1.43041e-05
-1.05065e-05
1.33057e-05
-9.21007e-06
1.38512e-05
-6.83936e-06
1.25579e-05
-4.8994e-06
1.29131e-05
-3.1254e-06
1.2781e-05
-4.03883e-07
1.16576e-05
1.48966e-06
1.24066e-05
3.3337e-06
1.22004e-05
5.65444e-06
1.16753e-05
7.59439e-06
1.19459e-05
9.52421e-06
1.18761e-05
1.12495e-05
1.19826e-05
1.24195e-05
1.25178e-05
1.32892e-05
1.27682e-05
1.41749e-05
1.26646e-05
1.4715e-05
1.28557e-05
1.51664e-05
1.26767e-05
1.53653e-05
1.25544e-05
1.54003e-05
1.23017e-05
1.51412e-05
1.20113e-05
1.49651e-05
1.14055e-05
1.54175e-05
9.81865e-06
1.50041e-05
9.75799e-06
1.42092e-05
9.14452e-06
1.34921e-05
8.41062e-06
1.23504e-05
8.38318e-06
1.09276e-05
8.17804e-06
8.47597e-06
8.82816e-06
-7.35422e-07
-1.59022e-06
-1.52401e-06
-1.51574e-06
-2.19179e-06
-1.56552e-06
-2.82951e-06
-1.63854e-06
-3.43434e-06
-1.73135e-06
-4.05958e-06
-1.74472e-06
-4.70982e-06
-1.72426e-06
-5.36576e-06
-1.70972e-06
-6.02791e-06
-1.69652e-06
-6.7188e-06
-1.6559e-06
-7.45349e-06
-1.59641e-06
-8.18423e-06
-1.57647e-06
-8.85354e-06
-1.6107e-06
-9.52218e-06
-1.60171e-06
-1.02925e-05
-1.49409e-06
-1.10583e-05
-1.48184e-06
-1.18225e-05
-1.46498e-06
-1.25966e-05
-1.43924e-06
-1.3382e-05
-1.42678e-06
-1.41892e-05
-1.42105e-06
-1.49731e-05
-1.44695e-06
-1.5714e-05
-1.49043e-06
-1.63743e-05
-1.58306e-06
-1.69536e-05
-1.69898e-06
-1.74168e-05
-1.84526e-06
-1.77596e-05
-1.98551e-06
-1.80127e-05
-2.10839e-06
-1.82296e-05
-2.16694e-06
-1.84067e-05
-2.19403e-06
-1.85642e-05
-2.18095e-06
-1.87139e-05
-2.16959e-06
-1.88866e-05
-2.14012e-06
-1.90445e-05
-2.10357e-06
-1.91424e-05
-2.11264e-06
-1.91556e-05
-2.24152e-06
-1.90671e-05
-2.38406e-06
-1.88062e-05
-2.62657e-06
-1.8388e-05
-2.86598e-06
-1.78315e-05
-3.08844e-06
-1.71461e-05
-3.27719e-06
-1.63066e-05
-3.50461e-06
-1.54016e-05
-3.60414e-06
-1.44325e-05
-3.63694e-06
-1.34411e-05
-3.58557e-06
-1.25251e-05
-3.41791e-06
-1.15848e-05
-3.40332e-06
-1.05792e-05
-3.42366e-06
-9.59906e-06
-3.27402e-06
-8.54465e-06
-3.22344e-06
-7.48975e-06
-3.09349e-06
-6.58287e-06
-2.78438e-06
-5.60726e-06
-2.62722e-06
-4.56194e-06
-2.30247e-06
-3.7697e-06
-1.57876e-06
-3.30655e-06
-1.0305e-06
-3.30342e-06
-5.20142e-07
-3.83222e-06
6.74358e-08
-4.82005e-06
4.41871e-07
-6.14174e-06
4.26306e-07
-7.36259e-06
1.08983e-07
-8.35391e-06
-1.34742e-08
-8.91775e-06
-3.49371e-07
-9.21225e-06
-6.92682e-07
-9.50886e-06
-8.26772e-07
-9.38908e-06
-1.62085e-06
-8.90411e-06
-2.21892e-06
-8.33869e-06
-2.23208e-06
-7.3223e-06
-2.87234e-06
-5.97431e-06
-3.87807e-06
-4.48068e-06
-4.46887e-06
-3.02414e-06
-4.25083e-06
-1.83345e-06
-3.35516e-06
-9.6871e-07
-2.39356e-06
-7.38077e-07
-1.57248e-06
-1.41043e-06
-8.34308e-07
-3.07418e-06
-7.98302e-08
-5.40173e-06
6.12148e-07
-7.85825e-06
1.09762e-06
-1.00105e-05
1.39228e-06
-1.17392e-05
1.49964e-06
-1.30932e-05
1.46301e-06
-1.42427e-05
1.39812e-06
-1.52363e-05
1.20344e-06
-1.59458e-05
9.19486e-07
-1.64882e-05
6.72375e-07
-1.68163e-05
3.79959e-07
-1.68981e-05
7.17554e-08
-1.69008e-05
-2.07282e-07
-1.66822e-05
-4.63219e-07
-1.63434e-05
-6.89154e-07
-1.59115e-05
-8.04784e-07
-1.52303e-05
-1.02696e-06
-1.4327e-05
-1.21639e-06
-1.31049e-05
-1.6445e-06
-1.17248e-05
-2.12486e-06
-1.02956e-05
-2.30731e-06
-8.92941e-06
-2.02299e-06
-7.62803e-06
-1.63614e-06
-6.35741e-06
-1.48409e-06
-5.07741e-06
-1.37753e-06
-3.55097e-06
-1.43504e-06
-1.33693e-06
-2.9354e-06
-6.34658e-07
8.11717e-08
7.97791e-07
-1.19417e-06
1.98483e-06
-5.1589e-07
3.34989e-06
-6.91282e-07
4.38151e-06
5.54887e-08
5.35598e-06
2.85738e-07
5.96945e-06
1.02166e-06
6.52219e-06
1.30894e-06
6.86933e-06
1.82079e-06
7.07173e-06
2.26384e-06
7.04571e-06
2.95271e-06
6.7677e-06
3.63391e-06
6.22727e-06
4.39592e-06
5.51466e-06
5.08292e-06
4.54162e-06
5.99454e-06
3.37381e-06
6.87845e-06
1.95908e-06
7.94257e-06
2.99264e-07
8.92911e-06
-1.44393e-06
9.70849e-06
-3.00248e-06
1.01734e-05
-4.51733e-06
1.09e-05
-6.24463e-06
1.19125e-05
-7.88402e-06
1.26284e-05
-9.30812e-06
1.3436e-05
-1.07395e-05
1.46017e-05
-1.21673e-05
1.55466e-05
-1.35048e-05
1.59604e-05
-1.42834e-05
1.5636e-05
-1.48331e-05
1.58092e-05
-1.52377e-05
1.63706e-05
-1.61842e-05
1.77276e-05
-1.75526e-05
1.91111e-05
-1.93564e-05
2.07073e-05
-2.08279e-05
2.15314e-05
-2.23001e-05
2.29016e-05
-2.40476e-05
2.46076e-05
-2.59919e-05
2.58024e-05
-2.75765e-05
2.68297e-05
-2.83681e-05
2.70265e-05
-2.8858e-05
2.73284e-05
-2.82166e-05
2.68033e-05
-2.74172e-05
2.69975e-05
-2.5837e-05
2.63979e-05
-2.40629e-05
2.68295e-05
-2.21834e-05
2.67926e-05
-2.01033e-05
2.73352e-05
-1.81033e-05
2.74143e-05
-1.60861e-05
2.80284e-05
-1.41841e-05
2.77614e-05
-1.24824e-05
2.85114e-05
-1.01573e-05
2.643e-05
-8.24946e-06
2.72973e-05
-5.547e-06
2.41386e-05
-3.04889e-06
2.53012e-05
-5.5419e-07
2.46162e-05
2.06126e-06
2.27799e-05
4.41676e-06
2.41253e-05
6.77428e-06
2.34105e-05
9.53715e-06
2.2663e-05
1.20332e-05
2.31407e-05
1.44998e-05
2.29521e-05
1.69894e-05
2.30261e-05
1.89129e-05
2.40833e-05
2.01118e-05
2.51979e-05
2.0808e-05
2.57765e-05
2.06471e-05
2.704e-05
2.02584e-05
2.72233e-05
1.98115e-05
2.70107e-05
1.92567e-05
2.64811e-05
1.87841e-05
2.55547e-05
1.88891e-05
2.3922e-05
1.90066e-05
2.12708e-05
1.85065e-05
2.08661e-05
1.80226e-05
1.8378e-05
1.73127e-05
1.71523e-05
1.55511e-05
1.80625e-05
1.39268e-05
1.74018e-05
1.87869e-05
1.11105e-05
-7.44695e-07
-2.21555e-06
-1.61513e-06
-2.03151e-06
-2.32353e-06
-2.20966e-06
-2.96818e-06
-2.38196e-06
-3.52547e-06
-2.5753e-06
-4.06395e-06
-2.61358e-06
-4.66796e-06
-2.54276e-06
-5.34572e-06
-2.4715e-06
-6.07231e-06
-2.42307e-06
-6.79191e-06
-2.40927e-06
-7.39821e-06
-2.48701e-06
-8.01271e-06
-2.48005e-06
-8.89675e-06
-2.25521e-06
-9.76459e-06
-2.24675e-06
-1.05014e-05
-2.24861e-06
-1.14134e-05
-2.04785e-06
-1.23189e-05
-2.02728e-06
-1.33127e-05
-1.90448e-06
-1.43082e-05
-1.86908e-06
-1.52703e-05
-1.88032e-06
-1.62115e-05
-1.91398e-06
-1.70214e-05
-2.07443e-06
-1.7718e-05
-2.25934e-06
-1.82309e-05
-2.53305e-06
-1.85936e-05
-2.80498e-06
-1.88137e-05
-3.06482e-06
-1.89483e-05
-3.25507e-06
-1.90435e-05
-3.33663e-06
-1.91399e-05
-3.35054e-06
-1.92516e-05
-3.3121e-06
-1.94222e-05
-3.21923e-06
-1.96213e-05
-3.12372e-06
-1.98183e-05
-3.05841e-06
-1.99446e-05
-3.12151e-06
-2.00075e-05
-3.28998e-06
-1.99154e-05
-3.54948e-06
-1.96561e-05
-3.92665e-06
-1.92027e-05
-4.32804e-06
-1.85715e-05
-4.70069e-06
-1.77956e-05
-5.00418e-06
-1.69666e-05
-5.25621e-06
-1.61172e-05
-5.35226e-06
-1.52582e-05
-5.36983e-06
-1.4382e-05
-5.30459e-06
-1.3551e-05
-5.04757e-06
-1.27337e-05
-4.98838e-06
-1.18475e-05
-5.08042e-06
-1.09574e-05
-4.91652e-06
-9.85415e-06
-5.02635e-06
-8.60298e-06
-5.01163e-06
-7.6074e-06
-4.4426e-06
-6.44586e-06
-4.43781e-06
-5.14288e-06
-4.2401e-06
-4.15145e-06
-3.19003e-06
-3.33557e-06
-2.4346e-06
-2.64671e-06
-1.78009e-06
-2.06554e-06
-1.07735e-06
-1.77473e-06
-3.95378e-07
-2.24708e-06
3.67873e-07
-3.17761e-06
5.02432e-07
-4.29052e-06
5.62311e-07
-5.27704e-06
9.18368e-08
-6.0466e-06
-5.05296e-07
-6.56682e-06
-8.75825e-07
-6.9022e-06
-1.83531e-06
-7.16881e-06
-2.49906e-06
-6.90779e-06
-2.95475e-06
-5.93118e-06
-4.28768e-06
-4.85832e-06
-5.52267e-06
-4.17916e-06
-5.85202e-06
-3.96213e-06
-5.18067e-06
-4.22864e-06
-3.75444e-06
-5.04088e-06
-2.21207e-06
-6.47578e-06
-7.74812e-07
-8.32994e-06
3.57714e-07
-1.01924e-05
1.13216e-06
-1.17775e-05
1.59339e-06
-1.30842e-05
1.84142e-06
-1.41366e-05
1.90324e-06
-1.49513e-05
1.79413e-06
-1.55958e-05
1.62886e-06
-1.60368e-05
1.41741e-06
-1.63401e-05
1.14373e-06
-1.65811e-05
8.5068e-07
-1.66726e-05
5.10861e-07
-1.66171e-05
1.26406e-07
-1.64013e-05
-3.1145e-07
-1.61232e-05
-6.29358e-07
-1.57455e-05
-9.52406e-07
-1.53466e-05
-1.17096e-06
-1.47657e-05
-1.43297e-06
-1.40775e-05
-1.68072e-06
-1.31076e-05
-2.05288e-06
-1.19805e-05
-2.58005e-06
-1.0793e-05
-3.13349e-06
-9.43098e-06
-3.50925e-06
-7.86859e-06
-3.36189e-06
-6.24638e-06
-2.91457e-06
-4.80225e-06
-2.48681e-06
-3.59022e-06
-2.06895e-06
-2.11213e-06
-2.32073e-06
-5.59132e-08
-4.38276e-06
9.16158e-07
-2.38915e-07
2.17086e-06
-1.7305e-06
3.27095e-06
-8.38505e-07
4.70314e-06
-1.29475e-06
5.65363e-06
-1.87546e-08
6.77006e-06
6.92948e-08
7.38912e-06
1.31033e-06
7.90404e-06
1.73449e-06
8.30227e-06
2.42249e-06
8.54356e-06
3.05987e-06
8.56059e-06
4.02541e-06
8.41489e-06
4.91528e-06
7.95989e-06
6.06266e-06
7.17644e-06
7.12787e-06
6.31757e-06
8.21205e-06
5.25578e-06
9.46129e-06
3.90598e-06
1.10728e-05
2.25785e-06
1.26563e-05
3.05882e-07
1.41232e-05
-1.66527e-06
1.48298e-05
-3.21484e-06
1.54863e-05
-4.56883e-06
1.69443e-05
-6.42459e-06
1.86423e-05
-8.12336e-06
1.95775e-05
-9.41321e-06
2.11074e-05
-1.07652e-05
2.32276e-05
-1.21513e-05
2.44413e-05
-1.3675e-05
2.44489e-05
-1.48863e-05
2.43095e-05
-1.56035e-05
2.45648e-05
-1.65204e-05
2.63299e-05
-1.78483e-05
2.85639e-05
-1.97113e-05
3.1032e-05
-2.2011e-05
3.28822e-05
-2.37705e-05
3.46981e-05
-2.53123e-05
3.69068e-05
-2.67312e-05
3.83344e-05
-2.78909e-05
3.96512e-05
-2.77121e-05
3.91455e-05
-2.75915e-05
3.97477e-05
-2.67628e-05
3.89606e-05
-2.53354e-05
3.88562e-05
-2.37864e-05
3.82486e-05
-2.15506e-05
3.85803e-05
-1.95445e-05
3.85305e-05
-1.73787e-05
3.95689e-05
-1.51261e-05
3.93932e-05
-1.3045e-05
4.06479e-05
-1.10516e-05
4.01965e-05
-9.10674e-06
4.10246e-05
-6.92221e-06
3.78853e-05
-4.91976e-06
3.94521e-05
-2.65958e-06
3.42729e-05
-2.15848e-07
3.54372e-05
2.31816e-06
3.48633e-05
4.52674e-06
3.24485e-05
6.38262e-06
3.44325e-05
8.55742e-06
3.29739e-05
1.1522e-05
3.17253e-05
1.42969e-05
3.30207e-05
1.64987e-05
3.31141e-05
1.85638e-05
3.34319e-05
2.0556e-05
3.42363e-05
2.26859e-05
3.49819e-05
2.46484e-05
3.60166e-05
2.56235e-05
3.85587e-05
2.54148e-05
4.01531e-05
2.45826e-05
4.09061e-05
2.34518e-05
4.027e-05
2.21521e-05
3.88412e-05
2.1325e-05
3.50553e-05
2.13642e-05
3.12773e-05
1.96426e-05
3.17411e-05
1.87623e-05
2.68697e-05
1.86901e-05
2.52965e-05
1.73719e-05
2.73894e-05
1.57258e-05
2.63946e-05
2.95544e-05
1.25462e-05
-6.06364e-07
-2.91444e-06
-1.45662e-06
-2.52995e-06
-2.11835e-06
-2.87474e-06
-2.64023e-06
-3.19838e-06
-3.18841e-06
-3.36553e-06
-3.78729e-06
-3.36797e-06
-4.49168e-06
-3.25134e-06
-5.21925e-06
-3.19076e-06
-5.88257e-06
-3.20872e-06
-6.57887e-06
-3.209e-06
-7.47285e-06
-3.11531e-06
-8.42902e-06
-2.94814e-06
-9.27628e-06
-2.75504e-06
-1.03371e-05
-2.6005e-06
-1.13143e-05
-2.67477e-06
-1.22801e-05
-2.43684e-06
-1.34422e-05
-2.25861e-06
-1.44954e-05
-2.23431e-06
-1.55726e-05
-2.18346e-06
-1.65106e-05
-2.31979e-06
-1.73155e-05
-2.45661e-06
-1.8001e-05
-2.71906e-06
-1.84543e-05
-3.08955e-06
-1.87777e-05
-3.47508e-06
-1.8915e-05
-3.92497e-06
-1.8942e-05
-4.29649e-06
-1.88702e-05
-4.57713e-06
-1.87334e-05
-4.70802e-06
-1.86016e-05
-4.70337e-06
-1.85779e-05
-4.54357e-06
-1.87004e-05
-4.28803e-06
-1.8922e-05
-4.06928e-06
-1.91566e-05
-3.95794e-06
-1.93504e-05
-4.02668e-06
-1.9484e-05
-4.22024e-06
-1.94517e-05
-4.61841e-06
-1.92277e-05
-5.15182e-06
-1.87548e-05
-5.7634e-06
-1.80564e-05
-6.3361e-06
-1.72248e-05
-6.75129e-06
-1.63373e-05
-7.03496e-06
-1.54716e-05
-7.06977e-06
-1.46772e-05
-6.97851e-06
-1.39235e-05
-6.84353e-06
-1.3181e-05
-6.54707e-06
-1.25585e-05
-6.34964e-06
-1.19e-05
-6.50665e-06
-1.10406e-05
-6.5205e-06
-1.00377e-05
-6.70423e-06
-9.115e-06
-6.6106e-06
-8.17096e-06
-6.02248e-06
-7.05582e-06
-6.10737e-06
-6.01622e-06
-5.87014e-06
-5.21907e-06
-4.59039e-06
-4.28268e-06
-3.90309e-06
-3.4638e-06
-3.13027e-06
-2.74501e-06
-2.32675e-06
-1.99388e-06
-1.65772e-06
-1.50684e-06
-6.29657e-07
-1.49417e-06
-2.16175e-08
-1.99066e-06
5.49403e-07
-2.85836e-06
4.65442e-07
-3.7241e-06
-1.25625e-07
-4.35257e-06
-7.52932e-07
-4.87161e-06
-1.86685e-06
-5.41503e-06
-2.4464e-06
-5.54787e-06
-3.19175e-06
-5.56726e-06
-4.7458e-06
-5.90432e-06
-5.90031e-06
-6.7684e-06
-5.76481e-06
-7.94685e-06
-4.69227e-06
-9.18818e-06
-3.13515e-06
-1.04463e-05
-1.55916e-06
-1.16623e-05
-1.42047e-07
-1.28036e-05
9.60298e-07
-1.37548e-05
1.57979e-06
-1.44327e-05
1.78468e-06
-1.48572e-05
1.79477e-06
-1.51347e-05
1.72881e-06
-1.53853e-05
1.625e-06
-1.56191e-05
1.4856e-06
-1.58025e-05
1.26915e-06
-1.59693e-05
1.0205e-06
-1.61032e-05
7.41109e-07
-1.61683e-05
3.99447e-07
-1.60814e-05
-7.58063e-08
-1.59271e-05
-5.60788e-07
-1.56942e-05
-9.67747e-07
-1.53951e-05
-1.34784e-06
-1.48913e-05
-1.72484e-06
-1.42044e-05
-2.12448e-06
-1.33906e-05
-2.45944e-06
-1.24699e-05
-2.90005e-06
-1.14637e-05
-3.47825e-06
-1.03278e-05
-4.11094e-06
-9.02492e-06
-4.57482e-06