/*--------------------------------*- C++ -*----------------------------------*\
| =========                 |                                                 |
| \\      /  F ield         | OpenFOAM: The Open Source CFD Toolbox           |
|  \\    /   O peration     | Version:  dev                                   |
|   \\  /    A nd           | Web:      http://www.openfoam.org               |
|    \\/     M anipulation  |                                                 |
\*---------------------------------------------------------------------------*/
FoamFile
{
    version     2.0;
    format      ascii;
    class       volScalarField;
    object      pMean;
    location    "9.127";
}
// * * * * * * * * * * * * * * * * * * * * * * * * * * * * * * * * * * * * * //

dimensions      [1 -1 -2 0 0 0 0];

internalField   nonuniform List<scalar> 
12225
(
98313.5
98293.7
98280
98273
98258.7
98249.3
98230.8
98221.3
98199.8
98191
98166.3
98159.5
98128.5
98122.2
98081.5
98041.8
97952.7
97586.9
98309
98292.6
98279.4
98272.4
98258.1
98248.7
98230.2
98220.7
98199.1
98190.6
98165.6
98159
98128.2
98120.3
98079.7
98045.9
97953.6
97792.6
98305.2
98291
98278.4
98271.1
98256.7
98247.2
98228.7
98219.3
98197.6
98189.1
98164.8
98156.9
98128.7
98116.9
98082
98046.8
97979.4
97890.7
98300.2
98288.1
98276.3
98268.6
98254.3
98244.5
98226.6
98216.7
98195.9
98186.4
98163.4
98153.8
98127.6
98114.7
98083
98055.2
98006.7
97937.9
98293.5
98283.7
98272.7
98264.6
98250.7
98240.4
98223.5
98212.5
98193.4
98182.2
98161.9
98149.3
98127.8
98111.5
98084.9
98060.7
98020.8
97988.1
98285.3
98277.6
98266.8
98258.5
98245.1
98234.5
98218.4
98206.8
98189
98176.9
98158.7
98145.1
98126.7
98109.8
98088.4
98063.1
98041
98020.6
98275
98268.6
98258.3
98249.8
98237.2
98226.1
98211.3
98198.7
98183
98169.5
98154.1
98139
98124.5
98106.9
98092.6
98071.7
98061.3
98046.4
98264.2
98258.6
98248.9
98240.2
98228.5
98217
98203.4
98190.2
98176.2
98161.9
98148.8
98133.2
98121.6
98104.3
98095.6
98077.8
98076.1
98061.1
98253.4
98247.9
98239.1
98230.2
98219.4
98207.6
98195.1
98181.6
98169
98154.4
98142.9
98127.4
98117.8
98101.8
98095.5
98081.3
98081
98069.1
98239.7
98234.3
98226.6
98217.6
98207.7
98195.9
98184.4
98170.9
98159.6
98145.1
98135.1
98120.2
98112
98097.6
98092.7
98080.9
98080.1
98071.8
98222.8
98217.3
98210.8
98202
98192.9
98181.4
98170.7
98157.7
98147.2
98133.6
98124.3
98111.1
98103.1
98091.6
98086
98077.4
98074.7
98069.6
98202.2
98196.5
98191.3
98182.9
98174.5
98163.4
98153.6
98141.3
98131.7
98119.1
98110.5
98099
98091.5
98082.2
98076.5
98070.1
98066.5
98062.9
98177.4
98172.1
98167.6
98160.1
98152.2
98142.2
98132.8
98121.9
98112.7
98102
98093.6
98084.3
98077.1
98069.9
98064.4
98059.6
98055.9
98053.2
98149.2
98144.4
98140.4
98133.8
98126.6
98117.7
98109.1
98099.6
98091
98082.1
98074.4
98066.8
98060.4
98054.7
98050.1
98046.2
98043.3
98041.2
98119
98115.3
98111.5
98106.1
98099.6
98092
98084.2
98076.1
98068.5
98061.1
98054.4
98048.3
98043
98038.4
98034.7
98031.8
98029.6
98028.1
98091.3
98088.5
98085.2
98080.7
98075.1
98068.6
98061.8
98054.9
98048.3
98042.2
98036.6
98031.6
98027.3
98023.8
98020.9
98018.7
98017.2
98016.3
98072.7
98070.7
98068
98064.1
98059.1
98053.5
98047.5
98041.6
98035.9
98030.7
98025.9
98021.7
98018.2
98015.3
98013
98011.3
98010.2
98009.5
98072.9
98071.3
98068.7
98065
98060.3
98054.9
98049.4
98043.8
98038.5
98033.5
98029.1
98025.1
98021.8
98019
98016.7
98015.1
98013.9
98013.1
98092.7
98090.8
98088
98084
98079.1
98073.6
98067.8
98062
98056.4
98051.2
98046.4
98042.2
98038.4
98035.2
98032.6
98030.4
98028.7
98027.5
98123.5
98121.3
98117.9
98113.4
98108
98102
98095.6
98089.3
98083.1
98077.3
98071.9
98067
98062.6
98058.7
98055.4
98052.6
98050.2
98048.3
98158.3
98155.7
98151.7
98146.5
98140.4
98133.8
98126.8
98119.8
98113
98106.5
98100.4
98094.7
98089.6
98084.9
98080.8
98077.2
98074.1
98071.4
98192.3
98189.2
98184.4
98178.5
98171.8
98164.6
98157.1
98149.5
98142
98134.8
98128
98121.6
98115.8
98110.4
98105.6
98101.3
98097.4
98094
98222.5
98218.8
98213.3
98206.8
98199.6
98191.8
98183.8
98175.7
98167.7
98159.9
98152.5
98145.5
98139
98133.1
98127.6
98122.7
98118.2
98114.2
98247.8
98243.5
98237.2
98230.1
98222.4
98214.3
98205.9
98197.4
98188.9
98180.7
98172.8
98165.4
98158.4
98151.9
98145.9
98140.5
98135.5
98131
98268.1
98262.9
98255.8
98248.1
98240.1
98231.7
98223.1
98214.3
98205.6
98197
98188.7
98180.9
98173.5
98166.7
98160.3
98154.5
98149.1
98144.2
98283.8
98277.4
98269.4
98261.2
98253
98244.6
98235.8
98226.8
98217.8
98209
98200.5
98192.4
98184.8
98177.6
98171
98164.8
98159.2
98154
98295.6
98287.7
98278.7
98270.2
98261.9
98253.4
98244.5
98235.5
98226.4
98217.4
98208.7
98200.5
98192.6
98185.3
98178.4
98172.1
98166.2
98160.8
98304.3
98294.5
98284.4
98275.7
98267.5
98259
98250.1
98241
98231.9
98222.8
98214
98205.6
98197.7
98190.2
98183.2
98176.8
98170.8
98165.3
98310.4
98298.3
98287.1
98278.5
98270.5
98262.1
98253.3
98244.2
98235
98225.9
98217.1
98208.6
98200.6
98193
98186
98179.4
98173.4
98167.8
98316.3
98300.8
98288.7
98279.9
98271.7
98263.4
98254.6
98245.5
98236.3
98227.2
98218.3
98209.8
98201.8
98194.2
98187.1
98180.6
98174.5
98168.9
98313.3
98312.9
98312.1
98311
98309.5
98307.6
98305.4
98302.8
98299.8
98296.3
98292.5
98288.2
98283.6
98278.7
98273.4
98268
98262.3
98256.4
98250.2
98244
98237.5
98231
98224.3
98217.5
98210.6
98203.6
98196.6
98189.5
98182.4
98175.3
98168.3
98161.2
98154.2
98147.2
98140.4
98133.6
98127
98120.5
98114.2
98108
98102.1
98096.4
98091
98085.9
98081.1
98076.6
98072.5
98068.8
98065.5
98062.6
98060.2
98058.3
98057
98056.1
98055.8
98056.2
98057.1
98058.7
98061
98064
98067.7
98072
98077.1
98082.9
98089.5
98096.7
98104.7
98113.3
98122.6
98132.6
98143.2
98154.4
98166.1
98178.4
98191.2
98204.4
98218
98232
98246.3
98260.9
98275.7
98290.7
98305.8
98321
98336.3
98351.6
98366.7
98381.8
98396.7
98411.4
98425.9
98440
98453.8
98467.1
98480
98492.4
98504.3
98515.7
98526.4
98536.5
98546.1
98554.9
98563.2
98570.7
98577.7
98584
98589.7
98594.8
98599.4
98603.5
98607.2
98610.3
98613.2
98615.7
98617.9
98619.7
98621.4
98622.8
98624.1
98625.2
98626.3
98627.3
98628.5
98629.8
98631.4
98633.4
98636.1
98639.5
98643.9
98649.5
98656.6
98665.3
98676
98688.9
98704.2
98722.2
98743.1
98766.8
98793.6
98823.4
98856.4
98892.3
98931.1
98972.6
99016.9
99063.4
99112.4
99163
99215.6
99269.8
99325.3
99381.7
99438.7
99496
99553.2
99609.8
99665.2
99719
99770
99817.9
99861.4
99899.8
99931.8
99956.9
99973.7
99981.3
99978.7
99965.7
99941.7
99907.1
99861.7
99807
99743.1
99672.4
99595.4
99514.9
99430.4
99345.7
99258.9
99175.8
98306.3
98306
98305.2
98304
98302.5
98300.6
98298.4
98295.8
98292.8
98289.4
98285.6
98281.4
98276.9
98272.2
98267.1
98261.8
98256.2
98250.5
98244.6
98238.5
98232.2
98225.9
98219.3
98212.7
98206
98199.2
98192.3
98185.4
98178.5
98171.5
98164.6
98157.7
98150.8
98144
98137.3
98130.7
98124.2
98117.9
98111.7
98105.7
98099.9
98094.3
98089
98083.9
98079.2
98074.8
98070.8
98067.1
98063.9
98061
98058.6
98056.7
98055.3
98054.5
98054.2
98054.5
98055.4
98056.9
98059.1
98062
98065.6
98069.8
98074.8
98080.5
98086.9
98094
98101.8
98110.3
98119.4
98129.2
98139.6
98150.6
98162.2
98174.2
98186.8
98199.8
98213.2
98226.9
98241
98255.3
98269.9
98284.7
98299.5
98314.5
98329.5
98344.5
98359.4
98374.2
98388.8
98403.2
98417.3
98431.2
98444.6
98457.7
98470.3
98482.4
98494.1
98505.1
98515.6
98525.5
98534.8
98543.4
98551.5
98558.8
98565.6
98571.7
98577.3
98582.3
98586.8
98590.8
98594.4
98597.4
98600.2
98602.6
98604.8
98606.6
98608.2
98609.5
98610.7
98611.8
98612.8
98613.7
98614.8
98616
98617.4
98619.3
98621.7
98624.8
98628.9
98634.2
98640.9
98649.1
98659.3
98671.7
98686.4
98703.7
98723.8
98746.8
98772.7
98801.6
98833.7
98868.6
98906.3
98946.7
98989.9
99035.3
99083.1
99132.6
99184
99237
99291.3
99346.6
99402.5
99458.7
99514.9
99570.6
99625
99678
99728.3
99775.6
99818.7
99856.8
99888.8
99914
99931.1
99939.2
99937.5
99925.6
99902.9
99869.7
99826
99773
99710.9
99642
99566.8
99488
99405.1
99321.9
99236.1
99151.2
98293.6
98293.3
98292.5
98291.3
98289.7
98287.7
98285.4
98282.7
98279.7
98276.3
98272.6
98268.6
98264.3
98259.7
98254.8
98249.8
98244.6
98239.1
98233.6
98227.9
98222
98216
98209.8
98203.6
98197.2
98190.8
98184.2
98177.6
98171
98164.4
98157.7
98151.1
98144.5
98137.9
98131.5
98125.1
98118.8
98112.7
98106.8
98101
98095.4
98090
98084.8
98079.9
98075.4
98071.1
98067.1
98063.6
98060.4
98057.6
98055.2
98053.3
98051.8
98050.9
98050.5
98050.7
98051.5
98053
98055
98057.7
98061.1
98065.2
98069.9
98075.4
98081.5
98088.3
98095.9
98104
98112.9
98122.3
98132.4
98143
98154.2
98165.9
98178
98190.6
98203.5
98216.9
98230.5
98244.4
98258.5
98272.8
98287.2
98301.6
98316.1
98330.6
98344.9
98359.2
98373.3
98387.1
98400.7
98414
98426.9
98439.4
98451.5
98463.1
98474.1
98484.7
98494.7
98504.1
98512.9
98521.1
98528.7
98535.7
98542.2
98548
98553.3
98558
98562.3
98566
98569.4
98572.3
98575
98577.2
98579.2
98580.9
98582.4
98583.6
98584.7
98585.6
98586.4
98587.1
98587.9
98588.8
98589.9
98591.3
98593.3
98595.8
98599.3
98603.8
98609.7
98617.1
98626.3
98637.5
98651
98666.9
98685.5
98706.9
98731.2
98758.3
98788.4
98821.3
98856.9
98895.2
98936.2
98979.3
99024.7
99071.9
99120.9
99171.6
99223.5
99276.4
99330.1
99384.2
99438.2
99491.9
99544.4
99595.6
99644.4
99690.3
99732.2
99769.6
99801
99826.1
99843.6
99852.5
99852.1
99842
99821.6
99791.1
99750.5
99700.8
99642.3
99577.1
99505.5
99430.3
99350.8
99270.8
99187.9
99104
98276.1
98275.8
98275
98273.8
98272.2
98270.3
98267.9
98265.2
98262.2
98258.9
98255.3
98251.4
98247.3
98242.9
98238.4
98233.6
98228.8
98223.7
98218.6
98213.3
98207.9
98202.3
98196.7
98190.9
98185
98179
98173
98166.9
98160.7
98154.5
98148.3
98142.1
98136
98129.8
98123.7
98117.7
98111.8
98106
98100.4
98094.9
98089.5
98084.4
98079.4
98074.7
98070.3
98066.1
98062.3
98058.8
98055.7
98053
98050.6
98048.7
98047.3
98046.3
98045.8
98045.9
98046.5
98047.8
98049.7
98052.1
98055.3
98059
98063.4
98068.5
98074.3
98080.7
98087.8
98095.6
98104
98112.9
98122.5
98132.6
98143.3
98154.4
98166
98178
98190.4
98203.1
98216.1
98229.3
98242.7
98256.3
98270
98283.8
98297.6
98311.3
98324.9
98338.5
98351.8
98364.9
98377.7
98390.3
98402.4
98414.2
98425.5
98436.3
98446.6
98456.4
98465.7
98474.4
98482.6
98490.2
98497.3
98503.7
98509.7
98515.1
98519.9
98524.3
98528.2
98531.7
98534.8
98537.5
98539.9
98542
98543.8
98545.3
98546.6
98547.6
98548.4
98549.1
98549.7
98550.1
98550.5
98550.9
98551.5
98552.3
98553.6
98555.4
98557.9
98561.4
98566.1
98572.2
98580
98589.6
98601.4
98615.4
98632
98651.2
98673.1
98697.7
98725.2
98755.2
98788
98823.3
98861.2
98901.2
98943.4
98987.4
99033.3
99080.7
99129.5
99179.3
99229.9
99281.1
99332.3
99383.1
99433.1
99481.9
99528.5
99572.4
99612.8
99648.9
99679.5
99704.2
99722
99731.6
99732.6
99724.5
99706.8
99679.7
99642.9
99597.6
99543.6
99483.3
99416.5
99346.1
99271.3
99195.8
99117.1
99037.1
98254.9
98254.7
98253.9
98252.8
98251.3
98249.3
98247.1
98244.5
98241.5
98238.3
98234.8
98231.1
98227.2
98223.1
98218.8
98214.4
98209.9
98205.3
98200.5
98195.7
98190.7
98185.7
98180.6
98175.3
98170
98164.5
98159
98153.5
98147.9
98142.3
98136.7
98131
98125.4
98119.8
98114.2
98108.7
98103.3
98097.9
98092.7
98087.5
98082.5
98077.7
98073.1
98068.6
98064.4
98060.5
98056.8
98053.4
98050.4
98047.7
98045.4
98043.5
98042
98041
98040.4
98040.3
98040.8
98041.8
98043.4
98045.6
98048.4
98051.8
98055.8
98060.4
98065.7
98071.7
98078.2
98085.4
98093.2
98101.6
98110.6
98120.1
98130
98140.5
98151.4
98162.6
98174.2
98186.1
98198.3
98210.7
98223.3
98236
98248.9
98261.7
98274.6
98287.4
98300.1
98312.7
98325.1
98337.3
98349.2
98360.8
98372
98382.8
98393.2
98403.1
98412.5
98421.5
98429.9
98437.8
98445.2
98452
98458.4
98464.2
98469.5
98474.3
98478.7
98482.6
98486.1
98489.1
98491.9
98494.3
98496.4
98498.2
98499.8
98501
98502
98502.8
98503.4
98503.7
98503.9
98503.9
98503.8
98503.7
98503.6
98503.7
98504.1
98504.9
98506.3
98508.6
98511.9
98516.4
98522.4
98530.1
98539.8
98551.6
98565.6
98582.2
98601.2
98622.8
98647.1
98673.8
98703.1
98734.8
98769
98805.3
98843.6
98883.9
98925.9
98969.5
99014.6
99060.6
99107.6
99155.2
99202.9
99250.4
99297.2
99342.9
99386.9
99428.5
99466.8
99501.3
99530.7
99554.8
99572.5
99582.8
99585.2
99579.3
99564.6
99541.2
99508.8
99468.4
99419.9
99365.3
99304.3
99239.9
99170.8
99101
99027.7
98953.1
98231.5
98231.3
98230.6
98229.6
98228.2
98226.4
98224.2
98221.8
98219
98216
98212.7
98209.2
98205.5
98201.7
98197.7
98193.6
98189.4
98185.1
98180.8
98176.4
98171.9
98167.3
98162.7
98157.9
98153.1
98148.3
98143.4
98138.4
98133.4
98128.4
98123.4
98118.4
98113.3
98108.3
98103.3
98098.4
98093.5
98088.6
98083.9
98079.2
98074.7
98070.2
98065.9
98061.8
98057.9
98054.2
98050.8
98047.6
98044.7
98042.1
98039.8
98037.9
98036.4
98035.2
98034.5
98034.3
98034.6
98035.4
98036.7
98038.5
98040.9
98043.9
98047.4
98051.6
98056.3
98061.7
98067.6
98074.2
98081.3
98089
98097.2
98105.9
98115.1
98124.7
98134.8
98145.2
98155.9
98166.9
98178.1
98189.6
98201.2
98212.9
98224.7
98236.5
98248.3
98260.1
98271.7
98283.3
98294.6
98305.7
98316.5
98327
98337.1
98346.9
98356.2
98365.1
98373.5
98381.5
98388.9
98396
98402.5
98408.5
98414
98419
98423.6
98427.8
98431.5
98434.9
98437.9
98440.5
98442.9
98444.9
98446.6
98448.1
98449.3
98450.2
98450.9
98451.3
98451.5
98451.5
98451.2
98450.7
98450
98449.3
98448.5
98447.7
98447.1
98446.8
98446.9
98447.8
98449.5
98452.2
98456.2
98461.8
98469
98478.2
98489.5
98503.1
98519
98537.2
98557.9
98580.9
98606.4
98634.1
98664.1
98696.3
98730.5
98766.6
98804.4
98843.8
98884.7
98926.6
98969.5
99013.1
99056.9
99100.7
99144
99186.4
99227.2
99266.1
99302
99334.5
99362.4
99385.6
99403
99413.8
99417.4
99413.7
99402
99382.5
99354.6
99319.5
99276.7
99228.3
99173.6
99115.8
99053.4
98990
98923.2
98855.1
98207
98206.9
98206.3
98205.4
98204.1
98202.5
98200.6
98198.3
98195.8
98193
98190
98186.8
98183.4
98179.8
98176.2
98172.4
98168.5
98164.6
98160.7
98156.6
98152.5
98148.4
98144.2
98140
98135.7
98131.4
98127
98122.6
98118.2
98113.8
98109.4
98104.9
98100.5
98096.1
98091.7
98087.3
98083
98078.7
98074.4
98070.2
98066.1
98062.1
98058.2
98054.4
98050.8
98047.4
98044.2
98041.2
98038.4
98036
98033.8
98031.9
98030.3
98029.1
98028.3
98027.9
98027.9
98028.5
98029.4
98030.9
98032.9
98035.4
98038.5
98042.1
98046.2
98051
98056.3
98062.1
98068.5
98075.4
98082.8
98090.6
98099
98107.7
98116.8
98126.3
98136
98146
98156.2
98166.6
98177.1
98187.7
98198.4
98209.1
98219.7
98230.3
98240.8
98251.1
98261.3
98271.2
98280.8
98290.1
98299.1
98307.7
98315.9
98323.7
98331
98337.9
98344.4
98350.4
98356
98361.1
98365.8
98370
98373.8
98377.3
98380.4
98383.1
98385.5
98387.7
98389.5
98391.1
98392.4
98393.4
98394.2
98394.8
98395
98395
98394.8
98394.3
98393.5
98392.4
98391.1
98389.6
98388
98386.3
98384.6
98383.1
98381.8
98381.1
98381
98381.9
98383.8
98387
98391.7
98398.2
98406.6
98417
98429.5
98444.1
98461
98480.2
98501.7
98525.2
98551
98578.8
98608.6
98640.4
98673.8
98708.8
98745.2
98782.9
98821.5
98860.8
98900.5
98940.4
98980
99018.7
99056.2
99091.9
99125.2
99155.3
99181.4
99203.3
99220.1
99231
99235.7
99234
99225.1
99209.4
99185.9
99156.1
99119.1
99076.9
99028.9
98978.2
98922.7
98866.5
98806.5
98745.7
98182.8
98182.7
98182.3
98181.5
98180.5
98179.1
98177.4
98175.4
98173.1
98170.6
98167.9
98165
98161.9
98158.7
98155.3
98151.9
98148.4
98144.9
98141.2
98137.6
98133.9
98130.1
98126.4
98122.6
98118.8
98115
98111.1
98107.3
98103.4
98099.5
98095.6
98091.7
98087.8
98084
98080.1
98076.3
98072.5
98068.6
98064.9
98061.1
98057.4
98053.8
98050.3
98046.8
98043.5
98040.4
98037.4
98034.6
98032
98029.6
98027.5
98025.6
98024
98022.7
98021.8
98021.2
98021.1
98021.3
98022
98023.1
98024.7
98026.7
98029.3
98032.3
98035.9
98039.9
98044.5
98049.6
98055.3
98061.3
98067.9
98074.9
98082.3
98090.1
98098.2
98106.7
98115.4
98124.3
98133.5
98142.8
98152.2
98161.6
98171.1
98180.6
98190
98199.4
98208.6
98217.7
98226.6
98235.3
98243.6
98251.7
98259.5
98266.9
98273.9
98280.5
98286.7
98292.6
98298
98303
98307.6
98311.8
98315.6
98319
98322
98324.7
98327.1
98329.2
98331
98332.6
98333.9
98335
98335.8
98336.3
98336.6
98336.7
98336.5
98336
98335.3
98334.3
98332.9
98331.2
98329.2
98326.9
98324.3
98321.6
98318.8
98315.9
98313.3
98310.9
98309.1
98308
98307.7
98308.6
98310.7
98314.4
98319.7
98326.9
98336
98347.1
98360.2
98375.5
98392.9
98412.4
98433.8
98457.3
98482.6
98510.1
98539.1
98569.6
98601.7
98635
98669.1
98704.2
98739.8
98775.8
98811.4
98846.3
98880.2
98912.6
98942.8
98970.4
98994.2
99014.5
99030.2
99041.1
99046.5
99046.4
99040
99027.6
99008.2
98983.3
98951.9
98916
98874.7
98831
98782.5
98733.7
98681
98627.9
98160
98160
98159.7
98159
98158.1
98156.9
98155.5
98153.7
98151.8
98149.6
98147.2
98144.6
98141.9
98139
98136
98132.9
98129.8
98126.6
98123.3
98120
98116.7
98113.4
98110.1
98106.7
98103.4
98100
98096.6
98093.2
98089.8
98086.4
98083
98079.6
98076.1
98072.7
98069.3
98066
98062.6
98059.2
98055.8
98052.5
98049.2
98045.9
98042.7
98039.5
98036.5
98033.5
98030.8
98028.1
98025.6
98023.3
98021.2
98019.3
98017.7
98016.3
98015.3
98014.5
98014.1
98014.1
98014.5
98015.3
98016.4
98018
98020.1
98022.6
98025.6
98029
98032.9
98037.3
98042.2
98047.4
98053.1
98059.3
98065.8
98072.6
98079.8
98087.2
98094.9
98102.8
98110.8
98119
98127.3
98135.6
98143.9
98152.1
98160.4
98168.5
98176.5
98184.3
98191.9
98199.3
98206.4
98213.2
98219.7
98225.9
98231.7
98237.2
98242.3
98247
98251.3
98255.3
98258.9
98262.1
98265
98267.6
98269.8
98271.8
98273.4
98274.8
98276
98277
98277.7
98278.2
98278.5
98278.5
98278.3
98277.8
98277.1
98276.1
98274.7
98273.1
98271
98268.7
98265.9
98262.7
98259.2
98255.3
98251.4
98247.3
98243.3
98239.3
98235.7
98232.7
98230.2
98228.8
98228.4
98229.3
98231.7
98235.7
98241.4
98249.1
98258.5
98270
98283.5
98299
98316.3
98335.5
98356.6
98379.8
98404.5
98430.8
98458.5
98487.5
98517.4
98548.3
98579.7
98611.7
98643.3
98674.3
98704.5
98733.3
98760.3
98785.1
98806.5
98824.7
98839.1
98849.3
98855
98856
98851.5
98841.8
98826.2
98805.8
98779.4
98749.5
98714.7
98677.9
98636.4
98595
98549.6
98504.3
98139.3
98139.4
98139.2
98138.7
98137.9
98137
98135.8
98134.3
98132.7
98130.8
98128.7
98126.5
98124.1
98121.6
98119
98116.3
98113.5
98110.7
98107.8
98104.9
98102
98099
98096.1
98093.1
98090.2
98087.2
98084.2
98081.2
98078.2
98075.2
98072.2
98069.1
98066.1
98063.1
98060.1
98057
98054
98051
98047.9
98044.9
98041.9
98038.8
98035.9
98033
98030.1
98027.3
98024.7
98022.1
98019.7
98017.5
98015.4
98013.5
98011.8
98010.3
98009.1
98008.2
98007.6
98007.3
98007.4
98007.8
98008.6
98009.8
98011.4
98013.4
98015.8
98018.6
98021.9
98025.6
98029.7
98034.3
98039.2
98044.4
98050.1
98056
98062.2
98068.7
98075.4
98082.2
98089.2
98096.3
98103.4
98110.6
98117.7
98124.8
98131.8
98138.7
98145.5
98152
98158.4
98164.5
98170.4
98176
98181.3
98186.3
98190.9
98195.2
98199.1
98202.7
98205.9
98208.8
98211.4
98213.7
98215.7
98217.5
98218.9
98220.1
98221
98221.7
98222.1
98222.4
98222.5
98222.4
98222.1
98221.6
98220.8
98219.7
98218.3
98216.7
98214.7
98212.3
98209.6
98206.4
98202.8
98198.8
98194.3
98189.4
98184.3
98179
98173.6
98168.2
98162.9
98158
98153.5
98149.8
98147
98145.3
98144.9
98145.9
98148.4
98152.7
98158.7
98166.7
98176.4
98188.1
98201.6
98216.9
98234
98253.2
98273.8
98296
98319.6
98344.4
98370.2
98397
98424.5
98452.4
98480
98507.3
98533.6
98558.8
98582.5
98604.2
98623
98638.8
98651.3
98660.5
98665.7
98667.2
98663.9
98656.5
98643.9
98627.4
98605.7
98581.4
98552.7
98522.2
98487.5
98453.2
98414.9
98377.5
98121.5
98121.6
98121.5
98121.1
98120.5
98119.8
98118.8
98117.6
98116.2
98114.7
98113
98111.1
98109.1
98106.9
98104.7
98102.3
98100
98097.5
98095
98092.5
98090
98087.4
98084.8
98082.2
98079.6
98077
98074.4
98071.7
98069
98066.3
98063.7
98060.9
98058.2
98055.5
98052.8
98050
98047.2
98044.4
98041.6
98038.8
98036
98033.1
98030.3
98027.6
98024.8
98022.2
98019.6
98017.1
98014.7
98012.5
98010.3
98008.4
98006.6
98005
98003.7
98002.6
98001.8
98001.2
98001
98001.1
98001.6
98002.4
98003.6
98005.1
98007
98009.3
98012
98015.1
98018.5
98022.3
98026.5
98031
98035.8
98040.9
98046.2
98051.8
98057.5
98063.4
98069.3
98075.4
98081.5
98087.5
98093.6
98099.5
98105.4
98111.1
98116.7
98122.1
98127.2
98132.1
98136.8
98141.2
98145.3
98149.1
98152.5
98155.7
98158.5
98161
98163.1
98165
98166.6
98168
98169
98169.9
98170.4
98170.8
98170.9
98170.9
98170.6
98170.2
98169.6
98168.8
98167.8
98166.7
98165.2
98163.5
98161.5
98159.1
98156.4
98153.3
98149.8
98145.8
98141.3
98136.4
98131
98125.1
98118.9
98112.4
98105.7
98098.9
98092
98085.4
98079.1
98073.4
98068.4
98064.2
98061.2
98059.5
98059.1
98060.3
98063.2
98067.8
98074.1
98082.4
98092.3
98104.1
98117.6
98133
98150
98168.5
98188.1
98209.1
98231.1
98254
98277.6
98301.5
98325.2
98348.7
98371.3
98392.7
98412.9
98431.4
98447.3
98460.5
98470.7
98478.1
98482.2
98483.5
98480.9
98475.1
98465
98451.8
98434.1
98414.7
98391.4
98366.8
98338.4
98310.9
98279.5
98249.5
98106.8
98107
98106.9
98106.7
98106.3
98105.7
98105
98104
98103
98101.7
98100.3
98098.8
98097.1
98095.3
98093.5
98091.5
98089.5
98087.5
98085.4
98083.3
98081.1
98078.9
98076.7
98074.4
98072.2
98069.9
98067.5
98065.1
98062.7
98060.3
98057.9
98055.4
98052.9
98050.4
98047.8
98045.2
98042.6
98040
98037.3
98034.6
98031.9
98029.1
98026.4
98023.7
98021
98018.4
98015.8
98013.3
98010.9
98008.6
98006.4
98004.3
98002.4
98000.7
97999.2
97998
97997
97996.2
97995.7
97995.6
97995.7
97996.2
97997
97998.1
97999.6
98001.4
98003.5
98006
98008.9
98012.1
98015.6
98019.3
98023.4
98027.7
98032.3
98037
98041.8
98046.8
98051.9
98057
98062
98067.1
98072.1
98077
98081.8
98086.4
98090.9
98095.1
98099.2
98102.9
98106.5
98109.7
98112.7
98115.3
98117.6
98119.7
98121.4
98122.8
98123.9
98124.8
98125.4
98125.8
98125.9
98125.8
98125.5
98125
98124.3
98123.5
98122.5
98121.3
98120
98118.4
98116.7
98114.8
98112.7
98110.2
98107.5
98104.4
98100.9
98097
98092.7
98087.9
98082.6
98076.8
98070.4
98063.6
98056.4
98048.8
98040.9
98032.8
98024.6
98016.4
98008.4
98000.9
97993.9
97987.5
97982.2
97978
97975
97973.5
97973.6
97975.2
97978.6
97983.8
97990.6
97999.3
98009.5
98021.7
98035.3
98050.4
98066.6
98084
98102.4
98121.6
98141.6
98161.7
98181.7
98201.5
98220.2
98237.9
98254.4
98269.3
98282.2
98292.5
98300.1
98305.4
98307.7
98308
98305.5
98300.6
98292.3
98281.7
98267.5
98252.2
98233.6
98214.4
98191.6
98170.5
98145.5
98122.7
98095.4
98095.6
98095.6
98095.5
98095.2
98094.8
98094.3
98093.6
98092.8
98091.8
98090.7
98089.6
98088.3
98086.9
98085.4
98083.9
98082.3
98080.7
98079
98077.2
98075.4
98073.6
98071.7
98069.8
98067.8
98065.8
98063.7
98061.6
98059.4
98057.2
98054.9
98052.6
98050.2
98047.8
98045.4
98042.9
98040.3
98037.8
98035.1
98032.4
98029.7
98027
98024.3
98021.5
98018.8
98016.1
98013.5
98010.9
98008.4
98006
98003.7
98001.5
97999.5
97997.7
97996
97994.6
97993.4
97992.4
97991.7
97991.3
97991.2
97991.3
97991.8
97992.6
97993.7
97995.1
97996.8
97998.8
98001.2
98003.8
98006.7
98009.9
98013.3
98016.9
98020.8
98024.7
98028.8
98033
98037.2
98041.4
98045.6
98049.8
98053.9
98057.8
98061.6
98065.2
98068.7
98071.9
98074.8
98077.5
98080
98082.1
98084
98085.5
98086.8
98087.8
98088.5
98088.9
98088.9
98088.8
98088.4
98087.8
98087
98086
98084.9
98083.5
98082
98080.3
98078.5
98076.5
98074.3
98072
98069.6
98066.9
98063.9
98060.7
98057.1
98053.2
98048.9
98044.3
98039.1
98033.5
98027.4
98020.7
98013.5
98005.8
97997.7
97989
97980.1
97970.9
97961.4
97951.9
97942.5
97933.3
97924.6
97916.4
97909
97902.7
97897.5
97893.7
97891.3
97890.4
97891.2
97893.8
97897.9
97903.8
97911.2
97920.4
97931
97943.1
97956.2
97970.4
97985.5
98001.4
98017.9
98034.5
98050.9
98067.1
98082
98095.8
98108.6
98119.8
98129.4
98136.6
98141.3
98144.2
98144.5
98143.1
98139.9
98135.2
98128
98119.4
98108.1
98096.1
98081.4
98067
98049.4
98033.9
98014.7
97998.7
98087
98087.2
98087.3
98087.3
98087.2
98086.9
98086.6
98086.2
98085.7
98085
98084.3
98083.5
98082.6
98081.6
98080.6
98079.5
98078.3
98077.1
98075.8
98074.4
98073
98071.6
98070
98068.4
98066.7
98064.9
98063
98061.1
98059.1
98057
98054.8
98052.6
98050.3
98047.9
98045.5
98043
98040.4
98037.8
98035.1
98032.4
98029.6
98026.8
98024
98021.2
98018.3
98015.6
98012.8
98010.1
98007.5
98004.9
98002.5
98000.2
97998
97996
97994.2
97992.6
97991.2
97990
97989.1
97988.5
97988.1
97988.1
97988.3
97988.8
97989.5
97990.6
97992
97993.6
97995.5
97997.7
98000.1
98002.8
98005.7
98008.7
98011.9
98015.2
98018.6
98022.1
98025.6
98029.1
98032.5
98035.9
98039.1
98042.2
98045.1
98047.8
98050.3
98052.5
98054.5
98056.2
98057.6
98058.8
98059.6
98060.2
98060.4
98060.4
98060.1
98059.5
98058.6
98057.5
98056.1
98054.6
98052.8
98050.9
98048.9
98046.6
98044.3
98041.7
98039
98036.2
98033.2
98030.1
98026.7
98023.2
98019.4
98015.3
98010.9
98006.2
98001.1
97995.6
97989.7
97983.3
97976.3
97968.8
97960.9
97952.4
97943.4
97933.9
97924
97913.8
97903.3
97892.7
97882.1
97871.6
97861.3
97851.6
97842.5
97834.4
97827.4
97821.6
97817.1
97814.2
97812.8
97813.1
97814.9
97818.4
97823.3
97829.9
97837.8
97847.1
97857.4
97868.9
97881
97893.8
97907
97920.3
97933.3
97945.8
97957
97967.2
97976.1
97983.7
97989.7
97993.6
97995.4
97995.8
97993.6
97990.3
97985.8
97980.6
97973.9
97966.7
97957.4
97948.1
97936.7
97926.4
97913.2
97902.9
97888.9
97879
98081
98081.3
98081.5
98081.5
98081.5
98081.5
98081.4
98081.2
98081
98080.7
98080.4
98080
98079.6
98079.1
98078.5
98077.9
98077.2
98076.4
98075.5
98074.6
98073.6
98072.5
98071.2
98069.9
98068.4
98066.8
98065.1
98063.3
98061.4
98059.4
98057.3
98055.1
98052.8
98050.4
98047.9
98045.3
98042.7
98040
98037.2
98034.3
98031.4
98028.4
98025.5
98022.5
98019.5
98016.6
98013.6
98010.8
98008
98005.3
98002.7
98000.2
97997.9
97995.7
97993.8
97992
97990.5
97989.1
97988.1
97987.3
97986.7
97986.4
97986.4
97986.7
97987.2
97988
97989.1
97990.4
97992
97993.8
97995.8
97998.1
98000.5
98003.1
98005.8
98008.5
98011.4
98014.2
98017.1
98019.9
98022.7
98025.3
98027.8
98030.1
98032.2
98034.1
98035.7
98037.1
98038.2
98039
98039.5
98039.7
98039.7
98039.3
98038.6
98037.6
98036.4
98034.8
98033
98030.9
98028.6
98026.1
98023.5
98020.7
98017.7
98014.6
98011.3
98007.9
98004.3
98000.6
97996.8
97992.8
97988.5
97984.1
97979.4
97974.5
97969.2
97963.7
97957.8
97951.5
97944.7
97937.5
97929.8
97921.6
97912.9
97903.7
97894
97883.8
97873.1
97862.2
97850.9
97839.3
97827.7
97816.1
97804.6
97793.6
97783.3
97773.8
97765.2
97757.7
97751.6
97746.9
97743.7
97742.1
97741.9
97743.2
97746
97750.3
97755.9
97762.7
97770.6
97779.6
97789.1
97798.9
97809
97819
97828.8
97837.8
97845.5
97852
97857.1
97861
97863.3
97863.8
97862.5
97860.3
97855.7
97850.2
97844.1
97837.9
97831.1
97824.6
97816.6
97809.4
97800.7
97793.8
97784.4
97778.6
97769.2
97764.9
98076.7
98077
98077.2
98077.4
98077.5
98077.7
98077.9
98078.1
98078.3
98078.5
98078.7
98078.8
98078.9
98079
98079
98078.8
98078.6
98078.3
98077.9
98077.3
98076.6
98075.8
98074.9
98073.8
98072.5
98071.1
98069.6
98067.8
98066
98064
98061.9
98059.7
98057.3
98054.8
98052.2
98049.5
98046.8
98043.9
98040.9
98037.9
98034.8
98031.7
98028.5
98025.4
98022.2
98019
98015.9
98012.9
98009.9
98007
98004.2
98001.6
97999.1
97996.8
97994.7
97992.8
97991.2
97989.7
97988.5
97987.5
97986.8
97986.4
97986.2
97986.3
97986.6
97987.2
97988.1
97989.2
97990.5
97992
97993.8
97995.7
97997.8
97999.9
98002.2
98004.6
98006.9
98009.3
98011.6
98013.9
98016
98018
98019.8
98021.5
98022.9
98024
98024.9
98025.5
98025.8
98025.8
98025.5
98024.9
98023.9
98022.7
98021.1
98019.3
98017.1
98014.7
98012
98009
98005.8
98002.4
97998.9
97995.2
97991.4
97987.4
97983.2
97978.9
97974.5
97969.9
97965.1
97960.2
97955.1
97949.7
97944.2
97938.4
97932.3
97925.9
97919.2
97912.1
97904.6
97896.6
97888.2
97879.3
97870
97860.2
97849.9
97839.1
97827.9
97816.3
97804.3
97792
97779.6
97767.2
97754.8
97742.9
97731.5
97720.9
97711.1
97702.3
97694.8
97688.7
97683.9
97680.6
97678.7
97678.3
97679.3
97681.7
97685.2
97689.8
97695.5
97702.2
97709.3
97716.5
97723.5
97730.4
97737
97742.7
97747
97750.1
97751.5
97751.6
97750.2
97747.2
97742.8
97737.6
97730.6
97723
97715
97707.6
97700.2
97693.8
97686.6
97680.9
97674.2
97670
97663.7
97662
97656.6
97657.2
98072.9
98073.1
98073.3
98073.5
98073.8
98074.3
98074.9
98075.7
98076.5
98077.4
98078.3
98079.2
98080
98080.7
98081.2
98081.7
98082
98082.1
98082.1
98081.9
98081.5
98081
98080.3
98079.4
98078.3
98077
98075.5
98073.9
98072.1
98070.1
98067.9
98065.6
98063.2
98060.6
98057.9
98055.1
98052.1
98049.1
98046
98042.7
98039.5
98036.1
98032.8
98029.4
98026
98022.7
98019.4
98016.1
98013
98010
98007
98004.3
98001.7
97999.2
97997
97995
97993.2
97991.6
97990.3
97989.3
97988.5
97987.9
97987.6
97987.6
97987.8
97988.2
97988.9
97989.8
97991
97992.3
97993.8
97995.5
97997.3
97999.1
98001.1
98003
98005
98006.9
98008.8
98010.5
98012.2
98013.6
98014.9
98015.9
98016.7
98017.2
98017.4
98017.3
98016.9
98016.2
98015.1
98013.7
98012
98009.9
98007.6
98004.9
98002
97998.7
97995.2
97991.3
97987.3
97983.1
97978.7
97974.1
97969.5
97964.6
97959.6
97954.5
97949.2
97943.7
97938.1
97932.3
97926.2
97920
97913.6
97906.9
97900.1
97892.9
97885.4
97877.5
97869.3
97860.6
97851.6
97842.2
97832.3
97822
97811.1
97799.9
97788.2
97776.2
97763.6
97750.8
97737.8
97724.8
97711.9
97699.3
97687.2
97675.6
97664.8
97655
97646.4
97639
97632.8
97628.2
97624.9
97623
97622.4
97623.2
97624.8
97627.5
97631.3
97635.9
97640.8
97645.3
97649.6
97653.5
97657
97659.6
97660.8
97660.5
97658.2
97654.6
97649.5
97643.2
97635.5
97627.3
97617.9
97608.1
97598.2
97589.5
97581.2
97574.5
97567.6
97563.1
97557.8
97555.8
97552
97553.7
97551.9
97556.8
98068.1
98068.1
98068.1
98068.5
98069.2
98070.5
98071.9
98073.7
98075.4
98077.3
98079
98080.7
98082.3
98083.7
98084.8
98085.8
98086.6
98087.1
98087.5
98087.6
98087.5
98087.2
98086.7
98086
98085
98083.8
98082.4
98080.8
98079
98077
98074.8
98072.4
98069.9
98067.2
98064.3
98061.4
98058.3
98055.1
98051.7
98048.4
98044.9
98041.4
98037.8
98034.3
98030.7
98027.2
98023.8
98020.4
98017.1
98013.9
98010.8
98007.9
98005.2
98002.7
98000.4
97998.3
97996.4
97994.8
97993.4
97992.2
97991.4
97990.7
97990.3
97990.2
97990.3
97990.7
97991.3
97992.1
97993.1
97994.3
97995.6
97997
97998.6
98000.2
98001.8
98003.5
98005.1
98006.6
98008.1
98009.4
98010.6
98011.5
98012.3
98012.8
98013
98012.9
98012.5
98011.8
98010.7
98009.3
98007.6
98005.5
98003.1
98000.3
97997.2
97993.8
97990.1
97986.1
97981.8
97977.2
97972.4
97967.4
97962.2
97956.8
97951.3
97945.6
97939.8
97933.9
97927.7
97921.4
97915
97908.4
97901.5
97894.5
97887.3
97879.8
97872.1
97864.2
97856
97847.5
97838.6
97829.4
97819.9
97810
97799.6
97788.8
97777.7
97766.1
97754.1
97741.6
97728.7
97715.5
97702.1
97688.7
97675.3
97662.3
97649.6
97637.4
97625.8
97615.2