/*--------------------------------*- C++ -*----------------------------------*\
| =========                 |                                                 |
| \\      /  F ield         | OpenFOAM: The Open Source CFD Toolbox           |
|  \\    /   O peration     | Version:  dev                                   |
|   \\  /    A nd           | Web:      http://www.openfoam.org               |
|    \\/     M anipulation  |                                                 |
\*---------------------------------------------------------------------------*/
FoamFile
{
    version     2.0;
    format      ascii;
    class       volScalarField;
    object      pPrime2Mean;
    location    "9.127";
}
// * * * * * * * * * * * * * * * * * * * * * * * * * * * * * * * * * * * * * //

dimensions      [2 -2 -4 0 0 0 0];

internalField   nonuniform List<scalar> 
12225
(
5.03871e+07
4.99221e+07
4.89615e+07
4.76104e+07
4.59568e+07
4.409e+07
4.20692e+07
3.99664e+07
3.78225e+07
3.56854e+07
3.35928e+07
3.15478e+07
2.96243e+07
2.7753e+07
2.60052e+07
2.4444e+07
2.28817e+07
2.13008e+07
5.02792e+07
4.98142e+07
4.88544e+07
4.7505e+07
4.58528e+07
4.39884e+07
4.19704e+07
3.98703e+07
3.77302e+07
3.55958e+07
3.3508e+07
3.14666e+07
2.95477e+07
2.76833e+07
2.59529e+07
2.43919e+07
2.28825e+07
2.15473e+07
5.00289e+07
4.95645e+07
4.86051e+07
4.72588e+07
4.56111e+07
4.37514e+07
4.17402e+07
3.96463e+07
3.75144e+07
3.53881e+07
3.33088e+07
3.12791e+07
2.93663e+07
2.75191e+07
2.58086e+07
2.42525e+07
2.28169e+07
2.16029e+07
4.95929e+07
4.91314e+07
4.81743e+07
4.68332e+07
4.51935e+07
4.33423e+07
4.13428e+07
3.92594e+07
3.71423e+07
3.50295e+07
3.2966e+07
3.09542e+07
2.90585e+07
2.72307e+07
2.55499e+07
2.40185e+07
2.26318e+07
2.15301e+07
4.89273e+07
4.8466e+07
4.75137e+07
4.6182e+07
4.45541e+07
4.27175e+07
4.07338e+07
3.86697e+07
3.65717e+07
3.4483e+07
3.24398e+07
3.04588e+07
2.85857e+07
2.6794e+07
2.51655e+07
2.36566e+07
2.23752e+07
2.13101e+07
4.79773e+07
4.75135e+07
4.65707e+07
4.52524e+07
4.36425e+07
4.18257e+07
3.98667e+07
3.78282e+07
3.57603e+07
3.37013e+07
3.16923e+07
2.97455e+07
2.79108e+07
2.61656e+07
2.45867e+07
2.31473e+07
2.19203e+07
2.08635e+07
4.66813e+07
4.62162e+07
4.52889e+07
4.3987e+07
4.24032e+07
4.0612e+07
3.86886e+07
3.66836e+07
3.46586e+07
3.26386e+07
3.0678e+07
2.87768e+07
2.69935e+07
2.53062e+07
2.37843e+07
2.2405e+07
2.12365e+07
2.02084e+07
4.52381e+07
4.47746e+07
4.38637e+07
4.25796e+07
4.10245e+07
3.9263e+07
3.73781e+07
3.54121e+07
3.34324e+07
3.14586e+07
2.95479e+07
2.77005e+07
2.59687e+07
2.43445e+07
2.28712e+07
2.15552e+07
2.04193e+07
1.94594e+07
4.37221e+07
4.32621e+07
4.23674e+07
4.11031e+07
3.95776e+07
3.78485e+07
3.60031e+07
3.40795e+07
3.2146e+07
3.02218e+07
2.83621e+07
2.65703e+07
2.48923e+07
2.3329e+07
2.19077e+07
2.06478e+07
1.95539e+07
1.86552e+07
4.17804e+07
4.13271e+07
4.04519e+07
3.92152e+07
3.77261e+07
3.60411e+07
3.42445e+07
3.2377e+07
3.05008e+07
2.86415e+07
2.68447e+07
2.51245e+07
2.35127e+07
2.20241e+07
2.06691e+07
1.9477e+07
1.84399e+07
1.75872e+07
3.93299e+07
3.88865e+07
3.80349e+07
3.68349e+07
3.53917e+07
3.37639e+07
3.20293e+07
3.02329e+07
2.843e+07
2.6651e+07
2.49345e+07
2.33003e+07
2.17723e+07
2.03699e+07
1.90981e+07
1.79827e+07
1.70127e+07
1.62061e+07
3.63041e+07
3.58757e+07
3.50522e+07
3.39013e+07
3.25153e+07
3.09607e+07
2.93036e+07
2.75963e+07
2.58839e+07
2.42039e+07
2.25856e+07
2.10546e+07
1.96275e+07
1.83244e+07
1.71492e+07
1.61183e+07
1.52239e+07
1.44706e+07
3.26883e+07
3.22786e+07
3.14915e+07
3.04017e+07
2.9088e+07
2.76225e+07
2.60612e+07
2.44605e+07
2.28583e+07
2.12948e+07
1.97934e+07
1.83815e+07
1.70709e+07
1.58801e+07
1.48115e+07
1.38743e+07
1.30632e+07
1.23751e+07
2.85736e+07
2.81867e+07
2.74463e+07
2.64289e+07
2.52036e+07
2.38416e+07
2.23943e+07
2.09158e+07
1.94418e+07
1.80093e+07
1.66408e+07
1.53596e+07
1.41776e+07
1.31075e+07
1.21526e+07
1.13157e+07
1.05935e+07
9.9796e+06
2.42457e+07
2.38852e+07
2.3201e+07
2.22644e+07
2.11393e+07
1.98915e+07
1.85699e+07
1.72238e+07
1.58875e+07
1.45939e+07
1.33644e+07
1.22183e+07
1.11668e+07
1.02185e+07
9.37607e+06
8.63943e+06
8.0054e+06
7.46731e+06
2.02957e+07
1.99639e+07
1.93393e+07
1.84844e+07
1.74608e+07
1.63262e+07
1.51284e+07
1.39104e+07
1.2706e+07
1.15432e+07
1.04425e+07
9.41982e+06
8.48499e+06
7.64408e+06
6.89898e+06
6.24841e+06
5.68921e+06
5.21516e+06
1.77281e+07
1.74218e+07
1.68474e+07
1.60605e+07
1.51193e+07
1.40757e+07
1.29752e+07
1.18568e+07
1.0752e+07
9.68605e+06
8.67786e+06
7.74099e+06
6.88415e+06
6.11212e+06
5.42625e+06
4.82516e+06
4.30588e+06
3.86304e+06
1.78364e+07
1.7542e+07
1.69898e+07
1.62325e+07
1.5326e+07
1.43194e+07
1.32564e+07
1.21739e+07
1.11019e+07
1.00642e+07
9.07846e+06
8.15737e+06
7.30904e+06
6.53795e+06
5.84551e+06
5.23087e+06
4.69153e+06
4.22315e+06
2.0716e+07
2.04171e+07
1.98551e+07
1.90827e+07
1.81567e+07
1.71262e+07
1.60346e+07
1.49186e+07
1.3808e+07
1.27263e+07
1.16911e+07
1.0715e+07
9.80618e+06
8.96957e+06
8.20703e+06
7.51848e+06
6.90207e+06
6.35443e+06
2.52072e+07
2.48954e+07
2.43054e+07
2.34919e+07
2.25143e+07
2.14235e+07
2.0264e+07
1.90735e+07
1.78824e+07
1.67148e+07
1.55888e+07
1.45176e+07
1.351e+07
1.25713e+07
1.17042e+07
1.09094e+07
1.01857e+07
9.53076e+06
3.02714e+07
2.99455e+07
2.93222e+07
2.84592e+07
2.74191e+07
2.62551e+07
2.50135e+07
2.37335e+07
2.24467e+07
2.11782e+07
1.9947e+07
1.87669e+07
1.76475e+07
1.65949e+07
1.56125e+07
1.47018e+07
1.38624e+07
1.30924e+07
3.51899e+07
3.48523e+07
3.41979e+07
3.32878e+07
3.21875e+07
3.09522e+07
2.96304e+07
2.82627e+07
2.68823e+07
2.55152e+07
2.41814e+07
2.28956e+07
2.16682e+07
2.05061e+07
1.94133e+07
1.8392e+07
1.74424e+07
1.65635e+07
3.95432e+07
3.91973e+07
3.85175e+07
3.75676e+07
3.64158e+07
3.51187e+07
3.37267e+07
3.2282e+07
3.08191e+07
2.9365e+07
2.79408e+07
2.65618e+07
2.52394e+07
2.39808e+07
2.27912e+07
2.16729e+07
2.06269e+07
1.96527e+07
4.31423e+07
4.27912e+07
4.20922e+07
4.11113e+07
3.99183e+07
3.85713e+07
3.71223e+07
3.56147e+07
3.40841e+07
3.25586e+07
3.10599e+07
2.96042e+07
2.82034e+07
2.68656e+07
2.55963e+07
2.43983e+07
2.32731e+07
2.22206e+07
4.59533e+07
4.55993e+07
4.48864e+07
4.38826e+07
4.26585e+07
4.12735e+07
3.97805e+07
3.82243e+07
3.66412e+07
3.50601e+07
3.35034e+07
3.19881e+07
3.05264e+07
2.9127e+07
2.77956e+07
2.65357e+07
2.53489e+07
2.42354e+07
4.80334e+07
4.76778e+07
4.69553e+07
4.59354e+07
4.46889e+07
4.32761e+07
4.1751e+07
4.01591e+07
3.85373e+07
3.69153e+07
3.53161e+07
3.37568e+07
3.22502e+07
3.08054e+07
2.94283e+07
2.81228e+07
2.68906e+07
2.57322e+07
4.94837e+07
4.91272e+07
4.8398e+07
4.73672e+07
4.61054e+07
4.46737e+07
4.31266e+07
4.15101e+07
3.98617e+07
3.82115e+07
3.65827e+07
3.49929e+07
3.34553e+07
3.1979e+07
3.05702e+07
2.92331e+07
2.79695e+07
2.678e+07
5.04195e+07
5.0062e+07
4.93286e+07
4.82911e+07
4.70196e+07
4.55759e+07
4.40148e+07
4.23827e+07
4.07173e+07
3.9049e+07
3.74013e+07
3.5792e+07
3.42344e+07
3.27378e+07
3.13087e+07
2.99512e+07
2.86674e+07
2.7458e+07
5.0949e+07
5.05912e+07
4.98563e+07
4.88157e+07
4.75387e+07
4.60885e+07
4.45196e+07
4.28785e+07
4.12033e+07
3.95245e+07
3.78659e+07
3.62454e+07
3.46763e+07
3.31681e+07
3.17273e+07
3.03581e+07
2.90629e+07
2.78424e+07
5.11714e+07
5.08151e+07
5.00782e+07
4.90358e+07
4.77563e+07
4.63033e+07
4.4731e+07
4.3086e+07
4.14066e+07
3.97234e+07
3.80601e+07
3.64347e+07
3.48607e+07
3.33475e+07
3.19017e+07
3.05276e+07
2.92277e+07
2.80027e+07
6.04943e+07
6.04352e+07
6.03045e+07
6.00986e+07
5.98157e+07
5.94552e+07
5.90169e+07
5.85018e+07
5.79109e+07
5.72458e+07
5.65082e+07
5.57002e+07
5.48243e+07
5.38829e+07
5.28788e+07
5.1815e+07
5.06947e+07
4.95215e+07
4.8299e+07
4.7031e+07
4.57217e+07
4.43749e+07
4.29951e+07
4.15864e+07
4.01535e+07
3.87009e+07
3.7233e+07
3.57544e+07
3.42694e+07
3.27827e+07
3.12988e+07
2.98224e+07
2.83579e+07
2.69101e+07
2.54836e+07
2.40827e+07
2.27123e+07
2.1377e+07
2.00815e+07
1.88307e+07
1.76293e+07
1.64822e+07
1.53944e+07
1.4371e+07
1.34171e+07
1.2538e+07
1.17389e+07
1.10252e+07
1.04024e+07
9.87584e+06
9.45103e+06
9.13338e+06
8.92831e+06
8.84105e+06
8.87672e+06
9.04013e+06
9.33583e+06
9.76808e+06
1.03407e+07
1.1057e+07
1.19197e+07
1.2931e+07
1.40922e+07
1.54042e+07
1.68669e+07
1.84794e+07
2.02402e+07
2.21467e+07
2.41959e+07
2.63839e+07
2.87062e+07
3.11573e+07
3.37316e+07
3.64224e+07
3.9223e+07
4.21261e+07
4.51243e+07
4.82097e+07
5.13746e+07
5.46109e+07
5.79106e+07
6.12654e+07
6.46671e+07
6.81071e+07
7.15767e+07
7.5067e+07
7.85689e+07
8.2073e+07
8.55692e+07
8.90471e+07
9.24958e+07
9.59039e+07
9.92591e+07
1.02549e+08
1.05762e+08
1.08884e+08
1.11903e+08
1.14806e+08
1.17584e+08
1.20224e+08
1.22717e+08
1.25056e+08
1.27233e+08
1.29242e+08
1.31081e+08
1.32746e+08
1.34238e+08
1.35559e+08
1.36715e+08
1.37714e+08
1.38565e+08
1.39279e+08
1.39871e+08
1.40355e+08
1.40746e+08
1.41064e+08
1.41326e+08
1.41556e+08
1.41776e+08
1.42012e+08
1.42296e+08
1.42659e+08
1.43139e+08
1.43775e+08
1.4461e+08
1.45693e+08
1.47076e+08
1.48816e+08
1.50973e+08
1.53609e+08
1.56789e+08
1.60574e+08
1.65026e+08
1.70201e+08
1.76153e+08
1.82928e+08
1.9056e+08
1.99078e+08
2.08496e+08
2.18816e+08
2.30034e+08
2.42125e+08
2.55063e+08
2.68806e+08
2.83312e+08
2.98517e+08
3.14374e+08
3.3081e+08
3.47764e+08
3.65159e+08
3.82922e+08
4.0097e+08
4.19213e+08
4.37556e+08
4.5588e+08
4.74043e+08
4.91883e+08
5.0923e+08
5.25851e+08
5.4151e+08
5.5591e+08
5.68751e+08
5.79691e+08
5.88407e+08
5.94564e+08
5.97866e+08
5.98051e+08
5.94939e+08
5.88403e+08
5.7847e+08
5.6522e+08
5.48921e+08
5.29891e+08
5.08623e+08
4.85591e+08
4.61319e+08
4.36175e+08
4.10594e+08
3.84787e+08
3.59079e+08
5.94184e+07
5.93627e+07
5.92375e+07
5.90376e+07
5.87612e+07
5.84082e+07
5.79793e+07
5.74756e+07
5.68983e+07
5.62487e+07
5.55287e+07
5.47402e+07
5.38855e+07
5.29668e+07
5.19867e+07
5.09481e+07
4.98541e+07
4.87078e+07
4.75129e+07
4.62732e+07
4.49923e+07
4.36745e+07
4.23237e+07
4.09443e+07
3.95407e+07
3.81172e+07
3.66782e+07
3.5228e+07
3.3771e+07
3.23117e+07
3.08544e+07
2.94038e+07
2.79644e+07
2.65407e+07
2.51372e+07
2.37584e+07
2.24089e+07
2.10932e+07
1.98162e+07
1.85824e+07
1.73968e+07
1.62641e+07
1.51894e+07
1.41776e+07
1.3234e+07
1.23636e+07
1.15719e+07
1.08641e+07
1.02457e+07
9.72213e+06
9.29887e+06
8.98133e+06
8.77487e+06
8.68474e+06
8.71605e+06
8.87367e+06
9.16217e+06
9.58578e+06
1.01483e+07
1.0853e+07
1.17027e+07
1.26993e+07
1.38445e+07
1.51388e+07
1.65823e+07
1.81741e+07
1.99126e+07
2.17953e+07
2.38191e+07
2.59802e+07
2.8274e+07
3.06951e+07
3.32379e+07
3.58958e+07
3.8662e+07
4.15293e+07
4.44904e+07
4.75376e+07
5.06629e+07
5.38585e+07
5.71162e+07
6.0428e+07
6.37855e+07
6.71804e+07
7.0604e+07
7.40476e+07
7.75018e+07
8.09575e+07
8.44047e+07
8.78331e+07
9.12319e+07
9.45897e+07
9.78948e+07
1.01135e+08
1.04297e+08
1.0737e+08
1.1034e+08
1.13197e+08
1.15928e+08
1.18523e+08
1.20974e+08
1.23272e+08
1.25411e+08
1.27384e+08
1.2919e+08
1.30825e+08
1.3229e+08
1.33587e+08
1.34722e+08
1.35701e+08
1.36537e+08
1.37237e+08
1.37818e+08
1.38292e+08
1.38676e+08
1.38986e+08
1.39241e+08
1.39464e+08
1.39676e+08
1.39903e+08
1.40175e+08
1.40525e+08
1.40988e+08
1.41602e+08
1.42411e+08
1.43462e+08
1.44806e+08
1.46499e+08
1.48601e+08
1.51173e+08
1.54278e+08
1.57979e+08
1.62334e+08
1.674e+08
1.7323e+08
1.79868e+08
1.87351e+08
1.95705e+08
2.04945e+08
2.15074e+08
2.26086e+08
2.37959e+08
2.50668e+08
2.64173e+08
2.78428e+08
2.93375e+08
3.08962e+08
3.25128e+08
3.41806e+08
3.58921e+08
3.76403e+08
3.9417e+08
4.12136e+08
4.30207e+08
4.48265e+08
4.66172e+08
4.83768e+08
5.00888e+08
5.17304e+08
5.32782e+08
5.47037e+08
5.59772e+08
5.70649e+08
5.79349e+08
5.85546e+08
5.8895e+08
5.89302e+08
5.86427e+08
5.80192e+08
5.7061e+08
5.57755e+08
5.41883e+08
5.233e+08
5.02487e+08
4.79905e+08
4.56063e+08
4.31329e+08
4.06129e+08
3.80674e+08
3.55205e+08
5.73514e+07
5.72983e+07
5.71786e+07
5.69871e+07
5.67223e+07
5.63847e+07
5.59755e+07
5.54956e+07
5.4946e+07
5.4328e+07
5.36429e+07
5.28925e+07
5.20787e+07
5.12036e+07
5.02694e+07
4.92787e+07
4.82344e+07
4.71394e+07
4.59971e+07
4.4811e+07
4.35847e+07
4.23221e+07
4.10272e+07
3.9704e+07
3.83565e+07
3.69888e+07
3.56048e+07
3.42088e+07
3.28051e+07
3.1398e+07
2.99918e+07
2.85909e+07
2.71996e+07
2.58224e+07
2.44636e+07
2.31274e+07
2.18183e+07
2.05408e+07
1.92994e+07
1.8099e+07
1.6944e+07
1.58394e+07
1.47901e+07
1.3801e+07
1.28772e+07
1.2024e+07
1.12466e+07
1.05504e+07
9.94077e+06
9.42312e+06
9.00291e+06
8.68555e+06
8.47645e+06
8.38083e+06
8.4038e+06
8.55023e+06
8.82468e+06
9.23137e+06
9.77411e+06
1.04561e+07
1.12802e+07
1.22483e+07
1.3362e+07
1.46218e+07
1.60276e+07
1.75787e+07
1.92733e+07
2.11092e+07
2.3083e+07
2.51912e+07
2.7429e+07
2.97912e+07
3.22722e+07
3.48654e+07
3.75642e+07
4.03616e+07
4.32501e+07
4.62224e+07
4.92706e+07
5.23868e+07
5.5563e+07
5.87913e+07
6.20633e+07
6.53708e+07
6.87053e+07
7.2058e+07
7.54202e+07
7.87823e+07
8.21347e+07
8.54673e+07
8.87694e+07
9.20299e+07
9.52374e+07
9.838e+07
1.01446e+08
1.04422e+08
1.07297e+08
1.1006e+08
1.12701e+08
1.15209e+08
1.17575e+08
1.19794e+08
1.21857e+08
1.23761e+08
1.25502e+08
1.27078e+08
1.28489e+08
1.29738e+08
1.30831e+08
1.31775e+08
1.32579e+08
1.33254e+08
1.33813e+08
1.34269e+08
1.34636e+08
1.34932e+08
1.35173e+08
1.3538e+08
1.35577e+08
1.35786e+08
1.36036e+08
1.36358e+08
1.36785e+08
1.37355e+08
1.3811e+08
1.39096e+08
1.40362e+08
1.41961e+08
1.43953e+08
1.46397e+08
1.49354e+08
1.52885e+08
1.57048e+08
1.61898e+08
1.67485e+08
1.73853e+08
1.81038e+08
1.89068e+08
1.97955e+08
2.07705e+08
2.18311e+08
2.29753e+08
2.42008e+08
2.55039e+08
2.688e+08
2.83235e+08
2.98291e+08
3.13916e+08
3.30044e+08
3.46603e+08
3.63521e+08
3.80728e+08
3.98138e+08
4.15659e+08
4.33175e+08
4.50561e+08
4.67656e+08
4.843e+08
5.00278e+08
5.1536e+08
5.29281e+08
5.41749e+08
5.52442e+08
5.61059e+08
5.67278e+08
5.70828e+08
5.71459e+08
5.68997e+08
5.63309e+08
5.54382e+08
5.42288e+08
5.27252e+08
5.09562e+08
4.89671e+08
4.68006e+08
4.45044e+08
4.2116e+08
3.96754e+08
3.72051e+08
3.47223e+08
5.44552e+07
5.44059e+07
5.42938e+07
5.41144e+07
5.38674e+07
5.35537e+07
5.31741e+07
5.2729e+07
5.22192e+07
5.16458e+07
5.10097e+07
5.03123e+07
4.9555e+07
4.87397e+07
4.78683e+07
4.69433e+07
4.59671e+07
4.49426e+07
4.38728e+07
4.2761e+07
4.16104e+07
4.04248e+07
3.92076e+07
3.79624e+07
3.66928e+07
3.54024e+07
3.4095e+07
3.27746e+07
3.14453e+07
3.01112e+07
2.87765e+07
2.74453e+07
2.61215e+07
2.48093e+07
2.35127e+07
2.2236e+07
2.09833e+07
1.97591e+07
1.85679e+07
1.7414e+07
1.63021e+07
1.52369e+07
1.42232e+07
1.3266e+07
1.23704e+07
1.15414e+07
1.07843e+07
1.01044e+07
9.50712e+06
8.99785e+06
8.582e+06
8.26499e+06
8.0522e+06
7.94883e+06
7.95996e+06
8.09046e+06
8.34493e+06
8.72755e+06
9.24208e+06
9.89173e+06
1.06792e+07
1.16066e+07
1.26752e+07
1.38856e+07
1.52379e+07
1.6731e+07
1.83632e+07
2.01324e+07
2.20355e+07
2.40685e+07
2.6227e+07
2.85059e+07
3.08996e+07
3.34016e+07
3.60056e+07
3.87046e+07
4.14914e+07
4.43586e+07
4.72988e+07
5.03041e+07
5.33666e+07
5.64784e+07
5.96315e+07
6.28176e+07
6.60283e+07
6.9255e+07
7.24892e+07
7.57216e+07
7.89426e+07
8.21423e+07
8.53103e+07
8.84358e+07
9.15076e+07
9.45143e+07
9.74443e+07
1.00286e+08
1.03028e+08
1.05661e+08
1.08174e+08
1.10559e+08
1.12807e+08
1.14912e+08
1.16869e+08
1.18673e+08
1.20321e+08
1.21812e+08
1.23147e+08
1.24329e+08
1.25363e+08
1.26255e+08
1.27014e+08
1.27651e+08
1.28177e+08
1.28605e+08
1.28948e+08
1.29221e+08
1.29441e+08
1.29627e+08
1.29799e+08
1.29981e+08
1.30198e+08
1.30479e+08
1.30854e+08
1.31361e+08
1.32038e+08
1.3293e+08
1.34085e+08
1.35553e+08
1.37389e+08
1.39651e+08
1.42398e+08
1.45691e+08
1.49583e+08
1.54128e+08
1.59375e+08
1.65365e+08
1.72132e+08
1.79706e+08
1.88101e+08
1.97321e+08
2.07359e+08
2.182e+08
2.29823e+08
2.42196e+08
2.55269e+08
2.68994e+08
2.83316e+08
2.98193e+08
3.13561e+08
3.29353e+08
3.45498e+08
3.61933e+08
3.78575e+08
3.95334e+08
4.12101e+08
4.28759e+08
4.45154e+08
4.61131e+08
4.7649e+08
4.91008e+08
5.04439e+08
5.16505e+08
5.26908e+08
5.35364e+08
5.41569e+08
5.45267e+08
5.46218e+08
5.44255e+08
5.39247e+08
5.31163e+08
5.20065e+08
5.06143e+08
4.89659e+08
4.71026e+08
4.50626e+08
4.28902e+08
4.06214e+08
3.82939e+08
3.59316e+08
3.35494e+08
5.09306e+07
5.08866e+07
5.07846e+07
5.06216e+07
5.03978e+07
5.01139e+07
4.977e+07
4.93666e+07
4.89042e+07
4.83836e+07
4.78053e+07
4.71704e+07
4.648e+07
4.57358e+07
4.49395e+07
4.40931e+07
4.31989e+07
4.22592e+07
4.12769e+07
4.02547e+07
3.91956e+07
3.81028e+07
3.69793e+07
3.5828e+07
3.46523e+07
3.34554e+07
3.22409e+07
3.10126e+07
2.97742e+07
2.85295e+07
2.72822e+07
2.6036e+07
2.47945e+07
2.35617e+07
2.23412e+07
2.11372e+07
1.99536e+07
1.87947e+07
1.76646e+07
1.65678e+07
1.55086e+07
1.44917e+07
1.35219e+07
1.26039e+07
1.17427e+07
1.09433e+07
1.02111e+07
9.55116e+06
8.96897e+06
8.4699e+06
8.05932e+06
7.74263e+06
7.52518e+06
7.41218e+06
7.40866e+06
7.51946e+06
7.74911e+06
8.10177e+06
8.58113e+06
9.19044e+06
9.93235e+06
1.08089e+07
1.18214e+07
1.29704e+07
1.42559e+07
1.56768e+07
1.72315e+07
1.89179e+07
2.07328e+07
2.26726e+07
2.47328e+07
2.69083e+07
2.91938e+07
3.1583e+07
3.40695e+07
3.66468e+07
3.93078e+07
4.20453e+07
4.4852e+07
4.77203e+07
5.06425e+07
5.36108e+07
5.66174e+07
5.96542e+07
6.2713e+07
6.57852e+07
6.88625e+07
7.19359e+07
7.49959e+07
7.80331e+07
8.10372e+07
8.3998e+07
8.69046e+07
8.97459e+07
9.25109e+07
9.51891e+07
9.77701e+07
1.00244e+08
1.02602e+08
1.04836e+08
1.06938e+08
1.08905e+08
1.10731e+08
1.12412e+08
1.13946e+08
1.15332e+08
1.16572e+08
1.1767e+08
1.18628e+08
1.19454e+08
1.20156e+08
1.20745e+08
1.21229e+08
1.2162e+08
1.2193e+08
1.22174e+08
1.22365e+08
1.22522e+08
1.22662e+08
1.22808e+08
1.22982e+08
1.2321e+08
1.23522e+08
1.23951e+08
1.24534e+08
1.25312e+08
1.2633e+08
1.27637e+08
1.29284e+08
1.31327e+08
1.33818e+08
1.36819e+08
1.4038e+08
1.44554e+08
1.49387e+08
1.54918e+08
1.61181e+08
1.68205e+08
1.76004e+08
1.84583e+08
1.93939e+08
2.04057e+08
2.14918e+08
2.26494e+08
2.38742e+08
2.51617e+08
2.65063e+08
2.79044e+08
2.93504e+08
3.08382e+08
3.23606e+08
3.39118e+08
3.54842e+08
3.7069e+08
3.86558e+08
4.02336e+08
4.17884e+08
4.3305e+08
4.47653e+08
4.61482e+08
4.74299e+08
4.85854e+08
4.95878e+08
5.04099e+08
5.10239e+08
5.14057e+08
5.15326e+08
5.13893e+08
5.09631e+08
5.02496e+08
4.92532e+08
4.79891e+08
4.64816e+08
4.47665e+08
4.28775e+08
4.08551e+08
3.87323e+08
3.65441e+08
3.43154e+08
3.20622e+08
4.70006e+07
4.69636e+07
4.68741e+07
4.67303e+07
4.65327e+07
4.62814e+07
4.59767e+07
4.56188e+07
4.5208e+07
4.47445e+07
4.42288e+07
4.36618e+07
4.30445e+07
4.23781e+07
4.1664e+07
4.0904e+07
4.00998e+07
3.92536e+07
3.83676e+07
3.74444e+07
3.64864e+07
3.5496e+07
3.44758e+07
3.34285e+07
3.23569e+07
3.1264e+07
3.01531e+07
2.90275e+07
2.78905e+07
2.67455e+07
2.55956e+07
2.44443e+07
2.32948e+07
2.21508e+07
2.10157e+07
1.98932e+07
1.87873e+07
1.77018e+07
1.66406e+07
1.56081e+07
1.46084e+07
1.3646e+07
1.27255e+07
1.18516e+07
1.10292e+07
1.02632e+07
9.55887e+06
8.92142e+06
8.35616e+06
7.86844e+06
7.46364e+06
7.14712e+06
6.92422e+06
6.80009e+06
6.77973e+06
6.86792e+06
7.06916e+06
7.38754e+06
7.82671e+06
8.38986e+06
9.07958e+06
9.89786e+06
1.0846e+07
1.19247e+07
1.31336e+07
1.4472e+07
1.59381e+07
1.75297e+07
1.92438e+07
2.10768e+07
2.30245e+07
2.50819e+07
2.72437e+07
2.95039e+07
3.18564e+07
3.42947e+07
3.68121e+07
3.94015e+07
4.2056e+07
4.4768e+07
4.75301e+07
5.03348e+07
5.31744e+07
5.60411e+07
5.89268e+07
6.18233e+07
6.47221e+07
6.76149e+07
7.04922e+07
7.33448e+07
7.61631e+07
7.89372e+07
8.1657e+07
8.43118e+07
8.68912e+07
8.93855e+07
9.17852e+07
9.40814e+07
9.62657e+07
9.83307e+07
1.0027e+08
1.02081e+08
1.03758e+08
1.053e+08
1.06705e+08
1.07972e+08
1.09105e+08
1.10106e+08
1.10978e+08
1.11728e+08
1.12363e+08
1.12893e+08
1.13326e+08
1.13672e+08
1.13941e+08
1.14147e+08
1.14303e+08
1.14424e+08
1.14525e+08
1.14626e+08
1.14749e+08
1.14916e+08
1.15155e+08
1.15497e+08
1.15975e+08
1.16625e+08
1.1749e+08
1.18616e+08
1.20051e+08
1.21847e+08
1.24054e+08
1.26728e+08
1.29921e+08
1.3368e+08
1.3805e+08
1.43069e+08
1.48771e+08
1.55184e+08
1.62322e+08
1.70192e+08
1.78792e+08
1.88111e+08
1.98131e+08
2.08829e+08
2.20168e+08
2.32107e+08
2.44595e+08
2.57596e+08
2.71062e+08
2.84936e+08
2.99153e+08
3.13654e+08
3.28369e+08
3.43212e+08
3.58088e+08
3.72894e+08
3.87502e+08
4.01764e+08
4.15515e+08
4.28563e+08
4.4068e+08
4.51638e+08
4.612e+08
4.69116e+08
4.75131e+08
4.79015e+08
4.80566e+08
4.79649e+08
4.76134e+08
4.69971e+08
4.61181e+08
4.49896e+08
4.36324e+08
4.20773e+08
4.03533e+08
3.84972e+08
3.65374e+08
3.45065e+08
3.24296e+08
3.03255e+08
4.28904e+07
4.28609e+07
4.2785e+07
4.26616e+07
4.2491e+07
4.22735e+07
4.20091e+07
4.16978e+07
4.13395e+07
4.09343e+07
4.04828e+07
3.99856e+07
3.94434e+07
3.8857e+07
3.82277e+07
3.75567e+07
3.68456e+07
3.60961e+07
3.531e+07
3.44892e+07
3.36357e+07
3.27513e+07
3.18382e+07
3.08988e+07
2.99355e+07
2.8951e+07
2.79482e+07
2.69299e+07
2.58988e+07
2.48578e+07
2.38099e+07
2.2758e+07
2.17051e+07
2.06543e+07
1.9609e+07
1.85726e+07
1.75485e+07
1.65404e+07
1.5552e+07
1.45874e+07
1.36505e+07
1.27456e+07
1.18772e+07
1.105e+07
1.02685e+07
9.5378e+06
8.86296e+06
8.24917e+06
7.70169e+06
7.22585e+06
6.82699e+06
6.5104e+06
6.28139e+06
6.14508e+06
6.10643e+06
6.17018e+06
6.34075e+06
6.62217e+06
7.01806e+06
7.53152e+06
8.16507e+06
8.92066e+06
9.79955e+06
1.08023e+07
1.19288e+07
1.31781e+07
1.45487e+07
1.60381e+07
1.76435e+07
1.93614e+07
2.11877e+07
2.31176e+07
2.51458e+07
2.72668e+07
2.94745e+07
3.17627e+07
3.41249e+07
3.65544e+07
3.90442e+07
4.15874e+07
4.41765e+07
4.68044e+07
4.94635e+07
5.21463e+07
5.48451e+07
5.75517e+07
6.0258e+07
6.29557e+07
6.5636e+07
6.82898e+07
7.09081e+07
7.34815e+07
7.60004e+07
7.84549e+07
8.08356e+07
8.31335e+07
8.53398e+07
8.74467e+07
8.94465e+07
9.1333e+07
9.31007e+07
9.47461e+07
9.62664e+07
9.76603e+07
9.89275e+07
1.00069e+08
1.01085e+08
1.01981e+08
1.02759e+08
1.03426e+08
1.03987e+08
1.04451e+08
1.04825e+08
1.05118e+08
1.0534e+08
1.05502e+08
1.05616e+08
1.05694e+08
1.0575e+08
1.05802e+08
1.05867e+08
1.05968e+08
1.06129e+08
1.06377e+08
1.06743e+08
1.07258e+08
1.07962e+08
1.08896e+08
1.10107e+08
1.11642e+08
1.13551e+08
1.15883e+08
1.18688e+08
1.22011e+08
1.25895e+08
1.30377e+08
1.35491e+08
1.41264e+08
1.47711e+08
1.5484e+08
1.62652e+08
1.7114e+08
1.80287e+08
1.90075e+08
2.00472e+08
2.11442e+08
2.2294e+08
2.34932e+08
2.47372e+08
2.6021e+08
2.73384e+08
2.86841e+08
3.00509e+08
3.1431e+08
3.28154e+08
3.41946e+08
3.55567e+08
3.68874e+08
3.81716e+08
3.9392e+08
4.05274e+08
4.15571e+08
4.24599e+08
4.32137e+08
4.37956e+08
4.41838e+08
4.43609e+08
4.43148e+08
4.40328e+08
4.35091e+08
4.27444e+08
4.17503e+08
4.05439e+08
3.91514e+08
3.75972e+08
3.59138e+08
3.41254e+08
3.22618e+08
3.03472e+08
2.8404e+08
3.88133e+07
3.87913e+07
3.87287e+07
3.86254e+07
3.84816e+07
3.82973e+07
3.80721e+07
3.7806e+07
3.74989e+07
3.7151e+07
3.67624e+07
3.63335e+07
3.58648e+07
3.5357e+07
3.48107e+07
3.42272e+07
3.36074e+07
3.29527e+07
3.22645e+07
3.1544e+07
3.07929e+07
3.00126e+07
2.92051e+07
2.83721e+07
2.75159e+07
2.66386e+07
2.57428e+07
2.48306e+07
2.39044e+07
2.29667e+07
2.20199e+07
2.10668e+07
2.01099e+07
1.9152e+07
1.81962e+07
1.72455e+07
1.6303e+07
1.53722e+07
1.44564e+07
1.35596e+07
1.26854e+07
1.1838e+07
1.10218e+07
1.02411e+07
9.50055e+06
8.80511e+06
8.15973e+06
7.56953e+06
7.03972e+06
6.57558e+06
6.1824e+06
5.86544e+06
5.62992e+06
5.48093e+06
5.4234e+06
5.46199e+06
5.60108e+06
5.84463e+06
6.19616e+06
6.65871e+06
7.23474e+06
7.92611e+06
8.73405e+06
9.65909e+06
1.0701e+07
1.1859e+07
1.31314e+07
1.45158e+07
1.60095e+07
1.76091e+07
1.93104e+07
2.11089e+07
2.29996e+07
2.4977e+07
2.70353e+07
2.91685e+07
3.13703e+07
3.36343e+07
3.59538e+07
3.83221e+07
4.0732e+07
4.31767e+07
4.56489e+07
4.8141e+07
5.06458e+07
5.31555e+07
5.5662e+07
5.81575e+07
6.06335e+07
6.30815e+07
6.54929e+07
6.78587e+07
7.017e+07
7.24182e+07
7.45943e+07
7.66902e+07
7.86982e+07
8.06113e+07
8.24225e+07
8.41269e+07
8.57194e+07
8.71971e+07
8.85579e+07
8.98013e+07
9.09283e+07
9.19394e+07
9.28366e+07
9.36232e+07
9.43033e+07
9.48815e+07
9.53637e+07
9.57564e+07
9.6066e+07
9.63007e+07
9.64698e+07
9.65825e+07
9.66484e+07
9.6679e+07
9.66863e+07
9.66842e+07
9.66889e+07
9.67208e+07
9.68001e+07
9.69513e+07
9.7202e+07
9.75814e+07
9.81229e+07
9.88659e+07
9.9852e+07
1.01127e+08
1.02735e+08
1.04725e+08
1.0714e+08
1.10025e+08
1.13422e+08
1.17367e+08
1.21893e+08
1.27026e+08
1.32783e+08
1.39175e+08
1.46203e+08
1.53864e+08
1.62145e+08
1.71031e+08
1.80495e+08
1.90507e+08
2.01026e+08
2.12024e+08
2.23453e+08
2.35267e+08
2.47411e+08
2.59831e+08
2.7246e+08
2.85225e+08
2.9804e+08
3.10816e+08
3.23438e+08
3.35773e+08
3.47683e+08
3.59011e+08
3.69563e+08
3.79152e+08
3.87588e+08
3.94679e+08
4.00224e+08
4.04024e+08
4.05931e+08
4.05831e+08
4.0361e+08
3.99203e+08
3.92612e+08
3.83935e+08
3.73309e+08
3.6096e+08
3.47086e+08
3.31967e+08
3.15803e+08
2.98865e+08
2.81382e+08
2.63608e+08
3.49566e+07
3.49413e+07
3.4891e+07
3.48064e+07
3.46875e+07
3.4534e+07
3.43456e+07
3.4122e+07
3.38631e+07
3.35687e+07
3.32391e+07
3.28742e+07
3.24744e+07
3.20401e+07
3.15718e+07
3.10702e+07
3.0536e+07
2.99702e+07
2.93735e+07
2.87473e+07
2.80924e+07
2.74102e+07
2.67021e+07
2.59696e+07
2.52144e+07
2.44383e+07
2.36434e+07
2.28314e+07
2.20043e+07
2.11642e+07
2.03132e+07
1.94536e+07
1.85877e+07
1.77179e+07
1.6847e+07
1.59776e+07
1.51125e+07
1.4255e+07
1.34082e+07
1.25757e+07
1.17611e+07
1.09683e+07
1.02016e+07
9.46514e+06
8.76356e+06
8.1016e+06
7.48416e+06
6.91628e+06
6.4031e+06
5.94985e+06
5.56173e+06
5.24397e+06
5.00174e+06
4.84009e+06
4.76389e+06
4.77774e+06
4.88594e+06
5.09238e+06
5.40049e+06
5.8132e+06
6.3329e+06
6.96137e+06
7.69976e+06
8.54851e+06
9.50741e+06
1.05755e+07
1.17512e+07
1.30323e+07
1.44158e+07
1.58984e+07
1.74762e+07
1.91448e+07
2.08992e+07
2.27341e+07
2.46441e+07
2.66232e+07
2.86654e+07
3.07645e+07
3.2914e+07
3.51075e+07
3.73383e+07
3.95996e+07
4.18843e+07
4.41854e+07
4.64956e+07
4.88076e+07
5.11136e+07
5.3406e+07
5.5677e+07
5.79184e+07
6.01222e+07
6.228e+07
6.43837e+07
6.64255e+07
6.83973e+07
7.02918e+07
7.2102e+07
7.38219e+07
7.54456e+07
7.69689e+07
7.83876e+07
7.9699e+07
8.09022e+07
8.19972e+07
8.29849e+07
8.38666e+07
8.46443e+07
8.53212e+07
8.59012e+07
8.63888e+07
8.67893e+07
8.71079e+07
8.73499e+07
8.75223e+07
8.76337e+07
8.76922e+07
8.77061e+07
8.7685e+07
8.76391e+07
8.75804e+07
8.75233e+07
8.74849e+07
8.74829e+07
8.75385e+07
8.76764e+07
8.79232e+07
8.83087e+07
8.88683e+07
8.964e+07
9.06649e+07
9.19853e+07
9.36442e+07
9.56842e+07
9.81478e+07
1.01075e+08
1.04503e+08
1.08462e+08
1.12978e+08
1.1807e+08
1.23753e+08
1.30029e+08
1.36898e+08
1.44349e+08
1.52374e+08
1.60949e+08
1.70046e+08
1.79633e+08
1.89682e+08
2.00149e+08
2.10987e+08
2.22143e+08
2.33569e+08
2.452e+08
2.56966e+08
2.68786e+08
2.8057e+08
2.9221e+08
3.03582e+08
3.14563e+08
3.25004e+08
3.34734e+08
3.43585e+08
3.51385e+08
3.57968e+08
3.63162e+08
3.66791e+08
3.68731e+08
3.6888e+08
3.67133e+08
3.6343e+08
3.57769e+08
3.50229e+08
3.40923e+08
3.30042e+08
3.17746e+08
3.04266e+08
2.89771e+08
2.74496e+08
2.58659e+08
2.42535e+08
3.14718e+07
3.14622e+07
3.14226e+07
3.13546e+07
3.12578e+07
3.1132e+07
3.09766e+07
3.07914e+07
3.05759e+07
3.033e+07
3.00535e+07
2.97464e+07
2.94088e+07
2.90408e+07
2.86427e+07
2.82148e+07
2.77576e+07
2.72717e+07
2.67576e+07
2.62161e+07
2.56479e+07
2.50541e+07
2.44356e+07
2.37936e+07
2.31296e+07
2.24449e+07
2.1741e+07
2.10194e+07
2.02818e+07
1.95298e+07
1.87653e+07
1.79902e+07
1.72064e+07
1.64162e+07
1.56219e+07
1.48259e+07
1.40308e+07
1.32395e+07
1.2455e+07
1.16806e+07
1.09199e+07
1.01765e+07
9.45453e+06
8.75807e+06
8.09161e+06
7.45982e+06
6.86752e+06
6.31966e+06
5.82129e+06
5.37755e+06
4.99362e+06
4.67464e+06
4.42575e+06
4.25197e+06
4.1581e+06
4.14866e+06
4.22785e+06
4.39948e+06
4.66687e+06
5.03283e+06
5.49964e+06
6.06901e+06
6.74197e+06
7.5189e+06
8.39949e+06
9.38275e+06
1.0467e+07
1.16501e+07
1.29291e+07
1.43005e+07
1.57605e+07
1.7305e+07
1.8929e+07
2.06275e+07
2.23951e+07
2.4226e+07
2.61145e+07
2.80544e+07
3.00395e+07
3.20638e+07
3.41207e+07
3.62037e+07
3.83061e+07
4.04209e+07
4.25414e+07
4.46603e+07
4.67704e+07
4.88646e+07
5.09352e+07
5.29747e+07
5.49757e+07
5.69305e+07
5.88317e+07
6.06721e+07
6.24446e+07
6.41427e+07
6.57602e+07
6.72918e+07
6.8733e+07
7.008e+07
7.13297e+07
7.24798e+07
7.35301e+07
7.44807e+07
7.53329e+07
7.60881e+07
7.67484e+07
7.73169e+07
7.77973e+07
7.81939e+07
7.85111e+07
7.87533e+07
7.89253e+07
7.90334e+07
7.90843e+07
7.90854e+07
7.90439e+07
7.89677e+07
7.88662e+07
7.87493e+07
7.86301e+07
7.85226e+07
7.84421e+07
7.8407e+07
7.84389e+07
7.85621e+07
7.88034e+07
7.91942e+07
7.97684e+07
8.05626e+07
8.16158e+07
8.29685e+07
8.46605e+07
8.67321e+07
8.92222e+07
9.21663e+07
9.55952e+07
9.95352e+07
1.04008e+08
1.09029e+08
1.14604e+08
1.20736e+08
1.27418e+08
1.34644e+08
1.42394e+08
1.50644e+08
1.59368e+08
1.68537e+08
1.78112e+08
1.88044e+08
1.98282e+08
2.0878e+08
2.19477e+08
2.30302e+08
2.41179e+08
2.52015e+08
2.6271e+08
2.73148e+08
2.83217e+08
2.92777e+08
3.01682e+08
3.09776e+08
3.16906e+08
3.22928e+08
3.27703e+08
3.3107e+08
3.32935e+08
3.3321e+08
3.31803e+08
3.28662e+08
3.23784e+08
3.17228e+08
3.09093e+08
2.99534e+08
2.88682e+08
2.76723e+08
2.638e+08
2.50108e+08
2.35854e+08
2.21326e+08
2.84693e+07
2.84638e+07
2.84329e+07
2.83787e+07
2.83009e+07
2.81989e+07
2.80721e+07
2.79201e+07
2.77425e+07
2.75387e+07
2.73085e+07
2.70516e+07
2.67681e+07
2.64576e+07
2.61204e+07
2.57564e+07
2.53659e+07
2.4949e+07
2.45063e+07
2.4038e+07
2.35447e+07
2.30271e+07
2.24859e+07
2.19221e+07
2.13365e+07
2.07305e+07
2.0105e+07
1.94613e+07
1.88006e+07
1.81245e+07
1.74343e+07
1.67318e+07
1.60187e+07
1.52967e+07
1.45682e+07
1.38352e+07
1.31001e+07
1.23657e+07
1.16347e+07
1.09103e+07
1.01958e+07
9.49476e+06
8.81112e+06
8.14892e+06
7.51253e+06
6.90651e+06
6.33561e+06
5.80469e+06
5.31873e+06
4.8828e+06
4.50203e+06
4.18152e+06
3.92634e+06
3.74145e+06
3.63154e+06
3.60108e+06
3.65418e+06
3.79454e+06
4.02536e+06
4.34933e+06
4.76861e+06
5.28475e+06
5.89869e+06
6.61067e+06
7.42029e+06
8.32647e+06
9.3275e+06
1.04211e+07
1.16043e+07
1.28737e+07
1.42254e+07
1.56554e+07
1.71589e+07
1.87308e+07
2.03658e+07
2.20585e+07
2.38031e+07
2.55937e+07
2.74244e+07
2.9289e+07
3.11815e+07
3.30956e+07
3.50249e+07
3.69628e+07
3.89025e+07
4.08374e+07
4.27607e+07
4.46653e+07
4.65445e+07
4.8391e+07
5.01981e+07
5.19587e+07
5.36661e+07
5.53138e+07
5.68955e+07
5.84054e+07
5.98384e+07
6.11901e+07
6.24568e+07
6.36352e+07
6.47231e+07
6.5719e+07
6.66226e+07
6.74345e+07
6.81562e+07
6.87892e+07
6.93353e+07
6.97979e+07
7.01803e+07
7.04863e+07
7.07197e+07