/*--------------------------------*- C++ -*----------------------------------*\
| =========                 |                                                 |
| \\      /  F ield         | OpenFOAM: The Open Source CFD Toolbox           |
|  \\    /   O peration     | Version:  dev                                   |
|   \\  /    A nd           | Web:      http://www.openfoam.org               |
|    \\/     M anipulation  |                                                 |
\*---------------------------------------------------------------------------*/
FoamFile
{
    version     2.0;
    format      ascii;
    class       volScalarField;
    object      rho;
    location    "9.127";
}
// * * * * * * * * * * * * * * * * * * * * * * * * * * * * * * * * * * * * * //

dimensions      [1 -3 0 0 0 0 0];

internalField   nonuniform List<scalar> 
12225
(
1.14843
1.14639
1.14641
1.14658
1.14674
1.14659
1.14564
1.14536
1.14347
1.14323
1.14044
1.14078
1.13693
1.13784
1.13335
1.13335
1.13541
1.12612
1.14663
1.14606
1.14807
1.15015
1.15069
1.15307
1.15122
1.15361
1.14983
1.15261
1.14699
1.15116
1.14427
1.1484
1.14316
1.14539
1.14897
1.13766
1.14631
1.14668
1.14817
1.15126
1.15177
1.15487
1.15427
1.15676
1.15534
1.15659
1.15474
1.15476
1.15339
1.15162
1.15237
1.15053
1.151
1.13692
1.14637
1.14643
1.14903
1.15009
1.15299
1.1526
1.15544
1.15386
1.15698
1.15411
1.15682
1.15339
1.15563
1.15177
1.15333
1.15119
1.15345
1.1381
1.14798
1.14553
1.15063
1.14895
1.15363
1.15146
1.15517
1.15261
1.15599
1.15354
1.15591
1.15351
1.15521
1.15262
1.15339
1.15216
1.15354
1.1406
1.14955
1.14528
1.15199
1.14906
1.15443
1.15167
1.15535
1.15305
1.15657
1.15411
1.15671
1.15371
1.15585
1.15234
1.15362
1.15053
1.15062
1.14644
1.15084
1.14554
1.15299
1.149
1.15475
1.1517
1.1559
1.15387
1.15739
1.15467
1.15689
1.15373
1.15535
1.15214
1.15231
1.14982
1.1492
1.15001
1.15215
1.14597
1.15424
1.14963
1.15535
1.1519
1.15664
1.15427
1.15804
1.15514
1.15706
1.15371
1.15501
1.15221
1.15263
1.15081
1.15038
1.14965
1.15317
1.14682
1.15523
1.1508
1.15606
1.15272
1.15789
1.15528
1.15889
1.15617
1.15783
1.15409
1.15559
1.15282
1.15381
1.15172
1.15208
1.15036
1.15403
1.14834
1.15603
1.15236
1.15686
1.154
1.15869
1.15664
1.15908
1.15713
1.15773
1.15471
1.15547
1.15344
1.15357
1.15185
1.1517
1.15054
1.15554
1.15065
1.15699
1.15378
1.15776
1.15576
1.15905
1.15735
1.15886
1.15694
1.15667
1.15463
1.1544
1.15297
1.15258
1.1513
1.14997
1.1491
1.15713
1.15331
1.15777
1.15629
1.15859
1.15727
1.15896
1.15766
1.15803
1.15648
1.15574
1.15445
1.15354
1.15285
1.15126
1.15007
1.14877
1.14743
1.15972
1.15666
1.15912
1.15856
1.15977
1.15924
1.15946
1.15855
1.15774
1.15641
1.15535
1.15415
1.15252
1.1516
1.15004
1.14843
1.14685
1.14563
1.16307
1.16057
1.16209
1.16193
1.16202
1.16134
1.16061
1.15946
1.15835
1.15695
1.1553
1.15366
1.152
1.15054
1.14875
1.14718
1.14515
1.14351
1.1686
1.16566
1.16621
1.16582
1.16512
1.16424
1.16284
1.16148
1.15979
1.15793
1.15596
1.15397
1.15192
1.15001
1.14803
1.14615
1.14413
1.14242
1.17559
1.17209
1.17207
1.17113
1.16975
1.16835
1.1665
1.1647
1.16258
1.16041
1.15813
1.15573
1.15338
1.15107
1.14883
1.14665
1.14444
1.14217
1.18458
1.18002
1.17975
1.17844
1.17664
1.17469
1.17244
1.17004
1.16754
1.16493
1.16236
1.15976
1.15724
1.15474
1.1523
1.14986
1.14749
1.14523
1.19408
1.18921
1.18898
1.18762
1.18564
1.18332
1.18079
1.17804
1.17544
1.17265
1.17007
1.16737
1.16479
1.16218
1.15963
1.1572
1.15482
1.15256
1.2039
1.19858
1.19829
1.19683
1.19479
1.19263
1.19022
1.18763
1.18523
1.18251
1.18008
1.17737
1.17499
1.17241
1.16998
1.16763
1.16541
1.1634
1.21153
1.20618
1.20621
1.20493
1.20323
1.20139
1.19929
1.19703
1.19485
1.19239
1.19015
1.18771
1.18561
1.18329
1.18111
1.17894
1.17691
1.17512
1.21807
1.21273
1.21298
1.21199
1.21068
1.20904
1.20735
1.20539
1.20362
1.20156
1.19965
1.19771
1.19582
1.19395
1.19197
1.19008
1.1882
1.18652
1.2237
1.21827
1.21903
1.21844
1.21741
1.21604
1.21452
1.21286
1.2113
1.2095
1.2079
1.20628
1.2047
1.2031
1.20148
1.19979
1.19824
1.19663
1.22721
1.22218
1.22326
1.22287
1.22219
1.2212
1.21998
1.21879
1.21747
1.21608
1.2147
1.21327
1.21191
1.21043
1.20904
1.20755
1.20626
1.20483
1.23035
1.2254
1.22653
1.22654
1.22623
1.22558
1.22469
1.22358
1.22247
1.22113
1.21986
1.21848
1.21721
1.21587
1.2146
1.21338
1.2121
1.21092
1.23314
1.22804
1.2293
1.2293
1.22897
1.22839
1.22765
1.22675
1.22587
1.2249
1.22385
1.22279
1.22162
1.2204
1.21913
1.21784
1.21652
1.21515
1.23459
1.22949
1.23095
1.23107
1.23078
1.23022
1.22958
1.22879
1.22805
1.22719
1.22632
1.22531
1.22431
1.22321
1.22209
1.22092
1.21976
1.2186
1.23573
1.23078
1.23227
1.23244
1.23228
1.2318
1.2313
1.2306
1.22998
1.22923
1.22856
1.22782
1.22721
1.22659
1.22596
1.22527
1.22458
1.2238
1.23666
1.23156
1.23306
1.23331
1.23328
1.23303
1.23279
1.2324
1.23214
1.23175
1.23153
1.23123
1.23113
1.23085
1.23064
1.23012
1.2297
1.22896
1.23716
1.23166
1.2333
1.23373
1.23387
1.2339
1.23383
1.23366
1.23335
1.23281
1.23223
1.23146
1.23062
1.22954
1.22844
1.22698
1.2256
1.22391
1.24041
1.23408
1.23393
1.23307
1.23213
1.23093
1.22947
1.22778
1.22587
1.22385
1.2218
1.21964
1.21745
1.21519
1.21294
1.21059
1.20834
1.2066
1.23708
1.27092
1.25986
1.24734
1.24066
1.23973
1.23778
1.23823
1.23655
1.23532
1.23357
1.23133
1.22886
1.22617
1.2237
1.22127
1.2191
1.2171
1.21519
1.21336
1.21193
1.21079
1.20972
1.20866
1.20781
1.20712
1.20629
1.20538
1.2045
1.20355
1.20249
1.20178
1.20118
1.20026
1.19931
1.19863
1.19818
1.19823
1.19828
1.19832
1.19813
1.19782
1.19725
1.19644
1.19578
1.19537
1.19547
1.19555
1.19458
1.19327
1.19292
1.19233
1.18929
1.18455
1.18124
1.18101
1.18328
1.18631
1.18983
1.19398
1.19555
1.19422
1.19469
1.19938
1.20521
1.20929
1.21267
1.21594
1.21968
1.22488
1.22901
1.2313
1.23315
1.23673
1.24
1.2388
1.22922
1.2157
1.21327
1.22683
1.24618
1.26255
1.27507
1.28499
1.29349
1.30043
1.30671
1.31287
1.31854
1.32413
1.33006
1.33571
1.33974
1.34195
1.34472
1.35166
1.36087
1.36598
1.36817
1.37279
1.37455
1.37688
1.38703
1.38468
1.39243
1.39341
1.39743
1.39964
1.40163
1.40298
1.40317
1.40305
1.40098
1.39887
1.39348
1.38878
1.38205
1.37589
1.36963
1.36865
1.36233
1.35506
1.35001
1.34951
1.34613
1.33969
1.33352
1.33165
1.3268
1.32028
1.31387
1.30903
1.30616
1.30821
1.31273
1.32173
1.3232
1.32712
1.33107
1.33825
1.34395
1.34964
1.35687
1.35733
1.36484
1.36094
1.36636
1.36234
1.36518
1.36237
1.36477
1.36308
1.36533
1.36401
1.36509
1.36307
1.36057
1.36289
1.36163
1.35725
1.35825
1.35646
1.35753
1.35702
1.36029
1.36265
1.36705
1.37061
1.37405
1.37582
1.38187
1.37934
1.38564
1.37552
1.35662
1.32414
1.30045
1.30154
1.29625
1.27827
1.23557
1.26346
1.23854
1.22238
1.21136
1.21642
1.21718
1.2186
1.21941
1.21976
1.2199
1.2196
1.21935
1.21924
1.21936
1.21991
1.22022
1.22009
1.2201
1.22083
1.22183
1.22202
1.22197
1.22199
1.22212
1.22157
1.22046
1.21946
1.21846
1.21711
1.21588
1.21572
1.21526
1.21362
1.21199
1.21142
1.21051
1.2106
1.21016
1.21011
1.20946
1.20953
1.20978
1.20956
1.20889
1.20696
1.2067
1.2104
1.21196
1.20834
1.20459
1.20619
1.2064
1.20293
1.20144
1.20367
1.20261
1.19072
1.18731
1.20099
1.21685
1.22331
1.2216
1.22329
1.22962
1.23694
1.23921
1.23293
1.22933
1.23699
1.24831
1.25956
1.26981
1.2676
1.25671
1.26128
1.2835
1.30406
1.3196
1.33312
1.34354
1.35044
1.35356
1.3536
1.35281
1.35042
1.34758
1.34602
1.34547
1.3471
1.35122
1.35251
1.34549
1.33249
1.32628
1.33921
1.36429
1.37716
1.37475
1.37781
1.36779
1.3555
1.41679
1.37114
1.4059
1.39831
1.4191
1.42298
1.43513
1.43925
1.45105
1.45986
1.47103
1.48175
1.48804
1.49291
1.4944
1.49889
1.49252
1.48702
1.48561
1.48396
1.46658
1.45512
1.45561
1.46062
1.45525
1.44924
1.43249
1.40416
1.37741
1.35765
1.33991
1.33731
1.34768
1.37045
1.37294
1.38002
1.38896
1.40969
1.41535
1.42565
1.43722
1.43207
1.44713
1.43647
1.44654
1.43949
1.44215
1.43669
1.43519
1.43163
1.42277
1.42021
1.39907
1.41937
1.39304
1.38839
1.40334
1.3811
1.38691
1.38006
1.37982
1.3813
1.3986
1.41683
1.43214
1.45191
1.46735
1.4726
1.49772
1.5062
1.55243
1.54721
1.5358
1.46941
1.39287
1.37474
1.3975
1.38432
1.22383
1.23962
1.20498
1.20729
1.2024
1.20292
1.20579
1.20813
1.20928
1.21235
1.21683
1.21984
1.22521
1.23335
1.23439
1.23421
1.23501
1.23417
1.23396
1.23134
1.22986
1.22798
1.22631
1.22401
1.2216
1.21906
1.21667
1.21458
1.21296
1.21223
1.21194
1.21076
1.20878
1.20734
1.20676
1.20561
1.2041
1.20283
1.20162
1.20107
1.20012
1.19983
1.20023
1.20149
1.20203
1.20014
1.20059
1.20392
1.20302
1.20109
1.19857
1.19702
1.20335
1.20546
1.2043
1.20492
1.20397
1.20639
1.20459
1.20011
1.2047
1.20502
1.2131
1.22812
1.23044
1.23625
1.23238
1.21607
1.21759
1.23655
1.26004
1.27484
1.28035
1.28437
1.29548
1.30946
1.31776
1.31997
1.31947
1.31866
1.31626
1.31113
1.3034
1.2945
1.28538
1.27512
1.26581
1.25964
1.25544
1.25295
1.25319
1.25397
1.25033
1.24321
1.23902
1.24612
1.26269
1.27655
1.28022
1.27967
1.26934
1.26367
1.30171
1.26713
1.28533
1.27841
1.2949
1.29478
1.30411
1.30051
1.31327
1.32026
1.33628
1.35457
1.37478
1.38844
1.41408
1.44578
1.484
1.50326
1.49506
1.48325
1.48616
1.49032
1.48159
1.48713
1.51213
1.5255
1.49502
1.43933
1.38591
1.36153
1.3422
1.34665
1.36502
1.3943
1.40507
1.41524
1.41969
1.43728
1.43632
1.4383
1.44687
1.43763
1.4471
1.44231
1.44207
1.44943
1.43924
1.44563
1.42695
1.42651
1.39744
1.39498
1.32303
1.39191
1.35879
1.31735
1.3629
1.33349
1.3535
1.35781
1.34688
1.34228
1.32975
1.35183
1.38086
1.42048
1.47808
1.50317
1.50988
1.5016
1.52621
1.53865
1.56326
1.47307
1.42821
1.4046
1.40748
1.46097
1.21184
1.23534
1.19721
1.20306
1.20529
1.19801
1.2024
1.21526
1.22091
1.22608
1.24257
1.25306
1.23728
1.22735
1.23762
1.22733
1.22508
1.22647
1.2224
1.22618
1.22136
1.22196
1.21774
1.21431
1.21138
1.2094
1.20875
1.20782
1.20728
1.207
1.20712
1.20718
1.20666
1.20536
1.20371
1.20169
1.20042
1.1982
1.19667
1.19601
1.19614
1.19481
1.19257
1.19102
1.19204
1.19162
1.19429
1.20249
1.20162
1.19943
1.20512
1.19518
1.19522
1.20713
1.19973
1.19755
1.20166
1.20264
1.2012
1.19972
1.20916
1.21131
1.20592
1.20514
1.21569
1.23455
1.21676
1.19811
1.22759
1.26822
1.28942
1.29683
1.30252
1.3093
1.31302
1.31172
1.30913
1.30624
1.3032
1.29978
1.29486
1.28901
1.28241
1.27647
1.26953
1.2606
1.25239
1.24875
1.24997
1.25208
1.25348
1.2567
1.26043
1.26629
1.27313
1.27916
1.28289
1.28751
1.29376
1.29583
1.29666
1.30788
1.30312
1.29514
1.30163
1.30229
1.30651
1.30331
1.29853
1.28591
1.28609
1.28296
1.28283
1.28558
1.31044
1.3048
1.29768
1.31361
1.35075
1.38876
1.4227
1.40551
1.39904
1.43799
1.44846
1.44231
1.48497
1.53019
1.50934
1.43865
1.3873
1.36664
1.35047
1.36295
1.36469
1.38306
1.40922
1.41938
1.41873
1.4307
1.43127
1.43127
1.43541
1.42652
1.42351
1.42818
1.40827
1.42885
1.4098
1.42819
1.40981
1.40684
1.36295
1.39509
1.29128
1.32243
1.33526
1.2781
1.30757
1.27806
1.28842
1.342
1.33367
1.35438
1.33843
1.31115
1.33041
1.35095
1.39261
1.47264
1.51962
1.5152
1.44752
1.46006
1.49944
1.42541
1.43947
1.45424
1.40266
1.46108
1.20147
1.24023
1.2024
1.18818
1.18989
1.19697
1.21331
1.22511
1.22937
1.23736
1.22835
1.21764
1.23097
1.22234
1.21298
1.22971
1.22346
1.22798
1.22887
1.22271
1.22294
1.21276
1.21141
1.20636
1.20608
1.20553
1.20407
1.20387
1.20377
1.20446
1.20523
1.20568
1.20485
1.2037
1.20245
1.20023
1.19601
1.19271
1.18977
1.18844
1.19086
1.19194
1.18947
1.18348
1.18166
1.18243
1.1882
1.19682
1.19853
1.19756
1.19764
1.18201
1.18599
1.20695
1.19335
1.18833
1.1921
1.18973
1.20195
1.20492
1.20286
1.20517
1.20292
1.20222
1.2133
1.22036
1.19808
1.1997
1.24301
1.28046
1.29746
1.30443
1.30679
1.30476
1.30129
1.29901
1.29713
1.29262
1.28473
1.2767
1.26982
1.26148
1.25417
1.24993
1.24573
1.24057
1.23625
1.23686
1.24042
1.24411
1.24905
1.25434
1.2579
1.2609
1.26397
1.26796
1.27248
1.27563
1.27423
1.2769
1.28254
1.29637
1.299
1.29256
1.30779
1.31385
1.32195
1.32342
1.31301
1.29863
1.29644
1.28704
1.28916
1.28522
1.27837
1.29325
1.31598
1.30466
1.30897
1.31342
1.34052
1.36368
1.34241
1.32862
1.35748
1.36513
1.39486
1.46755
1.49145
1.46291
1.41656
1.36866
1.33826
1.36301
1.39108
1.3971
1.40313
1.41151
1.40889
1.4207
1.43295
1.42761
1.42267
1.42732
1.40923
1.42354
1.40418
1.39959
1.38869
1.38081
1.36802
1.38649
1.31197
1.37769
1.33784
1.27915
1.2916
1.28868
1.28946
1.27971
1.24729
1.29649
1.28474
1.28717
1.33545
1.31018
1.30502
1.34014
1.33168
1.38214
1.45434
1.54424
1.46092
1.43386
1.4381
1.40908
1.42863
1.47119
1.43071
1.42346
1.19193
1.24519
1.22108
1.19269
1.1899
1.18914
1.21493
1.24104
1.23739
1.2325
1.21903
1.22302
1.2296
1.22314
1.2276
1.23383
1.22377
1.22526
1.22077
1.20801
1.20843
1.20116
1.19945
1.20043
1.19809
1.19862
1.19718
1.1954
1.19628
1.19679
1.1967
1.19781
1.19865
1.19922
1.19806
1.1957
1.19244
1.1907
1.18969
1.18772
1.18802
1.19073
1.19122
1.18254
1.17529
1.17488
1.18325
1.19236
1.19246
1.1899
1.19041
1.18992
1.19165
1.1895
1.17634
1.18713
1.1897
1.17651
1.1844
1.18391
1.19389
1.21412
1.21403
1.20831
1.21044
1.21566
1.20031
1.19267
1.23042
1.27564
1.29546
1.29667
1.2925
1.28777
1.28509
1.28407
1.27704
1.26138
1.24568
1.2393
1.23747
1.23511
1.23553
1.23835
1.24125
1.24356
1.2462
1.25081
1.25337
1.2553
1.25674
1.25549
1.25354
1.25247
1.2508
1.24848
1.25
1.25739
1.26285
1.27361
1.28002
1.28165
1.30462
1.30176
1.3201
1.31942
1.34303
1.33222
1.33797
1.32515
1.32041
1.32099
1.30678
1.29327
1.2886
1.26559
1.26078
1.27012
1.29224
1.29951
1.29638
1.32784
1.33014
1.30389
1.30801
1.33143
1.29796
1.32209
1.41668
1.45994
1.42448
1.37641
1.34621
1.35426
1.37708
1.3874
1.37716
1.39704
1.4135
1.42019
1.42452
1.42606
1.39431
1.40044
1.39955
1.40342
1.42488
1.41095
1.39975
1.391
1.34269
1.36021
1.31331
1.31698
1.32599
1.29092
1.25077
1.2584
1.25758
1.29745
1.29399
1.31374
1.30517
1.23898
1.27862
1.29922
1.2721
1.33686
1.3353
1.34136
1.35006
1.49094
1.49025
1.45892
1.40516
1.37826
1.39849
1.44947
1.45207
1.38646
1.18285
1.24017
1.24231
1.21867
1.20093
1.18293
1.21467
1.25144
1.23453
1.21847
1.21434
1.21818
1.21485
1.21584
1.21716
1.21839
1.21842
1.20277
1.20821
1.20547
1.1958
1.19755
1.19984
1.20394
1.19799
1.19592
1.19662
1.19601
1.1942
1.19612
1.19401
1.195
1.19548
1.19579
1.19461
1.19191
1.18855
1.18776
1.18844
1.18667
1.18038
1.17911
1.18376
1.18307
1.17511
1.17616
1.18254
1.18969
1.19033
1.18834
1.18944
1.1944
1.1963
1.19221
1.18571
1.1875
1.1807
1.17669
1.18561
1.18099
1.19301
1.20065
1.19128
1.19781
1.2083
1.21517
1.20595
1.19944
1.23141
1.27137
1.28479
1.28191
1.27881
1.27838
1.2777
1.27044
1.25003
1.22654
1.21835
1.22618
1.23562
1.24093
1.2432
1.24282
1.24052
1.23683
1.23274
1.22961
1.22535
1.22361
1.22392
1.22551
1.22846
1.23226
1.23365
1.23477
1.2362
1.23708
1.2428
1.2563
1.27668
1.27496
1.29208
1.28844
1.3068
1.27705
1.33035
1.28359
1.32986
1.3326
1.34143
1.34458
1.35827
1.3573
1.34768
1.32465
1.28846
1.26932
1.25167
1.25842
1.27722
1.27766
1.29252
1.32085
1.28988
1.29321
1.32076
1.28238
1.27491
1.34258
1.4076
1.39416
1.33974
1.33434
1.36583
1.39177
1.38366
1.37689
1.38438
1.40322
1.38858
1.39367
1.36176
1.34027
1.35893
1.35259
1.36682
1.41121
1.3754
1.39108
1.37368
1.33693
1.31526
1.30663
1.28758
1.29619
1.28185
1.2655
1.21145
1.22471
1.2633
1.30625
1.34948
1.26447
1.23845
1.28988
1.25517
1.31654
1.35334
1.36029
1.29923
1.39663
1.45669
1.48717
1.40298
1.32448
1.3691
1.40139
1.43766
1.40304
1.17475
1.22827
1.25214
1.22985
1.19949
1.18055
1.20748
1.23097
1.21746
1.20835
1.20934
1.21235
1.21498
1.22272
1.21975
1.20883
1.20957
1.20285
1.20058
1.19071
1.19603
1.2036
1.19053
1.19868
1.20101
1.19232
1.19345
1.19403
1.19402
1.19181
1.19135
1.1902
1.18904
1.18747
1.18657
1.18533
1.18611
1.19127
1.19294
1.19282
1.18609
1.1771
1.17561
1.1812
1.17532
1.17374
1.17893
1.18427
1.18866
1.19082
1.1909
1.18921
1.19145
1.19479
1.1936
1.18859
1.18205
1.18292
1.18474
1.18361
1.19548
1.19397
1.19537
1.21267
1.21941
1.21934
1.205
1.19938
1.22935
1.26802
1.27904
1.27488
1.27614
1.27783
1.27175
1.25209
1.22484
1.21093
1.22099
1.23868
1.24546
1.23974
1.22759
1.21582
1.20952
1.20707
1.20808
1.21162
1.21625
1.22347
1.23175
1.24134
1.25054
1.25805
1.26044
1.26071
1.25935
1.26141
1.26852
1.28059
1.28521
1.32357
1.30277
1.30516
1.323
1.26668
1.33242
1.25097
1.29425
1.28954
1.2866
1.28766
1.29975
1.3169
1.3423
1.3466
1.34438
1.29638
1.27111
1.24113
1.23765
1.24756
1.25778
1.26702
1.29571
1.27764
1.28006
1.3004
1.28418
1.25122
1.29269
1.35487
1.36351
1.32987
1.325
1.35099
1.37595
1.39421
1.38305
1.4054
1.38263
1.35427
1.34003
1.3226
1.33613
1.35216
1.30965
1.37355
1.34801
1.35004
1.3872
1.3493
1.29359
1.28318
1.24607
1.23413
1.25139
1.2838
1.24137
1.1954
1.21303
1.27183
1.36559
1.31622
1.22167
1.27397
1.27078
1.29255
1.35228
1.39244
1.29828
1.32163
1.36809
1.46509
1.43329
1.2832
1.32592
1.35039
1.41039
1.40443
1.16725
1.21425
1.2496
1.23703
1.20065
1.17377
1.21641
1.2275
1.192
1.1926
1.19843
1.20289
1.20635
1.20704
1.19859
1.19921
1.19532
1.18156
1.19226
1.19037
1.18192
1.19638
1.19917
1.19547
1.1977
1.19451
1.19386
1.1948
1.19515
1.19242
1.19058
1.19215
1.19178
1.19105
1.19036
1.18998
1.19102
1.19481
1.19263
1.18907
1.18655
1.17869
1.17091
1.17409
1.17363
1.16764
1.17337
1.18044
1.18717
1.19099
1.1943
1.19414
1.18933
1.18584
1.1857
1.18838
1.18961
1.19093
1.19119
1.19332
1.19988
1.19279
1.20443
1.21671
1.20635
1.20541
1.19605
1.19422
1.22601
1.26035
1.26892
1.26846
1.27512
1.27579
1.2614
1.23351
1.21082
1.21368
1.23068
1.23534
1.22161
1.20484
1.19448
1.19568
1.20492
1.21419
1.22297
1.23066
1.23705
1.24329
1.24864
1.25447
1.2594
1.26212
1.25728
1.2442
1.23242
1.23386
1.249
1.27691
1.29637
1.30244
1.32114
1.30778
1.34191
1.27258
1.35394
1.28808
1.3113
1.29201
1.28755
1.27506
1.28254
1.26209
1.28561
1.28642
1.31806
1.31622
1.29954
1.26047
1.24019
1.2179
1.22599
1.22559
1.24899
1.26256
1.26967
1.26245
1.28598
1.26972
1.25277
1.26175
1.30381
1.33307
1.3241
1.32648
1.31944
1.34806
1.35157
1.36804
1.36929
1.34419
1.33342
1.33357
1.31514
1.35038
1.30053
1.3411
1.32628
1.29857
1.32865
1.30926
1.26994
1.27579
1.24894
1.2133
1.21196
1.23755
1.23167
1.16401
1.17066
1.25641
1.35511
1.35248
1.23771
1.25773
1.30287
1.28932
1.33418
1.40288
1.3309
1.28785
1.27957
1.39369
1.44942
1.301
1.29158
1.29427
1.38742
1.39576
1.16099
1.20512
1.24519
1.2503
1.21331
1.16779
1.20204
1.21971
1.18382
1.18255
1.18839
1.19326
1.19768
1.19537
1.18597
1.18176
1.18585
1.18283
1.18493
1.19272
1.19288
1.19369
1.19884
1.19569
1.19488
1.19341
1.19515
1.19979
1.19964
1.19415
1.19005
1.18911
1.18723
1.18587
1.18476
1.18525
1.18482
1.18572
1.18614
1.17783
1.17314
1.17003
1.16727
1.16474
1.16673
1.15809
1.15593
1.16253
1.17222
1.18329
1.18962
1.19069
1.18506
1.17872
1.17615
1.17984
1.18478
1.18756
1.19234
1.19088
1.1924
1.18495
1.19536
1.20541
1.18295
1.1888
1.19663
1.18628
1.2142
1.25499
1.26303
1.26482
1.27336
1.27032
1.24768
1.21936
1.21111
1.22358
1.22708
1.21056
1.1934
1.19141
1.20075
1.2138
1.22277
1.22452
1.2234
1.22244
1.22208
1.22296
1.22429
1.22831
1.23534
1.24441
1.24781
1.23893
1.22533
1.222
1.24005
1.25927
1.28651
1.28859
1.28958
1.26776
1.27891
1.23603
1.27808
1.24171
1.26076
1.26303
1.26744
1.25723
1.2759
1.26872
1.26234
1.25223
1.26586
1.27476
1.29368
1.27578
1.25806
1.23906
1.21875
1.20655
1.2137
1.21695
1.24038
1.24328
1.25009
1.2562
1.26418
1.24568
1.23052
1.2719
1.29143
1.31722
1.31049
1.312
1.32768
1.33323
1.33609
1.33175
1.32552
1.34697
1.30766
1.32385
1.28166
1.29723
1.29355
1.26299
1.28315
1.26389
1.2304
1.24239
1.21815
1.20071
1.23414
1.24588
1.21458
1.14273
1.15091
1.28638
1.35816
1.36046
1.29016
1.26702
1.33369
1.3292
1.32658
1.38321
1.37331
1.29789
1.23053
1.31221
1.43005
1.34405
1.29874
1.26521
1.32768
1.32163
1.15466
1.19901
1.24718
1.26023
1.22178
1.1746
1.20133
1.20348
1.17929
1.18529
1.19393
1.18105
1.17947
1.18422
1.18545
1.18905
1.1901
1.19185
1.18913
1.18963
1.19533
1.19373
1.19553
1.19361
1.19595
1.19985
1.2051
1.20787
1.20891
1.20321
1.19897
1.1973
1.19455
1.19066
1.1865
1.1856
1.18791
1.18413
1.18679
1.18055
1.17179
1.16313
1.16442
1.1628
1.16759
1.16752
1.15896
1.15532
1.15503
1.16491
1.1797
1.18528
1.17698
1.16766
1.16755
1.1753
1.18711
1.19458
1.20356
1.20361
1.2027
1.20417
1.2084
1.21234
1.18399
1.18941
1.21142
1.19274
1.20385
1.24391
1.25557
1.26049
1.27044
1.26392
1.23802
1.21442
1.21389
1.21772
1.20509
1.18875
1.18866
1.20088
1.20888
1.20761
1.20143
1.19561
1.1938
1.19747
1.20551
1.2144
1.22043
1.22625
1.23899
1.26046
1.27366
1.26494
1.24139
1.236
1.2607
1.29769
1.30722
1.31786
1.28797
1.27442
1.23712
1.24592
1.22303
1.22678
1.21683
1.22341
1.22969
1.22568
1.22832
1.24743
1.25093
1.25274
1.2497
1.25189
1.27048
1.2624
1.26134
1.24514
1.23161
1.21196
1.20717
1.19356
1.20698
1.21373
1.21784
1.2281
1.23192
1.25328
1.21437
1.23553
1.23092
1.26736
1.29135
1.27473
1.30608
1.31936
1.31439
1.31957
1.30288
1.32776
1.28349
1.2785
1.25152
1.24526
1.24662
1.22742
1.23878
1.22527
1.2061
1.2282
1.20779
1.19132
1.23799
1.23087
1.16162
1.14628
1.19626
1.34908
1.37218
1.36236
1.37744
1.33263
1.34614
1.38353
1.35051
1.35131
1.39338
1.33651
1.23439
1.2562
1.39073
1.36089
1.32614
1.28575
1.25238
1.17704
1.14702
1.18772
1.2479
1.26773
1.21866
1.16101
1.19941
1.2164
1.18557
1.17513
1.18356
1.18711
1.18754
1.18331
1.17943
1.1892
1.1883
1.18786
1.19544
1.19827
1.19512
1.19073
1.19533
1.19862
1.20129
1.20201
1.20144
1.20035
1.19872
1.19664
1.19577
1.19861
1.20029
1.19821
1.19453
1.18705
1.18639
1.18132
1.18093
1.18277
1.17879
1.16838
1.16134
1.15664
1.15387
1.15859
1.15912
1.15713
1.15384
1.1501
1.16357
1.18562
1.18948
1.17401
1.16626
1.17166
1.1838
1.19398
1.20089
1.20458
1.20794
1.21975
1.2187
1.21308
1.20575
1.21669
1.22181
1.19737
1.20745
1.23884
1.24886
1.25919
1.2659
1.25246
1.22568
1.2102
1.21319
1.2087
1.19261
1.18655
1.19353
1.19937
1.19358
1.18676
1.18613
1.19114
1.19684
1.20294
1.21257
1.22026
1.22071
1.21642
1.21847
1.24117
1.2606
1.25364
1.22821
1.21945
1.24224
1.27584
1.30157
1.28092
1.25109
1.23287
1.21004
1.21832
1.21358
1.22961
1.23994
1.23869
1.24575
1.24423
1.22644
1.24056
1.22067
1.23328
1.21779
1.21447
1.25168
1.2351
1.26078
1.23402
1.23346
1.21682
1.20827
1.18942
1.18979
1.19148
1.17979
1.20935
1.18677
1.23299
1.19886
1.22787
1.19
1.21556
1.25105
1.21558
1.25367
1.26681
1.26216
1.27066
1.24726
1.26595
1.24042
1.23714
1.22769
1.21242
1.21424
1.20598
1.20639
1.20458
1.20093
1.21127
1.2012
1.19966
1.24673
1.21762
1.1316
1.18113
1.29789
1.42656
1.36993
1.33988
1.44744
1.44049
1.34732
1.39898
1.38387
1.32248
1.38377
1.37507
1.2687
1.24468
1.35057
1.3432
1.33986
1.34013
1.27244
1.13302
1.13839
1.16999
1.23815
1.28365
1.23219
1.15476
1.16052
1.19762
1.187
1.17958
1.18386
1.18628
1.19408
1.1977
1.1857
1.18433
1.18775
1.18377
1.17633
1.17304
1.17696
1.18253
1.18963
1.19282
1.18979
1.18416
1.17948
1.18075
1.1854
1.18697
1.18996
1.19415
1.19922
1.19988
1.19995
1.19206
1.18396
1.18726
1.18365
1.18446
1.18026
1.17894
1.17144
1.16498
1.15717
1.15113
1.14982
1.14875
1.1502
1.14425
1.14142
1.16197
1.18228
1.17634
1.16739
1.17209
1.18224
1.19068
1.19562
1.20116
1.20952
1.22117
1.21973
1.21872
1.23165
1.23386
1.21116
1.19817
1.22456
1.24314
1.24512
1.25677
1.25867
1.23988
1.2152
1.20738
1.20986
1.20067
1.18708
1.18757
1.19437
1.19317
1.18638
1.18669
1.19508
1.20309
1.20104
1.19464
1.19838
1.20679
1.20996
1.20688
1.20003
1.22494
1.25664
1.26085
1.23408
1.22143
1.2553
1.29596
1.30052
1.27121
1.23071
1.19776
1.20435
1.1974
1.21876
1.22761
1.23893
1.25378
1.26314
1.28181
1.27086
1.27384
1.24627
1.25369
1.23295
1.20503
1.22879
1.2029
1.24243
1.21907
1.22703
1.21575
1.2071
1.19643
1.18505
1.18925
1.15694
1.19284
1.16376
1.19704
1.1819
1.21429
1.18147
1.19074
1.21816
1.18949
1.21513
1.21485
1.21536
1.21173
1.20154
1.21425
1.21041
1.21099
1.20731
1.19648
1.19613
1.19546
1.18685
1.1958
1.19625
1.19581
1.20111
1.21262
1.22269
1.18452
1.14416
1.23544
1.37965
1.49964
1.40143
1.3203
1.46923
1.50753
1.34848
1.38016
1.392
1.29679
1.35798
1.38863
1.30278
1.27147
1.32503
1.31476
1.34224
1.35447
1.35168
1.23863
1.13
1.14883
1.2018
1.27983
1.2632
1.18685
1.15891
1.18132
1.18578
1.17067
1.16679
1.16654
1.16999
1.17983
1.18258
1.18286
1.18295
1.18166
1.17923
1.17717
1.17743
1.1749
1.17338
1.17419
1.1751
1.16967
1.16474
1.17299
1.18565
1.18658
1.17958
1.17428
1.17937
1.19248
1.20207
1.21016
1.19814
1.19325
1.18485
1.18084
1.17346
1.16865
1.17266
1.16792
1.16598
1.15775
1.14802
1.1473
1.15023
1.14718
1.13528
1.1424
1.16791
1.17348
1.16591
1.17083
1.18093
1.18783
1.19356
1.20028
1.20912
1.21848
1.22557
1.23304
1.23884
1.22536
1.20549
1.21438
1.23897
1.24224
1.24578
1.25649
1.25077
1.22886
1.20948
1.20591
1.20495
1.1917
1.18091
1.18368
1.18724
1.18143
1.17552
1.17915
1.1922
1.20019
1.1997
1.20168
1.2122
1.21876
1.22611
1.22896
1.21303
1.22753
1.25732
1.26489
1.23146
1.2165
1.24704
1.28911
1.28799
1.25183
1.22027
1.20643
1.21604
1.23555
1.25208
1.26603
1.26397
1.27277
1.27003
1.26927
1.27502
1.28484
1.2735
1.26999
1.25999
1.23387
1.22937
1.19291
1.22198
1.20119
1.21068
1.20354
1.19996
1.19576
1.18185
1.19306
1.15425
1.17809
1.16042
1.16635
1.1725
1.18667
1.17836
1.18249
1.18985
1.1878
1.19399
1.1931
1.19647
1.18256
1.18821
1.18693
1.18968
1.1894
1.19007
1.18393
1.18731
1.18769
1.17928
1.1917
1.18945
1.186
1.20411
1.21337
1.18154
1.16742
1.19716
1.30806
1.41099
1.51895
1.44668
1.35241
1.46884
1.47533
1.33306
1.35455
1.37233
1.27612
1.33256
1.37034
1.32029
1.30608
1.30683
1.29925
1.35015
1.3187
1.35086
1.29633
1.1235
1.13238
1.15896
1.23721
1.26871
1.21644
1.16812
1.16445
1.18841
1.1948
1.19103
1.18622
1.17963
1.17712
1.17575
1.17584
1.1749
1.17651
1.17841
1.17879
1.18092
1.18307
1.18312
1.18138
1.17525
1.16154
1.14772
1.15093
1.1733
1.19027
1.18621
1.17174
1.1586
1.16551
1.17753
1.19369
1.20024
1.19219
1.1842
1.17625
1.17819
1.16526
1.16775
1.16067
1.15511
1.15748
1.14584
1.13677
1.14516
1.15069
1.13657
1.12972
1.15182
1.16878
1.1639
1.16612
1.17714
1.18342
1.18878
1.19654
1.20622
1.21588
1.22561
1.23177
1.22836
1.22109
1.22256
1.23375
1.23818
1.23636
1.24564
1.25168
1.2375
1.21309
1.19987
1.20253
1.20181
1.18847
1.17873
1.18246
1.18384
1.17391
1.16614
1.17345
1.19131
1.20118
1.20123
1.20573
1.21379
1.20763
1.21649
1.23006
1.21409
1.21231
1.23432
1.24975
1.22212
1.20167
1.24198
1.27731
1.27154
1.22841
1.19646
1.19799
1.21578
1.23382
1.24855
1.25674
1.2705
1.27137
1.28463
1.28053
1.26817
1.27102
1.27692
1.27137
1.27072
1.26207
1.24352
1.20303
1.21033
1.18919
1.19488
1.18456
1.1889
1.18364
1.17642
1.19121
1.15675
1.17012
1.15518
1.15013
1.16447
1.1601
1.16903
1.16738
1.16688
1.1804
1.17375
1.18164
1.17866
1.16962
1.17888
1.16772
1.17653
1.17463
1.17548
1.17347
1.17751
1.17327
1.17765
1.1892
1.18476
1.1881
1.20924
1.19755
1.15067
1.17357
1.26074
1.37506
1.45389
1.52284
1.4316
1.37277
1.43313
1.38288
1.30238
1.33755
1.3492
1.27241
1.31864
1.34034
1.33565
1.32289
1.29259
1.31607
1.35665
1.27917
1.30493
1.27363
1.11895
1.12223
1.1305
1.17962
1.22913
1.2145
1.17361
1.1428
1.14053
1.15525
1.16808
1.17705
1.17954
1.1814
1.18011
1.17596
1.17181
1.16748
1.16368
1.16346
1.16285
1.16469
1.16548
1.16167
1.16762
1.17641
1.17129
1.1573
1.14791
1.15315
1.16456
1.17249
1.1707
1.16922
1.18574
1.19353
1.19715
1.19139
1.18655
1.17427
1.17189
1.16681
1.16464
1.16685
1.15425
1.15078
1.1444
1.13364
1.13029
1.1449
1.1409
1.12492
1.13627
1.1598
1.16261
1.16218
1.17213
1.17999
1.18444
1.19094
1.19921
1.20827
1.21687
1.22286
1.2233
1.22322
1.22918
1.23415
1.23209
1.23393
1.24355
1.24498
1.22811
1.20468
1.1947
1.19751
1.19768
1.18549
1.17565
1.17978
1.1835
1.1727
1.1602
1.16592
1.18127
1.1895
1.18596
1.19068
1.19821
1.18949
1.2086
1.23819
1.23409
1.22089
1.23433
1.26084
1.23629
1.21845
1.2522
1.28789
1.26836
1.23049
1.20885
1.2131
1.22706
1.24106
1.24633
1.24515
1.25085
1.24568
1.25438
1.26218
1.25998
1.25066
1.24907
1.24649
1.25157
1.26307
1.26085
1.23467
1.21453
1.19164
1.18462
1.16896
1.17305
1.16391
1.16811
1.17849
1.15749
1.16415
1.1461
1.14567
1.14978
1.14252
1.15434
1.1451
1.15229
1.16032
1.15319
1.16665
1.1573
1.15776
1.16326
1.15359
1.1677
1.16065
1.16108
1.16863
1.16581
1.16988
1.18196
1.17708
1.18089
1.19442
1.19743
1.17453
1.14527
1.20744
1.32677
1.4086
1.49332
1.52783
1.40044
1.34668
1.35328
1.29847
1.27595
1.32884
1.3348
1.28787
1.31445
1.31018
1.34354
1.3078
1.30699
1.35014
1.32769
1.26533
1.29342
1.26917
1.11612
1.11743
1.11823
1.13559
1.16684
1.17017
1.15175
1.13063
1.11676
1.1179
1.1273
1.13927
1.14891
1.15784
1.16364
1.16846
1.17184
1.16822
1.16668
1.16412
1.15941
1.16326
1.16581
1.16242
1.16319
1.16609
1.16999
1.17521
1.16951
1.16322
1.17027
1.1708
1.17326
1.17241
1.17344
1.17712
1.17379
1.1688
1.16497
1.16459
1.15813
1.16081
1.15641
1.15728
1.14739
1.14176
1.13268
1.13448
1.131
1.13062
1.14077
1.12697
1.12222
1.14557
1.158
1.15775
1.16634
1.17529
1.17881
1.18422
1.19258
1.20056
1.20714
1.21202
1.21697
1.2201
1.22129
1.22235
1.22479
1.23188
1.23918
1.2353
1.21703
1.19744
1.19107
1.19448
1.19487
1.18358
1.17022
1.17231
1.18212
1.17927
1.17095
1.17071
1.17926
1.18989
1.18874
1.19462
1.20034
1.19032
1.20739
1.23686
1.24567
1.22098
1.22596
1.25894
1.22543
1.20338
1.24864
1.27836
1.25276
1.20558
1.19386
1.2044
1.21756
1.22964
1.24135
1.25468
1.26091
1.2653
1.26688
1.26111
1.26349
1.25647
1.24531
1.23027
1.2249
1.23041
1.24778
1.24851
1.22558
1.20754
1.18306
1.16632
1.15886
1.15041
1.15735
1.15947
1.15844
1.15395
1.14367
1.14125
1.13687
1.13489
1.13783
1.12957
1.13826
1.137
1.13803
1.14691
1.13704
1.14807
1.14824
1.1436
1.15813
1.14732
1.15267
1.16507
1.15237
1.17361
1.17733
1.16657
1.19005
1.19199
1.1673
1.16721
1.16598
1.24907
1.36174
1.40817
1.48779
1.50029
1.38051
1.32848
1.29628
1.25373
1.25974
1.31176
1.31857
1.30017
1.30211
1.30066
1.3395
1.28253
1.34857
1.36007
1.27994
1.27226
1.29938
1.29936
1.11534
1.11761
1.11619
1.11642
1.12555
1.12822
1.12002
1.10929
1.10303
1.10698
1.11699
1.12923
1.14046
1.14897
1.1583
1.16592
1.16893
1.17014
1.1766
1.17246
1.16713
1.17236
1.17082
1.16722
1.16435
1.1599
1.16287
1.16316
1.16041
1.16645
1.1768
1.17722
1.16365
1.16154
1.16013
1.15758
1.15357
1.15196
1.15052
1.15412
1.15302
1.15458
1.15129
1.14794
1.14695
1.13971
1.13697
1.12488
1.12965
1.12349
1.12518
1.13214
1.11687
1.12564
1.1502
1.15379
1.158
1.16901
1.17448
1.17772
1.18384
1.1914
1.19818
1.20283
1.20597
1.21085
1.21366
1.21353
1.21491
1.22183
1.22751
1.22257
1.20499
1.18819
1.18377
1.18807
1.19059
1.18294
1.16723
1.16179
1.17
1.17724
1.17959
1.17951
1.17855
1.18494
1.18181
1.18376
1.19009
1.18482
1.19342
1.22537
1.25646
1.23217