/*--------------------------------*- C++ -*----------------------------------*\
| =========                 |                                                 |
| \\      /  F ield         | OpenFOAM: The Open Source CFD Toolbox           |
|  \\    /   O peration     | Version:  dev                                   |
|   \\  /    A nd           | Web:      http://www.openfoam.org               |
|    \\/     M anipulation  |                                                 |
\*---------------------------------------------------------------------------*/
FoamFile
{
    version     2.0;
    format      ascii;
    class       volScalarField;
    object      rho_0;
    location    "9.127";
}
// * * * * * * * * * * * * * * * * * * * * * * * * * * * * * * * * * * * * * //

dimensions      [1 -3 0 0 0 0 0];

internalField   nonuniform List<scalar> 
12225
(
1.14736
1.14466
1.14445
1.14433
1.1442
1.14372
1.14253
1.14195
1.13989
1.13942
1.13659
1.13679
1.133
1.13388
1.12953
1.1303
1.13141
1.12009
1.14517
1.14425
1.14614
1.14789
1.14813
1.15014
1.14798
1.15004
1.146
1.14852
1.1428
1.14684
1.13989
1.14413
1.13899
1.1421
1.14303
1.12935
1.14488
1.14493
1.14628
1.14909
1.14927
1.15208
1.15112
1.15338
1.15161
1.15273
1.15059
1.15065
1.149
1.14755
1.14834
1.14626
1.1447
1.12957
1.1449
1.14472
1.14714
1.14797
1.15051
1.14986
1.15234
1.15059
1.15337
1.15038
1.15286
1.14942
1.15153
1.1477
1.14954
1.14741
1.14749
1.13148
1.14649
1.14387
1.14874
1.14685
1.15118
1.14873
1.15212
1.14934
1.1525
1.14985
1.1521
1.14962
1.15127
1.1487
1.14971
1.14879
1.14861
1.13462
1.14806
1.14363
1.15015
1.14698
1.15206
1.14897
1.15238
1.14987
1.15315
1.15051
1.15296
1.14994
1.15198
1.14856
1.14992
1.14715
1.14723
1.14112
1.14937
1.14395
1.15119
1.14697
1.15245
1.14912
1.15307
1.15082
1.15407
1.15117
1.15324
1.15009
1.15165
1.14844
1.14872
1.14633
1.14613
1.14586
1.15066
1.14444
1.15252
1.14764
1.15313
1.14944
1.15394
1.15136
1.15486
1.15176
1.15354
1.15019
1.15148
1.14871
1.14922
1.14741
1.1471
1.14639
1.15171
1.14535
1.15361
1.14888
1.15394
1.15039
1.15533
1.15246
1.15589
1.15294
1.15446
1.15073
1.1523
1.14954
1.15067
1.14864
1.14906
1.14739
1.15262
1.14695
1.15456
1.15058
1.15488
1.15181
1.15634
1.15399
1.15632
1.15418
1.15467
1.15163
1.15254
1.15049
1.15078
1.14914
1.14921
1.14799
1.15421
1.14936
1.15566
1.15217
1.15601
1.15378
1.15692
1.15499
1.15638
1.15431
1.15398
1.15194
1.15183
1.15044
1.15021
1.14894
1.14781
1.14707
1.15598
1.15219
1.15667
1.15492
1.15708
1.15555
1.15712
1.15561
1.15592
1.15426
1.15354
1.15223
1.15146
1.15076
1.14927
1.14823
1.14702
1.14578
1.15881
1.15578
1.15827
1.15752
1.15862
1.15789
1.158
1.15694
1.15607
1.15469
1.15367
1.15248
1.15096
1.15015
1.14862
1.14713
1.14572
1.14459
1.16232
1.16004
1.1616
1.1613
1.1613
1.16049
1.15967
1.15845
1.15731
1.15588
1.15427
1.15272
1.15115
1.1498
1.1481
1.1466
1.14467
1.14316
1.16812
1.16559
1.16623
1.16576
1.16502
1.16407
1.16263
1.16126
1.15956
1.15773
1.15582
1.15394
1.15199
1.15019
1.14831
1.14652
1.14459
1.14296
1.17554
1.1727
1.17281
1.17184
1.17046
1.16908
1.16725
1.1655
1.16344
1.16134
1.15913
1.15683
1.15462
1.15242
1.15027
1.14817
1.14601
1.1438
1.18532
1.18161
1.18152
1.18022
1.17849
1.17662
1.17446
1.17218
1.16979
1.16731
1.16487
1.16238
1.15997
1.15759
1.15522
1.15284
1.15051
1.14826
1.19571
1.19205
1.19206
1.19078
1.18893
1.18675
1.18438
1.18181
1.17938
1.17676
1.17434
1.17178
1.1693
1.16677
1.1643
1.16191
1.15953
1.15725
1.20657
1.20274
1.20276
1.20143
1.19958
1.19763
1.19544
1.19309
1.1909
1.18838
1.18614
1.18358
1.18132
1.17882
1.17644
1.17409
1.17186
1.16979
1.21534
1.21162
1.21197
1.21087
1.20942
1.20785
1.20601
1.20403
1.2021
1.19988
1.19785
1.19558
1.19361
1.19135
1.1892
1.18701
1.18494
1.18307
1.22281
1.21927
1.21986
1.21909
1.21807
1.21674
1.21538
1.21374
1.21227
1.21046
1.20879
1.20704
1.20528
1.20348
1.20151
1.19959
1.19763
1.19584
1.22913
1.22572
1.22687
1.22653
1.22582
1.2248
1.22363
1.22232
1.22109
1.21959
1.21826
1.21683
1.2154
1.21388
1.21227
1.21054
1.20888
1.20713
1.23328
1.23037
1.23187
1.23176
1.23143
1.23081
1.22998
1.22918
1.2282
1.22714
1.22603
1.22482
1.22361
1.22221
1.22084
1.21932
1.21792
1.21631
1.2369
1.23414
1.23573
1.23605
1.23611
1.23586
1.23537
1.23467
1.23393
1.23292
1.23193
1.23078
1.22968
1.22843
1.2272
1.22593
1.22453
1.22316
1.23998
1.2372
1.23893
1.23926
1.23933
1.23916
1.23886
1.23838
1.2379
1.23727
1.23652
1.23568
1.23467
1.23354
1.2323
1.23093
1.22948
1.22791
1.24165
1.23894
1.2409
1.24135
1.24146
1.24134
1.24114
1.24079
1.24046
1.23996
1.23938
1.23862
1.23779
1.23675
1.23564
1.2344
1.23309
1.23172
1.24296
1.24043
1.24243
1.24294
1.24319
1.24315
1.2431
1.24284
1.24263
1.24224
1.24189
1.2414
1.24096
1.24043
1.2398
1.23904
1.23821
1.23722
1.244
1.24135
1.24336
1.24396
1.24434
1.24454
1.24475
1.24481
1.24498
1.24497
1.24507
1.24504
1.24513
1.24495
1.24476
1.24418
1.24362
1.24268
1.24449
1.24146
1.24366
1.24445
1.24502
1.2455
1.2459
1.24618
1.2463
1.24614
1.24589
1.24537
1.24471
1.24373
1.24264
1.24111
1.2396
1.23774
1.24736
1.24301
1.24344
1.24306
1.2426
1.24187
1.24087
1.23962
1.23813
1.23647
1.23473
1.23282
1.23082
1.22865
1.22642
1.22401
1.22165
1.21979
1.21685
1.25022
1.23961
1.22734
1.22069
1.21974
1.21783
1.21833
1.21678
1.21565
1.21405
1.21197
1.20969
1.20716
1.20487
1.2026
1.20061
1.19881
1.19712
1.19548
1.19425
1.19334
1.19253
1.19173
1.19116
1.19077
1.19029
1.18973
1.18922
1.18866
1.18797
1.18761
1.18743
1.18696
1.18642
1.18612
1.18602
1.18645
1.18693
1.18741
1.18767
1.1878
1.18767
1.18726
1.18696
1.18688
1.18731
1.18775
1.18715
1.18612
1.18603
1.18579
1.18314
1.17862
1.17528
1.17493
1.17714
1.18018
1.18368
1.18791
1.18973
1.18838
1.18845
1.19276
1.19853
1.20262
1.20597
1.20919
1.21281
1.2179
1.22205
1.22434
1.22616
1.22978
1.23326
1.23236
1.22293
1.20931
1.20672
1.22028
1.23988
1.2567
1.26969
1.28013
1.28916
1.29669
1.30354
1.31032
1.31662
1.32284
1.32943
1.33587
1.34077
1.34377
1.34711
1.35454
1.36453
1.3706
1.37351
1.37887
1.38137
1.38444
1.39525
1.39355
1.40209
1.40367
1.40832
1.41116
1.41383
1.41583
1.41676
1.41739
1.41613
1.41493
1.41054
1.40703
1.4016
1.39696
1.39232
1.39321
1.38894
1.38382
1.38084
1.38278
1.3823
1.37888
1.37544
1.37653
1.37456
1.37049
1.36637
1.3638
1.36304
1.36759
1.375
1.38788
1.39262
1.39954
1.40627
1.41662
1.42504
1.4331
1.44295
1.4447
1.45435
1.45119
1.45787
1.45421
1.45726
1.4539
1.45554
1.4527
1.45345
1.45066
1.44964
1.44645
1.44153
1.44221
1.43989
1.43359
1.43378
1.43097
1.43125
1.42992
1.43279
1.43454
1.43811
1.44057
1.44235
1.44189
1.44552
1.43971
1.44295
1.42739
1.4032
1.3651
1.33753
1.33602
1.3277
1.30734
1.21563
1.24331
1.21919
1.20316
1.19199
1.19683
1.19765
1.19908
1.19994
1.20036
1.20056
1.20034
1.20014
1.20006
1.20026
1.20093
1.20143
1.2015
1.20163
1.20248
1.20373
1.20425
1.20448
1.20476
1.20524
1.20514
1.20443
1.20377
1.20318
1.20224
1.20127
1.20143
1.20153
1.20044
1.19914
1.19893
1.1984
1.19889
1.19892
1.19932
1.19911
1.19952
1.2002
1.20042
1.20023
1.19867
1.19844
1.20235
1.20459
1.20149
1.19782
1.19955
1.20005
1.1968
1.19537
1.19775
1.19711
1.18535
1.18132
1.19432
1.21028
1.21737
1.21578
1.21698
1.22294
1.23031
1.23312
1.22716
1.22302
1.22996
1.24093
1.2522
1.26276
1.26081
1.24989
1.25414
1.27603
1.29667
1.3126
1.32658
1.33756
1.34511
1.34894
1.34965
1.34951
1.34782
1.34555
1.34448
1.34442
1.34648
1.3513
1.35393
1.34836
1.33603
1.32941
1.34189
1.36777
1.38222
1.38071
1.38458
1.37535
1.36346
1.42502
1.38034
1.4156
1.4087
1.43006
1.43444
1.44706
1.45172
1.46424
1.47374
1.48577
1.4974
1.50478
1.51088
1.51407
1.52064
1.51675
1.51368
1.5144
1.51505
1.50034
1.49158
1.49465
1.50334
1.5025
1.50077
1.48686
1.45962
1.43326
1.41494
1.39832
1.3976
1.41076
1.43868
1.44563
1.45605
1.46724
1.49219
1.50079
1.51298
1.52791
1.52331
1.54073
1.53101
1.54178
1.53608
1.53812
1.53285
1.5292
1.52472
1.5123
1.50833
1.48047
1.50349
1.47314
1.46462
1.48085
1.45528
1.4615
1.45379
1.4524
1.4535
1.4703
1.48896
1.5048
1.52536
1.54117
1.54532
1.56819
1.57359
1.61725
1.60587
1.58882
1.51222
1.43125
1.41239
1.43308
1.41868
1.20461
1.22036
1.18627
1.18823
1.18331
1.18383
1.18661
1.18887
1.18996
1.19286
1.19718
1.20004
1.20532
1.21379
1.21529
1.21537
1.21639
1.21578
1.21595
1.21365
1.21241
1.21082
1.20951
1.20763
1.20561
1.20343
1.20135
1.19953
1.19813
1.1976
1.19771
1.19709
1.19556
1.19439
1.19419
1.1936
1.19256
1.19174
1.19092
1.1908
1.19025
1.19029
1.19102
1.19271
1.19381
1.1923
1.19271
1.1963
1.19604
1.19447
1.192
1.19057
1.19703
1.19934
1.19846
1.19923
1.19832
1.20089
1.19923
1.19463
1.19916
1.19931
1.20691
1.22204
1.22456
1.23039
1.22745
1.21126
1.21114
1.22877
1.25219
1.26756
1.2735
1.27745
1.28832
1.30252
1.31141
1.31415
1.31398
1.31351
1.31167
1.30725
1.30023
1.29197
1.28351
1.27389
1.26496
1.25909
1.25529
1.25316
1.25382
1.25546
1.25283
1.24628
1.242
1.24894
1.26611
1.28113
1.28579
1.28611
1.27614
1.27069
1.30932
1.27544
1.29411
1.28774
1.30469
1.3049
1.3144
1.31111
1.3244
1.33174
1.34828
1.367
1.38799
1.40204
1.42837
1.46134
1.50169
1.52329
1.51786
1.50732
1.51266
1.5215
1.51578
1.52313
1.55375
1.5747
1.54869
1.49333
1.4393
1.41592
1.39769
1.40464
1.42472
1.45785
1.47471
1.48892
1.49508
1.51568
1.5177
1.52044
1.53121
1.52276
1.53229
1.5301
1.5277
1.53845
1.52631
1.5348
1.51352
1.51225
1.47779
1.47721
1.39403
1.46417
1.43123
1.38383
1.4307
1.39832
1.41949
1.42662
1.4138
1.40945
1.39479
1.41545
1.4457
1.48659
1.54527
1.57171
1.57598
1.56398
1.57998
1.5903
1.60968
1.5105
1.46695
1.44275
1.44225
1.4962
1.19327
1.21643
1.17869
1.18443
1.18682
1.17945
1.18311
1.19566
1.20143
1.20604
1.22227
1.23435
1.2198
1.20885
1.2194
1.20997
1.20718
1.20885
1.20476
1.20883
1.20452
1.20542
1.20192
1.19877
1.196
1.19407
1.19362
1.19298
1.19269
1.19265
1.19308
1.19354
1.19354
1.19276
1.19162
1.19001
1.18925
1.18756
1.18639
1.18603
1.18654
1.18576
1.18402
1.18283
1.1842
1.184
1.18634
1.1949
1.19488
1.19267
1.19888
1.18982
1.18933
1.20119
1.19456
1.19229
1.19638
1.19753
1.19609
1.19455
1.20395
1.20626
1.20092
1.19985
1.20987
1.22942
1.21294
1.19287
1.21964
1.25977
1.28204
1.2902
1.29609
1.30316
1.30741
1.30655
1.3042
1.30155
1.29881
1.29581
1.29142
1.28612
1.28003
1.27465
1.26847
1.26021
1.25225
1.24857
1.24998
1.25265
1.25455
1.25822
1.26239
1.26866
1.27605
1.28286
1.28742
1.29273
1.29974
1.30249
1.30368
1.31518
1.31134
1.30374
1.31084
1.31187
1.3166
1.31361
1.30899
1.29672
1.29739
1.29442
1.29468
1.29814
1.32276
1.31682
1.3109
1.32719
1.36435
1.40237
1.43832
1.42392
1.4178
1.45739
1.47223
1.46796
1.51307
1.56707
1.55562
1.48961
1.43906
1.41749
1.40103
1.41779
1.42358
1.44217
1.47145
1.48592
1.48711
1.50135
1.50632
1.50736
1.51216
1.50635
1.50106
1.5096
1.48743
1.5077
1.48814
1.50524
1.48636
1.48502
1.43286
1.47208
1.36577
1.38505
1.40022
1.34363
1.36962
1.33966
1.34757
1.40593
1.39574
1.41633
1.40252
1.37129
1.3898
1.41118
1.45001
1.53294
1.58014
1.57535
1.49515
1.50703
1.5385
1.46208
1.47974
1.49277
1.43632
1.4902
1.18357
1.22174
1.18427
1.17044
1.17191
1.17844
1.19403
1.20574
1.21017
1.21884
1.21133
1.19978
1.21274
1.20564
1.19491
1.21124
1.20607
1.21015
1.21212
1.20643
1.20732
1.19775
1.19623
1.19131
1.19084
1.19064
1.18948
1.1895
1.1896
1.1905
1.19163
1.19256
1.19224
1.19149
1.19073
1.18925
1.18565
1.18267
1.17996
1.17861
1.18121
1.18293
1.1813
1.17593
1.17432
1.17497
1.18041
1.18952
1.19211
1.19154
1.19273
1.17694
1.17958
1.20168
1.18933
1.18359
1.18736
1.18511
1.19718
1.20037
1.19828
1.20059
1.19844
1.19748
1.20838
1.21632
1.19424
1.19388
1.23559
1.2735
1.2915
1.29914
1.30205
1.3004
1.29704
1.29483
1.29327
1.28933
1.28191
1.27417
1.26773
1.2599
1.25285
1.24894
1.24532
1.24071
1.23655
1.23716
1.24107
1.24523
1.25066
1.25664
1.26095
1.26465
1.26839
1.27307
1.27825
1.28199
1.28106
1.28402
1.29014
1.30476
1.30747
1.3015
1.31747
1.32382
1.33249
1.33373
1.32342
1.30959
1.30789
1.29908
1.30162
1.29745
1.29085
1.30654
1.32919
1.3177
1.32275
1.32705
1.35342
1.38018
1.36051
1.34419
1.37412
1.38569
1.41034
1.4833
1.52196
1.50789
1.46582
1.41681
1.38422
1.40914
1.44365
1.45299
1.45707
1.46973
1.47176
1.48504
1.50071
1.49827
1.48925
1.49779
1.48071
1.49621
1.48299
1.47476
1.46428
1.45312
1.43476
1.45582
1.37745
1.44012
1.41019
1.34177
1.34789
1.35051
1.34683
1.34315
1.30948
1.35753
1.34364
1.33908
1.3922
1.36826
1.36028
1.40059
1.38709
1.43422
1.50383
1.6011
1.51241
1.48157
1.47462
1.44571
1.46608
1.50671
1.46461
1.44577
1.17478
1.22737
1.20318
1.17506
1.17233
1.1714
1.19579
1.22191
1.21967
1.21588
1.20222
1.20508
1.21246
1.20614
1.20969
1.21716
1.20762
1.20904
1.20607
1.19319
1.19353
1.18664
1.18431
1.18535
1.18343
1.18419
1.18325
1.18155
1.18255
1.18343
1.18369
1.18504
1.18625
1.18734
1.18686
1.18516
1.18229
1.18069
1.17997
1.17828
1.17897
1.18218
1.18363
1.17572
1.16854
1.16742
1.17544
1.18543
1.18664
1.18444
1.18511
1.1841
1.1862
1.18565
1.17203
1.18223
1.18594
1.17274
1.18031
1.17988
1.1895
1.20994
1.21029
1.20454
1.20648
1.21213
1.19703
1.18806
1.2242
1.26955
1.2909
1.29323
1.28944
1.2847
1.28195
1.28135
1.27537
1.26044
1.24453
1.23774
1.23612
1.23411
1.23467
1.2378
1.24121
1.24404
1.24705
1.25222
1.25554
1.25812
1.2603
1.25977
1.25834
1.25776
1.25666
1.25478
1.25661
1.26446
1.2703
1.28141
1.28815
1.29052
1.31378
1.31136
1.33016
1.33013
1.35383
1.34251
1.34862
1.33588
1.3321
1.33294
1.31902
1.30641
1.30196
1.27801
1.27238
1.28258
1.30387
1.31121
1.30889
1.33993
1.34524
1.32386
1.32474
1.34967
1.31808
1.33203
1.42337
1.48109
1.46265
1.42081
1.38801
1.39288
1.41873
1.43592
1.42577
1.44484
1.46552
1.47656
1.47864
1.48468
1.44959
1.45208
1.4582
1.45992
1.48726
1.48243
1.46682
1.46205
1.41182
1.42035
1.37828
1.37166
1.38157
1.35302
1.30845
1.31421
1.30603
1.34819
1.35358
1.37407
1.36817
1.29167
1.3262
1.35365
1.32371
1.39462
1.39463
1.39443
1.3921
1.53607
1.53909
1.50746
1.44041
1.40823
1.4324
1.47973
1.48226
1.41053
1.16657
1.22334
1.22474
1.20136
1.18453
1.16619
1.19626
1.23393
1.21899
1.20295
1.19792
1.20178
1.19876
1.19938
1.2008
1.20236
1.20385
1.18815
1.19261
1.19144
1.18166
1.18218
1.18453
1.18948
1.18429
1.18211
1.18282
1.18269
1.18092
1.18328
1.18164
1.18278
1.18372
1.18462
1.18412
1.18205
1.17885
1.17775
1.1787
1.17779
1.17224
1.1711
1.17619
1.17622
1.16851
1.16895
1.17534
1.18338
1.18482
1.18293
1.18394
1.18919
1.19184
1.18828
1.18134
1.1838
1.17765
1.17292
1.18211
1.17758
1.18939
1.19761
1.1883
1.19448
1.20497
1.21233
1.20349
1.19581
1.22631
1.26679
1.28189
1.2798
1.27668
1.27627
1.27616
1.2702
1.25096
1.2271
1.2175
1.22472
1.23473
1.24086
1.24387
1.24419
1.24255
1.23943
1.23584
1.23324
1.22939
1.22788
1.22846
1.23028
1.23348
1.23766
1.23948
1.24094
1.24286
1.24413
1.25024
1.26429
1.28525
1.28342
1.30145
1.29814
1.31617
1.28783
1.34067
1.29344
1.34178
1.34292
1.35185
1.35511
1.36936
1.36849
1.35952
1.33712
1.30184
1.28094
1.26181
1.26746
1.28644
1.28568
1.30232
1.33419
1.30676
1.30756
1.34068
1.30414
1.2856
1.34317
1.41956
1.42526
1.37812
1.367
1.39542
1.42704
1.42771
1.42287
1.42693
1.45145
1.43435
1.43582
1.40862
1.38348
1.40536
1.40277
1.40619
1.4653
1.42696
1.44426
1.44136
1.39422
1.369
1.35797
1.33093
1.34138
1.33481
1.32049
1.25939
1.26158
1.30541
1.35744
1.411
1.32259
1.28318
1.34037
1.30858
1.36853
1.41163
1.41672
1.34231
1.43126
1.49234
1.53069
1.43886
1.34803
1.39905
1.42609
1.46462
1.43124
1.15941
1.21258
1.23564
1.21375
1.18432
1.16487
1.19025
1.21511
1.20315
1.19343
1.19379
1.1967
1.19893
1.20695
1.20546
1.19453
1.19521
1.18893
1.1871
1.17685
1.1808
1.18979
1.1769
1.18396
1.18781
1.17962
1.18013
1.18098
1.18144
1.17978
1.17955
1.17878
1.17804
1.17685
1.17628
1.17521
1.17559
1.1807
1.18326
1.18434
1.17856
1.16998
1.16847
1.17457
1.16928
1.1676
1.17266
1.17842
1.18311
1.18563
1.18617
1.18488
1.18741
1.19121
1.19052
1.186
1.17912
1.17966
1.18197
1.18058
1.19272
1.1918
1.19279
1.21007
1.2173
1.21786
1.20385
1.19702
1.22554
1.26484
1.27755
1.2739
1.27508
1.27734
1.27258
1.25427
1.22701
1.21151
1.22027
1.23848
1.24683
1.24247
1.23104
1.2194
1.21309
1.2107
1.21182
1.21557
1.22041
1.22787
1.23646
1.24644
1.25612
1.26423
1.26725
1.26823
1.26749
1.26981
1.27711
1.28932
1.29467
1.33312
1.31187
1.31535
1.33164
1.27685
1.34175
1.25903
1.30566
1.29806
1.29492
1.29598
1.30816
1.32461
1.35033
1.35406
1.35346
1.30594
1.28224
1.25007
1.24511
1.25359
1.26352
1.27056
1.30534
1.28921
1.29071
1.31602
1.30626
1.26379
1.29421
1.35923
1.38553
1.36004
1.34952
1.37263
1.39878
1.42628
1.41639
1.44047
1.42332
1.39046
1.38073
1.36825
1.37579
1.40132
1.34729
1.41159
1.38999
1.384
1.43007
1.39394
1.33387
1.32626
1.28685
1.26743
1.28796
1.32643
1.28784
1.2287
1.24541
1.31811
1.4191
1.37187
1.26728
1.32009
1.32824
1.3413
1.40408
1.44562
1.34497
1.3525
1.39151
1.498
1.46927
1.30862
1.35158
1.37119
1.43618
1.42876
1.15287
1.19956
1.23423
1.2217
1.18618
1.15883
1.20006
1.21348
1.17914
1.17821
1.18369
1.18814
1.19173
1.19334
1.18516
1.18555
1.1828
1.1682
1.17806
1.17739
1.16798
1.18177
1.18558
1.18239
1.18493
1.18201
1.18119
1.18205
1.18296
1.18091
1.17917
1.18091
1.18115
1.1808
1.18046
1.18021
1.18126
1.18583
1.18469
1.18212
1.18026
1.1729
1.16477
1.1682
1.16841
1.16274
1.16828
1.17558
1.18262
1.18656
1.19015
1.1907
1.18676
1.18369
1.18351
1.18604
1.18719
1.18874
1.18912
1.19122
1.19852
1.19154
1.20266
1.21571
1.20585
1.20504
1.19586
1.19297
1.22371
1.25887
1.26878
1.26853
1.27538
1.27725
1.26444
1.23721
1.21341
1.21479
1.23199
1.23837
1.22596
1.20944
1.19868
1.19936
1.20865
1.21838
1.22769
1.23594
1.24287
1.24967
1.25557
1.26193
1.26736
1.27058
1.26621
1.25352
1.24204
1.24379
1.25923
1.28757
1.30672
1.3136
1.3317
1.31915
1.35095
1.28328
1.36439
1.29561
1.32062
1.29938
1.29503
1.28238
1.28925
1.26807
1.29071
1.29031
1.32206
1.32114
1.30634
1.26857
1.24825
1.22449
1.23046
1.22827
1.24969
1.26569
1.27629
1.26761
1.29515
1.28643
1.26637
1.26387
1.30116
1.34452
1.34185
1.34632
1.33465
1.36068
1.37122
1.38618
1.3939
1.37525
1.36676
1.37565
1.34785
1.3846
1.33483
1.36715
1.35685
1.32319
1.35063
1.33372
1.29846
1.30908
1.28306
1.24666
1.25039
1.27236
1.26409
1.1914
1.20246
1.30835
1.40281
1.39964
1.28986
1.30451
1.36077
1.34254
1.38072
1.44663
1.38092
1.32123
1.30059
1.4172
1.48127
1.33371
1.3172
1.31472
1.40801
1.40778
1.14761
1.19131
1.23059
1.2355
1.19959
1.15385
1.18712
1.20682
1.17151
1.16885
1.17431
1.17951
1.18438
1.18284
1.17356
1.16866
1.1727
1.1696
1.17137
1.17931
1.17961
1.18057
1.18614
1.18353
1.18283
1.18113
1.18229
1.18707
1.18791
1.18323
1.17916
1.17847
1.17708
1.17618
1.17546
1.17628
1.17608
1.17769
1.17895
1.17168
1.16743
1.16468
1.16171
1.15945
1.162
1.15376
1.15162
1.15833
1.16849
1.17984
1.18654
1.18841
1.18373
1.17776
1.17488
1.17819
1.18303
1.18587
1.19083
1.18986
1.19203
1.18435
1.19458
1.20584
1.18367
1.18895
1.19738
1.18665
1.21343
1.25491
1.26431
1.2663
1.27534
1.27383
1.25248
1.22384
1.21429
1.22659
1.23154
1.21614
1.19875
1.19612
1.20532
1.2188
1.22865
1.23123
1.23067
1.23013
1.2301
1.23129
1.2329
1.23717
1.24436
1.25348
1.25685
1.24792
1.23461
1.23175
1.25015
1.26977
1.29723
1.29868
1.29952
1.27779
1.28774
1.2457
1.28696
1.24943
1.26936
1.27034
1.27349
1.26358
1.28145
1.27376
1.26558
1.25608
1.26778
1.27639
1.29614
1.27895
1.26336
1.24526
1.22331
1.21
1.21448
1.21452
1.23901
1.24417
1.24863
1.25932
1.27162
1.25748
1.22929
1.26937
1.28936
1.32296
1.32437
1.31753
1.3401
1.34678
1.34922
1.35222
1.34577
1.37355
1.32991
1.33925
1.30209
1.30887
1.30904
1.2809
1.29795
1.27963
1.25057
1.26639
1.24265
1.23023
1.27463
1.27778
1.23103
1.17166
1.19621
1.3476
1.40232
1.39966
1.35326
1.3246
1.38539
1.38801
1.37292
1.4167
1.42064
1.33664
1.25759
1.33335
1.45634
1.37667
1.32789
1.29064
1.33669
1.31443
1.14236
1.18633
1.23337
1.24634
1.20917
1.16191
1.18773
1.19103
1.16682
1.17216
1.18137
1.16898
1.1669
1.17162
1.17288
1.17621
1.17747
1.17942
1.1767
1.17695
1.1829
1.18178
1.18378
1.18179
1.18375
1.18743
1.19291
1.19637
1.19832
1.19316
1.18877
1.18708
1.18462
1.18125
1.17739
1.17679
1.17963
1.17653
1.17984
1.17423
1.16607
1.1576
1.15902
1.15765
1.163
1.16356
1.15547
1.15211
1.15202
1.1621
1.17715
1.18341
1.17591
1.16686
1.16635
1.17374
1.1856
1.19327
1.20284
1.20347
1.2028
1.20403
1.20884
1.21399
1.18572
1.19064
1.21341
1.19502
1.20524
1.24549
1.25818
1.26347
1.27415
1.26919
1.24416
1.21998
1.21885
1.22335
1.21165
1.1952
1.19456
1.20696
1.21576
1.21527
1.2096
1.20402
1.20226
1.20601
1.21424
1.22347
1.22992
1.23612
1.24921
1.27087
1.28401
1.275
1.25159
1.24698
1.27269
1.30949
1.31851
1.32817
1.29732
1.2827
1.24584
1.25452
1.23042
1.2347
1.22417
1.23114
1.23613
1.23146
1.23341
1.25268
1.25332
1.2553
1.24927
1.25092
1.26958
1.2597
1.26247
1.24462
1.23358
1.21392
1.20775
1.19186
1.20257
1.20915
1.21054
1.22512
1.22379
1.2571
1.21622
1.2364
1.22115
1.25737
1.29042
1.26716
1.30372
1.31967
1.31421
1.32296
1.30394
1.32943
1.28916
1.28149
1.2621
1.25026
1.25342
1.23948
1.24713
1.23793
1.22589
1.24792
1.23001
1.21857
1.26824
1.24996
1.17004
1.18391
1.26261
1.41296
1.40721
1.39318
1.4443
1.40247
1.38613
1.43438
1.39594
1.37699
1.43086
1.37753
1.26823
1.28216
1.41258
1.38483
1.35532
1.31787
1.26359
1.17164
1.13585
1.1766
1.23547
1.25452
1.20676
1.14966
1.18773
1.2046
1.17408
1.16335
1.17155
1.17499
1.17546
1.17144
1.16749
1.1773
1.17676
1.17619
1.18379
1.18727
1.1847
1.17988
1.18401
1.18729
1.19039
1.19186
1.1921
1.19147
1.19003
1.18783
1.18652
1.1891
1.19088
1.1892
1.186
1.17913
1.17929
1.17417
1.17409
1.17605
1.17302
1.16284
1.15645
1.15219
1.14995
1.15523
1.15618
1.1547
1.15182
1.14832
1.16157
1.18373
1.18869
1.17406
1.16595
1.1708
1.18315
1.19391
1.20163
1.20563
1.2088
1.22086
1.22077
1.21562
1.20815
1.21955
1.22541
1.20108
1.21077
1.24245
1.25298
1.26383
1.27158
1.2594
1.23294
1.21695
1.21998
1.21632
1.20053
1.19422
1.20128
1.20777
1.20253
1.19587
1.19531
1.20053
1.20653
1.21292
1.2229
1.23099
1.2318
1.2278
1.23038
1.25344
1.27259
1.26467
1.23897
1.23122
1.25503
1.28898
1.313
1.29041
1.26002
1.24146
1.21877
1.22754
1.22258
1.23911
1.24821
1.24644
1.25315
1.25024
1.23254
1.24529
1.22274
1.23533
1.2166
1.21319
1.24884
1.22858
1.2574
1.22784
1.23013
1.21413
1.20522
1.18729
1.18479
1.18622
1.16918
1.20303
1.17533
1.22323
1.19411
1.22604
1.18405
1.20452
1.24061
1.20401
1.24103
1.25183
1.24923
1.25634
1.23608
1.25306
1.23701
1.2359
1.232
1.21683
1.21911
1.21533
1.21217
1.21616
1.21717
1.22307
1.21906
1.22507
1.26331
1.226
1.1497
1.22686
1.36705
1.48311
1.39835
1.36297
1.50113
1.50164
1.37538
1.43111
1.41901
1.34164
1.41081
1.41011
1.3033
1.27836
1.36961
1.35924
1.36634
1.37024
1.29889
1.15406
1.12827
1.16047
1.22822
1.27143
1.21972
1.14306
1.15033
1.18713
1.17595
1.16862
1.17312
1.17555
1.18323
1.18694
1.17495
1.17353
1.17707
1.17352
1.16647
1.16311
1.16674
1.17222
1.1797
1.18353
1.18115
1.17615
1.17173
1.17241
1.17651
1.1782
1.18162
1.18647
1.19172
1.19195
1.19194
1.18391
1.17637
1.17976
1.17708
1.17868
1.17529
1.17425
1.1668
1.16081
1.15335
1.14818
1.14766
1.14677
1.14855
1.14323
1.14068
1.16109
1.18209
1.17714
1.16796
1.17206
1.18251
1.19176
1.19729
1.20296
1.21132
1.22381
1.22294
1.22183
1.2352
1.23865
1.21634
1.20304
1.22959
1.24879
1.25112
1.26323
1.26624
1.24838
1.22369
1.21559
1.21842
1.20983
1.1963
1.19672
1.20391
1.2032
1.19663
1.19707
1.20579
1.21425
1.21253
1.2062
1.21007
1.2187
1.2219
1.21864
1.21229
1.23809
1.26961
1.27218
1.24482
1.2338
1.26943
1.30907
1.31099
1.27911
1.23745
1.20603
1.21314
1.20656
1.22858
1.23639
1.24766
1.26215
1.27092
1.28756
1.27576
1.27696
1.2494
1.25577
1.23241
1.2048
1.22408
1.19598
1.23497
1.20958
1.21869
1.20739
1.19931
1.19058
1.17765
1.1832
1.14738
1.18236
1.15446
1.18068
1.17297
1.20244
1.17624
1.18197
1.20409
1.18312
1.20254
1.20031
1.20307
1.19546
1.19258
1.2017
1.20447
1.20634
1.20545
1.19754
1.19848
1.20017
1.19095
1.20392
1.20493
1.20263
1.21491
1.22867
1.22063
1.18742
1.17653
1.28449
1.42732
1.53681
1.42851
1.34646
1.50408
1.53026
1.36357
1.3985
1.41054
1.31108
1.37865
1.41058
1.33246
1.30793
1.34114
1.32994
1.36699
1.36985
1.37759
1.27269
1.12076
1.14044
1.19475
1.27058
1.25075
1.17386
1.14826
1.17202
1.17525
1.15981
1.15633
1.15636
1.16017
1.17015
1.17268
1.17298
1.17328
1.17195
1.16936
1.16723
1.16762
1.1653
1.16409
1.16519
1.16656
1.16191
1.15748
1.16548
1.17734
1.17794
1.17182
1.16771
1.17375
1.18653
1.19572
1.20317
1.19106
1.18716
1.17944
1.17645
1.16916
1.165
1.16875
1.16478
1.16331
1.15537
1.14637
1.14595
1.14902
1.14655
1.13517
1.14215
1.16803
1.17467
1.16733
1.17183
1.18222
1.18988
1.19604
1.20296
1.21208
1.22205
1.2294
1.23734
1.24453
1.23214
1.21199
1.22043
1.24557
1.24953
1.25345
1.26481
1.26009
1.23863
1.21919
1.21571
1.21526
1.20238
1.19154
1.19445
1.19842
1.19284
1.18701
1.19089
1.20441
1.21277
1.21245
1.21459
1.22532
1.23205
1.23936
1.24152
1.22574
1.24181
1.27184
1.27711
1.24245
1.22962
1.26233
1.30314
1.29784
1.25945
1.22796
1.21533
1.22637
1.24587
1.26158
1.27381
1.27085
1.27867
1.27448
1.27261
1.2779
1.28544
1.27391
1.26884
1.2579
1.23307
1.22357
1.18687
1.21225
1.18954
1.19845
1.18996
1.18774
1.1835
1.17057
1.18278
1.14418
1.16467
1.14925
1.14906
1.16024
1.16755
1.16732
1.16975
1.17218
1.17877
1.17899
1.18066
1.18365
1.16976
1.17999
1.17448
1.18062
1.18044
1.18277
1.17948
1.18459
1.18494
1.18086
1.19451
1.19176
1.19062
1.21255
1.21578
1.17259
1.17507
1.2361
1.35238
1.44219
1.53575
1.45884
1.3774
1.48057
1.45766
1.33669
1.36767
1.37981
1.29066
1.35073
1.38044
1.34581
1.33526
1.31993
1.32159
1.37117
1.3221
1.35958
1.31349
1.11497
1.12448
1.15311
1.2318
1.25946
1.20453
1.15753
1.15659
1.1808
1.18581
1.1813
1.17618
1.16971
1.16757
1.1664
1.1667
1.16596
1.16774
1.16976
1.17016
1.17242
1.17451
1.17457
1.17317
1.16699
1.15281
1.13925
1.14365
1.16729
1.18434
1.1796
1.16487
1.15231
1.15991
1.17141
1.18787
1.19426
1.18704
1.1793
1.17201
1.17426
1.16178
1.16487
1.15814
1.15326
1.15605
1.1452
1.13627
1.14474
1.15082
1.13739
1.13027
1.15228
1.17023
1.16607
1.16812
1.17939
1.1864
1.19219
1.20019
1.21026
1.22041
1.23075
1.23806
1.23573
1.22857
1.2299
1.24164
1.24668
1.24507
1.25474
1.26181
1.2485
1.22411
1.21069
1.21363
1.21358
1.2006
1.19084
1.19479
1.19659
1.18675
1.17896
1.18664
1.20499
1.21507
1.21521
1.21998
1.228
1.22189
1.2312
1.24381
1.22689
1.22661
1.24952
1.26232
1.23236
1.2146
1.25755
1.29041
1.27993
1.23435
1.20406
1.20786
1.2262
1.24352
1.25692
1.2641
1.27643
1.27577
1.28779
1.28092
1.26745
1.26917
1.27348
1.26604
1.26492
1.25697
1.23596
1.1974
1.19975
1.17735
1.1805
1.16808
1.17276
1.16569
1.1613
1.17479
1.14323
1.15409
1.13886
1.13333
1.14691
1.139
1.15132
1.1473
1.14738
1.16254
1.15395
1.16504
1.15985
1.15471
1.16422
1.15235
1.16418
1.16144
1.16304
1.16488
1.1682
1.1661
1.1759
1.18417
1.18218
1.19027
1.2077
1.189
1.14541
1.1882
1.296
1.40288
1.47785
1.52737
1.42359
1.37888
1.41741
1.35131
1.30221
1.34904
1.35387
1.29072
1.33478
1.34496
1.35747
1.33679
1.31042
1.34527
1.36413
1.28285
1.3111
1.28319
1.11103
1.11456
1.12423
1.17603
1.22439
1.20647
1.16449
1.13529
1.1352
1.15016
1.16223
1.17026
1.17195
1.17331
1.17164
1.1673
1.16309
1.15906
1.15557
1.15563
1.15542
1.15732
1.15802
1.15453
1.16044
1.16825
1.16207
1.1483
1.14094
1.14774
1.15853
1.16578
1.16323
1.16228
1.17956
1.18856
1.19329
1.18789
1.18341
1.17107
1.16952
1.16386
1.16231
1.16483
1.15321
1.15049
1.14481
1.13373
1.13022
1.14561
1.14243
1.12642
1.13744
1.16161
1.16538
1.16513
1.17522
1.18376
1.18885
1.19572
1.20437
1.21394
1.22326
1.23022
1.23137
1.23144
1.23767
1.24344
1.24195
1.24401
1.25416
1.2566
1.24044
1.21703
1.20697
1.21002
1.21073
1.19885
1.18898
1.19336
1.19756
1.18691
1.17451
1.18061
1.19622
1.20436
1.2008
1.20585
1.21304
1.20459
1.22511
1.25377
1.24731
1.23477
1.24998
1.27396
1.24664
1.23143
1.26787
1.30012
1.27556
1.23663
1.21658
1.22249
1.23649
1.24915
1.25252
1.25054
1.25476
1.24873
1.25686
1.26245
1.25823
1.24706
1.2435
1.23907
1.24303
1.25332
1.25052
1.22626
1.20255
1.18005
1.16889
1.15219
1.15398
1.1437
1.14971
1.15677
1.1406
1.14429
1.127
1.12717
1.12795
1.12141
1.13186
1.12173
1.13073
1.13585
1.13077
1.14434
1.13418
1.13905
1.143
1.1356
1.15116
1.14293
1.14537
1.1564
1.15101
1.16181
1.17392
1.16525
1.17632
1.18954
1.18232
1.16395
1.14732
1.22501
1.34846
1.41502
1.49949
1.51759
1.38484
1.33806
1.32752
1.2757
1.2768
1.33477
1.33687
1.30469
1.32341
1.31631
1.35698
1.31052
1.33538
1.37119
1.32017
1.27555
1.30546
1.28693
1.10871
1.10985
1.11126
1.13135
1.16396
1.16569
1.14545
1.12373
1.11065
1.11269
1.12228
1.13396
1.14304
1.15153
1.15676
1.16108
1.16394
1.15999
1.15816
1.15574
1.15153
1.15551
1.15798
1.15466
1.15612
1.15988
1.16342
1.16781
1.16173
1.15579
1.16316
1.16423
1.1676
1.16707
1.16951
1.17416
1.17175
1.16691
1.16322
1.16233
1.15615
1.15872
1.15486
1.1567
1.14681
1.14193
1.13281
1.13489
1.13151
1.13197
1.14308
1.1294
1.12435
1.14799
1.16121
1.16148
1.17033
1.17996
1.18415
1.1899
1.19869
1.20732
1.21465
1.22012
1.22563
1.22948
1.23125
1.23263
1.23539
1.243
1.25115
1.24815
1.23028
1.21072
1.20447
1.20825
1.2091
1.19808
1.18466
1.1869
1.19714
1.19464
1.18669
1.18673
1.19543
1.2059
1.20456
1.21065
1.2157
1.20596
1.22484
1.25389
1.25933
1.23398
1.2418
1.27207
1.23492
1.21685
1.26487
1.2896
1.25806
1.21093
1.20218
1.21363
1.22608
1.23716
1.24814
1.26033
1.26484
1.26804
1.2676
1.26038
1.26159
1.25245
1.23899
1.22207
1.21482
1.21798
1.23462
1.23503
1.21189
1.19431
1.16654
1.14949
1.13822
1.13021
1.13589
1.13601
1.1383
1.13097
1.12362
1.11924
1.11401
1.11254
1.11282
1.1062
1.11388
1.11076
1.11453
1.12109
1.11326
1.12671
1.12482
1.1239
1.13746
1.12595
1.13617
1.1477
1.13531
1.16334
1.16054
1.15271
1.18268
1.17584
1.14408
1.16131
1.17188
1.25904
1.36282
1.40048
1.47438
1.47482
1.35796
1.31169
1.27474
1.24258
1.26043
1.30789
1.314
1.30423
1.30075
1.3107
1.33981
1.28916
1.37726
1.35951
1.2738
1.286
1.31193
1.325
1.10835
1.11007
1.1087
1.11066
1.1219
1.12446
1.11505
1.10297
1.09543
1.09904
1.10935
1.12212
1.13373
1.14262
1.15218
1.15972
1.16247
1.16335
1.16989
1.16532
1.1599
1.16574
1.16414
1.16041
1.15797
1.1535
1.15615
1.15661
1.15386
1.15955
1.17109
1.17277
1.16006
1.15841
1.15728
1.15524
1.15116
1.14922
1.14754
1.15148
1.15051
1.153
1.1499
1.14786
1.14662
1.14009
1.13748
1.12541
1.13114
1.12523
1.12766
1.13489
1.11977
1.12896
1.15397
1.15828
1.16284
1.17427
1.18054
1.18437
1.19094
1.19903
1.20654
1.21192
1.21554
1.22093
1.22457
1.2251
1.22682
1.23417
1.24064
1.2365
1.21921
1.20243
1.19814
1.20287
1.20588
1.19856
1.18289
1.17746
1.18595
1.19355
1.19623
1.19622
1.19519
1.20139
1.19782
1.19998
1.20594
1.20063
1.21116