/*--------------------------------*- C++ -*----------------------------------*\
| =========                 |                                                 |
| \\      /  F ield         | OpenFOAM: The Open Source CFD Toolbox           |
|  \\    /   O peration     | Version:  dev                                   |
|   \\  /    A nd           | Web:      http://www.openfoam.org               |
|    \\/     M anipulation  |                                                 |
\*---------------------------------------------------------------------------*/
FoamFile
{
    version     2.0;
    format      ascii;
    class       volScalarField;
    object      T;
    location    "9.127";
}
// * * * * * * * * * * * * * * * * * * * * * * * * * * * * * * * * * * * * * //

dimensions      [0 0 0 1 0 0 0];

internalField   nonuniform List<scalar> 
12225
(
298.437
298.865
298.705
298.465
298.163
297.902
297.792
297.482
297.536
297.153
297.377
296.793
297.23
296.424
296.908
296.225
294.646
295.064
298.917
298.974
298.299
297.563
297.164
296.25
296.371
295.376
295.913
294.758
295.7
294.136
295.346
293.713
294.388
293.148
291.156
292.824
299.056
298.869
298.331
297.331
296.939
295.841
295.64
294.623
294.551
293.791
293.764
293.266
293.062
292.932
292.089
291.879
290.788
293.32
299.132
299.031
298.204
297.729
296.718
296.517
295.43
295.454
294.224
294.511
293.326
293.7
292.58
292.972
291.923
291.799
290.287
293.325
298.859
299.415
297.939
298.17
296.703
296.952
295.642
295.913
294.618
294.792
293.695
293.8
292.823
292.891
292.059
291.703
290.459
292.955
298.669
299.706
297.798
298.351
296.694
297.104
295.799
296.002
294.671
294.846
293.691
293.941
292.858
293.161
292.226
292.357
291.519
291.763
298.623
299.927
297.831
298.655
296.904
297.38
295.942
296.07
294.741
294.977
293.925
294.209
293.259
293.493
292.861
292.854
292.342
291.328
298.622
300.15
297.843
298.821
297.076
297.652
296.075
296.286
294.895
295.171
294.197
294.529
293.667
293.809
293.126
292.97
292.474
292.001
298.722
300.288
297.945
298.876
297.249
297.793
296.107
296.374
295.023
295.251
294.345
294.774
293.865
294.01
293.192
293.135
292.477
292.355
298.977
300.37
298.209
298.947
297.516
297.934
296.367
296.485
295.431
295.462
294.824
295.073
294.351
294.319
293.733
293.607
293.111
292.895
299.235
300.407
298.599
299.213
297.913
298.101
296.891
296.916
296.094
296.114
295.692
295.694
295.224
295.048
294.604
294.392
294.213
293.947
299.669
300.563
299.247
299.404
298.533
298.54
297.73
297.647
297.107
297.029
296.72
296.531
296.232
295.874
295.747
295.528
295.349
295.209
300.121
300.818
300.017
299.931
299.328
299.123
298.678
298.484
298.232
298.091
297.857
297.642
297.526
297.228
297.098
296.989
296.887
296.715
300.729
301.287
300.722
300.519
300.192
300.007
299.793
299.644
299.453
299.313
299.219
299.11
298.997
298.832
298.757
298.635
298.645
298.57
301.245
301.901
301.571
301.412
301.268
301.114
301.046
300.928
300.866
300.822
300.79
300.757
300.73
300.666
300.625
300.571
300.564
300.489
301.964
302.729
302.52
302.477
302.48
302.425
302.442
302.406
302.418
302.424
302.44
302.481
302.508
302.522
302.523
302.517
302.533
302.578
302.753
303.793
303.627
303.645
303.713
303.759
303.832
303.903
303.97
304.04
304.086
304.133
304.158
304.18
304.193
304.212
304.228
304.224
303.846
304.926
304.722
304.711
304.777
304.866
304.954
305.056
305.088
305.146
305.135
305.149
305.13
305.123
305.105
305.067
305.03
304.969
304.652
305.82
305.599
305.576
305.609
305.604
305.603
305.602
305.52
305.499
305.387
305.341
305.21
305.133
305.026
304.911
304.771
304.592
305.467
306.653
306.335
306.231
306.136
306.001
305.871
305.734
305.542
305.397
305.182
305.011
304.754
304.557
304.335
304.12
303.885
303.6
306.088
307.26
306.869
306.662
306.434
306.208
305.929
305.672
305.329
305.038
304.693
304.35
303.997
303.643
303.326
303
302.686
302.331
306.484
307.665
307.129
306.799
306.472
306.144
305.789
305.419
304.989
304.593
304.134
303.678
303.211
302.756
302.316
301.908
301.476
301.076
307.021
308.077
307.447
307.048
306.613
306.164
305.706
305.188
304.671
304.145
303.604
303.073
302.526
302.017
301.496
301.013
300.492
300.022
307.281
308.321
307.667
307.156
306.613
306.06
305.499
304.938
304.346
303.789
303.202
302.637
302.048
301.486
300.917
300.348
299.807
299.258
307.37
308.435
307.741
307.219
306.667
306.086
305.47
304.844
304.177
303.514
302.856
302.2
301.571
300.968
300.383
299.82
299.275
298.76
307.588
308.628
307.871
307.311
306.741
306.142
305.495
304.829
304.117
303.414
302.703
302.022
301.343
300.7
300.07
299.465
298.874
298.3
307.699
308.684
307.909
307.331
306.721
306.097
305.407
304.714
303.965
303.228
302.459
301.706
300.926
300.157
299.402
298.676
297.964
297.293
307.714
308.729
307.946
307.343
306.699
306.013
305.255
304.479
303.637
302.806
301.926
301.061
300.153
299.298
298.438
297.669
296.893
296.209
307.733
308.841
308.016
307.367
306.677
305.921
305.118
304.288
303.455
302.659
301.863
301.113
300.383
299.719
299.074
298.529
297.98
297.523
306.995
308.298
307.916
307.586
307.164
306.711
306.252
305.796
305.356
304.924
304.488
304.077
303.676
303.302
302.937
302.612
302.278
301.831
288.052
280.378
282.825
285.643
287.154
287.336
287.746
287.596
287.932
288.158
288.502
288.955
289.455
290.007
290.501
290.987
291.407
291.784
292.139
292.476
292.714
292.885
293.042
293.2
293.307
293.383
293.498
293.638
293.779
293.947
294.149
294.275
294.386
294.587
294.806
294.973
295.095
295.106
295.129
295.165
295.269
295.411
295.627
295.913
296.169
296.374
296.462
296.569
296.943
297.412
297.653
297.966
298.903
300.289
301.332
301.604
301.253
300.727
300.104
299.349
299.263
299.924
300.154
299.352
298.297
297.71
297.32
296.986
296.564
295.818
295.353
295.357
295.493
295.248
295.115
296.075
299.085
303.141
304.502
301.907
298.007
294.942
292.858
291.413
290.324
289.603
289.045
288.521
288.124
287.748
287.306
286.926
286.893
287.244
287.461
286.782
285.625
285.325
285.625
285.399
285.748
285.972
284.537
285.677
284.66
285.054
284.784
284.836
284.882
285.007
285.311
285.614
286.247
286.818
287.995
288.963
290.295
291.454
292.58
292.53
293.583
294.822
295.579
295.353
295.785
296.94
298.101
298.357
299.34
300.767
302.248
303.455
304.287
304.041
303.276
301.531
301.538
300.994
300.432
299.121
298.099
297.046
295.621
295.649
294.118
295.03
293.899
294.765
294.116
294.643
293.989
294.18
293.475
293.543
293.08
293.325
293.689
293.057
293.229
294.086
293.778
294.085
293.772
293.781
292.936
292.218
290.987
289.861
288.644
287.63
285.538
285.003
282.388
282.87
284.979
289.878
292.903
290.334
289.093
290.704
288.121
281.756
287.409
291.19
293.812
292.557
292.336
291.951
291.706
291.563
291.466
291.467
291.452
291.397
291.28
291.059
290.888
290.822
290.72
290.446
290.108
289.961
289.876
289.775
289.653
289.695
289.876
290.039
290.208
290.469
290.711
290.705
290.784
291.158
291.541
291.681
291.915
291.921
292.066
292.129
292.345
292.398
292.415
292.557
292.817
293.392
293.574
292.804
292.567
293.592
294.662
294.441
294.571
295.609
296.179
295.847
296.342
299.559
300.687
297.55
293.978
292.749
293.505
293.467
292.349
291.032
290.934
292.877
294.221
292.905
290.772
288.716
286.953
288.051
291.186
290.798
286.433
282.603
279.971
277.842
276.414
275.743
275.865
276.627
277.569
278.852
280.243
281.381
282.309
282.784
282.742
283.295
285.594
289.201
291.369
289.352
284.809
282.906
284.149
284.245
287.038
290.356
278.42
288.341
281.798
283.902
280.27
279.992
278.056
277.637
275.7
274.296
272.405
270.559
269.472
268.58
268.236
267.297
268.246
268.996
268.966
268.951
271.816
273.64
273.256
272.071
272.88
273.867
276.97
282.508
288.006
292.279
296.303
297.101
295.09
290.498
290.296
289.139
287.597
283.653
282.756
280.914
278.82
279.953
277.146
279.282
277.389
278.756
278.218
279.209
279.385
279.927
281.479
281.795
285.851
281.603
286.768
287.611
284.468
288.971
287.678
289.03
288.999
288.59
284.882
281.011
277.731
273.603
270.272
268.716
263.451
261.007
252.07
251.517
251.777
261.27
273.526
274.939
268.212
268.482
290.324
286.621
294.849
294.267
295.441
295.284
294.547
293.936
293.61
292.813
291.673
290.888
289.543
287.555
287.232
287.188
286.916
287.021
286.977
287.494
287.744
288.092
288.393
288.848
289.333
289.858
290.353
290.785
291.112
291.236
291.26
291.509
291.963
292.299
292.438
292.728
293.119
293.464
293.809
293.999
294.3
294.45
294.44
294.226
294.203
294.783
294.804
294.128
294.498
295.131
295.922
296.486
295.117
294.802
295.303
295.379
295.86
295.526
296.251
297.66
296.847
297.106
295.488
292.251
292.101
291.15
292.511
296.903
297.022
292.974
288.036
285.236
284.578
284.283
282.465
280.085
278.982
279.197
280.001
280.887
282.134
283.991
286.45
289.211
292.074
295.25
298.262
300.575
302.442
303.91
304.723
305.404
307.167
309.795
311.704
310.775
307.523
304.991
304.906
305.809
309.047
311.198
302.754
311.714
307.939
310.218
306.831
307.373
305.629
306.872
304.223
302.875
299.434
295.507
291.203
288.302
282.97
276.605
269.272
265.567
266.73
268.528
267.672
266.611
267.884
266.63
262.032
259.608
264.812
275.012
285.626
290.82
295.156
294.397
290.698
284.894
283.032
281.325
280.752
277.603
278.035
277.87
276.418
278.346
276.657
277.686
277.805
276.438
278.389
277.117
280.654
280.608
286.292
286.636
302.047
286.976
293.842
302.988
292.811
299.212
294.718
293.713
296.015
296.932
299.578
294.463
287.986
279.601
268.268
263.227
261.321
261.818
256.434
252.983
247.449
260.739
266.893
269.229
266.444
254.512
292.378
286.814
295.939
294.485
293.92
295.683
294.574
291.421
290.031
288.759
284.873
282.429
285.966
288.208
285.745
288.063
288.513
288.103
288.976
288.001
289.052
288.827
289.747
290.488
291.12
291.53
291.625
291.794
291.876
291.905
291.843
291.804
291.917
292.229
292.64
293.154
293.501
294.092
294.527
294.761
294.81
295.228
295.882
296.376
296.244
296.479
295.962
294.1
294.479
295.191
293.986
296.628
296.824
294.117
296.166
296.954
296.204
296.246
296.903
297.591
295.606
295.44
297.14
297.729
295.566
291.487
296.209
301.303
294.559
285.627
281.455
280.392
279.734
278.874
278.708
279.625
280.837
282.134
283.488
284.95
286.767
288.82
291.076
293.218
295.623
298.536
301.326
303.046
303.597
303.936
304.45
304.521
304.468
303.896
303.088
302.472
302.391
302.088
301.393
301.656
302.175
300.295
302.057
304.567
303.664
304.092
303.654
304.882
306.434
309.814
310.084
311.086
311.284
310.706
304.819
306.066
307.602
303.656
295.037
286.651
279.479
282.536
283.469
275.438
273.128
274.007
265.921
257.935
261.426
274.245
284.416
288.791
292.387
289.92
289.807
286.246
281.249
279.562
279.995
277.956
278.131
278.376
277.803
279.729
280.487
279.731
283.794
279.784
283.597
279.933
283.535
284.045
293.082
286.236
309.134
301.752
298.78
312.092
305.038
312.062
309.501
297.087
298.86
294.196
297.556
303.506
298.812
293.897
284.647
268.627
259.623
259.475
270.413
266.694
258.115
269.638
265.014
260.242
267.555
254.669
293.843
284.663
293.613
297.113
296.669
294.892
290.897
288.067
287.03
285.133
287.175
289.646
286.455
288.419
290.58
286.56
287.955
286.822
286.542
287.911
287.785
290.13
290.388
291.541
291.551
291.633
291.942
291.95
291.942
291.749
291.544
291.427
291.63
291.923
292.25
292.828
293.911
294.786
295.589
296.006
295.501
295.338
296.067
297.693
298.288
298.246
296.958
294.995
294.759
295.198
295.386
299.51
298.736
293.794
297.403
298.931
298.278
299.179
296.46
296.074
296.95
296.764
297.726
298.32
296.038
294.783
300.745
300.832
290.851
282.864
279.696
278.757
278.831
279.868
281.23
282.363
283.431
285.096
287.54
290.059
292.362
295.047
297.532
299.323
301.13
303.193
305.073
305.75
305.704
305.633
305.257
304.802
304.767
304.861
304.931
304.771
304.471
304.489
305.577
305.673
305.025
302.46
302.502
304.632
301.669
300.824
299.482
299.6
302.383
306.073
306.869
309.323
308.952
309.952
311.582
307.885
302.383
304.751
303.431
302.032
295.529
290.113
294.293
296.927
290.239
288.288
281.86
267.721
263.37
268.513
277.332
287.111
293.757
288.619
283.048
282.106
281.19
279.854
280.704
278.692
276.642
277.963
279.182
278.526
282.331
279.698
283.739
284.767
287.091
288.749
291.45
287.55
303.848
289.3
297.933
311.559
308.519
309.241
309.081
311.48
319.558
307.381
310.113
309.41
298.083
303.598
304.486
296.14
297.544
286.118
271.223
254.6
267.984
271.675
269.281
272.986
267.287
257.508
262.559
261.635
294.924
282.313
287.886
294.73
295.407
295.578
289.284
283.172
283.977
285.065
288.175
287.193
285.611
287.071
285.976
284.476
286.756
286.346
287.341
290.315
290.156
291.86
292.224
291.941
292.473
292.31
292.633
293.047
292.818
292.683
292.708
292.447
292.263
292.156
292.48
293.111
293.978
294.486
294.828
295.42
295.458
294.907
294.922
297.234
299.228
299.502
297.567
295.492
295.677
296.534
296.638
297.007
296.835
297.646
301.264
298.83
298.507
302.19
300.533
301.034
298.91
294.337
294.794
296.637
296.581
295.789
300.073
302.513
293.755
283.879
280.091
280.401
281.896
283.543
284.76
285.63
287.862
292.115
296.492
298.735
299.908
301.224
301.878
301.955
302.024
302.247
302.397
302.076
302.257
302.594
303.052
304.158
305.435
306.498
307.701
309.06
309.457
308.388
307.788
305.899
305.042
305.321
300.566
301.814
298.164
298.82
294.016
296.808
295.908
299.072
300.382
300.424
303.794
306.985
308.033
313.478
314.432
311.812
306.102
303.974
304.255
296.591
295.631
301.143
299.757
294.116
301.37
295.589
275.708
267.541
274.274
283.944
290.421
288.86
284.321
282.496
284.889
281.155
278.248
277.296
276.807
276.855
283.446
282.499
282.999
282.465
278.472
281.409
283.798
285.677
296.022
292.23
302.748
301.918
299.954
308.189
318.113
316.264
316.535
306.91
307.805
303.153
305.085
321.232
311.107
305.964
312.16
296.695
296.584
294.682
292.072
263.679
262.762
267.118
275.758
279.332
273.341
261.681
259.003
268.926
295.731
282.07
281.588
287.047
291.278
295.694
287.952
279.47
283.273
286.98
287.928
286.989
287.741
287.47
287.118
286.782
286.731
290.415
289.063
289.678
291.98
291.516
290.927
289.91
291.33
291.818
291.641
291.789
292.238
291.783
292.322
292.111
292.033
292.004
292.352
293.083
293.994
294.288
294.233
294.795
296.498
296.961
295.953
296.295
298.485
298.412
297.01
295.446
295.522
296.266
296.25
295.292
295.111
296.426
298.372
298.259
300.33
301.724
299.841
301.423
298.807
297.351
300.154
298.997
296.894
295.723
298.509
300.666
293.404
284.741
282.344
283.568
284.858
285.572
286.354
288.637
294.012
300.322
303.036
301.804
300.21
299.646
299.826
300.653
301.958
303.618
305.396
306.952
308.807
310.039
310.757
311.15
311.196
311.02
311.45
311.934
312.327
312.834
312.109
309.439
305.154
306.202
302.734
304.146
300.38
307.85
295.936
307.078
296.713
296.35
294.58
294.014
291.105
291.293
293.281
298.206
306.316
310.574
314.52
312.345
307.238
306.607
302.579
295.616
302.259
301.055
294.437
302.935
304.451
288.982
275.686
278.473
289.918
291.223
284.723
279.713
281.686
283.398
282.237
278.859
282.177
281.524
288.497
293.48
289.851
291.533
288.78
279.989
287.5
284.437
288.254
296.263
301.3
303.411
308.029
306.171
309.767
313.944
328.079
324.633
314.878
304.573
294.819
314.488
320.87
307.891
316.095
301.022
292.429
290.415
303.351
281.406
268.824
262.137
276.349
290.91
279.517
271.001
261.962
266.13
296.175
283.279
277.885
282.924
290.079
294.724
288.14
282.628
285.746
287.883
287.63
286.898
286.253
284.415
285.079
287.626
287.42
288.997
289.515
291.89
290.568
288.723
291.878
289.886
289.321
291.433
291.169
291.05
291.08
291.659
291.819
292.153
292.497
292.95
293.246
293.639
293.548
292.394
292.118
292.291
294.106
296.517
297.071
295.86
297.547
298.166
297.085
295.993
295.163
294.902
295.172
295.897
295.657
295.166
295.811
297.428
299.462
299.645
299.607
300.332
297.805
298.655
298.796
295.034
293.922
294.469
298.523
300.483
293.725
285.347
283.483
285.012
285.342
285.59
287.59
292.752
299.927
304.045
302.218
298.583
297.644
299.714
303.392
307.057
309.394
310.767
311.258
311.107
310.686
309.612
308.29
306.661
305.152
304.069
304.223
304.879
305.912
306.096
305.046
302.812
302.341
294.15
299.394
299.352
295.772
309.357
294.483
313.967
303.73
305.028
305.852
305.665
302.814
298.781
292.981
291.826
292.031
302.468
308.026
314.923
315.223
312.125
309.006
306.192
298.931
302.698
301.725
296.697
300.189
307.873
297.903
284.297
282.664
289.979
291.226
285.887
281.03
277.734
280.366
276.344
281.346
287.645
291.162
295.468
292.916
289.841
299.586
285.937
291.721
291.512
284.022
292.242
305.066
307.806
317.205
320.523
316.391
308.721
319.534
331.932
327.314
312.335
290.944
301.747
324.83
311.314
311.857
306.247
292.36
283.481
303.384
297.23
286.172
266.146
270.659
300.498
288.927
281.593
267.435
266.302
296.39
284.927
276.876
279.697
288.174
294.771
284.435
281.859
290.243
290.089
288.668
287.59
286.753
286.574
288.58
288.416
289.343
292.7
290.063
290.516
292.589
289.053
288.385
289.284
288.762
289.553
289.742
289.554
289.517
290.239
290.756
290.449
290.621
290.886
291.147
291.346
291.212
290.423
291.106
292.14
292.936
295.079
297.243
296.655
297.005
298.772
297.57
296.061
294.671
294.029
293.535
293.91
295.451
296.689
297.11
296.845
296.959
297.068
297.457
297.397
296.257
298.521
296.153
293.691
296.762
297.555
300.463
301.514
294.289
286.874
285.55
286.271
285.4
285.879
289.779
296.979
303.201
303.146
299.617
299.153
303.192
308.103
311.475
311.871
310.186
308.53
307.026
305.821
304.958
304.141
303.552
302.852
302.376
302.429
304.293
308.189
311.821
312.117
308.972
302.824
298.853
297.995
294.268
297.728
290.549
306.759
288.626
303.665
298.498
303.094
304.217
307.203
305.339
310.124
304.217
303.722
296.083
296.087
299.415
308.134
312.551
317.608
314.844
314.304
307.831
304.014
301.869
303.211
297.402
301.014
304.927
302.672
292.974
286.741
288.895
288.642
290.477
284.687
284.391
281.429
281.693
287.466
290.289
290.843
295.408
288.069
299.633
290.851
294.534
301.16
294.715
299.49
309.15
308.152
315.169
324.795
325.562
319.244
321.141
340.012
338.349
315.549
292.629
293.117
320.069
314.757
303.706
306.557
295.906
281.039
295.705
304.826
305.842
279.787
267.775
296.609
296.895
294.167
272.275
268.409
296.249
285.412
276.24
275.123
283.518
294.574
286.186
282.041
290.595
290.908
289.479
288.299
287.234
287.787
290.069
291.104
290.102
290.85
290.339
288.451
288.424
288.241
287.022
287.804
288.029
288.422
288.048
286.989
287.09
288.488
289.568
289.895
290.459
290.901
291.29
291.295
291.538
291.472
291.539
293.78
295.155
296.151
297.079
297.966
297.716
300.208
301.055
299.644
297.481
295.03
293.811
293.916
295.701
297.696
298.765
298.27
297.483
297.261
296.561
297.432
297.574
299.984
297.922
296.002
302.207
301.314
299.949
303.192
296.84
287.813
286.611
286.836
285.544
286.865
292.712
300.158
302.85
300.407
300.199
304.954
310.005
311.193
309.44
306.781
305.196
305.438
306.399
307.323
308.102
308.573
308.932
308.611
307.54
305.978
305.819
308.681
312.762
314.245
310.275
306.112
300.164
300.176
300.391
305.975
303.664
314.535
304.421
313.583
309.009
308.545
307.479
309.919
305.236
306.749
307.989
310.094
306.302
303.663
298.692
302.285
305.899
309.901
314.342
316.811
314.263
312.809
306.389
305.237
303.216
301.539
299.475
303.823
307.504
297.602
293.299
287.854
289.666
289.683
286.721
286.039
285.951
287.479
289.385
285.394
294.54
291.347
301.534
298.315
299.668
307.431
303.069
308.227
317.167
314.676
321.484
326.698
318.419
315.882
324.425
345.259
343.196
307.445
291.25
290.665
306.411
311.77
296.053
296.819
297.076
284.571
286.241
302.21
317.851
297.093
271.472
287.296
295.523
301.268
284.903
283.913
296.122
285.184
274.183
271.358
279.912
291.167
284.702
284.206
290.047
288.591
286.514
289.651
290.048
288.898
288.61
287.753
287.514
287.109
287.783
287.681
286.333
286.743
286.344
286.842
286.327
285.449
284.268
283.686
283.522
284.958
286.071
286.585
287.368
288.438
289.584
289.947
289.537
290.631
290.17
291.911
294.318
296.743
296.661
297.337
296.393
296.702
299.204
300.472
300.888
298.696
295.327
294.338
296.836
299.641
300.121
298.61
296.127
294.778
293.098
293.622
294.392
294.598
294.141
293.776
301.427
300.675
295.837
301.121
298.993
290.007
287.959
287.477
285.865
287.98
294.649
301.019
301.791
301.481
305.283
310.127
310.797
308.277
306.877
307.842
310.081
312.246
313.382
313.085
311.659
310.037
309.165
308.355
305.828
301.251
298.755
301.441
307.77
309.699
304.182
296.028
294.351
292.41
299.594
303.136
312.603
310.677
316.715
315.922
318.602
316.91
315.223
316.12
315.204
310.075
308.812
307.915
308.114
306.985
301.873
303.125
302.697
305.891
308.508
312.755
313.26
316.136
312.011
309.763
308.284
305.424
304.244
298.984
308.513
303.237
304.478
295.978
290.842
295.011
288.366
286.013
287.645
287.106
291.388
286.549
297.125
298.814
305.925
308.01
308.28
313.789
311.516
315.643
321.371
316.268
322.305
327.45
315.793
318.176
337.647
342.888
329.131
292.226
287.326
289.305
286.201
295.665
292.473
284.465
291.17
290.674
281.642
293.129
316.603
310.198
279.133
283.859
289.649
296.774
302.388
319.248
296.375
286.233
272.449
268.205
279.023
292.896
283.537
279.599
286.891
289.459
287.419
286.581
286.499
287.547
288.515
286.169
286.409
286.541
284.75
284.108
284.889
285.978
284.92
284.188
283.615
283.509
283.719
284.062
284.545
285.145
285.472
284.924
284.664
285.309
286.342
288.307
288.637
290.064
290.365
290.139
291.357
294.208
296.258
297.743
298.754
297.848
298.044
298.904
300.123
301.482
298.393
293.265
292.759
297.081
299.534
298.651
296.103
294.108
292.963
292.626
292.384
290.139
290.991
292.957
295.369
293.355
292.784
299.43
297.599
290.719
289.048
287.332
286.456
290.178
297.165
301.609
301.501
303.253
307.978
310.182
308.992
308.108
310.225
312.634
313.432
312.743
311.883
310.928
309.082
307.756
308.268
309.981
310.077
305.008
300.904
303.171
310.032
312.813
307.593
299.973
294.478
299.619
307.124
311.983
318.165
316.233
317.656
313.629
311.037
311.292
309.388
309.551
313.732
309.769
314.324
310.564
313.868
314.032
303.977
307.272
300.261
305.953
305.304
308.679
310.085
314.261
313.473
312.439
315.01
306.955
312.483
300.597
309.161
301.809
311.527
305.152
296.791
305.913
296.957
294.439
296.137
294.745
300.959
297.185
304.106
305.602
308.709
313.306
313.551
316.515
317.141
318.455
320.256
318.293
321.816
323.056
311.587
319.734
344.808
331.228
302.109
275.201
286.576
292.925
271.296
272.591
291.153
280.375
283.332
296.228
282.941
284.423
307.679
312.847
287.317
287.623
286.855
285.004
297.989
332.164
296.973
288.967
273.078
263.421
274.446
292.874
291.445
282.442
284.998
286.818
285.808
285.251
283.418
282.591
285.483
285.847
285.057
286.05
287.896
288.741
287.82
286.511
284.854
284.151
284.94
286.371
287.594
287.385
286.366
286.104
285.514
284.649
283.597
283.603
283.756
285.811
287.952
287.35
288.442
288.479
289.755
290.344
292.486
294.402
296.706
298.594
299.283
299.931
299.943
301.91
303.086
298.168
293.512
295.484
298.258
297.584
295.568
294.029
293.387
292.616
291.187
289.016
289.983
290.857
288.45
288.602
294.698
298.582
292.83
289.136
289.354
287.337
287.562
292.573
299.166
301.745
301.756
304.692
308.801
309.288
308.133
309.044
311.411
311.928
310.338
308.87
309.996
312.26
311.881
310.303
310.09
311.478
313.849
308.037
300.823
300.375
307.434
311.131
303.21
294.125
293.482
300.599
310.81
319.646
318.141
320.173
314.69
312.485
309.543
305.73
303.238
298.523
300.724
299.563
305.648
303.217
307.613
313.966
307.061
312.779
301.968
306.857
304.002
305.961
307.322
309.286
311.516
309.778
317.834
307.82
315.16
306.108
309.985
301.651
310.202
307.926
301.161
308.959
302.788
303.381
303.866
305.403
308.75
306.236
308.06
308.708
310.477
314.13
315.056
316.142
319.305
317.845
318.637
319.651
319.227
317.135
315.311
326.401
339.001
314.873
282.588
260.352
278.694
295.8
265.9
259.18
289.607
282.995
280.617
301.114
287.474
280.971
299.125
305.915
292.61
293.768
286.423
282.158
280.861
304.315
297.642
292.774
279.887
262.844
266.334
283.499
290.364
284.886
283.849
287.546
288.536
288.631
287.815
285.449
284.822
284.793
284.812
285.166
285.798
286.345
286.329
287
287.431
287.299
287.153
288.571
289.885
287.952
284.993
284.894
286.716
288.153
287.064
284.071
281.977
280.279
283.285
284.654
286.894
288.106
290.179
291.648
290.941
292.431
293.244
295.676
298.549
299.119
298.761
299.984
303.577
302.149
296.033
295.139
297.585
296.882
294.904
293.77
292.953
291.915
290.396
288.793
287.762
286.666
285.989
289.826
295.314
293.857
288.723
288.661
288.532
286.748
288.724
294.532
299.901
301.428
302.297
306.277
309.687
309.562
309.228
311.334
313.476
313.086
310.235
308.742
309.443
309.505
307.38
306.284
305.005
304.856
309.414
306.29
299.55
298.271
306.875
311.125
303.938
294.404
295.006
303.834
311.966
315.783
313.469
308.638
304.597
301.2
301.55
299.236
299.58
299.369
297.559
294.753
296.781
296.916
298.53
304.037
304.236
312.572
304.164
308.443
305.063
305.927
305.948
306.18
309.006
305.414
315.053
308.14
312.433
310.492
308.732
304.943
307.211
306.278
304.57
305.547
304.356
305.107
304.842
309.093
308.379
309.459
309.6
310.524
311.243
313.788
313.846
314.712
317.966
315.635
317.242
319.216
315.495
314.101
323.519
328.608
321.697
295.333
274.369
255.279
268.248
287.064
264.318
263.152
291.4
286.933
283.354
304.825
291.949
283.853
294.499
297.289
296.299
297.099
284.698
289.863
281.274
291.14
297.976
295.652
288.884
270.631
263.936
275.311
286.733
287.671
281.909
280.44
281.366
282.545
284.162
284.806
285.178
285.197
285.47
285.125
284.711
284.67
284.209
283.753
283.803
284.291
285.857
289.324
292.907
292.193
286.735
282.769
283.869
287.519
290.934
289.372
286.592
282.895
281.549
283.662
285.802
287.978
287.767
291.242
290.921
293.014
294.763
294.515
297.886
300.658
298.872
297.879
302.044
304.359
299.018
295.206
296.996
296.995
294.8
293.835
293.124
291.849
290.144
288.484
286.848
286.081
287.563
289.979
290.349
288.431
288.114
289.249
287.791
287.085
291.049
297.571
301.502
301.471
302.274
306.281
309.412
309.024
309.244
312.433
315.066
313.658
309.505
307.508
308.038
307.427
305.921
308.023
306.314
303.465
307.985
308.942
303.92
300.648
307.916
313.598
303.814
295.756
297.395
308.101
316.559
316.335
311.821
307.288
303.6
301.458
298.003
297.515
294.075
294.558
296.88
295.592
293.543
294.073
293.42
294.576
298.025
307.057
304.144
308.485
305.956
307.583
305.49
305.917
306.966
302.399
310.745
306.601
310.094
311.078
307.014
308.034
305.716
306.267
306.599
303.446
305.593
304.061
305.409
308.462
306.761
310.477
309.009
310.402
311.121
312.655
312.589
314.768
314.705
312.674
314.977
315.27
310.891
315.076
329.133
324.045
302.895
278.597
264.158
252.611
268.964
280.734
268.937
278.793
296.47
288.986
286.761
304.386
293.842
289.165
290.295
292.765
299.064
293.007
283.118
298.799
291.318
296.593
297.981
297.121
294.961
282.692
271.326
274.623
284.224
291.923
292.541
288.852
285.719
283.583
283.026
282.62
282.971
284.012
285.063
286.166
287.149
287.255
287.459
287.065
286.936
287.946
286.558
284.507
285.847
289.402
291.881
290.676
287.948
286.139
286.725
287.246
283.408
281.734
281.073
282.642
284.019
287.233
288.079
289.617
290.457
290.231
293.741
294.989
297.017
300.243
301.562
298.163
299.684
304.439
301.911
296.323
296.171
296.864
294.946
293.602
293.132
292.179
290.823
289.308
287.94
287.219
287.816
288.549
287.876
287.443
288.646
288.929
287.395
287.753
292.384
298.738
301.882
301.808
302.384
306.099
309.249
308.739
308.336
311.734
315.637
314.622
311.063
309.434
310.876
310.173
308.743
311.529
307.111
300.269
301.761
305.497
302.621
296.693
303.004
307.837
299.893
291.879
296.623
305.963
311.618
310.645
307.155
303.649
302.239
302.299
300.647
301.519
298.96
296.562
296.455
297.954
297.549
297.318
295.213
291.589
291.131
296.287
300.094
304.737
305.397
308.367
306.216
307.609
305.6
302.07
306.85
304.45
308.713
308.418
306.995
308.774
305.56
308.106
306.37
304.53
306.839
303.774
306.804
307.378
306.631
310.013
307.123
309.895
310.764
309.8
311.588
311.644
309.578
311.977
312.23
309.929
310.343
317.787
327.353
311.861
284.986
269.306
254.798
249.519
272.564
283.77
282.549
294.792
300.602
289.076
288.228
299.209
293.375
294.621
287.552
295.196
295.164
285.121
288.885
301.947
293.952
297.828
297.726
297.389
297.191
292.663
284.843
284.055
288.628
294.052
297.742
297.475
295.032
291.968
289.555
287.36
285.968
284.83
284.05
284.974
285.397
286.073
287.285
286.388
285.821
286.72
286.6
285.966
285.101
283.924
285.408
287.06
285.446
285.44
284.978
285.322
285.229
284.507
285.498
286.919
288.081
288.416
290.283
289.896
291.3
291.402
294.258
296.077
298.839
298.773
300.125
300.681
298.483
302.647
304.454
298.791
296.155
296.816
295.243
293.629
293.403
292.728
291.352
290.104
289.218
288.764
288.303
288.291
288.736
289.215
289.364
288.414
287.417
289.012
294.031
299.508
301.756
301.523
302.036
305.516
309.586
309.595
307.576
308.861
311.585
312.164
310.408
308.141
308.948
307.92
306.935
310.013
306.114
299.288
297.634
304.1
303.287
295.738
304.203
310.138
299.212
292.509
298.691
310.547
313.72
311.035
307.656
304.535
301.481
298.004
296.171
294.683
293.763
294.475
293.225
294.092
295.877
298.565
298.871
296.482
291.308
290.068
294.371
297.613
302.563
305.72
306.516
307.682
304.84
303.376
302.885
303.352
305.512
305.68
306.487
306.793
305.882
308.157
305.937
306.513
306.623
304.686
307.904
305.606
306.253
308.313
305.276
309.071
308.656
306.401
310.877
306.434
306.579
310.665
305.859
306.611
314.428
316.095
317.985
298.138
274.566
266.465
253.029
251.543
273.879
285.045
292.523
303.025
302.248
290.801
289.919
294.595
294.534
295.414
287.126
299.94
285.269
282.284
299.113
299.997
292.457
290.956
297.134
296.54
296.932
296.888
294.499
293.822
296.001
298.893
300.621
299.579
296.923
293.734
290.871
288.745
286.452
284.611
283.911
283.655
282.132
283.17
284.504
283.28
283.701
284.63
285.387
286.547
285.885
285.894
286.654
285.26
282.852
282.858
286.276
286.921
287.413
288.204
289.38
289.976
290.549
289.872
290.396
290.276
291.397
292.561
293.152
295.374
296.473
300.07
299.234
301.332
301.36
300.014
304.65
302.825
296.93
296.608
296.152
294.006
293.297
293.169
292.343
291.19
290.252
289.85
289.824
289.388
289.444
290.207
290.602
289.675
289.042
290.906
295.832
300.679
302.443
301.971
301.938
304.483
309.157
311.159
309.511
308.13
308.028
308.548
309.293
308.105
309.4
309.356
308.184