/*--------------------------------*- C++ -*----------------------------------*\
| =========                 |                                                 |
| \\      /  F ield         | OpenFOAM: The Open Source CFD Toolbox           |
|  \\    /   O peration     | Version:  dev                                   |
|   \\  /    A nd           | Web:      http://www.openfoam.org               |
|    \\/     M anipulation  |                                                 |
\*---------------------------------------------------------------------------*/
FoamFile
{
    version     2.0;
    format      ascii;
    class       volVectorField;
    object      U;
    location    "9.127";
}
// * * * * * * * * * * * * * * * * * * * * * * * * * * * * * * * * * * * * * //

dimensions      [0 1 -1 0 0 0 0];

internalField   nonuniform List<vector> 
12225
(
(7.59073 0.248361 0)
(5.89654 0.0362534 0)
(4.79261 -0.141193 0)
(5.86536 -0.19447 0)
(5.36338 -0.181332 0)
(7.36643 -0.219235 0)
(6.88331 -0.181489 0)
(9.04336 -0.265503 0)
(8.44387 -0.174656 0)
(11.1527 -0.329573 0)
(10.1805 -0.157253 0)
(13.8859 -0.44241 0)
(12.5826 -0.113797 0)
(17.2986 -0.572522 0)
(18.5565 -0.302843 0)
(21.0729 0.397583 0)
(30.2819 -5.38227 0)
(36.6598 2.2187 0)
(10.2693 0.412525 0)
(10.8761 0.412723 0)
(8.4932 -0.0262262 0)
(10.3495 -0.284562 0)
(7.18141 -0.422774 0)
(11.1064 -0.548561 0)
(7.54372 -0.499915 0)
(12.4447 -0.671575 0)
(8.19006 -0.587207 0)
(14.8578 -0.8608 0)
(9.20017 -0.758717 0)
(18.8223 -1.18538 0)
(11.3323 -1.0363 0)
(24.0412 -2.42192 0)
(16.7048 -0.458167 0)
(30.3928 -5.97325 0)
(30.7362 -5.60218 0)
(48.045 -12.6816 0)
(9.99847 -0.0346352 0)
(13.5652 0.289961 0)
(10.0458 -0.208339 0)
(14.6387 -0.348566 0)
(9.02679 -0.643411 0)
(15.6781 -0.777636 0)
(9.08724 -0.855021 0)
(17.1687 -0.992076 0)
(9.71275 -1.10066 0)
(19.443 -1.40366 0)
(11.6085 -1.40746 0)
(21.9563 -2.01206 0)
(15.1728 -1.79416 0)
(23.958 -3.21175 0)
(20.314 -2.20333 0)
(27.2035 -7.00258 0)
(27.3686 -8.67108 0)
(36.104 -8.95555 0)
(7.90537 -0.783043 0)
(15.7751 -0.0234963 0)
(9.99403 -0.578841 0)
(17.4861 -0.540046 0)
(10.9478 -0.876237 0)
(18.468 -1.14481 0)
(12.0212 -1.14591 0)
(19.594 -1.59009 0)
(13.3438 -1.36133 0)
(20.8084 -2.38207 0)
(15.1388 -1.60391 0)
(22.3538 -3.52981 0)
(17.6932 -1.83304 0)
(24.0875 -4.99853 0)
(22.15 -2.43211 0)
(26.0903 -9.88732 0)
(24.481 -10.4622 0)
(36.1816 -9.96869 0)
(7.18498 -1.02583 0)
(15.1271 -0.901024 0)
(10.9668 -0.907426 0)
(16.6645 -1.24825 0)
(13.1316 -1.08462 0)
(17.5493 -1.78804 0)
(14.6991 -1.36321 0)
(18.5346 -2.29939 0)
(16.1047 -1.60801 0)
(19.5638 -3.02892 0)
(17.0482 -1.89298 0)
(20.8505 -4.3015 0)
(18.3661 -2.25801 0)
(22.7074 -6.04632 0)
(21.3508 -2.85099 0)
(26.4098 -12.1141 0)
(20.3876 -12.2868 0)
(35.1045 -12.0442 0)
(9.64974 -1.60375 0)
(12.3434 -1.67346 0)
(11.9243 -1.37551 0)
(13.6669 -1.94951 0)
(13.7584 -1.55 0)
(14.9533 -2.38295 0)
(15.5273 -1.84979 0)
(16.3739 -2.92472 0)
(16.8814 -2.07134 0)
(17.4856 -3.57757 0)
(17.6619 -2.43934 0)
(18.9118 -5.15394 0)
(18.7932 -3.16786 0)
(20.7826 -7.02288 0)
(21.1991 -4.66362 0)
(24.6622 -10.8242 0)
(18.0227 -11.7439 0)
(28.9825 -17.6202 0)
(10.4607 -2.04394 0)
(10.9679 -2.5318 0)
(12.6799 -1.49786 0)
(12.6811 -2.79109 0)
(14.2629 -1.69763 0)
(14.129 -3.33905 0)
(15.9445 -1.97915 0)
(15.538 -3.99603 0)
(17.3836 -2.138 0)
(16.8009 -4.67746 0)
(19.0042 -2.53352 0)
(18.5028 -6.17625 0)
(20.8864 -3.2545 0)
(20.4936 -8.17744 0)
(22.8064 -5.34865 0)
(22.6916 -11.7362 0)
(20.2953 -9.8897 0)
(16.4536 -17.2666 0)
(10.782 -2.65248 0)
(11.1224 -2.96279 0)
(12.7883 -2.03832 0)
(12.9619 -3.26091 0)
(14.2204 -2.3771 0)
(14.5847 -3.76346 0)
(15.6445 -2.66157 0)
(15.957 -4.32352 0)
(16.932 -2.95443 0)
(17.3695 -5.04328 0)
(18.6724 -3.69786 0)
(19.1874 -6.43404 0)
(20.3052 -4.77801 0)
(21.0401 -8.25534 0)
(21.3603 -6.99296 0)
(21.8686 -10.6621 0)
(20.2125 -9.72456 0)
(16.2608 -14.0017 0)
(11.0615 -3.01775 0)
(10.892 -3.66647 0)
(12.8358 -2.24367 0)
(12.6128 -3.96812 0)
(14.3615 -2.65879 0)
(14.0811 -4.45416 0)
(15.7694 -2.98145 0)
(15.4239 -5.03431 0)
(17.0984 -3.37042 0)
(16.9194 -5.90961 0)
(18.604 -4.16203 0)
(18.6076 -7.27223 0)
(19.943 -5.40916 0)
(19.9722 -8.92703 0)
(20.401 -7.1072 0)
(20.5053 -10.9638 0)
(19.9281 -8.94304 0)
(18.4373 -12.8701 0)
(10.7868 -3.79528 0)
(11.2973 -4.11171 0)
(12.8813 -2.83971 0)
(13.0019 -4.29686 0)
(14.181 -3.35644 0)
(14.2989 -4.74141 0)
(15.4101 -3.76049 0)
(15.6654 -5.18206 0)
(16.6893 -4.40427 0)
(17.1165 -5.92984 0)
(18.0098 -5.34879 0)
(18.6107 -7.05809 0)
(19.1738 -6.68585 0)
(19.6619 -8.4014 0)
(19.6499 -8.3839 0)
(19.9839 -9.97395 0)
(19.3452 -10.1352 0)
(18.7508 -11.6689 0)
(10.7665 -4.40701 0)
(11.2116 -4.8566 0)
(12.6573 -3.40442 0)
(12.9818 -4.92634 0)
(13.9651 -3.84633 0)
(14.16 -5.42857 0)
(15.0282 -4.36057 0)
(15.4242 -5.99501 0)
(16.2687 -5.06271 0)
(16.7434 -6.85001 0)
(17.5176 -6.03087 0)
(17.976 -7.86842 0)
(18.5524 -7.36258 0)
(18.8478 -9.00579 0)
(19.0027 -8.89259 0)
(19.0745 -10.3283 0)
(18.9174 -10.5767 0)
(18.5584 -11.2299 0)
(10.6745 -5.27453 0)
(11.3651 -5.28504 0)
(12.3263 -4.32279 0)
(12.8482 -5.30255 0)
(13.653 -4.74276 0)
(14.2091 -5.70702 0)
(14.8868 -5.3353 0)
(15.4751 -6.2768 0)
(16.0343 -6.18563 0)
(16.5846 -7.03244 0)
(17.0283 -7.14482 0)
(17.5495 -7.96503 0)
(17.8887 -8.30203 0)
(18.1992 -9.03467 0)
(18.2593 -9.55175 0)
(18.3285 -10.2515 0)
(18.2526 -10.748 0)
(18.1433 -11.1806 0)
(10.5474 -6.11596 0)
(11.3407 -5.91164 0)
(12.1233 -5.13537 0)
(12.7087 -5.94949 0)
(13.385 -5.59474 0)
(13.9592 -6.42169 0)
(14.5399 -6.20519 0)
(15.0934 -6.9905 0)
(15.5851 -6.97307 0)
(16.0905 -7.70827 0)
(16.539 -7.87259 0)
(16.9278 -8.58461 0)
(17.2879 -8.97911 0)
(17.5393 -9.58365 0)
(17.6291 -10.0686 0)
(17.7031 -10.6027 0)
(17.696 -11.0552 0)
(17.648 -11.4321 0)
(10.4599 -7.08564 0)
(11.1603 -6.42521 0)
(11.7921 -6.05714 0)
(12.4054 -6.46354 0)
(13.0253 -6.41768 0)
(13.6263 -6.89384 0)
(14.1538 -7.02744 0)
(14.6862 -7.54948 0)
(15.1346 -7.82669 0)
(15.6009 -8.31854 0)
(15.9754 -8.65105 0)
(16.3382 -9.12364 0)
(16.6934 -9.50579 0)
(16.9616 -9.97433 0)
(17.0824 -10.354 0)
(17.1638 -10.7678 0)
(17.2231 -11.157 0)
(17.2239 -11.5238 0)
(10.4214 -8.03934 0)
(11.1475 -7.03391 0)
(11.7309 -6.86057 0)
(12.2934 -7.15874 0)
(12.843 -7.26693 0)
(13.4453 -7.6004 0)
(13.961 -7.79624 0)
(14.4616 -8.15704 0)
(14.8676 -8.47858 0)
(15.2692 -8.9057 0)
(15.5934 -9.28977 0)
(15.9054 -9.67584 0)
(16.2102 -10.077 0)
(16.4684 -10.4549 0)
(16.6756 -10.8134 0)
(16.8019 -11.1175 0)
(16.8388 -11.367 0)
(16.8901 -11.6391 0)
(10.2785 -8.91339 0)
(10.8734 -7.55917 0)
(11.3649 -7.46541 0)
(11.8373 -7.69384 0)
(12.35 -7.87707 0)
(12.9642 -8.12689 0)
(13.5326 -8.39226 0)
(14.0799 -8.71512 0)
(14.5365 -9.03837 0)
(14.9887 -9.39759 0)
(15.3493 -9.73352 0)
(15.5955 -10.044 0)
(15.834 -10.3499 0)
(16.0627 -10.6475 0)
(16.1755 -10.9287 0)
(16.3318 -11.1797 0)
(16.4064 -11.3787 0)
(16.4621 -11.5705 0)
(10.6632 -9.42882 0)
(11.0118 -7.87421 0)
(11.4574 -7.80596 0)
(11.895 -8.06868 0)
(12.3427 -8.33584 0)
(12.8455 -8.6207 0)
(13.284 -8.8835 0)
(13.76 -9.14468 0)
(14.1256 -9.39271 0)
(14.5127 -9.6362 0)
(14.8468 -9.87915 0)
(15.1376 -10.1234 0)
(15.3786 -10.3229 0)
(15.6006 -10.5492 0)
(15.7984 -10.7619 0)
(15.9929 -10.9673 0)
(16.0861 -11.1342 0)
(16.1845 -11.3067 0)
(10.42 -9.41009 0)
(10.8485 -7.97933 0)
(11.3883 -7.99359 0)
(11.8608 -8.1681 0)
(12.2263 -8.30099 0)
(12.6069 -8.47872 0)
(12.9873 -8.69891 0)
(13.4009 -8.95855 0)
(13.7734 -9.23401 0)
(14.1827 -9.47045 0)
(14.5149 -9.72551 0)
(14.8435 -9.92595 0)
(15.1373 -10.1109 0)
(15.3974 -10.2584 0)
(15.5943 -10.3835 0)
(15.82 -10.5033 0)
(15.9535 -10.5887 0)
(16.0907 -10.6742 0)
(10.3405 -9.19881 0)
(10.5687 -7.79868 0)
(11.0333 -7.66831 0)
(11.5268 -7.78283 0)
(11.9714 -7.95923 0)
(12.4232 -8.17912 0)
(12.835 -8.42216 0)
(13.2821 -8.64213 0)
(13.6872 -8.84653 0)
(14.0826 -8.99824 0)
(14.4287 -9.15326 0)
(14.7727 -9.28216 0)
(15.0529 -9.40067 0)
(15.3388 -9.50489 0)
(15.5803 -9.59363 0)
(15.8155 -9.67512 0)
(15.9894 -9.73161 0)
(16.1774 -9.79736 0)
(10.1686 -8.51301 0)
(10.3564 -7.33474 0)
(10.8692 -7.27861 0)
(11.447 -7.37742 0)
(12.0048 -7.51877 0)
(12.4734 -7.65781 0)
(12.834 -7.80187 0)
(13.1535 -7.95188 0)
(13.459 -8.11533 0)
(13.8258 -8.26172 0)
(14.1572 -8.38097 0)
(14.5356 -8.49649 0)
(14.8842 -8.59634 0)
(15.2207 -8.66773 0)
(15.5292 -8.72617 0)
(15.8366 -8.77678 0)
(16.0628 -8.80131 0)
(16.293 -8.8235 0)
(10.119 -7.61232 0)
(10.2406 -6.55292 0)
(10.6587 -6.59817 0)
(11.1159 -6.74346 0)
(11.5998 -6.85875 0)
(12.129 -6.94819 0)
(12.5741 -7.0327 0)
(12.9639 -7.12617 0)
(13.3307 -7.24253 0)
(13.7346 -7.39737 0)
(14.1246 -7.52933 0)
(14.5024 -7.63499 0)
(14.8715 -7.73211 0)
(15.2378 -7.79319 0)
(15.5695 -7.82397 0)
(15.8951 -7.85159 0)
(16.167 -7.85627 0)
(16.4404 -7.85874 0)
(10.3144 -6.7421 0)
(10.3899 -5.8022 0)
(10.8332 -5.79639 0)
(11.2744 -5.92469 0)
(11.6755 -6.0621 0)
(12.1008 -6.19451 0)
(12.5215 -6.30776 0)
(12.9145 -6.35975 0)
(13.2751 -6.42708 0)
(13.6869 -6.51237 0)
(14.1283 -6.6243 0)
(14.522 -6.70754 0)
(14.8912 -6.78406 0)
(15.2626 -6.83458 0)
(15.6034 -6.85467 0)
(15.9545 -6.89151 0)
(16.2558 -6.8939 0)
(16.5577 -6.87549 0)
(10.2113 -5.66924 0)
(10.2602 -4.96276 0)
(10.7703 -5.06988 0)
(11.3196 -5.19574 0)
(11.7977 -5.25505 0)
(12.2536 -5.29391 0)
(12.6978 -5.38607 0)
(13.1033 -5.48824 0)
(13.4672 -5.57209 0)
(13.8549 -5.62768 0)
(14.3038 -5.73086 0)
(14.7212 -5.8044 0)
(15.1011 -5.85381 0)
(15.4889 -5.90623 0)
(15.8167 -5.9468 0)
(16.144 -5.97432 0)
(16.4782 -5.97923 0)
(16.7645 -5.97071 0)
(10.0514 -4.93915 0)
(10.4265 -4.25496 0)
(11.0552 -4.31468 0)
(11.4907 -4.44096 0)
(11.82 -4.49252 0)
(12.1655 -4.51151 0)
(12.5897 -4.5584 0)
(13.0658 -4.65091 0)
(13.5163 -4.74816 0)
(13.9389 -4.78528 0)
(14.4002 -4.86387 0)
(14.8623 -4.92532 0)
(15.2659 -4.96021 0)
(15.6364 -4.98208 0)
(16.0017 -5.00012 0)
(16.3528 -4.97056 0)
(16.6646 -4.9659 0)
(16.9506 -4.95922 0)
(10.2034 -4.13137 0)
(10.3614 -3.68124 0)
(11.0021 -3.63691 0)
(11.5615 -3.6475 0)
(12.003 -3.65172 0)
(12.4476 -3.6917 0)
(12.8996 -3.75946 0)
(13.3426 -3.86512 0)
(13.7628 -3.99936 0)
(14.1417 -4.06644 0)
(14.511 -4.08886 0)
(14.9263 -4.11848 0)
(15.3126 -4.14139 0)
(15.7068 -4.12858 0)
(16.1077 -4.12898 0)
(16.4763 -4.13139 0)
(16.8232 -4.14801 0)
(17.1512 -4.14424 0)
(10.2002 -3.34141 0)
(10.4872 -3.00361 0)
(11.1628 -2.98489 0)
(11.7765 -3.00926 0)
(12.2526 -3.01171 0)
(12.7329 -3.02481 0)
(13.1748 -3.03978 0)
(13.6053 -3.08068 0)
(13.9694 -3.14787 0)
(14.3196 -3.21998 0)
(14.637 -3.24468 0)
(14.9899 -3.27664 0)
(15.3447 -3.33274 0)
(15.713 -3.34038 0)
(16.0563 -3.33505 0)
(16.3917 -3.34372 0)
(16.6806 -3.33058 0)
(16.9521 -3.31892 0)
(9.84031 -2.67612 0)
(10.3333 -2.54975 0)
(11.2207 -2.52862 0)
(11.8997 -2.48515 0)
(12.3651 -2.41873 0)
(12.7765 -2.38915 0)
(13.1191 -2.38145 0)
(13.4424 -2.39329 0)
(13.6856 -2.46064 0)
(13.9463 -2.48272 0)
(14.1524 -2.50635 0)
(14.3613 -2.52411 0)
(14.5678 -2.55918 0)
(14.7665 -2.57127 0)
(14.9376 -2.54772 0)
(15.0932 -2.54665 0)
(15.2151 -2.52691 0)
(15.3482 -2.5133 0)
(9.99914 -1.92593 0)
(10.704 -2.08017 0)
(11.4265 -1.97544 0)
(11.702 -1.87563 0)
(11.7713 -1.77018 0)
(11.8059 -1.71773 0)
(11.8667 -1.68931 0)
(11.934 -1.67567 0)
(11.9613 -1.6891 0)
(12.0201 -1.69173 0)
(12.0208 -1.675 0)
(12.0514 -1.66316 0)
(12.0542 -1.68738 0)
(12.0576 -1.6872 0)
(12.0758 -1.65771 0)
(12.0847 -1.66045 0)
(12.1055 -1.66255 0)
(12.1346 -1.64195 0)
(10.3499 -1.60793 0)
(10.2219 -1.7618 0)
(9.92387 -1.49883 0)
(9.36565 -1.25409 0)
(8.88637 -1.06037 0)
(8.53413 -0.943785 0)
(8.29905 -0.894188 0)
(8.16733 -0.874301 0)
(8.08857 -0.862249 0)
(8.04556 -0.870816 0)
(8.05569 -0.848354 0)
(8.11632 -0.849341 0)
(8.17122 -0.855931 0)
(8.24836 -0.866356 0)
(8.32107 -0.867507 0)
(8.40646 -0.87774 0)
(8.51076 -0.902466 0)
(8.62702 -0.895397 0)
(8.57628 -0.69964 0)
(6.27693 -0.567171 0)
(4.88677 -0.327474 0)
(4.13845 -0.220726 0)
(3.96067 -0.192989 0)
(4.07219 -0.190248 0)
(4.31586 -0.200583 0)
(4.61915 -0.210369 0)
(4.92504 -0.220374 0)
(5.23241 -0.228186 0)
(5.55536 -0.225918 0)
(5.88694 -0.232809 0)
(6.20943 -0.231383 0)
(6.50983 -0.239782 0)
(6.78633 -0.245335 0)
(7.04288 -0.257655 0)
(7.26037 -0.281397 0)
(7.4031 -0.288253 0)
(-0.17841 -0.45081 0)
(-0.602659 -0.405259 0)
(-1.05786 -0.366955 0)
(-1.53396 -0.386381 0)
(-1.93856 -0.387183 0)
(-2.34316 -0.390563 0)
(-2.7475 -0.392898 1.13982e-17)
(-3.16929 -0.370719 -1.13086e-17)
(-3.60594 -0.359735 0)
(-4.05497 -0.339085 -1.11642e-17)
(-4.52393 -0.319229 0)
(-5.01234 -0.310612 0)
(-5.52737 -0.305297 0)
(-6.06201 -0.291486 1.09072e-17)
(-6.60425 -0.265877 0)
(-7.15652 -0.254139 0)
(-7.72042 -0.242682 -1.07185e-17)
(-8.28974 -0.2315 0)
(-8.86402 -0.222311 0)
(-9.43054 -0.22027 0)
(-9.97008 -0.229717 1.04522e-17)
(-10.4919 -0.24796 0)
(-10.9945 -0.270259 1.03106e-17)
(-11.4585 -0.299068 0)
(-11.8767 -0.330799 0)
(-12.242 -0.353842 1.00983e-17)
(-12.5556 -0.376551 0)
(-12.8285 -0.400871 -9.9605e-18)
(-13.0578 -0.402871 0)
(-13.276 -0.396049 9.82607e-18)
(-13.48 -0.389469 0)
(-13.6632 -0.399148 0)
(-13.8435 -0.392875 0)
(-13.9981 -0.390494 0)
(-14.122 -0.424349 0)
(-14.1551 -0.463579 -9.43629e-18)
(-14.1242 -0.517142 0)
(-13.9688 -0.56998 1.86082e-17)
(-13.7085 -0.623545 0)
(-13.331 -0.67077 -1.83422e-17)
(-12.8558 -0.721367 0)
(-12.317 -0.73995 0)
(-11.716 -0.721117 1.79703e-17)
(-11.1129 -0.685512 0)
(-10.5389 -0.644199 1.77392e-17)
(-9.98274 -0.615884 -1.76209e-17)
(-9.38523 -0.561907 0)
(-8.81128 -0.470717 -1.73724e-17)
(-8.30277 -0.407824 -1.72656e-17)
(-7.84424 -0.375272 0)
(-7.43905 -0.292262 0)
(-7.1152 -0.0627271 0)
(-7.01648 0.314794 0)
(-7.29373 0.595089 0)
(-7.82481 0.522418 1.67658e-17)
(-8.40036 0.113557 0)
(-8.99019 -0.351118 -1.65342e-17)
(-9.50085 -0.542205 0)
(-9.81409 -0.477223 0)
(-9.96963 -0.416773 1.61012e-17)
(-10.0977 -0.271279 0)
(-10.2868 -0.120822 -1.59128e-17)
(-10.5414 -0.0875265 0)
(-10.6739 -0.149257 0)
(-10.5454 -0.349066 0)
(-10.257 -0.528377 1.5379e-17)
(-9.98215 -0.627549 0)
(-9.56648 -0.75845 0)
(-8.78052 -0.984372 1.50118e-17)
(-7.64585 -1.05034 0)
(-6.43205 -0.825647 1.47407e-17)
(-5.53258 -0.337367 0)
(-5.22387 0.221617 0)
(-5.25217 0.35586 0)
(-5.23764 -0.0580776 -1.43235e-17)
(-5.04603 -0.74474 0)
(-4.78244 -1.24091 0)
(-4.64743 -1.20651 -1.44115e-17)
(-4.89926 -0.67928 -1.43822e-17)
(-5.58271 -0.0623575 0)
(-6.51797 0.318011 -1.38899e-17)
(-7.52509 0.441165 0)
(-8.48019 0.416469 -2.69199e-17)
(-9.32627 0.426749 0)
(-10.0917 0.377653 -2.6312e-17)
(-10.7234 0.331891 0)
(-11.157 0.317035 2.58284e-17)
(-11.5107 0.227965 0)
(-11.7031 0.212344 0)
(-11.7579 0.154811 0)
(-11.6599 0.134691 -2.4968e-17)
(-11.4723 0.117293 0)
(-11.2153 0.0960851 2.45894e-17)
(-10.7411 0.0371906 0)
(-10.0386 -0.067263 -2.43067e-17)
(-9.12081 -0.116841 -2.40888e-17)
(-8.19318 -0.0756736 -2.38291e-17)
(-7.45407 -0.0136885 0)
(-6.73565 0.0106089 0)
(-5.90807 0.0224309 0)
(-5.2482 0.0853393 0)
(-3.68103 -0.189209 0)
(-2.91105 0.27622 0)
(-2.15975 0.0887492 0)
(-1.26955 0.208369 0)
(-0.478092 0.203872 2.23501e-17)
(0.326468 0.330799 2.21735e-17)
(0.982981 0.377199 0)
(1.51922 0.492583 0)
(1.95939 0.563399 0)
(2.29182 0.66828 2.15964e-17)
(2.5404 0.750305 0)
(2.61761 0.847369 0)
(2.54799 0.951929 0)
(2.30667 1.06722 0)
(1.92428 1.16292 -2.11095e-17)
(1.33234 1.30096 0)
(0.607812 1.4244 0)
(-0.380548 1.51713 2.09184e-17)
(-1.46193 1.63588 -2.07653e-17)
(-2.64707 1.79591 0)
(-3.84936 1.88105 -2.06229e-17)
(-5.14931 1.95106 0)
(-6.40943 2.07532 2.03575e-17)
(-7.70639 2.20786 0)
(-8.95322 2.35531 0)
(-10.2705 2.41298 0)
(-11.4875 2.40228 0)
(-12.476 2.41756 0)
(-13.0235 2.43314 -3.96212e-17)
(-13.4775 2.53452 -3.95214e-17)
(-13.8691 2.65013 0)
(-14.4267 2.72616 0)
(-14.8988 2.79637 0)
(-15.5469 2.86734 3.84981e-17)
(-15.9298 2.91451 0)
(-16.1763 2.97413 0)
(-16.612 3.12129 0)
(-17.0821 3.28422 3.70302e-17)
(-17.4873 3.44192 -3.6606e-17)
(-17.8549 3.52278 0)
(-18.0526 3.58984 0)
(-17.8305 3.58223 -3.54533e-17)
(-17.4016 3.54522 -3.5233e-17)
(-16.6072 3.40943 0)
(-15.5412 3.42906 0)
(-14.4243 3.32564 3.43742e-17)
(-13.0574 3.44318 -3.42664e-17)
(-11.7117 3.37294 0)
(-10.4382 3.4004 0)
(-9.27652 3.29803 -3.36005e-17)
(-8.37587 3.38459 0)
(-7.04375 3.16467 0)
(-6.20938 3.20758 -3.30345e-17)
(-4.73807 2.98102 0)
(-3.42593 2.94204 -3.26851e-17)
(-2.35826 2.88522 0)
(-0.642225 2.60617 0)
(0.689194 2.7088 0)
(1.9163 2.65575 3.20887e-17)
(3.52755 2.52997 0)
(4.96339 2.56987 0)
(6.372 2.52479 0)
(7.69189 2.49737 0)
(8.83888 2.5072 0)
(9.65819 2.44405 0)
(10.5061 2.35947 3.04699e-17)
(11.1293 2.33852 3.01969e-17)
(11.8814 2.29798 0)
(12.3556 2.29371 0)
(12.9169 2.23353 0)
(13.1901 2.18855 -2.91108e-17)
(13.3177 2.07673 0)
(14.1127 1.74078 5.72271e-17)
(14.5572 1.77189 -5.73862e-17)
(14.8623 1.68767 -5.80953e-17)
(14.6903 1.47401 5.84202e-17)
(13.8016 1.44114 -5.76297e-17)
(13.0276 1.37974 5.71201e-17)
(11.7776 1.34577 0)
(-0.2179 -1.09191 0)
(-0.807623 -0.934912 0)
(-1.29513 -0.904096 -2.34412e-17)
(-1.80285 -1.02107 0)
(-2.24564 -1.14992 2.3622e-17)
(-2.6701 -1.1716 2.33525e-17)
(-3.12654 -1.15289 1.15663e-17)
(-3.59602 -1.10579 1.14995e-17)
(-4.06343 -1.06687 0)
(-4.54866 -1.01861 1.13174e-17)
(-5.06747 -0.969069 0)
(-5.6155 -0.896421 0)
(-6.11541 -0.800481 -2.21056e-17)
(-6.5921 -0.774468 -1.0985e-17)
(-7.13716 -0.777668 2.1773e-17)
(-7.72318 -0.735481 2.15985e-17)
(-8.28864 -0.711949 1.07282e-17)
(-8.86871 -0.699051 0)
(-9.46556 -0.720782 0)
(-10.0718 -0.775852 0)
(-10.6831 -0.79805 1.0368e-17)
(-11.2714 -0.822697 0)
(-11.8117 -0.871481 -3.06841e-17)
(-12.2909 -0.975505 0)
(-12.6993 -1.08067 0)
(-13.0187 -1.19695 -1.00114e-17)
(-13.2902 -1.30732 0)
(-13.5039 -1.38132 9.8802e-18)
(-13.6745 -1.40264 1.96087e-17)
(-13.8527 -1.39431 -9.75281e-18)
(-14.0283 -1.40423 0)
(-14.2151 -1.41536 0)
(-14.4 -1.36791 0)
(-14.5221 -1.34575 1.89746e-17)
(-14.6727 -1.47948 1.88636e-17)
(-14.6454 -1.60491 9.37741e-18)
(-14.5887 -1.80399 0)
(-14.3494 -2.00836 -1.8501e-17)
(-14.0193 -2.21838 0)
(-13.5749 -2.37979 1.8247e-17)
(-13.0241 -2.59248 0)
(-12.4073 -2.69264 0)
(-11.7241 -2.70101 -1.78715e-17)
(-11.0099 -2.63007 0)
(-10.3094 -2.51038 -5.28865e-17)
(-9.74818 -2.49528 1.75446e-17)
(-9.02204 -2.47521 0)
(-8.23966 -2.3388 1.72593e-17)
(-7.51231 -2.22892 1.71184e-17)
(-6.73416 -2.0493 0)
(-6.0913 -1.81864 0)
(-5.38826 -1.59552 0)
(-4.64016 -1.1827 0)
(-3.98662 -0.558372 0)
(-3.5042 -0.0955765 -1.65769e-17)
(-3.31067 0.336524 -3.28578e-17)
(-3.53124 0.852571 1.63417e-17)
(-4.34968 0.789548 0)
(-5.36372 0.137494 -3.27023e-17)
(-6.31119 -0.331167 1.6072e-17)
(-7.20273 -0.358708 0)
(-7.65714 -0.434088 1.56047e-17)
(-8.06848 -0.670311 0)
(-8.44353 -0.875826 0)
(-8.39847 -1.42099 3.05521e-17)
(-8.14024 -1.67372 -1.51075e-17)
(-7.87436 -1.52669 2.99926e-17)
(-7.41364 -1.90486 -2.99879e-17)
(-6.60687 -2.80582 -1.49659e-17)
(-5.55882 -3.34888 0)
(-4.51116 -3.16844 -1.45913e-17)
(-3.53387 -2.52401 0)
(-2.8195 -1.93099 0)
(-2.40182 -1.74505 0)
(-2.55792 -1.65692 -1.41942e-17)
(-3.5814 -1.27152 0)
(-5.24663 -0.668848 -2.75319e-17)
(-7.05776 -0.0328694 4.04549e-17)
(-8.66373 0.439616 1.32651e-17)
(-9.99576 0.674675 0)
(-11.0437 0.751832 1.29157e-17)
(-11.8802 0.724831 0)
(-12.5989 0.617862 2.54239e-17)
(-13.2092 0.506717 0)
(-13.7161 0.378877 2.52293e-17)
(-14.0007 0.231716 -5.03336e-17)
(-14.1802 0.112017 -2.51235e-17)
(-14.2147 -0.0700064 0)
(-14.1154 -0.16247 0)
(-13.9526 -0.257456 0)
(-13.5487 -0.285327 2.46613e-17)
(-13.1311 -0.374335 0)
(-12.6793 -0.465748 -2.45557e-17)
(-12.0178 -0.695934 0)
(-11.0934 -0.931008 7.41295e-17)
(-9.94755 -0.933892 2.43856e-17)
(-8.76899 -0.691352 2.3835e-17)
(-7.76 -0.49625 0)
(-6.83377 -0.461861 0)
(-5.8335 -0.41048 0)
(-5.28595 -0.328223 0)
(-3.08753 -1.01794 0)
(-2.64559 0.408388 4.46545e-17)
(-1.47703 -0.169134 4.59124e-17)
(-0.827474 0.195541 0)
(0.37696 0.187155 -2.23079e-17)
(1.128 0.541298 -2.18717e-17)
(2.0044 0.685728 0)
(2.55246 1.00895 -4.27627e-17)
(3.12649 1.19779 0)
(3.48408 1.45539 2.08851e-17)
(3.84532 1.69952 0)
(3.98345 1.97977 0)
(4.03321 2.24968 -4.01775e-17)
(3.82572 2.57533 0)
(3.60591 2.90453 1.96866e-17)
(3.11755 3.28977 0)
(2.54944 3.64425 0)
(1.76202 4.14574 1.9184e-17)
(0.864143 4.49983 1.9152e-17)
(-0.317756 4.72147 0)
(-1.35255 4.9744 -1.88208e-17)
(-2.3665 5.37922 0)
(-3.4894 5.6749 1.88661e-17)
(-4.7675 5.88332 3.74659e-17)
(-5.7821 6.21439 0)
(-6.83528 6.68113 0)
(-7.92357 6.91665 0)
(-9.15741 6.94154 0)
(-9.9418 6.92955 3.73673e-17)
(-10.7729 7.14461 1.13376e-16)
(-11.1803 7.51643 0)
(-11.9825 7.98366 0)
(-12.8297 8.40927 0)
(-13.9774 8.86143 -3.76581e-17)
(-14.9945 8.89273 0)
(-15.7905 9.39634 0)
(-16.6969 9.91237 7.20404e-17)
(-17.8802 10.1337 3.55236e-17)
(-18.698 10.248 3.49058e-17)
(-19.2174 10.2944 0)
(-19.3953 10.1987 0)
(-19.0955 9.92296 3.36406e-17)
(-18.3491 9.85548 -3.34732e-17)
(-17.6032 9.34969 0)
(-16.2131 9.53166 0)
(-15.0401 9.24788 -3.26382e-17)
(-13.5928 9.55033 9.7695e-17)
(-12.0825 9.40493 0)
(-10.9507 9.45357 0)
(-9.28595 9.23195 3.2107e-17)
(-8.62489 9.24573 0)
(-6.49083 8.70577 6.39627e-17)
(-6.08423 8.6983 -3.18253e-17)
(-3.71391 8.03838 0)
(-2.5434 7.96995 3.15088e-17)
(-0.966424 7.80251 6.38231e-17)
(0.917778 7.16239 0)
(2.49516 7.29415 0)
(4.08675 7.14773 -3.16501e-17)
(5.96719 6.78497 0)
(7.6575 6.8313 6.25616e-17)
(9.47377 6.71205 0)
(11.1902 6.71235 0)
(12.9174 6.86695 0)
(13.8497 6.98147 0)
(14.7335 6.97454 -2.91934e-17)
(14.6154 6.88123 -2.85928e-17)
(14.8023 6.67713 0)
(14.5182 6.48731 0)
(14.6789 6.15645 0)
(14.3682 5.83265 2.672e-17)
(14.1957 5.30985 0)
(15.2943 4.56881 -5.10494e-17)
(15.029 4.3692 5.08837e-17)
(15.936 4.12421 5.26113e-17)
(16.847 4.11752 5.48456e-17)
(15.6676 4.08248 5.47783e-17)
(14.6914 3.87558 5.32238e-17)
(13.3206 4.18263 0)
(-0.190149 -1.50438 0)
(-0.867784 -1.34997 0)
(-1.4287 -1.58801 2.40975e-17)
(-1.95085 -1.70947 2.38253e-17)
(-2.35395 -1.84834 -2.38039e-17)
(-2.73779 -1.83052 -2.36204e-17)
(-3.13342 -1.73863 -5.36718e-20)
(-3.60875 -1.68401 0)
(-4.11917 -1.64875 0)
(-4.65269 -1.54493 0)
(-5.11498 -1.41337 0)
(-5.4944 -1.43755 0)
(-6.02611 -1.62591 6.59435e-17)
(-6.69754 -1.54362 0)
(-7.24309 -1.23068 -2.15198e-17)
(-7.83529 -1.2315 -2.1361e-17)
(-8.55322 -1.16463 0)
(-9.24725 -1.07891 0)
(-10.027 -0.993793 0)
(-10.793 -0.911974 0)
(-11.5393 -0.958836 -2.06413e-17)
(-12.2266 -1.05026 0)
(-12.7983 -1.2714 2.03913e-17)
(-13.2975 -1.51369 0)
(-13.6584 -1.80954 0)
(-13.8854 -2.06807 0)
(-14.0624 -2.25249 3.98187e-17)
(-14.207 -2.33413 0)
(-14.3161 -2.34868 -1.97123e-17)
(-14.4666 -2.3289 3.90926e-17)
(-14.6279 -2.25869 0)
(-14.8321 -2.15989 0)
(-15.0477 -2.10776 0)
(-15.2352 -2.20974 -1.90903e-17)
(-15.4067 -2.42913 -1.89612e-17)
(-15.3839 -2.68246 0)
(-15.3053 -3.07679 0)
(-15.0739 -3.42684 3.71766e-17)
(-14.7023 -3.78387 3.69514e-17)
(-14.2224 -4.05773 -3.67087e-17)
(-13.6464 -4.3349 0)
(-13.0219 -4.41913 0)
(-12.4068 -4.429 0)
(-11.8025 -4.31568 0)
(-11.1171 -4.03265 3.54782e-17)
(-10.6229 -4.03668 3.52522e-17)
(-10.0375 -4.04879 -3.50065e-17)
(-9.32118 -3.76272 0)
(-8.70614 -3.77701 0)
(-7.70618 -3.74225 0)
(-6.90499 -3.30636 0)
(-6.28397 -3.24896 3.39699e-17)
(-5.21246 -2.93213 0)
(-4.32911 -1.98388 0)
(-3.67729 -1.22364 3.3113e-17)
(-3.21265 -0.654353 3.29042e-17)
(-2.74531 -0.122395 0)
(-2.35989 0.467861 -6.48386e-17)
(-2.4817 1.04274 3.22799e-17)
(-3.08051 0.964286 -3.22053e-17)
(-4.18352 0.663109 0)
(-4.8784 -0.00561229 0)
(-5.59522 -0.556742 0)
(-6.2026 -0.636317 0)
(-6.32816 -1.59299 -3.056e-17)
(-6.72604 -2.44972 -6.05063e-17)
(-6.87659 -2.71142 -3.0186e-17)
(-6.44479 -3.62877 3.04311e-17)
(-5.63784 -4.72893 0)
(-5.00915 -5.26013 -5.92779e-17)
(-4.71341 -4.87968 -5.78662e-17)
(-4.66168 -3.7286 -5.68814e-17)
(-5.09304 -2.40067 5.63266e-17)
(-6.02877 -1.14886 0)
(-7.30542 -0.0263625 8.26559e-17)
(-8.69312 0.780754 0)
(-9.96943 1.20264 -2.68241e-17)
(-11.058 1.34944 -2.66566e-17)
(-11.9287 1.39005 0)
(-12.6248 1.32501 0)
(-13.229 1.25148 -5.27764e-17)
(-13.7148 1.13511 0)
(-14.0775 0.967365 -5.2843e-17)
(-14.3981 0.749275 0)
(-14.6493 0.548827 5.31376e-17)
(-14.7521 0.313695 1.06703e-16)
(-14.7581 0.082261 0)
(-14.6807 -0.0901696 0)
(-14.4497 -0.271532 0)
(-14.1888 -0.38439 5.34101e-17)
(-13.8215 -0.456183 0)
(-13.2603 -0.595655 5.2918e-17)
(-12.5891 -0.769033 0)
(-11.8487 -1.11465 0)
(-11.0221 -1.47053 -1.05806e-16)
(-10.0137 -1.57566 0)
(-8.70846 -1.26986 -5.14555e-17)
(-7.34063 -0.837549 0)
(-6.21409 -0.58405 -5.02855e-17)
(-4.91285 -0.37612 0)
(-4.58408 -0.504882 0)
(-2.08148 -1.72053 0)
(-1.95859 0.906591 -1.45722e-16)
(-0.281626 -0.00181111 -4.96888e-17)
(-0.0801088 0.561508 0)
(1.57903 0.467427 0)
(2.13958 1.15128 0)
(3.36684 1.37445 0)
(3.9143 2.00577 4.70751e-17)
(4.58572 2.30851 -9.37517e-17)
(4.89788 2.73582 -4.62257e-17)
(5.37773 3.14253 9.1269e-17)
(5.46588 3.62299 8.96145e-17)
(5.60469 4.12561 4.39986e-17)
(5.39373 4.64764 0)
(5.09878 5.06721 8.45264e-17)
(4.47247 5.60096 0)
(3.93802 6.09993 -7.99948e-17)
(3.06803 6.59547 -3.87455e-17)
(2.18684 7.22024 0)
(1.04335 7.89432 7.54579e-17)
(-0.300948 8.1511 3.7818e-17)
(-1.54777 8.50977 0)
(-2.35768 9.23574 3.67915e-17)
(-3.5789 9.85145 -1.1048e-16)
(-4.88091 10.1774 0)
(-5.84207 10.6218 0)
(-6.47182 11.1554 0)
(-7.86734 11.6379 0)
(-9.07736 11.8251 -7.27228e-17)
(-10.5699 12.231 -7.52156e-17)
(-11.3704 12.6148 0)
(-12.156 13.6538 0)
(-12.8688 14.3834 0)
(-14.0651 14.9561 0)
(-15.213 15.0686 0)
(-16.5399 15.7195 0)
(-17.2508 16.5365 -7.03907e-17)
(-18.2253 16.8762 -1.94464e-19)
(-18.8837 16.9119 0)
(-19.0573 16.9342 0)
(-18.6697 16.9328 -6.75375e-17)
(-18.5442 16.2557 0)
(-17.2036 16.2448 6.69579e-17)
(-16.4834 15.5571 6.60041e-17)
(-15.0613 15.6654 0)
(-13.436 15.4822 0)
(-12.3523 15.6859 -6.48341e-17)
(-10.2036 15.6671 -1.2962e-16)
(-9.57601 15.6465 0)
(-7.18551 15.4131 0)
(-7.19713 15.3181 0)
(-4.22081 14.6221 -6.52719e-17)
(-4.52956 14.5939 6.49427e-17)
(-2.03984 13.7717 0)
(-0.908293 13.1749 1.28719e-16)
(1.00346 12.9852 6.545e-17)
(2.56691 12.3864 -1.34449e-16)
(3.96802 12.27 0)
(5.4284 11.9602 0)
(7.47928 11.3447 -1.28594e-16)
(9.31949 11.4057 -6.36697e-17)
(11.2593 11.247 0)
(12.7666 11.2505 0)
(14.7112 11.6386 0)
(15.872 11.7357 0)
(17.7282 11.874 -1.21293e-16)
(18.0582 11.825 0)
(18.2219 11.3778 0)
(17.4043 11.0704 0)
(17.4246 10.7292 0)
(16.8534 10.232 0)
(16.0383 9.09727 0)
(16.9959 7.95931 -1.0288e-16)
(15.8989 7.64854 0)
(16.0761 6.84227 0)
(17.0599 6.77746 -2.14154e-16)
(16.6403 7.0408 1.07445e-16)
(15.7228 6.58114 -1.05748e-16)
(14.0939 6.8853 1.00581e-16)
(-0.120059 -2.02 0)
(-0.755974 -1.52048 -4.70365e-17)
(-1.33738 -1.91402 0)
(-1.73955 -2.2836 -2.39123e-17)
(-2.09587 -2.69777 0)
(-2.53497 -2.79348 0)
(-2.99975 -2.58849 2.32627e-17)
(-3.51907 -2.30944 0)
(-3.99209 -2.1571 0)
(-4.44463 -2.20715 0)
(-4.94901 -2.46998 0)
(-5.61226 -2.28962 0)
(-6.31856 -1.40547 -8.68392e-17)
(-7.06912 -1.48332 -4.33974e-17)
(-7.84059 -1.71705 4.27156e-17)
(-8.54169 -1.12594 0)
(-9.40883 -1.13692 0)
(-10.263 -0.906788 0)
(-11.0697 -0.912513 0)
(-11.8488 -1.05781 0)
(-12.5111 -1.16549 -4.13814e-17)
(-13.1017 -1.55118 -4.1052e-17)
(-13.5502 -1.86442 4.08815e-17)
(-13.8754 -2.37681 -4.06925e-17)
(-14.0912 -2.80557 0)
(-14.1647 -3.21716 0)
(-14.1953 -3.46008 -4.00803e-17)
(-14.1157 -3.55471 0)
(-14.0592 -3.51942 0)
(-14.0563 -3.36803 -3.926e-17)
(-14.1304 -3.16822 -3.88828e-17)
(-14.3341 -3.02745 -3.86009e-17)
(-14.5825 -2.96669 0)
(-14.8041 -3.08162 0)
(-15.0168 -3.33452 3.78809e-17)
(-15.0986 -3.77611 0)
(-15.0348 -4.31016 0)
(-14.8077 -4.91473 -3.73194e-17)
(-14.4032 -5.4875 3.69604e-17)
(-13.852 -5.88603 -3.67262e-17)
(-13.2011 -6.12784 0)
(-12.5938 -6.13813 0)
(-12.0234 -6.07495 -7.22892e-17)
(-11.5363 -5.94494 0)
(-10.9454 -5.58806 -7.13544e-17)
(-10.4716 -5.45092 -1.06417e-16)
(-10.1311 -5.60266 1.05493e-16)
(-9.46025 -5.50031 -6.9347e-17)
(-8.79801 -5.7685 0)
(-8.08854 -5.75411 0)
(-7.33006 -4.89716 -6.78408e-17)
(-6.79454 -4.97404 -3.40201e-17)
(-5.90151 -4.86605 0)
(-5.12615 -3.53715 0)
(-4.55215 -2.7711 -3.32508e-17)
(-4.07052 -2.04124 -6.61492e-17)
(-3.41705 -1.21598 0)
(-2.78339 -0.399592 6.51123e-17)
(-2.49396 0.503465 -6.47335e-17)
(-2.11687 0.665358 6.44194e-17)
(-2.60561 0.893793 0)
(-2.99491 0.638278 0)
(-3.83329 -0.123237 0)
(-4.71465 -0.805076 0)
(-4.81316 -1.88897 0)
(-5.29359 -2.24184 6.05881e-17)
(-5.66786 -2.84246 0)
(-5.92972 -4.57739 0)
(-6.03239 -5.59909 0)
(-6.33992 -5.16218 1.1558e-16)
(-7.0847 -4.13777 5.65131e-17)
(-7.98864 -2.87062 5.58824e-17)
(-8.92756 -1.58252 -1.10697e-16)
(-9.81272 -0.441117 5.47821e-17)
(-10.6759 0.410167 -5.43537e-17)
(-11.5331 0.93389 0)
(-12.2086 1.16906 5.40178e-17)
(-12.6722 1.22253 0)
(-12.9823 1.19437 0)
(-13.2621 1.10472 0)
(-13.5327 0.982257 1.07347e-16)
(-13.7894 0.831073 -5.36795e-17)
(-14.0201 0.651137 -5.37104e-17)
(-14.2218 0.470095 -1.07488e-16)
(-14.4053 0.242061 -1.61432e-16)
(-14.4904 -0.0107524 -5.39775e-17)
(-14.4847 -0.358821 0)
(-14.41 -0.552223 -1.08036e-16)
(-14.1811 -0.716406 0)
(-13.8172 -0.847168 -1.60296e-16)
(-13.3482 -1.0543 0)
(-12.7426 -1.1942 -1.58354e-16)
(-11.9662 -1.45064 0)
(-11.0937 -1.78886 0)
(-10.2963 -2.18218 -5.13689e-17)
(-9.38922 -2.44765 0)
(-8.24701 -2.3028 5.06293e-17)
(-6.94869 -1.87497 1.00328e-16)
(-5.68624 -1.4122 4.9756e-17)
(-3.90296 -0.902824 9.87714e-17)
(-3.49244 -1.02947 -9.82568e-17)
(-1.03618 -2.47022 -9.69653e-17)
(-1.53062 0.684838 1.93823e-16)
(1.05079 -0.260075 0)
(0.667526 0.520282 0)
(2.67604 0.136263 9.54625e-17)
(2.81151 1.28895 -9.46596e-17)
(4.37928 1.37594 0)
(4.9312 2.45622 0)
(5.75842 2.91276 9.47858e-17)
(5.936 3.47001 0)
(6.53557 4.02289 -2.07018e-19)
(6.57905 4.83986 -2.14972e-19)
(6.894 5.47908 9.22959e-17)
(6.70877 6.24277 0)
(6.71836 7.23599 -8.99614e-17)
(6.073 8.09208 0)
(5.63256 8.81494 8.80647e-17)
(4.74139 9.73184 0)
(3.80374 10.4452 0)
(2.58418 11.0922 -7.94717e-17)
(1.47164 11.8849 -7.94778e-17)
(-0.172437 12.2375 0)
(-1.47685 12.5225 -7.67451e-17)
(-2.70848 13.4643 1.50748e-16)
(-4.10645 14.1174 0)
(-5.49148 14.4917 0)
(-5.94182 15.2701 0)
(-7.10178 16.1765 0)
(-8.59977 17.0342 7.28212e-17)
(-9.97097 17.4061 -1.49402e-16)
(-10.954 17.5682 0)
(-12.1164 18.5096 0)
(-12.7422 19.5629 0)
(-13.8847 20.9734 0)
(-14.3981 21.7292 0)
(-15.797 22.2207 0)
(-16.7772 22.7482 0)