/*--------------------------------*- C++ -*----------------------------------*\
| =========                 |                                                 |
| \\      /  F ield         | OpenFOAM: The Open Source CFD Toolbox           |
|  \\    /   O peration     | Version:  dev                                   |
|   \\  /    A nd           | Web:      http://www.openfoam.org               |
|    \\/     M anipulation  |                                                 |
\*---------------------------------------------------------------------------*/
FoamFile
{
    version     2.0;
    format      ascii;
    class       volVectorField;
    object      U_0;
    location    "9.127";
}
// * * * * * * * * * * * * * * * * * * * * * * * * * * * * * * * * * * * * * //

dimensions      [0 1 -1 0 0 0 0];

internalField   nonuniform List<vector> 
12225
(
(7.58199 0.346595 0)
(5.71724 0.137196 0)
(4.46372 -0.0408843 0)
(5.42764 -0.0958364 0)
(4.81891 -0.0849623 0)
(6.74215 -0.12638 0)
(6.18251 -0.0905944 0)
(8.26456 -0.172903 0)
(7.63013 -0.0880443 0)
(10.2713 -0.240027 0)
(9.30214 -0.0787031 0)
(12.951 -0.355979 0)
(11.6542 -0.0346151 0)
(16.4605 -0.504429 0)
(17.6801 -0.15593 0)
(20.4586 0.0325311 0)
(30.6261 -5.40326 0)
(39.3933 1.85638 0)
(10.2438 0.728596 0)
(10.6477 0.734289 0)
(8.09468 0.289436 0)
(9.78119 0.0280326 0)
(6.49364 -0.113744 0)
(10.2647 -0.240547 0)
(6.60943 -0.195789 0)
(11.3429 -0.369401 0)
(7.05735 -0.287187 0)
(13.5158 -0.564961 0)
(7.94 -0.47235 0)
(17.2994 -0.903326 0)
(9.95652 -0.815825 0)
(22.4295 -2.10131 0)
(15.2869 -0.548809 0)
(29.383 -6.1211 0)
(30.6235 -6.03282 0)
(43.2853 -10.2788 0)
(9.98539 0.511138 0)
(13.3498 0.850286 0)
(9.68368 0.343547 0)
(14.0986 0.199514 0)
(8.37013 -0.100994 0)
(14.8644 -0.234823 0)
(8.18597 -0.319294 0)
(16.1024 -0.460894 0)
(8.62006 -0.573043 0)
(18.1762 -0.876042 0)
(10.323 -0.905723 0)
(20.5449 -1.48268 0)
(13.5575 -1.3556 0)
(22.4002 -2.68797 0)
(18.4426 -2.13032 0)
(25.6173 -6.88458 0)
(25.652 -7.41013 0)
(31.9848 -5.96144 0)
(7.89491 0.00754052 0)
(15.5711 0.80179 0)
(9.65394 0.236889 0)
(16.97 0.271276 0)
(10.3042 -0.0702261 0)
(17.6777 -0.343316 0)
(11.1288 -0.358494 0)
(18.5658 -0.797067 0)
(12.2178 -0.593035 0)
(19.5801 -1.58587 0)
(13.811 -0.872618 0)
(20.9797 -2.71494 0)
(16.1042 -1.16684 0)
(22.5815 -4.16856 0)
(20.1664 -2.2116 0)
(23.7241 -9.40522 0)
(23.3575 -8.83833 0)
(32.5337 -5.80455 0)
(7.18319 0.0440665 0)
(14.916 0.234473 0)
(10.6269 0.193081 0)
(16.1558 -0.151208 0)
(12.486 -0.016736 0)
(16.7751 -0.702081 0)
(13.8048 -0.300274 0)
(17.5383 -1.21661 0)
(14.9751 -0.564369 0)
(18.3416 -1.94857 0)
(15.7086 -0.892418 0)
(19.4696 -3.21609 0)
(16.8049 -1.32412 0)
(21.1879 -4.9137 0)
(19.5991 -2.33 0)
(23.7404 -11.7773 0)
(19.3445 -10.2729 0)
(33.3887 -7.45088 0)
(9.62191 -0.252622 0)
(12.1065 -0.222302 0)
(11.552 0.0292912 0)
(13.146 -0.543578 0)
(13.1127 -0.179186 0)
(14.1987 -0.98666 0)
(14.6404 -0.48259 0)
(15.3821 -1.52569 0)
(15.7487 -0.722891 0)
(16.2536 -2.18981 0)
(16.3199 -1.16253 0)
(17.496 -3.77276 0)
(17.2067 -1.93561 0)
(19.2101 -5.61229 0)
(19.4606 -3.50807 0)
(22.1222 -9.99056 0)
(15.788 -10.1212 0)
(27.5462 -11.4178 0)
(10.4309 -0.392731 0)
(10.7624 -0.758048 0)
(12.314 0.241704 0)
(12.1682 -1.04555 0)
(13.6165 0.0203845 0)
(13.3671 -1.6026 0)
(15.0464 -0.279954 0)
(14.5365 -2.26062 0)
(16.2572 -0.455323 0)
(15.6001 -2.95326 0)
(17.6864 -0.91802 0)
(17.0907 -4.46259 0)
(19.3435 -1.68395 0)
(18.8243 -6.50096 0)
(21.0113 -3.7846 0)
(20.3855 -10.2363 0)
(17.0358 -7.70639 0)
(14.7107 -12.2036 0)
(10.7593 -0.703444 0)
(10.9177 -0.86922 0)
(12.4219 -0.000799746 0)
(12.4442 -1.20771 0)
(13.5792 -0.35585 0)
(13.8099 -1.71564 0)
(14.7427 -0.654699 0)
(14.9452 -2.28557 0)
(15.8158 -0.973511 0)
(16.1775 -3.03076 0)
(17.3715 -1.76552 0)
(17.7712 -4.43426 0)
(18.8076 -2.8576 0)
(19.3653 -6.28489 0)
(19.5785 -4.9781 0)
(19.8156 -8.65138 0)
(17.4743 -7.34706 0)
(14.4791 -10.1774 0)
(11.0198 -0.826076 0)
(10.6756 -1.27959 0)
(12.4628 0.065382 0)
(12.0985 -1.62718 0)
(13.7087 -0.348116 0)
(13.305 -2.12011 0)
(14.8636 -0.694584 0)
(14.4158 -2.72541 0)
(15.9869 -1.11727 0)
(15.7179 -3.62392 0)
(17.2979 -1.94078 0)
(17.1919 -5.01504 0)
(18.4265 -3.18667 0)
(18.3138 -6.66361 0)
(18.635 -4.79154 0)
(18.6179 -8.55731 0)
(17.7846 -6.25925 0)
(16.6018 -9.43382 0)
(10.7665 -1.27376 0)
(11.0908 -1.38525 0)
(12.5092 -0.188289 0)
(12.4809 -1.62908 0)
(13.5179 -0.713883 0)
(13.5069 -2.08644 0)
(14.5014 -1.14278 0)
(14.6475 -2.56728 0)
(15.5806 -1.82187 0)
(15.8984 -3.34553 0)
(16.7002 -2.79919 0)
(17.1796 -4.50407 0)
(17.6582 -4.1184 0)
(18.0148 -5.84942 0)
(17.9159 -5.71406 0)
(18.1689 -7.29455 0)
(17.438 -7.20311 0)
(17.1283 -8.46788 0)
(10.7224 -1.53374 0)
(10.9942 -1.74826 0)
(12.2862 -0.356782 0)
(12.4582 -1.88139 0)
(13.293 -0.836252 0)
(13.3552 -2.41662 0)
(14.1112 -1.38494 0)
(14.3985 -3.021 0)
(15.1454 -2.1294 0)
(15.5151 -3.91574 0)
(16.188 -3.12359 0)
(16.551 -4.96471 0)
(17.0348 -4.44243 0)
(17.2351 -6.09019 0)
(17.3113 -5.912 0)
(17.3487 -7.32159 0)
(17.1442 -7.42486 0)
(16.9196 -8.00716 0)
(10.645 -2.02096 0)
(11.1413 -1.75885 0)
(11.9453 -0.85647 0)
(12.3187 -1.84763 0)
(12.9829 -1.31916 0)
(13.4042 -2.29686 0)
(13.9621 -1.95685 0)
(14.4344 -2.9221 0)
(14.8906 -2.85365 0)
(15.3318 -3.72782 0)
(15.6761 -3.8424 0)
(16.104 -4.68762 0)
(16.3607 -5.00471 0)
(16.593 -5.75764 0)
(16.5904 -6.22898 0)
(16.6282 -6.92275 0)
(16.5381 -7.361 0)
(16.4982 -7.78198 0)
(10.5018 -2.45312 0)
(11.1105 -1.92993 0)
(11.7352 -1.2172 0)
(12.1672 -2.05105 0)
(12.699 -1.72901 0)
(13.1368 -2.57688 0)
(13.5931 -2.39216 0)
(14.0294 -3.20631 0)
(14.4134 -3.22034 0)
(14.8213 -3.98909 0)
(15.1713 -4.1705 0)
(15.4718 -4.90358 0)
(15.751 -5.29824 0)
(15.9307 -5.9193 0)
(15.964 -6.39926 0)
(16.0039 -6.93708 0)
(15.9736 -7.38382 0)
(15.9623 -7.78475 0)
(10.4252 -2.96463 0)
(10.9273 -1.96174 0)
(11.3914 -1.66016 0)
(11.848 -2.09364 0)
(12.3194 -2.08133 0)
(12.7795 -2.59258 0)
(13.1767 -2.76304 0)
(13.5882 -3.32551 0)
(13.9256 -3.63593 0)
(14.2945 -4.16546 0)
(14.5797 -4.52386 0)
(14.8581 -5.02276 0)
(15.1341 -5.42604 0)
(15.3317 -5.92266 0)
(15.394 -6.32308 0)
(15.4364 -6.76814 0)
(15.4637 -7.18545 0)
(15.4767 -7.5975 0)
(10.3886 -3.43131 0)
(10.9032 -2.07655 0)
(11.3104 -1.98646 0)
(11.7096 -2.32198 0)
(12.1072 -2.46709 0)
(12.5652 -2.84147 0)
(12.9448 -3.07957 0)
(13.3186 -3.48885 0)
(13.6088 -3.85725 0)
(13.9081 -4.3318 0)
(14.1445 -4.75911 0)
(14.3739 -5.19057 0)
(14.5968 -5.62635 0)
(14.7884 -6.04469 0)
(14.9382 -6.44326 0)
(15.0118 -6.78961 0)
(15.0068 -7.09053 0)
(15.0621 -7.43213 0)
(10.1987 -3.91266 0)
(10.5827 -2.16377 0)
(10.9039 -2.1619 0)
(11.2099 -2.43557 0)
(11.5679 -2.66178 0)
(12.0357 -2.96136 0)
(12.4653 -3.27942 0)
(12.8823 -3.65805 0)
(13.2182 -4.03721 0)
(13.5609 -4.45456 0)
(13.8191 -4.84763 0)
(13.9813 -5.2202 0)
(14.1418 -5.58402 0)
(14.2877 -5.9377 0)
(14.3362 -6.27905 0)
(14.4381 -6.5916 0)
(14.4585 -6.85672 0)
(14.4981 -7.12595 0)
(10.5747 -4.19358 0)
(10.7042 -2.17611 0)
(10.9583 -2.20716 0)
(11.2132 -2.52137 0)
(11.4927 -2.83699 0)
(11.8369 -3.17535 0)
(12.1288 -3.49546 0)
(12.468 -3.81853 0)
(12.7061 -4.13122 0)
(12.9788 -4.4422 0)
(13.2071 -4.756 0)
(13.4028 -5.07249 0)
(13.5613 -5.35098 0)
(13.7039 -5.65584 0)
(13.8247 -5.94566 0)
(13.9476 -6.22871 0)
(13.9734 -6.4771 0)
(14.0406 -6.74183 0)
(10.3315 -4.06335 0)
(10.51 -2.20779 0)
(10.8486 -2.31777 0)
(11.1166 -2.53993 0)
(11.2945 -2.72521 0)
(11.5045 -2.96585 0)
(11.7286 -3.25529 0)
(11.9971 -3.58834 0)
(12.2367 -3.93876 0)
(12.5227 -4.25214 0)
(12.7402 -4.58655 0)
(12.9652 -4.86659 0)
(13.1628 -5.13474 0)
(13.3339 -5.36855 0)
(13.4505 -5.58122 0)
(13.5964 -5.78912 0)
(13.6494 -5.96359 0)
(13.7397 -6.14803 0)
(10.2106 -4.07235 0)
(10.187 -2.20259 0)
(10.4424 -2.16032 0)
(10.7228 -2.32996 0)
(10.9691 -2.5662 0)
(11.2369 -2.85332 0)
(11.4796 -3.16672 0)
(11.7717 -3.46036 0)
(12.0338 -3.74232 0)
(12.2973 -3.97426 0)
(12.5225 -4.21439 0)
(12.7536 -4.42796 0)
(12.9301 -4.63439 0)
(13.1196 -4.82677 0)
(13.2695 -5.00698 0)
(13.4184 -5.17989 0)
(13.5083 -5.32867 0)
(13.6345 -5.49449 0)
(10.0559 -3.71923 0)
(9.9727 -2.11696 0)
(10.2479 -2.13922 0)
(10.5966 -2.28885 0)
(10.9404 -2.48813 0)
(11.2084 -2.69347 0)
(11.3852 -2.90967 0)
(11.5387 -3.13609 0)
(11.6966 -3.37923 0)
(11.9282 -3.60563 0)
(12.1357 -3.80807 0)
(12.4001 -4.00732 0)
(12.6403 -4.19168 0)
(12.8744 -4.3475 0)
(13.0867 -4.49277 0)
(13.3014 -4.62927 0)
(13.4366 -4.7423 0)
(13.5957 -4.86106 0)
(9.98307 -3.25632 0)
(9.82967 -1.82666 0)
(9.99476 -1.94932 0)
(10.2105 -2.14069 0)
(10.4753 -2.30884 0)
(10.8016 -2.46073 0)
(11.058 -2.61603 0)
(11.2756 -2.78412 0)
(11.4876 -2.9793 0)
(11.7509 -3.21273 0)
(12.011 -3.42273 0)
(12.2696 -3.60663 0)
(12.5281 -3.78154 0)
(12.789 -3.91918 0)
(13.0206 -4.02788 0)
(13.2491 -4.13405 0)
(13.4244 -4.22014 0)
(13.6153 -4.3124 0)
(10.1706 -2.90407 0)
(9.9667 -1.63617 0)
(10.1439 -1.70249 0)
(10.3295 -1.87698 0)
(10.4982 -2.06507 0)
(10.7133 -2.255 0)
(10.9428 -2.43046 0)
(11.1612 -2.54928 0)
(11.3642 -2.68727 0)
(11.6338 -2.84444 0)
(11.9426 -3.02875 0)
(12.2124 -3.18288 0)
(12.4681 -3.33 0)
(12.7318 -3.4492 0)
(12.9709 -3.53982 0)
(13.2217 -3.64538 0)
(13.4229 -3.71971 0)
(13.6379 -3.7808 0)
(10.0744 -2.35739 0)
(9.81321 -1.39324 0)
(10.0634 -1.56114 0)
(10.3513 -1.72288 0)
(10.5885 -1.82397 0)
(10.8262 -1.9156 0)
(11.0731 -2.06811 0)
(11.3006 -2.23266 0)
(11.5039 -2.37748 0)
(11.7478 -2.49516 0)
(12.0637 -2.66138 0)
(12.355 -2.79558 0)
(12.6192 -2.90686 0)
(12.896 -3.02073 0)
(13.1193 -3.12076 0)
(13.3433 -3.2111 0)
(13.5703 -3.27926 0)
(13.7614 -3.33801 0)
(9.93101 -2.17714 0)
(9.99367 -1.26115 0)
(10.3323 -1.38204 0)
(10.4907 -1.54347 0)
(10.5737 -1.63096 0)
(10.7004 -1.69369 0)
(10.93 -1.79185 0)
(11.2295 -1.939 0)
(11.5182 -2.08886 0)
(11.794 -2.17778 0)
(12.1217 -2.30928 0)
(12.457 -2.42135 0)
(12.7412 -2.50723 0)
(13.0014 -2.57851 0)
(13.2577 -2.64748 0)
(13.4977 -2.67508 0)
(13.7026 -2.72509 0)
(13.8935 -2.77405 0)
(10.0455 -1.87239 0)
(9.90557 -1.24399 0)
(10.2657 -1.25294 0)
(10.5513 -1.29665 0)
(10.744 -1.33535 0)
(10.9641 -1.41434 0)
(11.2134 -1.52438 0)
(11.4742 -1.67545 0)
(11.7303 -1.8534 0)
(11.9604 -1.96048 0)
(12.1958 -2.02403 0)
(12.4869 -2.09476 0)
(12.7583 -2.15714 0)
(13.0426 -2.18796 0)
(13.3306 -2.23643 0)
(13.5894 -2.28399 0)
(13.8324 -2.34254 0)
(14.0623 -2.38255 0)
(10.0428 -1.53829 0)
(10.0123 -1.09658 0)
(10.4156 -1.12707 0)
(10.7561 -1.17885 0)
(10.9815 -1.20728 0)
(11.2345 -1.2493 0)
(11.4709 -1.29603 0)
(11.716 -1.37157 0)
(11.9142 -1.47496 0)
(12.1154 -1.58154 0)
(12.2992 -1.63861 0)
(12.5301 -1.70537 0)
(12.7682 -1.7938 0)
(13.0235 -1.83594 0)
(13.2572 -1.86616 0)
(13.4857 -1.90707 0)
(13.6702 -1.92491 0)
(13.8403 -1.94693 0)
(9.66221 -1.34143 0)
(9.85101 -1.13769 0)
(10.4693 -1.15584 0)
(10.8736 -1.13144 0)
(11.0859 -1.08491 0)
(11.2674 -1.07791 0)
(11.4032 -1.09419 0)
(11.5402 -1.13262 0)
(11.6185 -1.22559 0)
(11.7311 -1.27238 0)
(11.801 -1.32206 0)
(11.8853 -1.36676 0)
(11.9748 -1.4288 0)
(12.0604 -1.46389 0)
(12.1221 -1.46469 0)
(12.1724 -1.48782 0)
(12.193 -1.49119 0)
(12.2275 -1.50165 0)
(9.8129 -1.03894 0)
(10.2155 -1.1226 0)
(10.6635 -1.0447 0)
(10.6624 -0.959363 0)
(10.4775 -0.867435 0)
(10.2842 -0.83021 0)
(10.141 -0.817299 0)
(10.0234 -0.821267 0)
(9.88608 -0.852939 0)
(9.79609 -0.872088 0)
(9.65953 -0.873352 0)
(9.56352 -0.880748 0)
(9.44736 -0.923544 0)
(9.33862 -0.938139 0)
(9.2484 -0.925588 0)
(9.15252 -0.946533 0)
(9.073 -0.96414 0)
(9.00263 -0.958286 0)
(10.1715 -1.11435 0)
(9.7182 -1.21664 0)
(9.14344 -0.966138 0)
(8.31079 -0.732764 0)
(7.57661 -0.546017 0)
(6.9925 -0.438564 0)
(6.55006 -0.398166 0)
(6.23304 -0.387952 0)
(5.98748 -0.386037 0)
(5.79513 -0.404285 0)
(5.66829 -0.391311 0)
(5.60089 -0.403075 0)
(5.53475 -0.419803 0)
(5.4957 -0.439392 0)
(5.4563 -0.450232 0)
(5.4339 -0.471106 0)
(5.43522 -0.505167 0)
(5.45075 -0.505509 0)
(8.40294 -0.546381 0)
(5.77774 -0.392343 0)
(4.10586 -0.156 0)
(3.08669 -0.0536449 0)
(2.65971 -0.0268238 0)
(2.54367 -0.0267012 0)
(2.5845 -0.0397567 0)
(2.7072 -0.0523522 0)
(2.85072 -0.0651996 0)
(3.01224 -0.0759125 0)
(3.20212 -0.0764471 0)
(3.40928 -0.0865145 0)
(3.61263 -0.0884502 0)
(3.79846 -0.100235 0)
(3.96401 -0.109086 0)
(4.11164 -0.1256 0)
(4.22136 -0.153346 0)
(4.25606 -0.164224 0)
(-0.187721 -0.757844 0)
(-0.635321 -0.703874 0)
(-1.11641 -0.667556 0)
(-1.61652 -0.687732 0)
(-2.04289 -0.687435 0)
(-2.46779 -0.688667 0)
(-2.89187 -0.689886 1.13493e-17)
(-3.33214 -0.665512 -1.126e-17)
(-3.78687 -0.652426 0)
(-4.25248 -0.629652 -1.11161e-17)
(-4.7362 -0.606907 0)
(-5.23686 -0.595676 0)
(-5.76205 -0.589021 0)
(-6.30547 -0.574109 1.08597e-17)
(-6.85332 -0.545561 0)
(-7.40698 -0.530732 0)
(-7.96892 -0.516688 -1.06728e-17)
(-8.5329 -0.502571 0)
(-9.09892 -0.489593 0)
(-9.65521 -0.482514 0)
(-10.1807 -0.486883 1.04097e-17)
(-10.6841 -0.500548 0)
(-11.1671 -0.518186 1.02698e-17)
(-11.6108 -0.541961 0)
(-12.0074 -0.569774 0)
(-12.3494 -0.589 1.00602e-17)
(-12.6364 -0.606976 0)
(-12.8792 -0.628576 -9.92382e-18)
(-13.0726 -0.628758 0)
(-13.2498 -0.618839 9.79092e-18)
(-13.4118 -0.606989 0)
(-13.5494 -0.612547 0)
(-13.6811 -0.602855 0)
(-13.7884 -0.592713 0)
(-13.8718 -0.618376 0)
(-13.8687 -0.650493 -9.40766e-18)
(-13.806 -0.696823 0)
(-13.6246 -0.743408 1.8557e-17)
(-13.3395 -0.791112 0)
(-12.9396 -0.833339 -1.82947e-17)
(-12.4415 -0.880396 0)
(-11.8782 -0.898721 0)
(-11.2479 -0.878662 1.79271e-17)
(-10.6106 -0.839845 0)
(-10.002 -0.793148 1.76996e-17)
(-9.41491 -0.759672 -1.75834e-17)
(-8.78767 -0.702722 0)
(-8.18077 -0.604881 -1.73372e-17)
(-7.64194 -0.531284 -1.72309e-17)
(-7.15652 -0.493749 0)
(-6.72149 -0.41319 0)
(-6.3624 -0.187004 0)
(-6.21991 0.196077 0)
(-6.44937 0.497268 0)
(-6.94174 0.454891 1.67337e-17)
(-7.48774 0.0680189 0)
(-8.04816 -0.39164 -1.65082e-17)
(-8.52566 -0.590303 0)
(-8.80798 -0.533048 0)
(-8.92677 -0.474026 1.60752e-17)
(-9.00123 -0.327598 0)
(-9.13038 -0.16101 -1.58823e-17)
(-9.33233 -0.107356 0)
(-9.42074 -0.151908 0)
(-9.25058 -0.339705 0)
(-8.90846 -0.515405 1.53531e-17)
(-8.57213 -0.611714 0)
(-8.10775 -0.733471 0)
(-7.28131 -0.955078 1.49831e-17)
(-6.08715 -1.02892 0)
(-4.78489 -0.814279 1.47103e-17)
(-3.78065 -0.327976 0)
(-3.36613 0.246033 0)
(-3.29731 0.397509 0)
(-3.19533 -0.00854845 -1.42924e-17)
(-2.92142 -0.701795 0)
(-2.56548 -1.21647 0)
(-2.33382 -1.18311 -1.43872e-17)
(-2.51091 -0.643268 -1.43634e-17)
(-3.14593 -0.0179611 0)
(-4.04842 0.363493 -1.38769e-17)
(-5.03207 0.48435 0)
(-5.97131 0.453629 -2.6901e-17)
(-6.80795 0.456241 0)
(-7.57038 0.399456 -2.63011e-17)
(-8.20806 0.344352 0)
(-8.65408 0.32311 2.58276e-17)
(-9.01863 0.228928 0)
(-9.22797 0.196988 0)
(-9.30847 0.12735 0)
(-9.23848 0.0965697 -2.49891e-17)
(-9.08391 0.0705286 0)
(-8.87193 0.0422437 2.46166e-17)
(-8.45199 -0.0248411 0)
(-7.80414 -0.141149 -2.43443e-17)
(-6.93504 -0.206672 -2.41354e-17)
(-6.05073 -0.177416 -2.38794e-17)
(-5.36023 -0.122314 0)
(-4.7012 -0.104827 0)
(-3.94359 -0.102442 0)
(-3.33677 -0.056084 0)
(-1.85262 -0.335939 0)
(-1.16973 0.106346 0)
(-0.51684 -0.0996087 0)
(0.277985 0.0305165 0)
(1.00957 0.003419 2.24341e-17)
(1.69594 0.111932 2.22607e-17)
(2.22778 0.142956 0)
(2.63681 0.244007 0)
(2.95013 0.294444 0)
(3.14827 0.376271 2.16988e-17)
(3.25179 0.439811 0)
(3.18578 0.520661 0)
(2.98032 0.609256 0)
(2.61147 0.707509 0)
(2.11291 0.783882 -2.12238e-17)
(1.42137 0.903742 0)
(0.615496 1.00888 0)
(-0.434699 1.08855 2.10408e-17)
(-1.5541 1.19269 -2.08919e-17)
(-2.75227 1.33228 0)
(-3.93166 1.39686 -2.07597e-17)
(-5.16919 1.44975 0)
(-6.33312 1.55774 2.05152e-17)
(-7.50995 1.6699 0)
(-8.61282 1.80394 0)
(-9.78432 1.86192 0)
(-10.8872 1.85211 0)
(-11.8 1.85872 0)
(-12.2669 1.85527 -4.00791e-17)
(-12.615 1.93671 -4.0019e-17)
(-12.875 2.04199 0)
(-13.3032 2.10902 0)
(-13.6621 2.1769 0)
(-14.2396 2.25103 3.91426e-17)
(-14.613 2.29524 0)
(-14.8658 2.35455 0)
(-15.3508 2.50375 0)
(-15.9276 2.66325 3.77328e-17)
(-16.473 2.83046 -3.73156e-17)
(-16.9987 2.91841 0)
(-17.3734 2.99284 0)
(-17.3169 2.99361 -3.61701e-17)
(-17.0231 2.96988 -3.59598e-17)
(-16.3583 2.83888 0)
(-15.3938 2.8783 0)
(-14.3922 2.78165 3.5093e-17)
(-13.1544 2.92277 -3.49802e-17)
(-11.9416 2.86865 0)
(-10.8165 2.92546 0)
(-9.76579 2.84132 -3.42981e-17)
(-8.9816 2.9617 0)
(-7.68823 2.75436 0)
(-6.888 2.83503 -3.36944e-17)
(-5.38393 2.61503 0)
(-4.01181 2.62072 -3.331e-17)
(-2.86684 2.59208 0)
(-1.04682 2.32036 0)
(0.375767 2.46789 0)
(1.67239 2.43511 3.26847e-17)
(3.34772 2.32457 0)
(4.81318 2.38841 0)
(6.21176 2.3541 0)
(7.4847 2.33708 0)
(8.53871 2.35788 0)
(9.21728 2.30429 0)
(9.90134 2.23275 3.09829e-17)
(10.3006 2.23288 3.06888e-17)
(10.7686 2.21192 0)
(10.8995 2.22799 0)
(11.0945 2.18471 0)
(10.9505 2.16021 -2.94983e-17)
(10.7062 2.06132 0)
(11.1673 1.74522 5.79057e-17)
(11.2945 1.8098 -5.80306e-17)
(11.3588 1.73169 -5.87177e-17)
(11.0539 1.54022 5.89742e-17)
(10.1265 1.53348 -5.81099e-17)
(9.37195 1.47799 5.75513e-17)
(8.23855 1.43429 0)
(-0.226122 -2.00606 0)
(-0.838079 -1.82315 0)
(-1.34751 -1.80227 -2.3329e-17)
(-1.87531 -1.92323 0)
(-2.339 -2.05496 2.35198e-17)
(-2.78171 -2.07053 2.32549e-17)
(-3.25618 -2.04777 1.15212e-17)
(-3.74303 -1.99341 1.14481e-17)
(-4.22648 -1.94694 0)
(-4.72524 -1.89262 1.12671e-17)
(-5.25669 -1.83825 0)
(-5.8209 -1.76066 0)
(-6.33566 -1.65274 -2.20163e-17)
(-6.81633 -1.6146 -1.09386e-17)
(-7.36 -1.61499 2.16883e-17)
(-7.94561 -1.56563 2.15151e-17)
(-8.50673 -1.53166 1.06838e-17)
(-9.07654 -1.50723 0)
(-9.65846 -1.51492 0)
(-10.2462 -1.5607 0)
(-10.8371 -1.57437 1.03318e-17)
(-11.4061 -1.58576 0)
(-11.9283 -1.61464 -3.05651e-17)
(-12.3891 -1.69989 0)
(-12.7804 -1.78819 0)
(-13.0802 -1.88772 -9.9707e-18)
(-13.3269 -1.98678 0)
(-13.5116 -2.05548 9.84063e-18)
(-13.6454 -2.07209 1.95349e-17)
(-13.7812 -2.05361 -9.71447e-18)
(-13.9106 -2.05066 0)
(-14.0459 -2.05596 0)
(-14.1845 -2.00052 0)
(-14.2579 -1.94935 1.89084e-17)
(-14.3695 -2.05538 1.88011e-17)
(-14.3087 -2.1581 9.34606e-18)
(-14.2216 -2.33098 0)
(-13.9602 -2.51537 -1.84445e-17)
(-13.605 -2.7112 0)
(-13.14 -2.85632 1.81943e-17)
(-12.5661 -3.05694 0)
(-11.9235 -3.15802 0)
(-11.2108 -3.16478 -1.78261e-17)
(-10.4617 -3.0897 0)
(-9.71937 -2.95588 -5.27627e-17)
(-9.12439 -2.91812 1.75032e-17)
(-8.37255 -2.88492 0)
(-7.55811 -2.73568 1.72277e-17)
(-6.80243 -2.60413 1.7083e-17)
(-5.9996 -2.40751 0)
(-5.3274 -2.16304 0)
(-4.5997 -1.92226 0)
(-3.82936 -1.49933 0)
(-3.13993 -0.861375 0)
(-2.61245 -0.372812 -1.65481e-17)
(-2.36644 0.0843402 -3.28069e-17)
(-2.52715 0.636357 1.63089e-17)
(-3.29375 0.617066 0)
(-4.26783 -0.00385922 -3.26584e-17)
(-5.17583 -0.456661 1.6062e-17)
(-6.03208 -0.468149 0)
(-6.45061 -0.517112 1.55761e-17)
(-6.81391 -0.724836 0)
(-7.14448 -0.896952 0)
(-7.06474 -1.41793 3.05121e-17)
(-6.75648 -1.6669 -1.50814e-17)
(-6.43404 -1.49296 2.99338e-17)
(-5.9209 -1.82157 -2.99185e-17)
(-5.06467 -2.70558 -1.49317e-17)
(-3.95422 -3.2653 0)
(-2.82408 -3.09951 -1.45671e-17)
(-1.75514 -2.45655 0)
(-0.9487 -1.85333 0)
(-0.428712 -1.66025 0)
(-0.480795 -1.56622 -1.41774e-17)
(-1.44528 -1.18006 0)
(-3.07181 -0.572676 -2.75039e-17)
(-4.83436 0.0718338 4.04142e-17)
(-6.40468 0.558442 1.32478e-17)
(-7.70912 0.799921 0)
(-8.72862 0.871472 1.28978e-17)
(-9.53431 0.831768 0)
(-10.2237 0.707417 2.53877e-17)
(-10.8103 0.574565 0)
(-11.3034 0.424906 2.51972e-17)
(-11.5787 0.253409 -5.02989e-17)
(-11.7515 0.110714 -2.50998e-17)
(-11.7921 -0.0971449 0)
(-11.7026 -0.223619 0)
(-11.5541 -0.349479 0)
(-11.1733 -0.405615 2.4668e-17)
(-10.7768 -0.519439 0)
(-10.3531 -0.632017 -2.45488e-17)
(-9.72619 -0.885848 0)
(-8.84437 -1.1566 7.42123e-17)
(-7.75601 -1.19928 2.44325e-17)
(-6.64391 -0.98519 2.38859e-17)
(-5.69398 -0.811184 0)
(-4.8205 -0.801406 0)
(-3.89601 -0.775396 0)
(-3.38396 -0.739934 0)
(-1.25978 -1.44793 0)
(-0.968987 -0.0687933 4.48055e-17)
(0.173766 -0.700379 4.60551e-17)
(0.697483 -0.326108 0)
(1.82433 -0.386104 -2.23869e-17)
(2.44875 -0.0683569 -2.19559e-17)
(3.20433 0.0296005 0)
(3.61571 0.31221 -4.29526e-17)
(4.05716 0.44621 0)
(4.27905 0.6521 2.0982e-17)
(4.5024 0.843926 0)
(4.50021 1.08116 0)
(4.41778 1.30533 -4.03992e-17)
(4.08676 1.58376 0)
(3.7571 1.85668 1.98125e-17)
(3.17643 2.18342 0)
(2.5383 2.4832 0)
(1.69689 2.92992 1.92729e-17)
(0.762948 3.23133 1.92712e-17)
(-0.429014 3.40816 0)
(-1.44212 3.60116 -1.89112e-17)
(-2.39525 3.93844 0)
(-3.4159 4.18809 1.8957e-17)
(-4.57534 4.35421 3.77234e-17)
(-5.45213 4.63339 0)
(-6.34892 5.07121 0)
(-7.29331 5.31441 0)
(-8.43837 5.33128 0)
(-9.13954 5.26402 3.7748e-17)
(-9.87804 5.41495 1.14602e-16)
(-10.1584 5.72933 0)
(-10.8035 6.16464 0)
(-11.5105 6.58135 0)
(-12.5733 7.05054 -3.83146e-17)
(-13.5882 7.07944 0)
(-14.4139 7.56926 0)
(-15.3502 8.11887 7.31403e-17)
(-16.623 8.36035 3.60286e-17)
(-17.5942 8.50679 3.5585e-17)
(-18.2625 8.57251 0)
(-18.5904 8.5167 0)
(-18.4749 8.24232 3.43333e-17)
(-17.8185 8.21164 -3.40072e-17)
(-17.202 7.7248 0)
(-15.9173 7.94753 0)
(-14.8314 7.7067 -3.33643e-17)
(-13.5333 8.06176 9.96065e-17)
(-12.1194 7.97582 0)
(-11.16 8.0984 0)
(-9.57321 7.94037 3.28113e-17)
(-9.05789 8.04352 0)
(-6.93636 7.53973 6.52345e-17)
(-6.59104 7.65032 -3.23757e-17)
(-4.2086 7.00584 0)
(-2.96816 7.04381 3.21832e-17)
(-1.3234 6.95395 6.50702e-17)
(0.642672 6.363 0)
(2.30351 6.60661 0)
(3.94762 6.50839 -3.23283e-17)
(5.88825 6.1919 0)
(7.6078 6.30908 6.3723e-17)
(9.4113 6.22291 0)
(11.0707 6.2649 0)
(12.7041 6.46863 0)
(13.4958 6.60713 0)
(14.235 6.63497 -2.9722e-17)
(13.9126 6.59083 -2.90709e-17)
(13.836 6.4262 0)
(13.213 6.29233 0)
(13.0474 6.01787 0)
(12.3526 5.74487 2.70502e-17)
(11.8963 5.24751 0)
(12.6789 4.57711 -5.16463e-17)
(12.11 4.47307 5.14459e-17)
(12.7507 4.2692 5.32651e-17)
(13.404 4.34158 5.53695e-17)
(12.1273 4.3564 5.51794e-17)
(11.2334 4.15896 5.35412e-17)
(9.91465 4.46229 0)
(-0.196921 -3.00348 0)
(-0.895041 -2.81715 0)
(-1.47433 -3.08466 2.39757e-17)
(-2.0166 -3.19293 2.37245e-17)
(-2.44262 -3.3268 -2.36952e-17)
(-2.84439 -3.30316 -2.35124e-17)
(-3.25316 -3.20289 -4.22192e-20)
(-3.74112 -3.13886 0)
(-4.26697 -3.09765 0)
(-4.81901 -2.98429 0)
(-5.30347 -2.82726 0)
(-5.6918 -2.82497 0)
(-6.21575 -3.01799 6.57238e-17)
(-6.88781 -2.94236 0)
(-7.43682 -2.60578 -2.14293e-17)
(-8.01531 -2.58824 -2.12691e-17)
(-8.71717 -2.51187 0)
(-9.39402 -2.41756 0)
(-10.1528 -2.31932 0)
(-10.9019 -2.21346 0)
(-11.6318 -2.23085 -2.05476e-17)
(-12.3086 -2.28543 0)
(-12.8705 -2.47091 2.02986e-17)
(-13.3608 -2.67999 0)
(-13.7167 -2.94779 0)
(-13.931 -3.19025 0)
(-14.0844 -3.36778 3.96537e-17)
(-14.2027 -3.44492 0)
(-14.2754 -3.45094 -1.96297e-17)
(-14.3816 -3.42256 3.89502e-17)
(-14.4927 -3.34376 0)
(-14.6417 -3.22749 0)
(-14.8084 -3.13933 0)
(-14.9477 -3.19412 -1.90196e-17)
(-15.0837 -3.37562 -1.88935e-17)
(-15.0291 -3.5846 0)
(-14.9205 -3.93988 0)
(-14.6701 -4.2615 3.70607e-17)
(-14.2796 -4.59476 3.68413e-17)
(-13.7793 -4.84646 -3.66032e-17)
(-13.1782 -5.11424 0)
(-12.5198 -5.19964 0)
(-11.8659 -5.20417 0)
(-11.2259 -5.08975 0)
(-10.496 -4.78199 3.53833e-17)
(-9.95836 -4.74493 3.51704e-17)
(-9.34112 -4.73914 -3.49395e-17)
(-8.59309 -4.42076 0)
(-7.96145 -4.38093 0)
(-6.93605 -4.32762 0)
(-6.09278 -3.87628 0)
(-5.44937 -3.77635 3.39187e-17)
(-4.35866 -3.44165 0)
(-3.43354 -2.47779 0)
(-2.74259 -1.67027 3.30646e-17)
(-2.24545 -1.06382 3.28459e-17)
(-1.73872 -0.502356 0)
(-1.3062 0.127682 -6.47454e-17)
(-1.36815 0.756372 3.22203e-17)
(-1.90763 0.730664 -3.21498e-17)
(-2.97397 0.484113 0)
(-3.6211 -0.139538 0)
(-4.29126 -0.657118 0)
(-4.86637 -0.684631 0)
(-4.94161 -1.5898 -3.05023e-17)
(-5.28552 -2.42873 -6.04133e-17)
(-5.39691 -2.65027 -3.01022e-17)
(-4.91529 -3.51127 3.03407e-17)
(-4.04013 -4.60331 0)
(-3.32466 -5.16164 -5.92603e-17)
(-2.94023 -4.7941 -5.78436e-17)
(-2.80508 -3.63391 -5.68316e-17)
(-3.15859 -2.28955 5.62606e-17)
(-4.02466 -1.02283 0)
(-5.24638 0.123334 8.25696e-17)
(-6.58635 0.949347 0)
(-7.81387 1.396 -2.68128e-17)
(-8.8601 1.552 -2.66044e-17)
(-9.68859 1.59291 0)
(-10.338 1.51816 0)
(-10.8937 1.42506 -5.27221e-17)
(-11.335 1.28392 0)
(-11.6532 1.08684 -5.27853e-17)
(-11.9329 0.834432 0)
(-12.1544 0.597209 5.30865e-17)
(-12.2335 0.322402 1.06573e-16)
(-12.2215 0.0460861 0)
(-12.1394 -0.176317 0)
(-11.9068 -0.401401 0)
(-11.6503 -0.56168 5.34415e-17)
(-11.3059 -0.678649 0)
(-10.7759 -0.862005 5.29685e-17)
(-10.1352 -1.07495 0)
(-9.42851 -1.46026 0)
(-8.6441 -1.86606 -1.05967e-16)
(-7.6972 -2.02537 0)
(-6.46264 -1.77013 -5.16011e-17)
(-5.15716 -1.38383 0)
(-4.08809 -1.1796 -5.0417e-17)
(-2.87584 -1.02153 0)
(-2.57839 -1.20875 0)
(-0.171418 -2.47157 0)
(-0.176501 0.115706 -1.46237e-16)
(1.47009 -0.892301 -4.98528e-17)
(1.55197 -0.361846 0)
(3.11286 -0.522616 0)
(3.5358 0.112604 0)
(4.63036 0.253712 0)
(5.0233 0.809936 4.73012e-17)
(5.54927 1.0147 -9.42132e-17)
(5.70648 1.36789 -4.64716e-17)
(6.03584 1.68909 9.17579e-17)
(5.96634 2.09608 9.01242e-17)
(5.95644 2.51825 4.42923e-17)
(5.60111 2.95791 0)
(5.18101 3.29139 8.51259e-17)
(4.45582 3.75359 0)
(3.85621 4.17877 -8.06422e-17)
(2.93956 4.61853 -3.91136e-17)
(2.03225 5.16901 0)
(0.877831 5.74673 7.60608e-17)
(-0.443753 5.90627 3.82155e-17)
(-1.63724 6.16624 0)
(-2.35713 6.79797 3.70171e-17)
(-3.46316 7.33677 -1.11488e-16)
(-4.63349 7.58353 0)
(-5.45349 7.976 0)
(-5.92289 8.51334 0)
(-7.19318 8.97954 0)
(-8.30604 9.09393 -7.3262e-17)
(-9.69046 9.37696 -7.61434e-17)
(-10.3999 9.636 0)
(-11.063 10.5937 0)
(-11.6366 11.3448 0)
(-12.7389 11.9986 0)
(-13.8092 12.1472 0)
(-15.175 12.748 0)
(-15.9529 13.5791 -7.17199e-17)
(-16.9693 13.9559 -4.80394e-19)
(-17.7078 14.051 0)
(-18.0375 14.0606 0)
(-17.7115 14.1345 -6.87781e-17)
(-17.7699 13.4643 0)
(-16.5369 13.4852 6.85402e-17)
(-15.8612 12.8647 6.73807e-17)
(-14.6044 13.0204 0)
(-13.0102 12.9247 0)
(-12.116 13.2186 -6.64638e-17)
(-10.0345 13.2767 -1.32443e-16)
(-9.58628 13.3824 0)
(-7.25501 13.2426 0)
(-7.41171 13.3085 0)
(-4.46635 12.6519 -6.69681e-17)
(-4.77996 12.8257 6.64418e-17)
(-2.35215 12.0294 0)
(-1.1811 11.6331 1.31808e-16)
(0.806365 11.5403 6.66278e-17)
(2.44545 11.0431 -1.37488e-16)
(3.89948 11.1319 0)
(5.35735 10.8936 0)
(7.43284 10.3462 -1.31391e-16)
(9.323 10.5107 -6.50488e-17)
(11.263 10.4104 0)
(12.6876 10.4623 0)
(14.4985 10.9239 0)
(15.5052 11.0762 0)
(17.2581 11.2656 -1.23618e-16)
(17.4319 11.328 0)
(17.4042 10.9766 0)
(16.2805 10.7522 0)
(15.9651 10.4892 0)
(14.9792 10.0766 0)
(13.8511 8.99985 0)
(14.4511 7.98027 -1.0439e-16)
(13.0851 7.83464 0)
(12.9377 7.10798 0)
(13.7017 7.15882 -2.16313e-16)
(13.1667 7.48601 1.08178e-16)
(12.2622 7.04619 -1.06499e-16)
(10.7786 7.3905 1.01062e-16)
(-0.122055 -4.06593 0)
(-0.77752 -3.50722 -4.68369e-17)
(-1.38003 -3.94017 0)
(-1.7983 -4.28003 -2.37979e-17)
(-2.16481 -4.68992 0)
(-2.61395 -4.80584 0)
(-3.08837 -4.599 2.31993e-17)
(-3.62338 -4.28843 0)
(-4.11884 -4.10334 0)
(-4.58904 -4.12299 0)
(-5.09065 -4.37453 0)
(-5.74273 -4.22765 0)
(-6.45489 -3.33275 -8.63806e-17)
(-7.20876 -3.35826 -4.32266e-17)
(-7.97002 -3.60115 4.25367e-17)
(-8.65964 -3.01872 0)
(-9.50703 -3.00334 0)
(-10.3513 -2.74852 0)
(-11.1516 -2.71173 0)
(-11.9221 -2.8175 0)
(-12.5809 -2.88126 -4.12111e-17)
(-13.1662 -3.21647 -4.08808e-17)
(-13.6144 -3.48203 4.06979e-17)
(-13.9346 -3.94916 -4.05113e-17)
(-14.145 -4.34772 0)
(-14.2059 -4.74209 0)
(-14.2218 -4.97929 -3.99061e-17)
(-14.1204 -5.07043 0)
(-14.0257 -5.03451 0)
(-13.9753 -4.88122 -3.91051e-17)
(-13.9881 -4.66508 -3.87519e-17)
(-14.1294 -4.49311 -3.84732e-17)
(-14.3263 -4.38502 0)
(-14.4976 -4.44218 0)
(-14.6668 -4.63294 3.7755e-17)
(-14.7168 -5.01109 0)
(-14.6298 -5.48899 0)
(-14.3868 -6.04347 -3.71871e-17)
(-13.97 -6.58935 3.68635e-17)
(-13.4001 -6.97569 -3.66368e-17)
(-12.7162 -7.21651 0)
(-12.0659 -7.22732 0)
(-11.4484 -7.15465 -7.20998e-17)
(-10.9189 -7.01918 0)
(-10.2824 -6.63586 -7.11835e-17)
(-9.75485 -6.44325 -1.06172e-16)
(-9.38093 -6.54927 1.05319e-16)
(-8.69021 -6.38673 -6.92452e-17)
(-7.99265 -6.60228 0)
(-7.23687 -6.59888 0)
(-6.44925 -5.69578 -6.77324e-17)
(-5.89187 -5.6927 -3.39374e-17)
(-4.9533 -5.58239 0)
(-4.13769 -4.2296 0)
(-3.53042 -3.39851 -3.31846e-17)
(-3.02403 -2.62295 -6.60584e-17)
(-2.33464 -1.7424 0)
(-1.65602 -0.867628 6.49976e-17)
(-1.32547 0.0861567 -6.46551e-17)
(-0.897414 0.30128 6.43473e-17)
(-1.3465 0.603724 0)
(-1.67978 0.4166 0)
(-2.46516 -0.275355 0)
(-3.30885 -0.896275 0)
(-3.35731 -1.93742 0)
(-3.79305 -2.24899 6.04646e-17)
(-4.11013 -2.77551 0)
(-4.29925 -4.465 0)
(-4.33935 -5.50109 0)
(-4.57941 -5.0779 1.15636e-16)
(-5.24831 -4.04251 5.64691e-17)
(-6.08697 -2.74897 5.5805e-17)
(-6.97708 -1.4283 -1.10575e-16)
(-7.80947 -0.246233 5.47375e-17)
(-8.62041 0.636556 -5.42476e-17)
(-9.4384 1.18863 0)
(-10.0729 1.43246 5.39059e-17)
(-10.4923 1.47944 0)
(-10.7543 1.43493 0)
(-10.9839 1.32264 0)
(-11.2047 1.17107 1.07209e-16)
(-11.4164 0.983901 -5.36404e-17)
(-11.6066 0.760341 -5.37322e-17)
(-11.7732 0.533583 -1.07433e-16)
(-11.93 0.258832 -1.61292e-16)
(-11.9935 -0.0394153 -5.38983e-17)
(-11.9732 -0.44744 0)
(-11.8992 -0.707205 -1.08095e-16)
(-11.6841 -0.929058 0)
(-11.3417 -1.11341 -1.60449e-16)
(-10.8993 -1.3778 0)
(-10.3312 -1.5758 -1.58595e-16)
(-9.60015 -1.88572 0)
(-8.77691 -2.27753 0)
(-8.03452 -2.72786 -5.15498e-17)
(-7.19004 -3.0602 0)
(-6.10289 -2.9877 5.0735e-17)
(-4.85669 -2.6305 1.00616e-16)
(-3.65645 -2.23382 4.98709e-17)
(-1.95266 -1.79176 9.90702e-17)
(-1.59514 -1.98633 -9.85749e-17)
(0.754996 -3.49704 -9.73229e-17)
(0.207439 -0.394804 1.94478e-16)
(2.68625 -1.45574 0)
(2.20991 -0.754937 0)
(4.10994 -1.21665 9.58405e-17)
(4.12443 -0.152847 -9.50368e-17)
(5.55615 -0.160816 0)
(5.9634 0.826525 0)
(6.64641 1.14409 9.5245e-17)
(6.67311 1.5951 0)
(7.12022 2.04135 -2.49436e-19)
(6.99744 2.73688 -2.69952e-19)
(7.15447 3.24447 9.27552e-17)
(6.81748 3.92208 0)
(6.69917 4.76291 -9.06534e-17)
(5.93578 5.44927 0)
(5.41106 6.05158 8.88166e-17)
(4.46419 6.89288 0)
(3.5253 7.52701 0)
(2.31967 8.10099 -8.04338e-17)
(1.24819 8.73786 -8.02278e-17)
(-0.340565 8.95683 0)
(-1.56094 9.18806 -7.7938e-17)
(-2.67805 10.0232 1.52785e-16)
(-3.91046 10.548 0)
(-5.17046 10.8373 0)
(-5.48229 11.5765 0)
(-6.45031 12.4451 0)
(-7.77677 13.1816 7.35469e-17)
(-9.03726 13.4265 -1.50364e-16)
(-9.95434 13.4917 0)
(-11.0356 14.3109 0)
(-11.5376 15.3371 0)
(-12.6068 16.7212 0)
(-12.9761 17.5515 0)
(-14.3594 18.1123 0)