/*--------------------------------*- C++ -*----------------------------------*\
| =========                 |                                                 |
| \\      /  F ield         | OpenFOAM: The Open Source CFD Toolbox           |
|  \\    /   O peration     | Version:  dev                                   |
|   \\  /    A nd           | Web:      http://www.openfoam.org               |
|    \\/     M anipulation  |                                                 |
\*---------------------------------------------------------------------------*/
FoamFile
{
    version     2.0;
    format      ascii;
    class       volSymmTensorField;
    object      UPrime2Mean;
    location    "9.127";
}
// * * * * * * * * * * * * * * * * * * * * * * * * * * * * * * * * * * * * * //

dimensions      [0 2 -2 0 0 0 0];

internalField   nonuniform List<symmTensor> 
12225
(
(0.3292 0.0192923 0 0.0693098 0 0)
(2.98544 0.0797534 0 0.0782398 0 0)
(7.87833 0.11241 0 0.0769413 0 0)
(14.5303 0.148355 0 0.0756144 0 0)
(22.6963 0.133186 0 0.0765587 0 0)
(32.0572 0.201276 0 0.0747113 0 0)
(42.3659 0.0962387 0 0.0766505 0 0)
(53.5052 0.200691 0 0.073887 0 0)
(65.5941 -0.0280384 0 0.0776443 0 0)
(78.1856 0.126113 0 0.0736516 0 0)
(92.9263 -0.305663 0 0.0813359 0 0)
(107.262 -0.115096 0 0.0770193 0 0)
(127.862 -0.671488 0 0.0863194 0 0)
(145.566 -1.27647 0 0.13473 0 0)
(185.858 -1.40844 0 0.116361 0 0)
(198.444 -0.392783 0 2.39139 0 0)
(272.204 -33.5207 0 5.80632 0 0)
(575.627 -52.9001 0 18.8078 0 0)
(0.377334 0.0568775 0 0.689415 0 0)
(3.15523 0.252432 0 0.732746 0 0)
(8.40848 0.362419 0 0.714588 0 0)
(15.4686 0.485822 0 0.707074 0 0)
(24.1897 0.453636 0 0.703924 0 0)
(34.4438 0.633483 0 0.683748 0 0)
(45.5075 0.297058 0 0.69252 0 0)
(58.4551 0.610167 0 0.659188 0 0)
(71.4417 -0.133701 0 0.683006 0 0)
(87.105 0.284485 0 0.646328 0 0)
(102.734 -1.06289 0 0.711571 0 0)
(121.363 -0.763309 0 0.655716 0 0)
(142.777 -2.54024 0 1.06884 0 0)
(166.239 -4.48793 0 1.04657 0 0)
(199.665 -0.927122 0 3.09864 0 0)
(274.238 -9.97502 0 6.59887 0 0)
(280.921 -20.8155 0 8.73568 0 0)
(799.514 -185.095 0 64.6763 0 0)
(0.504942 0.0584645 0 2.14198 0 0)
(3.06325 0.424989 0 2.20395 0 0)
(8.46352 0.571005 0 2.15283 0 0)
(14.8478 0.852721 0 2.14431 0 0)
(24.2679 0.865659 0 2.12118 0 0)
(33.1378 1.05437 0 2.08395 0 0)
(45.2546 0.758115 0 2.07965 0 0)
(56.177 0.888409 0 2.00883 0 0)
(69.6579 0.17498 0 2.0529 0 0)
(83.4063 0.0202545 0 1.96044 0 0)
(98.1431 -1.11925 0 2.12359 0 0)
(115.601 -2.44253 0 2.09513 0 0)
(138.555 -3.59061 0 2.62267 0 0)
(154.797 -7.19245 0 2.83069 0 0)
(210.901 -12.9945 0 6.11424 0 0)
(223.275 -7.88917 0 6.36976 0 0)
(352.819 -62.2203 0 31.0714 0 0)
(534.229 -192.327 0 98.1406 0 0)
(1.0298 0.0925448 0 4.67352 0 0)
(3.5489 0.619992 0 4.77017 0 0)
(9.06682 0.816587 0 4.64587 0 0)
(15.0618 1.15114 0 4.60511 0 0)
(24.6289 1.31461 0 4.56075 0 0)
(32.9718 1.35182 0 4.48636 0 0)
(44.9894 1.26424 0 4.45128 0 0)
(55.1451 0.976475 0 4.35262 0 0)
(68.5736 0.480049 0 4.38427 0 0)
(80.6774 -0.278113 0 4.26035 0 0)
(95.9953 -1.32489 0 4.50951 0 0)
(110.462 -3.33462 0 4.37408 0 0)
(131.417 -4.78598 0 5.30287 0 0)
(152.17 -10.959 0 5.60706 0 0)
(187.785 -11.4205 0 9.28101 0 0)
(238.285 -28.8371 0 16.8142 0 0)
(291.258 -58.8513 0 32.6637 0 0)
(414.658 -178.213 0 107.786 0 0)
(1.8637 0.365412 0 8.52834 0 0)
(5.00839 0.720625 0 8.72995 0 0)
(9.43353 1.14124 0 8.47861 0 0)
(16.2369 1.29596 0 8.37544 0 0)
(24.6394 1.70309 0 8.28568 0 0)
(33.9343 1.50485 0 8.15053 0 0)
(44.8015 1.60148 0 8.04965 0 0)
(55.5 0.996741 0 7.91738 0 0)
(68.3847 0.605811 0 7.86413 0 0)
(80.0863 -0.587993 0 7.76585 0 0)
(95.3277 -1.77126 0 7.96711 0 0)
(108.508 -4.21848 0 7.91363 0 0)
(128.039 -6.86826 0 9.02913 0 0)
(145.154 -12.2764 0 9.27011 0 0)
(173.877 -19.1824 0 14.5853 0 0)
(217.81 -25.9303 0 17.2084 0 0)
(233.505 -55.5169 0 46.2696 0 0)
(326.554 -171.664 0 138.63 0 0)
(2.56077 0.751019 0 14.0491 0 0)
(6.32278 0.807229 0 14.4011 0 0)
(9.29435 1.54138 0 13.9711 0 0)
(17.0912 1.59604 0 13.7761 0 0)
(24.1282 2.12325 0 13.6012 0 0)
(34.2538 1.9396 0 13.369 0 0)
(43.9546 1.99531 0 13.1635 0 0)
(55.1489 1.4203 0 12.9222 0 0)
(67.2951 0.900878 0 12.785 0 0)
(78.8748 -0.378533 0 12.5834 0 0)
(94.3784 -1.72946 0 12.7827 0 0)
(105.781 -4.30179 0 12.6904 0 0)
(128.048 -7.25503 0 13.9907 0 0)
(137.872 -13.1415 0 14.6686 0 0)
(170.878 -21.8211 0 21.2448 0 0)
(191.394 -33.0125 0 24.5937 0 0)
(210.978 -55.8625 0 51.57 0 0)
(265.543 -145.598 0 130.623 0 0)
(2.2416 0.722036 0 21.5465 0 0)
(5.53914 0.941056 0 22.1627 0 0)
(9.19457 1.76529 0 21.3882 0 0)
(16.3332 2.07947 0 21.2002 0 0)
(23.9637 2.453 0 20.8012 0 0)
(33.351 2.54635 0 20.5679 0 0)
(43.5947 2.27926 0 20.0989 0 0)
(54.0272 1.93365 0 19.8686 0 0)
(66.4572 0.904434 0 19.4497 0 0)
(77.328 -0.210581 0 19.2966 0 0)
(92.4742 -2.36166 0 19.2351 0 0)
(103.452 -4.81243 0 19.2775 0 0)
(123.578 -8.96733 0 20.4841 0 0)
(133.863 -14.2453 0 21.4615 0 0)
(161.447 -24.3814 0 28.5161 0 0)
(169.282 -32.3835 0 32.0531 0 0)
(203.309 -58.969 0 56.8579 0 0)
(190.125 -108.695 0 114.112 0 0)
(1.42048 0.598924 0 29.7739 0 0)
(4.3158 1.13485 0 30.6598 0 0)
(8.57645 1.92565 0 29.5118 0 0)
(15.2439 2.475 0 29.3405 0 0)
(23.1956 2.78067 0 28.6947 0 0)
(32.2521 2.96729 0 28.4335 0 0)
(42.401 2.6034 0 27.6809 0 0)
(52.7668 2.19705 0 27.4 0 0)
(64.3989 1.01457 0 26.6751 0 0)
(75.5815 -0.354886 0 26.5095 0 0)
(88.6029 -2.74225 0 26.1242 0 0)
(100.386 -5.72339 0 26.3482 0 0)
(115.482 -10.3076 0 27.1009 0 0)
(128.019 -15.7826 0 28.6148 0 0)
(144.57 -26.4692 0 33.9211 0 0)
(151.947 -33.4324 0 37.4844 0 0)
(180.24 -54.848 0 53.1766 0 0)
(139.497 -71.246 0 83.6835 0 0)
(1.00149 0.521374 0 38.5507 0 0)
(3.77032 1.28799 0 39.7458 0 0)
(8.17081 2.03738 0 38.2073 0 0)
(14.7187 2.78205 0 38.0661 0 0)
(22.6367 3.00899 0 37.1555 0 0)
(31.572 3.31988 0 36.8803 0 0)
(41.4819 2.8102 0 35.8281 0 0)
(51.7521 2.47926 0 35.5093 0 0)
(62.7977 1.04583 0 34.499 0 0)
(73.8113 -0.27296 0 34.2987 0 0)
(85.6155 -3.03595 0 33.6656 0 0)
(96.9738 -5.89196 0 33.9248 0 0)
(109.283 -10.9342 0 34.43 0 0)
(121.159 -16.0218 0 36.1486 0 0)
(131.147 -25.5399 0 40.0235 0 0)
(138.073 -33.1786 0 44.7545 0 0)
(149.897 -47.2777 0 52.4683 0 0)
(123.142 -58.6978 0 73.1206 0 0)
(0.6069 0.484749 0 49.7444 0 0)
(3.22896 1.44686 0 51.3338 0 0)
(7.73472 2.18835 0 49.2356 0 0)
(14.1897 3.03883 0 49.1483 0 0)
(21.9794 3.27705 0 47.858 0 0)
(30.8343 3.584 0 47.5786 0 0)
(40.4522 3.07027 0 46.1159 0 0)
(50.5827 2.64311 0 45.747 0 0)
(61.0985 1.16885 0 44.3258 0 0)
(71.7619 -0.284694 0 44.0816 0 0)
(82.6341 -3.13252 0 43.035 0 0)
(93.1725 -6.02695 0 43.3529 0 0)
(103.801 -11.0793 0 43.3493 0 0)
(113.663 -15.8275 0 45.2048 0 0)
(121.262 -24.4826 0 47.7018 0 0)
(125.7 -30.5412 0 51.9711 0 0)
(129.027 -40.6791 0 56.4851 0 0)
(115.954 -48.3449 0 69.0433 0 0)
(0.432482 0.516571 0 63.948 0 0)
(2.97616 1.62901 0 66.0046 0 0)
(7.4656 2.38572 0 63.3107 0 0)
(13.8382 3.3138 0 63.1991 0 0)
(21.4805 3.57372 0 61.5639 0 0)
(30.1735 3.86426 0 61.1493 0 0)
(39.526 3.36167 0 59.3396 0 0)
(49.3583 2.82477 0 58.7443 0 0)
(59.4203 1.37619 0 57.0215 0 0)
(69.517 -0.259726 0 56.5028 0 0)
(79.6038 -2.97314 0 55.1975 0 0)
(89.1326 -6.07112 0 55.2519 0 0)
(98.4409 -10.5404 0 54.9022 0 0)
(106.313 -15.4 0 56.4478 0 0)
(112.471 -22.1099 0 57.8865 0 0)
(115.005 -28.0218 0 61.6142 0 0)
(115.948 -35.1617 0 64.5752 0 0)
(109.506 -40.7553 0 71.4673 0 0)
(0.355856 0.541089 0 81.4524 0 0)
(2.82981 1.74671 0 84.1398 0 0)
(7.25793 2.55733 0 80.6695 0 0)
(13.5089 3.50496 0 80.5605 0 0)
(20.9774 3.81307 0 78.4725 0 0)
(29.4504 4.04163 0 77.9191 0 0)
(38.501 3.56586 0 75.628 0 0)
(47.9636 2.92531 0 74.8025 0 0)
(57.509 1.48761 0 72.6082 0 0)
(66.9944 -0.215307 0 71.8198 0 0)
(76.1991 -2.86348 0 70.0616 0 0)
(84.7781 -5.84663 0 69.8004 0 0)
(92.6767 -9.94826 0 68.9615 0 0)
(99.1011 -14.274 0 69.9125 0 0)
(103.81 -19.7164 0 70.551 0 0)
(105.754 -24.6264 0 73.0521 0 0)
(105.908 -29.7875 0 74.9909 0 0)
(101.667 -33.269 0 78.6415 0 0)
(0.329092 0.569611 0 102.544 0 0)
(2.73468 1.80846 0 105.756 0 0)
(7.06503 2.68549 0 101.727 0 0)
(13.1479 3.5867 0 101.258 0 0)
(20.4211 3.93739 0 98.9921 0 0)
(28.5991 4.05926 0 97.9119 0 0)
(37.3254 3.62025 0 95.3952 0 0)
(46.3182 2.83944 0 93.9446 0 0)
(55.339 1.48084 0 91.5056 0 0)
(64.1121 -0.334561 0 90.0527 0 0)
(72.4834 -2.75065 0 88.0231 0 0)
(80.0665 -5.67957 0 87.0464 0 0)
(86.7813 -9.18713 0 85.8312 0 0)
(92.0377 -13.0736 0 85.8351 0 0)
(95.7355 -17.2884 0 85.7815 0 0)
(97.3191 -21.3524 0 86.9194 0 0)
(97.4213 -25.194 0 87.9432 0 0)
(94.6197 -27.6468 0 89.5432 0 0)
(0.31353 0.57388 0 126.554 0 0)
(2.63944 1.77565 0 130.487 0 0)
(6.84431 2.66993 0 125.774 0 0)
(12.7238 3.46645 0 124.963 0 0)
(19.755 3.79518 0 122.431 0 0)
(27.5993 3.8102 0 120.853 0 0)
(35.9339 3.33777 0 117.968 0 0)
(44.4362 2.49211 0 115.933 0 0)
(52.8656 1.13869 0 113.069 0 0)
(60.952 -0.62299 0 110.976 0 0)
(68.494 -2.88916 0 108.482 0 0)
(75.2114 -5.51912 0 106.752 0 0)
(80.9438 -8.57211 0 104.981 0 0)
(85.3889 -11.7933 0 103.973 0 0)
(88.4314 -15.1538 0 103.137 0 0)
(89.8676 -18.3193 0 102.959 0 0)
(90.1699 -21.2363 0 102.969 0 0)
(88.2083 -22.8813 0 103.117 0 0)
(0.299143 0.52541 0 151.987 0 0)
(2.53151 1.58324 0 156.493 0 0)
(6.58021 2.37974 0 151.359 0 0)
(12.2261 2.99088 0 149.92 0 0)
(18.9622 3.21539 0 147.359 0 0)
(26.4353 3.07445 0 145.045 0 0)
(34.3293 2.53519 0 141.953 0 0)
(42.3119 1.6044 0 139.145 0 0)
(50.1419 0.276478 0 135.943 0 0)
(57.5546 -1.42682 0 133.063 0 0)
(64.3615 -3.48691 0 130.108 0 0)
(70.3349 -5.82276 0 127.532 0 0)
(75.3443 -8.39779 0 125.125 0 0)
(79.2275 -11.048 0 123.119 0 0)
(81.9232 -13.6842 0 121.401 0 0)
(83.3397 -16.1473 0 120.058 0 0)
(83.9219 -18.3445 0 118.965 0 0)
(82.7156 -19.3891 0 117.85 0 0)
(0.283839 0.394617 0 175.225 0 0)
(2.41311 1.14669 0 180.43 0 0)
(6.28007 1.67234 0 174.817 0 0)
(11.6645 2.00543 0 172.933 0 0)
(18.0671 2.0035 0 170.25 0 0)
(25.1419 1.66762 0 167.397 0 0)
(32.5683 0.988031 0 164.008 0 0)
(40.031 -0.0197956 0 160.609 0 0)
(47.2829 -1.35292 0 156.988 0 0)
(54.0909 -2.96348 0 153.471 0 0)
(60.2772 -4.83038 0 149.98 0 0)
(65.6778 -6.85972 0 146.685 0 0)
(70.1878 -9.01249 0 143.584 0 0)
(73.7343 -11.159 0 140.725 0 0)
(76.2878 -13.2215 0 138.13 0 0)
(77.8125 -15.1198 0 135.801 0 0)
(78.694 -16.7664 0 133.685 0 0)
(78.1457 -17.3629 0 131.483 0 0)
(0.268632 0.156674 0 190.346 0 0)
(2.29229 0.391775 0 196.024 0 0)
(5.96365 0.490162 0 190.125 0 0)
(11.0691 0.412192 0 187.981 0 0)
(17.1217 0.0761607 0 185.233 0 0)
(23.789 -0.531577 0 182.06 0 0)
(30.754 -1.40004 0 178.479 0 0)
(37.7214 -2.52152 0 174.723 0 0)
(44.4553 -3.87035 0 170.808 0 0)
(50.7497 -5.4094 0 166.886 0 0)
(56.4517 -7.09525 0 162.99 0 0)
(61.4399 -8.86277 0 159.207 0 0)
(65.6389 -10.6576 0 155.568 0 0)
(69.0194 -12.4016 0 152.102 0 0)
(71.5742 -14.0191 0 148.833 0 0)
(73.2922 -15.4884 0 145.785 0 0)
(74.4865 -16.7239 0 142.889 0 0)
(74.5309 -17.0439 0 139.891 0 0)
(0.258989 -0.142458 0 190.318 0 0)
(2.19483 -0.534226 0 195.955 0 0)
(5.68715 -0.937589 0 190.119 0 0)
(10.5365 -1.49266 0 187.966 0 0)
(16.2737 -2.21292 0 185.261 0 0)
(22.581 -3.1151 0 182.095 0 0)
(29.1507 -4.18831 0 178.539 0 0)
(35.7104 -5.42683 0 174.786 0 0)
(42.0374 -6.80017 0 170.858 0 0)
(47.9542 -8.27973 0 166.903 0 0)
(53.3249 -9.81873 0 162.926 0 0)
(58.0613 -11.3747 0 159.037 0 0)
(62.1022 -12.8948 0 155.221 0 0)
(65.4418 -14.3356 0 151.554 0 0)
(68.0786 -15.632 0 148.01 0 0)
(70.0181 -16.7911 0 144.668 0 0)
(71.4939 -17.7374 0 141.417 0 0)
(72.0274 -17.9414 0 138.084 0 0)
(0.255841 -0.396427 0 174.491 0 0)
(2.13573 -1.30675 0 179.446 0 0)
(5.49657 -2.12839 0 174.113 0 0)
(10.1562 -3.07697 0 172.12 0 0)
(15.66 -4.10547 0 169.637 0 0)
(21.7034 -5.23463 0 166.746 0 0)
(27.9894 -6.45735 0 163.492 0 0)
(34.2636 -7.77055 0 160.067 0 0)
(40.3162 -9.14576 0 156.459 0 0)
(45.9905 -10.5631 0 152.828 0 0)
(51.1616 -11.9807 0 149.141 0 0)
(55.7612 -13.3719 0 145.532 0 0)
(59.7361 -14.6919 0 141.947 0 0)
(63.0902 -15.9176 0 138.492 0 0)
(65.8217 -16.9974 0 135.106 0 0)
(67.948 -17.9466 0 131.902 0 0)
(69.6382 -18.7039 0 128.744 0 0)
(70.5348 -18.891 0 125.542 0 0)
(0.257307 -0.545666 0 149.039 0 0)
(2.10801 -1.74812 0 153 0 0)
(5.38229 -2.82384 0 148.461 0 0)
(9.9144 -4.00744 0 146.743 0 0)
(15.2616 -5.21127 0 144.62 0 0)
(21.1283 -6.46031 0 142.166 0 0)
(27.2267 -7.74658 0 139.4 0 0)
(33.3151 -9.07192 0 136.493 0 0)
(39.1938 -10.409 0 133.42 0 0)
(44.7192 -11.7478 0 130.326 0 0)
(49.7761 -13.0501 0 127.168 0 0)
(54.3054 -14.3028 0 124.071 0 0)
(58.2608 -15.4665 0 120.975 0 0)
(61.6479 -16.5323 0 117.984 0 0)
(64.4658 -17.4565 0 115.033 0 0)
(66.7367 -18.2583 0 112.233 0 0)
(68.5858 -18.8872 0 109.459 0 0)
(69.7453 -19.0963 0 106.666 0 0)
(0.260183 -0.601466 0 120.118 0 0)
(2.09915 -1.89033 0 123.09 0 0)
(5.31637 -3.06855 0 119.44 0 0)
(9.76319 -4.34177 0 118.045 0 0)
(15.0057 -5.6002 0 116.338 0 0)
(20.7548 -6.86998 0 114.373 0 0)
(26.7295 -8.14083 0 112.159 0 0)
(32.6973 -9.4181 0 109.831 0 0)
(38.4658 -10.6764 0 107.366 0 0)
(43.8997 -11.9127 0 104.88 0 0)
(48.8915 -13.0932 0 102.337 0 0)
(53.3869 -14.2134 0 99.8367 0 0)
(57.3445 -15.2388 0 97.3305 0 0)
(60.7691 -16.1694 0 94.9035 0 0)
(63.6611 -16.9682 0 92.5037 0 0)
(66.0453 -17.6549 0 90.2188 0 0)
(68.0165 -18.1884 0 87.9524 0 0)
(69.3746 -18.4238 0 85.6757 0 0)
(0.263126 -0.590661 0 91.9496 0 0)
(2.09883 -1.83052 0 94.0666 0 0)
(5.27869 -2.99744 0 91.2738 0 0)
(9.6687 -4.24807 0 90.1998 0 0)
(14.8407 -5.4685 0 88.8999 0 0)
(20.5113 -6.68118 0 87.4043 0 0)
(26.4044 -7.87564 0 85.7228 0 0)
(32.2935 -9.0569 0 83.95 0 0)
(37.9919 -10.2042 0 82.0732 0 0)
(43.3696 -11.3164 0 80.1751 0 0)
(48.3249 -12.3664 0 78.2331 0 0)
(52.8059 -13.3527 0 76.3175 0 0)
(56.7748 -14.2478 0 74.3983 0 0)
(60.2348 -15.0542 0 72.5337 0 0)
(63.1877 -15.7437 0 70.6913 0 0)
(65.6605 -16.3315 0 68.9302 0 0)
(67.726 -16.7883 0 67.1862 0 0)
(69.237 -17.0376 0 65.4321 0 0)
(0.266217 -0.536831 0 66.9798 0 0)
(2.10271 -1.65125 0 68.4212 0 0)
(5.25745 -2.73129 0 66.3882 0 0)
(9.60977 -3.88435 0 65.6049 0 0)
(14.7346 -5.00408 0 64.6663 0 0)
(20.3529 -6.10636 0 63.5839 0 0)
(26.1925 -7.18314 0 62.3691 0 0)
(32.0305 -8.23633 0 61.0827 0 0)
(37.685 -9.25112 0 59.7231 0 0)
(43.0292 -10.225 0 58.3425 0 0)
(47.9656 -11.1389 0 56.9327 0 0)
(52.4434 -11.9902 0 55.5372 0 0)
(56.4274 -12.7596 0 54.1424 0 0)
(59.9194 -13.4488 0 52.7829 0 0)
(62.9224 -14.0381 0 51.4419 0 0)
(65.4642 -14.537 0 50.1553 0 0)
(67.6021 -14.927 0 48.8847 0 0)
(69.231 -15.1748 0 47.6029 0 0)
(0.268042 -0.462948 0 46.3216 0 0)
(2.10714 -1.41622 0 47.261 0 0)
(5.24564 -2.36427 0 45.8594 0 0)
(9.57305 -3.37579 0 45.3211 0 0)
(14.6662 -4.35704 0 44.6796 0 0)
(20.25 -5.31742 0 43.9354 0 0)
(26.0551 -6.25192 0 43.101 0 0)
(31.8608 -7.15882 0 42.2132 0 0)
(37.4885 -8.0292 0 41.2772 0 0)
(42.8135 -8.85838 0 40.3235 0 0)
(47.7407 -9.63411 0 39.353 0 0)
(52.2205 -10.3524 0 38.3898 0 0)
(56.219 -11.0009 0 37.4297 0 0)
(59.7371 -11.579 0 36.4911 0 0)
(62.778 -12.0746 0 35.5673 0 0)
(65.3706 -12.4914 0 34.6776 0 0)
(67.5605 -12.8194 0 33.8022 0 0)
(69.2752 -13.0498 0 32.9155 0 0)
(0.269225 -0.383148 0 30.1789 0 0)
(2.11073 -1.16491 0 30.7636 0 0)
(5.23897 -1.95872 0 29.8528 0 0)
(9.54967 -2.8079 0 29.5055 0 0)
(14.6216 -3.63172 0 29.0932 0 0)
(20.1821 -4.43639 0 28.6124 0 0)
(25.9642 -5.21813 0 28.0729 0 0)
(31.7478 -5.97393 0 27.497 0 0)
(37.3567 -6.69728 0 26.8906 0 0)
(42.6671 -7.38344 0 26.2718 0 0)
(47.586 -8.02386 0 25.6435 0 0)
(52.0632 -8.6144 0 25.0187 0 0)
(56.067 -9.14711 0 24.3974 0 0)
(59.5973 -9.62008 0 23.7884 0 0)
(62.6578 -10.0258 0 23.1899 0 0)
(65.2763 -10.3645 0 22.6118 0 0)
(67.4931 -10.6318 0 22.0444 0 0)
(69.2609 -10.8294 0 21.4685 0 0)
(0.269549 -0.30466 0 18.2242 0 0)
(2.11252 -0.919972 0 18.5687 0 0)
(5.23363 -1.55444 0 18.0177 0 0)
(9.5303 -2.23752 0 17.8115 0 0)
(14.5832 -2.90182 0 17.5683 0 0)
(20.1217 -3.55195 0 17.2837 0 0)
(25.8794 -4.18316 0 16.9633 0 0)
(31.6374 -4.79213 0 16.6202 0 0)
(37.2207 -5.37231 0 16.2582 0 0)
(42.5058 -5.92023 0 15.888 0 0)
(47.4022 -6.42862 0 15.5112 0 0)
(51.8585 -6.89512 0 15.1359 0 0)
(55.8465 -7.31292 0 14.7622 0 0)
(59.364 -7.68172 0 14.3952 0 0)
(62.4194 -7.99572 0 14.0345 0 0)
(65.0351 -8.25552 0 13.6853 0 0)
(67.2551 -8.46028 0 13.3431 0 0)
(69.0504 -8.61073 0 12.9961 0 0)
(0.269195 -0.228316 0 9.88891 0 0)
(2.11028 -0.691391 0 10.0726 0 0)
(5.21642 -1.1789 0 9.77518 0 0)
(9.48684 -1.70876 0 9.67277 0 0)
(14.5096 -2.2233 0 9.54832 0 0)
(20.0147 -2.72384 0 9.39906 0 0)
(25.7354 -3.20602 0 9.22831 0 0)
(31.4556 -3.66739 0 9.044 0 0)
(36.9997 -4.10219 0 8.84815 0 0)
(42.2477 -4.50885 0 8.64706 0 0)
(47.1082 -4.8818 0 8.4413 0 0)
(51.5344 -5.22119 0 8.23606 0 0)
(55.4972 -5.52122 0 8.03077 0 0)
(58.9984 -5.78411 0 7.82941 0 0)
(62.0457 -6.00374 0 7.63101 0 0)
(64.6605 -6.18368 0 7.43958 0 0)
(66.8843 -6.32686 0 7.25269 0 0)
(68.713 -6.42896 0 7.06438 0 0)
(0.268067 -0.154833 0 4.48909 0 0)
(2.08341 -0.497948 0 4.58475 0 0)
(5.15511 -0.852517 0 4.45948 0 0)
(9.38601 -1.22898 0 4.42384 0 0)
(14.3832 -1.58611 0 4.37275 0 0)
(19.8628 -1.9285 0 4.3083 0 0)
(25.557 -2.25351 0 4.23095 0 0)
(31.2512 -2.5589 0 4.14442 0 0)
(36.7724 -2.84307 0 4.05134 0 0)
(41.9998 -3.10721 0 3.95547 0 0)
(46.8435 -3.3484 0 3.85761 0 0)
(51.2605 -3.56752 0 3.76047 0 0)
(55.2175 -3.76079 0 3.66353 0 0)
(58.7248 -3.9303 0 3.56949 0 0)
(61.7786 -4.06994 0 3.47677 0 0)
(64.4123 -4.18503 0 3.38925 0 0)
(66.6333 -4.27555 0 3.30395 0 0)
(68.4902 -4.34562 0 3.2197 0 0)
(0.255146 -0.0882033 0 1.42196 0 0)
(2.06736 -0.313483 0 1.48772 0 0)
(5.20344 -0.526063 0 1.44764 0 0)
(9.49276 -0.734478 0 1.43449 0 0)
(14.5433 -0.924613 0 1.41437 0 0)
(20.0741 -1.10725 0 1.39109 0 0)
(25.8245 -1.28391 0 1.36444 0 0)
(31.5778 -1.45202 0 1.3351 0 0)
(37.1604 -1.60996 0 1.30409 0 0)
(42.4467 -1.75755 0 1.27246 0 0)
(47.3499 -1.89328 0 1.24063 0 0)
(51.8191 -2.01717 0 1.2092 0 0)
(55.8259 -2.12719 0 1.17814 0 0)
(59.3728 -2.22402 0 1.14816 0 0)
(62.4598 -2.30355 0 1.11887 0 0)
(65.1249 -2.36978 0 1.09237 0 0)
(67.3456 -2.42241 0 1.06714 0 0)
(69.1946 -2.46191 0 1.04017 0 0)
(0.245831 -0.0253325 0 0.14194 0 0)
(2.0652 -0.0978282 0 0.153726 0 0)
(5.18239 -0.165578 0 0.15094 0 0)
(9.44094 -0.230835 0 0.149771 0 0)
(14.4728 -0.293741 0 0.147468 0 0)
(19.9911 -0.354074 0 0.144739 0 0)
(25.7349 -0.412893 0 0.141739 0 0)
(31.4859 -0.469388 0 0.138607 0 0)
(37.0757 -0.52273 0 0.135383 0 0)
(42.38 -0.572736 0 0.13213 0 0)
(47.3137 -0.619095 0 0.128871 0 0)
(51.8238 -0.661779 0 0.125667 0 0)
(55.884 -0.700219 0 0.122523 0 0)
(59.4895 -0.73427 0 0.119497 0 0)
(62.6468 -0.763199 0 0.11667 0 0)
(65.3886 -0.788447 0 0.114331 0 0)
(67.6994 -0.806672 0 0.112254 0 0)
(69.6259 -0.815995 0 0.111868 0 0)
(0.0244851 0.0357814 0 0.717968 0 0)
(0.267325 0.0991583 0 0.679001 0 0)
(0.785704 0.181004 0 0.671824 0 0)
(1.53941 0.295137 0 0.662577 0 0)
(2.48662 0.424254 0 0.660965 0 0)
(3.60909 0.569184 0 0.657695 0 0)
(4.88487 0.716341 -2.38561e-19 0.65574 -6.49246e-20 1.47959e-37)
(6.31111 0.867333 2.42509e-19 0.651441 6.9236e-20 1.48411e-37)
(7.88114 1.01434 0 0.645432 0 0)
(9.593 1.16181 2.44783e-19 0.637855 6.86548e-20 1.46187e-37)
(11.4415 1.30587 0 0.629266 0 0)
(13.4207 1.44876 0 0.62016 0 0)
(15.5239 1.58589 0 0.612193 0 0)
(17.7449 1.71759 -2.77072e-19 0.605716 -5.17371e-20 1.34807e-37)
(20.0776 1.84071 0 0.599491 0 0)
(22.5222 1.95429 0 0.594244 0 0)
(25.0791 2.05417 3.40172e-19 0.58992 3.90389e-20 1.22134e-37)
(27.7466 2.14199 0 0.585449 0 0)
(30.5198 2.22051 0 0.580774 0 0)
(33.3928 2.29199 0 0.576313 0 0)
(36.3497 2.35539 -4.5603e-19 0.572968 -1.96071e-20 1.01808e-37)
(39.3809 2.41131 0 0.56922 0 0)
(42.4727 2.45781 -5.15769e-19 0.566949 -1.03169e-20 9.25524e-38)
(45.6161 2.49484 0 0.568112 0 0)
(48.7947 2.52863 0 0.568809 0 0)
(51.9945 2.55185 -6.03859e-19 0.570935 1.16538e-21 7.97922e-38)
(55.2083 2.55422 0 0.572779 0 0)
(58.4406 2.53695 6.57459e-19 0.571303 -6.89218e-21 7.21817e-38)
(61.6853 2.506 0 0.563495 0 0)
(64.9483 2.4632 -7.02212e-19 0.553136 1.04708e-20 6.54166e-38)
(68.2283 2.41118 0 0.539608 0 0)
(71.513 2.35243 0 0.523796 0 0)
(74.7947 2.28684 0 0.509752 0 0)
(78.0749 2.21068 0 0.498364 0 0)
(81.3474 2.12335 0 0.486804 0 0)
(84.609 2.02778 7.79458e-19 0.475891 -1.40083e-20 4.60108e-38)
(87.8583 1.92384 0 0.464255 0 0)
(91.0963 1.81137 -1.56212e-18 0.448196 2.71706e-20 1.61428e-37)
(94.3214 1.69199 0 0.432585 0 0)
(97.5287 1.56453 1.55214e-18 0.417934 -2.61887e-20 1.40015e-37)
(100.711 1.43149 0 0.402777 0 0)
(103.868 1.28924 0 0.391112 0 0)
(106.991 1.13873 -1.51416e-18 0.378547 2.1578e-20 1.11314e-37)
(110.061 0.985988 0 0.365729 0 0)
(113.064 0.83126 -1.47566e-18 0.354919 1.82718e-20 9.4378e-38)
(115.985 0.673419 1.45322e-18 0.34606 -1.65373e-20 8.6685e-38)
(118.808 0.509759 0 0.339938 0 0)
(121.526 0.339896 1.40241e-18 0.335162 -1.25122e-20 7.34722e-38)
(124.121 0.164578 1.3742e-18 0.331269 -1.06465e-20 6.80098e-38)
(126.594 -0.0132377 0 0.328014 0 0)
(128.931 -0.192507 0 0.325877 0 0)
(131.113 -0.376063 0 0.323183 0 0)
(133.119 -0.564647 0 0.321955 0 0)
(134.929 -0.755544 0 0.323978 0 0)
(136.517 -0.945409 -1.17394e-18 0.328176 -4.39191e-21 5.02111e-38)
(137.854 -1.13665 0 0.332274 0 0)
(138.928 -1.33262 1.07936e-18 0.335956 1.14602e-20 4.7557e-38)
(139.742 -1.53518 0 0.34118 0 0)
(140.292 -1.74388 0 0.347978 0 0)
(140.562 -1.94971 -9.11653e-19 0.3573 -2.24636e-20 4.75511e-38)
(140.546 -2.15376 0 0.36928 0 0)
(140.228 -2.35871 7.80252e-19 0.381286 3.12437e-20 4.97143e-38)
(139.614 -2.56245 0 0.391578 0 0)
(138.7 -2.7661 0 0.404375 0 0)
(137.495 -2.96893 0 0.418546 0 0)
(136.011 -3.16453 -4.81869e-19 0.432949 -4.76021e-20 6.0357e-38)
(134.252 -3.35354 0 0.447667 0 0)
(132.231 -3.53622 0 0.460737 0 0)
(129.96 -3.71152 -2.26067e-19 0.474374 -6.1199e-20 7.3051e-38)
(127.459 -3.88458 0 0.489429 0 0)
(124.765 -4.05042 -5.04329e-20 0.504596 -6.98436e-20 8.30311e-38)
(121.89 -4.20394 0 0.520041 0 0)
(118.851 -4.34543 0 0.53603 0 0)
(115.679 -4.47619 0 0.553168 0 0)
(112.396 -4.59756 -3.05276e-19 0.571319 8.3192e-20 1.0454e-37)
(109.021 -4.70672 0 0.589417 0 0)
(105.572 -4.80038 0 0.607373 0 0)
(102.057 -4.87896 -5.64488e-19 0.625452 9.03251e-20 1.20177e-37)
(98.4915 -4.94698 -6.46199e-19 0.644209 9.18602e-20 1.25291e-37)
(94.9027 -5.00409 0 0.663001 0 0)
(91.3215 -5.04934 -7.99126e-19 0.682713 9.46318e-20 1.34711e-37)
(87.7688 -5.08341 0 0.703908 0 0)
(84.2648 -5.10558 -1.878e-18 0.725468 1.92574e-19 5.74469e-37)
(80.8238 -5.11483 0 0.748101 0 0)
(77.4636 -5.10954 -2.12308e-18 0.770668 1.93686e-19 6.076e-37)
(74.2022 -5.08795 0 0.793611 0 0)
(71.0538 -5.05328 2.32568e-18 0.819588 -1.93813e-19 6.36558e-37)
(68.0359 -5.00534 0 0.84464 0 0)
(65.1629 -4.93884 0 0.866965 0 0)
(62.4346 -4.85368 0 0.889687 0 0)
(59.8556 -4.75167 -2.58609e-18 0.914708 1.86146e-19 6.79848e-37)
(57.4314 -4.63535 0 0.939325 0 0)
(55.1708 -4.50283 2.64657e-18 0.963542 -1.79892e-19 6.94571e-37)
(53.0759 -4.35374 0 0.987237 0 0)
(51.1353 -4.18242 -2.65836e-18 1.01078 1.73608e-19 7.03363e-37)
(49.3443 -3.99471 -2.6492e-18 1.03205 1.70398e-19 7.06851e-37)
(47.6908 -3.79426 -2.63037e-18 1.05324 1.66255e-19 7.09507e-37)
(46.1697 -3.5847 0 1.07561 0 0)
(44.7549 -3.36521 0 1.09873 0 0)
(43.4575 -3.13684 0 1.1183 0 0)
(42.2598 -2.8997 0 1.1381 0 0)
(41.1565 -2.66055 0 1.15786 0 0)
(40.1287 -2.42079 0 1.17689 0 0)
(39.1761 -2.17863 0 1.19198 0 0)
(38.2487 -1.93529 0 1.20793 0 0)
(37.3498 -1.69853 2.02498e-18 1.223 -1.31489e-19 7.07419e-37)
(36.4403 -1.47018 1.91077e-18 1.24024 -1.2421e-19 7.06645e-37)
(35.5488 -1.25116 0 1.25166 0 0)
(34.6356 -1.04057 0 1.26467 0 0)
(33.7158 -0.853769 0 1.27865 0 0)
(32.7328 -0.67735 1.35445e-18 1.29167 -1.04843e-19 6.90573e-37)
(31.7906 -0.52752 0 1.299 0 0)
(30.7822 -0.385502 0 1.30877 0 0)
(29.8279 -0.283121 0 1.3189 0 0)
(28.9054 -0.200118 0 1.33195 0 0)
(28.0809 -0.149988 -4.40528e-19 1.34028 7.56251e-20 6.65695e-37)
(27.3873 -0.123712 0 1.34938 0 0)
(26.8527 -0.132225 0 1.36277 0 0)
(26.5611 -0.174253 -2.22513e-19 1.37035 -6.50706e-20 6.42013e-37)
(26.5108 -0.242932 4.49898e-19 1.38338 6.09882e-20 6.29604e-37)
(26.7582 -0.352737 0 1.40031 0 0)
(27.3564 -0.509211 9.12252e-19 1.41752 6.00587e-20 6.05029e-37)
(28.3703 -0.705783 0 1.43665 0 0)
(29.8621 -0.957847 -1.3533e-18 1.45431 -6.4578e-20 5.75428e-37)
(31.8526 -1.24378 0 1.47703 0 0)
(34.4161 -1.57955 0 1.50403 0 0)
(37.4512 -1.95752 0 1.53675 0 0)
(41.0687 -2.38607 0 1.571 0 0)
(45.1211 -2.84067 0 1.60902 0 0)
(49.6135 -3.34179 4.89737e-18 1.65119 2.04541e-19 1.97177e-36)
(54.4814 -3.88692 5.15246e-18 1.6973 2.30471e-19 1.93694e-36)
(59.7438 -4.46771 0 1.74537 0 0)
(65.2019 -5.06898 0 1.80132 0 0)
(70.8167 -5.69552 0 1.85653 0 0)
(76.4388 -6.30775 -5.69292e-18 1.91743 -3.52083e-19 1.91685e-36)
(81.8402 -6.92152 0 1.9886 0 0)
(86.9841 -7.54267 0 2.06079 0 0)
(91.8134 -8.15687 0 2.13727 0 0)
(96.2521 -8.74953 -5.33116e-18 2.21557 -5.33269e-19 2.07093e-36)
(100.282 -9.31636 5.0975e-18 2.29903 5.81937e-19 2.1327e-36)
(103.693 -9.83837 0 2.38981 0 0)
(106.601 -10.3479 0 2.48261 0 0)
(108.971 -10.8016 4.0791e-18 2.57719 7.34966e-19 2.36467e-36)
(110.811 -11.2211 3.65017e-18 2.67059 7.83812e-19 2.44993e-36)
(111.968 -11.5655 0 2.77089 0 0)
(112.542 -11.881 0 2.87084 0 0)
(112.426 -12.1236 -2.0529e-18 2.97484 -9.45304e-19 2.71779e-36)
(111.752 -12.3483 1.42327e-18 3.06986 9.88917e-19 2.7965e-36)
(110.564 -12.5026 0 3.16667 0 0)
(108.659 -12.6028 0 3.26733 0 0)
(106.16 -12.6367 -5.21083e-19 3.35825 1.1168e-18 3.06711e-36)
(103.03 -12.6167 0 3.44874 0 0)
(99.5504 -12.5592 0 3.53237 0 0)
(95.5635 -12.4106 -2.54805e-18 3.60486 1.20579e-18 3.2996e-36)
(91.2644 -12.1904 0 3.67689 0 0)
(86.6431 -11.8593 -3.83179e-18 3.73842 1.25676e-18 3.44257e-36)
(81.7571 -11.4431 0 3.79419 0 0)
(76.6512 -10.9089 0 3.83335 0 0)
(71.7101 -10.2763 0 3.85748 0 0)
(66.8256 -9.47877 5.87117e-18 3.87628 -1.27754e-18 3.68082e-36)
(62.1634 -8.56175 0 3.87989 0 0)
(57.9391 -7.49259 0 3.8678 0 0)
(54.4765 -6.3036 0 3.83996 0 0)
(51.6128 -4.92591 0 3.79798 0 0)
(49.5179 -3.46708 0 3.74734 0 0)
(48.7923 -1.91342 0 3.67541 0 0)
(49.6259 -0.290076 6.02026e-18 3.58577 -1.10404e-18 3.72642e-36)
(51.6784 1.42303 5.60453e-18 3.48752 -1.04985e-18 3.70905e-36)
(55.3765 3.11498 0 3.37598 0 0)
(60.6294 4.74141 0 3.25806 0 0)
(67.4337 6.32141 0 3.12858 0 0)
(75.3663 7.7948 -3.05151e-18 2.99888 7.95097e-19 3.38333e-36)
(84.4929 9.09603 0 2.87067 0 0)
(94.0519 10.2842 2.94714e-18 2.73562 -1.35045e-18 1.23617e-35)
(103.941 11.2417 -1.30925e-18 2.60488 1.21763e-18 1.16606e-35)
(113.579 12.0324 3.18424e-19 2.47361 1.1051e-18 1.10187e-35)
(123.234 12.6833 -2.0216e-18 2.34883 -1.01428e-18 1.03336e-35)
(131.356 13.2246 3.67379e-18 2.22987 9.22848e-19 9.75931e-36)
(139.233 13.7021 -5.27839e-18 2.1226 -9.03529e-19 8.99519e-36)
(142.986 14.3952 0 2.06668 0 0)
(0.018312 0.174303 0 6.10182 0 0)
(0.202768 0.388067 0 6.03974 0 0)
(0.629643 0.610073 1.31869e-19 5.86672 1.75867e-19 6.76846e-37)
(1.32739 0.85469 0 5.74566 0 0)
(2.26976 1.13413 -1.92452e-19 5.68567 -3.53793e-19 9.19993e-37)
(3.44622 1.43908 -1.83993e-19 5.65844 -4.41822e-19 9.73191e-37)
(4.83563 1.76386 -8.06396e-20 5.64302 -2.5168e-19 2.49144e-37)
(6.4237 2.1045 -6.88322e-20 5.62499 -2.70632e-19 2.61406e-37)
(8.20253 2.45376 0 5.59661 0 0)
(10.1702 2.80712 -4.18767e-20 5.554 -2.69467e-19 2.59556e-37)
(12.3279 3.15577 0 5.50211 0 0)
(14.674 3.49732 0 5.44246 0 0)
(17.2001 3.82664 9.3947e-20 5.37413 4.24235e-19 9.51626e-37)
(19.9067 4.14332 6.91263e-20 5.30216 1.87099e-19 2.34253e-37)
(22.7833 4.43778 -1.84653e-19 5.22682 -3.26606e-19 8.9409e-37)
(25.8239 4.71001 -2.50864e-19 5.14843 -2.81557e-19 8.66331e-37)
(29.0169 4.9614 -1.70763e-19 5.06391 -1.18603e-19 2.12846e-37)
(32.3562 5.19334 0 4.97305 0 0)
(35.8299 5.4042 0 4.87725 0 0)
(39.4296 5.59853 0 4.77444 0 0)
(43.1317 5.77557 -3.86209e-19 4.66939 -3.6828e-20 1.80466e-37)
(46.9273 5.93264 0 4.56471 0 0)
(50.7935 6.0613 1.6075e-18 4.45799 -1.57968e-20 1.55234e-36)
(54.7179 6.16517 0 4.35486 0 0)
(58.6838 6.24579 0 4.24952 0 0)
(62.6742 6.30326 7.74234e-19 4.14521 -5.75427e-20 1.56549e-37)
(66.6614 6.33428 0 4.03922 0 0)
(70.6266 6.34823 -9.32417e-19 3.9386 8.1685e-20 1.46041e-37)
(74.5363 6.33876 -1.99252e-18 3.83864 1.81362e-19 5.57267e-37)
(78.3803 6.30077 1.07655e-18 3.7359 -9.8669e-20 1.36665e-37)
(82.1549 6.23127 0 3.62808 0 0)
(85.8598 6.13387 0 3.52272 0 0)
(89.4815 6.0111 0 3.4193 0 0)
(93.0241 5.86403 -2.57582e-18 3.31105 2.22685e-19 4.71527e-37)
(96.4791 5.68722 -2.65417e-18 3.20342 2.20191e-19 4.5536e-37)
(99.8601 5.481 -1.3733e-18 3.10225 1.07512e-19 1.10806e-37)
(103.175 5.24372 0 3.01012 0 0)
(106.418 4.9704 2.83749e-18 2.92181 -2.02821e-19 4.13007e-37)
(109.596 4.65901 0 2.83645 0 0)
(112.704 4.31885 -2.87426e-18 2.75478 1.88238e-19 3.81753e-37)
(115.749 3.95098 0 2.67432 0 0)
(118.727 3.56325 0 2.60213 0 0)
(121.645 3.15958 2.82742e-18 2.53115 -1.53938e-19 3.31859e-37)
(124.488 2.737 0 2.46579 0 0)
(127.238 2.28898 8.15988e-18 2.40784 -3.93241e-19 2.686e-36)
(129.892 1.81137 -2.68887e-18 2.3625 1.19172e-19 2.83866e-37)
(132.454 1.3085 0 2.33529 0 0)
(134.941 0.780444 -2.54928e-18 2.31943 9.09805e-20 2.51918e-37)
(137.336 0.219691 -2.46866e-18 2.31321 7.67499e-20 2.36346e-37)
(139.639 -0.367218 0 2.31553 0 0)
(141.825 -0.965765 0 2.32886 0 0)
(143.876 -1.56204 0 2.34384 0 0)
(145.777 -2.14657 0 2.3574 0 0)
(147.492 -2.72366 0 2.38098 0 0)
(149.007 -3.30238 1.88369e-18 2.4137 1.44458e-20 1.72207e-37)
(150.302 -3.89021 3.45183e-18 2.45697 7.10378e-20 6.56334e-37)
(151.356 -4.48176 -1.64474e-18 2.50804 -5.58754e-20 1.60214e-37)
(152.182 -5.09158 0 2.56418 0 0)
(152.751 -5.70261 2.6879e-18 2.62735 1.90248e-19 6.01871e-37)
(153.037 -6.29284 -1.17047e-18 2.69548 -1.13269e-19 1.46965e-37)
(153.067 -6.87783 0 2.77221 0 0)
(152.789 -7.45682 -9.78536e-19 2.86212 -1.48652e-19 1.49596e-37)
(152.216 -8.01403 0 2.95542 0 0)
(151.342 -8.5619 0 3.05675 0 0)
(150.163 -9.09138 -1.04781e-18 3.16291 -3.97088e-19 6.25923e-37)
(148.665 -9.59198 4.2265e-19 3.27372 2.15332e-19 1.6384e-37)
(146.887 -10.085 -4.89012e-19 3.39401 -4.62404e-19 6.68777e-37)
(144.823 -10.5565 2.11801e-19 3.51851 4.89312e-19 6.92565e-37)
(142.499 -11.0034 9.96605e-21 3.64403 2.54562e-19 1.82786e-37)