/*--------------------------------*- C++ -*----------------------------------*\
| =========                 |                                                 |
| \\      /  F ield         | OpenFOAM: The Open Source CFD Toolbox           |
|  \\    /   O peration     | Version:  dev                                   |
|   \\  /    A nd           | Web:      http://www.openfoam.org               |
|    \\/     M anipulation  |                                                 |
\*---------------------------------------------------------------------------*/
FoamFile
{
    version     2.0;
    format      ascii;
    class       volScalarField;
    object      k;
    location    "9.128";
}
// * * * * * * * * * * * * * * * * * * * * * * * * * * * * * * * * * * * * * //

dimensions      [0 2 -2 0 0 0 0];

internalField   nonuniform List<scalar> 
12225
(
8.62197
12.9258
9.66205
12.9753
10.0032
16.3674
13.037
20.5433
16.2496
25.3196
19.6607
29.8518
24.2939
32.8849
30.248
36.0823
40.7851
50.5036
1.59921
6.24625
5.25596
7.04065
5.47241
7.92544
6.38058
9.44574
7.74115
11.144
9.76297
12.2483
12.7613
13.4007
16.7401
20.3544
23.0567
49.582
0.135772
1.76289
1.94071
3.10123
2.9227
3.40115
3.2826
3.49259
3.53509
3.40025
3.90471
3.16501
4.2453
2.86368
4.76305
3.31754
6.73837
16.6261
0.00899204
0.356945
0.532037
0.73016
1.191
1.20543
1.54531
1.41778
1.71576
1.43624
1.69288
1.29871
1.54787
1.09149
1.41161
1.09211
2.91234
3.59406
0.00218638
0.0890448
0.145071
0.218774
0.39465
0.44636
0.63694
0.630845
0.74684
0.647432
0.746527
0.604868
0.694689
0.52781
0.682857
0.639808
1.16383
1.23568
0.0055493
0.0720539
0.0873988
0.122602
0.172446
0.187485
0.252424
0.250713
0.313845
0.271596
0.329454
0.284099
0.354094
0.276464
0.379613
0.249484
0.435621
0.568199
0.001068
0.00586146
0.0176061
0.0214675
0.0440559
0.0460403
0.0767302
0.0745603
0.111098
0.0998805
0.131865
0.119351
0.156208
0.135871
0.179563
0.220659
0.347566
0.365954
0.000181802
0.000969266
0.00448362
0.00593166
0.013606
0.0157185
0.0287996
0.0312547
0.0496325
0.0514478
0.0681987
0.072163
0.0921777
0.099353
0.119882
0.132941
0.177329
0.257373
0.000243752
0.000997438
0.00254487
0.00375344
0.00733075
0.0101307
0.0180008
0.0229069
0.035151
0.0419272
0.0561419
0.0649336
0.0818523
0.0951502
0.109123
0.123555
0.143693
0.186767
0.00021558
0.00113671
0.00212023
0.00422281
0.00693492
0.0131765
0.0183592
0.0291908
0.0362517
0.050054
0.0586996
0.0735602
0.0860066
0.104406
0.115843
0.143406
0.148234
0.168581
0.000408404
0.00133404
0.00246391
0.00583822
0.00923101
0.0189598
0.025393
0.0435279
0.0516194
0.0738112
0.0825654
0.10557
0.115348
0.138476
0.149896
0.169529
0.187553
0.189026
0.000369564
0.0014693
0.00372384
0.00924163
0.0153226
0.0315765
0.0440866
0.0751752
0.0942918
0.128753
0.151596
0.177441
0.196866
0.21598
0.235241
0.248511
0.263903
0.27342
0.000564587
0.00210531
0.00559157
0.0158773
0.0281656
0.0600174
0.0846864
0.141827
0.180884
0.224946
0.255398
0.280474
0.303007
0.321293
0.333795
0.342932
0.352628
0.35956
0.00110546
0.0037032
0.0102552
0.029168
0.0559268
0.118547
0.186236
0.255204
0.31483
0.366201
0.404194
0.430185
0.446825
0.457147
0.465788
0.474353
0.479058
0.480403
0.00180509
0.00807236
0.0234677
0.0588449
0.132772
0.234137
0.335678
0.427974
0.503503
0.558931
0.593807
0.613661
0.62417
0.629118
0.630421
0.630145
0.625834
0.612781
0.00438071
0.0194855
0.0511225
0.12266
0.225814
0.340818
0.449764
0.542714
0.614352
0.663033
0.69048
0.703553
0.708797
0.710281
0.709892
0.706417
0.692631
0.674052
0.00873749
0.0262113
0.064377
0.147479
0.258553
0.377623
0.488616
0.582028
0.652542
0.699269
0.724385
0.735018
0.738428
0.739125
0.73793
0.73266
0.715478
0.695239
0.0084492
0.0264953
0.0659233
0.149734
0.260015
0.377922
0.487457
0.5794
0.648897
0.695061
0.719818
0.729969
0.733203
0.733782
0.732471
0.726934
0.708855
0.688897
0.00478832
0.0192942
0.051377
0.122957
0.221509
0.328953
0.431556
0.520196
0.589739
0.637928
0.665029
0.676671
0.680528
0.681317
0.680015
0.674876
0.659153
0.641629
0.004535
0.0137601
0.0319685
0.0701411
0.136797
0.218775
0.304579
0.384112
0.451659
0.502645
0.535246
0.551598
0.557647
0.559251
0.559057
0.556737
0.548686
0.538587
0.0026373
0.00818412
0.0194652
0.0436107
0.0846334
0.134748
0.187882
0.237765
0.28052
0.315747
0.341319
0.357728
0.365786
0.369018
0.370074
0.370161
0.369256
0.368111
0.000953091
0.00401167
0.0101987
0.023974
0.044209
0.0715224
0.103445
0.134266
0.161714
0.187446
0.209304
0.22657
0.238014
0.243967
0.246707
0.247871
0.247955
0.247429
0.000598911
0.00212669
0.00519272
0.011262
0.024206
0.0410542
0.059679
0.0751999
0.0869725
0.09985
0.112883
0.126184
0.137771
0.148819
0.157327
0.166174
0.172215
0.179034
0.000242762
0.000913504
0.00254946
0.00734263
0.0125817
0.0214107
0.0305449
0.0419448
0.0533704
0.0673491
0.0817914
0.0977646
0.111447
0.125834
0.136515
0.14861
0.156987
0.166015
0.000149279
0.00081848
0.00228582
0.00530201
0.0091231
0.0178046
0.0273793
0.0418571
0.0559276
0.0743853
0.0923992
0.113055
0.128897
0.147344
0.159749
0.176628
0.188759
0.20134
0.000134524
0.00160771
0.00654679
0.0183808
0.036485
0.0684423
0.099557
0.137084
0.168819
0.201297
0.232444
0.262067
0.285048
0.312404
0.330996
0.359145
0.376667
0.399852
0.000760791
0.0186828
0.0765877
0.194533
0.309533
0.42624
0.520533
0.600631
0.662374
0.715843
0.762062
0.799469
0.839319
0.878383
0.914927
0.949986
0.969796
1.01446
0.0192897
0.279158
0.835235
1.3028
1.59839
1.80183
1.91426
1.98692
2.04537
2.07641
2.10228
2.12838
2.14867
2.15561
2.15496
2.14564
2.12081
2.09258
0.581452
3.23586
4.53776
4.97735
4.98815
4.94823
4.83153
4.72802
4.65377
4.59523
4.56542
4.52194
4.47959
4.42124
4.3464
4.23571
4.14721
4.02588
6.96107
11.8791
12.0285
11.2313
10.7905
10.9336
11.4636
12.2462
12.9994
13.7115
14.2768
14.7293
15.0402
15.2194
15.2653
15.2102
15.0713
14.7505
0.0843558
0.114654
0.137216
0.152561
0.172042
0.202238
0.243084
0.295792
0.361509
0.443188
0.539613
0.645685
0.767899
0.911297
1.06754
1.23939
1.43273
1.63808
1.84963
2.06245
2.28208
2.52093
2.78478
3.08639
3.42186
3.791
4.18312
4.58584
4.96669
5.29869
5.47568
5.5341
5.53715
5.4681
5.32066
5.19725
5.09072
5.04581
5.04014
5.07093
5.15419
5.27478
5.40573
5.57589
5.77409
5.94222
6.06085
6.21107
6.40842
6.53307
6.66984
6.93065
7.23489
7.53848
7.96314
8.38787
8.65035
8.80407
8.82729
8.77272
8.70002
8.71339
8.85685
8.98265
9.02664
8.98338
8.84316
8.52092
8.03068
7.57704
7.33471
7.25083
7.48093
7.64734
7.70017
7.53149
6.85949
6.32965
6.15432
6.08801
6.00751
5.90755
6.04397
6.42714
6.94958
7.47434
7.85463
8.03011
8.09024
7.88994
7.5886
7.35744
7.1317
6.73833
6.2025
5.56405
4.77504
3.98656
3.15052
2.54521
2.28117
2.17195
2.02419
1.2996
1.22551
1.03239
0.922587
0.912048
0.936788
1.02122
1.14539
1.34131
1.53316
1.808
2.07923
2.39369
2.6915
3.03917
3.35948
3.62722
3.90495
4.23906
4.47668
4.71833
5.00925
5.31767
5.66297
6.16298
6.72838
7.32122
7.73879
8.15586
8.64133
9.11619
9.64873
10.0341
10.517
10.8442
10.9323
11.0052
11.093
11.2898
11.5501
11.6915
11.7919
11.7387
11.2164
10.9068
10.4668
10.0639
9.51785
9.1389
8.03746
7.5288
6.10536
5.40913
4.62145
3.7391
3.20136
3.04183
3.0129
3.24153
3.84667
4.45521
5.44893
6.39779
7.66299
8.77715
9.48293
10.0288
10.0102
10.0273
9.91306
9.85454
10.0286
10.5621
11.2509
11.7773
11.7197
11.786
0.233447
0.14127
0.133559
0.137601
0.144164
0.159886
0.183513
0.211846
0.245678
0.282693
0.322718
0.374928
0.437601
0.498589
0.567712
0.638475
0.689781
0.738769
0.771595
0.799498
0.831582
0.882917
0.956144
1.04665
1.15398
1.22908
1.26662
1.27958
1.22241
1.08392
0.908813
0.757718
0.650061
0.550239
0.493489
0.467184
0.450981
0.444417
0.451392
0.463551
0.493608
0.535421
0.567969
0.635821
0.72496
0.740514
0.727376
0.761731
0.843888
0.839828
0.857464
1.0038
1.21988
1.40094
1.65852
2.19286
2.91699
3.56662
3.98243
4.29348
4.29954
4.01103
3.62647
3.28494
2.95385
2.62322
2.41736
2.05034
1.48832
1.23807
1.18881
1.3061
1.66882
2.30716
3.1949
3.41294
3.0279
2.65202
2.82648
3.61381
4.22916
4.40414
4.43815
4.37902
4.2721
4.07892
3.74923
3.36477
3.02501
2.69836
2.47791
2.2848
2.0789
1.83229
1.56502
1.35431
1.12742
0.916568
0.818508
0.789248
0.798876
0.792928
0.694484
0.601679
0.68387
0.657191
0.595538
0.609494
0.610077
0.647527
0.67178
0.713924
0.753519
0.821238
0.891492
0.977051
1.06828
1.17798
1.2922
1.40161
1.52239
1.65835
1.77526
1.88778
2.04039
2.18771
2.32246
2.51883
2.79469
3.13009
3.34117
3.41948
3.49584
3.63537
3.97301
4.21046
4.43855
4.86465
5.36706
6.01699
6.6086
6.96838
7.08104
6.81581
6.30022
5.85488
5.35854
5.14464
4.82792
4.67721
4.31287
4.12006
3.61
3.4207
2.91387
2.70941
2.55616
2.35541
2.30748
2.29967
2.33539
2.39172
2.60282
2.80166
3.14176
3.43921
3.96789
4.51111
5.00837
5.52906
5.55831
5.42688
5.14013
4.93239
4.67563
4.70598
4.8
4.89676
5.04473
5.04922
0.529382
0.172043
0.121914
0.114393
0.115763
0.127587
0.144865
0.16009
0.174284
0.193661
0.221845
0.25406
0.29041
0.335682
0.355667
0.364771
0.356847
0.329877
0.308409
0.299691
0.301666
0.309032
0.324812
0.347747
0.363888
0.368571
0.36108
0.337394
0.30971
0.29045
0.279557
0.288687
0.290955
0.287443
0.282508
0.272707
0.256953
0.239546
0.226873
0.219846
0.210902
0.198538
0.195967
0.197916
0.203108
0.204514
0.204846
0.214455
0.223905
0.221163
0.219686
0.23488
0.272927
0.296606
0.327036
0.399472
0.551624
0.739773
0.971765
1.36918
1.79339
2.09981
2.14175
2.0342
1.71383
1.16963
0.810923
0.654902
0.550575
0.513136
0.506771
0.522314
0.57866
0.720878
1.04207
1.49635
2.08007
2.56343
2.77023
2.96894
2.94051
2.66594
2.50278
2.26521
2.00242
1.67163
1.33775
1.08336
0.952701
0.856482
0.796443
0.74006
0.675786
0.598648
0.529745
0.487053
0.445912
0.430075
0.428429
0.463123
0.486905
0.495451
0.496871
0.470486
0.529182
0.596296
0.514499
0.502374
0.488102
0.524751
0.537452
0.547318
0.545722
0.551296
0.565846
0.593228
0.625954
0.672467
0.727627
0.783291
0.860715
0.946795
1.01879
1.12152
1.18467
1.27182
1.34306
1.40338
1.53261
1.70234
1.85264
1.94623
1.98508
2.03832
2.19331
2.48957
2.71428
3.10241
3.66701
4.20003
4.43582
4.37938
4.08089
3.68766
3.36483
3.14771
2.98112
2.94784
2.86914
2.83329
2.75922
2.60151
2.45874
2.29902
2.20848
2.09464
2.03432
1.94728
1.95715
1.92794
1.92633
1.8736
1.91693
1.94457
1.94914
1.98375
2.09472
2.36376
2.58359
2.92286
3.35805
3.6293
3.59824
3.41452
3.06199
2.82832
2.58061
2.44448
2.44832
2.47418
1.09148
0.24768
0.122573
0.107936
0.108194
0.117061
0.130097
0.144656
0.163548
0.184928
0.214693
0.239626
0.266043
0.280284
0.269864
0.248915
0.239297
0.219384
0.210983
0.205176
0.201047
0.200449
0.197538
0.196231
0.195186
0.19467
0.192662
0.192069
0.203288
0.230848
0.261877
0.269877
0.270135
0.263873
0.249104
0.232283
0.219898
0.209141
0.19913
0.192968
0.183113
0.172813
0.171208
0.171813
0.174845
0.178038
0.179947
0.184482
0.185598
0.183302
0.183332
0.191553
0.197789
0.198636
0.19985
0.205355
0.222802
0.255425
0.313976
0.442499
0.637841
0.891233
1.22916
1.35775
1.30839
1.09099
0.772991
0.577265
0.526727
0.518842
0.534413
0.60366
0.710166
0.85517
1.19503
1.70762
2.13381
2.34954
2.353
1.95651
1.79817
1.58644
1.38586
1.17674
0.952898
0.723399
0.568096
0.493122
0.459307
0.443258
0.434309
0.425782
0.410117
0.391616
0.374158
0.355028
0.3447
0.344291
0.358969
0.411467
0.478171
0.499159
0.506049
0.430689
0.466082
0.515273
0.519085
0.503856
0.456975
0.491336
0.510499
0.515502
0.506753
0.49641
0.494403
0.497538
0.507462
0.52639
0.560768
0.594267
0.62492
0.69219
0.744551
0.836054
0.961405
0.986669
1.01777
1.10781
1.14573
1.18894
1.29874
1.42752
1.45492
1.49351
1.60404
1.87887
2.14435
2.56321
2.99348
3.25272
3.28084
3.06021
2.79576
2.56107
2.39135
2.32508
2.29067
2.28865
2.3064
2.2613
2.26725
2.13117
2.07523
1.93108
1.91652
1.92902
1.83984
1.74161
1.74422
1.70118
1.69642
1.64777
1.66718
1.66446
1.57667
1.46798
1.4864
1.61199
1.75431
1.88304
2.16355
2.58875
2.9832
2.99564
2.83297
2.46963
2.16829
1.91801
1.82604
1.76241
1.77969
0.372073
0.131292
0.109
0.111338
0.120903
0.133192
0.152738
0.179802
0.19341
0.203436
0.223145
0.231356
0.230233
0.225035
0.219851
0.21718
0.212496
0.205644
0.201433
0.196074
0.191349
0.182238
0.16826
0.16381
0.163097
0.166459
0.17593
0.200648
0.238477
0.252976
0.253142
0.240619
0.216295
0.203055
0.201532
0.201469
0.200147
0.19398
0.182247
0.168801
0.162509
0.161865
0.162738
0.166399
0.168947
0.169195
0.169684
0.171633
0.175835
0.178795
0.178827
0.176405
0.176482
0.17895
0.180936
0.185104
0.195892
0.210972
0.241447
0.294115
0.395413
0.60057
0.826371
0.918025
0.906236
0.784576
0.619379
0.597253
0.611431
0.692616
0.848166
0.96311
1.14333
1.39448
1.66874
1.82718
1.68596
1.49805
1.27184
1.10473
0.955436
0.793417
0.645345
0.510909
0.404097
0.359175
0.34202
0.3366
0.33554
0.346006
0.347916
0.344773
0.338781
0.327052
0.315011
0.312433
0.315812
0.340205
0.404258
0.486771
0.51006
0.491789
0.420693
0.44967
0.409352
0.530431
0.526474
0.4666
0.475841
0.486673
0.503919
0.501866
0.492752
0.484391
0.484148
0.486554
0.50061
0.50898
0.526673
0.544076
0.566978
0.617949
0.693958
0.769098
0.86163
0.8996
0.975273
1.08302
1.09122
1.10265
1.15539
1.20604
1.28595
1.3914
1.60297
1.88705
2.3036
2.62056
2.69122
2.62093
2.3736
2.19242
2.08958
1.98909
1.97292
2.04042
2.04909
2.09491
2.04478
2.03904
1.93503
1.89271
1.79279
1.68963
1.72137
1.71627
1.64554
1.6387
1.53542
1.44623
1.41182
1.47046
1.56055
1.48753
1.2679
1.24369
1.28055
1.42874
1.49818
1.61685
1.81764
2.31433
2.62401
2.61349
2.43261
2.10414
1.84751
1.71405
1.58068
2.67479
0.497795
0.146083
0.110953
0.110723
0.122411
0.137968
0.157703
0.177233
0.186342
0.203886
0.220634
0.221907
0.21868
0.222356
0.222914
0.223999
0.223067
0.218426
0.212268
0.205437
0.198101
0.185709
0.167668
0.160565
0.160291
0.164127
0.176434
0.203858
0.23637
0.243103
0.239606
0.227943
0.207077
0.199058
0.19819
0.201023
0.204141
0.202545
0.193608
0.177979
0.165126
0.16022
0.158545
0.157901
0.157153
0.156159
0.155672
0.156395
0.160803
0.166867
0.168557
0.17075
0.171724
0.175231
0.177523
0.181708
0.191071
0.203815
0.214503
0.226142
0.254632
0.325216
0.457245
0.632784
0.694177
0.673338
0.616821
0.639639
0.682536
0.813794
0.988929
1.05427
1.16584
1.30699
1.35356
1.26181
1.14304
0.990388
0.85284
0.696647
0.583718
0.4862
0.399923
0.342563
0.316205
0.307691
0.303893
0.30054
0.300202
0.306784
0.306506
0.302191
0.297958
0.2896
0.283976
0.283451
0.290144
0.319254
0.385876
0.459063
0.472962
0.414578
0.395494
0.473566
0.378122
0.510915
0.517385
0.482624
0.454799
0.444026
0.465443
0.483326
0.48257
0.479425
0.479372
0.483331
0.49538
0.50662
0.51376
0.518554
0.525692
0.546735
0.626149
0.665474
0.742471
0.813359
0.847895
0.942502
1.07408
1.07431
1.04886
1.06915
1.1631
1.29913
1.44246
1.79857
2.07469
2.25881
2.27257
2.18648
2.03407
1.85457
1.80512
1.78279
1.75018
1.82995
1.88174
1.91808
1.92466
1.9006
1.81778
1.67483
1.7624
1.58932
1.51931
1.46452
1.47102
1.49341
1.48032
1.21647
1.14635
1.17774
1.41493
1.43851
1.25599
1.15018
1.15667
1.21461
1.31457
1.38752
1.47074
1.70365
2.02582
2.36747
2.33949
2.13811
1.86855
1.69633
1.57892
3.77958
0.728767
0.174996
0.115984
0.114285
0.133374
0.159075
0.172002
0.177409
0.18711
0.208889
0.217038
0.213894
0.215858
0.228256
0.233089
0.233877
0.230539
0.225793
0.224221
0.222503
0.222337
0.214148
0.196836
0.183855
0.182105
0.18434
0.195607
0.220233
0.241134
0.244989
0.241397
0.23072
0.215156
0.206019
0.204952
0.208376
0.218289
0.223578
0.222575
0.215504
0.199917
0.176068
0.164931
0.160494
0.158113
0.155951
0.152775
0.150881
0.152573
0.160377
0.172053
0.173994
0.175277
0.177279
0.178443
0.184187
0.195978
0.209561
0.214552
0.217482
0.223453
0.240812
0.291338
0.407982
0.528205
0.577202
0.607185
0.639834
0.700425
0.884751
0.980676
1.02446
1.06734
1.03349
1.01423
0.928808
0.834496
0.700612
0.57703
0.453742
0.390604
0.343842
0.313858
0.299212
0.289217
0.279693
0.269034
0.263939
0.262709
0.269029
0.276891
0.278117
0.277248
0.275253
0.272549
0.272573
0.277463
0.295561
0.335647
0.353744
0.340416
0.328287
0.365804
0.477681
0.369268
0.4253
0.426613
0.453945
0.439604
0.392473
0.395839
0.418316
0.449448
0.455721
0.459641
0.469537
0.48425
0.509033
0.519183
0.520976
0.5181
0.519597
0.542649
0.622986
0.660349
0.743229
0.792147
0.826173
0.967237
1.0673
1.05473
1.02734
1.05838
1.23186
1.35238
1.63137
1.97279
2.06882
2.06478
1.92695
1.82753
1.75916
1.6712
1.64415
1.59893
1.60802
1.65756
1.67189
1.7061
1.65358
1.72196
1.51412
1.59547
1.48214
1.38152
1.2199
1.21491
1.21264
1.23738
1.05758
0.98449
1.01801
1.19697
1.30816
1.22374
1.12463
1.12634
1.13706
1.16272
1.26053
1.2906
1.36327
1.5266
1.8937
2.11932
2.08622
1.93014
1.69384
1.58564
4.96288
1.15236
0.250206
0.124947
0.117684
0.140692
0.176563
0.187708
0.185756
0.197587
0.215031
0.215088
0.211524
0.218328
0.232306
0.235409
0.234719
0.229535
0.225595
0.224375
0.228775
0.241376
0.257028
0.266078
0.267143
0.270519
0.277735
0.282321
0.289102
0.289354
0.280429
0.263706
0.242303
0.225211
0.212778
0.209754
0.214077
0.223589
0.234496
0.237825
0.235894
0.229368
0.213899
0.190246
0.172373
0.163966
0.159507
0.157318
0.154171
0.154208
0.159437
0.17584
0.186212
0.187622
0.185037
0.183001
0.185645
0.196713
0.213453
0.221813
0.222539
0.224203
0.228711
0.244069
0.29257
0.401557
0.508448
0.563606
0.610999
0.711735
0.867806
0.908713
0.893786
0.849296
0.819582
0.803406
0.725797
0.622683
0.503609
0.399679
0.336378
0.308643
0.295274
0.281821
0.269708
0.256702
0.243823
0.23817
0.23686
0.242591
0.252531
0.256687
0.260124
0.265191
0.268725
0.269834
0.270309
0.27108
0.274667
0.27953
0.273098
0.272225
0.285203
0.312205
0.410472
0.326724
0.357117
0.340208
0.367004
0.356415
0.333857
0.335148
0.347388
0.376848
0.385367
0.402711
0.421972
0.445806
0.47835
0.508436
0.524318
0.525985
0.523586
0.526877
0.547916
0.614968
0.665362
0.730097
0.76303
0.819475
0.996262
1.05441
1.03426
1.03362
1.09236
1.29649
1.47835
1.8079
1.89975
1.91014
1.83645
1.72076
1.69617
1.60852
1.50667
1.42523
1.39637
1.47914
1.42269
1.47459
1.4277
1.50348
1.33917
1.38817
1.33419
1.21605
1.04605
1.03058
0.947534
0.942882
0.850081
0.855127
0.942115
1.08922
1.18008
1.15302
1.10607
1.11763
1.11462
1.10344
1.14943
1.18068
1.2106
1.27105
1.46755
1.75652
1.91163
1.89717
1.73581
1.60162
6.11602
1.52575
0.342402
0.146119
0.12506
0.145958
0.180597
0.186535
0.18426
0.200942
0.223403
0.219837
0.211758
0.216449
0.226717
0.228634
0.225288
0.220519
0.220454
0.224195
0.230343
0.24015
0.254913
0.266866
0.27618
0.284355
0.297038
0.302664
0.303733
0.302279
0.29359
0.27274
0.249346
0.230343
0.21496
0.206921
0.208356
0.214675
0.221442
0.22873
0.231631
0.227926
0.2193
0.20321
0.18084
0.165991
0.160443
0.159206
0.159317
0.159015
0.161378
0.170168
0.182033
0.186975
0.186107
0.186007
0.18838
0.196922
0.211969
0.235615
0.238751
0.23644
0.233488
0.236996
0.249443
0.301526
0.392909
0.453627
0.538645
0.707194
0.80944
0.818576
0.7694
0.706225
0.678911
0.650187
0.57471
0.467993
0.376278
0.316752
0.290676
0.281425
0.267437
0.25082
0.237891
0.228246
0.224423
0.22529
0.228866
0.229779
0.221848
0.218148
0.219064
0.232257
0.255286
0.266514
0.26998
0.270169
0.264634
0.244549
0.237337
0.245207
0.261978
0.280487
0.300574
0.277768
0.304124
0.301561
0.307149
0.289337
0.289445
0.296461
0.309398
0.321422
0.342384
0.368359
0.37866
0.392654
0.408405
0.453168
0.499077
0.519254
0.528167
0.529792
0.53424
0.56185
0.616622
0.670194
0.717751
0.756817
0.836754
1.00512
1.02769
1.02398
1.04016
1.15362
1.40109
1.62656
1.7035
1.69343
1.67068
1.60578
1.58814
1.5289
1.43874
1.37343
1.25586
1.28736
1.23796
1.21593
1.16988
1.26074
1.14603
1.13994
1.14498
1.0361
0.906484
0.911322
0.794191
0.77793
0.779977
0.808454
0.902656
1.06669
1.15463
1.15379
1.12253
1.12767
1.11838
1.07178
1.07943
1.12583
1.1334
1.14735
1.23941
1.53017
1.68915
1.7744
1.70989
1.60507
7.27011
1.98477
0.489105
0.195302
0.150482
0.165195
0.180817
0.178092
0.177343
0.198389
0.218234
0.214048
0.20362
0.203808
0.204128
0.199255
0.188589
0.186256
0.193126
0.210807
0.219258
0.222047
0.216013
0.211985
0.214627
0.218506
0.225515
0.227448
0.226666
0.22712
0.223832
0.217525
0.210676
0.202758
0.194171
0.191909
0.195934
0.204165
0.205325
0.199268
0.197753
0.196408
0.193058
0.188356
0.180011
0.164393
0.155242
0.153888
0.15477
0.155936
0.156028
0.154789
0.156608
0.165988
0.176586
0.178075
0.180149
0.186397
0.199789
0.231053
0.267952
0.269925
0.254794
0.240133
0.23843
0.251009
0.29486
0.356593
0.494731
0.689469
0.746393
0.73821
0.664368
0.611402
0.589072
0.542774
0.4511
0.367183
0.308802
0.281485
0.270804
0.257288
0.236199
0.224763
0.219249
0.217408
0.218612
0.219354
0.214883
0.205133
0.192462
0.186891
0.186163
0.19135
0.207957
0.241296
0.263345
0.265977
0.256741
0.232325
0.227992
0.229259
0.234788
0.243584
0.249756
0.264756
0.27518
0.279847
0.273788
0.26789
0.273728
0.278489
0.288243
0.29774
0.329224
0.355683
0.358053
0.362606
0.36951
0.396323
0.43092
0.486593
0.514158
0.526702
0.529671
0.537422
0.562359
0.62551
0.659986
0.72092
0.762486
0.861228
0.981968
1.00437
1.01921
1.06564
1.2718
1.48205
1.5859
1.56298
1.52506
1.49013
1.49432
1.45872
1.3522
1.34781
1.20722
1.15774
1.13062
1.07049
0.980152
1.03572
0.967885
0.959118
0.957366
0.88025
0.780745
0.738425
0.692947
0.68644
0.766312
0.799176
0.863421
1.07758
1.16202
1.19
1.17382
1.16262
1.12807
1.0583
1.05332
1.0875
1.09686
1.10229
1.14932
1.41035
1.58019
1.62842
1.59041
1.5009
8.38655
2.37222
0.608086
0.225898
0.167387
0.182364
0.186795
0.172652
0.172534
0.19289
0.206214
0.195909
0.181058
0.176733
0.17326
0.168655
0.160939
0.155275
0.156123
0.163998
0.17327
0.174091
0.165156
0.153247
0.1506
0.149744
0.148014
0.147967
0.150033
0.153944
0.155942
0.159105
0.162477
0.162972
0.161428
0.158924
0.160609
0.173584
0.194028
0.197494
0.188297
0.179728
0.176643
0.17196
0.166819
0.156998
0.151387
0.150616
0.151368
0.150846
0.149361
0.143519
0.138598
0.13421
0.137618
0.145491
0.151787
0.163851
0.185327
0.21413
0.26602
0.306243
0.304504
0.268708
0.243254
0.243216
0.257649
0.303079
0.444182
0.643209
0.686485
0.674501
0.600012
0.538642
0.51424
0.448863
0.360535
0.309378
0.277587
0.263524
0.252218
0.229357
0.216715
0.212917
0.21289
0.213849
0.213093
0.206437
0.198533
0.189767
0.182581
0.179587
0.174915
0.171066
0.171481
0.181051
0.206713
0.232895
0.239823
0.228229
0.222267
0.219607
0.222431
0.220324
0.228325
0.248488
0.263812
0.265552
0.259273
0.259364
0.263784
0.27255
0.284143
0.295304
0.331187
0.352387
0.353653
0.355021
0.35895
0.371449
0.387122
0.418273
0.473392
0.511771
0.518918
0.527071
0.539257
0.574092
0.607337
0.653458
0.703779
0.755827
0.870654
0.934815
0.99169
1.02751
1.13764
1.322
1.44261
1.47086
1.45525
1.42871
1.43979
1.40708
1.29561
1.25946
1.13259
1.01249
1.00063
0.960616
0.854639
0.8791
0.853636
0.831725
0.792422
0.746086
0.695524
0.642897
0.649977
0.648214
0.726524
0.806845
0.859208
1.1824
1.18028
1.20287
1.19392
1.18011
1.13782
1.05157
1.0485
1.0765
1.07677
1.08444
1.11437
1.3284
1.52072
1.56633
1.50563
1.39166
9.54386
2.80251
0.769243
0.256456
0.174584
0.185143
0.196289
0.175818
0.175821
0.189637
0.192941
0.176119
0.161462
0.158115
0.157006
0.155677
0.151664
0.142284
0.139254
0.141283
0.14738
0.147677
0.140391
0.128079
0.123309
0.121652
0.120518
0.122287
0.127087
0.131061
0.133586
0.136478
0.142056
0.154529
0.16002
0.158945
0.158619
0.165094
0.18566
0.19539
0.194222
0.182593
0.17416
0.170093
0.162553
0.15364
0.152244
0.153307
0.154744
0.155103
0.148666
0.137438
0.126613
0.122618
0.121749
0.12458
0.131679
0.146854
0.177049
0.212767
0.258136
0.31745
0.346875
0.331037
0.281971
0.252151
0.257479
0.287659
0.391654
0.569396
0.620151
0.615115
0.555874
0.488167
0.451291
0.370831
0.308304
0.27933
0.264457
0.254103
0.232687
0.21578
0.210135
0.209216
0.209738
0.207311
0.199579
0.192375
0.18674
0.181581
0.176821
0.172203
0.166132
0.161064
0.159133
0.15603
0.158528
0.170078
0.193839
0.216974
0.215267
0.20118
0.195966
0.199283
0.217012
0.235063
0.250678
0.254083
0.251739
0.249855
0.256707
0.267289
0.278815
0.304654
0.346039
0.358909
0.35785
0.357324
0.360436
0.369707
0.371914
0.379869
0.405298
0.473756
0.500081
0.521427
0.528955
0.542154
0.572667
0.596123
0.647737
0.684238
0.763326
0.802675
0.899567
0.948969
1.01349
1.17631
1.27251
1.32589
1.33832
1.33246
1.34522
1.33611
1.24327
1.12838
1.04657
0.895895
0.868735
0.842639
0.752426
0.756487
0.749208
0.719445
0.666333
0.653643
0.637043
0.602262
0.629028
0.633749
0.721302
0.836595
0.872743
1.22107
1.16451
1.17022
1.20645
1.18763
1.13736
1.05193
1.05578
1.05895
1.06108
1.07313
1.09896
1.21826
1.4549
1.52244
1.45725
1.37043
10.7391
3.24002
0.980846
0.313271
0.183167
0.18355
0.19876
0.178111
0.17469
0.187702
0.190372
0.175266
0.159071
0.152037
0.14856
0.145596
0.139466
0.130472
0.127812
0.130057
0.138175
0.141437
0.13826
0.128081
0.122228
0.120116
0.118872
0.119107
0.120583
0.122158
0.123262
0.124692
0.128567
0.141499
0.162743
0.16942
0.169446
0.173502
0.193653
0.20204
0.200496
0.190929
0.178944
0.172214
0.162341
0.154983
0.15512
0.160259
0.163593
0.164022
0.15713
0.137889
0.124054
0.118833
0.117295
0.119037
0.125152
0.141334
0.175885
0.222828
0.259429
0.312986
0.367998
0.384189
0.362596
0.308507
0.274101
0.291783
0.366654
0.501964
0.55191
0.554881
0.516056
0.451925
0.401046
0.323005
0.281717
0.2636
0.254293
0.238064
0.215344
0.206574
0.205622
0.206539
0.202464
0.193272
0.188327
0.185136
0.17906
0.175493
0.173246
0.169803
0.16487
0.160963
0.15941
0.151754
0.146751
0.147682
0.152423
0.175411
0.18795
0.185761
0.179595
0.182031
0.202987
0.23009
0.242345
0.249631
0.246794
0.246598
0.255393
0.265582
0.283815
0.333406
0.359883
0.374209
0.376044
0.378128
0.381641
0.380221
0.37405
0.365076
0.369697
0.395659
0.464009
0.503345
0.522054
0.528733
0.543315
0.558993
0.592504
0.622829
0.667171
0.716723
0.781923
0.8312
0.887442
1.02241
1.12763
1.15784
1.18597
1.19913
1.20469
1.20041
1.1319
1.01045
0.934566
0.786116
0.755985
0.735283
0.671299
0.671807
0.662494
0.630659
0.607751
0.598403
0.589135
0.58691
0.603318
0.626136
0.730517
0.938792
0.943895
1.07224
1.04132
1.10613
1.22813
1.25508
1.15206
1.131
1.08537
1.06528
1.07611
1.07868
1.11058
1.1467
1.27258
1.41515
1.39105
1.35502
12.0364
3.68043
1.41593
0.438609
0.208116
0.182791
0.208276
0.19161
0.17624
0.178597
0.179995
0.172495
0.159624
0.152775
0.148651
0.143543
0.137023
0.129572
0.126212
0.12675
0.130552
0.134523
0.134398
0.130174
0.124039
0.121034
0.120093
0.12052
0.121184
0.12202
0.124458
0.127781
0.131759
0.140289
0.163754
0.1837
0.191911
0.197725
0.216448
0.229201
0.227417
0.215183
0.195819
0.185617
0.166554
0.156338
0.156363
0.163069
0.169999
0.170362
0.16706
0.145467
0.125853
0.119553
0.117824
0.119179
0.124602
0.139378
0.174056
0.229781
0.273177
0.311004
0.360827
0.410274
0.418341
0.403943
0.348013
0.331808
0.370677
0.453716
0.498786
0.50702
0.487251
0.434418
0.371902
0.297428
0.26932
0.259282
0.251958
0.230259
0.205788
0.199834
0.199293
0.198842
0.192549
0.187093
0.183684
0.176415
0.172209
0.170855
0.17141
0.170289
0.166726
0.162385
0.160259
0.152346
0.141613
0.136327
0.134926
0.146103
0.157989
0.158076
0.158983
0.16774
0.19685
0.223817
0.240934
0.24859
0.245712
0.246397
0.258061
0.2706
0.311848
0.346166
0.367994
0.382916
0.393753
0.395876
0.397064
0.392816
0.383062
0.363795
0.356475
0.362044
0.404876
0.461204
0.506062
0.511101
0.520457
0.531481
0.550004
0.589208
0.605555
0.643504
0.689791
0.724106
0.776807
0.863936
0.972394
1.00626
1.02708
1.05427
1.05072
1.03951
0.990814
0.8868
0.805835
0.696885
0.6691
0.646593
0.601352
0.606967
0.591431
0.579548
0.569962
0.556644
0.568801
0.581957
0.59796
0.626054
0.734894
1.10398
1.14322
1.00721
0.981389
1.14664
1.2431
1.30621
1.26853
1.30045
1.21815
1.17555
1.16271
1.13824
1.14931
1.13758
1.18114
1.32221
1.34472
1.32128
13.4446
4.02333
1.68117
0.73874
0.282263
0.191209
0.202536
0.21971
0.203293
0.185933
0.181742
0.173191
0.161889
0.154721
0.14943
0.143456
0.136979
0.131077
0.128277
0.128566
0.131198
0.136511
0.137332
0.137206
0.135262
0.12892
0.127097
0.129931
0.131996
0.130254
0.130818
0.134244
0.140138
0.151309
0.176174
0.208064
0.220544
0.232509
0.241092
0.244911
0.243172
0.236974
0.220971
0.204681
0.179574
0.162523
0.159911
0.163465
0.170915
0.171076
0.168362
0.155695
0.135629
0.127964
0.123568
0.122511
0.126335
0.139133
0.170569
0.227958
0.285238
0.315683
0.348182
0.403885
0.452995
0.464374
0.445225
0.373851
0.383417
0.439271
0.478593
0.48044
0.467469
0.428757
0.364485
0.290001
0.262897
0.253812
0.248391
0.223288
0.202284
0.197227
0.196502
0.193814
0.18471
0.179492
0.175401
0.170335
0.168619
0.168619
0.168613
0.168345
0.166876
0.160532
0.157732
0.15518
0.145285
0.135906
0.129368
0.131342
0.139388
0.140851
0.142131
0.154489
0.184706
0.220595
0.240882
0.250326
0.248245
0.249297
0.270432
0.288988
0.331849
0.349712
0.380239
0.394441
0.402346
0.400427
0.399555
0.394627
0.390091
0.374005
0.349368
0.347551
0.361102
0.405334
0.479723
0.492017
0.50841
0.512121
0.520149
0.553784
0.564779
0.589085
0.61011
0.637618
0.679518
0.734441
0.806304
0.86583
0.877998
0.904482
0.895961
0.883117
0.842731
0.776067
0.696964
0.629239
0.60422
0.567851
0.558258
0.555597
0.537444
0.547277
0.53283
0.533621
0.565344
0.572901
0.595097
0.645096
0.786768
1.31185
1.28259
1.11871
1.22368
1.33206
1.26925
1.30416
1.31271
1.36572
1.3649
1.29554
1.24243
1.22017
1.18735
1.1613
1.17775
1.25525
1.29056
1.24186
15.121
4.51504
1.7125
1.04201
0.490233
0.23848
0.203549
0.210813
0.22062
0.221338
0.214069
0.200757
0.184153
0.172491
0.163558
0.154942
0.146754
0.14132
0.138562
0.13756
0.13883
0.14448
0.145948
0.145992
0.149232
0.149489
0.145669
0.144071
0.144029
0.145117
0.148636
0.152978
0.16059
0.184709
0.217966
0.223025
0.224021
0.23167
0.245231
0.250442
0.249064
0.239971
0.225597
0.212353
0.191264
0.171807
0.165169
0.164925
0.167636
0.16843
0.16505
0.153593
0.136075
0.130948
0.131792
0.132323
0.134443
0.141356
0.163825
0.219021
0.286365
0.323278
0.346788
0.383435
0.456029
0.496821
0.499214
0.429634
0.39972
0.437766
0.48322
0.477992
0.463978
0.42929
0.3649
0.290162
0.261972
0.25139
0.243853
0.216902
0.19871
0.195011
0.193866
0.185863
0.177489
0.172643
0.168533
0.164822
0.164132
0.165651
0.165841
0.165164
0.163938
0.159302
0.154319
0.153871
0.14799
0.136433
0.125371
0.123827
0.130351
0.128856
0.131276
0.143565
0.177125
0.221158
0.240915
0.253287
0.251981
0.259222
0.292222
0.305383
0.338887
0.353299
0.381928
0.395994
0.39427
0.393638
0.394954
0.392328
0.390776
0.379691
0.352083
0.339793