/*--------------------------------*- C++ -*----------------------------------*\
| =========                 |                                                 |
| \\      /  F ield         | OpenFOAM: The Open Source CFD Toolbox           |
|  \\    /   O peration     | Version:  dev                                   |
|   \\  /    A nd           | Web:      http://www.openfoam.org               |
|    \\/     M anipulation  |                                                 |
\*---------------------------------------------------------------------------*/
FoamFile
{
    version     2.0;
    format      ascii;
    class       volScalarField;
    object      k_0;
    location    "9.128";
}
// * * * * * * * * * * * * * * * * * * * * * * * * * * * * * * * * * * * * * //

dimensions      [0 2 -2 0 0 0 0];

internalField   nonuniform List<scalar> 
12225
(
8.78091
13.2548
10.0991
13.7863
10.8454
18.0144
14.5071
23.364
18.2954
29.6669
22.0763
35.9478
27.1904
40.5355
34.9723
43.4592
49.8972
48.7989
1.55072
6.086
5.15434
6.82586
5.392
7.61637
6.28209
9.02939
7.62901
10.6626
9.6073
11.8028
12.5565
13.059
16.4622
19.252
20.5778
39.5615
0.125008
1.71671
1.92123
3.06189
2.91127
3.34461
3.25392
3.41606
3.45964
3.32129
3.73133
3.09787
3.9274
2.77768
4.17031
3.02698
4.81482
9.95469
0.00807881
0.347405
0.519678
0.709189
1.1705
1.18926
1.51048
1.40283
1.66286
1.42796
1.62758
1.28962
1.45242
1.07674
1.2479
1.04408
2.11274
2.20086
0.00194163
0.0867613
0.140299
0.213101
0.383568
0.439065
0.620824
0.622257
0.72258
0.639687
0.717805
0.594924
0.658919
0.5205
0.618572
0.610585
0.93128
0.92782
0.00492151
0.0714743
0.0856433
0.120828
0.168315
0.183787
0.244435
0.246001
0.301359
0.266344
0.3139
0.276358
0.3293
0.269245
0.339322
0.246464
0.376746
0.468605
0.000823853
0.00482943
0.0164612
0.0206019
0.0419325
0.0448703
0.0733375
0.0731666
0.106097
0.097747
0.125037
0.117021
0.145343
0.131764
0.161798
0.18911
0.295413
0.336884
0.000156776
0.000994738
0.00430815
0.00589907
0.0131498
0.0156687
0.0280285
0.0311895
0.04849
0.0511381
0.0669516
0.0717176
0.0909684
0.0980258
0.117621
0.12886
0.159802
0.246965
0.000250784
0.00107861
0.00257498
0.00387527
0.00746631
0.0104432
0.0184047
0.023406
0.0358253
0.0425133
0.0571284
0.0652197
0.0835344
0.0950865
0.110701
0.125048
0.139474
0.1856
0.000216032
0.00120205
0.00222069
0.00445389
0.00728034
0.0139294
0.0192345
0.0305497
0.0376932
0.0518588
0.0606504
0.07564
0.0886792
0.106308
0.119141
0.14592
0.151131
0.16731
0.000419742
0.00140848
0.00263756
0.00626321
0.0100025
0.0201558
0.0272746
0.0459584
0.0549468
0.0775703
0.0871903
0.110775
0.121145
0.144799
0.156551
0.176368
0.193595
0.195685
0.000352719
0.00158203
0.00408508
0.00994649
0.016667
0.033883
0.0475953
0.0799773
0.100636
0.135307
0.159458
0.184777
0.205544
0.224221
0.244259
0.257729
0.273028
0.283187
0.000545334
0.00230756
0.00616516
0.0173907
0.0307853
0.0649053
0.0916163
0.151226
0.190697
0.235154
0.265334
0.290743
0.313225
0.331433
0.343552
0.353111
0.362898
0.369884
0.00103143
0.00407199
0.0114264
0.0322147
0.0615887
0.12873
0.198584
0.268362
0.328665
0.379745
0.417154
0.442398
0.458485
0.468558
0.477407
0.486025
0.4904
0.491315
0.00167744
0.00908791
0.0261461
0.0654737
0.144365
0.2487
0.351781
0.444391
0.519198
0.573195
0.606471
0.625144
0.634929
0.639442
0.640547
0.640015
0.634089
0.620049
0.00446615
0.0214738
0.0557605
0.132369
0.238695
0.355594
0.464965
0.557208
0.627302
0.673995
0.699607
0.711417
0.71595
0.717123
0.716441
0.712084
0.696101
0.677312
0.00861846
0.0282644
0.0695138
0.156935
0.270591
0.391076
0.502163
0.594607
0.663388
0.708035
0.731258
0.740626
0.74341
0.743865
0.742062
0.735789
0.716403
0.696114
0.00834684
0.0284659
0.0709331
0.158579
0.271276
0.390428
0.499884
0.590759
0.658504
0.702588
0.725437
0.734322
0.73694
0.737273
0.735271
0.728666
0.708292
0.688367
0.00463609
0.0205535
0.0547449
0.12939
0.229549
0.337858
0.440385
0.528174
0.596245
0.642566
0.66781
0.678133
0.681282
0.681747
0.679725
0.673693
0.656176
0.638578
0.00451019
0.0145313
0.0336327
0.0737325
0.14185
0.224674
0.310515
0.389334
0.455564
0.504792
0.535559
0.550403
0.555542
0.556719
0.556221
0.553351
0.544417
0.534078
0.00255751
0.00860028
0.0204513
0.0458626
0.0876122
0.138007
0.190895
0.24003
0.281845
0.316016
0.340507
0.355884
0.36315
0.3659
0.366679
0.366659
0.365554
0.364273
0.0009179
0.00421396
0.0106841
0.02502
0.0455799
0.0732621
0.105168
0.135561
0.162563
0.187869
0.209207
0.225854
0.236622
0.242067
0.244527
0.245568
0.245579
0.244809
0.000566994
0.0022025
0.00541771
0.0118171
0.025194
0.0421571
0.0605416
0.0755647
0.0870972
0.099991
0.113046
0.126313
0.137829
0.148816
0.15731
0.166149
0.172174
0.178976
0.000236119
0.000937623
0.00271101
0.0077297
0.0130166
0.0219588
0.0311566
0.0427208
0.054389
0.0686618
0.0833663
0.0994216
0.113106
0.127393
0.13801
0.150028
0.158257
0.167296
0.000156044
0.000845207
0.00240142
0.00548854
0.00953446
0.0186362
0.0285108
0.0433324
0.0578183
0.0767658
0.095153
0.115931
0.131826
0.150295
0.162802
0.179962
0.192019
0.204966
0.000133543
0.00174636
0.00716117
0.0197507
0.0390427
0.0722347
0.104346
0.142745
0.174914
0.207977
0.239536
0.269112
0.292361
0.319873
0.338951
0.367525
0.38498
0.408838
0.000874106
0.0208177
0.0834139
0.204123
0.321387
0.439602
0.534337
0.614639
0.676279
0.729804
0.775712
0.813301
0.853787
0.893074
0.929939
0.964203
0.98474
1.02905
0.0222444
0.294216
0.85903
1.32859
1.6234
1.82444
1.93408
2.00593
2.06312
2.09252
2.11832
2.14477
2.16414
2.17001
2.16891
2.15819
2.13264
2.10315
0.606378
3.24795
4.52665
4.95171
4.95858
4.91539
4.79152
4.68459
4.60721
4.54719
4.51839
4.47622
4.43638
4.3805
4.30844
4.20197
4.12016
4.00013
7.03487
11.9372
12.1547
11.3816
11.0165
11.2564
11.8964
12.8047
13.6818
14.5143
15.1866
15.7346
16.1235
16.3646
16.455
16.4347
16.3036
15.984
0.0856487
0.115958
0.138725
0.154298
0.174149
0.204945
0.246605
0.300405
0.367561
0.451072
0.549635
0.658178
0.783595
0.930876
1.09143
1.26848
1.46778
1.67941
1.89762
2.11742
2.34466
2.59209
2.86574
3.17883
3.52733
3.91124
4.3196
4.7399
5.13871
5.48842
5.67684
5.7399
5.7443
5.6727
5.52127
5.39171
5.27682
5.22595
5.21255
5.23853
5.31989
5.43666
5.56709
5.73829
5.93818
6.10256
6.21489
6.36061
6.55337
6.66701
6.79391
7.05789
7.36407
7.67292
8.10605
8.53408
8.80969
8.99368
9.03339
8.97595
8.92076
8.971
9.15474
9.2984
9.35458
9.31337
9.16809
8.83059
8.31318
7.84069
7.57946
7.47329
7.7247
7.89115
7.94933
7.78572
7.09962
6.55595
6.3762
6.30663
6.21759
6.09547
6.2081
6.56468
7.06303
7.56726
7.93177
8.08942
8.13507
7.91386
7.58533
7.32765
7.08884
6.69478
6.16016
5.53032
4.75132
3.9718
3.14383
2.52429
2.25532
2.14611
2.01941
1.30597
1.2263
1.04335
0.935885
0.926596
0.951957
1.03732
1.1616
1.35619
1.54564
1.81644
2.0815
2.38709
2.67491
3.00987
3.31267
3.56405
3.82824
4.13899
4.3517
4.57486
4.84774
5.13443
5.46429
5.94375
6.47917
7.02624
7.40778
7.79354
8.23306
8.6528
9.12361
9.45393
9.86293
10.1334
10.2348
10.3777
10.595
10.9681
11.4204
11.7265
11.9568
11.9852
11.4659
11.1675
10.6999
10.2541
9.64874
9.2152
8.04986
7.48933
6.02835
5.29339
4.49478
3.62424
3.10054
2.9403
2.93269
3.17322
3.81409
4.44749
5.48245
6.46856
7.79082
8.97133
9.71455
10.3291
10.31
10.3432
10.236
10.1731
10.368
10.9379
11.6835
12.289
12.2406
12.3235
0.237912
0.1426
0.134647
0.138571
0.145113
0.160951
0.184734
0.21313
0.246975
0.284067
0.324235
0.376617
0.439417
0.500547
0.569324
0.639387
0.689479
0.73637
0.767131
0.792976
0.823232
0.872423
0.943561
1.03166
1.13643
1.20881
1.24297
1.25392
1.1962
1.05888
0.886045
0.739941
0.640364
0.548858
0.493344
0.467141
0.451141
0.444771
0.452163
0.464522
0.494739
0.535272
0.568486
0.637579
0.721051
0.735338
0.723358
0.765035
0.84182
0.837369
0.859883
1.01848
1.22196
1.40177
1.67057
2.21699
2.9425
3.58422
3.9901
4.27856
4.26883
3.95421
3.58541
3.24356
2.90989
2.57665
2.37054
2.00506
1.4663
1.23696
1.1923
1.31504
1.66609
2.2886
3.16709
3.38105
2.99574
2.6516
2.83913
3.61858
4.22601
4.39659
4.42771
4.3594
4.24174
4.04441
3.71316
3.3247
2.98168
2.65383
2.43369
2.24485
2.04811
1.81192
1.55092
1.34703
1.13046
0.922297
0.820726
0.787146
0.796292
0.794401
0.704867
0.603869
0.687926
0.662279
0.601615
0.615386
0.616524
0.654314
0.67893
0.72148
0.762039
0.830955
0.902301
0.989374
1.08218
1.19364
1.30907
1.42015
1.54357
1.68125
1.79968
1.91593
2.0724
2.22328
2.36574
2.57476
2.86419
3.20343
3.40688
3.48177
3.56515
3.72449
4.08132
4.31655
4.55797
5.00448
5.51558
6.16253
6.72245
7.03907
7.12483
6.82651
6.32219
5.88891
5.40106
5.19197
4.87602
4.72534
4.35986
4.17361
3.65338
3.46858
2.94757
2.73748
2.58322
2.37021
2.31595
2.30837
2.34369
2.40289
2.61799
2.82085
3.16495
3.46428
3.99696
4.54471
5.04403
5.57273
5.6001
5.46807
5.1808
4.9682
4.70363
4.73497
4.8344
4.93624
5.08034
5.0937
0.540864
0.17374
0.122728
0.115118
0.116489
0.128356
0.145683
0.160984
0.175334
0.194864
0.223226
0.255385
0.291649
0.336632
0.355762
0.363694
0.355355
0.327911
0.305777
0.29642
0.297757
0.304326
0.318819
0.340508
0.355782
0.359934
0.352619
0.329598
0.303435
0.286786
0.277811
0.288953
0.29273
0.289446
0.2846
0.27482
0.25884
0.241268
0.228536
0.221376
0.212091
0.19954
0.197183
0.199261
0.203903
0.205329
0.205944
0.216499
0.224869
0.221768
0.220841
0.239023
0.274874
0.296935
0.327059
0.402695
0.550726
0.73485
0.972776
1.37363
1.79279
2.08337
2.1157
1.9984
1.67414
1.13919
0.791319
0.645155
0.550186
0.516223
0.510815
0.527537
0.582721
0.721367
1.03796
1.49877
2.09144
2.56202
2.75747
2.94219
2.91488
2.63842
2.4721
2.23536
1.97502
1.64945
1.31778
1.06159
0.930691
0.837489
0.780084
0.72812
0.669184
0.596608
0.53009
0.489036
0.449123
0.432674
0.430303
0.46425
0.489156
0.49922
0.501225
0.474069
0.530246
0.60048
0.519924
0.50658
0.493055
0.529476
0.542135
0.551841
0.550149
0.556294
0.571736
0.599867
0.633641
0.68139
0.737301
0.794732
0.874359
0.961927
1.03579
1.13949
1.20352
1.29265
1.36439
1.42915
1.56859
1.7416
1.88944
1.97922
2.01815
2.07768
2.2565
2.55818
2.78724
3.19144
3.76083
4.26889
4.46878
4.38761
4.07633
3.68794
3.37508
3.16414
3.00047
2.96742
2.88706
2.85196
2.77657
2.62189
2.47567
2.31742
2.22198
2.10469
2.04524
1.95513
1.96301
1.93432
1.93617
1.88439
1.92561
1.95818
1.96605
2.00213
2.11308
2.38431
2.60717
2.94958
3.38686
3.65729
3.62165
3.44221
3.089
2.84986
2.60323
2.46662
2.4689
2.49728
1.11317
0.250128
0.123376
0.108749
0.109029
0.117999
0.13113
0.145841
0.164989
0.186409
0.215823
0.240596
0.266714
0.280125
0.269843
0.24899
0.239561
0.220111
0.211756
0.205916
0.201365
0.20038
0.196831
0.194548
0.193199
0.192655
0.191029
0.191057
0.202901
0.231007
0.263523
0.272062
0.272273
0.266272
0.251677
0.234488
0.221749
0.210681
0.200588
0.194374
0.184243
0.173889
0.172484
0.173188
0.176328
0.179405
0.18146
0.185972
0.186736
0.184399
0.184867
0.194008
0.199168
0.199709
0.200711
0.206651
0.224371
0.256276
0.315591
0.445221
0.639248
0.895464
1.22779
1.34185
1.28526
1.06636
0.758853
0.572745
0.528053
0.521423
0.539607
0.613557
0.724018
0.873174
1.21434
1.71791
2.12938
2.33477
2.33397
1.93044
1.76531
1.55957
1.35908
1.15434
0.937748
0.71399
0.559944
0.485469
0.452357
0.438013
0.430879
0.424604
0.411136
0.394307
0.377896
0.359409
0.347776
0.346903
0.35985
0.410231
0.480299
0.503983
0.512038
0.435289
0.468557
0.521333
0.523794
0.507417
0.461498
0.49588
0.51488
0.519231
0.510117
0.499928
0.498374
0.501986
0.512534
0.532615
0.568261
0.601374
0.633948
0.703475
0.757988
0.853971
0.977193
0.999112
1.03361
1.12799
1.16194
1.20814
1.32817
1.45241
1.47579
1.51794
1.64697
1.93444
2.20618
2.63047
3.04939
3.28384
3.29557
3.0511
2.79393
2.56325
2.39748
2.33352
2.29601
2.29308
2.30813
2.26619
2.27042
2.13693
2.08342
1.9359
1.9194
1.934
1.84737
1.7437
1.74631
1.70617
1.70402
1.65816
1.67509
1.66919
1.58325
1.48196
1.49939
1.62817
1.77111
1.90127
2.18595
2.61695
3.00841
3.01743
2.85837
2.49114
2.18872
1.93858
1.846
1.78091
1.81814
0.375005
0.132283
0.10985
0.112137
0.121844
0.134347
0.154114
0.181158
0.194531
0.204433
0.224149
0.231959
0.230783
0.226009
0.221367
0.218924
0.214643
0.207835
0.203559
0.19804
0.193005
0.18363
0.169056
0.164061
0.163416
0.166796
0.176512
0.201379
0.24
0.255044
0.255196
0.242858
0.218572
0.20488
0.203281
0.203071
0.201723
0.195358
0.183424
0.169856
0.16363
0.16305
0.163948
0.167732
0.170143
0.17037
0.170923
0.173111
0.177398
0.180172
0.180024
0.177444
0.177804
0.180494
0.182416
0.186862
0.198104
0.213419
0.243421
0.295885
0.399342
0.603198
0.8234
0.908014
0.893205
0.770476
0.61492
0.597435
0.613531
0.700468
0.857639
0.97209
1.15245
1.40142
1.66284
1.80079
1.65301
1.46709
1.25014
1.07891
0.932639
0.775428
0.632395
0.505075
0.40073
0.356487
0.339773
0.334781
0.333831
0.345285
0.349058
0.34685
0.341787
0.330984
0.318078
0.315042
0.317615
0.339943
0.401252
0.488195
0.514006
0.49934
0.424841
0.45427
0.412918
0.533229
0.52821
0.470609
0.48036
0.491635
0.508088
0.505708
0.496115
0.488216
0.487914
0.491234
0.505926
0.513927
0.532919
0.550519
0.574887
0.630149
0.707804
0.784207
0.87631
0.913871
0.995333
1.10099
1.10255
1.11561
1.17451
1.2264
1.31069
1.42333
1.64755
1.94024
2.35965
2.65553
2.70771
2.62094
2.36802
2.19292
2.09155
1.99233
1.97759
2.04302
2.04922
2.09169
2.0438
2.03837
1.93561
1.89576
1.79311
1.69199
1.72646
1.72347
1.65011
1.64015
1.53368
1.45501
1.42427
1.48412
1.56512
1.49079
1.2699
1.24909
1.29009
1.44351
1.5129
1.63228
1.83772
2.34182
2.64451
2.63163
2.45186
2.12044
1.86551
1.73364
1.59761
2.72903
0.503983
0.147543
0.11184
0.111564
0.123477
0.139427
0.159233
0.178243
0.187243
0.205136
0.221599
0.22273
0.219816
0.223942
0.225125
0.226503
0.225759
0.221329
0.215277
0.208503
0.201036
0.188235
0.169524
0.161917
0.16157
0.165341
0.177766
0.20557
0.238402
0.245211
0.241727
0.230068
0.209001
0.20085
0.199984
0.202709
0.205608
0.20386
0.194605
0.178842
0.165933
0.161199
0.159554
0.158912
0.158195
0.157172
0.156749
0.15762
0.162526
0.168431
0.170003
0.172139
0.173134
0.17683
0.179105
0.18369
0.193613
0.206389
0.216591
0.227778
0.256687
0.32794
0.458602
0.63002
0.684916
0.660857
0.614136
0.63916
0.682727
0.818337
0.989951
1.05427
1.16584
1.29675
1.33026
1.23769
1.1211
0.969087
0.835006
0.67916
0.568258
0.47636
0.394814
0.340499
0.314821
0.306736
0.303306
0.300113
0.29966
0.307327
0.308035
0.304343
0.30056
0.292766
0.286502
0.285666
0.291319
0.318333
0.382481
0.460438
0.477263
0.420624
0.397417
0.476769
0.380898
0.513895
0.519112
0.485513
0.457345
0.448405
0.470833
0.487807
0.486355
0.48322
0.483465
0.488179
0.500774
0.511624
0.518105
0.523421
0.531174
0.555511
0.639776
0.676858
0.757696
0.826865
0.86105
0.966771
1.09165
1.08316
1.05534
1.08552
1.19028
1.32717
1.48059
1.84905
2.11231
2.28131
2.28362
2.18327
2.02975
1.85062
1.80633
1.78453
1.7538
1.83915
1.88459
1.91987
1.92464
1.90133
1.81712
1.67844
1.76188
1.59336
1.52787
1.47858
1.48118
1.50507
1.48376
1.22481
1.15752
1.19045
1.42524
1.44374
1.25747
1.15227
1.15946
1.22424
1.32768
1.4
1.48488
1.72275
2.04571
2.38601
2.35579
2.15029
1.883
1.7142
1.59715
3.8443
0.743723
0.177728
0.117017
0.115267
0.134868
0.161444
0.173978
0.178545
0.188273
0.210215
0.217867
0.214928
0.217061
0.229967
0.235041
0.235751
0.232543
0.227895
0.22651
0.225251
0.226108
0.219238
0.202987
0.189017
0.18683
0.188708
0.199679
0.223899
0.244053
0.247566
0.243704
0.232656
0.216724
0.207458
0.206498
0.209983
0.219852
0.22478
0.223641
0.216267
0.200181
0.176315
0.165553
0.161296
0.158957
0.15674
0.153597
0.151882
0.153939
0.162499
0.173849
0.175414
0.176635
0.178515
0.179845
0.186535
0.198703
0.212169
0.216349
0.219206
0.224823
0.24191
0.293747
0.407906
0.525198
0.573633
0.605186
0.637956
0.700472
0.886528
0.976558
1.01814
1.05285
1.01383
0.995497
0.911378
0.81805
0.685775
0.563628
0.443513
0.382569
0.339302
0.311472
0.29794
0.288092
0.278659
0.268471
0.263555
0.26237
0.268607
0.277554
0.279774
0.279448
0.278048
0.27523
0.275035
0.279192
0.295891
0.335192
0.355466
0.343561
0.330744
0.365255
0.479499
0.372775
0.428725
0.431335
0.457245
0.441303
0.395535
0.399789
0.423842
0.454209
0.460015
0.464213
0.474606
0.490074
0.515167
0.524528
0.525333
0.522159
0.524412
0.55287
0.636253
0.672287
0.758044
0.804259
0.839884
0.995075
1.08218
1.06105
1.03345
1.0774
1.26542
1.38206
1.6813
2.00738
2.08473
2.07239
1.92058
1.82602
1.75597
1.67023
1.64659
1.60433
1.61744
1.66466
1.68194
1.71489
1.66408
1.72284
1.51966
1.59972
1.48557
1.38748
1.23462
1.22644
1.22724
1.25505
1.07098
0.995215
1.02365
1.20401
1.31835
1.23013
1.12867
1.12922
1.14307
1.17153
1.27203
1.30179
1.3749
1.54183
1.91311
2.13395
2.09773
1.94036
1.708
1.6039
5.03902
1.17133
0.254621
0.126354
0.118826
0.142196
0.178308
0.18892
0.187105
0.199275
0.216589
0.216198
0.212605
0.219347
0.233363
0.236613
0.236031
0.230904
0.22731
0.226307
0.230958
0.243811
0.260329
0.270645
0.273195
0.277002
0.284634
0.288923
0.294447
0.293945
0.283929
0.266296
0.244293
0.226917
0.214406
0.211389
0.215839
0.225194
0.235931
0.238897
0.236683
0.229794
0.213704
0.189971
0.172464
0.164419
0.160178
0.157966
0.154926
0.155134
0.161299
0.178253
0.187663
0.188636
0.185678
0.184099
0.187431
0.19945
0.215937
0.22425
0.224489
0.22587
0.230386
0.245778
0.294406
0.400417
0.504566
0.557013
0.605792
0.713216
0.864779
0.898552
0.880046
0.833796
0.80374
0.787481
0.711986
0.608994
0.492773
0.391826
0.33143
0.305146
0.293012
0.280008
0.268038
0.255633
0.243363
0.237955
0.236721
0.241994
0.251796
0.256239
0.26005
0.266076
0.270559
0.272245
0.272882
0.273545
0.276521
0.281509
0.274912
0.273789
0.286893
0.311728
0.412776
0.330215
0.359077
0.34371
0.369425
0.359121
0.337053
0.338137
0.352562
0.380981
0.389427
0.40727
0.427212
0.452132
0.485045
0.515079
0.529928
0.530779
0.52791
0.53208
0.557464
0.62845
0.67799
0.742342
0.775429
0.838631
1.02215
1.06631
1.04026
1.04177
1.11944
1.33198
1.51748
1.84099
1.91535
1.91833
1.83209
1.71965
1.69488
1.6028
1.50531
1.42537
1.40415
1.48615
1.4311
1.48652
1.44302
1.51484
1.34832
1.4011
1.34459
1.22442
1.05814
1.04107
0.958907
0.958744
0.86169
0.862848
0.949561
1.0889
1.18415
1.15753
1.10915
1.12041
1.11888
1.11059
1.15892
1.19085
1.21976
1.28148
1.48451
1.77364
1.92458
1.90699
1.74519
1.6177
6.2024
1.5482
0.348157
0.148833
0.12697
0.148138
0.182121
0.187416
0.185105
0.202334
0.224343
0.220769
0.212608
0.217005
0.226872
0.2286
0.224881
0.220246
0.220859
0.225442
0.231898
0.241513
0.256268
0.268759
0.278649
0.287181
0.300045
0.305539
0.30641
0.304735
0.295617
0.274363
0.250702
0.231549
0.216219
0.208434
0.210136
0.216459
0.222892
0.2299
0.232477
0.228266
0.219408
0.202783
0.180316
0.166052
0.161039
0.160015
0.160087
0.159649
0.162193
0.171547
0.18361
0.187917
0.186905
0.18673
0.189409
0.198681
0.214531
0.238471
0.241585
0.238687
0.23523
0.23813
0.249488
0.30088
0.387345
0.446865
0.53669
0.70884
0.802852
0.808758
0.757145
0.693649
0.666627
0.636689
0.562012
0.457568
0.369344
0.312881
0.288195
0.279532
0.265312
0.249121
0.236933
0.227959
0.224344
0.22522
0.228582
0.229506
0.221459
0.217106
0.217627
0.229813
0.25391
0.267803
0.272006
0.27249
0.267631
0.247079
0.238898
0.246457
0.263169
0.282032
0.30267
0.28026
0.30591
0.303725
0.308596
0.29163
0.292016
0.298544
0.312961
0.325232
0.346483
0.371615
0.382945
0.397374
0.414058
0.461724
0.506503
0.525457
0.533513
0.534688
0.539867
0.572822
0.628505
0.682195
0.72955
0.770639
0.860348
1.02508
1.03763
1.03156
1.05278
1.1895
1.43825
1.6532
1.71669
1.69899
1.67362
1.60587
1.5889
1.52445
1.43547
1.36626
1.25678
1.29546
1.24098
1.22588
1.18454
1.27538
1.15784
1.15702
1.16198
1.04685
0.917128
0.927327
0.80581
0.787612
0.778786
0.80587
0.908835
1.06541
1.15963
1.1583
1.1239
1.12911
1.12299
1.07775
1.08653
1.13613
1.14191
1.15627
1.2535
1.552
1.70665
1.78491
1.71737
1.61663
7.37528
2.01025
0.494905
0.197979
0.153438
0.168562
0.182333
0.178514
0.178002
0.199671
0.218418
0.213877
0.203101
0.202706
0.202344
0.197098
0.186413
0.184327
0.191226
0.209754
0.218367
0.22019
0.212947
0.207914
0.21035
0.214263
0.221263
0.223622
0.2234
0.224585
0.222004
0.216695
0.210579
0.20305
0.194901
0.193104
0.197839
0.205508
0.206327
0.199448
0.198318
0.196905
0.193543
0.188787
0.179987
0.164179
0.155609
0.154636
0.155665
0.156583
0.156405
0.154486
0.156911
0.16715
0.177345
0.178529
0.180613
0.187278
0.20177
0.234678
0.27143
0.273138
0.25631
0.240514
0.238894
0.251057
0.292897
0.35392
0.496099
0.688443
0.738899
0.729073
0.654035
0.600739
0.578453
0.531235
0.440102
0.360227
0.304991
0.279238
0.269195
0.255177
0.234681
0.223947
0.219012
0.217488
0.218677
0.219302
0.214855
0.205399
0.193129
0.187042
0.185835
0.189987
0.204671
0.237094
0.263819
0.267526
0.259697
0.234544
0.229499
0.230721
0.236194
0.245287
0.251433
0.266445
0.277086
0.281625
0.275195
0.270493
0.276077
0.28028
0.290651
0.300856
0.333251
0.357261
0.360465
0.365367
0.373447
0.40353
0.439165
0.495114
0.520887
0.532232
0.534712
0.543789
0.572987
0.637055
0.671607
0.733602
0.776514
0.884437
0.999388
1.01488
1.02957
1.08463
1.31172
1.50965
1.6
1.56621
1.52811
1.4929
1.49678
1.45402
1.35119
1.34588
1.19904
1.16547
1.13419
1.07575
0.992678
1.05081
0.978171
0.970879
0.973274
0.892068
0.788437
0.753698
0.700751
0.691464
0.770843
0.797303
0.864558
1.07398
1.1668
1.19488
1.17633
1.16271
1.13262
1.06404
1.05993
1.09698
1.10578
1.11052
1.16168
1.43285
1.59849
1.64248
1.59567
1.50812
8.51614
2.4034
0.614758
0.227617
0.169484
0.184999
0.189276
0.17371
0.173837
0.194355
0.2063
0.194672
0.179832
0.175633
0.172199
0.16784
0.160507
0.154684
0.155328
0.162498
0.171226
0.172086
0.162569
0.150734
0.148213
0.147417
0.145933
0.146505
0.149291
0.153585
0.155981
0.159576
0.163151
0.16377
0.162159
0.159926
0.162177
0.17695
0.19594
0.198299
0.187748
0.180088
0.177208
0.172481
0.167063
0.157205
0.152021
0.151412
0.15219
0.151411
0.149467
0.142833
0.137482
0.133828
0.137833
0.145667
0.152328
0.165435
0.188009
0.218128
0.270814
0.31034
0.307993
0.270423
0.24383
0.243994
0.258626
0.303628
0.44649
0.63889
0.677996
0.665994
0.592424
0.529774
0.504454
0.438003
0.35262
0.305127
0.275704
0.262323
0.25057
0.228167
0.216218
0.212737
0.21296
0.213909
0.213146
0.206493
0.198886
0.190465
0.183391
0.180179
0.175546
0.171112
0.170999
0.178876
0.202708
0.230486
0.240362
0.229635
0.223687
0.22063
0.223833
0.221821
0.22992
0.249746
0.2656
0.267064
0.261233
0.261712
0.265628
0.275152
0.287294
0.298521
0.334536
0.354791
0.356234
0.357223
0.361373
0.375211
0.392581
0.426322
0.482558
0.518725
0.52424
0.532916
0.546186
0.583613
0.617357
0.664911
0.716351
0.772877
0.890109
0.950888
1.00549
1.04214
1.1677
1.34937
1.46022
1.4803
1.45923
1.43283
1.44307
1.40207
1.29174
1.26246
1.12595
1.02022
1.00891
0.965694
0.863549
0.890736
0.862532
0.841595
0.805024
0.757048
0.701383
0.648368
0.653009
0.647841
0.730551
0.80407
0.858447
1.17602
1.1827
1.20648
1.19805
1.18334
1.14173
1.05713
1.05603
1.08417
1.08538
1.09233
1.12582
1.34793
1.5345
1.58262
1.51194
1.40085
9.69986
2.84454
0.780394
0.258643
0.17621
0.187164
0.198524
0.177268
0.177504
0.191087
0.193572
0.175775
0.161402
0.158133
0.157099
0.15587
0.151651
0.142078
0.139184
0.141323
0.14726
0.147371
0.139482
0.127532
0.123068
0.121559
0.120601
0.12282
0.127747
0.13168
0.134256
0.137385
0.143602
0.156237
0.161165
0.159853
0.159775
0.168122
0.188788
0.19681
0.194613
0.181993
0.174525
0.170466
0.162573
0.15404
0.153099
0.154341
0.155652
0.155598
0.147827
0.136499
0.125779
0.122341
0.121793
0.125225
0.132789
0.14934
0.180784
0.217476
0.263231
0.322691
0.351014
0.334008
0.286499
0.253361
0.258697
0.289937
0.394372
0.564678
0.610677
0.605965
0.548891
0.481232
0.442803
0.36255
0.303704
0.27689
0.263193
0.252829
0.231132
0.215126
0.210091
0.20935
0.209717
0.206956
0.199332
0.192678
0.18716
0.182288
0.177824
0.173321
0.16738
0.162131
0.160264
0.15634
0.158064
0.168852
0.191408
0.217074
0.215983
0.202403
0.197187
0.200656
0.218252
0.2364
0.252675
0.255444
0.253876
0.251797
0.25836
0.26965
0.282047
0.307587
0.34831
0.361483
0.360291
0.359642
0.363646
0.372498
0.374202
0.384067
0.413971
0.483137
0.507139
0.527671
0.534597
0.549284
0.580803
0.605314
0.659031
0.697033
0.778008
0.817282
0.918629
0.964855
1.0361
1.20264
1.2911
1.33935
1.34796
1.33971
1.35401
1.33911
1.23689
1.13099
1.04571
0.90083
0.877317
0.850026
0.758937
0.764513
0.757859
0.728485
0.674901
0.66125
0.642616
0.605613
0.633995
0.635175
0.723004
0.830359
0.869301
1.2248
1.16352
1.17639
1.21053
1.19047
1.13921
1.05516
1.06309
1.06508
1.06775
1.08204
1.1095
1.23305
1.46284
1.53696
1.46131
1.38235
10.9284
3.29728
1.00676
0.318522
0.184895
0.185106
0.20132
0.179574
0.176109
0.189052
0.19112
0.175503
0.15962
0.152682
0.149174
0.145896
0.139398
0.130606
0.128289
0.130928
0.138898
0.141746
0.138215
0.128038
0.122537
0.120632
0.11956
0.11996
0.121564
0.123105
0.12424
0.125854
0.130388
0.145024
0.165475
0.170924
0.170746
0.176173
0.19726
0.203685
0.201204
0.190627
0.17902
0.172384
0.162258
0.155443
0.156007
0.161555
0.164398
0.164561
0.155697
0.136291
0.123335
0.118782
0.117585
0.119783
0.126553
0.144464
0.180535
0.228618
0.264769
0.318241
0.372475
0.388805
0.366332
0.315338
0.27665
0.294266
0.37037
0.498338
0.544318
0.546659
0.509933
0.447236
0.394606
0.317667
0.279419
0.262582
0.253685
0.237105
0.21423
0.205876
0.205052
0.206124
0.201817
0.192944
0.188348
0.185239
0.179412
0.176155
0.174343
0.171183
0.166344
0.162228
0.160808
0.15316
0.147176
0.147899
0.152088
0.174054
0.188287
0.186344
0.180634
0.183384
0.203801
0.231486
0.244103
0.251361
0.2487
0.248209
0.257263
0.268349
0.287221
0.334987
0.362347
0.377046
0.378156
0.379489
0.384281
0.382655
0.375663
0.366494
0.373835
0.403979
0.474792
0.510789
0.527812
0.533813
0.549728
0.566116
0.601503
0.632355
0.678956
0.730162
0.79644
0.846239
0.907817
1.04783
1.14564
1.17186
1.19928
1.21051
1.21688
1.21002
1.13076
1.0129
0.936831
0.789769
0.763154
0.741826
0.677408
0.678425
0.669774
0.637332
0.613235
0.603854
0.59444
0.588588
0.605423
0.627334
0.731596
0.926656
0.928907
1.08368
1.04354
1.10695
1.23282
1.24997
1.15111
1.12746
1.08983
1.07008
1.07959
1.08735
1.12034
1.15642
1.28305
1.42558
1.39526
1.36646
12.2688
3.75029
1.45307
0.454306
0.211928
0.184265
0.211602
0.195611
0.178035
0.179551
0.18058
0.172816
0.160306
0.153579
0.149254
0.143912
0.137283
0.130092
0.127087
0.127823
0.13179
0.135401
0.135124
0.130681
0.12478
0.121902
0.121191
0.121819
0.12237
0.123257
0.126037
0.129359
0.133652
0.143586
0.168423
0.187206
0.19465
0.200925
0.220863
0.231526
0.228291
0.214303
0.195598
0.185203
0.165717
0.156617
0.157282
0.164729
0.170647
0.170595
0.166051
0.14279
0.124886
0.119577
0.118206
0.119914
0.126004
0.142322
0.17926
0.235822
0.279523
0.31596
0.364967
0.41399
0.42375
0.409362
0.355775
0.336534
0.372907
0.452279
0.495773
0.502123
0.482933
0.431698
0.368483
0.294711
0.268024
0.258515
0.251527
0.229952
0.205431
0.199471
0.198798
0.198022
0.19186
0.186917
0.18373
0.176548
0.172566
0.171402
0.172191
0.171502
0.168164
0.163638
0.161467
0.153772
0.142878
0.137122
0.135298
0.145947
0.15829
0.158527
0.159685
0.168744
0.198119
0.225494
0.242696
0.250229
0.247446
0.248152
0.259676
0.273268
0.315105
0.347574
0.370896
0.385936
0.39573
0.397222
0.399317
0.394549
0.384219
0.364571
0.358491
0.365832
0.415803
0.470455
0.512938
0.515194
0.526021
0.537061
0.558185
0.596757
0.613347
0.654821
0.700871
0.736915
0.793852
0.885765
0.99119
1.01943
1.0416
1.06731
1.06249
1.05063
0.99475
0.889289
0.810179
0.699935
0.67459
0.652289
0.607076
0.613117
0.597016
0.584915
0.574824
0.561135
0.570549
0.583668
0.600151
0.626404
0.737174
1.09301
1.11432
1.00071
0.980268
1.13429
1.2451
1.30557
1.26513
1.29335
1.21519
1.17244
1.16119
1.14515
1.15737
1.14585
1.19426
1.33153
1.34899
1.3297
13.7211
4.11114
1.70697
0.771518
0.293822
0.193861
0.204424
0.223491
0.208164
0.189453
0.183687
0.174312
0.163054
0.155801
0.150222
0.143982
0.137518
0.132086
0.129661
0.130097
0.132992
0.138242
0.138891
0.138925
0.13683
0.130248
0.129026
0.13259
0.134025
0.131729
0.132513
0.136695
0.143181
0.156375
0.182726
0.212967
0.223731
0.235531
0.243609
0.246741
0.244137
0.236693
0.219868
0.202939
0.1777
0.162052
0.160402
0.164803
0.171404
0.171113
0.167374
0.153167
0.134294
0.127734
0.123847
0.123039
0.127764
0.141767
0.175544
0.234379
0.291344
0.32061
0.352781
0.407655
0.457209
0.468985
0.448368
0.373748
0.38378
0.439898
0.478842
0.479491
0.466102
0.427836
0.363152
0.288946
0.262333
0.25312
0.247637
0.222756
0.202157
0.197128
0.196213
0.19318
0.184307
0.179213
0.175222
0.170406
0.168876
0.169112
0.169158
0.168887
0.167875
0.161453
0.158424
0.156061
0.146454
0.136978
0.129899
0.131871
0.139928
0.141634
0.142907
0.155414
0.186142
0.222326
0.242834
0.25187
0.249817
0.251109
0.272711
0.291979
0.334376
0.35219
0.384131
0.396957
0.40339
0.402605
0.402266
0.39647
0.391889
0.374081
0.350024
0.349856
0.36734
0.416078
0.488338
0.497228
0.513158
0.516146
0.526221
0.561234
0.570636
0.597313
0.618003
0.647868
0.692894
0.750816
0.824766
0.879411
0.891442
0.917799
0.906472
0.893865
0.849275
0.778817
0.70036
0.63097
0.607693
0.573369
0.561104
0.560282
0.541782
0.551676
0.536117
0.536007
0.56735
0.575006
0.596798
0.640621
0.786101
1.30126
1.27038
1.10261
1.21361
1.31063
1.27286
1.30447
1.31124
1.36553
1.36233
1.28872
1.23784
1.22118
1.19271
1.16791
1.18821
1.263
1.29197
1.24487
15.4101
4.62757
1.72846
1.06511
0.513671
0.248041
0.205284
0.212281
0.223653
0.225882
0.219162
0.20635
0.189721
0.176937
0.167287
0.158026
0.149435
0.144149
0.141504
0.140341
0.141706
0.147423
0.148234
0.148164
0.152024
0.152036
0.147437
0.146184
0.146322
0.147929
0.151845
0.156727
0.165309
0.193183
0.223274
0.225362
0.226074
0.236063
0.248757
0.252653
0.250102
0.239187
0.224664
0.210597
0.188836
0.170406
0.165036
0.165145
0.167836
0.168023
0.163323
0.150887
0.134587
0.130718
0.13196
0.132641
0.135385
0.142902
0.168022
0.22515
0.292925
0.328242
0.35087
0.387961
0.460522
0.498815
0.500536
0.428851
0.398475
0.43697
0.482839
0.477871
0.464409
0.429993
0.364669
0.289605
0.261731
0.251026
0.243214
0.216392
0.198416
0.194744
0.193499
0.184972
0.176762
0.172248
0.168467
0.164851
0.164069
0.165771
0.166109
0.165567
0.164523
0.160235
0.154926
0.154508
0.148828
0.137426
0.125886
0.12434
0.131157
0.129381
0.1317
0.144408
0.178662
0.223068
0.242755
0.254637
0.253473
0.261159
0.294405
0.307908
0.341114
0.355316
0.385184
0.397736
0.395513
0.397004
0.39811
0.394728
0.393033
0.379924
0.351957
0.341192
0.344351
0.371041
0.439148