/*--------------------------------*- C++ -*----------------------------------*\
| =========                 |                                                 |
| \\      /  F ield         | OpenFOAM: The Open Source CFD Toolbox           |
|  \\    /   O peration     | Version:  dev                                   |
|   \\  /    A nd           | Web:      http://www.openfoam.org               |
|    \\/     M anipulation  |                                                 |
\*---------------------------------------------------------------------------*/
FoamFile
{
    version     2.0;
    format      ascii;
    class       volScalarField;
    object      muSgs;
    location    "9.128";
}
// * * * * * * * * * * * * * * * * * * * * * * * * * * * * * * * * * * * * * //

dimensions      [1 -1 -1 0 0 0 0];

internalField   nonuniform List<scalar> 
12225
(
0.000209042
0.000251514
0.000213321
0.000242657
0.000209464
0.000263311
0.000231184
0.000285456
0.000249796
0.000306958
0.000266046
0.000323023
0.000286536
0.000328302
0.0003103
0.000332771
0.000349845
0.000382286
9.47965e-05
0.000184094
0.000165576
0.000188272
0.000163116
0.000193202
0.000170414
0.000204304
0.000181749
0.000215083
0.00019767
0.00021848
0.000219209
0.000220779
0.00024404
0.000263768
0.000276395
0.000398969
2.9001e-05
0.0001027
0.000105671
0.000131244
0.00012527
0.000132931
0.000128524
0.000130488
0.00012929
0.000124785
0.000131744
0.000116737
0.000133184
0.00010761
0.00013679
0.000112357
0.000157814
0.000244229
7.83803e-06
4.84893e-05
5.81613e-05
6.6803e-05
8.4078e-05
8.29786e-05
9.27047e-05
8.71412e-05
9.46478e-05
8.50207e-05
9.11235e-05
7.84092e-05
8.4556e-05
6.96426e-05
7.83302e-05
6.76305e-05
0.000108637
0.000119313
4.06394e-06
2.54096e-05
3.19089e-05
3.83704e-05
5.08049e-05
5.30021e-05
6.24432e-05
6.10446e-05
6.54883e-05
5.99599e-05
6.3459e-05
5.62331e-05
5.93972e-05
5.09327e-05
5.71905e-05
5.43389e-05
7.22238e-05
7.33682e-05
6.80208e-06
2.39998e-05
2.60113e-05
3.01601e-05
3.52618e-05
3.60698e-05
4.12742e-05
4.04086e-05
4.45799e-05
4.07757e-05
4.42892e-05
4.04754e-05
4.45117e-05
3.87346e-05
4.46544e-05
3.56735e-05
4.63738e-05
5.2089e-05
3.13347e-06
7.18778e-06
1.22631e-05
1.32531e-05
1.87215e-05
1.87732e-05
2.39007e-05
2.31443e-05
2.78625e-05
2.59715e-05
2.94241e-05
2.75434e-05
3.10398e-05
2.84861e-05
3.22252e-05
3.51559e-05
4.34417e-05
4.37755e-05
1.1425e-06
2.58353e-06
5.46928e-06
6.15889e-06
9.19451e-06
9.69464e-06
1.29375e-05
1.32444e-05
1.64563e-05
1.64798e-05
1.86924e-05
1.89268e-05
2.10577e-05
2.15164e-05
2.32601e-05
2.41003e-05
2.73817e-05
3.24642e-05
1.42879e-06
2.83022e-06
4.44951e-06
5.2933e-06
7.2902e-06
8.40454e-06
1.10435e-05
1.22447e-05
1.49602e-05
1.60663e-05
1.83145e-05
1.93826e-05
2.143e-05
2.27229e-05
2.39588e-05
2.50804e-05
2.66201e-05
2.98582e-05
1.45082e-06
3.26359e-06
4.38454e-06
6.06472e-06
7.65871e-06
1.03552e-05
1.20452e-05
1.49305e-05
1.64058e-05
1.89553e-05
2.02164e-05
2.22692e-05
2.37053e-05
2.5692e-05
2.66271e-05
2.91529e-05
2.91575e-05
3.05868e-05
2.15551e-06
3.8187e-06
5.10219e-06
7.70128e-06
9.53429e-06
1.34185e-05
1.52967e-05
1.96935e-05
2.11263e-05
2.48473e-05
2.58694e-05
2.87842e-05
2.96073e-05
3.19199e-05
3.26611e-05
3.41839e-05
3.53493e-05
3.4901e-05
2.21234e-06
4.32924e-06
6.77054e-06
1.04693e-05
1.3258e-05
1.87057e-05
2.17489e-05
2.79292e-05
3.07946e-05
3.54045e-05
3.78002e-05
4.02369e-05
4.17041e-05
4.29781e-05
4.4102e-05
4.45819e-05
4.51658e-05
4.51974e-05
2.95138e-06
5.59765e-06
8.9528e-06
1.48136e-05
1.93961e-05
2.78395e-05
3.25229e-05
4.13981e-05
4.59899e-05
5.04619e-05
5.28888e-05
5.45274e-05
5.57473e-05
5.64678e-05
5.66052e-05
5.64122e-05
5.62071e-05
5.57876e-05
4.45827e-06
8.01836e-06
1.30905e-05
2.16791e-05
2.94983e-05
4.22203e-05
5.20275e-05
5.99039e-05
6.54328e-05
6.9416e-05
7.17346e-05
7.27925e-05
7.29547e-05
7.25583e-05
7.19913e-05
7.141e-05
7.05202e-05
6.93791e-05
6.14749e-06
1.27809e-05
2.13767e-05
3.324e-05
4.90596e-05
6.40381e-05
7.53768e-05
8.36841e-05
8.92432e-05
9.24655e-05
9.37031e-05
9.36611e-05
9.2854e-05
9.16327e-05
9.01572e-05
8.85675e-05
8.67073e-05
8.42802e-05
1.03389e-05
2.1434e-05
3.40495e-05
5.17864e-05
6.90336e-05
8.33465e-05
9.41095e-05
0.000101626
0.000106288
0.00010855
0.000108876
0.000108025
0.000106559
0.000104817
0.000102952
0.000100891
9.81291e-05
9.50627e-05
1.57594e-05
2.68282e-05
4.12313e-05
6.12713e-05
7.96945e-05
9.46367e-05
0.000105789
0.000113478
0.000118088
0.000120147
0.000120177
0.000118963
0.000117163
0.000115163
0.00011304
0.000110626
0.000107355
0.000103911
1.55734e-05
2.71093e-05
4.19336e-05
6.20379e-05
8.02936e-05
9.5097e-05
0.000106114
0.000113685
0.000118233
0.000120255
0.000120271
0.000119011
0.000117201
0.000115176
0.000113038
0.000110598
0.00010725
0.000103817
1.10555e-05
2.18222e-05
3.4923e-05
5.30238e-05
6.98933e-05
8.36686e-05
9.416e-05
0.000101591
0.0001063
0.000108639
0.000109012
0.00010804
0.000106466
0.00010465
0.000102713
0.000100511
9.75694e-05
9.45433e-05
1.01477e-05
1.73827e-05
2.59817e-05
3.77758e-05
5.18128e-05
6.43671e-05
7.4621e-05
8.23432e-05
8.775e-05
9.09609e-05
9.22603e-05
9.20316e-05
9.09388e-05
8.9486e-05
8.79074e-05
8.61946e-05
8.4059e-05
8.18137e-05
7.29986e-06
1.26478e-05
1.91246e-05
2.81012e-05
3.8449e-05
4.7664e-05
5.5302e-05
6.1128e-05
6.52612e-05
6.80405e-05
6.95402e-05
6.99699e-05
6.95381e-05
6.86445e-05
6.75512e-05
6.6391e-05
6.51485e-05
6.39132e-05
4.13942e-06
8.35562e-06
1.30642e-05
1.96623e-05
2.62251e-05
3.27676e-05
3.8723e-05
4.33484e-05
4.67633e-05
4.94881e-05
5.14067e-05
5.25815e-05
5.29741e-05
5.27183e-05
5.21072e-05
5.13289e-05
5.04551e-05
4.9522e-05
3.09642e-06
5.74057e-06
8.79618e-06
1.27158e-05
1.831e-05
2.3424e-05
2.77507e-05
3.06124e-05
3.236e-05
3.40841e-05
3.56291e-05
3.70342e-05
3.80448e-05
3.88702e-05
3.92877e-05
3.96891e-05
3.97137e-05
3.97962e-05
1.86003e-06
3.55087e-06
5.81634e-06
9.68923e-06
1.24571e-05
1.59659e-05
1.87386e-05
2.15817e-05
2.39274e-05
2.64223e-05
2.86284e-05
3.07722e-05
3.2306e-05
3.37493e-05
3.45619e-05
3.54494e-05
3.58155e-05
3.62019e-05
1.37655e-06
3.1721e-06
5.19751e-06
7.76999e-06
1.00099e-05
1.3738e-05
1.67427e-05
2.03469e-05
2.31218e-05
2.62146e-05
2.8726e-05
3.12418e-05
3.27969e-05
3.44753e-05
3.52899e-05
3.64778e-05
3.70687e-05
3.76286e-05
1.23327e-06
4.19526e-06
8.30075e-06
1.36529e-05
1.88926e-05
2.54217e-05
3.01298e-05
3.47505e-05
3.79101e-05
4.06982e-05
4.30008e-05
4.48933e-05
4.60373e-05
4.73858e-05
4.79558e-05
4.911e-05
4.94442e-05
5.00788e-05
2.76837e-06
1.34997e-05
2.67974e-05
4.19203e-05
5.19363e-05
5.98766e-05
6.50296e-05
6.86598e-05
7.0888e-05
7.2453e-05
7.35114e-05
7.40392e-05
7.4604e-05
7.50524e-05
7.53272e-05
7.5482e-05
7.49957e-05
7.54235e-05
1.31559e-05
4.92561e-05
8.35311e-05
0.000102393
0.000111383
0.000116178
0.00011769
0.000117866
0.000117591
0.00011651
0.000115312
0.000114118
0.000112798
0.000111131
0.000109317
0.000107292
0.000104932
0.000102519
6.81805e-05
0.000158293
0.000183754
0.000188875
0.00018569
0.000181705
0.000176474
0.000171625
0.000167432
0.000163618
0.000160402
0.000157006
0.000153703
0.00015018
0.000146461
0.000142161
0.000138358
0.000133978
0.000222212
0.000285682
0.000281794
0.00026718
0.000257123
0.00025421
0.00025573
0.000259714
0.000262961
0.000265429
0.000266208
0.00026577
0.000263971
0.000260992
0.000256898
0.000252007
0.000246509
0.000239562
2.58754e-05
3.11405e-05
3.39933e-05
3.5666e-05
3.78744e-05
4.11736e-05
4.52512e-05
5.0053e-05
5.5415e-05
6.14533e-05
6.78651e-05
7.42819e-05
8.10542e-05
8.83684e-05
9.5748e-05
0.000103306
0.000111247
0.000119172
0.000126918
0.00013435
0.000141681
0.000149282
0.000157272
0.000165914
0.000175044
0.000184621
0.000194348
0.00020394
0.000212756
0.000220336
0.00022463
0.000226506
0.000227218
0.000226386
0.000223851
0.000221727
0.000219889
0.000219334
0.00021961
0.000220641
0.00022277
0.000225674
0.000228727
0.000232545
0.000236862
0.000240477
0.000243064
0.000246314
0.000250483
0.000253194
0.000256014
0.000260921
0.000266467
0.000271972
0.000279219
0.000285402
0.000288433
0.000290649
0.000291786
0.000291826
0.000291048
0.000291386
0.000294286
0.000297255
0.000298792
0.000298591
0.000296545
0.000291388
0.000283232
0.000275616
0.000271902
0.000270896
0.00027497
0.000277166
0.000277368
0.000274564
0.000263243
0.000253599
0.000249801
0.000247002
0.000243351
0.000240793
0.000245492
0.000256434
0.00027008
0.000283225
0.000293068
0.00029835
0.00030086
0.000298764
0.000295097
0.000292595
0.000289384
0.000282258
0.000271859
0.000258712
0.000240863
0.000221126
0.000197767
0.00017923
0.000170839
0.000166831
0.000160824
0.000129538
0.000128567
0.000116465
0.000112523
0.00011198
0.000114205
0.000119723
0.00012734
0.000138412
0.000148457
0.000161827
0.000173978
0.000187269
0.000198784
0.000211548
0.000222428
0.000230846
0.000239154
0.000249304
0.000256209
0.000262733
0.00027105
0.000280641
0.000290474
0.000303709
0.000318229
0.000333282
0.000344419
0.000355225
0.000367025
0.000378552
0.000391195
0.000402328
0.000414502
0.000422873
0.000426556
0.000429473
0.000432184
0.000436884
0.000443154
0.000447324
0.000450319
0.000449287
0.000439525
0.000430967
0.000422296
0.000411743
0.000400902
0.0003914
0.000368497
0.000355351
0.000322109
0.000302599
0.000280088
0.000253686
0.000235432
0.000229023
0.000229073
0.000238119
0.000260239
0.000280654
0.000311433
0.00033891
0.000372703
0.000401191
0.000420442
0.000435616
0.000438709
0.000442543
0.000442558
0.000444224
0.00045269
0.00046385
0.000477037
0.000486485
0.000486142
0.000487417
4.30989e-05
3.45696e-05
3.31413e-05
3.33476e-05
3.4247e-05
3.63435e-05
3.90522e-05
4.21505e-05
4.54991e-05
4.89053e-05
5.23172e-05
5.64786e-05
6.12016e-05
6.55837e-05
7.02178e-05
7.47941e-05
7.81069e-05
8.1128e-05
8.32039e-05
8.49373e-05
8.68924e-05
8.96707e-05
9.35031e-05
9.80311e-05
0.000103145
0.000106676
0.000108496
0.000109261
0.000106957
0.000100937
9.26353e-05
8.47276e-05
7.85598e-05
7.23808e-05
6.86738e-05
6.69347e-05
6.58721e-05
6.55162e-05
6.61627e-05
6.7178e-05
6.94483e-05
7.24636e-05
7.47265e-05
7.92088e-05
8.47505e-05
8.56729e-05
8.48764e-05
8.70631e-05
9.19378e-05
9.17901e-05
9.28906e-05
0.000100777
0.000111137
0.000118795
0.000129052
0.00014876
0.000171114
0.000188001
0.00019895
0.000206321
0.000204776
0.000198604
0.000191159
0.000182828
0.000174041
0.000164907
0.000158538
0.000145344
0.000122946
0.00011215
0.000110879
0.000117214
0.000132953
0.000155659
0.000183131
0.000190687
0.00017914
0.000166164
0.000173137
0.000200189
0.000219712
0.000225646
0.000228103
0.000228169
0.000225937
0.000220308
0.000210441
0.000199402
0.000190588
0.000182065
0.000175687
0.000168395
0.000159552
0.000148762
0.000137006
0.000127436
0.000116281
0.00010508
0.00010028
0.000100296
0.00010277
0.000101754
9.18118e-05
8.53662e-05
9.87955e-05
8.91577e-05
9.08148e-05
9.13083e-05
9.25579e-05
9.55963e-05
9.83458e-05
0.000102328
0.000106223
0.000111993
0.000117849
0.000125008
0.000132343
0.000140474
0.000148263
0.000156168
0.000163661
0.000170228
0.000175447
0.000181316
0.000187796
0.000193597
0.00019981
0.000209036
0.000220591
0.000233276
0.000241076
0.00024438
0.000246788
0.0002508
0.000260001
0.000269329
0.0002795
0.000294197
0.00031095
0.000331896
0.000350729
0.000363397
0.000369532
0.000365692
0.000353005
0.000340542
0.000326142
0.000316146
0.000307403
0.000298499
0.000287479
0.000277766
0.00026079
0.000251792
0.000234263
0.000225248
0.000213272
0.000206485
0.00020863
0.000206138
0.000207302
0.000211148
0.000222151
0.000232369
0.00024703
0.000259607
0.000281317
0.000301702
0.000323706
0.000345259
0.000350673
0.000349471
0.000344389
0.000343344
0.000344081
0.000348367
0.00035089
0.000345049
0.000345909
0.000342601
6.43425e-05
3.74739e-05
3.10618e-05
3.0126e-05
3.04157e-05
3.21965e-05
3.43803e-05
3.62854e-05
3.80653e-05
4.0368e-05
4.36365e-05
4.71875e-05
5.05466e-05
5.44944e-05
5.63413e-05
5.69135e-05
5.65574e-05
5.44666e-05
5.26913e-05
5.20717e-05
5.22044e-05
5.30859e-05
5.44442e-05
5.65165e-05
5.78792e-05
5.83051e-05
5.78099e-05
5.58978e-05
5.36629e-05
5.19467e-05
5.0993e-05
5.18185e-05
5.21053e-05
5.18944e-05
5.15549e-05
5.0731e-05
4.92951e-05
4.76511e-05
4.64515e-05
4.58134e-05
4.49409e-05
4.36379e-05
4.33583e-05
4.35992e-05
4.42753e-05
4.44612e-05
4.45685e-05
4.58945e-05
4.71575e-05
4.67303e-05
4.65644e-05
4.8544e-05
5.23628e-05
5.43952e-05
5.70137e-05
6.30485e-05
7.43242e-05
8.58311e-05
9.85352e-05
0.000117733
0.000133937
0.000143941
0.000145865
0.000142959
0.000132293
0.000110254
9.237e-05
8.22864e-05
7.3917e-05
7.17217e-05
7.30934e-05
7.52277e-05
7.96186e-05
8.88761e-05
0.000106253
0.000126909
0.000150189
0.000169004
0.000178405
0.000185974
0.000185078
0.000176032
0.000170223
0.000160938
0.000149378
0.000134315
0.000118916
0.000107243
0.000101837
9.766e-05
9.45397e-05
9.0872e-05
8.65226e-05
8.1021e-05
7.60337e-05
7.30271e-05
7.0172e-05
6.93377e-05
6.9795e-05
7.3179e-05
7.5652e-05
7.6575e-05
7.59777e-05
7.42922e-05
8.00157e-05
8.34024e-05
7.88425e-05
7.81453e-05
7.78622e-05
8.07799e-05
8.21481e-05
8.28516e-05
8.34357e-05
8.42337e-05
8.5989e-05
8.8925e-05
9.25933e-05
9.79818e-05
0.000104104
0.000109678
0.000117927
0.0001282
0.000136497
0.00014553
0.00015033
0.000156002
0.000159174
0.000162491
0.000170594
0.000181058
0.000189508
0.000193603
0.000192833
0.000191632
0.000194817
0.000209698
0.000223236
0.000240069
0.000262263
0.000284647
0.00029665
0.000298998
0.000291143
0.000278202
0.000266174
0.000256902
0.000249637
0.000244802
0.000241372
0.00023604
0.000231083
0.000220846
0.000211183
0.000202094
0.000197476
0.000198896
0.000186318
0.000177947
0.000183575
0.000184171
0.00018027
0.000178871
0.000183321
0.000188698
0.00019236
0.000195088
0.000202691
0.000216254
0.00022846
0.000244138
0.000273463
0.00029262
0.00029662
0.000291873
0.000286602
0.000284247
0.000270055
0.000258007
0.000252916
0.00024539
9.17052e-05
4.46333e-05
3.10282e-05
2.93432e-05
2.93468e-05
3.06312e-05
3.26725e-05
3.4838e-05
3.74854e-05
4.03947e-05
4.35242e-05
4.57513e-05
4.84349e-05
4.96081e-05
4.88179e-05
4.71486e-05
4.60553e-05
4.4274e-05
4.33184e-05
4.28482e-05
4.26548e-05
4.25521e-05
4.24754e-05
4.23388e-05
4.23547e-05
4.23459e-05
4.21485e-05
4.21729e-05
4.336e-05
4.63133e-05
4.93187e-05
5.02132e-05
5.03987e-05
5.00406e-05
4.87857e-05
4.71312e-05
4.57908e-05
4.46239e-05
4.35746e-05
4.29711e-05
4.19326e-05
4.07807e-05
4.04993e-05
4.04429e-05
4.08358e-05
4.13412e-05
4.17379e-05
4.25152e-05
4.28558e-05
4.25936e-05
4.25843e-05
4.38835e-05
4.45753e-05
4.44455e-05
4.45903e-05
4.50651e-05
4.71221e-05
5.06272e-05
5.60635e-05
6.68537e-05
8.00881e-05
9.47878e-05
0.000111681
0.00011651
0.000114601
0.000104676
8.95758e-05
7.7536e-05
7.20452e-05
7.30066e-05
7.75594e-05
8.37889e-05
9.03207e-05
9.82465e-05
0.000115596
0.000138378
0.000155705
0.000164902
0.000165822
0.000151017
0.000144366
0.000134862
0.000124817
0.000113649
0.000101066
8.73877e-05
7.75364e-05
7.28689e-05
7.09158e-05
6.98518e-05
6.91924e-05
6.85956e-05
6.7595e-05
6.63013e-05
6.51113e-05
6.38009e-05
6.3358e-05
6.38497e-05
6.55242e-05
7.01881e-05
7.55688e-05
7.74336e-05
7.87931e-05
7.40306e-05
7.57395e-05
7.8375e-05
8.1682e-05
8.12267e-05
7.7889e-05
8.08647e-05
8.27063e-05
8.26716e-05
8.18814e-05
8.09879e-05
8.09815e-05
8.04395e-05
8.11966e-05
8.32509e-05
8.69894e-05
9.20788e-05
9.41966e-05
9.91878e-05
0.000107222
0.000119
0.000131522
0.000135309
0.000139099
0.000146365
0.000148842
0.000154845
0.00016474
0.000170219
0.000166027
0.000165185
0.000168154
0.000182298
0.000198504
0.000221962
0.000243518
0.000256642
0.000260282
0.000253236
0.000243446
0.000233612
0.000224136
0.000220098
0.000219063
0.000217456
0.000216275
0.000213583
0.000208041
0.000199789
0.000193358
0.000186446
0.000176967
0.000181527
0.000176736
0.000168259
0.000166145
0.00016832
0.000166612
0.000161508
0.000164524
0.000168553
0.000165811
0.000162887
0.000167479
0.00017672
0.000188283
0.000192254
0.000210091
0.000237604
0.000271694
0.000275214
0.000271115
0.000265859
0.000242557
0.000227875
0.000220134
0.000210852
0.000116563
5.44893e-05
3.19903e-05
2.93509e-05
2.98223e-05
3.14022e-05
3.33721e-05
3.60591e-05
3.9355e-05
4.08702e-05
4.18156e-05
4.40233e-05
4.51572e-05
4.49854e-05
4.46507e-05
4.42212e-05
4.36542e-05
4.33639e-05
4.27861e-05
4.23754e-05
4.19743e-05
4.16247e-05
4.07634e-05
3.92512e-05
3.89253e-05
3.88688e-05
3.92898e-05
4.0426e-05
4.31531e-05
4.70754e-05
4.85998e-05
4.87591e-05
4.78316e-05
4.56163e-05
4.43061e-05
4.40383e-05
4.38548e-05
4.36145e-05
4.28844e-05
4.15811e-05
4.01301e-05
3.95168e-05
3.9424e-05
3.94058e-05
3.98696e-05
4.04093e-05
4.06444e-05
4.0832e-05
4.11239e-05
4.17554e-05
4.21782e-05
4.21741e-05
4.1844e-05
4.19103e-05
4.2413e-05
4.24933e-05
4.29383e-05
4.42701e-05
4.58901e-05
4.92248e-05
5.43179e-05
6.34476e-05
7.80083e-05
9.10104e-05
9.65138e-05
9.5421e-05
8.98814e-05
7.93109e-05
7.67693e-05
8.00992e-05
8.84554e-05
9.92384e-05
0.000105636
0.000114314
0.000125838
0.000138147
0.000145347
0.000139998
0.000131626
0.000120474
0.000111189
0.000102078
9.19407e-05
8.23321e-05
7.30862e-05
6.51633e-05
6.17997e-05
6.0574e-05
6.00502e-05
5.98494e-05
6.08364e-05
6.11133e-05
6.10137e-05
6.06885e-05
5.98497e-05
5.90719e-05
5.92952e-05
6.00947e-05
6.27984e-05
6.89923e-05
7.64629e-05
7.88325e-05
7.70798e-05
7.05372e-05
7.59446e-05
6.74537e-05
8.17687e-05
8.21635e-05
7.78818e-05
7.81977e-05
7.96481e-05
8.17505e-05
8.27294e-05
8.17638e-05
8.12924e-05
8.16984e-05
8.19053e-05
8.30067e-05
8.21666e-05
8.36221e-05
8.79871e-05
8.84359e-05
9.35807e-05
0.000104553
0.000111483
0.000121782
0.000128098
0.000131229
0.000139609
0.000148605
0.000152999
0.000155214
0.000153522
0.000153545
0.00015678
0.000169418
0.000188552
0.000210404
0.000228419
0.000234672
0.000234132
0.000224824
0.00021388
0.000208472
0.000203003
0.000199998
0.000201834
0.000202692
0.000202107
0.000199992
0.00019671
0.000190104
0.000179967
0.000183203
0.000173351
0.000170466
0.00016616
0.000163756
0.0001612
0.000154552
0.000154121
0.00015108
0.000150905
0.000163177
0.000159042
0.000147665
0.000147641
0.000152601
0.000165206
0.000170647
0.000180077
0.000188507
0.00022946
0.000257046
0.000257817
0.000261087
0.000235137
0.000219763
0.000207814
0.000202726
0.000142558
6.28561e-05
3.35253e-05
2.94744e-05
2.99859e-05
3.18971e-05
3.4189e-05
3.68819e-05
3.91812e-05
4.01405e-05
4.21316e-05
4.38297e-05
4.41691e-05
4.40439e-05
4.41565e-05
4.40774e-05
4.4192e-05
4.414e-05
4.3891e-05
4.34481e-05
4.28572e-05
4.2085e-05
4.10642e-05
3.92286e-05
3.83224e-05
3.8575e-05
3.9045e-05
4.04699e-05
4.36374e-05
4.69331e-05
4.77661e-05
4.76326e-05
4.67486e-05
4.47895e-05
4.39691e-05
4.37716e-05
4.39512e-05
4.42324e-05
4.39517e-05
4.28601e-05
4.11207e-05
3.97405e-05
3.92994e-05
3.90331e-05
3.89395e-05
3.89787e-05
3.89595e-05
3.89918e-05
3.92226e-05
3.99e-05
4.07895e-05
4.10875e-05
4.15223e-05
4.18254e-05
4.22119e-05
4.21521e-05
4.25097e-05
4.36049e-05
4.50322e-05
4.61875e-05
4.73779e-05
5.06107e-05
5.70442e-05
6.80684e-05
8.08898e-05
8.33121e-05
8.25486e-05
7.97214e-05
7.9691e-05
8.38127e-05
9.60395e-05
0.000107683
0.000110894
0.000116253
0.000123005
0.000125443
0.000121259
0.000114965
0.000105837
9.66664e-05
8.60048e-05
7.79819e-05
7.11473e-05
6.48132e-05
6.02876e-05
5.80767e-05
5.71947e-05
5.65204e-05
5.58689e-05
5.58074e-05
5.66226e-05
5.68347e-05
5.67667e-05
5.68055e-05
5.64849e-05
5.65846e-05
5.72476e-05
5.86039e-05
6.20668e-05
6.87491e-05
7.51906e-05
7.63012e-05
7.1221e-05
6.96388e-05
7.99152e-05
6.76425e-05
7.96981e-05
8.04595e-05
7.87149e-05
7.51101e-05
7.437e-05
7.67164e-05
7.89927e-05
8.04797e-05
8.10621e-05
8.20181e-05
8.25968e-05
8.35695e-05
8.60531e-05
8.4907e-05
8.36296e-05
8.49262e-05
8.51019e-05
9.41693e-05
0.000101791
0.000107945
0.000117463
0.000121979
0.000124164
0.000138023
0.000148992
0.000150218
0.00014651
0.000147197
0.000153356
0.000160036
0.000184175
0.000202432
0.000212948
0.000216184
0.000212153
0.000206442
0.000197169
0.000193127
0.000191071
0.000189382
0.000191943
0.000193905
0.000193857
0.000192853
0.000186185
0.000184744
0.00017095
0.000176308
0.000164245
0.000161602
0.000155251
0.000152714
0.000156439
0.000151865
0.000137603
0.000138278
0.000130446
0.000149213
0.000156293
0.000150804
0.000143248
0.000146102
0.000149328
0.000154835
0.00016658
0.000165939
0.000185202
0.00021847
0.000242386
0.000252864
0.000237842
0.000219903
0.000199353
0.000201159
0.000169247
7.63093e-05
3.6892e-05
3.01492e-05
3.06151e-05
3.37738e-05
3.71087e-05
3.81864e-05
3.91048e-05
4.02933e-05
4.2701e-05
4.38636e-05
4.33721e-05
4.33902e-05
4.44192e-05
4.49249e-05
4.51634e-05
4.5033e-05
4.47594e-05
4.44816e-05
4.47184e-05
4.48574e-05
4.3891e-05
4.23693e-05
4.10976e-05
4.10603e-05
4.13034e-05
4.26775e-05
4.54023e-05
4.75406e-05
4.79939e-05
4.78648e-05
4.70438e-05
4.56327e-05
4.47324e-05
4.46279e-05
4.49733e-05
4.60609e-05
4.65484e-05
4.6294e-05
4.54676e-05
4.37461e-05
4.1167e-05
3.98468e-05
3.92504e-05
3.88747e-05
3.86834e-05
3.83272e-05
3.8212e-05
3.86152e-05
3.99159e-05
4.16528e-05
4.18372e-05
4.17796e-05
4.20185e-05
4.23887e-05
4.32047e-05
4.43187e-05
4.55995e-05
4.61148e-05
4.64863e-05
4.73168e-05
4.89261e-05
5.42872e-05
6.48396e-05
7.29629e-05
7.72224e-05
7.96187e-05
7.99941e-05
8.57968e-05
0.000100766
0.000107376
0.000109712
0.000111974
0.000110356
0.000109375
0.000104101
9.73797e-05
8.74429e-05
7.78061e-05
6.83576e-05
6.36973e-05
6.03713e-05
5.80144e-05
5.65067e-05
5.50635e-05
5.3698e-05
5.24221e-05
5.20115e-05
5.22457e-05
5.31651e-05
5.40631e-05
5.43559e-05
5.46126e-05
5.49459e-05
5.54571e-05
5.6263e-05
5.75445e-05
5.99973e-05
6.44369e-05
6.635e-05
6.49177e-05
6.30597e-05
6.55976e-05
7.83088e-05
6.62096e-05
7.10847e-05
7.0902e-05
7.49182e-05
7.32922e-05
6.94393e-05
6.9794e-05
7.22884e-05
7.57846e-05
7.72669e-05
7.83377e-05
7.93196e-05
8.1707e-05
8.54895e-05
8.88466e-05
8.87658e-05
8.72838e-05
8.49112e-05
8.53678e-05
9.47392e-05
0.000100318
0.00010823
0.000114839
0.000116501
0.000124656
0.000137929
0.000148568
0.000147181
0.000141718
0.000149548
0.000157281
0.000174284
0.0001973
0.000204862
0.000207855
0.000201679
0.000195702
0.000191628
0.000186366
0.000181516
0.00017499
0.00017214
0.000180367
0.000180053
0.000183136
0.000177347
0.00017989
0.000164425
0.000168426
0.000159189
0.000151553
0.000140699
0.000134833
0.0001354
0.000140278
0.000128246
0.000130693
0.000123272
0.000129898
0.000140317
0.000145757
0.000141318
0.000146788
0.000146564
0.000142474
0.000155607
0.000156105
0.000159736
0.000180055
0.000210208
0.000235733
0.000236035
0.000225505
0.000196189
0.000197108
0.000193727
9.63631e-05
4.47251e-05
3.15122e-05
3.08012e-05
3.42517e-05
3.93133e-05
4.01815e-05
3.95876e-05
4.13606e-05
4.31531e-05
4.30756e-05
4.28118e-05
4.36725e-05
4.47625e-05
4.52985e-05
4.54278e-05
4.4915e-05
4.47096e-05
4.47024e-05
4.54141e-05
4.6608e-05
4.82523e-05
4.92659e-05
4.92343e-05
4.99712e-05
5.08659e-05
5.11191e-05
5.19433e-05
5.22734e-05
5.15082e-05
5.02501e-05
4.84312e-05
4.68477e-05
4.56998e-05
4.54572e-05
4.60616e-05
4.71869e-05
4.83022e-05
4.84983e-05
4.81806e-05
4.73408e-05
4.55917e-05
4.29715e-05
4.09597e-05
3.98323e-05
3.92306e-05
3.88881e-05
3.84273e-05
3.84509e-05
3.92263e-05
4.16373e-05
4.32636e-05
4.34202e-05
4.29856e-05
4.27122e-05
4.30466e-05
4.43744e-05
4.6368e-05
4.7258e-05
4.70962e-05
4.70923e-05
4.71865e-05
4.91579e-05
5.44875e-05
6.37622e-05
7.28666e-05
7.64743e-05
7.82296e-05
8.72924e-05
0.000100207
0.000103354
0.000102592
0.000100118
9.822e-05
9.67951e-05
9.09164e-05
8.25958e-05
7.28278e-05
6.41764e-05
5.90984e-05
5.72464e-05
5.63362e-05
5.47583e-05
5.29327e-05
5.11675e-05
4.99286e-05
4.97843e-05
5.01657e-05
5.10611e-05
5.19801e-05
5.21155e-05
5.23988e-05
5.31614e-05
5.39754e-05
5.48249e-05
5.57587e-05
5.67718e-05
5.78566e-05
5.87909e-05
5.81919e-05
5.77936e-05
5.87905e-05
6.09195e-05
6.83767e-05
6.03591e-05
6.34701e-05
6.19134e-05
6.48799e-05
6.38172e-05
6.35937e-05
6.34491e-05
6.52474e-05
6.87525e-05
6.99787e-05
7.24008e-05
7.42219e-05
7.66963e-05
7.91014e-05
8.27406e-05
8.72098e-05
8.99141e-05
8.94684e-05
8.69192e-05
8.70948e-05
9.40698e-05
0.000100384
0.000107472
0.000111111
0.000115007
0.000126349
0.000138375
0.000145706
0.000143108
0.000140673
0.000153787
0.000166551
0.000187591
0.000195319
0.00019816
0.000195706
0.000189904
0.00018631
0.000178217
0.00016942
0.000164944
0.000156367
0.000162423
0.000162453
0.000166111
0.000161143
0.000169441
0.000158394
0.000159263
0.000153923
0.000144229
0.000132671
0.0001263
0.000115503
0.000116587
0.000112202
0.00011894
0.000122195
0.000123668
0.000127246
0.000137257
0.000138331
0.000146363
0.000148162
0.000139391
0.00014485
0.000149452
0.000149776
0.000158385
0.000177216
0.000207234
0.000223868
0.000226561
0.000199877
0.000192028
0.000214933
0.000111188
5.30716e-05
3.43827e-05
3.17025e-05
3.46442e-05
3.94086e-05
4.03976e-05
3.98146e-05
4.17709e-05
4.43855e-05
4.41742e-05
4.31548e-05
4.33994e-05
4.4161e-05
4.45863e-05
4.43475e-05
4.40354e-05
4.44484e-05
4.47764e-05
4.57077e-05
4.70186e-05
4.83634e-05
4.95614e-05
5.06375e-05
5.14257e-05
5.29142e-05
5.36443e-05
5.38025e-05
5.38913e-05
5.33083e-05
5.15691e-05
4.94777e-05
4.76727e-05
4.61628e-05
4.54767e-05
4.58389e-05
4.67739e-05
4.77112e-05
4.85377e-05
4.86439e-05
4.80485e-05
4.69572e-05
4.50654e-05
4.24747e-05
4.07474e-05
3.99306e-05
3.95594e-05
3.93478e-05
3.91727e-05
3.93184e-05
4.05546e-05
4.2579e-05
4.34135e-05
4.30966e-05
4.2904e-05
4.33633e-05
4.4586e-05
4.6539e-05
4.89156e-05
4.91049e-05
4.87508e-05
4.83274e-05
4.89425e-05
5.05816e-05
5.50715e-05
6.3622e-05
6.83242e-05
7.35343e-05
8.73759e-05
9.68942e-05
9.78925e-05
9.48913e-05
9.10693e-05
8.90224e-05
8.62678e-05
7.98459e-05
7.08965e-05
6.29702e-05
5.77869e-05
5.56851e-05
5.48367e-05
5.30528e-05
5.08536e-05
4.92491e-05
4.84675e-05
4.87068e-05
4.93025e-05
4.97664e-05
4.9546e-05
4.82572e-05
4.7655e-05
4.78477e-05
4.93903e-05
5.18974e-05
5.35574e-05
5.48444e-05
5.60074e-05
5.64906e-05
5.5005e-05
5.4614e-05
5.51817e-05
5.60591e-05
5.76576e-05
5.83099e-05
5.59926e-05
5.84168e-05
5.8598e-05
5.87552e-05
5.74989e-05
5.78202e-05
5.88715e-05
6.06577e-05
6.21514e-05
6.52925e-05
6.81292e-05
6.96457e-05
7.20639e-05
7.43221e-05
7.79392e-05
8.21795e-05
8.61483e-05
8.9614e-05
9.02685e-05
8.85272e-05
8.94153e-05
9.47698e-05
0.000101155
0.000105919
0.000110565
0.000115641
0.000128256
0.000137138
0.00014132
0.00013906
0.000144213
0.000161672
0.000177275
0.000183876
0.000185658
0.000184802
0.000182055
0.000180226
0.000172057
0.000160707
0.000159204
0.000150827
0.000149301
0.000148826
0.000149655
0.000141451
0.000151384
0.000145524
0.000142736
0.000141207
0.000132925
0.000122693
0.000119917
0.000108083
0.000105657
0.000110018
0.000113176
0.000117311
0.00012002
0.000120694
0.000134638
0.000139549
0.000146543
0.000150707
0.000139517
0.00013848
0.000144421
0.000145828
0.000149294
0.000157267
0.000185897
0.000205775
0.000220506
0.00020279
0.000187944
0.000234
0.000126466
6.39405e-05
4.00031e-05
3.47703e-05
3.70292e-05
3.98691e-05
3.92964e-05
3.88074e-05
4.10422e-05
4.31528e-05
4.29442e-05
4.21528e-05
4.22198e-05
4.21918e-05
4.18087e-05
4.08629e-05
4.08658e-05
4.18705e-05
4.37487e-05
4.47084e-05
4.51651e-05
4.49042e-05
4.46696e-05
4.51037e-05
4.55443e-05
4.63514e-05
4.68144e-05
4.69652e-05
4.7127e-05
4.69455e-05
4.64031e-05
4.57647e-05
4.4995e-05
4.41365e-05
4.39944e-05
4.4573e-05
4.56801e-05
4.60974e-05
4.57354e-05
4.57359e-05
4.53878e-05
4.4709e-05
4.40697e-05
4.28576e-05
4.08583e-05
3.9755e-05
3.94215e-05
3.92234e-05
3.9301e-05
3.90813e-05
3.84273e-05
3.89627e-05
4.08202e-05
4.23038e-05
4.22286e-05
4.24212e-05
4.31916e-05
4.51062e-05
4.86481e-05
5.25731e-05
5.25017e-05
5.0835e-05
4.95674e-05
4.96147e-05
5.04544e-05
5.52569e-05
6.09178e-05
7.09145e-05
8.65178e-05
9.30316e-05
9.27245e-05
8.78877e-05
8.42353e-05
8.21795e-05
7.80167e-05
7.01699e-05
6.27254e-05
5.74192e-05
5.49018e-05
5.36565e-05
5.18282e-05
4.92652e-05
4.81081e-05
4.78468e-05
4.81459e-05
4.86493e-05
4.87388e-05
4.8117e-05
4.69623e-05
4.57035e-05
4.54447e-05
4.56191e-05
4.60567e-05
4.76173e-05
5.12293e-05
5.37696e-05
5.48211e-05
5.50171e-05
5.33857e-05
5.36061e-05
5.38365e-05
5.43671e-05
5.38374e-05
5.49455e-05
5.61166e-05
5.67322e-05
5.76415e-05
5.69459e-05
5.7474e-05
5.82098e-05
5.94933e-05
6.06082e-05
6.10833e-05
6.44644e-05
6.71927e-05
6.73828e-05
6.74018e-05
6.89149e-05
7.24605e-05
7.61306e-05
8.18022e-05
8.60888e-05
8.91446e-05
8.92444e-05
8.83082e-05
8.93003e-05
9.58964e-05
9.98311e-05
0.000106404
0.000110645
0.000117466
0.000128179
0.000134215
0.000136908
0.000139321
0.000153096
0.000168247
0.000175851
0.000177413
0.000176541
0.000175071
0.000174975
0.000170163
0.000157082
0.000156395
0.000150094
0.000142845
0.000140379
0.000140322
0.000127838
0.000133607
0.000131814
0.000128573
0.000125382
0.00012131
0.000111863
0.000103645
9.9337e-05
9.80762e-05
0.000111021
0.000113573
0.000113869
0.000119203
0.000119947
0.000136857
0.000145834
0.000149769
0.000151987
0.000139921
0.000136878
0.000139452
0.000143843
0.000147772
0.000148991
0.000172047
0.000193211
0.000210151
0.000200192
0.000180462
0.000251082
0.000137793
7.16757e-05
4.33886e-05
3.66529e-05
3.85295e-05
4.01744e-05
3.85281e-05
3.84017e-05
4.12521e-05
4.29525e-05
4.18094e-05
4.01073e-05
3.94164e-05
3.87793e-05
3.82922e-05
3.75566e-05
3.70714e-05
3.72558e-05
3.83158e-05
3.97901e-05
4.0022e-05
3.91825e-05
3.81117e-05
3.81193e-05
3.81594e-05
3.79848e-05
3.79796e-05
3.82555e-05
3.87735e-05
3.91609e-05
3.96583e-05
4.01413e-05
4.02979e-05
4.01177e-05
3.97777e-05
3.99608e-05
4.16806e-05
4.45305e-05
4.52124e-05
4.43833e-05
4.35425e-05
4.29753e-05
4.22744e-05
4.16013e-05
4.01896e-05
3.94223e-05
3.92839e-05
3.88813e-05
3.86926e-05
3.87465e-05
3.74219e-05
3.64703e-05
3.64702e-05
3.73793e-05
3.84098e-05
3.91453e-05
4.07563e-05
4.35442e-05
4.71933e-05
5.28436e-05
5.692e-05
5.5956e-05
5.25022e-05
4.97928e-05
5.00359e-05
5.2228e-05
5.65928e-05
6.77319e-05
8.38836e-05
8.94335e-05
8.87633e-05
8.34477e-05
7.87359e-05
7.61246e-05
7.02929e-05
6.25462e-05
5.78416e-05
5.48734e-05
5.3307e-05
5.15742e-05
4.85852e-05
4.71985e-05
4.72527e-05
4.76469e-05
4.79535e-05
4.79715e-05
4.73176e-05
4.66486e-05
4.59788e-05
4.55743e-05
4.54912e-05
4.47459e-05
4.37839e-05
4.34984e-05
4.45017e-05
4.72236e-05
5.03417e-05
5.19281e-05
5.19346e-05
5.22849e-05
5.21861e-05
5.278e-05
5.23533e-05
5.26543e-05
5.38908e-05
5.56206e-05
5.55145e-05
5.57402e-05
5.64567e-05
5.7754e-05