/*--------------------------------*- C++ -*----------------------------------*\
| =========                 |                                                 |
| \\      /  F ield         | OpenFOAM: The Open Source CFD Toolbox           |
|  \\    /   O peration     | Version:  dev                                   |
|   \\  /    A nd           | Web:      http://www.openfoam.org               |
|    \\/     M anipulation  |                                                 |
\*---------------------------------------------------------------------------*/
FoamFile
{
    version     2.0;
    format      ascii;
    class       volScalarField;
    object      p;
    location    "9.128";
}
// * * * * * * * * * * * * * * * * * * * * * * * * * * * * * * * * * * * * * //

dimensions      [1 -1 -2 0 0 0 0];

internalField   nonuniform List<scalar> 
12225
(
91029.6
91104.1
91282.1
91551.8
91888.7
92293
92740.9
93239.3
93757.8
94324.7
94865.6
95500
96030.9
96690.4
97264.4
97909.9
98575.3
98957.3
91026.5
91102.4
91281
91550.7
91887.5
92291.5
92739.6
93237.3
93756.7
94319.3
94868.3
95485.2
96034
96672.5
97258.1
97898.6
98585.9
99111.1
91021.6
91099.7
91279.1
91548.2
91884.9
92288.5
92736.3
93233.2
93752.8
94311.6
94865.5
95466.8
96031.8
96655.5
97247.8
97874.3
98523.6
99076
91016
91095.3
91275.8
91544
91880.8
92283.4
92730.9
93226.2
93745.8
94300.2
94856.6
95446.5
96018.6
96628.3
97221.7
97838.4
98448.4
98972.6
91007.2
91089
91270.4
91537.6
91874.5
92275.4
92722.5
93215.3
93734.6
94282.8
94842.1
95421.8
95996
96592.1
97167.4
97770.2
98341.4
98839.3
90994.3
91080.4
91261.7
91528.3
91864.9
92264
92710
93200.4
93717.8
94265.3
94820.4
95395.3
95963.4
96549.4
97101.5
97653.3
98216.7
98700
90979.7
91068.3
91249.3
91515.5
91851.4
92248.3
92692.9
93179.3
93694.5
94234.3
94788.7
95352.1
95917.1
96477.3
97034
97564.2
98109.3
98588.4
90963.9
91054.3
91235.6
91501.3
91836.2
92231
92673.6
93156.3
93668.8
94203.5
94753.5
95309.1
95868.3
96419.8
96972
97500.3
98013.5
98478.7
90948.9
91039.4
91221.2
91486.2
91820
92212.4
92653.2
93131.9
93641.6
94171.1
94716.9
95264.6
95817.9
96360.5
96901.5
97416.3
97910.4
98361.9
90926.9
91019.9
91202.5
91466.5
91798.9
92188.3
92626.4
93100.5
93605.8
94129.4
94668.8
95208.3
95753
96284.5
96812
97309.1
97786.8
98229.7
90902.2
90995.4
91178.2
91440.8
91770.9
92156.8
92590.9
93059.8
93558.5
94075.3
94605
95136.8
95668.4
96190.2
96700.3
97185.1
97647.7
98078.2
90872.9
90964.7
91147.1
91407.5
91734.5
92115.8
92544.4
93006.4
93497.2
94004.8
94524.2
95045.4
95564
96072.9
96566.3
97039.6
97486.5
97906.6
90837.3
90926.8
91107.2
91364.6
91686.8
92062.4
92483.2
92937.3
93417.7
93914.9
94421.8
94930.5
95435.2
95929
96407.9
96866.6
97301.2
97710.3
90797.3
90880.4
91056.6
91309
91625.1
91993.1
92404.4
92848.5
93316.9
93801.4
94294.1
94788.5
95277.7
95756.6
96220.3
96665.2
97087.7
97486.7
90735.1
90820.6
90992.2
91238.3
91546.3
91904.9
92304.8
92736.1
93190.6
93660.2
94137.3
94615.4
95088.4
95551.3
96000.1
96431.3
96841.8
97230.9
90664.2
90746
90911.6
91149.5
91447.3
91794.1
92180.3
92596.8
93035.4
93488.1
93947.9
94408.7
94864.6
95311.2
95744.9
96162.6
96561.5
96940.9
90582.8
90654.9
90812
91039.7
91325.3
91658.1
92028.7
92428.4
92849
93283.3
93724.5
94166.8
94605
95035
95453.5
95857.6
96244.7
96614.1
90482.3
90549.3
90699.1
90916.8
91190
91508.5
91863.3
92245.9
92648.6
93064.6
93487.6
93912.1
94333.5
94747.8
95151.8
95542.9
95918.8
96278.9
90367.1
90443
90590.3
90800.7
91063.8
91370.4
91711.8
92079.8
92467.2
92867.7
93275.3
93685
94092.3
94493.4
94885.3
95265.7
95632.4
95984.4
90286.2
90355.7
90498.9
90703.4
90958.7
91256
91586.8
91943.3
92318.5
92706.4
93101.8
93499.8
93896.1
94287.1
94669.9
95041.9
95401.4
95747.2
90216.6
90284.7
90424.9
90624.8
90874
91163.9
91486.4
91833.6
92199.4
92577.8
92963.8
93352.7
93740.5
94123.6
94499.1
94864.8
95218.7
95559.5
90152.7
90226.7
90366.2
90562.9
90807.4
91091.7
91407.6
91747.9
92106.4
92477.5
92856.2
93238.1
93619.4
93996.4
94366.3
94727.1
95076.7
95413.7
90112.5
90184.1
90321.9
90515.6
90756.4
91036.3
91347.3
91682.4
92035.3
92400.9
92774.1
93150.8
93527
93899.4
94265.1
94622.2
94968.5
95302.6
90077.9
90152.6
90289.2
90480.4
90718.2
90994.7
91302.1
91633.4
91982.1
92343.5
92712.9
93085.6
93458
93827
94189.7
94544
94887.8
95219.8
90058.6
90131
90265.6
90454.7
90690.2
90964.2
91269
91597.4
91943.3
92301.7
92668.2
93038.1
93407.8
93774.3
94134.8
94487
94829
95159.4
90043.1
90115.8
90248.9
90436.2
90670.2
90942.5
91245.3
91571.8
91915.7
92272.1
92636.4
93004.4
93372.3
93737
94095.9
94446.7
94787.5
95116.9
90035
90105.8
90237.3
90423.2
90656.2
90927.5
91229.1
91554.3
91896.8
92251.9
92614.9
92981.6
93348.2
93711.7
94069.5
94419.3
94759.3
95088.2
90029.7
90099.1
90229.6
90415.2
90647.2
90917.8
91218.7
91543
91884.8
92239
92601.1
92967
93332.8
93695.6
94052.7
94402
94741.5
95069.9
90027.4
90095
90224.2
90409.3
90641.6
90912.1
91212.8
91536.7
91878.1
92231.8
92593.4
92958.7
93324.1
93686.5
94043.3
94392.2
94731.4
95059.4
90032
90094
90222.2
90407.1
90639.2
90909.7
91210.2
91534
91875.2
92228.7
92590.1
92955.2
93320.4
93682.6
94039.2
94388
94727.1
95055.2
102344
102342
102337
102331
102322
102310
102297
102280
102261
102239
102214
102186
102155
102120
102081
102038
101991
101940
101884
101823
101757
101685
101607
101524
101434
101337
101233
101121
101002
100875
100740
100596
100444
100282
100110
99928.9
99741.4
99540.5
99327.8
99103.9
98868.8
98622.5
98365
98095.7
97814.1
97519.9
97212.8
96892.1
96557.8
96210.4
95850.2
95477.4
95092.9
94697.6
94292.2
93877.7
93455.4
93025.5
92587.5
92141.4
91689
91232.6
90771.7
90305.7
89836.9
89370.6
88907.5
88445.7
87993.3
87553.6
87123.1
86695.7
86283.1
85889.1
85515
85159.4
84823.5
84510.1
84219.2
83946.8
83695.4
83465.9
83257.8
83069.6
82900.5
82750.3
82618.7
82505.3
82410.4
82333.9
82275.4
82234.5
82210.2
82202
82208.9
82230.1
82264.7
82311.9
82371.4
82443.4
82528.4
82623.4
82727.8
82842
82959.3
83086.8
83211.7
83341.6
83473.2
83607.5
83741.8
83874.5
84004.4
84131.4
84255.4
84376.5
84495.4
84612.7
84729.3
84846.8
84967.1
85092.1
85224.7
85367.8
85523.8
85695.3
85884.4
86091.7
86316.3
86554.8
86805.4
87060.1
87309.1
87541.7
87748.3
87916.9
88034.1
88087
88065
87956.3
87751.8
87444
87034.7
86525.6
85933.1
85266.4
84572
83834
83120.6
82420.7
81760.2
81149.1
80605.6
80130.8
79735.9
79418.3
79184.3
79031.5
78954.6
78952.3
79022.2
79159.1
79366.6
79642.5
79986.1
80386.9
80827
81299.1
81788.9
82286.4
82763.1
83197.3
83582.6
83898.9
84153.6
84346.6
84484
84584.2
84660.5
84744.7
102354
102352
102347
102341
102332
102321
102307
102291
102272
102251
102226
102198
102167
102133
102094
102052
102005
101954
101899
101838
101773
101701
101624
101541
101452
101356
101252
101141
101023
100897
100762
100620
100468
100308
100138
99957.1
99766.6
99572
99359.4
99136.2
98901.9
98656.3
98399.8
98132.2
97852
97559.4
97253.7
96934.3
96601
96254.8
95895.9
95523.6
95139.2
94744.7
94340.6
93926.6
93503.4
93072.9
92635.2
92190.7
91742
91288.5
90827.9
90362.8
89895.8
89428.5
88962.7
88501.8
88052.9
87615.8
87181.3
86752.9
86337.8
85941.9
85567
85211.4
84875.8
84563.5
84274.6
84002.4
83748.2
83515.1
83304.1
83114.3
82944.6
82794.4
82663.2
82550.3
82455.2
82378.4
82319.8
82278.7
82254.3
82245.9
82252.3
82272.9
82307
82353.9
82412.9
82484.7
82569.5
82664.3
82767.5
82881.3
82999
83126.5
83251.9
83379.8
83511.7
83645.1
83779.5
83912
84041.3
84167.5
84290.8
84411.4
84529.5
84646
84761.8
84878.2
84997.3
85121
85252
85393.6
85548.1
85718.4
85906.2
86112.4
86334.7
86573.8
86822.7
87075.5
87323
87553.8
87758.2
87925.3
88042.6
88095.7
88074.4
87967
87763.8
87458.5
87049.2
86538.7
85947.9
85273.9
84580.4
83856.8
83142.1
82442.3
81783.3
81173.4
80631.4
80158.1
79763.8
79445.9
79212
79060.1
78983.2
78979.7
79048.2
79184
79390.8
79665.1
80006.2
80408
80843.5
81313.7
81802.6
82303.9
82779.9
83210.7
83596.1
83910.8
84166.3
84359.9
84497.4
84599.8
84679.3
84765.2
102374
102371
102367
102361
102352
102341
102328
102312
102294
102273
102249
102222
102192
102158
102120
102079
102033
101983
101928
101869
101804
101734
101658
101577
101488
101393
101291
101181
101064
100939
100807
100666
100516
100357
100190
100011
99823.7
99629.2
99420
99199.2
98967
98723.5
98469
98203.6
97926.5
97637.6
97334.7
97017.6
96685.9
96341.5
95985.1
95615.1
95232
94838.8
94436.1
94024
93602.6
93173
92737.1
92293.5
91843.5
91390.8
90934.6
90474.1
90010.1
89544.3
89079.1
88618.5
88172.2
87734
87297.5
86865.1
86446.6
86047.9
85671.3
85317.5
84985
84673.6
84378.4
84103
83848.2
83614.5
83402
83210.4
83039.2
82888
82756
82642.7
82547.2
82469.9
82410.9
82368.8
82342.9
82333
82338.2
82357.4
82390.1
82436
82494.8
82566.3
82650.5
82743.9
82845.1
82959.9
83077.1
83203.2
83331.5
83454.3
83587.7
83720.5
83854.7
83986.7
84114.5
84239.4
84361.4
84480.8
84597.7
84712.9
84827.3
84942.5
85059.8
85181.3
85309.6
85447.6
85599
85764.9
85947.8
86151.1
86368.3
86604
86854.8
87105.4
87350.5
87577.9
87778.6
87943.4
88059.5
88112.6
88091.5
87985.5
87784.9
87478.6
87066.8
86554.3
85969.9
85290.6
84607.6
83894.5
83183.9
82486.8
81831.7
81224.4
80684.7
80213.3
79820.8
79503.9
79268.2
79116.8
79040.3
79034.3
79099.4
79233.2
79439.5
79711.2
80043.8
80452.1
80880.5
81348.3
81836.3
82330.3
82802.5
83233.9
83619.1
83934.5
84190.5
84386.1
84525.6
84633.6
84715.8
84807.9
102402
102400
102395
102389
102381
102371
102358
102343
102326
102305
102282
102256
102227
102195
102158
102118
102073
102024
101971
101913
101850
101782
101708
101628
101542
101449
101348
101241
101126
101003
100873
100735
100588
100432
100267
100091
99905.6
99716.2
99510.6
99293.1
99064.2
98823.7
98572.1
98310
98036.8
97751.7
97452.5
97139.1
96811.3
96470.2
96116.6
95749.7
95369.8
94979.2
94578.6
94168.9
93750.4
93322.6
92887.8
92446.4
91998.9
91547.7
91092.3
90634.6
90175.3
89715.8
89255.6
88797.9
88353.7
87917.8
87476.9
87037.6
86613.5
86212.8
85834.5
85478.3
85143.2
84828.2
84531.7
84254.8
83998.9
83764
83549.9
83356
83182.2
83028.5
82894.5
82779.7
82683.6
82605.5
82545.2
82501.8
82474.3
82462.4
82465.6
82483.4
82514.5
82558.7
82616.2
82686.9
82770.2
82862.7
82963.6
83077.8
83192.8
83317.5
83446.1
83566
83700.4
83832.6
83965.2
84097.3
84221.9
84344
84463.8
84581.4
84696.6
84810.2
84923.2
85036.8
85152.6
85272.6
85398.1
85532.9
85679.8
85841.1
86018.7
86207.9
86416.9
86645.2
86896.6
87151.5
87390.7
87614.4
87810.4
87971.5
88086.2
88139.3
88116.6
88009.1
87803.2
87496.5
87087.1
86573.7
85997.6
85324.5
84652.2
83949.5
83247.6
82555.5
81906
81302.3
80765.7
80295.4
79902.3
79588.8
79352.3
79199.1
79121.4
79112.9
79173.4
79302.3
79511.3
79779.1
80108.2
80505.4
80931
81395.7
81883.4
82375.2
82843.8
83271
83652.7
83970.6
84228.6
84427.2
84571.8
84683.4
84772.6
84872
102437
102435
102431
102425
102418
102408
102396
102382
102366
102347
102325
102300
102272
102241
102206
102167
102124
102077
102026
101970
101910
101844
101773
101695
101612
101521
101424
101319
101207
101087
100960
100825
100683
100531
100369
100198
100017
99826
99629.3
99416.9
99193
98956.8
98709
98450.6
98181.5
97900.3
97605.4
97297.3
96975.2
96639.1
96289.1
95926.4
95551.6
95165.1
94767.3
94360.2
93944.7
93520.1
93088.2
92650.1
92206.2
91757.1
91304
90849.8
90394
89938.9
89484.3
89032.2
88591.9
88155.8
87713.6
87273.1
86846
86440.2
86056.9
85695.5
85355.1
85035.5
84736.6
84458.5
84200.8
83963.7
83746.8
83549.8
83373
83216.6
83080.4
82963.8
82866
82786
82723.6
82678.7
82649.4
82635.6
82636.9
82652.6
82681.8
82723.9
82779.3
82848.1
82930.2
83022.7
83124.5
83236.1
83348.3
83471.6
83600.6
83719
83852.1
83980.7
84109.3
84234
84360.1
84480.8
84598.3
84713.1
84826
84937.2
85047.8
85159.2
85272.2
85389.5
85513.4
85645.3
85788.2
85944.9
86115.8
86303.4
86501.5
86717.6
86951.2
87203.3
87441.8
87663.5
87855.1
88013.2
88123.9
88173.1
88148.3
88041.8
87826.4
87515.9
87109.4
86603.2
86027.8
85379.9
84712
84022.7
83332
82648.4
82006.7
81406.5
80873.5
80407.9
80011
79697.8
79461.9
79308.3
79226.5
79213.4
79270.2
79390.1
79605.6
79868.7
80190.4
80573.2
80994.5
81455.7
81942.3
82431.3
82900.1
83324.9
83699
84017.8
84279.5
84482.8
84633.5
84749.9
84848.4
84955.7
102479
102477
102473
102468
102460
102452
102441
102428
102413
102395
102375
102352
102326
102296
102263
102226
102186
102141
102092
102039
101981
101918
101850
101776
101696
101609
101515
101415
101306
101191
101067
100936
100797
100650
100494
100328
100153
99967.5
99772.6
99567.5
99349.5
99118.9
98876.3
98622.4
98357.7
98081.5
97792.3
97490.7
97175.3
96845.7
96502
96145.2
95775.7
95393.6
95000.3
94597.3
94185.7
93765.4
93337.3
92902.5
92462.5
92017.2
91568.7
91118.4
90664.7
90213.4
89765.1
89317.3
88879.2
88445.7
88004.6
87563
87134.2
86724.6
86335.9
85968.7
85622.7
85298.1
84995.5
84714.4
84453.8
84213.1
83992.3
83791.8
83612.1
83453.2
83314.3
83194.6
83093.3
83010.2
82945
82897.8
82866.9
82851.2
82850.3
82863.4
82890.5
82930.7
82984
83051
83131.5
83222.9
83323.8
83434.2
83546.8
83666.2
83801.5
83921.2
84044.3
84169.7
84292.5
84414.4
84537.5
84653.4
84767.6
84879.4
84989.2
85097.3
85203.2
85310.2
85420.2
85533
85654
85784.1
85922
86074
86241.5
86422.4
86621.8
86822.5
87034.7
87266.4
87508.6
87725.9
87914.1
88065.2
88170.7
88213.5
88185.2
88073.4
87862.7
87551.1
87141.3
86642.5
86073
85443.7
84789.4
84114.7
83437.5
82761.7
82131.8
81538.9
81004.7
80547.2
80150.3
79836
79596.6
79443.3
79358.3
79335.2
79390.9
79495
79721.4
79981.2
80289
80655.1
81071
81529
82015.3
82500.5
82958.1
83392.5
83760.7
84077.9
84342.1
84551.8
84709.2
84833.6
84943.7
85061.1
102524
102522
102518
102514
102508
102500
102490
102478
102465
102449
102431
102409
102385
102358
102327
102293
102255
102213
102167
102117
102062
102003
101938
101869
101793
101711
101622
101526
101422
101312
101193
101067
100933
100791
100641
100481
100312
100132
99944.8
99743.2
99530.2
99305.9
99069.8
98821.7
98562.4
98292.3
98009.8
97715
97407.5
97086.5
96751.3
96401.2
96037.5
95662.8
95277.5
94880.6
94473.1
94056.4
93632.2
93201.5
92765.3
92324.3
91881
91435.5
90986.2
90539.3
90094.7
89651.2
89215.7
88782.3
88342.2
87901.5
87472.4
87060.4
86667.6
86295.1
85944
85614.9
85307.8
85022.4
84757.3
84512.1
84287.5
84083.8
83900.9
83738.2
83594.5
83470
83364.4
83278
83210.2
83160.3
83127.6
83110.2
83107.6
83118.7
83143.6
83181.8
83232.7
83297
83374.5
83463.9
83563.4
83672.1
83785.7
83896.2
84034.4
84149
84268.8
84388.6
84507.8
84624.6
84743
84859.9
84972.4
85082.4
85189
85291.8
85393.9
85495.3
85598.7
85705.9
85821.8
85948.1
86082.5
86228.1
86390.1
86563.8
86752.7
86961.8
87162
87362.7
87587.5
87802
87986.1
88128.3
88226.6
88262.7
88226.4
88101.9
87895.9
87590.6
87183.7
86692.7
86131.7
85518.7
84884
84228.1
83565.4
82902.8
82281.6
81699
81161.4
80713.4
80313.3
80001
79755.6
79598.4
79514
79478.4
79533
79634
79843
80109.1
80406.2
80753.4
81161.5
81617
82101.1
82584.7
83037.5
83463.1
83835.3
84152.5
84419.5
84635.7
84801
84934.6
85056.5
85189.6
102571
102569
102566
102562
102557
102550
102542
102532
102520
102506
102490
102471
102449
102423
102395
102364
102329
102291
102249
102202
102152
102097
102037
101971
101901
101824
101740
101649
101552
101448
101336
101216
101089
100953
100809
100655
100493
100320
100136
99940.7
99734
99516.1
99287.4
99046.5
98793.8
98529.7
98254
97966.5
97667.1
97355.5
97031.1
96692
96337.2
95969.2
95590.7
95201.8
94802.2
94392
93972
93544.5
93111.6
92675
92237.2
91797.6
91354.3
90912.6
90470.9
90029.7
89596.8
89163.6
88726
88286.2
87857.4
87443.8
87048.3
86672.2
86316.8
85983
85670.8
85380.1
85110.5
84861.5
84633.2
84425.6
84237.9
84069.5
83920.1
83790.5
83681.1
83591.3
83520.7
83467.1
83431.1
83411.4
83407
83417
83440.3
83476.2
83524.2
83584.8
83658.2
83744.1
83840.9
83947.7
84059.2
84165.8
84296.3
84409.4
84525
84638.5
84751.9
84867.6
84985.3
85099.7
85210.4
85317.7
85419.8
85519.1
85618.3
85716.6
85813
85912.7
86018.5
86137.2
86269
86409.5
86562.8
86729.7
86905.5
87098.7
87316.6
87517.2
87706
87897.2
88071.3
88204.9
88292.6
88324.9
88284.6
88161.3
87950.5
87640.6
87238.3
86754.7
86206.9
85610.3
84988.8
84357.2
83712.3
83065.6
82460.5
81888.8
81346.6
80913.7
80502.5
80193.5
79940.1
79775.1
79685.6
79648.2
79688.2
79798.3
79984.5
80249
80535
80865.7
81266.7
81719.6
82199.8
82682.4
83132.2
83545.2
83921.2
84240.9
84513
84736.3
84911.1
85054.3
85188
85340.3
102616
102615
102612
102609
102605
102600
102594
102586
102576
102564
102550
102533
102513
102491
102466
102437
102406
102372
102334
102292
102246
102196
102141
102081
102016
101945
101867
101783
101692
101595
101491
101379
101259
101130
100994
100848
100692
100526
100349
100160
99960.5
99749.5
99527.4
99294.1
99049.5
98792.8
98524.3
98244.5
97953.3
97650.6
97336.4
97009.8
96667.4
96308.8
95938.3
95558.2
95167.7
94765.6
94352.3
93930.3
93502.2
93070
92636
92200.2
91762.2
91325.9
90888.6
90451
90021.3
89591
89151.9
88714.5
88287.1
87873.2
87475.8
87097
86738.1
86399.8
86082.4
85786.6
85513
85260.5
85028.1
84815
84621.2
84447.3
84293.6
84160.3
84047.2
83952.5
83875.8
83816.8
83775.9
83753.5
83746.9
83755.3
83777.8
83812.2
83857.7
83914.4
83983
84063.9
84155.2
84254.2
84364.3
84469.2
84591
84703.3
84813.7
84921.9
85032.3
85144.2
85263.8
85372.5
85480.2
85585.3
85681.7
85777.1
85871.6
85965.2
86059.4
86155.4
86254.5
86361.4
86482.7
86617.9
86763.9
86920.9
87089
87265.1
87457.4
87676.3
87866.4
88025
88173
88296.5
88374.6
88398.3
88354.3
88229.3
88016.5
87706.9
87309.8
86831.8
86295.1
85724.8
85113.8
84498.6
83876.6
83245.3
82654
82099.5
81572.2
81127.3
80731.9
80408.3
80156.8
79981.8
79877.5
79837.4
79863.5
79977.2
80150.3
80402.1
80674.9
80990.7
81387
81839
82314.3
82794.6
83240.8
83645.8
84019.2
84342.7
84622.1
84853.7
85039.7
85194.7
85340
85510.2
102658
102657
102655
102652
102649
102646
102641
102635
102627
102618
102607
102594
102578
102559
102537
102511
102484
102453
102420
102384
102344
102300
102250
102196
102136
102070
101999
101920
101837
101747
101651
101547
101436
101317
101189
101052
100905
100748
100580
100400
100207
100003
99788.4
99563.1
99326.8
99079.3
98819.7
98548.3
98265.8
97972.2
97666.3
97350.5
97022.9
96677.8
96316.7
95944.8
95563.8
95172.4
94769.3
94355
93932.6
93505
93076
92645.1
92213
91781
91347.5
90914
90487.1
90058.9
89621.1
89185.4
88759.6
88346.8
87948.9
87568.2
87206
86863.6
86541.8
86242
85964.5
85707.8
85470
85251.1
85052.2
84874.1
84717.1
84579.5
84460.9
84360
84276.8
84212.6
84167.3
84140.4
84129.5
84134.3
84154.8
84188.1
84232.2
84286.2
84350.5
84425.6
84510.6
84604.6
84708.7
84812.5
84925
85033.6
85139.6
85243.8
85345.7
85454.4
85562.9
85673.3
85784.2
85888.4
85975.7
86066.4
86156.2
86244.3
86334.2
86427.3
86523.3
86622.8
86731.1
86854.9
86993.6
87142.2
87300.1
87465.9
87636.4
87821.3
88023.5
88181.3
88304.4
88405.9
88474.6
88490.7
88440.2
88309.3
88092.9
87786.5
87400.2
86933.2
86407.3
85857.1
85266.3
84661.1
84059.3
83446.2
82862.9
82325.8
81812.5
81364.5
80978.6
80648.2
80392.5
80214.5
80093.7
80046.8
80068.8
80171.2
80333.2
80568
80827.5
81132.6
81526.3
81978.3
82449
82922.3
83365.1
83768.7
84135.2
84459.7
84748.2
84990.2
85189.7
85356.8
85514.3
85700.3
102692
102692
102690
102689
102687
102685
102682
102679
102674
102668
102660
102650
102637
102622
102605
102585
102562
102537
102509
102479
102445
102406
102363
102314
102260
102200
102134
102063
101987
101905
101817
101722
101620
101509
101390
101262
101124
100978
100820
100649
100466
100271
100066
99849.3
99622
99383.7
99134.1
98872.1
98599.5
98317.2
98021.3
97713.7
97398.5
97068.9
96721.3
96360.2
95989.2
95607.9
95215.7
94812
94398.7
93977.3
93553.9
93129.8
92704.7
92277.4
91847
91417.5
90992.8
90566.6
90131.2
89697
89273.2
88861.8
88464.6
88083.5
87719.6
87374
87048.9
86745.3
86463
86200.9
85957.9
85734.5
85532.2
85350.5
85188.8
85046.6
84922.8
84817.3
84730.1
84661.3
84610.2
84576.1
84557.6
84555
84570.2
84601
84644.4
84697.8
84759.8
84829.7
84909.8
84999.1
85098.8
85200.9
85305.1
85409.3
85510.4
85611
85703.2
85807.5
85897.4
85995.7
86098.8
86199.5
86294.9
86388.3
86474.4
86556.1
86640.1
86728.5
86820.7
86915.5
87015.4
87125.6
87252
87391.7
87539.6
87694.4
87852.7
88008.9
88169.7
88349.3
88465.8
88548.6
88599.6
88604.7
88545.6
88411
88191.8
87888.6
87511.5
87059.9
86548
86009
85440
84848.1
84262.1
83668.7
83092.8
82569.7
82068.6
81620.7
81237.3
80907.3
80646
80458.1
80330
80276
80303.3
80382.4
80530.6
80749.6
80998.6
81295.9
81689.9
82139.2
82604.2
83066.9
83506.9
83905.9
84268.3
84595.7
84894.5
85146.3
85361.4
85540.3
85714.3
85911.2
102715
102715
102715
102715
102715
102715
102715
102714
102713
102710
102706
102700
102692
102682
102670
102655
102639
102620
102599
102574
102547
102514
102477
102434
102386
102333
102274
102210
102140
102066
101986
101900
101807
101706
101596
101477
101348
101211
101063
100904
100731
100547
100351
100145
99928.2
99700.5
99461.7
99210.5
98947.9
98677.5
98394.8
98097.3
97792
97477.3
97145.9
96798.7
96439.7
96069.6
95688.5
95296.4
94894.5
94483.2
94065.8
93647.5
93228.5
92808.8
92383.9
91959
91537.2
91112.4
90680
90248.8
89826.7
89417.3
89021.3
88640.4
88275.2
87927.7
87600.2
87293.4
87006.4
86738.7
86491.2
86264.5
86058.8
85873.2
85706.6
85559.9
85432.9
85324.2
85233.3
85159.4
85101.6
85060.1
85034.7
85023.4
85029.5
85054.3
85095.1
85148
85209
85277
85352.2
85435.8
85530.7
85628.3
85728.4
85828.7
85926.4
86024.4
86120.9
86207.6
86291.2
86388.1
86478.2
86565.6
86659.8
86745.3
86821.9
86900.5
86979.4
87061
87147.3
87238.4
87333
87432.5
87543.3
87670.3
87807.5
87950.4
88097.3
88239.9
88374.6
88512.3
88645
88717.7
88753.3
88744.4
88673.5
88531.4
88313.9
88016.7
87645.2
87208
86709.4
86182.1
85632.4
85057.6
84484.4
83910.2
83343.9
82828.5
82341
81896.2
81509.4
81183.4
80921.6
80718.8
80588.5
80528.5
80553.3
80610.8
80740
80949.4
81189.7
81485.1
81883.8
82323.4
82779.9
83234.9
83672.8
84068.3
84425.2
84755.1
85060.6
85323
85552.7
85744.6
85941.4
86145.3
102722
102722
102723
102725
102727
102730
102733
102736
102738
102740
102742
102741
102739
102735
102729
102720
102710
102698
102683
102666
102644
102618
102587
102551
102510
102463
102411
102354
102293
102226
102155
102078
101994
101902
101802
101693
101573
101444
101306
101158
100997
100825
100640
100445
100240
100023
99796.6
99558.4
99307.7
99047.7
98778.8
98495.5
98200.8
97899
97584
97253.3
96909.3
96552.8
96184.2
95804.3
95414
95014.5
94606.1
94194.8
93781.4
93368.7
92952.2
92534.3
92118.7
91695.9
91266
90837.9
90417.7
90010.9
89617.4
89237.5
88871.6
88522.3
88192.4
87882.8
87592
87320.6
87069.4
86839.3
86629.1
86438.6
86267.7
86116.9
85985.8
85872.4
85777.1
85699
85637.2
85592.2
85563.7
85546.8
85542.7
85556.7
85589.5
85639.2
85700.9
85767.8
85839.2
85919.8
86005.3
86097.7
86193.4
86288
86382.9
86475.4
86564.2
86645.7
86730
86819.9
86907.8
86998.6
87087.3
87165.6
87228.9
87293.5
87360.3
87430.4
87507
87592.9
87682.6
87774.5
87872.5
87981.9
88105.7
88235.1
88370.1
88500.1
88621
88720.1
88822.4
88904.3
88932
88911.6
88832.9
88678.6
88460.9
88171.2
87806.8
87380.3
86896.6
86377.9
85843.2
85285.5
84725.2
84168.9
83616.3
83104.8
82629.1
82188.2
81800.8
81477.6
81212.9
81000.1
80868.9
80807.1
80813.2
80856.5
80962.4
81160.6
81394.2
81704.7
82111.6
82537
82982.3
83433.3
83865.1
84251.4
84619.5
84943.9
85246.1
85519.4
85756.9
85971.3
86192.9
86412.3
102707
102708
102711
102715
102720
102725
102732
102740
102747
102755
102762
102768
102772
102775
102776
102775
102772
102767
102759
102748
102734
102715
102692
102663
102629
102591
102547
102499
102446
102388
102324
102255
102180
102096
102006
101907
101797
101678
101548
101409
101259
101099
100928
100746
100552
100348
100133
99908
99671.8
99424.7
99168.6
98900.4
98620.5
98332.2
98032.6
97718.5
97391.1
97050.5
96696.8
96331
95954
95566.8
95169.8
94767.4
94361.3
93954.4
93546.8
93137.6
92731.7
92316
91888.2
91461.1
91044.3
90640.3
90249.6
89872.1
89507.1
89156.5
88824.6
88512.8
88219.6
87945
87690.5
87456.4
87241.5
87045.9
86870.2
86714.3
86577.6
86459
86359.6
86279.2
86215.5
86167.1
86136
86117.3
86108.2
86112
86132.3
86173.6
86233.4
86298.5
86368.1
86440.6
86521.7
86610
86699.2
86787.9
86880.2
86962.5
87046.5
87122.1
87208.9
87288.3
87372.8
87458.3
87551.3
87626.6
87678.9
87735.6
87792.9
87847.1
87908.2
87982.4
88063.9
88149.5
88237.9
88332.2
88438.5
88552.1
88672.1
88788.2
88897.4
88991.2
89062.1
89115.5
89135.5
89103.6
89019.4
88860.8
88637.2
88351.6
87996.4
87580
87108.6
86598.2
86074.3
85531.7
84984.2
84443.2
83906.9
83401.8
82933.4
82497.4
82114
81791.3
81517.9
81303.1
81171
81103.5
81085.8
81118
81200.1
81378.5
81606.8
81952.4
82369.9
82786.9
83219.5
83668.1
84081.5
84457.6
84828.7
85163
85456.9
85735.5
85974.4
86222.4
86466.7
86707.6
102665
102667
102672
102679
102688
102698
102709
102721
102735
102749
102763
102776
102788
102799
102808
102816
102821
102823
102823
102821
102814
102803
102788
102768
102743
102713
102678
102638
102593
102544
102488
102428
102361
102286
102204
102113
102012
101902
101783
101655
101516
101367
101208
101039
100859
100669
100469
100257
100035
99801.8
99559.2
99306.4
99042.1
98768.8
98486.1
98190.4
97880.9
97557.7
97220.5
96870.4
96508.6
96135.6
95751.8
95360.3
94963.4
94563
94163.5
93762.9
93367.1
92965.4
92545.9
92120.2
91700.8
91304
90916
90541.2
90177.8
89827.2
89494
89180.7
88886.2
88609.6
88352.3
88114.1
87895.3
87695.5
87515.1
87353.3
87210.6
87088
86986.1
86904
86838.7
86785.8
86750
86729.9
86721.1
86720.2
86728.5
86758.5
86811.4
86874.3
86940.8
87005.2
87083.2
87165.4
87246.4
87324.3
87397.9
87473.5
87555.1
87636.5
87721.2
87799.4
87880.5
87955
88031.7
88099.5
88161.8
88216.1
88268.7
88314.8
88361.6
88414.9
88483.5
88559.6
88639.1
88721.4
88809.2
88905.5
89006.8
89108.7
89202.6
89284.2
89351.3
89370.1
89367.4
89320.3
89227.9
89068.7
88840.9
88555.3
88206.8
87801.1
87341.7
86842.2
86326.8
85798.5
85264
84734.4
84214.5
83719
83254.8
82826.7
82446.6
82121.7
81842.3
81631.1
81496.6
81413.8
81380.1
81401.9
81464.1
81613.7
81854.9
82237.8
82658.3
83066.4
83499
83948.5
84335.8
84699.4
85066.2
85413.9
85703.6
85980.4
86233.4
86500.2
86766
87023.3
102591
102595
102600
102610
102624
102641
102659
102678
102699
102720
102742
102764
102785
102805
102823
102839
102853
102864
102873
102879
102881
102879
102872
102861
102844
102823
102797
102766
102730
102689
102641
102589
102530
102463
102389
102308
102217
102116
102007
101890
101762
101626
101479
101323
101157
100980
100795
100599
100393
100176
99947.1
99709.7
99462.3
99204.5
98938.2
98661.6
98372.2
98068.8
97750.5
97417.9
97072.7
96715.5
96346.9
95968.6
95583.1
95191.7
94799.7
94407.4
94019.6
93633.3
93230.8
92813.3
92396.9
91992.1
91614.5
91241.4
90880.4
90531
90197.3
89883.1
89587.7
89310.1
89050.5
88809.7
88587.4
88384.3
88199.9
88033.5
87886.8
87761.9
87657.4
87572.7
87506.9
87453.3
87413.1
87389
87379.2
87377.1
87377.3
87395.1
87439.9
87495.8
87555
87620
87689.5
87764.9
87839.2
87907.9
87970.8
88045.1
88115.4
88198.9
88275.8
88360.1
88440.3
88509.6
88566.1
88623.5
88691.3
88738.2
88783.5
88825.4
88864.9
88898.8
88949.3
89009.6
89078.9
89150.1
89221.8
89300.5
89379.1
89462.8
89536.1
89597.1
89655.2
89659.6
89627.7
89562.9
89455.5
89295.3
89066.9
88781.5
88438.5
88043
87596.8
87114
86606.1
86089.6
85568.2
85048.1
84544.1
84058
83598.5
83180.7
82801.3
82472.4
82194
81984.6
81843
81744.6
81702.8
81721.4
81778.9
81913.2
82182.1
82569.7
82979.6
83383.8
83822.9
84269.2
84646.2
84996.5
85364.6
85698.8
85991.9
86267.5
86533.2
86813.4
87092.2
87354.2
102478
102483
102490
102503
102522
102546
102573
102602
102632
102663
102694
102726
102757
102787
102815
102841
102865
102886
102904
102919
102930
102937
102940
102937
102930
102919
102902
102879
102852
102819
102781
102736
102685
102626
102561
102487
102405
102315
102217
102110
101995
101870
101737
101594
101442
101280
101110
100929
100739
100538
100327
100106
99876.3
99636.7
99386.6
99128
98859.2
98577.5
98280.2
97967.2
97640.8
97301.8
96950.2
96587.2
96215
95835.5
95452.2
95068.2
94686.8
94310.9
93927.4
93527.9
93121.8
92720.1
92335.1
91968.1
91609.7
91264.6
90931.2
90617.3
90321.9
90043.1
89781.3
89537.8
89313
89107
88919.9
88751.6
88603.5
88476.6
88367.8
88277.6
88210.6
88160.2
88120
88091.4
88077.6
88075.9
88070.2
88078.5
88122.2
88165.8
88217.7
88272.5
88339.8
88409.4
88477.2
88540.3
88602.2
88668.3
88738.9
88814.7
88889.5
88965.3
89043.8
89114.2
89170.4
89223.8
89280.5
89315.5
89345.1
89377.9
89410.9
89434.3
89465.1
89506.3
89561.2
89619.5
89676.9
89737.8
89794.7
89854.7
89902.8
89940.8
89968.6
89969.3
89920.3
89838.1
89712.4
89544.2
89315.5
89031.8
88695.3
88308.6
87875
87407.6
86914.5
86409.8
85899.4
85391
84901
84422.5
83971.3
83563.9
83182.5
82852.1
82579
82365.8
82211.5
82105.9
82060.1
82081.3
82141.9
82286.2
82575.2
82936.3
83328
83743.7
84185.4
84613.8
84992.1
85354.2
85694.3
86021.1
86320.9
86597.3
86870.5
87163.6
87444.3
87717.3
102319
102326
102334
102352
102376
102408
102445
102486
102528
102571
102614
102657
102699
102741
102780
102818
102853
102885
102913
102939
102960
102976
102989
102996
102998
102996
102988
102975
102956
102932
102902
102865
102821
102771
102713
102647
102574
102495
102408
102313
102210
102098
101977
101848
101710
101564
101409
101245
101071
100887
100694
100491
100278
100058
99827.6
99586.6
99337.2
99077.2
98803.2
98512.7
98207.3
97888.6
97556
97210.3
96853.5
96487.7
96116.1
95741.9
95367.5
94998.8
94630.6
94252.2
93863.4
93469.6
93084.2
92717
92365.4
92025.2
91690.6
91380
91086
90807.2
90544
90297.9
90071
89863.5
89675.6
89507
89356.9
89226.6
89114.1
89017.4
88945.6
88896.1
88858.3
88828
88811.9
88813.2
88800.6
88812
88843.2
88881.4
88927.8
88981.9
89035.9
89098.6
89161.9
89223.6
89279.7
89335.9
89401.6
89471.9
89544.7
89614.1
89686.3
89754.6
89814.6
89866.6
89910.8
89939.8
89960.4
89977.9
90000
90017.8
90031.7
90053.8
90090.6
90132.5
90176.1
90218.8
90257.4
90292.7
90319.1
90334.1
90326.3
90311.2
90253.7
90155.7
90014.6
89832.4
89600
89315.2
88984
88603.1
88180.2
87725
87245.5
86754.7
86257.2
85762.1
85282.8
84812.7
84371.7
83969.8
83590.3
83263.9
82994.5
82772.6
82608
82500.3
82450.1
82468
82542.8
82689.8
82974.5
83325.1
83704.4
84134.7
84573.2
84981.3
85356.8
85747.5
86061.3
86385.1
86687.5
86966.4
87248.8
87549.2
87828.6
88124.8
102140
102147
102161
102183
102214
102253
102300
102351
102405
102461
102517
102572
102626
102679
102730
102778
102823
102864
102902
102937
102966
102991
103012
103028
103038
103043
103044
103037
103026
103008
102984
102954
102918
102875
102824
102767
102703
102633