/*--------------------------------*- C++ -*----------------------------------*\
| =========                 |                                                 |
| \\      /  F ield         | OpenFOAM: The Open Source CFD Toolbox           |
|  \\    /   O peration     | Version:  dev                                   |
|   \\  /    A nd           | Web:      http://www.openfoam.org               |
|    \\/     M anipulation  |                                                 |
\*---------------------------------------------------------------------------*/
FoamFile
{
    version     2.0;
    format      ascii;
    class       volScalarField;
    object      p_0;
    location    "9.128";
}
// * * * * * * * * * * * * * * * * * * * * * * * * * * * * * * * * * * * * * //

dimensions      [1 -1 -2 0 0 0 0];

internalField   nonuniform List<scalar> 
12225
(
92103.4
92144.3
92273.6
92483.8
92752.9
93084.6
93459
93884.5
94337.6
94836.3
95342.6
95904.8
96439.4
97079.4
97656.7
98305.7
99141.2
99640.9
92098
92141.6
92271.5
92481.7
92750.7
93082.2
93456.5
93881.7
94334.7
94832.8
95339.9
95898.3
96439.7
97060.4
97647.4
98289.5
99054
99657.1
92091.1
92136.5
92267.4
92477.1
92745.9
93077
93450.9
93875.4
94328.2
94824.4
95332.4
95884.5
96432.5
97038.3
97631.7
98264.7
98966.3
99556.5
92079.9
92128.1
92260.4
92469.2
92738.1
93068.1
93441.6
93864.6
94317.2
94810.2
95318.4
95863.7
96413.4
97004.7
97598.4
98219.4
98863.5
99451
92063.7
92115.6
92249.3
92457.2
92726.2
93054.5
93427.6
93847.9
94300.2
94788.6
95297.3
95834.9
96383.3
96960.7
97534.2
98136.2
98733.3
99272.3
92042
92098
92232.2
92439.7
92708.5
93035
93407
93826
94275
94759.6
95266.5
95798.1
96340.6
96903.7
97458.4
98013.1
98585.8
99106.3
92013.8
92073.6
92208.3
92415.4
92683.7
93008
93378.6
93792.1
94240.5
94718.7
95223.3
95744.7
96282.1
96825.8
97374.1
97906.8
98453.1
98956.6
91981.5
92045.6
92181.4
92388.2
92655.7
92977.8
93346.6
93756.2
94201.9
94675.1
95174.7
95688.5
96217.7
96749.8
97290.4
97814.8
98333.7
98817.7
91950.2
92015.7
92152.6
92358.8
92625.6
92945.3
93312.3
93718.1
94160.8
94629.3
95123.7
95628.9
96150.2
96671.6
97198.6
97709.6
98203
98669.5
91911.9
91976.4
92114.7
92320.4
92585.8
92902.7
93267.1
93668.8
94106.5
94569.4
95056.2
95552.8
96063.3
96571.5
97082.8
97571.8
98048.1
98498.7
91860.1
91924.9
92064.6
92269.9
92533
92846.6
93207
93603.8
94034.7
94490.6
94966.8
95454.9
95950
96446.1
96936.1
97412.5
97868.1
98299.8
91786.2
91857.5
91998.9
92202.9
92463.3
92772.3
93127.7
93517.7
93940.9
94387.1
94852.2
95327.4
95808.5
96288.1
96760.5
97219.4
97657.6
98074.1
91700.1
91771.4
91912.7
92115.1
92371.5
92675.8
93023.6
93406.6
93819.3
94255
94706.7
95168.2
95633.4
96095.8
96550.4
96991.6
97414.2
97816.4
91595.3
91662.2
91800.9
91999.9
92251.9
92550
92889.4
93262.9
93664.3
94087.1
94524.5
94970.4
95418.7
95863.6
96300.3
96724.2
97131.3
97519.7
91466.3
91523.4
91657.2
91852
92098
92388.7
92718.4
93080.7
93469.3
93877.6
94299.3
94728.4
95159.1
95586.1
96005.2
96412.5
96804.4
97179.6
91282.1
91343.5
91474.7
91664.3
91903.3
92185.2
92504
92853.6
93228
93620.6
94025.4
94436.9
94849.5
95258.7
95660.8
96052
96429.3
96791.6
91057.4
91121.4
91248.7
91431.9
91662.9
91935
92242
92578
92937
93313
93700.4
94094
94488.7
94880.5
95265.8
95641.6
96005
96354.8
90818.3
90875.6
90997.7
91174.7
91397.8
91660.2
91955.7
92278.5
92622.9
92983.3
93354.5
93731.6
94110.3
94486.6
94857.3
95219.4
95570.4
95909.1
90585.3
90644
90763.8
90936.3
91153.2
91407.6
91693.7
92005.7
92338.2
92686
93044.3
93408.6
93774.7
94138.9
94498
94849.3
95190.7
95520.6
90389.2
90450.1
90569
90738.3
90950.4
91198.8
91477.5
91781.2
92104.7
92443.2
92791.9
93146.5
93503
93858
94208.4
94551.6
94885.5
95208.9
90236.7
90294.7
90412.1
90578.8
90787.1
91030.9
91304.4
91601.8
91918.3
92249.5
92590.8
92938.1
93287.6
93635.7
93979.6
94316.8
94645.4
94963.7
90109.4
90172.6
90289.5
90453.8
90659
90899.3
91168.6
91461.2
91772.7
92098.5
92434.2
92776.2
93120.5
93463.4
93802.5
94135.3
94459.8
94774.4
90018.4
90079.6
90195
90357.3
90560.3
90798
91064.4
91353.7
91661.4
91983.3
92315.1
92653
92993.3
93332.6
93668.1
93997.7
94319.2
94631
89948.7
90010.4
90124.1
90284.8
90486.1
90721.9
90986.1
91273.2
91578.1
91897.2
92226.4
92561.4
92898.8
93235.4
93568.4
93895.6
94214.8
94524.6
89905.6
89960.6
90072.2
90231.6
90431.8
90666.1
90928.8
91214.3
91517.5
91834.7
92161.9
92494.9
92830.2
93164.9
93496.1
93821.5
94139.1
94447.5
89872.7
89925
90035.3
90193.6
90393.3
90626.6
90888.3
91172.6
91474.7
91790.6
92116.4
92448.1
92782.1
93115.3
93445.2
93769.4
94086
94393.5
89847.4
89902.2
90010.1
90167.4
90366
90599.5
90860.6
91144.3
91445.6
91760.7
92085.9
92416.5
92749.5
93081.9
93410.9
93734.2
94050.1
94357.2
89835
89886.6
89993.6
90150.5
90349.2
90582.3
90843.1
91126.1
91427.1
91741.7
92065.9
92396.4
92729.1
93060.8
93389.3
93712.3
94027.9
94334.4
89829
89877.7
89983.5
90140.4
90339.5
90572.7
90833.3
91116.2
91416.9
91731.4
92055.3
92385.2
92717.3
93048.9
93377.1
93699.8
94014.9
94320.7
89828.2
89874.4
89979.6
90136.4
90335.4
90568.6
90829.7
91112.8
91413.5
91727.7
92051.3
92380.7
92712.6
93043.9
93372
93694.6
94009.5
94315.2
103513
103510
103505
103496
103484
103470
103452
103431
103406
103379
103347
103312
103274
103231
103184
103133
103077
103016
102951
102881
102806
102725
102638
102546
102447
102342
102230
102111
101984
101850
101709
101558
101400
101233
101056
100870
100673
100466
100248
100019
99777
99524.7
99260.8
98983.4
98692.1
98387.4
98068.5
97734.9
97386.8
97025
96649.3
96260.3
95858.9
95446.2
95023.1
94590.6
94150.1
93704.3
93249.1
92787
92320.4
91851.4
91379.4
90905.3
90431.6
89961.1
89496.6
89041.4
88598.5
88168.4
87750.5
87346.7
86960.8
86596.4
86254.2
85933.4
85635.1
85361.1
85110.6
84880.5
84672
84485.3
84319.4
84172.6
84043.5
83931.4
83835.4
83754.8
83689.5
83638.8
83602.3
83579.2
83568.2
83568.6
83579.4
83599.6
83628.2
83664.5
83708
83759.1
83818.2
83883.1
83953.8
84032.2
84110.9
84198
84283.2
84373.1
84464.4
84558.2
84653
84748.1
84842.9
84937.2
85030.8
85123.7
85216.1
85308.5
85401.6
85496.4
85594.5
85697.2
85806.5
85924.4
86052.1
86190
86338
86494.1
86655.3
86816.9
86972.3
87117.3
87236.2
87318.6
87353.1
87329.9
87237.9
87069.2
86818.6
86481.8
86058.6
85551.9
84976.5
84335.8
83650
82940.2
82234.6
81542.7
80881
80262.3
79699.9
79199.1
78768.6
78407.6
78122.6
77910.5
77775.7
77714.6
77724.5
77806.2
77961
78184.9
78484.3
78853.1
79295.7
79795.1
80345
80931.8
81538
82152.6
82747.4
83302.1
83800.3
84220.4
84569
84843.2
85058.3
85244
85417.6
85608.6
103525
103522
103516
103508
103497
103482
103465
103444
103420
103392
103361
103327
103288
103246
103199
103149
103093
103033
102969
102899
102824
102743
102657
102565
102467
102363
102251
102132
102006
101873
101732
101582
101425
101258
101083
100897
100702
100495
100278
100049
99808.3
99555
99290.5
99017.6
98726.9
98424.4
98106.3
97773.1
97425.5
97064.6
96689.6
96300.6
95899.2
95487.1
95064.9
94632.7
94191.4
93743.6
93289.1
92828.7
92365.6
91900
91428
90954.4
90481.5
90010.9
89545.6
89090.4
88649.1
88221
87802.9
87396.7
87007.9
86641.3
86298.3
85977.4
85679.2
85406.3
85157
84926.6
84715.8
84525.9
84357.4
84209
84079.2
83966.9
83871.1
83790.7
83725.1
83674.2
83637.7
83614.4
83603.3
83603.7
83614.1
83634
83662.4
83698.6
83742
83793
83852.3
83917.2
83987
84065.4
84145.1
84233.4
84320.3
84408
84500
84593.9
84688.9
84784
84878.6
84972.6
85065.9
85158.6
85250.5
85342.3
85434.8
85528.7
85625.8
85727.3
85835.1
85951.7
86077.9
86214.7
86361.4
86515.9
86675.8
86836.8
86994.2
87138.3
87254.5
87335.2
87368.8
87345.7
87254.7
87087
86837.9
86503.7
86083.5
85582.5
85003.4
84358.2
83670
82964.1
82258.8
81568.7
80909.1
80291.6
79730.9
79231.1
78802
78441.8
78157.7
77945.6
77811.1
77751.6
77761.5
77842.3
77995.5
78217.2
78514.4
78878.3
79321
79816.2
80361
80947.5
81552.3
82165.7
82759.4
83311.7
83810.2
84227.7
84577.3
84853
85069.2
85258.4
85431.4
85623.9
103548
103545
103539
103531
103520
103506
103489
103469
103445
103419
103389
103355
103317
103276
103230
103180
103126
103066
103002
102934
102860
102781
102696
102605
102508
102404
102293
102176
102051
101918
101778
101630
101474
101309
101135
100951
100757
100553
100337
100110
99870.2
99618.5
99354.8
99078.8
98791.9
98498.6
98181.5
97848.4
97501.6
97142.2
96768.9
96381.2
95980.3
95569
95147.8
94717.1
94276.9
93829.4
93376.3
92916.4
92452.4
91987.4
91520
91051.3
90580.6
90111.8
89647.3
89191.9
88753.5
88327.3
87906.5
87495.2
87102.1
86731.8
86387.1
86068.2
85772.8
85498.4
85244.2
85011.1
84799.2
84608.5
84438.3
84287.9
84156.3
84042.6
83945.8
83864.9
83798.9
83747.6
83710.7
83686.7
83674.4
83673.6
83683.3
83702.2
83729.7
83765.5
83809.1
83860.4
83919.8
83984.3
84053.1
84133.3
84213
84300.4
84390.4
84477.5
84570.2
84664
84759.5
84854.5
84948.8
85042.5
85135.6
85227.9
85319.3
85410.5
85502.1
85595.2
85690.9
85790.6
85896
86009.4
86132.8
86266
86409
86561
86718.2
86875.5
87030.1
87170.2
87289.2
87367.6
87400.7
87377.8
87287.2
87120.7
86874
86541.6
86122
85621.3
85046.3
84389.4
83708.8
83009.1
82309.6
81624
80969.2
80354
79796.6
79298.5
78871.6
78512.8
78230.4
78018.9
77882.9
77823.4
77834.5
77913.4
78063.3
78281.5
78575.4
78937.6
79367.2
79857.4
80398.8
80981.6
81585.9
82191.7
82781.7
83330.8
83826.7
84245.3
84593
84871
85090.4
85282.4
85458.7
85655.7
103581
103578
103572
103564
103553
103540
103524
103505
103482
103457
103428
103395
103359
103319
103274
103225
103172
103114
103052
102985
102913
102835
102752
102663
102568
102465
102356
102240
102117
101986
101848
101702
101548
101386
101214
101032
100840
100638
100424
100199
99962.3
99712.6
99450.8
99177.2
98891.3
98601.1
98287
97957.7
97614.1
97256.6
96885.3
96500.1
96101.4
95691.7
95271.8
94842.8
94404.8
93958.1
93505.7
93047.6
92585.6
92121.8
91655.5
91189.4
90723.8
90260.9
89800.9
89348.2
88912.4
88487.5
88062.8
87645.1
87246.6
86873.1
86526.1
86204.3
85905.9
85629.4
85373.3
85138.1
84924.5
84732.2
84560.1
84407.2
84272.9
84156.7
84057.9
83975.6
83909
83856.9
83818.9
83793.8
83780.3
83778
83786.3
83804.5
83831.1
83865.8
83909
83960.5
84019.9
84084.6
84154.5
84235.2
84313.9
84401.2
84493.3
84580.1
84674.1
84768.1
84863.3
84957.7
85051.1
85144
85236.2
85327.6
85418.3
85508.9
85599.9
85692
85786.6
85885.2
85988.5
86099.2
86218.6
86347.7
86486.8
86631.9
86781.2
86934
87084.2
87222.2
87343.3
87416.6
87447.9
87425
87336.2
87171.5
86925.1
86590.6
86174
85675.4
85106.2
84439.2
83772.6
83079.7
82389.7
81711.3
81063
80451.4
79897.9
79402.1
78977.3
78618.5
78335.6
78126.9
77989.5
77927.8
77938.5
78014.7
78159.8
78372.8
78664.4
79020.2
79439.1
79920.1
80454.2
81032.5
81636.6
82237.2
82818.9
83360.1
83850.7
84270.8
84618.8
84899.8
85124.3
85319
85500.5
85703.6
103622
103619
103614
103606
103596
103584
103568
103550
103529
103505
103477
103446
103411
103372
103330
103283
103231
103176
103116
103051
102981
102906
102825
102738
102645
102545
102438
102324
102204
102075
101940
101797
101646
101486
101317
101137
100948
100749
100539
100317
100084
99837.2
99578.2
99307.5
99025.6
98731.2
98419.8
98099.8
97761.7
97406.6
97037.7
96656.3
96261.5
95854.6
95436.5
95009
94573.1
94128.7
93678.6
93223
92763.7
92301.3
91837.3
91374.7
90912.6
90453.5
89997.6
89553
89121.3
88695.5
88269.2
87849.1
87447
87068.9
86716.6
86389
86084.9
85803.6
85544.8
85307.9
85092.2
84897.2
84722.1
84565.9
84428.6
84309.8
84208.9
84125
84056.8
84003
83963.1
83936.7
83921.8
83918.2
83925.1
83942
83967.7
84001.5
84043.6
84094.5
84154
84220.1
84292
84372.6
84450.4
84537.4
84633
84720.5
84814.5
84907.6
85001.9
85095.2
85187.7
85279.5
85370.2
85459.8
85549.2
85638
85726.9
85817.5
85910
86006.2
86108.6
86216.7
86332.5
86457.7
86590.8
86731.8
86875.5
87017.2
87160.6
87294.3
87406
87481.2
87511
87487
87399.8
87239.6
86989.2
86659.2
86243.5
85744.4
85173
84527.6
83860.9
83175.3
82496.8
81829.3
81188.5
80583.3
80034.4
79540.6
79117.4
78761.3
78475
78266
78128.8
78068.3
78074.5
78146.3
78287
78490.9
78781.1
79127.9
79534
80002.9
80528.1
81099.5
81696.5
82293.7
82869.8
83403.4
83884.6
84303.4
84653.8
84938.8
85169.2
85368.3
85556.8
85766.1
103668
103666
103662
103655
103645
103634
103619
103603
103583
103561
103535
103506
103473
103436
103395
103351
103302
103249
103191
103129
103061
102989
102911
102828
102738
102642
102538
102428
102310
102184
102052
101912
101764
101607
101442
101267
101081
100885
100678
100460
100231
99988.3
99732.9
99465
99185.6
98893.8
98586.6
98272.7
97939.8
97589.9
97226
96848.7
96457.8
96054.3
95639.9
95215.3
94782.4
94341.5
93893.9
93440.9
92984.5
92525
92064.8
91605.2
91145.2
90690.5
90240.6
89798.1
89371.6
88947
88521.1
88099.6
87695.1
87313.2
86955.2
86621.3
86311.3
86024.7
85761.5
85521.1
85302
85103.1
84924
84764.3
84624.1
84502.9
84399.5
84312.6
84241.1
84184.5
84142.1
84113.9
84097.9
84092.9
84098.4
84113.6
84138.4
84171.5
84212.9
84263.4
84323
84390
84463.5
84544.5
84625.3
84707.6
84810.5
84896.9
84989.6
85082
85174.5
85266.8
85358.7
85449.4
85538.7
85627.2
85714.7
85801.2
85886.5
85973.2
86062.9
86155
86254.5
86361.4
86472.8
86593.3
86723.2
86856.9
86995.6
87136.8
87266.9
87385.5
87485.8
87567.6
87592.4
87569.1
87483.1
87319.5
87071.7
86743.4
86332.7
85838.9
85262.4
84632.3
83973.3
83296.3
82630.2
81975.4
81344.1
80744.9
80203.6
79714.7
79289.2
78938.6
78652
78440.5
78300.4
78241.2
78247.6
78306.6
78444.6
78633.8
78921
79262.2
79651.1
80104
80618.5
81182.3
81774.6
82365.6
82930.3
83458.4
83932.2
84346.1
84696.9
84987
85223.6
85430.3
85628.3
85845.4
103719
103718
103713
103707
103699
103688
103676
103660
103643
103622
103599
103572
103541
103507
103469
103427
103382
103332
103277
103218
103154
103084
103010
102930
102845
102752
102653
102546
102432
102311
102183
102046
101903
101750
101588
101417
101236
101044
100841
100626
100400
100162
99911.1
99646.4
99369.4
99085.8
98784.3
98471.1
98143.9
97802.1
97445.1
97072.7
96686.7
96289.6
95881.1
95460.3
95032.5
94594.5
94148.9
93699
93245.4
92789.2
92333.1
91877.2
91420.9
90970.5
90522.1
90089.2
89660.8
89236.7
88810.9
88390
87984.8
87600.1
87237.6
86898.1
86582.6
86291.1
86023
85777.8
85553.8
85350.2
85167.2
85004.3
84860.7
84735.7
84627.7
84536.4
84461.1
84401.6
84357.1
84326.5
84309.2
84303
84307.6
84321.8
84345.4
84378.1
84418.9
84468.6
84527.4
84594.8
84669.4
84751.7
84839.3
84918
85016.2
85104.5
85196
85286.6
85377.9
85468.8
85560.6
85651.3
85740.2
85828.4
85914.6
85998.6
86081.7
86164.2
86247.9
86334.6
86428.7
86532
86640.5
86755.5
86880.3
87007.8
87138
87274.6
87404.6
87511.6
87593.9
87673
87697.5
87669.3
87588.1
87412.6
87169.1
86842.6
86434.4
85949.3
85378.8
84755.4
84108.3
83440
82790.3
82151.5
81531.4
80939
80405.9
79923.2
79494.6
79147.9
78860.9
78648.6
78504
78438.9
78448.8
78496.2
78626
78807.9
79080.2
79418.7
79793.2
80225.6
80726.3
81279
81866.9
82451.7
83005.4
83522.8
83992.2
84401.7
84751.8
85045.9
85289.2
85504.8
85713.3
85942.2
103772
103770
103766
103760
103754
103745
103734
103721
103705
103687
103666
103641
103613
103582
103547
103508
103466
103420
103369
103314
103254
103189
103119
103044
102962
102874
102779
102678
102569
102453
102329
102198
102059
101911
101754
101587
101411
101223
101024
100813
100590
100355
100112
99852
99580
99296.8
99000.9
98692.7
98371.8
98037.9
97690.1
97326.9
96947.7
96555.8
96152.9
95739
95316.9
94884.2
94442.4
93994.7
93543.6
93090.8
92639.3
92187.6
91736.1
91290.5
90846
90411.4
89985.6
89562.7
89137.6
88717.5
88312.1
87925.3
87559.8
87216.5
86896.4
86599.9
86326.4
86075.6
85846.8
85639
85452
85284.9
85136.6
85006.2
84892.8
84796.9
84718.2
84655.8
84608.9
84575.2
84555
84547.2
84550.7
84564.8
84588.2
84620.2
84660.2
84708.7
84766.2
84833
84907.8
84990
85080.8
85156.1
85252
85341.5
85432
85520.5
85611.2
85701.3
85792.9
85883.3
85972.3
86059.9
86144.2
86226.6
86308.7
86390.1
86468.9
86549.5
86634.5
86729.8
86835.1
86945.9
87063.2
87185.4
87306.7
87431.1
87558.5
87668.3
87740.8
87778.7
87825.4
87791.1
87698.4
87535.7
87292.7
86969.5
86565
86067.6
85514
84906.2
84271
83608
82967
82350.6
81746.4
81163.1
80644.9
80170.4
79737
79393.9
79105.2
78890.3
78742
78665.1
78667.6
78710.6
78824.5
79009.9
79264.4
79594.9
79955.9
80368
80851.4
81393.6
81972
82550.3
83097
83598.7
84063.1
84470.1
84820.7
85118.2
85368.1
85592.5
85811.9
86055.9
103822
103820
103817
103812
103806
103799
103791
103780
103766
103751
103733
103711
103686
103657
103626
103591
103552
103510
103464
103414
103359
103299
103234
103164
103087
103004
102915
102818
102715
102605
102487
102362
102228
102085
101934
101773
101602
101420
101226
101019
100800
100570
100329
100075
99808.7
99529.9
99238.8
98936
98621.5
98294.7
97955.7
97603.3
97234.4
96849.8
96453.6
96047.7
95632
95205.5
94768.9
94325.5
93879.5
93429.9
92980.6
92531.5
92084.6
91643.4
91202.4
90769.6
90345.9
89924.2
89499.7
89080.6
88675.7
88287.9
87920
87573.6
87249.6
86948.2
86669.3
86413.2
86180
85968.5
85777
85604.4
85450.2
85314.4
85197.2
85097.8
85015.7
84948.9
84896.8
84858.7
84834.7
84825
84827.1
84840.5
84864.3
84896.6
84936.6
84984.1
85040
85105.1
85178.4
85259.9
85347.2
85424.2
85519
85608.9
85698.3
85786.4
85875
85964.1
86055.6
86145.7
86234.8
86321.6
86404.3
86485.4
86564.7
86643
86721.3
86799.7
86878.9
86963.4
87058.7
87164.3
87275.4
87390.1
87505.9
87618.7
87730.3
87839.7
87919.4
87949.4
87952.1
87938.5
87838.3
87675
87436.9
87117.7
86722.5
86226.9
85671.2
85074.2
84452.8
83809.1
83170.2
82569.2
81986.5
81414.4
80909.4
80451
80020.8
79679.9
79392.8
79169.3
79017.3
78934
78916.2
78952.5
79050.2
79234.1
79475.1
79788.8
80132.7
80525.4
80994.3
81527.9
82093.7
82665.1
83204.1
83692.4
84146
84550.9
84903.6
85204.6
85461.4
85695.5
85925.2
86183.9
103866
103865
103862
103859
103854
103849
103842
103833
103822
103810
103795
103778
103757
103732
103703
103672
103638
103601
103560
103515
103466
103412
103353
103287
103215
103137
103053
102962
102864
102760
102649
102531
102404
102268
102123
101968
101804
101628
101440
101240
101026
100800
100563
100315
100054
99781.6
99496.7
99199.9
98892.3
98572.3
98239.7
97896.7
97540.7
97167.2
96778.3
96379.4
95972.1
95554.8
95127
94690
94246.8
93801.1
93354.3
92908
92469.3
92033.4
91592.4
91162.9
90740.5
90319.6
89895.7
89477.5
89073.4
88685.8
88316.8
87968
87640.5
87334.7
87051.1
86790.7
86553.3
86337.2
86140.1
85961.8
85802.6
85662.7
85542
85438.6
85351.7
85279.8
85222.3
85180.2
85152.8
85140
85139
85150
85173.2
85205.9
85246.8
85294.5
85349.6
85412.7
85484
85562.9
85647.7
85730.4
85822.1
85911.8
85999.6
86087.3
86174
86263
86351.6
86440.9
86530.2
86615.4
86695.6
86775.4
86852.7
86927.1
87002
87079
87156.3
87234.5
87318
87412.9
87517.3
87625.6
87734.2
87840.3
87938.4
88031.6
88111.7
88150.5
88133.4
88084.9
87998.1
87839.3
87604
87283.9
86873.8
86390.4
85850.9
85258.6
84648.8
84031.9
83412.7
82819.4
82254.2
81694.4
81195.9
80755.6
80338.8
79993.6
79712.2
79480
79320.7
79231.1
79191.9
79219.7
79309.7
79479.4
79703.5
79996.7
80324.8
80700.6
81158.3
81685
82241.7
82798.5
83325.6
83806
84244.6
84645.3
85001.8
85307.7
85572.1
85815
86054.2
86326.3
103901
103900
103898
103896
103893
103890
103885
103879
103872
103862
103851
103837
103820
103800
103777
103751
103722
103690
103655
103617
103574
103525
103471
103411
103345
103272
103193
103108
103017
102919
102815
102703
102583
102454
102316
102168
102010
101841
101661
101468
101261
101041
100809
100567
100313
100047
99769.4
99479.4
99178.7
98867.3
98542.1
98206.1
97861.1
97500.8
97123.2
96733.4
96334.6
95926.2
95508
95080
94644.3
94203
93761.7
93321.2
92888.5
92451.6
92014.3
91588.5
91166.8
90747
90324.2
89906.8
89503.7
89116.7
88747.5
88397.8
88068.1
87758.8
87471.6
87207.1
86964.7
86742.8
86540.5
86357.5
86194.6
86051
85925.6
85817.9
85726.3
85650.3
85589.7
85543.9
85512.3
85494.2
85488
85493.9
85513.9
85546
85588.1
85637.9
85693.9
85755.8
85826.2
85903.3
85988.4
86075.1
86163.8
86253.3
86339.8
86428.1
86514
86602.7
86687.7
86775.1
86862.6
86944
87022.1
87099.7
87173.8
87244
87314.6
87388.1
87463.1
87537.8
87614
87696.8
87790.4
87891.3
87992.8
88091.6
88182.9
88261.1
88325.1
88366.1
88359.6
88299.8
88193.2
88032.4
87796.4
87485.8
87070.5
86594.2
86067.2
85485.2
84876.9
84280.9
83684.6
83103.2
82548.9
82006.9
81512.9
81084.5
80679.4
80333.9
80052.8
79817.3
79648.6
79546
79494.2
79511.5
79603.3
79747.4
79952.4
80224.8
80534.4
80896.8
81346.9
81866.7
82412.8
82948.7
83458.3
83938.2
84358.8
84756.4
85118
85427.9
85701.4
85951.4
86202
86482.9
103921
103921
103920
103920
103919
103918
103916
103914
103910
103905
103898
103888
103876
103862
103845
103825
103802
103777
103748
103716
103679
103637
103589
103535
103474
103407
103334
103255
103169
103078
102980
102875
102762
102641
102510
102368
102216
102055
101882
101697
101497
101284
101060
100825
100579
100321
100051
99768.9
99475.5
99173.2
98858.2
98529.8
98193.7
97846.2
97482.5
97104.6
96715.9
96317.2
95908.6
95490.6
95064.7
94631.8
94195.7
93760.9
93330.2
92899.5
92466.2
92044
91623.9
91204.7
90783.9
90367.9
89965.6
89579.5
89210.6
88860.4
88528.9
88217.4
87927.4
87659.3
87412
87184.5
86977.4
86790.9
86624.5
86476.8
86346.6
86234.4
86139.5
86060.3
85996.3
85946.6
85910.1
85887.1
85876.8
85877.3
85891.4
85920.3
85962
86013.7
86071.9
86136
86205.5
86282.9
86367.2
86454.5
86543.5
86632.5
86718.7
86805.8
86892.1
86979.9
87065
87152.3
87236.8
87316.2
87392.9
87465.4
87532.3
87597.1
87662
87729
87799.6
87871.9
87944.5
88018.1
88098.9
88189.1
88282.7
88373.4
88458
88528.3
88578.6
88602.4
88598.9
88544.2
88429.4
88259.1
88014.3
87703.7
87301.8
86834.8
86314.5
85749
85150
84565.2
83986.9
83416.4
82872.6
82349.2
81859.6
81436.1
81043.3
80699.5
80412.2
80177.8
80004.7
79883.5
79825.5
79832.4
79922.3
80038.2
80218.8
80475.9
80769
81114
81563
82071.5
82597.7
83117.2
83612.1
84088.1
84493.2
84888.6
85252.3
85566.5
85848.2
86104.2
86370.7
86655.1
103922
103922
103923
103924
103926
103928
103929
103931
103931
103931
103930
103926
103921
103912
103902
103888
103872
103854
103832
103807
103776
103740
103699
103651
103596
103535
103468
103395
103317
103232
103142
103044
102939
102824
102701
102566
102420
102264
102098
101921
101731
101527
101311
101084
100846
100597
100336
100064
99779.3
99485.2
99181.4
98863.9
98536
98199.7
97850.3
97486.6
97110.9
96724
96326.3
95918.9
95503
95080
94651.2
94222.1
93794.6
93369.5
92943.5
92525.5
92110.9
91692.3
91273.2
90859.6
90457.7
90072.5
89704.8
89354.9
89022.4
88708.6
88415.8
88144.5
87893.2
87661.8
87450.6
87260.3
87089.3
86936.7
86802.4
86686
86587.2
86504
86436.5
86383.7
86344.3
86318.9
86307.1
86304.9
86312.9
86335.4
86372.9
86424.2
86485.9
86552.3
86623.1
86700.5
86782.1
86870.4
86959.8
87047.7
87133.3
87219.1
87305.3
87392.4
87478.6
87566.9
87650.7
87730.1
87807.2
87877.3
87938.8
87996.2
88051.9
88107.9
88169.8
88238.2
88308.1
88376.3
88446.7
88522.8
88606.4
88687.7
88765
88827.2
88869.5
88881.7
88858.6
88806.6
88694.4
88521.2
88275.9
87940.7
87560.8
87109.8
86598.1
86044.4
85462.4
84886.3
84320.9
83761.2
83226.4
82718.5
82236
81812
81430.2
81087.5
80794.7
80562
80382.7
80245.6
80182.3
80184.8
80254.7
80349.7
80501.6
80747.3
81025.8
81354.2
81807.9
82298.9
82797.1
83304.1
83789.6
84248.4
84657.2
85047.3
85403.6
85722.5
86006.7
86275.6
86558.4
86851.4
103896
103897
103899
103903
103908
103913
103919
103925
103931
103937
103942
103945
103946
103946
103942
103937
103928
103917
103902
103883
103860
103831
103797
103756
103709
103656
103596
103531
103460
103382
103298
103208
103108
103000
102884
102757
102619
102470
102309
102138
101956
101762
101556
101339
101110
100870
100619
100357
100084
99799.7
99506.2
99201.1
98884.9
98560.1
98224
97874.8
97513.5
97140.2
96755.5
96360.3
95956
95543.6
95124.3
94702.2
94279.7
93859
93440.4
93024.3
92624.2
92209.4
91791.3
91379.1
90978.3
90593.7
90227.3
89878.8
89546.8
89231.4
88936
88662
88407.9
88173.1
87958.3
87763.6
87587.6
87429.9
87290.8
87170
87066.7
86979.4
86909
86855.1
86814.9
86786.9
86773.6
86771.1
86777.4
86794.2
86824.3
86871.5
86934.5
87003
87076.7
87151.7
87235.4
87324.3
87413
87499.6
87584
87668.5
87755.6
87843.2
87931.5
88019.6
88103.6
88183.9
88260.7
88328.4
88385.8
88439.9
88489.7
88533.7
88582
88640.8
88704.7
88769.5
88832.7
88897.4
88967.8
89038
89105.9
89159.2
89193.5
89200.7
89168.2
89095
88985.2
88812.9
88575.6
88246.7
87864.2
87424.1
86924.2
86382
85813.7
85243.3
84685.5
84134.5
83607.3
83111.5
82638.5
82215.6
81839.6
81498.1
81205
80971.9
80779.8
80633.7
80565.5
80561
80601.5
80679.3
80799.4
81031.6
81273.6
81628.2
82086.9
82550.1
83024
83520.8
83992.8
84423
84849.9
85234.9
85576.5
85895.7
86177.9
86468
86763.8
87070.1
103836
103838
103843
103850
103859
103869
103880
103892
103904
103917
103929
103940
103949
103957
103962
103964
103964
103961
103954
103943
103928
103907
103881
103848
103810
103765
103713
103656
103592
103522
103445
103361
103268
103167
103056
102935
102804
102661
102509
102346
102171
101986
101790
101583
101365
101137
100897
100646
100383
100111
99828.3
99535.8
99232.3
98920.1
98598.8
98265.6
97919.9
97561.8
97191.3
96809.8
96418.6
96018.4
95610.1
95196.9
94780.9
94365
93952.8
93544.5
93147.9
92748.2
92336.1
91925.4
91525.4
91141.4
90776.5
90429.8
90098.6
89782.9
89485.8
89209.7
88953.7
88716.4
88498.5
88299.6
88119.4
87957.7
87814.4
87688.5
87579.9
87489.1
87416.5
87361.6
87321.6
87291.9
87276.8
87274.5
87282.3
87297.1
87320
87361.7
87422.6
87493.2
87566.8
87642.2
87727.3
87816.1
87903.7
87989.2
88073
88158
88246.2
88334.9
88425.6
88513
88599
88679.7
88754
88818.4
88874
88922.8
88969.3
89008.1
89045
89086.8
89140.4
89199.3
89256.7
89313.4
89370.3
89428.3
89483.8
89528.4
89553.4
89552.1
89515
89429.3
89308.2
89130.3
88907.4
88585.5
88205.6
87767.3
87276.8
86747.1
86191.7
85627.7
85075.3
84532.3
84013.3
83525.7
83062.3
82644.4
82270.3
81931.8
81640.6
81403.4
81198.3
81049.8
80977.7
80954.2
80969.3
81029.2
81114.1
81268
81509
81943.1
82405.2
82843.8
83313.5
83806.3
84244.4
84647.1
85075.4
85451.7
85780.3
86093.4
86381.7
86682.3
86990.5
87305.4
103736
103740
103746
103757
103771
103788
103807
103825
103846
103866
103887
103907
103925
103942
103956
103968
103977
103982
103985
103982
103975
103964
103946
103922
103891
103855
103812
103762
103707
103644
103573
103496
103410
103315
103211
103097
102972
102837
102692
102538
102373
102197
102011
101815
101607
101390
101162
100924
100675
100415
100144
99864.7
99575.6
99276.6
98969.3
98652.8
98324.6
97983.7
97629.7
97263.5
96886.5
96499.8
96104.3
95702
95294.6
94885.5
94479.1
94077.4
93686.3
93302.5
92900.7
92496.4
92098.8
91715
91350.6
91005.5
90676.2
90360.8
90062.8
89785.2
89527.5
89288.8
89068.3
88866.7
88683.2
88518.2
88371.2
88241.1
88129.3
88036.7
87961.7
87904.3
87864
87835.9
87819.8
87816.8
87825.2
87840.7
87859.3
87895.9
87954
88022.8
88093.3
88173.2
88257.9
88346.5
88434.1
88518.7
88603.5
88689.5
88778.7
88869.1
88961.5
89051.2
89140.3
89220.7
89289.4
89350.9
89406.8
89448.6
89488.4
89525.1
89557.2
89583.2
89622.6
89669.9
89721.3
89771.4
89817
89863.3
89903.4
89937.2
89950.7
89937.5
89895
89802
89665.4
89476.1
89239.5
88934.6
88566.5
88131.1
87649.2
87132.1
86585.9
86029.1
85485.2
84951.9
84443
83959.8
83506.1
83095.4
82721
82387.5
82098.3
81854.4
81642.2
81493.7
81413.6
81365
81359.4
81401.7
81463.5
81597.8
81893
82328.4
82768.9
83191.9
83661
84140.9
84547.5
84931
85336.1
85697.5
86020.4
86326.5
86618.9
86925.2
87239.4
87551.5
103587
103594
103603
103616
103636
103661
103689
103718
103748
103778
103808
103839
103868
103895
103920
103942
103961
103977
103989
103996
103998
103996
103987
103972
103950
103924
103889
103847
103799
103744
103681
103611
103531
103442
103345
103238
103120
102994
102857
102712
102556
102391
102216
102030
101834
101628
101413
101187
100952
100706
100450
100184
99910.4
99627
99334
99033
98722.9
98401.1
98065.4
97716.2
97355.4
96984.2
96603.1
96213.2
95816.8
95416.7
95017.2
94622
94235.6
93859.9
93479.7
93084.6
92694
92312
91947
91602.8
91276
90962.6
90664.8
90386.7
90128.3
89887.8
89664.9
89460.6
89274.7
89107.2
88957.5
88825.4
88712.6
88619.2
88541.6
88480
88438.2
88412.6
88398.1
88394.5
88403.6
88423.7
88432.4
88470.1
88527.4
88593.2
88664.9
88743.6
88827.3
88915.8
89003.4
89088.5
89174.7
89260.8
89350.8
89443.6
89537.3
89628.2
89720.2
89801.6
89866.6
89925.5
89984.4
90022.7
90052.9
90083.8
90112.5
90130.7
90154.9
90187
90229.9
90272.2
90309.1
90344.1
90369.3
90389.1
90387.9
90362.4
90308
90210.1
90061.7
89860.3
89594.4
89294.6
88926.1
88509.3
88041.2
87536.4
86999.4
86454.9
85915.5
85393.9
84894.7
84416.2
83972.8
83565.9
83191.6
82862.2
82575.9
82325.1
82113.1
81963.4
81868
81798.4
81772.3
81801.5
81882.1
82066.4
82398
82764.4
83168.1
83591.2
84051.2
84498.9
84882.2
85254.7
85624.3
85975.9
86297.4
86596
86888
87199.2
87509.2
87821.2
103385
103393
103403
103423
103448
103481
103519
103560
103603
103646
103689
103731
103772
103811
103848
103882
103913
103939
103962
103980
103993
103999
104001
103996
103984
103965
103940
103907
103867
103820
103764
103700
103627
103545
103454
103353
103244
103127
103001
102865
102719
102564
102399
102224
102040
101847
101645
101434
101213
100981
100741
100491
100232
99965.8
99689.6
99404.1
99110.9
98808.4
98493.2
98163.6
97821.1
97467.2
97102.1
96726.7
96343.1
95954.3
95564.5
95176.5
94795.5
94424.8
94056.5
93682.6
93305.5
92926.2
92563.4
92219.8
91894.9
91584.2
91288.2
91011.6
90753.6
90512.5
90287.8
90080.7
89892.9
89724
89574.2
89441.9
89327.3
89231
89150.9
89085.5
89041.3
89017.3
89005.6
89001.1
89011.1
89031.7
89046.7
89084.8
89139.3
89203.1
89274
89351.3
89434.6
89523.4
89612.4
89698.6
89785.4
89871.9
89963
90058.5
90154.3
90244.4
90335.5
90418.1
90484.2
90540.2
90597.5
90639.5
90667.3
90688.6
90710.7
90726.5
90737.9
90755.4
90786.4
90818.2
90847.8
90871.7
90885
90888.9
90873.4
90835.7
90765.5
90660.4
90502.7
90293.7
90025.6
89712.5
89337.6
88926
88469.3
87972
87445.6
86912.8
86379
85866.3
85371.7
84898.8
84468.1
84060.2
83688.1
83368
83075.3
82821.3
82616
82459.2
82342.1
82258.1
82221.3
82262.8
82361.1
82553.9
82863.7
83210.7
83591.3
84019.1
84461.2
84866.9
85246.6
85613.2
85950.5
86292.9
86609.1
86899.6
87191.8
87502.9
87804.7
88125.9
103163
103171
103186
103210
103243
103284
103332
103385
103440
103496
103552
103607
103661
103712
103760
103805
103846
103882
103914
103942
103963
103978
103988
103991
103987
103977
103959
103933
103899
103858
103808
103750
103684
103608
103524
103431
103330
103221
103102
102975
102837
102691
102535
102371
102199
102018
101828
101628
101420