/*--------------------------------*- C++ -*----------------------------------*\
| =========                 |                                                 |
| \\      /  F ield         | OpenFOAM: The Open Source CFD Toolbox           |
|  \\    /   O peration     | Version:  dev                                   |
|   \\  /    A nd           | Web:      http://www.openfoam.org               |
|    \\/     M anipulation  |                                                 |
\*---------------------------------------------------------------------------*/
FoamFile
{
    version     2.0;
    format      ascii;
    class       surfaceScalarField;
    object      phi;
    location    "9.128";
}
// * * * * * * * * * * * * * * * * * * * * * * * * * * * * * * * * * * * * * //

dimensions      [1 0 -1 0 0 0 0];

internalField   nonuniform List<scalar> 
24170
(
2.0441e-06
1.74432e-06
1.16824e-06
1.29796e-06
7.0638e-07
8.35945e-07
4.77779e-07
5.69013e-07
1.58039e-07
6.19144e-07
4.12002e-09
4.23631e-07
-3.90172e-07
6.27927e-07
-5.86745e-07
4.04635e-07
-1.03113e-06
6.24065e-07
-1.2635e-06
3.91017e-07
-1.78764e-06
6.68497e-07
-1.99355e-06
3.28635e-07
-2.81102e-06
9.41022e-07
-2.5825e-06
-1.11638e-07
-4.088e-06
1.63172e-06
-4.23741e-06
2.54492e-07
-5.32178e-06
1.25519e-06
4.44962e-06
-9.61417e-06
3.78294e-06
2.16747e-06
3.17114e-06
2.3172e-06
2.80353e-06
1.56764e-06
2.444e-06
1.2582e-06
2.15136e-06
1.20331e-06
1.97359e-06
8.60094e-07
1.69582e-06
1.13038e-06
1.51417e-06
7.84604e-07
1.22541e-06
1.08508e-06
1.09628e-06
6.7371e-07
5.91635e-07
1.31293e-06
7.98638e-07
2.45926e-07
-1.63663e-08
1.88423e-06
5.77749e-07
-5.86375e-07
-8.44735e-07
3.1923e-06
9.35827e-07
-1.40346e-06
-2.89802e-06
5.25193e-06
8.88179e-06
-7.15837e-06
4.4319e-06
2.22568e-06
4.20292e-06
2.98855e-06
4.18102e-06
1.9881e-06
3.88129e-06
1.91751e-06
3.69364e-06
1.71078e-06
3.56034e-06
1.27384e-06
3.23709e-06
1.69992e-06
3.26064e-06
9.74343e-07
2.67804e-06
1.85685e-06
3.17892e-06
3.37121e-07
2.1387e-06
2.50784e-06
2.69475e-06
-1.74879e-07
1.6796e-06
3.03816e-06
1.29e-06
-6.57146e-08
1.42718e-06
3.19223e-06
-6.52343e-07
8.10067e-07
-2.99733e-06
7.76361e-06
6.37543e-06
-2.91386e-07
4.69091e-06
2.75367e-06
5.05069e-06
3.11427e-06
5.05738e-06
2.41979e-06
5.23126e-06
2.1373e-06
4.92114e-06
2.3721e-06
5.09549e-06
1.40571e-06
4.60389e-06
2.46099e-06
4.85918e-06
9.51e-07
4.03791e-06
2.88347e-06
4.4003e-06
1.53442e-07
3.52157e-06
3.55038e-06
3.80515e-06
-3.0871e-07
2.7293e-06
4.2594e-06
3.03524e-06
-2.30278e-07
1.4604e-06
4.91971e-06
1.18673e-06
1.22771e-06
5.69302e-07
8.54138e-06
9.92398e-06
-2.79513e-06
4.92493e-06
3.48672e-06
5.8379e-06
2.73201e-06
5.64229e-06
3.09495e-06
6.13369e-06
2.07593e-06
5.74858e-06
3.14047e-06
5.93795e-06
1.5513e-06
5.42199e-06
3.27015e-06
5.56063e-06
1.06603e-06
4.85229e-06
3.81352e-06
4.75203e-06
4.49714e-07
4.34439e-06
4.13514e-06
3.88815e-06
3.11331e-07
3.18982e-06
5.11003e-06
3.02639e-06
8.78594e-08
9.14291e-07
7.18165e-06
3.07483e-06
-7.77362e-07
2.4424e-06
9.35922e-06
1.16094e-05
9.30384e-07
5.3708e-06
4.27611e-06
6.00859e-06
2.67307e-06
5.74235e-06
3.88438e-06
6.17615e-06
2.11113e-06
5.87306e-06
3.86218e-06
6.08076e-06
1.70851e-06
5.64561e-06
4.02546e-06
5.76272e-06
1.2255e-06
5.16154e-06
4.65758e-06
4.93563e-06
8.86069e-07
4.41838e-06
4.84704e-06
3.84722e-06
1.05581e-06
3.3227e-06
5.80175e-06
2.72956e-06
8.40827e-07
1.62242e-06
8.44349e-06
2.38689e-06
-1.37133e-06
2.17365e-06
9.74586e-06
9.80092e-06
4.15341e-06
6.20452e-06
5.00635e-06
6.5613e-06
2.94604e-06
6.35535e-06
4.65908e-06
6.62637e-06
2.34991e-06
6.39236e-06
4.55137e-06
6.55666e-06
1.93927e-06
6.18426e-06
4.7437e-06
6.18718e-06
1.51968e-06
5.86774e-06
5.23822e-06
5.56021e-06
1.41985e-06
5.21688e-06
5.39562e-06
4.82116e-06
1.63716e-06
4.73858e-06
6.06101e-06
3.9449e-06
1.80717e-06
5.20309e-06
7.35723e-06
1.69255e-06
2.31847e-06
4.83373e-06
6.77442e-06
8.39877e-06
6.41919e-06
4.87247e-06
5.52364e-06
5.1129e-06
3.1889e-06
4.99876e-06
5.20952e-06
5.12549e-06
2.6146e-06
5.04153e-06
4.98331e-06
5.07334e-06
2.20873e-06
4.96658e-06
5.11347e-06
4.80923e-06
1.90314e-06
4.85908e-06
5.38694e-06
4.4336e-06
2.01567e-06
4.51398e-06
5.46852e-06
4.03329e-06
2.25691e-06
4.27641e-06
5.94897e-06
3.52979e-06
2.6811e-06
4.39485e-06
6.61917e-06
2.70996e-06
4.13104e-06
3.66501e-06
5.9495e-06
7.84408e-06
4.36603e-06
5.61961e-06
6.07669e-06
5.88476e-06
3.47599e-06
5.93524e-06
5.65843e-06
6.03834e-06
2.96005e-06
6.09724e-06
5.32067e-06
5.95976e-06
2.68821e-06
6.04066e-06
5.33216e-06
5.63895e-06
2.56249e-06
5.80541e-06
5.44479e-06
5.16439e-06
2.84705e-06
5.47879e-06
5.32481e-06
4.6162e-06
3.27346e-06
5.05494e-06
5.65355e-06
4.0495e-06
3.82451e-06
4.59285e-06
6.21252e-06
3.82475e-06
5.0392e-06
3.67509e-06
6.24454e-06
7.87692e-06
3.7888e-06
6.75825e-06
6.34474e-06
6.9454e-06
3.91621e-06
7.09658e-06
6.0737e-06
6.94401e-06
3.62282e-06
7.07998e-06
5.6315e-06
6.8416e-06
3.31315e-06
7.06333e-06
5.44755e-06
6.61335e-06
3.30156e-06
6.91713e-06
5.3873e-06
6.28065e-06
3.69286e-06
6.56163e-06
5.22848e-06
5.72759e-06
4.27324e-06
6.11374e-06
5.41821e-06
5.06912e-06
5.0147e-06
5.7041e-06
5.71823e-06
4.62853e-06
6.25962e-06
4.98451e-06
6.03145e-06
7.4457e-06
5.56097e-06
7.8271e-06
6.67655e-06
7.96262e-06
4.48601e-06
8.27128e-06
6.4011e-06
8.07907e-06
4.38687e-06
8.26191e-06
5.94789e-06
7.91044e-06
4.09852e-06
8.14572e-06
5.58379e-06
7.65279e-06
4.1093e-06
7.90714e-06
5.39654e-06
7.38954e-06
4.43426e-06
7.4297e-06
5.38134e-06
6.9519e-06
4.9213e-06
6.82938e-06
5.69523e-06
6.48844e-06
5.50133e-06
6.23843e-06
6.11105e-06
6.24526e-06
6.39186e-06
5.83644e-06
6.57971e-06
7.11207e-06
6.30999e-06
9.04506e-06
7.2556e-06
8.95655e-06
5.35632e-06
9.51322e-06
6.54919e-06
9.34878e-06
5.18338e-06
9.73828e-06
6.10777e-06
9.33744e-06
4.97295e-06
9.65872e-06
5.65933e-06
9.04421e-06
5.05822e-06
9.29323e-06
5.42395e-06
8.66032e-06
5.29764e-06
8.79389e-06
5.44064e-06
8.19703e-06
5.6864e-06
8.2626e-06
5.77866e-06
7.8335e-06
6.06668e-06
7.81531e-06
6.2582e-06
7.72908e-06
6.60455e-06
7.70891e-06
6.72497e-06
7.00653e-06
7.93921e-06
1.05431e-05
7.58775e-06
1.0515e-05
6.23081e-06
1.09776e-05
6.8482e-06
1.09439e-05
5.89829e-06
1.12294e-05
6.41274e-06
1.10238e-05
5.67957e-06
1.11242e-05
5.97354e-06
1.08561e-05
5.66766e-06
1.07465e-05
5.80937e-06
1.04937e-05
5.77365e-06
1.0247e-05
5.8684e-06
1.00707e-05
6.01343e-06
9.80988e-06
6.16719e-06
9.64002e-06
6.34917e-06
9.46627e-06
6.53545e-06
9.44643e-06
6.72024e-06
9.38103e-06
6.88527e-06
6.98094e-06
9.50262e-06
1.22762e-05
7.79808e-06
1.22931e-05
7.10568e-06
1.28085e-05
7.13195e-06
1.27677e-05
6.64805e-06
1.3099e-05
6.68972e-06
1.2918e-05
6.36727e-06
1.2998e-05
6.30562e-06
1.27622e-05
6.23148e-06
1.26479e-05
6.17832e-06
1.24088e-05
6.20845e-06
1.21797e-05
6.24557e-06
1.19855e-05
6.31831e-06
1.17973e-05
6.43824e-06
1.16669e-05
6.5425e-06
1.15635e-05
6.6897e-06
1.1541e-05
6.7876e-06
1.15908e-05
6.87882e-06
6.9108e-06
1.17036e-05
1.41601e-05
8.65704e-06
1.44131e-05
7.75498e-06
1.48658e-05
7.4737e-06
1.50557e-05
7.15509e-06
1.52815e-05
7.052e-06
1.53187e-05
6.80651e-06
1.53221e-05
6.67363e-06
1.5226e-05
6.60433e-06
1.50614e-05
6.53927e-06
1.48757e-05
6.52336e-06
1.46649e-05
6.53073e-06
1.44568e-05
6.55894e-06
1.42948e-05
6.6019e-06
1.41644e-05
6.65427e-06
1.41472e-05
6.67509e-06
1.41598e-05
6.73489e-06
1.4248e-05
6.74912e-06
6.74064e-06
1.43797e-05
1.6589e-05
8.95987e-06
1.69979e-05
8.17201e-06
1.74139e-05
7.77508e-06
1.76774e-05
7.50923e-06
1.79075e-05
7.32398e-06
1.80222e-05
7.07498e-06
1.80219e-05
6.94479e-06
1.7967e-05
6.82834e-06
1.78278e-05
6.76006e-06
1.76494e-05
6.70973e-06
1.74503e-05
6.67957e-06
1.72697e-05
6.64556e-06
1.71242e-05
6.62071e-06
1.70439e-05
6.58542e-06
1.70032e-05
6.55341e-06
1.7055e-05
6.51525e-06
1.71595e-05
6.47573e-06
6.40471e-06
1.73291e-05
1.923e-05
8.94619e-06
1.98626e-05
8.17652e-06
2.03942e-05
7.77954e-06
2.07972e-05
7.54448e-06
2.11369e-05
7.30542e-06
2.13458e-05
7.06539e-06
2.14861e-05
6.88745e-06
2.15671e-05
6.72503e-06
2.15775e-05
6.63705e-06
2.1534e-05
6.56578e-06
2.14656e-05
6.50177e-06
2.13677e-05
6.45248e-06
2.12599e-05
6.40573e-06
2.11633e-05
6.33855e-06
2.11103e-05
6.2517e-06
2.10728e-05
6.19395e-06
2.10907e-05
6.10211e-06
6.00101e-06
2.11471e-05
1.93587e-05
8.79256e-06
1.99596e-05
7.87046e-06
2.05283e-05
7.41704e-06
2.1009e-05
7.18902e-06
2.14129e-05
6.92888e-06
2.17259e-05
6.67643e-06
2.19717e-05
6.46758e-06
2.21497e-05
6.28449e-06
2.22739e-05
6.17379e-06
2.23406e-05
6.09742e-06
2.23455e-05
6.04581e-06
2.23112e-05
5.99879e-06
2.2251e-05
5.95316e-06
2.21799e-05
5.88188e-06
2.21098e-05
5.78982e-06
2.20885e-05
5.68536e-06
2.20935e-05
5.57594e-06
5.43922e-06
2.21472e-05
1.72676e-05
8.05786e-06
1.79414e-05
7.17551e-06
1.85144e-05
6.75066e-06
1.90239e-05
6.52999e-06
1.94153e-05
6.31973e-06
1.96929e-05
6.10708e-06
1.98864e-05
5.91127e-06
2.00041e-05
5.73831e-06
2.00579e-05
5.63406e-06
2.00902e-05
5.53384e-06
2.01116e-05
5.4583e-06
2.01213e-05
5.39888e-06
2.01474e-05
5.32291e-06
2.01831e-05
5.23643e-06
2.02289e-05
5.13694e-06
2.0285e-05
5.03e-06
2.03521e-05
4.92195e-06
4.79434e-06
2.04256e-05
1.54777e-05
7.15154e-06
1.60892e-05
6.32324e-06
1.66116e-05
5.94014e-06
1.70481e-05
5.77099e-06
1.7384e-05
5.61272e-06
1.76146e-05
5.45122e-06
1.77833e-05
5.26408e-06
1.78693e-05
5.12564e-06
1.79547e-05
4.98075e-06
1.80201e-05
4.86997e-06
1.81221e-05
4.73533e-06
1.82313e-05
4.65374e-06
1.83375e-05
4.57466e-06
1.8428e-05
4.50338e-06
1.84814e-05
4.44737e-06
1.85247e-05
4.36076e-06
1.85641e-05
4.27008e-06
4.16871e-06
1.8594e-05
1.38754e-05
6.49836e-06
1.43206e-05
5.51026e-06
1.47764e-05
5.08344e-06
1.52114e-05
4.91397e-06
1.55695e-05
4.79802e-06
1.58673e-05
4.65689e-06
1.60549e-05
4.53963e-06
1.61983e-05
4.41086e-06
1.62847e-05
4.29404e-06
1.63213e-05
4.21171e-06
1.63461e-05
4.07464e-06
1.63713e-05
3.98366e-06
1.64055e-05
3.89408e-06
1.64523e-05
3.81324e-06
1.65137e-05
3.75095e-06
1.65679e-05
3.68274e-06
1.6628e-05
3.601e-06
3.5004e-06
1.67039e-05
1.24383e-05
5.41634e-06
1.28631e-05
4.65608e-06
1.33312e-05
4.15853e-06
1.37916e-05
3.98222e-06
1.41742e-05
3.91829e-06
1.44747e-05
3.82957e-06
1.46836e-05
3.77455e-06
1.48255e-05
3.68795e-06
1.49217e-05
3.59699e-06
1.50043e-05
3.51298e-06
1.504e-05
3.41395e-06
1.50884e-05
3.30603e-06
1.5107e-05
3.24676e-06
1.51217e-05
3.17569e-06
1.51347e-05
3.12374e-06
1.51624e-05
3.05347e-06
1.51966e-05
2.97956e-06
2.88795e-06
1.52378e-05
1.10596e-05
4.3986e-06
1.15867e-05
3.67375e-06
1.19756e-05
3.29246e-06
1.23029e-05
3.16834e-06
1.26148e-05
3.10085e-06
1.28824e-05
3.03491e-06
1.30779e-05
3.03061e-06
1.32442e-05
2.95497e-06
1.33813e-05
2.87834e-06
1.34807e-05
2.82197e-06
1.355e-05
2.74762e-06
1.36127e-05
2.64495e-06
1.36702e-05
2.59399e-06
1.37116e-05
2.54545e-06
1.37537e-05
2.50277e-06
1.37947e-05
2.44594e-06
1.38394e-05
2.38226e-06
2.29726e-06
1.38929e-05
1.01791e-05
3.34833e-06
1.05338e-05
2.8665e-06
1.08123e-05
2.54104e-06
1.10405e-05
2.46169e-06
1.12649e-05
2.38521e-06
1.15007e-05
2.29168e-06
1.17635e-05
2.2441e-06
1.1977e-05
2.20344e-06
1.21418e-05
2.16445e-06
1.22621e-05
2.14634e-06
1.23376e-05
2.11404e-06
1.2365e-05
2.06059e-06
1.23793e-05
2.0267e-06
1.2389e-05
1.98982e-06
1.2411e-05
1.94433e-06
1.24413e-05
1.89032e-06
1.24792e-05
1.83222e-06
1.76076e-06
1.25172e-05
8.73851e-06
2.63508e-06
9.22834e-06
1.94138e-06
9.68437e-06
1.63226e-06
1.00636e-05
1.62631e-06
1.03626e-05
1.62076e-06
1.05781e-05
1.59912e-06
1.07465e-05
1.58649e-06
1.0853e-05
1.5971e-06
1.09328e-05
1.57648e-06
1.10141e-05
1.55162e-06
1.10706e-05
1.543e-06
1.11243e-05
1.49347e-06
1.11838e-05
1.45819e-06
1.12407e-05
1.43106e-06
1.12982e-05
1.39389e-06
1.13511e-05
1.35561e-06
1.14058e-05
1.30783e-06
1.24593e-06
1.14643e-05
7.96168e-06
1.78161e-06
8.43763e-06
1.05733e-06
8.79687e-06
8.50263e-07
9.07659e-06
9.22107e-07
9.30334e-06
9.62846e-07
9.47408e-06
9.87139e-07
9.60681e-06
1.00286e-06
9.71931e-06
1.02552e-06
9.78723e-06
1.04319e-06
9.84124e-06
1.0289e-06
9.92221e-06
9.92896e-07
9.94727e-06
1.00156e-06
9.97128e-06
9.71979e-07
1.00013e-05
9.45686e-07
1.0024e-05
9.24568e-07
1.00392e-05
9.0413e-07
1.00387e-05
8.83706e-07
8.47645e-07
1.00246e-05
7.19183e-06
9.18543e-07
7.61512e-06
2.5976e-07
7.89665e-06
1.79673e-07
8.11824e-06
3.10711e-07
8.27027e-06
4.15128e-07
8.37196e-06
4.82794e-07
8.43248e-06
5.32081e-07
8.46087e-06
5.80376e-07
8.48412e-06
5.98239e-07
8.48472e-06
6.04214e-07
8.43979e-06
6.14334e-07
8.40848e-06
6.11636e-07
8.36032e-06
6.03756e-07
8.29697e-06
5.99276e-07
8.22944e-06
5.90664e-07
8.14778e-06
5.93709e-07
8.05671e-06
5.93079e-07
5.81734e-07
7.95223e-06
6.44418e-06
4.43214e-08
6.86908e-06
-5.05354e-07
7.04516e-06
-3.5026e-07
7.11157e-06
-1.10357e-07
7.09441e-06
7.34131e-08
7.01846e-06
1.94324e-07
6.89523e-06
2.84875e-07
6.77185e-06
3.27923e-07
6.62803e-06
3.62505e-07
6.47552e-06
3.75536e-07
6.33236e-06
3.76518e-07
6.16898e-06
3.9685e-07
6.00175e-06
3.9726e-07
5.84083e-06
3.92389e-07
5.68008e-06
3.9081e-07
5.51573e-06
4.05505e-07
5.35793e-06
4.07544e-07
4.19147e-07
5.18654e-06
5.64444e-06
-6.98269e-07
5.58633e-06
-7.51805e-07
5.3092e-06
-3.90126e-07
5.02384e-06
-1.42614e-07
4.74265e-06
3.33615e-08
4.48183e-06
1.28953e-07
4.26497e-06
1.70154e-07
4.07492e-06
1.81617e-07
3.90948e-06
1.88272e-07
3.74876e-06
1.95075e-07
3.58869e-06
1.95539e-07
3.44431e-06
2.02271e-07
3.30195e-06
2.04182e-07
3.15766e-06
2.06404e-07
3.01913e-06
2.04988e-07
2.88929e-06
2.18122e-07
2.77617e-06
2.11033e-07
2.35652e-07
2.65747e-06
3.72147e-06
2.74915e-06
2.12435e-06
1.73971e-06
1.52316e-06
1.39446e-06
1.2998e-06
1.21019e-06
1.12188e-06
1.03647e-06
9.49171e-07
8.67942e-07
7.89561e-07
7.15824e-07
6.44224e-07
5.90381e-07
5.34709e-07
5.09339e-07
2.41238e-07
3.65052e-07
4.38036e-07
4.31038e-07
5.99784e-07
4.53961e-07
7.80042e-07
4.31393e-07
9.74111e-07
4.21355e-07
1.1619e-06
4.31799e-07
1.33743e-06
4.45568e-07
1.49155e-06
4.68196e-07
1.62748e-06
4.85559e-07
1.72718e-06
5.21278e-07
1.78989e-06
5.56448e-07
1.85034e-06
5.57288e-07
1.91965e-06
5.47394e-07
1.96494e-06
5.70746e-07
1.99384e-06
5.86425e-07
2.03107e-06
5.77459e-07
2.02452e-06
6.20396e-07
1.9706e-06
6.67441e-07
1.88932e-06
6.94486e-07
1.78847e-06
7.1318e-07
1.68602e-06
7.13614e-07
1.5593e-06
7.36291e-07
1.4279e-06
7.39172e-07
1.26993e-06
7.6402e-07
1.08537e-06
7.89285e-07
8.76657e-07
8.12446e-07
6.58778e-07
8.20615e-07
4.4569e-07
8.14888e-07
2.75517e-07
7.7096e-07
2.03642e-07
6.7176e-07
2.58298e-07
5.44564e-07
4.84013e-07
3.73028e-07
9.10479e-07
1.71877e-07
1.55489e-06
-4.64086e-08
2.35474e-06
-2.01781e-07
3.23435e-06
-2.81606e-07
4.13527e-06
-3.06953e-07
5.05484e-06
-3.27089e-07
5.93352e-06
-2.87253e-07
6.76594e-06
-2.43014e-07
7.51571e-06
-1.63346e-07
8.17629e-06
-7.61075e-08
8.80728e-06
-4.93433e-08
9.38769e-06
-3.23199e-09
9.87429e-06
8.38786e-08
1.03965e-05
4.07204e-08
1.0994e-05
-4.19733e-08
1.15596e-05
-1.78651e-08
1.20568e-05
4.05147e-08
1.2632e-05
-5.21444e-08
1.31896e-05
-5.66676e-08
1.35183e-05
1.49299e-07
1.36431e-05
3.37571e-07
1.36512e-05
4.32773e-07
1.34195e-05
6.27632e-07
1.27354e-05
1.03608e-06
1.16809e-05
1.4038e-06
1.05971e-05
1.45467e-06
9.69072e-06
1.27834e-06
8.87324e-06
1.16066e-06
8.15926e-06
1.0182e-06
7.64758e-06
7.9456e-07
7.16216e-06
7.60233e-07
6.59608e-06
8.29505e-07
6.03342e-06
8.08674e-07
5.50682e-06
7.53066e-07
5.00736e-06
7.1123e-07
4.67363e-06
5.40866e-07
4.80334e-06
7.60811e-08
5.34638e-06
-3.34781e-07
5.90203e-06
-3.42835e-07
6.16475e-06
-3.84318e-08
5.86682e-06
5.3487e-07
4.95014e-06
1.17864e-06
3.58156e-06
1.67358e-06
2.16987e-06
1.76834e-06
1.25558e-06
1.3046e-06
1.08239e-06
5.93133e-07
1.30639e-06
2.30591e-07
1.35839e-06
4.40927e-07
9.63228e-07
9.46324e-07
2.15575e-08
1.5715e-06
-1.36934e-06
2.09541e-06
-3.02036e-06
2.41503e-06
-4.72017e-06
2.51386e-06
-6.33127e-06
2.47365e-06
-7.76084e-06
2.34678e-06
-8.99297e-06
2.21311e-06
-1.00453e-05
2.08781e-06
-1.08966e-05
1.92269e-06
-1.15983e-05
1.80988e-06
-1.21417e-05
1.70274e-06
-1.24842e-05
1.54898e-06
-1.26533e-05
1.39945e-06
-1.26415e-05
1.22687e-06
-1.24384e-05
1.04247e-06
-1.20098e-05
8.24299e-07
-1.13432e-05
5.81041e-07
-1.05612e-05
4.42267e-07
-9.89697e-06
5.50947e-07
-9.47247e-06
8.18612e-07
-8.99365e-06
7.7155e-07
-7.94867e-06
1.46474e-07
-5.84772e-06
-1.00601e-06
-5.54397e-06
8.27531e-07
-3.30512e-06
-1.13562e-06
-2.07656e-06
-2.08813e-07
-1.08727e-06
1.4798e-08
9.53902e-08
-2.17146e-07
1.28194e-06
-2.57457e-07
2.43433e-06
-2.61001e-07
3.51319e-06
-2.23889e-07
4.48835e-06
-1.56029e-07
5.40155e-06
-1.26708e-07
6.22475e-06
-6.8967e-08
6.99924e-06
-5.43334e-08
7.71038e-06
-2.88475e-08
8.35582e-06
3.70206e-09
8.92699e-06
3.58621e-08
9.46322e-06
2.83058e-08
9.92175e-06
8.27434e-08
1.03236e-05
1.21962e-07
1.07121e-05
9.72447e-08
1.10647e-05
1.07105e-07
1.13952e-05
1.35713e-07
1.17945e-05
4.94119e-08
1.22585e-05
-7.16061e-08
1.27962e-05
-1.98545e-07
1.33702e-05
-2.83151e-07
1.39363e-05
-3.26223e-07
1.45762e-05
-4.84231e-07
1.52651e-05
-6.45204e-07
1.59452e-05
-7.67697e-07
1.6692e-05
-9.85192e-07
1.75235e-05
-1.21636e-06
1.84236e-05
-1.49093e-06
1.90771e-05
-1.54266e-06
1.94509e-05
-1.57146e-06
1.9572e-05
-1.65197e-06
1.92328e-05
-1.55472e-06
1.8243e-05
-1.26132e-06
1.65091e-05
-8.51027e-07
1.42534e-05
-6.25102e-07
1.16503e-05
-5.68301e-07
9.01955e-06
-8.1003e-07
6.49251e-06
-1.1071e-06
4.19274e-06
-1.48597e-06
2.11115e-06
-1.71685e-06
1.71361e-07
-1.87732e-06
-1.83547e-06
-1.75017e-06
-3.52585e-06
-1.99111e-06
-5.3587e-06
-1.72082e-06
-6.51865e-06
-2.27981e-06
-7.92083e-06
-1.88755e-06
-8.71671e-06
-2.37794e-06
-9.35569e-06
-2.36083e-06
-9.66376e-06
-2.54934e-06
-9.25702e-06
-3.15734e-06
-8.86274e-06
-2.99753e-06
-8.58783e-06
-2.71296e-06
-8.11079e-06
-2.76419e-06
-7.69634e-06
-2.53136e-06
-7.23999e-06
-2.38633e-06
-7.08569e-06
-1.87836e-06
-7.00315e-06
-1.57135e-06
-7.04172e-06
-1.21469e-06
-7.1355e-06
-8.95179e-07
-7.21002e-06
-6.47013e-07
-7.28836e-06
-3.79094e-07
-7.12934e-06
-3.51417e-07
-6.90732e-06
-1.48021e-07
-6.51094e-06
-4.67417e-08
-6.06975e-06
1.44031e-07
-5.89984e-06
6.0902e-07
-5.48286e-06
5.46448e-07
-4.95822e-06
5.56278e-07
-4.34662e-06
5.24823e-07
-3.43328e-06
2.75232e-07
-2.76348e-06
6.28661e-07
2.54518e-07
-1.61929e-06
1.11498e-07
8.57663e-07
1.82998e-07
9.76981e-07
2.58352e-07
9.75251e-07
3.30429e-07
9.56586e-07
4.04885e-07
9.51357e-07
4.70675e-07
9.77968e-07
5.28832e-07
9.99457e-07
5.61228e-07
1.05057e-06
5.52244e-07
1.11074e-06
5.77004e-07
1.11496e-06
6.7731e-07
1.07828e-06
7.42058e-07
1.11938e-06
7.02012e-07
1.21611e-06
6.91458e-07
1.21099e-06
6.38459e-07
1.27048e-06
4.61189e-07
1.38374e-06
3.16532e-07
1.39551e-06
1.29626e-07
1.48356e-06
-3.98999e-08
1.49109e-06
-1.88688e-07
1.48762e-06
-3.50872e-07
1.49847e-06
-4.95068e-07
1.50284e-06
-7.14473e-07
1.57795e-06
-9.46075e-07
1.61458e-06
-1.23861e-06
1.69883e-06
-1.54471e-06
1.7338e-06
-1.85542e-06
1.74525e-06
-2.10053e-06
1.67189e-06
-2.22743e-06
1.50778e-06
-2.21501e-06
1.26573e-06
-1.98569e-06
9.20764e-07
-1.5279e-06
5.20446e-07
-8.21684e-07
6.98532e-08
8.26077e-08
-3.47728e-07
1.11875e-06
-6.34716e-07
2.21215e-06
-7.72275e-07
3.28973e-06
-7.82225e-07
4.28591e-06
-7.27056e-07
5.21872e-06
-6.23558e-07
6.07603e-06
-5.05513e-07
6.87363e-06
-3.68711e-07
7.61028e-06
-2.26027e-07
8.33046e-06
-1.86458e-07
8.95656e-06
-4.22615e-08
9.5207e-06
9.32254e-08
1.01449e-05
-2.76971e-08
1.08795e-05
-2.19727e-07
1.15694e-05
-1.41705e-07
1.2175e-05
-1.75969e-08
1.29504e-05
-3.02248e-07
1.38429e-05
-4.23944e-07
1.45102e-05
-1.54063e-08
1.49375e-05
3.5811e-07
1.52647e-05
5.16824e-07
1.55829e-05
7.37806e-07
1.58781e-05
1.1472e-06
1.59075e-05
1.69393e-06
1.56494e-05
2.03567e-06
1.49299e-05
2.34156e-06
1.3436e-05
2.91475e-06
1.15729e-05
3.13957e-06
9.887e-06
2.82285e-06
8.53597e-06
2.43291e-06
7.58641e-06
2.03787e-06
6.878e-06
1.76093e-06
6.34684e-06
1.51015e-06
5.93663e-06
1.30733e-06
5.68021e-06
9.43636e-07
5.87182e-06
3.13898e-08
6.51526e-06
-7.84841e-07
7.2658e-06
-8.67694e-07
7.68052e-06
-2.20473e-07
7.68179e-06
7.56218e-07
7.2398e-06
1.87007e-06
6.5226e-06
2.71862e-06
5.86823e-06
2.77969e-06
5.22377e-06
2.285e-06
4.02584e-06
2.19209e-06
1.97811e-06
2.79194e-06
-6.08605e-07
3.59138e-06
-3.27084e-06
4.21484e-06
-5.61061e-06
4.58258e-06
-7.60947e-06
4.8154e-06
-9.2956e-06
4.87074e-06
-1.07633e-05
4.80432e-06
-1.19458e-05
4.52104e-06
-1.29513e-05
4.22543e-06
-1.37219e-05
3.8331e-06
-1.43603e-05
3.56981e-06
-1.49263e-05
3.4027e-06
-1.52816e-05
3.22414e-06
-1.53968e-05
3.00828e-06
-1.53513e-05
2.7516e-06
-1.51397e-05
2.42418e-06
-1.46984e-05
1.98683e-06
-1.41438e-05
1.67738e-06
-1.33188e-05
1.18674e-06
-1.23948e-05
7.90371e-07
-1.13761e-05
4.74741e-07
-1.0516e-05
7.07057e-07
-9.92318e-06
1.36348e-06
-9.22989e-06
1.45125e-06
-7.71999e-06
-8.3819e-08
-5.85274e-06
-2.00776e-06
-5.18919e-06
1.24504e-06
-2.73858e-06
-2.45635e-06
-1.53158e-06
-4.69448e-07
-3.69939e-07
-1.82285e-07
8.87651e-07
-5.32649e-07
2.29608e-06
-7.49067e-07
3.64735e-06
-7.17238e-07
4.89455e-06
-6.00404e-07
6.04547e-06
-4.61792e-07
7.14187e-06
-4.00007e-07
8.19054e-06
-3.0284e-07
9.19324e-06
-2.45794e-07
1.01138e-05
-1.64195e-07
1.09873e-05
-1.25327e-07
1.17664e-05
-1.78488e-08
1.24357e-05
5.55724e-08
1.31321e-05
-2.92583e-08
1.37429e-05
-6.99116e-09
1.42709e-05
4.86467e-08
1.48047e-05
2.30102e-08
1.51953e-05
1.10587e-07
1.55653e-05
3.76795e-08
1.60492e-05
-1.74933e-07
1.66205e-05
-4.43785e-07
1.72258e-05
-6.76202e-07
1.76775e-05
-6.64515e-07
1.79355e-05
-7.00007e-07
1.83148e-05
-1.11181e-06
1.88612e-05
-1.59473e-06
1.94237e-05
-2.05701e-06
1.99228e-05
-2.31716e-06
2.06404e-05
-2.86748e-06
2.11751e-05
-3.03479e-06
2.09719e-05
-2.67466e-06
2.00407e-05
-2.33421e-06
1.83649e-05
-1.8422e-06
1.60402e-05
-1.27285e-06
1.33349e-05
-8.49977e-07
1.04226e-05
-7.92564e-07
7.42488e-06
-1.02875e-06
4.77741e-06
-1.97537e-06
2.42481e-06
-2.76638e-06
4.95839e-07
-3.73887e-06
-1.60568e-06
-3.82392e-06
-3.23568e-06
-4.46505e-06
-4.99898e-06
-4.10762e-06
-6.38825e-06
-4.6175e-06
-7.73038e-06
-4.21967e-06
-8.60272e-06
-5.07818e-06
-9.3081e-06
-4.68509e-06
-9.76773e-06
-5.28027e-06
-9.88077e-06
-5.38077e-06
-9.6715e-06
-5.61926e-06
-9.02704e-06
-6.62083e-06
-8.16924e-06
-6.54163e-06
-7.51509e-06
-5.84395e-06
-6.76198e-06
-5.81486e-06
-5.93693e-06
-5.53671e-06
-4.97528e-06
-5.37624e-06
-4.27968e-06
-4.44956e-06
-3.89379e-06
-3.61267e-06
-3.45566e-06
-3.09698e-06
-3.02247e-06
-2.51306e-06
-2.6391e-06
-1.93631e-06
-2.49822e-06
-1.14497e-06
-2.58395e-06
-6.02253e-07
-2.84983e-06
5.49817e-08
-2.94652e-06
2.6437e-07
-2.93345e-06
6.04039e-07
-2.79943e-06
1.18208e-06
-2.45219e-06
1.13826e-06
-2.01289e-06
1.23781e-06
-1.22119e-06
9.62157e-07
-3.86124e-07
6.71819e-07
4.38337e-07
1.11013e-06
3.1995e-07
1.76677e-06
4.16957e-08
1.41136e-06
-1.47946e-08
1.63624e-06
-3.16604e-08
1.58145e-06
3.75223e-08
1.49045e-06
1.70869e-07
1.421e-06
2.29697e-07
1.5253e-06
2.43964e-07
1.59815e-06
2.82205e-07
1.63313e-06
3.93082e-07
1.63052e-06
5.1583e-07
1.63462e-06
5.08231e-07
1.73357e-06
4.05505e-07
1.86679e-06
2.81031e-07
1.98403e-06
2.87657e-08
2.10087e-06
-2.8999e-07
2.22886e-06
-6.58162e-07
2.3893e-06
-9.97098e-07
2.36389e-06
-1.15425e-06
2.27162e-06
-1.28703e-06
2.24583e-06
-1.36414e-06
2.18753e-06
-1.51397e-06
2.26843e-06
-1.71108e-06
2.31717e-06
-1.928e-06
2.41372e-06
-2.19023e-06
2.49225e-06
-2.40433e-06
2.53002e-06
-2.61684e-06
2.55955e-06
-2.75206e-06
2.49192e-06
-2.82459e-06
2.35347e-06
-2.78012e-06
2.07068e-06
-2.5728e-06
1.66582e-06
-2.21427e-06
1.16649e-06
-1.62469e-06
5.32987e-07
-8.20094e-07
-1.34538e-07
1.73345e-07
-7.42179e-07
1.27896e-06
-1.14356e-06
2.37694e-06
-1.27453e-06
3.38534e-06
-1.19561e-06
4.30219e-06
-1.05232e-06
5.11743e-06
-8.47015e-07
5.8874e-06
-6.86167e-07
6.55862e-06
-4.57409e-07
7.16422e-06
-2.5925e-07
7.71946e-06
-1.76306e-07
8.36475e-06
-1.20756e-07
8.97297e-06
4.65147e-08
9.52815e-06
-2.15826e-08
1.01362e-05
-2.481e-07
1.08506e-05
-2.64588e-07
1.16058e-05
-2.41279e-07
1.23323e-05
-5.45601e-07
1.30547e-05
-6.09107e-07
1.36742e-05
-1.04693e-07
1.43178e-05
1.46038e-07
1.48946e-05
3.3031e-07
1.53185e-05
7.11502e-07
1.58606e-05
1.01528e-06
1.6349e-05
1.57072e-06
1.65635e-05
2.15767e-06
1.64972e-05
2.79609e-06
1.61572e-05
3.57301e-06
1.54193e-05
4.07273e-06
1.40789e-05
4.40272e-06
1.22548e-05
4.55302e-06
1.04557e-05
4.10883e-06
8.9545e-06
3.51856e-06
8.00047e-06
2.68634e-06
7.48526e-06
1.98412e-06
7.04522e-06
1.44442e-06
6.99026e-06
1.81544e-07
7.46462e-06
-1.00023e-06
7.86953e-06
-9.78196e-07
7.88896e-06
1.56444e-08
7.60709e-06
1.28459e-06
7.12558e-06
2.59893e-06
6.46513e-06
3.65121e-06
5.30317e-06
4.27313e-06
3.1789e-06
4.83006e-06
2.53102e-07
5.60413e-06
-2.75006e-06
6.30371e-06
-5.2789e-06
6.64435e-06
-7.34323e-06
6.83708e-06
-9.09783e-06
6.92984e-06
-1.05465e-05
6.89471e-06
-1.17629e-05
6.78728e-06
-1.26625e-05
6.48876e-06
-1.33698e-05
6.04837e-06
-1.39023e-05
5.52979e-06
-1.44213e-05
5.04489e-06
-1.48498e-05
4.68396e-06
-1.5072e-05
4.41267e-06
-1.50997e-05
4.184e-06
-1.50184e-05
3.96037e-06
-1.47859e-05
3.61999e-06
-1.44007e-05
3.17032e-06
-1.40312e-05
2.73157e-06
-1.34138e-05
2.14835e-06
-1.27234e-05
1.57609e-06
-1.1971e-05
1.10409e-06
-1.10667e-05
6.2658e-07
-1.00836e-05
7.71977e-07
-9.16411e-06
1.4845e-06
-8.30488e-06
1.69545e-06
-6.87288e-06
-4.32301e-07
-5.35218e-06
-2.58796e-06
-4.4376e-06
1.28982e-06
-2.11962e-06
-3.8031e-06
-1.08028e-06
-6.09524e-07
8.11422e-08
-4.70908e-07
1.25976e-06
-8.66226e-07
2.77633e-06
-1.46382e-06
4.16656e-06
-1.34611e-06
5.4565e-06
-1.15484e-06
6.59116e-06
-8.73303e-07
7.6881e-06
-8.01386e-07
8.69599e-06
-6.16704e-07
9.64756e-06
-4.89022e-07
1.06825e-05
-4.46567e-07
1.16555e-05
-3.04128e-07
1.25712e-05
-1.74311e-07
1.33254e-05
7.141e-08
1.39828e-05
2.27234e-07
1.48871e-05
4.41083e-08
1.56461e-05
1.05064e-07
1.60623e-05
2.4128e-07
1.66095e-05
5.84577e-08
1.69546e-05
4.94143e-08
1.732e-05
-2.65825e-07
1.81648e-05
-9.82456e-07
1.90358e-05
-1.2235e-06
1.95659e-05
-9.70422e-07
1.98124e-05
-9.34864e-07
1.96725e-05
-1.25132e-06
1.95286e-05
-2.00699e-06
1.98066e-05
-3.12205e-06
2.02368e-05
-3.43179e-06
2.05009e-05
-3.64487e-06
2.0595e-05
-3.97323e-06
2.00762e-05
-3.49214e-06
1.87147e-05
-2.5803e-06
1.64931e-05
-1.51696e-06
1.3782e-05
-8.72669e-07
1.08875e-05
-7.07806e-07
8.19015e-06
-1.27792e-06
5.76159e-06
-2.20833e-06
3.46428e-06
-3.5973e-06
1.47832e-06
-4.83628e-06
1.32033e-09
-6.48424e-06
-1.74301e-06
-6.33956e-06
-3.20342e-06
-7.22004e-06
-4.65509e-06
-6.79285e-06
-5.86621e-06
-7.31569e-06
-6.89819e-06
-6.89873e-06
-7.67007e-06
-7.77596e-06
-8.20031e-06
-7.5233e-06
-8.5318e-06
-8.10299e-06
-8.57064e-06
-8.24782e-06
-8.18073e-06
-8.53806e-06
-7.73066e-06
-9.6179e-06
-6.88467e-06
-9.79241e-06
-6.11629e-06
-8.87269e-06
-5.61645e-06
-8.37062e-06
-4.95676e-06
-8.10287e-06
-3.81011e-06
-8.31853e-06
-2.92586e-06
-7.04417e-06
-2.05309e-06
-5.98702e-06
-1.56164e-06
-4.9564e-06
-1.0668e-06
-4.15941e-06
-6.83093e-07
-3.22154e-06
-1.86559e-07
-2.29567e-06
4.1173e-07
-1.57311e-06
5.92873e-07
-1.95341e-07
3.83543e-07
6.8019e-07
-8.27909e-08
1.52924e-06
-2.93599e-07
2.06046e-06
-5.5594e-08
1.77154e-06
-9.40495e-08
2.34755e-06
2.87558e-07
1.71791e-06
1.13984e-06
1.02105e-06
1.95155e-06
1.55036e-06
1.31007e-07
3.47232e-06
1.25586e-07
1.87933e-06
1.4701e-07
2.22184e-06
2.40434e-07
2.08402e-06
4.02652e-07
1.93877e-06
5.1429e-07
1.92042e-06
6.03744e-07
2.05596e-06
6.62782e-07
2.17938e-06
7.1834e-07
2.22922e-06
7.41679e-07
2.26607e-06
5.92026e-07
2.44108e-06
2.58284e-07
2.70471e-06
-1.07348e-07
2.86342e-06
-4.8618e-07
3.00664e-06
-9.9114e-07
3.24079e-06
-1.36436e-06
3.23382e-06
-1.51024e-06
3.17897e-06
-1.60394e-06
3.08013e-06
-1.51534e-06
2.81024e-06
-1.42041e-06
2.7771e-06
-1.35875e-06
2.74312e-06
-1.30901e-06
2.84507e-06
-1.3899e-06
3.01927e-06
-1.52189e-06
3.1715e-06
-1.7665e-06
3.35957e-06
-1.96428e-06
3.35539e-06
-2.14868e-06
3.37146e-06
-2.24071e-06
3.20606e-06
-2.22955e-06
2.96504e-06
-2.17533e-06
2.63241e-06
-2.00816e-06
2.11417e-06
-1.72334e-06
1.49481e-06
-1.24695e-06
6.66747e-07
-5.43494e-07
-2.30376e-07
3.14264e-07
-9.94759e-07
1.27976e-06
-1.50661e-06
2.26088e-06
-1.65673e-06
3.1979e-06
-1.53609e-06
3.98648e-06
-1.24978e-06
4.70935e-06
-9.76355e-07
5.43157e-06
-8.14513e-07
6.10154e-06
-5.39624e-07
6.71105e-06
-2.99714e-07
7.27038e-06
-1.90856e-07
7.88208e-06
-1.87739e-07
8.59828e-06
-1.09584e-07
9.29702e-06
-1.41588e-07
9.92897e-06
-2.95989e-07
1.06873e-05
-4.41907e-07
1.14865e-05
-4.98964e-07
1.20611e-05
-6.24055e-07
1.2533e-05
-5.53337e-07
1.32151e-05
-2.69595e-07
1.39439e-05
-1.72739e-07
1.45438e-05
1.1937e-07
1.49801e-05
6.57776e-07
1.54444e-05
9.34902e-07
1.59304e-05
1.49422e-06
1.62378e-05
2.20192e-06
1.63801e-05
2.98421e-06
1.63613e-05
3.88473e-06
1.62982e-05
4.38758e-06
1.5919e-05
5.08945e-06
1.48822e-05
5.79911e-06
1.33409e-05
5.79625e-06
1.16716e-05
5.37547e-06
1.03223e-05
4.25469e-06
9.20259e-06
3.33827e-06
8.23967e-06
2.43735e-06
7.52972e-06
9.88547e-07
7.01966e-06
-1.22024e-07
6.49175e-06
-8.91829e-08
5.78338e-06
9.37287e-07
4.77372e-06
2.46983e-06
3.57178e-06
4.01515e-06
2.11727e-06
5.38594e-06
2.48005e-07
6.4919e-06
-1.96544e-06
7.43713e-06
-4.12478e-06
8.16741e-06
-6.05728e-06
8.64397e-06
-7.7929e-06
8.80821e-06
-9.28969e-06
8.79729e-06
-1.05628e-05
8.7139e-06
-1.16985e-05
8.60279e-06
-1.26305e-05
8.36832e-06
-1.33972e-05
7.98208e-06
-1.403e-05
7.44332e-06
-1.45521e-05
6.8048e-06
-1.49788e-05
6.23024e-06
-1.52411e-05
5.76504e-06
-1.52006e-05
5.26443e-06
-1.51219e-05
5.04335e-06
-1.48588e-05
4.65891e-06
-1.44697e-05
4.22378e-06
-1.40833e-05
3.81835e-06
-1.35902e-05
3.29327e-06
-1.30475e-05
2.66518e-06
-1.25595e-05
2.15073e-06
-1.20234e-05
1.65946e-06
-1.14179e-05
1.15764e-06
-1.04407e-05
9.55856e-07
-9.14126e-06
1.31249e-06
-7.73902e-06
1.34858e-06
-6.0207e-06
-1.16677e-06
-5.01674e-06
-2.53753e-06
-3.84583e-06
1.21014e-06
-1.92664e-06
-4.71402e-06
-5.91336e-07
-1.04534e-06
7.89199e-07
-9.40062e-07
1.8459e-06
-1.05483e-06
3.34922e-06
-2.13674e-06
4.83788e-06
-2.06305e-06
6.20886e-06
-1.82678e-06
7.34626e-06
-1.34301e-06
8.40359e-06
-1.21004e-06
9.28099e-06
-9.16047e-07
1.0082e-05
-7.65709e-07
1.10284e-05
-8.16013e-07
1.19955e-05
-6.39345e-07
1.2914e-05
-3.32745e-07
1.38575e-05
-2.06782e-07
1.43588e-05
1.56831e-07
1.48815e-05
2.41152e-07
1.61458e-05
-6.11722e-08
1.69686e-05
4.55944e-07
1.72245e-05
5.84299e-07
1.77295e-05
1.58833e-07
1.78944e-05
9.71499e-08
1.79809e-05
-6.66009e-07
1.90839e-05
-1.84983e-06
2.0561e-05