/*--------------------------------*- C++ -*----------------------------------*\
| =========                 |                                                 |
| \\      /  F ield         | OpenFOAM: The Open Source CFD Toolbox           |
|  \\    /   O peration     | Version:  dev                                   |
|   \\  /    A nd           | Web:      http://www.openfoam.org               |
|    \\/     M anipulation  |                                                 |
\*---------------------------------------------------------------------------*/
FoamFile
{
    version     2.0;
    format      ascii;
    class       surfaceScalarField;
    object      phi_0;
    location    "9.128";
}
// * * * * * * * * * * * * * * * * * * * * * * * * * * * * * * * * * * * * * //

dimensions      [1 0 -1 0 0 0 0];

internalField   nonuniform List<scalar> 
24170
(
2.2385e-06
1.74486e-06
1.53456e-06
1.24805e-06
1.24691e-06
7.79939e-07
1.18456e-06
5.14463e-07
1.02179e-06
5.64522e-07
1.01853e-06
3.63911e-07
7.51712e-07
5.78476e-07
6.89148e-07
3.35099e-07
3.35858e-07
5.82289e-07
2.84216e-07
2.48245e-07
-2.63075e-07
7.08503e-07
-1.59813e-07
3.31048e-08
-1.04523e-06
1.00056e-06
-6.23681e-07
-3.30829e-07
-2.10563e-06
1.57385e-06
-2.0977e-06
5.92452e-08
-3.38403e-06
1.34721e-06
4.1319e-06
-7.45948e-06
4.00644e-06
2.08569e-06
3.59787e-06
2.20108e-06
3.42937e-06
1.44669e-06
3.25682e-06
1.14324e-06
3.14988e-06
1.07882e-06
3.14289e-06
7.31947e-07
3.03234e-06
1.00163e-06
3.00472e-06
6.32897e-07
2.87479e-06
9.39948e-07
2.85239e-06
4.64669e-07
2.52917e-06
1.19198e-06
2.79858e-06
-9.98342e-08
2.11705e-06
1.79784e-06
2.87507e-06
-9.93064e-07
1.63397e-06
2.91605e-06
3.76431e-06
-1.99785e-06
7.51878e-07
4.43866e-06
7.71364e-06
-2.72168e-06
4.66937e-06
2.09667e-06
4.67334e-06
2.793e-06
4.8687e-06
1.79944e-06
4.777e-06
1.73584e-06
4.78817e-06
1.51619e-06
4.83998e-06
1.07511e-06
4.69391e-06
1.49183e-06
4.87583e-06
7.45853e-07
4.45518e-06
1.61152e-06
5.08345e-06
4.53941e-08
4.2039e-06
2.25069e-06
4.87132e-06
-6.20619e-07
4.0225e-06
2.77515e-06
3.84827e-06
-7.14373e-07
4.19954e-06
2.6619e-06
2.15601e-06
1.28586e-07
2.0636e-07
6.47816e-06
4.2374e-06
3.81543e-06
4.94569e-06
2.55574e-06
5.57145e-06
2.82321e-06
5.81834e-06
2.15596e-06
6.22382e-06
1.88034e-06
6.12948e-06
2.10342e-06
6.50752e-06
1.12972e-06
6.20839e-06
2.168e-06
6.6319e-06
6.4301e-07
5.98725e-06
2.53011e-06
6.49537e-06
-2.35045e-07
5.77133e-06
3.16687e-06
6.15211e-06
-8.39371e-07
5.26508e-06
3.79621e-06
5.69502e-06
-1.02838e-06
4.34449e-06
4.12275e-06
4.39774e-06
1.56966e-07
3.75703e-06
7.20615e-06
7.497e-06
6.00988e-07
5.21138e-06
3.19831e-06
6.40492e-06
2.34943e-06
6.47535e-06
2.74755e-06
7.2211e-06
1.73665e-06
7.06954e-06
2.79484e-06
7.48212e-06
1.19086e-06
7.17673e-06
2.88582e-06
7.49669e-06
6.74222e-07
6.96533e-06
3.35963e-06
7.04932e-06
-6.97492e-08
6.79917e-06
3.62715e-06
6.44444e-06
-3.08963e-07
5.95223e-06
4.4317e-06
5.79198e-06
-7.3986e-07
3.95757e-06
6.06054e-06
6.35753e-06
-2.14898e-06
5.4289e-06
8.24141e-06
8.75539e-06
4.24428e-06
5.69241e-06
3.95704e-06
6.62809e-06
2.20233e-06
6.65319e-06
3.44764e-06
7.3655e-06
1.68321e-06
7.32132e-06
3.43039e-06
7.77149e-06
1.25879e-06
7.56796e-06
3.54108e-06
7.89036e-06
7.34693e-07
7.49037e-06
4.08727e-06
7.4391e-06
2.54208e-07
7.10741e-06
4.19097e-06
6.6852e-06
3.00314e-07
6.37896e-06
4.89743e-06
5.81317e-06
-4.24925e-08
4.90446e-06
7.07956e-06
5.7348e-06
-2.87305e-06
5.4279e-06
8.63344e-06
6.95201e-06
7.2837e-06
6.56151e-06
4.60663e-06
7.25029e-06
2.37649e-06
7.35941e-06
4.13105e-06
7.92968e-06
1.83168e-06
7.98413e-06
4.02166e-06
8.40877e-06
1.39804e-06
8.2894e-06
4.15196e-06
8.52838e-06
9.14092e-07
8.42001e-06
4.55159e-06
8.29839e-06
6.70584e-07
8.15551e-06
4.58163e-06
7.93652e-06
7.21026e-07
7.98984e-06
5.01248e-06
7.39207e-06
6.94677e-07
8.60804e-06
5.98675e-06
5.2255e-06
6.23696e-07
8.73402e-06
5.21594e-06
6.12481e-06
9.66197e-06
5.15006e-06
5.12358e-06
5.64707e-06
2.54677e-06
5.77896e-06
4.61125e-06
6.1405e-06
2.025e-06
6.27997e-06
4.37877e-06
6.51591e-06
1.59531e-06
6.60132e-06
4.44404e-06
6.6271e-06
1.21008e-06
6.83699e-06
4.61554e-06
6.55282e-06
1.1793e-06
6.77959e-06
4.5425e-06
6.40128e-06
1.25181e-06
6.74397e-06
4.79607e-06
6.08943e-06
1.45407e-06
7.00316e-06
5.1638e-06
5.29281e-06
2.4128e-06
6.34407e-06
4.2456e-06
5.82819e-06
6.73379e-06
5.95034e-06
5.55937e-06
6.51621e-06
2.74913e-06
6.85052e-06
4.98275e-06
7.22215e-06
2.29205e-06
7.53362e-06
4.63649e-06
7.63355e-06
1.99131e-06
7.93479e-06
4.57666e-06
7.74032e-06
1.77494e-06
8.09146e-06
4.57733e-06
7.6207e-06
1.9042e-06
8.08422e-06
4.29138e-06
7.33861e-06
2.17004e-06
7.88413e-06
4.39046e-06
6.95874e-06
2.49508e-06
7.56625e-06
4.65611e-06
6.73474e-06
3.32988e-06
6.54654e-06
4.5052e-06
5.85048e-06
6.60046e-06
7.16282e-06
5.80752e-06
7.67675e-06
3.1168e-06
8.15204e-06
5.31635e-06
8.30568e-06
2.87121e-06
8.7364e-06
4.85521e-06
8.77784e-06
2.51673e-06
9.25606e-06
4.59274e-06
9.04544e-06
2.40682e-06
9.55975e-06
4.41434e-06
9.1116e-06
2.63849e-06
9.54671e-06
4.09271e-06
8.85907e-06
3.0492e-06
9.33768e-06
4.06483e-06
8.39461e-06
3.56349e-06
9.03705e-06
4.12111e-06
7.93673e-06
4.5179e-06
8.31657e-06
4.20575e-06
5.53434e-06
8.6962e-06
8.29673e-06
6.07859e-06
8.81035e-06
3.60903e-06
9.4928e-06
5.55531e-06
9.65638e-06
3.54278e-06
1.01775e-05
5.07148e-06
1.01452e-05
3.19615e-06
1.06735e-05
4.62067e-06
1.04501e-05
3.10149e-06
1.09434e-05
4.31014e-06
1.06291e-05
3.27112e-06
1.08478e-05
4.13225e-06
1.05157e-05
3.59164e-06
1.04965e-05
4.24776e-06
1.02377e-05
3.9553e-06
1.00105e-05
4.44615e-06
9.99674e-06
4.62464e-06
9.53066e-06
4.73729e-06
5.19853e-06
9.92013e-06
9.57928e-06
6.65001e-06
9.93748e-06
4.39184e-06
1.09342e-05
5.60008e-06
1.11801e-05
4.23639e-06
1.19529e-05
5.12647e-06
1.19144e-05
3.95282e-06
1.25613e-05
4.5868e-06
1.22496e-05
3.92964e-06
1.27647e-05
4.22223e-06
1.23641e-05
4.01626e-06
1.26926e-05
4.07866e-06
1.22549e-05
4.24354e-06
1.24398e-05
4.2319e-06
1.2083e-05
4.43419e-06
1.20907e-05
4.5355e-06
1.19766e-05
4.80568e-06
1.18968e-05
4.86828e-06
5.12233e-06
1.20036e-05
1.11672e-05
6.9717e-06
1.16496e-05
5.18165e-06
1.26114e-05
5.7965e-06
1.30478e-05
4.84313e-06
1.37706e-05
5.32146e-06
1.39719e-05
4.54422e-06
1.44437e-05
4.78589e-06
1.45156e-05
4.41838e-06
1.47035e-05
4.49227e-06
1.47074e-05
4.38003e-06
1.46738e-05
4.39909e-06
1.4674e-05
4.4638e-06
1.45294e-05
4.53984e-06
1.44335e-05
4.64832e-06
1.42796e-05
4.77011e-06
1.42329e-05
4.89998e-06
1.40981e-05
5.03006e-06
5.10623e-06
1.41244e-05
1.29658e-05
7.06414e-06
1.3586e-05
5.95092e-06
1.46749e-05
5.97323e-06
1.51723e-05
5.47971e-06
1.60023e-05
5.48518e-06
1.62801e-05
5.11873e-06
1.67795e-05
5.00455e-06
1.69207e-05
4.86944e-06
1.71418e-05
4.74873e-06
1.71863e-05
4.71195e-06
1.7194e-05
4.67912e-06
1.71817e-05
4.68535e-06
1.7124e-05
4.74156e-06
1.70708e-05
4.7901e-06
1.69948e-05
4.89163e-06
1.69502e-05
4.95656e-06
1.69376e-05
5.0283e-06
5.05824e-06
1.69489e-05
1.49249e-05
7.86015e-06
1.58809e-05
6.47384e-06
1.69885e-05
6.20987e-06
1.77894e-05
5.88025e-06
1.85782e-05
5.74327e-06
1.9135e-05
5.45241e-06
1.96095e-05
5.27057e-06
1.99344e-05
5.14485e-06
2.01373e-05
5.01959e-06
2.02654e-05
4.94351e-06
2.03112e-05
4.89215e-06
2.03037e-05
4.86589e-06
2.02852e-05
4.86023e-06
2.02433e-05
4.87395e-06
2.02621e-05
4.8653e-06
2.02615e-05
4.90936e-06
2.0296e-05
4.9174e-06
4.91977e-06
2.03377e-05
1.74672e-05
8.11358e-06
1.86502e-05
6.80513e-06
1.98048e-05
6.42617e-06
2.07576e-05
6.14809e-06
2.16252e-05
5.92969e-06
2.23218e-05
5.64097e-06
2.28468e-05
5.46894e-06
2.32601e-05
5.3025e-06
2.35295e-05
5.18236e-06
2.36987e-05
5.08085e-06
2.37857e-05
5.00275e-06
2.38297e-05
4.92641e-06
2.38469e-05
4.86779e-06
2.38719e-05
4.80743e-06
2.3882e-05
4.76094e-06
2.39365e-05
4.71908e-06
2.39997e-05
4.68452e-06
4.63191e-06
2.40914e-05
2.01667e-05
8.00814e-06
2.1696e-05
6.74347e-06
2.3066e-05
6.37534e-06
2.42474e-05
6.13343e-06
2.53034e-05
5.86777e-06
2.61644e-05
5.59703e-06
2.68955e-05
5.3836e-06
2.75008e-05
5.18205e-06
2.79662e-05
5.0549e-06
2.83094e-05
4.94415e-06
2.85585e-05
4.84477e-06
2.87092e-05
4.76737e-06
2.87851e-05
4.69923e-06
2.88118e-05
4.61793e-06
2.88267e-05
4.52506e-06
2.88053e-05
4.47405e-06
2.87965e-05
4.39196e-06
4.31597e-06
2.87865e-05
2.02225e-05
7.70373e-06
2.17205e-05
6.40044e-06
2.31138e-05
6.01043e-06
2.43527e-05
5.79202e-06
2.54513e-05
5.51596e-06
2.63972e-05
5.2411e-06
2.72134e-05
5.00596e-06
2.78969e-05
4.79522e-06
2.84607e-05
4.65719e-06
2.89006e-05
4.55348e-06
2.9213e-05
4.47769e-06
2.94249e-05
4.41084e-06
2.95524e-05
4.35038e-06
2.96146e-05
4.27085e-06
2.96281e-05
4.17697e-06
2.96453e-05
4.08213e-06
2.96459e-05
3.98816e-06
3.87437e-06
2.96612e-05
1.80952e-05
7.10443e-06
1.94788e-05
5.7941e-06
2.07433e-05
5.4191e-06
2.1897e-05
5.21166e-06
2.28774e-05
4.99441e-06
2.36905e-05
4.76643e-06
2.43671e-05
4.55049e-06
2.49163e-05
4.35524e-06
2.53488e-05
4.23054e-06
2.57096e-05
4.10656e-06
2.60078e-05
4.01147e-06
2.6243e-05
3.93809e-06
2.64455e-05
3.85228e-06
2.66094e-05
3.76395e-06
2.67386e-05
3.66871e-06
2.68389e-05
3.57307e-06
2.69149e-05
3.48193e-06
3.37912e-06
2.69645e-05
1.61737e-05
6.24871e-06
1.74191e-05
5.05768e-06
1.8537e-05
4.72708e-06
1.95244e-05
4.57421e-06
2.0366e-05
4.41193e-06
2.10578e-05
4.23797e-06
2.16446e-05
4.03293e-06
2.21076e-05
3.87296e-06
2.25282e-05
3.71031e-06
2.28854e-05
3.58157e-06
2.32334e-05
3.43407e-06
2.35428e-05
3.34474e-06
2.38049e-05
3.26197e-06
2.40093e-05
3.19311e-06
2.41395e-05
3.14373e-06
2.4226e-05
3.06864e-06
2.4279e-05
2.99407e-06
2.91428e-06
2.42975e-05
1.44653e-05
5.60884e-06
1.54748e-05
4.36534e-06
1.64526e-05
4.00131e-06
1.73677e-05
3.8535e-06
1.81667e-05
3.73638e-06
1.88668e-05
3.58499e-06
1.94174e-05
3.45449e-06
1.98853e-05
3.31033e-06
2.0259e-05
3.17772e-06
2.05459e-05
3.08077e-06
2.07853e-05
2.93259e-06
2.09889e-05
2.836e-06
2.1166e-05
2.74476e-06
2.13221e-05
2.66733e-06
2.1461e-05
2.61252e-06
2.1564e-05
2.55513e-06
2.16474e-05
2.48801e-06
2.4075e-06
2.17227e-05
1.30046e-05
4.7501e-06
1.38855e-05
3.68094e-06
1.48035e-05
3.22461e-06
1.56821e-05
3.06752e-06
1.64475e-05
3.00422e-06
1.70952e-05
2.90961e-06
1.76187e-05
2.84361e-06
1.80453e-05
2.74223e-06
1.83949e-05
2.63806e-06
1.86988e-05
2.54162e-06
1.89247e-05
2.43363e-06
1.91309e-05
2.32268e-06
1.92761e-05
2.26362e-06
1.93889e-05
2.19611e-06
1.94731e-05
2.15094e-06
1.95483e-05
2.08915e-06
1.9608e-05
2.02737e-06
1.95286e-06
1.9655e-05
1.15547e-05
3.76814e-06
1.24876e-05
2.85604e-06
1.32621e-05
2.51191e-06
1.39537e-05
2.39957e-06
1.46035e-05
2.33064e-06
1.51795e-05
2.2606e-06
1.56546e-05
2.24836e-06
1.60726e-05
2.16001e-06
1.64338e-05
2.07252e-06
1.67287e-05
2.00684e-06
1.69658e-05
1.92563e-06
1.7169e-05
1.8216e-06
1.73397e-05
1.77216e-06
1.74695e-05
1.72691e-06
1.7577e-05
1.68978e-06
1.76621e-05
1.63968e-06
1.77319e-05
1.58534e-06
1.51422e-06
1.77931e-05
1.06255e-05
2.91591e-06
1.1319e-05
2.21533e-06
1.1937e-05
1.9056e-06
1.24892e-05
1.82942e-06
1.30157e-05
1.74863e-06
1.35292e-05
1.65124e-06
1.40429e-05
1.59939e-06
1.44778e-05
1.55297e-06
1.4837e-05
1.50789e-06
1.51257e-05
1.48452e-06
1.5345e-05
1.44727e-06
1.54951e-05
1.39109e-06
1.56111e-05
1.35712e-06
1.57021e-05
1.32159e-06
1.5786e-05
1.27955e-06
1.58592e-05
1.23064e-06
1.59226e-05
1.17998e-06
1.11946e-06
1.59708e-05
9.11811e-06
2.25995e-06
9.93137e-06
1.41467e-06
1.06928e-05
1.12563e-06
1.13557e-05
1.12442e-06
1.19138e-05
1.11729e-06
1.23659e-05
1.09347e-06
1.27494e-05
1.07781e-06
1.30504e-05
1.0834e-06
1.33051e-05
1.05686e-06
1.3541e-05
1.02727e-06
1.37309e-05
1.01484e-06
1.3898e-05
9.62524e-07
1.40505e-05
9.27424e-07
1.41805e-05
9.01765e-07
1.42926e-05
8.67388e-07
1.4382e-05
8.34119e-07
1.4457e-05
7.92775e-07
7.40036e-07
1.45216e-05
8.3084e-06
1.50919e-06
9.05833e-06
6.54919e-07
9.68392e-06
4.65516e-07
1.02151e-05
5.40155e-07
1.06716e-05
5.8136e-07
1.10541e-05
6.03364e-07
1.13794e-05
6.17484e-07
1.1665e-05
6.36975e-07
1.1888e-05
6.49575e-07
1.2079e-05
6.312e-07
1.22778e-05
5.92882e-07
1.24021e-05
5.99469e-07
1.25082e-05
5.69359e-07
1.26023e-05
5.44824e-07
1.2672e-05
5.26701e-07
1.27185e-05
5.10794e-07
1.27354e-05
4.95165e-07
4.66022e-07
1.27264e-05
7.49993e-06
7.17641e-07
8.15975e-06
-2.72499e-08
8.67854e-06
-9.57649e-08
9.12297e-06
3.86042e-08
9.47968e-06
1.45994e-07
9.7683e-06
2.11822e-07
9.99959e-06
2.59419e-07
1.01817e-05
3.05858e-07
1.0342e-05
3.20261e-07
1.04633e-05
3.2301e-07
1.05215e-05
3.32204e-07
1.05783e-05
3.27129e-07
1.06015e-05
3.19514e-07
1.05943e-05
3.16517e-07
1.05678e-05
3.10843e-07
1.05144e-05
3.16802e-07
1.04398e-05
3.18998e-07
3.13143e-07
1.034e-05
6.72064e-06
-3.14212e-08
7.35558e-06
-6.88423e-07
7.73849e-06
-5.23093e-07
7.99812e-06
-2.78058e-07
8.16129e-06
-9.29203e-08
8.24993e-06
2.6884e-08
8.27696e-06
1.15885e-07
8.29026e-06
1.57271e-07
8.26789e-06
1.8995e-07
8.22246e-06
2.00528e-07
8.17323e-06
2.0018e-07
8.08854e-06
2.18892e-07
7.98643e-06
2.1892e-07
7.87771e-06
2.14775e-07
7.75589e-06
2.15864e-07
7.61893e-06
2.3197e-07
7.47699e-06
2.35939e-07
2.51641e-07
7.31129e-06
5.8904e-06
-7.06024e-07
6.01297e-06
-8.36399e-07
5.91921e-06
-4.71126e-07
5.80926e-06
-2.20828e-07
5.69107e-06
-4.38141e-08
5.57974e-06
5.11027e-08
5.49991e-06
9.08351e-08
5.43431e-06
1.01251e-07
5.38034e-06
1.06892e-07
5.31761e-06
1.12537e-07
5.24293e-06
1.12085e-07
5.17049e-06
1.1805e-07
5.08768e-06
1.19633e-07
4.99089e-06
1.22262e-07
4.8891e-06
1.22091e-07
4.78505e-06
1.35992e-07
4.68738e-06
1.29892e-07
1.5799e-07
4.57439e-06
3.93998e-06
3.13708e-06
2.67943e-06
2.45492e-06
2.38813e-06
2.39674e-06
2.42617e-06
2.44842e-06
2.46016e-06
2.46295e-06
2.4522e-06
2.43586e-06
2.41099e-06
2.38002e-06
2.3415e-06
2.31095e-06
2.2694e-06
2.25273e-06
1.89406e-07
4.20104e-07
3.35045e-07
4.86592e-07
4.46186e-07
5.09957e-07
5.7547e-07
4.87878e-07
7.17271e-07
4.78875e-07
8.5153e-07
4.90821e-07
9.72232e-07
5.06194e-07
1.06911e-06
5.31229e-07
1.14613e-06
5.50921e-07
1.18544e-06
5.88728e-07
1.18655e-06
6.25783e-07
1.18299e-06
6.29582e-07
1.18558e-06
6.22817e-07
1.16161e-06
6.49056e-07
1.118e-06
6.6823e-07
1.07934e-06
6.62828e-07
9.9488e-07
7.08863e-07
8.59563e-07
7.59479e-07
6.93949e-07
7.89551e-07
5.05677e-07
8.11625e-07
3.12915e-07
8.15453e-07
9.26132e-08
8.42044e-07
-1.35734e-07
8.49323e-07
-3.93769e-07
8.78426e-07
-6.82555e-07
9.08797e-07
-9.9922e-07
9.36618e-07
-1.32841e-06
9.49169e-07
-1.65616e-06
9.4781e-07
-1.94475e-06
9.08626e-07
-2.13809e-06
8.13611e-07
-2.20724e-06
6.90114e-07
-2.1071e-06
5.22276e-07
-1.80781e-06
3.25274e-07
-1.29168e-06
1.1089e-07
-6.17706e-07
-4.40899e-08
1.34117e-07
-1.18696e-07
9.25001e-07
-1.54534e-07
1.71162e-06
-1.46681e-07
2.45813e-06
-1.02709e-07
3.1587e-06
-5.30214e-08
3.77423e-06
3.61004e-08
4.29982e-06
1.2827e-07
4.79334e-06
1.61102e-07
5.22752e-06
2.21619e-07
5.56585e-06
3.19148e-07
5.93806e-06
2.86162e-07
6.38453e-06
2.14019e-07
6.79949e-06
2.49204e-07
7.15368e-06
3.13355e-07
7.59564e-06
2.26114e-07
8.02181e-06
2.38977e-07
8.22482e-06
4.60178e-07
8.2395e-06
6.5137e-07
8.15034e-06
7.54142e-07
7.831e-06
9.70782e-07
7.07641e-06
1.39709e-06
5.97031e-06
1.7619e-06
4.83851e-06
1.80616e-06
3.8865e-06
1.64033e-06
3.03813e-06
1.53724e-06
2.31092e-06
1.41106e-06
1.78792e-06
1.21289e-06
1.30257e-06
1.19059e-06
7.58034e-07
1.26488e-06
2.36722e-07
1.25678e-06
-2.06435e-07
1.19584e-06
-5.75862e-07
1.13983e-06
-7.64719e-07
9.76816e-07
-4.87783e-07
5.3024e-07
2.15394e-07
1.302e-07
9.94875e-07
8.70176e-08
1.50301e-06
3.95656e-07
1.47919e-06
9.65371e-07
8.42823e-07
1.61534e-06
-2.59378e-07
2.12354e-06
-1.41877e-06
2.22633e-06
-2.08128e-06
1.76414e-06
-2.00447e-06
1.06382e-06
-1.53506e-06
7.18707e-07
-1.22625e-06
9.23648e-07
-1.37169e-06
1.42202e-06
-2.08342e-06
2.03933e-06
-3.261e-06
2.5599e-06
-4.70904e-06
2.88327e-06
-6.217e-06
2.99087e-06
-7.64733e-06
2.95682e-06
-8.90977e-06
2.83576e-06
-9.98466e-06
2.7031e-06
-1.08844e-05
2.57314e-06
-1.15876e-05
2.40225e-06
-1.2148e-05
2.28482e-06
-1.25607e-05
2.17618e-06
-1.27828e-05
2.0202e-06
-1.28423e-05
1.86841e-06
-1.27249e-05
1.68691e-06
-1.24212e-05
1.49629e-06
-1.18962e-05
1.2731e-06
-1.11267e-05
1.01645e-06
-1.02283e-05
8.59281e-07
-9.44026e-06
9.56452e-07
-8.91554e-06
1.24349e-06
-8.37852e-06
1.23059e-06
-7.29314e-06
6.09351e-07
-5.08621e-06
-6.08127e-07
-4.71552e-06
1.26657e-06
-2.44227e-06
-6.96003e-07
-1.15973e-06
2.27839e-07
-1.28337e-07
4.46208e-07
1.08683e-06
2.17371e-07
2.29353e-06
1.78901e-07
3.45201e-06
1.83007e-07
4.52624e-06
2.24725e-07
5.49296e-06
2.91472e-07
6.39526e-06
3.19411e-07
7.20713e-06
3.74669e-07
7.97216e-06
3.8615e-07
8.67564e-06
4.09418e-07
9.31907e-06
4.37096e-07
9.89612e-06
4.61225e-07
1.04478e-05
4.4678e-07
1.09335e-05
4.93418e-07
1.13789e-05
5.16335e-07
1.18251e-05
4.74024e-07
1.22463e-05
4.71312e-07
1.26587e-05
4.81581e-07
1.31488e-05
3.70329e-07
1.36956e-05
2.33018e-07
1.42965e-05
9.73238e-08
1.49006e-05
7.45594e-09
1.54697e-05
-6.25311e-08
1.60655e-05
-2.38398e-07
1.66321e-05
-4.12142e-07
1.71142e-05
-5.47945e-07
1.75996e-05
-7.848e-07
1.81047e-05
-1.03584e-06
1.85878e-05
-1.29892e-06
1.87383e-05
-1.32754e-06
1.85634e-05
-1.35321e-06
1.80942e-05
-1.41333e-06
1.71382e-05
-1.28246e-06
1.55345e-05
-9.58219e-07
1.32626e-05
-5.38223e-07
1.05485e-05
-3.20157e-07
7.63431e-06
-2.92593e-07
4.80452e-06
-5.03555e-07
2.28033e-06
-8.3895e-07
1.25731e-07
-1.18896e-06
-1.88202e-06
-1.25138e-06
-3.61094e-06
-1.40885e-06
-5.30518e-06
-1.27505e-06
-6.62386e-06
-1.48755e-06
-8.04981e-06
-1.19022e-06
-8.78341e-06
-1.71708e-06
-9.75079e-06
-1.30442e-06
-1.01244e-05
-1.76116e-06
-1.03243e-05
-1.75248e-06
-1.02276e-05
-1.9142e-06
-9.43923e-06
-2.49383e-06
-8.65605e-06
-2.35357e-06
-8.01094e-06
-2.0929e-06
-7.1888e-06
-2.16138e-06
-6.4203e-06
-1.95874e-06
-5.62735e-06
-1.83338e-06
-5.14601e-06
-1.38052e-06
-4.79966e-06
-1.11484e-06
-4.65195e-06
-7.71035e-07
-4.61111e-06
-5.20845e-07
-4.62381e-06
-3.1228e-07
-4.70668e-06
-7.79188e-08
-4.67081e-06
-3.45641e-08
-4.6742e-06
1.71332e-07
-4.53331e-06
2.08367e-07
-4.42523e-06
4.15509e-07
-4.56695e-06
8.49391e-07
-4.44856e-06
7.9854e-07
-4.178e-06
8.28678e-07
-3.72603e-06
8.11642e-07
-2.88722e-06
6.09279e-07
-2.17594e-06
1.01748e-06
6.84813e-07
-8.82545e-07
5.73544e-08
9.68336e-07
7.62063e-08
1.08814e-06
1.00536e-07
1.08646e-06
1.21796e-07
1.06779e-06
1.43827e-07
1.06392e-06
1.55301e-07
1.09431e-06
1.57378e-07
1.11966e-06
1.32627e-07
1.17462e-06
6.56255e-08
1.23902e-06
3.03072e-08
1.24827e-06
6.93526e-08
1.21562e-06
6.99583e-08
1.26297e-06
-3.92957e-08
1.36735e-06
-1.22566e-07
1.36877e-06
-2.49968e-07
1.43365e-06
-5.07647e-07
1.55566e-06
-7.33767e-07
1.57238e-06
-1.0021e-06
1.66478e-06
-1.25594e-06
1.67871e-06
-1.48998e-06
1.68021e-06
-1.74169e-06
1.69971e-06
-1.97772e-06
1.71185e-06
-2.29354e-06
1.79607e-06
-2.6254e-06
1.84164e-06
-3.02058e-06
1.93418e-06
-3.43369e-06
1.97917e-06
-3.85519e-06
2.00009e-06
-4.21578e-06
1.93727e-06
-4.46118e-06
1.78219e-06
-4.57138e-06
1.54889e-06
-4.46716e-06
1.21214e-06
-4.13504e-06
8.19327e-07
-3.5531e-06
3.74047e-07
-2.78139e-06
-3.00336e-08
-1.87057e-06
-3.22533e-07
-8.99553e-07
-4.54566e-07
3.40657e-08
-4.50299e-07
9.19545e-07
-3.91405e-07
1.72662e-06
-2.65742e-07
2.45108e-06
-1.30081e-07
3.11187e-06
2.63786e-08
3.71096e-06
1.83239e-07
4.29169e-06
2.3677e-07
4.77648e-06
3.92105e-07
5.19787e-06
5.51328e-07
5.67286e-06
4.58067e-07
6.25569e-06
2.8576e-07
6.79004e-06
3.84656e-07
7.25455e-06
5.17846e-07
7.90576e-06
2.39832e-07
8.66425e-06
1.56405e-07
9.20074e-06
5.9788e-07
9.52315e-06
9.8059e-07
9.76996e-06
1.14933e-06
1.00114e-05
1.39631e-06
1.0238e-05
1.8386e-06
1.02256e-05
2.4068e-06
9.92185e-06
2.75974e-06
9.14255e-06
3.09907e-06
7.63201e-06
3.69923e-06
5.78292e-06
3.92026e-06
4.08704e-06
3.61609e-06
2.7274e-06
3.26559e-06
1.7984e-06
2.90191e-06
1.1331e-06
2.64745e-06
6.76504e-07
2.40098e-06
3.85944e-07
2.19813e-06
2.92635e-07
1.84099e-06
6.49565e-07
9.45751e-07
1.43655e-06
1.49556e-07
2.35091e-06
2.6129e-08
2.98734e-06
6.60459e-07
3.26446e-06
1.62844e-06
3.11932e-06
2.74709e-06
2.68063e-06
3.61104e-06
2.2939e-06
3.70246e-06
1.90951e-06
3.24953e-06
9.39386e-07
3.18352e-06
-8.86793e-07
3.77058e-06
-3.25053e-06
4.5685e-06
-5.68087e-06
5.20157e-06
-7.7953e-06
5.57271e-06
-9.58334e-06
5.80652e-06
-1.10652e-05
5.86205e-06
-1.23357e-05
5.79921e-06
-1.33321e-05
5.51418e-06
-1.41623e-05
5.21096e-06
-1.47621e-05
4.79997e-06
-1.52337e-05
4.51683e-06
-1.56434e-05
4.3407e-06
-1.58559e-05
4.16102e-06
-1.58386e-05
3.94488e-06
-1.56677e-05
3.68251e-06
-1.53384e-05
3.3451e-06
-1.47897e-05
2.89056e-06
-1.41344e-05
2.5656e-06
-1.32068e-05
2.05919e-06
-1.2175e-05
1.641e-06
-1.10358e-05
1.29169e-06
-1.00458e-05
1.49657e-06
-9.34536e-06
2.17817e-06
-8.60591e-06
2.34319e-06
-7.055e-06
8.15629e-07
-5.08145e-06
-1.21591e-06
-4.35722e-06
2.09521e-06
-1.87167e-06
-1.60743e-06
-5.98402e-07
3.8168e-07
6.09015e-07
6.50969e-07
1.89569e-06
3.17647e-07
3.33144e-06
9.21076e-08
4.68782e-06
1.51134e-07
5.92632e-06
2.78789e-07
7.06744e-06
4.15547e-07
8.15277e-06
4.74057e-07
9.19054e-06
5.7054e-07
1.01819e-05
6.28519e-07
1.10936e-05
7.09659e-07
1.19612e-05
7.4943e-07
1.27389e-05
8.57243e-07
1.34223e-05
9.15643e-07
1.41424e-05
8.17979e-07
1.47867e-05
8.29383e-07
1.53691e-05
8.61345e-07
1.59685e-05
8.09665e-07
1.64294e-05
8.6098e-07
1.68782e-05
7.44952e-07
1.74447e-05
4.90122e-07
1.80666e-05
2.07004e-07
1.86944e-05
-5.29265e-08
1.91102e-05
-6.50816e-08
1.92983e-05
-1.66423e-07
1.95558e-05
-6.42254e-07
1.99034e-05
-1.15323e-06
2.01822e-05
-1.6318e-06
2.0342e-05
-1.93158e-06
2.06513e-05
-2.48305e-06
2.06629e-05
-2.58709e-06
1.98653e-05
-2.19587e-06
1.83254e-05
-1.84767e-06
1.60576e-05
-1.33644e-06
1.31842e-05
-7.4429e-07
1.0001e-05
-3.45788e-07
6.69447e-06
-2.99812e-07
3.46393e-06
-5.82338e-07
6.82651e-07
-1.39804e-06
-1.6944e-06
-2.19763e-06
-3.61298e-06
-2.99797e-06
-5.54357e-06
-2.94247e-06
-6.9386e-06
-3.50089e-06
-8.38498e-06
-3.10763e-06
-9.41368e-06
-3.54497e-06
-1.0352e-05
-3.10226e-06
-1.08158e-05
-3.89743e-06
-1.10895e-05
-3.48587e-06
-1.11402e-05
-4.01284e-06
-1.082e-05
-4.10142e-06
-1.02094e-05
-4.33212e-06
-9.19209e-06
-5.30559e-06
-7.95666e-06
-5.24186e-06
-6.93104e-06
-4.59621e-06
-5.82793e-06
-4.61886e-06
-4.64623e-06
-4.39312e-06
-3.35388e-06
-4.24821e-06
-2.36196e-06
-3.38965e-06
-1.67737e-06
-2.7342e-06
-1.06222e-06
-2.17126e-06
-5.09523e-07
-1.70972e-06
-1.20453e-07
-1.18192e-06
-4.57842e-08
-4.48333e-07
-2.10839e-07
1.69503e-08
-6.03437e-07
6.21245e-07
-9.55444e-07
7.97359e-07
-1.20801e-06
1.10255e-06
-1.38995e-06
1.70014e-06
-1.33556e-06
1.65811e-06
-1.14996e-06
1.80731e-06
-5.32633e-07
1.58073e-06
2.20076e-07
1.38005e-06
1.14991e-06
1.86325e-06
1.19678e-06
2.65523e-06
-1.17479e-08
1.57399e-06
-1.19179e-07
1.79871e-06
-1.8446e-07
1.74225e-06
-1.62758e-07
1.65065e-06
-7.8314e-08
1.58289e-06
-7.15428e-08
1.69404e-06
-1.10498e-07
1.77348e-06
-1.26863e-07
1.81386e-06
-7.13119e-08
1.81665e-06
-6.56376e-09
1.82835e-06
-8.30215e-08
1.93987e-06
-2.57137e-07
2.08314e-06
-4.51835e-07
2.20981e-06
-7.81755e-07
2.33903e-06
-1.17711e-06
2.47369e-06
-1.61977e-06
2.64141e-06
-2.04011e-06
2.62477e-06
-2.27262e-06
2.53344e-06
-2.48396e-06
2.51632e-06
-2.64128e-06
2.46559e-06
-2.87338e-06
2.55674e-06
-3.16035e-06
2.61994e-06
-3.47122e-06
2.73172e-06
-3.83601e-06
2.82744e-06
-4.1539e-06
2.87763e-06
-4.47482e-06
2.92215e-06
-4.72127e-06
2.86814e-06
-4.90815e-06
2.74435e-06
-4.98303e-06
2.47715e-06
-4.8961e-06
2.08541e-06
-4.66263e-06
1.59999e-06
-4.20111e-06
9.77896e-07
-3.52755e-06
3.18372e-07
-2.65438e-06
-2.84694e-07
-1.67187e-06
-6.8489e-07
-6.95148e-07
-8.08111e-07
1.97948e-07
-7.1732e-07
9.81553e-07
-5.46617e-07
1.65894e-06
-3.12024e-07
2.29021e-06
-1.27845e-07
2.82033e-06
1.30817e-07
3.28779e-06
3.49891e-07
3.70601e-06
4.53132e-07
4.20398e-06
5.32393e-07
4.667e-06
7.24908e-07
5.07296e-06
6.80689e-07
5.52686e-06
4.80607e-07
6.08158e-06
4.96765e-07
6.69812e-06
5.43908e-07
7.30192e-06
2.61193e-07
7.88255e-06
2.43939e-07
8.3692e-06
7.85351e-07
8.91945e-06
1.05348e-06
9.4123e-06
1.26711e-06
9.75918e-06
1.67908e-06
1.02315e-05
2.0127e-06
1.06623e-05
2.61263e-06
1.08374e-05
3.22865e-06
1.07215e-05
3.90659e-06
1.03669e-05
4.72074e-06
9.66508e-06
5.23787e-06
8.34237e-06
5.60361e-06
6.53123e-06
5.78346e-06
4.75684e-06
5.3633e-06
3.28962e-06
4.81024e-06
2.3793e-06
4.00808e-06
1.96172e-06
3.34201e-06
1.70395e-06
2.82164e-06
1.8058e-06
1.56693e-06
2.38674e-06
3.77349e-07
2.90131e-06
3.91613e-07
3.12302e-06
1.36291e-06
3.09255e-06
2.62127e-06
2.88135e-06
3.95709e-06
2.4894e-06
5.03776e-06
1.57391e-06
5.6959e-06
-3.14912e-07
6.28741e-06
-2.98131e-06
7.06682e-06
-5.72454e-06
7.76891e-06
-7.99325e-06
8.11858e-06
-9.80094e-06
8.3188e-06
-1.13117e-05
8.41218e-06
-1.25326e-05
8.37472e-06
-1.35365e-05
8.26306e-06
-1.42345e-05
7.95997e-06
-1.47516e-05
7.50877e-06
-1.51003e-05
6.96712e-06
-1.54461e-05
6.45118e-06
-1.57149e-05
6.06186e-06
-1.57871e-05
5.77213e-06
-1.56701e-05
5.53564e-06
-1.54478e-05
5.30658e-06
-1.5084e-05
4.96455e-06
-1.45745e-05
4.50798e-06
-1.40908e-05
4.05665e-06
-1.33681e-05
3.45881e-06
-1.2576e-05
2.86907e-06
-1.17222e-05
2.37312e-06
-1.07166e-05
1.85591e-06
-9.62571e-06
1.95548e-06
-8.59567e-06
2.67201e-06
-7.65965e-06
2.98106e-06
-6.16856e-06
8.97951e-07
-4.54671e-06
-1.39609e-06
-3.59221e-06
2.54126e-06
-1.2259e-06
-2.54881e-06
-1.23214e-07
6.32587e-07
1.07385e-06
7.71969e-07
2.27688e-06
3.95513e-07
3.82627e-06
-2.33291e-07
5.21857e-06
-6.70848e-08
6.49405e-06
1.39963e-07
7.61852e-06
4.07238e-07
8.70308e-06
4.67712e-07
9.69978e-06
6.47888e-07
1.0644e-05
7.63958e-07
1.16736e-05
8.06071e-07
1.26429e-05
9.51864e-07
1.35543e-05
1.08866e-06
1.43125e-05
1.33995e-06
1.50007e-05
1.47258e-06
1.59422e-05
1.27463e-06
1.67326e-05
1.33445e-06
1.72085e-05
1.43554e-06
1.78241e-05
1.2138e-06
1.82359e-05
1.15237e-06
1.87025e-05
7.46198e-07
1.96112e-05
3.81659e-08
2.05144e-05
-2.49892e-07
2.1014e-05
-1.52563e-08
2.11241e-05
-2.17462e-08
2.08358e-05
-5.02721e-07
2.05032e-05
-1.37011e-06
2.05359e-05
-2.50211e-06
2.06243e-05
-2.799e-06
2.04664e-05
-3.03014e-06
2.00596e-05
-3.32373e-06
1.89647e-05
-2.77089e-06
1.70005e-05
-1.84633e-06
1.4212e-05
-8.12842e-07
1.09754e-05
-1.6033e-07
7.62417e-06
-4.53288e-08
4.55111e-06
-6.43332e-07
1.90781e-06
-1.55558e-06
-4.66651e-07
-2.77018e-06
-2.60192e-06
-3.85767e-06
-4.07561e-06
-5.29083e-06
-5.67936e-06
-4.99846e-06
-6.92453e-06
-5.73373e-06
-8.06387e-06
-5.24027e-06
-8.9269e-06
-5.66296e-06
-9.55575e-06
-5.18694e-06
-9.9202e-06
-5.99129e-06
-1.00208e-05
-5.72657e-06
-9.9493e-06
-6.28595e-06
-9.55993e-06
-6.37368e-06
-8.75372e-06
-6.62496e-06
-7.92135e-06
-7.71583e-06
-6.71329e-06
-7.9255e-06
-5.57577e-06
-7.06148e-06
-4.71544e-06
-6.65489e-06
-3.68916e-06
-6.48019e-06
-2.22633e-06
-6.65885e-06
-1.03585e-06
-5.49247e-06
-3.23709e-08
-4.55147e-06
7.89312e-07
-3.72596e-06
1.47307e-06
-3.0104e-06
1.95397e-06
-2.15442e-06
2.43047e-06
-1.28151e-06
2.93812e-06
-6.29362e-07
2.90352e-06
7.43957e-07
2.41541e-06
1.52993e-06
1.65917e-06
2.28771e-06
1.14751e-06
2.8388e-06
1.09117e-06
2.57138e-06
7.99808e-07
3.22312e-06
9.84783e-07
2.67929e-06
1.80962e-06
2.06075e-06
2.67179e-06
2.71893e-06
1.43214e-06
4.39647e-06
7.4701e-08
2.08772e-06
5.03357e-08
2.42759e-06
9.95029e-08
2.2868e-06
2.15248e-07
2.14332e-06
2.76507e-07
2.13181e-06
3.13468e-07
2.27485e-06
3.19134e-07
2.40533e-06
3.18466e-07
2.46326e-06
2.7839e-07
2.51142e-06
6.08076e-08
2.69994e-06
-3.36346e-07
2.97506e-06
-7.68033e-07
3.14476e-06
-1.21581e-06
3.30056e-06
-1.79115e-06
3.54905e-06
-2.2408e-06
3.55088e-06
-2.45608e-06
3.49994e-06
-2.61964e-06
3.40947e-06
-2.6029e-06
3.14179e-06
-2.57491e-06
3.11393e-06
-2.5892e-06
3.0913e-06
-2.61507e-06
3.20607e-06
-2.77723e-06
3.40043e-06
-2.99595e-06
3.57338e-06
-3.33619e-06
3.78949e-06
-3.64103e-06
3.80934e-06
-3.93393e-06
3.84511e-06
-4.14292e-06
3.70136e-06
-4.24699e-06
3.47541e-06
-4.31137e-06
3.1621e-06
-4.26764e-06
2.66251e-06
-4.1082e-06
2.06017e-06
-3.76281e-06
1.24713e-06
-3.19249e-06
3.60511e-07
-2.46644e-06
-3.98696e-07
-1.62814e-06
-9.06112e-07
-7.74301e-07
-1.04028e-06
2.49853e-08
-8.94021e-07
7.04731e-07
-6.041e-07
1.29237e-06
-2.75543e-07
1.87416e-06
-8.31435e-08
2.39748e-06
2.34866e-07
2.86609e-06
5.05334e-07
3.29404e-06
6.41588e-07
3.77262e-06
6.71984e-07
4.34407e-06
7.8282e-07
4.88868e-06
7.67403e-07
5.3685e-06
6.43601e-07
5.96945e-06
5.44749e-07
6.61676e-06
5.30303e-07
7.05356e-06
4.44579e-07
7.38969e-06
5.57458e-07
7.94463e-06
8.78925e-07
8.57304e-06
1.0186e-06
9.07316e-06
1.36348e-06
9.42854e-06
1.93376e-06
9.82289e-06
2.23942e-06
1.02342e-05
2.84902e-06
1.04909e-05
3.60095e-06
1.05944e-05
4.43147e-06
1.05624e-05
5.37055e-06
1.05155e-05
5.90832e-06
1.01491e-05
6.66985e-06
9.15724e-06
7.41493e-06
7.68327e-06
7.44576e-06
6.09036e-06
7.06389e-06
4.7856e-06
5.98171e-06
3.73445e-06
5.10992e-06
2.96535e-06
4.24738e-06
2.39559e-06
2.83159e-06
1.88672e-06
1.72035e-06
1.41575e-06
1.75145e-06
9.00273e-07
2.78439e-06
1.30053e-07
4.33188e-06
-8.15509e-07
5.88292e-06
-2.01449e-06
7.2696e-06
-3.62023e-06
8.39401e-06
-5.55139e-06
9.35067e-06
-7.42084e-06
1.00813e-05
-9.05929e-06
1.05605e-05
-1.05088e-05
1.07352e-05
-1.17383e-05
1.07357e-05
-1.27633e-05
1.06551e-05
-1.36694e-05
1.05407e-05
-1.43886e-05
1.02993e-05
-1.49544e-05
9.90683e-06
-1.5394e-05
9.35816e-06
-1.57355e-05
8.70295e-06
-1.59987e-05
8.1025e-06
-1.61134e-05
7.60528e-06
-1.59279e-05
7.06862e-06
-1.57092e-05
6.8299e-06
-1.5308e-05
6.42991e-06
-1.47831e-05
5.98569e-06
-1.4269e-05
5.57687e-06
-1.36534e-05
5.0415e-06
-1.29932e-05
4.39987e-06
-1.23914e-05
3.86709e-06
-1.17505e-05
3.35497e-06
-1.10581e-05
2.82377e-06
-1.00012e-05
2.57822e-06
-8.61135e-06
2.92693e-06
-7.1061e-06
3.04857e-06
-5.27514e-06
5.66776e-07
-4.20261e-06
-9.2828e-07
-2.9698e-06
2.88671e-06
-1.00643e-06
-3.05769e-06
3.961e-07
6.338e-07
1.80075e-06
7.5732e-07
2.87663e-06
6.54597e-07
4.4035e-06
-4.79302e-07
5.90725e-06
-3.56877e-07
7.24229e-06
-5.1835e-08
8.36963e-06
3.91937e-07
9.41311e-06
5.03985e-07
1.02743e-05
7.81463e-07
1.10688e-05
9.05774e-07
1.20169e-05
8.49228e-07
1.29822e-05
1.02945e-06
1.39078e-05
1.31308e-06
1.4848e-05
1.43033e-06
1.53523e-05
1.78571e-06
1.59388e-05
1.8184e-06
1.7269e-05
1.531e-06
1.8105e-05
2.06953e-06
1.84088e-05
2.11084e-06
1.89819e-05
1.62983e-06
1.91597e-05
1.53363e-06
1.93525e-05
6.38984e-07
2.05792e-05
-6.26468e-07
2.20595e-05
-6.17717e-07
2.21595e-05
1.7163e-07
2.11215e-05
5.77609e-08
2.05122e-05
-1.4792e-06