/*--------------------------------*- C++ -*----------------------------------*\
| =========                 |                                                 |
| \\      /  F ield         | OpenFOAM: The Open Source CFD Toolbox           |
|  \\    /   O peration     | Version:  dev                                   |
|   \\  /    A nd           | Web:      http://www.openfoam.org               |
|    \\/     M anipulation  |                                                 |
\*---------------------------------------------------------------------------*/
FoamFile
{
    version     2.0;
    format      ascii;
    class       volScalarField;
    object      pMean;
    location    "9.128";
}
// * * * * * * * * * * * * * * * * * * * * * * * * * * * * * * * * * * * * * //

dimensions      [1 -1 -2 0 0 0 0];

internalField   nonuniform List<scalar> 
12225
(
98313.5
98293.7
98280
98273
98258.7
98249.3
98230.9
98221.3
98199.8
98191.1
98166.4
98159.5
98128.6
98122.3
98081.5
98041.9
97952.8
97587
98309
98292.7
98279.4
98272.5
98258.1
98248.8
98230.2
98220.8
98199.1
98190.7
98165.7
98159
98128.2
98120.3
98079.8
98045.9
97953.7
97792.7
98305.3
98291.1
98278.4
98271.1
98256.7
98247.3
98228.7
98219.4
98197.7
98189.2
98164.8
98156.9
98128.8
98117
98082.1
98046.8
97979.5
97890.7
98300.2
98288.2
98276.3
98268.6
98254.3
98244.6
98226.6
98216.7
98195.9
98186.5
98163.5
98153.9
98127.7
98114.7
98083
98055.2
98006.8
97938
98293.5
98283.8
98272.7
98264.6
98250.7
98240.4
98223.6
98212.6
98193.5
98182.2
98162
98149.3
98127.8
98111.5
98084.9
98060.7
98020.9
97988.2
98285.3
98277.6
98266.8
98258.6
98245.1
98234.5
98218.4
98206.8
98189.1
98176.9
98158.7
98145.1
98126.8
98109.8
98088.5
98063.2
98041
98020.6
98275
98268.7
98258.3
98249.8
98237.2
98226.1
98211.3
98198.8
98183
98169.5
98154.1
98139.1
98124.5
98107
98092.7
98071.7
98061.4
98046.5
98264.3
98258.6
98248.9
98240.3
98228.5
98217
98203.4
98190.3
98176.3
98161.9
98148.8
98133.2
98121.7
98104.4
98095.6
98077.8
98076.1
98061.2
98253.4
98248
98239.2
98230.2
98219.4
98207.6
98195.1
98181.6
98169
98154.4
98143
98127.5
98117.8
98101.8
98095.5
98081.4
98081.1
98069.2
98239.8
98234.3
98226.6
98217.6
98207.7
98195.9
98184.4
98170.9
98159.6
98145.1
98135.2
98120.2
98112.1
98097.7
98092.7
98080.9
98080.2
98071.9
98222.9
98217.4
98210.8
98202
98192.9
98181.5
98170.7
98157.8
98147.2
98133.7
98124.3
98111.2
98103.1
98091.6
98086
98077.5
98074.8
98069.6
98202.3
98196.6
98191.3
98182.9
98174.5
98163.5
98153.6
98141.3
98131.7
98119.2
98110.5
98099.1
98091.5
98082.2
98076.5
98070.1
98066.5
98062.9
98177.5
98172.2
98167.6
98160.1
98152.2
98142.2
98132.8
98121.9
98112.7
98102.1
98093.6
98084.3
98077.1
98069.9
98064.4
98059.6
98056
98053.3
98149.2
98144.4
98140.4
98133.9
98126.6
98117.8
98109.1
98099.6
98091.1
98082.1
98074.4
98066.9
98060.5
98054.7
98050.1
98046.3
98043.3
98041.2
98119.1
98115.3
98111.6
98106.1
98099.7
98092.1
98084.3
98076.2
98068.6
98061.1
98054.4
98048.3
98043
98038.5
98034.8
98031.9
98029.6
98028.2
98091.3
98088.6
98085.2
98080.7
98075.1
98068.6
98061.8
98054.9
98048.4
98042.2
98036.6
98031.6
98027.4
98023.8
98020.9
98018.8
98017.2
98016.3
98072.7
98070.8
98068
98064.1
98059.2
98053.5
98047.6
98041.6
98036
98030.7
98026
98021.8
98018.2
98015.3
98013
98011.3
98010.2
98009.6
98073
98071.3
98068.7
98065
98060.3
98055
98049.4
98043.8
98038.5
98033.6
98029.1
98025.2
98021.8
98019
98016.8
98015.1
98013.9
98013.2
98092.7
98090.9
98088
98084.1
98079.1
98073.6
98067.8
98062
98056.4
98051.2
98046.4
98042.2
98038.4
98035.3
98032.6
98030.5
98028.8
98027.5
98123.5
98121.3
98117.9
98113.4
98108
98102
98095.7
98089.3
98083.2
98077.3
98071.9
98067
98062.6
98058.8
98055.4
98052.6
98050.2
98048.3
98158.3
98155.8
98151.7
98146.5
98140.5
98133.8
98126.8
98119.9
98113
98106.5
98100.4
98094.7
98089.6
98085
98080.9
98077.3
98074.1
98071.4
98192.3
98189.2
98184.4
98178.5
98171.8
98164.6
98157.1
98149.5
98142
98134.8
98128
98121.6
98115.8
98110.4
98105.6
98101.3
98097.4
98094
98222.5
98218.8
98213.3
98206.8
98199.6
98191.8
98183.8
98175.7
98167.7
98159.9
98152.5
98145.5
98139.1
98133.1
98127.6
98122.7
98118.2
98114.2
98247.8
98243.5
98237.2
98230.1
98222.4
98214.3
98205.9
98197.4
98188.9
98180.7
98172.8
98165.4
98158.4
98151.9
98146
98140.5
98135.5
98131
98268.1
98262.9
98255.8
98248.1
98240.1
98231.7
98223.1
98214.3
98205.6
98197
98188.7
98180.9
98173.5
98166.7
98160.3
98154.5
98149.1
98144.2
98283.8
98277.4
98269.4
98261.2
98253
98244.6
98235.8
98226.8
98217.8
98209
98200.5
98192.4
98184.8
98177.6
98171
98164.8
98159.2
98154
98295.6
98287.7
98278.7
98270.2
98261.9
98253.4
98244.5
98235.5
98226.4
98217.4
98208.7
98200.5
98192.6
98185.3
98178.4
98172.1
98166.2
98160.8
98304.3
98294.5
98284.4
98275.7
98267.5
98259
98250.1
98241
98231.9
98222.8
98214
98205.6
98197.7
98190.2
98183.2
98176.8
98170.8
98165.3
98310.4
98298.3
98287.1
98278.5
98270.5
98262.1
98253.3
98244.2
98235
98225.9
98217.1
98208.6
98200.6
98193
98186
98179.4
98173.4
98167.8
98316.3
98300.8
98288.7
98279.9
98271.7
98263.4
98254.6
98245.5
98236.3
98227.2
98218.3
98209.8
98201.8
98194.2
98187.1
98180.6
98174.5
98168.9
98313.4
98313
98312.3
98311.1
98309.6
98307.8
98305.5
98302.9
98299.9
98296.4
98292.6
98288.3
98283.7
98278.8
98273.6
98268.1
98262.4
98256.5
98250.4
98244.1
98237.7
98231.1
98224.4
98217.6
98210.7
98203.7
98196.7
98189.6
98182.5
98175.5
98168.4
98161.3
98154.3
98147.3
98140.5
98133.7
98127.1
98120.6
98114.3
98108.1
98102.2
98096.5
98091.1
98086
98081.1
98076.7
98072.6
98068.9
98065.6
98062.7
98060.3
98058.4
98057
98056.2
98055.9
98056.2
98057.2
98058.8
98061.1
98064
98067.7
98072.1
98077.2
98083
98089.5
98096.8
98104.7
98113.4
98122.7
98132.6
98143.2
98154.4
98166.2
98178.4
98191.2
98204.4
98218
98232
98246.3
98260.9
98275.7
98290.7
98305.9
98321.1
98336.3
98351.6
98366.8
98381.8
98396.7
98411.4
98425.9
98440
98453.8
98467.1
98480
98492.4
98504.3
98515.7
98526.4
98536.6
98546.1
98554.9
98563.2
98570.7
98577.7
98584
98589.7
98594.8
98599.4
98603.5
98607.2
98610.4
98613.2
98615.7
98617.9
98619.8
98621.4
98622.8
98624.1
98625.2
98626.3
98627.3
98628.5
98629.8
98631.4
98633.4
98636.1
98639.5
98643.9
98649.5
98656.6
98665.3
98676
98688.8
98704.2
98722.2
98743
98766.7
98793.5
98823.3
98856.3
98892.1
98931
98972.5
99016.8
99063.3
99112.2
99162.9
99215.5
99269.7
99325.1
99381.5
99438.5
99495.8
99553
99609.7
99665.1
99718.8
99769.8
99817.7
99861.2
99899.6
99931.7
99956.7
99973.6
99981.1
99978.5
99965.5
99941.5
99906.9
99861.5
99806.8
99742.9
99672.2
99595.3
99514.8
99430.3
99345.6
99258.8
99175.7
98306.4
98306.1
98305.3
98304.1
98302.6
98300.7
98298.5
98295.9
98292.9
98289.5
98285.7
98281.6
98277.1
98272.3
98267.2
98261.9
98256.4
98250.6
98244.7
98238.6
98232.4
98226
98219.5
98212.8
98206.1
98199.3
98192.4
98185.5
98178.6
98171.6
98164.7
98157.8
98150.9
98144.1
98137.4
98130.8
98124.3
98118
98111.8
98105.8
98100
98094.4
98089.1
98084
98079.3
98074.9
98070.9
98067.2
98063.9
98061.1
98058.7
98056.8
98055.4
98054.5
98054.2
98054.5
98055.4
98057
98059.2
98062.1
98065.6
98069.9
98074.9
98080.5
98086.9
98094.1
98101.9
98110.3
98119.5
98129.3
98139.7
98150.6
98162.2
98174.3
98186.8
98199.8
98213.2
98227
98241
98255.4
98269.9
98284.7
98299.6
98314.5
98329.5
98344.5
98359.4
98374.2
98388.8
98403.2
98417.3
98431.2
98444.6
98457.7
98470.3
98482.5
98494.1
98505.2
98515.7
98525.5
98534.8
98543.5
98551.5
98558.9
98565.6
98571.8
98577.3
98582.3
98586.8
98590.8
98594.4
98597.5
98600.2
98602.6
98604.8
98606.6
98608.2
98609.5
98610.7
98611.8
98612.8
98613.7
98614.8
98616
98617.4
98619.2
98621.7
98624.8
98628.9
98634.1
98640.8
98649.1
98659.3
98671.6
98686.3
98703.6
98723.7
98746.7
98772.7
98801.6
98833.6
98868.4
98906.2
98946.6
98989.8
99035.2
99083
99132.5
99183.9
99236.9
99291.2
99346.4
99402.3
99458.6
99514.8
99570.4
99624.9
99677.8
99728.1
99775.4
99818.5
99856.6
99888.6
99913.8
99930.9
99939
99937.3
99925.4
99902.7
99869.6
99825.8
99772.8
99710.7
99641.8
99566.6
99487.9
99405
99321.8
99236
99151.1
98293.7
98293.4
98292.6
98291.4
98289.8
98287.8
98285.5
98282.9
98279.8
98276.5
98272.7
98268.7
98264.4
98259.8
98255
98249.9
98244.7
98239.3
98233.7
98228
98222.1
98216.1
98210
98203.7
98197.4
98190.9
98184.4
98177.8
98171.1
98164.5
98157.8
98151.2
98144.6
98138
98131.6
98125.2
98118.9
98112.8
98106.9
98101.1
98095.5
98090.1
98084.9
98080
98075.4
98071.2
98067.2
98063.6
98060.4
98057.6
98055.3
98053.3
98051.9
98051
98050.6
98050.8
98051.6
98053
98055.1
98057.8
98061.2
98065.2
98070
98075.4
98081.6
98088.4
98095.9
98104.1
98112.9
98122.4
98132.4
98143
98154.2
98165.9
98178
98190.6
98203.6
98216.9
98230.5
98244.4
98258.5
98272.8
98287.2
98301.7
98316.1
98330.6
98345
98359.2
98373.3
98387.2
98400.7
98414
98426.9
98439.4
98451.5
98463.1
98474.2
98484.7
98494.7
98504.1
98512.9
98521.1
98528.7
98535.7
98542.2
98548
98553.3
98558
98562.3
98566.1
98569.4
98572.4
98575
98577.3
98579.3
98581
98582.4
98583.6
98584.7
98585.6
98586.4
98587.1
98587.9
98588.8
98589.9
98591.3
98593.2
98595.8
98599.3
98603.8
98609.7
98617
98626.2
98637.4
98650.9
98666.9
98685.5
98706.9
98731.1
98758.2
98788.3
98821.2
98856.8
98895.1
98936
98979.1
99024.5
99071.7
99120.8
99171.4
99223.3
99276.2
99329.9
99384
99438.1
99491.7
99544.3
99595.5
99644.2
99690.1
99732.1
99769.4
99800.8
99826
99843.5
99852.3
99851.9
99841.8
99821.4
99791
99750.3
99700.7
99642.1
99577
99505.4
99430.1
99350.7
99270.7
99187.8
99103.9
98276.2
98275.9
98275.2
98274
98272.4
98270.4
98268.1
98265.4
98262.4
98259.1
98255.4
98251.5
98247.4
98243.1
98238.5
98233.8
98228.9
98223.9
98218.7
98213.4
98208
98202.5
98196.8
98191
98185.1
98179.2
98173.1
98167
98160.8
98154.6
98148.4
98142.3
98136.1
98129.9
98123.8
98117.8
98111.9
98106.1
98100.5
98095
98089.6
98084.4
98079.5
98074.8
98070.4
98066.2
98062.4
98058.9
98055.8
98053.1
98050.7
98048.8
98047.3
98046.3
98045.9
98045.9
98046.6
98047.9
98049.7
98052.2
98055.3
98059.1
98063.5
98068.6
98074.3
98080.8
98087.9
98095.6
98104
98113
98122.6
98132.7
98143.3
98154.5
98166.1
98178
98190.4
98203.1
98216.1
98229.3
98242.8
98256.4
98270.1
98283.8
98297.6
98311.3
98325
98338.5
98351.8
98364.9
98377.8
98390.3
98402.4
98414.2
98425.5
98436.3
98446.6
98456.4
98465.7
98474.5
98482.6
98490.2
98497.3
98503.8
98509.7
98515.1
98520
98524.3
98528.3
98531.7
98534.8
98537.5
98539.9
98542
98543.8
98545.3
98546.6
98547.6
98548.5
98549.1
98549.7
98550.1
98550.5
98550.9
98551.5
98552.3
98553.5
98555.3
98557.9
98561.4
98566.1
98572.1
98579.9
98589.5
98601.3
98615.4
98631.9
98651.1
98673
98697.6
98725.1
98755.1
98787.9
98823.2
98861.1
98901.1
98943.3
98987.3
99033.1
99080.6
99129.3
99179.1
99229.8
99281
99332.1
99383
99432.9
99481.7
99528.3
99572.3
99612.6
99648.7
99679.3
99704.1
99721.8
99731.4
99732.4
99724.3
99706.7
99679.5
99642.7
99597.4
99543.5
99483.2
99416.4
99346
99271.2
99195.7
99117
99037
98255.1
98254.8
98254.1
98252.9
98251.4
98249.5
98247.2
98244.6
98241.7
98238.4
98235
98231.2
98227.3
98223.2
98218.9
98214.5
98210
98205.4
98200.6
98195.8
98190.9
98185.8
98180.7
98175.4
98170.1
98164.6
98159.1
98153.6
98148
98142.4
98136.8
98131.1
98125.5
98119.9
98114.3
98108.8
98103.3
98098
98092.8
98087.6
98082.6
98077.8
98073.1
98068.7
98064.5
98060.5
98056.9
98053.5
98050.5
98047.8
98045.5
98043.6
98042.1
98041
98040.4
98040.4
98040.8
98041.9
98043.5
98045.7
98048.4
98051.8
98055.8
98060.5
98065.8
98071.7
98078.3
98085.5
98093.3
98101.7
98110.6
98120.1
98130.1
98140.5
98151.4
98162.7
98174.3
98186.2
98198.3
98210.8
98223.3
98236.1
98248.9
98261.7
98274.6
98287.4
98300.1
98312.7
98325.1
98337.3
98349.2
98360.8
98372
98382.8
98393.2
98403.1
98412.6
98421.5
98429.9
98437.8
98445.2
98452.1
98458.4
98464.2
98469.5
98474.4
98478.7
98482.6
98486.1
98489.2
98491.9
98494.3
98496.4
98498.3
98499.8
98501.1
98502.1
98502.8
98503.4
98503.7
98503.9
98503.9
98503.8
98503.7
98503.6
98503.7
98504.1
98504.9
98506.3
98508.6
98511.9
98516.4
98522.4
98530.1
98539.7
98551.5
98565.6
98582.1
98601.2
98622.7
98647
98673.7
98703
98734.7
98768.9
98805.2
98843.5
98883.8
98925.8
98969.4
99014.4
99060.5
99107.5
99155.1
99202.7
99250.2
99297
99342.8
99386.8
99428.4
99466.7
99501.1
99530.6
99554.7
99572.4
99582.7
99585
99579.1
99564.4
99541.1
99508.7
99468.3
99419.8
99365.2
99304.1
99239.7
99170.7
99100.9
99027.6
98953
98231.6
98231.4
98230.8
98229.7
98228.3
98226.5
98224.4
98221.9
98219.2
98216.1
98212.8
98209.3
98205.6
98201.8
98197.8
98193.7
98189.5
98185.3
98180.9
98176.5
98172
98167.4
98162.8
98158
98153.2
98148.4
98143.5
98138.5
98133.5
98128.5
98123.5
98118.5
98113.4
98108.4
98103.4
98098.5
98093.6
98088.7
98084
98079.3
98074.8
98070.3
98066
98061.9
98058
98054.3
98050.8
98047.6
98044.7
98042.2
98039.9
98038
98036.4
98035.3
98034.6
98034.4
98034.6
98035.4
98036.7
98038.6
98041
98043.9
98047.5
98051.6
98056.4
98061.7
98067.7
98074.2
98081.3
98089
98097.2
98105.9
98115.1
98124.8
98134.8
98145.2
98155.9
98166.9
98178.2
98189.6
98201.2
98212.9
98224.7
98236.5
98248.3
98260.1
98271.8
98283.3
98294.6
98305.7
98316.5
98327
98337.1
98346.9
98356.2
98365.1
98373.5
98381.5
98389
98396
98402.5
98408.5
98414
98419.1
98423.7
98427.9
98431.6
98434.9
98437.9
98440.6
98442.9
98444.9
98446.7
98448.2
98449.3
98450.3
98450.9
98451.4
98451.5
98451.5
98451.2
98450.7
98450
98449.3
98448.5
98447.7
98447.1
98446.8
98446.9
98447.7
98449.4
98452.2
98456.2
98461.7
98469
98478.2
98489.5
98503
98518.9
98537.1
98557.8
98580.8
98606.3
98634
98664
98696.2
98730.4
98766.5
98804.2
98843.6
98884.5
98926.5
98969.4
99012.9
99056.7
99100.5
99143.9
99186.2
99227.1
99266
99301.9
99334.3
99362.3
99385.5
99402.9
99413.6
99417.2
99413.6
99401.8
99382.4
99354.5
99319.4
99276.6
99228.2
99173.5
99115.7
99053.3
98990
98923.1
98855.1
98207.1
98207
98206.5
98205.5
98204.3
98202.6
98200.7
98198.5
98195.9
98193.1
98190.1
98186.9
98183.5
98179.9
98176.3
98172.5
98168.7
98164.8
98160.8
98156.7
98152.7
98148.5
98144.3
98140.1
98135.8
98131.5
98127.1
98122.8
98118.4
98113.9
98109.5
98105.1
98100.6
98096.2
98091.8
98087.4
98083.1
98078.8
98074.5
98070.3
98066.2
98062.2
98058.3
98054.5
98050.9
98047.5
98044.3
98041.3
98038.5
98036
98033.8
98031.9
98030.4
98029.2
98028.3
98028
98028
98028.5
98029.5
98031
98033
98035.5
98038.5
98042.1
98046.3
98051
98056.3
98062.1
98068.5
98075.4
98082.8
98090.7
98099
98107.7
98116.8
98126.3
98136
98146
98156.2
98166.6
98177.1
98187.7
98198.4
98209.1
98219.8
98230.3
98240.8
98251.1
98261.3
98271.2
98280.8
98290.1
98299.1
98307.7
98315.9
98323.7
98331
98337.9
98344.4
98350.4
98356
98361.1
98365.8
98370
98373.9
98377.3
98380.4
98383.1
98385.6
98387.7
98389.6
98391.1
98392.4
98393.5
98394.3
98394.8
98395.1
98395.1
98394.8
98394.3
98393.5
98392.4
98391.1
98389.6
98388
98386.3
98384.6
98383.1
98381.8
98381
98381
98381.9
98383.8
98387
98391.7
98398.2
98406.5
98416.9
98429.4
98444
98461
98480.1
98501.6
98525.1
98550.9
98578.7
98608.5
98640.2
98673.6
98708.6
98745.1
98782.8
98821.3
98860.7
98900.4
98940.3
98979.9
99018.6
99056
99091.8
99125.1
99155.2
99181.3
99203.2
99219.9
99230.9
99235.6
99233.9
99225
99209.3
99185.8
99156
99119
99076.8
99028.8
98978.1
98922.6
98866.4
98806.4
98745.7
98182.9
98182.9
98182.5
98181.7
98180.6
98179.2
98177.5
98175.5
98173.2
98170.7
98168
98165.1
98162
98158.8
98155.5
98152
98148.5
98145
98141.4
98137.7
98134
98130.3
98126.5
98122.7
98118.9
98115.1
98111.3
98107.4
98103.5
98099.6
98095.7
98091.8
98087.9
98084.1
98080.2
98076.4
98072.5
98068.7
98065
98061.2
98057.5
98053.9
98050.4
98046.9
98043.6
98040.5
98037.5
98034.7
98032.1
98029.7
98027.5
98025.6
98024
98022.8
98021.8
98021.3
98021.1
98021.4
98022
98023.1
98024.7
98026.8
98029.3
98032.4
98035.9
98040
98044.6
98049.7
98055.3
98061.4
98067.9
98074.9
98082.3
98090.1
98098.3
98106.7
98115.4
98124.4
98133.5
98142.8
98152.2
98161.6
98171.1
98180.6
98190.1
98199.4
98208.7
98217.7
98226.6
98235.3
98243.7
98251.7
98259.5
98266.9
98273.9
98280.5
98286.8
98292.6
98298
98303
98307.6
98311.8
98315.6
98319
98322.1
98324.8
98327.1
98329.2
98331
98332.6
98333.9
98335
98335.8
98336.3
98336.7
98336.7
98336.5
98336.1
98335.3
98334.3
98332.9
98331.2
98329.2
98326.9
98324.3
98321.6
98318.8
98315.9
98313.3
98310.9
98309.1
98308
98307.7
98308.5
98310.7
98314.3
98319.7
98326.9
98335.9
98347
98360.1
98375.4
98392.9
98412.3
98433.7
98457.2
98482.5
98510
98539
98569.5
98601.6
98634.9
98669
98704.1
98739.7
98775.6
98811.3
98846.2
98880.1
98912.4
98942.7
98970.3
98994.1
99014.4
99030.1
99041
99046.4
99046.3
99039.9
99027.5
99008.1
98983.2
98951.8
98915.9
98874.6
98830.9
98782.5
98733.6
98680.9
98627.8
98160.1
98160.1
98159.8
98159.1
98158.2
98157
98155.6
98153.9
98151.9
98149.7
98147.3
98144.7
98142
98139.1
98136.1
98133.1
98129.9
98126.7
98123.5
98120.2
98116.9
98113.5
98110.2
98106.8
98103.5
98100.1
98096.7
98093.3
98089.9
98086.5
98083.1
98079.7
98076.2
98072.8
98069.4
98066.1
98062.7
98059.3
98055.9
98052.6
98049.2
98046
98042.7
98039.6
98036.6
98033.6
98030.8
98028.2
98025.7
98023.4
98021.3
98019.4
98017.8
98016.4
98015.3
98014.6
98014.2
98014.2
98014.5
98015.3
98016.5
98018.1
98020.1
98022.6
98025.6
98029
98033
98037.3
98042.2
98047.5
98053.2
98059.3
98065.8
98072.6
98079.8
98087.3
98094.9
98102.8
98110.9
98119
98127.3
98135.6
98143.9
98152.2
98160.4
98168.5
98176.5
98184.3
98191.9
98199.3
98206.4
98213.2
98219.8
98225.9
98231.8
98237.2
98242.3
98247
98251.3
98255.3
98258.9
98262.1
98265.1
98267.6
98269.9
98271.8
98273.5
98274.9
98276
98277
98277.7
98278.3
98278.5
98278.5
98278.3
98277.8
98277.1
98276.1
98274.7
98273.1
98271.1
98268.7
98265.9
98262.7
98259.2
98255.4
98251.4
98247.3
98243.2
98239.3
98235.7
98232.7
98230.2
98228.7
98228.3
98229.3
98231.7
98235.7
98241.4
98249
98258.4
98269.9
98283.5
98298.9
98316.2
98335.4
98356.5
98379.7
98404.4
98430.7
98458.4
98487.4
98517.3
98548.2
98579.6
98611.6
98643.2
98674.2
98704.4
98733.3
98760.2
98785
98806.4
98824.6
98839
98849.2
98854.9
98855.9
98851.4
98841.7
98826.1
98805.7
98779.3
98749.4
98714.7
98677.8
98636.4
98594.9
98549.5
98504.3
98139.4
98139.5
98139.3
98138.8
98138.1
98137.1
98135.9
98134.5
98132.8
98130.9
98128.9
98126.6
98124.2
98121.7
98119.1
98116.4
98113.6
98110.8
98107.9
98105
98102.1
98099.1
98096.2
98093.2
98090.3
98087.3
98084.3
98081.3
98078.3
98075.3
98072.3
98069.2
98066.2
98063.2
98060.2
98057.1
98054.1
98051.1
98048
98045
98041.9
98038.9
98036
98033
98030.2
98027.4
98024.8
98022.2
98019.8
98017.5
98015.4
98013.5
98011.8
98010.4
98009.2
98008.3
98007.7
98007.4
98007.4
98007.9
98008.7
98009.8
98011.4
98013.4
98015.8
98018.7
98022
98025.7
98029.8
98034.3
98039.2
98044.5
98050.1
98056
98062.3
98068.7
98075.4
98082.3
98089.2
98096.3
98103.4
98110.6
98117.7
98124.8
98131.8
98138.7
98145.5
98152.1
98158.4
98164.5
98170.4
98176
98181.3
98186.3
98190.9
98195.2
98199.1
98202.7
98206
98208.9
98211.5
98213.8
98215.8
98217.5
98218.9
98220.1
98221
98221.7
98222.2
98222.5
98222.6
98222.5
98222.1
98221.6
98220.8
98219.7
98218.4
98216.7
98214.7
98212.4
98209.6
98206.5
98202.8
98198.8
98194.3
98189.4
98184.3
98179
98173.6
98168.2
98162.9
98158
98153.5
98149.8
98146.9
98145.2
98144.9
98145.9
98148.4
98152.7
98158.7
98166.6
98176.3
98188.1
98201.5
98216.8
98233.9
98253.1
98273.7
98296
98319.5
98344.3
98370.1
98397
98424.4
98452.3
98479.9
98507.2
98533.6
98558.8
98582.4
98604.1
98622.9
98638.7
98651.2
98660.4
98665.6
98667.1
98663.9
98656.4
98643.8
98627.4
98605.7
98581.3
98552.6
98522.1
98487.4
98453.1
98414.9
98377.4
98121.6
98121.7
98121.6
98121.2
98120.7
98119.9
98118.9
98117.7
98116.4
98114.8
98113.1
98111.2
98109.2
98107
98104.8
98102.5
98100.1
98097.6
98095.1
98092.6
98090.1
98087.5
98084.9
98082.4
98079.8
98077.1
98074.5
98071.8
98069.1
98066.5
98063.8
98061
98058.3
98055.6
98052.9
98050.1
98047.3
98044.5
98041.7
98038.9
98036.1
98033.2
98030.4
98027.6
98024.9
98022.3
98019.7
98017.2
98014.8
98012.5
98010.4
98008.4
98006.7
98005.1
98003.7
98002.6
98001.8
98001.3
98001.1
98001.2
98001.6
98002.4
98003.6
98005.1
98007
98009.3
98012
98015.1
98018.5
98022.3
98026.5
98031
98035.8
98040.9
98046.2
98051.8
98057.5
98063.4
98069.4
98075.4
98081.5
98087.5
98093.6
98099.5
98105.4
98111.1
98116.7
98122.1
98127.2
98132.1
98136.8
98141.2
98145.3
98149.1
98152.5
98155.7
98158.5
98161
98163.2
98165
98166.6
98168
98169.1
98169.9
98170.5
98170.8
98171
98170.9
98170.7
98170.3
98169.7
98168.9
98167.9
98166.7
98165.3
98163.6
98161.5
98159.2
98156.4
98153.3
98149.8
98145.8
98141.4
98136.4
98131
98125.1
98119
98112.4
98105.7
98098.9
98092
98085.4
98079.1
98073.4
98068.3
98064.2
98061.2
98059.5
98059
98060.3
98063.1
98067.7
98074.1
98082.3
98092.3
98104
98117.5
98133
98149.9
98168.4
98188
98209
98231
98253.9
98277.5
98301.4
98325.1
98348.7
98371.2
98392.7
98412.8
98431.3
98447.2
98460.4
98470.6
98478.1
98482.1
98483.4
98480.9
98475
98464.9
98451.7
98434.1
98414.6
98391.3
98366.8
98338.3
98310.8
98279.5
98249.5
98106.9
98107.1
98107.1
98106.8
98106.4
98105.8
98105.1
98104.2
98103.1
98101.8
98100.4
98098.9
98097.2
98095.5
98093.6
98091.7
98089.7
98087.6
98085.5
98083.4
98081.2
98079
98076.8
98074.6
98072.3
98070
98067.6
98065.2
98062.8
98060.4
98058
98055.5
98053
98050.5
98047.9
98045.3
98042.7
98040.1
98037.4
98034.7
98032
98029.2
98026.5
98023.8
98021.1
98018.5
98015.9
98013.4
98011
98008.6
98006.4
98004.4
98002.5
98000.8
97999.3
97998
97997
97996.3
97995.8
97995.6
97995.7
97996.2
97997
97998.1
97999.6
98001.4
98003.6
98006.1
98008.9
98012.1
98015.6
98019.4
98023.4
98027.8
98032.3
98037
98041.9
98046.8
98051.9
98057
98062.1
98067.1
98072.1
98077
98081.8
98086.4
98090.9
98095.2
98099.2
98103
98106.5
98109.7
98112.7
98115.3
98117.6
98119.7
98121.4
98122.8
98124
98124.8
98125.4
98125.8
98125.9
98125.9
98125.6
98125.1
98124.4
98123.5
98122.5
98121.4
98120
98118.5
98116.8
98114.9
98112.7
98110.3
98107.5
98104.4
98100.9
98097.1
98092.7
98087.9
98082.6
98076.8
98070.5
98063.6
98056.4
98048.8
98040.9
98032.8
98024.6
98016.4
98008.4
98000.9
97993.9
97987.5
97982.2
97978
97975
97973.5
97973.5
97975.2
97978.5
97983.7
97990.6
97999.2
98009.5
98021.6
98035.2
98050.4
98066.5
98084
98102.4
98121.5
98141.5
98161.7
98181.6
98201.5
98220.2
98237.8
98254.4
98269.3
98282.1
98292.4
98300
98305.3
98307.7
98308
98305.4
98300.5
98292.2
98281.7
98267.5
98252.1
98233.5
98214.3
98191.6
98170.5
98145.5
98122.6
98095.5
98095.7
98095.8
98095.6
98095.3
98094.9
98094.4
98093.7
98092.9
98091.9
98090.9
98089.7
98088.4
98087
98085.5
98084
98082.4
98080.8
98079.1
98077.3
98075.6
98073.7
98071.9
98069.9
98068
98065.9
98063.8
98061.7
98059.5
98057.3
98055
98052.7
98050.3
98047.9
98045.5
98043
98040.4
98037.8
98035.2
98032.5
98029.8
98027.1
98024.3
98021.6
98018.9
98016.2
98013.6
98011
98008.5
98006.1
98003.8
98001.6
97999.6
97997.7
97996.1
97994.6
97993.4
97992.5
97991.8
97991.3
97991.2
97991.4
97991.8
97992.6
97993.7
97995.1
97996.8
97998.8
98001.2
98003.8
98006.7
98009.9
98013.3
98017
98020.8
98024.7
98028.8
98033
98037.2
98041.4
98045.6
98049.8
98053.9
98057.8
98061.6
98065.2
98068.7
98071.9
98074.8
98077.5
98080
98082.1
98084
98085.5
98086.8
98087.8
98088.5
98088.9
98089
98088.8
98088.4
98087.9
98087.1
98086.1
98084.9
98083.5
98082
98080.4
98078.5
98076.5
98074.4
98072.1
98069.6
98066.9
98063.9
98060.7
98057.1
98053.3
98049
98044.3
98039.2
98033.6
98027.4
98020.8
98013.6
98005.9
97997.7
97989.1
97980.1
97970.9
97961.4
97951.9
97942.5
97933.3
97924.6
97916.4
97909
97902.7
97897.5
97893.7
97891.2
97890.4
97891.2
97893.7
97897.9
97903.7
97911.2
97920.4
97931
97943
97956.1
97970.4
97985.4
98001.3
98017.8
98034.4
98050.8
98067
98081.9
98095.8
98108.5
98119.8
98129.3
98136.5
98141.3
98144.2
98144.4
98143.1
98139.8
98135.1
98127.9
98119.4
98108
98096
98081.4
98067
98049.4
98033.9
98014.7
97998.7
98087.1
98087.3
98087.4
98087.4
98087.3
98087.1
98086.7
98086.3
98085.8
98085.1
98084.4
98083.6
98082.7
98081.7
98080.7
98079.6
98078.4
98077.2
98075.9
98074.6
98073.2
98071.7
98070.1
98068.5
98066.8
98065
98063.1
98061.2
98059.2
98057.1
98054.9
98052.7
98050.4
98048
98045.6
98043.1
98040.5
98037.9
98035.2
98032.5
98029.7
98026.9
98024.1
98021.2
98018.4
98015.6
98012.9
98010.2
98007.5
98005
98002.5
98000.2
97998
97996
97994.2
97992.6
97991.2
97990.1
97989.2
97988.5
97988.2
97988.1
97988.3
97988.8
97989.6
97990.6
97992
97993.6
97995.5
97997.7
98000.1
98002.8
98005.7
98008.7
98011.9
98015.2
98018.6
98022.1
98025.6
98029.1
98032.5
98035.9
98039.1
98042.2
98045.1
98047.8
98050.2
98052.5
98054.5
98056.2
98057.6
98058.8
98059.6
98060.2
98060.4
98060.4
98060.1
98059.5
98058.6
98057.5
98056.1
98054.6
98052.9
98051
98048.9
98046.7
98044.3
98041.8
98039.1
98036.2
98033.2
98030.1
98026.8
98023.2
98019.4
98015.3
98010.9
98006.2
98001.2
97995.7
97989.7
97983.3
97976.3
97968.9
97960.9
97952.4
97943.4
97933.9
97924
97913.8
97903.4
97892.7
97882.1
97871.6
97861.3
97851.6
97842.5
97834.4
97827.4
97821.6
97817.1
97814.1
97812.8
97813.1
97814.9
97818.3
97823.3
97829.8
97837.8
97847
97857.4
97868.8
97880.9
97893.8
97907
97920.2
97933.2
97945.8
97957
97967.1
97976
97983.7
97989.6
97993.6
97995.3
97995.7
97993.6
97990.2
97985.8
97980.6
97973.9
97966.6
97957.4
97948.1
97936.7
97926.3
97913.2
97902.9
97888.9
97879
98081.1
98081.4
98081.6
98081.7
98081.7
98081.6
98081.5
98081.3
98081.1
98080.8
98080.5
98080.1
98079.7
98079.2
98078.6
98078
98077.3
98076.5
98075.6
98074.7
98073.7
98072.6
98071.3
98070
98068.5
98066.9
98065.2
98063.4
98061.5
98059.5
98057.4
98055.2
98052.9
98050.5
98048
98045.4
98042.8
98040
98037.2
98034.4
98031.5
98028.5
98025.6
98022.6
98019.6
98016.6
98013.7
98010.8
98008
98005.3
98002.7
98000.3
97997.9
97995.8
97993.8
97992
97990.5
97989.2
97988.1
97987.3
97986.7
97986.4
97986.4
97986.7
97987.2
97988
97989.1
97990.4
97992
97993.8
97995.8
97998.1
98000.5
98003.1
98005.8
98008.5
98011.4
98014.2
98017.1
98019.9
98022.7
98025.3
98027.8
98030.1
98032.2
98034.1
98035.7
98037.1
98038.2
98039
98039.5
98039.7
98039.6
98039.3
98038.6
98037.6
98036.4
98034.8
98033
98030.9
98028.6
98026.2
98023.5
98020.7
98017.7
98014.6
98011.4
98008
98004.4
98000.7
97996.8
97992.8
97988.6
97984.1
97979.5
97974.5
97969.3
97963.7
97957.8
97951.5
97944.8
97937.5
97929.8
97921.6
97912.9
97903.8
97894
97883.8
97873.2
97862.2
97850.9
97839.4
97827.7
97816.1
97804.6
97793.6
97783.3
97773.8
97765.2
97757.7
97751.6
97746.9
97743.7
97742
97741.8
97743.2
97746
97750.3
97755.9
97762.6
97770.5
97779.5
97789
97798.9
97809
97819
97828.7
97837.8
97845.5
97852
97857.1
97861
97863.3
97863.8
97862.5
97860.2
97855.7
97850.2
97844.1
97837.9
97831.1
97824.5
97816.6
97809.4
97800.6
97793.8
97784.4
97778.6
97769.2
97764.9
98076.8
98077.1
98077.3
98077.5
98077.6
98077.8
98078
98078.2
98078.4
98078.6
98078.8
98078.9
98079.1
98079.1
98079.1
98078.9
98078.7
98078.4
98078
98077.4
98076.7
98075.9
98075
98073.9
98072.6
98071.2
98069.6
98067.9
98066.1
98064.1
98062
98059.7
98057.4
98054.9
98052.3
98049.6
98046.8
98044
98041
98038
98034.9
98031.8
98028.6
98025.4
98022.3
98019.1
98016
98012.9
98009.9
98007.1
98004.3
98001.7
97999.2
97996.9
97994.8
97992.9
97991.2
97989.8
97988.5
97987.6
97986.9
97986.4
97986.2
97986.3
97986.7
97987.3
97988.1
97989.2
97990.5
97992.1
97993.8
97995.7
97997.8
97999.9
98002.2
98004.6
98006.9
98009.3
98011.6
98013.9
98016
98018
98019.8
98021.4
98022.8
98024
98024.9
98025.5
98025.8
98025.8
98025.5
98024.8
98023.9
98022.7
98021.1
98019.3
98017.1
98014.7
98012
98009
98005.8
98002.4
97998.9
97995.2
97991.4
97987.4
97983.2
97979
97974.5
97969.9
97965.2
97960.2
97955.1
97949.8
97944.2
97938.4
97932.3
97926
97919.2
97912.1
97904.6
97896.6
97888.2
97879.4
97870.1
97860.2
97849.9
97839.1
97827.9
97816.3
97804.3
97792.1
97779.7
97767.2
97754.9
97742.9
97731.5
97720.9
97711.1
97702.3
97694.8
97688.7
97683.9
97680.6
97678.7
97678.3
97679.3
97681.7
97685.2
97689.8
97695.5
97702.2
97709.3
97716.4
97723.5
97730.4
97737
97742.7
97747
97750.1
97751.4
97751.6
97750.1
97747.2
97742.8
97737.6
97730.6
97723
97715
97707.6
97700.2
97693.8
97686.6
97680.9
97674.2
97670
97663.7
97662
97656.6
97657.2
98073
98073.2
98073.4
98073.6
98073.9
98074.4
98075
98075.8
98076.6
98077.5
98078.4
98079.3
98080.1
98080.8
98081.3
98081.8
98082.1
98082.2
98082.2
98082
98081.6
98081.1
98080.4
98079.5
98078.4
98077.1
98075.6
98074
98072.2
98070.2
98068
98065.7
98063.3
98060.7
98058
98055.2
98052.2
98049.2
98046
98042.8
98039.5
98036.2
98032.9
98029.5
98026.1
98022.8
98019.4
98016.2
98013.1
98010
98007.1
98004.3
98001.7
97999.3
97997.1
97995
97993.2
97991.7
97990.4
97989.3
97988.5
97987.9
97987.6
97987.6
97987.8
97988.2
97988.9
97989.9
97991
97992.3
97993.8
97995.5
97997.3
97999.1
98001.1
98003
98005
98006.9
98008.8
98010.5
98012.2
98013.6
98014.9
98015.9
98016.7
98017.2
98017.4
98017.3
98016.9
98016.1
98015.1
98013.7
98012
98009.9
98007.6
98004.9
98002
97998.7
97995.2
97991.4
97987.3
97983.1
97978.7
97974.2
97969.5
97964.6
97959.6
97954.5
97949.2
97943.7
97938.1
97932.3
97926.3
97920
97913.6
97907
97900.1
97892.9
97885.4
97877.6
97869.3
97860.7
97851.7
97842.3
97832.4
97822
97811.2
97799.9
97788.3
97776.2
97763.7
97750.9
97737.9
97724.9
97711.9
97699.3
97687.2
97675.6
97664.8
97655
97646.4
97639
97632.8
97628.2
97624.9
97623
97622.4
97623.1
97624.8
97627.5
97631.3
97635.9
97640.8
97645.3
97649.6
97653.5
97657
97659.6
97660.8
97660.5
97658.2
97654.6
97649.5
97643.2
97635.5
97627.3
97617.9
97608.1
97598.2
97589.5
97581.2
97574.5
97567.7
97563.1
97557.8
97555.8
97552
97553.8
97551.9
97556.9
98068.2
98068.2
98068.2
98068.6
98069.3
98070.6
98072
98073.8
98075.5
98077.4
98079.1
98080.8
98082.4
98083.8
98084.9
98085.9
98086.7
98087.2
98087.6
98087.7
98087.6
98087.3
98086.8
98086.1
98085.1
98083.9
98082.5
98080.9
98079.1
98077
98074.9
98072.5
98070
98067.3
98064.4
98061.5
98058.4
98055.1
98051.8
98048.4
98045
98041.5
98037.9
98034.4
98030.8
98027.3
98023.8
98020.4
98017.1
98013.9
98010.9
98008
98005.3
98002.7
98000.4
97998.3
97996.4
97994.8
97993.4
97992.3
97991.4
97990.8
97990.4
97990.2
97990.4
97990.7
97991.3
97992.1
97993.1
97994.3
97995.6
97997.1
97998.6
98000.2
98001.8
98003.5
98005.1
98006.6
98008.1
98009.4
98010.6
98011.5
98012.3
98012.8
98013
98012.9
98012.5
98011.8
98010.7
98009.3
98007.6
98005.5
98003.1
98000.3
97997.2
97993.8
97990.1
97986.1
97981.8
97977.2
97972.4
97967.4
97962.2
97956.8
97951.3
97945.7
97939.9
97933.9
97927.8
97921.5
97915
97908.4
97901.6
97894.5
97887.3
97879.9
97872.2
97864.3
97856.1
97847.6
97838.7
97829.5
97819.9
97810
97799.7
97788.9
97777.7
97766.1
97754.1
97741.7
97728.7