/*--------------------------------*- C++ -*----------------------------------*\
| =========                 |                                                 |
| \\      /  F ield         | OpenFOAM: The Open Source CFD Toolbox           |
|  \\    /   O peration     | Version:  dev                                   |
|   \\  /    A nd           | Web:      http://www.openfoam.org               |
|    \\/     M anipulation  |                                                 |
\*---------------------------------------------------------------------------*/
FoamFile
{
    version     2.0;
    format      ascii;
    class       volScalarField;
    object      pPrime2Mean;
    location    "9.128";
}
// * * * * * * * * * * * * * * * * * * * * * * * * * * * * * * * * * * * * * //

dimensions      [2 -2 -4 0 0 0 0];

internalField   nonuniform List<scalar> 
12225
(
5.0385e+07
4.992e+07
4.89594e+07
4.76082e+07
4.59546e+07
4.40877e+07
4.20669e+07
3.99641e+07
3.78202e+07
3.56831e+07
3.35906e+07
3.15456e+07
2.9622e+07
2.77508e+07
2.6003e+07
2.44419e+07
2.28798e+07
2.12992e+07
5.02771e+07
4.98121e+07
4.88522e+07
4.75028e+07
4.58506e+07
4.39862e+07
4.19682e+07
3.9868e+07
3.7728e+07
3.55935e+07
3.35057e+07
3.14644e+07
2.95455e+07
2.76811e+07
2.59508e+07
2.43898e+07
2.28806e+07
2.15456e+07
5.00268e+07
4.95624e+07
4.8603e+07
4.72566e+07
4.56089e+07
4.37493e+07
4.1738e+07
3.96441e+07
3.75122e+07
3.53859e+07
3.33065e+07
3.12769e+07
2.9364e+07
2.75169e+07
2.58065e+07
2.42504e+07
2.2815e+07
2.16011e+07
4.95908e+07
4.91294e+07
4.81723e+07
4.68311e+07
4.51914e+07
4.33402e+07
4.13406e+07
3.92572e+07
3.71401e+07
3.50272e+07
3.29637e+07
3.0952e+07
2.90563e+07
2.72285e+07
2.55478e+07
2.40165e+07
2.26298e+07
2.15283e+07
4.89253e+07
4.8464e+07
4.75117e+07
4.618e+07
4.45521e+07
4.27154e+07
4.07316e+07
3.86676e+07
3.65695e+07
3.44808e+07
3.24376e+07
3.04566e+07
2.85836e+07
2.67919e+07
2.51635e+07
2.36546e+07
2.23732e+07
2.13083e+07
4.79754e+07
4.75116e+07
4.65688e+07
4.52505e+07
4.36405e+07
4.18237e+07
3.98646e+07
3.78261e+07
3.57582e+07
3.36992e+07
3.16902e+07
2.97434e+07
2.79087e+07
2.61636e+07
2.45847e+07
2.31453e+07
2.19184e+07
2.08617e+07
4.66795e+07
4.62144e+07
4.52871e+07
4.39851e+07
4.24013e+07
4.06101e+07
3.86867e+07
3.66816e+07
3.46566e+07
3.26366e+07
3.0676e+07
2.87749e+07
2.69915e+07
2.53042e+07
2.37824e+07
2.24032e+07
2.12347e+07
2.02066e+07
4.52365e+07
4.47729e+07
4.3862e+07
4.25779e+07
4.10227e+07
3.92612e+07
3.73763e+07
3.54102e+07
3.34305e+07
3.14567e+07
2.9546e+07
2.76986e+07
2.59668e+07
2.43427e+07
2.28693e+07
2.15534e+07
2.04175e+07
1.94577e+07
4.37206e+07
4.32605e+07
4.23658e+07
4.11015e+07
3.95759e+07
3.78469e+07
3.60014e+07
3.40777e+07
3.21442e+07
3.022e+07
2.83603e+07
2.65685e+07
2.48905e+07
2.33272e+07
2.19059e+07
2.06461e+07
1.95522e+07
1.86536e+07
4.17791e+07
4.13257e+07
4.04505e+07
3.92137e+07
3.77246e+07
3.60396e+07
3.42429e+07
3.23754e+07
3.04992e+07
2.86399e+07
2.68431e+07
2.51229e+07
2.3511e+07
2.20225e+07
2.06675e+07
1.94754e+07
1.84384e+07
1.75857e+07
3.93287e+07
3.88854e+07
3.80337e+07
3.68337e+07
3.53905e+07
3.37626e+07
3.2028e+07
3.02315e+07
2.84285e+07
2.66495e+07
2.4933e+07
2.32989e+07
2.17708e+07
2.03684e+07
1.90966e+07
1.79813e+07
1.70112e+07
1.62047e+07
3.63032e+07
3.58748e+07
3.50513e+07
3.39003e+07
3.25143e+07
3.09597e+07
2.93025e+07
2.75952e+07
2.58827e+07
2.42027e+07
2.25844e+07
2.10533e+07
1.96262e+07
1.83231e+07
1.7148e+07
1.6117e+07
1.52227e+07
1.44694e+07
3.26878e+07
3.2278e+07
3.14909e+07
3.0401e+07
2.90873e+07
2.76217e+07
2.60604e+07
2.44597e+07
2.28574e+07
2.12939e+07
1.97925e+07
1.83805e+07
1.70698e+07
1.58791e+07
1.48105e+07
1.38732e+07
1.30622e+07
1.23741e+07
2.85734e+07
2.81864e+07
2.74461e+07
2.64286e+07
2.52033e+07
2.38412e+07
2.23939e+07
2.09153e+07
1.94412e+07
1.80087e+07
1.66402e+07
1.53589e+07
1.41768e+07
1.31068e+07
1.21518e+07
1.13149e+07
1.05927e+07
9.9788e+06
2.42459e+07
2.38854e+07
2.32011e+07
2.22644e+07
2.11393e+07
1.98915e+07
1.85698e+07
1.72236e+07
1.58873e+07
1.45936e+07
1.3364e+07
1.2218e+07
1.11664e+07
1.02181e+07
9.37558e+06
8.63892e+06
8.00487e+06
7.46677e+06
2.02962e+07
1.99644e+07
1.93397e+07
1.84848e+07
1.74612e+07
1.63265e+07
1.51286e+07
1.39106e+07
1.27061e+07
1.15432e+07
1.04425e+07
9.41973e+06
8.48485e+06
7.64389e+06
6.89876e+06
6.24816e+06
5.68894e+06
5.21486e+06
1.77288e+07
1.74225e+07
1.68481e+07
1.60611e+07
1.51198e+07
1.40762e+07
1.29756e+07
1.18571e+07
1.07523e+07
9.68627e+06
8.67803e+06
7.7411e+06
6.88421e+06
6.11213e+06
5.42622e+06
4.8251e+06
4.30578e+06
3.86292e+06
1.78371e+07
1.75427e+07
1.69904e+07
1.62331e+07
1.53265e+07
1.43199e+07
1.32568e+07
1.21742e+07
1.11022e+07
1.00644e+07
9.07864e+06
8.1575e+06
7.30912e+06
6.53799e+06
5.84551e+06
5.23084e+06
4.69147e+06
4.22306e+06
2.07164e+07
2.04175e+07
1.98554e+07
1.9083e+07
1.8157e+07
1.71264e+07
1.60348e+07
1.49187e+07
1.38081e+07
1.27263e+07
1.16911e+07
1.07149e+07
9.8061e+06
8.96946e+06
8.20689e+06
7.51831e+06
6.90188e+06
6.35422e+06
2.52072e+07
2.48954e+07
2.43054e+07
2.34918e+07
2.25142e+07
2.14234e+07
2.02638e+07
1.90733e+07
1.78822e+07
1.67145e+07
1.55885e+07
1.45173e+07
1.35096e+07
1.25709e+07
1.17038e+07
1.0909e+07
1.01853e+07
9.53032e+06
3.02709e+07
2.9945e+07
2.93217e+07
2.84587e+07
2.74186e+07
2.62545e+07
2.50129e+07
2.37329e+07
2.24461e+07
2.11776e+07
1.99463e+07
1.87662e+07
1.76468e+07
1.65942e+07
1.56119e+07
1.47011e+07
1.38616e+07
1.30917e+07
3.5189e+07
3.48513e+07
3.4197e+07
3.32869e+07
3.21866e+07
3.09513e+07
2.96295e+07
2.82617e+07
2.68813e+07
2.55142e+07
2.41804e+07
2.28946e+07
2.16672e+07
2.05051e+07
1.94123e+07
1.8391e+07
1.74414e+07
1.65625e+07
3.95419e+07
3.9196e+07
3.85162e+07
3.75663e+07
3.64144e+07
3.51173e+07
3.37254e+07
3.22807e+07
3.08177e+07
2.93637e+07
2.79395e+07
2.65605e+07
2.52381e+07
2.39796e+07
2.27899e+07
2.16717e+07
2.06257e+07
1.96515e+07
4.31407e+07
4.27896e+07
4.20905e+07
4.11097e+07
3.99166e+07
3.85697e+07
3.71207e+07
3.56131e+07
3.40825e+07
3.2557e+07
3.10583e+07
2.96026e+07
2.82019e+07
2.68641e+07
2.55947e+07
2.43968e+07
2.32717e+07
2.22192e+07
4.59514e+07
4.55974e+07
4.48845e+07
4.38808e+07
4.26567e+07
4.12716e+07
3.97787e+07
3.82224e+07
3.66393e+07
3.50583e+07
3.35017e+07
3.19863e+07
3.05247e+07
2.91253e+07
2.77939e+07
2.6534e+07
2.53472e+07
2.42338e+07
4.80313e+07
4.76757e+07
4.69532e+07
4.59333e+07
4.46868e+07
4.32741e+07
4.1749e+07
4.0157e+07
3.85353e+07
3.69134e+07
3.53141e+07
3.37549e+07
3.22483e+07
3.08035e+07
2.94265e+07
2.8121e+07
2.68888e+07
2.57305e+07
4.94815e+07
4.9125e+07
4.83958e+07
4.7365e+07
4.61032e+07
4.46716e+07
4.31245e+07
4.1508e+07
3.98596e+07
3.82094e+07
3.65806e+07
3.49909e+07
3.34533e+07
3.1977e+07
3.05683e+07
2.92312e+07
2.79676e+07
2.67781e+07
5.04172e+07
5.00597e+07
4.93263e+07
4.82888e+07
4.70173e+07
4.55736e+07
4.40126e+07
4.23805e+07
4.07151e+07
3.90469e+07
3.73992e+07
3.57899e+07
3.42323e+07
3.27358e+07
3.13067e+07
2.99493e+07
2.86655e+07
2.74561e+07
5.09467e+07
5.05889e+07
4.9854e+07
4.88133e+07
4.75364e+07
4.60862e+07
4.45173e+07
4.28762e+07
4.12011e+07
3.95224e+07
3.78638e+07
3.62433e+07
3.46742e+07
3.3166e+07
3.17253e+07
3.03561e+07
2.90609e+07
2.78405e+07
5.11691e+07
5.08127e+07
5.00759e+07
4.90335e+07
4.7754e+07
4.6301e+07
4.47287e+07
4.30837e+07
4.14044e+07
3.97212e+07
3.80579e+07
3.64326e+07
3.48586e+07
3.33454e+07
3.18996e+07
3.05256e+07
2.92257e+07
2.80008e+07
6.0493e+07
6.04339e+07
6.03031e+07
6.00973e+07
5.98144e+07
5.94538e+07
5.90156e+07
5.85005e+07
5.79097e+07
5.72445e+07
5.65069e+07
5.5699e+07
5.48231e+07
5.38817e+07
5.28777e+07
5.18139e+07
5.06937e+07
4.95205e+07
4.8298e+07
4.70301e+07
4.57208e+07
4.43741e+07
4.29942e+07
4.15856e+07
4.01528e+07
3.87001e+07
3.72323e+07
3.57537e+07
3.42687e+07
3.2782e+07
3.12981e+07
2.98217e+07
2.83573e+07
2.69095e+07
2.5483e+07
2.40822e+07
2.27118e+07
2.13765e+07
2.0081e+07
1.88302e+07
1.76288e+07
1.64817e+07
1.53939e+07
1.43705e+07
1.34167e+07
1.25376e+07
1.17385e+07
1.10249e+07
1.04021e+07
9.87558e+06
9.45081e+06
9.13322e+06
8.92819e+06
8.841e+06
8.87673e+06
9.04021e+06
9.33598e+06
9.7683e+06
1.0341e+07
1.10574e+07
1.19202e+07
1.29316e+07
1.40929e+07
1.5405e+07
1.68678e+07
1.84805e+07
2.02414e+07
2.2148e+07
2.41974e+07
2.63855e+07
2.87079e+07
3.11592e+07
3.37336e+07
3.64246e+07
3.92253e+07
4.21286e+07
4.51269e+07
4.82124e+07
5.13774e+07
5.46138e+07
5.79136e+07
6.12685e+07
6.46703e+07
6.81103e+07
7.158e+07
7.50703e+07
7.85723e+07
8.20764e+07
8.55726e+07
8.90504e+07
9.24991e+07
9.59071e+07
9.92623e+07
1.02552e+08
1.05765e+08
1.08887e+08
1.11905e+08
1.14809e+08
1.17586e+08
1.20226e+08
1.2272e+08
1.25058e+08
1.27235e+08
1.29244e+08
1.31082e+08
1.32747e+08
1.34239e+08
1.3556e+08
1.36716e+08
1.37714e+08
1.38565e+08
1.39279e+08
1.39871e+08
1.40354e+08
1.40746e+08
1.41063e+08
1.41325e+08
1.41554e+08
1.41774e+08
1.4201e+08
1.42294e+08
1.42657e+08
1.43137e+08
1.43772e+08
1.44607e+08
1.4569e+08
1.47073e+08
1.48813e+08
1.5097e+08
1.53606e+08
1.56786e+08
1.60571e+08
1.65023e+08
1.70199e+08
1.76151e+08
1.82926e+08
1.90559e+08
1.99077e+08
2.08495e+08
2.18815e+08
2.30033e+08
2.42124e+08
2.55062e+08
2.68805e+08
2.8331e+08
2.98515e+08
3.14371e+08
3.30807e+08
3.47759e+08
3.65153e+08
3.82915e+08
4.00962e+08
4.19203e+08
4.37545e+08
4.55867e+08
4.74029e+08
4.91867e+08
5.09213e+08
5.25832e+08
5.4149e+08
5.55889e+08
5.68728e+08
5.79667e+08
5.88382e+08
5.94538e+08
5.97839e+08
5.98024e+08
5.94911e+08
5.88375e+08
5.78441e+08
5.65192e+08
5.48893e+08
5.29863e+08
5.08596e+08
4.85564e+08
4.61294e+08
4.3615e+08
4.10571e+08
3.84765e+08
3.59059e+08
5.94171e+07
5.93615e+07
5.92363e+07
5.90363e+07
5.87599e+07
5.8407e+07
5.79781e+07
5.74744e+07
5.68971e+07
5.62476e+07
5.55276e+07
5.47391e+07
5.38844e+07
5.29657e+07
5.19857e+07
5.09471e+07
4.98531e+07
4.87069e+07
4.7512e+07
4.62723e+07
4.49915e+07
4.36736e+07
4.23229e+07
4.09436e+07
3.95399e+07
3.81165e+07
3.66775e+07
3.52274e+07
3.37704e+07
3.23111e+07
3.08538e+07
2.94032e+07
2.79638e+07
2.65401e+07
2.51366e+07
2.37578e+07
2.24083e+07
2.10927e+07
1.98157e+07
1.85819e+07
1.73963e+07
1.62637e+07
1.5189e+07
1.41772e+07
1.32336e+07
1.23632e+07
1.15715e+07
1.08638e+07
1.02454e+07
9.72188e+06
9.29866e+06
8.98116e+06
8.77476e+06
8.68468e+06
8.71605e+06
8.87374e+06
9.16232e+06
9.586e+06
1.01486e+07
1.08534e+07
1.17031e+07
1.26999e+07
1.38452e+07
1.51396e+07
1.65832e+07
1.81751e+07
1.99138e+07
2.17966e+07
2.38206e+07
2.59818e+07
2.82757e+07
3.0697e+07
3.32399e+07
3.58979e+07
3.86643e+07
4.15318e+07
4.4493e+07
4.75403e+07
5.06658e+07
5.38614e+07
5.71193e+07
6.04311e+07
6.37887e+07
6.71837e+07
7.06073e+07
7.40509e+07
7.75052e+07
8.09609e+07
8.44081e+07
8.78364e+07
9.12352e+07
9.4593e+07
9.7898e+07
1.01138e+08
1.043e+08
1.07373e+08
1.10343e+08
1.13199e+08
1.1593e+08
1.18526e+08
1.20976e+08
1.23274e+08
1.25413e+08
1.27386e+08
1.29192e+08
1.30827e+08
1.32291e+08
1.33588e+08
1.34722e+08
1.35702e+08
1.36537e+08
1.37237e+08
1.37818e+08
1.38292e+08
1.38675e+08
1.38985e+08
1.3924e+08
1.39462e+08
1.39674e+08
1.39901e+08
1.40173e+08
1.40523e+08
1.40985e+08
1.41599e+08
1.42408e+08
1.43459e+08
1.44803e+08
1.46496e+08
1.48598e+08
1.5117e+08
1.54276e+08
1.57976e+08
1.62331e+08
1.67398e+08
1.73228e+08
1.79866e+08
1.87349e+08
1.95703e+08
2.04944e+08
2.15073e+08
2.26085e+08
2.37959e+08
2.50667e+08
2.64171e+08
2.78427e+08
2.93373e+08
3.0896e+08
3.25125e+08
3.41801e+08
3.58915e+08
3.76396e+08
3.94162e+08
4.12126e+08
4.30196e+08
4.48253e+08
4.66159e+08
4.83753e+08
5.00871e+08
5.17286e+08
5.32763e+08
5.47016e+08
5.5975e+08
5.70625e+08
5.79325e+08
5.8552e+08
5.88924e+08
5.89275e+08
5.86399e+08
5.80164e+08
5.70582e+08
5.57727e+08
5.41855e+08
5.23272e+08
5.0246e+08
4.79879e+08
4.56038e+08
4.31304e+08
4.06106e+08
3.80653e+08
3.55185e+08
5.73502e+07
5.72971e+07
5.71775e+07
5.6986e+07
5.67212e+07
5.63836e+07
5.59744e+07
5.54945e+07
5.4945e+07
5.43269e+07
5.36419e+07
5.28915e+07
5.20777e+07
5.12026e+07
5.02685e+07
4.92778e+07
4.82335e+07
4.71386e+07
4.59963e+07
4.48102e+07
4.35839e+07
4.23214e+07
4.10265e+07
3.97033e+07
3.83559e+07
3.69881e+07
3.56042e+07
3.42082e+07
3.28045e+07
3.13974e+07
2.99912e+07
2.85903e+07
2.71991e+07
2.58219e+07
2.4463e+07
2.31269e+07
2.18178e+07
2.05403e+07
1.9299e+07
1.80985e+07
1.69436e+07
1.5839e+07
1.47897e+07
1.38006e+07
1.28768e+07
1.20236e+07
1.12463e+07
1.05501e+07
9.94048e+06
9.42287e+06
9.0027e+06
8.68538e+06
8.47633e+06
8.38077e+06
8.4038e+06
8.5503e+06
8.82482e+06
9.23158e+06
9.7744e+06
1.04565e+07
1.12807e+07
1.22489e+07
1.33626e+07
1.46225e+07
1.60285e+07
1.75797e+07
1.92745e+07
2.11104e+07
2.30845e+07
2.51928e+07
2.74307e+07
2.97931e+07
3.22742e+07
3.48675e+07
3.75665e+07
4.0364e+07
4.32527e+07
4.62251e+07
4.92734e+07
5.23897e+07
5.55661e+07
5.87944e+07
6.20665e+07
6.5374e+07
6.87086e+07
7.20614e+07
7.54236e+07
7.87857e+07
8.21381e+07
8.54707e+07
8.87728e+07
9.20333e+07
9.52407e+07
9.83833e+07
1.01449e+08
1.04425e+08
1.073e+08
1.10063e+08
1.12704e+08
1.15211e+08
1.17578e+08
1.19796e+08
1.21859e+08
1.23763e+08
1.25504e+08
1.27079e+08
1.2849e+08
1.2974e+08
1.30832e+08
1.31776e+08
1.3258e+08
1.33254e+08
1.33813e+08
1.34268e+08
1.34636e+08
1.34931e+08
1.35172e+08
1.35379e+08
1.35575e+08
1.35785e+08
1.36034e+08
1.36356e+08
1.36783e+08
1.37353e+08
1.38108e+08
1.39093e+08
1.40359e+08
1.41959e+08
1.4395e+08
1.46394e+08
1.49351e+08
1.52883e+08
1.57046e+08
1.61896e+08
1.67483e+08
1.73851e+08
1.81037e+08
1.89066e+08
1.97954e+08
2.07704e+08
2.1831e+08
2.29752e+08
2.42007e+08
2.55038e+08
2.68798e+08
2.83233e+08
2.98288e+08
3.13913e+08
3.3004e+08
3.46597e+08
3.63515e+08
3.80721e+08
3.98129e+08
4.15648e+08
4.33164e+08
4.50548e+08
4.67641e+08
4.84284e+08
5.00261e+08
5.15341e+08
5.29261e+08
5.41728e+08
5.5242e+08
5.61035e+08
5.67253e+08
5.70802e+08
5.71433e+08
5.68971e+08
5.63282e+08
5.54354e+08
5.4226e+08
5.27225e+08
5.09535e+08
4.89645e+08
4.6798e+08
4.45019e+08
4.21136e+08
3.96731e+08
3.7203e+08
3.47204e+08
5.44543e+07
5.4405e+07
5.42928e+07
5.41135e+07
5.38665e+07
5.35528e+07
5.31732e+07
5.27281e+07
5.22184e+07
5.16449e+07
5.10088e+07
5.03115e+07
4.95542e+07
4.87389e+07
4.78676e+07
4.69425e+07
4.59664e+07
4.4942e+07
4.38722e+07
4.27603e+07
4.16098e+07
4.04242e+07
3.9207e+07
3.79619e+07
3.66922e+07
3.54018e+07
3.40944e+07
3.27741e+07
3.14448e+07
3.01107e+07
2.87761e+07
2.74448e+07
2.6121e+07
2.48088e+07
2.35123e+07
2.22355e+07
2.09829e+07
1.97587e+07
1.85674e+07
1.74135e+07
1.63017e+07
1.52365e+07
1.42228e+07
1.32656e+07
1.237e+07
1.15411e+07
1.0784e+07
1.01041e+07
9.50684e+06
8.9976e+06
8.58179e+06
8.26483e+06
8.05208e+06
7.94877e+06
7.95995e+06
8.09052e+06
8.34506e+06
8.72775e+06
9.24236e+06
9.8921e+06
1.06797e+07
1.16071e+07
1.26758e+07
1.38864e+07
1.52388e+07
1.6732e+07
1.83644e+07
2.01337e+07
2.20368e+07
2.407e+07
2.62287e+07
2.85078e+07
3.09015e+07
3.34038e+07
3.60079e+07
3.8707e+07
4.14939e+07
4.43613e+07
4.73017e+07
5.0307e+07
5.33696e+07
5.64815e+07
5.96347e+07
6.28208e+07
6.60316e+07
6.92584e+07
7.24926e+07
7.57251e+07
7.89461e+07
8.21458e+07
8.53138e+07
8.84392e+07
9.1511e+07
9.45176e+07
9.74476e+07
1.00289e+08
1.03031e+08
1.05664e+08
1.08177e+08
1.10562e+08
1.1281e+08
1.14915e+08
1.16872e+08
1.18675e+08
1.20323e+08
1.21814e+08
1.23149e+08
1.24331e+08
1.25364e+08
1.26256e+08
1.27014e+08
1.27651e+08
1.28177e+08
1.28605e+08
1.28948e+08
1.29221e+08
1.2944e+08
1.29625e+08
1.29798e+08
1.2998e+08
1.30196e+08
1.30477e+08
1.30852e+08
1.31358e+08
1.32036e+08
1.32928e+08
1.34082e+08
1.3555e+08
1.37386e+08
1.39649e+08
1.42396e+08
1.45688e+08
1.4958e+08
1.54126e+08
1.59373e+08
1.65363e+08
1.72131e+08
1.79705e+08
1.881e+08
1.9732e+08
2.07358e+08
2.18199e+08
2.29822e+08
2.42195e+08
2.55267e+08
2.68992e+08
2.83313e+08
2.9819e+08
3.13557e+08
3.29348e+08
3.45492e+08
3.61926e+08
3.78567e+08
3.95325e+08
4.12091e+08
4.28747e+08
4.45141e+08
4.61116e+08
4.76474e+08
4.90991e+08
5.04421e+08
5.16485e+08
5.26888e+08
5.35343e+08
5.41546e+08
5.45243e+08
5.46194e+08
5.44231e+08
5.39222e+08
5.31138e+08
5.20039e+08
5.06117e+08
4.89633e+08
4.71001e+08
4.50602e+08
4.28878e+08
4.06191e+08
3.82918e+08
3.59295e+08
3.35475e+08
5.09299e+07
5.08859e+07
5.07839e+07
5.06209e+07
5.03972e+07
5.01132e+07
4.97694e+07
4.93659e+07
4.89036e+07
4.8383e+07
4.78047e+07
4.71698e+07
4.64794e+07
4.57352e+07
4.49389e+07
4.40926e+07
4.31983e+07
4.22587e+07
4.12764e+07
4.02542e+07
3.91952e+07
3.81024e+07
3.69788e+07
3.58276e+07
3.46518e+07
3.3455e+07
3.22405e+07
3.10122e+07
2.97738e+07
2.85291e+07
2.72818e+07
2.60356e+07
2.47941e+07
2.35613e+07
2.23408e+07
2.11368e+07
1.99532e+07
1.87943e+07
1.76642e+07
1.65674e+07
1.55082e+07
1.44914e+07
1.35215e+07
1.26035e+07
1.17423e+07
1.0943e+07
1.02107e+07
9.55087e+06
8.9687e+06
8.46966e+06
8.05912e+06
7.74247e+06
7.52506e+06
7.41211e+06
7.40864e+06
7.5195e+06
7.74923e+06
8.10195e+06
8.58139e+06
9.19079e+06
9.93279e+06
1.08094e+07
1.1822e+07
1.29712e+07
1.42567e+07
1.56777e+07
1.72326e+07
1.89191e+07
2.07342e+07
2.26741e+07
2.47344e+07
2.69101e+07
2.91957e+07
3.15851e+07
3.40718e+07
3.66492e+07
3.93103e+07
4.2048e+07
4.48548e+07
4.77232e+07
5.06455e+07
5.3614e+07
5.66207e+07
5.96575e+07
6.27164e+07
6.57886e+07
6.8866e+07
7.19394e+07
7.49995e+07
7.80366e+07
8.10408e+07
8.40015e+07
8.69081e+07
8.97493e+07
9.25143e+07
9.51924e+07
9.77733e+07
1.00247e+08
1.02605e+08
1.04839e+08
1.06941e+08
1.08908e+08
1.10734e+08
1.12414e+08
1.13948e+08
1.15334e+08
1.16574e+08
1.17671e+08
1.1863e+08
1.19456e+08
1.20157e+08
1.20745e+08
1.21229e+08
1.2162e+08
1.2193e+08
1.22173e+08
1.22365e+08
1.22521e+08
1.22661e+08
1.22807e+08
1.2298e+08
1.23208e+08
1.2352e+08
1.23949e+08
1.24532e+08
1.25309e+08
1.26327e+08
1.27634e+08
1.29281e+08
1.31324e+08
1.33815e+08
1.36816e+08
1.40378e+08
1.44552e+08
1.49385e+08
1.54916e+08
1.61179e+08
1.68203e+08
1.76002e+08
1.84582e+08
1.93938e+08
2.04056e+08
2.14916e+08
2.26493e+08
2.38741e+08
2.51615e+08
2.6506e+08
2.79041e+08
2.93501e+08
3.08378e+08
3.23601e+08
3.39112e+08
3.54835e+08
3.70682e+08
3.86548e+08
4.02325e+08
4.17872e+08
4.33037e+08
4.47639e+08
4.61466e+08
4.74283e+08
4.85836e+08
4.95859e+08
5.0408e+08
5.10219e+08
5.14035e+08
5.15304e+08
5.1387e+08
5.09607e+08
5.02472e+08
4.92507e+08
4.79867e+08
4.64792e+08
4.47642e+08
4.28752e+08
4.08529e+08
3.87301e+08
3.6542e+08
3.43134e+08
3.20604e+08
4.70002e+07
4.69631e+07
4.68737e+07
4.67299e+07
4.65322e+07
4.6281e+07
4.59763e+07
4.56184e+07
4.52076e+07
4.47441e+07
4.42284e+07
4.36614e+07
4.30442e+07
4.23778e+07
4.16637e+07
4.09036e+07
4.00995e+07
3.92533e+07
3.83673e+07
3.74441e+07
3.64861e+07
3.54957e+07
3.44756e+07
3.34282e+07
3.23566e+07
3.12637e+07
3.01528e+07
2.90272e+07
2.78903e+07
2.67452e+07
2.55953e+07
2.4444e+07
2.32945e+07
2.21505e+07
2.10154e+07
1.98929e+07
1.8787e+07
1.77014e+07
1.66403e+07
1.56077e+07
1.46081e+07
1.36457e+07
1.27251e+07
1.18513e+07
1.10288e+07
1.02629e+07
9.55857e+06
8.92114e+06
8.3559e+06
7.86821e+06
7.46344e+06
7.14696e+06
6.92409e+06
6.80001e+06
6.77971e+06
6.86795e+06
7.06925e+06
7.3877e+06
7.82695e+06
8.39018e+06
9.07999e+06
9.89837e+06
1.08466e+07
1.19254e+07
1.31344e+07
1.44729e+07
1.59391e+07
1.75308e+07
1.92451e+07
2.10783e+07
2.30261e+07
2.50837e+07
2.72456e+07
2.95059e+07
3.18586e+07
3.42971e+07
3.68146e+07
3.94042e+07
4.20587e+07
4.47709e+07
4.75331e+07
5.0338e+07
5.31776e+07
5.60444e+07
5.89302e+07
6.18267e+07
6.47257e+07
6.76184e+07
7.04958e+07
7.33484e+07
7.61667e+07
7.89409e+07
8.16607e+07
8.43154e+07
8.68947e+07
8.9389e+07
9.17886e+07
9.40848e+07
9.62689e+07
9.83339e+07
1.00273e+08
1.02084e+08
1.03761e+08
1.05303e+08
1.06707e+08
1.07975e+08
1.09107e+08
1.10108e+08
1.1098e+08
1.11729e+08
1.12364e+08
1.12894e+08
1.13326e+08
1.13672e+08
1.13941e+08
1.14147e+08
1.14303e+08
1.14423e+08
1.14524e+08
1.14625e+08
1.14747e+08
1.14915e+08
1.15154e+08
1.15495e+08
1.15973e+08
1.16623e+08
1.17487e+08
1.18613e+08
1.20048e+08
1.21844e+08
1.24051e+08
1.26726e+08
1.29918e+08
1.33678e+08
1.38048e+08
1.43067e+08
1.48769e+08
1.55182e+08
1.6232e+08
1.7019e+08
1.78791e+08
1.8811e+08
1.98129e+08
2.08828e+08
2.20166e+08
2.32106e+08
2.44593e+08
2.57593e+08
2.71059e+08
2.84932e+08
2.99148e+08
3.13648e+08
3.28362e+08
3.43205e+08
3.5808e+08
3.72884e+08
3.87492e+08
4.01753e+08
4.15503e+08
4.2855e+08
4.40666e+08
4.51622e+08
4.61184e+08
4.69099e+08
4.75113e+08
4.78996e+08
4.80546e+08
4.79628e+08
4.76113e+08
4.69949e+08
4.61159e+08
4.49874e+08
4.36302e+08
4.20751e+08
4.03511e+08
3.8495e+08
3.65353e+08
3.45046e+08
3.24278e+08
3.03238e+08
4.28903e+07
4.28607e+07
4.27848e+07
4.26614e+07
4.24908e+07
4.22733e+07
4.20089e+07
4.16976e+07
4.13393e+07
4.09342e+07
4.04827e+07
3.99855e+07
3.94432e+07
3.88569e+07
3.82276e+07
3.75566e+07
3.68455e+07
3.6096e+07
3.53099e+07
3.44891e+07
3.36355e+07
3.27512e+07
3.18381e+07
3.08987e+07
2.99354e+07
2.89509e+07
2.79481e+07
2.69297e+07
2.58986e+07
2.48576e+07
2.38097e+07
2.27578e+07
2.17049e+07
2.06541e+07
1.96088e+07
1.85723e+07
1.75482e+07
1.65401e+07
1.55517e+07
1.45871e+07
1.36502e+07
1.27453e+07
1.18769e+07
1.10497e+07
1.02682e+07
9.53751e+06
8.86268e+06
8.24891e+06
7.70144e+06
7.22563e+06
6.82679e+06
6.51024e+06
6.28126e+06
6.14499e+06
6.1064e+06
6.17019e+06
6.34082e+06
6.62232e+06
7.01827e+06
7.53181e+06
8.16545e+06
8.92113e+06
9.80011e+06
1.0803e+07
1.19296e+07
1.3179e+07
1.45497e+07
1.60392e+07
1.76448e+07
1.93628e+07
2.11892e+07
2.31193e+07
2.51477e+07
2.72688e+07
2.94766e+07
3.1765e+07
3.41273e+07
3.6557e+07
3.9047e+07
4.15902e+07
4.41794e+07
4.68075e+07
4.94667e+07
5.21496e+07
5.48484e+07
5.75551e+07
6.02615e+07
6.29593e+07
6.56396e+07
6.82934e+07
7.09118e+07
7.34852e+07
7.6004e+07
7.84586e+07
8.08393e+07
8.31371e+07
8.53433e+07
8.74502e+07
8.94499e+07
9.13363e+07
9.31039e+07
9.47492e+07
9.62693e+07
9.76631e+07
9.89302e+07
1.00071e+08
1.01088e+08
1.01983e+08
1.02761e+08
1.03428e+08
1.03988e+08
1.04452e+08
1.04825e+08
1.05118e+08
1.0534e+08
1.05502e+08
1.05616e+08
1.05694e+08
1.0575e+08
1.05801e+08
1.05866e+08
1.05967e+08
1.06127e+08
1.06375e+08
1.06741e+08
1.07256e+08
1.07959e+08
1.08894e+08
1.10104e+08
1.1164e+08
1.13548e+08
1.15881e+08
1.18686e+08
1.22009e+08
1.25893e+08
1.30375e+08
1.35489e+08
1.41262e+08
1.47709e+08
1.54839e+08
1.62651e+08
1.71139e+08
1.80286e+08
1.90074e+08
2.0047e+08
2.11441e+08
2.22938e+08
2.3493e+08
2.47369e+08
2.60206e+08
2.7338e+08
2.86836e+08
3.00504e+08
3.14304e+08
3.28147e+08
3.41938e+08
3.55558e+08
3.68865e+08
3.81706e+08
3.93909e+08
4.05262e+08
4.15558e+08
4.24585e+08
4.32122e+08
4.3794e+08
4.41822e+08
4.43591e+08
4.43129e+08
4.40309e+08
4.35071e+08
4.27424e+08
4.17483e+08
4.05419e+08
3.91494e+08
3.75952e+08
3.59119e+08
3.41235e+08
3.22599e+08
3.03455e+08
2.84024e+08
3.88134e+07
3.87913e+07
3.87288e+07
3.86255e+07
3.84817e+07
3.82973e+07
3.80722e+07
3.78061e+07
3.7499e+07
3.71511e+07
3.67625e+07
3.63336e+07
3.58649e+07
3.5357e+07
3.48108e+07
3.42272e+07
3.36075e+07
3.29528e+07
3.22645e+07
3.1544e+07
3.07929e+07
3.00126e+07
2.92051e+07
2.83721e+07
2.75158e+07
2.66386e+07
2.57427e+07
2.48305e+07
2.39043e+07
2.29666e+07
2.20198e+07
2.10667e+07
2.01097e+07
1.91519e+07
1.81961e+07
1.72453e+07
1.63028e+07
1.5372e+07
1.44562e+07
1.35593e+07
1.26851e+07
1.18378e+07
1.10215e+07
1.02408e+07
9.50028e+06
8.80484e+06
8.15946e+06
7.56928e+06
7.03948e+06
6.57536e+06
6.18221e+06
5.86528e+06
5.62979e+06
5.48084e+06
5.42334e+06
5.46199e+06
5.60114e+06
5.84474e+06
6.19634e+06
6.65897e+06
7.23509e+06
7.92654e+06
8.73457e+06
9.65971e+06
1.07018e+07
1.18598e+07
1.31323e+07
1.45169e+07
1.60107e+07
1.76104e+07
1.93119e+07
2.11106e+07
2.30014e+07
2.49789e+07
2.70374e+07
2.91707e+07
3.13727e+07
3.36368e+07
3.59565e+07
3.83249e+07
4.07349e+07
4.31797e+07
4.5652e+07
4.81443e+07
5.06491e+07
5.31589e+07
5.56655e+07
5.81611e+07
6.06371e+07
6.30851e+07
6.54966e+07
6.78624e+07
7.01737e+07
7.24219e+07
7.4598e+07
7.66939e+07
7.87018e+07
8.06148e+07
8.2426e+07
8.41303e+07
8.57228e+07
8.72003e+07
8.8561e+07
8.98043e+07
9.09311e+07
9.19421e+07
9.28391e+07
9.36255e+07
9.43054e+07
9.48834e+07
9.53653e+07
9.57578e+07
9.60671e+07
9.63016e+07
9.64704e+07
9.65829e+07
9.66485e+07
9.66789e+07
9.66859e+07
9.66835e+07
9.6688e+07
9.67196e+07
9.67987e+07
9.69497e+07
9.72002e+07
9.75794e+07
9.81207e+07
9.88636e+07
9.98495e+07
1.01124e+08
1.02733e+08
1.04722e+08
1.07138e+08
1.10023e+08
1.1342e+08
1.17365e+08
1.21891e+08
1.27024e+08
1.32781e+08
1.39173e+08
1.46201e+08
1.53863e+08
1.62143e+08
1.7103e+08
1.80494e+08
1.90505e+08
2.01024e+08
2.12022e+08
2.23451e+08
2.35264e+08
2.47407e+08
2.59828e+08
2.72456e+08
2.8522e+08
2.98035e+08
3.1081e+08
3.23431e+08
3.35765e+08
3.47675e+08
3.59002e+08
3.69552e+08
3.79141e+08
3.87576e+08
3.94667e+08
4.00211e+08
4.04009e+08
4.05915e+08
4.05815e+08
4.03593e+08
3.99185e+08
3.92594e+08
3.83916e+08
3.7329e+08
3.60942e+08
3.47068e+08
3.31949e+08
3.15786e+08
2.98848e+08
2.81366e+08
2.63593e+08
3.49568e+07
3.49415e+07
3.48913e+07
3.48067e+07
3.46878e+07
3.45343e+07
3.43458e+07
3.41222e+07
3.38633e+07
3.3569e+07
3.32393e+07
3.28745e+07
3.24746e+07
3.20403e+07
3.1572e+07
3.10704e+07
3.05362e+07
2.99703e+07
2.93737e+07
2.87474e+07
2.80926e+07
2.74104e+07
2.67022e+07
2.59697e+07
2.52144e+07
2.44384e+07
2.36435e+07
2.28314e+07
2.20044e+07
2.11642e+07
2.03132e+07
1.94536e+07
1.85876e+07
1.77179e+07
1.68469e+07
1.59774e+07
1.51124e+07
1.42549e+07
1.34081e+07
1.25755e+07
1.17609e+07
1.09681e+07
1.02014e+07
9.4649e+06
8.76331e+06
8.10135e+06
7.48391e+06
6.91604e+06
6.40287e+06
5.94963e+06
5.56154e+06
5.2438e+06
5.00159e+06
4.83999e+06
4.76382e+06
4.77772e+06
4.88597e+06
5.09247e+06
5.40064e+06
5.81342e+06
6.3332e+06
6.96175e+06
7.70023e+06
8.54907e+06
9.50807e+06
1.05763e+07
1.17521e+07
1.30333e+07
1.4417e+07
1.58997e+07
1.74776e+07
1.91463e+07
2.09009e+07
2.2736e+07
2.46461e+07
2.66253e+07
2.86676e+07
3.07669e+07
3.29165e+07
3.51102e+07
3.73411e+07
3.96025e+07
4.18874e+07
4.41886e+07
4.64989e+07
4.88109e+07
5.1117e+07
5.34095e+07
5.56805e+07
5.7922e+07
6.01258e+07
6.22836e+07
6.43874e+07
6.64292e+07
6.8401e+07
7.02954e+07
7.21056e+07
7.38255e+07
7.54492e+07
7.69724e+07
7.8391e+07
7.97023e+07
8.09054e+07
8.20002e+07
8.29878e+07
8.38693e+07
8.46469e+07
8.53236e+07
8.59034e+07
8.63908e+07
8.67911e+07
8.71094e+07
8.73512e+07
8.75234e+07
8.76345e+07
8.76928e+07
8.77064e+07
8.7685e+07
8.76389e+07
8.75799e+07
8.75225e+07
8.74839e+07
8.74817e+07
8.75371e+07
8.76748e+07
8.79214e+07
8.83067e+07
8.88662e+07
8.96377e+07
9.06625e+07
9.19829e+07
9.36418e+07
9.56817e+07
9.81455e+07
1.01073e+08
1.04501e+08
1.0846e+08
1.12976e+08
1.18069e+08
1.23751e+08
1.30027e+08
1.36896e+08
1.44348e+08
1.52373e+08
1.60948e+08
1.70045e+08
1.79631e+08
1.8968e+08
2.00148e+08
2.10984e+08
2.22141e+08
2.33566e+08
2.45197e+08
2.56963e+08
2.68782e+08
2.80565e+08
2.92205e+08
3.03575e+08
3.14556e+08
3.24996e+08
3.34725e+08
3.43576e+08
3.51375e+08
3.57957e+08
3.6315e+08
3.66778e+08
3.68718e+08
3.68866e+08
3.67118e+08
3.63414e+08
3.57753e+08
3.50212e+08
3.40906e+08
3.30025e+08
3.17729e+08
3.0425e+08
2.89755e+08
2.7448e+08
2.58644e+08
2.42521e+08
3.14722e+07
3.14626e+07
3.1423e+07
3.13549e+07
3.12582e+07
3.11324e+07
3.0977e+07
3.07918e+07
3.05763e+07
3.03304e+07
3.00539e+07
2.97468e+07
2.94091e+07
2.90411e+07
2.8643e+07
2.82151e+07
2.77579e+07
2.7272e+07
2.67579e+07
2.62163e+07
2.56482e+07
2.50543e+07
2.44358e+07
2.37938e+07
2.31298e+07
2.2445e+07
2.17411e+07
2.10195e+07
2.02819e+07
1.95299e+07
1.87653e+07
1.79902e+07
1.72064e+07
1.64162e+07
1.56218e+07
1.48258e+07
1.40307e+07
1.32394e+07
1.24549e+07
1.16805e+07
1.09197e+07
1.01763e+07
9.45432e+06
8.75785e+06
8.09139e+06
7.45959e+06
6.86729e+06
6.31943e+06
5.82107e+06
5.37734e+06
4.99342e+06
4.67446e+06
4.4256e+06
4.25185e+06
4.15802e+06
4.14861e+06
4.22786e+06
4.39954e+06
4.66699e+06
5.03301e+06
5.4999e+06
6.06934e+06
6.74238e+06
7.5194e+06
8.40008e+06
9.38344e+06
1.04678e+07
1.1651e+07
1.29301e+07
1.43016e+07
1.57618e+07
1.73064e+07
1.89306e+07
2.06293e+07
2.23969e+07
2.4228e+07
2.61166e+07
2.80566e+07
3.00419e+07
3.20663e+07
3.41233e+07
3.62065e+07
3.8309e+07
4.04239e+07
4.25445e+07
4.46634e+07
4.67737e+07
4.88679e+07
5.09386e+07
5.29782e+07
5.49792e+07
5.69341e+07
5.88353e+07
6.06757e+07
6.24482e+07
6.41463e+07
6.57637e+07
6.72953e+07
6.87365e+07
7.00834e+07
7.13331e+07
7.24831e+07
7.35333e+07
7.44837e+07
7.53358e+07
7.60909e+07
7.6751e+07
7.73193e+07
7.77995e+07
7.81959e+07
7.85129e+07
7.87549e+07
7.89267e+07
7.90345e+07
7.90852e+07
7.9086e+07
7.90443e+07
7.89678e+07
7.88661e+07
7.8749e+07
7.86295e+07
7.85217e+07
7.8441e+07
7.84057e+07
7.84374e+07
7.85605e+07
7.88016e+07
7.91922e+07
7.97663e+07
8.05604e+07
8.16135e+07
8.29662e+07
8.46582e+07
8.67298e+07
8.922e+07
9.21642e+07
9.55932e+07
9.95333e+07
1.04007e+08
1.09027e+08
1.14602e+08
1.20735e+08
1.27417e+08
1.34643e+08
1.42393e+08
1.50643e+08
1.59366e+08
1.68535e+08
1.7811e+08
1.88042e+08
1.9828e+08
2.08778e+08
2.19475e+08
2.30299e+08
2.41175e+08
2.52011e+08
2.62706e+08
2.73143e+08
2.83211e+08
2.92771e+08
3.01675e+08
3.09768e+08
3.16898e+08
3.22919e+08
3.27693e+08
3.31059e+08
3.32923e+08
3.33197e+08
3.3179e+08
3.28648e+08
3.2377e+08
3.17214e+08
3.09078e+08
2.99518e+08
2.88667e+08
2.76708e+08
2.63785e+08
2.50094e+08
2.35841e+08
2.21313e+08
2.84697e+07
2.84643e+07
2.84333e+07
2.83792e+07
2.83014e+07
2.81994e+07
2.80726e+07
2.79206e+07
2.77429e+07
2.75391e+07
2.73089e+07
2.70521e+07
2.67685e+07
2.6458e+07
2.61208e+07
2.57568e+07
2.53662e+07
2.49494e+07
2.45066e+07
2.40384e+07
2.35451e+07
2.30274e+07
2.24862e+07
2.19223e+07
2.13368e+07
2.07307e+07
2.01052e+07
1.94614e+07
1.88007e+07
1.81246e+07
1.74344e+07
1.67319e+07
1.60187e+07
1.52968e+07
1.45682e+07
1.38351e+07
1.31001e+07
1.23656e+07
1.16346e+07
1.09101e+07
1.01956e+07
9.49459e+06
8.81093e+06
8.14872e+06
7.51232e+06
6.90629e+06
6.33538e+06
5.80447e+06
5.31851e+06
4.88259e+06
4.50183e+06
4.18134e+06
3.92618e+06
3.74131e+06
3.63144e+06
3.60101e+06
3.65415e+06
3.79456e+06
4.02543e+06
4.34947e+06
4.76881e+06
5.28503e+06
5.89904e+06
6.6111e+06
7.42081e+06
8.32708e+06
9.3282e+06
1.04219e+07
1.16052e+07
1.28747e+07
1.42266e+07
1.56567e+07
1.71603e+07
1.87323e+07
2.03675e+07
2.20604e+07
2.38051e+07
2.55959e+07
2.74266e+07
2.92913e+07
3.1184e+07
3.30982e+07
3.50276e+07
3.69656e+07
3.89054e+07
4.08404e+07
4.27637e+07
4.46685e+07
4.65477e+07
4.83943e+07
5.02014e+07
5.1962e+07
5.36695e+07
5.53172e+07
5.68989e+07
5.84089e+07
5.98418e+07
6.11935e+07
6.24601e+07
6.36385e+07
6.47263e+07
6.57221e+07
6.66257e+07
6.74374e+07
6.8159e+07
6.87918e+07
6.93378e+07
6.98003e+07