/*--------------------------------*- C++ -*----------------------------------*\
| =========                 |                                                 |
| \\      /  F ield         | OpenFOAM: The Open Source CFD Toolbox           |
|  \\    /   O peration     | Version:  dev                                   |
|   \\  /    A nd           | Web:      http://www.openfoam.org               |
|    \\/     M anipulation  |                                                 |
\*---------------------------------------------------------------------------*/
FoamFile
{
    version     2.0;
    format      ascii;
    class       volScalarField;
    object      rho;
    location    "9.128";
}
// * * * * * * * * * * * * * * * * * * * * * * * * * * * * * * * * * * * * * //

dimensions      [1 -3 0 0 0 0 0];

internalField   nonuniform List<scalar> 
12225
(
1.07533
1.07845
1.07973
1.08171
1.08534
1.08859
1.09296
1.09722
1.10181
1.107
1.11124
1.11751
1.12147
1.12716
1.1337
1.1361
1.14656
1.14909
1.07815
1.08124
1.08197
1.08488
1.08807
1.09298
1.09657
1.10275
1.10596
1.11329
1.11565
1.12358
1.12719
1.13067
1.14123
1.14167
1.14718
1.15247
1.07789
1.08114
1.08205
1.08503
1.08877
1.09308
1.0979
1.10291
1.10856
1.11341
1.11955
1.12455
1.1306
1.13516
1.14191
1.14701
1.15371
1.16006
1.07788
1.08018
1.08309
1.08379
1.09002
1.09134
1.09903
1.10075
1.10919
1.11145
1.11982
1.12279
1.13192
1.13307
1.14372
1.14581
1.1503
1.16066
1.07921
1.07912
1.08355
1.08289
1.08952
1.09079
1.09794
1.10074
1.10765
1.11165
1.11823
1.1235
1.13015
1.13469
1.14323
1.14529
1.15191
1.15902
1.07962
1.0789
1.08359
1.08267
1.08928
1.09063
1.0977
1.10055
1.10754
1.11141
1.11863
1.12356
1.12956
1.13535
1.13998
1.14652
1.15114
1.15547
1.07948
1.07875
1.08381
1.08259
1.08951
1.09072
1.09781
1.10063
1.10783
1.11152
1.11854
1.12324
1.12925
1.13409
1.13898
1.14399
1.14954
1.15215
1.0794
1.07888
1.0838
1.08294
1.08944
1.09074
1.0975
1.10072
1.10766
1.11193
1.118
1.12315
1.12842
1.13346
1.13845
1.14321
1.14778
1.15283
1.07937
1.07872
1.08359
1.08331
1.08958
1.09054
1.09715
1.10058
1.10784
1.11181
1.11781
1.12266
1.12832
1.1325
1.13799
1.14259
1.14771
1.15241
1.07905
1.07884
1.08311
1.08343
1.08963
1.09084
1.09709
1.10068
1.10763
1.11154
1.11726
1.12204
1.12734
1.13179
1.13651
1.1414
1.14596
1.15047
1.07842
1.07887
1.08252
1.08335
1.08858
1.09104
1.09685
1.10077
1.1067
1.11093
1.11612
1.12088
1.1257
1.13046
1.13468
1.1397
1.14357
1.14782
1.07731
1.07906
1.08186
1.08378
1.08783
1.09118
1.09583
1.09985
1.1051
1.10968
1.11436
1.11899
1.12376
1.12843
1.13237
1.13666
1.14047
1.14432
1.07658
1.07917
1.0809
1.08323
1.08682
1.09063
1.0947
1.09892
1.10327
1.10789
1.1122
1.11673
1.12106
1.12548
1.12968
1.13361
1.13679
1.14039
1.07606
1.07917
1.08052
1.0829
1.08603
1.08964
1.09336
1.09756
1.10161
1.10592
1.11023
1.11453
1.11859
1.12253
1.12611
1.12968
1.13297
1.13601
1.07508
1.07871
1.07996
1.08233
1.08537
1.08884
1.09242
1.09623
1.10001
1.10402
1.1078
1.11168
1.11529
1.11886
1.12236
1.12552
1.12844
1.1313
1.0746
1.07807
1.07909
1.08136
1.08429
1.08752
1.09096
1.09456
1.09812
1.10177
1.1052
1.10869
1.11203
1.11522
1.11824
1.12117
1.12396
1.12648
1.07385
1.0772
1.07812
1.08031
1.08309
1.08617
1.08937
1.09273
1.09605
1.09944
1.10274
1.10599
1.10912
1.11212
1.115
1.11766
1.12017
1.12255
1.073
1.07649
1.07739
1.0794
1.08199
1.08482
1.08781
1.09098
1.09422
1.09749
1.10081
1.10396
1.10711
1.10995
1.11277
1.1154
1.1179
1.12029
1.072
1.07584
1.07682
1.07861
1.0811
1.08386
1.08688
1.09008
1.09331
1.09646
1.09977
1.1028
1.10597
1.10886
1.1118
1.1146
1.11736
1.11999
1.07121
1.07512
1.076
1.07792
1.08047
1.08325
1.08625
1.08936
1.09262
1.09573
1.09919
1.10234
1.10564
1.10879
1.11185
1.11496
1.11784
1.12075
1.07057
1.07465
1.07536
1.07739
1.07997
1.08288
1.08593
1.08899
1.09241
1.09563
1.0992
1.10258
1.10596
1.10934
1.11256
1.11584
1.11888
1.12201
1.06989
1.07433
1.0752
1.07719
1.0798
1.08258
1.08569
1.08876
1.09227
1.09576
1.09935
1.10304
1.10656
1.1101
1.1136
1.11693
1.12033
1.12346
1.06963
1.07401
1.07488
1.07684
1.07943
1.08219
1.08528
1.08848
1.09195
1.09551
1.09922
1.10292
1.10666
1.1103
1.11394
1.11751
1.12104
1.12446
1.06922
1.07392
1.07466
1.07663
1.0792
1.08215
1.08525
1.08859
1.09198
1.09554
1.09931
1.10306
1.10696
1.11072
1.11455
1.11823
1.12186
1.12541
1.0691
1.0738
1.0745
1.07643
1.07894
1.08181
1.08508
1.08847
1.09211
1.09575
1.09952
1.10334
1.10709
1.11088
1.11458
1.11823
1.12187
1.12537
1.06898
1.07354
1.07429
1.07625
1.07885
1.08174
1.08491
1.08832
1.09191
1.0956
1.09943
1.10326
1.10715
1.11097
1.1148
1.11854
1.1223
1.12598
1.06903
1.07363
1.07428
1.07618
1.07877
1.08167
1.08494
1.08836
1.09207
1.09579
1.09975
1.1037
1.10775
1.11178
1.11586
1.11993
1.12397
1.12798
1.06891
1.07367
1.07432
1.07615
1.07864
1.08148
1.08478
1.08832
1.0922
1.09616
1.1004
1.1046
1.10904
1.11335
1.1179
1.12222
1.12669
1.13099
1.06899
1.07371
1.07422
1.07598
1.07845
1.08138
1.08475
1.0884
1.09228
1.0963
1.10047
1.10463
1.10887
1.11303
1.11732
1.12122
1.12553
1.12898
1.06681
1.07152
1.07199
1.0735
1.0757
1.07829
1.08118
1.08424
1.08747
1.0908
1.09421
1.09764
1.10111
1.10454
1.10794
1.11124
1.11448
1.11734
1.22489
1.25983
1.25252
1.24177
1.23724
1.23604
1.23457
1.23344
1.23075
1.22821
1.22475
1.22107
1.21734
1.21389
1.21081
1.20805
1.20558
1.20344
1.20179
1.20039
1.1991
1.19775
1.19627
1.19443
1.1925
1.19064
1.18889
1.18724
1.18586
1.18475
1.1839
1.18321
1.18236
1.1812
1.17981
1.17818
1.17636
1.1744
1.17234
1.17008
1.16762
1.16508
1.1623
1.1594
1.15636
1.15317
1.15002
1.14714
1.14439
1.14163
1.13841
1.13417
1.12967
1.12557
1.12036
1.11187
1.10261
1.09747
1.09645
1.09614
1.09393
1.09053
1.08861
1.08805
1.08719
1.08527
1.08256
1.07989
1.07746
1.07567
1.07481
1.07328
1.06882
1.06187
1.05533
1.05265
1.05387
1.05326
1.04853
1.03882
1.02676
1.02101
1.02559
1.03532
1.04503
1.05311
1.05937
1.06298
1.06429
1.06656
1.07053
1.07434
1.07558
1.07563
1.07616
1.07763
1.07935
1.08082
1.08371
1.08902
1.09279
1.08998
1.08477
1.0868
1.10707
1.089
1.10928
1.1066
1.10989
1.11068
1.11178
1.11302
1.11292
1.11346
1.11259
1.11248
1.10999
1.10801
1.10444
1.09952
1.09426
1.09127
1.08778
1.08301
1.08085
1.08265
1.08238
1.08133
1.08089
1.08174
1.08382
1.08539
1.08602
1.08709
1.08848
1.09427
1.09771
1.09937
1.10099
1.10137
1.10046
1.09924
1.09893
1.09911
1.09831
1.09487
1.09234
1.08281
1.07976
1.07034
1.06835
1.06118
1.06209
1.05501
1.05873
1.05348
1.05175
1.05587
1.05581
1.05051
1.05261
1.05174
1.05203
1.0511
1.05156
1.05296
1.05494
1.05795
1.06354
1.0684
1.07386
1.0792
1.0823
1.08647
1.09438
1.08955
1.08261
1.07603
1.07487
1.07163
1.22642
1.25994
1.23773
1.22254
1.22214
1.22706
1.22624
1.22737
1.22581
1.22383
1.22089
1.21836
1.21762
1.21798
1.21765
1.2186
1.2199
1.21993
1.21982
1.2189
1.21825
1.21571
1.21377
1.2119
1.21001
1.20824
1.20615
1.20414
1.20167
1.19999
1.19841
1.19613
1.19309
1.19053
1.18847
1.18629
1.18399
1.18203
1.18021
1.17829
1.17624
1.17422
1.1715
1.16947
1.16768
1.16378
1.1592
1.15783
1.1575
1.15434
1.15202
1.15106
1.14742
1.14045
1.13464
1.13346
1.12645
1.11532
1.11304
1.10777
1.09485
1.09553
1.10508
1.10662
1.10703
1.10918
1.10695
1.09808
1.08643
1.0828
1.08869
1.09419
1.09418
1.08573
1.08172
1.08601
1.07944
1.06617
1.07237
1.09279
1.10487
1.10812
1.11206
1.11603
1.11502
1.10889
1.10104
1.09752
1.10257
1.1114
1.11536
1.10954
1.09837
1.08714
1.07969
1.07592
1.07237
1.07115
1.07808
1.09437
1.11084
1.10028
1.05725
1.05259
1.13882
1.04488
1.11431
1.10378
1.11464
1.11374
1.12117
1.12788
1.13587
1.14336
1.15096
1.16236
1.17299
1.18178
1.18702
1.1966
1.19931
1.19132
1.18287
1.18161
1.17336
1.1644
1.16262
1.16417
1.16257
1.15796
1.15455
1.1532
1.1481
1.14051
1.1274
1.13085
1.13938
1.14195
1.14548
1.15109
1.15704
1.16381
1.17034
1.17682
1.17788
1.17506
1.1727
1.15656
1.1573
1.13823
1.13807
1.12161
1.12156
1.10904
1.11458
1.10802
1.07683
1.08281
1.10204
1.08746
1.08196
1.08573
1.09175
1.09743
1.09846
1.10009
1.10657
1.10975
1.12674
1.14045
1.15192
1.15844
1.16962
1.18695
1.21823
1.22591
1.21916
1.1836
1.16572
1.15081
1.21585
1.23763
1.21421
1.2113
1.21126
1.21688
1.21504
1.21543
1.21759
1.2205
1.2282
1.23659
1.23446
1.23339
1.23437
1.22679
1.22812
1.22567
1.22186
1.22051
1.21521
1.21651
1.21257
1.21213
1.20914
1.20593
1.20368
1.1997
1.19779
1.19302
1.18944
1.18516
1.18282
1.18096
1.17921
1.17681
1.17383
1.17099
1.16878
1.16683
1.16446
1.16123
1.15721
1.15378
1.15249
1.14925
1.14701
1.15028
1.15263
1.14518
1.1409
1.14623
1.14294
1.1349
1.12885
1.12553
1.12513
1.11805
1.11596
1.11938
1.10879
1.09738
1.09725
1.0996
1.10472
1.11059
1.11354
1.09999
1.07392
1.07562
1.09922
1.11049
1.11275
1.10903
1.09895
1.09158
1.09188
1.10296
1.11616
1.12004
1.11616
1.11111
1.10511
1.09448
1.07678
1.05604
1.04159
1.04026
1.0498
1.05817
1.05865
1.05205
1.04469
1.03586
1.02989
1.02812
1.02901
1.03184
1.03713
1.04238
1.04743
1.0475
1.03437
1.03592
1.04852
1.02613
1.04081
1.04051
1.0483
1.04544
1.04703
1.04298
1.04839
1.04958
1.05411
1.06115
1.07212
1.09099
1.11072
1.12415
1.14931
1.1874
1.2148
1.23044
1.23268
1.23059
1.21792
1.21237
1.21407
1.2187
1.21883
1.21097
1.19048
1.1638
1.13695
1.14503
1.16371
1.16686
1.16881
1.18161
1.1945
1.2079
1.21461
1.21713
1.2153
1.20898
1.20343
1.1831
1.17877
1.15643
1.14372
1.12225
1.10049
1.08579
1.07921
1.11274
1.05452
1.0263
1.05291
1.06111
1.03596
1.03918
1.0498
1.0697
1.08596
1.0885
1.09733
1.09889
1.10718
1.10914
1.15571
1.18612
1.20403
1.21273
1.25391
1.29026
1.27968
1.25261
1.22347
1.17752
1.20684
1.22855
1.20963
1.2146
1.20889
1.20865
1.21846
1.22763
1.23777
1.24981
1.24528
1.23453
1.23587
1.22876
1.22785
1.23029
1.22124
1.2217
1.21449
1.2138
1.21626
1.21076
1.21306
1.20881
1.20814
1.20513
1.20142
1.19965
1.19459
1.19307
1.18858
1.18779
1.18735
1.18855
1.18833
1.18463
1.17868
1.17361
1.17028
1.16817
1.16605
1.16317
1.15642
1.14868
1.14565
1.14531
1.14607
1.14889
1.15052
1.14655
1.14216
1.1474
1.14292
1.13315
1.12939
1.12205
1.12243
1.12232
1.11704
1.1181
1.11173
1.10923
1.10896
1.09692
1.09526
1.09174
1.10604
1.10399
1.07016
1.08885
1.13582
1.15052
1.13947
1.12559
1.11644
1.11416
1.11764
1.12412
1.12566
1.12038
1.11335
1.10349
1.08895
1.07234
1.05609
1.04446
1.04217
1.04767
1.05285
1.05207
1.04924
1.04699
1.04767
1.04805
1.04942
1.05207
1.05672
1.06197
1.06371
1.06068
1.05579
1.0553
1.06293
1.07891
1.05754
1.03732
1.07352
1.07995
1.08379
1.08154
1.08161
1.07234
1.06769
1.06346
1.06203
1.04814
1.04417
1.04772
1.05721
1.08352
1.07739
1.07444
1.11625
1.16531
1.19715
1.21182
1.22263
1.22913
1.22513
1.24715
1.26546
1.24318
1.19726
1.17196
1.14753
1.14583
1.16421
1.18692
1.20117
1.2106
1.21866
1.22382
1.22705
1.22641
1.21391
1.20516
1.20473
1.19272
1.17803
1.1713
1.13591
1.1217
1.09677
1.09298
1.03819
1.05827
1.05182
1.02612
1.00943
1.0324
1.0203
1.00054
1.01026
1.03278
1.0408
1.0565
1.07636
1.08741
1.10734
1.08818
1.10616
1.14037
1.21121
1.22084
1.23316
1.29147
1.25391
1.24896
1.23306
1.19882
1.2013
1.2237
1.20502
1.20898
1.21101
1.21923
1.23
1.23658
1.23938
1.23649
1.22905
1.23099
1.23559
1.22942
1.22982
1.22781
1.21509
1.21583
1.21505
1.21151
1.21194
1.21221
1.21206
1.21023
1.21199
1.20852
1.20486
1.20154
1.19669
1.19315
1.19168
1.19091
1.19398
1.19671
1.19535
1.18834
1.17934
1.17255
1.16693
1.16316
1.16227
1.1623
1.15775
1.15
1.14658
1.14921
1.15096
1.15051
1.14806
1.14761
1.14553
1.14127
1.13606
1.1336
1.13524
1.12715
1.1221
1.12064
1.11544
1.11451
1.11038
1.11469
1.10815
1.09831
1.10119
1.09196
1.10158
1.0902
1.07089
1.10047
1.13786
1.14959
1.14437
1.13267
1.12509
1.12519
1.12744
1.12661
1.11984
1.10855
1.094
1.07628
1.06012
1.04901
1.04299
1.04205
1.04466
1.04573
1.04144
1.03606
1.03357
1.0319
1.03139
1.03142
1.03175
1.03411
1.03877
1.0436
1.0472
1.05186
1.0588
1.06283
1.05478
1.04014
1.07958
1.00164
1.06311
1.06868
1.07245
1.06276
1.06681
1.07251
1.08398
1.07763
1.07707
1.07916
1.07568
1.07121
1.04817
1.04525
1.07855
1.05848
1.06938
1.12378
1.13454
1.16713
1.19761
1.17452
1.18193
1.24934
1.2755
1.26004
1.21596
1.17401
1.14876
1.15287
1.17882
1.18682
1.2042
1.21698
1.22648
1.23369
1.21735
1.21164
1.20552
1.18883
1.17608
1.17494
1.15509
1.15337
1.13255
1.12011
1.0689
1.11462
1.08311
1.05202
1.02387
1.02741
1.01043
0.997812
1.02219
1.01113
0.986672
1.03259
1.02778
1.03057
1.03733
1.05354
1.07664
1.08286
1.09677
1.07971
1.16139
1.21832
1.22092
1.2779
1.23394
1.22727
1.20147
1.21707
1.19842
1.2204
1.1972
1.20333
1.22103
1.23079
1.23811
1.24473
1.24281
1.23723
1.23697
1.23253
1.23402
1.23508
1.22351
1.21538
1.21119
1.20791
1.20941
1.21006
1.20891
1.20454
1.20954
1.21167
1.20522
1.20984
1.20583
1.20113
1.20055
1.19484
1.19478
1.19581
1.19896
1.20089
1.1981
1.19106
1.18325
1.17747
1.17041
1.16323
1.15985
1.15958
1.16
1.15409
1.14957
1.14937
1.14837
1.14704
1.14709
1.14672
1.14672
1.14523
1.14584
1.14687
1.14179
1.1288
1.12123
1.11764
1.11363
1.10948
1.10452
1.10802
1.1012
1.10431
1.11165
1.08932
1.09209
1.09811
1.07418
1.08986
1.13974
1.15523
1.14823
1.14071
1.13597
1.13445
1.13187
1.1236
1.10742
1.08623
1.06562
1.05192
1.04797
1.04902
1.05069
1.0499
1.04458
1.03515
1.02541
1.02137
1.02162
1.02243
1.02498
1.02945
1.03479
1.04329
1.05293
1.06178
1.06842
1.07283
1.07215
1.06828
1.06149
1.0591
1.10699
1.0451
1.05579
1.05567
1.06578
1.04414
1.04286
1.04724
1.05469
1.07184
1.07957
1.08877
1.08837
1.08415
1.10031
1.07456
1.05006
1.05563
1.03389
1.06557
1.11365
1.11445
1.15493
1.17087
1.12682
1.16959
1.25836
1.27992
1.23248
1.18341
1.16289
1.14802
1.17944
1.2032
1.20919
1.22
1.21677
1.22372
1.22019
1.20765
1.19852
1.19522
1.18101
1.17292
1.15788
1.14638
1.11031
1.12309
1.07937
1.08189
1.0581
1.06156
1.03561
1.01337
1.02718
0.998542
0.995091
1.02703
0.953027
0.991624
1.02709
1.05745
1.04658
1.06131
1.05547
1.0489
1.09521
1.05661
1.09254
1.17849
1.20601
1.26204
1.23818
1.22112
1.15856
1.20833
1.19692
1.22451
1.20369
1.20389
1.22707
1.2485
1.25152
1.23402
1.23978
1.23939
1.23858
1.24366
1.23424
1.22467
1.21478
1.21141
1.21139
1.21221
1.21304
1.20537
1.21207
1.2119
1.2039
1.20782
1.20786
1.20819
1.20361
1.20297
1.20177
1.19829
1.19585
1.19717
1.19925
1.2003
1.19813
1.19416
1.18921
1.18575
1.17982
1.17182
1.16546
1.16009
1.15914
1.15512
1.14935
1.14282
1.14099
1.13813
1.13777
1.13934
1.14464
1.14914
1.14371
1.13394
1.12997
1.13221
1.13187
1.12163
1.1121
1.10761
1.1051
1.10582
1.0976
1.10336
1.10974
1.09366
1.10343
1.10536
1.0781
1.10132
1.14688
1.15677
1.15239
1.1483
1.14611
1.14269
1.13258
1.11387
1.08783
1.0629
1.04946
1.05037
1.05742
1.05993
1.05373
1.04083
1.02863
1.0204
1.01865
1.02214
1.02434
1.02326
1.02305
1.026
1.03249
1.04372
1.05527
1.06614
1.07339
1.07815
1.07776
1.07134
1.05618
1.03734
1.08005
1.03515
1.03213
1.02447
1.04592
1.03633
1.03569
1.03312
1.03747
1.04584
1.05545
1.062
1.06043
1.0721
1.09051
1.11853
1.11195
1.09285
1.05817
1.03764
1.07126
1.09822
1.11323
1.14046
1.12926
1.11314
1.16874
1.26233
1.26306
1.1944
1.16456
1.16523
1.17189
1.2026
1.21552
1.23061
1.23213
1.22386
1.21763
1.21117
1.18561
1.15544
1.12989
1.16246
1.15189
1.15625
1.13385
1.12359
1.09188
1.08624
1.06196
1.04402
1.02834
0.984511
0.986607
1.00885
0.994658
1.04746
0.968693
0.93858
0.966947
1.03544
1.04414
1.08055
1.07067
1.02625
1.07336
1.0611
1.0534
1.11886
1.16945
1.23614
1.24396
1.23208
1.14101
1.18149
1.1956
1.22969
1.22038
1.21234
1.21657
1.23279
1.2585
1.24299
1.22656
1.23802
1.23369
1.22684
1.2251
1.22565
1.21345
1.21545
1.2163
1.21167
1.21223
1.21093
1.21393
1.20852
1.20809
1.20794
1.20042
1.20641
1.2076
1.19939
1.20002
1.20279
1.19958
1.2025
1.20474
1.20444
1.20445
1.20234
1.20166
1.20025
1.19543
1.1876
1.18042
1.17205
1.16469
1.15986
1.15734
1.14988
1.14416
1.13799
1.1319
1.12846
1.12818
1.13627
1.14325
1.13904
1.13149
1.12655
1.12329
1.12094
1.12048
1.11633
1.1068
1.09873
1.08621
1.09158
1.10124
1.09615
1.10936
1.10199
1.07891
1.11158
1.15159
1.15669
1.15369
1.15099
1.14548
1.13623
1.11895
1.09371
1.06863
1.05342
1.05377
1.06196
1.06481
1.05577
1.03967
1.02662
1.02437
1.02993
1.03714
1.03956
1.0337
1.02448
1.01975
1.02119
1.0265
1.037
1.05018
1.06414
1.07374
1.07791
1.0758
1.06656
1.05643
1.04278
1.01735
1.00324
1.0057
1.00178
1.00737
1.00215
1.02841
1.02071
1.02757
1.03616
1.03949
1.0486
1.04671
1.04885
1.04088
1.05261
1.08898
1.11732
1.1107
1.07219
1.05012
1.06714
1.09126
1.11173
1.12068
1.11572
1.10814
1.1759
1.24621
1.22048
1.1633
1.16364
1.17643
1.19443
1.20937
1.21977
1.22474
1.22389
1.20562
1.18056
1.15599
1.15357
1.1014
1.10815
1.12665
1.12808
1.10876
1.13262
1.11843
1.10117
1.08227
1.05901
1.04715
1.00129
0.952107
0.960526
0.970642
1.02283
0.998158
0.936718
0.923232
1.00451
1.0306
1.08161
1.09318
1.03066
1.04633
1.06211
1.04816
1.07861
1.11994
1.19366
1.23254
1.24857
1.14832
1.14528
1.19491
1.23309
1.23791
1.2232
1.21468
1.22422
1.24738
1.25359
1.23859
1.23983
1.24492
1.24447
1.23424
1.22326
1.21181
1.21394
1.21197
1.21199
1.21912
1.21343
1.21762
1.22227
1.21588
1.2134
1.21427
1.21094
1.21472
1.2156
1.21267
1.21322
1.21336
1.21345
1.21327
1.21192
1.21046
1.21107
1.21216
1.2142
1.21511
1.21197
1.20269
1.19333
1.18471
1.17694
1.17172
1.1691
1.16118
1.15075
1.14015
1.13213
1.12401
1.12502
1.138
1.14083
1.13114
1.12243
1.12331
1.12569
1.12855
1.12113
1.11414
1.1076
1.10104
1.1029
1.10715
1.09256
1.10186
1.09743
1.08013
1.11621
1.15297
1.15431
1.15012
1.14812
1.14071
1.12566
1.10435
1.08288
1.06895
1.06549
1.06812
1.06532
1.05365
1.03931
1.02997
1.03129
1.04159
1.04871
1.0467
1.03645
1.02389
1.01618
1.01471
1.01379
1.01263
1.01931
1.03359
1.05158
1.06808
1.07822
1.08305
1.07299
1.05105
1.04125
1.01384
1.00935
1.00304
1.00705
0.997207
1.00214
1.00422
1.00696
1.01224
1.01423
1.02896
1.03172
1.03682
1.05008
1.05843
1.05026
1.05179
1.07744
1.10768
1.11044
1.08097
1.06121
1.07018
1.09215
1.1015
1.11615
1.10667
1.11631
1.17668
1.21089
1.17846
1.1568
1.17303
1.19
1.20231
1.21374
1.21253
1.21459
1.20526
1.16905
1.12212
1.13423
1.12024
1.09187
1.10648
1.11922
1.07518
1.10505
1.11077
1.08906
1.07176
1.05738
1.04027
1.01098
0.973166
0.95833
0.9936
1.00096
0.978986
0.918638
0.885293
0.985021
1.03203
1.07811
1.1101
1.04672
1.03224
1.05107
1.05471
1.07011
1.08148
1.14723
1.20523
1.25653
1.17385
1.11972
1.19319
1.2297
1.24787
1.23098
1.21449
1.22996
1.26118
1.248
1.23058
1.22601
1.22459
1.22607
1.22944
1.22636
1.22016
1.21935
1.22057
1.22384
1.22697
1.22264
1.22073
1.22101
1.22636
1.22706
1.2269
1.22342
1.22119
1.22373
1.22537
1.22396
1.22377
1.22264
1.22088
1.21918
1.2177
1.21655
1.21547
1.21594
1.21921
1.22351
1.22383
1.21433
1.20221
1.19546
1.185
1.17797
1.17527
1.16639
1.15312
1.147
1.13622
1.1177
1.1227
1.13848
1.13988
1.12909
1.12373
1.12084
1.12665
1.12596
1.12596
1.11639
1.10869
1.10966
1.11078
1.09708
1.1047
1.10359
1.08689
1.11936
1.15281
1.15135
1.14635
1.14135
1.13048
1.11418
1.09545
1.08163
1.07596
1.07384
1.0663
1.05304
1.04111
1.03863
1.04232
1.04967
1.0541
1.05066
1.04442
1.03975
1.0411
1.04696
1.04946
1.04152
1.02943
1.02469
1.02602
1.03739
1.05609
1.07365
1.08463
1.08263
1.07674
1.04332
1.04804
1.03615
1.02406
1.02833
1.02369
1.04103
1.0396
1.04992
1.04787
1.03568
1.03602
1.03551
1.0316
1.02203
1.03178
1.04411
1.0486
1.05686
1.0785
1.09983
1.09442
1.07162
1.05595
1.07172
1.08267
1.10056
1.10924
1.10452
1.12512
1.16119
1.17209
1.16278
1.1659
1.18318
1.19171
1.20727
1.21236
1.21247
1.20632
1.18367
1.13137
1.12475
1.13703
1.10159
1.09209
1.11845
1.06159
1.07602
1.0948
1.06949
1.04073
1.04693
1.02198
0.970713
0.957528
0.946998
1.01155
1.01029
0.971608
0.907757
0.877012
0.985903
1.05469
1.08516
1.11471
1.05641
1.03287
1.03263
1.05754
1.08063
1.06397
1.10594
1.17
1.25005
1.20156
1.11183
1.19203
1.22554
1.25454
1.24145
1.21387
1.21806
1.25034
1.24272
1.23456
1.24972
1.25393
1.24771
1.24052
1.22951
1.21728
1.21388
1.21436
1.21593
1.21425
1.21405
1.22214
1.22194
1.22382
1.23131
1.23786
1.23823
1.23529
1.23088
1.22683
1.22315
1.22303
1.2218
1.2194
1.21792
1.2139
1.20872
1.20358
1.20325
1.21157
1.21494
1.21709
1.21781
1.20809
1.20018
1.19487
1.18566
1.18019
1.17487
1.15583
1.14814
1.15135
1.13039
1.11708
1.13119
1.1409
1.13618
1.12968
1.12807
1.12928
1.13463
1.13585
1.1363
1.11633
1.11111
1.10366
1.10527
1.117
1.11207
1.09559
1.12363
1.15557
1.15304
1.14533
1.13661
1.12079
1.10391
1.0922
1.08661
1.08453
1.07759
1.06201
1.04553
1.04131
1.04816
1.05335
1.05414
1.05279
1.05145
1.05341
1.05838
1.06588
1.06913
1.06195
1.04718
1.03558
1.0276
1.01708
1.01803
1.03135
1.0538
1.07143
1.07226
1.07395
1.06677
1.05041
1.02711
1.0254
1.01669
1.02968
1.03928
1.05072
1.05983
1.08175
1.07261
1.07162
1.07646
1.08047
1.0622
1.04739
1.04136
1.03809
1.03698
1.05259
1.08511
1.10004
1.0922
1.06217
1.05752
1.06206
1.07976
1.09692
1.1025
1.1096
1.12431
1.13769
1.15531
1.15854
1.17738
1.18327
1.19219
1.20112
1.20911
1.1974
1.18875
1.14766
1.12463
1.1448
1.11622
1.08558
1.11406
1.05375
1.04427
1.07029
1.04995
1.00523
1.02108
1.00762
0.954916
0.970271
0.969903
1.00002
0.999862
0.951742
0.899475
0.897278
0.999019
1.08245
1.09419
1.10432
1.06193
1.04528
1.01787
1.06591
1.10021
1.05529
1.07677
1.11415
1.22809
1.21589
1.12519
1.19092
1.22185
1.25369
1.25633
1.23214
1.22466
1.23849
1.22744
1.22579
1.23595
1.23524
1.2389
1.23571
1.23267
1.22525
1.22007
1.21724
1.21863
1.2206
1.2206
1.22613
1.22598
1.22494
1.22917
1.23713
1.23501
1.22726
1.2193
1.21374
1.21
1.20692
1.20584
1.20479
1.20521
1.20647
1.20191
1.19799
1.19352
1.20139
1.21544
1.21966
1.2185
1.20985
1.1997
1.19244
1.18845
1.1832
1.18132
1.16251
1.14039
1.1497
1.14335
1.1166
1.11991
1.13445
1.13796
1.13498
1.13571
1.13397
1.13933
1.1347
1.1456
1.12922
1.12137
1.10427
1.10393
1.12205
1.11235
1.10433
1.13145
1.15557
1.15359
1.14257
1.12907
1.11275
1.09963
1.09343
1.09082
1.08375
1.06927
1.05368
1.04595
1.05052
1.05569
1.05293
1.04843
1.04825
1.05135
1.05398
1.05501
1.05646
1.05719
1.05897
1.05848
1.06154
1.06469
1.05323
1.03996
1.0325
1.04468
1.06382
1.09606
1.08363
1.08992
1.0592
1.04057
1.03084
1.02236
1.03273
1.03536
1.05858
1.04371
1.07329
1.06641
1.0726
1.07418
1.08598
1.08602
1.08578
1.07778
1.06769
1.04344
1.03472
1.05303
1.08132
1.09585
1.07887
1.06137
1.0526
1.06159
1.07744
1.09136
1.09911
1.11132
1.11228
1.12761
1.14103
1.16471
1.1776
1.1817
1.18272
1.20065
1.19099
1.18394
1.16125
1.13314
1.14478
1.11679
1.07899
1.09742
1.04884
1.0264
1.04332
1.02431
0.987092
1.00498
0.988325
0.946793
0.971922
0.988985
0.971981
0.99507
0.954257
0.900286
0.934705
1.02576
1.11255
1.11134
1.09921
1.07868
1.06626
1.01331
1.08156
1.12542
1.0613
1.0586
1.04615
1.19682
1.1957
1.15941
1.18922
1.2176
1.25524
1.2605
1.24133
1.22757
1.25206
1.21937
1.21237
1.24179
1.24192
1.24036
1.23161
1.22125
1.21378
1.21125
1.20956
1.20847
1.21128
1.2188
1.22801
1.22993
1.23258
1.23799
1.24434
1.24227
1.23374
1.22416
1.21833
1.21389
1.2114
1.20928
1.20901
1.20697
1.21111
1.21486
1.21416
1.21148
1.20253
1.20271
1.20712
1.21469
1.21223
1.20391
1.19452
1.18712
1.18081
1.17831
1.17439
1.14961
1.14304
1.14881
1.12888
1.11861
1.12729
1.13212
1.13532
1.13913
1.14132
1.14429
1.14024
1.14472
1.14026
1.12983
1.12108
1.10646
1.12377
1.11324
1.10959
1.142
1.15883
1.15394
1.14329
1.12514
1.10592
1.09507
1.09583
1.09618
1.08437
1.06706
1.05479
1.05333
1.05765
1.05909
1.0548
1.05466
1.05541
1.05206
1.04391
1.0364
1.03481
1.03729
1.04487
1.05602
1.05998
1.07782
1.08379
1.07074
1.04868
1.04111
1.05784
1.06245
1.09419
1.08002
1.06365
1.04675
1.02773
1.01956
1.02947
1.03735
1.06144
1.07137
1.09197
1.07942
1.09154
1.08851
1.08746
1.08222
1.08894
1.08753
1.09809
1.07694
1.05545
1.03886
1.0611
1.08413
1.087
1.07234
1.05369
1.05199
1.05845
1.08004
1.08235
1.10334
1.10877
1.10579
1.12038
1.14294
1.16294
1.17934
1.16646
1.19089
1.18662
1.18107
1.17147
1.14106
1.13287
1.10046
1.06699
1.07241
1.03911
1.0218
1.02264
1.00269
0.985477
0.995818
0.96461
0.95558
0.986723
0.993018
0.942182
0.979453
0.957112
0.870752
0.961145
1.05075
1.12717
1.14383
1.1196
1.1132
1.0982
1.02778
1.09334
1.14478
1.08644
1.04914
1.01982
1.15957
1.15514
1.17273
1.18588
1.20784
1.25823
1.27752
1.2452
1.20607
1.24336
1.24903
1.21642
1.22117
1.22977
1.23391
1.23692
1.23507
1.22761
1.22519
1.22557
1.22454
1.22609
1.2292
1.2332
1.2321
1.22968
1.23054
1.23165
1.22987
1.22397
1.22307
1.22873
1.22992
1.22756
1.22286
1.21996
1.21793
1.21005
1.21579
1.22109
1.22655
1.22245
1.21382
1.20308
1.19636
1.19752
1.19614
1.19317
1.19082
1.1865
1.17398
1.16753
1.15608
1.14394
1.14552
1.13611
1.12617
1.13195
1.13595
1.13737
1.14119
1.14477
1.14599
1.14767
1.1475
1.15207
1.13802
1.14006
1.12218
1.13146
1.12235
1.11048
1.14721
1.16868
1.15897
1.14682
1.1276
1.10518
1.09491
1.10063
1.10303
1.08666
1.06607
1.0606
1.06411
1.06611
1.06163
1.05728
1.05705
1.0548
1.04731
1.03975
1.03903
1.04339
1.04904
1.04712
1.04603
1.03526
1.05242
1.08319
1.09213
1.0808
1.0578
1.04444
1.0692
1.08115
1.09983
1.07883
1.05025
1.02989
1.02091
1.03288
1.05315
1.06362
1.0744
1.09576
1.09105
1.09869
1.10051
1.09414
1.0898
1.09428
1.08243
1.09734
1.10023
1.08759
1.04824
1.04894
1.0666
1.08243
1.0832
1.06393
1.05313
1.04717
1.06962
1.06477
1.08887
1.10122
1.09936
1.10194
1.11978
1.13098
1.16744
1.14845
1.16983
1.16369
1.16796
1.16187
1.13339
1.10929
1.07667
1.05282
1.0467
1.02423
1.01808
1.00457
0.99203
0.989363
0.984515
0.953035
0.972977
0.996313
0.974155
0.928224
0.974609
0.972949
0.855459
1.01158
1.08367
1.11693
1.17115
1.1566
1.1507
1.14395
1.06975
1.10229
1.15266
1.12145
1.05856
1.03646
1.13091
1.12095
1.13977
1.18157
1.19349
1.233
1.29503
1.28431
1.21534
1.20111
1.23364
1.23178
1.22539
1.22379
1.22017
1.21755
1.21957
1.21802
1.21639
1.2174
1.21851
1.22129
1.22349
1.22677
1.2273
1.22509
1.22487
1.22682
1.22854
1.22893
1.22685
1.23062
1.23465
1.2255
1.22247
1.2236
1.23019
1.2281
1.22205
1.21859
1.21632
1.21887
1.21386
1.21124
1.20261
1.19276
1.18906
1.18596
1.18427
1.18975
1.18749
1.17986
1.16948
1.15237
1.14713
1.14137
1.12651
1.12555
1.13244
1.13657
1.14298
1.148
1.14965
1.15204
1.15329
1.15951
1.15006
1.15447
1.14645
1.14282
1.133
1.1036
1.1285
1.16735
1.17056
1.15834
1.13509
1.10827
1.09509
1.10114
1.10564
1.08641
1.06565
1.06207
1.0683
1.06882
1.06195
1.05681
1.05511
1.05119
1.04528
1.04472
1.04953
1.05474
1.06033
1.06148
1.06552
1.05197
1.05272
1.07924
1.10531
1.11307
1.10062
1.06062
1.06636
1.08434
1.10229
1.09324
1.05911
1.04209
1.03487
1.04989
1.07377
1.09315
1.10409
1.11954
1.12162
1.12047
1.11723
1.09627
1.08898
1.10071
1.0923
1.08765
1.1074
1.11346
1.08584
1.05809
1.06189
1.07218
1.08659
1.07416
1.05924
1.04865
1.05689
1.05344
1.07123
1.07902
1.09508
1.08412
1.10206
1.09415
1.14069
1.12608
1.13695
1.12895
1.13864
1.13254
1.11433
1.08428
1.05789
1.0415
1.02624
1.01518
1.01441
0.992403
0.988514
0.990609
0.970957
0.957374
0.992931
0.995807
0.957506
0.926741
0.976717
1.01376
0.944936
1.14376
1.15369
1.1139
1.19009
1.19243
1.16774
1.18271
1.1289
1.11341
1.14951
1.15407
1.09023
1.06858
1.12713
1.09617
1.10556
1.17777
1.18079
1.19634
1.26196
1.30958
1.27725
1.22899
1.21904
1.22301
1.22625
1.22966
1.23122
1.22885
1.22759
1.22467
1.22217
1.22284
1.22253
1.2225
1.22391
1.2274
1.22814
1.22955
1.22922
1.2298
1.23067
1.22717
1.22679
1.22629
1.22745
1.22268
1.21684
1.2147
1.21213
1.21581
1.22351
1.23479
1.22477
1.2121
1.20341
1.19723
1.1959
1.19324
1.1915
1.19496
1.19035
1.1841
1.17962
1.17374
1.17521
1.16742
1.15308
1.15148
1.14232
1.12942
1.129
1.13301
1.14084
1.1493
1.15327
1.1559
1.15952
1.16359
1.16331
1.16651
1.17018
1.15462
1.13775
1.09833
1.10433
1.14992
1.1728
1.17136
1.1491
1.11586
1.09623
1.10209
1.10759
1.08914
1.06844
1.0658
1.07058
1.06641
1.05735
1.05029
1.04878
1.04728
1.04862
1.05446
1.05508
1.04862
1.04684
1.04825
1.07631
1.07924
1.07129
1.07239
1.08884
1.1242
1.12347
1.08222
1.06558
1.09014
1.10352
1.09475
1.05885
1.03758
1.0381
1.05105
1.07317
1.09237
1.10333
1.11869
1.1188
1.11665
1.12098
1.10977
1.09518
1.09957
1.10972
1.08533
1.09557
1.1065
1.11563
1.07516
1.07127
1.06415
1.08542
1.08153
1.06615
1.06123
1.04758
1.05066
1.05757
1.05211
1.08534
1.06947
1.08678
1.06988
1.10948
1.10669
1.10468
1.09859
1.1053
1.10164
1.09225
1.06468
1.04736
1.03056
1.01722
1.01267
1.00684
0.98774
0.991862
0.99072
0.96484
0.972933
1.00723
0.982164
0.948677
0.935672
1.00031
1.089
1.08715
1.24545
1.18906
1.10636
1.20054
1.20613
1.13364
1.18189
1.17121
1.11997
1.14033
1.16764
1.12139
1.09988
1.129
1.07786
1.09963
1.17529
1.17453
1.17956
1.2134
1.28353
1.30749
1.29301
1.26675
1.24425
1.23286
1.22862
1.23149
1.2347
1.23617
1.23938
1.24426
1.24549
1.24472
1.24594
1.24583
1.24845
1.24732
1.24124
1.24219
1.23929
1.23418
1.2358
1.23494
1.23182
1.22416
1.21975
1.23178
1.24191
1.2323
1.22049
1.21419
1.21597
1.21828
1.21158
1.20275
1.19768
1.19628
1.19816
1.19918
1.19931
1.20121
1.19606
1.19192
1.18391
1.17187
1.17202
1.16164
1.15146
1.15187
1.14126
1.13032
1.12857
1.13516
1.14729
1.1543
1.15823
1.16403
1.16943
1.17384
1.17684
1.18185
1.16434
1.14425
1.11122
1.10315
1.13403
1.16157
1.17396
1.16519
1.13113
1.10281
1.10214
1.10885
1.09335
1.073
1.07172
1.07539
1.07
1.05968
1.05462
1.05322
1.05056
1.05252
1.05982
1.05929
1.05183
1.04627
1.02719
1.0482
1.06286
1.07018
1.06332
1.07544
1.1189
1.15712
1.1099
1.09455
1.09235
1.11398
1.11136
1.07272
1.05659
1.05645
1.06577
1.09466
1.10965
1.11536
1.13243
1.12949
1.10471
1.09405
1.09886
1.08912
1.07387
1.11043
1.10009
1.10106
1.09645
1.1281
1.09519
1.08927
1.06187
1.08216
1.08208
1.07144
1.07617
1.04638
1.05704
1.05147
1.03824
1.07305
1.05857
1.07565
1.05818
1.08551
1.09061
1.08034
1.08
1.07761
1.08155
1.07234
1.05342
1.04052
1.02048
1.0166
1.00936
1.00118
0.991541
0.994091
0.988095
0.969584
0.99251
1.01053
0.967891
0.952165
0.956743
1.03649
1.15262
1.17259
1.24031
1.16475
1.08442
1.17681
1.1852
1.07767
1.14794
1.17201
1.1269
1.13496
1.16565
1.14313
1.12733
1.12537
1.06959
1.11801
1.17423
1.1734
1.17513
1.18472
1.23657
1.28188
1.29297
1.28314
1.2649
1.24798
1.23344
1.222
1.21229
1.20749
1.20635
1.2045
1.20591
1.21169
1.21331
1.21641
1.21768
1.21837
1.226
1.22812
1.2269
1.22741
1.23097
1.23236
1.22947
1.23344
1.23743
1.23473
1.22802
1.22916
1.23642
1.23439
1.21974
1.20124
1.19488
1.19871
1.20299
1.20883
1.20872
1.20976
1.20401
1.19398
1.19046
1.18232
1.18488
1.17935
1.17077
1.17427
1.15717
1.15112
1.15256
1.14132
1.13097
1.12976
1.14188
1.1549
1.16076
1.16673
1.17421
1.17939
1.18437
1.1824
1.17166
1.16053
1.1432
1.12675
1.13135
1.14501
1.16188
1.17226
1.15273
1.11761
1.10591
1.10958
1.09608
1.0776
1.07536
1.07996