/*--------------------------------*- C++ -*----------------------------------*\
| =========                 |                                                 |
| \\      /  F ield         | OpenFOAM: The Open Source CFD Toolbox           |
|  \\    /   O peration     | Version:  dev                                   |
|   \\  /    A nd           | Web:      http://www.openfoam.org               |
|    \\/     M anipulation  |                                                 |
\*---------------------------------------------------------------------------*/
FoamFile
{
    version     2.0;
    format      ascii;
    class       volScalarField;
    object      rho_0;
    location    "9.128";
}
// * * * * * * * * * * * * * * * * * * * * * * * * * * * * * * * * * * * * * //

dimensions      [1 -3 0 0 0 0 0];

internalField   nonuniform List<scalar> 
12225
(
1.08642
1.08821
1.08885
1.09038
1.09334
1.09608
1.09972
1.10344
1.10734
1.11201
1.1158
1.12151
1.12536
1.13077
1.1376
1.13928
1.15152
1.15382
1.08858
1.08993
1.09017
1.09265
1.09528
1.09963
1.10259
1.10823
1.11085
1.11774
1.11969
1.12724
1.1308
1.13404
1.14511
1.14497
1.15166
1.15772
1.08816
1.08973
1.09021
1.09275
1.09595
1.09965
1.10391
1.1083
1.11345
1.11776
1.12362
1.12815
1.13419
1.1385
1.14537
1.15036
1.15793
1.16544
1.08818
1.08874
1.09123
1.09145
1.09718
1.09786
1.10499
1.10607
1.11402
1.11573
1.12376
1.1264
1.13534
1.13637
1.14723
1.14899
1.15403
1.16504
1.08945
1.08762
1.09164
1.09049
1.09661
1.09726
1.10384
1.10602
1.11239
1.11591
1.12211
1.12708
1.13343
1.13798
1.14632
1.14848
1.15584
1.16259
1.08977
1.08733
1.0916
1.0902
1.09632
1.09704
1.10355
1.10578
1.11227
1.11559
1.12251
1.127
1.13284
1.13841
1.14291
1.14972
1.15432
1.15858
1.08954
1.08709
1.09173
1.09003
1.09646
1.09703
1.10356
1.10576
1.11246
1.11561
1.12228
1.1266
1.13239
1.13708
1.14194
1.14706
1.1524
1.15538
1.08934
1.0871
1.09161
1.09027
1.09627
1.09693
1.10314
1.10575
1.1122
1.11591
1.1216
1.12639
1.13142
1.13632
1.14125
1.146
1.15069
1.15621
1.08914
1.08681
1.09128
1.09054
1.09627
1.09659
1.10268
1.10552
1.11226
1.11565
1.12128
1.12577
1.13116
1.13518
1.14061
1.14522
1.15041
1.15519
1.08864
1.08675
1.09063
1.09052
1.09615
1.09674
1.10246
1.10547
1.11185
1.11521
1.12053
1.12495
1.12995
1.13424
1.13884
1.14373
1.14826
1.15277
1.08776
1.08656
1.08981
1.09021
1.09488
1.09677
1.10199
1.10532
1.11065
1.11436
1.11912
1.12353
1.12805
1.13262
1.1367
1.14165
1.14545
1.14968
1.0863
1.08646
1.08886
1.09036
1.09384
1.09661
1.10063
1.10408
1.10876
1.11281
1.11703
1.1213
1.12578
1.13019
1.13398
1.13814
1.14188
1.14566
1.08513
1.08615
1.0875
1.08942
1.09246
1.09568
1.09912
1.10275
1.10653
1.11064
1.11449
1.11865
1.12266
1.12683
1.13083
1.13457
1.13767
1.14121
1.08406
1.08562
1.0866
1.08857
1.09117
1.09419
1.09731
1.10092
1.1044
1.10821
1.11206
1.11595
1.11966
1.12331
1.12666
1.13007
1.13324
1.13616
1.08258
1.0845
1.08536
1.08733
1.08987
1.09276
1.09575
1.09897
1.1022
1.10569
1.109
1.11247
1.11572
1.11901
1.12226
1.12521
1.12799
1.13076
1.08114
1.08294
1.08361
1.08551
1.08795
1.09064
1.0935
1.09653
1.09955
1.10269
1.10565
1.10874
1.11172
1.1146
1.11737
1.1201
1.12271
1.12508
1.07917
1.08095
1.08156
1.08342
1.08574
1.0883
1.09096
1.09377
1.09657
1.09948
1.10233
1.10518
1.10795
1.11064
1.11326
1.11569
1.11802
1.12026
1.07718
1.07905
1.07966
1.08135
1.08352
1.08588
1.08836
1.09103
1.09379
1.09659
1.09949
1.10224
1.10504
1.10757
1.11014
1.11254
1.11486
1.1171
1.07519
1.07733
1.07801
1.0795
1.08161
1.08394
1.0865
1.08923
1.09199
1.09471
1.09761
1.10027
1.10312
1.10571
1.10842
1.111
1.11358
1.11606
1.07343
1.07569
1.07629
1.07795
1.08015
1.08253
1.08509
1.08776
1.09058
1.0933
1.09638
1.09917
1.10216
1.10503
1.10786
1.11076
1.11345
1.11621
1.07215
1.07449
1.07494
1.07673
1.07899
1.08151
1.08414
1.0868
1.08981
1.09265
1.09587
1.09891
1.10199
1.1051
1.10809
1.11116
1.11402
1.11699
1.07092
1.07363
1.07423
1.07599
1.07828
1.0807
1.08341
1.0861
1.08923
1.09235
1.09561
1.09898
1.1022
1.10548
1.10874
1.11187
1.11509
1.11805
1.07022
1.07288
1.07347
1.07521
1.0775
1.07991
1.08262
1.08546
1.08856
1.09178
1.09515
1.09855
1.10201
1.10539
1.10881
1.11217
1.11552
1.11877
1.06958
1.07247
1.07293
1.07468
1.07696
1.07957
1.08232
1.08529
1.08833
1.09156
1.09502
1.09848
1.1021
1.10561
1.10921
1.11268
1.11613
1.11951
1.06923
1.0721
1.07252
1.07424
1.07647
1.07902
1.08196
1.08499
1.08828
1.09159
1.09506
1.09857
1.10206
1.1056
1.10907
1.11252
1.11598
1.11932
1.06896
1.07167
1.07214
1.0739
1.07622
1.0788
1.08163
1.0847
1.08795
1.09132
1.09484
1.09839
1.10202
1.10559
1.1092
1.11275
1.11633
1.11986
1.06888
1.07164
1.072
1.07371
1.07603
1.07863
1.08157
1.08465
1.08803
1.09144
1.0951
1.09876
1.10256
1.10635
1.11022
1.11409
1.11796
1.12182
1.0687
1.07161
1.07196
1.0736
1.07582
1.07837
1.08135
1.08456
1.08812
1.09176
1.09571
1.09963
1.10381
1.10789
1.11222
1.11634
1.12063
1.12476
1.06875
1.07163
1.07183
1.07341
1.07562
1.07825
1.0813
1.08461
1.08818
1.09188
1.09575
1.09963
1.1036
1.10752
1.11158
1.11528
1.11939
1.12264
1.06697
1.07021
1.07035
1.07159
1.07347
1.07574
1.07829
1.081
1.08387
1.08686
1.08994
1.09306
1.09622
1.09938
1.10252
1.10557
1.10859
1.11124
1.23497
1.2702
1.26263
1.25174
1.2472
1.24599
1.24447
1.2433
1.24053
1.23792
1.23437
1.2306
1.2268
1.22327
1.22012
1.21728
1.21474
1.21254
1.21082
1.20935
1.20797
1.20655
1.20498
1.20307
1.20106
1.19913
1.19731
1.1956
1.19415
1.19297
1.19205
1.19131
1.1904
1.18919
1.18776
1.18609
1.18419
1.18217
1.18007
1.17775
1.17523
1.17264
1.16979
1.16682
1.16369
1.16041
1.15717
1.15421
1.15136
1.14847
1.14505
1.14061
1.13599
1.13171
1.12613
1.1173
1.10805
1.10311
1.10213
1.10163
1.09914
1.09562
1.0937
1.09312
1.09222
1.09024
1.0875
1.08486
1.08249
1.0808
1.08008
1.07875
1.0745
1.06782
1.06166
1.05941
1.06091
1.06058
1.05618
1.04681
1.03518
1.02998
1.0351
1.04528
1.05537
1.06379
1.07044
1.0745
1.07617
1.07864
1.0828
1.08692
1.08843
1.08855
1.08902
1.09041
1.09207
1.09339
1.09598
1.10112
1.10503
1.10219
1.09637
1.09756
1.11808
1.09961
1.11924
1.11632
1.11923
1.11966
1.12041
1.12129
1.12086
1.1211
1.11993
1.11952
1.11671
1.11444
1.11052
1.10525
1.0998
1.09663
1.0928
1.0878
1.08562
1.08719
1.08639
1.08483
1.08389
1.08419
1.08548
1.08603
1.08552
1.08537
1.0856
1.08987
1.09127
1.09093
1.09048
1.08871
1.08579
1.08283
1.08104
1.07987
1.07795
1.07386
1.07097
1.06175
1.05905
1.05037
1.04916
1.043
1.04482
1.03879
1.04334
1.03921
1.03837
1.0432
1.04403
1.03964
1.04256
1.04262
1.04387
1.04395
1.04547
1.04794
1.05108
1.05525
1.06199
1.06797
1.07458
1.08111
1.08528
1.0904
1.0993
1.09521
1.08878
1.08275
1.08246
1.07999
1.23644
1.27012
1.24752
1.23226
1.23189
1.23686
1.23598
1.23709
1.23549
1.23348
1.23054
1.22802
1.22724
1.22754
1.22717
1.22802
1.22928
1.22923
1.22903
1.22803
1.22728
1.22468
1.22264
1.22071
1.21873
1.21688
1.21472
1.21263
1.21007
1.20828
1.20664
1.20431
1.20121
1.19858
1.19647
1.19424
1.19189
1.18983
1.18797
1.186
1.18389
1.18178
1.17899
1.17695
1.17501
1.17092
1.16633
1.16504
1.16455
1.16117
1.15886
1.15771
1.15359
1.1463
1.14068
1.13934
1.13161
1.12054
1.11851
1.1126
1.09967
1.10104
1.11048
1.11161
1.11198
1.11412
1.11174
1.10265
1.09098
1.08772
1.09396
1.09969
1.09978
1.09165
1.08829
1.09288
1.0862
1.07343
1.08049
1.10136
1.11388
1.1177
1.12198
1.12628
1.12564
1.11973
1.11178
1.10786
1.1127
1.12202
1.12713
1.12236
1.11156
1.10008
1.09217
1.08815
1.08446
1.0827
1.08885
1.10476
1.12211
1.11336
1.06949
1.06148
1.1493
1.05559
1.12363
1.11309
1.12372
1.12253
1.12974
1.13619
1.14394
1.1512
1.1587
1.17005
1.18046
1.18893
1.19403
1.20337
1.20524
1.19653
1.18806
1.18653
1.17759
1.16849
1.16674
1.16774
1.16516
1.15967
1.15552
1.15299
1.14634
1.13702
1.12313
1.12602
1.1325
1.1328
1.13441
1.13794
1.14178
1.14653
1.15111
1.15578
1.15532
1.15179
1.14901
1.13318
1.13435
1.11626
1.11706
1.10189
1.10305
1.09167
1.09816
1.09315
1.06347
1.06969
1.0898
1.07639
1.07183
1.07626
1.08309
1.08952
1.0915
1.09412
1.10174
1.10614
1.12438
1.13933
1.15198
1.1597
1.17208
1.1906
1.22309
1.23185
1.22587
1.1906
1.17344
1.15927
1.2257
1.24755
1.22384
1.22109
1.22097
1.22657
1.22478
1.22523
1.22748
1.2305
1.23819
1.24647
1.24428
1.24305
1.244
1.23633
1.23745
1.23498
1.23097
1.22957
1.22416
1.22536
1.22139
1.22083
1.21783
1.2145
1.21217
1.2081
1.20612
1.20131
1.19762
1.19326
1.19083
1.18891
1.18709
1.18464
1.18161
1.17869
1.17643
1.17442
1.17195
1.16859
1.16446
1.161
1.15962
1.15633
1.15425
1.15764
1.15943
1.15154
1.14777
1.15305
1.14885
1.14046
1.13451
1.13132
1.13057
1.12332
1.12175
1.12462
1.11303
1.10209
1.10247
1.10455
1.1096
1.11525
1.11798
1.10386
1.07795
1.08089
1.10497
1.11621
1.11857
1.11499
1.10516
1.09826
1.09929
1.11096
1.12438
1.1284
1.12475
1.11989
1.1141
1.10396
1.08688
1.06632
1.05126
1.04905
1.05836
1.06748
1.06913
1.0633
1.05643
1.04777
1.04155
1.03946
1.04017
1.04281
1.04792
1.05299
1.05785
1.05833
1.04505
1.04543
1.05791
1.0356
1.04967
1.04909
1.05658
1.05329
1.0545
1.05016
1.05542
1.05632
1.06079
1.06786
1.07913
1.09828
1.11772
1.13129
1.15748
1.19581
1.22222
1.23659
1.23781
1.23466
1.22133
1.2159
1.21751
1.22125
1.21966
1.20951
1.18686
1.15852
1.13225
1.14121
1.15753
1.15753
1.15781
1.16887
1.17936
1.19029
1.19472
1.19528
1.19215
1.18543
1.17952
1.15946
1.15586
1.13444
1.12333
1.10333
1.08311
1.06914
1.06369
1.09894
1.04301
1.01457
1.04196
1.05107
1.02698
1.031
1.04224
1.06256
1.07975
1.08288
1.09263
1.09524
1.10457
1.10786
1.15584
1.18739
1.20643
1.21617
1.25846
1.29597
1.2859
1.25948
1.2309
1.18568
1.21663
1.23851
1.21934
1.22448
1.21871
1.21854
1.22859
1.23786
1.24804
1.25999
1.25511
1.24418
1.24565
1.23835
1.23729
1.23987
1.23044
1.23089
1.22362
1.22269
1.22524
1.21961
1.22191
1.21757
1.2169
1.21386
1.21
1.20819
1.20298
1.2014
1.19682
1.19591
1.19537
1.19649
1.19623
1.19247
1.18645
1.18127
1.1779
1.17575
1.17353
1.17045
1.16344
1.15565
1.15273
1.1525
1.15331
1.15608
1.15734
1.15296
1.14887
1.15401
1.14855
1.13862
1.13486
1.12754
1.12818
1.12761
1.12218
1.12294
1.11632
1.11449
1.11336
1.10078
1.09958
1.09624
1.11082
1.10736
1.07404
1.09481
1.14196
1.15592
1.14481
1.13128
1.12268
1.12099
1.12482
1.13136
1.13291
1.12774
1.12092
1.11137
1.09726
1.08121
1.06555
1.05415
1.05168
1.05711
1.06269
1.0624
1.05984
1.05766
1.0585
1.05915
1.0606
1.06321
1.06779
1.07319
1.07521
1.07229
1.06706
1.06592
1.07289
1.08928
1.06817
1.04706
1.08256
1.08896
1.09237
1.08972
1.08928
1.07942
1.07449
1.07003
1.06798
1.05364
1.05003
1.05393
1.06424
1.08972
1.08193
1.08108
1.12559
1.17415
1.20407
1.21759
1.22773
1.23317
1.22958
1.25189
1.2666
1.23953
1.1925
1.16713
1.14259
1.14158
1.15916
1.17941
1.19063
1.19744
1.20308
1.20592
1.20724
1.20471
1.19121
1.18244
1.18194
1.16986
1.15603
1.15002
1.11612
1.10292
1.07997
1.07655
1.02308
1.04455
1.03986
1.01455
0.998985
1.02314
1.01108
0.992234
1.00332
1.02574
1.03497
1.05147
1.07238
1.08426
1.10498
1.08674
1.10606
1.14182
1.21386
1.22411
1.23737
1.29666
1.2591
1.25525
1.23999
1.20682
1.2111
1.23373
1.21464
1.21872
1.22112
1.22955
1.24034
1.2469
1.2495
1.2463
1.23879
1.24069
1.24536
1.23931
1.23934
1.2372
1.22438
1.22485
1.2242
1.22058
1.22084
1.22104
1.22088
1.21909
1.22066
1.21733
1.21357
1.21012
1.20526
1.20151
1.19997
1.19907
1.20205
1.20474
1.20337
1.19627
1.18713
1.18021
1.17447
1.17066
1.16975
1.16964
1.16481
1.15694
1.15367
1.15639
1.15794
1.15727
1.1547
1.15413
1.15173
1.14714
1.14185
1.13964
1.14084
1.13214
1.1272
1.1255
1.12013
1.11898
1.11502
1.1192
1.11143
1.10258
1.10579
1.096
1.10546
1.09334
1.07514
1.10602
1.14321
1.15451
1.14945
1.13824
1.13109
1.13145
1.13386
1.13308
1.12627
1.11495
1.10048
1.08312
1.06758
1.05715
1.05171
1.05105
1.05378
1.05512
1.0511
1.0458
1.04341
1.04194
1.04158
1.04182
1.04223
1.04458
1.04926
1.05422
1.05783
1.06231
1.0692
1.0735
1.06547
1.0496
1.08996
1.01058
1.0717
1.07745
1.08071
1.07082
1.07486
1.08047
1.09133
1.08425
1.08372
1.08547
1.08144
1.07584
1.05256
1.05202
1.08439
1.06296
1.0775
1.13183
1.14109
1.17471
1.20192
1.17728
1.18945
1.25758
1.27767
1.257
1.21031
1.16834
1.14419
1.14954
1.17357
1.17894
1.19427
1.20426
1.21137
1.21585
1.19757
1.19078
1.18367
1.16649
1.15404
1.15297
1.13373
1.1329
1.11352
1.10184
1.05195
1.09815
1.06829
1.03866
1.01172
1.01612
0.999144
0.988622
1.01352
1.002
0.980775
1.0265
1.02165
1.02484
1.03314
1.05038
1.07462
1.08186
1.09626
1.08085
1.16428
1.22162
1.22503
1.28263
1.23873
1.23299
1.20785
1.2252
1.20826
1.23067
1.20704
1.2131
1.23135
1.2415
1.24871
1.25479
1.25293
1.24733
1.24721
1.2428
1.24379
1.24485
1.23299
1.22464
1.22062
1.21717
1.2186
1.21911
1.21808
1.21354
1.21822
1.22052
1.21388
1.21855
1.21447
1.20971
1.20914
1.2033
1.20311
1.20407
1.20715
1.20904
1.20619
1.19901
1.19103
1.1851
1.17788
1.17058
1.16719
1.16691
1.16712
1.16096
1.15645
1.15623
1.15505
1.15368
1.15364
1.15314
1.15294
1.15133
1.15189
1.15246
1.14648
1.13319
1.12594
1.12223
1.11792
1.11342
1.10873
1.11185
1.10476
1.10914
1.11517
1.09218
1.09641
1.10181
1.07767
1.09503
1.14504
1.15979
1.15295
1.146
1.14176
1.14046
1.13788
1.12956
1.11327
1.09195
1.07147
1.05835
1.05526
1.05709
1.05924
1.05866
1.05358
1.04444
1.0348
1.03074
1.0311
1.03201
1.03455
1.03911
1.04454
1.05314
1.063
1.07215
1.07902
1.08363
1.08298
1.07888
1.07167
1.06807
1.11662
1.05384
1.06459
1.06437
1.07373
1.05157
1.05047
1.05488
1.06248
1.07954
1.08681
1.09554
1.09438
1.0907
1.10569
1.0776
1.05434
1.05986
1.03916
1.07435
1.1207
1.12074
1.1619
1.17266
1.12986
1.18006
1.26693
1.27893
1.22608
1.17768
1.15773
1.14407
1.17579
1.19587
1.19903
1.20726
1.20178
1.20689
1.20113
1.18719
1.17774
1.17442
1.16071
1.15152
1.13675
1.12582
1.09089
1.10478
1.06195
1.06687
1.04424
1.04847
1.02347
1.00399
1.01777
0.988534
0.987055
1.01764
0.946413
0.988075
1.02286
1.05209
1.04207
1.05742
1.05282
1.04832
1.09493
1.05698
1.09523
1.18182
1.21019
1.26648
1.24292
1.2262
1.16435
1.21646
1.20677
1.23513
1.21429
1.21402
1.23693
1.25872
1.26244
1.24417
1.24939
1.24951
1.24846
1.25351
1.24406
1.23444
1.2243
1.22104
1.22102
1.2217
1.22263
1.21465
1.22128
1.22129
1.21293
1.21661
1.21658
1.21691
1.21238
1.21153
1.21028
1.20687
1.20427
1.20557
1.20756
1.20851
1.2062
1.20208
1.19696
1.19334
1.1872
1.17905
1.1726
1.16719
1.16616
1.16185
1.15582
1.14926
1.1474
1.14444
1.14411
1.14577
1.15106
1.15493
1.14865
1.13869
1.13502
1.13727
1.13626
1.12538
1.11595
1.11162
1.1091
1.10899
1.1006
1.10703
1.11231
1.09698
1.10796
1.10807
1.08117
1.10639
1.15148
1.16059
1.1565
1.15285
1.15093
1.14766
1.13757
1.11884
1.09296
1.06829
1.05531
1.05689
1.06464
1.06766
1.06174
1.04897
1.03706
1.02926
1.02781
1.03158
1.03406
1.03299
1.03248
1.03513
1.04134
1.05255
1.06439
1.07571
1.08333
1.08836
1.08818
1.08183
1.06649
1.0463
1.08906
1.0445
1.04065
1.03292
1.05411
1.04403
1.0429
1.04029
1.04474
1.0531
1.06248
1.0684
1.06693
1.07953
1.09864
1.12539
1.1162
1.09527
1.06026
1.04306
1.07896
1.10475
1.11933
1.14475
1.13071
1.11802
1.17965
1.26917
1.25845
1.18703
1.1602
1.16113
1.16772
1.19658
1.20641
1.21889
1.21745
1.20717
1.1996
1.19179
1.16575
1.13552
1.11257
1.14471
1.13272
1.13706
1.1151
1.10531
1.07386
1.07008
1.04695
1.03112
1.01618
0.974507
0.980421
1.00153
0.987469
1.03964
0.959592
0.934337
0.964861
1.03222
1.04069
1.07698
1.0672
1.02504
1.07352
1.06114
1.05537
1.12199
1.17363
1.24047
1.24867
1.2366
1.14612
1.18887
1.20548
1.24045
1.23164
1.22301
1.22634
1.24232
1.26884
1.25398
1.23664
1.24819
1.24412
1.23701
1.23508
1.23565
1.22317
1.22515
1.226
1.22127
1.2219
1.22049
1.22347
1.21814
1.21758
1.21728
1.20955
1.21529
1.21672
1.20838
1.20888
1.21162
1.2083
1.21116
1.21322
1.21274
1.21259
1.21033
1.20951
1.20788
1.20276
1.19471
1.18736
1.1788
1.17139
1.16654
1.16374
1.15595
1.15007
1.14368
1.1375
1.13412
1.13414
1.14237
1.14866
1.14365
1.13577
1.13067
1.12734
1.12508
1.12459
1.11982
1.10981
1.10121
1.08922
1.0954
1.10436
1.0992
1.11231
1.10352
1.08169
1.11606
1.15531
1.15969
1.15681
1.15448
1.14909
1.13976
1.12261
1.09788
1.07366
1.05923
1.05998
1.06816
1.071
1.06228
1.04667
1.03411
1.0324
1.03851
1.04616
1.049
1.04345
1.0341
1.02888
1.02981
1.0346
1.04479
1.05813
1.07264
1.08295
1.08765
1.08586
1.07653
1.06613
1.05223
1.02631
1.01165
1.01366
1.00944
1.015
1.01007
1.03611
1.0277
1.03486
1.04314
1.04626
1.05502
1.05262
1.05423
1.04653
1.0606
1.09793
1.12383
1.11334
1.07381
1.05436
1.07372
1.09772
1.11687
1.12398
1.11758
1.11357
1.18547
1.24903
1.21395
1.15757
1.16057
1.17236
1.18853
1.20095
1.2088
1.21142
1.20784
1.18756
1.16217
1.1386
1.13412
1.08203
1.09253
1.10978
1.1106
1.09371
1.1163
1.10138
1.08587
1.06802
1.04572
1.03504
0.989513
0.943631
0.954448
0.963032
1.01716
0.990475
0.931432
0.92148
1.0022
1.02769
1.07903
1.08957
1.02834
1.04647
1.06246
1.04952
1.0813
1.12377
1.19803
1.23745
1.2527
1.15245
1.15151
1.20476
1.2437
1.24929
1.23399
1.22475
1.23452
1.25811
1.26414
1.24887
1.24954
1.2547
1.25457
1.24454
1.23335
1.22197
1.22388
1.22187
1.22196
1.22925
1.22334
1.22709
1.23207
1.22589
1.22317
1.2242
1.22043
1.22399
1.22508
1.22199
1.2223
1.22233
1.22219
1.22177
1.22023
1.21866
1.21922
1.22024
1.22216
1.22276
1.21908
1.20939
1.19986
1.19111
1.18327
1.17805
1.17512
1.16658
1.15578
1.14505
1.13694
1.12901
1.13068
1.14355
1.1452
1.13481
1.12629
1.12746
1.12967
1.13203
1.12407
1.1172
1.11055
1.10443
1.10654
1.10958
1.0946
1.10408
1.09911
1.08288
1.11997
1.15584
1.15646
1.15227
1.15036
1.14307
1.12819
1.10734
1.08685
1.07407
1.0713
1.0737
1.07037
1.05861
1.04508
1.03667
1.0386
1.04931
1.05689
1.05542
1.04572
1.03358
1.02599
1.02445
1.02327
1.02126
1.02688
1.0406
1.05875
1.07601
1.08692
1.09246
1.08283
1.06034
1.05025
1.0219
1.01677
1.01029
1.01403
1.00401
1.00867
1.011
1.01336
1.01863
1.02101
1.03573
1.03802
1.04362
1.05699
1.06407
1.0553
1.05852
1.08572
1.11464
1.11385
1.08283
1.06486
1.07589
1.09755
1.10607
1.11917
1.10874
1.12176
1.18296
1.21029
1.17294
1.15309
1.16984
1.18461
1.1947
1.20348
1.20006
1.19998
1.18766
1.14958
1.1047
1.11725
1.09935
1.074
1.09077
1.1015
1.06087
1.09199
1.09639
1.07613
1.06066
1.04586
1.03047
1.00275
0.964005
0.951446
0.984343
0.994258
0.973287
0.913826
0.88302
0.982822
1.02839
1.07575
1.10689
1.04373
1.03183
1.05176
1.05602
1.07228
1.08464
1.15152
1.21057
1.26073
1.17712
1.12439
1.20302
1.24008
1.25911
1.24185
1.22462
1.24029
1.272
1.2577
1.24047
1.23669
1.2353
1.23648
1.23992
1.2367
1.2303
1.22917
1.23046
1.23375
1.2365
1.2323
1.23047
1.23048
1.23604
1.237
1.23692
1.2334
1.23082
1.2331
1.23457
1.23291
1.23257
1.23125
1.22929
1.22744
1.22583
1.22454
1.22341
1.22397
1.2273
1.23131
1.23077
1.22045
1.20824
1.20135
1.19062
1.18375
1.18074
1.17102
1.15764
1.15143
1.13979
1.1217
1.12806
1.14356
1.14358
1.13226
1.12695
1.12432
1.12999
1.12911
1.12877
1.11899
1.11113
1.11203
1.11185
1.09923
1.10747
1.10545
1.08942
1.12248
1.15504
1.15296
1.14789
1.14271
1.13165
1.11565
1.09793
1.08535
1.08059
1.07864
1.07054
1.05685
1.04542
1.04416
1.04877
1.05638
1.06091
1.05781
1.05219
1.04818
1.05013
1.05651
1.05956
1.0519
1.03927
1.03346
1.03354
1.04407
1.06281
1.08111
1.09295
1.09139
1.08577
1.0516
1.05565
1.04366
1.03115
1.0355
1.03062
1.04788
1.04646
1.05626
1.05338
1.04121
1.04178
1.04083
1.0365
1.02759
1.03855
1.05051
1.05461
1.0636
1.08587
1.10554
1.0974
1.07377
1.05991
1.07692
1.08763
1.10497
1.11173
1.107
1.12924
1.16398
1.17077
1.1593
1.16265
1.17844
1.18507
1.19861
1.20096
1.19872
1.19024
1.16437
1.11218
1.10837
1.11762
1.08195
1.07682
1.1014
1.04669
1.06492
1.08256
1.05786
1.03232
1.03779
1.01316
0.964813
0.949506
0.93966
1.0049
1.00346
0.96618
0.902721
0.873051
0.983304
1.05027
1.0824
1.11201
1.05343
1.03172
1.03332
1.05924
1.08252
1.06618
1.10969
1.17522
1.25454
1.20395
1.11524
1.20186
1.23588
1.26556
1.25279
1.22467
1.22829
1.26006
1.25203
1.24464
1.26075
1.26485
1.25861
1.25089
1.23968
1.22731
1.22377
1.22406
1.22548
1.22369
1.2238
1.23219
1.23176
1.23347
1.24115
1.24778
1.24787
1.2445
1.23962
1.2353
1.23158
1.23143
1.23005
1.22756
1.22591
1.22156
1.21615
1.2111
1.21133
1.21973
1.22258
1.22441
1.22428
1.21381
1.20592
1.20031
1.19083
1.18533
1.17897
1.15948
1.15273
1.15509
1.13302
1.12097
1.13598
1.14461
1.13902
1.1325
1.13114
1.13229
1.13759
1.13822
1.13831
1.11767
1.1125
1.10425
1.10711
1.11918
1.11272
1.09753
1.12627
1.15701
1.15401
1.14607
1.13704
1.12114
1.10474
1.09415
1.08959
1.08777
1.0806
1.06512
1.04913
1.04571
1.05311
1.05841
1.05897
1.05776
1.05705
1.05958
1.06487
1.07269
1.07662
1.0705
1.05638
1.04498
1.03717
1.02577
1.02522
1.03755
1.06013
1.07872
1.0801
1.08186
1.07431
1.05798
1.03427
1.03229
1.02371
1.03676
1.04654
1.05785
1.06757
1.0887
1.07873
1.07802
1.08287
1.08566
1.06621
1.0518
1.04632
1.04318
1.04294
1.06037
1.09265
1.1051
1.0944
1.06425
1.06122
1.06675
1.08482
1.10076
1.10513
1.11203
1.12614
1.13894
1.15452
1.15622
1.17351
1.17708
1.18462
1.19173
1.19666
1.18287
1.17147
1.1283
1.10817
1.12759
1.09723
1.07055
1.0988
1.03877
1.0339
1.0602
1.03972
0.997421
1.01364
0.999809
0.948217
0.962155
0.960865
0.996005
0.994106
0.946101
0.894584
0.89193
0.995491
1.07766
1.09069
1.10192
1.05917
1.04352
1.01847
1.06814
1.10179
1.0565
1.07938
1.11848
1.23316
1.21722
1.12842
1.20069
1.23213
1.26461
1.26772
1.2435
1.23538
1.24909
1.23651
1.23499
1.24597
1.24489
1.24875
1.24528
1.24214
1.23485
1.22973
1.22687
1.22823
1.23038
1.23078
1.23631
1.23595
1.235
1.23938
1.24705
1.24417
1.23585
1.22764
1.22206
1.21826
1.21514
1.21404
1.21298
1.2134
1.21425
1.20922
1.20513
1.20118
1.21
1.22367
1.22672
1.22454
1.2151
1.20478
1.19764
1.19353
1.18813
1.18516
1.16491
1.14404
1.15398
1.14554
1.11892
1.12389
1.13814
1.14059
1.1374
1.13808
1.13634
1.14129
1.13648
1.14685
1.13013
1.12196
1.10508
1.10492
1.12292
1.1119
1.10553
1.13366
1.15617
1.15359
1.14255
1.12862
1.11223
1.09972
1.09473
1.09303
1.0858
1.07102
1.05591
1.04919
1.05439
1.05972
1.05695
1.05268
1.0527
1.05587
1.05826
1.05891
1.06025
1.06137
1.06424
1.0651
1.06871
1.07333
1.06275
1.04873
1.03972
1.05087
1.06988
1.10314
1.09099
1.09734
1.0663
1.04709
1.03742
1.02895
1.03945
1.04229
1.06508
1.05036
1.08042
1.07274
1.07904
1.08095
1.09266
1.09201
1.09118
1.08252
1.0713
1.04689
1.04043
1.06047
1.08856
1.10012
1.08109
1.06371
1.05611
1.06621
1.08193
1.09487
1.10186
1.11272
1.11285
1.12823
1.14068
1.16268
1.17259
1.17436
1.17489
1.19022
1.17771
1.16877
1.14321
1.11663
1.12953
1.10035
1.06497
1.08454
1.0348
1.01533
1.03431
1.01556
0.978457
0.997644
0.982246
0.93939
0.964784
0.981264
0.969689
0.990762
0.94771
0.897047
0.929696
1.02148
1.1081
1.10661
1.0964
1.0757
1.06401
1.01351
1.08396
1.12662
1.06181
1.0597
1.05029
1.20189
1.19655
1.16332
1.19882
1.22753
1.26639
1.27215
1.25214
1.23697
1.26275
1.23038
1.2223
1.25174
1.25193
1.25014
1.24141
1.23098
1.2236
1.22134
1.2198
1.21869
1.22181
1.22971
1.23859
1.2401
1.24278
1.24816
1.25381
1.25091
1.24192
1.23252
1.22704
1.22261
1.21999
1.21774
1.21724
1.21525
1.21958
1.22288
1.22154
1.21808
1.20905
1.20986
1.21441
1.22123
1.21747
1.20847
1.1989
1.19146
1.1852
1.18249
1.17694
1.1518
1.14655
1.15137
1.13051
1.12128
1.13036
1.13458
1.13753
1.14109
1.14311
1.1454
1.14139
1.14526
1.14082
1.12981
1.12193
1.10727
1.12412
1.11274
1.10963
1.14308
1.15909
1.15337
1.14282
1.1245
1.10498
1.09439
1.09632
1.09768
1.08579
1.0683
1.0569
1.05635
1.06071
1.06193
1.05789
1.05826
1.05935
1.05595
1.04769
1.04021
1.03877
1.04153
1.0489
1.06053
1.06408
1.08254
1.0909
1.07913
1.05658
1.04746
1.06387
1.06851
1.10075
1.08676
1.06996
1.05291
1.03385
1.02579
1.03586
1.04381
1.06831
1.078
1.09843
1.08557
1.09788
1.09425
1.09313
1.08821
1.09512
1.0939
1.10325
1.08011
1.05868
1.04414
1.06862
1.0901
1.09064
1.07445
1.05617
1.05562
1.06309
1.08399
1.0857
1.10629
1.109
1.10576
1.121
1.14252
1.16064
1.17288
1.15955
1.18288
1.17552
1.16815
1.1559
1.12545
1.11929
1.08676
1.05447
1.06156
1.02722
1.01065
1.01406
0.994504
0.976483
0.988793
0.959373
0.947571
0.97963
0.987933
0.940011
0.976491
0.949905
0.868878
0.957494
1.04627
1.12476
1.13879
1.11579
1.10969
1.09533
1.02682
1.09525
1.14564
1.08664
1.04944
1.02381
1.16328
1.15644
1.17656
1.19524
1.2171
1.2682
1.29002
1.25727
1.21555
1.25155
1.25986
1.22722
1.23065
1.23916
1.24308
1.24633
1.24487
1.2376
1.23544
1.23595
1.23501
1.23669
1.23961
1.24305
1.24143
1.23881
1.23957
1.24028
1.23812
1.23251
1.23256
1.23848
1.23899
1.2358
1.23082
1.22792
1.22534
1.21778
1.2243
1.2293
1.23381
1.22844
1.21903
1.20812
1.20182
1.20299
1.20107
1.19782
1.19513
1.18988
1.17692
1.17025
1.15833
1.14652
1.14781
1.13767
1.12816
1.13421
1.13769
1.13881
1.14251
1.14574
1.14654
1.14812
1.14775
1.15192
1.1377
1.14025
1.12317
1.13142
1.12139
1.10852
1.1452
1.16746
1.15819
1.14619
1.12682
1.10401
1.09361
1.0999
1.10325
1.08694
1.06622
1.06136
1.06573
1.06796
1.06328
1.05907
1.05901
1.05703
1.04996
1.04312
1.04312
1.0479
1.05414
1.05229
1.05141
1.03966
1.05536
1.08727
1.09836
1.08814
1.06464
1.05001
1.07461
1.08699
1.10571
1.08438
1.05576
1.03523
1.02646
1.03879
1.05903
1.06962
1.08077
1.10209
1.09677
1.10483
1.10611
1.09953
1.09564
1.09968
1.08839
1.10411
1.10539
1.09015
1.05138
1.05506
1.0733
1.08787
1.08643
1.0661
1.05571
1.05141
1.07342
1.06823
1.09291
1.10271
1.09913
1.10228
1.11959
1.13113
1.16358
1.14257
1.16375
1.1557
1.15832
1.14981
1.11992
1.09719
1.06485
1.04151
1.0371
1.0141
1.00785
0.996542
0.984182
0.981077
0.978513
0.947247
0.965285
0.990443
0.970947
0.925389
0.971827
0.96404
0.849968
1.00678
1.07687
1.1159
1.16734
1.15213
1.14733
1.14064
1.06725
1.10344
1.15334
1.12157
1.05863
1.03946
1.13339
1.12204
1.14311
1.19073
1.20225
1.24074
1.30546
1.29781
1.22845
1.21067
1.24269
1.24224
1.23568
1.23376
1.22988
1.22707
1.22913
1.22765
1.22609
1.22722
1.22842
1.23116
1.23328
1.23641
1.2366
1.23442
1.23435
1.23635
1.23794
1.23798
1.23605
1.24001
1.24272
1.23274
1.23051
1.23229
1.23838
1.23501
1.22867
1.22539
1.22317
1.22512
1.21936
1.2162
1.20675
1.19693
1.19347
1.19029
1.1889
1.19399
1.19049
1.18194
1.17083
1.15388
1.14878
1.14228
1.1274
1.12694
1.13367
1.13747
1.14369
1.14828
1.14958
1.1517
1.15303
1.1585
1.14948
1.15397
1.14693
1.14151
1.13002
1.09944
1.12354
1.16344
1.1685
1.1573
1.13409
1.10671
1.09291
1.09908
1.10431
1.08553
1.06497
1.06158
1.06815
1.0687
1.06191
1.05679
1.05538
1.05204
1.04711
1.04758
1.05259
1.05737
1.06291
1.06447
1.07045
1.05762
1.05687
1.0823
1.1092
1.11861
1.10677
1.06603
1.07132
1.08939
1.1077
1.09834
1.06408
1.04716
1.04013
1.0558
1.08002
1.09937
1.11034
1.12594
1.12747
1.12626
1.1221
1.10082
1.09516
1.10675
1.09727
1.0942
1.11463
1.11778
1.08832
1.06194
1.06784
1.07819
1.09127
1.07675
1.06161
1.05211
1.06015
1.057
1.07494
1.08205
1.09587
1.08432
1.10156
1.09507
1.13957
1.12129
1.13207
1.12324
1.1319
1.12371
1.1033
1.07338
1.04711
1.03116
1.01705
1.00589
1.00545
0.984637
0.980996
0.983333
0.96571
0.950935
0.986219
0.991802
0.954433
0.923207
0.973226
1.00372
0.934093
1.13604
1.14504
1.11273
1.18781
1.18833
1.16649
1.18019
1.12559
1.11347
1.15016
1.15394
1.08984
1.07053
1.12856
1.09641
1.10918
1.18681
1.18959
1.2038
1.26878
1.32048
1.29209
1.24355
1.23084
1.23385
1.23686
1.24013
1.24189
1.23967
1.23825
1.23546
1.2334
1.23409
1.23354
1.23346
1.23494
1.23826
1.23864
1.23972
1.23925
1.23954
1.23965
1.23594
1.2357
1.23492
1.2352
1.22972
1.22425
1.22237
1.2199
1.22423
1.23227
1.24162
1.22914
1.21627
1.20782
1.20193
1.2007
1.19784
1.19636
1.19926
1.1935
1.18681
1.18202
1.17623
1.17716
1.16823
1.15388
1.15224
1.14237
1.12944
1.12926
1.13322
1.14091
1.14899
1.15248
1.15483
1.15839
1.162
1.1621
1.16532
1.16878
1.15129
1.13268
1.09422
1.10017
1.14473
1.1681
1.1683
1.14756
1.11417
1.09363
1.09904
1.10499
1.08739
1.06701
1.0647
1.06959
1.06543
1.05649
1.04971
1.04853
1.04741
1.04947
1.05619
1.05701
1.05016
1.04802
1.04817
1.07724
1.08223
1.07485
1.07497
1.09108
1.12776
1.12828
1.08673
1.06968
1.09452
1.10806
1.09903
1.063
1.04196
1.04287
1.05654
1.07896
1.09839
1.10956
1.12482
1.12456
1.12312
1.12717
1.11461
1.1007
1.10642
1.11463
1.09017
1.10245
1.11313
1.11956
1.07806
1.07608
1.06972
1.09128
1.08479
1.0692
1.06417
1.05034
1.05444
1.06018
1.05605
1.08776
1.07006
1.08645
1.07039
1.10998
1.10301
1.10037
1.09384
1.10022
1.09462
1.08319
1.05481
1.0374
1.02139
1.0082
1.00413
0.998999
0.980153
0.984996
0.984435
0.959535
0.966493
1.00201
0.979625
0.945244
0.931457
0.995446
1.07901
1.07559
1.23973
1.18417
1.10661
1.20078
1.20272
1.13494
1.18175
1.16819
1.11843
1.14082
1.16703
1.12046
1.10076
1.12869
1.07773
1.10349
1.18422
1.18358
1.18801
1.21948
1.29033
1.31829
1.30654
1.27979
1.25591
1.24352
1.23851
1.24088
1.24367
1.24501
1.24855
1.25339
1.2543
1.25382
1.25514
1.25515
1.25748
1.25558
1.24987
1.25105
1.24734
1.2426
1.24477
1.24317
1.23906
1.23128
1.22908
1.24233
1.24965
1.23765
1.22615
1.22071
1.22249
1.22355
1.21564
1.20688
1.20234
1.20135
1.20314
1.20367
1.20333
1.20431
1.19829
1.19347
1.18464
1.17277
1.17269
1.1616
1.15145
1.15158
1.14021
1.12924
1.12785
1.13458
1.14642
1.15285
1.15647
1.16209
1.16725
1.17151
1.17441
1.17787
1.15946
1.13932
1.10921
1.10162
1.12941
1.1548
1.16787
1.16162
1.12922
1.10026
1.0984
1.10502
1.09029
1.07051
1.06946
1.07345
1.06845
1.05868
1.05416
1.05336
1.05091
1.05247
1.05995
1.05977
1.05305
1.04878
1.02799
1.04717
1.06242
1.07145
1.06509
1.07684
1.12099
1.16045
1.11314
1.09791
1.09613
1.11813
1.11497
1.07625
1.06049
1.06082
1.07099
1.10017
1.11492
1.12109
1.13814
1.13359
1.10914
1.10005
1.10441
1.09342
1.08113
1.11778
1.1052
1.10656
1.10347
1.13365
1.09862
1.09298
1.06659
1.08847
1.08604
1.07578
1.07914
1.04922
1.06111
1.05338
1.04237
1.07648
1.06
1.07611
1.05836
1.08649
1.0879
1.0766
1.07585
1.07328
1.0755
1.06479
1.04456
1.0316
1.01236
1.00793
1.00187
0.994164
0.984129
0.988289
0.982609
0.964047
0.987138
1.00679
0.965605
0.948427
0.95171
1.03109
1.14559
1.16515
1.23881
1.16307
1.08483
1.17993
1.18337
1.07929
1.14975
1.16997
1.12453
1.13481
1.16464
1.14191
1.12691
1.12326
1.06957
1.12137
1.18295
1.18248
1.18411
1.19177
1.24088
1.28706
1.29999
1.29137
1.27367
1.25615
1.24054
1.22793
1.21766
1.21295
1.21167
1.20985
1.21205
1.21804
1.21966
1.22318
1.22434
1.22591
1.23419
1.23538
1.23436
1.23583
1.23927
1.24006
1.23749
1.24225
1.24536
1.24107
1.23455
1.23688
1.2435
1.23869
1.22204
1.2043
1.20007
1.20486
1.20893
1.21391
1.21278
1.21272
1.20553
1.1953
1.19166
1.18365
1.18589
1.17952
1.17084
1.17369
1.1558
1.15015
1.15123
1.1391
1.12881
1.12816
1.1405
1.15302
1.15825
1.1639
1.1711
1.17591
1.18039
1.17703
1.16649
1.15662
1.14154
1.12506
1.12669
1.1376
1.15394
1.16611
1.1492
1.11446
1.10207
1.1052
1.09222
1.07415