/*--------------------------------*- C++ -*----------------------------------*\
| =========                 |                                                 |
| \\      /  F ield         | OpenFOAM: The Open Source CFD Toolbox           |
|  \\    /   O peration     | Version:  dev                                   |
|   \\  /    A nd           | Web:      http://www.openfoam.org               |
|    \\/     M anipulation  |                                                 |
\*---------------------------------------------------------------------------*/
FoamFile
{
    version     2.0;
    format      ascii;
    class       volScalarField;
    object      T;
    location    "9.128";
}
// * * * * * * * * * * * * * * * * * * * * * * * * * * * * * * * * * * * * * //

dimensions      [0 0 0 1 0 0 0];

internalField   nonuniform List<scalar> 
12225
(
294.24
293.63
293.853
294.184
294.278
294.691
294.937
295.369
295.776
296.169
296.73
297.038
297.635
298.166
298.206
299.55
298.835
299.333
293.461
292.865
293.242
293.319
293.535
293.503
293.962
293.884
294.663
294.477
295.566
295.388
296.135
297.187
296.219
298.057
298.706
298.919
293.516
292.885
293.215
293.27
293.34
293.466
293.594
293.826
293.957
294.421
294.528
295.077
295.235
295.958
296.012
296.594
296.828
296.857
293.5
293.132
292.923
293.594
292.989
293.917
293.275
294.381
293.769
294.907
294.428
295.477
294.848
296.42
295.465
296.797
297.481
296.395
293.111
293.398
292.781
293.818
293.104
294.04
293.54
294.351
294.144
294.798
294.803
295.212
295.241
295.886
295.425
296.725
296.742
296.415
292.957
293.43
292.743
293.848
293.136
294.047
293.564
294.353
294.119
294.809
294.629
295.115
295.296
295.585
296.067
296.052
296.563
296.906
292.948
293.431
292.643
293.828
293.033
293.972
293.482
294.265
293.97
294.682
294.554
295.066
295.236
295.692
296.121
296.436
296.651
297.426
292.919
293.352
292.602
293.688
293.002
293.911
293.502
294.168
293.934
294.476
294.587
294.956
295.302
295.679
296.069
296.442
296.817
296.919
292.878
293.347
292.612
293.538
292.914
293.906
293.533
294.13
293.801
294.407
294.525
294.947
295.173
295.748
295.973
296.348
296.523
296.675
292.895
293.253
292.683
293.441
292.831
293.749
293.464
294.004
293.745
294.348
294.519
294.937
295.228
295.7
296.086
296.332
296.601
296.776
292.986
293.165
292.764
293.383
293.025
293.595
293.415
293.85
293.841
294.341
294.623
295.019
295.398
295.757
296.221
296.395
296.798
297.002
293.193
293.014
292.842
293.158
293.111
293.427
293.541
293.928
294.074
294.45
294.836
295.235
295.585
295.928
296.413
296.743
297.113
297.388
293.277
292.863
292.973
293.168
293.232
293.403
293.65
293.959
294.313
294.645
295.089
295.473
295.896
296.26
296.631
297.01
297.507
297.815
293.291
292.712
292.915
293.08
293.247
293.448
293.758
294.042
294.438
294.813
295.212
295.615
296.062
296.505
296.995
297.424
297.855
298.281
293.357
292.644
292.859
293.008
293.172
293.383
293.693
294.04
294.467
294.876
295.367
295.831
296.348
296.84
297.305
297.801
298.294
298.735
293.258
292.579
292.836
292.986
293.149
293.384
293.691
294.048
294.484
294.936
295.467
295.98
296.516
297.06
297.606
298.122
298.616
299.12
293.199
292.52
292.778
292.916
293.081
293.316
293.636
294.005
294.448
294.912
295.421
295.943
296.48
297.025
297.562
298.111
298.644
299.155
293.106
292.371
292.61
292.767
292.945
293.2
293.529
293.895
294.303
294.744
295.19
295.686
296.168
296.707
297.215
297.735
298.237
298.718
293.005
292.205
292.414
292.607
292.78
293.016
293.295
293.607
293.972
294.396
294.8
295.281
295.713
296.201
296.641
297.082
297.491
297.884
292.959
292.119
292.343
292.482
292.614
292.814
293.065
293.366
293.684
294.08
294.406
294.821
295.187
295.574
295.955
296.291
296.644
296.946
292.908
292.018
292.278
292.372
292.475
292.62
292.829
293.115
293.362
293.7
293.967
294.292
294.612
294.914
295.233
295.503
295.801
296.03
292.887
291.916
292.132
292.226
292.306
292.468
292.643
292.903
293.104
293.348
293.585
293.808
294.07
294.313
294.544
294.789
294.977
295.2
292.829
291.864
292.076
292.169
292.242
292.396
292.561
292.77
292.963
293.171
293.363
293.563
293.753
293.957
294.138
294.309
294.456
294.594
292.827
291.787
292.028
292.113
292.183
292.274
292.423
292.585
292.786
292.981
293.144
293.322
293.457
293.619
293.741
293.875
293.99
294.088
292.797
291.751
291.995
292.082
292.161
292.267
292.362
292.502
292.628
292.793
292.946
293.098
293.265
293.413
293.563
293.698
293.807
293.913
292.781
291.771
291.998
292.072
292.122
292.217
292.333
292.461
292.594
292.738
292.871
293.012
293.138
293.272
293.384
293.491
293.564
293.622
292.741
291.715
291.964
292.049
292.098
292.187
292.273
292.393
292.491
292.622
292.717
292.825
292.904
292.978
293.022
293.044
293.041
293.013
292.755
291.682
291.928
292.031
292.106
292.208
292.282
292.368
292.417
292.484
292.499
292.54
292.516
292.516
292.435
292.391
292.279
292.176
292.727
291.658
291.939
292.057
292.137
292.216
292.272
292.328
292.373
292.423
292.458
292.506
292.534
292.571
292.557
292.62
292.548
292.665
293.341
292.252
292.54
292.725
292.879
293.046
293.229
293.439
293.659
293.889
294.121
294.356
294.583
294.806
295.022
295.237
295.435
295.701
290.421
282.36
283.995
286.434
287.458
287.707
288.011
288.227
288.804
289.338
290.084
290.88
291.68
292.409
293.041
293.589
294.054
294.429
294.671
294.838
294.965
295.088
295.229
295.438
295.656
295.834
295.966
296.049
296.046
295.951
295.766
295.516
295.281
295.094
294.936
294.808
294.711
294.609
294.495
294.399
294.32
294.226
294.16
294.088
294.015
293.941
293.818
293.585
293.275
292.925
292.654
292.605
292.589
292.435
292.535
293.473
294.607
294.625
293.511
292.179
291.331
290.786
289.828
288.489
287.217
286.231
285.461
284.682
283.863
282.915
281.748
280.768
280.598
281.142
281.654
281.197
279.763
278.892
279.185
280.881
283.33
284.145
282.172
278.888
275.733
273.122
271.075
269.786
269.143
268.32
267.135
266.055
265.671
265.633
265.523
265.23
264.919
264.709
264.196
263.136
262.5
263.479
265.08
264.948
260.467
265.196
260.737
261.777
261.414
261.647
261.808
261.932
262.362
262.631
263.223
263.626
264.591
265.433
266.657
268.222
269.893
271.032
272.325
273.982
275.031
275.125
275.801
276.736
277.57
278.119
278.387
278.8
279.437
279.905
280.206
279.26
278.756
278.502
278.023
277.585
277.168
276.503
275.285
273.632
271.954
270.693
269.109
269.108
267.573
267.655
266.005
265.801
263.795
264
261.775
262.033
261.69
260.166
259.927
261.233
260.941
261.61
262.224
263.367
264.389
265.36
266.311
267.105
267.301
267.704
267.886
267.96
268.428
268.411
267.279
269.079
271.247
273.228
273.77
274.871
290.087
282.363
287.416
290.969
291.039
289.842
289.997
289.685
290
290.407
291.035
291.561
291.648
291.465
291.434
291.086
290.642
290.49
290.358
290.406
290.372
290.776
291.02
291.231
291.429
291.579
291.785
291.952
292.211
292.254
292.25
292.393
292.697
292.858
292.867
292.877
292.885
292.799
292.624
292.443
292.261
292.037
291.954
291.664
291.277
291.379
291.613
291.001
290.082
289.835
289.336
288.453
288.202
288.761
289.001
288.034
288.52
290.059
289.287
289.266
291.256
289.637
285.685
283.825
282.256
280.242
279.345
280.143
281.71
281.251
278.343
275.583
274.267
275.134
274.949
272.724
273.304
275.689
273.158
267.186
263.467
261.962
260.376
258.859
258.562
259.522
260.958
261.438
259.939
257.634
256.537
257.753
260.298
262.96
264.795
265.789
266.78
267.236
265.708
261.981
258.362
261.141
272.109
273.689
253.326
276.525
259.686
262.566
260.42
261.047
259.732
258.597
257.173
255.873
254.555
252.418
250.48
248.96
248.201
246.552
246.34
248.353
250.512
251.196
253.419
255.878
256.83
257.104
258.124
259.869
261.385
262.454
264.369
266.832
270.564
270.254
268.587
268.145
267.254
265.627
263.651
261.204
258.532
255.601
253.626
252.242
250.695
252.018
249.711
251.758
249.78
251.555
249.886
251.225
248.746
249.222
255.684
253.785
249.114
252.444
253.947
253.5
252.759
252.32
253.162
254.057
253.937
254.682
252.351
250.846
249.782
249.671
248.429
245.723
240.144
239.187
240.904
248.442
252.49
256.02
292.665
287.508
293.041
293.725
293.71
292.323
292.73
292.59
292.018
291.263
289.368
287.329
287.74
287.893
287.56
289.219
288.777
289.211
289.956
290.108
291.189
290.677
291.405
291.277
291.742
292.246
292.496
293.149
293.276
294.086
294.584
295.233
295.379
295.375
295.32
295.396
295.59
295.73
295.667
295.503
295.41
295.504
295.768
295.847
295.342
295.3
294.959
293.162
291.565
292.415
292.427
289.945
289.615
290.461
290.778
290.365
289.165
289.661
288.846
286.585
287.912
289.472
288.06
285.991
283.205
280.25
278.055
280.024
285.378
283.512
276.044
271.889
270.03
269.687
270.97
271.671
270.538
266.838
262.765
261
261.112
261.569
262.321
264.259
268.051
272.816
276.163
276.137
273.312
270.896
270.578
272.137
273.967
276.27
277.889
278.432
278.302
277.694
276.473
275.32
274.273
274.564
278.389
278.357
275.401
281.839
278.29
278.78
277.153
278.352
278.375
279.896
278.874
278.972
278.176
276.722
274.269
269.892
265.457
262.64
257.247
249.35
244.093
241.379
241.368
242.246
245.288
246.994
247.27
247.003
247.693
250.02
255.037
261.563
268.354
266.961
263.023
262.47
261.97
258.82
255.443
251.729
249.159
247.18
245.88
245.213
244.371
246.476
245.286
247.929
248.693
251.569
254.838
256.781
257.081
248.344
261.28
267.951
260.926
258.889
265.393
265.018
263.021
259.01
256.197
256.903
256.194
257.31
256.914
258.009
249.033
243.912
241.395
240.568
233.377
227.328
229.587
234.848
240.675
250.338
294.929
289.712
294.231
293.008
294.37
294.398
291.993
289.77
287.346
284.521
285.494
287.905
287.512
289.082
289.193
288.505
290.516
290.268
291.838
291.84
291.07
292.196
291.43
292.225
292.139
292.598
293.212
293.334
294.241
294.258
294.99
294.781
294.463
293.71
293.279
293.682
294.616
295.327
295.557
295.443
295.299
295.311
296.278
297.483
297.439
296.664
295.558
293.885
292.478
292.457
292.505
290.057
290.038
291.341
291.078
291.714
290.319
289.022
289.034
287.389
287.637
286.872
285.514
287.197
286.174
285.634
280.497
279.575
286.971
280.653
267.699
262.951
264.208
266.228
267.231
266.666
264.796
262.295
261.019
261.391
262.242
263.847
266.684
270.189
273.773
276.31
276.47
274.638
272.968
272.913
273.449
273.894
273.625
273.486
273.141
272.511
271.413
270.217
269.962
270.966
272.495
272.925
271.297
267.646
273.433
279.181
270.181
268.96
268.439
269.422
269.829
272.589
274.184
275.672
276.436
280.49
281.939
281.36
279.206
272.791
274.717
275.861
265.918
255.126
248.767
246.216
244.546
243.786
245.176
241.483
238.68
243.67
253.71
259.85
265.977
266.861
262.99
258.113
254.984
252.691
250.432
248.505
246.691
245.363
246.24
246.087
244.237
244.647
245.627
244.986
250.63
251.935
255.961
255.351
267.513
261.407
262.227
268.276
272.444
266.354
269.72
275.494
273.562
268.5
267.53
264.861
261.348
260.176
257.026
263.123
260.318
253.811
240.06
239.073
237.41
227.227
234.434
235.673
238.964
246.078
296.393
290.961
295.461
294.476
293.961
291.95
289.36
287.781
287.085
287.703
289.383
288.857
287.702
289.057
288.865
289.229
292.134
291.823
291.864
292.556
292.277
292.024
291.857
292.075
291.41
291.987
292.592
293.098
293.962
294.484
294.477
294.274
293.1
291.992
291.855
293.075
294.777
295.919
296.759
297.086
296.644
295.929
296.35
297.564
297.637
296.105
294.765
293.948
293.601
292.699
292.168
292.155
292.347
291.796
290.155
290.982
291.006
290.067
290.076
288.95
288.636
286.12
286.386
287.516
285.324
286.288
282.352
283.86
287.548
278.442
267.94
263.876
263.781
265.262
265.863
264.724
263.146
262.353
263.012
264.818
267.522
271.162
274.584
276.839
277.847
277.575
276.429
275.759
276.569
277.737
278.197
278.494
278.533
278.478
278.396
277.812
276.662
275.522
274.761
273.77
272.245
271.516
273.922
278.151
268.352
289.66
273.334
272.293
271.768
274.667
274.042
272.989
270.505
272.489
273.01
272.851
274.099
275.604
282.027
283.187
274.808
280.404
277.948
264.9
262.826
255.953
249.937
255.404
254.385
241.262
236.951
240.552
249.954
259.543
265.827
265.355
259.842
258.234
254.434
251.459
248.899
246.571
248.719
248.441
248.042
249.631
250.362
248.567
250.76
249.073
251.682
252.615
262.985
250.744
256.766
263.319
269.76
268.311
272.537
275.938
269.55
272.91
280.435
268.85
271.195
271.754
271.394
268.74
264.546
264.595
262.724
268.242
250.498
239.702
239.935
229.791
238.401
240.027
245.466
242.627
297.224
291.867
297.511
295.979
291.67
289.331
287.589
286.025
286.424
287.668
287.671
288.641
288.219
287.888
290.516
292.355
293.251
293.919
293.415
293.103
293.215
294.096
292.686
291.96
293.29
291.922
292.622
293.476
293.304
294.37
294.024
293.391
292.218
291.322
291.545
292.787
294.204
295.1
296.301
297.518
297.733
297.109
296.276
297.027
297.394
296.61
295.995
295.424
294.456
293.551
292.509
291.806
290.531
289.113
289.201
291.289
291.978
291.609
291.322
291.051
290.974
288.657
289.03
286.798
283.487
287.857
285.7
282.717
287.597
282.077
268.387
263.459
263.768
264.259
264.171
263.4
262.939
263.87
266.775
271.079
275.473
278.265
278.582
277.639
276.602
276.285
277.229
279.352
281.664
282.496
282.203
281.819
281.012
279.741
278.294
276.069
273.632
271.483
269.969
269.077
269.509
270.781
272.844
273.821
262.33
278.262
275.889
276.315
274.096
280.193
280.948
280.175
278.603
274.522
272.924
270.974
271.424
272.827
269.155
275.95
282.754
281.633
287.963
279.824
268.173
268.455
259.551
256.555
267.199
258.023
240.408
236.988
246.793
257.664
262.773
266.633
259.843
254.835
253.49
250.926
250.991
248.68
248.233
249.373
249.622
248.481
249.544
249.267
250.471
250.935
257.116
252.356
260.857
258.779
263.292
261.405
267.153
272.49
268.539
276.16
277.312
269.04
290.757
280.351
271.713
265.113
269.25
267.012
270.092
273.392
263.283
274.329
266.48
247.98
243.082
232.868
237.798
241.474
254.843
244.684
297.729
291.016
296.04
295.976
290.368
285.361
284.647
288.649
287.272
287.317
287.453
286.219
288.335
290.51
292.788
293.505
293.401
293.084
292.75
294.469
292.685
292.554
294.312
293.155
292.928
292.612
293.468
293.348
293.34
293.873
294.128
293.436
292.542
291.87
291.966
292.471
293.193
293.523
294.447
295.859
296.837
297.54
297.074
297.364
298.071
298.953
298.571
298.422
297.578
296.188
293.798
291.589
291.867
293.234
293.078
291.282
290.117
291.475
292.647
292.481
291.774
290.196
290.967
288.044
284.981
287.75
283.802
281.912
287.635
280.204
267.739
264.125
263.835
263.528
262.841
262.493
263.76
267.164
272.576
278.035
280.719
279.665
277.062
275.739
276.758
279.642
282.474
284.33
284.457
283.192
282.354
282.482
282.429
281.557
279.779
276.806
273.86
271.191
269.524
268.541
268.888
270.791
275.005
280.364
269.641
281.708
282.999
285.503
280.046
283.039
283.613
284.712
283.917
282.032
279.836
278.469
279.231
276.525
272.182
265.677
267.572
272.59
281.906
287.906
279.307
272.911
269.738
263.825
267.025
271.545
259.22
240.555
241.034
255.514
262.61
262.884
261.681
255.103
252.288
248.844
247.956
248.763
248.875
248.794
252.511
257.261
261.126
251.848
252.159
249.218
252.237
252.738
258.367
258.274
262.869
266.347
269.577
281.025
280.13
273.832
277.93
264.255
286.491
296.669
289.033
271.08
270.18
262.54
266.534
279.709
268.9
273.4
276.627
261.427
250.912
237.983
236.949
239.61
259.107
250.621
298.192
289.922
292.124
294.05
293.014
289.139
283.212
286.718
290.524
287.795
288.76
290.317
290.667
290.465
293.304
292.732
292.429
293.435
293.181
293.361
292.491
293.643
293.574
293.422
295.055
293.37
292.84
294.583
294.145
293.166
293.626
292.569
291.656
291.337
290.92
290.985
290.679
290.52
291.158
292.505
293.675
295.127
296.309
296.821
296.708
297.834
298.486
299.227
299.916
299.872
298.948
295.781
292.896
292.856
293.648
293.736
293.351
292.695
291.511
291.263
292.412
293.178
295.156
292.304
288.342
288.279
283.465
283.968
288.647
278.81
267.802
265.299
264.697
264.07
264.14
265.14
268.13
273.258
278.655
281.72
280.736
277.755
276.268
277.949
281.627
284.637
284.755
282.779
280.447
279.495
280.84
283.186
284.377
283.909
282.425
279.6
276.169
272.663
270.38
269.529
270.296
272.918
275.852
279.819
287.195
291.602
291.341
292.874
291.647
293.561
286.448
289.003
287.47
285.47
284.927
282.807
283.658
283.408
285.909
283.046
273.902
267.265
269.188
279.241
285.547
281.45
275.717
271.163
269.541
271.341
273.883
258.692
244.624
250.326
263.15
263.472
260.867
257.03
253.739
251.224
249.605
248.899
251.512
255.427
259.209
257.955
268.211
264.596
258.262
255.942
258.504
251.306
252.81
255.405
258.544
263.21
265.348
276.928
290.908
288.223
285.362
271.176
278.527
297.778
303.204
279.814
274.083
262.612
261.359
278.842
276.161
273.409
278.296
271.468
262.294
246.745
239.455
236.78
257.856
259.002
298.499
289.251
288.119
291.574
293.608
291.304
285.879
284.44
287.858
287.538
286.324
286.38
288.698
291.223
293.903
293.307
293.694
293.591
291.766
293.015
291.877
290.622
291.992
292.419
292.021
292.618
291.487
291.035
291.479
291.068
290.736
290.393
290.092
290.047
290.005
289.44
288.734
287.775
287.052
287.254
288.892
290.545
292.006
293.245
293.827
293.721
294.921
296.748
298.621
299.806
301.001
299.721
295.256
293.43
294.805
295.918
294.477
292.614
290.599
291.212
291.705
292.07
292.442
290.574
288.083
290.542
286.711
286.483
289.689
278.984
268.766
267.136
266.817
266.029
266.547
268.94
273.002
277.327
279.909
279.854
278.275
278.182
280.497
283.653
285.571
284.621
281.292
278.94
279.102
281.543
284.738
286.695
286.973
287.155
287.461
285.605
281.736
277.03
272.898
270.515
269.529
272.317
278.302
281.252
289.234
290.882
293.136
292.353
295.625
294.545
294.318
293.902
292.78
292.579
288.754
288.337
287.24
283.928
282
284.504
284.4
277.94
270.664
270.324
278.085
283.706
281.802
276.634
274.814
271.755
274.687
272.996
259.553
252.675
260.064
265.306
261.866
258.202
255.43
252.667
252.31
250.996
251.792
258.17
267.305
262.704
264.09
268.993
263.487
258.526
267.204
258.238
255.259
258.925
261.823
264.321
267.827
274.985
285.298
289.569
279.382
277.723
284.571
304.218
316.747
285.792
274.109
263.851
257.736
274.938
280.295
276.614
276.89
273.956
271.973
257.088
245.252
235.668
252.697
265.442
299.05
290.168
285.938
289.854
293.782
290.076
282.88
285.853
289.877
290.932
291.238
290.849
290.007
290.68
292.096
292.218
291.846
290.979
290.142
291.067
291.409
291.216
289.807
289.487
289.355
289.991
290.316
289.492
288.866
288.945
288.717
288.689
288.79
288.852
288.837
288.718
288.555
287.996
286.743
285.224
284.603
286.245
288.51
289.485
291.347
292.355
292.257
293.676
296.204
296.894
298.775
302.742
300.38
295.163
293.701
295.361
295.592
295.139
292.375
291.276
289.972
291.126
291.803
290.197
288.552
290.788
287.418
286.341
289.375
279.651
270.217
269.245
269.128
269.05
270.414
273.181
276.705
279.139
279.571
279.152
280.221
282.901
285.349
285.298
283.626
281.051
279.35
279.811
281.088
282.014
281.368
279.582
278.766
280.8
284.061
285.392
285.093
282.08
277.23
272.868
270.314
271.053
272.812
281.863
280.938
284.512
288.251
287.421
289.084
284.616
285.349
282.903
283.817
287.527
287.808
288.299
289.685
292.705
290.241
287.109
286.175
284.246
278.852
273.76
275.457
281.717
286.356
282.624
280.273
276.239
274.613
276.369
271.933
263.959
261.868
264.269
263.765
259.962
257.953
254.251
252.564
251.662
251.832
255.279
265.464
265.327
260.656
267.132
267.539
259.33
271.309
265.935
259.744
264.436
270.455
267.755
273.423
287.226
290.742
293.803
275.13
275.826
287.386
308.499
320.343
286.037
268.68
262.583
257.091
272.835
280.542
281.966
276.531
271.665
276.861
267.115
253.082
237.34
247.375
267.921
299.441
291.251
284.516
287.512
294.039
293.023
285.449
287.189
289.073
285.549
284.569
285.961
287.583
290.115
292.981
293.743
293.562
293.113
293.438
293.399
291.36
291.298
290.728
288.82
287.14
286.887
287.385
288.213
288.948
289.586
289.364
289.386
289.664
289.7
290.318
291.193
292.039
291.697
289.24
287.951
286.919
286.192
287.903
289.174
289.797
291.35
291.966
292.513
296.511
297.644
295.919
300.461
303.061
298.269
294.669
294.789
295.343
294.591
293.069
290.45
288.872
287.468
291.294
291.335
291.962
290.194
285.806
285.731
288.682
280.159
271.106
270.392
270.928
271.748
274.351
277.346
279.16
279.493
278.988
279.803
282.985
286.573
286.923
284.308
282.239
281.43
281.256
281.144
280.212
278.549
276.306
275.243
276.936
280.728
283.812
286.006
289.017
288.852
285.268
279.366
274.97
274.986
274.812
276.953
281.594
288.33
289.164
291.996
288.653
286.325
283.511
281.417
276.002
278.674
279.266
278.335
277.61
282.689
286.972
288.906
290.099
290.704
286.699
278.411
274.947
277.272
285.523
287.239
286.494
282.297
278.383
277.467
276.194
273.135
270.28
266.406
265.817
261.578
260.102
257.763
255.212
252.655
254.032
254.56
262.124
265.825
259.414
264.212
269.794
261.046
274.085
274.834
266.524
270.205
280.899
275.415
278.193
292.864
287.77
287.686
279.118
279.436
294.105
312.042
313.77
282.85
262.314
260.927
259.998
271.889
277.684
286.524
274.791
267.261
279.621
274.855
266.305
242.103
245.031
265.391
299.789
292.197
284.776
284.178
289.758
291.529
288.272
290.866
291.251
288.851
289.006
288.134
288.858
289.54
291.258
292.454
293.087
292.699
292.166
292.097
290.701
290.644
290.784
289.663
287.665
288.007
289.659
291.369
292.504
293.195
293.711
293.727
293.714
293.322
292.701
293.466
294.053
294.752
292.397
288.559
287.07
286.817
288.305
290.147
291.281
291.594
292.186
291.912
295.85
300.765
297.473
298.221
304.416
302.539
297.646
295.668
295.345
294.022
293.305
290.73
290.685
286.67
289.545
290.275
293.452
292.218
286.185
287.352
288.112
279.9
272.758
271.927
273.265
275.272
278.073
280.186
280.613
280.178
280.955
283.762
287.014
288.247
286.172
284.026
284.09
284.694
284.191
282.867
281.742
281.111
280.426
279.988
279.328
279.321
278.432
277.571
280.613
284.276
286.469
283.303
278.405
270.433
273.777
272.463
280.676
286.028
289.064
291.803
289.203
288.797
282.778
287.096
279.455
281.573
280.241
280.112
277.369
277.632
277.938
280.254
283.161
290.014
292.747
287.956
280.728
277.32
282.044
287.108
289.955
287.965
284.204
281.032
279.478
276.839
277.013
273.471
270.364
264.841
261.731
260.407
259.541
254.806
255.788
256.028
259.539
264.359
260.002
264.731
272.157
265.769
276.201
280.495
274.322
277.903
287.019
280.782
284.594
296.334
288.206
283.023
288.063
281.58
294.093
312.532
301.917
276.116
255.823
257.477
261.76
268.21
272.761
288.37
271.322
261.766
278.58
280.153
284.25
249.022
249.829
258.26
300.236
293.238
284.449
283.267
287.647
290.88
285.198
292.852
294.55
287.578
287.551
287.91
289.95
292.397
294.18
294.771
295.153
295.382
294.656
292.789
290.533
290.006
289.295
287.929
286.345
286.689
288.525
290.623
291.838
292.714
293.113
293.403
293.229
293.46
292.17
290.954
290.78
291.052
292.818
292.348
290.818
288.511
288.569
290
291.681
292.866
293.763
293.683
293.922
299.472
300.374
298.008
302.364
304.202
300.888
298.59
296.693
294.614
292.926
291.012
290.855
288.504
288.386
289.784
290.764
293.311
287.505
288.918
288.568
279.092
273.747
273.618
274.889
278.066
281.662
283.249
281.891
280.694
282.693
286.27
288.641
288.146
286.144
285
285.466
284.877
284.111
284.518
286.301
287.997
288.119
287.169
284.88
281.724
280.578
275.878
274.347
277.736
283.686
285.914
281.597
280.593
272.681
276.519
281.053
285.897
291.511
294.171
291.658
289.753
283.468
281.104
276.069
279.569
276.744
277.805
278.358
279.956
278.431
278.999
276.526
282.183
288.182
293.072
287.221
281.414
280.986
285.183
290.639
291.534
290.2
284.816
284.596
279.495
278.447
279.455
275.901
270.393
265.508
261.361
263.599
257.344
257.203
257.158
257.829
263.122
263.382
269.379
276.003
272.805
279.699
282.698
280.849
284.908
288.518
284.393
292.641
294.632
284.871
282.849
298.132
286.941
294.023
323.975
294.351
270.276
253.208
250.813
257.623
260.512
265.436
284.93
269.015
257.912
272.727
283.331
292.284
257.703
259.358
256.118
301.037
295.567
283.737
279.465
286.731
296.05
287.191
285.909
293.595
292.474
290.449
289.489
288.798
289.239
291
291.572
291.474
291.704
291.313
290.546
289.562
289.767
290.271
289.987
289.631
289.94
291.215
291.293
289.8
289.356
289.732
290.651
291.126
291.372
293.011
291.344
289.769
288.138
288.735
290.389
292.549
293.729
292.948
292.755
292.92
292.904
293.342
295.802
296.734
298.928
301.322
300.094
301.722
303.497
301.026
299.005
297.63
295.597
293.599
292.178
290.608
289.477
287.133
289.449
287.693
291.014
287.376
288.442
290.255
279.702
273.292
274.3
275.941
279.4
283.839
285.304
282.669
280.948
284.119
288.589
289.119
287.266
285.897
286.34
286.811
286.228
286.261
287.791
289.427
289.23
287.691
285.874
286.187
286.325
289.199
284.422
276.314
274.062
277.002
283.159
286.981
280.546
277.671
273.184
278.763
286.64
292.607
295.484
292.37
287.015
284.463
281.855
276.636
278.082
276.416
276.229
278.131
279.479
278.503
281.734
278.086
277.528
280.949
291.739
291.815
287.263
283.346
283.447
288.927
292.267
294.327
288.529
290.199
284.074
281.113
281.756
281.159
276.582
273.585
264.567
268.266
262.515
262.838
260.638
260.594
265.577
269.705
276.125
280.571
280.416
284.748
284.744
286.952
289.053
288.485
288.766
297.307
290.446
283.182
289.383
303.636
289.3
290.087
330.652
280.407
262.861
256.333
245.703
250.094
252.732
255.478
274.422
267.491
256.809
264.868
281.519
288.323
265.005
268.116
264.424
302.013
299.004
289.433
275.589
277.913
293.713
297.226
289.423
289.899
291.45
291.872
292.776
293.439
292.983
293.382
293.797
293.568
293.308
292.641
292.107
291.306
291.15
291.633
291.629
291.093
290.602
290.409
290.789
289.773
288.686
290.685
291.233
290.775
289.006
289.265
290.438
290.974
291.202
290.256
291.084
291.318
292.975
294.932
295.356
295.602
295.466
293.519
293.458
294.702
296.625
300.298
300.903
301.617
304.751
304.139
301.38
299.339
296.678
294.358
292.879
291.179
289.738
287.033
288.209
285.913
286.699
286.395
287.65
294.065
286.338
275.562
273.542
275.169
279.59
285.139
287.381
284.655
282.393
286.327
290.882
290.899
288.304
287.326
288.406
289.088
288.895
289.377
290.474
290.154
288.42
286.658
284.877
284.357
283.106
286.633
286.362
279.298
272.708
270.833
273.991
284.497
283.172
278.689
274.354
276.873
286.064
291.007
293.3
289.346
283.157
278.396
275.895
272.349
272.086
272.618
273.64
279.114
281.201
278.398
280.716
282.084
277.198
275.836
283.023
290.669
289.878
287.356
283.808
287.375
291.739
295.022
293.058
294.325
289.702
287.827
283.666
286.524
281.711
283.455
271.406
274.223
270.73
271.574
268.025
268.059
270.882
276.735
281.903
284.557
286.994
288.341
286.86
291.597
291.238
289.289
293.981
297.137
285.758
284.463
295.541
305.225
289.686
279.313
300.208
248.755
247.766
257.931
242.608
243.395
249.879
247.854
260.786
265.56
258.273
258.124
274.12
280.497
266.75
275.126
273.599
302.769
302.004
298.096
282.622
272.381
279.322
290.34
292.765
291.874
291.165
290.419
290.113
290.732
291.087
291.83
292.475
292.354
292.46
292.492
292.17
291.344
291.163
290.814
290.858
290.674
290.409
291.164
291.163
291.185
290.791
291.79
293.041
293.389
293.82
292.717
290.646
287.733
289.801
292.518
294.292
295.442
295.372
295.604
295.581
294.241
294.866
295.877
296.424
297.299
296.284
297.58
300.566
300.237
301.86
304.487
303.75
301.785
298.792
295.63
293.608
291.902
289.921
287.805
286.744
284.808
282.752
285.384
288.418
297.542
294.708
281.808
275.072
274.176
278.261
285.375
289.303
286.626
284.105
287.852
292.409
292.168
289.962
290.25
291.946
293.174
292.921
292.729
291.804
289.704
289.122
290.557
290.77
290.16
282.424
281.528
283.538
283.215
278.93
270.157
270.389
280.838
285.405
279.164
275.985
278.416
288.103
294.257
294.341
290.921
285.167
280.378
277.855
274.278
274.513
275.294
274.445
277.394
281.271
280.361
277.945
284.335
281.811
279.151
276.972
287.561
288.801
290.96
285.487
286.744
291.136
292.743
296.835
296.207
294.474
296.195
287.14
291.296
286.449
290.624
279.751
279.737
279.35
279.813
276.87
276.383
277.222
282.743
285.704
288.602
290.609
290.185
290.187
294.183
291.496
290.501
297.108
293.642
282.921
289.64
299.503
303.511
283.963
261.02
261.895
229.358
241.366
260.698
241.415
241.564
258.378
248.938
252.247
264.931
261.22
255.982
267.394
273.462
267.273
280.852
276.12
303.071
303.283
302.011
293.627
277.633
272.61
275.737
281.53
286.706
289.441
290.529
289.941
289.276
289.015
288.346
287.287
287.071
287.308
287.078
287.143
286.573
286.851
288.263
288.035
288.689
289.855
289.424
289.562
290.218
291.942
292.888
289.902
287.394
289.47
292.084
293.389
292.725
291.914
293.246
295.09
296.004
295.99
295.138
294.472
294
293.068
293.832
294.328
295.759
298.205
297.539
299.536
301.491
300.661
302.695
304.83
304.473
301.844
297.751
295.002
293.021
290.549
288.162
286.003
284.174
281.854
284.95
288.785
296.177
297.159
287.892
279.871
275.714
276.591
283.737
289.866
288.912
286.083
289.078
293.544
292.936
291.035
291.651
293.693
294.361
294.073
294.197
293.093
290.589
290.318
292.017
293.271
298.49
292.342
288.178
286.112
287.914
284.665
273.589
264.577
275.972
279.979
280.707
275.427
276.288
286.467
291.061
291.307
288.962
281.547
277.964
276.779
272.834
273.779
280.166
283.121
282.059
284.751
288.978
279.574
282.294
282.151
283.44
275.561
283.939
285.614
293.162
287.855
288.058
291.116
290.023
298.478
295.627
297.319
301.2
291.43
295.256
290.302
294.682
286.725
284.655
286.447
285.456
284.841
282.411
283.321
286.782
288.653
292.583
291.961
292.366
293.094
294.362
292.182
292.614
297.016
289.199
283.307
295.234
299.725
298.125
275.258
247.708
243.917
231.408
247.499
267.088
247.348
246.892
272.908
257.347
253.137
264.318
263.443
257.4
263.311
267.845
269.216
284.167
272.71
302.876
303.108
302.688
300.292
287.768
277.681
275.4
277.62
281.739
285.679
289.168
291.997
294.456
295.747
296.141
296.703
296.456
295.135
294.821
294.143
293.897
293.778
291.986
291.502
291.798
291.669
290.805
290.439
291.07
290.064
289.043
289.571
291.032
290.619
288.749
289.039
292.304
296.575
297.902
296.675
295.319
293.571
293.251
292.628
293.627
295.666
296.087
297.644
296.491
297.339
298.947
297.453
301.211
302.131
301.056
303.288
305.297
304.825
300.755
296.49
294.077
291.624
288.783
286.495
284.243
283.641
285.139
286.752
289.962
293.057
290.734
286.116
280.8
277.144
280.678
288.356
290.303
288.277
290.765
294.751
294.414
292.262
292.83
294.041
294.379
293.149
293.259
293.987
292.277
292.444
292.289
288.784
297.088
299.478
298.453