/*--------------------------------*- C++ -*----------------------------------*\
| =========                 |                                                 |
| \\      /  F ield         | OpenFOAM: The Open Source CFD Toolbox           |
|  \\    /   O peration     | Version:  dev                                   |
|   \\  /    A nd           | Web:      http://www.openfoam.org               |
|    \\/     M anipulation  |                                                 |
\*---------------------------------------------------------------------------*/
FoamFile
{
    version     2.0;
    format      ascii;
    class       volVectorField;
    object      U;
    location    "9.128";
}
// * * * * * * * * * * * * * * * * * * * * * * * * * * * * * * * * * * * * * //

dimensions      [0 1 -1 0 0 0 0];

internalField   nonuniform List<vector> 
12225
(
(6.80691 0.573121 0)
(4.48742 0.362044 0)
(2.33153 0.218437 0)
(2.15877 0.158637 0)
(0.358207 0.238523 0)
(0.826814 0.174073 0)
(-1.25423 0.292956 0)
(-0.686536 0.175579 0)
(-3.29517 0.35119 0)
(-2.12221 0.164355 0)
(-5.75428 0.376862 0)
(-3.69995 0.27077 0)
(-8.23712 0.307361 0)
(-6.3519 0.527342 0)
(-9.42933 0.195697 0)
(-13.8951 1.61577 0)
(-7.9327 1.0732 0)
(-25.8971 6.3798 0)
(9.27895 1.32409 0)
(10.0773 1.28366 0)
(6.64883 0.861393 0)
(8.71531 0.616103 0)
(3.812 0.626623 0)
(7.96955 0.432069 0)
(1.9209 0.648685 0)
(7.48747 0.45156 0)
(-0.360207 0.656142 0)
(7.49135 0.495076 0)
(-3.09892 0.858168 0)
(7.62028 0.182822 0)
(-5.55155 1.76817 0)
(7.45541 -1.1325 0)
(-6.52435 3.09412 0)
(3.01838 -1.25492 0)
(2.18916 1.68754 0)
(-18.3338 8.11056 0)
(8.34931 1.26262 0)
(12.7249 1.62506 0)
(7.42296 1.1841 0)
(13.1628 1.08952 0)
(5.05519 1.02316 0)
(13.1354 0.822213 0)
(3.23622 1.0061 0)
(12.748 0.795672 0)
(1.85881 1.04494 0)
(11.733 0.60037 0)
(1.90229 1.45007 0)
(9.53311 0.21162 0)
(1.34163 1.84896 0)
(8.34588 0.145715 0)
(-3.77975 3.62145 0)
(11.2167 -1.44572 0)
(-12.5534 9.7698 0)
(-3.06797 7.78322 0)
(6.16686 1.42254 0)
(14.9789 2.00639 0)
(7.04462 1.3505 0)
(15.4403 1.46164 0)
(6.94892 1.3725 0)
(14.8905 0.998754 0)
(6.60266 1.53424 0)
(13.9446 0.675054 0)
(6.08976 1.96319 0)
(12.075 -0.0524987 0)
(5.57835 2.76216 0)
(10.72 -0.671384 0)
(3.88989 3.48871 0)
(9.15706 -0.331688 0)
(2.03766 2.80485 0)
(4.98431 3.44467 0)
(2.39714 6.88788 0)
(-2.95296 6.56394 0)
(6.09961 1.81167 0)
(14.1947 1.76894 0)
(8.85025 1.79564 0)
(13.9185 1.36556 0)
(9.90452 1.9617 0)
(13.1274 1.00794 0)
(9.60743 2.17488 0)
(12.2988 0.72941 0)
(8.79294 2.68719 0)
(10.7981 0.19278 0)
(6.90937 3.33418 0)
(10.5758 0.0534083 0)
(3.68767 4.45579 0)
(9.50077 -0.0320342 0)
(0.925736 6.18039 0)
(4.44283 -1.07485 0)
(5.88121 10.1317 0)
(2.26795 14.0311 0)
(8.59478 2.24167 0)
(11.07 1.58616 0)
(10.1534 2.05881 0)
(10.9947 1.40503 0)
(10.6488 2.29028 0)
(10.778 1.22435 0)
(10.3016 2.58709 0)
(10.2749 0.982495 0)
(9.3138 3.25655 0)
(9.26386 0.641476 0)
(7.4354 3.6369 0)
(8.41239 0.740137 0)
(4.73995 4.71286 0)
(7.28238 0.580772 0)
(2.00454 7.83428 0)
(3.90747 -2.04394 0)
(4.75842 9.7736 0)
(3.35654 11.4438 0)
(10.2678 2.85279 0)
(9.64729 1.62341 0)
(11.2693 2.83844 0)
(9.91937 1.33723 0)
(11.2254 3.00727 0)
(9.78006 1.15217 0)
(10.9654 3.40317 0)
(9.10024 0.844056 0)
(10.2996 4.22568 0)
(8.49628 0.657567 0)
(9.26086 4.67253 0)
(6.75346 0.936969 0)
(9.00912 5.91761 0)
(5.09879 0.822955 0)
(8.41483 9.10208 0)
(5.51591 -0.216123 0)
(2.06171 11.2902 0)
(10.7173 11.0218 0)
(10.2919 2.93768 0)
(9.94421 1.95399 0)
(10.9564 3.02906 0)
(10.2357 1.73513 0)
(10.8219 3.17716 0)
(10.1919 1.56404 0)
(10.5806 3.51046 0)
(9.80877 1.3992 0)
(9.96517 4.02306 0)
(9.4764 1.60487 0)
(9.03036 4.45016 0)
(8.37909 1.9408 0)
(8.69091 5.11282 0)
(7.38803 2.63759 0)
(8.00329 5.81701 0)
(7.42799 4.86438 0)
(5.5598 4.74323 0)
(7.08885 7.78892 0)
(10.2894 3.58274 0)
(9.4693 1.90178 0)
(11.205 3.60046 0)
(10.0971 1.63852 0)
(11.3188 3.66851 0)
(10.1619 1.52591 0)
(11.0038 4.06557 0)
(9.86166 1.47828 0)
(10.3438 4.57631 0)
(9.29404 1.73021 0)
(9.36405 4.97053 0)
(8.56543 2.03018 0)
(8.38911 5.84281 0)
(7.88557 2.46149 0)
(7.11311 7.20388 0)
(7.18751 3.31695 0)
(6.79963 7.51516 0)
(5.13863 8.8075 0)
(10.2635 3.53146 0)
(10.1389 2.38326 0)
(11.0319 3.57824 0)
(10.5257 2.35793 0)
(10.8527 3.57078 0)
(10.4587 2.36371 0)
(10.5742 3.75353 0)
(10.2255 2.58693 0)
(10.2053 3.97866 0)
(9.84896 3.13832 0)
(9.50696 3.98343 0)
(9.09945 3.99079 0)
(8.73671 4.38488 0)
(8.33629 4.94397 0)
(7.65681 5.06953 0)
(7.77565 6.69038 0)
(6.87906 5.73813 0)
(7.37182 8.33102 0)
(10.0517 3.95949 0)
(10.1828 2.38432 0)
(11.0092 4.11748 0)
(10.4915 2.4332 0)
(10.8455 4.15575 0)
(10.4565 2.39628 0)
(10.4762 4.27882 0)
(10.1234 2.49954 0)
(10.0893 4.49915 0)
(9.74786 2.96267 0)
(9.45944 4.82403 0)
(9.02192 3.67048 0)
(8.8404 5.38774 0)
(8.27125 4.6889 0)
(7.97087 6.09741 0)
(7.68165 6.19032 0)
(7.64617 6.91193 0)
(7.32408 7.73583 0)
(9.90909 3.91482 0)
(10.1244 3.12008 0)
(10.538 4.00439 0)
(10.5845 3.34971 0)
(10.6874 3.97317 0)
(10.7801 3.47964 0)
(10.5078 3.92055 0)
(10.4371 3.80216 0)
(10.1075 4.04204 0)
(9.91945 4.31948 0)
(9.50949 4.34548 0)
(9.265 5.0405 0)
(8.90115 5.07502 0)
(8.67649 5.77349 0)
(8.39916 6.0061 0)
(8.25421 6.82109 0)
(8.21255 7.09503 0)
(8.40398 7.85971 0)
(9.79364 4.53111 0)
(10.2613 3.47679 0)
(10.5079 4.2859 0)
(10.5269 3.51908 0)
(10.6629 4.33534 0)
(10.7495 3.68172 0)
(10.5724 4.33829 0)
(10.4364 3.98423 0)
(10.2603 4.50178 0)
(9.98735 4.45736 0)
(9.74703 4.88368 0)
(9.41661 5.08902 0)
(9.20143 5.49915 0)
(8.9773 5.85592 0)
(8.8039 6.30168 0)
(8.64213 6.75147 0)
(8.59259 7.23065 0)
(8.70241 7.63044 0)
(9.69989 4.39895 0)
(10.3217 4.11136 0)
(10.4925 4.32351 0)
(10.5742 4.17863 0)
(10.6417 4.39529 0)
(10.7469 4.34959 0)
(10.6337 4.4718 0)
(10.5078 4.60972 0)
(10.3308 4.72018 0)
(10.1133 4.96668 0)
(9.89233 5.16882 0)
(9.67268 5.48881 0)
(9.47776 5.82491 0)
(9.31223 6.19257 0)
(9.19796 6.59551 0)
(9.1147 6.97957 0)
(9.08811 7.37674 0)
(9.213 7.72508 0)
(9.68516 4.78379 0)
(10.2722 4.57721 0)
(10.4944 4.6941 0)
(10.6137 4.61321 0)
(10.7028 4.73683 0)
(10.7963 4.71514 0)
(10.7453 4.80058 0)
(10.6891 4.91433 0)
(10.5583 5.07158 0)
(10.3765 5.23867 0)
(10.2007 5.46913 0)
(10.0211 5.71538 0)
(9.85863 5.99844 0)
(9.74492 6.2987 0)
(9.67772 6.63027 0)
(9.6173 6.9537 0)
(9.62371 7.284 0)
(9.76089 7.58742 0)
(9.76716 5.25862 0)
(10.3496 4.85979 0)
(10.5578 4.76317 0)
(10.688 4.76593 0)
(10.7761 4.86925 0)
(10.8663 4.91272 0)
(10.8705 5.01257 0)
(10.844 5.14469 0)
(10.7108 5.28359 0)
(10.5835 5.45889 0)
(10.4359 5.6634 0)
(10.2736 5.88457 0)
(10.1558 6.12832 0)
(10.0833 6.38834 0)
(10.0066 6.64292 0)
(9.97052 6.90524 0)
(9.99559 7.14881 0)
(10.1158 7.34458 0)
(9.70316 5.24909 0)
(10.3435 5.04309 0)
(10.5713 5.05162 0)
(10.7592 5.08288 0)
(10.8988 5.10649 0)
(11.0129 5.10547 0)
(11.0831 5.1807 0)
(11.1189 5.27926 0)
(11.0976 5.42694 0)
(11.0622 5.58174 0)
(10.989 5.73547 0)
(10.9148 5.89187 0)
(10.8431 6.05997 0)
(10.7716 6.22499 0)
(10.7045 6.39521 0)
(10.6432 6.57514 0)
(10.6152 6.75295 0)
(10.6785 6.92676 0)
(9.7029 5.19323 0)
(10.2857 4.85486 0)
(10.5055 4.76474 0)
(10.739 4.82281 0)
(10.9199 4.84932 0)
(11.0852 4.88184 0)
(11.2012 4.93161 0)
(11.2951 4.98699 0)
(11.3332 5.09129 0)
(11.3541 5.21876 0)
(11.3404 5.37571 0)
(11.299 5.55135 0)
(11.2426 5.7392 0)
(11.1878 5.91571 0)
(11.1257 6.08637 0)
(11.0669 6.25451 0)
(11.048 6.40545 0)
(11.0846 6.51751 0)
(9.72144 5.0015 0)
(10.3619 4.66834 0)
(10.6515 4.58045 0)
(10.924 4.60767 0)
(11.1511 4.61782 0)
(11.333 4.60302 0)
(11.4246 4.6095 0)
(11.4842 4.64768 0)
(11.5048 4.73989 0)
(11.501 4.87881 0)
(11.4717 5.02524 0)
(11.4558 5.1764 0)
(11.4361 5.3141 0)
(11.4272 5.42913 0)
(11.4352 5.52131 0)
(11.4389 5.60506 0)
(11.4332 5.68649 0)
(11.4854 5.75223 0)
(9.78139 4.50092 0)
(10.4393 4.1547 0)
(10.7588 4.06101 0)
(11.0487 4.07455 0)
(11.2648 4.09605 0)
(11.412 4.12994 0)
(11.4901 4.15341 0)
(11.5342 4.19348 0)
(11.5591 4.24491 0)
(11.5921 4.32088 0)
(11.6094 4.39907 0)
(11.6503 4.50958 0)
(11.6858 4.61357 0)
(11.7119 4.72382 0)
(11.7288 4.83153 0)
(11.7384 4.92518 0)
(11.7378 5.01591 0)
(11.7439 5.09109 0)
(9.86822 4.04135 0)
(10.4445 3.61268 0)
(10.7639 3.50772 0)
(11.0668 3.57192 0)
(11.3276 3.6215 0)
(11.5138 3.66573 0)
(11.6196 3.69076 0)
(11.7333 3.71435 0)
(11.7903 3.75055 0)
(11.8101 3.77717 0)
(11.8075 3.8088 0)
(11.7853 3.87869 0)
(11.7687 3.94411 0)
(11.7557 4.02105 0)
(11.7653 4.11726 0)
(11.7645 4.2065 0)
(11.7715 4.2872 0)
(11.8113 4.35147 0)
(9.96047 3.5283 0)
(10.526 3.16556 0)
(10.8885 2.993 0)
(11.2489 2.98338 0)
(11.574 3.02137 0)
(11.809 3.02744 0)
(11.9371 3.07078 0)
(12.058 3.11717 0)
(12.1273 3.17419 0)
(12.1527 3.227 0)
(12.189 3.26327 0)
(12.1826 3.30984 0)
(12.1527 3.36099 0)
(12.1404 3.40727 0)
(12.1297 3.46472 0)
(12.0942 3.51552 0)
(12.0711 3.55946 0)
(12.0821 3.59658 0)
(9.84024 2.91449 0)
(10.6098 2.54806 0)
(11.0016 2.33485 0)
(11.3232 2.32752 0)
(11.5871 2.40922 0)
(11.7811 2.4896 0)
(11.9301 2.58557 0)
(12.0652 2.62821 0)
(12.1848 2.63764 0)
(12.2485 2.66617 0)
(12.3072 2.66582 0)
(12.3428 2.67237 0)
(12.3397 2.72354 0)
(12.3535 2.77897 0)
(12.3542 2.84301 0)
(12.3417 2.89689 0)
(12.3275 2.93238 0)
(12.3409 2.95463 0)
(10.2009 2.29259 0)
(10.861 2.021 0)
(11.1882 1.90105 0)
(11.4496 1.91749 0)
(11.6497 1.89838 0)
(11.8245 1.90761 0)
(11.9992 1.95891 0)
(12.1928 1.99844 0)
(12.3999 2.02623 0)
(12.5293 2.07859 0)
(12.5696 2.11435 0)
(12.5953 2.12173 0)
(12.5653 2.16139 0)
(12.5364 2.19986 0)
(12.5081 2.23491 0)
(12.4821 2.26022 0)
(12.4688 2.27774 0)
(12.4848 2.27841 0)
(9.75861 1.77621 0)
(10.5444 1.50745 0)
(11.12 1.38205 0)
(11.6552 1.40548 0)
(12.0114 1.42317 0)
(12.2574 1.41472 0)
(12.3907 1.42267 0)
(12.4705 1.45594 0)
(12.5605 1.49591 0)
(12.6257 1.51723 0)
(12.63 1.57058 0)
(12.6684 1.60843 0)
(12.695 1.64202 0)
(12.7253 1.68119 0)
(12.7407 1.70384 0)
(12.7692 1.71837 0)
(12.7813 1.71409 0)
(12.8113 1.70512 0)
(9.89725 1.302 0)
(10.8085 0.906058 0)
(11.3683 0.752001 0)
(11.8561 0.801773 0)
(12.1465 0.872019 0)
(12.3337 0.918686 0)
(12.4526 0.977079 0)
(12.5525 1.03907 0)
(12.6252 1.07991 0)
(12.6879 1.10359 0)
(12.703 1.11442 0)
(12.7167 1.12693 0)
(12.7221 1.12402 0)
(12.732 1.13117 0)
(12.7203 1.14381 0)
(12.7001 1.1529 0)
(12.6626 1.16473 0)
(12.6215 1.15861 0)
(9.98015 0.831264 0)
(10.9134 0.429114 0)
(11.494 0.364732 0)
(11.9422 0.428518 0)
(12.1699 0.472012 0)
(12.2689 0.506978 0)
(12.3111 0.536658 0)
(12.3135 0.575504 0)
(12.325 0.609239 0)
(12.2986 0.635546 0)
(12.2152 0.653398 0)
(12.1381 0.684171 0)
(12.0398 0.704591 0)
(11.9306 0.719562 0)
(11.7986 0.7349 0)
(11.6402 0.752852 0)
(11.4671 0.773983 0)
(11.2878 0.772707 0)
(9.89254 0.301852 0)
(11.0491 -0.0901659 0)
(11.6443 -0.0855717 0)
(11.8697 0.0292268 0)
(11.8478 0.132873 0)
(11.6713 0.194342 0)
(11.4427 0.258147 0)
(11.1995 0.309149 0)
(10.9512 0.349858 0)
(10.6874 0.375748 0)
(10.3939 0.403565 0)
(10.1016 0.429674 0)
(9.80392 0.441866 0)
(9.51464 0.454859 0)
(9.22708 0.470651 0)
(8.91927 0.502903 0)
(8.62668 0.523078 0)
(8.31856 0.549028 0)
(9.92146 -0.251 0)
(10.4848 -0.581375 0)
(10.2481 -0.438372 0)
(9.68455 -0.236337 0)
(9.0962 -0.0511611 0)
(8.5413 0.0817164 0)
(8.07414 0.173251 0)
(7.68059 0.212297 0)
(7.32422 0.242406 0)
(7.01598 0.262725 0)
(6.69442 0.266505 0)
(6.40438 0.289215 0)
(6.12024 0.303236 0)
(5.84288 0.310306 0)
(5.56601 0.315515 0)
(5.29938 0.340838 0)
(5.05347 0.348109 0)
(4.80715 0.364627 0)
(8.32092 -0.357677 0)
(6.55578 -0.283983 0)
(4.99693 -0.0654247 0)
(3.97221 0.0392139 0)
(3.38784 0.0933858 0)
(3.03311 0.107388 0)
(2.80628 0.0943603 0)
(2.61468 0.0825776 0)
(2.42203 0.0764278 0)
(2.24329 0.0784584 0)
(2.05555 0.086342 0)
(1.87674 0.0948677 0)
(1.70821 0.0996288 0)
(1.54821 0.107315 0)
(1.39635 0.116844 0)
(1.23953 0.132537 0)
(1.17981 0.121305 0)
(0.982272 0.172821 0)
(0.103452 0.222223 0)
(0.242819 0.240889 0)
(0.366464 0.273742 0)
(0.480494 0.286073 0)
(0.627568 0.297444 0)
(0.762206 0.296798 0)
(0.901213 0.30232 1.13499e-17)
(1.01763 0.310758 -1.1274e-17)
(1.12159 0.313751 0)
(1.21002 0.313479 -1.11491e-17)
(1.27195 0.304395 0)
(1.31634 0.312549 0)
(1.36699 0.348922 0)
(1.41867 0.37213 1.09337e-17)
(1.44786 0.394409 0)
(1.47904 0.429309 0)
(1.50092 0.431843 -1.075e-17)
(1.47713 0.431544 0)
(1.4267 0.436806 0)
(1.36365 0.457067 0)
(1.29127 0.481477 1.04656e-17)
(1.21364 0.489899 0)
(1.12295 0.502207 1.03201e-17)
(1.02075 0.502241 0)
(0.893321 0.506679 0)
(0.751961 0.50642 1.01118e-17)
(0.597079 0.506338 0)
(0.436097 0.502614 -9.96917e-18)
(0.288099 0.495659 0)
(0.189034 0.475925 9.81997e-18)
(0.175005 0.423213 0)
(0.282144 0.341423 0)
(0.540265 0.232415 0)
(0.951071 0.121116 0)
(1.50571 0.0307923 0)
(2.15675 -0.0262576 -9.37573e-18)
(2.85938 -0.0612682 0)
(3.58471 -0.0797906 1.8478e-17)
(4.28403 -0.0617739 0)
(4.94694 -0.0348588 -1.82053e-17)
(5.54048 0.0131485 0)
(6.11193 0.0678439 0)
(6.65272 0.0937921 1.78052e-17)
(7.15673 0.129992 0)
(7.58876 0.151839 1.75438e-17)
(7.99683 0.126207 -1.74152e-17)
(8.47799 0.105133 0)
(8.97344 0.124817 -1.71498e-17)
(9.40832 0.155334 -1.70108e-17)
(9.86276 0.138149 0)
(10.3793 0.189072 0)
(10.7926 0.304059 0)
(11.0113 0.378035 0)
(11.1029 0.448085 0)
(11.1079 0.694633 1.62669e-17)
(10.8832 1.05971 0)
(10.1886 1.21588 -1.61523e-17)
(9.25825 0.915447 0)
(8.4754 0.307127 0)
(7.76277 -0.0934498 1.56879e-17)
(7.15312 0.00299628 0)
(6.72035 0.356978 -1.54043e-17)
(6.32994 0.535872 0)
(5.85036 0.548465 0)
(5.35753 0.526272 0)
(4.92274 0.453005 1.4755e-17)
(4.49228 0.359031 0)
(4.11627 0.245299 0)
(4.04178 0.065505 1.43442e-17)
(4.378 -0.0590619 0)
(4.88564 -0.030015 1.40483e-17)
(5.29033 0.161116 0)
(5.34763 0.504129 0)
(4.91459 0.852461 0)
(3.84659 1.05309 -1.36538e-17)
(2.42435 1.02954 0)
(1.35904 0.70188 0)
(1.03469 0.258074 -1.32491e-17)
(1.14639 -0.209731 -1.31725e-17)
(1.26572 -0.432832 0)
(1.16742 -0.255124 -1.31804e-17)
(0.599367 0.303515 0)
(-0.496343 0.882235 -2.58784e-17)
(-1.93093 1.2516 0)
(-3.49985 1.34215 -2.4927e-17)
(-4.97179 1.36071 0)
(-6.31468 1.3327 2.41588e-17)
(-7.52952 1.2557 0)
(-8.47342 1.17969 0)
(-9.28076 1.01878 0)
(-9.9301 0.937748 -2.3162e-17)
(-10.3934 0.89578 0)
(-10.8387 0.861114 2.27249e-17)
(-11.0875 0.828528 0)
(-11.1266 0.746357 -2.24159e-17)
(-11.0254 0.662744 -2.22478e-17)
(-10.7305 0.560474 -2.20819e-17)
(-10.2537 0.4634 0)
(-9.58753 0.374274 0)
(-8.94197 0.37448 0)
(-8.29011 0.431637 0)
(-8.00605 0.44976 0)
(-8.00207 0.282207 0)
(-5.38089 -0.303017 0)
(-5.21112 0.435301 0)
(-4.01032 -0.319945 2.08767e-17)
(-1.96698 0.033755 2.03975e-17)
(-1.50068 0.112564 0)
(-0.405613 0.0227567 0)
(0.558539 0.024696 0)
(1.57618 0.0353461 1.99411e-17)
(2.56295 0.0513652 0)
(3.42357 0.084078 0)
(4.26515 0.103871 0)
(5.02453 0.124991 0)
(5.75526 0.140475 -1.94089e-17)
(6.43026 0.163021 0)
(7.06236 0.152397 0)
(7.61976 0.173349 1.92388e-17)
(8.1872 0.217617 -1.92233e-17)
(8.6655 0.167414 0)
(9.08729 0.104782 -1.91663e-17)
(9.49888 0.102976 0)
(9.89601 0.10288 1.91206e-17)
(10.1998 0.0541419 0)
(10.508 0.00270835 0)
(10.915 0.0366779 0)
(11.4167 0.0394346 0)
(11.9324 -0.037845 0)
(12.4424 -0.113341 -3.72909e-17)
(12.9307 -0.15494 -3.70813e-17)
(13.5366 -0.181045 0)
(14.1786 -0.208772 0)
(14.8559 -0.234555 0)
(15.4966 -0.330146 3.6365e-17)
(16.2186 -0.438664 0)
(16.9743 -0.483358 0)
(17.4109 -0.503626 0)
(17.6101 -0.53198 3.52222e-17)
(17.5436 -0.545039 -3.49669e-17)
(16.9835 -0.514215 0)
(15.7808 -0.377965 0)
(13.878 -0.239819 -3.40915e-17)
(11.6271 -0.123531 -3.36981e-17)
(9.23576 -0.123434 0)
(6.85698 -0.183691 0)
(4.7828 -0.267864 3.26005e-17)
(2.8214 -0.3608 -3.24139e-17)
(0.779708 -0.378058 0)
(-0.932504 -0.354711 0)
(-2.79988 -0.404811 -3.1486e-17)
(-4.44894 -0.296966 0)
(-5.88118 -0.448226 0)
(-7.14938 -0.313331 -3.06978e-17)
(-8.20149 -0.475988 0)
(-8.77235 -0.462034 -3.01193e-17)
(-9.44937 -0.48731 0)
(-9.24512 -0.615807 0)
(-8.736 -0.605911 0)
(-8.67607 -0.543997 2.93184e-17)
(-8.14351 -0.551872 0)
(-7.69779 -0.467005 0)
(-7.1735 -0.430805 0)
(-6.94786 -0.307028 0)
(-6.79735 -0.20935 0)
(-6.7918 -0.125198 0)
(-6.84512 -0.0493675 2.84709e-17)
(-6.9218 -0.041511 2.83509e-17)
(-7.03813 -0.0205485 0)
(-6.86434 -0.031722 0)
(-6.73539 -0.00471667 0)
(-6.39373 0.044749 -2.76933e-17)
(-5.95581 0.115352 0)
(-5.82412 0.218143 5.48005e-17)
(-5.43503 0.191851 -5.42383e-17)
(-5.04631 0.219728 -5.42712e-17)
(-4.55834 0.178087 5.43814e-17)
(-3.8699 0.0853466 -5.446e-17)
(-3.15634 0.214726 5.42638e-17)
(-2.1778 0.0937338 0)
(0.0702052 0.901283 0)
(0.0845542 1.03867 0)
(0.16454 1.09457 -2.33414e-17)
(0.206908 1.00611 0)
(0.267218 0.957973 2.32921e-17)
(0.309233 0.976792 2.30266e-17)
(0.35712 1.01853 1.14368e-17)
(0.39603 1.05537 1.13371e-17)
(0.399886 1.09815 0)
(0.386542 1.19927 1.11989e-17)
(0.441965 1.31372 0)
(0.536422 1.30611 0)
(0.527815 1.22721 -2.20031e-17)
(0.489274 1.25735 -1.09117e-17)
(0.503115 1.25709 2.16648e-17)
(0.402236 1.17819 2.14808e-17)
(0.267834 1.29504 1.06438e-17)
(0.160194 1.41526 0)
(0.016561 1.48507 0)
(-0.0895068 1.49768 0)
(-0.202894 1.45711 1.03349e-17)
(-0.302492 1.48388 0)
(-0.427519 1.47489 -3.06157e-17)
(-0.596722 1.53121 0)
(-0.785882 1.57198 0)
(-1.0203 1.61957 -1.00019e-17)
(-1.25013 1.6406 0)
(-1.46897 1.62806 9.87194e-18)
(-1.60778 1.51151 1.96283e-17)
(-1.66451 1.26049 -9.74451e-18)
(-1.58674 0.949165 0)
(-1.33024 0.580616 0)
(-0.877879 0.186372 0)
(-0.23664 -0.217165 1.90011e-17)
(0.51437 -0.502933 1.88687e-17)
(1.32067 -0.64826 9.36446e-18)
(2.13251 -0.703011 0)
(2.92729 -0.702548 -1.84602e-17)
(3.68417 -0.639872 0)
(4.40027 -0.541042 1.81764e-17)
(5.00829 -0.419276 0)
(5.62256 -0.29037 0)
(6.1627 -0.257847 -1.77608e-17)
(6.69232 -0.109296 0)
(7.22669 0.0135044 -5.24198e-17)
(7.70452 -0.0770407 1.735e-17)
(8.22627 -0.240419 0)
(8.83215 -0.180768 1.70822e-17)
(9.37782 -0.0736596 1.69088e-17)
(9.9166 -0.2492 0)
(10.6028 -0.338708 0)
(11.2758 -0.0250221 0)
(11.7803 0.336142 0)
(12.1204 0.49491 0)
(12.4268 0.667348 -1.61427e-17)
(12.7383 1.15441 -3.19674e-17)
(12.9772 1.77258 1.58853e-17)
(12.9661 2.12894 0)
(12.7187 2.36292 -3.14149e-17)
(11.9942 2.69956 1.56145e-17)
(10.5382 2.41353 0)
(8.84239 1.54699 1.53884e-17)
(7.57842 1.18595 0)
(6.71342 1.28146 0)
(5.98238 1.21445 2.94409e-17)
(5.46074 1.08314 -1.45067e-17)
(5.06873 1.06072 2.87635e-17)
(4.80258 0.823053 -2.86619e-17)
(4.86589 0.0745615 -1.43024e-17)
(5.34367 -0.596597 0)
(5.89442 -0.635298 -1.39368e-17)
(6.37594 -0.153543 0)
(6.61651 0.684965 0)
(6.4847 1.62613 0)
(5.92731 2.3757 -1.33962e-17)
(5.21359 2.55768 0)
(4.8372 1.81528 -2.62458e-17)
(4.3454 0.886422 3.9422e-17)
(2.8797 0.794762 1.29153e-17)
(0.60734 1.51705 0)
(-1.70708 2.29069 1.22793e-17)
(-3.82979 2.84524 0)
(-5.62018 3.15511 2.39329e-17)
(-7.1338 3.28316 0)
(-8.45942 3.27274 2.34391e-17)
(-9.65914 3.1232 -4.67684e-17)
(-10.6369 2.90739 -2.33362e-17)
(-11.3857 2.62525 0)
(-11.9886 2.39747 0)
(-12.437 2.21514 0)
(-12.7559 2.09004 2.23279e-17)
(-13.0341 1.94032 0)
(-13.2161 1.74968 -2.23431e-17)
(-13.1911 1.52523 0)
(-13.0422 1.30502 6.73319e-17)
(-12.6776 1.10645 2.23689e-17)
(-12.0595 0.797032 2.23055e-17)
(-11.3492 0.519986 0)
(-10.3981 0.352105 0)
(-9.4976 0.504263 0)
(-8.60202 0.81888 0)
(-8.25387 0.727401 0)
(-8.44494 -0.0971582 4.37412e-17)
(-4.92244 -1.31985 4.37563e-17)
(-5.63638 0.745704 0)
(-2.98952 -1.44873 -2.17765e-17)
(-1.89054 -0.349021 -2.03303e-17)
(-0.741705 -0.142482 0)
(0.0509928 -0.367194 -4.02598e-17)
(1.38449 -0.439504 0)
(2.44515 -0.451122 1.98245e-17)
(3.63854 -0.414997 0)
(4.5572 -0.352847 0)
(5.55931 -0.334688 -3.8263e-17)
(6.38369 -0.275257 0)
(7.23528 -0.263132 1.86117e-17)
(7.95779 -0.252407 0)
(8.70267 -0.194222 0)
(9.36706 -0.160286 1.79635e-17)
(9.89911 -0.221038 1.77072e-17)
(10.442 -0.0867388 0)
(11.1353 0.0331572 -1.76278e-17)
(11.6439 0.00468784 0)
(12.1008 0.0186421 1.75952e-17)
(12.5824 0.091759 3.52558e-17)
(13.0223 0.0786229 0)
(13.3185 -0.134633 0)
(13.8332 -0.315021 0)
(14.3622 -0.329557 0)
(14.9045 -0.274031 3.49698e-17)
(15.1365 -0.449043 1.04851e-16)
(15.405 -0.578446 0)
(15.929 -0.712506 0)
(16.6238 -0.959997 0)
(17.2764 -1.20665 -3.52659e-17)
(17.6367 -1.39321 0)
(18.1923 -1.32027 0)
(18.4531 -1.30503 6.8627e-17)
(17.8747 -1.33361 3.4e-17)
(16.6541 -1.16397 3.35847e-17)
(14.7971 -0.86928 0)
(12.4831 -0.532952 0)
(9.90667 -0.384674 3.21425e-17)
(7.37668 -0.42551 -3.16232e-17)
(4.94956 -0.726606 0)
(2.77338 -1.01663 0)
(0.981509 -1.37472 -3.05144e-17)
(-0.693974 -1.48617 9.1513e-17)
(-2.47949 -1.68887 0)
(-3.82257 -1.57003 0)
(-5.40671 -1.77797 2.96917e-17)
(-6.63237 -1.60426 0)
(-7.54351 -2.02689 5.87109e-17)
(-8.54192 -1.7433 -2.93463e-17)
(-8.73441 -2.07957 0)
(-9.31244 -2.07211 2.87254e-17)
(-9.29685 -2.26663 5.8598e-17)
(-9.04498 -2.68507 0)
(-7.87404 -2.49468 0)
(-7.54149 -2.19884 -2.83749e-17)
(-6.65774 -2.30674 0)
(-6.11857 -2.1138 5.62921e-17)
(-4.87651 -1.99642 0)
(-4.38438 -1.61012 0)
(-3.67736 -1.29595 0)
(-3.36178 -1.0716 0)
(-2.88074 -0.830267 -2.72601e-17)
(-2.53084 -0.604271 -2.71531e-17)
(-2.36762 -0.35119 0)
(-2.16796 -0.252583 0)
(-2.48218 -0.0555826 0)
(-2.43747 -0.0332988 2.59273e-17)
(-2.51396 0.0417973 0)
(-2.60769 0.322161 -5.04192e-17)
(-2.17 0.289746 4.8985e-17)
(-2.07666 0.27271 4.85031e-17)
(-1.48213 0.258743 4.85952e-17)
(-0.555972 0.169281 4.98078e-17)
(-0.0971207 0.275408 5.03683e-17)
(1.01207 0.0582503 0)
(0.0700327 1.76226 0)
(-0.0124319 1.88169 0)
(-0.0225639 1.85771 2.37933e-17)
(-0.0318014 1.89569 2.36825e-17)
(0.0895214 1.91655 -2.35043e-17)
(0.155122 1.92064 -2.3223e-17)
(0.173234 1.91815 5.72937e-21)
(0.168011 2.00119 0)
(0.2258 2.11436 0)
(0.346222 2.01353 0)
(0.395622 1.75491 0)
(0.321323 1.83035 0)
(0.259724 2.16158 6.51513e-17)
(0.126944 2.09933 0)
(-0.094581 2.2651 -2.13851e-17)
(-0.332548 2.6858 -2.13534e-17)
(-0.645418 2.5598 0)
(-0.817317 2.63745 0)
(-0.90476 2.53909 0)
(-0.985866 2.48563 0)
(-1.03567 2.52799 -2.07438e-17)
(-1.18768 2.47995 0)
(-1.31502 2.64907 2.04619e-17)
(-1.51218 2.64884 0)
(-1.68373 2.80364 0)
(-1.85473 2.8142 0)
(-2.00521 2.7869 3.99319e-17)
(-2.07706 2.58326 0)
(-2.11325 2.24775 -1.97277e-17)
(-2.01981 1.85486 3.93049e-17)
(-1.83342 1.29351 0)
(-1.4588 0.655066 0)
(-0.925212 -0.0651404 0)
(-0.20632 -0.664731 -1.91723e-17)
(0.623507 -1.07492 -1.90326e-17)
(1.46475 -1.22953 0)
(2.28029 -1.19344 0)
(3.02225 -1.05239 3.7342e-17)
(3.70048 -0.890332 3.70709e-17)
(4.30979 -0.704787 -3.67896e-17)
(4.87718 -0.490355 0)
(5.40601 -0.299795 0)
(5.86867 -0.236226 0)
(6.30206 -0.0632035 0)
(6.78326 0.115565 3.54622e-17)
(7.32209 -0.0106271 3.52391e-17)
(7.77049 -0.287012 -3.49481e-17)
(8.26477 -0.175456 0)
(8.93941 -0.0624446 0)
(9.59956 -0.49772 0)
(10.108 -0.687134 0)
(10.59 -0.0782629 3.31731e-17)
(11.1814 0.338095 0)
(11.8069 0.533737 0)
(12.2498 0.830397 3.25875e-17)
(12.6719 1.23692 3.22643e-17)
(13.1239 1.83746 0)
(13.5713 2.35447 -6.35488e-17)
(13.6172 2.75994 3.14042e-17)
(13.4232 3.46243 -3.09399e-17)
(13.2221 4.11534 0)
(12.5269 4.32109 0)
(11.1375 3.96474 0)
(9.47312 3.12146 0)
(7.90917 2.50777 -2.95336e-17)
(6.95556 2.01699 -5.81792e-17)
(6.39501 1.56888 -2.8641e-17)
(6.15487 1.01431 2.86691e-17)
(6.12224 -0.124027 0)
(6.18717 -1.142 -5.73064e-17)
(6.43611 -1.16123 -5.54092e-17)
(6.63467 -0.426989 -5.42119e-17)
(6.47093 0.683971 5.34687e-17)
(6.20081 1.85671 0)
(5.85091 2.69053 7.92827e-17)
(5.25279 2.75036 0)
(3.94162 2.86022 -2.60407e-17)
(1.54621 3.62087 -2.54175e-17)
(-1.15889 4.54133 0)
(-3.42918 5.04261 0)
(-5.3154 5.25938 -4.87902e-17)
(-6.98465 5.40895 0)
(-8.37029 5.50271 -4.83487e-17)
(-9.54535 5.47694 0)
(-10.6346 5.35553 4.87245e-17)
(-11.5783 5.07556 9.84444e-17)
(-12.2927 4.69978 0)
(-12.8089 4.27482 0)
(-13.1599 3.95614 0)
(-13.3684 3.74949 4.76271e-17)
(-13.4122 3.5355 0)
(-13.4353 3.32028 4.71706e-17)
(-13.4295 3.03773 0)
(-13.2679 2.6914 0)
(-12.9822 2.216 -9.43317e-17)
(-12.6061 1.78964 0)
(-12.0151 1.3106 -4.6641e-17)
(-11.3604 0.824605 0)
(-10.5648 0.525964 -4.57179e-17)
(-9.72521 0.719297 0)
(-8.61766 1.41281 0)
(-7.72165 1.54696 0)
(-8.00408 -0.105506 -1.34351e-16)
(-3.98635 -1.93132 -4.44637e-17)
(-6.27167 1.23763 0)
(-1.60441 -2.58235 0)
(-2.14644 -0.310921 0)
(0.0780524 -0.167653 0)
(0.220752 -0.429865 4.28195e-17)
(1.94216 -0.671264 -8.55371e-17)
(3.04333 -0.627411 -4.24434e-17)
(4.48818 -0.523404 8.48807e-17)
(5.42512 -0.373876 8.40118e-17)
(6.56704 -0.290701 4.17002e-17)
(7.44584 -0.215704 0)
(8.32776 -0.165848 8.17181e-17)
(9.18531 -0.0732286 0)
(9.98177 -0.088582 -7.86386e-17)
(10.6467 0.00466704 -3.83855e-17)
(11.3663 0.175867 0)
(11.5672 -0.0681923 7.34739e-17)
(11.9509 -0.163333 3.53426e-17)
(12.4836 -0.0867505 0)
(12.7041 -0.15898 3.38463e-17)
(12.9636 -0.129051 -1.00785e-16)
(13.5252 -0.237821 0)
(13.7711 -0.270842 0)
(14.341 -0.321048 0)
(15.0503 -0.522648 0)
(15.6602 -0.561207 -6.65588e-17)
(15.9879 -0.455849 -6.62979e-17)
(16.1153 -0.769063 0)
(16.1247 -1.2699 0)
(16.6404 -1.48246 0)
(17.5106 -1.62671 0)
(17.6441 -2.08343 0)
(17.4462 -2.33217 0)
(17.4675 -1.8379 -6.72334e-17)
(16.6563 -1.3258 1.59758e-20)
(14.8677 -0.893383 0)
(12.5062 -0.554687 0)
(10.0185 -0.448892 -6.30169e-17)
(7.643 -0.538387 0)
(5.48789 -0.738944 6.12357e-17)
(3.64578 -1.43005 6.06121e-17)
(1.76407 -1.92735 0)
(0.362848 -2.55622 0)
(-0.875503 -2.55049 -5.97158e-17)
(-2.4555 -3.00163 -1.1822e-16)
(-3.69574 -2.76183 0)
(-4.75236 -3.08606 0)
(-6.27982 -2.84432 0)
(-6.45707 -3.38014 -5.98693e-17)
(-8.25444 -3.18774 5.9958e-17)
(-7.43821 -3.47943 0)
(-8.51191 -3.49205 1.14577e-16)
(-7.83962 -3.73061 5.99405e-17)
(-8.2578 -4.34336 -1.22101e-16)
(-7.0401 -4.25035 0)
(-6.3963 -3.75952 0)
(-5.4834 -3.80894 -1.18622e-16)
(-5.64668 -3.5991 -5.88074e-17)
(-4.00271 -3.42143 0)
(-3.29985 -2.81131 0)
(-2.1082 -2.32319 0)
(-1.7058 -1.86679 0)
(-1.04131 -1.53085 -1.10173e-16)
(-0.671772 -1.22611 0)
(-0.379909 -0.641154 0)
(0.528342 -0.323291 0)
(0.572952 -0.0359364 0)
(0.854769 0.154235 0)
(0.342851 0.380358 0)
(-0.39179 0.546222 -9.885e-17)
(0.0499324 0.480029 0)
(0.0276778 0.5482 0)
(-0.0983011 0.348391 -1.85472e-16)
(0.855421 0.25164 9.43625e-17)
(1.23354 0.517621 -9.61183e-17)
(2.58321 0.123017 9.94869e-17)
(0.108985 2.60588 0)
(0.0743765 3.03167 -4.73555e-17)
(0.125502 2.93937 0)
(0.225986 2.6082 -2.36178e-17)
(0.352786 2.43112 0)
(0.412305 2.61895 0)
(0.468037 2.78363 2.30393e-17)
(0.486457 2.74948 0)
(0.527167 2.56136 0)
(0.50103 2.59652 0)
(0.348239 3.11498 0)
(0.0322411 3.42873 0)
(-0.203532 3.39257 -8.6806e-17)
(-0.493943 3.75806 -4.33347e-17)
(-0.963446 3.85836 4.30417e-17)
(-1.05684 3.80195 0)
(-1.16605 3.80126 0)
(-1.208 3.49207 0)
(-1.04071 3.49458 0)
(-1.05697 3.31352 0)
(-0.966215 3.45229 -4.15028e-17)
(-0.979266 3.65547 -4.13662e-17)
(-1.03844 3.66214 4.09632e-17)
(-1.19372 3.83599 -4.07826e-17)
(-1.38321 3.73763 0)
(-1.50435 3.76629 0)
(-1.65467 3.56546 -4.00263e-17)
(-1.65258 3.34971 0)
(-1.6395 2.9423 0)
(-1.57887 2.31457 -3.93102e-17)
(-1.40587 1.6026 -3.91534e-17)
(-1.13538 0.647997 -3.88462e-17)
(-0.669344 -0.294749 0)
(-0.0340861 -1.16864 0)
(0.664965 -1.69849 3.78351e-17)
(1.40411 -1.86141 0)
(2.1302 -1.72655 0)
(2.81304 -1.4563 -3.72633e-17)
(3.42624 -1.20468 3.71051e-17)
(3.94556 -0.979203 -3.68312e-17)
(4.49849 -0.671357 0)
(5.02833 -0.407908 0)
(5.5361 -0.257451 -7.2263e-17)
(6.01376 -0.207583 0)
(6.49755 -0.0689052 -7.15188e-17)
(7.10117 -0.0686651 -1.06183e-16)
(7.61438 -0.319857 1.0504e-16)
(8.12333 -0.456909 -6.91754e-17)
(8.85005 -0.50685 0)
(9.46164 -0.795521 0)
(9.78401 -0.788895 -6.74337e-17)
(10.1997 -0.24339 -3.31482e-17)
(10.8579 -0.0696349 0)
(11.5402 0.0991776 0)
(11.9986 0.618397 -3.25893e-17)
(12.4311 0.873957 -6.4976e-17)
(12.7706 1.39508 0)
(13.1565 2.18468 6.33656e-17)
(13.4702 3.01329 -6.30406e-17)
(13.383 3.95536 6.2241e-17)
(13.5642 4.45282 0)
(13.4746 4.93431 0)
(12.9039 5.53497 0)
(12.0016 5.43715 0)
(10.4176 4.86615 0)
(9.22981 3.58738 5.91916e-17)
(7.98423 2.49281 0)
(7.23818 1.91592 0)
(6.90979 0.55339 0)
(6.17231 -0.770501 1.13296e-16)
(5.49316 -0.694608 5.36066e-17)
(5.01402 0.381407 5.23355e-17)
(4.33606 1.73984 -1.04585e-16)
(3.49794 3.08188 5.23706e-17)
(2.55292 4.22893 -5.20558e-17)
(1.18307 5.18844 0)
(-0.536615 5.96369 5.08174e-17)
(-2.47979 6.55639 0)
(-4.24243 6.98443 0)
(-5.83197 7.2318 0)
(-7.20966 7.24615 9.80388e-17)
(-8.42806 7.18494 -4.90343e-17)
(-9.52477 7.09178 -4.93227e-17)
(-10.6055 6.95839 -9.90487e-17)
(-11.5744 6.69123 -1.49414e-16)
(-12.3246 6.22399 -4.9865e-17)
(-12.8834 5.64324 0)
(-13.2816 5.05923 -9.80069e-17)
(-13.4998 4.61544 0)
(-13.6222 4.33324 -1.4396e-16)
(-13.6103 4.08271 0)
(-13.4504 3.81113 -1.42491e-16)
(-13.1756 3.50057 0)
(-12.8641 3.08253 0)
(-12.4536 2.58364 -4.65147e-17)
(-11.8968 2.07501 0)
(-11.3824 1.52384 4.54369e-17)
(-10.9757 1.05796 9.00156e-17)
(-10.4963 0.643575 4.45783e-17)
(-9.93217 0.594087 8.90241e-17)
(-8.81905 1.16591 -8.89221e-17)
(-7.37033 1.44072 -8.84774e-17)
(-6.93118 -0.533746 1.7461e-16)
(-3.26075 -2.21534 0)
(-6.04095 0.881556 0)
(-0.983994 -3.72984 8.80972e-17)
(-2.35931 -0.655666 -8.47287e-17)
(1.09992 -0.653157 0)
(0.560581 -0.959937 0)
(2.51252 -1.49798 8.26935e-17)
(3.3966 -1.43893 0)
(5.05454 -1.19583 1.21504e-19)
(5.98146 -0.932758 1.20382e-19)
(7.16185 -0.916536 8.2547e-17)
(8.01084 -0.689121 0)
(8.93893 -0.53291 -8.27906e-17)
(9.71425 -0.581081 0)
(10.7664 -0.341354 8.19384e-17)
(11.4573 -0.277795 0)
(12.0997 -0.168708 0)
(13.0381 0.385572 -7.84712e-17)
(13.19 0.216799 -7.83282e-17)
(13.5936 0.134652 0)
(14.3084 0.347525 -7.13722e-17)
(13.9539 0.00702335 1.38427e-16)
(14.2126 0.10773 0)
(14.4384 -0.200455 0)
(14.3359 -0.953717 0)
(14.6269 -1.07058 0)
(15.7827 -0.67698 6.50357e-17)
(16.3462 -0.683256 -1.27885e-16)
(16.2893 -0.762942 0)
(16.2082 -1.13529 0)
(16.3438 -2.13155 0)
(17.1452 -2.54938 0)
(17.3533 -2.25259 0)
(16.8193 -2.18622 0)
(16.0297 -2.13521 0)
(14.7718 -1.67888 6.49735e-17)
(13.184 -0.919661 0)
(10.9735 -0.477738 0)
(9.08775 -0.354816 6.22472e-17)
(7.2062 -0.863346 0)
(5.18834 -1.6749 0)
(3.89899 -2.33668 -6.07183e-17)
(2.48921 -2.99167 0)
(1.16477 -4.13612 0)
(0.022652 -4.01865 1.18647e-16)
(-0.803864 -4.45537 1.18306e-16)
(-2.6785 -4.30495 1.17412e-16)
(-2.74576 -4.58762 0)
(-5.14024 -4.37672 1.19277e-16)
(-4.19523 -4.84812 0)
(-6.76365 -4.83734 -1.19422e-16)
(-5.91561 -5.16735 0)
(-7.54579 -4.96199 -1.20503e-16)