/*--------------------------------*- C++ -*----------------------------------*\
| =========                 |                                                 |
| \\      /  F ield         | OpenFOAM: The Open Source CFD Toolbox           |
|  \\    /   O peration     | Version:  dev                                   |
|   \\  /    A nd           | Web:      http://www.openfoam.org               |
|    \\/     M anipulation  |                                                 |
\*---------------------------------------------------------------------------*/
FoamFile
{
    version     2.0;
    format      ascii;
    class       volVectorField;
    object      U_0;
    location    "9.128";
}
// * * * * * * * * * * * * * * * * * * * * * * * * * * * * * * * * * * * * * //

dimensions      [0 1 -1 0 0 0 0];

internalField   nonuniform List<vector> 
12225
(
(7.04619 0.56987 0)
(5.25978 0.341922 0)
(3.6331 0.197825 0)
(3.96845 0.13841 0)
(2.6465 0.219144 0)
(3.5422 0.153569 0)
(1.88385 0.27654 0)
(2.77367 0.151813 0)
(0.561323 0.341338 0)
(1.91513 0.107813 0)
(-1.29316 0.404701 0)
(0.809776 0.140143 0)
(-3.34554 0.336035 0)
(-1.37141 0.398273 0)
(-3.83219 0.0773362 0)
(-8.35232 1.65011 0)
(-1.77374 0.700218 0)
(-19.8814 3.17965 0)
(9.51781 1.29041 0)
(10.8588 1.22265 0)
(7.97509 0.796183 0)
(10.5637 0.552472 0)
(6.15399 0.559133 0)
(10.7933 0.359491 0)
(5.16947 0.576544 0)
(11.1602 0.361106 0)
(3.69321 0.575217 0)
(11.889 0.342474 0)
(1.64339 0.810958 0)
(12.656 -0.146728 0)
(-0.245526 1.75428 0)
(13.2148 -1.57039 0)
(-0.7722 3.05629 0)
(10.247 -1.78542 0)
(8.01829 1.36517 0)
(-8.62538 8.30255 0)
(8.58435 1.18288 0)
(13.4801 1.51953 0)
(8.74578 1.07604 0)
(14.9647 0.984349 0)
(7.39393 0.908408 0)
(15.8847 0.700191 0)
(6.451 0.878085 0)
(16.3253 0.642541 0)
(5.81965 0.88697 0)
(16.021 0.393014 0)
(6.52125 1.28396 0)
(14.3653 -0.172331 0)
(6.7417 1.66798 0)
(13.6766 -0.306002 0)
(2.67333 3.02593 0)
(17.5727 -2.10113 0)
(-6.89055 8.8085 0)
(7.47893 5.79117 0)
(6.38528 1.31397 0)
(15.7066 1.84112 0)
(8.38323 1.19527 0)
(17.227 1.30702 0)
(9.28823 1.20198 0)
(17.6127 0.825743 0)
(9.828 1.33873 0)
(17.4797 0.468238 0)
(10.034 1.71309 0)
(16.3112 -0.324973 0)
(10.2079 2.4822 0)
(15.4784 -1.10129 0)
(9.03996 3.18413 0)
(14.5447 -1.07558 0)
(7.69004 2.28924 0)
(11.254 2.54125 0)
(9.36994 5.01592 0)
(3.28223 4.54249 0)
(6.37705 1.65468 0)
(14.9004 1.54846 0)
(10.175 1.58747 0)
(15.6952 1.16001 0)
(12.2208 1.73907 0)
(15.8201 0.776811 0)
(12.8099 1.91439 0)
(15.8019 0.462552 0)
(12.7073 2.35406 0)
(14.9565 -0.156568 0)
(11.5445 2.93572 0)
(15.243 -0.432097 0)
(8.79875 3.90313 0)
(14.7316 -0.761149 0)
(6.2179 5.23476 0)
(10.7122 -2.26198 0)
(11.4963 9.18594 0)
(8.16933 10.8497 0)
(8.8912 2.04365 0)
(11.7839 1.31096 0)
(11.4665 1.79944 0)
(12.7716 1.1437 0)
(12.9463 2.01327 0)
(13.4782 0.92999 0)
(13.4696 2.25743 0)
(13.7673 0.642134 0)
(13.215 2.8457 0)
(13.4039 0.174053 0)
(11.9994 3.13949 0)
(13.0721 0.128666 0)
(9.9405 3.98576 0)
(12.3929 -0.299245 0)
(7.5327 6.61518 0)
(9.65669 -3.64541 0)
(9.92798 8.6198 0)
(9.03702 8.35202 0)
(10.5174 2.61124 0)
(10.4118 1.29733 0)
(12.5615 2.51145 0)
(11.7118 1.01752 0)
(13.4907 2.66066 0)
(12.5 0.797572 0)
(14.0769 2.9877 0)
(12.6097 0.425953 0)
(14.1671 3.70559 0)
(12.6542 0.0748316 0)
(13.6937 4.03801 0)
(11.5022 0.200806 0)
(13.9842 4.98935 0)
(10.2155 -0.157277 0)
(13.9565 7.568 0)
(10.4196 -1.82089 0)
(8.07085 9.83533 0)
(16.6267 7.71774 0)
(10.5249 2.68372 0)
(10.713 1.57173 0)
(12.2356 2.65459 0)
(12.024 1.35841 0)
(13.0839 2.77198 0)
(12.9028 1.14434 0)
(13.6868 3.03198 0)
(13.2981 0.89258 0)
(13.8056 3.43591 0)
(13.5998 0.952087 0)
(13.4122 3.69997 0)
(13.0565 1.08329 0)
(13.4743 4.1131 0)
(12.4198 1.4917 0)
(13.105 4.49794 0)
(12.4561 3.21569 0)
(10.903 2.8307 0)
(12.0411 5.89492 0)
(10.5229 3.27943 0)
(10.2571 1.47127 0)
(12.4989 3.16989 0)
(11.8938 1.21455 0)
(13.5721 3.20484 0)
(12.8551 1.05737 0)
(14.0934 3.51812 0)
(13.321 0.912778 0)
(14.1426 3.9065 0)
(13.3783 1.00569 0)
(13.7275 4.1071 0)
(13.1334 1.11113 0)
(13.1501 4.70855 0)
(12.7743 1.2695 0)
(12.0912 5.69573 0)
(12.1943 1.57753 0)
(11.6134 5.86378 0)
(9.89502 6.37397 0)
(10.5311 3.19281 0)
(10.9324 1.90106 0)
(12.3112 3.10256 0)
(12.2982 1.87654 0)
(13.0735 3.05446 0)
(13.1325 1.82028 0)
(13.6307 3.14887 0)
(13.6684 1.93177 0)
(13.9652 3.2413 0)
(13.9025 2.30214 0)
(13.7963 3.06326 0)
(13.6064 2.95465 0)
(13.4123 3.18391 0)
(13.114 3.61898 0)
(12.5323 3.51212 0)
(12.5824 4.94068 0)
(11.6649 3.74497 0)
(12.1318 6.26321 0)
(10.3152 3.59017 0)
(10.9756 1.8593 0)
(12.2794 3.5833 0)
(12.2507 1.89624 0)
(13.0595 3.56668 0)
(13.0993 1.78202 0)
(13.507 3.58713 0)
(13.5208 1.76403 0)
(13.8048 3.66936 0)
(13.7366 2.04923 0)
(13.6775 3.80021 0)
(13.4444 2.53197 0)
(13.4029 4.11417 0)
(12.9267 3.24368 0)
(12.6926 4.50167 0)
(12.3775 4.36555 0)
(12.2738 4.97618 0)
(11.8376 5.55666 0)
(10.1565 3.53444 0)
(10.9056 2.5426 0)
(11.8116 3.41268 0)
(12.3404 2.74057 0)
(12.8905 3.31695 0)
(13.3979 2.77941 0)
(13.5021 3.15629 0)
(13.7826 2.97223 0)
(13.7583 3.1231 0)
(13.8371 3.30641 0)
(13.6509 3.22113 0)
(13.5912 3.81222 0)
(13.3629 3.68232 0)
(13.2309 4.2621 0)
(12.9909 4.31906 0)
(12.8317 4.99276 0)
(12.7362 5.11028 0)
(12.7997 5.77098 0)
(10.0583 4.13383 0)
(11.038 2.83701 0)
(11.7715 3.62457 0)
(12.2609 2.83888 0)
(12.8399 3.60639 0)
(13.3246 2.89956 0)
(13.5173 3.49138 0)
(13.7208 3.05846 0)
(13.8415 3.49468 0)
(13.8227 3.34281 0)
(13.7959 3.66985 0)
(13.6357 3.74742 0)
(13.5497 4.03906 0)
(13.3995 4.25469 0)
(13.2565 4.57119 0)
(13.0768 4.88313 0)
(12.9828 5.24462 0)
(12.9742 5.53277 0)
(9.95722 3.96368 0)
(11.0728 3.41908 0)
(11.7328 3.5995 0)
(12.278 3.42669 0)
(12.7777 3.59013 0)
(13.2748 3.48814 0)
(13.5193 3.53811 0)
(13.7189 3.59827 0)
(13.8272 3.61587 0)
(13.8548 3.76789 0)
(13.8368 3.86048 0)
(13.7775 4.07373 0)
(13.6977 4.28931 0)
(13.6057 4.54029 0)
(13.523 4.82307 0)
(13.4291 5.09464 0)
(13.3671 5.38955 0)
(13.3942 5.65401 0)
(9.91494 4.31296 0)
(11.0084 3.81405 0)
(11.7098 3.90437 0)
(12.2811 3.78494 0)
(12.7892 3.85631 0)
(13.2633 3.77099 0)
(13.5605 3.78721 0)
(13.8174 3.82015 0)
(13.9573 3.88812 0)
(14.0089 3.95852 0)
(14.0265 4.0888 0)
(13.9973 4.22877 0)
(13.9468 4.40544 0)
(13.9064 4.60111 0)
(13.8711 4.83239 0)
(13.8078 5.06181 0)
(13.7929 5.30718 0)
(13.8487 5.53804 0)
(10.0115 4.7401 0)
(11.0682 4.02329 0)
(11.7384 3.91101 0)
(12.307 3.87875 0)
(12.8006 3.92782 0)
(13.2607 3.90754 0)
(13.6003 3.93726 0)
(13.8711 3.98913 0)
(13.9984 4.04135 0)
(14.096 4.12631 0)
(14.1319 4.23578 0)
(14.1162 4.36102 0)
(14.1098 4.50988 0)
(14.1094 4.67738 0)
(14.07 4.84486 0)
(14.043 5.02692 0)
(14.0563 5.19508 0)
(14.1121 5.33087 0)
(9.93087 4.69858 0)
(11.0263 4.17368 0)
(11.7082 4.16186 0)
(12.3232 4.15057 0)
(12.8538 4.1187 0)
(13.3251 4.05815 0)
(13.7189 4.06793 0)
(14.0423 4.0928 0)
(14.2727 4.16063 0)
(14.4515 4.22917 0)
(14.5551 4.29514 0)
(14.6224 4.36546 0)
(14.6562 4.45013 0)
(14.6573 4.53586 0)
(14.6323 4.63372 0)
(14.5855 4.7478 0)
(14.5559 4.86704 0)
(14.5709 4.99204 0)
(9.91235 4.57197 0)
(10.9345 3.95141 0)
(11.6013 3.85731 0)
(12.249 3.8833 0)
(12.8063 3.86119 0)
(13.3153 3.83847 0)
(13.7416 3.82536 0)
(14.1111 3.81376 0)
(14.3895 3.84798 0)
(14.616 3.90282 0)
(14.7717 3.9872 0)
(14.8669 4.09066 0)
(14.916 4.2073 0)
(14.9377 4.31508 0)
(14.9237 4.42264 0)
(14.8905 4.53249 0)
(14.8798 4.62931 0)
(14.8841 4.69783 0)
(9.95961 4.38764 0)
(11.0274 3.78761 0)
(11.7278 3.70146 0)
(12.3939 3.70176 0)
(12.981 3.66905 0)
(13.4891 3.60507 0)
(13.8751 3.5585 0)
(14.1985 3.54034 0)
(14.4509 3.57336 0)
(14.6475 3.64891 0)
(14.7883 3.72968 0)
(14.9129 3.81512 0)
(15.0024 3.88806 0)
(15.076 3.94158 0)
(15.1385 3.97814 0)
(15.1709 4.01306 0)
(15.1775 4.05136 0)
(15.2094 4.08321 0)
(10.0117 3.93678 0)
(11.0871 3.33886 0)
(11.8124 3.2446 0)
(12.4819 3.23655 0)
(13.0437 3.22404 0)
(13.5064 3.21617 0)
(13.8701 3.19162 0)
(14.1716 3.1792 0)
(14.4259 3.17544 0)
(14.6587 3.19432 0)
(14.8454 3.21695 0)
(15.0264 3.27346 0)
(15.1702 3.3249 0)
(15.2769 3.38656 0)
(15.3487 3.44851 0)
(15.3896 3.50123 0)
(15.4025 3.55527 0)
(15.3937 3.59961 0)
(10.0804 3.5042 0)
(11.0786 2.87163 0)
(11.7997 2.77732 0)
(12.4753 2.82491 0)
(13.0752 2.84308 0)
(13.5691 2.84923 0)
(13.955 2.83118 0)
(14.3197 2.80858 0)
(14.5958 2.79632 0)
(14.8079 2.77278 0)
(14.9688 2.75807 0)
(15.0834 2.78297 0)
(15.1768 2.80467 0)
(15.2488 2.84218 0)
(15.3188 2.90104 0)
(15.3548 2.95533 0)
(15.3831 3.00402 0)
(15.4175 3.04229 0)
(10.203 3.0664 0)
(11.1762 2.51505 0)
(11.9192 2.34943 0)
(12.6427 2.32695 0)
(13.2991 2.33883 0)
(13.833 2.31407 0)
(14.2328 2.32426 0)
(14.5995 2.33253 0)
(14.8842 2.34891 0)
(15.1007 2.35865 0)
(15.3002 2.35317 0)
(15.4273 2.3606 0)
(15.507 2.37403 0)
(15.5801 2.38576 0)
(15.6288 2.41154 0)
(15.6327 2.43261 0)
(15.6334 2.45032 0)
(15.6453 2.4663 0)
(10.0818 2.52483 0)
(11.2582 1.99592 0)
(12.0197 1.78652 0)
(12.6939 1.77167 0)
(13.2836 1.83381 0)
(13.7762 1.88838 0)
(14.1964 1.95271 0)
(14.5757 1.95848 0)
(14.9102 1.93195 0)
(15.1621 1.92475 0)
(15.3828 1.88982 0)
(15.5515 1.867 0)
(15.6573 1.89005 0)
(15.7566 1.91793 0)
(15.8181 1.95564 0)
(15.8464 1.98315 0)
(15.8566 1.99472 0)
(15.8742 1.99762 0)
(10.4467 1.97572 0)
(11.5032 1.57311 0)
(12.19 1.45125 0)
(12.801 1.45267 0)
(13.327 1.41263 0)
(13.803 1.40224 0)
(14.2513 1.43028 0)
(14.6893 1.44304 0)
(15.1088 1.44407 0)
(15.4182 1.46854 0)
(15.6138 1.47475 0)
(15.7699 1.45606 0)
(15.8462 1.47177 0)
(15.904 1.48623 0)
(15.9398 1.4988 0)
(15.9585 1.50276 0)
(15.9727 1.50044 0)
(15.9956 1.48569 0)
(9.97815 1.53476 0)
(11.1855 1.14809 0)
(12.133 1.01792 0)
(13.0161 1.02923 0)
(13.6888 1.02988 0)
(14.2238 1.00319 0)
(14.6175 0.993643 0)
(14.9345 1.00827 0)
(15.2367 1.02682 0)
(15.4855 1.02706 0)
(15.6507 1.05977 0)
(15.8262 1.07562 0)
(15.9638 1.0885 0)
(16.0815 1.10726 0)
(16.1623 1.11042 0)
(16.2346 1.10667 0)
(16.2715 1.08638 0)
(16.307 1.06462 0)
(10.1341 1.11284 0)
(11.4515 0.621698 0)
(12.3714 0.466481 0)
(13.2031 0.509712 0)
(13.8078 0.567783 0)
(14.2842 0.602744 0)
(14.6668 0.647715 0)
(15.0034 0.693017 0)
(15.2868 0.71564 0)
(15.534 0.720882 0)
(15.7078 0.714155 0)
(15.8557 0.70881 0)
(15.9711 0.689988 0)
(16.0672 0.683241 0)
(16.1181 0.682447 0)
(16.1394 0.679403 0)
(16.1248 0.67991 0)
(16.0873 0.664879 0)
(10.2181 0.688795 0)
(11.5489 0.219314 0)
(12.4863 0.155007 0)
(13.2776 0.213163 0)
(13.8185 0.244847 0)
(14.2055 0.271203 0)
(14.5085 0.290863 0)
(14.7469 0.318088 0)
(14.968 0.340219 0)
(15.1224 0.353904 0)
(15.1953 0.359185 0)
(15.2505 0.378816 0)
(15.2589 0.387494 0)
(15.233 0.39141 0)
(15.1605 0.397237 0)
(15.0413 0.407148 0)
(14.8909 0.419669 0)
(14.7143 0.410669 0)
(10.1319 0.202995 0)
(11.6907 -0.236872 0)
(12.636 -0.231629 0)
(13.1954 -0.118059 0)
(13.4814 -0.0192152 0)
(13.5883 0.0367072 0)
(13.6173 0.0944963 0)
(13.607 0.13709 0)
(13.5652 0.169813 0)
(13.481 0.187251 0)
(13.343 0.205512 0)
(13.1817 0.22296 0)
(12.9901 0.226774 0)
(12.7855 0.233487 0)
(12.5585 0.244236 0)
(12.2919 0.271332 0)
(12.0222 0.285904 0)
(11.7171 0.306747 0)
(10.1619 -0.284754 0)
(11.116 -0.666486 0)
(11.2234 -0.522992 0)
(10.9949 -0.321353 0)
(10.7194 -0.135153 0)
(10.452 -0.00469017 0)
(10.2468 0.0833182 0)
(10.0894 0.117841 0)
(9.94347 0.143291 0)
(9.81917 0.157643 0)
(9.65598 0.155872 0)
(9.49971 0.172889 0)
(9.32403 0.181154 0)
(9.13236 0.184 0)
(8.91938 0.186454 0)
(8.69775 0.208448 0)
(8.47623 0.21159 0)
(8.24029 0.225718 0)
(8.54914 -0.352436 0)
(7.18607 -0.304854 0)
(5.9825 -0.0886903 0)
(5.30269 0.0147402 0)
(5.04176 0.0684835 0)
(4.98363 0.0808434 0)
(5.02525 0.0668061 0)
(5.07349 0.0539165 0)
(5.09403 0.0459038 0)
(5.10268 0.0457963 0)
(5.07649 0.0515032 0)
(5.03427 0.0571989 0)
(4.97782 0.0599342 0)
(4.9066 0.0661894 0)
(4.82148 0.0748657 0)
(4.71275 0.0888695 0)
(4.68169 0.0764136 0)
(4.49504 0.12759 0)
(0.0841469 0.261336 0)
(0.18711 0.279029 0)
(0.273697 0.312342 0)
(0.350002 0.324831 0)
(0.458932 0.336663 0)
(0.554597 0.336778 0)
(0.653379 0.343317 1.13864e-17)
(0.728608 0.353041 -1.13101e-17)
(0.78988 0.357283 0)
(0.834025 0.358687 -1.11847e-17)
(0.850485 0.351504 0)
(0.848033 0.361451 0)
(0.849336 0.398969 0)
(0.849461 0.424025 1.09677e-17)
(0.825301 0.447818 0)
(0.799722 0.48388 0)
(0.763311 0.488988 -1.07822e-17)
(0.680345 0.490803 0)
(0.567957 0.498133 0)
(0.440873 0.520155 0)
(0.302138 0.546366 1.04956e-17)
(0.155887 0.557125 0)
(-0.00618772 0.57175 1.03491e-17)
(-0.183296 0.57456 0)
(-0.388437 0.581605 0)
(-0.610417 0.584003 1.01393e-17)
(-0.848484 0.586247 0)
(-1.09545 0.584656 -9.99563e-18)
(-1.33216 0.579301 0)
(-1.52304 0.561191 9.84557e-18)
(-1.6316 0.510605 0)
(-1.62097 0.431401 0)
(-1.46164 0.325341 0)
(-1.15277 0.217504 0)
(-0.700361 0.129935 0)
(-0.133791 0.0751383 -9.39892e-18)
(0.470522 0.0324507 0)
(1.07425 0.0308292 1.85218e-17)
(1.65977 0.0504724 0)
(2.2094 0.0805276 -1.82472e-17)
(2.6909 0.132433 0)
(3.15092 0.188631 0)
(3.57343 0.217285 1.78447e-17)
(3.95192 0.262723 0)
(4.25516 0.288735 1.75816e-17)
(4.53398 0.268737 -1.74521e-17)
(4.88368 0.25361 0)
(5.24511 0.278822 -1.71832e-17)
(5.54982 0.312473 -1.70424e-17)
(5.88274 0.299898 0)
(6.27878 0.359313 0)
(6.56825 0.478299 0)
(6.67118 0.553359 0)
(6.66175 0.631686 0)
(6.57098 0.893109 1.62917e-17)
(6.24513 1.26335 0)
(5.46377 1.41031 -1.61722e-17)
(4.47398 1.09992 0)
(3.64672 0.495354 0)
(2.90144 0.108145 1.5698e-17)
(2.26635 0.218803 0)
(1.80955 0.580011 -1.5413e-17)
(1.40341 0.759725 0)
(0.927901 0.777016 0)
(0.472417 0.762365 0)
(0.101493 0.686506 1.47567e-17)
(-0.263749 0.584733 0)
(-0.548609 0.472938 0)
(-0.490131 0.301019 1.43451e-17)
(-0.0119935 0.18234 0)
(0.619205 0.197694 1.4048e-17)
(1.17468 0.38401 0)
(1.4334 0.722047 0)
(1.21693 1.07216 0)
(0.369247 1.28086 -1.36552e-17)
(-0.827894 1.26635 0)
(-1.6631 0.936496 0)
(-1.76882 0.490103 -1.32566e-17)
(-1.45597 0.0227262 -1.31814e-17)
(-1.14433 -0.204699 0)
(-1.04468 -0.0352546 -1.31916e-17)
(-1.40603 0.515718 0)
(-2.28431 1.08902 -2.5906e-17)
(-3.50074 1.45902 0)
(-4.86277 1.5513 -2.49666e-17)
(-6.14437 1.56928 0)
(-7.3105 1.542 2.42085e-17)
(-8.36682 1.4641 0)
(-9.16248 1.38817 0)
(-9.82431 1.22334 0)
(-10.3394 1.13454 -2.32228e-17)
(-10.6737 1.08695 0)
(-11.0021 1.04889 2.27849e-17)
(-11.1517 1.01578 0)
(-11.0975 0.931938 -2.24807e-17)
(-10.9094 0.844898 -2.23145e-17)
(-10.5352 0.738757 -2.21487e-17)
(-9.98315 0.637425 0)
(-9.2325 0.541497 0)
(-8.4955 0.535572 0)
(-7.7537 0.593926 0)
(-7.38392 0.620241 0)
(-7.37986 0.46115 0)
(-4.71132 -0.144987 0)
(-4.47139 0.596357 0)
(-3.24822 -0.147009 2.0925e-17)
(-1.18687 0.195025 2.04502e-17)
(-0.684402 0.269332 0)
(0.425895 0.181004 0)
(1.40625 0.181113 0)
(2.42734 0.192946 1.99817e-17)
(3.40744 0.209062 0)
(4.25711 0.240328 0)
(5.08611 0.257921 0)
(5.83306 0.277381 0)
(6.55278 0.291654 -1.94402e-17)
(7.22051 0.311696 0)
(7.84852 0.298675 0)
(8.4108 0.319397 1.92688e-17)
(8.99197 0.358106 -1.92536e-17)
(9.49175 0.300141 0)
(9.94866 0.234146 -1.91918e-17)
(10.4111 0.228905 0)
(10.8693 0.221497 1.91442e-17)
(11.2418 0.164301 0)
(11.629 0.110883 0)
(12.1215 0.141973 0)
(12.6972 0.13462 0)
(13.262 0.0449541 0)
(13.7932 -0.0280444 -3.72977e-17)
(14.2727 -0.0701007 -3.70809e-17)
(14.8197 -0.102205 0)
(15.3358 -0.136735 0)
(15.8236 -0.171511 0)
(16.218 -0.277718 3.63192e-17)
(16.6344 -0.3866 0)
(17.0062 -0.424965 0)
(16.995 -0.441065 0)
(16.7128 -0.463729 3.51107e-17)
(16.1241 -0.466416 -3.48356e-17)
(15.0118 -0.42089 0)
(13.2704 -0.269019 0)
(10.8858 -0.135665 -3.38802e-17)
(8.24736 -0.03081 -3.34645e-17)
(5.56707 -0.028012 0)
(3.0381 -0.105893 0)
(0.899037 -0.186829 3.23284e-17)
(-1.03988 -0.231968 -3.21411e-17)
(-2.9134 -0.250088 0)
(-4.43291 -0.223855 0)
(-6.00571 -0.268196 -3.12153e-17)
(-7.32752 -0.152454 0)
(-8.36833 -0.297417 0)
(-9.2468 -0.156592 -3.04574e-17)
(-9.88178 -0.313266 0)
(-10.0341 -0.302899 -2.99039e-17)
(-10.3021 -0.32232 0)
(-9.71122 -0.444604 0)
(-8.80707 -0.440285 0)
(-8.3636 -0.383877 2.91521e-17)
(-7.47396 -0.397847 0)
(-6.66742 -0.322129 0)
(-5.79448 -0.292098 0)
(-5.22721 -0.183938 0)
(-4.77704 -0.0972368 0)
(-4.5425 -0.0156788 0)
(-4.43459 0.0387741 2.83803e-17)
(-4.41419 0.0380475 2.82751e-17)
(-4.50561 0.0522823 0)
(-4.39409 0.0506706 0)
(-4.43532 0.0722006 0)
(-4.33001 0.10645 -2.76723e-17)
(-4.17641 0.177635 0)
(-4.35801 0.272939 5.48035e-17)
(-4.26893 0.248447 -5.4251e-17)
(-4.14055 0.281038 -5.42937e-17)
(-3.84343 0.24183 5.44175e-17)
(-3.26334 0.157806 -5.45096e-17)
(-2.55796 0.297163 5.43081e-17)
(-1.48288 0.181505 0)
(0.0501815 1.01971 0)
(0.0273688 1.15237 0)
(0.069219 1.21014 -2.34223e-17)
(0.0735658 1.12388 0)
(0.0964948 1.07739 2.33704e-17)
(0.100289 1.098 2.31031e-17)
(0.107969 1.14223 1.14752e-17)
(0.105919 1.18263 1.13745e-17)
(0.0675029 1.22979 0)
(0.0108933 1.33424 1.1235e-17)
(0.0214968 1.44987 0)
(0.0686322 1.44749 0)
(0.0113433 1.3757 -2.20707e-17)
(-0.0781062 1.40965 -1.09447e-17)
(-0.118042 1.41584 2.17303e-17)
(-0.273344 1.34453 2.15461e-17)
(-0.465298 1.46362 1.06754e-17)
(-0.631371 1.58911 0)
(-0.833985 1.6634 0)
(-1.00192 1.68202 0)
(-1.17859 1.64746 1.0366e-17)
(-1.34644 1.68042 0)
(-1.54101 1.67934 -3.07051e-17)
(-1.78355 1.74173 0)
(-2.04811 1.79076 0)
(-2.36038 1.84517 -1.00302e-17)
(-2.6717 1.87341 0)
(-2.97553 1.86851 9.89958e-18)
(-3.20413 1.76193 1.96833e-17)
(-3.35273 1.52006 -9.77182e-18)
(-3.37141 1.2162 0)
(-3.21493 0.855492 0)
(-2.86513 0.469184 0)
(-2.32832 0.0707775 1.9052e-17)
(-1.68198 -0.209828 1.89188e-17)
(-0.977622 -0.34869 9.38908e-18)
(-0.241599 -0.404067 0)
(0.446001 -0.385824 -1.85067e-17)
(1.06692 -0.311479 0)
(1.67297 -0.200913 1.82213e-17)
(2.16712 -0.0678134 0)
(2.66939 0.0701943 0)
(3.10196 0.112946 -1.7803e-17)
(3.51211 0.276009 0)
(3.9186 0.413616 -5.25435e-17)
(4.26597 0.343596 1.73925e-17)
(4.6492 0.197289 0)
(5.12441 0.273439 1.71177e-17)
(5.54844 0.384316 1.69436e-17)
(5.96904 0.214695 0)
(6.54025 0.151951 0)
(7.09907 0.490403 0)
(7.49239 0.855745 0)
(7.72855 1.02006 0)
(7.94576 1.217 -1.61684e-17)
(8.19242 1.73147 -3.20119e-17)
(8.35518 2.35849 1.59136e-17)
(8.26047 2.71545 0)
(7.95766 2.96744 -3.14451e-17)
(7.17713 3.31857 1.56313e-17)
(5.67187 3.04025 0)
(3.9877 2.19403 1.53969e-17)
(2.76059 1.85121 0)
(1.90799 1.95542 0)
(1.20152 1.89685 2.94544e-17)
(0.73524 1.76184 -1.45139e-17)
(0.412604 1.73224 2.87736e-17)
(0.236303 1.50546 -2.86752e-17)
(0.401419 0.782093 -1.4312e-17)
(0.981844 0.113115 0)
(1.66019 0.0456585 -1.39414e-17)
(2.31377 0.504596 0)
(2.75786 1.32757 0)
(2.83274 2.26523 0)
(2.50613 3.0156 -1.33958e-17)
(2.04393 3.19919 0)
(1.87839 2.4743 -2.62633e-17)
(1.56765 1.57593 3.94486e-17)
(0.314707 1.48408 1.2924e-17)
(-1.71272 2.18443 0)
(-3.78902 2.93618 1.22933e-17)
(-5.69577 3.47714 0)
(-7.28305 3.77659 2.39686e-17)
(-8.60259 3.89659 0)
(-9.74543 3.88686 2.34863e-17)
(-10.7782 3.73918 -4.68676e-17)
(-11.606 3.5253 -2.34022e-17)
(-12.207 3.23686 0)
(-12.6604 2.99227 0)
(-12.9611 2.79329 0)
(-13.1378 2.65857 2.24094e-17)
(-13.2876 2.50747 0)
(-13.3599 2.3164 -2.24025e-17)
(-13.2358 2.08761 0)
(-12.9962 1.85598 6.7549e-17)
(-12.5545 1.65133 2.24483e-17)
(-11.8568 1.33522 2.23854e-17)
(-11.0706 1.04213 0)
(-10.0398 0.847398 0)
(-9.05078 0.973346 0)
(-8.06381 1.29509 0)
(-7.61058 1.24453 0)
(-7.80169 0.447537 4.38153e-17)
(-4.22218 -0.832036 4.39435e-17)
(-4.91115 1.21092 0)
(-2.19458 -0.919457 -2.18166e-17)
(-1.10495 0.13032 -2.03956e-17)
(0.0811859 0.324147 0)
(0.888285 0.102281 -4.03621e-17)
(2.23987 0.0277764 0)
(3.30014 0.0165583 1.98665e-17)
(4.47994 0.0507142 0)
(5.37874 0.104613 0)
(6.3623 0.114995 -3.83313e-17)
(7.16672 0.166845 0)
(7.99721 0.169159 1.86372e-17)
(8.70131 0.172754 0)
(9.43476 0.222937 0)
(10.0894 0.24428 1.79846e-17)
(10.6201 0.177662 1.77269e-17)
(11.1854 0.308791 0)
(11.9114 0.412512 -1.76604e-17)
(12.4578 0.366524 0)
(12.9684 0.367085 1.76202e-17)
(13.5194 0.42437 3.53125e-17)
(14.0265 0.378043 0)
(14.3943 0.13386 0)
(14.976 -0.0516647 0)
(15.5515 -0.0777023 0)
(16.1017 -0.04194 3.49969e-17)
(16.2989 -0.227424 1.0491e-16)
(16.513 -0.370211 0)
(16.9382 -0.519838 0)
(17.4608 -0.789495 0)
(17.8584 -1.04544 -3.52523e-17)
(17.9111 -1.21905 0)
(18.1059 -1.13338 0)
(17.9006 -1.12439 6.84643e-17)
(16.8133 -1.14098 3.38992e-17)
(15.0874 -0.94615 3.34486e-17)
(12.7382 -0.633173 0)
(9.97059 -0.296841 0)
(6.99637 -0.167204 3.19535e-17)
(4.16321 -0.238425 -3.14306e-17)
(1.49036 -0.506155 0)
(-0.811492 -0.814363 0)
(-2.61819 -1.12833 -3.02859e-17)
(-4.28419 -1.15514 9.08287e-17)
(-5.91935 -1.34025 0)
(-7.09687 -1.20314 0)
(-8.39432 -1.38858 2.94521e-17)
(-9.33144 -1.18933 0)
(-9.87335 -1.5947 5.82563e-17)
(-10.5131 -1.29616 -2.91344e-17)
(-10.3107 -1.6128 0)
(-10.4863 -1.60325 2.85141e-17)
(-10.1074 -1.77703 5.81898e-17)
(-9.47527 -2.19315 0)
(-7.93014 -2.02477 0)
(-7.2234 -1.73781 -2.82086e-17)
(-5.98734 -1.86189 0)
(-5.09331 -1.69678 5.60207e-17)
(-3.52349 -1.59539 0)
(-2.70851 -1.24367 0)
(-1.70547 -0.986259 0)
(-1.16886 -0.756002 0)
(-0.535158 -0.564955 -2.71931e-17)
(-0.0751576 -0.360324 -2.71016e-17)
(0.106105 -0.122021 0)
(0.231246 -0.0499883 0)
(-0.265885 0.124596 0)
(-0.441149 0.127664 2.59273e-17)
(-0.798597 0.196857 0)
(-1.1952 0.470646 -5.04525e-17)
(-1.04665 0.434068 4.90266e-17)
(-1.19854 0.427709 4.85458e-17)
(-0.770549 0.425893 4.8637e-17)
(0.0754253 0.371129 4.98765e-17)
(0.5292 0.499582 5.04326e-17)
(1.75465 0.317603 0)
(0.0501447 1.95959 0)
(-0.0684779 2.07295 0)
(-0.115669 2.05087 2.38752e-17)
(-0.159713 2.08685 2.37611e-17)
(-0.0738777 2.10793 -2.35826e-17)
(-0.0446749 2.11734 -2.33009e-17)
(-0.0653934 2.12111 6.66986e-21)
(-0.110397 2.20805 0)
(-0.091891 2.32423 0)
(-0.0156432 2.22909 0)
(-0.0104749 1.98085 0)
(-0.128885 2.06431 0)
(-0.240267 2.40472 6.53504e-17)
(-0.424586 2.35481 0)
(-0.701866 2.52443 -2.14502e-17)
(-0.994414 2.95728 -2.14175e-17)
(-1.36052 2.83942 0)
(-1.59142 2.91939 0)
(-1.73481 2.83179 0)
(-1.87579 2.78267 0)
(-1.9873 2.83936 -2.08067e-17)
(-2.20069 2.80174 0)
(-2.39796 2.98292 2.05228e-17)
(-2.66631 2.99585 0)
(-2.91688 3.16002 0)
(-3.16765 3.18643 0)
(-3.40278 3.17319 4.00489e-17)
(-3.56195 2.98798 0)
(-3.68819 2.66563 -1.97838e-17)
(-3.69224 2.2876 3.94148e-17)
(-3.60529 1.7428 0)
(-3.3367 1.11894 0)
(-2.9092 0.408823 0)
(-2.29347 -0.186227 -1.92247e-17)
(-1.56292 -0.590989 -1.90844e-17)
(-0.821765 -0.737658 0)
(-0.0935529 -0.689104 0)
(0.539984 -0.530635 3.74372e-17)
(1.08863 -0.34509 3.71637e-17)
(1.57969 -0.138052 -3.68805e-17)
(2.02836 0.0966976 0)
(2.43821 0.306599 0)
(2.78144 0.38932 0)
(3.09791 0.580821 0)
(3.47397 0.78148 3.55465e-17)
(3.87793 0.683409 3.53236e-17)
(4.17289 0.432846 -3.50212e-17)
(4.54677 0.56838 0)
(5.1125 0.688223 0)
(5.63695 0.268331 0)
(6.01389 0.125551 0)
(6.40067 0.767297 3.32223e-17)
(6.89036 1.1904 0)
(7.41061 1.40382 0)
(7.75749 1.72804 3.26409e-17)
(8.10338 2.16295 3.23136e-17)
(8.49999 2.78559 0)
(8.87148 3.31861 -6.36263e-17)
(8.86136 3.75538 3.14302e-17)
(8.65664 4.49172 -3.09734e-17)
(8.42899 5.15974 0)
(7.69971 5.38028 0)
(6.32391 5.04738 0)
(4.69424 4.23139 0)
(3.17717 3.64262 -2.95532e-17)
(2.2862 3.15351 -5.82117e-17)
(1.79432 2.70633 -2.86621e-17)
(1.62619 2.17544 2.8697e-17)
(1.63233 1.07475 0)
(1.79405 0.0520136 -5.73044e-17)
(2.21229 -0.0179005 -5.53966e-17)
(2.57837 0.671207 -5.4206e-17)
(2.60642 1.75748 5.34691e-17)
(2.53726 2.92653 0)
(2.38289 3.76919 7.93036e-17)
(1.98225 3.85619 0)
(0.885892 3.99984 -2.60355e-17)
(-1.25909 4.75441 -2.54261e-17)
(-3.7022 5.64297 0)
(-5.73194 6.13361 0)
(-7.39553 6.34461 -4.88479e-17)
(-8.84986 6.48256 0)
(-10.0372 6.56695 -4.84409e-17)
(-11.028 6.53739 0)
(-11.948 6.42054 4.88098e-17)
(-12.7368 6.14768 9.8647e-17)
(-13.3032 5.76898 0)
(-13.667 5.32088 0)
(-13.8614 4.96545 0)
(-13.9223 4.73309 4.78484e-17)
(-13.8252 4.50668 0)
(-13.7105 4.28841 4.73279e-17)
(-13.5807 4.00424 0)
(-13.3104 3.65728 0)
(-12.9214 3.17218 -9.46345e-17)
(-12.4561 2.72938 0)
(-11.7831 2.23422 -4.68057e-17)
(-11.0472 1.72199 0)
(-10.1725 1.37946 -4.58882e-17)
(-9.25662 1.52497 0)
(-8.07418 2.21852 0)
(-7.06259 2.42823 0)
(-7.33481 0.819443 -1.34716e-16)
(-3.24336 -1.10424 -4.46207e-17)
(-5.47906 2.06371 0)
(-0.793184 -1.70199 0)
(-1.29645 0.523233 0)
(0.948654 0.648824 0)
(1.12004 0.39138 4.29366e-17)
(2.86215 0.153399 -8.57596e-17)
(3.96959 0.198082 -4.25553e-17)
(5.40511 0.308619 8.50831e-17)
(6.31828 0.440898 8.41984e-17)
(7.44626 0.510413 4.17924e-17)
(8.30203 0.572085 0)
(9.16641 0.609742 8.18531e-17)
(10.003 0.683795 0)
(10.774 0.64924 -7.86965e-17)
(11.4239 0.730139 -3.84172e-17)
(12.1225 0.869581 0)
(12.3087 0.590197 7.34328e-17)
(12.7055 0.475499 3.53139e-17)
(13.251 0.520378 0)
(13.5016 0.416442 3.38704e-17)
(13.8306 0.414952 -1.00898e-16)
(14.4544 0.272824 0)
(14.7788 0.212587 0)
(15.4322 0.0998356 0)
(16.1827 -0.147139 0)
(16.799 -0.206412 -6.6581e-17)
(17.0816 -0.116619 -6.6342e-17)
(17.1257 -0.463085 0)
(17.0505 -0.969791 0)
(17.4536 -1.17415 0)
(18.0815 -1.34526 0)
(17.8578 -1.82599 0)
(17.3109 -2.03032 0)
(16.9168 -1.49373 -6.70696e-17)
(15.5998 -0.990869 3.33505e-20)
(13.3217 -0.575347 0)
(10.5122 -0.258109 0)
(7.62016 -0.168111 -6.26934e-17)
(4.86499 -0.251662 0)
(2.41846 -0.474535 6.0846e-17)
(0.322303 -1.09462 6.02099e-17)
(-1.70148 -1.56195 0)
(-3.11423 -2.10042 0)
(-4.36773 -2.01398 -5.92602e-17)
(-5.84049 -2.41249 -1.17298e-16)
(-6.92849 -2.13399 0)
(-7.73956 -2.41327 0)
(-8.99017 -2.13092 0)
(-8.84922 -2.6244 -5.93617e-17)
(-10.2859 -2.4155 5.9495e-17)
(-9.09314 -2.68664 0)
(-9.69811 -2.71021 1.13678e-16)
(-8.68575 -2.89897 5.94596e-17)
(-8.71678 -3.49318 -1.21309e-16)
(-7.11781 -3.44063 0)
(-6.09364 -2.98535 0)
(-4.80986 -3.05707 -1.17938e-16)
(-4.58728 -2.89313 -5.84767e-17)
(-2.60859 -2.72169 0)
(-1.60878 -2.17386 0)
(-0.127176 -1.77177 0)
(0.50303 -1.35869 0)
(1.29899 -1.07964 -1.099e-16)
(1.78945 -0.806369 0)
(2.11742 -0.231704 0)
(2.97246 0.0336396 0)
(2.77458 0.264903 0)
(2.80426 0.420474 0)
(2.00741 0.621566 0)
(0.992227 0.794732 -9.89262e-17)
(1.14666 0.720643 0)
(0.87329 0.802384 0)
(0.589167 0.629616 -1.8576e-16)
(1.46108 0.569734 9.45151e-17)
(1.84136 0.878158 -9.63092e-17)
(3.33323 0.549317 9.96823e-17)
(0.0895442 2.87331 0)
(0.0204994 3.28666 -4.75146e-17)
(0.0374265 3.19392 0)
(0.106029 2.86096 -2.36952e-17)
(0.19617 2.68963 0)
(0.217563 2.88442 0)
(0.235629 3.05421 2.31112e-17)
(0.216626 3.02513 0)
(0.216208 2.84381 0)
(0.145662 2.8903 0)
(-0.0526435 3.4258 0)
(-0.414837 3.75429 0)
(-0.699056 3.72753 -8.70799e-17)
(-1.03751 4.11071 -4.34749e-17)
(-1.55819 4.21901 4.31835e-17)
(-1.70513 4.1631 0)
(-1.86415 4.17788 0)
(-1.96162 3.86812 0)
(-1.84869 3.88219 0)
(-1.9175 3.71253 0)
(-1.88291 3.85816 -4.16331e-17)
(-1.95586 4.0859 -4.1496e-17)
(-2.07613 4.11234 4.10891e-17)
(-2.298 4.31345 -4.09066e-17)
(-2.56461 4.23262 0)
(-2.76637 4.28127 0)
(-3.00418 4.09924 -4.01402e-17)
(-3.09287 3.90018 0)
(-3.17101 3.52018 0)
(-3.20594 2.9129 -3.94197e-17)
(-3.13392 2.22353 -3.92626e-17)
(-2.96451 1.28729 -3.89558e-17)
(-2.60362 0.356737 0)
(-2.0692 -0.509478 0)
(-1.47096 -1.03592 3.79405e-17)
(-0.83761 -1.1879 0)
(-0.194194 -1.03314 0)
(0.381336 -0.745678 -3.73608e-17)
(0.854016 -0.452679 3.71968e-17)
(1.25197 -0.196179 -3.69198e-17)
(1.68286 0.142715 0)
(2.09161 0.433952 0)
(2.47548 0.612706 -7.24418e-17)
(2.82724 0.69275 0)
(3.20473 0.859886 -7.16726e-17)
(3.68402 0.877086 -1.06415e-16)
(4.05273 0.65063 1.0525e-16)
(4.44214 0.550008 -6.93026e-17)
(5.05167 0.529689 0)
(5.52617 0.274668 0)
(5.71605 0.328062 -6.75394e-17)
(6.04561 0.898933 -3.32051e-17)
(6.59697 1.09593 0)
(7.15578 1.31087 0)
(7.52077 1.85855 -3.26484e-17)
(7.85767 2.14033 -6.50611e-17)
(8.13188 2.70466 0)
(8.46435 3.53087 6.34496e-17)
(8.71232 4.39821 -6.31008e-17)
(8.60482 5.35801 6.23039e-17)
(8.76683 5.86845 0)
(8.6629 6.39389 0)
(8.118 7.03331 0)
(7.21515 6.97276 0)
(5.68988 6.42169 0)
(4.53967 5.16638 5.92308e-17)
(3.39439 4.09139 0)
(2.75716 3.54074 0)
(2.42612 2.23509 0)
(1.82254 0.882899 1.13242e-16)
(1.34886 0.866852 5.35982e-17)
(1.02159 1.89645 5.23527e-17)
(0.489364 3.25175 -1.04612e-16)
(-0.18853 4.6076 5.23727e-17)
(-0.957671 5.7714 -5.20703e-17)
(-2.12038 6.74679 0)
(-3.59626 7.51872 5.08387e-17)
(-5.27262 8.08153 0)
(-6.77705 8.48326 0)
(-8.1275 8.72806 0)
(-9.28087 8.74848 9.82313e-17)
(-10.2925 8.68872 -4.91322e-17)
(-11.1986 8.59639 -4.94059e-17)
(-12.0995 8.46395 -9.92444e-17)
(-12.8986 8.20166 -1.49702e-16)
(-13.4805 7.73379 -4.99822e-17)
(-13.8721 7.13082 0)
(-14.1114 6.50408 -9.83147e-17)
(-14.1837 6.01232 0)
(-14.1718 5.69311 -1.44436e-16)
(-14.0349 5.42411 0)
(-13.7542 5.13853 -1.4299e-16)
(-13.3575 4.81808 0)
(-12.9304 4.38946 0)
(-12.4158 3.87699 -4.66532e-17)
(-11.7617 3.34998 0)
(-11.1478 2.77385 4.56135e-17)
(-10.65 2.28054 9.03195e-17)
(-10.0895 1.83075 4.47269e-17)
(-9.46217 1.73142 8.92616e-17)
(-8.30181 2.28379 -8.91594e-17)
(-6.75766 2.63159 -8.87388e-17)
(-6.27112 0.703502 1.75207e-16)
(-2.5225 -1.09976 0)
(-5.23187 2.02881 0)
(-0.160184 -2.52967 8.82929e-17)
(-1.52797 0.469303 -8.49525e-17)
(1.9446 0.460658 0)
(1.44167 0.151025 0)
(3.40466 -0.392734 8.29013e-17)
(4.29787 -0.336215 0)
(5.95025 -0.0981178 1.17379e-19)
(6.85119 0.16058 1.1627e-19)
(8.0238 0.169722 8.27342e-17)
(8.85568 0.390917 0)
(9.7827 0.537249 -8.30076e-17)
(10.5568 0.484163 0)
(11.5976 0.71269 8.20501e-17)
(12.2656 0.751342 0)
(12.9112 0.848745 0)
(13.8493 1.38227 -7.8656e-17)
(14.0024 1.17145 -7.83359e-17)
(14.4348 1.05642 0)
(15.1267 1.19808 -7.12363e-17)
(14.7845 0.804098 1.38373e-16)
(15.1181 0.859701 0)
(15.3642 0.458225 0)
(15.3026 -0.338721 0)
(15.7181 -0.455599 0)
(16.9214 -0.132493 6.49476e-17)
(17.4063 -0.228383 -1.27984e-16)
(17.2556 -0.321716 0)
(17.0829 -0.75182 0)
(17.1052 -1.75505 0)
(17.7005 -2.11259 0)
(17.5521 -1.80827 0)
(16.6279 -1.77159 0)
(15.4279 -1.71604 0)
(13.7337 -1.25096 6.47739e-17)
(11.689 -0.497008 0)
(9.04502 -0.117596 0)
(6.76523 -0.0216825 6.19325e-17)
(4.47625 -0.516357 0)
(2.15988 -1.28754 0)
(0.598841 -1.88257 -6.02891e-17)
(-0.965292 -2.41134 0)
(-2.29384 -3.47946 0)
(-3.43283 -3.26921 1.1774e-16)
(-4.19919 -3.62208 1.17297e-16)
(-5.878 -3.42467 1.16452e-16)
(-5.77372 -3.62165 0)
(-7.87333 -3.36723 1.18328e-16)
(-6.61993 -3.78752 0)
(-8.79499 -3.7578 -1.18524e-16)
(-7.64913 -4.03849 0)
(-8.82401 -3.83427 -1.19632e-16)
(-7.25062 -4.2883 1.87987e-19)