/*--------------------------------*- C++ -*----------------------------------*\
| =========                 |                                                 |
| \\      /  F ield         | OpenFOAM: The Open Source CFD Toolbox           |
|  \\    /   O peration     | Version:  dev                                   |
|   \\  /    A nd           | Web:      http://www.openfoam.org               |
|    \\/     M anipulation  |                                                 |
\*---------------------------------------------------------------------------*/
FoamFile
{
    version     2.0;
    format      ascii;
    class       volSymmTensorField;
    object      UPrime2Mean;
    location    "9.128";
}
// * * * * * * * * * * * * * * * * * * * * * * * * * * * * * * * * * * * * * //

dimensions      [0 2 -2 0 0 0 0];

internalField   nonuniform List<symmTensor> 
12225
(
(0.329206 0.0192913 0 0.0693044 0 0)
(2.98556 0.0797483 0 0.0782337 0 0)
(7.87867 0.112401 0 0.0769354 0 0)
(14.5311 0.148343 0 0.0756087 0 0)
(22.6974 0.133164 0 0.076553 0 0)
(32.0587 0.201256 0 0.0747062 0 0)
(42.3678 0.0962085 0 0.0766453 0 0)
(53.5076 0.200658 0 0.0738822 0 0)
(65.597 -0.0280693 0 0.0776396 0 0)
(78.1889 0.126068 0 0.0736476 0 0)
(92.9301 -0.305693 0 0.0813314 0 0)
(107.266 -0.115153 0 0.0770168 0 0)
(127.867 -0.67153 0 0.0863141 0 0)
(145.571 -1.27658 0 0.134734 0 0)
(185.864 -1.40857 0 0.116361 0 0)
(198.45 -0.392712 0 2.3914 0 0)
(272.209 -33.5212 0 5.8063 0 0)
(575.639 -52.9023 0 18.8078 0 0)
(0.377344 0.0568723 0 0.689358 0 0)
(3.15538 0.252417 0 0.732685 0 0)
(8.40885 0.362393 0 0.71453 0 0)
(15.4694 0.485788 0 0.707017 0 0)
(24.1908 0.453576 0 0.703867 0 0)
(34.4457 0.633429 0 0.683696 0 0)
(45.5097 0.29697 0 0.692465 0 0)
(58.4583 0.610088 0 0.659139 0 0)
(71.445 -0.133819 0 0.682954 0 0)
(87.1095 0.284377 0 0.646285 0 0)
(102.739 -1.06307 0 0.711528 0 0)
(121.369 -0.763494 0 0.655675 0 0)
(142.783 -2.54047 0 1.06883 0 0)
(166.247 -4.48844 0 1.04654 0 0)
(199.672 -0.927 0 3.09868 0 0)
(274.246 -9.97574 0 6.5988 0 0)
(280.926 -20.8151 0 8.73538 0 0)
(799.54 -185.103 0 64.6781 0 0)
(0.504942 0.058458 0 2.1418 0 0)
(3.06338 0.424962 0 2.20377 0 0)
(8.46383 0.570962 0 2.15265 0 0)
(14.8486 0.852656 0 2.14413 0 0)
(24.2689 0.865561 0 2.121 0 0)
(33.1396 1.05427 0 2.08378 0 0)
(45.2566 0.757962 0 2.07948 0 0)
(56.18 0.888271 0 2.00867 0 0)
(69.6609 0.174762 0 2.05274 0 0)
(83.4106 0.0200416 0 1.96029 0 0)
(98.1474 -1.11952 0 2.12346 0 0)
(115.607 -2.44288 0 2.09499 0 0)
(138.561 -3.59089 0 2.62255 0 0)
(154.804 -7.19286 0 2.83057 0 0)
(210.91 -12.9945 0 6.1141 0 0)
(223.282 -7.88905 0 6.36962 0 0)
(352.829 -62.223 0 31.072 0 0)
(534.253 -192.334 0 98.1417 0 0)
(1.02976 0.0925388 0 4.67312 0 0)
(3.54899 0.619951 0 4.76976 0 0)
(9.06705 0.816519 0 4.64548 0 0)
(15.0625 1.15104 0 4.60472 0 0)
(24.63 1.31447 0 4.56037 0 0)
(32.9733 1.35165 0 4.48599 0 0)
(44.9915 1.26402 0 4.45092 0 0)
(55.1478 0.97624 0 4.35227 0 0)
(68.5768 0.479756 0 4.38395 0 0)
(80.6811 -0.278471 0 4.26002 0 0)
(95.9998 -1.32523 0 4.50924 0 0)
(110.467 -3.33518 0 4.37378 0 0)
(131.423 -4.78633 0 5.30264 0 0)
(152.175 -10.9599 0 5.60684 0 0)
(187.792 -11.4203 0 9.28049 0 0)
(238.295 -28.8387 0 16.8143 0 0)
(291.264 -58.8525 0 32.6638 0 0)
(414.675 -178.219 0 107.788 0 0)
(1.86356 0.365382 0 8.52761 0 0)
(5.00825 0.720564 0 8.72921 0 0)
(9.43378 1.14114 0 8.4779 0 0)
(16.2374 1.29583 0 8.37473 0 0)
(24.6405 1.70291 0 8.28499 0 0)
(33.9356 1.50464 0 8.14985 0 0)
(44.8036 1.60122 0 8.049 0 0)
(55.5023 0.996454 0 7.91672 0 0)
(68.3879 0.605457 0 7.86353 0 0)
(80.0895 -0.588406 0 7.76524 0 0)
(95.332 -1.77172 0 7.96659 0 0)
(108.512 -4.21905 0 7.91306 0 0)
(128.044 -6.8689 0 9.02871 0 0)
(145.16 -12.2773 0 9.26966 0 0)
(173.883 -19.1829 0 14.585 0 0)
(217.821 -25.9316 0 17.2078 0 0)
(233.508 -55.5178 0 46.2712 0 0)
(326.569 -171.671 0 138.635 0 0)
(2.56065 0.750952 0 14.048 0 0)
(6.32255 0.807168 0 14.3999 0 0)
(9.29462 1.54125 0 13.9699 0 0)
(17.0915 1.59589 0 13.775 0 0)
(24.1293 2.12303 0 13.6001 0 0)
(34.2551 1.93933 0 13.3678 0 0)
(43.9566 1.99499 0 13.1624 0 0)
(55.1512 1.41992 0 12.9212 0 0)
(67.2982 0.900452 0 12.784 0 0)
(78.8781 -0.379075 0 12.5824 0 0)
(94.3825 -1.73005 0 12.7819 0 0)
(105.785 -4.30256 0 12.6895 0 0)
(128.054 -7.25588 0 13.99 0 0)
(137.877 -13.1427 0 14.6678 0 0)
(170.884 -21.8228 0 21.2448 0 0)
(191.402 -33.0141 0 24.5929 0 0)
(210.982 -55.8631 0 51.5704 0 0)
(265.557 -145.61 0 130.633 0 0)
(2.24149 0.721978 0 21.5447 0 0)
(5.53902 0.940993 0 22.1608 0 0)
(9.19486 1.76515 0 21.3864 0 0)
(16.3337 2.07929 0 21.1984 0 0)
(23.9647 2.45275 0 20.7995 0 0)
(33.3524 2.54603 0 20.5661 0 0)
(43.5968 2.27889 0 20.0973 0 0)
(54.0297 1.93318 0 19.8669 0 0)
(66.4603 0.903934 0 19.4481 0 0)
(77.3316 -0.211251 0 19.2951 0 0)
(92.4784 -2.36237 0 19.2338 0 0)
(103.457 -4.81338 0 19.2762 0 0)
(123.584 -8.96831 0 20.4829 0 0)
(133.869 -14.2467 0 21.4603 0 0)
(161.454 -24.3833 0 28.5156 0 0)
(169.288 -32.3851 0 32.0517 0 0)
(203.321 -58.9734 0 56.8581 0 0)
(190.13 -108.699 0 114.116 0 0)
(1.42038 0.598875 0 29.7714 0 0)
(4.31577 1.13477 0 30.6572 0 0)
(8.57673 1.9255 0 29.5093 0 0)
(15.2445 2.47478 0 29.338 0 0)
(23.1966 2.78038 0 28.6923 0 0)
(32.2536 2.96691 0 28.4311 0 0)
(42.403 2.60297 0 27.6786 0 0)
(52.7694 2.19649 0 27.3978 0 0)
(64.4019 1.01398 0 26.6729 0 0)
(75.5852 -0.355655 0 26.5074 0 0)
(88.6069 -2.74311 0 26.1223 0 0)
(100.391 -5.72447 0 26.3463 0 0)
(115.487 -10.3088 0 27.0993 0 0)
(128.025 -15.7841 0 28.6132 0 0)
(144.575 -26.4709 0 33.9197 0 0)
(151.953 -33.4345 0 37.4835 0 0)
(180.248 -54.8508 0 53.1747 0 0)
(139.5 -71.2479 0 83.683 0 0)
(1.00145 0.521337 0 38.5474 0 0)
(3.77034 1.2879 0 39.7424 0 0)
(8.17114 2.03723 0 38.2041 0 0)
(14.7193 2.78181 0 38.0629 0 0)
(22.6378 3.00868 0 37.1523 0 0)
(31.5735 3.31947 0 36.8772 0 0)
(41.484 2.80974 0 35.8251 0 0)
(51.7547 2.47868 0 35.5064 0 0)
(62.8008 1.04517 0 34.4962 0 0)
(73.8148 -0.273767 0 34.296 0 0)
(85.6197 -3.03689 0 33.6631 0 0)
(96.9783 -5.89306 0 33.9224 0 0)
(109.288 -10.9355 0 34.4278 0 0)
(121.165 -16.0233 0 36.1465 0 0)
(131.152 -25.5417 0 40.0217 0 0)
(138.079 -33.1806 0 44.7528 0 0)
(149.903 -47.2794 0 52.4667 0 0)
(123.147 -58.7021 0 73.1212 0 0)
(0.606886 0.48471 0 49.7402 0 0)
(3.22905 1.44676 0 51.3294 0 0)
(7.73507 2.18818 0 49.2314 0 0)
(14.1904 3.03858 0 49.1441 0 0)
(21.9805 3.27671 0 47.854 0 0)
(30.8359 3.58357 0 47.5746 0 0)
(40.4542 3.06974 0 46.1121 0 0)
(50.5853 2.64249 0 45.7432 0 0)
(61.1016 1.16809 0 44.3222 0 0)
(71.7655 -0.28554 0 44.0781 0 0)
(82.6382 -3.13358 0 43.0317 0 0)
(93.1771 -6.02806 0 43.3498 0 0)
(103.806 -11.0807 0 43.3465 0 0)
(113.669 -15.829 0 45.2022 0 0)
(121.267 -24.4846 0 47.6994 0 0)
(125.706 -30.5431 0 51.9691 0 0)
(129.033 -40.6817 0 56.4833 0 0)
(115.96 -48.3474 0 69.0418 0 0)
(0.432481 0.516535 0 63.9425 0 0)
(2.97627 1.62889 0 65.999 0 0)
(7.46596 2.38554 0 63.3053 0 0)
(13.8389 3.31353 0 63.1938 0 0)
(21.4816 3.57336 0 61.5587 0 0)
(30.1751 3.8638 0 61.1442 0 0)
(39.528 3.36112 0 59.3347 0 0)
(49.3609 2.82409 0 58.7395 0 0)
(59.4234 1.3754 0 57.0169 0 0)
(69.5205 -0.260664 0 56.4984 0 0)
(79.6078 -2.97421 0 55.1933 0 0)
(89.1371 -6.07236 0 55.2479 0 0)
(98.4458 -10.5418 0 54.8984 0 0)
(106.319 -15.4016 0 56.4444 0 0)
(112.477 -22.1117 0 57.8833 0 0)
(115.01 -28.0239 0 61.6114 0 0)
(115.953 -35.1639 0 64.5727 0 0)
(109.511 -40.7578 0 71.465 0 0)
(0.355863 0.541051 0 81.4455 0 0)
(2.82992 1.74659 0 84.1327 0 0)
(7.25828 2.55714 0 80.6627 0 0)
(13.5096 3.50469 0 80.5537 0 0)
(20.9785 3.81269 0 78.4658 0 0)
(29.452 4.04118 0 77.9126 0 0)
(38.503 3.56526 0 75.6217 0 0)
(47.9661 2.92463 0 74.7964 0 0)
(57.5121 1.48674 0 72.6023 0 0)
(66.9979 -0.216226 0 71.8141 0 0)
(76.2031 -2.86465 0 70.0562 0 0)
(84.7825 -5.84784 0 69.7952 0 0)
(92.6814 -9.94976 0 68.9567 0 0)
(99.1062 -14.2755 0 69.9079 0 0)
(103.815 -19.7183 0 70.5468 0 0)
(105.759 -24.6284 0 73.0481 0 0)
(105.913 -29.7896 0 74.9873 0 0)
(101.672 -33.2711 0 78.6381 0 0)
(0.329099 0.569577 0 102.535 0 0)
(2.7348 1.80835 0 105.747 0 0)
(7.06539 2.6853 0 101.719 0 0)
(13.1485 3.58643 0 101.25 0 0)
(20.4222 3.93702 0 98.9838 0 0)
(28.6007 4.05879 0 97.9037 0 0)
(37.3274 3.61967 0 95.3873 0 0)
(46.3207 2.83875 0 93.9368 0 0)
(55.342 1.48001 0 91.4982 0 0)
(64.1155 -0.335515 0 90.0455 0 0)
(72.4873 -2.75176 0 88.0162 0 0)
(80.0707 -5.68082 0 87.0398 0 0)
(86.7859 -9.18854 0 85.825 0 0)
(92.0426 -13.0751 0 85.8292 0 0)
(95.7406 -17.2901 0 85.776 0 0)
(97.3242 -21.3542 0 86.9142 0 0)
(97.4264 -25.196 0 87.9383 0 0)
(94.6246 -27.6488 0 89.5386 0 0)
(0.31354 0.573853 0 126.544 0 0)
(2.63956 1.77555 0 130.476 0 0)
(6.84467 2.66976 0 125.763 0 0)
(12.7245 3.46621 0 124.953 0 0)
(19.7561 3.79484 0 122.42 0 0)
(27.6009 3.80978 0 120.843 0 0)
(35.9359 3.33723 0 117.958 0 0)
(44.4387 2.49149 0 115.923 0 0)
(52.8686 1.13792 0 113.06 0 0)
(60.9554 -0.623872 0 110.967 0 0)
(68.4978 -2.89019 0 108.474 0 0)
(75.2155 -5.52027 0 106.744 0 0)
(80.9483 -8.57341 0 104.973 0 0)
(85.3937 -11.7948 0 103.965 0 0)
(88.4363 -15.1553 0 103.13 0 0)
(89.8726 -18.3209 0 102.953 0 0)
(90.1749 -21.238 0 102.962 0 0)
(88.2133 -22.8831 0 103.111 0 0)
(0.299155 0.525386 0 151.974 0 0)
(2.53163 1.58316 0 156.479 0 0)
(6.58058 2.37962 0 151.347 0 0)
(12.2268 2.99069 0 149.907 0 0)
(18.9633 3.21514 0 147.347 0 0)
(26.4368 3.07412 0 145.033 0 0)
(34.3313 2.53477 0 141.942 0 0)
(42.3143 1.60388 0 139.133 0 0)
(50.1448 0.275849 0 135.932 0 0)
(57.558 -1.42757 0 133.052 0 0)
(64.3652 -3.48777 0 130.098 0 0)
(70.339 -5.82374 0 127.522 0 0)
(75.3487 -8.39889 0 125.116 0 0)
(79.2322 -11.0492 0 123.11 0 0)
(81.928 -13.6855 0 121.393 0 0)
(83.3446 -16.1487 0 120.05 0 0)
(83.9269 -18.3459 0 118.957 0 0)
(82.7205 -19.3906 0 117.842 0 0)
(0.28385 0.394616 0 175.21 0 0)
(2.41324 1.14667 0 180.414 0 0)
(6.28044 1.6723 0 174.802 0 0)
(11.6652 2.00537 0 172.919 0 0)
(18.0681 2.00339 0 170.236 0 0)
(25.1434 1.66745 0 167.383 0 0)
(32.5703 0.987799 0 163.994 0 0)
(40.0334 -0.0201064 0 160.595 0 0)
(47.2858 -1.35332 0 156.975 0 0)
(54.0942 -2.96398 0 153.458 0 0)
(60.2809 -4.83097 0 149.968 0 0)
(65.6818 -6.86042 0 146.673 0 0)
(70.1921 -9.01328 0 143.573 0 0)
(73.7389 -11.1599 0 140.714 0 0)
(76.2925 -13.2224 0 138.12 0 0)
(77.8173 -15.1209 0 135.791 0 0)
(78.699 -16.7675 0 133.676 0 0)
(78.1507 -17.364 0 131.473 0 0)
(0.268644 0.156688 0 190.33 0 0)
(2.29243 0.391827 0 196.007 0 0)
(5.96403 0.490244 0 190.109 0 0)
(11.0698 0.412291 0 187.965 0 0)
(17.1228 0.0762549 0 185.217 0 0)
(23.7905 -0.531504 0 182.045 0 0)
(30.7559 -1.4 0 178.464 0 0)
(37.7238 -2.52153 0 174.709 0 0)
(44.4581 -3.87042 0 170.794 0 0)
(50.7529 -5.40953 0 166.872 0 0)
(56.4553 -7.09545 0 162.977 0 0)
(61.4439 -8.86304 0 159.195 0 0)
(65.6431 -10.6579 0 155.555 0 0)
(69.0239 -12.402 0 152.09 0 0)
(71.5789 -14.0195 0 148.821 0 0)
(73.297 -15.4889 0 145.774 0 0)
(74.4914 -16.7245 0 142.878 0 0)
(74.5358 -17.0446 0 139.88 0 0)
(0.259002 -0.142401 0 190.302 0 0)
(2.19497 -0.53408 0 195.938 0 0)
(5.68752 -0.937376 0 190.103 0 0)
(10.5372 -1.49238 0 187.95 0 0)
(16.2747 -2.2126 0 185.245 0 0)
(22.5825 -3.11476 0 182.079 0 0)
(29.1526 -4.18797 0 178.524 0 0)
(35.7127 -5.42651 0 174.772 0 0)
(42.0401 -6.79987 0 170.844 0 0)
(47.9574 -8.27947 0 166.889 0 0)
(53.3284 -9.81852 0 162.913 0 0)
(58.0651 -11.3746 0 159.024 0 0)
(62.1064 -12.8947 0 155.209 0 0)
(65.4461 -14.3356 0 151.542 0 0)
(68.0832 -15.632 0 147.998 0 0)
(70.0229 -16.7911 0 144.657 0 0)
(71.4987 -17.7375 0 141.406 0 0)
(72.0323 -17.9415 0 138.073 0 0)
(0.255856 -0.396351 0 174.476 0 0)
(2.13587 -1.30653 0 179.431 0 0)
(5.49693 -2.12806 0 174.099 0 0)
(10.1569 -3.07654 0 172.105 0 0)
(15.661 -4.10496 0 169.623 0 0)
(21.7048 -5.23407 0 166.732 0 0)
(27.9913 -6.45677 0 163.478 0 0)
(34.2659 -7.76995 0 160.053 0 0)
(40.3188 -9.14517 0 156.446 0 0)
(45.9936 -10.5626 0 152.815 0 0)
(51.165 -11.9801 0 149.129 0 0)
(55.765 -13.3714 0 145.52 0 0)
(59.7401 -14.6914 0 141.935 0 0)
(63.0945 -15.9171 0 138.481 0 0)
(65.8262 -16.9969 0 135.095 0 0)
(67.9526 -17.9462 0 131.891 0 0)
(69.643 -18.7036 0 128.734 0 0)
(70.5396 -18.8907 0 125.532 0 0)
(0.257317 -0.54558 0 149.026 0 0)
(2.10815 -1.74787 0 152.987 0 0)
(5.38265 -2.82345 0 148.448 0 0)
(9.91506 -4.00694 0 146.73 0 0)
(15.2627 -5.21067 0 144.608 0 0)
(21.1297 -6.45965 0 142.154 0 0)
(27.2285 -7.74586 0 139.388 0 0)
(33.3173 -9.07116 0 136.482 0 0)
(39.1963 -10.4082 0 133.408 0 0)
(44.7221 -11.747 0 130.315 0 0)
(49.7794 -13.0493 0 127.157 0 0)
(54.309 -14.302 0 124.061 0 0)
(58.2646 -15.4657 0 120.965 0 0)
(61.652 -16.5315 0 117.975 0 0)
(64.4702 -17.4558 0 115.024 0 0)
(66.7413 -18.2577 0 112.224 0 0)
(68.5905 -18.8865 0 109.45 0 0)
(69.7501 -19.0957 0 106.657 0 0)
(0.260195 -0.601374 0 120.108 0 0)
(2.09928 -1.89007 0 123.079 0 0)
(5.31672 -3.06814 0 119.429 0 0)
(9.76382 -4.34123 0 118.035 0 0)
(15.0066 -5.59957 0 116.328 0 0)
(20.7562 -6.86926 0 114.363 0 0)
(26.7313 -8.14004 0 112.149 0 0)
(32.6995 -9.41728 0 109.822 0 0)
(38.4683 -10.6756 0 107.357 0 0)
(43.9025 -11.9119 0 104.871 0 0)
(48.8947 -13.0924 0 102.328 0 0)
(53.3903 -14.2125 0 99.8284 0 0)
(57.3482 -15.238 0 97.3224 0 0)
(60.7731 -16.1686 0 94.8957 0 0)
(63.6653 -16.9674 0 92.4962 0 0)
(66.0497 -17.6541 0 90.2115 0 0)
(68.021 -18.1877 0 87.9454 0 0)
(69.3793 -18.423 0 85.6689 0 0)
(0.263146 -0.590586 0 91.9417 0 0)
(2.09897 -1.83028 0 94.0585 0 0)
(5.27903 -2.99707 0 91.2661 0 0)
(9.66933 -4.24757 0 90.1921 0 0)
(14.8417 -5.4679 0 88.8923 0 0)
(20.5127 -6.68049 0 87.3969 0 0)
(26.4062 -7.87489 0 85.7156 0 0)
(32.2956 -9.0561 0 83.9429 0 0)
(37.9943 -10.2034 0 82.0663 0 0)
(43.3724 -11.3155 0 80.1684 0 0)
(48.3281 -12.3656 0 78.2266 0 0)
(52.8093 -13.3518 0 76.3111 0 0)
(56.7785 -14.2469 0 74.3921 0 0)
(60.2388 -15.0533 0 72.5278 0 0)
(63.1919 -15.7429 0 70.6855 0 0)
(65.6648 -16.3307 0 68.9245 0 0)
(67.7305 -16.7875 0 67.1808 0 0)
(69.2416 -17.0369 0 65.4269 0 0)
(0.266228 -0.536763 0 66.974 0 0)
(2.10284 -1.65104 0 68.4153 0 0)
(5.25778 -2.73095 0 66.3825 0 0)
(9.61038 -3.88391 0 65.5993 0 0)
(14.7355 -5.00354 0 64.6608 0 0)
(20.3542 -6.10573 0 63.5785 0 0)
(26.1942 -7.18245 0 62.3638 0 0)
(32.0326 -8.23559 0 61.0775 0 0)
(37.6874 -9.25035 0 59.718 0 0)
(43.0319 -10.2242 0 58.3376 0 0)
(47.9687 -11.1381 0 56.9279 0 0)
(52.4468 -11.9894 0 55.5326 0 0)
(56.431 -12.7588 0 54.1379 0 0)
(59.9233 -13.448 0 52.7785 0 0)
(62.9265 -14.0374 0 51.4377 0 0)
(65.4685 -14.5363 0 50.1512 0 0)
(67.6066 -14.9263 0 48.8808 0 0)
(69.2355 -15.174 0 47.599 0 0)
(0.268063 -0.462886 0 46.3176 0 0)
(2.10728 -1.41604 0 47.257 0 0)
(5.24599 -2.36398 0 45.8555 0 0)
(9.57365 -3.3754 0 45.3172 0 0)
(14.6672 -4.35657 0 44.6758 0 0)
(20.2513 -5.31688 0 43.9317 0 0)
(26.0567 -6.25132 0 43.0973 0 0)
(31.8628 -7.15818 0 42.2096 0 0)
(37.4909 -8.02853 0 41.2737 0 0)
(42.8162 -8.85769 0 40.3201 0 0)
(47.7438 -9.63341 0 39.3497 0 0)
(52.2239 -10.3517 0 38.3866 0 0)
(56.2226 -11.0002 0 37.4266 0 0)
(59.7409 -11.5783 0 36.4881 0 0)
(62.782 -12.0739 0 35.5644 0 0)
(65.3748 -12.4907 0 34.6748 0 0)
(67.5649 -12.8188 0 33.7994 0 0)
(69.2798 -13.0492 0 32.9128 0 0)
(0.269238 -0.383097 0 30.1763 0 0)
(2.11085 -1.16476 0 30.761 0 0)
(5.23929 -1.95849 0 29.8503 0 0)
(9.55026 -2.80758 0 29.503 0 0)
(14.6225 -3.63133 0 29.0907 0 0)
(20.1834 -4.43594 0 28.6099 0 0)
(25.9658 -5.21763 0 28.0705 0 0)
(31.7498 -5.9734 0 27.4946 0 0)
(37.3591 -6.69673 0 26.8883 0 0)
(42.6698 -7.38287 0 26.2696 0 0)
(47.589 -8.02328 0 25.6413 0 0)
(52.0665 -8.61381 0 25.0166 0 0)
(56.0706 -9.14652 0 24.3953 0 0)
(59.6011 -9.61949 0 23.7864 0 0)
(62.6619 -10.0252 0 23.188 0 0)
(65.2805 -10.364 0 22.6099 0 0)
(67.4975 -10.6312 0 22.0426 0 0)
(69.2654 -10.8289 0 21.4667 0 0)
(0.269559 -0.304622 0 18.2227 0 0)
(2.11264 -0.91986 0 18.5671 0 0)
(5.23395 -1.55426 0 18.0161 0 0)
(9.53089 -2.23727 0 17.81 0 0)
(14.5841 -2.90152 0 17.5668 0 0)
(20.123 -3.5516 0 17.2822 0 0)
(25.881 -4.18277 0 16.9619 0 0)
(31.6394 -4.7917 0 16.6188 0 0)
(37.223 -5.37186 0 16.2569 0 0)
(42.5085 -5.91977 0 15.8867 0 0)
(47.4052 -6.42815 0 15.5099 0 0)
(51.8617 -6.89465 0 15.1346 0 0)
(55.85 -7.31244 0 14.7609 0 0)
(59.3677 -7.68125 0 14.394 0 0)
(62.4233 -7.99526 0 14.0333 0 0)
(65.0392 -8.25506 0 13.6842 0 0)
(67.2594 -8.45983 0 13.342 0 0)
(69.0548 -8.61028 0 12.995 0 0)
(0.269211 -0.228283 0 9.88807 0 0)
(2.1104 -0.691304 0 10.0717 0 0)
(5.21673 -1.17876 0 9.77434 0 0)
(9.48742 -1.70857 0 9.67194 0 0)
(14.5104 -2.22307 0 9.5475 0 0)
(20.0159 -2.72356 0 9.39825 0 0)
(25.737 -3.20572 0 9.22752 0 0)
(31.4575 -3.66707 0 9.04323 0 0)
(37.002 -4.10185 0 8.8474 0 0)
(42.2503 -4.5085 0 8.64632 0 0)
(47.1111 -4.88144 0 8.44059 0 0)
(51.5375 -5.22083 0 8.23537 0 0)
(55.5006 -5.52086 0 8.0301 0 0)
(59.0021 -5.78375 0 7.82876 0 0)
(62.0495 -6.00338 0 7.63038 0 0)
(64.6645 -6.18332 0 7.43897 0 0)
(66.8884 -6.3265 0 7.2521 0 0)
(68.7172 -6.4286 0 7.06381 0 0)
(0.268078 -0.154813 0 4.4887 0 0)
(2.08352 -0.497889 0 4.58436 0 0)
(5.15543 -0.852421 0 4.4591 0 0)
(9.38659 -1.22885 0 4.42346 0 0)
(14.384 -1.58595 0 4.37237 0 0)
(19.864 -1.92831 0 4.30793 0 0)
(25.5585 -2.2533 0 4.23059 0 0)
(31.2531 -2.55867 0 4.14407 0 0)
(36.7747 -2.84284 0 4.051 0 0)
(42.0023 -3.10697 0 3.95514 0 0)
(46.8464 -3.34815 0 3.85729 0 0)
(51.2636 -3.56726 0 3.76015 0 0)
(55.2208 -3.76054 0 3.66322 0 0)
(58.7283 -3.93005 0 3.56919 0 0)
(61.7823 -4.06969 0 3.47648 0 0)
(64.4161 -4.18477 0 3.38897 0 0)
(66.6372 -4.27529 0 3.30368 0 0)
(68.4942 -4.34537 0 3.21944 0 0)
(0.255156 -0.0881921 0 1.42184 0 0)
(2.06748 -0.313448 0 1.48759 0 0)
(5.20375 -0.526006 0 1.44752 0 0)
(9.49333 -0.734399 0 1.43436 0 0)
(14.5442 -0.924515 0 1.41425 0 0)
(20.0754 -1.10714 0 1.39097 0 0)
(25.8261 -1.28378 0 1.36432 0 0)
(31.5797 -1.45189 0 1.33498 0 0)
(37.1626 -1.60983 0 1.30398 0 0)
(42.4492 -1.75741 0 1.27236 0 0)
(47.3527 -1.89314 0 1.24053 0 0)
(51.8222 -2.01702 0 1.2091 0 0)
(55.8292 -2.12705 0 1.17804 0 0)
(59.3763 -2.22387 0 1.14806 0 0)
(62.4635 -2.3034 0 1.11878 0 0)
(65.1288 -2.36963 0 1.09228 0 0)
(67.3496 -2.42226 0 1.06705 0 0)
(69.1986 -2.46177 0 1.04009 0 0)
(0.24584 -0.0253286 0 0.141928 0 0)
(2.06532 -0.0978164 0 0.153713 0 0)
(5.18269 -0.16556 0 0.150926 0 0)
(9.4415 -0.23081 0 0.149758 0 0)
(14.4737 -0.293711 0 0.147456 0 0)
(19.9923 -0.354038 0 0.144727 0 0)
(25.7365 -0.412855 0 0.141727 0 0)
(31.4878 -0.469347 0 0.138595 0 0)
(37.0779 -0.522688 0 0.135371 0 0)
(42.3826 -0.572692 0 0.132119 0 0)
(47.3165 -0.61905 0 0.12886 0 0)
(51.8269 -0.661733 0 0.125657 0 0)
(55.8873 -0.700173 0 0.122512 0 0)
(59.4931 -0.734223 0 0.119487 0 0)
(62.6505 -0.763152 0 0.11666 0 0)
(65.3926 -0.788401 0 0.114321 0 0)
(67.7035 -0.806629 0 0.112245 0 0)
(69.6301 -0.81595 0 0.111859 0 0)
(0.0244843 0.0357814 0 0.717914 0 0)
(0.26731 0.0991609 0 0.678949 0 0)
(0.785659 0.181008 0 0.671773 0 0)
(1.53932 0.295136 0 0.662528 0 0)
(2.48649 0.424243 0 0.660919 0 0)
(3.60892 0.56916 0 0.65765 0 0)
(4.88468 0.7163 -2.38559e-19 0.655697 -6.49136e-20 1.4795e-37)
(6.31092 0.867271 2.42513e-19 0.6514 6.92242e-20 1.48402e-37)
(7.88099 1.01426 0 0.645392 0 0)
(9.59292 1.1617 2.44802e-19 0.637817 6.86424e-20 1.46178e-37)
(11.4415 1.30574 0 0.629227 0 0)
(13.4208 1.44862 0 0.620121 0 0)
(15.5243 1.58574 0 0.612153 0 0)
(17.7455 1.71743 -2.77135e-19 0.605676 -5.17256e-20 1.348e-37)
(20.0783 1.84054 0 0.599451 0 0)
(22.5232 1.95411 0 0.594203 0 0)
(25.0802 2.05398 3.4026e-19 0.589879 3.90293e-20 1.22129e-37)
(27.748 2.14181 0 0.585407 0 0)
(30.5214 2.22033 0 0.580731 0 0)
(33.3945 2.29182 0 0.576269 0 0)
(36.3516 2.35522 -4.56123e-19 0.572924 -1.96019e-20 1.01803e-37)
(39.383 2.41114 0 0.569176 0 0)
(42.4749 2.45765 -5.15854e-19 0.566904 -1.03133e-20 9.25482e-38)
(45.6184 2.49468 0 0.568066 0 0)
(48.7972 2.52847 0 0.568763 0 0)
(51.9971 2.55168 -6.03928e-19 0.570888 1.1673e-21 7.97881e-38)
(55.211 2.55406 0 0.572731 0 0)
(58.4434 2.53679 6.57516e-19 0.571255 -6.89319e-21 7.21776e-38)
(61.6882 2.50584 0 0.563448 0 0)
(64.9514 2.46305 -7.02257e-19 0.553089 1.04711e-20 6.54126e-38)
(68.2316 2.41105 0 0.539561 0 0)
(71.5163 2.35231 0 0.52375 0 0)
(74.798 2.28676 0 0.509708 0 0)
(78.0781 2.21063 0 0.498321 0 0)
(81.3505 2.12334 0 0.486764 0 0)
(84.6119 2.0278 7.79457e-19 0.475856 -1.40066e-20 4.60072e-38)
(87.8609 1.92388 0 0.464225 0 0)
(91.0986 1.81141 -1.56209e-18 0.448172 2.71688e-20 1.61415e-37)
(94.3234 1.69201 0 0.432567 0 0)
(97.5305 1.56453 1.55212e-18 0.41792 -2.61892e-20 1.40003e-37)
(100.713 1.43146 0 0.402766 0 0)
(103.87 1.28917 0 0.3911 0 0)
(106.993 1.13864 -1.51415e-18 0.378535 2.15807e-20 1.11305e-37)
(110.063 0.985867 0 0.365715 0 0)
(113.067 0.831118 -1.47567e-18 0.354902 1.82743e-20 9.4371e-38)
(115.988 0.673261 1.45323e-18 0.346042 -1.65396e-20 8.66788e-38)
(118.812 0.509595 0 0.339921 0 0)
(121.53 0.339739 1.40245e-18 0.335145 -1.25141e-20 7.34674e-38)
(124.125 0.16443 1.37425e-18 0.331251 -1.06479e-20 6.80056e-38)
(126.599 -0.0133712 0 0.327997 0 0)
(128.936 -0.192606 0 0.325863 0 0)
(131.119 -0.376104 0 0.323178 0 0)
(133.125 -0.564599 0 0.321966 0 0)
(134.935 -0.755391 0 0.324008 0 0)
(136.523 -0.94519 -1.17396e-18 0.328217 -4.39182e-21 5.02075e-38)
(137.859 -1.13648 0 0.332315 0 0)
(138.932 -1.33262 1.07934e-18 0.335982 1.14554e-20 4.75541e-38)
(139.746 -1.53536 0 0.341184 0 0)
(140.296 -1.74415 0 0.347968 0 0)
(140.566 -1.94996 -9.11676e-19 0.357293 -2.2464e-20 4.75495e-38)
(140.55 -2.15397 0 0.369281 0 0)
(140.232 -2.35889 7.80274e-19 0.381286 3.12465e-20 4.97126e-38)
(139.619 -2.56264 0 0.391574 0 0)
(138.704 -2.76632 0 0.404367 0 0)
(137.499 -2.96917 0 0.418534 0 0)
(136.016 -3.16477 -4.81908e-19 0.432936 -4.76019e-20 6.03584e-38)
(134.257 -3.35379 0 0.447654 0 0)
(132.235 -3.53647 0 0.460726 0 0)
(129.964 -3.71182 -2.26139e-19 0.474376 -6.11919e-20 7.30533e-38)
(127.464 -3.88493 0 0.489444 0 0)
(124.771 -4.05075 -5.05523e-20 0.504612 -6.98413e-20 8.30345e-38)
(121.896 -4.20414 0 0.520056 0 0)
(118.857 -4.34541 0 0.536053 0 0)
(115.685 -4.47602 0 0.5532 0 0)
(112.401 -4.59739 -3.05199e-19 0.571348 8.3199e-20 1.0454e-37)
(109.026 -4.70675 0 0.589432 0 0)
(105.576 -4.80069 0 0.607387 0 0)
(102.061 -4.87945 -5.64484e-19 0.625483 9.03271e-20 1.20174e-37)
(98.4958 -4.94746 -6.46252e-19 0.644251 9.18702e-20 1.2529e-37)
(94.9066 -5.00438 0 0.663037 0 0)
(91.3245 -5.04939 -7.99202e-19 0.682737 9.46446e-20 1.34715e-37)
(87.7706 -5.08331 0 0.703928 0 0)
(84.2656 -5.10545 -1.87801e-18 0.725503 1.92589e-19 5.74483e-37)
(80.8238 -5.11477 0 0.748159 0 0)
(77.4632 -5.1096 -2.1231e-18 0.770727 1.93717e-19 6.07615e-37)
(74.2018 -5.0881 0 0.793666 0 0)
(71.0537 -5.0535 2.32583e-18 0.819634 -1.93856e-19 6.36583e-37)
(68.0363 -5.00559 0 0.844671 0 0)
(65.1639 -4.93912 0 0.866988 0 0)
(62.4361 -4.85393 0 0.889694 0 0)
(59.8575 -4.75188 -2.58644e-18 0.914702 1.86176e-19 6.79881e-37)
(57.4337 -4.6355 0 0.93931 0 0)
(55.1732 -4.50292 2.64697e-18 0.963519 -1.79913e-19 6.94605e-37)
(53.0783 -4.35377 0 0.987209 0 0)
(51.1376 -4.18241 -2.65877e-18 1.01075 1.7362e-19 7.03396e-37)
(49.3464 -3.99465 -2.64961e-18 1.03201 1.70406e-19 7.06884e-37)
(47.6925 -3.79417 -2.63076e-18 1.0532 1.66262e-19 7.09539e-37)
(46.171 -3.58455 0 1.07557 0 0)
(44.7555 -3.36498 0 1.09868 0 0)
(43.4575 -3.13657 0 1.11825 0 0)
(42.2592 -2.89943 0 1.13805 0 0)
(41.1551 -2.66027 0 1.15781 0 0)
(40.1274 -2.4206 0 1.17684 0 0)
(39.174 -2.17826 0 1.19195 0 0)
(38.2463 -1.93503 0 1.20787 0 0)
(37.3472 -1.69823 2.02501e-18 1.22296 -1.31466e-19 7.07437e-37)
(36.4376 -1.4699 1.91073e-18 1.24019 -1.24193e-19 7.06674e-37)
(35.5461 -1.25089 0 1.25161 0 0)
(34.6331 -1.04031 0 1.26462 0 0)
(33.7136 -0.853509 0 1.2786 0 0)
(32.7311 -0.677085 1.35422e-18 1.29162 -1.04831e-19 6.90594e-37)
(31.7893 -0.52725 0 1.29895 0 0)
(30.7812 -0.38522 0 1.30872 0 0)
(29.8274 -0.28283 0 1.31886 0 0)
(28.9053 -0.199807 0 1.3319 0 0)
(28.0813 -0.149667 -4.402e-19 1.34024 7.56225e-20 6.65692e-37)
(27.388 -0.123385 0 1.34934 0 0)
(26.8537 -0.131896 0 1.36274 0 0)
(26.5623 -0.173924 -2.22747e-19 1.37033 -6.50684e-20 6.41987e-37)
(26.5121 -0.242624 4.50104e-19 1.38336 6.09855e-20 6.29575e-37)
(26.7596 -0.352458 0 1.40029 0 0)
(27.3578 -0.50896 9.124e-19 1.41751 6.00536e-20 6.04996e-37)
(28.3717 -0.705572 0 1.43664 0 0)
(29.8635 -0.957682 -1.35341e-18 1.4543 -6.45729e-20 5.75396e-37)
(31.8542 -1.24367 0 1.47703 0 0)
(34.4178 -1.57949 0 1.50404 0 0)
(37.4531 -1.95752 0 1.53676 0 0)
(41.0707 -2.38613 0 1.57101 0 0)
(45.1233 -2.84078 0 1.60903 0 0)
(49.6159 -3.34192 4.89748e-18 1.6512 2.04541e-19 1.97167e-36)
(54.4839 -3.88706 5.15256e-18 1.6973 2.30474e-19 1.93686e-36)
(59.7462 -4.46786 0 1.74538 0 0)
(65.2042 -5.06915 0 1.80134 0 0)
(70.8189 -5.69572 0 1.85655 0 0)
(76.4409 -6.308 -5.69295e-18 1.91746 -3.52101e-19 1.91682e-36)
(81.8422 -6.9218 0 1.98863 0 0)
(86.986 -7.54294 0 2.06082 0 0)
(91.815 -8.15711 0 2.13729 0 0)
(96.2535 -8.74974 -5.33107e-18 2.21559 -5.33286e-19 2.0709e-36)
(100.283 -9.31651 5.09737e-18 2.29905 5.81957e-19 2.13268e-36)
(103.694 -9.83847 0 2.38983 0 0)
(106.601 -10.348 0 2.48263 0 0)
(108.972 -10.8016 4.0788e-18 2.57719 7.34993e-19 2.36466e-36)
(110.812 -11.2211 3.64981e-18 2.67059 7.83836e-19 2.44992e-36)
(111.969 -11.5653 0 2.77088 0 0)
(112.543 -11.8807 0 2.87082 0 0)
(112.427 -12.1232 -2.05242e-18 2.9748 -9.45308e-19 2.71776e-36)
(111.753 -12.3478 1.42293e-18 3.06981 9.88913e-19 2.79645e-36)
(110.564 -12.502 0 3.16661 0 0)
(108.66 -12.6021 0 3.26725 0 0)
(106.161 -12.636 -5.21304e-19 3.35815 1.11677e-18 3.06704e-36)
(103.03 -12.6159 0 3.44863 0 0)
(99.5507 -12.5583 0 3.53224 0 0)
(95.5636 -12.4097 -2.54799e-18 3.60472 1.20573e-18 3.29951e-36)
(91.2639 -12.1894 0 3.67674 0 0)
(86.6416 -11.8582 -3.83162e-18 3.73825 1.2567e-18 3.44246e-36)
(81.7551 -11.4421 0 3.79401 0 0)
(76.6481 -10.9078 0 3.83317 0 0)
(71.7061 -10.2753 0 3.85729 0 0)
(66.8213 -9.47786 5.87087e-18 3.87608 -1.27747e-18 3.68072e-36)
(62.159 -8.5609 0 3.87969 0 0)
(57.9349 -7.49182 0 3.86759 0 0)
(54.4728 -6.30289 0 3.83974 0 0)
(51.6097 -4.92525 0 3.79776 0 0)
(49.5155 -3.46647 0 3.74712 0 0)
(48.7905 -1.91288 0 3.6752 0 0)
(49.6246 -0.289596 6.02021e-18 3.58557 -1.10397e-18 3.72632e-36)
(51.6773 1.42343 5.60445e-18 3.48733 -1.04978e-18 3.70893e-36)
(55.3756 3.11529 0 3.3758 0 0)
(60.6284 4.74164 0 3.2579 0 0)
(67.4324 6.32154 0 3.12842 0 0)
(75.3648 7.79484 -3.0513e-18 2.99873 7.95038e-19 3.38314e-36)
(84.491 9.09598 0 2.87053 0 0)
(94.0497 10.2841 2.9466e-18 2.7355 -1.35035e-18 1.23609e-35)
(103.938 11.2415 -1.30872e-18 2.60476 1.21754e-18 1.16598e-35)
(113.576 12.0321 3.1879e-19 2.47351 1.10502e-18 1.10179e-35)
(123.231 12.6828 -2.02177e-18 2.34874 -1.01422e-18 1.0333e-35)
(131.352 13.2241 3.67385e-18 2.22979 9.22802e-19 9.75876e-36)
(139.228 13.7015 -5.27842e-18 2.12252 -9.03488e-19 8.99464e-36)
(142.98 14.3945 0 2.0666 0 0)
(0.018312 0.174298 0 6.10135 0 0)
(0.202769 0.388058 0 6.03927 0 0)
(0.629639 0.610052 1.31885e-19 5.86629 1.75828e-19 6.76813e-37)
(1.32738 0.85465 0 5.74526 0 0)
(2.26975 1.13406 -1.92544e-19 5.6853 -3.53687e-19 9.20003e-37)
(3.44622 1.43896 -1.84102e-19 5.65809 -4.41704e-19 9.73171e-37)
(4.83567 1.76367 -8.07081e-20 5.6427 -2.51613e-19 2.49137e-37)
(6.42379 2.10424 -6.89115e-20 5.62469 -2.70562e-19 2.61395e-37)
(8.20272 2.45343 0 5.59633 0 0)
(10.1705 2.80671 -4.19812e-20 5.55372 -2.69398e-19 2.59542e-37)
(12.3284 3.15527 0 5.50185 0 0)
(14.6747 3.49675 0 5.44222 0 0)
(17.2009 3.82605 9.42164e-20 5.37387 4.24114e-19 9.51572e-37)
(19.9077 4.14272 6.9265e-20 5.30188 1.87046e-19 2.34239e-37)
(22.7845 4.43716 -1.84931e-19 5.22653 -3.26512e-19 8.94033e-37)
(25.8253 4.7094 -2.51139e-19 5.14812 -2.81477e-19 8.66274e-37)
(29.0186 4.96081 -1.70896e-19 5.0636 -1.1857e-19 2.12831e-37)
(32.3581 5.19275 0 4.97273 0 0)
(35.832 5.40363 0 4.87693 0 0)
(39.4319 5.59796 0 4.77412 0 0)
(43.1342 5.77503 -3.86301e-19 4.66906 -3.68137e-20 1.80451e-37)
(46.9299 5.93215 0 4.56437 0 0)
(50.7962 6.06088 1.60772e-18 4.45766 -1.58159e-20 1.55221e-36)
(54.7206 6.1648 0 4.35453 0 0)
(58.6866 6.24546 0 4.2492 0 0)
(62.6769 6.30295 7.74274e-19 4.1449 -5.75411e-20 1.56535e-37)
(66.6641 6.33399 0 4.03892 0 0)
(70.6293 6.34793 -9.32436e-19 3.93831 8.16806e-20 1.46029e-37)
(74.539 6.33846 -1.99254e-18 3.83834 1.81352e-19 5.57218e-37)
(78.3831 6.30049 1.07656e-18 3.73561 -9.86621e-20 1.36653e-37)
(82.1576 6.23104 0 3.62779 0 0)
(85.8625 6.13373 0 3.52244 0 0)
(89.4841 6.01107 0 3.41904 0 0)
(93.0264 5.86414 -2.57577e-18 3.31081 2.22657e-19 4.71485e-37)
(96.481 5.68747 -2.6541e-18 3.20324 2.20159e-19 4.55318e-37)
(99.8615 5.48135 -1.37326e-18 3.10213 1.07495e-19 1.10796e-37)
(103.176 5.2441 0 3.01008 0 0)
(106.418 4.97075 2.83736e-18 2.92184 -2.02787e-19 4.12968e-37)
(109.596 4.65926 0 2.83653 0 0)
(112.704 4.31895 -2.87411e-18 2.7549 1.88209e-19 3.81716e-37)
(115.749 3.95093 0 2.67447 0 0)
(118.727 3.56304 0 2.60226 0 0)
(121.645 3.15922 2.82727e-18 2.53127 -1.53923e-19 3.31827e-37)
(124.489 2.73653 0 2.4659 0 0)
(127.239 2.2884 8.15947e-18 2.4079 -3.93217e-19 2.68573e-36)
(129.893 1.81068 -2.68874e-18 2.36253 1.19166e-19 2.83837e-37)
(132.457 1.30771 0 2.33533 0 0)
(134.944 0.779603 -2.54918e-18 2.31948 9.09752e-20 2.51892e-37)
(137.34 0.218816 -2.46858e-18 2.31323 7.67498e-20 2.36323e-37)
(139.643 -0.368119 0 2.31555 0 0)
(141.831 -0.966615 0 2.32888 0 0)
(143.883 -1.56276 0 2.34384 0 0)
(145.785 -2.14711 0 2.35739 0 0)
(147.5 -2.72394 0 2.38098 0 0)
(149.017 -3.30228 1.88366e-18 2.41374 1.44479e-20 1.7219e-37)
(150.312 -3.88969 3.45174e-18 2.45707 7.1039e-20 6.5627e-37)
(151.367 -4.48089 -1.64467e-18 2.50822 -5.58709e-20 1.60199e-37)
(152.192 -5.09054 0 2.5644 0 0)
(152.76 -5.7017 2.68764e-18 2.62755 1.90202e-19 6.01821e-37)
(153.045 -6.29227 -1.17033e-18 2.69564 -1.13245e-19 1.46955e-37)
(153.072 -6.87774 0 2.77229 0 0)
(152.794 -7.45704 -9.78525e-19 2.86212 -1.48642e-19 1.49588e-37)
(152.221 -8.0144 0 2.95538 0 0)
(151.346 -8.5624 0 3.0567 0 0)
(150.166 -9.09198 -1.04796e-18 3.16284 -3.97076e-19 6.25889e-37)
(148.668 -9.59264 4.22754e-19 3.27367 2.15325e-19 1.63832e-37)
(146.891 -10.0856 -4.89242e-19 3.39395 -4.62381e-19 6.68739e-37)
(144.827 -10.5574 2.12002e-19 3.51845 4.89271e-19 6.92513e-37)
(142.504 -11.0047 1.00448e-20 3.64409 2.54543e-19 1.82773e-37)