/*--------------------------------*- C++ -*----------------------------------*\
| =========                 |                                                 |
| \\      /  F ield         | OpenFOAM: The Open Source CFD Toolbox           |
|  \\    /   O peration     | Version:  dev                                   |
|   \\  /    A nd           | Web:      http://www.openfoam.org               |
|    \\/     M anipulation  |                                                 |
\*---------------------------------------------------------------------------*/
FoamFile
{
    version     2.0;
    format      ascii;
    class       volScalarField;
    object      k;
    location    "9.155";
}
// * * * * * * * * * * * * * * * * * * * * * * * * * * * * * * * * * * * * * //

dimensions      [0 2 -2 0 0 0 0];

internalField   nonuniform List<scalar> 
12225
(
8.61044
11.594
8.13999
9.67266
6.55642
10.8043
7.50889
13.188
9.31409
16.3236
11.6919
19.6516
15.2614
21.523
20.6233
23.3655
26.3808
35.0109
1.70354
6.18044
5.19096
6.5853
4.72351
6.52852
4.7171
7.0601
5.30027
7.93145
6.32153
8.5429
8.17595
8.69355
11.6004
11.6551
15.7929
26.4903
0.147803
1.86019
1.98786
3.14138
2.79517
3.33074
3.0463
3.233
3.2162
3.02209
3.24671
2.65592
3.21752
2.1715
3.48129
2.12111
4.58916
6.60063
0.0123481
0.390119
0.530412
0.875977
1.21183
1.23335
1.60367
1.44195
1.84429
1.50741
1.78144
1.3092
1.52821
1.01405
1.39151
0.870819
1.95105
1.96357
0.00102158
0.0765676
0.128473
0.220519
0.424145
0.467542
0.651217
0.625132
0.749303
0.652763
0.782547
0.601002
0.726644
0.506894
0.691642
0.397683
0.872074
0.846946
0.00763997
0.0817512
0.096914
0.139891
0.199706
0.209395
0.255338
0.23731
0.283623
0.246862
0.313674
0.242258
0.314382
0.225748
0.324426
0.244321
0.494583
0.433954
0.00432615
0.0107195
0.0297506
0.0315633
0.0552792
0.0510874
0.0736881
0.0640196
0.0893358
0.0758071
0.109039
0.0878068
0.119943
0.100084
0.137742
0.120351
0.211399
0.257089
0.00108559
0.00137608
0.00618879
0.00618211
0.0141934
0.0133991
0.0222324
0.020082
0.0298661
0.0273094
0.0407183
0.0373652
0.0506691
0.0490144
0.0661695
0.0641456
0.0815894
0.11735
0.000322325
0.000409512
0.00146851
0.00164669
0.00423155
0.00452246
0.00825133
0.00869766
0.0133196
0.0146817
0.0212698
0.0235547
0.0307057
0.0336984
0.0406843
0.0539868
0.0607924
0.0685491
0.00015671
0.000363807
0.00090513
0.00112585
0.00182757
0.00250275
0.00442001
0.00626118
0.010421
0.0130014
0.0181753
0.023979
0.0279796
0.0336505
0.0389871
0.0505179
0.0556595
0.0619803
0.000202353
0.000687463
0.00103147
0.00127809
0.00176854
0.00297391
0.00444481
0.00811099
0.0109814
0.0180548
0.0218039
0.0310513
0.0351088
0.0438016
0.0492357
0.0576048
0.0615858
0.0659284
0.000641444
0.000874864
0.00117033
0.00160825
0.00239865
0.00451333
0.00647891
0.0119072
0.0160062
0.0271604
0.0345375
0.0502637
0.0604159
0.0715046
0.0777124
0.0829748
0.0867421
0.0872551
0.00111877
0.00125277
0.0014162
0.00209829
0.00366943
0.00803178
0.012045
0.0218692
0.0288301
0.0441897
0.0588532
0.0767539
0.0909607
0.102355
0.111031
0.116308
0.120422
0.121634
0.00152039
0.00170222
0.00208085
0.0036331
0.00688932
0.0149821
0.0221698
0.0376237
0.0554336
0.0771483
0.0985194
0.118897
0.135865
0.148582
0.157811
0.16323
0.167239
0.16831
0.00215551
0.00286378
0.0042097
0.00767877
0.0122406
0.0200692
0.0352598
0.063796
0.0973892
0.132427
0.16522
0.192698
0.2137
0.228147
0.237151
0.2421
0.244724
0.24515
0.00548797
0.00713179
0.00921616
0.0135444
0.0218696
0.0387801
0.0719148
0.11227
0.154196
0.19316
0.226113
0.251342
0.268527
0.27864
0.283749
0.28587
0.286494
0.286261
0.00732871
0.00951964
0.0120545
0.0170414
0.0265252
0.0468822
0.0859443
0.131224
0.176237
0.216371
0.248753
0.272391
0.287812
0.296311
0.300109
0.301401
0.301626
0.301365
0.00753096
0.00947788
0.0118345
0.0166416
0.0255337
0.0439778
0.0823901
0.128022
0.173519
0.214192
0.247034
0.270862
0.286382
0.294968
0.298771
0.300031
0.300252
0.30009
0.00585707
0.00728078
0.00867859
0.0119636
0.0190536
0.0335806
0.066661
0.108686
0.151238
0.189912
0.222048
0.246156
0.262427
0.271944
0.276507
0.278063
0.278423
0.278465
0.00393847
0.00508372
0.00640293
0.00896255
0.0129682
0.0202999
0.0364319
0.0669172
0.101319
0.134708
0.164014
0.187632
0.204354
0.215022
0.220695
0.222895
0.223476
0.223801
0.00229458
0.00311097
0.00422613
0.00592475
0.00845405
0.0131951
0.0236466
0.0395339
0.057709
0.076606
0.0944521
0.1101
0.12198
0.130254
0.135094
0.137181
0.13774
0.138101
0.00104083
0.00139721
0.00207201
0.0037238
0.00527667
0.00745529
0.0116987
0.0185204
0.0283214
0.040845
0.0543402
0.0666613
0.0760644
0.0820459
0.0852811
0.0865905
0.0868942
0.0869796
0.000398114
0.000555732
0.000814702
0.0016594
0.0035727
0.00476116
0.00595109
0.00797047
0.012367
0.0195168
0.0268697
0.0339469
0.0396916
0.0451692
0.0491169
0.0533363
0.0560455
0.0588849
0.000372852
0.000503425
0.000626457
0.000966745
0.00182056
0.00258617
0.00350078
0.0052565
0.00897256
0.0144883
0.0194485
0.0249223
0.0296698
0.0357419
0.0407091
0.0461195
0.0504795
0.0549357
0.000146737
0.00031741
0.000632212
0.00127248
0.00263408
0.00455523
0.00710256
0.0132011
0.0198231
0.0265651
0.030605
0.0362876
0.0423447
0.0518358
0.06037
0.0700932
0.0785249
0.0865776
8.93093e-05
0.00100662
0.00410609
0.0112566
0.0237716
0.0394038
0.0623552
0.0932069
0.113766
0.126309
0.1321
0.141483
0.154937
0.175902
0.193079
0.214135
0.227959
0.242125
0.000698122
0.0170248
0.0686723
0.155266
0.246882
0.336786
0.42752
0.506876
0.547998
0.56345
0.571717
0.588121
0.615866
0.647776
0.675843
0.703494
0.718795
0.737787
0.0225445
0.276094
0.795938
1.18748
1.48471
1.68831
1.81789
1.85475
1.85185
1.82684
1.80449
1.79783
1.79529
1.79067
1.78001
1.76059
1.7262
1.70114
0.606935
3.08927
4.26257
4.53643
4.49367
4.35738
4.13124
3.90354
3.72212
3.57688
3.46222
3.34558
3.23143
3.1051
2.98431
2.85223
2.7319
2.63607
6.96296
10.8628
10.3369
8.84822
7.78362
7.30408
7.16271
7.17082
7.29197
7.44068
7.57921
7.66955
7.70651
7.68704
7.63494
7.55051
7.42998
7.22447
0.0683411
0.0659787
0.0678065
0.0739609
0.0840438
0.0978342
0.115588
0.137635
0.164691
0.19861
0.240743
0.291538
0.350794
0.414715
0.485512
0.571808
0.674585
0.782286
0.88214
0.983727
1.11437
1.28901
1.49241
1.7168
1.98739
2.32526
2.70252
3.09295
3.48105
3.84762
4.19295
4.53365
4.87822
5.22052
5.54641
5.84748
6.12146
6.36317
6.56384
6.72221
6.79341
6.81409
6.80528
6.7487
6.64265
6.51047
6.38742
6.2721
6.15536
6.01835
5.87984
5.75092
5.63575
5.53655
5.48534
5.45861
5.44106
5.40843
5.3653
5.33676
5.29201
5.2367
5.17246
5.11923
5.05618
4.97596
4.87459
4.75186
4.61914
4.49747
4.39391
4.34098
4.33144
4.40449
4.43112
4.43775
4.42813
4.35735
4.27234
4.22862
4.17051
4.04623
3.90238
3.81055
3.73689
3.62044
3.47694
3.33262
3.24914
3.18268
3.21104
3.29091
3.27881
3.17139
3.13233
3.1809
3.21722
3.2259
3.74306
5.2774
6.47286
6.91354
6.89784
6.61961
6.06704
5.39724
5.1281
5.00328
4.83151
4.53023
3.94348
2.93451
1.96848
1.69462
1.89052
1.66928
1.51209
1.18633
1.06149
1.08121
1.1992
1.39902
1.82313
2.29978
2.93743
3.71101
4.52612
5.14427
5.99937
6.85155
7.60193
7.78552
7.78605
7.61612
7.48037
7.28276
7.22282
7.2414
7.3848
7.66827
8.00493
8.35101
8.70777
9.02793
9.3485
9.59679
9.7873
9.80441
9.85985
9.94747
10.3559
11.5977
13.3312
15.1359
14.653
12.2033
11.3061
11.5156
11.7332
11.5535
11.4107
11.7041
12.2778
12.4186
11.8472
10.0026
7.90163
6.99134
7.21662
7.23827
6.92588
6.96409
8.70849
10.3203
8.67116
7.88603
9.80874
11.9681
12.5049
13.7649
0.224557
0.121594
0.0809424
0.0702671
0.0682675
0.0688402
0.0713885
0.0762513
0.0825112
0.0906491
0.101906
0.116094
0.134534
0.157495
0.186868
0.22802
0.277817
0.327935
0.384744
0.461702
0.57963
0.758012
0.990779
1.21965
1.4242
1.53209
1.58367
1.61506
1.63048
1.62094
1.60722
1.57634
1.54031
1.50501
1.45135
1.39625
1.32907
1.26181
1.19323
1.11113
1.024
0.937662
0.842575
0.760391
0.710886
0.682427
0.666132
0.655161
0.64459
0.635225
0.636972
0.652252
0.673262
0.713926
0.781709
0.874365
0.955865
0.987753
1.03083
1.08365
1.11431
1.14076
1.16764
1.20801
1.22097
1.21642
1.17986
1.11681
1.04874
0.996715
0.966697
0.961255
1.0431
1.19143
1.35239
1.49343
1.67484
1.757
1.78402
1.86632
1.96051
1.94882
1.87338
1.80425
1.73051
1.59621
1.49425
1.33211
1.12324
1.03338
1.06147
1.25517
1.40579
1.43501
1.73306
2.55128
3.64381
4.57866
4.63143
4.40366
4.24342
3.92602
3.0532
2.31838
2.05283
1.94724
1.89392
1.81235
1.69181
1.48766
1.12586
0.885631
0.842444
0.965748
0.996559
0.85101
0.84445
0.889109
0.894379
0.8229
0.837893
0.856461
0.875714
0.993414
1.09956
1.40595
1.77412
2.03467
2.27988
2.59618
3.20151
3.72645
4.10477
4.46518
4.73528
4.97007
5.20292
5.20317
5.18716
5.13262
5.10441
5.13966
5.17793
5.30469
5.42549
5.52245
5.60321
5.52832
5.41303
5.77813
6.59613
8.00649
8.61924
8.03407
6.21403
5.85874
6.58076
7.68628
8.04865
7.88332
7.75934
8.12507
8.98999
9.50695
9.21894
7.66441
5.68597
5.27281
5.64413
5.61538
5.53952
6.8859
7.941
7.46088
6.40913
7.32726
7.8182
8.25562
8.76598
9.64658
0.538918
0.226141
0.113318
0.0782066
0.067769
0.064752
0.0642357
0.064687
0.0666054
0.0705026
0.0759609
0.084804
0.0970938
0.115025
0.138782
0.171039
0.220979
0.296354
0.396022
0.52731
0.690002
0.800602
0.863486
0.880104
0.842805
0.752638
0.674011
0.615084
0.541871
0.496193
0.448568
0.405063
0.374963
0.336891
0.307853
0.279158
0.253194
0.235893
0.216692
0.202407
0.19018
0.180992
0.174177
0.169758
0.167244
0.166116
0.165895
0.165833
0.164837
0.163705
0.163636
0.16588
0.170449
0.177306
0.189289
0.206627
0.220278
0.226279
0.234856
0.246436
0.252684
0.260323
0.270103
0.289964
0.309454
0.314978
0.312761
0.301146
0.284926
0.26825
0.259298
0.257269
0.277944
0.328019
0.395964
0.454535
0.524637
0.595056
0.644221
0.706551
0.812341
0.890131
0.930713
0.967572
0.956396
0.86957
0.763435
0.63368
0.532928
0.498594
0.541629
0.659534
0.918501
1.65721
2.78306
3.24333
3.94146
4.24865
3.36974
2.21176
1.84929
1.50909
0.988091
0.866935
0.87791
1.00116
1.02047
1.00357
0.958158
0.842517
0.648689
0.601868
0.655254
0.846738
0.880052
0.667155
0.603119
0.575384
0.663706
0.68075
0.686317
0.638365
0.562493
0.597675
0.613299
0.698764
0.877469
1.0436
1.16967
1.23777
1.38129
1.58162
1.78734
2.0445
2.23753
2.43396
2.7921
3.13836
3.30132
3.28992
3.23355
3.2128
3.07389
3.04291
3.09334
3.07223
3.13663
3.19188
3.30487
3.63869
4.43683
5.51121
5.8861
4.71385
3.53883
3.4085
3.90618
4.57392
4.8469
4.8912
4.88364
5.0731
5.45387
6.04931
6.33589
5.68736
4.58771
4.59144
4.68172
4.69622
5.18229
6.52273
7.17136
5.22322
4.53292
4.66339
7.33354
6.2784
5.70329
6.22665
1.01213
0.370382
0.171666
0.100238
0.0744187
0.0666083
0.0646414
0.064388
0.0657683
0.0705743
0.0779185
0.0862199
0.0984934
0.118567
0.150128
0.199961
0.286853
0.418967
0.534958
0.612919
0.657186
0.669046
0.579538
0.459554
0.397289
0.326712
0.286143
0.24822
0.219271
0.203836
0.185184
0.173864
0.164255
0.152611
0.147187
0.143726
0.141205
0.139914
0.139473
0.140842
0.143381
0.146472
0.150239
0.154807
0.15673
0.157002
0.156868
0.155874
0.152868
0.148254
0.146358
0.145466
0.144887
0.144985
0.146132
0.148156
0.148826
0.148751
0.147772
0.146998
0.147472
0.148962
0.154229
0.16713
0.179431
0.182333
0.182265
0.178088
0.167235
0.154384
0.150374
0.150519
0.159465
0.184259
0.216657
0.236707
0.261825
0.305003
0.362291
0.390698
0.416376
0.452032
0.477786
0.538474
0.595831
0.592172
0.576553
0.477264
0.397427
0.420107
0.591076
0.925584
1.6624
2.67715
3.07229
3.24194
3.46977
2.79426
1.4132
0.996727
0.852284
0.649712
0.47306
0.450222
0.494737
0.55982
0.564794
0.556423
0.560934
0.583709
0.550637
0.532291
0.605528
0.814605
0.872949
0.678908
0.5682
0.489853
0.524359
0.544085
0.565628
0.526648
0.493863
0.53859
0.593797
0.631938
0.710027
0.861533
1.04145
1.08428
1.09558
1.10218
1.12655
1.19876
1.3022
1.38785
1.57378
1.91644
2.19356
2.32344
2.28969
2.32278
2.28301
2.16303
2.23148
2.27305
2.24174
2.344
2.76422
3.23133
3.61151
4.14325
4.25319
3.41211
2.79262
2.77532
2.89674
3.2446
3.48346
3.614
3.71868
3.90873
4.1186
4.42841
4.79951
4.69437
4.12459
4.31239
4.49301
4.4758
5.01209
5.91293
5.55082
3.88033
3.45269
3.76656
5.43106
5.8255
4.87932
4.953
1.66626
0.564584
0.25206
0.131114
0.0870812
0.0721072
0.0690691
0.0691365
0.0716652
0.0769792
0.0839987
0.0955582
0.119153
0.169204
0.252118
0.351391
0.423576
0.477794
0.520522
0.544961
0.505639
0.408773
0.317043
0.251415
0.219111
0.195737
0.178331
0.168844
0.161097
0.157056
0.151297
0.147569
0.142429
0.138046
0.137427
0.137478
0.138576
0.141022
0.145247
0.150336
0.155466
0.160678
0.165912
0.170832
0.173973
0.175143
0.175311
0.174812
0.172421
0.168274
0.164295
0.159888
0.153111
0.149023
0.147818
0.147281
0.14659
0.145885
0.144647
0.142029
0.139594
0.139397
0.141652
0.148973
0.161216
0.165565
0.165316
0.161494
0.14741
0.131792
0.129067
0.129355
0.132031
0.141898
0.155843
0.170994
0.206152
0.265339
0.293464
0.298813
0.303478
0.317741
0.329969
0.347933
0.371189
0.378755
0.394862
0.367366
0.368162
0.504164
1.10645
1.7433
2.24165
2.72794
2.88343
2.67177
2.2085
1.1943
0.673609
0.53232
0.474567
0.36535
0.325553
0.326087
0.349021
0.353344
0.345306
0.338745
0.347173
0.381143
0.412112
0.447071
0.529138
0.666479
0.744199
0.70975
0.575893
0.455648
0.482156
0.466958
0.452173
0.479151
0.50262
0.544896
0.759267
0.702945
0.704485
0.742464
0.924792
1.07293
1.09526
1.06785
1.00397
0.973015
0.982717
1.01968
1.10289
1.29903
1.49904
1.7507
1.79995
1.81267
1.87194
1.76975
1.76134
1.89862
1.89988
1.9689
2.31795
3.13068
3.4105
3.57772
3.47622
3.00305
2.4478
2.35498
2.53946
2.72027
2.96136
3.2099
3.29516
3.33417
3.5493
3.70295
4.01223
4.06681
3.94679
3.90641
4.5263
4.37345
4.74357
5.78446
4.50212
3.08413
2.84916
3.0129
4.59686
5.52469
4.74248
4.47723
2.49275
0.813078
0.321426
0.15394
0.0988536
0.0838073
0.0809376
0.0816192
0.0822769
0.0859859
0.0993182
0.129389
0.206791
0.345563
0.398478
0.405571
0.410372
0.423413
0.410015
0.359976
0.301962
0.240402
0.201583
0.183494
0.174793
0.169666
0.165507
0.161626
0.157249
0.154387
0.151315
0.149269
0.145501
0.143761
0.143893
0.145058
0.147998
0.152512
0.156712
0.160076
0.163701
0.1676
0.171359
0.174323
0.17671
0.178753
0.180435
0.180601
0.180313
0.179504
0.177457
0.172456
0.16531
0.159338
0.155258
0.151523
0.149231
0.148066
0.147127
0.144656
0.140855
0.138547
0.137566
0.134697
0.135104
0.138299
0.145969
0.1488
0.143176
0.127026
0.117847
0.11804
0.119266
0.125086
0.134436
0.150035
0.189346
0.240386
0.257665
0.266376
0.279258
0.281648
0.280123
0.283454
0.289388
0.290803
0.301005
0.325388
0.393135
0.706915
1.52475
1.91473
2.23947
2.48586
2.3229
1.85101
1.11998
0.600068
0.410257
0.363217
0.338042
0.288113
0.279292
0.28932
0.291766
0.289051
0.281835
0.275791
0.274718
0.26819
0.272641
0.302473
0.371419
0.411897
0.496721
0.573856
0.525339
0.419847
0.483193
0.455336
0.417176
0.482676
0.515284
0.566279
0.912332
0.892013
0.754151
0.696564
0.72168
0.885383
1.05793
1.04731
0.974226
0.897439
0.865935
0.883525
0.922357
1.03284
1.1598
1.31201
1.56021
1.56261
1.59575
1.61568
1.55763
1.60235
1.73854
1.7966
1.98912
2.79611
3.31778
3.47069
3.32239
2.93282
2.34185
2.15378
2.14285
2.51026
2.81056
3.16218
3.24844
3.1971
3.20433
3.34381
3.55697
3.75263
3.84403
3.83416
4.61982
4.26597
4.43949
5.54192
4.581
3.00632
2.70014
2.75971
3.25337
4.65316
4.57227
4.23583
3.49162
0.986884
0.329775
0.15052
0.0996875
0.0909906
0.0910738
0.0924666
0.0963681
0.111928
0.165689
0.253046
0.331304
0.369557
0.384497
0.372544
0.331457
0.296525
0.276482
0.245246
0.2013
0.180403
0.171646
0.168779
0.167734
0.16696
0.164355
0.159959
0.155156
0.152059
0.149636
0.14794
0.146282
0.146145
0.147267
0.149818
0.154041
0.159053
0.164883
0.171474
0.175752
0.17735
0.177974
0.178036
0.176417
0.176073
0.176782
0.178143
0.178813
0.178308
0.177608
0.176074
0.171524
0.166329
0.16032
0.152883
0.149462
0.147262
0.145196
0.140891
0.133376
0.130086
0.129455
0.128661
0.124494
0.115171
0.111904
0.11423
0.12207
0.120871
0.114506
0.106109
0.105437
0.106679
0.110311
0.12097
0.149533
0.192976
0.218142
0.249069
0.272584
0.275837
0.274824
0.276361
0.268461
0.273622
0.291024
0.33074
0.473292
0.959764
1.62267
1.86828
1.98448
1.97545
1.93147
1.61284
0.814566
0.450482
0.34475
0.306249
0.273336
0.254253
0.25282
0.255973
0.260206
0.260764
0.256106
0.24349
0.242487
0.234049
0.220184
0.221778
0.245304
0.256117
0.305415
0.391358
0.422216
0.392338
0.479812
0.446539
0.401367
0.494876
0.529194
0.566816
0.776949
0.876974
0.761265
0.675147
0.639718
0.658886
0.811292
0.8874
0.866779
0.864657
0.857851
0.852854
0.866881
0.907963
1.00315
1.08887
1.25904
1.37215
1.40993
1.50193
1.48621
1.49661
1.58174
1.66786
1.82227
2.23229
3.12276
3.34606
3.20512
2.80235
2.35772
2.15234
2.03473
2.35596
2.78867
3.07916
3.16822
3.16924
3.07424
3.08889
3.19658
3.53994
3.71323
4.02959
4.61918
4.38381
4.24879
4.86634
4.78325
3.26348
2.71498
2.72218
2.6533
3.59886
4.13776
4.08714
4.49575
1.05965
0.274631
0.120088
0.0967482
0.0983887
0.106545
0.114187
0.127509
0.181136
0.290885
0.327034
0.332832
0.326305
0.290826
0.253471
0.233315
0.219715
0.205873
0.186697
0.170795
0.166886
0.166673
0.167252
0.166924
0.164296
0.156716
0.145819
0.141508
0.139556
0.139111
0.14028
0.143398
0.14688
0.150272
0.155747
0.162653
0.169625
0.175897
0.183004
0.18748
0.188823
0.189278
0.18707
0.181504
0.175804
0.170396
0.164611
0.162366
0.161813
0.163508
0.168993
0.169909
0.169317
0.167206
0.161432
0.155176
0.150484
0.146478
0.143371
0.134635
0.124366
0.121511
0.121801
0.122315
0.116085
0.101295
0.0966792
0.0972178
0.102922
0.10859
0.103296
0.0982177
0.0969827
0.098702
0.108992
0.13494
0.176492
0.203039
0.232103
0.25335
0.257399
0.256482
0.258946
0.269461
0.296134
0.316443
0.364015
0.542922
1.16412
1.5613
1.63041
1.52319
1.53201
1.59811
1.48345
0.854317
0.445981
0.341863
0.290497
0.255475
0.247424
0.246015
0.239841
0.238324
0.238124
0.22305
0.21915
0.224865
0.222188
0.20039
0.195403
0.194481
0.195573
0.220039
0.301877
0.382892
0.361543
0.442024
0.432742
0.3957
0.48195
0.588205
0.58006
0.583494
0.687315
0.680591
0.680074
0.63256
0.624537
0.656774
0.774505
0.829241
0.830792
0.849337
0.855426
0.864216
0.867376
0.89468
0.977464
1.08877
1.16741
1.25642
1.44587
1.41526
1.44031
1.51037
1.53604
1.69759
1.85165
2.50037
3.16804
3.11238
2.71675
2.35961
2.15777
1.99522
2.32098
2.69429
2.77579
2.78457
2.99519
2.99514
2.96474
3.01112
3.31458
3.57946
4.10145
3.99287
5.09541
4.30516
4.41162
4.47515
3.22249
2.75995
2.69811
2.53626
3.20124
3.95365
3.97662
5.50464
1.18262
0.256921
0.114214
0.103478
0.125701
0.153497
0.170747
0.194753
0.240262
0.298695
0.317202
0.299558
0.237686
0.208294
0.196237
0.191719
0.188595
0.181173
0.169378
0.164518
0.163417
0.163805
0.16428
0.161773
0.152095
0.14118
0.137266
0.136415
0.137843
0.140008
0.143216
0.14753
0.151894
0.15631
0.161455
0.168972
0.178089
0.184705
0.188236
0.190427
0.191232
0.190256
0.186111
0.181086
0.176739
0.171151
0.161751
0.14966
0.143954
0.142465
0.143205
0.147449
0.154026
0.15955
0.161044
0.159211
0.154645
0.150458
0.148497
0.144504
0.134622
0.121843
0.116468
0.115017
0.114338
0.105554
0.0914166
0.0881224
0.0881628
0.0919232
0.0941064
0.0913891
0.0916605
0.0961345
0.108454
0.13705
0.178325
0.204454
0.228394
0.239645
0.242355
0.243853
0.250704
0.284081
0.334326
0.34487
0.401765
0.646749
1.16344
1.35708
1.29469
1.13534
1.13332
1.24911
1.26327
0.961409
0.550018
0.40677
0.296749
0.253174
0.23926
0.231408
0.222317
0.21789
0.211975
0.200352
0.199411
0.215574
0.217491
0.192279
0.183308
0.177139
0.178465
0.185611
0.221293
0.302307
0.344542
0.417332
0.399133
0.379325
0.433271
0.601055
0.619609
0.56384
0.567134
0.635292
0.655611
0.615914
0.604761
0.662876
0.719738
0.778343
0.818017
0.893909
0.895288
0.883715
0.864459
0.865391
0.895792
1.0006
1.06993
1.12891
1.35418
1.40241
1.36665
1.38432
1.43373
1.56276
1.61438
2.09309
2.68834
2.77436
2.53191
2.46278
2.20693
1.9576
2.22885
2.47381
2.38743
2.27627
2.42228
2.72402
2.85863
2.94127
3.18818
3.41235
4.14905
3.95946
6.07996
4.65595
4.34474
3.80504
3.04763
2.76418
2.69044
2.57011
3.0234
3.80594
3.74036
6.54505
1.31081
0.253923
0.117283
0.12374
0.173913
0.206637
0.219787
0.233178
0.250803
0.27456
0.269454
0.22351
0.182188
0.171772
0.169567
0.172282
0.173283
0.171001
0.160239
0.154777
0.154574
0.154623
0.154074
0.151261
0.148394
0.142889
0.142814
0.147603
0.15564
0.161482
0.165698
0.168975
0.170426
0.166243
0.162083
0.163389
0.168611
0.177487
0.178915
0.177774
0.172653
0.160972
0.147924
0.144191
0.14387
0.145384
0.145681
0.139687
0.130299
0.127492
0.127432
0.130855
0.137439
0.140745
0.142636
0.147064
0.151728
0.151573
0.151184
0.149922
0.14598
0.134383
0.121567
0.113928
0.109133
0.104892
0.0926788
0.0842547
0.0829419
0.083218
0.0858246
0.0871982
0.08975
0.0969079
0.114256
0.154586
0.195484
0.216281
0.230672
0.239642
0.242341
0.243878
0.250881
0.284563
0.331671
0.344492
0.429252
0.79641
1.10137
1.15335
1.00132
0.879812
0.876923
0.970509
1.03294
0.950171
0.687206
0.507477
0.312392
0.249123
0.23025
0.222222
0.214603
0.205677
0.199073
0.195078
0.190682
0.194588
0.206143
0.196722
0.179829
0.167928
0.167387
0.170798
0.180001
0.228515
0.329617
0.383773
0.367496
0.365353
0.39829
0.552075
0.631424
0.565698
0.552379
0.625431
0.629836
0.588363
0.575874
0.67739
0.709343
0.807255
0.890064
0.928045
0.940702
0.926711
0.881101
0.860143
0.867112
0.91032
1.0336
1.06295
1.19908
1.38249
1.3386
1.28471
1.32567
1.46186
1.53679
1.90011
2.32572
2.34301
2.24427
2.42329
2.42252
2.07317
1.98611
2.24604
2.32291
2.50889
2.05267
2.21393
2.79926
2.91805
3.04059
3.20662
4.06682
4.15839
5.93111
5.15862
4.39878
3.53469
3.02203
2.74921
2.79819
2.5125
2.78436
3.60913
3.49532
7.49588
1.43973
0.260662
0.119455
0.133908
0.197024
0.228813
0.234949
0.236268
0.241451
0.235183
0.201783
0.166728
0.152193
0.151282
0.160513
0.167005
0.167689
0.16165
0.14589
0.140437
0.139783
0.14046
0.144472
0.149543
0.151901
0.154658
0.159346
0.166393
0.174786
0.179115
0.180281
0.177994
0.173638
0.169055
0.161256
0.157181
0.155728
0.159752
0.159092
0.154108
0.140682
0.127494
0.124982
0.125556
0.126306
0.127879
0.13136
0.131201
0.121723
0.115412
0.115051
0.122337
0.130844
0.133563
0.13328
0.130931
0.131591
0.138906
0.147538
0.148992
0.147395
0.140275
0.129703
0.121201
0.112805
0.10317
0.0930384
0.0835851
0.0806792
0.0804364
0.0819585
0.0850795
0.0894465
0.0986471
0.121467
0.169254
0.215793
0.239048
0.245497
0.247042
0.247393
0.249041
0.257812
0.280279
0.305577
0.331476
0.482665
0.888252
1.05441
1.02268
0.815157
0.732334
0.736527
0.805689
0.879861
0.870145
0.733745
0.546638
0.315741
0.242036
0.218165
0.209117
0.199112
0.192732
0.192684
0.194756
0.191617
0.189354
0.19039
0.197331
0.18617
0.169093
0.16321
0.165722
0.167841
0.186687
0.279242
0.313423
0.322191
0.359058
0.384911
0.456569
0.592473
0.540279
0.543714
0.594256
0.588193
0.53305
0.52871
0.658887
0.721601
0.884633
0.93359
0.915489
0.931602
0.92581
0.887037
0.867845
0.85434
0.861398
0.954245
1.0148
1.11669
1.28411
1.29182
1.25205
1.24138
1.42401
1.53193
1.90861
2.17475
2.14509
2.04676
2.11335
2.29367
2.18924
1.87383
1.96
1.99715
2.36134
2.01454
1.79984
2.63973
2.91792
2.86871
2.93492
3.65833
3.93609
4.21802
5.48748
4.40954
3.39481
3.0421
3.04324
2.87538
2.39241
2.63367
3.42137
3.24338
8.59646
1.75773
0.315202
0.12771
0.138527
0.201087
0.230067
0.235578
0.231951
0.209466
0.181381
0.153303
0.138819
0.134811
0.136039
0.145992
0.155442
0.156777
0.148933
0.132932
0.128181
0.127204
0.129491
0.137076
0.147365
0.152738
0.155553
0.158586
0.162215
0.166491
0.17115
0.176071
0.175525
0.171741
0.162991
0.152551
0.146836
0.148975
0.154262
0.153997
0.148699
0.132776
0.119957
0.118549
0.121834
0.126374
0.127033
0.131123
0.133775
0.126228
0.115097
0.112355
0.118297
0.132387
0.135832
0.133936
0.126393
0.121531
0.121771
0.127337
0.137017
0.142645
0.14003
0.131458
0.123822
0.119428
0.106649
0.0940363
0.0842184
0.0807901
0.0805027
0.0814676
0.0846013
0.0898336
0.100773
0.125157
0.173789
0.224953
0.252716
0.267335
0.268267
0.264517
0.26241
0.265915
0.273164
0.277834
0.323793
0.523296
0.897858
0.997408
0.926766
0.741803
0.673928
0.670945
0.698193
0.753916
0.763389
0.718907
0.549377
0.310641
0.22661
0.199732
0.186872
0.177202
0.17435
0.185962
0.200714
0.201247
0.187379
0.185903
0.188409
0.187509
0.179498
0.166217
0.161648
0.169596
0.17505
0.222405
0.278805
0.288967
0.350752
0.384621
0.432743
0.519437
0.486558
0.53044
0.526837
0.516176
0.466842
0.475214
0.590462
0.737388
0.884895
0.878393
0.798694
0.803786
0.838152
0.835909
0.853446
0.849598
0.834837
0.8835
0.965987
1.03719
1.15581
1.1704
1.19616
1.18687
1.34611
1.49743
1.77383
1.95211
1.8682
1.80075
1.78706
1.86325
2.00807
1.85804
1.88044
1.66276
1.88326
1.86648
1.47082
2.22472
2.91094
2.77658
2.64904
3.20801
3.74623
3.70507
5.37996
4.20182
3.31263
3.01795
3.23027
2.89904
2.43401
2.58989
3.28216
3.03509
9.68797
2.06527
0.39687
0.137019
0.134628
0.197148
0.229367
0.234059
0.221046
0.184988
0.147523
0.13064
0.125572
0.126207
0.130663
0.136747
0.138959
0.136265
0.127958
0.119976
0.117926
0.118875
0.123254
0.132714
0.142434
0.148688
0.149946
0.147319
0.139965
0.137934
0.139598
0.147114
0.154977
0.155184
0.150679
0.144755
0.142721
0.146267
0.149719
0.149196
0.1444
0.13289
0.120862
0.117824
0.118992
0.130158
0.135797
0.136727
0.140184
0.139656
0.122361
0.114591
0.116851
0.131519
0.144507
0.144651
0.13508
0.121904
0.116651
0.118112
0.123357
0.129621
0.132346
0.130789
0.125309
0.119138
0.111832
0.0977295
0.0860535
0.0813025
0.0808406
0.0819315
0.0849351
0.0910182
0.10196
0.125798
0.175528
0.234848
0.269498
0.2869
0.294061
0.292324
0.286277
0.274082
0.270695
0.268951
0.325777
0.591974
0.888426
0.92347
0.793237
0.68554
0.643918
0.605522
0.604523
0.634076
0.63997
0.605925
0.493103
0.286261
0.205011
0.178817
0.168153
0.164293
0.170758
0.186287
0.203125
0.210015
0.20997
0.192719
0.188201
0.188635
0.188344
0.177816
0.161649
0.162128
0.169072
0.193433
0.256995
0.272035
0.335554
0.384119
0.426075
0.46871
0.459704
0.503217
0.478917
0.466752
0.4295
0.439582
0.506343
0.71199
0.719645
0.680432
0.644525
0.646656
0.68906
0.719758
0.799849
0.824541
0.816523
0.854223
0.914312
0.95841
1.06298
1.06698
1.10681
1.12274
1.18329
1.33816
1.4907
1.55707
1.67137
1.71431
1.58944
1.55903
1.7265
1.76484
1.83888
1.50794
1.61981
1.91103
1.32833
1.82231
2.80291
2.74718
2.4573
2.79041
3.49198
3.71955
5.04579
4.08851
3.23017
3.04262
3.25743
2.97456
2.43718
2.49639
3.05438
2.79723
10.8326
2.4532
0.52969
0.156874
0.131833
0.18303
0.222303
0.230893
0.220959
0.183328
0.141261
0.126789
0.124024
0.12681
0.132546
0.136708
0.136944
0.131231
0.122696
0.117998
0.116486
0.117874
0.122586
0.130667
0.135607
0.136881
0.135309
0.133139
0.132339
0.133877
0.136257
0.138988
0.141769
0.142698
0.142566
0.142583
0.143589
0.147818
0.14923
0.148317
0.143695
0.135182
0.124458
0.117853
0.116645
0.125769
0.153353
0.156828
0.153293
0.145244
0.137564
0.127328
0.126857
0.135819
0.15099
0.156279
0.152003
0.134147
0.11982
0.116681
0.11967
0.12306
0.124977
0.123732
0.122428
0.118777
0.113246
0.102963
0.0902508
0.0833622
0.0818218
0.0824744
0.0851591
0.0914984
0.102421
0.126456
0.177135
0.244787
0.293616
0.315958
0.324482
0.323812
0.314908
0.28802
0.272188
0.26955
0.34124
0.685367
0.866148
0.850189
0.682412
0.610574
0.582297
0.523235
0.500399
0.50708
0.51141
0.479219
0.39001
0.249851
0.186533
0.166096
0.159861
0.159712
0.167626
0.181106
0.193336
0.211577
0.223561
0.215438
0.195776
0.190472
0.189226
0.183914
0.165792
0.161118
0.165744
0.176581
0.226071
0.262079
0.321327
0.382505
0.420509
0.448415
0.452085
0.468458
0.438066
0.439692
0.416751
0.424841
0.473911
0.559175
0.546079
0.557946
0.55296
0.571225
0.631694
0.678022
0.717364
0.760843
0.768115
0.816274
0.877527
0.903476
1.00186
1.01481
1.05113
1.03701
1.04533
1.14072
1.26316
1.31482
1.61531
1.64666
1.48444
1.40988
1.61228
1.7495
1.63028
1.49705
1.40607
1.83509
1.36388
1.6025
2.68793
2.71409
2.39733
2.49753
3.13708
3.7452
4.82668
4.13689
3.0744
3.16209
3.28153
2.94986
2.41351
2.46509
2.72274
2.63402
12.0679
2.90701
0.724864
0.202088
0.130254
0.146725
0.203081
0.223918
0.224771
0.197201
0.147222
0.128261
0.124514
0.128474
0.140688
0.147747
0.146795
0.138704
0.127742
0.12229
0.119897
0.120636
0.123892
0.128293
0.129826
0.130264
0.129382
0.129533
0.133038
0.143051
0.150674
0.152275
0.151764
0.149099
0.147189
0.147761
0.149397
0.149477
0.147751
0.144988
0.1414
0.134882
0.126113
0.117983
0.113396
0.117742
0.149248
0.172506
0.168952
0.156335
0.144863
0.14452
0.149673
0.153077
0.158735
0.16112
0.159885
0.145786
0.126505
0.118297
0.119116
0.122066
0.123662
0.121751
0.113948
0.110819
0.108596
0.103242
0.0940507
0.0864241
0.0834232
0.0833142
0.0849841
0.0908982
0.101998
0.1257
0.176449
0.249306
0.311328
0.351935
0.364254
0.363911
0.354947
0.319263
0.283918
0.281104
0.383364
0.714804
0.829765
0.774135
0.598578
0.537714
0.514771
0.457733
0.41244
0.403394
0.398034
0.373229
0.315425
0.221128
0.178293
0.162314
0.157957
0.158764
0.162695
0.169164
0.176346
0.196494
0.221025
0.221114
0.211213
0.197956
0.191639
0.190315
0.183081
0.163494
0.166925
0.170926
0.210726
0.242498
0.305573
0.376435
0.419208
0.442938
0.451537
0.444122
0.41664
0.430498
0.409862
0.41541
0.442831
0.45359
0.457749
0.47746
0.488426
0.534452
0.619269
0.666982
0.681126
0.714297
0.718819
0.791223
0.849595
0.863109
0.966353
0.980337
0.982606
0.939717
0.958611
1.0336
1.12402
1.25645
1.5215
1.43615
1.31931
1.33253
1.55576
1.69906
1.43435
1.44496
1.25877
1.5186
1.48347
1.55102
2.47159
2.62238
2.3915
2.36816
2.81246
3.72918
4.31361
4.17901
3.00965
3.15103
3.1629
2.88896
2.51113
2.59822
2.57897
2.61027
13.5539
3.53332
1.07706
0.318019
0.144695
0.130527
0.155838
0.204379
0.221155
0.214668
0.18441
0.140959
0.127999
0.127699
0.134579
0.147775
0.157232
0.160685
0.156233
0.148314
0.141406
0.136317
0.132752
0.130458
0.127548
0.120421
0.11708
0.11797
0.122471
0.135838
0.148952
0.155969
0.159128
0.158711
0.15571
0.15312
0.152309
0.150709
0.147722
0.143164
0.140096
0.135506
0.126978
0.119041
0.111176
0.112992
0.141659
0.174331
0.171619
0.156398
0.15018
0.153178
0.157102
0.155696
0.155865
0.156387
0.153309
0.14331
0.123886
0.116258
0.114394
0.118892
0.121783
0.121222
0.114763
0.104497
0.100819
0.0990124
0.0936204
0.0872134
0.0843476
0.0835717
0.0839879
0.0867605
0.0970547
0.119934
0.168514
0.249494
0.323732
0.377994
0.400656
0.405141
0.402325
0.376709
0.338962
0.34
0.509894
0.710787
0.768697
0.68667
0.54577
0.494223