/*--------------------------------*- C++ -*----------------------------------*\
| =========                 |                                                 |
| \\      /  F ield         | OpenFOAM: The Open Source CFD Toolbox           |
|  \\    /   O peration     | Version:  dev                                   |
|   \\  /    A nd           | Web:      http://www.openfoam.org               |
|    \\/     M anipulation  |                                                 |
\*---------------------------------------------------------------------------*/
FoamFile
{
    version     2.0;
    format      ascii;
    class       volScalarField;
    object      k_0;
    location    "9.155";
}
// * * * * * * * * * * * * * * * * * * * * * * * * * * * * * * * * * * * * * //

dimensions      [0 2 -2 0 0 0 0];

internalField   nonuniform List<scalar> 
12225
(
8.7149
11.851
8.45103
10.1701
6.9929
11.659
8.11939
14.6042
10.1022
18.5129
12.6128
22.8105
16.6181
25.4455
23.5533
27.2668
30.6035
31.4752
1.7078
6.11659
5.14805
6.47912
4.70612
6.38518
4.72508
6.87431
5.32554
7.70065
6.33974
8.35653
8.14386
8.54653
11.465
11.3741
13.6885
21.1883
0.148721
1.84633
1.9864
3.13131
2.80127
3.31034
3.05035
3.21234
3.20214
3.00429
3.19158
2.65093
3.09715
2.16689
3.18645
2.06483
3.66589
4.29751
0.0125205
0.391185
0.533361
0.881491
1.20697
1.23178
1.58826
1.44552
1.817
1.51524
1.74431
1.32059
1.4788
1.02287
1.27633
0.880038
1.58619
1.49062
0.0010916
0.0766633
0.129541
0.220878
0.421409
0.466696
0.644402
0.623974
0.737312
0.653913
0.762843
0.602142
0.698367
0.509179
0.639733
0.40391
0.748393
0.715549
0.00764783
0.0808149
0.0966648
0.140337
0.199041
0.209401
0.252466
0.237227
0.279171
0.247919
0.304903
0.242626
0.300268
0.225216
0.299215
0.225847
0.4269
0.375163
0.00443505
0.0111815
0.0298516
0.0320162
0.0551199
0.0513041
0.0727786
0.064153
0.0877286
0.0761664
0.10566
0.0870955
0.114619
0.0972592
0.127929
0.112274
0.176115
0.244097
0.0011192
0.00141342
0.00625993
0.00627769
0.014216
0.0135474
0.0220316
0.0202065
0.0294024
0.0273912
0.0397049
0.0370796
0.0490792
0.0479665
0.0629102
0.0627787
0.0732433
0.110278
0.000336687
0.000415128
0.00149683
0.00167791
0.00427302
0.00461581
0.00828108
0.00881629
0.0134056
0.0148475
0.0213037
0.0237521
0.0305795
0.0337887
0.0401427
0.0541464
0.0586578
0.0655858
0.000162459
0.000377868
0.000923975
0.00114203
0.00185863
0.00256905
0.00455414
0.00646948
0.010685
0.0132585
0.0186185
0.0243108
0.0282648
0.0339688
0.0394616
0.0510702
0.0551837
0.0617722
0.000217218
0.000701881
0.00104186
0.00130066
0.00181949
0.00308644
0.00462944
0.00841343
0.0113869
0.0186121
0.022476
0.0319257
0.0360427
0.0451488
0.0506358
0.0588984
0.0624924
0.0668451
0.000670361
0.000878765
0.00118712
0.00164749
0.0024809
0.00468905
0.00675022
0.0123735
0.0166763
0.028211
0.0358988
0.0518372
0.0621053
0.0730948
0.0791952
0.0845564
0.0881607
0.0885473
0.00115301
0.00125479
0.00143023
0.00218374
0.00385175
0.00840672
0.0125701
0.0227345
0.0299144
0.0459291
0.0608209
0.0788586
0.0929256
0.104258
0.112792
0.117986
0.122015
0.123198
0.0015814
0.00170167
0.00211467
0.00382602
0.0072526
0.0156644
0.0230879
0.0392562
0.0574635
0.0795827
0.101155
0.121597
0.138426
0.150993
0.160047
0.165396
0.169359
0.170466
0.00225818
0.00290218
0.00434545
0.00799041
0.0127178
0.0210228
0.0372426
0.0667573
0.100959
0.13634
0.169115
0.196323
0.216919
0.230955
0.239617
0.244359
0.246831
0.247245
0.00575606
0.00722541
0.0094145
0.014031
0.0228458
0.0410071
0.0752756
0.116329
0.158555
0.197471
0.230055
0.254704
0.271237
0.280777
0.285481
0.287358
0.287869
0.28763
0.00773579
0.00967785
0.0123404
0.0176385
0.0277015
0.0496683
0.0899167
0.135784
0.180894
0.220726
0.252521
0.275432
0.290121
0.298
0.301393
0.302481
0.302631
0.302303
0.00794188
0.00963327
0.0121238
0.0172369
0.0266758
0.0466922
0.0865517
0.132795
0.178404
0.218754
0.250955
0.273997
0.288743
0.296682
0.300037
0.30107
0.301209
0.300946
0.0061572
0.00737443
0.00885793
0.0124353
0.0200499
0.0357961
0.0707064
0.113317
0.156047
0.19448
0.226048
0.2494
0.264873
0.273681
0.277725
0.278977
0.279195
0.279137
0.00412799
0.00517236
0.00656911
0.00926311
0.0135247
0.021396
0.0390523
0.0705426
0.105354
0.138709
0.167652
0.190655
0.206642
0.216606
0.221689
0.22349
0.223876
0.224077
0.00243695
0.00319362
0.00435181
0.00611799
0.0088107
0.0139259
0.0251364
0.0414975
0.0599829
0.0789914
0.0967449
0.112092
0.123533
0.131329
0.135716
0.137461
0.13785
0.138107
0.00109657
0.00143854
0.00217443
0.00388041
0.00545954
0.0077936
0.0123274
0.0195264
0.0297334
0.0425539
0.0561099
0.068225
0.07724
0.0827982
0.0856873
0.0867591
0.0869477
0.0869569
0.000412462
0.000565298
0.0008434
0.00179805
0.00372614
0.00489721
0.0061525
0.00833813
0.01312
0.0204575
0.0278567
0.0348648
0.0405296
0.0459002
0.0497766
0.0539201
0.0565405
0.0593591
0.000382658
0.000508695
0.000635292
0.00101155
0.00188881
0.00265551
0.00362325
0.00553155
0.00949779
0.0151048
0.0201098
0.0256131
0.0304458
0.0365716
0.0415337
0.0469378
0.0512659
0.0557191
0.000153708
0.000324911
0.000637537
0.00128345
0.00266766
0.00459723
0.00724277
0.0136362
0.0202527
0.0269272
0.031015
0.0369352
0.0433459
0.0530981
0.0617596
0.0715782
0.0799988
0.0880943
9.46273e-05
0.000987927
0.00398056
0.0111241
0.0236421
0.0395842
0.063213
0.0940129
0.113943
0.126075
0.132079
0.142305
0.156812
0.178353
0.195862
0.216982
0.230589
0.244872
0.000643543
0.0164723
0.0677181
0.154186
0.246476
0.337504
0.429322
0.507991
0.547381
0.562285
0.571547
0.590017
0.619373
0.651981
0.680368
0.707681
0.722809
0.740986
0.0210432
0.270108
0.794349
1.18923
1.49087
1.69516
1.8225
1.85609
1.85265
1.82564
1.80583
1.80077
1.79887
1.79456
1.78319
1.76303
1.72843
1.70291
0.58578
3.05636
4.22912
4.5065
4.46785
4.32863
4.10186
3.87482
3.69589
3.55248
3.43867
3.32179
3.20747
3.08172
2.96171
2.83098
2.71307
2.61903
6.98646
10.8583
10.3474
8.84537
7.79664
7.3395
7.22578
7.26271
7.41588
7.59434
7.75984
7.87339
7.93026
7.927
7.88725
7.81372
7.6984
7.49319
0.0698704
0.0670405
0.0686287
0.0748347
0.0849483
0.0987949
0.116593
0.138679
0.165784
0.199822
0.242108
0.292982
0.352121
0.415974
0.487545
0.57542
0.679268
0.786397
0.885343
0.989257
1.12622
1.30795
1.51762
1.75042
2.03421
2.38869
2.78239
3.18889
3.59244
3.97344
4.33343
4.69008
5.05125
5.40962
5.75035
6.06481
6.35079
6.60277
6.81148
6.97579
7.04882
7.06875
7.05798
6.99707
6.88438
6.74389
6.6133
6.49117
6.3681
6.22395
6.07838
5.94301
5.82225
5.7182
5.66464
5.63673
5.61862
5.58481
5.53987
5.51031
5.46388
5.40641
5.33943
5.28397
5.21837
5.13498
5.02955
4.90176
4.7634
4.63641
4.52805
4.47171
4.4597
4.53595
4.56143
4.56662
4.55523
4.48027
4.39165
4.3457
4.28474
4.15615
4.00778
3.91233
3.83515
3.7144
3.56597
3.41617
3.33043
3.26197
3.29152
3.37279
3.35981
3.24952
3.21077
3.25822
3.29229
3.28938
3.77315
5.27308
6.42576
6.83952
6.80546
6.50514
5.9276
5.22265
4.91679
4.77367
4.60587
4.32736
3.79419
2.86963
1.91449
1.62551
1.81172
1.61378
1.47651
1.18555
1.06777
1.0856
1.21424
1.42314
1.85566
2.34137
2.98447
3.75247
4.55641
5.16278
5.9996
6.81492
7.51532
7.67229
7.66558
7.50639
7.38605
7.21915
7.18935
7.24487
7.42508
7.75528
8.11782
8.50559
8.89045
9.24086
9.59404
9.86451
10.08
10.1083
10.1792
10.2673
10.7078
12.0184
13.7917
15.636
15.1361
12.6565
11.709
11.9274
12.145
11.9478
11.792
12.1059
12.7305
12.8932
12.3122
10.3845
8.15152
7.20484
7.4478
7.46561
7.13296
7.16612
8.95717
10.5595
8.86546
8.06921
10.1202
12.3835
12.9991
14.3735
0.22887
0.123639
0.0818706
0.0709357
0.0689006
0.0693685
0.0719371
0.0767269
0.0829409
0.0910586
0.102335
0.116605
0.135181
0.158494
0.188639
0.230748
0.281161
0.3322
0.391313
0.472318
0.596523
0.781853
1.01634
1.24135
1.43734
1.532
1.573
1.59573
1.60219
1.58427
1.56435
1.52742
1.48625
1.44649
1.38916
1.33165
1.26297
1.19558
1.1281
1.04836
0.965322
0.884639
0.795616
0.719073
0.674817
0.651023
0.638436
0.630648
0.623494
0.617446
0.621656
0.638218
0.660519
0.70121
0.767797
0.8585
0.939093
0.97163
1.01443
1.06691
1.09771
1.12433
1.15106
1.19082
1.20346
1.19972
1.16438
1.10309
1.03705
0.987884
0.961248
0.957319
1.03845
1.18345
1.34435
1.48663
1.66717
1.74742
1.77542
1.85953
1.95221
1.94117
1.86764
1.79948
1.72474
1.59054
1.48936
1.32669
1.12116
1.03739
1.06561
1.25642
1.40648
1.44494
1.75787
2.5739
3.64042
4.59412
4.65781
4.39836
4.21495
3.92652
3.09505
2.32464
2.04969
1.93938
1.88729
1.81389
1.70436
1.51878
1.17136
0.906028
0.845422
0.966992
1.00746
0.862542
0.851533
0.896275
0.905182
0.8321
0.845354
0.864704
0.886322
1.00811
1.11919
1.43773
1.80689
2.06631
2.31794
2.64404
3.25338
3.76395
4.13577
4.49635
4.76714
5.00949
5.24407
5.24568
5.23367
5.18427
5.16204
5.20486
5.24403
5.37508
5.49909
5.59724
5.67535
5.59921
5.49378
5.86776
6.70028
8.11233
8.69539
8.12626
6.32623
5.96822
6.70111
7.81768
8.18893
8.03336
7.91292
8.29234
9.17407
9.71404
9.44338
7.86826
5.81035
5.37509
5.74621
5.71413
5.64404
7.00924
8.06864
7.57125
6.50197
7.42387
7.90307
8.38893
8.90445
9.82228
0.544661
0.229806
0.114853
0.0790033
0.0683561
0.0654145
0.0649126
0.0653765
0.067445
0.071468
0.0771071
0.0862494
0.0990146
0.117626
0.142312
0.176251
0.229039
0.307869
0.412161
0.548228
0.709713
0.815751
0.864943
0.872742
0.825841
0.731487
0.651639
0.591945
0.51823
0.473269
0.426069
0.383496
0.354591
0.317614
0.290162
0.263166
0.239004
0.223631
0.206247
0.193793
0.183354
0.175711
0.170376
0.167101
0.165335
0.164668
0.164777
0.165024
0.164364
0.163484
0.163536
0.165732
0.170273
0.177036
0.188705
0.205491
0.21854
0.224355
0.232539
0.243619
0.249585
0.257041
0.266543
0.285863
0.304981
0.310301
0.308519
0.297792
0.282595
0.266781
0.258836
0.257387
0.278023
0.326935
0.394165
0.452222
0.520483
0.589529
0.638811
0.701367
0.805779
0.882107
0.922818
0.959535
0.949036
0.863324
0.759275
0.629809
0.53228
0.501213
0.546487
0.668917
0.935464
1.68353
2.79584
3.24001
3.91326
4.2598
3.4099
2.20688
1.82951
1.52469
0.994142
0.85626
0.858467
0.991094
1.02236
1.01003
0.971371
0.867636
0.665296
0.606366
0.648549
0.845085
0.892802
0.680012
0.612863
0.578566
0.668997
0.687238
0.690903
0.643302
0.567999
0.605093
0.619597
0.71241
0.895965
1.06207
1.18659
1.25628
1.40309
1.6018
1.80553
2.05746
2.24683
2.44988
2.81605
3.15759
3.31198
3.29733
3.24197
3.22435
3.08374
3.05862
3.114
3.0941
3.16194
3.21664
3.34449
3.68842
4.48951
5.53939
5.89472
4.77194
3.59623
3.46107
3.95449
4.63087
4.90527
4.95846
4.96101
5.15965
5.54029
6.13748
6.4365
5.79812
4.67161
4.67694
4.76008
4.77127
5.27085
6.62051
7.2819
5.3094
4.59568
4.71363
7.34769
6.34263
5.76713
6.31411
1.01435
0.376246
0.174198
0.101232
0.0751659
0.0673172
0.0653809
0.0651221
0.0666726
0.0718291
0.0794645
0.0880305
0.101016
0.12256
0.156835
0.211576
0.305275
0.438121
0.549792
0.622995
0.658257
0.658618
0.562109
0.441636
0.38053
0.312031
0.273741
0.237415
0.210501
0.19636
0.17883
0.168592
0.159683
0.148829
0.144103
0.141321
0.139462
0.138614
0.13863
0.140365
0.143224
0.146578
0.150557
0.155361
0.157559
0.157933
0.157834
0.156883
0.153926
0.14925
0.147273
0.146358
0.145739
0.145811
0.146904
0.14889
0.149497
0.149373
0.148312
0.147393
0.147751
0.149173
0.154357
0.167115
0.179399
0.182241
0.182241
0.178191
0.167447
0.154673
0.150909
0.151185
0.160301
0.185109
0.217224
0.237114
0.262357
0.306044
0.36327
0.390418
0.414822
0.449006
0.474666
0.534944
0.589468
0.586012
0.571105
0.471606
0.398057
0.424569
0.604004
0.946747
1.68577
2.67795
3.06391
3.23126
3.45542
2.80642
1.41647
0.983795
0.840471
0.658566
0.472149
0.444622
0.482348
0.556245
0.565625
0.557795
0.561156
0.588387
0.558034
0.534251
0.596691
0.808864
0.878496
0.692449
0.579462
0.495306
0.528707
0.548424
0.57021
0.530777
0.498389
0.544972
0.599912
0.640521
0.724019
0.880279
1.05664
1.09328
1.10572
1.11078
1.13637
1.20959
1.30956
1.39691
1.59432
1.93908
2.2061
2.32849
2.29085
2.32799
2.28543
2.16833
2.24288
2.28577
2.25639
2.36437
2.79553
3.27232
3.64868
4.16279
4.26258
3.4528
2.82945
2.81687
2.94181
3.28165
3.52356
3.65974
3.77365
3.97435
4.18523
4.48942
4.86301
4.76541
4.19401
4.3884
4.57244
4.54806
5.08394
6.01138
5.61822
3.93079
3.49264
3.82132
5.48844
5.81108
4.93146
5.02469
1.66039
0.572864
0.255079
0.131745
0.0876391
0.0729919
0.0701962
0.0703751
0.0732117
0.0786357
0.0859996
0.0988035
0.125705
0.182897
0.271026
0.368186
0.434058
0.48531
0.522344
0.537589
0.490724
0.392264
0.302743
0.241684
0.211958
0.191127
0.175163
0.166877
0.159881
0.156204
0.150847
0.1473
0.142237
0.137897
0.137299
0.137375
0.138548
0.141269
0.145845
0.151089
0.156343
0.161639
0.166942
0.171933
0.175211
0.176512
0.176701
0.176217
0.173858
0.169689
0.165641
0.161183
0.154324
0.150059
0.148782
0.148195
0.14749
0.146762
0.145523
0.142883
0.140404
0.140177
0.142328
0.1495
0.161703
0.166145
0.166014
0.162208
0.147873
0.132113
0.129278
0.129573
0.13247
0.142663
0.156628
0.172054
0.208309
0.268123
0.295043
0.300115
0.304596
0.318549
0.330357
0.347445
0.368954
0.375869
0.390601
0.364718
0.369466
0.513824
1.12381
1.7517
2.23502
2.71416
2.87184
2.64355
2.18251
1.20425
0.668774
0.525103
0.471375
0.36951
0.3245
0.323762
0.347062
0.353638
0.347294
0.339813
0.346793
0.379256
0.411263
0.44595
0.524754
0.661434
0.750783
0.715763
0.586629
0.4607
0.486192
0.4717
0.457408
0.483162
0.508027
0.549883
0.759676
0.705714
0.711494
0.755202
0.946651
1.08351
1.10222
1.07139
1.00706
0.977297
0.988386
1.02891
1.1169
1.31657
1.51653
1.75992
1.80689
1.81694
1.87821
1.77176
1.76782
1.90998
1.91221
1.98745
2.34221
3.1646
3.44205
3.60374
3.50505
3.04203
2.47642
2.39067
2.5784
2.75629
2.99537
3.25096
3.34109
3.38428
3.60613
3.75593
4.06287
4.11908
4.00515
3.96507
4.60712
4.44027
4.80145
5.87602
4.59527
3.12488
2.87651
3.03938
4.63049
5.51696
4.79461
4.54295
2.47229
0.819951
0.321415
0.153232
0.0990717
0.0849342
0.0824195
0.0832368
0.0839312
0.0881974
0.103855
0.138688
0.225087
0.361456
0.406291
0.409868
0.410332
0.416691
0.398888
0.346986
0.288986
0.230763
0.19594
0.180834
0.173518
0.169261
0.165632
0.161922
0.157637
0.154803
0.151845
0.149835
0.146109
0.144428
0.144519
0.145692
0.148715
0.153244
0.157455
0.160998
0.164696
0.168596
0.172381
0.175381
0.177797
0.179858
0.181652
0.181834
0.18156
0.180767
0.178752
0.173784
0.16659
0.160515
0.156331
0.152521
0.150166
0.148992
0.148038
0.145556
0.14173
0.139369
0.138287
0.135232
0.135471
0.138637
0.1464
0.149417
0.143791
0.12736
0.11811
0.118201
0.119469
0.125406
0.134742
0.150752
0.191282
0.242196
0.259242
0.2684
0.281436
0.283511
0.281527
0.284622
0.289481
0.290339
0.300929
0.326493
0.39702
0.721496
1.53211
1.90677
2.22006
2.45271
2.30901
1.8753
1.13745
0.607628
0.409152
0.361196
0.33861
0.289024
0.27865
0.288321
0.292054
0.290147
0.283889
0.276978
0.276442
0.269068
0.272646
0.301129
0.369915
0.412767
0.495367
0.579161
0.534959
0.422608
0.485342
0.45993
0.422422
0.485987
0.519495
0.572729
0.911981
0.891652
0.75033
0.701799
0.736527
0.913656
1.06818
1.05022
0.970287
0.899196
0.871665
0.893358
0.933579
1.04735
1.17414
1.3282
1.57006
1.56636
1.60123
1.62274
1.56344
1.61186
1.75081
1.81358
2.00771
2.82055
3.34335
3.49345
3.35949
2.97376
2.37153
2.17541
2.16899
2.53941
2.84173
3.20345
3.29524
3.24497
3.25231
3.39352
3.59849
3.79658
3.88678
3.87524
4.68393
4.32743
4.49575
5.59042
4.68605
3.06086
2.73293
2.78606
3.37091
4.75584
4.63404
4.29813
3.46044
0.982158
0.325894
0.148355
0.0997638
0.0922875
0.0929409
0.0946821
0.0992663
0.118305
0.181085
0.269707
0.341379
0.373266
0.382912
0.365959
0.322108
0.287878
0.267704
0.237499
0.195439
0.177681
0.170884
0.168868
0.168133
0.167386
0.16478
0.160232
0.155374
0.152256
0.149876
0.148237
0.14682
0.146723
0.147894
0.150559
0.154908
0.160035
0.165977
0.172782
0.177303
0.178905
0.179478
0.179453
0.177625
0.177127
0.177721
0.179089
0.179857
0.179382
0.178709
0.177206
0.172665
0.167454
0.161426
0.153848
0.150353
0.148109
0.146005
0.141648
0.134042
0.130651
0.13003
0.129261
0.125011
0.115518
0.111985
0.114276
0.12226
0.121418
0.114956
0.106458
0.1057
0.106914
0.110616
0.121728
0.151124
0.194927
0.220419
0.251681
0.274783
0.277652
0.276051
0.277103
0.269378
0.275498
0.29286
0.332874
0.481216
0.974158
1.61678
1.84951
1.94114
1.93331
1.91521
1.65272
0.875048
0.46547
0.351297
0.309282
0.27579
0.254905
0.25316
0.255998
0.260684
0.262025
0.258619
0.244841
0.243671
0.236834
0.221517
0.222259
0.245338
0.256721
0.304941
0.392649
0.426763
0.393462
0.481518
0.450286
0.405779
0.49733
0.532148
0.574807
0.790296
0.878094
0.757064
0.67669
0.645329
0.669105
0.830981
0.896144
0.871858
0.872166
0.865771
0.861621
0.878781
0.919834
1.01453
1.10257
1.26999
1.37745
1.41555
1.5119
1.49373
1.50365
1.59371
1.68332
1.84119
2.2453
3.14261
3.36762
3.24076
2.83459
2.37893
2.17236
2.05635
2.37521
2.81916
3.11915
3.21651
3.2207
3.12165
3.1346
3.2346
3.57465
3.73996
4.05216
4.67195
4.45631
4.30778
4.89983
4.84338
3.3039
2.74969
2.7612
2.71994
3.68724
4.18898
4.15002
4.42891
1.04901
0.266418
0.1178
0.0974112
0.100583
0.110098
0.118844
0.134266
0.193118
0.301543
0.332887
0.334596
0.31879
0.280064
0.243639
0.227178
0.215257
0.201874
0.183495
0.169743
0.166906
0.166984
0.167635
0.167202
0.164089
0.155511
0.144532
0.140703
0.139201
0.139019
0.140424
0.143846
0.14774
0.151407
0.156919
0.163915
0.171047
0.177389
0.184455
0.189059
0.190371
0.190747
0.188446
0.182752
0.176766
0.171141
0.165137
0.162737
0.162212
0.163939
0.169606
0.170727
0.170204
0.168152
0.162399
0.156147
0.151382
0.147282
0.144174
0.135365
0.124929
0.122063
0.122298
0.12284
0.116566
0.101471
0.0966691
0.0972712
0.103173
0.109023
0.103632
0.0985413
0.097335
0.0991969
0.11023
0.137137
0.179142
0.20588
0.234925
0.255214
0.258661
0.257367
0.259934
0.271683
0.299633
0.319158
0.368169
0.552358
1.1732
1.54641
1.60027
1.47868
1.48319
1.56579
1.49274
0.92421
0.465907
0.351864
0.296861
0.257985
0.248171
0.246466
0.240675
0.23906
0.239924
0.224906
0.219823
0.226241
0.224873
0.202359
0.196662
0.195837
0.196504
0.219114
0.298331
0.385205
0.362962
0.445068
0.435693
0.40003
0.486299
0.589508
0.586521
0.588466
0.696307
0.686143
0.679175
0.633984
0.631777
0.669007
0.792597
0.838576
0.838739
0.862294
0.864887
0.874404
0.875322
0.905394
0.990276
1.09887
1.17484
1.26669
1.4559
1.42146
1.44771
1.51448
1.54643
1.71552
1.86148
2.50823
3.18444
3.14257
2.74144
2.37657
2.17414
2.01389
2.33733
2.72358
2.81559
2.82705
3.0449
3.04215
3.009
3.0511
3.34346
3.59401
4.11952
3.99456
5.16874
4.37015
4.47125
4.49341
3.25133
2.79148
2.72452
2.5632
3.25101
4.00077
4.0339
5.3727
1.17016
0.251464
0.113861
0.105724
0.131701
0.160751
0.178436
0.20301
0.247689
0.302665
0.316658
0.293012
0.22971
0.202618
0.192904
0.189632
0.18718
0.180079
0.1686
0.164309
0.16352
0.16383
0.164096
0.160998
0.151263
0.140804
0.137469
0.136957
0.138621
0.141241
0.144872
0.149375
0.153718
0.157823
0.162543
0.170177
0.179498
0.186208
0.189637
0.191765
0.192496
0.191398
0.187013
0.181826
0.177369
0.171561
0.161877
0.149564
0.14378
0.142344
0.143104
0.147493
0.154188
0.15986
0.161662
0.159963
0.155412
0.15123
0.149275
0.145334
0.135463
0.122342
0.116939
0.115429
0.114746
0.105919
0.0915707
0.0882132
0.0883192
0.0921162
0.0943116
0.0916572
0.092092
0.0969713
0.109871
0.139667
0.181386
0.207501
0.231099
0.24172
0.244102
0.245414
0.252306
0.286287
0.333752
0.344576
0.405988
0.661699
1.16411
1.33643
1.26873
1.10125
1.09389
1.20983
1.24567
0.998825
0.59032
0.431789
0.306241
0.255998
0.240142
0.231932
0.223457
0.21915
0.214023
0.201775
0.199477
0.215421
0.219256
0.194768
0.185085
0.178361
0.179555
0.186366
0.221965
0.302832
0.344197
0.419613
0.402639
0.383508
0.438487
0.602283
0.620969
0.565894
0.573503
0.641539
0.656948
0.616643
0.612249
0.678348
0.731908
0.792206
0.832714
0.909166
0.907266
0.890189
0.871738
0.87238
0.906018
1.01144
1.07975
1.13749
1.36401
1.41115
1.37155
1.38596
1.44409
1.57298
1.62505
2.12383
2.69122
2.77875
2.54202
2.47118
2.21506
1.97194
2.24864
2.49746
2.41709
2.29828
2.4513
2.76542
2.90032
2.98355
3.21383
3.41864
4.15543
3.92907
6.03845
4.74397
4.41502
3.81963
3.06891
2.7878
2.71864
2.606
3.07706
3.84714
3.78463
6.3348
1.29888
0.249352
0.117844
0.12669
0.180052
0.21277
0.225302
0.237709
0.254259
0.272101
0.263222
0.215335
0.177575
0.169542
0.168791
0.172246
0.173236
0.170543
0.158987
0.15364
0.153349
0.153409
0.153264
0.15128
0.149032
0.144675
0.145542
0.151078
0.159627
0.165232
0.168931
0.171478
0.172159
0.167184
0.162586
0.163291
0.168261
0.177482
0.178903
0.177651
0.172212
0.160258
0.147283
0.143838
0.143673
0.145325
0.145704
0.139471
0.130167
0.127486
0.127474
0.131015
0.137438
0.140633
0.142554
0.147155
0.15216
0.152156
0.15182
0.150549
0.146594
0.135023
0.12216
0.114283
0.109421
0.105176
0.0928947
0.0844314
0.0831293
0.0834768
0.0861584
0.0876241
0.0903581
0.0979965
0.116381
0.158131
0.199218
0.219746
0.233451
0.241884
0.244254
0.245633
0.252649
0.285891
0.330178
0.344119
0.435252
0.812333
1.09765
1.14198
0.982579
0.859676
0.85453
0.940825
1.01346
0.955105
0.713023
0.531405
0.323062
0.25202
0.230951
0.222783
0.215659
0.207094
0.200431
0.196634
0.191764
0.194381
0.207212
0.198439
0.182272
0.169258
0.168606
0.171917
0.180766
0.229721
0.328938
0.384831
0.370951
0.369202
0.403816
0.559362
0.62927
0.568287
0.556634
0.630133
0.635944
0.589758
0.583554
0.691469
0.721189
0.830592
0.905846
0.936131
0.950255
0.93131
0.885434
0.866148
0.874078
0.919167
1.04405
1.0704
1.21045
1.39158
1.34192
1.28805
1.33417
1.47443
1.55355
1.93514
2.34124
2.3534
2.25471
2.43279
2.41148
2.07694
2.00601
2.26132
2.343
2.52952
2.08008
2.24346
2.83603
2.96114
3.06326
3.20744
4.06043
4.14752
5.90047
5.21775
4.46126
3.56262
3.05338
2.78449
2.82534
2.5585
2.84485
3.64947
3.53113
7.17291
1.43705
0.258333
0.120184
0.136308
0.201148
0.232181
0.237876
0.238591
0.240561
0.230728
0.194632
0.161751
0.150161
0.150167
0.160658
0.167318
0.167679
0.160379
0.144198
0.139172
0.138618
0.139628
0.144521
0.150634
0.153673
0.156842
0.161551
0.16857
0.176649
0.180471
0.181234
0.178351
0.173702
0.169048
0.16098
0.156732
0.155518
0.159893
0.159158
0.153918
0.140159
0.127239
0.125168
0.125872
0.126645
0.128225
0.13161
0.131334
0.121431
0.115538
0.115354
0.12307
0.131341
0.133725
0.133235
0.13072
0.131434
0.139109
0.147903
0.149393
0.147812
0.140551
0.130038
0.121696
0.113165
0.103181
0.093188
0.083802
0.0809289
0.0807347
0.0823932
0.0855902
0.0901525
0.0997385
0.123509
0.172186
0.219217
0.242363
0.248826
0.249972
0.249923
0.251502
0.260377
0.280489
0.301992
0.330199
0.490517
0.896925
1.05229
1.01727
0.80847
0.723752
0.725752
0.786489
0.864467
0.863755
0.746868
0.565499
0.325986
0.244614
0.218383
0.209059
0.19952
0.1929
0.193354
0.196085
0.193334
0.190324
0.191128
0.198113
0.187967
0.170937
0.164421
0.166944
0.168698
0.185982
0.280271
0.316108
0.325183
0.361538
0.389989
0.464679
0.592957
0.545826
0.547943
0.599611
0.593547
0.535271
0.536463
0.672695
0.740686
0.902068
0.938932
0.919055
0.939113
0.930544
0.888873
0.872298
0.859425
0.865681
0.964025
1.02719
1.12619
1.28248
1.29697
1.25559
1.24593
1.43712
1.55071
1.92805
2.18774
2.15306
2.05798
2.12053
2.2845
2.18004
1.88834
1.97456
2.01662
2.38123
2.03983
1.82139
2.66255
2.96289
2.89284
2.93254
3.63917
3.95063
4.28704
5.47875
4.44561
3.42729
3.08631
3.08264
2.89269
2.4178
2.67253
3.45984
3.27387
8.17177
1.76707
0.318165
0.128714
0.140092
0.204051
0.232432
0.237591
0.232469
0.206535
0.17618
0.149007
0.13681
0.134033
0.13588
0.14601
0.154358
0.155176
0.146274
0.131151
0.127147
0.126484
0.129464
0.137842
0.148297
0.154018
0.15669
0.159219
0.161769
0.164886
0.169584
0.175185
0.174701
0.170519
0.161019
0.151264
0.1466
0.149624
0.154803
0.154401
0.148543
0.132287
0.119927
0.118868
0.122465
0.126828
0.127345
0.131547
0.133959
0.12587
0.114912
0.112593
0.119203
0.133118
0.136262
0.134052
0.12618
0.121454
0.12174
0.127513
0.137152
0.142672
0.140145
0.13146
0.124108
0.119731
0.106707
0.0940618
0.0843987
0.0810318
0.0807428
0.0818307
0.0850947
0.0905603
0.101838
0.126925
0.176395
0.228286
0.256156
0.270847
0.271937
0.268087
0.265613
0.267878
0.273407
0.276413
0.324731
0.532749
0.901714
0.992783
0.917741
0.740133
0.671939
0.663875
0.684049
0.737612
0.750102
0.718082
0.56366
0.32018
0.227858
0.199423
0.186411
0.177065
0.174139
0.185235
0.201132
0.203055
0.189198
0.187035
0.189647
0.188597
0.181033
0.167722
0.162719
0.170569
0.176099
0.223673
0.280713
0.291857
0.354013
0.388906
0.438527
0.522259
0.492961
0.536816
0.532619
0.519461
0.469916
0.483748
0.606943
0.758557
0.887806
0.873754
0.791792
0.801782
0.837641
0.833578
0.858485
0.853246
0.837922
0.892264
0.976569
1.04401
1.15406
1.17101
1.1996
1.19117
1.35007
1.50724
1.7821
1.94551
1.86582
1.81204
1.793
1.85916
2.00126
1.86375
1.89849
1.67511
1.90251
1.88111
1.4882
2.23869
2.95432
2.80495
2.65309
3.1976
3.7503
3.72593
5.34818
4.21393
3.34243
3.06216
3.26504
2.91842
2.46598
2.62915
3.3132
3.06178
9.16661
2.08136
0.402679
0.138241
0.135095
0.198908
0.231332
0.235654
0.221713
0.183815
0.145264
0.12964
0.125582
0.126767
0.131623
0.137198
0.138565
0.13481
0.126267
0.119386
0.117801
0.119162
0.124159
0.133773
0.142911
0.148221
0.148846
0.145133
0.137823
0.13643
0.138209
0.145579
0.153053
0.153257
0.149207
0.144421
0.143102
0.14737
0.150371
0.149531
0.143991
0.132343
0.120541
0.117793
0.119293
0.13119
0.136335
0.136896
0.140421
0.139653
0.121703
0.114722
0.117436
0.132852
0.145177
0.145125
0.13488
0.121704
0.116758
0.118345
0.123686
0.129671
0.132192
0.130787
0.125094
0.119106
0.111857
0.0977887
0.086243
0.0815565
0.0810514
0.0822022
0.0853937
0.0917462
0.102998
0.127411
0.177972
0.238242
0.273354
0.290823
0.298171
0.296438
0.289944
0.276101
0.27138
0.269449
0.328034
0.605177
0.888415
0.918406
0.78151
0.679214
0.640528
0.596084
0.590283
0.61669
0.624106
0.590442
0.488832
0.291123
0.206138
0.178924
0.168109
0.164206
0.170378
0.185438
0.203133
0.211311
0.212012
0.194895
0.189594
0.189767
0.189383
0.17957
0.162772
0.163347
0.170308
0.195287
0.257983
0.274312
0.339689
0.389092
0.430999
0.474313
0.465228
0.509037
0.483767
0.469627
0.431502
0.445981
0.521895
0.722039
0.713506
0.675655
0.642257
0.647172
0.695316
0.72703
0.803781
0.826402
0.818061
0.860805
0.922502
0.963036
1.06488
1.06945
1.11047
1.12671
1.18047
1.33341
1.50008
1.55239
1.68508
1.72898
1.59108
1.55887
1.72768
1.77149
1.84712
1.52183
1.63736
1.91518
1.34258
1.83416
2.83259
2.77882
2.47646
2.79195
3.48177
3.7438
5.06966
4.11802
3.25428
3.09716
3.2856
3.00753
2.46728
2.53865
3.08468
2.82621
10.2328
2.48328
0.541964
0.159238
0.132367
0.182184
0.222616
0.232025
0.222566
0.183423
0.141065
0.127252
0.124877
0.128321
0.134668
0.138001
0.137716
0.13111
0.122609
0.118375
0.117019
0.118676
0.123704
0.131407
0.135431
0.136093
0.134171
0.132493
0.132505
0.134635
0.136998
0.139435
0.141842
0.142699
0.142807
0.143212
0.144955
0.149059
0.149923
0.148579
0.143244
0.134576
0.123877
0.117584
0.116646
0.127615
0.15459
0.157003
0.15249
0.144638
0.137388
0.127921
0.127748
0.137476
0.152047
0.156681
0.151911
0.133583
0.119704
0.116817
0.119969
0.123259
0.124952
0.123528
0.12211
0.118422
0.113012
0.102769
0.0903122
0.0836571
0.0821303
0.0827113
0.0855104
0.0920789
0.103285
0.127776
0.17923
0.247887
0.297576
0.320533
0.329335
0.3288
0.319657
0.291288
0.273796
0.271448
0.347123
0.695635
0.864599
0.845302
0.673253
0.601786
0.5745
0.51519
0.486373
0.490265
0.495356
0.466973
0.384895
0.252671
0.187702
0.16677
0.160291
0.160183
0.167457
0.180406
0.192308
0.211137
0.225048
0.217567
0.197859
0.191936
0.19047
0.18505
0.167048
0.162446
0.166947
0.178142
0.227879
0.264213
0.325289
0.387888
0.425909
0.454506
0.457324
0.471852
0.442603
0.44285
0.418873
0.429659
0.484407
0.558585
0.546704
0.558553
0.553089
0.579348
0.642208
0.6873
0.722291
0.763531
0.768315
0.823841
0.885092
0.907403
1.00944
1.01853
1.05128
1.03565
1.04226
1.1426
1.27157
1.32087
1.63789
1.65519
1.48297
1.41147
1.62102
1.7536
1.63166
1.50999
1.4165
1.83461
1.37443
1.6124
2.70791
2.74992
2.42477
2.51351
3.12632
3.76832
4.88656
4.16432
3.10007
3.21555
3.29946
2.98052
2.43664
2.4937
2.75676
2.6693
11.4289
2.95947
0.751336
0.20876
0.130625
0.144752
0.201492
0.22408
0.22665
0.200458
0.14932
0.129275
0.12547
0.129731
0.142623
0.150144
0.149866
0.141529
0.129957
0.12433
0.121774
0.122409
0.125419
0.128966
0.12987
0.129685
0.128895
0.12974
0.134689
0.145878
0.153365
0.154506
0.153561
0.150558
0.14865
0.149406
0.150577
0.150096
0.147803
0.144828
0.141033
0.13417
0.125285
0.117355
0.11323
0.118761
0.152645
0.1728
0.167298
0.154624
0.144572
0.14548
0.151034
0.154035
0.159124
0.161157
0.159542
0.144327
0.12558
0.118142
0.1191
0.122115
0.123617
0.121372
0.113445
0.110255
0.108085
0.103026
0.093857
0.0864444
0.0836254
0.0835078
0.0851867
0.0912025
0.102526
0.126581
0.177972
0.251828
0.314985
0.356676
0.369559
0.369609
0.36111
0.325998
0.288985
0.286728
0.39692
0.717782
0.825906
0.767835
0.59269
0.531434
0.508177
0.451442
0.401821
0.391157
0.385903
0.364196
0.31209
0.223324
0.180098
0.163513
0.15876
0.15955
0.163272
0.16946
0.176527
0.195606
0.222072
0.222594
0.212772
0.199531
0.192853
0.191563
0.18406
0.164747
0.168231
0.172462
0.212501
0.244816
0.310372
0.382306
0.425087
0.448841
0.456177
0.447924
0.420604
0.433171
0.412827
0.418722
0.447613
0.45556
0.461544
0.479941
0.490606
0.54457
0.630629
0.676503
0.686405
0.719405
0.720071
0.80199
0.854643
0.865487
0.97546
0.981639
0.979421
0.938115
0.96103
1.04199
1.13567
1.26812
1.52926
1.43331
1.32204
1.33958
1.56845
1.70294
1.4383
1.45136
1.27011
1.51766
1.48965
1.56127
2.48147
2.64563
2.42163
2.39502
2.80997
3.74371
4.39632
4.1957
3.03348
3.1948
3.16761
2.91685
2.52733
2.61409
2.60826
2.64337
12.9014
3.59608
1.10935
0.338042
0.148134
0.130258
0.152377
0.202055
0.221324
0.216523
0.189385
0.144702
0.129535
0.128327
0.134964
0.148423
0.158443
0.162424
0.158679
0.151152
0.14416
0.138443
0.134145
0.130931
0.126824
0.119004
0.115647
0.116753
0.121843
0.136324
0.150084
0.157176
0.159985
0.159322
0.156028
0.15365
0.152749
0.150912
0.147574
0.14293
0.139881
0.134917
0.125939
0.117954
0.110649
0.113613
0.146221
0.175117
0.169841
0.154752
0.150152
0.15437
0.157945
0.156018
0.155759
0.155882
0.151951
0.141443
0.12239
0.115459
0.11385
0.118602
0.121427
0.12079
0.113938
0.103951
0.100486
0.0986856
0.0933498
0.0870354
0.0843224
0.083655
0.0840517
0.0866585
0.0969226
0.119841
0.168584
0.251227
0.326464
0.381794
0.405446
0.410859
0.408998
0.385975
0.352646
0.356925
0.52764
0.710954
0.761077
0.677122
0.541474
0.490858