/*--------------------------------*- C++ -*----------------------------------*\
| =========                 |                                                 |
| \\      /  F ield         | OpenFOAM: The Open Source CFD Toolbox           |
|  \\    /   O peration     | Version:  dev                                   |
|   \\  /    A nd           | Web:      http://www.openfoam.org               |
|    \\/     M anipulation  |                                                 |
\*---------------------------------------------------------------------------*/
FoamFile
{
    version     2.0;
    format      ascii;
    class       volScalarField;
    object      muSgs;
    location    "9.155";
}
// * * * * * * * * * * * * * * * * * * * * * * * * * * * * * * * * * * * * * //

dimensions      [1 -1 -1 0 0 0 0];

internalField   nonuniform List<scalar> 
12225
(
0.00020749
0.000236579
0.000194357
0.000207778
0.000167924
0.000211528
0.000173164
0.000225331
0.000185941
0.000241869
0.000200961
0.000256062
0.000221686
0.00025838
0.000249356
0.000258848
0.00027388
0.000308208
9.71761e-05
0.000181839
0.000163288
0.000180435
0.000149904
0.000173146
0.000144338
0.000173703
0.000147528
0.0001777
0.000155472
0.000177873
0.000170918
0.000172685
0.000197775
0.000191774
0.000222791
0.00028197
3.0058e-05
0.000104752
0.000106091
0.000130934
0.000121083
0.000129962
0.000121822
0.000123497
0.00012077
0.000115213
0.000117119
0.00010428
0.000112498
9.10942e-05
0.0001131
8.71997e-05
0.00012589
0.000148422
9.12238e-06
5.03828e-05
5.75518e-05
7.26088e-05
8.37765e-05
8.29928e-05
9.29481e-05
8.64846e-05
9.61709e-05
8.53102e-05
9.12293e-05
7.67152e-05
8.15416e-05
6.52093e-05
7.49561e-05
5.85968e-05
8.57929e-05
8.45243e-05
2.75624e-06
2.34382e-05
2.97635e-05
3.8245e-05
5.20748e-05
5.36405e-05
6.22028e-05
5.98018e-05
6.43185e-05
5.89861e-05
6.34441e-05
5.46181e-05
5.90042e-05
4.84206e-05
5.56063e-05
4.13608e-05
6.02138e-05
5.822e-05
7.9199e-06
2.54255e-05
2.71567e-05
3.19795e-05
3.75335e-05
3.76961e-05
4.09041e-05
3.86784e-05
4.15692e-05
3.80851e-05
4.21904e-05
3.63867e-05
4.07644e-05
3.39075e-05
4.00523e-05
3.39973e-05
4.76968e-05
4.3992e-05
6.26214e-06
9.67025e-06
1.58026e-05
1.5957e-05
2.07362e-05
1.95628e-05
2.30698e-05
2.11063e-05
2.44996e-05
2.21695e-05
2.61174e-05
2.30185e-05
2.64397e-05
2.37403e-05
2.73718e-05
2.51345e-05
3.27578e-05
3.54668e-05
2.77418e-06
3.06175e-06
6.37238e-06
6.24055e-06
9.2897e-06
8.85451e-06
1.12048e-05
1.04486e-05
1.25222e-05
1.17542e-05
1.41082e-05
1.32683e-05
1.51931e-05
1.46746e-05
1.67561e-05
1.6203e-05
1.79573e-05
2.11429e-05
1.63271e-06
1.8041e-06
3.35327e-06
3.47911e-06
5.47927e-06
5.55652e-06
7.37272e-06
7.42906e-06
9.03148e-06
9.31221e-06
1.1014e-05
1.13865e-05
1.27746e-05
1.31468e-05
1.41879e-05
1.60523e-05
1.67305e-05
1.74508e-05
1.23005e-06
1.83686e-06
2.84396e-06
3.10789e-06
3.89061e-06
4.46569e-06
5.83088e-06
6.80929e-06
8.63284e-06
9.4661e-06
1.10036e-05
1.24105e-05
1.31717e-05
1.41851e-05
1.49983e-05
1.67625e-05
1.72784e-05
1.79026e-05
1.50961e-06
2.72871e-06
3.27988e-06
3.57839e-06
4.13457e-06
5.25981e-06
6.31631e-06
8.37393e-06
9.57398e-06
1.20535e-05
1.3019e-05
1.52562e-05
1.59303e-05
1.74703e-05
1.8188e-05
1.93178e-05
1.96158e-05
1.99269e-05
2.90305e-06
3.32677e-06
3.77425e-06
4.33804e-06
5.20131e-06
7.00141e-06
8.23622e-06
1.09602e-05
1.2481e-05
1.59645e-05
1.76853e-05
2.0954e-05
2.25587e-05
2.40953e-05
2.46634e-05
2.50265e-05
2.5121e-05
2.47337e-05
4.14253e-06
4.30292e-06
4.48542e-06
5.35447e-06
6.94884e-06
1.00911e-05
1.21307e-05
1.60489e-05
1.80926e-05
2.19978e-05
2.49269e-05
2.79559e-05
2.98814e-05
3.11233e-05
3.18222e-05
3.19764e-05
3.19397e-05
3.15073e-05
5.21807e-06
5.42088e-06
5.87527e-06
7.61561e-06
1.02906e-05
1.48939e-05
1.77846e-05
2.27468e-05
2.71056e-05
3.14042e-05
3.48349e-05
3.75759e-05
3.94304e-05
4.04805e-05
4.09476e-05
4.08795e-05
4.06187e-05
3.99942e-05
6.71649e-06
7.60268e-06
9.03322e-06
1.19658e-05
1.48238e-05
1.86275e-05
2.42357e-05
3.20037e-05
3.88152e-05
4.44424e-05
4.87257e-05
5.16607e-05
5.33952e-05
5.41565e-05
5.41875e-05
5.37348e-05
5.30192e-05
5.20705e-05
1.15906e-05
1.29743e-05
1.44548e-05
1.71867e-05
2.14257e-05
2.79945e-05
3.74168e-05
4.58878e-05
5.27889e-05
5.79989e-05
6.15909e-05
6.37359e-05
6.4648e-05
6.46331e-05
6.40031e-05
6.30397e-05
6.19275e-05
6.07371e-05
1.44901e-05
1.62123e-05
1.78762e-05
2.08483e-05
2.5519e-05
3.32898e-05
4.42368e-05
5.36419e-05
6.10169e-05
6.63514e-05
6.98217e-05
7.17022e-05
7.23245e-05
7.20085e-05
7.1107e-05
6.99149e-05
6.86165e-05
6.72868e-05
1.47964e-05
1.62961e-05
1.78441e-05
2.07549e-05
2.52211e-05
3.24762e-05
4.36178e-05
5.33542e-05
6.09591e-05
6.64725e-05
7.00581e-05
7.19859e-05
7.26412e-05
7.23303e-05
7.14262e-05
7.02171e-05
6.89124e-05
6.75823e-05
1.23376e-05
1.35023e-05
1.44484e-05
1.66367e-05
2.05979e-05
2.68273e-05
3.70855e-05
4.64727e-05
5.37902e-05
5.91667e-05
6.27841e-05
6.48679e-05
6.57287e-05
6.56458e-05
6.49529e-05
6.38953e-05
6.27294e-05
6.15403e-05
9.5627e-06
1.06649e-05
1.17325e-05
1.36104e-05
1.60647e-05
1.97164e-05
2.59114e-05
3.44655e-05
4.16107e-05
4.70994e-05
5.10096e-05
5.35381e-05
5.48373e-05
5.51815e-05
5.48574e-05
5.40832e-05
5.31289e-05
5.21633e-05
6.89764e-06
7.8852e-06
9.00846e-06
1.04559e-05
1.22573e-05
1.50241e-05
1.97284e-05
2.50381e-05
2.968e-05
3.35626e-05
3.65858e-05
3.87519e-05
4.00432e-05
4.05896e-05
4.05678e-05
4.0109e-05
3.94321e-05
3.87494e-05
4.38868e-06
4.99202e-06
5.95993e-06
7.832e-06
9.14717e-06
1.0668e-05
1.31089e-05
1.61904e-05
1.96455e-05
2.31528e-05
2.62166e-05
2.8489e-05
2.98771e-05
3.04445e-05
3.04655e-05
3.01233e-05
2.96091e-05
2.90724e-05
2.56371e-06
2.97326e-06
3.52831e-06
4.93803e-06
7.10939e-06
8.05164e-06
8.83267e-06
1.00327e-05
1.22631e-05
1.51206e-05
1.74123e-05
1.92079e-05
2.03872e-05
2.13432e-05
2.1846e-05
2.23391e-05
2.2474e-05
2.26038e-05
2.34373e-06
2.67314e-06
2.92178e-06
3.56001e-06
4.7929e-06
5.60402e-06
6.39833e-06
7.69385e-06
9.86478e-06
1.2305e-05
1.39909e-05
1.55465e-05
1.66471e-05
1.79326e-05
1.87832e-05
1.96189e-05
2.01455e-05
2.06212e-05
1.3881e-06
2.00381e-06
2.77172e-06
3.85677e-06
5.44321e-06
7.02301e-06
8.60486e-06
1.15123e-05
1.38455e-05
1.5731e-05
1.65728e-05
1.77124e-05
1.87793e-05
2.03936e-05
2.15996e-05
2.28425e-05
2.37273e-05
2.445e-05
1.02253e-06
3.36964e-06
6.66925e-06
1.0829e-05
1.54376e-05
1.95009e-05
2.40711e-05
2.88828e-05
3.13169e-05
3.23876e-05
3.25102e-05
3.30216e-05
3.39191e-05
3.54709e-05
3.64753e-05
3.76992e-05
3.81743e-05
3.86103e-05
2.69886e-06
1.3081e-05
2.57473e-05
3.79708e-05
4.69709e-05
5.38253e-05
5.95092e-05
6.35906e-05
6.48942e-05
6.45838e-05
6.38527e-05
6.35653e-05
6.38472e-05
6.42733e-05
6.44403e-05
6.45329e-05
6.40252e-05
6.3664e-05
1.44775e-05
4.9732e-05
8.27524e-05
9.91292e-05
0.000108734
0.00011376
0.000115839
0.000114833
0.000112623
0.000109794
0.00010711
0.000104945
0.000102949
0.000100931
9.87886e-05
9.64423e-05
9.37378e-05
9.13313e-05
7.09028e-05
0.000157064
0.000180787
0.000182886
0.000178548
0.0001725
0.000164825
0.000157241
0.000150707
0.000145016
0.000140057
0.000135154
0.000130396
0.000125466
0.000120729
0.000115829
0.000111245
0.000107216
0.000226491
0.00027776
0.000265524
0.000240871
0.000221582
0.000210576
0.000204605
0.000200889
0.000198803
0.000197085
0.000195218
0.00019273
0.000189601
0.00018583
0.000181737
0.000177341
0.000172609
0.000166987
2.27201e-05
2.28332e-05
2.33392e-05
2.44617e-05
2.61458e-05
2.82785e-05
3.08097e-05
3.36997e-05
3.69507e-05
4.06675e-05
4.4862e-05
4.94556e-05
5.43406e-05
5.92001e-05
6.41852e-05
6.97514e-05
7.58032e-05
8.16924e-05
8.68901e-05
9.19475e-05
9.80264e-05
0.0001055
0.000113593
0.000121979
0.000131319
0.000142009
0.000153093
0.000164015
0.000174638
0.000184501
0.000193394
0.000201629
0.000209541
0.000217152
0.00022424
0.000230678
0.00023647
0.000241561
0.000245812
0.000249225
0.000250993
0.000251811
0.000252102
0.000251542
0.000250086
0.000248136
0.000246325
0.000244593
0.000242746
0.000240399
0.000237923
0.000235566
0.000233459
0.000231672
0.000230872
0.000230539
0.000230385
0.000229996
0.000229448
0.000229222
0.000228695
0.000227963
0.000227023
0.000226295
0.000225326
0.000223941
0.000222031
0.000219581
0.00021682
0.000214241
0.000212029
0.000210984
0.000210911
0.000212818
0.000213646
0.000214032
0.000214175
0.000212998
0.000211176
0.0002098
0.000208047
0.000205192
0.000202128
0.000200298
0.000198907
0.00019641
0.000193125
0.000189809
0.000188121
0.000186729
0.000187915
0.000190664
0.000190921
0.000188589
0.000187608
0.000187615
0.000187828
0.000189241
0.000204573
0.000242257
0.000268836
0.000281894
0.000283467
0.0002781
0.000268767
0.000255662
0.000250603
0.000249032
0.000245774
0.000238234
0.000222107
0.000191586
0.000157499
0.00014758
0.00015624
0.000146826
0.000140726
0.000125119
0.000118777
0.000120222
0.000127297
0.000138095
0.000158277
0.000178285
0.0002023
0.000228447
0.000253631
0.000271842
0.000295063
0.000316642
0.000334617
0.00033943
0.000340219
0.000337247
0.000336002
0.000333315
0.000334079
0.000336493
0.000342178
0.000350655
0.000360633
0.000370018
0.000380065
0.000388431
0.000397215
0.000404419
0.000409834
0.000412125
0.000413524
0.000413098
0.000419051
0.000440437
0.000473977
0.000510125
0.000509923
0.0004673
0.000445974
0.000448003
0.00045545
0.000457301
0.000457751
0.000463213
0.000472521
0.000474457
0.000464995
0.000431861
0.000393053
0.000379698
0.000376826
0.00037555
0.000362561
0.000354409
0.00039447
0.000439056
0.000411998
0.000394583
0.000434409
0.000466135
0.00046659
0.000485486
4.12106e-05
3.11969e-05
2.57117e-05
2.40373e-05
2.37629e-05
2.39342e-05
2.44426e-05
2.53473e-05
2.6465e-05
2.78344e-05
2.96003e-05
3.16652e-05
3.41073e-05
3.69453e-05
4.04249e-05
4.4863e-05
4.95385e-05
5.37237e-05
5.81681e-05
6.38688e-05
7.18169e-05
8.20454e-05
9.337e-05
0.000103635
0.000112415
0.000117058
0.000119509
0.000121122
0.000121984
0.00012183
0.000121433
0.000120417
0.000119216
0.00011802
0.000116102
0.000114056
0.000111491
0.000108807
0.000105956
0.000102372
9.83521e-05
9.42127e-05
8.94074e-05
8.50647e-05
8.24191e-05
8.09521e-05
8.01901e-05
7.97117e-05
7.92095e-05
7.87361e-05
7.89532e-05
8.00448e-05
8.15056e-05
8.41539e-05
8.83121e-05
9.36335e-05
9.80491e-05
9.97094e-05
0.000102029
0.000104774
0.00010642
0.000107913
0.000109437
0.000111617
0.000112538
0.000112605
0.000111077
0.000108165
0.000104848
0.000102186
0.000100621
0.00010051
0.000105058
0.000112556
0.000120045
0.000126194
0.000133772
0.000137419
0.000139091
0.000142535
0.000145818
0.000145244
0.000142819
0.000140635
0.000137928
0.000132445
0.000128065
0.000121252
0.000112092
0.000108105
0.000109655
0.000119289
0.000126989
0.000129706
0.000143179
0.000172683
0.000203612
0.000228235
0.000231668
0.000225558
0.000220538
0.000214129
0.000192356
0.000168534
0.000158001
0.000155262
0.000155405
0.000153425
0.000148194
0.000137852
0.00011841
0.000104153
0.000102206
0.000112183
0.000116389
0.000103815
0.000105832
0.000109246
0.00010917
0.000105315
0.000107529
0.000109328
0.00011154
0.000118682
0.000124876
0.000141053
0.000158899
0.00017127
0.000183253
0.000197372
0.000221092
0.00024027
0.000255191
0.000267614
0.000276083
0.000284161
0.000293477
0.000294839
0.000297035
0.000298169
0.000301637
0.000305685
0.000310792
0.00031721
0.000322246
0.000329518
0.00033366
0.000333592
0.000330107
0.00033816
0.000358316
0.000381699
0.000401354
0.000396436
0.000350667
0.000346967
0.000364278
0.000390563
0.000404026
0.00041268
0.000421545
0.000435647
0.000454704
0.000459923
0.000450164
0.000421102
0.000387433
0.0003977
0.000398365
0.000385316
0.000362043
0.000385454
0.000412854
0.000408401
0.000387055
0.000391606
0.000425003
0.000438725
0.000442991
0.00044612
6.35319e-05
4.22347e-05
3.02906e-05
2.53068e-05
2.36545e-05
2.32181e-05
2.321e-05
2.33885e-05
2.38637e-05
2.46802e-05
2.57496e-05
2.74204e-05
2.95485e-05
3.21976e-05
3.51812e-05
3.89526e-05
4.42784e-05
5.1303e-05
5.95334e-05
6.87675e-05
7.84309e-05
8.46217e-05
8.79325e-05
8.87998e-05
8.68714e-05
8.21147e-05
7.77469e-05
7.41998e-05
6.97003e-05
6.67143e-05
6.35162e-05
6.04504e-05
5.82214e-05
5.52649e-05
5.28624e-05
5.04022e-05
4.80356e-05
4.6411e-05
4.45116e-05
4.30487e-05
4.17722e-05
4.07711e-05
4.00448e-05
3.95769e-05
3.93306e-05
3.92597e-05
3.92879e-05
3.93286e-05
3.92542e-05
3.9183e-05
3.92702e-05
3.96748e-05
4.03796e-05
4.1373e-05
4.29881e-05
4.52024e-05
4.69225e-05
4.76725e-05
4.8748e-05
5.00797e-05
5.07752e-05
5.15897e-05
5.26168e-05
5.46288e-05
5.65525e-05
5.71204e-05
5.68673e-05
5.5604e-05
5.38512e-05
5.20511e-05
5.10895e-05
5.10861e-05
5.36005e-05
5.86915e-05
6.47612e-05
6.96065e-05
7.50033e-05
8.01507e-05
8.37753e-05
8.79107e-05
9.42664e-05
9.89561e-05
0.000101679
0.000103826
0.000103145
9.85951e-05
9.25228e-05
8.41813e-05
7.73155e-05
7.51617e-05
7.87595e-05
8.69826e-05
0.000102845
0.000138997
0.000178549
0.000190082
0.000209653
0.000219513
0.000196714
0.000159256
0.000146472
0.000134019
0.000107688
9.90735e-05
0.000100732
0.000110411
0.000113408
0.000112965
0.000110288
0.000103467
9.03466e-05
8.70791e-05
9.15579e-05
0.000104991
0.000108584
9.30382e-05
8.97267e-05
8.8325e-05
9.53178e-05
9.7075e-05
9.92088e-05
9.56032e-05
9.09602e-05
9.43853e-05
9.54109e-05
0.000101117
0.000112845
0.000122937
0.000130463
0.000135121
0.000144549
0.000155755
0.00016745
0.000178792
0.00018909
0.000199028
0.000215386
0.000231285
0.000239682
0.000240241
0.000242325
0.000244308
0.000240669
0.000246276
0.000248286
0.00025322
0.000259884
0.000262638
0.000262552
0.000273402
0.000291178
0.000320741
0.000345534
0.000304345
0.000267918
0.000262429
0.000281699
0.000307933
0.0003204
0.000333084
0.000344124
0.000359031
0.000376671
0.000389875
0.000391942
0.000382764
0.000371059
0.00037869
0.00039698
0.000383003
0.000367813
0.000386366
0.000401996
0.000340178
0.000314773
0.000310053
0.000401761
0.000402767
0.000388072
0.000382904
8.6783e-05
5.3715e-05
3.70828e-05
2.85465e-05
2.47402e-05
2.35373e-05
2.32982e-05
2.33578e-05
2.37671e-05
2.48085e-05
2.61584e-05
2.75347e-05
2.94948e-05
3.23492e-05
3.62282e-05
4.1695e-05
5.02835e-05
6.11404e-05
6.89474e-05
7.4055e-05
7.66126e-05
7.69134e-05
7.14191e-05
6.34285e-05
5.88838e-05
5.33607e-05
4.99194e-05
4.6519e-05
4.37989e-05
4.22964e-05
4.03817e-05
3.91739e-05
3.81221e-05
3.67963e-05
3.61676e-05
3.57817e-05
3.55212e-05
3.5409e-05
3.54174e-05
3.56662e-05
3.60579e-05
3.65259e-05
3.70888e-05
3.77209e-05
3.80049e-05
3.80793e-05
3.80909e-05
3.79934e-05
3.76585e-05
3.71394e-05
3.69489e-05
3.68676e-05
3.68511e-05
3.69288e-05
3.71772e-05
3.75937e-05
3.7892e-05
3.81023e-05
3.8183e-05
3.82311e-05
3.84038e-05
3.86371e-05
3.94477e-05
4.12958e-05
4.29959e-05
4.33341e-05
4.30462e-05
4.21383e-05
4.05281e-05
3.88634e-05
3.84881e-05
3.8827e-05
4.04256e-05
4.38794e-05
4.78179e-05
5.01507e-05
5.30108e-05
5.74602e-05
6.27422e-05
6.5159e-05
6.73261e-05
7.0323e-05
7.24269e-05
7.70979e-05
8.12483e-05
8.08832e-05
8.01276e-05
7.31869e-05
6.67057e-05
6.88645e-05
8.21518e-05
0.000103302
0.000139665
0.000177196
0.00018731
0.000190926
0.00019732
0.000177319
0.000126339
0.0001055
9.77088e-05
8.60026e-05
7.27889e-05
7.0402e-05
7.43192e-05
7.99194e-05
8.09813e-05
8.04141e-05
8.09029e-05
8.31543e-05
8.18483e-05
8.24017e-05
8.9402e-05
0.000102173
0.000104972
9.45096e-05
8.72595e-05
8.04467e-05
8.56963e-05
8.71283e-05
9.03252e-05
8.74724e-05
8.49528e-05
8.97927e-05
9.39859e-05
9.75025e-05
0.000103495
0.000114462
0.000126182
0.000127585
0.00012821
0.000129571
0.000132051
0.000136837
0.000143196
0.000148844
0.000161913
0.00017856
0.000194068
0.000203291
0.000201349
0.000209548
0.000205684
0.000205535
0.000211118
0.000214668
0.000218933
0.000232111
0.000238842
0.000255199
0.000264416
0.000275019
0.000289077
0.000255666
0.000246058
0.000235816
0.000239383
0.00026564
0.000278321
0.000290038
0.000297642
0.000308811
0.000329042
0.000344764
0.000350279
0.000357399
0.000356801
0.000331993
0.000384929
0.000386959
0.000370446
0.000368504
0.000347382
0.000287305
0.000272975
0.000285791
0.000330807
0.000393512
0.000369073
0.000351312
0.000111013
6.5901e-05
4.46997e-05
3.25545e-05
2.67156e-05
2.44747e-05
2.40974e-05
2.4223e-05
2.48314e-05
2.57234e-05
2.681e-05
2.86397e-05
3.20274e-05
3.82133e-05
4.70867e-05
5.61777e-05
6.16743e-05
6.53873e-05
6.81923e-05
6.95783e-05
6.6533e-05
5.94273e-05
5.21391e-05
4.63619e-05
4.33537e-05
4.10629e-05
3.93552e-05
3.84235e-05
3.76506e-05
3.72461e-05
3.66512e-05
3.62756e-05
3.57156e-05
3.52374e-05
3.52359e-05
3.53346e-05
3.55686e-05
3.60008e-05
3.66539e-05
3.73903e-05
3.81206e-05
3.88326e-05
3.95585e-05
4.02102e-05
4.0625e-05
4.07972e-05
4.08462e-05
4.08375e-05
4.05728e-05
4.01014e-05
3.96353e-05
3.909e-05
3.8248e-05
3.77151e-05
3.75541e-05
3.74713e-05
3.74171e-05
3.74326e-05
3.74158e-05
3.71859e-05
3.69524e-05
3.69074e-05
3.72876e-05
3.84051e-05
4.01114e-05
4.06686e-05
4.04903e-05
3.98312e-05
3.79445e-05
3.59329e-05
3.5709e-05
3.59885e-05
3.6708e-05
3.83696e-05
4.05866e-05
4.29308e-05
4.74114e-05
5.37847e-05
5.65533e-05
5.7219e-05
5.79724e-05
5.94288e-05
6.05023e-05
6.22142e-05
6.43398e-05
6.49972e-05
6.66318e-05
6.43597e-05
6.4179e-05
7.55785e-05
0.00011277
0.000141895
0.000161555
0.000176892
0.000179776
0.000173907
0.000158306
0.000116122
8.74988e-05
7.75758e-05
7.30623e-05
6.4838e-05
6.174e-05
6.18974e-05
6.35059e-05
6.36968e-05
6.31898e-05
6.27089e-05
6.37416e-05
6.67984e-05
7.00491e-05
7.42127e-05
8.2597e-05
9.34903e-05
9.89592e-05
9.58443e-05
8.82499e-05
7.67023e-05
8.25164e-05
8.02689e-05
7.84894e-05
8.43886e-05
8.65496e-05
9.02033e-05
0.000107052
0.000103352
0.000103594
0.000107499
0.000121406
0.00013308
0.000131077
0.000127521
0.000124171
0.000122585
0.000122643
0.000124306
0.000131352
0.000145933
0.000156677
0.000174906
0.000176953
0.000184491
0.000185835
0.000183289
0.000185741
0.000192824
0.000194288
0.000212177
0.00022128
0.000245134
0.000262399
0.000262023
0.000262661
0.000241548
0.000224744
0.000212928
0.000216059
0.000243745
0.000262815
0.00027743
0.000279082
0.000275741
0.000293694
0.000314934
0.000326671
0.000339506
0.000346614
0.000285792
0.000360189
0.000383299
0.000367144
0.000370613
0.000308835
0.000255417
0.000248099
0.000253821
0.000310365
0.000369574
0.000359264
0.000335477
0.000135481
7.87471e-05
5.03022e-05
3.52225e-05
2.83967e-05
2.63041e-05
2.5989e-05
2.60892e-05
2.62285e-05
2.68539e-05
2.88753e-05
3.3126e-05
4.23712e-05
5.55043e-05
5.96797e-05
5.99657e-05
6.00538e-05
6.07955e-05
5.96175e-05
5.56559e-05
5.07822e-05
4.51876e-05
4.1391e-05
3.96244e-05
3.89184e-05
3.85204e-05
3.82657e-05
3.79055e-05
3.7472e-05
3.71881e-05
3.68903e-05
3.67397e-05
3.63294e-05
3.61871e-05
3.62607e-05
3.64505e-05
3.69e-05
3.75321e-05
3.81374e-05
3.86423e-05
3.91441e-05
3.97046e-05
4.02457e-05
4.06703e-05
4.10512e-05
4.13652e-05
4.16298e-05
4.17227e-05
4.17272e-05
4.16439e-05
4.14397e-05
4.08968e-05
4.00676e-05
3.93236e-05
3.88194e-05
3.83232e-05
3.79856e-05
3.7777e-05
3.76352e-05
3.73455e-05
3.69227e-05
3.66787e-05
3.66074e-05
3.62883e-05
3.64215e-05
3.69185e-05
3.7957e-05
3.84446e-05
3.78901e-05
3.5844e-05
3.44487e-05
3.42474e-05
3.4436e-05
3.54384e-05
3.69612e-05
3.9402e-05
4.46349e-05
5.03892e-05
5.23778e-05
5.37932e-05
5.55659e-05
5.59262e-05
5.59794e-05
5.68219e-05
5.74927e-05
5.75108e-05
5.85269e-05
6.07582e-05
6.68261e-05
9.01414e-05
0.000132912
0.000148898
0.000159816
0.000166257
0.000160287
0.000145159
0.000113603
8.33895e-05
6.94819e-05
6.49394e-05
6.21206e-05
5.79687e-05
5.78911e-05
5.91249e-05
5.90432e-05
5.89709e-05
5.82087e-05
5.73178e-05
5.72769e-05
5.64138e-05
5.65795e-05
5.97547e-05
6.7669e-05
7.23116e-05
7.89753e-05
8.54991e-05
8.24805e-05
7.32195e-05
8.20898e-05
7.93326e-05
7.38872e-05
8.34982e-05
8.76401e-05
9.2338e-05
0.000117049
0.000119302
0.000110482
0.000106656
0.0001065
0.000121705
0.0001341
0.000130176
0.000122866
0.0001181
0.00011722
0.000117065
0.000117805
0.000127977
0.000135218
0.000150215
0.000160653
0.000170284
0.000171367
0.000170889
0.000174727
0.000176693
0.000177325
0.000196105
0.000211827
0.000229406
0.000254685
0.000267483
0.000256893
0.000232585
0.000208463
0.000198398
0.000191344
0.000226264
0.000255227
0.000271866
0.000273877
0.000265949
0.000266308
0.000290272
0.000308641
0.000331889
0.000336345
0.000269121
0.000320046
0.000372635
0.000360843
0.000372343
0.000324178
0.000266191
0.000251558
0.000261635
0.000263206
0.000319566
0.000344511
0.000325829
0.000160222
8.6799e-05
5.10245e-05
3.47851e-05
2.8413e-05
2.7251e-05
2.72722e-05
2.74608e-05
2.82485e-05
3.06428e-05
3.73302e-05
4.64888e-05
5.37052e-05
5.70101e-05
5.77882e-05
5.66387e-05
5.34585e-05
5.04037e-05
4.84877e-05
4.55764e-05
4.12566e-05
3.90703e-05
3.82876e-05
3.82137e-05
3.83108e-05
3.83326e-05
3.81183e-05
3.76541e-05
3.71714e-05
3.69057e-05
3.67142e-05
3.65464e-05
3.64362e-05
3.65244e-05
3.67061e-05
3.71069e-05
3.77098e-05
3.8408e-05
3.92174e-05
4.00903e-05
4.06598e-05
4.09416e-05
4.10902e-05
4.1165e-05
4.10609e-05
4.10974e-05
4.12519e-05
4.14923e-05
4.16392e-05
4.1632e-05
4.16106e-05
4.14897e-05
4.09676e-05
4.03263e-05
3.96181e-05
3.8716e-05
3.83159e-05
3.80423e-05
3.77495e-05
3.71177e-05
3.60562e-05
3.56216e-05
3.56223e-05
3.56226e-05
3.50723e-05
3.36638e-05
3.309e-05
3.35101e-05
3.49091e-05
3.50084e-05
3.41181e-05
3.26322e-05
3.23337e-05
3.24818e-05
3.29757e-05
3.46396e-05
3.88535e-05
4.445e-05
4.76613e-05
5.15794e-05
5.44223e-05
5.48351e-05
5.48179e-05
5.54127e-05
5.50363e-05
5.5883e-05
5.7892e-05
6.1639e-05
7.38322e-05
0.000105746
0.000137314
0.000147077
0.000150565
0.000148489
0.000146201
0.000133899
9.56394e-05
7.23655e-05
6.4051e-05
5.955e-05
5.58784e-05
5.45251e-05
5.46881e-05
5.47302e-05
5.49008e-05
5.54625e-05
5.52403e-05
5.39584e-05
5.39879e-05
5.33826e-05
5.1646e-05
5.1399e-05
5.4523e-05
5.63664e-05
6.12889e-05
6.91371e-05
7.2473e-05
7.09014e-05
7.948e-05
7.85572e-05
7.43114e-05
8.39609e-05
8.83646e-05
9.3446e-05
0.000104386
0.000117679
0.000111673
0.00010894
0.00010119
0.000102047
0.000117502
0.000122893
0.000119945
0.000117635
0.000118397
0.000119581
0.000116401
0.000120977
0.000122721
0.000136168
0.000141893
0.000153993
0.000162453
0.000161336
0.000164731
0.000174485
0.000165544
0.00017371
0.000202947
0.000211412
0.00023894
0.000262771
0.000248547
0.000220705
0.000201491
0.000194906
0.000184453
0.000210284
0.000244502
0.000248226
0.000247371
0.000258899
0.000250808
0.000267916
0.000289664
0.000324936
0.000326221
0.000269401
0.000268328
0.000366682
0.000357941
0.000355273
0.000343052
0.000300013
0.000269312
0.00026667
0.000242568
0.000273585
0.000323096
0.000322194
0.000181867
9.02951e-05
4.67915e-05
3.09887e-05
2.7789e-05
2.81238e-05
2.95217e-05
3.084e-05
3.27311e-05
3.92132e-05
4.99616e-05
5.30716e-05
5.34642e-05
5.27702e-05
4.94939e-05
4.60215e-05
4.42462e-05
4.29766e-05
4.15942e-05
3.95522e-05
3.78849e-05
3.76332e-05
3.78805e-05
3.8166e-05
3.82946e-05
3.80837e-05
3.72482e-05
3.59709e-05
3.55451e-05
3.53475e-05
3.53624e-05
3.56116e-05
3.61368e-05
3.66813e-05
3.71716e-05
3.79405e-05
3.88363e-05
3.97645e-05
4.05603e-05
4.14453e-05
4.20132e-05
4.2208e-05
4.23364e-05
4.21814e-05
4.16312e-05
4.10877e-05
4.05666e-05
3.99782e-05
3.98204e-05
3.98493e-05
4.01368e-05
4.08918e-05
4.10458e-05
4.09809e-05
4.076e-05
4.00024e-05
3.91704e-05
3.85697e-05
3.80972e-05
3.76879e-05
3.64943e-05
3.50118e-05
3.45573e-05
3.46479e-05
3.48366e-05
3.39526e-05
3.16013e-05
3.07593e-05
3.09116e-05
3.20068e-05
3.30497e-05
3.22682e-05
3.13426e-05
3.10244e-05
3.11833e-05
3.28437e-05
3.69029e-05
4.27625e-05
4.65143e-05
5.03037e-05
5.27977e-05
5.33496e-05
5.32715e-05
5.33335e-05
5.47145e-05
5.81972e-05
6.06768e-05
6.49929e-05
7.94662e-05
0.000117127
0.000135533
0.000137883
0.000132603
0.000131997
0.000134517
0.000129369
9.81576e-05
7.22567e-05
6.39476e-05
5.847e-05
5.49123e-05
5.41876e-05
5.36769e-05
5.26801e-05
5.25004e-05
5.29589e-05
5.14573e-05
5.11859e-05
5.19362e-05
5.25558e-05
5.04012e-05
4.91283e-05
4.86626e-05
4.94763e-05
5.29502e-05
6.10758e-05
6.9402e-05
6.7746e-05
7.57731e-05
7.64845e-05
7.41906e-05
8.38879e-05
9.33682e-05
9.78093e-05
9.06153e-05
0.000107179
0.000105565
0.000108458
0.000101779
9.73322e-05
0.000105729
0.000115168
0.000118814
0.000116789
0.000114349
0.000120351
0.000116789
0.000120603
0.000115884
0.000127931
0.000133483
0.000137885
0.000152133
0.000159146
0.000154166
0.000170155
0.000164273
0.000156795
0.000181855
0.000196036
0.000212427
0.000243477
0.000228401
0.000213317
0.000201216
0.000190165
0.000179717
0.00020195
0.000225179
0.000210655
0.000200349
0.0002263
0.000238667
0.000250037
0.000277331
0.000314126
0.000318248
0.000270504
0.000228666
0.000369376
0.000360981
0.000345029
0.00032761
0.00029878
0.000280239
0.000263889
0.000244635
0.00025874
0.000313957
0.000320263
0.000200904
9.51146e-05
4.50488e-05
3.01285e-05
2.88618e-05
3.21697e-05
3.58564e-05
3.78425e-05
4.04427e-05
4.5328e-05
5.07496e-05
5.21764e-05
5.05107e-05
4.47969e-05
4.18968e-05
4.07458e-05
4.02053e-05
3.97738e-05
3.90314e-05
3.78306e-05
3.7393e-05
3.73494e-05
3.75775e-05
3.77664e-05
3.753e-05
3.64575e-05
3.51984e-05
3.47949e-05
3.48385e-05
3.5154e-05
3.54805e-05
3.59238e-05
3.65459e-05
3.71746e-05
3.7813e-05
3.85534e-05
3.94772e-05
4.05593e-05
4.13048e-05
4.17434e-05
4.20478e-05
4.21855e-05
4.21358e-05
4.17585e-05
4.1271e-05
4.08676e-05
4.03386e-05
3.9344e-05
3.79758e-05
3.73738e-05
3.73053e-05
3.75179e-05
3.82019e-05
3.91529e-05
3.99549e-05
4.01891e-05
3.99872e-05
3.93919e-05
3.88276e-05
3.85843e-05
3.80689e-05
3.67163e-05
3.48409e-05
3.39477e-05
3.3734e-05
3.37925e-05
3.25848e-05
3.02209e-05
2.95256e-05
2.95691e-05
3.03414e-05
3.08711e-05
3.04704e-05
3.04234e-05
3.09912e-05
3.29743e-05
3.74451e-05
4.33193e-05
4.7091e-05
5.02912e-05
5.1616e-05
5.2073e-05
5.27004e-05
5.34352e-05
5.69993e-05
6.241e-05
6.35622e-05
6.84977e-05
8.7253e-05
0.000117582
0.000127263
0.000124149
0.000115692
0.000115022
0.000120834
0.000120913
0.000104853
8.02902e-05
6.98299e-05
5.9464e-05
5.47245e-05
5.26576e-05
5.17072e-05
5.08365e-05
5.04939e-05
4.97687e-05
4.813e-05
4.79265e-05
4.95168e-05
5.04557e-05
4.85504e-05
4.77953e-05
4.68455e-05
4.74723e-05
4.84479e-05
5.30807e-05
6.16136e-05
6.60032e-05
7.40057e-05
7.32229e-05
7.22663e-05
7.97895e-05
9.25859e-05
0.000105592
9.01382e-05
9.95068e-05
0.00010365
0.000106728
0.000101842
9.47261e-05
0.000105699
0.000111516
0.000112591
0.000117508
0.000115604
0.000121649
0.000117728
0.000120991
0.000114695
0.000120823
0.000128472
0.000130505
0.000142663
0.000155454
0.000149601
0.000161799
0.000159951
0.000150164
0.000160433
0.000181261
0.000205762
0.000223768
0.000207397
0.000199356
0.000207641
0.000193819
0.000175964
0.000191559
0.000207979
0.000194261
0.000178346
0.000181491
0.000216052
0.000231348
0.00026722
0.000309145
0.000314332
0.000280308
0.0002398
0.000346873
0.000372124
0.000348719
0.000299717
0.000283036
0.000277223
0.000264912
0.000250186
0.000252662
0.00030378
0.000310503
0.000218575
9.97912e-05
4.46096e-05
3.04471e-05
3.15896e-05
3.79147e-05
4.1587e-05
4.29568e-05
4.4124e-05
4.59618e-05
4.83724e-05
4.76486e-05
4.30603e-05
3.88184e-05
3.76729e-05
3.76222e-05
3.8003e-05
3.81239e-05
3.79078e-05
3.67184e-05
3.61417e-05
3.62443e-05
3.64226e-05
3.65916e-05
3.64073e-05
3.61614e-05
3.55461e-05
3.56896e-05
3.64143e-05
3.74624e-05
3.82086e-05
3.87522e-05
3.92146e-05
3.94205e-05
3.89063e-05
3.84408e-05
3.86664e-05
3.93646e-05
4.04525e-05
4.07028e-05
4.06553e-05
4.01799e-05
3.89135e-05
3.7398e-05
3.69947e-05
3.70064e-05
3.72556e-05
3.73899e-05
3.67365e-05
3.56054e-05
3.53169e-05
3.54255e-05
3.60124e-05
3.70607e-05
3.75989e-05
3.79109e-05
3.85487e-05
3.91834e-05
3.91415e-05
3.90833e-05
3.89209e-05
3.83869e-05
3.6807e-05
3.49912e-05
3.38056e-05
3.30983e-05
3.26468e-05
3.07544e-05
2.9153e-05
2.88109e-05
2.89934e-05
2.96474e-05
2.98934e-05
3.01467e-05
3.11039e-05
3.38606e-05
3.9933e-05
4.56606e-05
4.87066e-05
5.06847e-05
5.17658e-05
5.21584e-05
5.28e-05
5.38043e-05
5.73768e-05
6.22359e-05
6.34594e-05
7.0896e-05
9.73172e-05
0.000115033
0.000117693
0.000109635
0.000102478
0.000102084
0.000107644
0.000111121
0.000105759
9.03258e-05
7.81454e-05
6.10641e-05
5.39769e-05
5.16343e-05
5.13543e-05
5.0737e-05
4.98758e-05
4.89187e-05
4.85391e-05
4.82289e-05
4.8021e-05
4.90917e-05
4.82564e-05
4.71475e-05
4.55838e-05
4.58289e-05
4.6609e-05
4.79367e-05
5.39615e-05
6.45944e-05
6.98677e-05
7.02393e-05
7.18626e-05
7.77122e-05
8.94863e-05
0.000107524
9.38147e-05
0.000101262
0.000101234
0.00010564
9.95803e-05
9.27111e-05
0.00010316
0.000111926
0.000113886
0.000122817
0.000119181
0.000124132
0.000121244
0.000122961
0.000116026
0.000118083
0.000122509
0.000127441
0.000136083
0.000149212
0.000146974
0.00015264
0.000155511
0.000146417
0.000147898
0.000168653
0.00019939
0.00021928
0.000201576
0.000191239
0.000206045
0.000211761
0.000188286
0.000174582
0.000191083
0.00019841
0.000204905
0.000167969
0.000185003
0.000221343
0.000253389
0.000298559
0.000310909
0.000287973
0.000263515
0.000288008
0.000381998
0.00035615
0.000289983
0.000287899
0.000281868
0.000269571
0.000245905
0.000242743
0.000290452
0.000300542
0.000233414
0.000104331
4.50843e-05
3.06344e-05
3.27965e-05
4.03189e-05
4.3575e-05
4.41404e-05
4.45101e-05
4.486e-05
4.42458e-05
4.09206e-05
3.69993e-05
3.53395e-05
3.53692e-05
3.65429e-05
3.73375e-05
3.74211e-05
3.66962e-05
3.48707e-05
3.43003e-05
3.44097e-05
3.47211e-05
3.54862e-05
3.62607e-05
3.67179e-05
3.71345e-05
3.7759e-05
3.86648e-05
3.96103e-05
4.00836e-05
4.02993e-05
4.02111e-05
3.992e-05
3.94845e-05
3.85287e-05
3.80149e-05
3.79121e-05
3.85029e-05
3.85057e-05
3.798e-05
3.63909e-05
3.47453e-05
3.44917e-05
3.46633e-05
3.48113e-05
3.50253e-05
3.55344e-05
3.56068e-05
3.44365e-05
3.36286e-05
3.36609e-05
3.47995e-05
3.61644e-05
3.67528e-05
3.68818e-05
3.66513e-05
3.67566e-05
3.77665e-05
3.88628e-05
3.90115e-05
3.88187e-05
3.78107e-05
3.63162e-05
3.515e-05
3.37687e-05
3.22343e-05
3.06624e-05
2.89878e-05
2.8378e-05
2.84801e-05
2.89742e-05
2.95841e-05
3.01093e-05
3.14465e-05
3.51558e-05
4.2332e-05
4.87463e-05
5.20254e-05
5.29806e-05
5.32007e-05
5.32198e-05
5.35653e-05
5.46737e-05
5.70276e-05
5.96345e-05
6.22575e-05
7.54147e-05
0.000103282
0.000113559
0.000111469
9.87967e-05
9.32207e-05
9.33922e-05
9.81798e-05
0.000102701
0.000101936
9.4166e-05
8.16005e-05
6.14718e-05
5.31884e-05
5.07612e-05
5.01251e-05
4.8764e-05
4.7804e-05
4.7394e-05
4.80352e-05
4.86947e-05
4.83042e-05
4.78242e-05
4.81663e-05