/*--------------------------------*- C++ -*----------------------------------*\
| =========                 |                                                 |
| \\      /  F ield         | OpenFOAM: The Open Source CFD Toolbox           |
|  \\    /   O peration     | Version:  dev                                   |
|   \\  /    A nd           | Web:      http://www.openfoam.org               |
|    \\/     M anipulation  |                                                 |
\*---------------------------------------------------------------------------*/
FoamFile
{
    version     2.0;
    format      ascii;
    class       volScalarField;
    object      p;
    location    "9.155";
}
// * * * * * * * * * * * * * * * * * * * * * * * * * * * * * * * * * * * * * //

dimensions      [1 -1 -2 0 0 0 0];

internalField   nonuniform List<scalar> 
12225
(
90796.6
90844.1
90950.8
91106.1
91290.9
91510.6
91747
92016.2
92282.8
92607.1
92888.6
93248.5
93554
93961.5
94306.5
94746.3
95172.7
95530.3
90794.3
90845.3
90952.5
91107.6
91292.4
91511.7
91748.6
92016.3
92286.5
92602.7
92892.5
93243.5
93556
93951.6
94301.9
94742.4
95164.4
95612.8
90793.9
90848.7
90956.5
91111
91295.5
91514.4
91751.4
92017.9
92290.3
92599.5
92896.3
93237.9
93558.9
93939.1
94295.1
94719.4
95131.2
95565
90796.5
90854.6
90962.9
91116.7
91300.8
91519
91756.3
92021.2
92295.1
92598.8
92899.7
93232.6
93558.7
93924.7
94279.5
94682.3
95082.6
95479.9
90804.6
90863.9
90972.4
91125.3
91309.2
91526.1
91763.7
92026.2
92301.1
92599.6
92902.7
93228.1
93556.8
93908.7
94256.6
94630.6
95005.2
95387.8
90816.5
90877.8
90985.1
91137.2
91320.7
91537.1
91773.6
92034
92308.3
92602.7
92905.3
93224.8
93551.7
93892
94236
94583.1
94949.5
95300.9
90837
90896.5
91002.3
91153.1
91336.5
91550.8
91787.1
92045.1
92318.5
92608
92909.3
93222
93545.9
93874.4
94216.6
94550.3
94905.1
95216.6
90857.4
90917.3
91022.3
91171.8
91354.7
91567.2
91802.8
92058.5
92330.6
92616.1
92915.3
93222.3
93542
93862
94196.2
94521.7
94848.7
95140.5
90881.4
90939.7
91044.2
91192.1
91374.5
91585.4
91820.1
92073.6
92343.9
92625.8
92922.3
93224.6
93538.2
93850.5
94173.1
94483.8
94790.4
95073.4
90913.7
90969.2
91073.5
91219.7
91401.2
91610.2
91843.3
92094.4
92362.1
92639.5
92932
93228.3
93533.8
93836.9
94145.4
94442.4
94732.2
95005.4
90953.6
91008.5
91112.5
91257
91436.8
91643.9
91874.3
92123.1
92386.4
92661
92945.6
93235.3
93530.3
93824
94116.9
94401.4
94675.4
94934.7
91006.3
91060.6
91164.1
91306.5
91484.2
91688.1
91915.4
92158.6
92419
92687.6
92965.5
93247.3
93531.5
93814
94092.5
94363.2
94622.6
94868.8
91077.1
91131
91232.3
91372.6
91547.1
91748.6
91971
92210.8
92464.2
92726.2
92995.6
93268.3
93541.3
93811.6
94076.5
94333.1
94578.7
94811.8
91175.9
91224.6
91322.8
91459.3
91630.2
91826.7
92045.3
92279.7
92526.3
92780.9
93041
93303.6
93565.1
93822.9
94074.5
94317.7
94550.3
94771.3
91295.2
91346.8
91439.6
91573.8
91740.3
91932.6
92145
92372.7
92611.5
92857.9
93108.4
93360.1
93609.9
93855.4
94094.5
94325.2
94545.8
94755.7
91477.8
91510.3
91595.7
91723.8
91884.7
92070.8
92276.4
92496.5
92727.1
92964.4
93205
93445.9
93684.4
93918.3
94145.7
94364.9
94574.7
94774.8
91678.5
91710.8
91792.4
91915.1
92069.6
92248.6
92446.3
92658.2
92880
93107.8
93338.5
93569.1
93797.1
94020.3
94237.2
94446.5
94647.1
94838.6
91883
91930.8
92014.6
92133.7
92282.1
92453.7
92643
92847.2
93060.6
93279.9
93501.7
93723.4
93942.6
94157.3
94365.9
94567.3
94760.5
94945.3
92111.4
92149.4
92229
92343.3
92486.3
92652
92835.8
93030.8
93237.3
93449.5
93664.5
93879.4
94092.1
94300.7
94503.5
94699.6
94888
95068.4
92294.1
92334.9
92412.3
92522.9
92661
92821.5
92999.5
93190.3
93390.6
93597.4
93807.2
94017.3
94225.4
94429.7
94628.7
94821.3
95006.5
95184.1
92455.9
92489
92563.5
92671.1
92805.5
92961.7
93135.3
93322.5
93517.4
93720.5
93926.7
94133.3
94338.1
94539.5
94735.7
94925.8
95109
95284.8
92568.5
92608.9
92683.4
92788.9
92920.4
93073.5
93244.1
93428.2
93621.9
93820
94023.2
94227
94429.5
94628.6
94822.9
95011.5
95193.2
95367.7
92666.4
92703.2
92776.6
92880.4
93009.7
93160.4
93328.4
93509.9
93701
93898.3
94098.4
94300.4
94501.1
94698.7
94891.8
95079.1
95259.8
95433.5
92737.1
92773.9
92846.9
92949.3
93076.9
93225.9
93392.2
93571.8
93761.1
93956.8
94156.1
94356.1
94555.4
94752
94944.2
95130.7
95310.7
95483.8
92788.6
92826.4
92898.5
92999.8
93126.3
93274
93439
93617.2
93805.1
93999.6
94197.8
94397.1
94595.5
94791.4
94982.8
95168.8
95348.4
95521
92829.7
92864.5
92935.2
93035.6
93161.3
93308.2
93472.2
93649.5
93836.5
94030.1
94227.7
94426.6
94624.6
94819.5
95010.4
95195.9
95375
95547.5
92856.8
92890.4
92959.9
93059.6
93184.8
93331.2
93494.7
93671.3
93857.6
94050.8
94247.8
94446.3
94643.8
94838.6
95029.2
95214.6
95394
95566.5
92873.8
92907
92975.3
93074.6
93199.6
93345.8
93509
93685.2
93871.1
94063.9
94260.7
94458.8
94656.1
94850.7
95041.2
95226.4
95405.5
95577.9
92888.4
92916.9
92983.7
93082.8
93207.9
93354.1
93517.1
93693.1
93878.8
94071.5
94268
94466
94663.1
94857.6
95048
95233.1
95412.1
95584.2
92897.7
92921.8
92987.6
93086.6
93211.5
93357.7
93520.6
93696.5
93882.2
94074.7
94271.2
94469.1
94666.2
94860.7
95050.9
95236
95414.9
95587
102999
102995
102986
102972
102953
102929
102901
102867
102828
102784
102734
102680
102619
102553
102481
102404
102320
102231
102135
102034
101926
101812
101692
101566
101433
101293
101147
100994
100834
100667
100493
100312
100124
99930.5
99730.6
99524.8
99313.3
99096.5
98874.6
98647.6
98416.1
98180.3
97940.5
97697.1
97450.2
97200
96946.8
96690.8
96432.1
96170.9
95907.3
95641.4
95373.2
95102.7
94829.6
94554.2
94276.3
93996
93713.1
93427.5
93139
92847.5
92552.8
92254.7
91953
91647.9
91339.3
91027.4
90712.2
90393.6
90071.4
89745.4
89415.4
89082.7
88746.5
88408
88067.9
87727.3
87388
87052.2
86720.8
86395.2
86078.1
85769.7
85471.3
85185.7
84914.7
84659.7
84422.3
84205
84008.2
83828.8
83669.9
83533.5
83420.6
83328.2
83254.1
83197.3
83155.9
83130.7
83119.2
83119.3
83131.4
83154.1
83187.8
83233.5
83289.6
83354.1
83425.1
83501.6
83583.2
83666.5
83749.9
83835
83923.1
84014.7
84104.8
84197.3
84288.8
84384
84481.1
84579.9
84682.6
84785.8
84893.2
85001
85109.5
85218.7
85327.5
85434.6
85537.7
85635.7
85728.7
85815.9
85895.9
85967.8
86028.9
86075.4
86104.5
86109.9
86088.5
86036.3
85947.6
85817.5
85642.9
85423.4
85159.2
84849.9
84497.3
84100.6
83691.6
83256.2
82816.8
82356.8
81895.8
81462.3
81047.5
80660
80306.4
79984.5
79696.2
79422.9
79157.1
78871.9
78564.6
78223.2
77843.1
77439
76981.9
76509
76049.1
75613.9
75224
74839.9
74501.6
74211.3
73943.3
73726.7
73588.5
73539.7
102980
102975
102966
102952
102934
102910
102882
102848
102810
102766
102717
102662
102602
102536
102465
102388
102305
102216
102122
102021
101914
101800
101681
101555
101423
101284
101138
100985
100826
100659
100486
100306
100120
99927.9
99729.4
99525.1
99315
99099.5
98879
98653.6
98423.6
98189.6
97951.6
97709.9
97464.8
97216.4
96965
96710.7
96453.8
96194.5
95932.8
95668.7
95402.4
95133.5
94862.1
94588.1
94311.6
94032.6
93751.1
93466.8
93179.7
92889.7
92596.4
92299.6
91999.2
91695.1
91387.7
91077
90763.3
90446.5
90126.2
89801.6
89472
89142.9
88806.6
88468.4
88128.9
87789.1
87450.7
87115.4
86784.2
86457.9
86143
85834.9
85536.8
85251.7
84982.1
84727.9
84490.8
84274.2
84081
83900.9
83742.5
83606.1
83491.8
83400
83327.4
83270.3
83224.7
83196
83183.1
83181.6
83193.6
83218.1
83252.1
83297
83352.6
83417
83487.4
83562.2
83640.8
83722
83804.9
83890.2
83976.9
84064
84153.7
84247.6
84338.7
84431.7
84528.2
84624.9
84726.1
84829.2
84934.4
85041.5
85148.1
85255.8
85363.1
85468.9
85570.2
85665.9
85757
85842.2
85920.1
85990.4
86049.8
86095.1
86122
86125.4
86102.4
86048.8
85958.3
85827
85651
85430.2
85165.8
84855.5
84501.6
84103.1
83694
83253.2
82815.1
82350
81889.4
81454.3
81039.7
80650.4
80297
79975.3
79689.2
79419
79153.2
78864.7
78557.9
78220.2
77837.4
77441.1
76995.1
76512.5
76053.4
75625.8
75235.8
74849.7
74512.9
74225.2
73966.6
73753.8
73616.9
73568.4
102940
102935
102926
102912
102894
102871
102843
102810
102772
102729
102680
102626
102567
102502
102431
102355
102274
102186
102093
101993
101888
101776
101657
101532
101401
101263
101118
100967
100809
100645
100474
100297
100113
99923.1
99727.3
99525.7
99318.6
99106.1
98888.6
98666.4
98439.7
98208.8
97974.1
97735.7
97493.9
97248.9
97001
96750.2
96496.9
96241.2
95983.1
95722.5
95459.6
95194.3
94926.4
94655.8
94382.4
94106.4
93827.6
93546
93261.6
92974.3
92683.7
92389.5
92091.4
91789.6
91484.6
91176.5
90865.7
90552.2
90235.5
89914.2
89587.1
89260.5
88926.5
88589.8
88251.5
87913.2
87576.3
87242.5
86912.9
86588.8
86273.5
85967.2
85670.4
85385.9
85118.5
84865.4
84630.2
84417.5
84222.6
84042.1
83884.9
83752.1
83638.2
83542.4
83466.9
83407.4
83359.6
83327.1
83311.3
83309.9
83321.7
83345.4
83379.5
83425.1
83481
83544.6
83613
83685.1
83760.9
83839.2
83919.9
84005.8
84091.7
84175.8
84262.8
84350.4
84439.4
84533
84624.5
84715.6
84813
84913.1
85017.3
85120.1
85224.6
85330.2
85434.9
85538.3
85636
85727.6
85814.4
85896
85970.6
86036.8
86092.6
86133.6
86156.6
86156.9
86130.4
86073.2
85979.6
85845
85666.4
85443
85175.5
84864.2
84506.5
84104.9
83692.2
83250.2
82800.5
82326.9
81868.9
81434.1
81022.6
80631.7
80275.8
79951.2
79657.1
79387.7
79124.6
78841.3
78536.3
78198.5
77816.8
77433.9
77003.5
76508.1
76060.2
75642.7
75252.9
74867.3
74526.8
74250.9
74011.7
73804
73673.9
73627.5
102879
102874
102865
102852
102834
102811
102784
102751
102714
102672
102624
102571
102512
102448
102379
102305
102225
102140
102048
101950
101845
101735
101618
101495
101366
101231
101088
100940
100785
100624
100456
100282
100102
99916.4
99724.7
99527.3
99324.5
99116.4
98903.5
98685.8
98463.8
98237.7
98007.8
97774.2
97537.3
97297.4
97054.4
96808.8
96560.5
96309.6
96056.2
95800.4
95542.3
95281.9
95019.1
94753.7
94485.5
94214.3
93940.2
93663
93382.8
93100
92813.8
92523.6
92229
91930.5
91628.8
91324.4
91017.6
90708.2
90396.3
90079.8
89757.5
89430.4
89104.2
88769.6
88433.6
88098.1
87764.1
87432.5
87104.8
86782.9
86469.3
86164.8
85869.9
85588.5
85323.3
85072.8
84840.6
84630.2
84436.1
84255.1
84098.9
83967.3
83850.5
83749.7
83669.1
83606
83556.2
83522.3
83503.9
83500.2
83511.3
83534.6
83569
83614
83668.4
83730.7
83797.2
83867.6
83941.9
84017.8
84097.8
84181.9
84265.2
84344.1
84422.8
84507.8
84592.7
84684.4
84769.7
84853.5
84946.2
85042.5
85145.8
85241.7
85341.8
85442.5
85545
85643.6
85736.2
85820.8
85901.4
85977.3
86046.1
86107
86156.4
86191.8
86209.9
86203.5
86172.6
86110.7
86011.5
85873.2
85690
85462.1
85192
84876.7
84514.2
84114.7
83694.2
83247.2
82783
82306.7
81844.6
81407.5
80998.7
80609.1
80247.8
79922.7
79622.8
79345.6
79081.5
78803.5
78504.6
78165
77786.1
77408.2
77006.1
76525.9
76079.8
75676.7
75285.8
74902.8
74568
74293.8
74074.6
73881.9
73767.1
73722.4
102796
102791
102783
102770
102752
102730
102703
102671
102634
102593
102546
102495
102438
102377
102309
102236
102158
102073
101983
101887
101786
101678
101565
101446
101320
101187
101049
100905
100754
100596
100433
100264
100089
99907.7
99721.2
99529.2
99331.8
99129.5
98922.3
98710.6
98494.7
98275
98051.6
97824.8
97594.7
97361.6
97125.5
96886.5
96644.7
96400.2
96153
95903.4
95651.2
95396.6
95139.7
94880.4
94618.5
94353.7
94085.8
93814.7
93540.4
93263.3
92982.9
92698.4
92409.4
92116.4
91820
91520.3
91217.3
90910.6
90605.2
90296
89978.9
89658.4
89336.1
89006.7
88675
88343.9
88013.2
87684.3
87359.1
87039.9
86728.8
86426.7
86135.2
85857.5
85595.2
85348.4
85120.3
84913.4
84723.5
84536.7
84383.5
84249.8
84129.8
84023.5
83936.1
83867.6
83816
83781.6
83761
83754.1
83763.8
83786.7
83820.2
83862.8
83914.3
83974
84037.6
84105
84178.1
84253.1
84329.3
84411.5
84493.3
84568.3
84644.1
84720.7
84796
84872.7
84962.9
85038.3
85128.1
85216.6
85318.8
85410.2
85500.2
85592.9
85689.1
85786
85872.6
85946
86017.9
86085.7
86147.1
86200
86242.7
86270.2
86280.8
86267.6
86229.6
86160.6
86054.6
85910.2
85721.6
85487.9
85213.9
84893.1
84527.2
84128.7
83704.4
83240.1
82762.6
82282.2
81822
81381
80970.6
80578.1
80208.2
79877
79575.5
79293.8
79030.5
78754.1
78461.4
78121.3
77740.8
77377.1
77012.5
76547.2
76108.2
75714.4
75332.1
74954.2
74630.3
74351.2
74152.3
74008
73890.1
73851.5
102690
102686
102677
102664
102647
102625
102599
102568
102533
102493
102448
102399
102345
102285
102219
102147
102070
101988
101901
101808
101710
101607
101498
101383
101261
101134
101000
100859
100713
100561
100403
100239
100070
99894.9
99714.5
99529
99338.4
99142.9
98942.9
98738.8
98530.9
98319.3
98104.4
97886.2
97664.9
97440.5
97213.2
96982.8
96749.3
96512.9
96273.7
96031.8
95787
95539.6
95289.7
95037.2
94782
94524.2
94263.5
93999.7
93732.7
93462.4
93188.8
92911.2
92629.3
92343.5
92055
91763.2
91465.7
91164.6
90861.3
90556.2
90247.4
89934.8
89618.6
89297.5
88972.6
88646.7
88320.4
87995.6
87674.4
87359.2
87052.1
86753.7
86465.8
86191.5
85932.5
85690.1
85465.4
85259.9
85069.7
84890.9
84733.7
84595.8
84472.6
84363.3
84270.9
84197.3
84143.6
84108.2
84085.8
84077.9
84087.3
84108.8
84138.8
84176.9
84223.9
84280
84339.9
84402
84471.5
84543.5
84615.6
84690.7
84763
84838.7
84919
84984.9
85055
85127.7
85209.2
85273.8
85359.8
85435.3
85532.2
85619.3
85698.8
85779.8
85869.4
85963.1
86046.9
86102.4
86163.9
86222.8
86274.7
86316.4
86350.6
86368.5
86370.4
86348.6
86301.9
86224.9
86110
85957.8
85762.2
85520.6
85242.2
84917.3
84541.2
84140.5
83721.2
83224.5
82736.6
82254.1
81800.1
81355.1
80937.5
80541
80159.9
79812.3
79508.8
79233.9
78966.5
78698.5
78412
78070.9
77696.4
77343.9
77020.7
76567.9
76149.5
75766
75384.1
75003
74666.2
74424.9
74251
74141
74033.4
74013.1
102559
102555
102547
102534
102518
102497
102472
102443
102409
102371
102328
102280
102227
102168
102105
102037
101963
101885
101801
101713
101619
101521
101416
101305
101188
101066
100937
100802
100662
100516
100364
100207
100045
99877
99703.9
99525.9
99343.2
99156.1
98964.8
98769.7
98571.3
98369.6
98164.9
97957.2
97746.5
97532.8
97315.8
97095.7
96872.3
96645.8
96416.1
96183.3
95947.6
95709
95467.7
95223.5
94976.4
94726.4
94473.4
94217.4
93958.5
93696.5
93430.9
93161.2
92887
92609
92329.5
92047.1
91757.7
91463.8
91165.8
90865
90562
90256.5
89947.9
89635.5
89318.7
88998.7
88678.3
88359.5
88043.8
87733.8
87432.6
87141.2
86859.3
86589.1
86333.8
86095.1
85872.6
85667.7
85477.9
85301.7
85142.5
85001
84875.8
84765.7
84671
84595
84540.6
84503.6
84479.5
84471.5
84479.4
84497.1
84522.5
84556.7
84599.1
84649.6
84704.1
84759.3
84820.9
84887.7
84956.3
85028.6
85097.1
85163.5
85229.8
85298.6
85368.3
85431.6
85504.4
85558.9
85638.4
85698.2
85782.4
85861
85940.2
86012.2
86090.6
86170.8
86236.6
86286.1
86339.9
86389.6
86431.8
86459.1
86480.5
86486.4
86479
86447.2
86389.2
86304.2
86178.6
86016.2
85815.2
85562
85274.7
84951.5
84567.6
84153.4
83723.4
83233.3
82721.3
82234.8
81785.2
81329
80898.7
80501.1
80123.2
79754.9
79438.6
79161
78891.8
78639.1
78360.8
78020.3
77656
77315.2
77009.7
76613.9
76201.6
75835.8
75454.7
75071.1
74739.6
74538.9
74387.2
74295.9
74206.8
74204.3
102402
102399
102391
102379
102364
102344
102320
102293
102261
102224
102183
102137
102086
102030
101970
101906
101837
101763
101684
101600
101512
101418
101318
101212
101100
100983
100861
100733
100599
100460
100317
100167
100013
99853.8
99689.3
99520
99346.3
99168.6
98987.3
98802.8
98615.5
98425.4
98232.7
98037.2
97838.7
97637.2
97432.3
97224
97012.2
96796.8
96578.1
96356.1
96130.8
95902.5
95670.9
95436.3
95198.7
94958.1
94714.3
94467.3
94217.1
93963.7
93707.2
93447.3
93182
92914.3
92641.6
92366.3
92087
91803.4
91514.1
91220
90923.3
90624.7
90323.9
90019.8
89711.6
89399.5
89085.9
88773.5
88464.6
88161.3
87865.8
87581.2
87307.9
87045.5
86795.6
86559.9
86338.8
86135.3
85945.2
85769.7
85609.7
85466.2
85339.9
85229.7
85134.4
85058.5
85004.4
84965.9
84940.6
84931.4
84934.3
84945.9
84966.9
84998
85036.5
85081.2
85130.4
85181
85235.5
85292.4
85351.6
85410.5
85481.7
85541.2
85601.6
85668.1
85732.1
85786
85845.8
85897.3
85964.2
86005.8
86077.9
86157.2
86233.5
86298
86356.7
86414.5
86448.2
86503.7
86550.7
86587.9
86619.8
86633.7
86638.1
86628
86607.1
86565.2
86492.3
86397.2
86262.8
86087.1
85878.9
85618.7
85310.1
84982.8
84606.9
84177.3
83728.4
83235.8
82722.2
82232.1
81761.5
81304.7
80858
80458.2
80076.1
79716.7
79368.3
79093.8
78818.8
78585.1
78303.7
77975.7
77624.3
77299.3
76994.5
76693.4
76272.6
75919.3
75562.4
75212.3
74904.9
74687.3
74553.1
74479.4
74417.6
74429.6
102218
102215
102208
102197
102183
102165
102142
102116
102085
102051
102013
101970
101922
101871
101815
101755
101690
101621
101547
101469
101385
101296
101202
101102
100997
100886
100771
100650
100525
100395
100260
100120
99974.7
99825
99670.3
99510.9
99347.4
99180.5
99010.6
98838.3
98663.5
98486.4
98307.1
98125.3
97940.3
97752.1
97560.8
97365.6
97166.7
96963.8
96757.2
96547.3
96333.9
96117.3
95897.2
95673.5
95446.4
95216.1
94982.8
94746.1
94505.9
94261.9
94014.4
93766.7
93512.2
93253.4
92990
92722.9
92453.2
92179.9
91901.3
91617
91328.9
91038.6
90746.6
90451.6
90152.1
89848.7
89543.2
89238.5
88937.3
88641.9
88353.1
88074.4
87809.2
87556.2
87313.3
87081.8
86863.8
86661.1
86472.5
86297.9
86138.3
85994.9
85868.5
85758.3
85664.2
85589.6
85535
85494.8
85467.5
85452.9
85448
85453.2
85469.8
85497.2
85530.3
85569.1
85614
85661.9
85710.7
85758.4
85808
85858.1
85909.1
85971.9
86029.1
86087.7
86140.3
86193.3
86237.1
86283.1
86332.8
86367.8
86428.3
86502.4
86575.9
86631.1
86667.1
86707.9
86729.1
86766.7
86802.3
86822.1
86836.4
86837.1
86825
86797.3
86757
86702.4
86616.4
86506
86361.6
86171.8
85952.6
85686.9
85362.1
85013
84644.1
84210.4
83733
83235.5
82726.9
82232.3
81745.8
81281.6
80819
80415.4
80020.9
79645.1
79310.5
79044.4
78759.6
78527.2
78260
77936.3
77597.9
77265.9
76981.4
76801.5
76363.3
76019.6
75692.8
75370.7
75086
74870
74756.1
74694.8
74675.8
74692.7
102006
102003
101997
101987
101975
101958
101937
101913
101885
101853
101817
101778
101735
101688
101637
101582
101522
101459
101390
101317
101240
101157
101070
100977
100879
100776
100668
100556
100439
100319
100194
100064
99930.1
99791.3
99648
99500.2
99347.8
99192.5
99035.1
98876
98715
98551.9
98387.3
98221
98049.9
97875.6
97698.4
97517.6
97332.5
97143
96949.7
96753
96552.9
96349.3
96142.7
95931.5
95716.2
95497.3
95275.4
95050.2
94821.2
94589.5
94353.3
94114
93870.7
93623.6
93371.8
93115.2
92855.4
92592.7
92325.3
92051.9
91774.4
91494.5
91212.8
90927.6
90637.6
90343.1
90046.4
89750.6
89458.4
89171.9
88892.1
88621.5
88364.2
88119.6
87883.7
87658.3
87444.6
87244.5
87058.8
86887.3
86730.1
86588.1
86462.4
86352.8
86259.6
86185.6
86129.3
86086.3
86054.5
86032.2
86021.1
86021.8
86033.9
86055.1
86080.7
86111.4
86149.9
86194
86240.2
86283.9
86326.9
86370.6
86413.6
86465.9
86512.4
86562.2
86614.1
86648.8
86668.9
86718.6
86752.9
86790.5
86832.1
86864.6
86929
86974.4
87018.7
87046.8
87068.8
87077.5
87093.3
87094.8
87085.1
87068.6
87038.6
86992.7
86932.1
86861.7
86761.8
86634.3
86478.3
86272.7
86038.2
85767.1
85431.8
85060.8
84684.2
84255.5
83765.6
83249.6
82724.4
82221
81735.5
81247.4
80786.7
80380.7
79981.2
79586
79266.2
79001.8
78732.9
78445.1
78229.3
77911.7
77582.2
77264.6
76992.2
76861.8
76468
76143.5
75827.5
75502.7
75207
75083.8
74994.6
74945.2
74958
74984.6
101765
101763
101758
101750
101739
101724
101706
101684
101659
101631
101599
101563
101525
101483
101438
101388
101334
101277
101215
101148
101077
101002
100922
100836
100746
100652
100554
100451
100345
100235
100121
100003
99881.2
99754.3
99622.9
99487.1
99347.7
99205.7
99061.8
98916.7
98770.2
98622.3
98472.3
98320
98164.4
98005.3
97842.9
97677.3
97507.3
97332.3
97153.3
96970.8
96785.2
96596.4
96403.4
96205.8
96003.8
95797.8
95588.6
95375.9
95159.7
94939.9
94715.9
94488.3
94256.5
94020.6
93780.9
93536.7
93288.6
93037.3
92781.9
92520.8
92255
91987
91717
91443.5
91164.5
90880.2
90593.2
90307.1
90024.6
89747.7
89477.6
89216.2
88967
88730.2
88502.8
88285.5
88078.3
87882.8
87700.9
87533.5
87380.2
87240.8
87116.2
87007.7
86915.2
86840.5
86782.1
86735.6
86698.1
86670.6
86655.8
86650.9
86656.9
86671.4
86690.9
86715.5
86744.9
86780.6
86821.4
86862.2
86900.3
86938
86972.7
87004.7
87048.7
87089.3
87127.1
87157.6
87169.9
87194.9
87222.4
87261.3
87288.8
87319
87363.9
87388.3
87417.8
87425.7
87425.5
87424.7
87419.7
87401
87366.3
87327.5
87279.1
87215.7
87134
87045.7
86929.6
86782.6
86615.2
86395.3
86138.2
85860.4
85517.9
85130.1
84729.6
84302.2
83831.2
83300.5
82755.5
82238.8
81744
81242.1
80739.2
80350.7
79950.7
79601.4
79263.8
78970.5
78716.5
78389.7
78206.1
77902.2
77580.7
77279.6
77037.6
76885.6
76604
76294.4
75981.3
75665.3
75410.3
75330.1
75261.9
75236.9
75251
75302.2
101496
101495
101491
101484
101475
101463
101447
101429
101408
101384
101356
101326
101293
101257
101217
101174
101126
101075
101020
100961
100897
100830
100758
100682
100602
100517
100430
100338
100244
100146
100044
99938.3
99828.4
99714.1
99595.2
99472.2
99346.3
99218.4
99089.1
98958.6
98826.8
98693.8
98559.2
98422.3
98282.6
98139.5
97992.8
97842.2
97687.6
97528.4
97364.5
97196.8
97026.2
96852.6
96675.1
96492.9
96305.9
96114.3
95918.8
95719.6
95516.7
95309.9
95098.9
94883.9
94665.3
94441.9
94214.3
93982.8
93747.4
93508.3
93265.9
93018.3
92765.7
92510.8
92254.4
91994.5
91728.3
91455.9
91180.2
90904.8
90632.6
90366
90105.5
89852.9
89611.6
89383.4
89166
88957.6
88758.9
88571.3
88395.3
88232.2
88082.3
87945.8
87823.7
87716.6
87624.7
87549.4
87489.2
87439.2
87396.9
87365.7
87345.5
87332
87330.1
87338.1
87353.3
87375.6
87399.6
87426.2
87457.3
87492.6
87527
87559.4
87588
87610.9
87639.5
87670.8
87692.9
87718.1
87721.9
87737.6
87748.9
87781.6
87793.4
87816.7
87836.7
87844.3
87854.5
87842.6
87819.5
87808.9
87779.6
87734.5
87678.8
87618.8
87550
87469.1
87364.4
87255.5
87121.4
86953
86771.4
86540.9
86259.3
85966.3
85618.7
85218.1
84798.3
84348.5
83878.1
83364
82815.7
82284.3
81774.2
81263.1
80755.5
80315.5
79897.6
79579.1
79275.7
78951.6
78682.8
78374.3
78190.4
77914.8
77596
77307.1
77056.9
76905.6
76762.3
76462.7
76157.5
75887.6
75690.5
75589.3
75563.4
75559.3
75552.3
75653.7
101199
101198
101195
101191
101184
101175
101163
101149
101132
101112
101090
101066
101039
101009
100975
100939
100899
100855
100808
100757
100702
100644
100582
100516
100447
100374
100298
100219
100137
100050
99960.6
99867
99769.5
99667.9
99562.2
99453.1
99341.5
99228.2
99113.9
98998.5
98882.1
98764.8
98646.1
98525.2
98401.6
98275
98144.9
98010.5
97871.7
97728.6
97580.8
97428.8
97273.8
97115.9
96954.3
96788.1
96617.1
96441.2
96261
96076.8
95888.2
95695
95497.8
95296.1
95090.8
94881.8
94668.1
94450.3
94228.4
94002.5
93773.4
93540.1
93301.7
93060.6
92818.3
92572.9
92321.2
92062.4
91799.4
91536
91275.5
91020.2
90770.3
90527.3
90295.8
90077
89869.2
89670.2
89480.6
89302
89134.4
88977.5
88831.5
88698.4
88579.8
88475.7
88385.6
88310.3
88247.4
88193.5
88148.9
88114.6
88088
88067.9
88059.9
88059.9
88068
88086.1
88108.7
88132
88154.3
88179.2
88207.7
88234.7
88258.3
88275.3
88287.1
88312.3
88329.5
88333.4
88327.9
88326.7
88327.8
88343.1
88342.1
88354.3
88347.9
88333.7
88322.3
88294.6
88256.8
88231
88170.1
88096.3
88022.6
87943.2
87852.1
87753
87624.6
87492.2
87339
87147.7
86946.4
86708
86406.6
86088.2
85733.4
85323.3
84887.6
84411.7
83910.7
83420.9
82873.1
82332.1
81812.4
81294.2
80775.8
80311.1
79891.9
79504.4
79262.4
78900.6
78636.5
78397.2
78172
77949.9
77643.4
77362
77127
76973.6
76930.6
76639.3
76362.1
76145.3
75986.7
75864.6
75904.5
75908.9
75895.1
76059.4
100874
100874
100873
100870
100866
100860
100853
100844
100832
100818
100802
100784
100764
100740
100714
100685
100654
100619
100580
100538
100493
100445
100393
100338
100280
100219
100155
100088
100018
99944.1
99866.9
99786.3
99702.2
99614.3
99523
99428.7
99332.4
99234.6
99135.9
99036.4
98936.2
98834.9
98732
98627.3
98519.7
98409.6
98296.7
98179.1
98056.5
97929.4
97797.8
97662.1
97523.6
97382.7
97238.3
97088.8
96933.9
96773.9
96609.6
96441
96268.1
96090.4
95907.7
95720.6
95528.9
95333.7
95134.2
94930.8
94723.9
94512.8
94297.9
94079.7
93856.7
93630.1
93402.8
93173.3
92937.7
92693.9
92445
92194.7
91947
91703.8
91466.4
91234.9
91015.6
90806.5
90608.1
90418.7
90238.4
90068.4
89909.4
89760
89620.2
89492.2
89377.8
89277.4
89190.8
89116.2
89051.7
88995.2
88949.7
88914.2
88885.6
88865.9
88856.4
88849.8
88846.7
88853.2
88870.2
88891.4
88910.7
88927
88943.9
88963
88981.5
88992.3
88992
88990.9
89006.1
89007
88994.1
88977.9
88964.8
88959
88938.7
88933.3
88899.9
88865.2
88826.7
88784.3
88731.5
88680.8
88595
88498.5
88405.2
88302.9
88188.5
88068.9
87915.7
87758
87584.5
87370.5
87145.6
86896.6
86579.1
86237.7
85866.4
85448.3
84998.2
84502.9
83994.3
83483.3
82934.9
82389.5
81851
81321.4
80797.6
80324.7
79914.2
79474.1
79257.8
78924.1
78608.3
78432.5
78183.1
77994.3
77717.3
77452.3
77237.4
77100.3
77123.2
76833.4
76608.9
76428.1
76278.8
76206.8
76272.1
76292.8
76317.3
76516.9
100521
100523
100523
100524
100523
100521
100519
100515
100510
100503
100494
100483
100470
100455
100437
100416
100393
100367
100338
100305
100269
100231
100189
100145
100098
100049
99997.3
99943.1
99886.2
99826.1
99763
99696.6
99626.8
99553.7
99477.5
99398.9
99318.5
99236.9
99154.4
99071.1
98987.1
98901.6
98814.7
98726.2
98634.7
98541
98445.3
98344.7
98238.7
98128.1
98013
97893.6
97771.3
97647.2
97520.3
97388.8
97251.5
97108.3
96960
96807.4
96650.3
96488.8
96321.9
96150.3
95974.2
95793.7
95608.9
95419.9
95227.7
95031.9
94832.3
94629.8
94423.5
94213
94001.6
93789.2
93571.3
93344.3
93110.8
92875.4
92641.5
92410.9
92186.6
91970
91762.4
91564.2
91375.6
91196.4
91026.3
90865.6
90714.8
90573.6
90441.3
90319.1
90209.8
90114.3
90031.6
89959.3
89895.1
89839.4
89794
89758.3
89731.3
89714.5
89703.3
89694.2
89686.2
89684.9
89689.6
89702.5
89720.1
89732.1
89737.7
89746.5
89757.5
89762
89752.9
89744.4
89745
89736.7
89714.5
89683.3
89653.6
89625.2
89585.2
89547.5
89491.1
89439.4
89376.4
89317
89246.4
89165.4
89060.4
88945.2
88828.6
88701
88561.8
88418.9
88240.3
88055.4
87859.1
87623.3
87374.3
87106.5
86776.1
86415.7
86024.9
85596.4
85129.3
84622.3
84107.2
83575.4
83019.7
82476
81930.1
81382.3
80849.1
80368.8
79951.5
79520
79233.6
78962.4
78613.5
78481.9
78231.2
78047.6
77811
77569.4
77380.5
77265.3
77313.6
77055.3
76894.9
76747.3
76613
76588
76645.6
76707.3
76775.5
77035.8
100142
100145
100148
100152
100155
100157
100160
100163
100166
100167
100166
100163
100158
100152
100143
100132
100119
100102
100082
100059
100034
100005
99974.7
99941.8
99906.7
99869.5
99830.4
99789.1
99745.6
99699.5
99650.7
99598.9
99543.9
99486.1
99425.7
99363.1
99299.1
99233.9
99167.4
99100.1
99032.4
98962.9
98891.5
98819
98744
98666.6
98587.6
98504.3
98415
98320.9
98222.5
98120.1
98014.9
97907.7
97797.7
97683.3
97563.3
97437.9
97306.7
97170.7
97030.2
96884.5
96734
96578.3
96417.9
96253.4
96085
95912.2
95735.2
95555
95371.2
95184.5
94995.3
94802
94606.4
94411.4
94212.6
94004.3
93787.5
93567.6
93349.3
93134.4
92924.4
92721.7
92526.9
92341
92164.3
91996.4
91837.1
91686.8
91545.8
91414.3
91290.9
91175.8
91071.4
90980.7
90903.1
90834.3
90773.1
90719.8
90675.6
90640.9
90615.2
90601.1
90587.1
90575.1
90569
90569.4
90568.6
90567.6
90578.7
90591
90590.1
90586
90586.8
90584.5
90564.9
90549.4
90536.1
90518.8
90486.6
90439.1
90378.8
90328.8
90276.1
90197.2
90132
90061.1
89983.7
89894.8
89805.2
89698.2
89570.3
89432.1
89288.8
89134
88968
88803.9
88603.3
88388.1
88166.8
87908.1
87634.5
87343.2
87000.3
86622
86212.4
85768.3
85284.2
84771
84244.9
83695
83130.4
82585.1
82037.3
81479.7
80935.8
80447.2
80009.8
79608.9
79235.3
79016
78660.6
78519
78294.2
78122.5
77931.8
77718.6
77556.7
77462.1
77491.6
77307.2
77200.1
77087.7
76988.4
76957.9
77084.8
77200.3
77303.5
77632.2
99736.7
99741.7
99746.9
99753.8
99762.4
99771
99779.8
99789.4
99800.1
99810.6
99819.6
99826.8
99831.7
99834.6
99835.5
99834.4
99831
99825
99816.2
99804.7
99790.5
99773.9
99754.8
99733.6
99710.4
99685.4
99658.6
99629.8
99599.2
99566.5
99531.4
99493.8
99453.8
99411.6
99367.2
99320.6
99272.5
99223.8
99173.7
99121.9
99069.8
99016.2
98960.9
98904.9
98846.5
98785.4
98722.7
98655.9
98582.5
98503.9
98421.3
98335.9
98248.8
98159.4
98066.3
97968.5
97865.5
97757.1
97643.6
97524.6
97400.9
97272.1
97138.1
96999.3
96855.5
96707.2
96554.8
96398.6
96238.3
96074.6
95907.6
95736.9
95564.5
95389.5
95210.5
95032
94852.8
94665.5
94466.1
94264.9
94063.5
93864.9
93670.3
93482.3
93301.6
93128.9
92965.4
92810.3
92662.9
92523.7
92393.7
92273.4
92161.8
92056.3
91958.3
91871.5
91798.1
91733.8
91677.2
91628.5
91587.3
91555.5
91532.6
91519.1
91507
91494.3
91489.7
91493.3
91496.6
91490.8
91491.7
91497.6
91489.6
91475
91464.6
91453.5
91432.1
91405.7
91377.7
91350.8
91310.1
91250.5
91173
91095
91004
90919.1
90828.1
90733.4
90638.1
90525.2
90410.6
90277.3
90121.6
89955.4
89783.3
89600.3
89406.6
89225.2
89003.4
88757.6
88510.7
88227.4
87928.1
87611.9
87252.9
86855.5
86430.6
85967.7
85466.7
84946
84407.7
83842.3
83263.8
82710.5
82168.7
81609.9
81055.9
80559.5
80097.6
79710.9
79298.3
79086
78747.3
78536.8
78381.1
78224.9
78081.3
77906.3
77769.6
77687.3
77700.4
77591.9
77524
77449
77397.3
77429.9
77612.1
77775
77901.2
78275.3
99306.1
99314
99321.2
99332
99346.6
99363.4
99380.9
99398.5
99417.6
99437.4
99457.2
99475.9
99492.6
99506.8
99518.5
99527.8
99534.7
99539.5
99541.9
99541.9
99539.6
99534.8
99527.7
99518.6
99507.5
99494.7
99480.2
99464.2
99446.5
99426.8
99405.3
99382.2
99357
99329.8
99301.2
99270.6
99238.2
99205.2
99170.7
99134.5
99098.4
99061.3
99022.1
98981.7
98939.3
98894
98846.4
98795.2
98738.1
98675.4
98608.9
98540.4
98470.5
98398.5
98322.4
98241.4
98155.4
98063.9
97967.1
97865.3
97758.1
97646.4
97529.4
97407.2
97280.2
97148.7
97013.1
96873.4
96730.2
96583.2
96433.2
96280
96123.9
95966.9
95806.5
95644.4
95483.9
95319
95136.8
94956.4
94774.3
94593.5
94415.9
94243.5
94078.5
93920.5
93770.4
93628.7
93494.3
93367
93248.4
93140.2
93041.2
92947.6
92859.5
92778.8
92708.6
92650.1
92599.5
92557.3
92522.7
92496.6
92476.6
92464.2
92457.4
92449.7
92447.7
92451.3
92458
92452.4
92445.7
92444.7
92428.7
92411.5
92391.1
92370.3
92344.4
92309.2
92268.4
92230.6
92182.5
92113.4
92020.2
91920.1
91812.1
91701
91581.5
91463.3
91342.8
91208.1
91065.6
90903.8
90721.3
90527.5
90326.8
90115.9
89891.8
89684.3
89438
89165.4
88891.5
88582.5
88257.2
87914.9
87535
87117.8
86680
86198.3
85680.3
85147.1
84598.2
84021.1
83429.4
82866.3
82325.7
81765.4
81208.3
80698.9
80222.4
79832.4
79421.6
79157.5
78872.4
78622.3
78511
78369.1
78261.3
78128.7
78018.3
77960.1
77969.8
77920.5
77888.4
77850.3
77850.6
77944.4
78172.2
78373.6
78543.8
78939.6
98927.5
98936.7