/*--------------------------------*- C++ -*----------------------------------*\
| =========                 |                                                 |
| \\      /  F ield         | OpenFOAM: The Open Source CFD Toolbox           |
|  \\    /   O peration     | Version:  dev                                   |
|   \\  /    A nd           | Web:      http://www.openfoam.org               |
|    \\/     M anipulation  |                                                 |
\*---------------------------------------------------------------------------*/
FoamFile
{
    version     2.0;
    format      ascii;
    class       volScalarField;
    object      p_0;
    location    "9.155";
}
// * * * * * * * * * * * * * * * * * * * * * * * * * * * * * * * * * * * * * //

dimensions      [1 -1 -2 0 0 0 0];

internalField   nonuniform List<scalar> 
12225
(
90692.4
90729
90828.5
90978.8
91162.1
91381.2
91620.3
91888.6
92165.5
92473.1
92775.9
93123.8
93437.4
93861.5
94209.1
94646.7
95169.9
95561.2
90688.9
90730.3
90830.3
90980.6
91163.8
91382.7
91621.8
91889.7
92166.8
92473.6
92777.5
93121.4
93443.7
93846.6
94205.1
94644.1
95114.2
95568.5
90689.8
90734.2
90835
90984.8
91167.6
91386.2
91625
91892.4
92169.5
92474.5
92780
93118.3
93447.4
93830.9
94195.5
94620.5
95055
95494.7
90693
90741
90842.7
90991.8
91174.3
91392.3
91630.9
91897
92174.3
92476.4
92783.1
93115.2
93447.2
93815.3
94177.6
94579.6
94991.1
95391.5
90699.5
90751.7
90854.3
91002.5
91184.7
91401.7
91640
91903.4
92181.1
92479.7
92786.7
93112.4
93445.3
93798.8
94152.7
94527.9
94902.7
95287.7
90710
90767.8
90870.2
91017.6
91199.4
91415.3
91652.3
91913.8
92190.2
92485.4
92790.5
93110.6
93440.4
93781.4
94130
94479.4
94843.4
95192.3
90729.8
90790.2
90892
91038.1
91219.6
91431.8
91669.4
91928.1
92203.1
92493.4
92796.3
93109.5
93434.6
93763.2
94107.4
94444.5
94797.9
95120.4
90755.9
90816.3
90917.5
91063.6
91243.1
91453.6
91689.4
91945.4
92218.4
92504.5
92804.4
93111.4
93431.1
93749.9
94084.6
94409.8
94738
95036.6
90785.2
90845
90945.5
91089.2
91268.7
91477.3
91711.4
91964.6
92235.3
92517.4
92813.6
93115.5
93428.2
93740.9
94060.6
94370.4
94676
94961.8
90827.5
90882.2
90983.2
91124.5
91303.3
91509.7
91741.1
91990.9
92258.2
92535.6
92826.3
93121.5
93425.1
93726.8
94032
94327.1
94614.3
94887.1
90886.2
90934.5
91033.9
91175.3
91349.9
91553.6
91780.9
92026.8
92288.9
92560.9
92843.9
93131.4
93423.3
93714
94002.8
94283.9
94553.6
94809.4
90960
91002.7
91101.2
91239.4
91411.8
91611.1
91834.1
92074.6
92330.5
92595.3
92869.5
93147.5
93427.1
93704.9
93977.9
94243.4
94497
94737.3
91054.8
91095.4
91190.7
91325.7
91494
91688.5
91905.3
92139.5
92387.4
92643.7
92907.3
93174.2
93440.7
93704.4
93962.2
94211.5
94449.6
94675
91180.4
91217.3
91309.2
91440.2
91603.1
91791.3
92000.7
92226.6
92464.9
92711.3
92963.1
93217.3
93470
93718.9
93961.3
94195.2
94418.5
94630.1
91340.3
91377.2
91465.3
91591.3
91747.3
91927.6
92127.9
92343.5
92570.6
92805.3
93044.2
93284.3
93522.5
93756.3
93983.7
94202.9
94412.2
94611
91547.9
91585.6
91669
91788.2
91935.7
92106
92295
92498.6
92712.8
92934.1
93158.9
93384.3
93607.5
93826.3
94039.1
94244.2
94440.4
94627.4
91827.9
91855.9
91930.6
92040.2
92176.7
92334.9
92510.7
92700.3
92899.9
93106.2
93315.8
93525.9
93734
93938.2
94136.8
94328.8
94513.1
94689.5
92126.4
92161.2
92229.4
92328.8
92453.2
92598.2
92760
92935.1
93120
93311.4
93506.2
93701.8
93896.1
94087.1
94273.5
94454.2
94628.3
94795.5
92423.6
92451.6
92513.4
92603.6
92717.3
92850.6
93000.1
93162.4
93334.5
93513.1
93695.6
93879.3
94062.3
94242.9
94419.8
94591.9
94758.5
94919.1
92674.9
92698.2
92755.3
92838.4
92943.3
93066.9
93206.2
93358.3
93520
93688.6
93861.4
94036
94210.5
94383.3
94553.2
94719
94880
95035.8
92873.8
92901.9
92955.1
93032.1
93129.7
93245.5
93376.7
93520.5
93674.1
93834.9
94000.2
94167.8
94335.9
94502.8
94667.4
94828.5
94985.6
95137.9
93046.3
93067
93115.4
93187
93278.7
93388.2
93513
93650.6
93798
93952.6
94112.2
94274.5
94437.7
94600.2
94760.8
94918.6
95072.6
95222.4
93176.5
93194.9
93240
93307.3
93394.3
93499
93619.1
93751.8
93894.4
94044.5
94199.7
94358
94517.6
94676.9
94834.7
94989.9
95141.8
95289.7
93265.3
93290
93333.7
93398
93481.4
93582.7
93699.3
93828.4
93967.5
94114.1
94266.1
94421.5
94578.4
94735.4
94891.1
95044.5
95194.7
95341.4
93340.5
93360.7
93402.5
93464.3
93545
93644.1
93758.2
93884.7
94021.1
94165.2
94315
94468.2
94623.3
94778.5
94932.7
95084.8
95234
95379.7
93391.7
93411.3
93451.2
93511.6
93591.6
93688.2
93800.1
93924.6
94059.2
94201.6
94349.8
94501.6
94655.2
94809.3
94962.4
95113.5
95261.9
95407
93428.5
93445.5
93483.7
93542.9
93621.6
93717.5
93828.3
93951.6
94084.9
94226.2
94373.4
94524.2
94677
94830.2
94982.6
95133.1
95281
95425.7
93455.8
93467.3
93503.8
93562.5
93640.8
93736.1
93846.2
93968.6
94101.2
94241.8
94388.4
94538.6
94690.8
94843.5
94995.5
95145.6
95293.1
95437.6
93469.4
93479.5
93514.7
93573.2
93651.4
93746.5
93856.4
93978.4
94110.7
94251
94397
94546.8
94698.7
94851.1
95002.8
95152.7
95300.1
95444.2
93476.6
93485.2
93519.7
93578
93656.1
93751.1
93860.7
93982.8
94114.7
94254.8
94400.7
94550.4
94702.1
94854.4
95005.9
95155.7
95303
95447
105793
105785
105768
105742
105707
105663
105610
105548
105476
105395
105305
105205
105096
104978
104851
104714
104570
104417
104255
104086
103908
103723
103530
103331
103125
102912
102692
102467
102235
101996
101752
101503
101249
100992
100730
100466
100198
99928.1
99656.3
99383.1
99108.9
98834.1
98559.2
98284.4
98010.1
97736.6
97463.9
97192.5
96922.4
96653.9
96386.9
96121.5
95857.6
95595.1
95333.7
95073.3
94813.9
94555
94296.2
94037.2
93777.4
93516.4
93253.5
92988.2
92719.9
92448.1
92172.4
91892.3
91607.5
91317.4
91021.3
90718.7
90409
90092.2
89768.6
89438.7
89103
88762.1
88417.3
88070.7
87723.8
87378.1
87035.5
86697.6
86366.6
86044.8
85734.8
85438.8
85159.4
84899.2
84659.3
84440.5
84245.2
84075.3
83932.1
83815.3
83721.9
83650.2
83599.4
83570.7
83562
83571.2
83598.3
83641.9
83702.3
83779.5
83871.2
83974.4
84086.4
84204.9
84327.9
84452.8
84576.8
84696
84816.6
84934.2
85048.9
85162.7
85269.7
85374.5
85479.2
85582.6
85686.9
85789.8
85892.9
85994.4
86093.7
86190.6
86283.5
86370.4
86448.8
86516.6
86572.4
86614
86639.3
86648.5
86639.9
86611.3
86560.9
86486.2
86383.8
86250.3
86085.7
85885.1
85646.5
85368.6
85050.9
84697.7
84316.3
83896.7
83476
83048.1
82612.5
82163.6
81717.7
81310.9
80927.8
80573.9
80248.8
79959.6
79716.3
79514.6
79317.2
79109
78880.5
78607.9
78272.1
77883.2
77410.3
76894.6
76366.3
75865.3
75396.8
74940.1
74536.3
74212.9
73943
73750.2
73662.5
73683.9
105746
105738
105721
105696
105661
105618
105565
105503
105432
105352
105262
105163
105054
104937
104811
104675
104531
104379
104219
104051
103874
103690
103499
103301
103096
102884
102666
102441
102210
101973
101730
101483
101232
100976
100716
100454
100188
99920.3
99650.6
99379.4
99107.4
98834.9
98562.3
98289.8
98017.7
97746.4
97475.9
97206.7
96938.8
96672.4
96407.5
96144.2
95882.4
95621.8
95362.1
95103.2
94845.2
94587.6
94330.3
94072.6
93814.2
93554.5
93293
93029
92761.9
92491.2
92216.6
91937.8
91654.5
91366.1
91072
90771.1
90462.7
90146.6
89823.6
89494.5
89159.7
88819.8
88476.2
88130.5
87784.1
87438.7
87097.2
86760.2
86430.1
86109.2
85800.4
85505.8
85227.5
84969
84730.8
84511.4
84317.1
84148
84003.8
83888.5
83794.9
83723
83668.3
83636.2
83626.5
83634.3
83661.5
83707.3
83768.4
83844.9
83936.2
84039.6
84151.3
84268.5
84389.3
84510.5
84630.8
84754
84874.6
84991.8
85104.8
85218
85323.7
85426.8
85530.9
85632.1
85734.7
85836.5
85938.2
86038.2
86135.7
86231.2
86322.4
86407.7
86484
86549.5
86603.3
86642.8
86666
86673.4
86663.1
86633.3
86581
86504.3
86400.4
86265.5
86098.6
85897
85657
85377.7
85059.8
84705.4
84327.9
83895.9
83478.9
83052.7
82616
82163.6
81723.2
81312.1
80928.2
80572.7
80247.2
79959.2
79716.1
79517
79322.9
79114.4
78886.9
78618.1
78278.7
77895.7
77431.1
76911.3
76388.5
75887
75415.9
74956.5
74566.5
74237.6
73974.5
73781.7
73697.2
73718.8
105652
105644
105628
105603
105569
105526
105474
105414
105344
105264
105176
105078
104970
104854
104729
104596
104454
104304
104146
103980
103805
103624
103435
103239
103036
102827
102611
102388
102160
101927
101688
101445
101197
100945
100689
100431
100169
99905.7
99640.3
99373.5
99105.7
98837.5
98569.1
98300.8
98033
97765.9
97499.7
97234.8
96971.2
96709.1
96448.4
96189.1
95931.1
95674.3
95418.3
95163
94908.2
94653.6
94399
94143.9
93888.1
93631.2
93372.3
93110.7
92845.9
92577.4
92305.1
92028.8
91748.5
91463.3
91172.6
90875
90569.3
90255.4
89934.4
89607.1
89273.8
88935.4
88593.2
88250.7
87907
87561.3
87223.3
86888.8
86559.6
86240.2
85933.6
85640.4
85364.1
85111
84876.7
84650.4
84458.8
84295.5
84150.9
84030.5
83935
83860.9
83804
83768.4
83756.1
83764.5
83792.2
83837.9
83899.4
83977
84069
84172.3
84282.4
84397.4
84515.7
84634.8
84754.5
84876.1
84995.7
85110
85220.1
85328
85432.2
85533.2
85636.7
85732.3
85830.5
85930
86029.6
86125.4
86219.9
86312.8
86401.6
86483.7
86555.6
86616.9
86666.3
86701.8
86721.6
86724.7
86710.7
86676.7
86620.9
86541.1
86433.6
86295.3
86124.9
85920
85677.3
85395
85074.6
84718.2
84341.2
83902.3
83486.2
83057.2
82612.2
82153.8
81716.6
81309.2
80927.9
80569.4
80243.7
79954.7
79707.2
79500.3
79315.6
79112.6
78886.8
78616.9
78280.5
77904.8
77455.3
76931.7
76414.8
75919.2
75446.9
74986.7
74580.5
74282.4
74038.1
73844.8
73770.1
73794.6
105512
105505
105488
105464
105431
105389
105338
105278
105210
105131
105044
104948
104843
104729
104607
104477
104338
104191
104036
103872
103700
103522
103337
103145
102946
102741
102530
102312
102089
101861
101627
101389
101146
100900
100651
100398
100143
99885.1
99625.8
99365.2
99103.7
98841.7
98579.5
98317.5
98055.9
97795
97535.1
97276.3
97018.8
96762.4
96507.4
96253.6
96001
95749.5
95499
95249.2
94999.5
94749.9
94499.8
94249.1
93997.6
93744.9
93490.1
93232.4
92971
92705.7
92436.5
92163.8
91887.4
91606.5
91319.9
91026.5
90725.2
90415.5
90098.2
89774
89443.4
89108.1
88769.9
88429.2
88087.7
87746.8
87410.4
87078.2
86751.9
86436.3
86134
85842.7
85566.7
85324
85090.4
84863.6
84674.2
84509.8
84364
84238.2
84137.4
84059.9
84001.5
83965.1
83951
83958.2
83986.1
84031.9
84094.3
84172
84263.5
84366.1
84474.9
84588.5
84705.4
84822.8
84941.2
85060.6
85177.9
85288.9
85394.9
85497.9
85598.2
85696.5
85795.2
85884.6
85977.9
86073
86170.3
86259.4
86348.2
86435.8
86521
86598.9
86664.6
86718.8
86761.9
86791.3
86804.8
86802.4
86781.9
86742.3
86682
86595.5
86483.5
86340.4
86164.1
85955.6
85708.1
85420.9
85097.3
84737.2
84351.8
83927.8
83503.7
83064.9
82611.3
82153.1
81713.8
81306.6
80927.5
80567.8
80243.4
79959.8
79717.5
79496.1
79303.6
79106
78884.4
78612.4
78281.1
77915.6
77498.3
76966.9
76460.8
75974.4
75499.8
75042.5
74656.3
74352.5
74129.4
73954.7
73888.8
73916.5
105327
105320
105304
105280
105248
105207
105157
105099
105031
104955
104870
104777
104676
104566
104447
104318
104182
104038
103886
103727
103560
103388
103208
103022
102830
102631
102425
102214
101997
101775
101548
101316
101081
100842
100600
100355
100107
99857.2
99605.9
99353.3
99100
98846.3
98592.5
98338.9
98085.9
97833.5
97581.9
97331.2
97081.4
96832.7
96584.9
96338.2
96092.3
95847.4
95603.3
95359.9
95116.7
94873.5
94629.6
94384.9
94139.1
93891.9
93642.7
93390.3
93134.2
92874
92609.8
92341.7
92069.4
91792.4
91510.5
91222.6
90927.5
90624.4
90313.3
89994.2
89668
89337.1
89002.7
88664.9
88327.9
87991.3
87657.8
87329.1
87007.2
86696.5
86398
86111.9
85843.2
85598.9
85366.5
85148.7
84957.8
84791.2
84642.6
84512
84404.9
84322.4
84262.9
84227.1
84212.1
84217.1
84244.6
84291.3
84353.9
84430.1
84519.3
84620
84726.6
84838
84954.5
85071.9
85188.2
85304.6
85419
85527.7
85631.1
85730.7
85821.3
85911.7
86006.6
86089.2
86177.7
86264.7
86359.8
86441.4
86521.9
86601.5
86682.3
86756.9
86811.6
86856
86890.4
86910.9
86916.2
86905.3
86877.9
86830.5
86763
86669.8
86550.9
86400.5
86216.9
86002.1
85748.9
85455.9
85127.3
84766.5
84373.3
83957.8
83527.2
83075.7
82612.7
82155
81719.1
81309
80928.8
80570
80236.4
79945
79711
79484.8
79295.3
79096.8
78874.4
78604.1
78270.8
77918.4
77540.8
77026.1
76524.2
76039.2
75572
75119.6
74758.8
74441.2
74245.8
74126.8
74046.2
74081.9
105098
105091
105076
105053
105021
104981
104933
104876
104811
104738
104657
104567
104469
104362
104245
104120
103988
103849
103702
103549
103390
103224
103052
102873
102687
102494
102296
102091
101882
101667
101448
101225
100998
100768
100535
100299
100060
99820.3
99578.7
99336.2
99093.2
98850.1
98607
98364.3
98122.1
97880.4
97639.4
97398.9
97158.9
96919.5
96681
96442.9
96205.4
95968.4
95732
95495.9
95259.9
95023.7
94787
94549.4
94310.6
94070.1
93827.3
93581.4
93331.9
93078.6
92821.4
92559.7
92292.8
92020.3
91742.6
91460.3
91172.1
90876.6
90573.6
90262.5
89943.3
89618.3
89289.1
88956.8
88624.3
88293
87964.6
87640.9
87324.3
87018
86724.4
86444.2
86179
85941.1
85709.5
85495
85302.8
85133.2
84982.7
84850.4
84739.8
84653.4
84593
84557.7
84542.2
84547.3
84575.7
84622.6
84683
84755.9
84841.8
84939.6
85043.6
85150.5
85263.9
85379.2
85492.9
85606.6
85717.1
85822.1
85922.9
86014.8
86101.3
86180.9
86276.8
86349
86430.8
86504.8
86594.7
86669.5
86741.2
86809.9
86882.6
86959.9
86997.5
87028.5
87052.1
87062.8
87057.6
87034.3
86998
86940.8
86864.9
86763.3
86635.6
86477.4
86284
86061.2
85800.5
85500
85168.4
84805.7
84400.7
83986.8
83557.8
83085.6
82613.1
82160.2
81734.7
81316.6
80929.5
80570.5
80228.5
79922.1
79669
79458.4
79270.7
79085.5
78862.7
78594.3
78267
77930.7
77598.6
77113.8
76599.6
76123
75657.7
75201.1
74818
74553.5
74391.2
74310.8
74234.7
74288.9
104827
104820
104806
104783
104753
104714
104668
104615
104553
104483
104404
104317
104221
104117
104005
103886
103760
103627
103488
103342
103189
103031
102866
102694
102516
102331
102140
101944
101744
101539
101329
101116
100899
100679
100456
100231
100003
99774.5
99544.4
99313.9
99083.2
98852.7
98622.5
98392.8
98163.6
97934.7
97706
97477.6
97249.3
97021.1
96793.2
96565.3
96337.7
96110.3
95883.1
95655.7
95428.1
95200
94971.2
94741.4
94510.3
94277.6
94042.4
93804
93561.9
93315.9
93066.5
92813
92554
92288.3
92016.3
91738.9
91456.5
91168.3
90873.5
90571.2
90260.8
89943.1
89620.2
89296.9
88969.9
88644.5
88323.5
88008.5
87699.4
87398.8
87110.7
86836.7
86577.3
86336.2
86109.1
85897.5
85704.9
85533
85381.6
85249.9
85138.9
85052.1
84993
84958
84942.2
84948.5
84977.1
85021.6
85078.6
85148.7
85231.4
85325
85425.3
85527
85634.3
85745.1
85855.6
85964.8
86069.5
86170.4
86266.1
86353.6
86437
86509.4
86594.4
86659.3
86733.7
86792.7
86870.6
86941.2
87008.6
87067
87127.9
87187.5
87217.4
87236.2
87248.5
87248
87231.8
87192.9
87142.8
87073.1
86988
86876.6
86737.7
86571.5
86366.8
86133
85866.7
85554.9
85217.7
84857.3
84445.7
84018.2
83598.5
83105.7
82626.8
82176.9
81753.2
81326.2
80933
80573.7
80249.3
79946.1
79680.4
79444.5
79246.8
79072.3
78856.8
78588.7
78269
77949.6
77640.3
77221.7
76682.2
76230.1
75769.7
75310
74942.5
74720.3
74581.1
74521.6
74461.1
74535.3
104514
104508
104494
104473
104445
104409
104366
104314
104255
104188
104112
104029
103936
103837
103732
103620
103501
103376
103243
103105
102960
102810
102652
102488
102318
102142
101960
101775
101584
101390
101192
100990
100785
100576
100365
100152
99936.4
99720.1
99503.1
99286.2
99069.7
98853.7
98638.4
98423.6
98209.1
97994.8
97780.4
97565.6
97350.5
97134.9
96919.1
96703.2
96486.9
96270.4
96053.5
95836.2
95618.4
95399.8
95180.2
94959.2
94736.6
94512.2
94285.5
94055.8
93822.3
93584.3
93342.4
93096.7
92846.6
92590.1
92326.5
92056
91780.1
91499.2
91212.7
90919.5
90618.4
90309.8
89996.1
89679.1
89360.7
89043.4
88730
88423.5
88124.8
87833.7
87552.7
87283.5
87028
86788.4
86563.7
86354.6
86163.1
85991.3
85840.7
85710.6
85600.8
85516.2
85459.9
85425.8
85410.8
85417.8
85443.3
85482.8
85536.4
85604.9
85684.9
85774.1
85870.2
85968.8
86071.3
86174.8
86278.3
86380.9
86480.2
86574.8
86665.4
86749.8
86827
86895.4
86963.5
87022.4
87087.5
87130.4
87195.7
87262.2
87326.1
87377.6
87421.3
87448.5
87473.4
87482.5
87483.2
87467.3
87438.8
87385.8
87317.9
87231.8
87133
87011.4
86857.7
86681.8
86467.7
86219.5
85946.2
85627.6
85272.6
84908.4
84508.1
84067.3
83631.3
83145.6
82657.3
82204.5
81761.2
81340.6
80934.1
80571.2
80246.6
79989.5
79691
79463.6
79238.5
79070.1
78854.6
78587.9
78278.9
77967.6
77666.4
77355.9
76788.3
76364.1
75924.4
75487.2
75154.9
74957.3
74821.3
74771.3
74734.2
74824.9
104162
104156
104144
104125
104099
104065
104024
103974
103918
103855
103784
103705
103619
103527
103428
103324
103212
103094
102970
102839
102702
102560
102411
102256
102095
101929
101759
101584
101405
101223
101037
100847
100655
100460
100262
100062
99860.3
99658
99455.8
99254.2
99053.4
98853.5
98654.3
98455.7
98257.2
98058.6
97859.7
97660.1
97459.5
97257.9
97055.5
96852.7
96649.4
96445.3
96240.3
96034.3
95827.2
95619.1
95409.8
95198.9
94986.1
94770.9
94553.3
94332.8
94108.9
93880.7
93647.5
93409.8
93168.2
92921.6
92668.1
92407.1
92139.9
91867.6
91590.5
91307
91015.8
90717.1
90412.7
90104.7
89795.8
89488.1
89183.3
88884.6
88596.1
88316.9
88044.5
87781.5
87531.1
87295.4
87074.4
86868.6
86680
86510.7
86362.5
86235
86128.7
86047.9
85993.9
85960.4
85945.5
85949.1
85968.5
86003.5
86054.5
86121.2
86197.6
86281.8
86373.8
86470.4
86569.6
86666.5
86762.9
86858.7
86950.8
87037.7
87122.3
87201.5
87272.9
87334.9
87387.7
87439.3
87494.1
87527.8
87582.3
87636.5
87695.3
87736.1
87763.5
87781.3
87783.6
87772.9
87759.4
87724.2
87677
87610.1
87525.2
87420.6
87302.2
87167.7
87000.7
86810.3
86586.2
86322.5
86038.8
85715
85344.5
84963.7
84571.9
84129.1
83664.3
83179.1
82696.3
82239.9
81782.1
81346.9
80936.8
80570.6
80228.1
79912.9
79657.9
79472.8
79245.5
79074
78863.1
78593.4
78297.4
77985.2
77707.1
77506
76919.3
76513
76112
75709.7
75393.9
75204.3
75100
75061.4
75057
75159.5
103774
103770
103759
103741
103717
103685
103646
103601
103548
103488
103422
103350
103271
103185
103095
102997
102894
102784
102668
102546
102418
102285
102146
102001
101851
101696
101537
101374
101208
101039
100867
100692
100514
100333
100150
99964.4
99777.6
99590.2
99403.5
99218.2
99034.4
98851.6
98669.6
98487.9
98306
98123.7
97941.2
97758.2
97573.4
97386.4
97198.4
97009.9
96820.9
96630.9
96439.3
96245.9
96050.8
95854.3
95656.2
95456.4
95254.5
95049.9
94842.4
94631.9
94417.8
94199.9
93977.3
93749.3
93517.2
93280.6
93037.7
92787.3
92530.5
92268.7
92002.1
91729.4
91448.9
91160.4
90866.3
90569
90271
89974
89679.7
89390.9
89111.7
88846.3
88582.2
88327.6
88084.6
87854.5
87638.9
87439.1
87256
87091.2
86946.7
86823.1
86720.7
86643.5
86590.4
86556.6
86539.5
86537.7
86553.1
86585.5
86634.1
86696.7
86767.7
86846.4
86933.4
87026.9
87123.5
87217.6
87308.9
87398
87481.6
87560.9
87636.5
87709.3
87775
87829.9
87869
87911
87951.4
87988.1
88034.4
88065
88114.1
88138.7
88152.8
88153.2
88139.8
88110.3
88076.7
88021.6
87950
87865.4
87762
87638.5
87498.9
87348.5
87167.3
86960.4
86725.6
86445.1
86146.4
85818.9
85438.2
85038.9
84640.5
84204.7
83731.4
83229.9
82732
82265.2
81812.7
81350.1
80928.1
80576.9
80228.4
79885.2
79608.1
79455.4
79260.8
79058.2
78886.6
78615.7
78330.2
78030
77762.7
77607.2
77081.1
76690.2
76308.4
75919
75623.2
75489.9
75415.9
75392.1
75416.7
75532.4
103353
103350
103341
103325
103303
103274
103239
103197
103149
103095
103034
102968
102896
102819
102735
102646
102551
102450
102343
102231
102113
101989
101861
101726
101588
101445
101298
101149
100997
100842
100685
100525
100363
100197
100030
99860
99689.5
99517.6
99346.6
99178.6
99012.2
98847.2
98682.8
98518.6
98354.1
98188.5
98022.6
97858.7
97691.7
97518.3
97345.2
97171.8
96997.9
96823.7
96646.6
96467.1
96285.1
96101.1
95915.2
95727.4
95537.3
95344.3
95148
94948.4
94745
94537.3
94325.4
94108.5
93887.5
93661.6
93430.1
93191.4
92946.2
92696.4
92442.1
92181.8
91913.4
91636.6
91353.6
91068
90781.7
90497.1
90214
89936.3
89669.7
89412.5
89160.5
88917.4
88684.3
88462.3
88254
88061.4
87885.7
87727.1
87587.1
87467.9
87369.9
87295.4
87243.3
87209
87188.9
87184.7
87198.8
87227.7
87272.3
87329.8
87396.4
87471.4
87552.8
87639.9
87731.4
87823.1
87910.6
87994.6
88071.9
88141.8
88208.4
88273.1
88331.1
88378.5
88406.1
88437
88462.3
88496.5
88516.2
88547.5
88580.4
88587.3
88585.8
88565.1
88530.3
88487
88431.2
88354.7
88257.8
88150.7
88028.2
87886.6
87725
87556.4
87359.1
87133.5
86888.7
86593.2
86272.3
85940.4
85552.6
85136.5
84717.4
84284.7
83839.3
83321.8
82804.4
82322.8
81863.9
81395
80928.9
80570.3
80239.8
79953.2
79686.8
79457.8
79301.7
79067.9
78917.2
78663.8
78381
78096.8
77832.8
77659.3
77297.8
76904.6
76530.6
76167.5
75910.9
75838
75760.9
75752.7
75802.3
75941.9
102904
102901
102893
102880
102861
102835
102804
102767
102724
102675
102621
102562
102498
102428
102353
102272
102186
102094
101997
101894
101787
101675
101557
101435
101310
101181
101048
100914
100777
100637
100495
100351
100204
100054
99902.3
99748.6
99594.3
99440.3
99287.2
99136.2
98987.2
98839.8
98693.4
98547.4
98401.2
98254.1
98105.8
97956.6
97805.3
97650.9
97494
97336
97177.8
97019
96857.6
96693.3
96525.9
96355.6
96182.8
96007.8
95830.4
95649.3
95465.3
95277.3
95085.5
94889.3
94688.1
94481.9
94274.4
94059.7
93839.8
93613.9
93381.5
93145
92904.4
92658.3
92403.6
92140.3
91870.3
91597.2
91323.5
91051.7
90780.7
90515.6
90259.2
90012.9
89774.4
89544
89323
89112.7
88914.5
88730.6
88562.3
88410.7
88277.2
88163.2
88069.6
87998.2
87947.8
87913.3
87891.7
87886.9
87898.6
87922.2
87961.9
88015.1
88078.2
88151.4
88229.8
88311
88395.5
88481.9
88566.2
88646
88718.6
88781.3
88837.7
88892.7
88943.6
88980.5
88996.9
89016.5
89029.7
89056.5
89064.9
89081.4
89087.8
89074.3
89052.8
89016
88958.4
88901.5
88820
88717.1
88598.9
88470.2
88326.6
88167.1
87981.8
87792.7
87577.7
87331.7
87075.1
86769.6
86423.6
86078.8
85686.8
85257.4
84820.6
84368.1
83927.9
83427.8
82907.7
82409.7
81937.4
81463.1
80986.2
80575.6
80242.3
79985.3
79757.2
79483
79321
79107
78958.1
78736.2
78460.7
78187.8
77929
77748.8
77533.2
77145.1
76787.2
76478.7
76265.9
76188
76130.1
76161.1
76217.2
76396.1
102429
102427
102421
102410
102393
102372
102346
102314
102277
102235
102188
102136
102079
102018
101951
101879
101803
101721
101634
101543
101447
101346
101242
101133
101022
100907
100790
100671
100549
100424
100297
100168
100036
99902.8
99767
99630.1
99493.2
99357
99222.2
99089.1
98957.9
98828.5
98700.3
98572.4
98444.1
98315.3
98185.3
98053.2
97918.7
97781.6
97641.8
97500.1
97357.7
97214.6
97069.1
96920.5
96768.4
96612.9
96454.5
96293.3
96128.9
95960.6
95789
95613.1
95433.3
95249.7
95061.3
94868.3
94671.2
94469.2
94262.3
94049.7
93831.2
93608.5
93382
93150.7
92911.3
92663
92407.8
92148.8
91889.1
91631
91374.4
91122.1
90878.2
90644.1
90419.1
90202.3
89994.3
89797.1
89611.8
89439
89279.5
89136
89010.6
88904.1
88816.8
88749.3
88700.1
88665.3
88645.2
88640.6
88649.7
88670.5
88707.5
88756.5
88814.7
88884.5
88961.6
89040.9
89119.4
89197.3
89275.7
89350.8
89419.1
89476.9
89524
89568.9
89610.1
89637.1
89645.2
89651.7
89651
89664.4
89655.3
89655.9
89635.4
89600.6
89556.6
89502.4
89428.4
89355.2
89241.6
89109.9
88973.1
88824.5
88658.2
88480.4
88271
88058.7
87825.4
87557.3
87284
86973.1
86606.4
86237.3
85839.9
85401.1
84950.5
84474.2
83997.8
83527
83012.1
82502.6
82020.4
81541.3
81060.9
80642
80290.9
79989.2
79787.8
79490.5
79324.1
79165.2
79003.4
78832.3
78582
78319.6
78070.5
77890.3
77795
77404.4
77085.9
76841.7
76659.3
76481.4
76574.3
76630.9
76693.7
76912.9
101932
101932
101927
101918
101905
101889
101868
101842
101811
101776
101737
101693
101645
101592
101534
101473
101406
101335
101260
101180
101096
101007
100916
100821
100723
100623
100521
100416
100310
100200
100089
99975.9
99860.7
99743.6
99625.1
99506
99387.2
99269.2
99152.7
99038
98925.1
98813.6
98703.2
98593.2
98482.6
98372
98260.5
98146.1
98028.6
97908.2
97785.2
97660.1
97534.1
97407.5
97278.7
97146.1
97009.5
96868.9
96725.1
96578.2
96427.9
96273.2
96114.3
95951.5
95784
95612.7
95436.9
95256.8
95072.9
94884.2
94690.7
94492.4
94288.3
94080.5
93869.2
93653.9
93431.1
93199
92959.5
92715.9
92471.5
92228.5
91988
91751.5
91521.9
91301.3
91089.9
90887.2
90693.2
90509.3
90337.4
90177.2
90029.3
89896
89779.9
89682.2
89603.1
89541
89494.4
89461.1
89444.1
89442
89452.3
89476
89514.2
89559.6
89610.8
89673.5
89746.1
89823.6
89900.4
89971.7
90039.9
90108.7
90173.4
90223.9
90261
90299
90330.1
90347.7
90348.4
90341.9
90325.8
90317.3
90289.5
90267.6
90223.2
90169.1
90103.8
90028.7
89936.8
89838.2
89698.6
89543.9
89386.5
89214.9
89025.6
88827.9
88594
88357.3
88104.8
87814.9
87520.8
87202.7
86820.3
86428
86015.7
85570.1
85107
84611.5
84121.5
83631.6
83121.2
82608.7
82104.9
81616
81139.5
80718.4
80379.8
80022
79827.9
79560.6
79320.2
79242.9
79070.8
78947.8
78736.2
78494.8
78266.8
78080.1
78092.6
77692.1
77443.1
77244
77072.7
76949.9
77100.6
77158.7
77237.1
77489.5
101416
101417
101415
101409
101400
101387
101372
101354
101331
101304
101272
101237
101198
101155
101108
101056
101000
100940
100875
100807
100735
100659
100580
100498
100414
100328
100241
100152
100061
99968.2
99873.7
99777.3
99679.1
99579.4
99478.6
99377.5
99276.9
99177.5
99079.3
98982.7
98887.9
98794
98701
98608.8
98515.6
98422.5
98329.2
98232.4
98131.9
98028.5
97922.2
97813.4
97703.4
97593.1
97481
97365.3
97244.9
97119.7
96990.5
96857.9
96721.5
96581.2
96436
96286.5
96132.6
95974.2
95811.5
95644.4
95473.4
95298.3
95118.8
94935.3
94747
94553.7
94359.3
94160.5
93955.5
93741.5
93519.3
93292.5
93064.6
92838
92614.3
92395.1
92181.9
91976.5
91779.7
91591.9
91413
91243.8
91085.7
90939.5
90804.8
90682.8
90577.1
90489.6
90419.7
90364.8
90323.2
90295.1
90282.3
90284.1
90298.8
90328.9
90368.5
90412.9
90462.1
90522.1
90586.5
90657.2
90732.7
90800.5
90859.9
90920.1
90978.7
91022
91046.2
91082.5
91102.9
91111.7
91104.5
91083.5
91051.1
91019.5
90972.5
90922.9
90854.4
90781.4
90698.2
90597.5
90484.7
90356.4
90196.4
90022.5
89841.5
89644.9
89431.8
89211.3
88953.4
88690.9
88417.6
88107.3
87791.2
87457.9
87065
86653.4
86222.1
85767.7
85288.7
84782.2
84280.1
83769.1
83256.8
82743.4
82229.7
81727.5
81249.2
80822.1
80493.7
80108
79864.8
79664.5
79388.6
79341.5
79177.9
79080.2
78914.2
78702.5
78504.2
78344.7
78399.6
78032.3
77856.9
77692.2
77533.9
77452.7
77536.2
77639.4
77828
78131.8
100885
100887
100887
100885
100880
100873
100863
100851
100837
100820
100798
100772
100742
100709
100673
100632
100588
100539
100486
100429
100369
100306
100240
100172
100102
100031
99958.3
99884.3
99809
99732.4
99654.3
99574.7
99493.6
99411.4
99328.5
99245.5
99163.2
99082
99001.5
98922.6
98845.6
98769
98692.9
98617.6
98541.9
98465.9
98389.8
98310.7
98226.9
98139.9
98050
97957.9
97864.5
97770.4
97674.2
97574.3
97469.7
97360.4
97246.4
97128.3
97006.3
96879.7
96748.6
96612.5
96472
96327.3
96178.6
96025.5
95868
95706.8
95541.7
95372.8
95200.2
95023.1
94843.5
94662.7
94475.5
94281.2
94078.1
93869.8
93660
93451.4
93245.3
93043.9
92848.3
92660
92480.1
92308.7
92146.1
91993.1
91851.1
91720.7
91601.2
91492.6
91397.9
91320.5
91261
91214.7
91181.3
91160.2
91152.8
91160.2
91180.1
91217
91257.9
91301.4
91354.3
91418.8
91480.9
91542
91612.4
91677.6
91730.9
91781
91831.1
91865.4
91889.8
91910.6
91922.4
91924.9
91909.2
91875.2
91825.4
91771.8
91702.3
91625
91535.1
91440.2
91338.1
91210.1
91075.5
90921
90738.9
90542.3
90334.7
90111.5
89873.2
89633
89354.1
89063.1
88767.8
88436.7
88097.8
87744.4
87342.6
86913.5
86463.9
85994.4
85499.6
84986.9
84471.8
83940.4
83420.5
82903.7
82387.6
81880.6
81394.8
80968.8
80602.9
80242.6
79948.1
79792.3
79504.9
79438.8
79316.3
79228.5
79122.3
78947
78784.3
78642.9
78653.6
78414.8
78302.1
78171.2
78050.7
78014.8
78101.1
78259.4
78491.5
78857.3
100339
100343
100345
100347
100348
100347
100343
100339
100333
100326
100315
100301
100282
100260
100234
100205
100172
100136
100096
100052
100005
99955.6
99903.4
99849.2
99793.3
99736.1
99677.7
99618.3
99557.9
99496.5
99434
99370.5
99306.2
99241.4
99176.3
99110.8
99046
98982.7
98919.9
98857.8
98797.5
98737.9
98678.7
98620.6
98562
98502.6
98443
98380.3
98312.3
98240.4
98166
98090.2
98013.8
97936.2
97855.4
97770.7
97681.2
97587
97488.3
97384.7
97277
97164.6
97047.4
96925.5
96798.7
96667.6
96532.4
96393.2
96250.1
96103.2
95952.9
95798.8
95641.6
95480.9
95316.8
95152.4
94985.6
94810.8
94628.5
94440
94249.6
94060.2
93873.1
93690.6
93513.9
93344.1
93182.6
93029.6
92884.8
92749.2
92624.2
92511.2
92409.9
92317.7
92236.3
92169.4
92119.7
92083.5
92059.3
92048
92048.2
92062.5
92090.1
92131.2
92176.8
92220.9
92278.3
92350.4
92415.7
92474.2
92538.5
92601.1
92643.2
92685.5
92726.5
92757.3
92777.2
92786.9
92787.7
92782.7
92759.8
92715.4
92648.2
92572.9
92481.4
92379.6
92266.3
92147
92021.1
91870.3
91712
91530.4
91322
91098.9
90862.6
90612
90348.4
90093.9
89795.5
89475.8
89158.3
88805.1
88443
88067.9
87653.1
87206.4
86742.8
86254.8
85743.8
85222
84695
84149.2
83606.1
83081.9
82578.1
82074.8
81572.4
81155.9
80731.3
80416
80084.3
79917.3
79662.2
79542.9
79480.1
79409.1
79357.9
79232.6
79109.5
78994.4
78969.8
78842.9
78772.4
78679.3
78611.8
78649.4
78797.8
78996.8
79234.7
79645.2
99782.1
99788.5
99792.3
99797.8
99804.8
99812.1
99818
99821.9
99825.1
99827.3
99827.9
99825.9
99820.3
99810.8
99797.3
99780
99759.1
99734.9
99707.5
99677.1
99643.7
99607.5
99569.1
99528.8
99486.8
99443.6
99399.3
99354.3
99308.6
99261.9
99214.7
99167.2
99119.1
99070.8
99022.8
98974.5
98926.5
98879.9
98833.9
98788.2
98744.8
98702.2
98659.4
98617.3
98574.7
98530.9
98486.2
98438.8
98386.6
98329.9
98270.8
98210.9
98150.5
98088.5
98023
97953
97878.4
97798.8
97714.2
97625
97530.9
97432.5
97329
97220.6
97107.6
96990.2
96868.9
96743.4
96614.4
96481.8
96346
96207.2
96064.8
95920.5
95773
95625.2
95477.1
95321.8
95161.1
94994
94824.9
94656.1
94489.6
94327.1
94170.8
94021
93878.8
93745.1
93619.6
93502.6
93395.7
93301
93218.2
93144.6
93080
93026.5
92986.5
92962.3
92949.8
92949.9
92961.3
92984.1
93019.3
93066.1
93120.8
93165.9
93229.1
93313.3
93380
93440.3
93497.8
93552
93596.7
93634.1
93664.1
93687.8
93702.7
93704.6
93694.9
93681.3
93652.6
93599.2
93517
93421.6
93311.5
93186
93047.5
92903.8
92751.2
92578.6
92394.7
92184.9
91950.5
91700.9
91436.6
91159.7
90869
90592.8
90274.2
89930.2
89589.1
89213.7
88828.8
88430.8
87997.6
87533.5
87058.9
86553.1
86023
85489.3
84951.1
84393.9
83827.9
83288.9
82805
82292.4
81793.5
81357.5
80917.1
80597.6
80273.8
80056.5
79857.8
79725.1
79696.8
79627.6
79620.2
79553.5
79474.9
79406.6
79381.9
79330
79291.9
79235.8
79227.1
79337.2
79530.7
79772.5
80042
80471.2
99307.8
99315.6
99319.7
99329.9
99342.5
99357.7
99372.3
99386
99398.2
99409
99418.6
99426.3
99431.6
99433.5