/*--------------------------------*- C++ -*----------------------------------*\
| =========                 |                                                 |
| \\      /  F ield         | OpenFOAM: The Open Source CFD Toolbox           |
|  \\    /   O peration     | Version:  dev                                   |
|   \\  /    A nd           | Web:      http://www.openfoam.org               |
|    \\/     M anipulation  |                                                 |
\*---------------------------------------------------------------------------*/
FoamFile
{
    version     2.0;
    format      ascii;
    class       surfaceScalarField;
    object      phi;
    location    "9.155";
}
// * * * * * * * * * * * * * * * * * * * * * * * * * * * * * * * * * * * * * //

dimensions      [1 0 -1 0 0 0 0];

internalField   nonuniform List<scalar> 
24170
(
1.92899e-06
1.28132e-06
1.01426e-06
8.1075e-07
5.43374e-07
3.60659e-07
2.91535e-07
1.46322e-07
2.95826e-08
1.58651e-07
-1.10624e-07
4.62871e-08
-3.88241e-07
1.87755e-07
-5.14576e-07
4.49979e-08
-7.94053e-07
2.04215e-07
-9.92729e-07
1.24399e-07
-1.34553e-06
2.87601e-07
-1.39671e-06
-1.20441e-08
-2.00294e-06
5.47911e-07
-1.75638e-06
-2.96388e-07
-3.04987e-06
1.26308e-06
-3.07586e-06
-3.58418e-08
-4.5483e-06
1.47285e-06
2.84038e-06
-7.39875e-06
3.62939e-06
1.21716e-06
2.94439e-06
1.33629e-06
2.49421e-06
6.52596e-07
2.03496e-06
4.5451e-07
1.74056e-06
3.11635e-07
1.4617e-06
1.92433e-07
1.23897e-06
2.87032e-07
1.05544e-06
1.14249e-07
8.1883e-07
3.3527e-07
8.13647e-07
2.88729e-08
4.43761e-07
5.6665e-07
8.03759e-07
-4.58191e-07
5.89409e-08
1.21605e-06
8.93854e-07
-1.20091e-06
-4.45055e-07
2.55446e-06
8.54442e-07
-1.40139e-06
-2.76824e-06
5.07718e-06
6.48479e-06
-6.43193e-06
4.32158e-06
7.4546e-07
4.01042e-06
1.46707e-06
3.87348e-06
6.13703e-07
3.44996e-06
7.10241e-07
3.20348e-06
4.01522e-07
2.8587e-06
3.90136e-07
2.60267e-06
4.05934e-07
2.56391e-06
2.62425e-08
2.14426e-06
6.37516e-07
2.48948e-06
-4.27591e-07
1.79384e-06
1.16186e-06
2.39754e-06
-1.1566e-06
1.44601e-06
2.08034e-06
1.93995e-06
-1.77079e-06
9.43682e-07
3.46849e-06
9.86193e-07
-1.50997e-06
-8.96868e-08
6.08757e-06
7.15382e-06
-7.99967e-07
4.62448e-06
4.857e-07
4.84558e-06
1.04768e-06
4.74208e-06
5.24074e-07
4.69819e-06
5.70701e-07
4.30518e-06
6.2216e-07
4.42533e-06
1.09286e-07
3.94182e-06
7.38971e-07
4.16885e-06
-3.40583e-07
3.58935e-06
1.0887e-06
3.82347e-06
-7.83392e-07
3.05415e-06
1.8208e-06
3.2374e-06
-1.44418e-06
2.44216e-06
2.78298e-06
2.54395e-06
-1.96036e-06
1.02999e-06
4.90706e-06
2.0435e-06
-2.58937e-06
2.61885e-07
7.78954e-06
8.26309e-06
-9.23432e-07
4.71327e-06
5.19572e-07
5.53568e-06
8.04739e-09
5.19113e-06
6.56571e-07
5.62321e-06
-6.22137e-08
5.10235e-06
9.54248e-07
5.3884e-06
-3.52682e-07
4.85046e-06
1.11224e-06
5.01745e-06
-6.61978e-07
4.49798e-06
1.46702e-06
4.56786e-06
-9.85106e-07
3.9123e-06
2.35324e-06
3.68987e-06
-1.33539e-06
3.06668e-06
3.30093e-06
2.62539e-06
-1.61356e-06
1.48175e-06
5.97382e-06
1.95556e-06
-3.13549e-06
1.31357e-06
8.36674e-06
7.34007e-06
2.18142e-06
5.03443e-06
5.96962e-07
5.72617e-06
-9.21797e-07
5.28939e-06
8.61915e-07
5.76396e-06
-7.55847e-07
5.31518e-06
1.19754e-06
5.5996e-06
-8.29626e-07
5.09983e-06
1.43121e-06
5.22669e-06
-9.56573e-07
4.74059e-06
1.80026e-06
4.8441e-06
-1.23243e-06
4.25108e-06
2.81142e-06
4.09863e-06
-1.3072e-06
3.60321e-06
3.68249e-06
3.03356e-06
-1.14738e-06
3.31452e-06
5.59549e-06
1.3591e-06
-1.27361e-06
3.02541e-06
6.63378e-06
4.90296e-06
5.39698e-06
5.89228e-06
5.84395e-07
6.14255e-06
-1.43192e-06
5.83753e-06
9.16133e-07
6.14727e-06
-1.30359e-06
5.82509e-06
1.2973e-06
5.97818e-06
-1.19381e-06
5.60695e-06
1.60611e-06
5.60315e-06
-1.13412e-06
5.25787e-06
1.97875e-06
5.15098e-06
-1.28175e-06
4.98558e-06
2.83061e-06
4.51818e-06
-9.75136e-07
4.69545e-06
3.38231e-06
3.7765e-06
-3.4405e-07
4.67192e-06
4.5882e-06
2.38549e-06
9.13388e-07
4.39693e-06
4.52899e-06
5.45772e-06
3.74997e-06
4.67796e-06
2.66052e-07
4.81211e-06
-1.7653e-06
4.67148e-06
8.64871e-07
4.79749e-06
-1.61019e-06
4.5797e-06
1.34553e-06
4.59054e-06
-1.36534e-06
4.43841e-06
1.60826e-06
4.36676e-06
-1.2022e-06
4.33284e-06
1.88338e-06
4.00113e-06
-1.07011e-06
4.21329e-06
2.50684e-06
3.66487e-06
-5.30739e-07
3.96603e-06
2.98548e-06
3.07813e-06
4.5234e-07
3.7061e-06
3.87446e-06
2.68018e-06
1.86005e-06
3.19197e-06
3.94086e-06
5.41793e-06
3.16371e-06
5.54918e-06
2.38675e-08
5.57038e-06
-2.01261e-06
5.38438e-06
8.32166e-07
5.39039e-06
-1.82307e-06
5.28926e-06
1.25322e-06
5.18591e-06
-1.44554e-06
5.23642e-06
1.38685e-06
5.01033e-06
-1.13609e-06
5.10467e-06
1.64158e-06
4.67813e-06
-7.80839e-07
4.92898e-06
2.12903e-06
4.28747e-06
-8.70404e-09
4.58712e-06
2.57439e-06
3.80117e-06
1.13388e-06
4.31145e-06
3.26484e-06
3.49622e-06
2.5823e-06
3.63008e-06
3.7196e-06
4.80656e-06
4.16195e-06
6.51435e-06
-3.73085e-07
6.49117e-06
-2.2461e-06
6.53003e-06
5.46715e-07
6.36268e-06
-1.88962e-06
6.53933e-06
8.58414e-07
6.24221e-06
-1.35512e-06
6.37452e-06
1.06116e-06
5.96014e-06
-9.02942e-07
6.12632e-06
1.308e-06
5.5624e-06
-3.72288e-07
5.84042e-06
1.7062e-06
5.20216e-06
4.91574e-07
5.53091e-06
2.11606e-06
4.87218e-06
1.67038e-06
5.30408e-06
2.71645e-06
4.79906e-06
2.97705e-06
5.04202e-06
3.37285e-06
4.40828e-06
5.34307e-06
7.40871e-06
-5.56614e-07
7.34744e-06
-2.46672e-06
7.56746e-06
5.29168e-08
7.35323e-06
-1.93197e-06
7.53492e-06
4.33977e-07
7.17734e-06
-1.22732e-06
7.30952e-06
7.12672e-07
6.89367e-06
-6.90146e-07
7.04259e-06
9.70395e-07
6.53116e-06
-3.76548e-08
6.72492e-06
1.3466e-06
6.23753e-06
8.20479e-07
6.39338e-06
1.80945e-06
6.02913e-06
1.89214e-06
6.13535e-06
2.47447e-06
6.02007e-06
2.96457e-06
6.00253e-06
3.26865e-06
3.97425e-06
6.32117e-06
8.91789e-06
-1.14762e-06
8.60444e-06
-2.45781e-06
8.91568e-06
-5.55857e-07
8.50153e-06
-1.79824e-06
8.82487e-06
-1.54177e-07
8.45198e-06
-1.1059e-06
8.70612e-06
2.20831e-07
8.23801e-06
-4.43961e-07
8.39454e-06
6.04018e-07
7.86535e-06
2.94317e-07
7.98917e-06
1.03627e-06
7.55236e-06
1.07947e-06
7.62358e-06
1.56759e-06
7.40853e-06
1.94443e-06
7.44314e-06
2.28486e-06
7.44604e-06
2.81309e-06
7.4453e-06
3.12535e-06
3.57766e-06
7.70345e-06
1.03928e-05
-1.86584e-06
9.96987e-06
-2.35211e-06
1.01156e-05
-1.01521e-06
9.74622e-06
-1.72506e-06
9.98334e-06
-6.71105e-07
9.76142e-06
-1.15134e-06
9.97952e-06
-2.50509e-07
9.72094e-06
-4.25312e-07
9.80171e-06
2.95885e-07
9.4754e-06
4.04352e-07
9.47716e-06
8.28035e-07
9.2361e-06
1.12318e-06
9.18681e-06
1.42674e-06
9.12877e-06
1.81903e-06
9.11158e-06
2.12468e-06
9.23711e-06
2.51563e-06
9.35888e-06
2.8361e-06
3.14939e-06
9.625e-06
1.19041e-05
-2.24096e-06
1.15698e-05
-2.3311e-06
1.18832e-05
-1.64046e-06
1.16272e-05
-1.76212e-06
1.18965e-05
-1.22049e-06
1.16757e-05
-1.19879e-06
1.1809e-05
-6.42151e-07
1.1595e-05
-4.59919e-07
1.1587e-05
6.60482e-08
1.14117e-05
3.4977e-07
1.13876e-05
6.29418e-07
1.13268e-05
9.68888e-07
1.12733e-05
1.27062e-06
1.12829e-05
1.60478e-06
1.12962e-05
1.91154e-06
1.13888e-05
2.22845e-06
1.1514e-05
2.51992e-06
2.77473e-06
1.17003e-05
1.41466e-05
-2.72088e-06
1.397e-05
-2.43244e-06
1.42057e-05
-2.15445e-06
1.4204e-05
-2.02342e-06
1.43467e-05
-1.61781e-06
1.42005e-05
-1.30206e-06
1.41565e-05
-8.42718e-07
1.3977e-05
-5.21636e-07
1.39704e-05
-1.63488e-07
1.39106e-05
1.77148e-07
1.38691e-05
4.41479e-07
1.38742e-05
7.37509e-07
1.38823e-05
1.03875e-06
1.3922e-05
1.34379e-06
1.39802e-05
1.63373e-06
1.40871e-05
1.90425e-06
1.42512e-05
2.13952e-06
2.32895e-06
1.44829e-05
1.64945e-05
-3.11264e-06
1.64552e-05
-2.58886e-06
1.64923e-05
-2.38681e-06
1.64647e-05
-2.18147e-06
1.6541e-05
-1.88211e-06
1.65855e-05
-1.5398e-06
1.66968e-05
-1.1536e-06
1.67521e-05
-7.831e-07
1.68041e-05
-4.26668e-07
1.68422e-05
-7.75536e-08
1.68284e-05
2.3424e-07
1.68087e-05
5.31775e-07
1.68126e-05
8.06442e-07
1.68538e-05
1.07203e-06
1.69368e-05
1.3172e-06
1.70824e-05
1.52393e-06
1.72778e-05
1.70807e-06
1.85841e-06
1.75108e-05
1.91469e-05
-3.10484e-06
1.92597e-05
-2.69972e-06
1.94233e-05
-2.57052e-06
1.95463e-05
-2.33164e-06
1.96573e-05
-2.043e-06
1.9754e-05
-1.71207e-06
1.987e-05
-1.37236e-06
1.99898e-05
-1.03069e-06
2.01124e-05
-6.99069e-07
2.02577e-05
-3.92881e-07
2.03877e-05
-8.26667e-08
2.05213e-05
1.95606e-07
2.06513e-05
4.6075e-07
2.08257e-05
6.70796e-07
2.09964e-05
9.10047e-07
2.11729e-05
1.10257e-06
2.13686e-05
1.26177e-06
1.38701e-06
2.15856e-05
1.97903e-05
-3.28089e-06
1.99489e-05
-2.57339e-06
2.01498e-05
-2.54239e-06
2.03953e-05
-2.38438e-06
2.06445e-05
-2.14735e-06
2.08714e-05
-1.8433e-06
2.10451e-05
-1.49682e-06
2.12122e-05
-1.19435e-06
2.13617e-05
-8.84268e-07
2.15072e-05
-6.0991e-07
2.16638e-05
-3.43858e-07
2.18048e-05
-7.68778e-08
2.19562e-05
1.52991e-07
2.20819e-05
3.67321e-07
2.22537e-05
5.43044e-07
2.2435e-05
7.11763e-07
2.26376e-05
8.39091e-07
9.37927e-07
2.28586e-05
1.74253e-05
-3.17889e-06
1.81139e-05
-2.78813e-06
1.85505e-05
-2.57049e-06
1.88261e-05
-2.30386e-06
1.90367e-05
-2.06415e-06
1.9249e-05
-1.8265e-06
1.94759e-05
-1.55396e-06
1.96839e-05
-1.28501e-06
1.9883e-05
-1.01579e-06
2.00567e-05
-7.6028e-07
2.02056e-05
-5.12197e-07
2.03498e-05
-2.75107e-07
2.04674e-05
-5.04752e-08
2.0578e-05
1.44793e-07
2.06804e-05
3.06286e-07
2.08123e-05
4.27351e-07
2.09265e-05
5.59258e-07
6.39621e-07
2.10483e-05
1.5376e-05
-3.27533e-06
1.60821e-05
-2.9046e-06
1.66059e-05
-2.57693e-06
1.7016e-05
-2.25587e-06
1.73342e-05
-1.99321e-06
1.75832e-05
-1.76072e-06
1.77916e-05
-1.51133e-06
1.79461e-05
-1.24896e-06
1.80692e-05
-1.0023e-06
1.81713e-05
-7.73213e-07
1.82582e-05
-5.58135e-07
1.83438e-05
-3.58957e-07
1.8453e-05
-1.94299e-07
1.85576e-05
-2.45489e-08
1.86767e-05
9.88407e-08
1.87816e-05
2.13201e-07
1.89066e-05
3.10844e-07
3.79353e-07
1.90313e-05
1.41034e-05
-2.76999e-06
1.4377e-05
-2.53235e-06
1.48084e-05
-2.43492e-06
1.52615e-05
-2.1977e-06
1.56471e-05
-1.93588e-06
1.59454e-05
-1.69454e-06
1.62062e-05
-1.47464e-06
1.64405e-05
-1.24971e-06
1.66282e-05
-1.01276e-06
1.67994e-05
-8.15599e-07
1.69451e-05
-6.25439e-07
1.70586e-05
-4.34542e-07
1.71448e-05
-2.78771e-07
1.72196e-05
-1.30014e-07
1.72684e-05
-3.46194e-09
1.73155e-05
9.01002e-08
1.73648e-05
1.71912e-07
2.3055e-07
1.741e-05
1.2462e-05
-2.67062e-06
1.29921e-05
-2.38713e-06
1.34401e-05
-2.2848e-06
1.38261e-05
-2.05427e-06
1.41531e-05
-1.80194e-06
1.44488e-05
-1.60464e-06
1.47073e-05
-1.41475e-06
1.49492e-05
-1.23634e-06
1.51659e-05
-1.03474e-06
1.53267e-05
-8.2773e-07
1.5446e-05
-6.44137e-07
1.554e-05
-4.6775e-07
1.56102e-05
-3.22758e-07
1.56708e-05
-1.95853e-07
1.5735e-05
-9.65503e-08
1.57809e-05
-7.37833e-09
1.58323e-05
5.39396e-08
9.89555e-08
1.58829e-05
1.12556e-05
-2.20874e-06
1.1727e-05
-2.19533e-06
1.21934e-05
-2.15905e-06
1.26056e-05
-1.93927e-06
1.29538e-05
-1.69304e-06
1.32422e-05
-1.50671e-06
1.34921e-05
-1.34305e-06
1.3715e-05
-1.19934e-06
1.3902e-05
-1.01808e-06
1.4054e-05
-8.25015e-07
1.41538e-05
-6.33056e-07
1.42259e-05
-4.66757e-07
1.42692e-05
-3.26796e-07
1.42996e-05
-2.15448e-07
1.43249e-05
-1.35484e-07
1.43467e-05
-6.30928e-08
1.43695e-05
-1.89378e-08
1.9362e-08
1.43858e-05
1.00614e-05
-2.09664e-06
1.0625e-05
-2.12929e-06
1.10875e-05
-2.05586e-06
1.14679e-05
-1.81437e-06
1.17739e-05
-1.56114e-06
1.20114e-05
-1.37159e-06
1.21986e-05
-1.21875e-06
1.23493e-05
-1.09676e-06
1.24603e-05
-9.26867e-07
1.25528e-05
-7.62646e-07
1.26305e-05
-5.97506e-07
1.27009e-05
-4.59833e-07
1.2776e-05
-3.56699e-07
1.28527e-05
-2.73499e-07
1.29135e-05
-2.00849e-07
1.29814e-05
-1.53609e-07
1.30369e-05
-1.12413e-07
-7.38093e-08
1.30803e-05
9.00858e-06
-1.85984e-06
9.51057e-06
-2.04148e-06
9.95763e-06
-1.97216e-06
1.03363e-05
-1.72047e-06
1.06488e-05
-1.46343e-06
1.09081e-05
-1.28032e-06
1.11159e-05
-1.13311e-06
1.12666e-05
-1.00663e-06
1.13781e-05
-8.45855e-07
1.14545e-05
-6.89903e-07
1.15172e-05
-5.49395e-07
1.15761e-05
-4.41746e-07
1.16361e-05
-3.6851e-07
1.16944e-05
-3.08853e-07
1.17497e-05
-2.54308e-07
1.17965e-05
-2.15823e-07
1.18288e-05
-1.74135e-07
-1.46622e-07
1.18611e-05
8.23991e-06
-1.66952e-06
8.69677e-06
-1.95552e-06
9.05245e-06
-1.84e-06
9.31422e-06
-1.54649e-06
9.5436e-06
-1.31206e-06
9.74781e-06
-1.15968e-06
9.93018e-06
-1.043e-06
1.00776e-05
-9.29979e-07
1.01844e-05
-7.7307e-07
1.02649e-05
-6.30413e-07
1.03344e-05
-5.14445e-07
1.03996e-05
-4.33173e-07
1.04626e-05
-3.8445e-07
1.052e-05
-3.42036e-07
1.05724e-05
-3.01386e-07
1.06107e-05
-2.64918e-07
1.06369e-05
-2.23796e-07
-1.93355e-07
1.06498e-05
7.22617e-06
-1.63408e-06
7.78007e-06
-2.01544e-06
8.16884e-06
-1.78413e-06
8.45171e-06
-1.43213e-06
8.66824e-06
-1.18192e-06
8.8233e-06
-1.01825e-06
8.91676e-06
-8.8742e-07
8.96231e-06
-7.70464e-07
8.98947e-06
-6.3536e-07
9.00619e-06
-5.18473e-07
9.01967e-06
-4.31211e-07
9.02837e-06
-3.73018e-07
9.02417e-06
-3.35347e-07
9.00331e-06
-2.96727e-07
8.97292e-06
-2.63826e-07
8.92872e-06
-2.28002e-07
8.88191e-06
-1.9622e-07
-1.65563e-07
8.82537e-06
6.62538e-06
-1.61357e-06
7.01654e-06
-1.96034e-06
7.18987e-06
-1.55651e-06
7.29365e-06
-1.17753e-06
7.33417e-06
-9.09679e-07
7.31072e-06
-7.26804e-07
7.24689e-06
-5.98045e-07
7.16235e-06
-4.99952e-07
7.08049e-06
-4.03723e-07
7.00938e-06
-3.30122e-07
6.94531e-06
-2.7855e-07
6.87228e-06
-2.36359e-07
6.78622e-06
-2.07196e-07
6.68868e-06
-1.75547e-07
6.58409e-06
-1.51319e-07
6.47321e-06
-1.22397e-07
6.36401e-06
-1.03226e-07
-7.52385e-08
6.24859e-06
5.95962e-06
-1.4069e-06
5.77295e-06
-1.3712e-06
5.48054e-06
-9.03929e-07
5.22679e-06
-6.0198e-07
5.00555e-06
-4.07256e-07
4.81404e-06
-2.94213e-07
4.64387e-06
-2.24975e-07
4.50291e-06
-1.91566e-07
4.38544e-06
-1.51024e-07
4.28811e-06
-1.26428e-07
4.19525e-06
-1.04984e-07
4.10487e-06
-8.78558e-08
4.01121e-06
-7.51604e-08
3.91622e-06
-5.92169e-08
3.82e-06
-4.82551e-08
3.72423e-06
-3.18839e-08
3.63748e-06
-3.16711e-08
-3.12041e-09
3.54223e-06
3.83419e-06
2.84488e-06
2.28347e-06
1.98555e-06
1.84339e-06
1.77656e-06
1.74341e-06
1.71086e-06
1.68881e-06
1.66442e-06
1.63744e-06
1.6064e-06
1.56957e-06
1.53278e-06
1.49352e-06
1.45937e-06
1.41619e-06
1.39427e-06
6.58983e-07
9.05149e-07
1.35613e-06
9.1641e-07
2.04812e-06
9.3009e-07
2.74815e-06
9.22192e-07
3.45435e-06
9.15531e-07
4.15744e-06
9.16207e-07
4.84979e-06
9.22273e-07
5.52985e-06
9.27864e-07
6.18868e-06
9.39572e-07
6.81288e-06
9.61112e-07
7.39758e-06
9.84145e-07
7.94088e-06
1.00644e-06
8.44708e-06
1.02295e-06
8.94103e-06
1.01349e-06
9.41379e-06
1.00812e-06
9.82643e-06
1.03438e-06
1.01617e-05
1.07692e-06
1.04592e-05
1.08523e-06
1.07814e-05
1.03235e-06
1.11375e-05
9.63316e-07
1.14247e-05
9.8802e-07
1.1571e-05
1.08254e-06
1.16181e-05
1.14086e-06
1.15333e-05
1.2311e-06
1.12881e-05
1.34246e-06
1.09115e-05
1.42859e-06
1.04376e-05
1.49306e-06
9.8976e-06
1.5359e-06
9.30576e-06
1.56195e-06
8.68106e-06
1.55347e-06
8.03159e-06
1.52335e-06
7.36797e-06
1.48302e-06
6.69938e-06
1.44006e-06
6.03601e-06
1.39097e-06
5.38772e-06
1.33349e-06
4.75687e-06
1.27435e-06
4.14738e-06
1.21261e-06
3.56479e-06
1.14635e-06
3.01257e-06
1.07773e-06
2.50449e-06
9.97248e-07
2.05265e-06
9.06401e-07
1.67079e-06
8.0408e-07
1.3683e-06
6.94878e-07
1.14164e-06
5.91866e-07
9.79928e-07
5.02434e-07
8.67795e-07
4.31115e-07
7.91235e-07
3.76536e-07
7.43733e-07
3.31164e-07
7.33072e-07
2.80749e-07
7.6575e-07
2.26638e-07
8.28502e-07
1.88773e-07
9.0323e-07
1.72156e-07
9.93635e-07
1.55085e-07
1.07408e-06
1.67013e-07
1.11619e-06
2.10602e-07
1.09583e-06
2.8148e-07
1.03068e-06
3.37826e-07
9.7971e-07
3.3818e-07
9.22202e-07
3.62178e-07
8.54345e-07
3.92354e-07
7.9235e-07
4.08696e-07
7.3828e-07
4.24927e-07
6.8909e-07
4.45755e-07
6.2542e-07
4.8733e-07
5.63387e-07
5.13559e-07
5.33214e-07
5.09567e-07
5.56206e-07
4.8368e-07
6.50502e-07
4.38655e-07
8.345e-07
3.73573e-07
1.12437e-06
2.90317e-07
1.52855e-06
1.96253e-07
1.99573e-06
1.50676e-07
2.32718e-06
3.01294e-07
2.50294e-06
4.68139e-07
2.57211e-06
5.83055e-07
2.57974e-06
6.48718e-07
2.49004e-06
7.47481e-07
2.36908e-06
7.73846e-07
2.24622e-06
7.60087e-07
2.06793e-06
7.92206e-07
1.72333e-06
9.36014e-07
1.33109e-06
9.58747e-07
1.05687e-06
8.0735e-07
8.13901e-07
7.37618e-07
4.60628e-07
8.07043e-07
1.13381e-07
7.5511e-07
-1.73669e-07
6.45218e-07
-3.76427e-07
5.10579e-07
-3.39435e-07
2.19414e-07
2.80284e-08
-1.64986e-07
3.91156e-07
-2.12596e-07
2.88998e-07
2.08792e-07
-6.42918e-08
4.19097e-07
-1.33809e-07
9.54496e-08
2.21221e-07
-3.69439e-07
4.28283e-07
-2.53977e-07
1.18865e-07
2.47998e-07
-7.62843e-07
8.17253e-07
-2.36643e-06
1.55204e-06
-4.66743e-06
2.26347e-06
-7.1324e-06
2.3889e-06
-9.20821e-06
2.00993e-06
-1.08994e-05
1.71324e-06
-1.20186e-05
1.14821e-06
-1.26494e-05
6.60282e-07
-1.32463e-05
7.02053e-07
-1.39309e-05
8.62974e-07
-1.45004e-05
8.18549e-07
-1.48255e-05
6.71282e-07
-1.46877e-05
3.02254e-07
-1.37967e-05
-3.88487e-07
-1.20558e-05
-1.21061e-06
-1.02192e-05
-1.31069e-06
-1.01722e-05
5.33444e-07
-1.06337e-05
1.15031e-06
-9.25647e-06
-6.82835e-07
-7.6989e-06
-8.47842e-07
-5.18848e-06
-1.75643e-06
-4.42893e-06
3.32722e-08
-3.15015e-06
-4.68189e-07
-1.08485e-06
-1.23641e-06
6.8352e-07
-9.12919e-07
2.5093e-06
-9.52519e-07
3.80372e-06
-3.95655e-07
5.21376e-06
-4.89113e-07
6.21176e-06
-5.10701e-08
7.01291e-06
1.67115e-07
7.69618e-06
2.98811e-07
8.45291e-06
2.30889e-07
8.98742e-06
4.49575e-07
9.20823e-06
7.52754e-07
9.07154e-06
1.09448e-06
8.8268e-06
1.18045e-06
8.42112e-06
1.32039e-06
8.02247e-06
1.28348e-06
7.70001e-06
1.15501e-06
7.44448e-06
1.02728e-06
7.29608e-06
8.48232e-07
7.104e-06
8.17027e-07
6.93542e-06
7.10977e-07
6.71201e-06
6.80935e-07
6.51824e-06
5.56568e-07
6.20643e-06
5.95887e-07
5.78808e-06
6.18454e-07
5.36584e-06
5.50138e-07
4.88252e-06
5.31579e-07
4.29261e-06
5.6379e-07
3.81603e-06
3.78122e-07
3.53404e-06
1.1265e-07
2.6524e-06
6.61753e-07
1.84262e-06
5.55358e-07
4.99196e-07
1.11977e-06
-1.40666e-06
1.69942e-06
-3.16451e-06
1.55156e-06
-3.40165e-06
3.59727e-08
-2.17455e-06
-1.42646e-06
-1.90618e-06
-4.00953e-07
-2.65431e-06
6.81208e-07
-3.46706e-06
7.93757e-07
-3.97286e-06
5.57347e-07
-4.11943e-06
3.15616e-07
-3.96545e-06
1.97159e-07
-3.84231e-06
4.00272e-07
-3.70964e-06
5.67834e-07
-3.26023e-06
4.00522e-07
-2.79374e-06
4.91443e-07
-2.10202e-06
3.35998e-07
-4.49296e-07
-6.05409e-07
-2.05982e-07
8.21188e-07
-1.52342e-07
8.83773e-07
8.87359e-07
-4.1137e-07
1.07907e-06
2.24799e-07
-4.91772e-07
1.86903e-06
-2.36233e-06
2.04179e-06
-1.34036e-06
-1.1366e-06
2.38854e-06
-3.92614e-06
3.4413e-06
-1.41242e-06
1.79905e-06
1.33794e-06
4.60504e-07
1.06577e-06
1.74818e-07
9.39258e-08
6.20777e-07
1.83237e-06
1.31071e-06
1.83327e-06
2.00504e-06
1.8541e-06
2.71546e-06
1.83102e-06
3.43402e-06
1.81841e-06
4.14195e-06
1.82994e-06
4.82976e-06
1.85449e-06
5.50714e-06
1.86898e-06
6.17136e-06
1.88952e-06
6.79777e-06
1.93927e-06
7.39661e-06
1.97527e-06
7.97374e-06
1.99848e-06
8.47252e-06
2.0722e-06
8.87576e-06
2.15105e-06
9.19244e-06
2.21899e-06
9.43631e-06
2.27043e-06
9.66053e-06
2.26913e-06
9.90273e-06
2.21863e-06
1.00895e-05
2.20749e-06
1.00881e-05
2.31079e-06
9.91967e-06
2.44641e-06
9.53887e-06
2.67444e-06
8.96337e-06
2.8908e-06
8.31104e-06
3.05584e-06
7.61098e-06
3.18849e-06
6.91705e-06
3.2266e-06
6.2618e-06
3.20759e-06
5.63499e-06
3.16855e-06
5.03162e-06
3.11791e-06
4.44015e-06
3.04445e-06
3.85689e-06
2.95756e-06
3.27264e-06
2.87394e-06
2.69322e-06
2.7816e-06
2.12287e-06
2.67985e-06
1.56254e-06
2.56859e-06
1.02881e-06
2.44066e-06
5.35371e-07
2.2975e-06
9.72983e-08
2.13618e-06
-2.79291e-07
1.96799e-06
-5.93628e-07
1.78942e-06
-8.42139e-07
1.59899e-06
-1.0362e-06
1.41033e-06
-1.16224e-06
1.20383e-06
-1.24816e-06
1.03334e-06
-1.28339e-06
8.68647e-07
-1.28877e-06
7.4587e-07
-1.26423e-06
6.43048e-07
-1.19833e-06
5.41287e-07
-1.07203e-06
4.18575e-07
-8.86378e-07
2.95743e-07
-6.73489e-07
2.2352e-07
-4.56965e-07
1.99201e-07
-2.33054e-07
1.74131e-07
1.76041e-08
1.62256e-07
2.61454e-07
2.18882e-07
4.53302e-07
3.51074e-07
5.64257e-07
5.00111e-07
6.56432e-07
5.32841e-07
7.29834e-07
5.93665e-07
7.70293e-07
6.76669e-07
8.1614e-07
7.0932e-07
8.78032e-07
7.33394e-07
9.3755e-07
7.82105e-07
9.71689e-07
8.76492e-07
9.70833e-07
9.65758e-07
9.71703e-07
9.87215e-07
1.02123e-06
9.38082e-07
1.16728e-06
8.20124e-07
1.42116e-06
6.69299e-07
1.8118e-06
4.70204e-07
2.4001e-06
2.01033e-07
3.12729e-06
4.11207e-08
3.81147e-06
2.54124e-07
4.24955e-06
6.71222e-07
4.57905e-06
8.99436e-07
4.81792e-06
1.05889e-06
4.83794e-06
1.38185e-06
4.64623e-06
1.62299e-06
4.39351e-06
1.65929e-06
4.06981e-06
1.73305e-06
3.74514e-06
1.84819e-06
3.4416e-06
1.8299e-06
3.16602e-06
1.62072e-06
2.87501e-06
1.52388e-06
2.60734e-06
1.52014e-06
2.3635e-06
1.39276e-06
2.07704e-06
1.27466e-06
1.72706e-06
1.15551e-06
1.59413e-06
5.9625e-07
1.91352e-06
-2.9841e-07
2.34965e-06
-5.27078e-07
2.61562e-06
2.3581e-08
2.89086e-06
1.98939e-07
3.10875e-06
-1.05459e-07
2.32932e-06
3.65086e-07
9.76961e-08
1.88914e-06
-2.97225e-06
3.22583e-06
-6.35143e-06
4.08502e-06
-9.40255e-06
4.51264e-06
-1.1387e-05
4.23203e-06
-1.30109e-05
3.95552e-06
-1.47535e-05
3.55911e-06
-1.54858e-05
2.28996e-06
-1.53514e-05
1.06351e-06
-1.57166e-05
1.08078e-06
-1.63277e-05
1.27969e-06
-1.65489e-05
1.11479e-06
-1.6301e-05
7.90217e-07
-1.56788e-05
4.67811e-07
-1.49428e-05
1.3035e-07
-1.38671e-05
-8.60391e-07
-1.24224e-05
-2.14698e-06
-1.10086e-05
-2.36585e-06
-1.01727e-05
6.95739e-08
-9.92233e-06
1.66771e-06
-8.80028e-06
-1.04942e-06
-7.17765e-06
-1.85766e-06
-4.33396e-06
-3.86085e-06
-3.25295e-06
-2.71733e-07
-1.84991e-06
-1.09847e-06
3.21119e-07
-2.62191e-06
2.06171e-06
-1.81846e-06
3.97161e-06
-2.02131e-06
5.05529e-06
-6.30511e-07
7.02844e-06
-1.61979e-06
8.39127e-06
-5.45453e-07
9.82974e-06
-3.59639e-07
1.11215e-05
-2.48816e-08
1.26489e-05
-2.89428e-07
1.40539e-05
5.4439e-08
1.48862e-05
9.23396e-07
1.52615e-05
1.74522e-06
1.52782e-05
2.17535e-06
1.48552e-05
2.64275e-06
1.43165e-05
2.66961e-06
1.35758e-05
2.73984e-06
1.27668e-05
2.62037e-06
1.17373e-05
2.57814e-06
1.07652e-05
2.43561e-06
9.99848e-06
2.05756e-06
9.40193e-06
1.78006e-06
8.66405e-06
1.69066e-06
8.13233e-06
1.43136e-06
7.49309e-06
1.44676e-06
6.8842e-06
1.26672e-06
6.353e-06
1.09585e-06
5.6061e-06
1.2376e-06
4.77545e-06
1.03831e-06
4.49351e-06
1.35974e-07
4.08166e-06
7.25455e-07
2.48732e-06
1.76211e-06
-4.57916e-08
3.2977e-06
-3.29406e-06
4.66006e-06
-5.88681e-06
3.79023e-06
-5.42407e-06
-8.65458e-07
-2.80061e-06
-4.43592e-06
-6.96747e-07
-2.78887e-06
-8.04502e-07
5.75665e-07
-1.67216e-06
1.48645e-06
-2.25304e-06
1.01608e-06
-2.12964e-06
1.96531e-07
-1.53648e-06
-1.70941e-07
-1.3281e-06
6.46632e-07
-1.72002e-06
1.62179e-06
-2.18236e-06
1.63641e-06
-2.67591e-06
1.84675e-06
-2.11294e-06
7.24277e-07
4.44227e-07
-2.11331e-06
1.02284e-06
1.37878e-06
3.12359e-07
2.57675e-06
9.16098e-08
3.29609e-07
-1.48182e-06
2.12158e-06
-4.31014e-06
4.85999e-06
-5.72129e-06
3.29615e-06
-4.92309e-06
-2.16064e-06
2.52482e-07
-9.51911e-06
5.31849e-06
-6.98111e-06
4.72172e-06
1.42e-06
3.3444e-06
1.9105e-06
1.04299e-06
1.95663e-06
6.19007e-07
2.71985e-06
1.32817e-06
2.68165e-06
2.05299e-06
2.70648e-06
2.80768e-06
2.66001e-06
3.58378e-06
2.63176e-06
4.34621e-06
2.66082e-06
5.07055e-06
2.7243e-06
5.76074e-06
2.77612e-06
6.43254e-06
2.81879e-06
7.06565e-06
2.90572e-06
7.59008e-06
3.05158e-06
8.01604e-06
3.16903e-06
8.38125e-06
3.26483e-06
8.62667e-06
3.38428e-06
8.8144e-06
3.44556e-06
9.03787e-06
3.44147e-06
9.25207e-06
3.44287e-06
9.27165e-06
3.58308e-06
8.99545e-06
3.83497e-06
8.42298e-06
4.17228e-06
7.65314e-06
4.46059e-06
6.89141e-06
4.64856e-06
6.16104e-06
4.78987e-06
5.4931e-06
4.84201e-06
4.90846e-06
4.83889e-06
4.39404e-06
4.75791e-06
3.90213e-06
4.66315e-06
3.44972e-06
4.53577e-06
3.03023e-06
4.41158e-06
2.60065e-06
4.30531e-06
2.16063e-06
4.18911e-06
1.70257e-06
4.08035e-06
1.23612e-06
3.95332e-06
7.77701e-07
3.80221e-06
3.34634e-07
3.63346e-06
-8.78409e-08
3.44579e-06
-4.73142e-07
3.22749e-06
-8.15032e-07
2.98702e-06
-1.10858e-06
2.73703e-06
-1.34743e-06
2.4722e-06
-1.53774e-06
2.20428e-06
-1.67594e-06
1.93565e-06
-1.7814e-06
1.67081e-06
-1.83166e-06
1.42081e-06
-1.83806e-06
1.18927e-06
-1.81675e-06
1.01822e-06
-1.77087e-06
8.73167e-07
-1.67772e-06
7.09432e-07
-1.54376e-06
5.34055e-07
-1.38199e-06
3.74289e-07
-1.21852e-06
2.93569e-07
-1.03903e-06
2.49534e-07
-8.33306e-07
1.98352e-07
-6.12575e-07
1.7466e-07
-3.41916e-07
1.87762e-07
-2.96463e-08
2.88353e-07
2.88246e-07
4.44593e-07
5.51522e-07
5.47144e-07
7.8244e-07
6.58863e-07
1.02448e-06
7.50286e-07
1.2089e-06
8.61e-07
1.40503e-06
8.95776e-07
1.59621e-06
9.74865e-07
1.71367e-06
1.17084e-06
1.70579e-06
1.41302e-06
1.60035e-06
1.5553e-06
1.51918e-06
1.4994e-06
1.53118e-06
1.30453e-06
1.72543e-06
9.91797e-07
2.06618e-06
6.70452e-07
2.53589e-06
3.03364e-07
3.14063e-06
4.64043e-08
3.81492e-06
2.19427e-07
4.3979e-06
7.30492e-07
4.98381e-06
9.57645e-07
5.6919e-06
9.99497e-07
6.36165e-06
1.36485e-06
6.76132e-06
1.87766e-06
6.90583e-06
2.15172e-06
7.00072e-06
2.24227e-06
6.91367e-06
2.52061e-06
6.55354e-06
2.76185e-06
5.9524e-06
2.75668e-06
5.0724e-06
2.88128e-06
4.05357e-06
2.97315e-06
3.51119e-06
2.3281e-06
3.38478e-06
1.74104e-06
3.19099e-06
1.63605e-06
3.11641e-06
9.1023e-07
3.52195e-06
-5.03594e-07
4.18944e-06
-1.04746e-06
4.61565e-06
-3.27618e-07
3.9671e-06
8.93289e-07
1.67694e-06
2.18889e-06
-1.54556e-06
3.54837e-06
-4.62719e-06
4.90595e-06
-8.03935e-06
6.5252e-06
-1.12963e-05
7.18567e-06
-1.32242e-05
6.30905e-06
-1.42447e-05
5.11902e-06
-1.56283e-05
5.13047e-06
-1.66313e-05
4.48474e-06
-1.67256e-05
2.57412e-06
-1.7025e-05
1.45246e-06
-1.75894e-05
1.41115e-06
-1.76834e-05
1.13381e-06
-1.71376e-05
5.91244e-07
-1.59697e-05
-1.22493e-07
-1.46241e-05
-5.21056e-07
-1.36912e-05
-3.60603e-07
-1.30056e-05
-1.0483e-06
-1.26851e-05
-2.02333e-06
-1.23514e-05
-2.26228e-06
-1.03937e-05
-1.38599e-06
-8.2041e-06
1.39813e-07
-7.35836e-06
-1.19117e-06
-6.55392e-06
-2.00016e-06
-4.3706e-06
-5.27244e-06
-2.98837e-06
-8.79843e-07
-1.45618e-06
-1.84742e-06
1.10517e-06
-4.36959e-06
2.84252e-06
-2.69749e-06
4.56248e-06
-2.83521e-06
5.07418e-06
-2.4093e-07
6.59853e-06
-2.28831e-06
7.94754e-06
-1.04996e-06
9.35101e-06
-9.04602e-07
1.0653e-05
-4.39714e-07
1.25631e-05
-1.27929e-06
1.46899e-05
-1.06738e-06
1.64153e-05
2.17406e-07
1.7401e-05
1.76076e-06
1.77173e-05
2.76486e-06
1.77872e-05
3.42673e-06
1.76689e-05
3.7046e-06
1.73919e-05
3.87573e-06
1.66562e-05
4.19868e-06
1.57397e-05
4.25229e-06
1.46408e-05
4.15225e-06
1.34092e-05
3.86669e-06
1.23153e-05
3.38957e-06
1.1143e-05
3.24147e-06
1.04088e-05
2.49754e-06
9.66789e-06
2.43144e-06
8.69424e-06
2.34034e-06
8.06946e-06
1.80172e-06
7.30871e-06
1.92287e-06
5.91008e-06
2.18836e-06
4.7055e-06
9.97047e-07
4.01874e-06
9.52205e-07
2.39065e-06
2.90389e-06
-3.48956e-07
5.63614e-06
-3.93719e-06
7.94934e-06
-6.20637e-06
5.61463e-06
-6.38929e-06
-1.14546e-06
-4.7306e-06
-6.42309e-06
-1.64806e-06
-6.15745e-06
-1.01866e-07
-1.25556e-06
-4.71936e-07
1.66932e-06
-9.87963e-07
1.39834e-06
-1.09521e-06
2.83254e-07
-4.01776e-07
-6.83872e-07
3.33311e-07
3.58064e-07
1.01163e-08
2.64916e-06
-1.03942e-06
3.53023e-06
-2.35118e-06
4.10332e-06
-2.13923e-06
1.56302e-06
1.15782e-06
-4.02916e-06
2.33403e-06
1.38111e-06
1.22829e-06
4.70669e-06
-1.74891e-07
2.30094e-06
-2.26893e-06
4.55143e-06
-5.40825e-06
8.07295e-06
-6.95991e-06
4.63539e-06
-6.54671e-06
-2.86638e-06
-2.62955e-06
-1.40646e-05
3.0271e-06
-1.27982e-05
5.49754e-06
-1.53205e-06
5.58608e-06
1.20097e-06
1.6802e-06
4.27962e-06
6.11077e-07
3.56824e-06
1.34094e-06
3.45545e-06
2.10583e-06
3.4678e-06
2.89623e-06
3.40859e-06
3.70182e-06
3.37519e-06
4.48621e-06
3.43237e-06
5.23078e-06
3.5379e-06
5.89547e-06
3.67413e-06
6.45465e-06
3.83334e-06
6.89599e-06
4.013e-06
7.2699e-06
4.17473e-06
7.60402e-06
4.29714e-06
7.91417e-06
4.3826e-06
8.25602e-06
4.41561e-06
8.55417e-06
4.50643e-06
8.64708e-06
4.75438e-06
8.37245e-06
5.13889e-06
7.70955e-06
5.59738e-06
6.87189e-06
5.96453e-06
6.0752e-06
6.22334e-06
5.28261e-06
6.42772e-06
4.59853e-06
6.43831e-06
4.07367e-06
6.37499e-06
3.67096e-06
6.26057e-06
3.35561e-06
6.13881e-06
3.06849e-06
5.99625e-06
2.80537e-06
5.84849e-06
2.53103e-06
5.70475e-06
2.24002e-06
5.56317e-06
1.92451e-06
5.44278e-06
1.57834e-06
5.318e-06
1.21081e-06
5.18975e-06
8.19903e-07
5.04735e-06
4.02373e-07
4.88388e-06
-2.09055e-08
4.68394e-06
-4.41101e-07
4.45694e-06
-8.51035e-07
4.194e-06
-1.23464e-06
3.89424e-06
-1.55657e-06
3.55029e-06
-1.82915e-06
3.20425e-06
-2.04529e-06
2.84856e-06
-2.1921e-06
2.48022e-06
-2.25555e-06
2.10441e-06
-2.23411e-06
1.74431e-06
-2.16905e-06
1.44555e-06
-2.04385e-06
1.1929e-06
-1.86943e-06
9.79891e-07
-1.68882e-06
7.93892e-07
-1.52197e-06
6.18533e-07
-1.36543e-06
4.5896e-07
-1.20893e-06
3.71943e-07
-1.03768e-06
3.08875e-07
-8.56615e-07
2.46565e-07
-6.91993e-07
2.41046e-07
-5.29851e-07
2.61018e-07
-3.55782e-07
3.56607e-07
-1.32125e-07
4.73557e-07
1.02087e-07
5.80658e-07
3.00168e-07
7.45524e-07
4.64594e-07
8.89215e-07
6.16774e-07
1.03249e-06
7.97027e-07
1.06087e-06
9.92304e-07
1.15156e-06
1.19176e-06
1.37128e-06
1.37897e-06
1.65008e-06
1.52344e-06
1.85177e-06
1.65553e-06
1.82155e-06
1.81787e-06
1.61586e-06
2.03254e-06
1.28063e-06
2.32522e-06
9.17616e-07
2.60479e-06
6.00029e-07
2.84192e-06
4.19406e-07
3.18193e-06
5.14162e-07
3.7321e-06
8.22434e-07
4.37869e-06
9.49495e-07
5.1111e-06
9.16923e-07
5.80391e-06
1.33059e-06
6.22219e-06
2.10421e-06
6.79605e-06
2.19344e-06
7.65814e-06
1.97482e-06
8.20182e-06
2.56482e-06
8.27667e-06
3.25064e-06
8.27856e-06
3.2775e-06
8.11198e-06
3.53265e-06
7.55347e-06
3.96038e-06
6.74023e-06
3.52666e-06
5.71213e-06
3.129e-06
4.9396e-06
2.70168e-06
4.81764e-06
1.26091e-06
4.7208e-06
-1.90664e-07
4.17233e-06
-3.29556e-07
2.769e-06
1.1777e-06
1.87314e-07
3.5293e-06
-3.03115e-06
5.41171e-06
-5.99787e-06
6.50413e-06
-8.85735e-06
7.77505e-06
-1.16384e-05
9.28251e-06
-1.37763e-05
9.23508e-06
-1.47175e-05
7.20876e-06
-1.55562e-05
5.92492e-06
-1.67472e-05
6.17349e-06
-1.73158e-05
5.02035e-06
-1.72286e-05
2.66684e-06
-1.73118e-05
1.6389e-06
-1.75007e-05
1.56426e-06
-1.74601e-05
1.07335e-06
-1.70176e-05
2.80392e-07
-1.60733e-05
-8.0385e-07
-1.52564e-05
-1.06514e-06
-1.47182e-05
-6.48924e-07
-1.40248e-05
-1.52513e-06
-1.34971e-05
-2.28371e-06
-1.30659e-05
-2.11393e-06
-1.09271e-05
-2.7667e-06
-8.17358e-06
-2.02669e-06
-6.67642e-06
-2.08106e-06
-5.55053e-06
-2.38328e-06
-4.54548e-06
-5.47918e-06
-3.66449e-06
-1.00615e-06
-2.01847e-06
-2.66969e-06
4.97758e-07
-5.94147e-06
2.24808e-06
-3.58666e-06
3.66835e-06
-3.34657e-06
4.06742e-06
2.92296e-07
5.62915e-06
-2.93384e-06
7.03989e-06
-1.52092e-06