/*--------------------------------*- C++ -*----------------------------------*\
| =========                 |                                                 |
| \\      /  F ield         | OpenFOAM: The Open Source CFD Toolbox           |
|  \\    /   O peration     | Version:  dev                                   |
|   \\  /    A nd           | Web:      http://www.openfoam.org               |
|    \\/     M anipulation  |                                                 |
\*---------------------------------------------------------------------------*/
FoamFile
{
    version     2.0;
    format      ascii;
    class       surfaceScalarField;
    object      phi_0;
    location    "9.155";
}
// * * * * * * * * * * * * * * * * * * * * * * * * * * * * * * * * * * * * * //

dimensions      [1 0 -1 0 0 0 0];

internalField   nonuniform List<scalar> 
24170
(
2.05419e-06
1.34393e-06
1.2408e-06
8.87208e-07
8.64334e-07
4.33037e-07
7.00985e-07
2.14078e-07
5.20812e-07
2.2172e-07
4.6502e-07
9.69364e-08
2.49626e-07
2.49941e-07
2.22756e-07
6.26634e-08
-5.62668e-08
3.08811e-07
-6.00807e-08
3.50692e-08
-4.21647e-07
3.87566e-07
-2.9684e-07
-9.95137e-08
-8.95472e-07
6.25331e-07
-4.80906e-07
-4.03365e-07
-1.68485e-06
1.23455e-06
-1.59737e-06
-8.95506e-08
-2.93243e-06
1.35491e-06
2.74256e-06
-5.64014e-06
3.76917e-06
1.29699e-06
3.20154e-06
1.48556e-06
2.86113e-06
7.95857e-07
2.50232e-06
5.90416e-07
2.30972e-06
4.301e-07
2.12121e-06
2.97872e-07
1.99566e-06
3.86804e-07
1.88547e-06
1.83609e-07
1.7661e-06
4.37191e-07
1.80695e-06
4.12691e-09
1.55456e-06
6.47619e-07
1.99423e-06
-5.31083e-07
1.33305e-06
1.29484e-06
2.34999e-06
-1.41657e-06
1.13698e-06
2.4585e-06
2.7737e-06
-1.73321e-06
-5.7883e-07
4.7231e-06
5.19624e-06
-3.01683e-06
4.47313e-06
9.3675e-07
4.28964e-06
1.69992e-06
4.27033e-06
8.39491e-07
3.95797e-06
9.21602e-07
3.82058e-06
5.84722e-07
3.57292e-06
5.58832e-07
3.41924e-06
5.52329e-07
3.46439e-06
1.49853e-07
3.15783e-06
7.53582e-07
3.56375e-06
-3.92235e-07
2.99226e-06
1.22858e-06
3.67352e-06
-1.20482e-06
2.87652e-06
2.0992e-06
3.47459e-06
-2.0109e-06
2.66217e-06
3.26361e-06
2.96352e-06
-2.03655e-06
2.11011e-06
5.54922e-06
5.41885e-06
1.87617e-06
4.79597e-06
8.33881e-07
5.14995e-06
1.38136e-06
5.17589e-06
8.41242e-07
5.25231e-06
8.6751e-07
4.97834e-06
8.77583e-07
5.2105e-06
3.42572e-07
4.83612e-06
9.39899e-07
5.16269e-06
-1.64629e-07
4.69804e-06
1.23014e-06
5.00775e-06
-6.91886e-07
4.36606e-06
1.88027e-06
4.63803e-06
-1.46914e-06
4.00502e-06
2.74206e-06
4.18086e-06
-2.18602e-06
2.90635e-06
4.54873e-06
4.13044e-06
-3.25433e-06
2.29517e-06
7.35714e-06
6.04286e-06
1.64121e-06
4.89743e-06
9.44258e-07
5.86443e-06
4.55847e-07
5.66712e-06
1.0699e-06
6.23643e-06
3.23942e-07
5.84273e-06
1.29288e-06
6.25112e-06
-4.80831e-08
5.8307e-06
1.37569e-06
6.1063e-06
-4.27603e-07
5.71043e-06
1.6395e-06
5.86884e-06
-8.38267e-07
5.34308e-06
2.41505e-06
5.22179e-06
-1.33921e-06
4.77105e-06
3.19939e-06
4.40829e-06
-1.81654e-06
3.45634e-06
5.51213e-06
4.06399e-06
-3.85198e-06
3.57879e-06
7.85196e-06
5.10983e-06
4.54251e-06
5.24529e-06
1.20082e-06
6.09298e-06
-3.43892e-07
5.81867e-06
1.38069e-06
6.44421e-06
-2.71043e-07
6.1354e-06
1.62739e-06
6.54383e-06
-4.36436e-07
6.17165e-06
1.7646e-06
6.41691e-06
-6.56828e-07
6.05803e-06
2.01534e-06
6.26697e-06
-1.03397e-06
5.80087e-06
2.89069e-06
5.76549e-06
-1.29432e-06
5.40714e-06
3.5667e-06
4.96088e-06
-1.36087e-06
5.3307e-06
5.14244e-06
3.53807e-06
-2.06287e-06
5.58093e-06
5.83312e-06
3.20718e-06
7.49382e-06
6.11083e-06
1.27131e-06
6.5471e-06
-7.25487e-07
6.42089e-06
1.55067e-06
6.89226e-06
-7.05601e-07
6.72086e-06
1.83035e-06
7.01141e-06
-7.01787e-07
6.77692e-06
2.01951e-06
6.89977e-06
-7.61069e-07
6.68396e-06
2.24992e-06
6.70199e-06
-1.03693e-06
6.65938e-06
2.94521e-06
6.31861e-06
-9.42578e-07
6.615e-06
3.28254e-06
5.82078e-06
-5.58915e-07
6.82896e-06
4.13441e-06
4.64393e-06
1.23112e-07
6.81601e-06
3.66199e-06
4.2525e-06
5.77777e-06
4.85323e-06
1.08381e-06
5.12627e-06
-9.53998e-07
5.12296e-06
1.59093e-06
5.37003e-06
-9.22095e-07
5.27054e-06
1.95734e-06
5.39365e-06
-8.02966e-07
5.34732e-06
2.08391e-06
5.37527e-06
-7.73749e-07
5.43303e-06
2.20621e-06
5.20386e-06
-7.95362e-07
5.50391e-06
2.65601e-06
5.04112e-06
-4.70671e-07
5.42652e-06
2.90564e-06
4.62956e-06
2.42591e-07
5.35511e-06
3.41043e-06
4.30881e-06
1.17044e-06
4.83479e-06
3.13407e-06
4.30705e-06
4.78053e-06
5.74147e-06
9.8267e-07
5.92838e-06
-1.08574e-06
5.90093e-06
1.66484e-06
6.05594e-06
-1.03749e-06
6.09239e-06
1.95545e-06
6.12319e-06
-8.06167e-07
6.29396e-06
1.93667e-06
6.1816e-06
-6.4206e-07
6.37801e-06
2.02806e-06
6.06568e-06
-4.6736e-07
6.41165e-06
2.32465e-06
5.86677e-06
8.51334e-08
6.25947e-06
2.52121e-06
5.56887e-06
9.36768e-07
6.13176e-06
2.84877e-06
5.32081e-06
1.98135e-06
5.48019e-06
2.97307e-06
3.79608e-06
5.98759e-06
6.73039e-06
6.58161e-07
6.9065e-06
-1.19229e-06
7.13042e-06
1.50079e-06
7.1388e-06
-9.93312e-07
7.4712e-06
1.66778e-06
7.32121e-06
-6.19994e-07
7.5878e-06
1.70061e-06
7.30392e-06
-3.3271e-07
7.58776e-06
1.76755e-06
7.15057e-06
-9.9831e-09
7.53289e-06
1.96008e-06
7.00591e-06
6.23363e-07
7.4242e-06
2.11069e-06
6.85136e-06
1.51291e-06
7.32419e-06
2.37543e-06
6.84157e-06
2.46051e-06
7.09155e-06
2.71759e-06
3.59243e-06
7.28832e-06
7.65173e-06
6.05852e-07
7.82941e-06
-1.28128e-06
8.26472e-06
1.1434e-06
8.24497e-06
-9.07176e-07
8.60705e-06
1.36386e-06
8.41767e-06
-3.83206e-07
8.70834e-06
1.44986e-06
8.43713e-06
-2.72977e-08
8.72368e-06
1.51052e-06
8.33835e-06
4.00455e-07
8.65078e-06
1.6672e-06
8.27319e-06
1.01239e-06
8.51702e-06
1.87254e-06
8.22904e-06
1.80237e-06
8.37074e-06
2.23154e-06
8.26285e-06
2.56396e-06
8.23397e-06
2.7385e-06
3.30716e-06
8.50885e-06
9.20873e-06
1.99313e-07
9.15221e-06
-1.10673e-06
9.70916e-06
6.91006e-07
9.52627e-06
-6.33405e-07
1.00612e-05
9.07032e-07
9.88302e-06
-1.40828e-07
1.03052e-05
1.08074e-06
1.00103e-05
3.12528e-07
1.03092e-05
1.24868e-06
9.91887e-06
8.21236e-07
1.01646e-05
1.4445e-06
9.83651e-06
1.35524e-06
9.99986e-06
1.71582e-06
9.85015e-06
1.95297e-06
9.92176e-06
2.15679e-06
9.92697e-06
2.55058e-06
9.90935e-06
2.74206e-06
3.0891e-06
1.01102e-05
1.07243e-05
-3.19973e-07
1.05881e-05
-8.11706e-07
1.10184e-05
4.03325e-07
1.09201e-05
-4.09924e-07
1.14041e-05
5.30528e-07
1.13987e-05
-4.59798e-08
1.18167e-05
7.36812e-07
1.17391e-05
4.51265e-07
1.19782e-05
1.05899e-06
1.17976e-05
1.04017e-06
1.19274e-05
1.342e-06
1.17929e-05
1.50742e-06
1.18307e-05
1.68589e-06
1.18343e-05
1.94877e-06
1.18512e-05
2.1319e-06
1.19788e-05
2.40834e-06
1.20744e-05
2.62541e-06
2.8472e-06
1.22915e-05
1.22547e-05
-5.86242e-07
1.22816e-05
-6.18668e-07
1.29188e-05
-3.31375e-08
1.29714e-05
-2.85082e-07
1.35103e-05
1.41886e-07
1.35394e-05
5.01184e-08
1.38908e-05
4.89091e-07
1.38751e-05
5.50519e-07
1.40453e-05
9.55843e-07
1.40257e-05
1.10918e-06
1.41354e-05
1.26532e-06
1.4181e-05
1.48164e-06
1.42097e-05
1.66336e-06
1.42719e-05
1.88107e-06
1.43088e-05
2.07959e-06
1.43976e-05
2.29698e-06
1.44953e-05
2.4972e-06
2.67175e-06
1.46329e-05
1.45736e-05
-6.87613e-07
1.47673e-05
-5.04729e-07
1.53904e-05
-3.76485e-07
1.57264e-05
-3.71328e-07
1.617e-05
-8.92475e-08
1.62944e-05
1.0283e-07
1.64961e-05
4.3327e-07
1.65383e-05
6.24467e-07
1.67293e-05
8.55529e-07
1.6835e-05
1.06918e-06
1.69314e-05
1.21146e-06
1.70432e-05
1.392e-06
1.71272e-05
1.5832e-06
1.72136e-05
1.78274e-06
1.72927e-05
1.97423e-06
1.7397e-05
2.15512e-06
1.75362e-05
2.30933e-06
2.42845e-06
1.7723e-05
1.68794e-05
-1.07349e-06
1.73242e-05
-5.21978e-07
1.78004e-05
-4.57094e-07
1.8164e-05
-3.81567e-07
1.85884e-05
-2.13201e-07
1.89455e-05
-3.3008e-09
1.93323e-05
2.52273e-07
1.96273e-05
4.92899e-07
1.98856e-05
7.22228e-07
2.00944e-05
9.48532e-07
2.02175e-05
1.14334e-06
2.03042e-05
1.32977e-06
2.0386e-05
1.50043e-06
2.04771e-05
1.66886e-06
2.05843e-05
1.82413e-06
2.07309e-05
1.95011e-06
2.0905e-05
2.0628e-06
2.14926e-06
2.10993e-05
1.95697e-05
-1.13205e-06
2.02291e-05
-5.83483e-07
2.08838e-05
-5.5428e-07
2.144e-05
-4.35597e-07
2.19356e-05
-2.79469e-07
2.23759e-05
-8.47669e-08
2.27995e-05
1.2023e-07
2.31849e-05
3.37135e-07
2.35342e-05
5.45871e-07
2.38674e-05
7.34978e-07
2.41476e-05
9.35464e-07
2.43957e-05
1.1107e-06
2.46076e-05
1.28027e-06
2.48347e-05
1.40146e-06
2.50292e-05
1.56173e-06
2.52063e-05
1.68163e-06
2.53841e-05
1.77516e-06
1.8411e-06
2.55679e-05
2.03614e-05
-1.07995e-06
2.09284e-05
-3.99183e-07
2.1569e-05
-5.17762e-07
2.22241e-05
-4.85594e-07
2.28403e-05
-3.77193e-07
2.33908e-05
-2.02084e-07
2.38664e-05
-3.32559e-09
2.42853e-05
1.95373e-07
2.46505e-05
3.89472e-07
2.4976e-05
5.53943e-07
2.52768e-05
7.18822e-07
2.55281e-05
8.92356e-07
2.57591e-05
1.03541e-06
2.5936e-05
1.17039e-06
2.61367e-05
1.27368e-06
2.63263e-05
1.37719e-06
2.65199e-05
1.44558e-06
1.49161e-06
2.67165e-05
1.7878e-05
-1.17916e-06
1.89669e-05
-7.22364e-07
1.97666e-05
-6.24114e-07
2.03796e-05
-4.80292e-07
2.09024e-05
-3.68381e-07
2.14001e-05
-2.55698e-07
2.18614e-05
-1.01074e-07
2.23065e-05
3.57561e-08
2.26893e-05
2.21481e-07
2.30166e-05
3.76051e-07
2.32891e-05
5.32203e-07
2.35298e-05
6.84397e-07
2.37176e-05
8.31755e-07
2.3876e-05
9.55281e-07
2.40068e-05
1.05162e-06
2.41508e-05
1.11385e-06
2.42631e-05
1.19289e-06
1.22474e-06
2.43723e-05
1.58027e-05
-1.38291e-06
1.68237e-05
-9.91378e-07
1.76565e-05
-7.73581e-07
1.8354e-05
-5.67533e-07
1.89363e-05
-4.24365e-07
1.94231e-05
-3.04974e-07
1.98427e-05
-1.60665e-07
2.0184e-05
-2.18414e-08
2.0473e-05
1.46306e-07
2.0712e-05
2.87711e-07
2.09106e-05
4.20468e-07
2.10855e-05
5.42893e-07
2.12633e-05
6.38035e-07
2.14153e-05
7.45957e-07
2.15651e-05
8.11795e-07
2.16856e-05
8.74675e-07
2.18135e-05
9.26414e-07
9.52534e-07
2.19303e-05
1.44229e-05
-1.16623e-06
1.50024e-05
-8.40388e-07
1.57144e-05
-8.30663e-07
1.64203e-05
-6.88008e-07
1.70335e-05
-5.28803e-07
1.75386e-05
-3.87708e-07
1.79895e-05
-2.64203e-07
1.83763e-05
-1.3426e-07
1.87228e-05
4.27357e-09
1.90134e-05
1.4293e-07
1.92568e-05
2.60702e-07
1.94468e-05
3.85637e-07
1.95908e-05
4.80595e-07
1.97081e-05
5.74426e-07
1.97849e-05
6.51154e-07
1.98477e-05
6.99578e-07
1.99037e-05
7.40332e-07
7.61043e-07
1.99472e-05
1.27969e-05
-1.1947e-06
1.35523e-05
-9.05426e-07
1.42284e-05
-8.88304e-07
1.48296e-05
-7.3995e-07
1.5356e-05
-5.77071e-07
1.58358e-05
-4.68061e-07
1.62621e-05
-3.61653e-07
1.66498e-05
-2.61545e-07
1.69806e-05
-1.33411e-07
1.72577e-05
2.94512e-09
1.74626e-05
1.35905e-07
1.76269e-05
2.54092e-07
1.7752e-05
3.45946e-07
1.78536e-05
4.25339e-07
1.79466e-05
4.816e-07
1.80098e-05
5.32375e-07
1.80691e-05
5.58792e-07
5.71617e-07
1.81188e-05
1.15302e-05
-1.04e-06
1.222e-05
-9.53301e-07
1.28865e-05
-9.78882e-07
1.3486e-05
-8.26492e-07
1.40079e-05
-6.55446e-07
1.4456e-05
-5.43659e-07
1.48517e-05
-4.50753e-07
1.52034e-05
-3.7148e-07
1.55003e-05
-2.48914e-07
1.57407e-05
-1.10846e-07
1.59233e-05
2.86614e-08
1.60578e-05
1.51346e-07
1.61501e-05
2.45636e-07
1.62181e-05
3.15811e-07
1.62699e-05
3.59408e-07
1.63087e-05
3.99096e-07
1.63405e-05
4.1366e-07
4.25204e-07
1.63583e-05
1.03244e-05
-1.14695e-06
1.10664e-05
-1.10197e-06
1.16996e-05
-1.08262e-06
1.22414e-05
-8.96745e-07
1.26982e-05
-7.0576e-07
1.3074e-05
-5.76961e-07
1.33871e-05
-4.82689e-07
1.36507e-05
-4.13213e-07
1.38602e-05
-2.90386e-07
1.40375e-05
-1.71422e-07
1.41862e-05
-4.97161e-08
1.43192e-05
4.77205e-08
1.44427e-05
1.14397e-07
1.45553e-05
1.65234e-07
1.46409e-05
2.0885e-07
1.4725e-05
2.2932e-07
1.47886e-05
2.46671e-07
2.63992e-07
1.48331e-05
9.23844e-06
-1.07672e-06
9.8998e-06
-1.22177e-06
1.04996e-05
-1.19918e-06
1.10217e-05
-9.90577e-07
1.14683e-05
-7.82127e-07
1.18492e-05
-6.45926e-07
1.21674e-05
-5.45361e-07
1.24166e-05
-4.59861e-07
1.26149e-05
-3.36061e-07
1.27668e-05
-2.16759e-07
1.28933e-05
-1.11569e-07
1.30061e-05
-3.8028e-08
1.31111e-05
3.70915e-09
1.32007e-05
4.15011e-08
1.32787e-05
7.27862e-08
1.33399e-05
9.04711e-08
1.33797e-05
1.13238e-07
1.23192e-07
1.34147e-05
8.44054e-06
-1.06592e-06
9.03934e-06
-1.3317e-06
9.52703e-06
-1.25139e-06
9.91531e-06
-9.92673e-07
1.02623e-05
-7.96038e-07
1.05773e-05
-6.79458e-07
1.08601e-05
-5.96944e-07
1.10965e-05
-5.12884e-07
1.12811e-05
-3.8274e-07
1.14295e-05
-2.68501e-07
1.1557e-05
-1.80635e-07
1.16701e-05
-1.2626e-07
1.17697e-05
-1.00774e-07
1.18566e-05
-7.59202e-08
1.19293e-05
-5.1866e-08
1.19795e-05
-2.98555e-08
1.20126e-05
-4.1403e-09
1.13111e-08
1.20287e-05
7.41048e-06
-1.22875e-06
8.08974e-06
-1.57272e-06
8.59599e-06
-1.36553e-06
8.98901e-06
-1.03789e-06
9.30766e-06
-8.15052e-07
9.55705e-06
-6.75443e-07
9.73648e-06
-5.68213e-07
9.86035e-06
-4.71826e-07
9.95764e-06
-3.55813e-07
1.00355e-05
-2.59763e-07
1.01007e-05
-1.93134e-07
1.01508e-05
-1.53864e-07
1.01781e-05
-1.32028e-07
1.01816e-05
-1.06116e-07
1.01685e-05
-8.48078e-08
1.01364e-05
-5.9761e-08
1.00956e-05
-3.84912e-08
-1.6787e-08
1.00382e-05
6.787e-06
-1.31745e-06
7.28646e-06
-1.68081e-06
7.56433e-06
-1.29272e-06
7.76626e-06
-9.28356e-07
7.89652e-06
-6.75871e-07
7.95554e-06
-5.07273e-07
7.96743e-06
-3.93402e-07
7.95307e-06
-3.09379e-07
7.93464e-06
-2.25666e-07
7.91873e-06
-1.65717e-07
7.90029e-06
-1.26984e-07
7.86339e-06
-9.61947e-08
7.80528e-06
-7.67629e-08
7.72941e-06
-5.35487e-08
7.6405e-06
-3.66873e-08
7.54054e-06
-1.525e-08
7.43735e-06
-2.77132e-09
2.00281e-08
7.32334e-06
6.09756e-06
-1.25967e-06
6.00703e-06
-1.23912e-06
5.8055e-06
-7.7803e-07
5.63752e-06
-4.82206e-07
5.49653e-06
-2.94002e-07
5.38026e-06
-1.87757e-07
5.27982e-06
-1.25996e-07
5.20303e-06
-1.00147e-07
5.14289e-06
-6.54649e-08
5.09505e-06
-4.76115e-08
5.0436e-06
-3.22849e-08
4.98704e-06
-2.06953e-08
4.92027e-06
-1.26794e-08
4.84662e-06
-1.44829e-09
4.76604e-06
6.25892e-09
4.68097e-06
1.8814e-08
4.60031e-06
1.59346e-08
4.18153e-08
4.50794e-06
3.95553e-06
3.0509e-06
2.5708e-06
2.35141e-06
2.2846e-06
2.2889e-06
2.32134e-06
2.34768e-06
2.37896e-06
2.40053e-06
2.41231e-06
2.4131e-06
2.40192e-06
2.38464e-06
2.36032e-06
2.33626e-06
2.29927e-06
2.28046e-06
5.43868e-07
7.82698e-07
1.12436e-06
7.90389e-07
1.69866e-06
8.03524e-07
2.28184e-06
7.94413e-07
2.87137e-06
7.87234e-07
3.45734e-06
7.88161e-07
4.032e-06
7.94865e-07
4.59384e-06
8.01248e-07
5.13357e-06
8.14427e-07
5.63774e-06
8.37985e-07
6.10244e-06
8.62553e-07
6.52654e-06
8.86016e-07
6.91475e-06
9.03451e-07
7.29186e-06
8.95065e-07
7.64708e-06
8.93344e-07
7.94211e-06
9.24067e-07
8.16305e-06
9.68259e-07
8.35143e-06
9.75405e-07
8.56752e-06
9.22865e-07
8.81528e-06
8.60808e-07
8.99044e-06
8.96151e-07
9.02506e-06
9.98408e-07
8.96071e-06
1.06374e-06
8.7613e-06
1.16491e-06
8.40373e-06
1.28428e-06
7.92175e-06
1.37385e-06
7.34861e-06
1.43976e-06
6.71361e-06
1.48229e-06
6.02984e-06
1.5089e-06
5.31933e-06
1.50312e-06
4.59377e-06
1.47808e-06
3.86357e-06
1.4444e-06
3.1357e-06
1.40857e-06
2.41903e-06
1.36679e-06
1.7232e-06
1.31696e-06
1.05059e-06
1.26588e-06
4.05185e-07
1.21252e-06
-2.06766e-07
1.15444e-06
-7.80968e-07
1.09383e-06
-1.30521e-06
1.02296e-06
-1.76776e-06
9.42305e-07
-2.15553e-06
8.50678e-07
-2.45971e-06
7.52396e-07
-2.68411e-06
6.60423e-07
-2.83948e-06
5.81989e-07
-2.94128e-06
5.21978e-07
-3.00389e-06
4.79439e-07
-3.03472e-06
4.47197e-07
-3.02672e-06
4.10502e-07
-2.97349e-06
3.69788e-07
-2.88871e-06
3.45084e-07
-2.79204e-06
3.42291e-07
-2.68067e-06
3.39109e-07
-2.58009e-06
3.64443e-07
-2.51807e-06
4.20884e-07
-2.51974e-06
5.05227e-07
-2.57008e-06
5.76119e-07
-2.61016e-06
5.89893e-07
-2.65944e-06
6.2641e-07
-2.72283e-06
6.70012e-07
-2.78455e-06
6.99893e-07
-2.84227e-06
7.2983e-07
-2.89858e-06
7.64349e-07
-2.97316e-06
8.20206e-07
-3.04957e-06
8.6065e-07
-3.09616e-06
8.69891e-07
-3.09066e-06
8.56594e-07
-3.01498e-06
8.24817e-07
-2.85101e-06
7.74117e-07
-2.58339e-06
7.06912e-07
-2.20218e-06
6.28661e-07
-1.75204e-06
5.94548e-07
-1.42878e-06
7.55768e-07
-1.27214e-06
9.54726e-07
-1.21179e-06
1.08018e-06
-1.20287e-06
1.15683e-06
-1.28515e-06
1.27098e-06
-1.38691e-06
1.31304e-06
-1.46879e-06
1.31299e-06
-1.58437e-06
1.35618e-06
-1.8564e-06
1.51236e-06
-2.16046e-06
1.54055e-06
-2.33859e-06
1.41098e-06
-2.46209e-06
1.35018e-06
-2.67497e-06
1.42854e-06
-2.86188e-06
1.38531e-06
-2.97661e-06
1.29083e-06
-2.99685e-06
1.17338e-06
-2.75647e-06
8.89791e-07
-2.16138e-06
5.07819e-07
-1.57436e-06
4.86681e-07
-1.43708e-06
9.0997e-07
-1.55189e-06
1.13581e-06
-1.38655e-06
8.3212e-07
-7.91678e-07
3.75478e-07
-3.75604e-07
5.14613e-07
-5.18068e-07
1.04123e-06
-1.2455e-06
1.6172e-06
-2.68338e-06
2.33754e-06
-4.81724e-06
3.03318e-06
-7.14364e-06
3.16803e-06
-9.09951e-06
2.79464e-06
-1.06884e-05
2.50695e-06
-1.17216e-05
1.94435e-06
-1.22565e-05
1.42416e-06
-1.27485e-05
1.43756e-06
-1.33533e-05
1.60951e-06
-1.38784e-05
1.58451e-06
-1.41936e-05
1.4518e-06
-1.40809e-05
1.09759e-06
-1.32372e-05
4.09812e-07
-1.15058e-05
-4.6799e-07
-9.58201e-06
-6.79066e-07
-9.44092e-06
1.16312e-06
-9.94375e-06
1.91859e-06
-8.63868e-06
1.01453e-07
-7.08815e-06
-1.28062e-07
-4.53167e-06
-1.09948e-06
-3.73287e-06
6.86454e-07
-2.44172e-06
2.04465e-07
-3.39774e-07
-5.99466e-07
1.47184e-06
-2.97099e-07
3.33051e-06
-3.41953e-07
4.66104e-06
1.92241e-07
6.08367e-06
1.038e-07
7.07532e-06
5.3898e-07
7.87098e-06
7.33019e-07
8.543e-06
8.45419e-07
9.27726e-06
7.62005e-07
9.75663e-06
9.8464e-07
9.90199e-06
1.27819e-06
9.68264e-06
1.59549e-06
9.35262e-06
1.65205e-06
8.85181e-06
1.76758e-06
8.3588e-06
1.69259e-06
7.92884e-06
1.53685e-06
7.54781e-06
1.38607e-06
7.26539e-06
1.17393e-06
6.91079e-06
1.12192e-06
6.56231e-06
9.90143e-07
6.14177e-06
9.38222e-07
5.73383e-06
7.89539e-07
5.18569e-06
8.08187e-07
4.51968e-06
8.11802e-07
3.85184e-06
7.21383e-07
3.1309e-06
6.87436e-07
2.31129e-06
7.09015e-07
1.63417e-06
4.99853e-07
1.15991e-06
2.38715e-07
2.07467e-07
7.27832e-07
-6.43625e-07
6.10534e-07
-1.97893e-06
1.10783e-06
-3.90888e-06
1.72436e-06
-5.64305e-06
1.54342e-06
-5.80185e-06
1.91547e-08
-4.42784e-06
-1.46227e-06
-3.9574e-06
-4.68357e-07
-4.49575e-06
5.88979e-07
-5.12145e-06
6.94595e-07
-5.45596e-06
4.5004e-07
-5.48655e-06
2.2499e-07
-5.26627e-06
6.46108e-08
-5.20149e-06
3.1733e-07
-5.18801e-06
4.71131e-07
-4.90878e-06
3.14219e-07
-4.63325e-06
4.29471e-07
-4.09839e-06
2.80137e-07
-2.62411e-06
-4.9533e-07
-2.55945e-06
1.03738e-06
-2.48579e-06
9.86597e-07
-1.29209e-06
-2.47102e-07
-8.86411e-07
4.24273e-07
-2.29842e-06
2.16652e-06
-3.997e-06
2.39718e-06
-2.72037e-06
-7.56159e-07
1.26695e-06
-3.41185e-06
2.57966e-06
-7.22208e-07
1.31378e-06
2.01147e-06
3.84795e-07
1.76813e-06
9.04767e-07
4.55219e-07
5.04112e-07
1.58765e-06
1.07881e-06
1.57776e-06
1.65663e-06
1.59722e-06
2.25168e-06
1.57142e-06
2.85479e-06
1.55772e-06
3.44635e-06
1.56993e-06
4.01693e-06
1.59567e-06
4.57625e-06
1.61134e-06
5.1212e-06
1.63447e-06
5.62754e-06
1.68766e-06
6.10588e-06
1.72707e-06
6.56144e-06
1.75528e-06
6.93743e-06
1.83429e-06
7.21537e-06
1.91617e-06
7.40551e-06
1.98741e-06
7.52881e-06
2.04295e-06
7.64222e-06
2.04514e-06
7.77287e-06
2.00278e-06
7.8357e-06
2.00619e-06
7.69887e-06
2.12716e-06
7.39463e-06
2.28108e-06
6.89059e-06
2.52355e-06
6.20059e-06
2.74731e-06
5.43666e-06
2.91664e-06
4.63084e-06
3.05277e-06
3.83888e-06
3.09374e-06
3.09195e-06
3.07889e-06
2.37982e-06
3.04556e-06
1.6978e-06
3.00245e-06
1.03425e-06
2.93881e-06
3.8513e-07
2.86355e-06
-2.5961e-07
2.79268e-06
-8.93594e-07
2.71402e-06
-1.51268e-06
2.6266e-06
-2.11602e-06
2.53079e-06
-2.68727e-06
2.41922e-06
-3.21261e-06
2.29317e-06
-3.67641e-06
2.14957e-06
-4.07361e-06
1.99994e-06
-4.40246e-06
1.84121e-06
-4.65954e-06
1.67073e-06
-4.85767e-06
1.50298e-06
-4.98305e-06
1.3172e-06
-5.06461e-06
1.16761e-06
-5.09179e-06
1.02369e-06
-5.08591e-06
9.23116e-07
-5.04736e-06
8.44802e-07
-4.96516e-06
7.70082e-07
-4.8204e-06
6.75155e-07
-4.61393e-06
5.78242e-07
-4.37913e-06
5.30817e-07
-4.1417e-06
5.33283e-07
-3.89864e-06
5.35756e-07
-3.62966e-06
5.50082e-07
-3.36758e-06
6.32942e-07
-3.15647e-06
7.92916e-07
-3.02666e-06
9.7306e-07
-2.92012e-06
1.03453e-06
-2.83634e-06
1.12083e-06
-2.78848e-06
1.23091e-06
-2.74004e-06
1.29069e-06
-2.6798e-06
1.34116e-06
-2.62587e-06
1.41641e-06
-2.60098e-06
1.53815e-06
-2.61481e-06
1.65647e-06
-2.62944e-06
1.70663e-06
-2.59642e-06
1.68421e-06
-2.46739e-06
1.5921e-06
-2.23221e-06
1.46952e-06
-1.86358e-06
1.30168e-06
-1.30261e-06
1.06311e-06
-6.07604e-07
9.29991e-07
4.94251e-08
1.16858e-06
4.88286e-07
1.62303e-06
8.22273e-07
1.88473e-06
1.07569e-06
2.06893e-06
1.11785e-06
2.41996e-06
9.50041e-07
2.69596e-06
7.37171e-07
2.7623e-06
4.76403e-07
2.8651e-06
2.29059e-07
3.012e-06
-1.81595e-09
3.02597e-06
-1.71536e-07
2.83352e-06
-3.42618e-07
2.76496e-06
-4.76581e-07
2.79049e-06
-5.5736e-07
2.67441e-06
-6.67162e-07
2.58097e-06
-8.346e-07
2.48747e-06
-7.76392e-07
1.94928e-06
-2.67855e-07
1.09025e-06
4.15576e-07
8.62586e-07
9.37951e-07
1.42229e-06
1.45238e-06
1.63832e-06
1.87414e-06
1.40724e-06
1.28819e-06
1.90701e-06
-7.53276e-07
3.44667e-06
-3.64817e-06
4.81438e-06
-6.88099e-06
5.69708e-06
-9.78787e-06
6.10749e-06
-1.16073e-05
5.78184e-06
-1.3055e-05
5.49682e-06
-1.46793e-05
5.15232e-06
-1.53486e-05
3.91166e-06
-1.50985e-05
2.60186e-06
-1.53145e-05
2.54883e-06
-1.5831e-05
2.77018e-06
-1.60049e-05
2.64562e-06
-1.57267e-05
2.33287e-06
-1.5074e-05
2.00179e-06
-1.43267e-05
1.68278e-06
-1.32647e-05
7.07601e-07
-1.18209e-05
-6.48938e-07
-1.03572e-05
-1.02744e-06
-9.46385e-06
1.37736e-06
-9.2174e-06
3.16543e-06
-8.13374e-06
4.80375e-07
-6.5288e-06
-3.95537e-07
-3.6612e-06
-2.51614e-06
-2.5383e-06
1.04305e-06
-1.10807e-06
2.49128e-07
1.08853e-06
-1.31433e-06
2.86566e-06
-5.60865e-07
4.81269e-06
-7.817e-07
5.91216e-06
5.87889e-07
7.92837e-06
-4.49729e-07
9.28401e-06
6.46347e-07
1.07314e-05
7.67357e-07
1.20265e-05
1.06433e-06
1.35521e-05
7.61818e-07
1.48994e-05
1.13702e-06
1.56388e-05
2.00798e-06
1.59242e-05
2.77351e-06
1.58407e-05
3.14798e-06
1.53078e-05
3.55768e-06
1.4659e-05
3.51757e-06
1.37935e-05
3.53749e-06
1.28515e-05
3.35893e-06
1.1665e-05
3.26633e-06
1.05247e-05
3.06632e-06
9.58411e-06
2.61979e-06
8.78833e-06
2.30445e-06
7.83033e-06
2.16197e-06
7.06745e-06
1.84823e-06
6.17931e-06
1.83752e-06
5.32781e-06
1.6032e-06
4.57075e-06
1.39344e-06
3.59275e-06
1.52479e-06
2.57053e-06
1.26333e-06
2.13157e-06
3.21366e-07
1.66479e-06
8.79996e-07
1.36529e-07
1.80926e-06
-2.48624e-06
3.38228e-06
-5.75296e-06
4.6779e-06
-8.34893e-06
3.80034e-06
-7.83073e-06
-8.86934e-07
-5.05594e-06
-4.53097e-06
-2.72833e-06
-2.93802e-06
-2.63626e-06
4.11784e-07
-3.27995e-06
1.23919e-06
-3.67676e-06
7.63283e-07
-3.42422e-06
-2.10536e-08
-2.76533e-06
-4.49773e-07
-2.60409e-06
4.51034e-07
-3.08933e-06
1.38637e-06
-3.69799e-06
1.40663e-06
-4.43448e-06
1.69702e-06
-4.06129e-06
5.45695e-07
-1.61912e-06
-1.98897e-06
-1.31179e-06
1.96673e-06
-1.98585e-06
2.86986e-06
-2.05628e-06
7.46679e-07
-3.43517e-06
2.59768e-06
-6.12982e-06
5.52865e-06
-7.3516e-06
4.03755e-06
-6.32244e-06
-1.29321e-06
-8.64432e-07
-8.48437e-06
4.49189e-06
-5.62226e-06
4.24113e-06
2.94738e-06
3.32675e-06
3.45434e-06
2.63336e-06
2.39608e-06
5.01722e-07
2.35301e-06
1.10045e-06
2.2934e-06
1.71296e-06
2.31542e-06
2.35618e-06
2.2642e-06
3.02056e-06
2.23396e-06
3.66944e-06
2.2645e-06
4.27858e-06
2.33021e-06
4.8516e-06
2.3842e-06
5.40314e-06
2.43139e-06
5.91169e-06
2.52534e-06
6.30634e-06
2.67796e-06
6.60005e-06
2.80064e-06
6.83534e-06
2.9024e-06
6.96045e-06
3.02728e-06
7.03855e-06
3.09329e-06
7.15061e-06
3.09992e-06
7.23776e-06
3.12248e-06
7.11014e-06
3.28897e-06
6.67883e-06
3.56518e-06
5.96559e-06
3.91919e-06
5.07198e-06
4.21594e-06
4.19817e-06
4.40956e-06
3.36677e-06
4.55577e-06
2.60631e-06
4.61263e-06
1.93459e-06
4.61675e-06
1.33665e-06
4.54351e-06
7.67845e-07
4.45839e-06
2.41845e-07
4.34387e-06
-2.48601e-07
4.23343e-06
-7.44854e-07
4.14302e-06
-1.24782e-06
4.04406e-06
-1.76308e-06
3.95473e-06
-2.28193e-06
3.84921e-06
-2.78769e-06
3.72094e-06
-3.27303e-06
3.57615e-06
-3.73359e-06
3.41401e-06
-4.15186e-06
3.22209e-06
-4.52178e-06
3.0086e-06
-4.83717e-06
2.78593e-06
-5.09225e-06
2.54912e-06
-5.29281e-06
2.31021e-06
-5.43591e-06
2.07168e-06
-5.54244e-06
1.83756e-06
-5.58861e-06
1.61827e-06
-5.58707e-06
1.41745e-06
-5.55442e-06
1.27933e-06
-5.49468e-06
1.17096e-06
-5.38536e-06
1.04618e-06
-5.23309e-06
9.09141e-07
-5.05096e-06
7.84104e-07
-4.86717e-06
7.3784e-07
-4.66884e-06
7.31534e-07
-4.44551e-06
7.19199e-07
-4.21046e-06
7.33971e-07
-3.92895e-06
7.85219e-07
-3.60647e-06
9.26545e-07
-3.27359e-06
1.12855e-06
-2.99651e-06
1.27624e-06
-2.75771e-06
1.43019e-06
-2.50749e-06
1.56359e-06
-2.31845e-06
1.71837e-06
-2.12397e-06
1.79475e-06
-1.93936e-06
1.91344e-06
-1.83151e-06
2.14958e-06
-1.84939e-06
2.43398e-06
-1.96471e-06
2.61926e-06
-2.05593e-06
2.60467e-06
-2.05819e-06
2.45023e-06
-1.88165e-06
2.17582e-06
-1.56176e-06
1.89469e-06
-1.12458e-06
1.5714e-06
-5.67248e-07
1.35567e-06
5.68425e-08
1.57273e-06
6.4387e-07
2.10821e-06
1.22903e-06
2.40746e-06
1.95537e-06
2.48251e-06
2.65489e-06
2.89187e-06
3.09004e-06
3.45945e-06
3.28465e-06
3.7794e-06
3.46118e-06
3.89893e-06
3.46559e-06
4.22718e-06
3.2008e-06
4.52992e-06
2.70416e-06
4.56037e-06
1.9465e-06
4.73485e-06
1.05765e-06
4.87916e-06
6.53006e-07
4.26291e-06
6.92897e-07
3.71159e-06
6.81995e-07
3.64311e-06
8.12032e-07
2.92695e-06
1.42773e-06
1.55447e-06
2.28918e-06
1.05133e-06
2.93066e-06
1.81404e-06
2.46099e-06
3.12126e-06
3.3681e-07
4.50542e-06
-2.70673e-06
5.87565e-06
-5.57205e-06
7.19384e-06
-8.76961e-06
8.84205e-06
-1.18688e-05
9.57679e-06
-1.36466e-05
8.68193e-06
-1.44682e-05
7.38498e-06
-1.56768e-05
7.39152e-06
-1.65798e-05
6.84781e-06
-1.65605e-05
4.92321e-06
-1.6712e-05
3.67668e-06
-1.7176e-05
3.60329e-06
-1.72371e-05
3.37448e-06
-1.66799e-05
2.86085e-06
-1.54884e-05
2.1299e-06
-1.40789e-05
1.67427e-06
-1.30827e-05
1.85082e-06
-1.23515e-05
1.21074e-06
-1.20017e-05
2.10841e-07
-1.17047e-05
-1.19096e-07
-9.80027e-06
7.01242e-07
-7.55894e-06
2.27164e-06
-6.66243e-06
1.01518e-06
-5.89449e-06
2.24581e-07
-3.70658e-06
-3.23042e-06
-2.278e-06
1.1186e-06
-7.46341e-07
2.26455e-07
1.85793e-06
-2.39867e-06
3.62653e-06
-7.79981e-07
5.373e-06
-9.43182e-07
5.89464e-06
1.63054e-06
7.43666e-06
-5.07288e-07
8.79155e-06
7.45187e-07
1.02016e-05
8.00742e-07
1.15302e-05
1.18167e-06
1.34774e-05
2.64404e-07
1.55694e-05
5.44313e-07
1.71993e-05
1.85537e-06
1.80642e-05
3.33141e-06
1.82679e-05
4.23397e-06
1.82472e-05
4.78987e-06
1.80272e-05
4.98065e-06
1.76268e-05
5.08218e-06
1.67368e-05
5.34123e-06
1.56571e-05
5.30038e-06
1.43857e-05
5.11281e-06
1.29713e-05
4.72847e-06
1.16771e-05
4.17638e-06
1.02884e-05
3.95659e-06
9.32642e-06
3.10969e-06
8.34547e-06
3.00394e-06
7.1269e-06
2.8465e-06
6.27446e-06
2.23034e-06
5.29496e-06
2.34193e-06
3.69088e-06
2.55244e-06
2.34975e-06
1.22974e-06
1.58143e-06
1.26955e-06
-5.07767e-08
3.02633e-06
-2.84125e-06
5.73275e-06
-6.40598e-06
7.9396e-06
-8.66626e-06
5.67628e-06
-8.80972e-06
-1.1332e-06
-6.99812e-06
-6.54822e-06
-3.72838e-06
-6.36568e-06
-1.97585e-06
-1.48417e-06
-2.12795e-06
1.29711e-06
-2.45398e-06
1.01237e-06
-2.39811e-06
-9.43307e-08
-1.61567e-06
-1.08701e-06
-9.33075e-07
5.96119e-08
-1.36588e-06
2.30465e-06
-2.56755e-06
3.18058e-06
-4.15437e-06
3.90016e-06
-4.10116e-06
1.27175e-06
-8.31455e-07
-4.09323e-06
3.75177e-07
1.94775e-06
-9.95949e-07
5.56818e-06
-2.26514e-06
3.06033e-06
-4.17415e-06
5.34817e-06
-7.18115e-06
9.1368e-06
-8.58233e-06
5.83769e-06
-7.93597e-06
-1.41393e-06
-3.63353e-06
-1.25915e-05
2.31415e-06
-1.08791e-05
5.03682e-06
9.41169e-07
5.58987e-06
3.664e-06
4.24187e-06
4.71148e-06
4.93444e-07
3.07777e-06
1.11794e-06
2.92958e-06
1.77382e-06
2.93907e-06
2.45376e-06
2.87439e-06
3.14837e-06
2.83753e-06
3.81937e-06
2.89697e-06
4.44751e-06
3.0068e-06
4.9896e-06
3.14998e-06
5.41745e-06
3.31845e-06
5.72616e-06
3.50644e-06
5.97425e-06
3.67463e-06
6.18645e-06
3.80351e-06
6.37884e-06
3.89553e-06
6.60972e-06
3.93945e-06
6.78818e-06
4.05274e-06
6.73412e-06
4.32975e-06
6.29417e-06
4.74177e-06
5.4804e-06
5.22215e-06
4.51387e-06
5.60189e-06
3.60341e-06
5.86667e-06
2.71571e-06
6.0792e-06
1.94674e-06
6.09736e-06
1.33907e-06
6.04354e-06
8.55093e-07
5.94113e-06
4.579e-07
5.83399e-06
9.37264e-08
5.70187e-06
-2.46696e-07
5.57126e-06
-5.96431e-07
5.44453e-06
-9.59661e-07
5.32155e-06
-1.34225e-06
5.22238e-06
-1.75053e-06
5.12145e-06
-2.17438e-06
5.01924e-06
-2.61678e-06
4.90516e-06
-3.08078e-06
4.7725e-06
-3.5458e-06
4.60497e-06
-4.00404e-06
4.4117e-06
-4.44715e-06
4.18321e-06
-4.8589e-06
3.91869e-06
-5.2037e-06
3.60968e-06
-5.49288e-06
3.29954e-06
-5.72028e-06
2.982e-06
-5.87485e-06
2.65395e-06
-5.94163e-06
2.31986e-06
-5.91776e-06
2.00199e-06
-5.84577e-06
1.74577e-06
-5.70921e-06
1.53718e-06
-5.51956e-06
1.37203e-06
-5.32102e-06
1.23603e-06
-5.13502e-06
1.10973e-06
-4.9594e-06
9.97122e-07
-4.78322e-06
9.57346e-07
-4.59261e-06
9.43303e-07
-4.3917e-06
9.28474e-07
-4.20917e-06
9.71144e-07
-4.0338e-06
1.03881e-06
-3.85149e-06
1.18345e-06
-3.62211e-06
1.35462e-06
-3.38184e-06
1.51706e-06
-3.17872e-06
1.73845e-06
-3.01089e-06
1.93959e-06
-2.85538e-06
2.14153e-06
-2.6779e-06
2.22457e-06
-2.49662e-06
2.36749e-06
-2.31643e-06
2.64079e-06
-2.14223e-06
2.97659e-06
-1.99928e-06
3.23873e-06
-1.86309e-06
3.26788e-06
-1.70125e-06
3.11649e-06
-1.49977e-06
2.82871e-06
-1.22306e-06
2.50459e-06
-9.77197e-07
2.24942e-06
-7.92389e-07
2.13374e-06
-4.98532e-07
2.28341e-06
-6.00436e-09
2.6614e-06
6.40201e-07
2.84795e-06
1.37233e-06
2.87708e-06
2.07627e-06
3.34965e-06
2.52399e-06
4.18921e-06
3.16439e-06
4.31762e-06
4.10921e-06
4.1427e-06
4.7355e-06
4.81292e-06
4.91711e-06
5.56463e-06
5.04584e-06
5.63118e-06
5.02385e-06
5.95105e-06
4.63269e-06
6.44825e-06
3.97301e-06
6.08191e-06
3.08397e-06
5.75982e-06
2.48995e-06
5.36993e-06
2.55755e-06
3.95497e-06
2.62678e-06
2.55356e-06
2.21057e-06
2.51056e-06
9.77372e-07
4.07676e-06
-1.43873e-06
6.53648e-06
-4.46928e-06
8.48867e-06
-7.244e-06
9.5788e-06
-9.87329e-06
1.07862e-05
-1.24049e-05
1.23064e-05
-1.43457e-05
1.23629e-05
-1.51003e-05
1.03155e-05
-1.57279e-05
8.89425e-06
-1.67623e-05
9.1571e-06
-1.72512e-05
8.14194e-06
-1.70575e-05
5.75759e-06
-1.69931e-05
4.59352e-06
-1.70786e-05
4.49524e-06
-1.69914e-05
4.04012e-06
-1.65378e-05
3.26633e-06
-1.55703e-05
2.13759e-06
-1.47009e-05
1.79171e-06
-1.41333e-05
2.23733e-06
-1.3415e-05
1.42007e-06
-1.28458e-05
6.28292e-07
-1.2458e-05
7.99834e-07
-1.03911e-05
1.26823e-07
-7.61549e-06
8.04825e-07
-6.05211e-06
7.77185e-07
-4.88581e-06
5.21077e-07
-3.89204e-06
-2.74012e-06
-2.97519e-06
1.69958e-06
-1.34961e-06
1.31674e-07
1.18552e-06
-3.32471e-06
2.9742e-06
-1.00686e-06
4.40971e-06
-7.925e-07
4.83993e-06
2.78399e-06
6.40176e-06
-5.1975e-07
7.83219e-06