/*--------------------------------*- C++ -*----------------------------------*\
| =========                 |                                                 |
| \\      /  F ield         | OpenFOAM: The Open Source CFD Toolbox           |
|  \\    /   O peration     | Version:  dev                                   |
|   \\  /    A nd           | Web:      http://www.openfoam.org               |
|    \\/     M anipulation  |                                                 |
\*---------------------------------------------------------------------------*/
FoamFile
{
    version     2.0;
    format      ascii;
    class       volScalarField;
    object      pMean;
    location    "9.155";
}
// * * * * * * * * * * * * * * * * * * * * * * * * * * * * * * * * * * * * * //

dimensions      [1 -1 -2 0 0 0 0];

internalField   nonuniform List<scalar> 
12225
(
98310.6
98290.8
98277
98270
98255.8
98246.4
98227.9
98218.3
98196.8
98188.1
98163.4
98156.5
98125.6
98119.2
98078.5
98038.8
97949.6
97583.6
98306.1
98289.7
98276.5
98269.5
98255.2
98245.8
98227.2
98217.8
98196.1
98187.7
98162.7
98156
98125.2
98117.3
98076.7
98042.8
97950.5
97789.4
98302.3
98288.1
98275.5
98268.1
98253.7
98244.3
98225.7
98216.4
98194.7
98186.2
98161.8
98153.9
98125.7
98113.9
98079
98043.8
97976.4
97887.6
98297.2
98285.2
98273.4
98265.7
98251.3
98241.6
98223.6
98213.7
98192.9
98183.5
98160.5
98150.8
98124.7
98111.7
98080
98052.2
98003.7
97934.8
98290.6
98280.8
98269.8
98261.7
98247.8
98237.5
98220.6
98209.6
98190.5
98179.2
98159
98146.3
98124.8
98108.5
98081.9
98057.7
98017.8
97985.1
98282.4
98274.7
98263.9
98255.6
98242.1
98231.6
98215.5
98203.8
98186.1
98173.9
98155.8
98142.2
98123.8
98106.8
98085.4
98060.2
98038
98017.6
98272.1
98265.7
98255.4
98246.9
98234.3
98223.2
98208.4
98195.8
98180.1
98166.5
98151.1
98136.1
98121.5
98104
98089.7
98068.7
98058.3
98043.4
98261.4
98255.7
98246
98237.3
98225.6
98214.1
98200.5
98187.3
98173.3
98159
98145.9
98130.2
98118.7
98101.4
98092.6
98074.8
98073.1
98058.2
98250.5
98245.1
98236.3
98227.3
98216.5
98204.7
98192.2
98178.7
98166.1
98151.5
98140
98124.5
98114.8
98098.9
98092.6
98078.4
98078.1
98066.2
98236.9
98231.5
98223.8
98214.7
98204.8
98193
98181.5
98168
98156.7
98142.2
98132.2
98117.3
98109.1
98094.7
98089.7
98078
98077.2
98068.9
98220
98214.5
98208
98199.2
98190
98178.6
98167.8
98154.9
98144.3
98130.8
98121.4
98108.2
98100.2
98088.7
98083.1
98074.5
98071.8
98066.7
98199.5
98193.7
98188.5
98180.1
98171.7
98160.6
98150.8
98138.4
98128.8
98116.3
98107.6
98096.2
98088.6
98079.3
98073.6
98067.2
98063.6
98060
98174.7
98169.4
98164.8
98157.3
98149.4
98139.4
98130
98119.1
98109.9
98099.2
98090.8
98081.5
98074.2
98067
98061.6
98056.7
98053.1
98050.4
98146.5
98141.7
98137.7
98131.1
98123.9
98115
98106.3
98096.8
98088.3
98079.3
98071.6
98064
98057.6
98051.9
98047.2
98043.4
98040.4
98038.3
98116.4
98112.6
98108.8
98103.4
98096.9
98089.3
98081.5
98073.4
98065.8
98058.4
98051.6
98045.5
98040.2
98035.7
98032
98029
98026.8
98025.3
98088.7
98085.9
98082.5
98078
98072.4
98065.9
98059.1
98052.2
98045.6
98039.5
98033.9
98028.9
98024.6
98021
98018.1
98016
98014.4
98013.5
98070.1
98068.1
98065.4
98061.4
98056.5
98050.8
98044.9
98038.9
98033.2
98028
98023.2
98019
98015.5
98012.6
98010.3
98008.6
98007.4
98006.8
98070.3
98068.6
98066.1
98062.4
98057.6
98052.3
98046.7
98041.1
98035.8
98030.8
98026.4
98022.4
98019
98016.3
98014
98012.3
98011.1
98010.4
98090
98088.2
98085.3
98081.4
98076.4
98070.9
98065.1
98059.3
98053.7
98048.5
98043.7
98039.4
98035.7
98032.5
98029.8
98027.7
98026
98024.7
98120.8
98118.6
98115.2
98110.7
98105.3
98099.2
98092.9
98086.6
98080.4
98074.6
98069.2
98064.2
98059.8
98056
98052.6
98049.8
98047.4
98045.5
98155.6
98153
98148.9
98143.7
98137.7
98131
98124.1
98117.1
98110.2
98103.7
98097.6
98091.9
98086.8
98082.1
98078
98074.4
98071.3
98068.6
98189.5
98186.4
98181.6
98175.7
98169
98161.8
98154.2
98146.6
98139.2
98132
98125.1
98118.8
98112.9
98107.6
98102.7
98098.4
98094.6
98091.2
98219.7
98216
98210.5
98204
98196.7
98189
98180.9
98172.8
98164.8
98157
98149.6
98142.7
98136.2
98130.2
98124.7
98119.8
98115.3
98111.3
98245
98240.6
98234.3
98227.2
98219.5
98211.4
98203
98194.5
98186
98177.8
98169.9
98162.5
98155.5
98149
98143
98137.6
98132.6
98128.1
98265.2
98260
98252.9
98245.2
98237.2
98228.8
98220.2
98211.4
98202.6
98194.1
98185.8
98178
98170.6
98163.7
98157.4
98151.5
98146.2
98141.2
98280.9
98274.5
98266.4
98258.3
98250.1
98241.6
98232.9
98223.9
98214.9
98206.1
98197.6
98189.5
98181.8
98174.7
98168
98161.9
98156.2
98151
98292.6
98284.8
98275.7
98267.2
98259
98250.4
98241.6
98232.5
98223.4
98214.5
98205.8
98197.5
98189.7
98182.3
98175.5
98169.1
98163.3
98157.9
98301.3
98291.5
98281.5
98272.8
98264.6
98256.1
98247.2
98238.1
98228.9
98219.9
98211.1
98202.7
98194.7
98187.2
98180.3
98173.8
98167.8
98162.3
98307.4
98295.3
98284.2
98275.6
98267.5
98259.2
98250.4
98241.3
98232.1
98223
98214.1
98205.6
98197.6
98190.1
98183
98176.5
98170.4
98164.8
98313.4
98297.9
98285.8
98276.9
98268.8
98260.4
98251.7
98242.6
98233.4
98224.2
98215.4
98206.9
98198.8
98191.2
98184.2
98177.6
98171.5
98165.9
98310.5
98310.1
98309.3
98308.2
98306.7
98304.8
98302.6
98300
98297
98293.5
98289.7
98285.4
98280.8
98275.9
98270.7
98265.2
98259.5
98253.6
98247.5
98241.2
98234.8
98228.2
98221.5
98214.7
98207.8
98200.8
98193.8
98186.8
98179.7
98172.6
98165.5
98158.4
98151.4
98144.4
98137.6
98130.8
98124.2
98117.7
98111.4
98105.2
98099.3
98093.6
98088.2
98083.1
98078.3
98073.8
98069.7
98066
98062.7
98059.8
98057.4
98055.5
98054.1
98053.3
98053
98053.3
98054.3
98055.9
98058.2
98061.2
98064.8
98069.2
98074.3
98080.1
98086.6
98093.9
98101.9
98110.5
98119.8
98129.8
98140.4
98151.6
98163.3
98175.6
98188.4
98201.6
98215.2
98229.2
98243.5
98258.1
98272.9
98287.9
98303.1
98318.3
98333.6
98348.8
98364
98379.1
98394
98408.7
98423.1
98437.3
98451.1
98464.4
98477.3
98489.7
98501.6
98513
98523.7
98533.9
98543.4
98552.3
98560.5
98568.1
98575
98581.4
98587.1
98592.2
98596.9
98601
98604.6
98607.8
98610.7
98613.2
98615.4
98617.3
98618.9
98620.4
98621.6
98622.7
98623.8
98624.9
98626
98627.3
98628.9
98631
98633.6
98637
98641.5
98647.1
98654.2
98662.9
98673.6
98686.5
98701.8
98719.9
98740.7
98764.5
98791.3
98821.1
98854.1
98890
98928.9
98970.4
99014.8
99061.3
99110.3
99161
99213.6
99267.8
99323.3
99379.7
99436.7
99494.1
99551.3
99607.9
99663.3
99717.1
99768.1
99815.9
99859.4
99897.8
99929.8
99954.9
99971.6
99979.2
99976.5
99963.5
99939.5
99904.8
99859.4
99804.6
99740.7
99670
99592.9
99512.4
99427.9
99343.2
99256.3
99173.2
98303.5
98303.2
98302.4
98301.2
98299.7
98297.8
98295.6
98293
98290
98286.6
98282.8
98278.6
98274.2
98269.4
98264.3
98259
98253.5
98247.7
98241.8
98235.7
98229.5
98223.1
98216.6
98209.9
98203.2
98196.4
98189.6
98182.6
98175.7
98168.8
98161.8
98154.9
98148
98141.3
98134.5
98127.9
98121.4
98115.1
98108.9
98102.9
98097.1
98091.5
98086.2
98081.1
98076.4
98072
98068
98064.3
98061
98058.2
98055.8
98053.9
98052.5
98051.6
98051.3
98051.6
98052.5
98054.1
98056.3
98059.2
98062.7
98067
98072
98077.7
98084.1
98091.2
98099
98107.5
98116.6
98126.4
98136.8
98147.8
98159.3
98171.4
98184
98197
98210.4
98224.1
98238.2
98252.5
98267.1
98281.9
98296.8
98311.7
98326.7
98341.7
98356.6
98371.4
98386
98400.5
98414.6
98428.5
98441.9
98455
98467.6
98479.8
98491.4
98502.5
98513
98522.9
98532.1
98540.8
98548.8
98556.2
98563
98569.1
98574.7
98579.7
98584.2
98588.2
98591.8
98594.9
98597.7
98600.1
98602.3
98604.1
98605.7
98607.1
98608.3
98609.3
98610.3
98611.3
98612.3
98613.5
98614.9
98616.8
98619.2
98622.3
98626.4
98631.7
98638.4
98646.7
98656.9
98669.2
98684
98701.3
98721.4
98744.4
98770.4
98799.3
98831.4
98866.3
98904.1
98944.6
98987.8
99033.2
99081
99130.6
99182
99235
99289.3
99344.6
99400.5
99456.8
99513
99568.6
99623.1
99676.1
99726.4
99773.6
99816.7
99854.8
99886.7
99911.9
99929
99937.1
99935.3
99923.4
99900.6
99867.4
99823.6
99770.6
99708.4
99639.5
99564.3
99485.5
99402.5
99319.3
99233.5
99148.5
98290.8
98290.5
98289.7
98288.5
98286.9
98284.9
98282.6
98280
98276.9
98273.6
98269.9
98265.8
98261.5
98256.9
98252.1
98247
98241.8
98236.4
98230.8
98225.1
98219.2
98213.2
98207.1
98200.8
98194.5
98188
98181.5
98174.9
98168.3
98161.6
98154.9
98148.3
98141.7
98135.2
98128.7
98122.3
98116.1
98109.9
98104
98098.2
98092.6
98087.2
98082
98077.1
98072.6
98068.3
98064.3
98060.7
98057.5
98054.7
98052.4
98050.5
98049
98048.1
98047.7
98047.9
98048.7
98050.1
98052.2
98054.9
98058.3
98062.4
98067.1
98072.6
98078.7
98085.5
98093
98101.2
98110
98119.5
98129.6
98140.2
98151.4
98163
98175.2
98187.8
98200.7
98214.1
98227.7
98241.6
98255.7
98270
98284.4
98298.9
98313.4
98327.8
98342.2
98356.5
98370.6
98384.4
98398
98411.3
98424.2
98436.7
98448.8
98460.4
98471.5
98482
98492
98501.4
98510.2
98518.5
98526.1
98533.1
98539.5
98545.4
98550.7
98555.4
98559.7
98563.5
98566.9
98569.8
98572.4
98574.7
98576.7
98578.4
98579.9
98581.1
98582.2
98583.1
98583.9
98584.6
98585.4
98586.3
98587.4
98588.8
98590.8
98593.3
98596.8
98601.4
98607.2
98614.6
98623.8
98635
98648.5
98664.5
98683.1
98704.6
98728.8
98756
98786.1
98819
98854.7
98893
98934
98977.1
99022.5
99069.8
99118.9
99169.5
99221.5
99274.4
99328.1
99382.2
99436.3
99489.9
99542.5
99593.7
99642.4
99688.3
99730.2
99767.5
99798.9
99824
99841.5
99850.3
99849.9
99839.7
99819.3
99788.8
99748.1
99698.4
99639.8
99574.6
99503
99427.7
99348.2
99268.2
99185.2
99101.3
98273.4
98273
98272.3
98271.1
98269.5
98267.5
98265.2
98262.5
98259.5
98256.2
98252.6
98248.7
98244.5
98240.2
98235.6
98230.9
98226
98221
98215.8
98210.6
98205.1
98199.6
98193.9
98188.2
98182.3
98176.3
98170.2
98164.1
98158
98151.8
98145.6
98139.4
98133.2
98127
98121
98115
98109
98103.3
98097.6
98092.1
98086.7
98081.6
98076.6
98071.9
98067.5
98063.3
98059.5
98056
98052.9
98050.2
98047.8
98045.9
98044.4
98043.4
98043
98043.1
98043.7
98045
98046.8
98049.3
98052.4
98056.2
98060.6
98065.7
98071.5
98077.9
98085
98092.8
98101.1
98110.1
98119.7
98129.8
98140.5
98151.6
98163.2
98175.2
98187.6
98200.3
98213.3
98226.5
98240
98253.6
98267.3
98281
98294.8
98308.6
98322.2
98335.7
98349.1
98362.2
98375
98387.6
98399.7
98411.5
98422.8
98433.6
98443.9
98453.7
98463
98471.8
98480
98487.6
98494.6
98501.1
98507.1
98512.4
98517.3
98521.7
98525.6
98529.1
98532.2
98534.9
98537.4
98539.5
98541.3
98542.8
98544.1
98545.1
98545.9
98546.6
98547.1
98547.5
98547.9
98548.4
98548.9
98549.8
98551
98552.8
98555.4
98558.9
98563.6
98569.7
98577.5
98587.1
98598.9
98613
98629.5
98648.8
98670.7
98695.3
98722.8
98752.9
98785.7
98821
98859
98899
98941.2
98985.3
99031.2
99078.6
99127.4
99177.2
99227.9
99279.1
99330.3
99381.1
99431.1
99479.8
99526.5
99570.4
99610.7
99646.8
99677.3
99702.1
99719.8
99729.4
99730.3
99722.2
99704.5
99677.3
99640.5
99595.1
99541.1
99480.8
99414
99343.5
99268.7
99193.2
99114.5
99034.4
98252.2
98251.9
98251.2
98250.1
98248.5
98246.6
98244.3
98241.7
98238.8
98235.6
98232.1
98228.4
98224.5
98220.4
98216.1
98211.7
98207.2
98202.5
98197.8
98193
98188
98183
98177.8
98172.6
98167.2
98161.8
98156.3
98150.7
98145.2
98139.5
98133.9
98128.3
98122.6
98117
98111.4
98105.9
98100.5
98095.1
98089.9
98084.8
98079.8
98074.9
98070.3
98065.8
98061.6
98057.7
98054
98050.6
98047.6
98044.9
98042.6
98040.7
98039.2
98038.1
98037.6
98037.5
98038
98039
98040.6
98042.8
98045.6
98049
98053
98057.6
98062.9
98068.9
98075.4
98082.6
98090.4
98098.8
98107.7
98117.2
98127.2
98137.7
98148.5
98159.8
98171.4
98183.3
98195.5
98207.9
98220.5
98233.3
98246.1
98259
98271.8
98284.7
98297.4
98310
98322.4
98334.6
98346.5
98358.1
98369.3
98380.1
98390.5
98400.4
98409.9
98418.8
98427.2
98435.1
98442.5
98449.4
98455.7
98461.6
98466.9
98471.7
98476.1
98480
98483.5
98486.6
98489.3
98491.7
98493.9
98495.7
98497.2
98498.5
98499.5
98500.3
98500.8
98501.2
98501.3
98501.3
98501.2
98501.1
98501
98501.1
98501.5
98502.3
98503.8
98506
98509.3
98513.9
98519.9
98527.6
98537.2
98549
98563.1
98579.7
98598.8
98620.4
98644.7
98671.5
98700.8
98732.5
98766.7
98803
98841.4
98881.7
98923.7
98967.4
99012.4
99058.5
99105.5
99153.1
99200.8
99248.3
99295.1
99340.9
99384.9
99426.4
99464.7
99499.1
99528.5
99552.6
99570.3
99580.6
99582.9
99577
99562.2
99538.8
99506.4
99466
99417.4
99362.7
99301.7
99237.3
99168.2
99098.3
99025
98950.4
98228.8
98228.6
98227.9
98226.9
98225.5
98223.7
98221.5
98219.1
98216.3
98213.3
98210
98206.5
98202.8
98199
98195
98190.9
98186.7
98182.4
98178.1
98173.7
98169.2
98164.6
98159.9
98155.2
98150.4
98145.5
98140.6
98135.7
98130.7
98125.7
98120.6
98115.6
98110.6
98105.5
98100.5
98095.6
98090.7
98085.9
98081.1
98076.5
98071.9
98067.5
98063.2
98059
98055.1
98051.4
98048
98044.8
98041.9
98039.3
98037
98035.1
98033.6
98032.4
98031.7
98031.5
98031.8
98032.5
98033.9
98035.7
98038.1
98041.1
98044.6
98048.8
98053.5
98058.9
98064.8
98071.4
98078.5
98086.2
98094.4
98103.1
98112.3
98121.9
98132
98142.4
98153.1
98164.1
98175.3
98186.8
98198.4
98210.1
98221.9
98233.8
98245.6
98257.3
98269
98280.5
98291.9
98303
98313.8
98324.3
98334.4
98344.2
98353.5
98362.4
98370.9
98378.8
98386.3
98393.3
98399.8
98405.8
98411.3
98416.4
98421
98425.2
98428.9
98432.3
98435.3
98437.9
98440.3
98442.3
98444.1
98445.6
98446.8
98447.7
98448.3
98448.8
98448.9
98448.9
98448.6
98448.1
98447.4
98446.7
98445.9
98445.1
98444.5
98444.2
98444.3
98445.1
98446.8
98449.6
98453.6
98459.2
98466.4
98475.7
98487
98500.6
98516.4
98534.7
98555.4
98578.5
98603.9
98631.7
98661.8
98694
98728.2
98764.3
98802.1
98841.6
98882.5
98924.4
98967.3
99010.9
99054.7
99098.5
99141.8
99184.2
99225.1
99264
99299.9
99332.3
99360.2
99383.4
99400.7
99411.4
99415
99411.3
99399.5
99380
99352.1
99317
99274.1
99225.7
99171
99113.2
99050.7
98987.3
98920.4
98852.4
98204.3
98204.2
98203.7
98202.7
98201.5
98199.9
98197.9
98195.7
98193.1
98190.3
98187.3
98184.1
98180.7
98177.1
98173.5
98169.7
98165.9
98161.9
98158
98153.9
98149.8
98145.7
98141.5
98137.2
98133
98128.6
98124.3
98119.9
98115.5
98111.1
98106.6
98102.2
98097.7
98093.3
98088.9
98084.5
98080.2
98075.9
98071.7
98067.5
98063.4
98059.3
98055.4
98051.7
98048
98044.6
98041.4
98038.4
98035.7
98033.2
98031
98029.1
98027.5
98026.3
98025.5
98025.1
98025.1
98025.7
98026.6
98028.1
98030.1
98032.6
98035.7
98039.3
98043.5
98048.2
98053.5
98059.3
98065.7
98072.6
98080
98087.8
98096.2
98104.9
98114
98123.4
98133.2
98143.2
98153.4
98163.8
98174.3
98184.9
98195.6
98206.3
98217
98227.6
98238.1
98248.4
98258.5
98268.5
98278.1
98287.4
98296.4
98305
98313.2
98321
98328.3
98335.2
98341.7
98347.7
98353.3
98358.4
98363.1
98367.3
98371.2
98374.7
98377.7
98380.5
98382.9
98385.1
98386.9
98388.5
98389.8
98390.9
98391.6
98392.2
98392.4
98392.4
98392.2
98391.7
98390.8
98389.8
98388.5
98387
98385.3
98383.6
98382
98380.4
98379.1
98378.4
98378.4
98379.3
98381.1
98384.4
98389.1
98395.6
98404
98414.4
98426.9
98441.6
98458.5
98477.7
98499.2
98522.8
98548.6
98576.4
98606.2
98638
98671.4
98706.5
98743
98780.7
98819.2
98858.6
98898.3
98938.2
98977.8
99016.5
99053.9
99089.7
99122.9
99153.1
99179.1
99201
99217.7
99228.6
99233.3
99231.6
99222.6
99206.9
99183.3
99153.5
99116.4
99074.3
99026.3
98975.5
98919.9
98863.7
98803.7
98742.9
98180.2
98180.1
98179.7
98178.9
98177.8
98176.4
98174.7
98172.7
98170.5
98168
98165.2
98162.3
98159.2
98156
98152.7
98149.3
98145.8
98142.2
98138.6
98134.9
98131.2
98127.4
98123.7
98119.9
98116.1
98112.3
98108.4
98104.6
98100.7
98096.8
98092.9
98089
98085.1
98081.2
98077.4
98073.5
98069.7
98065.9
98062.1
98058.4
98054.7
98051
98047.5
98044.1
98040.8
98037.6
98034.6
98031.8
98029.2
98026.8
98024.7
98022.8
98021.2
98019.9
98019
98018.4
98018.2
98018.5
98019.2
98020.3
98021.9
98023.9
98026.5
98029.5
98033.1
98037.2
98041.7
98046.9
98052.5
98058.5
98065.1
98072.1
98079.5
98087.3
98095.4
98103.9
98112.6
98121.5
98130.7
98140
98149.4
98158.8
98168.3
98177.8
98187.3
98196.7
98205.9
98215
98223.9
98232.5
98240.9
98249
98256.8
98264.2
98271.2
98277.8
98284.1
98289.9
98295.3
98300.3
98304.9
98309.1
98312.9
98316.3
98319.4
98322.1
98324.5
98326.6
98328.4
98329.9
98331.3
98332.3
98333.1
98333.7
98334
98334.1
98333.9
98333.4
98332.6
98331.6
98330.2
98328.5
98326.5
98324.2
98321.6
98318.8
98316
98313.2
98310.5
98308.2
98306.4
98305.3
98305
98305.9
98308
98311.7
98317.1
98324.3
98333.4
98344.5
98357.6
98372.9
98390.4
98409.9
98431.3
98454.8
98480.2
98507.7
98536.7
98567.3
98599.3
98632.7
98666.8
98701.9
98737.5
98773.4
98809.1
98844.1
98877.9
98910.3
98940.5
98968.1
98991.9
99012.1
99027.8
99038.6
99044
99043.9
99037.4
99025
99005.6
98980.7
98949.2
98913.3
98871.9
98828.2
98779.7
98730.9
98678.2
98625
98157.3
98157.3
98157
98156.4
98155.5
98154.3
98152.8
98151.1
98149.1
98147
98144.6
98142
98139.2
98136.4
98133.4
98130.3
98127.1
98123.9
98120.7
98117.4
98114.1
98110.7
98107.4
98104
98100.7
98097.3
98093.9
98090.5
98087.1
98083.7
98080.2
98076.8
98073.4
98070
98066.6
98063.2
98059.8
98056.4
98053.1
98049.7
98046.4
98043.1
98039.9
98036.8
98033.7
98030.8
98028
98025.3
98022.8
98020.5
98018.4
98016.5
98014.9
98013.5
98012.5
98011.7
98011.4
98011.3
98011.7
98012.5
98013.6
98015.2
98017.3
98019.8
98022.8
98026.2
98030.1
98034.5
98039.4
98044.6
98050.3
98056.5
98063
98069.8
98077
98084.4
98092.1
98100
98108
98116.2
98124.5
98132.8
98141.1
98149.4
98157.6
98165.7
98173.7
98181.5
98189.2
98196.5
98203.7
98210.5
98217
98223.2
98229
98234.5
98239.6
98244.3
98248.6
98252.6
98256.2
98259.4
98262.3
98264.9
98267.2
98269.1
98270.8
98272.2
98273.3
98274.3
98275.1
98275.6
98275.8
98275.9
98275.6
98275.1
98274.4
98273.4
98272
98270.4
98268.3
98265.9
98263.1
98259.9
98256.4
98252.6
98248.6
98244.5
98240.5
98236.6
98233
98229.9
98227.5
98226
98225.6
98226.6
98229
98233
98238.8
98246.4
98255.9
98267.4
98280.9
98296.4
98313.7
98333
98354.1
98377.3
98402
98428.3
98456
98485
98514.9
98545.8
98577.3
98609.3
98640.9
98672
98702.1
98731
98757.9
98782.7
98804.1
98822.2
98836.6
98846.8
98852.4
98853.4
98848.8
98839.1
98823.4
98803
98776.6
98746.7
98711.9
98675
98633.6
98592.1
98546.7
98501.4
98136.7
98136.8
98136.6
98136.1
98135.3
98134.4
98133.1
98131.7
98130.1
98128.2
98126.1
98123.9
98121.5
98119
98116.3
98113.6
98110.8
98108
98105.1
98102.2
98099.3
98096.4
98093.4
98090.4
98087.5
98084.5
98081.5
98078.5
98075.5
98072.4
98069.4
98066.4
98063.4
98060.3
98057.3
98054.3
98051.2
98048.2
98045.2
98042.1
98039.1
98036.1
98033.1
98030.2
98027.3
98024.6
98021.9
98019.4
98017
98014.7
98012.6
98010.7
98009
98007.5
98006.3
98005.4
98004.8
98004.5
98004.6
98005
98005.8
98007
98008.6
98010.6
98013
98015.9
98019.1
98022.8
98026.9
98031.5
98036.4
98041.6
98047.2
98053.2
98059.4
98065.9
98072.6
98079.4
98086.4
98093.5
98100.6
98107.8
98114.9
98122
98129
98135.9
98142.7
98149.3
98155.7
98161.8
98167.7
98173.3
98178.6
98183.5
98188.2
98192.5
98196.4
98200
98203.2
98206.1
98208.7
98211
98213
98214.7
98216.2
98217.3
98218.3
98219
98219.4
98219.7
98219.8
98219.7
98219.4
98218.9
98218.1
98217
98215.6
98214
98211.9
98209.6
98206.8
98203.7
98200
98196
98191.5
98186.6
98181.5
98176.2
98170.8
98165.4
98160
98155.1
98150.7
98147
98144.2
98142.5
98142.1
98143.2
98145.7
98150
98156
98163.9
98173.7
98185.5
98198.9
98214.3
98231.4
98250.6
98271.3
98293.5
98317
98341.8
98367.7
98394.5
98422
98449.9
98477.5
98504.8
98531.2
98556.4
98580
98601.7
98620.4
98636.3
98648.7
98657.9
98663
98664.5
98661.2
98653.7
98641.1
98624.6
98602.9
98578.5
98549.8
98519.3
98484.6
98450.2
98412
98374.6
98118.9
98119
98118.9
98118.5
98117.9
98117.1
98116.2
98115
98113.6
98112.1
98110.4
98108.5
98106.4
98104.3
98102.1
98099.7
98097.3
98094.9
98092.4
98089.8
98087.3
98084.7
98082.1
98079.6
98076.9
98074.3
98071.7
98069
98066.3
98063.6
98060.9
98058.2
98055.5
98052.8
98050
98047.3
98044.5
98041.7
98038.9
98036
98033.2
98030.4
98027.6
98024.8
98022.1
98019.4
98016.8
98014.4
98012
98009.7
98007.6
98005.6
98003.8
98002.2
98000.9
97999.8
97999
97998.5
97998.2
97998.4
97998.8
97999.6
98000.8
98002.3
98004.2
98006.5
98009.2
98012.3
98015.7
98019.5
98023.7
98028.2
98033
98038.1
98043.4
98048.9
98054.7
98060.5
98066.5
98072.6
98078.6
98084.7
98090.8
98096.7
98102.6
98108.3
98113.9
98119.3
98124.5
98129.4
98134.1
98138.5
98142.6
98146.3
98149.8
98152.9
98155.7
98158.2
98160.4
98162.3
98163.9
98165.2
98166.3
98167.1
98167.7
98168
98168.2
98168.1
98167.9
98167.5
98166.9
98166.1
98165.1
98163.9
98162.5
98160.8
98158.7
98156.3
98153.6
98150.5
98146.9
98143
98138.5
98133.5
98128.1
98122.2
98116
98109.5
98102.8
98096
98089.1
98082.6
98076.3
98070.5
98065.5
98061.3
98058.4
98056.6
98056.2
98057.5
98060.3
98065
98071.3
98079.6
98089.6
98101.4
98114.9
98130.3
98147.3
98165.8
98185.4
98206.4
98228.4
98251.3
98275
98298.9
98322.6
98346.2
98368.8
98390.2
98410.4
98428.8
98444.7
98457.8
98468
98475.4
98479.5
98480.7
98478.1
98472.2
98462.1
98448.9
98431.2
98411.7
98388.5
98363.9
98335.4
98307.9
98276.6
98246.6
98104.2
98104.4
98104.3
98104
98103.6
98103.1
98102.3
98101.4
98100.3
98099.1
98097.7
98096.1
98094.5
98092.7
98090.8
98088.9
98086.9
98084.8
98082.7
98080.6
98078.4
98076.2
98074
98071.7
98069.5
98067.1
98064.8
98062.4
98060
98057.6
98055.1
98052.6
98050.1
98047.6
98045.1
98042.5
98039.9
98037.2
98034.5
98031.8
98029.1
98026.4
98023.6
98020.9
98018.3
98015.6
98013.1
98010.6
98008.1
98005.8
98003.6
98001.6
97999.7
97998
97996.5
97995.2
97994.2
97993.4
97993
97992.8
97992.9
97993.4
97994.2
97995.3
97996.8
97998.6
98000.7
98003.2
98006.1
98009.3
98012.7
98016.5
98020.6
98024.9
98029.4
98034.2
98039
98044
98049
98054.1
98059.2
98064.3
98069.3
98074.2
98079
98083.6
98088.1
98092.4
98096.4
98100.2
98103.7
98106.9
98109.9
98112.5
98114.9
98116.9
98118.6
98120
98121.2
98122
98122.6
98123
98123.1
98123
98122.8
98122.2
98121.6
98120.7
98119.7
98118.5
98117.2
98115.6
98113.9
98112
98109.9
98107.4
98104.6
98101.5
98098
98094.2
98089.8
98085
98079.7
98073.9
98067.5
98060.7
98053.5
98045.9
98038
98029.9
98021.6
98013.5
98005.5
97997.9
97991
97984.6
97979.3
97975.1
97972.1
97970.6
97970.7
97972.4
97975.7
97980.9
97987.8
97996.4
98006.7
98018.8
98032.4
98047.6
98063.8
98081.3
98099.7
98118.9
98138.9
98159.1
98179
98198.9
98217.6
98235.3
98251.8
98266.7
98279.5
98289.8
98297.3
98302.6
98304.9
98305.2
98302.6
98297.7
98289.3
98278.8
98264.5
98249.2
98230.6
98211.4
98188.7
98167.5
98142.5
98119.7
98092.8
98093
98093
98092.8
98092.6
98092.2
98091.6
98091
98090.2
98089.2
98088.1
98086.9
98085.6
98084.2
98082.8
98081.3
98079.7
98078
98076.3
98074.6
98072.8
98070.9
98069.1
98067.1
98065.1
98063.1
98061
98058.9
98056.7
98054.4
98052.2
98049.8
98047.5
98045.1
98042.6
98040.1
98037.6
98035
98032.3
98029.7
98027
98024.2
98021.5
98018.8
98016.1
98013.4
98010.7
98008.2
98005.7
98003.3
98001
97998.8
97996.8
97994.9
97993.3
97991.8
97990.6
97989.6
97988.9
97988.5
97988.4
97988.6
97989
97989.8
97990.9
97992.3
97994
97996
97998.3
98001
98003.9
98007.1
98010.5
98014.1
98017.9
98021.9
98026
98030.1
98034.3
98038.6
98042.8
98047
98051
98055
98058.8
98062.4
98065.8
98069.1
98072
98074.7
98077.2
98079.3
98081.2
98082.7
98084
98085
98085.7
98086
98086.1
98086
98085.6
98085
98084.2
98083.2
98082
98080.7
98079.2
98077.5
98075.7
98073.7
98071.5
98069.2
98066.7
98064
98061
98057.8
98054.2
98050.3
98046
98041.4
98036.2
98030.6
98024.4
98017.8
98010.6
98002.9
97994.7
97986
97977.1
97967.9
97958.4
97948.9
97939.5
97930.4
97921.6
97913.4
97906.1
97899.7
97894.5
97890.7
97888.3
97887.5
97888.2
97890.8
97894.9
97900.8
97908.3
97917.5
97928.1
97940.2
97953.3
97967.6
97982.6
97998.5
98015.1
98031.7
98048.1
98064.3
98079.2
98093.1
98105.8
98117.1
98126.6
98133.8
98138.5
98141.4
98141.6
98140.2
98136.9
98132.2
98125
98116.4
98105.1
98093
98078.4
98064
98046.4
98030.9
98011.7
97995.7
98084.3
98084.6
98084.7
98084.6
98084.5
98084.3
98084
98083.6
98083
98082.4
98081.6
98080.8
98079.9
98078.9
98077.9
98076.8
98075.6
98074.4
98073.1
98071.8
98070.3
98068.9
98067.3
98065.7
98064
98062.2
98060.3
98058.4
98056.3
98054.2
98052.1
98049.8
98047.5
98045.2
98042.7
98040.2
98037.7
98035
98032.3
98029.6
98026.8
98024
98021.2
98018.4
98015.6
98012.8
98010
98007.3
98004.7
98002.1
97999.7
97997.4
97995.2
97993.2
97991.4
97989.8
97988.4
97987.3
97986.4
97985.7
97985.4
97985.3
97985.5
97986
97986.7
97987.8
97989.1
97990.8
97992.7
97994.9
97997.3
97999.9
98002.8
98005.9
98009.1
98012.4
98015.8
98019.2
98022.7
98026.2
98029.6
98033
98036.2
98039.3
98042.2
98044.9
98047.4
98049.7
98051.6
98053.3
98054.8
98055.9
98056.8
98057.3
98057.6
98057.6
98057.2
98056.6
98055.7
98054.6
98053.3
98051.7
98050
98048.1
98046
98043.8
98041.4
98038.9
98036.2
98033.3
98030.3
98027.2
98023.8
98020.3
98016.5
98012.4
98008
98003.3
97998.2
97992.7
97986.7
97980.3
97973.3
97965.8
97957.8
97949.3
97940.3
97930.8
97921
97910.8
97900.3
97889.7
97879
97868.5
97858.3
97848.5
97839.5
97831.4
97824.3
97818.5
97814.1
97811.1
97809.7
97810
97811.9
97815.3
97820.3
97826.8
97834.8
97844
97854.4
97865.9
97878
97890.9
97904.1
97917.4
97930.4
97942.9
97954.2
97964.3
97973.2
97980.8
97986.8
97990.7
97992.4
97992.8
97990.6
97987.3
97982.8
97977.6
97970.9
97963.6
97954.3
97945
97933.6
97923.3
97910.2
97899.9
97885.9
97876.1
98078.3
98078.6
98078.8
98078.9
98078.9
98078.8
98078.7
98078.5
98078.3
98078.1
98077.7
98077.3
98076.9
98076.4
98075.8
98075.2
98074.5
98073.7
98072.8
98071.9
98070.9
98069.7
98068.5
98067.1
98065.7
98064.1
98062.4
98060.6
98058.7
98056.7
98054.5
98052.3
98050
98047.6
98045.1
98042.5
98039.9
98037.2
98034.4
98031.5
98028.6
98025.7
98022.7
98019.7
98016.7
98013.8
98010.9
98008
98005.2
98002.5
97999.9
97997.4
97995.1
97992.9
97991
97989.2
97987.7
97986.4
97985.3
97984.5
97983.9
97983.6
97983.6
97983.9
97984.4
97985.2
97986.2
97987.6
97989.1
97990.9
97993
97995.2
97997.6
98000.2
98002.9
98005.7
98008.5
98011.4
98014.2
98017.1
98019.8
98022.4
98024.9
98027.2
98029.3
98031.2
98032.8
98034.2
98035.3
98036.1
98036.6
98036.9
98036.8
98036.4
98035.7
98034.7
98033.5
98031.9
98030.1
98028
98025.7
98023.2
98020.6
98017.8
98014.8
98011.7
98008.4
98005
98001.4
97997.7
97993.8
97989.8
97985.6
97981.1
97976.5
97971.5
97966.3
97960.7
97954.8
97948.5
97941.7
97934.5
97926.7
97918.5
97909.8
97900.6
97890.9
97880.7
97870.1
97859.1
97847.8
97836.3
97824.6
97813
97801.6
97790.5
97780.2
97770.7
97762.1
97754.6
97748.5
97743.8
97740.6
97738.9
97738.7
97740.1
97742.9
97747.2
97752.8
97759.6
97767.5
97776.5
97786
97795.9
97806
97816
97825.8
97834.8
97842.5
97849.1
97854.2
97858.1
97860.4
97860.9
97859.6
97857.3
97852.6
97847.2
97841
97834.8
97828
97821.5
97813.5
97806.3
97797.6
97790.7
97781.3
97775.5
97766.1
97761.9
98074
98074.2
98074.5
98074.7
98074.8
98075
98075.2
98075.4
98075.6
98075.8
98076
98076.1
98076.2
98076.3
98076.2
98076.1
98075.9
98075.6
98075.1
98074.6
98073.9
98073.1
98072.1
98071
98069.8
98068.3
98066.8
98065.1
98063.2
98061.2
98059.1
98056.9
98054.5
98052
98049.4
98046.7
98044
98041.1
98038.1
98035.1
98032
98028.9
98025.7
98022.6
98019.4
98016.2
98013.1
98010.1
98007.1
98004.2
98001.5
97998.8
97996.4
97994.1
97992
97990.1
97988.4
97986.9
97985.7
97984.7
97984
97983.6
97983.4
97983.5
97983.8
97984.4
97985.3
97986.3
97987.7
97989.2
97990.9
97992.8
97994.9
97997.1
97999.3
98001.7
98004
98006.4
98008.7
98011
98013.1
98015.1
98016.9
98018.6
98020
98021.1
98022
98022.6
98022.9
98022.9
98022.6
98021.9
98021
98019.8
98018.2
98016.4
98014.2
98011.8
98009
98006.1
98002.9
97999.5
97995.9
97992.3
97988.4
97984.4
97980.3
97976
97971.5
97966.9
97962.2
97957.2
97952.1
97946.7
97941.2
97935.4
97929.3
97922.9
97916.1
97909
97901.5
97893.5
97885.1
97876.2
97866.9
97857.1
97846.8
97836
97824.7
97813.2
97801.2
97788.9
97776.5
97764.1
97751.7
97739.7
97728.4
97717.7
97707.9
97699.1
97691.6
97685.5
97680.7
97677.4
97675.5
97675.1
97676.1
97678.5
97681.9
97686.6
97692.3
97699.1
97706.2
97713.3
97720.4
97727.3
97733.9
97739.6
97744
97747.1
97748.4
97748.6
97747.1
97744.2
97739.7
97734.6
97727.5
97719.9
97711.9
97704.5
97697.1
97690.7
97683.5
97677.8
97671.1
97666.9
97660.6
97658.9
97653.6
97654.2
98070.2
98070.4
98070.6
98070.8
98071
98071.6
98072.2
98073
98073.8
98074.7
98075.6
98076.4
98077.2
98077.9
98078.5
98078.9
98079.2
98079.3
98079.3
98079.1
98078.7
98078.2
98077.5
98076.6
98075.5
98074.2
98072.8
98071.1
98069.3
98067.3
98065.1
98062.8
98060.4
98057.8
98055.1
98052.3
98049.3
98046.3
98043.2
98039.9
98036.7
98033.3
98030
98026.6
98023.2
98019.9
98016.6
98013.4
98010.2
98007.2
98004.3
98001.5
97998.9
97996.5
97994.2
97992.2
97990.4
97988.9
97987.5
97986.5
97985.7
97985.1
97984.8
97984.7
97984.9
97985.4
97986.1
97987
97988.1
97989.5
97991
97992.6
97994.4
97996.2
97998.2
98000.1
98002.1
98004
98005.9
98007.6
98009.2
98010.7
98011.9
98013
98013.7
98014.2
98014.5
98014.4
98014
98013.2
98012.2
98010.8
98009
98007
98004.6
98002
97999
97995.7
97992.2
97988.4
97984.3
97980.1
97975.7
97971.2
97966.5
97961.6
97956.6
97951.5
97946.1
97940.7
97935.1
97929.2
97923.2
97917
97910.5
97903.9
97897
97889.8
97882.3
97874.4
97866.2
97857.5
97848.5
97839.1
97829.2
97818.8
97808
97796.8
97785.1
97773
97760.5
97747.7
97734.7
97721.7
97708.7
97696.1
97683.9
97672.4
97661.5
97651.7
97643.1
97635.7
97629.5
97624.9
97621.5
97619.6
97619.1
97619.8
97621.5
97624.2
97628
97632.6
97637.5
97642.1
97646.4
97650.3
97653.9
97656.5
97657.6
97657.4
97655.1
97651.5
97646.4
97640.1
97632.4
97624.1
97614.7
97604.9
97595.1
97586.3
97578
97571.4
97564.5
97559.9
97554.7
97552.7
97548.9
97550.7
97548.9
97553.8
98065.3
98065.3
98065.4
98065.7
98066.4
98067.7
98069.1
98070.9
98072.6
98074.5
98076.2
98077.9
98079.5
98080.9
98082.1
98083
98083.8
98084.4
98084.7
98084.8
98084.7
98084.4
98083.9
98083.2
98082.2
98081
98079.6
98078
98076.2
98074.2
98072
98069.6
98067.1
98064.4
98061.5
98058.6
98055.5
98052.3
98048.9
98045.5
98042.1
98038.6
98035
98031.5
98027.9
98024.4
98021
98017.6
98014.3
98011.1
98008
98005.2
98002.4
97999.9
97997.6
97995.5
97993.6
97992
97990.6
97989.4
97988.5
97987.9
97987.5
97987.4
97987.5
97987.8
97988.4
97989.2
97990.2
97991.4
97992.7
97994.2
97995.7
97997.3
97998.9
98000.6
98002.2
98003.7
98005.2
98006.5
98007.6
98008.6
98009.3
98009.8
98010
98010
98009.6
98008.8
98007.8
98006.4
98004.6
98002.5
98000.1
97997.3
97994.2
97990.8
97987
97983
97978.7
97974.1
97969.3
97964.3
97959.1
97953.7
97948.2
97942.6
97936.8
97930.8
97924.7
97918.4
97911.9
97905.3
97898.4
97891.4
97884.2
97876.7
97869
97861.1
97852.9
97844.4
97835.5
97826.2
97816.7
97806.8
97796.4
97785.6
97774.5
97762.9
97750.9
97738.4
97725.5
97712.3
97698.9
97685.4
97672.1
97659.1
97646.4
97634.1
97622.5
97611.9