/*--------------------------------*- C++ -*----------------------------------*\
| =========                 |                                                 |
| \\      /  F ield         | OpenFOAM: The Open Source CFD Toolbox           |
|  \\    /   O peration     | Version:  dev                                   |
|   \\  /    A nd           | Web:      http://www.openfoam.org               |
|    \\/     M anipulation  |                                                 |
\*---------------------------------------------------------------------------*/
FoamFile
{
    version     2.0;
    format      ascii;
    class       volScalarField;
    object      rho;
    location    "9.155";
}
// * * * * * * * * * * * * * * * * * * * * * * * * * * * * * * * * * * * * * //

dimensions      [1 -3 0 0 0 0 0];

internalField   nonuniform List<scalar> 
12225
(
1.06806
1.07109
1.07179
1.07275
1.07475
1.07634
1.07871
1.08099
1.08329
1.08635
1.08848
1.09182
1.09471
1.09653
1.10333
1.09819
1.11607
1.11268
1.07084
1.07366
1.07369
1.07506
1.07631
1.07922
1.08021
1.08447
1.08491
1.09027
1.09048
1.09532
1.09801
1.09798
1.11104
1.09693
1.11729
1.11433
1.07074
1.0735
1.0734
1.07552
1.07613
1.07989
1.08026
1.08491
1.08563
1.09044
1.09146
1.0966
1.09697
1.10351
1.10436
1.11329
1.11519
1.11889
1.07054
1.07357
1.07338
1.07547
1.07674
1.07909
1.08168
1.08326
1.08706
1.08859
1.0929
1.09412
1.09857
1.10071
1.10233
1.11176
1.10987
1.11242
1.07079
1.07343
1.07401
1.07506
1.07723
1.07863
1.08166
1.08324
1.08607
1.08912
1.09193
1.09474
1.09771
1.10076
1.10448
1.10573
1.10943
1.11091
1.07133
1.07306
1.07434
1.0747
1.07743
1.07853
1.08163
1.08277
1.08637
1.08883
1.0921
1.09381
1.09786
1.09985
1.10604
1.10413
1.11117
1.11665
1.07189
1.0732
1.0744
1.07497
1.07731
1.079
1.08129
1.0832
1.08631
1.08908
1.09183
1.09441
1.09772
1.10123
1.10459
1.10746
1.11148
1.11371
1.07258
1.07307
1.07482
1.07483
1.07771
1.079
1.08184
1.08332
1.08655
1.08855
1.09205
1.09421
1.09811
1.1006
1.10388
1.10648
1.10972
1.1119
1.07261
1.07314
1.07502
1.07498
1.07787
1.0791
1.08185
1.08365
1.08648
1.089
1.09214
1.09502
1.09815
1.10101
1.10366
1.10632
1.10898
1.11175
1.07301
1.07331
1.07524
1.07527
1.07827
1.07939
1.08237
1.08388
1.08708
1.08916
1.09286
1.09521
1.09824
1.1007
1.10349
1.10574
1.10822
1.11054
1.07299
1.07391
1.07552
1.07585
1.0785
1.07984
1.08254
1.08431
1.08737
1.08965
1.09302
1.09543
1.09786
1.10011
1.1025
1.10489
1.10742
1.10969
1.07303
1.07459
1.07577
1.0765
1.07865
1.08029
1.08252
1.08449
1.0871
1.08945
1.0923
1.09488
1.09728
1.09951
1.10178
1.10426
1.10642
1.10852
1.07345
1.0754
1.07606
1.07704
1.07874
1.08066
1.08266
1.08491
1.08717
1.08966
1.09197
1.09447
1.09675
1.09905
1.10116
1.10337
1.10542
1.10735
1.07392
1.07611
1.0766
1.07787
1.07946
1.08126
1.08324
1.08544
1.08754
1.09006
1.09202
1.09435
1.09639
1.0985
1.10041
1.10243
1.10448
1.10636
1.07488
1.07732
1.0775
1.07858
1.0801
1.08181
1.08375
1.08585
1.08785
1.09015
1.09209
1.09422
1.09607
1.09808
1.09985
1.10168
1.10344
1.10505
1.07633
1.07866
1.07892
1.07998
1.08137
1.08288
1.08474
1.08664
1.08863
1.09066
1.09254
1.09443
1.0961
1.09794
1.09959
1.10124
1.10289
1.10441
1.07808
1.08015
1.0802
1.08137
1.0828
1.08436
1.08616
1.08785
1.08975
1.09152
1.0933
1.09503
1.09666
1.09826
1.09982
1.10129
1.10268
1.10407
1.07983
1.08195
1.08206
1.0832
1.08454
1.08603
1.08761
1.08925
1.09099
1.09282
1.09457
1.0962
1.09794
1.09941
1.10095
1.10228
1.10367
1.10496
1.08169
1.08364
1.08396
1.08494
1.08633
1.08771
1.08918
1.09093
1.09248
1.09445
1.09616
1.09781
1.09953
1.10097
1.10258
1.10386
1.10533
1.10662
1.08321
1.08522
1.08569
1.08646
1.08804
1.0893
1.09061
1.09242
1.09392
1.09597
1.09786
1.09951
1.10135
1.10268
1.1043
1.10564
1.10707
1.10853
1.0845
1.08668
1.0871
1.0876
1.08933
1.09077
1.09198
1.09389
1.09536
1.09721
1.09933
1.10071
1.10284
1.10408
1.10586
1.10735
1.10883
1.11062
1.08546
1.0876
1.08823
1.0887
1.09016
1.09166
1.09292
1.09491
1.09649
1.09821
1.10033
1.10179
1.10398
1.10547
1.1074
1.10903
1.1106
1.11238
1.08622
1.0882
1.0885
1.08942
1.09095
1.09232
1.09388
1.09573
1.09737
1.09927
1.10107
1.10288
1.10486
1.1066
1.10857
1.11023
1.11205
1.11365
1.08712
1.08905
1.08905
1.09018
1.09157
1.0929
1.09458
1.09625
1.09799
1.10001
1.10175
1.10375
1.10552
1.10737
1.10922
1.11091
1.11281
1.1144
1.08737
1.08925
1.08956
1.09065
1.0919
1.09336
1.09493
1.09662
1.09845
1.1003
1.10221
1.10412
1.10599
1.10791
1.10972
1.11157
1.11335
1.11511
1.08778
1.08972
1.08989
1.09083
1.09213
1.09362
1.0952
1.09699
1.09879
1.10067
1.1026
1.10446
1.10643
1.10827
1.11019
1.11201
1.11382
1.1156
1.08796
1.08981
1.09005
1.09111
1.09244
1.0939
1.09553
1.09728
1.09912
1.10097
1.10287
1.10478
1.10673
1.1087
1.11067
1.11264
1.11457
1.11645
1.08807
1.09005
1.09026
1.09127
1.09256
1.09399
1.09566
1.09745
1.09935
1.10127
1.10326
1.10526
1.10735
1.10944
1.11156
1.1136
1.11561
1.1175
1.08808
1.09037
1.09046
1.09132
1.09254
1.09399
1.09566
1.09744
1.09936
1.10133
1.10341
1.10549
1.10759
1.10957
1.11151
1.11327
1.11501
1.11652
1.0872
1.08945
1.08961
1.09037
1.09147
1.09282
1.09435
1.09598
1.09771
1.09948
1.10129
1.10309
1.10487
1.1066
1.10828
1.1099
1.11144
1.11288
1.19491
1.21771
1.22333
1.22319
1.22201
1.22055
1.21897
1.21743
1.21587
1.21414
1.21212
1.20986
1.2075
1.20548
1.20358
1.20086
1.19718
1.19376
1.19138
1.18954
1.18723
1.18377
1.18026
1.17742
1.17388
1.16938
1.16515
1.16264
1.1627
1.1642
1.16479
1.16368
1.16168
1.15957
1.15756
1.15559
1.15365
1.15177
1.14987
1.14792
1.14589
1.14379
1.14178
1.13995
1.1383
1.13679
1.13527
1.13357
1.13161
1.12935
1.1268
1.12409
1.12139
1.11878
1.11616
1.11334
1.11047
1.10803
1.10592
1.1039
1.10213
1.10052
1.09891
1.09721
1.09547
1.09365
1.09171
1.08971
1.08756
1.08528
1.08288
1.08033
1.0774
1.07436
1.07157
1.06899
1.06717
1.06621
1.06387
1.05873
1.05354
1.0513
1.05089
1.05024
1.04957
1.04933
1.04926
1.04974
1.0501
1.04957
1.04798
1.04677
1.04655
1.04757
1.04505
1.03357
1.02542
1.02826
1.02845
1.02224
1.02086
1.0323
1.03575
1.03381
1.04014
1.04553
1.04788
1.05072
1.05174
1.04934
1.04509
1.04157
1.04201
1.04886
1.04784
1.04448
1.04838
1.04889
1.04921
1.04881
1.05105
1.05221
1.05301
1.05265
1.05345
1.05496
1.05715
1.05938
1.06135
1.06237
1.06242
1.06151
1.06055
1.05956
1.0618
1.06412
1.06759
1.07053
1.0746
1.07728
1.08098
1.08248
1.08546
1.08611
1.08806
1.08998
1.09038
1.09213
1.08939
1.08013
1.07058
1.06001
1.06074
1.06815
1.08189
1.08313
1.07068
1.06251
1.0669
1.0763
1.08084
1.07672
1.0692
1.06431
1.06479
1.07307
1.09561
1.12189
1.09268
1.08419
1.06693
1.03707
1.02926
1.04932
1.07114
1.07265
1.05585
1.02277
0.998724
0.987685
1.19567
1.22556
1.23349
1.23316
1.23231
1.23152
1.23054
1.23024
1.23032
1.23005
1.22925
1.22756
1.22383
1.22079
1.22186
1.22311
1.21914
1.21253
1.20766
1.2061
1.20603
1.20048
1.19067
1.18685
1.18707
1.1875
1.18817
1.18817
1.18667
1.1844
1.18131
1.1786
1.17619
1.17375
1.17163
1.16928
1.16734
1.16502
1.16248
1.15978
1.15653
1.15362
1.1508
1.14846
1.14674
1.1455
1.14444
1.14303
1.14105
1.13853
1.13607
1.13418
1.13271
1.13171
1.13098
1.12982
1.12756
1.12403
1.12193
1.11975
1.11766
1.1162
1.11494
1.11408
1.11339
1.11224
1.11013
1.10725
1.10373
1.09958
1.09561
1.09369
1.09361
1.0925
1.08988
1.08649
1.08381
1.08327
1.08437
1.0827
1.07699
1.07227
1.07169
1.07165
1.0695
1.06566
1.06136
1.06066
1.06418
1.06638
1.06363
1.06045
1.06309
1.07109
1.07224
1.06223
1.04449
1.04094
1.04702
1.04193
1.03431
1.04056
1.05643
1.05865
1.05121
1.05708
1.06927
1.07555
1.07169
1.05958
1.04274
1.03071
1.03362
1.05613
1.07511
1.03432
1.05503
1.05789
1.05058
1.05314
1.06214
1.06466
1.07071
1.06619
1.06285
1.05827
1.05785
1.06128
1.06928
1.07577
1.0817
1.0861
1.0956
1.09808
1.09656
1.09816
1.10499
1.10659
1.11303
1.11966
1.13225
1.13992
1.15107
1.15709
1.15869
1.17074
1.17324
1.17727
1.17369
1.16013
1.14701
1.10564
1.11707
1.13938
1.14248
1.16067
1.14631
1.13378
1.14272
1.17583
1.20703
1.21538
1.20239
1.17916
1.16857
1.19533
1.27309
1.35308
1.30618
1.26294
1.19129
1.1343
1.12808
1.14796
1.17047
1.1044
1.15704
1.15903
1.13252
1.08416
1.18986
1.21663
1.22815
1.23062
1.23119
1.23181
1.23182
1.23247
1.23477
1.23671
1.23856
1.24375
1.24804
1.24492
1.23391
1.22618
1.22182
1.21803
1.21829
1.21514
1.20717
1.20479
1.20114
1.19715
1.19248
1.18851
1.18484
1.17946
1.17618
1.17225
1.1696
1.1672
1.16422
1.16171
1.15827
1.1556
1.1523
1.14931
1.14598
1.14267
1.1398
1.13632
1.13365
1.13086
1.12822
1.12599
1.12356
1.12095
1.11823
1.11609
1.11485
1.11475
1.11529
1.11646
1.11877
1.122
1.12406
1.12282
1.12303
1.12233
1.11982
1.11704
1.11455
1.11293
1.11136
1.10875
1.10388
1.09614
1.08759
1.07965
1.0741
1.07451
1.0809
1.08571
1.0866
1.08629
1.08574
1.08569
1.08687
1.0853
1.08161
1.08095
1.08248
1.08036
1.07583
1.07481
1.07277
1.06768
1.06564
1.06738
1.06947
1.06673
1.06514
1.06808
1.05515
1.03704
1.03408
1.03932
1.04229
1.03804
1.04059
1.05045
1.03963
1.0177
1.02481
1.04837
1.06304
1.06422
1.0598
1.05677
1.04815
1.04534
1.0499
1.05561
1.06734
1.04691
1.05841
1.0632
1.06482
1.06729
1.08278
1.07838
1.08947
1.09316
1.08734
1.07611
1.06822
1.06368
1.0628
1.06661
1.07667
1.08071
1.08946
1.08418
1.09257
1.09911
1.10703
1.11771
1.12578
1.12681
1.14285
1.1523
1.15687
1.18612
1.18233
1.2062
1.22137
1.21981
1.19469
1.18197
1.13649
1.11981
1.16376
1.14193
1.15668
1.15094
1.15058
1.15881
1.16775
1.20485
1.24202
1.26761
1.27881
1.25308
1.22727
1.2613
1.35741
1.3807
1.42918
1.37272
1.2513
1.16821
1.15585
1.1428
1.13187
1.09606
1.12933
1.22014
1.22999
1.15822
1.18599
1.20906
1.22159
1.22616
1.22882
1.23122
1.23262
1.23371
1.23757
1.24251
1.24232
1.23863
1.23689
1.23195
1.22167
1.21388
1.21783
1.22084
1.21396
1.21375
1.20827
1.19788
1.19082
1.18337
1.17729
1.17223
1.16758
1.16402
1.16187
1.15954
1.15731
1.15451
1.15177
1.14922
1.1461
1.14334
1.14101
1.13857
1.13657
1.13492
1.13313
1.13162
1.13053
1.12868
1.12616
1.12339
1.12023
1.11695
1.11398
1.11164
1.10914
1.10617
1.10397
1.10203
1.10119
1.10199
1.10434
1.10685
1.10895
1.10936
1.10868
1.10594
1.10581
1.10815
1.10963
1.10555
1.09458
1.08021
1.06838
1.06258
1.06256
1.06768
1.07626
1.08301
1.08464
1.08455
1.08626
1.08715
1.08545
1.08177
1.07901
1.07796
1.07617
1.07539
1.07367
1.06847
1.06907
1.06958
1.06466
1.0654
1.06786
1.0694
1.07518
1.07129
1.05353
1.04187
1.03729
1.03523
1.03368
1.02435
1.02251
1.02735
1.01559
1.00353
1.00721
1.0148
1.02034
1.01739
1.01607
1.02037
1.03064
1.05185
1.06644
1.04734
1.03602
1.05422
1.06047
1.04951
1.07705
1.07151
1.08591
1.08629
1.08592
1.09553
1.08855
1.09113
1.08912
1.08998
1.08936
1.07605
1.07228
1.07696
1.08217
1.08364
1.08456
1.08854
1.10845
1.10426
1.11826
1.13461
1.12847
1.16237
1.14724
1.1741
1.18367
1.18881
1.21708
1.25798
1.18834
1.17076
1.1439
1.1074
1.14536
1.12752
1.19584
1.14615
1.13539
1.18689
1.19655
1.22053
1.23108
1.24212
1.2855
1.29511
1.2602
1.2963
1.37658
1.24899
1.4146
1.42064
1.28147
1.17024
1.1353
1.1198
1.12469
1.12415
1.08054
1.23757
1.26469
1.19148
1.1824
1.20145
1.2152
1.22264
1.22668
1.23047
1.23336
1.23468
1.23865
1.23357
1.22632
1.22377
1.22112
1.21821
1.22528
1.23377
1.22922
1.22262
1.2172
1.2094
1.19626
1.18409
1.17537
1.16942
1.16717
1.16543
1.166
1.16574
1.16524
1.16327
1.16208
1.16044
1.15879
1.15713
1.15554
1.15442
1.15332
1.15304
1.15263
1.1516
1.15045
1.14867
1.14744
1.14534
1.14259
1.13954
1.13632
1.13366
1.13008
1.12663
1.12296
1.11871
1.11462
1.11014
1.10598
1.10166
1.09878
1.09802
1.09834
1.09774
1.09646
1.09207
1.09067
1.09158
1.0921
1.08882
1.08108
1.07225
1.06542
1.06334
1.0641
1.06752
1.07403
1.07916
1.08548
1.09234
1.09488
1.09103
1.08707
1.08623
1.08828
1.08655
1.08176
1.07956
1.07721
1.07361
1.07424
1.07207
1.06427
1.06735
1.07139
1.07033
1.07103
1.05945
1.04375
1.04536
1.04311
1.03699
1.03693
1.03069
1.02464
1.03286
1.03841
1.03672
1.02469
1.01806
1.01824
1.01684
1.01757
1.01436
1.01959
1.03367
1.05399
1.05949
1.0578
1.04563
1.06532
1.03754
1.08152
1.06556
1.05538
1.09871
1.09665
1.09415
1.09648
1.09662
1.09445
1.10271
1.11228
1.12831
1.09642
1.07683
1.07792
1.07752
1.06928
1.06058
1.07419
1.09617
1.0921
1.12459
1.11856
1.15847
1.1447
1.15753
1.17216
1.1684
1.17323
1.25471
1.20229
1.14252
1.16815
1.1354
1.15114
1.13549
1.16665
1.12347
1.09448
1.1894
1.22545
1.23878
1.22625
1.20087
1.23601
1.29376
1.28541
1.32301
1.36706
1.12967
1.3188
1.42358
1.3055
1.18994
1.12073
1.11665
1.12526
1.1163
1.10193
1.19351
1.24871
1.1967
1.17979
1.19632
1.21099
1.22083
1.22377
1.22667
1.22879
1.2239
1.22106
1.21847
1.21466
1.21643
1.22629
1.23816
1.23527
1.22584
1.21603
1.20756
1.19901
1.19029
1.18153
1.17406
1.17017
1.16992
1.17309
1.17427
1.17683
1.17542
1.17381
1.17145
1.1696
1.16858
1.1662
1.16446
1.16213
1.15935
1.15778
1.15592
1.15458
1.15338
1.15124
1.14995
1.14867
1.14679
1.1456
1.14368
1.14155
1.13953
1.13652
1.13278
1.1297
1.12696
1.12374
1.11939
1.11552
1.11083
1.10556
1.09993
1.09543
1.0924
1.09067
1.08863
1.08656
1.08469
1.08324
1.08148
1.07851
1.07816
1.07951
1.08042
1.0743
1.06344
1.0601
1.06159
1.06432
1.07029
1.07553
1.07389
1.07448
1.08158
1.0874
1.08606
1.0863
1.0924
1.09016
1.08412
1.08072
1.07538
1.07239
1.07507
1.07568
1.07171
1.06001
1.04311
1.03682
1.04831
1.05116
1.05057
1.0551
1.04451
1.03223
1.03987
1.05122
1.05133
1.04197
1.04209
1.03823
1.03005
1.0279
1.02126
1.0125
1.01186
1.03066
1.04241
1.0333
1.03734
1.04248
1.03179
1.07478
1.06648
1.03433
1.08314
1.09673
1.0987
1.09369
1.12373
1.12813
1.12953
1.10452
1.13591
1.14132
1.10997
1.08276
1.08092
1.08874
1.073
1.05347
1.07808
1.07154
1.11568
1.09076
1.15164
1.14328
1.1295
1.17254
1.16544
1.11939
1.21401
1.24242
1.13138
1.14954
1.1768
1.15163
1.10637
1.10635
1.09461
1.05518
1.14936
1.22158
1.22306
1.21201
1.1828
1.17954
1.25485
1.28984
1.34638
1.34418
1.07375
1.1599
1.4013
1.32631
1.22138
1.16623
1.17872
1.17202
1.2023
1.11081
1.12452
1.21952
1.19495
1.17889
1.19691
1.21273
1.21929
1.21934
1.21963
1.21559
1.21033
1.21515
1.21866
1.21579
1.22072
1.22798
1.22977
1.21768
1.20806
1.20447
1.19633
1.18753
1.18091
1.17565
1.17183
1.17304
1.17643
1.17883
1.17798
1.17639
1.1737
1.17222
1.17142
1.17053
1.16763
1.1665
1.16569
1.16284
1.16133
1.15975
1.15832
1.15748
1.15615
1.15409
1.15273
1.15077
1.14857
1.14682
1.14489
1.14282
1.14102
1.13887
1.13625
1.13388
1.13149
1.12798
1.12355
1.12035
1.11721
1.11432
1.11067
1.10604
1.10015
1.09453
1.09109
1.08994
1.08949
1.08665
1.08062
1.07384
1.07259
1.07714
1.08177
1.0794
1.06874
1.05865
1.05363
1.04826
1.04788
1.05351
1.0573
1.06261
1.0725
1.07798
1.07603
1.07397
1.07889
1.08349
1.08601
1.08717
1.08211
1.07984
1.08237
1.07725
1.07168
1.06087
1.04509
1.03711
1.03593
1.03766
1.05222
1.06102
1.04311
1.03258
1.04119
1.04375
1.03463
1.02594
1.03188
1.0336
1.03199
1.03126
1.03447
1.02843
1.01646
1.02184
1.03044
1.02265
1.01575
1.02175
1.03356
1.04427
1.06641
1.06056
1.07563
1.09117
1.11135
1.05694
1.1179
1.13495
1.17188
1.11466
1.10407
1.142
1.13838
1.12062
1.09689
1.10484
1.1156
1.0737
1.08693
1.04568
1.11015
1.07244
1.1114
1.15302
1.10601
1.13171
1.19084
1.09559
1.1161
1.24363
1.1669
1.11164
1.1774
1.13442
1.07402
1.06573
1.0757
1.04385
1.10261
1.17483
1.13167
1.10848
1.15649
1.13415
1.20505
1.27695
1.35719
1.32648
1.04848
0.972532
1.36025
1.34485
1.24365
1.20776
1.27507
1.2513
1.23385
1.13358
1.09468
1.20227
1.20292
1.17928
1.2016
1.21867
1.21608
1.21054
1.21045
1.21657
1.22318
1.22403
1.22589
1.22806
1.22584
1.21966
1.21141
1.19915
1.19004
1.18822
1.18501
1.18054
1.17457
1.17202
1.17355
1.17775
1.18031
1.18118
1.17978
1.17722
1.17434
1.17375
1.17114
1.1693
1.16842
1.16849
1.16777
1.16576
1.1646
1.16234
1.16125
1.15903
1.15696
1.1546
1.15171
1.14972
1.14816
1.14634
1.14549
1.1447
1.14368
1.14296
1.14168
1.1399
1.13831
1.13549
1.13167
1.12866
1.12335
1.118
1.11395
1.11133
1.10735
1.10264
1.0968
1.09137
1.08911
1.08892
1.08559
1.07789
1.07019
1.06877
1.07179
1.0737
1.07112
1.06325
1.05546
1.04795
1.04673
1.05334
1.0636
1.07492
1.08353
1.08477
1.08372
1.08035
1.07276
1.07516
1.08715
1.09274
1.08759
1.08515
1.08856
1.08398
1.07548
1.06645
1.05493
1.04904
1.04362
1.03991
1.05593
1.06377
1.0516
1.0496
1.04893
1.03853
1.02883
1.02514
1.03108
1.03169
1.0319
1.0302
1.04528
1.05204
1.03505
1.02427
1.03506
1.0409
1.02168
1.02747
1.02876
1.03724
1.0547
1.06639
1.08901
1.0936
1.14989
1.05873
1.15008
1.13468
1.16246
1.12747
1.08163
1.14208
1.14193
1.13491
1.11097
1.0724
1.1211
1.07894
1.10863
1.04557
1.10084
1.0849
1.07888
1.14384
1.11195
1.08535
1.18376
1.11257
1.04976
1.15459
1.18805
1.10446
1.12118
1.05788
1.05429
1.06386
1.04822
1.02708
1.06686
1.10077
1.0115
0.957622
1.03983
1.0934
1.14794
1.25967
1.35591
1.31802
1.04351
0.891413
1.27097
1.34736
1.26851
1.19244
1.27788
1.29141
1.22642
1.16932
1.0977
1.19515
1.21221
1.1773
1.19813
1.21305
1.21235
1.2157
1.22496
1.23106
1.2274
1.22377
1.2304
1.23101
1.22369
1.2146
1.20493
1.19945
1.19745
1.19108
1.18373
1.18091
1.17949
1.17867
1.17699
1.17852
1.17847
1.17588
1.17383
1.17205
1.17079
1.17169
1.17195
1.16944
1.16652
1.16506
1.16377
1.16274
1.1623
1.15922
1.15597
1.15182
1.14897
1.14658
1.14382
1.14133
1.13957
1.13773
1.13634
1.13575
1.13545
1.13534
1.13524
1.13504
1.13454
1.13445
1.13359
1.1326
1.12996
1.12675
1.12229
1.11756
1.11394
1.11024
1.10551
1.09883
1.09126
1.0874
1.08869
1.08879
1.0813
1.07224
1.06984
1.07136
1.07361
1.07158
1.06464
1.05531
1.05349
1.06055
1.07189
1.08447
1.09202
1.0904
1.09013
1.09609
1.09233
1.09085
1.09723
1.09652
1.09106
1.09166
1.09311
1.09173
1.08667
1.07771
1.0688
1.06587
1.05699
1.04714
1.05655
1.06492
1.05815
1.05075
1.03656
1.03151
1.03121
1.03115
1.02699
1.01818
1.01288
1.00315
1.01429
1.03457
1.03965
1.03316
1.03965
1.03697
1.03709
1.02657
1.02673
1.04259
1.05137
1.06092
1.09245
1.07278
1.20111
1.07136
1.17546
1.15313
1.16506
1.14331
1.06974
1.13648
1.14702
1.11006
1.1265
1.05679
1.10767
1.07555
1.11407
1.0522
1.08603
1.0892
1.06664
1.13159
1.12232
1.05802
1.15557
1.13154
1.04062
1.06161
1.17647
1.16927
1.11859
1.01744
1.02063
1.07458
1.05639
1.01524
1.03266
1.06103
1.00579
0.942839
0.927329
1.03789
1.08167
1.22807
1.36061
1.33329
1.07511
0.938755
1.09263
1.3356
1.2919
1.18308
1.24478
1.27654
1.23292
1.18795
1.10299
1.17864
1.21182
1.17465
1.19399
1.20829
1.20904
1.21679
1.2274
1.2306
1.22804
1.22021
1.2211
1.22383
1.21248
1.19872
1.19259
1.18766
1.18943
1.18765
1.18369
1.18053
1.177
1.17453
1.17439
1.17573
1.17902
1.17968
1.17872
1.17653
1.17734
1.17736
1.17533
1.17264
1.16989
1.16811
1.16506
1.16007
1.15666
1.15465
1.15302
1.15076
1.14914
1.14738
1.14656
1.14592
1.14475
1.1429
1.14047
1.13811
1.13701
1.13682
1.13679
1.13589
1.13563
1.13522
1.13592
1.13479
1.13259
1.13019
1.12703
1.12244
1.11828
1.11439
1.10994
1.10535
1.10096
1.0949
1.09147
1.09429
1.09287
1.08273
1.07471
1.07598
1.07965
1.07626
1.06613
1.05492
1.05399
1.06494
1.0791
1.09058
1.09511
1.09357
1.09194
1.09811
1.09948
1.09715
1.09854
1.09534
1.09251
1.09723
1.09913
1.09519
1.0912
1.08442
1.07837
1.07723
1.07426
1.06242
1.06337
1.06695
1.05907
1.04479
1.03611
1.04543
1.04752
1.04834
1.04165
1.04062
1.04234
1.02397
1.01367
1.01662
1.03543
1.03254
1.03634
1.03997
1.03847
1.0341
1.02731
1.02643
1.05105
1.07497
1.10975
1.08188
1.21159
1.11322
1.21207
1.13509
1.17655
1.14379
1.07293
1.09723
1.15964
1.10255
1.12874
1.06927
1.10266
1.08168
1.12147
1.06766
1.07881
1.08893
1.05974
1.11238
1.1448
1.04691
1.10152
1.14199
1.05519
1.01187
1.12193
1.18921
1.17851
1.07606
1.03992
1.07498
1.10163
1.05562
0.996999
1.02307
1.04144
1.03181
0.932307
0.985812
1.04581
1.16913
1.34553
1.36042
1.11562
1.00661
0.918526
1.30253
1.3113
1.18763
1.27152
1.30146
1.23022
1.18093
1.10424
1.15725
1.21336
1.17214
1.19111
1.20526
1.20536
1.21437
1.22629
1.22535
1.22048
1.22281
1.21469
1.20952
1.20328
1.19255
1.18789
1.18815
1.18744
1.18514
1.18109
1.17539
1.17146
1.17021
1.17245
1.17595
1.18079
1.18166
1.18296
1.18141
1.17923
1.17743
1.17268
1.16806
1.16635
1.16706
1.16885
1.16748
1.16227
1.15739
1.1555
1.1545
1.15285
1.15124
1.1504
1.14969
1.14861
1.1476
1.14499
1.14087
1.13797
1.13693
1.13754
1.13678
1.13564
1.13453
1.13604
1.13868
1.13987
1.13884
1.13524
1.13132
1.12562
1.12046
1.11702
1.11139
1.10623
1.10375
1.0953
1.08945
1.08749
1.0809
1.07331
1.07505
1.07974
1.0783
1.06661
1.05709
1.06132
1.07889
1.09648
1.10803
1.10962
1.10692
1.10273
1.10242
1.10213
1.09877
1.09665
1.09549
1.09595
1.10264
1.10895
1.10154
1.08984
1.08124
1.07648
1.07834
1.07576
1.07007
1.07284
1.07348
1.06047
1.04449
1.04642
1.05189
1.04522
1.03799
1.02578
1.03067
1.04984
1.04414
1.02754
1.01316
1.02194
1.02657
1.03175
1.04159
1.04527
1.04467
1.02943
1.03251
1.03213
1.05994
1.09795
1.10757
1.18737
1.09843
1.20923
1.0986
1.15008
1.09336
1.07045
1.08786
1.16424
1.09663
1.09929
1.0785
1.10255
1.08212
1.12021
1.08147
1.06644
1.08548
1.05374
1.06812
1.15681
1.05994
1.03877
1.12588
1.06844
1.01689
1.06655
1.05522
1.15429
1.10608
1.05429
1.06204
1.10787
1.09892
1.00776
1.00332
1.00659
1.04143
0.942734
0.913123
1.03011
1.10341
1.31324
1.38489
1.16066
1.07259
0.872402
1.2307
1.29623
1.18608
1.31161
1.36524
1.20079
1.16986
1.1092
1.14888
1.21717
1.16816
1.18408
1.20035
1.20297
1.2097
1.22103
1.22415
1.21286
1.21121
1.20691
1.20162
1.19343
1.18729
1.18308
1.18308
1.18085
1.181
1.1831
1.18344
1.17923
1.17449
1.17607
1.1766
1.17874
1.17838
1.1761
1.17387
1.17116
1.16942
1.16841
1.1673
1.1649
1.1644
1.16815
1.16928
1.16241
1.15424
1.15098
1.15096
1.15076
1.1509
1.15076
1.15016
1.14961
1.15023
1.15009
1.14737
1.14413
1.14201
1.14115
1.14199
1.13918
1.13605
1.13279
1.13327
1.13649
1.13985
1.14089
1.1392
1.13597
1.12993
1.1232
1.12071
1.11163
1.10782
1.10758
1.10057
1.09581
1.09052
1.08283
1.08053
1.08406
1.08313
1.06969
1.06319
1.07107
1.09061
1.10624
1.11529
1.11476
1.11187
1.10792
1.10706
1.10903
1.10819
1.10318
1.10064
1.1017
1.10758
1.11274
1.10799
1.09683
1.08547
1.08227
1.08525
1.08611
1.0832
1.08171
1.07567
1.06062
1.05232
1.05686
1.05106
1.04802
1.04284
1.02581
1.01835
1.0329
1.04848
1.04975
1.03304
1.02454
1.02901
1.0287
1.03889
1.05527
1.05392
1.0321
1.03246
1.04523
1.07198
1.1076
1.12285
1.18337
1.10932
1.19871
1.08401
1.12592
1.06034
1.04473
1.10496
1.13826
1.06916
1.05723
1.06458
1.09472
1.08291
1.11196
1.10021
1.05878
1.08631
1.06148
1.02484
1.1423
1.08962
1.00923
1.09787
1.06898
1.03304
1.05137
0.96622
1.06615
1.07597
1.02042
1.01264
1.06485
1.10742
1.03033
1.01763
0.977106
1.01315
0.95847
0.872275
1.00181
1.03906
1.26604
1.41052
1.22074
1.14027
0.921129
1.16002
1.25833
1.2174
1.33563
1.37282
1.20342
1.18881
1.11712
1.16589
1.24653
1.16485
1.17903
1.19465
1.19863
1.20758
1.21685
1.21639
1.20776
1.20555
1.19589
1.18904
1.18713
1.18459
1.18501
1.18634
1.17939
1.17248
1.16992
1.16881
1.17079
1.1678
1.16913
1.17084
1.17037
1.1705
1.16926
1.16917
1.17
1.17119
1.17041
1.16979
1.16897
1.16799
1.1699
1.16979
1.16274
1.15461
1.15075
1.15109
1.15208
1.15296
1.15268
1.15095
1.14876
1.14827
1.14906
1.14848
1.14564
1.14501
1.14356
1.14637
1.14593
1.14469
1.14369
1.14204
1.14176
1.14237
1.14291
1.14204
1.13885
1.13843
1.13073
1.12462
1.12045
1.10851
1.10726
1.10556
1.10227
1.10015
1.09418
1.08657
1.08759
1.08803
1.07703
1.06677
1.06949
1.08819
1.10803
1.12051
1.1217
1.11843
1.11287
1.11269
1.11746
1.11944
1.11257
1.10724
1.10961
1.11393
1.11242
1.10536
1.09584
1.08879
1.08969
1.09192
1.09079
1.09136
1.09074
1.07925
1.06506
1.0616
1.06191
1.06021
1.07655
1.07988
1.0681
1.0534
1.04025
1.03958
1.05325
1.05486
1.04369
1.03172
1.02847
1.03032
1.04339
1.06
1.04796
1.02047
1.03932
1.07636
1.12115
1.13995
1.1543
1.11337
1.14388
1.06508
1.10455
1.06551
1.03703
1.10391
1.081
1.06087
1.0642
1.06171
1.07561
1.07343
1.08655
1.10712
1.05386
1.08278
1.07851
1.0045
1.10612
1.11359
1.00985
1.07294
1.06308
1.04034
1.05017
0.966929
1.01
1.04197
0.984359
0.970933
1.02361
1.10568
1.04486
1.02964
0.961536
0.953963
0.987875
0.890203
0.971443
0.998295
1.19256
1.40736
1.27582
1.20638
0.990728
1.09663
1.23355
1.27124
1.36445
1.33967
1.22699
1.19518
1.12252
1.18593
1.27199
1.16153
1.17445
1.19026
1.19147
1.19696
1.21683
1.21911
1.20035
1.19641
1.19361
1.18195
1.17632
1.17464
1.17394
1.17635
1.17894
1.18018
1.17911
1.17289
1.17037
1.16848
1.16717
1.16956
1.16998
1.17124
1.17232
1.17496
1.17711
1.17927
1.17918
1.17445
1.16987
1.16807
1.16826
1.16673
1.16177
1.15658
1.15319
1.15252
1.15239
1.1525
1.15235
1.15145
1.15021
1.15
1.15048
1.15114
1.14849
1.14754
1.1455
1.14379
1.14326
1.1393
1.13805
1.14248
1.14695
1.14934
1.14724
1.14392
1.14025
1.13632
1.13842
1.13125
1.13041
1.12426
1.11507
1.10881
1.09928
1.09536
1.09466
1.08962
1.08952
1.09136
1.0826
1.0701
1.07574
1.09762
1.12143
1.13258
1.13262
1.1275
1.12059
1.11908
1.12378
1.12457
1.11976
1.11552
1.11667
1.11989
1.11691
1.10277
1.09107
1.09151
1.09444
1.09593
1.09456
1.09265
1.08512
1.07769
1.07095
1.0695
1.06429
1.0685
1.09265
1.08954
1.08453
1.0908
1.08052
1.05614
1.04987
1.06021
1.06685
1.04511
1.03779
1.03666
1.0466
1.06051
1.05179
1.04114
1.0393
1.07645
1.1225
1.14949
1.14594
1.13116
1.10612
1.07152
1.08122
1.07023
1.03109
1.09448
1.04551
1.05621
1.07274
1.06325
1.06976
1.07484
1.06806
1.1129
1.05519
1.07298
1.09582
1.00092
1.06985
1.1223
1.02
1.06917
1.04823
1.03975
1.05735
0.974973
0.993945
1.0226
0.961051
0.97194
1.0375
1.11944
1.05868
1.01429
0.969825
0.902422
0.998633
0.932254
0.92511
0.987324
1.12005
1.3698
1.30551
1.25553
1.05437
1.02563
1.23638
1.30529
1.36064
1.34724
1.23423
1.17645
1.12492
1.19392
1.28445
1.15778
1.16904
1.18665
1.19096
1.18642
1.20035
1.2208
1.21045
1.19087
1.18584
1.18113
1.17715
1.17551
1.17435
1.17112
1.16569
1.1669
1.17155
1.17382
1.17408
1.17488
1.17434
1.17615
1.1746
1.1735
1.17296
1.17293
1.17495
1.17771
1.17943
1.17823
1.17367
1.16782
1.16406
1.16259
1.16023
1.15739
1.15572
1.15627
1.15576
1.15441
1.15388
1.15323
1.15184
1.15183
1.15294
1.15502
1.15526
1.15232
1.15563
1.15752
1.15647
1.15052
1.14209
1.13818
1.14215
1.1467
1.15185
1.14624
1.1435
1.13759
1.13347
1.13297
1.128
1.12608
1.12197
1.11986
1.11264
1.10455
1.10155
1.09641
1.09044
1.09264
1.09104
1.08163
1.08317
1.09955
1.12348
1.13634
1.13899
1.13415
1.12989
1.12584
1.12998
1.12697
1.12336
1.12504
1.12603
1.1279
1.12211
1.1062
1.09731
1.09789
1.10209
1.10228
1.10072
1.09662
1.09173
1.0806
1.0784
1.07779
1.06918
1.0727
1.08958
1.07609
1.06886
1.08875
1.10696
1.08865
1.06176
1.0582
1.07291
1.07632
1.05785
1.03931
1.04324
1.06757
1.06571
1.03844
1.04178
1.07971
1.12403
1.15251
1.14967
1.12813
1.10553
1.0927
1.07539
1.08107
1.03875
1.08922
1.05093
1.05532
1.06501
1.05586
1.06229
1.06815
1.04933
1.12213
1.06039
1.06441
1.11116
1.00279
1.04934
1.11866
1.02763
1.0711
1.02839
1.04164
1.05189
0.978177
1.01587
0.997318
0.931852
0.992565
1.07989
1.13203
1.06
0.984286
0.980646
0.892637
0.960904
0.983152
0.891451
0.971276
1.0465
1.30218
1.3069
1.29517
1.10685
0.960771
1.23541
1.3032
1.33067
1.35625
1.2469
1.19273
1.14309
1.2129
1.30638
1.15351
1.16214
1.18054
1.19245
1.1851
1.18093
1.19828
1.21498
1.20415
1.18961
1.17687
1.17074
1.16948
1.17122
1.17441
1.17168
1.16675
1.16506
1.16509
1.16512
1.16662
1.1672
1.16867
1.169
1.16954
1.16836
1.16697
1.16744
1.16882
1.17131
1.17446
1.17444
1.17194
1.16895
1.16629
1.16311
1.16271
1.1625
1.15978
1.15883
1.15876
1.15575
1.15384
1.15255
1.15179
1.15223
1.15224
1.15318
1.14706
1.14591
1.15053
1.15354
1.152
1.14705
1.14115
1.14055
1.14166
1.14315
1.14603
1.13955
1.14186
1.13794
1.13644
1.13478
1.12923
1.1204
1.11685
1.11811
1.11395
1.10875
1.10544
1.09711
1.0974
1.10026
1.08898
1.07991
1.09466
1.12523
1.14435
1.14739
1.14256
1.13978
1.13566
1.13604
1.13403
1.12917
1.13143
1.13471
1.13458
1.12563
1.11244
1.10507
1.10885
1.11583
1.11477
1.10762
1.10034
1.08958
1.08899
1.08258
1.08055
1.07822
1.07639
1.08635
1.08096
1.07401
1.088
1.10458
1.12036
1.10218
1.07094
1.07997
1.0859
1.07124
1.05149
1.04407
1.05907
1.0792
1.05333
1.04166
1.07299
1.12793
1.15861
1.1547
1.13003
1.11866
1.09871
1.08077
1.07422
1.05393
1.07127
1.04888
1.04572
1.05526
1.05831
1.06185
1.06916
1.03115
1.1291
1.06979
1.06053
1.1204
1.00848
1.04373
1.09947
1.02645
1.06172
1.02049
1.04776
1.02917
0.985711
1.03465
0.970163
0.912345
1.00524
1.09566
1.12452
1.03542
0.968584
0.969733
0.911983
0.907177
1.02081
0.884233
0.9543
1.00766
1.211
1.29356
1.32025
1.14108
0.940699
1.22483
1.28473
1.30568
1.35998
1.26294
1.20283
1.15434
1.23635
1.28485
1.14883
1.1538
1.16886
1.19084
1.19549
1.18472
1.18027
1.19479
1.205
1.2028
1.19135
1.17907
1.16988
1.16541
1.16559
1.16821
1.1685
1.16755
1.16691
1.16548
1.16489
1.16459
1.16345
1.16296
1.16224
1.16092
1.16016
1.15942
1.16074
1.16252
1.16522
1.16752
1.16741
1.16638
1.16617
1.16479
1.16321
1.16223
1.16103
1.15908
1.15975
1.15872
1.15512
1.15372
1.15661
1.15866
1.1557
1.15741
1.15687
1.15292
1.1508
1.14701
1.1444
1.14347
1.14466
1.1403
1.14231
1.13874
1.13886
1.13844
1.13479
1.13786
1.13548
1.13396
1.13261
1.13038
1.12492
1.12012
1.11651
1.11078
1.11076
1.10606
1.09709
1.10387
1.10194
1.08575
1.08942
1.11965
1.14791
1.15313
1.15267
1.1488
1.14866
1.14381
1.1431
1.1418
1.14134
1.1404
1.13899
1.13239
1.11635
1.10678
1.11253
1.12086
1.12592
1.11874
1.10455
1.0931
1.08676
1.08922
1.08678
1.08671
1.09088
1.08398
1.09542
1.09883
1.10838
1.10244
1.11113
1.13168
1.09826
1.07925
1.08558
1.08977
1.06854
1.05646
1.07161
1.08402
1.06542
1.04509
1.07356
1.12993
1.16797
1.15673
1.14315
1.13548
1.1181
1.1041
1.07442
1.06716
1.07512
1.05483
1.04704
1.06621
1.07835
1.0727
1.09245
1.01148
1.12164
1.07821
1.05697
1.1198
1.01963
1.04262
1.07373
1.02341
1.04435
1.02484
1.04812
1.00506
0.98928
1.03182
0.967127
0.917502
0.998885
1.07072
1.08961
1.00132
0.962299
0.956622
0.925022
0.876727
1.04583
0.923371
0.94946
1.00372
1.11137
1.23349
1.3077
1.15898
0.953917
1.20771
1.26871
1.29501
1.38208
1.26557
1.20155
1.15225
1.24055
1.241
1.14535
1.14889
1.15426
1.17637
1.18941
1.18634
1.1757
1.17444
1.18528
1.19336
1.19616
1.19146
1.18199
1.17387
1.1671
1.16407
1.16353
1.16361
1.16458
1.16465
1.16536
1.16653
1.16628
1.16616
1.16524
1.16452
1.16406
1.16267
1.16193
1.1628
1.16309
1.16318
1.16428
1.16393
1.16396
1.16375
1.16299
1.16207
1.16246
1.16063
1.16033
1.16078
1.1579
1.15591
1.15742
1.16213
1.15956
1.1552
1.15327
1.15493
1.15478
1.1508
1.14728
1.14255
1.14083
1.14237
1.13965
1.14431
1.13886
1.14143
1.1417
1.14283
1.14573
1.1428
1.1375
1.12963
1.12825
1.12287
1.12087
1.11796
1.11191
1.1162
1.10623
1.10375
1.11202
1.0992
1.09372
1.11826
1.15149
1.15973
1.16099
1.1573