/*--------------------------------*- C++ -*----------------------------------*\
| =========                 |                                                 |
| \\      /  F ield         | OpenFOAM: The Open Source CFD Toolbox           |
|  \\    /   O peration     | Version:  dev                                   |
|   \\  /    A nd           | Web:      http://www.openfoam.org               |
|    \\/     M anipulation  |                                                 |
\*---------------------------------------------------------------------------*/
FoamFile
{
    version     2.0;
    format      ascii;
    class       volScalarField;
    object      T;
    location    "9.155";
}
// * * * * * * * * * * * * * * * * * * * * * * * * * * * * * * * * * * * * * //

dimensions      [0 0 0 1 0 0 0];

internalField   nonuniform List<scalar> 
12225
(
295.484
294.804
294.957
295.196
295.243
295.518
295.63
295.873
296.098
296.304
296.623
296.861
297.048
297.846
297.096
299.88
296.404
298.424
294.711
294.1
294.439
294.568
294.822
294.731
295.226
294.924
295.668
295.223
296.089
295.897
296.161
297.421
295.021
300.211
296.052
298.239
294.735
294.156
294.532
294.452
294.881
294.559
295.219
294.808
295.484
295.169
295.836
295.531
296.45
295.89
296.782
295.729
296.506
296.875
294.799
294.157
294.557
294.485
294.73
294.791
294.848
295.267
295.112
295.667
295.458
296.186
296.018
296.598
297.281
296.018
297.776
298.336
294.758
294.223
294.417
294.623
294.624
294.94
294.877
295.289
295.399
295.524
295.729
296.003
296.243
296.534
296.63
297.471
297.651
298.452
294.647
294.371
294.368
294.762
294.607
295.004
294.916
295.443
295.34
295.613
295.693
296.244
296.187
296.727
296.147
297.752
297.012
296.649
294.561
294.394
294.406
294.738
294.691
294.92
295.052
295.361
295.391
295.562
295.779
296.073
296.207
296.298
296.476
296.753
296.791
297.169
294.437
294.497
294.358
294.836
294.64
294.971
294.955
295.371
295.364
295.732
295.737
296.128
296.089
296.429
296.6
296.926
297.084
297.414
294.507
294.548
294.372
294.861
294.659
295.002
295.007
295.331
295.425
295.641
295.735
295.916
296.065
296.282
296.587
296.851
297.099
297.244
294.501
294.599
294.406
294.872
294.636
295.002
294.939
295.334
295.321
295.642
295.572
295.878
296.027
296.324
296.547
296.876
297.12
297.355
294.637
294.56
294.456
294.833
294.687
294.989
294.993
295.31
295.32
295.578
295.57
295.841
296.12
296.441
296.721
296.975
297.158
297.362
294.797
294.544
294.555
294.815
294.8
295.007
295.131
295.373
295.496
295.717
295.83
296.026
296.279
296.571
296.838
297.026
297.261
297.469
294.909
294.55
294.695
294.879
294.978
295.1
295.271
295.427
295.623
295.782
296.015
296.205
296.454
296.687
296.956
297.17
297.392
297.603
295.101
294.657
294.839
294.932
295.049
295.188
295.35
295.502
295.722
295.85
296.145
296.35
296.628
296.871
297.153
297.374
297.554
297.743
295.223
294.722
294.97
295.108
295.227
295.379
295.53
295.688
295.909
296.07
296.342
296.563
296.856
297.089
297.367
297.599
297.821
298.046
295.414
294.882
295.085
295.206
295.346
295.53
295.683
295.869
296.065
296.271
296.527
296.779
297.083
297.327
297.598
297.845
298.061
298.279
295.581
295.12
295.369
295.442
295.55
295.698
295.84
296.057
296.248
296.494
296.744
297.009
297.288
297.562
297.825
298.089
298.344
298.574
295.76
295.335
295.574
295.645
295.755
295.898
296.074
296.279
296.488
296.688
296.919
297.179
297.402
297.685
297.927
298.202
298.434
298.667
295.987
295.577
295.744
295.842
295.923
296.077
296.261
296.408
296.645
296.785
297.004
297.238
297.445
297.714
297.92
298.191
298.389
298.606
296.157
295.74
295.859
296.003
296.014
296.185
296.396
296.513
296.74
296.842
296.996
297.215
297.374
297.661
297.848
298.093
298.292
298.456
296.322
295.835
295.959
296.167
296.126
296.233
296.458
296.532
296.755
296.897
296.978
297.257
297.329
297.628
297.766
297.962
298.139
298.209
296.423
295.969
296.034
296.243
296.266
296.345
296.547
296.593
296.78
296.942
297.012
297.26
297.308
297.533
297.626
297.78
297.926
297.994
296.527
296.106
296.258
296.341
296.337
296.443
296.554
296.629
296.793
296.904
297.048
297.199
297.297
297.45
297.526
297.667
297.746
297.861
296.508
296.1
296.332
296.354
296.382
296.495
296.569
296.685
296.814
296.888
297.049
297.139
297.29
297.41
297.518
297.648
297.702
297.817
296.606
296.215
296.359
296.386
296.45
296.523
296.623
296.729
296.83
296.945
297.055
297.169
297.29
297.39
297.503
297.59
297.675
297.744
296.626
296.207
296.387
296.451
296.497
296.561
296.654
296.731
296.838
296.941
297.045
297.171
297.263
297.38
297.465
297.559
297.632
297.695
296.663
296.265
296.422
296.45
296.49
296.56
296.635
296.723
296.815
296.924
297.036
297.146
297.243
297.325
297.395
297.447
297.492
297.527
296.686
296.254
296.413
296.455
296.505
296.58
296.646
296.72
296.794
296.885
296.972
297.058
297.116
297.166
297.195
297.228
297.249
297.284
296.73
296.199
296.387
296.468
296.535
296.606
296.672
296.748
296.818
296.894
296.955
297.017
297.072
297.151
297.23
297.336
297.43
297.565
297
296.463
296.63
296.74
296.837
296.934
297.039
297.155
297.275
297.405
297.535
297.672
297.813
297.959
298.104
298.249
298.396
298.545
299.613
293.99
292.612
292.606
292.836
293.12
293.417
293.693
293.958
294.251
294.599
294.993
295.394
295.698
295.959
296.404
297.071
297.663
297.981
298.144
298.409
298.948
299.482
299.832
300.341
301.082
301.739
301.932
301.438
300.551
299.879
299.625
299.58
299.544
299.465
299.358
299.222
299.057
298.881
298.702
298.528
298.359
298.155
297.892
297.568
297.2
296.822
296.481
296.2
295.991
295.845
295.736
295.617
295.468
295.311
295.198
295.092
294.863
294.535
294.176
293.737
293.246
292.745
292.252
291.761
291.277
290.811
290.349
289.916
289.505
289.112
288.746
288.467
288.208
287.867
287.46
286.843
285.992
285.512
285.795
286.11
285.644
284.705
283.861
283.054
282.173
281.294
280.321
279.439
278.862
278.63
278.358
277.889
277.165
277.459
280.229
282.206
281.233
281.042
282.663
283.006
279.872
278.978
279.578
277.991
276.71
276.273
275.741
275.708
276.593
277.988
279.206
279.367
277.825
278.387
279.586
278.844
279.017
279.234
279.657
279.382
279.401
279.528
279.963
280.103
280.058
279.837
279.606
279.442
279.525
279.849
280.408
280.968
281.515
281.183
280.805
280.093
279.474
278.51
277.836
276.815
276.262
275.221
274.64
273.589
272.408
271.465
270.045
269.601
270.635
271.722
273.002
271.376
267.995
263.112
261.419
263.111
263.867
261.631
258.306
256.294
256.393
257.331
257.581
256.463
253.377
246.959
239.923
244.881
245.283
247.752
253.428
254.035
247.907
241.759
240.478
243.421
250.558
256.109
258.8
299.366
292.051
290.147
290.186
290.334
290.454
290.606
290.582
290.454
290.395
290.444
290.688
291.404
291.943
291.485
290.967
291.677
293.014
293.922
294.012
293.721
294.751
296.831
297.419
296.975
296.463
295.867
295.421
295.326
295.405
295.668
295.816
295.874
295.919
295.866
295.853
295.72
295.665
295.651
295.665
295.803
295.845
295.852
295.723
295.422
294.989
294.499
294.087
293.815
293.676
293.511
293.189
292.753
292.185
291.541
290.997
290.728
290.779
290.45
290.133
289.784
289.26
288.672
287.968
287.209
286.556
286.137
285.906
285.83
285.907
285.927
285.399
284.372
283.613
283.223
283.023
282.634
281.685
280.316
279.671
280.085
280.261
279.39
278.403
277.991
278.064
278.309
277.659
275.967
274.69
274.77
275.004
273.802
271.316
270.653
272.903
277.296
278.051
276.285
277.54
279.541
277.857
273.723
273.229
275.276
273.894
270.952
269.578
270.778
274.119
278.806
282.335
281.818
276.092
271.499
282.499
277.249
276.808
279.035
278.664
276.62
276.279
275.045
276.55
277.762
279.317
279.776
279.227
277.484
276.153
274.966
274.156
272.069
271.723
272.348
272.172
270.678
270.43
268.948
267.365
264.323
262.381
259.567
257.82
256.937
253.636
252.312
250.532
250.25
251.98
253.623
261.726
257.686
251.222
249.138
243.931
245.729
247.25
244.243
236.413
229.478
227.13
228.814
232.472
233.667
227.452
212.516
198.934
204.89
210.577
221.902
231.741
231.816
226.635
221.274
233.607
222.202
221.182
225.94
235.863
300.71
294.08
291.296
290.672
290.487
290.275
290.194
289.949
289.302
288.726
288.158
286.806
285.654
286.188
288.542
290.146
290.949
291.606
291.278
291.746
293.368
293.624
294.175
294.792
295.564
296.149
296.641
297.548
297.913
298.424
298.592
298.678
298.892
298.972
299.271
299.357
299.59
299.725
299.938
300.13
300.194
300.409
300.395
300.404
300.362
300.2
300.084
300.005
299.947
299.725
299.252
298.469
297.504
296.366
294.922
293.235
291.851
291.319
290.401
289.711
289.477
289.304
289.044
288.546
288.022
287.754
288.063
289.119
290.399
291.526
292.008
290.856
288.086
285.764
284.461
283.465
282.524
281.456
280.073
279.408
279.302
278.431
277.024
276.582
276.788
276.131
275.79
276.282
276.044
274.9
273.729
273.845
273.74
272.553
275.518
280.01
280.558
278.944
277.99
279.019
278.282
275.664
278.574
284.657
282.797
276.594
272.961
272.866
274.228
275.25
277.765
278.774
277.83
276.61
273.849
279.472
276.72
275.761
275.633
275.3
271.656
273.055
270.588
269.993
271.771
274.939
277.311
278.839
279.411
278.752
276.462
275.723
273.785
275.38
273.504
272.084
270.314
267.858
266.008
265.767
261.957
259.636
258.329
251.563
251.845
246.217
242.397
241.821
245.865
247.328
255.964
258.405
247.304
250.59
246.019
245.932
244.765
241.856
238.943
230.65
222.924
217.685
215.063
218.693
222.428
215.497
199.262
194.936
187.277
193.725
211.28
225.065
226.298
227.711
228.864
235.467
227.793
210.249
208.196
220.958
301.513
295.746
292.689
291.559
290.877
290.245
289.839
289.493
288.484
287.218
287.128
287.834
288.075
289.049
291.286
292.942
291.764
290.802
292.186
291.956
292.981
295.201
296.612
298.117
299.276
300.165
300.936
301.415
301.508
301.63
301.71
301.917
302.092
302.2
302.442
302.572
302.571
302.586
302.466
302.24
302.036
301.744
301.329
301.103
301.044
301.045
301.141
301.261
301.29
301.139
301.023
301.028
300.814
300.524
299.924
298.867
297.388
295.863
294.443
293.465
292.766
292.604
291.739
290.212
288.902
289.029
290.968
293.859
296.114
296.718
295.706
293.257
289.877
287.02
285.544
284.496
282.972
281.667
281.041
280.931
280.594
279.829
279.282
278.499
277.992
278.428
277.411
276.464
276.984
276.106
274.838
273.853
271.875
272.436
276.643
279.404
280.366
280.713
280.966
283.409
283.857
282.507
285.817
289.334
288.396
286.391
285.022
286.061
286.661
285.692
283.095
277.637
274.1
279.378
282.709
278.088
276.709
279.88
272.997
274.707
271.336
271.509
271.899
269.82
271.88
271.542
272.361
272.468
272.95
276.646
277.918
276.983
275.908
275.779
275.764
274.951
270.166
271.304
267.963
264.082
265.423
257.497
260.593
254.222
251.63
249.875
243.299
234.517
247.2
249.727
254.313
261.291
251.224
253.73
237.891
246.88
247.966
236.067
233.112
227.606
224.808
222.034
213.827
211.495
216.53
209.588
196.41
215.421
189.214
187.234
206.358
224.774
230.496
232.497
230.453
229.716
238.28
207.505
202.74
215.067
302.184
297.38
293.991
292.165
291.153
290.192
289.436
289.037
288.009
289.078
290.655
291.114
291.586
292.106
290.23
288.027
288.869
290.189
291.224
292.828
295.749
298.473
300.351
301.526
301.734
301.786
301.227
300.865
300.544
300.583
300.4
300.319
300.22
300.107
299.961
299.673
299.363
298.827
298.308
297.936
297.583
297.379
297.02
296.876
296.891
296.975
297.094
297.057
297.254
297.41
297.619
297.974
298.28
298.687
299.002
299.356
299.313
298.683
297.747
297.051
296.528
296.84
296.327
295.174
294.112
294.064
295.216
296.676
297.59
297.17
295.96
294.005
291.196
288.779
286.066
283.221
281.511
281.451
281.418
280.584
279.015
278.438
278.671
278.267
277.934
277.968
276.954
276.715
277.999
276.521
274.865
274.528
273.853
276.407
280.165
279.381
279.693
281.113
280.957
282.542
284.14
281.854
280.382
280.915
284.327
286.324
286.449
287.048
287.059
288.197
286.969
283.311
278.101
276.928
277.639
281.12
276.172
283.822
272.522
276.855
279.821
269.025
269.815
270.712
270.461
270.717
271.54
269.797
267.776
264.272
272.231
277.422
277.372
277.695
280.033
282.505
279.064
273.554
274.609
266.633
267.953
258.515
261.303
257.972
254.194
254.317
252.457
235.174
244.371
255.942
249.064
254.826
249.9
251.874
243.776
251.781
257.146
235.478
227.502
224.125
225.559
229.511
222.246
211.583
212.166
205.243
197.662
238.08
202.975
186.9
202.635
221.164
233.636
233.314
230.527
231.508
233.901
215.533
205.677
214.503
302.542
298.348
294.709
292.298
291.548
290.796
290.22
291.291
291.87
292.374
293.163
292.596
290.089
287.141
287.625
289.635
291.753
293.563
295.405
297.298
299.215
300.812
301.487
301.21
300.036
299.357
298.311
298.252
298.228
298.378
298.382
298.155
298.257
298.181
298.24
298.398
298.23
298.123
297.867
297.56
297.487
297.181
296.862
296.687
296.324
296.141
295.999
295.823
295.891
296.142
296.213
296.188
296.279
296.662
296.913
297.377
297.991
298.703
299.102
299.093
298.717
298.414
298.106
297.73
297.224
296.791
296.676
295.833
294.505
293.288
293.978
295.982
295.902
294.463
292.676
290.002
287.537
286.922
285.71
282.789
280.249
279.588
278.542
276.037
275.687
276.342
276.38
276.968
277.012
275.657
274.887
275.326
277.847
281.889
283.189
279.722
278.658
278.57
277.197
279.89
283.144
281.037
278.034
278.077
280.673
280.77
281.969
284.399
285.197
287.262
289.986
290.416
285.363
282.397
285.128
284.271
283.138
286.293
275.07
277.445
286.344
273.648
270.528
270.284
271.83
264.832
264.045
263.966
270.226
263.045
262.052
269.628
276.601
277.262
275.437
279.611
284.908
278.461
280.168
269.014
275.013
260.242
261.795
264.52
254.232
255.06
264.689
243.129
236.517
258.499
253.146
245.816
249.715
258.415
256.994
258.337
266.615
243.57
228.085
226.821
228.019
232.842
232.697
217.989
211.304
201.55
200.912
250.371
230.806
189.923
199.564
215.619
224.675
221.172
221.438
215.163
232.34
229.168
211.009
215.288
302.388
297.823
293.914
292.297
292.238
292.107
293.008
294.198
292.934
291.981
292.548
291.23
289.357
288.771
291.458
293.581
294.246
296.018
297.967
299.378
300.44
301.128
300.507
299.315
298.361
298.214
298.235
298.521
298.48
298.252
298.03
298.3
298.106
297.813
298.025
297.881
297.739
297.546
297.185
296.942
296.874
296.617
296.503
296.442
296.255
296.107
295.983
295.778
295.657
295.645
295.558
295.467
295.661
296.088
296.184
296.258
296.257
296.446
296.892
297.674
298.38
298.485
297.954
297.217
297.116
297.88
298.856
298.289
296.096
293.884
293.569
295.519
297.34
297.75
298.253
297.323
294.69
292.582
290.071
286.364
283.889
283.404
282.971
280.742
278.645
277.134
276.022
276.546
276.413
275.108
275.803
276.665
278.961
282.705
284.46
284.413
283.623
279.446
276.951
281.582
284.374
281.994
281.328
283.868
286.358
284.826
284.496
285.108
285.496
284.794
286.674
290.28
288.983
286.815
289.233
291.426
289.94
286.858
284.149
278.455
280.23
276.479
272.795
268.029
282.103
266.965
263.197
255.117
268.457
271.284
262.475
263.461
267.803
273.754
271.917
269.379
279.959
276.57
287.456
270.663
279.994
269.913
259.79
270.324
263.567
249.741
270.542
264.563
236.36
250.668
261.785
245.717
253.458
266.136
266.739
262.793
269.379
253.771
237.053
244.963
249.095
237.919
241.781
226.826
213.297
199.815
203.486
256.311
275.234
195.772
196.948
211.953
217.153
204.645
207.611
209.982
228.091
235.905
214.538
214.414
301.825
296.206
292.036
292.624
293.919
293.885
292.339
290.681
290.387
289.843
289.215
289.609
290.928
292.751
295.57
297.645
297.9
298.489
299.387
300.66
301.051
300.382
299.015
298.055
297.507
297.516
297.799
298.153
297.908
298.159
298.2
297.981
297.503
297.214
297.236
297.027
297.084
296.832
296.855
296.833
296.875
297.047
296.978
296.79
296.659
296.267
295.851
295.481
295.024
294.697
294.491
294.226
294.267
294.558
294.63
295.297
295.973
296.297
296.233
296.523
297.001
297.78
298.443
298.234
297.438
297.493
298.739
299.995
299.485
297.721
296.254
296.016
297.236
298.445
299.587
298.928
296.034
292.159
288.069
284.777
283.46
282.762
282.694
283.772
282.256
278.304
276.084
276.638
276.552
275.035
275.59
277.199
279.026
281.599
282.762
283.865
284.558
279.992
277.75
280.838
281.29
281.438
284.267
286.987
288.09
286.536
286.494
286.587
287.225
283.251
281.61
286.426
289.64
286.818
285.446
291.018
289.583
289.445
287.292
282.716
279.81
274.162
273.226
259.976
282.596
260.389
264.159
258.038
266.227
277.695
263.1
263.303
265.077
270.905
280.752
268.599
279.108
271.602
287.912
273.327
277.109
278.347
262.132
269.101
275.028
251.4
266.523
281.387
254.706
246.276
263.501
258.045
271.798
271.107
267.132
269.603
273.641
262.135
252.852
273.933
288.081
264.387
250.559
237.948
216.066
199.889
204.709
257.479
300.221
209.742
196.765
208.027
220.258
204.579
201.607
211.674
221.612
235.838
216.429
213.417
301.788
296.531
292.865
293.003
292.155
289.895
288.396
289.181
289.951
288.293
288.041
289.642
291.675
293.866
295.047
295.365
296.755
298.396
298.891
299.02
298.981
299.145
298.481
298.196
298.54
298.737
298.847
298.811
298.209
297.758
297.995
298.323
298.267
298.148
297.95
297.587
297.887
298.222
298.785
299.004
299.099
299.281
299.388
299.296
299.214
299.006
298.575
298.058
297.477
296.882
296.301
295.79
295.157
294.717
294.299
294.301
294.436
294.895
295.417
295.638
295.871
296.37
297.389
298.664
298.91
297.728
296.862
298.06
299.703
299.488
298.159
296.614
296.24
297.223
298.889
298.432
295.464
291.355
286.997
284.043
283.505
282.633
280.179
280.258
279.792
277.364
276.775
277.421
276.574
275.563
275.311
276.034
277.814
279.665
280.02
282.01
284.351
281.575
279.183
280.837
282.725
286.546
287.932
288.034
288.104
289.365
291.983
293.642
296.646
293.554
287.964
286.715
288.682
287.049
287.962
288.139
291.285
291.439
287.18
284.956
282.537
274.527
279.722
249.937
280.403
255.789
260.964
258.456
263.483
281.735
265.256
262.933
271.797
267.892
285.61
272.494
280.592
270.803
286.593
277.491
276.411
281.895
265.272
266.876
282.374
257.738
262.214
283.959
277.137
248.798
248.91
258.642
282.618
280.05
264.416
267.441
276.697
270.671
262.142
275.241
292.385
296.277
263.764
252.34
221.501
199.099
202.295
249.803
285.033
244.318
198.733
204.53
222.383
210.46
204.45
211.073
218.731
235.385
220.222
214.241
301.841
296.943
293.411
293.203
291.297
288.733
287.924
288.454
290.226
289.922
289.175
291.77
294.993
296.372
297.454
296.851
297.121
297.928
298.525
299.205
299.605
299.396
298.796
297.687
297.232
297.17
297.406
296.87
296.521
296.677
296.987
297.301
297.353
297.72
298.569
299.006
299.068
299.021
299.133
299.074
299.045
298.765
298.432
298.231
298.195
298.298
298.376
298.113
297.597
297.026
296.669
296.136
295.629
294.823
294.485
294.407
294.372
294.522
295.038
295.437
295.753
296.214
296.701
297.129
298.001
298.151
296.581
296.152
298.09
299.464
298.249
296.354
296.392
298.295
300.537
299.862
295.832
291
286.993
284.865
284.339
283.85
281.371
280.163
279.945
278.815
278.881
278.888
277.01
275.898
276.303
276.767
277.992
279.094
278.984
279.401
282.211
281.717
280.587
282.535
286.29
288.613
286.003
285.434
285.253
287.155
287.524
287.151
292.435
295.558
294.857
289.647
290.604
289.685
288.817
289.409
290.788
292.879
293.307
286.551
280.238
271.612
278.718
248.987
271.119
249.102
266.191
256.946
264.44
281.997
275.819
261.003
274.567
268.2
283.086
274.461
279.689
269.622
283.013
279.862
276.942
284.152
270.218
261.941
285.656
270.639
260.027
280.194
290.896
261.031
244.832
245.533
267.212
274.818
264.285
256.351
266.006
280.232
271.735
265.622
267.025
294.537
277.603
260.72
232.577
201.266
198.221
240.728
265.855
290.857
204.058
201.832
221.926
206.396
200.858
212.142
220.732
235.907
225.141
214.804
301.773
296.961
293.46
293.412
291.202
288.331
288.5
289.589
288.968
290.816
291.968
293.381
295.908
296.947
296.749
296.781
297.199
298.048
299.311
300.119
300.227
299.431
298.302
296.828
296.346
295.742
295.84
296.086
296.225
297.098
297.934
298.021
297.476
296.642
296.6
297.523
298.358
298.42
298.245
298.234
298.208
297.98
297.712
297.528
297.321
297.514
298.095
298.35
298.101
297.408
297.057
296.799
296.52
295.549
294.273
293.365
293.013
293.311
293.686
294.514
295.2
295.425
296.223
296.889
296.825
298.368
299.204
298.964
299.987
301.297
299.983
297.84
297.379
299.765
301.577
299.479
293.705
288.092
284.188
282.885
282.687
282.888
282.118
281.366
281.438
281.233
280.808
280
277.649
275.457
276.735
279.173
280.9
281.692
280.804
281.127
282.322
281.351
280.995
284.29
288.514
287.889
286.343
288.155
290.184
293.686
292.359
287.101
288.765
293.554
297.859
295.438
294.234
292.885
290.234
289.319
289.632
294.056
293.304
293.517
285.856
276.039
273.727
255.444
276.214
250.993
276.409
264.11
277.905
283.88
279.337
261.008
277.084
276.354
281.569
275.304
280.347
270.617
280.049
283.707
278.361
286.261
281.861
259.59
282.471
287.299
264.015
276.945
289.615
274.738
276.136
250.838
260.058
271.13
267.532
254.89
255.376
277.137
276.978
274.871
264.548
291.164
299.639
264.506
246.357
206.19
194.716
231.43
249.65
306.33
216.353
204.584
222.667
200.518
191.992
218.053
223.616
235.768
227.666
215.039
302.002
297.936
293.887
293.227
291.569
288.829
288.049
290.678
291.013
291.98
293.188
295.112
296.542
297.489
297.374
297.807
297.629
296.952
296.705
297.588
298.6
298.001
297.655
296.89
296.742
297.07
297.375
297.792
297.953
297.919
297.9
298.198
297.999
296.702
296.061
297.444
299.168
299.631
299.244
298.902
298.467
298.103
297.852
297.581
296.999
296.601
296.86
297.244
297.325
297.064
296.346
296.565
296.862
297.183
296.511
295.116
293.676
292.822
292.66
292.884
293.826
294.947
294.947
296.685
297.018
296.381
297.549
298.109
298.803
300.159
300.019
298.248
297.693
300.606
301.605
298.542
292.344
287.358
284.167
283.443
283.329
283.503
282.905
281.611
281.069
281.626
281.588
280.661
278.547
276.668
277.304
279.606
282.054
282.451
281.284
280.717
281.178
281.321
282.707
286.555
288.676
287.333
288.851
289.643
291.078
295.936
298.157
294.03
289.742
289.478
294.266
296.829
295.654
295.853
293.045
288.574
289.036
295.253
295.224
291.703
284.434
275.336
271.632
257.836
275.084
254.639
281.647
271.187
287.992
292.256
276.252
268.139
285.373
288.443
286.27
278.2
281.011
273.418
276.007
286.449
278.762
284.73
294.295
263.331
275.164
296.074
271.069
277.093
285.318
278.858
301.741
271.783
267.532
280.286
280.688
265.256
253.468
270.947
272.9
283.086
271.974
286.315
313.536
271.926
261.561
213.911
191.215
220.118
234.89
290.201
230.008
211.211
217.441
197.49
191.641
218.325
220.933
235.099
225.243
210.954
301.972
298.339
294.429
293.439
291.242
288.998
289.073
291.098
291.584
293.882
295.51
295.916
296.471
296.278
295.846
297.482
299.116
299.641
299.787
299.127
299.731
299.217
298.595
298.52
298.281
298.381
298.177
297.731
297.184
297.127
297.018
296.948
296.907
296.12
295.834
297.302
299.058
299.721
299.285
298.679
298.102
297.82
297.909
298.111
297.864
297.277
297.033
297.362
297.105
297.047
295.87
295.522
295.371
295.15
295.084
294.652
293.974
293.301
292.974
293.233
292.765
294.164
295.154
295.628
298.168
297.848
297.634
297.836
297.707
298.614
299.975
298.946
298.064
300.331
302.431
300.863
294.888
288.797
284.763
283.647
283.666
284.285
283.55
281.585
280.369
281.416
282.117
280.892
279.211
279.031
280.287
282.225
283.585
282.928
281.971
281.932
281.497
281.419
284.212
287.823
288.615
288.416
288.793
284.346
283.441
286.567
290.592
294.329
294.592
290.845
290.475
293.668
297.17
298.201
297.746
294.073
289.502
292.912
300.862
295.417
285.234
273.835
269.323
266.021
275.796
268.478
288.321
277.972
288.122
295.94
277.891
283.699
288.882
287.737
288.17
284.19
284.472
280.721
275.102
288.566
280.368
280.862
300.86
272.471
269.7
296.311
277.738
278.972
283.616
279.387
301.637
287.089
276.452
290.721
292.881
276.049
253.929
267.164
269.698
287.4
288.8
277.613
307.041
280.507
272.178
227.193
191.761
210.766
222.22
270.053
243.837
215.951
208.791
193.976
197.152
214.912
220.747
235.05
222.442
207.841
301.861
298.542
294.572
294.265
292.905
288.105
287.547
292.013
292.94
293.588
296.436
297.802
298.168
298.277
297.589
296.849
296.445
296.611
298.069
298.587
298.935
299.126
298.359
298.089
297.597
297.143
296.284
295.545
294.799
294.605
295.562
296.479
296.687
296.375
296.492
297.476
298.523
299.104
298.981
298.715
298.385
298.117
298.04
298.045
297.773
297.316
296.805
297.135
297.009
297.153
297.198
296.921
297.53
297.429
295.836
294.228
293.149
293.201
293.553
293.983
294.471
293.385
294.683
294.329
295.344
297.17
298.223
300.166
300.583
300.104
300.806
300.138
298.922
300.614
303.387
301.055
294.308
287.304
283.711
282.932
283.453
284.447
284.094
282.19
281.314
281.872
282.326
281.445
280.077
280.295
283.387
285.952
285.39
284.219
283.471
283.505
283.726
285.455
287.218
288.842
289.084
290.385
289.145
282.693
283.469
284.759
283.111
285.826
292.481
294.297
291.489
289.729
295.811
297.962
298.349
295.552
291.674
294.088
297.149
297.677
287.361
275.523
269.014
269.829
273.293
279.462
288.378
285.681
288.488
299.296
281.793
294.823
291.554
286.751
289.003
286.914
285.187
286.607
274.581
289.079
283.724
277.131
302.627
282.32
268.141
293.873
279.151
283.339
284.146
277.789
299.446
291.943
281.899
297.98
292.716
272.443
250.875
263.721
273.856
284.835
305.277
274.704
293.086
294.689
275.242
242.039
197.207
206.213
213.827
254.17
261.371
216.002
204.001
195.242
196.798
214.614
225.348
235.733
222.182
207.063
301.783
298.879
294.447
293.381
294.501
291.078
286.195
288.633
293.364
294.587
295.735
296.703
297.077
297.327
298.093
299.422
299.042
297.778
297.115
296.952
296.643
296.665
296.087
296.346
296.484
296.476
296.332
295.661
294.8
294.194
294.307
295.253
296.525
297.264
297.412
297.782
298.271
298.456
298.066
297.947
298.042
297.923
297.829
297.922
297.648
297.079
296.256
295.892
296.326
295.144
294.317
294.227
295.378
297.182
297.815
296.38
294.785
293.036
294.021
294.261
295.311
295.89
295.506
296.28
296.243
296.767
296.753
298.088
299.667
299.865
300.638
301.64
300.376
300.144
302.076
300.966
295.793
288.79
284.809
283.427
283.921
284.28
284.61
282.902
283.019
283.314
282.309
281.506
280.515
281.465
285.041
286.901
286.331
284.855
284.46
284.563
285.365
286.413
289.155
289.567
289.584
291.801
290.754
286.196
289.748
291.68
286.325
281.611
286.361
293.657
294.703
290.701
289.798
294.885
300.183
299.067
292.223
292.704
300.394
299.401
288.814
277.328
270.385
270.968
276.018
281.542
284.669
289.083
287.362
298.871
284.798
294.907
293.334
290.288
292.422
290.232
288.188
292.884
273.328
288.637
286.906
274.098
302.855
288.532
269.627
292.293
279.16
289.308
284.067
279.625
298.866
285.956
289.34
307.639
286.91
261.945
248.243
263.539
282.336
281.855
308.529
285.628
277.932
306.008
279.962
259.228
207.697
206.304
207.665
242.637
279.703
216.796
205.092
200.472
196.347
213.497
223.36
233.248
220.018
204.968
301.758
299.524
294.865
291.929
293.75
294.795
290.534
286.55
289.136
292.672
295.837
297.378
297.684
297.222
296.39
297.047
298.262
298.645
298.578
298.504
298.042
297.81
297.344
297.161
296.921
297.111
297.349
297.106
296.625
295.856
294.92
294.772
295.237
295.82
296.315
296.938
296.848
296.708
297.205
297.245
297.059
297.626
297.902
298.017
297.988
297.64
297.4
296.907
298.22
298.235
296.739
295.656
295.733
296.686
297.883
297.693
297.039
296.268
295.127
296.39
295.363
295.935
295.866
295.82
296.78
298.609
299.036
298.16
298.723
299.559
299.878
301.562
300.883
299.492
301.969
303.878
299.151
290.379
284.871
283.449
283.982
284.02
284.409
283.694
283.599
284.247
283.137
281.804
281.347
283.121
286.037
287.532
286.165
284.016
283.962
285.51
287.152
289.768
289.732
291.274
291.68
292.198
292.612
289.885
291.284
293.13
289.341
285.001
280.983
285.617
293.983
291.565
289.971
293.923
299.449
301.567
297.233
291.639
298.758
302.047
293.123
278.699
271.139
271.906
277.68
280.258
285.14
289.643
291.161
296.472
291.383
297.247
297.72
294.574
293.253
291.771
289.237
299.345
272.76
287.182
288.965
272.721
302.044
290.873
275.042
293.326
282.243
292.132
282.922
286.301
297.067
281.17
297.836
314.633
283.662
258.486
250.171
270.056
287.122
285.345
301.99
302.75
267.838
308.652
285.171
269.479
223.683
208.833
204.186
235.958
286.329
219.384
208.866
205.216
196.768
211.804
222.754
232.458
217.33
210.016
301.758
300.476
296.619
291.163
290.057
292.719
293.847
290.304
287.877
288.434
291.231
294.285
296.613
297.758
297.716
297.044
296.96
297.184
297.322
297.652
297.758
297.788
298.022
298.082
298.2
298.464
298.579
298.684
298.25
297.697
296.902
296.205
296.113
296.251
296.172
296.382
296.641
296.747
296.902
297.247
296.919
297.022
297.781
297.974
297.053
296.344
296.916
296.277
296.193
296.971
297.271
297.993
298.408
298.379
297.786
298.628
297.788
298.391
298.013
297.76
298.339
297.14
297.352
297.327
297.239
297.368
298.341
299.134
299.604
300.636
300.12
300.859
302.773
300.362
300.322
304.228
302.633
293.88
286.041
284.14
283.646
284.001
283.448
284.078
283.704
283.501
283.117
282.878
282.778
284
287.676
289.786
287.938
285.472
283.886
285.438
288.876
291.695
293.217
292.399
292.925
292.841
291.649
293.463
290.36
289.418
286.909
288.467
286.222
281.005
289.56
294.678
292.936
291.763
297.526
300.891
296.568
293.086
298.111
303.822
295.634
280.701
271.328
273.731
276.707
278.316
282.357
285.64
293.223
294.849
292.296
297.479
299.176
293.255
289.399
290.33
284.464
306.613
275.813
286.131
291.068
273.858
299.74
292.077
282.452
294.992
287.662
291.567
283.431
293.772
296.568
282.437
299.25
313.339
285.925
264.928
258.567
279.643
289.315
289.627
297.97
313.542
261.719
295.636
286.943
270.89
244.202
219.532
206.711
232.988
283.122
223.314
212.39
207.876
194.65
212.659
224.518
234.615
218.269
219.237
301.368
300.464
299.089
293.499
290.325
291.125
293.81
294.179
291.542
289.626
289.007
290.201
292.575
294.641
296.385
297.184
297.344
297.338
297.096
297.08
296.892
296.578
296.622
296.625
296.826
296.972
297.044
297.351
297.489
297.208
297.069
296.977
296.621
296.629
296.535
296.498
296.596
296.731
296.53
296.887
296.856
296.63
297.25
297.64
297.126
295.784
296.298
297.262
297.587
296.972
296.81
297.629
298.33
299.346
299.565
298.917
299.367
297.871
299
298.016
297.62
296.986
295.879
296.265
297.257
298.925
298.873
299.872
299.962
300.287
301.452
299.817
302.026
302.211
299.462
302.442
303.45
296.277
287.176
284.595
283.742
284.105
283.288
283.523
283.928
283.214
282.825
283.577
283.623
285.067
288.556
290.645
290.906
287.751