/*--------------------------------*- C++ -*----------------------------------*\
| =========                 |                                                 |
| \\      /  F ield         | OpenFOAM: The Open Source CFD Toolbox           |
|  \\    /   O peration     | Version:  dev                                   |
|   \\  /    A nd           | Web:      http://www.openfoam.org               |
|    \\/     M anipulation  |                                                 |
\*---------------------------------------------------------------------------*/
FoamFile
{
    version     2.0;
    format      ascii;
    class       volVectorField;
    object      U;
    location    "9.155";
}
// * * * * * * * * * * * * * * * * * * * * * * * * * * * * * * * * * * * * * //

dimensions      [0 1 -1 0 0 0 0];

internalField   nonuniform List<vector> 
12225
(
(6.71556 0.382898 0)
(4.10054 0.202621 0)
(1.92886 0.0517221 0)
(1.61953 0.000389059 0)
(-0.113601 0.0551603 0)
(0.543085 0.00753361 0)
(-1.55254 0.111808 0)
(-0.439645 0.0125808 0)
(-3.02069 0.154113 0)
(-1.42604 0.0419813 0)
(-4.67652 0.193472 0)
(-2.38995 0.0952633 0)
(-6.43229 0.167091 0)
(-4.54968 0.368974 0)
(-6.72848 0.0903021 0)
(-10.3651 1.4086 0)
(-6.87882 0.398169 0)
(-23.0485 2.85 0)
(9.32328 0.909521 0)
(9.49566 0.827137 0)
(6.25579 0.420208 0)
(7.62838 0.21766 0)
(2.95428 0.16568 0)
(6.70827 0.0464677 0)
(0.635239 0.175064 0)
(6.34633 0.0384248 0)
(-1.42091 0.195843 0)
(6.55331 0.129041 0)
(-3.34519 0.346791 0)
(6.82859 -0.220536 0)
(-4.26897 1.08981 0)
(6.20179 -1.32479 0)
(-3.68805 2.61956 0)
(2.79689 -1.48328 0)
(-0.234417 2.46781 0)
(-15.7761 6.94244 0)
(8.59926 0.668414 0)
(12.1469 0.910487 0)
(7.34846 0.473577 0)
(11.9711 0.418987 0)
(4.43276 0.247784 0)
(11.5438 0.272407 0)
(1.85587 0.213406 0)
(11.2792 0.1515 0)
(0.39583 0.325232 0)
(10.7525 -0.0963021 0)
(0.217478 0.706774 0)
(9.57491 -0.746204 0)
(0.469315 1.35127 0)
(8.06717 -1.29681 0)
(-0.551027 2.82061 0)
(6.77338 -1.97521 0)
(-3.84019 9.27266 0)
(3.63437 5.53076 0)
(6.4413 0.191134 0)
(14.675 0.888707 0)
(6.73342 0.331289 0)
(14.593 0.571838 0)
(5.77314 0.317977 0)
(13.7185 0.276058 0)
(5.26062 0.439083 0)
(12.6607 -0.112387 0)
(4.93935 0.78149 0)
(11.6093 -0.63452 0)
(4.22817 1.39893 0)
(10.1112 -1.43762 0)
(2.90858 2.41696 0)
(8.96801 -2.03685 0)
(0.708365 3.884 0)
(5.31115 -1.39526 0)
(3.13101 4.59013 0)
(-2.443 10.4222 0)
(5.44567 0.327956 0)
(14.3468 0.338033 0)
(7.7401 0.407435 0)
(13.49 0.159458 0)
(8.60201 0.634065 0)
(12.3744 -0.126876 0)
(8.6116 0.750613 0)
(11.2442 -0.458959 0)
(8.13213 1.06884 0)
(10.2583 -0.722268 0)
(7.13849 1.86023 0)
(8.76815 -1.15672 0)
(5.29565 2.99646 0)
(7.1024 -1.6708 0)
(3.286 6.22206 0)
(3.39997 -4.97843 0)
(2.72169 10.4888 0)
(4.15023 8.42182 0)
(7.53754 0.261907 0)
(11.3936 -0.287066 0)
(9.04649 0.379091 0)
(10.7121 -0.225093 0)
(9.71624 0.647944 0)
(10.1342 -0.360838 0)
(9.58029 0.838265 0)
(9.31661 -0.5359 0)
(8.97279 1.21519 0)
(8.63183 -0.866979 0)
(8.1164 2.12411 0)
(7.41244 -1.14586 0)
(6.94903 3.04296 0)
(5.707 -1.32706 0)
(5.91049 5.69905 0)
(4.3917 -1.95175 0)
(1.94216 9.26997 0)
(7.803 7.22504 0)
(9.84293 0.508144 0)
(9.52938 -0.885741 0)
(10.2254 0.669691 0)
(9.52218 -0.861651 0)
(10.3054 0.976691 0)
(9.2887 -0.887012 0)
(9.92868 1.32427 0)
(8.66804 -0.997326 0)
(9.36123 1.77764 0)
(7.96194 -1.33168 0)
(8.65465 2.83254 0)
(7.24739 -1.38678 0)
(7.92617 3.82862 0)
(6.28677 -1.08984 0)
(7.11189 5.72937 0)
(5.87396 0.182433 0)
(3.96947 6.36465 0)
(7.91156 4.45623 0)
(10.0483 0.160828 0)
(9.58782 -0.865389 0)
(10.2021 0.487054 0)
(9.95525 -0.855038 0)
(9.9604 0.822434 0)
(9.59579 -0.808745 0)
(9.44408 1.13048 0)
(9.22877 -0.772098 0)
(9.02841 1.45977 0)
(8.74985 -0.83701 0)
(8.34563 2.20333 0)
(8.47154 -0.423561 0)
(7.54308 2.77774 0)
(7.6445 0.389818 0)
(6.3461 3.99827 0)
(7.28359 1.64676 0)
(5.51507 3.53208 0)
(6.12339 6.76651 0)
(10.5418 0.196394 0)
(9.18751 -1.32793 0)
(10.4673 0.663518 0)
(9.28451 -1.37951 0)
(10.0521 1.07025 0)
(9.02709 -1.20824 0)
(9.60526 1.25464 0)
(8.93677 -1.12212 0)
(9.19586 1.58631 0)
(8.64413 -0.968603 0)
(8.6036 2.17352 0)
(8.23891 -0.446124 0)
(7.74515 2.79001 0)
(7.46605 0.521701 0)
(7.00881 3.65627 0)
(7.03335 2.01628 0)
(6.19973 4.63207 0)
(6.25697 5.60553 0)
(10.398 -0.217348 0)
(9.48387 -1.13988 0)
(10.3296 0.420571 0)
(9.78837 -1.03273 0)
(10.186 0.6231 0)
(9.74026 -0.820419 0)
(9.78873 0.789966 0)
(9.4538 -0.587133 0)
(9.15984 1.08211 0)
(9.04329 -0.277002 0)
(8.60027 1.52642 0)
(8.51298 0.476535 0)
(7.91754 2.00328 0)
(8.02813 1.66564 0)
(7.5437 2.79508 0)
(7.63103 3.3308 0)
(7.30527 3.62636 0)
(7.5606 5.40672 0)
(9.94519 -0.128653 0)
(9.39387 -1.63205 0)
(10.1994 0.264616 0)
(9.63362 -1.4907 0)
(10.1658 0.562329 0)
(9.49712 -1.08019 0)
(9.73677 0.794041 0)
(9.22148 -0.776536 0)
(9.18129 0.956482 0)
(8.90475 -0.327611 0)
(8.67497 1.33761 0)
(8.42759 0.448219 0)
(8.17121 1.81177 0)
(8.02626 1.64154 0)
(7.87711 2.5964 0)
(7.77109 3.0129 0)
(7.73838 3.65561 0)
(7.76009 4.60102 0)
(9.97047 -0.599818 0)
(9.9204 -1.42312 0)
(10.1163 -0.251472 0)
(9.79503 -1.09554 0)
(9.91761 0.0124359 0)
(9.73817 -0.719733 0)
(9.73372 0.25087 0)
(9.59305 -0.281771 0)
(9.27216 0.568039 0)
(9.2109 0.213482 0)
(8.88615 0.983942 0)
(8.68377 1.00185 0)
(8.41989 1.55968 0)
(8.31419 1.96334 0)
(8.24567 2.45646 0)
(8.17622 3.12289 0)
(8.20889 3.62664 0)
(8.34431 4.34441 0)
(9.90815 -0.81151 0)
(9.99346 -1.52858 0)
(9.84988 -0.497907 0)
(9.61206 -1.26647 0)
(9.62544 -0.273394 0)
(9.53147 -0.825335 0)
(9.59117 0.0193091 0)
(9.51485 -0.325273 0)
(9.3456 0.343219 0)
(9.34272 0.285097 0)
(9.11442 0.75161 0)
(8.93622 0.977234 0)
(8.78624 1.37685 0)
(8.66722 1.82259 0)
(8.63839 2.23035 0)
(8.66032 2.76062 0)
(8.77359 3.25494 0)
(8.96843 3.8138 0)
(9.65324 -1.32147 0)
(9.91643 -1.37919 0)
(9.82054 -0.833264 0)
(9.80894 -1.06121 0)
(9.80179 -0.714171 0)
(9.78471 -0.852793 0)
(9.74875 -0.436969 0)
(9.67584 -0.390988 0)
(9.52364 0.102064 0)
(9.48967 0.351332 0)
(9.40465 0.677182 0)
(9.28195 1.00424 0)
(9.21356 1.33801 0)
(9.17584 1.71351 0)
(9.17291 2.08879 0)
(9.20433 2.51388 0)
(9.2624 2.95102 0)
(9.43566 3.37283 0)
(9.91885 -1.41796 0)
(10.1322 -1.45179 0)
(10.1108 -1.302 0)
(10.1679 -1.30806 0)
(10.1883 -1.00071 0)
(10.1466 -0.837722 0)
(10.0524 -0.505573 0)
(9.95052 -0.318446 0)
(9.85882 -0.0217742 0)
(9.81773 0.222751 0)
(9.77428 0.453507 0)
(9.73411 0.73233 0)
(9.72986 1.06468 0)
(9.73562 1.4296 0)
(9.7398 1.80854 0)
(9.77159 2.19902 0)
(9.84406 2.587 0)
(10.0184 2.9453 0)
(9.86532 -1.7529 0)
(10.1627 -1.47518 0)
(10.1185 -1.39961 0)
(10.075 -1.35758 0)
(10.0496 -1.21713 0)
(10.0562 -1.03035 0)
(10.0859 -0.752626 0)
(10.134 -0.484632 0)
(10.1483 -0.200841 0)
(10.1634 0.0724967 0)
(10.1646 0.344932 0)
(10.1285 0.614039 0)
(10.1082 0.898365 0)
(10.1067 1.20253 0)
(10.1173 1.50566 0)
(10.1642 1.81251 0)
(10.2501 2.12053 0)
(10.4132 2.40084 0)
(9.80491 -1.79412 0)
(10.1045 -1.65586 0)
(10.1625 -1.61918 0)
(10.1924 -1.50026 0)
(10.2116 -1.35055 0)
(10.2422 -1.16186 0)
(10.2824 -0.948541 0)
(10.3335 -0.719354 0)
(10.3906 -0.476042 0)
(10.4504 -0.217879 0)
(10.503 0.0511709 0)
(10.5575 0.343528 0)
(10.6095 0.631409 0)
(10.6752 0.91966 0)
(10.7428 1.19838 0)
(10.8246 1.45194 0)
(10.9061 1.69226 0)
(11.0192 1.91726 0)
(10.0609 -1.92008 0)
(10.3032 -1.60028 0)
(10.3735 -1.60029 0)
(10.45 -1.53314 0)
(10.5464 -1.41124 0)
(10.6567 -1.24443 0)
(10.7494 -1.05189 0)
(10.8231 -0.829651 0)
(10.8949 -0.597318 0)
(10.9469 -0.384895 0)
(11.0184 -0.160842 0)
(11.0819 0.0487765 0)
(11.1386 0.277094 0)
(11.201 0.487422 0)
(11.2665 0.705211 0)
(11.3381 0.931752 0)
(11.4184 1.13379 0)
(11.5384 1.3156 0)
(9.84984 -1.83206 0)
(10.3564 -1.53265 0)
(10.645 -1.57679 0)
(10.8243 -1.55382 0)
(10.9104 -1.463 0)
(11.0117 -1.31255 0)
(11.1256 -1.13595 0)
(11.2403 -0.951891 0)
(11.3549 -0.756498 0)
(11.4466 -0.566451 0)
(11.5224 -0.363618 0)
(11.5954 -0.145584 0)
(11.6617 0.0690594 0)
(11.705 0.287017 0)
(11.7628 0.486033 0)
(11.8137 0.657261 0)
(11.8561 0.814322 0)
(11.9347 0.949423 0)
(9.73793 -1.93813 0)
(10.2751 -1.801 0)
(10.6206 -1.61625 0)
(10.9097 -1.42903 0)
(11.1112 -1.31845 0)
(11.2771 -1.23814 0)
(11.4059 -1.13725 0)
(11.5106 -0.998987 0)
(11.5887 -0.820922 0)
(11.6371 -0.639487 0)
(11.693 -0.459678 0)
(11.7317 -0.28062 0)
(11.7728 -0.120141 0)
(11.8403 0.0464781 0)
(11.8891 0.189043 0)
(11.9472 0.337649 0)
(12.0126 0.46857 0)
(12.0927 0.585957 0)
(10.0894 -1.72661 0)
(10.375 -1.62663 0)
(10.6073 -1.56748 0)
(10.9306 -1.45822 0)
(11.2257 -1.33442 0)
(11.4545 -1.213 0)
(11.6394 -1.06907 0)
(11.7921 -0.914686 0)
(11.9359 -0.753027 0)
(12.0459 -0.597432 0)
(12.1377 -0.443256 0)
(12.22 -0.301107 0)
(12.2841 -0.173494 0)
(12.3135 -0.0451151 0)
(12.3475 0.0692419 0)
(12.3757 0.178231 0)
(12.3796 0.272238 0)
(12.4109 0.356926 0)
(9.91614 -1.59616 0)
(10.4298 -1.46833 0)
(10.8013 -1.48293 0)
(11.1179 -1.39453 0)
(11.4069 -1.2752 0)
(11.6517 -1.16919 0)
(11.847 -1.06055 0)
(12.0288 -0.951923 0)
(12.1948 -0.838298 0)
(12.3243 -0.712357 0)
(12.4309 -0.579888 0)
(12.4859 -0.428414 0)
(12.533 -0.300808 0)
(12.5788 -0.171711 0)
(12.6022 -0.0526515 0)
(12.6339 0.0475283 0)
(12.6598 0.135876 0)
(12.6991 0.211082 0)
(10.0065 -1.42677 0)
(10.5553 -1.36559 0)
(10.9717 -1.35465 0)
(11.3503 -1.25785 0)
(11.7101 -1.15892 0)
(11.9898 -1.07862 0)
(12.1989 -0.998067 0)
(12.387 -0.914323 0)
(12.5481 -0.787021 0)
(12.6809 -0.654224 0)
(12.7753 -0.509997 0)
(12.8338 -0.373494 0)
(12.8641 -0.254812 0)
(12.8828 -0.158514 0)
(12.8861 -0.0908552 0)
(12.8933 -0.0246083 0)
(12.8889 0.0217826 0)
(12.9075 0.0657249 0)
(9.99335 -1.23936 0)
(10.6525 -1.29206 0)
(11.1447 -1.33105 0)
(11.5832 -1.25448 0)
(11.9667 -1.13465 0)
(12.2334 -1.02916 0)
(12.4087 -0.944434 0)
(12.5414 -0.881905 0)
(12.6516 -0.794353 0)
(12.7292 -0.682265 0)
(12.7887 -0.558102 0)
(12.8493 -0.434232 0)
(12.8983 -0.323814 0)
(12.9607 -0.228954 0)
(13.0088 -0.155607 0)
(13.0651 -0.08834 0)
(13.1058 -0.0359795 0)
(13.1517 0.00949976 0)
(10.0182 -1.14582 0)
(10.6672 -1.26709 0)
(11.185 -1.24052 0)
(11.6983 -1.1109 0)
(12.1446 -0.997418 0)
(12.4529 -0.907579 0)
(12.6773 -0.845477 0)
(12.833 -0.782692 0)
(12.9633 -0.680393 0)
(13.0479 -0.572984 0)
(13.0963 -0.463211 0)
(13.1552 -0.375208 0)
(13.1877 -0.321196 0)
(13.2434 -0.27161 0)
(13.28 -0.233876 0)
(13.3268 -0.199486 0)
(13.3509 -0.167672 0)
(13.3787 -0.139856 0)
(10.1523 -0.996789 0)
(10.9346 -1.15355 0)
(11.4613 -1.19985 0)
(11.9017 -1.09996 0)
(12.2559 -0.982012 0)
(12.5004 -0.876904 0)
(12.7058 -0.800549 0)
(12.8723 -0.736175 0)
(13.0197 -0.640746 0)
(13.1154 -0.54371 0)
(13.1872 -0.458341 0)
(13.2532 -0.395051 0)
(13.3054 -0.356442 0)
(13.3706 -0.312026 0)
(13.4122 -0.270763 0)
(13.4557 -0.23925 0)
(13.4754 -0.205271 0)
(13.4898 -0.176828 0)
(9.84983 -1.01429 0)
(10.8686 -1.20728 0)
(11.5776 -1.11768 0)
(12.1311 -0.948568 0)
(12.5081 -0.846336 0)
(12.7267 -0.78772 0)
(12.8647 -0.74905 0)
(12.9054 -0.695937 0)
(12.9467 -0.597226 0)
(12.9467 -0.496985 0)
(12.9445 -0.420401 0)
(12.9438 -0.373554 0)
(12.9268 -0.350188 0)
(12.8917 -0.334593 0)
(12.8321 -0.317729 0)
(12.7595 -0.297257 0)
(12.6729 -0.270454 0)
(12.5803 -0.245967 0)
(10.053 -0.875643 0)
(11.1203 -1.21667 0)
(11.629 -1.10085 0)
(11.8967 -0.906604 0)
(11.9866 -0.753488 0)
(11.9526 -0.650032 0)
(11.8381 -0.575888 0)
(11.6591 -0.510377 0)
(11.5187 -0.437723 0)
(11.3633 -0.375597 0)
(11.2442 -0.330726 0)
(11.1198 -0.297644 0)
(10.979 -0.275506 0)
(10.8127 -0.247017 0)
(10.6347 -0.220326 0)
(10.4383 -0.189757 0)
(10.2496 -0.167513 0)
(10.0381 -0.141079 0)
(10.4414 -0.969386 0)
(10.7117 -1.20551 0)
(10.3603 -0.947839 0)
(9.85369 -0.702597 0)
(9.37286 -0.520642 0)
(8.95849 -0.401925 0)
(8.59757 -0.312014 0)
(8.28952 -0.257025 0)
(8.06481 -0.207352 0)
(7.85262 -0.174948 0)
(7.67579 -0.149213 0)
(7.50078 -0.131339 0)
(7.32263 -0.118065 0)
(7.14131 -0.0988275 0)
(6.95943 -0.0869538 0)
(6.777 -0.0670802 0)
(6.60948 -0.0623511 0)
(6.41291 -0.0458486 0)
(8.43081 -0.518259 0)
(6.60916 -0.438888 0)
(5.15372 -0.205705 0)
(4.3075 -0.0974004 0)
(3.8967 -0.0521176 0)
(3.69643 -0.0358167 0)
(3.59175 -0.0356879 0)
(3.53084 -0.0464389 0)
(3.48243 -0.0413206 0)
(3.41636 -0.0407283 0)
(3.36089 -0.0367273 0)
(3.29774 -0.0305253 0)
(3.22485 -0.025145 0)
(3.14797 -0.0183004 0)
(3.07161 -0.0121123 0)
(2.99273 -0.00229775 0)
(2.9267 -0.0103654 0)
(2.80009 0.0308532 0)
(0.246138 0.685163 0)
(0.731462 0.671635 0)
(1.22115 0.681697 0)
(1.72055 0.680192 0)
(2.23005 0.674869 0)
(2.74228 0.673085 0)
(3.25168 0.673927 1.15052e-17)
(3.75317 0.673338 -1.14319e-17)
(4.24742 0.672337 0)
(4.72478 0.674261 -1.1287e-17)
(5.17621 0.676011 0)
(5.5978 0.684427 0)
(5.99599 0.705195 0)
(6.37309 0.725215 1.10151e-17)
(6.74257 0.738424 0)
(7.09559 0.722882 0)
(7.40142 0.685331 -1.08269e-17)
(7.65656 0.647095 0)
(7.89373 0.654906 0)
(8.16795 0.681475 0)
(8.44615 0.65171 1.05646e-17)
(8.65213 0.566844 0)
(8.75895 0.481386 1.04491e-17)
(8.76767 0.49437 0)
(8.68762 0.588241 0)
(8.49575 0.704996 1.02768e-17)
(8.20435 0.821695 0)
(7.83227 0.902706 -1.01541e-17)
(7.39136 0.922293 0)
(6.91057 0.91036 9.96134e-18)
(6.42387 0.902158 0)
(5.93348 0.901403 0)
(5.43676 0.892811 0)
(4.93974 0.869022 0)
(4.44746 0.835302 0)
(3.96352 0.79815 -9.50805e-18)
(3.4885 0.763179 0)
(3.02765 0.725469 1.8732e-17)
(2.59085 0.685383 0)
(2.18786 0.645805 -1.84509e-17)
(1.81922 0.599538 0)
(1.49702 0.545355 0)
(1.22987 0.499323 1.80409e-17)
(1.02369 0.445604 0)
(0.879252 0.394264 1.7761e-17)
(0.775812 0.341312 -1.76184e-17)
(0.704237 0.302023 0)
(0.656423 0.271804 -1.7337e-17)
(0.631196 0.246606 -1.72024e-17)
(0.641916 0.219422 0)
(0.681173 0.196457 0)
(0.739351 0.185609 0)
(0.811065 0.178122 0)
(0.887399 0.180157 0)
(0.935688 0.202869 1.64556e-17)
(0.935324 0.226739 0)
(0.901152 0.245058 -1.6215e-17)
(0.851633 0.24344 0)
(0.817964 0.253582 0)
(0.759171 0.265126 1.58289e-17)
(0.7104 0.270896 0)
(0.664575 0.271764 -1.55598e-17)
(0.623434 0.276635 0)
(0.577594 0.29064 0)
(0.527948 0.301281 0)
(0.492426 0.308406 1.50302e-17)
(0.495008 0.308566 0)
(0.551147 0.290028 0)
(0.66855 0.255925 1.46535e-17)
(0.866896 0.230213 0)
(1.17574 0.208376 1.44135e-17)
(1.56274 0.215352 0)
(1.92578 0.286952 0)
(2.15769 0.319865 0)
(2.26413 0.32878 -1.39601e-17)
(2.31962 0.316128 0)
(2.26608 0.301605 0)
(2.14908 0.289875 -1.35885e-17)
(2.08796 0.329918 -1.34755e-17)
(2.00794 0.455265 0)
(1.75059 0.616175 -1.33242e-17)
(1.38844 0.703884 0)
(1.12295 0.637886 -2.61702e-17)
(0.909535 0.46978 0)
(0.621603 0.26588 -2.56791e-17)
(0.302944 0.126586 0)
(-0.0113929 0.101399 2.51897e-17)
(-0.280406 0.115282 0)
(-0.339723 0.0779513 0)
(-0.0687818 0.0306583 0)
(0.293142 0.0840093 -2.43077e-17)
(0.362771 0.285056 0)
(0.0586338 0.384885 2.39212e-17)
(-0.11013 0.304387 0)
(0.0615585 -0.0627683 -2.35702e-17)
(0.291854 -0.5894 -2.3644e-17)
(0.429403 -0.556123 -2.36478e-17)
(-0.124866 -0.0738671 0)
(-1.27402 0.023011 0)
(-3.02768 0.806074 0)
(-5.67416 1.3866 0)
(-7.68439 0.6132 0)
(-9.24938 0.768843 0)
(-10.7958 1.2742 0)
(-11.411 0.727319 0)
(-11.7511 0.334553 2.17885e-17)
(-12.3449 0.386529 2.16086e-17)
(-12.9408 0.411781 0)
(-13.4328 0.40394 0)
(-13.6824 0.339869 0)
(-13.3167 0.146885 2.11679e-17)
(-12.0801 -0.178336 0)
(-10.2462 -0.313721 0)
(-8.52533 0.28141 0)
(-10.1444 0.31424 0)
(-9.3313 -0.139464 -2.06201e-17)
(-8.08096 -0.103217 0)
(-5.67983 -0.455048 0)
(-4.07433 0.122978 2.01973e-17)
(-3.98923 -0.123268 -2.00941e-17)
(-1.80049 -0.363213 0)
(-0.245723 -0.20364 -1.9803e-17)
(1.68767 -0.13507 0)
(2.94168 0.114273 1.95647e-17)
(4.22376 0.150168 0)
(5.45536 0.314446 0)
(6.23172 0.302972 0)
(6.83261 0.246274 0)
(7.51391 0.210985 0)
(8.18363 0.266833 -3.74494e-17)
(8.58877 0.35966 -3.72366e-17)
(8.58978 0.452289 0)
(8.44018 0.447707 0)
(8.08029 0.429181 0)
(7.73857 0.314099 3.64623e-17)
(7.32666 0.294134 0)
(7.14859 0.227495 0)
(6.82462 0.158823 0)
(6.69356 0.237122 3.52161e-17)
(6.50707 0.205008 -3.49074e-17)
(6.37723 0.216244 0)
(6.06679 0.211603 0)
(5.84146 0.216799 -3.39246e-17)
(5.46903 0.190449 -3.36398e-17)
(5.12268 0.208805 0)
(4.71326 0.157541 0)
(4.13229 0.196962 3.26351e-17)
(3.71379 0.233574 -3.2268e-17)
(3.31819 0.180317 0)
(2.96267 0.324572 0)
(2.11803 0.351578 -3.18752e-17)
(1.19771 0.487763 0)
(-0.358504 0.35502 0)
(-3.02201 0.460999 -3.08044e-17)
(-4.01571 0.294652 0)
(-2.76236 0.0774523 -2.97224e-17)
(-1.80114 0.254313 0)
(-2.32042 0.34365 0)
(-3.38355 0.311133 0)
(-3.93636 0.299604 2.86516e-17)
(-4.08372 0.317318 0)
(-4.05015 0.276047 0)
(-4.07887 0.299348 0)
(-4.00972 0.212053 0)
(-3.60408 0.0989466 0)
(-2.92588 0.148057 0)
(-2.91686 0.290171 2.62625e-17)
(-1.3455 0.301672 2.53841e-17)
(-0.292877 0.619309 0)
(-0.603505 0.461704 0)
(-0.0497299 -0.00481579 0)
(1.51967 0.0306702 -2.62375e-17)
(0.725387 0.975716 0)
(-2.51373 1.13557 5.06914e-17)
(-3.01948 0.201112 -4.92208e-17)
(0.488493 -0.434787 -4.87117e-17)
(4.1185 0.307296 4.90032e-17)
(3.11967 0.702114 -5.01067e-17)
(0.902981 0.402873 5.09134e-17)
(0.175387 0.0505476 0)
(0.224243 2.15609 0)
(0.696346 2.11839 0)
(1.17903 2.11265 -2.343e-17)
(1.67844 2.07012 0)
(2.19472 2.03762 2.31109e-17)
(2.70705 2.02436 2.29536e-17)
(3.21043 2.0266 1.13967e-17)
(3.69765 2.02773 1.13197e-17)
(4.18597 2.04349 0)
(4.65158 2.08945 1.11498e-17)
(5.09439 2.14191 0)
(5.53182 2.18024 0)
(5.94568 2.19542 -2.18921e-17)
(6.29908 2.14328 -1.08892e-17)
(6.55039 2.08303 2.15814e-17)
(6.73968 2.14107 2.13903e-17)
(6.93056 2.27741 1.06481e-17)
(7.14708 2.32124 0)
(7.36494 2.1577 0)
(7.4533 1.93982 0)
(7.38957 2.00582 1.04114e-17)
(7.25428 2.35516 0)
(6.95829 2.60408 -3.11174e-17)
(6.47166 2.80801 0)
(5.97507 3.03002 0)
(5.45362 3.10922 -1.01373e-17)
(4.93675 3.09827 0)
(4.46684 3.08538 9.96268e-18)
(4.01783 3.07274 1.97801e-17)
(3.57162 3.02134 -9.82631e-18)
(3.14261 2.93062 0)
(2.71163 2.81648 0)
(2.28295 2.70173 0)
(1.8572 2.59626 1.91528e-17)
(1.42899 2.4756 1.90192e-17)
(1.02106 2.35 9.44456e-18)
(0.624768 2.21225 0)
(0.26144 2.06846 -1.86211e-17)
(-0.0549166 1.91484 0)
(-0.324918 1.74823 1.83689e-17)
(-0.551716 1.5608 0)
(-0.707099 1.36492 0)
(-0.826955 1.15813 -1.80081e-17)
(-0.904635 0.958166 0)
(-0.948212 0.785341 -5.32182e-17)
(-0.969322 0.653151 1.75886e-17)
(-0.96029 0.554734 0)
(-0.931207 0.472089 1.72927e-17)
(-0.863413 0.375875 1.71567e-17)
(-0.741825 0.276649 0)
(-0.587271 0.214555 0)
(-0.417604 0.196071 0)
(-0.234505 0.181285 0)
(-0.0280594 0.195806 0)
(0.147018 0.258771 -1.63188e-17)
(0.305753 0.37012 -3.23623e-17)
(0.459131 0.486742 1.60429e-17)
(0.516131 0.480028 0)
(0.604367 0.523656 -3.16225e-17)
(0.627675 0.571068 1.56925e-17)
(0.673877 0.593446 0)
(0.724296 0.620897 1.54056e-17)
(0.79334 0.663347 0)
(0.82128 0.730624 0)
(0.831723 0.76215 2.99728e-17)
(0.843286 0.733479 -1.48367e-17)
(0.85747 0.67171 2.94476e-17)
(0.932719 0.57687 -2.92209e-17)
(1.10953 0.467362 -1.44939e-17)
(1.40228 0.328443 0)
(1.79184 0.16192 -1.42986e-17)
(2.37303 0.0928748 0)
(2.98975 0.312008 0)
(3.47297 0.62502 0)
(3.81273 0.825371 -1.37996e-17)
(4.09932 0.973552 0)
(4.23111 1.17353 -2.71322e-17)
(4.12351 1.2607 4.02686e-17)
(3.95855 1.17741 1.32578e-17)
(3.71074 1.09046 0)
(3.38631 1.16265 1.30695e-17)
(3.08795 1.10475 0)
(2.89948 0.828046 2.57273e-17)
(2.65255 0.839602 0)
(2.38001 1.19074 2.52648e-17)
(2.21622 1.30588 -5.02742e-17)
(2.00474 1.1565 -2.49664e-17)
(1.62542 0.857668 0)
(1.3872 0.326544 0)
(1.57707 -0.362795 0)
(1.93954 -0.40627 2.40146e-17)
(2.2038 0.216553 0)
(2.36104 0.52664 -2.36047e-17)
(2.76435 -0.167207 0)
(2.7758 -0.650622 6.91053e-17)
(1.34927 0.201903 2.30417e-17)
(-1.11402 1.18573 2.3243e-17)
(-3.98915 1.77735 0)
(-7.50132 2.74933 0)
(-9.72029 3.09509 0)
(-10.9003 2.76951 0)
(-12.9012 2.71303 0)
(-14.0485 1.91677 4.41441e-17)
(-13.821 0.537018 4.37602e-17)
(-14.0348 0.329435 0)
(-14.6101 0.806252 -2.16274e-17)
(-14.8287 0.932908 -2.12493e-17)
(-14.7149 0.825547 0)
(-14.3654 0.606522 -4.19174e-17)
(-13.949 0.113626 0)
(-13.4334 -0.838686 2.13152e-17)
(-12.3638 -1.80093 0)
(-10.8762 -1.72172 0)
(-9.25352 0.371358 -4.13745e-17)
(-9.26002 1.19731 0)
(-8.71254 -0.928927 2.08502e-17)
(-7.91525 -1.20309 0)
(-4.8056 -2.05582 0)
(-3.20792 -0.0615068 2.02283e-17)
(-2.8233 -0.622469 2.00346e-17)
(-0.549678 -1.40933 0)
(1.02373 -1.11642 -1.96316e-17)
(2.99835 -1.23031 0)
(4.03506 -0.600647 1.93882e-17)
(5.53987 -0.857328 3.86561e-17)
(7.14719 -0.340969 0)
(8.64929 -0.0849184 0)
(9.68858 0.118647 0)
(11.0417 0.0638008 0)
(12.359 0.288343 3.71141e-17)
(13.4984 0.578982 1.10161e-16)
(13.756 0.873965 0)
(13.9358 1.01317 0)
(13.5374 1.17311 0)
(13.362 1.24077 -3.54228e-17)
(12.6308 1.12783 0)
(11.8876 1.03127 0)
(10.9801 0.970087 6.90376e-17)
(10.1643 0.781461 3.4124e-17)
(9.06871 0.606441 3.36922e-17)
(8.65387 0.571786 0)
(7.77401 0.442073 0)
(7.35871 0.407037 3.21101e-17)
(6.84157 0.478302 -3.17095e-17)
(6.18067 0.364933 0)
(5.76691 0.379945 0)
(5.02373 0.421727 -3.04581e-17)
(4.48853 0.186011 9.01932e-17)
(3.74473 -0.0653259 0)
(3.90486 0.324488 0)
(3.19727 0.319594 2.98822e-17)
(1.19386 0.864313 0)
(-1.37963 1.69739 5.99114e-17)
(-5.44308 1.36768 -2.9032e-17)
(-6.03824 -0.226309 0)
(-4.00101 -1.40152 2.78855e-17)
(-1.35825 -0.656281 5.58161e-17)
(-0.330547 0.373831 0)
(-1.32412 0.571671 0)
(-2.05813 0.330874 -2.63492e-17)
(-2.06981 0.0799247 0)
(-1.62246 -0.0193149 4.99735e-17)
(-1.27187 0.215744 0)
(-1.46456 0.443233 0)
(-1.89732 0.364302 0)
(-2.32867 0.440478 0)
(-2.87835 0.077362 -2.26922e-17)
(-0.591251 -0.688313 -2.11284e-17)
(0.781049 0.326214 0)
(0.46502 0.504572 0)
(-0.0634082 -0.348632 0)
(0.0422378 0.278443 2.4066e-17)
(-2.95535 1.04015 0)
(-6.23499 0.901902 -4.65643e-17)
(-5.05014 -1.06725 4.52362e-17)
(-4.20027 -2.95877 4.74911e-17)
(4.62374 -1.55729 4.49453e-17)
(5.35038 0.672689 4.4447e-17)
(4.03529 0.704647 4.52016e-17)
(2.78028 0.16814 0)
(0.218625 3.58839 0)
(0.707215 3.45809 0)
(1.20837 3.43255 2.35293e-17)
(1.72952 3.35672 2.33044e-17)
(2.28354 3.31094 -2.31347e-17)
(2.83506 3.32206 -2.29516e-17)
(3.36948 3.35617 -1.0835e-20)
(3.87222 3.35826 0)
(4.35174 3.35464 0)
(4.82221 3.40636 0)
(5.24342 3.40076 0)
(5.54607 3.37099 0)
(5.80839 3.50493 6.44026e-17)
(6.0467 3.72763 0)
(6.24985 3.94872 -2.13886e-17)
(6.43093 4.01446 -2.1351e-17)
(6.6432 3.87884 0)
(6.78795 3.68534 0)
(6.71565 3.78794 0)
(6.41491 4.2465 0)
(5.90231 4.5469 -2.08104e-17)
(5.36279 4.7842 0)
(4.83999 5.07792 2.05722e-17)
(4.28304 5.23184 0)
(3.87942 5.29041 0)
(3.47457 5.23392 0)
(3.10282 5.12976 4.03627e-17)
(2.76752 5.00708 0)
(2.44304 4.85909 -1.99987e-17)
(2.15452 4.70342 3.97863e-17)
(1.82211 4.53708 0)
(1.48771 4.39309 0)
(1.14162 4.23828 0)
(0.787968 4.05107 -1.93953e-17)
(0.445549 3.86171 -1.92822e-17)
(0.102301 3.6397 0)
(-0.206905 3.40235 0)
(-0.499663 3.13504 3.78381e-17)
(-0.730642 2.86435 3.76062e-17)
(-0.946645 2.57089 -3.73725e-17)
(-1.11617 2.27775 0)
(-1.22712 2.00536 0)
(-1.34161 1.71544 0)
(-1.40005 1.4609 0)
(-1.42259 1.23398 3.61185e-17)
(-1.42489 1.06343 3.58627e-17)
(-1.40421 0.913587 -3.56007e-17)
(-1.34896 0.7536 0)
(-1.25146 0.567386 0)
(-1.12459 0.386911 0)
(-1.00396 0.283506 0)
(-0.880275 0.239091 3.41948e-17)
(-0.725623 0.196918 0)
(-0.560078 0.174485 0)
(-0.37432 0.227989 3.30825e-17)
(-0.140253 0.392927 3.26333e-17)
(0.144482 0.587524 0)
(0.389738 0.659769 -6.39906e-17)
(0.557186 0.755155 3.16385e-17)
(0.768941 0.853356 -3.13406e-17)
(0.940519 0.881131 0)
(1.1146 0.896579 0)
(1.27282 0.924107 0)
(1.39765 1.03233 0)
(1.4589 1.17542 -3.00721e-17)
(1.43316 1.24647 -5.97436e-17)
(1.31585 1.2051 -2.96576e-17)
(1.27885 1.07254 2.95593e-17)
(1.40791 0.860284 0)
(1.67615 0.586132 -5.88672e-17)
(2.02194 0.192771 -5.8553e-17)
(2.46543 -0.0799431 -5.79129e-17)
(2.98849 0.130529 5.69611e-17)
(3.54014 0.627262 0)
(4.0588 0.888223 8.31605e-17)
(4.58238 1.08286 0)
(5.22274 1.44638 -2.72131e-17)
(5.70585 1.76704 -2.68296e-17)
(5.89647 1.87766 0)
(6.00609 2.11449 0)
(6.02817 2.31328 -5.2263e-17)
(5.8157 2.29711 0)
(5.5558 2.2408 -5.11421e-17)
(4.8365 2.12751 0)
(3.8218 1.71512 5.04293e-17)
(3.26487 1.16861 9.98661e-17)
(3.02173 1.05771 0)
(2.84509 1.13206 0)
(2.72967 0.690482 0)
(2.9572 -0.276819 4.84833e-17)
(3.39902 -0.62557 0)
(3.87713 -0.367115 4.7654e-17)
(4.22845 -0.236083 0)
(3.00394 0.162145 0)
(-0.050408 1.56439 -9.37371e-17)
(-2.94241 3.07086 0)
(-5.57165 4.38194 -4.71095e-17)
(-8.81267 5.13668 0)
(-11.6509 4.92222 -4.60728e-17)
(-12.6132 4.06919 0)
(-13.4964 3.70619 0)
(-14.9941 3.13325 0)
(-15.4362 1.89962 -1.34822e-16)
(-15.6484 1.16911 -4.55794e-17)
(-16.2961 1.34447 0)
(-16.2945 1.21784 0)
(-15.8362 0.862392 0)
(-15.0405 0.501091 0)
(-13.773 0.19195 4.24238e-17)
(-12.8436 0.115349 -8.47456e-17)
(-12.2111 -0.466889 -4.24044e-17)
(-11.6781 -1.44252 8.47311e-17)
(-11.6011 -1.76737 8.38839e-17)
(-10.9882 -0.320765 4.13907e-17)
(-7.91836 1.28916 0)
(-6.85257 -0.656547 8.265e-17)
(-6.84371 -1.47549 0)
(-4.93666 -3.66114 -8.04751e-17)
(-2.90217 -0.435331 -3.98936e-17)
(-2.58097 -0.883488 0)
(-0.0307206 -2.25814 7.77123e-17)
(1.79017 -1.50343 3.87437e-17)
(3.64073 -1.65555 0)
(4.23683 -0.394288 3.79047e-17)
(5.08129 -1.35088 -1.13527e-16)
(6.58296 -0.576103 0)
(8.10025 -0.477766 0)
(8.96095 -0.15596 0)
(10.7393 -0.421257 0)
(12.5722 -0.333123 -7.50715e-17)
(14.6474 0.438624 -7.38858e-17)
(15.6087 1.20467 0)
(16.2895 1.51987 0)
(16.0847 1.96902 0)
(16.2012 1.9413 0)
(15.8096 2.0296 0)
(15.4968 2.05246 0)
(14.4181 1.8583 -6.84095e-17)
(13.5445 1.86244 3.44365e-20)
(12.2461 1.72247 0)
(11.3264 1.25875 0)
(10.1317 1.30781 -6.47186e-17)
(9.21163 1.05108 0)
(8.52291 0.868921 6.1922e-17)
(7.58608 0.838799 6.16321e-17)
(6.93014 0.628445 0)
(6.2146 0.626339 0)
(5.56288 0.735853 -5.81109e-17)
(4.22339 0.134079 -1.17453e-16)
(3.68075 0.228061 0)
(3.25433 1.62175 0)
(0.976676 2.44153 0)
(-1.77992 2.65782 -5.75827e-17)
(-6.14172 1.99863 5.80387e-17)
(-5.48732 -0.756832 0)
(-5.53525 -2.98861 1.1257e-16)
(-3.2824 -2.16067 5.56484e-17)
(-0.143529 0.114067 -1.093e-16)
(-0.193058 0.968089 0)
(-0.756444 0.625954 0)
(-1.0571 0.0377985 -9.88556e-17)
(-0.821706 -0.203753 -4.79771e-17)
(-0.000307245 0.237855 0)
(0.337935 1.10875 0)
(-0.379246 1.2149 0)
(-1.53125 1.19463 0)
(-2.27386 0.542345 -8.5139e-17)
(-0.349809 -0.912646 0)
(1.81814 0.443973 0)
(1.51588 1.17033 0)
(0.285501 0.470305 0)
(-0.84919 1.7565 0)
(-3.76291 3.06625 0)
(-7.40463 1.95706 -9.3693e-17)
(-6.61892 -1.00526 0)
(-5.56508 -5.64857 0)
(0.407577 -4.50351 -1.84136e-16)
(5.0276 0.0635614 8.46152e-17)
(5.30337 0.551719 -8.32912e-17)
(5.1987 0.539066 8.79986e-17)
(0.212402 4.99001 0)
(0.708451 4.76054 -4.80458e-17)
(1.23732 4.71291 0)
(1.7885 4.55795 -2.33891e-17)
(2.36438 4.44075 0)
(2.93224 4.43628 0)
(3.48036 4.51464 2.27263e-17)
(3.99273 4.58958 0)
(4.41492 4.6256 0)
(4.74844 4.73255 0)
(5.03774 5.05317 0)
(5.30445 5.34366 0)
(5.52777 5.43939 -8.66484e-17)
(5.79474 5.47329 -4.31508e-17)
(6.11177 5.4578 4.31669e-17)
(6.32868 5.3995 0)
(6.27137 5.4906 0)
(5.89806 6.01469 0)
(5.32595 6.5356 0)
(4.72879 6.91572 0)
(4.15408 7.32032 -4.15679e-17)
(3.62869 7.50099 -4.15982e-17)
(3.20618 7.52053 4.15152e-17)
(2.86616 7.45991 -4.14468e-17)
(2.6471 7.34586 0)
(2.415 7.18165 0)
(2.23568 7.00152 -4.10045e-17)
(2.04162 6.78022 0)
(1.81992 6.55331 0)
(1.6049 6.3673 -4.02562e-17)
(1.34171 6.18418 -3.99821e-17)
(1.08631 5.99002 -3.9736e-17)
(0.803822 5.77896 0)
(0.491646 5.54155 0)
(0.176594 5.27926 3.89927e-17)
(-0.167853 4.99017 0)
(-0.500526 4.65602 0)
(-0.802479 4.29406 -3.82075e-17)
(-1.09349 3.90547 3.79402e-17)
(-1.31905 3.51012 -3.76528e-17)
(-1.51543 3.1262 0)
(-1.65626 2.72229 0)
(-1.74835 2.33436 -7.35197e-17)
(-1.77156 1.95921 0)
(-1.72323 1.63466 -7.24397e-17)
(-1.6504 1.38147 -1.07889e-16)
(-1.54593 1.16413 1.07175e-16)
(-1.39918 0.94114 -7.09989e-17)
(-1.25321 0.708548 0)
(-1.1288 0.513697 0)
(-1.00843 0.412675 -6.94778e-17)
(-0.877233 0.342011 -3.44654e-17)
(-0.728457 0.260976 0)
(-0.619803 0.203372 0)
(-0.476498 0.183093 -3.36186e-17)
(-0.325552 0.270245 -6.66054e-17)
(-0.176201 0.409162 0)
(0.0209022 0.518895 6.49316e-17)
(0.205371 0.638319 -6.42532e-17)
(0.331565 0.775035 6.35929e-17)
(0.495603 0.899028 0)
(0.651539 0.950034 0)
(0.764418 1.08518 0)
(0.898588 1.36407 0)
(1.0989 1.68991 0)
(1.26959 1.90058 5.99433e-17)
(1.38859 1.84186 0)
(1.51773 1.57203 0)
(1.70352 1.14281 0)
(1.96488 0.744132 1.19778e-16)
(2.21229 0.352662 5.9205e-17)
(2.39699 0.0787341 5.83017e-17)
(2.56804 0.220871 -1.14579e-16)
(2.91222 0.702121 5.63979e-17)
(3.48131 0.921313 -5.55973e-17)
(4.05375 0.842529 0)
(4.74287 1.06559 5.4335e-17)
(5.27444 1.78035 0)
(5.51894 2.19575 0)
(6.19796 2.08759 0)
(7.02815 2.34866 1.04973e-16)
(7.19078 2.78668 -5.20571e-17)
(7.26937 2.77628 -5.17432e-17)
(7.16431 3.0407 -1.02237e-16)
(6.80826 3.53011 -1.51931e-16)
(6.47851 2.97876 -5.02956e-17)
(5.48803 2.13488 0)
(4.45014 1.83497 -9.88669e-17)
(4.17019 0.887241 0)
(4.33709 -0.737385 -1.46007e-16)
(4.05712 -1.36795 0)
(3.19543 -0.24143 -1.4282e-16)
(1.64238 1.76345 0)
(-0.993543 3.4663 0)
(-4.16916 4.49766 -4.72519e-17)
(-6.8789 5.57142 0)
(-9.28172 6.96429 4.69734e-17)
(-11.8162 7.11653 9.37435e-17)
(-13.4247 5.61995 4.65025e-17)
(-13.7989 4.5877 9.3485e-17)
(-15.0235 5.01194 -9.30456e-17)
(-16.237 4.26237 -9.19639e-17)
(-16.2054 2.34231 1.84542e-16)
(-16.2717 1.43157 0)
(-16.6482 1.33185 0)
(-16.5943 0.917004 9.07586e-17)
(-16.4074 0.272795 -8.96725e-17)
(-15.6258 -0.573684 0)
(-14.6467 -0.923297 0)
(-14.228 -0.563342 8.7845e-17)
(-13.4381 -0.928479 0)
(-12.4757 -1.52003 2.07708e-19)
(-12.1963 -1.48995 2.0114e-19)
(-11.583 -1.5935 8.37389e-17)
(-8.41636 -0.770039 0)
(-6.65047 -1.00423 -8.20967e-17)
(-5.63171 -1.51327 0)
(-4.54647 -4.08793 8.15279e-17)
(-3.66076 -0.805083 0)
(-2.92456 -1.73874 0)
(-0.670048 -3.81136 -7.7473e-17)
(1.35447 -2.33884 -7.71888e-17)
(3.00386 -2.32508 0)
(3.35074 -0.13916 -7.55548e-17)
(4.23904 -1.63905 1.51395e-16)
(5.64104 -0.999464 0)
(7.16843 -0.716882 0)
(7.65138 -0.461698 0)
(9.80091 -1.21431 0)
(12.1654 -1.05085 7.44812e-17)
(14.587 -0.191467 -1.48826e-16)
(15.7857 0.90585 0)
(16.8918 1.85928 0)
(17.1525 2.18229 0)
(17.5292 2.39615 0)
(17.2188 2.51689 0)
(17.3607 2.61475 0)
(16.7985 2.99293 0)
(15.74 2.74891 6.81426e-17)
(14.5502 2.37873 0)
(13.6981 2.35055 0)
(12.477 2.05636 6.41914e-17)
(11.2715 1.54636 0)
(10.2798 1.56006 0)