/*--------------------------------*- C++ -*----------------------------------*\
| =========                 |                                                 |
| \\      /  F ield         | OpenFOAM: The Open Source CFD Toolbox           |
|  \\    /   O peration     | Version:  dev                                   |
|   \\  /    A nd           | Web:      http://www.openfoam.org               |
|    \\/     M anipulation  |                                                 |
\*---------------------------------------------------------------------------*/
FoamFile
{
    version     2.0;
    format      ascii;
    class       volVectorField;
    object      UMean;
    location    "9.155";
}
// * * * * * * * * * * * * * * * * * * * * * * * * * * * * * * * * * * * * * //

dimensions      [0 1 -1 0 0 0 0];

internalField   nonuniform List<vector> 
12225
(
(7.0036 0.430269 0)
(4.43876 0.192548 0)
(2.55678 0.0311615 0)
(2.51081 -0.0166569 0)
(1.38452 0.0193676 0)
(2.26727 -0.0342781 0)
(0.989653 0.0489838 0)
(2.18251 -0.0591714 0)
(0.79767 0.0716477 0)
(2.29172 -0.0978385 0)
(0.688912 0.0993563 0)
(2.74361 -0.138632 0)
(0.948227 0.102598 0)
(3.39728 -0.172141 0)
(3.53122 -0.168499 0)
(4.69665 0.0499843 0)
(14.8447 -2.43396 0)
(7.11977 5.13361 0)
(9.54626 0.981578 0)
(9.54329 0.860848 0)
(6.68685 0.466292 0)
(7.59026 0.214532 0)
(4.09069 0.140329 0)
(6.84293 0.0107966 0)
(2.66538 0.132668 0)
(6.68892 -0.0903321 0)
(1.82305 0.141854 0)
(7.03864 -0.165059 0)
(1.26105 0.123905 0)
(8.12108 -0.414384 0)
(1.38521 0.252325 0)
(9.95498 -1.44223 0)
(3.43448 0.271634 0)
(12.3899 -4.06811 0)
(10.4277 -1.92782 0)
(7.77673 0.484976 0)
(9.11857 0.763538 0)
(12.1667 0.951375 0)
(8.32975 0.62401 0)
(11.8319 0.443367 0)
(6.22632 0.310352 0)
(11.4128 0.206424 0)
(4.58325 0.221569 0)
(11.3147 -0.0195624 0)
(3.87493 0.193015 0)
(11.376 -0.277815 0)
(4.35127 0.187276 0)
(11.2522 -0.722972 0)
(5.72937 0.175802 0)
(11.0896 -1.4914 0)
(7.21566 0.0521977 0)
(12.1169 -3.86626 0)
(6.93313 0.350509 0)
(9.35344 -2.39108 0)
(7.21928 0.524986 0)
(13.9927 0.960945 0)
(7.93008 0.609522 0)
(14.2951 0.553778 0)
(7.47464 0.420973 0)
(14.1163 0.270977 0)
(7.17606 0.396772 0)
(13.7384 -0.145184 0)
(7.2571 0.459677 0)
(13.2697 -0.698725 0)
(7.65983 0.576826 0)
(12.8748 -1.4227 0)
(8.26762 0.699342 0)
(12.6514 -2.31322 0)
(9.02487 0.0414894 0)
(11.8875 -3.63701 0)
(8.68737 -1.43266 0)
(8.36406 0.681531 0)
(6.4243 0.570069 0)
(14.0107 0.565883 0)
(8.47366 0.674558 0)
(13.9579 0.284478 0)
(9.16944 0.636768 0)
(13.6433 -0.00261874 0)
(9.51717 0.657918 0)
(13.2138 -0.388723 0)
(9.59207 0.734432 0)
(12.813 -0.871278 0)
(9.44561 0.876912 0)
(12.5827 -1.52134 0)
(9.14986 1.08986 0)
(12.5709 -2.48999 0)
(8.8276 1.13193 0)
(11.6171 -5.02803 0)
(8.54277 1.2661 0)
(8.72241 0.128431 0)
(7.95668 0.616884 0)
(11.803 0.152414 0)
(9.50526 0.65479 0)
(11.7393 0.0502188 0)
(10.0883 0.693944 0)
(11.6004 -0.165668 0)
(10.3206 0.725844 0)
(11.4762 -0.457517 0)
(10.3005 0.783005 0)
(11.3896 -0.853556 0)
(10.0327 0.831996 0)
(11.3555 -1.40005 0)
(9.4922 0.801173 0)
(11.4185 -2.13845 0)
(8.80039 0.725721 0)
(10.9988 -3.9205 0)
(7.73308 1.33542 0)
(9.48939 -0.217512 0)
(9.3442 0.812702 0)
(10.4388 -0.265944 0)
(10.1409 0.930565 0)
(10.5538 -0.304555 0)
(10.3989 1.02002 0)
(10.5818 -0.502893 0)
(10.5204 1.07551 0)
(10.6253 -0.781132 0)
(10.5637 1.15349 0)
(10.6717 -1.15763 0)
(10.5157 1.23523 0)
(10.7 -1.6355 0)
(10.3672 1.26117 0)
(10.6882 -2.32708 0)
(10.0533 1.27107 0)
(10.3761 -3.95414 0)
(8.29911 2.01904 0)
(9.6972 -0.952173 0)
(9.84913 0.701159 0)
(10.156 -0.325953 0)
(10.4067 0.855109 0)
(10.3899 -0.349886 0)
(10.5804 0.906882 0)
(10.4706 -0.493959 0)
(10.7018 0.892972 0)
(10.5521 -0.686234 0)
(10.8055 0.872713 0)
(10.6439 -0.93517 0)
(10.8812 0.823837 0)
(10.7355 -1.23262 0)
(10.9083 0.671308 0)
(10.7539 -1.67249 0)
(10.7235 0.519559 0)
(10.4925 -2.47388 0)
(8.89409 0.980552 0)
(9.96398 -0.484033 0)
(10.0857 0.802252 0)
(10.0198 -0.583367 0)
(10.5355 1.02149 0)
(10.3107 -0.604464 0)
(10.6752 1.07502 0)
(10.4401 -0.724926 0)
(10.7776 1.04822 0)
(10.571 -0.889989 0)
(10.8574 1.00368 0)
(10.7115 -1.11772 0)
(10.899 0.92114 0)
(10.8319 -1.3949 0)
(10.8743 0.734798 0)
(10.8223 -1.76089 0)
(10.6026 0.50569 0)
(10.5207 -2.06886 0)
(9.35041 0.586189 0)
(10.0236 -0.39174 0)
(10.139 0.64864 0)
(10.0424 -0.511887 0)
(10.5103 0.878053 0)
(10.3335 -0.456461 0)
(10.6214 0.869212 0)
(10.482 -0.493608 0)
(10.6979 0.778238 0)
(10.6291 -0.572103 0)
(10.7342 0.657878 0)
(10.7637 -0.695317 0)
(10.718 0.495526 0)
(10.8403 -0.844972 0)
(10.6184 0.264034 0)
(10.7656 -1.03218 0)
(10.2825 0.0701486 0)
(10.4795 -1.0529 0)
(9.62355 0.1239 0)
(10.207 -0.0329711 0)
(10.141 0.699996 0)
(10.0707 -0.69183 0)
(10.4525 0.902527 0)
(10.2986 -0.618864 0)
(10.5375 0.847639 0)
(10.4303 -0.645481 0)
(10.6033 0.73528 0)
(10.5607 -0.707348 0)
(10.6273 0.586785 0)
(10.6605 -0.791219 0)
(10.6093 0.383157 0)
(10.6813 -0.869287 0)
(10.527 0.117106 0)
(10.5711 -0.922149 0)
(10.2917 -0.113754 0)
(10.361 -0.765144 0)
(10.02 -0.154138 0)
(10.2457 -0.125398 0)
(10.0968 0.468 0)
(10.1509 -0.495019 0)
(10.3536 0.59575 0)
(10.2934 -0.374543 0)
(10.4203 0.527516 0)
(10.4094 -0.354718 0)
(10.4848 0.418855 0)
(10.5239 -0.374122 0)
(10.5132 0.275701 0)
(10.5994 -0.414602 0)
(10.5158 0.0932879 0)
(10.5971 -0.461619 0)
(10.4768 -0.103333 0)
(10.4996 -0.500114 0)
(10.3572 -0.232153 0)
(10.3647 -0.405643 0)
(10.266 -0.21989 0)
(10.374 -0.110312 0)
(10.05 0.411003 0)
(10.1754 -0.487161 0)
(10.2548 0.437209 0)
(10.2379 -0.367416 0)
(10.3087 0.367368 0)
(10.3306 -0.345496 0)
(10.3793 0.250862 0)
(10.4246 -0.355224 0)
(10.4227 0.0994896 0)
(10.4823 -0.374836 0)
(10.4463 -0.0796891 0)
(10.4818 -0.403402 0)
(10.433 -0.24666 0)
(10.4262 -0.431266 0)
(10.3773 -0.339199 0)
(10.3687 -0.392671 0)
(10.3572 -0.320562 0)
(10.4223 -0.276564 0)
(10.0154 0.199633 0)
(10.1907 -0.285704 0)
(10.1932 0.167331 0)
(10.2052 -0.179221 0)
(10.2293 0.131668 0)
(10.2792 -0.171294 0)
(10.3063 0.047251 0)
(10.3626 -0.197723 0)
(10.3661 -0.0586848 0)
(10.4143 -0.235697 0)
(10.4056 -0.175998 0)
(10.4268 -0.286422 0)
(10.4124 -0.274991 0)
(10.4113 -0.331659 0)
(10.3996 -0.324135 0)
(10.4066 -0.337206 0)
(10.4109 -0.316042 0)
(10.4698 -0.304856 0)
(9.99664 0.0971471 0)
(10.1445 -0.185787 0)
(10.1464 0.0217024 0)
(10.1501 -0.13359 0)
(10.1622 -0.00858116 0)
(10.2089 -0.146092 0)
(10.241 -0.0769122 0)
(10.2919 -0.186683 0)
(10.311 -0.159356 0)
(10.3486 -0.237929 0)
(10.3575 -0.244763 0)
(10.3791 -0.298289 0)
(10.3805 -0.316266 0)
(10.3939 -0.350063 0)
(10.3959 -0.361011 0)
(10.4185 -0.380187 0)
(10.4238 -0.381051 0)
(10.4789 -0.387245 0)
(9.99364 0.0155217 0)
(10.1059 -0.0857443 0)
(10.1088 -0.044274 0)
(10.1138 -0.093203 0)
(10.1188 -0.0748448 0)
(10.1675 -0.118897 0)
(10.198 -0.120571 0)
(10.2518 -0.163805 0)
(10.274 -0.180546 0)
(10.3153 -0.219142 0)
(10.3278 -0.243917 0)
(10.3597 -0.27781 0)
(10.3659 -0.301329 0)
(10.3939 -0.328999 0)
(10.3995 -0.34699 0)
(10.4328 -0.370802 0)
(10.4355 -0.383794 0)
(10.4883 -0.397015 0)
(9.99174 0.00478023 0)
(10.0636 -0.025129 0)
(10.0567 -0.0348808 0)
(10.0678 -0.066438 0)
(10.0778 -0.0756841 0)
(10.128 -0.0997377 0)
(10.1573 -0.115914 0)
(10.211 -0.14468 0)
(10.2337 -0.168954 0)
(10.2781 -0.199557 0)
(10.292 -0.226551 0)
(10.33 -0.25703 0)
(10.3384 -0.283315 0)
(10.3731 -0.312053 0)
(10.3788 -0.336807 0)
(10.4152 -0.365544 0)
(10.4146 -0.388063 0)
(10.4634 -0.407482 0)
(9.99159 0.0141611 0)
(10.0467 0.016132 0)
(10.0399 -0.0105999 0)
(10.0576 -0.0377045 0)
(10.0749 -0.0565546 0)
(10.1255 -0.0778743 0)
(10.1554 -0.0988829 0)
(10.2072 -0.12384 0)
(10.2312 -0.149009 0)
(10.2754 -0.176646 0)
(10.2912 -0.203449 0)
(10.3293 -0.232179 0)
(10.3395 -0.259386 0)
(10.3737 -0.288331 0)
(10.3801 -0.315658 0)
(10.414 -0.345726 0)
(10.4132 -0.371585 0)
(10.4567 -0.393401 0)
(9.99174 0.0329203 0)
(10.0502 0.049594 0)
(10.0567 0.00989182 0)
(10.08 -0.0181138 0)
(10.1007 -0.0402688 0)
(10.1507 -0.0615058 0)
(10.1819 -0.0836337 0)
(10.2316 -0.106431 0)
(10.2563 -0.130569 0)
(10.2985 -0.15553 0)
(10.3151 -0.181094 0)
(10.3508 -0.207343 0)
(10.3615 -0.233578 0)
(10.3926 -0.26043 0)
(10.3991 -0.287049 0)
(10.4288 -0.315304 0)
(10.4281 -0.341036 0)
(10.4653 -0.36281 0)
(9.98991 0.0406692 0)
(10.0547 0.0525784 0)
(10.0828 -0.00639629 0)
(10.1167 -0.04072 0)
(10.1419 -0.0641585 0)
(10.1904 -0.0823044 0)
(10.2224 -0.102127 0)
(10.269 -0.121037 0)
(10.2935 -0.142771 0)
(10.3321 -0.164014 0)
(10.3483 -0.187424 0)
(10.3802 -0.21011 0)
(10.3905 -0.234414 0)
(10.4174 -0.257931 0)
(10.4229 -0.282795 0)
(10.4473 -0.307827 0)
(10.4462 -0.332456 0)
(10.4768 -0.352844 0)
(9.9905 0.0315514 0)
(10.0684 0.0219337 0)
(10.1261 -0.0558046 0)
(10.1769 -0.0968109 0)
(10.2125 -0.119828 0)
(10.2609 -0.132784 0)
(10.2938 -0.14781 0)
(10.3361 -0.161689 0)
(10.3601 -0.179858 0)
(10.3941 -0.196943 0)
(10.4103 -0.217381 0)
(10.4377 -0.236261 0)
(10.4479 -0.258002 0)
(10.4702 -0.278065 0)
(10.4754 -0.300741 0)
(10.4946 -0.322361 0)
(10.4939 -0.34521 0)
(10.5187 -0.363486 0)
(9.99119 0.0098336 0)
(10.092 -0.0297951 0)
(10.1869 -0.120905 0)
(10.2595 -0.16283 0)
(10.3093 -0.181174 0)
(10.359 -0.1872 0)
(10.3929 -0.196068 0)
(10.4305 -0.204395 0)
(10.4542 -0.218128 0)
(10.4837 -0.230761 0)
(10.5002 -0.247613 0)
(10.5233 -0.262636 0)
(10.5338 -0.281336 0)
(10.5517 -0.298018 0)
(10.5573 -0.318068 0)
(10.5719 -0.3364 0)
(10.5723 -0.356974 0)
(10.5921 -0.373105 0)
(9.99284 -0.0234094 0)
(10.1275 -0.103681 0)
(10.2671 -0.204983 0)
(10.3665 -0.241636 0)
(10.432 -0.250841 0)
(10.4836 -0.248414 0)
(10.5184 -0.250917 0)
(10.5518 -0.253708 0)
(10.5754 -0.26298 0)
(10.6012 -0.271333 0)
(10.6182 -0.284656 0)
(10.6379 -0.29627 0)
(10.6487 -0.312075 0)
(10.6632 -0.325826 0)
(10.6692 -0.343354 0)
(10.6802 -0.358798 0)
(10.6814 -0.377108 0)
(10.6969 -0.391247 0)
(9.99044 -0.0716134 0)
(10.1743 -0.201218 0)
(10.3678 -0.305501 0)
(10.5 -0.32789 0)
(10.5805 -0.322577 0)
(10.6343 -0.310198 0)
(10.6689 -0.305572 0)
(10.6996 -0.30256 0)
(10.7226 -0.30669 0)
(10.746 -0.310562 0)
(10.7624 -0.319875 0)
(10.7794 -0.328016 0)
(10.7895 -0.340543 0)
(10.8006 -0.351317 0)
(10.8055 -0.365903 0)
(10.8124 -0.378458 0)
(10.8122 -0.394012 0)
(10.8222 -0.405959 0)
(9.99201 -0.136392 0)
(10.2447 -0.323057 0)
(10.5026 -0.419043 0)
(10.6712 -0.417652 0)
(10.7627 -0.394179 0)
(10.8175 -0.371101 0)
(10.8494 -0.358926 0)
(10.8772 -0.350564 0)
(10.896 -0.350068 0)
(10.9149 -0.350459 0)
(10.9253 -0.356337 0)
(10.9355 -0.361467 0)
(10.9375 -0.370761 0)
(10.9394 -0.378622 0)
(10.934 -0.389813 0)
(10.9292 -0.399393 0)
(10.9165 -0.41131 0)
(10.9116 -0.420454 0)
(9.98975 -0.219937 0)
(10.3368 -0.468167 0)
(10.6736 -0.539765 0)
(10.8757 -0.508227 0)
(10.9697 -0.464838 0)
(11.0134 -0.428037 0)
(11.0285 -0.404775 0)
(11.0352 -0.388341 0)
(11.0291 -0.381368 0)
(11.0194 -0.376915 0)
(10.998 -0.378122 0)
(10.9736 -0.379027 0)
(10.9378 -0.383747 0)
(10.9 -0.387223 0)
(10.8523 -0.393586 0)
(10.8043 -0.398909 0)
(10.7463 -0.405226 0)
(10.6947 -0.409999 0)
(9.98332 -0.332094 0)
(10.4676 -0.64235 0)
(10.8829 -0.667124 0)
(11.0724 -0.602638 0)
(11.103 -0.53718 0)
(11.0583 -0.483101 0)
(10.9743 -0.444954 0)
(10.8732 -0.416189 0)
(10.7578 -0.397971 0)
(10.6351 -0.383234 0)
(10.5037 -0.374849 0)
(10.3668 -0.366292 0)
(10.2244 -0.362408 0)
(10.0777 -0.356957 0)
(9.92893 -0.35581 0)
(9.77739 -0.353219 0)
(9.62626 -0.352921 0)
(9.47637 -0.351084 0)
(10.0026 -0.453666 0)
(10.619 -0.818965 0)
(10.9016 -0.75206 0)
(10.7933 -0.62373 0)
(10.4938 -0.51252 0)
(10.1377 -0.429171 0)
(9.77025 -0.373541 0)
(9.41777 -0.334697 0)
(9.077 -0.307269 0)
(8.7557 -0.284587 0)
(8.44675 -0.267633 0)
(8.1537 -0.251312 0)
(7.87299 -0.240024 0)
(7.60344 -0.227324 0)
(7.34868 -0.221121 0)
(7.09918 -0.211813 0)
(6.87079 -0.210843 0)
(6.6414 -0.204169 0)
(10.0974 -0.750794 0)
(10.0458 -1.01321 0)
(9.42492 -0.801078 0)
(8.51447 -0.572172 0)
(7.65507 -0.378722 0)
(6.92896 -0.244881 0)
(6.32743 -0.167517 0)
(5.83175 -0.126248 0)
(5.40937 -0.104701 0)
(5.04881 -0.0923209 0)
(4.72876 -0.0849625 0)
(4.44805 -0.0793508 0)
(4.19168 -0.0758094 0)
(3.9628 -0.0718938 0)
(3.75112 -0.0721394 0)
(3.55596 -0.0690881 0)
(3.38376 -0.0802725 0)
(3.21887 -0.0828684 0)
(8.51674 -0.436076 0)
(6.11023 -0.380898 0)
(4.29833 -0.138054 0)
(3.12392 -0.0213895 0)
(2.48116 0.0191316 0)
(2.12056 0.0224712 0)
(1.89635 0.0137139 0)
(1.73507 0.00461382 0)
(1.59906 -0.00157018 0)
(1.47834 -0.00479234 0)
(1.36626 -0.00640539 0)
(1.26412 -0.00671874 0)
(1.16846 -0.00670778 0)
(1.08175 -0.00638981 0)
(0.999722 -0.00665865 0)
(0.919493 -0.00703442 0)
(0.851994 -0.0186105 0)
(0.731479 -0.00613717 0)
(-0.0520569 0.138031 0)
(-0.15721 0.0716255 0)
(-0.207314 0.0165911 0)
(-0.195572 -0.0442418 0)
(-0.118406 -0.0989692 0)
(0.0116921 -0.145014 0)
(0.185672 -0.175576 1.11357e-17)
(0.387362 -0.193563 -1.10607e-17)
(0.605563 -0.19798 0)
(0.827939 -0.192741 -1.09175e-17)
(1.04512 -0.17842 0)
(1.24811 -0.157673 0)
(1.43036 -0.131052 0)
(1.5866 -0.101704 1.06429e-17)
(1.71419 -0.0704621 0)
(1.81034 -0.0383979 0)
(1.87415 -0.00625539 -1.04458e-17)
(1.90635 0.0240074 0)
(1.90862 0.0504788 0)
(1.88301 0.0722162 0)
(1.83321 0.0891911 1.01963e-17)
(1.76181 0.100747 0)
(1.6727 0.108617 1.00744e-17)
(1.5676 0.111523 0)
(1.45113 0.109638 0)
(1.32603 0.108005 9.89565e-18)
(1.19255 0.111318 0)
(1.04993 0.116452 -9.7793e-18)
(0.901371 0.121699 0)
(0.747469 0.126737 9.66441e-18)
(0.589776 0.130722 0)
(0.430568 0.133159 0)
(0.272116 0.134299 0)
(0.114899 0.134062 0)
(-0.0407633 0.131156 0)
(-0.192801 0.126472 -9.32966e-18)
(-0.339567 0.120362 0)
(-0.480649 0.113863 1.84406e-17)
(-0.614613 0.107382 0)
(-0.741046 0.100171 -1.82216e-17)
(-0.858485 0.0931627 0)
(-0.967102 0.0864255 0)
(-1.06733 0.0787067 1.78884e-17)
(-1.15872 0.0703749 0)
(-1.24187 0.0626779 1.76651e-17)
(-1.31689 0.0554412 -1.75531e-17)
(-1.38324 0.0483433 0)
(-1.44166 0.0420716 -1.73282e-17)
(-1.49322 0.03659 -1.72151e-17)
(-1.53697 0.0328666 0)
(-1.5731 0.0312985 0)
(-1.60351 0.0313328 0)
(-1.63034 0.0315099 0)
(-1.65455 0.0315518 0)
(-1.67756 0.0324475 1.65281e-17)
(-1.70125 0.0340097 0)
(-1.727 0.0362544 -1.62989e-17)
(-1.75358 0.0383428 0)
(-1.77973 0.0389786 0)
(-1.80546 0.0395613 1.59525e-17)
(-1.83142 0.0412906 0)
(-1.85929 0.0424733 -1.57211e-17)
(-1.88912 0.0441089 0)
(-1.9206 0.0455523 0)
(-1.95323 0.0463058 0)
(-1.98639 0.0474282 1.52555e-17)
(-2.02006 0.0493839 0)
(-2.05431 0.0516512 0)
(-2.08926 0.0540445 1.49058e-17)
(-2.12518 0.0553764 0)
(-2.15932 0.0556248 1.46711e-17)
(-2.19056 0.0563147 0)
(-2.21904 0.0568971 0)
(-2.24358 0.0569007 0)
(-2.26288 0.0563078 -1.42051e-17)
(-2.27633 0.0550918 0)
(-2.2845 0.0543194 0)
(-2.28924 0.0542078 -1.38613e-17)
(-2.29097 0.0531981 -1.37479e-17)
(-2.28798 0.0515091 0)
(-2.27849 0.0492009 -1.35226e-17)
(-2.26238 0.0462334 0)
(-2.23925 0.0430394 -2.66023e-17)
(-2.20912 0.0395715 0)
(-2.17252 0.0358714 -2.61668e-17)
(-2.1293 0.0327903 0)
(-2.08052 0.0303649 2.5738e-17)
(-2.02703 0.0283865 0)
(-1.96895 0.0269509 0)
(-1.90695 0.0259838 0)
(-1.84256 0.0253995 -2.4901e-17)
(-1.77557 0.02513 0)
(-1.70756 0.0250769 2.44992e-17)
(-1.63855 0.0256431 0)
(-1.56924 0.0266575 -2.41099e-17)
(-1.50157 0.0291577 -2.39213e-17)
(-1.43473 0.0303386 -2.3737e-17)
(-1.36771 0.031401 0)
(-1.30243 0.0314381 0)
(-1.23777 0.0326173 0)
(-1.17189 0.0334 0)
(-1.10691 0.0330069 0)
(-1.03691 0.0318362 0)
(-0.967905 0.0331736 0)
(-0.896797 0.0327918 0)
(-0.829427 0.0351022 2.22132e-17)
(-0.76171 0.0355925 2.2061e-17)
(-0.699013 0.0399703 0)
(-0.638068 0.0412463 0)
(-0.581899 0.0408407 0)
(-0.513873 0.0382635 2.14805e-17)
(-0.451092 0.0424919 0)
(-0.382113 0.0407637 0)
(-0.316913 0.0435909 0)
(-0.245864 0.0406355 0)
(-0.172907 0.0430304 -2.08061e-17)
(-0.0975286 0.0445493 0)
(-0.0165581 0.0435493 0)
(0.0689038 0.0450036 2.04289e-17)
(0.157812 0.0450291 -2.03073e-17)
(0.249749 0.0443601 0)
(0.346104 0.0483138 -2.00747e-17)
(0.43752 0.0513633 0)
(0.529886 0.0546307 1.98481e-17)
(0.611949 0.0593811 0)
(0.682944 0.0624322 0)
(0.757896 0.0627057 0)
(0.827134 0.0634153 0)
(0.906591 0.0605693 0)
(0.980018 0.0610844 -3.83961e-17)
(1.05548 0.0626132 -3.8177e-17)
(1.11551 0.0673396 0)
(1.16601 0.0664137 0)
(1.21071 0.0677447 0)
(1.24722 0.0636765 3.72525e-17)
(1.29487 0.0588537 0)
(1.34403 0.0572015 0)
(1.38879 0.0560744 0)
(1.43726 0.053854 3.62322e-17)
(1.47634 0.0560502 -3.59643e-17)
(1.52078 0.0527578 0)
(1.55943 0.0528054 0)
(1.60077 0.0532528 -3.51494e-17)
(1.62705 0.0583065 -3.48764e-17)
(1.65695 0.0549948 0)
(1.68571 0.0587077 0)
(1.72513 0.0557291 3.40431e-17)
(1.76205 0.0660077 -3.37637e-17)
(1.77031 0.0714058 0)
(1.78405 0.0708041 0)
(1.80911 0.0711719 -3.2927e-17)
(1.84237 0.0758802 0)
(1.85577 0.0835021 0)
(1.86679 0.0892087 -3.20827e-17)
(1.86604 0.093282 0)
(1.88057 0.0980946 -3.15224e-17)
(1.88286 0.105137 0)
(1.88847 0.109258 0)
(1.87535 0.12078 0)
(1.8619 0.126672 3.04332e-17)
(1.84655 0.133165 0)
(1.81448 0.142975 0)
(1.74236 0.154579 0)
(1.66563 0.154626 0)
(1.60021 0.15697 0)
(1.5104 0.165876 0)
(1.38249 0.172678 2.88919e-17)
(1.26332 0.174031 2.87378e-17)
(1.07938 0.181945 0)
(0.873004 0.184638 0)
(0.629646 0.183744 0)
(0.413376 0.169998 -2.83206e-17)
(0.190959 0.162968 0)
(0.0386087 0.146561 5.6346e-17)
(-0.160149 0.143742 -5.62366e-17)
(-0.261826 0.123672 -5.60576e-17)
(-0.423151 0.126675 5.59538e-17)
(-0.45771 0.0965946 -5.57516e-17)
(-0.615744 0.129328 5.57323e-17)
(-0.564612 -0.00381851 0)
(0.0100983 0.24921 0)
(0.0143219 0.192578 0)
(0.0492281 0.00821238 -2.27965e-17)
(0.12036 -0.197976 0)
(0.235087 -0.383968 2.23655e-17)
(0.387214 -0.535366 2.22189e-17)
(0.568243 -0.644288 1.10441e-17)
(0.768033 -0.710299 1.09817e-17)
(0.975308 -0.736989 0)
(1.17947 -0.73079 1.08547e-17)
(1.3719 -0.695014 0)
(1.54527 -0.636774 0)
(1.69561 -0.56221 -2.1321e-17)
(1.81818 -0.477836 -1.05953e-17)
(1.91292 -0.385953 2.10565e-17)
(1.97804 -0.291405 2.09229e-17)
(2.01488 -0.19906 1.03958e-17)
(2.02355 -0.111002 0)
(2.00649 -0.0280031 0)
(1.96367 0.046691 0)
(1.89893 0.112132 1.01368e-17)
(1.81235 0.17124 0)
(1.7086 0.224136 -3.00378e-17)
(1.58649 0.266952 0)
(1.44836 0.301917 0)
(1.29474 0.332499 -9.83199e-18)
(1.12911 0.356469 0)
(0.954221 0.373749 9.7156e-18)
(0.773896 0.384792 1.93128e-17)
(0.589032 0.392045 -9.59759e-18)
(0.402408 0.39413 0)
(0.215286 0.39033 0)
(0.0273515 0.383027 0)
(-0.160908 0.376021 1.87311e-17)
(-0.347708 0.36737 1.86166e-17)
(-0.531745 0.355051 9.25129e-18)
(-0.710299 0.34025 0)
(-0.883897 0.32316 -1.82762e-17)
(-1.04858 0.302657 0)
(-1.20664 0.280819 1.80507e-17)
(-1.35645 0.258407 0)
(-1.49964 0.235675 0)
(-1.63467 0.215321 -1.77165e-17)
(-1.76247 0.19629 0)
(-1.88549 0.178402 -5.24863e-17)
(-2.00282 0.159667 1.73856e-17)
(-2.11357 0.140777 0)
(-2.21736 0.123871 1.71654e-17)
(-2.31508 0.106222 1.70552e-17)
(-2.40549 0.086625 0)
(-2.48666 0.0676439 0)
(-2.56073 0.0530506 0)
(-2.62956 0.0434468 0)
(-2.69509 0.0384016 0)
(-2.75668 0.0369634 -1.63736e-17)
(-2.81641 0.0365882 -3.2515e-17)
(-2.87455 0.0368469 1.61413e-17)
(-2.92844 0.0344939 0)
(-2.97993 0.0306713 -3.18128e-17)
(-3.02937 0.0294719 1.57874e-17)
(-3.07612 0.0303682 0)
(-3.12366 0.0309957 1.55498e-17)
(-3.16914 0.0334353 0)
(-3.21232 0.0345295 0)
(-3.25373 0.0335756 3.03749e-17)
(-3.29392 0.0326239 -1.50672e-17)
(-3.32973 0.0305362 2.98916e-17)
(-3.36309 0.0277159 -2.96502e-17)
(-3.39116 0.0247266 -1.47046e-17)
(-3.41627 0.0208978 0)
(-3.43533 0.0138866 -1.44628e-17)
(-3.44743 0.00408729 0)
(-3.45391 -0.00631524 0)
(-3.45199 -0.0186808 0)
(-3.44092 -0.0328465 -1.39829e-17)
(-3.42162 -0.0469078 0)
(-3.39578 -0.0571819 -2.7495e-17)
(-3.3641 -0.0645195 4.08941e-17)
(-3.32698 -0.0732511 1.35162e-17)
(-3.28355 -0.0844952 0)
(-3.23211 -0.097354 1.32878e-17)
(-3.17534 -0.110147 0)
(-3.11286 -0.122293 2.61242e-17)
(-3.0452 -0.133372 0)
(-2.97246 -0.143939 2.56812e-17)
(-2.89457 -0.153382 -5.09224e-17)
(-2.8127 -0.162341 -2.52473e-17)
(-2.72841 -0.170334 0)
(-2.63911 -0.177868 0)
(-2.54759 -0.183466 0)
(-2.45391 -0.187618 2.4407e-17)
(-2.35694 -0.191613 0)
(-2.25879 -0.194297 -2.40008e-17)
(-2.16066 -0.194698 0)
(-2.06199 -0.196284 7.08218e-17)
(-1.9633 -0.195646 2.34172e-17)
(-1.8639 -0.196724 2.32313e-17)
(-1.76649 -0.194045 0)
(-1.67145 -0.19346 0)
(-1.57581 -0.194332 0)
(-1.47759 -0.195111 0)
(-1.38032 -0.197571 0)
(-1.27739 -0.201898 4.43231e-17)
(-1.18078 -0.200017 4.3987e-17)
(-1.08077 -0.200205 0)
(-0.993021 -0.1946 -2.16759e-17)
(-0.896393 -0.195516 -2.15239e-17)
(-0.808965 -0.188742 0)
(-0.714105 -0.187665 -4.24449e-17)
(-0.6352 -0.187177 0)
(-0.538193 -0.197402 2.09383e-17)
(-0.451586 -0.191342 0)
(-0.345812 -0.199416 0)
(-0.250959 -0.196239 -4.10584e-17)
(-0.137451 -0.204696 0)
(-0.0331322 -0.205019 2.02725e-17)
(0.0924333 -0.212974 0)
(0.219287 -0.220652 0)
(0.355579 -0.224815 1.98871e-17)
(0.49648 -0.229291 1.97707e-17)
(0.64208 -0.234695 0)
(0.791577 -0.235172 -1.95332e-17)
(0.951104 -0.236295 0)
(1.11007 -0.228137 1.92965e-17)
(1.27457 -0.218522 3.83629e-17)
(1.4222 -0.212201 0)
(1.5791 -0.213564 0)
(1.72424 -0.213725 0)
(1.88387 -0.215208 0)
(2.0306 -0.210164 3.72302e-17)
(2.18471 -0.206912 1.11006e-16)
(2.32069 -0.188108 0)
(2.44428 -0.182943 0)
(2.56309 -0.171986 0)
(2.66736 -0.17369 -3.60795e-17)
(2.7689 -0.178238 0)
(2.86897 -0.177948 0)
(2.96332 -0.176585 7.06153e-17)
(3.05654 -0.177104 3.50337e-17)
(3.132 -0.172566 3.47651e-17)
(3.22026 -0.179923 0)
(3.28434 -0.173633 0)
(3.35189 -0.17507 3.39201e-17)
(3.39905 -0.164258 -3.36141e-17)
(3.44446 -0.178401 0)
(3.47462 -0.175322 0)
(3.50904 -0.191491 -3.27214e-17)
(3.53829 -0.173516 9.71873e-17)
(3.55288 -0.168963 0)
(3.56393 -0.179749 0)
(3.57493 -0.191213 3.14596e-17)
(3.59552 -0.189257 0)
(3.59109 -0.182483 6.16252e-17)
(3.58869 -0.180743 -3.04712e-17)
(3.5613 -0.185456 0)
(3.55801 -0.194656 2.98446e-17)
(3.53414 -0.190879 5.9054e-17)
(3.52284 -0.192136 0)
(3.4757 -0.185297 0)
(3.45161 -0.194074 -2.85737e-17)
(3.4108 -0.186086 0)
(3.35317 -0.169155 5.58869e-17)
(3.25552 -0.149871 0)
(3.16308 -0.154957 0)
(3.04343 -0.146885 0)
(2.91494 -0.121951 0)
(2.72064 -0.10276 -2.66519e-17)
(2.56158 -0.0758888 -2.64626e-17)
(2.27764 -0.0267216 0)
(2.00545 -0.0017633 0)
(1.67574 0.0229274 0)
(1.38001 0.0190777 2.59577e-17)
(1.04622 0.0235369 0)
(0.838675 0.0135766 -5.1668e-17)
(0.520285 0.0315915 5.16421e-17)
(0.407452 0.000506471 5.14932e-17)
(0.126414 0.0316761 5.14842e-17)
(0.126709 -0.0159019 5.13321e-17)
(-0.170401 0.0795589 5.14963e-17)
(0.0151176 -0.116272 0)
(0.0290405 0.0718684 0)
(0.12088 -0.0372042 0)
(0.227675 -0.240443 2.29135e-17)
(0.339477 -0.467367 2.2665e-17)
(0.473659 -0.692011 -2.25136e-17)
(0.617581 -0.87408 -2.24011e-17)
(0.771723 -1.00297 -1.48066e-21)
(0.92301 -1.07353 0)
(1.06822 -1.08455 0)
(1.19511 -1.04559 0)
(1.30401 -0.965923 0)
(1.39009 -0.856774 0)
(1.45581 -0.726353 6.47143e-17)
(1.49663 -0.586235 0)
(1.51539 -0.441473 -2.13056e-17)
(1.51029 -0.295056 -2.11693e-17)
(1.48419 -0.15368 0)
(1.43567 -0.0202051 0)
(1.36934 0.103664 0)
(1.28496 0.21619 0)
(1.18483 0.315598 -2.05029e-17)
(1.0698 0.398683 0)
(0.944936 0.47108 2.02488e-17)
(0.807498 0.536197 0)
(0.660381 0.591064 0)
(0.50494 0.635989 0)
(0.346562 0.671944 3.95253e-17)
(0.184245 0.699144 0)
(0.0204751 0.718541 -1.95223e-17)
(-0.144281 0.728873 3.87999e-17)
(-0.308294 0.731969 0)
(-0.474558 0.733619 0)
(-0.641021 0.730509 0)
(-0.806287 0.720918 -1.89165e-17)
(-0.967933 0.705588 -1.87957e-17)
(-1.12637 0.684039 0)
(-1.28 0.656705 0)
(-1.42804 0.625166 3.68589e-17)
(-1.56908 0.591127 3.66192e-17)
(-1.70834 0.556786 -3.6381e-17)
(-1.84253 0.524042 0)
(-1.97484 0.490531 0)
(-2.10151 0.458347 0)
(-2.22444 0.428953 0)
(-2.34308 0.401295 3.52003e-17)
(-2.45575 0.372063 3.49667e-17)
(-2.56329 0.342402 -3.47347e-17)
(-2.66526 0.313848 0)
(-2.76122 0.285966 0)
(-2.85195 0.256932 0)
(-2.93737 0.230108 0)
(-3.02288 0.212357 3.35753e-17)
(-3.10248 0.196554 0)
(-3.17717 0.183377 0)
(-3.24534 0.175582 3.28778e-17)
(-3.30895 0.170445 3.26463e-17)
(-3.36705 0.163665 0)
(-3.4176 0.154506 -6.43593e-17)
(-3.46593 0.147632 3.19483e-17)
(-3.51053 0.141427 -3.17139e-17)
(-3.5491 0.137543 0)
(-3.58488 0.134636 0)
(-3.61473 0.130241 0)
(-3.63961 0.125438 0)
(-3.66186 0.119717 -3.0552e-17)
(-3.67999 0.111901 -6.06453e-17)
(-3.69246 0.104538 -3.00971e-17)
(-3.70144 0.097413 2.98722e-17)
(-3.70305 0.0862873 0)
(-3.6992 0.0735507 -5.88388e-17)
(-3.68752 0.0578179 -5.83904e-17)
(-3.67034 0.042021 -5.79453e-17)
(-3.64908 0.0245279 5.75035e-17)
(-3.6189 0.00240762 0)
(-3.58189 -0.0202145 8.49398e-17)
(-3.53899 -0.0397669 0)
(-3.49141 -0.0553324 -2.78772e-17)
(-3.43525 -0.0693034 -2.76644e-17)
(-3.37117 -0.0850576 0)
(-3.3009 -0.102031 0)
(-3.22712 -0.118896 -5.4041e-17)
(-3.15107 -0.133904 0)
(-3.07099 -0.148258 -5.31942e-17)
(-2.98826 -0.162057 0)
(-2.90089 -0.176576 5.23556e-17)
(-2.80989 -0.1881 1.03883e-16)
(-2.71515 -0.197969 0)
(-2.61947 -0.207247 0)
(-2.52074 -0.214763 0)
(-2.42325 -0.220883 5.02913e-17)
(-2.32411 -0.226703 0)
(-2.22164 -0.23135 4.94695e-17)
(-2.11642 -0.23461 0)
(-2.0107 -0.233893 0)
(-1.90262 -0.234144 -9.6507e-17)
(-1.79712 -0.231953 0)
(-1.68959 -0.23164 -4.7463e-17)
(-1.58617 -0.225782 0)
(-1.47847 -0.226622 -4.66957e-17)
(-1.3715 -0.225852 0)
(-1.26217 -0.225137 0)
(-1.15436 -0.228957 0)
(-1.04358 -0.231383 -1.35697e-16)
(-0.943139 -0.22296 -4.48711e-17)
(-0.833697 -0.219741 0)
(-0.740229 -0.20931 0)
(-0.638099 -0.21074 0)
(-0.552034 -0.198411 0)
(-0.44771 -0.194638 4.32363e-17)
(-0.361361 -0.18999 -8.58372e-17)
(-0.253789 -0.206786 -4.26333e-17)
(-0.166022 -0.198632 8.46579e-17)
(-0.0460185 -0.213945 8.40942e-17)
(0.0558319 -0.210539 4.17613e-17)
(0.186152 -0.225309 0)
(0.299165 -0.226163 8.23967e-17)
(0.437897 -0.242407 0)
(0.570141 -0.251634 -8.12854e-17)
(0.718512 -0.257942 -4.03845e-17)
(0.864739 -0.262458 0)
(1.01961 -0.270621 7.97624e-17)
(1.16877 -0.27336 3.96281e-17)
(1.33077 -0.281195 0)
(1.48923 -0.278871 3.90899e-17)
(1.66272 -0.268492 -1.16508e-16)
(1.82223 -0.256489 0)
(1.98663 -0.255879 0)
(2.13859 -0.255589 0)
(2.29892 -0.258879 0)
(2.45535 -0.254254 -7.51535e-17)
(2.61123 -0.251138 -7.46546e-17)
(2.76231 -0.220344 0)
(2.89988 -0.21398 0)
(3.03075 -0.20041 0)
(3.15197 -0.198546 0)
(3.25828 -0.203443 0)
(3.3773 -0.20678 0)
(3.48971 -0.20618 -7.09506e-17)
(3.60203 -0.205906 -1.65178e-20)
(3.6969 -0.1986 0)
(3.80632 -0.209451 0)
(3.89645 -0.196745 -6.86056e-17)
(3.9884 -0.197592 0)
(4.06846 -0.176832 6.74238e-17)
(4.13735 -0.18766 6.68063e-17)
(4.17951 -0.170755 0)
(4.23372 -0.189346 0)
(4.27267 -0.165306 -6.48998e-17)
(4.32285 -0.156179 -1.28511e-16)
(4.35084 -0.160262 0)
(4.38372 -0.171976 0)
(4.42561 -0.163249 0)
(4.43867 -0.148481 -6.16896e-17)
(4.46718 -0.135453 6.10019e-17)
(4.4663 -0.135712 0)
(4.48674 -0.142248 1.19368e-16)
(4.47075 -0.129941 5.90298e-17)
(4.48829 -0.127925 -1.16765e-16)
(4.46533 -0.109307 0)
(4.46409 -0.116407 0)
(4.43331 -0.094837 -1.12745e-16)
(4.39212 -0.0672408 -5.57161e-17)
(4.30695 -0.037822 0)
(4.24299 -0.035873 0)
(4.11007 -0.0180977 0)
(3.99997 0.0245468 0)
(3.78809 0.0523999 -1.05587e-16)
(3.61945 0.0959535 0)
(3.32165 0.166584 0)
(3.06352 0.191539 0)
(2.71415 0.220203 0)
(2.39924 0.203593 0)
(2.00946 0.187484 0)
(1.77239 0.152912 -1.00637e-16)
(1.36859 0.148896 0)
(1.24084 0.082248 0)
(0.85628 0.105185 -1.9943e-16)
(0.851176 0.0229637 9.92532e-17)
(0.465721 0.112396 -9.94061e-17)
(0.661831 -0.127056 9.87858e-17)
(0.0206539 -0.0932389 0)
(0.1249 -0.267877 -4.69564e-17)
(0.247438 -0.488377 0)
(0.375129 -0.753881 -2.27972e-17)
(0.501591 -0.99766 0)
(0.617531 -1.18676 0)
(0.722088 -1.30471 2.24465e-17)
(0.802664 -1.34834 0)
(0.865517 -1.31875 0)
(0.904705 -1.23317 0)
(0.926751 -1.11056 0)
(0.929493 -0.961456 0)
(0.917815 -0.794492 -8.66187e-17)
(0.889028 -0.617461 -4.30266e-17)
(0.84664 -0.434779 4.27471e-17)
(0.790337 -0.25374 0)
(0.722151 -0.0810298 0)
(0.640725 0.0804678 0)
(0.549512 0.229316 0)
(0.448051 0.362763 0)
(0.339144 0.480391 -4.11512e-17)
(0.220988 0.582301 -4.08984e-17)
(0.0949342 0.673038 4.06492e-17)
(-0.0368907 0.749054 -4.04015e-17)
(-0.172798 0.811833 0)
(-0.311437 0.859959 0)
(-0.451579 0.896029 -3.96581e-17)
(-0.592054 0.920753 0)
(-0.733443 0.934881 0)
(-0.87537 0.943479 -3.89247e-17)
(-1.01787 0.948932 -3.86813e-17)
(-1.15825 0.946587 -3.84368e-17)
(-1.29558 0.937434 0)
(-1.42966 0.922097 0)
(-1.55918 0.900568 3.76931e-17)
(-1.68372 0.870862 0)
(-1.80428 0.835256 0)
(-1.92122 0.795725 -3.69484e-17)
(-2.03512 0.757674 3.66969e-17)
(-2.14742 0.719532 -3.64482e-17)
(-2.25322 0.680785 0)
(-2.35735 0.641423 0)
(-2.45742 0.605053 -7.14194e-17)
(-2.55468 0.5708 0)
(-2.64654 0.53277 -7.04534e-17)
(-2.73497 0.494736 -1.04963e-16)
(-2.81973 0.458952 1.04242e-16)
(-2.89925 0.422735 -6.90144e-17)
(-2.9756 0.385566 0)
(-3.04943 0.349962 0)
(-3.12292 0.321868 -6.76021e-17)
(-3.19375 0.297443 -3.35706e-17)
(-3.25825 0.271892 0)
(-3.31862 0.250799 0)
(-3.37435 0.235505 -3.28785e-17)
(-3.42472 0.218791 -6.52972e-17)
(-3.46878 0.199952 0)
(-3.50693 0.182116 6.43791e-17)
(-3.54104 0.167704 -6.39198e-17)
(-3.56999 0.154148 6.34639e-17)
(-3.59283 0.140057 0)
(-3.60989 0.126879 0)
(-3.62237 0.11553 0)
(-3.62975 0.103917 0)
(-3.63352 0.0933729 0)
(-3.63251 0.0781139 6.07738e-17)
(-3.62717 0.061579 0)
(-3.61461 0.0432307 0)
(-3.59626 0.0225794 0)
(-3.57359 0.00099613 1.18046e-16)
(-3.54546 -0.0227039 5.85908e-17)
(-3.51243 -0.0463986 5.81572e-17)
(-3.47451 -0.0731808 -1.15456e-16)
(-3.4301 -0.104395 5.73031e-17)
(-3.38242 -0.134397 -5.68838e-17)
(-3.32846 -0.16195 0)
(-3.26977 -0.18806 5.60371e-17)
(-3.20113 -0.214914 0)
(-3.12842 -0.240305 0)
(-3.05003 -0.262447 0)
(-2.97021 -0.283445 1.08718e-16)
(-2.88818 -0.30287 -5.3946e-17)
(-2.80289 -0.322144 -5.35327e-17)
(-2.71625 -0.341239 -1.06271e-16)
(-2.62564 -0.361387 -1.58216e-16)
(-2.53395 -0.3775 -5.23435e-17)
(-2.43749 -0.390707 0)
(-2.34124 -0.402341 -1.03071e-16)
(-2.24345 -0.41045 0)
(-2.14567 -0.416655 -1.52205e-16)
(-2.04723 -0.426527 0)
(-1.9498 -0.432898 -1.49832e-16)
(-1.84628 -0.439204 0)
(-1.74222 -0.439975 0)
(-1.63339 -0.441747 -4.87474e-17)
(-1.52595 -0.438857 0)
(-1.41512 -0.438783 4.79734e-17)
(-1.30906 -0.434383 9.51587e-17)
(-1.19502 -0.436327 4.72049e-17)
(-1.08491 -0.438213 9.36522e-17)
(-0.966052 -0.438933 -9.28953e-17)