/*--------------------------------*- C++ -*----------------------------------*\
| =========                 |                                                 |
| \\      /  F ield         | OpenFOAM: The Open Source CFD Toolbox           |
|  \\    /   O peration     | Version:  dev                                   |
|   \\  /    A nd           | Web:      http://www.openfoam.org               |
|    \\/     M anipulation  |                                                 |
\*---------------------------------------------------------------------------*/
FoamFile
{
    version     2.0;
    format      ascii;
    class       volScalarField;
    object      k;
    location    "9.142";
}
// * * * * * * * * * * * * * * * * * * * * * * * * * * * * * * * * * * * * * //

dimensions      [0 2 -2 0 0 0 0];

internalField   nonuniform List<scalar> 
12225
(
8.07625
7.95794
4.48128
4.69286
4.86298
5.82627
7.71495
8.0736
10.6467
10.6688
13.0297
12.9255
14.7034
13.4073
15.0178
23.3688
65.2939
92.3292
1.55288
6.20561
5.21162
6.80963
5.23063
7.15257
6.3685
7.77982
7.83574
8.58191
9.39349
9.532
9.95043
8.23256
9.83606
15.4741
28.4354
51.0807
0.175752
2.4698
2.6918
4.44402
3.48887
5.0126
3.97527
4.70529
4.67007
4.81726
5.35123
5.16033
5.72925
3.65307
5.02802
14.3939
28.6914
40.1456
0.0295798
0.639127
0.835016
1.49533
1.52681
1.88326
2.07877
1.88576
2.15765
1.94138
2.22094
2.25136
2.60823
2.08615
3.59593
8.79749
29.7878
31.1919
0.00782182
0.156387
0.262083
0.503455
0.691153
0.78519
1.0409
0.93067
1.04444
0.906283
1.12515
1.1158
1.9147
1.6131
3.8734
8.46295
29.3538
32.6842
0.0176932
0.138077
0.192375
0.423321
0.450319
0.590084
0.660171
0.694788
0.667849
0.722732
0.802411
1.11364
1.45717
1.37314
3.02281
8.45256
28.8756
43.3698
0.0164047
0.0579752
0.116679
0.227656
0.284855
0.282785
0.36804
0.385379
0.474235
0.509101
0.725718
0.962601
1.19881
1.53841
2.32284
6.34967
28.8071
43.1062
0.0159412
0.0303447
0.0634933
0.101714
0.156027
0.154253
0.214484
0.206919
0.251437
0.262714
0.512104
0.475419
0.954687
0.789339
1.84347
4.1948
20.7054
42.289
0.0254416
0.0336864
0.0528043
0.0824988
0.112779
0.125569
0.15794
0.170651
0.187394
0.205111
0.282093
0.28371
0.405493
0.429953
0.782618
1.90074
8.66376
19.3411
0.0519268
0.0632572
0.0649431
0.0856737
0.106687
0.121985
0.143673
0.166245
0.173788
0.181368
0.207739
0.213515
0.260422
0.28362
0.413493
0.75746
2.70412
4.10961
0.0991923
0.135911
0.116244
0.129359
0.126654
0.141323
0.153645
0.181861
0.178463
0.183941
0.192548
0.204874
0.220422
0.240516
0.270748
0.366276
0.82807
1.06292
0.217468
0.266587
0.239299
0.248537
0.217011
0.229165
0.215428
0.242544
0.227649
0.22832
0.214319
0.224161
0.223152
0.238391
0.246606
0.274533
0.379729
0.442603
0.447023
0.465992
0.433494
0.431853
0.389258
0.384732
0.35759
0.367121
0.344483
0.338983
0.305914
0.299243
0.281353
0.279392
0.273461
0.273526
0.300713
0.315112
0.764557
0.734068
0.674786
0.658508
0.588659
0.570077
0.529122
0.530005
0.503004
0.477993
0.437606
0.425421
0.406516
0.39667
0.378378
0.353303
0.327431
0.315456
1.32646
1.25505
1.1905
1.13801
1.03298
0.967278
0.883187
0.83263
0.762241
0.703423
0.64304
0.600645
0.56002
0.527517
0.491048
0.461643
0.425892
0.39741
2.12381
1.97751
1.79148
1.57857
1.3833
1.23591
1.10779
1.00874
0.915301
0.835382
0.761847
0.702438
0.645252
0.598818
0.55055
0.513001
0.472099
0.442304
2.63715
2.376
2.05708
1.76602
1.53098
1.35001
1.20242
1.08372
0.979967
0.891745
0.811355
0.743768
0.679332
0.626197
0.573192
0.532394
0.489319
0.45732
2.68976
2.42303
2.09323
1.79372
1.55481
1.36913
1.21797
1.09526
0.989895
0.900824
0.819317
0.750521
0.685087
0.630846
0.577154
0.535403
0.49171
0.458774
2.31675
2.20334
1.96565
1.70259
1.48922
1.31888
1.17764
1.06157
0.961996
0.87786
0.79989
0.733846
0.671027
0.618171
0.565593
0.524402
0.480444
0.446939
1.58138
1.58661
1.4974
1.36543
1.24343
1.12968
1.02597
0.936092
0.857515
0.790911
0.725944
0.670244
0.617292
0.570607
0.522795
0.485325
0.442542
0.410004
0.984576
0.983764
0.928603
0.857769
0.793547
0.732581
0.67958
0.636389
0.600048
0.573535
0.540087
0.508913
0.480021
0.449236
0.413391
0.386828
0.348746
0.319853
0.59393
0.611614
0.58684
0.553099
0.518693
0.490441
0.460522
0.423844
0.391357
0.366121
0.338351
0.317934
0.303484
0.290238
0.274151
0.263606
0.246508
0.233429
0.292891
0.32459
0.324153
0.316252
0.299149
0.28192
0.267668
0.260179
0.255998
0.251245
0.244313
0.239466
0.235674
0.231741
0.226414
0.222312
0.215275
0.20853
0.142637
0.169722
0.167547
0.162268
0.166973
0.176869
0.191843
0.206819
0.215883
0.219553
0.220262
0.221071
0.221409
0.220709
0.219008
0.21703
0.21348
0.208536
0.0590186
0.0705365
0.0854017
0.107673
0.131493
0.157595
0.185265
0.209626
0.226001
0.234944
0.239474
0.243281
0.245755
0.246454
0.246366
0.245498
0.243449
0.240056
0.0169744
0.0360004
0.071343
0.121517
0.17813
0.228055
0.274072
0.31515
0.343474
0.358953
0.367478
0.37512
0.378734
0.380369
0.382154
0.382021
0.380009
0.375979
0.00713702
0.060301
0.190763
0.360737
0.516645
0.628716
0.713681
0.775423
0.811593
0.821973
0.828049
0.832039
0.830357
0.827358
0.825972
0.819137
0.806738
0.789905
0.0495452
0.45448
1.11596
1.61405
1.908
2.04349
2.09154
2.12072
2.12136
2.09287
2.07002
2.03928
2.01079
1.97796
1.94325
1.88929
1.8327
1.74149
0.773426
3.3196
4.71109
4.99226
4.91827
4.80864
4.69595
4.59955
4.48866
4.38909
4.30987
4.22716
4.15877
4.0768
3.98509
3.86115
3.70949
3.34347
6.40934
8.64429
7.05027
5.4195
4.8588
4.92717
5.28946
5.84728
6.45548
7.05726
7.6304
8.12572
8.54784
8.89292
9.17417
9.2769
9.21176
8.45225
0.116214
0.181716
0.189158
0.192905
0.203886
0.224303
0.252598
0.287891
0.328396
0.372877
0.422652
0.478276
0.542468
0.616173
0.70497
0.804706
0.8987
0.988203
1.11377
1.29006
1.48957
1.6787
1.91217
2.25113
2.5001
2.75063
3.05147
3.18606
3.38298
3.74379
3.86508
3.83488
3.84249
3.93848
4.04793
4.09547
4.10439
4.14372
4.27133
4.48851
4.75377
5.12687
5.6651
6.25907
6.66753
6.85895
7.08401
7.45174
7.86708
8.16988
8.36274
8.52526
8.65823
8.79509
8.91361
8.98333
9.06346
9.12708
9.18779
9.22556
9.23545
9.24322
9.24743
9.23861
9.22295
9.19821
9.15429
9.11777
9.07518
9.01447
8.94714
8.8767
8.80929
8.75918
8.72058
8.69991
8.69437
8.67616
8.63259
8.52708
8.35538
8.09124
7.81629
7.54708
7.24879
6.95527
6.64865
6.3433
5.99279
5.66683
5.42216
5.10507
4.89354
4.55896
4.16799
3.80457
3.53473
3.30655
3.2219
3.15743
3.11809
3.14413
3.24633
3.4868
3.87353
4.04277
4.04167
3.99077
3.8544
3.55758
3.04447
2.44631
1.91673
1.61636
1.4938
1.50555
1.65096
1.90372
2.05594
2.09081
2.17546
2.47698
3.77957
5.61325
7.01462
7.37843
7.39773
7.60703
7.99156
7.79021
7.33343
7.48457
8.1172
9.64738
11.0198
11.468
11.8595
12.6171
13.4468
14.1439
14.6721
15.8907
16.1103
16.0993
14.8689
14.5494
14.393
15.2706
17.1746
21.6504
25.9372
27.2473
26.2906
23.1785
21.199
19.0931
17.6543
16.3277
14.5897
14.338
13.1065
11.5403
11.4866
10.6721
7.99956
6.93956
7.05404
6.83465
6.36478
7.04452
9.87662
13.982
18.3836
21.6404
22.2105
24.5421
28.0896
33.3638
41.1573
44.0809
0.470942
0.236449
0.184672
0.174663
0.176391
0.185258
0.20265
0.228589
0.262948
0.306461
0.356009
0.411293
0.462208
0.5115
0.557207
0.593294
0.616138
0.621865
0.622601
0.612864
0.581149
0.554124
0.539385
0.543138
0.560425
0.608047
0.729732
0.791118
0.94875
1.10621
1.32683
1.69167
1.86589
1.85082
1.78718
1.67504
1.42562
1.11279
0.892852
0.79525
0.767752
0.771887
0.817479
1.00343
1.17354
1.25045
1.30821
1.40416
1.66846
1.94634
2.10482
2.24937
2.4553
2.73128
3.06426
3.39039
3.69708
3.94142
4.10613
4.1911
4.1909
4.14897
4.10545
4.03937
3.98687
3.94821
3.87608
3.82448
3.77622
3.71535
3.64848
3.61147
3.58822
3.59505
3.57946
3.53603
3.42578
3.20961
2.94776
2.66257
2.40956
2.17681
2.00903
1.86745
1.7419
1.61863
1.49349
1.39425
1.31695
1.27618
1.25056
1.19114
1.13777
1.00185
0.888054
0.833977
0.812399
0.825323
0.897142
0.932393
0.938372
0.947976
1.0087
1.17812
1.42212
1.65875
1.78874
1.88538
2.08411
2.25512
2.20723
1.85238
1.4045
1.11493
1.02873
1.08986
1.31204
1.46508
1.67583
2.35611
3.31507
4.11362
5.2235
5.64829
5.12735
4.20992
3.97821
4.02988
3.91114
3.0806
2.58884
2.6548
2.9399
3.76534
5.08899
5.69102
5.58713
5.65452
5.80377
6.14196
6.49374
6.79708
7.44352
7.49195
6.85107
5.84109
5.44108
4.91021
4.83412
5.45434
6.29399
7.3112
7.95471
7.96427
7.86711
7.81453
7.75613
7.7012
7.39749
7.41791
7.03726
6.27524
6.19968
6.29137
5.58128
4.95009
5.26752
5.72438
5.16968
5.48365
6.00493
6.87872
7.01165
6.75193
6.78388
8.0471
10.2561
11.6425
11.4157
10.0389
1.2633
0.525529
0.243933
0.188372
0.17922
0.184114
0.19633
0.218727
0.255626
0.317053
0.392022
0.48713
0.58486
0.666638
0.716807
0.72469
0.716793
0.687363
0.660038
0.643582
0.604808
0.558704
0.501186
0.461735
0.450834
0.434568
0.406599
0.396658
0.398767
0.407546
0.439872
0.508934
0.666431
0.828618
0.909467
0.918692
0.890727
0.761255
0.583654
0.516397
0.490407
0.470366
0.481006
0.507829
0.542157
0.639548
0.840358
1.09046
1.30103
1.47857
1.65074
1.79557
1.87125
1.91105
1.93277
1.93599
1.90935
1.81977
1.71704
1.61242
1.50786
1.42519
1.37643
1.3234
1.28348
1.24618
1.19698
1.14801
1.10333
1.06858
1.04161
1.03243
1.02953
1.03236
1.01955
0.989393
0.921175
0.825661
0.736616
0.672602
0.625341
0.602106
0.593449
0.592804
0.595307
0.590759
0.584649
0.582927
0.584722
0.588053
0.594253
0.593604
0.581648
0.529671
0.484558
0.474279
0.476178
0.48141
0.490798
0.488389
0.479825
0.474973
0.503747
0.61414
0.753704
0.846626
0.878863
0.914476
0.997088
1.16126
1.4367
1.48551
1.36513
1.04526
0.935997
1.03151
1.38119
1.72841
2.29264
3.16316
3.57576
3.93928
3.9698
3.06769
2.33412
2.10302
2.0731
2.09169
1.9329
1.72866
1.65177
1.80674
1.90311
2.6046
3.40488
3.5097
3.47816
3.55115
3.66368
3.96331
4.22199
4.39512
4.71703
4.8067
4.2542
4.26343
4.23727
3.64148
3.04954
3.37125
3.70915
4.07389
4.50539
4.63651
4.67776
4.62101
4.65944
4.72039
4.82242
5.29548
5.26308
4.75189
4.68945
4.88182
4.5444
4.23998
4.50442
5.30265
4.79631
5.20409
5.1442
5.01029
4.35867
4.2386
4.67314
6.0209
7.28674
7.26815
5.84667
5.0603
2.56474
1.23
0.488431
0.290436
0.237742
0.236146
0.247693
0.279778
0.334331
0.428036
0.574807
0.706496
0.781407
0.796485
0.786189
0.769199
0.736525
0.696438
0.632385
0.596535
0.581802
0.54746
0.495235
0.448246
0.42509
0.410091
0.393272
0.35351
0.30425
0.283099
0.27832
0.281239
0.300435
0.364792
0.505483
0.551162
0.542205
0.513597
0.521006
0.56289
0.57229
0.589839
0.640342
0.670274
0.690877
0.751806
0.931994
1.0768
1.15192
1.19292
1.21035
1.20658
1.16667
1.09619
1.03084
0.953415
0.86231
0.773483
0.700196
0.6437
0.599604
0.573875
0.559711
0.546973
0.534235
0.521214
0.502413
0.4813
0.458998
0.442931
0.435773
0.433229
0.435109
0.437502
0.435958
0.426932
0.407917
0.386351
0.37716
0.375749
0.380212
0.392338
0.408798
0.430627
0.4531
0.467233
0.47713
0.483934
0.488698
0.48887
0.483007
0.467091
0.45882
0.43939
0.418443
0.403055
0.417582
0.432334
0.426622
0.406447
0.379163
0.357092
0.363196
0.411662
0.501105
0.55809
0.615757
0.643153
0.687942
0.765174
0.911553
1.18529
1.22973
1.06841
0.947464
1.11726
1.86849
2.32886
2.62551
3.03401
3.12341
3.06176
2.51983
1.8865
1.62924
1.58365
1.6468
1.61715
1.44603
1.42477
1.42988
1.59169
1.69489
2.13463
2.75523
2.75588
2.83763
2.8577
3.13057
3.52107
3.46987
3.53325
3.61848
3.86686
3.40657
3.45618
3.67395
3.32149
2.66535
2.64937
2.83118
3.06331
3.37141
3.45503
3.51994
3.40453
3.3882
3.41359
3.76044
4.27128
4.03817
3.88529
4.07256
4.27037
4.08193
4.03892
4.29246
4.97362
4.28755
4.41735
4.95779
4.48097
3.59587
3.59275
4.23188
5.26943
5.48046
4.97695
4.19104
3.99175
3.99186
1.93119
0.930674
0.552754
0.458334
0.468756
0.531375
0.650553
0.773785
0.877274
0.908662
0.893653
0.867303
0.832278
0.769233
0.694538
0.63147
0.579188
0.52532
0.476872
0.444638
0.430029
0.407317
0.378994
0.366851
0.364376
0.359678
0.343965
0.297353
0.240673
0.209928
0.208071
0.211084
0.218563
0.246451
0.332331
0.448912
0.500399
0.553871
0.628658
0.662589
0.673698
0.667552
0.650029
0.649046
0.70455
0.805142
0.833317
0.825619
0.78477
0.759839
0.736182
0.683674
0.6128
0.543703
0.471334
0.406098
0.360057
0.330781
0.313351
0.302907
0.297683
0.297064
0.298141
0.297864
0.297438
0.294835
0.291
0.286349
0.283945
0.285047
0.288713
0.296027
0.303517
0.308888
0.311857
0.313954
0.317342
0.324888
0.337226
0.352621
0.371025
0.392263
0.417704
0.444262
0.463952
0.478248
0.483567
0.485092
0.482981
0.471017
0.442165
0.42654
0.414407
0.407843
0.385516
0.380034
0.401442
0.412612
0.39738
0.362447
0.32896
0.31851
0.331273
0.375234
0.429296
0.527627
0.584463
0.60022
0.629438
0.678769
0.810905
0.992831
1.00133
0.974816
1.27433
2.2036
2.44547
2.48026
2.47923
2.34034
2.19886
1.87518
1.52529
1.37058
1.36907
1.47915
1.44236
1.293
1.28617
1.24995
1.45627
1.68843
1.94308
2.34723
2.54622
2.70836
2.54929
3.04119
3.37209
3.14473
3.31899
3.18456
3.24517
3.0227
2.92791
2.86987
2.76432
2.46881
2.28681
2.36426
2.56759
2.86715
2.93435
3.0003
2.8457
2.79004
2.88861
3.53712
3.9032
3.50703
3.5296
3.90605
3.96862
3.87311
3.9154
4.22412
4.19846
3.64374
3.77233
4.36592
4.17112
3.33323
3.36192
4.00514
4.57286
4.45716
3.83861
3.59827
3.47451
5.39833
2.36545
1.15844
0.963505
1.04309
1.10675
1.10821
1.08187
1.05121
1.00764
0.935988
0.842795
0.719387
0.611973
0.529761
0.459259
0.413843
0.38841
0.372005
0.361441
0.330539
0.299786
0.296815
0.300703
0.30519
0.310104
0.310176
0.297421
0.273463
0.243377
0.20467
0.183358
0.182349
0.189473
0.217353
0.330939
0.463039
0.561075
0.615648
0.599645
0.563847
0.566569
0.580777
0.571147
0.552931
0.564855
0.594706
0.595693
0.552608
0.489835
0.46505
0.443681
0.40355
0.354876
0.307208
0.263745
0.236112
0.22106
0.213318
0.210293
0.210781
0.213021
0.217503
0.221456
0.223898
0.228149
0.231744
0.233816
0.236852
0.240053
0.24471
0.254123
0.26413
0.274915
0.28317
0.290303
0.29976
0.311309
0.324483
0.341525
0.364318
0.391889
0.425564
0.462529
0.4975
0.527325
0.551688
0.557135
0.551237
0.527341
0.504364
0.469054
0.433337
0.4128
0.41371
0.406942
0.371672
0.359311
0.372648
0.393468
0.381363
0.332414
0.308758
0.300819
0.317961
0.377692
0.480402
0.558997
0.56723
0.556253
0.561708
0.594102
0.713446
0.852635
0.942085
1.3046
2.26236
2.41775
2.05778
1.90138
1.8741
1.80101
1.62643
1.37419
1.25898
1.25203
1.29592
1.3447
1.23045
1.18657
1.10422
1.28194
1.67287
1.92722
1.85607
2.31449
2.63983
2.40974
2.9592
2.91766
2.61419
3.12739
3.0118
2.85103
2.8184
2.77296
2.38684
2.2509
2.23766
1.98925
1.99886
2.24136
2.57143
2.64046
2.71631
2.51766
2.46303
2.62276
3.38199
3.54036
3.15499
3.31938
3.86762
3.74248
3.73332
3.79816
4.1649
3.71057
3.47791
3.57564
3.87743
3.66601
3.1818
3.21684
3.71447
3.99097
3.75624
3.24188
3.18022
2.92238
6.74224
2.87733
1.69379
1.67288
1.4986
1.33687
1.17007
0.99132
0.786124
0.612384
0.467946
0.369963
0.320474
0.296685
0.29098
0.298172
0.31882
0.319116
0.305296
0.265413
0.229086
0.21432
0.214554
0.21844
0.231345
0.240984
0.242094
0.232828
0.220796
0.198651
0.174233
0.166952
0.168569
0.171461
0.204393
0.328617
0.45754
0.56326
0.599936
0.569311
0.473321
0.439689
0.437993
0.434723
0.419051
0.41736
0.422688
0.41837
0.373175
0.319829
0.297891
0.28132
0.257892
0.230838
0.207238
0.191142
0.183328
0.180495
0.180727
0.183215
0.188057
0.192552
0.197184
0.201348
0.203669
0.207899
0.214569
0.219721
0.224527
0.230218
0.236632
0.247946
0.260223
0.272113
0.282556
0.291111
0.303327
0.319386
0.341861
0.373236
0.412767
0.455344
0.495175
0.536352
0.574727
0.604109
0.623677
0.635642
0.636229
0.612645
0.573116
0.536915
0.483659
0.441358
0.420763
0.424878
0.411062
0.363881
0.347703
0.357407
0.393404
0.375657
0.31807
0.286029
0.290899
0.347464
0.378636
0.416765
0.480878
0.492374
0.503014
0.519431
0.571749
0.691278
0.828106
1.28302
2.23795
2.2647
1.74028
1.63536
1.61025
1.55661
1.48094
1.28245
1.23659
1.22469
1.13716
1.18563
1.18188
1.04674
0.923125
1.00623
1.51805
1.88463
1.57958
2.00587
2.24214
2.39972
2.65021
2.10644
1.96652
2.19532
2.34783
2.39344
2.75312
2.56343
1.95079
1.89656
2.03153
1.84702
1.82763
1.98064
2.3291
2.35987
2.41286
2.24445
2.23964
2.44933
2.97367
2.87791
2.73867
3.11498
3.7222
3.48783
3.58349
3.58126
4.0438
3.60521
3.39625
3.5282
3.76886
3.44504
2.9994
3.05745
3.40122
3.55993
3.28208
2.94176
2.86223
2.65383
8.13664
3.98974
2.71193
1.96456
1.44645
0.925817
0.583273
0.376381
0.283896
0.240537
0.220805
0.215486
0.217803
0.220266
0.220095
0.215555
0.205751
0.191968
0.182172
0.174473
0.169226
0.168282
0.170621
0.179799
0.195981
0.20399
0.204935
0.198165
0.178182
0.163626
0.155819
0.154054
0.160741
0.186178
0.24728
0.327986
0.434487
0.534937
0.565298
0.528049
0.427454
0.382365
0.364925
0.33489
0.304139
0.298341
0.298415
0.287499
0.247983
0.22171
0.210671
0.202161
0.191667
0.181625
0.174148
0.170832
0.170433
0.171873
0.175016
0.179638
0.185272
0.190663
0.194181
0.197274
0.19934
0.202438
0.208784
0.215826
0.221572
0.227659
0.235276
0.246605
0.26054
0.274067
0.287492
0.300355
0.318223
0.344786
0.385172
0.426087
0.453584
0.482603
0.515668
0.551936
0.588499
0.615791
0.631036
0.643649
0.643516
0.625471
0.58644
0.547294
0.493162
0.449128
0.41938
0.412298
0.412289
0.391594
0.352564
0.343415
0.36823
0.382989
0.337915
0.285394
0.274248
0.289619
0.305907
0.320963
0.392032
0.465553
0.488448
0.502241
0.524538
0.585236
0.701714
1.17267
2.07215
2.03325
1.59445
1.47075
1.40425
1.31018
1.24548
1.23818
1.27128
1.23137
1.06219
1.03704
1.09187
0.923291
0.860328
0.842949
1.04372
1.33365
1.56275
1.93979
1.72712
2.37034
1.92351
1.64287
1.76366
1.70312
1.81329
1.89712
2.3717
2.05526
1.63957
1.67686
1.94234
1.77624
1.77483
1.80499
2.13006
2.16875
2.15481
2.05619
2.04733
2.22258
2.35606
2.36394
2.35309
3.00583
3.5388
3.35827
3.39409
3.29689
3.66544
3.52163
3.32715
3.51999
3.62704
3.42419
2.86205
2.88532
3.13689
3.25992
2.95974
2.68909
2.55815
2.49772
9.64229
5.68567
3.1086
1.60343
0.635205
0.325343
0.235194
0.210135
0.198247
0.191092
0.186804
0.184915
0.184512
0.182815
0.180998
0.176356
0.169934
0.165937
0.164317
0.162653
0.159891
0.156088
0.155126
0.156625
0.16028
0.161715
0.160956
0.15446
0.150201
0.150202
0.154743
0.166294
0.18056
0.210294
0.26876
0.340231
0.421278
0.473612
0.47579
0.418808
0.359698
0.337322
0.325701
0.302394
0.272365
0.249638
0.230597
0.207851
0.186695
0.175244
0.170298
0.168348
0.167192
0.166464
0.166732
0.167604
0.169133
0.171958
0.176581
0.182502
0.18896
0.194069
0.19716
0.198273
0.199306
0.201936
0.207647
0.215919
0.22337
0.230447
0.240656
0.252576
0.266434
0.28239
0.302068
0.324502
0.357149
0.396314
0.426516
0.449701
0.471916
0.496634
0.526907
0.555669
0.584788
0.601627
0.605132
0.608233
0.602826
0.589598
0.562453
0.524223
0.480915
0.425238
0.400432
0.382874
0.375289
0.37349
0.353521
0.341261
0.351021
0.36936
0.3543
0.293844
0.269309
0.26771
0.27863
0.295605
0.362768
0.459385
0.48743
0.501041
0.511854
0.531123
0.605501
1.02037
1.88984
1.79773
1.46427
1.37184
1.21261
1.12736
1.1202
1.20606
1.29284
1.21548
1.00148
0.933617
0.944435
0.870333
0.836849
0.792051
0.850955
1.11436
1.53903
1.7748
1.49463
2.00982
1.50415
1.49056
1.70314
1.63214
1.82015
1.81246
1.86533
1.74604
1.57823
1.63882
1.8289
1.65549
1.73613
1.76898
2.03287
2.06257
1.94077
1.93866
1.98138
2.10224
2.11282
2.19394
2.23983
3.01253
3.47484
3.27933
3.1527
3.13807
3.17903
3.37928
3.24558
3.49895
3.41783
3.4323
2.76707
2.70704
2.91072
3.05759
2.74162
2.35624
2.14882
2.20618
11.1621
6.43948
2.62836
0.805411
0.320971
0.211362
0.191549
0.193731
0.1941
0.191796
0.189171
0.183603
0.178185
0.171352
0.167455
0.163568
0.162048
0.163331
0.166046
0.167245
0.165097
0.158507
0.153471
0.148592
0.142699
0.138218
0.136507
0.136871
0.140192
0.147534
0.154004
0.166212
0.185084
0.231276
0.291685
0.359917
0.414066
0.42601
0.390365
0.317669
0.286176
0.275568
0.271158
0.263619
0.245441
0.212198
0.186714
0.169381
0.1589
0.155242
0.155401
0.158177
0.16205
0.165139
0.167566
0.169221
0.171844
0.17736
0.183238
0.189253
0.196089
0.201877
0.204289
0.203572
0.202385
0.203157
0.207495
0.21971
0.233639
0.243174
0.255785
0.270695
0.28607
0.30417
0.335065
0.374756
0.41602
0.443807
0.459227
0.470038
0.491657
0.521676
0.548057
0.559458
0.564876
0.549615
0.522506
0.491845
0.484637
0.471437
0.463073
0.429105
0.409005
0.349997
0.311143
0.307947
0.305509
0.303146
0.311716
0.323161
0.345107
0.36005
0.353899
0.306026
0.271076
0.262888
0.269656
0.286779
0.337526
0.454376
0.494165
0.508078
0.506798
0.508216
0.547506
0.845242
1.68864
1.67443
1.39936
1.33071
1.12841
1.03673
1.05786
1.10292
1.14587
1.01337
0.905113
0.788999
0.821643
0.85247
0.820716
0.748515
0.810613
0.977607
1.22567
1.33457
1.05464
1.14548
1.19201
1.45309
1.69296
1.63017
1.89941
1.76889
1.76488
1.63154
1.55496
1.63096
1.5966
1.55452
1.71458
1.7468
1.94966
1.9296
1.67722
1.77861
1.96808
2.0591
1.94667
2.07478
2.20073
3.2003
3.48402
3.26115
3.06946
2.97129
2.92555
3.09087
3.12969
3.43647
3.2272
3.33753
2.68349
2.55392
2.67806
2.92769
2.611
2.17445
1.9607
1.93896
12.5173
6.54023
2.12699
0.613475
0.268326
0.203119
0.194243
0.202001
0.208525
0.202833
0.191979
0.180116
0.171319
0.165264
0.161471
0.159703
0.159339
0.159917
0.15966
0.158169
0.15455
0.151479
0.149008
0.143391
0.136935
0.132834
0.1319
0.133201
0.139072
0.150671
0.164945
0.188018
0.230394
0.289773
0.338914
0.379416
0.391182
0.363529
0.288885
0.247807
0.230975
0.225117
0.222368
0.216574
0.198811
0.173927
0.157837
0.150339
0.147937
0.148567
0.153218
0.160875
0.16663
0.169812
0.172771
0.175671
0.178535
0.181094
0.183333
0.185951
0.19536
0.203058
0.207556
0.208236
0.207273
0.208337
0.213271
0.230185
0.25679
0.279398
0.299588
0.319092
0.33349
0.351094
0.377363
0.412422
0.44832
0.475895
0.492077
0.505191
0.531022
0.553635
0.559086
0.559933
0.551955
0.522264
0.470782
0.435248
0.418877
0.412937
0.392972
0.354281
0.306253
0.281877
0.25127
0.237901
0.234062
0.229443
0.235141
0.26983
0.294708
0.33135
0.333325
0.310323
0.281276
0.269608
0.274837
0.288299
0.33001
0.42967
0.485196
0.50542
0.499657
0.492165
0.518112
0.750298
1.47904
1.54894
1.35416
1.29471
1.09591
1.01716
0.991378
0.90273
0.824411
0.770503
0.805244
0.722634
0.741874
0.838133
0.806586
0.726903
0.783034
0.749355
0.775567
0.884107
0.849557
0.937329
1.17085
1.49613
1.73974
1.71681
1.92827
1.77875
1.75816
1.54883
1.53155
1.57567
1.44129
1.52739
1.70193
1.71393
1.79846
1.71253
1.41491
1.62591
1.98619
2.0178
1.82114
1.96818
2.19447
3.69514
3.67088
3.33733
3.16986
2.88293
2.75413
2.77968
2.9506
3.30121
3.03981
3.14121
2.55202
2.34707
2.42833
2.79315
2.51699
2.15511
1.96455
1.91547
13.5014
6.75958
2.05054
0.583798
0.257512
0.20023
0.209136
0.226282
0.226264
0.214187
0.198314
0.181472
0.170585
0.164482
0.160603
0.15848
0.15721
0.156465
0.156189
0.155684
0.154524
0.154581
0.154444
0.153557
0.150511
0.14562
0.144573
0.150389
0.168916
0.200075
0.231138
0.261391
0.295234
0.329105
0.351168
0.354756
0.315038
0.249676
0.210242
0.19063
0.181609
0.178067
0.176048
0.171352
0.159738
0.149035
0.144517
0.143934
0.145628
0.151271
0.159815
0.166561
0.169992
0.17269
0.174092
0.173189
0.171863
0.172476
0.17637
0.179199
0.183398
0.193385
0.20249
0.205662
0.20711
0.208972
0.215106
0.232113
0.260454
0.289516
0.317678
0.348372
0.376345
0.404414
0.437321
0.473978
0.509117
0.535153
0.551459
0.563302
0.572242
0.570193
0.559927
0.550635
0.521836
0.487385
0.435691
0.40726
0.385396
0.380042
0.362168
0.315401
0.26358
0.224092
0.221581
0.21711
0.215201
0.21329
0.200123
0.208162
0.228654
0.268407
0.297508
0.304876
0.290897
0.281537
0.290966
0.301539
0.338119
0.428221
0.471973
0.49212
0.485233
0.469295
0.4932
0.687944
1.30606
1.42157
1.305
1.21451
1.07774
1.01762
0.932366
0.786058
0.746087
0.723935
0.699377
0.687694
0.676112
0.787676
0.772014
0.708889
0.715815
0.683434
0.749543
0.843809
0.819605
0.935131
1.25797
1.60354
1.90583
1.96745
2.09934
1.89392
1.8071
1.50408
1.46612
1.3878
1.34331
1.50555
1.58971
1.62997
1.52441
1.34435
1.19674
1.5792
1.99845
1.93518
1.72217
1.85929
2.25415
4.02454
3.84879
3.68159
3.59877
2.96091
2.66887
2.65052
2.73277
3.07397
2.95483
3.10621
2.32054
2.08231
2.17603
2.6395
2.47662
2.15994
2.04017
1.92431
14.417
6.91466
1.84029
0.435571
0.233325
0.209628
0.21897
0.228603
0.225795
0.214592
0.199199
0.185424
0.178643
0.171257
0.16542
0.162903
0.161683
0.161316
0.162749
0.167185
0.173451
0.18279
0.188584
0.190959
0.19015
0.190426
0.198612
0.214166
0.230215
0.250688
0.268142
0.284036
0.302211
0.308245
0.295105
0.244138
0.199853
0.172178
0.158307
0.153017
0.152014
0.153094
0.153695
0.153108
0.149011
0.145458
0.144952
0.146026
0.148522
0.15481
0.160332
0.163622
0.165552
0.165915
0.165277
0.163835
0.163699
0.164027
0.165904
0.169673
0.174243
0.18393
0.19534
0.20252
0.205578
0.208819
0.215712
0.230494
0.252002
0.279313
0.312756
0.347154
0.380486
0.413892
0.44954
0.485556
0.523278
0.554107
0.57469
0.57799
0.576451
0.573091
0.543686
0.523534
0.484529
0.446455
0.41188
0.387571
0.361798
0.342333
0.31615
0.249717
0.208034
0.195788
0.193515
0.197511
0.203702
0.205879
0.193096
0.193083
0.215117
0.233725
0.259986
0.293001
0.298236
0.300488
0.307225
0.309215
0.352195
0.446231
0.47521
0.488783
0.47735
0.457633
0.479064
0.661385
1.18269
1.31805
1.25203
1.13726
1.06267
1.02643
0.899926
0.724728
0.702935
0.694557
0.648579
0.660289
0.64961
0.720494
0.667231
0.667307
0.64514
0.632728
0.748018
0.814429
0.815069
1.03176
1.41694
1.73164
2.18981
2.19369
2.10109
1.89097
1.76784
1.52019
1.39634
1.30791
1.31187
1.43371
1.38812
1.42926
1.17428
1.043
1.14209
1.5671
1.88968
1.76496
1.60926
1.75719
2.26006
3.99221
3.88399
4.30882
4.31403
3.30672
2.69771
2.62564
2.48674
2.7974
2.93018
3.13387
2.11605
1.86284
1.95411
2.5109
2.43935
2.17023
2.21133
1.96155
15.1513
6.4284
1.34945
0.347168
0.228993
0.215942
0.223357
0.231724
0.234062
0.231129
0.220344
0.203899
0.193748
0.182946
0.176015
0.173238
0.173012
0.175727
0.182396
0.189361
0.1945
0.200866
0.204037
0.208801
0.211792
0.216724
0.225659
0.236455
0.244611
0.255792
0.259519
0.258654
0.244096
0.2177
0.188032
0.163481
0.14717
0.139468
0.137283
0.13809
0.142799
0.147556
0.149553
0.149963
0.149222
0.147755
0.147335
0.147189
0.148199
0.151597
0.153632
0.154077
0.15538
0.157563
0.159055
0.161465
0.164533
0.165113
0.165072
0.168422
0.174252
0.184631
0.195963
0.205488
0.21156
0.216263
0.222797
0.232112
0.246159
0.259203
0.282612
0.317229
0.358012
0.404914
0.446495
0.471882
0.509847
0.528843
0.551461
0.565343
0.557752
0.545646
0.520691
0.490783
0.45297
0.419415
0.394764
0.358177
0.328035
0.298446
0.240636
0.18956
0.171249
0.171843
0.181073
0.18989
0.195778
0.195262
0.186404
0.187541
0.213135
0.235509
0.2419
0.274627
0.291291
0.317519
0.342248
0.338023
0.363848
0.464698
0.498259
0.497847
0.47886
0.457572
0.477052
0.652682
1.09607
1.22761
1.19595
1.08648
1.04022
1.00597
0.874156
0.687919
0.67519
0.661236
0.625563
0.647408
0.638426
0.612476
0.595891
0.652179
0.585336
0.577727
0.73636
0.755493
0.840576
1.1924
1.53976
2.12812
2.33096
2.18589
2.06736
1.88531
1.77536
1.61157
1.40596
1.30257
1.29581
1.288
1.16122
1.12215
0.9734
0.996902
1.13658
1.57626
1.62478
1.63653
1.5792
1.67498
2.15176
3.61623
4.02253
4.33229
4.82411
3.92031
2.87667
2.67053
2.41441
2.69195
2.94737
3.26667
2.11719
1.81093
1.78667
2.32086
2.37072
2.18089
2.3465
1.9796
15.6593
6.23959
1.26085
0.346328
0.250222
0.231073
0.226538
0.234545
0.24094
0.240038
0.232785
0.225548
0.218292
0.207483
0.200029
0.194913
0.193136
0.19283
0.194816
0.197761
0.201883
0.20538
0.207805
0.211782
0.215969
0.220431
0.226648
0.228743
0.227538
0.218358
0.204098
0.191095
0.177001
0.161287
0.148759
0.139045
0.133965
0.132362
0.132282
0.134285
0.140385
0.145907
0.148068
0.148136
0.147491
0.146297
0.145507
0.144961
0.144637
0.144212
0.144001
0.145219
0.150226
0.154736
0.157062
0.159343
0.162869
0.166353
0.170482
0.176917
0.18655
0.198347
0.209072
0.221275
0.232218
0.240538
0.245733
0.249258
0.251746
0.256683
0.265771
0.284459
0.314466
0.354488
0.420546
0.441642
0.469862
0.499144
0.502249
0.514285
0.514488
0.497833
0.476932
0.452522
0.40877
0.375627
0.346528
0.301243
0.254889
0.211852
0.174268
0.156187
0.15554
0.160943
0.175147
0.182845
0.185438
0.184515
0.177597
0.180002
0.208282
0.243169
0.242666
0.246071
0.275845
0.318494
0.350073
0.34615
0.3652
0.465038
0.521507
0.51962
0.490473
0.469084
0.482325
0.651281
1.03203
1.1517
1.12866
1.03225
1.01387
0.921709
0.819816
0.652442
0.630343
0.618187
0.595669
0.617147
0.616198
0.552349
0.578905
0.613795
0.535148
0.552437
0.696184
0.702891
0.913013
1.33772
1.85469
2.32709
2.23831
2.15297
2.10374
1.95343
1.91787
1.74566
1.44927
1.30229
1.26806
1.21879
1.09284
0.993984
0.951958
0.983055
1.18216
1.61653
1.59793
1.60198
1.56183
1.63737
1.93443
2.88097
3.95971
3.41942
4.52978
4.69168
3.29265
2.84407
2.43742
2.61848
2.9932
3.27006
2.22572
1.83534
1.75726
2.01443
2.23633
2.14115
2.31027
1.94531
16.4289
6.68182
1.40985
0.418951
0.288857
0.242035
0.231938
0.236361
0.249228
0.250821
0.23802
0.232762
0.228654
0.221415
0.21558
0.21185
0.208041
0.20642
0.205402
0.204855
0.20552
0.206943
0.208353
0.210067
0.210135
0.206933
0.199495
0.188463
0.179692
0.171325
0.164121
0.156989
0.148777
0.141173
0.135186
0.130022
0.128116
0.127807
0.128511
0.130615
0.134988
0.139466
0.142109
0.142829
0.142866
0.141978
0.139604
0.137856
0.136727
0.136661
0.137531
0.141157
0.147557
0.151582
0.154229
0.158637
0.166987
0.174298
0.182734
0.190798
0.196502
0.204489
0.21411
0.225532
0.237036
0.24547
0.25033
0.254048
0.254418
0.256972
0.264196
0.275313
0.304335
0.321746
0.348884
0.381685
0.375821
0.397152
0.410733
0.406648
0.413082
0.400474
0.376668
0.357898
0.317643
0.286801
0.241555
0.203368
0.173629
0.155678
0.148021
0.144999
0.146432
0.153615
0.166143
0.168259
0.168331
0.168838
0.171673
0.177212
0.197407
0.237673
0.242102
0.238378
0.255892
0.305841
0.349306
0.351827
0.359904
0.449363
0.52032
0.536475
0.517294
0.488272
0.496142
0.657661
1.00092
1.10158
1.07363
0.983001
0.982657
0.826621
0.75833
0.631817
0.597497
0.608463
0.56051
0.559412
0.569752
0.52514
0.554782
0.548021
0.52153
0.543719
0.64553
0.697249
1.03125
1.40561
2.06107
2.15817
2.15667
2.19416
2.15038
1.94296
1.92217
1.76797
1.48683
1.30153
1.25202
1.19647
1.08002
0.968054
0.953532
0.977938
1.28795
1.6304
1.61011
1.56048
1.51977
1.63827
1.77932
2.52577
3.42183
2.88023
2.74491
4.68882
3.84124
3.15801
2.54344
2.50682
2.97715
3.10377
2.51322
1.94688
1.76594
1.92177
1.97027
1.99732
1.97987
1.85833
17.4025
7.08002
1.51002
0.526991
0.35942
0.28432
0.247466
0.235322
0.239818
0.240363