/*--------------------------------*- C++ -*----------------------------------*\
| =========                 |                                                 |
| \\      /  F ield         | OpenFOAM: The Open Source CFD Toolbox           |
|  \\    /   O peration     | Version:  dev                                   |
|   \\  /    A nd           | Web:      http://www.openfoam.org               |
|    \\/     M anipulation  |                                                 |
\*---------------------------------------------------------------------------*/
FoamFile
{
    version     2.0;
    format      ascii;
    class       volScalarField;
    object      k_0;
    location    "9.142";
}
// * * * * * * * * * * * * * * * * * * * * * * * * * * * * * * * * * * * * * //

dimensions      [0 2 -2 0 0 0 0];

internalField   nonuniform List<scalar> 
12225
(
7.90316
7.79416
4.43005
4.67576
5.0826
6.01447
8.30964
8.58482
11.7043
11.6023
14.5284
14.1811
16.5364
13.9639
15.4306
23.6229
63.7944
78.9857
1.70786
6.33128
5.2354
6.90175
5.29688
7.30658
6.56388
8.01687
8.15776
8.95911
9.88556
10.0892
10.5446
8.79757
10.8991
17.7179
35.7343
54.1342
0.203535
2.58501
2.77596
4.56364
3.51578
5.13429
4.01262
4.83127
4.79085
4.97577
5.56931
5.39194
6.11543
3.87244
5.88291
18.3874
32.5174
39.9601
0.0313346
0.685851
0.881118
1.5726
1.57909
1.97223
2.1456
1.94577
2.25537
2.0262
2.34591
2.38792
2.70519
2.0709
3.89592
10.9041
34.412
33.0885
0.00740898
0.163066
0.271813
0.515627
0.711512
0.800247
1.07503
0.940404
1.07865
0.908888
1.17167
1.09082
2.00854
1.66239
4.23554
9.60476
33.6604
36.6266
0.0203912
0.139115
0.197652
0.428791
0.461494
0.600233
0.680171
0.705597
0.67623
0.734834
0.811112
1.11236
1.3951
1.3024
3.2755
9.54529
32.8177
47.4223
0.0178448
0.0635443
0.124401
0.241964
0.293578
0.297765
0.386361
0.400689
0.490554
0.529908
0.747016
0.999293
1.21883
1.5416
2.47105
7.10411
31.7786
47.6438
0.015208
0.029942
0.0676237
0.107557
0.163321
0.159401
0.226916
0.210604
0.265729
0.272553
0.548067
0.525783
1.04837
0.887773
2.07389
4.65506
22.8294
45.223
0.0216504
0.0312666
0.0526641
0.0816815
0.11391
0.125929
0.160528
0.167025
0.19069
0.210504
0.301466
0.29968
0.459097
0.477651
0.954212
2.34506
9.85626
20.4292
0.0438084
0.0556256
0.0603715
0.0824253
0.104807
0.120019
0.141299
0.163911
0.170521
0.179259
0.207666
0.21432
0.271889
0.299705
0.465061
0.894885
3.14288
4.57544
0.0838867
0.121599
0.10364
0.117668
0.118495
0.133626
0.148312
0.175135
0.172346
0.178618
0.188151
0.201576
0.217955
0.241606
0.27877
0.401783
0.947975
1.21269
0.184803
0.244725
0.216727
0.227862
0.197273
0.212576
0.199711
0.230132
0.214027
0.215959
0.203376
0.216461
0.217151
0.23525
0.243003
0.277538
0.400059
0.47762
0.395405
0.435205
0.40417
0.404336
0.362331
0.361232
0.334749
0.34735
0.323658
0.320606
0.287633
0.283765
0.267028
0.267452
0.263092
0.266979
0.298619
0.314191
0.674945
0.685877
0.627196
0.615806
0.546571
0.533472
0.495178
0.500693
0.474052
0.452503
0.414095
0.404755
0.387184
0.379538
0.362532
0.338827
0.317267
0.308831
1.19319
1.18443
1.12346
1.08017
0.980279
0.922701
0.843812
0.799255
0.732452
0.67729
0.619199
0.580044
0.542038
0.511894
0.477483
0.449571
0.414617
0.386698
1.94953
1.90085
1.73395
1.53613
1.34929
1.20938
1.08557
0.990693
0.899429
0.821497
0.749605
0.69219
0.636707
0.591815
0.544694
0.507925
0.467559
0.438066
2.51605
2.35471
2.04202
1.75277
1.52025
1.34172
1.19586
1.07867
0.975723
0.888061
0.808236
0.741178
0.677176
0.624485
0.571792
0.531367
0.488472
0.456585
2.60116
2.42731
2.09677
1.79501
1.55608
1.37073
1.2198
1.09726
0.991876
0.902666
0.821044
0.752164
0.68661
0.632344
0.578606
0.536886
0.49312
0.460073
2.30642
2.25525
1.99546
1.72539
1.50665
1.33317
1.18984
1.07233
0.971485
0.886121
0.807181
0.740375
0.676717
0.623315
0.570272
0.528756
0.484519
0.450815
1.61048
1.66193
1.55419
1.41359
1.28386
1.16437
1.05595
0.962195
0.880286
0.810475
0.742906
0.685292
0.630202
0.581996
0.533058
0.494509
0.451054
0.41805
1.00717
1.04111
0.977015
0.902233
0.833538
0.768186
0.711528
0.665902
0.627588
0.598932
0.563233
0.530231
0.499173
0.466273
0.42882
0.400406
0.360656
0.330605
0.616693
0.649029
0.618824
0.582528
0.545899
0.515261
0.482903
0.445213
0.411622
0.38541
0.356261
0.334686
0.318947
0.303879
0.285759
0.273901
0.254558
0.240102
0.30927
0.347768
0.345318
0.336239
0.318392
0.299906
0.283864
0.273041
0.266147
0.259555
0.250969
0.244929
0.240402
0.235774
0.229587
0.225052
0.21714
0.209746
0.149552
0.182415
0.179979
0.17335
0.17473
0.182285
0.194992
0.208299
0.216933
0.220326
0.220832
0.221678
0.22209
0.221338
0.219668
0.2177
0.213975
0.20876
0.0628723
0.0773658
0.0891312
0.108239
0.131004
0.156495
0.183789
0.20767
0.223061
0.231459
0.235754
0.239501
0.241928
0.242677
0.24257
0.241652
0.23954
0.236054
0.017908
0.0361683
0.0693014
0.115696
0.168104
0.215416
0.259958
0.299984
0.327503
0.342857
0.351671
0.359461
0.36339
0.365418
0.367375
0.367485
0.365723
0.362326
0.00611759
0.0517766
0.167593
0.325867
0.476009
0.586485
0.671962
0.734019
0.770549
0.782385
0.789917
0.795246
0.794897
0.793064
0.792993
0.787124
0.776415
0.761876
0.0367389
0.403239
1.03768
1.49384
1.78184
1.93738
2.01385
2.05699
2.06101
2.03441
2.01482
1.9869
1.96066
1.9298
1.89721
1.84598
1.79188
1.7063
0.659284
3.22079
4.68296
5.04152
4.9926
4.87223
4.73145
4.61801
4.49938
4.39011
4.30099
4.20903
4.13291
4.04314
3.94365
3.81409
3.65738
3.29666
6.39087
8.78318
7.20811
5.61654
5.08261
5.18883
5.59608
6.21186
6.88331
7.54974
8.18725
8.74209
9.21774
9.60908
9.93152
10.061
10.0081
9.19106
0.116795
0.18213
0.189498
0.193136
0.203892
0.224053
0.252089
0.287109
0.327413
0.371782
0.421576
0.477344
0.542164
0.61683
0.70738
0.810212
0.907999
1.00059
1.13035
1.31352
1.52002
1.71526
1.95747
2.30362
2.55715
2.8159
3.12545
3.26273
3.46773
3.84151
3.96735
3.93388
3.94096
4.04157
4.1584
4.21189
4.22265
4.26581
4.40413
4.63911
4.92311
5.31936
5.88598
6.49865
6.91295
7.11026
7.349
7.73744
8.17054
8.48422
8.68676
8.85752
8.9952
9.13416
9.25053
9.31758
9.39505
9.45538
9.51374
9.5495
9.55827
9.56468
9.5674
9.55694
9.53875
9.51041
9.46261
9.42215
9.37463
9.3085
9.23591
9.15938
9.08632
9.03046
8.9869
8.96308
8.95563
8.93767
8.8947
8.78921
8.61353
8.343
8.05857
7.77956
7.47032
7.16601
6.85008
6.53155
6.16192
5.81752
5.55417
5.21491
4.98321
4.62024
4.19371
3.79618
3.49439
3.23834
3.13298
3.04459
2.98224
2.97669
3.05363
3.26359
3.59574
3.72611
3.71793
3.67133
3.54223
3.2566
2.77392
2.22774
1.76647
1.5106
1.41309
1.42677
1.56477
1.81665
1.97492
2.001
2.07301
2.36953
3.66162
5.46344
6.84776
7.19694
7.18527
7.36161
7.74242
7.56625
7.1615
7.44986
8.13078
9.71974
11.09
11.5148
11.9065
12.6952
13.5553
14.2689
14.7961
16.06
16.2353
16.2169
14.9263
14.6273
14.494
15.41
17.3862
22.007
26.0939
27.088
25.8913
22.7293
20.7162
18.5149
16.9935
15.555
13.8148
13.4243
12.0902
10.6407
10.5002
9.56581
7.17127
6.4133
6.58957
6.43467
6.14676
6.8303
9.77322
13.8335
18.072
21.2889
21.8727
23.9354
26.9349
31.3582
38.3436
41.3563
0.478829
0.237947
0.185295
0.175123
0.176807
0.185468
0.202644
0.22843
0.262759
0.306409
0.356197
0.411798
0.4629
0.512345
0.558225
0.594374
0.617173
0.623125
0.623742
0.613614
0.581524
0.555051
0.541294
0.545704
0.563439
0.609785
0.724652
0.785589
0.94283
1.09545
1.31962
1.68923
1.8653
1.85599
1.79946
1.69152
1.44046
1.12505
0.902788
0.803145
0.775274
0.779619
0.826615
1.02288
1.19394
1.26927
1.3267
1.42607
1.70568
1.98265
2.13796
2.28482
2.49782
2.78171
3.12102
3.45139
3.76242
4.01027
4.17758
4.26571
4.26789
4.22693
4.18439
4.12092
4.07059
4.03378
3.96233
3.9132
3.86608
3.80502
3.73801
3.70043
3.67572
3.68254
3.66646
3.62379
3.51478
3.29792
3.03316
2.74173
2.48167
2.2412
2.06626
1.91867
1.78804
1.65954
1.52913
1.42411
1.3417
1.2984
1.26871
1.20394
1.14659
1.00425
0.889007
0.834671
0.814688
0.830108
0.907402
0.941385
0.947653
0.957916
1.02749
1.20434
1.45788
1.70184
1.83268
1.93003
2.12981
2.27693
2.18207
1.78932
1.34335
1.07695
0.999513
1.0532
1.25808
1.40294
1.61313
2.27073
3.2313
4.0182
5.12738
5.6288
5.23632
4.30165
4.04849
4.1096
4.01202
3.12033
2.5351
2.60597
2.90911
3.71732
5.10891
5.75247
5.65211
5.72025
5.87695
6.21327
6.5109
6.83523
7.50184
7.52636
6.85399
5.61238
5.2239
4.76717
4.75317
5.26469
6.23
7.37665
8.00037
7.98599
7.85771
7.80616
7.71879
7.63707
7.28479
7.22
6.80317
6.08059
6.04669
6.15111
5.3593
4.77852
5.12883
5.54677
4.964
5.20293
5.87463
6.84571
7.04963
6.77141
6.7458
7.89552
10.0246
11.6861
11.6872
10.2564
1.29209
0.52978
0.245222
0.18914
0.17983
0.184547
0.196618
0.219014
0.256052
0.317832
0.392924
0.488236
0.586512
0.668568
0.718568
0.726393
0.718344
0.688426
0.661866
0.644816
0.604554
0.557573
0.500556
0.462786
0.451817
0.435271
0.4067
0.396027
0.397031
0.405649
0.437874
0.5062
0.666907
0.831666
0.913397
0.923266
0.896939
0.764056
0.586897
0.518071
0.489917
0.471408
0.481923
0.509414
0.546352
0.650187
0.852823
1.10273
1.31369
1.49237
1.66438
1.80768
1.88333
1.92403
1.94738
1.95267
1.92961
1.8432
1.74233
1.63942
1.53537
1.45224
1.40388
1.35135
1.31173
1.27493
1.22566
1.1766
1.13154
1.09654
1.06859
1.05918
1.0562
1.05944
1.04678
1.01695
0.948352
0.850432
0.757134
0.68943
0.638657
0.612353
0.601019
0.597815
0.598132
0.591576
0.583491
0.579929
0.580484
0.583852
0.589906
0.589478
0.575474
0.519712
0.475925
0.466867
0.466743
0.470511
0.481778
0.480819
0.474822
0.473638
0.508881
0.625862
0.762101
0.855982
0.886893
0.926542
1.01986
1.20537
1.4655
1.47492
1.31616
0.999415
0.900579
0.992534
1.31511
1.63222
2.20447
3.1129
3.51509
3.89926
4.01372
3.20402
2.39071
2.11281
2.06411
2.08858
1.94054
1.68152
1.57503
1.71111
1.85272
2.54905
3.35136
3.52222
3.47595
3.56409
3.65457
3.89559
4.152
4.34613
4.68337
4.71776
4.22915
4.09335
3.99464
3.45929
2.96103
3.25096
3.56739
4.03982
4.54004
4.67642
4.68302
4.64585
4.7011
4.80799
4.89337
5.2519
5.19983
4.63098
4.54354
4.76269
4.38957
4.04203
4.37188
5.17742
4.64348
4.93267
4.93228
4.93184
4.35212
4.18222
4.52433
5.83804
7.33205
7.46921
6.13619
5.10239
2.64396
1.2397
0.489742
0.291228
0.238241
0.236529
0.247839
0.279762
0.334236
0.428173
0.576288
0.709548
0.784698
0.799882
0.789545
0.77275
0.739115
0.697087
0.633441
0.599428
0.583521
0.546723
0.49368
0.447598
0.425645
0.410684
0.393148
0.352365
0.303214
0.282024
0.277157
0.280289
0.299413
0.366219
0.506807
0.551994
0.544547
0.516639
0.523636
0.563293
0.573393
0.59125
0.643465
0.673691
0.69414
0.75451
0.935521
1.08123
1.1573
1.19859
1.21655
1.21352
1.1756
1.10652
1.04215
0.965866
0.87578
0.786997
0.713237
0.656303
0.611369
0.585322
0.571239
0.558475
0.545743
0.532786
0.51377
0.492133
0.469158
0.452111
0.444376
0.441422
0.442838
0.444923
0.443009
0.433513
0.413501
0.390088
0.379229
0.376105
0.378715
0.38921
0.403873
0.423748
0.444128
0.456078
0.463871
0.46955
0.473539
0.473473
0.468147
0.454892
0.447704
0.42651
0.404311
0.39238
0.407915
0.419228
0.413209
0.392125
0.367078
0.350453
0.360046
0.418862
0.508587
0.564149
0.610112
0.632827
0.682508
0.769684
0.946939
1.20638
1.22016
1.02786
0.913098
1.07923
1.78714
2.25896
2.5869
3.01249
3.12725
3.10089
2.60485
1.92484
1.62636
1.55738
1.59809
1.58085
1.42428
1.38886
1.38147
1.50464
1.61038
2.09152
2.68631
2.68816
2.73769
2.81016
3.01493
3.36793
3.37363
3.42755
3.58015
3.7488
3.33385
3.38671
3.50151
3.16025
2.57943
2.59624
2.75386
3.00331
3.34357
3.44359
3.47452
3.36743
3.362
3.38098
3.6525
4.10639
3.9826
3.81175
3.91734
4.14194
3.94552
3.88448
4.17318
4.91936
4.23348
4.27076
4.7531
4.4061
3.52959
3.49314
4.06986
5.18881
5.56033
5.15021
4.20109
3.94972
4.1447
1.95438
0.935637
0.552962
0.457025
0.465742
0.52722
0.647015
0.772559
0.878772
0.91193
0.896856
0.872481
0.83735
0.77271
0.698113
0.63621
0.583598
0.527498
0.478907
0.447806
0.43242
0.40783
0.379489
0.367718
0.365081
0.360264
0.343273
0.295032
0.239784
0.209652
0.207301
0.209953
0.218533
0.246617
0.33602
0.451534
0.501447
0.555687
0.631608
0.663587
0.674153
0.670015
0.654456
0.653139
0.705897
0.807751
0.837824
0.831227
0.790362
0.764609
0.741691
0.690792
0.620656
0.551875
0.479541
0.413481
0.366246
0.336087
0.318164
0.307438
0.301806
0.301099
0.302211
0.301901
0.301269
0.298513
0.294416
0.289229
0.286338
0.287111
0.290195
0.29717
0.304291
0.309483
0.312068
0.313208
0.315336
0.321744
0.333304
0.347789
0.364932
0.384407
0.407552
0.431822
0.448646
0.460151
0.464362
0.465245
0.463154
0.451267
0.423805
0.409717
0.39859
0.390917
0.369737
0.368312
0.393358
0.397892
0.379547
0.346042
0.316785
0.310743
0.327749
0.381198
0.432934
0.522762
0.567248
0.585628
0.623407
0.686173
0.846881
1.00964
0.991031
0.95374
1.26586
2.16965
2.41026
2.47775
2.50639
2.36996
2.23599
1.8951
1.52591
1.36224
1.34751
1.43592
1.40017
1.26429
1.27496
1.23998
1.39894
1.59886
1.87358
2.32388
2.47099
2.57497
2.49774
2.90427
3.24236
3.08102
3.17024
3.09909
3.18652
2.96514
2.82526
2.83589
2.7222
2.41178
2.26533
2.34099
2.53048
2.82718
2.9038
2.94096
2.80075
2.77066
2.87125
3.41188
3.72193
3.44019
3.44828
3.7111
3.85443
3.76808
3.81458
4.12189
4.22689
3.56758
3.66915
4.28101
4.1307
3.26583
3.26807
3.87731
4.57002
4.52872
3.93674
3.5643
3.46953
5.64546
2.39996
1.16531
0.964076
1.03987
1.1051
1.11071
1.08576
1.05791
1.01584
0.943819
0.852288
0.728242
0.620639
0.536633
0.463312
0.416954
0.390622
0.374402
0.362635
0.330274
0.300588
0.297574
0.301298
0.305908
0.310336
0.310132
0.296082
0.271892
0.241733
0.203288
0.183417
0.182375
0.189475
0.217257
0.330878
0.462665
0.560359
0.615047
0.602601
0.567877
0.569603
0.583323
0.57494
0.556352
0.566633
0.597709
0.599929
0.559152
0.494437
0.468428
0.44746
0.408319
0.359976
0.312086
0.267791
0.239069
0.223269
0.215088
0.211635
0.211845
0.213863
0.218291
0.22221
0.224651
0.228781
0.231935
0.233735
0.236615
0.239533
0.243843
0.252838
0.262547
0.273108
0.281008
0.287971
0.297249
0.308428
0.320854
0.336435
0.357199
0.382213
0.411829
0.444782
0.476288
0.501848
0.522345
0.5256
0.518007
0.496564
0.476693
0.442005
0.412187
0.396882
0.397983
0.38639
0.354998
0.347767
0.367232
0.379536
0.359552
0.316513
0.298964
0.296954
0.319313
0.380157
0.481711
0.550457
0.554342
0.548286
0.56112
0.605066
0.745943
0.868253
0.94051
1.31399
2.25253
2.3979
2.0877
1.92603
1.8883
1.81039
1.61219
1.36299
1.23966
1.23088
1.27903
1.31059
1.19925
1.19585
1.12129
1.28017
1.60208
1.84658
1.91371
2.29419
2.53849
2.35077
2.86615
2.94239
2.68179
3.07265
2.9559
2.82214
2.7247
2.66248
2.39329
2.26979
2.22099
1.98872
2.02187
2.24415
2.54026
2.61789
2.66665
2.49109
2.45992
2.62556
3.31174
3.45779
3.13179
3.27538
3.6912
3.65921
3.66605
3.7512
4.09724
3.62854
3.39552
3.48671
3.76118
3.65813
3.12851
3.14362
3.65074
4.00144
3.83474
3.25927
3.16656
2.95222
7.09604
2.91905
1.69814
1.67663
1.50505
1.34627
1.18088
1.00848
0.803996
0.628848
0.48227
0.379075
0.326253
0.300107
0.29344
0.300656
0.320129
0.320132
0.305197
0.264891
0.229183
0.214723
0.214819
0.218738
0.231525
0.240837
0.241876
0.232308
0.220203
0.197748
0.173925
0.166655
0.167916
0.171381
0.203829
0.327594
0.455844
0.561873
0.600823
0.574409
0.478773
0.441767
0.439673
0.437201
0.421292
0.418982
0.424245
0.421233
0.378112
0.323386
0.300487
0.283986
0.260796
0.233481
0.209295
0.192521
0.18404
0.180748
0.180772
0.182993
0.187695
0.192045
0.196802
0.201034
0.203275
0.207434
0.214045
0.218945
0.223518
0.229158
0.235336
0.24648
0.258445
0.270198
0.280416
0.288629
0.300363
0.315527
0.336213
0.36543
0.403575
0.444785
0.484029
0.523364
0.559246
0.586252
0.604543
0.614118
0.612683
0.584993
0.546723
0.511997
0.461165
0.423645
0.409839
0.413222
0.392144
0.34775
0.338872
0.355029
0.379401
0.352377
0.303784
0.280125
0.290437
0.350372
0.388053
0.436263
0.486821
0.487944
0.496015
0.515254
0.586804
0.711676
0.846087
1.31092
2.24409
2.26909
1.75467
1.64662
1.62099
1.55989
1.47172
1.26661
1.20597
1.1965
1.13479
1.18072
1.15596
1.07136
0.9515
1.05616
1.52355
1.85577
1.56022
1.94846
2.28205
2.32054
2.68555
2.26656
2.08215
2.42841
2.5163
2.50273
2.68015
2.52488
2.02603
1.95123
1.99001
1.79705
1.80693
2.02742
2.3183
2.35769
2.40158
2.24766
2.25808
2.47964
3.02534
2.97292
2.79773
3.12506
3.62235
3.42232
3.56144
3.58526
4.04616
3.51808
3.33062
3.44685
3.63654
3.37249
2.96689
3.01462
3.37357
3.56129
3.33665
2.94512
2.88361
2.6483
8.5989
4.04133
2.72189
1.97542
1.46608
0.950743
0.605423
0.388161
0.290543
0.244433
0.223289
0.217291
0.219057
0.221535
0.221659
0.21728
0.207299
0.193382
0.183375
0.175444
0.169917
0.168865
0.17092
0.179805
0.195727
0.203715
0.204636
0.197938
0.177961
0.163367
0.155713
0.154205
0.160683
0.185143
0.246416
0.325728
0.431339
0.533188
0.566688
0.532843
0.433439
0.385555
0.368044
0.339171
0.306398
0.299506
0.299662
0.290056
0.251291
0.223686
0.212083
0.203478
0.192898
0.182577
0.17471
0.170942
0.170349
0.171562
0.174506
0.178977
0.184525
0.189922
0.193451
0.196595
0.198562
0.201466
0.207738
0.214572
0.22018
0.226106
0.233584
0.244895
0.25876
0.271999
0.284887
0.29693
0.31353
0.338613
0.378231
0.419299
0.447165
0.476151
0.508144
0.543752
0.579028
0.604502
0.619022
0.630712
0.629806
0.610362
0.570388
0.53145
0.477942
0.437017
0.41062
0.408398
0.406289
0.380211
0.343105
0.338366
0.367985
0.370598
0.316951
0.275027
0.270535
0.29381
0.307992
0.325543
0.402216
0.46163
0.479951
0.493621
0.523436
0.59899
0.722889
1.22111
2.1019
2.05131
1.60028
1.48178
1.42571
1.32332
1.25877
1.22092
1.22935
1.20376
1.06212
1.04787
1.0932
0.93558
0.855621
0.854323
1.15166
1.42077
1.52442
1.90163
1.78342
2.2926
2.02505
1.70972
1.77812
1.7424
1.81682
1.95081
2.42609
2.13531
1.66699
1.68249
1.89667
1.74511
1.74993
1.82431
2.13256
2.16465
2.17368
2.06313
2.07282
2.26433
2.45061
2.4178
2.39189
2.9991
3.49859
3.3105
3.41289
3.31403
3.75865
3.47044
3.28601
3.46882
3.53856
3.33273
2.83929
2.87258
3.12207
3.24636
2.99017
2.71838
2.62242
2.50573
10.2062
5.76919
3.12414
1.63188
0.656263
0.334734
0.2395
0.21201
0.199016
0.19148
0.187218
0.185417
0.185159
0.183644
0.181874
0.177194
0.170609
0.166407
0.164689
0.163042
0.160345
0.156544
0.155584
0.156947
0.16042
0.161704
0.16088
0.154329
0.150001
0.150107
0.154367
0.165388
0.179271
0.208608
0.266694
0.338483
0.419138
0.474688
0.478162
0.422856
0.362539
0.339454
0.328113
0.305682
0.275738
0.252438
0.233078
0.210102
0.18844
0.17629
0.171029
0.169026
0.167709
0.166646
0.166665
0.167354
0.168726
0.171418
0.175734
0.18154
0.187881
0.193025
0.196269
0.197493
0.198518
0.200998
0.206578
0.214568
0.221631
0.228499
0.238382
0.250063
0.263747
0.279251
0.29784
0.318666
0.349781
0.388814
0.420197
0.444651
0.466399
0.489932
0.519432
0.54868
0.578725
0.597583
0.604016
0.610839
0.606441
0.592458
0.561178
0.522303
0.47428
0.42385
0.400977
0.385186
0.380722
0.376031
0.349675
0.338916
0.350533
0.364641
0.339235
0.281348
0.263726
0.265372
0.27789
0.296175
0.371735
0.456676
0.479978
0.49293
0.505939
0.532816
0.622136
1.08104
1.93167
1.81252
1.46658
1.37237
1.23611
1.14752
1.12648
1.19712
1.27178
1.21279
1.01287
0.958794
0.967218
0.872843
0.833301
0.800743
0.861559
1.15118
1.52895
1.8077
1.58883
2.09517
1.63923
1.51555
1.68672
1.62704
1.77359
1.80485
1.91125
1.77124
1.5678
1.6188
1.82349
1.67046
1.7306
1.76497
2.03779
2.06474
1.99929
1.95721
1.97618
2.10637
2.17089
2.23266
2.24356
2.98845
3.43549
3.23684
3.19071
3.16769
3.28193
3.3935
3.23123
3.47313
3.3775
3.34351
2.75386
2.71504
2.90813
3.0304
2.75577
2.42438
2.23459
2.25686
11.8144
6.55412
2.66084
0.819347
0.326794
0.212885
0.191508
0.193234
0.193462
0.191286
0.188921
0.183789
0.178661
0.171875
0.167877
0.163893
0.162271
0.163337
0.165804
0.167012
0.16505
0.158667
0.153713
0.148888
0.143047
0.138492
0.136529
0.136765
0.139841
0.14715
0.153421
0.165238
0.183364
0.229393
0.289862
0.357954
0.414738
0.428139
0.39395
0.32094
0.287608
0.276559
0.272216
0.265294
0.248122
0.215096
0.188929
0.170956
0.159815
0.155712
0.155766
0.158217
0.161776
0.164622
0.166929
0.168513
0.171162
0.176748
0.182849
0.188863
0.195701
0.201353
0.203464
0.202597
0.201346
0.202012
0.206228
0.217621
0.230109
0.238978
0.251181
0.26561
0.280791
0.298633
0.329148
0.36808
0.408953
0.436851
0.452503
0.463306
0.483848
0.513202
0.539923
0.553247
0.561175
0.549226
0.528029
0.504332
0.499302
0.4863
0.479497
0.442616
0.421486
0.356742
0.325895
0.32588
0.32183
0.320068
0.32324
0.329451
0.351505
0.362051
0.348489
0.293374
0.263876
0.258176
0.265824
0.284016
0.347061
0.457401
0.490542
0.502888
0.501793
0.506667
0.556601
0.89891
1.74465
1.68675
1.39652
1.33001
1.13471
1.03882
1.06588
1.12677
1.20268
1.08794
0.929329
0.822782
0.844816
0.845054
0.818132
0.757383
0.812669
1.03362
1.37533
1.49855
1.21526
1.35734
1.23396
1.44865
1.65971
1.59969
1.82961
1.72806
1.7423
1.65101
1.54887
1.61338
1.63784
1.56197
1.71702
1.75155
1.97668
1.96349
1.77759
1.8402
1.95701
2.0544
1.99156
2.1189
2.19739
3.09911
3.41678
3.20829
3.03923
3.02036
2.98574
3.16512
3.15644
3.4491
3.21554
3.29707
2.68287
2.58398
2.69516
2.89625
2.61314
2.19528
1.95671
1.92783
13.2478
6.67207
2.14251
0.616715
0.26864
0.202658
0.1934
0.200469
0.206982
0.201793
0.191609
0.180283
0.171694
0.165614
0.161807
0.159921
0.159431
0.160004
0.159824
0.15847
0.154896
0.151728
0.149306
0.143914
0.137613
0.13324
0.13211
0.133152
0.13857
0.149916
0.164131
0.186879
0.2292
0.288331
0.337171
0.379408
0.392748
0.366434
0.292089
0.249198
0.231335
0.225367
0.222746
0.217523
0.200479
0.175705
0.159101
0.150946
0.148113
0.148582
0.152797
0.160071
0.165763
0.169114
0.172402
0.175569
0.178393
0.180815
0.183038
0.186113
0.19583
0.203457
0.207916
0.208451
0.207091
0.207735
0.212217
0.228807
0.254687
0.275266
0.293385
0.311005
0.324347
0.341379
0.367431
0.40258
0.439126
0.46686
0.482042
0.493698
0.519125
0.54448
0.552833
0.555333
0.549958
0.519476
0.472803
0.437927
0.425938
0.419719
0.398274
0.361321
0.31935
0.292404
0.257357
0.244694
0.240905
0.239419
0.255413
0.28475
0.315515
0.343592
0.337687
0.304777
0.273447
0.263242
0.26867
0.283852
0.332882
0.434983
0.487881
0.503624
0.497256
0.492096
0.523622
0.789266
1.53991
1.57102
1.35308
1.30131
1.09686
1.01156
1.00588
0.945468
0.880445
0.803817
0.835463
0.737732
0.764283
0.837939
0.808611
0.727724
0.788499
0.797865
0.846923
0.951598
0.877
0.950028
1.16247
1.46861
1.68019
1.63945
1.85277
1.7186
1.72258
1.57101
1.53663
1.60121
1.47756
1.5358
1.72857
1.73812
1.87925
1.81293
1.53178
1.6916
1.97289
2.02227
1.85377
2.0209
2.19407
3.50831
3.51489
3.24156
3.06417
2.88295
2.8177
2.85883
3.02456
3.35105
3.04586
3.10213
2.57846
2.41003
2.4674
2.7737
2.50765
2.14763
1.93112
1.87756
14.2862
6.89596
2.05976
0.586836
0.25883
0.1996
0.207243
0.22524
0.225894
0.214256
0.198527
0.181878
0.17093
0.164734
0.160824
0.158645
0.157367
0.156586
0.156308
0.155814
0.154458
0.154404
0.154246
0.153459
0.150778
0.145855
0.144574
0.149761
0.167613
0.198738
0.23026
0.260358
0.293445
0.326895
0.351318
0.356169
0.317478
0.252224
0.211562
0.191147
0.181692
0.178147
0.176204
0.171917
0.160724
0.150022
0.144908
0.144111
0.145531
0.150779
0.159093
0.165892
0.169657
0.172641
0.174228
0.17358
0.172604
0.173443
0.17741
0.180202
0.184737
0.194721
0.203587
0.206289
0.207298
0.208891
0.21475
0.231802
0.260183
0.289215
0.317115
0.347219
0.373205
0.399494
0.431189
0.467143
0.500256
0.523779
0.538591
0.551972
0.563746
0.562344
0.555569
0.547998
0.522754
0.489232
0.437756
0.409548
0.391215
0.387765
0.367178
0.324108
0.27035
0.232979
0.227439
0.221553
0.218493
0.212914
0.202603
0.221316
0.239848
0.291438
0.308264
0.304906
0.283234
0.274264
0.283778
0.297653
0.338551
0.429071
0.47192
0.49326
0.485637
0.471726
0.499238
0.717018
1.36098
1.44776
1.31003
1.22887
1.07713
1.01084
0.946212
0.815217
0.76515
0.735143
0.731009
0.701887
0.695884
0.803592
0.792292
0.717347
0.737229
0.705689
0.750616
0.847201
0.824625
0.918236
1.21294
1.56005
1.79759
1.8236
2.02069
1.846
1.77246
1.49757
1.50137
1.46356
1.38159
1.52299
1.67046
1.69795
1.67353
1.51467
1.27815
1.63187
2.01115
1.9727
1.75956
1.91817
2.26453
4.00907
3.74804
3.49278
3.36668
2.88847
2.67871
2.69053
2.83442
3.16355
2.95391
3.06387
2.38079
2.16137
2.22911
2.63575
2.45722
2.1472
1.98228
1.88288
15.208
7.07933
1.8763
0.447163
0.234119
0.20849
0.217293
0.227967
0.225631
0.214717
0.199391
0.185371
0.178449
0.171351
0.165476
0.16286
0.161544
0.16098
0.162127
0.16615
0.172121
0.181348
0.187362
0.19056
0.189876
0.190001
0.197694
0.213185
0.228906
0.249246
0.266942
0.282554
0.301216
0.308794
0.296734
0.246657
0.2019
0.173341
0.158604
0.152862
0.151904
0.153019
0.153729
0.153313
0.149512
0.145687
0.144968
0.145835
0.1481
0.154226
0.159839
0.163449
0.165687
0.166181
0.165618
0.164139
0.16391
0.164205
0.166277
0.170172
0.17453
0.184133
0.19548
0.202443
0.20528
0.208419
0.215231
0.230261
0.25308
0.281758
0.314449
0.348404
0.381136
0.413433
0.448484
0.485096
0.522484
0.553492
0.572187
0.574515
0.574036
0.56935
0.541363
0.525385
0.486116
0.450687
0.413638
0.39148
0.367398
0.351627
0.328781
0.260061
0.219482
0.202848
0.19917
0.20192
0.206982
0.207464
0.192989
0.194403
0.217976
0.238788
0.273472
0.298341
0.298071
0.291592
0.295503
0.302559
0.353041
0.443148
0.472172
0.48713
0.474483
0.455964
0.481612
0.683568
1.22816
1.34425
1.26192
1.15129
1.06391
1.02575
0.909067
0.742722
0.71605
0.706133
0.661814
0.667322
0.655597
0.751634
0.711939
0.676611
0.674007
0.656986
0.746107
0.822999
0.809989
0.980036
1.36862
1.63671
2.04257
2.12935
2.0986
1.88268
1.75814
1.48161
1.40293
1.32726
1.32706
1.47678
1.51199
1.55849
1.34716
1.14602
1.16998
1.60598
1.97398
1.8445
1.64907
1.81186
2.32517
4.05126
3.78807
4.13787
3.98592
3.11634
2.67498
2.63594
2.5812
2.88452
2.91422
3.08283
2.12179
1.91871
2.01473
2.52882
2.43428
2.15603
2.12887
1.91926
15.9487
6.62259
1.37609
0.350544
0.228649
0.214705
0.22194
0.230629
0.233133
0.230322
0.220013
0.203524
0.193524
0.182896
0.175833
0.172658
0.172279
0.17463
0.181066
0.188177
0.193397
0.199891
0.203293
0.208136
0.211278
0.215937
0.224572
0.235511
0.243573
0.254956
0.259877
0.259457
0.245613
0.219677
0.190226
0.165044
0.148176
0.139641
0.137096
0.137767
0.142298
0.147144
0.149334
0.149816
0.149147
0.147583
0.147083
0.146932
0.147901
0.151414
0.153804
0.154419
0.155665
0.15778
0.159255
0.161372
0.164046
0.164577
0.164798
0.168067
0.173495
0.183728
0.195133
0.204215
0.209658
0.213869
0.220519
0.230918
0.245938
0.260479
0.287501
0.322984
0.364405
0.408415
0.446592
0.474107
0.511925
0.531671
0.556895
0.567745
0.56012
0.549863
0.522014
0.495212
0.457612
0.425737
0.400175
0.366918
0.340634
0.312927
0.257478
0.201757
0.177822
0.176806
0.185561
0.193082
0.198792
0.198032
0.187591
0.189432
0.217211
0.234466
0.246584
0.284825
0.29588
0.317248
0.333768
0.330212
0.36731
0.465978
0.490101
0.493947
0.4752
0.45516
0.478477
0.671946
1.13378
1.25354
1.21105
1.09948
1.04413
1.01732
0.886552
0.701994
0.687526
0.679869
0.636787
0.657448
0.646567
0.654985
0.613249
0.663465
0.617146
0.603292
0.74358
0.782431
0.821917
1.12841
1.46416
1.95618
2.32555
2.19802
2.05978
1.87088
1.73519
1.5407
1.3982
1.31135
1.31164
1.35882
1.27623
1.27227
1.04908
1.02602
1.15619
1.60147
1.73181
1.6859
1.59154
1.72013
2.25783
3.82259
3.89513
4.53788
4.80188
3.62771
2.77639
2.64601
2.43623
2.73379
2.91585
3.22216
2.08
1.8063
1.81292
2.38178
2.39064
2.18179
2.3183
1.96164
16.4829
6.40711
1.27163
0.346303
0.248307
0.229699
0.225407
0.233101
0.239603
0.238745
0.231981
0.224702
0.217668
0.207026
0.199606
0.194309
0.192417
0.192111
0.194109
0.197015
0.201198
0.204949
0.20742
0.211295
0.215492
0.219808
0.226033
0.229093
0.228461
0.219989
0.205672
0.192446
0.178511
0.162615
0.149683
0.139651
0.134016
0.132113
0.132008
0.133735
0.139624
0.145242
0.147793
0.147948
0.147376
0.146145
0.145384
0.144921
0.14478
0.144544
0.144428
0.145598
0.150524
0.155016
0.15722
0.159333
0.162634
0.165853
0.169305
0.174967
0.184466
0.19648
0.207352
0.21945
0.230156
0.238371
0.243632
0.247283
0.251053
0.256944
0.267117
0.288417
0.318365
0.365259
0.427701
0.44818
0.48141
0.507785
0.514013
0.527987
0.526265
0.510161
0.489557
0.463839
0.421243
0.389915
0.363256
0.318051
0.272954
0.23141
0.184215
0.160432
0.160041
0.165815
0.179163
0.187181
0.190194
0.188106
0.178947
0.182089
0.215966
0.244607
0.242864
0.255877
0.284493
0.320952
0.34528
0.342412
0.370332
0.472932
0.520343
0.512979
0.484617
0.465188
0.482426
0.670258
1.06163
1.1747
1.14615
1.04679
1.02024
0.945597
0.83803
0.664021
0.649423
0.629203
0.610336
0.63695
0.633152
0.572276
0.590658
0.637876
0.554534
0.563681
0.717482
0.718866
0.874318
1.2873
1.71309
2.33313
2.30752
2.16239
2.06977
1.93757
1.86803
1.68181
1.43095
1.30757
1.29036
1.25339
1.12188
1.04463
0.970918
0.995946
1.18509
1.63341
1.62294
1.64542
1.57535
1.65296
2.07666
3.20188
3.93696
3.9287
4.89294
4.46288
3.09843
2.76015
2.43494
2.65695
2.96578
3.29723
2.15481
1.808
1.7468
2.09674
2.29708
2.17298
2.36315
1.95923
17.2469
6.81889
1.40566
0.41432
0.286915
0.240507
0.230104
0.23442
0.247645
0.249973
0.237564
0.23205
0.22813
0.220982
0.215029
0.211274
0.207439
0.205864
0.204997
0.2045
0.205167
0.206602
0.207996
0.21
0.21048
0.207947
0.201115
0.190056
0.180864
0.172222
0.164782
0.157642
0.149401
0.141584
0.135433
0.130031
0.127778
0.127429
0.128047
0.129987
0.134301
0.138897
0.141861
0.142767
0.142848
0.142089
0.139912
0.138283
0.137148
0.137078
0.137894
0.141469
0.147917
0.151961
0.154502
0.158719
0.167013
0.174322
0.182468
0.190502
0.196617
0.204869
0.214539
0.226053
0.237672
0.246124
0.250977
0.254478
0.255065
0.25767
0.264589
0.276888
0.306404
0.32429
0.363064
0.39442
0.392799
0.423486
0.434913
0.434657
0.440624
0.427828
0.405331
0.38473
0.343871
0.313668
0.270017
0.226861
0.190227
0.164411
0.153485
0.148004
0.149263
0.158101
0.171581
0.173765
0.17363
0.173044
0.17441
0.17894
0.204415
0.242401
0.24341
0.240395
0.265973
0.31397
0.347267
0.347799
0.365368
0.463782
0.525651
0.537023
0.507517
0.482094
0.493543
0.674966
1.02585
1.12173
1.08901
0.997359
0.993235
0.841569
0.778733
0.639931
0.603754
0.615543
0.575725
0.583418
0.595461
0.543506
0.571649
0.573143
0.532179
0.553034
0.674657
0.702316
0.977366
1.37417
2.06758
2.29263
2.17432
2.1669
2.15341
1.98978
1.96535
1.77853
1.48398
1.30754
1.26605
1.22738
1.09813
0.99714
0.95729
0.986238
1.28709
1.66895
1.62102
1.61189
1.54546
1.64558
1.83934
2.67684
3.63782
2.94326
3.58842
4.91186
3.63575
3.02295
2.49588
2.53153
2.96434
3.2153
2.41095
1.88276
1.74406
1.91334
2.07088
2.06883
2.17208
1.90145
18.1363
7.26133
1.51208
0.521553
0.355731
0.282112
0.246436
0.234282
0.239008
0.240218
0.234136