/*--------------------------------*- C++ -*----------------------------------*\
| =========                 |                                                 |
| \\      /  F ield         | OpenFOAM: The Open Source CFD Toolbox           |
|  \\    /   O peration     | Version:  dev                                   |
|   \\  /    A nd           | Web:      http://www.openfoam.org               |
|    \\/     M anipulation  |                                                 |
\*---------------------------------------------------------------------------*/
FoamFile
{
    version     2.0;
    format      ascii;
    class       volScalarField;
    object      muSgs;
    location    "9.142";
}
// * * * * * * * * * * * * * * * * * * * * * * * * * * * * * * * * * * * * * //

dimensions      [1 -1 -1 0 0 0 0];

internalField   nonuniform List<scalar> 
12225
(
0.000214007
0.000208622
0.000153499
0.000153849
0.000153307
0.000164253
0.000184804
0.000185017
0.000207586
0.000203306
0.000219495
0.00021376
0.000222759
0.000208103
0.000215179
0.000262712
0.000428008
0.000492047
9.85615e-05
0.000194076
0.000174679
0.000195863
0.000168151
0.000192717
0.000177768
0.000192458
0.000188543
0.00019319
0.000197291
0.000194332
0.000194132
0.000172865
0.000184844
0.000226821
0.000298755
0.000387787
3.48256e-05
0.000128709
0.000131939
0.000166401
0.000144504
0.000169844
0.000148095
0.000157813
0.000153669
0.000152698
0.00015739
0.000150763
0.000155679
0.000121462
0.000139658
0.000229541
0.000314388
0.000362275
1.50065e-05
6.87648e-05
7.72187e-05
0.000101284
0.000100481
0.000109209
0.000112604
0.000104902
0.000109972
0.000101795
0.000106872
0.000104758
0.000110547
9.63688e-05
0.000124085
0.000188621
0.000337857
0.000336271
8.11143e-06
3.57157e-05
4.54744e-05
6.16995e-05
7.10398e-05
7.40171e-05
8.3652e-05
7.73792e-05
8.03901e-05
7.3079e-05
7.99052e-05
7.763e-05
9.96502e-05
8.90444e-05
0.000135135
0.000194725
0.000352881
0.000361539
1.28199e-05
3.52514e-05
4.09449e-05
5.94776e-05
6.025e-05
6.74217e-05
7.00122e-05
7.02156e-05
6.75017e-05
6.85564e-05
7.08987e-05
8.16087e-05
9.13795e-05
8.62224e-05
0.000125624
0.00020448
0.000368457
0.000437318
1.29768e-05
2.39905e-05
3.35039e-05
4.58295e-05
5.03532e-05
4.90557e-05
5.49654e-05
5.49016e-05
5.97099e-05
6.04794e-05
7.08528e-05
7.96664e-05
8.69129e-05
9.59724e-05
0.000115557
0.000186371
0.000387661
0.000458954
1.13226e-05
1.53387e-05
2.18599e-05
2.70683e-05
3.29419e-05
3.20251e-05
3.712e-05
3.55546e-05
3.84151e-05
3.84003e-05
5.25904e-05
4.95027e-05
6.85045e-05
6.07601e-05
9.07855e-05
0.00013403
0.000291053
0.000404431
1.54661e-05
1.74612e-05
2.15489e-05
2.63244e-05
3.02615e-05
3.12171e-05
3.44204e-05
3.48705e-05
3.58492e-05
3.66336e-05
4.21522e-05
4.13019e-05
4.82904e-05
4.84176e-05
6.39015e-05
9.74518e-05
0.000203881
0.000296993
2.3902e-05
2.58708e-05
2.58382e-05
2.89876e-05
3.18169e-05
3.32474e-05
3.54618e-05
3.71877e-05
3.73218e-05
3.72552e-05
3.91165e-05
3.86903e-05
4.18344e-05
4.25127e-05
5.02061e-05
6.64804e-05
0.000123154
0.000148271
3.57337e-05
4.10126e-05
3.73865e-05
3.85135e-05
3.7481e-05
3.86859e-05
3.96211e-05
4.20353e-05
4.08653e-05
4.05567e-05
4.06764e-05
4.0936e-05
4.15657e-05
4.23129e-05
4.39271e-05
4.99782e-05
7.36252e-05
8.15156e-05
5.72412e-05
6.21663e-05
5.80127e-05
5.77602e-05
5.30181e-05
5.32713e-05
5.06783e-05
5.24833e-05
4.98513e-05
4.88208e-05
4.63413e-05
4.62686e-05
4.51577e-05
4.55541e-05
4.53137e-05
4.67524e-05
5.37899e-05
5.67905e-05
8.88451e-05
8.9005e-05
8.44258e-05
8.23957e-05
7.67509e-05
7.46565e-05
7.05347e-05
6.98174e-05
6.62437e-05
6.42659e-05
5.97524e-05
5.77487e-05
5.47455e-05
5.32837e-05
5.15306e-05
5.04082e-05
5.16652e-05
5.17314e-05
0.00012586
0.000121051
0.00011397
0.000110166
0.000102082
9.83131e-05
9.27191e-05
9.07236e-05
8.64943e-05
8.24504e-05
7.7147e-05
7.43555e-05
7.10525e-05
6.8587e-05
6.54882e-05
6.18778e-05
5.82253e-05
5.58894e-05
0.000179841
0.000171662
0.000163957
0.000156886
0.000146345
0.000138562
0.000129542
0.000123036
0.000115137
0.000108108
0.000101037
9.5458e-05
9.00894e-05
8.54618e-05
8.0601e-05
7.64055e-05
7.17368e-05
6.77571e-05
0.000247174
0.000233843
0.00021811
0.000200358
0.000183506
0.000169641
0.000157102
0.000146642
0.000136535
0.000127451
0.000118968
0.000111658
0.000104596
9.8485e-05
9.22862e-05
8.70838e-05
8.16589e-05
7.72801e-05
0.000299528
0.000278433
0.000253786
0.000230055
0.000209463
0.00019234
0.000177532
0.000164772
0.000153078
0.000142693
0.000133031
0.00012445
0.000116235
0.000109044
0.000101943
9.60364e-05
8.99888e-05
8.50624e-05
0.000306466
0.00028468
0.000259204
0.000234643
0.000213579
0.000195996
0.000180736
0.000167519
0.000155627
0.000145086
0.000135214
0.000126424
0.000118029
0.000110651
0.000103432
9.73713e-05
9.11943e-05
8.61272e-05
0.000270343
0.00025783
0.000238572
0.000217149
0.000198612
0.000182748
0.000168827
0.000156739
0.000145832
0.000136103
0.000126944
0.000118793
0.00011099
0.000104092
9.73336e-05
9.15944e-05
8.56971e-05
8.08198e-05
0.000212039
0.000207619
0.000197652
0.000184669
0.000172325
0.000160631
0.000149795
0.000139901
0.00013083
0.000122739
0.000114925
0.000107938
0.000101188
9.50881e-05
8.89899e-05
8.37656e-05
7.82239e-05
7.3618e-05
0.000158582
0.000154922
0.000147614
0.000138836
0.000130581
0.000122812
0.000115764
0.000109504
0.0001039
9.92489e-05
9.42184e-05
8.9431e-05
8.48121e-05
8.02265e-05
7.52128e-05
7.10575e-05
6.60181e-05
6.17868e-05
0.000116731
0.000115711
0.000111236
0.000105761
0.000100143
9.52735e-05
9.03645e-05
8.47698e-05
7.96058e-05
7.53105e-05
7.08557e-05
6.71317e-05
6.40724e-05
6.12469e-05
5.81405e-05
5.57036e-05
5.27017e-05
5.01056e-05
7.75296e-05
7.97728e-05
7.82191e-05
7.57367e-05
7.20745e-05
6.8426e-05
6.52353e-05
6.28764e-05
6.10602e-05
5.92416e-05
5.71033e-05
5.52531e-05
5.35826e-05
5.1882e-05
5.01124e-05
4.85685e-05
4.67117e-05
4.49533e-05
5.11844e-05
5.4594e-05
5.31643e-05
5.12673e-05
5.10275e-05
5.13773e-05
5.22415e-05
5.30778e-05
5.31499e-05
5.24394e-05
5.13074e-05
5.02696e-05
4.91848e-05
4.79486e-05
4.67319e-05
4.54989e-05
4.40851e-05
4.26396e-05
3.11154e-05
3.32687e-05
3.59102e-05
3.94981e-05
4.2777e-05
4.58616e-05
4.86171e-05
5.06116e-05
5.14752e-05
5.12952e-05
5.06094e-05
4.9921e-05
4.90414e-05
4.79985e-05
4.69584e-05
4.58083e-05
4.45931e-05
4.33177e-05
1.57646e-05
2.2451e-05
3.10273e-05
3.96754e-05
4.70336e-05
5.2114e-05
5.59339e-05
5.86825e-05
5.99461e-05
5.99451e-05
5.92922e-05
5.8598e-05
5.75828e-05
5.63983e-05
5.5287e-05
5.40467e-05
5.26905e-05
5.12648e-05
9.65669e-06
2.74477e-05
4.7917e-05
6.4581e-05
7.57161e-05
8.17854e-05
8.52918e-05
8.70007e-05
8.70862e-05
8.57337e-05
8.41591e-05
8.2493e-05
8.05789e-05
7.86401e-05
7.68264e-05
7.48065e-05
7.2588e-05
7.02341e-05
2.40251e-05
7.11665e-05
0.000109469
0.000129016
0.00013741
0.000139261
0.000137937
0.000135948
0.000133047
0.000129274
0.000125742
0.000122042
0.000118498
0.000114907
0.000111357
0.000107347
0.000103372
9.85177e-05
8.96203e-05
0.000181549
0.000212303
0.000214201
0.000208306
0.000201724
0.000195152
0.000188983
0.000182609
0.000176576
0.000171066
0.000165615
0.000160571
0.000155391
0.000150167
0.000144474
0.000138419
0.000128451
0.000244216
0.000276766
0.000244946
0.000210244
0.000194842
0.00019196
0.00019452
0.000199961
0.000205386
0.0002099
0.000213316
0.000215141
0.000215655
0.000214978
0.000213409
0.000209752
0.000204314
0.000191358
2.76159e-05
3.53061e-05
3.61103e-05
3.66709e-05
3.77931e-05
3.9795e-05
4.23368e-05
4.53176e-05
4.84901e-05
5.17478e-05
5.51647e-05
5.87594e-05
6.26685e-05
6.69039e-05
7.17116e-05
7.68516e-05
8.15314e-05
8.5821e-05
9.14516e-05
9.87725e-05
0.000106443
0.000113502
0.000121869
0.000133109
0.00014117
0.000148982
0.000157939
0.000161689
0.000167038
0.00017704
0.000179342
0.000176696
0.00017662
0.000180292
0.000184634
0.000187363
0.000189087
0.000191558
0.000196135
0.000202541
0.000209714
0.000218436
0.000229556
0.000241199
0.000249578
0.000254145
0.000258642
0.00026476
0.000271362
0.000276357
0.000280053
0.000283764
0.000287394
0.000291366
0.000295123
0.000298037
0.000301046
0.000303686
0.000306277
0.000308608
0.000310717
0.000312976
0.000315204
0.000317192
0.000318991
0.000320562
0.00032178
0.0003231
0.00032432
0.000325274
0.000326186
0.00032712
0.000328243
0.000329814
0.000331765
0.000334146
0.000336826
0.000339272
0.000341179
0.000341818
0.000341034
0.000338299
0.000335164
0.00033197
0.000327838
0.000323467
0.000318428
0.000312991
0.00030596
0.000298677
0.000292763
0.000284214
0.000277655
0.000267137
0.00025543
0.000244807
0.000237293
0.000232019
0.000231852
0.000230388
0.000230001
0.000232003
0.000237354
0.00024668
0.000260806
0.000267512
0.000267937
0.00026555
0.000260974
0.000253946
0.000240118
0.000219099
0.000196461
0.000181881
0.000174884
0.000175826
0.000182853
0.000195365
0.000201911
0.00020279
0.000205272
0.000214898
0.000266107
0.00032843
0.000371859
0.000386974
0.000393096
0.000403506
0.000416576
0.000413154
0.000404784
0.000419681
0.000444677
0.000489732
0.000517641
0.000523391
0.000537762
0.00055899
0.000582329
0.000605453
0.000624629
0.000649964
0.000660454
0.000672177
0.000659671
0.000670053
0.000671157
0.00070163
0.00074811
0.000848263
0.000933871
0.000964407
0.000954016
0.00090636
0.000876612
0.000844294
0.000823694
0.000804725
0.000774498
0.000776946
0.000751323
0.000717745
0.000714906
0.000692624
0.000616178
0.000571498
0.000568184
0.000541534
0.000531889
0.000574457
0.000645869
0.000745779
0.00084876
0.000928025
0.000937633
0.000950994
0.000997796
0.00107057
0.00118083
0.00122763
5.54016e-05
4.05207e-05
3.58995e-05
3.50444e-05
3.53189e-05
3.62604e-05
3.79376e-05
4.02587e-05
4.30832e-05
4.63853e-05
4.9899e-05
5.35742e-05
5.67717e-05
5.97601e-05
6.24325e-05
6.45261e-05
6.59894e-05
6.6574e-05
6.70593e-05
6.70314e-05
6.51035e-05
6.38258e-05
6.3739e-05
6.35564e-05
6.53123e-05
6.93594e-05
7.59819e-05
8.07485e-05
8.95336e-05
9.64107e-05
0.000106827
0.000121478
0.000127
0.000126636
0.000125414
0.000121608
0.00011225
0.000100035
9.11246e-05
8.74263e-05
8.69351e-05
8.80665e-05
9.16606e-05
0.000101627
0.000108493
0.000111636
0.00011659
0.000123137
0.00013313
0.000140118
0.000142597
0.000146193
0.000153493
0.000164174
0.000176301
0.000187202
0.000197001
0.000204543
0.000209409
0.000212057
0.000212783
0.00021272
0.000212751
0.00021223
0.000212171
0.00021262
0.000212327
0.000212814
0.000213657
0.000214376
0.000214956
0.000216405
0.000218188
0.000220817
0.000222573
0.000223149
0.000221122
0.000215117
0.000207133
0.000198136
0.00019019
0.000182885
0.000177882
0.000173542
0.000169146
0.000163823
0.000157371
0.000151525
0.000146562
0.000143409
0.000140736
0.000135618
0.000130717
0.000120658
0.000114024
0.000111926
0.000111731
0.000114345
0.000120073
0.000123089
0.000124323
0.000125631
0.000131673
0.000142915
0.000157755
0.000173794
0.0001824
0.000191035
0.000205885
0.000210831
0.000208922
0.000200474
0.000181731
0.000164685
0.00015833
0.000160873
0.000173119
0.000182054
0.000194197
0.000222191
0.000255236
0.000285716
0.000327736
0.000342764
0.000327972
0.000303156
0.000302054
0.000304407
0.000294286
0.000254844
0.000239268
0.000257453
0.000273681
0.000319104
0.000371679
0.000387498
0.000386846
0.000389485
0.000397036
0.000418325
0.000435711
0.000438964
0.000457039
0.000468947
0.000465122
0.000440828
0.000430578
0.000412923
0.000401478
0.00042942
0.000473966
0.000525204
0.000553583
0.000557874
0.000554376
0.000558257
0.000566308
0.00057687
0.000587746
0.000602005
0.000600584
0.00059692
0.000592885
0.000590213
0.000593654
0.000572459
0.000570111
0.000555361
0.000551791
0.000559145
0.000566507
0.000573984
0.000589133
0.0005931
0.000577809
0.000588536
0.000637811
0.000664559
0.000665998
0.000642731
8.94404e-05
5.98655e-05
4.12526e-05
3.62588e-05
3.54006e-05
3.59508e-05
3.71173e-05
3.90789e-05
4.21198e-05
4.67644e-05
5.19036e-05
5.78662e-05
6.34951e-05
6.78725e-05
7.06516e-05
7.14606e-05
7.10749e-05
6.96895e-05
6.89114e-05
6.80579e-05
6.62235e-05
6.45903e-05
6.09555e-05
5.87457e-05
5.85808e-05
5.67334e-05
5.58295e-05
5.5981e-05
5.5966e-05
5.78483e-05
6.07394e-05
6.53718e-05
7.50547e-05
8.50885e-05
9.0601e-05
9.08905e-05
8.90428e-05
8.21706e-05
7.26999e-05
6.97867e-05
6.8623e-05
6.67473e-05
6.7539e-05
6.99964e-05
7.24729e-05
7.84668e-05
8.98389e-05
0.000102191
0.000111543
0.000119358
0.000126807
0.000133046
0.0001368
0.000139044
0.000140297
0.00014067
0.000139766
0.000136542
0.000132911
0.00012917
0.000125385
0.000122523
0.000121209
0.000119761
0.000118951
0.000118286
0.000117073
0.000115808
0.000114598
0.000113756
0.000113232
0.000113701
0.000114537
0.000115657
0.000115626
0.000114319
0.000110453
0.000104689
9.9214e-05
9.5463e-05
9.28956e-05
9.20512e-05
9.22103e-05
9.28829e-05
9.36145e-05
9.34893e-05
9.29325e-05
9.25213e-05
9.23935e-05
9.25001e-05
9.27609e-05
9.25413e-05
9.18805e-05
8.74065e-05
8.47339e-05
8.58536e-05
8.77967e-05
8.89694e-05
8.86164e-05
8.86006e-05
8.82678e-05
8.83542e-05
9.1976e-05
0.000102112
0.000112246
0.000121318
0.000126463
0.000127551
0.000135112
0.000149814
0.000168586
0.00017931
0.000180222
0.000158606
0.000148349
0.000150857
0.000171053
0.000191299
0.000217374
0.000250843
0.000268661
0.000284176
0.000284797
0.000249169
0.000218818
0.000212574
0.000213061
0.000211125
0.000198264
0.000183684
0.000187771
0.000204921
0.000214235
0.000261794
0.000304087
0.000304367
0.00031007
0.000311884
0.000314835
0.000334656
0.000345116
0.000367708
0.000378705
0.0003754
0.000373822
0.000365458
0.000378985
0.000361452
0.000315915
0.000318546
0.000345822
0.000384857
0.000419515
0.000428697
0.000424128
0.000419989
0.000424177
0.000434637
0.000457398
0.000487558
0.000512553
0.000518422
0.000522779
0.00053151
0.000548812
0.000544133
0.00052829
0.000552218
0.000539383
0.000501245
0.000557359
0.000512943
0.000494642
0.000486853
0.000470445
0.000517022
0.000543294
0.000541959
0.000503318
0.000474194
0.000126051
8.99755e-05
5.76543e-05
4.46503e-05
4.05466e-05
4.06165e-05
4.17342e-05
4.43506e-05
4.84156e-05
5.47163e-05
6.33719e-05
7.02511e-05
7.40199e-05
7.50554e-05
7.44932e-05
7.36904e-05
7.26258e-05
7.08709e-05
6.77561e-05
6.61028e-05
6.55202e-05
6.36088e-05
6.09981e-05
5.85801e-05
5.70352e-05
5.66106e-05
5.50561e-05
5.2122e-05
4.95311e-05
4.71325e-05
4.7308e-05
4.887e-05
5.04444e-05
5.58871e-05
6.52875e-05
6.90767e-05
7.00172e-05
6.82153e-05
6.86689e-05
7.22635e-05
7.39297e-05
7.44224e-05
7.65029e-05
7.86307e-05
8.06234e-05
8.42853e-05
9.38052e-05
0.000101218
0.000105344
0.000107713
0.000108874
0.000108977
0.000107303
0.000104256
0.000101484
9.7946e-05
9.34989e-05
8.90387e-05
8.52821e-05
8.23279e-05
8.00073e-05
7.88124e-05
7.83931e-05
7.80678e-05
7.77034e-05
7.72596e-05
7.63092e-05
7.50711e-05
7.35839e-05
7.24538e-05
7.20079e-05
7.20361e-05
7.25835e-05
7.32628e-05
7.35698e-05
7.31756e-05
7.18716e-05
7.03251e-05
6.98908e-05
7.01327e-05
7.08396e-05
7.22022e-05
7.39604e-05
7.62265e-05
7.86109e-05
8.03146e-05
8.16499e-05
8.27517e-05
8.38027e-05
8.45604e-05
8.45534e-05
8.36478e-05
8.35622e-05
8.26522e-05
8.15526e-05
8.06013e-05
8.26971e-05
8.55569e-05
8.5798e-05
8.29453e-05
7.9395e-05
7.67543e-05
7.7088e-05
8.23903e-05
9.22291e-05
9.90963e-05
0.000107146
0.000110114
0.000112554
0.000118766
0.000130927
0.000154841
0.000165229
0.000159002
0.000151382
0.000159625
0.000199984
0.000221033
0.0002329
0.000250883
0.000256088
0.000251133
0.000225876
0.000193277
0.000180394
0.000180049
0.000184323
0.000184448
0.000173665
0.000167882
0.000171954
0.000188973
0.000204668
0.000232741
0.000269185
0.00027043
0.00027767
0.000281629
0.000294641
0.000312242
0.000310609
0.000316598
0.000330315
0.000331635
0.000349395
0.00031536
0.000338089
0.000344762
0.000304936
0.000279853
0.000291956
0.000320587
0.000356159
0.000365122
0.000364617
0.000357472
0.000352803
0.000360497
0.00039417
0.000411171
0.000431845
0.000453389
0.000471883
0.000489734
0.000523747
0.000525052
0.000502221
0.00053797
0.000489763
0.000462068
0.000551585
0.000506623
0.000458888
0.000437335
0.000426022
0.000483501
0.000475914
0.000460328
0.000431602
0.000405736
0.000156406
0.00011097
7.81118e-05
6.07038e-05
5.5657e-05
5.66118e-05
6.05073e-05
6.70418e-05
7.31385e-05
7.79617e-05
7.92719e-05
7.87012e-05
7.77685e-05
7.60135e-05
7.32919e-05
7.01766e-05
6.69728e-05
6.42686e-05
6.14943e-05
5.86668e-05
5.70644e-05
5.63113e-05
5.51009e-05
5.36223e-05
5.25308e-05
5.26436e-05
5.28501e-05
5.21581e-05
4.83198e-05
4.37815e-05
4.11837e-05
3.98303e-05
4.10297e-05
4.30969e-05
4.60233e-05
5.39831e-05
6.32204e-05
6.83446e-05
7.21321e-05
7.57654e-05
7.74307e-05
7.76155e-05
7.72941e-05
7.72019e-05
7.81322e-05
8.18612e-05
8.77e-05
8.9513e-05
8.93862e-05
8.74039e-05
8.62945e-05
8.51141e-05
8.21088e-05
7.7919e-05
7.3672e-05
6.8941e-05
6.44177e-05
6.10945e-05
5.89466e-05
5.77409e-05
5.71324e-05
5.69894e-05
5.7285e-05
5.77701e-05
5.81549e-05
5.85369e-05
5.8647e-05
5.8534e-05
5.82698e-05
5.82128e-05
5.85692e-05
5.92987e-05
6.04926e-05
6.17146e-05
6.26373e-05
6.32166e-05
6.36944e-05
6.43739e-05
6.55179e-05
6.71319e-05
6.90318e-05
7.12261e-05
7.36708e-05
7.64844e-05
7.93871e-05
8.16256e-05
8.3303e-05
8.40816e-05
8.46351e-05
8.50986e-05
8.42938e-05
8.17921e-05
8.0169e-05
7.90036e-05
7.88487e-05
7.73082e-05
7.54281e-05
7.67683e-05
7.96767e-05
7.9825e-05
7.63694e-05
7.19717e-05
7.03199e-05
7.09132e-05
7.68778e-05
8.51502e-05
9.76998e-05
0.00010654
0.000109464
0.000110802
0.000113616
0.00012466
0.000141278
0.000148462
0.000151436
0.000168853
0.000214942
0.000225901
0.000228271
0.00023036
0.00022472
0.000216178
0.000197122
0.000174675
0.000165239
0.000164411
0.000170118
0.000171754
0.000163494
0.000159236
0.0001593
0.000180487
0.000204063
0.000219867
0.000244688
0.000261813
0.000262017
0.000261405
0.000291014
0.000303042
0.000303855
0.000302595
0.000313948
0.000294507
0.000331765
0.000288007
0.000289102
0.000296395
0.000287442
0.00025483
0.000265225
0.00028349
0.00031784
0.000329245
0.000331125
0.000328981
0.00032232
0.000336542
0.000383537
0.000377643
0.000395371
0.000423011
0.000437438
0.000453498
0.00050755
0.00050433
0.000494689
0.000492632
0.000455006
0.000443204
0.000466952
0.000494484
0.000445361
0.000409853
0.000407966
0.000449778
0.000432093
0.000406097
0.000386052
0.000349594
0.000181329
0.000121861
8.62507e-05
7.92907e-05
8.28745e-05
8.55963e-05
8.57237e-05
8.48915e-05
8.37365e-05
8.20188e-05
7.94738e-05
7.559e-05
7.00091e-05
6.48856e-05
6.06757e-05
5.68554e-05
5.39802e-05
5.25942e-05
5.20115e-05
5.12265e-05
4.93505e-05
4.75873e-05
4.71144e-05
4.73437e-05
4.85875e-05
4.94309e-05
4.92099e-05
4.80584e-05
4.52559e-05
4.27369e-05
4.03157e-05
3.94931e-05
3.98216e-05
4.00628e-05
4.3455e-05
5.39969e-05
6.45486e-05
7.16353e-05
7.38151e-05
7.26454e-05
7.13485e-05
7.17657e-05
7.25089e-05
7.21293e-05
7.17971e-05
7.33596e-05
7.54265e-05
7.52698e-05
7.24376e-05
6.84843e-05
6.71937e-05
6.59754e-05
6.30719e-05
5.92289e-05
5.52494e-05
5.14515e-05
4.90254e-05
4.77784e-05
4.72468e-05
4.72039e-05
4.75374e-05
4.80689e-05
4.88412e-05
4.9534e-05
5.006e-05
5.08231e-05
5.15613e-05
5.21328e-05
5.2806e-05
5.35204e-05
5.44526e-05
5.59289e-05
5.74483e-05
5.90315e-05
6.03016e-05
6.13658e-05
6.25966e-05
6.4008e-05
6.56009e-05
6.7637e-05
7.0275e-05
7.33141e-05
7.68064e-05
8.05442e-05
8.40446e-05
8.70101e-05
8.95074e-05
9.03727e-05
9.04201e-05
8.90884e-05
8.73483e-05
8.45548e-05
8.13027e-05
7.94198e-05
8.01344e-05
8.0551e-05
7.7161e-05
7.49645e-05
7.53998e-05
7.82084e-05
7.95132e-05
7.61539e-05
7.32489e-05
7.07003e-05
7.21283e-05
8.07077e-05
9.16755e-05
9.92043e-05
0.000102448
0.000104024
0.000104695
0.000106555
0.000117546
0.000134279
0.000147221
0.000170773
0.000217694
0.000224313
0.000207306
0.000199892
0.000199286
0.000194843
0.00018288
0.000167865
0.000161344
0.000159183
0.000157907
0.000163159
0.000159135
0.000154979
0.000148769
0.000164528
0.000199951
0.000217977
0.000214241
0.00025147
0.000256107
0.000260841
0.000272583
0.000270172
0.000265042
0.000271599
0.000303854
0.000274441
0.000319717
0.000272556
0.00025924
0.000263068
0.000271695
0.000232378
0.000243248
0.000259657
0.000291752
0.00030712
0.000304113
0.000307889
0.00030486
0.000326049
0.000366224
0.000342864
0.000372863
0.000407633
0.000409833
0.000419944
0.000487199
0.000483505
0.000497075
0.000465464
0.000451114
0.00042855
0.000436989
0.000465742
0.000435368
0.000390663
0.000391448
0.000418372
0.000395717
0.000368611
0.000348665
0.000318612
0.000202128
0.000133752
0.00010336
0.00010309
9.77821e-05
9.26837e-05
8.69192e-05
8.03795e-05
7.205e-05
6.38626e-05
5.61071e-05
5.02123e-05
4.70365e-05
4.55001e-05
4.52803e-05
4.60482e-05
4.78226e-05
4.81553e-05
4.723e-05
4.39307e-05
4.09575e-05
3.98233e-05
3.9878e-05
4.04177e-05
4.156e-05
4.19211e-05
4.22272e-05
4.1988e-05
4.12324e-05
3.98887e-05
3.79504e-05
3.727e-05
3.74893e-05
3.86136e-05
4.2525e-05
5.34342e-05
6.40222e-05
7.10724e-05
7.23686e-05
7.08031e-05
6.53855e-05
6.35248e-05
6.35653e-05
6.35244e-05
6.29265e-05
6.33608e-05
6.37906e-05
6.31054e-05
5.93723e-05
5.51143e-05
5.35583e-05
5.23525e-05
5.02881e-05
4.77109e-05
4.54349e-05
4.39594e-05
4.34147e-05
4.34334e-05
4.37805e-05
4.43527e-05
4.51683e-05
4.59396e-05
4.67391e-05
4.7466e-05
4.79609e-05
4.86753e-05
4.96998e-05
5.05772e-05
5.14197e-05
5.23226e-05
5.32989e-05
5.48455e-05
5.65327e-05
5.81468e-05
5.95516e-05
6.07668e-05
6.23713e-05
6.43934e-05
6.71429e-05
7.0798e-05
7.50225e-05
7.91792e-05
8.29085e-05
8.67132e-05
9.00922e-05
9.26681e-05
9.46389e-05
9.60283e-05
9.67238e-05
9.55717e-05
9.31459e-05
9.08494e-05
8.69393e-05
8.32056e-05
8.21588e-05
8.24354e-05
8.19085e-05
7.78948e-05
7.49589e-05
7.48273e-05
7.76675e-05
7.85134e-05
7.32646e-05
6.87324e-05
6.94299e-05
7.70621e-05
8.01241e-05
8.38192e-05
9.11525e-05
9.51419e-05
9.75711e-05
9.91997e-05
0.000105596
0.000120424
0.000136922
0.000168834
0.000216459
0.0002168
0.000190331
0.000183328
0.000179619
0.000175345
0.000170428
0.000161935
0.000159624
0.000156601
0.000145924
0.000150536
0.000155661
0.000144283
0.00013304
0.000141935
0.00018038
0.000209692
0.000200726
0.000225155
0.000229252
0.000261811
0.000257061
0.000226188
0.00022456
0.000215865
0.000247376
0.0002423
0.000295034
0.000249869
0.000227182
0.000230733
0.000247584
0.000222213
0.000230338
0.000242854
0.000270963
0.000286472
0.000277714
0.000288382
0.000289785
0.000309789
0.000326879
0.000299246
0.000339126
0.000385553
0.000384015
0.000391634
0.000460798
0.000462067
0.00049643
0.000466354
0.000450261
0.000427624
0.000444013
0.000454268
0.000420614
0.000374274
0.000373857
0.000393252
0.000367276
0.000346753
0.000328381
0.000321577
0.000221381
0.000156494
0.000129507
0.000110912
9.58267e-05
7.7282e-05
6.17768e-05
4.99654e-05
4.36563e-05
4.04596e-05
3.90313e-05
3.86308e-05
3.90581e-05
3.94748e-05
3.9559e-05
3.923e-05
3.81573e-05
3.68079e-05
3.61017e-05
3.55108e-05
3.50382e-05
3.50014e-05
3.53895e-05
3.67274e-05
3.86945e-05
3.97216e-05
4.03923e-05
4.0068e-05
3.77366e-05
3.58674e-05
3.54132e-05
3.62128e-05
3.77233e-05
4.06735e-05
4.60806e-05
5.34589e-05
6.28912e-05
6.90503e-05
6.99448e-05
6.77377e-05
6.1522e-05
5.86648e-05
5.74798e-05
5.52613e-05
5.31142e-05
5.31249e-05
5.33661e-05
5.2259e-05
4.83533e-05
4.57443e-05
4.4788e-05
4.41093e-05
4.3183e-05
4.23077e-05
4.17486e-05
4.16795e-05
4.19567e-05
4.24471e-05
4.31209e-05
4.39244e-05
4.48369e-05
4.57305e-05
4.64155e-05
4.704e-05
4.75262e-05
4.81263e-05
4.91236e-05
5.023e-05
5.12149e-05
5.22526e-05
5.34568e-05
5.5037e-05
5.68761e-05
5.86536e-05
6.03843e-05
6.20941e-05
6.44276e-05
6.77049e-05
7.21722e-05
7.63384e-05
7.8906e-05
8.12899e-05
8.40329e-05
8.72081e-05
9.03267e-05
9.27977e-05
9.45676e-05
9.61974e-05
9.67578e-05
9.56964e-05
9.32983e-05
9.0668e-05
8.74958e-05
8.3782e-05
8.24138e-05
8.27946e-05
8.23912e-05
8.12548e-05
7.75352e-05
7.67391e-05
7.6668e-05
7.77833e-05
7.43781e-05
6.78684e-05
6.63883e-05
6.87923e-05
7.04232e-05
7.32451e-05
8.33379e-05
9.37556e-05
9.69118e-05
9.78181e-05
0.000101293
0.000109938
0.000124682
0.000160868
0.000208338
0.000205341
0.000182255
0.000172301
0.000162206
0.00015453
0.000153006
0.000156494
0.000158479
0.000154115
0.000139992
0.000138773
0.00014879
0.000136682
0.000130247
0.000130812
0.000143994
0.000169643
0.000197384
0.000213261
0.000200285
0.000245609
0.000225295
0.000212489
0.000220494
0.000202958
0.000214556
0.000212072
0.000248233
0.000218225
0.000207499
0.000215869
0.000239565
0.000224084
0.000226429
0.000233134
0.000255671
0.000272256
0.000260122
0.000273319
0.000275478
0.000291818
0.000284898
0.000271714
0.000311544
0.0003665
0.000360141
0.000379775
0.000433599
0.000441487
0.00047039
0.000467177
0.000451031
0.000428954
0.000428295
0.000456155
0.000407476
0.000360149
0.000357468
0.000374228
0.000345175
0.000327285
0.000306297
0.000303546
0.00024044
0.000186156
0.000138609
0.000100866
6.41229e-05
4.6244e-05
3.94556e-05
3.73454e-05
3.64336e-05
3.58641e-05
3.55871e-05
3.55571e-05
3.57431e-05
3.57675e-05
3.55793e-05
3.50712e-05
3.45548e-05
3.44274e-05
3.45666e-05
3.45983e-05
3.44985e-05
3.45611e-05
3.50891e-05
3.55221e-05
3.5801e-05
3.59331e-05
3.61254e-05
3.55031e-05
3.49035e-05
3.51014e-05
3.63577e-05
3.82443e-05
3.9746e-05
4.23919e-05
4.78955e-05
5.51213e-05
6.18413e-05
6.44229e-05
6.39049e-05
6.0021e-05
5.59681e-05
5.47174e-05
5.40591e-05
5.20404e-05
4.9398e-05
4.75602e-05
4.59593e-05
4.37056e-05
4.14836e-05
4.0406e-05
4.01838e-05
4.03156e-05
4.04838e-05
4.0666e-05
4.0968e-05
4.1339e-05
4.18024e-05
4.24042e-05
4.31826e-05
4.4046e-05
4.49468e-05
4.57207e-05
4.62986e-05
4.6631e-05
4.69123e-05
4.73892e-05
4.8309e-05
4.9593e-05
5.07764e-05
5.18918e-05
5.34155e-05
5.51611e-05
5.70533e-05
5.91578e-05
6.18048e-05
6.48048e-05
6.87165e-05
7.29563e-05
7.59237e-05
7.77936e-05
7.92808e-05
8.10888e-05
8.37751e-05
8.67092e-05
8.95714e-05
9.15396e-05
9.24301e-05
9.37687e-05
9.39666e-05
9.33945e-05
9.11495e-05
8.79849e-05
8.50191e-05
8.03525e-05
7.7737e-05
7.78084e-05
7.81398e-05
7.78266e-05
7.59709e-05
7.6917e-05
7.76773e-05
7.78051e-05
7.73319e-05
7.06133e-05
6.72065e-05
6.67135e-05
6.64518e-05
6.82679e-05
7.79596e-05
9.25975e-05
9.88032e-05
9.9798e-05
0.000100365
0.000103528
0.000114415
0.00014964
0.000199037
0.000192808
0.0001753
0.000166674
0.000148535
0.000140353
0.000143107
0.0001478
0.000150701
0.000146873
0.000132387
0.000126666
0.000133455
0.000132377
0.000128971
0.00012654
0.00013215
0.000152314
0.000185505
0.000200756
0.000180819
0.000221332
0.000189711
0.000194277
0.000206195
0.000200762
0.000216234
0.000205845
0.000217885
0.000200965
0.000205298
0.000212923
0.000227914
0.000218087
0.00022495
0.000232916
0.000248061
0.000261831
0.000245887
0.000261989
0.000269137
0.000282856
0.000265388
0.000258228
0.000304017
0.000354289
0.000340477
0.000372238
0.000406612
0.000430158
0.00042696
0.000452191
0.000447927
0.000427875
0.000413766
0.000453641
0.000397944
0.000347195
0.000341926
0.00036033
0.000328123
0.000301509
0.00027451
0.000270127
0.000258481
0.000198271
0.000128186
7.18246e-05
4.54612e-05
3.69153e-05
3.51851e-05
3.55152e-05
3.58368e-05
3.58613e-05
3.59199e-05
3.56638e-05
3.5371e-05
3.48454e-05
3.45924e-05
3.43153e-05
3.43463e-05
3.46925e-05
3.5146e-05
3.56509e-05
3.59719e-05
3.54934e-05
3.4692e-05
3.39254e-05
3.34675e-05
3.32924e-05
3.33544e-05
3.35372e-05
3.40919e-05
3.53397e-05
3.64821e-05
3.79307e-05
3.98659e-05
4.45319e-05
5.05379e-05
5.67427e-05
6.03885e-05
6.04297e-05
5.77891e-05
5.24332e-05
5.02277e-05
4.97724e-05
4.96014e-05
4.8925e-05
4.72346e-05
4.39872e-05
4.13465e-05
3.9513e-05
3.84957e-05
3.83926e-05
3.87649e-05
3.93337e-05
3.99431e-05
4.0471e-05
4.0995e-05
4.14741e-05
4.20752e-05
4.30085e-05
4.39227e-05
4.47714e-05
4.56549e-05
4.63799e-05
4.67318e-05
4.67736e-05
4.68116e-05
4.70949e-05
4.79442e-05
4.98022e-05
5.18145e-05
5.3288e-05
5.5082e-05
5.71741e-05
5.94411e-05
6.20845e-05
6.59261e-05
7.04785e-05
7.47891e-05
7.72991e-05
7.81522e-05
7.84293e-05
8.0062e-05
8.30935e-05
8.63483e-05
8.85012e-05
8.94517e-05
8.86576e-05
8.65149e-05
8.5058e-05
8.5555e-05
8.5307e-05
8.44424e-05
8.12302e-05
7.91159e-05
7.36733e-05
7.02273e-05
6.86424e-05
6.8226e-05
6.89966e-05
6.98301e-05
7.34555e-05
7.82241e-05
7.87466e-05
7.73509e-05
7.18955e-05
6.77211e-05
6.67503e-05
6.65126e-05
6.80979e-05
7.47427e-05
9.00889e-05
9.90006e-05
0.000102244
0.000101061
0.000101055
0.000108178
0.000135919
0.000188416
0.000186132
0.00017242
0.000167031
0.00014512
0.000134822
0.000137126
0.000135984
0.000135786
0.000130493
0.000122676
0.000114012
0.00012147
0.000129442
0.000127906
0.000122016
0.000128818
0.0001402
0.000158752
0.000161776
0.000146457
0.000157828
0.000169234
0.000185491
0.000193626
0.000189671
0.000204637
0.000196809
0.000210464
0.000192625
0.0002032
0.000211209
0.000213627
0.000213771
0.000225342
0.000235022
0.000240883
0.000248027
0.000226888
0.000247153
0.000263195
0.00027522
0.000246817
0.000243899
0.000299521
0.000350374
0.000325837
0.000370245
0.00039078
0.000412201
0.000399718
0.000422293
0.000437654
0.000420336
0.000394892
0.000439691
0.000389838
0.000335782
0.000324502
0.000351325
0.000318376
0.000286987
0.000262763
0.000255138
0.000273661
0.000200038
0.000115028
6.21879e-05
4.12533e-05
3.6092e-05
3.56005e-05
3.65031e-05
3.73115e-05
3.70324e-05
3.63382e-05
3.55362e-05
3.49957e-05
3.45831e-05
3.43517e-05
3.43025e-05
3.44246e-05
3.46693e-05
3.48394e-05
3.49709e-05
3.47794e-05
3.43912e-05
3.39222e-05
3.33035e-05
3.29957e-05
3.2997e-05
3.32026e-05
3.36355e-05
3.46399e-05
3.63312e-05
3.81418e-05
4.06755e-05
4.49825e-05
5.05074e-05
5.4784e-05
5.78008e-05
5.82018e-05
5.58903e-05
5.00457e-05
4.67165e-05
4.56185e-05
4.56152e-05
4.57083e-05
4.50968e-05
4.2947e-05
3.99507e-05
3.80029e-05
3.71405e-05
3.70162e-05
3.73621e-05
3.81827e-05
3.92836e-05
4.01466e-05
4.07926e-05
4.14783e-05
4.21617e-05
4.28033e-05
4.3378e-05
4.39095e-05
4.4497e-05
4.58267e-05
4.67539e-05
4.71816e-05
4.72377e-05
4.72396e-05
4.76974e-05
4.87496e-05
5.12348e-05
5.47036e-05
5.75879e-05
6.02613e-05
6.28526e-05
6.47764e-05
6.71371e-05
7.04921e-05
7.43196e-05
7.76442e-05
7.97038e-05
8.03504e-05
8.09045e-05
8.33541e-05
8.64405e-05
8.82595e-05
8.93558e-05
8.85507e-05
8.56598e-05
8.14344e-05
7.85307e-05
7.8844e-05
7.90535e-05
7.81325e-05
7.32311e-05
6.89605e-05
6.59357e-05
6.38876e-05
6.32777e-05
6.15885e-05
6.07844e-05
6.12926e-05
6.55842e-05
7.09696e-05
7.66138e-05
7.55592e-05
7.22514e-05
6.83238e-05
6.69822e-05
6.64445e-05
6.74873e-05
7.39954e-05
8.73527e-05
9.69396e-05