/*--------------------------------*- C++ -*----------------------------------*\
| =========                 |                                                 |
| \\      /  F ield         | OpenFOAM: The Open Source CFD Toolbox           |
|  \\    /   O peration     | Version:  dev                                   |
|   \\  /    A nd           | Web:      http://www.openfoam.org               |
|    \\/     M anipulation  |                                                 |
\*---------------------------------------------------------------------------*/
FoamFile
{
    version     2.0;
    format      ascii;
    class       volScalarField;
    object      p;
    location    "9.142";
}
// * * * * * * * * * * * * * * * * * * * * * * * * * * * * * * * * * * * * * //

dimensions      [1 -1 -2 0 0 0 0];

internalField   nonuniform List<scalar> 
12225
(
98848.2
98816.9
98750.7
98650.1
98506.4
98347.8
98128.5
97926.6
97648.7
97394.6
97094.7
96790.8
96443
96092.8
95707
95264.3
94605.8
93860.1
98853.7
98826
98759.6
98659
98516.3
98353.7
98139
97933.7
97659.4
97401.7
97103.4
96799.4
96448.8
96098.6
95710.1
95242.9
94577.7
93973.5
98871.5
98846.7
98779.8
98679
98536.6
98371.5
98161.3
97948
97682.9
97419.3
97123.2
96814.7
96468.4
96112.9
95719.1
95248.5
94619.1
94114.6
98904.6
98881.1
98814.4
98713.3
98570.9
98404.1
98196.8
97978.4
97719.5
97451.6
97157
96845.7
96502.1
96146.7
95743.4
95285.4
94731.1
94273.5
98953.1
98933
98866.9
98765.4
98623.4
98454.9
98249.9
98028.1
97773.8
97502.6
97210.6
96895.6
96556.6
96204.3
95805.8
95356.4
94862
94429
99024.9
99007.3
98941.5
98839.8
98698.2
98528.3
98324.7
98101
97849.7
97576.5
97285.9
96971.9
96638.2
96286.2
95896.7
95480.2
95003.4
94611.5
99121
99108.9
99043.9
98942.1
98800.9
98629.3
98426.9
98202
97951.9
97679.4
97387.3
97074.6
96748
96401.5
96017.3
95659.9
95098.3
94855.5
99236.1
99224.7
99160.4
99058.1
98916.9
98744.2
98542.5
98316.5
98066.6
97795.4
97504.4
97194.3
96870.7
96532.3
96174.8
95818.9
95327.2
95176.6
99360.4
99349.5
99286.3
99183.2
99041.9
98868.3
98666.9
98439.9
98190.8
97920.1
97631.2
97325.4
97005.8
96674.9
96334.7
96000.1
95630.9
95412.9
99526.8
99515.3
99453.2
99348.5
99207.3
99032.6
98831.3
98603.3
98354.8
98085.5
97799.8
97497.7
97184.9
96862.9
96536.2
96219
95912.6
95658.4
99752
99735
99673.2
99566.7
99424.9
99249
99046.8
98818
98569.6
98302.1
98020.2
97722.3
97416.6
97104.5
96794.1
96491.5
96208.2
95948
100041
100023
99961.8
99853.3
99710.5
99532.4
99329
99098.8
98850.6
98584.1
98305.6
98012.8
97715.1
97413.2
97115.3
96827.4
96555.2
96295.1
100415
100400
100338
100228
100082
99901.4
99694.9
99463.6
99214.1
98948.9
98672.5
98385.2
98093.5
97801.8
97514
97236.4
96969.9
96715.4
100907
100889
100824
100711
100560
100376
100165
99930.8
99679.2
99413.4
99137.8
98854.6
98568.6
98283.4
98003.3
97732
97471
97220.9
101530
101515
101444
101325
101167
100977
100760
100520
100264
99995.8
99718.6
99436.7
99153.1
98871.9
98595.5
98327.4
98068.9
97821
102333
102301
102219
102091
101923
101722
101495
101247
100983
100709
100427
100142
99856.3
99574.2
99297.6
99028.8
98769.5
98519.8
103280
103249
103157
103016
102834
102619
102377
102116
101840
101554
101262
100969
100676
100388
100106
99831.1
99565.7
99310
104316
104270
104166
104009
103809
103576
103316
103037
102744
102443
102137
101830
101525
101226
100933
100648
100372
100106
105238
105191
105074
104901
104683
104431
104152
103855
103544
103226
102904
102583
102264
101952
101646
101349
101061
100784
106016
105949
105815
105625
105391
105122
104827
104513
104186
103852
103516
103181
102850
102525
102207
101899
101601
101313
106642
106553
106403
106199
105950
105667
105357
105029
104689
104342
103993
103646
103303
102968
102641
102323
102016
101719
107118
107021
106860
106643
106382
106087
105765
105426
105074
104717
104358
104001
103650
103305
102970
102644
102330
102025
107474
107375
107206
106980
106710
106404
106074
105725
105365
104999
104633
104268
103909
103558
103216
102884
102564
102254
107746
107639
107463
107230
106953
106640
106302
105947
105580
105208
104835
104465
104101
103744
103397
103061
102735
102421
107942
107831
107650
107412
107129
106811
106468
106107
105735
105358
104981
104607
104239
103878
103528
103188
102859
102541
108083
107967
107782
107540
107253
106932
106584
106220
105844
105464
105084
104707
104335
103973
103619
103277
102945
102625
108180
108060
107871
107627
107337
107013
106663
106296
105918
105535
105153
104774
104401
104036
103681
103337
103003
102682
108239
108119
107928
107682
107391
107065
106713
106344
105965
105581
105197
104816
104442
104076
103720
103375
103040
102718
108275
108153
107961
107714
107421
107094
106741
106371
105991
105606
105221
104840
104465
104099
103742
103396
103062
102738
108296
108170
107976
107727
107434
107106
106753
106383
106002
105617
105232
104851
104476
104109
103752
103406
103071
102748
90460.5
90462.7
90467
90473.6
90482.6
90493.8
90507.1
90522.7
90540.6
90561
90583.9
90610
90639.3
90672
90708
90747.5
90790.5
90836.4
90885.5
90943.2
90998.2
91056.8
91119.7
91186.2
91257.2
91333.1
91413.3
91498.8
91589.2
91684.4
91786.6
91899.2
92008.4
92124.3
92248
92379.4
92519.4
92666.4
92820.9
92983.2
93160.4
93337.8
93521.9
93712.2
93908.9
94113.3
94326.1
94546.6
94773.4
95005.1
95241.4
95482.5
95728.6
95979.8
96235.7
96495.7
96758.7
97023.9
97290.6
97558
97825.4
98092.1
98357.2
98620.3
98880.8
99138.1
99391.8
99642
99888.2
100130
100367
100600
100829
101056
101279
101500
101720
101938
102156
102373
102591
102810
103030
103252
103474
103696
103916
104133
104343
104545
104736
104914
105077
105223
105350
105455
105539
105600
105638
105651
105639
105601
105534
105438
105313
105161
104991
104807
104614
104418
104226
104042
103879
103754
103678
103658
103688
103763
103892
104085
104339
104652
105029
105470
105972
106534
107155
107835
108573
109366
110188
110980
111843
112757
113734
114766
115860
116975
118138
119321
120532
121757
122951
124191
125373
126785
128002
129190
130371
131535
132554
133503
134417
135319
136197
136999
137745
138418
139021
139554
139918
140165
140287
140196
139905
139418
138728
137856
136868
135836
134401
132973
131491
129961
128384
126800
125338
123990
122803
121741
90427.8
90430.1
90434.6
90441.5
90451.1
90462.8
90476.5
90492.2
90509.8
90529.3
90552.4
90578.5
90607.7
90640.5
90676.6
90716.3
90760.9
90807.4
90857.3
90911.5
90967.9
91027.3
91090.7
91157.7
91228.7
91304.4
91384.9
91470.3
91561.5
91658.3
91760.4
91868.5
91981.3
92100.5
92227.4
92361.1
92499.8
92645.8
92800.7
92965.1
93138
93316.9
93502.6
93695
93893.3
94097.4
94309.3
94531.3
94762
94996.9
95234.6
95475.9
95722.1
95974.1
96232.1
96494.6
96759.4
97026.2
97294.5
97563.5
97832.1
98100
98366.9
98631.7
98893.7
99152.7
99407.5
99660.2
99909.9
100153
100392
100628
100860
101089
101315
101538
101761
101981
102201
102421
102642
102863
103086
103311
103536
103761
103984
104203
104415
104619
104811
104990
105153
105300
105427
105534
105620
105684
105725
105741
105730
105694
105630
105538
105418
105270
105103
104923
104732
104536
104345
104163
103999
103869
103789
103767
103792
103860
103984
104171
104418
104724
105094
105526
106016
106566
107177
107846
108567
109337
110138
110926
111788
112705
113686
114713
115805
116907
118061
119235
120435
121656
122834
124066
125231
126595
127810
128968
130122
131271
132280
133226
134136
135027
135893
136676
137406
138061
138653
139178
139541
139799
139934
139861
139603
139135
138452
137597
136627
135604
134209
132781
131311
129772
128192
126624
125173
123836
122655
121584
90364.8
90367
90371.4
90378.3
90387
90398.1
90411.6
90427.5
90445.9
90467.6
90491.7
90518.3
90548
90581
90617.4
90657.4
90701.3
90748.2
90798.3
90852.4
90909.5
90969.6
91033.9
91101.7
91173.6
91250.1
91330.7
91416.9
91508.8
91605.6
91708.9
91818.2
91932.9
92053.8
92182.3
92317.9
92459.7
92607.6
92763
92927.6
93101.5
93281.6
93466.9
93658.6
93858.7
94067
94283.1
94506.7
94737.1
94973.2
95214.3
95460
95710.2
95965.2
96225.3
96492.9
96759
97027.5
97298.2
97570.1
97841.8
98113.4
98383.5
98651.4
98916.9
99179.9
99439.4
99695.9
99948.8
100197
100441
100682
100919
101152
101383
101612
101839
102064
102288
102512
102738
102965
103193
103423
103654
103883
104110
104333
104548
104754
104948
105130
105296
105444
105575
105687
105780
105848
105892
105910
105904
105871
105814
105730
105616
105476
105315
105140
104957
104766
104578
104401
104239
104104
104014
103981
103994
104052
104164
104336
104568
104862
105216
105628
106094
106622
107211
107851
108536
109266
110036
110837
111679
112597
113577
114592
115680
116759
117897
119052
120220
121425
122583
123796
124933
126215
127406
128526
129625
130732
131718
132650
133550
134424
135267
136020
136718
137340
137906
138404
138760
139026
139181
139142
138937
138506
137859
137052
136103
135092
133802
132365
130909
129357
127786
126260
124830
123511
122332
121260
90277.1
90279.5
90284.3
90291.3
90300.6
90312.6
90326.8
90343.4
90362.2
90383.5
90407.2
90433.8
90463.4
90496.3
90532.6
90572.3
90615.7
90662.4
90712.5
90766.5
90823.9
90884.9
90949.9
91019.1
91092.8
91170.8
91253.2
91340.6
91433.6
91532.4
91636.4
91746.8
91864.5
91988.7
92119.5
92256.4
92400.9
92553.1
92712
92877.1
93050.4
93233
93421.1
93612.7
93812.9
94024.7
94244.5
94470.3
94703
94944
95188.8
95438.6
95693.1
95951.9
96215
96482.9
96753.4
97026.2
97301.1
97577.3
97854.1
98130.9
98406.3
98679.4
98950.4
99219
99484.6
99746.9
100006
100260
100511
100757
101001
101241
101478
101713
101946
102177
102407
102639
102871
103104
103339
103576
103812
104048
104281
104508
104729
104941
105141
105328
105500
105655
105793
105912
106012
106090
106139
106158
106154
106124
106072
105998
105895
105765
105615
105446
105265
105081
104900
104732
104576
104438
104335
104284
104282
104323
104417
104570
104784
105054
105379
105757
106189
106683
107237
107836
108477
109162
109898
110687
111518
112428
113397
114391
115479
116520
117636
118763
119890
121063
122183
123360
124463
125649
126795
127874
128911
129957
130907
131807
132682
133527
134338
135058
135721
136304
136837
137284
137624
137897
138054
138054
137926
137550
136971
136231
135312
134310
133156
131711
130278
128723
127190
125716
124314
123009
121833
120775
90169.2
90171.7
90176.8
90184.6
90194.5
90206.7
90221.3
90238
90256.9
90278.1
90301.7
90327.9
90356.9
90389.2
90424.8
90463.9
90506.7
90553
90602.8
90656.3
90713.9
90775.5
90841.7
90913.1
90987.6
91067.2
91152
91242.5
91338.2
91439.4
91546.9
91659.8
91778.3
91904.6
92039.4
92180.9
92329.2
92485.4
92649
92815.8
92987.2
93167.2
93365.2
93557.9
93761
93974.9
94197.8
94428.6
94664.6
94906.9
95155.1
95409
95667.6
95931.2
96199
96470.6
96745.7
97024
97304.7
97587.1
97870.2
98153.6
98435.8
98715.5
98993
99268.5
99541.4
99811
100077
100339
100597
100852
101104
101352
101598
101841
102081
102320
102559
102798
103037
103279
103521
103765
104009
104253
104494
104730
104958
105177
105386
105580
105759
105922
106067
106192
106297
106380
106440
106469
106468
106439
106388
106320
106231
106116
105983
105831
105655
105469
105289
105125
104975
104839
104729
104661
104640
104662
104731
104860
105044
105279
105565
105896
106284
106733
107242
107796
108390
109024
109720
110481
111302
112192
113128
114099
115181
116179
117266
118352
119440
120563
121643
122754
123829
124921
125995
127029
128009
128979
129885
130735
131569
132370
133134
133814
134440
134981
135473
135863
136192
136468
136607
136641
136598
136302
135819
135157
134279
133285
132245
130831
129430
127894
126420
125000
123624
122333
121174
120141
90046.3
90049
90054.4
90063.2
90073.4
90085.7
90100.2
90116.5
90134.8
90155.2
90178
90203.4
90231.7
90263.3
90298.1
90336.6
90379
90424.7
90474
90527.8
90585
90646.3
90713.2
90784.2
90862
90945.5
91034.2
91128.1
91227.1
91329.9
91438.4
91555.2
91679.2
91808.9
91945.7
92091.7
92243.4
92402.2
92570.9
92735.9
92910.7
93097.3
93292.2
93491.9
93699.7
93917.4
94144.4
94378.4
94617.6
94863
95115
95373.5
95637.5
95906.3
96179.2
96456.1
96737
97021.6
97309.2
97598.9
97889.7
98180.3
98470
98757.6
99043
99326.5
99607.7
99885.9
100161
100432
100700
100965
101227
101485
101741
101993
102243
102491
102738
102986
103234
103483
103734
103987
104240
104493
104743
104988
105225
105453
105670
105872
106057
106226
106378
106512
106621
106706
106773
106815
106830
106809
106759
106692
106610
106509
106388
106248
106087
105907
105727
105560
105409
105277
105163
105078
105035
105035
105076
105172
105319
105510
105748
106026
106363
106758
107210
107712
108261
108846
109497
110220
111020
111872
112763
113712
114758
115727
116760
117800
118848
119902
120962
121989
123041
124052
125029
126012
126945
127831
128680
129464
130248
130988
131687
132317
132897
133391
133832
134172
134507
134774
134891
134960
134995
134797
134417
133839
133003
132045
131090
129770
128378
126884
125478
124113
122766
121498
120367
119362
89914.3
89917.1
89922.5
89932.4
89942.5
89954.4
89968.1
89983.5
90000.7
90019.9
90041.3
90065.7
90093.3
90124.3
90159.1
90198.2
90241.6
90288.4
90338.5
90392.8
90450.9
90513.3
90581.3
90653.6
90733.9
90819.1
90908.3
91003.6
91104.8
91210.3
91321.6
91440.5
91566.2
91698.5
91840.6
91994
92146.1
92309.7
92477.3
92647.3
92825.4
93014.8
93212.7
93417.2
93629.7
93852.1
94083.6
94321.8
94565.2
94814.7
95070.6
95333.9
95603.2
95877.5
96156.3
96439.6
96727.4
97019.3
97315
97612.7
97911.4
98210
98507.9
98804.4
99098.7
99390.9
99681.5
99970.2
100255
100537
100816
101092
101365
101634
101900
102162
102422
102680
102937
103194
103451
103709
103968
104228
104490
104752
105012
105267
105514
105753
105979
106190
106385
106562
106721
106862
106980
107071
107138
107181
107207
107204
107164
107100
107021
106927
106810
106672
106518
106348
106175
106010
105859
105726
105607
105506
105439
105411
105415
105469
105569
105710
105893
106120
106403
106737
107124
107568
108073
108606
109207
109888
110644
111451
112303
113213
114199
115158
116116
117113
118122
119097
120127
121085
122096
123028
123929
124848
125731
126533
127312
128019
128740
129411
130031
130605
131125
131568
131953
132262
132607
132857
132951
133060
133158
133055
132766
132267
131484
130587
129717
128509
127132
125696
124362
123061
121749
120516
119418
118436
89780.1
89782.7
89789.9
89797.6
89807
89817.8
89830.3
89845
89861.8
89880.8
89902.2
89926.5
89954.5
89986.7
90021.7
90061
90104.4
90151.6
90203
90258.7
90318.7
90383.6
90453.4
90528.5
90606.5
90689.7
90778.3
90875.3
90978.4
91085.5
91198.2
91319.2
91447.8
91589.7
91732.9
91882.5
92040.7
92208.6
92379.1
92554.4
92737.9
92929.8
93130.7
93339
93555.8
93782
94017.3
94259.6
94507.7
94761.9
95023.4
95291.9
95566.7
95847
96132.5
96423
96718.3
97018.4
97322
97627.7
97934.6
98242
98549.1
98855.2
99159.4
99460.7
99759.9
100063
100359
100651
100940
101227
101511
101792
102069
102343
102614
102883
103151
103417
103682
103946
104211
104477
104747
105018
105287
105552
105810
106059
106295
106517
106724
106910
107080
107227
107351
107451
107523
107564
107582
107588
107559
107499
107423
107331
107220
107090
106943
106779
106607
106442
106294
106159
106030
105911
105818
105757
105718
105720
105763
105847
105972
106151
106376
106648
106971
107355
107809
108293
108843
109476
110171
110931
111743
112620
113516
114464
115366
116311
117284
118182
119163
120072
121020
121882
122714
123559
124386
125097
125791
126425
127067
127663
128197
128716
129167
129564
129897
130190
130543
130771
130836
130980
131122
131095
130869
130448
129751
128904
128113
127039
125700
124333
123074
121849
120584
119396
118335
117398
89651.9
89654.7
89660.4
89667.2
89675.7
89686.2
89698.7
89713.1
89729.4
89748.1
89769.5
89794.1
89822.3
89854.4
89890.3
89929.7
89972.4
90018.9
90069.6
90124.7
90184
90247.5
90315.8
90389.4
90468.6
90553.8
90643.9
90741.8
90848.3
90957.9
91074.3
91199.3
91332.2
91472.3
91617.9
91770.9
91933.9
92103.9
92277.6
92457.4
92645.1
92841.9
93047.8
93261.5
93482.6
93712.3
93950.8
94196.5
94448.7
94708.1
94974.9
95249.2
95530.1
95817.2
96109.9
96407.7
96710.5
97018.1
97329.3
97643.2
97958.5
98275
98592.6
98908.4
99223.5
99534.4
99844.6
100155
100462
100766
101068
101367
101662
101955
102244
102531
102814
103095
103373
103646
103916
104184
104452
104724
105000
105278
105556
105831
106098
106355
106601
106832
107048
107243
107417
107575
107709
107814
107894
107944
107956
107955
107934
107877
107800
107704
107591
107467
107329
107178
107010
106839
106684
106542
106401
106263
106141
106042
105960
105904
105882
105905
105973
106093
106256
106470
106735
107058
107457
107896
108393
108976
109619
110330
111080
111902
112723
113637
114483
115372
116293
117160
118084
118936
119816
120618
121394
122150
122898
123526
124120
124688
125243
125760
126213
126675
127062
127416
127715
128007
128354
128564
128595
128755
128915
128937
128756
128412
127807
127026
126313
125378
124091
122805
121627
120486
119285
118150
117143
116280
89536.3
89539.2
89543.9
89550
89557.8
89567.2
89578.7
89592.5
89608.5
89626.7
89647.2
89672
89697.8
89727.8
89763.8
89802.8
89844.6
89890.8
89941.5
89996.4
90055.9
90120.3
90189.1
90262.3
90340.7
90424.8
90516.6
90615.6
90721.8
90834.7
90955
91083.1
91218.2
91359.9
91508.6
91665.4
91830.3
92001.2
92177.8
92361.8
92554.2
92755.9
92966.8
93185.7
93411.8
93645.6
93887.2
94136.2
94392.5
94656.8
94929.2
95209.3
95496.1
95789.1
96088.4
96393
96703.2
97018.1
97336.8
97658.5
97982.2
98307.1
98638.1
98963.1
99285.1
99606.4
99926.2
100246
100564
100880
101194
101505
101813
102118
102421
102720
103015
103306
103591
103870
104144
104416
104689
104966
105248
105533
105817
106099
106374
106639
106889
107127
107346
107547
107725
107882
108021
108132
108216
108279
108303
108292
108269
108216
108138
108037
107917
107788
107648
107502
107345
107173
107006
106848
106692
106533
106380
106242
106117
106004
105916
105876
105884
105937
106039
106196
106404
106671
107011
107403
107834
108373
108966
109622
110314
111047
111811
112660
113469
114308
115169
116008
116866
117681
118499
119217
119965
120622
121276
121830
122323
122816
123287
123732
124115
124510
124834
125154
125443
125740
126075
126280
126298
126423
126564
126611
126474
126196
125683
124991
124334
123548
122313
121124
120032
118981
117865
116792
115860
115077
89441.2
89443.7
89447.9
89453.4
89460.7
89469.6
89480.1
89492.5
89507.2
89524.1
89543.6
89565.6
89590.6
89619.4
89652.8
89690.5
89732.6
89778.6
89829.1
89884.3
89944.1
90008.7
90077.6
90151
90229.6
90314.8
90406.7
90505.1
90611.5
90725.7
90847.8
90977.2
91113.6
91257.4
91408.6
91567.4
91733.3
91905.7
92085.2
92272.8
92469.2
92675.2
92890.8
93114.8
93346
93583.8
93828.6
94081
94341.2
94609.7
94886.7
95171.4
95463.1
95761.8
96067.1
96378.5
96696.1
97018.5
97344.8
97675.5
98007.7
98342.1
98678.7
99012.7
99344.6
99675.1
100005
100334
100663
100991
101316
101640
101960
102277
102592
102902
103208
103507
103798
104082
104362
104641
104921
105204
105489
105776
106062
106346
106625
106895
107149
107387
107612
107813
107998
108156
108288
108402
108481
108545
108582
108575
108541
108482
108399
108292
108167
108034
107891
107738
107580
107410
107233
107057
106880
106697
106511
106333
106163
105999
105849
105746
105690
105683
105728
105830
105982
106190
106470
106805
107183
107655
108192
108788
109427
110092
110801
111565
112361
113147
113945
114764
115564
116345
117095
117726
118421
118982
119535
120021
120426
120831
121228
121621
121947
122270
122536
122826
123124
123414
123732
123951
123988
124006
124084
124152
124061
123836
123411
122822
122201
121571
120376
119312
118308
117344
116326
115327
114477
113772
89375.6
89377.4
89382
89387
89393.5
89401.9
89411.9
89423.3
89436.3
89451.3
89468.7
89488.8
89512.2
89539.3
89570.5
89606.1
89646
89690.5
89739.7
89793.7
89852.3
89915.6
89983.6
90057
90136.6
90222.7
90313.8
90413.3
90520.4
90635.2
90757.5
90887.3
91024.5
91169.3
91321.6
91481.3
91648.1
91822.2
92004.2
92194.9
92395
92605
92824.3
93051.7
93286.1
93527.3
93775.6
94031
94294.8
94567.2
94848.1
95137.3
95433.9
95737.8
96048.7
96365.9
96690.7
97020.2
97353.5
97691.2
98032.1
98374.6
98718
99060.6
99401
99740.1
100079
100418
100757
101095
101431
101765
102096
102425
102749
103069
103383
103688
103986
104276
104562
104848
105132
105419
105705
105990
106275
106557
106837
107103
107362
107594
107816
108019
108199
108361
108493
108606
108684
108733
108766
108764
108726
108662
108571
108455
108318
108175
108028
107870
107702
107525
107339
107145
106945
106734
106515
106297
106081
105868
105660
105500
105383
105324
105316
105363
105458
105608
105830
106113
106433
106834
107314
107848
108428
109046
109696
110389
111138
111877
112625
113412
114178
114911
115596
116178
116759
117239
117687
118098
118438
118774
119103
119456
119737
119989
120225
120487
120788
121061
121342
121590
121657
121534
121485
121576
121537
121362
121026
120534
119951
119415
118340
117399
116482
115595
114672
113754
112983
112357
89348.3
89349.8
89353.5
89357.9
89363.4
89370.2
89378.6
89388.8
89400.8
89414.4
89430
89448
89469
89493.5
89521.9
89554.6
89592
89634
89680.9
89732.9
89790
89852.1
89919.2
89991.7
90069.8
90154.7
90248.3
90348.2
90455.1
90569.2
90690.8
90820
90956.8
91101.3
91253.4
91413.2
91580.7
91756
91939.7
92132.5
92335
92547.2
92768.6
92998.2
93235.3
93479.9
93730.5
93989.5
94256.8
94532.6
94817
95109.8
95410.5
95718.7
96036.3
96359.2
96688.7
97023.7
97363.2
97707.2
98054.1
98403.1
98753.1
99102.7
99450.9
99798
100145
100492
100839
101185
101530
101874
102214
102552
102885
103211
103532
103843
104147
104444
104733
105023
105308
105594
105880
106162
106447
106725
107000
107261
107511
107743
107951
108152
108325
108480
108608
108712
108793
108835
108853
108848
108809
108740
108643
108520
108370
108214
108056
107888
107705
107510
107307
107094
106871
106630
106378
106121
105860
105599
105341
105131
104960
104855
104795
104786
104825
104925
105086
105321
105578
105920
106342
106809
107325
107886
108483
109103
109785
110496
111223
111966
112687
113364
113975
114520
114980
115397
115746
116081
116370
116675
116952
117249
117490
117675
117914
118166
118447
118708
118929
119208
119293
119083
118873
118922
118931
118807
118561
118163
117606
117119
116242
115410
114575
113762
112914
112085
111390
110843
89365.2
89366.7
89369.1
89372.1
89376.3
89382
89389.1
89397.5
89407.4
89419
89432.7
89448.9
89467.8
89489.9
89515.7
89545.6
89579.9
89619
89663.1
89712.4
89767
89827.1
89892.8
89964.5
90042.3
90126.4
90217
90314.9
90419.8
90532
90651.9
90779.5
90914.9
91058.2
91209.4
91368.5
91535.7
91711.1
91895.4
92089.2
92292.6
92505.4
92727.3
92957.8
93196.1
93441.8
93696
93957.7
94227.7
94506.5
94794
95090.3
95394.8
95707.4
96027.9
96354.5
96688.5
97027.2
97370.6
97719.6
98071.9
98425.7
98780.9
99136.4
99491.2
99845.1
100198
100552
100904
101256
101608
101958
102306
102650
102990
103321
103648
103966
104274
104575
104867
105157
105443
105725
106008
106287
106562
106834
107096
107349
107583
107809
108010
108200
108368
108513
108635
108723
108794
108832
108838
108824
108782
108705
108598
108466
108301
108126
107956
107778
107578
107362
107133
106896
106647
106377
106091
105799
105498
105192
104892
104636
104420
104276
104168
104100
104093
104136
104244
104426
104629
104921
105271
105675
106126
106621
107162
107720
108337
109033
109731
110432
111087
111681
112217
112700
113082
113440
113725
114006
114264
114557
114800
115032
115224
115361
115593
115857
116114
116373
116546
116821
116904
116686
116401
116292
116296
116224
116056
115745
115225
114785
114079
113344
112597
111860
111084
110345
109745
109266
89433.8
89434.6
89435.9
89437.8
89440.3
89443.8
89448.3
89454.3
89461.9
89471.2
89482.3
89495.6
89511.6
89530.7
89553.4
89580
89610.9
89646.7
89687.6
89733.7
89785.2
89842.1
89904.8
89973.5
90048.2
90129.4
90218.3
90313.8
90415.7
90525.3
90642.7
90767.9
90901
91042.1
91191.5
91349.1
91515.1
91689.9
91873.9
92067.3
92270.1
92482.1
92703.2
92933.2
93171.9
93418.6
93673.4
93936.7
94208.9
94490.2
94780.3
95079.1
95386.3
95701.3
96023.2
96351.3
96685.8
97026.6
97373.1
97723.9
98081.4
98438.6
98797.6
99157.4
99517.1
99876.2
100235
100593
100950
101306
101661
102014
102365
102711
103054
103390
103718
104040
104352
104656
104951
105238
105523
105802
106076
106348
106611
106869
107116
107355
107576
107788
107981
108155
108313
108444
108555
108634
108690
108716
108710
108681
108627
108541
108425
108280
108103
107904
107710
107517
107306
107070
106815
106552
106272
105973
105656
105331
104993
104649
104314
104023
103770
103585
103432
103313
103267
103256
103314
103440
103598
103841
104119
104461
104847
105283
105762
106263
106833
107503
108155
108783
109357
109849
110298
110721
111052
111374
111634
111891
112141
112423
112638
112819
112961
113080
113296
113555
113812
114061
114218
114432
114466
114352
114100
113815
113716
113664
113553
113316
112884
112454
111848
111192
110542
109892
109220
108557
108101
107657
89561.5
89561.1
89561
89560.8
89560.8
89561.2
89562.4
89564.9
89568.6
89573.9
89581
89590.5
89602.8
89618.1
89636.8
89659.5
89686.4
89718
89754.4
89796.2
89843.4
89896
89954.5
90018.9
90089.6
90166.9
90251
90342.5
90442.2
90549.4
90664.2
90786.7
90916.3
91054.4
91201.3
91356.4
91519.9
91692.5
91874.5
92066
92266.9
92477.5
92697.4
92926.3
93163.8
93410
93665.1
93929.5
94203.2
94485.7
94776.4
95075.3
95382.1
95696.3
96017.1
96345.1
96680.6
97022.6
97370.7
97723.7
98081.2
98441.1
98802.6
99164.6
99526.8
99888.8
100250
100612
100971
101330
101688
102042
102392
102738
103077
103412
103738
104056
104367
104670
104965
105248
105526
105797
106062
106322
106573
106817
107051
107275
107484
107680
107861
108018
108161
108276
108370
108434
108474
108486
108466
108419
108347
108249
108119
107960
107772
107553
107332
107113
106884
106626
106351
106060
105749
105420
105074
104722
104354
103977
103615
103296
103020
102790
102594
102440
102355
102304
102309
102384
102503
102676
102905
103182
103504
103880
104299
104745
105302
105904
106496
107009
107483
107894
108254
108615
108916
109227
109487
109749
110006
110269
110465
110601
110712
110828
111047
111275
111546
111769
111927
112059
112051
111987
111859
111557
111288
111182
111088
110905
110571
110160
109550
108950
108413
107872
107349
106725
106423
106026
89756.9
89753.9
89751.4
89748
89743.9
89739.8
89736.2
89733.5
89731.8
89731.8
89733.6
89737.7
89744.4
89754.3
89767.9
89785.4
89807.3
89833.6
89864.8
89901.2
89943.1
89990.4
90043.4
90102.8
90168.7
90241.3
90320.6
90407.3
90501.7
90603.8
90713.6
90831.5
90958.3
91093.1
91236.1
91388.3
91549.5
91719.9
91899.4
92088.3
92286.7
92494.7
92712.1
92938.6
93174.1
93419
93673.4
93937.2
94209.7
94490.2
94778.4
95074.5
95378.6
95690.4
96010.1
96338.3
96674.4
97017.1
97366.9
97720.7
98078
98437.5
98798.7
99160.4
99522.4
99884.2
100246
100607
100967
101325
101682
102034
102383
102727
103062
103392
103713
104025
104330
104623
104911
105187
105456
105716
105968
106214
106451
106681
106899
107108
107302
107478
107640
107780
107904
108004
108078
108125
108145
108140
108103
108039
107949
107836
107690
107513
107309
107070
106823
106578
106320
106038
105739
105423
105084
104725
104354
103978
103588
103185
102801
102466
102166
101903
101676
101485
101372
101278
101238
101264
101335
101450
101623
101837
102102
102423
102775
103193
103729
104250
104731
105126
105510
105859
106165
106458
106725
107029
107301
107580
107852
108092
108277
108386
108486
108621
108853
109053
109320
109521
109663
109721
109692
109670
109637
109469
109066
108821
108695
108531
108272
107886
107210
106671
106240
105803
105464
104892
104659
104373
90025.8
90021.2
90015.1
90007.2
89997.8
89987.4
89976.5
89965.9
89956.6
89948.8
89943.2
89940.2
89940
89943.1
89950
89960.9
89976.1
89996
90020.9
90051
90086.5
90127.7
90174.8
90228.3
90288.4
90355.3
90429.2
90510.5
90599.5
90696.3
90801.1
90914.1
91035.6
91165.5
91304
91451.6
91608.4
91774.6
91950.2
92135.2
92329.7
92533.9
92747.7
92970.8
93203.1
93445
93696.5
93956.8
94225.2
94501.4
94785.1
95077.2
95378
95687.7
96006.7
96334.9
96670.8
97013.7
97361.9
97713.1
98067.2
98423.5
98781.5
99139.8
99498.1
99856
100214
100572
100929
101283
101635
101983
102326
102666
102997
103320
103637
103941
104237
104521
104796
105063
105319
105567
105806
106036
106256
106467
106667
106854
107028
107183
107323
107442
107543
107624
107679
107708
107708
107684
107628
107544
107436
107304
107140
106945
106722
106465
106192
105920
105629
105319
104993
104653
104287
103903
103509
103112
102702
102282
101887
101542
101221
100930
100682
100466
100318
100190
100116
100094
100115
100184
100292
100446
100656
100932
101219
101636
102083
102533
102886
103180
103506
103823
104098
104327
104547
104823
105105
105391
105673
105907
106087
106198
106314
106487
106721
106921
107159
107354
107467
107489
107459
107465
107488
107434
107039
106623
106405
106220
105980
105611
104939
104445
104078
103745
103508
103108
102874
102732
90317.9
90309.9
90301.3
90288.3
90272.9
90255.8
90237.2
90218.1
90200
90183.7
90170
90159.2
90151.7
90147.9
90147.9
90152.1
90160.9
90174.5
90193.3
90217.4
90246.8
90282.1
90323.4
90371.2
90425.5
90486.8
90555.3
90631.1
90714.7
90806.2
90905.7
91013.4
91129.5
91254.3
91388.1
91531
91683.3
91844.9
92015.7
92196.1
92386.2
92586
92795.3
93013.8
93242.2
93480.1
93727.1
93982.8
94246.5
94517.6
94796.5
95084.2
95381.8
95689.2
96006.8
96333.4
96666.2
97007.3
97351.2
97697
98046.2
98397.4
98750.1
99102.7
99455.6
99809.1
100162
100514
100866
101214
101560
101903
102240
102572
102897
103212
103520
103815
104100
104374
104636
104890
105134
105369
105592
105806
106010
106201
106382
106548
106701
106836
106957
107057
107136
107196
107231
107241
107223
107180
107107
107002
106874
106721
106540
106326
106086
105813
105517
105214
104896
104559
104210
103843
103454
103050
102638
102222
101794
101368
100971
100619
100279
99972.5
99708
99474.8
99294.9
99139.3
99040.3
98980.5
98957.1
98973.5
99025
99133.8
99290.3
99506.4
99770.9
100150
100507
100858
101115
101352
101628
101919
102168
102353
102528
102757
103026
103309
103592
103832
104021
104155
104306
104517
104747
104955
105160
105349
105449
105473
105461
105497
105521
105463
105179
104649
104286
104029
103750
103399
102834
102364
102009
101713
101557
101321
101160
101084
90581.1
90572.3
90561.7
90543.7
90521.1
90497.8
90472.1
90445.4
90419.1
90394.8
90373.6
90355.9
90342
90332.3
90326.7
90325.5
90329.1
90337.6
90351.2
90370.1
90394.6
90425