/*--------------------------------*- C++ -*----------------------------------*\
| =========                 |                                                 |
| \\      /  F ield         | OpenFOAM: The Open Source CFD Toolbox           |
|  \\    /   O peration     | Version:  dev                                   |
|   \\  /    A nd           | Web:      http://www.openfoam.org               |
|    \\/     M anipulation  |                                                 |
\*---------------------------------------------------------------------------*/
FoamFile
{
    version     2.0;
    format      ascii;
    class       volScalarField;
    object      p_0;
    location    "9.142";
}
// * * * * * * * * * * * * * * * * * * * * * * * * * * * * * * * * * * * * * //

dimensions      [1 -1 -2 0 0 0 0];

internalField   nonuniform List<scalar> 
12225
(
96017.4
95971.7
95888.3
95773.7
95617.7
95447.8
95238.3
95030.5
94794.9
94559.3
94304.4
94049.1
93767.5
93496.4
93205.5
92838.9
92317.5
91806.7
96024.7
95982.9
95900.2
95785
95630
95459.6
95249.5
95041.9
94806.9
94570.7
94315.8
94059.4
93778.2
93504.2
93208.4
92815.9
92276.5
91844.9
96048.2
96008.9
95926.6
95810.7
95656.5
95484.3
95277.5
95067.5
94833.5
94596.8
94341.7
94085.6
93803.6
93524.7
93222.4
92828.7
92320.1
91940.5
96088.5
96053.6
95971.4
95855.5
95701.4
95528.3
95324
95112.3
94879.1
94641.9
94388.5
94130.4
93849.8
93570
93255.1
92883.1
92446.5
92085.1
96153.3
96121.7
96041.1
95924.2
95771.3
95596.7
95395.2
95181.8
94951.7
94712.1
94462.2
94200.4
93922.6
93648
93330.1
92964.3
92569.1
92237.5
96248.9
96221.2
96140.3
96023.6
95871.1
95695.8
95495.5
95282.5
95054.1
94814.2
94567.5
94306.3
94028.5
93760.9
93446
93104.6
92705.6
92471.7
96384.2
96358.5
96278.1
96161.2
96009.5
95833.1
95634.1
95421.3
95194.2
94955.4
94707.8
94450.4
94171.9
93922.8
93607.1
93281.5
92844.6
92819.2
96541.3
96515
96434.7
96317.8
96166.6
95989.8
95791.9
95578.8
95352.1
95115.3
94868
94611.5
94340.8
94100.7
93798.6
93508.2
93169.7
93107
96709.9
96683.7
96603.5
96486.9
96335.7
96159.5
95961.5
95748.6
95522.8
95286.5
95040.9
94788.8
94528.1
94280
94006.6
93760.1
93508.6
93348.5
96939.4
96908
96829
96711.6
96561.5
96384.8
96188.1
95974.5
95749.9
95514.5
95272.3
95024.1
94771.9
94524.6
94270.9
94040.8
93835.2
93602.2
97237.1
97205.7
97127.9
97010.1
96860.1
96683.6
96487
96274
96049.9
95816.4
95577.8
95333.6
95087.9
94845.4
94605.4
94368.9
94159
93946.1
97626.6
97598.4
97523.5
97404.9
97255.7
97077.9
96882
96668.4
96445.6
96213.2
95978
95737.9
95498.5
95261.5
95033
94806.4
94604
94394.7
98137.8
98117.8
98043.9
97925.3
97775.1
97597.1
97400
97186.7
96963.7
96733
96499.6
96263.4
96028.6
95798.6
95575.8
95359.2
95154.6
94955
98821.2
98798.8
98725.1
98605.8
98453.9
98274.3
98075.5
97861
97637.1
97406.7
97174
96940.3
96709
96482.2
96262.7
96049.7
95846.2
95650.8
99703.2
99685.1
99608.3
99486.7
99331.6
99149.4
98947.2
98730
98503.4
98271
98036.5
97802.7
97571.6
97345.2
97125
96911.9
96706.8
96510.5
100847
100820
100738
100611
100450
100262
100054
99831.7
99599.5
99361.9
99122.5
98884
98648.5
98417.7
98192.6
97974.4
97763.4
97561
102283
102241
102148
102013
101843
101646
101429
101197
100955
100708
100459
100210
99964.4
99722.9
99486.7
99257.3
99035.3
98821
103861
103824
103725
103579
103398
103189
102958
102713
102457
102196
101932
101668
101407
101149
100897
100651
100412
100180
105350
105309
105201
105044
104851
104628
104384
104124
103853
103575
103295
103014
102736
102461
102190
101926
101668
101418
106613
106562
106445
106278
106073
105838
105581
105307
105021
104729
104433
104137
103843
103552
103265
102984
102709
102441
107642
107583
107458
107283
107068
106823
106554
106268
105970
105665
105356
105046
104738
104433
104133
103838
103548
103265
108474
108398
108263
108079
107856
107602
107324
107028
106720
106404
106084
105764
105445
105128
104816
104509
104208
103913
109103
109024
108884
108694
108464
108203
107917
107614
107297
106973
106645
106316
105988
105663
105341
105025
104715
104411
109578
109496
109351
109156
108921
108654
108363
108054
107731
107401
107067
106731
106396
106064
105736
105412
105095
104784
109935
109842
109692
109494
109256
108985
108689
108375
108049
107714
107374
107034
106694
106357
106024
105695
105373
105057
110182
110087
109934
109733
109492
109218
108920
108603
108273
107935
107592
107248
106905
106565
106228
105896
105569
105250
110347
110253
110098
109895
109652
109377
109076
108757
108425
108084
107739
107393
107048
106705
106366
106031
105702
105380
110453
110358
110202
109998
109754
109477
109175
108854
108521
108179
107832
107485
107138
106794
106453
106117
105787
105463
110508
110417
110260
110056
109811
109533
109231
108909
108575
108232
107885
107536
107189
106844
106502
106165
105834
105510
110534
110444
110285
110081
109835
109557
109254
108932
108597
108254
107907
107558
107210
106865
106523
106186
105855
105530
90173.8
90177
90183.3
90192.6
90205.1
90221
90240.2
90262.7
90288.6
90318.1
90351.4
90388.5
90429.7
90475
90524.5
90578.3
90635.9
90697.6
90762.1
90830.3
90901.4
90976.1
91054.9
91137.3
91223.9
91315.2
91410.4
91510.3
91614.5
91722.8
91835.8
91951.9
92070.2
92192.2
92320.1
92456.2
92595.4
92738.5
92886.4
93039.1
93196.1
93356.6
93520
93685.4
93853.1
94024.4
94200.1
94379.7
94561.7
94745.3
94930.2
95116.5
95304.3
95493.6
95684.1
95875.6
96067.3
96258.6
96449.1
96638.2
96825.6
97011
97193.8
97373.9
97551.4
97726
97897.8
98066.8
98233.2
98397.3
98559.5
98719.8
98878.6
99036.3
99193.3
99349.8
99506.2
99662.6
99818.9
99974.9
100130
100285
100439
100592
100741
100887
101027
101157
101275
101379
101468
101540
101592
101625
101634
101620
101582
101520
101432
101321
101184
101022
100834
100620
100379
100114
99832.2
99538.8
99238.4
98937.6
98640.6
98352.5
98087.1
97862.7
97693.5
97586.3
97536.9
97540.9
97606.3
97740.3
97937.3
98194.3
98511.3
98885.4
99315
99794.9
100325
100903
101529
102193
102878
103521
104199
104912
105675
106482
107330
108195
109088
109994
110915
111840
112739
113667
114568
115595
116532
117447
118376
119292
120087
120829
121566
122330
123112
123857
124569
125220
125798
126290
126598
126770
126820
126666
126316
125848
125283
124613
123869
123102
122139
121185
120245
119337
118429
117498
116647
115869
115214
114657
90131.2
90134.5
90141
90150.5
90163.4
90179.8
90199.2
90221.9
90247.8
90277.2
90310.4
90347.5
90388.7
90433.9
90483.9
90538.5
90596.3
90657.3
90722.1
90791.1
90863.1
90938.3
91017.7
91100.8
91187.6
91279
91375
91474.7
91579.5
91688.9
91802.2
91919.2
92040.1
92165.7
92297.2
92432.8
92571.8
92714.2
92862.3
93016.3
93174.7
93336.1
93500.7
93668.4
93838
94009.9
94185.6
94367
94552.9
94739.8
94926.5
95113.7
95302.3
95493.1
95685.8
95879.9
96073.8
96267.1
96459.5
96650.5
96839.6
97026.9
97212
97394
97573.4
97750.2
97924.1
98095.3
98264
98430.7
98595.5
98758.6
98920.2
99080.5
99240.2
99399.5
99558.8
99718
99877
100036
100194
100352
100510
100665
100819
100968
101111
101245
101366
101473
101564
101638
101692
101727
101739
101728
101693
101635
101552
101445
101312
101154
100971
100762
100527
100266
99986.8
99697.4
99398.3
99097.2
98803.7
98517.7
98250.2
98022.7
97850.9
97743.4
97692.4
97693.5
97755.9
97886.6
98079.5
98331.8
98648.1
99019.9
99444.3
99918.1
100444
101018
101636
102287
102946
103598
104277
104995
105763
106570
107418
108278
109171
110076
110996
111922
112815
113744
114630
115652
116586
117480
118397
119320
120117
120856
121590
122349
123125
123859
124561
125200
125772
126266
126566
126741
126801
126656
126315
125850
125282
124608
123867
123115
122146
121175
120228
119307
118385
117447
116592
115813
115156
114586
90048.6
90051.9
90058.3
90068.1
90081.6
90099.9
90119.6
90142.5
90168.6
90198.3
90231.6
90268.9
90310.3
90355.8
90405.6
90459.5
90517.7
90579.4
90644.7
90714.4
90787.5
90863.8
90944.6
91028.9
91117.3
91210
91305.9
91407.3
91513.5
91623.6
91738.9
91858.8
91982.4
92110.5
92244
92382.2
92524.2
92669.5
92819.1
92974.3
93135
93298.5
93463.7
93631.7
93804.1
93980.9
94161.6
94346.3
94533.7
94723.1
94914.1
95106.4
95299.8
95494.9
95690.8
95887.6
96084.5
96280.7
96476.4
96671.6
96864.3
97056.7
97246.8
97431.6
97615
97796.9
97975.4
98151.2
98324.9
98496.9
98667.1
98835.4
99002.4
99168.2
99333.2
99497.7
99661.9
99825.8
99989.7
100154
100318
100482
100646
100809
100969
101124
101274
101412
101538
101650
101746
101825
101885
101923
101942
101939
101913
101862
101785
101685
101560
101410
101236
101037
100810
100559
100286
100003
99713.3
99418.2
99128.7
98849.1
98584.4
98352.6
98174
98060.7
98003.7
97999.1
98055.2
98175.2
98359.5
98608.6
98918.3
99282
99694.4
100158
100674
101231
101823
102449
103093
103751
104430
105157
105932
106735
107587
108437
109327
110232
111141
112069
112953
113886
114749
115754
116681
117546
118427
119346
120143
120888
121619
122369
123132
123842
124523
125141
125704
126197
126483
126667
126748
126614
126293
125841
125273
124596
123854
123104
122156
121141
120178
119231
118285
117338
116474
115690
115024
114441
89931.8
89935.3
89942.2
89952.5
89966.4
89983.9
90004.5
90028.1
90055
90085.1
90118.7
90156
90197.4
90242.8
90292.5
90346.3
90404.4
90466.4
90532.2
90602.5
90676.5
90754.2
90836.3
90922.7
91013.6
91109
91208.3
91311.3
91419.4
91532.4
91649.4
91771.5
91899.2
92031.6
92168.3
92309.1
92454.5
92605.5
92759.6
92917
93078.8
93245.8
93414.4
93584.4
93758.9
93940.2
94126.6
94316.7
94508.6
94702.4
94898.3
95096.1
95295
95497
95696.8
95897.5
96098.7
96299.9
96501.1
96701.3
96900
97099.7
97296
97486.8
97676.3
97865.4
98050.9
98233.6
98414.1
98593.1
98770.3
98945.6
99120.2
99293.1
99465.1
99636.5
99807.5
99978.3
100150
100321
100494
100666
100838
101009
101178
101342
101499
101646
101781
101902
102008
102096
102166
102215
102245
102252
102240
102203
102135
102040
101922
101781
101619
101434
101221
100982
100721
100442
100157
99871.9
99592.4
99325.1
99069.9
98835.4
98645.5
98520
98454.2
98440.3
98484.8
98595.1
98771.9
99010.5
99304.9
99650.9
100045
100493
100991
101520
102080
102676
103306
103963
104646
105381
106161
106959
107820
108653
109539
110441
111331
112263
113130
114059
114905
115870
116789
117637
118470
119360
120150
120902
121632
122369
123111
123786
124437
125026
125581
126056
126325
126524
126631
126515
126224
125791
125230
124560
123801
123027
122148
121072
120084
119097
118122
117169
116292
115494
114816
114221
89785.3
89788.9
89796.3
89807.2
89821.3
89838.8
89859.7
89883.7
89910.9
89941.3
89975.1
90012.3
90053.4
90098.5
90147.9
90201.5
90259.5
90321.6
90387.9
90458.5
90533.5
90612.8
90696.7
90785.8
90879.7
90978.9
91079.8
91186.9
91298.8
91415.5
91537.4
91663.2
91793
91928.7
92070.9
92217.4
92368.2
92523.7
92683.9
92845.7
93009.2
93177.5
93350.4
93525.9
93705.6
93890.7
94081.8
94283.1
94480.4
94678.4
94879.4
95082.8
95287.4
95493.8
95700.3
95907.8
96115.8
96324.2
96532.6
96740.4
96946.9
97155.8
97361.6
97559.9
97757.2
97954.2
98149.1
98340.8
98529.5
98716.6
98903.8
99086.8
99272.1
99454.1
99635.1
99815.6
99995.9
100176
100356
100538
100719
100902
101084
101265
101444
101620
101789
101948
102095
102229
102348
102449
102531
102594
102636
102655
102653
102630
102581
102499
102388
102253
102099
101929
101736
101516
101277
101016
100734
100448
100172
99914.7
99671.7
99443.2
99248.8
99111.1
99033.6
99008.6
99039.8
99139.1
99302.4
99521.4
99794
100109
100475
100898
101372
101873
102400
102960
103572
104226
104912
105649
106421
107221
108084
108898
109785
110676
111553
112480
113328
114234
115081
115992
116878
117719
118518
119360
120131
120878
121610
122325
123043
123674
124288
124846
125392
125828
126079
126295
126420
126324
126084
125679
125133
124480
123694
122891
122051
120948
119929
118896
117897
116938
116040
115222
114527
113910
89614.5
89618.2
89626.8
89638
89652.4
89670.1
89690.9
89714.7
89741.5
89771.5
89804.8
89841.7
89882.4
89927.4
89976.5
90030.1
90088.5
90151
90217.7
90289.5
90365.5
90446
90532.4
90623.2
90718.8
90819.1
90927.7
91040.3
91156.9
91276.4
91400.6
91531.9
91669.1
91810
91955.5
92107.1
92263.5
92424.7
92588.5
92752.9
92921.1
93095.8
93275.6
93458.6
93644.9
93837.1
94035.5
94238.3
94442.1
94647.6
94855.8
95066.2
95278.1
95491.2
95705.4
95920.7
96136.9
96353.7
96571.1
96789.6
97009
97224.4
97438
97647.9
97855.7
98062.5
98267.5
98470
98670.2
98868.5
99065.8
99261.6
99456.7
99650.5
99843.2
100035
100227
100417
100609
100801
100994
101188
101382
101576
101768
101957
102140
102314
102476
102625
102758
102873
102968
103044
103099
103134
103141
103126
103094
103036
102947
102823
102675
102514
102338
102140
101922
101683
101418
101135
100858
100601
100362
100144
99951.2
99803.2
99712.5
99676.4
99692.4
99777.3
99923.3
100119
100360
100637
100969
101358
101797
102267
102762
103286
103878
104520
105214
105936
106686
107494
108341
109142
110012
110884
111759
112665
113529
114388
115255
116114
116933
117764
118548
119327
120078
120798
121528
122214
122899
123485
124060
124588
125107
125482
125738
125962
126082
126012
125842
125473
124962
124332
123515
122690
121854
120764
119698
118620
117602
116634
115711
114868
114150
113507
89427
89431
89438.8
89450.8
89465.3
89482.8
89503.2
89526.4
89552.4
89581.5
89613.8
89650.2
89690.9
89735.9
89785.6
89840.3
89900.4
89964.8
90033.3
90106.8
90184.8
90267.5
90356.1
90450
90549.3
90654.2
90763.7
90878.4
90998.2
91122
91251
91386
91526.6
91672.6
91824.6
91981.3
92142.2
92309.4
92479.3
92648.8
92821
93002.6
93190.1
93380.6
93574.7
93774.4
93979.6
94188.8
94400
94613.1
94829.1
95047.4
95267.5
95489
95711.8
95936.1
96161.5
96388.1
96620.8
96850.1
97077.4
97303.1
97527.3
97749.7
97969.7
98188.1
98405.2
98620.2
98833.3
99044.8
99254.8
99463.7
99671.7
99878.4
100084
100289
100493
100697
100902
101105
101311
101518
101725
101931
102138
102341
102540
102730
102910
103076
103226
103358
103469
103561
103631
103681
103706
103703
103677
103632
103568
103472
103339
103188
103022
102840
102635
102405
102154
101885
101615
101360
101126
100915
100726
100569
100463
100411
100406
100468
100591
100758
100963
101206
101504
101849
102238
102671
103138
103628
104185
104807
105498
106204
106941
107742
108555
109372
110183
111032
111902
112760
113655
114488
115376
116171
116939
117749
118523
119235
119966
120643
121360
122013
122644
123197
123726
124214
124674
124990
125272
125504
125594
125551
125466
125145
124687
124071
123230
122386
121568
120500
119375
118255
117223
116246
115295
114428
113686
113024
89229.5
89233.2
89241.8
89252.9
89266.9
89283.3
89302.7
89325.2
89351
89380.2
89412.9
89449.8
89491.6
89538.2
89588.6
89643.9
89704.7
89770.6
89841.1
89916.8
89998.8
90083.2
90173.2
90268.6
90370
90476.7
90589.7
90706.3
90828.9
90955.8
91087.7
91226.7
91373.1
91526.1
91682.4
91841.8
92008.3
92186
92360.7
92535.5
92716
92903.4
93097
93295.7
93497.6
93704.9
93917.6
94134.1
94353
94574.7
94799.7
95027.1
95256.5
95487.9
95720.8
95955.1
96191.6
96434.1
96675
96914.8
97154.2
97392.5
97629.4
97864.8
98098.6
98330.4
98560.7
98789.6
99016.9
99242.8
99467.1
99690.3
99912.6
100134
100354
100573
100792
101010
101229
101448
101667
101885
102103
102322
102543
102761
102977
103184
103381
103566
103736
103888
104020
104131
104222
104286
104327
104343
104329
104286
104227
104153
104040
103900
103747
103578
103389
103174
102934
102675
102410
102162
101937
101733
101543
101377
101254
101180
101146
101175
101263
101394
101560
101777
102039
102336
102672
103063
103501
103952
104472
105066
105725
106421
107158
107936
108715
109545
110322
111140
112007
112797
113693
114517
115385
116142
116874
117655
118422
119074
119765
120401
121087
121704
122262
122792
123267
123701
124088
124367
124666
124900
124951
124937
124926
124665
124261
123664
122814
121956
121150
120117
118940
117782
116742
115762
114788
113902
113137
112481
89030.6
89034.6
89042.4
89052.6
89065.6
89081.8
89101.2
89123.6
89149.2
89178.2
89210.8
89248.3
89293.1
89339.6
89391.2
89447.5
89508.4
89574.1
89645
89721.5
89802.5
89888.1
89979.2
90076.7
90178.8
90285.6
90398.1
90520.5
90646.4
90777.8
90915.4
91059.6
91211.4
91372.4
91530.6
91692.1
91870.3
92056.3
92233.5
92415.6
92603.9
92798.8
93000.1
93206.3
93417.8
93633.5
93853.9
94077.5
94304.9
94535.1
94768.9
95006.1
95246.2
95488.9
95734.4
95980.6
96229.4
96480.8
96733.5
96986.3
97238.8
97490.7
97741.7
97991.2
98239.2
98485.5
98730.1
98973.7
99216.3
99457.8
99698.1
99937.2
100175
100412
100648
100884
101119
101355
101589
101821
102051
102278
102506
102737
102971
103205
103437
103662
103877
104080
104268
104440
104594
104723
104832
104920
104981
105013
105019
104989
104926
104857
104764
104636
104490
104327
104148
103951
103733
103492
103232
102982
102761
102561
102368
102192
102051
101952
101883
101869
101908
101995
102125
102308
102526
102774
103064
103410
103816
104241
104724
105286
105901
106583
107302
108053
108797
109623
110376
111182
112035
112809
113674
114460
115278
116020
116734
117476
118212
118820
119452
120053
120691
121262
121744
122248
122673
123049
123371
123631
123925
124143
124141
124161
124208
124007
123635
123075
122246
121377
120572
119594
118377
117191
116147
115173
114185
113285
112505
111864
88838.6
88842.6
88849.6
88859.2
88871.6
88886.8
88905.5
88927.5
88953.3
88982.4
89015.3
89052.4
89094.1
89140.5
89192
89248.5
89309.9
89376.2
89448.3
89525
89607
89694.6
89787.2
89884.7
89987.3
90095.8
90210.8
90332.6
90463.5
90600.1
90743.6
90894.3
91050.7
91212.2
91377.9
91550.1
91730.8
91915
92101.2
92292.2
92489.2
92692.8
92902.8
93118.3
93338.3
93561.9
93789.2
94020.9
94256.5
94496
94739.8
94987.5
95238.1
95491.9
95751.6
96009.2
96269.8
96533
96797.8
97063.9
97330.3
97596.3
97861.7
98125.8
98388.2
98649.3
98909.1
99168.2
99427.1
99685.3
99942.6
100199
100455
100709
100964
101218
101471
101722
101971
102214
102454
102691
102931
103174
103422
103672
103920
104163
104395
104614
104818
105007
105175
105322
105443
105545
105626
105677
105700
105697
105649
105576
105493
105379
105240
105080
104903
104713
104506
104284
104044
103797
103571
103365
103168
102981
102819
102691
102591
102528
102510
102547
102633
102763
102926
103129
103377
103682
104051
104456
104904
105432
106011
106655
107338
108040
108752
109552
110295
111088
111910
112687
113513
114273
115064
115765
116498
117183
117866
118443
119016
119575
120152
120667
121077
121546
121925
122246
122508
122750
123043
123229
123174
123220
123298
123150
122795
122282
121499
120627
119823
118907
117670
116471
115428
114470
113483
112577
111799
111178
88662
88665.7
88672.2
88681.2
88693.7
88708.6
88726.4
88747.3
88771.6
88799.6
88831.4
88867.1
88907.2
88952.4
89003.2
89059.9
89121.7
89188.5
89260.6
89338
89421
89509.6
89603.3
89701.8
89805.7
89916.3
90034
90159.2
90291
90430.4
90577.4
90731.3
90891.4
91056.9
91228.4
91406.2
91589.9
91778
91971
92169.6
92374.6
92586.4
92805.2
93029.8
93258.9
93491.2
93726.9
93966.9
94211.1
94459.9
94713.3
94971.4
95232
95500.6
95768.2
96038.8
96312.6
96588.8
96867
97146.7
97427.4
97708.2
97988.5
98267.5
98545
98821.2
99097.1
99372.8
99648.6
99924.2
100200
100474
100749
101022
101295
101567
101837
102103
102364
102620
102872
103124
103378
103636
103897
104159
104417
104674
104920
105158
105375
105577
105762
105921
106060
106170
106257
106322
106353
106370
106351
106285
106198
106086
105952
105795
105624
105440
105239
105023
104798
104564
104334
104118
103912
103711
103527
103368
103234
103126
103051
103030
103061
103131
103240
103401
103613
103856
104204
104573
104990
105467
106010
106603
107246
107902
108591
109338
110108
110883
111664
112440
113221
113966
114735
115370
116124
116748
117373
117920
118445
118949
119454
119912
120259
120685
121008
121277
121489
121707
122010
122160
122072
122110
122185
122077
121743
121274
120556
119696
118893
118038
116806
115612
114578
113645
112675
111776
111020
110419
88510.9
88514.1
88520.5
88529.4
88541
88555.4
88573.2
88593.3
88616.1
88642.3
88672.2
88706.1
88744.6
88788.3
88837.5
88892.3
88952.6
89018.5
89090.1
89167.1
89249.9
89338.4
89432.3
89531.8
89637.5
89749.8
89869
89995.5
90130.1
90272.1
90421.4
90577.6
90740.5
90909.8
91085.5
91267.3
91454.9
91648.1
91847.2
92052.9
92265.7
92485.9
92713
92945.7
93182.6
93423.1
93667.4
93916
94169.1
94426.9
94689.4
94961.5
95232.8
95509.3
95789.4
96072.8
96359.2
96648.5
96940.6
97234.7
97530.2
97825.9
98121.2
98415.4
98708.1
98999.9
99292.1
99584.9
99878.2
100172
100465
100759
101051
101343
101634
101923
102208
102488
102763
103032
103299
103566
103835
104106
104376
104645
104913
105177
105437
105683
105917
106122
106320
106491
106640
106767
106862
106939
106975
106990
106984
106935
106848
106736
106601
106443
106270
106088
105893
105682
105464
105240
105013
104787
104567
104349
104141
103950
103779
103627
103496
103418
103386
103399
103460
103576
103747
103936
104243
104582
104954
105383
105885
106442
107039
107665
108323
109031
109792
110543
111290
112055
112808
113533
114259
114868
115577
116158
116724
117234
117709
118157
118574
118987
119301
119662
119928
120154
120332
120527
120821
120946
120842
120837
120845
120782
120481
120049
119404
118584
117768
116991
115779
114616
113599
112696
111753
110870
110147
109572
88393.8
88396.8
88402.8
88411.1
88421.9
88435.1
88451.2
88470.3
88492.3
88517.3
88545.4
88577.3
88613.6
88654.7
88701.2
88753.5
88811.6
88875.5
88945.4
89021.5
89103.5
89191.6
89285.5
89385.5
89492.2
89605.7
89726.4
89853.9
89990.1
90133.3
90283.7
90441.4
90606.3
90778.1
90956.6
91141.8
91333.3
91531.2
91735.8
91947.7
92167.1
92394.1
92628.2
92868
93112.5
93361.1
93614.2
93871.7
94134.2
94402
94675.2
94954.1
95237.4
95525.3
95817.3
96113.2
96412.6
96715.2
97020.5
97328.3
97637.7
97947.5
98257.2
98566.2
98874.2
99181.8
99489.9
99799.2
100109
100421
100732
101044
101354
101664
101972
102276
102576
102870
103158
103442
103720
104003
104282
104562
104843
105118
105397
105668
105937
106186
106427
106640
106832
107013
107164
107298
107399
107481
107533
107544
107535
107495
107416
107307
107173
107014
106833
106648
106454
106243
106023
105797
105568
105335
105101
104863
104629
104406
104196
104001
103814
103682
103589
103551
103563
103630
103745
103914
104147
104462
104785
105176
105638
106154
106712
107302
107923
108590
109309
110040
110768
111505
112233
112945
113625
114239
114859
115414
115918
116384
116786
117191
117527
117887
118191
118458
118683
118895
119047
119230
119480
119602
119490
119463
119321
119262
119006
118612
118044
117284
116459
115784
114590
113489
112498
111624
110714
109859
109171
108629
88317.5
88320.4
88325.6
88332.8
88342.4
88354.7
88369.8
88387.4
88407.6
88430.8
88457.4
88487.7
88522.1
88561.1
88605.1
88654.6
88709.9
88771.2
88838.8
88912.6
88992.8
89079.5
89172.7
89272.5
89379
89492.6
89613.5
89742.2
89877.6
90020.5
90170.9
90329.1
90494.8
90668.1
90848.7
91036.3
91230.9
91432.6
91641.7
91858.6
92083.4
92315.8
92555.5
92800.9
93052.1
93308.4
93569.5
93836
94107.2
94384.3
94667.2
94955.8
95249.8
95548.9
95852.6
96160.2
96471.2
96785.6
97103.4
97424.5
97746.9
98070
98393.4
98716.8
99039.9
99362.7
99685.9
100010
100336
100663
100991
101319
101648
101974
102299
102617
102933
103242
103543
103841
104131
104422
104713
104997
105286
105570
105851
106128
106394
106646
106879
107099
107289
107471
107626
107758
107862
107934
107989
108005
107991
107954
107883
107774
107636
107474
107281
107089
106897
106688
106458
106220
105978
105733
105486
105227
104965
104711
104462
104222
103988
103801
103656
103576
103542
103556
103626
103751
103929
104200
104489
104839
105248
105719
106238
106781
107369
107992
108678
109399
110094
110817
111513
112199
112845
113446
113990
114505
114946
115359
115693
116070
116354
116652
116926
117104
117291
117516
117647
117821
118011
118130
118028
117970
117709
117563
117335
116987
116499
115816
114979
114451
113244
112231
111278
110430
109569
108756
108107
107609
88289.4
88291.9
88296.3
88302.5
88310.8
88321.5
88334.5
88350.2
88368.7
88390.2
88414.7
88442.8
88474.7
88511.1
88552.4
88599
88651.2
88709.6
88774.3
88845.4
88923.1
89007.3
89098.3
89196.1
89300.8
89413
89532.6
89659.7
89794.4
89936.9
90086.4
90244.1
90409.9
90583.7
90765.2
90954.4
91151.3
91356.1
91569.2
91789.5
92017.9
92254.2
92497.7
92748.7
93005.7
93268.2
93536
93809.9
94089.7
94375.9
94668.2
94966.5
95270.4
95579.5
95892.9
96210
96531.1
96856.5
97185.9
97518.2
97852.5
98188.3
98525.1
98862.2
99199.4
99536.7
99874.2
100213
100552
100893
101234
101577
101920
102260
102599
102934
103262
103588
103904
104214
104518
104815
105114
105407
105696
105983
106260
106532
106790
107037
107263
107478
107668
107842
107997
108123
108227
108294
108339
108351
108332
108289
108217
108107
107965
107795
107592
107382
107182
106974
106742
106491
106229
105968
105701
105422
105133
104847
104561
104279
104001
103770
103582
103457
103380
103345
103381
103455
103595
103809
104063
104368
104722
105147
105618
106120
106668
107258
107910
108599
109270
109975
110649
111291
111895
112462
112938
113409
113803
114166
114462
114814
115060
115310
115527
115653
115804
116017
116154
116295
116435
116524
116437
116278
115995
115762
115517
115212
114800
114199
113377
112928
111808
110838
109940
109117
108330
107574
106990
106524
88318.1
88319.6
88322.7
88327.2
88333.4
88341.6
88352
88364.9
88380.5
88398.8
88420.2
88445.3
88474.3
88507.6
88545.6
88588.9
88637.6
88692.3
88753.2
88820.5
88894.5
88975
89062.6
89157
89258.8
89368.1
89485
89609.6
89742
89882.6
90032
90189.1
90354.2
90527.6
90709.3
90899.2
91097.1
91303.1
91517.4
91741
91972.7
92212.3
92459.5
92714
92975.3
93242.8
93516.8
93797.8
94085.6
94379.8
94680
94985.9
95297.2
95613.4
95934
96259.4
96589.9
96925.3
97264.8
97607.7
97953.3
98301
98650
98999.4
99349.1
99699.2
100050
100401
100754
101107
101461
101815
102168
102519
102866
103212
103550
103884
104212
104533
104849
105153
105454
105750
106038
106321
106594
106858
107109
107349
107568
107775
107962
108124
108270
108384
108476
108534
108570
108573
108542
108486
108402
108287
108138
107960
107752
107523
107302
107084
106849
106586
106309
106027
105736
105435
105120
104806
104485
104165
103851
103581
103361
103193
103070
103000
102997
103031
103131
103299
103505
103760
104078
104452
104870
105325
105837
106388
107012
107645
108314
108974
109608
110206
110747
111266
111687
112128
112489
112821
113113
113428
113648
113848
114007
114093
114241
114401
114562
114654
114748
114797
114658
114462
114219
113937
113630
113335
112978
112458
111712
111256
110234
109305
108483
107713
107006
106308
105803
105370
88413.5
88412.8
88413.7
88415.2
88417.7
88421.9
88428.2
88436.9
88448.1
88462.2
88479.4
88500.1
88524.7
88553.6
88587.4
88626.3
88670.7
88720.8
88777
88839.5
88908.8
88984.6
89067.4
89157.5
89255.3
89360.7
89473.8
89595
89724.6
89862.8
90009.5
90165
90328.9
90501.2
90682.1
90871.7
91069.9
91276.9
91492.7
91717.2
91950.5
92192.2
92442
92699.3
92963.7
93235.1
93514.8
93801.7
94095.2
94394.6
94699.6
95010.2
95326.5
95648.4
95976
96309.9
96650
96995.2
97344.9
97698.6
98054.5
98412.2
98771.2
99130.7
99490.7
99851.2
100212
100575
100938
101301
101665
102028
102390
102749
103102
103453
103798
104135
104468
104791
105110
105419
105720
106013
106296
106573
106839
107095
107337
107568
107779
107972
108148
108297
108428
108529
108605
108649
108667
108656
108611
108540
108441
108315
108154
107963
107743
107496
107252
107015
106766
106491
106200
105899
105585
105258
104921
104582
104233
103879
103535
103237
102984
102785
102626
102513
102480
102474
102534
102652
102814
103026
103300
103622
103990
104403
104869
105391
105975
106574
107215
107818
108398
108931
109408
109860
110245
110668
111013
111334
111638
111912
112116
112265
112369
112436
112591
112700
112870
112928
112971
112972
112802
112618
112405
112153
111743
111402
111070
110620
109996
109468
108522
107654
106912
106228
105607
104978
104500
104150
88583.7
88581.3
88578.6
88575.7
88573.1
88571.4
88571.3
88573.3
88578
88585.8
88596.9
88611.9
88630.8
88654.2
88682.4
88715.7
88754.5
88799
88849.6
88906.5
88970
89040.3
89117.8
89202.7
89295.3
89395.8
89504.4
89621.4
89747
89881.4
90024.6
90176.8
90338
90508
90687
90875.1
91072.2
91278.5
91494.1
91718.9
91952.7
92195.3
92446.6
92705.3
92971.6
93246.5
93529.6
93819.7
94116
94418
94725.8
95039.9
95360.7
95688.6
96024
96366.9
96716.1
97070.5
97428.8
97790.1
98153.4
98518.3
98884.4
99250.9
99617.6
99984.9
100353
100723
101093
101463
101833
102202
102568
102933
103294
103648
103999
104338
104672
104995
105310
105618
105915
106203
106480
106748
107004
107247
107477
107691
107888
108062
108218
108347
108459
108543
108600
108628
108626
108597
108533
108440
108324
108181
108006
107799
107564
107298
107030
106770
106497
106205
105897
105579
105243
104892
104534
104174
103803
103423
103058
102740
102461
102229
102050
101888
101842
101791
101818
101889
102009
102180
102398
102671
102988
103369
103786
104281
104795
105390
105969
106498
107005
107471
107904
108295
108651
109050
109398
109716
110025
110276
110464
110577
110643
110723
110873
110960
111108
111165
111156
111103
110920
110756
110635
110371
109915
109466
109114
108712
108190
107587
106730
105931
105253
104659
104128
103617
103151
102898
88795
88789.4
88783.4
88775.2
88766.8
88758.8
88751.8
88746.6
88744.1
88744.8
88749.3
88757.9
88770.8
88788.3
88810.7
88838.3
88871.4
88910.4
88955.6
89007.1
89065.1
89130
89202.1
89281.8
89369.3
89464.8
89568.6
89681
89802.2
89932.3
90071.3
90219.5
90377
90543.7
90719.8
90905.5
91100.7
91305.3
91519.6
91743.4
91976.6
92219.1
92470.9
92726.9
92995.3
93271.8
93555.7
93846.7
94143.9
94446.9
94756.1
95072.5
95397
95730
96071.5
96420.7
96775.8
97135.7
97498.6
97863.3
98230.2
98598.5
98968
99337.5
99707.6
100079
100451
100824
101199
101573
101946
102318
102686
103053
103416
103771
104122
104461
104792
105113
105423
105725
106015
106296
106565
106821
107066
107294
107509
107703
107882
108037
108176
108288
108377
108441
108476
108483
108458
108409
108326
108212
108075
107913
107720
107496
107246
106964
106673
106386
106089
105776
105452
105114
104759
104391
104014
103637
103248
102852
102480
102153
101852
101599
101398
101213
101136
101063
101057
101095
101175
101298
101468
101698
101961
102299
102685
103132
103603
104153
104653
105111
105538
105969
106374
106716
107041
107393
107736
108061
108364
108608
108787
108884
108941
109043
109181
109259
109372
109439
109395
109294
109109
108963
108865
108617
108192
107626
107190
106782
106286
105688
104943
104202
103568
103030
102581