/*--------------------------------*- C++ -*----------------------------------*\
| =========                 |                                                 |
| \\      /  F ield         | OpenFOAM: The Open Source CFD Toolbox           |
|  \\    /   O peration     | Version:  dev                                   |
|   \\  /    A nd           | Web:      http://www.openfoam.org               |
|    \\/     M anipulation  |                                                 |
\*---------------------------------------------------------------------------*/
FoamFile
{
    version     2.0;
    format      ascii;
    class       surfaceScalarField;
    object      phi;
    location    "9.142";
}
// * * * * * * * * * * * * * * * * * * * * * * * * * * * * * * * * * * * * * //

dimensions      [1 0 -1 0 0 0 0];

internalField   nonuniform List<scalar> 
24170
(
2.13639e-06
2.02041e-08
1.16661e-06
-3.81456e-07
7.51724e-07
-8.92344e-07
5.93263e-07
-1.10657e-06
5.09022e-07
-1.13737e-06
5.38084e-07
-1.20942e-06
4.5817e-07
-1.0511e-06
6.4672e-07
-1.27962e-06
6.43501e-07
-1.02733e-06
9.23547e-07
-1.26603e-06
1.10312e-06
-1.11066e-06
1.53092e-06
-1.30692e-06
1.96434e-06
-1.25793e-06
3.16995e-06
-1.97645e-06
4.29126e-06
-1.83827e-06
8.31868e-06
-4.70515e-06
1.22293e-05
-4.55957e-06
1.15744e-06
1.05711e-05
3.76405e-06
-1.31852e-06
2.90908e-06
-9.93613e-07
2.24111e-06
-1.65363e-06
1.7172e-06
-1.96964e-06
1.3484e-06
-2.11155e-06
1.04865e-06
-2.2065e-06
8.17568e-07
-2.06826e-06
7.65357e-07
-2.43151e-06
5.31294e-07
-1.93275e-06
7.40456e-07
-2.566e-06
7.85348e-07
-2.18927e-06
1.10162e-06
-2.59826e-06
1.87341e-06
-2.94812e-06
3.28592e-06
-4.24909e-06
5.59614e-06
-4.95811e-06
9.4507e-06
-9.32611e-06
1.12221e-05
-7.0601e-06
1.76238e-06
1.00235e-05
4.53165e-06
-3.19487e-06
4.20243e-06
-2.2774e-06
3.83327e-06
-2.8559e-06
3.41284e-06
-3.07085e-06
2.97566e-06
-3.1511e-06
2.67304e-06
-3.32566e-06
2.39289e-06
-3.16283e-06
2.43483e-06
-3.79515e-06
2.09218e-06
-2.85093e-06
2.49917e-06
-4.17101e-06
2.29079e-06
-3.12744e-06
2.75196e-06
-4.13274e-06
2.73435e-06
-3.94345e-06
4.241e-06
-6.69412e-06
5.15191e-06
-6.76984e-06
5.11951e-06
-1.0135e-05
5.74842e-06
-8.46154e-06
3.51788e-06
3.32528e-06
4.99654e-06
-5.12959e-06
5.12068e-06
-4.16967e-06
4.98529e-06
-4.44824e-06
4.87371e-06
-4.62513e-06
4.49236e-06
-4.38966e-06
4.46616e-06
-4.85392e-06
3.98147e-06
-4.1802e-06
4.2086e-06
-5.46369e-06
3.97593e-06
-4.00229e-06
4.40531e-06
-5.90801e-06
4.30471e-06
-4.27942e-06
5.18335e-06
-6.19409e-06
4.78016e-06
-4.65109e-06
5.60162e-06
-8.5415e-06
6.34735e-06
-8.48121e-06
6.21399e-06
-1.09295e-05
3.79982e-06
-6.89771e-06
5.74531e-06
8.18833e-07
5.21781e-06
-7.20172e-06
5.83579e-06
-6.72258e-06
5.71528e-06
-6.22005e-06
5.82402e-06
-6.56024e-06
5.46764e-06
-5.8056e-06
5.65922e-06
-6.74954e-06
5.14067e-06
-5.30185e-06
4.92044e-06
-6.81563e-06
4.99695e-06
-5.58772e-06
5.09981e-06
-7.44158e-06
5.35748e-06
-5.89799e-06
6.35148e-06
-8.48222e-06
6.19555e-06
-5.71521e-06
5.96994e-06
-9.44367e-06
6.06578e-06
-9.63344e-06
6.60043e-06
-1.24673e-05
2.81351e-06
-4.03866e-06
6.53813e-06
1.18833e-06
5.65856e-06
-9.17006e-06
6.04407e-06
-9.21711e-06
5.77055e-06
-8.0078e-06
5.7495e-06
-8.53516e-06
5.42697e-06
-7.41809e-06
5.68918e-06
-8.8732e-06
5.32364e-06
-6.73091e-06
4.83139e-06
-8.03682e-06
5.0868e-06
-7.48303e-06
4.65417e-06
-8.56813e-06
3.97691e-06
-6.69916e-06
3.29644e-06
-9.20454e-06
4.46187e-06
-8.20515e-06
4.4364e-06
-1.06422e-05
3.98074e-06
-1.03254e-05
4.40529e-06
-1.39715e-05
3.85815e-06
-4.51905e-06
6.61474e-06
2.89719e-06
6.38594e-06
-1.16468e-05
6.66745e-06
-1.17836e-05
6.10965e-06
-9.68555e-06
5.82568e-06
-1.04114e-05
5.38678e-06
-9.07665e-06
5.48121e-06
-1.09841e-05
5.24419e-06
-8.44721e-06
5.20695e-06
-9.85876e-06
5.15101e-06
-9.19807e-06
4.54736e-06
-9.6509e-06
4.08079e-06
-7.83416e-06
3.03733e-06
-9.67513e-06
3.46085e-06
-1.00557e-05
2.76983e-06
-1.12717e-05
2.64133e-06
-1.14109e-05
2.26559e-06
-1.47853e-05
5.43954e-06
-8.81934e-06
3.45486e-06
7.69541e-06
4.9861e-06
-1.32845e-05
5.18446e-06
-1.37333e-05
4.63964e-06
-1.08565e-05
4.64967e-06
-1.2073e-05
4.40966e-06
-1.0442e-05
4.19375e-06
-1.23089e-05
3.75151e-06
-9.49989e-06
4.27565e-06
-1.18067e-05
4.10156e-06
-1.03829e-05
3.81905e-06
-1.06526e-05
3.54795e-06
-8.78447e-06
3.33199e-06
-1.06188e-05
2.94145e-06
-1.07639e-05
2.585e-06
-1.19147e-05
2.0677e-06
-1.18245e-05
5.18997e-07
-1.41239e-05
-1.81293e-07
-8.92703e-06
-6.89183e-07
3.24043e-06
5.8147e-06
-1.53046e-05
5.83999e-06
-1.57652e-05
5.51902e-06
-1.24998e-05
5.70564e-06
-1.41476e-05
5.40937e-06
-1.19804e-05
4.98859e-06
-1.36475e-05
4.85133e-06
-1.1067e-05
5.29753e-06
-1.38766e-05
5.11803e-06
-1.17598e-05
5.09172e-06
-1.2097e-05
4.85055e-06
-9.9398e-06
5.05907e-06
-1.21409e-05
4.65303e-06
-1.16144e-05
4.58414e-06
-1.29979e-05
3.27189e-06
-1.15876e-05
9.56925e-07
-1.27978e-05
-5.03194e-07
-8.37703e-06
-6.18504e-06
4.13666e-06
6.78414e-06
-1.76689e-05
6.73406e-06
-1.79965e-05
6.63005e-06
-1.46265e-05
6.69114e-06
-1.63554e-05
6.374e-06
-1.3744e-05
6.05143e-06
-1.53213e-05
6.13363e-06
-1.30757e-05
5.84298e-06
-1.54253e-05
5.66485e-06
-1.33366e-05
5.66295e-06
-1.37652e-05
5.84408e-06
-1.17046e-05
5.86573e-06
-1.3645e-05
5.40287e-06
-1.25559e-05
4.99485e-06
-1.38996e-05
4.16503e-06
-1.19724e-05
2.97599e-06
-1.27256e-05
3.19343e-06
-9.61623e-06
-9.53135e-06
5.55081e-06
7.9741e-06
-2.01458e-05
7.8045e-06
-2.03915e-05
7.70673e-06
-1.70308e-05
7.53831e-06
-1.86024e-05
7.4087e-06
-1.59426e-05
7.08912e-06
-1.72429e-05
7.03055e-06
-1.51711e-05
6.51114e-06
-1.69657e-05
6.39148e-06
-1.51696e-05
6.26299e-06
-1.54959e-05
6.45378e-06
-1.3655e-05
6.17362e-06
-1.5021e-05
5.97872e-06
-1.3915e-05
5.25555e-06
-1.46351e-05
4.87933e-06
-1.29494e-05
4.39684e-06
-1.34994e-05
4.62646e-06
-1.10078e-05
-1.12162e-05
5.21547e-06
9.2487e-06
-2.3311e-05
8.87359e-06
-2.28598e-05
9.00523e-06
-1.99181e-05
8.61214e-06
-2.08824e-05
8.66541e-06
-1.85565e-05
8.26284e-06
-1.93126e-05
8.27717e-06
-1.75509e-05
7.65675e-06
-1.8613e-05
7.38499e-06
-1.70394e-05
7.11097e-06
-1.72562e-05
7.29294e-06
-1.57566e-05
6.76174e-06
-1.63039e-05
6.48913e-06
-1.53362e-05
5.82407e-06
-1.55608e-05
5.77391e-06
-1.43734e-05
5.14988e-06
-1.42453e-05
5.76987e-06
-1.2889e-05
-1.25621e-05
5.93136e-06
1.10451e-05
-2.65178e-05
1.04748e-05
-2.53708e-05
1.03776e-05
-2.27896e-05
9.86484e-06
-2.3254e-05
9.86021e-06
-2.13108e-05
9.40499e-06
-2.15183e-05
9.31877e-06
-2.00033e-05
8.66253e-06
-2.039e-05
8.45557e-06
-1.91286e-05
8.00749e-06
-1.89837e-05
7.99254e-06
-1.77836e-05
7.54774e-06
-1.77858e-05
7.37862e-06
-1.69673e-05
6.8445e-06
-1.67109e-05
6.73996e-06
-1.58289e-05
6.38205e-06
-1.53375e-05
6.59984e-06
-1.445e-05
-1.38946e-05
6.68239e-06
1.29153e-05
-3.04029e-05
1.23929e-05
-2.80706e-05
1.22398e-05
-2.57342e-05
1.13861e-05
-2.54043e-05
1.12012e-05
-2.3996e-05
1.06315e-05
-2.37072e-05
1.05332e-05
-2.25337e-05
9.9725e-06
-2.23448e-05
9.76603e-06
-2.12956e-05
9.27819e-06
-2.07359e-05
9.15622e-06
-1.97602e-05
8.6462e-06
-1.92442e-05
8.43341e-06
-1.85908e-05
7.98239e-06
-1.79723e-05
7.75079e-06
-1.71853e-05
7.45554e-06
-1.65126e-05
7.41259e-06
-1.57709e-05
-1.51243e-05
7.37996e-06
1.48575e-05
-3.35999e-05
1.41083e-05
-3.05018e-05
1.3855e-05
-2.85379e-05
1.32532e-05
-2.77568e-05
1.30134e-05
-2.6576e-05
1.24227e-05
-2.58126e-05
1.21038e-05
-2.47805e-05
1.1474e-05
-2.41602e-05
1.1072e-05
-2.31991e-05
1.05469e-05
-2.23765e-05
1.02397e-05
-2.14781e-05
9.87821e-06
-2.07718e-05
9.51212e-06
-1.99796e-05
9.22267e-06
-1.93101e-05
9.02336e-06
-1.84869e-05
8.82046e-06
-1.76945e-05
8.70561e-06
-1.69349e-05
-1.61935e-05
8.59623e-06
1.7309e-05
-3.62348e-05
1.64605e-05
-3.24694e-05
1.59247e-05
-3.07114e-05
1.52414e-05
-2.96849e-05
1.47317e-05
-2.8556e-05
1.41125e-05
-2.75628e-05
1.36414e-05
-2.6555e-05
1.30822e-05
-2.57229e-05
1.26431e-05
-2.47497e-05
1.22223e-05
-2.38146e-05
1.19485e-05
-2.29316e-05
1.16154e-05
-2.20334e-05
1.13277e-05
-2.11611e-05
1.09832e-05
-2.0313e-05
1.06788e-05
-1.94132e-05
1.04276e-05
-1.85672e-05
1.02303e-05
-1.7763e-05
-1.69395e-05
1.00402e-05
1.95465e-05
-3.73568e-05
1.88704e-05
-3.37238e-05
1.8284e-05
-3.19936e-05
1.7635e-05
-3.0833e-05
1.70619e-05
-2.96869e-05
1.64958e-05
-2.86062e-05
1.5989e-05
-2.75551e-05
1.54267e-05
-2.65636e-05
1.48816e-05
-2.55028e-05
1.43662e-05
-2.44906e-05
1.38508e-05
-2.3499e-05
1.33781e-05
-2.25328e-05
1.29105e-05
-2.15618e-05
1.24859e-05
-2.06578e-05
1.21492e-05
-1.97552e-05
1.18928e-05
-1.89062e-05
1.16779e-05
-1.80671e-05
-1.726e-05
1.15462e-05
1.97453e-05
-3.70471e-05
1.92418e-05
-3.35995e-05
1.87254e-05
-3.18449e-05
1.81347e-05
-3.05986e-05
1.7526e-05
-2.94001e-05
1.69271e-05
-2.82826e-05
1.63657e-05
-2.72179e-05
1.58317e-05
-2.62069e-05
1.53309e-05
-2.51296e-05
1.48286e-05
-2.40559e-05
1.43713e-05
-2.30517e-05
1.39199e-05
-2.20358e-05
1.35415e-05
-2.1084e-05
1.32008e-05
-2.0171e-05
1.29163e-05
-1.92852e-05
1.26867e-05
-1.84541e-05
1.25237e-05
-1.76516e-05
-1.68148e-05
1.23548e-05
1.8011e-05
-3.50384e-05
1.7341e-05
-3.18982e-05
1.68213e-05
-3.03285e-05
1.62953e-05
-2.91225e-05
1.57558e-05
-2.7927e-05
1.52265e-05
-2.68265e-05
1.4719e-05
-2.57934e-05
1.42272e-05
-2.47987e-05
1.37652e-05
-2.37483e-05
1.33542e-05
-2.2716e-05
1.29877e-05
-2.17514e-05
1.26612e-05
-2.07772e-05
1.23416e-05
-1.98261e-05
1.20789e-05
-1.89731e-05
1.18385e-05
-1.81181e-05
1.16173e-05
-1.73118e-05
1.14461e-05
-1.65757e-05
-1.57887e-05
1.13073e-05
1.64901e-05
-3.19792e-05
1.56058e-05
-2.9039e-05
1.49237e-05
-2.77348e-05
1.43346e-05
-2.6699e-05
1.38261e-05
-2.56305e-05
1.34066e-05
-2.46664e-05
1.30195e-05
-2.37108e-05
1.26309e-05
-2.27492e-05
1.22738e-05
-2.17622e-05
1.19642e-05
-2.08057e-05
1.16955e-05
-1.99194e-05
1.14959e-05
-1.9055e-05
1.13109e-05
-1.81448e-05
1.11228e-05
-1.73242e-05
1.09671e-05
-1.65379e-05
1.08048e-05
-1.57591e-05
1.06747e-05
-1.51012e-05
-1.43869e-05
1.05747e-05
1.43488e-05
-2.87492e-05
1.38984e-05
-2.60479e-05
1.34162e-05
-2.4788e-05
1.29471e-05
-2.38664e-05
1.25392e-05
-2.29207e-05
1.21587e-05
-2.204e-05
1.17643e-05
-2.11345e-05
1.13954e-05
-2.02614e-05
1.11006e-05
-1.94055e-05
1.08373e-05
-1.85385e-05
1.06192e-05
-1.77552e-05
1.04577e-05
-1.70069e-05
1.03211e-05
-1.61766e-05
1.02071e-05
-1.54285e-05
1.01311e-05
-1.47356e-05
1.00262e-05
-1.39835e-05
9.91904e-06
-1.33827e-05
-1.27708e-05
9.85383e-06
1.26663e-05
-2.46063e-05
1.20676e-05
-2.2617e-05
1.16749e-05
-2.16313e-05
1.13283e-05
-2.08759e-05
1.10443e-05
-2.00812e-05
1.07225e-05
-1.92163e-05
1.04059e-05
-1.83815e-05
1.01376e-05
-1.76317e-05
9.90974e-06
-1.68981e-05
9.73599e-06
-1.61609e-05
9.61166e-06
-1.54845e-05
9.4694e-06
-1.47876e-05
9.3836e-06
-1.4088e-05
9.31478e-06
-1.34138e-05
9.25276e-06
-1.27992e-05
9.24712e-06
-1.21762e-05
9.22374e-06
-1.16199e-05
-1.10711e-05
9.18801e-06
1.15529e-05
-2.11871e-05
1.11572e-05
-1.93044e-05
1.0763e-05
-1.83756e-05
1.04049e-05
-1.77577e-05
1.00782e-05
-1.71193e-05
9.78674e-06
-1.63636e-05
9.54331e-06
-1.5628e-05
9.31357e-06
-1.49673e-05
9.12759e-06
-1.43599e-05
8.97172e-06
-1.37276e-05
8.84717e-06
-1.31482e-05
8.73163e-06
-1.2535e-05
8.64819e-06
-1.19482e-05
8.59061e-06
-1.13688e-05
8.53262e-06
-1.08311e-05
8.50668e-06
-1.03186e-05
8.49049e-06
-9.84057e-06
-9.36331e-06
8.46804e-06
1.01531e-05
-1.74966e-05
9.82818e-06
-1.61141e-05
9.60818e-06
-1.53664e-05
9.34276e-06
-1.4773e-05
9.07168e-06
-1.42225e-05
8.83781e-06
-1.36123e-05
8.64547e-06
-1.29887e-05
8.47715e-06
-1.24132e-05
8.32805e-06
-1.18955e-05
8.20498e-06
-1.13599e-05
8.04604e-06
-1.08182e-05
7.92782e-06
-1.03209e-05
7.8583e-06
-9.86053e-06
7.80405e-06
-9.37358e-06
7.79395e-06
-8.95259e-06
7.81001e-06
-8.54144e-06
7.82218e-06
-8.13404e-06
-7.73936e-06
7.845e-06
8.98572e-06
-1.40887e-05
8.82713e-06
-1.3213e-05
8.71838e-06
-1.26048e-05
8.5273e-06
-1.20108e-05
8.28015e-06
-1.14642e-05
8.00361e-06
-1.09116e-05
7.76244e-06
-1.04148e-05
7.59404e-06
-9.9722e-06
7.448e-06
-9.53876e-06
7.31625e-06
-9.09554e-06
7.20363e-06
-8.64228e-06
7.14242e-06
-8.26424e-06
7.08009e-06
-7.87942e-06
7.06851e-06
-7.51441e-06
7.07353e-06
-7.17857e-06
7.09285e-06
-6.85637e-06
7.12166e-06
-6.52892e-06
-6.2012e-06
7.14716e-06
8.11434e-06
-1.08256e-05
7.91839e-06
-1.04617e-05
7.79726e-06
-1.00019e-05
7.65525e-06
-9.47316e-06
7.49365e-06
-8.97694e-06
7.32051e-06
-8.47845e-06
7.16554e-06
-8.0737e-06
7.03391e-06
-7.72117e-06
6.91662e-06
-7.3621e-06
6.81161e-06
-7.00314e-06
6.72381e-06
-6.6361e-06
6.67807e-06
-6.36019e-06
6.61585e-06
-6.02863e-06
6.55686e-06
-5.73521e-06
6.51384e-06
-5.47785e-06
6.48264e-06
-5.23835e-06
6.46046e-06
-4.98684e-06
-4.72131e-06
6.4361e-06
7.43145e-06
-7.93654e-06
7.30004e-06
-7.99038e-06
7.12982e-06
-7.55422e-06
6.94656e-06
-7.08638e-06
6.7381e-06
-6.63378e-06
6.53218e-06
-6.20217e-06
6.34154e-06
-5.87489e-06
6.15161e-06
-5.58575e-06
5.99359e-06
-5.3195e-06
5.83634e-06
-5.02241e-06
5.73015e-06
-4.76915e-06
5.59735e-06
-4.52684e-06
5.50549e-06
-4.29685e-06
5.44612e-06
-4.09836e-06
5.40202e-06
-3.91709e-06
5.33828e-06
-3.71976e-06
5.27927e-06
-3.53526e-06
-3.34716e-06
5.23747e-06
6.6842e-06
-5.53805e-06
6.56814e-06
-5.75108e-06
6.31261e-06
-5.23318e-06
5.97541e-06
-4.75061e-06
5.59462e-06
-4.31498e-06
5.21727e-06
-3.94496e-06
4.85646e-06
-3.69095e-06
4.52288e-06
-3.48485e-06
4.19775e-06
-3.28252e-06
3.93211e-06
-3.09998e-06
3.71396e-06
-2.94928e-06
3.5304e-06
-2.79683e-06
3.38317e-06
-2.65831e-06
3.25907e-06
-2.53873e-06
3.14729e-06
-2.42575e-06
3.06013e-06
-2.30906e-06
2.99986e-06
-2.2074e-06
-2.08842e-06
2.95316e-06
5.8844e-06
-3.44133e-06
5.27308e-06
-3.23427e-06
4.4934e-06
-2.59489e-06
3.73085e-06
-2.18762e-06
3.06218e-06
-1.89966e-06
2.5189e-06
-1.70653e-06
2.05505e-06
-1.5823e-06
1.67642e-06
-1.51124e-06
1.37521e-06
-1.4361e-06
1.13738e-06
-1.36664e-06
9.43111e-07
-1.30932e-06
7.92979e-07
-1.25107e-06
6.74945e-07
-1.19485e-06
5.7539e-07
-1.1444e-06
4.94231e-07
-1.10065e-06
4.37581e-07
-1.05953e-06
4.12898e-07
-1.04059e-06
-9.96178e-07
4.12014e-07
3.83111e-06
2.23216e-06
1.23803e-06
6.09322e-07
2.25163e-07
-9.53777e-09
-1.63456e-07
-2.8975e-07
-3.84201e-07
-4.52162e-07
-5.05705e-07
-5.43869e-07
-5.68804e-07
-5.86557e-07
-6.04056e-07
-6.23996e-07
-6.68352e-07
-7.10826e-07
-5.23311e-07
4.34196e-07
-1.08108e-06
4.60816e-07
-1.5517e-06
3.74429e-07
-1.91715e-06
2.70641e-07
-2.23285e-06
2.22775e-07
-2.53097e-06
2.07663e-07
-2.83047e-06
2.13139e-07
-3.1301e-06
2.18059e-07
-3.40494e-06
1.99474e-07
-3.62081e-06
1.46999e-07
-3.74694e-06
6.42792e-08
-3.78449e-06
-1.74459e-08
-3.69984e-06
-1.32572e-07
-3.48732e-06
-2.53209e-07
-3.13333e-06
-3.87837e-07
-2.65453e-06
-5.05861e-07
-2.10479e-06
-5.68017e-07
-1.5841e-06
-5.292e-07
-9.72826e-07
-6.10281e-07
-3.03681e-07
-6.6407e-07
1.90224e-07
-4.79239e-07
6.09902e-07
-3.95206e-07
1.00733e-06
-3.62831e-07
1.12149e-06
-6.85907e-08
1.12385e-06
5.17641e-08
9.94925e-07
1.91813e-07
5.54507e-07
5.10915e-07
1.1007e-07
5.23194e-07
-4.01207e-07
5.98679e-07
-1.08173e-06
7.84605e-07
-1.85473e-06
8.99337e-07
-2.68849e-06
9.58414e-07
-3.43617e-06
8.52262e-07
-3.94785e-06
5.99264e-07
-4.19606e-06
3.35053e-07
-4.20597e-06
1.03653e-07
-4.02442e-06
-8.6854e-08
-3.697e-06
-2.35752e-07
-3.18188e-06
-4.27972e-07
-2.48146e-06
-6.20448e-07
-1.6709e-06
-7.46945e-07
-8.06498e-07
-8.16847e-07
-4.27217e-08
-7.421e-07
4.62852e-07
-5.04659e-07
7.74433e-07
-3.26047e-07
1.08687e-06
-3.52108e-07
1.39974e-06
-3.95483e-07
1.67106e-06
-4.02405e-07
1.89886e-06
-3.96639e-07
2.15268e-06
-4.52664e-07
2.48967e-06
-5.65715e-07
2.88568e-06
-6.59375e-07
3.29535e-06
-7.16062e-07
3.67301e-06
-7.3622e-07
3.99035e-06
-7.33485e-07
4.2727e-06
-7.59009e-07
4.49156e-06
-7.58782e-07
4.61237e-06
-7.25228e-07
4.61768e-06
-6.74023e-07
4.56319e-06
-6.79483e-07
4.47054e-06
-7.09167e-07
4.31728e-06
-7.20913e-07
4.14361e-06
-7.77944e-07
3.98988e-06
-8.78779e-07
3.83756e-06
-9.63595e-07
3.68712e-06
-1.05069e-06
3.55134e-06
-1.1523e-06
3.42213e-06
-1.2482e-06
3.28447e-06
-1.33059e-06
3.1372e-06
-1.41227e-06
2.97991e-06
-1.49393e-06
2.78462e-06
-1.54737e-06
2.54816e-06
-1.59732e-06
2.23858e-06
-1.61473e-06
1.84869e-06
-1.6245e-06
1.40422e-06
-1.66036e-06
9.09347e-07
-1.69888e-06
4.2804e-07
-1.8008e-06
-1.04135e-08
-1.93217e-06
-3.50408e-07
-2.12263e-06
-6.14313e-07
-2.29535e-06
-7.3595e-07
-2.54178e-06
-7.82808e-07
-2.7243e-06
-7.68735e-07
-2.89583e-06
-6.59385e-07
-3.10218e-06
-4.52925e-07
-3.30692e-06
-5.11759e-08
-3.60784e-06
4.98276e-07
-3.85779e-06
1.14723e-06
-4.06283e-06
1.90346e-06
-4.27998e-06
2.65968e-06
-4.38908e-06
3.53011e-06
-4.6091e-06
4.40217e-06
-4.71717e-06
5.63007e-06
-5.15823e-06
7.01541e-06
-5.45104e-06
8.50484e-06
-5.72182e-06
9.97804e-06
-5.86062e-06
1.12933e-05
-5.87917e-06
1.229e-05
-5.7944e-06
1.3238e-05
-5.98022e-06
1.42891e-05
-6.27777e-06
1.56412e-05
-6.75995e-06
1.69132e-05
-6.93686e-06
1.78836e-05
-6.86671e-06
1.8337e-05
-6.54587e-06
1.81732e-05
-6.20143e-06
1.76279e-05
-6.10528e-06
1.68945e-05
-6.18323e-06
1.60673e-05
-6.24503e-06
1.5313e-05
-6.34891e-06
1.4513e-05
-6.56018e-06
1.33147e-05
-6.67027e-06
1.17416e-05
-6.76567e-06
1.01196e-05
-7.09519e-06
8.75789e-06
-7.59636e-06
8.2616e-06
-8.64065e-06
8.16664e-06
-9.10856e-06
7.17185e-06
-8.24434e-06
5.56841e-06
-7.66219e-06
4.33609e-06
-7.94828e-06
2.77529e-06
-7.51738e-06
2.0689e-07
-6.44969e-06
-2.88495e-06
-6.00129e-06
-5.96887e-06
-6.15151e-06
-8.56889e-06
-6.78403e-06
-1.02302e-05
-7.95002e-06
-1.11338e-05
-8.94818e-06
-1.20045e-05
-9.06987e-06
-1.23176e-05
-9.60557e-06
-9.44973e-06
-1.27662e-05
-3.69266e-06
-1.59757e-05
-2.81894e-07
-1.42493e-05
2.20256e-06
-1.35993e-05
2.17188e-06
-1.15168e-05
1.58827e-07
-9.70527e-06
-1.66927e-06
-1.00009e-05
-1.78999e-06
-1.20848e-05
-1.85031e-06
-1.24475e-05
-1.41879e-06
-1.33152e-05
-1.45199e-06
-1.33624e-05
-1.30859e-06
-1.39953e-05
-9.27609e-07
-1.44547e-05
-2.07143e-06
-1.32386e-05
-2.25487e-06
-1.48047e-05
-4.70726e-06
-1.32038e-05
-1.41337e-06
-1.98444e-05
3.66557e-07
-1.87107e-05
2.80622e-06
-1.98307e-05
6.43686e-06
-2.10897e-05
1.17461e-05
-2.31138e-05
1.398e-05
-2.05609e-05
1.38016e-05
-1.86352e-05
1.22242e-05
-1.74955e-05
1.09419e-05
-1.8008e-05
1.07766e-05
-1.92228e-05
1.08842e-05
-1.96314e-05
1.18114e-05
-2.06596e-05
1.29562e-05
-2.11088e-05
1.43799e-05
-2.18965e-05
1.73939e-05
-2.39052e-05
1.86561e-05
-2.24727e-05
1.92028e-05
-2.27203e-05
2.08929e-05
-2.42362e-05
2.11374e-05
-2.25915e-05
1.79156e-05
-2.02818e-05
1.4292e-05
-2.06258e-05
1.22456e-05
-2.1962e-05
8.93128e-06
-1.93227e-05
4.87635e-06
-1.87263e-05
3.79609e-06
-2.1899e-05
-1.10476e-06
-1.64951e-05
-6.28163e-06
-1.47947e-05
-1.18512e-05
-1.37963e-05
-1.52968e-05
-1.53592e-05
-1.5609e-05
-1.69885e-05
-1.76719e-05
-1.33158e-05
-1.96875e-05
-1.21975e-05
-2.28326e-05
-1.0095e-05
-2.60646e-05
-9.47713e-06
-1.23971e-05
-2.59388e-05
-2.36937e-07
5.72049e-07
-6.98241e-07
8.10999e-07
-1.13158e-06
6.9861e-07
-1.4732e-06
5.02539e-07
-1.71498e-06
3.57357e-07
-1.90677e-06
2.96512e-07
-2.10908e-06
3.17943e-07
-2.31125e-06
3.29277e-07
-2.47555e-06
2.80111e-07
-2.5675e-06
1.61577e-07
-2.58993e-06
1.42285e-08
-2.48336e-06
-1.9125e-07
-2.27829e-06
-4.00201e-07
-1.9837e-06
-6.04158e-07
-1.61271e-06
-8.08316e-07
-1.16014e-06
-1.00255e-06
-6.51528e-07
-1.11275e-06
-9.41136e-08
-1.11416e-06
5.4909e-07
-1.27257e-06
1.12492e-06
-1.24843e-06
1.56869e-06
-9.31528e-07
2.05819e-06
-8.78331e-07
2.3252e-06
-6.16327e-07
2.57097e-06
-3.02133e-07
2.84643e-06
-1.67266e-07
2.76488e-06
3.25998e-07
2.71953e-06
6.07438e-07
2.50432e-06
8.22933e-07
2.00728e-06
1.15303e-06
1.73022e-06
1.12529e-06
1.51836e-06
1.20191e-06
1.1976e-06
1.37084e-06
7.40739e-07
1.39799e-06
2.05604e-07
1.23411e-06
-2.69498e-07
9.15637e-07
-8.53443e-07
7.87176e-07
-1.41546e-06
5.64403e-07
-1.64102e-06
6.33955e-08
-1.30189e-06
-6.98447e-07
-4.88392e-07
-1.36725e-06
3.77829e-07
-1.55137e-06
1.26312e-06
-1.638e-06
2.33326e-06
-1.75955e-06
3.33375e-06
-1.51309e-06
4.03253e-06
-1.08381e-06
4.4951e-06
-8.39967e-07
4.90548e-06
-7.96088e-07
5.11557e-06
-6.96212e-07
5.04894e-06
-5.7222e-07
4.7764e-06
-5.03324e-07
4.3847e-06
-4.94811e-07
3.97312e-06
-5.49061e-07
3.55209e-06
-5.96825e-07
3.00352e-06
-5.23282e-07
2.35948e-06
-4.88934e-07
1.60427e-06
-4.72738e-07
8.34734e-07
-5.22127e-07
1.18867e-07
-6.05119e-07
-4.91039e-07
-7.22895e-07
-9.97539e-07
-8.97176e-07
-1.40063e-06
-1.09949e-06
-1.6917e-06
-1.29587e-06
-1.91017e-06
-1.50227e-06
-2.07286e-06
-1.74032e-06
-2.22829e-06
-1.91787e-06
-2.38831e-06
-2.08915e-06
-2.5733e-06
-2.25808e-06
-2.73346e-06
-2.47628e-06
-2.92523e-06
-2.6272e-06
-3.14094e-06
-2.7812e-06
-3.33848e-06
-2.97632e-06
-3.56841e-06
-3.09304e-06
-3.8332e-06
-3.20378e-06
-4.15602e-06
-3.25716e-06
-4.50134e-06
-3.33091e-06
-4.86508e-06
-3.42632e-06
-5.16524e-06
-3.59677e-06
-5.40678e-06
-3.82613e-06
-5.54976e-06
-4.1358e-06
-5.64642e-06
-4.47036e-06
-5.64105e-06
-4.8535e-06
-5.57894e-06
-5.26735e-06
-5.4173e-06
-5.65285e-06
-5.09937e-06
-6.07341e-06
-4.63824e-06
-6.50237e-06
-3.98166e-06
-6.96847e-06
-3.16606e-06
-7.48998e-06
-2.19125e-06
-7.96331e-06
-1.05104e-06
-8.41189e-06
1.2008e-07
-8.75624e-06
1.32677e-06
-9.00702e-06
2.6083e-06
-9.41767e-06
3.81621e-06
-9.60809e-06
5.18909e-06
-1.02878e-05
6.63963e-06
-1.07906e-05
8.10633e-06
-1.13192e-05
9.39725e-06
-1.1519e-05
1.06631e-05
-1.17133e-05
1.19233e-05
-1.17238e-05
1.31171e-05
-1.20135e-05
1.41811e-05
-1.23716e-05
1.55336e-05
-1.32703e-05
1.7042e-05
-1.3855e-05
1.8552e-05
-1.40847e-05
1.98431e-05
-1.35294e-05
2.03402e-05
-1.26845e-05
2.03928e-05
-1.25094e-05
2.03517e-05
-1.25496e-05
1.95238e-05
-1.25388e-05
1.79709e-05
-1.2444e-05
1.66012e-05
-1.25599e-05
1.52042e-05
-1.29975e-05
1.33676e-05
-1.36001e-05
1.14471e-05
-1.44604e-05
9.9518e-06
-1.56751e-05
9.56429e-06
-1.77592e-05
9.66192e-06
-1.85694e-05
9.10195e-06
-1.70804e-05
7.26618e-06
-1.53166e-05
3.78037e-06
-1.37777e-05
-6.97644e-07
-1.21602e-05
-5.12426e-06
-1.12613e-05
-9.00318e-06
-1.14596e-05
-1.20024e-05
-1.24459e-05
-1.37993e-05
-1.44316e-05
-1.46853e-05
-1.69169e-05
-1.52963e-05
-1.82572e-05
-1.55793e-05
-1.82757e-05
-1.44363e-05
-1.97679e-05
-1.06402e-05
-2.54965e-05
-5.95218e-06
-3.05914e-05
-2.84604e-06
-2.79207e-05
-9.50021e-08
-2.71541e-05
1.73552e-06
-2.49734e-05
1.40884e-06
-2.14637e-05
-9.45326e-09
-2.07087e-05
-2.38191e-07
-2.4515e-05
-1.23905e-06
-2.4258e-05
-1.35007e-06
-2.62068e-05
-1.1512e-06
-2.71653e-05
-7.18492e-08
-2.89347e-05
7.4093e-07
-2.99967e-05
-4.92744e-08
-2.72239e-05
4.81782e-07
-3.02056e-05
-1.17026e-06
-2.75927e-05
3.57741e-06
-4.06686e-05
5.4391e-06
-3.76822e-05
6.33505e-06
-3.86755e-05
9.05848e-06
-4.09301e-05
1.68073e-05
-4.68435e-05
2.24204e-05
-4.30042e-05
2.44989e-05
-3.91971e-05
2.34496e-05
-3.59722e-05
2.18979e-05
-3.62774e-05
2.17135e-05
-3.84703e-05
2.13776e-05
-3.83705e-05
2.19161e-05
-4.01784e-05
2.22272e-05
-4.04895e-05
2.30431e-05
-4.26612e-05
2.60516e-05
-4.73778e-05
2.68045e-05
-4.47239e-05
2.70413e-05
-4.66494e-05
2.81767e-05
-5.05512e-05
2.74096e-05
-4.60905e-05
2.37567e-05
-4.26232e-05
2.02757e-05
-4.55571e-05
1.62747e-05
-4.56059e-05
9.15837e-06
-3.76736e-05
3.27402e-06
-3.85908e-05
3.48791e-06
-4.50469e-05
-2.47212e-06
-3.49029e-05
-1.00787e-05
-2.92436e-05
-1.64629e-05
-2.9687e-05
-1.89863e-05
-3.41817e-05
-1.85891e-05
-3.52596e-05
-2.1756e-05
-2.59542e-05
-2.56594e-05
-2.26728e-05
-3.14362e-05
-1.82661e-05
-3.62001e-05
-1.90441e-05
-2.68053e-05
-3.54941e-05
1.40884e-07
3.18247e-07
8.53775e-08
7.36465e-07
-1.72129e-07
8.23729e-07
-4.26964e-07
6.25665e-07
-5.68655e-07
3.71127e-07
-6.24826e-07
2.30887e-07
-6.40027e-07
2.15995e-07
-6.14101e-07
1.9027e-07
-5.33828e-07
9.05835e-08
-4.03089e-07
-7.55248e-08
-1.86115e-07
-3.06375e-07
1.2477e-07
-6.01789e-07
4.70842e-07
-8.41242e-07
8.82864e-07
-1.10735e-06
1.32718e-06
-1.33304e-06
1.74165e-06
-1.48951e-06
2.16843e-06
-1.61398e-06
2.63147e-06
-1.63497e-06
3.00549e-06
-1.69222e-06
3.3085e-06
-1.5968e-06
3.64553e-06
-1.2834e-06
3.79202e-06
-1.03481e-06
3.72651e-06
-5.74891e-07
3.73081e-06
-2.98687e-07
3.64411e-06
-8.90715e-08
3.52749e-06
4.47494e-07
3.41846e-06
7.84387e-07
3.10265e-06
1.1717e-06
2.8215e-06
1.47942e-06
2.48645e-06
1.5289e-06
2.27455e-06
1.46025e-06
2.2265e-06
1.47238e-06
2.1035e-06
1.59711e-06
1.91338e-06
1.52347e-06
1.4469e-06
1.45826e-06
1.08049e-06
1.22001e-06
9.20357e-07
7.99322e-07
5.63764e-07
4.94049e-07
3.87557e-07
-4.44059e-07
9.7833e-07
-1.87375e-06
1.92352e-06
-2.44043e-06
2.48041e-06
-2.15039e-06
2.71895e-06
-1.92985e-06
2.96538e-06
-1.71589e-06
3.03063e-06
-1.17088e-06
2.72184e-06
-5.91888e-07
2.10325e-06
-2.55788e-07
1.46308e-06
-1.59032e-07
9.18914e-07
-1.65033e-07
3.29664e-07
-8.94806e-08
-3.82012e-07
-1.03645e-09
-1.20525e-06
1.05069e-08
-2.04154e-06
-6.95119e-08
-2.72669e-06
-1.88515e-07
-3.33691e-06
-2.73387e-07
-3.86804e-06
-3.87947e-07
-4.2701e-06
-6.18848e-07
-4.55857e-06
-8.77984e-07
-4.73662e-06
-1.17497e-06
-4.82961e-06
-1.5058e-06
-4.91795e-06
-1.78943e-06
-4.98712e-06
-2.0845e-06
-5.07546e-06
-2.35329e-06
-5.20837e-06
-2.63393e-06
-5.32802e-06
-2.91193e-06
-5.44301e-06
-3.17436e-06
-5.54242e-06
-3.44516e-06
-5.66451e-06
-3.7219e-06
-5.74573e-06
-3.98798e-06
-5.81152e-06
-4.22566e-06
-5.8954e-06
-4.47047e-06
-5.95861e-06
-4.67935e-06
-6.02459e-06
-4.86163e-06
-6.10208e-06
-4.97463e-06
-6.19076e-06
-5.09994e-06
-6.28613e-06
-5.24753e-06
-6.37975e-06
-5.48185e-06
-6.44436e-06
-5.81705e-06
-6.49749e-06
-6.22744e-06
-6.50983e-06
-6.69012e-06
-6.44798e-06
-7.21668e-06
-6.26673e-06
-7.79896e-06
-5.85398e-06
-8.4554e-06
-5.22908e-06
-9.12558e-06
-4.39573e-06
-9.80914e-06
-3.42085e-06
-1.04825e-05
-2.29346e-06
-1.12439e-05
-9.95502e-07
-1.2011e-05
3.24881e-07
-1.26355e-05
1.64676e-06
-1.31612e-05
3.04985e-06
-1.36766e-05
4.52447e-06
-1.43577e-05
5.91425e-06
-1.47107e-05
7.22094e-06
-1.55546e-05
8.40715e-06
-1.60508e-05
9.52477e-06
-1.6631e-05
1.04759e-05
-1.69053e-05
1.13126e-05
-1.73776e-05
1.21518e-05
-1.75918e-05
1.31292e-05
-1.79649e-05
1.40323e-05
-1.82741e-05
1.47604e-05
-1.90606e-05
1.57911e-05
-1.9988e-05
1.71601e-05
-2.0883e-05
1.86625e-05
-2.06182e-05
1.97592e-05
-1.93667e-05
2.01003e-05
-1.917e-05
2.04685e-05
-1.94211e-05
2.08083e-05
-1.89864e-05
2.00769e-05
-1.82226e-05
1.877e-05
-1.79758e-05
1.73472e-05
-1.84581e-05
1.51887e-05
-1.9293e-05
1.25587e-05
-2.05817e-05
1.05295e-05
-2.282e-05
9.66117e-06
-2.58346e-05
8.90671e-06
-2.63858e-05
7.14904e-06
-2.38823e-05
3.71165e-06
-2.0447e-05
-1.05094e-06
-1.77536e-05
-5.68951e-06
-1.65461e-05
-9.4949e-06
-1.64058e-05
-1.2485e-05
-1.71947e-05
-1.43765e-05
-1.91634e-05
-1.52683e-05
-2.23654e-05
-1.57191e-05
-2.53918e-05
-1.55672e-05
-2.69563e-05
-1.46119e-05
-2.76619e-05
-1.32421e-05
-2.95924e-05
-1.07853e-05
-3.65626e-05
-8.34304e-06
-4.21989e-05
-5.28163e-06
-4.02759e-05
-3.88461e-06
-3.88097e-05
-2.63837e-06
-3.67376e-05
-1.10128e-06
-3.40505e-05
-1.16048e-06
-3.20786e-05
-6.66838e-08
-3.75206e-05
-1.3436e-06
-3.52664e-05
-1.34471e-06
-3.865e-05
-6.00834e-07
-4.03986e-05
1.46721e-06
-4.35875e-05
4.38902e-06
-4.63989e-05
5.21158e-06
-4.26055e-05
7.83344e-06
-4.64484e-05
4.53944e-06
-4.04268e-05
9.56916e-06
-5.89838e-05
1.34371e-05
-5.60171e-05
1.23378e-05
-5.47032e-05
1.02055e-05
-5.61704e-05
1.51838e-05
-6.60123e-05
2.12673e-05
-6.26655e-05
2.52696e-05
-5.82753e-05
2.53696e-05
-5.35335e-05
2.36667e-05
-5.2972e-05
2.38409e-05
-5.67307e-05
2.38219e-05
-5.58582e-05
2.51524e-05
-5.80632e-05
2.60171e-05
-5.76368e-05
2.68846e-05
-6.03959e-05
3.07016e-05
-6.6525e-05
3.11799e-05
-6.24772e-05
3.09462e-05
-6.60037e-05
3.29454e-05
-7.39353e-05
3.22751e-05
-6.70892e-05
2.79677e-05
-6.2204e-05
2.40225e-05
-6.76251e-05
1.8188e-05
-6.40659e-05
8.45395e-06
-5.21198e-05
5.42458e-07
-5.34924e-05
2.81184e-06
-6.6694e-05
-9.15524e-07
-5.51778e-05
-1.02209e-05
-4.25955e-05
-1.61725e-05
-4.62257e-05
-1.81273e-05
-5.13451e-05
-1.84516e-05
-4.98334e-05
-2.36013e-05
-3.61673e-05
-2.95136e-05
-3.09835e-05
-3.6027e-05
-2.6585e-05
-3.8321e-05
-3.15384e-05
-4.28492e-05
-3.43087e-05
1.10293e-07
7.28924e-08
3.32539e-07
3.59723e-07
4.22517e-07
5.72974e-07
4.43659e-07
4.4417e-07
4.96876e-07
1.62725e-07
6.14073e-07
-3.73931e-08
8.32577e-07
-1.51662e-07
1.1508e-06
-2.75964e-07
1.57716e-06
-4.8173e-07
2.07247e-06
-7.14264e-07
2.62429e-06
-9.97773e-07
3.16357e-06
-1.27515e-06
3.73609e-06
-1.5375e-06
4.24613e-06
-1.7369e-06
4.71171e-06
-1.92317e-06
5.14989e-06
-2.03105e-06
5.54054e-06
-2.08902e-06
5.87774e-06
-2.05922e-06
5.95845e-06
-1.84635e-06
5.95517e-06
-1.65706e-06
6.00392e-06
-1.39892e-06
5.76043e-06
-8.31443e-07
5.55418e-06
-3.76691e-07
5.18514e-06
5.06382e-08
4.67779e-06
4.05654e-07
4.42839e-06
6.90739e-07
3.94689e-06
1.24097e-06
3.53213e-06
1.62631e-06
3.22044e-06
1.82834e-06
2.7074e-06
2.04476e-06
2.25394e-06
1.97755e-06
1.80375e-06
1.95071e-06
1.6994e-06
1.72821e-06
1.62924e-06
1.63571e-06
1.32447e-06
1.80017e-06
1.25276e-06
1.36313e-06
1.38858e-06
7.41164e-07
1.6048e-06
3.38448e-07
1.69842e-06
-4.8605e-07
1.50943e-06
-1.6076e-06
1.09641e-06
-1.95306e-06
4.34808e-07
-1.45029e-06
-2.6717e-07
-1.20179e-06
-8.75659e-07
-1.09794e-06
-1.35279e-06
-7.12334e-07
-1.7789e-06
-2.08356e-07
-2.25381e-06
1.48078e-07
-2.74896e-06
2.32071e-07
-3.32457e-06
2.74734e-07
-3.93596e-06
3.53378e-07
-4.54785e-06
4.09463e-07
-5.1028e-06
3.29415e-07
-5.54107e-06
9.00076e-08
-5.90231e-06
-1.54716e-07
-6.13068e-06
-4.26612e-07
-6.20536e-06
-7.49755e-07
-6.16537e-06
-1.16013e-06
-6.03929e-06
-1.57796e-06
-5.86783e-06
-1.99145e-06
-5.7009e-06
-2.38951e-06
-5.54138e-06
-2.74025e-06
-5.40759e-06
-3.08305e-06
-5.29022e-06
-3.41197e-06
-5.26061e-06
-3.68606e-06
-5.2678e-06
-4.00679e-06
-5.32414e-06
-4.29675e-06
-5.42337e-06
-4.59929e-06
-5.56971e-06
-4.89689e-06
-5.68515e-06
-5.2567e-06
-5.72731e-06
-5.6308e-06
-5.77433e-06
-5.94228e-06
-5.78091e-06
-6.27486e-06
-5.82405e-06
-6.50746e-06
-5.85841e-06
-6.71082e-06
-5.92115e-06
-6.88361e-06
-5.97532e-06
-7.11491e-06
-6.03783e-06
-7.42333e-06
-6.10092e-06
-7.847e-06
-6.16818e-06
-8.33602e-06
-6.18037e-06
-8.92073e-06
-6.08823e-06
-9.60873e-06
-5.83318e-06
-1.04135e-05
-5.36254e-06
-1.1353e-05
-4.67725e-06
-1.23147e-05
-3.79746e-06
-1.32829e-05
-2.74048e-06
-1.42385e-05
-1.54132e-06
-1.52614e-05
-2.16741e-07
-1.62846e-05
1.27268e-06
-1.72237e-05
2.82262e-06
-1.79877e-05
4.35354e-06
-1.86364e-05
5.89473e-06
-1.94637e-05
7.46567e-06
-1.99064e-05
8.92484e-06
-2.07743e-05
1.01692e-05
-2.11622e-05
1.11139e-05
-2.14927e-05
1.23445e-05
-2.17756e-05
1.36797e-05