/*--------------------------------*- C++ -*----------------------------------*\
| =========                 |                                                 |
| \\      /  F ield         | OpenFOAM: The Open Source CFD Toolbox           |
|  \\    /   O peration     | Version:  dev                                   |
|   \\  /    A nd           | Web:      http://www.openfoam.org               |
|    \\/     M anipulation  |                                                 |
\*---------------------------------------------------------------------------*/
FoamFile
{
    version     2.0;
    format      ascii;
    class       surfaceScalarField;
    object      phi_0;
    location    "9.142";
}
// * * * * * * * * * * * * * * * * * * * * * * * * * * * * * * * * * * * * * //

dimensions      [1 0 -1 0 0 0 0];

internalField   nonuniform List<scalar> 
24170
(
2.03864e-06
4.45993e-07
9.90511e-07
6.85851e-08
4.94227e-07
-4.56301e-07
2.54518e-07
-6.8275e-07
4.93142e-08
-6.84773e-07
6.93002e-08
-8.80713e-07
-1.25657e-07
-6.26001e-07
2.34304e-08
-9.39843e-07
-9.82108e-08
-6.28646e-07
1.34859e-07
-9.47888e-07
2.41463e-07
-7.81152e-07
5.87669e-07
-9.83137e-07
9.79382e-07
-9.86736e-07
2.09014e-06
-1.67025e-06
3.32468e-06
-1.73578e-06
7.55131e-06
-4.70678e-06
1.08602e-05
-3.75293e-06
3.52281e-06
7.00245e-06
3.62078e-06
-4.77242e-07
2.67027e-06
-5.58613e-08
1.91179e-06
-7.4921e-07
1.2946e-06
-1.08677e-06
8.61003e-07
-1.23982e-06
4.56293e-07
-1.43199e-06
1.12984e-07
-1.19854e-06
5.21115e-08
-1.76313e-06
-3.09073e-07
-1.10884e-06
-2.05099e-07
-1.85488e-06
-2.54267e-07
-1.49315e-06
2.65898e-08
-1.9826e-06
6.54387e-07
-2.29243e-06
1.94628e-06
-3.60481e-06
4.26924e-06
-4.63676e-06
7.9583e-06
-8.9521e-06
8.78375e-06
-5.0961e-06
5.12182e-06
6.77643e-06
4.37979e-06
-1.82855e-06
3.9273e-06
-7.86721e-07
3.4469e-06
-1.42657e-06
2.92086e-06
-1.68302e-06
2.40096e-06
-1.80885e-06
1.97506e-06
-2.05617e-06
1.65468e-06
-1.8899e-06
1.54329e-06
-2.62355e-06
1.14478e-06
-1.64205e-06
1.43073e-06
-3.02488e-06
1.11769e-06
-2.02259e-06
1.41235e-06
-3.07041e-06
1.33595e-06
-2.96362e-06
2.60796e-06
-5.57739e-06
3.28024e-06
-5.95273e-06
2.74152e-06
-9.01197e-06
3.04687e-06
-5.94526e-06
7.10486e-06
5.87633e-07
4.84001e-06
-3.27351e-06
4.81502e-06
-2.06137e-06
4.5541e-06
-2.44007e-06
4.31507e-06
-2.67531e-06
3.83396e-06
-2.52369e-06
3.67536e-06
-3.04848e-06
3.12226e-06
-2.44624e-06
3.22307e-06
-3.78896e-06
2.91664e-06
-2.35982e-06
3.22212e-06
-4.29836e-06
3.01725e-06
-2.74241e-06
3.69907e-06
-4.62558e-06
3.16972e-06
-3.25233e-06
3.84103e-06
-7.00601e-06
4.21995e-06
-7.02716e-06
3.50387e-06
-8.96653e-06
1.32822e-06
-4.36296e-06
9.47982e-06
-1.59622e-06
5.06427e-06
-4.7334e-06
5.50988e-06
-3.93218e-06
5.25312e-06
-3.58341e-06
5.22216e-06
-3.99724e-06
4.75743e-06
-3.37169e-06
4.80695e-06
-4.36283e-06
4.19207e-06
-3.04807e-06
3.87556e-06
-4.64043e-06
3.85283e-06
-3.45903e-06
3.86065e-06
-5.36921e-06
4.04496e-06
-3.93667e-06
4.90975e-06
-6.44877e-06
4.51369e-06
-3.75576e-06
4.18145e-06
-7.50366e-06
4.02289e-06
-7.63402e-06
4.09193e-06
-9.76532e-06
5.95591e-07
-1.52601e-06
1.00023e-05
-5.5237e-07
5.47911e-06
-6.13938e-06
5.6917e-06
-5.70446e-06
5.27606e-06
-4.69906e-06
5.11465e-06
-5.32103e-06
4.68311e-06
-4.38001e-06
4.80249e-06
-5.86968e-06
4.31596e-06
-3.89834e-06
3.70909e-06
-5.31219e-06
3.86344e-06
-4.83855e-06
3.30671e-06
-5.97569e-06
2.53978e-06
-4.27052e-06
1.8528e-06
-6.80434e-06
2.86115e-06
-5.74484e-06
2.61941e-06
-8.16594e-06
1.91044e-06
-7.76113e-06
1.9581e-06
-1.06007e-05
1.9504e-06
-2.24374e-06
1.02046e-05
1.06987e-06
6.20696e-06
-7.85004e-06
6.27905e-06
-7.4769e-06
5.5558e-06
-5.64688e-06
5.11708e-06
-6.50097e-06
4.55367e-06
-5.3882e-06
4.51946e-06
-7.34873e-06
4.16391e-06
-5.00808e-06
3.95602e-06
-6.5009e-06
3.78031e-06
-5.99401e-06
3.0504e-06
-6.51273e-06
2.44498e-06
-4.86552e-06
1.27509e-06
-6.7623e-06
1.61385e-06
-7.11871e-06
7.41607e-07
-8.284e-06
2.2697e-07
-8.14034e-06
4.57788e-07
-1.16809e-05
2.26549e-06
-4.79976e-06
7.58956e-06
4.17707e-06
4.83828e-06
-9.02029e-06
4.88538e-06
-8.83699e-06
4.20686e-06
-6.2596e-06
4.08779e-06
-7.62888e-06
3.73031e-06
-6.24251e-06
3.41468e-06
-8.19796e-06
2.89218e-06
-5.61624e-06
3.29428e-06
-7.98063e-06
3.00659e-06
-6.73444e-06
2.61504e-06
-7.09251e-06
2.23473e-06
-5.4083e-06
1.86221e-06
-7.26062e-06
1.36911e-06
-7.43743e-06
9.06154e-07
-8.57715e-06
4.13407e-07
-8.33737e-06
-1.24672e-06
-1.06646e-05
-2.67708e-06
-3.94547e-06
2.74136e-06
1.62485e-06
5.6397e-06
-1.04107e-05
5.49523e-06
-1.02089e-05
5.01944e-06
-7.27311e-06
5.04859e-06
-9.09409e-06
4.60844e-06
-7.19704e-06
4.06972e-06
-8.99976e-06
3.81899e-06
-6.66534e-06
4.16177e-06
-9.56312e-06
3.85586e-06
-7.61548e-06
3.70081e-06
-8.0584e-06
3.33073e-06
-6.10093e-06
3.40838e-06
-8.33513e-06
2.89415e-06
-7.86964e-06
2.69852e-06
-9.24883e-06
1.36735e-06
-7.79141e-06
-1.00293e-06
-9.02735e-06
-1.72829e-06
-3.90785e-06
-2.54324e-06
2.89796e-06
6.58278e-06
-1.20544e-05
6.33561e-06
-1.17061e-05
6.05228e-06
-8.70068e-06
5.93979e-06
-1.06313e-05
5.45503e-06
-8.31187e-06
4.99302e-06
-1.00753e-05
4.93092e-06
-8.09012e-06
4.53863e-06
-1.05909e-05
4.23248e-06
-8.66375e-06
4.11004e-06
-9.2232e-06
4.14661e-06
-7.35735e-06
4.06131e-06
-9.38774e-06
3.49327e-06
-8.37416e-06
3.00345e-06
-9.75389e-06
2.12678e-06
-7.82389e-06
8.8777e-07
-8.62157e-06
1.50121e-06
-5.31093e-06
-5.51167e-06
3.6995e-06
7.72429e-06
-1.39153e-05
7.35071e-06
-1.33223e-05
7.03517e-06
-1.03343e-05
6.67704e-06
-1.21569e-05
6.3488e-06
-9.8016e-06
5.8628e-06
-1.13414e-05
5.63793e-06
-9.55293e-06
4.98337e-06
-1.15494e-05
4.73012e-06
-9.94123e-06
4.47839e-06
-1.04268e-05
4.53069e-06
-8.78855e-06
4.1505e-06
-1.02982e-05
3.84871e-06
-9.27915e-06
3.05363e-06
-1.00862e-05
2.63345e-06
-8.43589e-06
2.12403e-06
-9.06634e-06
2.5527e-06
-6.6181e-06
-6.96409e-06
3.13815e-06
8.96854e-06
-1.63803e-05
8.34972e-06
-1.49543e-05
8.22414e-06
-1.24038e-05
7.61179e-06
-1.36741e-05
7.43739e-06
-1.16714e-05
6.8453e-06
-1.27234e-05
6.65887e-06
-1.12603e-05
5.87681e-06
-1.2582e-05
5.4506e-06
-1.12292e-05
5.05563e-06
-1.16588e-05
5.08975e-06
-1.03605e-05
4.44432e-06
-1.10985e-05
4.08185e-06
-1.02622e-05
3.34772e-06
-1.06162e-05
3.28326e-06
-9.51839e-06
2.66148e-06
-9.51965e-06
3.34386e-06
-8.28795e-06
-8.09878e-06
3.53062e-06
1.07294e-05
-1.87038e-05
9.84863e-06
-1.65828e-05
9.45548e-06
-1.44484e-05
8.69408e-06
-1.52807e-05
8.4379e-06
-1.36837e-05
7.76053e-06
-1.42346e-05
7.45324e-06
-1.30461e-05
6.60688e-06
-1.37399e-05
6.22348e-06
-1.2738e-05
5.62952e-06
-1.28557e-05
5.47314e-06
-1.18882e-05
4.90387e-06
-1.21128e-05
4.64321e-06
-1.14763e-05
4.04918e-06
-1.13985e-05
3.93792e-06
-1.06736e-05
3.58595e-06
-1.03479e-05
3.83672e-06
-9.62771e-06
-9.24424e-06
3.95976e-06
1.25894e-05
-2.19291e-05
1.16822e-05
-1.84188e-05
1.11594e-05
-1.65838e-05
9.99773e-06
-1.66958e-05
9.52556e-06
-1.56758e-05
8.70078e-06
-1.57791e-05
8.35578e-06
-1.4962e-05
7.57851e-06
-1.51239e-05
7.18044e-06
-1.43794e-05
6.52874e-06
-1.41269e-05
6.25718e-06
-1.34197e-05
5.62597e-06
-1.31701e-05
5.32431e-06
-1.27465e-05
4.81873e-06
-1.23562e-05
4.56467e-06
-1.17719e-05
4.27275e-06
-1.1311e-05
4.24709e-06
-1.07647e-05
-1.03218e-05
4.24685e-06
1.4489e-05
-2.44036e-05
1.3279e-05
-2.01053e-05
1.26044e-05
-1.87173e-05
1.16225e-05
-1.84241e-05
1.10398e-05
-1.76798e-05
1.0141e-05
-1.7353e-05
9.54552e-06
-1.67201e-05
8.67053e-06
-1.64893e-05
8.05674e-06
-1.58772e-05
7.3457e-06
-1.53982e-05
6.88432e-06
-1.48115e-05
6.3921e-06
-1.44056e-05
5.93133e-06
-1.38894e-05
5.57527e-06
-1.34866e-05
5.34575e-06
-1.29128e-05
5.13347e-06
-1.23629e-05
5.0343e-06
-1.18357e-05
-1.1324e-05
4.95592e-06
1.67952e-05
-2.6869e-05
1.54447e-05
-2.16514e-05
1.44202e-05
-2.04923e-05
1.32894e-05
-1.99811e-05
1.23796e-05
-1.93269e-05
1.13966e-05
-1.87994e-05
1.06049e-05
-1.82282e-05
9.7599e-06
-1.78158e-05
9.07856e-06
-1.72314e-05
8.44899e-06
-1.66689e-05
8.0049e-06
-1.61332e-05
7.53342e-06
-1.5567e-05
7.14347e-06
-1.50057e-05
6.72637e-06
-1.44536e-05
6.38105e-06
-1.38348e-05
6.11629e-06
-1.32571e-05
5.91964e-06
-1.27075e-05
-1.2131e-05
5.74818e-06
1.89529e-05
-2.8068e-05
1.76398e-05
-2.29273e-05
1.64525e-05
-2.17992e-05
1.5258e-05
-2.1163e-05
1.42014e-05
-2.05124e-05
1.32032e-05
-1.9911e-05
1.23167e-05
-1.93164e-05
1.14209e-05
-1.87602e-05
1.05942e-05
-1.81096e-05
9.84335e-06
-1.74885e-05
9.1372e-06
-1.68643e-05
8.51101e-06
-1.62466e-05
7.92572e-06
-1.56026e-05
7.41515e-06
-1.50077e-05
7.0149e-06
-1.43973e-05
6.72208e-06
-1.38268e-05
6.49273e-06
-1.32507e-05
-1.26971e-05
6.36622e-06
1.90889e-05
-2.84522e-05
1.7928e-05
-2.33457e-05
1.67684e-05
-2.21662e-05
1.55987e-05
-2.14311e-05
1.44815e-05
-2.07231e-05
1.34356e-05
-2.0079e-05
1.24841e-05
-1.94655e-05
1.16122e-05
-1.88815e-05
1.08239e-05
-1.82073e-05
1.0078e-05
-1.75177e-05
9.41928e-06
-1.68758e-05
8.80216e-06
-1.62005e-05
8.29477e-06
-1.55727e-05
7.85491e-06
-1.49625e-05
7.49674e-06
-1.43624e-05
7.21809e-06
-1.38032e-05
7.02655e-06
-1.32553e-05
-1.26606e-05
6.84526e-06
1.74309e-05
-2.71077e-05
1.61051e-05
-2.24663e-05
1.49872e-05
-2.14729e-05
1.39312e-05
-2.07519e-05
1.29223e-05
-2.00172e-05
1.19786e-05
-1.93607e-05
1.11111e-05
-1.87515e-05
1.03096e-05
-1.81594e-05
9.58444e-06
-1.74882e-05
8.95166e-06
-1.68169e-05
8.40008e-06
-1.6191e-05
7.92126e-06
-1.55332e-05
7.4769e-06
-1.48839e-05
7.11351e-06
-1.43149e-05
6.79591e-06
-1.37251e-05
6.51834e-06
-1.31729e-05
6.30899e-06
-1.26727e-05
-1.21074e-05
6.14655e-06
1.58866e-05
-2.48594e-05
1.44198e-05
-2.06152e-05
1.31935e-05
-1.98576e-05
1.21216e-05
-1.92688e-05
1.11847e-05
-1.86203e-05
1.03885e-05
-1.80585e-05
9.6742e-06
-1.7487e-05
9.00355e-06
-1.68906e-05
8.40588e-06
-1.62466e-05
7.89281e-06
-1.56162e-05
7.45491e-06
-1.50362e-05
7.11721e-06
-1.44566e-05
6.81651e-06
-1.38171e-05
6.53325e-06
-1.32522e-05
6.30076e-06
-1.2703e-05
6.07711e-06
-1.21527e-05
5.90214e-06
-1.1708e-05
-1.11909e-05
5.76979e-06
1.37535e-05
-2.26797e-05
1.28019e-05
-1.87191e-05
1.18216e-05
-1.79358e-05
1.09062e-05
-1.74115e-05
1.01039e-05
-1.6841e-05
9.37783e-06
-1.63207e-05
8.68378e-06
-1.57552e-05
8.0583e-06
-1.52036e-05
7.54629e-06
-1.46493e-05
7.09821e-06
-1.40668e-05
6.72474e-06
-1.35528e-05
6.43806e-06
-1.30566e-05
6.1964e-06
-1.24606e-05
5.995e-06
-1.19381e-05
5.85035e-06
-1.1454e-05
5.68451e-06
-1.08966e-05
5.52975e-06
-1.04839e-05
-1.00446e-05
5.4297e-06
1.20487e-05
-1.95506e-05
1.10242e-05
-1.6402e-05
1.01942e-05
-1.58114e-05
9.44979e-06
-1.53928e-05
8.81351e-06
-1.49182e-05
8.17768e-06
-1.43645e-05
7.58684e-06
-1.38246e-05
7.08492e-06
-1.33522e-05
6.6605e-06
-1.28762e-05
6.3216e-06
-1.23824e-05
6.05704e-06
-1.19378e-05
5.79845e-06
-1.14571e-05
5.61925e-06
-1.09569e-05
5.46967e-06
-1.04747e-05
5.34323e-06
-1.00397e-05
5.28511e-06
-9.58317e-06
5.21737e-06
-9.18705e-06
-8.78419e-06
5.14766e-06
1.10319e-05
-1.69387e-05
1.02047e-05
-1.4108e-05
9.40438e-06
-1.35289e-05
8.68316e-06
-1.32025e-05
8.04033e-06
-1.28289e-05
7.46955e-06
-1.23309e-05
6.97977e-06
-1.1845e-05
6.53874e-06
-1.14187e-05
6.17609e-06
-1.10293e-05
5.87177e-06
-1.06009e-05
5.62305e-06
-1.02168e-05
5.40037e-06
-9.78234e-06
5.23459e-06
-9.36272e-06
5.10544e-06
-8.94132e-06
4.98556e-06
-8.55223e-06
4.90955e-06
-8.17867e-06
4.85058e-06
-7.8335e-06
-7.47946e-06
4.79447e-06
9.66522e-06
-1.40488e-05
8.96816e-06
-1.18866e-05
8.3844e-06
-1.14225e-05
7.78763e-06
-1.10731e-05
7.2274e-06
-1.07451e-05
6.74498e-06
-1.03429e-05
6.3373e-06
-9.92162e-06
5.98091e-06
-9.53838e-06
5.67225e-06
-9.2007e-06
5.41617e-06
-8.83262e-06
5.14353e-06
-8.44804e-06
4.92865e-06
-8.09627e-06
4.78254e-06
-7.77204e-06
4.6629e-06
-7.41216e-06
4.59666e-06
-7.11276e-06
4.5672e-06
-6.8146e-06
4.54034e-06
-6.51417e-06
-6.21976e-06
4.53037e-06
8.5351e-06
-1.13818e-05
8.0478e-06
-9.88756e-06
7.61717e-06
-9.49498e-06
7.12898e-06
-9.08998e-06
6.61773e-06
-8.72516e-06
6.11294e-06
-8.33986e-06
5.67868e-06
-8.00248e-06
5.34355e-06
-7.71265e-06
5.05414e-06
-7.42219e-06
4.80306e-06
-7.11055e-06
4.58886e-06
-6.78087e-06
4.44024e-06
-6.51791e-06
4.31029e-06
-6.24193e-06
4.24079e-06
-5.97657e-06
4.19642e-06
-5.73685e-06
4.17659e-06
-5.50453e-06
4.17224e-06
-5.26152e-06
-5.01305e-06
4.1712e-06
7.68995e-06
-8.79376e-06
7.20758e-06
-7.96202e-06
6.80455e-06
-7.6584e-06
6.40225e-06
-7.26649e-06
6.0087e-06
-6.90791e-06
5.6318e-06
-6.53748e-06
5.30265e-06
-6.25487e-06
5.02288e-06
-6.01862e-06
4.77877e-06
-5.76796e-06
4.56818e-06
-5.50859e-06
4.39187e-06
-5.23405e-06
4.27308e-06
-5.04845e-06
4.14668e-06
-4.79466e-06
4.03701e-06
-4.57826e-06
3.94948e-06
-4.39344e-06
3.88223e-06
-4.22258e-06
3.82967e-06
-4.03446e-06
-3.82967e-06
3.7807e-06
7.05162e-06
-6.57982e-06
6.66341e-06
-6.23373e-06
6.24007e-06
-5.90051e-06
5.82866e-06
-5.52927e-06
5.41882e-06
-5.17471e-06
5.03708e-06
-4.83412e-06
4.69522e-06
-4.59437e-06
4.37621e-06
-4.38748e-06
4.10905e-06
-4.19778e-06
3.85917e-06
-3.96972e-06
3.67682e-06
-3.78262e-06
3.47669e-06
-3.60119e-06
3.33052e-06
-3.42739e-06
3.22521e-06
-3.283e-06
3.1424e-06
-3.15348e-06
3.0441e-06
-3.0024e-06
2.95585e-06
-2.86213e-06
-2.71705e-06
2.88976e-06
6.36548e-06
-4.69113e-06
6.01508e-06
-4.65148e-06
5.53961e-06
-4.2011e-06
5.00221e-06
-3.77871e-06
4.44322e-06
-3.40469e-06
3.90847e-06
-3.09066e-06
3.41031e-06
-2.8909e-06
2.95827e-06
-2.73565e-06
2.53154e-06
-2.58004e-06
2.18042e-06
-2.44034e-06
1.88971e-06
-2.33055e-06
1.64434e-06
-2.21546e-06
1.44563e-06
-2.11259e-06
1.2775e-06
-2.02644e-06
1.12723e-06
-1.94505e-06
1.00721e-06
-1.85709e-06
9.18775e-07
-1.78273e-06
-1.69116e-06
8.48517e-07
5.62258e-06
-3.01212e-06
4.79682e-06
-2.7141e-06
3.81309e-06
-2.11029e-06
2.86101e-06
-1.72795e-06
2.02359e-06
-1.46993e-06
1.33122e-06
-1.30254e-06
7.35755e-07
-1.20218e-06
2.43615e-07
-1.15499e-06
-1.5433e-07
-1.10159e-06
-4.73749e-07
-1.0521e-06
-7.37225e-07
-1.0138e-06
-9.45616e-07
-9.73133e-07
-1.11319e-06
-9.33585e-07
-1.255e-06
-8.98761e-07
-1.37236e-06
-8.69853e-07
-1.45987e-06
-8.41931e-07
-1.51038e-06
-8.36024e-07
-8.06853e-07
-1.53215e-06
3.56594e-06
1.7624e-06
5.70066e-07
-2.36051e-07
-7.78595e-07
-1.15141e-06
-1.42413e-06
-1.65278e-06
-1.83404e-06
-1.97494e-06
-2.08987e-06
-2.17953e-06
-2.24784e-06
-2.30209e-06
-2.35037e-06
-2.39541e-06
-2.46041e-06
-2.52197e-06
-4.62607e-07
2.7416e-07
-9.61933e-07
2.99505e-07
-1.37633e-06
2.14365e-07
-1.68393e-06
1.08613e-07
-1.94446e-06
6.32119e-08
-2.1893e-06
4.97391e-08
-2.43498e-06
5.43993e-08
-2.68013e-06
5.8425e-08
-2.90078e-06
3.9788e-08
-3.0627e-06
-1.27162e-08
-3.12859e-06
-1.0206e-07
-3.10738e-06
-1.824e-07
-2.96258e-06
-2.98894e-07
-2.69013e-06
-4.19552e-07
-2.27556e-06
-5.54786e-07
-1.73435e-06
-6.7218e-07
-1.12781e-06
-7.29585e-07
-5.53331e-07
-6.90631e-07
1.08744e-07
-7.69671e-07
8.42899e-07
-8.338e-07
1.39784e-06
-6.43857e-07
1.88205e-06
-5.61021e-07
2.34036e-06
-5.23444e-07
2.51348e-06
-2.25166e-07
2.58144e-06
-1.11071e-07
2.51327e-06
3.44285e-08
2.13501e-06
3.51082e-07
1.75934e-06
3.5476e-07
1.31246e-06
4.4093e-07
6.90935e-07
6.30112e-07
-3.45105e-08
7.42573e-07
-8.01065e-07
7.92408e-07
-1.47455e-06
7.00813e-07
-1.90307e-06
4.54648e-07
-2.06909e-06
1.95432e-07
-1.98713e-06
-4.97358e-08
-1.73312e-06
-2.17656e-07
-1.32592e-06
-3.69074e-07
-7.32345e-07
-5.57359e-07
3.47916e-08
-7.37709e-07
9.34068e-07
-8.81243e-07
1.86895e-06
-9.38058e-07
2.68209e-06
-8.43271e-07
3.23053e-06
-5.90848e-07
3.60022e-06
-4.16964e-07
3.98304e-06
-4.54119e-07
4.35487e-06
-4.93185e-07
4.66389e-06
-4.81485e-07
4.9177e-06
-4.57308e-07
5.19492e-06
-5.00193e-07
5.55888e-06
-6.07447e-07
5.98366e-06
-6.95803e-07
6.4198e-06
-7.4491e-07
6.81763e-06
-7.54719e-07
7.14428e-06
-7.37706e-07
7.42276e-06
-7.46688e-07
7.624e-06
-7.29166e-07
7.71758e-06
-6.81291e-07
7.68711e-06
-6.14824e-07
7.59306e-06
-6.08333e-07
7.45818e-06
-6.2597e-07
7.25689e-06
-6.22391e-07
7.03029e-06
-6.64127e-07
6.82007e-06
-7.49193e-07
6.60944e-06
-8.18197e-07
6.39944e-06
-8.87835e-07
6.20732e-06
-9.74207e-07
6.01851e-06
-1.04586e-06
5.81574e-06
-1.09925e-06
5.6095e-06
-1.16223e-06
5.3961e-06
-1.22019e-06
5.14832e-06
-1.24883e-06
4.8642e-06
-1.27333e-06
4.51323e-06
-1.26498e-06
4.08859e-06
-1.24794e-06
3.61637e-06
-1.25679e-06
3.09853e-06
-1.26606e-06
2.59917e-06
-1.33964e-06
2.14542e-06
-1.44077e-06
1.79316e-06
-1.60098e-06
1.51686e-06
-1.73943e-06
1.38159e-06
-1.94991e-06
1.31588e-06
-2.09255e-06
1.30071e-06
-2.22038e-06
1.36684e-06
-2.38272e-06
1.51054e-06
-2.54174e-06
1.82679e-06
-2.79682e-06
2.26338e-06
-2.99946e-06
2.77599e-06
-3.16208e-06
3.37651e-06
-3.34322e-06
3.96127e-06
-3.41998e-06
4.63814e-06
-3.60274e-06
5.31002e-06
-3.68778e-06
6.31466e-06
-4.08858e-06
7.46651e-06
-4.34015e-06
8.71376e-06
-4.56172e-06
9.93349e-06
-4.64769e-06
1.09803e-05
-4.60744e-06
1.17102e-05
-4.48238e-06
1.24039e-05
-4.63173e-06
1.32149e-05
-4.88781e-06
1.42989e-05
-5.28902e-06
1.52773e-05
-5.3683e-06
1.59401e-05
-5.21004e-06
1.61053e-05
-4.84094e-06
1.57433e-05
-4.49594e-06
1.50834e-05
-4.38615e-06
1.42922e-05
-4.41775e-06
1.34848e-05
-4.45118e-06
1.28024e-05
-4.54307e-06
1.2103e-05
-4.69877e-06
1.11137e-05
-4.76281e-06
9.90631e-06
-4.85545e-06
8.76536e-06
-5.18089e-06
7.92729e-06
-5.65837e-06
7.87824e-06
-6.59976e-06
8.14653e-06
-6.99987e-06
7.59106e-06
-6.2379e-06
6.527e-06
-5.79931e-06
5.83068e-06
-6.17256e-06
4.78757e-06
-5.84551e-06
2.76775e-06
-4.89715e-06
2.51133e-07
-4.5083e-06
-2.27242e-06
-4.69432e-06
-4.38263e-06
-5.32755e-06
-5.62393e-06
-6.47959e-06
-6.14718e-06
-7.51229e-06
-6.65999e-06
-7.72984e-06
-6.73943e-06
-8.27684e-06
-3.90784e-06
-1.12357e-05
1.66407e-06
-1.43412e-05
5.2016e-06
-1.29157e-05
7.78016e-06
-1.22946e-05
7.89611e-06
-1.03484e-05
6.16043e-06
-8.7664e-06
4.71028e-06
-9.17512e-06
4.73585e-06
-1.1017e-05
4.86215e-06
-1.14888e-05
5.36871e-06
-1.22883e-05
5.38686e-06
-1.23507e-05
5.45224e-06
-1.29618e-05
5.61649e-06
-1.33491e-05
4.57945e-06
-1.25017e-05
4.28804e-06
-1.39072e-05
2.12418e-06
-1.27914e-05
5.00546e-06
-1.87983e-05
6.47426e-06
-1.79297e-05
8.75121e-06
-1.93302e-05
1.20842e-05
-2.06793e-05
1.63089e-05
-2.21626e-05
1.77705e-05
-2.00572e-05
1.72276e-05
-1.86264e-05
1.56008e-05
-1.79233e-05
1.42883e-05
-1.86383e-05
1.38271e-05
-1.98139e-05
1.36604e-05
-2.04973e-05
1.41765e-05
-2.16326e-05
1.49243e-05
-2.23246e-05
1.58409e-05
-2.31954e-05
1.78553e-05
-2.4829e-05
1.83981e-05
-2.3718e-05
1.82088e-05
-2.38935e-05
1.88066e-05
-2.485e-05
1.80949e-05
-2.32782e-05
1.42144e-05
-2.10902e-05
1.00488e-05
-2.11614e-05
7.54694e-06
-2.23103e-05
4.20042e-06
-2.00498e-05
-4.62588e-08
-1.93514e-05
-1.67461e-06
-2.18925e-05
-6.56332e-06
-1.69174e-05
-1.13531e-05
-1.57124e-05
-1.67398e-05
-1.46305e-05
-2.02908e-05
-1.60885e-05
-2.06095e-05
-1.79528e-05
-2.20974e-05
-1.48673e-05
-2.34888e-05
-1.38481e-05
-2.58753e-05
-1.18847e-05
-2.86482e-05
-1.09868e-05
-1.35088e-05
-2.85378e-05
-1.75756e-07
2.62885e-07
-5.77755e-07
4.96712e-07
-9.53241e-07
3.84271e-07
-1.23341e-06
1.83117e-07
-1.42105e-06
4.77351e-08
-1.56446e-06
-6.25412e-09
-1.71742e-06
1.30359e-08
-1.87182e-06
2.48308e-08
-1.99218e-06
-2.0974e-08
-2.01769e-06
-1.62603e-07
-1.98646e-06
-3.0385e-07
-1.82274e-06
-5.11157e-07
-1.55804e-06
-7.21435e-07
-1.20547e-06
-9.23705e-07
-7.77664e-07
-1.12896e-06
-2.68295e-07
-1.3242e-06
3.06409e-07
-1.43656e-06
9.34463e-07
-1.44037e-06
1.65141e-06
-1.59877e-06
2.27939e-06
-1.56705e-06
2.78007e-06
-1.25124e-06
3.3335e-06
-1.19811e-06
3.65768e-06
-9.29135e-07
3.9692e-06
-6.17172e-07
4.31159e-06
-4.71045e-07
4.29141e-06
2.7217e-08
4.31554e-06
3.00558e-07
4.16818e-06
5.19252e-07
3.7406e-06
8.42404e-07
3.5467e-06
8.06404e-07
3.41345e-06
8.95695e-07
3.14602e-06
1.06806e-06
2.7552e-06
1.09564e-06
2.30172e-06
9.3747e-07
1.90119e-06
6.32212e-07
1.36024e-06
5.17985e-07
8.66224e-07
3.04962e-07
7.34775e-07
-2.00281e-07
1.18668e-06
-9.62463e-07
2.09986e-06
-1.60799e-06
3.02246e-06
-1.76783e-06
3.98172e-06
-1.85326e-06
5.127e-06
-1.96609e-06
6.1657e-06
-1.69968e-06
6.89376e-06
-1.26361e-06
7.42192e-06
-1.01106e-06
7.91578e-06
-9.49763e-07
8.16047e-06
-8.31914e-07
8.08073e-06
-7.06586e-07
7.79497e-06
-6.33521e-07
7.4091e-06
-6.04708e-07
7.01811e-06
-6.26793e-07
6.6253e-06
-6.41181e-07
6.10038e-06
-5.39064e-07
5.47209e-06
-4.87571e-07
4.71041e-06
-4.36928e-07
3.9358e-06
-4.71383e-07
3.20954e-06
-5.37731e-07
2.58281e-06
-6.3375e-07
2.05171e-06
-7.81482e-07
1.61749e-06
-9.54457e-07
1.28653e-06
-1.11601e-06
1.01979e-06
-1.28778e-06
8.09196e-07
-1.49638e-06
6.02152e-07
-1.63808e-06
3.85661e-07
-1.76881e-06
1.34409e-07
-1.89242e-06
-8.26281e-08
-2.07094e-06
-3.13275e-07
-2.18328e-06
-5.76745e-07
-2.28489e-06
-8.22792e-07
-2.42991e-06
-1.09872e-06
-2.49785e-06
-1.40536e-06
-2.55943e-06
-1.76467e-06
-2.56337e-06
-2.14129e-06
-2.58705e-06
-2.53322e-06
-2.63117e-06
-2.85816e-06
-2.74948e-06
-3.12348e-06
-2.92494e-06
-3.28501e-06
-3.17798e-06
-3.39656e-06
-3.44997e-06
-3.40337e-06
-3.7637e-06
-3.35763e-06
-4.10174e-06
-3.22179e-06
-4.40639e-06
-2.94175e-06
-4.74516e-06
-2.53769e-06
-5.09224e-06
-1.95994e-06
-5.47945e-06
-1.24994e-06
-5.91875e-06
-4.05192e-07
-6.31379e-06
5.89496e-07
-6.69118e-06
1.59529e-06
-6.96634e-06
2.61484e-06
-7.15087e-06
3.68551e-06
-7.48577e-06
4.67658e-06
-7.62112e-06
5.81872e-06
-8.21604e-06
7.03728e-06
-8.63051e-06
8.26581e-06
-9.05323e-06
9.32214e-06
-9.15061e-06
1.03509e-05
-9.23459e-06
1.13552e-05
-9.17127e-06
1.22839e-05
-9.385e-06
1.31016e-05
-9.67381e-06
1.42197e-05
-1.04591e-05
1.54723e-05
-1.08674e-05
1.66917e-05
-1.0886e-05
1.76554e-05
-1.02071e-05
1.78934e-05
-9.35207e-06
1.7809e-05
-9.14384e-06
1.76286e-05
-9.08763e-06
1.67109e-05
-8.97125e-06
1.52377e-05
-8.84424e-06
1.40095e-05
-8.93014e-06
1.28217e-05
-9.27157e-06
1.13614e-05
-9.78381e-06
9.95887e-06
-1.06036e-05
9.0254e-06
-1.17632e-05
9.09355e-06
-1.36865e-05
9.57436e-06
-1.44302e-05
9.4567e-06
-1.31264e-05
8.15695e-06
-1.16718e-05
5.2935e-06
-1.04452e-05
1.49932e-06
-9.05338e-06
-2.24036e-06
-8.27676e-06
-5.49532e-06
-8.5559e-06
-7.99909e-06
-9.57661e-06
-9.38618e-06
-1.15364e-05
-9.88254e-06
-1.40102e-05
-1.01595e-05
-1.54851e-05
-1.02117e-05
-1.57436e-05
-8.95346e-06
-1.73346e-05
-5.12226e-06
-2.27768e-05
-2.13769e-07
-2.77534e-05
2.85566e-06
-2.52171e-05
5.77768e-06
-2.47555e-05
7.73636e-06
-2.26952e-05
7.46594e-06
-1.94778e-05
6.31232e-06
-1.90953e-05
6.13158e-06
-2.24302e-05
5.37743e-06
-2.25566e-05
5.38048e-06
-2.43232e-05
5.61554e-06
-2.52841e-05
6.50757e-06
-2.70494e-05
6.94708e-06
-2.79091e-05
6.14087e-06
-2.58002e-05
6.42483e-06
-2.8466e-05
5.22376e-06
-2.70441e-05
9.28071e-06
-3.87389e-05
1.06109e-05
-3.62929e-05
1.14832e-05
-3.81081e-05
1.4447e-05
-4.08196e-05
2.13498e-05
-4.55337e-05
2.58718e-05
-4.22093e-05
2.71278e-05
-3.92823e-05
2.58007e-05
-3.70439e-05
2.42159e-05
-3.79004e-05
2.37044e-05
-3.99454e-05
2.3091e-05
-4.04213e-05
2.31709e-05
-4.2474e-05
2.3116e-05
-4.34031e-05
2.34752e-05
-4.58542e-05
2.54657e-05
-4.9996e-05
2.55989e-05
-4.81025e-05
2.5147e-05
-4.99104e-05
2.51408e-05
-5.24312e-05
2.35738e-05
-4.8251e-05
1.93486e-05
-4.51408e-05
1.52871e-05
-4.72457e-05
1.11246e-05
-4.70261e-05
4.41168e-06
-3.9936e-05
-1.29705e-06
-4.0707e-05
-1.65894e-06
-4.55297e-05
-7.82375e-06
-3.5847e-05
-1.47443e-05
-3.16536e-05
-2.10031e-05
-3.17186e-05
-2.37159e-05
-3.60815e-05
-2.31672e-05
-3.77564e-05
-2.55088e-05
-2.95251e-05
-2.84914e-05
-2.64507e-05
-3.33429e-05
-2.21645e-05
-3.78401e-05
-2.21354e-05
-2.91012e-05
-3.75129e-05
2.00078e-07
-1.18249e-07
1.9839e-07
2.97543e-07
-6.05946e-09
3.80707e-07
-2.10266e-07
1.78781e-07
-2.97441e-07
-7.13853e-08
-2.95963e-07
-2.12818e-07
-2.58316e-07
-2.26861e-07
-1.78638e-07
-2.53894e-07
-3.94993e-08
-3.55746e-07
1.31899e-07
-5.26167e-07
4.00516e-07
-7.61088e-07
7.65844e-07
-1.06047e-06
1.16722e-06
-1.30239e-06
1.63989e-06
-1.57237e-06
2.14626e-06
-1.7986e-06
2.62275e-06
-1.95833e-06
3.10873e-06
-2.08522e-06
3.63419e-06
-2.10689e-06
4.07548e-06
-2.1696e-06
4.4438e-06
-2.06594e-06
4.8464e-06
-1.74567e-06
5.05308e-06
-1.4969e-06
5.04986e-06
-1.0365e-06
5.1272e-06
-7.66678e-07
5.09861e-06
-5.40957e-07
5.05152e-06
9.60284e-10
5.01978e-06
3.46143e-07
4.76943e-06
7.35978e-07
4.56243e-06
1.03639e-06
4.31346e-06
1.08214e-06
4.18287e-06
1.01356e-06
4.19846e-06
1.03995e-06
4.14783e-06
1.17597e-06
4.04033e-06
1.11266e-06
3.64561e-06
1.05765e-06
3.34648e-06
8.16667e-07
3.24385e-06
4.14982e-07
2.95325e-06
1.19625e-07
2.88884e-06
-8.31296e-07
3.60119e-06
-2.24541e-06
4.61057e-06
-2.76281e-06
5.20523e-06
-2.44692e-06
5.50934e-06
-2.21774e-06
5.8263e-06
-1.98794e-06
5.93271e-06
-1.42341e-06
5.65454e-06
-8.25284e-07
5.07826e-06
-4.76615e-07
4.48545e-06
-3.65218e-07
3.9817e-06
-3.55398e-07
3.41117e-06
-2.44191e-07
2.71315e-06
-1.25629e-07
1.91042e-06
-8.45627e-08
1.09817e-06
-1.34273e-07
4.28535e-07
-2.22155e-07
-1.79789e-07
-2.82071e-07
-6.87766e-07
-3.81868e-07
-1.08752e-06
-5.74643e-07
-1.38825e-06
-7.94773e-07
-1.58761e-06
-1.05184e-06
-1.70823e-06
-1.34191e-06
-1.8297e-06
-1.57928e-06
-1.93907e-06
-1.82267e-06
-2.07319e-06
-2.04102e-06
-2.25492e-06
-2.27137e-06
-2.42484e-06
-2.49611e-06
-2.59161e-06
-2.7009e-06
-2.73998e-06
-2.91155e-06
-2.91473e-06
-3.12793e-06
-3.05585e-06
-3.33243e-06
-3.17809e-06
-3.50381e-06
-3.31285e-06
-3.68269e-06
-3.42427e-06
-3.82456e-06
-3.5345e-06
-3.93907e-06
-3.65242e-06
-3.98538e-06
-3.77855e-06
-4.04378e-06
-3.90853e-06
-4.12228e-06
-4.03315e-06
-4.28405e-06
-4.12234e-06
-4.54206e-06
-4.19342e-06
-4.869e-06
-4.21875e-06
-5.24269e-06
-4.172e-06
-5.67289e-06
-4.01293e-06
-6.15377e-06
-3.6335e-06
-6.70329e-06
-3.05653e-06
-7.26343e-06
-2.29057e-06
-7.83273e-06
-1.40675e-06
-8.38984e-06
-3.92212e-07
-9.03445e-06
7.7472e-07
-9.68281e-06
1.93968e-06
-1.01829e-05
3.08848e-06
-1.05897e-05
4.29963e-06
-1.09895e-05
5.56061e-06
-1.15358e-05
6.71614e-06
-1.17765e-05
7.78958e-06
-1.24786e-05
8.7521e-06
-1.28471e-05
9.63859e-06
-1.32973e-05
1.03245e-05
-1.3437e-05
1.08949e-05
-1.37643e-05
1.15116e-05
-1.38711e-05
1.22699e-05
-1.41416e-05
1.29441e-05
-1.43662e-05
1.34849e-05
-1.50632e-05
1.43271e-05
-1.58185e-05
1.54582e-05
-1.64152e-05
1.66895e-05
-1.58921e-05
1.75062e-05
-1.45832e-05
1.76807e-05
-1.43067e-05
1.79674e-05
-1.43937e-05
1.81714e-05
-1.38395e-05
1.73736e-05
-1.30515e-05
1.6147e-05
-1.28241e-05
1.48819e-05
-1.32339e-05
1.30262e-05
-1.39364e-05
1.0902e-05
-1.51512e-05
9.48726e-06
-1.72999e-05
9.16216e-06
-2.01302e-05
8.89861e-06
-2.06659e-05
7.6666e-06
-1.84348e-05
4.82286e-06
-1.54437e-05
7.22768e-07
-1.31162e-05
-3.24987e-06
-1.21098e-05
-6.47277e-06
-1.21281e-05
-8.99824e-06
-1.30462e-05
-1.0534e-05
-1.50594e-05
-1.10691e-05
-1.82787e-05
-1.11847e-05
-2.13994e-05
-1.08598e-05
-2.3151e-05
-9.76438e-06
-2.41648e-05
-8.20261e-06
-2.63247e-05
-5.43759e-06
-3.30588e-05
-2.7045e-06
-3.85231e-05
5.20346e-07
-3.67105e-05
2.24569e-06
-3.56435e-05
3.79342e-06
-3.37948e-05
5.23691e-06
-3.12139e-05
5.37857e-06
-2.98774e-05
6.3054e-06
-3.459e-05
5.14019e-06
-3.30904e-05
5.13254e-06
-3.61183e-05
5.73002e-06
-3.78911e-05
7.71164e-06
-4.11017e-05
1.02979e-05
-4.3779e-05
1.09653e-05
-4.08535e-05
1.2965e-05
-4.41086e-05
1.01748e-05
-4.01963e-05
1.48196e-05
-5.69524e-05
1.77183e-05
-5.42887e-05
1.6213e-05
-5.44909e-05
1.47343e-05
-5.71882e-05
1.98297e-05
-6.54152e-05
2.53335e-05
-6.2198e-05
2.84645e-05
-5.89467e-05
2.7973e-05
-5.55889e-05
2.61925e-05
-5.60971e-05
2.59889e-05
-5.94567e-05
2.56755e-05
-5.92454e-05
2.65539e-05
-6.17636e-05
2.69918e-05
-6.22276e-05
2.72944e-05
-6.53624e-05
2.99893e-05
-7.10641e-05
2.98334e-05
-6.85204e-05
2.90639e-05
-7.21342e-05
2.98211e-05
-7.80531e-05
2.82158e-05
-7.1551e-05
2.32987e-05
-6.71337e-05
1.8925e-05
-7.1347e-05
1.31795e-05
-6.74899e-05
3.90835e-06
-5.66523e-05
-3.56419e-06
-5.764e-05
-2.11913e-06
-6.75401e-05
-6.72669e-06
-5.71163e-05
-1.50774e-05
-4.71919e-05
-2.10263e-05
-4.98719e-05
-2.30099e-05
-5.50174e-05
-2.28144e-05
-5.42407e-05
-2.70187e-05
-4.19597e-05
-3.19436e-05
-3.69966e-05
-3.78784e-05
-3.24102e-05
-4.06225e-05
-3.59232e-05
-4.6622e-05
-3.70774e-05
1.71276e-07
-4.71634e-07
4.5276e-07
-1.83418e-07
5.97198e-07
2.81191e-08
6.71997e-07
-1.07376e-07
7.82532e-07
-3.90594e-07
9.53491e-07
-5.90659e-07
1.22407e-06
-7.05209e-07
1.59261e-06
-8.31532e-07
2.06883e-06
-1.04059e-06
2.61144e-06
-1.27617e-06
3.21095e-06
-1.56437e-06
3.80058e-06
-1.84837e-06
4.42743e-06
-2.11659e-06
4.99352e-06
-2.32268e-06
5.51951e-06
-2.51568e-06
6.02205e-06
-2.62738e-06
6.47743e-06
-2.68805e-06
6.87394e-06
-2.65585e-06
7.01483e-06
-2.44705e-06
7.08251e-06
-2.26127e-06
7.19622e-06
-1.99201e-06
7.01771e-06
-1.41657e-06
6.8836e-06
-9.66877e-07
6.57509e-06
-5.41317e-07
6.14619e-06
-1.81773e-07
5.96696e-06
1.06749e-07
5.54306e-06
6.73659e-07
5.21944e-06
1.05711e-06
4.9747e-06
1.26431e-06
4.52377e-06
1.48045e-06
4.16352e-06
1.42294e-06
3.81198e-06
1.40191e-06
3.79631e-06
1.17899e-06
3.78908e-06
1.11307e-06
3.55791e-06
1.29142e-06
3.58654e-06
8.58918e-07
3.8047e-06
2.59651e-07
4.08028e-06
-1.40524e-07
4.22838e-06
-9.52544e-07
4.12298e-06
-2.0576e-06
3.79062e-06
-2.37505e-06
3.18376e-06
-1.85464e-06
2.52141e-06
-1.55933e-06
1.99249e-06
-1.4462e-06
1.58499e-06
-1.03492e-06
1.21429e-06
-5.11309e-07
7.83025e-07
-1.27259e-07
3.2939e-07
-1.89428e-08
-2.25662e-07
6.23726e-08
-7.9729e-07
1.56708e-07
-1.37223e-06
2.42718e-07
-1.89922e-06
1.98931e-07
-2.32259e-06
5.54852e-09
-2.66111e-06
-2.15289e-07
-2.87484e-06
-4.45418e-07
-2.95679e-06
-7.28839e-07
-2.92489e-06
-1.09553e-06
-2.80961e-06
-1.46324e-06
-2.6559e-06
-1.82322e-06
-2.5167e-06
-2.1644e-06
-2.39099e-06
-2.45592e-06
-2.30049e-06
-2.73529e-06
-2.23584e-06
-2.99784e-06
-2.25739e-06
-3.20855e-06
-2.31607e-06
-3.46319e-06
-2.42512e-06
-3.68473e-06
-2.57955e-06
-3.91183e-06
-2.78457e-06
-4.1325e-06
-2.95936e-06
-4.41655e-06
-3.05782e-06
-4.7109e-06
-3.16309e-06
-4.93503e-06
-3.21779e-06
-5.18433e-06
-3.30277e-06
-5.32631e-06
-3.37701e-06
-5.44188e-06
-3.47697e-06
-5.52758e-06
-3.56386e-06
-5.66976e-06
-3.65298e-06
-5.88408e-06
-3.73534e-06
-6.20882e-06
-3.8174e-06
-6.5931e-06
-3.84329e-06
-7.06898e-06
-3.76699e-06
-7.64012e-06
-3.53272e-06
-8.31951e-06
-3.08994e-06
-9.12452e-06
-2.44501e-06
-9.94103e-06
-1.62562e-06
-1.07532e-05
-6.56112e-07
-1.15435e-05
4.2707e-07
-1.23995e-05
1.61362e-06
-1.32598e-05
2.94851e-06
-1.4035e-05
4.32049e-06
-1.46339e-05
5.65872e-06
-1.51365e-05
7.00495e-06
-1.58081e-05
8.35913e-06
-1.61168e-05
9.58841e-06
-1.68231e-05
1.05915e-05
-1.70648e-05
1.13408e-05
-1.72881e-05
1.23297e-05
-1.74405e-05
1.32996e-05
-1.78022e-05