/*--------------------------------*- C++ -*----------------------------------*\
| =========                 |                                                 |
| \\      /  F ield         | OpenFOAM: The Open Source CFD Toolbox           |
|  \\    /   O peration     | Version:  dev                                   |
|   \\  /    A nd           | Web:      http://www.openfoam.org               |
|    \\/     M anipulation  |                                                 |
\*---------------------------------------------------------------------------*/
FoamFile
{
    version     2.0;
    format      ascii;
    class       volScalarField;
    object      pMean;
    location    "9.142";
}
// * * * * * * * * * * * * * * * * * * * * * * * * * * * * * * * * * * * * * //

dimensions      [1 -1 -2 0 0 0 0];

internalField   nonuniform List<scalar> 
12225
(
98311.9
98292.1
98278.3
98271.3
98257.1
98247.6
98229.2
98219.6
98198.1
98189.3
98164.7
98157.8
98126.8
98120.5
98079.7
98040
97950.8
97584.7
98307.4
98291
98277.8
98270.8
98256.5
98247.1
98228.5
98219.1
98197.4
98188.9
98163.9
98157.3
98126.4
98118.6
98078
98044
97951.7
97790.6
98303.6
98289.4
98276.8
98269.4
98255
98245.6
98227
98217.7
98196
98187.5
98163.1
98155.2
98127
98115.2
98080.3
98045
97977.6
97888.7
98298.5
98286.5
98274.7
98267
98252.6
98242.9
98224.9
98215
98194.2
98184.8
98161.7
98152.1
98125.9
98113
98081.2
98053.4
98004.9
97936
98291.9
98282.1
98271.1
98263
98249.1
98238.8
98221.9
98210.9
98191.8
98180.5
98160.2
98147.6
98126.1
98109.8
98083.1
98058.9
98019
97986.3
98283.6
98276
98265.2
98256.9
98243.4
98232.8
98216.8
98205.1
98187.4
98175.2
98157
98143.4
98125
98108.1
98086.7
98061.4
98039.2
98018.8
98273.4
98267
98256.7
98248.2
98235.6
98224.4
98209.7
98197.1
98181.3
98167.8
98152.4
98137.4
98122.8
98105.2
98090.9
98069.9
98059.6
98044.7
98262.7
98257
98247.3
98238.6
98226.9
98215.4
98201.8
98188.6
98174.6
98160.3
98147.1
98131.5
98119.9
98102.6
98093.9
98076.1
98074.3
98059.4
98251.8
98246.4
98237.5
98228.6
98217.8
98206
98193.5
98180
98167.4
98152.7
98141.3
98125.8
98116.1
98100.1
98093.8
98079.6
98079.3
98067.4
98238.2
98232.7
98225
98216
98206.1
98194.3
98182.8
98169.3
98158
98143.4
98133.5
98118.5
98110.4
98096
98091
98079.2
98078.4
98070.2
98221.3
98215.8
98209.2
98200.4
98191.3
98179.8
98169.1
98156.1
98145.6
98132
98122.6
98109.5
98101.4
98089.9
98084.3
98075.7
98073.1
98067.9
98200.7
98195
98189.7
98181.3
98172.9
98161.9
98152
98139.7
98130.1
98117.5
98108.9
98097.4
98089.8
98080.5
98074.8
98068.4
98064.8
98061.2
98175.9
98170.6
98166.1
98158.6
98150.6
98140.6
98131.2
98120.3
98111.1
98100.4
98092
98082.7
98075.4
98068.2
98062.8
98057.9
98054.3
98051.6
98147.7
98142.9
98138.9
98132.3
98125.1
98116.2
98107.5
98098
98089.5
98080.5
98072.8
98065.2
98058.8
98053.1
98048.4
98044.6
98041.7
98039.6
98117.6
98113.8
98110
98104.6
98098.1
98090.5
98082.7
98074.6
98067
98059.6
98052.8
98046.7
98041.4
98036.9
98033.2
98030.2
98028
98026.5
98089.8
98087.1
98083.7
98079.2
98073.6
98067.1
98060.3
98053.4
98046.8
98040.7
98035
98030.1
98025.8
98022.2
98019.3
98017.2
98015.6
98014.7
98071.2
98069.3
98066.5
98062.6
98057.7
98052
98046
98040.1
98034.4
98029.2
98024.4
98020.2
98016.7
98013.7
98011.5
98009.8
98008.6
98008
98071.5
98069.8
98067.3
98063.5
98058.8
98053.5
98047.9
98042.3
98037
98032
98027.6
98023.6
98020.2
98017.4
98015.2
98013.5
98012.3
98011.6
98091.2
98089.4
98086.5
98082.6
98077.6
98072.1
98066.3
98060.5
98054.9
98049.7
98044.9
98040.6
98036.9
98033.7
98031
98028.9
98027.2
98026
98122
98119.9
98116.4
98111.9
98106.5
98100.5
98094.1
98087.8
98081.6
98075.8
98070.4
98065.5
98061.1
98057.2
98053.8
98051
98048.6
98046.7
98156.8
98154.3
98150.2
98145
98138.9
98132.3
98125.3
98118.3
98111.5
98104.9
98098.8
98093.2
98088
98083.4
98079.3
98075.7
98072.5
98069.8
98190.7
98187.7
98182.9
98177
98170.3
98163.1
98155.5
98147.9
98140.4
98133.2
98126.4
98120
98114.2
98108.8
98104
98099.7
98095.8
98092.4
98221
98217.3
98211.8
98205.3
98198
98190.3
98182.2
98174.1
98166.1
98158.3
98150.9
98143.9
98137.5
98131.5
98126
98121.1
98116.6
98112.6
98246.3
98241.9
98235.6
98228.5
98220.8
98212.7
98204.3
98195.8
98187.4
98179.1
98171.2
98163.8
98156.8
98150.3
98144.3
98138.9
98133.9
98129.4
98266.5
98261.3
98254.2
98246.5
98238.5
98230.2
98221.5
98212.7
98204
98195.4
98187.1
98179.3
98171.9
98165
98158.7
98152.8
98147.5
98142.5
98282.2
98275.9
98267.8
98259.6
98251.5
98243
98234.2
98225.2
98216.2
98207.4
98198.9
98190.8
98183.1
98176
98169.3
98163.2
98157.5
98152.3
98294
98286.2
98277.1
98268.6
98260.3
98251.8
98242.9
98233.9
98224.7
98215.8
98207.1
98198.8
98191
98183.6
98176.8
98170.4
98164.6
98159.2
98302.7
98292.9
98282.8
98274.2
98265.9
98257.4
98248.5
98239.4
98230.2
98221.2
98212.4
98204
98196
98188.6
98181.6
98175.1
98169.1
98163.6
98308.8
98296.7
98285.6
98276.9
98268.9
98260.5
98251.7
98242.6
98233.4
98224.3
98215.4
98207
98198.9
98191.4
98184.3
98177.8
98171.7
98166.1
98314.7
98299.2
98287.1
98278.3
98270.1
98261.8
98253
98243.9
98234.7
98225.6
98216.7
98208.2
98200.1
98192.6
98185.5
98178.9
98172.9
98167.2
98311.7
98311.4
98310.6
98309.4
98307.9
98306.1
98303.9
98301.3
98298.2
98294.8
98290.9
98286.7
98282
98277.1
98271.9
98266.4
98260.7
98254.8
98248.7
98242.4
98236
98229.4
98222.7
98215.9
98209
98202
98195
98188
98180.9
98173.8
98166.7
98159.6
98152.6
98145.6
98138.8
98132
98125.4
98118.9
98112.6
98106.4
98100.5
98094.8
98089.4
98084.3
98079.4
98075
98070.8
98067.1
98063.8
98061
98058.6
98056.7
98055.3
98054.5
98054.2
98054.5
98055.5
98057.1
98059.4
98062.4
98066
98070.4
98075.5
98081.3
98087.9
98095.1
98103.1
98111.7
98121.1
98131
98141.6
98152.8
98164.6
98176.9
98189.6
98202.9
98216.5
98230.5
98244.8
98259.4
98274.2
98289.2
98304.4
98319.6
98334.9
98350.1
98365.3
98380.4
98395.3
98410
98424.5
98438.6
98452.4
98465.7
98478.6
98491.1
98503
98514.3
98525
98535.2
98544.7
98553.5
98561.8
98569.3
98576.3
98582.6
98588.3
98593.4
98598.1
98602.1
98605.8
98609
98611.8
98614.3
98616.5
98618.4
98620
98621.5
98622.7
98623.8
98624.9
98625.9
98627.1
98628.4
98630
98632
98634.7
98638.1
98642.5
98648.1
98655.2
98663.9
98674.7
98687.5
98702.9
98720.9
98741.8
98765.5
98792.3
98822.1
98855.2
98891.1
98929.9
98971.4
99015.7
99062.3
99111.3
99162
99214.6
99268.7
99324.2
99380.6
99437.6
99494.9
99552.1
99608.7
99664
99717.8
99768.7
99816.5
99860
99898.3
99930.3
99955.3
99972
99979.5
99976.8
99963.8
99939.7
99905
99859.5
99804.8
99740.8
99670.1
99593.1
99512.6
99428.1
99343.4
99256.7
99173.5
98304.8
98304.4
98303.6
98302.5
98300.9
98299.1
98296.8
98294.2
98291.2
98287.8
98284
98279.9
98275.4
98270.6
98265.5
98260.2
98254.7
98249
98243
98236.9
98230.7
98224.3
98217.8
98211.2
98204.4
98197.6
98190.8
98183.9
98176.9
98170
98163
98156.1
98149.2
98142.5
98135.7
98129.1
98122.6
98116.3
98110.1
98104.1
98098.3
98092.7
98087.4
98082.3
98077.6
98073.2
98069.1
98065.5
98062.2
98059.4
98057
98055.1
98053.7
98052.8
98052.5
98052.8
98053.7
98055.3
98057.5
98060.4
98063.9
98068.2
98073.2
98078.9
98085.3
98092.4
98100.2
98108.7
98117.9
98127.6
98138.1
98149.1
98160.6
98172.7
98185.2
98198.2
98211.7
98225.4
98239.5
98253.8
98268.4
98283.2
98298.1
98313.1
98328.1
98343
98358
98372.7
98387.4
98401.8
98415.9
98429.8
98443.2
98456.3
98468.9
98481.1
98492.7
98503.8
98514.3
98524.1
98533.4
98542.1
98550.1
98557.4
98564.2
98570.4
98575.9
98580.9
98585.4
98589.4
98593
98596.1
98598.8
98601.3
98603.4
98605.2
98606.8
98608.2
98609.3
98610.4
98611.4
98612.3
98613.4
98614.5
98616
98617.8
98620.2
98623.4
98627.5
98632.8
98639.5
98647.7
98658
98670.3
98685
98702.4
98722.5
98745.5
98771.5
98800.4
98832.4
98867.3
98905.1
98945.6
98988.8
99034.2
99082
99131.5
99182.9
99235.9
99290.2
99345.5
99401.4
99457.6
99513.8
99569.4
99623.8
99676.8
99727
99774.2
99817.3
99855.3
99887.2
99912.3
99929.4
99937.4
99935.6
99923.6
99900.9
99867.6
99823.8
99770.8
99708.6
99639.7
99564.5
99485.7
99402.8
99319.6
99233.9
99148.9
98292.1
98291.7
98290.9
98289.7
98288.1
98286.2
98283.9
98281.2
98278.2
98274.8
98271.1
98267.1
98262.7
98258.1
98253.3
98248.2
98243
98237.6
98232
98226.3
98220.4
98214.4
98208.3
98202.1
98195.7
98189.2
98182.7
98176.1
98169.5
98162.8
98156.1
98149.5
98142.9
98136.3
98129.9
98123.5
98117.2
98111.1
98105.2
98099.4
98093.8
98088.4
98083.2
98078.3
98073.7
98069.4
98065.5
98061.9
98058.7
98055.9
98053.5
98051.6
98050.2
98049.3
98048.9
98049.1
98049.9
98051.3
98053.4
98056.1
98059.5
98063.6
98068.3
98073.8
98079.9
98086.7
98094.3
98102.4
98111.3
98120.7
98130.8
98141.4
98152.6
98164.3
98176.5
98189.1
98202
98215.4
98229
98242.9
98257
98271.3
98285.7
98300.2
98314.7
98329.1
98343.5
98357.8
98371.9
98385.7
98399.3
98412.6
98425.5
98438
98450.1
98461.7
98472.8
98483.3
98493.3
98502.7
98511.5
98519.7
98527.3
98534.3
98540.8
98546.6
98551.9
98556.6
98560.9
98564.7
98568
98571
98573.6
98575.9
98577.9
98579.5
98581
98582.2
98583.3
98584.2
98585
98585.7
98586.5
98587.4
98588.4
98589.9
98591.8
98594.4
98597.9
98602.4
98608.3
98615.7
98624.9
98636.1
98649.6
98665.6
98684.2
98705.6
98729.9
98757
98787.2
98820
98855.7
98894
98935
98978.1
99023.5
99070.7
99119.8
99170.4
99222.4
99275.3
99329
99383.1
99437.1
99490.7
99543.2
99594.4
99643.1
99688.9
99730.8
99768.1
99799.5
99824.5
99841.9
99850.8
99850.2
99840.1
99819.6
99789.1
99748.3
99698.7
99640.1
99574.9
99503.2
99428
99348.5
99268.5
99185.6
99101.8
98274.6
98274.3
98273.5
98272.3
98270.7
98268.7
98266.4
98263.7
98260.7
98257.4
98253.8
98249.9
98245.8
98241.4
98236.8
98232.1
98227.2
98222.2
98217.1
98211.8
98206.4
98200.8
98195.1
98189.4
98183.5
98177.5
98171.4
98165.3
98159.2
98153
98146.8
98140.6
98134.4
98128.2
98122.2
98116.1
98110.2
98104.4
98098.8
98093.3
98087.9
98082.7
98077.8
98073.1
98068.7
98064.5
98060.7
98057.2
98054.1
98051.4
98049
98047.1
98045.6
98044.6
98044.2
98044.2
98044.9
98046.2
98048
98050.5
98053.6
98057.4
98061.8
98066.9
98072.7
98079.1
98086.2
98094
98102.4
98111.4
98120.9
98131.1
98141.7
98152.9
98164.5
98176.5
98188.9
98201.6
98214.6
98227.8
98241.3
98254.9
98268.6
98282.4
98296.1
98309.9
98323.5
98337
98350.4
98363.5
98376.3
98388.9
98401
98412.8
98424.1
98434.9
98445.2
98455
98464.3
98473.1
98481.2
98488.8
98495.9
98502.4
98508.3
98513.7
98518.5
98522.9
98526.8
98530.3
98533.4
98536.1
98538.5
98540.6
98542.4
98543.9
98545.2
98546.2
98547
98547.7
98548.2
98548.6
98549
98549.4
98550
98550.9
98552.1
98553.9
98556.4
98560
98564.7
98570.8
98578.5
98588.2
98600
98614
98630.6
98649.8
98671.8
98696.4
98723.9
98754
98786.7
98822.1
98860
98900
98942.2
98986.3
99032.1
99079.6
99128.4
99178.2
99228.8
99280
99331.1
99381.9
99431.9
99480.6
99527.2
99571.1
99611.4
99647.4
99677.9
99702.6
99720.3
99729.9
99730.7
99722.6
99704.9
99677.7
99640.8
99595.4
99541.4
99481.1
99414.3
99343.9
99269.1
99193.6
99114.9
99034.8
98253.4
98253.2
98252.4
98251.3
98249.7
98247.8
98245.6
98242.9
98240
98236.8
98233.3
98229.6
98225.7
98221.6
98217.3
98212.9
98208.4
98203.7
98199
98194.2
98189.2
98184.2
98179
98173.8
98168.4
98163
98157.5
98151.9
98146.4
98140.7
98135.1
98129.5
98123.8
98118.2
98112.6
98107.1
98101.7
98096.3
98091.1
98085.9
98080.9
98076.1
98071.4
98067
98062.8
98058.8
98055.2
98051.8
98048.8
98046.1
98043.8
98041.9
98040.4
98039.3
98038.7
98038.7
98039.2
98040.2
98041.8
98044
98046.8
98050.2
98054.2
98058.8
98064.1
98070.1
98076.7
98083.8
98091.7
98100
98109
98118.5
98128.5
98138.9
98149.8
98161.1
98172.7
98184.6
98196.8
98209.2
98221.8
98234.6
98247.4
98260.3
98273.1
98286
98298.7
98311.3
98323.7
98335.9
98347.8
98359.4
98370.6
98381.4
98391.8
98401.7
98411.2
98420.1
98428.5
98436.4
98443.8
98450.6
98457
98462.8
98468.1
98472.9
98477.3
98481.2
98484.6
98487.7
98490.5
98492.9
98495
98496.8
98498.4
98499.6
98500.6
98501.4
98501.9
98502.3
98502.4
98502.4
98502.3
98502.2
98502.1
98502.2
98502.6
98503.4
98504.9
98507.1
98510.4
98514.9
98521
98528.7
98538.3
98550.1
98564.2
98580.8
98599.9
98621.5
98645.8
98672.5
98701.8
98733.5
98767.7
98804.1
98842.4
98882.7
98924.7
98968.4
99013.4
99059.5
99106.4
99154.1
99201.7
99249.1
99296
99341.7
99385.6
99427.2
99465.4
99499.8
99529.2
99553.2
99570.9
99581.1
99583.4
99577.4
99562.7
99539.2
99506.8
99466.3
99417.8
99363.1
99302.1
99237.6
99168.6
99098.8
99025.5
98950.9
98230
98229.8
98229.1
98228.1
98226.7
98224.9
98222.7
98220.3
98217.5
98214.5
98211.2
98207.7
98204
98200.2
98196.2
98192.1
98187.9
98183.6
98179.3
98174.9
98170.4
98165.8
98161.1
98156.4
98151.6
98146.7
98141.8
98136.9
98131.9
98126.9
98121.8
98116.8
98111.8
98106.7
98101.7
98096.8
98091.9
98087.1
98082.3
98077.6
98073.1
98068.6
98064.3
98060.2
98056.3
98052.6
98049.1
98045.9
98043
98040.5
98038.2
98036.3
98034.7
98033.6
98032.9
98032.7
98032.9
98033.7
98035
98036.9
98039.3
98042.3
98045.8
98050
98054.7
98060.1
98066
98072.6
98079.7
98087.4
98095.6
98104.4
98113.6
98123.2
98133.2
98143.6
98154.4
98165.4
98176.6
98188.1
98199.7
98211.4
98223.2
98235.1
98246.9
98258.6
98270.3
98281.8
98293.2
98304.3
98315.1
98325.6
98335.7
98345.5
98354.8
98363.7
98372.1
98380.1
98387.5
98394.5
98401
98407
98412.6
98417.6
98422.2
98426.4
98430.1
98433.5
98436.5
98439.1
98441.4
98443.5
98445.2
98446.7
98447.9
98448.8
98449.5
98449.9
98450
98450
98449.7
98449.2
98448.5
98447.7
98447
98446.2
98445.6
98445.3
98445.4
98446.2
98447.9
98450.7
98454.7
98460.3
98467.5
98476.8
98488.1
98501.7
98517.5
98535.8
98556.5
98579.6
98605
98632.7
98662.8
98695.1
98729.2
98765.3
98803.2
98842.6
98883.5
98925.4
98968.3
99011.9
99055.6
99099.4
99142.7
99185.1
99225.9
99264.8
99300.7
99333
99360.9
99384.1
99401.4
99412.1
99415.6
99411.9
99400.1
99380.6
99352.7
99317.5
99274.6
99226.1
99171.4
99113.7
99051.2
98987.9
98921
98853
98205.5
98205.4
98204.9
98203.9
98202.7
98201
98199.1
98196.9
98194.3
98191.5
98188.5
98185.3
98181.9
98178.3
98174.7
98170.9
98167
98163.1
98159.2
98155.1
98151
98146.9
98142.7
98138.4
98134.2
98129.8
98125.5
98121.1
98116.7
98112.3
98107.8
98103.4
98098.9
98094.5
98090.1
98085.7
98081.4
98077.1
98072.8
98068.6
98064.5
98060.5
98056.6
98052.8
98049.2
98045.8
98042.6
98039.6
98036.8
98034.3
98032.1
98030.2
98028.7
98027.5
98026.7
98026.3
98026.3
98026.8
98027.8
98029.3
98031.3
98033.8
98036.9
98040.5
98044.6
98049.4
98054.7
98060.5
98066.9
98073.8
98081.2
98089.1
98097.4
98106.2
98115.3
98124.7
98134.5
98144.5
98154.7
98165.1
98175.6
98186.3
98196.9
98207.6
98218.3
98228.9
98239.4
98249.7
98259.8
98269.8
98279.4
98288.7
98297.7
98306.3
98314.5
98322.3
98329.6
98336.5
98343
98349
98354.6
98359.7
98364.3
98368.6
98372.4
98375.9
98378.9
98381.7
98384.1
98386.2
98388.1
98389.6
98390.9
98392
98392.8
98393.3
98393.5
98393.5
98393.3
98392.8
98391.9
98390.9
98389.6
98388.1
98386.4
98384.7
98383.1
98381.5
98380.3
98379.5
98379.5
98380.4
98382.3
98385.5
98390.2
98396.7
98405.1
98415.5
98428
98442.7
98459.6
98478.8
98500.3
98523.9
98549.6
98577.5
98607.3
98639.1
98672.5
98707.5
98744
98781.7
98820.2
98859.6
98899.2
98939.2
98978.7
99017.4
99054.8
99090.6
99123.8
99153.9
99179.9
99201.8
99218.5
99229.4
99234
99232.2
99223.3
99207.5
99184
99154.1
99117
99074.9
99026.8
98976.1
98920.5
98864.3
98804.4
98743.6
98181.4
98181.3
98180.9
98180.1
98179
98177.6
98175.9
98173.9
98171.6
98169.1
98166.4
98163.5
98160.4
98157.2
98153.9
98150.4
98146.9
98143.4
98139.7
98136.1
98132.4
98128.6
98124.9
98121.1
98117.3
98113.5
98109.6
98105.8
98101.9
98098
98094.1
98090.2
98086.3
98082.4
98078.5
98074.7
98070.9
98067.1
98063.3
98059.5
98055.8
98052.2
98048.7
98045.2
98041.9
98038.8
98035.8
98033
98030.4
98028
98025.8
98023.9
98022.4
98021.1
98020.2
98019.6
98019.4
98019.7
98020.3
98021.5
98023
98025.1
98027.7
98030.7
98034.3
98038.3
98043
98048.1
98053.7
98059.8
98066.3
98073.3
98080.8
98088.6
98096.7
98105.2
98113.9
98122.8
98132
98141.3
98150.7
98160.1
98169.6
98179.1
98188.6
98198
98207.2
98216.3
98225.2
98233.8
98242.2
98250.3
98258.1
98265.5
98272.5
98279.1
98285.3
98291.1
98296.5
98301.5
98306.1
98310.3
98314.1
98317.5
98320.6
98323.3
98325.6
98327.7
98329.5
98331.1
98332.4
98333.5
98334.3
98334.8
98335.1
98335.2
98335
98334.5
98333.7
98332.7
98331.3
98329.6
98327.6
98325.3
98322.7
98319.9
98317.2
98314.3
98311.7
98309.3
98307.5
98306.4
98306.1
98307
98309.1
98312.8
98318.2
98325.4
98334.5
98345.6
98358.7
98374
98391.5
98411
98432.4
98455.9
98481.3
98508.7
98537.8
98568.3
98600.4
98633.7
98667.9
98703
98738.5
98774.5
98810.1
98845
98878.8
98911.2
98941.4
98969
98992.7
99012.9
99028.7
99039.5
99044.8
99044.7
99038.2
99025.7
99006.3
98981.4
98949.9
98914
98872.7
98828.9
98780.5
98731.6
98678.9
98625.8
98158.5
98158.5
98158.2
98157.6
98156.6
98155.5
98154
98152.3
98150.3
98148.1
98145.7
98143.1
98140.4
98137.5
98134.5
98131.5
98128.3
98125.1
98121.8
98118.6
98115.2
98111.9
98108.6
98105.2
98101.9
98098.5
98095.1
98091.7
98088.3
98084.9
98081.4
98078
98074.6
98071.2
98067.8
98064.4
98061
98057.6
98054.3
98050.9
98047.6
98044.3
98041.1
98037.9
98034.9
98031.9
98029.1
98026.5
98024
98021.7
98019.6
98017.7
98016.1
98014.7
98013.7
98012.9
98012.5
98012.5
98012.9
98013.6
98014.8
98016.4
98018.5
98021
98024
98027.4
98031.3
98035.7
98040.6
98045.9
98051.6
98057.7
98064.2
98071.1
98078.3
98085.7
98093.4
98101.3
98109.3
98117.5
98125.8
98134.1
98142.4
98150.7
98158.9
98167
98175
98182.8
98190.4
98197.8
98205
98211.8
98218.3
98224.5
98230.3
98235.8
98240.8
98245.5
98249.8
98253.8
98257.4
98260.6
98263.6
98266.1
98268.4
98270.3
98271.9
98273.3
98274.5
98275.5
98276.2
98276.7
98277
98277
98276.7
98276.2
98275.5
98274.5
98273.1
98271.5
98269.4
98267
98264.2
98261
98257.5
98253.7
98249.7
98245.6
98241.6
98237.7
98234.1
98231.1
98228.6
98227.1
98226.7
98227.7
98230.1
98234.2
98239.9
98247.5
98257
98268.5
98282
98297.5
98314.8
98334.1
98355.2
98378.4
98403.2
98429.4
98457.2
98486.2
98516.1
98547
98578.4
98610.4
98642
98673
98703.2
98732
98758.9
98783.7
98805
98823.2
98837.5
98847.7
98853.3
98854.3
98849.7
98840
98824.3
98803.8
98777.5
98747.5
98712.7
98675.9
98634.4
98592.9
98547.5
98502.3
98137.8
98137.9
98137.7
98137.2
98136.5
98135.5
98134.3
98132.9
98131.2
98129.3
98127.3
98125
98122.7
98120.1
98117.5
98114.8
98112
98109.2
98106.3
98103.4
98100.5
98097.5
98094.6
98091.6
98088.7
98085.7
98082.7
98079.7
98076.7
98073.6
98070.6
98067.6
98064.5
98061.5
98058.5
98055.5
98052.4
98049.4
98046.3
98043.3
98040.3
98037.3
98034.3
98031.4
98028.5
98025.7
98023.1
98020.5
98018.1
98015.9
98013.8
98011.9
98010.2
98008.7
98007.5
98006.6
98006
98005.7
98005.8
98006.2
98007
98008.2
98009.8
98011.8
98014.2
98017.1
98020.3
98024
98028.2
98032.7
98037.6
98042.9
98048.5
98054.5
98060.7
98067.2
98073.9
98080.7
98087.7
98094.8
98101.9
98109.1
98116.2
98123.3
98130.4
98137.3
98144
98150.6
98157
98163.1
98169
98174.6
98179.9
98184.8
98189.4
98193.7
98197.6
98201.2
98204.5
98207.4
98209.9
98212.2
98214.2
98215.9
98217.4
98218.5
98219.4
98220.1
98220.6
98220.9
98221
98220.9
98220.5
98220
98219.2
98218.1
98216.7
98215.1
98213
98210.7
98207.9
98204.8
98201.2
98197.1
98192.6
98187.7
98182.6
98177.3
98171.9
98166.5
98161.2
98156.3
98151.8
98148.1
98145.3
98143.6
98143.3
98144.3
98146.8
98151.1
98157.2
98165.1
98174.9
98186.6
98200.1
98215.4
98232.5
98251.7
98272.4
98294.6
98318.2
98343
98368.9
98395.7
98423.2
98451
98478.6
98505.9
98532.3
98557.5
98581.1
98602.8
98621.5
98637.3
98649.7
98658.9
98664
98665.5
98662.2
98654.7
98642.1
98625.6
98603.8
98579.4
98550.7
98520.2
98485.5
98451.2
98412.9
98375.5
98120
98120.2
98120
98119.6
98119.1
98118.3
98117.3
98116.2
98114.8
98113.2
98111.5
98109.6
98107.6
98105.5
98103.2
98100.9
98098.5
98096
98093.5
98091
98088.5
98085.9
98083.3
98080.7
98078.1
98075.5
98072.8
98070.2
98067.5
98064.8
98062.1
98059.4
98056.7
98053.9
98051.2
98048.4
98045.7
98042.9
98040.1
98037.2
98034.4
98031.6
98028.7
98026
98023.2
98020.6
98018
98015.5
98013.1
98010.8
98008.7
98006.8
98005
98003.4
98002.1
98001
98000.2
97999.6
97999.4
97999.5
98000
98000.8
98002
98003.5
98005.4
98007.7
98010.4
98013.5
98016.9
98020.7
98024.9
98029.4
98034.2
98039.3
98044.7
98050.2
98056
98061.8
98067.8
98073.9
98079.9
98086
98092.1
98098
98103.9
98109.6
98115.2
98120.6
98125.8
98130.7
98135.3
98139.7
98143.8
98147.6
98151.1
98154.2
98157
98159.5
98161.6
98163.5
98165.1
98166.4
98167.5
98168.3
98168.9
98169.2
98169.3
98169.3
98169.1
98168.6
98168
98167.2
98166.2
98165
98163.6
98161.9
98159.8
98157.5
98154.7
98151.6
98148.1
98144.1
98139.6
98134.7
98129.3
98123.4
98117.2
98110.7
98104
98097.2
98090.3
98083.7
98077.4
98071.7
98066.7
98062.5
98059.6
98057.8
98057.4
98058.7
98061.5
98066.2
98072.5
98080.8
98090.8
98102.6
98116.1
98131.5
98148.5
98167
98186.7
98207.7
98229.7
98252.6
98276.2
98300.1
98323.8
98347.4
98369.9
98391.3
98411.5
98429.9
98445.8
98458.9
98469.1
98476.5
98480.6
98481.8
98479.2
98473.3
98463.1
98449.9
98432.2
98412.7
98389.5
98364.9
98336.4
98308.9
98277.6
98247.6
98105.3
98105.5
98105.5
98105.2
98104.8
98104.2
98103.5
98102.6
98101.5
98100.2
98098.8
98097.3
98095.6
98093.9
98092
98090.1
98088.1
98086
98083.9
98081.8
98079.6
98077.4
98075.2
98072.9
98070.7
98068.3
98066
98063.6
98061.2
98058.8
98056.3
98053.8
98051.3
98048.8
98046.2
98043.7
98041.1
98038.4
98035.7
98033
98030.3
98027.5
98024.8
98022.1
98019.4
98016.8
98014.2
98011.7
98009.3
98007
98004.8
98002.7
98000.8
97999.1
97997.6
97996.4
97995.4
97994.6
97994.1
97994
97994.1
97994.6
97995.4
97996.5
97998
97999.8
98001.9
98004.5
98007.3
98010.5
98014
98017.8
98021.9
98026.2
98030.7
98035.4
98040.3
98045.3
98050.3
98055.4
98060.5
98065.6
98070.6
98075.5
98080.3
98084.9
98089.4
98093.7
98097.7
98101.5
98105
98108.2
98111.2
98113.8
98116.1
98118.2
98119.9
98121.3
98122.4
98123.3
98123.8
98124.2
98124.3
98124.2
98123.9
98123.4
98122.7
98121.9
98120.9
98119.7
98118.3
98116.8
98115.1
98113.1
98111
98108.5
98105.8
98102.7
98099.2
98095.3
98091
98086.2
98080.8
98075
98068.7
98061.8
98054.6
98047
98039.1
98031
98022.8
98014.7
98006.7
97999.1
97992.1
97985.8
97980.5
97976.3
97973.3
97971.9
97971.9
97973.6
97976.9
97982.1
97989
97997.6
98008
98020.1
98033.7
98048.9
98065.1
98082.6
98101
98120.2
98140.2
98160.3
98180.3
98200.1
98218.8
98236.5
98253
98267.9
98280.7
98290.9
98298.5
98303.7
98306.1
98306.3
98303.7
98298.8
98290.5
98279.9
98265.7
98250.3
98231.7
98212.5
98189.8
98168.6
98143.6
98120.8
98093.9
98094.1
98094.2
98094
98093.7
98093.3
98092.8
98092.1
98091.3
98090.4
98089.3
98088.1
98086.8
98085.4
98084
98082.4
98080.8
98079.2
98077.5
98075.7
98073.9
98072.1
98070.2
98068.3
98066.3
98064.3
98062.2
98060.1
98057.9
98055.6
98053.4
98051
98048.7
98046.3
98043.8
98041.3
98038.8
98036.2
98033.5
98030.8
98028.1
98025.4
98022.7
98019.9
98017.2
98014.6
98011.9
98009.3
98006.8
98004.4
98002.1
97999.9
97997.9
97996.1
97994.4
97993
97991.8
97990.8
97990.1
97989.7
97989.6
97989.7
97990.2
97991
97992.1
97993.5
97995.2
97997.2
97999.6
98002.2
98005.1
98008.3
98011.7
98015.4
98019.2
98023.2
98027.3
98031.4
98035.6
98039.9
98044.1
98048.3
98052.3
98056.3
98060.1
98063.7
98067.1
98070.4
98073.3
98076
98078.4
98080.6
98082.5
98084
98085.3
98086.3
98086.9
98087.3
98087.4
98087.2
98086.8
98086.2
98085.4
98084.4
98083.2
98081.9
98080.3
98078.7
98076.8
98074.8
98072.6
98070.3
98067.8
98065.1
98062.2
98058.9
98055.4
98051.5
98047.2
98042.5
98037.4
98031.7
98025.6
98018.9
98011.7
98004
97995.8
97987.2
97978.3
97969.1
97959.6
97950.1
97940.7
97931.6
97922.8
97914.6
97907.3
97900.9
97895.7
97891.9
97889.5
97888.7
97889.5
97892.1
97896.2
97902.1
97909.6
97918.8
97929.4
97941.5
97954.6
97968.9
97984
97999.9
98016.4
98033
98049.4
98065.6
98080.5
98094.4
98107.1
98118.3
98127.9
98135
98139.7
98142.6
98142.8
98141.4
98138.1
98133.4
98126.2
98117.6
98106.3
98094.2
98079.5
98065.1
98047.5
98032.1
98012.9
97996.9
98085.5
98085.7
98085.8
98085.8
98085.7
98085.5
98085.1
98084.7
98084.2
98083.5
98082.8
98082
98081.1
98080.1
98079.1
98078
98076.8
98075.6
98074.3
98072.9
98071.5
98070.1
98068.5
98066.9
98065.2
98063.4
98061.5
98059.6
98057.5
98055.4
98053.3
98051
98048.7
98046.4
98043.9
98041.4
98038.9
98036.2
98033.5
98030.8
98028
98025.2
98022.4
98019.6
98016.8
98014
98011.2
98008.5
98005.9
98003.3
98000.9
97998.6
97996.4
97994.4
97992.6
97991
97989.6
97988.4
97987.5
97986.9
97986.5
97986.5
97986.7
97987.2
97987.9
97989
97990.4
97992
97993.9
97996.1
97998.5
98001.2
98004.1
98007.1
98010.3
98013.7
98017.1
98020.5
98024
98027.5
98030.9
98034.3
98037.5
98040.6
98043.5
98046.2
98048.7
98051
98052.9
98054.6
98056.1
98057.2
98058.1
98058.6
98058.9
98058.8
98058.5
98057.9
98057
98055.9
98054.5
98053
98051.2
98049.3
98047.2
98045
98042.6
98040
98037.3
98034.5
98031.5
98028.3
98025
98021.4
98017.6
98013.5
98009.1
98004.4
97999.3
97993.8
97987.9
97981.4
97974.4
97967
97959
97950.5
97941.5
97932
97922.1
97912
97901.5
97890.9
97880.3
97869.8
97859.5
97849.8
97840.7
97832.6
97825.6
97819.8
97815.3
97812.4
97811
97811.3
97813.2
97816.6
97821.6
97828.2
97836.1
97845.4
97855.8
97867.3
97879.4
97892.3
97905.5
97918.8
97931.8
97944.3
97955.5
97965.7
97974.6
97982.2
97988.1
97992
97993.7
97994.1
97991.9
97988.6
97984.1
97978.9
97972.1
97964.9
97955.6
97946.3
97934.9
97924.6
97911.4
97901.1
97887.1
97877.3
98079.5
98079.8
98080
98080
98080
98080
98079.9
98079.7
98079.5
98079.2
98078.9
98078.5
98078.1
98077.6
98077
98076.4
98075.7
98074.9
98074
98073.1
98072.1
98070.9
98069.7
98068.3
98066.9
98065.3
98063.6
98061.8
98059.9
98057.9
98055.7
98053.5
98051.2
98048.8
98046.3
98043.7
98041.1
98038.4
98035.6
98032.7
98029.8
98026.9
98023.9
98020.9
98017.9
98015
98012
98009.2
98006.4
98003.7
98001.1
97998.6
97996.3
97994.1
97992.2
97990.4
97988.9
97987.5
97986.5
97985.7
97985.1
97984.8
97984.8
97985.1
97985.6
97986.4
97987.5
97988.8
97990.4
97992.2
97994.2
97996.5
97998.9
98001.5
98004.2
98007
98009.8
98012.7
98015.5
98018.4
98021.1
98023.7
98026.2
98028.5
98030.6
98032.5
98034.2
98035.5
98036.6
98037.4
98037.9
98038.1
98038.1
98037.7
98037
98036
98034.8
98033.2
98031.3
98029.3
98027
98024.5
98021.8
98019
98016
98012.9
98009.6
98006.2
98002.6
97998.9
97995
97991
97986.7
97982.3
97977.6
97972.7
97967.4
97961.8
97955.9
97949.6
97942.9
97935.6
97927.9
97919.7
97911
97901.8
97892.1
97881.9
97871.3
97860.3
97849
97837.5
97825.9
97814.3
97802.8
97791.8
97781.4
97771.9
97763.3
97755.9
97749.8
97745.1
97741.9
97740.2
97740.1
97741.4
97744.2
97748.6
97754.2
97761
97768.9
97777.9
97787.4
97797.3
97807.4
97817.5
97827.2
97836.2
97843.9
97850.5
97855.6
97859.5
97861.8
97862.2
97860.9
97858.6
97854
97848.5
97842.4
97836.2
97829.4
97822.8
97814.8
97807.6
97798.9
97792
97782.6
97776.9
97767.4
97763.2
98075.1
98075.4
98075.7
98075.8
98076
98076.2
98076.3
98076.5
98076.7
98076.9
98077.1
98077.3
98077.4
98077.5
98077.4
98077.3
98077.1
98076.8
98076.3
98075.8
98075.1
98074.3
98073.3
98072.2
98071
98069.6
98068
98066.3
98064.4
98062.4
98060.3
98058.1
98055.7
98053.2
98050.6
98048
98045.2
98042.3
98039.3
98036.3
98033.2
98030.1
98026.9
98023.8
98020.6
98017.4
98014.3
98011.3
98008.3
98005.4
98002.6
98000
97997.5
97995.2
97993.1
97991.2
97989.6
97988.1
97986.9
97985.9
97985.2
97984.8
97984.6
97984.7
97985
97985.6
97986.5
97987.6
97988.9
97990.4
97992.2
97994.1
97996.2
97998.3
98000.6
98003
98005.3
98007.7
98010
98012.3
98014.4
98016.4
98018.2
98019.9
98021.3
98022.4
98023.3
98023.9
98024.2
98024.2
98023.9
98023.2
98022.3
98021.1
98019.5
98017.6
98015.5
98013
98010.3
98007.3
98004.1
98000.7
97997.2
97993.5
97989.6
97985.6
97981.4
97977.1
97972.7
97968.1
97963.3
97958.4
97953.2
97947.9
97942.3
97936.5
97930.4
97924
97917.3
97910.2
97902.7
97894.7
97886.2
97877.4
97868.1
97858.3
97848
97837.2
97826
97814.4
97802.4
97790.2
97777.8
97765.3
97753
97741
97729.6
97719
97709.2
97700.4
97693
97686.8
97682.1
97678.8
97676.9
97676.5
97677.5
97679.9
97683.4
97688
97693.8
97700.5
97707.6
97714.8
97721.9
97728.8
97735.4
97741.1
97745.5
97748.5
97749.9
97750
97748.6
97745.6
97741.2
97736
97729
97721.3
97713.3
97705.9
97698.5
97692.1
97684.8
97679.2
97672.4
97668.3
97662
97660.3
97654.9
97655.6
98071.4
98071.6
98071.8
98072
98072.2
98072.7
98073.3
98074.1
98075
98075.9
98076.8
98077.6
98078.4
98079.1
98079.7
98080.1
98080.4
98080.6
98080.5
98080.3
98080
98079.4
98078.7
98077.8
98076.7
98075.5
98074
98072.3
98070.5
98068.5
98066.3
98064
98061.6
98059
98056.3
98053.5
98050.5
98047.5
98044.4
98041.1
98037.9
98034.5
98031.2
98027.8
98024.4
98021.1
98017.8
98014.5
98011.4
98008.4
98005.4
98002.7
98000.1
97997.6
97995.4
97993.4
97991.6
97990
97988.7
97987.7
97986.9
97986.3
97986
97985.9
97986.2
97986.6
97987.3
97988.2
97989.4
97990.7
97992.2
97993.9
97995.7
97997.5
97999.5
98001.4
98003.4
98005.3
98007.2
98008.9
98010.6
98012
98013.3
98014.3
98015.1
98015.6
98015.8
98015.7
98015.3
98014.5
98013.5
98012.1
98010.3
98008.3
98005.9
98003.2
98000.3
97997
97993.4
97989.6
97985.6
97981.3
97976.9
97972.4
97967.7
97962.8
97957.8
97952.6
97947.3
97941.8
97936.2
97930.4
97924.4
97918.1
97911.7
97905
97898.1
97891
97883.5
97875.6
97867.3
97858.7
97849.7
97840.3
97830.4
97820
97809.2
97798
97786.3
97774.3
97761.7
97748.9
97735.9
97722.9
97710
97697.4
97685.2
97673.7
97662.9
97653.1
97644.5
97637.1
97630.9
97626.3
97623
97621.1
97620.6
97621.3
97623
97625.7
97629.5
97634.1
97639
97643.6
97647.9
97651.8
97655.4
97658
97659.1
97658.9
97656.6
97653
97647.9
97641.5
97633.9
97625.6
97616.2
97606.4
97596.5
97587.7
97579.4
97572.8
97565.9
97561.4
97556.1
97554.1
97550.3
97552.1
97550.3
97555.2
98066.5
98066.5
98066.6
98066.9
98067.6
98068.9
98070.3
98072.1
98073.8
98075.7
98077.4
98079.1
98080.7
98082.1
98083.3
98084.3
98085
98085.6
98085.9
98086.1
98086
98085.7
98085.1
98084.4
98083.4
98082.2
98080.8
98079.2
98077.4
98075.4
98073.2
98070.8
98068.3
98065.6
98062.7
98059.8
98056.7
98053.5
98050.1
98046.8
98043.3
98039.8
98036.2
98032.7
98029.1
98025.6
98022.1
98018.8
98015.5
98012.3
98009.2
98006.3
98003.6
98001.1
97998.8
97996.7
97994.8
97993.2
97991.8
97990.6
97989.8
97989.1
97988.7
97988.6
97988.7
97989.1
97989.7
97990.5
97991.5
97992.6
97994
97995.4
97997
97998.6
98000.2
98001.9
98003.5
98005
98006.5
98007.8
98009
98009.9
98010.7
98011.1
98011.4
98011.3
98010.9
98010.2
98009.1
98007.7
98005.9
98003.8
98001.4
97998.6
97995.5
97992.1
97988.3
97984.3
97980
97975.4
97970.6
97965.6
97960.4
97955
97949.5
97943.8
97938
97932
97925.9
97919.6
97913.1
97906.4
97899.6
97892.6
97885.3
97877.9
97870.2
97862.3
97854.1
97845.6
97836.7
97827.4
97817.9
97808
97797.6
97786.9
97775.7
97764.1
97752.1
97739.7
97726.8
97713.6
97700.1