/*--------------------------------*- C++ -*----------------------------------*\
| =========                 |                                                 |
| \\      /  F ield         | OpenFOAM: The Open Source CFD Toolbox           |
|  \\    /   O peration     | Version:  dev                                   |
|   \\  /    A nd           | Web:      http://www.openfoam.org               |
|    \\/     M anipulation  |                                                 |
\*---------------------------------------------------------------------------*/
FoamFile
{
    version     2.0;
    format      ascii;
    class       volScalarField;
    object      pPrime2Mean;
    location    "9.142";
}
// * * * * * * * * * * * * * * * * * * * * * * * * * * * * * * * * * * * * * //

dimensions      [2 -2 -4 0 0 0 0];

internalField   nonuniform List<scalar> 
12225
(
5.03773e+07
4.9912e+07
4.89509e+07
4.75992e+07
4.59449e+07
4.40773e+07
4.20556e+07
3.9952e+07
3.78072e+07
3.56693e+07
3.35761e+07
3.15306e+07
2.96066e+07
2.7735e+07
2.59871e+07
2.44263e+07
2.28642e+07
2.12844e+07
5.02694e+07
4.98042e+07
4.88439e+07
4.74939e+07
4.5841e+07
4.39757e+07
4.19569e+07
3.98559e+07
3.7715e+07
3.55798e+07
3.34913e+07
3.14494e+07
2.95301e+07
2.76653e+07
2.59349e+07
2.43742e+07
2.28652e+07
2.15309e+07
5.00193e+07
4.95547e+07
4.85949e+07
4.72479e+07
4.55995e+07
4.3739e+07
4.17269e+07
3.96321e+07
3.74994e+07
3.53724e+07
3.32923e+07
3.12621e+07
2.93488e+07
2.75013e+07
2.57907e+07
2.42348e+07
2.27996e+07
2.15865e+07
4.95837e+07
4.91219e+07
4.81644e+07
4.68227e+07
4.51822e+07
4.33302e+07
4.13298e+07
3.92456e+07
3.71276e+07
3.5014e+07
3.29498e+07
3.09375e+07
2.90413e+07
2.72132e+07
2.55322e+07
2.40009e+07
2.26144e+07
2.15136e+07
4.89186e+07
4.84571e+07
4.75043e+07
4.6172e+07
4.45434e+07
4.27059e+07
4.07213e+07
3.86564e+07
3.65575e+07
3.4468e+07
3.24241e+07
3.04425e+07
2.85689e+07
2.67769e+07
2.51482e+07
2.36392e+07
2.23579e+07
2.12935e+07
4.79694e+07
4.75053e+07
4.6562e+07
4.52432e+07
4.36325e+07
4.18148e+07
3.98549e+07
3.78156e+07
3.57468e+07
3.3687e+07
3.16773e+07
2.97299e+07
2.78946e+07
2.61491e+07
2.45699e+07
2.31304e+07
2.19034e+07
2.0847e+07
4.66744e+07
4.6209e+07
4.52813e+07
4.39787e+07
4.23942e+07
4.06022e+07
3.86779e+07
3.6672e+07
3.46461e+07
3.26252e+07
3.06639e+07
2.87621e+07
2.69782e+07
2.52905e+07
2.37683e+07
2.23889e+07
2.12203e+07
2.01923e+07
4.52324e+07
4.47686e+07
4.38572e+07
4.25725e+07
4.10166e+07
3.92543e+07
3.73685e+07
3.54016e+07
3.3421e+07
3.14463e+07
2.95349e+07
2.76867e+07
2.59543e+07
2.43298e+07
2.28561e+07
2.15399e+07
2.04039e+07
1.9444e+07
4.37175e+07
4.32573e+07
4.23621e+07
4.10971e+07
3.95709e+07
3.7841e+07
3.59946e+07
3.40701e+07
3.21357e+07
3.02106e+07
2.83501e+07
2.65576e+07
2.4879e+07
2.33152e+07
2.18935e+07
2.06334e+07
1.95394e+07
1.86407e+07
4.17774e+07
4.13238e+07
4.04481e+07
3.92108e+07
3.77209e+07
3.6035e+07
3.42375e+07
3.23691e+07
3.0492e+07
2.86318e+07
2.68341e+07
2.51132e+07
2.35007e+07
2.20116e+07
2.06562e+07
1.94638e+07
1.84265e+07
1.75737e+07
3.93288e+07
3.88852e+07
3.8033e+07
3.68324e+07
3.53885e+07
3.37597e+07
3.20242e+07
3.02268e+07
2.84229e+07
2.6643e+07
2.49256e+07
2.32907e+07
2.1762e+07
2.0359e+07
1.90867e+07
1.7971e+07
1.70007e+07
1.61941e+07
3.63054e+07
3.58767e+07
3.50527e+07
3.39011e+07
3.25144e+07
3.09589e+07
2.93008e+07
2.75925e+07
2.5879e+07
2.41981e+07
2.25789e+07
2.1047e+07
1.96191e+07
1.83155e+07
1.71398e+07
1.61084e+07
1.52138e+07
1.44603e+07
3.26924e+07
3.22824e+07
3.14948e+07
3.04043e+07
2.90899e+07
2.76233e+07
2.6061e+07
2.44593e+07
2.28561e+07
2.12916e+07
1.97892e+07
1.83764e+07
1.7065e+07
1.58735e+07
1.48044e+07
1.38667e+07
1.30552e+07
1.23669e+07
2.85809e+07
2.81937e+07
2.74528e+07
2.64347e+07
2.52086e+07
2.38455e+07
2.23972e+07
2.09176e+07
1.94425e+07
1.8009e+07
1.66395e+07
1.53573e+07
1.41744e+07
1.31036e+07
1.21481e+07
1.13107e+07
1.0588e+07
9.97374e+06
2.42564e+07
2.38956e+07
2.32108e+07
2.22735e+07
2.11475e+07
1.98987e+07
1.8576e+07
1.72288e+07
1.58913e+07
1.45966e+07
1.3366e+07
1.2219e+07
1.11666e+07
1.02175e+07
9.3743e+06
8.63704e+06
8.0025e+06
7.46399e+06
2.03095e+07
1.99774e+07
1.93522e+07
1.84966e+07
1.74721e+07
1.63364e+07
1.51374e+07
1.39183e+07
1.27127e+07
1.15487e+07
1.0447e+07
9.42322e+06
8.48742e+06
7.64564e+06
6.89977e+06
6.24853e+06
5.68875e+06
5.21421e+06
1.7744e+07
1.74375e+07
1.68625e+07
1.60747e+07
1.51326e+07
1.4088e+07
1.29863e+07
1.18667e+07
1.07607e+07
9.69356e+06
8.68424e+06
7.7463e+06
6.88847e+06
6.11553e+06
5.42885e+06
4.82705e+06
4.30715e+06
3.86377e+06
1.78526e+07
1.75579e+07
1.70051e+07
1.6247e+07
1.53395e+07
1.43319e+07
1.32678e+07
1.2184e+07
1.11109e+07
1.0072e+07
9.08512e+06
8.16297e+06
7.31365e+06
6.54166e+06
5.84841e+06
5.23305e+06
4.69308e+06
4.22416e+06
2.07304e+07
2.04312e+07
1.98686e+07
1.90955e+07
1.81685e+07
1.7137e+07
1.60443e+07
1.49271e+07
1.38154e+07
1.27325e+07
1.16962e+07
1.07191e+07
9.80936e+06
8.97189e+06
8.20857e+06
7.51933e+06
6.90232e+06
6.35417e+06
2.52185e+07
2.49064e+07
2.43159e+07
2.35017e+07
2.25232e+07
2.14314e+07
2.02709e+07
1.90792e+07
1.7887e+07
1.67184e+07
1.55914e+07
1.45192e+07
1.35106e+07
1.25711e+07
1.17033e+07
1.09078e+07
1.01836e+07
9.52821e+06
3.02791e+07
2.9953e+07
2.93292e+07
2.84655e+07
2.74246e+07
2.62596e+07
2.5017e+07
2.37359e+07
2.24481e+07
2.11786e+07
1.99464e+07
1.87654e+07
1.76451e+07
1.65918e+07
1.56088e+07
1.46975e+07
1.38575e+07
1.30871e+07
3.51941e+07
3.48563e+07
3.42014e+07
3.32906e+07
3.21896e+07
3.09534e+07
2.96306e+07
2.82619e+07
2.68805e+07
2.55124e+07
2.41777e+07
2.2891e+07
2.16628e+07
2.05e+07
1.94066e+07
1.83847e+07
1.74347e+07
1.65554e+07
3.95443e+07
3.91981e+07
3.85179e+07
3.75674e+07
3.64147e+07
3.51167e+07
3.37238e+07
3.22781e+07
3.08143e+07
2.93593e+07
2.79342e+07
2.65544e+07
2.52312e+07
2.3972e+07
2.27818e+07
2.16631e+07
2.06167e+07
1.96421e+07
4.31408e+07
4.27894e+07
4.20899e+07
4.11084e+07
3.99146e+07
3.85668e+07
3.71169e+07
3.56083e+07
3.40768e+07
3.25504e+07
3.10508e+07
2.95944e+07
2.81929e+07
2.68545e+07
2.55846e+07
2.43862e+07
2.32607e+07
2.22079e+07
4.59497e+07
4.55954e+07
4.48821e+07
4.38777e+07
4.26528e+07
4.12669e+07
3.97731e+07
3.82159e+07
3.66319e+07
3.50499e+07
3.34925e+07
3.19764e+07
3.0514e+07
2.9114e+07
2.77821e+07
2.65218e+07
2.53347e+07
2.4221e+07
4.80282e+07
4.76724e+07
4.69494e+07
4.59288e+07
4.46816e+07
4.3268e+07
4.17421e+07
4.01492e+07
3.85266e+07
3.69038e+07
3.53037e+07
3.37437e+07
3.22365e+07
3.07911e+07
2.94135e+07
2.81076e+07
2.68751e+07
2.57166e+07
4.94774e+07
4.91206e+07
4.8391e+07
4.73596e+07
4.6097e+07
4.46646e+07
4.31166e+07
4.14992e+07
3.98499e+07
3.81989e+07
3.65693e+07
3.49788e+07
3.34406e+07
3.19637e+07
3.05545e+07
2.9217e+07
2.79531e+07
2.67634e+07
5.04125e+07
5.00547e+07
4.93209e+07
4.82828e+07
4.70105e+07
4.5566e+07
4.40041e+07
4.23711e+07
4.07049e+07
3.90357e+07
3.73872e+07
3.57773e+07
3.4219e+07
3.27219e+07
3.12924e+07
2.99345e+07
2.86505e+07
2.74408e+07
5.09417e+07
5.05836e+07
4.98482e+07
4.8807e+07
4.75293e+07
4.60782e+07
4.45085e+07
4.28665e+07
4.11905e+07
3.95109e+07
3.78515e+07
3.62303e+07
3.46606e+07
3.31518e+07
3.17106e+07
3.0341e+07
2.90456e+07
2.7825e+07
5.11639e+07
5.08072e+07
5.007e+07
4.90269e+07
4.77467e+07
4.62929e+07
4.47197e+07
4.30739e+07
4.13936e+07
3.97096e+07
3.80455e+07
3.64194e+07
3.48448e+07
3.33311e+07
3.18848e+07
3.05104e+07
2.92102e+07
2.79851e+07
6.04953e+07
6.04362e+07
6.03055e+07
6.00997e+07
5.98169e+07
5.94564e+07
5.90184e+07
5.85034e+07
5.79127e+07
5.72478e+07
5.65104e+07
5.57027e+07
5.4827e+07
5.38858e+07
5.2882e+07
5.18185e+07
5.06985e+07
4.95255e+07
4.83032e+07
4.70355e+07
4.57263e+07
4.43797e+07
4.3e+07
4.15914e+07
4.01586e+07
3.87059e+07
3.7238e+07
3.57593e+07
3.42742e+07
3.27873e+07
3.13032e+07
2.98265e+07
2.83618e+07
2.69136e+07
2.54867e+07
2.40855e+07
2.27146e+07
2.13789e+07
2.0083e+07
1.88317e+07
1.76298e+07
1.64823e+07
1.53941e+07
1.43703e+07
1.34161e+07
1.25367e+07
1.17374e+07
1.10236e+07
1.04007e+07
9.87424e+06
9.44956e+06
9.13216e+06
8.92744e+06
8.84066e+06
8.87692e+06
9.04106e+06
9.33761e+06
9.77085e+06
1.03446e+07
1.10622e+07
1.19263e+07
1.29391e+07
1.4102e+07
1.54157e+07
1.68803e+07
1.84949e+07
2.02578e+07
2.21665e+07
2.4218e+07
2.64085e+07
2.87332e+07
3.11869e+07
3.37638e+07
3.64573e+07
3.92606e+07
4.21665e+07
4.51674e+07
4.82556e+07
5.14233e+07
5.46624e+07
5.79648e+07
6.13224e+07
6.47268e+07
6.81694e+07
7.16416e+07
7.51345e+07
7.86389e+07
8.21454e+07
8.56438e+07
8.91239e+07
9.25746e+07
9.59846e+07
9.93416e+07
1.02633e+08
1.05847e+08
1.0897e+08
1.1199e+08
1.14895e+08
1.17673e+08
1.20313e+08
1.22807e+08
1.25146e+08
1.27324e+08
1.29333e+08
1.31172e+08
1.32837e+08
1.34329e+08
1.3565e+08
1.36807e+08
1.37805e+08
1.38656e+08
1.3937e+08
1.39961e+08
1.40444e+08
1.40836e+08
1.41152e+08
1.41414e+08
1.41643e+08
1.41863e+08
1.42099e+08
1.42382e+08
1.42746e+08
1.43226e+08
1.43862e+08
1.44699e+08
1.45783e+08
1.47168e+08
1.4891e+08
1.5107e+08
1.5371e+08
1.56895e+08
1.60684e+08
1.65142e+08
1.70324e+08
1.76283e+08
1.83064e+08
1.90704e+08
1.9923e+08
2.08656e+08
2.18985e+08
2.3021e+08
2.4231e+08
2.55256e+08
2.69007e+08
2.83519e+08
2.9873e+08
3.14592e+08
3.31032e+08
3.47988e+08
3.65383e+08
3.83146e+08
4.01191e+08
4.19428e+08
4.37764e+08
4.56078e+08
4.74229e+08
4.92055e+08
5.09386e+08
5.25989e+08
5.41629e+08
5.56008e+08
5.68825e+08
5.79742e+08
5.88434e+08
5.94567e+08
5.97845e+08
5.98006e+08
5.94871e+08
5.88314e+08
5.78361e+08
5.65093e+08
5.48779e+08
5.29735e+08
5.08457e+08
4.85416e+08
4.61139e+08
4.35993e+08
4.10412e+08
3.84608e+08
3.58906e+08
5.94202e+07
5.93645e+07
5.92394e+07
5.90395e+07
5.87631e+07
5.84103e+07
5.79815e+07
5.7478e+07
5.69008e+07
5.62515e+07
5.55317e+07
5.47434e+07
5.38889e+07
5.29704e+07
5.19906e+07
5.09523e+07
4.98584e+07
4.87124e+07
4.75177e+07
4.62781e+07
4.49975e+07
4.36797e+07
4.23291e+07
4.09497e+07
3.95461e+07
3.81226e+07
3.66836e+07
3.52333e+07
3.37762e+07
3.23166e+07
3.08591e+07
2.94082e+07
2.79685e+07
2.65444e+07
2.51405e+07
2.37613e+07
2.24114e+07
2.10953e+07
1.98177e+07
1.85835e+07
1.73975e+07
1.62644e+07
1.51892e+07
1.41771e+07
1.32331e+07
1.23625e+07
1.15705e+07
1.08626e+07
1.02441e+07
9.72059e+06
9.29746e+06
8.98015e+06
8.77404e+06
8.68437e+06
8.71626e+06
8.8746e+06
9.16395e+06
9.58854e+06
1.01522e+07
1.08581e+07
1.17092e+07
1.27074e+07
1.38542e+07
1.51503e+07
1.65956e+07
1.81895e+07
1.99301e+07
2.1815e+07
2.38411e+07
2.60046e+07
2.83009e+07
3.07246e+07
3.32699e+07
3.59305e+07
3.86994e+07
4.15695e+07
4.45334e+07
4.75833e+07
5.07115e+07
5.39098e+07
5.71703e+07
6.04848e+07
6.3845e+07
6.72425e+07
7.06688e+07
7.41148e+07
7.75716e+07
8.10296e+07
8.44791e+07
8.79097e+07
9.13105e+07
9.46702e+07
9.7977e+07
1.01219e+08
1.04383e+08
1.07456e+08
1.10428e+08
1.13285e+08
1.16017e+08
1.18613e+08
1.21064e+08
1.23362e+08
1.25501e+08
1.27475e+08
1.29281e+08
1.30916e+08
1.32381e+08
1.33678e+08
1.34812e+08
1.35792e+08
1.36627e+08
1.37327e+08
1.37908e+08
1.38381e+08
1.38764e+08
1.39073e+08
1.39328e+08
1.3955e+08
1.39762e+08
1.39989e+08
1.40261e+08
1.4061e+08
1.41073e+08
1.41688e+08
1.42498e+08
1.4355e+08
1.44896e+08
1.46592e+08
1.48696e+08
1.51272e+08
1.54382e+08
1.58087e+08
1.62448e+08
1.67521e+08
1.73357e+08
1.80002e+08
1.87492e+08
1.95854e+08
2.05102e+08
2.15239e+08
2.2626e+08
2.38141e+08
2.50858e+08
2.6437e+08
2.78632e+08
2.93585e+08
3.09177e+08
3.25347e+08
3.42027e+08
3.59143e+08
3.76623e+08
3.94388e+08
4.12348e+08
4.30413e+08
4.48461e+08
4.66357e+08
4.83939e+08
5.01043e+08
5.17442e+08
5.32901e+08
5.47135e+08
5.59847e+08
5.70701e+08
5.79378e+08
5.85551e+08
5.88931e+08
5.8926e+08
5.86362e+08
5.80105e+08
5.70503e+08
5.57631e+08
5.41743e+08
5.23147e+08
5.02323e+08
4.79732e+08
4.55885e+08
4.31149e+08
4.05949e+08
3.80497e+08
3.55033e+08
5.73546e+07
5.73016e+07
5.7182e+07
5.69905e+07
5.67258e+07
5.63883e+07
5.59792e+07
5.54994e+07
5.495e+07
5.43321e+07
5.36472e+07
5.2897e+07
5.20834e+07
5.12085e+07
5.02745e+07
4.9284e+07
4.82399e+07
4.71451e+07
4.6003e+07
4.4817e+07
4.35908e+07
4.23283e+07
4.10334e+07
3.97102e+07
3.83627e+07
3.69949e+07
3.56109e+07
3.42147e+07
3.28108e+07
3.14034e+07
2.9997e+07
2.85958e+07
2.72042e+07
2.58266e+07
2.44673e+07
2.31307e+07
2.18211e+07
2.05431e+07
1.93013e+07
1.81004e+07
1.6945e+07
1.58399e+07
1.47902e+07
1.38007e+07
1.28765e+07
1.2023e+07
1.12454e+07
1.05491e+07
9.93934e+06
9.42171e+06
9.0016e+06
8.68445e+06
8.47568e+06
8.38051e+06
8.40405e+06
8.55118e+06
8.82646e+06
9.23411e+06
9.77795e+06
1.04612e+07
1.12866e+07
1.22563e+07
1.33715e+07
1.46331e+07
1.60408e+07
1.75938e+07
1.92906e+07
2.11286e+07
2.31048e+07
2.52153e+07
2.74556e+07
2.98204e+07
3.23039e+07
3.48997e+07
3.76013e+07
4.04014e+07
4.32927e+07
4.62677e+07
4.93187e+07
5.24377e+07
5.56167e+07
5.88476e+07
6.21223e+07
6.54325e+07
6.87696e+07
7.21249e+07
7.54894e+07
7.88539e+07
8.22086e+07
8.55434e+07
8.88476e+07
9.211e+07
9.53192e+07
9.84634e+07
1.0153e+08
1.04507e+08
1.07384e+08
1.10148e+08
1.12789e+08
1.15298e+08
1.17665e+08
1.19883e+08
1.21947e+08
1.23851e+08
1.25592e+08
1.27168e+08
1.28579e+08
1.29828e+08
1.30921e+08
1.31864e+08
1.32668e+08
1.33343e+08
1.33901e+08
1.34356e+08
1.34723e+08
1.35018e+08
1.35259e+08
1.35465e+08
1.35661e+08
1.3587e+08
1.3612e+08
1.36441e+08
1.36869e+08
1.37439e+08
1.38195e+08
1.39182e+08
1.40449e+08
1.42051e+08
1.44046e+08
1.46493e+08
1.49454e+08
1.5299e+08
1.57158e+08
1.62014e+08
1.67608e+08
1.73983e+08
1.81175e+08
1.89212e+08
1.98107e+08
2.07865e+08
2.18478e+08
2.29929e+08
2.42191e+08
2.5523e+08
2.68997e+08
2.83438e+08
2.98499e+08
3.14129e+08
3.30259e+08
3.46818e+08
3.63736e+08
3.80941e+08
3.98346e+08
4.15859e+08
4.33367e+08
4.50742e+08
4.67823e+08
4.84452e+08
5.00414e+08
5.15477e+08
5.29379e+08
5.41826e+08
5.52497e+08
5.61091e+08
5.67287e+08
5.70814e+08
5.71422e+08
5.68938e+08
5.63228e+08
5.54281e+08
5.42169e+08
5.27118e+08
5.09414e+08
4.89512e+08
4.67838e+08
4.44871e+08
4.20984e+08
3.96578e+08
3.71878e+08
3.47055e+08
5.44606e+07
5.44112e+07
5.42991e+07
5.41198e+07
5.38729e+07
5.35593e+07
5.31797e+07
5.27347e+07
5.22251e+07
5.16518e+07
5.10158e+07
5.03186e+07
4.95615e+07
4.87463e+07
4.78751e+07
4.69502e+07
4.59742e+07
4.49498e+07
4.38801e+07
4.27683e+07
4.16178e+07
4.04322e+07
3.9215e+07
3.79698e+07
3.67001e+07
3.54095e+07
3.4102e+07
3.27814e+07
3.14518e+07
3.01175e+07
2.87825e+07
2.74509e+07
2.61267e+07
2.4814e+07
2.3517e+07
2.22398e+07
2.09866e+07
1.9762e+07
1.85702e+07
1.74158e+07
1.63034e+07
1.52377e+07
1.42236e+07
1.3266e+07
1.237e+07
1.15407e+07
1.07833e+07
1.01033e+07
9.50587e+06
8.99659e+06
8.58083e+06
8.26402e+06
8.05153e+06
7.94858e+06
7.96025e+06
8.09143e+06
8.34671e+06
8.73026e+06
9.24586e+06
9.89672e+06
1.06855e+07
1.16144e+07
1.26845e+07
1.38967e+07
1.52508e+07
1.67458e+07
1.83802e+07
2.01515e+07
2.20568e+07
2.40922e+07
2.62531e+07
2.85345e+07
3.09307e+07
3.34355e+07
3.60421e+07
3.87438e+07
4.15333e+07
4.44034e+07
4.73463e+07
5.03543e+07
5.34196e+07
5.65341e+07
5.96898e+07
6.28786e+07
6.60919e+07
6.93211e+07
7.25578e+07
7.57925e+07
7.90158e+07
8.22177e+07
8.53877e+07
8.8515e+07
9.15886e+07
9.45968e+07
9.75281e+07
1.00371e+08
1.03114e+08
1.05748e+08
1.08262e+08
1.10647e+08
1.12895e+08
1.15001e+08
1.16958e+08
1.18762e+08
1.2041e+08
1.21901e+08
1.23236e+08
1.24418e+08
1.25451e+08
1.26342e+08
1.27101e+08
1.27738e+08
1.28264e+08
1.28691e+08
1.29033e+08
1.29305e+08
1.29524e+08
1.29709e+08
1.29881e+08
1.30062e+08
1.30279e+08
1.30559e+08
1.30934e+08
1.31441e+08
1.32119e+08
1.33013e+08
1.34168e+08
1.35638e+08
1.37477e+08
1.39743e+08
1.42494e+08
1.45791e+08
1.49688e+08
1.54239e+08
1.59491e+08
1.65487e+08
1.72262e+08
1.79843e+08
1.88245e+08
1.97473e+08
2.07519e+08
2.18368e+08
2.29998e+08
2.42378e+08
2.55458e+08
2.69188e+08
2.83515e+08
2.98396e+08
3.13767e+08
3.2956e+08
3.45704e+08
3.62137e+08
3.78775e+08
3.95528e+08
4.12287e+08
4.28935e+08
4.45318e+08
4.6128e+08
4.76623e+08
4.91124e+08
5.04537e+08
5.16583e+08
5.26966e+08
5.35401e+08
5.41584e+08
5.45259e+08
5.46188e+08
5.44204e+08
5.39174e+08
5.31071e+08
5.19955e+08
5.06016e+08
4.89519e+08
4.70874e+08
4.50466e+08
4.28735e+08
4.06045e+08
3.8277e+08
3.59149e+08
3.35331e+08
5.09383e+07
5.08943e+07
5.07924e+07
5.06294e+07
5.04057e+07
5.01218e+07
4.97779e+07
4.93746e+07
4.89123e+07
4.83918e+07
4.78136e+07
4.71787e+07
4.64885e+07
4.57444e+07
4.49482e+07
4.41019e+07
4.32077e+07
4.22681e+07
4.12858e+07
4.02636e+07
3.92045e+07
3.81117e+07
3.6988e+07
3.58367e+07
3.46607e+07
3.34637e+07
3.2249e+07
3.10204e+07
2.97817e+07
2.85367e+07
2.7289e+07
2.60423e+07
2.48004e+07
2.35671e+07
2.23462e+07
2.11416e+07
1.99575e+07
1.8798e+07
1.76674e+07
1.65701e+07
1.55104e+07
1.4493e+07
1.35226e+07
1.26042e+07
1.17426e+07
1.09429e+07
1.02104e+07
9.55026e+06
8.96794e+06
8.46883e+06
8.05831e+06
7.74179e+06
7.52462e+06
7.412e+06
7.409e+06
7.52044e+06
7.75087e+06
8.10442e+06
8.58481e+06
9.19529e+06
9.93849e+06
1.08165e+07
1.18305e+07
1.29812e+07
1.42684e+07
1.56912e+07
1.7248e+07
1.89365e+07
2.07536e+07
2.26957e+07
2.47582e+07
2.69363e+07
2.92242e+07
3.1616e+07
3.41053e+07
3.66852e+07
3.93489e+07
4.20892e+07
4.48986e+07
4.77696e+07
5.06945e+07
5.36656e+07
5.66748e+07
5.97142e+07
6.27756e+07
6.58503e+07
6.893e+07
7.20058e+07
7.50681e+07
7.81073e+07
8.11135e+07
8.40761e+07
8.69844e+07
8.98272e+07
9.25936e+07
9.52729e+07
9.78548e+07
1.0033e+08
1.02688e+08
1.04923e+08
1.07025e+08
1.08992e+08
1.10818e+08
1.12499e+08
1.14033e+08
1.15418e+08
1.16659e+08
1.17756e+08
1.18714e+08
1.1954e+08
1.20241e+08
1.20829e+08
1.21312e+08
1.21703e+08
1.22012e+08
1.22255e+08
1.22445e+08
1.22601e+08
1.2274e+08
1.22885e+08
1.23059e+08
1.23286e+08
1.23598e+08
1.24027e+08
1.24611e+08
1.25389e+08
1.26408e+08
1.27717e+08
1.29367e+08
1.31412e+08
1.33907e+08
1.36912e+08
1.40478e+08
1.44657e+08
1.49495e+08
1.55032e+08
1.61302e+08
1.68332e+08
1.76138e+08
1.84726e+08
1.94089e+08
2.04214e+08
2.15082e+08
2.26666e+08
2.3892e+08
2.518e+08
2.65251e+08
2.79237e+08
2.93699e+08
3.08579e+08
3.23803e+08
3.39313e+08
3.55034e+08
3.70876e+08
3.86737e+08
4.02506e+08
4.18043e+08
4.33196e+08
4.47784e+08
4.61597e+08
4.74397e+08
4.85934e+08
4.95939e+08
5.04141e+08
5.10261e+08
5.14057e+08
5.15304e+08
5.1385e+08
5.09567e+08
5.02413e+08
4.92431e+08
4.79775e+08
4.64686e+08
4.47523e+08
4.28624e+08
4.08394e+08
3.87163e+08
3.6528e+08
3.42994e+08
3.20466e+08
4.70108e+07
4.69738e+07
4.68843e+07
4.67406e+07
4.65429e+07
4.62917e+07
4.5987e+07
4.56291e+07
4.52184e+07
4.47549e+07
4.42393e+07
4.36723e+07
4.30551e+07
4.23887e+07
4.16747e+07
4.09147e+07
4.01105e+07
3.92642e+07
3.83782e+07
3.74549e+07
3.64968e+07
3.55063e+07
3.4486e+07
3.34385e+07
3.23666e+07
3.12734e+07
3.01623e+07
2.90363e+07
2.7899e+07
2.67535e+07
2.56032e+07
2.44514e+07
2.33015e+07
2.21569e+07
2.10213e+07
1.98983e+07
1.87918e+07
1.77057e+07
1.6644e+07
1.56109e+07
1.46106e+07
1.36477e+07
1.27267e+07
1.18523e+07
1.10294e+07
1.02631e+07
9.55847e+06
8.92078e+06
8.35536e+06
7.86758e+06
7.46281e+06
7.14642e+06
6.92376e+06
6.79999e+06
6.78011e+06
6.8689e+06
7.07087e+06
7.3901e+06
7.83026e+06
8.39453e+06
9.08549e+06
9.90514e+06
1.08548e+07
1.19351e+07
1.31457e+07
1.44859e+07
1.5954e+07
1.75476e+07
1.92639e+07
2.10992e+07
2.30492e+07
2.5109e+07
2.72732e+07
2.9536e+07
3.18911e+07
3.4332e+07
3.68521e+07
3.94443e+07
4.21014e+07
4.48161e+07
4.75809e+07
5.03883e+07
5.32305e+07
5.60997e+07
5.8988e+07
6.1887e+07
6.47883e+07
6.76833e+07
7.05628e+07
7.34175e+07
7.62378e+07
7.90138e+07
8.17352e+07
8.43914e+07
8.69721e+07
8.94675e+07
9.18681e+07
9.4165e+07
9.63498e+07
9.84153e+07
1.00355e+08
1.02165e+08
1.03843e+08
1.05385e+08
1.06789e+08
1.08057e+08
1.09189e+08
1.10189e+08
1.11061e+08
1.1181e+08
1.12445e+08
1.12974e+08
1.13406e+08
1.13751e+08
1.1402e+08
1.14225e+08
1.14379e+08
1.14499e+08
1.14599e+08
1.147e+08
1.14821e+08
1.14988e+08
1.15227e+08
1.15568e+08
1.16046e+08
1.16697e+08
1.17563e+08
1.1869e+08
1.20127e+08
1.21926e+08
1.24136e+08
1.26814e+08
1.30011e+08
1.33774e+08
1.3815e+08
1.43174e+08
1.48882e+08
1.55301e+08
1.62446e+08
1.70323e+08
1.7893e+08
1.88257e+08
1.98283e+08
2.08988e+08
2.20334e+08
2.32279e+08
2.44771e+08
2.57777e+08
2.71245e+08
2.85122e+08
2.99338e+08
3.13838e+08
3.2855e+08
3.43389e+08
3.58259e+08
3.73057e+08
3.87655e+08
4.01906e+08
4.15644e+08
4.28678e+08
4.40779e+08
4.5172e+08
4.61265e+08
4.69163e+08
4.75159e+08
4.79022e+08
4.80554e+08
4.79616e+08
4.76081e+08
4.69898e+08
4.61092e+08
4.49791e+08
4.36205e+08
4.20642e+08
4.03393e+08
3.84825e+08
3.65224e+08
3.44913e+08
3.24145e+08
3.03107e+08
4.2903e+07
4.28734e+07
4.27975e+07
4.26741e+07
4.25035e+07
4.2286e+07
4.20216e+07
4.17103e+07
4.1352e+07
4.09469e+07
4.04954e+07
3.99982e+07
3.94559e+07
3.88696e+07
3.82402e+07
3.75692e+07
3.6858e+07
3.61084e+07
3.53222e+07
3.45013e+07
3.36475e+07
3.2763e+07
3.18497e+07
3.091e+07
2.99464e+07
2.89616e+07
2.79584e+07
2.69397e+07
2.59082e+07
2.48667e+07
2.38184e+07
2.27659e+07
2.17125e+07
2.06612e+07
1.96153e+07
1.85782e+07
1.75536e+07
1.65448e+07
1.55559e+07
1.45906e+07
1.36531e+07
1.27477e+07
1.18788e+07
1.1051e+07
1.02691e+07
9.53802e+06
8.86285e+06
8.24879e+06
7.70112e+06
7.22519e+06
6.82632e+06
6.50984e+06
6.28103e+06
6.14504e+06
6.10683e+06
6.17113e+06
6.34238e+06
6.62461e+06
7.02143e+06
7.53595e+06
8.17069e+06
8.92758e+06
9.8079e+06
1.08122e+07
1.19404e+07
1.31915e+07
1.45639e+07
1.60553e+07
1.76628e+07
1.93828e+07
2.12114e+07
2.31436e+07
2.51742e+07
2.72977e+07
2.95079e+07
3.17987e+07
3.41635e+07
3.65957e+07
3.90882e+07
4.16339e+07
4.42257e+07
4.68562e+07
4.95179e+07
5.22033e+07
5.49045e+07
5.76136e+07
6.03223e+07
6.30223e+07
6.57047e+07
6.83606e+07
7.09808e+07
7.3556e+07
7.60764e+07
7.85324e+07
8.09143e+07
8.32131e+07
8.54203e+07
8.75278e+07
8.95281e+07
9.14149e+07
9.31828e+07
9.48282e+07
9.63484e+07
9.77421e+07
9.9009e+07
1.0015e+08
1.01166e+08
1.02061e+08
1.02839e+08
1.03505e+08
1.04065e+08
1.04528e+08
1.04901e+08
1.05193e+08
1.05414e+08
1.05575e+08
1.05687e+08
1.05764e+08
1.0582e+08
1.0587e+08
1.05935e+08
1.06035e+08
1.06195e+08
1.06442e+08
1.06808e+08
1.07324e+08
1.08028e+08
1.08964e+08
1.10177e+08
1.11714e+08
1.13625e+08
1.15961e+08
1.18769e+08
1.22096e+08
1.25985e+08
1.30472e+08
1.35592e+08
1.41371e+08
1.47824e+08
1.5496e+08
1.62779e+08
1.71274e+08
1.80427e+08
1.90222e+08
2.00625e+08
2.11601e+08
2.23104e+08
2.351e+08
2.47543e+08
2.60383e+08
2.73558e+08
2.87015e+08
3.00681e+08
3.14477e+08
3.28316e+08
3.42101e+08
3.55714e+08
3.69011e+08
3.81842e+08
3.94033e+08
4.05373e+08
4.15655e+08
4.24667e+08
4.32188e+08
4.37989e+08
4.41853e+08
4.43604e+08
4.43124e+08
4.40284e+08
4.35029e+08
4.27365e+08
4.17409e+08
4.05331e+08
3.91394e+08
3.75843e+08
3.59003e+08
3.41114e+08
3.22476e+08
3.0333e+08
2.83901e+08
3.88278e+07
3.88058e+07
3.87432e+07
3.86399e+07
3.84961e+07
3.83117e+07
3.80866e+07
3.78205e+07
3.75133e+07
3.71654e+07
3.67767e+07
3.63478e+07
3.58791e+07
3.53711e+07
3.48248e+07
3.42411e+07
3.36213e+07
3.29664e+07
3.2278e+07
3.15573e+07
3.08059e+07
3.00254e+07
2.92176e+07
2.83843e+07
2.75277e+07
2.66501e+07
2.57538e+07
2.48412e+07
2.39145e+07
2.29763e+07
2.20291e+07
2.10754e+07
2.01179e+07
1.91595e+07
1.8203e+07
1.72517e+07
1.63086e+07
1.53771e+07
1.44608e+07
1.35632e+07
1.26885e+07
1.18405e+07
1.10237e+07
1.02424e+07
9.50147e+06
8.80561e+06
8.15987e+06
7.56938e+06
7.03936e+06
6.5751e+06
6.18189e+06
5.86499e+06
5.62964e+06
5.48093e+06
5.42378e+06
5.46289e+06
5.6026e+06
5.8469e+06
6.19929e+06
6.66284e+06
7.23999e+06
7.9326e+06
8.74189e+06
9.66839e+06
1.07119e+07
1.18716e+07
1.31457e+07
1.45321e+07
1.60278e+07
1.76294e+07
1.93329e+07
2.11336e+07
2.30266e+07
2.50064e+07
2.70672e+07
2.92029e+07
3.14073e+07
3.36738e+07
3.5996e+07
3.83668e+07
4.07793e+07
4.32266e+07
4.57012e+07
4.81959e+07
5.07031e+07
5.32151e+07
5.5724e+07
5.82217e+07
6.06998e+07
6.31498e+07
6.55631e+07
6.79306e+07
7.02434e+07
7.24929e+07
7.46702e+07
7.6767e+07
7.87758e+07
8.06894e+07
8.25011e+07
8.42056e+07
8.57983e+07
8.72759e+07
8.86365e+07
8.98796e+07
9.10061e+07
9.20168e+07
9.29133e+07
9.36992e+07
9.43786e+07
9.4956e+07
9.54373e+07
9.5829e+07
9.61375e+07
9.6371e+07
9.65388e+07
9.66502e+07
9.67148e+07
9.67441e+07
9.67501e+07
9.67469e+07
9.67507e+07
9.67817e+07
9.68602e+07
9.7011e+07
9.72615e+07
9.7641e+07
9.8183e+07
9.89269e+07
9.99144e+07
1.01191e+08
1.02802e+08
1.04794e+08
1.07212e+08
1.10101e+08
1.13502e+08
1.17452e+08
1.21984e+08
1.27122e+08
1.32885e+08
1.39283e+08
1.46318e+08
1.53986e+08
1.62273e+08
1.71166e+08
1.80636e+08
1.90654e+08
2.01178e+08
2.1218e+08
2.23612e+08
2.35428e+08
2.47573e+08
2.59994e+08
2.72621e+08
2.85383e+08
2.98194e+08
3.10964e+08
3.23578e+08
3.35904e+08
3.47805e+08
3.59121e+08
3.6966e+08
3.79236e+08
3.87658e+08
3.94733e+08
4.00262e+08
4.04044e+08
4.05933e+08
4.05815e+08
4.03575e+08
3.99151e+08
3.92543e+08
3.83851e+08
3.73212e+08
3.60851e+08
3.46968e+08
3.31843e+08
3.15674e+08
2.98733e+08
2.8125e+08
2.63478e+08
3.49725e+07
3.49572e+07
3.49069e+07
3.48223e+07
3.47034e+07
3.45499e+07
3.43614e+07
3.41378e+07
3.38788e+07
3.35844e+07
3.32547e+07
3.28898e+07
3.24898e+07
3.20554e+07
3.1587e+07
3.10852e+07
3.05509e+07
2.99848e+07
2.9388e+07
2.87614e+07
2.81063e+07
2.74238e+07
2.67153e+07
2.59825e+07
2.52269e+07
2.44504e+07
2.3655e+07
2.28426e+07
2.2015e+07
2.11744e+07
2.03228e+07
1.94626e+07
1.85961e+07
1.77258e+07
1.68542e+07
1.59841e+07
1.51185e+07
1.42603e+07
1.34129e+07
1.25797e+07
1.17644e+07
1.09711e+07
1.02038e+07
9.46679e+06
8.76471e+06
8.10232e+06
7.4845e+06
6.91632e+06
6.40291e+06
5.94951e+06
5.56133e+06
5.2436e+06
5.0015e+06
4.84009e+06
4.76423e+06
4.77853e+06
4.8873e+06
5.09443e+06
5.40334e+06
5.81697e+06
6.3377e+06
6.96733e+06
7.70698e+06
8.55712e+06
9.5175e+06
1.05872e+07
1.17646e+07
1.30475e+07
1.44329e+07
1.59175e+07
1.74973e+07
1.9168e+07
2.09246e+07
2.27619e+07
2.46742e+07
2.66557e+07
2.87003e+07
3.08019e+07
3.29539e+07
3.51499e+07
3.73832e+07
3.9647e+07
4.19342e+07
4.42377e+07
4.65503e+07
4.88645e+07
5.11727e+07
5.34674e+07
5.57404e+07
5.79837e+07
6.01893e+07
6.23487e+07
6.44539e+07
6.64969e+07
6.84698e+07
7.03651e+07
7.2176e+07
7.38964e+07
7.55204e+07
7.70438e+07
7.84625e+07
7.97737e+07
8.09767e+07
8.20712e+07
8.30584e+07
8.39395e+07
8.47164e+07
8.53925e+07
8.59717e+07
8.64583e+07
8.68578e+07
8.71752e+07
8.7416e+07
8.75872e+07
8.76973e+07
8.77544e+07
8.77668e+07
8.77443e+07
8.76972e+07
8.76373e+07
8.75792e+07
8.75398e+07
8.7537e+07
8.7592e+07
8.77295e+07
8.79763e+07
8.8362e+07
8.89223e+07
8.9695e+07
9.07214e+07
9.20437e+07
9.3705e+07
9.57477e+07
9.82147e+07
1.01146e+08
1.04578e+08
1.08542e+08
1.13063e+08
1.18162e+08
1.2385e+08
1.30132e+08
1.37008e+08
1.44465e+08
1.52497e+08
1.61077e+08
1.7018e+08
1.79771e+08
1.89825e+08
2.00296e+08
2.11135e+08
2.22294e+08
2.3372e+08
2.4535e+08
2.57114e+08
2.6893e+08
2.80709e+08
2.92343e+08
3.03707e+08
3.1468e+08
3.2511e+08
3.34829e+08
3.43668e+08
3.51455e+08
3.58023e+08
3.63203e+08
3.66815e+08
3.68739e+08
3.68871e+08
3.67106e+08
3.63386e+08
3.5771e+08
3.50155e+08
3.40836e+08
3.29944e+08
3.17639e+08
3.04153e+08
2.89653e+08
2.74375e+08
2.58537e+08
2.42415e+08
3.14885e+07
3.14789e+07
3.14393e+07
3.13712e+07
3.12745e+07
3.11486e+07
3.09932e+07
3.08079e+07
3.05924e+07
3.03464e+07
3.00698e+07
2.97626e+07
2.94248e+07
2.90567e+07
2.86584e+07
2.82304e+07
2.7773e+07
2.72868e+07
2.67724e+07
2.62306e+07
2.56622e+07
2.5068e+07
2.44492e+07
2.38068e+07
2.31424e+07
2.24572e+07
2.17528e+07
2.10308e+07
2.02927e+07
1.95401e+07
1.87751e+07
1.79994e+07
1.7215e+07
1.64242e+07
1.56292e+07
1.48326e+07
1.40369e+07
1.32449e+07
1.24598e+07
1.16848e+07
1.09234e+07
1.01795e+07
9.45688e+06
8.75988e+06
8.09293e+06
7.46069e+06
6.86801e+06
6.31983e+06
5.82121e+06
5.3773e+06
4.99328e+06
4.67431e+06
4.42552e+06
4.25193e+06
4.15835e+06
4.14931e+06
4.22901e+06
4.40125e+06
4.66937e+06
5.03617e+06
5.50393e+06
6.07436e+06
6.74849e+06
7.5267e+06
8.40867e+06
9.39342e+06
1.04793e+07
1.1664e+07
1.29447e+07
1.4318e+07
1.578e+07
1.73265e+07
1.89527e+07
2.06533e+07
2.24231e+07
2.42564e+07
2.61471e+07
2.80894e+07
3.0077e+07
3.21036e+07
3.41629e+07
3.62483e+07
3.83531e+07
4.04702e+07
4.25929e+07
4.4714e+07
4.68263e+07
4.89225e+07
5.09951e+07
5.30365e+07
5.50392e+07
5.69955e+07
5.88981e+07
6.07397e+07
6.25131e+07
6.4212e+07
6.583e+07
6.7362e+07
6.88034e+07
7.01505e+07
7.14e+07
7.25499e+07
7.35998e+07
7.45498e+07
7.54014e+07
7.61559e+07
7.68153e+07
7.73829e+07
7.78623e+07
7.82578e+07
7.85739e+07
7.88149e+07
7.89856e+07
7.90923e+07
7.91419e+07
7.91415e+07
7.90986e+07
7.9021e+07
7.89183e+07
7.88003e+07
7.86799e+07
7.85714e+07
7.849e+07
7.84542e+07
7.84856e+07
7.86086e+07
7.885e+07
7.92412e+07
7.98162e+07
8.06117e+07
8.16665e+07
8.30212e+07
8.47156e+07
8.67903e+07
8.9284e+07
9.22322e+07
9.56658e+07
9.96107e+07
1.04089e+08
1.09115e+08
1.14696e+08
1.20834e+08
1.27522e+08
1.34754e+08
1.42509e+08
1.50765e+08
1.59494e+08
1.68667e+08
1.78245e+08
1.8818e+08
1.9842e+08
2.08919e+08
2.19616e+08
2.3044e+08
2.41313e+08
2.52145e+08
2.62835e+08
2.73267e+08
2.83328e+08
2.92879e+08
3.01773e+08
3.09856e+08
3.16975e+08
3.22983e+08
3.27744e+08
3.31097e+08
3.32946e+08
3.33205e+08
3.31782e+08
3.28625e+08
3.23733e+08
3.17163e+08
3.09015e+08
2.99445e+08
2.88586e+08
2.7662e+08
2.63692e+08
2.49997e+08
2.35743e+08
2.21215e+08
2.8486e+07
2.84806e+07
2.84496e+07
2.83954e+07
2.83176e+07
2.82156e+07
2.80887e+07
2.79367e+07
2.77589e+07
2.75551e+07
2.73248e+07
2.70678e+07
2.67841e+07
2.64735e+07
2.61361e+07
2.57719e+07
2.53811e+07
2.49641e+07
2.45211e+07
2.40525e+07
2.35589e+07
2.30409e+07
2.24994e+07
2.19351e+07
2.13492e+07
2.07427e+07
2.01167e+07
1.94725e+07
1.88113e+07
1.81347e+07
1.7444e+07
1.67409e+07
1.60272e+07
1.53047e+07
1.45755e+07
1.38418e+07
1.31062e+07
1.23711e+07
1.16395e+07
1.09144e+07
1.01993e+07
9.49771e+06
8.8135e+06
8.15078e+06
7.51391e+06
6.90745e+06
6.33616e+06
5.80492e+06
5.3187e+06
4.88259e+06
4.50171e+06
4.18118e+06
3.92607e+06
3.74132e+06
3.63167e+06
3.60154e+06
3.65508e+06
3.79599e+06
4.02745e+06
4.35218e+06
4.77232e+06
5.28943e+06
5.90443e+06
6.61758e+06
7.42847e+06
8.33601e+06
9.3385e+06
1.04336e+07
1.16185e+07
1.28896e+07
1.42431e+07
1.5675e+07
1.71804e+07
1.87544e+07
2.03916e+07
2.20864e+07
2.38332e+07
2.56261e+07
2.74589e+07
2.93258e+07
3.12206e+07
3.3137e+07
3.50686e+07
3.70086e+07
3.89505e+07
4.08875e+07
4.28128e+07
4.47194e+07
4.66004e+07
4.84487e+07
5.02573e+07
5.20193e+07
5.3728e+07
5.53768e+07
5.69594e+07
5.847e+07
5.99034e+07
6.12554e+07
6.25222e+07
6.37005e+07
6.47882e+07
6.57837e+07
6.66869e+07
6.74981e+07
6.82191e+07
6.88512e+07
6.93964e+07
6.9858e+07
7.02393e+07
7.05441e+07