/*--------------------------------*- C++ -*----------------------------------*\
| =========                 |                                                 |
| \\      /  F ield         | OpenFOAM: The Open Source CFD Toolbox           |
|  \\    /   O peration     | Version:  dev                                   |
|   \\  /    A nd           | Web:      http://www.openfoam.org               |
|    \\/     M anipulation  |                                                 |
\*---------------------------------------------------------------------------*/
FoamFile
{
    version     2.0;
    format      ascii;
    class       volScalarField;
    object      rho;
    location    "9.142";
}
// * * * * * * * * * * * * * * * * * * * * * * * * * * * * * * * * * * * * * //

dimensions      [1 -3 0 0 0 0 0];

internalField   nonuniform List<scalar> 
12225
(
1.13745
1.14005
1.14084
1.14038
1.13929
1.13815
1.13573
1.1344
1.13118
1.1295
1.12618
1.12384
1.12069
1.11897
1.11574
1.1145
1.10863
1.09387
1.13757
1.14359
1.14631
1.1476
1.14729
1.14763
1.14497
1.14464
1.14035
1.1395
1.13519
1.13288
1.13047
1.12948
1.12768
1.12597
1.11657
1.10362
1.13767
1.14472
1.14717
1.14921
1.14952
1.15042
1.1496
1.14919
1.14636
1.14468
1.1425
1.1374
1.13761
1.13443
1.13471
1.12498
1.11382
1.10739
1.13783
1.14477
1.14783
1.14823
1.15053
1.14913
1.15098
1.14898
1.14925
1.14459
1.14665
1.13933
1.14002
1.13411
1.13517
1.12593
1.11858
1.1104
1.13885
1.14455
1.14888
1.14785
1.1512
1.14851
1.15058
1.14875
1.14978
1.14516
1.14691
1.14196
1.14207
1.13474
1.13422
1.12847
1.12067
1.11051
1.13954
1.14477
1.14969
1.14903
1.15175
1.14911
1.15137
1.14877
1.14962
1.14549
1.14743
1.1442
1.14311
1.13399
1.13649
1.12905
1.12339
1.11037
1.14067
1.14485
1.15022
1.14959
1.1524
1.15002
1.15276
1.1484
1.1491
1.14648
1.14812
1.14398
1.14138
1.13549
1.13558
1.13054
1.12678
1.11299
1.14239
1.14479
1.15111
1.14937
1.15263
1.15019
1.15388
1.14841
1.1488
1.14658
1.14787
1.14448
1.14067
1.13557
1.13312
1.13182
1.12906
1.1204
1.14364
1.14519
1.15206
1.14915
1.15311
1.15054
1.15444
1.14831
1.14977
1.14617
1.14773
1.14447
1.14233
1.1352
1.13336
1.13192
1.13205
1.12642
1.14543
1.14641
1.15328
1.14969
1.15411
1.15108
1.15459
1.14877
1.15084
1.14768
1.14913
1.14422
1.14333
1.13627
1.13424
1.13253
1.13325
1.12954
1.14715
1.14796
1.15483
1.15096
1.15531
1.15212
1.15498
1.14949
1.15131
1.14866
1.14919
1.14429
1.14324
1.13706
1.1355
1.13362
1.13354
1.13054
1.14907
1.15034
1.15637
1.153
1.15594
1.15352
1.15512
1.15064
1.15135
1.14908
1.14898
1.14481
1.14291
1.13846
1.13636
1.13409
1.1323
1.1301
1.15174
1.15336
1.15765
1.15527
1.15682
1.15517
1.15537
1.15192
1.15154
1.14938
1.1481
1.14501
1.1425
1.13887
1.13621
1.13422
1.13154
1.1296
1.15511
1.15716
1.15973
1.15816
1.15843
1.15705
1.15599
1.15344
1.15205
1.14976
1.14751
1.14481
1.14216
1.13911
1.13656
1.13425
1.1315
1.12931
1.1602
1.16196
1.16296
1.16162
1.16075
1.15912
1.15745
1.15551
1.15343
1.15061
1.14787
1.14522
1.14238
1.13958
1.1369
1.13441
1.13174
1.12938
1.16678
1.16751
1.16767
1.16622
1.16454
1.16239
1.16044
1.15848
1.15568
1.15247
1.14968
1.14689
1.14404
1.14121
1.13825
1.13561
1.1329
1.13049
1.1748
1.17421
1.17394
1.17217
1.16986
1.16752
1.16538
1.16278
1.15941
1.15628
1.15341
1.15018
1.14719
1.14405
1.14093
1.13821
1.1354
1.13302
1.18345
1.1821
1.18186
1.17955
1.17695
1.17468
1.17212
1.16924
1.16612
1.1631
1.16
1.15655
1.15342
1.15006
1.14706
1.14425
1.1413
1.13889
1.19175
1.18948
1.18928
1.18707
1.18482
1.1823
1.17969
1.17731
1.17438
1.17098
1.16774
1.16437
1.1611
1.1579
1.15525
1.15227
1.14952
1.14715
1.19866
1.19586
1.19601
1.19431
1.19192
1.18964
1.18809
1.18559
1.18226
1.17869
1.17571
1.17287
1.1693
1.16642
1.16392
1.16052
1.1583
1.15585
1.20368
1.20061
1.20172
1.20022
1.19782
1.19664
1.19525
1.19242
1.18915
1.1858
1.18393
1.18152
1.17749
1.17507
1.17205
1.16826
1.16668
1.16364
1.20861
1.20492
1.20687
1.20629
1.20378
1.20203
1.20078
1.19835
1.19524
1.19315
1.19178
1.18883
1.18527
1.18243
1.1787
1.17539
1.17365
1.17029
1.21107
1.20808
1.20976
1.21033
1.20867
1.20637
1.20465
1.20194
1.20095
1.20037
1.19751
1.19449
1.1917
1.1876
1.18441
1.18232
1.17935
1.17692
1.21384
1.21135
1.21171
1.21178
1.21349
1.21159
1.20727
1.20569
1.20605
1.20424
1.20057
1.19831
1.19569
1.19153
1.18981
1.18765
1.18417
1.18271
1.21536
1.21313
1.21456
1.21426
1.21451
1.21387
1.21127
1.20985
1.20948
1.20643
1.20328
1.20184
1.1989
1.19587
1.19427
1.19111
1.18837
1.18645
1.21645
1.21408
1.21643
1.2164
1.21553
1.21483
1.21388
1.2121
1.21047
1.20846
1.20568
1.20365
1.20139
1.19832
1.1961
1.19356
1.19072
1.18868
1.21749
1.21506
1.21716
1.2175
1.21732
1.21651
1.21528
1.21374
1.21201
1.21005
1.20784
1.20541
1.20291
1.20031
1.19778
1.19527
1.19277
1.19034
1.218
1.21578
1.21802
1.21823
1.21794
1.21729
1.21634
1.21504
1.21342
1.21145
1.20924
1.20683
1.20436
1.20177
1.1992
1.19656
1.19399
1.19138
1.21833
1.21584
1.21806
1.21844
1.21837
1.21782
1.21675
1.2151
1.21301
1.21059
1.20792
1.20513
1.20226
1.19932
1.1964
1.19346
1.19061
1.18774
1.22186
1.2169
1.21711
1.21607
1.21475
1.21293
1.2107
1.20809
1.20529
1.20236
1.19934
1.1963
1.19325
1.19022
1.18724
1.18431
1.18153
1.17904
1.11377
1.13457
1.13322
1.13543
1.13408
1.13437
1.13309
1.13197
1.12994
1.12754
1.1249
1.12229
1.11983
1.11767
1.11594
1.11532
1.1156
1.11581
1.11594
1.11586
1.11505
1.11598
1.11867
1.12205
1.12513
1.12795
1.13122
1.12928
1.12811
1.1325
1.12504
1.10881
1.10327
1.10842
1.11566
1.12154
1.12659
1.13183
1.13736
1.14166
1.14454
1.14386
1.1395
1.13502
1.13387
1.13435
1.13191
1.12573
1.11896
1.11428
1.11214
1.11214
1.11374
1.11637
1.11926
1.12196
1.1243
1.12622
1.1281
1.13038
1.1335
1.13727
1.1411
1.14482
1.14827
1.15144
1.15455
1.15756
1.1606
1.16386
1.16744
1.17134
1.17576
1.18066
1.18615
1.19195
1.19774
1.20354
1.20917
1.21472
1.22011
1.2257
1.23127
1.23685
1.24206
1.24681
1.25109
1.25468
1.25756
1.25814
1.25645
1.25281
1.24583
1.23763
1.23347
1.23316
1.23591
1.24523
1.25633
1.25684
1.25838
1.25983
1.26419
1.2635
1.26319
1.26403
1.26199
1.25452
1.25036
1.26222
1.28587
1.3046
1.3172
1.32356
1.31946
1.31704
1.30367
1.29288
1.28157
1.27221
1.25836
1.23057
1.22958
1.24122
1.25308
1.26736
1.28158
1.29311
1.2983
1.29999
1.30851
1.33861
1.3576
1.3671
1.34774
1.33158
1.34111
1.34728
1.35526
1.36959
1.38295
1.37843
1.38676
1.40745
1.43281
1.46668
1.47248
1.48984
1.49327
1.50341
1.50754
1.5143
1.52034
1.53363
1.54629
1.56451
1.58252
1.60281
1.627
1.64147
1.65527
1.68016
1.67244
1.67602
1.7171
1.70487
1.67623
1.6183
1.64229
1.68107
1.5916
1.54015
1.52423
1.53165
1.52315
1.46544
1.43311
1.40688
1.39321
1.39563
1.10995
1.14153
1.14021
1.14033
1.13945
1.13733
1.1336
1.12853
1.12195
1.11485
1.10868
1.10343
1.09901
1.09573
1.0928
1.0906
1.0905
1.09113
1.09447
1.09869
1.09186
1.09228
1.10161
1.09071
1.09945
1.11689
1.11286
1.13178
1.14182
1.13457
1.14377
1.14775
1.13844
1.1357
1.14051
1.13823
1.13478
1.14057
1.15576
1.17075
1.18062
1.18853
1.19777
1.1944
1.17487
1.16698
1.18734
1.20612
1.19203
1.15749
1.12875
1.11546
1.11701
1.12878
1.14038
1.14713
1.15195
1.15431
1.15376
1.15239
1.15231
1.15372
1.15593
1.15843
1.16163
1.1657
1.17078
1.17724
1.18529
1.19481
1.20478
1.21486
1.22458
1.23386
1.24207
1.24858
1.25265
1.25466
1.25626
1.26006
1.26708
1.27749
1.28895
1.29983
1.30728
1.30898
1.30457
1.29561
1.28503
1.27296
1.25768
1.23758
1.21638
1.19246
1.19287
1.20421
1.21386
1.22834
1.233
1.23568
1.23991
1.24242
1.25813
1.25933
1.26102
1.28203
1.29138
1.31302
1.34146
1.3162
1.31399
1.37178
1.4234
1.44296
1.43948
1.41632
1.38454
1.37334
1.36526
1.3131
1.26749
1.26957
1.28815
1.29136
1.29269
1.3144
1.34287
1.34031
1.31104
1.27514
1.30179
1.3788
1.38838
1.42586
1.42402
1.39945
1.40557
1.40226
1.4065
1.436
1.45004
1.42343
1.4118
1.43939
1.48829
1.5229
1.53642
1.54624
1.5105
1.51632
1.55321
1.59202
1.60382
1.61037
1.60523
1.61698
1.64149
1.673
1.73396
1.76826
1.80575
1.89492
1.88792
1.86014
1.98057
2.02199
1.94635
1.81343
1.89044
1.85457
1.79038
1.68998
1.71311
1.75246
1.69837
1.5838
1.51604
1.47839
1.49201
1.53114
1.09407
1.13124
1.14001
1.1361
1.13303
1.13112
1.1268
1.11988
1.11246
1.10502
1.09897
1.09514
1.09271
1.09009
1.09033
1.09284
1.08896
1.08641
1.09233
1.08856
1.08871
1.10082
1.09291
1.09341
1.09948
1.08065
1.09545
1.1081
1.10091
1.12157
1.12946
1.12607
1.12577
1.14047
1.15498
1.14872
1.13882
1.13273
1.14046
1.15972
1.16605
1.15396
1.15056
1.15638
1.15465
1.14695
1.14152
1.13585
1.13102
1.13126
1.13344
1.13621
1.14036
1.14289
1.14265
1.14071
1.13724
1.13403
1.13242
1.13171
1.13202
1.13382
1.13736
1.14207
1.14782
1.15432
1.16166
1.16927
1.17614
1.18221
1.18776
1.19382
1.2001
1.20599
1.20902
1.20924
1.20666
1.20387
1.20373
1.20791
1.21485
1.2226
1.22938
1.23477
1.23763
1.23648
1.2313
1.22347
1.21575
1.20957
1.20253
1.19626
1.1958
1.18804
1.20006
1.22487
1.24587
1.2514
1.2303
1.22897
1.23108
1.23441
1.2436
1.24624
1.23247
1.25265
1.27734
1.2588
1.27275
1.30335
1.31423
1.37012
1.43178
1.43526
1.41397
1.36519
1.33334
1.32862
1.30656
1.27941
1.28461
1.29037
1.28402
1.2738
1.27828
1.30403
1.31216
1.29028
1.25642
1.22692
1.27898
1.33032
1.3508
1.40649
1.42433
1.39974
1.42789
1.41691
1.40374
1.43009
1.42442
1.48281
1.46952
1.43854
1.51794
1.47777
1.53243
1.5717
1.49648
1.43072
1.47625
1.56282
1.61498
1.62187
1.59264
1.58195
1.58631
1.61004
1.67129
1.69496
1.78199
1.89121
1.91406
1.90164
2.02912
2.07666
1.95037
1.8735
1.91851
1.7066
1.90313
1.76959
1.8243
1.8156
1.66607
1.60852
1.53207
1.52593
1.57558
1.5911
1.08216
1.11135
1.12596
1.1267
1.12675
1.12838
1.12797
1.12376
1.11815
1.11275
1.1081
1.10399
1.10204
1.10283
1.09772
1.09385
1.09771
1.0976
1.09725
1.09819
1.09824
1.09517
1.10023
1.10662
1.10241
1.11002
1.09842
1.09287
1.11544
1.09642
1.10593
1.13243
1.1269
1.12897
1.11638
1.12713
1.14776
1.14484
1.14015
1.15022
1.16288
1.14898
1.12954
1.1307
1.13789
1.1363
1.13181
1.13215
1.13519
1.13656
1.13648
1.13532
1.13282
1.13149
1.13177
1.1318
1.13206
1.13428
1.13785
1.14161
1.14547
1.14934
1.15355
1.158
1.16218
1.16581
1.16872
1.17062
1.17088
1.16954
1.16778
1.1676
1.16986
1.1735
1.17641
1.17833
1.17991
1.18221
1.18504
1.18728
1.18809
1.18798
1.18807
1.18895
1.19125
1.19442
1.19751
1.201
1.20619
1.21274
1.21583
1.21897
1.22448
1.23344
1.24291
1.24741
1.25314
1.26987
1.27763
1.26118
1.24568
1.23675
1.22752
1.22818
1.24196
1.26026
1.29293
1.29581
1.27644
1.27287
1.28136
1.32454
1.38305
1.42317
1.43412
1.38799
1.34025
1.3225
1.30813
1.30657
1.31016
1.29346
1.27822
1.25998
1.26134
1.2728
1.27366
1.28202
1.27239
1.23519
1.25884
1.30704
1.36744
1.3812
1.40164
1.40349
1.41566
1.42628
1.42117
1.41563
1.41412
1.42393
1.46344
1.41688
1.58547
1.41631
1.46813
1.56968
1.54507
1.41788
1.42652
1.50129
1.58498
1.6002
1.57837
1.56869
1.54723
1.57034
1.631
1.59159
1.71405
1.82915
1.85395
1.87343
2.04321
2.05311
1.89936
1.88457
1.84248
1.70757
1.9185
1.84814
1.86332
1.77147
1.58545
1.60791
1.5475
1.56626
1.59578
1.53282
1.07629
1.09388
1.10513
1.11035
1.11392
1.11629
1.11653
1.114
1.11029
1.10748
1.10246
1.09967
1.09903
1.09262
1.09186
1.09625
1.09324
1.09146
1.09262
1.09011
1.09413
1.09392
1.09588
1.10163
1.09297
1.09508
1.10255
1.1087
1.10071
1.10459
1.10855
1.07303
1.0935
1.12473
1.12706
1.13437
1.13895
1.16204
1.16158
1.14114
1.13192
1.12122
1.11772
1.12731
1.13771
1.14003
1.13846
1.13813
1.13776
1.13708
1.13689
1.13519
1.13237
1.13103
1.1313
1.13302
1.13654
1.14073
1.14427
1.14757
1.15084
1.15393
1.15706
1.16068
1.16487
1.16927
1.17252
1.17385
1.1739
1.17361
1.17442
1.17737
1.18204
1.18682
1.18991
1.19106
1.19192
1.19405
1.19693
1.19963
1.20221
1.20511
1.2081
1.21128
1.21492
1.2182
1.22033
1.22076
1.22269
1.22787
1.22742
1.22506
1.2184
1.21401
1.21721
1.22336
1.19813
1.18245
1.20645
1.2275
1.22553
1.20825
1.19571
1.17839
1.19634
1.2347
1.2736
1.31521
1.32901
1.30931
1.28857
1.28924
1.31611
1.37261
1.41436
1.37477
1.32645
1.31901
1.31914
1.32714
1.32817
1.31386
1.29311
1.26639
1.25969
1.25002
1.24034
1.26405
1.26677
1.23309
1.24731
1.3051
1.36601
1.36761
1.38038
1.4136
1.36737
1.40165
1.42415
1.40394
1.45313
1.40419
1.48266
1.3735
1.59821
1.40531
1.42044
1.47923
1.51329
1.38968
1.41812
1.45007
1.5338
1.56576
1.55257
1.57906
1.55773
1.59365
1.63634
1.52918
1.68392
1.79052
1.75487
1.79955
2.03269
2.00294
1.88594
1.87832
1.85679
1.77237
1.73072
1.86966
1.87829
1.7162
1.56064
1.60565
1.55797
1.57334
1.54046
1.41562
1.07301
1.08539
1.09376
1.09851
1.09948
1.09843
1.09535
1.09385
1.09061
1.08713
1.08901
1.0876
1.08633
1.08767
1.08921
1.09221
1.08845
1.09072
1.09818
1.09334
1.09746
1.1072
1.0977
1.09194
1.10836
1.1146
1.1055
1.09858
1.07501
1.07223
1.09904
1.13339
1.14187
1.12295
1.13316
1.13704
1.145
1.15025
1.12746
1.1203
1.13065
1.13049
1.12413
1.12362
1.13269
1.14099
1.13927
1.13193
1.12701
1.12771
1.13155
1.13346
1.13217
1.12975
1.12867
1.1304
1.13438
1.13852
1.14208
1.14519
1.14791
1.15058
1.15291
1.15473
1.15655
1.15913
1.16274
1.16634
1.16972
1.17352
1.17843
1.18363
1.1884
1.19281
1.19643
1.19834
1.19878
1.19871
1.1992
1.20103
1.20405
1.20697
1.20924
1.21219
1.21543
1.21804
1.22083
1.22241
1.22538
1.23019
1.22913
1.22961
1.2259
1.22278
1.22826
1.24066
1.23936
1.22049
1.20135
1.20861
1.24393
1.2718
1.26504
1.23289
1.21933
1.24767
1.25243
1.25223
1.27949
1.30758
1.30527
1.28747
1.29177
1.3454
1.39867
1.37418
1.32587
1.31722
1.31522
1.31501
1.31623
1.30847
1.28817
1.28218
1.28335
1.26557
1.23001
1.24364
1.26395
1.24948
1.23935
1.26801
1.34469
1.36142
1.35915
1.42411
1.35376
1.43855
1.3523
1.34561
1.39019
1.29839
1.47557
1.36553
1.59501
1.36658
1.39667
1.45495
1.50246
1.35872
1.4145
1.42154
1.48667
1.53968
1.4986
1.57115
1.5681
1.62032
1.59791
1.45775
1.67431
1.77922
1.65228
1.71601
1.98739
1.94965
1.90846
1.8878
1.88429
1.76027
1.71867
1.87839
1.87933
1.67233
1.55494
1.59872
1.55424
1.55399
1.4799
1.40677
1.07026
1.08015
1.08397
1.08391
1.08229
1.08219
1.08087
1.08198
1.08515
1.08582
1.08734
1.09043
1.09352
1.09541
1.09677
1.09785
1.09863
1.10177
1.10079
1.09417
1.09406
1.09583
1.09279
1.09373
1.08889
1.07229
1.07377
1.08481
1.09001
1.10772
1.12129
1.12091
1.11806
1.13776
1.14353
1.12916
1.14247
1.13899
1.11975
1.1206
1.13091
1.13592
1.13479
1.13427
1.14035
1.14646
1.14288
1.13239
1.12408
1.12315
1.12692
1.12952
1.1292
1.12837
1.13009
1.13448
1.14003
1.1454
1.14976
1.15279
1.15472
1.15658
1.15874
1.16046
1.16178
1.16296
1.16476
1.16726
1.16985
1.1715
1.17299
1.17507
1.17821
1.18097
1.18283
1.18499
1.18743
1.19058
1.19578
1.20257
1.2076
1.20929
1.21009
1.2119
1.2122
1.212
1.21404
1.21605
1.22012
1.22439
1.22959
1.23484
1.24082
1.23893
1.24869
1.2426
1.251
1.26021
1.23643
1.21329
1.19632
1.23343
1.24665
1.22917
1.2271
1.24205
1.23298
1.22534
1.23642
1.27115
1.28547
1.28186
1.29629
1.34001
1.38747
1.36995
1.32552
1.31542
1.31307
1.30044
1.27984
1.2666
1.25804
1.28036
1.28112
1.25887
1.21342
1.22197
1.26151
1.2385
1.21216
1.2347
1.27344
1.32439
1.38038
1.36966
1.31489
1.44691
1.34759
1.32584
1.35804
1.23169
1.36061
1.31582
1.48922
1.30302
1.35385
1.39022
1.4369
1.34838
1.40077
1.41435
1.45078
1.51915
1.45202
1.55861
1.56313
1.59309
1.52101
1.41116
1.63447
1.73719
1.57814
1.65772
1.91858
1.9188
1.93431
1.91885
1.90321
1.76823
1.77127
1.88995
1.87003
1.6434
1.55195
1.5911
1.54322
1.5346
1.46919
1.48997
1.06705
1.07326
1.07337
1.0761
1.0796
1.08433
1.08806
1.09153
1.09413
1.09762
1.10116
1.09923
1.10146
1.10296
1.10174
1.10003
1.09118
1.08579
1.08927
1.09087
1.08897
1.08694
1.0875
1.09547
1.10149
1.10432
1.11635
1.1221
1.11049
1.09748
1.10642
1.13379
1.15211
1.15011
1.12657
1.13077
1.15167
1.13551
1.11491
1.11318
1.11972
1.1249
1.1242
1.12423
1.12983
1.13694
1.13791
1.13124
1.12302
1.11964
1.12061
1.12264
1.12477
1.12803
1.13276
1.13779
1.14266
1.14712
1.15077
1.15297
1.15483
1.15701
1.15958
1.16186
1.16369
1.16525
1.1671
1.16966
1.17294
1.17649
1.17985
1.18238
1.18464
1.18701
1.18903
1.1921
1.19752
1.20482
1.21093
1.2136
1.21162
1.20596
1.20188
1.20149
1.20105
1.20213
1.20603
1.21059
1.21362
1.21336
1.21753
1.22063
1.23668
1.23668
1.25463
1.26691
1.25649
1.2672
1.27007
1.26939
1.22062
1.21021
1.22787
1.21507
1.20844
1.21445
1.20566
1.22014
1.25197
1.2882
1.29568
1.28545
1.29821
1.32955
1.37251
1.36535
1.32584
1.3149
1.3136
1.2888
1.23764
1.2167
1.23159
1.25927
1.25446
1.23552
1.20448
1.20449
1.25454
1.24923
1.22927
1.24327
1.22598
1.27368
1.36468
1.31922
1.30887
1.36576
1.38634
1.41036
1.40806
1.31478
1.34281
1.29356
1.34999
1.27093
1.34882
1.38325
1.42193
1.38656
1.39733
1.42227
1.43144
1.50604
1.43917
1.54334
1.55418
1.57536
1.48932
1.41378
1.61989
1.68106
1.5179
1.63824
1.85503
1.91077
1.92513
1.94492
1.92615
1.7758
1.74165
1.90357
1.85458
1.62787
1.54517
1.58227
1.5273
1.51497
1.44954
1.44971
1.06459
1.06946
1.07301
1.08326
1.09014
1.09453
1.09435
1.09186
1.0927
1.09159
1.09155
1.09221
1.09514
1.09697
1.09269
1.08723
1.08733
1.09233
1.09815
1.10078
1.10305
1.1144
1.13084
1.1352
1.12692
1.122
1.1266
1.12618
1.11871
1.12102
1.13987
1.15248
1.14533
1.12787
1.12318
1.14476
1.15007
1.12591
1.11033
1.10757
1.11044
1.11707
1.11915
1.11413
1.11038
1.11271
1.11481
1.11268
1.1104
1.11239
1.11825
1.12442
1.12901
1.13256
1.13603
1.13931
1.14283
1.14568
1.14729
1.14706
1.14631
1.14656
1.14789
1.14885
1.14875
1.14883
1.15088
1.15458
1.1582
1.16128
1.16568
1.17095
1.17512
1.17944
1.18728
1.19695
1.20563
1.21093
1.21056
1.20382
1.19349
1.18586
1.18535
1.19059
1.19478
1.19971
1.20374
1.2139
1.21774
1.21966
1.21459
1.21029
1.21688
1.21892
1.21111
1.23551
1.24902
1.2428
1.24276
1.27634
1.26664
1.23268
1.24676
1.2459
1.23449
1.225
1.19206
1.185
1.2175
1.2808
1.32235
1.31304
1.30216
1.31426
1.35587
1.36154
1.32635
1.31302
1.31844
1.29087
1.21961
1.19132
1.21461
1.20504
1.1829
1.18513
1.17305
1.1587
1.20989
1.24615
1.23417
1.24071
1.24608
1.25104
1.2924
1.29831
1.27024
1.3366
1.32011
1.35376
1.33993
1.32853
1.35076
1.28457
1.33613
1.26982
1.3602
1.38012
1.3941
1.3978
1.40359
1.43533
1.42164
1.48518
1.43347
1.52355
1.54347
1.57008
1.46501
1.39469
1.62023
1.62324
1.44817
1.62494
1.80494
1.90826
1.87631
1.92177
1.93679
1.77665
1.7333
1.89084
1.84202
1.62016
1.53434
1.57311
1.50849
1.49097
1.41745
1.3727
1.06371
1.07032
1.07918
1.08836
1.08726
1.08402
1.08139
1.08142
1.08622
1.0895
1.09484
1.09939
1.10281
1.10386
1.10451
1.10459
1.10675
1.10948
1.11073
1.11859
1.13188
1.1357
1.12405
1.11309
1.11648
1.12444
1.1295
1.13011
1.13103
1.13879
1.14651
1.14331
1.13466
1.12979
1.13762
1.14575
1.13278
1.11357
1.1085
1.11094
1.11725
1.12422
1.12541
1.12183
1.11847
1.11622
1.11456
1.11434
1.11692
1.12299
1.12929
1.13175
1.13146
1.13164
1.13395
1.13756
1.14118
1.14417
1.14556
1.14496
1.143
1.14038
1.13823
1.13726
1.13753
1.13826
1.14261
1.14941
1.15562
1.1609
1.16596
1.17236
1.18153
1.19265
1.20247
1.21133
1.21579
1.21242
1.20089
1.18711
1.18081
1.18565
1.19795
1.21108
1.21403
1.21567
1.21252
1.2245
1.23656
1.24586
1.24009
1.23502
1.2279
1.23188
1.24121
1.21535
1.2087
1.22297
1.2165
1.25257
1.28644
1.26363
1.24778
1.24302
1.23989
1.23686
1.21284
1.2001
1.21012
1.25295
1.31593
1.33588
1.31772
1.31147
1.34815
1.35879
1.32827
1.31341
1.32651
1.31348
1.23522
1.19334
1.19764
1.15939
1.13212
1.15319
1.14341
1.13451
1.18066
1.23123
1.23596
1.23065
1.24452
1.22945
1.23936
1.2065
1.22481
1.26248
1.32285
1.30909
1.26203
1.25589
1.25136
1.24322
1.32684
1.2591
1.35633
1.3723
1.39854
1.41394
1.41485
1.45747
1.40965
1.45454
1.42285
1.50055
1.51449
1.54361
1.41945
1.3546
1.61038
1.55749
1.38407
1.62074
1.75802
1.87922
1.83111
1.87657
1.92709
1.76115
1.70239
1.85853
1.83239
1.61319
1.51808
1.56745
1.49985
1.47729
1.4204
1.38299
1.06346
1.07151
1.0765
1.07974
1.07908
1.08114
1.08654
1.08851
1.0911
1.09404
1.09946
1.10601
1.11276
1.11555
1.11696
1.11746
1.11866
1.12051
1.12285
1.1283
1.13109
1.12567
1.11545
1.11233
1.12367
1.13683
1.14382
1.14892
1.15383
1.15848
1.15824
1.15276
1.14751
1.14477
1.14405
1.13673
1.12325
1.11492
1.11591
1.12069
1.12949
1.13994
1.14522
1.14084
1.12993
1.11979
1.11421
1.11179
1.11307
1.11713
1.12023
1.12079
1.12149
1.12483
1.1299
1.13499
1.13896
1.14205
1.14492
1.14801
1.14944
1.14623
1.14011
1.13561
1.13432
1.1384
1.14596
1.15525
1.16376
1.17042
1.17866
1.18705
1.19253
1.20043
1.21155
1.21762
1.21588
1.20726
1.19275
1.1812
1.18292
1.19728
1.21233
1.22225
1.21579
1.20493
1.20238
1.20179
1.22575
1.2336
1.24557
1.22535
1.23687
1.22852
1.25651
1.27468
1.24656
1.23842
1.2294
1.22389
1.263
1.28154
1.25593
1.2405
1.22803
1.22559
1.20012
1.1862
1.21159
1.24934
1.30039
1.33266
1.32684
1.31609
1.34641
1.35655
1.3274
1.31361
1.32837
1.32281
1.25145
1.20375
1.18161
1.14721
1.13957
1.16304
1.13701
1.13944
1.16159
1.20567
1.20677
1.2107
1.22687
1.24353
1.23475
1.20433
1.24984
1.26855
1.321
1.30377
1.27008
1.27519
1.23794
1.26711
1.29183
1.25473
1.34153
1.36552
1.39647
1.41608
1.39371
1.45465
1.37719
1.41074
1.41668
1.46698
1.45382
1.49171
1.38053
1.33267
1.59323
1.50264
1.34356
1.61897
1.72441
1.8431
1.80441
1.83443
1.89557
1.73856
1.67476
1.85925
1.8139
1.59606
1.49808
1.55617
1.49935
1.46805
1.43817
1.42699
1.06252
1.06838
1.06972
1.07873
1.0853
1.08706
1.08559
1.07719
1.07665
1.08465
1.0971
1.10864
1.11923
1.12714
1.1325
1.13467
1.13708
1.1386
1.13818
1.13886
1.13986
1.1378
1.13444
1.13754
1.14889
1.15482
1.15659
1.15876
1.15814
1.15452
1.14939
1.14421
1.14002
1.13671
1.13149
1.12371
1.11699
1.11699
1.12199
1.12942
1.13755
1.14198
1.13878
1.12803
1.11547
1.10581
1.09932
1.0966
1.09808
1.10151
1.10475
1.10812
1.11269
1.119
1.12433
1.12834
1.13427
1.14301
1.15132
1.15776
1.16
1.15745
1.15152
1.1423
1.136
1.13775
1.14545
1.15623
1.1681
1.17922
1.18811
1.19573
1.20526
1.21138
1.21548
1.21918
1.217
1.20747
1.19549
1.18682
1.18597
1.19662
1.20678
1.20896
1.21673
1.2045
1.21879
1.21773
1.2427
1.23357
1.24675
1.22872
1.19756
1.22017
1.21295
1.22678
1.24187
1.23811
1.25937
1.2269
1.21635
1.24329
1.25293
1.26007
1.25498
1.25347
1.20758
1.17217
1.19346
1.24883
1.2936
1.31667
1.31638
1.31503
1.34369
1.3523
1.32495
1.31108
1.31973
1.31239
1.258
1.20506
1.15911
1.13708
1.13568
1.15152
1.12323
1.14217
1.14744
1.17907
1.17399
1.19163
1.21181
1.26067
1.24605
1.23386
1.23168
1.30667
1.30103
1.24173
1.21021
1.22878
1.20875
1.28324
1.27694
1.29296
1.32424
1.3746
1.4149
1.4497
1.36797
1.41459
1.33049
1.3639
1.41678
1.41857
1.37577
1.42371
1.35524
1.33027
1.56978
1.47449
1.35319
1.60639
1.6732
1.80378
1.7859
1.79617
1.84853
1.70935
1.6474
1.88048
1.78847
1.57996
1.47987
1.5293
1.50823
1.45873
1.44595
1.46201
1.06145
1.06603
1.07142
1.08108
1.08143
1.07872
1.07531
1.07267
1.07881
1.08699
1.09643
1.10522
1.11453
1.12464
1.13478
1.13855
1.13933
1.14253
1.14615
1.14555
1.14589
1.14517
1.14408
1.14555
1.14522
1.14087
1.13694
1.13225
1.12595
1.12106
1.11699
1.11451
1.11193
1.10909
1.10623
1.10459
1.10491
1.10855
1.114
1.12122
1.12849
1.13231
1.12987
1.1224
1.11328
1.10519
1.09943
1.09682
1.09746
1.10068
1.10593
1.11321
1.12157
1.13028
1.13878
1.14742
1.15385
1.15676
1.15827
1.15914
1.16041
1.15927
1.15379
1.14748
1.14176
1.1398
1.14228
1.14873
1.1581
1.16981
1.18397
1.19774
1.20838
1.21846
1.22534
1.22704
1.22413
1.22006
1.21184
1.20172
1.19385
1.19122
1.21121
1.20014
1.20529
1.22412
1.23139
1.25
1.25017
1.26358
1.23189
1.26409
1.22146
1.22155
1.24281
1.22577
1.22657
1.19431
1.23234
1.23779
1.21541
1.23204
1.25797
1.2603
1.25716
1.2679
1.22195
1.18889
1.21828
1.27915
1.30809
1.3094
1.29556
1.30063
1.33527
1.3468
1.3178
1.30694
1.30755
1.30098
1.25412
1.18967
1.13818
1.13516
1.13106
1.14927
1.1372
1.12562
1.1415
1.14763
1.15655
1.17945
1.20106
1.22545
1.25019
1.22659
1.25151
1.26086
1.29896
1.23401
1.18903
1.22828
1.21988
1.30798
1.32555
1.37284
1.35675
1.40216
1.4265
1.44874
1.34102
1.37095
1.30754
1.34704
1.40934
1.36665
1.31557
1.36504
1.34632
1.32411
1.52666
1.45989
1.4211
1.55937
1.58927
1.74433
1.75329
1.75579
1.7952
1.68511
1.608
1.84782
1.7621
1.57116
1.46819
1.48515
1.52007
1.46243
1.43389
1.49162
1.06159
1.06778
1.07511
1.08055
1.08382
1.08447
1.07926
1.07425
1.07585
1.08114
1.08527
1.08815
1.09705
1.10574
1.11201
1.11872
1.12366
1.12474
1.12623
1.12563
1.1246
1.12152
1.11942
1.11592
1.11067
1.10608
1.10094
1.09658
1.09273
1.09059
1.08993
1.08968
1.08986
1.08975
1.09007
1.08977
1.09074
1.09445
1.10059
1.10785
1.11294
1.11484
1.11489
1.11362
1.11061
1.10559
1.10061
1.09877
1.10084
1.10588
1.11353
1.12178
1.12974
1.13778
1.14458
1.14861
1.15241
1.15784
1.16693
1.16795
1.16228
1.16025
1.15688
1.152
1.14838
1.14518
1.14348
1.14427
1.14701
1.15387
1.16241
1.17525
1.19014
1.20354
1.21487
1.22562
1.23393
1.23997
1.23346
1.22308
1.23656
1.21201
1.21811
1.24235
1.21399
1.24528
1.23056
1.23896
1.21955
1.2288
1.20339
1.20474
1.21509
1.20971
1.23481
1.22764
1.25151
1.21095
1.218
1.22309
1.20874
1.2215
1.24981
1.26039
1.25827
1.26125
1.21631
1.1617
1.19741
1.28365
1.32965
1.32162
1.28934
1.2908
1.3249
1.34012
1.31072
1.2986
1.29665
1.28777
1.24423
1.1636
1.12723
1.13882
1.13585
1.1466
1.16103
1.12338
1.13701
1.15438
1.17018
1.17268
1.18024
1.21083
1.20707
1.21676
1.2435
1.26382
1.29127
1.20694
1.18662
1.25765
1.31228
1.41751
1.44001
1.46651
1.42537
1.4491
1.43563
1.41576
1.32156
1.33768
1.30083
1.36171
1.39806
1.34128
1.31349
1.33437
1.35647
1.31505
1.45537
1.44674
1.50149
1.41791
1.43306
1.64034
1.7
1.70259
1.74491
1.66401
1.57622
1.71688
1.74616
1.58107
1.47478
1.44431
1.50561
1.46379
1.39596
1.48816
1.06231
1.06886
1.07466
1.08271
1.08618
1.08008
1.07665
1.07473
1.07168
1.07217
1.07523
1.0778
1.08466
1.08966
1.09116
1.09459
1.09834
1.09786
1.09811
1.09665
1.094
1.08955
1.08748
1.08234
1.07907
1.07583
1.07313
1.07137
1.07114
1.07157
1.07241
1.07374
1.0744
1.07533
1.0763
1.07831
1.08147
1.08503
1.08842
1.09177
1.09546
1.09864
1.09985
1.09922
1.09708
1.09585
1.09736
1.10132
1.10733
1.1156
1.1239
1.1305
1.13535
1.13479
1.1311
1.12911
1.13222
1.13607
1.14028
1.14094
1.14207
1.14605
1.14908
1.14885
1.14836
1.148
1.14785
1.14786
1.14748
1.14963
1.15417
1.15673
1.16251
1.17168
1.17907
1.20329
1.21273
1.21372
1.24273
1.23136
1.23732
1.24909
1.23028
1.25476
1.24148
1.24078
1.24271
1.22773
1.2238
1.22359
1.21571
1.21566
1.22371
1.20238
1.22235
1.20511
1.2198
1.20901
1.22501
1.2317
1.21103
1.20879
1.21518
1.24033
1.25094
1.25865
1.25308
1.18555
1.1799
1.25493
1.32963
1.33457
1.30007
1.29649
1.31832
1.33497
1.30782
1.29093
1.28456
1.27034
1.22999
1.15395
1.12588
1.13446
1.1304
1.14326
1.14466
1.12975
1.13088
1.16775
1.15732
1.15813
1.19069
1.20984
1.19589
1.20301
1.2419
1.24582
1.21925
1.1447
1.21984
1.3185
1.39466
1.48893
1.51524
1.52758
1.45465
1.46559
1.43474
1.39339
1.33231
1.33128
1.31612
1.38121
1.38196
1.31605
1.33202
1.30735
1.35691
1.30938
1.37002
1.44727
1.52207
1.31624
1.24694
1.45951
1.61456
1.63643
1.68991
1.64154
1.54736
1.54215
1.74856
1.61761
1.50689
1.44239
1.46329
1.45796
1.34095
1.44868
1.06298
1.06793
1.07089
1.07744
1.08191
1.08337
1.08293
1.07689
1.07245
1.07314
1.07662
1.07555
1.07637
1.07955
1.07914
1.08004
1.08247
1.0793
1.07968
1.0783
1.07513
1.07409
1.07227
1.06917
1.06932
1.06733
1.06709
1.0668
1.06633
1.06643
1.06623
1.06653
1.06687
1.06845
1.06985
1.0713
1.07335
1.07677
1.08116
1.0852
1.08783
1.09022
1.09375
1.09649
1.09833
1.10084
1.10538
1.11154
1.11744
1.11989
1.11859
1.11634
1.1123
1.10594
1.10168
1.1027
1.10728
1.11179
1.11784
1.12439
1.13104
1.13588
1.1391
1.14116
1.1445
1.14762
1.15081
1.15387
1.15831
1.1618
1.16514
1.16531
1.16248
1.17057
1.15991
1.16842
1.18589
1.17111
1.18822
1.20345
1.20076
1.20877
1.20806
1.21197
1.21141
1.20373
1.2075
1.20263
1.197
1.20388
1.2064
1.20111
1.23604
1.21984
1.22252
1.22185
1.21613
1.19822
1.20488
1.23134
1.22109
1.21307
1.21212
1.23508
1.24167
1.24109
1.25273
1.19482
1.16531
1.22672
1.31075
1.33408
1.31794
1.31014
1.32248
1.32711
1.30577
1.28852
1.27901
1.25836
1.21881
1.15037
1.11654
1.1445
1.13139
1.11956
1.12479
1.11716
1.11572
1.15284
1.14181
1.14614
1.17809
1.19779
1.18018
1.20165
1.24122
1.22141
1.15919
1.16744
1.30022
1.40872
1.49664
1.54111
1.55114
1.54967
1.49333
1.4857
1.43117
1.37759
1.3462
1.34236
1.34561
1.39904
1.36756
1.28554
1.32002
1.28181
1.34065
1.32101
1.31746
1.47022
1.5113
1.36856
1.20725
1.259
1.48255
1.56438
1.62836
1.61815
1.5348
1.43351
1.76422
1.65407
1.54469
1.47452
1.41083
1.43241
1.3122
1.41605
1.06435
1.06856
1.07018
1.07427
1.08159
1.08612
1.08306
1.07715
1.07457
1.07214
1.07411
1.07567
1.07557
1.07641
1.07715
1.07662
1.07824
1.07783
1.07634
1.07742
1.0749
1.07477
1.07462
1.07409
1.07551
1.07545
1.07628
1.07733
1.07848
1.07894
1.07912
1.07904
1.07939
1.07961
1.08087
1.08327
1.08634
1.08853
1.09073
1.09301
1.09687
1.0997
1.10111
1.10274
1.10561
1.10959
1.11365
1.11519
1.1126
1.10681
1.10102
1.09789
1.09591
1.09649
1.10313
1.11506
1.12541
1.1358
1.147
1.15469
1.15873
1.16103
1.16195
1.16206
1.16362
1.16563
1.17021
1.17073
1.17599
1.17757
1.1732
1.1801
1.17736
1.17597
1.1871
1.17297
1.18127
1.18883
1.1762
1.18048
1.17326
1.18377
1.18382
1.18226
1.18631
1.18598
1.18988
1.18583
1.20341
1.19143
1.21022
1.1942
1.20111
1.19592
1.19694
1.21397
1.21613
1.22146
1.21039
1.22244
1.21685
1.20738
1.20765
1.2312
1.24962
1.24327
1.25024
1.20069
1.15839
1.20311
1.2806
1.31353
1.31786
1.31792
1.32607
1.31921
1.30038
1.28764
1.28801
1.25673
1.20986
1.15577
1.11126
1.13524
1.13379
1.10309
1.12428
1.11355
1.09498
1.13472
1.13263
1.14808
1.17835
1.18988
1.15819
1.20184
1.22878
1.16351
1.10143
1.2392
1.39185
1.45896
1.51432
1.50955
1.50108
1.49739
1.48562
1.47768
1.42982
1.39226
1.3642
1.37345
1.37803
1.41657
1.34173
1.26195
1.29598
1.26622
1.32343
1.34147
1.34448
1.48486
1.50516
1.4294
1.31848
1.14547
1.31492
1.46776
1.56448
1.59442
1.54238
1.44628
1.72694
1.65254
1.56724
1.50381
1.39157
1.40606
1.34722
1.39309
1.06723
1.07189
1.07406
1.07773
1.08414
1.0883
1.08928
1.08335
1.07941
1.07417
1.07294
1.07459
1.07738
1.0794
1.08039
1.08095
1.07889
1.07882
1.07876
1.07983
1.08028
1.08249
1.08432
1.08541
1.08736
1.08926
1.09073
1.09172
1.09269
1.09364
1.0947
1.09594
1.09733
1.09808
1.09856
1.09918
1.10084
1.10297
1.10527
1.10624
1.10683
1.10922
1.11094
1.11022
1.11004
1.11226
1.11197
1.10711
1.10075
1.0956
1.09284
1.09436
1.1
1.10876
1.12138
1.13474
1.14292
1.14806
1.15431
1.15671
1.15736
1.15622
1.15355
1.14955
1.14513
1.14643
1.15163
1.1513
1.15549
1.15991
1.15792
1.15715
1.16794
1.1546
1.16578
1.18068
1.17552
1.19121
1.1912
1.19833
1.18958
1.19321
1.19002
1.1869
1.20044
1.18872
1.20583
1.19805
1.21048
1.20353
1.20554
1.20278
1.20848
1.2065
1.19231