/*--------------------------------*- C++ -*----------------------------------*\
| =========                 |                                                 |
| \\      /  F ield         | OpenFOAM: The Open Source CFD Toolbox           |
|  \\    /   O peration     | Version:  dev                                   |
|   \\  /    A nd           | Web:      http://www.openfoam.org               |
|    \\/     M anipulation  |                                                 |
\*---------------------------------------------------------------------------*/
FoamFile
{
    version     2.0;
    format      ascii;
    class       volScalarField;
    object      T;
    location    "9.142";
}
// * * * * * * * * * * * * * * * * * * * * * * * * * * * * * * * * * * * * * //

dimensions      [0 0 0 1 0 0 0];

internalField   nonuniform List<scalar> 
12225
(
302.062
301.278
300.868
300.683
300.531
300.348
300.317
300.05
300.051
299.715
299.674
299.357
299.121
298.493
298.156
297.106
296.613
298.248
302.048
300.373
299.46
298.817
298.467
297.886
297.927
297.389
297.67
297.107
297.321
296.996
296.55
295.733
295.007
294.013
294.418
295.969
302.077
300.14
299.298
298.461
297.949
297.216
296.795
296.253
296.182
295.817
295.481
295.862
294.749
294.487
293.206
294.289
295.273
295.404
302.136
300.23
299.23
298.818
297.791
297.649
296.546
296.401
295.548
295.938
294.514
295.456
294.229
294.672
293.162
294.154
294.365
295.102
302.013
300.448
299.114
299.075
297.778
297.963
296.809
296.611
295.577
295.945
294.608
294.928
293.866
294.686
293.601
293.712
294.222
295.559
302.048
300.615
299.129
298.994
297.859
298.03
296.83
296.826
295.846
296.084
294.703
294.58
293.848
295.131
293.29
293.943
293.947
296.168
302.042
300.903
299.3
299.156
298.001
298.099
296.781
297.227
296.291
296.141
294.833
294.949
294.628
295.094
293.896
294.107
293.356
296.233
301.937
301.268
299.421
299.566
298.292
298.404
296.842
297.57
296.714
296.468
295.253
295.185
295.184
295.476
295.016
294.261
293.468
295.27
301.986
301.542
299.553
300.002
298.545
298.688
297.072
297.97
296.839
296.951
295.671
295.586
295.166
296.008
295.445
294.794
293.627
294.422
302.017
301.725
299.742
300.36
298.784
299.043
297.529
298.345
297.059
297.061
295.821
296.172
295.453
296.304
295.832
295.305
294.177
294.363
302.246
301.983
299.999
300.688
299.128
299.426
298.077
298.809
297.584
297.464
296.472
296.837
296.181
296.837
296.294
295.858
295.01
294.991
302.617
302.23
300.469
301.019
299.825
299.918
298.888
299.358
298.422
298.206
297.392
297.585
297.173
297.414
297.052
296.763
296.399
296.174
303.044
302.573
301.264
301.553
300.71
300.599
299.926
300.125
299.472
299.233
298.728
298.663
298.432
298.493
298.311
297.985
297.87
297.6
303.639
303.048
302.182
302.251
301.728
301.534
301.178
301.137
300.742
300.539
300.293
300.139
299.967
299.899
299.715
299.495
299.422
299.231
304.175
303.668
303.194
303.191
302.944
302.8
302.584
302.372
302.145
302.076
301.956
301.801
301.688
301.57
301.436
301.276
301.195
301.059
304.852
304.564
304.28
304.278
304.215
304.177
304.008
303.778
303.721
303.737
303.622
303.497
303.386
303.279
303.225
303.105
303.034
302.913
305.572
305.632
305.432
305.474
305.537
305.507
305.35
305.25
305.311
305.276
305.159
305.128
305.036
304.999
304.973
304.863
304.804
304.66
306.381
306.596
306.353
306.49
306.576
306.479
306.377
306.301
306.248
306.144
306.044
306.035
305.949
305.937
305.847
305.733
305.685
305.521
306.934
307.385
307.094
307.16
307.104
307.016
306.875
306.617
306.464
306.409
306.301
306.228
306.137
306.043
305.827
305.721
305.583
305.375
307.424
307.948
307.52
307.406
307.339
307.141
306.678
306.404
306.307
306.252
306.034
305.782
305.73
305.517
305.224
305.196
304.887
304.667
307.95
308.479
307.762
307.553
307.449
306.927
306.385
306.155
306.002
305.849
305.31
304.911
304.944
304.579
304.392
304.435
303.932
303.84
308.06
308.725
307.761
307.284
307.172
306.765
306.155
305.791
305.563
305.058
304.362
304.076
303.957
303.675
303.645
303.539
303.056
303.024
308.459
308.936
308.02
307.227
306.872
306.577
306.061
305.743
304.953
304.041
303.702
303.412
303.073
303.093
302.906
302.465
302.28
301.992
308.532
308.86
308.262
307.577
306.35
305.934
306.054
305.432
304.284
303.667
303.515
303.014
302.618
302.635
302.061
301.624
301.555
301.005
308.707
308.956
308.075
307.471
306.598
305.849
305.52
304.842
303.865
303.548
303.254
302.535
302.209
301.927
301.312
301.118
300.852
300.407
308.831
309.105
307.978
307.295
306.695
305.952
305.195
304.598
303.93
303.344
302.946
302.367
301.863
301.582
301.116
300.759
300.51
300.091
308.847
309.121
308.05
307.265
306.484
305.762
305.07
304.404
303.755
303.148
302.603
302.119
301.67
301.266
300.872
300.503
300.162
299.835
308.887
309.105
307.994
307.239
306.48
305.712
304.947
304.218
303.537
302.927
302.377
301.885
301.426
301.018
300.631
300.291
299.964
299.679
308.906
309.19
308.076
307.277
306.458
305.662
304.924
304.281
303.715
303.216
302.779
302.38
302.02
301.698
301.397
301.134
300.877
300.657
308.073
308.966
308.36
307.913
307.408
306.931
306.483
306.079
305.692
305.324
304.977
304.644
304.33
304.034
303.753
303.487
303.217
302.903
282.309
277.14
277.485
276.964
277.32
277.284
277.638
277.961
278.515
279.172
279.897
280.63
281.337
281.981
282.53
282.811
282.874
282.964
283.083
283.284
283.661
283.608
283.12
282.474
281.92
281.448
280.882
281.628
282.198
281.395
283.578
288.082
289.872
288.89
287.4
286.301
285.45
284.579
283.667
283.094
282.918
283.625
285.273
286.982
287.876
288.379
289.655
291.926
294.397
296.356
297.664
298.417
298.757
298.836
298.858
298.946
299.137
299.444
299.768
299.986
299.979
299.801
299.602
299.426
299.316
299.267
299.226
299.2
299.153
299.035
298.825
298.522
298.078
297.506
296.783
295.985
295.19
294.4
293.653
292.936
292.262
291.551
290.852
290.163
289.567
289.082
288.707
288.48
288.402
288.826
289.741
291.08
293.165
295.517
296.871
297.242
296.817
294.765
292.265
292.183
291.79
291.351
290.163
290.056
289.784
289.174
289.172
290.386
290.816
287.543
281.734
277.201
274.118
272.473
273.119
273.568
276.454
278.962
281.772
284.376
288.206
295.599
296.902
295.354
293.948
292.179
290.622
289.856
290.676
292.418
292.695
288.171
286.35
286.684
293.324
299.577
300.281
301.785
302.989
302.821
302.94
307.023
308.171
306.705
304.143
300.463
302.154
301.406
303.462
304.107
305.621
306.436
307.308
306.69
306.153
304.369
302.544
300.173
296.999
295.509
293.808
289.967
291.559
290.747
283.204
284.243
287.669
296.092
289.676
280.86
293.514
300.097
299.851
294.926
292.975
300.754
303.994
306.33
306.376
303.199
283.178
275.351
275.685
275.677
275.918
276.467
277.42
278.714
280.403
282.251
283.894
285.325
286.565
287.529
288.413
289.122
289.29
289.272
288.548
287.612
289.588
289.668
287.414
290.499
288.414
284.146
285.428
280.918
278.726
280.803
278.854
278.216
280.835
281.876
281.075
282.046
283.329
282.336
279.089
276.005
274.207
272.905
271.338
272.664
277.782
280.269
276.083
272.424
276.317
285.269
293.264
297.509
297.862
295.533
293.314
292.384
291.958
292.164
293.112
294.271
295.102
295.549
295.787
295.943
295.91
295.651
295.125
294.252
292.985
291.356
289.637
287.907
286.281
284.771
283.522
282.667
282.365
282.525
282.773
282.526
281.567
279.875
277.988
276.262
275.287
275.527
277.052
279.556
282.431
285.663
289.665
294.874
300.48
306.934
307.198
304.615
302.44
299.057
298.041
297.437
296.394
295.694
291.826
291.295
290.573
285.41
282.891
277.753
271.371
276.061
276.022
263.931
253.958
250.203
250.617
254.658
260.566
262.864
264.734
275.748
286.346
286.714
283.578
284.035
285.063
281.807
277.414
279.68
287.837
298.037
294.075
279.637
279.865
274.744
277.493
284.916
286.376
289.785
291.762
288.609
288.691
297.069
302.418
299.595
292.474
288.939
289.143
289.912
299.427
300.911
296.024
290.873
290.704
291.446
294.253
293.798
290.956
286.838
277.94
273.581
268.6
256.432
257.633
261.344
245
239.176
247.252
263.737
251.209
254.15
260.555
273.096
266.426
257.392
262.354
277.893
286.986
291.152
285.742
276.01
287.088
277.661
275.539
276.51
277.283
277.787
278.894
280.666
282.596
284.566
286.21
287.296
288.029
288.826
288.877
288.343
289.51
290.339
288.925
290.097
290.241
287.238
289.52
289.603
288.233
293.502
289.792
286.753
288.917
283.894
282.228
283.416
283.846
280.555
277.417
279.34
282.201
284.172
282.72
278.517
277.525
280.974
282.365
281.52
282.542
285.072
287.085
289.204
291.145
291.809
291.989
292.027
291.726
291.857
292.709
294.024
295.733
297.394
298.646
299.669
300.423
300.778
300.667
300.243
299.542
298.647
297.538
296.362
295.378
294.592
293.93
293.14
292.289
291.536
291.471
292.075
293.352
294.682
295.362
294.986
293.948
292.729
291.761
291.134
291.109
292.025
293.894
296.407
298.905
301.023
303.348
305.464
306.065
308.498
305.786
299.911
295.114
294.001
299.165
299.543
299.01
298.111
295.749
294.888
297.862
292.674
286.579
290.317
286.635
279.397
276.588
264.855
253.054
252.115
255.691
264.741
271.101
272.215
277.11
283.455
282.937
282.466
284.821
288.229
288.489
284.198
283.997
290.535
300.261
309.548
299.042
289.594
287.371
278.261
277.167
284.556
281.597
286.423
291.928
289.357
293.36
284.633
289.944
299.12
286.077
296.87
288.981
284.237
301.077
317.606
310.131
295.027
287.435
288.085
295.212
298.863
299.569
296.499
286.81
283.824
270.657
255.515
252.748
254.325
237.996
231.828
245.685
254.268
246.584
275.143
244.374
259.992
249.421
247.645
266.596
272.836
283.205
281.342
269.874
264.9
289.967
282.358
278.708
278.547
278.563
278.197
278.343
279.437
280.898
282.326
283.586
284.726
285.322
285.223
286.665
287.807
286.93
287.106
287.358
287.281
287.452
288.452
287.33
285.889
287.213
285.486
288.762
290.508
284.917
290.175
288.006
281.606
283.35
283.214
286.814
284.502
279.825
281
282.641
280.666
278.128
282.045
287.478
287.771
286.566
287.614
289.431
290.038
289.971
290.359
291.128
292.192
293.618
294.758
295.493
296.306
297.069
297.325
297.23
297.093
296.931
296.769
296.515
296.196
295.941
295.822
295.873
296.173
296.874
297.97
299.166
299.947
300.09
299.872
299.829
300.035
300.318
300.412
300.371
300.483
300.957
301.667
302.332
302.8
302.905
302.787
302.68
302.461
301.796
300.772
300.581
300.339
299.476
297.737
295.856
295.119
294.048
290.387
288.755
292.576
296.203
298.261
300.356
299.984
296.367
291.705
283.93
282.844
286.645
286.947
284.556
274.836
262.819
255.072
252.876
261.151
270.449
274.187
277.447
278.187
277.991
282.306
286.557
291.747
292.623
291.338
292.651
292.37
296.334
307.183
303.445
294.354
283.464
282.93
281.208
283.297
283.533
283.959
287.712
291.605
294.684
295.517
290.199
302.622
272.863
308.364
300.192
283.161
290.003
318.584
318.967
305.165
290.97
290.039
295.834
299.259
304.896
301.701
291.614
299.812
279.083
262.04
258.829
256.137
234.636
232.867
250.659
251.261
255.268
273.396
241.247
247.713
243.021
252.571
278.843
271.763
279.222
272.981
265.371
273.871
291.199
286.524
283.625
282.315
281.44
280.881
280.867
281.556
282.556
283.34
284.705
285.509
285.769
287.546
287.861
286.832
287.758
288.374
288.225
289.062
288.181
288.433
288.126
286.849
289.358
289.054
287.361
286.053
288.429
287.735
287.044
296.911
291.731
284.02
283.849
282.454
281.771
276.639
277.239
282.713
285.541
288.823
290.344
288.468
286.452
286.521
287.598
288.385
289.199
290.113
290.922
292.135
293.655
294.814
295.565
295.95
295.875
295.636
295.575
295.579
295.595
295.657
295.704
295.62
295.385
295.093
295.082
295.548
296.321
297.17
297.732
297.737
297.302
296.832
296.778
297.201
297.689
297.852
297.827
297.849
297.904
297.882
297.842
297.761
297.568
297.462
297.629
298.195
298.375
297.735
298.434
299.56
301.709
303.265
302.882
301.718
308.374
312.708
306.66
301.483
301.965
306.199
309.263
313.608
308.646
298.732
289.244
279.691
276.325
279.992
284.012
283.42
277.238
265.483
257.377
264.614
274.199
275.805
275.961
274.635
274.904
278.518
283.755
290.654
293.268
296.786
300.529
296.414
297.409
307.319
305.755
294.243
283.213
285.141
284.861
280.554
292.791
288.104
286.205
293.015
285.697
298.434
285.171
310.648
269.308
308.976
308.314
298.488
294.022
322.6
318.352
313.375
298.158
293.85
298.056
294.553
299.984
294.403
287.768
308.819
281.119
264.919
270.577
263.923
233.579
236.535
250.319
250.109
251.365
261.39
265.59
243.225
239.515
259.027
281.562
270.594
275.807
270.261
273.413
294.99
291.691
288.372
286.184
284.973
284.755
285.065
285.913
286.357
287.265
288.25
287.825
288.28
288.707
288.454
288.156
287.486
288.616
288.162
286.36
287.799
286.899
284.568
287.243
288.984
284.947
283.611
286.225
288.325
294.967
296.065
289.186
280.78
279.072
284.176
282.033
281.517
280.021
279.223
285.386
287.723
285.626
286.241
288.463
289.211
287.534
286.104
287.231
289.81
291.814
292.388
292.171
292.472
293.616
295.069
296.193
296.592
296.413
296.202
296.155
296.23
296.409
296.599
296.873
297.271
297.659
297.846
297.763
297.675
297.631
297.47
297.02
296.494
296.07
295.728
295.575
295.837
296.451
297.188
297.785
298.047
298.015
298.013
298.175
298.173
298.102
298.186
298.215
298.527
298.476
297.955
298.822
299.278
300.709
301.956
301.04
298.406
299.024
303.889
308.925
307.191
298.508
291.909
293.335
300.793
303.904
296.72
295.255
294.917
288.194
281.526
281.545
284.987
283.632
271.984
261.341
265.783
275.356
277.164
277.694
277.992
278.121
280.279
285.338
287.425
288.075
293.206
302.962
301.046
297.717
302.793
307.093
302.133
286.973
285.622
288.376
277.539
294.647
279.621
300.111
304.289
297.151
320.982
284.939
310.514
268.132
315.523
311.156
301.04
293.679
327.015
316.205
316.557
304.522
295.708
305.435
292.723
294.579
286.146
291.118
319.918
279.234
263.291
283.767
273.367
236.101
240.317
244.812
246.426
245.344
260.737
265.118
240.132
237.437
263.722
280.488
269.841
274.549
271.757
282.708
294.921
292.011
289.348
288.345
288.393
288.857
288.922
289.319
289.071
288.282
288.166
287.832
287.094
286.369
285.973
285.729
285.572
285.507
284.842
285.252
287.151
287.364
287.097
288.114
288.095
289.632
294.392
294.276
291.584
290.518
286.204
283.086
283.55
284.662
280.139
279.157
283.181
280.346
281.7
287.061
287.371
285.299
284.621
285.51
286.267
285.388
284.541
286.138
289.518
292.411
293.427
293.235
293.369
294.282
295.342
295.752
295.473
294.913
294.417
294.194
294.318
294.727
295.148
295.493
295.943
296.486
297.059
297.467
297.69
297.877
298.293
298.741
299.03
299.039
299.13
299.44
299.665
299.811
299.77
299.213
298.267
297.764
298.088
298.636
298.936
299.614
300.414
300.653
300.885
300.587
300.216
299.585
298.908
298.01
298.963
297.07
298.919
297.242
295.317
301.186
307.054
311.485
302.104
298.789
302.858
303.146
299.232
301.104
302.591
299.446
290.801
287.091
287.454
283.849
274.242
264.563
267.69
276.487
278.535
279.046
281.9
286.708
290.093
292.571
288.089
288.687
294.712
306.856
305.975
297.773
304.803
313.15
309.351
302.004
292.502
282.785
287.306
301.879
276.639
299.498
307.027
302.328
336.095
306.88
319.858
284.974
328.181
318.173
312.146
304.142
326.175
315.912
314.616
308.442
296.097
311.27
291.263
291.576
287.06
301.542
325.776
282.002
265.827
292.825
278.995
241.24
241.026
238.572
239.592
240.131
256.698
254.55
236.344
236.301
265.852
278.529
268.834
274.22
272.967
282.523
276.292
292.454
290.769
290.764
290.049
289.141
287.914
286.967
286.1
285.474
284.626
283.778
284.353
283.867
283.582
284.007
284.573
287.018
288.595
287.838
287.591
288.286
289.031
289.105
287.241
285.917
285.445
282.646
281.498
284.763
288.477
286.502
279.957
275.892
276.802
283.026
282.436
277.787
282.256
288.001
288.996
287.878
287.145
287.946
288.583
287.818
286.711
287.184
289.623
292.511
294.183
294.739
295.038
295.328
295.338
294.98
294.564
294.206
293.972
293.958
294.317
294.767
295.136
295.402
295.739
296.182
296.684
297.105
297.353
297.401
297.365
297.371
297.579
297.843
298.071
298.374
298.407
297.84
296.813
296.084
296.197
297.441
299.598
301.378
302.249
303.141
303.651
303.444
303.062
303.044
303.823
303.456
303.318
299.962
300.487
296.658
294.185
296.966
294.732
294.261
294.534
306.352
309.004
304.476
307.513
308.982
307.189
309.11
305.072
296.904
288.114
285.987
287.819
284.592
277.53
268.518
269.624
277.414
279.561
279.736
285.123
297.029
302.382
299.08
292.999
294.748
300.031
308.693
309.798
298.697
301.313
307.763
306.065
312.353
302.728
284.61
296.727
301.455
291.31
289.247
286.65
289.52
312.435
308.452
322.636
311.594
333.335
316.23
310.482
304.056
313.596
312.904
308.966
308.547
294.64
309.617
289.89
288.877
285.868
303.161
320.079
280.11
270.391
299.603
277.901
245.69
238.473
236.287
233.13
234.143
252.31
255.678
231.969
235.585
265.478
276.856
267.672
274.428
273.935
283.754
281.476
292.711
291.387
290.442
287.715
285.926
284.812
284.898
285.594
285.427
285.776
285.856
285.761
285.086
284.711
285.94
287.503
287.614
286.446
285.086
284.58
284.181
281.484
277.603
276.762
279.039
280.527
279.66
280.067
282.267
282.027
277.716
275.054
277.175
281.897
283.526
278.646
277.852
284.338
288.873
290.157
289.994
288.886
288.987
290.955
292.63
292.735
292.929
294.255
295.649
295.932
295.209
294.439
294.107
294.066
294.061
294.124
294.139
294.341
294.87
295.882
297.032
297.924
298.542
299.249
300.226
301.148
301.547
301.514
301.493
301.606
301.366
300.896
300.705
300.465
299.328
297.74
296.415
295.924
296.811
299.263
302.639
305.371
306.29
305.734
305.466
305.017
304.798
303.034
302.841
303.097
305.066
306.811
305.768
305.813
308.286
302.64
299.738
301.531
301.765
293.963
296.247
304.405
300.908
300.958
303.521
305.602
313.718
315.221
306.416
290.861
281.279
282.821
284.772
281.772
272.766
271.276
278.155
280.714
279.347
285.162
301.761
308.994
303.264
306.018
312.225
312.264
316.264
321.152
308.709
300.951
305.271
305.297
305.775
306.537
298.744
299.585
308.452
295.516
301.434
296.223
301.671
306.527
303.86
321.822
311.694
330.164
310.211
307.638
306.416
307.166
307.371
301.95
306.213
294.325
306.038
289
286.139
282.074
303.013
319.02
275.354
275.295
308.65
275.416
248.258
234.854
238.519
232.256
229.368
248.514
253.302
230.477
234.156
263.462
275.532
266.219
274.856
275.439
287.256
294.436
292.576
290.778
288.406
285.991
286.306
287.193
287.929
287.963
286.743
285.937
284.608
283.507
282.711
282.536
282.483
282.585
282.166
281.615
281.457
279.65
276.549
275.817
278.887
281.861
281.25
279.519
278.551
278.705
278.803
277.249
275.746
276.907
279.433
281.073
279.593
278.084
281.774
287.17
289.037
288.976
287.943
286.782
287.129
288.725
290.294
291.607
292.796
293.629
293.75
292.98
292.183
292.408
293.364
294.218
294.535
294.532
294.543
294.729
295.337
296.47
297.962
299.638
301.214
302.463
303.376
304.164
303.979
303.146
302.474
302.046
301.67
300.944
299.515
297.612
296.055
294.75
294.513
296.165
299.834
304.131
306.56
306.105
303.756
301.259
301.332
301.739
303.338
301.171
299.009
297.515
299.601
301.498
303.867
303.453
301.67
308.538
310.636
307.328
309.2
300.473
292.625
297.879
301.598
302.603
303.149
303.607
309.278
312.186
309.201
298.225
283.536
278.857
282.258
283.186
275.078
272.518
278.379
281.163
278.056
280.517
298.044
308.387
307.3
317.601
325.562
320.086
323.457
326.815
315.04
303.207
303.259
306.089
304.335
309.917
309.384
319.92
317.307
310.175
298.145
303.505
317.195
321.069
324.614
329.02
310.426
329.106
307.432
305.521
301.412
299.492
300.51
292.897
303.994
295.676
303.2
288.414
286.503
281.817
307.178
322.643
272.119
281.82
317.176
271.128
250.235
234.183
240.076
233.745
226.692
246.687
253.859
231.06
232.015
260.979
274.829
263.843
273.147
274.796
283.522
289.222
292.332
290.146
288.813
287.966
288.164
287.645
286.247
285.768
285.137
284.424
283.084
281.477
279.848
279.238
278.988
278.981
278.813
278.496
278.072
276.898
276.4
277.93
280.691
281.708
279.108
276.138
274.728
273.806
272.962
272.209
272.633
274.318
275.987
277.084
277.717
279.991
283.866
286.524
286.829
286.186
284.561
282.581
281.933
283.697
287.148
290.486
292.706
294.131
294.604
294.37
294.415
295.15
295.87
295.915
295.525
295.154
295.094
295.279
295.527
295.735
296.37
298.215
300.842
303.055
304.418
304.337
303.328
301.88
300.656
299.916
298.78
297.616
297.181
296.144
294.327
293.748
295.041
298.01
302.484
306.276
306.654
303.785
300.817
299.179
301.585
305.131
306.604
307.577
302.356
301.193
299.008
304.616
302.412
305.036
298.752
294.925
301.946
304.249
306.705
308.269
298.823
294.482
300.392
303.965
306.815
307.123
313.279
316.564
309.521
299.744
287.554
280.149
280.912
282.742
275.919
273.387
278.905
281.362
277.79
278.526
293.991
305.344
310.901
320.202
322.484
316.284
323.987
323.929
318.592
307.91
308.718
309.073
306.517
304.079
308.039
317.74
308.141
305.69
295.647
301.65
311.834
312.818
324.476
319.15
315.063
326.123
306.823
302.861
297.526
294.601
300.336
288.724
305.965
299.656
299.199
289.706
292.963
286.198
309.997
321.885
269.939
286.72
320.762
266.235
250.113
234.134
238.98
234.644
226.296
245.554
253.619
227.277
230.668
259.834
274.499
262.1
269.671
273.056
276.675
277.125
292.377
290.78
290.43
288.021
286.299
285.861
286.281
288.55
288.736
286.654
283.456
280.568
277.986
276.119
274.909
274.492
274.033
273.801
274.054
274.055
273.993
274.681
275.703
275.177
272.698
271.557
271.417
271.207
271.674
272.872
274.458
276.096
277.527
278.779
280.532
282.969
285.192
285.732
285.023
283.734
282.317
281.863
283.325
286.725
290.683
293.98
296.501
298.046
298.479
298.411
298.419
298.42
298.118
297.382
296.933
296.855
296.3
295.035
293.911
293.292
293.746
295.421
297.98
301.426
304.141
304.709
303.688
301.875
299.817
297.986
296.74
295.82
294.436
293.89
293.827
293.846
295.268
298.478
302.337
305.394
306.452
304.554
302.809
303.086
301.967
305.856
303.086
304.153
298.825
301.786
299.318
304.365
312.93
307.708
310.058
307.02
303.66
304.9
299.968
308.044
310.809
304.071
301.624
299.738
300.704
300.745
311.779
320.774
314.62
300.233
289.391
283.852
283.423
283.204
276.646
274.342
279.431
281.809
279.393
280.389
291.94
304.303
316.017
321.955
322.327
318.036
326.339
321.387
320.581
312.816
315.117
311.621
307.811
297.352
302.459
307.189
309.566
293.644
296.918
313.168
323.47
320.808
328.325
311.252
314.655
312.322
306.468
296.454
289.11
283.157
300.937
291.844
311.152
304.43
293.757
294.002
303.746
294.157
309.793
316.32
268.68
286.628
312.492
262.971
252.369
234.275
236.543
234.854
227.57
245.097
253.085
220.725
229.991
258.274
273.588
262.728
264.272
271.05
271.595
267.123
292.581
291.329
289.876
287.3
287.226
287.97
288.909
289.652
288.044
285.919
283.506
281.31
279.023
276.591
274.206
273.399
273.325
272.689
271.969
272.269
272.361
272.721
273.185
273.054
273.37
274.67
275.908
277.356
279.238
280.811
282.212
283.243
284.329
285.509
286.725
287.653
288.096
287.701
286.865
285.615
284.401
284.091
285.387
287.997
291.097
293.996
296.331
297.856
298.529
298.527
298.002
296.967
295.688
294.356
293.128
291.9
291.264
291.54
292.177
292.989
293.709
295.044
297.499
300.194
302.757
304.337
304.73
304.07
302.652
300.651
298.068
295.637
294.016
292.546
291.848
292.368
293.974
295.841
298.719
302.093
304.926
306.445
302.206
305.82
305.34
301.444
300.469
296.766
297.494
295.052
303.349
296.258
307.193
307.739
302.961
307.613
307.773
316.39
306.855
305.621
311.3
307.085
300.646
299.899
300.38
297.5
308.26
316.374
308.292
293.165
286.192
285.389
287.891
286.202
278.195
275.194
280.584
282.232
281.407
282.13
291.958
307.159
320.536
321.065
322.043
316.915
320.396
324.001
319.986
318.989
317.3
312.149
307.752
302.953
298.391
305.722
301.294
300.769
293.771
311.236
325.136
316.846
321.083
301.255
298.865
289.95
294.567
286.059
282.031
278.505
301.624
295.813
310.895
302.546
289.766
299.286
311.537
300.892
305.8
311.613
270.775
283.823
291.776
265.437
259.983
236.972
235.777
235.197
229.557
243.733
254.218
220.306
229.294
255.319
271.25
266.249
258.194
266.399
270.018
258.293
292.599
290.908
288.933
287.488
286.633
286.481
287.885
289.256
288.856
287.482
286.431
285.725
283.466
281.309
279.803
278.217
277.1
276.956
276.724
277.025
277.446
278.395
279.122
280.22
281.788
283.221
284.83
286.273
287.615
288.538
289.095
289.567
289.952
290.438
290.835
291.423
291.697
291.265
290.222
288.927
288.241
288.413
289.093
290.142
291.674
293.77
295.903
297.227
297.519
297.041
295.898
294.638
293.5
292.381
291.617
291.582
291.629
291.277
290.031
290.817
293.287
294.861
296.787
299.118
301.134
303.051
304.574
305.438
305.776
305.02
303.83
301.547
298.789
296.454
294.664
293.019
291.966
291.435
293.841
297.191
294.773
301.574
300.882
295.798
303.517
296.67
300.996
299.718
305.235
303.654
310.742
311.045
308.971
310.889
305.045
307.237
301.714
312.073
310.471
309.286
312.976
309.666
302.532
299.782
299.992
298.918
309.493
323.517
313.374
291.838
281.221
282.361
288.812
287.847
279.787
275.908
281.341
283.184
282.8
283.927
293.022
312.566
321.98
318.267
318.768
315.575
311.631
322.209
318.675
314.428
310.785
310.988
310.027
303.354
305.599
304.578
299.541
296.26
291.623
314.001
321.423
305.208
294.238
273.851
270.865
267.117
275.758
272.1
275.344
279.896
300.527
297.665
306.748
293.627
286.47
298.951
305.89
301.792
297.534
307.591
278.346
280.667
270.625
286.045
282.328
246.42
237.781
237.272
231.183
241.772
254.092
232.383
227.082
249.177
265.375
269.2
256.45
262.021
273.259
255.21
292.625
290.834
289.27
287.123
286.216
287.843
288.776
289.309
290.158
290.056
289.266
288.619
286.846
285.589
285.269
284.461
283.587
283.825
283.889
284.412
285.265
286.61
287.359
288.943
290.06
291.196
292.217
293.006
293.399
293.637
293.786
293.829
294.078
294.281
294.498
294.457
294.129
293.726
293.399
293.113
292.768
292.592
292.97
293.864
295.193
296.309
296.708
296.472
295.716
294.401
293.125
292.333
292.022
293.131
295.076
296.608
296.82
296.856
296.816
297.713
298.508
298.555
298.852
300.001
301.219
302.4
303.524
304.606
305.788
306.294
306.159
306.543
306.066
304.699
303.798
298.653
297.27
297.95
291.868
295.421
294.828
292.847
298.13
293.085
296.989
297.918
298.19
302.559
304.233
304.963
307.572
308.191
306.711
312.653
307.996
312.78
309.331
312.319
308.399
306.797
312.016
312.51
310.712
304.171
301.267
299.024
299.862
316.36
317.302
297.796
280.513
278.861
285.58
285.661
280.194
275.921
280.808
283.606
284.098
286.337
294.784
313.329
320.362
317.372
318.039
314.1
313.576
317.683
317.542
307.894
311.142
311.655
303.944
300.115
304.738
304.194
296.01
296.476
304.561
326.429
308.18
286.777
272.546
256.438
253.015
251.934
265.356
264.137
270.448
279.115
292.563
293.527
297.477
283.912
284.116
298.658
295.639
301.91
291.54
302.783
289.78
274.828
261.398
301.976
318.055
271.052
244.81
241.428
233.559
239.939
253.572
253.459
222.336
238.925
254.98
264.814
259.438
258.805
280.206
258.305
292.859
291.499
290.692
288.926
287.731
287.346
287.467
289.087
290.297
290.125
289.211
289.531
289.348
288.545
288.715
288.547
287.987
288.933
288.951
289.453
290.461
290.911
291.594
292.65
292.839
293.637
293.978
294.354
294.809
295.132
295.56
295.877
296.205
296.217
296.304
296.408
296.369
295.988
295.371
294.883
294.812
294.838
294.585
294.575
294.833
294.938
294.529
293.724
293.023
293.258
294.505
296.028
298.061
300.764
302.94
303.692
303.488
303.328
302.768
302.096
301.419
301.234
301.485
302.046
302.264
302.538
302.792
303.076
302.994
303.16
303.356
304.366
306.156
305.067
308.888
307.634
304.056
308.84
305.302
302.311
303.844
302.644
303.622
303.419
304.322
307.012
306.775
308.725
310.853
309.725
309.679
311.609
303.315
307.789
307.523
308.019
309.734
314.551
312.925
306.237
308.751
310.658
310.694
304.644
302.661
302.357
299.028
312.882
320.146
303.5
283.433
277.808
280.484
281.381
277.939
276.106
279.699
282.493
283.593
287.207
295.493
312.111
320.709
312.173
315.188
318.041
316.301
318.301
318.727
308.692
312.036
311.382
303.612
299.423
304.838
300.48
292.074
298.081
315.751
315.312
284.692
264.034
249.623
243.346
242.579
243.62
253.512
255.541
265.909
276.913
284.033
285.526
285.343
274.784
281.391
299.656
292.407
301.743
289.201
294.088
295.296
264.925
257.705
284.424
322.059
307.986
260.915
247.031
237.126
238.227
250.409
267.107
215.835
228.946
243.95
254.283
264.475
258.976
281.9
260.252
293.118
291.956
291.505
290.383
288.407
287.189
287.989
289.561
290.251
290.91
290.38
289.973
290.021
289.827
289.673
289.87
289.505
289.702
290.202
290.029
290.845
291.033
291.244
291.581
291.41
291.659
291.691
291.687
291.679
291.883
292.188
292.591
292.904
293.278
293.396
293.233
292.923
292.877
292.857
292.847
292.446
292.35
292.662
292.945
292.923
292.639
292.368
292.786
294.318
296.739
299.209
300.999
302.509
303.336
302.519
300.304
298.58
296.898
295.06
294.159
294.204
294.698
295.545
296.599
297.285
297.849
297.757
298.697
298.425
299.085
301.254
300.53
302.26
303.633
301.768
306.38
305.172
304.144
308.309
308.057
310.804
308.855
309.631
310.806
310.483
311.29
310.964
312.697
308.76
312.474
308.179
312.828
311.496
313.255
313.348
309.238
308.899
307.688
310.558
307.482
308.789
311.027
310.699
304.436
299.541
300.578
298.335
309.956
320.533
307.91
288.578
280.597
278.887
278.039
275.444
275.928
278.934
280.678
279.544
285.388
295.342
308.153
319.561
312.006
311.707
319.781
313.403
316.133
321.367
310.191
310.981
307.144
299.765
297.485
306.419
296.218
290.719
308.276
327.345
292.413
261.543
250.453
242.18
243.748
245.832
247.117
249.701
251.756
260.847
268.579
274.797
273.554
273.109
265.948
281.043
299.179
291.945
299.357
287.117
283.777
283.51
256.842
253.31
266.684
289.032
332.175
288.304
257.704
241.491
236.599
243.998
259.282
215.784
224.364
235.619
244.549
263.428
259.297
270.024
260.417
293.206
291.915
291.305
290.287
288.542
287.404
287.111
288.65
289.673
291.061
291.375
290.919
290.164
289.633
289.388
289.273
289.874
289.958
290.055
289.865
289.857
289.398
289.06
288.943
288.616
288.326
288.171
288.171
288.198
288.254
288.309
288.341
288.359
288.573
288.886
289.191
289.249
289.215
289.165
289.492
289.948
289.964
290.183
291.071
291.846
292.019
292.88
294.983
297.537
299.812
301.471
301.979
301.381
299.97
297.586
295.086
293.995
293.716
293.175
293.624
294.522
295.882
297.646
299.764
302.011
302.754
302.466
303.633
303.606
303.51
305.088
306.337
304.529
309.069
307.092
304.169
306.441
303.289
304.158
303.172
306.206
306.051
307.619
309.157
306.358
310.052
306.287
308.889
306.291
308.6
308.588