/*--------------------------------*- C++ -*----------------------------------*\
| =========                 |                                                 |
| \\      /  F ield         | OpenFOAM: The Open Source CFD Toolbox           |
|  \\    /   O peration     | Version:  dev                                   |
|   \\  /    A nd           | Web:      http://www.openfoam.org               |
|    \\/     M anipulation  |                                                 |
\*---------------------------------------------------------------------------*/
FoamFile
{
    version     2.0;
    format      ascii;
    class       volVectorField;
    object      U;
    location    "9.142";
}
// * * * * * * * * * * * * * * * * * * * * * * * * * * * * * * * * * * * * * //

dimensions      [0 1 -1 0 0 0 0];

internalField   nonuniform List<vector> 
12225
(
(7.29205 0.076945 0)
(4.28769 -0.193452 0)
(2.19262 -0.375065 0)
(2.14453 -0.413552 0)
(1.05266 -0.402133 0)
(1.89868 -0.480252 0)
(0.952087 -0.403457 0)
(1.99493 -0.526488 0)
(1.43092 -0.435573 0)
(2.46194 -0.561567 0)
(2.522 -0.491949 0)
(4.11447 -0.621747 0)
(4.23126 -0.490088 0)
(7.23351 -0.786265 0)
(11.8733 -0.610436 0)
(12.9105 -2.23895 0)
(31.9767 -4.56188 0)
(39.5949 1.05403 0)
(9.81454 -0.22528 0)
(8.96603 -0.230748 0)
(5.6883 -0.691858 0)
(6.02933 -0.957121 0)
(2.49543 -1.064 0)
(4.45329 -1.18685 0)
(0.797569 -1.10034 0)
(3.56853 -1.39685 0)
(0.181158 -1.1382 0)
(2.94079 -1.53755 0)
(0.651034 -1.46325 0)
(3.72604 -1.80303 0)
(1.82774 -2.0716 0)
(8.10052 -3.49725 0)
(9.39228 -3.65797 0)
(19.2409 -10.1979 0)
(24.9646 -8.06884 0)
(35.474 1.54791 0)
(9.3418 -1.21007 0)
(11.6828 -0.922618 0)
(7.60369 -1.28141 0)
(10.4267 -1.53836 0)
(4.89509 -1.67665 0)
(9.06436 -1.8549 0)
(2.91402 -1.83714 0)
(8.17696 -2.2609 0)
(2.72339 -1.87268 0)
(7.15155 -2.61247 0)
(4.21947 -2.23821 0)
(6.51269 -2.78046 0)
(5.87685 -3.36717 0)
(7.06486 -5.08683 0)
(13.1313 -6.09493 0)
(10.8583 -8.31611 0)
(10.7862 -6.14265 0)
(15.7683 4.19031 0)
(7.60087 -2.44575 0)
(14.0573 -1.76668 0)
(7.35269 -2.23648 0)
(13.8025 -2.33123 0)
(6.16062 -2.51524 0)
(12.9118 -2.70563 0)
(5.29595 -2.64114 0)
(11.6414 -3.43165 0)
(5.62539 -2.61972 0)
(11.0617 -4.19786 0)
(7.28889 -3.16884 0)
(10.9757 -4.31985 0)
(10.3279 -3.97951 0)
(10.0093 -7.4231 0)
(14.3011 -8.2005 0)
(12.553 -11.2193 0)
(12.4873 -10.1459 0)
(4.46673 3.93505 0)
(5.64646 -3.32922 0)
(15.0751 -3.18627 0)
(7.18263 -3.0933 0)
(14.7392 -3.55718 0)
(7.05321 -3.13814 0)
(13.9267 -4.01559 0)
(7.17587 -3.1598 0)
(12.5837 -4.68567 0)
(5.89689 -3.39554 0)
(13.0793 -5.44543 0)
(6.50758 -3.86446 0)
(13.643 -6.98876 0)
(10.2954 -4.38353 0)
(13.9437 -8.58379 0)
(9.22519 -8.47953 0)
(13.8196 -12.9836 0)
(11.0731 -4.92497 0)
(0.930437 6.73288 0)
(7.44048 -4.75031 0)
(12.7312 -4.59749 0)
(7.85713 -4.49735 0)
(12.2556 -4.71848 0)
(7.21681 -4.52733 0)
(11.629 -5.20336 0)
(7.61707 -4.44143 0)
(10.8767 -5.22128 0)
(5.70752 -5.19256 0)
(11.7286 -6.33326 0)
(4.62879 -5.75028 0)
(8.983 -7.39403 0)
(2.09096 -6.19943 0)
(13.7588 -9.71736 0)
(1.96277 -9.95358 0)
(11.8157 -11.922 0)
(2.62154 -3.44144 0)
(12.4965 10.5911 0)
(9.52996 -5.57813 0)
(10.6235 -6.19509 0)
(9.70996 -5.13197 0)
(9.69056 -6.06051 0)
(8.14595 -5.08715 0)
(8.82063 -6.96644 0)
(7.90865 -5.1043 0)
(8.57196 -6.70053 0)
(7.51463 -6.26491 0)
(8.57067 -7.35477 0)
(5.64686 -5.61604 0)
(7.08189 -8.62054 0)
(2.41351 -8.62364 0)
(8.48756 -10.4186 0)
(-0.29694 -11.146 0)
(9.19213 -17.1212 0)
(-3.63795 -8.79163 0)
(24.2362 6.12771 0)
(10.1847 -7.13916 0)
(9.89761 -7.33416 0)
(10.2901 -6.37772 0)
(8.58651 -6.91833 0)
(9.73066 -6.56732 0)
(8.0622 -7.8661 0)
(8.37873 -6.62455 0)
(6.7072 -7.77109 0)
(10.0788 -7.77049 0)
(6.39828 -7.9641 0)
(8.6271 -7.32712 0)
(5.68925 -8.33143 0)
(7.45278 -9.66897 0)
(4.52288 -10.8588 0)
(5.53199 -11.5579 0)
(3.71056 -14.1158 0)
(-4.55884 -8.99456 0)
(9.14534 2.39167 0)
(10.4989 -7.84667 0)
(9.51189 -8.79779 0)
(10.0274 -6.75643 0)
(9.13851 -8.41747 0)
(10.3466 -7.1765 0)
(8.29135 -8.99881 0)
(8.63515 -6.89349 0)
(7.99803 -9.91939 0)
(10.0829 -8.34477 0)
(7.49258 -9.43686 0)
(9.83222 -7.49936 0)
(6.85816 -10.292 0)
(10.0372 -9.87591 0)
(6.3844 -12.2341 0)
(8.89439 -11.5868 0)
(2.60553 -13.5921 0)
(-0.591423 -8.24098 0)
(-0.746276 -5.78664 0)
(10.308 -9.27434 0)
(9.70545 -9.59945 0)
(9.92303 -8.34146 0)
(9.66242 -9.43867 0)
(10.0406 -8.47433 0)
(8.51632 -9.63439 0)
(9.2216 -8.7398 0)
(8.48889 -10.5926 0)
(8.66423 -9.63284 0)
(7.83487 -10.0824 0)
(8.68622 -9.09051 0)
(8.36286 -10.8861 0)
(8.88092 -10.9239 0)
(7.12035 -12.4566 0)
(7.42031 -11.8946 0)
(5.15783 -13.0051 0)
(3.90309 -10.6471 0)
(5.4067 -9.37428 0)
(10.4313 -10.4149 0)
(9.48913 -11.297 0)
(10.1002 -9.28569 0)
(9.31622 -11.1514 0)
(9.68455 -9.53561 0)
(8.71451 -11.2296 0)
(9.10219 -9.86657 0)
(8.31098 -12.1029 0)
(8.0619 -10.9732 0)
(7.78584 -11.8598 0)
(7.93249 -10.5007 0)
(7.9719 -12.7902 0)
(7.55435 -11.987 0)
(7.28185 -13.898 0)
(6.00097 -12.0511 0)
(6.0159 -13.9601 0)
(5.12294 -10.4111 0)
(6.09743 -11.8564 0)
(10.2123 -12.1238 0)
(9.48197 -12.4338 0)
(9.76096 -11.2057 0)
(9.30427 -12.2359 0)
(9.36283 -11.2427 0)
(8.87941 -12.3073 0)
(9.00143 -11.6305 0)
(8.44512 -13.0717 0)
(8.12207 -12.3784 0)
(7.55477 -13.111 0)
(7.78155 -12.3844 0)
(7.55882 -13.3591 0)
(7.08321 -13.3811 0)
(6.53188 -14.0161 0)
(6.17455 -13.6641 0)
(6.07286 -13.7749 0)
(5.54319 -13.205 0)
(6.51137 -13.3929 0)
(10.3526 -13.7235 0)
(9.78543 -13.9516 0)
(9.6786 -12.7631 0)
(9.14488 -13.945 0)
(9.10579 -13.0365 0)
(8.73488 -13.9309 0)
(8.6467 -13.286 0)
(8.20854 -14.3729 0)
(7.82027 -13.9093 0)
(7.5684 -14.5128 0)
(7.29861 -13.9738 0)
(7.16016 -14.9032 0)
(6.88327 -14.7005 0)
(6.56783 -15.4623 0)
(6.24288 -15.0486 0)
(6.11191 -15.4469 0)
(5.95626 -14.8331 0)
(6.10562 -15.0143 0)
(10.2111 -15.7362 0)
(9.98832 -15.3454 0)
(9.6947 -14.5695 0)
(9.19446 -15.1014 0)
(8.80764 -14.7003 0)
(8.49277 -15.2754 0)
(8.29543 -15.0215 0)
(8.02594 -15.7328 0)
(7.74298 -15.5552 0)
(7.47715 -15.9371 0)
(7.2211 -15.7982 0)
(7.03121 -16.0826 0)
(6.71827 -16.1564 0)
(6.4816 -16.3793 0)
(6.2039 -16.3645 0)
(6.01874 -16.4093 0)
(5.86269 -16.3189 0)
(5.79286 -16.3723 0)
(10.1841 -17.5378 0)
(9.67111 -16.7604 0)
(9.36985 -16.1664 0)
(9.04032 -16.5022 0)
(8.76459 -16.4275 0)
(8.47944 -16.7395 0)
(8.18892 -16.7236 0)
(7.88699 -17.0739 0)
(7.56322 -17.065 0)
(7.27766 -17.2151 0)
(6.96533 -17.1906 0)
(6.77361 -17.4086 0)
(6.5253 -17.4636 0)
(6.3275 -17.612 0)
(6.17089 -17.6717 0)
(6.06658 -17.736 0)
(5.97313 -17.7444 0)
(5.82676 -17.7552 0)
(10.169 -19.0562 0)
(9.6 -17.8697 0)
(9.22653 -17.5595 0)
(8.85485 -17.7104 0)
(8.48707 -17.7387 0)
(8.16423 -17.8906 0)
(7.86717 -17.9759 0)
(7.6106 -18.2166 0)
(7.33938 -18.312 0)
(7.14678 -18.4234 0)
(6.93964 -18.5173 0)
(6.80557 -18.6311 0)
(6.61655 -18.6929 0)
(6.44259 -18.7459 0)
(6.26541 -18.7304 0)
(6.15441 -18.7113 0)
(6.01515 -18.689 0)
(5.81386 -18.6408 0)
(9.84242 -19.8087 0)
(9.26185 -18.5594 0)
(8.95664 -18.3215 0)
(8.64441 -18.4629 0)
(8.32989 -18.5713 0)
(8.08595 -18.6816 0)
(7.84181 -18.7754 0)
(7.62719 -18.9195 0)
(7.37833 -18.9926 0)
(7.16548 -19.0878 0)
(6.91092 -19.1719 0)
(6.6947 -19.2154 0)
(6.44646 -19.2383 0)
(6.28306 -19.2559 0)
(6.09933 -19.2123 0)
(5.98479 -19.2004 0)
(5.84745 -19.1787 0)
(5.69125 -19.1085 0)
(9.80808 -19.8851 0)
(9.20637 -18.6538 0)
(8.9557 -18.422 0)
(8.69456 -18.5013 0)
(8.40665 -18.5961 0)
(8.15023 -18.7091 0)
(7.88327 -18.8267 0)
(7.66449 -18.9428 0)
(7.44097 -18.9822 0)
(7.25449 -19.0018 0)
(7.0241 -19.016 0)
(6.84902 -19.0216 0)
(6.63559 -19.0151 0)
(6.49021 -19.0309 0)
(6.33633 -19.0251 0)
(6.22937 -19.0264 0)
(6.13785 -19.0193 0)
(6.02185 -18.9347 0)
(9.93041 -18.977 0)
(9.30288 -17.9777 0)
(9.00622 -17.789 0)
(8.71255 -17.8213 0)
(8.43581 -17.8342 0)
(8.17619 -17.8729 0)
(7.90731 -17.9336 0)
(7.68426 -18.0161 0)
(7.45128 -18.0314 0)
(7.27372 -18.0287 0)
(7.04683 -18.0454 0)
(6.89504 -18.022 0)
(6.74841 -17.9982 0)
(6.61214 -18.0033 0)
(6.47943 -17.972 0)
(6.38551 -17.9594 0)
(6.27826 -17.953 0)
(6.15421 -17.8563 0)
(10.1737 -17.5438 0)
(9.43614 -16.5591 0)
(9.01746 -16.4247 0)
(8.61995 -16.4626 0)
(8.27726 -16.4837 0)
(8.02328 -16.5461 0)
(7.79533 -16.6092 0)
(7.59453 -16.6645 0)
(7.39842 -16.664 0)
(7.24357 -16.6492 0)
(7.05578 -16.6523 0)
(6.95268 -16.6074 0)
(6.86096 -16.5438 0)
(6.76163 -16.52 0)
(6.67788 -16.467 0)
(6.62269 -16.4317 0)
(6.53627 -16.4454 0)
(6.45964 -16.3536 0)
(9.9182 -15.9458 0)
(9.31298 -14.8423 0)
(9.04854 -14.7336 0)
(8.7286 -14.805 0)
(8.42385 -14.8429 0)
(8.17818 -14.9055 0)
(7.92285 -14.9274 0)
(7.67593 -14.9293 0)
(7.46163 -14.9156 0)
(7.31052 -14.9006 0)
(7.15584 -14.8906 0)
(7.05742 -14.901 0)
(6.9805 -14.8253 0)
(6.92347 -14.7754 0)
(6.85029 -14.7464 0)
(6.82283 -14.646 0)
(6.77129 -14.6512 0)
(6.71296 -14.5884 0)
(9.73998 -13.8859 0)
(9.10602 -13.081 0)
(8.79717 -12.9815 0)
(8.52196 -13.0273 0)
(8.30104 -13.0566 0)
(8.09457 -13.0822 0)
(7.82931 -13.0711 0)
(7.62682 -13.0999 0)
(7.44127 -13.1244 0)
(7.28538 -13.0779 0)
(7.21539 -13.0665 0)
(7.12042 -13.0614 0)
(7.05559 -12.9783 0)
(7.06246 -12.915 0)
(7.00232 -12.8962 0)
(6.97423 -12.789 0)
(6.96787 -12.7571 0)
(6.91425 -12.7325 0)
(9.96525 -11.9097 0)
(9.39604 -11.2427 0)
(9.09305 -11.1658 0)
(8.78522 -11.2531 0)
(8.51561 -11.3138 0)
(8.25314 -11.248 0)
(8.03513 -11.1966 0)
(7.842 -11.2068 0)
(7.64211 -11.2002 0)
(7.4951 -11.174 0)
(7.41789 -11.193 0)
(7.32228 -11.1494 0)
(7.2531 -11.1073 0)
(7.26791 -11.0594 0)
(7.229 -11.019 0)
(7.20265 -10.9624 0)
(7.20684 -10.9253 0)
(7.16607 -10.8621 0)
(9.86017 -10.0944 0)
(9.1824 -9.44776 0)
(9.0634 -9.34439 0)
(8.84951 -9.39128 0)
(8.55743 -9.42863 0)
(8.32636 -9.43639 0)
(8.14128 -9.42854 0)
(7.96884 -9.40731 0)
(7.81214 -9.40056 0)
(7.66357 -9.37094 0)
(7.5587 -9.35975 0)
(7.44668 -9.31098 0)
(7.39486 -9.2708 0)
(7.36624 -9.214 0)
(7.35255 -9.15897 0)
(7.38889 -9.10774 0)
(7.40753 -9.08002 0)
(7.43498 -9.01336 0)
(9.72137 -8.16724 0)
(9.16846 -7.82162 0)
(9.17535 -7.78646 0)
(9.04327 -7.76704 0)
(8.78795 -7.75843 0)
(8.49191 -7.72422 0)
(8.20516 -7.69018 0)
(7.98691 -7.65782 0)
(7.84105 -7.63911 0)
(7.65319 -7.61269 0)
(7.54798 -7.55118 0)
(7.49032 -7.52809 0)
(7.43537 -7.52207 0)
(7.43842 -7.47888 0)
(7.47499 -7.47382 0)
(7.49882 -7.47019 0)
(7.5381 -7.42989 0)
(7.58991 -7.39825 0)
(9.81055 -6.43426 0)
(9.24493 -6.3233 0)
(9.19896 -6.27249 0)
(9.07584 -6.205 0)
(8.87796 -6.1411 0)
(8.6644 -6.06222 0)
(8.45707 -6.03103 0)
(8.29298 -6.04175 0)
(8.15356 -6.02269 0)
(7.9953 -5.99507 0)
(7.90645 -5.94193 0)
(7.82764 -5.94428 0)
(7.77562 -5.89739 0)
(7.74133 -5.87269 0)
(7.73502 -5.85316 0)
(7.70808 -5.84553 0)
(7.69516 -5.82647 0)
(7.67948 -5.78294 0)
(9.92024 -4.78867 0)
(9.56858 -4.96836 0)
(9.48933 -4.93522 0)
(9.27429 -4.8488 0)
(8.9818 -4.75203 0)
(8.69413 -4.65606 0)
(8.42718 -4.61202 0)
(8.17834 -4.58638 0)
(7.93581 -4.55649 0)
(7.72185 -4.49968 0)
(7.55005 -4.45167 0)
(7.40918 -4.4372 0)
(7.31374 -4.38729 0)
(7.23093 -4.36095 0)
(7.16244 -4.35212 0)
(7.08062 -4.34139 0)
(7.05734 -4.31613 0)
(7.00949 -4.27885 0)
(9.9196 -3.44903 0)
(9.6793 -3.69079 0)
(9.54476 -3.58199 0)
(9.09414 -3.45335 0)
(8.51049 -3.34145 0)
(7.94195 -3.23149 0)
(7.37922 -3.17516 0)
(6.85085 -3.13194 0)
(6.34476 -3.10006 0)
(5.95258 -3.04973 0)
(5.60818 -3.02139 0)
(5.33282 -2.98471 0)
(5.10988 -2.95608 0)
(4.92117 -2.9474 0)
(4.75748 -2.94787 0)
(4.61319 -2.91449 0)
(4.51886 -2.89497 0)
(4.41088 -2.8693 0)
(9.98238 -2.45983 0)
(9.19054 -2.65234 0)
(8.13612 -2.41469 0)
(6.78517 -2.17401 0)
(5.54168 -1.96968 0)
(4.53067 -1.8119 0)
(3.71829 -1.7357 0)
(3.05116 -1.70464 0)
(2.48655 -1.66929 0)
(2.06454 -1.64284 0)
(1.69649 -1.6388 0)
(1.42657 -1.62511 0)
(1.2026 -1.61925 0)
(1.02594 -1.61852 0)
(0.882776 -1.6175 0)
(0.771278 -1.61429 0)
(0.716241 -1.63316 0)
(0.682143 -1.62827 0)
(8.4976 -0.966123 0)
(5.21312 -0.877412 0)
(3.02934 -0.614193 0)
(1.55574 -0.5023 0)
(0.689138 -0.475421 0)
(0.160172 -0.470981 0)
(-0.183082 -0.478004 0)
(-0.442262 -0.488293 0)
(-0.652095 -0.487448 0)
(-0.799034 -0.488883 0)
(-0.918579 -0.49275 0)
(-1.0018 -0.493416 0)
(-1.06277 -0.493688 0)
(-1.10337 -0.495421 0)
(-1.13802 -0.500764 0)
(-1.16947 -0.509645 0)
(-1.2004 -0.533089 0)
(-1.29068 -0.547487 0)
(-0.182097 0.3973 0)
(-0.64707 0.337487 0)
(-1.04673 0.364501 0)
(-1.3631 0.28733 0)
(-1.61587 0.2349 0)
(-1.85613 0.209884 0)
(-2.07632 0.204653 1.09671e-17)
(-2.32466 0.205202 -1.08988e-17)
(-2.55463 0.19332 0)
(-2.76014 0.162468 -1.07847e-17)
(-2.89324 0.11485 0)
(-2.98428 0.0297395 0)
(-2.95877 -0.0582158 0)
(-2.84276 -0.160228 1.05733e-17)
(-2.63599 -0.26281 0)
(-2.28263 -0.334343 0)
(-1.85924 -0.333984 -1.03715e-17)
(-1.45185 -0.288328 0)
(-1.0142 -0.352139 0)
(-0.462061 -0.370908 0)
(0.0238349 -0.274227 1.00924e-17)
(0.385239 -0.182892 0)
(0.744767 -0.0668392 9.92243e-18)
(0.932981 0.0497955 0)
(1.00382 0.269082 0)
(0.963569 0.363283 9.64343e-18)
(0.70417 0.416853 0)
(0.371962 0.602467 -9.50755e-18)
(-0.0468191 0.533196 0)
(-0.480008 0.670925 9.35995e-18)
(-1.06427 1.06257 0)
(-1.85367 0.932444 0)
(-2.53371 0.354677 0)
(-3.01541 -0.122973 0)
(-3.3092 -0.30277 0)
(-3.38492 -0.235942 -9.12393e-18)
(-3.26787 -0.140219 0)
(-3.05444 -0.124937 1.78827e-17)
(-2.70146 -0.179756 0)
(-2.23241 -0.259497 -1.75353e-17)
(-1.6162 -0.308032 0)
(-0.896756 -0.253072 0)
(-0.236002 -0.0965707 1.7286e-17)
(0.24465 0.0613872 0)
(0.55434 0.159689 1.71907e-17)
(0.804941 0.19955 -1.70986e-17)
(1.09327 0.160271 0)
(1.33971 -0.00739762 -1.70647e-17)
(1.49576 -0.202307 -1.7087e-17)
(1.6923 -0.375813 0)
(1.94364 -0.462697 0)
(2.258 -0.509119 0)
(2.59529 -0.56595 0)
(2.89936 -0.644971 0)
(3.19585 -0.709358 1.66352e-17)
(3.45185 -0.772926 0)
(3.65394 -0.795022 -1.64243e-17)
(3.80763 -0.744169 0)
(3.82857 -0.687845 0)
(3.80862 -0.60766 1.61386e-17)
(3.69872 -0.548647 0)
(3.53537 -0.483127 -1.59129e-17)
(3.44937 -0.443538 0)
(3.33618 -0.448221 0)
(3.1825 -0.474081 0)
(3.05776 -0.504561 1.54664e-17)
(2.92672 -0.566692 0)
(2.80743 -0.607031 0)
(2.70926 -0.637356 1.5157e-17)
(2.59492 -0.669739 0)
(2.46235 -0.69307 1.49424e-17)
(2.31539 -0.709774 0)
(2.12789 -0.730491 0)
(1.90519 -0.735419 0)
(1.61061 -0.734762 -1.4455e-17)
(1.26375 -0.719884 0)
(0.883266 -0.695431 0)
(0.484676 -0.685552 -1.40583e-17)
(0.12191 -0.700736 -1.39309e-17)
(-0.193615 -0.745269 0)
(-0.387926 -0.803969 -1.36856e-17)
(-0.525356 -0.923498 0)
(-0.612157 -0.99448 -2.68915e-17)
(-0.619353 -1.05011 0)
(-0.578322 -1.10424 -2.64318e-17)
(-0.415729 -1.15678 0)
(-0.19898 -1.24944 2.60172e-17)
(0.10528 -1.30578 0)
(0.624864 -1.37995 0)
(1.15909 -1.47878 0)
(1.66397 -1.49944 -2.54504e-17)
(2.29047 -1.58041 0)
(2.94712 -1.61478 2.54258e-17)
(3.74808 -1.77244 0)
(4.78481 -1.89566 -2.5428e-17)
(5.88827 -2.00741 -2.53049e-17)
(7.04124 -2.06641 -2.51124e-17)
(8.13875 -2.02756 0)
(8.92962 -1.91771 0)
(9.6422 -1.99829 0)
(10.3922 -2.10407 0)
(11.2858 -2.21285 0)
(12.2892 -2.18798 0)
(13.208 -2.10518 0)
(13.7986 -1.9612 0)
(13.8826 -1.83865 2.31293e-17)
(13.6195 -1.89541 2.29923e-17)
(13.2098 -2.01373 0)
(12.6564 -2.04996 0)
(11.9471 -2.14843 0)
(11.1792 -2.2248 2.18597e-17)
(10.2837 -2.16789 0)
(9.11117 -2.04184 0)
(7.95088 -1.99112 0)
(6.86644 -2.07105 0)
(6.16125 -2.39062 -2.06342e-17)
(6.22286 -2.53335 0)
(5.90775 -2.18637 0)
(4.9092 -1.90801 2.08302e-17)
(3.80688 -2.38947 -2.08763e-17)
(3.02204 -2.88519 0)
(1.54457 -2.51842 -2.14003e-17)
(-0.993653 -1.94702 0)
(-3.46591 -1.77509 2.10591e-17)
(-5.78126 -1.78051 0)
(-7.46748 -1.92337 0)
(-8.21847 -2.28053 0)
(-8.68818 -2.42098 0)
(-9.41554 -2.33879 0)
(-8.87993 -2.9587 -4.00087e-17)
(-5.11915 -4.09639 -3.98018e-17)
(-1.02765 -3.72891 0)
(0.783711 -3.35844 0)
(2.43913 -2.46898 0)
(1.34047 -2.11055 3.88462e-17)
(-0.635022 -2.48621 0)
(-1.26923 -3.09831 0)
(-1.1795 -3.15511 0)
(-0.977975 -3.37897 3.91225e-17)
(-0.854935 -3.25472 -3.88579e-17)
(-0.802695 -3.28122 0)
(-0.380989 -3.48551 0)
(-1.00947 -2.99287 -3.87935e-17)
(-1.09736 -3.17319 -3.83813e-17)
(-3.31691 -2.51817 0)
(-1.82735 -3.98931 0)
(-0.427378 -3.73594 3.7158e-17)
(1.3678 -3.83609 -3.68243e-17)
(3.33726 -3.87334 0)
(6.73295 -4.07363 0)
(9.29377 -3.67266 -3.65242e-17)
(9.8564 -3.4634 0)
(9.17672 -3.36731 0)
(8.04373 -3.51563 -3.60014e-17)
(7.5175 -3.7059 0)
(7.33125 -3.79331 -3.52962e-17)
(7.64094 -3.92854 0)
(8.30139 -3.91427 0)
(8.82069 -3.86426 0)
(10.3984 -4.11984 3.34657e-17)
(11.6461 -3.80605 0)
(11.8592 -3.63105 0)
(12.8868 -3.93154 0)
(13.4351 -3.67393 0)
(12.1318 -2.99616 0)
(9.74369 -2.98026 0)
(8.16736 -3.40665 3.14543e-17)
(7.37601 -3.30732 3.21646e-17)
(3.73871 -2.82473 0)
(2.75503 -3.12738 0)
(1.11232 -2.67634 0)
(-2.95736 -2.61833 -3.16826e-17)
(-6.6062 -2.27425 0)
(-10.3529 -2.31678 6.12963e-17)
(-11.1192 -2.6623 -6.04108e-17)
(-12.239 -2.3078 -6.15153e-17)
(-14.2061 -2.22162 6.16899e-17)
(-16.2792 -1.9721 -6.16718e-17)
(-19.1189 -1.78092 6.11937e-17)
(-20.288 -2.16232 0)
(-0.00267525 1.07352 0)
(-0.364149 1.16484 0)
(-0.719107 0.831918 -2.24315e-17)
(-1.024 0.589737 0)
(-1.23762 0.462168 2.21284e-17)
(-1.40227 0.43859 2.20105e-17)
(-1.55515 0.462857 1.09564e-17)
(-1.72845 0.476969 1.0938e-17)
(-1.89344 0.423246 0)
(-2.00824 0.292067 1.09134e-17)
(-2.05752 0.0949781 0)
(-2.05458 -0.134341 0)
(-1.90997 -0.388552 -2.16612e-17)
(-1.71459 -0.674881 -1.07923e-17)
(-1.44913 -0.966397 2.14806e-17)
(-1.09271 -1.27226 2.13756e-17)
(-0.687966 -1.43229 1.06213e-17)
(-0.303547 -1.34707 0)
(0.252495 -1.48912 0)
(0.823258 -1.58615 0)
(1.09413 -1.11161 1.03183e-17)
(1.55548 -0.969459 0)
(1.95921 -0.966153 -3.03028e-17)
(1.99922 -0.243548 0)
(2.32727 -0.130046 0)
(2.41541 0.141589 -9.77339e-18)
(2.20757 0.956582 0)
(2.24679 0.766151 9.52104e-18)
(1.89862 1.00953 1.87477e-17)
(1.49672 1.43413 -9.37758e-18)
(1.33495 1.23234 0)
(1.11906 1.44374 0)
(0.875142 1.78878 0)
(0.473218 1.70329 1.82718e-17)
(0.0661411 1.21087 1.80916e-17)
(-0.388585 0.54584 9.01708e-18)
(-0.886423 -0.0429202 0)
(-1.25612 -0.531559 -1.78133e-17)
(-1.18339 -0.963757 0)
(-0.661529 -1.29532 1.71769e-17)
(0.0394055 -1.53822 0)
(0.653172 -1.77023 0)
(1.39385 -1.68074 -1.65286e-17)
(2.26301 -1.17904 0)
(2.91133 -0.857228 -5.00258e-17)
(3.27234 -1.02206 1.67074e-17)
(3.64546 -1.19174 0)
(4.00636 -1.0222 1.60101e-17)
(4.09018 -0.710853 1.61247e-17)
(3.93377 -0.635169 0)
(3.69577 -0.79635 0)
(3.48147 -1.00434 0)
(3.14482 -1.08369 0)
(2.76097 -0.992314 0)
(2.25521 -0.86887 -1.64025e-17)
(1.63395 -0.810416 -3.24716e-17)
(1.05006 -0.775844 1.60995e-17)
(0.427185 -0.72234 0)
(-0.081277 -0.689019 -3.18833e-17)
(-0.533693 -0.745378 1.58974e-17)
(-0.945521 -0.8548 0)
(-1.18039 -0.970064 1.57511e-17)
(-1.36358 -1.10979 0)
(-1.51776 -1.29079 0)
(-1.63972 -1.40974 3.09209e-17)
(-1.76843 -1.53068 -1.53418e-17)
(-1.92781 -1.65525 3.04342e-17)
(-2.04316 -1.77558 -3.01452e-17)
(-2.17207 -1.86172 -1.49049e-17)
(-2.31425 -1.95587 0)
(-2.44906 -2.05329 -1.45408e-17)
(-2.58033 -2.09517 0)
(-2.77454 -2.11677 0)
(-2.96942 -2.1001 0)
(-3.23218 -2.09531 -1.38742e-17)
(-3.48312 -2.10332 0)
(-3.72937 -2.16984 -2.72573e-17)
(-3.93548 -2.31085 4.06336e-17)
(-4.07353 -2.50051 1.3463e-17)
(-4.15165 -2.71538 0)
(-4.15994 -2.90881 1.3234e-17)
(-4.10415 -3.1072 0)
(-3.97683 -3.26139 2.57941e-17)
(-3.7689 -3.43161 0)
(-3.47497 -3.61531 2.5208e-17)
(-3.07353 -3.84382 -5.01712e-17)
(-2.55426 -4.15887 -2.50356e-17)
(-1.9324 -4.44737 0)
(-1.17911 -4.70837 0)
(-0.35934 -4.92382 0)
(0.482459 -5.08604 2.55008e-17)
(1.49379 -5.37659 0)
(2.41812 -5.56875 -2.61226e-17)
(3.58682 -6.11945 0)
(4.73758 -6.40437 7.91738e-17)
(5.84497 -6.59453 2.59897e-17)
(6.76812 -6.66609 2.56439e-17)
(7.70079 -6.56743 0)
(8.61784 -6.35662 0)
(9.62149 -6.46935 0)
(10.4769 -6.68953 0)
(11.3402 -7.19747 0)
(12.3033 -7.29631 4.76706e-17)
(13.4961 -7.20808 4.72937e-17)
(14.6589 -6.77789 0)
(15.1251 -6.27168 -2.28288e-17)
(15.1629 -5.99843 -2.24936e-17)
(14.9588 -5.82119 0)
(14.4601 -5.82529 -4.26948e-17)
(13.7929 -5.94366 0)
(12.6246 -5.93892 2.14864e-17)
(11.1563 -5.79884 0)
(9.64823 -5.83338 0)
(8.26329 -6.20608 -3.82547e-17)
(7.09415 -6.67391 0)
(6.62157 -7.50436 1.91933e-17)
(6.78309 -7.98303 0)
(6.71628 -7.31312 0)
(6.25417 -6.95407 1.96059e-17)
(4.63363 -6.87229 2.02295e-17)
(1.25565 -6.00061 0)
(-2.30144 -5.14435 -2.07923e-17)
(-5.439 -5.01627 0)
(-8.11861 -5.24971 2.02929e-17)
(-10.0489 -5.87972 4.044e-17)
(-10.7204 -6.93845 0)
(-10.8878 -7.46569 0)
(-11.3741 -7.2758 0)
(-11.6337 -7.89458 0)
(-10.0298 -10.8478 4.08577e-17)
(-5.93042 -13.343 1.20348e-16)
(-2.93568 -11.0448 0)
(-1.14385 -10.4426 0)
(1.16102 -8.89016 0)
(1.86505 -7.39029 -3.68939e-17)
(0.573003 -7.34237 0)
(0.107716 -8.66398 0)
(-0.359149 -8.85653 7.55831e-17)
(-0.794163 -9.31843 3.77682e-17)
(-0.834678 -9.19886 3.7207e-17)
(-0.327584 -9.42371 0)
(1.07538 -9.72021 0)
(-0.151157 -9.04352 3.82954e-17)
(1.11102 -10.0381 -3.75633e-17)
(-1.817 -8.99401 0)
(2.15855 -12.876 0)
(2.49597 -11.806 -3.57504e-17)
(4.47808 -12.5952 1.06797e-16)
(4.97301 -13.3811 0)
(8.83905 -14.4487 0)
(13.6415 -12.4768 3.56054e-17)
(15.9662 -10.9477 0)
(16.0809 -10.0038 6.89819e-17)
(14.8117 -10.0722 -3.42562e-17)
(14.4753 -10.611 0)
(14.0717 -10.5478 3.4291e-17)
(13.996 -10.8531 6.72034e-17)
(14.1849 -10.8617 0)
(13.5059 -11.041 0)
(14.9737 -11.7814 -3.11214e-17)
(15.4939 -10.7959 0)
(14.8398 -10.5961 5.75367e-17)
(15.8826 -11.2017 0)
(15.9554 -10.3557 0)
(13.4924 -8.95283 0)
(11.3983 -9.06897 0)
(10.2812 -9.74846 -2.71582e-17)
(7.83683 -8.85444 -2.87781e-17)
(2.18041 -8.45523 0)
(2.15373 -9.66161 0)
(1.05451 -7.51107 0)
(-4.57451 -6.82073 2.90238e-17)
(-8.83293 -6.41165 0)
(-11.8857 -7.19196 -5.3949e-17)
(-11.6464 -8.00291 5.45005e-17)
(-13.5561 -6.41764 5.7305e-17)
(-16.8546 -5.97622 5.8498e-17)
(-20.7098 -4.8612 5.92049e-17)
(-25.0503 -4.5315 5.75515e-17)
(-26.0949 -6.10866 0)
(0.0931284 0.833084 0)
(0.134121 1.49201 0)
(-0.00999575 1.3903 2.24307e-17)
(-0.25343 0.996587 2.2336e-17)
(-0.402467 0.62797 -2.22561e-17)
(-0.464717 0.482878 -2.21338e-17)
(-0.494015 0.520192 -1.82525e-20)
(-0.493211 0.539197 0)
(-0.464985 0.438587 0)
(-0.371139 0.200752 0)
(-0.236029 -0.150192 0)
(-0.00504956 -0.551625 0)
(0.280458 -0.939655 6.53114e-17)
(0.593204 -1.33871 0)
(0.936769 -1.66938 -2.15248e-17)
(1.333 -1.96052 -2.13288e-17)
(1.69112 -2.10668 0)
(1.97702 -2.14351 0)
(2.42741 -2.43413 0)
(2.71832 -2.18062 0)
(2.77314 -1.7166 -2.07088e-17)
(3.20088 -1.63213 0)
(3.18739 -0.84966 2.03666e-17)
(2.96654 -0.680033 0)
(3.28689 -0.3676 0)
(2.95081 0.782012 0)
(2.88528 0.708531 3.95865e-17)
(2.88875 1.44924 0)
(2.36951 2.1285 -1.94684e-17)
(2.22763 1.49539 3.79602e-17)
(1.92494 1.92459 0)
(1.87944 2.21957 0)
(1.79506 1.88265 0)
(1.6627 1.36761 -1.82242e-17)
(1.44134 1.03148 -1.78909e-17)
(0.979897 1.38318 0)
(0.900113 1.44291 0)
(0.674438 0.636937 3.58681e-17)
(0.294837 -0.871292 3.5446e-17)
(0.440498 -2.09115 -3.46769e-17)
(1.3046 -2.19032 0)
(1.92275 -2.22281 0)
(2.05689 -2.64391 0)
(2.26862 -2.55361 0)
(2.51396 -1.79747 3.39699e-17)
(2.43813 -0.982609 3.40161e-17)
(2.07829 -0.5412 -3.40081e-17)
(1.54941 -0.506725 0)
(1.0346 -0.583799 0)
(0.583639 -0.525831 0)
(0.0944318 -0.373672 0)
(-0.529414 -0.272948 3.33867e-17)
(-1.24856 -0.23369 0)
(-1.85867 -0.197975 0)
(-2.37427 -0.20869 3.27763e-17)
(-2.84673 -0.239155 3.27004e-17)
(-3.25014 -0.370554 0)
(-3.53258 -0.604123 -6.5259e-17)
(-3.69417 -0.87098 3.25484e-17)
(-3.80534 -1.14921 -3.24424e-17)
(-3.91121 -1.42324 0)
(-3.93282 -1.69735 0)
(-4.04698 -1.92651 0)
(-4.13248 -2.18565 0)
(-4.15396 -2.39544 -3.13659e-17)
(-4.2363 -2.58543 -6.21487e-17)
(-4.33233 -2.75915 -3.07429e-17)
(-4.4146 -2.94818 3.04173e-17)
(-4.4396 -3.10359 0)
(-4.49925 -3.21446 -5.96956e-17)
(-4.55135 -3.37879 -5.91651e-17)
(-4.55023 -3.47616 -5.86127e-17)
(-4.59567 -3.56519 5.80533e-17)
(-4.62672 -3.59553 0)
(-4.71845 -3.66747 8.56573e-17)
(-4.78367 -3.73742 0)
(-4.88956 -3.91664 -2.83914e-17)
(-4.93712 -4.14852 -2.82826e-17)
(-4.99232 -4.43441 0)
(-5.00941 -4.71722 0)
(-4.97443 -5.02275 -5.53836e-17)
(-4.85017 -5.35088 0)
(-4.60996 -5.69655 -5.42363e-17)
(-4.20501 -6.05199 0)
(-3.63462 -6.41186 5.33886e-17)
(-2.95857 -6.80618 1.06329e-16)
(-2.14981 -7.27884 0)
(-1.25574 -7.76043 0)
(-0.276697 -8.15111 0)
(0.739717 -8.45858 5.34494e-17)
(1.73734 -8.76418 0)
(3.01289 -9.1448 5.35645e-17)
(4.01937 -9.31048 0)
(5.33064 -9.99031 0)
(6.07874 -10.2489 -1.05181e-16)
(7.02164 -10.3616 0)
(7.5161 -10.3583 -5.0136e-17)
(8.25128 -10.609 0)
(8.94071 -10.7927 -5.02237e-17)
(9.72856 -10.8823 0)
(10.4877 -10.9978 0)
(11.1001 -11.5773 0)
(11.6416 -11.9732 -1.44865e-16)
(12.5351 -12.2198 -4.77827e-17)
(13.91 -11.8063 0)
(14.7915 -10.6936 0)
(15.0477 -10.3569 0)
(15.4081 -10.4805 0)
(15.706 -9.90635 4.49578e-17)
(15.3716 -9.38991 -8.73206e-17)
(14.2887 -9.44553 -4.28332e-17)
(12.7546 -9.38921 8.16843e-17)
(11.0004 -9.36583 7.76503e-17)
(9.29916 -9.75817 3.84035e-17)
(7.71557 -10.7295 0)
(7.18492 -12.5548 7.99054e-17)
(6.794 -13.4487 0)
(6.09027 -12.2957 -8.09698e-17)
(4.52082 -10.6167 -4.08447e-17)
(1.2206 -9.26572 0)
(-2.72412 -8.36292 8.25112e-17)
(-5.78609 -7.95809 4.08205e-17)
(-8.52876 -8.12233 0)
(-10.6013 -8.88271 4.11768e-17)
(-11.5182 -10.3436 -1.22721e-16)
(-11.6716 -11.6692 0)
(-11.77 -12.2317 0)
(-11.502 -12.5362 0)
(-11.1181 -14.0599 0)
(-9.5857 -18.2127 -8.48946e-17)
(-7.2636 -20.0499 -8.15931e-17)
(-5.50774 -17.6273 0)
(-2.47608 -16.9761 0)
(-2.76678 -15.0745 0)
(-0.465091 -12.8988 0)
(-0.749847 -12.4856 0)
(-0.0101135 -14.4296 0)
(-0.244221 -13.8873 -7.47635e-17)
(-0.985846 -15.1674 -1.36301e-19)
(-0.587003 -15.5099 0)
(0.088081 -16.6914 0)
(2.88503 -16.8561 -7.22549e-17)
(2.59869 -15.0328 0)
(6.19794 -16.5487 7.51774e-17)
(2.91502 -14.0975 7.14458e-17)
(5.45565 -21.1138 0)
(7.76899 -18.756 0)
(9.3958 -18.5053 -6.98817e-17)
(7.88971 -20.5314 -1.46745e-16)
(8.30893 -24.4818 0)
(13.0948 -21.872 0)
(15.9594 -18.8574 0)
(17.2463 -16.641 -6.83882e-17)
(15.9288 -16.4745 6.81901e-17)
(15.7361 -17.6122 0)
(16.088 -17.3741 1.38836e-16)
(16.1642 -17.9154 6.86136e-17)
(17.3328 -17.4307 -1.35685e-16)
(16.4103 -17.5102 0)
(18.245 -19.0995 0)
(18.5176 -17.1527 -1.21341e-16)
(17.1353 -16.8961 -5.74158e-17)
(17.8409 -18.1969 0)
(18.6446 -16.5484 0)
(15.3673 -14.2084 0)
(13.2669 -14.908 0)
(12.0794 -15.3713 -1.07095e-16)
(7.65811 -12.9221 0)
(1.33037 -12.6789 0)
(0.140204 -16.338 0)
(2.39018 -12.1205 0)
(-4.26397 -10.6429 0)
(-8.47568 -10.7656 0)
(-10.8463 -12.1697 -1.03301e-16)
(-11.3272 -13.0236 0)
(-13.8719 -9.76109 0)
(-18.66 -8.71782 -2.31907e-16)
(-23.5202 -7.01634 1.144e-16)
(-26.7887 -7.51192 -1.09424e-16)
(-25.1528 -10.4056 1.06046e-16)
(-0.00165683 0.252478 0)
(0.196372 0.960577 -4.61612e-17)
(0.323738 1.29142 0)
(0.365136 1.03305 -2.25167e-17)
(0.38601 0.527515 0)
(0.461487 0.187526 0)
(0.559132 0.103029 2.19714e-17)
(0.783332 0.0181071 0)
(1.06923 -0.170353 0)
(1.45522 -0.479577 0)
(1.91526 -0.886643 0)
(2.38171 -1.32496 0)
(2.85124 -1.75909 -8.62505e-17)
(3.32663 -2.17307 -4.27737e-17)
(3.73296 -2.53662 4.26806e-17)
(4.11276 -2.71347 0)
(4.46183 -2.9396 0)
(4.71666 -2.92901 0)
(5.00413 -2.73499 0)
(4.89907 -2.69428 0)
(4.94709 -2.17466 -4.0993e-17)
(4.9866 -1.49348 -4.08405e-17)
(4.57519 -0.937215 4.03906e-17)
(4.56546 -0.287497 -3.99065e-17)
(4.04119 0.0211855 0)
(3.67147 0.469394 0)
(3.70166 1.46833 -3.94952e-17)
(2.91318 1.7769 0)
(2.9417 1.91855 0)
(2.53808 2.66545 -3.8853e-17)
(1.96223 1.94075 -3.8252e-17)
(1.77554 1.55349 -3.7142e-17)
(1.28901 2.337 0)
(1.58138 2.63933 0)
(1.25133 2.75565 3.70038e-17)
(0.910952 1.69432 0)
(1.14562 0.517726 0)
(1.28136 0.608325 -3.55054e-17)
(1.36878 -0.136575 3.54185e-17)
(1.287 -2.40338 -3.49218e-17)
(1.27662 -3.54512 0)
(0.823771 -2.77092 0)
(-0.0417087 -1.88636 -7.00702e-17)
(-0.590701 -1.47966 0)
(-0.777333 -1.01934 -6.88796e-17)
(-1.0851 -0.487609 -1.02974e-16)
(-1.52554 -0.118454 1.02881e-16)
(-1.94318 0.0467557 -6.82349e-17)
(-2.37048 0.181698 0)
(-2.83111 0.305142 0)
(-3.29602 0.364058 -6.7069e-17)
(-3.82053 0.306611 -3.34342e-17)
(-4.25561 0.0987723 0)
(-4.60969 -0.141517 0)
(-4.84413 -0.332648 -3.31277e-17)
(-4.94043 -0.576445 -6.59833e-17)
(-4.9449 -0.907783 0)
(-4.86266 -1.28268 6.53375e-17)
(-4.72146 -1.64335 -6.4883e-17)
(-4.58526 -2.0077 6.44224e-17)
(-4.45592 -2.33926 0)
(-4.29601 -2.64958 0)
(-4.24236 -2.9414 0)
(-4.17195 -3.18397 0)
(-4.09711 -3.45275 0)
(-4.11096 -3.69422 6.1596e-17)
(-4.19955 -3.96336 0)
(-4.32263 -4.21288 0)
(-4.38544 -4.49449 0)
(-4.48501 -4.76115 1.20825e-16)
(-4.55853 -4.995 6.02273e-17)
(-4.55358 -5.20482 5.99824e-17)
(-4.57991 -5.34042 -1.19278e-16)
(-4.59614 -5.40016 5.92278e-17)
(-4.63272 -5.45095 -5.87647e-17)
(-4.66422 -5.57596 0)
(-4.72725 -5.76528 5.80807e-17)
(-4.78358 -6.05144 0)
(-4.82843 -6.39657 0)
(-4.85022 -6.76799 0)
(-4.83868 -7.24059 1.13417e-16)
(-4.68233 -7.78513 -5.65039e-17)
(-4.41385 -8.40657 -5.63406e-17)
(-3.98187 -9.00061 -1.11929e-16)
(-3.35115 -9.58729 -1.66745e-16)
(-2.59897 -10.1269 -5.51284e-17)
(-1.69342 -10.7387 0)
(-0.674355 -11.3493 -1.08903e-16)
(0.442078 -11.8554 0)
(1.61513 -12.2127 -1.60254e-16)
(2.69363 -12.6061 0)
(3.98541 -13.1361 -1.5796e-16)
(4.99835 -13.2638 0)
(6.33058 -13.7393 0)
(7.16865 -13.8249 -5.10023e-17)
(8.14384 -14.043 0)
(8.64952 -13.9293 4.97338e-17)
(9.81858 -13.9772 9.77554e-17)
(10.3602 -14.2379 4.82307e-17)
(10.8659 -14.8213 9.74787e-17)
(11.2596 -15.0607 -9.80738e-17)
(11.5382 -15.4032 -9.80877e-17)
(11.6766 -16.0298 1.95917e-16)
(12.2619 -16.7131 0)
(13.0104 -16.5752 0)
(13.7639 -15.3856 9.34278e-17)
(14.0843 -14.7014 -9.04165e-17)
(14.4256 -14.9919 0)
(14.9985 -14.9129 0)
(15.5068 -13.8508 8.95226e-17)
(15.3884 -13.0268 0)
(14.0319 -12.5806 2.91818e-19)
(12.39 -12.4147 2.82486e-19)
(10.3882 -12.9877 7.77037e-17)
(8.58066 -14.5952 0)
(7.19637 -16.9872 -7.85117e-17)
(5.45346 -17.4306 0)
(3.43576 -15.7316 8.12501e-17)
(1.03275 -13.4193 0)
(-1.95961 -11.5196 0)
(-4.83987 -10.7905 -8.0806e-17)
(-7.20521 -10.9811 -8.16499e-17)
(-9.30822 -11.6855 0)
(-10.333 -13.2819 -8.313e-17)
(-10.8389 -15.2488 1.65797e-16)
(-11.0864 -16.7482 0)
(-10.7165 -17.7291 0)
(-9.11549 -18.1275 0)
(-9.15297 -19.373 0)
(-8.48737 -23.9236 8.42732e-17)
(-8.36785 -26.459 -1.65128e-16)
(-6.23522 -24.7074 0)
(-4.0738 -22.2646 0)
(-4.92687 -20.9126 0)
(-2.77719 -19.5887 0)
(-1.69301 -18.1547 0)
(-1.52597 -20.6048 0)
(-0.194138 -18.8479 0)