/*--------------------------------*- C++ -*----------------------------------*\
| =========                 |                                                 |
| \\      /  F ield         | OpenFOAM: The Open Source CFD Toolbox           |
|  \\    /   O peration     | Version:  dev                                   |
|   \\  /    A nd           | Web:      http://www.openfoam.org               |
|    \\/     M anipulation  |                                                 |
\*---------------------------------------------------------------------------*/
FoamFile
{
    version     2.0;
    format      ascii;
    class       volVectorField;
    object      U_0;
    location    "9.142";
}
// * * * * * * * * * * * * * * * * * * * * * * * * * * * * * * * * * * * * * //

dimensions      [0 1 -1 0 0 0 0];

internalField   nonuniform List<vector> 
12225
(
(7.22506 0.17106 0)
(3.97921 -0.0607515 0)
(1.6254 -0.242628 0)
(1.31309 -0.280704 0)
(0.0145615 -0.255653 0)
(0.584775 -0.370513 0)
(-0.5351 -0.254521 0)
(0.257209 -0.405292 0)
(-0.500274 -0.284118 0)
(0.35755 -0.441727 0)
(0.228443 -0.357952 0)
(1.56803 -0.489603 0)
(1.50024 -0.370879 0)
(4.38908 -0.648625 0)
(8.79039 -0.562345 0)
(10.0342 -2.42716 0)
(31.8929 -4.59935 0)
(32.8522 1.52439 0)
(9.72741 0.110195 0)
(8.62182 0.175699 0)
(5.08807 -0.295159 0)
(5.15969 -0.556312 0)
(1.41153 -0.642234 0)
(3.09178 -0.823693 0)
(-0.745843 -0.650418 0)
(1.74698 -1.03967 0)
(-1.86643 -0.673124 0)
(0.691283 -1.14249 0)
(-1.86589 -1.04327 0)
(0.952322 -1.41291 0)
(-1.2927 -1.66263 0)
(5.00709 -3.12168 0)
(5.75525 -3.65406 0)
(15.9061 -10.3529 0)
(21.9512 -6.50369 0)
(26.8132 5.63882 0)
(9.29756 -0.601512 0)
(11.3564 -0.226986 0)
(7.02476 -0.596569 0)
(9.56061 -0.850806 0)
(3.79913 -0.977494 0)
(7.7152 -1.19042 0)
(1.3561 -1.10112 0)
(6.37859 -1.61641 0)
(0.697646 -1.11809 0)
(4.88598 -1.90165 0)
(1.74922 -1.51607 0)
(3.68033 -2.09061 0)
(2.72182 -2.65887 0)
(3.82621 -4.29266 0)
(8.97449 -5.49895 0)
(6.21802 -7.66171 0)
(5.68697 -3.6217 0)
(8.34293 8.13329 0)
(7.59245 -1.58492 0)
(13.7503 -0.747304 0)
(6.78529 -1.23652 0)
(12.9631 -1.31951 0)
(5.05495 -1.50891 0)
(11.5883 -1.70244 0)
(3.69783 -1.61818 0)
(9.87354 -2.42839 0)
(3.64374 -1.56931 0)
(8.81506 -3.15308 0)
(4.89901 -2.11239 0)
(8.18229 -3.2232 0)
(7.27534 -2.99418 0)
(6.41986 -6.26237 0)
(10.7644 -7.25635 0)
(7.30575 -9.63871 0)
(7.37869 -7.59724 0)
(-1.52869 8.02332 0)
(5.59035 -2.16339 0)
(14.8391 -1.81105 0)
(6.60417 -1.73694 0)
(13.9734 -2.19111 0)
(5.95857 -1.77996 0)
(12.6965 -2.6531 0)
(5.59171 -1.79553 0)
(10.8873 -3.34184 0)
(3.97816 -1.9891 0)
(10.9554 -4.05127 0)
(4.22035 -2.46057 0)
(11.2385 -5.51217 0)
(7.63369 -2.9233 0)
(10.4023 -7.09606 0)
(6.1612 -6.92382 0)
(9.4288 -10.9264 0)
(6.57694 -2.29133 0)
(-2.81162 11.4032 0)
(7.28349 -3.29069 0)
(12.5266 -2.83449 0)
(7.24576 -2.77437 0)
(11.5338 -2.97485 0)
(6.13038 -2.81121 0)
(10.487 -3.44407 0)
(6.08432 -2.70932 0)
(9.24995 -3.49745 0)
(3.76398 -3.44013 0)
(9.75671 -4.56139 0)
(2.19034 -3.99153 0)
(6.65934 -5.56911 0)
(-0.458459 -4.26327 0)
(10.918 -7.74786 0)
(-1.27712 -7.78692 0)
(7.97376 -8.77739 0)
(-1.64909 -0.830185 0)
(10.2954 15.0072 0)
(9.41964 -3.74681 0)
(10.4201 -4.02139 0)
(9.09545 -2.99565 0)
(8.93133 -3.9226 0)
(7.03185 -2.9719 0)
(7.64121 -4.81512 0)
(6.40217 -2.95739 0)
(6.987 -4.57265 0)
(5.47054 -4.10605 0)
(6.59765 -5.1713 0)
(3.15731 -3.45643 0)
(4.64265 -6.46938 0)
(-0.642764 -6.24612 0)
(5.95415 -7.97391 0)
(-4.0733 -8.39686 0)
(5.65341 -13.9309 0)
(-7.21095 -5.49575 0)
(18.616 10.5582 0)
(10.0805 -5.00144 0)
(9.66889 -4.76679 0)
(9.7072 -3.87721 0)
(7.78207 -4.40128 0)
(8.63107 -4.09931 0)
(6.77091 -5.35333 0)
(6.85513 -4.13778 0)
(5.05428 -5.22196 0)
(8.09497 -5.25682 0)
(4.26094 -5.39604 0)
(6.17882 -4.78431 0)
(3.09723 -5.71857 0)
(4.34029 -6.98998 0)
(1.5912 -7.98229 0)
(1.68528 -8.35048 0)
(0.6027 -11.0798 0)
(-7.96821 -4.36709 0)
(2.95536 6.49193 0)
(10.4339 -5.42594 0)
(9.24018 -5.89288 0)
(9.48495 -3.90562 0)
(8.3134 -5.56484 0)
(9.27743 -4.3612 0)
(6.95349 -6.15777 0)
(7.12477 -4.08252 0)
(6.26169 -7.05655 0)
(8.22576 -5.47625 0)
(5.31101 -6.52503 0)
(7.51569 -4.60753 0)
(4.21501 -7.30677 0)
(7.27387 -6.81565 0)
(3.28835 -9.03736 0)
(5.73886 -8.10919 0)
(-0.711729 -9.97477 0)
(-3.48813 -3.04711 0)
(-3.26402 -1.97468 0)
(10.2547 -6.48479 0)
(9.4308 -6.31097 0)
(9.37882 -5.11369 0)
(8.86063 -6.19394 0)
(8.98557 -5.27112 0)
(7.20541 -6.42033 0)
(7.72746 -5.54965 0)
(6.76315 -7.38095 0)
(6.83083 -6.37945 0)
(5.73253 -6.79467 0)
(6.47823 -5.79566 0)
(5.84679 -7.52438 0)
(6.33761 -7.46298 0)
(4.23658 -8.86791 0)
(4.66846 -8.12877 0)
(2.06487 -9.06464 0)
(1.04991 -6.13578 0)
(3.02852 -5.04232 0)
(10.3541 -7.28496 0)
(9.21485 -7.58193 0)
(9.55879 -5.6366 0)
(8.5133 -7.50097 0)
(8.64464 -5.91244 0)
(7.41233 -7.60369 0)
(7.61565 -6.27243 0)
(6.59367 -8.49402 0)
(6.19002 -7.32927 0)
(5.72986 -8.16353 0)
(5.72237 -6.80363 0)
(5.58295 -9.03932 0)
(5.05649 -8.13544 0)
(4.60274 -9.93796 0)
(3.2822 -7.90262 0)
(3.23368 -9.7229 0)
(2.41342 -5.94293 0)
(3.52548 -7.3371 0)
(10.159 -8.63243 0)
(9.19121 -8.28825 0)
(9.22555 -7.09949 0)
(8.4927 -8.13874 0)
(8.32057 -7.16273 0)
(7.5921 -8.2513 0)
(7.51789 -7.58953 0)
(6.73619 -9.04238 0)
(6.24083 -8.31351 0)
(5.51275 -9.02674 0)
(5.59661 -8.25806 0)
(5.21733 -9.21663 0)
(4.60599 -9.13376 0)
(3.97326 -9.69422 0)
(3.53374 -9.16492 0)
(3.44845 -9.20179 0)
(2.92256 -8.47186 0)
(3.97391 -8.62288 0)
(10.2911 -9.85724 0)
(9.49201 -9.32668 0)
(9.1179 -8.19698 0)
(8.31877 -9.39504 0)
(8.05545 -8.49831 0)
(7.45141 -9.41643 0)
(7.16258 -8.7913 0)
(6.51372 -9.89192 0)
(5.95472 -9.40983 0)
(5.53563 -10.0028 0)
(5.13331 -9.4362 0)
(4.85955 -10.336 0)
(4.47045 -10.0733 0)
(4.06738 -10.759 0)
(3.7013 -10.2566 0)
(3.56881 -10.5708 0)
(3.40295 -9.90136 0)
(3.63068 -10.0331 0)
(10.183 -11.4218 0)
(9.71241 -10.2433 0)
(9.12799 -9.52847 0)
(8.34681 -10.1045 0)
(7.72687 -9.71594 0)
(7.18815 -10.3288 0)
(6.79116 -10.0865 0)
(6.32643 -10.8269 0)
(5.87422 -10.6403 0)
(5.45904 -11.033 0)
(5.06888 -10.8688 0)
(4.76178 -11.1477 0)
(4.35426 -11.1743 0)
(4.04816 -11.3701 0)
(3.72617 -11.2931 0)
(3.52591 -11.308 0)
(3.36528 -11.1658 0)
(3.34606 -11.1961 0)
(10.1251 -12.9156 0)
(9.38889 -11.2173 0)
(8.79068 -10.7046 0)
(8.18304 -11.0923 0)
(7.65978 -11.0447 0)
(7.148 -11.3996 0)
(6.65496 -11.4084 0)
(6.16843 -11.7955 0)
(5.68243 -11.7963 0)
(5.25109 -11.9655 0)
(4.81358 -11.9416 0)
(4.51611 -12.1609 0)
(4.1795 -12.2034 0)
(3.91851 -12.3407 0)
(3.71881 -12.3855 0)
(3.59126 -12.4393 0)
(3.48815 -12.4379 0)
(3.38464 -12.4489 0)
(10.0849 -14.1939 0)
(9.25799 -12.0115 0)
(8.60101 -11.7956 0)
(7.95378 -12.002 0)
(7.33771 -12.0705 0)
(6.7886 -12.2723 0)
(6.28844 -12.4001 0)
(5.84986 -12.6869 0)
(5.41829 -12.8107 0)
(5.08619 -12.9515 0)
(4.76009 -13.067 0)
(4.52877 -13.2051 0)
(4.26005 -13.2822 0)
(4.02523 -13.3512 0)
(3.80655 -13.3498 0)
(3.66901 -13.3483 0)
(3.51518 -13.3431 0)
(3.34541 -13.3192 0)
(9.7358 -14.9287 0)
(8.88885 -12.5931 0)
(8.27849 -12.4529 0)
(7.6805 -12.6538 0)
(7.10993 -12.8114 0)
(6.63672 -12.9769 0)
(6.18843 -13.1262 0)
(5.79224 -13.3262 0)
(5.38363 -13.4468 0)
(5.03508 -13.5908 0)
(4.66669 -13.7202 0)
(4.35585 -13.8056 0)
(4.03139 -13.8684 0)
(3.80724 -13.9228 0)
(3.57748 -13.9146 0)
(3.43225 -13.941 0)
(3.2716 -13.9567 0)
(3.13147 -13.9301 0)
(9.67164 -15.1725 0)
(8.77632 -12.835 0)
(8.21307 -12.7016 0)
(7.65414 -12.8444 0)
(7.10132 -13.001 0)
(6.61174 -13.1805 0)
(6.1387 -13.3639 0)
(5.73901 -13.5435 0)
(5.35796 -13.6436 0)
(5.0357 -13.7257 0)
(4.69 -13.7996 0)
(4.41713 -13.8618 0)
(4.12216 -13.9111 0)
(3.91243 -13.98 0)
(3.70735 -14.0271 0)
(3.56352 -14.083 0)
(3.44301 -14.1283 0)
(3.33143 -14.1006 0)
(9.75924 -14.6347 0)
(8.83315 -12.5312 0)
(8.19894 -12.4453 0)
(7.60146 -12.5436 0)
(7.05578 -12.6232 0)
(6.55619 -12.7321 0)
(6.07563 -12.8647 0)
(5.66936 -13.0193 0)
(5.2772 -13.1021 0)
(4.96204 -13.1662 0)
(4.61773 -13.2483 0)
(4.3674 -13.2885 0)
(4.13601 -13.3289 0)
(3.9313 -13.3963 0)
(3.74384 -13.4282 0)
(3.606 -13.4781 0)
(3.46468 -13.5318 0)
(3.33312 -13.4972 0)
(9.96857 -13.5869 0)
(8.89251 -11.6128 0)
(8.13611 -11.5929 0)
(7.43242 -11.6997 0)
(6.81833 -11.7856 0)
(6.32242 -11.9167 0)
(5.88242 -12.0539 0)
(5.49672 -12.1808 0)
(5.13861 -12.2468 0)
(4.84386 -12.2983 0)
(4.53739 -12.3688 0)
(4.33638 -12.3873 0)
(4.15924 -12.3875 0)
(3.9888 -12.4287 0)
(3.84749 -12.4385 0)
(3.74182 -12.4664 0)
(3.61663 -12.5429 0)
(3.52259 -12.5109 0)
(9.70945 -12.4164 0)
(8.71679 -10.4597 0)
(8.12106 -10.4692 0)
(7.4873 -10.6096 0)
(6.90319 -10.7102 0)
(6.41176 -10.842 0)
(5.9419 -10.9337 0)
(5.50629 -11.0007 0)
(5.12917 -11.0494 0)
(4.83882 -11.0979 0)
(4.56497 -11.155 0)
(4.36902 -11.2268 0)
(4.20605 -11.2076 0)
(4.07673 -11.2211 0)
(3.94385 -11.2488 0)
(3.86363 -11.2055 0)
(3.7697 -11.2744 0)
(3.68613 -11.2643 0)
(9.45286 -10.9251 0)
(8.44502 -9.30656 0)
(7.81193 -9.30348 0)
(7.22971 -9.4127 0)
(6.7308 -9.49923 0)
(6.27653 -9.58892 0)
(5.79236 -9.64202 0)
(5.39893 -9.73088 0)
(5.04859 -9.81123 0)
(4.75583 -9.82311 0)
(4.56843 -9.87256 0)
(4.37192 -9.9237 0)
(4.22196 -9.89072 0)
(4.15531 -9.88292 0)
(4.03043 -9.91538 0)
(3.95053 -9.85724 0)
(3.90034 -9.88284 0)
(3.81482 -9.90647 0)
(9.71066 -9.40443 0)
(8.71841 -8.05859 0)
(8.06647 -8.065 0)
(7.44485 -8.21023 0)
(6.89813 -8.31889 0)
(6.38879 -8.30384 0)
(5.95075 -8.30799 0)
(5.56418 -8.37131 0)
(5.20235 -8.41911 0)
(4.92068 -8.44709 0)
(4.72486 -8.51545 0)
(4.52766 -8.5197 0)
(4.37354 -8.52344 0)
(4.31381 -8.5196 0)
(4.20976 -8.52588 0)
(4.13099 -8.51489 0)
(4.08822 -8.52292 0)
(4.01171 -8.5051 0)
(9.58129 -8.02489 0)
(8.48614 -6.81017 0)
(8.02043 -6.7796 0)
(7.48357 -6.87923 0)
(6.91177 -6.96654 0)
(6.43363 -7.01694 0)
(6.02864 -7.04977 0)
(5.6672 -7.07524 0)
(5.34947 -7.11708 0)
(5.06295 -7.13122 0)
(4.83658 -7.16143 0)
(4.62281 -7.1526 0)
(4.48508 -7.15108 0)
(4.38006 -7.13017 0)
(4.30452 -7.11489 0)
(4.28724 -7.10235 0)
(4.25621 -7.11173 0)
(4.24817 -7.08317 0)
(9.4304 -6.49976 0)
(8.44794 -5.70485 0)
(8.11509 -5.72544 0)
(7.66058 -5.74761 0)
(7.11737 -5.77963 0)
(6.56933 -5.78403 0)
(6.06382 -5.78652 0)
(5.65893 -5.79192 0)
(5.35185 -5.81278 0)
(5.02201 -5.81978 0)
(4.79673 -5.79159 0)
(4.63908 -5.80273 0)
(4.49677 -5.82798 0)
(4.4258 -5.81414 0)
(4.4011 -5.84204 0)
(4.3701 -5.86782 0)
(4.36294 -5.85805 0)
(4.37961 -5.85732 0)
(9.49116 -5.14847 0)
(8.49492 -4.68453 0)
(8.1173 -4.67499 0)
(7.67981 -4.63828 0)
(7.19767 -4.60591 0)
(6.73218 -4.55778 0)
(6.30571 -4.5578 0)
(5.95282 -4.59861 0)
(5.65166 -4.6088 0)
(5.35418 -4.60899 0)
(5.14736 -4.58175 0)
(4.9698 -4.61036 0)
(4.83285 -4.58873 0)
(4.72502 -4.58771 0)
(4.65704 -4.59362 0)
(4.57664 -4.61064 0)
(4.51667 -4.61487 0)
(4.4649 -4.59535 0)
(9.59843 -3.87552 0)
(8.80772 -3.76844 0)
(8.39259 -3.76001 0)
(7.86784 -3.69528 0)
(7.29995 -3.62255 0)
(6.76908 -3.55005 0)
(6.29019 -3.52942 0)
(5.85867 -3.52743 0)
(5.46062 -3.51924 0)
(5.11228 -3.48284 0)
(4.82739 -3.45483 0)
(4.58975 -3.46019 0)
(4.41097 -3.42699 0)
(4.25618 -3.41904 0)
(4.12615 -3.428 0)
(3.99048 -3.43512 0)
(3.92012 -3.42745 0)
(3.8326 -3.40752 0)
(9.61596 -2.83553 0)
(8.93588 -2.87596 0)
(8.47089 -2.78669 0)
(7.71966 -2.67549 0)
(6.86768 -2.58214 0)
(6.06053 -2.48899 0)
(5.28824 -2.44893 0)
(4.57794 -2.42109 0)
(3.91542 -2.40409 0)
(3.38851 -2.36675 0)
(2.92949 -2.35115 0)
(2.55527 -2.32682 0)
(2.24754 -2.30952 0)
(1.98512 -2.31241 0)
(1.75764 -2.32482 0)
(1.55612 -2.30265 0)
(1.41263 -2.29406 0)
(1.26061 -2.28012 0)
(9.70811 -2.11352 0)
(8.4882 -2.18893 0)
(7.10107 -1.96367 0)
(5.44443 -1.73284 0)
(3.9248 -1.5399 0)
(2.66727 -1.39061 0)
(1.63649 -1.32294 0)
(0.778441 -1.29978 0)
(0.04707 -1.27203 0)
(-0.517958 -1.25213 0)
(-1.00874 -1.25505 0)
(-1.38418 -1.24752 0)
(-1.69904 -1.24813 0)
(-1.95462 -1.25378 0)
(-2.16613 -1.25932 0)
(-2.33859 -1.26123 0)
(-2.44577 -1.2857 0)
(-2.5264 -1.28913 0)
(8.21178 -0.867146 0)
(4.50064 -0.734946 0)
(1.96326 -0.472541 0)
(0.161008 -0.360769 0)
(-1.0044 -0.336133 0)
(-1.79834 -0.333538 0)
(-2.3741 -0.343184 0)
(-2.83527 -0.356192 0)
(-3.22021 -0.357583 0)
(-3.51673 -0.361171 0)
(-3.76385 -0.367188 0)
(-3.95591 -0.369845 0)
(-4.11016 -0.372064 0)
(-4.23089 -0.375544 0)
(-4.33443 -0.382587 0)
(-4.42503 -0.392689 0)
(-4.50387 -0.417533 0)
(-4.63468 -0.434172 0)
(-0.158387 0.2625 0)
(-0.57821 0.20451 0)
(-0.933984 0.231981 0)
(-1.20704 0.156183 0)
(-1.41587 0.105022 0)
(-1.61426 0.0815449 0)
(-1.79237 0.0770026 1.09599e-17)
(-1.99804 0.0779133 -1.08916e-17)
(-2.1847 0.0655113 0)
(-2.34677 0.0324861 -1.07775e-17)
(-2.4333 -0.0141067 0)
(-2.47561 -0.0989859 0)
(-2.4013 -0.186327 0)
(-2.23508 -0.287896 1.05671e-17)
(-1.97736 -0.389944 0)
(-1.57245 -0.460672 0)
(-1.09945 -0.455602 -1.03663e-17)
(-0.644962 -0.409143 0)
(-0.134015 -0.470114 0)
(0.463273 -0.495536 0)
(0.969695 -0.395889 1.00887e-17)
(1.38204 -0.301616 0)
(1.78838 -0.181483 9.91905e-18)
(2.02136 -0.0630805 0)
(2.14144 0.157797 0)
(2.14636 0.248097 9.6412e-18)
(1.93418 0.305165 0)
(1.65844 0.489951 -9.50677e-18)
(1.29202 0.420498 0)
(0.916929 0.57131 9.35857e-18)
(0.425144 0.962691 0)
(-0.311144 0.815355 0)
(-0.966954 0.24976 0)
(-1.38938 -0.216813 0)
(-1.62125 -0.387805 0)
(-1.6352 -0.315269 -9.12453e-18)
(-1.46261 -0.221063 0)
(-1.19643 -0.207001 1.78822e-17)
(-0.786241 -0.258858 0)
(-0.229571 -0.330593 -1.75334e-17)
(0.444425 -0.386517 0)
(1.19397 -0.32107 0)
(1.90745 -0.155991 1.72846e-17)
(2.4314 0.00748036 0)
(2.78534 0.108793 1.71835e-17)
(3.09052 0.146538 -1.709e-17)
(3.44071 0.0998611 0)
(3.74014 -0.0688184 -1.70601e-17)
(3.93726 -0.251842 -1.70803e-17)
(4.16813 -0.411751 0)
(4.44888 -0.488939 0)
(4.79073 -0.532183 0)
(5.15113 -0.588776 0)
(5.47269 -0.664996 0)
(5.78127 -0.721222 1.66059e-17)
(6.03984 -0.773595 0)
(6.23474 -0.783605 -1.63905e-17)
(6.37119 -0.721501 0)
(6.36587 -0.656877 0)
(6.31567 -0.568302 1.60945e-17)
(6.16704 -0.503356 0)
(5.9625 -0.431953 -1.58611e-17)
(5.83487 -0.386621 0)
(5.67344 -0.385766 0)
(5.46967 -0.405448 0)
(5.29511 -0.429097 1.5402e-17)
(5.1144 -0.485688 0)
(4.94623 -0.514968 0)
(4.79596 -0.532607 1.50834e-17)
(4.62896 -0.557449 0)
(4.44658 -0.570969 1.48634e-17)
(4.25107 -0.577823 0)
(4.01743 -0.588508 0)
(3.75125 -0.583211 0)
(3.41637 -0.572378 -1.43647e-17)
(3.03394 -0.547175 0)
(2.62155 -0.512749 0)
(2.19504 -0.493533 -1.39597e-17)
(1.80766 -0.499659 -1.38297e-17)
(1.4713 -0.534598 0)
(1.2594 -0.583469 -1.35803e-17)
(1.10457 -0.692607 0)
(0.997401 -0.751398 -2.6675e-17)
(0.965808 -0.794444 0)
(0.975861 -0.835496 -2.62091e-17)
(1.09797 -0.875245 0)
(1.25895 -0.954745 2.57847e-17)
(1.49138 -0.997293 0)
(1.92657 -1.06088 0)
(2.36158 -1.15023 0)
(2.75612 -1.16195 -2.51898e-17)
(3.26116 -1.23278 0)
(3.78864 -1.26037 2.51474e-17)
(4.45211 -1.40587 0)
(5.34111 -1.51794 -2.5128e-17)
(6.28929 -1.61684 -2.49991e-17)
(7.28447 -1.66125 -2.47969e-17)
(8.20872 -1.60917 0)
(8.8185 -1.49554 0)
(9.3578 -1.57102 0)
(9.94721 -1.66456 0)
(10.6813 -1.74851 0)
(11.5116 -1.69961 0)
(12.232 -1.59664 0)
(12.6105 -1.44046 0)
(12.5165 -1.32117 2.27815e-17)
(12.1347 -1.3829 2.26469e-17)
(11.644 -1.4849 0)
(11.0513 -1.51107 0)
(10.3666 -1.61699 0)
(9.67536 -1.687 2.14537e-17)
(8.89887 -1.62389 0)
(7.9285 -1.50682 0)
(7.06002 -1.46768 0)
(6.31857 -1.55575 0)
(5.96493 -1.86421 -2.02677e-17)
(6.33274 -1.99008 0)
(6.30567 -1.66117 0)
(5.65177 -1.41799 2.04523e-17)
(4.94059 -1.9371 -2.04876e-17)
(4.56332 -2.46269 0)
(3.48815 -2.10641 -2.10066e-17)
(1.32023 -1.55025 0)
(-0.807228 -1.40519 2.06731e-17)
(-2.82168 -1.43291 0)
(-4.2553 -1.58727 0)
(-4.76887 -1.96449 0)
(-4.99212 -2.14987 0)
(-5.50754 -2.09111 0)
(-4.85871 -2.67738 -3.92478e-17)
(-1.10972 -3.80203 -3.90711e-17)
(3.04872 -3.53331 0)
(5.04656 -3.16466 0)
(6.83312 -2.30222 0)
(5.90602 -1.9988 3.81953e-17)
(4.19583 -2.40966 0)
(3.70443 -2.98829 0)
(3.91231 -3.06819 0)
(4.20632 -3.29754 3.84228e-17)
(4.33747 -3.18927 -3.81691e-17)
(4.36973 -3.23605 0)
(4.68897 -3.43832 0)
(4.01912 -2.99454 -3.80627e-17)
(3.74653 -3.15151 -3.76608e-17)
(1.73776 -2.5806 0)
(3.10188 -4.01748 0)
(4.13483 -3.80287 3.64983e-17)
(5.8181 -3.94986 -3.61681e-17)
(7.84353 -4.01659 0)
(10.9257 -4.1733 0)
(12.9283 -3.87522 -3.59124e-17)
(13.1182 -3.74744 0)
(12.2706 -3.70963 0)
(11.0576 -3.88902 -3.54306e-17)
(10.3501 -4.08228 0)
(9.92499 -4.21536 -3.47385e-17)
(10.0013 -4.37047 0)
(10.3897 -4.38153 0)
(10.6756 -4.34303 0)
(11.8279 -4.56536 3.30369e-17)
(12.5608 -4.28202 0)
(12.3699 -4.09628 0)
(12.8644 -4.34492 0)
(12.718 -4.05366 0)
(10.828 -3.34891 0)
(7.90059 -3.32139 0)
(5.81686 -3.72947 3.10524e-17)
(4.61925 -3.65081 3.16925e-17)
(0.884754 -3.12522 0)
(-0.579404 -3.3458 0)
(-2.88114 -2.9294 0)
(-6.99818 -2.93523 -3.11757e-17)
(-10.6959 -2.58011 0)
(-14.5814 -2.60742 6.05164e-17)
(-15.5038 -2.97046 -5.9585e-17)
(-16.536 -2.67567 -6.06242e-17)
(-18.1619 -2.59241 6.08531e-17)
(-19.7947 -2.3584 -6.09007e-17)
(-22.2517 -2.14075 6.0562e-17)
(-23.3318 -2.45957 0)
(0.0217272 0.674526 0)
(-0.294861 0.775912 0)
(-0.604595 0.44244 -2.24155e-17)
(-0.863844 0.200297 0)
(-1.03271 0.0709981 2.21126e-17)
(-1.15742 0.0476316 2.19948e-17)
(-1.27146 0.0713948 1.09468e-17)
(-1.40514 0.0856125 1.09312e-17)
(-1.53172 0.0325961 0)
(-1.60048 -0.0959057 1.09068e-17)
(-1.5979 -0.290593 0)
(-1.54642 -0.518828 0)
(-1.3517 -0.772091 -2.16467e-17)
(-1.10498 -1.05719 -1.07872e-17)
(-0.785936 -1.34784 2.14686e-17)
(-0.370065 -1.65297 2.13658e-17)
(0.0846425 -1.80854 1.06181e-17)
(0.515266 -1.7197 0)
(1.12749 -1.85605 0)
(1.74305 -1.9533 0)
(2.06374 -1.47134 1.03149e-17)
(2.57757 -1.33314 0)
(3.01933 -1.31096 -3.02984e-17)
(3.12181 -0.58018 0)
(3.49728 -0.473885 0)
(3.61266 -0.174012 -9.77127e-18)
(3.46587 0.630557 0)
(3.54033 0.429105 9.51717e-18)
(3.23131 0.703883 1.87499e-17)
(2.90223 1.11898 -9.38007e-18)
(2.79059 0.916975 0)
(2.62202 1.14342 0)
(2.44146 1.50117 0)
(2.10429 1.4151 1.82719e-17)
(1.75041 0.931223 1.80914e-17)
(1.34244 0.280295 9.01873e-18)
(0.8977 -0.296317 0)
(0.588189 -0.777344 -1.78152e-17)
(0.720728 -1.19709 0)
(1.29884 -1.50691 1.71752e-17)
(2.03736 -1.75277 0)
(2.68566 -1.96619 0)
(3.47434 -1.84378 -1.65207e-17)
(4.39853 -1.32682 0)
(5.10385 -1.02483 -5.00443e-17)
(5.51326 -1.19978 1.66939e-17)
(5.91394 -1.33954 0)
(6.29536 -1.13198 1.59956e-17)
(6.41966 -0.80941 1.61368e-17)
(6.32331 -0.739718 0)
(6.14534 -0.896108 0)
(5.97208 -1.08127 0)
(5.65209 -1.12996 0)
(5.26499 -1.01272 0)
(4.75006 -0.872331 -1.63691e-17)
(4.11946 -0.78973 -3.24074e-17)
(3.52391 -0.740216 1.60642e-17)
(2.89078 -0.670158 0)
(2.37427 -0.620039 -3.18061e-17)
(1.90698 -0.657556 1.58571e-17)
(1.47236 -0.747819 0)
(1.20888 -0.84011 1.56996e-17)
(0.989837 -0.956509 0)
(0.7947 -1.11709 0)
(0.626612 -1.21299 3.08025e-17)
(0.446016 -1.30887 -1.52774e-17)
(0.237131 -1.40878 3.03046e-17)
(0.0761449 -1.50348 -3.001e-17)
(-0.115902 -1.56325 -1.4832e-17)
(-0.322887 -1.63107 0)
(-0.511743 -1.70168 -1.44622e-17)
(-0.697207 -1.71739 0)
(-0.942093 -1.71262 0)
(-1.18302 -1.66991 0)
(-1.48613 -1.6388 -1.37896e-17)
(-1.77122 -1.62027 0)
(-2.04561 -1.65921 -2.70673e-17)
(-2.27487 -1.77218 4.03346e-17)
(-2.43203 -1.93332 1.33585e-17)
(-2.52801 -2.11936 0)
(-2.55544 -2.28274 1.31265e-17)
(-2.52165 -2.45064 0)
(-2.42137 -2.57297 2.55718e-17)
(-2.24586 -2.71026 0)
(-1.98955 -2.85955 2.49718e-17)
(-1.63072 -3.05206 -4.96934e-17)
(-1.16137 -3.32805 -2.47802e-17)
(-0.603421 -3.57631 0)
(0.0711291 -3.80087 0)
(0.800334 -3.98142 0)
(1.5429 -4.10888 2.52153e-17)
(2.43704 -4.35811 0)
(3.23703 -4.51816 -2.58357e-17)
(4.26628 -5.01703 0)
(5.26713 -5.26628 7.82559e-17)
(6.20767 -5.42534 2.56804e-17)
(6.97519 -5.46049 2.53361e-17)
(7.74819 -5.3245 0)
(8.50199 -5.09044 0)
(9.33121 -5.18897 0)
(10.012 -5.39411 0)
(10.7186 -5.84933 0)
(11.5452 -5.88127 4.69712e-17)
(12.5803 -5.71295 4.66053e-17)
(13.5259 -5.23895 0)
(13.7991 -4.7567 -2.24327e-17)
(13.7172 -4.4849 -2.2103e-17)
(13.4396 -4.31061 0)
(12.8983 -4.33677 -4.19797e-17)
(12.1871 -4.41714 0)
(11.0521 -4.37709 2.1109e-17)
(9.73938 -4.27469 0)
(8.46348 -4.37062 0)
(7.37142 -4.78484 -3.75908e-17)
(6.54602 -5.26255 0)
(6.40037 -6.03635 1.88347e-17)
(6.85839 -6.45874 0)
(7.08599 -5.85157 0)
(6.95721 -5.60985 1.92675e-17)
(5.72791 -5.58481 1.98536e-17)
(2.7863 -4.75896 0)
(-0.361656 -3.98138 -2.04517e-17)
(-3.13975 -3.92555 0)
(-5.49353 -4.211 1.99527e-17)
(-7.16204 -4.87255 3.97326e-17)
(-7.6257 -5.98827 0)
(-7.58363 -6.62043 0)
(-7.84194 -6.52623 0)
(-7.87846 -7.16026 0)
(-6.07237 -10.0381 3.9947e-17)
(-1.88862 -12.6221 1.1812e-16)
(1.11395 -10.4699 0)
(3.0664 -9.92877 0)
(5.58923 -8.43472 0)
(6.31203 -7.05722 -3.6249e-17)
(5.22024 -7.12628 0)
(4.8236 -8.35944 0)
(4.46508 -8.6628 7.43838e-17)
(4.15944 -9.10235 3.72081e-17)
(4.06544 -9.01028 3.64999e-17)
(4.57162 -9.26622 0)
(5.85177 -9.58109 0)
(4.60081 -9.12624 3.76307e-17)
(5.49779 -10.0723 -3.69966e-17)
(2.73482 -9.31432 0)
(6.63038 -12.9937 0)
(6.44432 -12.1207 -3.5083e-17)
(8.3033 -13.1502 1.05183e-16)
(9.12377 -14.0045 0)
(13.0914 -14.729 0)
(17.3042 -12.932 3.47543e-17)
(19.0801 -11.6758 0)
(18.8395 -10.9856 6.8035e-17)
(17.4923 -11.1908 -3.3917e-17)
(17.0063 -11.7318 0)
(16.313 -11.7895 3.36172e-17)
(15.9887 -12.1505 6.60656e-17)
(15.8053 -12.2762 0)
(14.9207 -12.4813 0)
(15.9638 -13.0768 -3.05377e-17)
(15.996 -12.1951 0)
(15.0615 -11.941 5.68947e-17)
(15.6696 -12.3681 0)
(15.0296 -11.503 0)
(12.1765 -10.0269 0)
(9.69283 -10.0319 0)
(8.09527 -10.6739 -2.68074e-17)
(5.34034 -9.91375 -2.83849e-17)
(-0.257973 -9.40258 0)
(-0.695159 -10.3663 0)
(-2.51587 -8.25702 0)
(-8.18442 -7.79067 2.859e-17)
(-12.4035 -7.29297 0)
(-15.5765 -8.00798 -5.32782e-17)
(-15.4489 -8.91171 5.35262e-17)
(-17.2355 -7.54194 5.6317e-17)
(-20.1327 -7.14922 5.77108e-17)
(-23.4875 -6.08411 5.84567e-17)
(-27.5239 -5.57097 5.72242e-17)
(-28.7379 -6.92793 0)
(0.117885 0.188095 0)
(0.201576 0.867733 0)
(0.101429 0.768804 2.24169e-17)
(-0.0999318 0.373058 2.23166e-17)
(-0.205243 0.00334652 -2.22427e-17)
(-0.224286 -0.14077 -2.21211e-17)
(-0.213692 -0.102779 -2.38119e-20)
(-0.16918 -0.0840775 0)
(-0.0927521 -0.184644 0)
(0.0474736 -0.421332 0)
(0.223799 -0.773589 0)
(0.496942 -1.17509 0)
(0.829445 -1.56337 6.52793e-17)
(1.19038 -1.96227 0)
(1.58396 -2.29052 -2.15188e-17)
(2.03249 -2.57947 -2.1324e-17)
(2.44099 -2.72449 0)
(2.77979 -2.76534 0)
(3.28135 -3.04788 0)
(3.62505 -2.77214 0)
(3.73559 -2.31063 -2.0702e-17)
(4.20884 -2.20771 0)
(4.24237 -1.42065 2.03712e-17)
(4.08485 -1.25966 0)
(4.45716 -0.895808 0)
(4.18153 0.243397 0)
(4.17128 0.168023 3.95543e-17)
(4.21058 0.953877 0)
(3.75467 1.59136 -1.94687e-17)
(3.65582 0.968522 3.79429e-17)
(3.40877 1.44016 0)
(3.42992 1.71972 0)
(3.39541 1.38139 0)
(3.30612 0.896815 -1.82178e-17)
(3.12101 0.609358 -1.78928e-17)
(2.72876 0.982272 0)
(2.7196 1.03145 0)
(2.54434 0.211016 3.58696e-17)
(2.21866 -1.28709 3.54331e-17)
(2.43315 -2.44571 -3.46588e-17)
(3.36915 -2.49595 0)
(4.03765 -2.54386 0)
(4.21595 -2.96214 0)
(4.48338 -2.82688 0)
(4.7772 -2.03315 3.3962e-17)
(4.74201 -1.20255 3.40112e-17)
(4.42614 -0.758843 -3.39952e-17)
(3.94971 -0.721718 0)
(3.48198 -0.784788 0)
(3.05431 -0.69467 0)
(2.57497 -0.510231 0)
(1.96036 -0.375579 3.33498e-17)
(1.25365 -0.302238 0)
(0.660751 -0.23418 0)
(0.175634 -0.220848 3.27249e-17)
(-0.288943 -0.227123 3.2637e-17)
(-0.700631 -0.332238 0)
(-0.980614 -0.537014 -6.51156e-17)
(-1.14782 -0.77163 3.24653e-17)
(-1.27678 -1.01559 -3.23542e-17)
(-1.40821 -1.25239 0)
(-1.46102 -1.48486 0)
(-1.62304 -1.67443 0)
(-1.76015 -1.89842 0)
(-1.83004 -2.06992 -3.12507e-17)
(-1.96664 -2.21809 -6.19219e-17)
(-2.12066 -2.34771 -3.06148e-17)
(-2.25823 -2.4967 3.0281e-17)
(-2.33916 -2.61346 0)
(-2.45344 -2.67701 -5.94002e-17)
(-2.55752 -2.79657 -5.88479e-17)
(-2.60631 -2.85073 -5.82776e-17)
(-2.69819 -2.89689 5.77023e-17)
(-2.77144 -2.8853 0)
(-2.89864 -2.91456 8.5072e-17)
(-2.99239 -2.93907 0)
(-3.12034 -3.07098 -2.81921e-17)
(-3.18595 -3.25425 -2.80594e-17)
(-3.25754 -3.49143 0)
(-3.29235 -3.72579 0)
(-3.2764 -3.9804 -5.49269e-17)
(-3.17455 -4.25541 0)
(-2.96017 -4.54452 -5.37326e-17)
(-2.58658 -4.84268 0)
(-2.05456 -5.14333 5.28363e-17)
(-1.42273 -5.47743 1.05168e-16)
(-0.668827 -5.88686 0)
(0.152837 -6.30443 0)
(1.04369 -6.63275 0)
(1.95618 -6.88293 5.28995e-17)
(2.84437 -7.12968 0)
(3.98966 -7.44495 5.30477e-17)
(4.85588 -7.57365 0)
(6.01021 -8.19202 0)
(6.59878 -8.40567 -1.04148e-16)
(7.37202 -8.48541 0)
(7.70064 -8.45934 -4.96177e-17)
(8.25198 -8.65804 0)
(8.78015 -8.75137 -4.9772e-17)
(9.41531 -8.7863 0)
(10.0126 -8.88327 0)
(10.4708 -9.43059 0)
(10.8938 -9.74121 -1.42733e-16)
(11.672 -9.84181 -4.70733e-17)
(12.8834 -9.27268 0)
(13.5726 -8.18724 0)
(13.7186 -7.90852 0)
(13.9957 -7.93059 0)
(14.2125 -7.3195 4.40526e-17)
(13.8125 -6.88644 -8.56853e-17)
(12.7154 -6.97259 -4.19439e-17)
(11.3068 -6.96643 7.99379e-17)
(9.75163 -7.01998 7.61366e-17)
(8.30831 -7.44263 3.77005e-17)
(7.06774 -8.40861 0)
(6.90194 -10.1224 7.85833e-17)
(6.87363 -10.9633 0)
(6.51774 -9.90765 -7.94583e-17)
(5.30529 -8.39379 -4.00295e-17)
(2.40212 -7.20892 0)
(-1.16718 -6.4424 8.11654e-17)
(-3.87663 -6.12749 4.00574e-17)
(-6.29002 -6.36555 0)
(-8.10468 -7.17421 4.05249e-17)
(-8.8061 -8.70143 -1.20547e-16)
(-8.74132 -10.1601 0)
(-8.63407 -10.8658 0)
(-8.21068 -11.3092 0)
(-7.56164 -12.9362 0)
(-5.73955 -17.0833 -8.34144e-17)
(-3.12067 -19.0528 -7.99618e-17)
(-1.34785 -16.6936 0)
(1.85556 -16.2805 0)
(1.81975 -14.4071 0)
(4.14188 -12.3183 0)
(3.98314 -12.1493 0)
(4.73716 -13.9369 0)
(4.4619 -13.685 -7.34567e-17)
(3.81545 -14.9254 1.25406e-19)
(4.07748 -15.302 0)
(4.74981 -16.5191 0)
(7.3137 -16.6191 -7.10459e-17)
(7.1316 -15.1499 0)
(10.4485 -16.5769 7.35869e-17)
(6.94038 -14.8314 7.06196e-17)
(9.88639 -21.3062 0)
(11.5063 -19.1453 0)
(12.708 -19.5818 -6.87458e-17)
(11.321 -22.0951 -1.45446e-16)
(12.5197 -25.3701 0)
(17.045 -22.7057 0)
(19.4257 -20.0075 0)
(20.189 -18.2538 -6.69597e-17)
(18.7074 -18.4221 6.69483e-17)
(18.4923 -19.5518 0)
(18.4982 -19.5322 1.36756e-16)
(18.3895 -20.1336 6.7729e-17)
(19.1413 -19.8469 -1.32983e-16)
(17.9524 -20.0175 0)
(19.202 -21.3798 0)
(18.8742 -19.6277 -1.18856e-16)
(17.3132 -19.2839 -5.60762e-17)
(17.6769 -20.2 0)
(17.6914 -18.5566 0)
(14.0146 -16.1438 0)
(11.5752 -16.6022 0)
(9.98577 -17.0561 -1.05587e-16)
(5.32589 -14.7911 0)
(-0.974028 -14.3613 0)
(-2.69526 -17.6091 0)
(-1.10882 -13.3346 0)
(-7.88439 -12.3835 0)
(-11.9183 -12.2513 0)
(-14.4732 -13.5912 -1.01634e-16)
(-15.0176 -14.6733 0)
(-17.3122 -11.7269 0)
(-21.6709 -10.7735 -2.28464e-16)
(-26.1697 -9.01738 1.13513e-16)
(-29.457 -9.07504 -1.08637e-16)
(-28.2499 -11.7175 1.04818e-16)
(0.0233205 -0.607619 0)
(0.269309 0.13066 -4.61034e-17)
(0.441227 0.470574 0)
(0.526417 0.211211 -2.25004e-17)
(0.591937 -0.290901 0)
(0.710393 -0.623871 0)
(0.849168 -0.701603 2.19395e-17)
(1.11552 -0.785532 0)
(1.4432 -0.976055 0)
(1.87211 -1.29187 0)
(2.37337 -1.70514 0)
(2.88227 -2.1482 0)
(3.39736 -2.58583 -8.61973e-17)
(3.91833 -3.00282 -4.27426e-17)
(4.37524 -3.36597 4.26593e-17)
(4.80936 -3.5455 0)
(5.2057 -3.76856 0)
(5.51639 -3.7449 0)
(5.84815 -3.56053 0)
(5.79106 -3.50835 0)
(5.90685 -2.95254 -4.09792e-17)
(5.98901 -2.27385 -4.08168e-17)
(5.63233 -1.70826 4.03568e-17)
(5.67252 -1.05306 -3.9889e-17)
(5.19632 -0.744431 0)
(4.89904 -0.243634 0)
(4.9816 0.760679 -3.95164e-17)
(4.25556 1.04985 0)
(4.33791 1.23758 0)
(3.9919 1.96692 -3.88716e-17)
(3.47505 1.23042 -3.82231e-17)
(3.32751 0.923664 -3.71361e-17)
(2.92861 1.73431 0)
(3.28488 2.04103 0)
(3.0126 2.14497 3.70098e-17)
(2.73179 1.07769 0)
(3.01277 -0.0330711 0)
(3.20835 0.103778 -3.55121e-17)
(3.3412 -0.67826 3.5412e-17)
(3.29895 -2.94893 -3.4895e-17)
(3.34984 -4.00444 0)
(2.9658 -3.17579 0)
(2.16434 -2.27027 -7.00502e-17)
(1.67179 -1.86254 0)
(1.54436 -1.37524 -6.88424e-17)
(1.29493 -0.816411 -1.02925e-16)
(0.898109 -0.420586 1.02824e-16)
(0.513042 -0.220388 -6.81945e-17)
(0.119976 -0.0574415 0)
(-0.315785 0.0944805 0)
(-0.764056 0.186397 -6.70033e-17)
(-1.26583 0.166929 -3.33913e-17)
(-1.67555 -0.00224224 0)
(-2.01348 -0.203617 0)
(-2.23982 -0.358086 -3.30681e-17)
(-2.33145 -0.573115 -6.58664e-17)
(-2.34001 -0.861726 0)
(-2.26854 -1.19199 6.51926e-17)
(-2.14568 -1.50634 -6.47455e-17)
(-2.03504 -1.82393 6.42753e-17)
(-1.93414 -2.10557 0)
(-1.81083 -2.36277 0)
(-1.81041 -2.6023 0)
(-1.79227 -2.79505 0)
(-1.76092 -3.01246 0)
(-1.82257 -3.20016 6.13613e-17)
(-1.96392 -3.41237 0)
(-2.13695 -3.605 0)
(-2.24552 -3.82887 0)
(-2.38949 -4.03379 1.20227e-16)
(-2.5057 -4.20454 5.99007e-17)
(-2.54014 -4.35323 5.96438e-17)
(-2.60683 -4.42732 -1.18603e-16)
(-2.66357 -4.42783 5.88938e-17)
(-2.7358 -4.42004 -5.83924e-17)
(-2.79773 -4.48536 0)
(-2.88773 -4.61417 5.76879e-17)
(-2.96621 -4.83915 0)
(-3.02929 -5.12159 0)
(-3.06475 -5.4261 0)
(-3.0654 -5.82629 1.12577e-16)
(-2.91995 -6.29469 -5.60843e-17)
(-2.66528 -6.8361 -5.59403e-17)
(-2.25539 -7.34851 -1.11043e-16)
(-1.65727 -7.85193 -1.65363e-16)
(-0.953503 -8.3084 -5.46408e-17)
(-0.115577 -8.83995 0)
(0.818557 -9.37151 -1.08007e-16)
(1.84035 -9.8005 0)
(2.89764 -10.0905 -1.5893e-16)
(3.85275 -10.4211 0)
(5.02134 -10.8737 -1.56627e-16)
(5.89554 -10.9396 0)
(7.08466 -11.3568 0)
(7.7501 -11.3936 -5.05611e-17)
(8.57224 -11.5525 0)
(8.92067 -11.3577 4.89962e-17)
(9.88266 -11.3763 9.63021e-17)
(10.1775 -11.6398 4.76097e-17)
(10.4834 -12.1388 9.65061e-17)
(10.7141 -12.2819 -9.69958e-17)
(10.8473 -12.5836 -9.68347e-17)
(10.8751 -13.1113 1.92901e-16)
(11.3546 -13.6146 0)
(11.9979 -13.3345 0)
(12.6437 -12.1114 9.19437e-17)
(12.8592 -11.4776 -8.90995e-17)
(13.129 -11.7052 0)
(13.6595 -11.4665 0)
(14.1258 -10.3693 8.80583e-17)
(13.9263 -9.63286 0)
(12.5914 -9.30992 4.42896e-19)
(11.0721 -9.26659 4.30152e-19)
(9.27496 -9.96087 7.62346e-17)
(7.78798 -11.6395 0)
(6.81286 -13.9303 -7.72305e-17)
(5.49063 -14.2881 0)
(3.88113 -12.6939 7.97424e-17)
(1.85497 -10.5679 0)
(-0.816883 -8.84364 0)
(-3.41106 -8.25281 -7.94185e-17)
(-5.46913 -8.54648 -8.04019e-17)
(-7.32338 -9.34467 0)
(-8.14551 -11.0227 -8.158e-17)
(-8.40077 -13.1426 1.62984e-16)
(-8.37899 -14.8143 0)
(-7.84391 -15.9264 0)
(-6.19676 -16.5957 0)
(-5.98761 -18.1139 0)
(-4.92679 -22.7386 8.28108e-17)
(-4.24343 -25.2883 -1.62546e-16)
(-1.99525 -23.5929 0)
(0.277184 -21.4889 0)
(-0.48818 -20.2417 0)
(2.00008 -18.9122 0)
(3.02842 -17.8589 0)
(3.25183 -19.9834 0)
(4.40901 -18.6584 0)