/*--------------------------------*- C++ -*----------------------------------*\
| =========                 |                                                 |
| \\      /  F ield         | OpenFOAM: The Open Source CFD Toolbox           |
|  \\    /   O peration     | Version:  dev                                   |
|   \\  /    A nd           | Web:      http://www.openfoam.org               |
|    \\/     M anipulation  |                                                 |
\*---------------------------------------------------------------------------*/
FoamFile
{
    version     2.0;
    format      ascii;
    class       volSymmTensorField;
    object      UPrime2Mean;
    location    "9.142";
}
// * * * * * * * * * * * * * * * * * * * * * * * * * * * * * * * * * * * * * //

dimensions      [0 2 -2 0 0 0 0];

internalField   nonuniform List<symmTensor> 
12225
(
(0.329452 0.0192634 0 0.0692601 0 0)
(2.98819 0.0796669 0 0.0781827 0 0)
(7.88571 0.112254 0 0.0768866 0 0)
(14.5442 0.148152 0 0.0755631 0 0)
(22.7182 0.132888 0 0.0765089 0 0)
(32.0884 0.200977 0 0.0746665 0 0)
(42.4075 0.0958289 0 0.0766068 0 0)
(53.558 0.200228 0 0.0738467 0 0)
(65.6592 -0.0285598 0 0.0776072 0 0)
(78.2638 0.12546 0 0.0736167 0 0)
(93.0185 -0.306325 0 0.0813069 0 0)
(107.368 -0.116003 0 0.0769909 0 0)
(127.989 -0.672207 0 0.0863046 0 0)
(145.697 -1.27744 0 0.134734 0 0)
(186.043 -1.41126 0 0.116477 0 0)
(198.617 -0.391677 0 2.39498 0 0)
(272.431 -33.5521 0 5.81108 0 0)
(576.047 -52.9692 0 18.8373 0 0)
(0.377649 0.0567807 0 0.688909 0 0)
(3.15826 0.252158 0 0.732196 0 0)
(8.41656 0.361985 0 0.714062 0 0)
(15.484 0.485219 0 0.706559 0 0)
(24.2136 0.452723 0 0.703424 0 0)
(34.4796 0.632583 0 0.683262 0 0)
(45.5539 0.295742 0 0.692052 0 0)
(58.5181 0.608732 0 0.658737 0 0)
(71.5162 -0.135467 0 0.682584 0 0)
(87.2015 0.282258 0 0.64594 0 0)
(102.843 -1.06537 0 0.71124 0 0)
(121.499 -0.766536 0 0.65547 0 0)
(142.932 -2.54297 0 1.06909 0 0)
(166.407 -4.49185 0 1.04697 0 0)
(199.88 -0.924755 0 3.10431 0 0)
(274.532 -9.97612 0 6.61099 0 0)
(281.155 -20.8449 0 8.73921 0 0)
(800.26 -185.267 0 64.7313 0 0)
(0.505256 0.0583223 0 2.14038 0 0)
(3.06601 0.4245 0 2.2023 0 0)
(8.47148 0.570308 0 2.15124 0 0)
(14.8625 0.851634 0 2.14271 0 0)
(24.2913 0.864159 0 2.11963 0 0)
(33.1722 1.05273 0 2.08243 0 0)
(45.2987 0.755811 0 2.07819 0 0)
(56.238 0.885881 0 2.00741 0 0)
(69.7272 0.171737 0 2.05156 0 0)
(83.5004 0.0161968 0 1.95919 0 0)
(98.2444 -1.12383 0 2.12242 0 0)
(115.735 -2.4497 0 2.09444 0 0)
(138.704 -3.59684 0 2.62245 0 0)
(154.97 -7.20067 0 2.83169 0 0)
(211.144 -13.0151 0 6.12553 0 0)
(223.527 -7.8849 0 6.3805 0 0)
(353.254 -62.2929 0 31.0933 0 0)
(534.891 -192.643 0 98.312 0 0)
(1.03021 0.0922932 0 4.67006 0 0)
(3.55177 0.619334 0 4.76661 0 0)
(9.07485 0.81555 0 4.64243 0 0)
(15.0762 1.14958 0 4.60167 0 0)
(24.6525 1.31246 0 4.55742 0 0)
(33.0052 1.34936 0 4.48307 0 0)
(45.0341 1.2608 0 4.44812 0 0)
(55.2036 0.972753 0 4.34957 0 0)
(68.6439 0.475068 0 4.3814 0 0)
(80.7654 -0.283839 0 4.2577 0 0)
(96.0954 -1.33207 0 4.50718 0 0)
(110.585 -3.34417 0 4.37232 0 0)
(131.555 -4.79542 0 5.30244 0 0)
(152.353 -10.9776 0 5.60935 0 0)
(187.977 -11.4299 0 9.28909 0 0)
(238.585 -28.8759 0 16.8357 0 0)
(291.687 -58.9641 0 32.6909 0 0)
(415.044 -178.384 0 107.856 0 0)
(1.86384 0.364969 0 8.52201 0 0)
(5.01071 0.720006 0 8.7235 0 0)
(9.44174 1.1397 0 8.47235 0 0)
(16.2507 1.29413 0 8.36922 0 0)
(24.6649 1.70028 0 8.27965 0 0)
(33.9666 1.50173 0 8.14455 0 0)
(44.8494 1.59702 0 8.04393 0 0)
(55.5565 0.991913 0 7.91185 0 0)
(68.4594 0.599109 0 7.85888 0 0)
(80.1707 -0.595517 0 7.76108 0 0)
(95.4323 -1.78124 0 7.96293 0 0)
(108.624 -4.23064 0 7.9103 0 0)
(128.179 -6.8845 0 9.02784 0 0)
(145.311 -12.2932 0 9.27001 0 0)
(174.075 -19.2093 0 14.5933 0 0)
(218.042 -25.967 0 17.2185 0 0)
(233.815 -55.6089 0 46.2786 0 0)
(326.853 -171.821 0 138.711 0 0)
(2.56263 0.75061 0 14.0388 0 0)
(6.32778 0.806866 0 14.3907 0 0)
(9.30674 1.53956 0 13.9608 0 0)
(17.1068 1.59382 0 13.7661 0 0)
(24.1574 2.1199 0 13.5914 0 0)
(34.2881 1.93556 0 13.3594 0 0)
(44.0053 1.98991 0 13.1543 0 0)
(55.2072 1.41363 0 12.9136 0 0)
(67.3733 0.892579 0 12.777 0 0)
(78.9613 -0.388664 0 12.5761 0 0)
(94.4885 -1.74152 0 12.7768 0 0)
(105.899 -4.31629 0 12.6855 0 0)
(128.199 -7.27207 0 13.9884 0 0)
(138.025 -13.1625 0 14.6691 0 0)
(171.085 -21.8465 0 21.255 0 0)
(191.615 -33.0544 0 24.6099 0 0)
(211.177 -55.9347 0 51.5927 0 0)
(265.86 -145.739 0 130.691 0 0)
(2.24689 0.721953 0 21.5307 0 0)
(5.54921 0.941253 0 22.1468 0 0)
(9.20761 1.76321 0 21.3725 0 0)
(16.3527 2.07686 0 21.1847 0 0)
(23.9912 2.44882 0 20.7861 0 0)
(33.3891 2.54162 0 20.5529 0 0)
(43.6437 2.27238 0 20.0847 0 0)
(54.0895 1.92621 0 19.8547 0 0)
(66.5343 0.89409 0 19.437 0 0)
(77.4182 -0.221299 0 19.2842 0 0)
(92.5853 -2.37623 0 19.2245 0 0)
(103.573 -4.82753 0 19.2671 0 0)
(123.732 -8.98773 0 20.4775 0 0)
(134.018 -14.2683 0 21.4562 0 0)
(161.656 -24.4148 0 28.5233 0 0)
(169.501 -32.4231 0 32.0587 0 0)
(203.512 -59.0367 0 56.8888 0 0)
(190.401 -108.847 0 114.209 0 0)
(1.42657 0.5989 0 29.752 0 0)
(4.32631 1.13475 0 30.6376 0 0)
(8.59025 1.92345 0 29.4902 0 0)
(15.2633 2.47192 0 29.319 0 0)
(23.2243 2.77605 0 28.6736 0 0)
(32.2894 2.96186 0 28.4127 0 0)
(42.4507 2.59588 0 27.661 0 0)
(52.8279 2.18858 0 27.3805 0 0)
(64.4745 1.0038 0 26.6567 0 0)
(75.6687 -0.367564 0 26.4918 0 0)
(88.7096 -2.75751 0 26.1085 0 0)
(100.501 -5.74191 0 26.3334 0 0)
(115.629 -10.33 0 27.09 0 0)
(128.165 -15.8099 0 28.6055 0 0)
(144.766 -26.5057 0 33.9223 0 0)
(152.131 -33.4763 0 37.487 0 0)
(180.462 -54.9259 0 53.2066 0 0)
(139.685 -71.348 0 83.732 0 0)
(1.00854 0.521495 0 38.5222 0 0)
(3.7811 1.28763 0 39.7166 0 0)
(8.18605 2.03511 0 38.1792 0 0)
(14.7379 2.77865 0 38.0381 0 0)
(22.6688 3.00415 0 37.1282 0 0)
(31.6083 3.31357 0 36.8531 0 0)
(41.5336 2.80188 0 35.8021 0 0)
(51.81 2.46958 0 35.4835 0 0)
(62.8729 1.03367 0 34.4749 0 0)
(73.8936 -0.287119 0 34.275 0 0)
(85.7183 -3.05335 0 33.6443 0 0)
(97.0827 -5.9124 0 33.9042 0 0)
(109.417 -10.9592 0 34.4135 0 0)
(121.297 -16.0521 0 36.1335 0 0)
(131.312 -25.5787 0 40.0182 0 0)
(138.237 -33.2254 0 44.7484 0 0)
(150.093 -47.3467 0 52.481 0 0)
(123.283 -58.7805 0 73.1488 0 0)
(0.612695 0.484522 0 49.7077 0 0)
(3.23809 1.4454 0 51.2959 0 0)
(7.74651 2.18555 0 49.1994 0 0)
(14.2073 3.03437 0 49.112 0 0)
(22.0057 3.27116 0 47.8227 0 0)
(30.8683 3.57615 0 47.5434 0 0)
(40.4979 3.06088 0 46.082 0 0)
(50.6377 2.63158 0 45.7135 0 0)
(61.1673 1.15539 0 44.294 0 0)
(71.8405 -0.301059 0 44.0507 0 0)
(82.7276 -3.15193 0 43.0065 0 0)
(93.2751 -6.04999 0 43.3258 0 0)
(103.921 -11.1074 0 43.3264 0 0)
(113.79 -15.8607 0 45.1835 0 0)
(121.403 -24.5242 0 47.6883 0 0)
(125.844 -30.5897 0 51.959 0 0)
(129.182 -40.7414 0 56.4826 0 0)
(116.074 -48.4144 0 69.0503 0 0)
(0.434431 0.51603 0 63.9008 0 0)
(2.98067 1.62668 0 65.9557 0 0)
(7.47371 2.38213 0 63.2641 0 0)
(13.8531 3.30826 0 63.1522 0 0)
(21.503 3.56665 0 61.5184 0 0)
(30.205 3.85529 0 61.1038 0 0)
(39.568 3.35101 0 59.2958 0 0)
(49.4107 2.81193 0 58.701 0 0)
(59.4849 1.36117 0 56.9803 0 0)
(69.5922 -0.277534 0 56.4626 0 0)
(79.6918 -2.99413 0 55.1601 0 0)
(89.2305 -6.09575 0 55.2161 0 0)
(98.5519 -10.5697 0 54.8704 0 0)
(106.432 -15.4341 0 56.4184 0 0)
(112.6 -22.1518 0 57.8633 0 0)
(115.134 -28.0688 0 61.5935 0 0)
(116.08 -35.2174 0 64.5602 0 0)
(109.625 -40.8179 0 71.4611 0 0)
(0.356526 0.540297 0 81.3925 0 0)
(2.8329 1.74382 0 84.0776 0 0)
(7.26527 2.55301 0 80.61 0 0)
(13.5225 3.4986 0 80.5007 0 0)
(20.9988 3.80506 0 78.4143 0 0)
(29.4807 4.03167 0 77.8611 0 0)
(38.5413 3.55408 0 75.5719 0 0)
(48.0142 2.9113 0 74.7472 0 0)
(57.5708 1.47128 0 72.5552 0 0)
(67.0668 -0.234291 0 71.7682 0 0)
(76.2827 -2.88571 0 70.0129 0 0)
(84.8713 -5.87226 0 69.7539 0 0)
(92.7801 -9.97835 0 68.9187 0 0)
(99.2114 -14.3083 0 69.8726 0 0)
(103.927 -19.7568 0 70.5159 0 0)
(105.872 -24.6713 0 73.0207 0 0)
(106.027 -29.8383 0 74.9637 0 0)
(101.78 -33.3238 0 78.6209 0 0)
(0.329404 0.568678 0 102.469 0 0)
(2.73736 1.80531 0 105.678 0 0)
(7.07198 2.68062 0 101.652 0 0)
(13.161 3.5798 0 101.183 0 0)
(20.4418 3.92865 0 98.9187 0 0)
(28.6285 4.04855 0 97.839 0 0)
(37.3643 3.60756 0 95.3244 0 0)
(46.3672 2.82454 0 93.875 0 0)
(55.3982 1.46358 0 91.4384 0 0)
(64.1814 -0.354475 0 89.9874 0 0)
(72.5626 -2.77362 0 87.9606 0 0)
(80.1546 -5.70576 0 86.9866 0 0)
(86.8779 -9.21721 0 85.7749 0 0)
(92.1402 -13.1074 0 85.7823 0 0)
(95.8433 -17.3268 0 85.7326 0 0)
(97.4285 -21.3945 0 86.8747 0 0)
(97.5311 -25.2401 0 87.9022 0 0)
(94.7262 -27.6958 0 89.5075 0 0)
(0.313796 0.57282 0 126.461 0 0)
(2.64194 1.77231 0 130.39 0 0)
(6.85104 2.66468 0 125.681 0 0)
(12.7365 3.45912 0 124.871 0 0)
(19.7751 3.78589 0 122.34 0 0)
(27.6278 3.79893 0 120.763 0 0)
(35.9715 3.32446 0 117.88 0 0)
(44.4833 2.47667 0 115.847 0 0)
(52.9223 1.12091 0 112.986 0 0)
(61.018 -0.643278 0 110.895 0 0)
(68.569 -2.91221 0 108.404 0 0)
(75.2942 -5.54511 0 106.677 0 0)
(81.0338 -8.60133 0 104.909 0 0)
(85.4842 -11.8258 0 103.905 0 0)
(88.5307 -15.1896 0 103.073 0 0)
(89.9688 -18.358 0 102.899 0 0)
(90.2714 -21.2778 0 102.912 0 0)
(88.308 -22.9251 0 103.064 0 0)
(0.299387 0.524299 0 151.876 0 0)
(2.53394 1.57981 0 156.377 0 0)
(6.58674 2.3743 0 151.248 0 0)
(12.2384 2.9834 0 149.809 0 0)
(18.9816 3.20594 0 147.25 0 0)
(26.4628 3.06307 0 144.937 0 0)
(34.3654 2.52183 0 141.848 0 0)
(42.3569 1.58899 0 139.041 0 0)
(50.1959 0.258905 0 135.842 0 0)
(57.6172 -1.44668 0 132.965 0 0)
(64.4321 -3.50919 0 130.013 0 0)
(70.4126 -5.84753 0 127.44 0 0)
(75.4282 -8.42518 0 125.036 0 0)
(79.3162 -11.078 0 123.034 0 0)
(82.0153 -13.7167 0 121.32 0 0)
(83.4337 -16.182 0 119.981 0 0)
(84.0165 -18.381 0 118.891 0 0)
(82.8093 -19.4275 0 117.78 0 0)
(0.2841 0.393532 0 175.097 0 0)
(2.41548 1.14343 0 180.297 0 0)
(6.28639 1.66714 0 174.688 0 0)
(11.6764 1.9983 0 172.806 0 0)
(18.0858 1.9945 0 170.124 0 0)
(25.1683 1.65681 0 167.272 0 0)
(32.6029 0.9754 0 163.885 0 0)
(40.0739 -0.034262 0 160.489 0 0)
(47.3341 -1.36928 0 156.871 0 0)
(54.15 -2.9818 0 153.356 0 0)
(60.3437 -4.8507 0 149.868 0 0)
(65.7507 -6.88206 0 146.577 0 0)
(70.2661 -9.03682 0 143.479 0 0)
(73.817 -11.1852 0 140.624 0 0)
(76.3737 -13.2495 0 138.033 0 0)
(77.9004 -15.1494 0 135.707 0 0)
(78.7828 -16.7972 0 133.594 0 0)
(78.2343 -17.3952 0 131.395 0 0)
(0.268875 0.155715 0 190.207 0 0)
(2.29459 0.388982 0 195.88 0 0)
(5.96976 0.485682 0 189.985 0 0)
(11.0806 0.406031 0 187.842 0 0)
(17.1397 0.0683789 0 185.096 0 0)
(23.8142 -0.540922 0 181.925 0 0)
(30.7869 -1.41094 0 178.345 0 0)
(37.7621 -2.53395 0 174.592 0 0)
(44.5037 -3.88433 0 170.68 0 0)
(50.8055 -5.42493 0 166.761 0 0)
(56.5142 -7.11231 0 162.868 0 0)
(61.5084 -8.88135 0 159.088 0 0)
(65.7124 -10.6776 0 155.451 0 0)
(69.097 -12.423 0 151.989 0 0)
(71.655 -14.0417 0 148.723 0 0)
(73.3752 -15.512 0 145.678 0 0)
(74.5706 -16.7483 0 142.786 0 0)
(74.6154 -17.0695 0 139.791 0 0)
(0.259233 -0.143122 0 190.18 0 0)
(2.19705 -0.536302 0 195.811 0 0)
(5.69304 -0.941023 0 189.979 0 0)
(10.5476 -1.49742 0 187.827 0 0)
(16.2909 -2.21897 0 185.123 0 0)
(22.6051 -3.12239 0 181.959 0 0)
(29.1822 -4.19682 0 178.405 0 0)
(35.7492 -5.43652 0 174.655 0 0)
(42.0834 -6.81103 0 170.729 0 0)
(48.0071 -8.29174 0 166.777 0 0)
(53.3842 -9.83185 0 162.802 0 0)
(58.1261 -11.3889 0 158.916 0 0)
(62.1719 -12.9099 0 155.103 0 0)
(65.5154 -14.3516 0 151.439 0 0)
(68.1554 -15.6488 0 147.898 0 0)
(70.0972 -16.8084 0 144.559 0 0)
(71.5745 -17.7552 0 141.31 0 0)
(72.1089 -17.96 0 137.98 0 0)
(0.256059 -0.396926 0 174.363 0 0)
(2.13785 -1.30817 0 179.315 0 0)
(5.50224 -2.13082 0 173.985 0 0)
(10.1668 -3.08038 0 171.992 0 0)
(15.6766 -4.10985 0 169.511 0 0)
(21.7266 -5.23994 0 166.621 0 0)
(28.0196 -6.46358 0 163.369 0 0)
(34.3009 -7.77766 0 159.946 0 0)
(40.3604 -9.15374 0 156.34 0 0)
(46.0413 -10.5719 0 152.711 0 0)
(51.2185 -11.9902 0 149.027 0 0)
(55.8235 -13.3822 0 145.421 0 0)
(59.803 -14.7028 0 141.838 0 0)
(63.1611 -15.929 0 138.385 0 0)
(65.8958 -17.0093 0 135.002 0 0)
(68.0245 -17.9588 0 131.8 0 0)
(69.7164 -18.7163 0 128.645 0 0)
(70.6142 -18.9039 0 125.445 0 0)
(0.257508 -0.545969 0 148.93 0 0)
(2.11005 -1.74904 0 152.887 0 0)
(5.38777 -2.82552 0 148.351 0 0)
(9.92473 -4.00984 0 146.634 0 0)
(15.2778 -5.21437 0 144.513 0 0)
(21.1508 -6.46411 0 142.059 0 0)
(27.256 -7.75105 0 139.295 0 0)
(33.3513 -9.07702 0 136.39 0 0)
(39.2367 -10.4147 0 133.318 0 0)
(44.7685 -11.7541 0 130.226 0 0)
(49.8313 -13.0569 0 127.07 0 0)
(54.3658 -14.3101 0 123.975 0 0)
(58.3259 -15.4742 0 120.881 0 0)
(61.7169 -16.5403 0 117.892 0 0)
(64.5381 -17.4648 0 114.943 0 0)
(66.8116 -18.2668 0 112.146 0 0)
(68.6626 -18.8957 0 109.373 0 0)
(69.8235 -19.105 0 106.582 0 0)
(0.260376 -0.60168 0 120.03 0 0)
(2.10112 -1.89101 0 122.999 0 0)
(5.32172 -3.06977 0 119.351 0 0)
(9.77326 -4.34349 0 117.957 0 0)
(15.0214 -5.60244 0 116.252 0 0)
(20.7768 -6.87272 0 114.287 0 0)
(26.7582 -8.14405 0 112.074 0 0)
(32.7327 -9.42179 0 109.747 0 0)
(38.5077 -10.6806 0 107.284 0 0)
(43.9479 -11.9173 0 104.799 0 0)
(48.9455 -13.0981 0 102.258 0 0)
(53.4461 -14.2186 0 99.7592 0 0)
(57.4083 -15.2442 0 97.2545 0 0)
(60.8369 -16.175 0 94.8291 0 0)
(63.7322 -16.974 0 92.431 0 0)
(66.119 -17.6607 0 90.1475 0 0)
(68.0922 -18.1942 0 87.8827 0 0)
(69.4519 -18.4297 0 85.6076 0 0)
(0.263328 -0.590863 0 91.882 0 0)
(2.10079 -1.83108 0 93.997 0 0)
(5.28396 -2.99841 0 91.2062 0 0)
(9.67862 -4.24939 0 90.1327 0 0)
(14.8562 -5.47019 0 88.8334 0 0)
(20.533 -6.68323 0 87.3386 0 0)
(26.4326 -7.87805 0 85.658 0 0)
(32.3283 -9.05964 0 83.8861 0 0)
(38.0331 -10.2073 0 82.0103 0 0)
(43.417 -11.3197 0 80.1133 0 0)
(48.3781 -12.37 0 78.1725 0 0)
(52.8642 -13.3564 0 76.258 0 0)
(56.8377 -14.2517 0 74.3399 0 0)
(60.3017 -15.0581 0 72.4766 0 0)
(63.2579 -15.7478 0 70.6353 0 0)
(65.7334 -16.3356 0 68.8753 0 0)
(67.801 -16.7923 0 67.1326 0 0)
(69.3136 -17.0416 0 65.3796 0 0)
(0.2664 -0.537006 0 66.9304 0 0)
(2.10463 -1.65173 0 68.3705 0 0)
(5.26263 -2.73207 0 66.3389 0 0)
(9.61954 -3.88539 0 65.556 0 0)
(14.7498 -5.00538 0 64.6178 0 0)
(20.3742 -6.10792 0 63.536 0 0)
(26.2203 -7.18496 0 62.3217 0 0)
(32.0649 -8.23839 0 61.0361 0 0)
(37.7257 -9.25339 0 59.6772 0 0)
(43.076 -10.2275 0 58.2973 0 0)
(48.0182 -11.1415 0 56.8884 0 0)
(52.5012 -11.993 0 55.4938 0 0)
(56.4897 -12.7624 0 54.0998 0 0)
(59.9857 -13.4516 0 52.7411 0 0)
(62.992 -14.041 0 51.401 0 0)
(65.5365 -14.5398 0 50.1152 0 0)
(67.6766 -14.9297 0 48.8455 0 0)
(69.3071 -15.1774 0 47.5644 0 0)
(0.26825 -0.463088 0 46.2874 0 0)
(2.10906 -1.41664 0 47.226 0 0)
(5.2508 -2.36491 0 45.8253 0 0)
(9.58274 -3.37662 0 45.2873 0 0)
(14.6814 -4.35806 0 44.646 0 0)
(20.2712 -5.31862 0 43.9023 0 0)
(26.0826 -6.25329 0 43.0682 0 0)
(31.8948 -7.16037 0 42.1809 0 0)
(37.5289 -8.0309 0 41.2454 0 0)
(42.8599 -8.8602 0 40.2922 0 0)
(47.7929 -9.63602 0 39.3223 0 0)
(52.2779 -10.3544 0 38.3596 0 0)
(56.2809 -11.0029 0 37.4001 0 0)
(59.8029 -11.5811 0 36.4621 0 0)
(62.8472 -12.0766 0 35.5389 0 0)
(65.4426 -12.4933 0 34.6498 0 0)
(67.6347 -12.8212 0 33.7749 0 0)
(69.3511 -13.0515 0 32.8888 0 0)
(0.269422 -0.383254 0 30.1565 0 0)
(2.11261 -1.16526 0 30.7408 0 0)
(5.24407 -1.95926 0 29.8306 0 0)
(9.55928 -2.80857 0 29.4834 0 0)
(14.6366 -3.63252 0 29.0713 0 0)
(20.2031 -4.43732 0 28.5907 0 0)
(25.9916 -5.21919 0 28.0515 0 0)
(31.7816 -5.9751 0 27.4759 0 0)
(37.3969 -6.69855 0 26.8698 0 0)
(42.7133 -7.38478 0 26.2514 0 0)
(47.6379 -8.02526 0 25.6234 0 0)
(52.1203 -8.61583 0 24.999 0 0)
(56.1287 -9.14854 0 24.378 0 0)
(59.6629 -9.62149 0 23.7694 0 0)
(62.7268 -10.0272 0 23.1713 0 0)
(65.3481 -10.3658 0 22.5936 0 0)
(67.5671 -10.633 0 22.0266 0 0)
(69.3365 -10.8305 0 21.451 0 0)
(0.26974 -0.304738 0 18.2107 0 0)
(2.11437 -0.920264 0 18.5549 0 0)
(5.2387 -1.55487 0 18.0042 0 0)
(9.53987 -2.23804 0 17.7982 0 0)
(14.5981 -2.90243 0 17.5551 0 0)
(20.1426 -3.55264 0 17.2706 0 0)
(25.9066 -4.18393 0 16.9504 0 0)
(31.6711 -4.79296 0 16.6074 0 0)
(37.2607 -5.3732 0 16.2457 0 0)
(42.5518 -5.92116 0 15.8757 0 0)
(47.4538 -6.42958 0 15.4991 0 0)
(51.9152 -6.89608 0 15.1239 0 0)
(55.9077 -7.31387 0 14.7504 0 0)
(59.4291 -7.68264 0 14.3837 0 0)
(62.4879 -7.9966 0 14.0232 0 0)
(65.1063 -8.25633 0 13.6742 0 0)
(67.3285 -8.461 0 13.3323 0 0)
(69.1255 -8.61136 0 12.9854 0 0)
(0.269391 -0.228374 0 9.88159 0 0)
(2.11211 -0.691599 0 10.0651 0 0)
(5.22147 -1.1792 0 9.76789 0 0)
(9.49637 -1.70911 0 9.66552 0 0)
(14.5244 -2.22369 0 9.54112 0 0)
(20.0355 -2.72427 0 9.39192 0 0)
(25.7625 -3.2065 0 9.22125 0 0)
(31.489 -3.6679 0 9.03703 0 0)
(37.0394 -4.10273 0 8.84129 0 0)
(42.2934 -4.50942 0 8.6403 0 0)
(47.1594 -4.88239 0 8.43466 0 0)
(51.5906 -5.22178 0 8.22953 0 0)
(55.5579 -5.5218 0 8.02437 0 0)
(59.063 -5.78467 0 7.82313 0 0)
(62.1134 -6.00425 0 7.62486 0 0)
(64.7309 -6.18413 0 7.43356 0 0)
(66.9568 -6.32725 0 7.24679 0 0)
(68.7871 -6.42928 0 7.0586 0 0)
(0.268242 -0.154873 0 4.48575 0 0)
(2.08524 -0.498083 0 4.58135 0 0)
(5.16016 -0.852694 0 4.45616 0 0)
(9.3955 -1.22917 0 4.42052 0 0)
(14.3979 -1.58632 0 4.36945 0 0)
(19.8834 -1.92873 0 4.30502 0 0)
(25.5839 -2.25377 0 4.22771 0 0)
(31.2844 -2.55918 0 4.14122 0 0)
(36.8118 -2.84338 0 4.04819 0 0)
(42.045 -3.10754 0 3.95238 0 0)
(46.8943 -3.34874 0 3.85457 0 0)
(51.3162 -3.56786 0 3.75748 0 0)
(55.2776 -3.76113 0 3.6606 0 0)
(58.7887 -3.93062 0 3.56662 0 0)
(61.8457 -4.07023 0 3.47396 0 0)
(64.482 -4.18527 0 3.3865 0 0)
(66.705 -4.27574 0 3.30126 0 0)
(68.5634 -4.34577 0 3.21706 0 0)
(0.255336 -0.0882245 0 1.4209 0 0)
(2.06926 -0.31355 0 1.48662 0 0)
(5.20863 -0.526144 0 1.44657 0 0)
(9.50247 -0.734565 0 1.43341 0 0)
(14.5584 -0.924702 0 1.4133 0 0)
(20.0952 -1.10736 0 1.39003 0 0)
(25.8519 -1.28404 0 1.3634 0 0)
(31.6116 -1.45219 0 1.33407 0 0)
(37.2006 -1.61015 0 1.30308 0 0)
(42.4929 -1.75775 0 1.27147 0 0)
(47.4018 -1.89349 0 1.23966 0 0)
(51.8761 -2.01738 0 1.20824 0 0)
(55.8874 -2.1274 0 1.1772 0 0)
(59.4382 -2.22422 0 1.14723 0 0)
(62.5287 -2.30373 0 1.11797 0 0)
(65.1965 -2.36993 0 1.09149 0 0)
(67.4193 -2.42253 0 1.06628 0 0)
(69.2698 -2.462 0 1.03932 0 0)
(0.246011 -0.0253381 0 0.141834 0 0)
(2.06708 -0.0978531 0 0.153614 0 0)
(5.18751 -0.165605 0 0.150829 0 0)
(9.45049 -0.230862 0 0.14966 0 0)
(14.4877 -0.293771 0 0.147357 0 0)
(20.0118 -0.354112 0 0.144629 0 0)
(25.7619 -0.412942 0 0.141631 0 0)
(31.5192 -0.469445 0 0.1385 0 0)
(37.1152 -0.522793 0 0.135277 0 0)
(42.4255 -0.572799 0 0.132026 0 0)
(47.3647 -0.61916 0 0.128768 0 0)
(51.8799 -0.661846 0 0.125566 0 0)
(55.9446 -0.700285 0 0.122423 0 0)
(59.5541 -0.734332 0 0.119399 0 0)
(62.7147 -0.763253 0 0.116574 0 0)
(65.4594 -0.788497 0 0.114238 0 0)
(67.7724 -0.806711 0 0.112164 0 0)
(69.7006 -0.815992 0 0.111779 0 0)
(0.0244885 0.0357643 0 0.717419 0 0)
(0.267335 0.0991095 0 0.678474 0 0)
(0.78566 0.180939 0 0.671299 0 0)
(1.53927 0.295007 0 0.66208 0 0)
(2.48644 0.42402 0 0.660483 0 0)
(3.60898 0.568818 0 0.657217 0 0)
(4.88496 0.715856 -2.38408e-19 0.655253 -6.48561e-20 1.47831e-37)
(6.31151 0.866747 2.42394e-19 0.65094 6.91544e-20 1.48281e-37)
(7.88196 1.01369 0 0.644921 0 0)
(9.5943 1.16112 2.44782e-19 0.637338 6.85662e-20 1.46061e-37)
(11.4433 1.30515 0 0.628751 0 0)
(13.423 1.44803 0 0.619656 0 0)
(15.5269 1.58514 0 0.611699 0 0)
(17.7484 1.71683 -2.77294e-19 0.605231 -5.16756e-20 1.34708e-37)
(20.0817 1.83994 0 0.599016 0 0)
(22.5271 1.95354 0 0.593787 0 0)
(25.0847 2.05344 3.40487e-19 0.589492 3.90203e-20 1.2206e-37)
(27.7532 2.14129 0 0.585043 0 0)
(30.5276 2.21976 0 0.580379 0 0)
(33.402 2.29108 0 0.57594 0 0)
(36.3607 2.35426 -4.56432e-19 0.572618 -1.95671e-20 1.01762e-37)
(39.3941 2.41005 0 0.568874 0 0)
(42.4882 2.45653 -5.16205e-19 0.566626 -1.02927e-20 9.25082e-38)
(45.6341 2.49354 0 0.567841 0 0)
(48.8155 2.52726 0 0.568616 0 0)
(52.0185 2.55031 -6.04349e-19 0.570802 1.22928e-21 7.97591e-38)
(55.2359 2.55249 0 0.572641 0 0)
(58.4723 2.53504 6.57964e-19 0.571106 -6.95471e-21 7.2153e-38)
(61.7215 2.504 0 0.563223 0 0)
(64.9892 2.46121 -7.02697e-19 0.552794 1.05074e-20 6.53897e-38)
(68.2741 2.40927 0 0.53919 0 0)
(71.5635 2.35066 0 0.523345 0 0)
(74.8497 2.28528 0 0.509315 0 0)
(78.1344 2.20932 0 0.497945 0 0)
(81.4112 2.12216 0 0.486403 0 0)
(84.6771 2.02672 7.79767e-19 0.47551 -1.4009e-20 4.59918e-38)
(87.9306 1.92285 0 0.463903 0 0)
(91.1728 1.81043 -1.5627e-18 0.447886 2.71634e-20 1.61371e-37)
(94.4023 1.69106 0 0.432316 0 0)
(97.614 1.5636 1.55271e-18 0.417696 -2.61739e-20 1.39961e-37)
(100.801 1.43058 0 0.402553 0 0)
(103.963 1.28835 0 0.39088 0 0)
(107.089 1.13788 -1.51465e-18 0.37831 2.158e-20 1.1125e-37)
(110.164 0.985115 0 0.365488 0 0)
(113.172 0.830356 -1.4761e-18 0.354663 1.82844e-20 9.43131e-38)
(116.097 0.672434 1.45363e-18 0.345783 -1.65503e-20 8.66198e-38)
(118.924 0.508709 0 0.339643 0 0)
(121.646 0.338773 1.40278e-18 0.334857 -1.25208e-20 7.34092e-38)
(124.244 0.163416 1.37457e-18 0.330959 -1.06514e-20 6.79494e-38)
(126.722 -0.0144574 0 0.327707 0 0)
(129.062 -0.193783 0 0.325582 0 0)
(131.248 -0.377364 0 0.322905 0 0)
(133.257 -0.56597 0 0.321699 0 0)
(135.069 -0.756861 0 0.323746 0 0)
(136.658 -0.946717 -1.17429e-18 0.32796 -4.39883e-21 5.01642e-38)
(137.995 -1.138 0 0.332066 0 0)
(139.069 -1.33406 1.07964e-18 0.33575 1.14633e-20 4.75168e-38)
(139.883 -1.53676 0 0.340968 0 0)
(140.432 -1.74563 0 0.347762 0 0)
(140.701 -1.95162 -9.11879e-19 0.357086 -2.24637e-20 4.75208e-38)
(140.683 -2.15582 0 0.369068 0 0)
(140.363 -2.36092 7.80466e-19 0.381076 3.12466e-20 4.96905e-38)
(139.747 -2.56481 0 0.391369 0 0)
(138.831 -2.76864 0 0.404161 0 0)
(137.623 -2.97162 0 0.418329 0 0)
(136.137 -3.16737 -4.8213e-19 0.432735 -4.76092e-20 6.03484e-38)
(134.375 -3.35654 0 0.447459 0 0)
(132.351 -3.53933 0 0.460538 0 0)
(130.078 -3.7148 -2.26389e-19 0.474195 -6.11996e-20 7.30489e-38)
(127.575 -3.88802 0 0.489273 0 0)
(124.88 -4.05395 -5.08218e-20 0.504453 -6.98439e-20 8.30325e-38)
(122.002 -4.20744 0 0.519911 0 0)
(118.961 -4.34874 0 0.535914 0 0)
(115.786 -4.47925 0 0.553057 0 0)
(112.499 -4.60039 -3.04832e-19 0.5712 8.32067e-20 1.04542e-37)
(109.119 -4.70944 0 0.589289 0 0)
(105.665 -4.80321 0 0.607254 0 0)
(102.144 -4.88192 -5.6418e-19 0.625359 9.03378e-20 1.20176e-37)
(98.5735 -4.95 -6.46005e-19 0.644149 9.18809e-20 1.2529e-37)
(94.9788 -5.00706 0 0.662967 0 0)
(91.3913 -5.05225 -7.99119e-19 0.682703 9.46558e-20 1.34712e-37)
(87.8321 -5.08628 0 0.703901 0 0)
(84.3216 -5.10848 -1.87801e-18 0.725476 1.92628e-19 5.74516e-37)
(80.8745 -5.11773 0 0.748137 0 0)
(77.5085 -5.11244 -2.1231e-18 0.770729 1.93758e-19 6.07676e-37)
(74.2418 -5.09076 0 0.793687 0 0)
(71.0887 -5.05603 2.32588e-18 0.819665 -1.939e-19 6.36649e-37)
(68.0665 -5.008 0 0.844691 0 0)
(65.1893 -4.94132 0 0.867003 0 0)
(62.4569 -4.85581 0 0.889706 0 0)
(59.8736 -4.75358 -2.58698e-18 0.914717 1.86294e-19 6.8e-37)
(57.445 -4.63704 0 0.939322 0 0)
(55.1804 -4.50445 2.64788e-18 0.963583 -1.80009e-19 6.94713e-37)
(53.0826 -4.3556 0 0.987334 0 0)
(51.1403 -4.18449 -2.65972e-18 1.01091 1.73655e-19 7.03565e-37)
(49.3484 -3.99677 -2.65046e-18 1.03221 1.70415e-19 7.07088e-37)
(47.6949 -3.79635 -2.63136e-18 1.05346 1.66252e-19 7.09783e-37)
(46.1753 -3.58689 0 1.07586 0 0)
(44.7631 -3.36727 0 1.09897 0 0)
(43.4685 -3.13865 0 1.11853 0 0)
(42.2727 -2.90104 0 1.13833 0 0)
(41.171 -2.66155 0 1.15821 0 0)
(40.1449 -2.42166 0 1.17722 0 0)
(39.1913 -2.17886 0 1.19232 0 0)
(38.2642 -1.93535 0 1.2083 0 0)
(37.3614 -1.69863 2.02559e-18 1.22361 -1.31574e-19 7.0762e-37)
(36.4507 -1.4703 1.91147e-18 1.24079 -1.24244e-19 7.06985e-37)
(35.5561 -1.25116 0 1.25245 0 0)
(34.6433 -1.04096 0 1.26546 0 0)
(33.7224 -0.854237 0 1.27947 0 0)
(32.7408 -0.677807 1.35352e-18 1.29207 -1.04635e-19 6.91213e-37)
(31.7985 -0.527382 0 1.29933 0 0)
(30.7878 -0.385039 0 1.30914 0 0)
(29.8316 -0.282129 0 1.31922 0 0)
(28.9037 -0.198597 0 1.33245 0 0)
(28.0738 -0.148337 -4.38371e-19 1.34089 7.57224e-20 6.66177e-37)
(27.374 -0.122228 0 1.35023 0 0)
(26.8368 -0.1316 0 1.36368 0 0)
(26.5473 -0.174708 -2.23243e-19 1.37157 -6.55358e-20 6.42546e-37)
(26.5048 -0.244041 4.5028e-19 1.38428 6.11165e-20 6.29971e-37)
(26.7596 -0.353646 0 1.40117 0 0)
(27.365 -0.510329 9.13037e-19 1.41858 6.00625e-20 6.05234e-37)
(28.3872 -0.707456 0 1.43761 0 0)
(29.8862 -0.959385 -1.35453e-18 1.4552 -6.45564e-20 5.75507e-37)
(31.882 -1.24566 0 1.47794 0 0)
(34.4497 -1.58146 0 1.50501 0 0)
(37.4863 -1.95947 0 1.53776 0 0)
(41.102 -2.38814 0 1.57204 0 0)
(45.1506 -2.84274 0 1.61016 0 0)
(49.6375 -3.34455 4.89944e-18 1.65237 2.04726e-19 1.97223e-36)
(54.501 -3.89011 5.15464e-18 1.69863 2.30557e-19 1.93757e-36)
(59.7603 -4.47174 0 1.74716 0 0)
(65.2215 -5.07396 0 1.80281 0 0)
(70.8373 -5.70065 0 1.85803 0 0)
(76.459 -6.31413 -5.69471e-18 1.91882 -3.52355e-19 1.91761e-36)
(81.8641 -6.92858 0 1.98987 0 0)
(87.0119 -7.54958 0 2.06211 0 0)
(91.8447 -8.16369 0 2.13863 0 0)
(96.288 -8.75661 -5.33379e-18 2.21701 -5.33651e-19 2.07228e-36)
(100.322 -9.32319 5.10052e-18 2.30044 5.82426e-19 2.13432e-36)
(103.73 -9.84438 0 2.3912 0 0)
(106.637 -10.3538 0 2.48396 0 0)
(109.006 -10.8071 4.08099e-18 2.57848 7.35498e-19 2.36641e-36)
(110.842 -11.2258 3.65173e-18 2.67184 7.84386e-19 2.45169e-36)
(111.992 -11.5693 0 2.77209 0 0)
(112.559 -11.8838 0 2.87205 0 0)
(112.436 -12.1257 -2.05356e-18 2.97596 -9.45834e-19 2.71947e-36)
(111.753 -12.3495 1.42406e-18 3.0709 9.89415e-19 2.79818e-36)
(110.556 -12.5028 0 3.16766 0 0)
(108.642 -12.6021 0 3.26822 0 0)
(106.135 -12.635 -5.203e-19 3.35906 1.11718e-18 3.06894e-36)
(102.996 -12.6141 0 3.44946 0 0)
(99.5109 -12.5553 0 3.53299 0 0)
(95.5201 -12.4058 -2.54618e-18 3.60541 1.20604e-18 3.30162e-36)
(91.2213 -12.1845 0 3.67736 0 0)
(86.6012 -11.8522 -3.82946e-18 3.73877 1.257e-18 3.44446e-36)
(81.7174 -11.4344 0 3.79442 0 0)
(76.612 -10.8988 0 3.83351 0 0)
(71.6717 -10.2651 0 3.85752 0 0)
(66.794 -9.46721 5.86784e-18 3.87624 -1.27762e-18 3.68226e-36)
(62.142 -8.54969 0 3.87967 0 0)
(57.9313 -7.48006 0 3.86761 0 0)
(54.4814 -6.29067 0 3.83968 0 0)
(51.6329 -4.9121 0 3.7976 0 0)
(49.5419 -3.4533 0 3.74708 0 0)
(48.8252 -1.89987 0 3.67493 0 0)
(49.6682 -0.276817 6.0191e-18 3.58514 -1.10402e-18 3.72714e-36)
(51.7368 1.43582 5.60331e-18 3.48688 -1.04963e-18 3.70951e-36)
(55.4475 3.12748 0 3.37537 0 0)
(60.7077 4.75364 0 3.25749 0 0)
(67.5177 6.33281 0 3.12794 0 0)
(75.4584 7.80522 -3.04878e-18 2.99826 7.94751e-19 3.38349e-36)
(84.5854 9.10602 0 2.87012 0 0)
(94.139 10.2936 2.94204e-18 2.73519 -1.3503e-18 1.23616e-35)
(104.016 11.25 -1.30593e-18 2.60461 1.21748e-18 1.16606e-35)
(113.642 12.039 3.21313e-19 2.47326 1.10455e-18 1.10171e-35)
(123.284 12.6884 -2.02553e-18 2.34847 -1.01387e-18 1.0332e-35)
(131.389 13.2283 3.67769e-18 2.22951 9.22518e-19 9.75805e-36)
(139.251 13.7039 -5.2828e-18 2.1222 -9.03076e-19 8.99334e-36)
(142.992 14.3955 0 2.06629 0 0)
(0.0183148 0.174257 0 6.09699 0 0)
(0.202754 0.387951 0 6.03509 0 0)
(0.629617 0.609838 1.31782e-19 5.86236 1.75902e-19 6.76451e-37)
(1.32735 0.854274 0 5.74158 0 0)
(2.26977 1.13346 -1.92413e-19 5.68173 -3.53565e-19 9.19213e-37)
(3.44632 1.43813 -1.84054e-19 5.65451 -4.41368e-19 9.72228e-37)
(4.83592 1.76265 -8.07575e-20 5.63905 -2.51356e-19 2.48881e-37)
(6.42423 2.10308 -6.9054e-20 5.62093 -2.70241e-19 2.61126e-37)
(8.20338 2.45216 0 5.59252 0 0)
(10.1713 2.80539 -4.23136e-20 5.54985 -2.69047e-19 2.59285e-37)
(12.3294 3.15396 0 5.49794 0 0)
(14.6759 3.49546 0 5.4383 0 0)
(17.2024 3.82473 9.51109e-20 5.37004 4.23703e-19 9.50665e-37)
(19.9098 4.14132 6.97263e-20 5.29819 1.86888e-19 2.34023e-37)
(22.7874 4.43552 -1.85903e-19 5.22304 -3.26245e-19 8.93231e-37)
(25.8293 4.70736 -2.5219e-19 5.14486 -2.81223e-19 8.65527e-37)
(29.0241 4.95835 -1.71459e-19 5.06047 -1.18459e-19 2.12654e-37)
(32.3654 5.18997 0 4.96969 0 0)
(35.8415 5.40051 0 4.87397 0 0)
(39.4436 5.59453 0 4.77124 0 0)
(43.1485 5.77125 -3.87013e-19 4.66632 -3.6682e-20 1.80322e-37)
(46.9472 5.92793 0 4.56181 0 0)
(50.8171 6.05624 1.61037e-18 4.45527 -1.64721e-20 1.55125e-36)
(54.7457 6.1598 0 4.35232 0 0)
(58.7158 6.2402 0 4.24715 0 0)
(62.71 6.29771 7.75396e-19 4.1429 -5.77612e-20 1.56447e-37)
(66.7009 6.32895 0 4.03684 0 0)
(70.6696 6.34323 -9.3356e-19 3.93615 8.18315e-20 1.45953e-37)
(74.5825 6.33424 -1.99469e-18 3.83608 1.8159e-19 5.56942e-37)
(78.4296 6.29668 1.07759e-18 3.73322 -9.87525e-20 1.36588e-37)
(82.2071 6.22761 0 3.62532 0 0)
(85.9148 6.13055 0 3.51992 0 0)
(89.5394 6.00796 0 3.41653 0 0)
(93.0847 5.86101 -2.5774e-18 3.30842 2.22796e-19 4.71314e-37)
(96.5425 5.68428 -2.65565e-18 3.20107 2.20342e-19 4.55176e-37)
(99.9265 5.47811 -1.37402e-18 3.10023 1.07612e-19 1.10767e-37)
(103.245 5.24082 0 3.00845 0 0)
(106.49 4.96746 2.83883e-18 2.92042 -2.0309e-19 4.12888e-37)
(109.673 4.65597 0 2.83528 0 0)
(112.784 4.31572 -2.87546e-18 2.75374 1.88475e-19 3.81624e-37)
(115.833 3.9478 0 2.67333 0 0)
(118.816 3.56004 0 2.60105 0 0)
(121.738 3.15639 2.82817e-18 2.53 -1.54004e-19 3.31674e-37)
(124.585 2.7339 0 2.46459 0 0)
(127.338 2.28599 8.16091e-18 2.40654 -3.93163e-19 2.68408e-36)
(129.996 1.80847 -2.68904e-18 2.36114 1.19108e-19 2.83649e-37)
(132.562 1.30567 0 2.33395 0 0)
(135.052 0.777606 -2.54907e-18 2.31812 9.08617e-20 2.51673e-37)
(137.451 0.21674 -2.46829e-18 2.31187 7.66259e-20 2.36094e-37)
(139.756 -0.370443 0 2.31421 0 0)
(141.944 -0.969356 0 2.32766 0 0)
(143.998 -1.56586 0 2.34275 0 0)
(145.902 -2.15054 0 2.35634 0 0)
(147.618 -2.72774 0 2.37995 0 0)
(149.136 -3.30644 1.88336e-18 2.41273 1.45609e-20 1.71988e-37)
(150.432 -3.89414 3.45117e-18 2.45604 7.12234e-20 6.55494e-37)
(151.488 -4.48556 -1.64442e-18 2.50719 -5.5945e-20 1.60013e-37)
(152.314 -5.09533 0 2.56338 0 0)
(152.884 -5.70658 2.68706e-18 2.62654 1.90276e-19 6.01136e-37)
(153.169 -6.29729 -1.17002e-18 2.69467 -1.13269e-19 1.4679e-37)
(153.197 -6.88289 0 2.77142 0 0)
(152.917 -7.4625 -9.78186e-19 2.86132 -1.48638e-19 1.4944e-37)
(152.342 -8.02037 0 2.95458 0 0)
(151.465 -8.56892 0 3.05582 0 0)
(150.283 -9.0991 -1.04753e-18 3.16193 -3.96952e-19 6.25327e-37)
(148.783 -9.60044 4.22634e-19 3.27275 2.15251e-19 1.63696e-37)
(147.003 -10.094 -4.89185e-19 3.39305 -4.62223e-19 6.68204e-37)
(144.938 -10.5662 2.12159e-19 3.51758 4.89114e-19 6.91995e-37)
(142.613 -11.0138 1.02258e-20 3.64325 2.54463e-19 1.82644e-37)