/*--------------------------------*- C++ -*----------------------------------*\
| =========                 |                                                 |
| \\      /  F ield         | OpenFOAM: The Open Source CFD Toolbox           |
|  \\    /   O peration     | Version:  dev                                   |
|   \\  /    A nd           | Web:      http://www.openfoam.org               |
|    \\/     M anipulation  |                                                 |
\*---------------------------------------------------------------------------*/
FoamFile
{
    version     2.0;
    format      ascii;
    class       volScalarField;
    object      k_0;
    location    "9.131";
}
// * * * * * * * * * * * * * * * * * * * * * * * * * * * * * * * * * * * * * //

dimensions      [0 2 -2 0 0 0 0];

internalField   nonuniform List<scalar> 
12225
(
7.5433
8.61614
5.95163
6.37249
6.84568
8.21164
11.4027
11.6414
17.3522
15.6906
23.0637
20.3823
28.769
28.4679
34.7077
34.1651
21.9182
45.315
1.93084
6.38409
5.64948
7.10841
5.48139
7.88401
6.38274
9.22993
8.28442
10.202
10.2644
11.1867
13.2787
12.3045
15.3769
17.7387
35.7227
37.0488
0.223668
2.00733
2.23343
3.88657
3.05211
4.5671
3.51785
4.49471
4.11552
4.1415
4.76037
4.02984
6.05474
4.80009
8.56081
12.1335
36.1282
43.9576
0.0285525
0.502519
0.659516
1.27305
1.39821
1.67749
2.16323
1.88699
2.66562
1.72148
2.58278
1.57539
2.71323
1.87704
3.98166
6.89444
30.0916
57.8211
0.00552478
0.104348
0.179564
0.352842
0.66303
0.711321
1.09329
0.900855
1.37475
0.863297
1.37414
0.838753
1.31686
0.924331
1.78596
2.52928
15.6457
47.8943
0.00726363
0.0601811
0.0986522
0.156493
0.281128
0.338092
0.496755
0.450528
0.667765
0.469893
0.717568
0.507498
0.690393
0.547974
0.864978
1.20801
7.12796
21.285
0.0144309
0.0527453
0.0832559
0.0983622
0.170987
0.182696
0.258349
0.250782
0.347662
0.265069
0.388656
0.298332
0.424266
0.366257
0.600783
0.553773
2.5895
5.63168
0.0169062
0.0491694
0.0764394
0.0910013
0.138365
0.140549
0.180316
0.168084
0.208869
0.170878
0.225602
0.178732
0.24144
0.202692
0.374676
0.506247
1.18133
1.60331
0.03331
0.0640448
0.0808737
0.098916
0.125769
0.134662
0.155412
0.149763
0.15912
0.147526
0.158135
0.139072
0.161209
0.161249
0.227011
0.318085
0.631986
0.820424
0.0802202
0.122985
0.113685
0.132046
0.129235
0.142942
0.148124
0.148962
0.145171
0.139451
0.134261
0.125878
0.125588
0.135978
0.146021
0.162232
0.292743
0.38723
0.126255
0.185118
0.169237
0.192804
0.161259
0.173733
0.159618
0.159891
0.148653
0.142379
0.132239
0.124085
0.117275
0.116502
0.121238
0.11416
0.161137
0.189673
0.241202
0.314396
0.290547
0.311513
0.261869
0.265629
0.213886
0.209845
0.173416
0.164296
0.141057
0.130653
0.118935
0.113002
0.109681
0.100641
0.11228
0.118784
0.457992
0.50837
0.479174
0.488473
0.419093
0.408212
0.332914
0.313237
0.25017
0.227356
0.183093
0.157366
0.133462
0.119584
0.110539
0.100276
0.0982367
0.0968076
0.801815
0.82002
0.769833
0.753926
0.63714
0.596547
0.485075
0.442841
0.364239
0.318657
0.263728
0.224258
0.186145
0.155896
0.130653
0.114797
0.101075
0.0952034
1.34901
1.33435
1.29407
1.23459
1.06938
0.959525
0.802035
0.68304
0.558752
0.460806
0.374484
0.30649
0.249677
0.20595
0.170282
0.14431
0.122398
0.106639
2.12376
1.95775
1.85341
1.64496
1.40324
1.19433
0.99078
0.817305
0.664079
0.537655
0.432966
0.349816
0.282746
0.231082
0.189567
0.158367
0.132826
0.113896
2.61031
2.273
2.096
1.81602
1.54038
1.28993
1.06369
0.868858
0.703965
0.568061
0.456794
0.367798
0.296215
0.24062
0.196017
0.162121
0.134758
0.114623
2.66611
2.3094
2.11341
1.82448
1.54683
1.29314
1.0665
0.871202
0.706678
0.571029
0.459958
0.370506
0.298271
0.241632
0.196364
0.161766
0.133768
0.112867
2.3836
2.10363
1.95577
1.70717
1.45993
1.22729
1.01687
0.833472
0.678187
0.549597
0.443906
0.358636
0.289559
0.23482
0.190906
0.157017
0.129299
0.108561
1.64395
1.46921
1.42062
1.32218
1.17612
1.01557
0.856381
0.71012
0.582692
0.475927
0.387072
0.314836
0.255771
0.208536
0.170164
0.14069
0.116038
0.0973798
0.980004
0.881718
0.85592
0.798518
0.716447
0.630216
0.538029
0.453712
0.376927
0.306387
0.248711
0.205183
0.171142
0.145228
0.123917
0.107817
0.0937763
0.0833612
0.548398
0.518821
0.513756
0.494824
0.454344
0.407665
0.352145
0.29288
0.238344
0.199892
0.172751
0.152455
0.135616
0.122052
0.109215
0.0986651
0.0885518
0.0809147
0.299775
0.294228
0.293248
0.285926
0.265771
0.234051
0.209013
0.187134
0.16987
0.158889
0.149351
0.139619
0.12967
0.120349
0.110229
0.101745
0.0934921
0.0872585
0.146811
0.150311
0.148091
0.145245
0.147813
0.154088
0.157756
0.156008
0.154533
0.154597
0.153317
0.150002
0.144781
0.138113
0.13129
0.125785
0.121013
0.117987
0.0567664
0.0616345
0.0725454
0.0926791
0.120734
0.144117
0.159601
0.16977
0.180152
0.192598
0.205714
0.214228
0.216798
0.215506
0.213024
0.211072
0.210277
0.21074
0.0160212
0.0323975
0.0595572
0.107155
0.173671
0.221996
0.262255
0.297539
0.334932
0.376147
0.410124
0.430887
0.440043
0.44218
0.442463
0.442872
0.445393
0.452818
0.00647713
0.054276
0.168387
0.344187
0.528143
0.646108
0.739213
0.809321
0.87965
0.949818
0.99315
1.01371
1.01908
1.01596
1.01231
1.01145
1.01606
1.02724
0.0367353
0.445539
1.06352
1.52708
1.85903
2.05328
2.18375
2.26577
2.34243
2.38898
2.38882
2.3704
2.33502
2.28451
2.24391
2.19839
2.15968
2.09898
0.576326
3.53231
4.9854
5.38949
5.3781
5.30333
5.23491
5.19667
5.13743
5.06735
5.00795
4.92806
4.83958
4.7253
4.60605
4.45478
4.30644
4.00828
6.60546
10.052
8.97159
7.73374
7.33379
7.60079
8.24738
9.11779
9.99834
10.8507
11.6165
12.267
12.7996
13.1938
13.4302
13.5371
13.4505
12.7259
0.101844
0.0795365
0.0795382
0.0879413
0.101529
0.118442
0.14075
0.168439
0.20402
0.24816
0.299298
0.355816
0.419154
0.488484
0.570367
0.674877
0.808122
0.962751
1.14802
1.41632
1.76002
2.09047
2.41606
2.80252
3.22628
3.6604
4.10294
4.52981
4.92801
5.28883
5.60453
5.87613
6.1112
6.31296
6.48454
6.63427
6.76181
6.8733
6.97707
7.06619
7.14723
7.2194
7.2897
7.36187
7.43657
7.51871
7.63128
7.76059
7.90847
8.07747
8.26686
8.44699
8.61462
8.79058
8.9902
9.2008
9.41302
9.65864
9.89029
10.084
10.2593
10.4476
10.6614
10.8482
10.9791
11.0468
11.1293
11.2436
11.3644
11.4423
11.448
11.3552
11.1429
10.8916
10.6352
10.295
9.81204
9.21599
8.62285
8.15031
7.78139
7.45157
7.20356
7.00839
6.5249
5.82403
5.35272
4.98077
4.66891
4.39455
4.20079
3.99282
3.87184
4.02235
4.75625
5.91913
7.23245
8.00761
8.28024
8.11278
8.17165
8.43694
8.51145
8.00669
6.70565
5.13869
3.83938
2.80039
2.14495
1.94961
1.96447
1.93477
1.43449
1.24126
1.24952
1.34782
1.5407
1.8882
2.3456
2.90751
3.497
4.24934
5.12368
5.91069
6.4883
6.90804
7.21844
7.48516
7.6369
7.76334
7.84586
7.8241
7.8132
7.87926
7.99381
8.20745
8.67268
9.29167
9.9163
10.5047
10.9035
11.2111
11.4584
11.5396
11.4296
10.9576
10.2468
9.76779
9.48314
9.17657
8.66443
8.12842
8.38441
9.81044
10.7354
10.3836
8.43993
6.65384
5.9836
5.52661
5.13023
5.34568
4.9536
5.27377
5.00496
5.20796
6.14831
7.45228
8.77452
9.91685
10.8128
11.251
11.4867
11.7035
11.8408
11.9259
11.8583
11.6675
11.3458
11.2653
0.470763
0.16435
0.0964151
0.0918216
0.097336
0.111597
0.128308
0.148152
0.174819
0.209351
0.2534
0.31083
0.387215
0.474179
0.580729
0.710872
0.86515
0.998507
1.14827
1.36325
1.59185
1.77905
1.94926
2.08018
2.17464
2.2509
2.28067
2.25696
2.18794
2.07826
1.94733
1.83257
1.72218
1.61269
1.51148
1.42547
1.32898
1.23729
1.15388
1.06072
0.986433
0.918079
0.857226
0.80838
0.773208
0.732955
0.708507
0.705063
0.714776
0.749716
0.786355
0.817972
0.833616
0.862978
0.950573
1.0391
1.09591
1.22338
1.38728
1.47315
1.50123
1.53424
1.66671
1.86592
1.92758
1.91895
1.90108
1.91465
2.01235
2.26703
2.52445
2.66044
2.75301
2.98862
3.30976
3.43559
3.41448
3.12309
2.58705
2.27182
2.07357
1.92826
1.92172
2.09158
2.15278
1.95445
1.70012
1.71274
1.82937
2.15955
3.03648
3.70783
3.9299
4.10829
4.44089
4.52562
4.25447
3.38896
2.87312
2.70258
2.63194
2.52648
2.16846
1.55242
1.17763
1.10124
1.127
1.22073
1.2463
1.17019
1.07214
1.08635
1.22049
1.15239
1.11339
1.12172
1.13999
1.21106
1.29961
1.39724
1.49853
1.64236
1.86494
2.14916
2.4201
2.69859
2.91045
3.06013
3.2768
3.46403
3.70748
3.90135
4.04146
4.24525
4.45033
4.56173
4.64651
4.81493
5.04839
5.33805
5.43338
5.39787
5.19497
5.03513
4.93159
4.73756
4.3726
4.13272
4.2536
4.89833
6.21119
7.23408
8.02758
7.87716
6.63566
4.89674
3.65649
3.21182
3.0459
2.98061
2.86089
2.84799
2.84699
2.93065
3.19774
3.19586
3.39322
3.85713
4.42525
5.15263
5.89193
6.39704
6.44213
6.35774
6.18701
6.08293
6.05739
6.03166
5.90521
5.79138
1.22402
0.280748
0.106121
0.0929183
0.0995561
0.114802
0.135683
0.165124
0.210154
0.269852
0.338547
0.390278
0.462673
0.53553
0.608237
0.705498
0.819136
0.912326
0.9607
1.00092
1.03849
1.03097
0.986424
0.939044
0.883616
0.81292
0.737973
0.646286
0.549719
0.466725
0.400902
0.350894
0.313072
0.282087
0.2561
0.23873
0.219612
0.204316
0.194482
0.183379
0.175486
0.170169
0.166645
0.16343
0.161227
0.160723
0.161336
0.165427
0.171937
0.175158
0.175152
0.173322
0.171213
0.171175
0.175509
0.184837
0.19189
0.20677
0.240766
0.261525
0.269849
0.279558
0.316732
0.372122
0.389903
0.386982
0.379979
0.383198
0.409363
0.506049
0.627332
0.703432
0.77653
0.913713
1.26633
1.57581
1.68924
1.6812
1.52698
1.15049
0.872736
0.726471
0.711265
0.781958
0.923673
0.992702
1.11072
1.43067
2.17928
2.90883
3.2929
3.33812
3.07643
2.83259
2.63557
2.35073
1.74288
1.26548
1.10171
1.04428
1.01806
0.969198
0.814711
0.661788
0.629984
0.641727
0.751506
0.945867
1.01335
1.00676
0.855947
0.82861
0.889623
0.904273
0.880607
0.896155
0.909209
0.917501
0.969214
1.02766
1.04332
1.05641
1.09403
1.15833
1.22344
1.33776
1.46409
1.53277
1.64927
1.77246
1.93277
2.06423
2.1678
2.33319
2.58255
2.70623
2.79691
2.88628
2.96817
3.14153
3.37144
3.39832
3.29666
3.07733
2.91119
2.76789
2.67779
2.80677
3.57911
5.26834
6.37731
6.30384
5.19638
4.30339
3.3793
2.79478
2.63546
2.69218
2.85637
2.95151
2.56014
2.31349
2.26103
2.34615
2.36887
2.42611
2.32596
2.30397
2.39504
2.6561
3.11944
3.76408
4.01746
3.98972
3.71137
3.51265
3.52119
3.78908
4.02692
3.98347
2.47394
0.524585
0.131417
0.0925232
0.0955247
0.109638
0.140615
0.212798
0.291105
0.351985
0.38807
0.403772
0.449319
0.491481
0.542712
0.592214
0.632787
0.646428
0.632426
0.602755
0.563594
0.510375
0.443007
0.393897
0.355232
0.312977
0.273418
0.237929
0.205511
0.184673
0.171514
0.162172
0.157031
0.153348
0.150277
0.14844
0.146952
0.146046
0.145627
0.144786
0.143976
0.143584
0.143503
0.144261
0.145307
0.145713
0.14668
0.149326
0.157037
0.163768
0.166858
0.166466
0.1613
0.152912
0.149074
0.147947
0.147954
0.150045
0.15329
0.153577
0.153437
0.15423
0.161812
0.173593
0.176299
0.173612
0.170607
0.171847
0.182597
0.219753
0.252206
0.27219
0.30067
0.360021
0.489065
0.693566
0.890023
0.968031
0.96972
0.902941
0.67688
0.557399
0.561104
0.613219
0.688322
0.863513
1.36239
1.99459
2.60442
2.78963
2.62174
2.063
1.82232
1.68639
1.51696
1.23553
0.858188
0.686317
0.632624
0.618861
0.616181
0.607077
0.569779
0.522612
0.502174
0.495695
0.507331
0.550357
0.641218
0.743347
0.78794
0.766065
0.660576
0.669575
0.669713
0.655504
0.710611
0.757604
0.824045
0.909718
0.932328
0.931082
0.941369
0.941743
0.940335
0.967404
1.0177
1.05761
1.11515
1.1929
1.28587
1.3726
1.4598
1.54766
1.68092
1.78651
1.90602
2.03927
2.09882
2.1833
2.33489
2.43736
2.43519
2.33317
2.14781
2.06258
2.10312
2.5064
3.90384
5.34091
5.63211
4.45058
3.28858
2.75563
2.29745
2.11346
2.09963
2.44838
2.96768
3.13247
2.56943
2.09953
1.78053
1.80007
1.71757
1.8978
1.88693
1.73033
1.6616
1.74927
2.01212
2.52682
2.87605
2.92734
2.68215
2.37342
2.36815
2.60465
3.19506
3.33982
4.0791
1.00247
0.210282
0.10054
0.0980583
0.112759
0.153196
0.2248
0.30265
0.363219
0.394157
0.39305
0.394732
0.423362
0.44272
0.436894
0.414792
0.401756
0.384322
0.345505
0.303129
0.267071
0.227771
0.206132
0.192235
0.179871
0.169858
0.163216
0.158853
0.157632
0.157611
0.15854
0.160458
0.163992
0.16807
0.171644
0.173998
0.17639
0.177789
0.17731
0.174104
0.16951
0.162892
0.158581
0.156552
0.155673
0.155615
0.156887
0.158288
0.162672
0.170702
0.175277
0.175546
0.172228
0.165213
0.162015
0.161211
0.161043
0.158655
0.150425
0.146399
0.146165
0.147592
0.148001
0.147275
0.143813
0.142938
0.14454
0.152721
0.172373
0.183504
0.188852
0.196802
0.214414
0.253778
0.347491
0.482093
0.571201
0.593475
0.591381
0.534094
0.501045
0.539742
0.593429
0.684289
1.01338
1.79091
2.19899
2.4028
2.20775
1.56341
1.20678
1.07742
0.996913
0.879846
0.709138
0.553701
0.501998
0.487546
0.484701
0.496336
0.504916
0.509982
0.494448
0.467433
0.451682
0.444681
0.439405
0.472896
0.564688
0.708425
0.768341
0.583184
0.610118
0.616068
0.592949
0.590703
0.634741
0.696361
0.805003
0.87498
0.873389
0.883377
0.890543
0.87559
0.877614
0.896219
0.901929
0.915122
0.979931
1.04239
1.08846
1.15845
1.23458
1.30523
1.39789
1.46442
1.55682
1.66566
1.76624
1.85195
1.97412
2.01121
1.98595
1.84442
1.81316
1.92738
2.69621
4.16437
4.86529
4.35289
3.15227
2.51465
2.2149
1.85631
1.7125
1.70386
1.96076
2.57832
3.07392
2.70078
2.08051
1.64287
1.6029
1.3623
1.35774
1.42776
1.40565
1.32549
1.35708
1.5329
1.92466
2.27291
2.34431
2.18358
1.82261
1.77877
1.96596
2.47758
2.81505
5.87511
1.37478
0.246968
0.113515
0.115413
0.144039
0.194996
0.248309
0.303241
0.355629
0.37291
0.345661
0.335959
0.348935
0.352899
0.323056
0.278295
0.2589
0.243833
0.216471
0.190922
0.175133
0.163431
0.158577
0.15701
0.156986
0.15815
0.159318
0.160853
0.163865
0.168745
0.174575
0.180249
0.186302
0.193056
0.199284
0.204911
0.209498
0.214521
0.218006
0.219177
0.21902
0.215713
0.208602
0.196207
0.182232
0.174661
0.170506
0.168515
0.168259
0.168958
0.172014
0.174197
0.17449
0.172867
0.171169
0.169771
0.170003
0.170716
0.166759
0.158442
0.15474
0.149695
0.143986
0.140044
0.138793
0.139483
0.143212
0.15251
0.160574
0.165245
0.171553
0.17633
0.185255
0.203943
0.248227
0.302863
0.337002
0.391383
0.428849
0.433908
0.441511
0.508229
0.586584
0.73685
1.32638
1.92536
2.08916
1.98459
1.54578
0.979275
0.77351
0.691336
0.640794
0.580532
0.510324
0.453856
0.435028
0.426235
0.418971
0.416114
0.428252
0.451647
0.460713
0.462751
0.452503
0.439972
0.407261
0.392947
0.420769
0.59564
0.667567
0.472734
0.572154
0.612228
0.587195
0.552835
0.552357
0.58285
0.626692
0.741328
0.779401
0.814544
0.860602
0.86345
0.848019
0.859233
0.868944
0.860156
0.879257
0.946312
0.996732
1.02393
1.0624
1.1029
1.21211
1.28539
1.32762
1.41877
1.54419
1.62267
1.71388
1.7869
1.78531
1.70754
1.70537
1.88444
2.88994
4.14561
4.20152
3.22437
2.40724
2.11288
1.97206
1.71702
1.57194
1.55354
1.60294
1.52691
1.66714
2.78533
2.1387
1.63714
1.55829
1.18868
1.1156
1.16725
1.18421
1.15913
1.16623
1.28782
1.54579
1.92296
2.0292
1.92318
1.62133
1.55914
1.6542
1.97407
2.32502
7.80291
1.63819
0.252966
0.118579
0.137075
0.187241
0.250994
0.280246
0.296825
0.2986
0.281436
0.267421
0.272176
0.273364
0.256798
0.224077
0.195832
0.181226
0.172377
0.162128
0.154078
0.151883
0.151328
0.150976
0.151726
0.153813
0.156014
0.157677
0.159889
0.163509
0.168604
0.173662
0.178069
0.18323
0.187574
0.191737
0.196542
0.199136
0.203131
0.208866
0.215383
0.220434
0.2236
0.224637
0.221796
0.208083
0.186063
0.173946
0.169601
0.169509
0.172551
0.175385
0.174727
0.171018
0.167245
0.165645
0.165688
0.16847
0.174283
0.17636
0.175751
0.17321
0.162414
0.149384
0.143871
0.141845
0.141951
0.145725
0.149023
0.150898
0.156743
0.170535
0.180863
0.18967
0.197954
0.209816
0.22322
0.249528
0.315222
0.365404
0.385804
0.415646
0.498341
0.606973
0.856487
1.5563
1.8832
1.87747
1.59804
1.14253
0.688891
0.554039
0.504156
0.478663
0.452725
0.414408
0.390884
0.380356
0.372316
0.36237
0.359097
0.35861
0.363452
0.383456
0.424282
0.445613
0.442152
0.402127
0.369949
0.372532
0.438196
0.460547
0.411767
0.46576
0.578399
0.578591
0.542076
0.512166
0.516713
0.534479
0.577805
0.626917
0.702646
0.777467
0.839356
0.835491
0.831387
0.845332
0.843015
0.844784
0.893454
0.962033
0.989033
1.01826
1.03427
1.0766
1.16218
1.21111
1.2616
1.38197
1.49136
1.55624
1.63968
1.65167
1.62542
1.64654
1.90384
3.00372
3.84077
3.62372
2.58224
2.09185
1.93456
1.78326
1.68767
1.54041
1.48588
1.45077
1.22924
1.13899
1.89148
2.17111
1.62141
1.42008
0.96143
0.948657
1.01917
1.11703
1.11868
1.09195
1.12416
1.25222
1.58152
1.74653
1.713
1.569
1.50616
1.52904
1.67075
1.95483
9.88779
2.13059
0.290383
0.122627
0.145381
0.20415
0.269603
0.290325
0.282355
0.230624
0.209542
0.209305
0.215376
0.21261
0.188089
0.162479
0.15016
0.144371
0.141176
0.139518
0.139867
0.142755
0.144298
0.14528
0.147011
0.14894
0.150641
0.151785
0.153609
0.15571
0.156684
0.157334
0.157437
0.157258
0.155939
0.154873
0.154629
0.154868
0.155959
0.157692
0.160899
0.166886
0.18193
0.199725
0.210062
0.21163
0.20463
0.184302
0.172067
0.168436
0.169268
0.175746
0.182042
0.181239
0.172823
0.164444
0.161512
0.162048
0.165621
0.174162
0.176862
0.177331
0.174483
0.160909
0.149267
0.144323
0.141206
0.140723
0.14133
0.144364
0.157413
0.181948
0.193434
0.195509
0.196705
0.201924
0.215652
0.245156
0.303018
0.337095
0.364274
0.429032
0.511769
0.669591
1.15493
1.62484
1.73055
1.55572
1.22607
0.854687
0.523658
0.444515
0.420318
0.407068
0.379567
0.352305
0.346357
0.344304
0.340228
0.338192
0.337519
0.335766
0.325692
0.315197
0.32246
0.358275
0.39263
0.403969
0.366289
0.358192
0.388581
0.387935
0.393282
0.41596
0.431025
0.480234
0.498173
0.47824
0.469516
0.496526
0.520287
0.546992
0.573144
0.636007
0.730631
0.767935
0.768806
0.782509
0.79361
0.7909
0.826686
0.922557
0.970036
1.00022
1.02597
1.03951
1.08778
1.13041
1.17017
1.26184
1.39745
1.47569
1.54663
1.56333
1.5634
1.60658
1.95335
3.00717
3.45651
3.07977
2.27302
1.99229
1.84656
1.63983
1.56187
1.48134
1.35735
1.30338
1.10826
0.9642
1.20391
1.85466
1.45524
1.08347
0.844532
0.83573
0.936325
1.10993
1.12656
1.06755
1.04448
1.12025
1.33093
1.46617
1.48425
1.5171
1.49026
1.46956
1.51388
1.70376
11.9573
2.69324
0.375682
0.128845
0.145545
0.204641
0.268021
0.286077
0.272463
0.218577
0.186263
0.182611
0.185919
0.176759
0.151986
0.136258
0.130311
0.128381
0.128315
0.129884
0.132535
0.135343
0.135974
0.135411
0.135903
0.136024
0.134879
0.134514
0.134808
0.135462
0.136248
0.137742
0.138451
0.138388
0.137789
0.137478
0.13697
0.136772
0.137109
0.138119
0.139833
0.143489
0.149868
0.158223
0.180987
0.200694
0.20528
0.199674
0.182016
0.173135
0.171841
0.173715
0.183929
0.188267
0.188782
0.179804
0.168293
0.164066
0.163781
0.16732
0.170654
0.172435
0.172664
0.165105
0.148989
0.139894
0.136762
0.137772
0.140512
0.14561
0.157368
0.183471
0.200497
0.207971
0.210082
0.21308
0.221874
0.250315
0.295358
0.327037
0.376577
0.504922
0.618303
0.842184
1.30803
1.53702
1.4977
1.21053
0.979645
0.6925
0.450185
0.397188
0.382174
0.365679
0.334526
0.330647
0.335675
0.333282
0.322318
0.321113
0.327624
0.328547
0.314019
0.295364
0.286983
0.294467
0.317844
0.351359
0.35318
0.346209
0.378528
0.364422
0.379551
0.39661
0.363506
0.408493
0.443399
0.450055
0.445558
0.472887
0.49631
0.50044
0.510275
0.513501
0.566146
0.650589
0.656341
0.668885
0.708914
0.709362
0.759263
0.862603
0.917223
0.976123
1.02044
1.03147
1.0613
1.09488
1.11098
1.1531
1.29235
1.41082
1.47012
1.48817
1.50611
1.57801
2.00713
2.96251
3.14182
2.64311
2.02893
1.8796
1.67168
1.51153
1.46648
1.34517
1.18375
1.09411
1.05031
0.92005
0.927363
1.24118
1.12699
0.876718
0.76008
0.774706
0.895972
1.09844
1.13044
1.05185
0.991474
1.07355
1.23201
1.30547
1.4098
1.51682
1.50247
1.4542
1.42744
1.51125
13.9333
3.29787
0.486674
0.136403
0.138379
0.19434
0.257547
0.27742
0.267956
0.225116
0.183961
0.170895
0.165506
0.157448
0.137813
0.124894
0.121273
0.121052
0.122709
0.125694
0.128119
0.130568
0.131103
0.130622
0.129587
0.128289
0.126568
0.124458
0.123204
0.122801
0.122761
0.123256
0.125515
0.129151
0.131089
0.131847
0.131693
0.130557
0.130399
0.131022
0.132945
0.136568
0.14372
0.150048
0.160838
0.181325
0.196298
0.199555
0.192515
0.181096
0.178831
0.18099
0.194962
0.203907
0.20465
0.20106
0.185663
0.174442
0.17082
0.170891
0.174009
0.174011
0.172894
0.164212
0.147415
0.13636
0.130874
0.12982
0.131431
0.137429
0.151048
0.19002
0.224689
0.231856
0.228824
0.227538
0.230432
0.249257
0.290391
0.346135
0.474135
0.650416
0.779907
1.05054
1.32868
1.3746
1.2156
0.936039
0.791679
0.588039
0.400283
0.358394
0.345875
0.329735
0.316052
0.324334
0.3371
0.33056
0.309012
0.303738
0.311231
0.315492
0.309197
0.294894
0.278032
0.276238
0.276956
0.274333
0.273914
0.284661
0.332958
0.342778
0.33418
0.336182
0.34739
0.399131
0.426982
0.436013
0.435009
0.43765
0.466538
0.473614
0.465304
0.455875
0.469559
0.576996
0.61862
0.619112
0.665642
0.675587
0.688778
0.803968
0.861996
0.921202
0.979532
1.00791
1.03629
1.07216
1.08241
1.10315
1.19568
1.35686
1.41792
1.42902
1.45191
1.54801
2.07036
2.86805
2.90189
2.32335
1.83862
1.68314
1.47086
1.37246
1.40067
1.24329
1.12454
1.00939
0.985613
0.90525
0.814166
0.919739
0.878887
0.719966
0.671858
0.723853
0.865691
1.0181
1.05883
0.991365
0.92924
1.06391
1.19848
1.26402
1.42052
1.56366
1.55915
1.46722
1.3618
1.39734
15.6817
3.84956
0.640109
0.151045
0.119725
0.159027
0.219585
0.254658
0.257472
0.233304
0.192559
0.171745
0.163115
0.155386
0.13762
0.12383
0.119653
0.119255
0.120591
0.123876
0.126207
0.128821
0.130287
0.130342
0.129561
0.128026
0.12647
0.124099
0.121582
0.11942
0.118386
0.118207
0.119078
0.124097
0.129187
0.130961
0.131076
0.129643
0.129014
0.129434
0.13123
0.134747
0.142021
0.153003
0.160498
0.176682
0.192404
0.19863
0.197046
0.190616
0.189761
0.191878
0.200871
0.215427
0.217951
0.215722
0.202632
0.186954
0.179111
0.176443
0.178388
0.179023
0.177876
0.171063
0.150108
0.13443
0.126814
0.125091
0.126316
0.133148
0.151164
0.196565
0.233146
0.240352
0.235239
0.231967
0.235324
0.256257
0.317374
0.452136
0.608041
0.756107
0.891674
1.09401
1.22015
1.1881
0.953594
0.746672
0.651247
0.504587
0.363467
0.330064
0.31887
0.305281
0.301704
0.32393
0.332989
0.317911
0.290165
0.287348
0.288421
0.28448
0.28801
0.292392
0.277039
0.27294
0.267292
0.249505
0.231124
0.249018
0.296313
0.307321
0.298093
0.305545
0.34377
0.396262
0.417552
0.418436
0.426158
0.416376
0.420792
0.43307
0.435224
0.431453
0.441699
0.542987
0.621873
0.614837
0.647373
0.665995
0.662479
0.724386
0.809893
0.845517
0.909672
0.949448
0.98754
1.038
1.05662
1.07286
1.12066
1.28658
1.35964
1.37174
1.39732
1.50793
2.09566
2.71064
2.66697
2.06973
1.70183
1.52387
1.33208
1.25093
1.28636
1.13585
1.02991
0.928523
0.92546
0.884416
0.761666
0.787643
0.765364
0.651741
0.636935
0.703704
0.829793
0.882262
0.899339
0.904853
0.905925
1.07787
1.20255
1.28125
1.48054
1.64179
1.63245
1.51341
1.32804
1.34077
17.1609
4.40455
0.7956
0.176675
0.11083
0.1242
0.165304
0.199801
0.228548
0.228132
0.208866
0.18732
0.17213
0.161016
0.14549
0.128848
0.122308
0.120984
0.121804
0.124494
0.126903
0.129343
0.131844
0.134698
0.135733
0.135657
0.134383
0.131717
0.12647
0.1215
0.11816
0.117228
0.117619
0.121726
0.130501
0.135136
0.135706
0.133141
0.131219
0.131647
0.134915
0.141374
0.146673
0.160808
0.174653
0.181405
0.193752
0.205196
0.208324
0.205983
0.203291
0.202764
0.207237
0.220924
0.223357
0.221562
0.209444
0.198721
0.190415
0.184744
0.181587
0.180671
0.178256
0.171146
0.151331
0.133958
0.12573
0.123715
0.124901
0.132634
0.151458
0.195809
0.233403
0.243857
0.239901
0.238715
0.248132
0.291641
0.428448
0.557691
0.686086
0.807978
0.927999
1.0525
1.0793
1.00592
0.762548
0.609249
0.540478
0.437087
0.336041
0.310509
0.299863
0.288392
0.292078
0.317682
0.320025
0.282934
0.269844
0.270915
0.26194
0.248837
0.250302
0.263875
0.274118
0.273415
0.262849
0.239997
0.219222
0.240658
0.283808
0.281477
0.285069
0.304703
0.358033
0.398365
0.409861
0.40249
0.396877
0.391638
0.391522
0.409561
0.427913
0.430028
0.442001
0.532198
0.639516
0.623268
0.641114
0.663154
0.646847
0.666189
0.737236
0.785566
0.852281
0.881634
0.905869
0.974251
1.01271
1.02932
1.07071
1.2352
1.31884
1.33353
1.35942
1.47814
2.09543
2.54145
2.4372
1.88561
1.62767
1.44958
1.25208
1.18306
1.17652
1.03979
0.96607
0.904541
0.887241
0.826741
0.714027
0.708101
0.658119
0.586812
0.61302
0.690524
0.77574
0.814476
0.84695
0.888974
0.944125
1.13022
1.23937
1.30811
1.58737
1.72434
1.69308
1.52134
1.3217
1.31622
18.2987
4.83498
1.08424
0.230637
0.113169
0.110609
0.128815
0.152681
0.171722
0.194072
0.20085
0.19348
0.185888
0.180589
0.174567
0.161143
0.145846
0.137077
0.132918
0.132909
0.133972
0.137274
0.143526
0.145589
0.145627
0.144933
0.142554
0.139046
0.135911
0.129288
0.1221
0.119405
0.119434
0.12351
0.136502
0.141898
0.141932
0.137297
0.13397
0.133916
0.135916
0.146023
0.158009
0.172845
0.183006
0.186986
0.191598
0.202998
0.209718
0.211404
0.209817
0.205654
0.206752
0.220151
0.226296
0.224542
0.219451
0.210628
0.199001
0.193137
0.18976
0.187047
0.179767
0.164333
0.147956
0.13335
0.125397
0.123802
0.12441
0.128618
0.142925
0.184106
0.226127
0.24636
0.249813
0.25319
0.274777
0.365801
0.51976
0.622881
0.723666
0.824773
0.918221
0.958685
0.948079
0.845607
0.626809
0.504208
0.447777
0.377048
0.30842
0.289407
0.281068
0.277857
0.288922
0.303059
0.292433
0.257055
0.255168
0.25504
0.241801
0.227469
0.22751
0.23499
0.24335
0.242127
0.2324
0.217912
0.208054
0.222483
0.25477
0.26368
0.279164
0.316343
0.377062
0.404224
0.405842
0.383182
0.361826
0.379718
0.383574
0.406
0.432755
0.453152
0.459453
0.520631
0.637852
0.615664
0.611898
0.640427
0.625039
0.621979
0.647439
0.691799
0.785391
0.838264
0.844492
0.898401
0.951526
0.977648
1.0208
1.17247
1.26531
1.28298
1.30639
1.42693
2.0577
2.38901
2.24134
1.73827
1.57018
1.40063
1.19728
1.13433
1.09929
0.973512
0.931988
0.89875
0.8663
0.779882
0.667715
0.643811
0.602472
0.560953
0.596078
0.673132
0.741849
0.77794
0.829515
0.90532
1.08884
1.2986
1.34318
1.41636
1.88655
1.81287
1.69034
1.4859
1.31644
1.30949
19.1119
5.03048
1.30394
0.374631
0.130616
0.109226
0.117167
0.132533
0.143713
0.153527
0.166761
0.17821
0.18185
0.18243
0.184113
0.185017
0.18369
0.180342
0.172966
0.166044
0.162077
0.161634
0.159739
0.155082
0.15143
0.148279
0.143559
0.138751
0.135232
0.13097
0.127145
0.126036
0.126647
0.133575
0.142357
0.144873
0.144337
0.138661
0.135373
0.135304
0.137313
0.147292
0.164044
0.177313
0.183986
0.186213
0.187864
0.195788
0.206265
0.207986
0.206807
0.203254
0.207629
0.223611
0.226957
0.223772
0.222496
0.21949
0.207406
0.201598
0.197642
0.191479
0.176672
0.151997
0.136738
0.127611
0.123942
0.12448
0.12603
0.128513
0.138752
0.159654
0.209191
0.242396
0.255725
0.266485
0.296218
0.407249
0.565915
0.656568
0.735862
0.812295
0.854984
0.861856
0.834386
0.729473
0.539411
0.426665
0.377397
0.334989
0.288896
0.272557
0.266886
0.266198
0.280271
0.281951
0.263651
0.250944
0.249645
0.246152
0.230329
0.21867
0.21769
0.21851
0.213775
0.21701
0.220078
0.209713
0.204323
0.212897
0.244821
0.260974
0.279488
0.337792
0.386637
0.397504
0.386004
0.35414
0.347732
0.377933
0.389107
0.416983
0.437904
0.475272
0.480361
0.487009
0.571266
0.570938
0.561469
0.581306
0.580052
0.580974
0.597245
0.608312
0.699456
0.793634
0.807203
0.840342
0.882967
0.914248
0.962085
1.10625
1.21147
1.23356
1.2624
1.36833
1.92643
2.2387
2.11274
1.65102
1.50165
1.34062
1.14405
1.11161
1.05467
0.937686
0.918628
0.898
0.853927
0.730502
0.645604
0.595804
0.55588
0.53852
0.58265
0.657944
0.725217
0.766042
0.834248
1.0074
1.45155
1.63783
1.5821
1.67685
1.98648
1.79838
1.58021
1.37902
1.2965
1.30361
19.7443
5.01875
1.33032
0.505829
0.182625
0.118012
0.119569
0.13002
0.139447
0.146225
0.151536
0.154408
0.157462
0.163503
0.172525
0.18122
0.187563
0.191786
0.19211
0.191105
0.187796
0.180904
0.172105
0.161224
0.153857
0.148354
0.141398
0.135151
0.132427
0.130656
0.130381
0.130727
0.13323
0.141883
0.146069
0.146798
0.145767
0.140275
0.137527
0.137546
0.140209
0.15566
0.176097
0.183636
0.184344
0.18471
0.186297
0.192579
0.199172
0.199213
0.193732
0.193061
0.205302
0.222677
0.230084
0.231474
0.231426
0.22446
0.21502
0.207802
0.203051
0.193458
0.168578
0.138851
0.124115
0.119257
0.11924
0.125242
0.128763
0.130095
0.136833
0.151198
0.185425
0.231811
0.257816
0.275157
0.31009
0.423252
0.582942
0.668052
0.725802
0.749653
0.749
0.747826
0.727499
0.655335
0.496023
0.378488
0.333147
0.306508
0.280102
0.26427
0.254656
0.253703
0.264836
0.261532
0.252139
0.24708
0.241175
0.235694
0.223284
0.215561
0.212684
0.207768
0.207861
0.214268
0.216788
0.208657
0.202899
0.208491
0.239441
0.258663
0.287511
0.347319
0.387195
0.391679
0.361448
0.338329
0.345353
0.37956
0.401234
0.420406
0.429461
0.467466
0.480985
0.464995
0.470463
0.495255
0.508396
0.530668
0.52693
0.521555
0.539401
0.55543
0.609854
0.719812
0.755319
0.7957
0.827029
0.861374
0.904203
1.02344
1.14222
1.17478
1.21144
1.30937
1.78381
2.06902
1.98578
1.60304
1.4288
1.26847
1.11118
1.08714
1.00643
0.922499
0.918494
0.89875
0.846373
0.706302
0.611917
0.546942
0.535155
0.52799
0.57585
0.654361
0.715923
0.768306
0.873099
1.25447
1.7712
1.77173
1.64841
1.74998
1.89786
1.64186
1.29716
1.28322
1.2025
1.2624
20.3854
4.81087
1.26318
0.524348
0.243217
0.155834
0.144644
0.146151
0.151299
0.155897
0.157802
0.156429
0.151244
0.14623
0.144992
0.149512
0.160484
0.173439
0.18399
0.18894
0.18867
0.186134
0.178313
0.168088
0.159825
0.152865
0.145272
0.138663
0.135423
0.133868
0.132383
0.132156
0.134402
0.143737
0.147951
0.148524
0.146934
0.142546
0.141182
0.141808
0.147025
0.166382
0.179459
0.182587
0.18215
0.18224
0.184817
0.185947
0.185223
0.182724
0.182149
0.186001
0.209495
0.225501
0.23454
0.239392
0.237511
0.225296
0.21739
0.207068
0.197616
0.175903
0.153002
0.130307
0.118292
0.11446
0.114535
0.121123
0.128639
0.130214
0.132838
0.147889
0.164657
0.211716
0.257867
0.284043
0.320601
0.426032
0.584543
0.667225
0.691507
0.699466
0.680339
0.642813
0.625259
0.584474
0.47571
0.356718
0.310568
0.291576
0.278519
0.262931
0.244993
0.241617
0.247027
0.244048
0.234143
0.230994
0.218604
0.214298
0.211997
0.205951
0.202067
0.201458
0.201466
0.202085
0.205609
0.199437
0.194376
0.200555
0.236949
0.257135
0.293609
0.350832
0.38329
0.375796
0.342546
0.335141
0.345914
0.38317
0.400504
0.40562
0.411389
0.439034
0.463892
0.443265
0.433122
0.45458
0.454341
0.453782
0.449817
0.444768
0.463656
0.499032
0.570814
0.661679
0.701642
0.736043
0.763023
0.814123
0.861676
0.962752
1.06997
1.11268
1.15021
1.24723
1.66066
1.9102
1.8608
1.57729
1.37906
1.23382
1.08991
1.06237
0.956943
0.906487
0.920886
0.905244
0.829464
0.673057