/*--------------------------------*- C++ -*----------------------------------*\
| =========                 |                                                 |
| \\      /  F ield         | OpenFOAM: The Open Source CFD Toolbox           |
|  \\    /   O peration     | Version:  dev                                   |
|   \\  /    A nd           | Web:      http://www.openfoam.org               |
|    \\/     M anipulation  |                                                 |
\*---------------------------------------------------------------------------*/
FoamFile
{
    version     2.0;
    format      ascii;
    class       volScalarField;
    object      muSgs;
    location    "9.131";
}
// * * * * * * * * * * * * * * * * * * * * * * * * * * * * * * * * * * * * * //

dimensions      [1 -1 -1 0 0 0 0];

internalField   nonuniform List<scalar> 
12225
(
0.000199245
0.000204513
0.000164925
0.000167406
0.000174643
0.000186896
0.000221087
0.000216548
0.000261809
0.000242495
0.000288611
0.00026527
0.000307045
0.000296068
0.000312138
0.000298493
0.000242057
0.000332727
0.000109173
0.00019137
0.000175091
0.000192383
0.000166424
0.000194259
0.000174355
0.000201996
0.000190659
0.000204181
0.000202384
0.000206213
0.000217444
0.00020428
0.000222711
0.000241657
0.00032395
0.00031721
4.03915e-05
0.000116403
0.000120416
0.00015476
0.000132156
0.000160885
0.000136486
0.000152195
0.000141765
0.000140461
0.000146296
0.000133975
0.00015832
0.000139125
0.000182332
0.000219071
0.000343731
0.000343675
1.53063e-05
6.28065e-05
6.97353e-05
9.47186e-05
9.53616e-05
0.00010373
0.000113454
0.000104135
0.000120456
9.49921e-05
0.000113755
8.75862e-05
0.000112917
9.16274e-05
0.000134378
0.000181272
0.000361887
0.000434017
6.82888e-06
3.0352e-05
3.86853e-05
5.29611e-05
7.01048e-05
7.08073e-05
8.5948e-05
7.56258e-05
9.22294e-05
7.08043e-05
8.7708e-05
6.70493e-05
8.25399e-05
6.7682e-05
9.60917e-05
0.000124895
0.000303956
0.000455191
8.24991e-06
2.26377e-05
2.95127e-05
3.63245e-05
4.82244e-05
5.14357e-05
6.13319e-05
5.6505e-05
6.80585e-05
5.51718e-05
6.71396e-05
5.51257e-05
6.27299e-05
5.51214e-05
6.99008e-05
9.26389e-05
0.000225405
0.000372253
1.26414e-05
2.197e-05
2.81141e-05
2.94466e-05
3.89152e-05
3.92388e-05
4.6246e-05
4.44013e-05
5.17146e-05
4.38275e-05
5.23497e-05
4.4967e-05
5.22743e-05
4.86161e-05
6.06741e-05
6.37558e-05
0.000146584
0.000220522
1.15555e-05
1.88403e-05
2.34946e-05
2.473e-05
3.07439e-05
2.98109e-05
3.37983e-05
3.17302e-05
3.52549e-05
3.08587e-05
3.52817e-05
3.05625e-05
3.5202e-05
3.16788e-05
4.35481e-05
5.01139e-05
8.19182e-05
9.93585e-05
1.67989e-05
2.26251e-05
2.57446e-05
2.75872e-05
3.14247e-05
3.12652e-05
3.36155e-05
3.18959e-05
3.27611e-05
3.05966e-05
3.14953e-05
2.86679e-05
3.08134e-05
2.9977e-05
3.62122e-05
4.31114e-05
6.20137e-05
7.09012e-05
2.87523e-05
3.38839e-05
3.22057e-05
3.41086e-05
3.39597e-05
3.46356e-05
3.50769e-05
3.42255e-05
3.33445e-05
3.19154e-05
3.08124e-05
2.91754e-05
2.88465e-05
2.96701e-05
3.05667e-05
3.27933e-05
4.47776e-05
5.26741e-05
3.82773e-05
4.48929e-05
4.20888e-05
4.4379e-05
3.98813e-05
4.07572e-05
3.8836e-05
3.7923e-05
3.61419e-05
3.46408e-05
3.27572e-05
3.11368e-05
2.97135e-05
2.93213e-05
2.93204e-05
2.85015e-05
3.43705e-05
3.79875e-05
5.65985e-05
6.31909e-05
5.94958e-05
6.07981e-05
5.43039e-05
5.39813e-05
4.7427e-05
4.6223e-05
4.13814e-05
3.96347e-05
3.61122e-05
3.42785e-05
3.20792e-05
3.08266e-05
2.97006e-05
2.8101e-05
2.97552e-05
3.05091e-05
8.5015e-05
8.71023e-05
8.29131e-05
8.23729e-05
7.47089e-05
7.25146e-05
6.40217e-05
6.10585e-05
5.31859e-05
4.99422e-05
4.36668e-05
3.99586e-05
3.61349e-05
3.3806e-05
3.19402e-05
2.99159e-05
2.9209e-05
2.85725e-05
0.000122419
0.00011983
0.000113614
0.000110477
9.93358e-05
9.44605e-05
8.31595e-05
7.82239e-05
6.92504e-05
6.37646e-05
5.66618e-05
5.13083e-05
4.56635e-05
4.10109e-05
3.68311e-05
3.39602e-05
3.15605e-05
3.01568e-05
0.000172724
0.000166496
0.000160613
0.000154284
0.00014058
0.000130722
0.000116869
0.000105895
9.36804e-05
8.3466e-05
7.36511e-05
6.53242e-05
5.77261e-05
5.1369e-05
4.57524e-05
4.13142e-05
3.72287e-05
3.41583e-05
0.000237981
0.000221796
0.000211245
0.000195393
0.000176665
0.00015977
0.000142429
0.00012673
0.000111772
9.8465e-05
8.64714e-05
7.60861e-05
6.69773e-05
5.92913e-05
5.26045e-05
4.71296e-05
4.23053e-05
3.84071e-05
0.000290557
0.000262781
0.000246519
0.000224839
0.000202683
0.00018156
0.000161292
0.000142622
0.00012556
0.000110335
9.67846e-05
8.49779e-05
7.46561e-05
6.58707e-05
5.82357e-05
5.18829e-05
4.63472e-05
4.1895e-05
0.000298663
0.000269522
0.000251782
0.000229032
0.000206378
0.000184621
0.000164005
0.000145008
0.000127739
0.000112327
9.8618e-05
8.6613e-05
7.60483e-05
6.7008e-05
5.91464e-05
5.25832e-05
4.68596e-05
4.21907e-05
0.000270621
0.000247115
0.000232373
0.000212308
0.000192011
0.000172181
0.000153268
0.000135735
0.000119764
0.000105446
9.27009e-05
8.15162e-05
7.16514e-05
6.31633e-05
5.57436e-05
4.95126e-05
4.4009e-05
3.95027e-05
0.000216201
0.000199707
0.000191559
0.000180456
0.000166378
0.000151125
0.00013562
0.000120752
0.000106951
9.45118e-05
8.33628e-05
7.35292e-05
6.48359e-05
5.72784e-05
5.06341e-05
4.50478e-05
4.00289e-05
3.5852e-05
0.000159279
0.000147545
0.000142011
0.000134371
0.00012462
0.000114375
0.000103524
9.30613e-05
8.30344e-05
7.3307e-05
6.46174e-05
5.73609e-05
5.11588e-05
4.59728e-05
4.14404e-05
3.7716e-05
3.43454e-05
3.16304e-05
0.000113
0.000107455
0.000104584
0.00010051
9.43141e-05
8.7497e-05
7.96075e-05
7.10582e-05
6.27246e-05
5.60686e-05
5.08324e-05
4.65812e-05
4.28735e-05
3.97054e-05
3.67001e-05
3.41083e-05
3.1611e-05
2.95634e-05
7.90983e-05
7.68745e-05
7.51948e-05
7.28115e-05
6.8767e-05
6.3189e-05
5.82904e-05
5.37754e-05
4.9885e-05
4.70053e-05
4.44738e-05
4.20273e-05
3.96024e-05
3.73113e-05
3.49112e-05
3.27767e-05
3.07048e-05
2.8995e-05
5.26203e-05
5.23676e-05
5.09457e-05
4.9304e-05
4.83834e-05
4.79809e-05
4.72948e-05
4.5948e-05
4.47001e-05
4.37222e-05
4.25173e-05
4.10219e-05
3.93339e-05
3.75238e-05
3.57374e-05
3.41854e-05
3.2764e-05
3.16069e-05
3.12878e-05
3.19401e-05
3.34417e-05
3.65098e-05
4.05796e-05
4.33622e-05
4.46476e-05
4.48983e-05
4.51061e-05
4.54966e-05
4.58867e-05
4.57265e-05
4.49467e-05
4.38016e-05
4.25787e-05
4.14646e-05
4.0503e-05
3.96845e-05
1.5819e-05
2.1229e-05
2.78332e-05
3.61761e-05
4.47546e-05
4.95259e-05
5.26749e-05
5.49224e-05
5.70402e-05
5.91766e-05
6.05358e-05
6.07867e-05
6.01507e-05
5.90414e-05
5.7836e-05
5.66673e-05
5.56754e-05
5.49236e-05
8.95368e-06
2.44975e-05
4.22213e-05
5.94602e-05
7.26093e-05
7.89536e-05
8.29393e-05
8.51887e-05
8.71723e-05
8.88905e-05
8.91575e-05
8.82857e-05
8.67319e-05
8.48292e-05
8.29446e-05
8.12124e-05
7.97415e-05
7.83913e-05
1.83729e-05
6.5518e-05
0.000101226
0.000119663
0.000129972
0.000134232
0.000135979
0.00013596
0.000135667
0.000134339
0.000131682
0.00012848
0.000124847
0.000120892
0.000117289
0.000113629
0.000110201
0.000106065
6.94248e-05
0.000177957
0.000210133
0.000215301
0.000211411
0.000206035
0.000200697
0.000195859
0.000190657
0.000185443
0.00018044
0.000175137
0.000169758
0.000164056
0.000158407
0.00015235
0.000146278
0.000137162
0.000234518
0.000283748
0.000261251
0.000237748
0.000228646
0.000230185
0.000237063
0.000246002
0.000253921
0.000260318
0.000264829
0.000267384
0.000268178
0.000267182
0.000264515
0.000260227
0.000253876
0.000240273
2.6559e-05
2.41471e-05
2.43592e-05
2.56208e-05
2.75276e-05
2.97494e-05
3.24593e-05
3.55478e-05
3.91582e-05
4.32225e-05
4.75035e-05
5.18214e-05
5.62509e-05
6.06927e-05
6.54838e-05
7.111e-05
7.77332e-05
8.47632e-05
9.2251e-05
0.000102053
0.000113923
0.000124722
0.000134447
0.00014512
0.000156142
0.000166781
0.00017707
0.000186589
0.000195214
0.000202896
0.000209545
0.000215276
0.00022028
0.000224669
0.000228514
0.000231974
0.000235044
0.000237833
0.00024049
0.000242906
0.000245218
0.00024742
0.000249629
0.000251923
0.000254308
0.000256851
0.000260008
0.000263543
0.00026747
0.000271798
0.000276468
0.000281005
0.00028533
0.000289821
0.000294831
0.000300074
0.000305318
0.000311146
0.000316778
0.000321698
0.000326211
0.000330901
0.000335985
0.000340689
0.000344508
0.000347388
0.00035066
0.000354702
0.000358933
0.000362417
0.000364725
0.000365851
0.000364897
0.000362796
0.000360406
0.00035691
0.000351087
0.000342879
0.000333635
0.000325202
0.000317548
0.000310891
0.000307278
0.000305443
0.000298246
0.000284586
0.000275098
0.000268433
0.000261874
0.000254002
0.000245474
0.000236151
0.000230369
0.000233389
0.000251225
0.000282808
0.000318677
0.000336216
0.00034101
0.000339303
0.0003439
0.00035229
0.000352863
0.00033785
0.000305588
0.000267424
0.000233094
0.000201268
0.000179756
0.000177248
0.000181647
0.000173838
0.000151943
0.000142407
0.000142576
0.000148551
0.000158976
0.000176356
0.000197115
0.000220268
0.000242195
0.00026746
0.000294493
0.000317523
0.000333984
0.000345868
0.000354456
0.000362201
0.000366912
0.000370952
0.000373557
0.000373362
0.000373521
0.0003757
0.000379474
0.000385492
0.000397232
0.000411936
0.000426938
0.000441724
0.00045259
0.000461436
0.000468606
0.00047248
0.000473077
0.000467377
0.000456417
0.000448775
0.000443837
0.000436726
0.000422658
0.000404664
0.000408326
0.000444309
0.000471827
0.000471615
0.000431907
0.000389574
0.000373691
0.000362446
0.0003533
0.000359486
0.000347452
0.000360736
0.000349515
0.000355953
0.000384119
0.00042119
0.000455735
0.000482962
0.000502907
0.000512308
0.000520095
0.000527887
0.000534127
0.0005377
0.000537633
0.000533182
0.000525537
0.000521777
5.71229e-05
3.51557e-05
2.68991e-05
2.61401e-05
2.69905e-05
2.90046e-05
3.11507e-05
3.34797e-05
3.63487e-05
3.9793e-05
4.38175e-05
4.862e-05
5.4325e-05
6.00244e-05
6.61515e-05
7.2977e-05
8.05937e-05
8.6948e-05
9.35015e-05
0.000101972
0.000110623
0.0001174
0.000122925
0.000127131
0.0001303
0.000132834
0.000134053
0.000133791
0.000132007
0.000128982
0.000125311
0.000121988
0.000118686
0.000115297
0.000112031
0.000109146
0.000105769
0.000102393
9.92187e-05
9.54806e-05
9.2403e-05
8.95043e-05
8.68074e-05
8.45839e-05
8.30355e-05
8.11751e-05
8.00639e-05
8.01393e-05
8.08836e-05
8.29923e-05
8.52867e-05
8.73383e-05
8.84946e-05
9.02131e-05
9.47447e-05
9.9773e-05
0.000102877
0.00010881
0.000116836
0.000121558
0.000123328
0.000124935
0.000129753
0.000138686
0.000142468
0.000142745
0.000142238
0.000143097
0.000146767
0.00015626
0.000165811
0.000171018
0.000175295
0.000183816
0.000195515
0.000201204
0.000202558
0.000198036
0.00018233
0.000171827
0.000164763
0.000158718
0.000160611
0.000168017
0.000170725
0.000164445
0.000153607
0.000156452
0.000164722
0.000179571
0.000208431
0.000228617
0.000236922
0.000245396
0.000257709
0.000257799
0.000248312
0.000221411
0.0002058
0.000203271
0.000202578
0.000196465
0.000177958
0.000147588
0.000130094
0.000127725
0.000131155
0.000137095
0.000138689
0.000135214
0.000129421
0.000127775
0.000135923
0.000134978
0.000131442
0.000133155
0.000134148
0.000138487
0.000144343
0.000151107
0.000157123
0.000164507
0.000175531
0.00018965
0.000202397
0.000215216
0.000225596
0.000232518
0.000241953
0.000250641
0.000260281
0.000267836
0.000274399
0.000283804
0.000293281
0.000298355
0.000301461
0.000306453
0.000312981
0.000321775
0.000327367
0.000331082
0.000329109
0.0003254
0.000323157
0.000319351
0.000311694
0.000306833
0.000310267
0.000327468
0.000365329
0.000399145
0.000427833
0.000427189
0.000394247
0.000339629
0.000297545
0.000281961
0.000278998
0.000277239
0.000271023
0.000265123
0.000260519
0.000265062
0.000269183
0.000279737
0.0002918
0.000313356
0.000338779
0.000368038
0.000396622
0.000410704
0.000411369
0.00040809
0.000404579
0.000401228
0.000403449
0.00040383
0.000405633
0.000398261
9.12412e-05
4.55373e-05
2.7846e-05
2.61029e-05
2.71101e-05
2.91874e-05
3.19661e-05
3.55424e-05
4.01146e-05
4.52787e-05
5.03928e-05
5.38632e-05
5.84916e-05
6.28288e-05
6.71952e-05
7.27283e-05
7.84914e-05
8.28629e-05
8.52974e-05
8.73004e-05
8.87675e-05
8.85748e-05
8.68286e-05
8.49116e-05
8.26238e-05
7.95724e-05
7.60129e-05
7.13189e-05
6.60278e-05
6.1088e-05
5.69138e-05
5.3539e-05
5.08576e-05
4.85068e-05
4.65043e-05
4.51623e-05
4.35186e-05
4.22391e-05
4.14201e-05
4.03868e-05
3.96711e-05
3.92227e-05
3.89583e-05
3.86688e-05
3.85321e-05
3.85575e-05
3.86952e-05
3.92026e-05
4.00939e-05
4.06215e-05
4.06974e-05
4.05513e-05
4.03144e-05
4.03567e-05
4.08771e-05
4.20509e-05
4.29549e-05
4.46492e-05
4.8424e-05
5.09287e-05
5.18926e-05
5.28398e-05
5.59684e-05
6.15764e-05
6.37792e-05
6.3677e-05
6.31573e-05
6.38052e-05
6.5866e-05
7.2433e-05
8.15044e-05
8.75253e-05
9.28227e-05
9.98239e-05
0.000116702
0.000133971
0.000142896
0.000144668
0.000140025
0.00012267
0.000105429
9.40774e-05
9.48966e-05
0.000102152
0.000112028
0.000116737
0.000125603
0.000143379
0.000177767
0.000206684
0.000222734
0.000226177
0.00022021
0.00021448
0.000205157
0.000188149
0.000158827
0.000134304
0.000126519
0.000124597
0.000122688
0.000118662
0.000107844
9.79713e-05
9.61981e-05
9.70214e-05
0.00010433
0.000115867
0.000120384
0.000121064
0.000112542
0.000111277
0.000113913
0.000116632
0.000114262
0.000115772
0.000116846
0.000117471
0.000121219
0.000126817
0.000128993
0.000130019
0.000132319
0.000136417
0.00014101
0.000147757
0.00015535
0.000160676
0.000167998
0.000175224
0.000184824
0.000192649
0.000198442
0.000206603
0.000218439
0.000226459
0.000234663
0.000243311
0.000250244
0.000258641
0.000267383
0.000270937
0.00027156
0.000263862
0.000257937
0.000254076
0.00025253
0.000259525
0.000286496
0.000342901
0.000381034
0.000383263
0.000349818
0.000318882
0.000282961
0.000255661
0.000246544
0.000253717
0.000271457
0.000276423
0.000253185
0.000234762
0.000228194
0.000235499
0.000221207
0.0002345
0.000233031
0.000233557
0.000238644
0.000255288
0.000284332
0.000319921
0.000333947
0.000332158
0.000319507
0.000308775
0.000313643
0.000327095
0.000344195
0.000346775
0.000128162
6.19829e-05
3.10431e-05
2.59155e-05
2.63861e-05
2.83743e-05
3.24363e-05
4.03229e-05
4.70186e-05
5.1069e-05
5.33797e-05
5.43822e-05
5.75755e-05
6.05768e-05
6.36284e-05
6.64381e-05
6.87443e-05
6.94733e-05
6.86986e-05
6.70917e-05
6.49336e-05
6.19402e-05
5.79887e-05
5.49228e-05
5.25068e-05
4.9573e-05
4.66063e-05
4.37496e-05
4.10315e-05
3.92226e-05
3.80965e-05
3.7352e-05
3.70312e-05
3.68498e-05
3.66613e-05
3.66576e-05
3.6662e-05
3.67001e-05
3.67819e-05
3.68313e-05
3.67798e-05
3.67821e-05
3.68765e-05
3.70215e-05
3.72357e-05
3.73731e-05
3.75429e-05
3.79015e-05
3.88907e-05
3.98483e-05
4.03994e-05
4.03755e-05
3.97478e-05
3.85979e-05
3.79916e-05
3.78428e-05
3.79515e-05
3.84444e-05
3.91509e-05
3.92514e-05
3.92292e-05
3.95122e-05
4.05594e-05
4.23951e-05
4.29587e-05
4.26395e-05
4.22269e-05
4.26539e-05
4.42303e-05
4.86246e-05
5.25404e-05
5.45883e-05
5.73162e-05
6.24479e-05
7.22696e-05
8.64026e-05
0.000100765
0.000108667
0.000109338
0.000108507
9.64256e-05
8.39193e-05
8.42005e-05
9.05882e-05
9.68326e-05
0.000109406
0.000139332
0.000170566
0.000195242
0.000202384
0.00019695
0.000175424
0.000167001
0.000162076
0.000151458
0.000134152
0.000110648
9.95378e-05
9.66026e-05
9.53362e-05
9.44846e-05
9.38426e-05
9.11372e-05
8.77434e-05
8.57536e-05
8.47137e-05
8.56286e-05
9.00515e-05
9.80102e-05
0.000106038
0.000108938
0.000107581
9.92616e-05
0.000102345
0.000102308
0.00010093
0.000104738
0.00010817
0.000112325
0.000119052
0.000122278
0.000122932
0.000124501
0.000125406
0.000125607
0.000127293
0.000129899
0.000132076
0.000136269
0.000142334
0.000149161
0.000155954
0.000161998
0.000168629
0.000176499
0.000181923
0.000188008
0.000198261
0.000206406
0.000215882
0.000226369
0.000234472
0.00023829
0.000235242
0.000226889
0.000225111
0.000227781
0.00024581
0.000301658
0.000349993
0.000364396
0.00032915
0.000282725
0.000257702
0.000229631
0.000213144
0.000209555
0.000233026
0.000266997
0.000280391
0.000270367
0.000229903
0.000203147
0.000203023
0.000184157
0.000200148
0.000208497
0.000201298
0.00019564
0.000200093
0.000217028
0.000253648
0.000281798
0.000286668
0.000266184
0.00024131
0.000242599
0.000262609
0.00030118
0.000314976
0.000163157
8.47786e-05
3.93686e-05
2.70724e-05
2.68005e-05
2.90703e-05
3.41995e-05
4.10639e-05
4.72201e-05
5.18079e-05
5.39458e-05
5.35642e-05
5.38857e-05
5.59735e-05
5.71002e-05
5.66447e-05
5.50814e-05
5.42892e-05
5.31911e-05
5.04692e-05
4.75524e-05
4.48969e-05
4.18694e-05
4.02357e-05
3.92162e-05
3.8233e-05
3.74603e-05
3.70496e-05
3.68596e-05
3.69685e-05
3.71862e-05
3.75146e-05
3.78998e-05
3.84914e-05
3.91222e-05
3.96844e-05
4.00789e-05
4.04595e-05
4.07517e-05
4.08085e-05
4.05303e-05
4.01152e-05
3.93721e-05
3.88583e-05
3.86294e-05
3.86117e-05
3.86874e-05
3.89709e-05
3.92278e-05
3.983e-05
4.09912e-05
4.1814e-05
4.19545e-05
4.15804e-05
4.06418e-05
4.01492e-05
3.99827e-05
4.00432e-05
3.99253e-05
3.89026e-05
3.82967e-05
3.85079e-05
3.89448e-05
3.90745e-05
3.90128e-05
3.87067e-05
3.87622e-05
3.92636e-05
4.06634e-05
4.37016e-05
4.56008e-05
4.62279e-05
4.69165e-05
4.88309e-05
5.29687e-05
6.1624e-05
7.38363e-05
8.16866e-05
8.4464e-05
8.66837e-05
8.33794e-05
7.89052e-05
8.3066e-05
8.98375e-05
9.70462e-05
0.000117879
0.000160526
0.000178389
0.00018587
0.00017891
0.000150681
0.000132392
0.000126781
0.000121965
0.000113157
0.000101044
8.94577e-05
8.63203e-05
8.54454e-05
8.4004e-05
8.43833e-05
8.53583e-05
8.5752e-05
8.4624e-05
8.23194e-05
8.09425e-05
8.00885e-05
7.95662e-05
8.13117e-05
8.88345e-05
0.000101652
0.000107769
8.91204e-05
9.55134e-05
9.82892e-05
9.68292e-05
9.62829e-05
9.9377e-05
0.000103403
0.000109758
0.000115586
0.000116224
0.000118529
0.00012185
0.000121663
0.000121888
0.000123887
0.000123885
0.000123417
0.000127517
0.000133862
0.00013783
0.000140409
0.000146134
0.000154238
0.000162168
0.000165595
0.000170751
0.000179153
0.000188285
0.000198935
0.000211833
0.00021972
0.000220345
0.000213763
0.00021387
0.000219408
0.000253312
0.000313725
0.000338483
0.000323203
0.000276871
0.000248357
0.000231211
0.000204295
0.000187861
0.00018546
0.00020113
0.00022075
0.000241039
0.000276976
0.00024506
0.000212342
0.000198231
0.000169576
0.00016328
0.000174407
0.000178474
0.000173162
0.000173195
0.000182572
0.000212944
0.000244097
0.000255591
0.000237388
0.000206295
0.000199775
0.000213229
0.000253736
0.000280397
0.000194568
9.83897e-05
4.22777e-05
2.86429e-05
2.91578e-05
3.28852e-05
3.84534e-05
4.30153e-05
4.73685e-05
5.11516e-05
5.19532e-05
5.00926e-05
4.92609e-05
4.99899e-05
5.02555e-05
4.83272e-05
4.50645e-05
4.35766e-05
4.24416e-05
4.02903e-05
3.82902e-05
3.70576e-05
3.61728e-05
3.60376e-05
3.62052e-05
3.64173e-05
3.67266e-05
3.70515e-05
3.73085e-05
3.77729e-05
3.84192e-05
3.91537e-05
3.98848e-05
4.06309e-05
4.14912e-05
4.23209e-05
4.30162e-05
4.36156e-05
4.43389e-05
4.48504e-05
4.51285e-05
4.52918e-05
4.51459e-05
4.4661e-05
4.35507e-05
4.19966e-05
4.10392e-05
4.05588e-05
4.04239e-05
4.05204e-05
4.0739e-05
4.13037e-05
4.19184e-05
4.22298e-05
4.21988e-05
4.19951e-05
4.17733e-05
4.16684e-05
4.18194e-05
4.15495e-05
4.05289e-05
4.01204e-05
3.9449e-05
3.86027e-05
3.81762e-05
3.8224e-05
3.84637e-05
3.89593e-05
4.03581e-05
4.18239e-05
4.29155e-05
4.43038e-05
4.51691e-05
4.66108e-05
4.91406e-05
5.35962e-05
5.83842e-05
6.14205e-05
6.80834e-05
7.34549e-05
7.34042e-05
7.35616e-05
8.01072e-05
8.85926e-05
0.000100383
0.000135575
0.000168304
0.000175863
0.000170677
0.000150068
0.000118649
0.000105915
0.000101845
9.81003e-05
9.30225e-05
8.70397e-05
8.18518e-05
8.02849e-05
7.8257e-05
7.56072e-05
7.47274e-05
7.56639e-05
7.71609e-05
7.81401e-05
7.91233e-05
7.91604e-05
7.8518e-05
7.62824e-05
7.4876e-05
7.7702e-05
9.17625e-05
9.58842e-05
7.98195e-05
8.89792e-05
9.50447e-05
9.6187e-05
9.38457e-05
9.36415e-05
9.64839e-05
9.81851e-05
0.000105209
0.000107864
0.000109734
0.000115817
0.000119563
0.000119163
0.000121395
0.000125427
0.000124197
0.000123185
0.000130021
0.000137208
0.000136737
0.000135583
0.000139239
0.000148068
0.000154149
0.000158049
0.000164297
0.000171179
0.000180167
0.0001938
0.000206585
0.000210353
0.0002073
0.000208775
0.000217667
0.000263453
0.000314646
0.000316931
0.000279488
0.00024398
0.000230264
0.000218008
0.000199281
0.000189714
0.000191663
0.000196765
0.000178445
0.000176714
0.000244528
0.000246356
0.000209694
0.000193974
0.000157234
0.000154255
0.000159633
0.000166724
0.000165282
0.000161843
0.00016301
0.000184328
0.000217663
0.000233694
0.000224811
0.000202631
0.000194739
0.00019184
0.000215664
0.00024854
0.000222774
0.000106969
4.25653e-05
2.92091e-05
3.18266e-05
3.73323e-05
4.32995e-05
4.55339e-05
4.61353e-05
4.6233e-05
4.46985e-05
4.38563e-05
4.46883e-05
4.45078e-05
4.27594e-05
4.02059e-05
3.81353e-05
3.70365e-05
3.63563e-05
3.55704e-05
3.49763e-05
3.50103e-05
3.52831e-05
3.55475e-05
3.56896e-05
3.59252e-05
3.61979e-05
3.65002e-05
3.68226e-05
3.73581e-05
3.80826e-05
3.8795e-05
3.95151e-05
4.02565e-05
4.09038e-05
4.15912e-05
4.22992e-05
4.27435e-05
4.3351e-05
4.41512e-05
4.50637e-05
4.58446e-05
4.64427e-05
4.68197e-05
4.67702e-05
4.56331e-05
4.32602e-05
4.15335e-05
4.08614e-05
4.09008e-05
4.13414e-05
4.18649e-05
4.19342e-05
4.16953e-05
4.14845e-05
4.13652e-05
4.15903e-05
4.19142e-05
4.27579e-05
4.31811e-05
4.30284e-05
4.28013e-05
4.1732e-05
3.97885e-05
3.90562e-05
3.88382e-05
3.86784e-05
3.9052e-05
3.97828e-05
4.04384e-05
4.18036e-05
4.44229e-05
4.6397e-05
4.75838e-05
4.81482e-05
4.89765e-05
5.05205e-05
5.42146e-05
6.16499e-05
6.63422e-05
6.80178e-05
7.22122e-05
8.07497e-05
9.05094e-05
0.000108118
0.000149055
0.000167922
0.000167599
0.00015422
0.000128931
9.91675e-05
8.9861e-05
8.76294e-05
8.49577e-05
8.11084e-05
7.64097e-05
7.37858e-05
7.27811e-05
7.08707e-05
6.92283e-05
6.94194e-05
6.94918e-05
6.94405e-05
7.11069e-05
7.50071e-05
7.7472e-05
7.7868e-05
7.58026e-05
7.37321e-05
7.45389e-05
7.99354e-05
8.00192e-05
7.70817e-05
8.00109e-05
8.85532e-05
9.18731e-05
9.11674e-05
8.94836e-05
8.98928e-05
9.28909e-05
9.43406e-05
9.75163e-05
0.000101659
0.000105109
0.000114391
0.000116898
0.000115331
0.00012025
0.000124326
0.000122256
0.000124924
0.000134516
0.000138046
0.000138097
0.000139193
0.000141094
0.000145211
0.000150368
0.000155332
0.000159827
0.000167825
0.000180999
0.000196264
0.000202874
0.00020314
0.000205838
0.000219321
0.000270223
0.000304214
0.000297392
0.000255118
0.000236548
0.000230584
0.000216643
0.000208303
0.000194043
0.000189115
0.000186975
0.000173934
0.000159181
0.000177506
0.000234573
0.000196671
0.000171737
0.000132031
0.000137923
0.000149831
0.000165161
0.000166928
0.000162184
0.000153355
0.000163357
0.000190105
0.000207273
0.000211964
0.000209243
0.000206115
0.000191112
0.000194091
0.000224394
0.000248834
0.000121429
4.57311e-05
2.97362e-05
3.27521e-05
3.90191e-05
4.42508e-05
4.53851e-05
4.4841e-05
4.06555e-05
3.86241e-05
3.84127e-05
3.90029e-05
3.90768e-05
3.71427e-05
3.48386e-05
3.36744e-05
3.32481e-05
3.32358e-05
3.34197e-05
3.36545e-05
3.40635e-05
3.4232e-05
3.43671e-05
3.4644e-05
3.50654e-05
3.544e-05
3.57429e-05
3.62031e-05
3.66748e-05
3.70062e-05
3.73093e-05
3.75011e-05
3.76127e-05
3.76121e-05
3.76265e-05
3.76795e-05
3.78119e-05
3.80315e-05
3.83394e-05
3.87888e-05
3.9546e-05
4.13113e-05
4.35302e-05
4.52489e-05
4.59306e-05
4.55977e-05
4.35917e-05
4.17753e-05
4.10587e-05
4.10327e-05
4.18169e-05
4.29749e-05
4.31662e-05
4.2456e-05
4.13447e-05
4.09611e-05
4.12038e-05
4.1586e-05
4.28857e-05
4.35251e-05
4.38314e-05
4.37184e-05
4.20041e-05
4.02728e-05
3.95584e-05
3.85437e-05
3.81864e-05
3.8836e-05
4.00559e-05
4.18776e-05
4.52625e-05
4.70248e-05
4.74081e-05
4.7786e-05
4.90461e-05
5.1063e-05
5.40245e-05
5.96574e-05
6.29588e-05
6.67835e-05
7.49805e-05
8.36085e-05
9.57912e-05
0.000126513
0.000154986
0.00016211
0.000153637
0.000134931
0.000111255
8.62406e-05
8.11403e-05
8.05473e-05
7.7325e-05
7.21477e-05
6.88835e-05
6.86186e-05
6.83832e-05
6.71244e-05
6.70041e-05
6.78798e-05
6.81689e-05
6.66429e-05
6.4845e-05
6.49333e-05
6.80372e-05
7.14921e-05
7.40922e-05
7.23572e-05
7.33153e-05
7.70167e-05
7.6118e-05
7.68198e-05
7.86512e-05
7.77172e-05
8.31217e-05
8.61245e-05
8.59767e-05
8.44874e-05
8.80543e-05
9.08268e-05
9.06381e-05
9.31712e-05
9.47056e-05
0.000101688
0.000111411
0.000111193
0.000111334
0.000117224
0.000118105
0.000119324
0.00012979
0.000135739
0.000137649
0.000141452
0.000142723
0.000142545
0.000146401
0.000151268
0.000153054
0.000158853
0.000172557
0.000188454
0.000197086
0.000199791
0.000203814
0.000222638
0.000273901
0.000291892
0.00027787
0.000244673
0.000236296
0.000225626
0.000209542
0.000204741
0.000189432
0.000176587
0.000169144
0.000161646
0.000145523
0.000145606
0.000199122
0.000183671
0.000148144
0.000131274
0.000134006
0.000145668
0.000164183
0.000168211
0.000162551
0.00015007
0.000154395
0.000171244
0.000184834
0.000197986
0.000208321
0.000208624
0.000190963
0.000182733
0.000205587
0.000271648
0.000135832
5.20745e-05
3.06464e-05
3.28037e-05
3.87393e-05
4.4085e-05
4.55499e-05
4.41702e-05
3.95551e-05
3.64764e-05
3.6171e-05
3.6517e-05
3.55979e-05
3.32347e-05
3.18734e-05
3.15024e-05
3.14446e-05
3.166e-05
3.20888e-05
3.25512e-05
3.30168e-05
3.32704e-05
3.3479e-05
3.38587e-05
3.40367e-05
3.39484e-05
3.40486e-05
3.42704e-05
3.44458e-05
3.4643e-05
3.49115e-05
3.51102e-05
3.52564e-05
3.5341e-05
3.54561e-05
3.55193e-05
3.5575e-05
3.5675e-05
3.5839e-05
3.61301e-05
3.67006e-05
3.76217e-05
3.85845e-05
4.10545e-05
4.38609e-05
4.50823e-05
4.49361e-05
4.31233e-05
4.18233e-05
4.14831e-05
4.15674e-05
4.26497e-05
4.37005e-05
4.40561e-05
4.36789e-05
4.2045e-05
4.1458e-05
4.12712e-05
4.17642e-05
4.24756e-05
4.28298e-05
4.34804e-05
4.2981e-05
4.085e-05
3.96669e-05
3.85465e-05
3.81224e-05
3.87906e-05
3.97108e-05
4.10169e-05
4.4724e-05
4.78705e-05
4.97835e-05
5.05205e-05
5.079e-05
5.13846e-05
5.37182e-05
5.88273e-05
6.34722e-05
7.01668e-05
8.33183e-05
9.32754e-05
0.000108178
0.000137245
0.00015167
0.000150529
0.000135748
0.000121132
0.000100812
8.08531e-05
7.72773e-05
7.64208e-05
7.18399e-05
6.7193e-05
6.70883e-05
6.81163e-05
6.69199e-05
6.46929e-05
6.44844e-05
6.59074e-05
6.60034e-05
6.40617e-05
6.19198e-05
6.15327e-05
6.23227e-05
6.40282e-05
6.70048e-05
6.82458e-05
6.99834e-05
7.42843e-05
7.30192e-05
7.30691e-05
7.5404e-05
7.33228e-05
7.89599e-05
8.35413e-05
8.38063e-05
8.3807e-05
8.44475e-05
8.87212e-05
8.72659e-05
8.66459e-05
8.72893e-05
8.75359e-05
9.83123e-05
0.00010254
0.00010274
0.000109231
0.000111311
0.00011292
0.000124282
0.000131059
0.000134339
0.000140691
0.000144145
0.000142555
0.000145094
0.000149118
0.000148638
0.000151294
0.000166002
0.00018187
0.000191515
0.000196403
0.000202595
0.000226751
0.000275721
0.000283483
0.000262297
0.000234663
0.000227646
0.000208382
0.00020065
0.00019901
0.000182084
0.000172071
0.000160166
0.000159837
0.000146569
0.000133799
0.000151885
0.000154089
0.000128962
0.000120537
0.00013054
0.00014463
0.000159582
0.000162104
0.000157494
0.000146625
0.00015104
0.000163528
0.000177913
0.000196978
0.00020636
0.000205455
0.000189663
0.000175761
0.000190751
0.000291259
0.000149581
5.91161e-05
3.14823e-05
3.19343e-05
3.80815e-05
4.31411e-05
4.43723e-05
4.36188e-05
4.02675e-05
3.66891e-05
3.54287e-05
3.49302e-05
3.40378e-05
3.20097e-05
3.08134e-05
3.07493e-05
3.08848e-05
3.11368e-05
3.1495e-05
3.17935e-05
3.21464e-05
3.22782e-05
3.23653e-05
3.25459e-05
3.27295e-05
3.28264e-05
3.27836e-05
3.27181e-05
3.26467e-05
3.26337e-05
3.27184e-05
3.3082e-05
3.38403e-05
3.44293e-05
3.48346e-05
3.50481e-05
3.50347e-05
3.50625e-05
3.51773e-05
3.54564e-05
3.59959e-05
3.7087e-05
3.80371e-05
3.91838e-05
4.1472e-05
4.36294e-05
4.47059e-05
4.45427e-05
4.31386e-05
4.26427e-05
4.28456e-05
4.42082e-05
4.57099e-05
4.58673e-05
4.59588e-05
4.44527e-05
4.30963e-05
4.25696e-05
4.23833e-05
4.29353e-05
4.27717e-05
4.29052e-05
4.2594e-05
4.04191e-05
3.9318e-05
3.84969e-05
3.76716e-05
3.73987e-05
3.79008e-05
3.99423e-05
4.56078e-05
5.13673e-05
5.27456e-05
5.2273e-05
5.18687e-05
5.24118e-05
5.48697e-05
6.05063e-05
6.78853e-05
8.07018e-05
9.62694e-05
0.000105811
0.000122461
0.000139977
0.000143968
0.000135952
0.000118756
0.000109035
9.35929e-05
7.63275e-05
7.33191e-05
7.19435e-05
6.79873e-05
6.58692e-05
6.7596e-05
6.89412e-05
6.68687e-05
6.39626e-05
6.3323e-05
6.43797e-05
6.43666e-05
6.39497e-05
6.26244e-05
6.24789e-05
6.24618e-05
6.17338e-05
6.06999e-05
6.04969e-05
6.4064e-05
6.99132e-05
7.01499e-05
6.86925e-05
6.85841e-05
7.20946e-05
7.76103e-05
8.13099e-05
8.21663e-05
8.28524e-05
8.16973e-05
8.313e-05
8.58946e-05
8.29251e-05
8.31025e-05
8.40858e-05
9.30651e-05
0.000100609
0.000100464
0.000106094
0.000110599
0.00010937
0.000118839
0.000128307
0.000130751
0.000136417
0.000142519
0.000142045
0.000144259
0.000148951
0.000148255
0.000145993
0.000160785
0.00017714
0.000186944
0.000193009
0.000201066
0.000231476
0.000274437
0.000277075
0.000250485
0.000224437
0.000211425
0.00019246
0.000188616
0.000191635
0.000179692
0.000172148
0.000156159
0.000154194
0.00014476
0.000128753
0.000133551
0.000136903
0.000119558
0.000118214
0.000127942
0.000140801
0.000149589
0.000148872
0.000147902
0.00014308
0.000152439
0.000163485
0.000181229
0.000199603
0.000203803
0.000201326
0.000190249
0.000170774
0.000183696
0.00030708
0.000160786
6.75974e-05
3.33127e-05
2.95614e-05
3.40787e-05
4.01223e-05
4.28077e-05
4.28165e-05
4.05707e-05
3.70323e-05
3.52289e-05
3.46586e-05
3.40237e-05
3.21788e-05
3.06983e-05
3.04799e-05
3.06762e-05
3.10039e-05
3.15212e-05
3.18441e-05
3.22119e-05
3.24569e-05
3.25286e-05
3.2566e-05
3.25722e-05
3.25823e-05
3.24446e-05
3.2221e-05
3.20082e-05
3.19342e-05
3.19845e-05
3.22368e-05
3.3083e-05
3.41643e-05
3.47603e-05
3.49519e-05
3.48114e-05
3.47052e-05
3.47725e-05
3.50867e-05
3.56312e-05
3.66406e-05
3.83046e-05
3.93696e-05
4.11154e-05
4.30206e-05
4.41872e-05
4.45819e-05
4.40926e-05
4.38297e-05
4.38133e-05
4.45433e-05
4.64709e-05
4.72568e-05
4.74092e-05
4.6451e-05
4.45788e-05
4.39292e-05
4.33679e-05
4.37825e-05
4.41037e-05
4.37294e-05
4.32154e-05
4.05964e-05
3.86866e-05
3.79648e-05
3.73604e-05
3.71626e-05
3.76882e-05
3.99311e-05
4.64098e-05
5.20262e-05
5.30632e-05
5.25173e-05
5.2808e-05
5.4348e-05
5.79447e-05
6.53981e-05
7.9305e-05
9.33235e-05
0.0001048
0.000113792
0.000126742
0.000135061
0.000134095
0.000120983
0.000106155
9.9261e-05
8.69219e-05
7.33188e-05
7.05132e-05
6.88304e-05
6.55343e-05
6.49284e-05
6.77617e-05
6.68847e-05
6.35994e-05
6.10752e-05
6.15677e-05
6.176e-05
6.0969e-05
6.16545e-05
6.14565e-05
6.1044e-05
6.13559e-05
6.02784e-05
5.79735e-05
5.65828e-05
6.11047e-05
6.676e-05
6.63104e-05