/*--------------------------------*- C++ -*----------------------------------*\
| =========                 |                                                 |
| \\      /  F ield         | OpenFOAM: The Open Source CFD Toolbox           |
|  \\    /   O peration     | Version:  dev                                   |
|   \\  /    A nd           | Web:      http://www.openfoam.org               |
|    \\/     M anipulation  |                                                 |
\*---------------------------------------------------------------------------*/
FoamFile
{
    version     2.0;
    format      ascii;
    class       volScalarField;
    object      p;
    location    "9.131";
}
// * * * * * * * * * * * * * * * * * * * * * * * * * * * * * * * * * * * * * //

dimensions      [1 -1 -2 0 0 0 0];

internalField   nonuniform List<scalar> 
12225
(
94493.2
94464.2
94429.8
94391
94338.3
94286.4
94210.4
94143.9
94057.2
93975.8
93881.3
93792
93692.7
93594.9
93483.3
93287.3
93107.8
92425.3
94495.2
94468.3
94435
94397
94343.8
94293.3
94215.6
94150.2
94063.3
93982
93887.5
93798.6
93699.9
93600.6
93487.1
93309.6
93090.6
92575.4
94504.6
94479.6
94447.9
94410.4
94356.4
94309.2
94228.3
94165.7
94078.1
93997
93902.7
93814
93715.8
93617.1
93505.4
93357.1
93143.6
92740.2
94522.4
94500.1
94470.5
94433.2
94380.3
94334
94250
94192.5
94104.5
94022.7
93929.2
93839.8
93743.5
93648.3
93546.5
93435.3
93283.6
92962.3
94554.1
94533.5
94506.1
94469
94417.4
94369.9
94285.1
94234.5
94144.8
94062.6
93970.9
93882.4
93790.8
93699.6
93612
93526
93420.5
93274.9
94600.5
94583.8
94558.3
94521.4
94471
94422.6
94339.1
94291.4
94202.2
94120.5
94031.6
93947.1
93860.6
93776.2
93697.1
93627.9
93546.4
93504
94669.4
94654.9
94630.2
94594
94545
94496.2
94419.1
94365
94280.2
94199.8
94114.1
94034.3
93951.7
93875.7
93798.1
93734.8
93662.6
93643.2
94751.9
94737.3
94712.5
94677.1
94629.8
94580.5
94510.7
94450.4
94368.7
94290
94206.3
94129.8
94050.2
93979.5
93905.8
93850.9
93784.2
93756.8
94841.9
94827.4
94802.3
94767.8
94721.8
94671.9
94608.1
94543.7
94464.3
94387.4
94305.6
94230.6
94154.6
94085.7
94018.6
93972.2
93915.3
93877.4
94959
94947.2
94922.2
94889.1
94844.3
94793.8
94736.5
94668
94591.5
94516
94437.9
94363.5
94291.8
94224.8
94162.6
94115.2
94067.2
94021.3
95113.6
95105.7
95082.1
95051.5
95008.3
94958.2
94905.9
94835
94760.5
94686.6
94612.8
94540
94472.1
94407.2
94348.6
94297
94252.7
94208.6
95319.2
95316
95295.8
95267.5
95227
95177.2
95129.2
95056.8
94984.6
94912.2
94842.2
94771.2
94705.3
94642.2
94586.7
94534.6
94494.1
94453.3
95600.6
95595.7
95579.2
95552.5
95515.5
95467.4
95422.2
95349.3
95280.1
95209.6
95142.5
95073.3
95009.5
94947.3
94893.5
94843.4
94803.2
94767
95971.5
95965.6
95951.7
95926.5
95892.9
95846.3
95802.6
95734.6
95667.1
95598.6
95533.4
95466.5
95404.5
95344.1
95290.8
95242
95201.9
95168.2
96450.7
96446.2
96435.5
96413
96382.3
96338.7
96294.7
96232.1
96168
96102.4
96038.4
95973.7
95912.4
95853.8
95800.7
95753
95712.6
95679.3
97054.1
97058
97053.2
97035.4
97008
96968.9
96923.5
96866.7
96806.8
96744.2
96681.6
96618.7
96557.9
96499.9
96446.6
96398.7
96357.2
96322.6
97801.9
97820.6
97824.7
97813.7
97790.9
97756.3
97713
97660.1
97603.8
97544.1
97482.8
97421.1
97360.5
97302.3
97247.7
97198
97154.1
97116.5
98656
98680.8
98691.6
98686.9
98669
98639.2
98599
98549.8
98496.4
98438.9
98378.7
98317.6
98256.9
98197.5
98141
98088.5
98040.9
97998.8
99453.6
99488.9
99505.2
99505.8
99492.8
99467.8
99431.7
99385.5
99334.5
99278.5
99218.8
99157.5
99096
99035.1
98976.2
98920.4
98868.7
98821.7
100143
100173
100192
100197
100188
100167
100135
100092
100043
99987.8
99928.3
99866.4
99803.6
99740.9
99679.5
99620.5
99565
99513.6
100694
100729
100752
100761
100756
100739
100709
100669
100622
100568
100508
100445
100381
100317
100253
100191
100132
100077
101115
101167
101196
101208
101207
101192
101166
101128
101081
101027
100968
100904
100838
100772
100707
100642
100581
100522
101451
101506
101538
101554
101555
101543
101518
101482
101436
101382
101322
101258
101191
101123
101056
100990
100926
100865
101715
101764
101797
101814
101817
101807
101783
101749
101703
101649
101589
101524
101456
101387
101318
101251
101185
101122
101912
101954
101985
102004
102008
101999
101976
101944
101898
101844
101783
101718
101649
101579
101510
101441
101374
101310
102048
102087
102117
102137
102142
102134
102113
102080
102035
101981
101920
101854
101785
101715
101644
101574
101507
101442
102137
102175
102206
102225
102232
102225
102204
102171
102126
102072
102011
101945
101876
101805
101734
101664
101596
101530
102190
102230
102260
102281
102288
102281
102260
102227
102183
102129
102068
102002
101933
101862
101790
101720
101652
101585
102218
102259
102289
102310
102318
102312
102292
102259
102214
102160
102099
102033
101964
101893
101821
101751
101683
101616
102232
102271
102301
102322
102330
102324
102304
102271
102226
102173
102112
102045
101976
101905
101833
101763
101695
101629
93215.3
93216.1
93217.9
93220.4
93223.9
93228.2
93233.4
93239.6
93246.7
93254.9
93264.2
93274.6
93286.2
93299.2
93313.6
93329.6
93347.3
93366.6
93387.6
93410.7
93435.9
93462.6
93491
93521.8
93554.9
93589.7
93626.2
93664.1
93703.7
93744.7
93787.3
93831.2
93876.4
93922.7
93969.9
94017.7
94065.7
94113.5
94160.9
94207.6
94253.3
94297.6
94340.3
94381.3
94420.5
94457.7
94492.8
94526
94557.1
94586.5
94614.6
94641.3
94667.2
94692.6
94717.8
94743.3
94769.6
94797.1
94826.1
94857.7
94892.4
94930.5
94971.9
95017
95066.3
95120.3
95178.7
95240.5
95305.5
95373.9
95445.3
95518.8
95594
95670.5
95747.3
95822.8
95895.8
95965.3
96031.1
96092.6
96147.8
96196.3
96237.7
96267.7
96284.8
96290.8
96285.4
96266.8
96234.1
96188.4
96131.1
96062.6
95984.6
95897.8
95800.3
95691.9
95571.5
95438.9
95299.8
95156.3
95010.2
94862.3
94713.8
94565.6
94418.2
94270.5
94120.7
93968.7
93817
93666.5
93516.9
93373
93235.5
93087
92939.3
92792.5
92648.7
92507.4
92368.6
92230.4
92092.9
91957
91822
91686.1
91550.7
91416.2
91283.8
91154.5
91027.8
90904.4
90784.9
90670.4
90563.1
90463.6
90372.3
90291.7
90224.1
90170.5
90132.6
90112.4
90111.7
90133.6
90185.1
90275
90408.1
90586.3
90810.5
91076.9
91376.8
91700.8
92039.7
92392.1
92757.9
93132.4
93497.9
93844.6
94167.7
94451.6
94685.2
94870.5
94979.2
95029.1
95055.8
95052.9
95026.9
94907.7
94742
94570.7
94414.9
94279.5
94166.5
94073.4
94014.9
94005.2
94052.5
94157.3
94309.8
94496.9
94704.3
94933.4
93211.8
93212.7
93214.6
93217.3
93220.9
93225.5
93230.9
93237.3
93244.6
93252.8
93262.1
93272.7
93284.8
93298.4
93313.5
93330.3
93348.4
93367.7
93388.8
93412.2
93438.3
93466.4
93496.2
93527.4
93560.2
93595
93632.1
93669.9
93709.8
93751.3
93794.5
93839.1
93885
93932.2
93980.3
94028.9
94077.8
94126.5
94174.8
94222.4
94268.9
94314.1
94357.7
94399.7
94439.8
94477.9
94513.9
94548.3
94580.7
94611.3
94640.4
94668.4
94695.4
94722
94748.5
94775.2
94802.8
94831.5
94861.6
94894.1
94929.9
94969.1
95011.2
95056.8
95106.9
95161.9
95221.1
95283.3
95348.2
95416.3
95488
95562.3
95638.1
95714.9
95791.3
95865.9
95938.2
96006.5
96071.5
96132.5
96186.3
96233.7
96275
96304.2
96319.7
96324.1
96317.2
96296.6
96261.3
96213.1
96154.4
96085.7
96006.1
95915.1
95813
95700.1
95577.1
95445.6
95306.5
95161.6
95013.8
94865.1
94716.5
94568.1
94419.9
94271.6
94122.3
93971.3
93820.9
93671.5
93522.8
93377.3
93241.6
93096.6
92949.8
92805.7
92664.2
92525.9
92391.2
92257.2
92124.1
91992.7
91862.8
91732.3
91601.5
91472.1
91344.9
91220.6
91099.2
90981
90866.4
90756.4
90653.9
90559.3
90472.4
90395.6
90331.8
90281.9
90247.1
90229.9
90231.3
90253.3
90304.1
90394
90527.6
90706.1
90930.9
91198.3
91498.1
91821.3
92160
92514
92883.2
93258.1
93623.6
93972.6
94296.8
94581.2
94815
95003.6
95108.3
95149.1
95169.3
95161.4
95133.9
95014.7
94844.5
94668.3
94509.3
94371.4
94256.2
94157.3
94091.8
94076.1
94119.9
94223.3
94374.9
94560.7
94764.3
94988.2
93204.8
93205.8
93207.9
93210.8
93214.7
93219.5
93225.3
93232.1
93239.9
93248.9
93259
93270.3
93283.1
93297.2
93312.5
93331
93350.5
93371.5
93394.2
93418.7
93444.3
93472.2
93502.1
93533.9
93567.6
93602.5
93639.4
93679.1
93720.4
93763.4
93807.9
93854.1
93901.7
93950.4
94000.1
94050.4
94100.9
94151.2
94201.2
94250.5
94298.7
94345.6
94391.1
94434.8
94476.8
94516.8
94554.8
94591.2
94625.9
94658.9
94690.3
94720.6
94750
94779
94807.8
94836.8
94866.9
94898.2
94930.7
94965.3
95003.1
95044.2
95088.1
95135.2
95186.7
95243.2
95303.6
95366.4
95431.7
95500.6
95573.6
95648.9
95724.3
95799.9
95875.9
95950.6
96022.1
96088.9
96151.6
96210.5
96261.4
96306.6
96347.9
96376.9
96389.8
96391.3
96380.7
96356
96318.1
96266.9
96202.5
96127
96041.3
95943.1
95835.8
95719.4
95593.3
95458.9
95318.2
95172.7
95024.3
94874.4
94724.3
94574.1
94423.7
94274.3
94125.8
93976.7
93828.4
93681.3
93534.4
93387.4
93252.8
93114.3
92969.6
92831
92694.1
92561.3
92433.6
92308
92183.5
92061.5
91941.3
91821.2
91701
91581.8
91465.6
91352.1
91241.9
91135.2
91031.4
90930.9
90838.7
90755
90678
90610.5
90556.4
90515
90487.4
90476.6
90482.2
90504.7
90554
90643.3
90777.8
90957.3
91184.2
91452.8
91751.4
92071.5
92408.7
92764.3
93134.8
93511
93879.3
94229.2
94551.3
94836.4
95075.4
95270
95364.2
95384.8
95391
95375.2
95335.4
95219.2
95042.1
94858.5
94693.3
94552.4
94436.5
94328.8
94250.5
94222.2
94259.2
94359.3
94509.4
94693
94890.4
95105.1
93193.8
93195
93197.3
93200.5
93204.8
93210
93216.4
93223.9
93232.7
93242.7
93253.8
93266.3
93280.3
93295.8
93312.8
93331.6
93352.2
93374.5
93397.6
93422.7
93450.3
93479.8
93510.4
93542.5
93576.6
93613.8
93652.8
93693.8
93736.6
93781.5
93828.1
93876.4
93926.1
93976.9
94029.5
94082.1
94134.9
94187.9
94240.4
94292.2
94343.1
94392.6
94440.8
94487.3
94531.9
94574.8
94615.9
94655.3
94693.1
94729.4
94764.3
94797.8
94830.4
94862.6
94894.7
94927.1
94960.5
94995.4
95031.4
95069.1
95109.7
95153.6
95200.2
95250.1
95303.8
95361.5
95423.2
95487.9
95554.9
95624.8
95698.3
95774.3
95850.7
95926.4
96000.8
96073.8
96144.9
96210.8
96271.5
96328.6
96376.7
96417.5
96455.6
96483
96493.9
96492.3
96477.2
96446.9
96402.8
96345.5
96275
96191.1
96096.2
95990.6
95875.9
95753.7
95622.5
95483.6
95339.3
95191.7
95041.8
94890.5
94738.6
94586.5
94434.5
94283.9
94135.6
93987.1
93840.5
93696.4
93553.1
93408.9
93273.8
93142.8
93002.1
92870.8
92740.5
92615.3
92496.7
92382.8
92271.4
92162.9
92057.4
91952.3
91847.5
91743.3
91642.2
91544.1
91450.4
91361.1
91274.1
91189
91112.5
91045.1
90981.9
90928
90890
90864.6
90851.6
90855.6
90870.8
90894.1
90940.3
91027.7
91163.5
91344.8
91573.2
91841.2
92136.7
92453.4
92791.2
93145.5
93514.5
93890.4
94256.2
94599
94911.8
95198.7
95450.3
95654.8
95752
95733.1
95715.7
95688.2
95623.9
95508.8
95326.1
95131.7
94954.5
94806.9
94691.2
94578.9
94488.3
94442.2
94466.9
94558
94704.6
94888.1
95080.7
95285.5
93178.1
93179.4
93182
93185.6
93190.2
93196.1
93203.2
93211.7
93221.8
93233.6
93246.2
93260.1
93275.4
93292.3
93310.7
93330.7
93352.4
93375.8
93400.3
93426.5
93454.6
93483.5
93515.8
93551.1
93588.5
93627.7
93669
93712.4
93757.8
93805.3
93854.6
93905.6
93958.2
94012.3
94067.5
94123.3
94179.6
94235.9
94291.8
94347.2
94401.6
94454.6
94506.3
94556.5
94604.9
94651.6
94696.6
94740
94781.9
94822.5
94862.1
94900.4
94937.3
94973.4
95009.4
95045.9
95083.3
95122.2
95162.2
95203.6
95248
95295.5
95345.4
95398.5
95455.1
95514.9
95578.6
95646.2
95716.2
95788
95861.7
95937.3
96013.8
96089.3
96162.8
96235.3
96305.8
96370.5
96429
96483.4
96529.8
96567.9
96601
96623.3
96630.1
96624.4
96603.9
96566.9
96514.9
96449.1
96370.1
96275.1
96170.9
96056.7
95934
95805
95666.5
95521.9
95373.1
95222.4
95070.1
94916.6
94763.1
94609.7
94456.7
94304.8
94155.7
94006.8
93861
93719.7
93580
93442.7
93307.6
93185.2
93054.2
92929
92806.9
92691.4
92583.9
92483.3
92388.3
92297.8
92212.3
92128.9
92044.1
91959.7
91877.8
91797.8
91723.6
91656.5
91591.5
91525.8
91469
91424.5
91382.2
91345.8
91326.1
91319.1
91325
91352.7
91389.5
91420.1
91464.5
91548.9
91685
91868.5
92096.7
92362.3
92656.2
92970.3
93307.2
93659.9
94023.7
94393.1
94743.4
95068.2
95367.5
95653.8
95901.6
96110.6
96275.6
96210.5
96162.7
96112.8
96016.7
95876.6
95691.1
95485.7
95291.3
95127.8
95006.2
94893.1
94795.9
94730.9
94735.7
94807.6
94944.7
95131.2
95325.7
95521
93157.3
93158.7
93161.6
93165.7
93171.1
93177.8
93186
93195.6
93206.6
93219
93233.2
93248.8
93265.9
93284.8
93305.7
93327.9
93350.4
93373.2
93398.3
93425
93455
93488.8
93524.7
93562.8
93602.9
93644.9
93688.9
93734.9
93783
93833.2
93885.5
93939.7
93995.7
94053.3
94112.2
94172
94232.4
94293.1
94353.5
94413.4
94472.5
94530.3
94586.8
94641.7
94694.9
94746.3
94796.1
94844.4
94891.4
94937.1
94981.9
95025.9
95068.9
95110.6
95151.8
95193
95235.1
95278.4
95323
95368.9
95417.2
95468.5
95522.1
95578.9
95639
95701.8
95768.4
95839.1
95912.1
95985.9
96060.6
96136
96212.1
96288.2
96362.6
96434.2
96501.5
96563.3
96620.5
96673.4
96716.4
96748.7
96775.7
96793.2
96795.9
96784.9
96758.3
96713.4
96651.9
96575.8
96484.8
96379.9
96265.8
96142.5
96010.8
95871.6
95728
95578.1
95424.5
95269.3
95112.5
94955.1
94798.4
94643.1
94489.1
94336.9
94188
94039.4
93893
93752
93616.1
93487
93355
93240.9
93124
93008.5
92896.8
92793
92699.7
92612.8
92535.5
92465.8
92403.9
92348.3
92289.9
92229.7
92174.9
92120.7
92066.9
92024.5
91988.9
91947.5
91908.2
91885.4
91868.9
91858.1
91863.3
91878
91902.6
91954.7
92021.9
92071.6
92121
92204.7
92340.8
92526.4
92753.2
93015.6
93308.2
93621.3
93953.3
94300.5
94659.8
95015.4
95341.3
95652
95944.3
96229.2
96439.4
96644.7
96864.9
96810.9
96728.5
96648.4
96510.8
96329.7
96133.1
95918.8
95703.4
95513.7
95375.7
95261.7
95162
95082.4
95065.5
95112.4
95232.2
95416.4
95616.3
95802.7
93131
93132.4
93135.8
93140.6
93146.8
93154.5
93163.7
93174.1
93185.9
93199.3
93214.4
93230.9
93249
93268.9
93290.5
93314.3
93338.6
93363.8
93392.5
93424.5
93458.4
93494.6
93533.2
93574.1
93617.2
93662.3
93709.1
93758
93809.2
93862.6
93918.5
93976.6
94036.8
94098.8
94162.2
94227
94292.5
94358.5
94424.5
94490.1
94555
94618.9
94681.4
94742.5
94801.7
94858.9
94914.3
94968.3
95021.2
95073.1
95123.9
95173.7
95222.9
95271.3
95319
95366.3
95414.2
95462.9
95513
95564.3
95617.1
95672.5
95730
95790.1
95853.8
95920.4
95990.3
96063.7
96138.7
96214.5
96291.8
96369.7
96446.7
96522.5
96595.6
96664.3
96728.3
96788.6
96844.7
96893.7
96931.5
96958.6
96979.5
96991.3
96989.2
96971.6
96936.1
96881.8
96810.9
96725.1
96623.9
96507
96382.8
96249.2
96109.9
95964.5
95812.8
95655.3
95495.3
95333.6
95170.3
95007.4
94845.9
94688.2
94533.8
94382.3
94235.3
94089.3
93943.7
93803.1
93670.2
93545.3
93421.7
93313.9
93208.2
93107.4
93010.9
92921.9
92846.1
92776.9
92718.6
92673
92634.2
92606.9
92582
92549.7
92525.7
92509.4
92486.3
92468.7
92466.2
92459.4
92444.2
92440
92445.8
92459
92492.9
92536.7
92583.6
92657.8
92757.2
92835.6
92900.4
92989.6
93127.1
93314.6
93540.4
93799.8
94089.6
94400.7
94728.2
95076.3
95436.2
95771.8
96072.4
96373.5
96653.9
96936.7
97121.8
97304.4
97481.8
97492.4
97354.6
97246.2
97060.4
96859.1
96650.6
96431.4
96193.8
95971.4
95803.1
95680.4
95575.9
95487
95457.9
95488.3
95588.9
95754.6
95950.3
96129
93098.4
93100.1
93104
93109.6
93116.9
93125.6
93135.7
93147.3
93160.3
93175
93191.6
93210
93230.5
93252.8
93275.8
93298.3
93323.2
93352.7
93385.4
93420.4
93457.9
93497.5
93539.2
93583
93628.9
93677.1
93727.5
93780.3
93835.6
93893.6
93954.1
94017.1
94082.4
94149.8
94218.8
94289.2
94360.6
94432.5
94504.7
94576.7
94648.1
94718.6
94788
94856.1
94922.9
94987.8
95050.4
95111
95170
95228
95285.8
95343.1
95399.2
95453.9
95508
95562
95616.5
95671.5
95728.1
95786.3
95845.2
95905.5
95966.9
96030.8
96098.8
96168.5
96240.6
96317.2
96395.6
96474.2
96554
96633.3
96710.2
96784.6
96856.2
96924.5
96988.3
97046.9
97098.4
97140.8
97173.6
97197.4
97212.9
97218.4
97210.3
97185.4
97139.9
97075.4
96994.1
96898.4
96790.5
96656.7
96522
96380.2
96232.2
96078.3
95917.5
95752.3
95585.6
95417.7
95249.2
95081.8
94916.5
94755.6
94597.9
94445.4
94300
94158.6
94017.9
93880.1
93750.4
93628.9
93517.7
93414.2
93316.3
93229.1
93149
93079.3
93020.4
92976.3
92940.5
92921.4
92910.2
92905.8
92917.1
92923
92927.1
92948.2
92967.9
92982.5
93013
93046.1
93067.1
93093.8
93125.8
93158.1
93215.9
93291.4
93365.1
93460.3
93590.5
93703.6
93793.4
93896.7
94039
94228.4
94455
94712.8
94997.8
95307.1
95637.2
95994
96354.1
96665.8
96944.6
97204.7
97445.7
97706.6
97893.5
98040.2
98158.2
98223.4
98039.1
97908.8
97679.6
97454.9
97236.1
97011.1
96757.7
96503.2
96293.2
96148.5
96032.3
95934.4
95906.8
95931.8
96018.4
96150.4
96328.2
96495.1
93059.2
93061.2
93065.2
93072.2
93079.9
93089.4
93100.4
93113.1
93127.4
93143.4
93161.2
93180.8
93202.4
93226.1
93251.1
93278.7
93308.7
93341.7
93377.5
93415.6
93456
93498.5
93543.2
93590.1
93639.5
93691.6
93746.6
93804.1
93864.6
93927.8
93993.6
94062.1
94133
94206.1
94281.2
94358.1
94435.9
94514.4
94593.3
94672.3
94750.8
94828.7
94905.4
94981
95055.6
95128.8
95200
95268.7
95335.5
95400.7
95465
95529.3
95593.5
95656.4
95717.9
95778.4
95839
95900.8
95963.5
96028.2
96094.3
96161.9
96229.8
96298.2
96370.6
96444.1
96518
96597.1
96680
96762.3
96842.9
96921.6
96998.3
97073.8
97146.6
97215
97277
97331.2
97377.4
97414.9
97444.3
97465.6
97476.2
97474.6
97458.8
97423.6
97369.5
97295.5
97202.9
97095.6
96975.8
96838
96690.1
96536.3
96377.9
96214.4
96045.3
95872.6
95698.2
95524.5
95351.8
95180.5
95011.4
94846.6
94682.8
94526.8
94381.2
94243.7
94108.5
93975.5
93852.2
93736.9
93638.1
93543.1
93455.6
93383.6
93319.5
93269.7
93229
93209.9
93204.6
93207.9
93229.4
93250.3
93290.6
93343.2
93384.3
93439.4
93504
93557.2
93624.7
93700.2
93759.4
93825.4
93895.7
93954.4
94033.6
94140.2
94243
94359.8
94516.7
94667.6
94789.9
94915.6
95069
95262.3
95491.2
95748.1
96031
96338.3
96671.7
97031.9
97371.8
97660
97919.7
98122.3
98326.6
98554.8
98729.3
98847.8
98921.2
98977.3
98791.1
98618.8
98362.1
98119.2
97884.2
97636.6
97366.4
97082.8
96835.1
96660
96529.6
96429.5
96407.8
96423
96495.4
96590.2
96744.9
96897.7
93013.2
93014.8
93019.3
93025.8
93035.1
93045.4
93057.6
93071.4
93087.1
93104.9
93124.5
93146.3
93169.9
93195.3
93222
93253.2
93287.4
93324.2
93363.8
93405.9
93450.2
93496.9
93545.9
93597.2
93651.1
93707.9
93767.7
93830.6
93896.4
93965.2
94036.5
94110.6
94187.5
94266.9
94348.7
94432.6
94517.9
94604.1
94690.5
94777
94863.3
94949
95033.7
95117.3
95199.6
95281.1
95361.5
95439.3
95514.3
95587.9
95660.6
95732.7
95804
95874.8
95944.3
96012.8
96080.3
96148.8
96218
96288.7
96360.8
96434.3
96509.9
96585.5
96663.8
96742.8
96819.9
96901
96985.9
97071.2
97154.5
97234.7
97312.9
97390.6
97464.2
97530.2
97588.3
97638.4
97681.9
97718.3
97745.7
97762.7
97767.4
97758.2
97735
97689.2
97625.2
97541.8
97439.4
97321.1
97189.3
97044.5
96884.4
96719.5
96550.3
96378.1
96202.7
96023.6
95840.5
95658
95478.5
95301.6
95128.3
94962
94797
94638.7
94492.5
94355.4
94221.9
94093.7
93977.1
93872.5
93778.4
93695.3
93623
93568.7
93526
93494.7
93479.9
93479.2
93507.9
93537.4
93586.5
93642.6
93711.9
93806.9
93892.6
93987.1
94098.8
94193.4
94299.1
94422.8
94523.9
94626.6
94739.8
94833.4
94936.7
95075
95210.4
95350.7
95530.7
95718.6
95878.5
96033.7
96204.5
96405.4
96639.6
96897.1
97180.4
97484.5
97810
98159.2
98465.6
98731.7
98968.2
99130.1
99312.7
99499.3
99642.1
99732
99752.1
99765.7
99576.3
99359.9
99078.2
98828.5
98577.5
98292.2
97989.3
97682.5
97416.5
97212.4
97070.8
96977.8
96953.5
96946.8
96996.8
97064.3
97195.6
97337.4
92959.8
92961.5
92966.2
92973.3
92982.6
92994.1
93007.7
93023.9
93042
93063
93084.5
93107.9
93132.5
93158.4
93189.2
93223.2
93262.8
93303.6
93346.9
93393.1
93442
93493.5
93547.6
93604.3
93663.7
93726
93791.5
93860.1
93931.8
94006.5
94084.1
94164.4
94247.6
94333.9
94422.7
94513.9
94606.9
94700.9
94795.3
94889.8
94984.1
95078.1
95171.3
95263.7
95354.7
95444.2
95533
95620.4
95705.2
95787.3
95867.7
95947.8
96027.7
96107
96184.3
96260.6
96335.7
96412
96489.1
96566.5
96645.4
96724.1
96804.9
96886.9
96970.9
97056.8
97140.2
97224.4
97310.8
97397.9
97485.3
97569.3
97649.7
97728.5
97801.7
97865.4
97921.8
97972.3
98016.1
98051.5
98075.9
98087.3
98084.8
98066.7
98030.5
97980
97907.4
97814.7
97702.9
97573.1
97430.1
97274.5
97106.9
96929.3
96749.8
96570.3
96389.4
96203.7
96011.8
95819.7
95633.5
95452.1
95275.8
95108.6
94947.8
94787.4
94641
94504
94372.6
94249.1
94138.5
94042.8
93956.2
93882.8
93828.5
93789.8
93766.6
93753.9
93767.7
93789.6
93842.5
93908.3
93983.8
94076.7
94186.2
94322.9
94454
94586
94748.2
94894.2
95036.6
95206.1
95356
95496.8
95653.4
95786.2
95916.3
96085.1
96255.7
96421.5
96623.7
96845.9
97044.7
97235.4
97429.8
97641.8
97883.2
98145.3
98427.6
98724.3
99032.2
99355.7
99634
99876.9
100089
100220
100358
100492
100587
100644
100626
100590
100390
100140
99845.2
99573.9
99291.6
98966.2
98624.8
98301.9
98028.4
97801.8
97648.2
97563.5
97524.1
97486.1
97510.3
97569.7
97671.6
97816.6
92901.8
92903.5
92908.3
92915.7
92925.5
92937.8
92952.4
92969.3
92988.5
93009
93032.6
93058.8
93088.1
93120.6
93155.4
93192.7
93233.3
93279
93326.8
93377.5
93431.4
93488.4
93548.3
93611
93676.6
93745.3
93817.4
93892.7
93971.3
94052.9
94137.6
94225
94315.2
94408.4
94504.4
94602.8
94703.1
94804.4
94906.3
95008.8
95111.6
95214.3
95316.4
95417.8
95518
95616.5
95713.9
95810.3
95904.4
95995.5
96084.6
96172.8
96260.6
96347.8
96433.6
96518.4
96602.1
96685.8
96770.9
96855.5
96941.8
97028.3
97114.2
97201.1
97289.9
97381.4
97471.6
97560.5
97650.7
97740.7
97831.5
97918.8
98000
98079.9
98155
98220.2
98277.8
98330.3
98374.3
98407.8
98428.3
98434.5
98425.6
98400.6
98357.5
98295.6
98213.8
98112.2
97990.5
97850.9
97697
97531.5
97354.9
97170.1
96976.9
96793
96604.4
96408.8
96209.2
96010.5
95819.4
95634.5
95452.1
95278.7
95116.6
94957
94810.7
94679
94552.8
94434.7
94331.4
94246.3
94169.4
94109.8
94072.8
94051
94044.6
94051.9
94087.1
94140
94212.8
94313.8
94424.8
94556.3
94706.2
94885.1
95066.4
95234.4
95440.7
95644.2
95829.6
96039.6
96239.3
96424.2
96624.5
96799.2
96960.3
97158
97363.7
97557.6
97781.7
98035.4
98272.1
98500.8
98725.5
98953.2
99203.5
99474.6
99751.7
100035
100328
100618
100869
101096
101287
101380
101460
101533
101569
101590
101537
101427
101220
100929
100629
100331
100007
99645.2
99284.4
98942.1
98659.8
98423.9
98258.6
98178
98109
98034.1
98040.5
98096.1
98173.1
98328.5
92842.3
92843.7
92848.5
92856.1
92866.3
92879.1
92894.6
92912.7
92933.3
92957.3
92983.8
93013.2
93045.6
93081.1
93119.5
93161
93205.5
93253.2
93305.3
93360.7
93419.5
93481.6
93547.1
93616.2
93688.9
93765.2
93844.8
93927.7
94013.9
94103.4
94195.9
94291
94388.7
94489.3
94592.8
94698.6
94806.1
94915
95024.7
95135.3
95246.7
95358.6
95470
95580.3
95689.3
95796.6
95902.4
96007.6
96111
96211.1
96308.5
96405
96502.1
96598
96691.5
96783.9
96876.5
96968
97060.6
97152.9
97245.1
97338.4
97431.5
97524.1
97617.7
97713.9
97809.8
97904
97998.2
98091.6
98185.6
98277.5
98360.5
98440.3
98519.8
98590.1
98649.8
98703.1
98747.8
98778.9
98796.2
98798.7
98784.8
98753.3
98702.6
98631.2
98539.9
98430.1
98301.6
98153.7
97989.3
97812.9
97626.4
97431.1
97231.9
97048.3
96848.1
96641.8
96436.5
96234.1
96035.6
95844.5
95655.7
95479.3
95317.4
95163
95018.8
94889.7
94766.5
94654.9
94562.4
94482.3
94415.4
94374.4
94351.7
94346.2
94355.6
94387
94439.1
94519.8
94623.8
94756.7
94908
95083.5
95272.7
95485.4
95712.4
95928.3
96174.7
96429.1
96661
96908.2
97153
97388.8
97634.5
97852.9
98049.8
98276.7
98515.3
98740.5
98986.4
99266.9
99541
99805.5
100066
100315
100578
100861
101132
101398
101677
101939
102158
102365
102528
102578
102600
102612
102591
102555
102437
102267
102044
101722
101409
101076
100722
100328
99962.3
99597.6
99314.9
99072.8
98891.1
98807.3
98686.3
98592.2
98593.6
98637.6
98715.7
98870.5
92785
92786
92790.9
92798.3
92808.4
92821.3
92837.4
92857.5
92880.3
92906.1
92935
92967.2
93002.6
93041.5
93083.9
93129.8
93179.1
93232
93288.4
93347.9
93411.2
93479.1
93550.6
93626
93705.5
93789.2
93876.7
93967.5
94061.7
94158.9
94258.9
94361.7
94467.3
94575.8
94687.1
94800.6
94915.8
95032.6
95150.5
95269.5
95389.5
95510.2
95630.7
95750.1
95867.7
95983.1
96096.9
96210.3
96322.1
96431
96537.8
96643.3
96748
96852.1
96954.7
97055.2
97156
97255.7
97355.1
97454.9
97554.3
97653.1
97752.5
97851.8
97950.5
98050.9
98151.5
98250.6
98348.9
98445
98541.8
98638.6
98726.5
98806.2
98888
98964.7
99029.2
99082.2
99127.3
99158.2
99173.5
99173.7
99156.1
99119.4
99061.9
98982.8
98883.2
98765.7
98629.7
98474.4
98301.8
98115.9
97920.3
97716.2
97510.5
97315.5
97113.5
96902.2
96697.5
96495.9
96288.5
96092.9
95906.2
95732.8
95570.7
95415
95272.2
95142.6
95021.9
94916
94830
94757.9
94701.4
94677
94667.7
94676.8
94700.3
94753.8
94826.1
94932.1
95074.3
95239.5
95429.6
95648.4
95883
96124.3
96384.2
96659.5
96947.6
97239.4
97518.7
97801.8
98082.2
98363.3
98654.5
98920.5
99158.6
99417.4
99686.7
99944.1
100214
100515
100825
101125
101422
101699
101977
102268
102538
102791
103046
103279
103465
103636
103765
103770
103741
103689
103602
103489
103309
103092
102845
102500
102163
101794
101429
101012
100630
100261
99960.8
99694.2
99493
99401.5
99247.7
99167.3
99165.6
99199.4
99291.5
99425.4
92733.7
92734.3
92738.9
92746.2
92757.1
92771
92787.8
92807.2
92830.7
92857.9
92888.8
92923.4
92961.7
93003.9
93050.2
93100.6
93155.1
93213.6
93276.4
93343.1
93413.5
93486.8
93564.3
93646
93731.9
93822.3
93916.8
94014.9
94116.3
94220.7
94328.1
94438.6
94552.2
94668.6
94787.6
94909
95032.2
95156.9
95283.1
95410.8
95539.6
95668.7
95797.3
95924.8
96050.6
96174.3
96296.1
96417.2
96537.5
96654.9
96769.4
96883.5
96997.3
97109.5
97220.2
97328.3
97436.1
97543.6
97650.2
97756.1
97862.1
97967.7
98072.8
98178.4
98282.7
98387.5
98492
98595.3
98698.6
98798.3
98896.8
98998
99091.8
99173.4
99256
99336.6
99405.9
99461.3
99506.4
99538.9
99552.7
99551.1
99532.1
99491.7
99429.4
99344.6
99238.7
99114.6
98972.5
98811.1
98632.1
98438.9
98235.6
98024.2
97810.1
97602.6
97396.6
97186.4
96980
96784.4
96568.3
96372.8
96188.6
96009.3
95841.2
95681.7
95543
95422.7
95307.1
95209.1
95129.3
95065.5
95025.6
95013
95016.9
95040.7
95079.9
95148.7
95246.1
95386
95562.9
95760.6
95990.5
96245.5
96524.6
96796.5
97084.1
97412.6
97734.2
98049.7
98372.5
98694.9
99013.9
99334.7
99660.2
99966.9
100252
100547
100847
101139
101434
101754
102093
102432
102765
103074
103369
103664
103931
104178
104397
104595
104745
104873
104957
104926
104856
104730
104571
104388
104151
103886
103606
103237
102873
102487
102098
101669
101261
100902
100548
100272
100073
99968.5
99819.3
99756.7
99749.6
99778.4
99862.5
99979.4
92694.2
92694.8
92700.9
92708
92717
92729.2
92745
92764.5
92788.2
92816.2
92848.5
92885.1
92926.2
92971.7
93021.7
93076.4
93135.5
93199.3
93267.5
93340.4
93416.9
93497.7
93582.6
93671.8
93765.3
93862.8
93964.3
94069.5
94178.3
94290.3
94405.4
94523.8
94645.2
94769.2
94895.6
95024.4
95155.7
95288.7
95423.5
95559.6
95696.6
95833.7
95970
96104.4
96236.9
96367.9
96498.3
96627.8
96755.3
96880.8
97004.1
97126
97246.9
97366.2
97484.5
97600.9
97715.3
97829.1
97942.1
98054.4
98165.8
98277.6
98387.7
98498.4
98608.1
98718.1
98827.9
98934.3
99041.1
99145.9
99246
99349.4
99451
99537.1
99617.7
99702
99776
99834.3
99879.2
99914.2
99929.8
99925.2
99904.8
99864.1
99799.2
99710.5
99600.3
99471.8
99325.4
99160.2
98977.3
98779.7
98570.9
98353.6
98132.4
97916.2
97705.3
97496
97284.6
97081.4
96863.4
96671.4
96483.1
96297.9
96134.4
95984.8
95855.7
95743.3
95630.1
95537.6
95469
95410.1
95383.9
95381.5
95397.6
95433.6
95486.4
95572.8
95700.2
95876.9
96081.9
96315.4
96582.5
96861.4
97171.4
97471.4
97788.8
98151.7
98499.5
98838.1
99200.4
99560.2
99917.9
100282
100635
100968
101300
101630
101963
102294
102616
102954
103316
103691
104059
104404
104719
105011
105283
105523
105701
105863
105973
106052
106071
106012
105904
105703
105481
105223
104924
104621
104303
103914
103533
103132
102714
102274
101865
101505
101116
100860
100680
100532
100405
100354
100326
100351
100417
100530
92676.8
92679.8
92681.6
92685.2
92691
92701.1
92715.5
92734.8
92758.2
92786.2
92819
92856.7
92899.7
92948.3
93002.3
93061.4
93125.4
93194.1
93267.4
93345.1
93428.2
93515.7
93607.7
93704.2
93804.9
93909.8
94018.8
94131.7
94248
94367.7
94490.7
94616.8
94745.2
94876.3
95010.4
95147.3
95286.5
95427.9
95571
95715.3
95859.8
96003.8
96146.5
96287.7
96427
96565.4
96702.8
96839
96973.5
97106.1
97237
97366.6
97495.3
97621.8
97745.5
97867.8
97988.7
98109
98227.9
98346.1
98462.7
98579.6
98695.1
98810.4
98924.8
99038.4
99153.4
99264.2
99373.5
99482.8
99586
99688.1
99794.8
99891.7
99970.9
100054
100134
100197
100242
100277
100297
100293
100269
100229
100166
100076
99962.9
99831.7
99683
99515.2
99330.5
99132.1
98921.8
98701.2
98475.7
98253.5
98037.8
97827
97614.5
97405.5
97198
97002.9
96815.4
96634.7
96482.3
96337.1
96204.9
96089.6
95978.4
95895.9
95835.9
95785.7
95767.7
95776.3
95804.2
95847.6
95914.2
96023.5
96181
96387.3
96614.9
96881.2
97168.7
97465.7
97795.6
98117
98463.8
98852.7
99228.1
99596.7
99999.6
100393
100778
101179
101550
101904
102277
102641
103008
103377
103728
104085
104467
104868
105270
105647
105992
106279
106554
106790
106930
107058
107119
107136
107080
106998
106848
106581
106292
105957
105614
105277
104926
104522
104122
103700
103265
102824
102431
102073
101694
101463
101283
101072
100970
100932
100886
100902
100943
101060
92695.1
92692.6
92692.1
92692.2
92694.8
92699.7
92708.8
92723.8
92747.5
92774.5
92805.5
92843
92887.4
92938.3
92995.5
93058.5
93127.1
93201
93279.8
93363.4
93452.2
93545.8
93644.4
93747.8
93855.1
93966.9
94082.8
94202.8
94326.5
94453.5
94583.7
94716.8
94852.6
94991.9
95134.7
95279.9
95427
95575.9
95726.6
95877.9
96028.4
96177.7
96326.2
96474
96620.1
96764.5
96908
97050.2
97191.1
97330.5
97468.6
97604.8
97739
97871.1
98000.7
98128.5
98254.8
98380
98504
98627.4
98749.1
98870.3
98990.8
99110.1
99229
99344.8
99462.6
99579
99690.8
99803.2
99911.6
100014
100119
100225
100312
100389
100472
100541
100590
100624
100646
100647
100623
100580
100521
100435
100323
100190
100041
99872.6
99686.9
99488.9
99280.1
99060.6
98835
98608.8
98386.6
98170.6
97961.9
97755.9
97552.5
97355.4
97171.9
96997.1
96835.4
96682.8
96549.5
96439.7
96334.8
96267.8
96218.4
96177
96168
96185.1
96220.8
96273.1
96354.1
96487.1
96667.4
96892.6
97140.1
97425.6
97720.7
98044
98390.9
98736.8
99110.8
99517.6
99917.2
100316
100752
101167
101576
102002
102376
102750
103158
103554
103952
104358
104742
105113
105516
105936
106365
106767
107145
107441
107705
107935
108039
108128
108137
108084
107965
107859
107653
107329
106975
106581
106212
105839
105457
105045
104625
104183
103739
103310
102925
102580
102223
102001
101824
101577
101485
101449
101411
101405
101418