/*--------------------------------*- C++ -*----------------------------------*\
| =========                 |                                                 |
| \\      /  F ield         | OpenFOAM: The Open Source CFD Toolbox           |
|  \\    /   O peration     | Version:  dev                                   |
|   \\  /    A nd           | Web:      http://www.openfoam.org               |
|    \\/     M anipulation  |                                                 |
\*---------------------------------------------------------------------------*/
FoamFile
{
    version     2.0;
    format      ascii;
    class       volScalarField;
    object      p_0;
    location    "9.131";
}
// * * * * * * * * * * * * * * * * * * * * * * * * * * * * * * * * * * * * * //

dimensions      [1 -1 -2 0 0 0 0];

internalField   nonuniform List<scalar> 
12225
(
95719.9
95705.8
95714.4
95739.6
95763
95797
95814.1
95839.7
95829.6
95824
95798.8
95768
95714.8
95649.2
95553.9
95381.8
95220.1
94404.3
95716
95705.8
95715.6
95741.6
95764.7
95800
95815.6
95843.1
95831.4
95826.2
95801.1
95770.9
95718.7
95653.9
95566.9
95416.7
95214.6
94617.6
95715.4
95707.9
95719.5
95745.8
95768.5
95806.7
95819.6
95851.8
95836.6
95831.7
95807.7
95777.9
95726.9
95665.2
95583.1
95465
95277.4
94842.3
95720
95712.8
95726.5
95752.9
95777
95815.7
95825.6
95867.2
95845.9
95841.1
95819.2
95789.4
95740.6
95684.2
95614.6
95536.4
95417.1
95152.6
95728
95722.2
95738.2
95764.7
95790.5
95827.7
95836
95892.2
95858.6
95856.6
95838.1
95810
95766.2
95715.4
95661.4
95609.3
95540.4
95474.6
95740.6
95737.7
95755.9
95782.6
95809.9
95845.9
95855.7
95913.5
95883.5
95881.5
95865.4
95842
95804.3
95762.4
95717.8
95682.2
95636.4
95636.7
95755.8
95760.2
95779.9
95807.3
95836.2
95871.7
95884.5
95935.7
95920.1
95916.1
95901.8
95883.3
95850.8
95819.4
95777.8
95748.3
95710.4
95717.7
95779.1
95787.3
95807.5
95836
95866.5
95901.8
95921.1
95961.5
95956.5
95955
95941.7
95926.2
95898.3
95872.9
95838
95819.2
95789
95788.6
95805
95817.6
95838.1
95867.7
95899.3
95934.6
95960.5
95990
95994.3
95996
95984.3
95970.1
95947.2
95924.6
95899.3
95889.6
95870.7
95862
95842.3
95858.2
95878.9
95910.1
95942.9
95978.5
96010.3
96030.6
96043.6
96048.4
96040.4
96027.5
96010.5
95991.5
95973.5
95963.7
95953.6
95939.4
95894.3
95911.4
95933.5
95967.1
96001.2
96038
96075.5
96086.5
96108.3
96115.8
96112.7
96102.8
96091.3
96076.3
96064.5
96053
96048.1
96038.6
95963.4
95981
96006.2
96041.8
96078.6
96116
96157.6
96164
96192.8
96202.8
96204.6
96198.5
96191.1
96180.3
96174
96165.6
96166.7
96163.6
96048.2
96071.1
96101.1
96138.2
96178.1
96216.7
96258.3
96270.2
96301.9
96314.6
96320.9
96319.2
96316.8
96310.4
96308.5
96306
96310.1
96315.1
96164.9
96189.8
96223.1
96261.4
96304.3
96344.6
96389
96403.2
96438.3
96455.6
96466
96470.1
96473.2
96472.9
96475.3
96478.4
96486.7
96498.5
96316
96341.2
96376.5
96416.2
96461.1
96503.7
96548.6
96571.2
96606.6
96628.8
96645
96655.1
96663.6
96670.2
96677.9
96687.4
96700.7
96718
96500
96527
96562.8
96604
96650.2
96695.5
96740
96773.8
96808.8
96836
96857.9
96874.8
96889.3
96902.6
96916.6
96932.4
96951.2
96973.8
96703.5
96738.5
96776.5
96819.7
96867.9
96916.4
96964.1
97000.6
97039.4
97071.9
97099.5
97123.2
97144.5
97164.6
97184.9
97206.8
97231.1
97258.8
96896.6
96943.3
96986.1
97032.5
97082.7
97133.9
97183.9
97224.3
97266.4
97303.4
97336.1
97365.6
97393.3
97420
97446.4
97473.8
97503.3
97535.6
97061.1
97105.3
97152.5
97202.7
97255.6
97309.4
97362.3
97403
97448.6
97489
97525.4
97559
97591.2
97623.2
97654.4
97686.3
97719.9
97755.6
97172
97220.2
97272.3
97326.3
97381.5
97436.7
97490.8
97533.6
97580.6
97622.9
97661.6
97698
97733.4
97768.9
97803.6
97838.8
97875.5
97914
97245.5
97302.1
97357.9
97414.5
97471.1
97526.7
97579.8
97627.4
97673.8
97716.8
97756.9
97795
97832.4
97870.1
97907.5
97945.4
97984.5
98025.3
97304.4
97360.8
97418.5
97476.7
97534.1
97589.7
97642.4
97691.2
97737.3
97780.5
97821.4
97860.7
97899.4
97938.5
97978.1
98018
98059
98101.4
97335.8
97400.2
97460.3
97519.6
97577.5
97632.9
97685.2
97734
97779.9
97823
97864.3
97904.3
97943.8
97983.8
98024.7
98066
98108.5
98152.1
97363.1
97427.8
97488.8
97548.7
97606.7
97661.8
97713.7
97762.1
97807.5
97850.6
97891.9
97932.4
97972.6
98013.2
98054.8
98097.3
98140.9
98185.6
97379.5
97446.6
97507.8
97567.7
97625.6
97680.5
97731.9
97779.9
97824.8
97867.7
97909.1
97949.8
97990.4
98031.7
98073.8
98117.1
98161.5
98207
97394.1
97458.8
97519.5
97579.3
97637.2
97691.9
97743
97790.5
97835.1
97877.7
97919
97959.9
98000.9
98042.5
98085.3
98129
98174
98220
97404.6
97466.5
97526.3
97586
97643.7
97698.2
97749
97796.2
97840.6
97883
97924.2
97965.1
98006.4
98048.4
98091.5
98135.8
98181.2
98227.5
97410.6
97470.3
97529.4
97589
97646.7
97701.1
97751.7
97798.7
97843
97885.3
97926.5
97967.5
98008.8
98051.1
98094.5
98139.1
98185
98231.7
97411
97471.1
97530
97589.6
97647.5
97702
97752.4
97799.4
97843.5
97885.8
97927
97968
98009.4
98051.9
98095.4
98140.3
98186.6
98233.8
97413.7
97471.2
97529.7
97589
97646.8
97701.4
97751.8
97798.7
97842.9
97885.1
97926.3
97967.3
98008.9
98051.4
98095
98140.1
98186.8
98234.6
92575.7
92577.1
92579.9
92584.3
92590.1
92597.4
92606.2
92616.6
92628.6
92642.1
92657.3
92674.1
92692.6
92712.6
92734.2
92757.5
92782.6
92809.5
92838.1
92868.8
92901.5
92935.9
92971.8
93009.3
93048.2
93088.4
93129.8
93172.2
93215.4
93259.3
93303.4
93347.9
93392.5
93437
93481.1
93524.6
93567.2
93608.6
93648.6
93687
93723.3
93757.4
93789.2
93818.5
93845.2
93869.3
93890.8
93909.8
93926.3
93940.6
93953
93963.7
93973
93981
93988.2
93994.8
94001.1
94007.4
94013.9
94021.2
94029.8
94039.4
94050.1
94061.8
94074.9
94089.6
94105.4
94121.6
94137.9
94154.5
94171.1
94187.3
94203.1
94218.5
94232.9
94245.8
94256.6
94264.8
94271.4
94276.4
94278.8
94279.1
94277.4
94270.2
94257
94239.4
94217.3
94188.8
94152.7
94109.3
94058.9
94001
93936.7
93865.3
93784.3
93692.7
93587.9
93472.1
93347.9
93217.6
93082.2
92942.6
92799.9
92655.1
92509.3
92361.7
92210.2
92055
91898.9
91742.6
91585.2
91432
91283.6
91124.4
90964.4
90803.3
90643.2
90482.1
90320.3
90155.2
89986.9
89815.9
89641.2
89460.7
89275.1
89084.2
88888.9
88690.5
88489.4
88287.5
88086.7
87889.4
87699.4
87518.9
87350.7
87198.3
87065.2
86952.9
86862.9
86796.8
86755.1
86739.4
86753.4
86801.2
86884.2
87001.5
87151.3
87327.6
87520.4
87720.9
87920.2
88116.7
88305.5
88493.9
88659.5
88796.2
88932.9
89049.5
89143.9
89222.4
89270.1
89303.5
89349
89403.4
89473.1
89507
89538.3
89593.3
89683.4
89807.8
89962.3
90140.1
90348.3
90592.8
90872.1
91182.3
91514.9
91858.6
92200.7
92534.5
92594.8
92596.1
92599.1
92603.6
92609.6
92617.1
92626.1
92636.8
92648.9
92662.6
92677.9
92694.8
92713.5
92733.9
92756
92779.8
92804.9
92831
92858.8
92890.5
92924.2
92959.4
92996
93033.9
93072.6
93113.1
93154.8
93197.5
93241.2
93285.7
93330
93374.9
93419.9
93464.8
93510.2
93554.2
93597.4
93639.5
93680.2
93719.2
93756.2
93791
93823.3
93853.3
93880.7
93905.3
93927.4
93947.1
93964.4
93979.3
93992.3
94003.5
94013.3
94022
94029.7
94036.8
94043.7
94050.5
94057.2
94064.6
94073.4
94083.3
94093.9
94105.3
94118.2
94133.1
94148.9
94164.7
94179.9
94195.2
94211.3
94227.5
94243.1
94258
94270.9
94281.9
94291.8
94297.9
94303.1
94306.8
94306.8
94305.4
94302.8
94294
94278.3
94258.6
94234.3
94203
94163.6
94117.1
94064.9
94006.1
93939.3
93864
93777.8
93681.4
93574.5
93458.8
93334.6
93203
93066.3
92926
92783.4
92638.9
92492.7
92344.9
92194.3
92040.6
91886.1
91731.5
91575.6
91421.7
91275.6
91120.3
90962.1
90804.3
90646.7
90489.1
90331.6
90170.7
90006.7
89840.2
89670.2
89494.6
89313.2
89126.8
88936.1
88741.9
88545.3
88347.4
88150.2
87956.3
87769.6
87592.4
87426.8
87276.6
87145.3
87034.9
86946.8
86882.3
86841.6
86825.4
86838.5
86886.1
86969.2
87086.7
87237.2
87414.5
87607.8
87808.4
88008.9
88209.6
88407.1
88585.6
88746.8
88892.3
89030.2
89149
89244.4
89325.9
89370.8
89397.6
89438.5
89488.6
89556.4
89588.1
89614.8
89664.7
89750.6
89871.6
90022.7
90194.5
90396.7
90637.5
90914
91222.7
91554.8
91897.9
92237.8
92570.1
92633.3
92634.7
92637.8
92642.4
92648.5
92656.3
92665.7
92676.7
92689.3
92703.4
92719
92736.1
92754.9
92775.4
92797.7
92822.2
92849.2
92877.5
92907.7
92938.4
92971.4
93006.4
93043.1
93081.3
93120.8
93161.9
93204.1
93247.3
93290.9
93335.4
93381.2
93427.3
93473.6
93519.9
93566.9
93612.3
93656.8
93700.3
93742.2
93782.5
93820.7
93856.8
93890.4
93921.5
93950
93975.9
93999
94019.9
94038.5
94054.7
94068.9
94081.2
94092.1
94101.9
94110.7
94118.7
94126.6
94134.5
94142.1
94149.9
94159.1
94169.3
94180
94191.2
94203.8
94218.4
94233.9
94248.6
94262.5
94276.9
94292.5
94307.8
94320.9
94332.6
94344.3
94354.1
94359.6
94363.5
94364.7
94364.8
94360.9
94356.4
94352.8
94341.9
94321.9
94297.7
94268.1
94231.3
94187.6
94136.4
94076.8
94009.9
93936.1
93853.3
93761.7
93661.4
93551.5
93432.8
93306.7
93174.1
93036.8
92896
92752.8
92607.5
92460.2
92312
92163.1
92012.5
91861.4
91710.1
91557.2
91403.3
91259.7
91111.1
90956.9
90806.4
90653.6
90502.1
90351.9
90199.6
90044
89886.3
89725.5
89559.4
89387.5
89210.1
89029
88844.2
88656.7
88468
88279
88092.1
87912.8
87743.1
87584.1
87439.8
87314.2
87208.4
87123.8
87062.5
87023.7
87006.9
87018.1
87064.7
87148
87266.2
87418.3
87597.1
87790.4
87990.4
88190.6
88393
88590.6
88763.3
88930.7
89083.3
89223.8
89346.5
89447.7
89534.9
89571.6
89584.2
89614.8
89658.1
89715.2
89745.2
89764.1
89805.2
89883.4
89998.9
90145.1
90306.1
90496.7
90730.1
91000.7
91306.5
91637.7
91980.4
92315.7
92644.7
92689.1
92690.6
92693.8
92698.6
92705
92713.1
92723.1
92734.8
92748.2
92763.1
92779.4
92797.3
92817.1
92838.7
92862.1
92887
92913.5
92942.3
92973
93005.3
93039.2
93074.9
93112.3
93151.3
93191.9
93234.2
93277.8
93320.7
93365.6
93411.8
93459.1
93506.9
93555.1
93603.4
93651.6
93699.1
93745.7
93791.2
93835.1
93877.3
93917.4
93955.2
93990.7
94023.6
94053.7
94081.2
94106.2
94128.7
94148.9
94166.9
94182.7
94196.4
94208.5
94219.5
94229.5
94238.8
94248
94257.2
94265.9
94274.5
94284.2
94294.9
94305.9
94317.2
94329.5
94342.9
94357.4
94371.7
94384.8
94397.6
94411
94424.4
94436.1
94445.4
94452.5
94458.4
94463
94462.6
94459.4
94455.5
94446
94434.8
94426.1
94411.4
94386.9
94356.9
94320.2
94275.2
94223.3
94164.1
94095.7
94017
93934
93842.6
93743.4
93636.9
93521.9
93398.9
93269.3
93134.6
92996.1
92854.6
92710.7
92564.8
92417.1
92269.3
92122.3
91974.2
91826.4
91679.8
91532.3
91382.8
91240.5
91099.8
90951.6
90812.5
90666.2
90523.1
90382.6
90242.2
90099.3
89954.6
89807.5
89655.1
89497.1
89333.1
89165.2
88993.6
88820.1
88645.5
88469.5
88294.1
88126.3
87968
87818.4
87682.9
87567.8
87471.9
87396
87342.9
87308.3
87290
87297.6
87342
87425.9
87545
87698.4
87877.5
88069.7
88269.2
88469.3
88660.9
88859
89039.7
89209.5
89363.4
89502.3
89630.8
89745.7
89843.8
89878.2
89862
89875
89908.2
89944.2
89971.4
89981.5
90009.7
90075.1
90181.6
90321.9
90472.3
90648.9
90871.8
91131.5
91430.9
91760.6
92104.4
92435.7
92760.7
92761.5
92763.1
92766.3
92771.3
92777.9
92786.5
92797.2
92809.8
92824
92840.1
92857.9
92877.2
92898.5
92921.6
92944.4
92969.8
92997.4
93027
93058.4
93091.5
93126.5
93163.3
93202
93242.3
93284.1
93326.6
93370.4
93417.6
93465.4
93514.1
93563.5
93613.4
93663.9
93714.4
93764.8
93814.7
93863.8
93911.7
93958.1
94002.7
94045.2
94085.4
94123.1
94158.4
94190.9
94220.7
94247.9
94272.6
94294.9
94315.2
94333.4
94349.3
94363
94375
94386.1
94396.6
94406.9
94417.2
94426.8
94436.1
94446.5
94457.7
94468.6
94479.9
94492
94504.6
94518
94532
94545
94556.4
94566.6
94576.4
94585.1
94591.2
94594.4
94596.4
94596.7
94592.3
94584.4
94574.7
94560.3
94543.4
94526.6
94503.5
94471.5
94433.9
94388.4
94333.9
94271.7
94201.9
94118.7
94029.8
93935.7
93834.4
93726.3
93612
93489.5
93360.7
93226.6
93089.1
92949
92806.4
92662
92516.3
92369.4
92222.4
92076.9
91930.6
91786.1
91644.7
91503.1
91362.2
91222.9
91092.1
90956.4
90822.3
90687.3
90555.4
90427
90300.5
90173.8
90046.3
89917.9
89785.1
89645.2
89499.1
89347.9
89191.7
89034.8
88878.4
88719.6
88558.8
88406.4
88265.6
88129.9
88005.6
87902.5
87818.7
87755.1
87717.1
87694.3
87677.3
87680.5
87721.2
87805
87925.3
88078.5
88256.8
88449.4
88648.2
88846.3
89040.3
89235.6
89412.7
89577.7
89724.5
89858.3
89991.5
90111.2
90218
90301
90246.9
90235.8
90250.2
90258.5
90263.9
90265.8
90278.6
90326.2
90416.7
90546.2
90687.6
90850.7
91061.9
91302.8
91590.1
91915.7
92262.3
92596.7
92914.6
92849.5
92851
92854.4
92859.4
92866.2
92874.9
92885.7
92898.5
92913.2
92929.9
92951.5
92973
92995.7
93017.1
93042.2
93069
93097.9
93128.6
93161.3
93196
93232.8
93271.7
93312.7
93355.8
93401
93446
93492.2
93540.4
93589.8
93640.2
93691.7
93743.8
93796.5
93849.5
93902.5
93955.2
94007.3
94058.4
94108
94155.8
94201.4
94244.8
94285.7
94324
94359.4
94392
94421.9
94449.5
94474.5
94497.3
94518.1
94537
94553.6
94567.9
94580.5
94592
94603.1
94614
94624.3
94634.2
94644.7
94655.7
94666.5
94677.8
94689.7
94701.3
94713.7
94727
94739.2
94749.1
94756.8
94762.6
94767.2
94770.1
94770.1
94766.7
94760.1
94750
94737.4
94721.8
94700.1
94673.9
94647.1
94615.1
94574.5
94527.4
94471.7
94405.3
94330.8
94251
94146.9
94048.6
93942.9
93830.2
93710.7
93586.6
93458.3
93323.9
93185.3
93044.5
92901.5
92756.6
92610.7
92464.7
92318.9
92173.7
92030.5
91887.2
91745.4
91607.5
91472.3
91341.9
91209.6
91089.2
90967.2
90844.2
90721.5
90602.8
90489.4
90377.5
90269
90161.5
90055.6
89948.7
89832.4
89708.2
89580.8
89445.7
89305.9
89170.6
89035.4
88892.2
88752.9
88629.5
88513.9
88407.7
88320.9
88250.9
88199
88177.4
88174
88166.1
88168.2
88205.3
88287.4
88408.5
88560.8
88737.9
88932.5
89129.6
89325.2
89516.1
89705.2
89883.2
90037.5
90179.5
90312.8
90451.4
90549
90658.8
90799.6
90742.4
90706
90693.9
90665.8
90630.9
90617.2
90614.3
90639.8
90705.6
90816.4
90948.8
91100.4
91299.4
91516.1
91788
92106.1
92453.7
92794.7
93103.7
92951.7
92953.1
92956.8
92962.3
92969.8
92979.5
92991.1
93004.7
93020.1
93037.4
93056.6
93076
93097.7
93123.9
93151.9
93181.4
93212.6
93245.6
93280.7
93317.9
93357.2
93398.5
93442
93487.6
93535.6
93584.8
93632.2
93681.5
93732.6
93785.1
93838.8
93893.7
93949.5
94005.8
94062.4
94118.8
94174.8
94229.8
94283.5
94335.5
94385.4
94433
94478
94520.2
94559.2
94595
94627.8
94658.1
94686.3
94712.2
94735.8
94757.1
94776.5
94793.8
94809
94822.4
94834.9
94846.5
94857.8
94868.2
94878.2
94888.7
94898.7
94909
94920
94930.9
94942.1
94953.7
94964
94972
94978.4
94982.1
94982.8
94980.8
94975.1
94965.2
94951.8
94935.8
94916.5
94892.6
94862.3
94826.4
94788.1
94745.6
94695.4
94636.4
94567
94487.6
94399.9
94306.6
94190
94078.4
93959.3
93833.6
93704.9
93573
93436.6
93294.8
93150.8
93005.2
92857.4
92708.8
92560.3
92413.9
92269.6
92127.2
91988.2
91849.7
91711.6
91577.4
91449
91326.3
91204.8
91094.3
90984.8
90877.8
90771.3
90668.3
90573.2
90479.2
90390.2
90306.2
90222.7
90143.4
90057.4
89957.6
89858.7
89756.6
89640.8
89526.4
89419.3
89303.4
89181.1
89071.6
88973.4
88885.8
88820
88769.2
88731
88724.3
88743
88751.6
88759.3
88795.7
88875.9
88997.3
89148.9
89323.7
89518.7
89715.2
89906.2
90096.4
90292.4
90466.4
90609.9
90752.5
90885.7
91034.6
91112.7
91212
91338.1
91324.2
91244.3
91204.3
91131.9
91071.9
91038.9
91022
91022.4
91056.2
91137
91257
91396.5
91580.2
91777.6
92039.2
92349.8
92687.9
93030.7
93332.5
93065.1
93066.6
93070.5
93076.5
93085
93095.7
93108.6
93123.4
93140.2
93158.7
93178.5
93200.3
93224.1
93250.2
93278.5
93309.1
93342
93377.2
93414.7
93454.3
93496.1
93540.1
93585.8
93633.1
93681.4
93732.1
93783.2
93836.1
93890.6
93946.8
94004.3
94063.1
94123.1
94183.7
94244.7
94305.6
94366
94425.5
94483.9
94540.6
94595.2
94647.4
94696.9
94743.7
94787.5
94827.8
94864.5
94897.7
94928.2
94956.6
94983.4
95008.3
95030.4
95049.6
95066.8
95082.3
95096.6
95109.6
95122.2
95134.3
95144.9
95154.7
95163
95171.9
95182
95190.7
95199.3
95209.8
95219
95225
95228.9
95229.4
95225.6
95217.8
95206.6
95191.8
95172.5
95149.1
95120.5
95086.5
95046.7
95001.2
94951.3
94896.8
94836.2
94763.1
94679.8
94585.8
94483.4
94373.5
94251.3
94123.1
93989.1
93851.7
93712.8
93571.5
93425.5
93276.1
93125.9
92974.9
92822.9
92671.3
92521
92374
92229.7
92089.3
91954.5
91822.7
91691.7
91563.4
91441.6
91326.1
91217.8
91116.1
91018.1
90926.3
90837.6
90754.2
90677.4
90608.2
90541.3
90484
90426.5
90370.5
90319.2
90252.2
90178.5
90111.3
90032.2
89944.4
89866.1
89783.4
89689.8
89603.1
89523.7
89450.3
89403.3
89375
89354
89361
89402
89432.9
89453.2
89494
89573.7
89694.8
89846.7
90019.2
90211.4
90407.8
90602.9
90805.7
91009.4
91172
91307.1
91434.5
91546.2
91691.4
91777.6
91854.2
91937.8
91973.5
91849.6
91784.6
91666.7
91583.1
91531.2
91500.6
91478.6
91477.8
91516.3
91614.5
91737.7
91900.3
92091
92351.1
92656.9
92972.8
93304
93606.3
93187.5
93189.1
93193
93199.7
93209.2
93220.6
93234.3
93250.2
93266.3
93284.6
93305.9
93330
93356.4
93385
93415.6
93448.5
93483.9
93521.9
93562.5
93605.3
93650
93696.4
93744
93792.4
93842
93894.1
93950.7
94008.1
94067
94127.5
94189.4
94252.6
94316.9
94381.9
94447.4
94513
94578.2
94642.6
94705.7
94767.4
94826.9
94883.9
94938.1
94989.5
95038.2
95083.7
95125.3
95162.7
95196.8
95227.8
95256.7
95284.1
95309.7
95332.3
95351.7
95368.3
95383.5
95397.8
95411.2
95424.4
95436.5
95447.8
95456.7
95463.9
95472.6
95479.1
95484
95492.1
95500.6
95505.1
95505.2
95500.9
95492.6
95481.1
95465.4
95445.1
95418.9
95386.6
95348.5
95304.2
95254.4
95199.2
95137.8
95070.5
94993.7
94909.1
94812.2
94704.2
94586.4
94461.1
94327.2
94183.3
94036
93886.5
93736.8
93585.1
93429.9
93272.8
93115.7
92959.6
92804.4
92650.2
92498.2
92349.8
92202.9
92062.5
91930.7
91805.6
91682.9
91562.4
91449.8
91344.1
91248.7
91159.3
91073.9
90999.3
90928
90866
90808
90765.3
90727.5
90693.5
90668.3
90636
90613.9
90590
90548.4
90512.9
90474.4
90420.3
90374.9
90328.6
90267.1
90213.3
90163.3
90108.3
90077.6
90072.5
90071.3
90092.4
90153.5
90210.9
90250.4
90301.2
90383.8
90504.7
90658
90830.9
91017.6
91214.9
91420.1
91633.8
91829.1
91985
92114.7
92208
92300.6
92430.7
92520.3
92579.3
92629.8
92674.2
92529.9
92429.5
92281.6
92172.7
92096.4
92040
91994.4
91958.7
91951.9
92021
92124.9
92267.4
92461.3
92715.7
93016.6
93300.3
93616.4
93912.1
93317.4
93318.7
93323.3
93330.5
93340.2
93352.4
93366.8
93381.1
93399.4
93420.4
93443.8
93469.8
93498.3
93528.9
93561.8
93597
93635
93675.8
93719.3
93765
93812.9
93862.7
93914
93966.7
94021.1
94077.3
94136.6
94197.7
94260.6
94325.1
94391.1
94458.5
94527.1
94596.8
94667.1
94738
94808.7
94878.6
94947.1
95013.8
95078.3
95140.4
95199.6
95255.6
95308.6
95359
95406.2
95448.7
95486.4
95521.1
95553.5
95583.6
95611.1
95636.2
95658.1
95677
95693.1
95708.2
95721.9
95735.1
95747.2
95758.7
95769.6
95777.8
95786.5
95792.4
95794.1
95798
95803.3
95806.2
95804.5
95796.9
95784.6
95769.7
95749.7
95722.5
95688.2
95646.6
95599.8
95547.2
95487.9
95421.9
95348.9
95269.4
95179.2
95079
94967.6
94845.5
94713.2
94573
94426
94266.6
94105.9
93944
93782.5
93620.5
93457.5
93293.7
93128.9
92965.7
92805.1
92647.1
92492.7
92344.5
92198
92058.3
91929.4
91808.8
91691.6
91579
91475.9
91382.5
91297.7
91222.1
91152.9
91097.7
91048.8
91007.3
90975
90953.2
90950
90941.4
90945.2
90946.1
90951.3
90968.6
90967.8
90968.9
90973.8
90956.7
90947.4
90945.1
90919.2
90897.6
90883.5
90855.2
90843.3
90863.4
90885.3
90922.1
91001.1
91086.6
91150.9
91217.6
91306.6
91429.3
91584.7
91758.2
91943.7
92140
92349.4
92566.3
92749
92895.9
93016.7
93084.5
93174
93280.2
93360.4
93404.4
93413.4
93428.6
93270.2
93134.2
92951.2
92828.3
92728.9
92632.2
92549
92480.3
92437.5
92478.8
92564.4
92698.4
92892.4
93129.7
93408.9
93668.6
93963.3
94250.5
93453.4
93454.5
93459
93466.1
93476
93487.6
93501.6
93520
93540.7
93563.5
93588.7
93616.4
93646.6
93679.4
93714.8
93752.8
93793.9
93837.8
93884.3
93933.4
93984.8
94038.4
94094
94151.5
94210.7
94271.9
94335.4
94400.8
94468
94537
94607.4
94679.3
94752.7
94827.5
94903.2
94979.5
95055.7
95131.2
95205.1
95277
95346.6
95413.7
95478.1
95539.4
95597.2
95651.6
95703.2
95751.2
95794.2
95832.3
95867
95899.6
95930.2
95958.1
95981.8
96002.4
96019.8
96036.5
96051.6
96065
96077.4
96087.4
96097.4
96106.2
96114.8
96122.1
96123.8
96124.4
96125.4
96125.2
96122.9
96114
96098.6
96079.8
96055
96021.1
95979.8
95932.1
95878.2
95817.4
95748.5
95671.3
95585.9
95491
95388.6
95274.8
95149.1
95012.6
94865.6
94709.7
94546
94375.5
94201.4
94026.8
93853.8
93682.4
93512.4
93341.9
93169.1
92997.4
92831.3
92670.3
92515
92368.3
92227.2
92088.5
91962.6
91845
91733.2
91628.7
91535
91452.9
91379.1
91315.6
91265.9
91228.3
91201.4
91180.6
91178.5
91179.2
91203.7
91230.7
91261.1
91298.4
91341.1
91398.8
91440.9
91479
91533
91562.1
91587.8
91630.9
91649.3
91661.7
91686.3
91690.3
91700.1
91746.5
91795.5
91850.5
91947.3
92060.7
92153.2
92241.7
92341.9
92467.6
92625.4
92800.2
92987.3
93182.3
93385.2
93598.8
93769.2
93906.7
94017.1
94067.5
94138.6
94216.4
94270.5
94297.1
94275.1
94245.8
94074.3
93907.6
93697.9
93549.4
93415
93272.2
93139.9
93041.8
92974.3
92991
93056.5
93190.7
93373.4
93576.5
93824.2
94080.8
94349.1
94626.4
93593.4
93594.3
93598.6
93605.7
93615.4
93628.4
93644.2
93662.9
93684.3
93708.6
93735.8
93765.8
93798.5
93834
93872.3
93913.4
93957.5
94004.7
94054.8
94107.7
94163.3
94221.5
94282.4
94345.8
94409.1
94475.2
94543.8
94614.7
94687.4
94761.9
94837.8
94915
94993.4
95073.1
95154
95235.3
95316.4
95396.5
95475.1
95551.9
95626.8
95699.2
95768.7
95835.3
95898.5
95957.6
96013.5
96065.9
96113.3
96155.3
96193.1
96228.2
96260.7
96290.4
96316.6
96339.5
96358.9
96376.5
96393.2
96407.1
96420.7
96431.9
96440.1
96447.3
96454.7
96462.4
96465.4
96464.7
96463.5
96460.8
96457.1
96446.7
96427.4
96405.4
96378.1
96340.6
96294.6
96242.1
96181.6
96112.5
96034
95946
95849
95742.5
95625.8
95497.1
95357.4
95207.2
95045.5
94875.4
94698.3
94514.4
94328.2
94139.4
93956.1
93776.3
93598
93418.5
93237.9
93059.7
92889.6
92726.5
92567.9
92418.1
92278.4
92142.3
92019.2
91909.4
91805.8
91710.1
91627.4
91557.4
91496.7
91448.2
91418.6
91399.8
91392.6
91393.3
91416.4
91448.1
91494
91557.9
91622.8
91697.7
91780.5
91881.2
91972.3
92045.5
92145.8
92231.3
92298.2
92384
92451.5
92504.1
92569.7
92611.1
92647.1
92719.8
92798.6
92875.2
92990.6
93131.7
93253.7
93368.5
93485.9
93617.5
93777.9
93956.6
94141.8
94331.7
94529.9
94729.8
94892.3
95027.6
95130
95161.4
95198.3
95240.2
95255.6
95263.1
95214.5
95120.9
94941.7
94731.7
94506.5
94323.8
94140
93951.9
93781
93648.3
93559.6
93560.1
93605.3
93735.5
93903.6
94047.9
94274.1
94539
94770.3
95060.8
93736.2
93736.6
93740.5
93748.4
93759
93772.4
93788.9
93808.3
93830.9
93856.4
93885.1
93917
93952.1
93990.4
94031.8
94076.3
94123.9
94174.6
94228.4
94285.1
94344.6
94406.5
94470.8
94537.5
94608.3
94682.1
94757.8
94835.5
94915.1
94996.2
95078.5
95161.6
95245.5
95330.4
95416.3
95502.4
95588.1
95672.8
95756
95837.7
95917.9
95996
96071
96142.4
96209.9
96273.3
96332.9
96389.3
96441
96486.6
96527.2
96564.7
96600.7
96632.8
96660.1
96684.2
96706
96724.7
96742.4
96757.3
96770.1
96782.2
96791.4
96797.9
96803.7
96810.4
96813.9
96813.1
96810.5
96806.1
96801.2
96790.9
96768.5
96742.6
96715.7
96678
96628.2
96570.7
96504.8
96427.8
96340.7
96243.6
96136.1
96017.7
95887.6
95744.9
95591.4
95428.8
95256.6
95072.3
94881.6
94685.1
94487.4
94284.1
94091.4
93906.2
93718.4
93529.3
93342.1
93159
92983
92815.1
92651.7
92500.6
92363.2
92234
92115.7
92012.1
91915
91828.6
91759.1
91699.8
91650.7
91622.4
91610.4
91611.1
91623.1
91649.3
91691.8
91753.5
91829.7
91927.1
92032.9
92151.4
92273.8
92412.3
92553.4
92671.9
92814.8
92956.3
93070.6
93198
93314.9
93417.6
93528.6
93611.2
93678.7
93779.1
93888.5
93991.6
94126.2
94293.4
94446.4
94589.1
94729.9
94871.6
95036.2
95221.5
95403.5
95584.6
95783.1
95969.6
96122
96256.7
96349.4
96355.3
96354.2
96356.6
96334.4
96306.5
96204.3
96051.5
95855.3
95604.7
95360.6
95135.5
94906.5
94675.1
94477.9
94302.1
94204.3
94192.7
94214.3
94330.1
94469.2
94546.3
94775.4
95029.8
95244.2
95562.3
93882.1
93882.5
93887.6
93894.5
93904.6
93917.9
93934.6
93954.7
93978.2
94005.2
94035.7
94069.7
94107.3
94148.4
94193.1
94241.2
94292.8
94347.7
94405.7
94466.9
94531.1
94598
94667.5
94739.4
94815.6
94896.2
94978.9
95063.3
95149.5
95236.9
95325.2
95414.2
95504
95594.7
95686
95777.1
95867.7
95957.3
96045.5
96132.4
96217.6
96300.8
96381
96457.3
96529
96595.7
96658.3
96717.6
96772.4
96821.3
96865.7
96906.3
96943.6
96977.9
97007.7
97033.5
97057.3
97077.4
97095.4
97111.5
97124.9
97135.9
97145.7
97153
97157.9
97163.1
97166.4
97165.7
97162.4
97155.9
97149.7
97140.9
97119.2
97088.9
97060.8
97025.6
96975.3
96912.5
96842.1
96759.8
96665.6
96561
96444.5
96315.7
96173.8
96018.3
95851.2
95676
95492
95297.8
95095.2
94887.1
94676.3
94464.6
94259.8
94067.2
93873.1
93678.9
93489.5
93304.1
93121.2
92949.6
92788.3
92641.6
92506.8
92380.4
92266.6
92165.5
92073.7
91996.1
91936.7
91888.8
91851
91843.4
91848.1
91866.9
91896
91947.1
92010.7
92099.1
92213.9
92345.3
92491.8
92656.4
92824.9
92997.1
93179.4
93357.4
93546.5
93735.9
93902.2
94070.8
94230.8
94384.3
94546.8
94678.6
94783.9
94915
95055.4
95187.9
95344.8
95534.8
95720.7
95893
96061
96218.5
96389.9
96582.5
96762.1
96936.9
97127.7
97305.3
97445.4
97568.6
97648.5
97622.6
97585.4
97544.9
97477.3
97390.7
97227.8
97025.6
96803.4
96516.5
96245.4
95975.2
95717.3
95445.8
95214.6
95011.7
94897.5
94849.9
94842.1
94940.7
95028.3
95111.2
95328
95557.9
95794.8
96099.4
94029
94028.7
94032.9
94040.1
94050.5
94064.1
94080.9
94101.3
94125.6
94153.9
94186
94222.2
94262.3
94306.6
94354.8
94407.1
94463.1
94522.7
94585.9
94652.6
94722.5
94795.8
94872.4
94952.2
95035
95119.4
95207.5
95297.5
95389
95481.8
95575.6
95670.8
95766.9
95863.5
95960.3
96056.8
96152.4
96246.8
96340.2
96432.3
96522.6
96610.3
96694.5
96774.5
96849.7
96919.8
96985.2
97046.9
97104.9
97156.8
97203.2
97246.7
97287.1
97323.3
97355.1
97381.8
97406.3
97428.2
97447
97463.1
97477.3
97488.9
97498.5
97506.9
97512.1
97516.6
97518.8
97518
97515.6
97508.2
97500.1
97492.9
97474
97441.7
97411.4
97377.1
97328.4
97263.9
97189.8
97104.6
97004.5
96893.8
96771
96633.6
96482.2
96316.6
96139.2
95953.4
95759.2
95554.7
95341.7
95123.3
94902.5
94681.1
94465.3
94262.4
94062.3
93866.6
93675.1
93488.6
93303.3
93131.6
92973.2
92823.5
92685.2
92557.1
92449.1
92358.7
92275.4
92208.6
92158.6
92122.6
92103.2
92111.6
92133.1
92169.9
92216.9
92286.1
92375.6
92497.7
92650.3
92816.8
93005.8
93212.8
93431.3
93640.4
93858.1
94097
94329.9
94556.5
94775
94991.1
95197.5
95397.8
95606.1
95788.7
95941.1
96109
96282.7
96448.5
96631.3
96842.3
97059.3
97267
97465.6
97645.9
97825.9
98023
98202.5
98375.7
98547.6
98710.2
98835.2
98938.6
98997.4
98943.7
98877.2
98783.1
98657.6
98509.6
98288.6
98033.5
97774.9
97451.2
97145.7
96840.1
96559
96244.1
95971.5
95759.4
95588.3
95500.9
95485.6
95565.9
95627.3
95733.4
95928.2
96141.8
96383.6
96666.7
94180.1
94179.7
94183.3
94189.6
94199
94211.9
94228.4
94248.9
94273.5
94302.4
94335.9
94373.7
94416.1
94463.2
94515
94571.4
94632.3
94697.2
94766.1
94838.6
94914.7
94994.3
95077.2
95163.3
95252.7
95344.6
95438.1
95533.6
95630.9
95729.7
95829.9
95931.2
96033.2
96135.2
96236.9
96338.3
96439.1
96538.8
96637.4
96734.6
96829.4
96921
97008.6
97091.1
97168.4
97241.2
97310.2
97375.1
97434.8
97489.4
97538.9
97584.4
97626
97663.2
97697
97725.9
97750.9
97773.3
97792.7
97809.3
97823.4
97835.8
97845.1
97853.8
97859.8
97865.2
97868.5
97866.8
97864.7
97859
97849.1
97842.2
97829.4
97797.9
97763.3
97731
97684.9
97620.7
97544
97458.4
97356.2
97239.1
97111.9
96970.6
96812.2
96638.5
96453.1
96259
96056.5
95844.1
95623.4
95396.9
95167.9
94938.3
94713.7
94499.4
94293.5
94095.8
93897.5
93706.2
93521
93350.7
93188.8
93034.3
92900.8
92782.7
92686.2
92606.4
92531.2
92473.4
92437.7
92408.1
92408.6
92430.4
92467.6
92519.9
92583.4
92671.6
92791.9
92952.8
93139
93345
93577.5
93817.5
94078.2
94325.5
94580.8
94867.7
95140
95401.1
95669.5
95935.2
96193.8
96447.8
96697.6
96921.4
97126.2
97335.6
97547
97752.3
97964.1
98198.3
98443.4
98688.5
98922.4
99132.4
99324.7
99518.4
99701.8
99874.3
100023
100169
100272
100350
100368
100293
100201
100046
99864.5
99645.7
99354.7
99052.2
98749.8
98391.3
98058
97723.5
97407
97054.4
96758
96525.7
96296.4
96200.3
96188.7
96232.8
96290
96408.1
96571.3
96772.8
96999.1
97270.9
94339.4
94338.6
94340.1
94344
94351.2
94362.4
94377.8
94397.7
94422.1
94451.5
94485.5
94524.5
94569
94619
94674.5
94735.2
94800.6
94870.6
94944.9
95023.2
95105.5
95191.4
95280.8
95373.5
95469.1
95567.1
95667.3
95769.7
95873.6
95978.7
96085.1
96192.1
96298.7
96405.5
96512.5
96619.2
96725.2
96830.4
96934.2
97035.9
97134.6
97229.1
97318.9
97403.6
97483.2
97558.6
97629.8
97696.5
97758.1
97814.7
97866.6
97914.2
97957.9
97996.4
98029.8
98059.3
98085.4
98108.6
98128.7
98146.3
98160.4
98173.6
98183.6
98192.5
98199.3
98204.7
98210.5
98210.2
98207.7
98204.4
98194.5
98184.7
98177.4
98155
98115.8
98082.1
98041.7
97981
97903.2
97816.9
97717.1
97597.3
97464.6
97321.4
97161.9
96984.3
96792.4
96592
96383.2
96164.7
95938.5
95707.5
95473.5
95237.6
95005.2
94781.8
94569
94372
94169.4
93976.2
93791.6
93621.8
93461.3
93312
93191.2
93080.2
92985.4
92905.7
92837.4
92788.3
92769.5
92750.2
92763.2
92799.1
92851.1
92914.8
92994.6
93107.2
93261.1
93457
93672.6
93918.3
94182.9
94450
94742.9
95023
95318.5
95647.4
95961.1
96263.3
96585.2
96900.3
97204.8
97512.5
97799.9
98060.3
98318
98570.2
98824.4
99074.5
99320
99580.6
99854.2
100133
100406
100650
100865
101051
101239
101414
101537
101666
101736
101772
101733
101643
101526
101309
101062
100760
100405
100060
99715.2
99325.5
98965.1
98601.9
98246.9
97870.1
97569.6
97316.5
97066.1
96979.9
96961.4
96936.9
97001.6
97126.5
97255
97438
97636.8
97905.4
94508.3
94507.1
94508.4
94510.8
94515.8
94522.7
94533
94548.8
94573.7
94602.5
94635.6
94675.1
94721.5
94774.6
94833.9
94898.9
94969
95044
95123.5
95207.2
95295.1
95386.8
95482.4
95581.4
95683.3
95787.9
95894.7
96003.4
96113.5
96224.3
96336
96448
96560.1
96673
96786.6
96899.2
97010.4
97120
97228.2
97333.3
97434
97530
97621.8
97709.1
97791.1
97868.1
97940.7
98008.7
98071.9
98130.3
98184.2
98233.2
98277.3
98316.6
98350.8
98380.9
98407.4
98430.9
98451.2
98469.6
98484.7
98498.2
98509.8
98519.5
98527.8
98532.5
98539.3
98542.7
98540.9
98539.7
98533.6
98521.8
98513.9
98502.8
98468.9
98429.1
98393.1
98340
98265.1
98177.8
98080.8
97964.6
97829.1
97683.5
97526.5
97349.8
97155.2
96950.9
96738.7
96515.9
96285.5
96051.9
95816.2
95577.9
95341.5
95111.7
94892
94687.1
94488.7
94298
94115.8
93944.9
93788.7
93647.9
93524.4
93403.8
93310.8
93237.8
93178.6
93148.4
93143
93135.9
93163.6
93211.5
93275.1
93350.7
93448.5
93587.9
93770.4
93993.2
94236.1
94511.6
94795.8
95097.6
95421.3
95736.3
96071.7
96437.2
96791.3
97137.7
97512.9
97872.5
98220.2
98574.1
98886.4
99182.6