/*--------------------------------*- C++ -*----------------------------------*\
| =========                 |                                                 |
| \\      /  F ield         | OpenFOAM: The Open Source CFD Toolbox           |
|  \\    /   O peration     | Version:  dev                                   |
|   \\  /    A nd           | Web:      http://www.openfoam.org               |
|    \\/     M anipulation  |                                                 |
\*---------------------------------------------------------------------------*/
FoamFile
{
    version     2.0;
    format      ascii;
    class       surfaceScalarField;
    object      phi;
    location    "9.131";
}
// * * * * * * * * * * * * * * * * * * * * * * * * * * * * * * * * * * * * * //

dimensions      [1 0 -1 0 0 0 0];

internalField   nonuniform List<scalar> 
24170
(
1.51351e-06
2.45101e-06
-1.89862e-08
1.96628e-06
-9.80116e-07
1.39118e-06
-1.61459e-06
1.07148e-06
-2.26965e-06
1.10582e-06
-2.55139e-06
7.45298e-07
-3.21766e-06
1.14785e-06
-3.18811e-06
4.61239e-07
-3.8738e-06
1.18263e-06
-3.74279e-06
3.65325e-07
-4.33754e-06
1.09152e-06
-4.09616e-06
2.50376e-07
-4.50328e-06
8.90238e-07
-3.77195e-06
-2.61963e-07
-2.69678e-06
-6.22624e-07
1.60141e-06
-3.86941e-06
2.66932e-06
-6.29071e-07
7.22141e-06
-4.1315e-06
3.01629e-06
3.61227e-06
1.63754e-06
3.81994e-06
4.95427e-07
3.00142e-06
-5.9499e-07
2.63861e-06
-1.31765e-06
2.31976e-06
-2.08972e-06
2.02571e-06
-2.76942e-06
2.35291e-06
-3.04918e-06
1.2812e-06
-3.72915e-06
2.40167e-06
-3.70877e-06
8.9021e-07
-4.43285e-06
2.35041e-06
-4.21043e-06
5.64937e-07
-5.15534e-06
2.35668e-06
-4.92304e-06
1.93357e-09
-5.16969e-06
1.0877e-07
-3.66039e-06
-4.9247e-06
-2.48434e-06
-1.35177e-06
1.04727e-05
-5.29519e-06
3.77169e-06
4.5896e-06
2.73647e-06
5.36969e-06
1.85787e-06
4.38702e-06
8.28346e-07
4.18474e-06
1.1693e-07
3.56421e-06
-9.92321e-07
3.68495e-06
-1.53202e-06
3.46399e-06
-2.02842e-06
2.36706e-06
-2.63671e-06
3.59877e-06
-2.49328e-06
1.34285e-06
-3.33405e-06
3.78236e-06
-2.90334e-06
7.19037e-07
-4.06431e-06
4.10223e-06
-3.63947e-06
1.32033e-07
-5.20637e-06
2.21395e-06
-5.89543e-06
-3.70839e-06
-5.69776e-06
-1.0552e-06
1.2705e-05
-7.45328e-06
4.02618e-06
5.72751e-06
3.26422e-06
6.68874e-06
2.65703e-06
5.54755e-06
1.81e-06
5.59047e-06
1.00641e-06
4.95014e-06
3.7378e-07
4.90941e-06
-3.66162e-07
4.82588e-06
-8.01546e-07
3.43842e-06
-1.56327e-06
5.00136e-06
-1.63625e-06
2.05723e-06
-2.34991e-06
5.13992e-06
-2.12285e-06
1.12757e-06
-2.56041e-06
5.16999e-06
-2.10578e-06
2.87241e-07
-3.43237e-06
4.14871e-06
-5.29831e-06
-1.27694e-06
-8.304e-06
2.50561e-06
1.33179e-05
-8.39193e-06
4.39332e-06
7.03778e-06
3.86144e-06
7.82228e-06
2.90191e-06
7.10664e-06
2.65255e-06
6.44305e-06
1.54376e-06
6.69276e-06
1.31487e-06
5.77846e-06
3.82897e-07
6.43327e-06
-1.30914e-07
4.64608e-06
-8.90723e-07
6.45566e-06
-1.32257e-06
3.1836e-06
-1.85872e-06
6.37336e-06
-2.29903e-06
2.26253e-06
-2.40056e-06
5.9455e-06
-2.83593e-06
1.39004e-06
-3.52025e-06
5.48005e-06
-5.28496e-06
1.11116e-06
-9.00591e-06
6.8549e-06
1.3334e-05
-8.44436e-06
4.33483e-06
8.9036e-06
4.47493e-06
8.32452e-06
2.91564e-06
9.30586e-06
2.78969e-06
7.21908e-06
1.70903e-06
8.45336e-06
1.15938e-06
7.01979e-06
4.16752e-07
7.90629e-06
-1.44796e-07
5.95916e-06
-8.47798e-07
7.91611e-06
-1.37141e-06
4.46023e-06
-1.9951e-06
7.76187e-06
-2.91992e-06
3.94072e-06
-3.10254e-06
6.87667e-06
-4.05021e-06
3.06416e-06
-4.95365e-06
7.08273e-06
-6.03379e-06
2.88311e-06
-9.52224e-06
1.10113e-05
1.27327e-05
-8.26935e-06
4.96437e-06
1.08924e-05
4.70008e-06
9.26789e-06
2.9856e-06
1.16976e-05
2.79692e-06
8.09706e-06
1.41739e-06
1.05536e-05
9.65775e-07
8.21089e-06
2.27579e-07
9.41896e-06
-4.85229e-07
7.47876e-06
-1.26005e-06
9.50388e-06
-1.82811e-06
5.84337e-06
-2.54962e-06
9.3019e-06
-3.4104e-06
5.61248e-06
-3.93371e-06
8.21242e-06
-5.10145e-06
5.01798e-06
-6.1083e-06
8.86963e-06
-6.6566e-06
4.18289e-06
-8.14076e-06
1.32328e-05
9.87681e-06
-4.56479e-06
4.0771e-06
1.21969e-05
3.40976e-06
1.0436e-05
2.41552e-06
1.31957e-05
2.04733e-06
8.9761e-06
9.29791e-07
1.22118e-05
7.17184e-07
8.97956e-06
-8.48296e-08
1.08016e-05
-5.25522e-07
8.52409e-06
-1.03191e-06
1.06268e-05
-1.50857e-06
6.93359e-06
-1.90181e-06
1.03183e-05
-2.26431e-06
6.58724e-06
-2.67211e-06
9.22494e-06
-3.12785e-06
6.07541e-06
-3.93047e-06
1.02547e-05
-5.07631e-06
5.90247e-06
-3.77526e-06
1.25071e-05
9.73973e-06
-3.09132e-06
4.7259e-06
1.37265e-05
3.79106e-06
1.19205e-05
2.672e-06
1.48699e-05
2.02714e-06
1.01863e-05
8.39458e-07
1.40034e-05
4.82585e-07
9.9567e-06
-3.65882e-07
1.23004e-05
-8.11481e-07
9.64133e-06
-1.24325e-06
1.17537e-05
-1.86128e-06
8.24262e-06
-2.07766e-06
1.12436e-05
-2.45458e-06
7.65678e-06
-2.7521e-06
1.02062e-05
-3.28057e-06
7.28468e-06
-3.61999e-06
1.12568e-05
-4.6749e-06
7.60755e-06
-3.15913e-06
1.16272e-05
1.07245e-05
-3.52919e-06
5.63564e-06
1.52809e-05
4.25989e-06
1.38875e-05
3.16637e-06
1.65544e-05
2.08145e-06
1.18842e-05
1.10887e-06
1.5625e-05
3.32701e-07
1.1412e-05
-3.7174e-07
1.37162e-05
-9.98553e-07
1.10063e-05
-1.4791e-06
1.2993e-05
-2.21417e-06
9.7516e-06
-2.41362e-06
1.22236e-05
-3.08826e-06
9.10758e-06
-3.31834e-06
1.12047e-05
-4.32599e-06
9.04867e-06
-4.21182e-06
1.19024e-05
-4.96333e-06
9.08845e-06
-4.13208e-06
1.14988e-05
1.16105e-05
-4.32293e-06
6.77685e-06
1.69026e-05
5.15016e-06
1.61236e-05
4.06315e-06
1.8247e-05
2.51291e-06
1.40758e-05
1.67267e-06
1.71387e-05
5.60421e-07
1.32475e-05
-3.29951e-07
1.53653e-05
-1.10486e-06
1.2569e-05
-1.59381e-06
1.42928e-05
-2.51804e-06
1.15191e-05
-2.68692e-06
1.32324e-05
-3.56265e-06
1.08343e-05
-3.78501e-06
1.22666e-05
-4.70341e-06
1.07933e-05
-4.44125e-06
1.24615e-05
-5.07738e-06
1.05333e-05
-4.52733e-06
1.17324e-05
1.20297e-05
-4.17641e-06
7.79716e-06
1.88067e-05
5.92998e-06
1.85733e-05
4.74774e-06
2.00098e-05
2.96451e-06
1.64877e-05
2.09948e-06
1.86706e-05
6.44512e-07
1.54341e-05
-2.27863e-07
1.70103e-05
-1.31467e-06
1.44656e-05
-1.83334e-06
1.56535e-05
-2.87531e-06
1.34516e-05
-3.09194e-06
1.43341e-05
-3.97814e-06
1.26276e-05
-4.23083e-06
1.34119e-05
-4.90496e-06
1.23586e-05
-4.54675e-06
1.29752e-05
-5.16117e-06
1.20211e-05
-4.8471e-06
1.22721e-05
1.24828e-05
-4.46499e-06
9.01735e-06
2.04857e-05
6.92048e-06
2.11462e-05
5.49109e-06
2.19184e-05
3.48263e-06
1.90445e-05
2.43102e-06
2.03187e-05
7.76043e-07
1.77695e-05
-9.28909e-08
1.86087e-05
-1.41936e-06
1.65794e-05
-2.04698e-06
1.71119e-05
-3.16721e-06
1.54607e-05
-3.54464e-06
1.5607e-05
-4.494e-06
1.4499e-05
-4.64974e-06
1.44862e-05
-5.20587e-06
1.38373e-05
-5.11609e-06
1.3795e-05
-5.33587e-06
1.31544e-05
-5.16457e-06
1.29982e-05
1.27689e-05
-4.56997e-06
1.05493e-05
2.27872e-05
7.9111e-06
2.4031e-05
6.20403e-06
2.38839e-05
3.87585e-06
2.17238e-05
2.57472e-06
2.20379e-05
7.27105e-07
2.01444e-05
-3.22706e-07
2.02599e-05
-1.75603e-06
1.86811e-05
-2.45879e-06
1.85542e-05
-3.56453e-06
1.7375e-05
-4.13037e-06
1.70095e-05
-4.95538e-06
1.61932e-05
-5.30227e-06
1.57171e-05
-5.74382e-06
1.51751e-05
-5.77304e-06
1.4721e-05
-5.8998e-06
1.41819e-05
-5.73588e-06
1.373e-05
1.32914e-05
-5.36917e-06
1.21688e-05
2.4948e-05
9.25904e-06
2.67502e-05
7.05258e-06
2.5933e-05
4.42165e-06
2.43135e-05
2.7003e-06
2.3818e-05
6.81934e-07
2.23593e-05
-5.64481e-07
2.18111e-05
-2.07161e-06
2.05914e-05
-3.02718e-06
2.00161e-05
-4.16556e-06
1.91084e-05
-4.88872e-06
1.83894e-05
-5.64889e-06
1.76583e-05
-6.16751e-06
1.69772e-05
-6.53113e-06
1.6306e-05
-6.71071e-06
1.56905e-05
-6.76676e-06
1.50412e-05
-6.63867e-06
1.44132e-05
1.38415e-05
-6.37231e-06
1.39185e-05
2.68155e-05
1.06357e-05
2.90736e-05
7.88703e-06
2.77908e-05
5.06641e-06
2.63954e-05
2.93569e-06
2.53641e-05
7.78207e-07
2.41104e-05
-8.5112e-07
2.31921e-05
-2.5683e-06
2.22095e-05
-3.88216e-06
2.13709e-05
-5.09943e-06
2.04897e-05
-6.0603e-06
1.96146e-05
-6.82262e-06
1.87678e-05
-7.37139e-06
1.79444e-05
-7.73527e-06
1.71427e-05
-7.90495e-06
1.63819e-05
-7.93278e-06
1.56287e-05
-7.82069e-06
1.48957e-05
1.42393e-05
-7.59831e-06
1.63268e-05
2.78393e-05
1.28492e-05
3.02996e-05
9.68733e-06
2.88272e-05
6.6107e-06
2.75536e-05
3.84435e-06
2.64411e-05
1.23642e-06
2.52709e-05
-9.99634e-07
2.42161e-05
-2.95605e-06
2.31626e-05
-4.57315e-06
2.21909e-05
-5.91611e-06
2.12187e-05
-7.04118e-06
2.02832e-05
-7.92413e-06
1.93336e-05
-8.60882e-06
1.84314e-05
-9.12607e-06
1.75687e-05
-9.47278e-06
1.67287e-05
-9.66288e-06
1.58996e-05
-9.72033e-06
1.51034e-05
1.43872e-05
-9.65576e-06
1.61255e-05
2.8006e-05
1.25666e-05
3.01826e-05
9.31909e-06
2.85853e-05
6.26621e-06
2.73757e-05
3.46231e-06
2.62997e-05
9.15467e-07
2.51659e-05
-1.28739e-06
2.40576e-05
-3.18869e-06
2.29627e-05
-4.75442e-06
2.19147e-05
-6.07121e-06
2.0926e-05
-7.18451e-06
1.99974e-05
-8.14654e-06
1.90863e-05
-8.95609e-06
1.81993e-05
-9.62015e-06
1.73485e-05
-1.01412e-05
1.64991e-05
-1.05201e-05
1.56525e-05
-1.07579e-05
1.48256e-05
1.40583e-05
-1.08437e-05
1.4343e-05
2.67572e-05
1.12007e-05
2.87826e-05
8.25039e-06
2.72007e-05
5.52467e-06
2.60535e-05
3.06536e-06
2.50139e-05
8.42064e-07
2.39528e-05
-1.131e-06
2.28997e-05
-2.87728e-06
2.1846e-05
-4.38161e-06
2.0831e-05
-5.6699e-06
1.98766e-05
-6.75242e-06
1.89737e-05
-7.66176e-06
1.80991e-05
-8.423e-06
1.72586e-05
-9.02932e-06
1.64324e-05
-9.50848e-06
1.56176e-05
-9.88155e-06
1.48111e-05
-1.01437e-05
1.40081e-05
1.32598e-05
-1.0303e-05
1.28149e-05
2.4794e-05
1.01677e-05
2.63465e-05
7.54204e-06
2.49757e-05
5.07378e-06
2.39679e-05
2.82287e-06
2.3016e-05
7.65866e-07
2.20677e-05
-1.07243e-06
2.11043e-05
-2.6884e-06
2.01002e-05
-4.09707e-06
1.91554e-05
-5.31793e-06
1.82725e-05
-6.35858e-06
1.7427e-05
-7.22903e-06
1.66039e-05
-7.92678e-06
1.57989e-05
-8.4782e-06
1.50177e-05
-8.91439e-06
1.42672e-05
-9.25074e-06
1.35203e-05
-9.50301e-06
1.27852e-05
1.20948e-05
-9.67687e-06
1.15704e-05
2.22733e-05
9.09925e-06
2.35117e-05
6.78813e-06
2.22152e-05
4.68651e-06
2.12861e-05
2.7706e-06
2.04433e-05
1.00293e-06
1.96412e-05
-6.21282e-07
1.88253e-05
-2.1444e-06
1.79933e-05
-3.50099e-06
1.71509e-05
-4.68118e-06
1.63453e-05
-5.68223e-06
1.55591e-05
-6.52236e-06
1.47989e-05
-7.22707e-06
1.40685e-05
-7.77553e-06
1.33282e-05
-8.2299e-06
1.26676e-05
-8.59361e-06
1.19997e-05
-8.88353e-06
1.13476e-05
1.07345e-05
-9.10366e-06
1.03745e-05
1.94314e-05
8.13215e-06
2.04673e-05
6.06298e-06
1.9213e-05
4.17904e-06
1.83714e-05
2.44367e-06
1.76584e-05
8.65578e-07
1.69784e-05
-5.67383e-07
1.62865e-05
-1.85841e-06
1.55763e-05
-3.00147e-06
1.4839e-05
-4.0044e-06
1.41357e-05
-4.88977e-06
1.34633e-05
-5.66267e-06
1.28089e-05
-6.33342e-06
1.21821e-05
-6.9363e-06
1.15694e-05
-7.42324e-06
1.09749e-05
-7.82558e-06
1.0394e-05
-8.15256e-06
9.82408e-06
9.28801e-06
-8.40827e-06
9.09555e-06
1.62955e-05
7.31522e-06
1.71298e-05
5.53376e-06
1.60794e-05
3.89101e-06
1.5352e-05
2.3842e-06
1.47611e-05
9.93237e-07
1.4221e-05
-3.06962e-07
1.36913e-05
-1.50281e-06
1.31221e-05
-2.59862e-06
1.25212e-05
-3.57803e-06
1.193e-05
-4.43523e-06
1.13535e-05
-5.18323e-06
1.07978e-05
-5.82954e-06
1.02674e-05
-6.38189e-06
9.7482e-06
-6.81479e-06
9.21211e-06
-7.16613e-06
8.71546e-06
-7.44934e-06
8.23295e-06
7.77218e-06
-7.66383e-06
8.12787e-06
1.31287e-05
6.68911e-06
1.37265e-05
5.15881e-06
1.29602e-05
3.67169e-06
1.24219e-05
2.28912e-06
1.19615e-05
1.00019e-06
1.15615e-05
-1.94055e-07
1.11672e-05
-1.27636e-06
1.07093e-05
-2.25335e-06
1.02218e-05
-3.10081e-06
9.71242e-06
-3.82586e-06
9.21782e-06
-4.45346e-06
8.75967e-06
-4.99266e-06
8.32707e-06
-5.45725e-06
7.91013e-06
-5.8809e-06
7.50058e-06
-6.23764e-06
7.09462e-06
-6.52205e-06
6.68728e-06
6.32014e-06
-6.76207e-06
7.34125e-06
1.02587e-05
6.02215e-06
1.05473e-05
4.69238e-06
9.96912e-06
3.37314e-06
9.63057e-06
2.12727e-06
9.30882e-06
9.70476e-07
9.03104e-06
-4.96315e-08
8.70836e-06
-9.83585e-07
8.3668e-06
-1.8147e-06
7.97695e-06
-2.5441e-06
7.56046e-06
-3.18604e-06
7.16657e-06
-3.75464e-06
6.81595e-06
-4.25782e-06
6.4902e-06
-4.70482e-06
6.18131e-06
-5.1039e-06
5.87883e-06
-5.45081e-06
5.567e-06
-5.74955e-06
5.24875e-06
4.96094e-06
-5.9993e-06
6.61462e-06
7.51142e-06
5.50686e-06
7.53087e-06
4.34353e-06
7.16824e-06
3.20807e-06
6.99116e-06
2.13368e-06
6.79894e-06
1.12167e-06
6.64848e-06
2.01536e-07
6.42253e-06
-6.53979e-07
6.20066e-06
-1.4498e-06
5.93265e-06
-2.18374e-06
5.63094e-06
-2.86419e-06
5.3543e-06
-3.47673e-06
5.10037e-06
-4.01288e-06
4.85601e-06
-4.48394e-06
4.63217e-06
-4.88172e-06
4.39909e-06
-5.22326e-06
4.16532e-06
-5.52012e-06
3.92875e-06
3.70136e-06
-5.7592e-06
6.0033e-06
4.90282e-06
5.02454e-06
4.7645e-06
3.96884e-06
4.62265e-06
2.92877e-06
4.59977e-06
1.91449e-06
4.55265e-06
9.56363e-07
4.51672e-06
7.50634e-08
4.3831e-06
-7.46771e-07
4.26826e-06
-1.509e-06
4.10423e-06
-2.23288e-06
3.92324e-06
-2.91808e-06
3.76184e-06
-3.55573e-06
3.60868e-06
-4.12813e-06
3.44153e-06
-4.62624e-06
3.27952e-06
-5.07628e-06
3.12779e-06
-5.46501e-06
2.95512e-06
-5.80078e-06
2.78086e-06
2.61863e-06
-6.0937e-06
5.39333e-06
2.6993e-06
4.49259e-06
2.29072e-06
3.44395e-06
2.42408e-06
2.3359e-06
2.61184e-06
1.21384e-06
2.73115e-06
1.54986e-07
2.78406e-06
-8.51445e-07
2.74872e-06
-1.77437e-06
2.69916e-06
-2.63768e-06
2.62182e-06
-3.43096e-06
2.51382e-06
-4.15939e-06
2.42639e-06
-4.81419e-06
2.33389e-06
-5.39836e-06
2.22537e-06
-5.93176e-06
2.13617e-06
-6.37164e-06
2.00863e-06
-6.77442e-06
1.91018e-06
-7.12801e-06
1.79162e-06
1.69633e-06
-7.4506e-06
4.79401e-06
5.62161e-07
3.43836e-06
6.23294e-07
1.9625e-06
9.8735e-07
5.63648e-07
1.23105e-06
-7.39539e-07
1.38964e-06
-1.90907e-06
1.4443e-06
-2.95571e-06
1.42151e-06
-3.87184e-06
1.37609e-06
-4.68441e-06
1.32816e-06
-5.4113e-06
1.26475e-06
-6.03974e-06
1.20512e-06
-6.58932e-06
1.15552e-06
-7.07513e-06
1.10002e-06
-7.49059e-06
1.05179e-06
-7.86632e-06
9.90178e-07
-8.19032e-06
9.39576e-07
-8.47039e-06
8.70949e-07
7.99344e-07
-8.68791e-06
2.82e-06
7.0845e-07
-9.23899e-07
-2.18754e-06
-3.16705e-06
-3.96698e-06
-4.66616e-06
-5.28941e-06
-5.84173e-06
-6.34159e-06
-6.78904e-06
-7.1782e-06
-7.51941e-06
-7.81017e-06
-8.06889e-06
-8.28995e-06
-8.49756e-06
-8.70085e-06
3.36503e-07
-7.20297e-07
6.56317e-07
-7.21735e-07
9.60144e-07
-7.16185e-07
1.27456e-06
-7.32299e-07
1.58956e-06
-7.35969e-07
1.89327e-06
-7.26232e-07
2.19172e-06
-7.21589e-07
2.48255e-06
-7.14347e-07
2.76763e-06
-7.09081e-07
3.06685e-06
-7.23996e-07
3.39365e-06
-7.52339e-07
3.73088e-06
-7.63633e-07
4.07621e-06
-7.72236e-07
4.40633e-06
-7.56634e-07
4.63632e-06
-6.54948e-07
4.75861e-06
-5.45362e-07
4.88952e-06
-5.52983e-07
4.99317e-06
-5.29089e-07
4.93398e-06
-3.68106e-07
4.68959e-06
-1.6915e-07
4.38771e-06
-9.32158e-08
4.10853e-06
-1.11705e-07
3.79547e-06
-7.89559e-08
3.45632e-06
-5.02971e-08
3.10225e-06
-3.32229e-08
2.73324e-06
-1.71508e-08
2.37949e-06
-3.13662e-08
2.05983e-06
-6.46859e-08
1.7926e-06
-1.16591e-07
1.6056e-06
-1.97258e-07
1.50851e-06
-2.89002e-07
1.50195e-06
-3.82123e-07
1.58676e-06
-4.77095e-07
1.75572e-06
-5.65717e-07
2.00767e-06
-6.54048e-07
2.33521e-06
-7.35796e-07
2.742e-06
-8.22455e-07
3.22225e-06
-9.04164e-07
3.77075e-06
-9.81533e-07
4.38661e-06
-1.05901e-06
5.05857e-06
-1.12603e-06
5.78003e-06
-1.18746e-06
6.54683e-06
-1.24549e-06
7.35188e-06
-1.29711e-06
8.19057e-06
-1.34487e-06
9.07531e-06
-1.4057e-06
9.9811e-06
-1.44192e-06
1.08935e-05
-1.46442e-06
1.17858e-05
-1.46148e-06
1.26416e-05
-1.44344e-06
1.34564e-05
-1.4218e-06
1.42473e-05
-1.41764e-06
1.50478e-05
-1.44706e-06
1.58406e-05
-1.45832e-06
1.66008e-05
-1.44566e-06
1.73285e-05
-1.43589e-06
1.80475e-05
-1.45278e-06
1.87003e-05
-1.41496e-06
1.9265e-05
-1.35638e-06
1.97752e-05
-1.3316e-06
2.02996e-05
-1.37593e-06
2.08198e-05
-1.40484e-06
2.12576e-05
-1.35794e-06
2.1579e-05
-1.27565e-06
2.18394e-05
-1.24444e-06
2.21459e-05
-1.3172e-06
2.2529e-05
-1.42236e-06
2.28771e-05
-1.42449e-06
2.31046e-05
-1.3532e-06
2.31553e-05
-1.22488e-06
2.30532e-05
-1.10922e-06
2.28875e-05
-1.08539e-06
2.27279e-05
-1.14875e-06
2.25041e-05
-1.14562e-06
2.21097e-05
-1.01631e-06
2.15078e-05
-8.41231e-07
2.07645e-05
-7.45414e-07
1.99686e-05
-7.62574e-07
1.92371e-05
-9.29933e-07
1.84992e-05
-1.04422e-06
1.7755e-05
-1.11852e-06
1.73351e-05
-1.46946e-06
1.71296e-05
-1.72021e-06
1.66527e-05
-1.45805e-06
1.60615e-05
-1.33362e-06
1.57724e-05
-1.66224e-06
1.58722e-05
-2.07126e-06
1.59787e-05
-2.11798e-06
1.5793e-05
-1.92001e-06
1.53435e-05
-1.78215e-06
1.46158e-05
-1.55585e-06
1.3418e-05
-1.00305e-06
1.14687e-05
-1.23681e-07
8.80092e-06
6.42493e-07
5.73147e-06
1.08015e-06
2.63167e-06
1.14514e-06
-2.23359e-07
8.73254e-07
-2.49619e-06
2.8219e-07
-4.22775e-06
-2.59803e-07
-5.83927e-06
-4.08476e-07
-7.50298e-06
-3.78305e-07
-9.00524e-06
-5.08681e-07
-9.86209e-06
-1.07913e-06
-9.7934e-06
-1.97657e-06
-8.93051e-06
-2.84586e-06
-7.65454e-06
-3.37356e-06
-6.44891e-06
-3.37738e-06
-5.69163e-06
-2.97732e-06
-5.58916e-06
-2.4098e-06
-5.96948e-06
-1.99336e-06
-5.45337e-06
-2.73474e-06
-3.71979e-06
-3.92947e-06
-1.27096e-06
-4.76162e-06
2.30184e-07
-3.89734e-06
1.93289e-06
-4.11878e-06
3.36172e-06
-3.91357e-06
4.94216e-06
-4.11605e-06
6.47703e-06
-4.12747e-06
7.99451e-06
-4.18119e-06
9.32114e-06
-4.08451e-06
1.04779e-05
-4.00969e-06
1.15705e-05
-4.03727e-06
1.25572e-05
-4.03102e-06
1.32788e-05
-3.88041e-06
1.38362e-05
-3.83701e-06
1.42299e-05
-3.80897e-06
1.45334e-05
-3.86561e-06
1.47853e-05
-3.96814e-06
1.49326e-05
-4.03522e-06
1.50509e-05
-4.19737e-06
1.49958e-05
-4.21151e-06
1.48835e-05
-4.32942e-06
1.48102e-05
-4.54862e-06
1.47432e-05
-4.73796e-06
1.47025e-05
-4.94462e-06
1.47066e-05
-5.16044e-06
1.48449e-05
-5.46747e-06
1.49714e-05
-5.60252e-06
1.51426e-05
-5.75869e-06
1.53697e-05
-5.91371e-06
1.56462e-05
-6.08123e-06
1.58468e-05
-6.15383e-06
1.58615e-05
-6.10188e-06
1.57113e-05
-6.04304e-06
1.54144e-05
-5.98512e-06
1.50166e-05
-5.9886e-06
1.47589e-05
-6.32459e-06
1.46451e-05
-6.72934e-06
1.47132e-05
-7.13916e-06
1.48004e-05
-7.34877e-06
1.40235e-05
-6.66995e-06
1.14521e-05
-5.01432e-06
7.245e-06
-3.59338e-06
2.34343e-06
-3.28004e-06
-2.27421e-06
-4.06049e-06
-5.58611e-06
-5.90656e-06
-7.43002e-06
-7.83891e-06
-8.45272e-06
-9.053e-06
-9.51707e-06
-9.36315e-06
-1.01703e-05
-1.00246e-05
-1.10935e-05
-9.86343e-06
-1.25957e-05
-9.15874e-06
-1.3314e-05
-9.90424e-06
-1.29034e-05
-1.09935e-05
-1.00344e-05
-1.3167e-05
-8.97463e-06
-1.14001e-05
-9.58295e-06
-9.39103e-06
-1.08966e-05
-8.28748e-06
-1.21313e-05
-7.94242e-06
-1.3251e-05
-7.59381e-06
-1.4071e-05
-7.41324e-06
-1.50815e-05
-6.68722e-06
-1.60653e-05
-6.22343e-06
-1.69557e-05
-5.84057e-06
-1.73474e-05
-5.94068e-06
-1.7226e-05
-6.08425e-06
-1.65453e-05
-6.3407e-06
-1.54853e-05
-6.43013e-06
-1.43047e-05
-6.30019e-06
-5.89401e-06
-1.33118e-05
2.69154e-07
-1.35433e-06
5.01362e-07
-1.33993e-06
6.81364e-07
-1.29403e-06
8.48241e-07
-1.30279e-06
1.03872e-06
-1.33064e-06
1.24715e-06
-1.34144e-06
1.49928e-06
-1.38687e-06
1.80659e-06
-1.43997e-06
2.13627e-06
-1.45667e-06
2.464e-06
-1.46471e-06
2.66717e-06
-1.36102e-06
2.68684e-06
-1.18604e-06
2.55869e-06
-1.04926e-06
2.36078e-06
-9.67339e-07
2.08507e-06
-7.8944e-07
1.76678e-06
-6.3235e-07
1.3973e-06
-5.8063e-07
1.0422e-06
-5.66779e-07
6.88101e-07
-4.07501e-07
3.86995e-07
-2.58584e-07
2.73802e-08
-1.19659e-07
-4.17004e-07
-5.04178e-08
-8.96482e-07
1.97899e-08
-1.36982e-06
4.47491e-08
-1.78785e-06
8.48453e-09
-2.13297e-06
-4.73313e-08
-2.38716e-06
-1.5291e-07
-2.55293e-06
-2.72887e-07
-2.61196e-06
-4.31469e-07
-2.56188e-06
-6.24038e-07
-2.4226e-06
-8.08457e-07
-2.20272e-06
-9.86001e-07
-1.87867e-06
-1.19004e-06
-1.4839e-06
-1.3538e-06
-9.99116e-07
-1.53749e-06
-4.44561e-07
-1.6969e-06
1.87285e-07
-1.86848e-06
8.97872e-07
-2.03941e-06
1.64886e-06
-2.16764e-06
2.44134e-06
-2.29676e-06
3.27941e-06
-2.4209e-06
4.15703e-06
-2.53442e-06
5.04234e-06
-2.61378e-06
5.95829e-06
-2.70787e-06
6.909e-06
-2.80432e-06
7.84758e-06
-2.86642e-06
8.81965e-06
-2.9485e-06
9.83823e-06
-3.0309e-06
1.08538e-05
-3.04061e-06
1.18337e-05
-3.00427e-06
1.27497e-05
-2.93508e-06
1.36209e-05
-2.90085e-06
1.44824e-05
-2.93317e-06
1.53552e-05
-2.96324e-06
1.62342e-05
-2.96874e-06
1.71108e-05
-2.97945e-06
1.80269e-05
-3.05685e-06
1.88986e-05
-2.99701e-06
1.96364e-05
-2.84572e-06
2.03173e-05
-2.82035e-06
2.10306e-05
-2.93825e-06
2.17856e-05
-3.02106e-06
2.24749e-05
-2.91782e-06
2.30219e-05
-2.73807e-06
2.3472e-05
-2.69104e-06
2.40183e-05
-2.92751e-06
2.4722e-05
-3.19898e-06
2.55098e-05
-3.25727e-06
2.60791e-05
-2.99444e-06
2.62889e-05
-2.64816e-06
2.6274e-05
-2.43966e-06
2.62139e-05
-2.33946e-06
2.6027e-05
-2.19585e-06
2.54205e-05
-1.84979e-06
2.44421e-05
-1.5073e-06
2.33486e-05
-1.28028e-06
2.22871e-05
-1.22144e-06
2.12823e-05
-1.32552e-06
2.04112e-05
-1.66605e-06
1.96348e-05
-1.9553e-06
1.90774e-05
-2.35784e-06
1.94532e-05
-3.56529e-06
2.04667e-05
-4.49463e-06
2.0511e-05
-3.61649e-06
1.95328e-05
-2.59557e-06
1.8814e-05
-3.09367e-06
1.86221e-05
-3.91203e-06
1.84708e-05
-3.90871e-06
1.77825e-05
-3.26236e-06
1.58479e-05
-2.20988e-06
1.26792e-05
-8.97482e-07
8.89211e-06
5.00266e-07
5.11082e-06
1.57249e-06
1.51331e-06
2.19151e-06
-1.79465e-06
2.32983e-06
-4.5787e-06
1.87666e-06
-6.52952e-06
7.47904e-07
-8.03789e-06
-3.19022e-07
-9.53939e-06
-9.46828e-07
-1.0799e-05
-1.37874e-06
-1.16599e-05
-1.62451e-06
-1.2055e-05
-2.0648e-06
-1.19835e-05
-3.057e-06
-1.17563e-05
-4.20812e-06
-1.15723e-05
-5.19971e-06
-1.1261e-05
-5.93425e-06
-1.04745e-05
-6.35649e-06
-9.1638e-06
-6.41959e-06
-7.53699e-06
-6.2051e-06
-6.22418e-06
-5.51405e-06
-5.45278e-06
-5.65662e-06
-4.55475e-06
-7.03733e-06
-1.56329e-06
-9.99007e-06
4.90254e-07
-8.30435e-06
2.22615e-06
-8.2001e-06
3.90127e-06
-7.99897e-06
5.53408e-06
-8.20469e-06
7.29521e-06
-8.37608e-06
9.28144e-06
-8.68425e-06
1.10783e-05
-8.51321e-06
1.26569e-05
-8.37127e-06
1.42456e-05
-8.51188e-06
1.58379e-05
-8.57074e-06
1.72212e-05
-8.31892e-06
1.82768e-05
-8.11847e-06
1.91206e-05
-8.01973e-06
1.98516e-05
-8.13435e-06
2.04582e-05
-8.32518e-06
2.09277e-05
-8.43681e-06
2.13014e-05
-8.7355e-06
2.14884e-05
-8.84643e-06
2.1499e-05
-8.97906e-06
2.15196e-05
-9.36069e-06
2.1517e-05
-9.7437e-06
2.13055e-05
-1.00073e-05
2.10943e-05
-1.05158e-05
2.09514e-05
-1.11901e-05
2.0887e-05
-1.16881e-05
2.0749e-05
-1.19905e-05
2.05473e-05
-1.21745e-05
2.03337e-05
-1.22855e-05
2.02876e-05
-1.26237e-05
2.0261e-05
-1.28425e-05
2.00838e-05
-1.28184e-05
1.96704e-05
-1.26476e-05
1.92102e-05
-1.26815e-05
1.90367e-05
-1.34835e-05
1.90478e-05
-1.44618e-05
1.82283e-05
-1.43437e-05
1.5825e-05
-1.30233e-05
1.15542e-05
-1.04336e-05
6.00487e-06
-7.60981e-06
5.19392e-07
-6.58827e-06
-4.07617e-06
-7.60482e-06
-7.35118e-06
-1.01679e-05
-9.34204e-06
-1.36441e-05
-1.01691e-05
-1.69911e-05
-1.07878e-05
-1.88508e-05
-1.16908e-05
-1.94501e-05
-1.12725e-05
-2.15803e-05
-1.18025e-05
-2.04018e-05
-1.26433e-05
-1.90896e-05
-1.26438e-05
-2.05353e-05
-1.18776e-05
-2.23735e-05
-8.49124e-06
-2.62077e-05
-7.19679e-06
-2.30616e-05
-7.08643e-06
-1.97058e-05
-7.81788e-06
-1.75187e-05
-8.41474e-06
-1.69293e-05
-9.01094e-06
-1.6243e-05
-9.72469e-06
-1.56146e-05
-1.10959e-05
-1.37945e-05
-1.26711e-05
-1.26403e-05
-1.38734e-05
-1.21226e-05
-1.44579e-05
-1.23764e-05
-1.43715e-05
-1.27377e-05
-1.3802e-05
-1.32159e-05
-1.28327e-05
-1.34412e-05
-1.18621e-05
-1.30965e-05
-1.2123e-05
-1.12768e-05
1.53593e-07
-1.83734e-06
1.81264e-07
-1.71534e-06
1.87537e-07
-1.66098e-06
1.87588e-07
-1.66886e-06
1.93895e-07
-1.7047e-06
2.58356e-07
-1.77593e-06
4.49e-07
-1.9544e-06
7.15466e-07
-2.09442e-06
7.89284e-07
-1.91698e-06
6.718e-07
-1.72276e-06
5.7472e-07
-1.63327e-06
3.79014e-07
-1.35526e-06
9.25434e-08
-1.12714e-06
-1.76998e-07
-1.06403e-06
-3.93286e-07
-9.39583e-07
-6.20386e-07
-7.71075e-07
-9.76999e-07
-5.86685e-07
-1.48169e-06
-4.22682e-07
-1.95708e-06
-2.90033e-07
-2.40424e-06
-1.62688e-07
-2.84871e-06
-2.3543e-08
-3.23163e-06
-1.70839e-08
-3.50454e-06
-5.53474e-08
-3.69709e-06
-1.11154e-07
-3.7975e-06
-2.42775e-07
-3.83025e-06
-3.64563e-07
-3.79481e-06
-5.3641e-07
-3.67215e-06
-7.47469e-07
-3.47269e-06
-9.88473e-07
-3.2294e-06
-1.23081e-06
-2.92535e-06
-1.48163e-06
-2.5057e-06
-1.78109e-06
-2.04373e-06
-2.03279e-06
-1.49883e-06
-2.28823e-06
-8.94917e-07
-2.53753e-06
-2.15346e-07
-2.78215e-06
5.09586e-07
-3.00938e-06
1.2533e-06
-3.20881e-06
2.05138e-06
-3.40305e-06
2.86361e-06
-3.55979e-06
3.68395e-06
-3.70073e-06
4.54079e-06
-3.86181e-06
5.4246e-06
-3.98636e-06
6.31233e-06
-4.09843e-06
7.19131e-06
-4.20055e-06
8.04701e-06
-4.25857e-06
8.92233e-06
-4.37592e-06
9.82582e-06
-4.50256e-06
1.07788e-05
-4.58265e-06
1.17276e-05
-4.56489e-06
1.26267e-05
-4.46651e-06
1.34122e-05
-4.32637e-06
1.4132e-05
-4.28646e-06
1.48882e-05
-4.34312e-06
1.57049e-05
-4.41224e-06
1.65213e-05
-4.43412e-06
1.7344e-05
-4.50522e-06
1.81289e-05
-4.40297e-06
1.88263e-05
-4.22161e-06
1.95119e-05
-4.27488e-06
2.02634e-05
-4.49829e-06
2.10317e-05
-4.56929e-06
2.17276e-05
-4.3758e-06
2.23646e-05
-4.22057e-06
2.2906e-05
-4.22259e-06
2.34663e-05
-4.53147e-06
2.42105e-05
-4.9103e-06
2.50706e-05
-5.04834e-06
2.57057e-05
-4.69426e-06
2.61092e-05
-4.27261e-06
2.65765e-05
-4.1323e-06
2.72711e-05
-4.19577e-06
2.78039e-05
-4.0218e-06
2.78288e-05
-3.3892e-06
2.74109e-05
-2.55399e-06
2.68831e-05
-2.05826e-06
2.60706e-05
-1.80658e-06
2.48355e-05
-1.78187e-06
2.35736e-05
-2.29699e-06
2.22931e-05
-2.68673e-06
2.09831e-05
-3.15047e-06
2.06556e-05
-4.94339e-06
2.12384e-05
-6.31629e-06
2.11843e-05
-5.18628e-06
2.04002e-05
-3.92739e-06
1.97497e-05
-4.54532e-06
1.88406e-05
-5.03747e-06
1.67647e-05
-4.00018e-06
1.35755e-05
-2.36698e-06
9.89668e-06
-7.86253e-07
6.29378e-06
4.74428e-07
3.10329e-06
1.45814e-06
2.91989e-07
2.15343e-06
-2.24381e-06
2.49361e-06
-4.44813e-06
2.36397e-06
-6.25094e-06
1.59832e-06
-7.88098e-06
3.12972e-07
-9.5048e-06
-8.17017e-07
-1.06204e-05
-2.049e-06
-1.11607e-05
-2.9983e-06
-1.13278e-05
-3.50338e-06
-1.1348e-05
-4.08198e-06
-1.1376e-05
-5.11752e-06
-1.15357e-05
-6.20586e-06
-1.1643e-05
-7.22936e-06
-1.1216e-05
-8.39496e-06
-1.01912e-05
-9.39182e-06
-8.9002e-06
-9.86503e-06
-7.33658e-06
-1.00523e-05
-5.79123e-06
-9.3606e-06
-4.87837e-06
-8.84941e-06
-4.22794e-06
-1.00034e-05
-1.65941e-06
-1.49443e-05
3.2634e-07
-1.27743e-05
2.04621e-06
-1.24422e-05
3.71248e-06
-1.21952e-05
5.24432e-06
-1.23256e-05
6.75791e-06
-1.24981e-05
8.62409e-06
-1.31098e-05
1.06118e-05
-1.30819e-05
1.23233e-05
-1.28338e-05
1.396e-05
-1.3044e-05
1.56868e-05
-1.32845e-05
1.73099e-05
-1.29791e-05
1.87463e-05
-1.27031e-05
1.97495e-05
-1.23268e-05
2.05602e-05
-1.23009e-05
2.13412e-05
-1.2564e-05
2.21251e-05
-1.28957e-05
2.28062e-05
-1.3272e-05
2.34161e-05
-1.35592e-05
2.37952e-05
-1.37981e-05
2.41303e-05
-1.43512e-05
2.43128e-05
-1.48119e-05
2.41375e-05
-1.48724e-05
2.39362e-05
-1.53936e-05
2.38595e-05
-1.63072e-05
2.39421e-05
-1.7329e-05
2.41612e-05
-1.82878e-05
2.42781e-05
-1.89438e-05
2.40072e-05
-1.89004e-05
2.34444e-05
-1.8918e-05
2.28039e-05
-1.92963e-05
2.20951e-05
-1.9371e-05
2.16501e-05
-1.95405e-05
2.12529e-05
-1.98122e-05
2.07221e-05
-2.06715e-05
1.97396e-05
-2.15e-05
1.72069e-05
-2.00033e-05
1.28203e-05
-1.67012e-05
7.29425e-06
-1.30919e-05
1.93611e-06
-1.07178e-05
-2.49662e-06
-1.09221e-05
-5.72575e-06
-1.34966e-05
-7.89756e-06
-1.72049e-05
-9.07423e-06
-2.14709e-05
-9.37839e-06
-2.56879e-05
-9.27385e-06
-2.86143e-05
-9.58599e-06
-2.95139e-05
-8.36627e-06
-3.34151e-05
-9.00364e-06
-3.13842e-05
-1.0427e-05
-2.85626e-05
-1.04915e-05
-3.1042e-05
-9.67339e-06
-3.33854e-05
-6.69458e-06
-3.81059e-05
-5.48264e-06
-3.3726e-05
-5.80331e-06
-2.91117e-05
-6.69168e-06
-2.60885e-05
-7.09389e-06
-2.54357e-05
-6.90149e-06
-2.49058e-05
-6.54514e-06
-2.41344e-05
-7.38619e-06
-2.12311e-05
-9.0293e-06
-1.91333e-05
-1.05432e-05
-1.82414e-05
-1.1247e-05
-1.85016e-05
-1.11208e-05
-1.89626e-05
-1.03734e-05
-1.97333e-05
-9.51849e-06
-2.00136e-05
-9.02167e-06
-1.93679e-05
-1.82983e-05
-8.69378e-06
1.71431e-07
-2.29675e-06
2.32657e-07
-2.08195e-06
2.99709e-07
-2.0544e-06
4.58009e-07
-2.15503e-06
5.95987e-07
-2.17391e-06
6.43143e-07
-2.16472e-06
5.0814e-07
-2.16538e-06
1.50308e-07
-2.07111e-06
-2.14332e-07
-1.87714e-06
-5.5618e-07
-1.70537e-06
-8.22454e-07
-1.69238e-06
-9.82009e-07
-1.52064e-06
-1.14135e-06
-1.29917e-06
-1.32937e-06
-1.20477e-06
-1.62349e-06
-9.66142e-07
-2.0668e-06
-6.45582e-07
-2.57855e-06
-3.9044e-07
-3.05287e-06
-2.59733e-07
-3.48499e-06
-1.65608e-07
-3.82346e-06
-1.30157e-07
-4.04202e-06
-1.13899e-07
-4.15587e-06
-2.18504e-07
-4.17493e-06
-3.51956e-07
-4.12943e-06
-4.76437e-07
-4.03314e-06
-6.6349e-07
-3.87609e-06
-8.44968e-07
-3.62062e-06
-1.11766e-06
-3.35868e-06
-1.34526e-06
-3.04257e-06
-1.64725e-06
-2.67429e-06
-1.94478e-06
-2.25745e-06
-2.24937e-06
-1.82579e-06
-2.56942e-06
-1.31515e-06
-2.90324e-06
-7.51043e-07
-3.21633e-06
-1.44819e-07
-3.51165e-06
5.17863e-07
-3.81726e-06
1.20735e-06
-4.07749e-06
1.94237e-06
-4.3264e-06
2.72325e-06
-4.57307e-06
3.51432e-06
-4.751e-06
4.34503e-06
-4.94148e-06
5.20158e-06
-5.1357e-06
6.06268e-06
-5.27477e-06
6.89693e-06
-5.3794e-06
7.74664e-06
-5.51315e-06
8.58136e-06
-5.5804e-06
9.38788e-06
-5.69572e-06
1.01758e-05
-5.82786e-06
1.10019e-05
-5.96993e-06
1.19206e-05
-6.07868e-06
1.29127e-05
-6.10475e-06
1.38406e-05
-5.9624e-06
1.46141e-05
-5.8004e-06
1.53153e-05
-5.77654e-06
1.6027e-05
-5.83437e-06
1.67111e-05
-5.80806e-06
1.74099e-05
-5.85278e-06
1.81521e-05
-5.77641e-06
1.88578e-05
-5.62275e-06
1.95446e-05
-5.72418e-06
2.02715e-05
-5.96951e-06
2.09368e-05
-5.93668e-06
2.15355e-05
-5.70385e-06
2.21767e-05
-5.69692e-06
2.28486e-05
-5.85568e-06
2.33742e-05
-6.07019e-06
2.38142e-05
-6.29916e-06
2.43906e-05
-6.46177e-06
2.51145e-05
-6.30097e-06
2.576e-05
-6.03932e-06
2.62055e-05
-5.90776e-06
2.65858e-05
-5.9102e-06
2.72084e-05
-5.89335e-06
2.7967e-05
-5.46284e-06
2.85316e-05
-4.64603e-06
2.88177e-05
-3.8542e-06
2.87403e-05
-3.03582e-06
2.80202e-05
-2.60291e-06
2.70029e-05
-2.97962e-06
2.59184e-05
-3.26137e-06
2.47237e-05
-4.1518e-06
2.3781e-05
-6.2307e-06
2.27403e-05
-6.84916e-06
2.13211e-05
-5.38125e-06
1.99723e-05
-4.52292e-06
1.85253e-05
-5.10711e-06
1.59947e-05
-4.70166e-06
1.24854e-05
-2.83102e-06
8.62389e-06
-8.62574e-07
5.15155e-06
3.64022e-07
2.16525e-06
1.1494e-06
-1.80012e-07
1.4784e-06
-2.21173e-06
1.8299e-06
-4.07386e-06
2.00903e-06
-5.669e-06
1.70415e-06
-6.95776e-06
7.00395e-07
-8.25042e-06
-5.92542e-07
-9.42453e-06
-1.90508e-06
-1.00707e-05
-3.65523e-06
-1.05183e-05
-4.67637e-06
-1.08217e-05
-5.31776e-06
-1.08044e-05
-6.27631e-06
-1.05657e-05
-7.54799e-06
-1.02079e-05
-8.73736e-06