/*--------------------------------*- C++ -*----------------------------------*\
| =========                 |                                                 |
| \\      /  F ield         | OpenFOAM: The Open Source CFD Toolbox           |
|  \\    /   O peration     | Version:  dev                                   |
|   \\  /    A nd           | Web:      http://www.openfoam.org               |
|    \\/     M anipulation  |                                                 |
\*---------------------------------------------------------------------------*/
FoamFile
{
    version     2.0;
    format      ascii;
    class       volScalarField;
    object      pMean;
    location    "9.131";
}
// * * * * * * * * * * * * * * * * * * * * * * * * * * * * * * * * * * * * * //

dimensions      [1 -1 -2 0 0 0 0];

internalField   nonuniform List<scalar> 
12225
(
98313.4
98293.6
98279.9
98272.9
98258.6
98249.2
98230.8
98221.2
98199.7
98191
98166.3
98159.4
98128.5
98122.2
98081.4
98041.7
97952.6
97586.8
98308.9
98292.6
98279.3
98272.4
98258
98248.6
98230.1
98220.6
98199
98190.6
98165.6
98158.9
98128.1
98120.2
98079.7
98045.8
97953.5
97792.5
98305.2
98291
98278.3
98271
98256.6
98247.2
98228.6
98219.3
98197.6
98189.1
98164.7
98156.8
98128.6
98116.8
98081.9
98046.7
97979.4
97890.6
98300.1
98288.1
98276.2
98268.5
98254.2
98244.5
98226.5
98216.6
98195.8
98186.4
98163.4
98153.7
98127.6
98114.6
98082.9
98055.1
98006.6
97937.8
98293.4
98283.7
98272.6
98264.5
98250.6
98240.3
98223.5
98212.4
98193.4
98182.1
98161.9
98149.2
98127.7
98111.4
98084.8
98060.6
98020.8
97988.1
98285.2
98277.5
98266.7
98258.5
98245
98234.4
98218.3
98206.7
98189
98176.8
98158.6
98145
98126.7
98109.7
98088.4
98063.1
98040.9
98020.5
98274.9
98268.6
98258.2
98249.7
98237.1
98226
98211.2
98198.7
98182.9
98169.4
98154
98139
98124.4
98106.9
98092.6
98071.6
98061.3
98046.3
98264.2
98258.5
98248.8
98240.1
98228.4
98216.9
98203.3
98190.1
98176.2
98161.8
98148.7
98133.1
98121.6
98104.3
98095.5
98077.7
98076
98061.1
98253.3
98247.9
98239.1
98230.1
98219.3
98207.5
98195
98181.5
98168.9
98154.3
98142.9
98127.4
98117.7
98101.7
98095.4
98081.3
98081
98069.1
98239.7
98234.2
98226.5
98217.5
98207.6
98195.8
98184.3
98170.8
98159.5
98145
98135.1
98120.1
98112
98097.6
98092.6
98080.8
98080.1
98071.8
98222.8
98217.3
98210.7
98202
98192.8
98181.4
98170.6
98157.7
98147.1
98133.6
98124.2
98111.1
98103
98091.5
98085.9
98077.4
98074.7
98069.5
98202.2
98196.5
98191.2
98182.8
98174.4
98163.4
98153.5
98141.2
98131.6
98119.1
98110.4
98099
98091.4
98082.1
98076.4
98070
98066.4
98062.8
98177.4
98172.1
98167.6
98160
98152.1
98142.1
98132.7
98121.8
98112.6
98102
98093.5
98084.2
98077
98069.8
98064.4
98059.5
98055.9
98053.2
98149.1
98144.3
98140.3
98133.8
98126.6
98117.7
98109
98099.5
98091
98082
98074.3
98066.8
98060.4
98054.7
98050
98046.2
98043.2
98041.1
98119
98115.2
98111.5
98106.1
98099.6
98092
98084.2
98076.1
98068.5
98061.1
98054.4
98048.2
98042.9
98038.4
98034.7
98031.8
98029.6
98028.1
98091.2
98088.5
98085.1
98080.6
98075
98068.5
98061.7
98054.8
98048.3
98042.1
98036.5
98031.6
98027.3
98023.7
98020.9
98018.7
98017.1
98016.2
98072.6
98070.7
98067.9
98064
98059.1
98053.4
98047.5
98041.5
98035.9
98030.6
98025.9
98021.7
98018.1
98015.2
98012.9
98011.3
98010.1
98009.5
98072.9
98071.2
98068.7
98064.9
98060.2
98054.9
98049.3
98043.8
98038.4
98033.5
98029
98025.1
98021.7
98018.9
98016.7
98015
98013.8
98013.1
98092.6
98090.8
98087.9
98084
98079
98073.5
98067.7
98061.9
98056.4
98051.1
98046.4
98042.1
98038.4
98035.2
98032.5
98030.4
98028.7
98027.4
98123.4
98121.2
98117.8
98113.3
98107.9
98101.9
98095.6
98089.2
98083.1
98077.2
98071.8
98066.9
98062.5
98058.7
98055.3
98052.5
98050.1
98048.2
98158.2
98155.7
98151.6
98146.4
98140.3
98133.7
98126.7
98119.8
98112.9
98106.4
98100.3
98094.6
98089.5
98084.9
98080.8
98077.2
98074
98071.3
98192.2
98189.1
98184.3
98178.4
98171.7
98164.5
98157
98149.4
98141.9
98134.7
98127.9
98121.5
98115.7
98110.3
98105.5
98101.2
98097.3
98093.9
98222.4
98218.7
98213.2
98206.7
98199.5
98191.7
98183.7
98175.6
98167.6
98159.8
98152.4
98145.4
98138.9
98133
98127.5
98122.6
98118.1
98114.1
98247.7
98243.4
98237.1
98229.9
98222.3
98214.2
98205.8
98197.3
98188.8
98180.6
98172.7
98165.3
98158.3
98151.8
98145.8
98140.4
98135.4
98130.9
98268
98262.8
98255.6
98248
98240
98231.6
98223
98214.2
98205.4
98196.9
98188.6
98180.8
98173.4
98166.6
98160.2
98154.3
98149
98144.1
98283.7
98277.3
98269.2
98261.1
98252.9
98244.5
98235.7
98226.7
98217.7
98208.9
98200.4
98192.3
98184.7
98177.5
98170.9
98164.7
98159.1
98153.9
98295.4
98287.6
98278.5
98270
98261.8
98253.3
98244.4
98235.3
98226.2
98217.3
98208.6
98200.3
98192.5
98185.1
98178.3
98172
98166.1
98160.7
98304.2
98294.3
98284.3
98275.6
98267.4
98258.9
98250
98240.9
98231.7
98222.7
98213.9
98205.5
98197.6
98190.1
98183.1
98176.7
98170.7
98165.1
98310.3
98298.1
98287
98278.4
98270.3
98262
98253.2
98244.1
98234.9
98225.8
98217
98208.5
98200.4
98192.9
98185.9
98179.3
98173.3
98167.6
98316.2
98300.7
98288.6
98279.8
98271.6
98263.3
98254.5
98245.4
98236.2
98227.1
98218.2
98209.7
98201.7
98194.1
98187
98180.4
98174.4
98168.8
98313.3
98312.9
98312.1
98311
98309.5
98307.6
98305.4
98302.8
98299.8
98296.3
98292.4
98288.2
98283.6
98278.7
98273.4
98268
98262.3
98256.3
98250.2
98244
98237.5
98231
98224.3
98217.5
98210.6
98203.6
98196.6
98189.5
98182.4
98175.3
98168.2
98161.2
98154.2
98147.2
98140.3
98133.6
98126.9
98120.5
98114.1
98108
98102.1
98096.4
98091
98085.9
98081
98076.6
98072.5
98068.7
98065.4
98062.6
98060.2
98058.3
98056.9
98056.1
98055.8
98056.1
98057.1
98058.7
98061
98063.9
98067.6
98072
98077.1
98082.9
98089.4
98096.7
98104.6
98113.3
98122.6
98132.5
98143.1
98154.3
98166.1
98178.3
98191.1
98204.3
98217.9
98231.9
98246.2
98260.8
98275.6
98290.6
98305.8
98321
98336.2
98351.5
98366.7
98381.7
98396.7
98411.3
98425.8
98439.9
98453.7
98467
98479.9
98492.3
98504.2
98515.6
98526.3
98536.5
98546
98554.8
98563.1
98570.6
98577.6
98583.9
98589.6
98594.7
98599.4
98603.4
98607.1
98610.3
98613.1
98615.6
98617.8
98619.6
98621.3
98622.7
98624
98625.1
98626.2
98627.2
98628.4
98629.7
98631.3
98633.3
98635.9
98639.3
98643.7
98649.3
98656.4
98665.1
98675.8
98688.7
98704
98722
98742.8
98766.6
98793.4
98823.2
98856.1
98892
98930.8
98972.3
99016.6
99063.2
99112.1
99162.8
99215.3
99269.5
99324.9
99381.3
99438.3
99495.6
99552.8
99609.4
99664.8
99718.6
99769.6
99817.5
99861
99899.3
99931.4
99956.5
99973.2
99980.8
99978.2
99965.2
99941.2
99906.5
99861.2
99806.4
99742.6
99671.9
99594.9
99514.4
99429.9
99345.3
99258.5
99175.4
98306.3
98306
98305.2
98304
98302.5
98300.6
98298.4
98295.8
98292.8
98289.4
98285.6
98281.4
98276.9
98272.2
98267.1
98261.8
98256.2
98250.5
98244.6
98238.5
98232.2
98225.9
98219.3
98212.7
98206
98199.2
98192.3
98185.4
98178.5
98171.5
98164.6
98157.7
98150.8
98144
98137.3
98130.7
98124.2
98117.8
98111.7
98105.6
98099.8
98094.3
98089
98083.9
98079.2
98074.8
98070.7
98067.1
98063.8
98061
98058.6
98056.7
98055.3
98054.4
98054.1
98054.4
98055.3
98056.9
98059.1
98062
98065.5
98069.8
98074.8
98080.4
98086.8
98093.9
98101.7
98110.2
98119.4
98129.2
98139.6
98150.5
98162.1
98174.2
98186.7
98199.7
98213.1
98226.8
98240.9
98255.3
98269.8
98284.6
98299.5
98314.4
98329.4
98344.4
98359.3
98374.1
98388.7
98403.1
98417.2
98431.1
98444.5
98457.6
98470.2
98482.4
98494
98505
98515.5
98525.4
98534.7
98543.4
98551.4
98558.8
98565.5
98571.7
98577.2
98582.2
98586.7
98590.7
98594.3
98597.4
98600.1
98602.5
98604.7
98606.5
98608.1
98609.4
98610.6
98611.7
98612.6
98613.6
98614.6
98615.8
98617.3
98619.1
98621.5
98624.6
98628.7
98634
98640.7
98648.9
98659.1
98671.4
98686.2
98703.5
98723.6
98746.6
98772.5
98801.4
98833.4
98868.3
98906.1
98946.5
98989.7
99035.1
99082.8
99132.3
99183.7
99236.7
99291
99346.2
99402.1
99458.4
99514.6
99570.2
99624.7
99677.6
99727.9
99775.2
99818.2
99856.4
99888.3
99913.5
99930.6
99938.7
99937
99925.1
99902.4
99869.2
99825.5
99772.5
99710.3
99641.5
99566.3
99487.5
99404.6
99321.5
99235.7
99150.8
98293.6
98293.3
98292.5
98291.3
98289.7
98287.7
98285.4
98282.7
98279.7
98276.3
98272.6
98268.6
98264.3
98259.7
98254.8
98249.8
98244.6
98239.1
98233.6
98227.9
98222
98216
98209.8
98203.6
98197.2
98190.8
98184.2
98177.6
98171
98164.3
98157.7
98151.1
98144.5
98137.9
98131.4
98125.1
98118.8
98112.7
98106.7
98101
98095.4
98090
98084.8
98079.9
98075.3
98071
98067.1
98063.5
98060.3
98057.5
98055.2
98053.2
98051.8
98050.9
98050.5
98050.7
98051.5
98052.9
98055
98057.7
98061.1
98065.1
98069.9
98075.3
98081.4
98088.3
98095.8
98104
98112.8
98122.3
98132.3
98142.9
98154.1
98165.8
98177.9
98190.5
98203.5
98216.8
98230.4
98244.3
98258.4
98272.7
98287.1
98301.6
98316
98330.5
98344.9
98359.1
98373.2
98387.1
98400.6
98413.9
98426.8
98439.3
98451.4
98463
98474
98484.6
98494.6
98504
98512.8
98521
98528.6
98535.6
98542.1
98547.9
98553.2
98557.9
98562.2
98566
98569.3
98572.3
98574.9
98577.2
98579.1
98580.8
98582.3
98583.5
98584.6
98585.5
98586.3
98587
98587.8
98588.7
98589.7
98591.2
98593.1
98595.7
98599.1
98603.7
98609.5
98616.9
98626.1
98637.3
98650.7
98666.7
98685.3
98706.7
98731
98758.1
98788.2
98821
98856.7
98894.9
98935.9
98979
99024.4
99071.6
99120.6
99171.3
99223.2
99276.1
99329.7
99383.9
99437.9
99491.5
99544.1
99595.3
99644
99689.9
99731.8
99769.1
99800.6
99825.7
99843.2
99852
99851.6
99841.5
99821.1
99790.6
99750
99700.3
99641.8
99576.6
99505
99429.8
99350.3
99270.4
99187.5
99103.6
98276.1
98275.8
98275.1
98273.9
98272.2
98270.3
98267.9
98265.3
98262.3
98258.9
98255.3
98251.4
98247.3
98242.9
98238.4
98233.7
98228.8
98223.8
98218.6
98213.3
98207.9
98202.3
98196.7
98190.9
98185
98179
98173
98166.9
98160.7
98154.5
98148.3
98142.1
98135.9
98129.8
98123.7
98117.7
98111.8
98106
98100.4
98094.8
98089.5
98084.3
98079.4
98074.7
98070.3
98066.1
98062.3
98058.8
98055.7
98053
98050.6
98048.7
98047.2
98046.2
98045.8
98045.8
98046.5
98047.8
98049.6
98052.1
98055.2
98059
98063.4
98068.5
98074.2
98080.7
98087.8
98095.5
98103.9
98112.9
98122.4
98132.6
98143.2
98154.4
98165.9
98177.9
98190.3
98203
98216
98229.2
98242.7
98256.3
98270
98283.7
98297.5
98311.2
98324.9
98338.4
98351.7
98364.8
98377.7
98390.2
98402.3
98414.1
98425.4
98436.2
98446.5
98456.3
98465.6
98474.4
98482.5
98490.1
98497.2
98503.7
98509.6
98515
98519.9
98524.2
98528.2
98531.6
98534.7
98537.4
98539.8
98541.9
98543.7
98545.2
98546.5
98547.5
98548.3
98549
98549.5
98549.9
98550.3
98550.7
98551.3
98552.2
98553.4
98555.2
98557.7
98561.2
98565.9
98572
98579.8
98589.4
98601.1
98615.2
98631.8
98651
98672.9
98697.5
98724.9
98755
98787.8
98823.1
98860.9
98901
98943.1
98987.1
99033
99080.4
99129.2
99179
99229.6
99280.8
99331.9
99382.8
99432.7
99481.5
99528.1
99572.1
99612.4
99648.5
99679
99703.8
99721.5
99731.2
99732.1
99724
99706.3
99679.2
99642.4
99597.1
99543.1
99482.8
99416
99345.7
99270.9
99195.4
99116.7
99036.7
98254.9
98254.7
98254
98252.8
98251.3
98249.4
98247.1
98244.5
98241.5
98238.3
98234.8
98231.1
98227.2
98223.1
98218.8
98214.4
98209.9
98205.3
98200.5
98195.7
98190.8
98185.7
98180.6
98175.3
98169.9
98164.5
98159
98153.5
98147.9
98142.3
98136.6
98131
98125.4
98119.7
98114.2
98108.7
98103.2
98097.9
98092.6
98087.5
98082.5
98077.7
98073
98068.6
98064.4
98060.4
98056.8
98053.4
98050.4
98047.7
98045.4
98043.5
98042
98040.9
98040.3
98040.3
98040.7
98041.8
98043.4
98045.6
98048.3
98051.7
98055.7
98060.4
98065.7
98071.6
98078.2
98085.4
98093.2
98101.6
98110.5
98120
98130
98140.4
98151.3
98162.5
98174.1
98186.1
98198.2
98210.7
98223.2
98236
98248.8
98261.6
98274.5
98287.3
98300
98312.6
98325
98337.2
98349.1
98360.7
98371.9
98382.7
98393.1
98403
98412.4
98421.4
98429.8
98437.7
98445.1
98452
98458.3
98464.1
98469.4
98474.3
98478.6
98482.5
98486
98489.1
98491.8
98494.2
98496.3
98498.2
98499.7
98500.9
98501.9
98502.7
98503.3
98503.6
98503.7
98503.7
98503.6
98503.5
98503.5
98503.6
98503.9
98504.7
98506.2
98508.4
98511.7
98516.2
98522.2
98529.9
98539.6
98551.3
98565.4
98582
98601
98622.6
98646.9
98673.6
98702.9
98734.6
98768.8
98805.1
98843.4
98883.6
98925.6
98969.3
99014.3
99060.3
99107.3
99154.9
99202.6
99250
99296.9
99342.6
99386.6
99428.2
99466.5
99500.9
99530.3
99554.4
99572.1
99582.4
99584.7
99578.9
99564.1
99540.8
99508.4
99468
99419.5
99364.9
99303.8
99239.4
99170.4
99100.6
99027.3
98952.8
98231.5
98231.3
98230.7
98229.6
98228.2
98226.4
98224.3
98221.8
98219.1
98216
98212.7
98209.2
98205.5
98201.7
98197.7
98193.6
98189.4
98185.2
98180.8
98176.4
98171.9
98167.3
98162.7
98157.9
98153.1
98148.3
98143.4
98138.4
98133.4
98128.4
98123.4
98118.3
98113.3
98108.3
98103.3
98098.3
98093.5
98088.6
98083.9
98079.2
98074.7
98070.2
98065.9
98061.8
98057.9
98054.2
98050.7
98047.5
98044.6
98042.1
98039.8
98037.9
98036.3
98035.2
98034.5
98034.3
98034.5
98035.3
98036.6
98038.5
98040.9
98043.8
98047.4
98051.5
98056.3
98061.6
98067.6
98074.1
98081.2
98088.9
98097.1
98105.8
98115
98124.7
98134.7
98145.1
98155.8
98166.8
98178.1
98189.5
98201.1
98212.8
98224.6
98236.4
98248.2
98260
98271.7
98283.2
98294.5
98305.6
98316.4
98326.9
98337
98346.8
98356.1
98365
98373.4
98381.4
98388.8
98395.9
98402.4
98408.4
98413.9
98418.9
98423.6
98427.7
98431.5
98434.8
98437.8
98440.4
98442.8
98444.8
98446.6
98448
98449.2
98450.2
98450.8
98451.2
98451.4
98451.3
98451
98450.5
98449.9
98449.1
98448.3
98447.6
98447
98446.6
98446.8
98447.6
98449.3
98452
98456
98461.6
98468.8
98478
98489.3
98502.9
98518.7
98536.9
98557.6
98580.7
98606.1
98633.8
98663.9
98696.1
98730.2
98766.3
98804.1
98843.5
98884.4
98926.4
98969.2
99012.8
99056.6
99100.4
99143.7
99186.1
99226.9
99265.8
99301.7
99334.2
99362.1
99385.3
99402.7
99413.4
99417
99413.3
99401.6
99382.1
99354.2
99319.1
99276.3
99227.9
99173.2
99115.4
99053
98989.7
98922.8
98854.8
98207
98206.9
98206.4
98205.4
98204.2
98202.5
98200.6
98198.4
98195.8
98193
98190
98186.8
98183.4
98179.8
98176.2
98172.4
98168.6
98164.6
98160.7
98156.6
98152.5
98148.4
98144.2
98140
98135.7
98131.4
98127
98122.6
98118.2
98113.8
98109.4
98104.9
98100.5
98096.1
98091.7
98087.3
98083
98078.7
98074.4
98070.2
98066.1
98062.1
98058.2
98054.4
98050.8
98047.4
98044.2
98041.2
98038.4
98035.9
98033.7
98031.8
98030.3
98029.1
98028.2
98027.9
98027.9
98028.4
98029.4
98030.9
98032.9
98035.4
98038.4
98042
98046.2
98050.9
98056.2
98062
98068.4
98075.3
98082.7
98090.6
98098.9
98107.6
98116.7
98126.2
98135.9
98145.9
98156.1
98166.5
98177
98187.6
98198.3
98209
98219.6
98230.2
98240.7
98251
98261.2
98271.1
98280.7
98290
98299
98307.6
98315.8
98323.6
98330.9
98337.8
98344.3
98350.3
98355.9
98361
98365.7
98369.9
98373.8
98377.2
98380.3
98383
98385.4
98387.6
98389.4
98391
98392.3
98393.4
98394.1
98394.7
98394.9
98394.9
98394.7
98394.2
98393.3
98392.3
98391
98389.5
98387.8
98386.1
98384.5
98382.9
98381.6
98380.9
98380.8
98381.7
98383.6
98386.8
98391.5
98398
98406.4
98416.8
98429.2
98443.9
98460.8
98480
98501.4
98525
98550.7
98578.6
98608.4
98640.1
98673.5
98708.5
98745
98782.7
98821.2
98860.5
98900.2
98940.1
98979.7
99018.5
99055.9
99091.6
99124.9
99155
99181.1
99203
99219.7
99230.7
99235.3
99233.7
99224.7
99209
99185.5
99155.7
99118.7
99076.6
99028.6
98977.8
98922.3
98866.1
98806.2
98745.4
98182.8
98182.8
98182.4
98181.6
98180.5
98179.1
98177.4
98175.4
98173.1
98170.6
98167.9
98165
98161.9
98158.7
98155.4
98151.9
98148.4
98144.9
98141.3
98137.6
98133.9
98130.1
98126.4
98122.6
98118.8
98115
98111.1
98107.3
98103.4
98099.5
98095.6
98091.7
98087.8
98084
98080.1
98076.3
98072.4
98068.6
98064.9
98061.1
98057.4
98053.8
98050.3
98046.8
98043.5
98040.4
98037.4
98034.6
98032
98029.6
98027.4
98025.5
98024
98022.7
98021.7
98021.2
98021
98021.3
98021.9
98023
98024.6
98026.7
98029.2
98032.3
98035.8
98039.9
98044.5
98049.6
98055.2
98061.3
98067.8
98074.8
98082.2
98090
98098.2
98106.6
98115.3
98124.3
98133.4
98142.7
98152.1
98161.5
98171
98180.5
98190
98199.3
98208.5
98217.6
98226.5
98235.1
98243.5
98251.6
98259.4
98266.8
98273.8
98280.4
98286.6
98292.4
98297.9
98302.9
98307.5
98311.7
98315.5
98318.9
98321.9
98324.6
98327
98329.1
98330.9
98332.5
98333.8
98334.9
98335.7
98336.2
98336.5
98336.6
98336.4
98335.9
98335.2
98334.1
98332.7
98331.1
98329
98326.7
98324.2
98321.4
98318.6
98315.8
98313.1
98310.7
98308.9
98307.8
98307.5
98308.4
98310.5
98314.2
98319.5
98326.7
98335.8
98346.9
98360
98375.3
98392.7
98412.2
98433.6
98457
98482.4
98509.8
98538.8
98569.4
98601.4
98634.8
98668.9
98704
98739.6
98775.5
98811.2
98846.1
98879.9
98912.3
98942.6
98970.1
98994
99014.2
99030
99040.8
99046.2
99046.1
99039.6
99027.2
99007.9
98983
98951.5
98915.6
98874.4
98830.7
98782.2
98733.4
98680.7
98627.6
98160
98160
98159.7
98159.1
98158.1
98156.9
98155.5
98153.8
98151.8
98149.6
98147.2
98144.6
98141.9
98139
98136
98133
98129.8
98126.6
98123.4
98120.1
98116.8
98113.4
98110.1
98106.7
98103.4
98100
98096.6
98093.2
98089.8
98086.4
98083
98079.6
98076.1
98072.7
98069.3
98065.9
98062.6
98059.2
98055.8
98052.5
98049.1
98045.9
98042.6
98039.5
98036.5
98033.5
98030.7
98028.1
98025.6
98023.3
98021.2
98019.3
98017.7
98016.3
98015.2
98014.5
98014.1
98014.1
98014.4
98015.2
98016.4
98018
98020
98022.5
98025.5
98028.9
98032.9
98037.2
98042.1
98047.4
98053.1
98059.2
98065.7
98072.5
98079.7
98087.2
98094.8
98102.7
98110.8
98118.9
98127.2
98135.5
98143.8
98152
98160.3
98168.4
98176.4
98184.2
98191.8
98199.2
98206.3
98213.1
98219.6
98225.8
98231.6
98237.1
98242.2
98246.9
98251.2
98255.1
98258.8
98262
98264.9
98267.5
98269.8
98271.7
98273.3
98274.8
98275.9
98276.9
98277.6
98278.1
98278.4
98278.4
98278.2
98277.7
98277
98275.9
98274.6
98272.9
98270.9
98268.5
98265.7
98262.5
98259
98255.2
98251.2
98247.1
98243.1
98239.2
98235.6
98232.5
98230
98228.6
98228.1
98229.1
98231.5
98235.5
98241.2
98248.8
98258.3
98269.8
98283.3
98298.8
98316.1
98335.3
98356.4
98379.6
98404.3
98430.6
98458.3
98487.2
98517.1
98548
98579.5
98611.5
98643.1
98674.1
98704.3
98733.1
98760.1
98784.9
98806.3
98824.5
98838.8
98849.1
98854.7
98855.8
98851.2
98841.5
98825.9
98805.4
98779.1
98749.2
98714.4
98677.6
98636.1
98594.7
98549.3
98504
98139.3
98139.4
98139.2
98138.7
98138
98137
98135.8
98134.4
98132.7
98130.8
98128.8
98126.5
98124.1
98121.6
98119
98116.3
98113.5
98110.7
98107.8
98104.9
98102
98099
98096.1
98093.1
98090.2
98087.2
98084.2
98081.2
98078.2
98075.2
98072.1
98069.1
98066.1
98063.1
98060.1
98057
98054
98051
98047.9
98044.9
98041.8
98038.8
98035.9
98032.9
98030.1
98027.3
98024.7
98022.1
98019.7
98017.4
98015.3
98013.4
98011.7
98010.3
98009.1
98008.2
98007.6
98007.3
98007.3
98007.8
98008.6
98009.7
98011.3
98013.3
98015.7
98018.6
98021.9
98025.6
98029.7
98034.2
98039.1
98044.4
98050
98055.9
98062.2
98068.6
98075.3
98082.2
98089.1
98096.2
98103.3
98110.5
98117.6
98124.7
98131.7
98138.6
98145.4
98151.9
98158.3
98164.4
98170.3
98175.9
98181.2
98186.1
98190.8
98195.1
98199
98202.6
98205.8
98208.7
98211.3
98213.6
98215.6
98217.3
98218.8
98219.9
98220.9
98221.6
98222
98222.3
98222.5
98222.3
98222
98221.5
98220.7
98219.6
98218.2
98216.6
98214.6
98212.2
98209.4
98206.3
98202.7
98198.6
98194.2
98189.3
98184.2
98178.8
98173.4
98168
98162.7
98157.8
98153.3
98149.6
98146.8
98145.1
98144.7
98145.7
98148.2
98152.5
98158.5
98166.4
98176.2
98187.9
98201.4
98216.7
98233.8
98252.9
98273.6
98295.8
98319.4
98344.2
98370
98396.9
98424.3
98452.2
98479.8
98507.1
98533.5
98558.7
98582.3
98604
98622.8
98638.6
98651.1
98660.3
98665.4
98667
98663.7
98656.2
98643.7
98627.2
98605.4
98581.1
98552.4
98521.9
98487.2
98452.9
98414.7
98377.2
98121.5
98121.6
98121.5
98121.1
98120.6
98119.8
98118.8
98117.6
98116.3
98114.7
98113
98111.1
98109.1
98107
98104.7
98102.4
98100
98097.5
98095
98092.5
98090
98087.4
98084.8
98082.3
98079.7
98077
98074.4
98071.7
98069
98066.3
98063.7
98060.9
98058.2
98055.5
98052.8
98050
98047.2
98044.4
98041.6
98038.8
98036
98033.1
98030.3
98027.6
98024.8
98022.2
98019.6
98017.1
98014.7
98012.4
98010.3
98008.3
98006.6
98005
98003.7
98002.6
98001.7
98001.2
98001
98001.1
98001.5
98002.3
98003.5
98005
98006.9
98009.2
98011.9
98015
98018.4
98022.2
98026.4
98030.9
98035.7
98040.8
98046.1
98051.7
98057.4
98063.3
98069.3
98075.3
98081.4
98087.4
98093.5
98099.4
98105.3
98111
98116.6
98121.9
98127.1
98132
98136.7
98141.1
98145.2
98148.9
98152.4
98155.5
98158.3
98160.8
98163
98164.9
98166.5
98167.8
98168.9
98169.7
98170.3
98170.7
98170.8
98170.8
98170.5
98170.1
98169.5
98168.7
98167.7
98166.6
98165.1
98163.4
98161.4
98159
98156.3
98153.2
98149.6
98145.7
98141.2
98136.2
98130.8
98125
98118.8
98112.3
98105.6
98098.7
98091.9
98085.3
98078.9
98073.2
98068.2
98064
98061
98059.3
98058.9
98060.1
98062.9
98067.6
98073.9
98082.1
98092.1
98103.9
98117.4
98132.8
98149.8
98168.3
98187.9
98208.9
98230.9
98253.8
98277.4
98301.3
98325
98348.6
98371.2
98392.6
98412.8
98431.2
98447.1
98460.3
98470.5
98477.9
98482
98483.3
98480.7
98474.8
98464.7
98451.5
98433.9
98414.4
98391.1
98366.6
98338.1
98310.6
98279.3
98249.3
98106.8
98107
98107
98106.7
98106.3
98105.7
98105
98104.1
98103
98101.7
98100.3
98098.8
98097.1
98095.4
98093.5
98091.6
98089.6
98087.5
98085.4
98083.3
98081.1
98078.9
98076.7
98074.5
98072.2
98069.9
98067.5
98065.1
98062.7
98060.3
98057.9
98055.4
98052.9
98050.4
98047.8
98045.2
98042.6
98040
98037.3
98034.6
98031.9
98029.1
98026.4
98023.7
98021
98018.4
98015.8
98013.3
98010.9
98008.6
98006.4
98004.3
98002.4
98000.7
97999.2
97998
97996.9
97996.2
97995.7
97995.5
97995.7
97996.1
97996.9
97998
97999.5
98001.3
98003.5
98006
98008.8
98012
98015.5
98019.3
98023.3
98027.7
98032.2
98036.9
98041.8
98046.7
98051.8
98056.9
98061.9
98067
98072
98076.9
98081.7
98086.3
98090.8
98095
98099
98102.8
98106.3
98109.6
98112.5
98115.1
98117.5
98119.5
98121.3
98122.7
98123.8
98124.7
98125.2
98125.6
98125.8
98125.7
98125.4
98124.9
98124.2
98123.4
98122.4
98121.2
98119.9
98118.3
98116.6
98114.7
98112.6
98110.1
98107.4
98104.2
98100.8
98096.9
98092.6
98087.8
98082.5
98076.6
98070.3
98063.5
98056.2
98048.6
98040.7
98032.6
98024.4
98016.2
98008.2
98000.7
97993.7
97987.4
97982
97977.8
97974.8
97973.3
97973.4
97975
97978.4
97983.6
97990.4
97999
98009.3
98021.5
98035.1
98050.2
98066.4
98083.9
98102.2
98121.4
98141.4
98161.6
98181.5
98201.4
98220.1
98237.8
98254.3
98269.2
98282.1
98292.4
98299.9
98305.2
98307.6
98307.8
98305.3
98300.4
98292
98281.5
98267.3
98251.9
98233.3
98214.2
98191.4
98170.3
98145.3
98122.5
98095.4
98095.6
98095.7
98095.5
98095.2
98094.8
98094.3
98093.6
98092.8
98091.9
98090.8
98089.6
98088.3
98086.9
98085.5
98083.9
98082.3
98080.7
98079
98077.3
98075.5
98073.6
98071.8
98069.8
98067.9
98065.8
98063.7
98061.6
98059.4
98057.2
98054.9
98052.6
98050.2
98047.8
98045.4
98042.9
98040.3
98037.8
98035.1
98032.4
98029.7
98027
98024.3
98021.5
98018.8
98016.1
98013.5
98010.9
98008.4
98006
98003.7
98001.5
97999.5
97997.7
97996
97994.6
97993.3
97992.4
97991.7
97991.3
97991.1
97991.3
97991.8
97992.5
97993.6
97995
97996.7
97998.8
98001.1
98003.7
98006.6
98009.8
98013.2
98016.9
98020.7
98024.6
98028.7
98032.9
98037.1
98041.3
98045.5
98049.7
98053.8
98057.7
98061.5
98065.1
98068.5
98071.7
98074.7
98077.4
98079.8
98082
98083.8
98085.4
98086.7
98087.6
98088.3
98088.7
98088.8
98088.7
98088.3
98087.7
98086.9
98085.9
98084.7
98083.4
98081.9
98080.2
98078.4
98076.4
98074.2
98071.9
98069.4
98066.7
98063.8
98060.5
98057
98053.1
98048.8
98044.1
98039
98033.4
98027.3
98020.6
98013.4
98005.7
97997.5
97988.9
97979.9
97970.7
97961.2
97951.7
97942.3
97933.1
97924.4
97916.2
97908.9
97902.5
97897.3
97893.5
97891.1
97890.2
97891
97893.6
97897.7
97903.6
97911
97920.2
97930.8
97942.9
97956
97970.3
97985.3
98001.2
98017.7
98034.4
98050.8
98067
98081.9
98095.7
98108.5
98119.7
98129.3
98136.5
98141.2
98144.1
98144.3
98142.9
98139.7
98135
98127.8
98119.2
98107.9
98095.9
98081.2
98066.8
98049.2
98033.7
98014.6
97998.5
98087
98087.2
98087.3
98087.3
98087.2
98087
98086.7
98086.2
98085.7
98085.1
98084.3
98083.5
98082.6
98081.6
98080.6
98079.5
98078.3
98077.1
98075.8
98074.5
98073.1
98071.6
98070.1
98068.4
98066.7
98064.9
98063
98061.1
98059.1
98057
98054.8
98052.6
98050.3
98047.9
98045.5
98043
98040.4
98037.8
98035.1
98032.4
98029.6
98026.8
98024
98021.2
98018.3
98015.5
98012.8
98010.1
98007.4
98004.9
98002.5
98000.1
97998
97996
97994.1
97992.5
97991.2
97990
97989.1
97988.5
97988.1
97988
97988.2
97988.7
97989.5
97990.5
97991.9
97993.5
97995.4
97997.6
98000
98002.7
98005.6
98008.6
98011.8
98015.1
98018.5
98022
98025.5
98029
98032.4
98035.7
98039
98042
98044.9
98047.6
98050.1
98052.4
98054.3
98056
98057.5
98058.6
98059.5
98060
98060.3
98060.3
98059.9
98059.3
98058.4
98057.3
98056
98054.4
98052.7
98050.8
98048.7
98046.5
98044.1
98041.6
98038.9
98036.1
98033.1
98029.9
98026.6
98023.1
98019.3
98015.2
98010.8
98006.1
98001
97995.5
97989.5
97983.1
97976.1
97968.7
97960.7
97952.2
97943.2
97933.7
97923.8
97913.6
97903.2
97892.6
97881.9
97871.4
97861.1
97851.4
97842.4
97834.3
97827.2
97821.4
97817
97814
97812.6
97812.9
97814.7
97818.2
97823.1
97829.7
97837.6
97846.9
97857.3
97868.7
97880.8
97893.7
97906.9
97920.2
97933.2
97945.7
97956.9
97967.1
97976
97983.6
97989.6
97993.5
97995.3
97995.7
97993.5
97990.1
97985.7
97980.5
97973.7
97966.5
97957.2
97947.9
97936.5
97926.2
97913
97902.7
97888.7
97878.9
98081
98081.3
98081.5
98081.6
98081.6
98081.5
98081.4
98081.2
98081
98080.8
98080.4
98080
98079.6
98079.1
98078.5
98077.9
98077.2
98076.4
98075.6
98074.6
98073.6
98072.5
98071.2
98069.9
98068.4
98066.8
98065.1
98063.3
98061.4
98059.4
98057.3
98055.1
98052.8
98050.4
98047.9
98045.3
98042.7
98040
98037.2
98034.3
98031.4
98028.4
98025.5
98022.5
98019.5
98016.6
98013.6
98010.8
98008
98005.3
98002.7
98000.2
97997.9
97995.7
97993.7
97992
97990.4
97989.1
97988
97987.2
97986.7
97986.4
97986.4
97986.6
97987.1
97987.9
97989
97990.3
97991.9
97993.7
97995.7
97998
98000.4
98003
98005.7
98008.5
98011.3
98014.1
98017
98019.8
98022.6
98025.2
98027.7
98030
98032.1
98033.9
98035.6
98036.9
98038
98038.8
98039.3
98039.6
98039.5
98039.1
98038.4
98037.5
98036.2
98034.6
98032.8
98030.7
98028.4
98026
98023.3
98020.5
98017.6
98014.5
98011.2
98007.8
98004.2
98000.5
97996.6
97992.6
97988.4
97984
97979.3
97974.4
97969.1
97963.6
97957.6
97951.4
97944.6
97937.4
97929.6
97921.4
97912.7
97903.6
97893.8
97883.6
97873
97862
97850.7
97839.2
97827.5
97815.9
97804.5
97793.4
97783.1
97773.6
97765
97757.6
97751.4
97746.8
97743.5
97741.9
97741.7
97743.1
97745.8
97750.2
97755.7
97762.5
97770.4
97779.4
97788.9
97798.8
97808.9
97818.9
97828.7
97837.7
97845.4
97852
97857
97861
97863.2
97863.7
97862.4
97860.2
97855.6
97850.1
97844
97837.8
97830.9
97824.4
97816.4
97809.2
97800.5
97793.6
97784.2
97778.5
97769
97764.8
98076.7
98077
98077.2
98077.4
98077.5
98077.7
98077.9
98078.1
98078.3
98078.5
98078.7
98078.9
98079
98079
98079
98078.9
98078.6
98078.3
98077.9
98077.3
98076.6
98075.8
98074.9
98073.8
98072.5
98071.1
98069.6
98067.9
98066
98064
98061.9
98059.7
98057.3
98054.8
98052.2
98049.5
98046.8
98043.9
98040.9
98037.9
98034.8
98031.7
98028.5
98025.4
98022.2
98019
98015.9
98012.8
98009.9
98007
98004.2
98001.6
97999.1
97996.8
97994.7
97992.8
97991.1
97989.7
97988.5
97987.5
97986.8
97986.4
97986.2
97986.2
97986.6
97987.2
97988
97989.1
97990.4
97992
97993.7
97995.6
97997.7
97999.9
98002.1
98004.5
98006.8
98009.2
98011.5
98013.8
98015.9
98017.9
98019.7
98021.3
98022.7
98023.9
98024.7
98025.3
98025.6
98025.6
98025.3
98024.7
98023.7
98022.5
98021
98019.1
98017
98014.5
98011.8
98008.8
98005.6
98002.3
97998.7
97995
97991.2
97987.2
97983.1
97978.8
97974.3
97969.7
97965
97960.1
97954.9
97949.6
97944
97938.2
97932.2
97925.8
97919.1
97911.9
97904.4
97896.4
97888
97879.2
97869.9
97860
97849.7
97838.9
97827.7
97816.1
97804.1
97791.9
97779.5
97767
97754.7
97742.7
97731.4
97720.8
97710.9
97702.2
97694.7
97688.6
97683.8
97680.5
97678.6
97678.1
97679.2
97681.5
97685
97689.6
97695.4
97702.1
97709.2
97716.4
97723.4
97730.3
97736.9
97742.6
97747
97750.1
97751.4
97751.6
97750.1
97747.1
97742.7
97737.5
97730.5
97722.9
97714.9
97707.5
97700.1
97693.7
97686.4
97680.8
97674.1
97669.9
97663.6
97661.9
97656.5
97657.1
98073
98073.1
98073.4
98073.5
98073.8
98074.3
98074.9
98075.7
98076.5
98077.5
98078.3
98079.2
98080
98080.7
98081.3
98081.7
98082
98082.1
98082.1
98081.9
98081.5
98081
98080.3
98079.4
98078.3
98077
98075.6
98073.9
98072.1
98070.1
98067.9
98065.6
98063.2
98060.6
98057.9
98055.1
98052.1
98049.1
98046
98042.7
98039.5
98036.1
98032.8
98029.4
98026
98022.7
98019.4
98016.1
98013
98009.9
98007
98004.3
98001.6
97999.2
97997
97995
97993.2
97991.6
97990.3
97989.2
97988.4
97987.9
97987.6
97987.5
97987.7
97988.2
97988.9
97989.8
97990.9
97992.2
97993.7
97995.4
97997.2
97999
98001
98002.9
98004.9
98006.8
98008.7
98010.4
98012
98013.5
98014.7
98015.8
98016.5
98017
98017.2
98017.1
98016.7
98016
98014.9
98013.5
98011.8
98009.8
98007.4
98004.7
98001.8
97998.5
97995
97991.2
97987.1
97982.9
97978.5
97974
97969.3
97964.5
97959.5
97954.3
97949
97943.5
97937.9
97932.1
97926.1
97919.9
97913.4
97906.8
97899.9
97892.7
97885.2
97877.4
97869.1
97860.5
97851.5
97842.1
97832.2
97821.8
97811
97799.7
97788.1
97776
97763.5
97750.7
97737.7
97724.7
97711.7
97699.1
97687
97675.5
97664.7
97654.9
97646.2
97638.9
97632.7
97628
97624.7
97622.8
97622.3
97623
97624.7
97627.4
97631.2
97635.7
97640.7
97645.2
97649.5
97653.4
97657
97659.6
97660.7
97660.4
97658.1
97654.5
97649.4
97643.1
97635.4
97627.2
97617.8
97608
97598.1
97589.3
97581
97574.4
97567.5
97563
97557.7
97555.7
97551.9
97553.7
97551.8
97556.8
98068.1
98068.1
98068.2
98068.5
98069.2
98070.5
98071.9
98073.7
98075.5
98077.3
98079.1
98080.7
98082.3
98083.7
98084.9
98085.8
98086.6
98087.2
98087.5
98087.6
98087.5
98087.2
98086.7
98086
98085
98083.8
98082.4
98080.8
98079
98077
98074.8
98072.4
98069.9
98067.2
98064.3
98061.4
98058.3
98055.1
98051.8
98048.4
98044.9
98041.4
98037.8
98034.3
98030.7
98027.2
98023.7
98020.4
98017.1
98013.9
98010.8
98007.9
98005.2
98002.7
98000.4
97998.2
97996.4
97994.7
97993.3
97992.2
97991.3
97990.7
97990.3
97990.2
97990.3
97990.6
97991.2
97992
97993
97994.2
97995.5
97997
97998.5
98000.1
98001.7
98003.4
98005
98006.5
98008
98009.3
98010.4
98011.4
98012.2
98012.6
98012.8
98012.8
98012.4
98011.6
98010.6
98009.2
98007.4
98005.3
98002.9
98000.1
97997
97993.6
97989.9
97985.9
97981.6
97977
97972.2
97967.2
97962
97956.6
97951.1
97945.5
97939.7
97933.7
97927.6
97921.3
97914.9
97908.2
97901.4
97894.3
97887.1
97879.7
97872
97864.1
97855.9
97847.4
97838.5
97829.3
97819.7
97809.8
97799.5
97788.7
97777.5
97765.9
97753.9
97741.5
97728.5
97715.4
97702
97688.5
97675.2
97662.2
97649.5
97637.3