/*--------------------------------*- C++ -*----------------------------------*\
| =========                 |                                                 |
| \\      /  F ield         | OpenFOAM: The Open Source CFD Toolbox           |
|  \\    /   O peration     | Version:  dev                                   |
|   \\  /    A nd           | Web:      http://www.openfoam.org               |
|    \\/     M anipulation  |                                                 |
\*---------------------------------------------------------------------------*/
FoamFile
{
    version     2.0;
    format      ascii;
    class       volScalarField;
    object      rho;
    location    "9.131";
}
// * * * * * * * * * * * * * * * * * * * * * * * * * * * * * * * * * * * * * //

dimensions      [1 -3 0 0 0 0 0];

internalField   nonuniform List<scalar> 
12225
(
1.10036
1.10315
1.10381
1.10369
1.10364
1.10313
1.10241
1.1022
1.10078
1.10126
1.09917
1.10041
1.09756
1.09928
1.09733
1.09779
1.09585
1.09625
1.10142
1.10732
1.10911
1.11015
1.11086
1.1116
1.11043
1.11161
1.10801
1.11131
1.10506
1.11058
1.10238
1.1072
1.10466
1.10613
1.10164
1.105
1.10179
1.10805
1.10973
1.11133
1.11246
1.11406
1.1139
1.11595
1.11239
1.11741
1.10971
1.1161
1.10853
1.11131
1.10768
1.10978
1.10636
1.10852
1.10162
1.10806
1.10993
1.11097
1.11297
1.11321
1.1149
1.11566
1.11434
1.11689
1.11295
1.11596
1.11276
1.11316
1.11205
1.10558
1.11294
1.10876
1.10191
1.10779
1.1111
1.11005
1.11409
1.11156
1.1152
1.11379
1.11445
1.11542
1.11238
1.11574
1.11103
1.11544
1.11156
1.11048
1.11418
1.10691
1.10298
1.10763
1.11158
1.10954
1.11471
1.11087
1.11606
1.11238
1.11594
1.11376
1.11418
1.11406
1.11199
1.11338
1.10976
1.11637
1.11103
1.10965
1.10302
1.108
1.11208
1.10993
1.11528
1.11094
1.11727
1.11267
1.11695
1.11493
1.11565
1.11509
1.11555
1.11295
1.11416
1.11299
1.10986
1.11157
1.10411
1.10832
1.11286
1.10979
1.11551
1.11127
1.11752
1.11348
1.11727
1.11512
1.11588
1.11537
1.116
1.11502
1.11519
1.1129
1.1137
1.11386
1.10513
1.10859
1.11376
1.10993
1.11645
1.11173
1.11797
1.11353
1.11861
1.1141
1.11754
1.11474
1.11567
1.11566
1.11416
1.11474
1.11529
1.11299
1.1056
1.10944
1.11476
1.11048
1.11744
1.11241
1.11837
1.11425
1.11923
1.1146
1.11863
1.11491
1.11647
1.11636
1.11637
1.11502
1.11474
1.11378
1.10681
1.11046
1.11537
1.11165
1.11761
1.11334
1.11843
1.1149
1.11891
1.11508
1.1185
1.11517
1.11697
1.11586
1.11768
1.11481
1.11429
1.11463
1.10855
1.1123
1.11647
1.11318
1.11797
1.11453
1.11834
1.11571
1.11829
1.11578
1.11758
1.1157
1.11651
1.11576
1.1166
1.11479
1.11468
1.11508
1.11045
1.11437
1.11771
1.11505
1.11841
1.11567
1.11812
1.11636
1.11774
1.11647
1.11701
1.11609
1.116
1.11581
1.11581
1.11504
1.1147
1.11503
1.11285
1.11753
1.11945
1.11769
1.11957
1.11773
1.11895
1.11758
1.11783
1.11703
1.11673
1.11637
1.11617
1.11608
1.1155
1.11559
1.11526
1.11527
1.11625
1.12162
1.12226
1.12099
1.12142
1.12012
1.12037
1.11941
1.11907
1.11839
1.11796
1.11747
1.11705
1.11693
1.11656
1.11639
1.11586
1.11624
1.12105
1.12685
1.1265
1.12533
1.12477
1.12377
1.1233
1.12238
1.1217
1.12096
1.12041
1.11975
1.11943
1.11888
1.11855
1.11832
1.11807
1.11781
1.12682
1.13306
1.13244
1.1313
1.13043
1.1295
1.1286
1.12764
1.12667
1.12583
1.12502
1.12425
1.12382
1.12313
1.12293
1.12245
1.12212
1.12206
1.13352
1.14039
1.14013
1.13887
1.138
1.13703
1.1361
1.13531
1.13438
1.13361
1.13272
1.13209
1.13136
1.13089
1.13039
1.13003
1.12977
1.12947
1.13995
1.14805
1.14817
1.14719
1.14661
1.14593
1.14513
1.14453
1.14389
1.1431
1.14244
1.14185
1.14105
1.14072
1.14003
1.13978
1.13931
1.13906
1.14594
1.15487
1.15534
1.15504
1.15492
1.15475
1.15434
1.15415
1.15369
1.15313
1.15269
1.15205
1.15154
1.15102
1.15045
1.14995
1.14956
1.14895
1.1502
1.16042
1.16149
1.16168
1.16204
1.16221
1.1626
1.16268
1.1626
1.16252
1.16203
1.16164
1.16125
1.16059
1.16026
1.15953
1.15914
1.15845
1.15358
1.16507
1.16687
1.16757
1.16834
1.16895
1.16957
1.1698
1.17019
1.17016
1.17003
1.16975
1.16933
1.16878
1.16823
1.16754
1.16688
1.16624
1.15651
1.16864
1.1709
1.17218
1.17344
1.17468
1.1754
1.17619
1.17657
1.17679
1.17673
1.1765
1.17607
1.17558
1.17489
1.17426
1.17353
1.17278
1.15892
1.17135
1.17385
1.17547
1.17713
1.17844
1.17982
1.18066
1.18131
1.1816
1.18155
1.18129
1.18096
1.18037
1.1799
1.17919
1.17858
1.17787
1.16038
1.17323
1.17621
1.17824
1.1802
1.18199
1.1832
1.18418
1.18478
1.18504
1.18512
1.18492
1.18457
1.18413
1.18354
1.18296
1.18227
1.18155
1.16149
1.1748
1.17783
1.18001
1.18219
1.18396
1.18539
1.18636
1.18706
1.18752
1.18774
1.18773
1.1875
1.18705
1.18648
1.18575
1.18496
1.18408
1.16248
1.17581
1.17904
1.18131
1.18359
1.18551
1.187
1.18806
1.18879
1.18923
1.18944
1.18941
1.18916
1.18866
1.18801
1.18716
1.1862
1.18513
1.1626
1.17626
1.17965
1.18202
1.18441
1.18649
1.18816
1.18939
1.19021
1.1906
1.19062
1.19028
1.1896
1.18866
1.18754
1.1862
1.18483
1.18333
1.1626
1.17684
1.18032
1.1826
1.1849
1.18686
1.18824
1.18899
1.18913
1.18871
1.18792
1.18684
1.18554
1.18415
1.18266
1.18118
1.17974
1.17829
1.16075
1.17128
1.17352
1.175
1.17622
1.17692
1.17714
1.17699
1.1766
1.17602
1.17531
1.17455
1.17373
1.1729
1.17206
1.17126
1.17052
1.17012
1.13135
1.16574
1.17522
1.17318
1.16962
1.16696
1.16475
1.16264
1.16015
1.15723
1.15398
1.15064
1.14709
1.14334
1.13924
1.13489
1.13046
1.1258
1.1195
1.11329
1.112
1.11303
1.11232
1.11147
1.11108
1.11057
1.11008
1.10966
1.10949
1.10961
1.1098
1.1101
1.11046
1.11091
1.1114
1.11188
1.1123
1.11263
1.11284
1.11298
1.11305
1.11313
1.11317
1.11322
1.11332
1.11348
1.11371
1.11407
1.11451
1.11495
1.1153
1.11562
1.11593
1.11633
1.11701
1.1178
1.1186
1.1192
1.11966
1.11996
1.12016
1.1202
1.11999
1.11968
1.11955
1.11989
1.12077
1.12206
1.12341
1.12451
1.12588
1.1279
1.1302
1.13224
1.13471
1.13864
1.1439
1.14976
1.15466
1.1562
1.15413
1.15274
1.15427
1.15626
1.16223
1.16934
1.17607
1.18466
1.19001
1.18807
1.1743
1.15831
1.15063
1.15113
1.14617
1.15313
1.17092
1.16852
1.16082
1.16038
1.16475
1.16854
1.16197
1.1462
1.13166
1.12684
1.1301
1.1366
1.151
1.18343
1.20343
1.15698
1.16971
1.1765
1.16999
1.17097
1.16816
1.16635
1.16532
1.16417
1.16191
1.15894
1.15575
1.15261
1.1496
1.14684
1.14359
1.14146
1.13879
1.13633
1.13258
1.12855
1.12573
1.12422
1.12427
1.12526
1.12682
1.12679
1.12762
1.12987
1.13308
1.1362
1.13798
1.13954
1.14185
1.14674
1.15447
1.15928
1.15944
1.15588
1.14802
1.13976
1.14682
1.16187
1.17529
1.18875
1.20069
1.20772
1.21128
1.21346
1.21668
1.20247
1.1941
1.19448
1.19098
1.19967
1.19596
1.18866
1.18295
1.17538
1.17047
1.16296
1.16146
1.15958
1.16091
1.16081
1.16361
1.16403
1.16669
1.16068
1.13323
1.17532
1.17785
1.17143
1.17152
1.17207
1.16978
1.16576
1.16122
1.15804
1.1563
1.15571
1.15379
1.14888
1.14094
1.13347
1.1296
1.12985
1.12931
1.12653
1.12689
1.12719
1.12344
1.12062
1.11941
1.11797
1.11751
1.11782
1.11709
1.11703
1.11798
1.11864
1.11954
1.12037
1.12093
1.12081
1.12105
1.12076
1.12025
1.11988
1.1194
1.11915
1.11857
1.11809
1.11778
1.11748
1.11738
1.11764
1.11794
1.11808
1.11799
1.11799
1.11821
1.11903
1.12117
1.12337
1.12535
1.12786
1.13079
1.13226
1.13194
1.13164
1.1332
1.13595
1.13713
1.13541
1.13316
1.13423
1.13925
1.14257
1.13918
1.1352
1.1397
1.14848
1.1512
1.15079
1.15392
1.16014
1.16789
1.17723
1.18261
1.1841
1.20125
1.20776
1.19687
1.19174
1.19452
1.2114
1.23272
1.23957
1.21233
1.18701
1.18465
1.19565
1.20361
1.18798
1.17972
1.17963
1.18575
1.20329
1.21179
1.1995
1.17777
1.15892
1.15399
1.16095
1.1684
1.16745
1.16512
1.17006
1.16813
1.14008
1.13265
1.1559
1.14308
1.15062
1.14739
1.14762
1.15176
1.161
1.16531
1.16545
1.16708
1.17306
1.17697
1.18054
1.18571
1.18811
1.191
1.19596
1.19602
1.19461
1.19838
1.20499
1.21034
1.21141
1.20975
1.20608
1.20109
1.19663
1.19926
1.21125
1.22079
1.22461
1.2256
1.23041
1.2443
1.25627
1.2481
1.22456
1.20776
1.21537
1.2307
1.23876
1.24815
1.25256
1.25436
1.25659
1.26761
1.26212
1.2629
1.23784
1.21135
1.20659
1.16971
1.2159
1.23416
1.24622
1.25759
1.26391
1.26827
1.25722
1.25177
1.24805
1.25291
1.24981
1.25573
1.25446
1.26905
1.25812
1.12607
1.16131
1.16184
1.16435
1.16507
1.16402
1.16694
1.16902
1.16553
1.15884
1.1492
1.14191
1.13535
1.12931
1.12917
1.13108
1.12927
1.12586
1.1254
1.12389
1.11829
1.11599
1.11449
1.113
1.11303
1.11417
1.11414
1.11431
1.1155
1.11656
1.11848
1.12047
1.12233
1.12289
1.12471
1.12612
1.12594
1.12745
1.12777
1.1269
1.12657
1.12614
1.12554
1.12363
1.12276
1.12115
1.11941
1.11793
1.11623
1.11402
1.11129
1.10851
1.10658
1.10617
1.10714
1.10791
1.10947
1.11461
1.12055
1.12209
1.1198
1.11947
1.12458
1.13097
1.13148
1.12645
1.12455
1.13049
1.13699
1.13705
1.13531
1.13976
1.14778
1.14568
1.14052
1.14799
1.16181
1.16863
1.1632
1.15529
1.14256
1.12903
1.15803
1.20133
1.20497
1.20221
1.21655
1.23216
1.22972
1.22226
1.22625
1.23071
1.24061
1.25434
1.23978
1.20542
1.1853
1.17213
1.17787
1.18717
1.18063
1.17014
1.16247
1.15997
1.15925
1.15133
1.13665
1.12555
1.12526
1.13016
1.13484
1.13514
1.12033
1.13465
1.12226
1.12565
1.12091
1.11789
1.11811
1.12926
1.13618
1.13572
1.1348
1.13725
1.14484
1.14847
1.15124
1.15936
1.166
1.1706
1.1787
1.18361
1.18598
1.18988
1.19216
1.20087
1.21755
1.23696
1.25096
1.25654
1.24888
1.25282
1.26492
1.26602
1.27037
1.27955
1.28892
1.29145
1.26625
1.24
1.24104
1.24996
1.25477
1.25848
1.25769
1.2389
1.22055
1.22846
1.2629
1.25684
1.23971
1.21535
1.19472
1.20612
1.11995
1.17148
1.19021
1.20112
1.20413
1.22084
1.25197
1.27789
1.28761
1.28267
1.27922
1.26785
1.28171
1.28257
1.30295
1.317
1.11883
1.15223
1.15609
1.15634
1.15641
1.15822
1.16526
1.17323
1.16498
1.14717
1.13841
1.13331
1.13387
1.13683
1.13244
1.12761
1.12482
1.12127
1.11717
1.1139
1.11109
1.11053
1.11211
1.11253
1.11648
1.11949
1.12226
1.12513
1.13018
1.13356
1.13656
1.13994
1.143
1.1458
1.14637
1.14808
1.14899
1.14882
1.14801
1.14815
1.14536
1.14305
1.14267
1.14064
1.13928
1.13829
1.13647
1.13457
1.13311
1.13132
1.12883
1.12371
1.11623
1.10971
1.1054
1.10319
1.10326
1.10779
1.11114
1.10918
1.10654
1.11008
1.11715
1.12161
1.11963
1.11425
1.11208
1.11825
1.13143
1.13969
1.13845
1.13402
1.13553
1.141
1.14313
1.13858
1.14783
1.16495
1.1601
1.17052
1.17897
1.1461
1.15242
1.19256
1.20251
1.21875
1.23465
1.23251
1.22188
1.21397
1.21109
1.20939
1.22239
1.22952
1.20936
1.18855
1.17805
1.177
1.18387
1.17661
1.16467
1.16186
1.16044
1.15991
1.15222
1.14202
1.13893
1.14935
1.15474
1.14955
1.13891
1.13355
1.13179
1.15211
1.14559
1.14234
1.13979
1.13445
1.1254
1.12731
1.13736
1.14086
1.14414
1.14778
1.15033
1.1501
1.14317
1.1407
1.1451
1.15053
1.16025
1.1733
1.17625
1.18413
1.18726
1.18399
1.1844
1.20146
1.22657
1.25237
1.2672
1.27762
1.29296
1.29207
1.29432
1.30699
1.30796
1.29607
1.27383
1.25388
1.26422
1.27756
1.27457
1.26549
1.23331
1.18763
1.16373
1.18226
1.21856
1.23419
1.31588
1.2434
1.19462
1.18592
1.10157
1.13507
1.18478
1.19569
1.18444
1.1752
1.18202
1.23262
1.28244
1.29179
1.25474
1.20738
1.20943
1.23831
1.27912
1.30534
1.11354
1.14378
1.15409
1.15491
1.15787
1.1687
1.17607
1.16286
1.14896
1.14634
1.14211
1.13219
1.13244
1.13107
1.12555
1.12053
1.11415
1.11132
1.10986
1.10765
1.11024
1.11319
1.11967
1.12545
1.13126
1.13558
1.13996
1.14511
1.14959
1.15243
1.15424
1.1557
1.15508
1.15478
1.15344
1.15218
1.15019
1.14746
1.14552
1.14311
1.13931
1.13761
1.13516
1.13396
1.13417
1.13483
1.13475
1.13548
1.13527
1.13616
1.13772
1.1385
1.13551
1.12885
1.12182
1.11653
1.11168
1.10911
1.10703
1.1031
1.10178
1.10704
1.11161
1.10966
1.10628
1.10664
1.11049
1.11699
1.12874
1.13929
1.14265
1.13734
1.1309
1.13337
1.14227
1.14942
1.15291
1.14949
1.15061
1.1734
1.16773
1.14483
1.1679
1.20035
1.20932
1.22533
1.23255
1.21872
1.20571
1.20117
1.19573
1.19475
1.20736
1.20427
1.18803
1.18269
1.17999
1.18908
1.19024
1.16991
1.15728
1.1556
1.15034
1.14833
1.14373
1.13816
1.13142
1.12948
1.11233
1.10911
1.12059
1.13382
1.08328
1.12438
1.14126
1.14419
1.14139
1.13778
1.12973
1.11311
1.1134
1.11613
1.12746
1.1459
1.15
1.14949
1.15091
1.14549
1.13499
1.13481
1.14543
1.1532
1.14112
1.14776
1.17534
1.18742
1.17893
1.1803
1.19399
1.21094
1.24347
1.27889
1.30796
1.31217
1.31059
1.32039
1.31581
1.29658
1.27944
1.26945
1.27393
1.2794
1.27858
1.26197
1.21237
1.15633
1.13985
1.15574
1.115
1.0996
1.29642
1.32513
1.29033
1.2173
1.14279
1.10069
1.14146
1.17588
1.17211
1.15284
1.13336
1.17966
1.24491
1.28419
1.23661
1.17208
1.14302
1.15209
1.22115
1.26682
1.11046
1.13704
1.14867
1.15319
1.16073
1.16692
1.16905
1.1577
1.1516
1.14507
1.13251
1.13011
1.12219
1.11301
1.10949
1.11287
1.11346
1.11122
1.11157
1.1165
1.12496
1.13192
1.13876
1.14708
1.1537
1.1562
1.15738
1.15892
1.15671
1.15566
1.15369
1.15126
1.14969
1.14746
1.14648
1.14655
1.14488
1.14399
1.14498
1.14381
1.14286
1.14257
1.14011
1.13873
1.13669
1.13483
1.13451
1.13438
1.13498
1.13512
1.13554
1.13762
1.14192
1.14452
1.14453
1.14026
1.13538
1.12813
1.12359
1.11917
1.11536
1.1143
1.11096
1.10599
1.10762
1.11314
1.11474
1.11356
1.11587
1.12178
1.13136
1.13938
1.1429
1.1511
1.16262
1.15872
1.13616
1.12882
1.15393
1.17294
1.15471
1.14384
1.16813
1.19631
1.21186
1.2294
1.23671
1.22641
1.21249
1.19998
1.19015
1.19481
1.21192
1.20934
1.20238
1.19839
1.18954
1.18706
1.16579
1.13307
1.11933
1.11241
1.10061
1.09849
1.10289
1.10881
1.11104
1.12083
1.11992
1.12035
1.11013
1.09735
1.0832
1.0824
1.10495
1.13825
1.14503
1.1447
1.14852
1.13381
1.11556
1.10445
1.09548
1.11281
1.13662
1.14233
1.15395
1.17777
1.17038
1.14989
1.1664
1.19171
1.16824
1.13395
1.14558
1.16577
1.16781
1.17543
1.1841
1.1761
1.19712
1.25096
1.30155
1.31999
1.31994
1.32723
1.32077
1.29984
1.2832
1.27766
1.27645
1.28486
1.28713
1.25742
1.22145
1.20923
1.2256
1.24754
1.18091
1.13499
1.14152
1.3005
1.27261
1.20382
1.13551
1.14653
1.15127
1.18372
1.18295
1.15465
1.10211
1.13784
1.20478
1.26062
1.2442
1.21129
1.18127
1.12505
1.15942
1.23568
1.10851
1.13346
1.14577
1.15314
1.16368
1.16273
1.16236
1.15432
1.13448
1.13186
1.12331
1.12435
1.131
1.12047
1.10765
1.11139
1.12297
1.1286
1.13153
1.13759
1.14236
1.14726
1.15417
1.15981
1.15719
1.15256
1.14891
1.14812
1.14572
1.14498
1.14503
1.14521
1.14807
1.1489
1.15025
1.15342
1.15522
1.15651
1.15797
1.15932
1.16088
1.16152
1.16166
1.16173
1.16055
1.15744
1.15327
1.14843
1.14491
1.1437
1.143
1.14136
1.13918
1.13921
1.14342
1.14368
1.14706
1.14531
1.14307
1.13922
1.13179
1.12692
1.12147
1.11477
1.11656
1.1188
1.11181
1.10595
1.10921
1.11869
1.13369
1.14946
1.15845
1.15536
1.14236
1.12878
1.12959
1.1524
1.16734
1.15036
1.13922
1.16163
1.19108
1.20683
1.22091
1.2373
1.24085
1.23043
1.21424
1.19806
1.18536
1.19778
1.22134
1.21174
1.18697
1.16615
1.15444
1.15013
1.12869
1.11334
1.11681
1.11548
1.1062
1.1
1.09687
1.09782
1.1007
1.11837
1.13169
1.13615
1.12736
1.10499
1.10997
1.08471
1.07141
1.10026
1.12044
1.13278
1.13286
1.14998
1.12896
1.11879
1.09927
1.07616
1.10891
1.1301
1.11816
1.14926
1.18404
1.16237
1.15512
1.18979
1.19944
1.17522
1.17047
1.16898
1.1564
1.16655
1.18193
1.16127
1.16138
1.22064
1.28809
1.32157
1.32601
1.33191
1.32692
1.30808
1.2896
1.28744
1.29668
1.32805
1.34221
1.31203
1.29166
1.25259
1.23735
1.23646
1.26078
1.20759
1.06163
1.23333
1.20905
1.13624
1.06422
1.11048
1.15006
1.19329
1.20533
1.18963
1.11112
1.11858
1.16173
1.20638
1.24228
1.26846
1.26995
1.16747
1.13295
1.21535
1.10612
1.12905
1.14511
1.15395
1.16432
1.16603
1.14814
1.13182
1.13213
1.13288
1.12289
1.11247
1.10958
1.1158
1.12497
1.1304
1.13124
1.13441
1.14234
1.15095
1.15333
1.15132
1.14684
1.1434
1.1417
1.14408
1.14579
1.14707
1.15079
1.15385
1.1565
1.15945
1.16097
1.16118
1.16287
1.16394
1.16277
1.16212
1.16123
1.16103
1.16093
1.16098
1.16135
1.16151
1.16286
1.16537
1.16577
1.16359
1.15784
1.15109
1.14488
1.14407
1.1448
1.14539
1.14401
1.14247
1.14212
1.14432
1.1426
1.14445
1.14507
1.14519
1.14345
1.13106
1.12847
1.12819
1.11069
1.10024
1.11304
1.13414
1.14209
1.13767
1.13201
1.1286
1.13295
1.14911
1.16088
1.1569
1.14258
1.13265
1.15283
1.19252
1.21583
1.22126
1.23219
1.24452
1.24628
1.23116
1.21314
1.19439
1.18174
1.20705
1.22895
1.1956
1.15316
1.13673
1.13647
1.13219
1.11556
1.11268
1.12358
1.12793
1.11918
1.10519
1.09356
1.08551
1.07877
1.0912
1.11227
1.13632
1.14325
1.13195
1.12725
1.11905
1.10674
1.10987
1.11144
1.12259
1.11419
1.12887
1.13502
1.10765
1.1087
1.07987
1.0733
1.12911
1.12847
1.11458
1.15349
1.16346
1.14795
1.17245
1.19292
1.1854
1.19422
1.1951
1.16682
1.17059
1.19033
1.16353
1.13832
1.19229
1.27061
1.31789
1.33013
1.33597
1.33305
1.31942
1.30269
1.30117
1.32503
1.3591
1.34259
1.31962
1.32102
1.25236
1.22232
1.18891
1.21145
1.17021
1.0791
1.16324
1.2124
1.13796
1.12568
1.14642
1.15847
1.18481
1.20439
1.20309
1.12787
1.11292
1.13431
1.17378
1.2374
1.27537
1.29024
1.18811
1.11988
1.1917
1.10411
1.12492
1.14416
1.15954
1.16603
1.15664
1.14776
1.14521
1.13502
1.13168
1.12378
1.12037
1.11693
1.11425
1.1188
1.12803
1.13532
1.13734
1.14117
1.14527
1.14575
1.14599
1.14824
1.15379
1.16079
1.16244
1.16039
1.1616
1.16411
1.16316
1.16227
1.16082
1.15911
1.15919
1.15974
1.16022
1.16008
1.15922
1.1573
1.15496
1.15356
1.15389
1.15411
1.15265
1.15173
1.15338
1.15823
1.16013
1.15786
1.15383
1.14763
1.14216
1.1362
1.14068
1.14042
1.14621
1.14034
1.14056
1.13535
1.13535
1.13785
1.136
1.14582
1.14566
1.14172
1.14511
1.12926
1.11344
1.11983
1.12334
1.11889
1.12454
1.13683
1.15154
1.15764
1.15262
1.14371
1.1335
1.13741
1.16053
1.19598
1.22592
1.23374
1.23077
1.24037
1.24548
1.24017
1.22945
1.21898
1.20215
1.19438
1.21578
1.22256
1.17225
1.14127
1.14026
1.14398
1.12613
1.10462
1.09797
1.10473
1.10108
1.09027
1.08158
1.08903
1.08736
1.07812
1.0702
1.07533
1.10705
1.11451
1.11516
1.09312
1.09866
1.11441
1.12625
1.13754
1.12829
1.13221
1.11176
1.13224
1.10747
1.08658
1.09459
1.06042
1.08504
1.12184
1.11534
1.1375
1.15598
1.14137
1.16186
1.1845
1.17457
1.19349
1.21274
1.18081
1.17555
1.1982
1.17516
1.13187
1.17312
1.25484
1.31134
1.3331
1.34162
1.34112
1.3338
1.32401
1.32242
1.34445
1.34997
1.30539
1.31572
1.31816
1.26625
1.27114
1.23214
1.23232
1.19695
1.11055
1.11524
1.16734
1.09454
1.09104
1.15549
1.17323
1.16385
1.16232
1.17509
1.13296
1.10882
1.12117
1.18575
1.24987
1.2576
1.26027
1.1837
1.1092
1.17218
1.10242
1.12149
1.14213
1.15654
1.16561
1.16918
1.14723
1.13298
1.12938
1.1338
1.13777
1.13537
1.13303
1.12821
1.13055
1.13858
1.14855
1.15032
1.14759
1.14278
1.13845
1.13596
1.13407
1.13509
1.14169
1.14955
1.15631
1.16023
1.15986
1.15582
1.15191
1.14912
1.14897
1.15309
1.15857
1.16338
1.16638
1.16676
1.16487
1.16218
1.15968
1.15861
1.15993
1.15977
1.15521
1.151
1.15338
1.16084
1.16578
1.16233
1.15526
1.15178
1.14656
1.14756
1.14219
1.14607
1.1427
1.14456
1.14382
1.13681
1.13808
1.12924
1.13076
1.1375
1.13458
1.14703
1.14994
1.13138
1.11601
1.10768
1.11474
1.14004
1.1592
1.15741
1.14627
1.13661
1.13984
1.15703
1.18211
1.21237
1.23559
1.24436
1.24334
1.23914
1.2447
1.24675
1.2352
1.22575
1.22169
1.21125
1.19511
1.21361
1.20908
1.16673
1.14919
1.15746
1.15508
1.13082
1.11643
1.10915
1.10832
1.09779
1.0959
1.09207
1.12069
1.12097
1.10482
1.0946
1.09886
1.12854
1.12834
1.10717
1.10256
1.09742
1.11285
1.11294
1.12481
1.12351
1.13253
1.11756
1.09914
1.11704
1.08662
1.09956
1.09788
1.08878
1.11712
1.11815
1.13485
1.16661
1.14948
1.1601
1.19631
1.18121
1.18679
1.21734
1.19449
1.18294
1.21055
1.19255
1.13612
1.16179
1.24299
1.30484
1.33428
1.34703
1.34858
1.34878
1.34468
1.34356
1.34905
1.32543
1.28813
1.30293
1.30008
1.29716
1.30249
1.24696
1.22952
1.18591
1.129
1.10515
1.15765
1.11315
1.12987
1.16039
1.16097
1.14783
1.12141
1.14407
1.13696
1.12206
1.13097
1.21695
1.25199
1.21665
1.20712
1.17978
1.10395
1.17152
1.10088
1.11822
1.14016
1.15997
1.16066
1.15896
1.15665
1.14161
1.13132
1.12187
1.1226
1.12616
1.13243
1.13488
1.13658
1.13922
1.14675
1.1519
1.15347
1.15273
1.14941
1.14641
1.14403
1.14183
1.14213
1.14475
1.14751
1.14898
1.14875
1.14784
1.14685
1.14634
1.14836
1.15339
1.1599
1.16595
1.16676
1.1634
1.15911
1.15543
1.15403
1.15322
1.15349
1.15579
1.1564
1.15254
1.14909
1.15077
1.15694
1.15753
1.15169
1.14178
1.1376
1.13824
1.14335
1.14624
1.1472
1.14265
1.14939
1.14393
1.14679
1.14852
1.138
1.13577
1.12554
1.13454
1.14883
1.1401
1.12805
1.11807
1.12072
1.14372
1.15663
1.14544
1.13535
1.14682
1.1712
1.20345
1.22756
1.24452
1.25243
1.25225
1.24745
1.2487
1.24886
1.24576
1.23795
1.2281
1.22725
1.21482
1.20429
1.21558
1.20402
1.1676
1.15843
1.161
1.12843
1.0986
1.09887
1.1075
1.10773
1.10072
1.10031
1.07927
1.09322
1.10242
1.09177
1.08753
1.10095
1.13404
1.13303
1.10847
1.11612
1.1233
1.12898
1.13484
1.12208
1.11555
1.10407
1.12808
1.08391
1.0899
1.09546
1.10084
1.1081
1.09779
1.12965
1.13582
1.13127
1.18122
1.17597
1.15723
1.19335
1.19007
1.18873
1.2256
1.21116
1.1888
1.21781
1.20869
1.14816
1.15807
1.23392
1.29884
1.33541
1.35465
1.35667
1.36238
1.35777
1.35523
1.3539
1.31223
1.29226
1.31911
1.32158
1.34054
1.3192
1.25883
1.23569
1.18069
1.13718
1.11073
1.15895
1.10409
1.14713
1.17602
1.14707
1.13308
1.11607
1.14668
1.14427
1.14333
1.14741
1.22732
1.22679
1.16901
1.16866
1.17791
1.11053
1.17946
1.09934
1.11442
1.13441
1.15809
1.16829
1.16125
1.15847
1.15019
1.14206
1.1349
1.12859
1.12549
1.12566
1.12833
1.13375
1.13869
1.1433
1.14771
1.14857
1.14714
1.14542
1.14398
1.14262
1.14145
1.14079
1.14206
1.14581
1.14943
1.15182
1.15293
1.15229
1.15078
1.15164
1.15633
1.16121
1.16406
1.16216
1.15607
1.15006
1.14596
1.14684
1.15078
1.15137
1.14848
1.14601
1.14565
1.14556
1.14783
1.15205
1.15083
1.14659
1.1411
1.14427
1.13891
1.13921
1.13911
1.14778
1.14076
1.14588
1.14467
1.13845
1.14557
1.1465
1.14511
1.13178
1.12847
1.14346
1.14301
1.13453
1.12195
1.11584
1.14252
1.15647
1.14159
1.13875
1.16452
1.20097
1.22951
1.24623
1.25493
1.256
1.25582
1.2524
1.25377
1.25498
1.2485
1.23621
1.22545
1.22544
1.22182
1.21395
1.22221
1.20668
1.17918
1.17679
1.15899
1.10685
1.08433
1.10186
1.12295
1.11602
1.10329
1.10189
1.0834
1.0776
1.09681
1.09407
1.08045
1.09394
1.13403
1.11571
1.09655
1.10028
1.12173
1.11656
1.11449
1.1097
1.1191
1.0869
1.10796
1.10698
1.09222
1.11083
1.13515
1.14038
1.1139
1.14011
1.16963
1.13795
1.1732
1.19214
1.16404
1.19336
1.19832
1.18581
1.22494
1.22683
1.19936
1.22609
1.22649
1.16337
1.15907
1.22857
1.29284
1.33604
1.36236
1.36705
1.37413
1.36745
1.36473
1.36782
1.32607
1.31491
1.34597
1.35023
1.38114
1.35814
1.29795
1.27393
1.20193
1.14373
1.12038
1.16381
1.11872
1.15354
1.15998
1.13414
1.12673
1.13217
1.16674
1.1513
1.16964
1.1806
1.2433
1.19487
1.14446
1.16369
1.18413
1.15013
1.20008
1.09782
1.11057
1.12918
1.14866
1.16596
1.16409
1.15796
1.15626
1.15124
1.1471
1.14153
1.13747
1.13427
1.13197
1.1296
1.12968
1.13092
1.13399
1.13678
1.13901
1.13974
1.13969
1.14235
1.14527
1.1453
1.14424
1.14373
1.14442
1.14623
1.14831
1.15062
1.15215
1.15379
1.1588
1.1637
1.16499
1.16278
1.15745
1.15338
1.15355
1.15505
1.15796
1.16209
1.16338
1.15891
1.15148
1.14604
1.14441
1.14368
1.14682
1.1486
1.14213
1.1402
1.144
1.14922
1.14621
1.15347
1.14849
1.14754
1.14903
1.1449
1.13967
1.14121
1.14558
1.13968
1.13236
1.14092
1.14154
1.1349
1.12213
1.11127
1.13573
1.16138
1.14257
1.14055
1.17622
1.2187
1.24146
1.25271
1.25662
1.25954
1.25964
1.25987
1.25897
1.25662
1.25056
1.23491
1.21556
1.21353
1.22015
1.2208
1.22339
1.19789
1.1778
1.16617
1.12339
1.08635
1.08766
1.11263
1.12665
1.10516
1.08934
1.10841
1.10947
1.10613
1.12477
1.11043
1.08293
1.11192
1.15364
1.12655
1.11247
1.12561
1.13094
1.12198
1.10319
1.08342
1.09858
1.09236
1.09766
1.1165
1.1193
1.12783
1.15059
1.16863
1.13597
1.14073
1.19503
1.16629
1.17724
1.20064
1.16172
1.18059
1.1961
1.18052
1.22256
1.2391
1.20817
1.23075
1.24106
1.18007
1.16355
1.22643
1.28706
1.33422
1.36832
1.37838
1.38168
1.37769
1.38266
1.38375
1.34663
1.34245
1.36514
1.36653
1.40928
1.37875
1.31746
1.29866
1.19908
1.13787
1.12521
1.15261
1.1287
1.16858
1.16216
1.14108
1.14641
1.15023
1.20394
1.17183
1.18081
1.18822
1.21983
1.14824
1.1472
1.18186
1.21242
1.20935
1.22291
1.09644
1.10672
1.12287
1.13913
1.15694
1.1645
1.16011
1.15587
1.15275
1.15023
1.14841
1.14713
1.14529
1.14469
1.14267
1.14043
1.13737
1.13585
1.13466
1.1341
1.13529
1.13614
1.14023
1.14531
1.15106
1.15675
1.15773
1.15261
1.14496
1.13885
1.13714
1.141
1.14818
1.1552
1.16004
1.16118
1.15899
1.15613
1.1539
1.15487
1.15948
1.16014
1.1574
1.15285
1.15056
1.14873
1.14389
1.14384
1.14676
1.14369
1.14063
1.14275
1.14254
1.14464
1.1486
1.14478
1.14947
1.15101
1.14926
1.14931
1.15006
1.14898
1.14324
1.1484
1.1467
1.13735
1.14153
1.14035
1.13663
1.12524
1.11125
1.12689
1.16244
1.15397
1.1387
1.17137
1.22181
1.24478
1.25122
1.2585
1.25972
1.26059
1.26169
1.25913
1.25773
1.25452
1.23939
1.21439
1.21312
1.21852
1.22414
1.21865
1.19495
1.17532
1.14909
1.08887
1.07132
1.09319
1.11813
1.12589
1.11999
1.11718
1.14627
1.13184
1.11049
1.11389
1.09684
1.08289
1.12085
1.15375
1.11198
1.10444
1.13462
1.12186
1.11123
1.09177
1.09001
1.09581
1.10932
1.13584
1.14646
1.15572
1.1632
1.17856
1.19753
1.16396
1.15513
1.21304
1.18244
1.17446
1.2062
1.17221
1.18377
1.19417
1.16295
1.20517
1.24027
1.21358
1.23385
1.25206
1.19564
1.16982
1.22452
1.28327
1.33173
1.37453
1.38965
1.38772
1.38695
1.40519
1.39512
1.35837
1.35981
1.36947
1.36422
1.42319
1.40641
1.3508
1.3097
1.19381
1.14621
1.14237
1.16285
1.14189
1.15602
1.15324
1.1381
1.15624
1.15235
1.23145
1.16032
1.1352
1.15723
1.15148
1.13321
1.18488
1.21864
1.25718
1.24386
1.23116
1.09546
1.10424
1.11834
1.13022
1.14136
1.15264
1.15935
1.15989
1.15835
1.15265
1.14633
1.14139
1.13879
1.13817
1.13937
1.14017
1.14022
1.14101
1.13991
1.13786
1.136
1.13391
1.13363
1.13274
1.1334
1.13706
1.1406
1.13876
1.1316
1.12585
1.12953
1.13904
1.14816
1.15568
1.16066
1.16328
1.16091
1.15674
1.15794
1.16087
1.1634
1.16483
1.16249
1.15732
1.14836
1.14239
1.14236
1.13785
1.13769
1.14185
1.14269
1.14382
1.14221
1.14379
1.15305
1.15425
1.14796
1.14921
1.14398
1.14767
1.1422
1.14906
1.14026
1.14113
1.14236
1.13722
1.14385
1.14236
1.13521
1.13162
1.11514
1.12105
1.16033
1.16458
1.14229
1.16278
1.21176
1.24714
1.2473
1.25843
1.26016
1.25729
1.26043
1.25774
1.25466
1.25386
1.23895
1.21806
1.21651
1.22625
1.22907
1.21924
1.19488
1.18155
1.15065
1.09533
1.08584
1.09819
1.10414
1.09597
1.11137
1.10913
1.1152
1.09755
1.08844
1.11416
1.10597
1.09023
1.1203
1.14531
1.12433
1.11788
1.13953
1.11707
1.09531
1.07651
1.08509
1.10589
1.1342
1.16588
1.17467
1.18604
1.18598
1.19071
1.1982
1.1733
1.17228
1.21929
1.18285
1.16453
1.1901
1.15978
1.17985
1.19933
1.15509
1.18421
1.22935
1.20837
1.23021
1.25864
1.20774
1.17826
1.22381
1.28034
1.32905
1.38036
1.40091
1.39525
1.40079
1.42534
1.4033
1.36799
1.37371
1.37165
1.35329
1.4411
1.42397
1.35622
1.31252
1.19209
1.14893
1.14718
1.15506
1.14928
1.17042
1.16542
1.14087
1.16623
1.17122
1.23606
1.143
1.13556
1.19927
1.13726
1.18577
1.24616
1.25989
1.28752
1.25614
1.25676
1.09504
1.10439
1.12129
1.13253
1.13666
1.13836
1.14394
1.1504
1.15642
1.15827
1.1581
1.15539
1.14663
1.1352
1.13035
1.13058
1.13344
1.13727
1.14191
1.14602
1.14688
1.1466
1.14592
1.14527
1.14451
1.14537
1.14592
1.14535
1.14471
1.14546
1.15193
1.15664
1.15576
1.15524
1.15655
1.15816
1.15877
1.15906
1.15917
1.16308
1.16645
1.16337
1.15467
1.14654
1.14515
1.14505
1.14672
1.14929
1.14708
1.14591
1.14249
1.14191
1.1474
1.14808
1.14662
1.152
1.14462
1.14952
1.1445
1.15309
1.14567
1.15015
1.14571
1.14199
1.14635
1.13818
1.14423
1.15027
1.13785
1.1338
1.12268
1.11112
1.14751
1.17858
1.14787
1.15576
1.20259
1.24342
1.24663
1.25377
1.26762
1.25854
1.25155
1.25355
1.2549
1.25308
1.23914
1.21988
1.22033
1.22942
1.23
1.2205
1.19872
1.19319
1.16422
1.12245
1.11365
1.11402
1.11356
1.09579
1.11848
1.1167
1.11955
1.1256
1.12289
1.14377
1.13286
1.09924
1.13698
1.15291
1.12114
1.13109
1.12914
1.11603
1.09503
1.08108
1.09825
1.13299
1.17587
1.2004
1.19661
1.20437
1.19923
1.1979
1.18451
1.16496
1.17369
1.20018
1.16542
1.15817
1.18857
1.15844
1.17018
1.19092
1.14327
1.16503
1.21608
1.19852
1.22253
1.25875
1.21515
1.18545
1.22565
1.27563
1.32336
1.3812
1.40883
1.40306
1.41803
1.44209
1.41772
1.38641
1.39289
1.37148
1.34746
1.45238
1.42698
1.36497
1.30959
1.17531
1.14389
1.15589
1.16269
1.15558
1.16646
1.15799
1.13494
1.16789
1.19706
1.2404
1.18852
1.22076
1.29665
1.16922
1.25172
1.31376
1.30261
1.30256
1.27259
1.29821
1.09463
1.10099
1.10857
1.12773
1.14533
1.14455
1.14205
1.13979
1.14309
1.15044
1.15122
1.15114
1.15689
1.15865
1.1505
1.13872
1.12963
1.12452
1.12541
1.12818
1.13218
1.13658
1.1407
1.14419
1.14619
1.15104
1.15442
1.15494
1.15393
1.15313
1.15093
1.14488
1.14132
1.14701
1.15613
1.16026
1.16216
1.16496
1.16829
1.16825
1.16647
1.16145
1.15549
1.15162
1.14865
1.14527
1.13776
1.13606
1.13519
1.13547
1.143
1.14773
1.14988
1.15263
1.14885
1.14971
1.14517
1.14627
1.13918
1.14247
1.14405
1.14391
1.15152
1.14254
1.15028
1.13895
1.13676
1.15102
1.14379
1.13574
1.13325
1.11739
1.12501
1.17915
1.17067
1.14707
1.18786
1.23717
1.25041
1.24568
1.26381
1.26698
1.25062
1.24294
1.25164
1.25795
1.24552
1.22594
1.22943
1.23485
1.23157
1.21873
1.20423
1.20441
1.18908
1.14899
1.14136
1.1209
1.12409
1.12402
1.14246
1.12941
1.13464
1.14939
1.1298
1.13736
1.11131
1.09005
1.12273
1.15101
1.11853
1.13212
1.13601
1.10269
1.08897
1.07839
1.11166
1.15631
1.18977
1.20634
1.20359
1.19902
1.18076
1.18305
1.16579
1.15663
1.16725
1.18542
1.16106
1.16461
1.19501
1.1667
1.17345
1.18541
1.12944
1.14858
1.19983
1.18653
1.21472
1.25537
1.22083
1.19148
1.22956
1.27466
1.31959
1.38063
1.41553
1.41499
1.43107
1.45121
1.43849
1.40282
1.40564
1.3664
1.346
1.46661
1.42258
1.35257
1.28232
1.16073
1.15598
1.16572
1.16208
1.16719
1.16966
1.15319
1.13934
1.1805
1.2164
1.25815
1.26071
1.2905
1.35161
1.21368
1.29377
1.35545
1.35015
1.31608
1.28137
1.31268
1.09299
1.10354
1.15444
1.17374
1.14286
1.14487
1.14156
1.1497
1.14789
1.14188
1.15599
1.16309
1.15287
1.14992
1.15666
1.16253
1.16054
1.15277
1.14475
1.13659
1.13031
1.1289
1.13001
1.13032
1.13158
1.13291
1.13465
1.1367
1.13649
1.13611
1.13407
1.13493
1.14435
1.15789
1.16542
1.16528
1.16813
1.17124
1.17321
1.17014
1.15789
1.14712
1.14406
1.14612
1.14268
1.14107
1.14325
1.14354
1.14727
1.14914
1.14886
1.14659
1.14428
1.14321
1.14307
1.14465
1.14312
1.14573
1.14912
1.14449
1.14998
1.14176
1.14887
1.14027
1.14689
1.14578
1.13452
1.14975
1.14724
1.13449
1.13345
1.12936
1.11748
1.15346
1.19316
1.15968
1.16647
1.21705
1.2489
1.24481
1.25025
1.26746
1.25996
1.2424
1.24709
1.26535
1.26073
1.24438
1.24361
1.25087
1.24036
1.22374