/*--------------------------------*- C++ -*----------------------------------*\
| =========                 |                                                 |
| \\      /  F ield         | OpenFOAM: The Open Source CFD Toolbox           |
|  \\    /   O peration     | Version:  dev                                   |
|   \\  /    A nd           | Web:      http://www.openfoam.org               |
|    \\/     M anipulation  |                                                 |
\*---------------------------------------------------------------------------*/
FoamFile
{
    version     2.0;
    format      ascii;
    class       volVectorField;
    object      U;
    location    "9.131";
}
// * * * * * * * * * * * * * * * * * * * * * * * * * * * * * * * * * * * * * //

dimensions      [0 1 -1 0 0 0 0];

internalField   nonuniform List<vector> 
12225
(
(6.41609 0.685485 0)
(1.77184 0.51535 0)
(-1.83666 0.342505 0)
(-3.55538 0.298886 0)
(-6.07885 0.357974 0)
(-6.37586 0.23299 0)
(-9.00969 0.413027 0)
(-8.47241 0.111211 0)
(-10.9879 0.476938 0)
(-10.1579 0.099378 0)
(-12.503 0.477978 0)
(-11.4076 0.065683 0)
(-13.1277 0.312477 0)
(-12.0023 -0.205551 0)
(-9.17829 -0.450628 0)
(-5.64343 -2.01002 0)
(16.398 -0.981519 0)
(-6.79616 11.2369 0)
(8.65638 1.93819 0)
(6.52214 1.89953 0)
(2.09764 1.43201 0)
(0.896896 1.21815 0)
(-3.91123 1.15242 0)
(-2.66295 0.939095 0)
(-8.62494 1.30163 0)
(-4.89732 0.614738 0)
(-11.814 1.45191 0)
(-6.46042 0.56032 0)
(-13.7713 1.48899 0)
(-8.24257 0.437602 0)
(-14.4296 1.63913 0)
(-11.3783 -0.325556 0)
(-13.9653 -0.883466 0)
(-11.4599 -5.68073 0)
(-2.8117 -1.51916 0)
(-17.8194 9.75036 0)
(8.52241 2.32581 0)
(9.08401 2.73665 0)
(4.05916 2.34426 0)
(5.26638 2.18965 0)
(-1.71393 2.01008 0)
(2.29802 1.97859 0)
(-7.23684 2.06784 0)
(0.567584 1.47332 0)
(-10.5748 2.26711 0)
(-0.988164 0.991161 0)
(-11.0871 2.50409 0)
(-3.75199 0.645214 0)
(-10.1043 2.78827 0)
(-8.12906 0.371976 0)
(-9.18744 1.07363 0)
(-14.1564 -4.85122 0)
(-11.4195 -0.806545 0)
(-23.071 13.0726 0)
(6.8364 2.92522 0)
(10.9116 3.58921 0)
(3.43823 3.01981 0)
(8.42407 3.21888 0)
(-1.04857 2.74347 0)
(5.9286 3.10814 0)
(-4.66948 2.95669 0)
(3.31525 2.13011 0)
(-6.82782 3.4478 0)
(0.717028 1.22666 0)
(-7.8686 3.85438 0)
(-1.68655 0.499681 0)
(-7.57943 4.42292 0)
(-2.84485 -0.294745 0)
(-6.29775 3.22333 0)
(-7.64081 -2.22192 0)
(-14.2751 -0.68452 0)
(-23.7688 16.9776 0)
(5.45079 3.58048 0)
(12.4052 4.37311 0)
(3.06716 3.89261 0)
(8.65775 3.97549 0)
(1.27042 3.95918 0)
(5.41335 3.67406 0)
(-1.12723 4.14371 0)
(2.85688 2.97862 0)
(-3.40839 4.52977 0)
(0.326669 2.07947 0)
(-5.42672 5.06814 0)
(-1.57581 1.55037 0)
(-7.43578 5.56275 0)
(-1.86195 0.890629 0)
(-9.21175 5.47958 0)
(-3.80744 -0.229464 0)
(-17.2859 5.67631 0)
(-19.4481 13.7803 0)
(5.04615 4.43573 0)
(10.9511 4.82107 0)
(5.23236 4.8712 0)
(5.56934 4.33592 0)
(3.81211 4.93223 0)
(2.93503 4.42163 0)
(0.400263 5.12866 0)
(1.28272 3.95778 0)
(-1.96675 5.60105 0)
(-0.627739 3.14562 0)
(-4.57409 5.97699 0)
(-2.14833 2.87442 0)
(-8.25494 5.66652 0)
(-2.50763 2.20937 0)
(-12.0638 5.74593 0)
(-5.05476 2.54008 0)
(-16.7895 8.28825 0)
(-18.7193 13.2104 0)
(6.51274 5.74475 0)
(9.98444 4.98666 0)
(5.24098 6.53155 0)
(4.73771 4.85955 0)
(3.85625 6.29297 0)
(1.28631 5.25358 0)
(1.20426 6.25305 0)
(-0.3154 4.95225 0)
(-1.59098 6.90499 0)
(-2.04969 4.22935 0)
(-3.96642 7.23527 0)
(-3.81955 4.17356 0)
(-7.00692 6.99099 0)
(-5.21258 3.56466 0)
(-11.2027 8.06321 0)
(-8.32473 2.62855 0)
(-12.9399 13.9904 0)
(-13.7879 13.2038 0)
(7.61298 6.49906 0)
(9.51945 5.7931 0)
(4.69454 7.53489 0)
(5.49434 5.45791 0)
(2.88069 7.45532 0)
(1.3774 5.94962 0)
(1.23162 7.076 0)
(-1.3313 6.07144 0)
(-1.04219 7.77044 0)
(-2.89106 5.1828 0)
(-3.15306 8.22812 0)
(-4.42114 5.37665 0)
(-4.58759 7.74276 0)
(-6.43143 5.38852 0)
(-6.36447 9.59834 0)
(-9.40133 5.69524 0)
(-10.7326 16.0756 0)
(-4.7644 10.0861 0)
(7.54388 7.35549 0)
(9.53454 6.56492 0)
(4.13509 8.63421 0)
(5.55672 6.1359 0)
(1.88534 8.70004 0)
(1.37747 6.40812 0)
(0.41427 8.34068 0)
(-1.42932 6.58436 0)
(-1.3514 8.80475 0)
(-2.81713 6.03466 0)
(-3.56614 9.20444 0)
(-3.75106 6.05656 0)
(-4.44012 9.09527 0)
(-5.52502 6.12959 0)
(-5.68035 10.9323 0)
(-7.02421 6.90102 0)
(-8.64109 11.5832 0)
(-3.16906 11.28 0)
(9.00141 8.20375 0)
(7.86627 7.55124 0)
(5.21536 9.53559 0)
(4.5736 7.02124 0)
(1.98697 9.79449 0)
(1.53441 7.38244 0)
(-0.352153 9.2412 0)
(-0.853011 7.89307 0)
(-1.91461 9.48905 0)
(-2.53596 7.45191 0)
(-3.73422 9.83155 0)
(-3.78786 7.50035 0)
(-4.92829 9.86614 0)
(-5.42747 8.01704 0)
(-6.9768 11.5101 0)
(-6.06726 8.37044 0)
(-8.02647 12.7018 0)
(-5.48201 12.9155 0)
(9.62249 9.09595 0)
(7.58682 8.79168 0)
(5.92008 10.7112 0)
(4.73584 8.29678 0)
(2.10054 10.9238 0)
(2.15837 8.43391 0)
(-0.382284 10.4467 0)
(-0.524862 8.61605 0)
(-2.03443 10.6325 0)
(-2.33258 8.50592 0)
(-3.69639 10.7258 0)
(-3.58413 8.64264 0)
(-5.08722 10.6596 0)
(-5.02482 9.42278 0)
(-6.31078 11.9016 0)
(-5.55815 10.289 0)
(-6.75519 12.3347 0)
(-5.54804 13.2001 0)
(9.69794 10.0371 0)
(7.21783 10.1277 0)
(6.17993 11.5495 0)
(4.25683 9.7188 0)
(2.65901 11.7432 0)
(1.72155 9.88017 0)
(0.0504808 11.5726 0)
(-0.646537 10.1316 0)
(-1.93064 11.6124 0)
(-2.43708 10.1804 0)
(-3.45907 11.5899 0)
(-3.72611 10.3461 0)
(-4.72688 11.7546 0)
(-4.86146 11.0717 0)
(-5.34842 12.6029 0)
(-5.11111 11.7346 0)
(-5.68357 12.905 0)
(-5.15601 13.8506 0)
(9.43944 11.0376 0)
(7.36479 11.6305 0)
(6.07013 12.7387 0)
(4.14465 11.2367 0)
(2.81288 12.8419 0)
(1.55159 11.3693 0)
(0.264522 12.7021 0)
(-0.600576 11.4985 0)
(-1.83708 12.639 0)
(-2.36335 11.6033 0)
(-3.27399 12.5185 0)
(-3.7161 11.8885 0)
(-4.38994 12.6877 0)
(-4.68547 12.5258 0)
(-4.93235 13.2353 0)
(-4.91222 13.0802 0)
(-5.01954 13.6191 0)
(-4.6254 14.1096 0)
(9.47637 12.126 0)
(7.31318 13.1722 0)
(5.83813 13.7781 0)
(4.02135 12.858 0)
(2.61055 13.8058 0)
(1.31835 12.9635 0)
(0.158346 13.8339 0)
(-0.784047 13.146 0)
(-1.831 13.7879 0)
(-2.42331 13.3152 0)
(-3.20086 13.6811 0)
(-3.64847 13.4752 0)
(-4.13599 13.7361 0)
(-4.4898 13.7989 0)
(-4.69731 14.0936 0)
(-4.72483 14.1981 0)
(-4.73772 14.4277 0)
(-4.47059 14.6623 0)
(9.24765 13.3556 0)
(7.38147 14.8004 0)
(5.719 15.0352 0)
(3.93918 14.5299 0)
(2.44057 15.0192 0)
(1.14877 14.5771 0)
(0.0253481 14.923 0)
(-0.877423 14.5694 0)
(-1.82555 14.8399 0)
(-2.48768 14.6865 0)
(-3.13358 14.8176 0)
(-3.65595 14.8214 0)
(-4.11212 14.9174 0)
(-4.42007 14.9678 0)
(-4.61464 15.081 0)
(-4.67681 15.1161 0)
(-4.69989 15.1664 0)
(-4.4662 15.2034 0)
(9.10593 14.4561 0)
(7.22819 16.1498 0)
(5.46536 16.1514 0)
(3.79315 15.9773 0)
(2.31226 16.0885 0)
(1.06367 15.8962 0)
(-0.0531485 15.9982 0)
(-1.00739 15.9028 0)
(-1.92489 15.9997 0)
(-2.69368 15.9852 0)
(-3.35643 15.9831 0)
(-3.84439 15.9672 0)
(-4.25354 15.9576 0)
(-4.52489 15.9307 0)
(-4.68937 15.9099 0)
(-4.72682 15.846 0)
(-4.72197 15.7587 0)
(-4.51176 15.7123 0)
(9.17525 15.2672 0)
(7.29192 17.2895 0)
(5.6145 17.1871 0)
(4.03791 17.0457 0)
(2.55503 16.9747 0)
(1.21477 16.8628 0)
(0.00468266 16.8684 0)
(-1.01458 16.8657 0)
(-1.94577 16.902 0)
(-2.70899 16.8739 0)
(-3.32871 16.8201 0)
(-3.80479 16.7236 0)
(-4.22775 16.6031 0)
(-4.53889 16.4854 0)
(-4.76579 16.3611 0)
(-4.88224 16.2219 0)
(-4.95949 16.0929 0)
(-4.86217 16.0038 0)
(9.00887 15.5495 0)
(7.04772 17.4356 0)
(5.35657 17.2278 0)
(3.77416 17.2526 0)
(2.31502 17.3233 0)
(1.0119 17.3002 0)
(-0.159151 17.2512 0)
(-1.14185 17.1573 0)
(-2.02279 17.0808 0)
(-2.74692 16.9901 0)
(-3.34683 16.9235 0)
(-3.82507 16.8267 0)
(-4.27418 16.725 0)
(-4.63927 16.6117 0)
(-4.96909 16.4741 0)
(-5.18452 16.2971 0)
(-5.33373 16.1026 0)
(-5.34795 15.9421 0)
(8.95844 15.2678 0)
(7.04373 17.1211 0)
(5.341 16.8378 0)
(3.72545 16.7828 0)
(2.28364 16.7784 0)
(1.00959 16.7267 0)
(-0.127954 16.6719 0)
(-1.11982 16.5858 0)
(-2.05925 16.5053 0)
(-2.84175 16.4356 0)
(-3.49388 16.3672 0)
(-4.01384 16.2777 0)
(-4.46156 16.1791 0)
(-4.82793 16.0547 0)
(-5.1802 15.8982 0)
(-5.40624 15.6984 0)
(-5.58875 15.4607 0)
(-5.64413 15.261 0)
(8.88232 14.2629 0)
(7.138 15.8772 0)
(5.46801 15.6511 0)
(3.85941 15.6439 0)
(2.36992 15.6628 0)
(1.04671 15.6405 0)
(-0.138705 15.5725 0)
(-1.1738 15.4442 0)
(-2.12491 15.3274 0)
(-2.95481 15.2396 0)
(-3.64935 15.1544 0)
(-4.21676 15.0662 0)
(-4.68063 14.9697 0)
(-5.05479 14.8499 0)
(-5.40785 14.7136 0)
(-5.63469 14.5406 0)
(-5.80893 14.3273 0)
(-5.88258 14.1589 0)
(9.0667 13.0693 0)
(7.16972 14.3278 0)
(5.50808 14.1445 0)
(3.95698 14.133 0)
(2.54606 14.1174 0)
(1.25984 14.0996 0)
(0.0857316 14.0463 0)
(-0.979853 13.9628 0)
(-1.97301 13.8612 0)
(-2.84965 13.7622 0)
(-3.60583 13.6568 0)
(-4.23254 13.5406 0)
(-4.73158 13.4052 0)
(-5.14904 13.2542 0)
(-5.52925 13.11 0)
(-5.81248 12.9353 0)
(-6.03369 12.7389 0)
(-6.16493 12.5695 0)
(9.17815 11.4486 0)
(7.18534 12.595 0)
(5.52135 12.3418 0)
(3.97857 12.2984 0)
(2.56371 12.304 0)
(1.25718 12.3217 0)
(0.0845441 12.3114 0)
(-0.969684 12.2622 0)
(-1.90115 12.1676 0)
(-2.71872 12.0623 0)
(-3.45393 11.9517 0)
(-4.07551 11.8301 0)
(-4.62617 11.7134 0)
(-5.08016 11.575 0)
(-5.50744 11.4578 0)
(-5.86965 11.3133 0)
(-6.14592 11.1529 0)
(-6.32524 10.9996 0)
(8.95988 9.89933 0)
(7.17993 10.789 0)
(5.63306 10.4947 0)
(4.1211 10.4392 0)
(2.73727 10.4495 0)
(1.47289 10.4579 0)
(0.288792 10.4416 0)
(-0.793973 10.3913 0)
(-1.78246 10.3033 0)
(-2.67324 10.2265 0)
(-3.46144 10.1515 0)
(-4.14352 10.0695 0)
(-4.74098 9.98189 0)
(-5.22624 9.8723 0)
(-5.65497 9.73721 0)
(-6.00685 9.60187 0)
(-6.26571 9.44575 0)
(-6.45004 9.302 0)
(8.82378 8.19348 0)
(7.29352 8.82749 0)
(5.86126 8.59884 0)
(4.35423 8.52181 0)
(2.92731 8.535 0)
(1.61634 8.57607 0)
(0.398675 8.62656 0)
(-0.718122 8.62597 0)
(-1.71957 8.58251 0)
(-2.58193 8.50886 0)
(-3.33913 8.42253 0)
(-3.9769 8.33523 0)
(-4.5347 8.24544 0)
(-5.01519 8.15415 0)
(-5.44216 8.03329 0)
(-5.79859 7.91261 0)
(-6.10663 7.77859 0)
(-6.34721 7.65463 0)
(8.95167 6.40116 0)
(7.33241 6.86083 0)
(5.95095 6.73223 0)
(4.47581 6.74301 0)
(3.03996 6.78609 0)
(1.70615 6.83817 0)
(0.498615 6.87026 0)
(-0.571137 6.85843 0)
(-1.51706 6.79713 0)
(-2.33672 6.70067 0)
(-3.08392 6.60627 0)
(-3.72065 6.53775 0)
(-4.29892 6.48452 0)
(-4.80898 6.42736 0)
(-5.26914 6.3762 0)
(-5.66185 6.29073 0)
(-6.00554 6.1759 0)
(-6.2899 6.06485 0)
(8.96609 4.87675 0)
(7.45276 5.16596 0)
(6.1273 5.08186 0)
(4.70515 5.11649 0)
(3.32482 5.12999 0)
(2.01659 5.17259 0)
(0.821198 5.18826 0)
(-0.269915 5.19846 0)
(-1.26896 5.16766 0)
(-2.17373 5.09132 0)
(-3.037 5.02938 0)
(-3.80257 4.98422 0)
(-4.50979 4.94157 0)
(-5.10276 4.90453 0)
(-5.62863 4.86687 0)
(-6.0795 4.8079 0)
(-6.45628 4.72387 0)
(-6.75436 4.63336 0)
(9.00053 3.49803 0)
(7.59402 3.51186 0)
(6.28349 3.47313 0)
(4.83396 3.52901 0)
(3.38407 3.5939 0)
(1.9993 3.68294 0)
(0.713505 3.70346 0)
(-0.454479 3.73829 0)
(-1.51665 3.72893 0)
(-2.51039 3.6942 0)
(-3.46946 3.66775 0)
(-4.35537 3.64336 0)
(-5.18547 3.60731 0)
(-5.91285 3.57302 0)
(-6.55463 3.53205 0)
(-7.12179 3.4784 0)
(-7.60759 3.41307 0)
(-8.02368 3.35224 0)
(8.99599 2.02798 0)
(7.63984 1.95156 0)
(6.28168 2.01634 0)
(4.5663 2.13988 0)
(2.78272 2.25872 0)
(1.08137 2.3593 0)
(-0.529433 2.39498 0)
(-1.98897 2.43387 0)
(-3.33076 2.4537 0)
(-4.60325 2.45741 0)
(-5.75851 2.47574 0)
(-6.79903 2.48817 0)
(-7.74488 2.47984 0)
(-8.55942 2.47322 0)
(-9.30186 2.44387 0)
(-9.98183 2.40988 0)
(-10.5512 2.36586 0)
(-11.0846 2.34278 0)
(9.2646 0.77134 0)
(7.17142 0.651256 0)
(4.79727 0.806334 0)
(2.23368 1.02463 0)
(-0.142795 1.22058 0)
(-2.26809 1.35812 0)
(-4.16495 1.43042 0)
(-5.82474 1.47868 0)
(-7.30962 1.50057 0)
(-8.62199 1.49567 0)
(-9.77041 1.49272 0)
(-10.782 1.49158 0)
(-11.6746 1.47922 0)
(-12.4397 1.47407 0)
(-13.1262 1.44536 0)
(-13.7235 1.43487 0)
(-14.2042 1.39325 0)
(-14.6341 1.3661 0)
(7.54225 0.0279226 0)
(3.23637 0.12393 0)
(-0.348491 0.373989 0)
(-3.13647 0.490709 0)
(-5.23037 0.533898 0)
(-6.92519 0.542471 0)
(-8.36164 0.53347 0)
(-9.63241 0.525165 0)
(-10.7706 0.519601 0)
(-11.786 0.51266 0)
(-12.7042 0.507489 0)
(-13.5131 0.506206 0)
(-14.22 0.50212 0)
(-14.8336 0.499245 0)
(-15.3734 0.491656 0)
(-15.8417 0.485284 0)
(-16.2192 0.462367 0)
(-16.635 0.45101 0)
(0.132434 -0.622183 0)
(0.381194 -0.603296 0)
(0.610345 -0.584971 0)
(0.845498 -0.589308 0)
(1.0994 -0.596894 0)
(1.34304 -0.604986 0)
(1.5736 -0.614639 1.10225e-17)
(1.79904 -0.620121 -1.09616e-17)
(2.02075 -0.610436 0)
(2.24665 -0.584679 -1.08517e-17)
(2.49442 -0.543107 0)
(2.76331 -0.492011 0)
(3.03567 -0.473593 0)
(3.30712 -0.509279 1.06656e-17)
(3.55055 -0.611114 0)
(3.7257 -0.779973 0)
(3.81664 -0.921147 -1.05523e-17)
(3.91277 -0.876026 0)
(4.01465 -0.592638 0)
(3.94128 -0.180621 0)
(3.66333 -0.0151706 1.04145e-17)
(3.38808 -0.125446 0)
(3.1914 -0.176157 1.026e-17)
(2.93651 -0.147496 0)
(2.64045 -0.109014 0)
(2.36631 -0.0608538 1.00551e-17)
(2.07188 -0.0215444 0)
(1.78417 -0.00487352 -9.92081e-18)
(1.54245 -0.00377722 0)
(1.35727 -0.0227698 9.78349e-18)
(1.2445 -0.0617712 0)
(1.20965 -0.125175 0)
(1.24761 -0.196482 0)
(1.35655 -0.264818 0)
(1.52869 -0.328727 0)
(1.76859 -0.377721 -9.37516e-18)
(2.07675 -0.424351 0)
(2.4457 -0.465175 1.84907e-17)
(2.87075 -0.500273 0)
(3.34303 -0.540054 -1.82422e-17)
(3.86452 -0.570314 0)
(4.43892 -0.601312 0)
(5.05504 -0.643151 1.78812e-17)
(5.70502 -0.671986 0)
(6.38663 -0.693995 1.76432e-17)
(7.08842 -0.730256 -1.75238e-17)
(7.81735 -0.744528 0)
(8.56062 -0.744219 -1.72814e-17)
(9.30319 -0.739927 -1.71587e-17)
(10.0242 -0.728535 0)
(10.6875 -0.71424 0)
(11.3284 -0.699979 0)
(11.983 -0.703754 0)
(12.6333 -0.701277 0)
(13.2684 -0.687672 1.64395e-17)
(13.8739 -0.67206 0)
(14.4603 -0.670155 -1.6196e-17)
(15.0375 -0.644438 0)
(15.5584 -0.625407 0)
(15.9927 -0.628411 1.58547e-17)
(16.4166 -0.635146 0)
(16.8623 -0.617725 -1.56443e-17)
(17.2707 -0.57529 0)
(17.5971 -0.549642 0)
(17.8333 -0.560459 0)
(18.0596 -0.590531 1.52504e-17)
(18.3411 -0.602685 0)
(18.6422 -0.576192 0)
(18.8763 -0.580621 1.49201e-17)
(18.9559 -0.62172 0)
(18.9092 -0.68449 1.47059e-17)
(18.7887 -0.749608 0)
(18.6465 -0.736268 0)
(18.4798 -0.631658 0)
(18.1898 -0.5292 -1.42484e-17)
(17.7039 -0.437041 0)
(17.0586 -0.38767 0)
(16.3482 -0.370751 -1.38171e-17)
(15.7056 -0.356824 -1.36807e-17)
(15.1308 -0.277354 0)
(14.5575 -0.175821 -1.35292e-17)
(14.1265 -0.267563 0)
(13.9808 -0.474738 -2.67211e-17)
(13.6946 -0.694671 0)
(13.1065 -0.873311 -2.61947e-17)
(12.6424 -0.963942 0)
(12.5112 -0.935231 2.55498e-17)
(12.5543 -0.764221 0)
(12.4812 -0.55267 0)
(12.3148 -0.561269 0)
(11.965 -0.893831 -2.48878e-17)
(11.4819 -1.14062 0)
(10.3862 -0.70289 2.50079e-17)
(8.44352 0.00224682 0)
(5.9895 0.347609 -2.46973e-17)
(3.35507 0.364109 -2.43359e-17)
(0.812415 0.576504 -2.37614e-17)
(-1.39167 0.640469 0)
(-2.96396 0.115753 0)
(-4.24777 -0.193474 0)
(-5.57722 -0.160614 0)
(-6.91545 -0.098299 0)
(-8.0422 -0.130698 0)
(-8.5355 -0.459757 0)
(-8.17161 -0.981716 0)
(-7.10632 -1.43889 2.29671e-17)
(-5.93887 -1.63972 2.27329e-17)
(-5.13916 -1.47677 0)
(-4.65133 -0.977672 0)
(-4.55261 -0.450361 0)
(-5.00732 -0.654426 2.0682e-17)
(-4.01324 -1.3446 0)
(-1.81033 -1.50454 0)
(-0.48856 -1.1373 0)
(0.876043 -1.29631 0)
(2.23277 -1.18662 -2.04322e-17)
(3.37249 -1.23505 0)
(4.78588 -1.19118 0)
(6.11014 -1.1902 2.00301e-17)
(7.34109 -1.12453 -1.98857e-17)
(8.40056 -1.09944 0)
(9.39367 -1.08943 -1.96507e-17)
(10.331 -1.03797 0)
(11.1133 -1.00431 1.94394e-17)
(11.6528 -1.02256 0)
(12.0556 -1.0015 0)
(12.4521 -1.02231 0)
(12.7045 -1.08856 0)
(12.8804 -1.06497 0)
(13.0899 -1.12619 -3.76755e-17)
(13.1417 -1.1417 -3.75272e-17)
(13.1534 -1.13663 0)
(13.1124 -1.21935 0)
(13.0797 -1.27732 0)
(13.0432 -1.36321 3.67518e-17)
(13.0188 -1.47968 0)
(13.1054 -1.63534 0)
(13.2236 -1.67837 0)
(13.3767 -1.76645 3.56532e-17)
(13.529 -1.79593 -3.53489e-17)
(13.707 -1.74432 0)
(13.9075 -1.68465 0)
(13.9923 -1.61565 -3.44794e-17)
(13.9291 -1.55753 -3.42552e-17)
(13.7256 -1.59428 0)
(13.3184 -1.60278 0)
(12.9562 -1.63157 3.34107e-17)
(12.8068 -1.66886 -3.31808e-17)
(12.8719 -1.77898 0)
(13.051 -2.02482 0)
(13.1009 -2.18637 -3.32749e-17)
(11.8715 -1.73232 0)
(8.6324 -1.00015 0)
(4.30587 -0.691866 -3.26764e-17)
(-0.182481 -0.785663 0)
(-3.80928 -1.1377 -3.18422e-17)
(-5.92865 -1.53953 0)
(-6.84962 -1.93765 0)
(-7.70144 -1.99309 0)
(-8.56677 -2.05299 3.09164e-17)
(-9.06875 -2.00828 0)
(-10.5026 -1.87537 0)
(-11.379 -2.12363 0)
(-12.121 -2.31913 0)
(-9.79157 -2.69407 0)
(-8.10694 -2.28813 0)
(-7.98432 -1.78452 2.99711e-17)
(-9.06678 -1.57623 2.98786e-17)
(-10.1944 -1.54188 0)
(-11.3597 -1.53827 0)
(-12.1739 -1.52606 0)
(-13.1634 -1.40182 -2.95078e-17)
(-14.0837 -1.34068 0)
(-15.0953 -1.23688 5.83337e-17)
(-15.6731 -1.23659 -5.79094e-17)
(-15.8991 -1.26118 -5.76018e-17)
(-15.4986 -1.26505 5.71911e-17)
(-14.7524 -1.26146 -5.69268e-17)
(-13.4695 -1.22973 5.65738e-17)
(-12.7371 -1.17721 0)
(0.106385 -1.80027 0)
(0.28698 -1.72627 0)
(0.458235 -1.697 -2.24461e-17)
(0.581389 -1.74451 0)
(0.709464 -1.72944 2.22442e-17)
(0.864439 -1.66476 2.2072e-17)
(1.03449 -1.59942 1.09769e-17)
(1.24648 -1.56285 1.09355e-17)
(1.50892 -1.55376 0)
(1.77306 -1.62665 1.08479e-17)
(1.98235 -1.75639 0)
(2.09568 -1.82858 0)
(2.082 -1.86414 -2.13003e-17)
(1.95005 -1.73636 -1.06179e-17)
(1.75793 -1.28001 2.12274e-17)
(1.54109 -0.785898 2.12113e-17)
(1.24687 -0.68275 1.05642e-17)
(0.927076 -0.726255 0)
(0.672378 -0.56515 0)
(0.465693 -0.370984 0)
(0.197919 -0.277597 1.02878e-17)
(-0.157153 -0.174605 0)
(-0.515831 -0.0386955 -3.05192e-17)
(-0.917311 0.0300266 0)
(-1.29022 0.0456295 0)
(-1.58022 0.0265774 -1.0012e-17)
(-1.82892 -0.0443562 0)
(-2.01883 -0.165317 9.87857e-18)
(-2.09942 -0.314485 1.96403e-17)
(-2.10464 -0.500278 -9.75518e-18)
(-2.02287 -0.706367 0)
(-1.86751 -0.882575 0)
(-1.64747 -1.05349 0)
(-1.35621 -1.21977 1.89529e-17)
(-1.00226 -1.38039 1.88206e-17)
(-0.574371 -1.53407 9.34886e-18)
(-0.0968678 -1.70659 0)
(0.462668 -1.85814 -1.84575e-17)
(1.06344 -1.99843 0)
(1.69511 -2.13484 1.82339e-17)
(2.35342 -2.25267 0)
(3.0344 -2.36103 0)
(3.77586 -2.4463 -1.79019e-17)
(4.50652 -2.52196 0)
(5.22058 -2.58167 -5.30524e-17)
(5.98967 -2.65486 1.75689e-17)
(6.81511 -2.70027 0)
(7.63352 -2.72712 1.73338e-17)
(8.46735 -2.696 1.72132e-17)
(9.31247 -2.6428 0)
(10.0901 -2.58028 0)
(10.8169 -2.56309 0)
(11.5352 -2.58979 0)
(12.2211 -2.58388 0)
(12.9191 -2.54019 -1.64795e-17)
(13.6096 -2.5012 -3.2688e-17)
(14.3014 -2.52204 1.61972e-17)
(15.0061 -2.4369 0)
(15.6469 -2.30252 -3.18228e-17)
(16.2189 -2.22935 1.57956e-17)
(16.7725 -2.29977 0)
(17.3712 -2.35265 1.55801e-17)
(17.9369 -2.27685 0)
(18.4353 -2.11254 0)
(18.834 -2.01744 3.04296e-17)
(19.2024 -2.11943 -1.51341e-17)
(19.7159 -2.28487 3.0157e-17)
(20.3431 -2.30467 -2.99347e-17)
(20.8983 -2.1363 -1.47968e-17)
(21.2246 -1.83607 0)
(21.3383 -1.52762 -1.4621e-17)
(21.3239 -1.3575 0)
(21.2154 -1.4182 0)
(20.7723 -1.48557 0)
(20.0541 -1.37551 -1.41316e-17)
(19.175 -1.15111 0)
(18.224 -0.990037 -2.78366e-17)
(17.3219 -1.00816 4.12745e-17)
(16.5205 -1.26964 1.35811e-17)
(15.7214 -1.52951 0)
(15.0893 -1.76865 1.32559e-17)
(14.9733 -2.32214 0)
(15.5138 -2.54067 2.57621e-17)
(16.012 -1.84331 0)
(15.6394 -1.41565 2.55457e-17)
(14.901 -1.87841 -5.09856e-17)
(14.5547 -2.49922 -2.5239e-17)
(14.3448 -2.72301 0)
(13.8776 -2.65091 0)
(13.0734 -2.3693 0)
(11.2292 -1.54302 2.41622e-17)
(8.49733 -0.349345 0)
(5.49487 0.533911 -2.43215e-17)
(2.50177 1.12495 0)
(-0.216429 1.43043 7.06951e-17)
(-2.81185 1.40104 2.36831e-17)
(-4.79811 0.666246 2.36625e-17)
(-5.99423 -0.214618 0)
(-7.28091 -0.488129 0)
(-8.31816 -0.43221 0)
(-9.09057 -0.448354 0)
(-9.69128 -0.711131 0)
(-9.95629 -1.52635 4.515e-17)
(-9.95295 -2.5457 4.55365e-17)
(-9.81774 -3.31506 0)
(-9.55471 -3.60006 -2.23774e-17)
(-9.11807 -3.35978 -2.20493e-17)
(-8.35876 -2.84846 0)
(-7.04304 -2.41451 -4.35003e-17)
(-5.49855 -2.31608 0)
(-4.59485 -3.03844 2.1345e-17)
(-4.81261 -4.12549 0)
(-2.50491 -5.09714 0)
(-0.274541 -4.12525 -4.21198e-17)
(1.08112 -4.28152 0)
(2.61893 -4.10699 2.08141e-17)
(3.91684 -4.25496 0)
(5.45749 -4.27514 0)
(7.04941 -4.28513 2.03103e-17)
(8.70366 -4.14952 1.99756e-17)
(10.0629 -4.05014 0)
(11.3824 -4.08984 -1.9613e-17)
(12.7664 -4.05614 0)
(14.0095 -3.88076 1.91849e-17)
(14.9953 -3.77017 3.79237e-17)
(15.7332 -3.71772 0)
(16.3167 -3.72099 0)
(16.8954 -3.75704 0)
(17.2758 -3.81636 0)
(17.6062 -3.90815 3.59155e-17)
(17.8453 -3.91643 1.07072e-16)
(17.8702 -4.01865 0)
(17.8159 -4.16004 0)
(17.799 -4.25582 0)
(17.6344 -4.38428 -3.42485e-17)
(17.3881 -4.51123 0)
(17.286 -4.66049 0)
(17.2792 -4.72304 6.75426e-17)
(17.2878 -4.77613 3.37669e-17)
(17.2826 -4.86441 3.35462e-17)
(17.0306 -5.05213 0)
(16.7539 -5.10752 0)
(16.667 -5.01252 3.23023e-17)
(16.57 -4.94103 -3.21733e-17)
(16.3723 -4.76451 0)
(15.9824 -4.69936 0)
(15.498 -4.91757 -3.11525e-17)
(15.3513 -5.2176 9.24363e-17)
(15.4919 -5.49103 0)
(14.6371 -5.43532 0)
(11.8511 -4.53229 3.17442e-17)
(7.51413 -3.21918 0)
(2.59999 -2.49154 6.21583e-17)
(-1.77969 -2.45758 -3.08957e-17)
(-5.18068 -3.14057 0)
(-7.33722 -4.39344 3.03524e-17)
(-8.30145 -5.69919 6.0631e-17)
(-8.55322 -6.33848 0)
(-9.36828 -6.49146 0)
(-9.72392 -6.98893 -2.98132e-17)
(-9.0763 -6.78994 0)
(-11.1578 -6.32413 6.02596e-17)
(-10.321 -6.81928 0)
(-11.8355 -7.56983 0)
(-8.30573 -9.21988 0)
(-6.8226 -7.69359 0)
(-5.78822 -6.35434 -2.91317e-17)
(-6.30841 -5.50139 -2.86002e-17)
(-6.63668 -5.16308 0)
(-7.28203 -4.84729 0)
(-7.4623 -4.6349 0)
(-8.67559 -4.12512 2.74321e-17)
(-9.89746 -3.82903 0)
(-11.3488 -3.62037 -5.44869e-17)
(-11.9948 -3.6261 5.39459e-17)
(-12.3783 -3.71322 5.37889e-17)
(-11.9675 -3.78931 5.33999e-17)
(-11.48 -3.8946 5.31152e-17)
(-10.1965 -3.70793 5.23988e-17)
(-10.0326 -3.37585 0)
(0.0911937 -2.73187 0)
(0.132915 -2.57736 0)
(0.143878 -2.47157 2.2748e-17)
(0.140501 -2.42627 2.25383e-17)
(0.143777 -2.48707 -2.23635e-17)
(0.145621 -2.55951 -2.22208e-17)
(0.241773 -2.69575 -1.72027e-21)
(0.447759 -2.8668 0)
(0.625286 -2.9023 0)
(0.601684 -2.82603 0)
(0.475536 -2.40764 0)
(0.418731 -1.80739 0)
(0.198164 -1.3743 6.49175e-17)
(-0.0774484 -1.16976 0)
(-0.244782 -1.1678 -2.14449e-17)
(-0.362168 -1.18311 -2.12544e-17)
(-0.579269 -1.07633 0)
(-0.982633 -0.860756 0)
(-1.38459 -0.598995 0)
(-1.75081 -0.293492 0)
(-2.09462 -0.0572469 -2.07478e-17)
(-2.45968 0.00945005 0)
(-2.70988 0.0471471 2.05358e-17)
(-2.91396 0.0415744 0)
(-3.04098 -0.0638378 0)
(-3.10235 -0.206926 0)
(-3.094 -0.384993 4.00005e-17)
(-3.02873 -0.625192 0)
(-2.89358 -0.90549 -1.97137e-17)
(-2.69319 -1.20248 3.91405e-17)
(-2.4899 -1.50957 0)
(-2.1861 -1.80097 0)
(-1.8265 -2.07703 0)
(-1.41397 -2.36037 -1.89544e-17)
(-0.971198 -2.66195 -1.88002e-17)
(-0.435079 -2.89134 0)
(0.137901 -3.11195 0)
(0.718924 -3.33837 3.67923e-17)
(1.35978 -3.50169 3.65426e-17)
(2.01537 -3.6449 -3.63332e-17)
(2.66752 -3.79441 0)
(3.3309 -3.93624 0)
(4.05224 -4.00279 0)
(4.76608 -4.10383 0)
(5.43462 -4.20631 3.52722e-17)
(6.16355 -4.26028 3.51078e-17)
(6.92664 -4.37392 -3.49302e-17)
(7.66199 -4.49293 0)
(8.41822 -4.49709 0)
(9.24802 -4.41847 0)
(10.0663 -4.26865 0)
(10.7877 -4.15718 3.41189e-17)
(11.4257 -4.14995 0)
(12.0133 -4.1675 0)
(12.6667 -4.15415 3.34756e-17)
(13.3772 -4.15941 3.32019e-17)
(13.9922 -4.24795 0)
(14.5604 -4.10828 -6.51686e-17)
(15.1139 -3.8435 3.21698e-17)
(15.709 -3.82073 -3.19196e-17)
(16.3327 -3.97575 0)
(16.9391 -4.03656 0)
(17.4329 -3.83618 0)
(17.9545 -3.57585 0)
(18.4909 -3.53127 -3.06448e-17)
(18.9488 -3.87236 -6.12481e-17)
(19.426 -4.25236 -3.04427e-17)
(20.0064 -4.2896 3.0085e-17)
(20.6544 -3.82551 0)
(21.0824 -3.39728 -5.91755e-17)
(21.3719 -3.26369 -5.88937e-17)
(21.7007 -3.22482 -5.82798e-17)
(22.2384 -2.84801 5.75235e-17)
(22.6314 -2.11604 0)
(22.4094 -1.48172 8.57492e-17)
(21.8309 -1.25556 0)
(21.1057 -1.29878 -2.77309e-17)
(20.1522 -1.45029 -2.73611e-17)
(19.3066 -1.8797 0)
(18.3863 -2.15333 0)
(17.4656 -2.59412 -5.50974e-17)
(17.0727 -4.09073 0)
(16.7667 -5.17998 -5.35335e-17)
(16.5566 -4.14771 0)
(16.145 -2.9488 5.08598e-17)
(15.5361 -3.31483 1.01207e-16)
(14.9249 -3.99416 0)
(13.755 -3.54614 0)
(11.6604 -2.41688 0)
(8.98142 -1.04888 4.83238e-17)
(6.06849 0.0828131 0)
(3.47749 1.00461 4.72553e-17)
(1.16595 1.67761 0)
(-0.878599 1.9495 0)
(-2.69464 1.84847 -9.16408e-17)
(-4.37074 1.32084 0)
(-5.82888 0.44808 -4.71923e-17)
(-7.24048 -0.304859 0)
(-8.50936 -1.01962 -4.67595e-17)
(-8.99324 -1.6014 0)
(-9.30884 -1.87329 0)
(-9.4535 -2.24139 0)
(-9.46433 -2.94133 -1.37503e-16)
(-9.55773 -3.69996 -4.55675e-17)
(-9.78931 -4.39213 0)
(-9.77683 -5.11917 0)
(-9.23253 -5.90363 0)
(-8.35903 -6.35088 0)
(-7.09688 -6.31474 4.50787e-17)
(-5.53905 -5.47944 -8.90413e-17)
(-4.10215 -4.86084 -4.39706e-17)
(-4.65906 -5.98197 8.72306e-17)
(-2.09261 -9.17373 8.76869e-17)
(-0.744577 -7.40915 4.29394e-17)
(1.10983 -7.16964 0)
(2.46971 -6.94674 8.52114e-17)
(3.85799 -7.03791 0)
(5.24654 -7.17825 -8.44599e-17)
(6.67305 -7.39235 -4.18584e-17)
(8.42115 -7.20194 0)
(10.0274 -6.91149 8.11722e-17)
(11.4174 -6.98712 4.0264e-17)
(12.9162 -7.06898 0)
(14.3973 -6.73226 3.96873e-17)
(15.6821 -6.50321 -1.1719e-16)
(16.7137 -6.31913 0)
(17.3979 -6.29526 0)
(17.9672 -6.36082 0)
(18.5517 -6.33085 0)
(19.152 -6.43777 -7.36739e-17)
(19.5911 -6.48023 -7.24913e-17)
(19.939 -6.45639 0)
(20.1652 -6.66237 0)
(20.3908 -6.82215 0)
(20.3182 -6.86104 0)
(19.944 -7.18036 0)
(19.6068 -7.61239 0)
(19.3587 -7.94181 -6.58182e-17)
(19.2754 -8.11837 2.16393e-19)
(19.4481 -8.1059 0)
(19.5366 -8.01385 0)
(19.0174 -8.13627 -6.37267e-17)
(18.3404 -8.23423 0)
(17.8276 -8.15303 6.21952e-17)
(17.287 -8.02521 6.19118e-17)
(16.9244 -7.94557 0)
(16.5439 -8.22421 0)
(16.0983 -8.73081 -6.00421e-17)
(15.3008 -8.37221 -1.22534e-16)
(12.7622 -7.26501 0)
(8.24722 -5.75749 0)
(3.49811 -4.14201 0)
(-0.426219 -3.78463 -6.10338e-17)
(-3.62872 -4.73143 6.0778e-17)
(-6.02981 -6.25504 0)
(-7.42802 -8.10815 1.23379e-16)
(-8.02767 -9.84115 6.26694e-17)
(-7.85913 -10.7059 -1.23882e-16)
(-7.78574 -10.6808 0)
(-7.755 -12.071 0)
(-6.45027 -11.406 -1.21667e-16)
(-9.44627 -10.7994 -6.14385e-17)
(-8.47392 -11.8055 0)
(-9.90632 -12.4774 0)
(-6.90249 -15.3555 0)
(-5.33661 -12.7712 0)
(-4.75468 -10.8368 -1.21373e-16)
(-5.57332 -9.47369 0)
(-5.96666 -9.02297 0)
(-6.19031 -8.48466 0)
(-5.22013 -7.92364 0)
(-5.58303 -6.84066 0)
(-6.514 -6.15042 0)
(-8.19876 -5.90106 -1.06473e-16)
(-9.08316 -5.99868 0)
(-9.60003 -6.16719 0)
(-8.93159 -6.22784 -2.09275e-16)
(-8.364 -6.27492 1.04236e-16)
(-7.28329 -6.01474 -1.02043e-16)
(-7.68234 -5.57313 1.00751e-16)
(0.090248 -3.49674 0)
(0.163527 -3.06163 -4.60988e-17)
(0.179582 -2.94293 0)
(0.28257 -2.95761 -2.26893e-17)
(0.426921 -2.94811 0)
(0.487272 -3.03007 0)
(0.49195 -3.3438 2.20239e-17)
(0.294244 -3.51421 0)
(-0.0407651 -2.91812 0)
(-0.284522 -2.44334 0)
(-0.584642 -2.63043 0)
(-0.719693 -2.3429 0)
(-0.807452 -2.03823 -8.666e-17)
(-0.989904 -1.96869 -4.29068e-17)
(-1.11856 -1.59438 4.27643e-17)
(-1.42548 -1.08328 0)
(-1.84407 -0.68576 0)
(-2.24947 -0.455216 0)
(-2.60871 -0.310474 0)
(-2.98714 -0.192707 0)
(-3.19015 -0.046433 -4.18023e-17)
(-3.35254 -0.0830411 -4.15431e-17)
(-3.39966 -0.221354 4.12065e-17)
(-3.37289 -0.379971 -4.09165e-17)
(-3.30682 -0.606016 0)
(-3.18249 -0.830565 0)
(-3.01353 -1.11593 -3.97523e-17)
(-2.78361 -1.44031 0)
(-2.56114 -1.81872 0)
(-2.26036 -2.16037 -3.85838e-17)
(-1.96008 -2.48361 -3.82375e-17)
(-1.60732 -2.86845 -3.78735e-17)
(-1.23968 -3.25301 0)
(-0.811455 -3.58264 0)
(-0.335551 -3.87552 3.69243e-17)
(0.155533 -4.1943 0)
(0.707421 -4.46459 0)
(1.26887 -4.70402 -3.6111e-17)
(1.8624 -4.94838 3.59341e-17)
(2.49429 -5.13844 -3.56969e-17)
(3.1485 -5.29355 0)
(3.82505 -5.48342 0)
(4.46665 -5.63147 -7.0303e-17)
(5.14211 -5.71305 0)
(5.86792 -5.80313 -6.95945e-17)
(6.56604 -5.85557 -1.03776e-16)
(7.22951 -5.95685 1.03262e-16)
(7.87909 -6.09707 -6.8522e-17)
(8.52933 -6.21622 0)
(9.24754 -6.2047 0)
(10.0634 -6.08931 -6.75271e-17)
(10.9405 -5.84894 -3.36673e-17)
(11.7176 -5.73675 0)
(12.3711 -5.79657 0)
(12.9956 -5.86177 -3.35451e-17)
(13.6359 -5.83742 -6.68438e-17)
(14.1629 -5.83818 0)
(14.6828 -5.62629 6.55913e-17)
(15.2562 -5.37505 -6.5048e-17)
(15.9232 -5.44977 6.4749e-17)
(16.533 -5.7206 0)
(17.0279 -5.71137 0)
(17.443 -5.41779 0)
(17.9152 -5.24224 0)
(18.5791 -5.2671 0)
(19.1516 -5.54685 6.19493e-17)
(19.488 -5.8482 0)
(19.747 -5.97884 0)
(20.142 -5.58887 0)
(20.6735 -5.10586 1.18199e-16)
(21.1336 -4.87506 5.87892e-17)
(21.4687 -4.89818 5.86569e-17)
(21.8246 -4.82787 -1.16477e-16)
(22.3651 -4.34065 5.76409e-17)
(22.9536 -3.46195 -5.71159e-17)
(23.385 -2.71966 0)
(23.2428 -2.10799 5.61151e-17)
(22.6574 -1.80927 0)
(22.1221 -2.27545 0)
(20.912 -2.64383 0)
(19.8931 -3.16778 1.06888e-16)
(19.9345 -4.99389 -5.46951e-17)
(18.9494 -5.96517 -5.40107e-17)
(17.1109 -4.56208 -1.03524e-16)
(15.9738 -3.52834 -1.53003e-16)
(14.9198 -4.13772 -4.99298e-17)
(13.152 -4.15129 0)
(10.8935 -2.78225 -9.74483e-17)
(8.14047 -1.38716 0)
(5.21802 -0.233512 -1.46107e-16)
(2.61732 0.714526 0)
(0.622405 1.26963 -1.445e-16)
(-1.03985 1.5781 0)
(-2.57737 1.77147 0)
(-4.01917 1.68603 -4.70882e-17)
(-5.1791 1.03355 0)
(-6.26759 0.0199495 4.75459e-17)
(-7.42202 -0.937589 9.44672e-17)
(-8.13071 -2.10995 4.65596e-17)
(-8.48461 -2.94983 9.29228e-17)
(-8.9813 -3.32716 -9.31013e-17)
(-9.11433 -3.92026 -9.25673e-17)
(-8.98688 -4.71892 1.8382e-16)
(-8.70473 -5.55766 0)
(-8.47317 -6.3628 0)
(-8.08798 -7.28687 9.11152e-17)
(-7.51571 -8.10927 -9.06336e-17)
(-7.33816 -8.25163 0)
(-6.89975 -8.33943 0)
(-5.76021 -8.15054 8.75469e-17)
(-3.85038 -7.75965 0)
(-3.37493 -8.23059 2.58483e-20)
(-0.400498 -12.1561 2.54836e-20)
(-0.915293 -10.5201 8.46408e-17)
(1.53975 -10.3001 0)
(2.39575 -9.87022 -8.40229e-17)
(3.86043 -9.93382 0)
(5.16158 -10.0146 8.32926e-17)
(6.38779 -10.5241 0)
(7.91858 -10.4931 0)
(9.71346 -10.1697 -8.10945e-17)
(10.9873 -10.151 -8.0345e-17)
(12.4113 -10.2633 0)
(14.1515 -10.1161 -7.86092e-17)
(15.4115 -9.72528 1.55863e-16)
(16.4395 -9.36719 0)
(17.5061 -9.23651 0)
(18.1492 -9.32397 0)
(18.4245 -9.51797 0)
(19.2612 -9.68732 7.50037e-17)
(20.122 -9.71375 -1.48135e-16)
(20.2896 -9.81096 0)
(20.4301 -10.0796 0)
(20.7852 -10.2085 0)
(21.3103 -10.0217 0)
(21.5027 -10.1435 0)
(21.4947 -10.5518 0)
(21.0879 -10.9176 0)
(20.5882 -11.266 6.67608e-17)
(20.4144 -11.5126 0)
(20.7325 -11.3393 0)
(20.7238 -11.0633 6.24969e-17)
(19.8923 -11.0151 0)
(19.0172 -11.031 0)