/*--------------------------------*- C++ -*----------------------------------*\
| =========                 |                                                 |
| \\      /  F ield         | OpenFOAM: The Open Source CFD Toolbox           |
|  \\    /   O peration     | Version:  dev                                   |
|   \\  /    A nd           | Web:      http://www.openfoam.org               |
|    \\/     M anipulation  |                                                 |
\*---------------------------------------------------------------------------*/
FoamFile
{
    version     2.0;
    format      ascii;
    class       volSymmTensorField;
    object      UPrime2Mean;
    location    "9.131";
}
// * * * * * * * * * * * * * * * * * * * * * * * * * * * * * * * * * * * * * //

dimensions      [0 2 -2 0 0 0 0];

internalField   nonuniform List<symmTensor> 
12225
(
(0.329249 0.0192814 0 0.0692943 0 0)
(2.98603 0.0797181 0 0.0782221 0 0)
(7.87995 0.112351 0 0.076924 0 0)
(14.5334 0.148279 0 0.0755987 0 0)
(22.7012 0.133077 0 0.0765421 0 0)
(32.064 0.201176 0 0.0746972 0 0)
(42.375 0.0960994 0 0.0766351 0 0)
(53.5164 0.200563 0 0.0738732 0 0)
(65.608 -0.0282046 0 0.0776308 0 0)
(78.2017 0.12597 0 0.0736383 0 0)
(92.9454 -0.305846 0 0.0813237 0 0)
(107.283 -0.115315 0 0.0770093 0 0)
(127.887 -0.67167 0 0.08631 0 0)
(145.593 -1.27689 0 0.134732 0 0)
(185.892 -1.40869 0 0.116385 0 0)
(198.476 -0.392964 0 2.39188 0 0)
(272.23 -33.5233 0 5.80635 0 0)
(575.683 -52.9072 0 18.8078 0 0)
(0.377405 0.0568422 0 0.689256 0 0)
(3.15589 0.252322 0 0.732575 0 0)
(8.41025 0.362246 0 0.714422 0 0)
(15.4719 0.485592 0 0.706914 0 0)
(24.1949 0.453302 0 0.703762 0 0)
(34.4515 0.633178 0 0.683601 0 0)
(45.5175 0.296621 0 0.692362 0 0)
(58.468 0.609781 0 0.659047 0 0)
(71.4574 -0.134256 0 0.682859 0 0)
(87.1238 0.284024 0 0.646198 0 0)
(102.756 -1.06363 0 0.711447 0 0)
(121.389 -0.763945 0 0.655604 0 0)
(142.805 -2.54111 0 1.06881 0 0)
(166.274 -4.48927 0 1.04652 0 0)
(199.701 -0.92628 0 3.09911 0 0)
(274.297 -9.97606 0 6.60033 0 0)
(280.954 -20.8197 0 8.73569 0 0)
(799.641 -185.119 0 64.6807 0 0)
(0.504995 0.05841 0 2.14148 0 0)
(3.06383 0.424801 0 2.20344 0 0)
(8.46527 0.570712 0 2.15233 0 0)
(14.851 0.85231 0 2.14381 0 0)
(24.273 0.865096 0 2.12068 0 0)
(33.145 1.05379 0 2.08348 0 0)
(45.264 0.75733 0 2.07916 0 0)
(56.1892 0.887695 0 2.00839 0 0)
(69.6726 0.173984 0 2.05244 0 0)
(83.4241 0.0193491 0 1.96002 0 0)
(98.1639 -1.1205 0 2.12318 0 0)
(115.625 -2.44368 0 2.09476 0 0)
(138.584 -3.59218 0 2.6224 0 0)
(154.829 -7.1935 0 2.83036 0 0)
(210.946 -12.9967 0 6.11536 0 0)
(223.323 -7.88849 0 6.37077 0 0)
(352.884 -62.2288 0 31.0724 0 0)
(534.346 -192.37 0 98.1589 0 0)
(1.02978 0.0924634 0 4.67243 0 0)
(3.54934 0.619726 0 4.76905 0 0)
(9.06829 0.816141 0 4.64479 0 0)
(15.0648 1.15054 0 4.60403 0 0)
(24.6337 1.31379 0 4.55969 0 0)
(32.9786 1.35094 0 4.48533 0 0)
(44.9988 1.26311 0 4.45025 0 0)
(55.1568 0.975394 0 4.35165 0 0)
(68.5883 0.478634 0 4.38331 0 0)
(80.6947 -0.27948 0 4.25943 0 0)
(96.0158 -1.32666 0 4.50867 0 0)
(110.485 -3.33652 0 4.37331 0 0)
(131.444 -4.78809 0 5.30235 0 0)
(152.199 -10.9617 0 5.60671 0 0)
(187.824 -11.422 0 9.28101 0 0)
(238.328 -28.8421 0 16.8148 0 0)
(291.326 -58.8641 0 32.6636 0 0)
(414.732 -178.24 0 107.79 0 0)
(1.86334 0.365209 0 8.52634 0 0)
(5.00825 0.720227 0 8.72789 0 0)
(9.43476 1.14059 0 8.47663 0 0)
(16.2396 1.29518 0 8.37347 0 0)
(24.6441 1.702 0 8.28376 0 0)
(33.9409 1.50373 0 8.14862 0 0)
(44.8108 1.60001 0 8.0478 0 0)
(55.5114 0.995284 0 7.91554 0 0)
(68.3993 0.603961 0 7.86239 0 0)
(80.1029 -0.589801 0 7.76411 0 0)
(95.3477 -1.77359 0 7.96556 0 0)
(108.529 -4.22097 0 7.91207 0 0)
(128.065 -6.87145 0 9.02794 0 0)
(145.181 -12.28 0 9.26892 0 0)
(173.911 -19.1868 0 14.5848 0 0)
(217.851 -25.9368 0 17.2073 0 0)
(233.547 -55.5297 0 46.2696 0 0)
(326.613 -171.69 0 138.636 0 0)
(2.56053 0.750746 0 14.0459 0 0)
(6.32271 0.80671 0 14.3977 0 0)
(9.29578 1.54059 0 13.9678 0 0)
(17.0939 1.59502 0 13.7729 0 0)
(24.1332 2.12193 0 13.5981 0 0)
(34.2605 1.9381 0 13.3658 0 0)
(43.9643 1.99355 0 13.1604 0 0)
(55.1603 1.41838 0 12.9192 0 0)
(67.3104 0.898681 0 12.7821 0 0)
(78.8914 -0.380893 0 12.5805 0 0)
(94.3998 -1.73217 0 12.7801 0 0)
(105.802 -4.30486 0 12.6878 0 0)
(128.077 -7.25873 0 13.9885 0 0)
(137.898 -13.1456 0 14.6664 0 0)
(170.914 -21.8277 0 21.2442 0 0)
(191.432 -33.0194 0 24.5919 0 0)
(210.998 -55.8704 0 51.5699 0 0)
(265.615 -145.632 0 130.638 0 0)
(2.24134 0.72177 0 21.5415 0 0)
(5.53926 0.940405 0 22.1575 0 0)
(9.19603 1.76434 0 21.3832 0 0)
(16.336 2.07813 0 21.1952 0 0)
(23.9684 2.45139 0 20.7964 0 0)
(33.3578 2.54441 0 20.563 0 0)
(43.604 2.27709 0 20.0943 0 0)
(54.0389 1.93121 0 19.8639 0 0)
(66.4717 0.901704 0 19.4453 0 0)
(77.3451 -0.213593 0 19.2922 0 0)
(92.4944 -2.36501 0 19.2311 0 0)
(103.475 -4.8162 0 19.2735 0 0)
(123.605 -8.97167 0 20.4805 0 0)
(133.891 -14.2498 0 21.4576 0 0)
(161.482 -24.3894 0 28.5149 0 0)
(169.316 -32.3894 0 32.0483 0 0)
(203.347 -58.9849 0 56.8595 0 0)
(190.166 -108.724 0 114.129 0 0)
(1.42017 0.598645 0 29.7669 0 0)
(4.31598 1.13413 0 30.6526 0 0)
(8.5779 1.92454 0 29.5049 0 0)
(15.2468 2.47345 0 29.3336 0 0)
(23.2004 2.77878 0 28.688 0 0)
(32.2591 2.96501 0 28.4268 0 0)
(42.4102 2.60086 0 27.6745 0 0)
(52.7787 2.19416 0 27.3936 0 0)
(64.4131 1.01138 0 26.669 0 0)
(75.5987 -0.358415 0 26.5034 0 0)
(88.6224 -2.7462 0 26.1187 0 0)
(100.409 -5.72782 0 26.3426 0 0)
(115.507 -10.3125 0 27.096 0 0)
(128.048 -15.7882 0 28.6098 0 0)
(144.599 -26.476 0 33.9175 0 0)
(151.979 -33.4406 0 37.4803 0 0)
(180.283 -54.8625 0 53.1731 0 0)
(139.512 -71.256 0 83.6814 0 0)
(1.00141 0.521102 0 38.5417 0 0)
(3.77074 1.28725 0 39.7365 0 0)
(8.17247 2.03617 0 38.1985 0 0)
(14.7218 2.78035 0 38.0572 0 0)
(22.6418 3.00689 0 37.1468 0 0)
(31.579 3.31737 0 36.8716 0 0)
(41.4914 2.80738 0 35.8198 0 0)
(51.764 2.47609 0 35.5009 0 0)
(62.8121 1.04226 0 34.4911 0 0)
(73.8282 -0.276787 0 34.2908 0 0)
(85.6351 -3.0404 0 33.6584 0 0)
(96.9957 -5.89661 0 33.9175 0 0)
(109.307 -10.9398 0 34.4235 0 0)
(121.186 -16.0277 0 36.1419 0 0)
(131.175 -25.5473 0 40.018 0 0)
(138.104 -33.187 0 44.7486 0 0)
(149.927 -47.2851 0 52.4605 0 0)
(123.166 -58.7111 0 73.1177 0 0)
(0.606848 0.484473 0 49.7329 0 0)
(3.22945 1.44596 0 51.3217 0 0)
(7.73626 2.18701 0 49.2241 0 0)
(14.1928 3.03688 0 49.1367 0 0)
(21.9843 3.27472 0 47.8469 0 0)
(30.8413 3.58117 0 47.5675 0 0)
(40.4615 3.06713 0 46.1052 0 0)
(50.5945 2.63955 0 45.7363 0 0)
(61.1127 1.16494 0 44.3156 0 0)
(71.7786 -0.288931 0 44.0715 0 0)
(82.6534 -3.13729 0 43.0255 0 0)
(93.1941 -6.03203 0 43.3435 0 0)
(103.825 -11.0851 0 43.3407 0 0)
(113.689 -15.8338 0 45.1962 0 0)
(121.289 -24.4905 0 47.6941 0 0)
(125.728 -30.5491 0 51.9632 0 0)
(129.055 -40.6882 0 56.4776 0 0)
(115.98 -48.3566 0 69.037 0 0)
(0.43251 0.51626 0 63.9331 0 0)
(2.97671 1.62802 0 65.9891 0 0)
(7.46719 2.3842 0 63.296 0 0)
(13.8413 3.31168 0 63.1843 0 0)
(21.4854 3.57109 0 61.5496 0 0)
(30.1805 3.86119 0 61.1349 0 0)
(39.5353 3.35814 0 59.3258 0 0)
(49.37 2.82087 0 58.7305 0 0)
(59.4344 1.37189 0 57.0083 0 0)
(69.5334 -0.264374 0 56.4898 0 0)
(79.6226 -2.97825 0 55.1851 0 0)
(89.1536 -6.07665 0 55.2397 0 0)
(98.464 -10.5464 0 54.8907 0 0)
(106.338 -15.4066 0 56.4366 0 0)
(112.497 -22.1174 0 57.8759 0 0)
(115.031 -28.03 0 61.604 0 0)
(115.974 -35.1705 0 64.5653 0 0)
(109.532 -40.7651 0 71.4579 0 0)
(0.355908 0.540736 0 81.4335 0 0)
(2.8304 1.74561 0 84.1202 0 0)
(7.25955 2.55562 0 80.6508 0 0)
(13.512 3.50262 0 80.5417 0 0)
(20.9823 3.81017 0 78.4541 0 0)
(29.4573 4.03824 0 77.9008 0 0)
(38.5101 3.562 0 75.6103 0 0)
(47.9751 2.92102 0 74.7851 0 0)
(57.5229 1.48291 0 72.5913 0 0)
(67.0105 -0.220343 0 71.8032 0 0)
(76.2175 -2.869 0 70.0457 0 0)
(84.7986 -5.85248 0 69.7848 0 0)
(92.6989 -9.95471 0 68.9467 0 0)
(99.1249 -14.2808 0 69.8979 0 0)
(103.835 -19.724 0 70.5372 0 0)
(105.779 -24.6343 0 73.0385 0 0)
(105.933 -29.7958 0 74.9778 0 0)
(101.692 -33.2778 0 78.6288 0 0)
(0.329142 0.569207 0 102.52 0 0)
(2.73527 1.80724 0 105.732 0 0)
(7.06665 2.6836 0 101.704 0 0)
(13.1509 3.58412 0 101.234 0 0)
(20.4259 3.93421 0 98.969 0 0)
(28.606 4.05556 0 97.889 0 0)
(37.3345 3.61607 0 95.3729 0 0)
(46.3295 2.83482 0 93.9226 0 0)
(55.3526 1.47582 0 91.4843 0 0)
(64.1278 -0.339975 0 90.0318 0 0)
(72.5013 -2.75641 0 88.0028 0 0)
(80.0863 -5.68575 0 87.0266 0 0)
(86.8028 -9.19369 0 85.8121 0 0)
(92.0605 -13.0805 0 85.8166 0 0)
(95.7592 -17.2958 0 85.7636 0 0)
(97.3434 -21.3601 0 86.902 0 0)
(97.4457 -25.202 0 87.9263 0 0)
(94.6437 -27.6551 0 89.5268 0 0)
(0.313588 0.57346 0 126.525 0 0)
(2.64003 1.77433 0 130.456 0 0)
(6.84593 2.66788 0 125.745 0 0)
(12.7268 3.46368 0 124.934 0 0)
(19.7598 3.79177 0 122.402 0 0)
(27.6061 3.80627 0 120.825 0 0)
(35.9428 3.33333 0 117.94 0 0)
(44.4473 2.48726 0 115.905 0 0)
(52.8789 1.13342 0 113.043 0 0)
(60.9674 -0.628602 0 110.95 0 0)
(68.5114 -2.8951 0 108.457 0 0)
(75.2305 -5.52538 0 106.728 0 0)
(80.9645 -8.57867 0 104.957 0 0)
(85.4109 -11.8002 0 103.95 0 0)
(88.4542 -15.1609 0 103.115 0 0)
(89.891 -18.3266 0 102.937 0 0)
(90.1935 -21.2438 0 102.947 0 0)
(88.2318 -22.889 0 103.096 0 0)
(0.299204 0.524964 0 151.952 0 0)
(2.5321 1.58187 0 156.456 0 0)
(6.58183 2.3776 0 151.324 0 0)
(12.2291 2.98801 0 149.885 0 0)
(18.967 3.21188 0 147.325 0 0)
(26.442 3.0704 0 145.011 0 0)
(34.3381 2.53067 0 141.92 0 0)
(42.3228 1.59947 0 139.112 0 0)
(50.155 0.271198 0 135.911 0 0)
(57.5697 -1.43242 0 133.032 0 0)
(64.3784 -3.49278 0 130.078 0 0)
(70.3535 -5.82888 0 127.502 0 0)
(75.3644 -8.40413 0 125.096 0 0)
(79.2488 -11.0546 0 123.091 0 0)
(81.9454 -13.6909 0 121.374 0 0)
(83.3625 -16.1541 0 120.032 0 0)
(83.945 -18.3513 0 118.939 0 0)
(82.7387 -19.396 0 117.824 0 0)
(0.283904 0.394187 0 175.184 0 0)
(2.41371 1.14537 0 180.388 0 0)
(6.28168 1.67025 0 174.777 0 0)
(11.6675 2.00265 0 172.893 0 0)
(18.0718 2.0001 0 170.21 0 0)
(25.1486 1.66369 0 167.358 0 0)
(32.577 0.983667 0 163.969 0 0)
(40.0418 -0.0245256 0 160.571 0 0)
(47.2958 -1.35795 0 156.951 0 0)
(54.1057 -2.96878 0 153.435 0 0)
(60.2939 -4.83588 0 149.945 0 0)
(65.696 -6.86539 0 146.651 0 0)
(70.2074 -9.01828 0 143.55 0 0)
(73.7551 -11.1649 0 140.692 0 0)
(76.3094 -13.2274 0 138.098 0 0)
(77.8348 -15.1258 0 135.77 0 0)
(78.7167 -16.7723 0 133.655 0 0)
(78.1686 -17.3688 0 131.453 0 0)
(0.268703 0.156267 0 190.302 0 0)
(2.2929 0.390585 0 195.979 0 0)
(5.96528 0.488284 0 190.081 0 0)
(11.0721 0.409681 0 187.937 0 0)
(17.1264 0.0731022 0 185.19 0 0)
(23.7956 -0.535094 0 182.018 0 0)
(30.7626 -1.40394 0 178.437 0 0)
(37.732 -2.52572 0 174.682 0 0)
(44.4679 -3.87478 0 170.768 0 0)
(50.7642 -5.41401 0 166.847 0 0)
(56.468 -7.09998 0 162.952 0 0)
(61.4578 -8.86758 0 159.17 0 0)
(65.6581 -10.6624 0 155.531 0 0)
(69.0398 -12.4065 0 152.066 0 0)
(71.5955 -14.0239 0 148.797 0 0)
(73.3142 -15.4932 0 145.75 0 0)
(74.5089 -16.7286 0 142.855 0 0)
(74.5536 -17.0486 0 139.858 0 0)
(0.259053 -0.142775 0 190.274 0 0)
(2.19544 -0.535204 0 195.909 0 0)
(5.68878 -0.939149 0 190.075 0 0)
(10.5396 -1.49474 0 187.922 0 0)
(16.2784 -2.21545 0 185.218 0 0)
(22.5876 -3.11799 0 182.052 0 0)
(29.1593 -4.1915 0 178.497 0 0)
(35.7209 -5.43023 0 174.745 0 0)
(42.0499 -6.80372 0 170.818 0 0)
(47.9686 -8.28338 0 166.863 0 0)
(53.341 -9.82243 0 162.887 0 0)
(58.0789 -11.3784 0 158.999 0 0)
(62.1212 -12.8985 0 155.184 0 0)
(65.4619 -14.3392 0 151.518 0 0)
(68.0996 -15.6355 0 147.974 0 0)
(70.0399 -16.7945 0 144.633 0 0)
(71.5162 -17.7407 0 141.383 0 0)
(72.0502 -17.9447 0 138.05 0 0)
(0.255903 -0.396688 0 174.451 0 0)
(2.13633 -1.30751 0 179.405 0 0)
(5.49818 -2.1296 0 174.073 0 0)
(10.1592 -3.07859 0 172.079 0 0)
(15.6647 -4.10743 0 169.597 0 0)
(21.71 -5.23686 0 166.707 0 0)
(27.9979 -6.4598 0 163.454 0 0)
(34.2741 -7.77314 0 160.029 0 0)
(40.3286 -9.14845 0 156.422 0 0)
(46.0048 -10.5659 0 152.791 0 0)
(51.1776 -11.9834 0 149.106 0 0)
(55.7787 -13.3746 0 145.497 0 0)
(59.7549 -14.6945 0 141.912 0 0)
(63.1102 -15.92 0 138.459 0 0)
(65.8427 -16.9997 0 135.073 0 0)
(67.9697 -17.9488 0 131.87 0 0)
(69.6606 -18.706 0 128.713 0 0)
(70.5576 -18.893 0 125.511 0 0)
(0.257374 -0.545862 0 149.004 0 0)
(2.10862 -1.74869 0 152.964 0 0)
(5.3839 -2.82477 0 148.426 0 0)
(9.91741 -4.00868 0 146.708 0 0)
(15.2663 -5.21277 0 144.587 0 0)
(21.1348 -6.46202 0 142.132 0 0)
(27.2352 -7.74843 0 139.367 0 0)
(33.3255 -9.07385 0 136.461 0 0)
(39.2061 -10.4109 0 133.388 0 0)
(44.7333 -11.7497 0 130.295 0 0)
(49.792 -13.052 0 127.137 0 0)
(54.3227 -14.3046 0 124.041 0 0)
(58.2795 -15.4682 0 120.945 0 0)
(61.6678 -16.5339 0 117.955 0 0)
(64.4867 -17.458 0 115.005 0 0)
(66.7585 -18.2597 0 112.206 0 0)
(68.6082 -18.8884 0 109.432 0 0)
(69.7682 -19.0973 0 106.64 0 0)
(0.260248 -0.601614 0 120.09 0 0)
(2.09975 -1.89078 0 123.061 0 0)
(5.31798 -3.06927 0 119.412 0 0)
(9.76619 -4.34272 0 118.017 0 0)
(15.0103 -5.60135 0 116.311 0 0)
(20.7613 -6.87127 0 114.346 0 0)
(26.738 -8.14221 0 112.132 0 0)
(32.7077 -9.41954 0 109.805 0 0)
(38.4781 -10.6779 0 107.34 0 0)
(43.9138 -11.9142 0 104.855 0 0)
(48.9073 -13.0946 0 102.312 0 0)
(53.4042 -14.2147 0 99.8125 0 0)
(57.3632 -15.24 0 97.3068 0 0)
(60.789 -16.1704 0 94.8803 0 0)
(63.682 -16.9691 0 92.481 0 0)
(66.067 -17.6556 0 90.1966 0 0)
(68.0389 -18.1891 0 87.9307 0 0)
(69.3976 -18.4242 0 85.6544 0 0)
(0.263195 -0.590779 0 91.9282 0 0)
(2.09944 -1.8309 0 94.0447 0 0)
(5.28029 -2.99804 0 91.2526 0 0)
(9.6717 -4.24884 0 90.1787 0 0)
(14.8454 -5.46942 0 88.879 0 0)
(20.5178 -6.68219 0 87.3837 0 0)
(26.4129 -7.87672 0 85.7025 0 0)
(32.3038 -9.058 0 83.93 0 0)
(38.0041 -10.2053 0 82.0536 0 0)
(43.3837 -11.3174 0 80.1558 0 0)
(48.3407 -12.3674 0 78.2142 0 0)
(52.8232 -13.3536 0 76.299 0 0)
(56.7935 -14.2486 0 74.3801 0 0)
(60.2547 -15.0548 0 72.516 0 0)
(63.2086 -15.7443 0 70.6738 0 0)
(65.6823 -16.3319 0 68.9131 0 0)
(67.7484 -16.7886 0 67.1695 0 0)
(69.26 -17.0377 0 65.4158 0 0)
(0.26628 -0.536955 0 66.9642 0 0)
(2.10332 -1.65157 0 68.4052 0 0)
(5.25905 -2.73177 0 66.3727 0 0)
(9.61276 -3.88498 0 65.5895 0 0)
(14.7392 -5.00481 0 64.6511 0 0)
(20.3594 -6.10715 0 63.5689 0 0)
(26.2009 -7.18398 0 62.3542 0 0)
(32.0409 -8.23717 0 61.0681 0 0)
(37.6972 -9.25194 0 59.7087 0 0)
(43.0432 -10.2258 0 58.3284 0 0)
(47.9813 -11.1396 0 56.9189 0 0)
(52.4607 -11.9909 0 55.5237 0 0)
(56.4461 -12.7601 0 54.1292 0 0)
(59.9393 -13.4492 0 52.7699 0 0)
(62.9433 -14.0384 0 51.4292 0 0)
(65.486 -14.5372 0 50.1428 0 0)
(67.6246 -14.9271 0 48.8726 0 0)
(69.254 -15.1747 0 47.5909 0 0)
(0.268107 -0.463037 0 46.3108 0 0)
(2.10775 -1.41648 0 47.25 0 0)
(5.24725 -2.36466 0 45.8487 0 0)
(9.57604 -3.37629 0 45.3105 0 0)
(14.6709 -4.35761 0 44.6691 0 0)
(20.2565 -5.31804 0 43.925 0 0)
(26.0635 -6.25256 0 43.0907 0 0)
(31.8712 -7.15946 0 42.2031 0 0)
(37.5008 -8.02982 0 41.2673 0 0)
(42.8275 -8.85896 0 40.3138 0 0)
(47.7564 -9.63462 0 39.3434 0 0)
(52.2378 -10.3528 0 38.3804 0 0)
(56.2376 -11.0012 0 37.4205 0 0)
(59.7569 -11.5793 0 36.4821 0 0)
(62.7989 -12.0748 0 35.5585 0 0)
(65.3924 -12.4914 0 34.669 0 0)
(67.583 -12.8194 0 33.7937 0 0)
(69.2983 -13.0496 0 32.9072 0 0)
(0.26929 -0.383218 0 30.1718 0 0)
(2.11133 -1.16512 0 30.7564 0 0)
(5.24056 -1.95904 0 29.8458 0 0)
(9.55265 -2.80829 0 29.4985 0 0)
(14.6262 -3.63217 0 29.0863 0 0)
(20.1886 -4.43687 0 28.6056 0 0)
(25.9726 -5.21863 0 28.0662 0 0)
(31.7581 -5.97442 0 27.4904 0 0)
(37.3689 -6.69775 0 26.8841 0 0)
(42.6811 -7.38387 0 26.2655 0 0)
(47.6017 -8.02423 0 25.6373 0 0)
(52.0805 -8.6147 0 25.0126 0 0)
(56.0857 -9.14733 0 24.3914 0 0)
(59.6171 -9.62022 0 23.7825 0 0)
(62.6787 -10.0258 0 23.1841 0 0)
(65.298 -10.3645 0 22.6062 0 0)
(67.5156 -10.6317 0 22.0389 0 0)
(69.2839 -10.8292 0 21.4631 0 0)
(0.269607 -0.304713 0 18.22 0 0)
(2.1131 -0.920142 0 18.5643 0 0)
(5.23521 -1.55469 0 18.0134 0 0)
(9.53328 -2.23782 0 17.8074 0 0)
(14.5878 -2.90216 0 17.5642 0 0)
(20.1282 -3.55232 0 17.2796 0 0)
(25.8878 -4.18353 0 16.9593 0 0)
(31.6478 -4.79249 0 16.6162 0 0)
(37.2329 -5.37264 0 16.2543 0 0)
(42.5199 -5.92053 0 15.8842 0 0)
(47.4179 -6.42887 0 15.5074 0 0)
(51.8757 -6.89532 0 15.1322 0 0)
(55.8651 -7.31305 0 14.7585 0 0)
(59.3838 -7.68179 0 14.3916 0 0)
(62.4402 -7.99572 0 14.031 0 0)
(65.0567 -8.25545 0 13.6819 0 0)
(67.2774 -8.46015 0 13.3398 0 0)
(69.0732 -8.61052 0 12.9928 0 0)
(0.269262 -0.228353 0 9.88661 0 0)
(2.11086 -0.691511 0 10.0702 0 0)
(5.21801 -1.17908 0 9.77289 0 0)
(9.48982 -1.70897 0 9.67049 0 0)
(14.5142 -2.22354 0 9.54606 0 0)
(20.0211 -2.72408 0 9.39682 0 0)
(25.7438 -3.20627 0 9.2261 0 0)
(31.4659 -3.66762 0 9.04182 0 0)
(37.0119 -4.1024 0 8.84601 0 0)
(42.2617 -4.50904 0 8.64495 0 0)
(47.1238 -4.88195 0 8.43923 0 0)
(51.5515 -5.2213 0 8.23403 0 0)
(55.5156 -5.52129 0 8.02879 0 0)
(59.0181 -5.78413 0 7.82746 0 0)
(62.0662 -6.00371 0 7.62911 0 0)
(64.6819 -6.18359 0 7.43772 0 0)
(66.9063 -6.32672 0 7.25088 0 0)
(68.7355 -6.42876 0 7.0626 0 0)
(0.268127 -0.154856 0 4.48803 0 0)
(2.08399 -0.498028 0 4.58368 0 0)
(5.1567 -0.852631 0 4.45843 0 0)
(9.38898 -1.22911 0 4.42279 0 0)
(14.3878 -1.58625 0 4.37171 0 0)
(19.8692 -1.92864 0 4.30727 0 0)
(25.5653 -2.25366 0 4.22993 0 0)
(31.2615 -2.55903 0 4.14342 0 0)
(36.7845 -2.8432 0 4.05036 0 0)
(42.0137 -3.10732 0 3.95451 0 0)
(46.8591 -3.34849 0 3.85667 0 0)
(51.2775 -3.56757 0 3.75954 0 0)
(55.2358 -3.76082 0 3.66262 0 0)
(58.7442 -3.9303 0 3.56861 0 0)
(61.799 -4.0699 0 3.4759 0 0)
(64.4334 -4.18495 0 3.3884 0 0)
(66.655 -4.27543 0 3.30312 0 0)
(68.5124 -4.34547 0 3.21889 0 0)
(0.25521 -0.0882171 0 1.42163 0 0)
(2.06796 -0.313526 0 1.48738 0 0)
(5.20506 -0.526123 0 1.4473 0 0)
(9.49578 -0.734545 0 1.43415 0 0)
(14.548 -0.924682 0 1.41403 0 0)
(20.0807 -1.10733 0 1.39076 0 0)
(25.8329 -1.28398 0 1.36411 0 0)
(31.5882 -1.4521 0 1.33477 0 0)
(37.1727 -1.61003 0 1.30377 0 0)
(42.4608 -1.75761 0 1.27215 0 0)
(47.3657 -1.89333 0 1.24033 0 0)
(51.8364 -2.0172 0 1.2089 0 0)
(55.8445 -2.12721 0 1.17785 0 0)
(59.3926 -2.22401 0 1.14787 0 0)
(62.4806 -2.30352 0 1.11859 0 0)
(65.1465 -2.36973 0 1.0921 0 0)
(67.3678 -2.42234 0 1.06687 0 0)
(69.2173 -2.46182 0 1.03991 0 0)
(0.24589 -0.0253363 0 0.141906 0 0)
(2.06579 -0.0978411 0 0.15369 0 0)
(5.18399 -0.165596 0 0.150904 0 0)
(9.44392 -0.230855 0 0.149736 0 0)
(14.4774 -0.293764 0 0.147433 0 0)
(19.9975 -0.354099 0 0.144705 0 0)
(25.7433 -0.412919 0 0.141705 0 0)
(31.4962 -0.469413 0 0.138573 0 0)
(37.0879 -0.522752 0 0.13535 0 0)
(42.394 -0.572754 0 0.132097 0 0)
(47.3293 -0.61911 0 0.128839 0 0)
(51.8409 -0.661789 0 0.125636 0 0)
(55.9025 -0.700222 0 0.122492 0 0)
(59.5092 -0.734266 0 0.119467 0 0)
(62.6675 -0.763188 0 0.116641 0 0)
(65.4102 -0.788434 0 0.114302 0 0)
(67.7217 -0.806651 0 0.112226 0 0)
(69.6487 -0.81596 0 0.111841 0 0)
(0.0244843 0.0357804 0 0.717788 0 0)
(0.267289 0.099168 0 0.678821 0 0)
(0.785572 0.181028 0 0.671641 0 0)
(1.53913 0.295162 0 0.662397 0 0)
(2.48617 0.424267 0 0.660789 0 0)
(3.60845 0.569169 0 0.657523 0 0)
(4.88408 0.716289 -2.38523e-19 0.655571 -6.48921e-20 1.47917e-37)
(6.31021 0.867232 2.42488e-19 0.651275 6.92003e-20 1.48369e-37)
(7.88022 1.01419 0 0.645268 0 0)
(9.59214 1.16161 2.44811e-19 0.637693 6.86164e-20 1.46148e-37)
(11.4408 1.30562 0 0.629105 0 0)
(13.4202 1.44846 0 0.620002 0 0)
(15.5238 1.58554 0 0.612036 0 0)
(17.7452 1.7172 -2.77244e-19 0.605557 -5.16996e-20 1.34784e-37)
(20.0782 1.8403 0 0.599329 0 0)
(22.5234 1.95388 0 0.594083 0 0)
(25.0808 2.05376 3.40449e-19 0.589766 3.90217e-20 1.22124e-37)
(27.749 2.14159 0 0.585294 0 0)
(30.5229 2.22006 0 0.580613 0 0)
(33.3968 2.29141 0 0.576169 0 0)
(36.3548 2.35464 -4.56428e-19 0.572843 -1.95609e-20 1.01806e-37)
(39.3872 2.41045 0 0.569092 0 0)
(42.4804 2.4569 -5.16178e-19 0.566811 -1.0281e-20 9.25459e-38)
(45.6251 2.49388 0 0.567967 0 0)
(48.8052 2.52763 0 0.568657 0 0)
(52.0064 2.55082 -6.04241e-19 0.570774 1.18878e-21 7.97822e-38)
(55.2216 2.55321 0 0.572609 0 0)
(58.4551 2.53599 6.57798e-19 0.571124 -6.90655e-21 7.217e-38)
(61.7009 2.50511 0 0.563311 0 0)
(64.9648 2.4624 -7.02494e-19 0.552949 1.04772e-20 6.54036e-38)
(68.2456 2.41048 0 0.53942 0 0)
(71.5307 2.35183 0 0.523611 0 0)
(74.8126 2.28635 0 0.509572 0 0)
(78.0928 2.21029 0 0.49819 0 0)
(81.3651 2.12304 0 0.486638 0 0)
(84.6264 2.02752 7.79541e-19 0.475734 -1.40032e-20 4.59974e-38)
(87.8753 1.9236 0 0.464108 0 0)
(91.1129 1.81114 -1.56218e-18 0.44806 2.71619e-20 1.61378e-37)
(94.3376 1.69173 0 0.43246 0 0)
(97.5446 1.56423 1.55214e-18 0.417818 -2.61831e-20 1.39968e-37)
(100.727 1.43113 0 0.402669 0 0)
(103.884 1.28883 0 0.391006 0 0)
(107.007 1.13828 -1.51413e-18 0.378445 2.15766e-20 1.11276e-37)
(110.077 0.985485 0 0.365631 0 0)
(113.081 0.830711 -1.47563e-18 0.354822 1.82714e-20 9.43459e-38)
(116.003 0.672817 1.45319e-18 0.345967 -1.65376e-20 8.66558e-38)
(118.826 0.509124 0 0.339853 0 0)
(121.545 0.339234 1.40242e-18 0.335083 -1.25138e-20 7.34484e-38)
(124.14 0.163889 1.37423e-18 0.331192 -1.06482e-20 6.79886e-38)
(126.615 -0.0139661 0 0.327942 0 0)
(128.953 -0.193253 0 0.325817 0 0)
(131.136 -0.376788 0 0.323138 0 0)
(133.144 -0.565304 0 0.321925 0 0)
(134.955 -0.756111 0 0.323965 0 0)
(136.543 -0.945905 -1.17402e-18 0.328174 -4.39155e-21 5.01989e-38)
(137.88 -1.13714 0 0.332274 0 0)
(138.955 -1.33317 1.0794e-18 0.335951 1.14571e-20 4.75466e-38)
(139.769 -1.53581 0 0.341167 0 0)
(140.319 -1.74463 0 0.347956 0 0)
(140.589 -1.95057 -9.11652e-19 0.357276 -2.24596e-20 4.75429e-38)
(140.574 -2.1547 0 0.369256 0 0)
(140.256 -2.35971 7.80233e-19 0.381261 3.12421e-20 4.97076e-38)
(139.642 -2.5635 0 0.39155 0 0)
(138.728 -2.76721 0 0.404341 0 0)
(137.523 -2.97008 0 0.418509 0 0)
(136.04 -3.16574 -4.81921e-19 0.432914 -4.76026e-20 6.03583e-38)
(134.281 -3.35479 0 0.447635 0 0)
(132.26 -3.53748 0 0.460707 0 0)
(129.989 -3.71285 -2.26192e-19 0.474359 -6.11895e-20 7.30537e-38)
(127.489 -3.886 0 0.489431 0 0)
(124.796 -4.05187 -5.06387e-20 0.504609 -6.98344e-20 8.30358e-38)
(121.921 -4.20531 0 0.520065 0 0)
(118.883 -4.34657 0 0.536065 0 0)
(115.711 -4.47707 0 0.553208 0 0)
(112.428 -4.59826 -3.04988e-19 0.571353 8.31993e-20 1.04545e-37)
(109.052 -4.70738 0 0.589444 0 0)
(105.601 -4.80119 0 0.607405 0 0)
(102.085 -4.87994 -5.64359e-19 0.625504 9.03258e-20 1.20175e-37)
(98.5175 -4.94806 -6.46183e-19 0.644287 9.18659e-20 1.25289e-37)
(94.9267 -5.00522 0 0.663098 0 0)
(91.3431 -5.05053 -7.99242e-19 0.682826 9.46368e-20 1.34714e-37)
(87.788 -5.0847 0 0.704021 0 0)
(84.2818 -5.10693 -1.87815e-18 0.725591 1.92595e-19 5.74503e-37)
(80.8386 -5.11616 0 0.748246 0 0)
(77.4764 -5.11085 -2.12315e-18 0.770824 1.9372e-19 6.07655e-37)
(74.2132 -5.08914 0 0.793768 0 0)
(71.0632 -5.05435 2.32582e-18 0.819739 -1.93866e-19 6.3663e-37)
(68.0438 -5.00633 0 0.844776 0 0)
(65.1692 -4.93975 0 0.867103 0 0)
(62.4394 -4.8545 0 0.889821 0 0)
(59.8589 -4.75248 -2.5868e-18 0.914833 1.86219e-19 6.79935e-37)
(57.4333 -4.636 0 0.939434 0 0)
(55.1717 -4.50332 2.64733e-18 0.963681 -1.79944e-19 6.94658e-37)
(53.0765 -4.35434 0 0.987401 0 0)
(51.1366 -4.18315 -2.65915e-18 1.01093 1.73634e-19 7.03441e-37)
(49.347 -3.99549 -2.64995e-18 1.03216 1.70409e-19 7.06935e-37)
(47.6951 -3.79497 -2.63107e-18 1.0533 1.66274e-19 7.09589e-37)
(46.1756 -3.58528 0 1.07566 0 0)
(44.762 -3.36555 0 1.09875 0 0)
(43.4654 -3.13687 0 1.1183 0 0)
(42.2676 -2.89939 0 1.13809 0 0)
(41.1632 -2.65991 0 1.15785 0 0)
(40.1344 -2.41995 0 1.1769 0 0)
(39.1788 -2.17741 0 1.19207 0 0)
(38.2507 -1.93401 0 1.20801 0 0)
(37.3479 -1.69709 2.02469e-18 1.22323 -1.31554e-19 7.07488e-37)
(36.4373 -1.46873 1.9105e-18 1.24034 -1.24283e-19 7.06799e-37)
(35.5422 -1.24941 0 1.25189 0 0)
(34.628 -1.03902 0 1.26489 0 0)
(33.7058 -0.852502 0 1.279 0 0)
(32.7235 -0.676439 1.35423e-18 1.2917 -1.04792e-19 6.90663e-37)
(31.7823 -0.526475 0 1.299 0 0)
(30.7745 -0.384486 0 1.3088 0 0)
(29.8216 -0.282145 0 1.31891 0 0)
(28.9007 -0.199165 0 1.33196 0 0)
(28.0781 -0.149031 -4.39645e-19 1.34029 7.56061e-20 6.6572e-37)
(27.3862 -0.122752 0 1.3494 0 0)
(26.8533 -0.131235 0 1.3628 0 0)
(26.5631 -0.173248 -2.23424e-19 1.37039 -6.50705e-20 6.41996e-37)
(26.5138 -0.241908 4.50776e-19 1.38343 6.09948e-20 6.29577e-37)
(26.7618 -0.351723 0 1.40036 0 0)
(27.3603 -0.508237 9.12992e-19 1.41759 6.00704e-20 6.04983e-37)
(28.374 -0.704874 0 1.43674 0 0)
(29.8654 -0.957048 -1.35386e-18 1.45441 -6.45916e-20 5.75371e-37)
(31.8554 -1.24313 0 1.47714 0 0)
(34.4182 -1.57906 0 1.50416 0 0)
(37.4527 -1.95721 0 1.53689 0 0)
(41.0697 -2.38597 0 1.57114 0 0)
(45.1216 -2.84075 0 1.60918 0 0)
(49.6138 -3.34206 4.89752e-18 1.65134 2.04574e-19 1.97156e-36)
(54.4815 -3.88736 5.1525e-18 1.69745 2.30506e-19 1.93676e-36)
(59.7439 -4.46831 0 1.74551 0 0)
(65.2021 -5.06973 0 1.80146 0 0)
(70.8172 -5.69639 0 1.85666 0 0)
(76.4396 -6.30873 -5.69279e-18 1.91756 -3.52131e-19 1.91679e-36)
(81.8414 -6.92257 0 1.98873 0 0)
(86.9858 -7.54374 0 2.06091 0 0)
(91.8153 -8.1579 0 2.13737 0 0)
(96.2542 -8.75049 -5.33092e-18 2.21565 -5.33304e-19 2.07094e-36)
(100.284 -9.31719 5.09723e-18 2.29908 5.81972e-19 2.13272e-36)
(103.695 -9.83902 0 2.38982 0 0)
(106.602 -10.3483 0 2.48259 0 0)
(108.972 -10.8017 4.07871e-18 2.57712 7.34988e-19 2.36469e-36)
(110.811 -11.221 3.64976e-18 2.67049 7.83821e-19 2.44995e-36)
(111.966 -11.5651 0 2.77075 0 0)
(112.54 -11.8803 0 2.87067 0 0)
(112.423 -12.1225 -2.05254e-18 2.97463 -9.45265e-19 2.71777e-36)
(111.748 -12.347 1.42319e-18 3.06962 9.88854e-19 2.79646e-36)
(110.558 -12.5009 0 3.16639 0 0)
(108.653 -12.6009 0 3.26701 0 0)
(106.155 -12.6346 -5.20751e-19 3.35788 1.11667e-18 3.06701e-36)
(103.025 -12.6145 0 3.44835 0 0)
(99.5464 -12.5566 0 3.53192 0 0)
(95.5611 -12.408 -2.54711e-18 3.60435 1.20562e-18 3.29942e-36)
(91.2648 -12.1875 0 3.67632 0 0)
(86.6447 -11.856 -3.83084e-18 3.73778 1.25656e-18 3.44233e-36)
(81.7588 -11.4392 0 3.79352 0 0)
(76.6492 -10.9045 0 3.83268 0 0)
(71.7031 -10.2717 0 3.85681 0 0)
(66.8189 -9.47465 5.86955e-18 3.87557 -1.27731e-18 3.68054e-36)
(62.1554 -8.55757 0 3.8792 0 0)
(57.9301 -7.48862 0 3.86711 0 0)
(54.468 -6.29991 0 3.83925 0 0)
(51.606 -4.92241 0 3.79731 0 0)
(49.5122 -3.46403 0 3.74666 0 0)
(48.7893 -1.91071 0 3.67472 0 0)
(49.6256 -0.287638 6.02011e-18 3.5851 -1.10383e-18 3.72617e-36)
(51.6804 1.4252 5.60442e-18 3.48689 -1.04965e-18 3.7088e-36)
(55.38 3.11685 0 3.3754 0 0)
(60.6334 4.743 0 3.25753 0 0)
(67.4373 6.32266 0 3.12808 0 0)
(75.3689 7.79574 -3.05122e-18 2.99844 7.94932e-19 3.38289e-36)
(84.4937 9.09662 0 2.87027 0 0)
(94.0505 10.2845 2.94624e-18 2.73528 -1.35016e-18 1.23596e-35)
(103.937 11.2416 -1.30832e-18 2.60458 1.21738e-18 1.16583e-35)
(113.572 12.0319 3.19204e-19 2.47335 1.10486e-18 1.10164e-35)
(123.225 12.6824 -2.02213e-18 2.34861 -1.01409e-18 1.03315e-35)
(131.343 13.2235 3.6741e-18 2.22967 9.22679e-19 9.75733e-36)
(139.216 13.7005 -5.27854e-18 2.12242 -9.03381e-19 8.99329e-36)
(142.965 14.3933 0 2.0665 0 0)
(0.0183115 0.174292 0 6.10022 0 0)
(0.202752 0.388081 0 6.03809 0 0)
(0.629576 0.610103 1.31884e-19 5.86515 1.75784e-19 6.7666e-37)
(1.32724 0.854713 0 5.74417 0 0)
(2.26954 1.1341 -1.92611e-19 5.68424 -3.53543e-19 9.19814e-37)
(3.44595 1.43892 -1.84201e-19 5.65708 -4.41514e-19 9.72947e-37)
(4.83537 1.76352 -8.0781e-20 5.64175 -2.51498e-19 2.49077e-37)
(6.42354 2.10396 -6.90135e-20 5.6238 -2.70433e-19 2.61333e-37)
(8.20257 2.45299 0 5.59549 0 0)
(10.1705 2.80614 -4.21572e-20 5.55291 -2.69251e-19 2.59485e-37)
(12.3285 3.15464 0 5.501 0 0)
(14.6749 3.49609 0 5.44132 0 0)
(17.2014 3.82532 9.46946e-20 5.37295 4.2389e-19 9.51353e-37)
(19.9087 4.14187 6.95279e-20 5.30098 1.8694e-19 2.34186e-37)
(22.7862 4.43612 -1.85525e-19 5.22567 -3.26296e-19 8.9384e-37)
(25.8279 4.70802 -2.51822e-19 5.14737 -2.81242e-19 8.66098e-37)
(29.0223 4.95902 -1.71282e-19 5.06293 -1.18445e-19 2.1279e-37)
(32.3632 5.19063 0 4.97211 0 0)
(35.8387 5.40123 0 4.87633 0 0)
(39.44 5.59535 0 4.77353 0 0)
(43.1438 5.77228 -3.86763e-19 4.66846 -3.67133e-20 1.80417e-37)
(46.9409 5.92933 0 4.56374 0 0)
(50.8086 6.05806 1.60909e-18 4.45699 -1.60393e-20 1.55191e-36)
(54.7345 6.16204 0 4.35381 0 0)
(58.7017 6.24282 0 4.24844 0 0)
(62.6932 6.30053 7.74707e-19 4.1441 -5.75758e-20 1.56506e-37)
(66.6813 6.33185 0 4.03807 0 0)
(70.6471 6.34612 -9.32822e-19 3.93743 8.16878e-20 1.46001e-37)
(74.5571 6.33703 -1.99325e-18 3.83745 1.8134e-19 5.5711e-37)
(78.4012 6.29944 1.07689e-18 3.73472 -9.86444e-20 1.36626e-37)
(82.1755 6.23036 0 3.62693 0 0)
(85.8799 6.13336 0 3.52163 0 0)
(89.5008 6.01094 0 3.41828 0 0)
(93.0423 5.86418 -2.57611e-18 3.31012 2.22556e-19 4.71384e-37)
(96.4961 5.6876 -2.65435e-18 3.20262 2.20051e-19 4.55218e-37)
(99.8757 5.48148 -1.37335e-18 3.10156 1.07439e-19 1.10771e-37)
(103.19 5.24421 0 3.00956 0 0)
(106.431 4.97078 2.83738e-18 2.92136 -2.02675e-19 4.1287e-37)
(109.608 4.6592 0 2.83608 0 0)
(112.715 4.31879 -2.874e-18 2.75449 1.88102e-19 3.81621e-37)
(115.759 3.95065 0 2.67409 0 0)
(118.737 3.56262 0 2.6019 0 0)
(121.655 3.15867 2.82703e-18 2.53095 -1.53827e-19 3.3174e-37)
(124.498 2.73583 0 2.46563 0 0)
(127.248 2.28754 8.15857e-18 2.40766 -3.92953e-19 2.68501e-36)
(129.903 1.80961 -2.68842e-18 2.36234 1.1908e-19 2.83761e-37)
(132.466 1.30643 0 2.33522 0 0)
(134.954 0.778119 -2.54883e-18 2.31944 9.0895e-20 2.51824e-37)
(137.351 0.217122 -2.46824e-18 2.31321 7.66787e-20 2.36258e-37)
(139.655 -0.370099 0 2.31555 0 0)
(141.843 -0.968989 0 2.32898 0 0)
(143.897 -1.56545 0 2.34402 0 0)
(145.801 -2.15 0 2.35755 0 0)
(147.518 -2.72699 0 2.38111 0 0)
(149.036 -3.30542 1.88343e-18 2.41383 1.44735e-20 1.72144e-37)
(150.333 -3.89279 3.45136e-18 2.45709 7.10686e-20 6.56092e-37)
(151.39 -4.48385 -1.64453e-18 2.50818 -5.58761e-20 1.60156e-37)
(152.218 -5.09322 0 2.56432 0 0)
(152.788 -5.70404 2.68734e-18 2.62745 1.90189e-19 6.01656e-37)
(153.075 -6.29427 -1.17017e-18 2.69554 -1.13234e-19 1.46915e-37)
(153.104 -6.87941 0 2.77224 0 0)
(152.826 -7.45857 -9.78282e-19 2.8621 -1.48615e-19 1.49552e-37)
(152.253 -8.016 0 2.95534 0 0)
(151.378 -8.56416 0 3.05662 0 0)
(150.198 -9.09396 -1.04745e-18 3.16276 -3.96994e-19 6.2577e-37)
(148.7 -9.59486 4.22545e-19 3.2736 2.15287e-19 1.63806e-37)
(146.922 -10.0879 -4.88955e-19 3.3939 -4.62311e-19 6.68638e-37)
(144.857 -10.5596 2.11852e-19 3.5184 4.89199e-19 6.92406e-37)
(142.534 -11.007 9.99369e-21 3.64405 2.545e-19 1.82742e-37)