/*--------------------------------*- C++ -*----------------------------------*\
| =========                 |                                                 |
| \\      /  F ield         | OpenFOAM: The Open Source CFD Toolbox           |
|  \\    /   O peration     | Version:  dev                                   |
|   \\  /    A nd           | Web:      http://www.openfoam.org               |
|    \\/     M anipulation  |                                                 |
\*---------------------------------------------------------------------------*/
FoamFile
{
    version     2.0;
    format      ascii;
    class       volScalarField;
    object      k;
    location    "9.134";
}
// * * * * * * * * * * * * * * * * * * * * * * * * * * * * * * * * * * * * * //

dimensions      [0 2 -2 0 0 0 0];

internalField   nonuniform List<scalar> 
12225
(
8.21457
7.95727
5.0835
5.83719
7.54139
9.53111
12.4573
14.6812
17.4034
19.0347
21.4949
22.9361
23.6643
24.927
35.9283
45.3292
128.328
161.675
1.20292
6.04611
5.82674
6.75405
6.47929
7.35504
8.32039
9.15822
10.6937
11.0807
12.7173
12.7221
12.6741
13.9176
19.6288
27.4026
41.0206
64.2205
0.120615
2.05859
2.78179
3.96527
4.21728
4.39746
5.24656
4.9755
5.76102
5.66554
6.39303
6.16825
6.01451
7.83935
16.124
28.6631
35.5594
52.8562
0.0212428
0.357768
0.952952
1.20947
1.96005
1.81945
2.77166
2.38654
2.81826
2.77547
3.24126
3.39719
3.0945
4.78327
10.3391
24.3846
33.5996
35.5178
0.00578569
0.0721105
0.315433
0.389691
0.802989
0.722077
1.22422
1.15874
1.25731
1.31961
1.55314
1.84007
1.61553
2.30916
5.24835
18.6877
36.8037
27.3057
0.00887803
0.0367466
0.131612
0.158024
0.35113
0.348478
0.586892
0.70278
0.777547
0.85906
1.0115
1.23431
1.09965
1.49058
3.17887
11.9351
35.7903
32.2547
0.0240482
0.0370155
0.0864435
0.0959929
0.232382
0.219781
0.51872
0.535505
0.77191
0.783955
1.03512
0.965593
0.982042
1.2214
2.20276
7.14678
30.1017
35.5584
0.0366346
0.0463836
0.0660656
0.0793512
0.133219
0.157903
0.419635
0.346411
0.743859
0.612543
0.697225
0.821819
0.933142
1.114
1.83559
4.73516
20.0819
33.81
0.0503643
0.0664776
0.0720041
0.0870995
0.109119
0.14624
0.231548
0.275502
0.438655
0.424168
0.498754
0.812379
0.692848
0.759338
1.53632
2.43335
9.08994
18.5971
0.0809655
0.105573
0.101671
0.106417
0.120026
0.142426
0.226322
0.254024
0.396695
0.385576
0.427637
0.389275
0.480518
0.566494
0.887777
1.17816
3.10222
3.87596
0.164625
0.174301
0.157982
0.152101
0.137695
0.133573
0.156185
0.151194
0.198484
0.187617
0.184511
0.191737
0.263987
0.322891
0.473693
0.542227
1.02262
1.03601
0.298154
0.283315
0.250089
0.233217
0.195691
0.145691
0.136251
0.122051
0.118096
0.111056
0.114154
0.11647
0.146418
0.176364
0.253468
0.262277
0.432247
0.45067
0.517622
0.45497
0.388659
0.348505
0.280487
0.211303
0.156848
0.124397
0.109269
0.0996204
0.0967742
0.0947514
0.104829
0.116877
0.14862
0.153406
0.221614
0.241664
0.859992
0.729248
0.616668
0.526555
0.402964
0.309007
0.226298
0.168994
0.128126
0.108322
0.0985136
0.0946234
0.0984092
0.103994
0.12039
0.128803
0.163253
0.185935
1.42586
1.18909
1.01857
0.839983
0.646947
0.491653
0.365022
0.270626
0.197481
0.154409
0.130448
0.12082
0.11737
0.117756
0.123732
0.141392
0.166077
0.187695
2.14139
1.71821
1.38913
1.09028
0.823512
0.611947
0.448869
0.328844
0.24645
0.195258
0.167891
0.15636
0.152671
0.152839
0.15926
0.185174
0.217823
0.24327
2.39683
1.8845
1.4947
1.16296
0.876294
0.648488
0.474205
0.345897
0.25973
0.206358
0.177865
0.165941
0.162237
0.16246
0.169202
0.195825
0.232636
0.262239
2.34692
1.85903
1.48012
1.15362
0.870722
0.645132
0.472104
0.344518
0.259108
0.206518
0.178319
0.166493
0.162915
0.163084
0.169254
0.194128
0.231604
0.26185
1.89279
1.58245
1.3111
1.04271
0.798425
0.597513
0.440425
0.323784
0.245413
0.197324
0.171475
0.160438
0.157049
0.157121
0.161779
0.181685
0.217279
0.246683
1.22611
1.0525
0.924507
0.768478
0.612255
0.473064
0.357
0.268529
0.207172
0.169104
0.148567
0.139557
0.136832
0.136752
0.139432
0.151908
0.181727
0.207632
0.725359
0.621931
0.536829
0.443138
0.3576
0.284327
0.222236
0.170999
0.132383
0.109248
0.0975167
0.0924653
0.0909476
0.0910417
0.09308
0.101187
0.116816
0.132736
0.417056
0.367059
0.328004
0.278556
0.231719
0.183884
0.141836
0.109925
0.0916179
0.0809855
0.0754094
0.0731232
0.0724567
0.0732961
0.0769714
0.0859961
0.0929598
0.10012
0.208308
0.192395
0.182437
0.160279
0.130809
0.111682
0.0992313
0.0903042
0.0826096
0.0762412
0.072607
0.0710357
0.0706538
0.0717057
0.0759617
0.0841517
0.0890767
0.0941388
0.106466
0.100498
0.0913938
0.0882477
0.0915609
0.0938509
0.0919458
0.0899586
0.0882546
0.0866158
0.0855091
0.0852726
0.0858005
0.0880031
0.0932471
0.0999601
0.103835
0.107233
0.039148
0.0422245
0.056991
0.0736992
0.09128
0.10855
0.120687
0.131145
0.139411
0.14603
0.148924
0.151909
0.15554
0.161496
0.167392
0.172806
0.175476
0.175668
0.0125914
0.0290605
0.0640792
0.127225
0.188028
0.240588
0.2828
0.317653
0.343815
0.361362
0.369924
0.378202
0.387686
0.398234
0.405774
0.410256
0.409562
0.404874
0.00876177
0.0825457
0.257844
0.486323
0.662276
0.779565
0.87117
0.941223
0.992733
1.02332
1.03929
1.05332
1.06699
1.07766
1.08017
1.07538
1.06199
1.02944
0.0774011
0.586931
1.39202
2.0141
2.30552
2.45218
2.59355
2.71783
2.80941
2.86364
2.89508
2.9028
2.89365
2.86219
2.81048
2.73975
2.63666
2.4302
0.962778
3.64603
5.10307
5.56245
5.80876
5.9194
6.1029
6.33722
6.55705
6.74429
6.87401
6.94157
6.96125
6.92073
6.81896
6.66187
6.36291
5.58216
6.44383
8.81793
7.54263
6.68728
6.99525
8.03079
9.38471
10.7348
11.9933
13.0996
14.0149
14.7388
15.2844
15.6686
15.8036
15.7569
15.3186
13.9928
0.129863
0.142727
0.138482
0.133414
0.136479
0.144694
0.160695
0.186215
0.226758
0.282718
0.349434
0.434294
0.534217
0.654671
0.788076
0.933242
1.08992
1.29415
1.54976
1.74601
1.83981
1.8918
1.98103
2.18182
2.47687
2.83137
3.26677
3.74319
4.21941
4.67608
5.10368
5.51234
5.91132
6.30066
6.68587
7.06586
7.43138
7.77704
8.10283
8.41637
8.72974
9.02325
9.31502
9.60181
9.87448
10.1459
10.4181
10.6911
10.9575
11.2173
11.4664
11.7004
11.9378
12.1646
12.4032
12.6391
12.9059
13.1367
13.3248
13.4906
13.6047
13.6992
13.7982
13.875
13.9384
14.0459
14.161
14.2785
14.346
14.4218
14.4893
14.5167
14.552
14.5677
14.5569
14.4232
14.1288
13.7842
13.5156
13.3002
13.0311
12.7143
12.3437
12.0007
11.6183
11.0631
10.3521
9.47838
8.45689
7.37557
6.59021
6.26673
6.27046
6.12725
5.46427
4.78248
4.45626
4.42577
4.48505
4.41715
4.37056
4.71258
5.58471
6.34149
7.37549
8.02199
8.2147
8.23742
8.40713
8.85772
9.25865
9.28502
8.51379
7.304
6.07062
4.80864
4.0909
3.79355
4.03499
3.89583
3.64917
3.67305
4.22883
5.71125
7.0271
7.32344
7.54329
8.22144
8.93977
9.22428
9.39119
9.79887
10.399
11.1242
12.0495
13.0473
14.0248
14.9486
15.5664
15.901
16.1722
16.4097
16.5905
16.7847
16.9034
16.8394
16.5068
16.1139
15.526
14.6981
13.5186
12.382
11.4154
9.52128
7.39156
6.5101
6.60421
7.2121
8.07854
8.03143
7.70285
8.59503
10.8127
12.9315
15.135
18.7421
25.8096
30.4337
31.1875
28.6724
24.2121
25.6354
25.5782
22.3202
20.7583
20.2814
19.6768
19.1979
18.7482
18.2391
0.437409
0.340478
0.234017
0.171016
0.131415
0.109645
0.102536
0.102309
0.104567
0.111602
0.124548
0.1399
0.149177
0.158104
0.174238
0.212572
0.280166
0.336064
0.409407
0.543452
0.61809
0.671302
0.82907
1.30741
1.88977
2.27541
2.54741
2.78154
2.93708
2.99531
3.01483
3.01708
2.99937
2.97175
2.94283
2.90967
2.86604
2.81525
2.77224
2.73273
2.70042
2.67042
2.65814
2.65175
2.62795
2.60896
2.6039
2.61891
2.62247
2.60441
2.58048
2.53513
2.49347
2.48233
2.49585
2.56347
2.70309
2.75659
2.75792
2.74025
2.66875
2.54423
2.44235
2.34714
2.27076
2.24126
2.23584
2.25452
2.30099
2.33256
2.36724
2.38846
2.43607
2.55023
2.66351
2.70575
2.68435
2.55363
2.4517
2.42509
2.41163
2.41546
2.42862
2.53143
2.75314
2.8514
2.84994
2.71764
2.32553
1.82561
1.49556
1.39763
1.40286
1.54398
1.58433
1.67932
1.91246
2.3551
3.21103
3.92808
4.09667
4.05718
3.86297
3.66376
3.33247
2.82331
2.47469
2.4001
2.42914
2.45896
2.38855
2.10449
1.84396
1.79611
1.86798
2.10578
2.67226
3.09366
2.74949
2.74161
2.47001
2.14457
2.05861
2.12849
2.35908
2.65104
2.82456
3.02142
3.28435
3.51928
3.58266
3.64691
3.79059
3.92648
4.10817
4.32643
4.68729
5.01567
5.43494
5.7592
5.9561
6.06048
6.18206
6.45935
6.74887
7.10533
7.51076
7.63332
7.51525
7.12597
6.49748
6.0239
5.78957
5.22617
4.27161
4.0837
4.35003
5.22878
6.79201
7.59644
7.39308
6.94128
6.27568
5.69832
5.76489
6.78889
7.24165
6.46636
5.87394
5.67989
5.63592
6.29276
5.91172
5.92241
5.98821
6.72426
7.75681
9.04727
9.78272
9.04393
0.957351
0.617131
0.367516
0.235136
0.161936
0.124672
0.110129
0.108313
0.110126
0.116315
0.134403
0.158436
0.169535
0.176022
0.192234
0.244999
0.313618
0.3696
0.486476
0.7663
1.06957
1.22714
1.36133
1.54412
1.60287
1.59556
1.51854
1.44808
1.37167
1.28398
1.19251
1.10459
1.00706
0.915098
0.835716
0.764644
0.70715
0.662305
0.623053
0.589964
0.563981
0.542839
0.525638
0.510551
0.495076
0.486385
0.481562
0.476409
0.468135
0.454777
0.43854
0.423825
0.416778
0.415107
0.419606
0.440185
0.472175
0.485318
0.487467
0.48655
0.478363
0.461197
0.452588
0.446264
0.442652
0.444
0.454014
0.476405
0.497492
0.506405
0.517676
0.530213
0.549866
0.603262
0.67607
0.712479
0.712679
0.686038
0.665729
0.664999
0.684671
0.720508
0.757122
0.84425
1.0586
1.26606
1.39033
1.41284
1.3391
1.07691
0.846378
0.763612
0.766951
0.830357
1.00576
1.37792
2.37103
3.26087
3.49751
3.17257
2.48009
2.1191
1.949
1.77964
1.50799
1.30996
1.26312
1.28421
1.36149
1.38886
1.35614
1.2519
1.18273
1.17486
1.19854
1.24358
1.34815
1.64455
1.88453
2.01985
2.09387
1.85034
1.50607
1.464
1.49775
1.73601
1.96178
2.09762
2.13025
2.15105
2.25415
2.39723
2.46028
2.45611
2.4963
2.56727
2.71371
2.93508
3.13294
3.26499
3.3093
3.35593
3.4407
3.6185
3.80082
4.01565
4.49855
5.0644
5.35597
5.39113
5.14268
4.67571
4.55465
4.28757
3.67799
3.62246
4.12046
5.65166
6.92667
6.42075
4.8287
4.14829
3.57584
3.2653
3.30023
3.66435
3.61897
2.88444
2.74814
2.84709
2.74128
3.15574
3.25635
3.4804
3.11109
2.89293
3.37643
4.03577
4.86665
5.12635
1.63469
0.968286
0.455392
0.249647
0.162385
0.129777
0.124394
0.128796
0.143903
0.16569
0.216307
0.286713
0.325593
0.349944
0.411543
0.559691
0.666807
0.753761
0.85157
0.987665
1.08401
1.1103
1.10528
1.0045
0.892558
0.800135
0.71855
0.641709
0.568307
0.503535
0.449483
0.399164
0.352272
0.311998
0.279603
0.254249
0.236757
0.225401
0.216843
0.21002
0.205918
0.204754
0.204916
0.206393
0.207287
0.209146
0.212517
0.216139
0.218144
0.21883
0.218175
0.216651
0.215438
0.214976
0.215271
0.217344
0.220197
0.224045
0.227569
0.231012
0.233888
0.238288
0.249246
0.260425
0.273282
0.28113
0.291905
0.31009
0.321138
0.316895
0.308304
0.306484
0.310908
0.319693
0.339197
0.347136
0.344511
0.332994
0.330555
0.336271
0.352803
0.368898
0.387288
0.420015
0.488351
0.61263
0.765758
0.857687
0.884036
0.854156
0.684967
0.60952
0.640706
0.744832
1.02
2.11358
2.97916
2.9682
2.42992
1.64257
1.36836
1.26204
1.19571
1.12356
1.00934
0.954077
0.947854
0.970741
1.04833
1.09595
1.09842
1.05947
1.01704
0.990305
0.9665
0.970431
0.99824
1.14451
1.62777
1.78564
1.737
1.51135
1.25612
1.26623
1.34567
1.57605
1.72748
1.74117
1.67913
1.66827
1.86001
2.06344
2.05191
1.9968
2.05429
2.14233
2.15124
2.28648
2.46351
2.53454
2.52421
2.54985
2.57686
2.62788
2.7205
2.90286
3.13457
3.48549
3.9231
4.30724
4.36108
4.05145
3.96602
3.845
3.48158
3.50368
4.40327
5.74484
5.95403
3.95711
3.10708
2.87273
2.53843
2.40105
2.56265
2.86818
2.87342
2.41612
2.32789
2.26127
2.26995
2.66444
2.68505
3.02535
2.76516
2.03204
2.06937
2.56909
3.02449
3.26306
2.39749
1.29472
0.478713
0.218269
0.146733
0.138177
0.151631
0.204034
0.261417
0.317584
0.39549
0.45017
0.476435
0.506941
0.577529
0.649008
0.701555
0.765686
0.82043
0.838959
0.809878
0.708999
0.59476
0.506916
0.434882
0.381961
0.331502
0.291536
0.259208
0.230092
0.210613
0.192226
0.177454
0.167159
0.160248
0.155313
0.152935
0.152318
0.152687
0.154123
0.156522
0.160008
0.164637
0.16895
0.172278
0.175821
0.180406
0.18643
0.191969
0.197403
0.201645
0.204079
0.205301
0.204877
0.203353
0.20192
0.20044
0.200639
0.200938
0.20289
0.204945
0.208996
0.218192
0.22835
0.244909
0.259215
0.267739
0.278806
0.297913
0.302406
0.292221
0.27745
0.275099
0.272203
0.268261
0.266877
0.265989
0.259024
0.257692
0.264319
0.276081
0.282461
0.292663
0.304255
0.326305
0.382369
0.472632
0.51957
0.525307
0.524023
0.513763
0.531445
0.613461
0.865998
1.67553
2.59013
2.78871
2.24878
1.30683
1.00772
0.909916
0.887687
0.875845
0.866147
0.834474
0.812434
0.807856
0.813758
0.883523
0.956301
0.992047
0.996049
0.986527
0.947053
0.89456
0.857145
0.854727
0.904901
1.23258
1.63441
1.52278
1.18327
1.12989
1.23114
1.36937
1.55674
1.6321
1.5442
1.41653
1.43788
1.72884
1.91236
1.8288
1.74621
1.87968
2.02868
1.93286
1.92012
2.06096
2.16229
2.17174
2.23818
2.23853
2.20058
2.18419
2.28668
2.55333
2.65347
2.91636
3.3016
3.47018
3.45051
3.45905
3.50732
3.36097
3.47413
4.49075
5.36328
4.43398
2.71749
2.32491
2.1319
1.95756
1.92666
2.13739
2.48265
2.6531
2.39705
2.21862
2.00247
2.21548
2.5455
2.20276
2.31442
2.57119
1.83514
1.5948
1.87722
2.27887
2.47833
3.12575
1.46703
0.440834
0.192071
0.15088
0.169517
0.236308
0.302065
0.33999
0.380576
0.443734
0.469093
0.482652
0.517896
0.575314
0.616202
0.631632
0.635112
0.599133
0.514728
0.44477
0.379224
0.318627
0.274938
0.231967
0.207891
0.187273
0.172886
0.162908
0.154372
0.149448
0.145418
0.142697
0.141672
0.141411
0.141646
0.1424
0.143908
0.146237
0.14932
0.152931
0.157312
0.162619
0.166743
0.169091
0.171394
0.174495
0.177564
0.181368
0.188188
0.195289
0.200156
0.206629
0.209805
0.21067
0.209069
0.205793
0.202965
0.201239
0.202588
0.203523
0.20633
0.212468
0.219652
0.228007
0.241453
0.255705
0.260519
0.277487
0.295477
0.291347
0.268484
0.256076
0.252084
0.243824
0.242525
0.245427
0.242525
0.239254
0.240441
0.243205
0.251643
0.261048
0.269557
0.285736
0.322096
0.362259
0.367104
0.368323
0.386593
0.419749
0.49956
0.730552
1.3866
2.2077
2.53444
2.28744
1.30156
0.864719
0.743341
0.717691
0.721057
0.722503
0.721788
0.716869
0.71016
0.693528
0.683783
0.722659
0.805827
0.883833
0.940356
0.975446
0.951193
0.888976
0.797549
0.753967
0.794209
0.915683
1.39872
1.45488
1.08171
1.08185
1.26685
1.5316
1.54426
1.49486
1.40176
1.27991
1.31934
1.66577
1.80541
1.645
1.57939
1.78807
1.96002
1.81764
1.68689
1.72741
1.85367
1.89828
2.024
2.06164
1.99549
1.88429
1.88564
2.03682
2.19231
2.36888
2.7614
2.94622
2.96948
3.02934
3.21083
3.24077
3.43814
4.3875
4.60798
3.23756
2.37985
2.16033
1.94808
1.64643
1.59939
1.66973
1.98112
2.26235
2.2813
2.03457
1.77752
2.18612
2.47698
2.05212
1.7864
1.82212
1.7375
1.43061
1.48541
1.81487
2.1108
3.82564
1.62618
0.426199
0.191082
0.176179
0.218225
0.303603
0.34072
0.353039
0.374596
0.423636
0.451139
0.468079
0.495775
0.505594
0.494176
0.458057
0.40919
0.361137
0.309265
0.26124
0.221594
0.193819
0.176506
0.16119
0.153806
0.147761
0.14427
0.142729
0.142208
0.142314
0.143293
0.144119
0.145264
0.146829
0.148426
0.150522
0.152766
0.155423
0.158749
0.162619
0.166876
0.170451
0.173076
0.174683
0.175194
0.17519
0.17577
0.17641
0.178191
0.181745
0.184191
0.188278
0.194359
0.202784
0.208791
0.213179
0.212958
0.212507
0.213819
0.213838
0.215411
0.218634
0.220708
0.223334
0.222498
0.226252
0.231898
0.235155
0.261391
0.27586
0.261055
0.240828
0.234799
0.231698
0.232148
0.235916
0.233929
0.229402
0.225089
0.225489
0.238568
0.247927
0.257049
0.274187
0.300683
0.302588
0.306583
0.321897
0.352182
0.397599
0.536763
1.01808
1.7559
2.30873
2.30372
1.64796
0.884549
0.68778
0.647841
0.648326
0.645624
0.632543
0.62003
0.61962
0.617199
0.604299
0.604706
0.593424
0.583471
0.650727
0.761008
0.857734
0.911643
0.885871
0.748523
0.673626
0.709942
0.799628
1.23474
1.40028
1.06185
1.07625
1.31557
1.62911
1.54302
1.31248
1.21215
1.16792
1.24023
1.58302
1.65216
1.5199
1.55147
1.75577
1.79435
1.65818
1.56562
1.59468
1.64918
1.64086
1.73737
1.87001
1.79685
1.63888
1.60819
1.62988
1.76272
1.98888
2.34381
2.5641
2.6375
2.7099
2.94755
3.05994
3.30914
4.16891
4.17041
2.97541
2.32786
2.16989
1.98421
1.614
1.52671
1.53257
1.59455
1.68589
1.56138
1.39607
1.39272
2.044
2.09836
1.96006
1.62121
1.53134
1.69209
1.37192
1.33899
1.45012
1.7793
4.56267
1.84807
0.442095
0.208474
0.199122
0.248159
0.316312
0.342671
0.352756
0.360306
0.376218
0.388803
0.393515
0.393569
0.370673
0.344526
0.307334
0.264454
0.22786
0.196855
0.173268
0.156641
0.148084
0.143445
0.139839
0.138654
0.138355
0.13896
0.139829
0.141495
0.14411
0.147533
0.151854
0.157036
0.16233
0.167699
0.174041
0.180399
0.186507
0.191924
0.197713
0.203255
0.206216
0.207617
0.207843
0.204783
0.198902
0.194301
0.189776
0.186322
0.184913
0.184748
0.185359
0.187014
0.191204
0.196066
0.206771
0.211373
0.216252
0.219766
0.221264
0.221733
0.222624
0.219736
0.218516
0.216085
0.210711
0.212747
0.211888
0.214218
0.23003
0.22965
0.221938
0.221727
0.225585
0.225826
0.219745
0.210302
0.205984
0.205703
0.212602
0.231807
0.241759
0.249994
0.259818
0.254559
0.264017
0.285193
0.31828
0.351156
0.407023
0.659853
1.38633
1.87133
2.15726
2.00674
1.14771
0.716394
0.631267
0.622188
0.619418
0.607969
0.587714
0.57589
0.574161
0.571544
0.565536
0.576125
0.559699
0.519215
0.501491
0.495244
0.549472
0.661951
0.754806
0.708378
0.645119
0.621698
0.690233
1.06929
1.31624
1.10051
1.12006
1.30393
1.58953
1.52694
1.22447
1.08923
1.08155
1.23019
1.53474
1.44751
1.43096
1.59226
1.73735
1.57177
1.44401
1.48318
1.49245
1.51106
1.44408
1.52622
1.68016
1.59886
1.45297
1.45333
1.43979
1.47013
1.68808
2.02949
2.23919
2.35399
2.42776
2.68923
2.87572
3.09391
3.82311
3.96426
3.0011
2.34241
2.28757
2.10082
1.62798
1.48295
1.48095
1.48805
1.53768
1.40065
1.18469
1.16345
1.57583
1.61777
1.56355
1.49803
1.44829
1.55645
1.33977
1.28249
1.29924
1.50251
5.33778
2.0212
0.462309
0.213135
0.199667
0.248046
0.311774
0.33156
0.334862
0.334328
0.337327
0.338481
0.331882
0.309862
0.277104
0.245699
0.213587
0.18666
0.165967
0.150433
0.140298
0.13365
0.129936
0.128203
0.127744
0.128281
0.13048
0.133649
0.137147
0.140284
0.14381
0.14861
0.154587
0.160705
0.167498
0.175426
0.183462
0.192242
0.201296
0.210797
0.223024
0.232507
0.24071
0.247808
0.252425
0.254574
0.252867
0.24671
0.23278
0.219124
0.207941
0.204092
0.199317
0.196693
0.193603
0.193118
0.193394
0.197083
0.202307
0.205977
0.211262
0.211334
0.212465
0.209356
0.194789
0.191752
0.187831
0.197174
0.205467
0.20544
0.210168
0.213016
0.20816
0.207835
0.214727
0.211177
0.199529
0.196697
0.19682
0.198866
0.208283
0.219007
0.224421
0.227229
0.224407
0.229839
0.255528
0.284779
0.318872
0.353988
0.465549
0.943875
1.55806
1.86608
1.89571
1.57867
0.858071
0.652608
0.618946
0.612331
0.59882
0.567639
0.544238
0.540597
0.533024
0.52391
0.531495
0.550408
0.538416
0.494457
0.459405
0.421105
0.401886
0.410729
0.458262
0.602632
0.609903
0.562085
0.63858
0.93376
1.27369
1.23698
1.2622
1.27755
1.37319
1.34946
1.09021
1.01922
1.05618
1.28818
1.48721
1.33098
1.41513
1.70228
1.68058
1.40105
1.337
1.42137
1.36449
1.28263
1.30918
1.4886
1.58926
1.47404
1.35807
1.40802
1.35689
1.28094
1.4431
1.76628
1.98653
2.13521
2.21037
2.45947
2.69491
2.78771
3.36931
3.71342
3.10459
2.4355
2.33638
2.08702
1.61947
1.4227
1.4532
1.43549
1.46879
1.38464
1.14437
1.06583
1.35099
1.51874
1.37563
1.30364
1.41549
1.49606
1.32404
1.25386
1.22134
1.39281
6.27634
2.40444
0.544396
0.225441
0.19896
0.229232
0.285254
0.306631
0.311016
0.307053
0.295418
0.283489
0.270393
0.247989
0.224128
0.205542
0.177522
0.155722
0.139986
0.129954
0.125377
0.123708
0.123326
0.123445
0.123788
0.124908
0.127498
0.130226
0.132912
0.137299
0.141733
0.146612
0.152561
0.15836
0.16451
0.172187
0.180565
0.189329
0.198733
0.210659
0.22445
0.234121
0.243716
0.252559
0.258827
0.264338
0.267441
0.268542
0.264758
0.253147
0.23047
0.21482
0.204533
0.199036
0.19521
0.192748
0.188441
0.184818
0.183094
0.182783
0.186048
0.188499
0.184782
0.183551
0.17634
0.174026
0.177852
0.191614
0.200754
0.201958
0.204439
0.211388
0.207547
0.204781
0.206616
0.204053
0.195149
0.191981
0.192664
0.194895
0.203633
0.208123
0.207333
0.210102
0.21363
0.224861
0.258814
0.292355
0.325524
0.385193
0.595125
1.16904
1.60917
1.7155
1.62203
1.21155
0.764805
0.640044
0.617857
0.603712
0.575166
0.50681
0.480041
0.477243
0.461588
0.449664
0.456133
0.467413
0.473126
0.463317
0.4281
0.381817
0.355753
0.349214
0.356964
0.408645
0.521683
0.486618
0.563746
0.825979
1.17304
1.2732
1.33298
1.23364
1.09004
1.03884
0.937108
0.944926
1.06157
1.36265
1.37276
1.26877
1.40882
1.66289
1.42193
1.15479
1.22979
1.27762
1.16024
1.10835
1.27734
1.46231
1.46504
1.31435
1.30446
1.42289
1.3589
1.21906
1.29254
1.543
1.77935
1.9606
2.04409
2.22765
2.50356
2.51193
2.80138
3.33747
3.13611
2.59217
2.31806
1.96117
1.55844
1.39974
1.44453
1.42834
1.42448
1.3316
1.11341
1.03614
1.24192
1.41864
1.29033
1.24428
1.40941
1.46811
1.30726
1.21064
1.18483
1.38243
7.29977
2.87557
0.709309
0.254815
0.203442
0.220512
0.257584
0.279976
0.286752
0.282056
0.262826
0.241515
0.234843
0.235186
0.221009
0.192045
0.163413
0.142224
0.128339
0.12292
0.121408
0.120923
0.120673
0.120721
0.121628
0.123403
0.125241
0.126108
0.127462
0.13072
0.135906
0.140489
0.146182
0.151685
0.157982
0.165545
0.174297
0.183748
0.192087
0.200732
0.210309
0.215365
0.21984
0.224821
0.232891
0.243554
0.255621
0.265282
0.268009
0.261193
0.24055
0.216885
0.204851
0.195739
0.189861
0.185874
0.180975
0.178002
0.177103
0.178974
0.179835
0.182154
0.177805
0.170743
0.167858
0.167025
0.174278
0.190327
0.198626
0.20017
0.201067
0.211203
0.211721
0.204759
0.204182
0.202783
0.195399
0.189721
0.187123
0.186576
0.194972
0.202855
0.202531
0.203989
0.211055
0.225906
0.258558
0.288861
0.333521
0.443068
0.818677
1.2727
1.54299
1.55023
1.37991
1.02864
0.74256
0.64902
0.619221
0.5947
0.534149
0.448744
0.433696
0.424956
0.421669
0.414504
0.406698
0.403358
0.39116
0.376002
0.357224
0.331772
0.315309
0.309425
0.31781
0.341944
0.415894
0.453781
0.470607
0.638706
0.956413
1.15525
1.26676
1.17735
1.03267
0.993776
0.925234
0.932836
1.07851
1.33977
1.25428
1.22193
1.35154
1.30403
0.936116
0.913296
1.04147
0.980472
0.930435
1.07836
1.26278
1.37163
1.266
1.12924
1.2796
1.51642
1.3947
1.21027
1.23313
1.38055
1.6351
1.83704
1.92155
2.018
2.29848
2.30419
2.33237
2.8218
2.96017
2.64593
2.31407
1.73972
1.44334
1.38036
1.48603
1.48869
1.41434
1.257
1.07701
1.00694
1.14317
1.31632
1.25291
1.23253
1.40894
1.43976
1.28403
1.18615
1.17838
1.41089
8.4121
3.27262
0.798629
0.303814
0.230385
0.232728
0.259284
0.277985
0.282312
0.275819
0.260575
0.245325
0.233921
0.212777
0.200266
0.181296
0.160599
0.139046
0.125523
0.119808
0.117233
0.115745
0.115125
0.115126
0.116359
0.119221
0.120807
0.121853
0.123906
0.126747
0.130014
0.133739
0.138441
0.145165
0.153706
0.163548
0.173104
0.180248
0.184262
0.187002
0.186207
0.179792
0.177199
0.174748
0.173374
0.176654
0.190567
0.218985
0.249542
0.253161
0.241248
0.215718
0.193374
0.183646
0.1786
0.173084
0.170285
0.170835
0.173528
0.178475
0.180198
0.180284
0.175058
0.166313
0.163585
0.163483
0.172414
0.187886
0.196941
0.199118
0.198063
0.202383
0.211536
0.208
0.20617
0.205167
0.196151
0.18599
0.183355
0.183722
0.190986
0.199109
0.200193
0.200454
0.210005
0.228371
0.253444
0.282008
0.339734
0.512013
0.931144
1.29145
1.41717
1.37185
1.13707
0.933892
0.731784
0.649219
0.611878
0.564655
0.461764
0.415239
0.404802
0.399579
0.400827
0.393108
0.384248
0.382369
0.376506
0.348295
0.324891
0.29675
0.271842
0.266316
0.289819
0.313925
0.348246
0.408921
0.426417
0.550963
0.760718
0.882565
1.07122
1.10659
0.999356
0.993828
0.947198
0.954119
1.10584
1.25185
1.20111
1.13171
1.05534
0.885911
0.789823
0.805417
0.83791
0.829284
0.916801
1.10169
1.24517
1.18542
1.12558
1.0803
1.27712
1.61859
1.48244
1.21299
1.23122
1.30188
1.54418
1.72179
1.80348
1.84322
2.09556
2.11842
2.06598
2.32192
2.61614
2.55535
2.25332
1.6146
1.38673
1.35744
1.46379
1.50604
1.41607
1.21801
1.05235
0.989999
1.09457
1.27858
1.25777
1.24145
1.39946
1.38457
1.27875
1.18603
1.20227
1.50189
9.59682
3.44925
0.834438
0.406393
0.341549
0.333506
0.331059
0.324554
0.310295
0.298077
0.280017
0.252564
0.231185
0.210878
0.201799
0.184993
0.163753
0.142549
0.12779
0.120705
0.116826
0.113922
0.113049
0.112977
0.113763
0.115655
0.116833
0.11786
0.11946
0.122463
0.126535
0.130719
0.135522
0.142326
0.151313
0.162927
0.173973
0.178137
0.17786
0.174142
0.163803
0.155302
0.152215
0.15182
0.150442
0.149996
0.150877
0.157689
0.194321
0.228955
0.232521
0.218829
0.186517
0.168883
0.165591
0.166485
0.166781
0.169304
0.173879
0.180245
0.185814
0.182993
0.173524
0.163966
0.160564
0.160913
0.170374
0.183993
0.191197
0.19697
0.195059
0.195204
0.204959
0.206248
0.204099
0.201
0.191463
0.183155
0.18142
0.18234
0.187583
0.196046
0.198065
0.197202
0.204116
0.228329
0.248955
0.278716
0.340017
0.535023
0.969665
1.21918
1.25516
1.17688
0.987739
0.863469
0.719771
0.640377
0.595818
0.518109
0.420528
0.38659
0.367785
0.359471
0.358296
0.355492
0.356171
0.362966
0.362141
0.337252
0.313947
0.291818
0.264484
0.246323
0.25776
0.29703
0.332737
0.379389
0.388537
0.506607
0.710981
0.82662
0.922451
0.964807
0.929038
1.01158
1.01666
1.03525
1.15029
1.2045
1.09978
0.936271
0.783791
0.842215
0.813531
0.794631
0.821349
0.87131
0.990815
1.21107
1.24846
1.15197
1.14184
1.0982
1.28586
1.57805
1.51691
1.23782
1.23855
1.28918
1.52037
1.63071
1.70268
1.70118
1.93751
1.94293
1.87991
2.02126
2.28414
2.35601
2.14416
1.54252
1.34736
1.31519
1.34626
1.4294
1.38395
1.20577
1.03747
0.988209
1.06069
1.26188
1.2721
1.2649
1.36738
1.36999
1.30694
1.20045
1.24849
1.53361
10.8798
3.36429
0.907318
0.676506
0.778744
0.831849
0.813884
0.709665
0.544724
0.42327
0.347636
0.303872
0.256581
0.220364
0.206947
0.190821
0.173818
0.155454
0.137528
0.125764
0.118931
0.114542
0.113224
0.113182
0.114164
0.115934
0.116674
0.117252
0.118179
0.119715
0.122541
0.126937
0.132507
0.138616
0.144271
0.152313
0.158841
0.161184
0.161312
0.160236
0.154375
0.147563
0.14364
0.143457
0.144005
0.144723
0.14615
0.149652
0.170359
0.20138
0.21438
0.210036
0.185509
0.167862
0.163314
0.165363
0.167571
0.171295
0.181147
0.18857
0.194413
0.19054
0.173528
0.162604
0.158499
0.158429
0.162201
0.17252
0.18097
0.185564
0.186536
0.184684
0.186429
0.191975
0.192542
0.192584
0.187413
0.180063
0.177727
0.177871
0.181307
0.192571
0.195405
0.195705
0.198183
0.223845
0.244958
0.274836
0.338333
0.538997
0.971484
1.1572
1.13685
0.976251
0.852319
0.787185
0.694119
0.62164
0.56598
0.474527
0.39099
0.359996
0.344478
0.332432
0.328449
0.329802
0.341767
0.351105
0.350711
0.329992
0.298994
0.277042
0.256917
0.243182
0.23846
0.279045
0.320958
0.359025
0.367146
0.456921
0.69312
0.834777
0.847381
0.817642
0.849382
1.04262
1.09397
1.08864
1.12848
1.05057
0.873458
0.707506
0.769175
0.861783
0.869766
0.830707
0.876868
1.0035
1.1724
1.36994
1.32205
1.25221
1.29042
1.17022
1.26365
1.38923
1.4793
1.28661
1.2476
1.28709
1.5212
1.54077
1.59251
1.58911
1.82081
1.80578
1.7826
1.90938
2.08638
2.15314
1.98381
1.48257
1.31402
1.24383
1.16257
1.2922
1.29124
1.18494
1.03278
1.00246
1.04673
1.24875
1.2955
1.31367
1.35379
1.37543
1.38908
1.22604
1.24155
1.48925
13.6637
4.21496
1.28484
1.27142
1.94516
2.31061
2.44972
2.40606
2.05528
1.33012
0.783754
0.492373
0.34313
0.262791
0.226528
0.208809
0.194569
0.173546
0.15706
0.142268
0.124983
0.117336
0.114588
0.114271
0.115262
0.117091
0.118196
0.118991
0.119549
0.120365
0.122135
0.125296
0.12918
0.134059
0.137606
0.139924
0.140537
0.140934
0.141233
0.141654
0.14291
0.142768
0.140659
0.139935
0.140912
0.142477
0.144554
0.147096
0.161874
0.192196
0.206041
0.205011
0.184945
0.168764
0.165075
0.168631
0.178217
0.183444
0.19215
0.198307
0.198233
0.192117
0.171209
0.159686
0.155393
0.154542
0.15417
0.155155
0.161274
0.164132
0.168426
0.168735
0.168856
0.170657
0.173568
0.175878
0.176474
0.172776
0.170365
0.170306
0.174896
0.188509
0.192439
0.193434
0.193114
0.212856
0.241545
0.270739
0.333272
0.530507
0.934377
1.12436
1.09165
0.86534
0.743947
0.686059
0.634014
0.5782
0.503278
0.423758
0.372059
0.344298
0.328383
0.320266
0.317191
0.319272
0.334644
0.347824
0.348373
0.328773
0.285298
0.25455
0.24041
0.233489
0.23269
0.257665
0.312589
0.34212
0.360516
0.421532
0.670656
0.815896
0.748266
0.72436
0.794258
1.03897
1.09447
1.05698
0.979244
0.763406
0.643193
0.667169
0.792668
0.958677
0.993673
0.946293
1.01879
1.21639
1.40343
1.52951
1.58368
1.48518
1.51333
1.30564
1.19856
1.19207
1.39798
1.30294
1.24856
1.28349
1.52534
1.47209
1.49841
1.50387
1.72058
1.74379
1.73868
1.85443
1.98817
1.97551
1.79358
1.43164
1.28274
1.15612
1.0296
1.11752
1.23124
1.16237
1.03859
1.01903
1.04907
1.21588
1.28435
1.3519
1.35417
1.40479
1.51831
1.26249
1.17009
1.34159
15.5334
7.372
2.62174
2.38619
3.09293
3.54634
3.52676
3.40958
3.43227
3.29364
2.68471
1.54458
0.731615
0.405791
0.280568
0.229982
0.20455
0.184203
0.166614
0.153991
0.139585
0.126318
0.119132
0.117493
0.117658
0.118839
0.120686
0.122145
0.123383
0.124353
0.12595
0.129239
0.134289
0.136751
0.136905
0.137122
0.136925
0.136859
0.137499
0.137351
0.13884
0.140599
0.140379
0.139623
0.140206
0.141859
0.143408
0.143578
0.146054
0.172061
0.193542
0.194504
0.18114
0.16639
0.166289
0.178594
0.191807
0.194471
0.196067
0.198781
0.19721
0.188499
0.166246
0.153691
0.14813
0.145705
0.144728
0.142787
0.141672
0.144811
0.153567
0.161345
0.163462
0.163603
0.165565
0.166635
0.16702
0.165519
0.162582
0.161392
0.163847
0.178003
0.186343
0.188064
0.187587
0.195671
0.23301
0.266576
0.325234
0.488143
0.87776
1.08383
1.06526
0.85026
0.682255
0.629275
0.562187
0.514677
0.456002
0.397477
0.350422
0.328917
0.310583
0.303469
0.297512
0.300091
0.318858
0.340004
0.342874
0.329094
0.291615
0.243314
0.226068
0.220324
0.22137
0.242173
0.302596
0.341864
0.35812
0.400015
0.60851
0.793627
0.707593
0.685952
0.722633
0.925435
1.00476
0.932803
0.753668
0.602967
0.592487
0.689076
0.934015
1.22532
1.21701
1.12412
1.21837
1.49368
1.47722
1.59673
1.79964
1.73191
1.70332
1.44747
1.18223
1.17911
1.32486
1.28694
1.23563
1.27417
1.53638
1.42284
1.42895
1.43445
1.62558
1.71435
1.72125
1.81973
1.89315
1.85547
1.62065
1.39631
1.26966
1.11129
1.01858
1.00947
1.17186
1.13148
1.05475
1.03905
1.05662
1.1809
1.24241
1.34278
1.36395
1.41655
1.59463
1.34385
1.12274
1.21455
16.2901
11.3695
8.19427
6.83854
6.04177
5.29651
4.41951
3.62708
3.2857
3.27415
3.2218
2.93502