/*--------------------------------*- C++ -*----------------------------------*\
| =========                 |                                                 |
| \\      /  F ield         | OpenFOAM: The Open Source CFD Toolbox           |
|  \\    /   O peration     | Version:  dev                                   |
|   \\  /    A nd           | Web:      http://www.openfoam.org               |
|    \\/     M anipulation  |                                                 |
\*---------------------------------------------------------------------------*/
FoamFile
{
    version     2.0;
    format      ascii;
    class       volScalarField;
    object      k_0;
    location    "9.134";
}
// * * * * * * * * * * * * * * * * * * * * * * * * * * * * * * * * * * * * * //

dimensions      [0 2 -2 0 0 0 0];

internalField   nonuniform List<scalar> 
12225
(
8.04411
7.6787
4.9575
5.80905
7.90075
10.0149
13.4852
15.9705
19.1697
20.862
23.5104
24.797
24.2651
23.8731
30.0405
38.5395
111.992
113.457
1.33883
6.2103
5.90447
6.89174
6.64292
7.64174
8.68386
9.65577
11.2951
11.8162
13.6129
13.6807
13.6629
15.4284
22.1533
31.3604
53.7117
68.9565
0.140545
2.21603
2.90535
4.10243
4.3003
4.52891
5.37871
5.13481
5.98502
5.9046
6.70797
6.43632
6.47186
9.22672
19.914
33.9994
40.7623
50.9283
0.0232599
0.407847
1.01479
1.29008
2.05975
1.89702
2.91445
2.45696
2.97155
2.92063
3.48084
3.61629
3.34061
5.97501
13.8069
30.5054
36.9643
35.2852
0.00612199
0.0786991
0.342676
0.416826
0.864654
0.753979
1.32375
1.19931
1.32887
1.39951
1.68062
1.96072
1.70164
2.88518
7.19295
25.5509
41.4036
27.7172
0.0091737
0.0358701
0.139203
0.164384
0.372422
0.356855
0.616629
0.721765
0.776909
0.881306
1.02621
1.28039
1.09971
1.7282
4.09618
17.2794
41.5035
34.2052
0.0225992
0.0355689
0.0890682
0.0969862
0.243487
0.224366
0.530703
0.548773
0.783294
0.799245
1.00622
0.969572
0.992373
1.32699
2.62285
9.80105
36.1938
39.5844
0.0351774
0.0437087
0.0650294
0.0786376
0.136573
0.162155
0.439663
0.354255
0.784258
0.627777
0.723911
0.814761
0.971064
1.1911
2.0936
6.06684
24.8227
37.6638
0.0479085
0.061181
0.0682731
0.0854042
0.105986
0.150321
0.231193
0.281118
0.444051
0.419594
0.541836
0.82526
0.713309
0.834132
1.76494
3.03202
11.7113
20.8269
0.0731235
0.0964648
0.0933854
0.101385
0.113875
0.145289
0.226134
0.26223
0.396125
0.378166
0.46457
0.431405
0.526239
0.611596
1.03423
1.4292
3.78962
4.54221
0.147152
0.15938
0.14504
0.140763
0.129477
0.13
0.160478
0.155686
0.219958
0.199597
0.202767
0.211794
0.304383
0.365944
0.538038
0.641018
1.18633
1.18151
0.274128
0.260123
0.230803
0.216477
0.18092
0.136489
0.132748
0.118727
0.119799
0.11241
0.118744
0.122221
0.162122
0.198391
0.281957
0.296435
0.494701
0.499443
0.474279
0.417676
0.360144
0.324211
0.260655
0.194628
0.146555
0.118369
0.106082
0.097752
0.0956407
0.0943204
0.108347
0.122979
0.157284
0.161453
0.244376
0.258406
0.790398
0.671729
0.57177
0.488787
0.37236
0.284293
0.207411
0.155264
0.119659
0.103289
0.0954907
0.0925436
0.0977649
0.103925
0.12144
0.129216
0.168062
0.189055
1.32233
1.10455
0.956367
0.789894
0.60638
0.460403
0.340752
0.252171
0.183656
0.144877
0.123646
0.115636
0.113199
0.114367
0.122597
0.140003
0.165527
0.186825
2.03892
1.65159
1.35056
1.05762
0.795718
0.589725
0.431494
0.315954
0.237101
0.188958
0.163805
0.153657
0.150631
0.151045
0.159037
0.187863
0.218775
0.242139
2.34414
1.85565
1.48117
1.14768
0.860824
0.634697
0.462594
0.336949
0.253507
0.202524
0.176007
0.165366
0.1623
0.162839
0.171573
0.201758
0.238143
0.266539
2.31818
1.84942
1.47862
1.14653
0.860806
0.634888
0.462884
0.33717
0.254072
0.203633
0.177252
0.16664
0.163678
0.164118
0.172128
0.200886
0.238229
0.267451
1.91554
1.61238
1.33398
1.05252
0.799979
0.595005
0.436401
0.319917
0.242765
0.19615
0.171665
0.161632
0.158786
0.159067
0.165285
0.189309
0.225441
0.254063
1.26447
1.09838
0.963792
0.794361
0.627422
0.480806
0.360313
0.269894
0.208342
0.170804
0.150974
0.142637
0.140304
0.140331
0.144117
0.16031
0.191425
0.21707
0.752955
0.654509
0.566061
0.464909
0.372783
0.294351
0.228394
0.175188
0.135694
0.112379
0.100807
0.095957
0.0945957
0.0947123
0.0970758
0.106733
0.124116
0.140694
0.436167
0.388102
0.345633
0.29114
0.240507
0.190167
0.145618
0.111715
0.0923348
0.0814051
0.0758581
0.0736798
0.0730985
0.0741721
0.0785548
0.0881048
0.0953258
0.102717
0.219923
0.205495
0.194205
0.169447
0.137102
0.114539
0.100246
0.0900101
0.0818888
0.0754811
0.0719837
0.070568
0.0702731
0.0716806
0.0767185
0.0849731
0.0897786
0.0947557
0.112541
0.108183
0.0980753
0.0917167
0.0928517
0.0939002
0.091069
0.0886935
0.0863854
0.0842808
0.0830181
0.0827203
0.08332
0.0858986
0.0915357
0.0983336
0.102112
0.105504
0.0425832
0.0453818
0.0584952
0.0735264
0.0899305
0.105506
0.116033
0.125255
0.132576
0.138452
0.140988
0.143945
0.147707
0.153813
0.159825
0.165252
0.16782
0.168173
0.013481
0.028997
0.0616046
0.119567
0.176128
0.226099
0.266283
0.299701
0.324622
0.341274
0.349546
0.358109
0.367928
0.378644
0.386209
0.390688
0.39019
0.385579
0.00825384
0.0745511
0.236256
0.452894
0.62366
0.740031
0.830109
0.899
0.948999
0.978638
0.99471
1.00953
1.02413
1.03553
1.03894
1.03438
1.02185
0.98928
0.0696533
0.549252
1.33826
1.93135
2.22751
2.39002
2.53314
2.65581
2.74501
2.79791
2.82785
2.83561
2.82563
2.79316
2.74233
2.67124
2.56516
2.35305
0.913031
3.6071
5.13552
5.64697
5.89089
5.9881
6.17432
6.40907
6.62795
6.81181
6.93541
6.99615
7.00886
6.95456
6.84235
6.6669
6.3343
5.48694
6.34185
8.68562
7.38601
6.64824
7.0822
8.25861
9.76266
11.275
12.6931
13.9503
15.0014
15.8432
16.4903
16.9567
17.1406
17.1249
16.6083
15.0665
0.129709
0.142303
0.138285
0.133204
0.136251
0.144366
0.16011
0.185214
0.225373
0.281056
0.347454
0.432232
0.532001
0.652229
0.784938
0.928681
1.08283
1.28467
1.54164
1.74289
1.83953
1.88555
1.96024
2.14357
2.42882
2.78404
3.22685
3.70064
4.15848
4.59541
5.01046
5.41238
5.80764
6.19538
6.58149
6.9661
7.33973
7.69704
8.03631
8.36495
8.69862
9.01485
9.33144
9.64734
9.95087
10.2543
10.5602
10.8679
11.1683
11.4687
11.7571
12.0281
12.3006
12.5589
12.8296
13.092
13.3832
13.6393
13.8508
14.0362
14.1693
14.282
14.3979
14.4928
14.5731
14.6961
14.8246
14.956
15.0248
15.1012
15.1727
15.1989
15.2345
15.2459
15.2269
15.0806
14.7683
14.4104
14.1306
13.902
13.6193
13.2833
12.8897
12.518
12.098
11.4991
10.7356
9.80613
8.73006
7.60022
6.7864
6.43552
6.39781
6.19096
5.45078
4.73424
4.37554
4.31443
4.3557
4.26405
4.22778
4.70823
5.6537
6.4602
7.55029
8.22004
8.41975
8.4511
8.62548
9.08133
9.48271
9.51813
8.73474
7.4736
6.18541
4.85642
4.08222
3.7542
3.9582
3.80763
3.59109
3.65936
4.26694
5.79897
7.12518
7.43045
7.68192
8.39422
9.13631
9.42601
9.59758
10.0287
10.6572
11.4218
12.4058
13.4669
14.4997
15.4761
16.1126
16.4475
16.7191
16.9568
17.126
17.296
17.3742
17.2415
16.8294
16.3731
15.7316
14.8546
13.6355
12.478
11.4695
9.51834
7.39766
6.53267
6.6259
7.23723
8.08678
8.04216
7.75807
8.73954
11.0552
13.3104
15.6658
19.4577
26.8834
31.8925
32.8338
30.402
25.4418
26.7844
26.9528
23.3167
21.5033
20.9041
20.2486
19.7374
19.3589
18.8831
0.43948
0.34038
0.234137
0.171117
0.13159
0.109687
0.102384
0.102125
0.104278
0.11116
0.123956
0.139344
0.148722
0.157442
0.172522
0.20872
0.274824
0.329287
0.39784
0.530354
0.609005
0.66326
0.802082
1.25732
1.83878
2.2378
2.51922
2.75965
2.93293
3.0029
3.02714
3.03446
3.02113
2.99685
2.97072
2.94121
2.9019
2.85372
2.81291
2.77577
2.74689
2.71898
2.70694
2.70499
2.68521
2.66502
2.65877
2.67568
2.68466
2.67043
2.6493
2.60609
2.55938
2.54461
2.55537
2.61897
2.76136
2.82713
2.83024
2.81465
2.74618
2.61948
2.5133
2.41573
2.33587
2.30354
2.29717
2.31446
2.36056
2.39158
2.42626
2.44756
2.49539
2.61075
2.7231
2.76434
2.745
2.61445
2.50922
2.4813
2.4669
2.47018
2.48389
2.58858
2.80634
2.8987
2.89264
2.75116
2.34378
1.83883
1.50967
1.41423
1.42343
1.5787
1.61023
1.70543
1.9429
2.41512
3.30654
3.9846
4.11555
4.06399
3.85773
3.65884
3.32605
2.82372
2.48437
2.41355
2.43877
2.4659
2.39795
2.11777
1.8479
1.79878
1.87072
2.11584
2.69083
3.09079
2.74967
2.73711
2.44404
2.13104
2.06129
2.13843
2.3802
2.66701
2.84113
3.03644
3.30369
3.54263
3.60911
3.67641
3.81893
3.96182
4.15293
4.37824
4.74382
5.07658
5.50119
5.82303
6.01844
6.12617
6.25574
6.54636
6.84573
7.21151
7.58936
7.6816
7.53069
7.11043
6.46771
6.00718
5.76836
5.17516
4.22484
4.04486
4.31333
5.19849
6.79459
7.61403
7.42272
6.99044
6.35513
5.76818
5.82717
6.85584
7.2882
6.54237
5.89809
5.72209
5.73619
6.28996
5.96907
5.99013
6.08814
6.8633
7.92522
9.18765
9.83846
9.07368
0.967017
0.618146
0.368447
0.236139
0.162716
0.124963
0.109957
0.108005
0.109677
0.115548
0.133108
0.157105
0.16854
0.175091
0.189923
0.240445
0.30827
0.361852
0.467668
0.736866
1.04128
1.20441
1.33499
1.52689
1.60413
1.59968
1.52753
1.4559
1.38024
1.29392
1.20302
1.11665
1.02092
0.928434
0.848162
0.776046
0.717102
0.671478
0.632303
0.599189
0.57293
0.551777
0.534422
0.519423
0.503711
0.494052
0.489227
0.484496
0.477018
0.463974
0.447612
0.432404
0.424117
0.422004
0.425668
0.445669
0.478831
0.494386
0.497165
0.496474
0.488853
0.471114
0.46131
0.454233
0.449807
0.450854
0.460225
0.482478
0.505096
0.515556
0.528121
0.541122
0.561282
0.616823
0.691005
0.72907
0.730058
0.704279
0.682951
0.682009
0.701877
0.738271
0.776548
0.868597
1.09112
1.29939
1.41665
1.43428
1.34854
1.0745
0.847504
0.768947
0.772695
0.841811
1.02796
1.42043
2.45515
3.32315
3.52927
3.17437
2.47371
2.11715
1.95075
1.78223
1.51062
1.31502
1.26993
1.28993
1.36519
1.38969
1.35611
1.25119
1.18187
1.17556
1.20386
1.25413
1.3664
1.66251
1.8766
2.00791
2.08047
1.83246
1.49985
1.46516
1.49836
1.73914
1.9601
2.09982
2.13828
2.16496
2.26745
2.40645
2.47326
2.47515
2.51799
2.59071
2.74461
2.96682
3.16772
3.30626
3.35687
3.41008
3.50098
3.68628
3.8715
4.10627
4.63305
5.17299
5.42864
5.42901
5.13129
4.67115
4.55128
4.25623
3.63695
3.59503
4.09021
5.63523
6.94745
6.50452
4.90373
4.20682
3.63091
3.3028
3.32587
3.69907
3.65576
2.91545
2.75645
2.8534
2.77758
3.16079
3.27141
3.46778
3.08947
2.92285
3.4592
4.09521
4.88239
5.11879
1.65803
0.973027
0.458064
0.251605
0.163429
0.129701
0.123875
0.127606
0.142073
0.162707
0.211513
0.281673
0.321375
0.345346
0.40145
0.546002
0.653883
0.740867
0.835344
0.967111
1.0759
1.11058
1.11004
1.01183
0.900996
0.808265
0.725805
0.648961
0.575254
0.509426
0.454991
0.404996
0.358197
0.317413
0.284289
0.25806
0.239698
0.22787
0.219264
0.212421
0.207796
0.206195
0.206294
0.207732
0.208601
0.210224
0.213465
0.217004
0.219021
0.219688
0.219021
0.217453
0.216182
0.215607
0.215816
0.217845
0.220871
0.224841
0.228538
0.232046
0.234885
0.239031
0.249629
0.260632
0.272801
0.280211
0.290862
0.308561
0.319307
0.315691
0.308029
0.306873
0.311268
0.320996
0.341992
0.350844
0.348793
0.337523
0.334752
0.339887
0.356354
0.372893
0.391959
0.426666
0.49949
0.630259
0.785864
0.874685
0.899058
0.861323
0.68377
0.614918
0.647417
0.754695
1.04922
2.19211
3.02677
2.99737
2.42599
1.63918
1.3717
1.26609
1.19982
1.12672
1.01169
0.95713
0.951319
0.974381
1.05085
1.09499
1.09524
1.05337
1.0097
0.98495
0.966962
0.975564
1.00813
1.16666
1.63463
1.77324
1.73148
1.50798
1.24722
1.25706
1.33594
1.56831
1.71837
1.74083
1.68496
1.67392
1.85795
2.06094
2.0574
2.00725
2.05936
2.14149
2.16164
2.3074
2.47987
2.5517
2.54504
2.57461
2.60661
2.66762
2.77056
2.9566
3.1947
3.58419
4.02393
4.37734
4.39561
4.04906
3.97389
3.82794
3.45384
3.47897
4.3809
5.75812
6.05064
4.08547
3.17348
2.92686
2.57883
2.42868
2.57524
2.87613
2.87268
2.41123
2.32116
2.27564
2.26142
2.64742
2.70294
3.03354
2.72448
2.02163
2.10762
2.6188
3.04661
3.26705
2.43865
1.30645
0.483783
0.220843
0.146689
0.137215
0.148966
0.199485
0.255905
0.310494
0.387827
0.444845
0.471566
0.49916
0.566856
0.639465
0.692266
0.755454
0.814121
0.837594
0.812688
0.719883
0.605852
0.515639
0.440944
0.386784
0.335977
0.295046
0.262526
0.232846
0.212909
0.194661
0.179561
0.168844
0.161672
0.156597
0.153796
0.152954
0.153239
0.154491
0.156681
0.15996
0.164506
0.168926
0.17231
0.175746
0.180191
0.18617
0.191665
0.197045
0.20136
0.203769
0.205076
0.204645
0.203088
0.201644
0.200196
0.200386
0.200651
0.202492
0.204523
0.208354
0.217402
0.227493
0.244081
0.257933
0.266577
0.277817
0.296033
0.299743
0.290448
0.276391
0.274204
0.271294
0.268051
0.267094
0.266369
0.259398
0.25826
0.264763
0.27659
0.283148
0.293541
0.305874
0.32872
0.388284
0.480587
0.52932
0.535779
0.534942
0.521905
0.540136
0.623371
0.885279
1.72692
2.64312
2.82122
2.24554
1.3014
1.01069
0.914892
0.892143
0.879968
0.869617
0.83709
0.814993
0.81092
0.817611
0.888491
0.958194
0.99037
0.991366
0.977778
0.937513
0.887943
0.858471
0.861048
0.917559
1.27318
1.63205
1.51138
1.18126
1.1204
1.21646
1.35214
1.54619
1.62093
1.54208
1.42152
1.44089
1.72109
1.90627
1.83521
1.7572
1.87877
2.02027
1.93765
1.93857
2.0839
2.17642
2.18679
2.2513
2.25169
2.21907
2.21566
2.33744
2.5976
2.70453
3.0009
3.38039
3.52379
3.48129
3.48885
3.515
3.34476
3.46176
4.50296
5.4212
4.57254
2.77458
2.35559
2.16159
1.99422
1.95618
2.1588
2.49225
2.64811
2.39344
2.22151
2.02284
2.19309
2.50633
2.20694
2.37713
2.59567
1.79415
1.60402
1.91754
2.30034
2.48764
3.18637
1.48687
0.447162
0.193386
0.149599
0.166196
0.230554
0.296779
0.335199
0.373179
0.436273
0.464829
0.478099
0.510357
0.566389
0.611162
0.62844
0.63362
0.603257
0.522524
0.45124
0.385601
0.324123
0.279843
0.235733
0.210053
0.189125
0.174209
0.164079
0.155424
0.150308
0.146333
0.143453
0.142246
0.141934
0.142157
0.142828
0.144213
0.146405
0.149345
0.152826
0.157041
0.162329
0.166649
0.169113
0.171309
0.174321
0.177394
0.181058
0.187793
0.195095
0.200057
0.20629
0.209414
0.210289
0.208765
0.205231
0.202378
0.200724
0.20198
0.202915
0.205475
0.211449
0.218528
0.227046
0.240987
0.254985
0.260569
0.277482
0.293845
0.289562
0.268003
0.255891
0.251397
0.24321
0.241988
0.244747
0.242029
0.239097
0.240456
0.243549
0.251874
0.261341
0.269655
0.285935
0.323629
0.365161
0.370625
0.373348
0.392782
0.426953
0.509952
0.747437
1.42058
2.25023
2.56948
2.2993
1.29089
0.865748
0.747353
0.721581
0.72443
0.725891
0.725366
0.719777
0.712439
0.696859
0.688051
0.73208
0.817476
0.890733
0.941838
0.971162
0.942168
0.879687
0.795846
0.759875
0.799832
0.934511
1.4084
1.44403
1.07758
1.07094
1.24329
1.50121
1.52853
1.49123
1.40719
1.28562
1.31942
1.65606
1.80254
1.65509
1.58399
1.78302
1.95532
1.8227
1.7021
1.74666
1.87475
1.92171
2.04147
2.06931
2.00297
1.90675
1.92205
2.09587
2.2422
2.42934
2.82916
2.99521
3.00375
3.07244
3.23616
3.24556
3.44138
4.41392
4.67681
3.32164
2.39841
2.16306
1.94694
1.65164
1.6065
1.68568
2.01018
2.28682
2.3069
2.07068
1.812
2.16703
2.44775
2.03342
1.79411
1.88083
1.72575
1.4285
1.50157
1.83951
2.1219
3.90947
1.65405
0.432633
0.19058
0.173605
0.212427
0.297217
0.337378
0.349959
0.369727
0.417939
0.447045
0.463457
0.490939
0.503489
0.494032
0.460678
0.412907
0.365218
0.314361
0.266055
0.225236
0.196088
0.178203
0.16253
0.154581
0.148504
0.14471
0.143059
0.142436
0.142533
0.143497
0.144361
0.145492
0.147047
0.148608
0.150611
0.152758
0.155265
0.158409
0.162118
0.166317
0.169973
0.17268
0.174394
0.175014
0.175033
0.175591
0.17622
0.177938
0.181528
0.184
0.188116
0.194371
0.202651
0.208396
0.212702
0.212436
0.211506
0.212612
0.212603
0.214043
0.217281
0.219747
0.222613
0.222212
0.226678
0.232554
0.237566
0.264107
0.275633
0.261382
0.241493
0.235248
0.231457
0.231815
0.235523
0.233713
0.229548
0.225654
0.22617
0.238703
0.248024
0.257037
0.274241
0.301528
0.304583
0.308306
0.323585
0.354544
0.403193
0.550789
1.04785
1.79646
2.34307
2.32623
1.63824
0.880851
0.69027
0.651334
0.651258
0.648523
0.635574
0.623208
0.622628
0.620111
0.606595
0.60589
0.595333
0.591356
0.668991
0.78122
0.870961
0.915205
0.880021
0.744007
0.673233
0.715417
0.811223
1.24479
1.39629
1.05327
1.06293
1.29548
1.60712
1.52646
1.31774
1.22635
1.17491
1.23459
1.57546
1.66381
1.53138
1.54788
1.75079
1.81091
1.67604
1.57687
1.60883
1.66676
1.6655
1.77038
1.88239
1.80533
1.65849
1.63568
1.67552
1.82231
2.04628
2.40641
2.61633
2.6734
2.75512
2.98952
3.08443
3.33172
4.21198
4.21045
2.99228
2.32885
2.16276
1.9648
1.60515
1.51964
1.52579
1.59522
1.69733
1.59711
1.45106
1.43556
2.04821
2.12734
1.96065
1.62663
1.5412
1.69773
1.35912
1.34165
1.46423
1.79279
4.67094
1.88485
0.448288
0.207283
0.196123
0.242107
0.311055
0.339459
0.350049
0.357591
0.37281
0.385808
0.391012
0.392136
0.37108
0.345972
0.31052
0.268175
0.231074
0.199532
0.175281
0.157812
0.148472
0.143706
0.139917
0.13852
0.138216
0.13888
0.139756
0.141325
0.143843
0.147172
0.151383
0.156477
0.161775
0.167068
0.173283
0.179557
0.185599
0.190818
0.196286
0.20169
0.204588
0.20597
0.206138
0.203214
0.197446
0.193108
0.188908
0.185702
0.184355
0.184363
0.185022
0.18663
0.190937
0.195925
0.206831
0.211318
0.215983
0.219458
0.220809
0.221299
0.222061
0.219349
0.21864
0.216402
0.211616
0.213263
0.212183
0.215502
0.232141
0.231318
0.223461
0.222825
0.225567
0.225836
0.220759
0.2113
0.206771
0.206389
0.21303
0.232272
0.242042
0.250414
0.261322
0.257063
0.266067
0.286661
0.319039
0.352322
0.412069
0.679987
1.42213
1.90745
2.18561
2.01882
1.13215
0.715285
0.634095
0.625202
0.622105
0.610541
0.590782
0.579154
0.577503
0.574835
0.567756
0.577412
0.559253
0.519776
0.505514
0.507974
0.578475
0.694123
0.774142
0.708031
0.64298
0.625412
0.697252
1.08294
1.31668
1.08219
1.10062
1.28942
1.58929
1.52438
1.23499
1.09939
1.0842
1.21738
1.53181
1.46733
1.4363
1.57785
1.73785
1.60092
1.46665
1.49121
1.50787
1.53465
1.46765
1.53969
1.68894
1.60679
1.46814
1.47085
1.46922
1.51787
1.74965
2.09018
2.29266
2.39118
2.47377
2.74431
2.91401
3.13697
3.88519
3.99579
2.99236
2.33528
2.27549
2.08041
1.61178
1.47571
1.4685
1.47596
1.52069
1.37751
1.18201
1.18526
1.61441
1.62527
1.59688
1.51851
1.45017
1.55926
1.32974
1.28327
1.30369
1.51524
5.47531
2.06238
0.468462
0.212071
0.196701
0.242107
0.307224
0.329307
0.333216
0.332419
0.335027
0.336509
0.331048
0.310918
0.279361
0.248462
0.216353
0.188915
0.167636
0.151524
0.140917
0.133965
0.13005
0.128039
0.127451
0.127869
0.129897
0.133013
0.1366
0.13983
0.143264
0.147864
0.153748
0.159828
0.166492
0.174352
0.182387
0.191106
0.200116
0.209371
0.221531
0.231273
0.239519
0.24659
0.251051
0.253343
0.251316
0.244716
0.2308
0.217582
0.206784
0.203151
0.198825
0.196516
0.193507
0.193154
0.193842
0.197822
0.20348
0.20746
0.21247
0.212503
0.213773
0.210213
0.196476
0.193435
0.189344
0.19771
0.205477
0.20559
0.210731
0.212892
0.208092
0.208048
0.214635
0.211189
0.199961
0.197152
0.197263
0.199225
0.208559
0.219981
0.226221
0.228858
0.225857
0.231554
0.257166
0.286078
0.319826
0.356134
0.471643
0.970288
1.58942
1.89515
1.91828
1.57429
0.850473
0.653648
0.622058
0.615741
0.602041
0.571262
0.548395
0.544582
0.537117
0.528503
0.535832
0.553593
0.539492
0.494041
0.460606
0.424902
0.408835
0.425305
0.487877
0.620593
0.613177
0.568445
0.640488
0.940899
1.2735
1.21033
1.23232
1.27204
1.41068
1.38319
1.1144
1.02823
1.0542
1.27026
1.49355
1.34479
1.41312
1.69826
1.69855
1.43803
1.35483
1.43392
1.38895
1.31915
1.32141
1.49149
1.59514
1.48337
1.36771
1.41017
1.36165
1.30839
1.50041
1.82792
2.03948
2.17281
2.25304
2.52381
2.74061
2.841
3.45661
3.75955
3.08519
2.42339
2.33808
2.08068
1.6072
1.41894
1.44489
1.42324
1.4573
1.35903
1.12898
1.07036
1.37831
1.52625
1.38266
1.32497
1.41633
1.49462
1.3164
1.25382
1.22273
1.39989
6.44464
2.44987
0.550215
0.224859
0.196505
0.224837
0.280948
0.304002
0.309259
0.305673
0.294024
0.282038
0.270158
0.249296
0.225606
0.207418
0.179853
0.157422
0.141067
0.130459
0.125286
0.123329
0.122907
0.123078
0.123408
0.12439
0.126882
0.129668
0.13225
0.136533
0.140988
0.145747
0.151648
0.157514
0.163582
0.17115
0.179527
0.188255
0.197469
0.209077
0.223076
0.233175
0.242942
0.252024
0.25838
0.263834
0.266928
0.268159
0.264515
0.25281
0.230414
0.215194
0.204891
0.199337
0.195579
0.193169
0.18918
0.185753
0.184047
0.183689
0.187145
0.189458
0.186052
0.185088
0.177332
0.174863
0.178279
0.191749
0.201101
0.202202
0.20476
0.210837
0.207076
0.204677
0.206462
0.203533
0.194929
0.192238
0.192979
0.195362
0.204221
0.209109
0.208559
0.211302
0.214422
0.226063
0.260931
0.29455
0.327121
0.387367
0.602393
1.19571
1.63723
1.73693
1.63385
1.20362
0.761126
0.641761
0.621519
0.607783
0.577605
0.509236
0.484163
0.481954
0.465572
0.454379
0.462266
0.474701
0.480979
0.466442
0.430279
0.384386
0.359679
0.355092
0.364835
0.431038
0.534318
0.490769
0.5721
0.841129
1.18499
1.26286
1.32302
1.23629
1.11339
1.06448
0.946657
0.945846
1.05199
1.36056
1.39025
1.2758
1.40916
1.68824
1.4849
1.19918
1.25482
1.30993
1.2051
1.13128
1.28368
1.46617
1.48376
1.3373
1.30805
1.41426
1.35203
1.22866
1.33256
1.60253
1.82941
1.99766
2.08221
2.2961
2.5555
2.5635
2.90059
3.40769
3.14267
2.581
2.32323
1.96951
1.55718
1.39939
1.43986
1.41591
1.41336
1.31544
1.10026
1.033
1.26264
1.43145
1.29702
1.24717
1.40935
1.46802
1.30226
1.2118
1.18364
1.38686
7.48917
2.92634
0.717702
0.254917
0.201114
0.217227
0.253732
0.276943
0.284749
0.280827
0.2629
0.241379
0.233248
0.2339
0.221377
0.193932
0.165616
0.1439
0.129018
0.12255
0.120738
0.120272
0.120017
0.120098
0.120978
0.122799
0.12482
0.12579
0.126982
0.129897
0.135005
0.139613
0.145307
0.150849
0.157038
0.164444
0.173066
0.182616
0.191128
0.199879
0.210022
0.215915
0.220815
0.226126
0.234513
0.245238
0.256553
0.265653
0.267922
0.261676
0.241216
0.217734
0.205545
0.196471
0.19084
0.187002
0.182202
0.179094
0.177993
0.1794
0.180065
0.182229
0.178027
0.171368
0.168439
0.167661
0.174649
0.190423
0.198828
0.200418
0.201383
0.211044
0.210888
0.204328
0.203916
0.202229
0.195062
0.189822
0.187488
0.187253
0.196205
0.203772
0.203536
0.205156
0.211729
0.227011
0.260816
0.291949
0.33665
0.446477
0.831452
1.29743
1.56671
1.56791
1.3806
1.02466
0.740422
0.651336
0.623806
0.598233
0.534793
0.450661
0.436983
0.428425
0.424522
0.416552
0.408341
0.404866
0.391805
0.380616
0.362365
0.336856
0.320571
0.314438
0.322461
0.348707
0.433954
0.458565
0.479183
0.660835
0.988804
1.17714
1.27925
1.18509
1.0417
0.998736
0.925614
0.930025
1.06774
1.34784
1.26835
1.23259
1.38092
1.38277
1.01397
0.950504
1.08451
1.0398
0.95884
1.08412
1.26847
1.39499
1.30466
1.15881
1.2871
1.48666
1.37683
1.21398
1.24872
1.433
1.68017
1.87397
1.95661
2.08362
2.35579
2.35392
2.40749
2.92189
3.00934
2.65039
2.31734
1.74968
1.45292
1.38625
1.4922
1.47575
1.39684
1.24815
1.07092
1.00615
1.16208
1.32381
1.24861
1.22853
1.409
1.44241
1.27973
1.18439
1.17632
1.41195
8.61057
3.32979
0.807459
0.30352
0.22708
0.229152
0.255113
0.274761
0.279997
0.274592
0.260194
0.244265
0.232523
0.212421
0.200582
0.18244
0.162101
0.140486
0.126046
0.119682
0.116875
0.115326
0.114593
0.114542
0.115569
0.118443
0.120263
0.121379
0.123369
0.126164
0.129412
0.133085
0.137602
0.144026
0.15229
0.161965
0.171566
0.179134
0.183496
0.187207
0.187359
0.181837
0.179371
0.177286
0.17609
0.17997
0.19437
0.222287
0.250968
0.254005
0.242495
0.216879
0.195148
0.185462
0.179932
0.174386
0.17132
0.171654
0.174004
0.178779
0.180217
0.180292
0.175118
0.166729
0.164117
0.164016
0.172975
0.188432
0.197394
0.19934
0.198382
0.203393
0.21142
0.207927
0.206219
0.205072
0.196063
0.186439
0.183983
0.184404
0.192162
0.200206
0.201213
0.201705
0.210709
0.229419
0.256171
0.285827
0.345062
0.521354
0.949786
1.31381
1.43621
1.3826
1.13501
0.933114
0.731412
0.652773
0.615851
0.565614
0.461844
0.417057
0.407691
0.403011
0.404034
0.395455
0.386426
0.384079
0.375549
0.345883
0.322587
0.294745
0.273646
0.271693
0.294923
0.317337
0.353876
0.414749
0.43192
0.561788
0.778677
0.911509
1.10215
1.1223
1.0068
0.996612
0.944049
0.949169
1.09664
1.26507
1.21904
1.16065
1.12192
0.937204
0.803641
0.823577
0.865723
0.83997
0.916603
1.09504
1.25194
1.21934
1.14461
1.09047
1.28261
1.60042
1.4571
1.21557
1.23754
1.33529
1.58008
1.75849
1.83644
1.90189
2.15477
2.16685
2.12059
2.42116
2.68854
2.58773
2.26197
1.61747
1.39641
1.371
1.48824
1.51612
1.39764
1.20445
1.04827
0.991024
1.11383
1.28559
1.24997
1.23315
1.39902
1.38768
1.27209
1.18221
1.19805
1.49929
9.78121
3.52336
0.84015
0.401535
0.331563
0.322497
0.321163
0.317092
0.305581
0.294542
0.27722
0.251633
0.231252
0.21029
0.200611
0.184981
0.164771
0.14368
0.128288
0.120593
0.116546
0.113473
0.112472
0.112422
0.113127
0.115045
0.11635
0.117419
0.118932
0.121799
0.125817
0.129981
0.134595
0.141032
0.149643
0.161003
0.17218
0.177603
0.177727
0.174783
0.165143
0.156429
0.15305
0.15269
0.151415
0.151121
0.151873
0.158408
0.196054
0.229874
0.233257
0.220192
0.187858
0.169837
0.16633
0.166785
0.16717
0.169744
0.17417
0.180158
0.185254
0.18255
0.173546
0.164401
0.161172
0.161486
0.171236
0.185097
0.192261
0.197637
0.195725
0.196209
0.206292
0.206947
0.204866
0.201906
0.192174
0.183848
0.182182
0.18312
0.188953
0.197354
0.199275
0.198461
0.205506
0.229474
0.251758
0.28269
0.34577
0.5503
0.989818
1.23741
1.26954
1.18041
0.987975
0.864453
0.72106
0.643488
0.597627
0.5167
0.419548
0.388228
0.370666
0.363227
0.362949
0.359485
0.358998
0.365967
0.363402
0.335189
0.312674
0.288512
0.260871
0.245451
0.263704
0.299841
0.334311
0.383136
0.393187
0.513368
0.714524
0.821449
0.936234
0.992081
0.940453
1.00965
1.00783
1.02503
1.14757
1.22461
1.1324
0.98792
0.810095
0.852212
0.812862
0.795271
0.823484
0.864588
0.974772
1.18743
1.245
1.15498
1.13784
1.10136
1.2956
1.59181
1.51533
1.23753
1.24394
1.31165
1.54644
1.66662
1.73497
1.75172
1.99385
1.98865
1.92502
2.09884
2.35822
2.41211
2.15748
1.53792
1.35963
1.33492
1.3871
1.45914
1.38293
1.19056
1.03254
0.989445
1.07801
1.26851
1.26216
1.25125
1.36717
1.3684
1.29537
1.19402
1.24555
1.53538
11.0506
3.4262
0.904293
0.654187
0.733959
0.781929
0.762411
0.665284
0.512512
0.407551
0.341051
0.299655
0.254363
0.219204
0.206149
0.190266
0.17356
0.155989
0.138242
0.126001
0.118924
0.11425
0.11265
0.112556
0.11344
0.115277
0.116127
0.116746
0.117648
0.119086
0.121752
0.126006
0.131477
0.137566
0.14322
0.151386
0.158577
0.161457
0.161752
0.160794
0.154914
0.14821
0.144158
0.143854
0.144346
0.145138
0.146703
0.1502
0.171496
0.202407
0.215094
0.210743
0.186319
0.168386
0.163732
0.165467
0.167501
0.171394
0.180934
0.187879
0.193618
0.190026
0.173685
0.163116
0.159163
0.1592
0.163674
0.174641
0.182734
0.187491
0.188134
0.186406
0.189531
0.194566
0.194546
0.194278
0.18867
0.181183
0.178925
0.179066
0.183043
0.194108
0.196849
0.197087
0.199927
0.225607
0.247549
0.279196
0.344524
0.556648
0.992432
1.17142
1.14501
0.974757
0.853529
0.789527
0.695869
0.623848
0.56584
0.471722
0.389813
0.361674
0.346825
0.334948
0.331245
0.333239
0.345416
0.353109
0.351754
0.327592
0.299146
0.277063
0.25466
0.240501
0.238563
0.28355
0.321917
0.363204
0.368323
0.461044
0.687755
0.827171
0.863138
0.843501
0.85501
1.03778
1.09183
1.09195
1.14714
1.09241
0.92878
0.739527
0.772541
0.857393
0.860603
0.825375
0.868405
0.982742
1.14289
1.34017
1.29694
1.23402
1.25779
1.15985
1.28245
1.44239
1.49888
1.28619
1.25483
1.30791
1.54287
1.57522
1.62613
1.63209
1.87443
1.84595
1.8228
1.97189
2.15003
2.21181
2.00444
1.4782
1.32666
1.26506
1.20568
1.33895
1.30966
1.1751
1.02799
1.00476
1.05974
1.25864
1.28903
1.29354
1.3496
1.37109
1.37297
1.21639
1.24184
1.49307
13.9239
4.17909
1.23586
1.21491
1.86424
2.22557
2.37184
2.30989
1.93885
1.21764
0.728934
0.477907
0.338232
0.25941
0.224714
0.207689
0.193996
0.173472
0.157136
0.142836
0.125512
0.117315
0.114158
0.1137
0.114533
0.116296
0.117417
0.118235
0.118839
0.119638
0.121308
0.124377
0.128132
0.13299
0.136681
0.13936
0.140214
0.140777
0.141266
0.141688
0.142991
0.142881
0.140932
0.140166
0.141162
0.142919
0.145086
0.147627
0.163272
0.193218
0.206921
0.206087
0.185581
0.169108
0.165132
0.168114
0.177292
0.18279
0.192154
0.198497
0.198456
0.192181
0.171822
0.160593
0.156451
0.15575
0.155617
0.157531
0.164028
0.166861
0.170984
0.170628
0.17045
0.173039
0.176
0.178259
0.178577
0.174288
0.171981
0.172057
0.177105
0.190615
0.194156
0.195174
0.19488
0.215659
0.243961
0.275242
0.339908
0.550173
0.956819
1.13763
1.09739
0.858603
0.744687
0.68868
0.636559
0.579063
0.501748
0.421847
0.371898
0.345599
0.33061
0.322828
0.320074
0.322737
0.339346
0.350142
0.348449
0.323494
0.281286
0.25591
0.241219
0.232564
0.231657
0.26219
0.313415
0.341735
0.359413
0.42156
0.6651
0.814137
0.766122
0.73739
0.791071
1.03516
1.10326
1.07394
1.0175
0.815554
0.675036
0.670951
0.783241
0.936023
0.970759
0.930496
0.995795
1.17651
1.37092
1.50701
1.5381
1.45184
1.46721
1.2861
1.22209
1.23521
1.43118
1.31333
1.26019
1.30419
1.54669
1.50252
1.53081
1.54086
1.77338
1.77956
1.77598
1.91209
2.04335
2.02695
1.81213
1.43532
1.29374
1.17383
1.05097
1.1753
1.25717
1.15911
1.03481
1.02251
1.05923
1.23145
1.28517
1.33752
1.34596
1.40033
1.49323
1.24989
1.17473
1.34521
15.678
7.08174
2.35708
2.13733
2.86829
3.3851
3.42562
3.36871
3.40878
3.24984
2.58825
1.46057
0.697783
0.397547
0.277276
0.228414
0.203861
0.184067
0.166611
0.154143
0.140003
0.126746
0.118871
0.116888
0.11693
0.117994
0.119754
0.121161
0.122347
0.12329
0.124803
0.12787
0.132796
0.13561
0.136044
0.136412
0.136341
0.13632
0.137127
0.137168
0.138616
0.140408
0.140364
0.139722
0.140247
0.142083
0.143962
0.144391
0.147508
0.174681
0.195448
0.196565
0.18262
0.167538
0.166982
0.178775
0.191868
0.195153
0.196933
0.199417
0.197844
0.189169
0.167292
0.155215
0.149945
0.147803
0.14706
0.145024
0.144456
0.147323
0.155633
0.163016
0.164792
0.16519
0.167243
0.1682
0.168535
0.166969
0.16422
0.163172
0.166203
0.181005
0.188495
0.190217
0.189546
0.198892
0.23648
0.271086
0.332084
0.508705
0.903068
1.0976
1.07106
0.84023
0.681422
0.631127
0.563309
0.51543
0.455044
0.395966
0.350324
0.330087
0.312536
0.306394
0.300977
0.30463
0.325914
0.344659
0.34547
0.325447
0.284247
0.238305
0.226834
0.220807
0.221326
0.245967
0.304917
0.339776
0.356753
0.399496
0.614721
0.796235
0.710703
0.692408
0.730159
0.941406
1.02944
0.965065
0.801172
0.632561
0.599525
0.68279
0.896261
1.17147
1.18438
1.10135
1.18709
1.44753
1.49045
1.61902
1.80617
1.70965
1.67646
1.42889
1.193
1.18657
1.34921
1.30298
1.25049
1.29626
1.55834
1.44916
1.45839
1.46841
1.67943
1.7495
1.7573
1.87245
1.94469
1.89793
1.63575
1.40509
1.27525
1.11857
1.02651
1.03198
1.20663
1.13573
1.05554
1.04284
1.06375
1.19425
1.25107
1.33498
1.35262
1.41083
1.57696
1.32406
1.11838
1.21493
15.8488
11.0037
7.63371
6.62727
6.01994
5.29704
4.40796
3.6287
3.31558
3.28234
3.19338
2.87221
2.06605
1.19581