/*--------------------------------*- C++ -*----------------------------------*\
| =========                 |                                                 |
| \\      /  F ield         | OpenFOAM: The Open Source CFD Toolbox           |
|  \\    /   O peration     | Version:  dev                                   |
|   \\  /    A nd           | Web:      http://www.openfoam.org               |
|    \\/     M anipulation  |                                                 |
\*---------------------------------------------------------------------------*/
FoamFile
{
    version     2.0;
    format      ascii;
    class       volScalarField;
    object      muSgs;
    location    "9.134";
}
// * * * * * * * * * * * * * * * * * * * * * * * * * * * * * * * * * * * * * //

dimensions      [1 -1 -1 0 0 0 0];

internalField   nonuniform List<scalar> 
12225
(
0.000235242
0.00022639
0.000177257
0.000185956
0.000206754
0.000227323
0.000253899
0.000269304
0.000286185
0.000292185
0.000302755
0.000305093
0.000302153
0.000302453
0.000354214
0.000388379
0.000635364
0.000683514
9.42549e-05
0.000207417
0.000199995
0.000211093
0.000202211
0.000210848
0.000218856
0.000224434
0.000236491
0.000235122
0.000245409
0.000239714
0.000233398
0.000238763
0.000277098
0.000318898
0.00037744
0.000455584
3.13373e-05
0.000127235
0.000145275
0.000170221
0.000171775
0.00017186
0.000183258
0.000174559
0.000183161
0.000177436
0.000183569
0.00017609
0.000169472
0.000188673
0.000263788
0.000341091
0.000368427
0.0004358
1.38073e-05
5.57046e-05
8.92724e-05
9.87015e-05
0.000123011
0.000116101
0.000140073
0.000127103
0.000134825
0.000130677
0.000137602
0.000137565
0.000127891
0.000155082
0.000221967
0.000331252
0.000377455
0.000376704
7.56664e-06
2.62403e-05
5.39478e-05
5.87694e-05
8.26771e-05
7.66886e-05
9.77319e-05
9.2928e-05
9.45562e-05
9.45781e-05
0.000100082
0.000106298
9.70528e-05
0.00011315
0.000165983
0.00030464
0.000415149
0.000348317
9.84845e-06
1.96591e-05
3.65673e-05
3.92613e-05
5.73739e-05
5.5888e-05
7.09988e-05
7.58929e-05
7.80342e-05
8.00165e-05
8.48021e-05
9.13699e-05
8.40898e-05
9.54091e-05
0.000135809
0.000255749
0.000430019
0.000397377
1.70094e-05
2.06901e-05
3.10983e-05
3.21221e-05
4.90139e-05
4.65692e-05
7.00312e-05
6.95045e-05
8.15562e-05
8.022e-05
9.01266e-05
8.47908e-05
8.3469e-05
9.06275e-05
0.000118739
0.000208104
0.000414964
0.000437601
1.85335e-05
2.04434e-05
2.40131e-05
2.5786e-05
3.27656e-05
3.48398e-05
5.56451e-05
4.93605e-05
7.07328e-05
6.26693e-05
6.53273e-05
6.9051e-05
7.18677e-05
7.64089e-05
9.56861e-05
0.000149614
0.000299707
0.000377677
2.34531e-05
2.6407e-05
2.70611e-05
2.91464e-05
3.19653e-05
3.61715e-05
4.46012e-05
4.75101e-05
5.86108e-05
5.62219e-05
5.9569e-05
7.40652e-05
6.68566e-05
6.79382e-05
9.44977e-05
0.000115553
0.000218015
0.000303558
3.20766e-05
3.58835e-05
3.4666e-05
3.47228e-05
3.61096e-05
3.8489e-05
4.75295e-05
4.9214e-05
6.00731e-05
5.77307e-05
5.94565e-05
5.53032e-05
6.00547e-05
6.33521e-05
7.76235e-05
8.67731e-05
0.000137758
0.00014992
4.93126e-05
4.9717e-05
4.65613e-05
4.47239e-05
4.16724e-05
4.01773e-05
4.25318e-05
4.09014e-05
4.57758e-05
4.34107e-05
4.2073e-05
4.18323e-05
4.79821e-05
5.16269e-05
6.11485e-05
6.35754e-05
8.5354e-05
8.36911e-05
7.15226e-05
6.82826e-05
6.30836e-05
5.96253e-05
5.35129e-05
4.51778e-05
4.27516e-05
3.95447e-05
3.8009e-05
3.59723e-05
3.56283e-05
3.51197e-05
3.84815e-05
4.11538e-05
4.81739e-05
4.76914e-05
5.98376e-05
5.9571e-05
0.000101473
9.31682e-05
8.46049e-05
7.841e-05
6.8906e-05
5.84994e-05
4.93245e-05
4.29223e-05
3.93301e-05
3.66554e-05
3.52962e-05
3.40902e-05
3.50181e-05
3.6084e-05
3.97227e-05
3.93123e-05
4.6128e-05
4.70193e-05
0.000140694
0.000126866
0.000114525
0.000103605
8.87434e-05
7.60098e-05
6.3649e-05
5.37403e-05
4.57544e-05
4.10779e-05
3.82731e-05
3.66239e-05
3.64592e-05
3.65981e-05
3.84387e-05
3.87781e-05
4.26038e-05
4.43848e-05
0.000194799
0.00017407
0.00015802
0.000140497
0.000120686
0.000102915
8.67373e-05
7.29832e-05
6.09552e-05
5.26431e-05
4.7269e-05
4.44293e-05
4.27446e-05
4.18168e-05
4.1842e-05
4.3669e-05
4.61856e-05
4.79466e-05
0.000256316
0.00022457
0.000197935
0.000171685
0.000145995
0.000123107
0.000103077
8.62216e-05
7.29731e-05
6.34463e-05
5.74846e-05
5.41997e-05
5.23004e-05
5.11218e-05
5.09471e-05
5.36653e-05
5.68122e-05
5.86538e-05
0.000290903
0.000252172
0.000220087
0.000190051
0.000161347
0.000135779
0.000113484
9.47518e-05
8.02632e-05
6.98927e-05
6.34219e-05
5.98487e-05
5.78081e-05
5.65216e-05
5.63258e-05
5.92089e-05
6.30083e-05
6.53724e-05
0.000287406
0.000250002
0.000218606
0.000188907
0.000160481
0.000135158
0.00011303
9.44428e-05
8.00683e-05
6.98554e-05
6.3444e-05
5.98888e-05
5.78865e-05
5.65828e-05
5.6306e-05
5.89303e-05
6.28625e-05
6.53369e-05
0.000242089
0.000216246
0.000192994
0.000168464
0.000144231
0.000122106
0.000102542
8.59911e-05
7.31849e-05
6.41513e-05
5.84392e-05
5.52405e-05
5.34096e-05
5.21964e-05
5.17575e-05
5.35944e-05
5.72665e-05
5.96424e-05
0.000182996
0.000165557
0.000152216
0.000135894
0.000118757
0.000102146
8.68225e-05
7.36368e-05
6.32517e-05
5.5873e-05
5.11898e-05
4.84947e-05
4.69253e-05
4.58433e-05
4.5238e-05
4.61371e-05
4.93235e-05
5.15176e-05
0.000132282
0.000119662
0.000109093
9.7113e-05
8.54369e-05
7.45626e-05
6.45039e-05
5.53537e-05
4.76372e-05
4.23126e-05
3.90863e-05
3.71961e-05
3.60548e-05
3.52522e-05
3.48343e-05
3.5496e-05
3.72764e-05
3.88371e-05
9.43825e-05
8.65158e-05
8.02675e-05
7.24976e-05
6.478e-05
5.6511e-05
4.85798e-05
4.18432e-05
3.73638e-05
3.435e-05
3.2406e-05
3.11927e-05
3.03494e-05
2.98337e-05
2.98801e-05
3.08718e-05
3.13697e-05
3.18283e-05
6.28026e-05
5.89787e-05
5.64013e-05
5.18281e-05
4.5881e-05
4.15237e-05
3.83148e-05
3.57666e-05
3.34668e-05
3.14417e-05
3.00024e-05
2.90107e-05
2.82794e-05
2.78453e-05
2.801e-05
2.88143e-05
2.89758e-05
2.91182e-05
4.23023e-05
4.01834e-05
3.76354e-05
3.62685e-05
3.62079e-05
3.59063e-05
3.47955e-05
3.36823e-05
3.26355e-05
3.162e-05
3.07196e-05
2.99892e-05
2.94072e-05
2.91089e-05
2.92885e-05
2.96393e-05
2.95277e-05
2.93329e-05
2.4186e-05
2.45547e-05
2.80253e-05
3.12554e-05
3.40885e-05
3.64148e-05
3.75956e-05
3.83581e-05
3.8694e-05
3.87375e-05
3.82503e-05
3.77718e-05
3.73592e-05
3.72114e-05
3.70292e-05
3.6774e-05
3.62238e-05
3.5429e-05
1.29332e-05
1.92088e-05
2.8027e-05
3.87397e-05
4.61695e-05
5.11653e-05
5.43193e-05
5.63428e-05
5.73496e-05
5.75063e-05
5.68943e-05
5.62463e-05
5.56667e-05
5.51524e-05
5.4414e-05
5.34827e-05
5.22333e-05
5.07674e-05
1.01788e-05
3.05414e-05
5.30432e-05
7.14515e-05
8.17347e-05
8.68845e-05
8.99524e-05
9.15211e-05
9.19638e-05
9.13203e-05
8.99862e-05
8.8561e-05
8.71286e-05
8.55871e-05
8.37558e-05
8.16864e-05
7.93526e-05
7.63786e-05
2.85371e-05
7.68338e-05
0.000116297
0.000137237
0.000143938
0.000145435
0.000146458
0.000146724
0.000145929
0.000144068
0.000141618
0.000138608
0.000135261
0.000131476
0.000127343
0.000122892
0.000117854
0.000110617
9.4991e-05
0.000180722
0.000210069
0.000215096
0.00021542
0.000212986
0.000211656
0.000210961
0.000209817
0.000208009
0.000205256
0.00020159
0.000197304
0.00019228
0.000186558
0.000180248
0.000172216
0.000157719
0.000232657
0.000265461
0.000240623
0.000221875
0.00022218
0.000232993
0.000246409
0.000257755
0.000266419
0.000272236
0.00027529
0.00027598
0.000274732
0.000271918
0.000266962
0.000260604
0.000251242
0.000234827
2.77967e-05
2.99449e-05
3.0008e-05
2.98199e-05
3.04345e-05
3.15506e-05
3.34229e-05
3.6143e-05
4.00541e-05
4.48996e-05
5.01042e-05
5.60405e-05
6.23377e-05
6.92415e-05
7.62123e-05
8.31396e-05
9.00348e-05
9.83036e-05
0.000107692
0.000114368
0.000117675
0.000119703
0.000122758
0.00012904
0.000137798
0.000147593
0.000158213
0.000168554
0.000178514
0.000188263
0.000197533
0.000206338
0.000214794
0.000222926
0.000230873
0.000238653
0.000246142
0.000253285
0.000260105
0.00026674
0.00027339
0.000279758
0.00028613
0.000292457
0.000298612
0.000304786
0.000311007
0.000317267
0.000323457
0.00032959
0.000335618
0.000341499
0.000347523
0.000353513
0.000359794
0.000366148
0.000373037
0.000379497
0.000385409
0.000391053
0.000396013
0.000400725
0.000405528
0.000410051
0.000414425
0.00041947
0.000424673
0.000429954
0.000434627
0.000439548
0.000444509
0.000448996
0.000453625
0.000457927
0.000461753
0.000463559
0.000462691
0.000460902
0.000460258
0.000460388
0.000459631
0.000458023
0.000455192
0.0004525
0.00044926
0.000442786
0.000432598
0.000418269
0.000399622
0.000378106
0.000361962
0.000356788
0.000357526
0.00035397
0.000339047
0.000322532
0.000316447
0.000318944
0.000320249
0.000313204
0.000308532
0.000319065
0.000350622
0.00037885
0.000411368
0.000431829
0.000437394
0.000438628
0.000445567
0.000459134
0.000468437
0.000464119
0.000437357
0.0004008
0.000365187
0.00032752
0.000306028
0.000298494
0.000300795
0.00030326
0.000299693
0.000301906
0.000323131
0.000378368
0.000425709
0.000440684
0.000452183
0.000475507
0.000499162
0.00051164
0.000521649
0.000538146
0.000559132
0.000583998
0.00061353
0.000644801
0.000674877
0.000703952
0.000725602
0.000741544
0.000756226
0.000770673
0.000783759
0.000797149
0.000809215
0.000818169
0.000820867
0.00082106
0.000817078
0.000805974
0.000783216
0.000760034
0.000738226
0.000682707
0.000616838
0.000590368
0.000591259
0.000601949
0.000615797
0.00059397
0.000567401
0.000592973
0.000666095
0.000725983
0.000776714
0.000863124
0.00101312
0.00109141
0.00109109
0.00103161
0.000938185
0.000971091
0.000955721
0.000882548
0.000843123
0.000824662
0.000805553
0.00078595
0.00076726
0.000748921
5.09885e-05
4.63454e-05
3.92125e-05
3.40105e-05
3.01063e-05
2.76701e-05
2.68955e-05
2.69988e-05
2.74392e-05
2.84706e-05
3.01481e-05
3.20011e-05
3.3095e-05
3.41888e-05
3.61198e-05
4.00794e-05
4.61497e-05
5.07289e-05
5.6112e-05
6.49797e-05
7.03804e-05
7.42682e-05
8.1461e-05
9.98576e-05
0.000118509
0.000129737
0.000137539
0.000144156
0.000148723
0.000150836
0.000152025
0.000152821
0.000153144
0.000153253
0.000153361
0.000153395
0.000153182
0.000152776
0.000152602
0.000152518
0.000152645
0.000152842
0.000153541
0.000154427
0.00015481
0.000155311
0.000156196
0.000157662
0.000158801
0.000159325
0.00015972
0.000159508
0.00015948
0.000160513
0.000162399
0.000166058
0.000172043
0.000175262
0.000176777
0.000177665
0.000176756
0.000173959
0.000171779
0.00016974
0.000168303
0.000168552
0.000169679
0.000171699
0.000174866
0.000177586
0.000180639
0.000183389
0.000187229
0.000193709
0.000200276
0.000204018
0.000204896
0.000201295
0.000198928
0.000199551
0.000200849
0.000203239
0.000206046
0.000212622
0.000224649
0.000232154
0.000235406
0.000232279
0.000216553
0.000193604
0.00017646
0.000173339
0.000176093
0.000184174
0.000189336
0.000199782
0.000218309
0.000245068
0.000276775
0.000297933
0.000305599
0.000308512
0.000305972
0.000298794
0.000283159
0.000258693
0.000242462
0.000240019
0.000242329
0.000241984
0.000233597
0.00021348
0.000195707
0.000192355
0.000196605
0.000208515
0.000233093
0.000247827
0.000235284
0.00024043
0.000235415
0.00022171
0.000214872
0.000218257
0.000236909
0.00026203
0.000277888
0.000291987
0.00030932
0.000326131
0.00033451
0.000341299
0.000350891
0.000360783
0.000372779
0.000386927
0.000406948
0.000426455
0.000449933
0.000468617
0.000481708
0.000492373
0.000503402
0.000519535
0.000537983
0.000561368
0.000588837
0.000605946
0.000615189
0.000614265
0.000600756
0.000589103
0.000582584
0.000566399
0.000541252
0.000548713
0.000557418
0.000575967
0.000596077
0.000588534
0.000564333
0.00055076
0.00052603
0.00048565
0.000485643
0.000542649
0.000560304
0.000513238
0.000472641
0.000447014
0.00044272
0.000507501
0.000463448
0.000457045
0.000456273
0.000484578
0.00052381
0.000567458
0.000586671
0.000556106
7.50802e-05
6.16739e-05
4.84257e-05
3.92971e-05
3.29719e-05
2.91303e-05
2.76016e-05
2.75811e-05
2.79584e-05
2.87336e-05
3.07739e-05
3.33172e-05
3.44909e-05
3.52787e-05
3.70583e-05
4.21372e-05
4.81406e-05
5.26822e-05
6.03267e-05
7.50838e-05
8.82194e-05
9.40618e-05
9.8716e-05
0.000105162
0.000107374
0.000107477
0.000105273
0.000103248
0.000100937
9.81151e-05
9.50344e-05
9.19345e-05
8.8313e-05
8.47568e-05
8.15456e-05
7.85563e-05
7.60703e-05
7.41173e-05
7.23703e-05
7.0907e-05
6.98176e-05
6.89491e-05
6.82987e-05
6.77565e-05
6.71796e-05
6.70301e-05
6.71203e-05
6.7166e-05
6.70269e-05
6.65431e-05
6.58449e-05
6.5247e-05
6.52531e-05
6.56793e-05
6.65752e-05
6.8685e-05
7.16649e-05
7.32036e-05
7.38843e-05
7.43421e-05
7.42742e-05
7.35186e-05
7.33992e-05
7.35048e-05
7.3849e-05
7.45864e-05
7.60268e-05
7.84705e-05
8.07535e-05
8.20364e-05
8.3597e-05
8.53883e-05
8.78316e-05
9.29782e-05
9.99049e-05
0.000104117
0.000104776
0.000103008
0.000102265
0.000103197
0.000106196
0.000110366
0.00011334
0.000120289
0.000137809
0.000154173
0.000163367
0.000165627
0.000161865
0.000145444
0.000128363
0.000122411
0.00012516
0.000133218
0.000151956
0.000183051
0.000236469
0.000269931
0.0002781
0.000267274
0.000239314
0.000223951
0.000216256
0.000206193
0.000188224
0.000174484
0.000171481
0.000172817
0.000177974
0.000177878
0.000173807
0.00016479
0.000159445
0.000159919
0.000161951
0.000163736
0.000167871
0.000182813
0.000198462
0.00020985
0.000211026
0.00019972
0.000183828
0.000178963
0.000182987
0.000205506
0.00022312
0.000231309
0.000236996
0.000246515
0.000259362
0.000269914
0.000275143
0.000277727
0.000281997
0.000288914
0.000300665
0.000317187
0.000334128
0.00034742
0.000354807
0.000361813
0.000369925
0.000381377
0.000394251
0.000409889
0.000441897
0.000480023
0.000507323
0.000524994
0.000534977
0.000523734
0.000515639
0.00052107
0.000516017
0.000512376
0.000513752
0.000556636
0.000560078
0.000516244
0.000452395
0.000427747
0.000387345
0.000358554
0.00037415
0.000403081
0.000390294
0.000333395
0.000307395
0.00030208
0.000300613
0.000353158
0.000322418
0.000327336
0.000307195
0.000294192
0.000317453
0.000362731
0.000416358
0.000429801
9.79331e-05
7.70216e-05
5.38152e-05
4.04844e-05
3.30286e-05
2.97956e-05
2.94864e-05
3.0091e-05
3.1709e-05
3.37681e-05
3.84961e-05
4.44265e-05
4.74134e-05
4.93203e-05
5.37115e-05
6.25289e-05
6.84672e-05
7.29691e-05
7.75469e-05
8.35489e-05
8.75809e-05
8.89397e-05
8.90246e-05
8.52426e-05
8.07648e-05
7.6881e-05
7.3232e-05
6.95598e-05
6.58878e-05
6.23853e-05
5.92715e-05
5.62332e-05
5.31434e-05
5.03486e-05
4.80007e-05
4.60781e-05
4.47776e-05
4.39822e-05
4.33982e-05
4.29597e-05
4.28045e-05
4.29537e-05
4.32331e-05
4.36396e-05
4.40104e-05
4.44964e-05
4.51671e-05
4.58512e-05
4.63735e-05
4.67889e-05
4.70672e-05
4.72382e-05
4.74521e-05
4.77232e-05
4.80629e-05
4.85846e-05
4.92069e-05
4.99579e-05
5.07272e-05
5.14786e-05
5.21816e-05
5.31311e-05
5.47693e-05
5.645e-05
5.83076e-05
5.96067e-05
6.11825e-05
6.361e-05
6.53818e-05
6.54438e-05
6.48175e-05
6.48235e-05
6.56697e-05
6.69376e-05
6.9683e-05
7.17199e-05
7.1777e-05
7.02331e-05
7.072e-05
7.21665e-05
7.46365e-05
7.73876e-05
7.99927e-05
8.34786e-05
9.0949e-05
0.00010413
0.000118699
0.000127634
0.000131846
0.000130728
0.000115823
0.000109144
0.000113456
0.000126335
0.000154348
0.00022316
0.000258078
0.000254707
0.000230634
0.000190609
0.000175
0.000169641
0.000166711
0.000162251
0.000153411
0.000148792
0.000147334
0.000148653
0.000154463
0.0001576
0.00015856
0.000155225
0.000152197
0.000150545
0.000149047
0.000148648
0.000148038
0.000154775
0.00017971
0.000202859
0.000198343
0.000185654
0.000178128
0.000177997
0.000180633
0.000196623
0.000207189
0.000208215
0.000205465
0.000211213
0.000228956
0.000241793
0.000242161
0.000242166
0.000247441
0.000254394
0.000257965
0.000268659
0.000284261
0.000296201
0.000301624
0.000307057
0.000311151
0.000312894
0.000319579
0.000332208
0.000350923
0.000380639
0.00041561
0.000445338
0.000471709
0.000473183
0.000465005
0.00048253
0.000493628
0.000482248
0.00049355
0.000524767
0.000496544
0.00039692
0.000359251
0.000347543
0.000317978
0.000307989
0.000329298
0.000341084
0.000344321
0.000307726
0.000285749
0.000281555
0.000286036
0.000307767
0.00028415
0.000295
0.000287515
0.000241166
0.000226583
0.000263389
0.000309619
0.000336555
0.00011867
8.93135e-05
5.5556e-05
3.81926e-05
3.17039e-05
3.10363e-05
3.23848e-05
3.70352e-05
4.18931e-05
4.63647e-05
5.17511e-05
5.50853e-05
5.66706e-05
5.8375e-05
6.24386e-05
6.66972e-05
6.95771e-05
7.28474e-05
7.56476e-05
7.67482e-05
7.55199e-05
7.10858e-05
6.5377e-05
6.06905e-05
5.66051e-05
5.33143e-05
5.00597e-05
4.72311e-05
4.47843e-05
4.24923e-05
4.08823e-05
3.93103e-05
3.80195e-05
3.71222e-05
3.65694e-05
3.62003e-05
3.61279e-05
3.6231e-05
3.64441e-05
3.67954e-05
3.72506e-05
3.78618e-05
3.86206e-05
3.93325e-05
3.99382e-05
4.05858e-05
4.13704e-05
4.23254e-05
4.32452e-05
4.41621e-05
4.49706e-05
4.5576e-05
4.60451e-05
4.63222e-05
4.64547e-05
4.66343e-05
4.68607e-05
4.71973e-05
4.76108e-05
4.82104e-05
4.87514e-05
4.95506e-05
5.09296e-05
5.24117e-05
5.46121e-05
5.65812e-05
5.79005e-05
5.94628e-05
6.22554e-05
6.367e-05
6.31885e-05
6.17984e-05
6.19477e-05
6.22454e-05
6.20745e-05
6.2276e-05
6.25651e-05
6.15714e-05
6.18409e-05
6.32961e-05
6.52998e-05
6.65178e-05
6.78838e-05
6.9839e-05
7.32505e-05
8.11986e-05
9.16381e-05
9.60227e-05
9.81612e-05
0.000100426
9.88005e-05
0.000100199
0.000111444
0.000139245
0.00019703
0.000241396
0.000245603
0.000218968
0.000166941
0.000147225
0.000140432
0.000140293
0.00014112
0.000140565
0.00013758
0.000135368
0.000134137
0.000135099
0.000140768
0.00014656
0.000150641
0.000150914
0.000151051
0.000148498
0.000143916
0.000138702
0.000135222
0.00013506
0.000154335
0.000188279
0.000191298
0.000169675
0.000172175
0.00017882
0.000183136
0.000191466
0.00020065
0.000202347
0.000195239
0.000197773
0.000217709
0.000228358
0.00022513
0.000223752
0.0002341
0.000243676
0.000240436
0.000240518
0.0002511
0.000263602
0.000271139
0.000279456
0.000282632
0.000276607
0.00027439
0.000281082
0.000299269
0.000313683
0.000340987
0.000370409
0.000400416
0.000419118
0.000414528
0.000439914
0.000468855
0.000464509
0.000474306
0.000484158
0.000415531
0.000319412
0.000300776
0.000289222
0.000270626
0.00027169
0.000287264
0.000302444
0.000319883
0.000304599
0.000288696
0.000264817
0.000277168
0.000285859
0.000255014
0.000250299
0.000267661
0.000240856
0.000199539
0.000214986
0.000250614
0.00027897
0.000135884
9.57542e-05
5.40147e-05
3.6305e-05
3.2313e-05
3.38968e-05
3.95016e-05
4.46845e-05
4.76145e-05
5.00727e-05
5.36756e-05
5.56867e-05
5.70229e-05
5.93779e-05
6.24662e-05
6.5049e-05
6.60086e-05
6.6433e-05
6.47148e-05
6.0188e-05
5.62534e-05
5.227e-05
4.82856e-05
4.51693e-05
4.18699e-05
3.99216e-05
3.80994e-05
3.68721e-05
3.59816e-05
3.51914e-05
3.48252e-05
3.44848e-05
3.43239e-05
3.43516e-05
3.44308e-05
3.45724e-05
3.4761e-05
3.50268e-05
3.53945e-05
3.58997e-05
3.64891e-05
3.71693e-05
3.7982e-05
3.86629e-05
3.91263e-05
3.96089e-05
4.02115e-05
4.07979e-05
4.14977e-05
4.25645e-05
4.3666e-05
4.45207e-05
4.55741e-05
4.63007e-05
4.6774e-05
4.69666e-05
4.6982e-05
4.70086e-05
4.71997e-05
4.7705e-05
4.81408e-05
4.87501e-05
4.97531e-05
5.08393e-05
5.2097e-05
5.39637e-05
5.60457e-05
5.68786e-05
5.90179e-05
6.18029e-05
6.20925e-05
5.97627e-05
5.86262e-05
5.92721e-05
5.96078e-05
6.00503e-05
6.05053e-05
6.0062e-05
5.96734e-05
5.97604e-05
6.05993e-05
6.22393e-05
6.35411e-05
6.52232e-05
6.83885e-05
7.4717e-05
7.93053e-05
7.9344e-05
8.22272e-05
8.61723e-05
8.82657e-05
9.73267e-05
0.000123142
0.000176375
0.000223105
0.000233951
0.000218802
0.000164193
0.000134616
0.00012513
0.000122912
0.000125024
0.000125584
0.00012481
0.000124134
0.000124027
0.000122751
0.000123022
0.000126232
0.000132925
0.000139874
0.00014469
0.000148512
0.000147636
0.000142856
0.000134375
0.0001303
0.000130705
0.000134015
0.000170307
0.000187588
0.000164952
0.000167885
0.000179815
0.000189719
0.000188825
0.00019422
0.000196262
0.000189355
0.00019037
0.000212439
0.000220839
0.000213703
0.000214026
0.000227752
0.000237337
0.00023258
0.000224599
0.000225922
0.000236766
0.000244853
0.000255563
0.000262887
0.000257734
0.000249021
0.000247151
0.000255724
0.000271302
0.000291783
0.00032117
0.000352344
0.000374164
0.000370294
0.000398131
0.000441529
0.000451065
0.00045511
0.000430866
0.00034313
0.00029085
0.000286397
0.000272221
0.000246146
0.000249308
0.000252813
0.000272713
0.000288396
0.000292632
0.000272327
0.000247386
0.000268806
0.000279992
0.000248146
0.00022723
0.000211367
0.000234437
0.000203148
0.000196554
0.00021519
0.000244557
0.000150713
0.000101134
5.32718e-05
3.61579e-05
3.46231e-05
3.80054e-05
4.42595e-05
4.70631e-05
4.82764e-05
4.98547e-05
5.23902e-05
5.43097e-05
5.58417e-05
5.76514e-05
5.85727e-05
5.83151e-05
5.62363e-05
5.31997e-05
5.02625e-05
4.67441e-05
4.33977e-05
4.03716e-05
3.81075e-05
3.66828e-05
3.52349e-05
3.46416e-05
3.41133e-05
3.38335e-05
3.37983e-05
3.38556e-05
3.40433e-05
3.4298e-05
3.45648e-05
3.48823e-05
3.52161e-05
3.55863e-05
3.6013e-05
3.64634e-05
3.69407e-05
3.75214e-05
3.81635e-05
3.88135e-05
3.939e-05
3.98621e-05
4.02187e-05
4.04741e-05
4.0683e-05
4.09589e-05
4.12574e-05
4.17002e-05
4.23621e-05
4.2885e-05
4.3593e-05
4.45773e-05
4.58708e-05
4.69433e-05
4.78125e-05
4.81903e-05
4.85522e-05
4.9091e-05
4.94641e-05
4.99522e-05
5.06628e-05
5.11969e-05
5.1794e-05
5.19421e-05
5.26761e-05
5.38744e-05
5.42318e-05
5.76059e-05
6.01064e-05
5.85941e-05
5.61648e-05
5.62677e-05
5.73388e-05
5.81939e-05
5.85468e-05
5.82638e-05
5.79298e-05
5.76156e-05
5.79282e-05
5.97195e-05
6.15359e-05
6.40307e-05
6.74656e-05
7.17757e-05
7.11622e-05
7.20305e-05
7.62301e-05
7.94591e-05
8.31646e-05
0.00010007
0.000145066
0.000196435
0.000225919
0.000221555
0.000183913
0.00013441
0.000120015
0.000116428
0.000116634
0.0001179
0.000116388
0.000114686
0.000114559
0.000114187
0.000112666
0.000113548
0.000111922
0.00011042
0.000116066
0.000125689
0.000133691
0.00013876
0.000137794
0.000127542
0.000120865
0.000121858
0.000123503
0.000158732
0.000179901
0.000163234
0.000164004
0.000181163
0.000199548
0.000196085
0.000184652
0.000179892
0.000176412
0.000181118
0.000204445
0.000207731
0.000202511
0.000210132
0.000218675
0.00021711
0.000215629
0.000212064
0.000211703
0.000215745
0.000219737
0.000225974
0.000237695
0.000236277
0.000228599
0.000224343
0.000222249
0.000235311
0.000255286
0.000279945
0.000313836
0.00033896
0.000334105
0.000360127
0.00040913
0.00043294
0.000437507
0.000398588
0.000321226
0.000285904
0.000287248
0.000276449
0.000251747
0.000249556
0.000252375
0.0002564
0.000259072
0.000243252
0.000224344
0.000227393
0.000262664
0.000258546
0.000236676
0.000220542
0.000202656
0.000222979
0.000208534
0.000193571
0.0001925
0.000221017
0.000164944
0.000107958
5.42462e-05
3.76162e-05
3.65412e-05
4.02395e-05
4.51403e-05
4.73108e-05
4.80603e-05
4.89134e-05
5.02391e-05
5.10771e-05
5.20519e-05
5.19544e-05
5.04237e-05
4.85959e-05
4.59859e-05
4.30533e-05
4.04512e-05
3.80551e-05
3.60973e-05
3.45538e-05
3.36899e-05
3.33067e-05
3.29286e-05
3.28256e-05
3.28154e-05
3.29338e-05
3.31947e-05
3.35081e-05
3.39589e-05
3.45317e-05
3.51847e-05
3.59544e-05
3.67417e-05
3.75463e-05
3.84573e-05
3.93806e-05
4.02564e-05
4.10971e-05
4.19753e-05
4.28063e-05
4.33818e-05
4.37896e-05
4.40472e-05
4.39504e-05
4.35228e-05
4.32165e-05
4.29294e-05
4.27501e-05
4.28328e-05
4.30427e-05
4.33172e-05
4.37206e-05
4.44242e-05
4.52662e-05
4.67652e-05
4.76741e-05
4.85482e-05
4.93027e-05
4.98103e-05
5.01302e-05
5.05226e-05
5.05447e-05
5.06908e-05
5.09399e-05
5.04122e-05
5.12413e-05
5.13407e-05
5.15223e-05
5.44071e-05
5.51445e-05
5.40319e-05
5.43928e-05
5.5877e-05
5.61879e-05
5.52599e-05
5.4241e-05
5.41099e-05
5.47148e-05
5.57644e-05
5.76603e-05
5.95894e-05
6.23836e-05
6.4636e-05
6.42955e-05
6.56739e-05
6.97727e-05
7.49241e-05
7.79675e-05
8.4459e-05
0.00011232
0.000169631
0.000199862
0.000214881
0.000203828
0.000151155
0.000120152
0.000115006
0.00011332
0.000112969
0.000111872
0.000110058
0.000108978
0.000108449
0.000107132
0.000106374
0.000108592
0.000107283
0.000104039
0.000101477
0.000100711
0.000105481
0.000115886
0.00012389
0.000121672
0.00011782
0.000115447
0.000115797
0.000145412
0.000169725
0.000164645
0.000164095
0.000175829
0.000198321
0.000197017
0.00017573
0.000166946
0.000166018
0.000178616
0.000198749
0.000190531
0.000193797
0.000209824
0.000209317
0.000193446
0.000192379
0.000197071
0.000194878
0.000196986
0.000199445
0.000204012
0.000213964
0.000213078
0.000209907
0.000208909
0.00020351
0.000209826
0.000226348
0.000247442
0.000281036
0.000308619
0.00030251
0.000325034
0.000375808
0.000408585
0.000419227
0.000385935
0.000321534
0.00028954
0.000293082
0.000281932
0.000255451
0.000251107
0.000257736
0.000258332
0.000258823
0.000242026
0.000219652
0.000213459
0.000233889
0.00022883
0.000207529
0.000195867
0.000205966
0.000216136
0.000206606
0.000188581
0.000184485
0.000204654
0.000178914
0.00011326
5.56273e-05
3.79466e-05
3.65126e-05
4.04418e-05
4.49422e-05
4.66024e-05
4.7042e-05
4.7188e-05
4.80145e-05
4.80687e-05
4.76483e-05
4.59444e-05
4.36577e-05
4.16826e-05
3.92194e-05
3.70144e-05
3.51317e-05
3.35431e-05
3.24899e-05
3.18449e-05
3.14603e-05
3.13029e-05
3.12798e-05
3.14683e-05
3.19736e-05
3.25551e-05
3.32023e-05
3.37988e-05
3.44024e-05
3.516e-05
3.60209e-05
3.69117e-05
3.78925e-05
3.89444e-05
3.99892e-05
4.1134e-05
4.22639e-05
4.34425e-05
4.49029e-05
4.60834e-05
4.71399e-05
4.80944e-05
4.87948e-05
4.92713e-05
4.93778e-05
4.90424e-05
4.79327e-05
4.67484e-05
4.57963e-05
4.55766e-05
4.52331e-05
4.50865e-05
4.48778e-05
4.49566e-05
4.5186e-05
4.58412e-05
4.67045e-05
4.74052e-05
4.83829e-05
4.87378e-05
4.91396e-05
4.93127e-05
4.76491e-05
4.77618e-05
4.74661e-05
4.90099e-05
5.06455e-05
5.02613e-05
5.11242e-05
5.25621e-05
5.20795e-05
5.20621e-05
5.37513e-05
5.3909e-05
5.25334e-05
5.23847e-05
5.27749e-05
5.3384e-05
5.46085e-05
5.52577e-05
5.60331e-05
5.79896e-05
5.94101e-05
6.10673e-05
6.54205e-05
7.04645e-05
7.42285e-05
7.80777e-05
9.2059e-05
0.000136461
0.00017964
0.000196056
0.00019667
0.000177123
0.000129361
0.000115154
0.000113927
0.00011179
0.00010912
0.000104719
0.000102948
0.000102982
0.000101673
0.000100009
0.000101227
0.000103907
0.000103051
0.00010023
9.65312e-05
9.25024e-05
9.00505e-05
9.05801e-05
9.51623e-05
0.000108726
0.000111637
0.00010827
0.000110974
0.000132779
0.000161722
0.000169346
0.000169335
0.000166997
0.000174013
0.000177453
0.000161709
0.00015958
0.000165203
0.000184094
0.00019268
0.00017969
0.000189694
0.000208728
0.000195847
0.000176657
0.000178534
0.000183072
0.000175898
0.000172478
0.000182709
0.000192887
0.000196503
0.000193791
0.000194877
0.000198005
0.000190615
0.000190896
0.000202192
0.000220356
0.000254371
0.000283366
0.000277027
0.000294669
0.000343311
0.000375592
0.000395735
0.000377749
0.000331148
0.000299996
0.000292515
0.000271728
0.000258
0.000245389
0.000255908
0.000258821
0.000257589
0.000252379
0.000225309
0.000205053
0.00021686
0.000221265
0.00020523
0.000184455
0.000204512
0.000216675
0.000203443
0.000185815
0.000182129
0.000196779
0.00019434
0.000123348
6.03265e-05
3.92434e-05
3.65662e-05
3.91692e-05
4.3289e-05
4.49176e-05
4.57494e-05
4.554e-05
4.46271e-05
4.37308e-05
4.3182e-05
4.18769e-05
3.99517e-05
3.83114e-05
3.55663e-05
3.34658e-05
3.20437e-05
3.11896e-05
3.08382e-05
3.07182e-05
3.07576e-05
3.09202e-05
3.11588e-05
3.14494e-05
3.19114e-05
3.23782e-05
3.28426e-05
3.35223e-05
3.4195e-05
3.49632e-05
3.5874e-05
3.67382e-05
3.76632e-05
3.87546e-05
3.98996e-05
4.10926e-05
4.23424e-05
4.38564e-05
4.55532e-05
4.68361e-05
4.80991e-05
4.92787e-05
5.02036e-05
5.10369e-05
5.16475e-05
5.20302e-05
5.1973e-05
5.10576e-05
4.89462e-05
4.74328e-05
4.65078e-05
4.59838e-05
4.56824e-05
4.54349e-05
4.50085e-05
4.47063e-05
4.46653e-05
4.479e-05
4.54692e-05
4.61514e-05
4.57167e-05
4.60181e-05
4.53906e-05
4.53957e-05
4.61933e-05
4.79558e-05
4.97899e-05
5.01103e-05
5.0301e-05
5.19248e-05
5.15635e-05
5.10072e-05
5.20095e-05
5.28323e-05
5.19662e-05
5.14093e-05
5.15628e-05
5.20869e-05
5.35127e-05
5.39145e-05
5.35447e-05
5.4793e-05
5.80286e-05
6.15114e-05
6.5698e-05
6.91263e-05
7.27468e-05
8.13407e-05
0.000105079
0.000152003
0.000180804
0.000185548
0.000178914
0.00015342
0.000122318
0.000114259
0.000112031
0.000108274
0.000103498
9.61393e-05
9.49685e-05
9.49612e-05
9.33942e-05
9.2673e-05
9.37402e-05
9.43756e-05
9.45747e-05
9.46438e-05
9.15576e-05
8.7009e-05
8.44822e-05
8.34327e-05
8.40846e-05
8.84145e-05
0.000100079
0.000100139
0.000103956
0.000122325
0.000148824
0.000166696
0.000169826
0.000163591
0.00015316
0.000153468
0.000149056
0.000151554
0.000165596
0.00018644
0.000179785
0.000170969
0.000180406
0.000190932
0.000170102
0.000156409
0.000164896
0.000165406
0.000156628
0.00015607
0.000174349
0.000182179
0.000178253
0.000173832
0.000181996
0.000189058
0.000182676
0.000180814
0.000184787
0.000197673
0.000232645
0.000262305
0.000256969
0.000267542
0.000312446
0.000341287
0.000359782
0.000364884
0.000339887
0.000316751
0.000292494
0.000256103
0.000244754
0.000241684
0.000254837
0.000259177
0.000252659
0.000244006
0.000226515
0.000210567
0.000213838
0.000208974
0.000196621
0.000184651
0.000204689
0.000213362
0.00020038
0.000184652
0.000185137
0.000196172
0.000210003
0.00013465
6.85471e-05
4.1883e-05
3.71451e-05
3.84903e-05
4.16867e-05
4.31624e-05
4.35748e-05
4.32985e-05
4.23233e-05
4.12722e-05
4.09116e-05
4.06524e-05
3.92283e-05
3.69345e-05
3.4511e-05
3.25112e-05
3.1124e-05
3.05512e-05
3.03646e-05
3.02223e-05
3.01521e-05
3.01922e-05
3.04213e-05
3.08667e-05
3.13702e-05
3.17056e-05
3.20422e-05
3.26371e-05
3.34953e-05
3.42834e-05
3.52024e-05
3.6024e-05
3.68886e-05
3.78748e-05
3.89709e-05
4.01413e-05
4.11925e-05
4.22975e-05
4.35373e-05
4.43557e-05
4.51336e-05
4.5965e-05
4.71095e-05
4.85059e-05
5.00889e-05
5.14485e-05
5.21633e-05
5.19169e-05
5.01981e-05
4.79321e-05
4.69029e-05
4.61372e-05
4.55185e-05
4.51311e-05
4.44716e-05
4.40578e-05
4.40461e-05
4.43332e-05
4.44744e-05
4.51309e-05
4.48403e-05
4.40286e-05
4.39404e-05
4.39471e-05
4.5415e-05
4.76363e-05
4.88884e-05
4.92989e-05
4.93268e-05
5.14932e-05
5.21998e-05
5.09916e-05
5.10855e-05
5.17757e-05
5.11762e-05
5.03896e-05
5.03616e-05
5.07977e-05
5.19973e-05
5.27995e-05
5.31391e-05
5.37066e-05
5.68961e-05
6.17369e-05
6.56252e-05
6.77312e-05
7.29986e-05
8.78011e-05
0.000123791
0.000157969
0.00017509
0.000174974
0.000164186
0.000140989
0.000120496
0.00011338
0.000108645
0.000104266
9.77773e-05
9.05614e-05
9.07638e-05
8.98629e-05
9.04638e-05
9.04356e-05
8.96143e-05
8.86807e-05
8.71268e-05
8.56009e-05
8.34687e-05
8.0817e-05
7.93797e-05
7.86981e-05