/*--------------------------------*- C++ -*----------------------------------*\
| =========                 |                                                 |
| \\      /  F ield         | OpenFOAM: The Open Source CFD Toolbox           |
|  \\    /   O peration     | Version:  dev                                   |
|   \\  /    A nd           | Web:      http://www.openfoam.org               |
|    \\/     M anipulation  |                                                 |
\*---------------------------------------------------------------------------*/
FoamFile
{
    version     2.0;
    format      ascii;
    class       surfaceScalarField;
    object      phi;
    location    "9.134";
}
// * * * * * * * * * * * * * * * * * * * * * * * * * * * * * * * * * * * * * //

dimensions      [1 0 -1 0 0 0 0];

internalField   nonuniform List<scalar> 
24170
(
2.36674e-06
2.52168e-07
1.55475e-06
-3.51184e-07
1.30755e-06
-8.40107e-07
1.47837e-06
-1.20349e-06
1.64296e-06
-1.14451e-06
2.11384e-06
-1.39743e-06
2.31726e-06
-1.08109e-06
2.8125e-06
-1.32113e-06
3.08795e-06
-1.05303e-06
3.79435e-06
-1.43478e-06
4.19045e-06
-1.08152e-06
4.90087e-06
-1.35238e-06
5.74948e-06
-1.44618e-06
7.79104e-06
-2.59363e-06
1.01218e-05
-2.84215e-06
1.50538e-05
-5.41112e-06
2.04838e-05
-5.95651e-06
-4.02565e-06
2.4084e-05
4.15294e-06
-8.87834e-07
3.49288e-06
-8.68166e-07
2.86807e-06
-1.33391e-06
2.53386e-06
-1.93369e-06
2.21229e-06
-1.82789e-06
2.30002e-06
-2.43256e-06
2.05337e-06
-1.72447e-06
2.29817e-06
-2.40208e-06
2.27634e-06
-1.8142e-06
2.89296e-06
-2.78644e-06
3.10982e-06
-1.98711e-06
4.11798e-06
-3.00672e-06
5.3679e-06
-3.29943e-06
7.82634e-06
-5.60773e-06
1.12359e-05
-6.77261e-06
1.62324e-05
-1.0932e-05
1.91428e-05
-9.41649e-06
-2.16366e-06
1.68122e-05
5.00471e-06
-2.49733e-06
5.02036e-06
-2.17034e-06
4.71023e-06
-2.24633e-06
4.5926e-06
-2.9788e-06
4.1543e-06
-2.48855e-06
4.20504e-06
-3.52012e-06
3.79844e-06
-2.29378e-06
4.00174e-06
-3.52323e-06
3.94734e-06
-2.62238e-06
4.4459e-06
-4.09313e-06
4.5557e-06
-2.85656e-06
5.4651e-06
-4.63082e-06
6.4924e-06
-4.99755e-06
7.85767e-06
-7.60156e-06
9.23713e-06
-8.75145e-06
1.0907e-05
-1.319e-05
1.27305e-05
-1.17936e-05
-7.73438e-07
1.08453e-05
5.36999e-06
-3.95872e-06
6.09732e-06
-4.3017e-06
5.94891e-06
-3.43294e-06
6.32497e-06
-4.61924e-06
5.92497e-06
-3.28558e-06
6.29414e-06
-5.01241e-06
5.85636e-06
-2.9169e-06
6.10604e-06
-4.76865e-06
6.2212e-06
-3.67403e-06
6.72442e-06
-5.47676e-06
7.03389e-06
-3.99262e-06
7.26344e-06
-5.6372e-06
8.25039e-06
-6.71437e-06
8.80637e-06
-8.84407e-06
1.04701e-05
-1.10633e-05
1.09544e-05
-1.4321e-05
8.25314e-06
-9.68481e-06
-1.53661e-06
8.47991e-06
5.41403e-06
-5.5391e-06
6.69918e-06
-7.11046e-06
6.7061e-06
-4.89012e-06
7.41803e-06
-6.70175e-06
7.14286e-06
-4.30963e-06
7.81012e-06
-6.89568e-06
7.6716e-06
-3.92441e-06
7.81618e-06
-5.98782e-06
8.25636e-06
-5.12525e-06
8.46766e-06
-6.63518e-06
8.87656e-06
-5.29506e-06
8.40945e-06
-6.00819e-06
9.69034e-06
-8.7833e-06
9.89911e-06
-9.79235e-06
1.09901e-05
-1.28641e-05
9.9839e-06
-1.40048e-05
5.7448e-06
-6.0515e-06
-8.69606e-07
4.51379e-06
5.93194e-06
-6.79379e-06
7.15754e-06
-9.98109e-06
7.30042e-06
-6.59712e-06
8.23311e-06
-9.11385e-06
8.2933e-06
-5.77095e-06
8.88573e-06
-8.80037e-06
9.37777e-06
-5.65112e-06
9.39321e-06
-7.15891e-06
9.92428e-06
-6.74321e-06
1.00641e-05
-7.79335e-06
1.05709e-05
-6.76109e-06
1.01277e-05
-6.46509e-06
1.07952e-05
-1.03023e-05
1.07467e-05
-1.05313e-05
1.09883e-05
-1.38713e-05
9.90562e-06
-1.36793e-05
7.89712e-06
-4.71464e-06
1.18333e-06
5.25275e-06
6.76637e-06
-8.54211e-06
7.49343e-06
-1.24632e-05
7.97812e-06
-8.75102e-06
8.75085e-06
-1.14649e-05
9.15294e-06
-7.67109e-06
9.71692e-06
-1.07673e-05
1.05439e-05
-7.79793e-06
1.09719e-05
-8.82265e-06
1.07438e-05
-7.67387e-06
9.55553e-06
-7.69198e-06
1.17663e-05
-9.99742e-06
1.27646e-05
-8.42168e-06
1.23209e-05
-1.07657e-05
1.20227e-05
-1.10716e-05
1.12828e-05
-1.39182e-05
9.67897e-06
-1.28417e-05
1.00903e-05
-5.90166e-06
1.45953e-06
9.19966e-06
5.49998e-06
-1.02357e-05
5.71865e-06
-1.40038e-05
6.05364e-06
-1.03436e-05
6.09878e-06
-1.26967e-05
6.79603e-06
-9.48964e-06
6.49291e-06
-1.1516e-05
7.33219e-06
-9.62887e-06
7.6972e-06
-1.01173e-05
7.23363e-06
-8.07742e-06
6.54364e-06
-7.81715e-06
8.56872e-06
-1.27884e-05
9.94198e-06
-1.05117e-05
8.58686e-06
-1.00889e-05
8.14987e-06
-1.12559e-05
7.04267e-06
-1.33961e-05
6.08018e-06
-1.24218e-05
6.87362e-06
-7.27665e-06
-2.13902e-06
9.99511e-06
6.39429e-06
-1.17998e-05
6.43239e-06
-1.55212e-05
7.00929e-06
-1.23237e-05
6.65085e-06
-1.36649e-05
7.59291e-06
-1.16754e-05
6.66187e-06
-1.17564e-05
7.41814e-06
-1.14858e-05
7.06988e-06
-1.08085e-05
8.19279e-06
-1.01664e-05
9.58205e-06
-1.01062e-05
8.75431e-06
-1.28048e-05
9.30683e-06
-1.18588e-05
9.44687e-06
-1.09933e-05
9.82388e-06
-1.23306e-05
7.39673e-06
-1.16299e-05
6.9595e-06
-1.25863e-05
6.67799e-06
-7.61467e-06
-7.49242e-06
1.14751e-05
7.59942e-06
-1.36163e-05
7.79462e-06
-1.73471e-05
8.30891e-06
-1.43747e-05
8.13753e-06
-1.49493e-05
8.99796e-06
-1.38986e-05
8.61661e-06
-1.26555e-05
8.82679e-06
-1.28937e-05
8.55538e-06
-1.16717e-05
9.84433e-06
-1.25157e-05
1.13015e-05
-1.25493e-05
9.87905e-06
-1.23007e-05
9.67228e-06
-1.25201e-05
1.01397e-05
-1.22896e-05
1.02472e-05
-1.32141e-05
8.62192e-06
-1.07342e-05
8.4984e-06
-1.31384e-05
9.16905e-06
-8.94465e-06
-1.04765e-05
1.15215e-05
8.56328e-06
-1.58169e-05
8.95312e-06
-1.94956e-05
9.36889e-06
-1.64423e-05
9.74049e-06
-1.68815e-05
1.01067e-05
-1.57284e-05
1.04695e-05
-1.43869e-05
1.06575e-05
-1.43601e-05
1.11238e-05
-1.33409e-05
1.13478e-05
-1.38685e-05
1.1577e-05
-1.3839e-05
1.14071e-05
-1.31139e-05
1.14357e-05
-1.34699e-05
1.12287e-05
-1.29574e-05
1.0688e-05
-1.35045e-05
1.03568e-05
-1.11757e-05
1.00857e-05
-1.36033e-05
1.08334e-05
-1.0378e-05
-1.12234e-05
1.09087e-05
1.04189e-05
-1.79059e-05
1.0486e-05
-2.13915e-05
1.10163e-05
-1.86826e-05
1.13581e-05
-1.88328e-05
1.15986e-05
-1.74757e-05
1.23085e-05
-1.65024e-05
1.2519e-05
-1.58852e-05
1.3156e-05
-1.52082e-05
1.31185e-05
-1.49884e-05
1.31836e-05
-1.49914e-05
1.31395e-05
-1.40814e-05
1.30228e-05
-1.42989e-05
1.29459e-05
-1.37687e-05
1.2372e-05
-1.37844e-05
1.23373e-05
-1.19415e-05
1.18684e-05
-1.38906e-05
1.23117e-05
-1.15154e-05
-1.14943e-05
1.18999e-05
1.21191e-05
-2.02933e-05
1.2381e-05
-2.34549e-05
1.29975e-05
-2.09694e-05
1.33297e-05
-2.07359e-05
1.36762e-05
-1.92823e-05
1.42386e-05
-1.84244e-05
1.45655e-05
-1.74843e-05
1.51207e-05
-1.69501e-05
1.52e-05
-1.61845e-05
1.53225e-05
-1.61627e-05
1.54822e-05
-1.52198e-05
1.54589e-05
-1.51941e-05
1.53503e-05
-1.45137e-05
1.50665e-05
-1.43158e-05
1.52795e-05
-1.29339e-05
1.45183e-05
-1.38726e-05
1.48554e-05
-1.25285e-05
-1.19554e-05
1.46664e-05
1.41928e-05
-2.28413e-05
1.44513e-05
-2.5318e-05
1.51054e-05
-2.30969e-05
1.5393e-05
-2.24059e-05
1.58351e-05
-2.10026e-05
1.63903e-05
-2.01671e-05
1.68945e-05
-1.90944e-05
1.74046e-05
-1.84919e-05
1.77775e-05
-1.75225e-05
1.79024e-05
-1.71962e-05
1.81192e-05
-1.62841e-05
1.80496e-05
-1.59263e-05
1.8041e-05
-1.52517e-05
1.78551e-05
-1.4836e-05
1.81359e-05
-1.38911e-05
1.75898e-05
-1.3979e-05
1.75569e-05
-1.31037e-05
-1.24234e-05
1.7452e-05
1.63641e-05
-2.43843e-05
1.66011e-05
-2.67223e-05
1.73012e-05
-2.4844e-05
1.77586e-05
-2.38332e-05
1.83888e-05
-2.25181e-05
1.89028e-05
-2.14986e-05
1.94838e-05
-2.04286e-05
1.99377e-05
-1.96472e-05
2.03992e-05
-1.8639e-05
2.05887e-05
-1.80054e-05
2.08771e-05
-1.71525e-05
2.09259e-05
-1.65309e-05
2.10078e-05
-1.58586e-05
2.09037e-05
-1.52309e-05
2.09804e-05
-1.44474e-05
2.05959e-05
-1.40634e-05
2.04496e-05
-1.34053e-05
-1.2647e-05
2.02502e-05
1.85442e-05
-2.58709e-05
1.90338e-05
-2.75975e-05
1.98172e-05
-2.59208e-05
2.04772e-05
-2.47418e-05
2.12838e-05
-2.3526e-05
2.20248e-05
-2.24155e-05
2.27699e-05
-2.1327e-05
2.33557e-05
-2.03725e-05
2.39277e-05
-1.93434e-05
2.42525e-05
-1.84631e-05
2.45454e-05
-1.75753e-05
2.46444e-05
-1.67658e-05
2.4641e-05
-1.5997e-05
2.45852e-05
-1.53235e-05
2.45446e-05
-1.45599e-05
2.42797e-05
-1.3962e-05
2.39975e-05
-1.32915e-05
-1.25988e-05
2.37813e-05
2.15941e-05
-2.57929e-05
2.25534e-05
-2.76981e-05
2.36409e-05
-2.6109e-05
2.45546e-05
-2.47737e-05
2.53943e-05
-2.35018e-05
2.61699e-05
-2.23698e-05
2.68741e-05
-2.12593e-05
2.74562e-05
-2.02365e-05
2.79803e-05
-1.92087e-05
2.83088e-05
-1.81915e-05
2.85241e-05
-1.72444e-05
2.86383e-05
-1.63885e-05
2.86546e-05
-1.55737e-05
2.85415e-05
-1.48232e-05
2.84312e-05
-1.4109e-05
2.82091e-05
-1.34439e-05
2.79842e-05
-1.28098e-05
-1.21599e-05
2.77679e-05
2.18333e-05
-2.48842e-05
2.297e-05
-2.65989e-05
2.39932e-05
-2.49512e-05
2.49429e-05
-2.36429e-05
2.58123e-05
-2.23958e-05
2.6587e-05
-2.1284e-05
2.72716e-05
-2.02105e-05
2.7857e-05
-1.9209e-05
2.83616e-05
-1.82291e-05
2.87649e-05
-1.72342e-05
2.90785e-05
-1.63113e-05
2.9262e-05
-1.54357e-05
2.93144e-05
-1.45896e-05
2.92723e-05
-1.38419e-05
2.91615e-05
-1.31457e-05
2.89883e-05
-1.24993e-05
2.87766e-05
-1.18999e-05
-1.13139e-05
2.85637e-05
1.95785e-05
-2.29145e-05
2.04623e-05
-2.44851e-05
2.14298e-05
-2.30173e-05
2.23382e-05
-2.18061e-05
2.31424e-05
-2.06157e-05
2.38318e-05
-1.95453e-05
2.44347e-05
-1.8558e-05
2.49497e-05
-1.76297e-05
2.53769e-05
-1.6725e-05
2.578e-05
-1.58639e-05
2.60685e-05
-1.49744e-05
2.62448e-05
-1.41248e-05
2.63911e-05
-1.33742e-05
2.64227e-05
-1.263e-05
2.636e-05
-1.19491e-05
2.62224e-05
-1.13269e-05
2.60705e-05
-1.08034e-05
-1.02483e-05
2.58692e-05
1.75645e-05
-2.03832e-05
1.82321e-05
-2.17871e-05
1.91267e-05
-2.06629e-05
2.00497e-05
-1.96685e-05
2.08695e-05
-1.85633e-05
2.15259e-05
-1.75146e-05
2.20533e-05
-1.65867e-05
2.24659e-05
-1.57277e-05
2.2798e-05
-1.49195e-05
2.30773e-05
-1.41775e-05
2.33035e-05
-1.3399e-05
2.34967e-05
-1.26671e-05
2.36062e-05
-1.19726e-05
2.36674e-05
-1.13067e-05
2.3659e-05
-1.06747e-05
2.35787e-05
-1.00869e-05
2.34528e-05
-9.61586e-06
-9.11793e-06
2.32972e-05
1.5693e-05
-1.78584e-05
1.64805e-05
-1.91004e-05
1.72514e-05
-1.80883e-05
1.79925e-05
-1.7262e-05
1.87518e-05
-1.63731e-05
1.94399e-05
-1.54545e-05
1.99948e-05
-1.45862e-05
2.04173e-05
-1.37839e-05
2.07444e-05
-1.30625e-05
2.09762e-05
-1.23982e-05
2.11677e-05
-1.17459e-05
2.12885e-05
-1.10981e-05
2.13382e-05
-1.04737e-05
2.13431e-05
-9.89289e-06
2.12865e-05
-9.31681e-06
2.1181e-05
-8.78861e-06
2.10218e-05
-8.3612e-06
-7.92266e-06
2.08329e-05
1.38179e-05
-1.53277e-05
1.47158e-05
-1.65811e-05
1.56072e-05
-1.57011e-05
1.63659e-05
-1.4935e-05
1.69735e-05
-1.40884e-05
1.75061e-05
-1.32925e-05
1.79519e-05
-1.2531e-05
1.83348e-05
-1.18528e-05
1.86309e-05
-1.12238e-05
1.882e-05
-1.06228e-05
1.89512e-05
-1.00728e-05
1.90048e-05
-9.49791e-06
1.90101e-05
-8.96263e-06
1.89705e-05
-8.46314e-06
1.88914e-05
-7.96102e-06
1.87921e-05
-7.51782e-06
1.86731e-05
-7.16467e-06
-6.78843e-06
1.85296e-05
1.26566e-05
-1.27928e-05
1.32988e-05
-1.3969e-05
1.40341e-05
-1.33168e-05
1.46878e-05
-1.26567e-05
1.52736e-05
-1.19269e-05
1.57715e-05
-1.12293e-05
1.61852e-05
-1.05677e-05
1.65066e-05
-9.97404e-06
1.67521e-05
-9.43935e-06
1.69205e-05
-8.92336e-06
1.70173e-05
-8.4539e-06
1.70685e-05
-7.97621e-06
1.70795e-05
-7.53182e-06
1.70427e-05
-7.10393e-06
1.70124e-05
-6.71684e-06
1.69599e-05
-6.34994e-06
1.68605e-05
-6.03953e-06
-5.71883e-06
1.67364e-05
1.10372e-05
-1.04056e-05
1.17341e-05
-1.16297e-05
1.24783e-05
-1.1152e-05
1.31279e-05
-1.05699e-05
1.36964e-05
-9.9323e-06
1.42153e-05
-9.35901e-06
1.46463e-05
-8.78099e-06
1.49924e-05
-8.26932e-06
1.5239e-05
-7.79415e-06
1.5402e-05
-7.34564e-06
1.54711e-05
-6.92372e-06
1.54987e-05
-6.5363e-06
1.54839e-05
-6.17092e-06
1.54357e-05
-5.82096e-06
1.53618e-05
-5.50901e-06
1.52831e-05
-5.22956e-06
1.51605e-05
-4.95857e-06
-4.70045e-06
1.50256e-05
1.00423e-05
-8.35415e-06
1.07782e-05
-9.57213e-06
1.14889e-05
-9.18595e-06
1.20867e-05
-8.65257e-06
1.26104e-05
-8.10135e-06
1.30239e-05
-7.57754e-06
1.33715e-05
-7.09105e-06
1.36313e-05
-6.64374e-06
1.38049e-05
-6.22841e-06
1.39109e-05
-5.85151e-06
1.39638e-05
-5.50695e-06
1.39761e-05
-5.2002e-06
1.39637e-05
-4.92165e-06
1.39373e-05
-4.65945e-06
1.38937e-05
-4.42306e-06
1.38244e-05
-4.20195e-06
1.3727e-05
-3.97916e-06
-3.76727e-06
1.3607e-05
8.95949e-06
-6.65811e-06
9.67856e-06
-7.74804e-06
1.03375e-05
-7.40743e-06
1.08734e-05
-6.89669e-06
1.13196e-05
-6.40256e-06
1.16682e-05
-5.92812e-06
1.19713e-05
-5.54069e-06
1.21961e-05
-5.15467e-06
1.23658e-05
-4.81708e-06
1.24622e-05
-4.49279e-06
1.2493e-05
-4.20053e-06
1.24825e-05
-3.96208e-06
1.24464e-05
-3.75905e-06
1.24004e-05
-3.57936e-06
1.23297e-05
-3.40279e-06
1.22384e-05
-3.23751e-06
1.21343e-05
-3.07154e-06
-2.89736e-06
1.20055e-05
8.16962e-06
-5.1977e-06
8.81484e-06
-6.09357e-06
9.39328e-06
-5.78363e-06
9.85098e-06
-5.28562e-06
1.01981e-05
-4.81222e-06
1.04019e-05
-4.32568e-06
1.05661e-05
-4.02824e-06
1.06873e-05
-3.72558e-06
1.07717e-05
-3.47206e-06
1.08147e-05
-3.22077e-06
1.08115e-05
-2.98915e-06
1.07726e-05
-2.81363e-06
1.06957e-05
-2.66371e-06
1.05786e-05
-2.52659e-06
1.04382e-05
-2.40263e-06
1.02797e-05
-2.28801e-06
1.01167e-05
-2.18001e-06
-2.05112e-06
9.94243e-06
7.361e-06
-3.83761e-06
7.88118e-06
-4.54377e-06
8.18218e-06
-4.10254e-06
8.33506e-06
-3.57724e-06
8.39102e-06
-3.12634e-06
8.41551e-06
-2.7271e-06
8.34869e-06
-2.45455e-06
8.30415e-06
-2.28712e-06
8.23612e-06
-2.11827e-06
8.13636e-06
-1.93783e-06
8.05748e-06
-1.82268e-06
7.95264e-06
-1.71003e-06
7.82488e-06
-1.61872e-06
7.676e-06
-1.53502e-06
7.51398e-06
-1.46582e-06
7.34675e-06
-1.40775e-06
7.18758e-06
-1.36363e-06
-1.27516e-06
7.01826e-06
6.44534e-06
-2.54717e-06
6.37507e-06
-2.62333e-06
6.07944e-06
-2.03433e-06
5.75551e-06
-1.5879e-06
5.46189e-06
-1.27416e-06
5.27285e-06
-1.08656e-06
5.16543e-06
-1.00048e-06
5.06063e-06
-9.37273e-07
4.96397e-06
-8.73525e-07
4.91588e-06
-8.3303e-07
4.85124e-06
-7.86634e-07
4.78084e-06
-7.47274e-07
4.69893e-06
-7.17125e-07
4.60722e-06
-6.90116e-07
4.50536e-06
-6.71403e-07
4.40299e-06
-6.67939e-07
4.31139e-06
-6.84372e-07
-6.42386e-07
4.22156e-06
4.32322e-06
3.32663e-06
2.84499e-06
2.71765e-06
2.81093e-06
2.99849e-06
3.18104e-06
3.33886e-06
3.47649e-06
3.57529e-06
3.64647e-06
3.68834e-06
3.69709e-06
3.67486e-06
3.61843e-06
3.51751e-06
3.35678e-06
3.19804e-06
-4.20441e-07
-1.97414e-07
-7.29264e-07
-3.40489e-07
-1.0144e-06
-3.74222e-07
-1.32094e-06
-3.5682e-07
-1.64086e-06
-3.428e-07
-1.96731e-06
-3.31895e-07
-2.31801e-06
-3.00873e-07
-2.64709e-06
-3.1462e-07
-2.94531e-06
-3.35458e-07
-3.23883e-06
-3.27765e-07
-3.5156e-06
-3.29322e-07
-3.77117e-06
-3.32724e-07
-4.0599e-06
-2.81253e-07
-4.41028e-06
-1.99767e-07
-4.85373e-06
-8.23751e-08
-5.41548e-06
6.37528e-08
-6.06637e-06
1.81523e-07
-6.76221e-06
2.5917e-07
-7.54925e-06
3.87594e-07
-8.40983e-06
4.89426e-07
-9.05859e-06
2.98427e-07
-9.36692e-06
-1.41003e-08
-9.52473e-06
-1.24352e-07
-9.69092e-06
-8.00834e-08
-9.8608e-06
-4.1731e-08
-1.00127e-05
-3.32334e-09
-1.02965e-05
1.94281e-07
-1.08954e-05
5.44818e-07
-1.17148e-05
7.66516e-07
-1.25662e-05
7.95515e-07
-1.3346e-05
7.36848e-07
-1.40266e-05
6.62647e-07
-1.46051e-05
5.88758e-07
-1.50882e-05
5.20397e-07
-1.54886e-05
4.62009e-07
-1.58139e-05
4.08738e-07
-1.60595e-05
3.48351e-07
-1.62258e-05
2.85709e-07
-1.63175e-05
2.25087e-07
-1.63356e-05
1.62724e-07
-1.629e-05
1.07172e-07
-1.61744e-05
4.18499e-08
-1.6007e-05
-9.03567e-09
-1.57977e-05
-5.41092e-08
-1.55431e-05
-1.06506e-07
-1.52486e-05
-1.57525e-07
-1.49271e-05
-1.99311e-07
-1.4584e-05
-2.39554e-07
-1.42093e-05
-2.93835e-07
-1.37738e-05
-3.82692e-07
-1.33294e-05
-4.25668e-07
-1.28664e-05
-4.84981e-07
-1.24057e-05
-5.27843e-07
-1.19648e-05
-5.51691e-07
-1.15434e-05
-5.88654e-07
-1.11513e-05
-6.17942e-07
-1.08178e-05
-6.19348e-07
-1.05295e-05
-6.37274e-07
-1.02614e-05
-6.82377e-07
-1.0022e-05
-7.20876e-07
-9.76389e-06
-8.08182e-07
-9.47745e-06
-9.05284e-07
-9.17741e-06
-9.87912e-07
-8.83661e-06
-1.09769e-06
-8.43803e-06
-1.22323e-06
-8.03051e-06
-1.29788e-06
-7.62857e-06
-1.35582e-06
-7.24135e-06
-1.40385e-06
-6.93777e-06
-1.38281e-06
-6.69711e-06
-1.36931e-06
-6.5007e-06
-1.36946e-06
-6.3204e-06
-1.39108e-06
-6.17273e-06
-1.38774e-06
-6.0655e-06
-1.36811e-06
-6.05163e-06
-1.28683e-06
-6.09332e-06
-1.23398e-06
-6.07053e-06
-1.29104e-06
-5.86163e-06
-1.45946e-06
-5.52631e-06
-1.55699e-06
-5.15979e-06
-1.5502e-06
-4.70928e-06
-1.59043e-06
-4.18143e-06
-1.61562e-06
-3.53204e-06
-1.67678e-06
-2.86631e-06
-1.62756e-06
-2.30949e-06
-1.44941e-06
-1.83172e-06
-1.2962e-06
-1.47339e-06
-1.09611e-06
-1.15431e-06
-9.71006e-07
-7.79112e-07
-9.37797e-07
-4.49497e-08
-1.20776e-06
1.66288e-06
-2.09718e-06
4.19692e-06
-2.87269e-06
6.41322e-06
-2.53025e-06
7.88962e-06
-1.6845e-06
9.25723e-06
-1.46149e-06
1.12072e-05
-2.00713e-06
1.36775e-05
-2.55163e-06
1.6268e-05
-2.81783e-06
1.82234e-05
-2.39746e-06
1.89491e-05
-1.30375e-06
1.82641e-05
1.0069e-07
1.64136e-05
1.32595e-06
1.44306e-05
1.45416e-06
1.22151e-05
1.48226e-06
1.0029e-05
1.17258e-06
8.24402e-06
5.14097e-07
6.66669e-06
2.56112e-08
5.30785e-06
-4.23053e-07
3.46927e-06
-1.66017e-07
1.16398e-06
4.54088e-08
-1.22639e-06
-4.03643e-08
-3.12234e-06
-6.67089e-07
-4.3078e-06
-1.48497e-06
-4.99289e-06
-2.11818e-06
-4.90316e-06
-3.01785e-06
-3.43637e-06
-4.45425e-06
-8.67352e-07
-5.52838e-06
2.41352e-06
-6.18831e-06
7.11751e-06
-7.58264e-06
8.82416e-06
-4.61061e-06
7.21968e-06
-1.51966e-06
5.2911e-06
-1.2934e-06
4.95828e-06
-2.79963e-06
4.49035e-06
-2.57417e-06
2.52543e-06
-1.07891e-06
-5.22184e-08
-4.51985e-07
-1.88274e-06
-1.13522e-06
-3.2764e-06
-1.46844e-06
-4.87965e-06
-1.1306e-06
-6.52795e-06
-9.34713e-07
-7.85174e-06
-1.14545e-06
-8.37698e-06
-1.76614e-06
-8.56102e-06
-1.87497e-06
-8.30509e-06
-2.07737e-06
-7.54054e-06
-2.35096e-06
-6.61843e-06
-2.31983e-06
-5.68157e-06
-2.11356e-06
-4.60122e-06
-2.04621e-06
-3.61202e-06
-1.77301e-06
-2.6847e-06
-1.57076e-06
-1.79464e-06
-1.43956e-06
-6.80965e-07
-1.62956e-06
5.41558e-07
-1.75935e-06
1.86904e-06
-1.94399e-06
3.25891e-06
-2.16571e-06
4.84801e-06
-2.62111e-06
6.31847e-06
-2.87551e-06
7.3744e-06
-2.95712e-06
7.92918e-06
-3.06265e-06
8.34849e-06
-3.66246e-06
8.05231e-06
-3.72905e-06
7.56024e-06
-4.31564e-06
7.47339e-06
-5.40632e-06
6.17904e-06
-4.71788e-06
4.18222e-06
-4.51814e-06
4.10923e-06
-6.78424e-06
5.5463e-06
-7.97406e-06
7.07598e-06
-7.2665e-06
8.35145e-06
-6.05006e-06
7.72638e-06
-3.42932e-06
5.68903e-06
-1.45819e-06
3.56879e-06
-9.42933e-07
2.2684e-06
-1.45781e-06
2.39101e-06
-2.64958e-06
2.82205e-06
-2.90264e-06
1.98544e-06
-1.66894e-06
-3.60773e-07
-1.74416e-07
-1.07865e-06
-1.84291e-06
-7.49671e-07
-2.8873e-06
3.4747e-06
-6.75137e-06
7.11537e-06
-6.29559e-06
4.12373e-06
4.37443e-07
5.59069e-06
-4.09118e-06
8.03613e-06
-5.07824e-06
9.309e-06
-3.94502e-06
8.63265e-06
-1.85112e-06
7.72078e-06
-1.68166e-06
5.75779e-06
-6.06182e-07
2.48897e-06
8.0576e-07
5.90964e-07
-4.30856e-07
-4.07387e-07
-4.16878e-07
-7.21914e-07
-6.88532e-07
-1.01228e-06
-7.58796e-07
-1.31932e-06
-7.30747e-07
-1.63595e-06
-7.06906e-07
-1.96447e-06
-6.80114e-07
-2.31747e-06
-6.20769e-07
-2.63505e-06
-6.64506e-07
-2.90417e-06
-7.24703e-07
-3.16002e-06
-7.13382e-07
-3.40713e-06
-7.02483e-07
-3.6341e-06
-7.05538e-07
-3.91481e-06
-5.85986e-07
-4.32657e-06
-3.6641e-07
-4.84983e-06
-1.22268e-07
-5.32747e-06
8.23867e-09
-5.70359e-06
5.21659e-08
-6.0253e-06
1.05252e-07
-6.35649e-06
2.66358e-07
-6.797e-06
4.58569e-07
-7.42015e-06
4.46553e-07
-8.21045e-06
4.34138e-07
-9.22781e-06
7.49224e-07
-1.05489e-05
1.15344e-06
-1.21314e-05
1.40486e-06
-1.37708e-05
1.46556e-06
-1.5184e-05
1.44329e-06
-1.62236e-05
1.44239e-06
-1.70086e-05
1.43698e-06
-1.76842e-05
1.38679e-06
-1.82995e-05
1.29625e-06
-1.88537e-05
1.1886e-06
-1.93207e-05
1.05397e-06
-1.96993e-05
9.21525e-07
-1.99854e-05
7.9288e-07
-2.01758e-05
6.63899e-07
-2.02818e-05
5.38408e-07
-2.03268e-05
4.31905e-07
-2.03013e-05
3.15307e-07
-2.02002e-05
1.88712e-07
-2.0033e-05
7.60388e-08
-1.98126e-05
-3.5577e-08
-1.95327e-05
-1.42834e-07
-1.91945e-05
-2.47549e-07
-1.88029e-05
-3.56801e-07
-1.83621e-05
-4.62853e-07
-1.78836e-05
-5.51811e-07
-1.73675e-05
-6.45212e-07
-1.68287e-05
-7.45598e-07
-1.62912e-05
-8.64748e-07
-1.57213e-05
-9.76835e-07
-1.51614e-05
-1.07068e-06
-1.46032e-05
-1.16163e-06
-1.40374e-05
-1.24411e-06
-1.34894e-05
-1.3151e-06
-1.29907e-05
-1.3484e-06
-1.25777e-05
-1.31374e-06
-1.21416e-05
-1.41098e-06
-1.17217e-05
-1.50004e-06
-1.13251e-05
-1.57882e-06
-1.0882e-05
-1.77739e-06
-1.03917e-05
-1.98762e-06
-9.85708e-06
-2.18184e-06
-9.25758e-06
-2.42496e-06
-8.61322e-06
-2.66236e-06
-7.93556e-06
-2.83392e-06
-7.27342e-06
-2.93612e-06
-6.73393e-06
-2.92839e-06
-6.31911e-06
-2.83707e-06
-5.99448e-06
-2.78278e-06
-5.71027e-06
-2.78754e-06
-5.40887e-06
-2.86322e-06
-5.06377e-06
-2.93177e-06
-4.71542e-06
-2.93677e-06
-4.483e-06
-2.7566e-06
-4.46081e-06
-2.49594e-06
-4.39304e-06
-2.57913e-06
-3.98344e-06
-3.05924e-06
-3.42708e-06
-3.27287e-06
-2.86656e-06
-3.23277e-06
-2.31116e-06
-3.23187e-06
-1.6672e-06
-3.29655e-06
-1.01162e-06
-3.29036e-06
-5.67037e-07
-2.95375e-06
-4.09895e-07
-2.43458e-06
-2.43888e-07
-2.22557e-06
-1.66586e-08
-2.00011e-06
3.1902e-07
-1.89138e-06
7.5568e-07
-1.86733e-06
1.54204e-06
-2.39133e-06
3.37236e-06
-4.19323e-06
6.22243e-06
-5.83961e-06
8.88047e-06
-5.32974e-06
1.05244e-05
-3.46627e-06
1.21823e-05
-3.10101e-06
1.46454e-05
-4.37479e-06
1.67416e-05
-4.53139e-06
1.65619e-05
-2.93828e-06
1.41119e-05
-6.2097e-07
1.09557e-05
1.41055e-06
8.54593e-06
2.25553e-06
7.082e-06
2.47962e-06
5.39451e-06
2.62542e-06
4.07875e-06
2.01636e-06
2.98418e-06
1.24027e-06
2.14415e-06
1.1498e-07
1.40979e-06
-7.53052e-07
2.4911e-07
-1.01385e-06
-1.08361e-06
-8.00839e-07
-2.35337e-06
-8.41614e-07
-3.42658e-06
-1.25565e-06
-4.1884e-06
-2.31049e-06
-5.0007e-06
-3.2355e-06
-5.76511e-06
-4.10376e-06
-5.74281e-06
-5.91659e-06
-4.34798e-06
-8.74646e-06
-1.63961e-06
-1.10698e-05
2.00174e-06
-1.25912e-05
5.66952e-06
-1.40968e-05
7.9845e-06
-9.75684e-06
7.80179e-06
-4.20775e-06
6.0989e-06
-2.64237e-06
5.61066e-06
-5.35158e-06
5.96361e-06
-5.75278e-06
5.33392e-06
-3.17864e-06
3.33968e-06
-1.26439e-06
2.00426e-06
-2.6185e-06
1.86462e-06
-4.02463e-06
1.49491e-06
-3.34488e-06
1.59703e-07
-2.09488e-06
-1.0141e-06
-2.34228e-06
-1.17678e-06
-3.76977e-06
-9.27928e-07
-4.04249e-06
-5.17085e-07
-4.15936e-06
6.67632e-07
-4.94136e-06
2.35323e-06
-5.16475e-06
4.29432e-06
-4.97118e-06
6.38777e-06
-4.82062e-06
8.13751e-06
-4.02219e-06
9.20463e-06
-3.01546e-06
1.02291e-05
-2.74536e-06
1.14509e-05
-3.08378e-06
1.25082e-05
-3.08347e-06
1.36252e-05
-3.39551e-06
1.48523e-05
-3.82785e-06
1.59558e-05
-4.34818e-06
1.6663e-05
-4.54401e-06
1.67809e-05
-4.53894e-06
1.67272e-05
-5.10056e-06
1.64354e-05
-6.26553e-06
1.54318e-05
-6.63852e-06
1.43517e-05
-8.19179e-06
1.36532e-05
-1.03189e-05
1.20069e-05
-9.17826e-06
1.02966e-05
-9.69545e-06
1.00371e-05
-1.39952e-05
1.05672e-05
-1.54279e-05
9.34378e-06
-1.20408e-05
5.79891e-06
-7.25502e-06
1.46534e-06
-2.85384e-06
-1.69072e-06
-1.48025e-06
-3.60893e-06
-1.84092e-06
-4.29847e-06
-3.14008e-06
-3.3311e-06
-5.72031e-06
-3.06641e-06
-5.44195e-06
-4.51748e-06
-2.45387e-06
-7.14792e-06
4.08679e-07
-6.91077e-06
-4.03117e-06
-4.5079e-06
-7.15657e-06
1.70912e-06
-1.47872e-05
5.74375e-06
-1.23434e-05
2.91163e-06
1.13086e-06
5.44742e-06
-8.75699e-06
9.46907e-06
-1.1111e-05
1.24365e-05
-8.93512e-06
1.23841e-05
-3.84764e-06
1.27648e-05
-4.08967e-06
1.10556e-05
-1.15227e-06
6.95861e-06
2.56757e-06
2.29399e-06
3.02519e-06
-3.99122e-07
-6.59246e-07
-7.19408e-07
-1.04316e-06
-1.00603e-06
-1.159e-06
-1.30289e-06
-1.12922e-06
-1.61526e-06
-1.09128e-06
-1.93912e-06
-1.05345e-06
-2.26091e-06
-9.98094e-07
-2.58272e-06
-1.03275e-06
-2.91405e-06
-1.06035e-06
-3.28905e-06
-9.72656e-07
-3.69803e-06
-9.02666e-07
-4.14407e-06
-8.56752e-07
-4.5717e-06
-7.50606e-07
-5.06458e-06
-4.60673e-07
-5.65833e-06
-1.09983e-07
-6.32671e-06
1.01573e-07
-7.0961e-06
2.60443e-07
-8.02434e-06
5.34381e-07
-9.12267e-06
9.59737e-07
-1.03995e-05
1.38443e-06
-1.19228e-05
1.64534e-06
-1.35614e-05
1.78852e-06
-1.49977e-05
1.91409e-06
-1.61163e-05
2.00743e-06
-1.70381e-05
2.08586e-06
-1.78805e-05
2.09298e-06
-1.86549e-05
2.03085e-06
-1.93209e-05
1.95324e-06
-1.9853e-05
1.8461e-06
-2.0292e-05
1.73131e-06
-2.06555e-05
1.59326e-06
-2.09665e-05
1.45494e-06
-2.12318e-05
1.2872e-06
-2.14292e-05
1.10778e-06
-2.1551e-05
9.26735e-07
-2.16066e-05
7.54511e-07
-2.15836e-05
5.76571e-07
-2.14888e-05
4.20551e-07
-2.13246e-05
2.50774e-07
-2.11088e-05
8.32054e-08
-2.08579e-05
-5.18915e-08
-2.05516e-05
-2.07943e-07
-2.01848e-05
-3.72517e-07
-1.97794e-05
-5.18337e-07
-1.93035e-05
-7.03232e-07
-1.87713e-05
-8.69748e-07
-1.81799e-05
-1.02633e-06
-1.75823e-05
-1.14604e-06
-1.69145e-05
-1.34722e-06
-1.63161e-05
-1.43066e-06
-1.57366e-05
-1.55928e-06
-1.52089e-05
-1.6428e-06
-1.47085e-05
-1.75086e-06
-1.42301e-05
-1.85284e-06
-1.37595e-05
-1.95485e-06
-1.32902e-05
-2.03252e-06
-1.27751e-05
-2.10018e-06
-1.23127e-05
-2.19282e-06
-1.18293e-05
-2.36273e-06
-1.13761e-05
-2.47931e-06
-1.0867e-05
-2.80414e-06
-1.03244e-05
-3.11614e-06
-9.74695e-06
-3.4133e-06
-9.11551e-06
-3.78063e-06
-8.46509e-06
-4.10109e-06
-7.7574e-06
-4.38898e-06
-7.01733e-06
-4.58063e-06
-6.29428e-06
-4.61718e-06
-5.87258e-06
-4.27624e-06
-5.70009e-06
-4.01721e-06
-5.62049e-06
-3.96399e-06
-5.4833e-06
-4.12098e-06
-5.27269e-06
-4.28103e-06
-4.98852e-06
-4.37588e-06
-4.72385e-06
-4.19586e-06
-4.67669e-06
-3.71501e-06
-4.58625e-06
-3.79287e-06
-4.09254e-06
-4.62127e-06
-3.43979e-06
-4.97633e-06
-2.83024e-06
-4.86825e-06
-2.09513e-06
-4.9439e-06
-9.94383e-07
-5.30848e-06
2.0295e-07
-5.32904e-06
1.26599e-06
-4.76771e-06
2.15251e-06
-3.97845e-06
2.61535e-06
-3.2914e-06
2.85351e-06
-2.79582e-06
3.20965e-06
-2.74151e-06
3.75236e-06
-2.84216e-06
4.48524e-06
-3.49307e-06
5.61563e-06
-5.56277e-06
7.2591e-06
-7.50382e-06
9.13563e-06
-7.08307e-06
1.12983e-05
-5.44664e-06
1.35471e-05
-5.09491e-06
1.4201e-05
-5.00231e-06
1.21949e-05
-2.76729e-06
8.77786e-06
3.01777e-07
6.03689e-06
2.03363e-06
4.77046e-06
2.58385e-06
4.2697e-06
2.57277e-06
3.69603e-06
2.71656e-06
3.49672e-06
2.29168e-06
3.04687e-06
1.71093e-06
2.7476e-06
5.68882e-07
2.35877e-06
-6.7093e-07
1.96554e-06
-1.81374e-06
1.2413e-06
-1.98678e-06
7.83834e-07
-2.2423e-06
4.35413e-07
-2.61028e-06
-3.98051e-08
-3.10903e-06
-6.36936e-07
-4.2389e-06
-1.59792e-06
-5.0025e-06
-2.45519e-06
-6.16508e-06
-2.83104e-06
-8.61746e-06
-2.69999e-06
-1.20643e-05
-1.87351e-06
-1.50938e-05
4.65305e-07
-1.80868e-05
2.72925e-06
-1.92298e-05
4.49178e-06
-1.48698e-05
5.70557e-06
-8.54124e-06
4.99528e-06
-4.91495e-06
4.25759e-06
-7.84444e-06
4.06055e-06
-8.7458e-06
3.28802e-06
-5.24244e-06
1.18053e-06
-1.90185e-06
-3.12732e-07
-3.81738e-06
-1.33589e-07
-6.72741e-06
2.13268e-07
-6.07213e-06
-4.86422e-07
-3.71491e-06
-1.38293e-06
-3.62657e-06
-1.24051e-06
-5.82388e-06
-6.7505e-07
-6.27032e-06
-5.02843e-07
-5.77769e-06
4.45855e-07
-7.06528e-06
2.15651e-06
-7.78077e-06
4.37345e-06
-7.86438e-06
7.0477e-06
-7.91349e-06
9.87309e-06
-7.07227e-06
1.1914e-05
-5.22035e-06
1.3265e-05
-4.23877e-06
1.43617e-05
-4.32053e-06
1.53455e-05
-4.28598e-06
1.69268e-05
-5.25103e-06
1.89413e-05
-6.1893e-06
2.10103e-05
-6.8571e-06
2.24185e-05
-6.5785e-06
2.26168e-05
-5.76277e-06
2.18995e-05
-5.93243e-06
2.08603e-05
-7.27663e-06
1.94135e-05
-8.22536e-06
1.74016e-05
-1.056e-05
1.62495e-05
-1.39265e-05
1.50547e-05
-1.30837e-05
1.30136e-05
-1.38512e-05
1.06379e-05
-1.80949e-05
7.87746e-06
-1.79243e-05
3.58317e-06
-1.21074e-05
-1.58887e-06
-5.66895e-06
-4.48501e-06
-3.13334e-06
-5.46291e-06
-3.44897e-06
-6.26691e-06
-3.52415e-06
-6.14214e-06
-5.23482e-06
-5.67489e-06
-8.2059e-06
-5.77908e-06
-7.55508e-06
-5.09607e-06
-5.01181e-06
-4.84261e-06
-1.6933e-06
-4.63222e-06
-6.07477e-06
-2.43224e-06
-1.12119e-05
2.16081e-06
-2.16951e-05
4.3713e-06
-1.69246e-05
4.0834e-06
-8.3844e-07
6.89158e-06
-1.35484e-05
1.13642e-05
-1.7247e-05
1.36541e-05
-1.31914e-05
1.28611e-05
-5.13944e-06
1.45935e-05
-7.21798e-06
1.50045e-05
-2.96956e-06
1.23287e-05
3.22944e-06
4.34216e-06
8.06708e-06
-3.77206e-07
-9.52227e-07
-6.99702e-07
-1.4315e-06
-1.00135e-06
-1.58728e-06
-1.32233e-06
-1.5497e-06
-1.6801e-06
-1.47876e-06
-2.06642e-06
-1.41636e-06
-2.45924e-06
-1.33914e-06
-2.84989e-06
-1.33766e-06
-3.28232e-06
-1.29012e-06
-3.77209e-06
-1.13092e-06
-4.36797e-06
-9.54978e-07
-5.16223e-06
-7.00436e-07
-6.09496e-06
-4.41258e-07
-7.14822e-06
-2.1659e-08
-8.2675e-06
4.33225e-07
-9.5527e-06
8.3862e-07
-1.09881e-05
1.15559e-06
-1.24262e-05
1.4755e-06
-1.37384e-05
1.81659e-06
-1.48939e-05
2.11821e-06
-1.59779e-05
2.32349e-06
-1.69828e-05
2.41193e-06
-1.78866e-05
2.46972e-06
-1.86619e-05
2.45791e-06
-1.92681e-05
2.39808e-06
-1.97656e-05
2.3325e-06
-2.01736e-05
2.22177e-06
-2.05156e-05
2.0998e-06
-2.08013e-05
1.96298e-06
-2.10062e-05
1.8115e-06
-2.11687e-05
1.65402e-06
-2.12559e-05
1.46817e-06
-2.12992e-05
1.28663e-06
-2.13135e-05
1.09406e-06
-2.12956e-05
9.07125e-07
-2.1226e-05
7.07834e-07
-2.11137e-05
5.09738e-07
-2.09473e-05
3.30164e-07
-2.07712e-05
1.75632e-07
-2.0571e-05
-4.38558e-09
-2.0303e-05
-2.00598e-07
-1.99583e-05
-4.23472e-07
-1.95597e-05
-6.32128e-07
-1.91084e-05
-8.31877e-07
-1.8626e-05
-1.05823e-06
-1.8085e-05
-1.29676e-06
-1.74734e-05
-1.5353e-06
-1.68088e-05
-1.71994e-06
-1.61712e-05
-1.92101e-06
-1.54832e-05
-2.08278e-06
-1.48218e-05
-2.21203e-06
-1.42068e-05
-2.28308e-06
-1.36565e-05
-2.36372e-06
-1.31526e-05
-2.45745e-06
-1.26556e-05
-2.59589e-06
-1.22103e-05
-2.66818e-06
-1.18943e-05
-2.66114e-06
-1.15199e-05
-2.87799e-06
-1.10955e-05
-3.16461e-06
-1.06712e-05
-3.34424e-06
-1.02465e-05
-3.73891e-06
-9.79674e-06
-4.13938e-06
-9.27864e-06
-4.56218e-06
-8.73037e-06
-5.01831e-06
-8.14887e-06
-5.42483e-06
-7.53963e-06
-5.79213e-06
-6.89161e-06
-6.0819e-06
-6.08684e-06
-6.33648e-06
-5.20711e-06
-6.13082e-06
-4.69128e-06
-5.55861e-06
-4.51859e-06
-5.19239e-06
-4.36733e-06
-5.34652e-06
-4.18633e-06
-5.55347e-06
-4.05638e-06
-5.61926e-06
-3.97034e-06
-5.40005e-06
-3.89831e-06
-4.87443e-06
-3.85478e-06
-4.86521e-06
-3.55842e-06
-5.90474e-06
-3.14035e-06
-6.36605e-06
-2.67531e-06
-6.26219e-06
-2.08521e-06
-6.39893e-06
-1.04095e-06
-7.12923e-06
2.12637e-07
-7.27734e-06
1.57162e-06
-6.76576e-06
3.04143e-06
-5.98127e-06
4.46263e-06
-5.15982e-06
5.79464e-06
-4.499e-06
6.97183e-06
-4.17316e-06
7.92069e-06
-3.99442e-06
8.59088e-06
-4.43409e-06
9.20968e-06
-6.40924e-06
9.85592e-06
-8.16478e-06
1.09365e-05
-8.00789e-06