/*--------------------------------*- C++ -*----------------------------------*\
| =========                 |                                                 |
| \\      /  F ield         | OpenFOAM: The Open Source CFD Toolbox           |
|  \\    /   O peration     | Version:  dev                                   |
|   \\  /    A nd           | Web:      http://www.openfoam.org               |
|    \\/     M anipulation  |                                                 |
\*---------------------------------------------------------------------------*/
FoamFile
{
    version     2.0;
    format      ascii;
    class       surfaceScalarField;
    object      phi_0;
    location    "9.134";
}
// * * * * * * * * * * * * * * * * * * * * * * * * * * * * * * * * * * * * * //

dimensions      [1 0 -1 0 0 0 0];

internalField   nonuniform List<scalar> 
24170
(
2.23169e-06
-2.88624e-08
1.28504e-06
-5.85133e-07
8.97364e-07
-1.0719e-06
9.18845e-07
-1.42066e-06
9.29244e-07
-1.36012e-06
1.23822e-06
-1.59997e-06
1.29124e-06
-1.28552e-06
1.61455e-06
-1.49682e-06
1.74976e-06
-1.24738e-06
2.2615e-06
-1.56643e-06
2.50859e-06
-1.24082e-06
3.05405e-06
-1.4807e-06
3.82388e-06
-1.64548e-06
5.73681e-06
-2.72848e-06
8.23621e-06
-3.22886e-06
1.34704e-05
-5.92714e-06
1.72493e-05
-4.48218e-06
-2.52262e-08
1.67334e-05
3.96131e-06
-1.48109e-06
3.12178e-06
-1.34912e-06
2.33462e-06
-1.83246e-06
1.81362e-06
-2.38802e-06
1.31534e-06
-2.29061e-06
1.20409e-06
-2.85475e-06
7.55755e-07
-2.13419e-06
7.90669e-07
-2.7663e-06
5.45131e-07
-2.16772e-06
9.36014e-07
-3.06637e-06
9.36548e-07
-2.2833e-06
1.72281e-06
-3.25114e-06
2.81025e-06
-3.65796e-06
5.16055e-06
-5.94782e-06
8.62115e-06
-7.46295e-06
1.31126e-05
-1.11764e-05
1.42067e-05
-6.32191e-06
2.19754e-06
1.13834e-05
4.80852e-06
-3.45328e-06
4.60123e-06
-2.89953e-06
4.09726e-06
-3.02446e-06
3.75643e-06
-3.67921e-06
3.12671e-06
-3.22776e-06
2.93435e-06
-4.16214e-06
2.32314e-06
-2.95146e-06
2.29364e-06
-4.09558e-06
1.98206e-06
-3.14187e-06
2.24254e-06
-4.55139e-06
2.08756e-06
-3.27886e-06
2.76926e-06
-5.02129e-06
3.47916e-06
-5.39179e-06
4.54274e-06
-7.97426e-06
5.47771e-06
-9.26447e-06
6.4104e-06
-1.29251e-05
7.83829e-06
-8.52896e-06
3.49848e-06
5.87624e-06
5.17237e-06
-5.39788e-06
5.6475e-06
-5.29652e-06
5.28457e-06
-4.51698e-06
5.40632e-06
-5.58133e-06
4.78908e-06
-4.32098e-06
4.88222e-06
-5.88605e-06
4.19934e-06
-3.82769e-06
4.20051e-06
-5.57851e-06
4.04842e-06
-4.39592e-06
4.26997e-06
-6.10547e-06
4.26301e-06
-4.53278e-06
4.29475e-06
-6.24001e-06
4.87008e-06
-7.0861e-06
5.08551e-06
-9.23263e-06
6.03463e-06
-1.11654e-05
5.87374e-06
-1.36749e-05
3.4024e-06
-6.90914e-06
2.25998e-06
3.92328e-06
5.21928e-06
-7.44257e-06
6.2416e-06
-8.41135e-06
6.00936e-06
-6.30614e-06
6.44077e-06
-7.94915e-06
5.918e-06
-5.65966e-06
6.29515e-06
-8.03393e-06
5.84335e-06
-5.06787e-06
5.72632e-06
-7.06872e-06
5.87022e-06
-6.06616e-06
5.78254e-06
-7.46045e-06
5.84484e-06
-5.96473e-06
5.14352e-06
-6.82565e-06
6.07322e-06
-9.23046e-06
5.88707e-06
-1.01685e-05
6.44772e-06
-1.27699e-05
4.91565e-06
-1.31069e-05
1.21542e-06
-4.12177e-06
2.08058e-06
5.62813e-07
5.67583e-06
-9.28787e-06
6.67749e-06
-1.16804e-05
6.54958e-06
-8.3672e-06
7.19485e-06
-1.06938e-05
6.95741e-06
-7.43855e-06
7.25847e-06
-1.02535e-05
7.39811e-06
-7.0381e-06
7.10371e-06
-8.51253e-06
7.34757e-06
-7.96048e-06
7.22061e-06
-8.89266e-06
7.27765e-06
-7.50294e-06
6.45179e-06
-7.39032e-06
6.83694e-06
-1.09298e-05
6.35935e-06
-1.08972e-05
6.23656e-06
-1.37881e-05
4.66415e-06
-1.2584e-05
2.84469e-06
-3.26997e-06
3.03239e-06
9.65521e-07
6.44481e-06
-1.16216e-05
6.9601e-06
-1.46289e-05
7.15922e-06
-1.09182e-05
7.66711e-06
-1.34576e-05
7.71078e-06
-9.65201e-06
8.0391e-06
-1.26449e-05
8.48776e-06
-9.45609e-06
8.54642e-06
-1.04416e-05
8.01854e-06
-9.2071e-06
6.68048e-06
-9.2331e-06
8.43154e-06
-1.08485e-05
8.77735e-06
-9.22756e-06
8.09477e-06
-1.16556e-05
7.42462e-06
-1.15208e-05
6.36116e-06
-1.39403e-05
4.61331e-06
-1.19829e-05
4.74866e-06
-4.43663e-06
3.38358e-06
3.4189e-06
5.26992e-06
-1.36789e-05
5.30604e-06
-1.65102e-05
5.40889e-06
-1.2806e-05
5.30212e-06
-1.5059e-05
5.70196e-06
-1.16901e-05
5.26615e-06
-1.37703e-05
5.8557e-06
-1.15382e-05
5.93627e-06
-1.19412e-05
5.13708e-06
-9.75147e-06
4.23126e-06
-9.59389e-06
6.16988e-06
-1.39936e-05
7.06659e-06
-1.12513e-05
5.36567e-06
-1.10193e-05
4.66909e-06
-1.1797e-05
3.48851e-06
-1.36769e-05
2.39346e-06
-1.17424e-05
2.81077e-06
-5.64448e-06
-2.89103e-07
5.7443e-06
6.12602e-06
-1.57883e-05
5.9412e-06
-1.84058e-05
6.23787e-06
-1.5112e-05
5.67368e-06
-1.64195e-05
6.31623e-06
-1.41688e-05
5.14023e-06
-1.43522e-05
5.65647e-06
-1.37301e-05
5.07887e-06
-1.29669e-05
5.77984e-06
-1.19641e-05
6.58619e-06
-1.18181e-05
5.74833e-06
-1.45031e-05
6.20003e-06
-1.29683e-05
5.87304e-06
-1.19003e-05
5.83284e-06
-1.28568e-05
3.23288e-06
-1.212e-05
2.68097e-06
-1.21494e-05
2.47757e-06
-6.33295e-06
-6.11819e-06
7.46519e-06
7.29889e-06
-1.80273e-05
7.20883e-06
-2.06339e-05
7.42533e-06
-1.75554e-05
6.93793e-06
-1.80699e-05
7.50647e-06
-1.67752e-05
6.71393e-06
-1.55102e-05
6.63957e-06
-1.55091e-05
6.04999e-06
-1.41568e-05
7.07341e-06
-1.467e-05
8.11366e-06
-1.44366e-05
6.31354e-06
-1.41942e-05
5.94379e-06
-1.39981e-05
6.11174e-06
-1.3411e-05
5.94966e-06
-1.39394e-05
3.92089e-06
-1.12562e-05
3.7476e-06
-1.30617e-05
4.62834e-06
-8.20458e-06
-9.61513e-06
7.17099e-06
8.20593e-06
-2.08791e-05
8.29215e-06
-2.32592e-05
8.3687e-06
-2.00651e-05
8.36504e-06
-2.04003e-05
8.41302e-06
-1.90541e-05
8.32963e-06
-1.75536e-05
8.16204e-06
-1.73606e-05
8.1889e-06
-1.61157e-05
8.13658e-06
-1.64546e-05
8.07446e-06
-1.61092e-05
7.41988e-06
-1.51677e-05
7.10573e-06
-1.52086e-05
6.61128e-06
-1.43742e-05
5.85175e-06
-1.45461e-05
5.18291e-06
-1.18497e-05
4.82488e-06
-1.38898e-05
5.69748e-06
-1.01657e-05
-1.08597e-05
5.92286e-06
9.95293e-06
-2.36754e-05
9.68918e-06
-2.56997e-05
9.82856e-06
-2.2791e-05
9.7796e-06
-2.28286e-05
9.63029e-06
-2.1273e-05
9.90549e-06
-2.00822e-05
9.69435e-06
-1.92939e-05
9.88568e-06
-1.83537e-05
9.43158e-06
-1.79511e-05
9.10692e-06
-1.76286e-05
8.63656e-06
-1.64319e-05
8.15264e-06
-1.63501e-05
7.71146e-06
-1.54707e-05
6.85501e-06
-1.51421e-05
6.59323e-06
-1.29317e-05
6.03823e-06
-1.45891e-05
6.49446e-06
-1.1777e-05
-1.15908e-05
6.14564e-06
1.16015e-05
-2.67929e-05
1.14628e-05
-2.83304e-05
1.16406e-05
-2.56071e-05
1.15296e-05
-2.52465e-05
1.1419e-05
-2.35711e-05
1.15246e-05
-2.24822e-05
1.13659e-05
-2.13249e-05
1.14468e-05
-2.05198e-05
1.10252e-05
-1.95193e-05
1.07011e-05
-1.91874e-05
1.04206e-05
-1.79271e-05
9.99202e-06
-1.75914e-05
9.52826e-06
-1.65677e-05
8.93673e-06
-1.60251e-05
8.92396e-06
-1.42972e-05
8.0452e-06
-1.50006e-05
8.34598e-06
-1.32571e-05
-1.24799e-05
8.13346e-06
1.36167e-05
-3.00335e-05
1.34124e-05
-3.07843e-05
1.35787e-05
-2.82924e-05
1.33636e-05
-2.74479e-05
1.32911e-05
-2.57984e-05
1.33323e-05
-2.4719e-05
1.33041e-05
-2.33907e-05
1.32931e-05
-2.25054e-05
1.31276e-05
-2.12549e-05
1.27616e-05
-2.06275e-05
1.25112e-05
-1.93808e-05
1.20219e-05
-1.8712e-05
1.16462e-05
-1.76936e-05
1.11611e-05
-1.69503e-05
1.12194e-05
-1.56735e-05
1.04954e-05
-1.5524e-05
1.04071e-05
-1.43124e-05
-1.34001e-05
1.02675e-05
1.5685e-05
-3.24256e-05
1.54268e-05
-3.27959e-05
1.55885e-05
-3.05885e-05
1.54758e-05
-2.93795e-05
1.55273e-05
-2.77966e-05
1.54628e-05
-2.65192e-05
1.54578e-05
-2.51635e-05
1.53453e-05
-2.40936e-05
1.52435e-05
-2.27749e-05
1.49053e-05
-2.18367e-05
1.47068e-05
-2.06472e-05
1.43147e-05
-1.97111e-05
1.40215e-05
-1.87061e-05
1.36082e-05
-1.77608e-05
1.34593e-05
-1.66652e-05
1.28777e-05
-1.60245e-05
1.26449e-05
-1.50773e-05
-1.40745e-05
1.23936e-05
1.78347e-05
-3.43257e-05
1.76899e-05
-3.41035e-05
1.78589e-05
-3.21119e-05
1.78856e-05
-3.07061e-05
1.80641e-05
-2.92158e-05
1.81685e-05
-2.78251e-05
1.82878e-05
-2.64375e-05
1.82594e-05
-2.51806e-05
1.82434e-05
-2.38331e-05
1.80145e-05
-2.26433e-05
1.78052e-05
-2.14294e-05
1.74487e-05
-2.03047e-05
1.70562e-05
-1.92175e-05
1.66798e-05
-1.82372e-05
1.63911e-05
-1.7175e-05
1.59247e-05
-1.63091e-05
1.55249e-05
-1.53727e-05
-1.4437e-05
1.52398e-05
2.07089e-05
-3.46759e-05
2.1028e-05
-3.44858e-05
2.14427e-05
-3.2555e-05
2.16613e-05
-3.09675e-05
2.18119e-05
-2.94205e-05
2.19025e-05
-2.80033e-05
2.19416e-05
-2.65931e-05
2.18784e-05
-2.52649e-05
2.1793e-05
-2.392e-05
2.15458e-05
-2.25899e-05
2.1237e-05
-2.13292e-05
2.08792e-05
-2.01662e-05
2.04869e-05
-1.90498e-05
2.00338e-05
-1.80063e-05
1.96555e-05
-1.70112e-05
1.92246e-05
-1.60828e-05
1.88559e-05
-1.51946e-05
-1.43057e-05
1.85481e-05
2.10786e-05
-3.35076e-05
2.15443e-05
-3.33093e-05
2.19138e-05
-3.13304e-05
2.22049e-05
-2.97663e-05
2.24177e-05
-2.82493e-05
2.25443e-05
-2.68596e-05
2.26014e-05
-2.54975e-05
2.25864e-05
-2.42015e-05
2.25312e-05
-2.29194e-05
2.2412e-05
-2.1621e-05
2.2252e-05
-2.04008e-05
2.20102e-05
-1.92348e-05
2.16899e-05
-1.81063e-05
2.13365e-05
-1.70871e-05
2.09739e-05
-1.6131e-05
2.06076e-05
-1.52385e-05
2.02581e-05
-1.44031e-05
-1.35912e-05
1.99568e-05
1.88793e-05
-3.11781e-05
1.92551e-05
-3.08707e-05
1.96719e-05
-2.90624e-05
2.00168e-05
-2.75975e-05
2.02592e-05
-2.61514e-05
2.04047e-05
-2.48251e-05
2.04881e-05
-2.35731e-05
2.05151e-05
-2.23722e-05
2.04895e-05
-2.11885e-05
2.0478e-05
-2.0046e-05
2.03917e-05
-1.88786e-05
2.02319e-05
-1.77601e-05
2.00841e-05
-1.67505e-05
1.98646e-05
-1.57569e-05
1.95972e-05
-1.48391e-05
1.93004e-05
-1.39911e-05
1.90329e-05
-1.32537e-05
-1.24904e-05
1.87558e-05
1.70037e-05
-2.78148e-05
1.71936e-05
-2.76134e-05
1.76184e-05
-2.62023e-05
1.80661e-05
-2.49717e-05
1.84052e-05
-2.36203e-05
1.85922e-05
-2.23343e-05
1.86755e-05
-2.11717e-05
1.86764e-05
-2.00722e-05
1.8632e-05
-1.90178e-05
1.8573e-05
-1.80256e-05
1.84962e-05
-1.69958e-05
1.84231e-05
-1.60211e-05
1.83005e-05
-1.50927e-05
1.8164e-05
-1.4202e-05
1.79944e-05
-1.33572e-05
1.77879e-05
-1.25668e-05
1.75703e-05
-1.19049e-05
-1.12195e-05
1.73543e-05
1.52291e-05
-2.43871e-05
1.55907e-05
-2.42488e-05
1.59335e-05
-2.30003e-05
1.62624e-05
-2.19796e-05
1.66254e-05
-2.08765e-05
1.69254e-05
-1.97406e-05
1.71058e-05
-1.866e-05
1.7175e-05
-1.76448e-05
1.71782e-05
-1.67083e-05
1.71212e-05
-1.58291e-05
1.70596e-05
-1.49586e-05
1.69617e-05
-1.40983e-05
1.68236e-05
-1.32682e-05
1.66706e-05
-1.24894e-05
1.64847e-05
-1.17255e-05
1.62785e-05
-1.10196e-05
1.6046e-05
-1.04245e-05
-9.82066e-06
1.58086e-05
1.33876e-05
-2.10593e-05
1.39501e-05
-2.10573e-05
1.44733e-05
-1.99505e-05
1.48645e-05
-1.90145e-05
1.51206e-05
-1.7987e-05
1.53217e-05
-1.70083e-05
1.54525e-05
-1.60619e-05
1.55394e-05
-1.51991e-05
1.55624e-05
-1.43835e-05
1.55035e-05
-1.35971e-05
1.54176e-05
-1.28619e-05
1.52828e-05
-1.21044e-05
1.51284e-05
-1.13929e-05
1.49558e-05
-1.07237e-05
1.47675e-05
-1.0059e-05
1.45838e-05
-9.46346e-06
1.44035e-05
-8.96676e-06
-8.44818e-06
1.42202e-05
1.22995e-05
-1.76484e-05
1.26354e-05
-1.77625e-05
1.30553e-05
-1.69082e-05
1.33908e-05
-1.60978e-05
1.36661e-05
-1.52113e-05
1.38664e-05
-1.4358e-05
1.39997e-05
-1.35413e-05
1.40609e-05
-1.27946e-05
1.407e-05
-1.21051e-05
1.40255e-05
-1.1434e-05
1.39362e-05
-1.08113e-05
1.38272e-05
-1.01805e-05
1.37031e-05
-9.58853e-06
1.35545e-05
-9.01825e-06
1.34346e-05
-8.49495e-06
1.33133e-05
-8.0002e-06
1.31641e-05
-7.56918e-06
-7.12866e-06
1.30085e-05
1.07405e-05
-1.43239e-05
1.11499e-05
-1.47411e-05
1.16083e-05
-1.40965e-05
1.19773e-05
-1.33906e-05
1.2277e-05
-1.26237e-05
1.25414e-05
-1.19234e-05
1.27311e-05
-1.12168e-05
1.28518e-05
-1.05796e-05
1.28923e-05
-9.97814e-06
1.287e-05
-9.40345e-06
1.27758e-05
-8.8568e-06
1.26645e-05
-8.3463e-06
1.25331e-05
-7.86089e-06
1.23891e-05
-7.39465e-06
1.22397e-05
-6.97263e-06
1.21035e-05
-6.58877e-06
1.19394e-05
-6.21849e-06
-5.86264e-06
1.17792e-05
9.78131e-06
-1.15052e-05
1.02688e-05
-1.20439e-05
1.07263e-05
-1.15189e-05
1.10769e-05
-1.08874e-05
1.13658e-05
-1.02344e-05
1.15561e-05
-9.60943e-06
1.16936e-05
-9.02021e-06
1.17566e-05
-8.47229e-06
1.17503e-05
-7.95738e-06
1.16953e-05
-7.48177e-06
1.16075e-05
-7.03972e-06
1.14995e-05
-6.63675e-06
1.13863e-05
-6.26338e-06
1.12775e-05
-5.9095e-06
1.11686e-05
-5.5863e-06
1.10498e-05
-5.28268e-06
1.09167e-05
-4.98067e-06
-4.69188e-06
1.07755e-05
8.7462e-06
-9.10048e-06
9.23922e-06
-9.62351e-06
9.67326e-06
-9.17371e-06
9.99009e-06
-8.58856e-06
1.02299e-05
-8.01964e-06
1.03841e-05
-7.46921e-06
1.05052e-05
-7.00386e-06
1.05586e-05
-6.53859e-06
1.05705e-05
-6.12438e-06
1.05246e-05
-5.72516e-06
1.04307e-05
-5.36024e-06
1.03146e-05
-5.05109e-06
1.01916e-05
-4.77813e-06
1.00763e-05
-4.53041e-06
9.95148e-06
-4.28847e-06
9.81986e-06
-4.06075e-06
9.68779e-06
-3.83431e-06
-3.60203e-06
9.54322e-06
7.99794e-06
-6.83195e-06
8.43223e-06
-7.4173e-06
8.8191e-06
-7.04107e-06
9.08899e-06
-6.48789e-06
9.25671e-06
-5.96069e-06
9.28913e-06
-5.4185e-06
9.29511e-06
-5.06792e-06
9.2699e-06
-4.70779e-06
9.22008e-06
-4.39854e-06
9.14139e-06
-4.0927e-06
9.03006e-06
-3.80876e-06
8.89757e-06
-3.58328e-06
8.74223e-06
-3.38437e-06
8.56128e-06
-3.19986e-06
8.37099e-06
-3.03053e-06
8.1755e-06
-2.87257e-06
7.98743e-06
-2.7223e-06
-2.55263e-06
7.79887e-06
7.21679e-06
-4.8763e-06
7.5606e-06
-5.38216e-06
7.69756e-06
-4.90612e-06
7.68841e-06
-4.34117e-06
7.58523e-06
-3.85054e-06
7.4557e-06
-3.41157e-06
7.24185e-06
-3.10333e-06
7.06337e-06
-2.9002e-06
6.87322e-06
-2.69512e-06
6.66387e-06
-2.48053e-06
6.48848e-06
-2.33242e-06
6.2999e-06
-2.18843e-06
6.10146e-06
-2.06684e-06
5.89438e-06
-1.9539e-06
5.68632e-06
-1.85724e-06
5.48433e-06
-1.77295e-06
5.30094e-06
-1.7031e-06
-1.58863e-06
5.11582e-06
6.33207e-06
-3.0968e-06
6.09751e-06
-3.01969e-06
5.63312e-06
-2.4061e-06
5.14559e-06
-1.93688e-06
4.69501e-06
-1.60005e-06
4.35879e-06
-1.39228e-06
4.11433e-06
-1.29005e-06
3.88424e-06
-1.21095e-06
3.67606e-06
-1.13149e-06
3.52722e-06
-1.0761e-06
3.37563e-06
-1.01624e-06
3.23099e-06
-9.63774e-07
3.08731e-06
-9.21145e-07
2.94573e-06
-8.82116e-07
2.80511e-06
-8.52343e-07
2.67497e-06
-8.39007e-07
2.56734e-06
-8.46941e-07
-7.93041e-07
2.46941e-06
4.18751e-06
3.02088e-06
2.38519e-06
2.11825e-06
2.08647e-06
2.16027e-06
2.23647e-06
2.29668e-06
2.34647e-06
2.36614e-06
2.36714e-06
2.34793e-06
2.30433e-06
2.23805e-06
2.14488e-06
2.01323e-06
1.82639e-06
1.64924e-06
-2.54999e-07
6.11094e-09
-3.85922e-07
-1.36357e-07
-4.87649e-07
-1.68652e-07
-6.0735e-07
-1.51213e-07
-7.39132e-07
-1.37777e-07
-8.77145e-07
-1.2856e-07
-1.04206e-06
-9.74301e-08
-1.18526e-06
-1.14015e-07
-1.30012e-06
-1.3646e-07
-1.41248e-06
-1.317e-07
-1.51095e-06
-1.36805e-07
-1.58959e-06
-1.46486e-07
-1.70145e-06
-1.02675e-07
-1.87579e-06
-2.85143e-08
-2.14305e-06
7.83312e-08
-2.53172e-06
2.15558e-07
-3.01235e-06
3.24022e-07
-3.54176e-06
3.91919e-07
-4.16906e-06
5.11606e-07
-4.87638e-06
6.08986e-07
-5.3778e-06
4.15636e-07
-5.55372e-06
1.03061e-07
-5.58818e-06
-2.04603e-08
-5.63118e-06
6.5401e-09
-5.67604e-06
2.70438e-08
-5.71068e-06
4.89866e-08
-5.88246e-06
2.23675e-07
-6.36977e-06
5.58725e-07
-7.07295e-06
7.75365e-07
-7.80605e-06
8.02252e-07
-8.4707e-06
7.38565e-07
-9.04105e-06
6.55928e-07
-9.51321e-06
5.71125e-07
-9.8926e-06
4.90447e-07
-1.01918e-05
4.1998e-07
-1.04195e-05
3.55581e-07
-1.05712e-05
2.84415e-07
-1.06462e-05
2.10343e-07
-1.06464e-05
1.36702e-07
-1.05753e-05
6.31914e-08
-1.04421e-05
-4.81704e-09
-1.0238e-05
-8.47454e-08
-9.98255e-06
-1.49455e-07
-9.68631e-06
-2.07846e-07
-9.34637e-06
-2.73524e-07
-8.96852e-06
-3.3801e-07
-8.56678e-06
-3.93087e-07
-8.14577e-06
-4.47771e-07
-7.69402e-06
-5.17788e-07
-7.18145e-06
-6.21996e-07
-6.6597e-06
-6.81645e-07
-6.11848e-06
-7.57702e-07
-5.57914e-06
-8.19431e-07
-5.06237e-06
-8.71303e-07
-4.56346e-06
-9.25685e-07
-4.09382e-06
-9.73687e-07
-3.69589e-06
-9.84922e-07
-3.35065e-06
-1.01921e-06
-3.02974e-06
-1.08544e-06
-2.74163e-06
-1.14665e-06
-2.44144e-06
-1.25596e-06
-2.12206e-06
-1.37491e-06
-1.79986e-06
-1.47956e-06
-1.4493e-06
-1.61157e-06
-1.05437e-06
-1.76036e-06
-6.65372e-07
-1.85861e-06
-2.94249e-07
-1.94364e-06
2.3074e-08
-1.99033e-06
2.85054e-07
-2.03253e-06
4.67935e-07
-2.04719e-06
5.91834e-07
-2.07794e-06
6.8463e-07
-2.13155e-06
7.27937e-07
-2.15984e-06
7.14874e-07
-2.17326e-06
5.93628e-07
-2.12581e-06
4.05702e-07
-2.10819e-06
2.72732e-07
-2.19809e-06
3.18039e-07
-2.39791e-06
4.8384e-07
-2.52866e-06
6.82971e-07
-2.55976e-06
9.78964e-07
-2.64396e-06
1.3566e-06
-2.70488e-06
1.86257e-06
-2.80412e-06
2.40472e-06
-2.80152e-06
2.86343e-06
-2.67308e-06
3.25445e-06
-2.56033e-06
3.53224e-06
-2.39879e-06
3.78574e-06
-2.32094e-06
4.12263e-06
-2.35008e-06
4.85338e-06
-2.70411e-06
6.55876e-06
-3.66138e-06
8.99495e-06
-4.44588e-06
1.10209e-05
-4.10486e-06
1.23422e-05
-3.33809e-06
1.35873e-05
-3.23666e-06
1.53584e-05
-3.87284e-06
1.7571e-05
-4.5158e-06
1.97989e-05
-4.86341e-06
2.13184e-05
-4.49067e-06
2.15624e-05
-3.41616e-06
2.03467e-05
-2.03617e-06
1.79944e-05
-9.38959e-07
1.55206e-05
-9.6066e-07
1.27621e-05
-1.01202e-06
1.00393e-05
-1.3995e-06
7.73352e-06
-2.10746e-06
5.74444e-06
-2.66968e-06
3.99196e-06
-3.18772e-06
1.88635e-06
-3.04704e-06
-5.67939e-07
-2.85904e-06
-3.09009e-06
-2.8925e-06
-4.9967e-06
-3.5141e-06
-6.0862e-06
-4.32079e-06
-6.59611e-06
-4.96217e-06
-6.27356e-06
-5.88158e-06
-4.54081e-06
-7.32717e-06
-1.64829e-06
-8.43737e-06
2.00237e-06
-9.11783e-06
7.07744e-06
-1.0504e-05
9.23997e-06
-7.71449e-06
8.30287e-06
-4.95802e-06
7.14204e-06
-4.93446e-06
7.46658e-06
-6.41101e-06
7.63274e-06
-6.28922e-06
6.40574e-06
-5.12438e-06
4.58746e-06
-4.81982e-06
3.38886e-06
-5.69056e-06
2.49505e-06
-6.20904e-06
1.34473e-06
-6.1602e-06
2.25143e-08
-6.21605e-06
-9.14142e-07
-6.84279e-06
-1.14069e-06
-7.78308e-06
-1.18228e-06
-8.17406e-06
-9.0116e-07
-8.72039e-06
-2.52616e-07
-9.31909e-06
6.73487e-07
-9.84318e-06
1.55276e-06
-1.00456e-05
2.4581e-06
-1.03577e-05
3.16097e-06
-1.04609e-05
3.741e-06
-1.06604e-05
4.20857e-06
-1.08897e-05
4.8221e-06
-1.14228e-05
5.53585e-06
-1.19273e-05
6.41004e-06
-1.25036e-05
7.42219e-06
-1.31224e-05
8.72514e-06
-1.39924e-05
9.95333e-06
-1.46048e-05
1.07856e-05
-1.49739e-05
1.10799e-05
-1.52934e-05
1.11364e-05
-1.60089e-05
1.02753e-05
-1.60152e-05
9.0729e-06
-1.65251e-05
8.25598e-06
-1.75784e-05
6.00223e-06
-1.66743e-05
2.48487e-06
-1.61176e-05
7.44756e-07
-1.82795e-05
1.14663e-06
-1.95575e-05
2.50883e-06
-1.88133e-05
4.33782e-06
-1.7363e-05
4.36272e-06
-1.40197e-05
2.59735e-06
-1.12092e-05
3.38884e-07
-1.01237e-05
-1.30799e-06
-1.03017e-05
-1.73025e-06
-1.09478e-05
-2.13009e-06
-1.06199e-05
-3.98017e-06
-9.06589e-06
-7.27964e-06
-7.28301e-06
-8.81539e-06
-8.50827e-06
-9.12274e-06
-9.11144e-06
-5.5704e-06
-1.23012e-05
-2.08014e-06
-1.18348e-05
-5.64533e-06
-4.61278e-06
-4.03887e-06
-9.03178e-06
-1.53044e-06
-9.41191e-06
1.95194e-07
-8.16869e-06
-3.91536e-07
-5.40244e-06
-8.5639e-07
-5.11903e-06
-2.37297e-06
-3.63343e-06
-5.01347e-06
-2.00502e-06
-2.0502e-06
-7.14586e-06
-2.40892e-07
-1.33494e-08
-3.81109e-07
-2.79955e-07
-4.90824e-07
-3.47243e-07
-6.13025e-07
-3.19046e-07
-7.43451e-07
-2.96397e-07
-8.86285e-07
-2.7211e-07
-1.05304e-06
-2.14244e-07
-1.18647e-06
-2.60754e-07
-1.273e-06
-3.24319e-07
-1.35076e-06
-3.19037e-07
-1.42475e-06
-3.16717e-07
-1.48111e-06
-3.32791e-07
-1.59059e-06
-2.27783e-07
-1.82291e-06
-2.60932e-08
-2.16752e-06
2.01583e-07
-2.47764e-06
3.20208e-07
-2.69145e-06
3.49098e-07
-2.85624e-06
3.86432e-07
-3.03381e-06
5.32986e-07
-3.30041e-06
7.11044e-07
-3.7338e-06
6.82927e-07
-4.36731e-06
6.38984e-07
-5.28858e-06
8.99342e-07
-6.51368e-06
1.27436e-06
-7.96784e-06
1.50638e-06
-9.46674e-06
1.55239e-06
-1.07569e-05
1.51767e-06
-1.16843e-05
1.50104e-06
-1.23576e-05
1.47894e-06
-1.29203e-05
1.41199e-06
-1.34225e-05
1.30304e-06
-1.38667e-05
1.17634e-06
-1.42277e-05
1.02105e-06
-1.4504e-05
8.66324e-07
-1.46908e-05
7.15065e-07
-1.47834e-05
5.62684e-07
-1.47935e-05
4.14635e-07
-1.47452e-05
2.84518e-07
-1.46282e-05
1.42416e-07
-1.44477e-05
4.3807e-09
-1.41868e-05
-1.48672e-07
-1.38763e-05
-2.85477e-07
-1.35086e-05
-4.18665e-07
-1.30843e-05
-5.49742e-07
-1.26087e-05
-6.86389e-07
-1.2086e-05
-8.21282e-07
-1.15287e-05
-9.39352e-07
-1.09379e-05
-1.06202e-06
-1.03259e-05
-1.19243e-06
-9.70352e-06
-1.34375e-06
-9.05199e-06
-1.48816e-06
-8.4099e-06
-1.61582e-06
-7.76966e-06
-1.74175e-06
-7.131e-06
-1.86175e-06
-6.51024e-06
-1.9687e-06
-5.94152e-06
-2.03785e-06
-5.45672e-06
-2.04865e-06
-4.9629e-06
-2.17497e-06
-4.49181e-06
-2.30419e-06
-4.04692e-06
-2.42916e-06
-3.56287e-06
-2.67141e-06
-3.0416e-06
-2.92496e-06
-2.48619e-06
-3.16332e-06
-1.87842e-06
-3.45001e-06
-1.24055e-06
-3.73244e-06
-5.89347e-07
-3.94673e-06
1.47709e-08
-4.08552e-06
5.28512e-07
-4.1396e-06
8.81263e-07
-4.11376e-06
1.14288e-06
-4.12502e-06
1.35792e-06
-4.193e-06
1.5752e-06
-4.32948e-06
1.81971e-06
-4.46051e-06
2.05181e-06
-4.53017e-06
2.15208e-06
-4.42245e-06
2.02661e-06
-4.24379e-06
1.93433e-06
-4.39912e-06
2.17412e-06
-4.93457e-06
2.55769e-06
-5.21188e-06
2.95441e-06
-5.25321e-06
3.3486e-06
-5.3309e-06
3.81958e-06
-5.45083e-06
4.30331e-06
-5.50712e-06
4.60592e-06
-5.26752e-06
4.65519e-06
-4.86716e-06
4.73775e-06
-4.76744e-06
4.88778e-06
-4.63324e-06
5.15115e-06
-4.62066e-06
5.53131e-06
-4.70686e-06
6.29297e-06
-5.38058e-06
8.14298e-06
-7.30896e-06
1.09647e-05
-8.97507e-06
1.34521e-05
-8.48345e-06
1.49033e-05
-6.77418e-06
1.64117e-05
-6.66721e-06
1.86629e-05
-8.12404e-06
2.04159e-05
-8.3986e-06
1.97692e-05
-6.95466e-06
1.68714e-05
-4.7856e-06
1.33904e-05
-2.9306e-06
1.06888e-05
-2.26828e-06
8.82035e-06
-2.23159e-06
6.60067e-06
-2.26574e-06
4.7586e-06
-3.04493e-06
3.1293e-06
-3.93047e-06
1.77915e-06
-5.14029e-06
6.54868e-07
-6.11629e-06
-9.19079e-07
-6.43521e-06
-2.60595e-06
-6.38628e-06
-4.13637e-06
-6.43024e-06
-5.33618e-06
-6.79875e-06
-6.12853e-06
-7.81984e-06
-6.85392e-06
-8.78602e-06
-7.47566e-06
-9.70254e-06
-7.25937e-06
-1.15466e-05
-5.58023e-06
-1.43932e-05
-2.48681e-06
-1.67476e-05
1.59776e-06
-1.82687e-05
5.76059e-06
-1.99275e-05
8.55269e-06
-1.57946e-05
8.91854e-06
-1.06784e-05
7.91915e-06
-9.59171e-06
8.05529e-06
-1.2346e-05
9.0266e-06
-1.28561e-05
9.10804e-06
-1.08475e-05
7.86422e-06
-9.66726e-06
7.17576e-06
-1.14693e-05
7.52179e-06
-1.31918e-05
7.59261e-06
-1.31169e-05
6.73442e-06
-1.26409e-05
5.86134e-06
-1.3618e-05
5.87936e-06
-1.56717e-05
6.28659e-06
-1.66189e-05
6.82397e-06
-1.74944e-05
8.06626e-06
-1.89708e-05
9.61941e-06
-2.00216e-05
1.13541e-05
-2.06451e-05
1.3164e-05
-2.13137e-05
1.45415e-05
-2.13745e-05
1.5169e-05
-2.12346e-05
1.57302e-05
-2.17597e-05
1.64332e-05
-2.28168e-05
1.69434e-05
-2.35377e-05
1.7566e-05
-2.45699e-05
1.83523e-05
-2.57419e-05
1.90792e-05
-2.7059e-05
1.95016e-05
-2.80973e-05
1.94098e-05
-2.88759e-05
1.91813e-05
-3.01285e-05
1.86496e-05
-3.18289e-05
1.71101e-05
-3.23758e-05
1.53484e-05
-3.39128e-05
1.41075e-05
-3.5969e-05
1.15496e-05
-3.46497e-05
8.16738e-06
-3.48549e-05
6.28125e-06
-3.89114e-05
6.098e-06
-4.00561e-05
5.1278e-06
-3.58411e-05
2.43386e-06
-2.96222e-05
-1.21776e-06
-2.35335e-05
-4.2505e-06
-2.07393e-05
-6.4281e-06
-2.03014e-05
-7.52032e-06
-2.07236e-05
-7.08739e-06
-2.20199e-05
-7.70728e-06
-2.10102e-05
-1.02083e-05
-1.7649e-05
-1.38941e-05
-1.38237e-05
-1.4589e-05
-1.70222e-05
-1.28875e-05
-1.90067e-05
-7.32213e-06
-2.53431e-05
-3.74962e-06
-2.31572e-05
-6.9275e-06
-9.50832e-06
-4.17681e-06
-1.82237e-05
-1.19996e-08
-1.95954e-05
2.86393e-06
-1.67235e-05
3.24965e-06
-1.11564e-05
4.04348e-06
-1.08982e-05
2.82118e-06
-7.36338e-06
-6.14947e-07
-3.23877e-06
-3.10627e-06
-3.81246e-06
-2.34606e-07
-5.78256e-08
-3.84977e-07
-4.33729e-07
-4.95741e-07
-5.45968e-07
-6.11684e-07
-5.15667e-07
-7.41758e-07
-4.78532e-07
-8.82508e-07
-4.42914e-07
-1.01983e-06
-3.87661e-07
-1.15905e-06
-4.27356e-07
-1.31301e-06
-4.64125e-07
-1.52104e-06
-3.88086e-07
-1.76638e-06
-3.34488e-07
-2.04721e-06
-3.07237e-07
-2.30754e-06
-2.20127e-07
-2.63066e-06
4.75244e-08
-3.05011e-06
3.74864e-07
-3.54113e-06
5.62542e-07
-4.12907e-06
6.95931e-07
-4.8848e-06
9.35515e-07
-5.82629e-06
1.32329e-06
-6.94846e-06
1.71659e-06
-8.3126e-06
1.94739e-06
-9.80553e-06
2.05704e-06
-1.11205e-05
2.1496e-06
-1.21213e-05
2.21542e-06
-1.29254e-05
2.26717e-06
-1.36486e-05
2.24877e-06
-1.43015e-05
2.16003e-06
-1.48484e-05
2.05544e-06
-1.5264e-05
1.92099e-06
-1.55881e-05
1.77813e-06
-1.58395e-05
1.61146e-06
-1.60405e-05
1.44488e-06
-1.6198e-05
1.24791e-06
-1.62924e-05
1.03671e-06
-1.63152e-05
8.22302e-07
-1.62774e-05
6.16697e-07
-1.61654e-05
4.0368e-07
-1.59835e-05
2.11846e-07
-1.57239e-05
-5.47529e-09
-1.54124e-05
-1.98089e-07
-1.50791e-05
-3.74836e-07
-1.46879e-05
-5.73031e-07
-1.42352e-05
-7.78643e-07
-1.37449e-05
-9.6422e-07
-1.31859e-05
-1.19062e-06
-1.25743e-05
-1.4008e-06
-1.19059e-05
-1.60334e-06
-1.12333e-05
-1.76778e-06
-1.04934e-05
-2.01111e-06
-9.80985e-06
-2.14342e-06
-9.14813e-06
-2.31999e-06
-8.53974e-06
-2.45345e-06
-7.95909e-06
-2.61338e-06
-7.40332e-06
-2.77016e-06
-6.85789e-06
-2.92896e-06
-6.3224e-06
-3.05677e-06
-5.75589e-06
-3.17528e-06
-5.23726e-06
-3.33932e-06
-4.69877e-06
-3.57318e-06
-4.19508e-06
-3.75178e-06
-3.6428e-06
-4.13594e-06
-3.06685e-06
-4.51104e-06
-2.46812e-06
-4.87064e-06
-1.82558e-06
-5.30241e-06
-1.17736e-06
-5.69123e-06
-4.85117e-07
-6.04866e-06
2.27192e-07
-6.30387e-06
8.982e-07
-6.4159e-06
1.24117e-06
-6.15949e-06
1.33271e-06
-6.0029e-06
1.3359e-06
-6.04839e-06
1.39e-06
-6.29031e-06
1.50381e-06
-6.53568e-06
1.68651e-06
-6.71465e-06
1.83927e-06
-6.6304e-06
1.73663e-06
-6.27775e-06
1.65471e-06
-6.48063e-06
1.98431e-06
-7.38594e-06
2.47679e-06
-7.82419e-06
2.93579e-06
-7.82743e-06
3.53301e-06
-8.02079e-06
4.46096e-06
-8.47708e-06
5.47119e-06
-8.58411e-06
6.38773e-06
-8.11335e-06
7.15411e-06
-7.4588e-06
7.48202e-06
-6.9465e-06
7.59644e-06
-6.63342e-06
7.85837e-06
-6.75995e-06
8.31763e-06
-7.03754e-06
8.97258e-06
-7.89003e-06
1.00798e-05
-1.01275e-05
1.17522e-05
-1.2114e-05
1.36021e-05
-1.17138e-05
1.5642e-05
-1.0281e-05
1.76536e-05
-1.02772e-05
1.79533e-05
-1.04554e-05
1.56005e-05
-8.39587e-06
1.19309e-05
-5.5682e-06
8.94573e-06
-4.11641e-06
7.34259e-06
-3.82325e-06
6.43442e-06
-4.0841e-06
5.38287e-06
-4.19669e-06
4.65881e-06
-4.87332e-06
3.65694e-06
-5.68527e-06
2.78781e-06
-7.00685e-06
1.85815e-06
-8.39166e-06
1.03001e-06
-9.61939e-06
5.57183e-08
-9.98332e-06
-8.22648e-07
-1.02232e-05
-1.47878e-06
-1.06535e-05
-2.15552e-06
-1.1211e-05
-2.83539e-06
-1.24085e-05
-3.759e-06
-1.33492e-05
-4.51975e-06
-1.4596e-05
-4.68093e-06
-1.71323e-05
-4.17627e-06
-2.06666e-05
-2.82325e-06
-2.37785e-05
1.00266e-07
-2.67572e-05
3.00118e-06
-2.80368e-05
5.28294e-06
-2.40353e-05
7.01706e-06
-1.80214e-05
6.92523e-06
-1.50474e-05
6.71208e-06
-1.83508e-05
7.07175e-06
-1.94579e-05
7.00755e-06
-1.65895e-05
5.67449e-06
-1.41492e-05
4.81084e-06
-1.65981e-05
5.44985e-06
-1.98092e-05
6.2454e-06
-1.98898e-05
5.99385e-06
-1.87348e-05
5.39233e-06
-1.97554e-05
5.70466e-06
-2.28086e-05
6.43483e-06
-2.42408e-05
6.71033e-06
-2.48535e-05
7.70608e-06
-2.71325e-05
9.37328e-06
-2.89208e-05
1.14828e-05
-3.01609e-05
1.39094e-05
-3.1269e-05
1.63507e-05
-3.16735e-05
1.78772e-05
-3.11925e-05
1.86935e-05
-3.15016e-05
1.92539e-05
-3.26685e-05
1.97176e-05
-3.36287e-05
2.08851e-05
-3.54655e-05
2.247e-05
-3.72321e-05
2.40804e-05
-3.87616e-05
2.50458e-05
-3.95906e-05
2.48492e-05
-4.00311e-05
2.3848e-05
-4.13901e-05
2.26911e-05
-4.37541e-05
2.08056e-05
-4.54455e-05
1.81481e-05
-4.80606e-05
1.67104e-05
-5.13605e-05
1.46404e-05
-5.06049e-05
1.08756e-05
-5.10104e-05
7.2543e-06
-5.41001e-05
4.37651e-06
-5.26021e-05
5.21844e-07
-4.51886e-05
-3.93431e-06
-3.68354e-05
-6.54459e-06
-3.22855e-05
-7.66313e-06
-3.12813e-05
-8.80817e-06
-3.03404e-05
-8.98016e-06
-3.05403e-05
-9.07245e-06
-3.19511e-05
-1.02652e-05
-3.06289e-05
-1.07269e-05
-2.70057e-05
-1.16722e-05
-2.21403e-05
-1.23227e-05
-2.48825e-05
-1.08069e-05
-2.81304e-05
-6.69743e-06
-3.74087e-05
-5.12301e-06
-3.30786e-05
-5.7511e-06
-1.6087e-05
-2.63529e-06
-2.67759e-05
1.80872e-06
-2.91514e-05
4.13474e-06
-2.42847e-05
3.84953e-06
-1.56658e-05
6.09051e-06
-1.6802e-05
6.89405e-06
-1.2024e-05
4.73948e-06
-5.34572e-06
-3.70197e-06
1.12291e-06
-2.19082e-07
-1.50649e-07
-3.77524e-07
-6.17698e-07
-5.06526e-07
-7.68641e-07
-6.48782e-07
-7.29714e-07
-8.24681e-07
-6.60044e-07
-1.02979e-06
-5.96446e-07
-1.24541e-06
-5.22615e-07
-1.47207e-06
-5.32159e-07
-1.74661e-06
-5.03161e-07
-2.07764e-06
-3.63518e-07
-2.50925e-06
-2.10283e-07
-3.12615e-06
9.13988e-09
-3.88273e-06
2.46004e-07
-4.75635e-06
6.33589e-07
-5.70276e-06
1.05648e-06
-6.81496e-06
1.42798e-06
-8.07478e-06
1.71051e-06
-9.35225e-06
1.99309e-06
-1.05164e-05
2.29562e-06
-1.1528e-05
2.56293e-06
-1.24717e-05
2.73582e-06
-1.33411e-05
2.78733e-06
-1.41147e-05
2.80803e-06
-1.47626e-05
2.76313e-06
-1.52436e-05
2.66731e-06
-1.56198e-05
2.56616e-06
-1.59093e-05
2.4188e-06
-1.61308e-05
2.25876e-06
-1.63016e-05
2.08562e-06
-1.63959e-05
1.89469e-06
-1.6448e-05
1.69758e-06
-1.64265e-05
1.47084e-06
-1.63627e-05
1.24758e-06
-1.62711e-05
1.01235e-06
-1.61523e-05
7.81086e-07
-1.59842e-05
5.35189e-07
-1.57782e-05
2.90576e-07
-1.55174e-05
5.77109e-08
-1.52621e-05
-1.43599e-07
-1.49683e-05
-3.74756e-07
-1.46096e-05
-6.21629e-07
-1.41791e-05
-8.96724e-07
-1.3697e-05
-1.15982e-06
-1.31615e-05
-1.41374e-06
-1.25962e-05
-1.69377e-06
-1.19747e-05
-1.98843e-06
-1.12875e-05
-2.28699e-06
-1.0555e-05
-2.53002e-06
-9.83415e-06
-2.79102e-06
-9.06592e-06
-3.01514e-06
-8.32854e-06
-3.20911e-06
-7.64017e-06
-3.34623e-06
-7.01854e-06
-3.49496e-06
-6.44533e-06
-3.661e-06
-5.88758e-06
-3.86696e-06
-5.38046e-06
-4.02091e-06
-4.99658e-06
-4.10189e-06
-4.56618e-06
-4.39434e-06
-4.08827e-06
-4.76348e-06
-3.617e-06
-5.024e-06
-3.14755e-06
-5.4967e-06
-2.66091e-06
-5.97967e-06
-2.12053e-06
-6.48187e-06
-1.55983e-06
-7.02276e-06
-9.8383e-07
-7.514e-06
-3.97767e-07
-7.97159e-06
2.27347e-07
-8.35461e-06
1.0139e-06
-8.71265e-06
1.83662e-06
-8.60599e-06
2.2525e-06
-8.1652e-06
2.3179e-06
-7.94878e-06
2.36739e-06
-8.22154e-06
2.43057e-06
-8.52874e-06
2.43644e-06
-8.69632e-06
2.41701e-06
-8.58176e-06
2.3517e-06
-8.20547e-06
2.20173e-06
-8.36801e-06
2.34023e-06
-9.51801e-06
2.62969e-06
-1.00788e-05
2.94603e-06
-1.01065e-05
3.39892e-06
-1.03894e-05
4.31174e-06
-1.12398e-05
5.41627e-06
-1.15108e-05
6.65057e-06
-1.11297e-05
8.02922e-06
-1.04691e-05
9.33032e-06
-9.81232e-06
1.05053e-05
-9.35289e-06
1.1556e-05
-9.26098e-06
1.23797e-05
-9.35193e-06
1.28975e-05
-1.01131e-05
1.34333e-05
-1.23406e-05
1.40971e-05
-1.42118e-05
1.51962e-05
-1.41387e-05
1.67596e-05
-1.31519e-05
1.66784e-05