/*--------------------------------*- C++ -*----------------------------------*\
| =========                 |                                                 |
| \\      /  F ield         | OpenFOAM: The Open Source CFD Toolbox           |
|  \\    /   O peration     | Version:  dev                                   |
|   \\  /    A nd           | Web:      http://www.openfoam.org               |
|    \\/     M anipulation  |                                                 |
\*---------------------------------------------------------------------------*/
FoamFile
{
    version     2.0;
    format      ascii;
    class       volScalarField;
    object      pMean;
    location    "9.134";
}
// * * * * * * * * * * * * * * * * * * * * * * * * * * * * * * * * * * * * * //

dimensions      [1 -1 -2 0 0 0 0];

internalField   nonuniform List<scalar> 
12225
(
98313.2
98293.4
98279.7
98272.6
98258.4
98249
98230.5
98220.9
98199.4
98190.7
98166
98159.1
98128.2
98121.9
98081.1
98041.4
97952.3
97586.3
98308.7
98292.3
98279.1
98272.1
98257.8
98248.4
98229.8
98220.4
98198.7
98190.3
98165.3
98158.6
98127.8
98119.9
98079.3
98045.4
97953.2
97792.1
98304.9
98290.7
98278.1
98270.7
98256.3
98246.9
98228.3
98219
98197.3
98188.8
98164.4
98156.6
98128.4
98116.5
98081.6
98046.4
97979
97890.2
98299.8
98287.8
98276
98268.3
98253.9
98244.2
98226.2
98216.3
98195.5
98186.1
98163.1
98153.5
98127.3
98114.3
98082.6
98054.8
98006.3
97937.5
98293.2
98283.4
98272.4
98264.3
98250.4
98240.1
98223.2
98212.2
98193.1
98181.8
98161.6
98148.9
98127.4
98111.1
98084.5
98060.3
98020.4
97987.7
98284.9
98277.3
98266.5
98258.2
98244.7
98234.1
98218.1
98206.4
98188.7
98176.5
98158.4
98144.8
98126.4
98109.4
98088
98062.8
98040.6
98020.2
98274.7
98268.3
98258
98249.5
98236.9
98225.7
98211
98198.4
98182.7
98169.1
98153.7
98138.7
98124.1
98106.6
98092.3
98071.3
98060.9
98046
98263.9
98258.3
98248.6
98239.9
98228.2
98216.7
98203.1
98189.9
98175.9
98161.6
98148.5
98132.8
98121.3
98104
98095.2
98077.4
98075.7
98060.7
98253.1
98247.6
98238.8
98229.9
98219.1
98207.3
98194.8
98181.3
98168.7
98154.1
98142.6
98127.1
98117.4
98101.4
98095.1
98081
98080.7
98068.7
98239.4
98234
98226.3
98217.3
98207.4
98195.6
98184.1
98170.6
98159.3
98144.7
98134.8
98119.9
98111.7
98097.3
98092.3
98080.5
98079.7
98071.5
98222.5
98217
98210.5
98201.7
98192.6
98181.1
98170.3
98157.4
98146.9
98133.3
98123.9
98110.8
98102.8
98091.3
98085.6
98077.1
98074.4
98069.2
98202
98196.3
98191
98182.6
98174.2
98163.2
98153.3
98141
98131.4
98118.8
98110.2
98098.7
98091.1
98081.9
98076.1
98069.8
98066.1
98062.5
98177.2
98171.9
98167.3
98159.8
98151.9
98141.9
98132.5
98121.6
98112.4
98101.7
98093.3
98084
98076.7
98069.5
98064.1
98059.2
98055.6
98052.9
98148.9
98144.1
98140.1
98133.6
98126.3
98117.4
98108.8
98099.3
98090.8
98081.8
98074.1
98066.5
98060.1
98054.4
98049.7
98045.9
98042.9
98040.8
98118.8
98115
98111.3
98105.9
98099.4
98091.8
98083.9
98075.9
98068.2
98060.8
98054.1
98048
98042.7
98038.1
98034.4
98031.5
98029.3
98027.8
98091.1
98088.3
98084.9
98080.4
98074.8
98068.3
98061.5
98054.6
98048.1
98041.9
98036.3
98031.3
98027
98023.5
98020.6
98018.4
98016.9
98015.9
98072.5
98070.5
98067.8
98063.8
98058.9
98053.2
98047.3
98041.3
98035.7
98030.4
98025.6
98021.5
98017.9
98015
98012.7
98011
98009.9
98009.2
98072.7
98071
98068.5
98064.8
98060
98054.7
98049.1
98043.6
98038.2
98033.3
98028.8
98024.9
98021.5
98018.7
98016.5
98014.8
98013.6
98012.8
98092.4
98090.6
98087.8
98083.8
98078.9
98073.3
98067.5
98061.7
98056.2
98050.9
98046.1
98041.9
98038.1
98034.9
98032.3
98030.1
98028.4
98027.2
98123.2
98121.1
98117.7
98113.2
98107.7
98101.7
98095.4
98089
98082.9
98077
98071.6
98066.7
98062.3
98058.4
98055.1
98052.3
98049.9
98047.9
98158.1
98155.5
98151.4
98146.2
98140.2
98133.5
98126.6
98119.6
98112.7
98106.2
98100.1
98094.4
98089.3
98084.6
98080.5
98076.9
98073.8
98071.1
98192
98188.9
98184.1
98178.3
98171.6
98164.3
98156.8
98149.2
98141.7
98134.5
98127.7
98121.3
98115.4
98110.1
98105.3
98100.9
98097.1
98093.7
98222.2
98218.6
98213
98206.5
98199.3
98191.5
98183.5
98175.4
98167.4
98159.6
98152.2
98145.2
98138.7
98132.7
98127.3
98122.3
98117.9
98113.8
98247.5
98243.2
98236.9
98229.8
98222.1
98214
98205.6
98197.1
98188.6
98180.4
98172.5
98165
98158.1
98151.6
98145.6
98140.1
98135.2
98130.6
98267.8
98262.6
98255.5
98247.8
98239.8
98231.4
98222.8
98214
98205.2
98196.7
98188.4
98180.6
98173.2
98166.3
98160
98154.1
98148.7
98143.8
98283.5
98277.2
98269.1
98260.9
98252.7
98244.3
98235.5
98226.5
98217.5
98208.7
98200.2
98192.1
98184.4
98177.3
98170.6
98164.5
98158.8
98153.6
98295.3
98287.4
98278.4
98269.9
98261.6
98253.1
98244.2
98235.1
98226
98217.1
98208.4
98200.1
98192.3
98184.9
98178.1
98171.7
98165.8
98160.5
98304
98294.2
98284.1
98275.4
98267.2
98258.7
98249.8
98240.7
98231.5
98222.5
98213.7
98205.3
98197.3
98189.9
98182.9
98176.4
98170.4
98164.9
98310.1
98298
98286.8
98278.2
98270.2
98261.8
98253
98243.9
98234.7
98225.6
98216.7
98208.3
98200.2
98192.7
98185.6
98179.1
98173
98167.4
98316
98300.5
98288.4
98279.6
98271.4
98263.1
98254.3
98245.2
98236
98226.9
98218
98209.5
98201.4
98193.8
98186.8
98180.2
98174.1
98168.5
98313
98312.6
98311.8
98310.7
98309.2
98307.3
98305.1
98302.5
98299.4
98296
98292.1
98287.9
98283.3
98278.3
98273.1
98267.6
98261.9
98256
98249.9
98243.7
98237.2
98230.6
98223.9
98217.1
98210.2
98203.3
98196.3
98189.2
98182.1
98175
98167.9
98160.9
98153.8
98146.9
98140
98133.3
98126.6
98120.1
98113.8
98107.7
98101.8
98096.1
98090.7
98085.5
98080.7
98076.3
98072.1
98068.4
98065.1
98062.3
98059.9
98058
98056.6
98055.8
98055.5
98055.9
98056.8
98058.4
98060.7
98063.7
98067.4
98071.7
98076.8
98082.6
98089.2
98096.4
98104.4
98113.1
98122.4
98132.3
98142.9
98154.1
98165.9
98178.2
98190.9
98204.2
98217.8
98231.8
98246.1
98260.7
98275.5
98290.5
98305.7
98320.9
98336.1
98351.4
98366.6
98381.7
98396.6
98411.3
98425.7
98439.9
98453.6
98467
98479.9
98492.3
98504.2
98515.6
98526.3
98536.4
98545.9
98554.8
98563
98570.6
98577.5
98583.8
98589.6
98594.7
98599.3
98603.4
98607.1
98610.2
98613.1
98615.5
98617.7
98619.6
98621.3
98622.7
98623.9
98625
98626.1
98627.2
98628.3
98629.6
98631.2
98633.2
98635.9
98639.3
98643.7
98649.3
98656.4
98665.1
98675.8
98688.7
98704
98722
98742.8
98766.6
98793.4
98823.2
98856.2
98892.1
98930.9
98972.4
99016.7
99063.2
99112.2
99162.8
99215.4
99269.6
99325.1
99381.4
99438.4
99495.7
99552.9
99609.5
99664.9
99718.6
99769.6
99817.4
99860.9
99899.2
99931.2
99956.3
99973.1
99980.6
99977.9
99964.9
99940.9
99906.2
99860.9
99806.1
99742.2
99671.5
99594.5
99514.1
99429.6
99344.9
99258.1
99175
98306
98305.6
98304.9
98303.7
98302.2
98300.3
98298.1
98295.5
98292.4
98289
98285.3
98281.1
98276.6
98271.8
98266.8
98261.4
98255.9
98250.2
98244.3
98238.2
98231.9
98225.5
98219
98212.4
98205.7
98198.9
98192
98185.1
98178.2
98171.2
98164.3
98157.4
98150.5
98143.7
98137
98130.4
98123.9
98117.5
98111.3
98105.3
98099.5
98094
98088.6
98083.6
98078.9
98074.5
98070.4
98066.8
98063.5
98060.7
98058.3
98056.4
98055
98054.1
98053.8
98054.1
98055
98056.6
98058.8
98061.7
98065.3
98069.5
98074.5
98080.2
98086.6
98093.7
98101.5
98110
98119.2
98129
98139.4
98150.4
98161.9
98174
98186.5
98199.5
98212.9
98226.7
98240.8
98255.1
98269.7
98284.5
98299.4
98314.3
98329.3
98344.3
98359.2
98374
98388.6
98403
98417.2
98431
98444.5
98457.6
98470.2
98482.3
98494
98505
98515.5
98525.4
98534.7
98543.3
98551.3
98558.7
98565.5
98571.6
98577.2
98582.2
98586.7
98590.7
98594.2
98597.3
98600.1
98602.5
98604.6
98606.4
98608
98609.4
98610.6
98611.6
98612.6
98613.5
98614.6
98615.8
98617.2
98619
98621.4
98624.6
98628.7
98633.9
98640.6
98648.9
98659.1
98671.4
98686.2
98703.5
98723.6
98746.6
98772.5
98801.4
98833.5
98868.4
98906.1
98946.5
98989.7
99035.1
99082.9
99132.4
99183.8
99236.8
99291.1
99346.3
99402.2
99458.5
99514.6
99570.2
99624.7
99677.6
99727.9
99775.1
99818.2
99856.3
99888.2
99913.3
99930.5
99938.5
99936.7
99924.8
99902.1
99868.9
99825.1
99772.1
99710
99641.1
99565.9
99487.1
99404.2
99321.1
99235.3
99150.4
98293.3
98293
98292.2
98291
98289.4
98287.4
98285.1
98282.4
98279.4
98276
98272.3
98268.3
98263.9
98259.3
98254.5
98249.5
98244.2
98238.8
98233.3
98227.5
98221.7
98215.7
98209.5
98203.3
98196.9
98190.5
98183.9
98177.3
98170.7
98164
98157.4
98150.7
98144.1
98137.6
98131.1
98124.8
98118.5
98112.4
98106.4
98100.6
98095
98089.7
98084.5
98079.6
98075
98070.7
98066.8
98063.2
98060
98057.2
98054.9
98052.9
98051.5
98050.6
98050.2
98050.4
98051.2
98052.6
98054.7
98057.4
98060.8
98064.9
98069.6
98075.1
98081.2
98088.1
98095.6
98103.8
98112.6
98122.1
98132.1
98142.8
98153.9
98165.6
98177.8
98190.4
98203.3
98216.6
98230.3
98244.2
98258.3
98272.6
98287
98301.5
98316
98330.4
98344.8
98359.1
98373.1
98387
98400.6
98413.9
98426.8
98439.3
98451.4
98462.9
98474
98484.6
98494.6
98504
98512.8
98521
98528.6
98535.6
98542
98547.9
98553.1
98557.9
98562.1
98565.9
98569.3
98572.2
98574.8
98577.1
98579.1
98580.8
98582.2
98583.5
98584.5
98585.4
98586.2
98586.9
98587.7
98588.6
98589.7
98591.1
98593
98595.6
98599.1
98603.6
98609.5
98616.8
98626
98637.2
98650.7
98666.7
98685.3
98706.7
98731
98758.1
98788.2
98821.1
98856.7
98895
98935.9
98979.1
99024.5
99071.7
99120.7
99171.3
99223.3
99276.2
99329.8
99383.9
99437.9
99491.5
99544.1
99595.3
99644
99689.8
99731.8
99769
99800.4
99825.5
99843
99851.9
99851.4
99841.3
99820.8
99790.3
99749.6
99700
99641.4
99576.3
99504.7
99429.4
99349.9
99270
99187.1
99103.2
98275.8
98275.5
98274.7
98273.5
98271.9
98270
98267.6
98264.9
98261.9
98258.6
98255
98251.1
98247
98242.6
98238.1
98233.3
98228.5
98223.4
98218.3
98213
98207.6
98202
98196.4
98190.6
98184.7
98178.7
98172.7
98166.5
98160.4
98154.2
98148
98141.8
98135.6
98129.5
98123.4
98117.4
98111.5
98105.7
98100
98094.5
98089.2
98084
98079.1
98074.4
98069.9
98065.8
98062
98058.5
98055.4
98052.7
98050.3
98048.4
98046.9
98045.9
98045.5
98045.6
98046.2
98047.5
98049.3
98051.8
98055
98058.7
98063.2
98068.2
98074
98080.5
98087.6
98095.3
98103.7
98112.7
98122.3
98132.4
98143
98154.2
98165.8
98177.8
98190.2
98202.9
98215.9
98229.1
98242.5
98256.2
98269.9
98283.6
98297.4
98311.1
98324.8
98338.3
98351.6
98364.8
98377.6
98390.1
98402.3
98414
98425.3
98436.2
98446.5
98456.3
98465.6
98474.3
98482.5
98490.1
98497.1
98503.6
98509.6
98514.9
98519.8
98524.2
98528.1
98531.6
98534.7
98537.4
98539.8
98541.9
98543.6
98545.1
98546.4
98547.4
98548.3
98548.9
98549.5
98549.9
98550.3
98550.7
98551.2
98552.1
98553.3
98555.1
98557.6
98561.2
98565.9
98571.9
98579.7
98589.3
98601.1
98615.2
98631.7
98650.9
98672.9
98697.5
98724.9
98755
98787.8
98823.1
98861
98901
98943.2
98987.2
99033.1
99080.5
99129.3
99179.1
99229.7
99280.9
99332
99382.8
99432.8
99481.5
99528.1
99572
99612.3
99648.4
99678.9
99703.7
99721.4
99731
99731.9
99723.8
99706.1
99678.9
99642.1
99596.8
99542.8
99482.5
99415.7
99345.3
99270.5
99195
99116.4
99036.3
98254.6
98254.4
98253.6
98252.5
98251
98249
98246.8
98244.2
98241.2
98238
98234.5
98230.8
98226.9
98222.8
98218.5
98214.1
98209.6
98205
98200.2
98195.4
98190.4
98185.4
98180.2
98175
98169.6
98164.2
98158.7
98153.2
98147.6
98142
98136.3
98130.7
98125.1
98119.4
98113.9
98108.4
98102.9
98097.6
98092.3
98087.2
98082.2
98077.4
98072.7
98068.3
98064.1
98060.1
98056.5
98053.1
98050.1
98047.4
98045.1
98043.2
98041.7
98040.6
98040.1
98040
98040.5
98041.5
98043.1
98045.3
98048.1
98051.5
98055.5
98060.2
98065.5
98071.4
98078
98085.2
98093
98101.4
98110.3
98119.8
98129.8
98140.2
98151.1
98162.4
98174
98185.9
98198.1
98210.5
98223.1
98235.9
98248.7
98261.5
98274.4
98287.2
98300
98312.6
98325
98337.1
98349
98360.6
98371.9
98382.7
98393.1
98403
98412.4
98421.3
98429.8
98437.7
98445
98451.9
98458.2
98464
98469.4
98474.2
98478.5
98482.4
98485.9
98489
98491.7
98494.1
98496.3
98498.1
98499.6
98500.9
98501.9
98502.6
98503.2
98503.5
98503.7
98503.7
98503.6
98503.4
98503.4
98503.5
98503.9
98504.7
98506.1
98508.3
98511.6
98516.1
98522.1
98529.8
98539.5
98551.3
98565.4
98581.9
98601
98622.6
98646.8
98673.6
98702.9
98734.6
98768.8
98805.1
98843.4
98883.7
98925.7
98969.3
99014.3
99060.4
99107.4
99155
99202.6
99250.1
99296.9
99342.6
99386.6
99428.1
99466.4
99500.8
99530.2
99554.3
99572
99582.2
99584.5
99578.6
99563.9
99540.5
99508.1
99467.7
99419.1
99364.5
99303.5
99239.1
99170.1
99100.2
99027
98952.4
98231.2
98231
98230.3
98229.3
98227.9
98226.1
98223.9
98221.5
98218.7
98215.7
98212.4
98208.9
98205.2
98201.4
98197.4
98193.3
98189.1
98184.8
98180.5
98176.1
98171.6
98167
98162.3
98157.6
98152.8
98147.9
98143
98138.1
98133.1
98128.1
98123.1
98118
98113
98108
98103
98098
98093.1
98088.3
98083.6
98078.9
98074.3
98069.9
98065.6
98061.5
98057.6
98053.9
98050.4
98047.2
98044.3
98041.8
98039.5
98037.6
98036.1
98034.9
98034.2
98034
98034.3
98035.1
98036.4
98038.2
98040.6
98043.6
98047.1
98051.3
98056
98061.4
98067.3
98073.9
98081
98088.7
98096.9
98105.6
98114.9
98124.5
98134.5
98144.9
98155.7
98166.7
98177.9
98189.4
98201
98212.7
98224.5
98236.3
98248.1
98259.9
98271.6
98283.1
98294.4
98305.5
98316.3
98326.8
98337
98346.7
98356.1
98365
98373.4
98381.3
98388.8
98395.8
98402.3
98408.3
98413.8
98418.9
98423.5
98427.7
98431.4
98434.7
98437.7
98440.4
98442.7
98444.7
98446.5
98448
98449.1
98450.1
98450.7
98451.1
98451.3
98451.3
98450.9
98450.4
98449.8
98449
98448.2
98447.5
98446.9
98446.5
98446.7
98447.5
98449.2
98451.9
98455.9
98461.5
98468.7
98478
98489.3
98502.8
98518.7
98536.9
98557.6
98580.7
98606.1
98633.8
98663.9
98696.1
98730.2
98766.3
98804.1
98843.5
98884.4
98926.4
98969.2
99012.8
99056.6
99100.4
99143.7
99186
99226.9
99265.7
99301.7
99334.1
99362
99385.2
99402.5
99413.2
99416.8
99413.1
99401.3
99381.8
99354
99318.8
99276
99227.5
99172.8
99115.1
99052.6
98989.3
98922.4
98854.4
98206.7
98206.6
98206.1
98205.1
98203.8
98202.2
98200.3
98198.1
98195.5
98192.7
98189.7
98186.5
98183.1
98179.5
98175.9
98172.1
98168.3
98164.3
98160.4
98156.3
98152.2
98148.1
98143.9
98139.7
98135.4
98131.1
98126.7
98122.3
98117.9
98113.5
98109.1
98104.6
98100.2
98095.8
98091.4
98087
98082.6
98078.3
98074.1
98069.9
98065.8
98061.8
98057.9
98054.1
98050.5
98047.1
98043.9
98040.9
98038.1
98035.6
98033.4
98031.5
98030
98028.8
98028
98027.6
98027.6
98028.1
98029.1
98030.6
98032.6
98035.1
98038.2
98041.8
98046
98050.7
98056
98061.8
98068.2
98075.1
98082.5
98090.4
98098.7
98107.5
98116.6
98126
98135.8
98145.8
98156
98166.4
98176.9
98187.5
98198.2
98208.9
98219.5
98230.1
98240.6
98251
98261.1
98271
98280.6
98290
98298.9
98307.5
98315.7
98323.5
98330.8
98337.7
98344.2
98350.2
98355.8
98360.9
98365.6
98369.8
98373.7
98377.1
98380.2
98382.9
98385.4
98387.5
98389.3
98390.9
98392.2
98393.3
98394
98394.6
98394.8
98394.8
98394.6
98394.1
98393.2
98392.2
98390.9
98389.4
98387.7
98386
98384.4
98382.8
98381.5
98380.8
98380.7
98381.6
98383.5
98386.7
98391.4
98397.9
98406.3
98416.7
98429.2
98443.8
98460.7
98479.9
98501.4
98524.9
98550.7
98578.6
98608.3
98640.1
98673.5
98708.5
98745
98782.7
98821.2
98860.5
98900.2
98940.1
98979.7
99018.4
99055.8
99091.6
99124.8
99154.9
99181
99202.9
99219.6
99230.5
99235.2
99233.5
99224.5
99208.8
99185.3
99155.4
99118.4
99076.3
99028.3
98977.5
98922
98865.8
98805.8
98745.1
98182.5
98182.5
98182
98181.3
98180.2
98178.8
98177.1
98175.1
98172.8
98170.3
98167.6
98164.7
98161.6
98158.4
98155.1
98151.6
98148.1
98144.6
98140.9
98137.3
98133.6
98129.8
98126.1
98122.3
98118.5
98114.7
98110.8
98107
98103.1
98099.2
98095.3
98091.4
98087.5
98083.6
98079.8
98075.9
98072.1
98068.3
98064.6
98060.8
98057.1
98053.5
98050
98046.5
98043.2
98040.1
98037.1
98034.3
98031.7
98029.3
98027.1
98025.3
98023.7
98022.4
98021.5
98020.9
98020.7
98021
98021.7
98022.8
98024.4
98026.4
98029
98032
98035.6
98039.7
98044.3
98049.4
98055
98061.1
98067.6
98074.6
98082
98089.8
98098
98106.4
98115.2
98124.1
98133.2
98142.5
98151.9
98161.4
98170.9
98180.4
98189.8
98199.2
98208.5
98217.5
98226.4
98235.1
98243.5
98251.5
98259.3
98266.7
98273.7
98280.3
98286.6
98292.4
98297.8
98302.8
98307.4
98311.6
98315.4
98318.8
98321.8
98324.5
98326.9
98329
98330.8
98332.4
98333.7
98334.8
98335.6
98336.1
98336.4
98336.5
98336.3
98335.8
98335
98334
98332.6
98330.9
98328.9
98326.6
98324
98321.2
98318.5
98315.6
98312.9
98310.6
98308.8
98307.7
98307.4
98308.2
98310.4
98314.1
98319.4
98326.6
98335.7
98346.8
98359.9
98375.2
98392.6
98412.1
98433.5
98457
98482.4
98509.8
98538.8
98569.4
98601.4
98634.8
98668.9
98704
98739.5
98775.5
98811.1
98846.1
98879.9
98912.2
98942.5
98970.1
98993.9
99014.1
99029.8
99040.7
99046
99045.9
99039.4
99027
99007.6
98982.7
98951.3
98915.4
98874.1
98830.4
98781.9
98733.1
98680.4
98627.3
98159.7
98159.7
98159.4
98158.7
98157.8
98156.6
98155.2
98153.5
98151.5
98149.3
98146.9
98144.3
98141.6
98138.7
98135.7
98132.7
98129.5
98126.3
98123
98119.8
98116.5
98113.1
98109.8
98106.4
98103.1
98099.7
98096.3
98092.9
98089.5
98086.1
98082.7
98079.2
98075.8
98072.4
98069
98065.6
98062.3
98058.9
98055.5
98052.2
98048.8
98045.6
98042.3
98039.2
98036.2
98033.2
98030.4
98027.8
98025.3
98023
98020.9
98019
98017.4
98016
98015
98014.2
98013.8
98013.8
98014.2
98014.9
98016.1
98017.7
98019.8
98022.3
98025.3
98028.7
98032.6
98037
98041.9
98047.2
98052.9
98059
98065.5
98072.4
98079.5
98087
98094.7
98102.6
98110.6
98118.8
98127
98135.3
98143.6
98151.9
98160.1
98168.3
98176.3
98184.1
98191.7
98199.1
98206.2
98213
98219.5
98225.7
98231.5
98237
98242.1
98246.8
98251.1
98255
98258.6
98261.9
98264.8
98267.4
98269.6
98271.6
98273.2
98274.6
98275.8
98276.7
98277.5
98278
98278.3
98278.3
98278
98277.6
98276.8
98275.8
98274.5
98272.8
98270.8
98268.4
98265.6
98262.4
98258.9
98255
98251.1
98246.9
98242.9
98239
98235.4
98232.3
98229.9
98228.4
98228
98228.9
98231.4
98235.4
98241.1
98248.7
98258.2
98269.7
98283.2
98298.7
98316
98335.2
98356.3
98379.5
98404.2
98430.5
98458.2
98487.2
98517.1
98548
98579.5
98611.4
98643
98674.1
98704.2
98733.1
98760
98784.8
98806.2
98824.4
98838.7
98848.9
98854.6
98855.6
98851
98841.3
98825.6
98805.2
98778.9
98748.9
98714.2
98677.3
98635.8
98594.4
98549
98503.7
98139
98139.1
98138.9
98138.4
98137.7
98136.7
98135.5
98134.1
98132.4
98130.5
98128.5
98126.2
98123.8
98121.3
98118.7
98116
98113.2
98110.4
98107.5
98104.6
98101.7
98098.7
98095.8
98092.8
98089.9
98086.9
98083.9
98080.9
98077.9
98074.9
98071.8
98068.8
98065.8
98062.8
98059.7
98056.7
98053.7
98050.6
98047.6
98044.6
98041.5
98038.5
98035.6
98032.6
98029.8
98027
98024.4
98021.8
98019.4
98017.2
98015.1
98013.2
98011.5
98010
98008.8
98007.9
98007.3
98007
98007.1
98007.5
98008.3
98009.5
98011.1
98013.1
98015.5
98018.3
98021.6
98025.3
98029.5
98034
98038.9
98044.2
98049.8
98055.7
98062
98068.4
98075.1
98082
98089
98096
98103.2
98110.3
98117.5
98124.6
98131.6
98138.5
98145.2
98151.8
98158.2
98164.3
98170.2
98175.8
98181.1
98186
98190.7
98194.9
98198.9
98202.4
98205.7
98208.6
98211.2
98213.5
98215.5
98217.2
98218.6
98219.8
98220.7
98221.4
98221.9
98222.2
98222.3
98222.2
98221.9
98221.3
98220.5
98219.4
98218.1
98216.4
98214.4
98212
98209.3
98206.1
98202.5
98198.4
98194
98189.1
98184
98178.6
98173.2
98167.8
98162.5
98157.6
98153.1
98149.4
98146.6
98144.9
98144.5
98145.5
98148.1
98152.4
98158.4
98166.3
98176.1
98187.8
98201.2
98216.6
98233.7
98252.8
98273.5
98295.7
98319.3
98344.1
98370
98396.8
98424.3
98452.1
98479.7
98507
98533.4
98558.6
98582.2
98603.9
98622.7
98638.5
98650.9
98660.1
98665.3
98666.8
98663.5
98656
98643.5
98626.9
98605.2
98580.8
98552.1
98521.6
98486.9
98452.6
98414.4
98376.9
98121.2
98121.3
98121.2
98120.8
98120.3
98119.5
98118.5
98117.3
98116
98114.4
98112.7
98110.8
98108.8
98106.7
98104.4
98102.1
98099.7
98097.2
98094.7
98092.2
98089.7
98087.1
98084.5
98081.9
98079.3
98076.7
98074.1
98071.4
98068.7
98066
98063.3
98060.6
98057.9
98055.2
98052.5
98049.7
98046.9
98044.1
98041.3
98038.5
98035.7
98032.8
98030
98027.3
98024.5
98021.9
98019.3
98016.8
98014.4
98012.1
98010
98008.1
98006.3
98004.7
98003.4
98002.3
98001.5
98000.9
98000.7
98000.8
98001.3
98002.1
98003.3
98004.8
98006.7
98009
98011.7
98014.8
98018.2
98022
98026.2
98030.7
98035.5
98040.6
98045.9
98051.5
98057.2
98063.1
98069.1
98075.1
98081.2
98087.3
98093.3
98099.3
98105.1
98110.9
98116.4
98121.8
98127
98131.9
98136.6
98141
98145.1
98148.8
98152.3
98155.4
98158.2
98160.7
98162.9
98164.7
98166.3
98167.7
98168.8
98169.6
98170.2
98170.5
98170.6
98170.6
98170.4
98169.9
98169.3
98168.5
98167.5
98166.4
98164.9
98163.2
98161.2
98158.8
98156.1
98153
98149.4
98145.5
98141
98136
98130.6
98124.7
98118.5
98112
98105.3
98098.5
98091.6
98085
98078.7
98073
98068
98063.8
98060.8
98059.1
98058.7
98059.9
98062.8
98067.4
98073.7
98082
98092
98103.7
98117.2
98132.7
98149.7
98168.2
98187.8
98208.8
98230.8
98253.7
98277.3
98301.2
98324.9
98348.5
98371.1
98392.5
98412.7
98431.1
98447
98460.2
98470.3
98477.8
98481.9
98483.1
98480.5
98474.7
98464.5
98451.3
98433.7
98414.2
98390.9
98366.3
98337.8
98310.4
98279
98249
98106.5
98106.7
98106.7
98106.4
98106
98105.4
98104.7
98103.8
98102.7
98101.4
98100
98098.5
98096.8
98095.1
98093.2
98091.3
98089.3
98087.2
98085.1
98083
98080.8
98078.6
98076.4
98074.1
98071.9
98069.5
98067.2
98064.8
98062.4
98060
98057.5
98055.1
98052.6
98050
98047.5
98044.9
98042.3
98039.7
98037
98034.3
98031.6
98028.8
98026.1
98023.4
98020.7
98018.1
98015.5
98013
98010.6
98008.3
98006.1
98004
98002.1
98000.4
97998.9
97997.7
97996.6
97995.9
97995.4
97995.3
97995.4
97995.9
97996.6
97997.8
97999.2
98001.1
98003.2
98005.7
98008.6
98011.8
98015.3
98019.1
98023.1
98027.4
98032
98036.7
98041.6
98046.5
98051.6
98056.7
98061.8
98066.8
98071.8
98076.8
98081.5
98086.2
98090.6
98094.9
98098.9
98102.7
98106.2
98109.4
98112.4
98115
98117.3
98119.4
98121.1
98122.5
98123.6
98124.5
98125.1
98125.5
98125.6
98125.5
98125.2
98124.7
98124
98123.2
98122.2
98121
98119.7
98118.1
98116.4
98114.5
98112.4
98109.9
98107.1
98104
98100.5
98096.7
98092.3
98087.5
98082.2
98076.4
98070
98063.2
98056
98048.4
98040.5
98032.4
98024.1
98016
98008
98000.4
97993.5
97987.1
97981.8
97977.6
97974.6
97973.1
97973.2
97974.9
97978.2
97983.4
97990.2
97998.9
98009.2
98021.3
98034.9
98050.1
98066.2
98083.7
98102.1
98121.3
98141.3
98161.5
98181.4
98201.3
98220
98237.6
98254.2
98269.1
98281.9
98292.2
98299.8
98305.1
98307.4
98307.7
98305.1
98300.2
98291.9
98281.3
98267.1
98251.7
98233.1
98213.9
98191.2
98170
98145
98122.2
98095.1
98095.3
98095.4
98095.2
98094.9
98094.5
98094
98093.3
98092.5
98091.6
98090.5
98089.3
98088
98086.6
98085.2
98083.6
98082
98080.4
98078.7
98076.9
98075.2
98073.3
98071.5
98069.5
98067.5
98065.5
98063.4
98061.3
98059.1
98056.9
98054.6
98052.3
98049.9
98047.5
98045.1
98042.6
98040
98037.4
98034.8
98032.1
98029.4
98026.7
98024
98021.2
98018.5
98015.8
98013.2
98010.6
98008.1
98005.7
98003.4
98001.2
97999.2
97997.4
97995.7
97994.3
97993.1
97992.1
97991.4
97991
97990.9
97991
97991.5
97992.3
97993.4
97994.8
97996.5
97998.5
98000.9
98003.5
98006.4
98009.6
98013
98016.7
98020.5
98024.4
98028.5
98032.7
98036.9
98041.1
98045.4
98049.5
98053.6
98057.5
98061.3
98065
98068.4
98071.6
98074.5
98077.2
98079.7
98081.8
98083.7
98085.2
98086.5
98087.5
98088.2
98088.5
98088.6
98088.5
98088.1
98087.5
98086.7
98085.7
98084.5
98083.2
98081.6
98080
98078.2
98076.2
98074
98071.7
98069.2
98066.5
98063.6
98060.3
98056.7
98052.9
98048.6
98043.9
98038.7
98033.1
98027
98020.3
98013.1
98005.4
97997.2
97988.6
97979.6
97970.4
97961
97951.5
97942
97932.9
97924.1
97916
97908.6
97902.3
97897.1
97893.3
97890.9
97890
97890.8
97893.4
97897.5
97903.4
97910.9
97920
97930.7
97942.7
97955.8
97970.1
97985.2
98001.1
98017.6
98034.2
98050.6
98066.8
98081.7
98095.6
98108.3
98119.6
98129.1
98136.3
98141
98143.9
98144.2
98142.8
98139.5
98134.8
98127.6
98119.1
98107.7
98095.7
98081
98066.5
98049
98033.5
98014.3
97998.3
98086.7
98086.9
98087
98087
98086.9
98086.7
98086.4
98085.9
98085.4
98084.8
98084
98083.2
98082.3
98081.3
98080.3
98079.2
98078
98076.8
98075.5
98074.2
98072.8
98071.3
98069.7
98068.1
98066.4
98064.6
98062.7
98060.8
98058.8
98056.7
98054.5
98052.3
98050
98047.6
98045.2
98042.7
98040.1
98037.5
98034.8
98032.1
98029.3
98026.5
98023.7
98020.9
98018
98015.2
98012.5
98009.8
98007.2
98004.6
98002.2
97999.8
97997.7
97995.7
97993.9
97992.3
97990.9
97989.7
97988.8
97988.2
97987.8
97987.7
97988
97988.4
97989.2
97990.3
97991.6
97993.3
97995.2
97997.4
97999.8
98002.5
98005.4
98008.4
98011.6
98014.9
98018.3
98021.8
98025.3
98028.8
98032.2
98035.6
98038.8
98041.9
98044.8
98047.5
98049.9
98052.2
98054.2
98055.9
98057.3
98058.4
98059.3
98059.8
98060.1
98060.1
98059.7
98059.1
98058.2
98057.1
98055.8
98054.2
98052.5
98050.6
98048.5
98046.3
98043.9
98041.4
98038.7
98035.8
98032.8
98029.7
98026.4
98022.8
98019
98014.9
98010.5
98005.8
98000.7
97995.2
97989.3
97982.8
97975.9
97968.4
97960.4
97951.9
97942.9
97933.4
97923.5
97913.4
97902.9
97892.3
97881.6
97871.1
97860.9
97851.1
97842.1
97834
97827
97821.2
97816.7
97813.8
97812.4
97812.7
97814.5
97818
97822.9
97829.5
97837.4
97846.7
97857.1
97868.6
97880.7
97893.5
97906.7
97920
97933
97945.5
97956.8
97966.9
97975.8
97983.4
97989.4
97993.3
97995.1
97995.5
97993.3
97990
97985.5
97980.3
97973.6
97966.3
97957
97947.7
97936.3
97926
97912.8
97902.5
97888.5
97878.7
98080.7
98081
98081.2
98081.3
98081.3
98081.2
98081.1
98080.9
98080.7
98080.4
98080.1
98079.7
98079.3
98078.8
98078.2
98077.6
98076.9
98076.1
98075.3
98074.3
98073.3
98072.2
98070.9
98069.6
98068.1
98066.5
98064.8
98063
98061.1
98059.1
98057
98054.8
98052.5
98050.1
98047.6
98045
98042.4
98039.6
98036.8
98034
98031.1
98028.1
98025.2
98022.2
98019.2
98016.3
98013.3
98010.5
98007.7
98005
98002.4
97999.9
97997.6
97995.4
97993.4
97991.7
97990.1
97988.8
97987.8
97986.9
97986.4
97986.1
97986.1
97986.3
97986.9
97987.7
97988.7
97990.1
97991.7
97993.5
97995.5
97997.8
98000.2
98002.8
98005.5
98008.2
98011.1
98013.9
98016.8
98019.6
98022.4
98025
98027.5
98029.8
98031.9
98033.8
98035.4
98036.8
98037.8
98038.6
98039.2
98039.4
98039.3
98038.9
98038.2
98037.3
98036
98034.4
98032.6
98030.5
98028.2
98025.7
98023.1
98020.3
98017.3
98014.2
98010.9
98007.5
98003.9
98000.2
97996.4
97992.3
97988.1
97983.7
97979
97974.1
97968.8
97963.3
97957.3
97951
97944.3
97937
97929.3
97921.1
97912.4
97903.2
97893.5
97883.3
97872.7
97861.7
97850.4
97838.9
97827.2
97815.6
97804.2
97793.2
97782.8
97773.3
97764.8
97757.3
97751.2
97746.5
97743.3
97741.6
97741.5
97742.8
97745.6
97749.9
97755.5
97762.3
97770.2
97779.2
97788.7
97798.6
97808.7
97818.8
97828.5
97837.5
97845.2
97851.8
97856.9
97860.8
97863.1
97863.6
97862.3
97860
97855.4
97849.9
97843.8
97837.6
97830.8
97824.2
97816.3
97809
97800.3
97793.4
97784
97778.2
97768.8
97764.5
98076.4
98076.7
98076.9
98077.1
98077.2
98077.4
98077.6
98077.8
98078
98078.2
98078.4
98078.5
98078.6
98078.7
98078.7
98078.5
98078.3
98078
98077.6
98077
98076.3
98075.5
98074.6
98073.5
98072.2
98070.8
98069.2
98067.5
98065.7
98063.7
98061.6
98059.3
98057
98054.5
98051.9
98049.2
98046.4
98043.6
98040.6
98037.6
98034.5
98031.4
98028.2
98025
98021.9
98018.7
98015.6
98012.6
98009.6
98006.7
98003.9
98001.3
97998.8
97996.5
97994.4
97992.5
97990.8
97989.4
97988.2
97987.2
97986.5
97986.1
97985.9
97986
97986.3
97986.9
97987.8
97988.9
97990.2
97991.7
97993.5
97995.4
97997.4
97999.6
98001.9
98004.2
98006.6
98009
98011.3
98013.5
98015.7
98017.7
98019.5
98021.1
98022.5
98023.7
98024.5
98025.1
98025.4
98025.4
98025.1
98024.5
98023.5
98022.3
98020.8
98018.9
98016.7
98014.3
98011.5
98008.6
98005.4
98002
97998.5
97994.8
97990.9
97986.9
97982.8
97978.5
97974
97969.4
97964.7
97959.8
97954.6
97949.3
97943.7
97937.9
97931.8
97925.5
97918.7
97911.6
97904.1
97896.1
97887.7
97878.8
97869.5
97859.7
97849.4
97838.6
97827.4
97815.8
97803.8
97791.5
97779.2
97766.7
97754.4
97742.4
97731.1
97720.5
97710.6
97701.9
97694.4
97688.3
97683.5
97680.2
97678.3
97677.9
97678.9
97681.3
97684.8
97689.4
97695.2
97701.9
97709
97716.2
97723.3
97730.1
97736.7
97742.5
97746.8
97749.9
97751.2
97751.4
97749.9
97747
97742.5
97737.4
97730.4
97722.7
97714.7
97707.3
97699.9
97693.5
97686.2
97680.6
97673.8
97669.7
97663.4
97661.7
97656.3
97656.9
98072.6
98072.8
98073
98073.2
98073.5
98074
98074.6
98075.4
98076.2
98077.1
98078
98078.9
98079.7
98080.4
98080.9
98081.4
98081.7
98081.8
98081.8
98081.6
98081.2
98080.7
98080
98079.1
98078
98076.7
98075.2
98073.6
98071.8
98069.8
98067.6
98065.3
98062.9
98060.3
98057.6
98054.8
98051.8
98048.8
98045.6
98042.4
98039.2
98035.8
98032.5
98029.1
98025.7
98022.4
98019.1
98015.8
98012.7
98009.6
98006.7
98004
98001.4
97998.9
97996.7
97994.7
97992.9
97991.3
97990
97989
97988.1
97987.6
97987.3
97987.2
97987.4
97987.9
97988.6
97989.5
97990.7
97992
97993.5
97995.2
97996.9
97998.8
98000.7
98002.7
98004.7
98006.6
98008.4
98010.2
98011.8
98013.3
98014.5
98015.5
98016.3
98016.8
98017
98016.9
98016.5
98015.8
98014.7
98013.3
98011.6
98009.5
98007.2
98004.5
98001.5
97998.3
97994.7
97990.9
97986.9
97982.6
97978.2
97973.7
97969
97964.1
97959.1
97954
97948.7
97943.2
97937.6
97931.8
97925.8
97919.5
97913.1
97906.5
97899.6
97892.4
97884.9
97877
97868.8
97860.1
97851.1
97841.7
97831.8
97821.5
97810.6
97799.4
97787.7
97775.7
97763.2
97750.4
97737.4
97724.4
97711.4
97698.8
97686.7
97675.2
97664.4
97654.6
97646
97638.6
97632.4
97627.8
97624.4
97622.6
97622
97622.8
97624.4
97627.2
97630.9
97635.5
97640.4
97645
97649.3
97653.2
97656.8
97659.4
97660.5
97660.2
97657.9
97654.4
97649.3
97642.9
97635.2
97627
97617.6
97607.8
97597.9
97589.2
97580.9
97574.2
97567.3
97562.8
97557.5
97555.5
97551.7
97553.4
97551.6
97556.6
98067.8
98067.8
98067.8
98068.2
98068.9
98070.2
98071.6
98073.4
98075.1
98077
98078.7
98080.4
98082
98083.3
98084.5
98085.5
98086.3
98086.8
98087.2
98087.3
98087.2
98086.9
98086.4
98085.7
98084.7
98083.5
98082.1
98080.5
98078.7
98076.6
98074.5
98072.1
98069.6
98066.9
98064
98061.1
98058
98054.8
98051.4
98048
98044.6
98041.1
98037.5
98034
98030.4
98026.9
98023.4
98020.1
98016.8
98013.6
98010.5
98007.6
98004.9
98002.4
98000.1
97998
97996.1
97994.5
97993.1
97991.9
97991
97990.4
97990
97989.9
97990
97990.4
97991
97991.8
97992.8
97993.9
97995.3
97996.7
97998.3
97999.9
98001.5
98003.1
98004.8
98006.3
98007.7
98009.1
98010.2
98011.2
98011.9
98012.4
98012.6
98012.5
98012.1
98011.4
98010.3
98008.9
98007.2
98005.1
98002.6
97999.8
97996.7
97993.3
97989.6
97985.6
97981.3
97976.7
97971.9
97966.9
97961.7
97956.3
97950.8
97945.1
97939.3
97933.4
97927.2
97920.9
97914.5
97907.8
97901
97894
97886.7
97879.3
97871.6
97863.7
97855.5
97847
97838.1
97828.9
97819.4
97809.4
97799.1
97788.3
97777.1
97765.5
97753.5
97741.1
97728.2
97715