/*--------------------------------*- C++ -*----------------------------------*\
| =========                 |                                                 |
| \\      /  F ield         | OpenFOAM: The Open Source CFD Toolbox           |
|  \\    /   O peration     | Version:  dev                                   |
|   \\  /    A nd           | Web:      http://www.openfoam.org               |
|    \\/     M anipulation  |                                                 |
\*---------------------------------------------------------------------------*/
FoamFile
{
    version     2.0;
    format      ascii;
    class       volScalarField;
    object      rho;
    location    "9.134";
}
// * * * * * * * * * * * * * * * * * * * * * * * * * * * * * * * * * * * * * //

dimensions      [1 -3 0 0 0 0 0];

internalField   nonuniform List<scalar> 
12225
(
1.23975
1.2372
1.23692
1.2359
1.23383
1.23156
1.22795
1.22448
1.21975
1.2153
1.20941
1.20414
1.19823
1.19271
1.18744
1.18301
1.17391
1.14829
1.23601
1.23823
1.24123
1.24192
1.23963
1.23819
1.23324
1.23027
1.2244
1.22049
1.21359
1.20961
1.20427
1.19984
1.19668
1.1896
1.17449
1.15631
1.23574
1.23949
1.24251
1.24453
1.24286
1.24283
1.23827
1.23614
1.23021
1.22651
1.21914
1.2151
1.20868
1.20292
1.19684
1.18463
1.17248
1.16095
1.23537
1.23948
1.24217
1.24418
1.24313
1.24288
1.23994
1.23749
1.23283
1.22888
1.22208
1.21796
1.21084
1.20529
1.19755
1.18768
1.17668
1.16569
1.23522
1.23836
1.24236
1.24273
1.24298
1.24088
1.23951
1.23638
1.2326
1.22822
1.22268
1.21765
1.21092
1.20517
1.19681
1.18805
1.17745
1.17053
1.23583
1.23754
1.24137
1.24141
1.24206
1.23951
1.23835
1.23457
1.23169
1.22631
1.22239
1.21683
1.2109
1.20437
1.19811
1.18838
1.17765
1.16996
1.23488
1.23567
1.24037
1.24086
1.24197
1.23837
1.23715
1.23334
1.23021
1.22546
1.22285
1.21568
1.2111
1.20339
1.19822
1.18989
1.17992
1.16842
1.2335
1.23411
1.23963
1.23964
1.24073
1.23673
1.23663
1.23222
1.2298
1.22546
1.22201
1.21423
1.21041
1.20206
1.19685
1.18915
1.18055
1.17014
1.23259
1.23286
1.23895
1.23828
1.23829
1.23532
1.23546
1.23134
1.22864
1.22321
1.21982
1.21285
1.2099
1.1986
1.19622
1.18622
1.18181
1.17412
1.23103
1.23085
1.23664
1.23567
1.2349
1.23322
1.23297
1.22987
1.22606
1.21974
1.21739
1.21128
1.20828
1.1981
1.19681
1.18528
1.18351
1.17603
1.22883
1.22883
1.23371
1.23259
1.23193
1.23076
1.2297
1.22668
1.22289
1.21738
1.21427
1.20874
1.20591
1.19738
1.19502
1.18519
1.18253
1.1757
1.22619
1.22564
1.23002
1.2287
1.22864
1.22691
1.2253
1.22217
1.21881
1.21399
1.21038
1.20551
1.20236
1.19575
1.19162
1.18359
1.18061
1.17478
1.22245
1.22185
1.2252
1.22382
1.2235
1.22139
1.21993
1.21658
1.21394
1.20931
1.2058
1.2012
1.19725
1.19244
1.18807
1.18114
1.17683
1.17239
1.21749
1.21675
1.21905
1.21804
1.21719
1.21505
1.21343
1.20999
1.20749
1.2033
1.19984
1.19563
1.19117
1.18712
1.18268
1.17726
1.17252
1.16818
1.21211
1.21049
1.21176
1.21084
1.20957
1.20756
1.20548
1.20228
1.19969
1.19586
1.19231
1.18846
1.18397
1.18019
1.17575
1.17155
1.16682
1.16289
1.20496
1.20285
1.20338
1.20245
1.20078
1.19878
1.1961
1.193
1.19035
1.18667
1.18337
1.17997
1.17602
1.17255
1.16833
1.16481
1.16037
1.15694
1.19681
1.19412
1.19432
1.19329
1.19109
1.18918
1.18623
1.18355
1.18082
1.17734
1.17443
1.17103
1.1675
1.16423
1.16026
1.15706
1.15297
1.14989
1.18815
1.18516
1.18534
1.18414
1.18174
1.18008
1.1774
1.17534
1.17267
1.16958
1.16669
1.16323
1.16003
1.15665
1.15309
1.15008
1.14632
1.14359
1.18069
1.17719
1.178
1.17679
1.17508
1.17366
1.17165
1.16954
1.16685
1.16415
1.16105
1.158
1.15494
1.15168
1.14862
1.14545
1.14226
1.13949
1.17482
1.17081
1.17222
1.1715
1.17059
1.16903
1.16739
1.16513
1.16287
1.1604
1.15759
1.1548
1.15174
1.1487
1.1457
1.14252
1.13973
1.13663
1.16978
1.16633
1.16807
1.16802
1.16747
1.16618
1.16462
1.16281
1.16076
1.15832
1.15586
1.15288
1.14999
1.14696
1.14397
1.14106
1.13822
1.1354
1.16617
1.16292
1.16486
1.16519
1.16505
1.16439
1.1632
1.16151
1.15947
1.15711
1.15456
1.15182
1.14901
1.14613
1.14324
1.14051
1.13761
1.13511
1.16327
1.16013
1.16277
1.16344
1.16354
1.16313
1.16204
1.16052
1.15873
1.15651
1.15414
1.1515
1.14869
1.14585
1.14294
1.14009
1.13728
1.13462
1.16118
1.15868
1.16141
1.16246
1.16279
1.16241
1.1615
1.16011
1.15822
1.15608
1.15368
1.15104
1.1484
1.14556
1.14281
1.13999
1.13726
1.13461
1.15994
1.15726
1.16033
1.1614
1.16161
1.16134
1.16053
1.15927
1.15758
1.15563
1.15323
1.15078
1.14802
1.1453
1.1425
1.13971
1.13703
1.13437
1.15873
1.15615
1.15941
1.16076
1.16137
1.16123
1.16051
1.15918
1.15747
1.15542
1.15309
1.15063
1.14792
1.14527
1.14244
1.13974
1.137
1.13436
1.15824
1.15556
1.15893
1.16013
1.16064
1.1606
1.16006
1.15891
1.15725
1.15516
1.15277
1.15014
1.14742
1.14463
1.14188
1.13913
1.13647
1.13393
1.15749
1.15504
1.1586
1.16005
1.16061
1.1605
1.15977
1.15837
1.1565
1.15418
1.15162
1.14882
1.14598
1.14309
1.1403
1.13752
1.13491
1.1324
1.15741
1.15484
1.15803
1.15912
1.15938
1.15891
1.15759
1.15558
1.15315
1.15045
1.14762
1.14472
1.14184
1.13901
1.13626
1.13357
1.13103
1.12867
1.16091
1.15565
1.15595
1.15531
1.15444
1.15316
1.15139
1.14932
1.14705
1.14461
1.14206
1.13944
1.1368
1.13417
1.13156
1.12904
1.12668
1.12452
1.06051
1.0858
1.10061
1.11024
1.11624
1.11976
1.12151
1.12253
1.12322
1.12354
1.12366
1.12325
1.12249
1.12219
1.12171
1.1204
1.11867
1.11685
1.11404
1.1106
1.10919
1.10868
1.10707
1.10489
1.10339
1.10139
1.0952
1.08609
1.07952
1.07758
1.07836
1.07998
1.08175
1.08358
1.0855
1.08759
1.08988
1.09239
1.0951
1.09799
1.10105
1.10428
1.10764
1.11114
1.11478
1.11852
1.12235
1.12622
1.13014
1.13413
1.13822
1.14248
1.14695
1.15171
1.15676
1.16205
1.16749
1.17309
1.17877
1.18449
1.19029
1.19608
1.20185
1.20765
1.2135
1.21929
1.2251
1.23092
1.23705
1.24342
1.25017
1.25722
1.26424
1.27112
1.27779
1.28426
1.29067
1.29716
1.30365
1.31001
1.31675
1.32382
1.33066
1.33697
1.34445
1.35327
1.36212
1.37167
1.38268
1.39608
1.40906
1.41948
1.41717
1.41457
1.42992
1.44909
1.4679
1.47956
1.4708
1.44458
1.4258
1.4152
1.4238
1.43889
1.44391
1.44852
1.44504
1.44231
1.44545
1.44627
1.4385
1.4185
1.39134
1.37205
1.36675
1.37274
1.38608
1.39934
1.36282
1.39375
1.4185
1.41969
1.41153
1.41762
1.43327
1.44866
1.45992
1.46581
1.47087
1.47945
1.49014
1.50013
1.50816
1.51818
1.52762
1.53798
1.54769
1.55875
1.56952
1.58205
1.59477
1.60838
1.62167
1.63469
1.64845
1.66467
1.68168
1.6972
1.71535
1.73368
1.7513
1.77032
1.78538
1.80239
1.84265
1.87349
1.85727
1.80396
1.73845
1.6767
1.63062
1.60843
1.60608
1.59592
1.57359
1.56677
1.56256
1.54561
1.52192
1.49637
1.47661
1.48107
1.45505
1.43424
1.41672
1.39789
1.38238
1.36159
1.34126
1.32362
1.05997
1.08803
1.10636
1.11842
1.12528
1.12813
1.12981
1.13128
1.13312
1.13392
1.13249
1.13012
1.12772
1.12753
1.13061
1.13171
1.13098
1.131
1.12934
1.13103
1.14455
1.15474
1.1356
1.10454
1.08639
1.07996
1.07817
1.07755
1.07797
1.07872
1.07982
1.08118
1.08277
1.08466
1.08684
1.08936
1.09218
1.09515
1.09842
1.10179
1.10533
1.109
1.11267
1.11645
1.12029
1.12399
1.12749
1.13078
1.13414
1.13779
1.14184
1.14641
1.15167
1.15763
1.16394
1.17022
1.17652
1.18268
1.18843
1.19404
1.19952
1.20485
1.21006
1.21544
1.22098
1.22651
1.23189
1.23706
1.24276
1.24916
1.25691
1.26595
1.27533
1.28514
1.29564
1.30498
1.31127
1.31622
1.32294
1.32975
1.33751
1.34771
1.35794
1.36783
1.38104
1.39758
1.41268
1.42257
1.42883
1.43683
1.44199
1.4603
1.4757
1.46621
1.48296
1.51474
1.5458
1.55846
1.50229
1.45719
1.45869
1.47478
1.49394
1.49302
1.4786
1.46271
1.45944
1.46214
1.46249
1.44671
1.41231
1.37049
1.33779
1.32788
1.32648
1.32067
1.30625
1.28654
1.29138
1.31721
1.35436
1.36443
1.34529
1.3395
1.37662
1.43166
1.46619
1.48475
1.50376
1.52674
1.54708
1.55952
1.56765
1.57867
1.58961
1.60269
1.61431
1.63021
1.64708
1.66124
1.67391
1.69086
1.70631
1.71741
1.73441
1.75835
1.78836
1.81985
1.85633
1.89764
1.93763
1.96728
1.97843
2.01833
2.12689
2.19857
2.15746
2.02719
1.83524
1.70826
1.65542
1.66239
1.66486
1.60827
1.59421
1.63667
1.63143
1.57681
1.5191
1.45682
1.44424
1.56225
1.46766
1.44192
1.42746
1.42655
1.43167
1.43204
1.41976
1.39575
1.055
1.07545
1.09026
1.10207
1.11019
1.11379
1.11878
1.12319
1.12504
1.12097
1.11281
1.10562
1.10246
1.10266
1.10436
1.10828
1.11507
1.12
1.11385
1.10058
1.0906
1.0817
1.07393
1.07035
1.06878
1.0684
1.06884
1.06962
1.07056
1.07172
1.07329
1.07494
1.07757
1.08102
1.08444
1.08826
1.09191
1.09538
1.09881
1.10243
1.10626
1.10961
1.11301
1.11639
1.12006
1.1235
1.12663
1.12946
1.13301
1.1372
1.14186
1.1469
1.15258
1.15834
1.16372
1.16807
1.1726
1.17729
1.18146
1.18572
1.19055
1.19596
1.20111
1.20709
1.21343
1.21941
1.22489
1.22989
1.23425
1.23846
1.24387
1.25105
1.25927
1.26828
1.28284
1.29782
1.30135
1.2995
1.30514
1.31322
1.32725
1.34
1.33782
1.33998
1.36625
1.39287
1.40362
1.40684
1.40742
1.40541
1.39436
1.39516
1.41855
1.44617
1.49379
1.53217
1.50379
1.45881
1.44634
1.45458
1.46812
1.48131
1.48653
1.47831
1.4611
1.44837
1.44477
1.43921
1.4347
1.41503
1.39458
1.37164
1.36089
1.36499
1.36411
1.34949
1.32447
1.30165
1.31572
1.33942
1.3186
1.32322
1.34558
1.32435
1.33446
1.38754
1.41256
1.41164
1.43061
1.47611
1.51225
1.52121
1.5258
1.53652
1.54262
1.55352
1.56751
1.58504
1.61102
1.63572
1.65407
1.66973
1.68073
1.68439
1.69369
1.7078
1.73415
1.76993
1.81335
1.86464
1.93948
1.98519
1.97426
2.04999
2.18524
2.17976
2.0431
1.88444
1.70756
1.62985
1.64206
1.6701
1.62408
1.56856
1.62329
1.65476
1.60755
1.53362
1.44444
1.39052
1.40612
1.53516
1.37574
1.34714
1.33336
1.32041
1.31511
1.37057
1.42858
1.43282
1.05312
1.07223
1.08845
1.10188
1.11056
1.1166
1.12456
1.12374
1.11622
1.10377
1.0973
1.09594
1.09359
1.0933
1.09395
1.08811
1.08761
1.08628
1.08219
1.07873
1.07548
1.07526
1.07484
1.07569
1.07732
1.07922
1.08089
1.08252
1.08567
1.08816
1.09032
1.09376
1.09637
1.09977
1.1036
1.107
1.1108
1.11423
1.11692
1.11945
1.12245
1.12554
1.12838
1.13088
1.13399
1.13735
1.14124
1.14471
1.14834
1.15272
1.15721
1.16137
1.16578
1.16956
1.17293
1.17584
1.179
1.1825
1.1872
1.19158
1.19619
1.20243
1.20771
1.21351
1.21933
1.22468
1.22934
1.23575
1.24379
1.24892
1.24973
1.2492
1.25211
1.25427
1.26323
1.28076
1.28221
1.27175
1.28085
1.29143
1.29948
1.31313
1.32017
1.31841
1.32755
1.35241
1.37419
1.39143
1.41095
1.41839
1.39855
1.39234
1.40689
1.44806
1.50668
1.50819
1.46415
1.44281
1.43905
1.44168
1.44532
1.454
1.46306
1.46401
1.4556
1.44724
1.43297
1.4239
1.41902
1.41134
1.41364
1.40446
1.40086
1.3996
1.39802
1.38688
1.35735
1.321
1.28193
1.3771
1.36072
1.36099
1.42771
1.41634
1.38973
1.39331
1.39783
1.39472
1.39699
1.43611
1.46961
1.46881
1.47047
1.48591
1.49212
1.49744
1.51052
1.52108
1.54562
1.58282
1.61003
1.62566
1.63355
1.62161
1.62276
1.62797
1.64977
1.69176
1.73576
1.76958
1.85704
1.9268
1.90795
2.00465
2.14858
2.08608
1.89868
1.76208
1.63284
1.59625
1.62558
1.63062
1.58238
1.57124
1.62132
1.5827
1.59158
1.54666
1.45889
1.45426
1.4703
1.45598
1.33522
1.30217
1.32369
1.29151
1.199
1.24734
1.34757
1.40628
1.05373
1.07525
1.09594
1.11171
1.12144
1.12719
1.11869
1.09887
1.09415
1.09466
1.09092
1.08446
1.08055
1.07513
1.07351
1.07782
1.07752
1.07599
1.07553
1.07517
1.0729
1.07547
1.07603
1.07809
1.0817
1.0832
1.08782
1.09051
1.09267
1.09644
1.09865
1.10181
1.10513
1.10779
1.1106
1.11273
1.11511
1.11655
1.11776
1.11926
1.12039
1.1223
1.12456
1.12656
1.12879
1.13144
1.13453
1.13777
1.14155
1.14553
1.15008
1.1545
1.15881
1.16287
1.16644
1.17096
1.17682
1.18053
1.1858
1.19075
1.19386
1.19741
1.20031
1.20323
1.20639
1.21067
1.21476
1.21827
1.22961
1.24384
1.2514
1.25166
1.25567
1.26401
1.26537
1.26836
1.27197
1.26411
1.26854
1.27759
1.28522
1.28988
1.28878
1.29594
1.30803
1.33486
1.35039
1.34497
1.36273
1.39113
1.37751
1.36891
1.4123
1.48017
1.50063
1.47373
1.44016
1.42502
1.42038
1.42167
1.4223
1.43375
1.44706
1.44456
1.43566
1.42683
1.41314
1.41339
1.40867
1.40504
1.41322
1.40825
1.41165
1.41175
1.40312
1.37695
1.33989
1.29639
1.26516
1.33595
1.40166
1.40576
1.45504
1.44303
1.39674
1.36515
1.39271
1.43926
1.44527
1.44846
1.44946
1.44095
1.44804
1.46813
1.47579
1.47397
1.48528
1.486
1.49271
1.52506
1.56034
1.57919
1.59202
1.56656
1.55497
1.55196
1.55887
1.59787
1.65171
1.68112
1.76718
1.8493
1.82122
1.91356
2.07705
2.01788
1.80679
1.68256
1.58342
1.55008
1.57335
1.57521
1.53359
1.54731
1.54868
1.50844
1.53879
1.53702
1.5098
1.45351
1.44212
1.38357
1.32301
1.2632
1.27793
1.35728
1.20278
1.19105
1.2566
1.33754
1.05671
1.08297
1.11037
1.12654
1.12717
1.11146
1.09304
1.08965
1.09045
1.07995
1.06822
1.07396
1.08024
1.08197
1.07605
1.07881
1.07736
1.0774
1.07669
1.07646
1.07842
1.08129
1.08579
1.08951
1.09554
1.09942
1.10152
1.10552
1.10737
1.1086
1.111
1.11129
1.1126
1.11351
1.11312
1.11278
1.1119
1.11054
1.10926
1.10944
1.1103
1.11117
1.11281
1.11469
1.11621
1.11838
1.12127
1.12375
1.12698
1.13079
1.13475
1.13877
1.14326
1.1486
1.15388
1.15896
1.16442
1.16905
1.17468
1.17915
1.18302
1.18565
1.18827
1.19001
1.19272
1.19637
1.2032
1.20553
1.20781
1.22143
1.23153
1.23048
1.23169
1.25074
1.27452
1.28297
1.28059
1.27438
1.27036
1.2647
1.27076
1.27868
1.2773
1.28583
1.30502
1.33831
1.33486
1.32214
1.36326
1.38975
1.36149
1.37144
1.43003
1.48167
1.48033
1.44388
1.41663
1.40454
1.40802
1.40687
1.40169
1.41768
1.41783
1.40508
1.39758
1.39827
1.39572
1.40405
1.39674
1.38821
1.39022
1.38958
1.39578
1.4005
1.39715
1.38294
1.37469
1.33917
1.27458
1.30628
1.40619
1.42935
1.44994
1.43046
1.36817
1.35175
1.4086
1.46519
1.47463
1.45553
1.4409
1.43419
1.4493
1.47662
1.47209
1.46056
1.48158
1.48047
1.46698
1.47944
1.50715
1.51866
1.54302
1.53285
1.51937
1.50274
1.49141
1.52041
1.56822
1.59386
1.68764
1.77965
1.73844
1.81
1.99193
1.9697
1.75395
1.61542
1.53017
1.50828
1.55416
1.55099
1.52096
1.55836
1.54205
1.52262
1.50236
1.51364
1.48722
1.4412
1.40798
1.37379
1.33379
1.3053
1.19877
1.35772
1.2929
1.22416
1.20907
1.27053
1.05941
1.0864
1.11374
1.12487
1.11767
1.09834
1.08048
1.0806
1.08499
1.08379
1.06708
1.06804
1.07421
1.0737
1.0763
1.07995
1.07782
1.07489
1.0771
1.07855
1.08556
1.09254
1.09871
1.1043
1.10597
1.10914
1.11033
1.11047
1.11128
1.11121
1.11294
1.11343
1.11486
1.11665
1.1173
1.11895
1.12044
1.12207
1.12298
1.1246
1.12613
1.12658
1.12724
1.12804
1.12886
1.13035
1.13217
1.13393
1.13609
1.13848
1.14115
1.14348
1.14562
1.14895
1.15339
1.15916
1.1643
1.16998
1.17587
1.18111
1.18586
1.18901
1.19281
1.19552
1.19813
1.19961
1.20222
1.21028
1.20563
1.21045
1.22515
1.22346
1.21676
1.23027
1.25768
1.27079
1.26387
1.25873
1.25945
1.26021
1.26157
1.26009
1.2693
1.29267
1.31424
1.33061
1.31059
1.31341
1.3519
1.34263
1.31805
1.36035
1.42705
1.46642
1.46583
1.43422
1.40288
1.39471
1.40754
1.4022
1.39944
1.41284
1.40435
1.39303
1.3873
1.38088
1.37238
1.37805
1.36661
1.35522
1.34443
1.34183
1.33993
1.34455
1.35001
1.35492
1.34904
1.32055
1.25696
1.29582
1.3746
1.42763
1.4201
1.41424
1.39533
1.40429
1.42924
1.44421
1.4382
1.42828
1.42247
1.41024
1.4288
1.46274
1.42636
1.3964
1.43814
1.45097
1.43071
1.42923
1.45478
1.44937
1.46489
1.48087
1.49555
1.47704
1.44898
1.47065
1.49741
1.50796
1.61131
1.71067
1.65841
1.70878
1.89952
1.92705
1.72974
1.57084
1.49427
1.49909
1.55534
1.56067
1.57112
1.59661
1.60679
1.59566
1.5634
1.52087
1.47905
1.49658
1.42283
1.37827
1.30167
1.32986
1.25375
1.30858
1.35527
1.26979
1.20999
1.25063
1.06167
1.08787
1.11354
1.12036
1.10956
1.09051
1.07962
1.08318
1.08056
1.08421
1.08584
1.082
1.09206
1.08599
1.08212
1.07784
1.076
1.08206
1.0913
1.10057
1.10872
1.1122
1.11126
1.11223
1.10968
1.10693
1.1038
1.1014
1.1027
1.10256
1.10325
1.10479
1.10558
1.10699
1.10865
1.11067
1.11271
1.11517
1.11715
1.12026
1.12331
1.12581
1.12869
1.13142
1.13342
1.1353
1.13671
1.13795
1.13974
1.1414
1.1439
1.14595
1.1473
1.14878
1.15034
1.15345
1.15631
1.16178
1.16555
1.17004
1.17395
1.17611
1.1788
1.18289
1.18546
1.19379
1.19222
1.20182
1.20239
1.19589
1.21444
1.22764
1.21935
1.22383
1.24211
1.24404
1.23602
1.2359
1.24147
1.25189
1.25071
1.23425
1.24473
1.27706
1.29347
1.29543
1.29485
1.31909
1.33627
1.31935
1.32298
1.37712
1.43
1.44526
1.44233
1.41373
1.38162
1.38538
1.40787
1.39262
1.38673
1.38149
1.37769
1.37349
1.36431
1.34632
1.3394
1.3502
1.34886
1.35361
1.33896
1.33278
1.32086
1.31777
1.31495
1.32868
1.3438
1.33691
1.26849
1.27562
1.3376
1.41445
1.39282
1.37872
1.40391
1.41837
1.40821
1.41387
1.40646
1.41428
1.40442
1.38188
1.40917
1.44177
1.37254
1.32938
1.37493
1.38535
1.36137
1.36329
1.40753
1.39609
1.39115
1.41575
1.45847
1.44685
1.41169
1.43595
1.44111
1.43238
1.54405
1.64867
1.58644
1.61464
1.79984
1.88084
1.73081
1.56002
1.48928
1.51344
1.54557
1.54682
1.58738
1.63006
1.66927
1.66422
1.63544
1.59767
1.57201
1.53708
1.44294
1.38928
1.27793
1.22867
1.31026
1.32253
1.35875
1.26401
1.22509
1.2602
1.0647
1.09132
1.11665
1.11778
1.10718
1.09625
1.08267
1.0847
1.08556
1.08584
1.09595
1.09134
1.08854
1.08233
1.08362
1.09475
1.10079
1.1073
1.11055
1.10971
1.109
1.10967
1.10782
1.10571
1.10289
1.10323
1.10746
1.11016
1.11368
1.11692
1.11882
1.12081
1.1218
1.12342
1.1256
1.12636
1.12693
1.12837
1.12895
1.12994
1.13142
1.13319
1.1352
1.13742
1.13932
1.14152
1.14377
1.14601
1.14903
1.15094
1.15333
1.15448
1.15533
1.15516
1.15486
1.15427
1.15525
1.1569
1.15929
1.16206
1.16699
1.17124
1.17362
1.18232
1.18025
1.18821
1.18895
1.19401
1.2045
1.19128
1.19387
1.21498
1.21356
1.2099
1.2247
1.23429
1.23313
1.23419
1.23871
1.24226
1.23742
1.2169
1.21481
1.24516
1.27926
1.29487
1.31111
1.33314
1.32263
1.31592
1.34834
1.39891
1.42848
1.41973
1.40822
1.38509
1.36748
1.39113
1.40847
1.38483
1.36233
1.33831
1.33916
1.33961
1.3275
1.31269
1.31478
1.32178
1.32101
1.3363
1.33076
1.32755
1.31853
1.30761
1.29628
1.28727
1.30952
1.31861
1.26387
1.24646
1.29565
1.37223
1.35396
1.32291
1.32532
1.35894
1.37333
1.39713
1.41627
1.42447
1.38312
1.35911
1.38703
1.38711
1.30572
1.28584
1.32606
1.31462
1.28511
1.29562
1.35422
1.33654
1.31365
1.34101
1.40055
1.39322
1.36203
1.39956
1.3923
1.36733
1.48376
1.58943
1.52256
1.53065
1.69846
1.82144
1.74037
1.57766
1.50803
1.53783
1.52638
1.49576
1.60743
1.62632
1.67319
1.69763
1.66537
1.67562
1.64065
1.54269
1.44493
1.38646
1.34732
1.24035
1.31599
1.35232
1.34587
1.2596
1.24742
1.25852
1.06653
1.08969
1.11595
1.12398
1.11077
1.10446
1.09024
1.08715
1.09546
1.09347
1.08849
1.08489
1.09293
1.10274
1.10262
1.10013
1.09497
1.09609
1.10293
1.11018
1.11349
1.11259
1.11172
1.11304
1.11604
1.11736
1.11816
1.11854
1.11903
1.11976
1.12019
1.1221
1.12462
1.12638
1.12891
1.13137
1.13339
1.13587
1.13832
1.14108
1.14415
1.14772
1.15113
1.15441
1.15763
1.16038
1.16329
1.16536
1.16822
1.16952
1.17086
1.17112
1.17265
1.17119
1.17072
1.16767
1.16574
1.1651
1.16539
1.16553
1.16867
1.17434
1.17081
1.17834
1.18166
1.18547
1.18909
1.18516
1.19797
1.1979
1.19099
1.20486
1.20331
1.19419
1.20804
1.23057
1.23343
1.22599
1.22324
1.22436
1.22636
1.21797
1.20776
1.22353
1.28064
1.31865
1.30828
1.29077
1.28292
1.31421
1.36122
1.40016
1.41472
1.40136
1.38495
1.36949
1.36961
1.39379
1.38626
1.35082
1.31844
1.30031
1.31538
1.31472
1.31038
1.31299
1.31427
1.30277
1.2933
1.30354
1.30753
1.31138
1.31476
1.30621
1.29777
1.2712
1.26934
1.31074
1.26007
1.22096
1.24242
1.33141
1.32134
1.31879
1.30927
1.33949
1.36537
1.37805
1.41602
1.40264
1.34327
1.32448
1.32207
1.28379
1.23291
1.25399
1.27704
1.25281
1.24096
1.26117
1.30826
1.27364
1.24114
1.27388
1.33458
1.3233
1.30434
1.35887
1.34452
1.31233
1.43386
1.53541
1.46864
1.46026
1.60375
1.74357
1.73525
1.60748
1.54003
1.57388
1.53229
1.45428
1.55447
1.61485
1.67118
1.70421
1.65871
1.65198
1.67221
1.60671
1.48604
1.35485
1.33279
1.27095
1.31997
1.34427
1.33409
1.27387
1.28741
1.25934
1.06865
1.08774
1.11088
1.12833
1.11585
1.10657
1.10484
1.09327
1.08663
1.08474
1.09443
1.10931
1.11109
1.09924
1.09027
1.09723
1.1074
1.1142
1.11883
1.11813
1.11417
1.10716
1.10175
1.09903
1.09926
1.10332
1.10906
1.11305
1.11485
1.11729
1.12055
1.12401
1.12739
1.12853
1.1283
1.12765
1.12674
1.1263
1.1264
1.1274
1.12968
1.13328
1.1373
1.14128
1.14517
1.14893
1.15397
1.15939
1.16536
1.17074
1.17538
1.17779
1.18169
1.18495
1.18284
1.18111
1.17535
1.16997
1.16851
1.16586
1.16268
1.1682
1.17068
1.16891
1.17245
1.17144
1.18098
1.18124
1.18256
1.18375
1.17767
1.19537
1.20609
1.19389
1.19363
1.20973
1.2139
1.20881
1.21231
1.22038
1.21781
1.20817
1.21274
1.21711
1.26329
1.32041
1.30748
1.27234
1.27183
1.3227
1.36725
1.3946
1.39909
1.39016
1.37793
1.36585
1.36926
1.37348
1.34288
1.31063
1.29251
1.3017
1.32261
1.31845
1.32798
1.33453
1.33059
1.31778
1.31035
1.30874
1.30492
1.3067
1.3122
1.30891
1.29995
1.28004
1.24747
1.28985
1.26613
1.19669
1.19486
1.29937
1.29539
1.30766
1.32551
1.34591
1.36821
1.3613
1.36386
1.33206
1.29103
1.2617
1.22416
1.19287
1.18562
1.21766
1.21547
1.20358
1.22459
1.25287
1.27299
1.22956
1.20206
1.23958
1.2851
1.25658
1.24964
1.31934
1.29707
1.26442
1.39165
1.48634
1.42088
1.40196
1.52127
1.65571
1.70881
1.62873
1.57456
1.60095
1.53251
1.43913
1.50211
1.59166
1.61803
1.68981
1.66313
1.60506
1.63583
1.61533
1.50344
1.38043
1.322
1.2499
1.29986
1.31064
1.30829
1.28927
1.32363
1.26006
1.07144
1.08697
1.10522
1.12909
1.12984
1.11113
1.09948
1.09401
1.09734
1.11023
1.11548
1.10206
1.09511
1.11276
1.12072
1.1105
1.10574
1.10996
1.11783
1.12002
1.1175
1.11373
1.11361
1.11639
1.11744
1.11652
1.1162
1.11779
1.12026
1.12371
1.12717
1.12761
1.1254
1.12227
1.12038
1.12058
1.12232
1.12494
1.12827
1.13256
1.13732
1.14199
1.14601
1.14839
1.14712
1.14577
1.14549
1.14811
1.15012
1.15404
1.15686
1.16322
1.17053
1.18148
1.19024
1.19168
1.19248
1.18542
1.17528
1.1716
1.16921
1.16375
1.16877
1.16919
1.17576
1.17386
1.17539
1.17846
1.18213
1.1866
1.17445
1.17781
1.19747
1.19312
1.18304
1.19027
1.20092
1.20358
1.20747
1.21332
1.21076
1.18883
1.19206
1.19442
1.21978
1.29408
1.31114
1.2749
1.26809
1.32236
1.36277
1.37877
1.38482
1.38392
1.383
1.37049
1.36396
1.34577
1.30811
1.29154
1.29103
1.30719
1.31174
1.3028
1.30835
1.2966
1.29259
1.29162
1.29781
1.30281
1.30568
1.31275
1.30959
1.30134
1.29006
1.27814
1.23375
1.25259
1.2604
1.18947
1.18935
1.28027
1.26258
1.2563
1.28455
1.3384
1.36839
1.35934
1.33021
1.28847
1.24162
1.19647
1.16351
1.16134
1.17282
1.18303
1.18251
1.21023
1.23803
1.25478
1.24959
1.22002
1.20117
1.23261
1.24591
1.19424
1.20119
1.28333
1.25341
1.22322
1.35431
1.44168
1.37789
1.35184
1.45038
1.56676
1.65496
1.62714
1.59064
1.60409
1.5087
1.4196
1.47065
1.54605
1.54072
1.60739
1.63442
1.57647
1.598
1.57874
1.48573
1.36497
1.35087
1.27979
1.29178
1.27554
1.28518
1.30349
1.3172
1.23485
1.07521
1.08896
1.1052
1.12812
1.14121
1.13944
1.13078
1.11852
1.10086
1.08058
1.07602
1.10553
1.13473
1.13078
1.11853
1.11337
1.11454
1.11779
1.12158
1.12285
1.11944
1.11475
1.11358
1.11637
1.12102
1.12451
1.1261
1.12637
1.12643
1.12628
1.12501
1.12187
1.11951
1.1204
1.12465
1.13042
1.1364
1.14097
1.14355
1.14502
1.14493
1.1449
1.14709
1.15212
1.15195
1.14937
1.14822
1.15476
1.16245
1.16551
1.16287
1.15468
1.15714
1.163
1.17432
1.18482
1.18592
1.18578
1.17976
1.16699
1.16519
1.16248
1.16422
1.16386
1.16317
1.16526
1.16796
1.16873
1.16695
1.1777
1.18294
1.17146
1.18109
1.18584
1.1777
1.17992
1.19169
1.1948
1.19354
1.19334
1.20031
1.18322
1.18382
1.19466
1.2035
1.26947
1.31351
1.28665
1.26568
1.31401
1.35471
1.35888
1.36958
1.37576
1.38687
1.37357
1.35785
1.32843
1.29488
1.28261
1.28244
1.29037
1.28376
1.27339
1.26762
1.2443
1.24393
1.23888
1.24082
1.2483
1.2648
1.29095
1.30924
1.30409
1.28783
1.27883
1.23552
1.23022
1.25072
1.18653
1.18647
1.28233
1.22049
1.20792
1.22963
1.28358
1.3152
1.31245
1.28443
1.22041
1.16803
1.14418
1.14453
1.15636
1.18669
1.19379
1.22632
1.28583
1.28418
1.2851
1.27224
1.26543
1.23378
1.23573
1.20905
1.14022
1.15517
1.24843
1.21378
1.1842
1.31947
1.40333
1.33877
1.31118
1.38528
1.49257
1.59327
1.60721
1.58136
1.57899
1.47261
1.40546
1.44656
1.50558
1.45875
1.47987
1.54229
1.53082
1.56197
1.57801
1.48461
1.35251
1.31818
1.28531
1.27793
1.2599
1.27006
1.30428
1.27215
1.21459
1.08085
1.09566
1.10746
1.1157
1.11779
1.12112
1.12544
1.13061
1.13301
1.13547
1.12417
1.09272
1.09056
1.11765
1.13466
1.13074
1.12239
1.11859
1.12023
1.128
1.13564
1.138
1.13537
1.13043
1.12494
1.12025
1.11766
1.11689
1.11757
1.11889
1.12101
1.12329
1.12595
1.12949
1.13326
1.1362
1.13908
1.1422
1.1437
1.14528
1.14568
1.14333
1.14163
1.14491
1.14929
1.14613
1.14335
1.14149
1.14984
1.15519
1.15954
1.15781
1.15314
1.15815
1.16321
1.17385
1.18326
1.18031
1.1758
1.16541
1.15868
1.15797
1.15517
1.15937
1.16113
1.16426
1.16286
1.16782
1.16886
1.16055
1.17611
1.16954
1.16848
1.17941
1.18029
1.17409
1.17775
1.17989
1.18118
1.1846
1.19228
1.17478
1.16784
1.18241
1.19103
1.24187
1.30296
1.2961
1.26366
1.30266
1.34318
1.34162
1.34808
1.35674
1.37059
1.35918
1.33943
1.30908
1.27917
1.26996
1.26985
1.27205
1.26169
1.25698
1.2531
1.22836
1.22254
1.21431
1.20576
1.20606
1.21263
1.22447
1.26695
1.29344
1.27407
1.2642
1.23392
1.204
1.23874
1.19089
1.16669
1.25403
1.17067
1.1566
1.18021
1.20448
1.23731
1.22559
1.18559
1.13421
1.11372
1.12347
1.14054
1.17184
1.23806
1.29011
1.32063
1.38194
1.36188
1.37961
1.37839
1.37012
1.29449
1.24081
1.18104
1.11108
1.11653
1.21545
1.18357
1.14718
1.27989
1.36563
1.30348
1.27536
1.32321
1.43591
1.53503
1.57008
1.55238
1.52683
1.43345
1.39169
1.41776
1.45346
1.39641
1.3781
1.43413
1.47286
1.51439
1.54476
1.45319
1.36341
1.31483
1.29865
1.2585
1.2455
1.26136
1.29507
1.23203
1.2071
1.08609
1.10264
1.10955
1.10249
1.09796
1.09754
1.09716
1.09752
1.10428
1.11001
1.12358
1.14016
1.11969
1.10035
1.11029
1.12661
1.13209
1.1298
1.12732
1.13099
1.13803
1.14275
1.14339
1.14033
1.13645
1.13333
1.13125
1.13027
1.131
1.13311
1.13523
1.13551
1.13568
1.13793
1.14148
1.14315
1.14284
1.1432
1.14355
1.14379
1.14666
1.14509
1.14317
1.14163
1.1459
1.14636
1.15052
1.15759
1.15967
1.15634
1.14824
1.14883
1.15139
1.15881
1.16671
1.17177
1.17695
1.1703
1.15985
1.15388
1.14777
1.15233
1.15217
1.15522
1.15266
1.15676
1.15878
1.15585
1.1709
1.16198
1.16876
1.17339
1.16339
1.16735
1.17351
1.164
1.16528
1.17279
1.17477
1.17568
1.18215
1.17184
1.15932
1.16489
1.17952
1.21721
1.28599
1.29893
1.26477
1.28995
1.33044
1.32865
1.32966
1.33089
1.33519
1.32263
1.30734
1.28022
1.25326
1.24568
1.25081
1.25292
1.24167
1.22822
1.22455
1.20394
1.19785
1.19373
1.18768
1.19589
1.20585
1.19956
1.21786
1.26407
1.26501
1.25665
1.22594
1.18321
1.21136
1.19253
1.13755
1.20935
1.15185
1.1183
1.13238
1.12442
1.14368
1.13612
1.10763
1.08898
1.09047
1.12803
1.16476
1.2434
1.32237
1.41431
1.38024
1.45963
1.46992
1.49732
1.49393
1.46683
1.35864
1.25099
1.18181
1.12491
1.09625
1.18215
1.16167
1.11468
1.23681
1.32893
1.27742
1.24029
1.2665
1.39014
1.49032
1.52804
1.50297
1.46722
1.39782
1.36807
1.38219
1.39532
1.37469
1.33671
1.34719
1.40488
1.47206
1.52793
1.43833
1.33441
1.28956
1.30852
1.26071
1.23653
1.25567
1.28523
1.2272
1.22578
1.0899
1.10358
1.11302
1.10746
1.10081
1.09777
1.0984
1.10066
1.09867
1.10164
1.09688
1.11257
1.13503
1.12553
1.10926
1.11782
1.13756
1.14564
1.13872
1.12697
1.12117
1.12348
1.12866
1.13397
1.13788
1.13973
1.13924
1.13766
1.1365
1.13565
1.13436
1.13426
1.13477
1.13458
1.13455
1.13478
1.13899
1.14386
1.14586
1.14526
1.14855
1.14897
1.14517
1.14897
1.15665
1.15497
1.1396
1.14076
1.15762
1.17152
1.1649
1.15274
1.14707
1.15013
1.16577
1.17747
1.17826
1.16992
1.15467
1.15019
1.14885
1.15066
1.14865
1.15143
1.15416
1.14905
1.15724
1.14971
1.15489
1.15756
1.15216
1.16488
1.15782
1.15466
1.16214
1.16198
1.1583
1.16162
1.16266
1.16294
1.17026
1.16903
1.15662
1.14982
1.16414
1.19274
1.26375
1.29529
1.26926
1.27353
1.31825
1.31667
1.31535
1.31243
1.30406
1.2891
1.27934
1.26263
1.24094
1.22851
1.23222
1.2355
1.22764
1.20165
1.19306
1.17496
1.16059
1.14935
1.14523
1.15684
1.18168
1.19133
1.1935
1.22776
1.245
1.24523
1.23198
1.18324
1.19114
1.19741
1.10621
1.18188
1.15552
1.09169
1.10824
1.07686
1.07888
1.07773
1.06885
1.07721
1.10282
1.1774
1.24721
1.34043
1.39293
1.48343
1.41116
1.51199
1.54258
1.49858
1.47404
1.4892
1.41182
1.2754
1.22474
1.18366
1.1065
1.15821
1.14621
1.0854
1.19236
1.28866
1.25843
1.20818
1.21749
1.34767
1.44991
1.48376
1.45346
1.40798
1.35924
1.34115
1.34824
1.3538
1.37344
1.34265
1.29284
1.3529
1.42965
1.51575
1.42417
1.33471
1.25764
1.28679
1.25827
1.22502
1.23755
1.28337
1.25286
1.23417
1.09494
1.10391
1.10768
1.10666
1.10412
1.10522
1.10325
1.10593
1.10758
1.10965
1.1094
1.10013
1.11084
1.13097
1.12649
1.11341
1.1136
1.12446
1.13409
1.13757
1.14007
1.14084
1.14203
1.14187
1.13899
1.13652
1.13344
1.13163
1.12979
1.13068
1.13214
1.13282
1.13713
1.14092
1.1429
1.14434
1.14664
1.14848
1.14631
1.14594
1.14436
1.14297
1.13935
1.13891
1.13893
1.14146
1.14038
1.13821
1.14631
1.16184
1.17138
1.16294
1.15623
1.15831
1.16776
1.17643
1.17202
1.16154
1.15182
1.147
1.14848
1.14774
1.1507
1.14453
1.14982
1.14737
1.14792
1.15198
1.14837
1.15852
1.15114
1.15308
1.1483
1.14633
1.14818
1.15406
1.15014
1.15307
1.15585
1.15453
1.16159
1.16505
1.15556
1.13868
1.14345
1.16832
1.23335
1.28231
1.27365
1.25928
1.30118
1.30724
1.3023
1.29911
1.28556
1.26753
1.25942
1.25212
1.23701
1.22374
1.2207
1.22028
1.21591
1.19469
1.18583
1.17608
1.16017
1.14394
1.12519
1.11105
1.13557
1.16715
1.17265
1.20407
1.2261
1.2246
1.21735
1.17254
1.16303
1.19754
1.11247
1.15174
1.1576
1.07794
1.11076
1.07856
1.06219
1.0653
1.07114
1.09394
1.14677
1.24623
1.32628
1.37619
1.41018
1.48871
1.40273
1.47107
1.4974
1.38145
1.3521
1.44972
1.46034
1.34217
1.3088
1.26
1.14037
1.14902
1.13751
1.06076
1.14649
1.24482
1.24408
1.17948
1.17527
1.31033
1.41345
1.44205
1.40805
1.35579
1.3168
1.30048
1.3201
1.33495
1.37473
1.3664
1.26537
1.31174
1.39683
1.49406
1.38633
1.31185
1.23455
1.26368
1.25769
1.21064
1.21098
1.26548
1.25067
1.2225
1.10195
1.11383
1.11906
1.1215
1.1251
1.12677
1.12418
1.12321
1.12239
1.11599
1.11535
1.10495
1.10397
1.11792
1.1196
1.11376
1.12268
1.1378
1.14342
1.1431
1.13956
1.13832
1.14064
1.13949
1.14025
1.13891
1.13839
1.13948
1.1379
1.14019
1.14372
1.14318
1.14336
1.14514
1.14272
1.14124
1.13903
1.13813
1.13725
1.13251
1.13071
1.13211
1.13705
1.13606
1.14027
1.14613
1.15315
1.15275
1.15837
1.16991
1.17496
1.1689
1.16261
1.16995
1.18556
1.19072
1.18112
1.16427
1.1575
1.15208
1.15085
1.14533
1.14136
1.14226
1.13511
1.14023
1.13705
1.1436
1.14069
1.14249
1.14418
1.14609
1.14935
1.14784
1.14337
1.14849
1.14643
1.14461
1.14655
1.14309
1.14948
1.15672
1.15759
1.13827
1.1277
1.1491
1.19945
1.26093
1.27092