/*--------------------------------*- C++ -*----------------------------------*\
| =========                 |                                                 |
| \\      /  F ield         | OpenFOAM: The Open Source CFD Toolbox           |
|  \\    /   O peration     | Version:  dev                                   |
|   \\  /    A nd           | Web:      http://www.openfoam.org               |
|    \\/     M anipulation  |                                                 |
\*---------------------------------------------------------------------------*/
FoamFile
{
    version     2.0;
    format      ascii;
    class       volScalarField;
    object      rho_0;
    location    "9.134";
}
// * * * * * * * * * * * * * * * * * * * * * * * * * * * * * * * * * * * * * //

dimensions      [1 -3 0 0 0 0 0];

internalField   nonuniform List<scalar> 
12225
(
1.21036
1.21033
1.21053
1.20965
1.20772
1.20568
1.20233
1.19921
1.19489
1.19091
1.18549
1.18076
1.1755
1.17076
1.16647
1.16241
1.15133
1.12962
1.20816
1.21318
1.21625
1.21702
1.21497
1.21379
1.20923
1.20662
1.20122
1.19769
1.1913
1.18776
1.18297
1.17924
1.17685
1.16914
1.15292
1.13763
1.20808
1.21462
1.21773
1.21982
1.21837
1.21857
1.21434
1.21256
1.20704
1.20374
1.19684
1.19319
1.18726
1.18199
1.17644
1.16422
1.15248
1.1427
1.20784
1.21485
1.2176
1.21977
1.21891
1.219
1.21631
1.21423
1.20994
1.20637
1.2
1.19633
1.18966
1.1846
1.17744
1.16723
1.15711
1.14761
1.20816
1.21408
1.21812
1.21869
1.2191
1.2174
1.2163
1.21356
1.21011
1.20619
1.20097
1.19643
1.19013
1.18494
1.17685
1.16829
1.1589
1.15258
1.20911
1.21372
1.2176
1.21782
1.21864
1.21647
1.21561
1.21224
1.20969
1.20477
1.20117
1.19609
1.1905
1.18473
1.17847
1.16879
1.15926
1.15246
1.20892
1.21254
1.21729
1.21795
1.21917
1.21595
1.21503
1.21161
1.20884
1.2045
1.20218
1.19556
1.1913
1.18434
1.17963
1.17134
1.16129
1.15183
1.20834
1.21172
1.21727
1.21749
1.21877
1.2151
1.21523
1.21118
1.20917
1.20524
1.20211
1.19484
1.19133
1.18385
1.17902
1.17193
1.16253
1.15391
1.20811
1.21129
1.21744
1.21695
1.21727
1.21453
1.21495
1.21105
1.20882
1.20392
1.20085
1.19426
1.19141
1.181
1.17888
1.16974
1.16489
1.15805
1.20765
1.21033
1.2163
1.21545
1.215
1.21356
1.21365
1.21069
1.20725
1.20145
1.19951
1.19371
1.19085
1.18116
1.18028
1.16933
1.16773
1.16037
1.20695
1.20968
1.21476
1.21379
1.21339
1.21252
1.21179
1.20899
1.20547
1.20029
1.19765
1.1925
1.18987
1.18159
1.17978
1.1702
1.16807
1.16129
1.20598
1.20832
1.21293
1.21179
1.21196
1.21053
1.20918
1.20631
1.20316
1.19863
1.1954
1.19089
1.18805
1.18154
1.17785
1.17013
1.16771
1.1619
1.20467
1.20686
1.21049
1.20926
1.20921
1.20736
1.2061
1.203
1.20052
1.19613
1.19292
1.1886
1.18502
1.18036
1.17618
1.16947
1.16573
1.16146
1.20284
1.20476
1.20735
1.20646
1.20585
1.2039
1.20246
1.1992
1.19688
1.19284
1.18962
1.18557
1.1814
1.17754
1.17326
1.16793
1.16353
1.15945
1.20122
1.20218
1.20374
1.20293
1.20185
1.19997
1.19804
1.19494
1.19246
1.18871
1.18529
1.1815
1.17716
1.17351
1.1692
1.16502
1.16047
1.15672
1.19877
1.19899
1.19978
1.19894
1.19738
1.19542
1.19279
1.18971
1.18706
1.18337
1.18009
1.17666
1.17271
1.16925
1.16505
1.16152
1.15712
1.15375
1.19594
1.19545
1.19586
1.19484
1.19267
1.19068
1.18764
1.18484
1.18197
1.17835
1.17532
1.17179
1.16814
1.16475
1.16068
1.15739
1.15321
1.15008
1.19311
1.19191
1.19217
1.19087
1.18835
1.1865
1.18357
1.18128
1.17832
1.17495
1.17179
1.16805
1.16461
1.16098
1.1572
1.15398
1.15002
1.14714
1.19027
1.18857
1.18939
1.18797
1.186
1.18432
1.18193
1.17946
1.17637
1.17326
1.16976
1.1663
1.16288
1.15927
1.15587
1.1524
1.14891
1.14589
1.18829
1.18581
1.18723
1.18619
1.18493
1.18299
1.18091
1.17817
1.17543
1.17244
1.16913
1.16585
1.16232
1.15884
1.15542
1.15186
1.1487
1.14528
1.18625
1.18415
1.18588
1.18545
1.18447
1.18269
1.18062
1.17826
1.17565
1.17264
1.16959
1.16604
1.16262
1.15907
1.15561
1.15224
1.14899
1.14578
1.18494
1.18289
1.18478
1.18471
1.18411
1.18291
1.18113
1.17882
1.17615
1.17316
1.16998
1.16661
1.16321
1.15976
1.15636
1.15312
1.14977
1.14683
1.18374
1.1817
1.18427
1.18449
1.18412
1.18313
1.18142
1.17926
1.17679
1.17388
1.17084
1.16753
1.16407
1.16064
1.15715
1.15378
1.15048
1.14737
1.18291
1.18143
1.18409
1.1847
1.18452
1.18354
1.18198
1.17989
1.1773
1.17444
1.17133
1.168
1.1647
1.16121
1.15787
1.1545
1.15124
1.14812
1.18252
1.18088
1.18387
1.18446
1.18414
1.18326
1.18178
1.17981
1.1774
1.1747
1.17157
1.16839
1.16494
1.16157
1.15815
1.15479
1.15158
1.14842
1.18194
1.18037
1.18356
1.18444
1.18449
1.18372
1.18229
1.18023
1.17778
1.17497
1.1719
1.16871
1.1653
1.16199
1.15853
1.15524
1.15195
1.14881
1.18192
1.18018
1.18347
1.18418
1.18415
1.18348
1.18224
1.18034
1.17792
1.17506
1.1719
1.16855
1.16512
1.16166
1.15828
1.15494
1.15173
1.14867
1.18146
1.17994
1.18343
1.18436
1.18437
1.18361
1.18219
1.18005
1.17742
1.17432
1.171
1.16746
1.16391
1.16035
1.15693
1.15355
1.15039
1.14736
1.18152
1.17984
1.18298
1.18358
1.18327
1.18215
1.18011
1.17735
1.17414
1.17066
1.16708
1.16344
1.15985
1.15635
1.15296
1.14967
1.14658
1.14371
1.18515
1.18018
1.18036
1.17928
1.17787
1.17594
1.17348
1.17069
1.16767
1.16449
1.16122
1.1579
1.15458
1.15131
1.1481
1.14501
1.14213
1.13947
1.05298
1.0779
1.09266
1.10231
1.10838
1.11202
1.11391
1.11508
1.11596
1.11648
1.11684
1.11669
1.1162
1.1162
1.11604
1.11511
1.11375
1.11235
1.11
1.10692
1.10578
1.10559
1.10444
1.10267
1.10157
1.1002
1.09471
1.08597
1.07942
1.07744
1.07834
1.08021
1.08226
1.08433
1.08647
1.08874
1.09118
1.0938
1.0966
1.09953
1.1026
1.10579
1.10907
1.11244
1.1159
1.11943
1.12299
1.12655
1.13012
1.1337
1.13732
1.14105
1.14493
1.1491
1.15346
1.15804
1.16275
1.1676
1.17251
1.17743
1.18243
1.18743
1.1924
1.19741
1.20247
1.20752
1.21261
1.21773
1.22318
1.22898
1.23521
1.24181
1.24846
1.25506
1.26153
1.26791
1.27433
1.28094
1.28765
1.29432
1.30144
1.30896
1.31631
1.32318
1.33126
1.34069
1.35018
1.36042
1.37213
1.38616
1.39963
1.41011
1.40771
1.40591
1.42194
1.44091
1.45892
1.46878
1.45792
1.4305
1.41154
1.40122
1.40946
1.42263
1.42538
1.42802
1.42259
1.41818
1.41981
1.41913
1.41052
1.39014
1.36274
1.34286
1.33692
1.34272
1.3565
1.37041
1.33433
1.36495
1.38796
1.38837
1.38084
1.3874
1.4026
1.41746
1.4285
1.43444
1.43969
1.44848
1.45917
1.46945
1.47805
1.4886
1.49853
1.50913
1.51921
1.5305
1.54136
1.55377
1.56615
1.5791
1.59149
1.6034
1.61564
1.6298
1.64413
1.65644
1.67084
1.68485
1.69813
1.71302
1.72471
1.73927
1.77674
1.806
1.79289
1.74605
1.68811
1.63222
1.59034
1.57099
1.57066
1.5626
1.54136
1.53478
1.53133
1.51551
1.49325
1.46931
1.45008
1.45536
1.43075
1.4111
1.39452
1.37724
1.36246
1.34277
1.32389
1.3077
1.05228
1.07991
1.09815
1.1102
1.11713
1.12009
1.12187
1.12347
1.12549
1.12655
1.12543
1.12335
1.12117
1.12112
1.12444
1.12592
1.12556
1.12598
1.12463
1.12616
1.13968
1.15133
1.13435
1.10398
1.08536
1.07857
1.07684
1.07646
1.07718
1.07825
1.07964
1.08128
1.08312
1.08525
1.08763
1.0903
1.09328
1.09636
1.09972
1.10314
1.1067
1.11036
1.11397
1.11765
1.12135
1.12489
1.12817
1.13118
1.13419
1.13741
1.14096
1.14496
1.14959
1.15491
1.16058
1.16621
1.17186
1.17732
1.18234
1.18721
1.19192
1.19648
1.20091
1.20551
1.21027
1.21506
1.21975
1.2242
1.22929
1.23515
1.2424
1.25101
1.26004
1.26956
1.27978
1.28896
1.29533
1.30055
1.30751
1.31463
1.3227
1.33332
1.34426
1.35482
1.36844
1.38545
1.40118
1.41175
1.41873
1.42747
1.43375
1.45311
1.46769
1.45794
1.47574
1.50764
1.53834
1.54687
1.48747
1.44432
1.447
1.46217
1.4793
1.47614
1.45989
1.44249
1.43741
1.43842
1.43736
1.42072
1.38596
1.34385
1.31034
1.29925
1.2972
1.29167
1.27823
1.25946
1.2635
1.28954
1.32648
1.33506
1.3158
1.31173
1.34927
1.40289
1.4365
1.45528
1.47425
1.4967
1.51675
1.52958
1.53841
1.55005
1.56172
1.57532
1.58739
1.6036
1.6203
1.63405
1.64635
1.66268
1.67716
1.68734
1.70322
1.72547
1.75279
1.78064
1.81278
1.84871
1.88215
1.90592
1.91425
1.95103
2.05394
2.12307
2.08789
1.96671
1.78583
1.66633
1.61695
1.62566
1.63146
1.57779
1.56253
1.60499
1.60232
1.55031
1.49515
1.43471
1.42096
1.53786
1.4469
1.4225
1.40884
1.40859
1.41464
1.41452
1.40266
1.37992
1.04706
1.06708
1.08181
1.09358
1.10175
1.1054
1.11044
1.11502
1.11721
1.11358
1.10578
1.09879
1.09575
1.09607
1.09787
1.10189
1.10889
1.11458
1.10955
1.09696
1.08731
1.07891
1.07133
1.06784
1.06658
1.06651
1.06726
1.0684
1.06969
1.07115
1.07301
1.07488
1.0776
1.08123
1.08486
1.08887
1.09275
1.0964
1.09994
1.1036
1.10749
1.11088
1.11422
1.11748
1.121
1.12429
1.12722
1.12972
1.13284
1.13659
1.14076
1.14526
1.15037
1.1556
1.16045
1.16422
1.16807
1.17213
1.17557
1.17906
1.18309
1.18771
1.19207
1.19726
1.20286
1.20815
1.21296
1.21727
1.22102
1.22472
1.22977
1.23671
1.24471
1.25358
1.26792
1.28267
1.28645
1.28517
1.29101
1.29934
1.3138
1.32691
1.3253
1.32857
1.35577
1.38256
1.39341
1.397
1.39794
1.39635
1.38653
1.38935
1.41375
1.44133
1.48882
1.52451
1.49375
1.44941
1.43732
1.44498
1.4574
1.469
1.47237
1.46227
1.44334
1.42906
1.42374
1.41664
1.41083
1.38988
1.36805
1.34387
1.33174
1.33466
1.33299
1.31803
1.29343
1.27129
1.2878
1.30747
1.28893
1.29446
1.31404
1.2932
1.30623
1.35978
1.38467
1.3847
1.40443
1.44927
1.48501
1.49493
1.50045
1.51166
1.51872
1.53057
1.54507
1.56333
1.58924
1.61282
1.63017
1.64506
1.65509
1.65841
1.66715
1.68063
1.70543
1.73809
1.77784
1.82572
1.89319
1.93054
1.91872
1.99111
2.11885
2.11508
1.99009
1.83956
1.66903
1.59363
1.60608
1.63669
1.59507
1.53956
1.59194
1.62668
1.58104
1.50897
1.42189
1.36594
1.38034
1.51213
1.35765
1.33075
1.31592
1.30362
1.30282
1.35791
1.41327
1.41714
1.04469
1.06327
1.07931
1.09267
1.10138
1.10743
1.11566
1.11537
1.10831
1.09609
1.08967
1.0885
1.08638
1.08625
1.08741
1.08195
1.08158
1.0808
1.07725
1.07426
1.07122
1.07133
1.07134
1.07248
1.07449
1.07682
1.07898
1.08085
1.08428
1.08726
1.08966
1.09338
1.09629
1.09982
1.10389
1.1075
1.11149
1.11519
1.1181
1.12069
1.12368
1.1268
1.12966
1.13205
1.13496
1.13808
1.14174
1.14496
1.14822
1.1522
1.15628
1.15998
1.16389
1.16717
1.16998
1.17228
1.17474
1.17749
1.1814
1.18503
1.18887
1.19438
1.19899
1.20411
1.20931
1.21405
1.21806
1.22383
1.23112
1.23553
1.23591
1.23519
1.23792
1.23989
1.24898
1.26666
1.26831
1.25837
1.26777
1.27865
1.28731
1.30174
1.30933
1.30808
1.31843
1.34401
1.36625
1.38442
1.40399
1.41027
1.39081
1.38661
1.40241
1.44444
1.50227
1.50094
1.45612
1.43533
1.4314
1.43325
1.43585
1.44318
1.45056
1.4496
1.43927
1.42915
1.41336
1.40251
1.39617
1.3869
1.38725
1.37647
1.37154
1.36936
1.36718
1.35611
1.32758
1.29312
1.25742
1.34793
1.32827
1.33038
1.39455
1.38223
1.35953
1.36602
1.37066
1.36632
1.36966
1.41022
1.44474
1.44543
1.44784
1.4635
1.47046
1.47707
1.49078
1.50263
1.5285
1.56499
1.59048
1.60488
1.61115
1.5994
1.60075
1.606
1.62786
1.66739
1.70712
1.73966
1.82239
1.88257
1.86355
1.95883
2.09337
2.0311
1.8557
1.72538
1.5992
1.56387
1.59426
1.60283
1.55729
1.544
1.59599
1.56064
1.56735
1.52228
1.43295
1.42668
1.44456
1.43597
1.31663
1.28738
1.30703
1.27077
1.18496
1.23742
1.33562
1.39241
1.0446
1.06543
1.08581
1.10148
1.11132
1.11758
1.10998
1.0904
1.08543
1.08612
1.08293
1.07678
1.07322
1.06806
1.06605
1.07062
1.0711
1.06999
1.06986
1.07015
1.0681
1.07086
1.07198
1.07416
1.07832
1.08014
1.08501
1.08841
1.09082
1.09494
1.09758
1.10093
1.1046
1.10761
1.11073
1.11314
1.11581
1.11757
1.11895
1.12058
1.12176
1.12361
1.12588
1.12785
1.12994
1.13241
1.13529
1.13828
1.14177
1.14539
1.14956
1.15356
1.1574
1.16093
1.1639
1.16771
1.17293
1.17599
1.18053
1.18485
1.18733
1.19028
1.19259
1.19496
1.19755
1.20124
1.20465
1.20763
1.21851
1.23194
1.23889
1.23892
1.24275
1.25035
1.25119
1.25448
1.25831
1.25068
1.25589
1.26586
1.27402
1.27939
1.27927
1.28686
1.29959
1.32688
1.34311
1.33925
1.35802
1.38552
1.37166
1.36534
1.41045
1.47742
1.49594
1.4679
1.43439
1.41945
1.4144
1.41491
1.4146
1.42479
1.43647
1.43218
1.42145
1.41074
1.39532
1.39354
1.38715
1.38223
1.38893
1.38246
1.38446
1.38332
1.37404
1.348
1.31022
1.26733
1.23839
1.31217
1.37017
1.37439
1.4246
1.41333
1.3704
1.34028
1.36606
1.40953
1.4162
1.42302
1.4263
1.41891
1.42617
1.44639
1.45503
1.45477
1.46621
1.46804
1.47748
1.51115
1.54541
1.56323
1.57305
1.54626
1.53521
1.53286
1.54141
1.58001
1.63014
1.65835
1.74121
1.814
1.78667
1.88164
2.03469
1.97001
1.76881
1.65167
1.55503
1.52309
1.54697
1.55187
1.51154
1.52319
1.52819
1.48763
1.51811
1.51489
1.48535
1.43115
1.42273
1.36466
1.30264
1.24425
1.26886
1.33641
1.1809
1.17759
1.24564
1.32586
1.04672
1.07215
1.09916
1.11544
1.11679
1.10198
1.08369
1.07988
1.08116
1.0716
1.05939
1.0643
1.07102
1.074
1.0684
1.07118
1.07033
1.07069
1.07048
1.07044
1.07267
1.07576
1.08069
1.08472
1.09111
1.09587
1.09834
1.10273
1.10529
1.10682
1.10969
1.11044
1.11201
1.11342
1.11344
1.11341
1.11287
1.11175
1.11048
1.11057
1.11143
1.11227
1.11382
1.11567
1.11709
1.11903
1.12173
1.124
1.12692
1.13041
1.13404
1.13767
1.14171
1.14656
1.15132
1.15582
1.16072
1.16469
1.16969
1.17354
1.17677
1.17878
1.18073
1.18185
1.18393
1.18699
1.19331
1.19502
1.1974
1.2108
1.22025
1.21911
1.22055
1.23917
1.26183
1.26996
1.26809
1.26212
1.25868
1.25388
1.26077
1.26948
1.26836
1.27712
1.29705
1.3311
1.3288
1.3178
1.36013
1.38605
1.35839
1.37017
1.42968
1.48029
1.47696
1.44008
1.41314
1.40102
1.40394
1.40186
1.39574
1.41039
1.40895
1.39454
1.38535
1.3843
1.38006
1.38641
1.3775
1.36797
1.36946
1.36772
1.37323
1.37679
1.37204
1.35602
1.34568
1.30959
1.24872
1.28214
1.37922
1.40006
1.42373
1.4053
1.34342
1.32593
1.38193
1.43953
1.45053
1.43379
1.42051
1.41473
1.42997
1.45734
1.4558
1.447
1.46637
1.46474
1.45375
1.46877
1.49629
1.5086
1.53091
1.51647
1.50057
1.48416
1.47552
1.50554
1.55221
1.5785
1.66956
1.75215
1.71197
1.78984
1.96287
1.92978
1.71984
1.5899
1.50704
1.48491
1.53045
1.52985
1.49846
1.53484
1.51946
1.49872
1.4808
1.49334
1.4676
1.41666
1.38814
1.35414
1.31543
1.27933
1.18484
1.34345
1.26738
1.20505
1.19622
1.25997
1.04846
1.07459
1.10167
1.11316
1.10683
1.08822
1.07012
1.06965
1.07424
1.07447
1.0581
1.05795
1.06452
1.0645
1.0671
1.07141
1.07029
1.06749
1.06988
1.07143
1.07839
1.08587
1.09252
1.09898
1.10124
1.10482
1.10674
1.1073
1.1086
1.10886
1.11095
1.1119
1.11359
1.11584
1.11686
1.11874
1.12051
1.12244
1.12354
1.12523
1.12695
1.1275
1.1281
1.12882
1.12948
1.13076
1.13239
1.13393
1.13581
1.13791
1.14026
1.14228
1.14401
1.14688
1.15084
1.15613
1.16081
1.16589
1.17127
1.17594
1.18012
1.18269
1.18585
1.1879
1.18994
1.19064
1.19306
1.20031
1.19544
1.20073
1.21457
1.21215
1.20584
1.2198
1.24717
1.26051
1.25409
1.24914
1.24991
1.25052
1.25281
1.25315
1.26259
1.28564
1.30815
1.32596
1.30639
1.30994
1.34968
1.34048
1.31735
1.3617
1.42881
1.46706
1.46469
1.43258
1.40145
1.39336
1.40546
1.39911
1.39546
1.40771
1.3974
1.38426
1.37675
1.36899
1.35911
1.36289
1.34953
1.33621
1.32511
1.32179
1.32004
1.32439
1.32933
1.33193
1.32421
1.29412
1.23195
1.27204
1.35228
1.40166
1.39769
1.39252
1.36926
1.37773
1.40603
1.42463
1.4206
1.41053
1.40577
1.39545
1.4138
1.44819
1.41701
1.39087
1.43065
1.44253
1.42365
1.42353
1.44731
1.44314
1.4599
1.47222
1.48106
1.46012
1.43454
1.45701
1.48464
1.49882
1.60052
1.69064
1.63922
1.69834
1.88366
1.89685
1.69939
1.54888
1.47465
1.47818
1.5358
1.54287
1.55057
1.57518
1.58244
1.57012
1.53835
1.49817
1.45512
1.46835
1.39998
1.35755
1.28778
1.31669
1.22891
1.29456
1.33395
1.25013
1.19536
1.23947
1.0497
1.07499
1.10045
1.10779
1.09783
1.07921
1.06788
1.07138
1.06893
1.07255
1.07507
1.07094
1.08142
1.07674
1.07321
1.06933
1.06714
1.07272
1.08204
1.09177
1.10076
1.10549
1.10519
1.1067
1.10499
1.1028
1.10021
1.09788
1.09943
1.09986
1.10081
1.10277
1.10397
1.10566
1.10761
1.10989
1.11218
1.11491
1.11705
1.12025
1.1235
1.1261
1.12901
1.13178
1.13378
1.13559
1.13687
1.13787
1.13937
1.14072
1.14289
1.14471
1.14571
1.14685
1.14803
1.15081
1.15322
1.15828
1.16167
1.16571
1.16913
1.17071
1.17286
1.17617
1.17844
1.18595
1.18406
1.19329
1.19282
1.18703
1.20576
1.21755
1.20905
1.21437
1.2331
1.23523
1.2273
1.2273
1.23314
1.24387
1.24362
1.22902
1.24099
1.27358
1.28983
1.29234
1.2913
1.31603
1.33508
1.3184
1.32284
1.37904
1.43248
1.44735
1.44343
1.41422
1.38235
1.38641
1.40788
1.39139
1.38481
1.37894
1.37346
1.36729
1.35629
1.33698
1.32851
1.33756
1.33403
1.33575
1.31948
1.31222
1.29992
1.29715
1.29508
1.30928
1.32151
1.31156
1.24321
1.25548
1.31837
1.39292
1.37406
1.36256
1.38632
1.39968
1.39116
1.39747
1.3899
1.39816
1.39149
1.37073
1.39775
1.43332
1.36914
1.32704
1.37226
1.38426
1.36182
1.36343
1.40417
1.39308
1.39127
1.41474
1.45136
1.43557
1.4016
1.42497
1.43094
1.42802
1.53952
1.63551
1.5735
1.61193
1.79628
1.86228
1.705
1.54021
1.47252
1.49626
1.53286
1.53757
1.57272
1.61549
1.65135
1.64283
1.61285
1.57138
1.54298
1.51313
1.42118
1.36866
1.25523
1.22077
1.28962
1.30493
1.341
1.24678
1.21009
1.24787
1.05165
1.07734
1.10251
1.10412
1.0941
1.08364
1.07
1.07172
1.0729
1.07287
1.08345
1.07997
1.07771
1.07183
1.07221
1.0833
1.09005
1.09711
1.1014
1.1014
1.10099
1.10221
1.10118
1.09974
1.09732
1.09751
1.10203
1.10533
1.10928
1.11317
1.11566
1.1182
1.11966
1.12154
1.12414
1.1254
1.12619
1.12788
1.1287
1.12977
1.13129
1.13308
1.13507
1.13727
1.13911
1.14116
1.14323
1.14524
1.14801
1.14977
1.15192
1.15285
1.15336
1.1529
1.15226
1.15139
1.15201
1.15335
1.15535
1.15774
1.16219
1.1658
1.16793
1.17594
1.17337
1.18105
1.18115
1.18658
1.19594
1.18233
1.18611
1.20683
1.2051
1.20224
1.21721
1.2259
1.22455
1.22638
1.23177
1.23625
1.23179
1.21175
1.21203
1.24419
1.27654
1.29108
1.30887
1.33335
1.32414
1.31702
1.35005
1.40217
1.4321
1.42315
1.41134
1.38797
1.37093
1.39466
1.41059
1.38546
1.36222
1.33765
1.33724
1.33572
1.32148
1.30456
1.30494
1.31103
1.30912
1.32228
1.31404
1.30886
1.29786
1.28669
1.27539
1.26957
1.29252
1.29721
1.24178
1.22925
1.28039
1.35529
1.33872
1.30828
1.31372
1.34587
1.35875
1.38274
1.40016
1.41184
1.37544
1.35177
1.38213
1.38896
1.30852
1.28424
1.32601
1.31763
1.28815
1.29762
1.35454
1.33799
1.31834
1.34554
1.40083
1.39001
1.35868
1.39339
1.38561
1.3668
1.48434
1.5827
1.51514
1.53365
1.70507
1.81604
1.72211
1.5606
1.49482
1.5251
1.51852
1.49523
1.60323
1.62037
1.66505
1.68455
1.6518
1.65749
1.61492
1.51726
1.42193
1.37182
1.32235
1.22091
1.29967
1.33494
1.32926
1.24269
1.23149
1.24536
1.05244
1.07473
1.1007
1.10904
1.09638
1.09053
1.07657
1.07296
1.08141
1.08031
1.07578
1.0719
1.07939
1.09
1.09106
1.08936
1.08449
1.0851
1.09183
1.09981
1.10433
1.10427
1.10371
1.10519
1.10877
1.11091
1.11239
1.11338
1.11436
1.11561
1.11645
1.11863
1.12163
1.12382
1.12672
1.12963
1.13203
1.13483
1.13756
1.14055
1.14378
1.14749
1.15101
1.15436
1.15759
1.16029
1.16307
1.16491
1.16752
1.16855
1.1696
1.16953
1.17066
1.16878
1.16803
1.16463
1.16246
1.16159
1.16157
1.16145
1.16443
1.1696
1.16563
1.17322
1.17583
1.17977
1.18246
1.17859
1.19155
1.19048
1.18403
1.19787
1.19573
1.18727
1.20199
1.22423
1.22705
1.2204
1.21825
1.21969
1.22211
1.21371
1.20427
1.2231
1.28031
1.31607
1.3077
1.29387
1.28705
1.3177
1.36551
1.40557
1.42026
1.4066
1.39022
1.37499
1.37568
1.39925
1.38996
1.35303
1.31997
1.3012
1.31482
1.312
1.30513
1.30483
1.30394
1.29136
1.28103
1.29067
1.29285
1.29492
1.29566
1.28554
1.27618
1.2508
1.25393
1.29145
1.23878
1.20604
1.23133
1.31658
1.30761
1.30232
1.29279
1.32484
1.35105
1.3665
1.40642
1.39875
1.34182
1.3239
1.32755
1.29375
1.23824
1.25424
1.28132
1.25809
1.24246
1.26115
1.3103
1.2777
1.24695
1.27945
1.33875
1.32674
1.30719
1.35783
1.34218
1.31533
1.43855
1.53438
1.46626
1.46737
1.61756
1.75081
1.72785
1.59575
1.53173
1.56665
1.52773
1.45731
1.56238
1.61747
1.67365
1.69943
1.6512
1.64864
1.65859
1.58084
1.45922
1.33854
1.3175
1.25425
1.30589
1.33058
1.31946
1.25681
1.27043
1.24578
1.0535
1.07181
1.09461
1.11216
1.10025
1.09117
1.08987
1.07885
1.07223
1.06993
1.07906
1.09453
1.09797
1.08727
1.07782
1.08393
1.09444
1.10204
1.10769
1.10813
1.10522
1.09896
1.09384
1.09125
1.09142
1.09547
1.10173
1.10665
1.10919
1.11206
1.11576
1.11971
1.12379
1.12576
1.12617
1.12602
1.12549
1.12533
1.12563
1.12674
1.12906
1.13273
1.1369
1.14106
1.14522
1.14914
1.15429
1.15972
1.16567
1.17086
1.17533
1.17731
1.1807
1.18327
1.18053
1.17833
1.17212
1.16658
1.16513
1.16224
1.15887
1.1645
1.16615
1.16442
1.16736
1.16643
1.17574
1.17532
1.177
1.1778
1.172
1.19011
1.1996
1.18742
1.18881
1.20587
1.20982
1.20466
1.20835
1.21667
1.21494
1.20686
1.21152
1.21819
1.26751
1.32239
1.30794
1.27499
1.27662
1.32825
1.37379
1.40201
1.40649
1.3975
1.38549
1.37367
1.37708
1.37992
1.34778
1.3147
1.29621
1.30458
1.32368
1.31755
1.32502
1.32944
1.32317
1.30797
1.29828
1.29539
1.29013
1.29044
1.29482
1.29013
1.28051
1.25909
1.23156
1.27528
1.24642
1.18246
1.18215
1.2853
1.28403
1.29703
1.31207
1.33186
1.35559
1.35227
1.36097
1.33373
1.29376
1.26785
1.23433
1.20111
1.18855
1.22067
1.22226
1.20656
1.22317
1.25156
1.27613
1.23265
1.20461
1.24273
1.2903
1.26424
1.25678
1.32244
1.29884
1.27071
1.40003
1.49033
1.42336
1.41251
1.53975
1.67322
1.71408
1.62574
1.57334
1.60106
1.53337
1.44464
1.51571
1.60316
1.63286
1.69848
1.66008
1.60638
1.63415
1.60144
1.48283
1.3619
1.30331
1.23443
1.28791
1.30007
1.29599
1.27279
1.3078
1.24725
1.05526
1.07009
1.08795
1.11164
1.11292
1.09483
1.08338
1.07788
1.08095
1.09402
1.10045
1.08789
1.0801
1.09736
1.1072
1.09818
1.09303
1.09682
1.10524
1.10871
1.10727
1.104
1.10403
1.10737
1.10937
1.10917
1.10918
1.11105
1.11391
1.11779
1.12202
1.12348
1.12212
1.11949
1.11778
1.11807
1.11994
1.12272
1.12622
1.13069
1.13573
1.14075
1.14511
1.14781
1.1469
1.14576
1.14563
1.14808
1.14992
1.15386
1.15685
1.16344
1.17058
1.18123
1.18925
1.18994
1.19017
1.18257
1.17233
1.16874
1.16593
1.16057
1.16525
1.1653
1.1718
1.16944
1.17119
1.17401
1.17771
1.18141
1.16873
1.17387
1.19344
1.18828
1.1791
1.18746
1.19791
1.20051
1.20524
1.21206
1.20943
1.18883
1.19324
1.19643
1.2259
1.30007
1.31335
1.27742
1.27407
1.33045
1.37143
1.38819
1.39427
1.39354
1.3928
1.38003
1.37271
1.35289
1.31442
1.29785
1.29704
1.31203
1.31473
1.30441
1.30873
1.29615
1.2908
1.28831
1.29245
1.29508
1.29504
1.29873
1.29319
1.2841
1.27266
1.25904
1.21681
1.24055
1.244
1.17441
1.17333
1.26519
1.25534
1.25201
1.27947
1.33046
1.36198
1.35551
1.33097
1.29367
1.24941
1.20538
1.17033
1.16461
1.17266
1.18566
1.18333
1.20429
1.23293
1.25243
1.25134
1.21774
1.19856
1.23389
1.25249
1.20501
1.2116
1.28986
1.2587
1.23258
1.36598
1.44992
1.38477
1.36527
1.47221
1.59087
1.67181
1.63473
1.59834
1.61198
1.51551
1.42914
1.48751
1.56314
1.56298
1.63256
1.6446
1.58094
1.60034
1.56982
1.46925
1.3522
1.33557
1.26149
1.27944
1.26514
1.2737
1.28809
1.30469
1.22335
1.05802
1.07103
1.08691
1.10972
1.12312
1.12171
1.11345
1.10173
1.08481
1.06476
1.05917
1.08767
1.11804
1.1161
1.10453
1.09942
1.10072
1.10424
1.10856
1.11087
1.1086
1.10453
1.10345
1.10633
1.11143
1.11572
1.11817
1.11915
1.11985
1.1204
1.11994
1.11747
1.11535
1.11624
1.12057
1.12666
1.13312
1.13825
1.14138
1.14332
1.14365
1.14397
1.1464
1.15168
1.15166
1.14927
1.14808
1.1547
1.16219
1.1653
1.16258
1.15458
1.15734
1.16326
1.17453
1.18441
1.18487
1.18427
1.17774
1.16505
1.16323
1.16004
1.16198
1.16111
1.16051
1.16207
1.1648
1.16528
1.16366
1.17503
1.17845
1.16787
1.17887
1.18264
1.17423
1.17778
1.19029
1.19379
1.19323
1.19381
1.20063
1.18403
1.18631
1.19732
1.20911
1.27777
1.31867
1.29019
1.27287
1.32423
1.36518
1.36988
1.38107
1.3876
1.3986
1.38433
1.36742
1.33656
1.30262
1.29051
1.28997
1.29655
1.28804
1.27604
1.26854
1.24455
1.24355
1.2376
1.23947
1.24638
1.26182
1.28575
1.29797
1.28837
1.27232
1.26231
1.21816
1.21896
1.23661
1.17128
1.17261
1.26985
1.21854
1.20674
1.22796
1.28415
1.31742
1.31746
1.29321
1.23239
1.1788
1.15125
1.14779
1.15688
1.18233
1.18784
1.21666
1.27227
1.2755
1.27665
1.26491
1.25343
1.22599
1.23766
1.21749
1.15152
1.16778
1.25785
1.22164
1.1965
1.33455
1.41534
1.3495
1.32693
1.40992
1.52025
1.61823
1.62453
1.59728
1.59402
1.48464
1.4191
1.46703
1.52541
1.48114
1.51182
1.56674
1.54283
1.57034
1.57253
1.47012
1.33739
1.30809
1.26977
1.26726
1.24909
1.25852
1.29068
1.26204
1.20343
1.06272
1.0767
1.08841
1.09726
1.0999
1.10332
1.10764
1.11285
1.11514
1.11791
1.10771
1.07674
1.07363
1.10024
1.11845
1.1161
1.10845
1.1048
1.10637
1.11432
1.12285
1.1265
1.12502
1.12092
1.11603
1.11176
1.10952
1.10916
1.11031
1.11213
1.11477
1.11756
1.12067
1.12463
1.1289
1.1324
1.13582
1.13953
1.14156
1.14357
1.14432
1.14235
1.14091
1.14454
1.14907
1.14603
1.14306
1.1411
1.1497
1.15543
1.16007
1.15794
1.15315
1.15799
1.16308
1.1738
1.1828
1.17987
1.1753
1.16444
1.15782
1.15653
1.1537
1.15751
1.15922
1.16198
1.16056
1.16561
1.16546
1.15859
1.17386
1.16637
1.167
1.17802
1.17812
1.17318
1.17797
1.18026
1.18192
1.18594
1.19404
1.17672
1.1718
1.18762
1.1974
1.25181
1.31141
1.30173
1.27184
1.31454
1.35528
1.35375
1.36102
1.37024
1.38363
1.3708
1.34973
1.31819
1.28824
1.27934
1.27862
1.27919
1.26718
1.26129
1.25481
1.22835
1.22199
1.2121
1.20307
1.20267
1.20895
1.22315
1.26412
1.28287
1.26071
1.25043
1.21888
1.1945
1.22826
1.17638
1.15742
1.24896
1.16999
1.15668
1.18084
1.21109
1.24612
1.23773
1.19975
1.14643
1.12177
1.127
1.14142
1.16692
1.22746
1.27401
1.3088
1.36864
1.3489
1.36195
1.36091
1.35205
1.28428
1.24446
1.18921
1.11825
1.12901
1.22746
1.19299
1.16155
1.2984
1.38113
1.31703
1.29341
1.35008
1.46578
1.5644
1.59458
1.57446
1.54697
1.45017
1.41
1.44122
1.47581
1.41436
1.40515
1.46408
1.4925
1.52718
1.54364
1.44337
1.35108
1.30517
1.28317
1.24722
1.2351
1.24985
1.28289
1.22162
1.19499
1.06727
1.08317
1.09017
1.08372
1.07959
1.07945
1.07934
1.07975
1.08668
1.09238
1.10595
1.12267
1.10303
1.08395
1.09361
1.11027
1.11676
1.11541
1.1133
1.11701
1.12441
1.13002
1.13178
1.12972
1.12659
1.12407
1.12253
1.12202
1.12321
1.12585
1.12864
1.12961
1.13025
1.13294
1.13712
1.1395
1.13966
1.14038
1.14112
1.14175
1.1449
1.14361
1.14204
1.14062
1.14493
1.14551
1.15037
1.1574
1.15916
1.15556
1.14808
1.1491
1.15169
1.15916
1.1665
1.17143
1.1768
1.17017
1.16006
1.15372
1.14729
1.15158
1.15122
1.15416
1.15145
1.156
1.15725
1.15526
1.16981
1.16028
1.16861
1.17174
1.16251
1.1678
1.17354
1.1641
1.16651
1.1744
1.17686
1.17861
1.18556
1.17471
1.16362
1.17167
1.18726
1.22833
1.29708
1.30699
1.27373
1.30317
1.34392
1.34178
1.34342
1.34501
1.34873
1.33503
1.31858
1.29022
1.26331
1.2564
1.26097
1.26098
1.24749
1.23355
1.22813
1.20573
1.1996
1.1942
1.18707
1.19378
1.20063
1.19415
1.21609
1.25929
1.25433
1.24401
1.21129
1.17243
1.2036
1.1795
1.13245
1.20643
1.14742
1.11834
1.13403
1.13238
1.15452
1.1483
1.11884
1.09638
1.09397
1.12646
1.15928
1.23074
1.30916
1.3997
1.37634
1.45174
1.45708
1.4872
1.48676
1.45715
1.35111
1.25551
1.18632
1.12411
1.10525
1.19584
1.17244
1.13039
1.258
1.34766
1.29283
1.26012
1.29472
1.42209
1.52209
1.55622
1.52849
1.4907
1.41841
1.39013
1.40729
1.41952
1.3899
1.35386
1.37399
1.42887
1.48932
1.52827
1.42736
1.32412
1.285
1.29779
1.24825
1.22645
1.24535
1.2735
1.21478
1.21289
1.07059
1.08398
1.09328
1.0875
1.08111
1.07834
1.07936
1.08179
1.08016
1.08344
1.07911
1.09523
1.11745
1.10848
1.09274
1.10108
1.12104
1.13027
1.12472
1.11371
1.10805
1.11051
1.11616
1.12217
1.12691
1.12964
1.12998
1.1291
1.12859
1.12838
1.12769
1.12813
1.12915
1.12949
1.13001
1.13066
1.1352
1.14053
1.14313
1.14294
1.14676
1.14758
1.14416
1.14817
1.1563
1.15469
1.1398
1.14167
1.15835
1.1713
1.16388
1.1523
1.14714
1.15056
1.16617
1.17756
1.17854
1.17014
1.15484
1.15032
1.14853
1.15047
1.14815
1.1515
1.15347
1.14891
1.15703
1.1491
1.15566
1.15689
1.15287
1.16576
1.15841
1.15617
1.16415
1.16325
1.16045
1.16457
1.16606
1.16715
1.17501
1.17329
1.16146
1.1573
1.17356
1.20497
1.27726
1.30589
1.27901
1.28766
1.33313
1.33067
1.3298
1.32682
1.31778
1.30232
1.29196
1.27402
1.25166
1.23962
1.24318
1.24453
1.23336
1.20607
1.19657
1.17621
1.16137
1.15012
1.14688
1.15983
1.18171
1.18659
1.19004
1.22469
1.23768
1.23588
1.21914
1.17207
1.18501
1.18579
1.0997
1.17869
1.14946
1.09113
1.10701
1.08017
1.08557
1.08491
1.0743
1.07962
1.10097
1.17021
1.23639
1.33018
1.38659
1.48216
1.41672
1.51697
1.54688
1.51867
1.49698
1.49747
1.40856
1.27759
1.22396
1.17611
1.11024
1.17187
1.15802
1.1019
1.2154
1.3103
1.27549
1.22896
1.24613
1.38112
1.48317
1.51363
1.48012
1.43305
1.38311
1.36618
1.37388
1.37868
1.39021
1.3518
1.31365
1.3774
1.4502
1.51944
1.41632
1.32337
1.25337
1.28136
1.24679
1.21583
1.22951
1.27281
1.24042
1.2226
1.07527
1.08392
1.08771
1.08628
1.08346
1.0845
1.083
1.08634
1.08818
1.09087
1.09032
1.08217
1.09416
1.11385
1.10937
1.09705
1.09755
1.10862
1.11886
1.12313
1.12636
1.12781
1.12965
1.13029
1.12818
1.12642
1.12399
1.12277
1.12151
1.12288
1.12488
1.1261
1.13095
1.13528
1.13789
1.1399
1.1429
1.14545
1.14387
1.1441
1.14315
1.14208
1.13843
1.13854
1.13901
1.14139
1.13943
1.13767
1.14662
1.16236
1.17117
1.16243
1.15596
1.15807
1.16766
1.1765
1.17233
1.1621
1.15204
1.14736
1.14875
1.1484
1.15129
1.14531
1.15126
1.14804
1.1495
1.15248
1.14976
1.15984
1.15209
1.15499
1.1497
1.14811
1.15111
1.15687
1.15332
1.15714
1.16032
1.15987
1.16763
1.17086
1.16101
1.14601
1.15378
1.18117
1.24888
1.29561
1.28466
1.27353
1.31737
1.32208
1.31724
1.31385
1.29939
1.28116
1.27307
1.26476
1.24847
1.23493
1.23161
1.22987
1.22263
1.19944
1.18981
1.17723
1.15909
1.14115
1.12148
1.1115
1.13891
1.16613
1.17016
1.20233
1.22104
1.21714
1.20699
1.16189
1.15861
1.1891
1.10218
1.15067
1.15224
1.07499
1.10771
1.07754
1.06431
1.06732
1.0721
1.0931
1.14062
1.23751
1.31931
1.37877
1.41831
1.50447
1.42249
1.49726
1.52072
1.41508
1.39038
1.47615
1.46555
1.3401
1.30459
1.25227
1.14084
1.16167
1.15037
1.07748
1.17048
1.26883
1.26286
1.20017
1.20409
1.34484
1.44748
1.4724
1.43466
1.38101
1.34224
1.32795
1.34764
1.36116
1.39519
1.37309
1.27928
1.33493
1.41883
1.49871
1.37917
1.30364
1.23118
1.26165
1.24741
1.2013
1.20398
1.25758
1.24048
1.2117
1.0815
1.09186
1.09631
1.09934
1.10351
1.10522
1.10282
1.10287
1.10231
1.09651
1.09622
1.08636
1.0866
1.10083
1.10269
1.09736
1.10642
1.12184
1.12825
1.12876
1.12586
1.12503
1.12799
1.12755
1.12899
1.12844
1.12849
1.13027
1.12928
1.132
1.13623
1.1364
1.13724
1.13987
1.13821
1.13749
1.13592
1.13569
1.13502
1.13075
1.1292
1.13079
1.1355
1.13471
1.13912
1.14512
1.1522
1.15198
1.15871
1.17082
1.17623
1.16999
1.16379
1.17112
1.18606
1.1911
1.18154
1.16473
1.15819
1.15275
1.15228
1.14647
1.14348
1.14381
1.13733
1.1423
1.13919
1.14614
1.14255
1.14557
1.14645
1.14919
1.15205
1.1503
1.14652
1.15253
1.15019
1.14929
1.15187
1.14933
1.15685
1.16441
1.16421
1.1453
1.13796
1.16204
1.21605
1.27657
1.28373
1.26628
1.29702
1.31419
1.3092
1.30418
1.28511