/*--------------------------------*- C++ -*----------------------------------*\
| =========                 |                                                 |
| \\      /  F ield         | OpenFOAM: The Open Source CFD Toolbox           |
|  \\    /   O peration     | Version:  dev                                   |
|   \\  /    A nd           | Web:      http://www.openfoam.org               |
|    \\/     M anipulation  |                                                 |
\*---------------------------------------------------------------------------*/
FoamFile
{
    version     2.0;
    format      ascii;
    class       volScalarField;
    object      T;
    location    "9.134";
}
// * * * * * * * * * * * * * * * * * * * * * * * * * * * * * * * * * * * * * //

dimensions      [0 0 0 1 0 0 0];

internalField   nonuniform List<scalar> 
12225
(
310.464
310.975
310.711
310.453
310.247
309.921
309.715
309.326
309.064
308.623
308.348
307.804
307.297
306.535
305.522
303.907
302.172
303.476
311.372
310.694
309.608
308.922
308.768
308.233
308.362
307.846
307.866
307.285
307.262
306.385
305.72
304.67
303.111
302.099
302.018
302.98
311.388
310.325
309.231
308.217
307.905
307.022
307.05
306.323
306.355
305.715
305.809
304.942
304.534
303.808
302.958
303.245
302.762
302.595
311.385
310.229
309.216
308.204
307.735
306.905
306.533
305.887
305.608
305.028
304.982
304.131
303.893
303.1
302.651
302.374
302.04
302.035
311.263
310.354
309.012
308.404
307.612
307.237
306.482
306.007
305.519
305.047
304.699
304.074
303.741
303.005
302.752
302.293
302.224
301.273
310.885
310.325
309.027
308.496
307.606
307.342
306.543
306.234
305.533
305.315
304.576
304.092
303.57
303.061
302.32
302.265
302.443
301.875
310.8
310.464
308.951
308.3
307.307
307.298
306.523
306.228
305.602
305.247
304.188
304.125
303.305
303.132
302.181
301.908
301.993
302.656
310.771
310.481
308.763
308.228
307.245
307.335
306.291
306.154
305.363
304.914
304.082
304.209
303.235
303.274
302.418
302.119
301.941
302.515
310.604
310.389
308.53
308.161
307.449
307.288
306.192
305.994
305.279
305.109
304.3
304.264
303.095
303.925
302.436
302.843
301.748
301.685
310.464
310.362
308.569
308.275
307.757
307.282
306.29
305.856
305.438
305.513
304.469
304.247
303.15
303.759
302.07
302.96
301.372
301.361
310.337
310.165
308.594
308.337
307.79
307.201
306.422
305.983
305.586
305.489
304.668
304.343
303.263
303.539
302.205
302.76
301.531
301.421
310.094
310.045
308.588
308.379
307.69
307.251
306.627
306.237
305.762
305.525
304.88
304.447
303.51
303.385
302.601
302.801
301.761
301.481
309.847
309.796
308.586
308.395
307.774
307.445
306.805
306.496
305.884
305.646
305.031
304.597
303.94
303.447
302.827
302.854
302.251
301.716
309.544
309.526
308.572
308.289
307.811
307.508
306.934
306.687
306.08
305.791
305.23
304.778
304.337
303.752
303.252
303.01
302.614
302.158
308.945
309.135
308.428
308.127
307.767
307.454
307.028
306.765
306.237
305.925
305.464
305.012
304.676
304.128
303.737
303.295
303.005
302.548
308.28
308.6
308.08
307.787
307.548
307.262
307.028
306.792
306.344
306.07
305.63
305.162
304.792
304.277
303.948
303.441
303.195
302.715
307.397
307.837
307.394
307.138
307.054
306.781
306.663
306.377
306.018
305.778
305.328
304.963
304.598
304.146
303.872
303.401
303.184
302.725
306.344
306.888
306.458
306.26
306.253
305.949
305.809
305.417
305.109
304.846
304.481
304.227
303.881
303.565
303.296
302.89
302.698
302.256
305.383
306.018
305.427
305.241
305.079
304.738
304.46
304.131
303.881
303.578
303.338
303.057
302.755
302.497
302.187
301.913
301.663
301.323
304.49
305.274
304.531
304.232
303.875
303.593
303.247
302.991
302.67
302.359
302.094
301.802
301.562
301.313
301.052
300.851
300.565
300.381
303.905
304.537
303.71
303.241
302.806
302.471
302.124
301.777
301.434
301.147
300.834
300.634
300.394
300.19
299.978
299.757
299.534
299.329
303.389
303.955
303.072
302.51
301.976
301.488
301.063
300.704
300.382
300.1
299.838
299.607
299.382
299.173
298.972
298.743
298.574
298.324
303.017
303.563
302.5
301.853
301.259
300.719
300.279
299.888
299.519
299.223
298.935
298.699
298.501
298.306
298.138
297.966
297.801
297.622
302.722
303.109
302.023
301.279
300.633
300.089
299.612
299.201
298.868
298.565
298.3
298.082
297.856
297.682
297.491
297.33
297.167
297.004
302.453
302.877
301.705
300.958
300.345
299.779
299.281
298.843
298.467
298.124
297.872
297.616
297.435
297.241
297.077
296.924
296.761
296.618
302.342
302.745
301.524
300.704
299.992
299.394
298.878
298.463
298.1
297.79
297.527
297.282
297.094
296.893
296.746
296.58
296.442
296.302
302.176
302.618
301.37
300.588
299.901
299.281
298.72
298.263
297.89
297.595
297.353
297.157
296.978
296.82
296.659
296.512
296.36
296.203
302.2
302.581
301.279
300.436
299.735
299.135
298.626
298.233
297.917
297.684
297.49
297.341
297.198
297.07
296.924
296.79
296.63
296.468
302.131
302.539
301.331
300.578
299.957
299.45
299.094
298.861
298.692
298.561
298.438
298.319
298.19
298.051
297.899
297.746
297.571
297.373
301.188
302.293
301.837
301.531
301.202
300.905
300.666
300.45
300.245
300.048
299.856
299.667
299.479
299.29
299.103
298.909
298.69
298.441
283.623
277.041
273.357
271.056
269.693
268.967
268.694
268.627
268.663
268.817
269.045
269.43
269.927
270.341
270.831
271.549
272.403
273.311
274.497
275.874
276.781
277.497
278.519
279.719
280.778
281.998
284.337
287.5
290.059
291.425
292.09
292.56
293.022
293.503
293.989
294.464
294.918
295.347
295.755
296.148
296.53
296.902
297.271
297.64
298.007
298.379
298.763
299.169
299.594
300.035
300.48
300.916
301.331
301.701
302.03
302.325
302.61
302.885
303.165
303.463
303.764
304.085
304.433
304.786
305.141
305.515
305.89
306.265
306.565
306.776
306.884
306.905
306.913
306.93
306.973
307.029
307.066
307.045
306.979
306.902
306.701
306.387
306.096
305.896
305.408
304.609
303.805
302.85
301.589
299.842
298.237
297.215
298.871
300.588
298.517
295.71
293.03
291.785
294.539
300.848
305.727
308.873
307.762
305.153
304.552
303.869
304.714
305.262
304.416
303.936
305.146
308.967
314.467
318.342
319.061
317.224
313.811
310.581
318.771
311.691
306.452
306.642
309.117
308.699
306.458
304.587
303.882
304.513
305.49
305.905
306.138
306.617
307.538
308.134
308.922
309.611
310.381
310.854
311.348
311.441
311.42
311.128
310.775
310.347
309.682
308.502
307.156
306.076
304.523
302.925
301.371
299.383
297.793
295.568
289.221
283.853
284.927
291.402
300.297
309.399
316.411
319.147
317.933
318.132
320.561
319.474
317.352
317.341
318.29
319.451
319.092
312.602
312.988
312.269
310.825
309.382
307.638
307.168
306.791
306.11
283.943
276.641
272.103
269.238
267.688
267.13
266.879
266.704
266.466
266.503
267.092
267.933
268.81
269.191
268.82
268.953
269.549
269.993
270.87
270.975
268.311
266.511
271.614
279.901
285.252
287.652
288.865
289.802
290.493
291.128
291.703
292.237
292.742
293.196
293.606
293.961
294.265
294.566
294.818
295.08
295.327
295.577
295.861
296.15
296.461
296.841
297.311
297.865
298.43
298.953
299.406
299.754
299.958
300.013
300.013
300.051
300.12
300.256
300.521
300.845
301.226
301.665
302.15
302.606
303.037
303.474
303.95
304.497
304.884
305.087
304.949
304.489
303.936
303.268
302.42
301.826
301.907
302.252
302.148
301.982
301.566
300.576
299.56
298.602
296.916
294.547
292.524
291.598
291.424
290.901
290.97
288.438
286.544
289.518
287.354
282.402
277.756
276.486
287.805
297.668
298.251
295.807
292.723
293.479
296.779
300.277
301.057
300.455
300.178
303.141
310.105
319.07
326.32
328.187
327.987
328.945
332.17
336.962
335.534
328.951
320.131
318.228
323.485
325.807
318.151
307.278
301.64
299.654
297.797
295.404
293.779
293.795
294.686
295.103
295.605
295.753
296.166
295.784
295.211
295.086
295.157
294.385
293.764
293.767
292.668
290.37
287.118
283.727
279.682
275.055
270.739
267.793
267.118
262.399
249.157
240.516
243.885
257.875
282.962
302.227
310.309
307.522
305.499
314.52
315.337
304.849
303.027
310.157
318.001
327.283
325.435
295.741
309.62
310.007
307.907
302.727
296.618
291.696
289.502
289.98
285.632
280.222
276.46
273.564
271.655
270.893
269.827
268.936
268.687
269.885
272.111
274.156
275.245
275.526
275.462
274.876
273.617
272.859
274.846
278.673
281.769
284.666
287.334
288.939
290.035
290.842
291.456
292.006
292.546
293.058
293.491
293.933
294.142
294.16
294.22
294.209
294.277
294.428
294.625
294.804
294.966
295.29
295.635
296.019
296.361
296.796
297.35
298.011
298.512
298.877
299.155
299.367
299.447
299.54
299.767
300.287
300.791
301.28
301.928
302.571
303.093
303.486
303.964
304.243
304.447
304.748
305.183
305.743
306.438
307.159
307.565
307.515
307.196
306.662
304.786
302.828
303.53
305.44
305.545
305.044
303.144
301.543
303.283
304.005
299.322
294.73
293.588
294.017
294.993
296.516
299.981
300.94
297.109
292.551
284.302
278.214
284.487
294.273
297.796
297.047
295.173
293.324
292.969
295.157
299.062
301.95
302.791
303.911
304.624
308.549
312.665
317.408
319.368
317.845
317.489
320.419
326.038
331.426
327.678
321.876
327.171
326.48
321.758
327.799
326.389
315.207
311.196
313.186
310.952
303.414
298.351
298.887
300.352
300.685
301.988
302.368
302.162
301.277
298.808
296.624
295.58
294.938
294.997
296.205
296.311
295.497
292.574
288.195
282.78
276.411
267.079
262.051
264.314
255.14
239.559
239.667
254.491
274.322
301.021
313.818
310.127
303.575
310.715
320.136
307.559
299.53
305.642
317.079
332.669
341.191
332.653
299.624
328.915
330.551
328.511
326.07
321.979
303.99
287.043
281.867
286.667
281.576
277.424
274.106
272.05
270.691
268.911
269.269
271.271
274.541
276.398
277.004
277.889
278.279
278.461
280.334
280.866
281.647
283.179
284.585
285.975
286.59
287.287
287.675
287.885
288.051
288.311
288.613
288.541
288.68
288.935
288.885
289.088
289.117
289.068
289.167
289.191
289.349
289.731
290.186
290.555
290.934
291.41
292.009
292.484
292.926
293.265
293.743
294.208
294.516
294.83
295.259
295.656
296.244
296.965
297.833
298.664
299.433
299.922
300.513
301.065
301.229
301.651
301.96
302.272
302.707
303.326
303.51
303.281
303.755
305.266
307.086
308.036
309.146
308.553
305.88
307.048
311.055
310.265
309.092
308.502
306.572
306.174
307.789
306.839
302.331
298.645
296.024
292.992
292.517
297.745
300.165
298.159
290.759
280.471
281.196
290.659
295.946
297.671
298.024
298.102
297.071
295.874
296.206
298.316
300.272
303.328
305.183
306.008
307.355
306.452
307.971
308.196
307.908
307.678
309.619
315.894
324.216
333.843
310.736
314.691
315.034
300.902
304.069
310.835
311.229
311.707
314.105
315.422
308.755
303.788
306.149
308.08
307.234
308.357
309.667
309.395
309.635
307.017
302.033
299.095
298.28
298.782
302.802
304.292
304.909
302.378
296.34
290.255
286.064
273.898
265.098
268.512
256.157
239.299
246.128
269.37
288.894
310.355
316.197
309.337
307.193
315.298
316.205
304.802
310.162
305.964
311.824
326.868
323.858
315.892
313.896
336.89
340.116
329.289
331.912
351.726
332.754
303.231
286.259
287.195
281.465
276.189
272.331
270.052
268.782
270.954
275.995
277.359
277.427
278.6
280.506
281.79
283.509
284.265
283.482
283.945
284.761
285.323
285.887
286.989
286.83
287.237
287.272
286.928
287.177
286.632
286.628
286.798
286.577
286.798
286.803
286.801
287.001
287.198
287.603
287.974
288.62
289.358
290.056
290.885
291.544
292.143
292.844
293.521
294.118
294.634
295.142
295.54
295.919
296.184
296.515
296.907
297.389
298.03
298.455
298.563
299.247
299.554
299.968
300.866
301.672
302.657
303.647
304.585
305.248
305.968
306.827
305.704
303.894
303.728
305.314
305.961
305.534
306.774
307.582
308.198
311.566
311.878
311.009
310.462
310.603
312.094
311.561
309.838
304.725
302.309
304.596
301.679
296.56
300.543
303.492
295.21
282.675
279.795
285.874
293.508
297.574
299.455
300.033
300.681
298.977
296.816
297.802
300.005
302.065
305.038
304.884
305.663
306.109
303.91
304.475
303.179
302.57
303.831
309.036
317.092
327.311
335.067
317.193
302.467
301.93
292.166
295.241
305.895
314.107
309.253
300.737
301.092
302.159
303.869
307.685
308.269
306.241
306.862
309.443
309.345
311.453
312.214
307.678
302.765
301.096
300.527
307.216
311.208
313.359
313.388
307.119
298.428
294.474
281.39
269.976
274.893
262.198
241.975
249.025
277.421
296.877
314.41
320.191
314.512
313.159
320.658
316.723
314.977
321.503
312.846
310.43
312.678
320.91
319.15
327.666
337.407
348.162
338.914
314.035
348.823
346.778
323.71
299.706
287.246
280.298
273.416
269.548
269.473
273.38
278.105
279.107
279.06
281.956
285.257
283.955
282.549
282.368
284.22
283.814
284.546
284.911
285.505
285.997
285.937
285.666
284.999
284.574
283.582
283.183
283.278
282.916
283.135
283.545
283.69
284.405
284.891
285.51
286.499
287.507
288.691
290.036
291.397
292.41
293.28
294.182
294.914
295.617
296.448
297.14
297.671
298.343
298.849
299.23
299.609
300
300.296
300.4
300.552
300.782
300.942
301.343
301.507
301.997
302.658
303.656
304.675
305.923
306.934
307.727
307.687
308.796
309.903
308.11
307.231
309.13
310.427
307.251
303.03
302.517
304.521
307.402
309.728
312.43
312.206
311.495
313.026
312.111
308.642
302.04
303.875
307.838
299.556
294.828
301.952
300.766
289.413
280.26
281.444
289.481
295.968
299.409
299.52
300.549
302.38
299.603
300.096
303.245
305.183
305.193
305.763
303.82
305.137
306.635
305.728
305.33
303.38
301.735
301.834
304.352
305.659
313.316
328.796
320.596
297.822
293.262
289.439
293.934
308.142
312.937
301.458
291.038
290.542
295.911
300.685
303.887
302.549
298.902
301.796
306.125
303.841
306.151
310.964
310.279
306.493
305.983
302.87
306.63
311.053
316.003
319.746
314.935
306.511
302.71
287.063
273.243
280.418
269.855
245.716
248.784
279.182
302.504
318.672
322.636
312.388
312.279
317.774
309.324
311.463
313.892
316.036
311.138
313.543
319.912
323.37
326.755
331.599
334.055
358.522
311.725
322.441
335.364
334.58
313.905
287.543
280.412
273.558
270.901
272.713
277.599
282.289
282.374
281.368
281.833
286.425
286.366
284.942
285.321
284.897
284.221
285.095
286.21
285.988
285.995
284.564
283.193
282.075
281.149
281.255
281.011
281.297
281.883
282.327
283.029
283.301
283.925
284.338
284.695
285.375
285.832
286.36
286.886
287.629
288.224
288.877
289.839
290.783
291.724
292.692
293.519
294.294
295.114
295.864
296.582
297.261
298.055
298.928
299.515
299.841
299.849
300.046
300.128
300.18
300.424
300.812
301.63
302.309
303.256
304.24
305.521
306.51
306.11
308.935
309.325
307.208
309.225
312.499
310.586
305.287
303.58
306.653
309.269
310.413
311.504
312.399
313.949
312.813
308.269
304.281
301.573
307.208
307.55
299.749
302.776
309.401
300.728
287.57
280.717
281.701
288.78
296.083
298.64
296.689
298.521
299.746
297.452
299.715
302.517
304.015
305.535
307.399
305.967
308.228
310.413
312.403
312.423
312.217
310.456
308.518
306.75
307.498
313.643
329.038
318.822
300.413
289.378
291.151
292.791
297.471
296.44
292.196
290.2
292.618
296.095
298.821
302.945
300.621
295.379
304.733
313.05
305.85
305.052
311.231
313.38
309.692
312.545
310.802
309.08
307.692
313.005
320.357
316.858
312.245
311.044
292.159
276.13
285.472
277.528
250.212
247.236
275.776
303.56
318.828
317.436
305.378
303.794
301.432
296.082
293.451
294.335
298.76
304.952
310.797
303.871
315.966
321.895
336.137
324.593
339.711
320.745
305.202
320.978
332.163
316.98
288.111
281.184
274.726
273.093
275.808
280.69
283.606
282.769
283.569
282.743
282.465
283.632
281.204
282.981
284.218
285.597
286.357
285.047
282.95
280.911
279.214
278.738
279.398
279.609
280.733
281.943
283.287
284.481
284.754
285.428
285.926
286.233
286.768
287.174
287.55
287.866
288.207
288.474
288.899
289.066
289.285
289.679
290.007
290.409
291.028
291.709
292.545
293.455
294.255
295.117
295.792
296.614
297.644
298.664
299.688
300.335
301.068
301.145
301.683
302.054
302.594
303.614
304.511
305.05
305.987
305.45
307.456
306.591
308.037
311.293
308.076
306.286
309.885
310.221
307.081
308.018
311.4
312.767
312.645
311.277
312.762
318.086
316.51
309.558
306.677
307.236
308.363
303.637
300.642
305.419
305.499
294.352
284.281
282.075
283.448
289.985
297.513
297.453
293.375
297.202
299.013
300.623
301.865
303.092
305.319
309.466
310.995
308.292
308.26
306.745
309.576
310.402
312.526
312.519
312.446
308.478
304.355
305.358
321.296
319.011
303.945
287.407
291.99
295.271
290.485
288.191
291.074
290.808
293.403
292.994
296.31
302.439
297.924
292.712
309.234
320.97
312.061
311.481
318.739
320.023
311.647
315.764
318.309
314.249
306.544
310.371
319.358
315.148
314.991
317.782
295.74
277.811
289.307
284.671
255.919
245.697
267.821
297.575
311.821
306.722
299.875
299.228
291.48
283.573
276.445
276.479
280.139
285.141
287.587
291.197
307.053
315.102
338.239
347.391
321.636
314.316
301.658
319.791
325.634
312.374
288.624
281.592
275.221
274.97
277.64
280.459
284.038
283.583
283.445
283.472
280.974
282.291
283.165
284.954
284.798
282.105
280.782
279.377
278.829
279.333
279.834
280.01
280.853
281.792
282.943
283.315
282.721
282.554
282.209
281.971
282.105
282.249
282.677
282.983
283.18
283.762
284.426
284.905
285.636
286.299
286.871
287.403
287.909
288.393
288.988
289.542
290.112
290.715
291.152
291.898
292.551
293.548
294.646
296.033
297.476
299.026
300.191
301.204
302.042
302.799
303.003
303.416
304.322
303.609
305.681
305.169
306.519
306.751
305.598
310.52
311.345
307.398
309.216
311.578
309.191
308.147
309.769
310.783
310.875
311.171
313.535
319.944
321.563
314.743
307.351
304.631
301.783
297.655
300.871
303.274
296.818
286.865
281.669
284.142
287.198
292.727
297.203
292.794
289.757
295.231
300.584
306.408
306.568
306.706
309.634
313.149
312.522
310.586
310.377
306.347
307.065
307.168
308.57
310.383
312.301
313.664
307.57
304.782
317.377
321.205
308.581
291.182
295.095
302.189
301.975
294.988
292.546
288.269
285.207
284.516
294.054
300.337
295.42
296.742
316.987
323.534
315.298
319.752
328.819
327.77
315.078
320.677
327.58
322.213
309.805
312.658
321.029
313.571
316.133
322.707
298.205
279.113
291.938
290.774
262.53
245.674
258.276
285.838
299.519
293.814
295.715
301.493
280.561
277.239
269.207
264.858
269.154
266.309
270.34
285.131
301.653
311.065
316.456
339.873
316.426
304.017
301.465
317.992
317.131
310.32
289.608
283.455
276.795
274.83
278.123
279.742
283.431
284.288
282.193
282.777
284.154
285.189
283.196
280.802
280.971
281.763
283.264
283.173
281.635
280.038
279.471
279.989
280.525
280.534
280.147
280.215
280.44
280.803
281.168
281.506
281.951
282.058
282.045
282.257
282.305
282.411
282.658
282.824
283.034
283.198
283.32
283.354
283.462
283.633
283.854
284.22
284.578
285.171
285.598
286.436
287.287
288.436
289.297
290.923
292.331
294.416
296.258
297.791
299.095
300.46
301.067
301.044
303.405
302.921
303.534
304.022
304.564
307.046
305.214
306.683
309.9
307.735
309.536
313.28
311.01
306.6
307.159
310.252
312.133
312.993
313.583
316.803
320.505
317.342
304.11
296.255
299.486
304.381
307.055
300.544
290.921
283.535
281.299
284.662
288.705
292.609
293.187
288.628
290.675
298.763
306.534
311.192
307.903
308.216
309.292
308.618
308.114
310.501
312.341
309.361
307.817
306.237
304.711
305.913
307.073
312.64
312.222
301.57
313.017
322.351
316.222
294.758
296.801
297.359
299.691
293.225
288.096
285.937
278.836
282.208
295.564
300.705
302.292
312.657
327.228
323.25
318.894
326.774
331.512
327.631
317.145
327.119
336.923
329.411
315.477
319.207
324.971
313.015
317.243
325.771
298.869
279.737
292.999
295.034
269.055
248.319
250.809
272.008
284.715
278.891
286.41
301.749
282.364
271.909
262.603
257.294
263.876
264.074
259.726
268.577
288.124
313.193
315.135
327.138
311.368
302.125
300.765
311.284
304.409
307.415
290.658
285.555
279.606
275.282
278.367
280.714
281.169
284.169
285.935
286.468
283.975
280.222
279.838
282.929
285.35
283.647
281.164
279.588
278.593
278.95
280.15
282.154
283.797
284.785
285.036
284.326
283.221
282.604
282.575
282.419
282.09
281.746
281.456
281.761
282.446
283.271
284.197
285.038
285.779
286.323
286.58
286.538
286.424
286.356
286.344
286.399
286.166
285.875
285.478
285.258
285.244
285.797
286.026
286.428
288.159
289.827
292.523
295.164
296.843
298.847
301.013
300.949
301.689
303.535
304.019
305.684
304.611
305.948
307.003
308.085
311.057
307.789
306.379
310.831
312.171
309.243
309.392
311.88
312.118
311.14
312.848
316.347
316.112
315.891
305.198
292.83
296.578
305.58
306.459
295.387
286.435
281.456
281.178
283.602
286.717
289.807
289.583
289.131
296.135
303.829
308.46
306.573
301.895
302.906
300.687
299.054
299.669
302.216
303.465
303.279
303.538
302.428
300.394
300.327
301.53
305.339
312.4
301.225
306.109
323.118
322.948
296.463
296.934
293.891
289.887
285.612
281.195
282.937
282.795
290.076
300.068
307.948
318.478
328.222
331.763
324.403
326.443
331.26
326.978
320.796
316.949
329.458
338.119
328.815
317.983
326.074
328.88
312.495
318.7
327.611
298.26
279.814
293.226
297.528
274.544
253.02
246.439
259.966
269.92
265.958
278.082
296.45
284.236
268.407
263.984
252.715
256.641
265.449
259.67
261.712
279.413
302.054
312.673
327.734
311.779
305.861
303.053
304.198
292.991
304.352
291.663
287.487
282.729
276.737
276.538
281.186
284.157
285.572
284.705
281.403
280.084
283.505
285.318
280.82
278.863
281.481
282.758
281.766
279.883
279.458
280.232
281.347
281.565
281.078
281.057
281.559
281.94
281.87
281.609
281.139
280.701
281.052
282.099
283.413
284.455
285.005
285.196
285.203
285.062
284.716
284.291
283.928
283.763
284.04
285.252
286.522
287.553
287.888
288.404
288.466
288.828
288.329
287.636
286.091
285.131
285.957
286.956
289.879
293.616
295.786
297.658
300.342
300.348
301.552
301.182
302.994
303.926
304.456
304.831
304.993
309.467
309.867
306.027
308.393
312.247
311.525
309.91
310.347
310.424
309.957
311.609
318.319
318.366
318.609
312.806
295.625
292.571
301.659
303.981
292.141
284.083
281.363
280.696
281.425
282.127
285.17
286.947
291.195
299.939
304.122
304.517
300.93
299.954
301.985
300.564
303.039
303.642
303.432
301.458
299.692
298.361
296.029
295.967
297.005
298.702
300.559
310.429
304.775
302.021
319.242
318.495
295.191
298.657
299.673
292.792
280.896
274.785
276.78
283.122
292.73
304.484
316.904
326.995
328.906
327.036
325.487
326.95
320.8
314.72
311.564
313.987
322.851
328.892
321.213
318.469
333.05
331.962
311.575
319.815
328.3
297.01
279.507
292.954
298.942
278.924
258.908
246.29
251.903
258.801
257.311
274.159
292.037
282.318
268.803
269.84
258.681
254.505
263.801
259.838
262.161
277.194
299.881
300.825
315.057
309.116
310.004
304.623
297.326
291.127
307.473
292.531
288.823
284.56
278.754
275.526
275.917
277.992
280.999
285.466
290.785
291.981
284.156
276.812
277.752
280.773
282.066
281.774
280.977
280.064
279.802
280.729
282.005
282.425
281.866
280.873
280.202
280.037
280.233
280.509
280.872
281.548
282.728
283.75
283.984
283.408
282.489
281.568
281.038
281.033
281.337
282.058
282.795
283.019
282.577
283.448
284.948
286.127
285.423
284.476
284.698
286.339
289.393
289.82
289.424
287.717
286.268
287.13
288.304
290.933
295.298
296.945
298.849
299.624
300.953
302.379
303.09
303.646
304.702
306.422
304.856
304.737
308.954
307.62
307.565
310.855
311.393
309.398
309.65
311.005
312.04
311.172
316.579
317.272
315.205
313.667
298.087
288.814
295.562
301.11
290.613
282.423
282.075
280.363
279.571
277.761
280.839
284.434
291.048
298.884
301.996
302.214
300.441
301.977
304.333
305.504
310.913
310.589
311.332
310.231
307.682
302.912
295.971
291.014
291.308
294.061
295.17
304.531
304.833
298.865
314.182
313.27
289.032
302.88
305.377
299.479
286.506
279.447
280.051
286.36
301.814
316.068
323.571
324.478
322.253
315.11
314.342
306.952
293.718
295.029
295.738
299.796
302.484
311.129
311.27
318.872
338.993
335.284
310.934
320.567
329.062
295.699
278.48
292.425
298.92
283.187
263.476
247.876
247.023
252.212
253.456
272.685
286.662
279.139
268.618
277.634
273.863
262.97
265.162
259.795
256.674
271.814
296.951
302.836
308.517
307.685
309.394
304.168
293.425
297.961
309.337
293.021
289.041
285.934
283.788
283.212
282.314
281.166
279.806
279.133
278.436
281.144
289.142
289.629
282.529
278.211
279.101
281.114
282.021
281.578
279.623
277.748
277.201
277.896
279.187
280.654
281.962
282.779
283.167
283.218
283.141
282.889
282.636
282.324
281.829
281.317
281.049
280.836
280.6
280.794
281.007
281.539
282.783
283.902
283.82
283.5
285.08
286.599
287.924
286.716
286.296
286.147
287.524
289.663
289.405
289.166
287.577
286.339
288.123
290.313
294.006
296.833
298.151
300.024
300.095
300.807
301.17
302.712
302.599
303.507
306.857
303.948
306.81
308.221
306.467
307.328
310.019
310.081
310.518
311.153
311.188
310.072
315.553
318.237
315.07
313.513
301.354
287.881
290.063
298.117
289.721
281.472
282.262
281.338
279.929
277.449
280.097
284.517
291.378
298.421
300.758
300.881
300.369
302.758
303.714
304.376
310.124
311.113
312.63
314.165
313.325
310.792
306.874
295.648
288.666
292.088
293.368
299.535
305.917
296.295
307.271
312.591
289.899
309.688
312.635
305.702
298.938
290.631
293.292
303.321
317.487
323.987
321.944
317.895
310.176
294.258
283.11
277.076
265.427
270.15
267.399
268.5
271.116
287.966
301.241
317.445
338.486
337.398
310.449
319.497
330.035
296.066
277.883
291.684
298.459
287.904
265.895
249.658
245.257
249.201
254.412
272.185
281.497
277.148
271.008
282.838
287.053
276.067
269.151
261.922
256.56
272.023
288.889
298.097
300.125
307.509
308.34
302.009
291.667
304.02
307.833
293.723
289.288
287.438
289.215
290.328
290.357
290.369
290.173
288.282
286.659
283.042
278.761
283.72
288.565
285.84
281.56
280.066
280.515
281.031
280.037
278.243
277.051
276.876
277.626
278.605
279.431
280.033
280.395
280.361
280.017
279.714
279.893
280.136
279.9
279.382
279.365
279.867
280.24
280.65
281.122
280.982
281.964
283.065
284.11
283.744
284.356
284.077
283.116
283.415
285.071
287.947
288.679
288.937
288.007
286.997
286.718
286.433
289.057
292.678
295.223
297.846
297.725
298.839
299.13
300.889
300.915
301.488
303.358
300.547
303.954
303.271
303.143
306.82
306.819
306.231
309.747
310.386
309.337
309.732
310.371
309.512
313.046
317.194
316.379
313.117
304.048
288.383
286.109
294.406
289.146
280.79
281.584
281.743
281.808
281.183
284.112
287.673
293.979
300.473
302.402
301.184
300.615
303.193
306.27
306.851
311.666
312.698
313.11
313.941
310.951
307.484
308.13
302.467
290.372
289.127
290
296.187
305.767
297.553
301.237
314.685
294.998
308.819
317.15
312.418
313.888
308.041
309.844
317.856
323.602
323.623
313.343
303.87
284.928
268.093
250.936
257.349
243.744
242.673
238.698
239.908
245.413
266.314
290.47
308.743
325.552
334.67
310.732
316.797
330.499
298.017
277.713
289.502
298.538
292.591
267.087
249.96
244.862
250.103
257.382
271.527
278.717
276.918
275.266
280.435
289.14
287.226
275.824
263.517
253.856
269.209
289.41
298.304
292.623
301.987
305.818
298.99
289.948
301.438
299.606
294.915
291.221
288.68
290.022
291.659
292.351
292.06
291.326
291.707
290.761
291.844
287.533
281.603
283.74
287.674
285.259
280.11
277.949
279.465
282.224
283.549
282.851
281.463
280.078
279.077
278.613
278.751
279.186
279.548
279.87
280.332
280.536
280.623
280.919
281.212
281.477
280.794
279.99
279.928
280.534
280.223
280.645
282.133
281.788
280.534
281.592
286.073
286.491
283.05
280.446
282.828
286.622
288.867
288.945
285.931
283.971
284.678
287.624
292.362
294.454
295.764
296.277
297.788
298.069
298.37
300.719
299.608
302.602
302.267
302.591
305.036
302.704
305.552
307.374
306.355
307.347
309.248
309.253
309.839
310.595
309.443
310.529
314.583
317.103
313.807
306.855
290.155
283.632
289.975
289.456
280.04
280.75
281.361
282.263
284.304
287.812
290.188
294.184
299.429
302.489
301.527
300.598
302.315
308.558
310.387
314.679
317.965
320.339
320.638
316.464
308.808
305.268
303.61
294.002
288.808
287.637
289.61
300.391
297.237
294.598
317.752
296.312
302.117
318.813
313.199
321.518
320.235
320.196
322.746
320.325
313.058
293.321
276.843
257.334
247.41
232.266
244.226
228.141
224.118
231.119
235.522
234.247
248.752
277.085
290.049
301.366
323.19
309.165
312.906
330.776
301.207
279
286.317
298.648
296.601
268.401
250.213
245.513
251.818
261.246
272.069
277.108
276.892
276.96
274.175
281.4
292.795
280.249
265.53
250.508
266.338
283.691
300.184
292.274
297.545
303.858
298.871
286.313
291.417
293.921
295.922
293.488
292.392
292.518
293.01
292.523
292.841
291.925
291.278
290.513
290.342
292.556
289.442
283.993
284.829
287.894
287.572
284.535
281.875
280.787
279.967
279.597
279.149
279.055
279.649
280.177
280.886
281.312
281.779
281.6
281.311
281.251
280.325
279.573
279.303
279.2
278.925
278.801
279.681
280.162
280.972
281.77
283.156
283.788
284.335
284.288
285.17
286.353
284.99
281.863
280.273
283.041
285.434
285.69
284.168
282.881
284.77
288.183
291.475
293.573
294.08
295.169
295.318
297.834
297.391
298.966
299.769
299.66
301.557
299.857
302.731
303.166
305.364
306.821
307.23
306.549
308.465
308.519
308.584
309.715
308.575
308.369
311.579
316.824
316.068
309.859
294.005
283.266
285.674
289.359
280.407
279.446
280.799
281.725
284.883
289.091
291.076
292.857
296.472
299.654
300.288
300.201
301.016
306.016
307.863
309.88
313.47
317.14
321.534
324.599
316.458
306.736
304.095
294.938
288.422
287.577
288.101
297.911
299.11
289.349
310.333
298.567
296.063
316.959
306.653
314.958
319.076
317.669
315.678
308.933
294.521
270.672
253.811
243.921
237.562
224.84
238.599
227.671
224.239
243.795
249.473
233.575
233.512
256.074
264.248
275.807
305.828
304.131
307.707
330.365
305.773
281.888
282.66
298.645
299.971
269.439
250.455
246.464
253.636
264.798
274.152
279.024
276.214
274.487
267.78
270.441
292.859
283.069
266.157
248.915
268.119
283.031
300.137
292.335
292.678
302.609
300.851
286.194
287.997
292.949
296.449
293.223
291.72
290.897
289.738
289.048
289.43
289.388
289.288
290.62
290.445
292.826
292.79
288.835
288.081
289.263
286.643
282.523
280.832
280.621
281.222
281.279
280.474
280.551
280.186
280.366
280.373
280.015
280.346
279.755
278.898
279.07
279.099
278.772
279.508
280.052
280.809
281.285
281.793
283.296
284.103
284.143
283.328
284.03
283.461
282.519
281.334
281.993
281.206
279.034
278.463
280.558
282.748
281.661
278.656
278.174
281.183
286.018
288.47
290.62
291.734
293.963
295.819
296.433
299.162
298.682
300.395
299.547
301.198
301.605
302.042
302.417
302.426
303.687
305.726
305.185
306.547
307.827
308.065
309.728
308.701
307.429
307.829
313.647
317.116
311.683
299.034
284.881
283.076
287.705
281.77
278.13
279.338
280.52