/*--------------------------------*- C++ -*----------------------------------*\
| =========                 |                                                 |
| \\      /  F ield         | OpenFOAM: The Open Source CFD Toolbox           |
|  \\    /   O peration     | Version:  dev                                   |
|   \\  /    A nd           | Web:      http://www.openfoam.org               |
|    \\/     M anipulation  |                                                 |
\*---------------------------------------------------------------------------*/
FoamFile
{
    version     2.0;
    format      ascii;
    class       volVectorField;
    object      U_0;
    location    "9.134";
}
// * * * * * * * * * * * * * * * * * * * * * * * * * * * * * * * * * * * * * //

dimensions      [0 1 -1 0 0 0 0];

internalField   nonuniform List<vector> 
12225
(
(7.22243 0.0372075 0)
(4.33988 -0.256034 0)
(2.41902 -0.421813 0)
(2.57739 -0.523598 0)
(2.24808 -0.506301 0)
(2.99772 -0.609786 0)
(3.24105 -0.52906 0)
(3.88759 -0.617037 0)
(4.40432 -0.538223 0)
(5.38057 -0.683375 0)
(6.36588 -0.569932 0)
(7.26627 -0.580354 0)
(9.32951 -0.543952 0)
(11.4658 -0.91661 0)
(21.9 -0.910162 0)
(22.0212 -3.54686 0)
(46.9166 -4.49821 0)
(51.517 0.638463 0)
(9.83336 -0.151768 0)
(8.99797 -0.348964 0)
(5.89358 -0.750703 0)
(5.56436 -1.13773 0)
(3.04679 -1.17452 0)
(3.56322 -1.45164 0)
(1.90062 -1.18611 0)
(2.05871 -1.50355 0)
(1.32096 -1.29219 0)
(1.90917 -1.795 0)
(2.06505 -1.46669 0)
(2.63734 -2.11174 0)
(5.74011 -2.74843 0)
(8.33024 -5.02726 0)
(17.909 -6.47072 0)
(22.95 -11.5599 0)
(36.0219 -7.03045 0)
(39.3466 2.70896 0)
(9.51079 -1.30321 0)
(11.545 -1.11768 0)
(8.46785 -1.3301 0)
(9.69556 -1.74043 0)
(6.28505 -1.66203 0)
(7.55365 -2.21834 0)
(5.00091 -1.69108 0)
(5.32772 -2.36935 0)
(4.16905 -1.95886 0)
(4.7101 -2.91826 0)
(4.63914 -2.27417 0)
(4.72563 -3.51494 0)
(7.55901 -3.96548 0)
(8.39116 -6.03915 0)
(13.5307 -7.83482 0)
(10.0859 -9.72236 0)
(16.1772 -6.18527 0)
(19.3133 4.00088 0)
(8.01874 -2.37454 0)
(13.1687 -2.10279 0)
(9.2567 -2.13294 0)
(11.9675 -2.59651 0)
(8.79512 -2.35681 0)
(10.2959 -3.10961 0)
(8.46727 -2.3339 0)
(8.31618 -3.40065 0)
(7.79986 -2.72305 0)
(8.69133 -4.14193 0)
(7.91082 -3.05278 0)
(9.35256 -4.89852 0)
(7.46128 -5.51558 0)
(12.6589 -8.40045 0)
(9.4471 -10.6335 0)
(13.921 -14.7167 0)
(8.67181 -9.882 0)
(3.93579 1.99303 0)
(6.83942 -3.4216 0)
(12.7606 -3.71839 0)
(9.74974 -2.96029 0)
(12.1372 -4.03235 0)
(10.2855 -2.87172 0)
(11.0216 -4.55713 0)
(10.9524 -2.77832 0)
(10.144 -4.50701 0)
(9.76424 -3.60297 0)
(11.3909 -5.21111 0)
(8.91871 -3.97682 0)
(12.3144 -5.6107 0)
(6.41637 -6.77597 0)
(15.582 -8.69038 0)
(7.17677 -10.1925 0)
(14.6974 -13.2901 0)
(4.204 -4.148 0)
(-2.55807 1.16419 0)
(8.25319 -4.40871 0)
(10.8934 -5.56039 0)
(10.9176 -4.30162 0)
(10.7137 -5.43802 0)
(11.965 -4.23966 0)
(10.6921 -5.73121 0)
(12.3676 -4.11882 0)
(11.7474 -5.19931 0)
(11.0276 -5.255 0)
(13.4138 -6.10774 0)
(9.70618 -5.49879 0)
(14.2212 -5.47701 0)
(6.79719 -9.44749 0)
(16.0921 -9.27464 0)
(5.66668 -13.5668 0)
(13.3563 -11.8954 0)
(2.88471 -3.98085 0)
(6.87306 5.56193 0)
(7.97059 -5.35727 0)
(11.7253 -7.29477 0)
(9.05043 -5.28362 0)
(12.1599 -7.32545 0)
(10.058 -4.97111 0)
(12.5609 -7.56423 0)
(10.7833 -5.33201 0)
(14.4406 -6.69227 0)
(10.1652 -6.34889 0)
(13.976 -6.97056 0)
(5.74494 -6.49967 0)
(19.2895 -7.0316 0)
(7.0485 -9.5529 0)
(17.5152 -10.5835 0)
(5.10636 -12.5511 0)
(13.447 -13.2988 0)
(-0.163419 -4.08392 0)
(16.2542 4.17135 0)
(8.47344 -6.76844 0)
(12.095 -8.42873 0)
(8.28176 -6.79725 0)
(12.0451 -8.37833 0)
(7.85311 -6.48575 0)
(13.5086 -8.50389 0)
(6.35997 -6.95632 0)
(15.7835 -7.90644 0)
(6.34173 -6.92322 0)
(13.2277 -6.95879 0)
(2.49748 -10.6274 0)
(20.977 -8.24127 0)
(6.42492 -10.0334 0)
(14.2262 -10.1766 0)
(3.70998 -13.6063 0)
(9.60711 -11.3332 0)
(-1.81173 -5.30954 0)
(14.7786 1.86875 0)
(8.93026 -7.68238 0)
(11.4645 -9.63242 0)
(8.16551 -7.79643 0)
(11.9451 -9.43297 0)
(6.40925 -7.85235 0)
(13.801 -9.0484 0)
(2.97906 -8.6157 0)
(15.3076 -8.65745 0)
(1.19967 -7.64654 0)
(17.6146 -7.97503 0)
(3.47879 -11.3105 0)
(15.5627 -10.2576 0)
(4.30523 -9.42318 0)
(14.8511 -11.521 0)
(4.28414 -11.9481 0)
(6.45659 -11.3665 0)
(0.876452 -5.4483 0)
(8.65902 -4.20726 0)
(9.62876 -9.00639 0)
(11.0867 -10.5329 0)
(9.25541 -9.36627 0)
(11.3452 -10.056 0)
(7.8928 -9.68733 0)
(12.761 -9.5401 0)
(5.56112 -9.83649 0)
(13.0501 -9.50627 0)
(3.71673 -9.71718 0)
(16.0146 -10.0981 0)
(6.22538 -11.2539 0)
(11.7127 -11.3 0)
(4.92967 -11.2492 0)
(12.4899 -12.1901 0)
(4.22382 -10.9616 0)
(7.10005 -12.8991 0)
(3.2119 -7.69819 0)
(9.54835 -9.67273 0)
(9.15527 -10.171 0)
(10.8225 -12.2076 0)
(9.20453 -10.6405 0)
(10.7435 -11.4861 0)
(9.06415 -11.1496 0)
(10.8625 -10.4909 0)
(8.53857 -11.1229 0)
(10.9156 -10.404 0)
(8.02152 -11.6642 0)
(11.6136 -11.7068 0)
(7.30279 -11.5929 0)
(10.8103 -12.2722 0)
(6.21118 -11.9833 0)
(9.81984 -13.0512 0)
(3.97216 -10.6692 0)
(8.63361 -13.4319 0)
(3.19392 -10.1833 0)
(9.77464 -11.4529 0)
(9.84065 -11.821 0)
(10.6493 -13.3262 0)
(9.42256 -12.231 0)
(10.6073 -12.8215 0)
(9.28561 -12.4354 0)
(10.3139 -12.2126 0)
(9.56424 -12.2393 0)
(10.2149 -12.2639 0)
(9.46347 -12.5581 0)
(9.93933 -13.0148 0)
(8.37936 -12.5866 0)
(9.59657 -13.1509 0)
(7.15623 -13.0111 0)
(8.98723 -13.4356 0)
(5.00754 -11.7205 0)
(8.46851 -14.2854 0)
(4.6602 -11.4211 0)
(8.12559 -12.2851 0)
(10.1025 -13.3039 0)
(10.3571 -14.9453 0)
(9.95576 -13.8267 0)
(10.397 -14.3769 0)
(9.75433 -13.9403 0)
(10.1341 -13.7528 0)
(9.85914 -13.7251 0)
(10.094 -13.6428 0)
(9.69959 -13.7337 0)
(9.75846 -14.1431 0)
(8.96366 -13.7482 0)
(9.29996 -14.2219 0)
(8.24799 -13.9136 0)
(8.63549 -14.1914 0)
(7.15805 -13.0349 0)
(8.36555 -14.7172 0)
(6.63131 -13.256 0)
(7.70408 -13.1335 0)
(10.2591 -15.023 0)
(10.2952 -16.2096 0)
(10.09 -15.4292 0)
(10.1873 -15.691 0)
(9.8712 -15.2987 0)
(9.9739 -15.3688 0)
(9.96764 -15.0988 0)
(10.0125 -15.262 0)
(9.87818 -15.0378 0)
(9.851 -15.3327 0)
(9.3697 -15.0205 0)
(9.38303 -15.2295 0)
(8.91214 -15.0132 0)
(8.68796 -15.0632 0)
(8.3894 -14.4442 0)
(8.59162 -15.1773 0)
(7.88248 -14.5755 0)
(7.85333 -14.2012 0)
(10.2834 -16.5828 0)
(10.0421 -17.5828 0)
(10.0233 -16.9229 0)
(10.017 -16.9882 0)
(9.92248 -16.7248 0)
(9.93279 -16.6407 0)
(9.9718 -16.4513 0)
(9.90871 -16.4483 0)
(9.84781 -16.2428 0)
(9.78665 -16.358 0)
(9.56298 -16.1359 0)
(9.48123 -16.1486 0)
(9.2113 -16.0064 0)
(8.9894 -15.9077 0)
(8.88695 -15.5565 0)
(8.74827 -15.7178 0)
(8.39301 -15.4708 0)
(8.19965 -15.1019 0)
(10.093 -17.5749 0)
(9.82849 -18.3414 0)
(9.84607 -17.9473 0)
(9.84514 -17.9195 0)
(9.89283 -17.7587 0)
(9.95066 -17.665 0)
(10.0726 -17.5319 0)
(10.1164 -17.4659 0)
(10.1088 -17.2857 0)
(10.0847 -17.2292 0)
(9.979 -17.0446 0)
(9.84827 -16.9354 0)
(9.66874 -16.781 0)
(9.46908 -16.6107 0)
(9.304 -16.3681 0)
(9.16084 -16.2947 0)
(8.94986 -16.0446 0)
(8.67848 -15.7036 0)
(10.0313 -18.2297 0)
(9.88238 -18.803 0)
(10.0938 -18.4839 0)
(10.1856 -18.3853 0)
(10.2901 -18.2599 0)
(10.3546 -18.1493 0)
(10.4154 -18.0058 0)
(10.4219 -17.8716 0)
(10.4103 -17.6732 0)
(10.3523 -17.4669 0)
(10.2828 -17.2461 0)
(10.1434 -17.0475 0)
(9.96996 -16.8434 0)
(9.80821 -16.6579 0)
(9.60629 -16.4428 0)
(9.45566 -16.2839 0)
(9.30254 -16.0783 0)
(9.08445 -15.8313 0)
(10.1054 -17.9131 0)
(9.98896 -18.6337 0)
(10.1927 -18.2948 0)
(10.3135 -18.1007 0)
(10.44 -17.9252 0)
(10.559 -17.7914 0)
(10.6139 -17.645 0)
(10.638 -17.4957 0)
(10.6581 -17.3089 0)
(10.6426 -17.0724 0)
(10.6153 -16.8374 0)
(10.5564 -16.6293 0)
(10.4549 -16.3911 0)
(10.3145 -16.1934 0)
(10.1878 -15.9923 0)
(10.0523 -15.8122 0)
(9.89891 -15.63 0)
(9.70509 -15.3946 0)
(10.2411 -17.0433 0)
(10.0188 -17.5587 0)
(10.2664 -17.1561 0)
(10.4419 -17.0239 0)
(10.5792 -16.8706 0)
(10.7399 -16.7431 0)
(10.7924 -16.5797 0)
(10.8479 -16.4282 0)
(10.9012 -16.2539 0)
(10.9336 -16.0382 0)
(10.9149 -15.8225 0)
(10.9235 -15.5653 0)
(10.8791 -15.3178 0)
(10.7767 -15.0704 0)
(10.6742 -14.8429 0)
(10.5706 -14.6576 0)
(10.4522 -14.4879 0)
(10.2785 -14.2739 0)
(10.3618 -15.4139 0)
(10.0843 -15.9993 0)
(10.3162 -15.7385 0)
(10.5555 -15.5574 0)
(10.7834 -15.3274 0)
(10.976 -15.1924 0)
(11.0579 -15.085 0)
(11.1084 -14.973 0)
(11.1233 -14.8091 0)
(11.1384 -14.6351 0)
(11.1023 -14.3871 0)
(11.1254 -14.1433 0)
(11.1006 -13.9229 0)
(11.0583 -13.6916 0)
(10.9854 -13.4814 0)
(10.9296 -13.3099 0)
(10.8385 -13.1536 0)
(10.726 -12.9469 0)
(10.3094 -13.7186 0)
(10.2683 -14.122 0)
(10.518 -13.9669 0)
(10.7018 -13.9397 0)
(10.92 -13.8048 0)
(11.1562 -13.6048 0)
(11.3505 -13.392 0)
(11.4529 -13.1943 0)
(11.5116 -13.0505 0)
(11.5501 -12.9408 0)
(11.5208 -12.7692 0)
(11.4923 -12.608 0)
(11.4644 -12.4165 0)
(11.4212 -12.2159 0)
(11.3179 -12.0064 0)
(11.2373 -11.8281 0)
(11.1314 -11.6711 0)
(10.9951 -11.4709 0)
(10.1142 -11.8877 0)
(10.217 -12.3687 0)
(10.6825 -12.1726 0)
(11.01 -12.1169 0)
(11.2124 -12.0049 0)
(11.3562 -11.8526 0)
(11.5121 -11.6654 0)
(11.6238 -11.5217 0)
(11.6992 -11.3841 0)
(11.7301 -11.2465 0)
(11.7127 -11.1215 0)
(11.6342 -10.9363 0)
(11.581 -10.7558 0)
(11.4952 -10.5842 0)
(11.3926 -10.3809 0)
(11.2901 -10.2263 0)
(11.1905 -10.0812 0)
(11.0741 -9.91122 0)
(10.4411 -10.1671 0)
(10.4561 -10.6302 0)
(10.8453 -10.5135 0)
(11.1375 -10.4313 0)
(11.3564 -10.2491 0)
(11.5519 -10.0664 0)
(11.7169 -9.91461 0)
(11.825 -9.79361 0)
(11.87 -9.68498 0)
(11.8902 -9.56532 0)
(11.8618 -9.44435 0)
(11.8164 -9.28614 0)
(11.752 -9.13802 0)
(11.6996 -8.98463 0)
(11.6359 -8.84312 0)
(11.5545 -8.70671 0)
(11.4877 -8.60176 0)
(11.4132 -8.46225 0)
(10.1543 -8.3957 0)
(10.3123 -8.87572 0)
(10.8028 -8.80783 0)
(11.1473 -8.72567 0)
(11.4328 -8.57629 0)
(11.6737 -8.43986 0)
(11.9304 -8.28592 0)
(12.1028 -8.15487 0)
(12.2104 -8.0465 0)
(12.2527 -7.93074 0)
(12.2303 -7.83077 0)
(12.1636 -7.72244 0)
(12.071 -7.61014 0)
(11.9906 -7.497 0)
(11.8984 -7.39325 0)
(11.8033 -7.29301 0)
(11.7129 -7.18435 0)
(11.6134 -7.06355 0)
(10.3192 -6.74226 0)
(10.6098 -7.32299 0)
(11.194 -7.29647 0)
(11.5909 -7.18582 0)
(11.8768 -7.04636 0)
(12.0971 -6.92758 0)
(12.3166 -6.80831 0)
(12.4495 -6.70699 0)
(12.5079 -6.58934 0)
(12.501 -6.47556 0)
(12.4584 -6.35878 0)
(12.3819 -6.24866 0)
(12.3165 -6.15126 0)
(12.2346 -6.05489 0)
(12.1673 -5.97035 0)
(12.0883 -5.88754 0)
(12.0112 -5.79717 0)
(11.923 -5.70826 0)
(10.3313 -5.51872 0)
(10.6785 -5.96297 0)
(11.3207 -5.88446 0)
(11.7538 -5.7838 0)
(12.0092 -5.6598 0)
(12.2032 -5.51094 0)
(12.4108 -5.36477 0)
(12.5469 -5.22758 0)
(12.6284 -5.11164 0)
(12.6306 -5.01358 0)
(12.5779 -4.93561 0)
(12.4881 -4.88454 0)
(12.3841 -4.8464 0)
(12.2799 -4.79661 0)
(12.1799 -4.73664 0)
(12.0817 -4.67449 0)
(11.9731 -4.60513 0)
(11.8573 -4.52471 0)
(10.5795 -4.14407 0)
(10.9177 -4.6587 0)
(11.6072 -4.63115 0)
(12.0366 -4.49087 0)
(12.2473 -4.35299 0)
(12.3408 -4.19817 0)
(12.4077 -4.11381 0)
(12.4136 -4.00883 0)
(12.3927 -3.9093 0)
(12.3308 -3.79667 0)
(12.2445 -3.6974 0)
(12.1152 -3.6357 0)
(11.9658 -3.58968 0)
(11.7775 -3.54136 0)
(11.5727 -3.49767 0)
(11.3492 -3.46361 0)
(11.1236 -3.42614 0)
(10.9132 -3.36039 0)
(10.5294 -3.12166 0)
(11.1284 -3.5382 0)
(11.5757 -3.45953 0)
(11.6014 -3.26741 0)
(11.4477 -3.08802 0)
(11.2375 -2.89788 0)
(11.0153 -2.79463 0)
(10.7399 -2.70907 0)
(10.4712 -2.63096 0)
(10.2087 -2.54368 0)
(9.95798 -2.48882 0)
(9.69903 -2.44336 0)
(9.4432 -2.40505 0)
(9.1631 -2.36519 0)
(8.88807 -2.34067 0)
(8.59239 -2.32234 0)
(8.34782 -2.30715 0)
(8.08659 -2.26871 0)
(10.5225 -2.19142 0)
(10.6029 -2.5137 0)
(9.98394 -2.30006 0)
(9.05336 -2.00767 0)
(8.22222 -1.76077 0)
(7.60309 -1.57542 0)
(7.12554 -1.48314 0)
(6.71565 -1.44113 0)
(6.39247 -1.40052 0)
(6.11023 -1.36125 0)
(5.85945 -1.34114 0)
(5.63169 -1.32025 0)
(5.40832 -1.3075 0)
(5.1858 -1.29665 0)
(4.96545 -1.29754 0)
(4.74815 -1.30727 0)
(4.58083 -1.33947 0)
(4.40621 -1.30033 0)
(8.89564 -0.972054 0)
(6.45817 -0.843605 0)
(4.94818 -0.583303 0)
(4.13407 -0.44931 0)
(3.90423 -0.400978 0)
(3.98616 -0.387167 0)
(4.15078 -0.390421 0)
(4.29331 -0.390618 0)
(4.41521 -0.385814 0)
(4.49663 -0.389061 0)
(4.53594 -0.391429 0)
(4.53855 -0.392541 0)
(4.49661 -0.394562 0)
(4.41084 -0.398254 0)
(4.27553 -0.408526 0)
(4.08664 -0.433259 0)
(3.82392 -0.468849 0)
(3.4243 -0.462799 0)
(-0.142457 0.00865332 0)
(-0.279554 -0.112052 0)
(-0.350356 -0.136336 0)
(-0.439075 -0.11538 0)
(-0.53986 -0.100605 0)
(-0.650885 -0.0957817 0)
(-0.763233 -0.0688475 1.06275e-17)
(-0.899307 -0.0775422 -1.05463e-17)
(-1.00532 -0.0888226 0)
(-1.08724 -0.0744308 -1.03968e-17)
(-1.17859 -0.0759034 0)
(-1.24833 -0.0622806 0)
(-1.31995 -0.0167719 0)
(-1.42764 0.0512156 1.01438e-17)
(-1.57433 0.145684 0)
(-1.81047 0.217537 0)
(-2.20284 0.257795 -9.99007e-18)
(-2.6021 0.335138 0)
(-3.04649 0.541477 0)
(-3.62705 0.779593 0)
(-4.16734 0.864777 9.84826e-18)
(-4.43322 0.790925 0)
(-4.48871 0.397937 9.76662e-18)
(-4.49669 -0.278012 0)
(-4.55219 -0.946645 0)
(-4.59175 -1.26439 9.66235e-18)
(-4.60018 -0.940349 0)
(-4.9066 -0.181482 -9.69543e-18)
(-5.5245 0.426392 0)
(-6.18109 0.638965 9.68911e-18)
(-6.76328 0.625644 0)
(-7.2528 0.543687 0)
(-7.66698 0.463764 0)
(-8.00374 0.393787 0)
(-8.26604 0.336541 0)
(-8.46873 0.286032 -9.36645e-18)
(-8.61478 0.241793 0)
(-8.69598 0.191956 1.85155e-17)
(-8.70795 0.147623 0)
(-8.65829 0.104469 -1.82962e-17)
(-8.54233 0.0613594 0)
(-8.37272 0.0151296 0)
(-8.15842 -0.0290733 1.79688e-17)
(-7.90178 -0.0639352 0)
(-7.61802 -0.103988 1.77538e-17)
(-7.31786 -0.142329 -1.76477e-17)
(-6.99795 -0.178415 0)
(-6.62671 -0.200985 -1.74401e-17)
(-6.25234 -0.241158 -1.73391e-17)
(-5.85778 -0.289489 0)
(-5.4275 -0.313366 0)
(-5.00638 -0.345394 0)
(-4.59222 -0.372474 0)
(-4.16146 -0.397917 0)
(-3.70774 -0.427341 1.67451e-17)
(-3.3372 -0.464827 0)
(-3.0255 -0.468204 -1.65399e-17)
(-2.68965 -0.461571 0)
(-2.38457 -0.495684 0)
(-2.14368 -0.52459 1.62373e-17)
(-1.91171 -0.567336 0)
(-1.68241 -0.611444 -1.60433e-17)
(-1.44269 -0.641578 0)
(-1.16257 -0.686557 0)
(-0.874247 -0.748257 0)
(-0.575191 -0.782067 1.56735e-17)
(-0.283733 -0.813903 0)
(-0.0228892 -0.831098 0)
(0.174746 -0.861137 1.5401e-17)
(0.316279 -0.866003 0)
(0.440029 -0.862263 1.52044e-17)
(0.519439 -0.866087 0)
(0.565086 -0.86523 0)
(0.56233 -0.861304 0)
(0.523647 -0.850087 -1.47944e-17)
(0.428353 -0.860401 0)
(0.271461 -0.906052 0)
(0.226123 -0.958286 -1.44992e-17)
(0.300817 -0.992493 -1.43979e-17)
(0.462085 -1.00152 0)
(0.666229 -1.06712 -1.41906e-17)
(0.876938 -1.1068 0)
(1.18848 -1.14319 -2.79455e-17)
(1.53295 -1.12098 0)
(1.92542 -1.03813 -2.75099e-17)
(2.24194 -0.954718 0)
(2.43831 -0.886044 2.70061e-17)
(2.58878 -0.859582 0)
(2.69756 -0.844294 0)
(2.99327 -0.912884 0)
(3.76599 -1.14832 -2.58327e-17)
(5.24527 -1.30005 0)
(6.88097 -1.14769 2.55572e-17)
(7.91575 -1.03 0)
(8.53684 -1.11077 -2.516e-17)
(9.35142 -1.17715 -2.47605e-17)
(10.5838 -1.18214 -2.43802e-17)
(12.0884 -1.34768 0)
(13.427 -1.86153 0)
(14.3287 -2.34893 0)
(14.44 -1.53645 0)
(13.0286 -0.211231 0)
(11.0706 -0.223459 0)
(9.31878 -0.313776 0)
(7.42935 -0.291797 0)
(5.71595 -0.386807 2.37503e-17)
(4.37991 -0.582121 2.36574e-17)
(3.23799 -0.863053 0)
(1.87682 -0.872609 0)
(0.318515 -0.792432 0)
(-1.4941 -0.674398 2.30629e-17)
(-3.2036 -0.762392 0)
(-4.29875 -1.05256 0)
(-4.92223 -1.36686 0)
(-4.98126 -1.68006 0)
(-4.02615 -2.08461 -2.32497e-17)
(-2.2307 -2.17069 0)
(-0.154575 -2.16008 0)
(3.15649 -2.91298 2.28809e-17)
(6.35796 -1.89385 -2.22192e-17)
(6.37029 -1.20409 0)
(5.38371 -1.31606 -2.16193e-17)
(5.19383 -1.60783 0)
(5.66667 -1.3716 2.14392e-17)
(5.25193 -1.04882 0)
(3.98317 -1.12408 0)
(2.91441 -1.34013 0)
(2.29287 -1.36018 0)
(1.59147 -1.41241 0)
(0.665345 -1.51255 -4.08406e-17)
(-0.0795722 -1.66011 -4.06054e-17)
(-0.417335 -1.81013 0)
(-0.559343 -1.8323 0)
(-0.41971 -1.93988 0)
(-0.118879 -2.00995 3.98792e-17)
(0.439093 -2.10241 0)
(1.00488 -2.14043 0)
(1.59869 -2.20254 0)
(2.05764 -2.18234 3.91099e-17)
(2.46407 -2.25801 -3.88643e-17)
(2.71259 -2.30069 0)
(3.02973 -2.38711 0)
(3.42509 -2.4758 -3.80346e-17)
(3.89346 -2.60815 -3.77375e-17)
(4.49227 -2.67839 0)
(5.19364 -2.8344 0)
(5.85575 -2.85285 3.66694e-17)
(6.43999 -2.86915 -3.63332e-17)
(6.79832 -2.82356 0)
(6.94004 -2.8941 0)
(6.54889 -2.87283 -3.52222e-17)
(5.81511 -2.85927 0)
(5.40276 -2.98176 0)
(4.43125 -2.80649 -3.40241e-17)
(2.40764 -2.53183 0)
(0.598247 -2.70256 -3.2385e-17)
(0.199908 -2.95948 0)
(0.895261 -3.05404 0)
(2.18383 -3.3814 0)
(3.24436 -3.01678 3.42972e-17)
(2.53181 -2.22303 0)
(1.03922 -1.82732 0)
(-0.502953 -1.77131 0)
(-1.26839 -1.80693 0)
(-1.47467 -1.77013 0)
(-1.99651 -1.62801 0)
(-4.13144 -1.41098 3.35308e-17)
(-6.46358 -1.43707 3.32845e-17)
(-6.91224 -1.39477 0)
(-5.99322 -1.87563 0)
(-2.06295 -1.84271 0)
(-3.16083 -0.748735 -3.20683e-17)
(-4.35099 -1.50419 0)
(-2.14781 -1.46885 6.33619e-17)
(-0.556772 -1.27099 -6.2745e-17)
(-0.217093 -0.82797 -6.2122e-17)
(-0.531553 -0.830269 6.14411e-17)
(-1.28087 -0.649282 -6.10222e-17)
(-3.04167 -0.425365 6.06051e-17)
(-4.9578 -0.520912 0)
(-0.140943 -0.00231101 0)
(-0.264126 -0.381655 0)
(-0.347547 -0.46709 -2.21648e-17)
(-0.445059 -0.415646 0)
(-0.531988 -0.374656 2.14997e-17)
(-0.655871 -0.33934 2.13013e-17)
(-0.760359 -0.249477 1.05694e-17)
(-0.902923 -0.292362 1.04756e-17)
(-0.99636 -0.368742 0)
(-1.03405 -0.361908 1.03149e-17)
(-1.1067 -0.373731 0)
(-1.17776 -0.398699 0)
(-1.2238 -0.308059 -2.03618e-17)
(-1.31103 -0.157889 -1.01188e-17)
(-1.53761 0.0749429 2.00703e-17)
(-1.82858 0.446638 1.99299e-17)
(-2.0819 0.750237 9.9091e-18)
(-2.21307 0.813904 0)
(-2.29168 0.869604 0)
(-2.45999 0.848352 0)
(-2.72762 0.213645 9.58768e-18)
(-3.07469 -0.499529 0)
(-3.64754 -0.377656 -2.85749e-17)
(-4.62038 0.402373 0)
(-5.95683 1.11159 0)
(-7.32577 1.47732 -9.8711e-18)
(-8.43559 1.65258 0)
(-9.31945 1.73201 9.80432e-18)
(-9.98764 1.7146 1.95115e-17)
(-10.501 1.60547 -9.70752e-18)
(-10.937 1.46315 0)
(-11.3 1.30992 0)
(-11.6153 1.14848 0)
(-11.8641 0.990124 1.89989e-17)
(-12.0318 0.840375 1.88907e-17)
(-12.1137 0.696048 9.39225e-18)
(-12.1269 0.545887 0)
(-12.0671 0.389958 -1.85582e-17)
(-11.9776 0.238698 0)
(-11.8271 0.0985273 1.83285e-17)
(-11.5824 -0.0564037 0)
(-11.3167 -0.196496 0)
(-11.0169 -0.316361 -1.79886e-17)
(-10.6765 -0.425682 0)
(-10.2865 -0.544647 -5.32929e-17)
(-9.85401 -0.657816 1.76657e-17)
(-9.38283 -0.751593 0)
(-8.9127 -0.847298 1.74752e-17)
(-8.48065 -0.949904 1.73844e-17)
(-7.9551 -1.09424 0)
(-7.37841 -1.21516 0)
(-6.81968 -1.33443 0)
(-6.27925 -1.44297 0)
(-5.75712 -1.53151 0)
(-5.23018 -1.58938 -1.67558e-17)
(-4.78267 -1.62915 -3.3253e-17)
(-4.3848 -1.61619 1.65236e-17)
(-3.97254 -1.66572 0)
(-3.54933 -1.73829 -3.25981e-17)
(-3.18444 -1.80208 1.61885e-17)
(-2.81639 -1.95743 0)
(-2.41798 -2.11941 1.60332e-17)
(-2.01951 -2.27034 0)
(-1.55677 -2.45177 0)
(-1.08003 -2.64529 3.15195e-17)
(-0.598958 -2.74832 -1.56877e-17)
(-0.118454 -2.8289 3.11746e-17)
(0.29851 -2.84343 -3.10118e-17)
(0.597691 -2.85766 -1.54331e-17)
(0.817729 -2.87367 0)
(0.984059 -2.88493 -1.52225e-17)
(1.12305 -2.9136 0)
(1.2782 -2.91691 0)
(1.41928 -2.88227 0)
(1.57081 -2.76036 -1.46454e-17)
(1.58119 -2.64953 0)
(1.43328 -2.70056 -2.88738e-17)
(1.43609 -2.93574 4.30777e-17)
(1.69336 -3.05486 1.42685e-17)
(1.97429 -3.03116 0)
(2.25525 -3.00577 1.4048e-17)
(2.57954 -2.99259 0)
(2.90838 -3.03865 2.75226e-17)
(3.11125 -3.0093 0)
(3.23475 -2.86561 2.69043e-17)
(3.25557 -2.75386 -5.29374e-17)
(3.25113 -2.51731 -2.6147e-17)
(3.39135 -2.35962 0)
(3.51696 -2.33473 0)
(3.82699 -2.70294 0)
(4.64482 -3.74913 2.53128e-17)
(6.18259 -4.55533 0)
(8.04281 -4.20571 -2.45964e-17)
(9.23807 -3.27918 0)
(9.93329 -3.02771 7.28506e-17)
(10.9128 -3.66705 2.37222e-17)
(12.1807 -4.42999 2.31649e-17)
(12.6853 -4.69798 0)
(12.051 -3.57975 0)
(9.69645 -1.71406 0)
(7.54218 -0.888882 0)
(6.25728 -0.838116 0)
(4.89423 -0.827835 4.67831e-17)
(3.57129 -1.02814 4.66133e-17)
(2.34675 -1.49054 0)
(1.5199 -2.14904 -2.36057e-17)
(0.701841 -2.6916 -2.3508e-17)
(-0.234007 -2.86607 0)
(-1.49908 -2.7027 -4.61347e-17)
(-2.60592 -2.5863 0)
(-3.66629 -2.8304 2.34403e-17)
(-4.4722 -3.51509 0)
(-5.01315 -4.22108 0)
(-5.74962 -4.73495 -4.88652e-17)
(-5.92738 -5.53546 0)
(-4.97458 -6.82809 2.4235e-17)
(-3.23557 -7.82488 0)
(-0.249263 -8.3698 0)
(2.8019 -9.73128 2.40496e-17)
(5.49073 -6.98921 2.35643e-17)
(6.91038 -4.33571 0)
(6.36809 -4.16 -2.23746e-17)
(5.82561 -5.4856 0)
(6.54301 -5.52889 2.25878e-17)
(7.08921 -4.41314 4.39203e-17)
(6.31704 -3.91133 0)
(5.23754 -4.48001 0)
(5.18145 -4.86877 0)
(5.47741 -4.67143 0)
(5.17465 -4.54344 3.96611e-17)
(4.36642 -4.93045 1.17256e-16)
(4.12321 -5.56225 0)
(4.25471 -5.77955 0)
(4.53793 -6.08334 0)
(5.01247 -6.41722 -3.84215e-17)
(5.93579 -6.66047 0)
(6.93298 -6.66988 0)
(8.05532 -6.7672 7.49184e-17)
(8.93882 -6.72548 3.69089e-17)
(9.43083 -6.69096 3.71279e-17)
(9.70817 -6.73333 0)
(10.0393 -6.94408 0)
(10.3044 -7.11339 3.62638e-17)
(10.5743 -7.29443 -3.55157e-17)
(10.8655 -7.54553 0)
(11.1976 -7.90841 0)
(11.3357 -8.18545 -3.453e-17)
(11.2801 -8.25776 1.01254e-16)
(10.9944 -8.2905 0)
(10.6241 -8.4671 0)
(9.85253 -8.25455 3.18923e-17)
(8.84048 -8.38144 0)
(8.11184 -8.7565 6.1835e-17)
(6.90954 -8.11318 -2.99957e-17)
(4.8869 -7.56694 0)
(3.47311 -8.30142 2.75998e-17)
(3.14759 -8.91943 5.52014e-17)
(3.37752 -8.80714 0)
(2.54585 -8.19986 0)
(0.486058 -6.6403 -3.36461e-17)
(-1.89528 -5.53289 0)
(-3.38859 -5.17597 6.73812e-17)
(-4.96909 -5.29514 0)
(-4.97134 -5.79779 0)
(-5.03741 -5.61195 0)
(-5.76662 -4.52688 0)
(-8.40743 -3.53636 -3.22868e-17)
(-10.7641 -4.47882 -3.28172e-17)
(-10.4608 -5.04709 0)
(-7.87296 -6.82455 0)
(-3.17091 -6.51794 0)
(-4.28514 -2.38931 3.05991e-17)
(-4.88235 -4.96092 0)
(-1.56203 -5.23153 -6.33158e-17)
(1.18054 -4.5437 6.25446e-17)
(1.99875 -2.9574 6.11584e-17)
(2.90353 -2.68466 5.93212e-17)
(2.9273 -1.81083 5.8305e-17)
(0.823368 -0.937609 5.73789e-17)
(-1.79628 -1.04207 0)
(-0.138856 -0.0615591 0)
(-0.265686 -0.62585 0)
(-0.359055 -0.757687 2.24907e-17)
(-0.452734 -0.686244 2.21257e-17)
(-0.532132 -0.627756 -2.17995e-17)
(-0.668269 -0.5501 -2.15859e-17)
(-0.749489 -0.446815 1.83277e-20)
(-0.881907 -0.558106 0)
(-1.00058 -0.682818 0)
(-1.09531 -0.64199 0)
(-1.2893 -0.603227 0)
(-1.55645 -0.596966 0)
(-1.76231 -0.394189 6.25357e-17)
(-1.97926 0.086639 0)
(-2.27666 0.504052 -2.05588e-17)
(-2.61988 0.471285 -2.03698e-17)
(-3.04808 0.227227 0)
(-3.5496 0.283261 0)
(-4.1507 0.820085 0)
(-5.04784 1.49993 0)
(-6.23898 2.02896 -2.00729e-17)
(-7.54247 2.43725 0)
(-8.73488 2.76871 2.01734e-17)
(-9.72075 2.95463 0)
(-10.5378 2.96738 0)
(-11.1852 2.90589 0)
(-11.7409 2.79003 3.97788e-17)
(-12.2353 2.66547 0)
(-12.6248 2.53807 -1.96843e-17)
(-12.9071 2.36369 3.91553e-17)
(-13.1264 2.14092 0)
(-13.2842 1.90749 0)
(-13.4222 1.61473 0)
(-13.4721 1.32794 -1.91189e-17)
(-13.4674 1.06198 -1.89896e-17)
(-13.4143 0.81026 0)
(-13.3165 0.568706 0)
(-13.1478 0.340431 3.71891e-17)
(-12.9331 0.111949 3.695e-17)
(-12.7042 -0.0949807 -3.67114e-17)
(-12.412 -0.311934 0)
(-12.0321 -0.511331 0)
(-11.6307 -0.695662 0)
(-11.2291 -0.89015 0)
(-10.7916 -1.09324 3.56353e-17)
(-10.2808 -1.29159 3.5405e-17)
(-9.74109 -1.45609 -3.52168e-17)
(-9.17772 -1.62042 0)
(-8.65281 -1.8152 0)
(-8.07607 -1.96996 0)
(-7.4423 -2.13345 0)
(-6.89966 -2.27252 3.42272e-17)
(-6.38951 -2.4344 0)
(-5.92913 -2.55281 0)
(-5.48908 -2.64653 3.35446e-17)
(-5.06773 -2.68387 3.34003e-17)
(-4.6843 -2.72945 0)
(-4.23439 -2.85335 -6.59931e-17)
(-3.74284 -2.99046 3.28755e-17)
(-3.37234 -3.14 -3.27152e-17)
(-2.91985 -3.42471 0)
(-2.46299 -3.7191 0)
(-2.03313 -3.97639 0)
(-1.52411 -4.29393 0)
(-1.03228 -4.57245 -3.17913e-17)
(-0.536116 -4.79595 -6.30981e-17)
(-0.00439644 -4.88705 -3.14229e-17)
(0.522427 -4.87289 3.12605e-17)
(0.889431 -4.6619 0)
(1.05539 -4.58956 -6.18305e-17)
(1.06224 -4.63549 -6.14744e-17)
(1.05913 -4.7593 -6.10257e-17)
(1.1143 -4.86136 6.05284e-17)
(1.13726 -4.89976 0)
(1.2891 -4.72234 8.88677e-17)
(1.40596 -4.4199 0)
(1.25686 -4.49128 -2.90067e-17)
(1.24002 -5.03515 -2.91016e-17)
(1.64005 -5.27058 0)
(1.942 -5.26886 0)
(2.28563 -5.33824 -5.64591e-17)
(2.93257 -5.3907 0)
(3.65755 -5.25477 -5.57056e-17)
(4.16172 -4.78461 0)
(4.71439 -4.21028 5.41602e-17)
(5.14734 -3.97929 1.06069e-16)
(5.13738 -3.94794 0)
(5.16279 -4.06294 0)
(5.41787 -4.22475 0)
(5.78056 -4.73505 5.19229e-17)
(6.49956 -6.24136 0)
(7.45826 -7.38974 5.18851e-17)
(8.41783 -6.72891 0)
(9.44415 -5.33683 0)
(10.6864 -5.26017 -9.60739e-17)
(11.4759 -6.17988 0)
(11.035 -5.59449 -4.7475e-17)
(8.84042 -3.59237 0)
(6.54152 -2.30943 -4.8907e-17)
(5.06177 -1.86685 0)
(4.29156 -1.82465 0)
(3.83098 -1.84328 0)
(3.15099 -2.0448 -1.40756e-16)
(2.61181 -2.57142 -4.71005e-17)
(2.03076 -3.21998 0)
(1.46249 -4.01997 0)
(0.872067 -4.638 0)
(0.1487 -4.74574 0)
(-0.597771 -4.78584 4.704e-17)
(-1.03134 -4.93814 -9.42479e-17)
(-1.55014 -5.27224 -4.76829e-17)
(-1.99079 -6.00868 9.57959e-17)
(-2.54902 -6.61011 9.58293e-17)
(-3.38983 -7.26903 4.7619e-17)
(-3.7034 -8.7386 0)
(-3.30786 -10.9332 9.43394e-17)
(-2.64654 -12.9641 0)
(-1.2323 -14.3928 -9.62305e-17)
(1.37441 -14.7709 -4.73708e-17)
(2.72313 -11.9114 0)
(5.08794 -8.2071 9.30318e-17)
(5.69096 -6.92951 4.6325e-17)
(5.08516 -8.6664 0)
(5.26737 -9.20983 4.55454e-17)
(5.74666 -7.71788 -1.35767e-16)
(5.03761 -6.42104 0)
(3.77008 -7.32804 0)
(3.75958 -8.49436 0)
(4.52555 -8.32917 0)
(4.76168 -7.65266 -8.10287e-17)
(4.10737 -7.9746 -7.97409e-17)
(3.93998 -9.02994 0)
(4.44753 -9.4866 0)
(4.71666 -9.78095 0)
(4.97674 -10.5437 0)
(5.85479 -11.008 0)
(7.10194 -11.2548 0)
(8.44525 -11.3776 -7.68499e-17)
(9.96926 -11.1973 -7.7161e-19)
(11.1287 -10.829 0)
(11.6489 -10.9174 0)
(11.9478 -11.2743 -7.26353e-17)
(12.1468 -11.4577 0)
(12.5821 -11.8405 7.28075e-17)
(13.3699 -12.2298 7.14691e-17)
(14.3361 -12.5236 0)
(14.9516 -12.5641 0)
(14.9015 -12.5359 -6.89107e-17)
(14.0826 -12.7999 -1.32736e-16)
(13.1847 -13.1562 0)
(11.9041 -12.9852 0)
(10.5216 -13.31 0)
(9.38698 -13.9915 -6.15617e-17)
(8.16331 -12.9841 5.90535e-17)
(6.35837 -12.2923 0)
(4.59679 -13.3037 1.08591e-16)
(3.20488 -13.9341 5.64842e-17)
(1.72141 -13.043 -1.2225e-16)
(-1.14591 -11.521 0)
(-3.74452 -9.79941 0)
(-4.59308 -8.98556 -1.36528e-16)
(-5.31797 -8.70569 -6.69101e-17)
(-6.16308 -8.86335 0)
(-5.95311 -9.61486 0)
(-6.82809 -8.91813 0)
(-7.12722 -7.33116 0)
(-7.78259 -5.88564 -1.29854e-16)
(-8.74421 -7.44771 0)
(-10.2685 -8.73302 0)
(-5.82367 -11.961 0)
(-5.13296 -10.9241 0)
(-4.21112 -4.31732 0)
(-3.82138 -8.35924 0)
(-0.387812 -9.12645 -1.3468e-16)
(2.93634 -7.85583 0)
(2.56132 -5.2922 0)
(3.90886 -5.29035 -2.58081e-16)
(5.65302 -3.39628 1.21027e-16)
(4.79566 -1.37738 -1.14267e-16)
(2.27958 -1.16563 1.11453e-16)
(-0.133024 -0.176019 0)
(-0.253534 -0.945028 -4.61293e-17)
(-0.362243 -1.1815 0)
(-0.463463 -1.11351 -2.21477e-17)
(-0.576231 -1.01862 0)
(-0.762668 -0.939931 0)
(-0.886687 -0.805189 2.13218e-17)
(-1.06839 -0.846299 0)
(-1.29368 -0.842753 0)
(-1.49881 -0.654799 0)
(-1.83712 -0.487809 0)
(-2.24975 -0.402293 0)
(-2.84098 -0.334128 -8.41358e-17)
(-3.48208 0.0280027 -4.18454e-17)
(-4.18207 0.667892 4.15507e-17)
(-5.09866 1.34859 0)
(-6.16527 1.91229 0)
(-7.18633 2.4659 0)
(-8.19791 3.00792 0)
(-9.13146 3.43155 0)
(-9.99324 3.66094 -4.07965e-17)
(-10.7698 3.7444 -4.059e-17)
(-11.4651 3.83247 4.03945e-17)
(-12.0624 3.80682 -4.01675e-17)
(-12.4956 3.71463 0)
(-12.8057 3.56955 0)
(-13.1041 3.35312 -3.94054e-17)
(-13.2804 3.13362 0)
(-13.4142 2.85222 0)
(-13.4778 2.59785 -3.86362e-17)
(-13.4937 2.33567 -3.83941e-17)
(-13.4712 2.03958 -3.81177e-17)
(-13.4042 1.76881 0)
(-13.2961 1.47743 0)
(-13.1595 1.16653 3.73438e-17)
(-12.9943 0.859677 0)
(-12.8105 0.537846 0)
(-12.6086 0.249928 -3.66059e-17)
(-12.3891 -0.0187158 3.6339e-17)
(-12.1267 -0.314919 -3.61352e-17)
(-11.8074 -0.600839 0)
(-11.4392 -0.867167 0)
(-11.0656 -1.13316 -7.10783e-17)
(-10.6548 -1.40535 0)
(-10.1825 -1.69756 -7.033e-17)
(-9.67416 -1.97544 -1.04946e-16)
(-9.11978 -2.2523 1.0432e-16)
(-8.61414 -2.45162 -6.91352e-17)
(-8.0189 -2.71268 0)
(-7.35236 -2.87267 0)
(-6.71144 -3.03638 -6.79183e-17)
(-6.12675 -3.14291 -3.38142e-17)
(-5.59078 -3.28688 0)
(-5.12419 -3.45117 0)
(-4.72239 -3.64015 -3.32898e-17)
(-4.2936 -3.75972 -6.61988e-17)
(-3.96408 -3.84644 0)
(-3.646 -4.05802 6.57395e-17)
(-3.24951 -4.32474 -6.52701e-17)
(-2.89535 -4.50014 6.49371e-17)
(-2.4573 -4.89572 0)
(-2.11046 -5.25322 0)
(-1.71524 -5.60866 0)
(-1.2782 -6.02414 0)
(-0.864497 -6.35988 0)
(-0.402321 -6.69602 6.28126e-17)
(0.0233111 -6.9705 0)
(0.498565 -7.09229 0)
(1.15471 -6.73923 0)
(1.63374 -6.35098 1.22472e-16)
(1.75235 -6.22791 6.11948e-17)
(1.75603 -6.40115 6.11278e-17)
(1.82517 -6.55461 -1.21616e-16)
(1.85255 -6.65991 6.05242e-17)
(1.7107 -6.50403 -6.01389e-17)
(1.77468 -6.09992 0)
(1.78452 -6.26522 5.89944e-17)
(1.61067 -7.14602 0)
(1.80132 -7.46957 0)
(2.05668 -7.25949 0)
(2.31471 -7.2144 1.15104e-16)
(2.788 -7.65025 -5.66848e-17)
(3.62669 -7.84245 -5.603e-17)
(4.37355 -7.47902 -1.12254e-16)
(5.19883 -6.74331 -1.66781e-16)
(6.16265 -6.00275 -5.45068e-17)
(6.89584 -5.50178 0)
(7.52801 -5.41202 -1.04865e-16)
(8.06747 -5.54735 0)
(8.56407 -6.15158 -1.53833e-16)
(9.00657 -7.73832 0)
(9.45371 -9.13237 -1.55568e-16)
(9.60861 -8.83462 0)
(10.395 -7.88171 0)
(11.1355 -7.35484 -4.71077e-17)
(9.85416 -6.38213 0)
(7.43488 -4.72472 4.86639e-17)
(5.4219 -3.31123 9.78865e-17)
(4.17455 -2.67304 4.91242e-17)
(3.66226 -2.81181 9.72501e-17)
(3.57939 -3.16263 -9.66279e-17)
(3.39534 -3.16697 -9.56447e-17)
(3.00887 -3.59215 1.89763e-16)
(2.79636 -4.17531 0)
(2.4566 -5.12099 0)
(1.89937 -6.06441 9.41778e-17)
(1.62501 -6.8437 -9.44855e-17)
(1.11213 -7.18283 0)
(0.594332 -7.36851 0)
(0.562635 -7.7615 9.44513e-17)
(0.335065 -8.04678 0)
(0.0525132 -8.84053 -6.07119e-19)
(-0.403239 -9.44466 -6.12511e-19)
(-0.846579 -10.1789 9.17448e-17)
(-1.2833 -11.6714 0)
(-1.5648 -13.8071 -9.16697e-17)
(-1.99399 -15.9384 0)
(-1.9468 -18.577 9.45737e-17)
(-0.522416 -19.3378 0)
(1.2533 -16.1079 0)
(2.54964 -12.8249 -9.03317e-17)
(4.0563 -10.5006 -8.90312e-17)
(3.51539 -11.8387 0)
(3.56143 -12.591 -8.57204e-17)
(3.85358 -10.8218 1.72932e-16)
(3.24495 -8.91375 0)
(2.31793 -10.2146 0)
(2.56745 -12.2053 0)
(3.27884 -12.1303 0)
(3.41617 -10.9371 8.33031e-17)
(2.73642 -11.0838 -1.6111e-16)
(2.8468 -12.6816 0)
(3.83522 -13.3847 0)
(4.16946 -13.3443 0)
(4.33378 -14.4142 0)
(5.18492 -15.18 0)
(6.11887 -15.6424 0)