/*--------------------------------*- C++ -*----------------------------------*\
| =========                 |                                                 |
| \\      /  F ield         | OpenFOAM: The Open Source CFD Toolbox           |
|  \\    /   O peration     | Version:  dev                                   |
|   \\  /    A nd           | Web:      http://www.openfoam.org               |
|    \\/     M anipulation  |                                                 |
\*---------------------------------------------------------------------------*/
FoamFile
{
    version     2.0;
    format      ascii;
    class       volVectorField;
    object      UMean;
    location    "9.134";
}
// * * * * * * * * * * * * * * * * * * * * * * * * * * * * * * * * * * * * * //

dimensions      [0 1 -1 0 0 0 0];

internalField   nonuniform List<vector> 
12225
(
(7.00366 0.430273 0)
(4.43878 0.192545 0)
(2.55668 0.0311505 0)
(2.51094 -0.0166637 0)
(1.3843 0.0193679 0)
(2.26744 -0.0342902 0)
(0.989349 0.0489882 0)
(2.18276 -0.0591918 0)
(0.797301 0.0716712 0)
(2.29209 -0.0978743 0)
(0.6885 0.0993964 0)
(2.74406 -0.138655 0)
(0.94793 0.102624 0)
(3.39725 -0.172152 0)
(3.53107 -0.168439 0)
(4.69505 0.0499799 0)
(14.8433 -2.43383 0)
(7.11754 5.13284 0)
(9.54622 0.981604 0)
(9.54341 0.860877 0)
(6.68652 0.466268 0)
(7.59063 0.214543 0)
(4.09009 0.140321 0)
(6.84353 0.0107808 0)
(2.66451 0.132657 0)
(6.68989 -0.0903613 0)
(1.82194 0.141836 0)
(7.04019 -0.165108 0)
(1.25989 0.123921 0)
(8.12315 -0.414527 0)
(1.38482 0.252579 0)
(9.95596 -1.4424 0)
(3.4357 0.272289 0)
(12.3876 -4.06764 0)
(10.4287 -1.9274 0)
(7.77468 0.484635 0)
(9.11828 0.763505 0)
(12.167 0.9514 0)
(8.32896 0.623911 0)
(11.8324 0.443395 0)
(6.22519 0.31028 0)
(11.4136 0.206441 0)
(4.58171 0.221477 0)
(11.3158 -0.019582 0)
(3.8732 0.192915 0)
(11.3776 -0.277974 0)
(4.34974 0.187275 0)
(11.2542 -0.723428 0)
(5.72789 0.176282 0)
(11.0916 -1.49209 0)
(7.21446 0.0533456 0)
(12.1182 -3.86584 0)
(6.93368 0.350243 0)
(9.35305 -2.39031 0)
(7.21841 0.524979 0)
(13.9935 0.961041 0)
(7.92914 0.609393 0)
(14.2958 0.553855 0)
(7.47382 0.420878 0)
(14.1168 0.271013 0)
(7.17541 0.396683 0)
(13.7387 -0.145248 0)
(7.25664 0.459586 0)
(13.2698 -0.698922 0)
(7.6592 0.576772 0)
(12.8746 -1.42294 0)
(8.26622 0.699551 0)
(12.6517 -2.3135 0)
(9.02193 0.0425373 0)
(11.8887 -3.6373 0)
(8.68466 -1.43174 0)
(8.36424 0.681785 0)
(6.42371 0.569998 0)
(14.0112 0.565869 0)
(8.47379 0.674419 0)
(13.9581 0.284467 0)
(9.17001 0.636702 0)
(13.6432 -0.00268286 0)
(9.51797 0.657882 0)
(13.2134 -0.388865 0)
(9.59293 0.734419 0)
(12.8122 -0.871481 0)
(9.44628 0.876984 0)
(12.5815 -1.52153 0)
(9.15009 1.09008 0)
(12.5692 -2.48986 0)
(8.8273 1.13253 0)
(11.6152 -5.0281 0)
(8.54248 1.26701 0)
(8.72238 0.12656 0)
(7.9569 0.616917 0)
(11.8025 0.152239 0)
(9.50593 0.654726 0)
(11.7387 0.0500883 0)
(10.0892 0.693965 0)
(11.5996 -0.165835 0)
(10.3215 0.725935 0)
(11.4754 -0.45775 0)
(10.3015 0.783191 0)
(11.3885 -0.853831 0)
(10.0338 0.832365 0)
(11.3542 -1.4004 0)
(9.49365 0.801791 0)
(11.4165 -2.13876 0)
(8.80276 0.726952 0)
(10.9962 -3.92079 0)
(7.73544 1.33639 0)
(9.48831 -0.218722 0)
(9.34518 0.812732 0)
(10.4376 -0.266179 0)
(10.1418 0.930516 0)
(10.5527 -0.304728 0)
(10.3997 1.02006 0)
(10.5808 -0.503127 0)
(10.5211 1.07561 0)
(10.6245 -0.781465 0)
(10.5645 1.15364 0)
(10.671 -1.1581 0)
(10.5166 1.23549 0)
(10.6993 -1.63609 0)
(10.3685 1.26163 0)
(10.6872 -2.3275 0)
(10.0552 1.27179 0)
(10.3752 -3.95368 0)
(8.30096 2.01889 0)
(9.69626 -0.953093 0)
(9.85022 0.701182 0)
(10.1548 -0.326223 0)
(10.4076 0.85506 0)
(10.3889 -0.350121 0)
(10.5812 0.906896 0)
(10.4698 -0.494262 0)
(10.7024 0.893037 0)
(10.5515 -0.686615 0)
(10.8059 0.872882 0)
(10.6436 -0.935604 0)
(10.8814 0.824122 0)
(10.7355 -1.23304 0)
(10.9085 0.67185 0)
(10.754 -1.6727 0)
(10.7238 0.520161 0)
(10.4928 -2.47345 0)
(8.8951 0.980206 0)
(9.96396 -0.484463 0)
(10.0868 0.802244 0)
(10.0187 -0.58367 0)
(10.5364 1.02144 0)
(10.3099 -0.60473 0)
(10.676 1.07501 0)
(10.4394 -0.725212 0)
(10.7782 1.04821 0)
(10.5705 -0.890285 0)
(10.8575 1.00369 0)
(10.7113 -1.11801 0)
(10.8988 0.921114 0)
(10.8318 -1.39513 0)
(10.8739 0.734824 0)
(10.8224 -1.76089 0)
(10.6021 0.505651 0)
(10.521 -2.06848 0)
(9.35075 0.585547 0)
(10.0236 -0.3918 0)
(10.14 0.648633 0)
(10.0414 -0.512172 0)
(10.5109 0.878098 0)
(10.3327 -0.456742 0)
(10.6219 0.869244 0)
(10.4813 -0.493869 0)
(10.6982 0.778261 0)
(10.6285 -0.57238 0)
(10.7344 0.657903 0)
(10.7633 -0.695583 0)
(10.7179 0.495538 0)
(10.84 -0.845121 0)
(10.6182 0.264072 0)
(10.7653 -1.03212 0)
(10.2824 0.0702346 0)
(10.4794 -1.05267 0)
(9.62375 0.123895 0)
(10.2068 -0.0330215 0)
(10.1415 0.699953 0)
(10.0702 -0.692086 0)
(10.4528 0.90253 0)
(10.2982 -0.619133 0)
(10.5377 0.847584 0)
(10.4299 -0.6457 0)
(10.6034 0.735181 0)
(10.5604 -0.707545 0)
(10.6273 0.586643 0)
(10.6602 -0.791359 0)
(10.6092 0.382978 0)
(10.6811 -0.869274 0)
(10.527 0.116888 0)
(10.5709 -0.921971 0)
(10.2917 -0.113997 0)
(10.361 -0.764889 0)
(10.0202 -0.15451 0)
(10.2457 -0.125438 0)
(10.097 0.467962 0)
(10.1506 -0.495285 0)
(10.3537 0.595749 0)
(10.2932 -0.3748 0)
(10.4204 0.52749 0)
(10.4092 -0.354968 0)
(10.4848 0.418806 0)
(10.5238 -0.374368 0)
(10.5131 0.275618 0)
(10.5992 -0.414824 0)
(10.5157 0.0931952 0)
(10.597 -0.461744 0)
(10.4767 -0.103449 0)
(10.4995 -0.500133 0)
(10.3573 -0.232256 0)
(10.3647 -0.40569 0)
(10.2662 -0.220048 0)
(10.374 -0.110443 0)
(10.0501 0.410905 0)
(10.1753 -0.487406 0)
(10.2548 0.437144 0)
(10.2378 -0.367631 0)
(10.3087 0.367263 0)
(10.3306 -0.3457 0)
(10.3792 0.250725 0)
(10.4245 -0.355403 0)
(10.4226 0.0993078 0)
(10.4822 -0.374981 0)
(10.4462 -0.0798743 0)
(10.4817 -0.403495 0)
(10.433 -0.246839 0)
(10.4261 -0.431324 0)
(10.3773 -0.339353 0)
(10.3687 -0.392779 0)
(10.3572 -0.320716 0)
(10.4224 -0.27674 0)
(10.0153 0.199544 0)
(10.1907 -0.28592 0)
(10.1931 0.167246 0)
(10.2051 -0.179401 0)
(10.2292 0.131548 0)
(10.2791 -0.171487 0)
(10.3061 0.0471026 0)
(10.3625 -0.1979 0)
(10.3659 -0.058863 0)
(10.4141 -0.235864 0)
(10.4054 -0.176166 0)
(10.4267 -0.286572 0)
(10.4123 -0.275152 0)
(10.4112 -0.331803 0)
(10.3995 -0.324298 0)
(10.4066 -0.337381 0)
(10.4109 -0.31623 0)
(10.4698 -0.305072 0)
(9.99661 0.0970484 0)
(10.1444 -0.18597 0)
(10.1463 0.0215736 0)
(10.15 -0.133752 0)
(10.1621 -0.00873616 0)
(10.2088 -0.14627 0)
(10.2409 -0.0770874 0)
(10.2918 -0.18685 0)
(10.3109 -0.159546 0)
(10.3485 -0.238108 0)
(10.3574 -0.244949 0)
(10.379 -0.298475 0)
(10.3805 -0.31646 0)
(10.3939 -0.35026 0)
(10.3959 -0.361221 0)
(10.4185 -0.380416 0)
(10.4239 -0.381294 0)
(10.4789 -0.387515 0)
(9.99368 0.0154346 0)
(10.106 -0.0858818 0)
(10.1088 -0.0444072 0)
(10.1138 -0.0933458 0)
(10.1187 -0.0749906 0)
(10.1674 -0.119053 0)
(10.198 -0.120738 0)
(10.2518 -0.163972 0)
(10.274 -0.180726 0)
(10.3153 -0.219321 0)
(10.3278 -0.244107 0)
(10.3597 -0.278003 0)
(10.3659 -0.301533 0)
(10.3939 -0.329212 0)
(10.3995 -0.347219 0)
(10.4329 -0.371046 0)
(10.4356 -0.384052 0)
(10.4884 -0.397302 0)
(9.99181 0.00471604 0)
(10.0637 -0.0252001 0)
(10.0567 -0.0349699 0)
(10.0678 -0.0665343 0)
(10.0778 -0.075789 0)
(10.128 -0.0998512 0)
(10.1573 -0.116049 0)
(10.211 -0.144825 0)
(10.2337 -0.169114 0)
(10.2781 -0.199724 0)
(10.292 -0.226734 0)
(10.33 -0.257223 0)
(10.3384 -0.283526 0)
(10.3731 -0.312278 0)
(10.3788 -0.337052 0)
(10.4152 -0.365804 0)
(10.4146 -0.38834 0)
(10.4635 -0.40779 0)
(9.99155 0.0141158 0)
(10.0466 0.0161267 0)
(10.0398 -0.0106237 0)
(10.0575 -0.0377388 0)
(10.0748 -0.0566036 0)
(10.1254 -0.0779364 0)
(10.1553 -0.0989639 0)
(10.2071 -0.123936 0)
(10.2311 -0.149122 0)
(10.2753 -0.176773 0)
(10.291 -0.203593 0)
(10.3292 -0.232339 0)
(10.3394 -0.259566 0)
(10.3736 -0.288529 0)
(10.3801 -0.315878 0)
(10.414 -0.345967 0)
(10.4132 -0.371844 0)
(10.4566 -0.393692 0)
(9.99165 0.0329065 0)
(10.0502 0.0496504 0)
(10.0566 0.00991882 0)
(10.0798 -0.0181045 0)
(10.1006 -0.0402817 0)
(10.1506 -0.0615338 0)
(10.1818 -0.083681 0)
(10.2315 -0.106495 0)
(10.2562 -0.130653 0)
(10.2983 -0.155631 0)
(10.3149 -0.181213 0)
(10.3507 -0.207477 0)
(10.3614 -0.23373 0)
(10.3925 -0.2606 0)
(10.399 -0.28724 0)
(10.4287 -0.315516 0)
(10.428 -0.341267 0)
(10.4652 -0.363074 0)
(9.98987 0.0407011 0)
(10.0547 0.052684 0)
(10.0828 -0.00633314 0)
(10.1167 -0.04068 0)
(10.1419 -0.0641471 0)
(10.1903 -0.0823132 0)
(10.2223 -0.102163 0)
(10.269 -0.12109 0)
(10.2934 -0.142848 0)
(10.3319 -0.164106 0)
(10.3482 -0.187534 0)
(10.3801 -0.210234 0)
(10.3903 -0.234557 0)
(10.4173 -0.25809 0)
(10.4228 -0.282976 0)
(10.4472 -0.308029 0)
(10.446 -0.332676 0)
(10.4767 -0.353098 0)
(9.99052 0.0315892 0)
(10.0685 0.0220504 0)
(10.1261 -0.0557333 0)
(10.1769 -0.0967657 0)
(10.2125 -0.119814 0)
(10.2609 -0.132791 0)
(10.2937 -0.147846 0)
(10.336 -0.161743 0)
(10.3601 -0.179936 0)
(10.394 -0.197035 0)
(10.4102 -0.21749 0)
(10.4376 -0.236384 0)
(10.4477 -0.258145 0)
(10.4701 -0.278225 0)
(10.4753 -0.300924 0)
(10.4945 -0.322563 0)
(10.4938 -0.345433 0)
(10.5186 -0.363737 0)
(9.99117 0.00987626 0)
(10.092 -0.0296773 0)
(10.187 -0.120829 0)
(10.2595 -0.16278 0)
(10.3093 -0.181157 0)
(10.3589 -0.187207 0)
(10.3928 -0.196103 0)
(10.4304 -0.204448 0)
(10.4541 -0.218203 0)
(10.4836 -0.23085 0)
(10.5001 -0.24772 0)
(10.5232 -0.262761 0)
(10.5336 -0.281483 0)
(10.5516 -0.298184 0)
(10.5571 -0.318257 0)
(10.5718 -0.336607 0)
(10.5722 -0.357202 0)
(10.5919 -0.373361 0)
(9.99277 -0.0233428 0)
(10.1275 -0.103557 0)
(10.2671 -0.204896 0)
(10.3665 -0.241582 0)
(10.4319 -0.250819 0)
(10.4835 -0.248422 0)
(10.5183 -0.250949 0)
(10.5517 -0.253763 0)
(10.5753 -0.263055 0)
(10.6011 -0.271426 0)
(10.618 -0.284769 0)
(10.6377 -0.296403 0)
(10.6486 -0.312229 0)
(10.663 -0.326 0)
(10.669 -0.343552 0)
(10.68 -0.359015 0)
(10.6812 -0.377341 0)
(10.6967 -0.391509 0)
(9.99051 -0.0715851 0)
(10.1744 -0.20113 0)
(10.3679 -0.305441 0)
(10.5002 -0.327858 0)
(10.5806 -0.32258 0)
(10.6344 -0.310226 0)
(10.669 -0.305622 0)
(10.6997 -0.302628 0)
(10.7226 -0.306781 0)
(10.746 -0.310675 0)
(10.7624 -0.320012 0)
(10.7793 -0.328169 0)
(10.7894 -0.34072 0)
(10.8005 -0.351511 0)
(10.8054 -0.366121 0)
(10.8123 -0.378695 0)
(10.8121 -0.394267 0)
(10.8221 -0.406237 0)
(9.99202 -0.136356 0)
(10.2448 -0.322979 0)
(10.5027 -0.418984 0)
(10.6712 -0.417622 0)
(10.7627 -0.394183 0)
(10.8175 -0.371127 0)
(10.8494 -0.358975 0)
(10.8771 -0.350631 0)
(10.896 -0.35016 0)
(10.9148 -0.350573 0)
(10.9252 -0.356476 0)
(10.9354 -0.361621 0)
(10.9373 -0.370938 0)
(10.9392 -0.378815 0)
(10.9338 -0.390029 0)
(10.9289 -0.399628 0)
(10.9162 -0.411565 0)
(10.9113 -0.420731 0)
(9.98976 -0.219891 0)
(10.3369 -0.468097 0)
(10.6737 -0.539715 0)
(10.8758 -0.508216 0)
(10.9697 -0.46486 0)
(11.0135 -0.428079 0)
(11.0285 -0.404841 0)
(11.0352 -0.388426 0)
(11.029 -0.381476 0)
(11.0193 -0.377037 0)
(10.9978 -0.378267 0)
(10.9733 -0.379186 0)
(10.9375 -0.383923 0)
(10.8997 -0.387414 0)
(10.8519 -0.393795 0)
(10.8038 -0.399132 0)
(10.7458 -0.405465 0)
(10.694 -0.410255 0)
(9.98331 -0.332063 0)
(10.4676 -0.642299 0)
(10.8829 -0.667098 0)
(11.0724 -0.602649 0)
(11.1029 -0.537209 0)
(11.0583 -0.483147 0)
(10.9742 -0.445017 0)
(10.873 -0.416269 0)
(10.7576 -0.398065 0)
(10.6348 -0.383334 0)
(10.5032 -0.374964 0)
(10.3662 -0.366416 0)
(10.2237 -0.362543 0)
(10.0769 -0.357101 0)
(9.92808 -0.355966 0)
(9.77643 -0.353383 0)
(9.62516 -0.353096 0)
(9.47516 -0.351269 0)
(10.0025 -0.453671 0)
(10.619 -0.818952 0)
(10.9017 -0.752079 0)
(10.7932 -0.623768 0)
(10.4937 -0.512556 0)
(10.1375 -0.429212 0)
(9.76998 -0.373591 0)
(9.41741 -0.334755 0)
(9.07654 -0.307331 0)
(8.75512 -0.284655 0)
(8.44605 -0.267705 0)
(8.15288 -0.251388 0)
(7.87204 -0.240102 0)
(7.60237 -0.227403 0)
(7.34748 -0.221202 0)
(7.09785 -0.211896 0)
(6.86933 -0.21093 0)
(6.6398 -0.204257 0)
(10.0974 -0.750786 0)
(10.0459 -1.01319 0)
(9.42497 -0.801095 0)
(8.51441 -0.572194 0)
(7.65492 -0.378737 0)
(6.92874 -0.244896 0)
(6.32712 -0.167539 0)
(5.83134 -0.126269 0)
(5.40886 -0.104726 0)
(5.0482 -0.0923461 0)
(4.72804 -0.0849871 0)
(4.44724 -0.0793766 0)
(4.19077 -0.0758335 0)
(3.96181 -0.0719166 0)
(3.75003 -0.0721605 0)
(3.55479 -0.0691097 0)
(3.3825 -0.0802939 0)
(3.21753 -0.0828877 0)
(8.51677 -0.436054 0)
(6.11027 -0.380891 0)
(4.29833 -0.138058 0)
(3.12381 -0.0213916 0)
(2.481 0.0191297 0)
(2.12036 0.0224676 0)
(1.89609 0.0137087 0)
(1.73474 0.0046108 0)
(1.59867 -0.00157395 0)
(1.47789 -0.00479477 0)
(1.36577 -0.00640877 0)
(1.26358 -0.00672341 0)
(1.16788 -0.00671088 0)
(1.08112 -0.00639313 0)
(0.999064 -0.00666112 0)
(0.918805 -0.00703789 0)
(0.851273 -0.0186123 0)
(0.730732 -0.0061432 0)
(-0.0519959 0.137875 0)
(-0.156929 0.0714357 0)
(-0.206891 0.0164372 0)
(-0.195087 -0.0443207 0)
(-0.117896 -0.0990136 0)
(0.012225 -0.145038 0)
(0.186209 -0.175581 1.11353e-17)
(0.387903 -0.193547 -1.10603e-17)
(0.606081 -0.197938 0)
(0.828412 -0.192672 -1.09172e-17)
(1.04551 -0.178327 0)
(1.2484 -0.157553 0)
(1.43051 -0.130911 0)
(1.58658 -0.101551 1.06427e-17)
(1.71396 -0.0703034 0)
(1.80989 -0.038243 0)
(1.87348 -0.00610059 -1.04455e-17)
(1.90547 0.0241543 0)
(1.90754 0.0506 0)
(1.88174 0.0722868 0)
(1.83178 0.0892058 1.01961e-17)
(1.76022 0.100721 0)
(1.67097 0.108593 1.00742e-17)
(1.56572 0.111528 0)
(1.44914 0.109676 0)
(1.32395 0.108049 9.89552e-18)
(1.19042 0.111345 0)
(1.04779 0.116438 -9.77918e-18)
(0.899278 0.121655 0)
(0.74545 0.12669 9.66429e-18)
(0.587838 0.130697 0)
(0.428709 0.133168 0)
(0.270322 0.134329 0)
(0.113158 0.134107 0)
(-0.0424712 0.131214 0)
(-0.194502 0.126519 -9.32961e-18)
(-0.341281 0.120402 0)
(-0.482382 0.113895 1.84406e-17)
(-0.61636 0.107389 0)
(-0.742778 0.100143 -1.82216e-17)
(-0.860168 0.0930862 0)
(-0.968687 0.0862867 0)
(-1.06878 0.0785121 1.78884e-17)
(-1.15999 0.0701255 0)
(-1.24294 0.0624041 1.76652e-17)
(-1.31772 0.0551626 -1.75531e-17)
(-1.38382 0.0481706 0)
(-1.44211 0.0421355 -1.73281e-17)
(-1.49366 0.0368214 -1.72151e-17)
(-1.53747 0.0331541 0)
(-1.57371 0.031571 0)
(-1.60425 0.0315603 0)
(-1.63123 0.0316607 0)
(-1.65564 0.0316394 0)
(-1.67887 0.0325039 1.65281e-17)
(-1.70274 0.0340465 0)
(-1.7286 0.03628 -1.62988e-17)
(-1.75519 0.0383257 0)
(-1.78129 0.0389665 0)
(-1.80689 0.0395984 1.59524e-17)
(-1.83271 0.0413923 0)
(-1.86062 0.0426267 -1.57211e-17)
(-1.89052 0.0442815 0)
(-1.92223 0.0457737 0)
(-1.9553 0.0466378 0)
(-1.98914 0.047839 1.52555e-17)
(-2.02341 0.0496623 0)
(-2.05836 0.0518755 0)
(-2.09379 0.0542763 1.49058e-17)
(-2.12999 0.0557422 0)
(-2.16398 0.0559853 1.46711e-17)
(-2.1949 0.0563728 0)
(-2.2226 0.0565675 0)
(-2.24608 0.0564071 0)
(-2.26437 0.055813 -1.4205e-17)
(-2.27676 0.0545951 0)
(-2.28395 0.0538838 0)
(-2.28786 0.0538275 -1.38612e-17)
(-2.28891 0.0528766 -1.37478e-17)
(-2.28538 0.0512389 0)
(-2.27547 0.0489901 -1.35225e-17)
(-2.25905 0.0460807 0)
(-2.23573 0.0429341 -2.66021e-17)
(-2.20549 0.0395035 0)
(-2.16886 0.0358204 -2.61666e-17)
(-2.12568 0.0327545 0)
(-2.07699 0.030345 2.57378e-17)
(-2.02359 0.0283602 0)
(-1.96557 0.026907 0)
(-1.90356 0.0259117 0)
(-1.83915 0.0253192 -2.49007e-17)
(-1.77214 0.0250666 0)
(-1.70417 0.0250336 2.4499e-17)
(-1.63525 0.0256261 0)
(-1.56609 0.0266982 -2.41097e-17)
(-1.49863 0.0292488 -2.39211e-17)
(-1.43208 0.0304198 -2.37368e-17)
(-1.36549 0.0314963 0)
(-1.30075 0.0315607 0)
(-1.23659 0.0327644 0)
(-1.17113 0.0335573 0)
(-1.10649 0.0331089 0)
(-1.03675 0.0319338 0)
(-0.967936 0.0332032 0)
(-0.896879 0.0328115 0)
(-0.829596 0.0352242 2.22129e-17)
(-0.761899 0.035684 2.20606e-17)
(-0.699063 0.0399518 0)
(-0.637891 0.0411671 0)
(-0.581838 0.0408688 0)
(-0.514015 0.038291 2.14801e-17)
(-0.451626 0.0424896 0)
(-0.38259 0.0407219 0)
(-0.317662 0.0436744 0)
(-0.246802 0.0406176 0)
(-0.174075 0.043187 -2.08057e-17)
(-0.0993738 0.0448477 0)
(-0.0193628 0.043973 0)
(0.0653129 0.0453465 2.04286e-17)
(0.153752 0.0451223 -2.03071e-17)
(0.245695 0.044364 0)
(0.342248 0.0482152 -2.00745e-17)
(0.434138 0.0511423 0)
(0.527151 0.0543212 1.98482e-17)
(0.609986 0.059108 0)
(0.681516 0.0620868 0)
(0.757003 0.0624483 0)
(0.826201 0.0632404 0)
(0.905587 0.0604599 0)
(0.978809 0.0610401 -3.83967e-17)
(1.05413 0.0627623 -3.81777e-17)
(1.11352 0.0676936 0)
(1.16341 0.0664171 0)
(1.20853 0.067374 0)
(1.2464 0.0633847 3.72531e-17)
(1.29535 0.058686 0)
(1.34556 0.0570668 0)
(1.39106 0.0559092 0)
(1.43966 0.0540657 3.62327e-17)
(1.47662 0.0567389 -3.59646e-17)
(1.51953 0.0526487 0)
(1.55863 0.0526748 0)
(1.60008 0.053143 -3.51499e-17)
(1.62614 0.0582618 -3.48771e-17)
(1.65598 0.054963 0)
(1.68425 0.0587459 0)
(1.72321 0.0557103 3.40441e-17)
(1.75953 0.0659485 -3.37647e-17)
(1.76775 0.0713407 0)
(1.7813 0.0707246 0)
(1.80667 0.0710504 -3.2928e-17)
(1.83994 0.0758148 0)
(1.85358 0.0833634 0)
(1.86503 0.0891223 -3.20841e-17)
(1.86434 0.0932214 0)
(1.87858 0.098055 -3.15242e-17)
(1.88063 0.105007 0)
(1.88645 0.109071 0)
(1.87386 0.120619 0)
(1.86059 0.126515 3.0435e-17)
(1.84583 0.132973 0)
(1.81405 0.142897 0)
(1.74197 0.154587 0)
(1.66562 0.154492 0)
(1.6009 0.156709 0)
(1.51142 0.16557 0)
(1.38371 0.172391 2.88933e-17)
(1.26496 0.173766 2.87392e-17)
(1.08106 0.181793 0)
(0.874234 0.1845 0)
(0.631338 0.183432 0)
(0.415867 0.169694 -2.83215e-17)
(0.194145 0.162693 0)
(0.0422798 0.146557 5.63479e-17)
(-0.158557 0.143993 -5.62382e-17)
(-0.261957 0.123676 -5.6059e-17)
(-0.42329 0.126754 5.59549e-17)
(-0.4587 0.0966383 -5.57525e-17)
(-0.616306 0.129135 5.57325e-17)
(-0.56405 -0.00402362 0)
(0.0101374 0.248622 0)
(0.0146085 0.191949 0)
(0.0496546 0.00788676 -2.27957e-17)
(0.120886 -0.198091 0)
(0.235674 -0.384024 2.23645e-17)
(0.387857 -0.535418 2.22179e-17)
(0.568883 -0.64432 1.10436e-17)
(0.768647 -0.710293 1.09812e-17)
(0.975831 -0.736915 0)
(1.17987 -0.73064 1.08541e-17)
(1.3721 -0.69478 0)
(1.54524 -0.636443 0)
(1.6953 -0.561773 -2.132e-17)
(1.81757 -0.477287 -1.05948e-17)
(1.91199 -0.385308 2.10555e-17)
(1.97679 -0.290734 2.0922e-17)
(2.01332 -0.198412 1.03954e-17)
(2.02167 -0.110394 0)
(2.00428 -0.0274219 0)
(1.96114 0.0472628 0)
(1.89612 0.112703 1.01365e-17)
(1.80927 0.171795 0)
(1.70528 0.224652 -3.00372e-17)
(1.58299 0.267385 0)
(1.44474 0.302229 0)
(1.29105 0.33267 -9.83185e-18)
(1.1254 0.356517 0)
(0.95052 0.373689 9.7155e-18)
(0.770244 0.384644 1.93126e-17)
(0.585463 0.391843 -9.59752e-18)
(0.398948 0.393893 0)
(0.211955 0.390072 0)
(0.0241619 0.382782 0)
(-0.163943 0.375824 1.8731e-17)
(-0.350607 0.367244 1.86166e-17)
(-0.534531 0.354981 9.25129e-18)
(-0.712974 0.340231 0)
(-0.886451 0.323164 -1.82762e-17)
(-1.05104 0.302631 0)
(-1.20901 0.280737 1.80508e-17)
(-1.35875 0.258259 0)
(-1.50192 0.235441 0)
(-1.63696 0.215049 -1.77167e-17)
(-1.76482 0.195967 0)
(-1.88794 0.178044 -5.24866e-17)
(-2.00538 0.159299 1.73857e-17)
(-2.11624 0.140416 0)
(-2.22012 0.123581 1.71655e-17)
(-2.31787 0.106029 1.70552e-17)
(-2.40823 0.086562 0)
(-2.48939 0.0676802 0)
(-2.56344 0.0531735 0)
(-2.63226 0.0437199 0)
(-2.69779 0.0388499 0)
(-2.75946 0.0374354 -1.63737e-17)
(-2.81924 0.0369132 -3.25151e-17)
(-2.87747 0.0369636 1.61414e-17)
(-2.9313 0.0343634 0)
(-2.98284 0.0304169 -3.18129e-17)
(-3.03223 0.0290886 1.57874e-17)
(-3.0788 0.0300682 0)
(-3.12638 0.0309953 1.55499e-17)
(-3.17177 0.0336816 0)
(-3.21516 0.0350899 0)
(-3.25692 0.0346212 3.03753e-17)
(-3.29768 0.0339561 -1.50673e-17)
(-3.3339 0.0318609 2.98917e-17)
(-3.36756 0.029058 -2.96504e-17)
(-3.39522 0.0253285 -1.47046e-17)
(-3.4197 0.0204697 0)
(-3.43778 0.0128775 -1.44628e-17)
(-3.44913 0.00267405 0)
(-3.45479 -0.00804173 0)
(-3.45203 -0.0205368 0)
(-3.44009 -0.034739 -1.39829e-17)
(-3.41992 -0.0487109 0)
(-3.39327 -0.0588021 -2.74948e-17)
(-3.36088 -0.0658798 4.08938e-17)
(-3.32316 -0.0743466 1.35161e-17)
(-3.27921 -0.0853474 0)
(-3.22736 -0.0979986 1.32876e-17)
(-3.1703 -0.110588 0)
(-3.10765 -0.122563 2.61237e-17)
(-3.03989 -0.133511 0)
(-2.96714 -0.143958 2.56806e-17)
(-2.88931 -0.153295 -5.09213e-17)
(-2.80757 -0.162187 -2.52468e-17)
(-2.72345 -0.170219 0)
(-2.63428 -0.17784 0)
(-2.54286 -0.183544 0)
(-2.44921 -0.187678 2.44068e-17)
(-2.35233 -0.191607 0)
(-2.25428 -0.194202 -2.40006e-17)
(-2.15633 -0.194537 0)
(-2.05783 -0.196079 7.08204e-17)
(-1.95946 -0.195344 2.34167e-17)
(-1.86058 -0.196225 2.32307e-17)
(-1.76394 -0.193316 0)
(-1.66964 -0.192735 0)
(-1.57463 -0.193786 0)
(-1.47689 -0.194666 0)
(-1.37997 -0.197276 0)
(-1.27726 -0.201721 4.43218e-17)
(-1.18078 -0.199967 4.39858e-17)
(-1.08078 -0.200186 0)
(-0.992911 -0.194736 -2.16749e-17)
(-0.896066 -0.195807 -2.15228e-17)
(-0.80863 -0.189032 0)
(-0.713683 -0.18781 -4.24429e-17)
(-0.635152 -0.18691 0)
(-0.538692 -0.197018 2.09373e-17)
(-0.452801 -0.191037 0)
(-0.346962 -0.199407 0)
(-0.252262 -0.195872 -4.10568e-17)
(-0.139046 -0.204525 0)
(-0.0349545 -0.204444 2.02718e-17)
(0.0902743 -0.212074 0)
(0.216514 -0.219672 0)
(0.352707 -0.224154 1.98866e-17)
(0.493366 -0.229112 1.97703e-17)
(0.639216 -0.234887 0)
(0.788807 -0.235622 -1.9533e-17)
(0.948769 -0.236919 0)
(1.10804 -0.229008 1.92964e-17)
(1.27338 -0.219157 3.83627e-17)
(1.42093 -0.212752 0)
(1.57791 -0.213664 0)
(1.72254 -0.213561 0)
(1.88184 -0.214904 0)
(2.02792 -0.209902 3.72309e-17)
(2.18172 -0.206592 1.11008e-16)
(2.31737 -0.187378 0)
(2.44071 -0.182922 0)
(2.5597 -0.172983 0)
(2.6652 -0.175105 -3.60807e-17)
(2.7683 -0.179722 0)
(2.86983 -0.178954 0)
(2.96534 -0.177153 7.06174e-17)
(3.05906 -0.176258 3.50343e-17)
(3.13263 -0.170174 3.47654e-17)
(3.2195 -0.179591 0)
(3.28316 -0.173653 0)
(3.35114 -0.17504 3.39211e-17)
(3.39712 -0.164035 -3.36155e-17)
(3.44295 -0.178146 0)
(3.47209 -0.174781 0)
(3.50639 -0.190938 -3.2723e-17)
(3.53429 -0.173077 9.71927e-17)
(3.54883 -0.168811 0)
(3.55934 -0.179715 0)
(3.57071 -0.191425 3.14616e-17)
(3.59129 -0.189341 0)
(3.58713 -0.182888 6.163e-17)
(3.58525 -0.180998 -3.0474e-17)
(3.55812 -0.185422 0)
(3.5542 -0.19438 2.98482e-17)
(3.53006 -0.19085 5.90619e-17)
(3.51867 -0.192411 0)
(3.47239 -0.18561 0)
(3.44866 -0.194481 -2.85779e-17)
(3.40885 -0.186586 0)
(3.35184 -0.169345 5.58937e-17)
(3.25554 -0.150271 0)
(3.1642 -0.15563 0)
(3.04585 -0.147347 0)
(2.91796 -0.122146 0)
(2.72387 -0.102899 -2.66546e-17)
(2.56527 -0.0759431 -2.64652e-17)
(2.28127 -0.0264704 0)
(2.00849 -0.00163107 0)
(1.67937 0.0224932 0)
(1.38477 0.0186575 2.59593e-17)
(1.05172 0.0232066 0)
(0.844461 0.0141908 -5.16702e-17)
(0.523639 0.0332784 5.16428e-17)
(0.408405 0.00119821 5.14945e-17)
(0.127454 0.0320702 5.14846e-17)
(0.127219 -0.0157699 5.13318e-17)
(-0.169229 0.0788317 5.14954e-17)
(0.0172707 -0.117226 0)
(0.0290306 0.0710326 0)
(0.120962 -0.0382126 0)
(0.227805 -0.241106 2.29127e-17)
(0.339708 -0.467767 2.26642e-17)
(0.473982 -0.692282 -2.25128e-17)
(0.617932 -0.874208 -2.24002e-17)
(0.772 -1.00295 -1.48184e-21)
(0.923151 -1.07332 0)
(1.06811 -1.08413 0)
(1.1947 -1.04495 0)
(1.30325 -0.965041 0)
(1.38897 -0.855676 0)
(1.45429 -0.725131 6.47122e-17)
(1.4947 -0.584942 0)
(1.51304 -0.440163 -2.1305e-17)
(1.50753 -0.293749 -2.11687e-17)
(1.48105 -0.15237 0)
(1.43219 -0.0188905 0)
(1.36558 0.104941 0)
(1.28099 0.217351 0)
(1.18075 0.316592 -2.05027e-17)
(1.0657 0.399507 0)
(0.940843 0.471741 2.02488e-17)
(0.803444 0.53672 0)
(0.656377 0.591427 0)
(0.501002 0.636191 0)
(0.342728 0.671973 3.95254e-17)
(0.180534 0.699011 0)
(0.01692 0.718272 -1.95224e-17)
(-0.14767 0.72851 3.88002e-17)
(-0.31151 0.731549 0)
(-0.477603 0.733179 0)
(-0.643889 0.730097 0)
(-0.808972 0.720548 -1.89166e-17)
(-0.970437 0.705264 -1.87958e-17)
(-1.12869 0.683746 0)
(-1.28216 0.656433 0)
(-1.43005 0.624922 3.68591e-17)
(-1.57098 0.590889 3.66194e-17)
(-1.7102 0.556561 -3.63812e-17)
(-1.84441 0.523861 0)
(-1.97683 0.490379 0)
(-2.10364 0.458244 0)
(-2.22677 0.428914 0)
(-2.34569 0.401277 3.52004e-17)
(-2.4586 0.372061 3.49667e-17)
(-2.56638 0.342463 -3.47348e-17)
(-2.66858 0.313969 0)
(-2.76469 0.286109 0)
(-2.85549 0.25714 0)
(-2.94096 0.230343 0)
(-3.02647 0.212577 3.35756e-17)
(-3.10605 0.196707 0)
(-3.18061 0.183528 0)
(-3.24866 0.175762 3.2878e-17)
(-3.31205 0.170612 3.26463e-17)
(-3.37007 0.163746 0)
(-3.42046 0.15439 -6.43596e-17)
(-3.46893 0.147531 3.19485e-17)
(-3.51343 0.14111 -3.17141e-17)
(-3.55219 0.13736 0)
(-3.58802 0.13468 0)
(-3.61783 0.130521 0)
(-3.64273 0.12629 0)
(-3.66508 0.121052 -3.05526e-17)
(-3.68312 0.113613 -6.06461e-17)
(-3.6949 0.105613 -3.00974e-17)
(-3.70293 0.0971009 2.98725e-17)
(-3.70375 0.0854653 0)
(-3.69947 0.0722018 -5.88395e-17)
(-3.6872 0.0561198 -5.8391e-17)
(-3.66966 0.0399434 -5.7946e-17)
(-3.64788 0.0221351 5.75041e-17)
(-3.61729 -0.000166449 0)
(-3.57975 -0.0228629 8.49404e-17)
(-3.53636 -0.0422954 0)
(-3.48822 -0.0576432 -2.78772e-17)
(-3.43156 -0.0712823 -2.76642e-17)
(-3.36698 -0.0867737 0)
(-3.29625 -0.103437 0)
(-3.22204 -0.120009 -5.40401e-17)
(-3.14568 -0.134691 0)
(-3.06537 -0.148786 -5.31928e-17)
(-2.98254 -0.16235 0)
(-2.89516 -0.176681 5.2354e-17)
(-2.80429 -0.188042 1.0388e-16)
(-2.70969 -0.197775 0)
(-2.61426 -0.20704 0)
(-2.51576 -0.21462 0)
(-2.41857 -0.220911 5.02909e-17)
(-2.31956 -0.226698 0)
(-2.21732 -0.231267 4.94692e-17)
(-2.11222 -0.234442 0)
(-2.00672 -0.23363 0)
(-1.89884 -0.233724 -9.65055e-17)
(-1.79384 -0.231142 0)
(-1.68692 -0.230425 -4.74617e-17)
(-1.58416 -0.224342 0)
(-1.47697 -0.22527 -4.6694e-17)
(-1.37048 -0.2248 0)
(-1.26163 -0.224276 0)
(-1.15401 -0.228406 0)
(-1.04334 -0.23102 -1.35692e-16)
(-0.942838 -0.222911 -4.48693e-17)
(-0.833289 -0.219881 0)
(-0.73965 -0.209563 0)
(-0.637495 -0.21096 0)
(-0.55177 -0.198552 0)
(-0.447405 -0.194618 4.32346e-17)
(-0.361374 -0.189189 -8.58337e-17)
(-0.254264 -0.20579 -4.26318e-17)
(-0.166921 -0.198033 8.46555e-17)
(-0.0469808 -0.214134 8.40926e-17)
(0.054992 -0.210018 4.17604e-17)
(0.185197 -0.225036 0)
(0.298025 -0.225487 8.23951e-17)
(0.437054 -0.241449 0)
(0.569303 -0.250507 -8.1284e-17)
(0.717803 -0.257337 -4.03839e-17)
(0.864051 -0.262388 0)
(1.01914 -0.2709 7.97623e-17)
(1.16823 -0.273933 3.96278e-17)
(1.33049 -0.282045 0)
(1.48888 -0.280243 3.90896e-17)
(1.66301 -0.269314 -1.16507e-16)
(1.82185 -0.257021 0)
(1.98628 -0.255843 0)
(2.13784 -0.255283 0)
(2.29777 -0.258298 0)
(2.45365 -0.253622 -7.51549e-17)
(2.60902 -0.250557 -7.46564e-17)
(2.75976 -0.219455 0)
(2.89734 -0.214125 0)
(3.02826 -0.201979 0)
(3.14994 -0.200625 0)
(3.25716 -0.205686 0)
(3.37685 -0.208513 0)
(3.49015 -0.207536 -7.0954e-17)
(3.60366 -0.204976 -1.65083e-20)
(3.6969 -0.195625 0)
(3.80687 -0.208886 0)
(3.89461 -0.196538 -6.86088e-17)
(3.98753 -0.197255 0)
(4.06557 -0.176396 6.7428e-17)
(4.13537 -0.187349 6.68109e-17)
(4.17646 -0.170035 0)
(4.23092 -0.188592 0)
(4.26887 -0.164615 -6.49026e-17)
(4.31916 -0.15593 -1.28516e-16)
(4.3465 -0.160189 0)
(4.37961 -0.172388 0)
(4.42108 -0.163377 0)
(4.43459 -0.149106 -6.16957e-17)
(4.46315 -0.135905 6.10084e-17)
(4.46278 -0.135591 0)
(4.48242 -0.141728 1.19384e-16)
(4.46636 -0.129834 5.90382e-17)
(4.48337 -0.128417 -1.16784e-16)
(4.46145 -0.109952 0)
(4.46044 -0.11703 0)
(4.43092 -0.095847 -1.12767e-16)
(4.39064 -0.0681995 -5.57236e-17)
(4.30741 -0.0389514 0)
(4.24431 -0.0370459 0)
(4.11287 -0.0190312 0)
(4.00378 0.0239931 0)
(3.79228 0.0518858 -1.05598e-16)
(3.62409 0.0955169 0)
(3.32637 0.16681 0)
(3.06795 0.191503 0)
(2.71837 0.219131 0)
(2.40469 0.202516 0)
(2.0162 0.186795 0)
(1.77913 0.153881 -1.0064e-16)
(1.37407 0.151546 0)
(1.24451 0.0831572 0)
(0.860698 0.105415 -1.9942e-16)
(0.85562 0.0230066 9.92485e-17)
(0.470091 0.111519 -9.94026e-17)
(0.665151 -0.128342 9.87834e-17)
(0.0206131 -0.0940171 0)
(0.124855 -0.268824 -4.69555e-17)
(0.247427 -0.48906 0)
(0.375201 -0.754411 -2.27966e-17)
(0.501686 -0.997984 0)
(0.617556 -1.18677 0)
(0.721867 -1.30435 2.24455e-17)
(0.802108 -1.34755 0)
(0.864558 -1.31756 0)
(0.903338 -1.23169 0)
(0.924939 -1.10889 0)
(0.927256 -0.959607 0)
(0.915117 -0.79245 -8.66156e-17)
(0.8859 -0.615283 -4.30251e-17)
(0.843081 -0.43254 4.27457e-17)
(0.78641 -0.251538 0)
(0.717945 -0.0789616 0)
(0.636356 0.0822863 0)
(0.545101 0.230808 0)
(0.443683 0.363934 0)
(0.334873 0.481265 -4.1151e-17)
(0.216857 0.582932 -4.08983e-17)
(0.0909475 0.673488 4.06491e-17)
(-0.0407085 0.749361 -4.04014e-17)
(-0.176461 0.811961 0)
(-0.314951 0.859881 0)
(-0.454939 0.895743 -3.9658e-17)
(-0.595271 0.920303 0)
(-0.736516 0.934299 0)
(-0.878299 0.942792 -3.89248e-17)
(-1.02066 0.948172 -3.86816e-17)
(-1.16087 0.9458 -3.84371e-17)
(-1.29801 0.936666 0)
(-1.4319 0.921354 0)
(-1.56122 0.899871 3.76934e-17)
(-1.68556 0.870237 0)
(-1.80596 0.834722 0)
(-1.92277 0.795302 -3.69486e-17)
(-2.03661 0.757383 3.6697e-17)
(-2.14893 0.71938 -3.64482e-17)
(-2.25481 0.68075 0)
(-2.35906 0.641498 0)
(-2.45929 0.605295 -7.1419e-17)
(-2.55679 0.57118 0)
(-2.64896 0.533163 -7.04531e-17)
(-2.73767 0.495145 -1.04962e-16)
(-2.82273 0.459345 1.04241e-16)
(-2.9025 0.423067 -6.90141e-17)
(-2.97906 0.385822 0)
(-3.05302 0.350198 0)
(-3.12653 0.322029 -6.76018e-17)
(-3.19727 0.297541 -3.35704e-17)
(-3.26165 0.271981 0)
(-3.32187 0.250928 0)
(-3.37751 0.235604 -3.28784e-17)
(-3.42772 0.218771 -6.52969e-17)
(-3.4717 0.199839 0)
(-3.50972 0.181938 6.4379e-17)
(-3.54388 0.167574 -6.39199e-17)
(-3.57267 0.153999 6.34642e-17)
(-3.5957 0.14014 0)
(-3.6125 0.126907 0)
(-3.6249 0.115758 0)
(-3.63197 0.104531 0)
(-3.63537 0.0943257 0)
(-3.63336 0.0783941 6.07744e-17)
(-3.62699 0.0611147 0)
(-3.61395 0.0423293 0)
(-3.59514 0.0212173 0)
(-3.57222 -0.000808136 1.18047e-16)
(-3.54376 -0.024833 5.85911e-17)
(-3.51055 -0.0488865 5.81575e-17)
(-3.47234 -0.0759313 -1.15456e-16)
(-3.42774 -0.107379 5.73033e-17)
(-3.37971 -0.137469 -5.68838e-17)
(-3.32546 -0.164977 0)
(-3.26631 -0.190852 5.60367e-17)
(-3.19726 -0.217401 0)
(-3.12408 -0.242508 0)
(-3.04535 -0.264325 0)
(-2.96514 -0.284981 1.08717e-16)
(-2.88284 -0.303948 -5.39451e-17)
(-2.79726 -0.322816 -5.35317e-17)
(-2.71051 -0.34157 -1.06268e-16)
(-2.61981 -0.361412 -1.58212e-16)
(-2.52821 -0.377265 -5.23422e-17)
(-2.43182 -0.390233 0)
(-2.33585 -0.401805 -1.03068e-16)
(-2.23832 -0.409995 0)
(-2.14091 -0.416446 -1.52204e-16)
(-2.04268 -0.426378 0)
(-1.94562 -0.432694 -1.49831e-16)
(-1.84244 -0.438922 0)
(-1.7388 -0.43952 0)
(-1.63043 -0.441 -4.87469e-17)
(-1.52352 -0.437615 0)
(-1.41311 -0.437164 4.79724e-17)
(-1.30736 -0.432663 9.51568e-17)
(-1.19363 -0.434658 4.72038e-17)
(-1.08378 -0.436871 9.36503e-17)
(-0.965329 -0.437866 -9.28935e-17)