/*--------------------------------*- C++ -*----------------------------------*\
| =========                 |                                                 |
| \\      /  F ield         | OpenFOAM: The Open Source CFD Toolbox           |
|  \\    /   O peration     | Version:  dev                                   |
|   \\  /    A nd           | Web:      http://www.openfoam.org               |
|    \\/     M anipulation  |                                                 |
\*---------------------------------------------------------------------------*/
FoamFile
{
    version     2.0;
    format      ascii;
    class       volSymmTensorField;
    object      UPrime2Mean;
    location    "9.134";
}
// * * * * * * * * * * * * * * * * * * * * * * * * * * * * * * * * * * * * * //

dimensions      [0 2 -2 0 0 0 0];

internalField   nonuniform List<symmTensor> 
12225
(
(0.329346 0.0192728 0 0.0692849 0 0)
(2.98705 0.0796941 0 0.0782114 0 0)
(7.88268 0.112305 0 0.0769142 0 0)
(14.5385 0.148227 0 0.07559 0 0)
(22.709 0.132988 0 0.0765344 0 0)
(32.0752 0.201107 0 0.0746909 0 0)
(42.3895 0.0959836 0 0.0766294 0 0)
(53.535 0.200445 0 0.0738685 0 0)
(65.6304 -0.0283315 0 0.0776264 0 0)
(78.2285 0.125798 0 0.0736353 0 0)
(92.9764 -0.305993 0 0.0813209 0 0)
(107.319 -0.115599 0 0.0770085 0 0)
(127.929 -0.671776 0 0.0863103 0 0)
(145.635 -1.27725 0 0.13474 0 0)
(185.952 -1.40902 0 0.116409 0 0)
(198.528 -0.392991 0 2.39323 0 0)
(272.31 -33.5328 0 5.80792 0 0)
(575.803 -52.9261 0 18.819 0 0)
(0.377524 0.0568149 0 0.689156 0 0)
(3.157 0.252251 0 0.732469 0 0)
(8.41328 0.362119 0 0.714321 0 0)
(15.4776 0.485448 0 0.706816 0 0)
(24.2037 0.453021 0 0.703673 0 0)
(34.4647 0.632989 0 0.683511 0 0)
(45.5342 0.296232 0 0.692279 0 0)
(58.4913 0.609409 0 0.658969 0 0)
(71.4836 -0.134698 0 0.682783 0 0)
(87.1587 0.283441 0 0.646138 0 0)
(102.794 -1.06419 0 0.711403 0 0)
(121.437 -0.764925 0 0.655578 0 0)
(142.858 -2.54115 0 1.06899 0 0)
(166.331 -4.49079 0 1.04694 0 0)
(199.772 -0.92394 0 3.10124 0 0)
(274.409 -9.97443 0 6.6064 0 0)
(281.042 -20.8316 0 8.73795 0 0)
(799.851 -185.159 0 64.694 0 0)
(0.505127 0.0583606 0 2.14117 0 0)
(3.06486 0.424676 0 2.20312 0 0)
(8.46823 0.570482 0 2.15202 0 0)
(14.8564 0.852043 0 2.1435 0 0)
(24.2818 0.864626 0 2.12039 0 0)
(33.1579 1.05342 0 2.08319 0 0)
(45.28 0.756633 0 2.07889 0 0)
(56.2124 0.886997 0 2.00812 0 0)
(69.6971 0.173157 0 2.05219 0 0)
(83.4594 0.0181974 0 1.95982 0 0)
(98.1993 -1.12153 0 2.12298 0 0)
(115.673 -2.4458 0 2.09468 0 0)
(138.634 -3.59333 0 2.62249 0 0)
(154.886 -7.19574 0 2.83091 0 0)
(211.015 -13.0035 0 6.11976 0 0)
(223.417 -7.8859 0 6.37619 0 0)
(353.008 -62.2415 0 31.0781 0 0)
(534.55 -192.472 0 98.2248 0 0)
(1.02997 0.0923765 0 4.67175 0 0)
(3.55043 0.619585 0 4.76837 0 0)
(9.07148 0.815797 0 4.64411 0 0)
(15.0703 1.15016 0 4.60336 0 0)
(24.6425 1.31315 0 4.55906 0 0)
(32.9916 1.35032 0 4.48468 0 0)
(45.0147 1.26214 0 4.44967 0 0)
(55.1797 0.974323 0 4.35106 0 0)
(68.613 0.47742 0 4.38279 0 0)
(80.728 -0.281251 0 4.25895 0 0)
(96.0511 -1.32832 0 4.50825 0 0)
(110.53 -3.33962 0 4.37312 0 0)
(131.493 -4.78995 0 5.30252 0 0)
(152.259 -10.9667 0 5.60807 0 0)
(187.89 -11.4259 0 9.28506 0 0)
(238.422 -28.8476 0 16.8213 0 0)
(291.459 -58.8932 0 32.6725 0 0)
(414.864 -178.302 0 107.82 0 0)
(1.86389 0.365089 0 8.5251 0 0)
(5.00967 0.720094 0 8.72662 0 0)
(9.43736 1.14012 0 8.47541 0 0)
(16.2451 1.29467 0 8.37224 0 0)
(24.6521 1.70117 0 8.28261 0 0)
(33.9532 1.50283 0 8.14744 0 0)
(44.8263 1.59882 0 8.04674 0 0)
(55.5321 0.993803 0 7.91445 0 0)
(68.4236 0.602348 0 7.86141 0 0)
(80.1324 -0.592075 0 7.76319 0 0)
(95.3824 -1.77596 0 7.96472 0 0)
(108.569 -4.22451 0 7.91154 0 0)
(128.113 -6.87543 0 9.0279 0 0)
(145.235 -12.2837 0 9.26915 0 0)
(173.981 -19.1953 0 14.5884 0 0)
(217.921 -25.9424 0 17.2093 0 0)
(233.67 -55.5543 0 46.2691 0 0)
(326.707 -171.74 0 138.662 0 0)
(2.56065 0.750515 0 14.0438 0 0)
(6.32346 0.806281 0 14.3956 0 0)
(9.29835 1.53991 0 13.9658 0 0)
(17.0989 1.59422 0 13.7709 0 0)
(24.1412 2.12077 0 13.5962 0 0)
(34.272 1.93681 0 13.3639 0 0)
(43.9797 1.99194 0 13.1586 0 0)
(55.1796 1.4163 0 12.9174 0 0)
(67.3347 0.896411 0 12.7804 0 0)
(78.9195 -0.383765 0 12.579 0 0)
(94.4341 -1.73545 0 12.7787 0 0)
(105.841 -4.30906 0 12.6871 0 0)
(128.121 -7.26339 0 13.9882 0 0)
(137.95 -13.1521 0 14.6676 0 0)
(170.974 -21.8346 0 21.2473 0 0)
(191.497 -33.0306 0 24.5969 0 0)
(211.087 -55.897 0 51.5729 0 0)
(265.683 -145.662 0 130.65 0 0)
(2.24143 0.721548 0 21.5384 0 0)
(5.53987 0.939856 0 22.1543 0 0)
(9.19895 1.76349 0 21.3801 0 0)
(16.3407 2.07711 0 21.1921 0 0)
(23.9769 2.44986 0 20.7934 0 0)
(33.369 2.5428 0 20.56 0 0)
(43.6202 2.27496 0 20.0914 0 0)
(54.058 1.92888 0 19.861 0 0)
(66.4973 0.898898 0 19.4426 0 0)
(77.3728 -0.216641 0 19.2895 0 0)
(92.5333 -2.36876 0 19.2288 0 0)
(103.512 -4.82006 0 19.2715 0 0)
(123.655 -8.9769 0 20.4795 0 0)
(133.938 -14.2558 0 21.4574 0 0)
(161.549 -24.3953 0 28.5164 0 0)
(169.382 -32.4025 0 32.0537 0 0)
(203.419 -59.003 0 56.8611 0 0)
(190.242 -108.756 0 114.149 0 0)
(1.42036 0.598425 0 29.7627 0 0)
(4.31698 1.13347 0 30.6482 0 0)
(8.58096 1.92365 0 29.5007 0 0)
(15.2517 2.47223 0 29.3293 0 0)
(23.2094 2.77718 0 28.6838 0 0)
(32.2701 2.96314 0 28.4226 0 0)
(42.428 2.5986 0 27.6705 0 0)
(52.7977 2.19167 0 27.3896 0 0)
(64.4417 1.00838 0 26.6653 0 0)
(75.6267 -0.361881 0 26.4999 0 0)
(88.6661 -2.74938 0 26.1156 0 0)
(100.447 -5.73166 0 26.3399 0 0)
(115.567 -10.318 0 27.094 0 0)
(128.095 -15.794 0 28.6087 0 0)
(144.681 -26.4843 0 33.9183 0 0)
(152.043 -33.452 0 37.4839 0 0)
(180.358 -54.8834 0 53.1829 0 0)
(139.589 -71.2851 0 83.6961 0 0)
(1.00166 0.520912 0 38.5361 0 0)
(3.77188 1.2865 0 39.7307 0 0)
(8.17549 2.03523 0 38.1929 0 0)
(14.7267 2.77897 0 38.0516 0 0)
(22.6509 3.00529 0 37.1414 0 0)
(31.5902 3.31529 0 36.8661 0 0)
(41.5101 2.80522 0 35.8146 0 0)
(51.7831 2.47343 0 35.4958 0 0)
(62.8426 1.03931 0 34.4862 0 0)
(73.8562 -0.280423 0 34.2862 0 0)
(85.6774 -3.04388 0 33.6542 0 0)
(97.0332 -5.9013 0 33.9137 0 0)
(109.364 -10.9457 0 34.4203 0 0)
(121.233 -16.035 0 36.1393 0 0)
(131.244 -25.5567 0 40.0178 0 0)
(138.163 -33.1993 0 44.7474 0 0)
(150.001 -47.3062 0 52.4688 0 0)
(123.227 -58.7355 0 73.1269 0 0)
(0.607 0.484245 0 49.7258 0 0)
(3.23045 1.4452 0 51.3144 0 0)
(7.73909 2.18596 0 49.217 0 0)
(14.1977 3.03534 0 49.1296 0 0)
(21.9928 3.27297 0 47.8399 0 0)
(30.8524 3.57882 0 47.5605 0 0)
(40.4779 3.06465 0 46.0985 0 0)
(50.6131 2.63632 0 45.7297 0 0)
(61.1385 1.16155 0 44.3093 0 0)
(71.8055 -0.293308 0 44.0654 0 0)
(82.6878 -3.14196 0 43.0198 0 0)
(93.2293 -6.03797 0 43.3382 0 0)
(103.871 -11.0922 0 43.3363 0 0)
(113.732 -15.8422 0 45.1919 0 0)
(121.343 -24.5014 0 47.6925 0 0)
(125.779 -30.562 0 51.9605 0 0)
(129.115 -40.7078 0 56.4812 0 0)
(116.023 -48.3764 0 69.0399 0 0)
(0.432705 0.516015 0 63.924 0 0)
(2.97774 1.62719 0 65.9796 0 0)
(7.47003 2.38302 0 63.2869 0 0)
(13.8463 3.30995 0 63.1751 0 0)
(21.4936 3.56906 0 61.5406 0 0)
(30.1917 3.85851 0 61.1259 0 0)
(39.5505 3.35525 0 59.3171 0 0)
(49.3885 2.81717 0 58.7219 0 0)
(59.4578 1.36796 0 57.0001 0 0)
(69.5598 -0.269241 0 56.4818 0 0)
(79.6546 -2.98363 0 55.1776 0 0)
(89.1878 -6.08319 0 55.2326 0 0)
(98.5045 -10.5542 0 54.8845 0 0)
(106.379 -15.4154 0 56.4306 0 0)
(112.545 -22.1291 0 57.872 0 0)
(115.077 -28.0425 0 61.5996 0 0)
(116.025 -35.1871 0 64.5637 0 0)
(109.573 -40.7821 0 71.4575 0 0)
(0.356031 0.540474 0 81.4219 0 0)
(2.83137 1.74472 0 84.1081 0 0)
(7.26222 2.55433 0 80.6392 0 0)
(13.5169 3.5007 0 80.53 0 0)
(20.9902 3.8079 0 78.4427 0 0)
(29.4683 4.03534 0 77.8894 0 0)
(38.5249 3.55871 0 75.5992 0 0)
(47.9934 2.91709 0 74.774 0 0)
(57.5452 1.47846 0 72.5807 0 0)
(67.0365 -0.225493 0 71.7928 0 0)
(76.2478 -2.87492 0 70.0359 0 0)
(84.8319 -5.85932 0 69.7754 0 0)
(92.7366 -9.96272 0 68.9382 0 0)
(99.1642 -14.2898 0 69.8898 0 0)
(103.878 -19.7352 0 70.5305 0 0)
(105.822 -24.6464 0 73.0322 0 0)
(105.978 -29.8103 0 74.9728 0 0)
(101.733 -33.2931 0 78.6255 0 0)
(0.329244 0.568909 0 102.506 0 0)
(2.73624 1.8063 0 105.716 0 0)
(7.06924 2.68212 0 101.689 0 0)
(13.1558 3.58204 0 101.22 0 0)
(20.4336 3.93165 0 98.9546 0 0)
(28.6168 4.0524 0 97.8746 0 0)
(37.3488 3.61244 0 95.3588 0 0)
(46.3475 2.83056 0 93.9087 0 0)
(55.3742 1.47101 0 91.4708 0 0)
(64.1531 -0.345455 0 90.0187 0 0)
(72.5302 -2.76268 0 87.9902 0 0)
(80.1183 -5.69281 0 87.0145 0 0)
(86.8381 -9.20183 0 85.8007 0 0)
(92.0979 -13.0896 0 85.8058 0 0)
(95.7991 -17.3064 0 85.7537 0 0)
(97.3835 -21.3716 0 86.893 0 0)
(97.4868 -25.2147 0 87.9181 0 0)
(94.6836 -27.6686 0 89.52 0 0)
(0.313695 0.573107 0 126.507 0 0)
(2.64097 1.7733 0 130.438 0 0)
(6.84845 2.66624 0 125.726 0 0)
(12.7316 3.46141 0 124.916 0 0)
(19.7674 3.78895 0 122.384 0 0)
(27.6167 3.80287 0 120.807 0 0)
(35.9568 3.32939 0 117.923 0 0)
(44.4648 2.48275 0 115.888 0 0)
(52.8999 1.12833 0 113.026 0 0)
(60.9918 -0.634326 0 110.934 0 0)
(68.5391 -2.90154 0 108.441 0 0)
(75.2611 -5.53254 0 106.712 0 0)
(80.9978 -8.58671 0 104.942 0 0)
(85.4462 -11.809 0 103.936 0 0)
(88.4912 -15.1708 0 103.102 0 0)
(89.9288 -18.3372 0 102.925 0 0)
(90.2317 -21.2552 0 102.935 0 0)
(88.2697 -22.901 0 103.085 0 0)
(0.299299 0.524568 0 151.93 0 0)
(2.53302 1.58077 0 156.434 0 0)
(6.5843 2.37583 0 151.303 0 0)
(12.2338 2.9856 0 149.863 0 0)
(18.9743 3.20888 0 147.303 0 0)
(26.4524 3.06682 0 144.99 0 0)
(34.3517 2.52654 0 141.899 0 0)
(42.3397 1.59479 0 139.091 0 0)
(50.1752 0.265958 0 135.891 0 0)
(57.5932 -1.43823 0 133.012 0 0)
(64.4049 -3.4992 0 130.058 0 0)
(70.3827 -5.83591 0 127.483 0 0)
(75.3959 -8.41182 0 125.078 0 0)
(79.2822 -11.0629 0 123.074 0 0)
(81.9802 -13.6999 0 121.357 0 0)
(83.3982 -16.1637 0 120.015 0 0)
(83.9812 -18.3613 0 118.924 0 0)
(82.7748 -19.4065 0 117.81 0 0)
(0.284002 0.393797 0 175.16 0 0)
(2.41462 1.14424 0 180.362 0 0)
(6.28411 1.66845 0 174.751 0 0)
(11.6721 2.0002 0 172.868 0 0)
(18.079 1.99704 0 170.185 0 0)
(25.1587 1.66009 0 167.333 0 0)
(32.5902 0.979526 0 163.945 0 0)
(40.0582 -0.0291719 0 160.547 0 0)
(47.3153 -1.36309 0 156.927 0 0)
(54.1282 -2.9744 0 153.412 0 0)
(60.3191 -4.842 0 149.922 0 0)
(65.7238 -6.872 0 146.628 0 0)
(70.2374 -9.02536 0 143.529 0 0)
(73.7868 -11.1724 0 140.671 0 0)
(76.3426 -13.2354 0 138.078 0 0)
(77.8689 -15.1341 0 135.75 0 0)
(78.7514 -16.7809 0 133.636 0 0)
(78.2034 -17.3777 0 131.434 0 0)
(0.268793 0.155895 0 190.275 0 0)
(2.29379 0.389487 0 195.951 0 0)
(5.96764 0.486514 0 190.054 0 0)
(11.0766 0.407275 0 187.91 0 0)
(17.1334 0.0701166 0 185.163 0 0)
(23.8054 -0.538598 0 181.991 0 0)
(30.7754 -1.40792 0 178.41 0 0)
(37.7478 -2.53014 0 174.656 0 0)
(44.4867 -3.87961 0 170.742 0 0)
(50.7858 -5.41923 0 166.821 0 0)
(56.4923 -7.10556 0 162.927 0 0)
(61.4844 -8.87351 0 159.145 0 0)
(65.6869 -10.6686 0 155.507 0 0)
(69.0702 -12.413 0 152.043 0 0)
(71.6274 -14.0307 0 148.774 0 0)
(73.3471 -15.5001 0 145.728 0 0)
(74.5425 -16.7356 0 142.833 0 0)
(74.5876 -17.0558 0 139.836 0 0)
(0.259146 -0.143093 0 190.248 0 0)
(2.19631 -0.536177 0 195.881 0 0)
(5.69109 -0.940766 0 190.048 0 0)
(10.5439 -1.49695 0 187.895 0 0)
(16.2852 -2.21819 0 185.191 0 0)
(22.5971 -3.12119 0 182.025 0 0)
(29.1717 -4.19511 0 178.47 0 0)
(35.7363 -5.43421 0 174.719 0 0)
(42.0681 -6.80802 0 170.792 0 0)
(47.9896 -8.28796 0 166.838 0 0)
(53.3645 -9.82727 0 162.862 0 0)
(58.1047 -11.3835 0 158.974 0 0)
(62.1491 -12.9037 0 155.159 0 0)
(65.4914 -14.3446 0 151.494 0 0)
(68.1306 -15.641 0 147.951 0 0)
(70.072 -16.8 0 144.61 0 0)
(71.5491 -17.7462 0 141.36 0 0)
(72.0836 -17.9502 0 138.028 0 0)
(0.255993 -0.396986 0 174.426 0 0)
(2.13719 -1.30837 0 179.379 0 0)
(5.50047 -2.13104 0 174.048 0 0)
(10.1635 -3.08054 0 172.055 0 0)
(15.6714 -4.10985 0 169.572 0 0)
(21.7193 -5.23969 0 166.682 0 0)
(28.0101 -6.46297 0 163.429 0 0)
(34.2892 -7.77661 0 160.004 0 0)
(40.3464 -9.15216 0 156.398 0 0)
(46.0253 -10.5698 0 152.768 0 0)
(51.2006 -11.9875 0 149.082 0 0)
(55.804 -13.3788 0 145.474 0 0)
(59.7822 -14.6988 0 141.89 0 0)
(63.1392 -15.9244 0 138.436 0 0)
(65.8731 -17.0041 0 135.051 0 0)
(68.0013 -17.9531 0 131.848 0 0)
(69.693 -18.7102 0 128.692 0 0)
(70.5907 -18.8971 0 125.491 0 0)
(0.257459 -0.546125 0 148.983 0 0)
(2.10947 -1.74945 0 152.942 0 0)
(5.38617 -2.82603 0 148.405 0 0)
(9.92165 -4.0104 0 146.687 0 0)
(15.2729 -5.21489 0 144.565 0 0)
(21.144 -6.46448 0 142.111 0 0)
(27.2472 -7.75118 0 139.346 0 0)
(33.3403 -9.07685 0 136.44 0 0)
(39.2237 -10.4141 0 133.367 0 0)
(44.7536 -11.7531 0 130.275 0 0)
(49.8147 -13.0554 0 127.117 0 0)
(54.3477 -14.3081 0 124.021 0 0)
(58.3065 -15.4717 0 120.926 0 0)
(61.6965 -16.5374 0 117.936 0 0)
(64.5169 -17.4615 0 114.986 0 0)
(66.7898 -18.263 0 112.187 0 0)
(68.6405 -18.8916 0 109.414 0 0)
(69.8012 -19.1005 0 106.622 0 0)
(0.260332 -0.601839 0 120.073 0 0)
(2.1006 -1.89146 0 123.044 0 0)
(5.32022 -3.07039 0 119.395 0 0)
(9.77039 -4.34422 0 118 0 0)
(15.0168 -5.60319 0 116.294 0 0)
(20.7704 -6.87341 0 114.329 0 0)
(26.7498 -8.1446 0 112.115 0 0)
(32.7224 -9.42212 0 109.788 0 0)
(38.4955 -10.6806 0 107.323 0 0)
(43.9338 -11.917 0 104.838 0 0)
(48.9298 -13.0975 0 102.296 0 0)
(53.4289 -14.2176 0 99.7965 0 0)
(57.3899 -15.2428 0 97.291 0 0)
(60.8175 -16.1733 0 94.8648 0 0)
(63.712 -16.9719 0 92.4658 0 0)
(66.0982 -17.6583 0 90.1815 0 0)
(68.071 -18.1916 0 87.9159 0 0)
(69.4305 -18.4266 0 85.6399 0 0)
(0.263285 -0.590992 0 91.9152 0 0)
(2.10029 -1.8315 0 94.0312 0 0)
(5.28253 -2.99901 0 91.2394 0 0)
(9.67586 -4.25015 0 90.1656 0 0)
(14.8519 -5.47101 0 88.8659 0 0)
(20.5269 -6.68403 0 87.3707 0 0)
(26.4246 -7.87876 0 85.6896 0 0)
(32.3184 -9.06019 0 83.9172 0 0)
(38.0214 -10.2076 0 82.0409 0 0)
(43.4036 -11.3198 0 80.1432 0 0)
(48.363 -12.3698 0 78.2018 0 0)
(52.8478 -13.356 0 76.2867 0 0)
(56.82 -14.2509 0 74.368 0 0)
(60.283 -15.0571 0 72.504 0 0)
(63.2384 -15.7465 0 70.6621 0 0)
(65.7133 -16.334 0 68.9015 0 0)
(67.7805 -16.7905 0 67.1582 0 0)
(69.2929 -17.0396 0 65.4046 0 0)
(0.266364 -0.537141 0 66.9546 0 0)
(2.10416 -1.6521 0 68.3954 0 0)
(5.26127 -2.73262 0 66.3631 0 0)
(9.61692 -3.88609 0 65.58 0 0)
(14.7457 -5.00617 0 64.6415 0 0)
(20.3684 -6.10871 0 63.5594 0 0)
(26.2126 -7.1857 0 62.3448 0 0)
(32.0554 -8.23901 0 61.0588 0 0)
(37.7145 -9.25387 0 59.6995 0 0)
(43.0631 -10.2278 0 58.3192 0 0)
(48.0036 -11.1416 0 56.9098 0 0)
(52.4852 -11.9928 0 55.5147 0 0)
(56.4726 -12.7621 0 54.1203 0 0)
(59.9676 -13.4511 0 52.7611 0 0)
(62.9731 -14.0402 0 51.4206 0 0)
(65.517 -14.5389 0 50.1344 0 0)
(67.6567 -14.9286 0 48.8642 0 0)
(69.2869 -15.1761 0 47.5827 0 0)
(0.268209 -0.463182 0 46.3042 0 0)
(2.1086 -1.41692 0 47.2432 0 0)
(5.24948 -2.36537 0 45.842 0 0)
(9.5802 -3.37722 0 45.3039 0 0)
(14.6773 -4.35874 0 44.6625 0 0)
(20.2655 -5.31933 0 43.9185 0 0)
(26.0752 -6.25398 0 43.0842 0 0)
(31.8856 -7.16098 0 42.1966 0 0)
(37.5179 -8.0314 0 41.2608 0 0)
(42.8473 -8.86057 0 40.3074 0 0)
(47.7786 -9.63624 0 39.3371 0 0)
(52.2622 -10.3544 0 38.3742 0 0)
(56.2641 -11.0028 0 37.4144 0 0)
(59.7852 -11.5808 0 36.476 0 0)
(62.8286 -12.0762 0 35.5525 0 0)
(65.4234 -12.4927 0 34.6631 0 0)
(67.615 -12.8205 0 33.7879 0 0)
(69.3312 -13.0507 0 32.9015 0 0)
(0.269378 -0.383335 0 30.1675 0 0)
(2.11216 -1.16549 0 30.752 0 0)
(5.24278 -1.95962 0 29.8415 0 0)
(9.55678 -2.80905 0 29.4942 0 0)
(14.6326 -3.63308 0 29.082 0 0)
(20.1976 -4.43791 0 28.6013 0 0)
(25.9843 -5.21977 0 28.0619 0 0)
(31.7725 -5.97564 0 27.4861 0 0)
(37.3861 -6.69902 0 26.8799 0 0)
(42.7009 -7.38516 0 26.2613 0 0)
(47.6239 -8.02552 0 25.6331 0 0)
(52.1049 -8.61596 0 25.0086 0 0)
(56.1121 -9.14855 0 24.3874 0 0)
(59.6454 -9.62139 0 23.7785 0 0)
(62.7085 -10.0269 0 23.1802 0 0)
(65.3291 -10.3655 0 22.6023 0 0)
(67.5476 -10.6326 0 22.0351 0 0)
(69.3168 -10.83 0 21.4593 0 0)
(0.269698 -0.304808 0 18.2174 0 0)
(2.11394 -0.920434 0 18.5617 0 0)
(5.23743 -1.55515 0 18.0108 0 0)
(9.53741 -2.23842 0 17.8047 0 0)
(14.5943 -2.90287 0 17.5616 0 0)
(20.1372 -3.55312 0 17.277 0 0)
(25.8994 -4.18441 0 16.9567 0 0)
(31.6622 -4.79343 0 16.6137 0 0)
(37.25 -5.37362 0 16.2518 0 0)
(42.5395 -5.92152 0 15.8817 0 0)
(47.44 -6.42985 0 15.5049 0 0)
(51.9001 -6.89628 0 15.1297 0 0)
(55.8914 -7.31398 0 14.7561 0 0)
(59.4119 -7.68266 0 14.3892 0 0)
(62.4698 -7.99653 0 14.0286 0 0)
(65.0876 -8.25619 0 13.6795 0 0)
(67.3093 -8.4608 0 13.3375 0 0)
(69.1059 -8.61109 0 12.9905 0 0)
(0.269352 -0.22843 0 9.8852 0 0)
(2.11169 -0.69173 0 10.0688 0 0)
(5.22021 -1.17941 0 9.77147 0 0)
(9.49394 -1.70941 0 9.66907 0 0)
(14.5206 -2.22405 0 9.54464 0 0)
(20.03 -2.72467 0 9.39541 0 0)
(25.7554 -3.2069 0 9.22469 0 0)
(31.4802 -3.6683 0 9.04042 0 0)
(37.0289 -4.10309 0 8.84462 0 0)
(42.2813 -4.50974 0 8.64357 0 0)
(47.1458 -4.88266 0 8.43787 0 0)
(51.5757 -5.22199 0 8.23268 0 0)
(55.5417 -5.52195 0 8.02746 0 0)
(59.0459 -5.78475 0 7.82615 0 0)
(62.0955 -6.00428 0 7.62781 0 0)
(64.7124 -6.1841 0 7.43645 0 0)
(66.9378 -6.32717 0 7.24962 0 0)
(68.7678 -6.42915 0 7.06136 0 0)
(0.268214 -0.154909 0 4.48739 0 0)
(2.08482 -0.498176 0 4.58302 0 0)
(5.1589 -0.852851 0 4.45779 0 0)
(9.39309 -1.22939 0 4.42215 0 0)
(14.3941 -1.58659 0 4.37106 0 0)
(19.8781 -1.92902 0 4.30662 0 0)
(25.5769 -2.25407 0 4.22928 0 0)
(31.2757 -2.55948 0 4.14277 0 0)
(36.8014 -2.84366 0 4.04972 0 0)
(42.0331 -3.10778 0 3.95388 0 0)
(46.8809 -3.34895 0 3.85604 0 0)
(51.3015 -3.56802 0 3.75892 0 0)
(55.2618 -3.76124 0 3.66201 0 0)
(58.7719 -3.9307 0 3.568 0 0)
(61.8281 -4.07026 0 3.47531 0 0)
(64.4637 -4.18526 0 3.38782 0 0)
(66.6863 -4.2757 0 3.30255 0 0)
(68.5444 -4.3457 0 3.21832 0 0)
(0.255301 -0.0882439 0 1.42143 0 0)
(2.06881 -0.313609 0 1.48716 0 0)
(5.20732 -0.526244 0 1.44709 0 0)
(9.49998 -0.7347 0 1.43394 0 0)
(14.5545 -0.924864 0 1.41382 0 0)
(20.0898 -1.10754 0 1.39055 0 0)
(25.8448 -1.28422 0 1.3639 0 0)
(31.6028 -1.45235 0 1.33456 0 0)
(37.19 -1.6103 0 1.30357 0 0)
(42.4807 -1.75787 0 1.27195 0 0)
(47.3881 -1.89359 0 1.24013 0 0)
(51.861 -2.01746 0 1.2087 0 0)
(55.8712 -2.12746 0 1.17765 0 0)
(59.421 -2.22424 0 1.14768 0 0)
(62.5106 -2.30373 0 1.1184 0 0)
(65.1778 -2.36991 0 1.09191 0 0)
(67.4002 -2.42249 0 1.06669 0 0)
(69.2504 -2.46194 0 1.03973 0 0)
(0.245977 -0.0253438 0 0.141887 0 0)
(2.06664 -0.0978684 0 0.153668 0 0)
(5.18623 -0.165636 0 0.150883 0 0)
(9.44806 -0.230907 0 0.149714 0 0)
(14.4838 -0.293826 0 0.147411 0 0)
(20.0064 -0.354172 0 0.144683 0 0)
(25.7549 -0.413 0 0.141683 0 0)
(31.5105 -0.469502 0 0.138552 0 0)
(37.1048 -0.522844 0 0.135328 0 0)
(42.4135 -0.572846 0 0.132076 0 0)
(47.3512 -0.619201 0 0.128818 0 0)
(51.865 -0.661878 0 0.125615 0 0)
(55.9286 -0.700308 0 0.122471 0 0)
(59.5371 -0.734347 0 0.119446 0 0)
(62.697 -0.763261 0 0.116621 0 0)
(65.441 -0.788497 0 0.114283 0 0)
(67.7536 -0.806704 0 0.112208 0 0)
(69.6815 -0.815986 0 0.111822 0 0)
(0.0244869 0.0357763 0 0.71768 0 0)
(0.267318 0.0991511 0 0.678718 0 0)
(0.785642 0.18101 0 0.671528 0 0)
(1.53923 0.295148 0 0.662277 0 0)
(2.48629 0.424256 0 0.660664 0 0)
(3.60858 0.56916 0 0.657396 0 0)
(4.88419 0.716277 -2.38529e-19 0.655444 -6.4873e-20 1.47893e-37)
(6.31033 0.867213 2.42499e-19 0.651149 6.91798e-20 1.48345e-37)
(7.88036 1.01417 0 0.645143 0 0)
(9.59231 1.16158 2.44836e-19 0.637571 6.85958e-20 1.46124e-37)
(11.441 1.30559 0 0.628987 0 0)
(13.4205 1.44844 0 0.619888 0 0)
(15.5242 1.58552 0 0.611923 0 0)
(17.7456 1.71717 -2.77282e-19 0.605444 -5.16866e-20 1.34762e-37)
(20.0788 1.84025 0 0.599218 0 0)
(22.5241 1.95382 0 0.593979 0 0)
(25.0818 2.0537 3.40486e-19 0.589675 3.90185e-20 1.22106e-37)
(27.7502 2.14152 0 0.585215 0 0)
(30.5245 2.21996 0 0.58054 0 0)
(33.3989 2.29125 0 0.57609 0 0)
(36.3574 2.3544 -4.5648e-19 0.572761 -1.95597e-20 1.01801e-37)
(39.3906 2.41015 0 0.569023 0 0)
(42.4846 2.45655 -5.16268e-19 0.566791 -1.02816e-20 9.25465e-38)
(45.6304 2.49348 0 0.567989 0 0)
(48.8116 2.52716 0 0.568689 0 0)
(52.0144 2.55022 -6.0444e-19 0.5708 1.24252e-21 7.97904e-38)
(55.2314 2.55246 0 0.572628 0 0)
(58.4671 2.53511 6.58079e-19 0.571127 -6.96255e-21 7.21765e-38)
(61.7152 2.50417 0 0.563286 0 0)
(64.9815 2.46147 -7.02821e-19 0.552895 1.05136e-20 6.54067e-38)
(68.2646 2.40961 0 0.539343 0 0)
(71.552 2.35104 0 0.523517 0 0)
(74.836 2.28565 0 0.509467 0 0)
(78.1182 2.20968 0 0.498077 0 0)
(81.3923 2.12251 0 0.486523 0 0)
(84.6553 2.02706 7.79834e-19 0.475619 -1.40069e-20 4.59943e-38)
(87.9057 1.9232 0 0.463994 0 0)
(91.1446 1.81079 -1.56271e-18 0.447952 2.71622e-20 1.61361e-37)
(94.3707 1.69141 0 0.432357 0 0)
(97.579 1.56392 1.55261e-18 0.417721 -2.61801e-20 1.3995e-37)
(100.763 1.43082 0 0.402579 0 0)
(103.921 1.28851 0 0.390921 0 0)
(107.045 1.13794 -1.51452e-18 0.378367 2.15723e-20 1.11257e-37)
(110.116 0.985106 0 0.365558 0 0)
(113.121 0.830306 -1.47597e-18 0.354756 1.82673e-20 9.43284e-38)
(116.044 0.672364 1.45352e-18 0.345906 -1.65336e-20 8.66391e-38)
(118.868 0.508624 0 0.339796 0 0)
(121.587 0.338669 1.40271e-18 0.33503 -1.25103e-20 7.34337e-38)
(124.184 0.163275 1.3745e-18 0.331142 -1.06445e-20 6.79749e-38)
(126.659 -0.0146302 0 0.327896 0 0)
(128.998 -0.19398 0 0.325776 0 0)
(131.183 -0.377569 0 0.323101 0 0)
(133.19 -0.56615 0 0.321894 0 0)
(135.002 -0.757025 0 0.323938 0 0)
(136.591 -0.946884 -1.17422e-18 0.32815 -4.39698e-21 5.01926e-38)
(137.929 -1.13818 0 0.332253 0 0)
(139.003 -1.33425 1.07958e-18 0.335935 1.1463e-20 4.75434e-38)
(139.818 -1.53697 0 0.341153 0 0)
(140.368 -1.74584 0 0.347946 0 0)
(140.638 -1.95183 -9.11819e-19 0.357269 -2.24666e-20 4.75441e-38)
(140.622 -2.156 0 0.369254 0 0)
(140.304 -2.36106 7.80385e-19 0.381263 3.12513e-20 4.97118e-38)
(139.69 -2.56489 0 0.391554 0 0)
(138.776 -2.76866 0 0.404347 0 0)
(137.57 -2.97157 0 0.418517 0 0)
(136.086 -3.16725 -4.8203e-19 0.432923 -4.76133e-20 6.0367e-38)
(134.327 -3.35634 0 0.447649 0 0)
(132.305 -3.53907 0 0.460729 0 0)
(130.034 -3.71448 -2.26274e-19 0.474387 -6.12061e-20 7.30668e-38)
(127.533 -3.88766 0 0.489464 0 0)
(124.84 -4.05357 -5.06849e-20 0.504645 -6.9852e-20 8.30511e-38)
(121.965 -4.20704 0 0.520103 0 0)
(118.926 -4.34834 0 0.536106 0 0)
(115.753 -4.47886 0 0.55325 0 0)
(112.468 -4.60005 -3.05028e-19 0.571397 8.32174e-20 1.04564e-37)
(109.091 -4.70915 0 0.589489 0 0)
(105.639 -4.80295 0 0.607455 0 0)
(102.121 -4.88169 -5.64417e-19 0.625559 9.03467e-20 1.20198e-37)
(98.5521 -4.94979 -6.46244e-19 0.644349 9.18885e-20 1.25312e-37)
(94.9596 -5.00688 0 0.663164 0 0)
(91.3744 -5.05212 -7.99342e-19 0.682899 9.46623e-20 1.34735e-37)
(87.8173 -5.0862 0 0.704096 0 0)
(84.309 -5.10842 -1.8784e-18 0.725664 1.92637e-19 5.74611e-37)
(80.8638 -5.11766 0 0.748316 0 0)
(77.4994 -5.11236 -2.12336e-18 0.770897 1.93759e-19 6.07774e-37)
(74.2341 -5.09064 0 0.793845 0 0)
(71.0821 -5.05585 2.326e-18 0.819818 -1.93896e-19 6.36757e-37)
(68.0608 -5.00779 0 0.84485 0 0)
(65.1846 -4.94112 0 0.867167 0 0)
(62.4533 -4.85568 0 0.889878 0 0)
(59.8711 -4.75346 -2.58683e-18 0.914894 1.86275e-19 6.80074e-37)
(57.4437 -4.63692 0 0.939507 0 0)
(55.1798 -4.5043 2.64777e-18 0.963772 -1.79994e-19 6.94783e-37)
(53.0824 -4.35543 0 0.987522 0 0)
(51.1405 -4.18425 -2.65966e-18 1.01109 1.73656e-19 7.03626e-37)
(49.3489 -3.99645 -2.65046e-18 1.03238 1.70423e-19 7.07122e-37)
(47.6953 -3.79589 -2.6315e-18 1.05361 1.66265e-19 7.09755e-37)
(46.1747 -3.58625 0 1.07599 0 0)
(44.7605 -3.3665 0 1.09912 0 0)
(43.4637 -3.1377 0 1.11862 0 0)
(42.2662 -2.89991 0 1.13838 0 0)
(41.1634 -2.66061 0 1.15826 0 0)
(40.1376 -2.42085 0 1.17724 0 0)
(39.1851 -2.17812 0 1.1923 0 0)
(38.2596 -1.9345 0 1.20821 0 0)
(37.3587 -1.69739 2.02474e-18 1.22341 -1.31608e-19 7.07633e-37)
(36.4496 -1.46883 1.91066e-18 1.24051 -1.24341e-19 7.06937e-37)
(35.5551 -1.24928 0 1.25204 0 0)
(34.6404 -1.03862 0 1.26504 0 0)
(33.7169 -0.851779 0 1.27916 0 0)
(32.7326 -0.67543 1.35448e-18 1.29188 -1.04833e-19 6.90771e-37)
(31.789 -0.525411 0 1.29921 0 0)
(30.7788 -0.383554 0 1.30904 0 0)
(29.8252 -0.281183 0 1.3191 0 0)
(28.9017 -0.197999 0 1.33225 0 0)
(28.0771 -0.147852 -4.39444e-19 1.34059 7.56771e-20 6.65862e-37)
(27.3822 -0.121668 0 1.34983 0 0)
(26.8486 -0.130689 0 1.36311 0 0)
(26.5594 -0.172998 -2.2346e-19 1.37075 -6.51256e-20 6.42095e-37)
(26.5125 -0.241835 4.50898e-19 1.38371 6.10134e-20 6.29658e-37)
(26.7628 -0.351662 0 1.40062 0 0)
(27.3636 -0.508162 9.13337e-19 1.41785 6.00897e-20 6.05059e-37)
(28.3795 -0.704717 0 1.437 0 0)
(29.8722 -0.956791 -1.35443e-18 1.45468 -6.46218e-20 5.75446e-37)
(31.8626 -1.24288 0 1.47743 0 0)
(34.4254 -1.57886 0 1.50447 0 0)
(37.4596 -1.95703 0 1.53722 0 0)
(41.0759 -2.38586 0 1.5715 0 0)
(45.1267 -2.84076 0 1.60956 0 0)
(49.6176 -3.3422 4.89876e-18 1.65175 2.04698e-19 1.97184e-36)
(54.484 -3.88762 5.15367e-18 1.69788 2.30643e-19 1.93705e-36)
(59.7449 -4.46871 0 1.74597 0 0)
(65.202 -5.07029 0 1.80194 0 0)
(70.8159 -5.69711 0 1.85716 0 0)
(76.4375 -6.30956 -5.69352e-18 1.91808 -3.52318e-19 1.9171e-36)
(81.8388 -6.92355 0 1.98925 0 0)
(86.9828 -7.54484 0 2.06144 0 0)
(91.8123 -8.15907 0 2.13791 0 0)
(96.2514 -8.75172 -5.33133e-18 2.21621 -5.33505e-19 2.07135e-36)
(100.282 -9.31848 5.09757e-18 2.29965 5.82168e-19 2.13316e-36)
(103.692 -9.84032 0 2.39041 0 0)
(106.6 -10.3496 0 2.48318 0 0)
(108.97 -10.803 4.07891e-18 2.57772 7.35194e-19 2.36519e-36)
(110.809 -11.2222 3.64991e-18 2.67109 7.84031e-19 2.45047e-36)
(111.964 -11.5661 0 2.77134 0 0)
(112.536 -11.8811 0 2.87124 0 0)
(112.418 -12.1231 -2.05269e-18 2.97516 -9.45462e-19 2.71835e-36)
(111.741 -12.3472 1.4234e-18 3.0701 9.89049e-19 2.79707e-36)
(110.549 -12.5007 0 3.16682 0 0)
(108.641 -12.6003 0 3.26739 0 0)
(106.14 -12.6334 -5.20217e-19 3.35821 1.1168e-18 3.06775e-36)
(103.007 -12.6128 0 3.44862 0 0)
(99.5273 -12.5543 0 3.53213 0 0)
(95.5411 -12.4053 -2.54594e-18 3.60455 1.20564e-18 3.30017e-36)
(91.246 -12.1844 0 3.67651 0 0)
(86.6291 -11.8526 -3.82917e-18 3.73793 1.25653e-18 3.44282e-36)
(81.7471 -11.4355 0 3.79363 0 0)
(76.6422 -10.9005 0 3.83273 0 0)
(71.7007 -10.2674 0 3.85678 0 0)
(66.8208 -9.47004 5.86668e-18 3.87548 -1.27721e-18 3.68083e-36)
(62.1654 -8.55358 0 3.87909 0 0)
(57.9512 -7.48458 0 3.86687 0 0)
(54.4952 -6.29517 0 3.83897 0 0)
(51.6352 -4.91679 0 3.79707 0 0)
(49.5328 -3.45815 0 3.74658 0 0)
(48.8092 -1.90573 0 3.67451 0 0)
(49.646 -0.283355 6.01799e-18 3.58479 -1.10393e-18 3.72671e-36)
(51.7059 1.42917 5.60253e-18 3.48653 -1.04958e-18 3.70905e-36)
(55.4084 3.12068 0 3.37507 0 0)
(60.6628 4.74653 0 3.25724 0 0)
(67.4644 6.32579 0 3.12783 0 0)
(75.3943 7.79824 -3.05068e-18 2.99813 7.94866e-19 3.38286e-36)
(84.5171 9.0988 0 2.87001 0 0)
(94.0705 10.2862 2.94591e-18 2.73501 -1.35008e-18 1.2359e-35)
(103.953 11.2428 -1.30826e-18 2.60431 1.21729e-18 1.16575e-35)
(113.584 12.0327 3.19126e-19 2.47307 1.10473e-18 1.10157e-35)
(123.233 12.6828 -2.02198e-18 2.34834 -1.01396e-18 1.03305e-35)
(131.347 13.2235 3.67391e-18 2.22941 9.22531e-19 9.75638e-36)
(139.215 13.7001 -5.27832e-18 2.12217 -9.0323e-19 8.99217e-36)
(142.96 14.3925 0 2.06625 0 0)
(0.0183129 0.174282 0 6.09926 0 0)
(0.20276 0.388062 0 6.03715 0 0)
(0.629583 0.610104 1.31889e-19 5.86416 1.75723e-19 6.76527e-37)
(1.32722 0.854759 0 5.74313 0 0)
(2.26947 1.13418 -1.92634e-19 5.68317 -3.5344e-19 9.19601e-37)
(3.44582 1.43903 -1.84244e-19 5.656 -4.41386e-19 9.72716e-37)
(4.83519 1.76365 -8.08162e-20 5.64067 -2.51426e-19 2.49017e-37)
(6.4233 2.10408 -6.90637e-20 5.62272 -2.70353e-19 2.61272e-37)
(8.20229 2.45311 0 5.59443 0 0)
(10.1701 2.80625 -4.22379e-20 5.55186 -2.69167e-19 2.59425e-37)
(12.3281 3.15474 0 5.49995 0 0)
(14.6745 3.49617 0 5.44027 0 0)
(17.201 3.8254 9.49165e-20 5.37192 4.23759e-19 9.51129e-37)
(19.9084 4.14194 6.96494e-20 5.29997 1.86881e-19 2.34133e-37)
(22.786 4.43611 -1.85804e-19 5.22472 -3.26176e-19 8.93647e-37)
(25.8278 4.70789 -2.52146e-19 5.14646 -2.81112e-19 8.65924e-37)
(29.0226 4.9588 -1.71467e-19 5.06202 -1.18386e-19 2.12749e-37)
(32.364 5.1903 0 4.97119 0 0)
(35.8402 5.40068 0 4.87546 0 0)
(39.4425 5.59448 0 4.77277 0 0)
(43.1476 5.77096 -3.87112e-19 4.66789 -3.65927e-20 1.80399e-37)
(46.9466 5.92742 0 4.5634 0 0)
(50.8169 6.05549 1.61063e-18 4.45686 -1.65753e-20 1.55185e-36)
(54.7457 6.15882 0 4.35383 0 0)
(58.716 6.23913 0 4.24851 0 0)
(62.7101 6.29659 7.75376e-19 4.14413 -5.77507e-20 1.565e-37)
(66.7007 6.32795 0 4.03798 0 0)
(70.6688 6.34245 -9.33476e-19 3.93718 8.18107e-20 1.45993e-37)
(74.5809 6.33372 -1.99452e-18 3.83704 1.8153e-19 5.57075e-37)
(78.4269 6.29658 1.0775e-18 3.73418 -9.87134e-20 1.36616e-37)
(82.2029 6.22797 0 3.6263 0 0)
(85.9087 6.13142 0 3.52094 0 0)
(89.531 6.00942 0 3.41757 0 0)
(93.0736 5.86305 -2.57709e-18 3.30942 2.22549e-19 4.71338e-37)
(96.5283 5.68679 -2.65527e-18 3.20194 2.20022e-19 4.55172e-37)
(99.9087 5.48095 -1.37378e-18 3.10092 1.07416e-19 1.10759e-37)
(103.223 5.24387 0 3.00896 0 0)
(106.465 4.97058 2.83813e-18 2.92081 -2.02603e-19 4.12821e-37)
(109.643 4.65907 0 2.83558 0 0)
(112.75 4.31868 -2.87464e-18 2.75404 1.88016e-19 3.81573e-37)
(115.795 3.95051 0 2.67369 0 0)
(118.774 3.56241 0 2.60155 0 0)
(121.692 3.15834 2.82751e-18 2.53064 -1.53738e-19 3.31693e-37)
(124.536 2.73537 0 2.46536 0 0)
(127.286 2.28693 8.15973e-18 2.40744 -3.9269e-19 2.68461e-36)
(129.941 1.80884 -2.68877e-18 2.36215 1.18995e-19 2.83718e-37)
(132.505 1.30546 0 2.33505 0 0)
(134.994 0.776946 -2.5491e-18 2.3193 9.08168e-20 2.51784e-37)
(137.391 0.215747 -2.46848e-18 2.31309 7.66038e-20 2.3622e-37)
(139.696 -0.371666 0 2.31546 0 0)
(141.884 -0.970776 0 2.32891 0 0)
(143.938 -1.56744 0 2.34398 0 0)
(145.843 -2.15221 0 2.35754 0 0)
(147.56 -2.72943 0 2.38112 0 0)
(149.079 -3.30808 1.88354e-18 2.41387 1.45288e-20 1.72114e-37)
(150.376 -3.89567 3.45153e-18 2.45716 7.11683e-20 6.55974e-37)
(151.433 -4.48693 -1.64462e-18 2.50828 -5.59218e-20 1.60128e-37)
(152.261 -5.09653 0 2.56444 0 0)
(152.832 -5.70755 2.68749e-18 2.62758 1.90258e-19 6.01552e-37)
(153.118 -6.29801 -1.17023e-18 2.6957 -1.13267e-19 1.4689e-37)
(153.148 -6.88336 0 2.77245 0 0)
(152.87 -7.46272 -9.78349e-19 2.86236 -1.48656e-19 1.49533e-37)
(152.297 -8.02031 0 2.95563 0 0)
(151.422 -8.56862 0 3.05691 0 0)
(150.242 -9.09858 -1.04754e-18 3.16306 -3.97052e-19 6.25687e-37)
(148.743 -9.59969 4.22572e-19 3.27392 2.15315e-19 1.63787e-37)
(146.965 -10.0931 -4.88891e-19 3.39426 -4.62378e-19 6.68571e-37)
(144.902 -10.5651 2.11684e-19 3.51883 4.89295e-19 6.92366e-37)